/*--------------------------------*- C++ -*----------------------------------*\
| =========                 |                                                 |
| \\      /  F ield         | OpenFOAM: The Open Source CFD Toolbox           |
|  \\    /   O peration     | Version:  2312                                  |
|   \\  /    A nd           | Website:  www.openfoam.com                      |
|    \\/     M anipulation  |                                                 |
\*---------------------------------------------------------------------------*/
FoamFile
{
    version     2.0;
    format      ascii;
    arch        "LSB;label=32;scalar=64";
    class       volScalarField;
    location    "850";
    object      div(phi);
}
// * * * * * * * * * * * * * * * * * * * * * * * * * * * * * * * * * * * * * //

dimensions      [0 0 -1 0 0 0 0];

internalField   nonuniform List<scalar> 
11040
(
0.000558414
0.000356886
0.00137454
0.00135234
0.00140789
0.000992593
0.000861048
0.00138875
0.00101223
0.00214971
0.000464505
0.00198922
0.000962749
0.00232947
0.00132309
0.00163867
0.00107304
0.00125493
0.00176094
0.00215028
0.00251297
0.00274643
0.00230701
0.00209204
0.00047596
0.00141781
-7.16569e-05
0.000986249
-4.91062e-05
0.000504528
-6.69456e-06
0.000179125
-9.04773e-05
0.000403938
0.000375394
0.000410065
0.000655565
0.000635491
-0.000300183
0.0094932
0.00872412
0.000147946
0.000226212
0.00054905
0.00112694
0.00177374
0.0020228
0.00208408
0.00205255
0.00163404
0.00181388
0.00146731
0.00222145
0.00196808
0.00267625
0.00223283
0.00244758
0.00253028
0.00261472
0.00310696
0.00244896
0.00259704
0.00282732
0.00262707
0.0027043
0.00161972
0.00163353
0.000701089
0.00086496
0.000456307
0.000569506
0.000549541
0.000655757
0.000869213
0.00102221
0.00120955
0.00137686
0.00154765
0.00172087
0.00246045
0.00499925
0.00521754
0.000205162
3.84285e-05
0.00012058
6.63665e-05
0.000156064
0.000463034
0.000580313
0.000433736
0.000277487
0.000315646
5.30827e-05
0.000355972
0.000128787
0.000348111
0.000106996
0.000166133
-0.000123307
-2.1508e-05
0.000241056
0.000395407
0.000251248
0.000382622
0.000218299
0.000128604
-0.000187022
0.000163694
-0.000169665
0.000177591
-9.58052e-05
7.6169e-05
-2.8639e-05
-5.41757e-05
-0.000133827
-1.18389e-05
1.04545e-06
-0.000262446
-1.39e-05
-0.000239458
-0.000545389
0.00128859
0.00107654
8.7281e-07
-3.20331e-05
7.96377e-06
-1.15969e-05
0.000161539
0.000311345
0.000639271
0.00081547
0.000972683
0.000970984
0.000934592
0.000888383
0.000909844
0.00100724
0.00105317
0.00114795
0.00122037
0.00142002
0.00148105
0.00128924
0.00123909
0.00133113
0.00123261
0.00119045
0.000810881
0.000742585
0.000458383
0.0004598
0.00034075
0.000390523
0.00038986
0.000445316
0.000495973
0.000605909
0.000643418
0.000785617
0.000830046
0.000961582
0.00116142
0.00188489
0.00180133
-0.000135996
3.5664e-05
-1.08586e-05
9.66679e-05
6.73096e-05
0.00011965
0.000135751
0.000243391
0.000380079
0.000411879
0.000256557
0.000220425
0.000114933
0.000171432
0.000179875
0.000224273
0.000126806
0.000248342
0.000215695
0.000252181
7.64477e-05
4.75137e-05
4.74918e-05
-2.3761e-05
-4.41581e-05
1.41359e-05
-3.39548e-06
5.01584e-05
1.21711e-05
4.49133e-05
4.04698e-05
2.24669e-05
9.92175e-07
7.25298e-05
9.37653e-05
1.6879e-05
0.000130959
3.48607e-05
4.86903e-05
0.000416393
0.000417458
0.000247761
-9.95336e-05
9.40889e-05
-0.000115013
-8.76451e-06
1.91882e-05
7.62888e-06
7.78354e-05
0.000140382
0.000278413
0.000295615
0.000420842
0.000492309
0.000548517
0.000571811
0.000599362
0.000690573
0.000758101
0.000797092
0.000696713
0.000665138
0.000638947
0.000632478
0.000540718
0.000448021
0.000365019
0.000326155
0.00027598
0.000270064
0.000258381
0.000283161
0.000274196
0.000314005
0.000337091
0.000376773
0.000378323
0.000443821
0.000384873
0.000513752
0.000536523
0.00058306
-0.000129458
5.47452e-05
-0.000241672
-4.12784e-05
3.58469e-05
3.25193e-05
8.3462e-05
6.43463e-05
0.000125697
0.000110955
0.000235826
0.000288976
0.000318626
0.000278268
0.000291023
0.000290408
0.000314982
0.000359036
0.000301183
0.000281528
0.000126045
0.00011752
0.000111433
9.81485e-05
6.91614e-05
0.00010535
8.90065e-05
0.000116911
9.6613e-05
0.000120462
0.000116522
0.000124323
0.000116614
0.000164479
0.000165971
0.000191832
0.000180848
0.000204511
0.000131092
0.000239333
0.000127022
7.44894e-05
-0.000151319
-0.000168934
8.91417e-05
5.62423e-06
0.000154693
1.38941e-05
7.00984e-05
-3.21593e-05
6.484e-05
-4.04452e-05
2.22646e-05
0.000124415
0.000188933
0.000243422
0.000357842
0.000382536
0.000428123
0.000407315
0.000349782
0.000303539
0.000308712
0.000279655
0.000257325
0.000226837
0.000201995
0.000168283
0.000170019
0.000145106
0.000159073
0.000141396
0.000151039
0.000140466
0.000166002
0.000148741
0.000163645
0.000135116
0.000109114
9.54732e-05
6.67928e-05
4.98991e-05
4.3554e-05
-0.000291279
0.00013636
-0.000114311
0.00022642
-3.45438e-05
7.58755e-05
-0.000114345
3.14235e-05
-0.000109437
-3.66889e-05
5.439e-05
8.36096e-05
0.000152045
0.000265155
0.000300053
0.000371754
0.000324754
0.000277262
0.000189134
0.000156157
0.000152095
0.000177804
0.000159792
0.000153496
0.000128798
0.000148509
0.000124901
0.000148101
0.000127959
0.000152247
0.000127015
0.000152826
0.00013037
0.00015944
0.000121122
0.000136411
7.17609e-05
6.81461e-05
4.07117e-06
-4.96741e-06
-0.000162582
7.2982e-05
-0.000136739
0.000188401
-1.98126e-05
8.66484e-05
-8.87216e-05
1.10587e-05
-7.83878e-05
-4.71175e-05
4.63912e-05
3.4563e-05
7.26316e-05
9.5093e-05
3.47237e-05
0.000115978
6.78898e-05
0.000101076
0.000151352
0.000131875
0.000133424
0.000152167
0.000144824
0.000138843
0.00013383
0.000143924
4.5973e-05
0.00012574
5.2846e-05
0.000120443
6.2974e-05
0.000115089
6.44555e-05
0.000117366
5.83855e-05
0.000109443
2.02958e-05
6.26909e-05
-3.99256e-05
2.03178e-06
-0.000103936
-2.1444e-05
-2.77778e-05
4.30613e-05
4.46112e-05
5.92465e-05
1.96334e-05
8.65045e-06
7.06838e-06
-1.36268e-05
4.36302e-05
3.33369e-05
3.92077e-05
6.7093e-05
-4.5477e-05
1.06051e-05
-5.33382e-05
-2.51694e-05
7.61286e-05
8.40942e-05
0.000132957
0.000143652
0.000146145
0.000156076
0.000156472
0.000158521
6.73145e-05
0.000122472
9.26802e-06
9.05335e-05
1.17659e-05
7.83076e-05
1.1251e-05
7.9155e-05
3.64062e-06
8.24055e-05
-2.86753e-05
7.64989e-05
-7.76861e-05
6.10383e-05
-0.000117965
4.30623e-05
5.32899e-06
4.83491e-06
3.84406e-05
4.39067e-05
5.57666e-05
4.79996e-05
4.3539e-05
4.81412e-05
3.49274e-05
5.67168e-05
2.67465e-05
6.33121e-05
-4.08118e-05
-9.65635e-06
-4.54165e-05
-4.35306e-05
2.66282e-05
1.02298e-06
4.15352e-05
4.04609e-05
3.1509e-05
7.71148e-05
8.78411e-05
0.000100812
0.000132403
0.00010378
6.4388e-05
5.67972e-05
4.04506e-05
3.5865e-05
3.10256e-05
3.76527e-05
2.0511e-05
4.58839e-05
-5.04511e-06
6.22683e-05
-4.40893e-05
7.15942e-05
-7.52823e-05
8.5978e-05
-9.02125e-05
2.07919e-05
9.37952e-06
3.70907e-05
2.45959e-05
5.09193e-05
3.65498e-05
5.08691e-05
4.22753e-05
4.61084e-05
4.3934e-05
4.04648e-05
1.28753e-05
-4.05321e-06
-5.78322e-06
-2.68138e-05
1.34598e-05
-1.36722e-05
1.03233e-06
-2.19379e-06
-3.80859e-05
-1.55812e-05
-1.87268e-05
-3.76392e-06
0.000107368
4.32684e-05
0.000163629
3.38993e-05
0.000140562
6.78954e-06
0.000117631
2.90945e-06
0.000103812
-3.08073e-06
9.17362e-05
-4.58149e-07
7.46787e-05
-7.57617e-06
6.15254e-05
-8.85425e-06
4.27858e-05
-1.21155e-05
2.08882e-05
2.72512e-06
3.32468e-05
9.28582e-06
4.42326e-05
1.64348e-05
4.71312e-05
2.17886e-05
4.29744e-05
2.87753e-05
3.57437e-05
2.50572e-05
1.85314e-05
1.33343e-05
8.71491e-06
5.3666e-06
-2.16309e-06
1.33279e-06
-3.13319e-05
-2.11011e-05
-2.1038e-05
-1.9517e-05
3.01401e-05
1.48839e-06
0.000132836
3.62379e-05
0.00017697
2.75915e-05
0.000175456
1.56019e-05
0.000169406
-9.66669e-06
0.000165784
-3.52665e-05
0.000170207
-7.2667e-05
0.000179545
-0.00010875
0.000173645
-0.000124339
0.000121823
1.72992e-05
-8.77499e-07
2.85269e-05
2.11889e-06
3.86915e-05
4.6672e-06
4.23058e-05
6.78803e-06
3.92684e-05
1.11969e-05
3.2987e-05
1.36343e-05
2.34224e-05
1.47817e-05
1.83048e-05
1.69484e-05
1.20064e-05
2.18816e-06
-3.13343e-06
4.32227e-06
2.42471e-06
1.6748e-05
1.3066e-05
5.32492e-05
4.2412e-05
8.69769e-05
6.1787e-05
0.000104475
6.65905e-05
0.000108232
5.72911e-05
0.000105652
3.68744e-05
0.000102891
1.05427e-05
9.85489e-05
-2.60975e-05
8.11817e-05
-4.46148e-05
4.91724e-05
-6.85093e-05
1.46357e-05
-2.90183e-06
2.4609e-05
-1.4474e-06
3.30952e-05
-2.43407e-06
3.68873e-05
-3.55264e-06
3.4825e-05
-3.82083e-06
2.81903e-05
-1.0428e-06
2.19554e-05
4.48447e-06
2.01506e-05
1.43196e-05
2.05129e-05
1.86546e-05
1.93984e-05
2.13022e-05
2.16056e-05
2.80639e-05
2.67731e-05
3.95187e-05
3.43527e-05
5.30774e-05
3.94929e-05
6.42001e-05
4.27324e-05
7.60954e-05
4.04734e-05
7.91418e-05
2.73614e-05
8.05195e-05
3.52158e-06
7.36333e-05
-2.49432e-05
6.95685e-05
-5.63507e-05
5.50101e-05
-6.0341e-05
1.29173e-05
-3.81968e-06
2.07062e-05
-4.0924e-06
2.67507e-05
-6.32312e-06
3.00183e-05
-8.94979e-06
2.89675e-05
-1.10949e-05
2.4305e-05
-9.82164e-06
2.0366e-05
-4.6193e-06
1.89296e-05
3.98446e-06
1.9974e-05
1.28485e-05
2.16733e-05
1.80908e-05
2.34813e-05
2.28134e-05
2.65242e-05
2.78969e-05
2.8663e-05
3.31844e-05
3.01268e-05
3.82695e-05
3.03861e-05
4.46344e-05
2.90431e-05
5.04533e-05
2.29294e-05
5.56671e-05
1.01897e-05
6.43928e-05
-7.29346e-06
7.15733e-05
-2.01534e-05
6.48693e-05
-3.56109e-05
9.2255e-06
-1.24868e-06
1.54924e-05
-1.58628e-06
2.01607e-05
-3.45326e-06
2.32188e-05
-6.14185e-06
2.32765e-05
-9.04233e-06
2.05693e-05
-9.27465e-06
1.76811e-05
-6.5851e-06
1.58505e-05
-1.03059e-06
1.55221e-05
5.78341e-06
1.66857e-05
1.03322e-05
1.86257e-05
1.39966e-05
2.20826e-05
1.72086e-05
2.48429e-05
2.00834e-05
2.66618e-05
2.30129e-05
2.68701e-05
2.68741e-05
2.45469e-05
3.1289e-05
1.86896e-05
3.57086e-05
9.3267e-06
3.83494e-05
-2.4087e-06
3.85312e-05
-1.91822e-05
4.10467e-05
-2.38844e-05
8.95981e-06
-1.43064e-06
1.12596e-05
-1.65362e-06
1.39374e-05
-3.26422e-06
1.58243e-05
-5.82033e-06
1.63354e-05
-8.19441e-06
1.51872e-05
-8.71973e-06
1.34923e-05
-7.31021e-06
1.21038e-05
-4.2874e-06
1.12414e-05
-1.82033e-07
1.1517e-05
2.58417e-06
1.31476e-05
5.01626e-06
1.6671e-05
7.24047e-06
2.03137e-05
9.71085e-06
2.368e-05
1.24973e-05
2.64075e-05
1.57978e-05
2.76963e-05
2.04412e-05
2.71496e-05
2.64029e-05
2.49472e-05
3.3379e-05
2.06929e-05
4.17123e-05
1.44735e-05
5.3033e-05
7.41505e-06
-2.80895e-06
6.48729e-06
1.81016e-07
5.34892e-06
3.53834e-06
2.78311e-06
5.86996e-06
4.85259e-07
7.25504e-06
-2.0277e-06
7.40726e-06
-3.29793e-06
6.49289e-06
-3.70409e-06
5.11891e-06
-2.57238e-06
3.91193e-06
-6.48108e-07
3.63214e-06
1.04439e-06
5.6508e-06
1.70114e-06
9.56317e-06
2.89153e-06
1.39151e-05
4.49385e-06
1.8567e-05
6.52644e-06
2.298e-05
8.54102e-06
2.70077e-05
9.70666e-06
2.93823e-05
1.14308e-05
2.88897e-05
1.49111e-05
2.47331e-05
1.95322e-05
1.5548e-05
3.12088e-05
2.77581e-06
1.30161e-05
-1.05246e-05
1.3461e-05
-1.15234e-05
1.71605e-05
-1.35762e-05
2.03449e-05
-1.63415e-05
2.24505e-05
-1.94571e-05
2.42276e-05
-2.13775e-05
2.35784e-05
-2.18091e-05
2.28518e-05
-2.09817e-05
2.10934e-05
-1.88539e-05
2.02285e-05
-1.64362e-05
1.94893e-05
-1.48441e-05
2.08426e-05
-1.35603e-05
2.16604e-05
-1.21437e-05
2.26148e-05
-1.09136e-05
2.31122e-05
-8.68621e-06
2.06229e-05
-5.03705e-06
1.95847e-05
-8.1081e-07
1.6462e-05
3.66594e-06
9.40761e-06
8.43211e-06
5.19882e-08
1.99521e-05
-7.77819e-06
-1.46298e-06
1.55757e-06
-2.61166e-06
4.65286e-06
-1.40508e-06
6.6176e-06
-1.33572e-06
8.71651e-06
-1.97537e-06
1.02338e-05
-2.6566e-06
1.16063e-05
-2.95841e-06
1.17251e-05
-2.63073e-06
1.21696e-05
-1.72042e-06
1.20132e-05
-2.03898e-07
1.27984e-05
1.01248e-06
1.46617e-05
2.12852e-06
1.75464e-05
3.47667e-06
2.0097e-05
4.97329e-06
2.41934e-05
7.9424e-06
2.57226e-05
1.46469e-05
3.3554e-05
2.10803e-05
3.86893e-05
3.04105e-05
3.69069e-05
4.15503e-05
4.303e-05
4.69333e-05
3.49076e-05
5.11091e-05
8.0559e-06
-4.56606e-06
2.71494e-06
-1.197e-06
3.17691e-06
1.03283e-06
2.9786e-06
2.99219e-06
2.21861e-06
4.7665e-06
1.86499e-06
6.13417e-06
1.19119e-06
7.0031e-06
1.54767e-06
7.65407e-06
2.03842e-06
8.20435e-06
3.32204e-06
9.32496e-06
3.58166e-06
1.14224e-05
4.69431e-06
1.4116e-05
6.04035e-06
1.68873e-05
9.37065e-06
2.04086e-05
1.44534e-05
2.68911e-05
1.88896e-05
2.91535e-05
2.2988e-05
2.89679e-05
2.21683e-05
2.77021e-05
1.62787e-05
1.13333e-05
1.05756e-05
1.06819e-06
9.48531e-06
-4.65226e-06
4.63344e-06
-5.46841e-06
6.02501e-06
-5.26691e-06
8.44459e-06
-5.93467e-06
1.05994e-05
-7.12782e-06
1.21495e-05
-8.4501e-06
1.35368e-05
-9.24737e-06
1.37222e-05
-9.12417e-06
1.38977e-05
-8.34877e-06
1.34021e-05
-7.07856e-06
1.28393e-05
-6.06064e-06
1.18491e-05
-5.58209e-06
9.96415e-06
-4.79057e-06
7.58507e-06
-2.83917e-06
3.79333e-06
-1.0487e-07
-1.82243e-07
3.06197e-06
-3.3031e-06
5.11753e-06
-7.05843e-06
6.37581e-06
-1.17262e-05
7.50666e-06
-1.21982e-05
5.10283e-06
-1.75548e-05
-2.26783e-06
5.48408e-06
-4.05794e-06
6.07538e-07
-1.19942e-06
2.39878e-06
-2.57163e-07
3.51082e-06
-6.23507e-08
4.72256e-06
-3.01294e-07
5.60605e-06
-5.84682e-07
6.53896e-06
-5.57763e-07
7.0993e-06
-3.65228e-08
7.86384e-06
8.29547e-07
8.16436e-06
1.81481e-06
8.78131e-06
2.57876e-06
9.04758e-06
3.42799e-06
9.50018e-06
5.12245e-06
7.52208e-06
9.15197e-06
8.23907e-06
1.2226e-05
7.67972e-06
1.55605e-05
4.81582e-06
1.59979e-05
5.12307e-06
1.47576e-05
1.07308e-07
1.17127e-05
-3.16898e-06
1.05524e-05
-1.02905e-05
-2.44179e-06
2.356e-06
-2.26248e-06
1.6128e-06
-4.07942e-07
1.66631e-06
6.64196e-07
1.72359e-06
1.61042e-06
1.12131e-06
2.44404e-06
9.26725e-07
3.23516e-06
6.3336e-07
3.99275e-06
1.13411e-06
4.73618e-06
1.87048e-06
5.4801e-06
2.62747e-06
6.30649e-06
3.93696e-06
7.30581e-06
6.06775e-06
7.76028e-06
9.09063e-06
9.12495e-06
1.08054e-05
6.08674e-06
1.22797e-05
3.13629e-06
1.04533e-05
-2.00899e-06
7.57035e-06
-9.93047e-06
4.57753e-06
-1.44869e-05
3.65179e-06
-1.87455e-05
1.94062e-06
-1.90744e-05
3.77121e-06
-4.19243e-06
2.63022e-06
-2.35869e-06
2.62987e-06
-2.30494e-06
3.65825e-06
-2.60899e-06
4.38499e-06
-3.15086e-06
4.92674e-06
-3.70735e-06
5.20843e-06
-3.84854e-06
5.13586e-06
-3.4393e-06
5.07932e-06
-2.42042e-06
4.22002e-06
-8.43309e-07
3.87459e-06
6.74123e-07
2.73965e-06
2.7747e-06
5.22947e-07
4.57638e-06
-2.90674e-06
6.34706e-06
-6.20561e-06
6.88666e-06
-1.1004e-05
7.05229e-06
-1.42872e-05
7.20418e-06
-1.62988e-05
8.50532e-06
-1.76624e-05
9.87614e-06
-1.85885e-05
1.03808e-05
-2.08054e-05
-2.416e-06
2.88034e-06
-2.1946e-06
4.76582e-07
-7.14546e-07
6.82184e-07
-4.26215e-07
1.21022e-06
-3.4762e-07
1.59003e-06
-4.2431e-07
2.11956e-06
-3.97928e-07
2.42319e-06
-9.59305e-08
3.15663e-06
7.61766e-07
3.42794e-06
2.66057e-06
4.57623e-06
3.81259e-06
5.72888e-06
6.73955e-06
5.75898e-06
1.05759e-05
8.2945e-06
1.35765e-05
8.12309e-06
1.65627e-05
6.74995e-06
1.77565e-05
6.28013e-06
1.79418e-05
3.40088e-06
1.6762e-05
5.01461e-07
1.55383e-05
-3.42122e-06
1.31349e-05
-6.98553e-06
1.22484e-05
1.75492e-06
-3.10069e-06
1.72503e-06
-9.69818e-07
4.28941e-07
-3.36014e-07
1.07277e-07
-3.40457e-08
-1.3308e-07
2.65436e-07
-2.51067e-07
5.96582e-07
-4.45628e-07
9.54602e-07
9.71829e-08
1.50222e-06
1.02434e-06
2.72113e-06
1.54322e-06
2.69295e-06
3.71243e-06
3.48163e-06
5.72555e-06
5.18523e-06
7.73563e-06
3.54557e-06
9.90111e-06
3.89124e-06
1.06229e-05
2.29625e-06
1.02829e-05
-6.01823e-07
9.47324e-06
-3.03007e-06
9.22558e-06
-4.86947e-06
9.23033e-06
-6.73341e-06
8.67452e-06
-8.99688e-06
8.76266e-06
-1.75398e-06
3.03419e-06
-2.04792e-06
1.65349e-06
-7.03886e-07
6.92034e-07
-9.01647e-07
5.9208e-07
-1.05445e-06
5.13462e-07
-1.15023e-06
1.36703e-07
-1.00962e-06
1.87008e-07
-6.96738e-07
3.06886e-08
3.45345e-07
-5.94785e-07
1.87498e-06
2.64725e-07
2.9951e-06
-4.40151e-07
4.35933e-06
-1.98233e-06
5.02922e-06
-2.72897e-06
5.01131e-06
-5.66365e-06
4.61786e-06
-8.26923e-06
4.26339e-06
-9.38187e-06
4.7741e-06
-1.00341e-05
5.70898e-06
-1.01119e-05
6.95398e-06
-1.02894e-05
7.26691e-06
-1.0658e-05
7.37287e-06
1.22668e-06
-2.428e-06
2.1988e-06
-7.46294e-07
5.44717e-07
-4.99431e-08
2.02882e-07
-1.6638e-07
1.75777e-07
-2.15389e-07
1.02725e-07
-2.97044e-08
2.62861e-07
-1.00784e-07
4.85543e-07
7.52211e-07
3.91792e-07
2.01368e-06
1.6867e-06
2.40738e-06
1.13144e-06
3.09168e-06
1.45137e-07
3.19006e-06
-8.66261e-07
2.64059e-06
-3.54315e-06
2.14359e-06
-5.55119e-06
2.26529e-06
-6.59282e-06
2.46403e-06
-7.46531e-06
2.88172e-06
-8.01652e-06
3.32087e-06
-8.65713e-06
3.76781e-06
-9.02038e-06
3.41259e-06
-1.01744e-05
-1.30557e-06
2.07782e-06
-1.60634e-06
1.43809e-06
2.9724e-07
4.17042e-07
4.33754e-07
-5.08304e-08
3.29912e-07
-2.09909e-07
3.44242e-07
-4.04173e-07
9.92517e-08
1.66436e-07
1.95435e-07
4.55608e-07
7.29196e-07
7.53041e-07
-9.44353e-08
1.72746e-06
-1.50947e-07
1.8792e-06
-5.69524e-07
2.29666e-06
-2.22912e-06
2.98033e-06
-2.55099e-06
3.96518e-06
-2.38322e-06
4.77978e-06
-2.99354e-06
5.09644e-06
-3.75276e-06
5.091e-06
-4.86471e-06
4.97201e-06
-5.72565e-06
4.8121e-06
-6.65339e-06
4.31379e-06
-7.6652e-06
6.66639e-07
-1.81826e-06
1.94909e-06
-5.38458e-07
1.19295e-06
6.16722e-07
1.63157e-07
4.39769e-07
-3.78911e-07
4.9436e-07
-9.0876e-07
7.29914e-07
-1.17057e-06
8.88786e-07
-1.71832e-06
1.36e-06
-2.3533e-06
1.67292e-06
-2.3141e-06
1.77261e-06
-3.52832e-06
1.78753e-06
-5.19985e-06
1.74375e-06
-5.55082e-06
2.06772e-06
-6.97835e-06
2.3654e-06
-7.38037e-06
3.04109e-06
-7.35929e-06
3.46968e-06
-7.50546e-06
3.77297e-06
-7.81364e-06
3.81026e-06
-8.21586e-06
3.83299e-06
-8.67699e-06
2.88831e-06
-8.90931e-06
-9.7756e-07
1.3531e-06
-1.42345e-06
1.53904e-06
1.15273e-07
4.08719e-07
1.62621e-07
-1.71461e-09
2.04764e-08
-2.54734e-07
-2.51073e-08
-4.55179e-07
-7.96194e-08
-8.50647e-07
1.62841e-07
-1.24265e-06
1.00943e-07
-1.39733e-06
-1.30283e-07
-2.79712e-06
-5.46539e-08
-3.57139e-06
-1.61918e-07
-4.07728e-06
2.75628e-07
-5.35479e-06
9.06129e-07
-4.9609e-06
2.05936e-06
-4.70772e-06
2.71808e-06
-4.7924e-06
3.08096e-06
-5.0375e-06
3.12855e-06
-5.45239e-06
3.02787e-06
-6.00128e-06
2.36698e-06
-6.3778e-06
2.43596e-06
2.64317e-07
-1.41422e-06
1.22273e-06
-8.23213e-07
5.5274e-07
1.29492e-07
1.58135e-07
-1.86261e-07
-3.56351e-08
-3.67691e-07
-9.61106e-08
-6.53915e-07
-1.01276e-08
-9.06547e-07
-2.2127e-07
-1.38968e-06
-1.64413e-07
-2.2461e-06
-2.17979e-07
-2.58072e-06
-6.54622e-07
-3.9693e-06
-5.31031e-07
-4.84428e-06
-4.30789e-07
-5.3288e-06
6.64995e-08
-5.77201e-06
5.75459e-07
-5.87346e-06
1.0389e-06
-6.17839e-06
1.29597e-06
-6.25771e-06
1.43367e-06
-6.60762e-06
1.37537e-06
-6.83221e-06
8.55588e-07
-7.14585e-06
9.73724e-07
-7.84041e-07
7.37169e-07
-1.24271e-06
7.43701e-07
-4.00726e-08
3.71194e-07
-2.07611e-07
2.34031e-07
-4.75951e-07
-2.024e-09
-4.91799e-07
-2.7863e-07
-5.02127e-07
-7.64078e-07
-2.91269e-07
-1.25329e-06
-3.3398e-07
-1.65539e-06
-4.92957e-07
-2.74643e-06
-3.7548e-07
-3.25538e-06
-4.33732e-07
-4.05881e-06
-1.20075e-07
-4.80751e-06
6.11354e-08
-5.22962e-06
5.02555e-07
-5.67309e-06
6.4909e-07
-5.90084e-06
8.58038e-07
-6.30229e-06
8.49598e-07
-6.36457e-06
8.71918e-07
-6.68779e-06
4.76105e-07
-6.60285e-06
6.42742e-07
6.16486e-08
-1.05524e-06
6.39526e-07
-5.61779e-07
3.19003e-07
1.26934e-07
5.55641e-07
-6.25889e-07
5.47131e-07
-1.1355e-06
6.91932e-07
-1.64991e-06
8.74184e-07
-2.11092e-06
9.19688e-07
-2.66712e-06
9.19155e-07
-3.38532e-06
8.6987e-07
-3.764e-06
8.86537e-07
-4.51859e-06
1.10246e-06
-4.84251e-06
1.39027e-06
-5.03139e-06
1.76574e-06
-5.20233e-06
1.96345e-06
-5.36946e-06
2.12588e-06
-5.53507e-06
2.1006e-06
-5.60203e-06
2.01415e-06
-5.75377e-06
1.7512e-06
-5.94909e-06
1.26097e-06
-5.95068e-06
1.19188e-06
-6.01976e-07
3.66471e-07
-8.29487e-07
2.77009e-07
2.44361e-07
1.59329e-07
8.88162e-08
4.15113e-08
-2.89699e-07
-6.62553e-08
-5.62985e-07
-8.75292e-08
-8.86624e-07
-1.15245e-07
-1.35545e-06
-1.47694e-07
-1.8943e-06
-2.49883e-07
-2.30455e-06
-6.70234e-08
-2.79937e-06
2.0141e-07
-2.94245e-06
8.01903e-07
-3.02381e-06
1.1872e-06
-3.28827e-06
1.47372e-06
-3.61083e-06
1.54897e-06
-4.03702e-06
1.5767e-06
-4.35012e-06
1.487e-06
-4.72373e-06
1.39603e-06
-4.94133e-06
1.47434e-06
-5.16908e-06
9.03304e-07
-5.23849e-06
-3.31853e-08
-7.6318e-07
3.13755e-07
-3.26287e-07
1.51299e-08
3.45116e-07
5.49035e-08
8.50494e-08
-2.68587e-07
-8.01895e-08
-5.10863e-07
-1.34828e-07
-8.3293e-07
-1.78413e-07
-1.23495e-06
-2.539e-07
-1.77859e-06
-1.85958e-07
-2.03926e-06
3.84566e-09
-2.35309e-06
4.17389e-07
-2.44733e-06
8.85591e-07
-2.59008e-06
1.21332e-06
-2.93322e-06
1.37311e-06
-3.29755e-06
1.42424e-06
-3.7709e-06
1.38379e-06
-4.11046e-06
1.29245e-06
-4.53773e-06
1.16652e-06
-4.76836e-06
1.29799e-06
-5.05219e-06
8.49472e-07
-5.07992e-06
-4.67618e-07
1.76941e-07
-5.98359e-07
1.38e-07
1.3787e-07
8.20521e-08
3.08035e-07
-1.46467e-07
6.65303e-08
-3.3223e-07
-2.24218e-07
-3.45949e-07
-5.80227e-07
-3.18542e-07
-1.01843e-06
-2.99742e-07
-1.39877e-06
-1.44227e-07
-1.74821e-06
8.64323e-08
-1.90532e-06
4.69317e-07
-2.14163e-06
8.18237e-07
-2.39923e-06
1.05677e-06
-2.7862e-06
1.19835e-06
-3.18586e-06
1.26658e-06
-3.60248e-06
1.29734e-06
-4.00244e-06
1.27245e-06
-4.34265e-06
1.22969e-06
-4.75577e-06
1.3844e-06
-4.91625e-06
1.02373e-06
-5.24582e-06
-6.08948e-08
-6.02509e-07
1.70204e-07
-2.80733e-07
6.66505e-09
3.06804e-07
1.23198e-08
4.29568e-07
-4.99617e-07
3.71173e-07
-8.74846e-07
4.00739e-07
-1.20153e-06
4.30404e-07
-1.61459e-06
4.69437e-07
-1.82881e-06
5.48656e-07
-2.1913e-06
6.92032e-07
-2.29779e-06
9.44973e-07
-2.50609e-06
1.14252e-06
-2.69474e-06
1.34198e-06
-2.91729e-06
1.45646e-06
-3.14785e-06
1.58958e-06
-3.35472e-06
1.68506e-06
-3.57662e-06
1.7722e-06
-3.74973e-06
1.81504e-06
-4.0547e-06
2.09256e-06
-4.10046e-06
1.78406e-06
-4.3471e-06
-3.89416e-07
9.77261e-08
-5.21215e-07
9.6355e-08
-3.76309e-08
1.80628e-07
1.74942e-07
5.62966e-08
3.39849e-08
-2.35464e-07
-5.7332e-08
-4.4476e-07
-7.6146e-08
-7.00565e-07
-5.29105e-08
-9.47826e-07
-8.00071e-08
-1.25367e-06
-3.18881e-08
-1.49528e-06
1.42508e-07
-1.64365e-06
3.21489e-07
-1.85687e-06
5.7578e-07
-2.00607e-06
7.32027e-07
-2.27416e-06
8.47769e-07
-2.55277e-06
9.12592e-07
-2.87639e-06
9.72901e-07
-3.13415e-06
9.13998e-07
-3.45673e-06
7.37155e-07
-3.89521e-06
4.01444e-07
-4.26711e-06
8.34214e-07
-6.96569e-08
-5.51955e-07
1.52146e-07
-3.11455e-07
5.21181e-08
2.18e-08
2.30781e-07
3.64116e-08
1.69114e-08
-1.82335e-07
-5.96145e-08
-3.51146e-07
-5.59062e-08
-5.06095e-07
-7.7731e-08
-7.23628e-07
-1.11472e-08
-8.7592e-07
1.30232e-07
-8.26069e-07
4.09577e-07
-9.13496e-07
8.04929e-07
-6.96973e-07
1.2291e-06
-6.57619e-07
1.51096e-06
-7.73357e-07
1.70301e-06
-9.95921e-07
1.86277e-06
-1.25565e-06
2.01203e-06
-1.47833e-06
2.07286e-06
-1.74648e-06
2.01981e-06
-2.14064e-06
1.86723e-06
-2.47934e-06
2.15627e-06
-3.22437e-07
1.20849e-07
-3.27451e-07
1.40885e-07
-1.0476e-07
1.09639e-07
9.24909e-08
7.20682e-08
8.6717e-09
-1.28465e-07
-5.76872e-08
-2.59487e-07
-8.69304e-08
-4.03926e-07
-8.10032e-08
-4.98987e-07
-6.38019e-09
-4.88433e-07
1.91745e-07
-4.4941e-07
5.18156e-07
-2.12462e-07
8.46408e-07
-1.4166e-07
1.09659e-06
-2.09687e-07
1.19469e-06
-4.58866e-07
1.25326e-06
-7.53708e-07
1.26205e-06
-1.11696e-06
1.30172e-06
-1.47499e-06
1.28994e-06
-1.75768e-06
1.34165e-06
-2.10003e-06
1.46669e-06
-2.16149e-06
1.86608e-06
-3.10322e-07
-4.1386e-07
-2.87617e-08
-2.81485e-07
7.55195e-08
-6.46728e-08
1.97969e-07
2.70944e-08
8.27014e-08
-7.32189e-08
1.13421e-08
-1.46203e-07
-2.10522e-08
-2.07479e-07
-7.72856e-09
-2.17836e-07
7.42586e-08
-1.76764e-07
2.3957e-07
-5.9879e-08
4.32484e-07
-1.77594e-08
6.13952e-07
-3.98519e-08
7.191e-07
-1.76805e-07
7.97181e-07
-3.35236e-07
8.47671e-07
-5.51516e-07
9.3352e-07
-7.58608e-07
1.01434e-06
-9.8171e-07
1.05413e-06
-1.19832e-06
1.00708e-06
-1.538e-06
9.6437e-07
-1.83615e-06
1.27986e-06
-4.33226e-07
-4.09906e-07
-4.68569e-07
-5.74383e-08
-2.5803e-07
1.14767e-07
-5.43821e-08
1.94589e-07
-2.09177e-08
1.06536e-07
-6.94879e-09
4.11513e-08
2.30686e-09
-8.44399e-09
-2.11966e-08
-5.58603e-08
-2.68315e-08
-8.75608e-08
-1.72437e-08
-1.02864e-07
1.81591e-08
-1.20634e-07
4.42169e-08
-1.55894e-07
7.25375e-08
-1.92777e-07
9.16865e-08
-2.72732e-07
1.17918e-07
-3.60374e-07
1.52295e-07
-4.92517e-07
1.94164e-07
-6.36618e-07
1.94216e-07
-7.92535e-07
1.90153e-07
-9.8593e-07
2.52058e-07
-1.15126e-06
4.31713e-07
-5.32068e-07
-4.77525e-07
-2.81936e-07
-2.7737e-07
-6.4155e-08
-1.47492e-07
1.5299e-07
-6.00837e-08
1.8145e-07
-3.50881e-08
1.9364e-07
2.99318e-08
1.72503e-07
1.01617e-07
1.09448e-07
1.726e-07
-6.33278e-09
2.1381e-07
-1.51917e-07
2.20636e-07
-3.11786e-07
2.41571e-07
-4.4625e-07
2.44639e-07
-5.2992e-07
3.04609e-07
-5.20602e-07
3.51919e-07
-4.27729e-07
4.57471e-07
-2.38797e-07
5.13636e-07
2.8989e-09
6.15504e-07
2.6298e-07
7.00918e-07
5.28142e-07
8.23711e-07
9.33443e-07
9.86042e-07
1.27839e-06
-5.71216e-08
-7.37996e-08
-6.35337e-08
-3.64922e-08
-4.60953e-08
2.30471e-08
-1.30987e-08
5.57109e-08
-4.25473e-09
9.77574e-08
2.09309e-08
1.67127e-07
7.22034e-08
2.60152e-07
1.42379e-07
3.60553e-07
2.4809e-07
4.34335e-07
3.49769e-07
4.69892e-07
5.06209e-07
4.53717e-07
6.50435e-07
3.67761e-07
8.42467e-07
2.25709e-07
1.02902e-06
3.3587e-08
1.24193e-06
-1.72847e-07
1.48075e-06
-3.72037e-07
1.71275e-06
-5.46282e-07
2.00366e-06
-6.53418e-07
2.2406e-06
-7.34513e-07
2.50394e-06
-5.68555e-07
2.73041e-06
0.0149273
0.0121976
-0.0112355
0.00634268
-0.00727442
-0.000320838
0.000599725
0.000416398
-0.00898064
0.00493496
-0.0105186
0.00896026
0.00256842
-0.00233548
0.00234497
-0.000768624
0.00135681
0.000728
0.000366426
0.00162591
-0.000828731
0.000156177
1.85149e-05
0.00017629
2.3414e-05
0.000831904
-0.000757094
9.54605e-05
1.53235e-05
2.17564e-05
-0.000200185
-0.000276764
-0.000108213
9.52119e-06
-0.000153317
-6.6423e-06
-7.55428e-05
-2.37115e-05
-0.000218362
0.000248194
-4.4163e-05
-0.000171365
0.000185612
-0.000146885
0.000153543
-3.69909e-05
-4.05091e-05
9.13687e-05
5.38296e-05
6.66735e-06
3.86856e-05
2.20388e-05
2.3702e-05
2.17751e-05
4.11525e-05
5.21293e-06
3.15984e-05
3.78663e-06
3.5408e-05
1.49697e-06
5.31794e-05
-2.68041e-05
1.06783e-05
2.76208e-05
-1.01661e-05
4.33045e-05
-3.43724e-05
5.46928e-06
-8.58186e-08
1.02342e-05
-1.7001e-05
7.84246e-06
-1.68294e-06
2.53479e-06
0.00366313
0.00196529
-0.00302784
-4.31087e-05
-0.00314995
-0.00180116
-0.00132743
-0.00114962
-0.00311521
-0.000621266
-0.00275288
0.00084963
0.000739091
-0.00122461
0.000730317
-0.000367506
0.000452106
0.000193748
7.10021e-05
0.000514595
-0.000167525
0.000252887
2.71378e-05
0.000230186
1.45098e-05
0.000322965
-0.000124292
0.000124947
0.000132002
0.000120995
8.64451e-05
4.03821e-05
5.2554e-05
5.0308e-05
2.56708e-06
6.7871e-05
2.10079e-05
3.71681e-05
1.34049e-05
0.000105601
1.26919e-05
-9.86756e-07
7.27321e-05
-9.2694e-06
6.42143e-05
1.75862e-06
1.59647e-05
2.50291e-05
2.78738e-05
7.84175e-06
1.84926e-05
1.26677e-05
1.19378e-05
9.72658e-06
1.14454e-05
2.34363e-06
1.0093e-05
-1.0195e-06
1.07995e-05
-2.50821e-06
1.01309e-05
-9.80238e-06
4.33127e-07
7.2454e-06
-7.5412e-06
6.61311e-06
-1.22697e-05
-2.38834e-06
-2.61432e-06
-7.85188e-08
-9.44173e-06
2.21876e-07
-2.42601e-06
4.17003e-07
0.00256254
0.00108058
0.000145812
0.00106714
0.000612677
0.000981373
0.00104936
0.000949363
0.000686496
0.00109357
0.000123972
0.000958776
0.000639117
-6.76425e-05
0.000841207
1.69174e-05
0.000480248
0.000109877
0.000106337
0.000182772
-0.000115512
3.38686e-05
-0.000117553
1.04956e-05
-0.000112379
8.79732e-05
-0.000176766
-0.000138893
-0.000121259
-0.000109194
-0.000113845
-0.000118999
-8.4906e-05
-7.32295e-05
-0.000107955
-5.73185e-05
-7.95914e-05
-5.71301e-05
-6.19037e-05
-7.72925e-06
-4.43873e-05
-4.43561e-05
7.6191e-06
-5.2209e-05
2.34479e-05
-2.19189e-05
8.49998e-07
5.50591e-06
1.44702e-05
9.75892e-07
1.3364e-05
7.91245e-06
1.059e-05
1.08961e-05
1.19965e-05
6.52876e-06
1.46588e-05
6.31252e-06
1.63975e-05
6.16905e-06
1.46429e-05
6.55304e-07
9.87788e-06
1.41055e-05
5.4593e-07
1.20795e-05
-2.59385e-06
7.39303e-06
7.12859e-06
6.26598e-06
-3.63248e-06
7.47016e-06
8.26722e-07
2.03923e-06
0.00172749
0.00077036
-0.000522565
-0.000425704
-0.00127949
-0.00123886
-0.00112744
-0.000980111
-0.00128751
-0.000785298
-0.000965361
-0.000301651
-2.65457e-05
-0.000569327
0.000253868
-0.000163588
0.000230257
0.000118366
8.02391e-05
0.000240136
-2.81809e-05
0.000167576
-9.6831e-06
0.000121144
-4.86199e-05
0.000120245
-7.06624e-05
4.07271e-05
6.00914e-05
2.37213e-05
2.57182e-05
-6.05929e-07
4.52913e-06
4.47377e-06
2.78275e-06
3.95929e-05
8.67966e-07
2.65865e-05
2.83593e-05
4.66459e-05
3.36909e-06
1.93546e-05
3.49411e-05
1.626e-06
3.88338e-05
5.4208e-06
2.20831e-05
1.09717e-05
2.16123e-05
8.16007e-06
1.52242e-05
1.21708e-05
1.15061e-05
9.98413e-06
9.01703e-06
5.17388e-06
8.16303e-06
1.41309e-06
8.29214e-06
3.18707e-07
6.1013e-06
-2.37482e-06
1.97126e-06
5.20456e-06
-4.32535e-06
2.91238e-06
-5.36855e-06
-1.14232e-06
-8.07721e-08
-8.72784e-07
-6.4807e-06
6.21526e-07
-1.82887e-06
5.93406e-07
0.000610157
0.000313979
0.000249069
0.000298087
0.000367407
0.000475501
0.000492408
0.000560964
0.000671905
0.000557255
0.000396119
0.000250893
0.000217532
0.000132723
0.000361641
6.48246e-05
0.000217287
3.48549e-05
7.20363e-05
-4.66135e-07
-7.46902e-06
-1.2312e-05
-5.88818e-05
-6.40054e-06
-4.31078e-05
2.50855e-06
-8.40887e-05
-0.000100268
-7.50841e-05
-6.59684e-05
-6.15303e-05
-5.9586e-05
-4.95888e-05
-4.74968e-05
-5.85661e-05
-3.64108e-05
-6.55015e-05
-4.20102e-05
-3.98547e-05
-2.56129e-05
-4.39317e-05
-2.31435e-05
-1.21721e-05
-2.96651e-05
4.35036e-06
-1.29505e-05
2.92195e-06
-2.95363e-06
6.16044e-06
3.57963e-07
6.63592e-06
5.46236e-06
7.45331e-06
7.89271e-06
7.67394e-06
6.29085e-06
8.75024e-06
4.38594e-06
9.77231e-06
4.62873e-06
8.73034e-06
3.81496e-06
7.76252e-06
8.6606e-06
6.27422e-07
7.37834e-06
1.25316e-06
6.01172e-06
5.83554e-06
3.2568e-06
-2.94006e-06
7.1294e-06
3.15968e-07
2.01085e-06
0.00047459
0.000309523
-4.82719e-05
-0.000212004
-0.000510455
-0.000656625
-0.000698354
-0.000672744
-0.000637314
-0.000579102
-0.000527042
-0.000412919
-0.000261754
-0.000272423
-2.76641e-05
-8.60349e-05
7.3582e-05
5.69617e-05
4.56534e-05
9.20047e-05
5.30001e-06
7.76794e-05
-2.21849e-05
4.14532e-05
-5.04427e-05
3.28591e-05
-5.17588e-05
2.9281e-07
1.0403e-05
-2.20471e-05
-2.03563e-05
-3.40186e-05
-2.24801e-05
-1.40596e-05
4.27605e-08
1.22094e-05
-9.02583e-06
2.261e-05
2.30047e-05
1.61424e-05
-1.33165e-06
2.56758e-05
1.7936e-05
2.90017e-06
2.727e-05
5.95568e-06
2.16663e-05
6.3573e-06
1.77748e-05
7.5103e-06
1.32445e-05
1.1554e-05