/*--------------------------------*- C++ -*----------------------------------*\
| =========                 |                                                 |
| \\      /  F ield         | OpenFOAM: The Open Source CFD Toolbox           |
|  \\    /   O peration     | Version:  2312                                  |
|   \\  /    A nd           | Website:  www.openfoam.com                      |
|    \\/     M anipulation  |                                                 |
\*---------------------------------------------------------------------------*/
FoamFile
{
    version     2.0;
    format      ascii;
    arch        "LSB;label=32;scalar=64";
    class       volScalarField;
    location    "850";
    object      magR;
}
// * * * * * * * * * * * * * * * * * * * * * * * * * * * * * * * * * * * * * //

dimensions      [0 2 -2 0 0 0 0];

internalField   nonuniform List<scalar> 
11040
(
0.477969
0.528636
0.0830071
0.0552371
0.337218
0.348033
0.330002
0.301262
0.271242
0.252381
0.234622
0.2192
0.206504
0.196681
0.188754
0.184629
0.184144
0.187575
0.194351
0.204341
0.217907
0.234654
0.254598
0.278047
0.305096
0.336911
0.372449
0.406734
0.436709
0.458807
0.469271
0.464891
0.446637
0.420927
0.398919
0.316185
0.166352
0.102769
0.0437331
0.132546
0.265884
0.039021
0.0820324
0.281931
0.516416
1.00343
0.337075
0.104775
0.0361631
0.00955453
0.00682588
0.0167151
0.0223249
0.0260303
0.0286529
0.030361
0.031982
0.033984
0.0364151
0.0389259
0.0415004
0.0442092
0.0471723
0.0495935
0.0506054
0.0499618
0.0486273
0.0470109
0.0439312
0.0394303
0.0342027
0.0298444
0.0285164
0.0287019
0.0321785
0.0398041
0.0516624
0.0684014
0.0903638
0.145061
0.165385
0.673489
0.0240885
0.0216158
0.048443
0.212479
1.15979
1.56443
0.814904
0.308884
0.145667
0.0872161
0.0492936
0.0282938
0.0138391
0.00420085
0.0037459
0.00823017
0.0115072
0.0139368
0.0157166
0.0169435
0.0177524
0.0181537
0.0176946
0.0162048
0.0140156
0.0115903
0.009113
0.00635149
0.00304163
0.0044608
0.0129474
0.0258164
0.043242
0.0656576
0.093883
0.129571
0.174436
0.225748
0.337307
0.440938
0.645618
0.0173265
0.0148046
0.0123442
0.0190711
0.274277
1.34302
2.01625
1.36102
0.569829
0.306726
0.182004
0.122535
0.0861767
0.0613648
0.0457215
0.0346915
0.0279083
0.0235109
0.0210838
0.0202239
0.02042
0.0216283
0.0240197
0.0273912
0.0309646
0.0340812
0.0362108
0.0369458
0.0363154
0.035806
0.0395429
0.0525947
0.0768503
0.112869
0.161254
0.22445
0.305123
0.397748
0.565576
0.778426
0.698089
0.0128988
0.0116271
0.0123875
0.00622078
0.00818547
0.244655
1.27566
2.27558
1.96563
0.990915
0.523474
0.317035
0.219316
0.158427
0.123019
0.0980272
0.0827896
0.0726556
0.0666559
0.0637249
0.0626939
0.0631233
0.0651115
0.068552
0.0724538
0.0759685
0.078335
0.0788562
0.077295
0.074764
0.0753716
0.0871787
0.1177
0.169238
0.24175
0.337572
0.46014
0.603391
0.815435
1.14371
0.924269
0.00930683
0.00854704
0.00831048
0.00920687
0.00283847
0.0019856
0.164936
1.02001
2.30718
2.50262
1.63051
0.834117
0.517346
0.347964
0.257924
0.199743
0.165437
0.143164
0.129424
0.12205
0.118382
0.117308
0.118573
0.122066
0.12652
0.13081
0.13374
0.134022
0.130748
0.124419
0.119128
0.126023
0.160096
0.227802
0.327984
0.461444
0.631382
0.831744
1.08147
1.50198
1.27098
0.00672186
0.00642458
0.00603165
0.00642101
0.00664301
0.0012806
5.44528e-05
0.0765943
0.682965
2.00696
2.81253
2.36975
1.38661
0.789349
0.530656
0.389515
0.305078
0.252012
0.219466
0.201591
0.191987
0.188038
0.188314
0.192268
0.197989
0.20382
0.207932
0.20818
0.202593
0.190611
0.175411
0.169854
0.198804
0.278852
0.407624
0.581485
0.801141
1.0593
1.34615
1.81997
1.66207
0.00490585
0.00479684
0.00472472
0.00453843
0.00491013
0.00515188
0.000246645
2.7012e-06
0.0231305
0.366736
1.44471
2.73523
2.96637
2.17339
1.26168
0.790947
0.565875
0.441905
0.365064
0.31958
0.294034
0.282931
0.280366
0.28453
0.292146
0.300594
0.307066
0.308196
0.300321
0.281283
0.251935
0.22322
0.228474
0.30722
0.460324
0.673742
0.941273
1.25144
1.57551
2.05252
2.01287
0.00362363
0.00357254
0.0035793
0.00354996
0.00341044
0.00385419
0.00368914
0.000510356
0.000444465
0.000864766
0.140132
0.828407
2.16673
3.15815
2.96182
2.03966
1.22814
0.82468
0.623522
0.512318
0.448013
0.417269
0.405821
0.407721
0.416866
0.428304
0.437864
0.44093
0.432091
0.406342
0.36077
0.29965
0.252293
0.293364
0.455754
0.703127
1.0121
1.36311
1.71733
2.15923
2.23254
0.00269134
0.00266749
0.00268692
0.00271605
0.00269358
0.00261089
0.00293682
0.00263537
0.000857911
0.000113688
0.00208364
0.0309112
0.358283
1.34759
2.72206
3.38722
2.94169
2.00436
1.26521
0.893588
0.71313
0.625616
0.586125
0.575794
0.582369
0.597217
0.612604
0.620161
0.611942
0.580955
0.520872
0.427312
0.308454
0.232265
0.354178
0.62547
0.967079
1.34505
1.715
2.10231
2.25121
0.00200754
0.0019964
0.00201645
0.00204814
0.00207706
0.0020581
0.00203022
0.0021706
0.0021542
0.00113629
7.79113e-05
0.000380128
0.000286681
0.0961635
0.613867
1.78591
3.08412
3.52894
2.98437
2.07566
1.37544
1.03088
0.88685
0.828458
0.81198
0.819439
0.837192
0.852176
0.852493
0.826227
0.761585
0.648386
0.481215
0.2629
0.113496
0.396683
0.766525
1.1585
1.52589
1.85037
2.02707
0.00150051
0.00149597
0.0015104
0.00153916
0.00156944
0.00159354
0.00158853
0.00157259
0.00162579
0.00169239
0.00125663
4.07233e-05
2.21274e-05
0.00158754
0.0119513
0.183112
0.837879
2.07945
3.29833
3.66092
3.12809
2.30668
1.67752
1.33514
1.18949
1.1474
1.14808
1.15963
1.16488
1.14858
1.09615
0.994232
0.83395
0.614401
0.355664
0.234417
0.502409
0.863248
1.19524
1.44581
1.59137
0.00112217
0.00112116
0.00113083
0.00115283
0.00118033
0.00120647
0.00122724
0.00123248
0.00122366
0.00123894
0.00131153
0.00113348
0.000274115
2.76047e-05
0.000163361
0.00338162
0.025192
0.249578
0.961812
2.20358
3.40069
3.82874
3.50499
2.89699
2.32561
1.92537
1.70548
1.61698
1.59771
1.59236
1.56478
1.49573
1.37845
1.21902
1.04133
0.896944
0.863169
0.967912
1.13325
1.248
1.26167
0.000838533
0.000839431
0.000845659
0.000861544
0.000883794
0.000907503
0.000929621
0.000948316
0.000958568
0.000956693
0.000957956
0.00100901
0.000975111
0.000561594
9.1657e-06
4.13188e-06
0.00039852
0.00515671
0.0343751
0.26893
0.961644
2.10708
3.25125
3.93294
4.04077
3.77918
3.37972
2.97932
2.6482
2.41165
2.26221
2.17131
2.10417
2.03705
1.9675
1.9084
1.87991
1.891
1.93395
1.96292
1.84118
0.000625208
0.000627078
0.000631056
0.000642324
0.000659353
0.000678896
0.000698826
0.000717713
0.000734422
0.0007467
0.000749753
0.000751231
0.000776367
0.000784743
0.000686853
0.000198329
2.28479e-05
4.08158e-07
0.000687001
0.00530434
0.0315481
0.218258
0.713452
1.56383
2.60575
3.55728
4.20603
4.50816
4.54382
4.40984
4.17377
3.88651
3.59719
3.35131
3.18201
3.10292
3.11093
3.17659
3.26457
3.35167
3.2628
0.000464602
0.000466758
0.000469303
0.000477211
0.000489902
0.000505133
0.000521476
0.000538146
0.000554268
0.000568941
0.000581123
0.000587777
0.000592261
0.000598528
0.000627242
0.000589584
0.00045715
3.53476e-05
8.02583e-06
9.61272e-08
0.000769176
0.00351953
0.0109446
0.0881935
0.320349
0.788881
1.50234
2.38416
3.30129
4.12886
4.78871
5.24949
5.51417
5.60827
5.57519
5.46454
5.32751
5.19892
5.11185
5.10995
5.02186
0.00034471
0.000346723
0.000348413
0.000353998
0.000363337
0.000374825
0.00038756
0.00040104
0.000414778
0.000428157
0.000440626
0.000451583
0.000460187
0.000465222
0.000471927
0.000483219
0.000500033
0.000441898
0.00027116
8.8811e-06
4.27297e-06
6.43534e-08
0.000224575
0.00202673
0.00118944
0.0125736
0.062775
0.205662
0.488699
0.944484
1.5742
2.3454
3.20175
4.0798
4.9184
5.66138
6.27523
6.7446
7.08289
7.3539
7.43132
0.000258228
0.00026001
0.000261285
0.000265449
0.000272486
0.000281247
0.000291115
0.000301791
0.00031293
0.000324166
0.000335112
0.000345455
0.00035493
0.000363141
0.000369211
0.00037455
0.000381251
0.000396341
0.000399185
0.000344199
0.000188592
6.08107e-06
3.54999e-06
2.27391e-07
2.1917e-05
0.000302739
0.00134899
0.00232587
0.000769455
0.0108204
0.050993
0.14881
0.334239
0.63653
1.0733
1.64645
2.34177
3.13739
3.99291
4.88905
5.692
0.000197067
0.000198637
0.000199678
0.000202906
0.000208343
0.00021515
0.000222909
0.000231445
0.000240528
0.000249876
0.000259222
0.000268324
0.000276974
0.000285046
0.000292272
0.000298523
0.000303173
0.000308761
0.00031651
0.000327167
0.000324166
0.000272372
0.000182946
2.181e-05
4.88856e-06
1.14669e-06
1.03692e-07
0
9.17187e-06
0.00021379
0.00111179
0.00171561
5.10415e-06
0.00136059
0.00968697
0.0402272
0.107776
0.231549
0.42869
0.716265
1.09727
0.000153157
0.000154487
0.000155349
0.000157898
0.000162155
0.000167498
0.000173632
0.000180441
0.000187779
0.000195445
0.000203258
0.000211061
0.000218689
0.000225991
0.000232847
0.00023918
0.000244816
0.000249642
0.000253827
0.000259177
0.00026664
0.000273142
0.000272119
0.000241085
0.000181222
0.000113815
1.12175e-05
3.22628e-06
9.40869e-07
5.03391e-07
2.61559e-08
0
1.05394e-07
1.8485e-05
0.000183976
0.00088419
0.0014636
0.0011356
0.000926024
0.000359692
0.00708683
0.000120648
0.000121749
0.000122472
0.000124513
0.000127884
0.00013212
0.00013701
0.000142467
0.000148385
0.000154624
0.000161052
0.000167566
0.000174055
0.000180407
0.000186518
0.000192304
0.000197708
0.000202662
0.000207063
0.000210944
0.000214604
0.00021941
0.000224829
0.000231865
0.000231901
0.000225204
0.000199728
0.000157776
0.000108909
6.12227e-05
3.44716e-06
1.78556e-06
7.21326e-07
4.80396e-07
2.58811e-07
3.29509e-08
0
0
0
2.56444e-06
0.000110577
9.60684e-05
9.69722e-05
9.75906e-05
9.92446e-05
0.000101941
0.00010533
0.000109254
0.00011365
0.000118435
0.000123507
0.000128766
0.000134138
0.000139547
0.000144908
0.000150148
0.000155198
0.000160002
0.000164515
0.000168703
0.000172554
0.0001759
0.000178909
0.000181773
0.000185338
0.00018963
0.000193852
0.000198662
0.000199302
0.00019401
0.000184628
0.000164521
0.000135788
0.000103372
7.1169e-05
4.04343e-05
5.53304e-06
1.62083e-06
5.4775e-07
4.19884e-07
3.0099e-07
1.89489e-07
7.71543e-05
7.78924e-05
7.84268e-05
7.97795e-05
8.1952e-05
8.46806e-05
8.78483e-05
9.1403e-05
9.52803e-05
9.94017e-05
0.000103693
0.000108097
0.00011256
0.000117016
0.000121408
0.000125686
0.000129803
0.000133719
0.000137399
0.000140843
0.00014395
0.000146692
0.000149131
0.000151238
0.000153284
0.000155373
0.000157938
0.000160963
0.000164032
0.000166522
0.000169188
0.000169356
0.000166632
0.000160902
0.000152954
0.000140094
0.000123058
0.000102966
8.19966e-05
6.1151e-05
4.06812e-05
6.23974e-05
6.29993e-05
6.34656e-05
6.45803e-05
6.63419e-05
6.85519e-05
7.11213e-05
7.40068e-05
7.71562e-05
8.05085e-05
8.40062e-05
8.76047e-05
9.12617e-05
9.49282e-05
9.85586e-05
0.000102113
0.000105555
0.000108851
0.00011197
0.000114905
0.000117573
0.000119955
0.000122106
0.000123957
0.000125532
0.000126885
0.000128063
0.00012917
0.000130331
0.000131529
0.000132927
0.000134478
0.000135995
0.000137327
0.000138265
0.000139185
0.000139229
0.000138026
0.000135525
0.000131546
0.000127083
5.07512e-05
5.1242e-05
5.16516e-05
5.25758e-05
5.40117e-05
5.58104e-05
5.79028e-05
6.02523e-05
6.28156e-05
6.55446e-05
6.83938e-05
7.13273e-05
7.43119e-05
7.73093e-05
8.02831e-05
8.32009e-05
8.6033e-05
8.87514e-05
9.13293e-05
9.37599e-05
9.5968e-05
9.79387e-05
9.97159e-05
0.00010125
0.000102552
0.000103647
0.000104544
0.000105251
0.000105789
0.000106186
0.000106461
0.000106659
0.000106814
0.000106963
0.000107097
0.00010725
0.000107413
0.000107573
0.000107713
0.000107675
0.000107696
4.14726e-05
4.18739e-05
4.22355e-05
4.30061e-05
4.41824e-05
4.5653e-05
4.73633e-05
4.92817e-05
5.13723e-05
5.35962e-05
5.59171e-05
5.83057e-05
6.07347e-05
6.31737e-05
6.55933e-05
6.79672e-05
7.02712e-05
7.24816e-05
7.45757e-05
7.65466e-05
7.83297e-05
7.99141e-05
8.13375e-05
8.25552e-05
8.35748e-05
8.4417e-05
8.50937e-05
8.56112e-05
8.5976e-05
8.61975e-05
8.62824e-05
8.62397e-05
8.60772e-05
8.58112e-05
8.54582e-05
8.50227e-05
8.45153e-05
8.39587e-05
8.33869e-05
8.27674e-05
8.21712e-05
3.40217e-05
3.43508e-05
3.46718e-05
3.53179e-05
3.62862e-05
3.74937e-05
3.88965e-05
4.04671e-05
4.21753e-05
4.39896e-05
4.58803e-05
4.78235e-05
4.97966e-05
5.17745e-05
5.37338e-05
5.56529e-05
5.75116e-05
5.92904e-05
6.09701e-05
6.25444e-05
6.39588e-05
6.52064e-05
6.63216e-05
6.72649e-05
6.8041e-05
6.86663e-05
6.9151e-05
6.95017e-05
6.97259e-05
6.9832e-05
6.9828e-05
6.97222e-05
6.95194e-05
6.92295e-05
6.88618e-05
6.84191e-05
6.7905e-05
6.73289e-05
6.67155e-05
6.60312e-05
6.53761e-05
2.79983e-05
2.82698e-05
2.85562e-05
2.91012e-05
2.99026e-05
3.08983e-05
3.2053e-05
3.33423e-05
3.47408e-05
3.62226e-05
3.77635e-05
3.93436e-05
4.09441e-05
4.25442e-05
4.41248e-05
4.56684e-05
4.71584e-05
4.85784e-05
4.99126e-05
5.11555e-05
5.22615e-05
5.32279e-05
5.40857e-05
5.48017e-05
5.53785e-05
5.583e-05
5.61648e-05
5.63886e-05
5.65079e-05
5.65304e-05
5.64635e-05
5.63152e-05
5.60905e-05
5.57985e-05
5.54478e-05
5.50413e-05
5.45825e-05
5.40786e-05
5.35503e-05
5.2967e-05
5.24125e-05
2.31011e-05
2.33271e-05
2.35843e-05
2.40471e-05
2.47141e-05
2.55391e-05
2.64929e-05
2.75542e-05
2.87015e-05
2.99135e-05
3.117e-05
3.24546e-05
3.37516e-05
3.50438e-05
3.63153e-05
3.7552e-05
3.87404e-05
3.9867e-05
4.09186e-05
4.18907e-05
4.2746e-05
4.34842e-05
4.41342e-05
4.46678e-05
4.5087e-05
4.54034e-05
4.56247e-05
4.57559e-05
4.58025e-05
4.57712e-05
4.56684e-05
4.5501e-05
4.52736e-05
4.49936e-05
4.46684e-05
4.43008e-05
4.38937e-05
4.34529e-05
4.29957e-05
4.24991e-05
4.20184e-05
1.91004e-05
1.92906e-05
1.95232e-05
1.99193e-05
2.0478e-05
2.11649e-05
2.1956e-05
2.28323e-05
2.37756e-05
2.47684e-05
2.5794e-05
2.68385e-05
2.7889e-05
2.89313e-05
2.9952e-05
3.09399e-05
3.1884e-05
3.27733e-05
3.3597e-05
3.43516e-05
3.50067e-05
3.55642e-05
3.60502e-05
3.64415e-05
3.67395e-05
3.69541e-05
3.70922e-05
3.71579e-05
3.71562e-05
3.70926e-05
3.69728e-05
3.68025e-05
3.65855e-05
3.63282e-05
3.60365e-05
3.57128e-05
3.53597e-05
3.49814e-05
3.45924e-05
3.41755e-05
3.37647e-05
1.58184e-05
1.59812e-05
1.61932e-05
1.65351e-05
1.70062e-05
1.75814e-05
1.82402e-05
1.89662e-05
1.97439e-05
2.05588e-05
2.13969e-05
2.22466e-05
2.30974e-05
2.39375e-05
2.47557e-05
2.55428e-05
2.62904e-05
2.69895e-05
2.76314e-05
2.82135e-05
2.87111e-05
2.91275e-05
2.94864e-05
2.97685e-05
2.99751e-05
3.01146e-05
3.01931e-05
3.02141e-05
3.01818e-05
3.01011e-05
2.99765e-05
2.98129e-05
2.96136e-05
2.93836e-05
2.91278e-05
2.88483e-05
2.85472e-05
2.82274e-05
2.79012e-05
2.75551e-05
2.72094e-05
1.31167e-05
1.32588e-05
1.34536e-05
1.37513e-05
1.41516e-05
1.46361e-05
1.51874e-05
1.57912e-05
1.64344e-05
1.71048e-05
1.7791e-05
1.8483e-05
1.91723e-05
1.98493e-05
2.05045e-05
2.11307e-05
2.17213e-05
2.2269e-05
2.27672e-05
2.32138e-05
2.35892e-05
2.38972e-05
2.41593e-05
2.43594e-05
2.44987e-05
2.45845e-05
2.4622e-05
2.46143e-05
2.45649e-05
2.44778e-05
2.43569e-05
2.4206e-05
2.4028e-05
2.38269e-05
2.36065e-05
2.33686e-05
2.31149e-05
2.28474e-05
2.25765e-05
2.22915e-05
2.20024e-05
1.08862e-05
1.10129e-05
1.11932e-05
1.14549e-05
1.17978e-05
1.22086e-05
1.26725e-05
1.31769e-05
1.37109e-05
1.42641e-05
1.48272e-05
1.53918e-05
1.59508e-05
1.64965e-05
1.70212e-05
1.75188e-05
1.79845e-05
1.84126e-05
1.87978e-05
1.91387e-05
1.94198e-05
1.96453e-05
1.9834e-05
1.9973e-05
2.00631e-05
2.01109e-05
2.01206e-05
2.0095e-05
2.00371e-05
1.995e-05
1.98371e-05
1.97016e-05
1.95455e-05
1.93722e-05
1.91847e-05
1.89845e-05
1.87729e-05
1.85511e-05
1.83282e-05
1.80948e-05
1.78557e-05
9.04016e-06
9.15575e-06
9.32387e-06
9.55596e-06
9.85232e-06
1.02031e-05
1.05958e-05
1.10194e-05
1.14647e-05
1.1923e-05
1.23866e-05
1.28483e-05
1.33025e-05
1.37428e-05
1.41633e-05
1.45588e-05
1.49257e-05
1.52599e-05
1.55572e-05
1.58168e-05
1.60266e-05
1.61906e-05
1.63254e-05
1.64204e-05
1.64765e-05
1.6499e-05
1.64919e-05
1.64573e-05
1.63976e-05
1.63156e-05
1.62139e-05
1.6095e-05
1.59607e-05
1.58135e-05
1.5656e-05
1.54891e-05
1.53141e-05
1.51315e-05
1.49492e-05
1.47591e-05
1.45615e-05
7.50936e-06
7.61707e-06
7.77474e-06
7.98249e-06
8.24087e-06
8.54272e-06
8.87742e-06
9.23538e-06
9.60866e-06
9.99016e-06
1.03733e-05
1.07522e-05
1.11222e-05
1.14783e-05
1.18156e-05
1.21302e-05
1.24192e-05
1.26796e-05
1.29084e-05
1.3105e-05
1.32602e-05
1.33776e-05
1.34719e-05
1.35343e-05
1.35656e-05
1.35707e-05
1.35526e-05
1.35134e-05
1.34549e-05
1.33795e-05
1.32893e-05
1.31862e-05
1.30718e-05
1.29479e-05
1.28166e-05
1.26787e-05
1.25351e-05
1.23859e-05
1.22382e-05
1.20838e-05
1.19237e-05
6.238e-06
6.34024e-06
6.48876e-06
6.67635e-06
6.90371e-06
7.16566e-06
7.45307e-06
7.75761e-06
8.07251e-06
8.39182e-06
8.71004e-06
9.02242e-06
9.32492e-06
9.61386e-06
9.88541e-06
1.01363e-05
1.03646e-05
1.05683e-05
1.07451e-05
1.08948e-05
1.10105e-05
1.10953e-05
1.11619e-05
1.1203e-05
1.12196e-05
1.12154e-05
1.11933e-05
1.11547e-05
1.11014e-05
1.1035e-05
1.09574e-05
1.08701e-05
1.07743e-05
1.06714e-05
1.05632e-05
1.04502e-05
1.03331e-05
1.02117e-05
1.00924e-05
9.96775e-06
9.83573e-06
5.18095e-06
5.27942e-06
5.41983e-06
5.5906e-06
5.79253e-06
6.02182e-06
6.2706e-06
6.53162e-06
6.79909e-06
7.06804e-06
7.33387e-06
7.59268e-06
7.84116e-06
8.07642e-06
8.29551e-06
8.49585e-06
8.67603e-06
8.8347e-06
8.97035e-06
9.08291e-06
9.16717e-06
9.22601e-06
9.27047e-06
9.29462e-06
9.29925e-06
9.28778e-06
9.26252e-06
9.22479e-06
9.17593e-06
9.11738e-06
9.05054e-06
8.97669e-06
8.89675e-06
8.81182e-06
8.7232e-06
8.63128e-06
8.53675e-06
8.43897e-06
8.34404e-06
8.24303e-06
8.14047e-06
4.30162e-06
4.39742e-06
4.5305e-06
4.68719e-06
4.86818e-06
5.07058e-06
5.28762e-06
5.51298e-06
5.74177e-06
5.96979e-06
6.19328e-06
6.40903e-06
6.61446e-06
6.8074e-06
6.98574e-06
7.14749e-06
7.29175e-06
7.41776e-06
7.52459e-06
7.61233e-06
7.67716e-06
7.72119e-06
7.75397e-06
7.77048e-06
7.77141e-06
7.75958e-06
7.7369e-06
7.70445e-06
7.66328e-06
7.61456e-06
7.55941e-06
7.49888e-06
7.43369e-06
7.36469e-06
7.29299e-06
7.21887e-06
7.14288e-06
7.06428e-06
6.98841e-06
6.90813e-06
6.82118e-06
3.57012e-06
3.66381e-06
3.79015e-06
3.93496e-06
4.09862e-06
4.27873e-06
4.4694e-06
4.66525e-06
4.86219e-06
5.05674e-06
5.24578e-06
5.42668e-06
5.59726e-06
5.75577e-06
5.9006e-06
6.03024e-06
6.14402e-06
6.2416e-06
6.32252e-06
6.38698e-06
6.4324e-06
6.46085e-06
6.48049e-06
6.48729e-06
6.48195e-06
6.46692e-06
6.44384e-06
6.41359e-06
6.37705e-06
6.33514e-06
6.28875e-06
6.23866e-06
6.18544e-06
6.12971e-06
6.07227e-06
6.01324e-06
5.95326e-06
5.89116e-06
5.83263e-06
5.76668e-06
5.70712e-06
2.96168e-06
3.05356e-06
3.17356e-06
3.30813e-06
3.45712e-06
3.61843e-06
3.78697e-06
3.95813e-06
4.12855e-06
4.29548e-06
4.4565e-06
4.60953e-06
4.75299e-06
4.88577e-06
5.00695e-06
5.11547e-06
5.21089e-06
5.29303e-06
5.36159e-06
5.41679e-06
5.45667e-06
5.48229e-06
5.50073e-06
5.50851e-06
5.50622e-06
5.49588e-06
5.47885e-06
5.45584e-06
5.42757e-06
5.39483e-06
5.35836e-06
5.31885e-06
5.27677e-06
5.23262e-06
5.18714e-06
5.1405e-06
5.09308e-06
5.044e-06
4.99752e-06
4.94805e-06
4.88912e-06
2.45574e-06
2.54625e-06
2.66059e-06
2.78605e-06
2.92193e-06
3.06653e-06
3.21583e-06
3.36601e-06
3.51423e-06
3.65819e-06
3.79591e-06
3.92572e-06
4.04608e-06
4.15549e-06
4.25286e-06
4.33763e-06
4.40994e-06
4.47021e-06
4.51877e-06
4.55593e-06
4.58066e-06
4.59451e-06
4.60316e-06
4.60387e-06
4.59717e-06
4.5848e-06
4.56786e-06
4.54692e-06
4.52253e-06
4.49526e-06
4.46565e-06
4.43414e-06
4.40109e-06
4.3668e-06
4.33177e-06
4.29592e-06
4.25993e-06
4.2222e-06
4.18861e-06
4.14437e-06
4.12001e-06
2.03652e-06
2.12608e-06
2.23559e-06
2.35302e-06
2.47669e-06
2.60547e-06
2.73672e-06
2.86797e-06
2.99718e-06
3.12231e-06
3.24149e-06
3.35351e-06
3.45805e-06
3.55546e-06
3.64564e-06
3.72715e-06
3.79869e-06
3.85985e-06
3.9106e-06
3.95145e-06
3.98152e-06
4.00099e-06
4.01531e-06
4.02214e-06
4.02205e-06
4.01655e-06
4.00662e-06
3.9928e-06
3.97562e-06
3.95566e-06
3.93346e-06
3.90951e-06
3.88413e-06
3.85766e-06
3.83065e-06
3.80322e-06
3.77555e-06
3.7471e-06
3.72017e-06
3.69455e-06
3.64735e-06
1.69303e-06
1.78049e-06
1.8843e-06
1.99362e-06
2.10597e-06
2.2203e-06
2.33479e-06
2.44803e-06
2.55921e-06
2.66743e-06
2.77104e-06
2.86753e-06
2.95397e-06
3.02788e-06
3.08904e-06
3.14008e-06
3.18367e-06
3.22063e-06
3.251e-06
3.27443e-06
3.29049e-06
3.30039e-06
3.3074e-06
3.3096e-06
3.3073e-06
3.30165e-06
3.29335e-06
3.28274e-06
3.27012e-06
3.25583e-06
3.24019e-06
3.22341e-06
3.20572e-06
3.18723e-06
3.16822e-06
3.14848e-06
3.12883e-06
3.10718e-06
3.09041e-06
3.05664e-06
3.06696e-06
1.41339e-06
1.49653e-06
1.59128e-06
1.6891e-06
1.78847e-06
1.88941e-06
1.99049e-06
2.08973e-06
2.18561e-06
2.27757e-06
2.36634e-06
2.45377e-06
2.54169e-06
2.63087e-06
2.71876e-06
2.79834e-06
2.86493e-06
2.91947e-06
2.9637e-06
2.99935e-06
3.02629e-06
3.04416e-06
3.05757e-06
3.06516e-06
3.06762e-06
3.06613e-06
3.06146e-06
3.0541e-06
3.04452e-06
3.03322e-06
3.02064e-06
3.00722e-06
2.99321e-06
2.97891e-06
2.96474e-06
2.95096e-06
2.93735e-06
2.92442e-06
2.91069e-06
2.90863e-06
2.85432e-06
1.17992e-06
1.2607e-06
1.34643e-06
1.42994e-06
1.51172e-06
1.59473e-06
1.68033e-06
1.76822e-06
1.85642e-06
1.9411e-06
2.01712e-06
2.07958e-06
2.12578e-06
2.15623e-06
2.17675e-06
2.19922e-06
2.2288e-06
2.2606e-06
2.29104e-06
2.31789e-06
2.34073e-06
2.36038e-06
2.37771e-06
2.39148e-06
2.40179e-06
2.40934e-06
2.41458e-06
2.4177e-06
2.41889e-06
2.41836e-06
2.41629e-06
2.41279e-06
2.40801e-06
2.40199e-06
2.39485e-06
2.38631e-06
2.37743e-06
2.36528e-06
2.35932e-06
2.3244e-06
2.37553e-06
9.83257e-07
1.07086e-06
1.15785e-06
1.235e-06
1.30214e-06
1.36349e-06
1.42294e-06
1.48407e-06
1.55056e-06
1.62591e-06
1.71292e-06
1.81274e-06
1.92366e-06
2.04142e-06
2.15643e-06
2.24925e-06
2.31395e-06
2.36284e-06
2.4012e-06
2.43155e-06
2.45347e-06
2.46752e-06
2.47707e-06
2.4817e-06
2.4823e-06
2.47986e-06
2.47511e-06
2.46858e-06
2.4608e-06
2.45229e-06
2.44354e-06
2.43498e-06
2.42691e-06
2.41965e-06
2.4136e-06
2.40932e-06
2.40596e-06
2.40593e-06
2.40156e-06
2.4275e-06
2.34455e-06
8.40727e-07
9.26619e-07
1.01107e-06
1.08882e-06
1.15798e-06
1.21834e-06
1.2688e-06
1.30829e-06
1.33694e-06
1.35617e-06
1.36833e-06
1.37615e-06
1.38243e-06
1.38777e-06
1.39473e-06
1.41962e-06
1.46323e-06
1.51161e-06
1.56017e-06
1.60604e-06
1.64857e-06
1.6878e-06
1.7242e-06
1.75737e-06
1.78708e-06
1.81354e-06
1.83696e-06
1.8574e-06
1.87488e-06
1.88939e-06
1.90095e-06
1.90949e-06
1.91504e-06
1.91743e-06
1.9167e-06
1.91244e-06
1.90579e-06
1.89288e-06
1.88592e-06
1.8358e-06
1.91203e-06
9.12107e-07
1.02504e-06
1.08563e-06
1.09724e-06
1.08205e-06
1.07084e-06
1.09064e-06
1.15395e-06
1.25581e-06
1.38088e-06
1.51246e-06
1.63757e-06
1.74777e-06
1.84049e-06
1.9133e-06
1.94972e-06
1.95327e-06
1.94175e-06
1.92353e-06
1.90189e-06
1.87556e-06
1.85177e-06
1.82575e-06
1.79912e-06
1.77274e-06
1.74686e-06
1.72156e-06
1.69698e-06
1.6732e-06
1.65025e-06
1.62806e-06
1.60657e-06
1.58551e-06
1.56468e-06
1.54407e-06
1.52397e-06
1.50266e-06
1.48296e-06
1.45494e-06
1.45872e-06
1.34326e-06
8.14884
9.3697
8.54587
7.02306
5.21498
3.48542
2.03573
0.95103
0.284789
0.0592316
0.016086
0.00286405
1.11097e-05
0.000151628
0.000340136
0.000278049
0.000233762
0.000206838
0.000180912
0.000157394
0.000136661
0.00011844
0.000102268
8.80527e-05
7.55626e-05
6.46604e-05
5.50898e-05
4.68109e-05
3.96072e-05
3.33854e-05
2.80301e-05
2.34455e-05
1.95441e-05
1.62349e-05
1.34326e-05
1.10739e-05
9.0861e-06
7.41873e-06
6.01598e-06
4.84819e-06
3.87101e-06
3.05548e-06
2.38124e-06
1.82693e-06
1.37295e-06
1.01291e-06
7.35694e-07
5.42137e-07
4.42547e-07
4.25605e-07
4.56976e-07
5.06301e-07
5.54231e-07
5.94404e-07
6.24247e-07
6.45783e-07
6.57049e-07
6.62387e-07
6.59958e-07
6.54238e-07
6.42567e-07
6.30358e-07
6.14268e-07
5.96814e-07
5.79772e-07
5.59776e-07
5.43734e-07
5.22397e-07
5.10135e-07
4.81576e-07
4.88111e-07
4.37406e-07
5.04941e-07
4.43589e-07
7.84481
12.6272
12.2911
10.3807
8.0745
5.80939
3.81276
2.19141
1.0067
0.293476
0.0590353
0.0125993
0.00227504
1.1099e-05
0.000120998
0.000303586
0.000248018
0.000204227
0.000180845
0.000158534
0.000137311
0.00011883
0.000102599
8.83284e-05
7.57786e-05
6.48454e-05
5.52484e-05
4.69371e-05
3.97145e-05
3.34709e-05
2.80972e-05
2.34929e-05
1.95754e-05
1.62545e-05
1.34427e-05
1.10775e-05
9.08575e-06
7.41619e-06
6.01149e-06
4.84364e-06
3.86925e-06
3.05367e-06
2.38199e-06
1.83079e-06
1.37947e-06
1.02327e-06
7.48201e-07
5.56992e-07
4.55499e-07
4.33746e-07
4.59154e-07
5.03668e-07
5.48068e-07
5.85762e-07
6.13607e-07
6.34054e-07
6.44396e-07
6.49255e-07
6.46503e-07
6.40892e-07
6.29281e-07
6.17429e-07
6.0202e-07
5.84827e-07
5.68623e-07
5.49129e-07
5.33913e-07
5.13125e-07
5.02087e-07
4.72992e-07
4.82599e-07
4.28486e-07
5.0221e-07
4.38988e-07
5.40374
12.2786
14.3235
13.2169
10.9714
8.46184
6.06625
3.96635
2.26688
1.03126
0.298541
0.0588016
0.0102777
0.002138
8.5115e-06
6.55632e-05
0.000272599
0.000232941
0.00018087
0.000157245
0.000138198
0.000119539
0.000102966
8.86306e-05
7.60529e-05
6.50575e-05
5.54433e-05
4.70866e-05
3.98417e-05
3.35752e-05
2.81804e-05
2.35578e-05
1.96196e-05
1.6284e-05
1.34635e-05
1.10892e-05
9.09326e-06
7.42038e-06
6.01513e-06
4.84494e-06
3.87353e-06
3.05924e-06
2.38994e-06
1.84196e-06
1.3945e-06
1.04179e-06
7.69513e-07
5.81472e-07
4.77104e-07
4.48243e-07
4.65709e-07
5.03611e-07
5.43143e-07
5.77535e-07
6.03487e-07
6.21303e-07
6.31218e-07
6.35024e-07
6.3247e-07
6.26425e-07
6.15714e-07
6.03252e-07
5.88947e-07
5.72472e-07
5.56717e-07
5.38414e-07
5.23376e-07
5.03529e-07
4.93768e-07
4.64408e-07
4.76708e-07
4.19794e-07
4.98862e-07
4.34499e-07
3.7705
10.5407
14.5172
14.9579
13.4487
11.1398
8.62618
6.21232
4.07729
2.33756
1.06885
0.317113
0.060952
0.00966934
0.0025237
4.12933e-06
8.792e-06
0.00019766
0.000212176
0.000162541
0.000136871
0.000120288
0.000104098
8.92332e-05
7.64392e-05
6.54078e-05
5.57695e-05
4.73475e-05
4.00508e-05
3.37436e-05
2.83151e-05
2.36627e-05
1.96973e-05
1.63401e-05
1.35043e-05
1.11177e-05
9.11419e-06
7.43575e-06
6.02819e-06
4.85566e-06
3.8845e-06
3.07131e-06
2.40391e-06
1.85808e-06
1.41396e-06
1.06385e-06
7.93752e-07
6.07336e-07
4.99714e-07
4.63084e-07
4.72614e-07
5.03593e-07
5.38168e-07
5.69088e-07
5.92872e-07
6.0873e-07
6.17964e-07
6.21004e-07
6.18546e-07
6.12298e-07
6.02277e-07
5.89745e-07
5.76301e-07
5.60618e-07
5.45411e-07
5.28147e-07
5.13595e-07
4.94491e-07
4.86047e-07
4.56383e-07
4.71354e-07
4.11538e-07
4.95985e-07
4.30207e-07
2.89684
8.62465
13.4053
15.3737
15.0589
13.4299
11.1826
8.73487
6.35051
4.21087
2.44587
1.14384
0.359616
0.06921
0.011099
0.00361142
4.80687e-07
1.43979e-05
0.000141818
0.000192053
0.000147135
0.000117825
0.00010327
9.03201e-05
7.73903e-05
6.59056e-05
5.61263e-05
4.76805e-05
4.03413e-05
3.39742e-05
2.84939e-05
2.38007e-05
1.98033e-05
1.64192e-05
1.35623e-05
1.11604e-05
9.14637e-06
7.46067e-06
6.04912e-06
4.87433e-06
3.90172e-06
3.0889e-06
2.42282e-06
1.87847e-06
1.43685e-06
1.08854e-06
8.19942e-07
6.33544e-07
5.22094e-07
4.77508e-07
4.79161e-07
5.03127e-07
5.32778e-07
5.60205e-07
5.81541e-07
5.96177e-07
6.04488e-07
6.07102e-07
6.04589e-07
5.98464e-07
5.88844e-07
5.76828e-07
5.64074e-07
5.49127e-07
5.34658e-07
5.18209e-07
5.0449e-07
4.8596e-07
4.78825e-07
4.48812e-07
4.66457e-07
4.03654e-07
4.93487e-07
4.26118e-07
2.47293
6.95884
11.6428
14.6262
15.5623
14.9409
13.3431
11.2115
8.86321
6.53408
4.40628
2.6203
1.27625
0.437286
0.0898622
0.0155725
0.00518873
0
9.6612e-06
6.83552e-05
0.000170484
0.000146286
0.000106616
8.80062e-05
7.72352e-05
6.68705e-05
5.68569e-05
4.80818e-05
4.06363e-05
3.42427e-05
2.8721e-05
2.39746e-05
1.99317e-05
1.65144e-05
1.36336e-05
1.12142e-05
9.18781e-06
7.49329e-06
6.07662e-06
4.89899e-06
3.92444e-06
3.11146e-06
2.44622e-06
1.90306e-06
1.46335e-06
1.11655e-06
8.49081e-07
6.61768e-07
5.45966e-07
4.93683e-07
4.86984e-07
5.03719e-07
5.28145e-07
5.51908e-07
5.70721e-07
5.83951e-07
5.91292e-07
5.93487e-07
5.90906e-07
5.84951e-07
5.75719e-07
5.64304e-07
5.52206e-07
5.37945e-07
5.24258e-07
5.08565e-07
4.95766e-07
4.77757e-07
4.71863e-07
4.41514e-07
4.6172e-07
3.96066e-07
4.91002e-07
4.22204e-07
2.33364
5.61638
9.72333
13.0941
14.9949
15.4382
14.7416
13.2516
11.269
9.0453
6.79194
4.68915
2.88393
1.48519
0.566552
0.134997
0.022795
0.00801778
0.000301317
3.6111e-06
9.48847e-07
8.94423e-05
0.000130885
0.000102337
7.75281e-05
6.5312e-05
5.69984e-05
4.88829e-05
4.12169e-05
3.45634e-05
2.89467e-05
2.41736e-05
2.00979e-05
1.66385e-05
1.37217e-05
1.12784e-05
9.23753e-06
7.53357e-06
6.11113e-06
4.92956e-06
3.9523e-06
3.13871e-06
2.47397e-06
1.93172e-06
1.49347e-06
1.14798e-06
8.81274e-07
6.92617e-07
5.72325e-07
5.12598e-07
4.97227e-07
5.06455e-07
5.25234e-07
5.45029e-07
5.61207e-07
5.72617e-07
5.78926e-07
5.80564e-07
5.77899e-07
5.72024e-07
5.63221e-07
5.52284e-07
5.40821e-07
5.27225e-07
5.14259e-07
4.99322e-07
4.87379e-07
4.69878e-07
4.65138e-07
4.34488e-07
4.57059e-07
3.8877e-07
4.88432e-07
4.18411e-07
2.34736
4.56271
7.91682
11.1776
13.602
14.9112
15.1523
14.5008
13.1675
11.3639
9.2905
7.13656
5.07527
3.25497
1.79192
0.771347
0.223456
0.0422543
0.00272587
0.00205821
1.3649e-05
5.50756e-06
2.45504e-05
9.22487e-05
9.65036e-05
7.31108e-05
5.64644e-05
4.77341e-05
4.13815e-05
3.52228e-05
2.94311e-05
2.44253e-05
2.02496e-05
1.67652e-05
1.38319e-05
1.13644e-05
9.30046e-06
7.58117e-06
6.15123e-06
4.96564e-06
3.9855e-06
3.17084e-06
2.5059e-06
1.964e-06
1.52686e-06
1.18233e-06
9.16035e-07
7.25702e-07
6.01034e-07
5.33973e-07
5.09992e-07
5.11536e-07
5.24329e-07
5.39822e-07
5.53103e-07
5.62489e-07
5.67617e-07
5.68562e-07
5.65739e-07
5.5986e-07
5.51431e-07
5.40895e-07
5.30006e-07
5.17066e-07
5.04757e-07
4.90541e-07
4.79377e-07
4.62364e-07
4.58696e-07
4.27794e-07
4.52494e-07
3.81795e-07
4.85807e-07
4.14684e-07
2.3932
3.74146
6.31646
9.17433
11.7056
13.5421
14.5527
14.7475
14.2128
13.0748
11.4803
9.58876
7.56456
5.56855
3.74643
2.219
1.08041
0.388115
0.0893163
0.0119033
0.000335108
0.000337434
1.09628e-06
5.96325e-06
3.62035e-05
7.54398e-05
7.13689e-05
5.33788e-05
4.09559e-05
3.42449e-05
2.94606e-05
2.49423e-05
2.06785e-05
1.69836e-05
1.39349e-05
1.14377e-05
9.36954e-06
7.64321e-06
6.20277e-06
5.0081e-06
4.02264e-06
3.20678e-06
2.54177e-06
1.99992e-06
1.56344e-06
1.21928e-06
9.53005e-07
7.60729e-07
6.31776e-07
5.57524e-07
5.25116e-07
5.18877e-07
5.25429e-07
5.3631e-07
5.46384e-07
5.53613e-07
5.5738e-07
5.57508e-07
5.54411e-07
5.48467e-07
5.40314e-07
5.30147e-07
5.19763e-07
5.0744e-07
4.95745e-07
4.82196e-07
4.71752e-07
4.55206e-07
4.52517e-07
4.21432e-07
4.48009e-07
3.75147e-07
4.8312e-07
4.10969e-07
2.32519
3.05083
4.90288
7.23625
9.58467
11.6039
13.0996
13.9774
14.2158
13.8453
12.9347
11.5824
9.90948