/*--------------------------------*- C++ -*----------------------------------*\
| =========                 |                                                 |
| \\      /  F ield         | OpenFOAM: The Open Source CFD Toolbox           |
|  \\    /   O peration     | Version:  2312                                  |
|   \\  /    A nd           | Website:  www.openfoam.com                      |
|    \\/     M anipulation  |                                                 |
\*---------------------------------------------------------------------------*/
FoamFile
{
    version     2.0;
    format      ascii;
    arch        "LSB;label=32;scalar=64";
    class       volVectorField;
    location    "850";
    object      momentError;
}
// * * * * * * * * * * * * * * * * * * * * * * * * * * * * * * * * * * * * * //

dimensions      [0 1 -2 0 0 0 0];

internalField   nonuniform List<vector> 
11040
(
(0.0874718 -0.182007 -6.47488e-16)
(-0.0592123 0.198246 -3.0797e-16)
(0.0390134 0.215064 4.72944e-15)
(0.016078 -0.0121748 6.68756e-16)
(0.0193979 0.006597 3.78788e-15)
(0.0183581 0.00300542 -2.49624e-15)
(0.0200096 0.00351903 -5.95168e-15)
(0.020301 0.00325022 -1.11535e-15)
(0.0203287 0.00291441 -3.98343e-16)
(0.0202663 0.00261743 2.13265e-15)
(0.0203564 0.00230214 1.03451e-15)
(0.0205109 0.00204736 -5.73772e-16)
(0.0203359 0.00178163 -9.69286e-16)
(0.0200919 0.00144218 6.8842e-16)
(0.0198997 0.00113116 -4.03188e-16)
(0.0195265 0.000785028 -9.89816e-16)
(0.0190328 0.000430207 7.55572e-16)
(0.0190014 0.000119576 6.98978e-16)
(0.0191061 -0.000160252 -2.56283e-16)
(0.0189185 -0.000449612 -5.47634e-17)
(0.0187056 -0.000697227 5.816e-16)
(0.019273 -0.000871027 -3.13904e-16)
(0.0193265 -0.00100307 2.61646e-16)
(0.0189599 -0.00111708 1.32251e-16)
(0.0182344 -0.00125193 -1.34565e-15)
(0.0173454 -0.0013242 -1.0143e-15)
(0.0166594 -0.00177005 -4.84061e-16)
(0.0162133 -0.00197893 -3.46092e-16)
(0.0184372 -0.00173921 -1.13425e-15)
(0.0214896 0.00125295 4.92419e-16)
(0.0303008 -0.00382144 1.12964e-15)
(0.0351573 -0.00138127 2.41072e-15)
(0.0792959 0.0666886 2.9677e-15)
(0.208962 0.304171 -2.57496e-16)
(0.2731 0.323596 1.75975e-15)
(0.0593416 -0.170925 6.45783e-16)
(-0.0640351 -0.348177 1.2391e-15)
(0.0250566 -0.0419315 -1.58864e-16)
(0.0184774 -0.0047577 -1.12643e-15)
(0.0142678 -4.42377e-05 -1.31399e-15)
(0.0567024 0.022594 -1.30782e-15)
(0.135538 -0.40661 7.98301e-16)
(-0.0733056 -0.224221 2.89338e-15)
(0.001182 0.228721 6.21347e-15)
(0.104279 0.159096 -1.139e-15)
(0.0436515 0.0169164 -4.18403e-16)
(0.023278 0.00609785 -4.55754e-17)
(0.0245193 0.00554308 1.76765e-15)
(0.0265753 0.0061294 9.11325e-16)
(0.0270444 0.00555394 -1.64095e-16)
(0.0272058 0.00484271 -7.92052e-16)
(0.0274178 0.00427246 1.72567e-15)
(0.0278115 0.00361442 1.21326e-15)
(0.0276895 0.00313178 1.32818e-15)
(0.0276395 0.00252791 -3.78076e-17)
(0.027386 0.00195816 -2.31315e-16)
(0.0272637 0.00143002 4.26174e-16)
(0.0276372 0.000848316 3.862e-16)
(0.027737 0.000296345 3.73825e-16)
(0.0277182 -0.000238982 -1.90682e-17)
(0.0275749 -0.00078815 -8.66609e-17)
(0.0269044 -0.00120108 -2.28311e-16)
(0.0272363 -0.00147503 3.64354e-16)
(0.0270527 -0.00162473 2.33622e-16)
(0.0265921 -0.00177174 3.2053e-16)
(0.0260615 -0.00191825 -3.67247e-16)
(0.0261219 -0.00211701 -6.65422e-16)
(0.0270194 -0.00253824 7.03803e-16)
(0.0289399 -0.00321348 5.3244e-16)
(0.0317596 -0.0038877 -6.82065e-16)
(0.0365978 -0.00466597 -9.87092e-16)
(0.0360153 -0.00595268 -9.54656e-16)
(0.0400218 -0.0111282 -1.87324e-15)
(0.037961 -0.0137598 -9.56625e-17)
(0.0236132 -0.00987139 1.10933e-15)
(-0.0302623 -0.0334128 -7.60795e-16)
(-0.0142021 -0.0769204 1.91399e-16)
(0.079161 -0.0270052 -1.14346e-16)
(0.0926129 -0.0161751 8.47467e-16)
(0.0845885 -0.0131028 -6.35944e-16)
(0.0659024 -0.00660936 -4.89372e-16)
(0.12683 0.0320046 1.16393e-16)
(0.0421419 -0.179258 1.50033e-16)
(-0.0821363 -0.324376 -1.33018e-15)
(-0.0881839 -0.244185 -7.61491e-15)
(0.0151138 0.064427 2.81157e-15)
(0.113728 0.139364 1.04887e-15)
(0.0602023 0.0403751 4.55941e-16)
(0.0282139 0.00753007 1.64839e-15)
(0.0284655 0.00610406 3.82642e-16)
(0.0281772 0.0043801 -4.54236e-16)
(0.0294876 0.00445995 -9.14084e-17)
(0.0297605 0.00412297 -1.36133e-15)
(0.0303158 0.00355369 5.62288e-16)
(0.0302679 0.00313235 -3.4466e-17)
(0.0302784 0.00255871 2.99704e-16)
(0.0300654 0.00199926 7.53694e-16)
(0.0298933 0.00154638 -1.83662e-17)
(0.0297637 0.000985941 -2.85633e-16)
(0.0295649 0.000483613 -5.99006e-17)
(0.029265 -2.63511e-05 8.17031e-18)
(0.028787 -0.000554624 1.46468e-16)
(0.0279842 -0.000951442 2.67347e-16)
(0.0281845 -0.00121316 -9.50555e-17)
(0.028049 -0.00137838 1.25297e-16)
(0.0278892 -0.0016002 -2.93501e-16)
(0.0278837 -0.00190617 1.87102e-16)
(0.0284128 -0.0023124 5.60717e-16)
(0.0297387 -0.00297192 -2.87005e-16)
(0.0320425 -0.0038901 -3.59043e-16)
(0.0356495 -0.00511638 1.84208e-16)
(0.040768 -0.00648715 7.09372e-16)
(0.0483707 -0.00802202 -3.18149e-16)
(0.0598689 -0.0114517 -2.51953e-16)
(0.074808 -0.01773 3.78664e-18)
(0.090219 -0.0269515 1.37451e-16)
(0.102965 -0.0390919 -5.82173e-16)
(0.113138 -0.0393115 -1.48178e-15)
(0.126711 -0.0194558 6.58746e-17)
(0.142316 -0.0221654 5.25412e-16)
(0.137461 -0.0186311 7.98573e-17)
(0.122559 -0.00834908 8.20338e-16)
(0.199116 0.0324142 1.30363e-16)
(0.0379263 -0.154781 -2.68712e-16)
(-0.0190036 -0.226941 2.4268e-17)
(-0.0939708 -0.278522 1.73672e-15)
(-0.1114 -0.199665 -7.97187e-16)
(-0.0258963 -0.0202995 -1.5722e-15)
(0.0824479 0.0822677 2.55782e-15)
(0.0752611 0.0537937 9.51913e-16)
(0.0300611 0.0110481 3.93376e-16)
(0.0285617 0.00494452 -2.66911e-16)
(0.0283372 0.00323163 5.06582e-16)
(0.0291115 0.0029647 7.85525e-16)
(0.0298723 0.0028907 -8.96483e-16)
(0.0299987 0.00251015 7.69046e-16)
(0.0299743 0.00212879 4.19018e-16)
(0.0298547 0.00159813 1.12491e-16)
(0.029507 0.00123487 -4.03286e-16)
(0.0291794 0.000752653 -3.7804e-16)
(0.0287691 0.000361366 -2.11412e-16)
(0.028268 -3.86037e-05 4.02132e-17)
(0.0276509 -0.00042958 -5.33209e-17)
(0.0267735 -0.000678158 -3.55093e-17)
(0.0268456 -0.00082413 -8.42996e-17)
(0.0267354 -0.000922247 -1.80767e-16)
(0.0267023 -0.0011352 -4.89836e-18)
(0.0268642 -0.00152787 -7.72501e-16)
(0.0274934 -0.00207862 -3.22045e-16)
(0.028894 -0.00295223 3.98153e-16)
(0.0314129 -0.00416147 2.66165e-16)
(0.0354616 -0.00583515 6.30839e-16)
(0.0414252 -0.00781633 -3.85097e-16)
(0.0505176 -0.00990258 5.02486e-16)
(0.0643514 -0.0128381 -5.52271e-16)
(0.0815657 -0.0180081 -4.55306e-16)
(0.0992196 -0.026138 4.38637e-16)
(0.116077 -0.0341244 -1.22614e-16)
(0.133104 -0.0351914 -8.54233e-17)
(0.150995 -0.0304721 -5.45416e-16)
(0.173613 -0.0279456 4.54822e-16)
(0.1698 -0.0265919 -2.16644e-16)
(0.182808 -0.00726196 -9.1314e-17)
(0.264265 0.0324886 7.01506e-16)
(0.0205303 -0.139792 2.1749e-16)
(0.00378804 -0.147824 -1.39617e-16)
(-0.0686601 -0.183481 -1.34835e-16)
(-0.109558 -0.201097 8.63662e-16)
(-0.12629 -0.176365 1.9516e-16)
(-0.0793167 -0.0961667 -4.46637e-16)
(0.029837 0.0155397 -5.93891e-16)
(0.0722226 0.053953 -1.32977e-15)
(0.0396271 0.0175608 2.70057e-16)
(0.0267348 0.00518826 -9.41975e-17)
(0.0270198 0.00294018 4.34975e-16)
(0.0269141 0.00126366 1.96918e-16)
(0.0279633 0.00145025 -3.75035e-16)
(0.0282521 0.00159743 -6.15023e-16)
(0.028065 0.00105302 2.02196e-16)
(0.0276721 0.0008716 4.71805e-18)
(0.0272923 0.000469482 -1.65564e-16)
(0.0268102 0.000187646 -2.39919e-16)
(0.0262355 -0.000109437 -4.55169e-17)
(0.0255764 -0.000371097 4.82206e-17)
(0.0246688 -0.000486762 1.33829e-16)
(0.0245813 -0.000519282 -2.61329e-16)
(0.0243582 -0.000544771 -5.55312e-17)
(0.0242149 -0.000705523 4.20446e-16)
(0.0242663 -0.00110876 2.45922e-16)
(0.0247848 -0.00175172 -2.53664e-16)
(0.0261222 -0.00281521 2.48414e-16)
(0.0286783 -0.00433925 1.91593e-16)
(0.0329061 -0.00645666 -3.66485e-16)
(0.03924 -0.00905863 2.2276e-16)
(0.0487921 -0.0119931 -3.40061e-17)
(0.0632327 -0.0158694 7.52986e-16)
(0.0811294 -0.0217807 1.76343e-16)
(0.100206 -0.0301458 -6.26357e-17)
(0.120094 -0.037514 1.3942e-16)
(0.141555 -0.0396338 2.96337e-16)
(0.163912 -0.0382577 -1.24575e-16)
(0.192481 -0.0333981 2.07556e-16)
(0.203203 -0.0321682 7.90368e-17)
(0.221511 -0.0133925 -2.2719e-16)
(0.313044 0.025039 -2.08736e-16)
(0.0111897 -0.121638 -3.85274e-17)
(-0.00158036 -0.112988 2.6525e-17)
(-0.0408283 -0.124264 6.56574e-17)
(-0.0748157 -0.152909 2.44176e-16)
(-0.106366 -0.154473 -9.08385e-16)
(-0.135469 -0.151394 1.16014e-16)
(-0.126189 -0.132121 -5.52302e-16)
(-0.0380252 -0.0418178 -8.78773e-16)
(0.0374553 0.0127512 1.61588e-16)
(0.0518629 0.0306238 -3.07797e-16)
(0.0249352 0.00552556 1.92608e-17)
(0.0240871 0.00211077 6.60903e-18)
(0.0245104 0.000964492 -2.18201e-17)
(0.0247703 9.10599e-05 -3.2778e-16)
(0.0253774 0.000324205 1.35081e-17)
(0.0254002 0.000544614 -1.83015e-16)
(0.0249682 0.000203205 -1.08662e-16)
(0.0245186 5.02005e-05 -8.53552e-17)
(0.0239447 -0.000147819 -3.93452e-17)
(0.0233036 -0.000283492 5.65037e-17)
(0.022396 -0.000276506 5.1076e-17)
(0.022149 -0.000197631 3.1664e-17)
(0.0217509 -0.000152533 -3.9317e-18)
(0.0214038 -0.000258199 -1.75558e-16)
(0.0212387 -0.000659507 1.26473e-16)
(0.021525 -0.00138976 4.84197e-16)
(0.0226231 -0.00264215 -4.05719e-16)
(0.0249506 -0.00449159 -4.623e-16)
(0.0289765 -0.00705425 -1.67017e-16)
(0.0351746 -0.0102673 1.81256e-16)
(0.0444228 -0.0140889 3.55259e-16)
(0.0585184 -0.0191675 -1.15571e-16)
(0.0761573 -0.026102 -2.42421e-16)
(0.0958403 -0.0347633 -3.67481e-16)
(0.11768 -0.0422411 -1.45436e-16)
(0.14188 -0.0457862 5.81951e-16)
(0.167701 -0.0461178 2.87959e-16)
(0.20083 -0.040855 -4.35309e-17)
(0.224264 -0.0399482 4.3247e-16)
(0.249573 -0.0225325 -2.86075e-16)
(0.344106 0.00476543 -1.90635e-16)
(0.00445762 -0.102568 6.79623e-17)
(-0.00670067 -0.0975012 -3.52107e-17)
(-0.0257469 -0.0891246 -9.42789e-17)
(-0.0491324 -0.111954 -4.04889e-16)
(-0.075406 -0.12419 -3.45927e-16)
(-0.100963 -0.110914 3.04148e-16)
(-0.13657 -0.10838 3.79915e-16)
(-0.157722 -0.147756 -1.14355e-16)
(-0.123973 -0.14894 8.24807e-16)
(-0.0161045 -0.0288808 -4.57804e-16)
(0.0334242 0.00807841 2.44126e-16)
(0.033866 0.0140744 -6.37554e-17)
(0.0208834 0.00361021 5.95052e-16)
(0.0209975 0.000678461 -6.51695e-16)
(0.0213106 -0.000305996 1.3372e-16)
(0.0217683 -0.000600299 -1.63992e-16)
(0.0221971 -0.000222832 -8.11154e-18)
(0.0222535 -6.1143e-05 8.47359e-17)
(0.0218038 -0.000146721 -1.92752e-18)
(0.0212851 -0.000147393 -1.89839e-16)
(0.0204429 -2.92482e-05 1.86631e-16)
(0.0200825 0.0001584 -1.46499e-16)
(0.0194976 0.000278422 -1.24601e-16)
(0.0188939 0.00023308 2.01011e-16)
(0.0184257 -0.0001554 -1.36222e-16)
(0.0183532 -0.00096252 -1.47409e-16)
(0.0190224 -0.00239754 -1.09355e-16)
(0.0208523 -0.00457217 -8.61595e-17)
(0.0243156 -0.00759047 -5.8213e-18)
(0.0299201 -0.0114415 1.76182e-16)
(0.0382318 -0.0161274 6.61104e-17)
(0.0512503 -0.022419 1.63262e-16)
(0.0678789 -0.0304085 -2.21728e-16)
(0.0873282 -0.0395385 -3.78756e-16)
(0.110004 -0.047619 -1.94048e-16)
(0.135773 -0.052889 4.27933e-16)
(0.164279 -0.0549339 1.43855e-17)
(0.200438 -0.0510379 -8.87409e-18)
(0.233922 -0.0504494 1.77571e-16)
(0.269632 -0.0300026 2.49264e-16)
(0.360044 -0.0306766 -1.78123e-16)
(-0.000514394 -0.0850325 -2.26481e-17)
(-0.010231 -0.0822753 7.04241e-17)
(-0.0204701 -0.0683592 -2.03721e-17)
(-0.0364369 -0.0792123 8.62016e-18)
(-0.0543788 -0.094074 1.32147e-16)
(-0.074086 -0.0971084 6.08977e-16)
(-0.0905074 -0.0781377 -4.90533e-16)
(-0.108804 -0.0871433 -8.12552e-16)
(-0.138228 -0.0766353 1.54062e-16)
(-0.175469 -0.137637 4.43048e-16)
(-0.0991184 -0.111023 1.46378e-15)
(-0.0131846 -0.0251768 -1.63576e-15)
(0.027207 0.0109443 6.68607e-16)
(0.0236623 0.00908854 -1.49013e-16)
(0.017046 0.00196368 -3.967e-16)
(0.0175845 -8.11854e-05 4.59548e-16)
(0.0180052 -0.0008669 3.0129e-17)
(0.0186654 -0.000898119 3.69722e-16)
(0.0192179 -0.000342445 -2.22249e-16)
(0.0193076 -5.04485e-05 -2.09598e-16)
(0.0187701 0.000211911 2.69949e-16)
(0.0185212 0.000539735 -7.80069e-17)
(0.0178909 0.000764988 -1.82403e-16)
(0.0170714 0.000815132 5.69846e-17)
(0.0162328 0.000464987 7.63917e-17)
(0.0156526 -0.000399191 -6.09689e-17)
(0.0156905 -0.00199481 -1.03992e-16)
(0.016761 -0.00447277 2.3539e-16)
(0.0193236 -0.00795815 2.66166e-16)
(0.0239167 -0.012484 -1.49266e-16)
(0.0309769 -0.018023 -2.28504e-16)
(0.042118 -0.025459 -8.75294e-17)
(0.0570847 -0.0345746 1.71987e-16)
(0.0755038 -0.0445316 1.03177e-16)
(0.0979552 -0.053772 -3.96827e-17)
(0.124308 -0.0610837 -1.21526e-16)
(0.154639 -0.0653439 2.70894e-16)
(0.192485 -0.0642942 -2.71817e-16)
(0.233271 -0.0653831 5.37681e-17)
(0.279582 -0.0551916 6.30048e-17)
(0.371112 -0.0603853 1.83401e-16)
(-0.00381395 -0.0691358 -4.57976e-17)
(-0.0121488 -0.0680273 1.26303e-17)
(-0.0188121 -0.0564312 -1.40763e-17)
(-0.0278497 -0.0582182 -1.68364e-16)
(-0.0415841 -0.0670788 6.10572e-17)
(-0.056274 -0.0767106 -6.03086e-18)
(-0.0714083 -0.07663 -1.30614e-16)
(-0.0836927 -0.0499129 4.99825e-16)
(-0.107239 -0.033413 -2.28331e-16)
(-0.132755 -0.0690481 6.56976e-16)
(-0.180955 -0.116155 4.55492e-17)
(-0.15076 -0.104735 -2.96031e-16)
(-0.0942335 -0.0932235 8.95864e-17)
(-0.0103344 -0.0157353 -2.96591e-16)
(0.0228842 0.0115596 -4.23236e-16)
(0.0174885 0.00621484 4.2137e-17)
(0.0136367 0.000838466 1.84885e-16)
(0.0143931 -0.000556659 3.0362e-16)
(0.0150816 -0.000956837 -3.76923e-17)
(0.0158402 -0.000703847 -2.5384e-16)
(0.0164597 0.000181802 2.40414e-16)
(0.0169332 0.000863327 1.26851e-17)
(0.0166318 0.00128279 -4.38285e-17)
(0.0158667 0.00149966 1.0404e-16)
(0.0148195 0.00125331 1.40254e-16)
(0.0137554 0.0004189 1.79494e-16)
(0.0130174 -0.00126832 3.25065e-17)
(0.0130496 -0.00401799 1.58728e-17)
(0.0143543 -0.00798244 -1.13973e-16)
(0.0175094 -0.0132076 6.12014e-18)
(0.0229752 -0.0196866 -1.34457e-16)
(0.0316231 -0.0280969 4.11965e-17)
(0.0442824 -0.0384936 -6.47303e-17)
(0.0608176 -0.0497529 -8.37446e-17)
(0.0819427 -0.0607845 5.75785e-17)
(0.107781 -0.0706069 8.4741e-17)
(0.138743 -0.0779031 3.17319e-17)
(0.177042 -0.080983 1.65558e-17)
(0.222017 -0.0850812 -8.94713e-17)
(0.274961 -0.0848981 1.63913e-16)
(0.362017 -0.0944253 2.84407e-17)
(-0.00585951 -0.0551224 1.52341e-16)
(-0.0129384 -0.0551248 -4.47872e-17)
(-0.018284 -0.0469442 -1.44626e-16)
(-0.0227556 -0.0451195 1.68209e-16)
(-0.0324399 -0.0494599 9.12714e-18)
(-0.043626 -0.0550413 2.04625e-17)
(-0.0554462 -0.0610342 4.53849e-16)
(-0.067234 -0.0599598 -8.80542e-16)
(-0.0745416 -0.0392142 -2.04455e-16)
(-0.0861501 -0.0135432 1.53962e-15)
(-0.10379 0.019737 3.72778e-17)
(-0.174576 -0.0937229 -1.24524e-16)
(-0.177612 -0.132455 -6.78436e-16)
(-0.167526 -0.125926 4.56e-16)
(-0.0825892 -0.0746751 -1.08069e-15)
(-0.0120369 -0.0153024 2.34983e-16)
(0.017892 0.00952196 -4.63638e-17)
(0.0132368 0.00460897 2.66913e-16)
(0.0107049 0.000427314 -1.1272e-16)
(0.0117077 -0.000478857 -2.93351e-16)
(0.012681 -0.000333517 1.86141e-16)
(0.0138761 0.000388122 -6.12079e-17)
(0.0145996 0.00142743 -8.35241e-17)
(0.014542 0.00215559 1.17386e-16)
(0.013752 0.00223423 1.09499e-16)
(0.0125321 0.00158454 -1.0077e-16)
(0.0111938 -7.31501e-05 5.66734e-17)
(0.0101848 -0.00297468 1.12364e-16)
(0.0100299 -0.00732316 4.59225e-17)
(0.0113331 -0.0132317 -6.2908e-17)
(0.014638 -0.0207523 5.45286e-17)
(0.0203309 -0.0300709 7.07831e-17)
(0.0299417 -0.0419453 6.82127e-17)
(0.043592 -0.0550109 6.50797e-17)
(0.0620891 -0.0685028 1.29618e-16)
(0.0859139 -0.0814884 -1.45003e-16)
(0.115725 -0.0927184 5.0605e-17)
(0.152696 -0.100865 7.61313e-18)
(0.198076 -0.109761 8.69225e-18)
(0.252624 -0.118069 -2.15716e-17)
(0.331816 -0.132543 -2.71267e-17)
(-0.00694015 -0.0431304 2.98749e-17)
(-0.0128875 -0.0436869 1.05846e-16)
(-0.0171938 -0.0380949 8.67748e-17)
(-0.020628 -0.0363985 -4.06679e-17)
(-0.0254212 -0.0362502 -4.74235e-17)
(-0.0344228 -0.0401311 1.14743e-16)
(-0.0438951 -0.043205 9.22312e-17)
(-0.0537434 -0.0463215 -2.76059e-16)
(-0.0627979 -0.0460935 3.6851e-16)
(-0.0677659 -0.0310355 -5.51299e-16)
(-0.0732617 -0.0113212 -1.11894e-15)
(-0.0750024 0.0155906 -2.65057e-16)
(-0.120978 -0.00857025 3.97761e-16)
(-0.172995 -0.0807123 -4.74197e-16)
(-0.199154 -0.131396 -4.46316e-16)
(-0.164357 -0.1241 6.17008e-16)
(-0.0821736 -0.0641991 -1.18348e-16)
(-0.0159583 -0.0141941 6.69139e-16)
(0.012736 0.00823903 5.88169e-17)
(0.0105351 0.00458664 -3.63447e-16)
(0.00845959 0.000901475 4.07054e-17)
(0.00982237 0.000399385 -3.50347e-17)
(0.0111395 0.00105097 -1.94726e-17)
(0.0118583 0.00200541 -1.04149e-16)
(0.0118744 0.00277715 2.35386e-16)
(0.0111388 0.00283346 -1.4307e-17)
(0.00975025 0.0016685 -8.88462e-17)
(0.00807987 -0.00103138 5.34253e-19)
(0.00662451 -0.00553961 -3.26663e-17)
(0.00597121 -0.0120426 2.66104e-17)
(0.00678474 -0.0205547 -1.44033e-16)
(0.00959923 -0.0308974 2.56289e-17)
(0.0149526 -0.0440862 8.76428e-17)
(0.0243896 -0.0594736 1.28146e-16)
(0.0385852 -0.0761043 9.16754e-17)
(0.058319 -0.0929589 -9.11981e-17)
(0.0843805 -0.108954 -1.07697e-16)
(0.117298 -0.122773 -7.33991e-17)
(0.158765 -0.137444 -1.8813e-16)
(0.209377 -0.152343 -1.84872e-16)
(0.277263 -0.170903 -1.12008e-16)
(-0.00728726 -0.0330949 7.90284e-17)
(-0.0122474 -0.0338545 8.28962e-17)
(-0.0157393 -0.0300513 -1.51049e-16)
(-0.0187801 -0.0290602 -4.40341e-17)
(-0.0216201 -0.0280309 1.25523e-16)
(-0.0271147 -0.029186 -3.55016e-17)
(-0.0345951 -0.0313627 -1.03191e-16)
(-0.0424115 -0.0326329 3.54034e-17)
(-0.0503655 -0.034044 1.01451e-15)
(-0.0578567 -0.0341902 -3.48744e-16)
(-0.0619705 -0.0245203 -8.46338e-16)
(-0.0618733 -0.00114183 1.02852e-15)
(-0.0614514 0.0278014 4.84888e-16)
(-0.0791893 0.0302806 6.66913e-17)
(-0.124382 -0.0165169 1.33556e-16)
(-0.193254 -0.0860309 -3.4933e-16)
(-0.19088 -0.108426 -1.16552e-16)
(-0.167208 -0.118094 2.20584e-16)
(-0.0854978 -0.0574695 5.22518e-16)
(-0.0224443 -0.0148722 -7.26038e-16)
(0.00771218 0.00719323 2.35066e-17)
(0.00879406 0.00613307 -2.0098e-17)
(0.00711417 0.00289189 -6.2483e-17)
(0.00772916 0.00218679 -3.77852e-17)
(0.00858584 0.0027153 1.66691e-16)
(0.00866323 0.00333722 8.47586e-17)
(0.00775542 0.00309412 -1.51832e-16)
(0.00607615 0.00135664 -7.44852e-17)
(0.00388224 -0.00248284 2.79902e-17)
(0.00163986 -0.00878366 -3.2001e-17)
(-1.3553e-05 -0.017697 5.87448e-17)
(-0.000405946 -0.0291977 -3.1018e-17)
(0.000897458 -0.04335 5.20098e-17)
(0.00469139 -0.0609952 -1.23727e-17)
(0.0126866 -0.0810127 -1.12005e-16)
(0.0256408 -0.102255 -2.34783e-17)
(0.0444362 -0.123785 2.19932e-17)
(0.0699137 -0.143662 6.44272e-17)
(0.102877 -0.164349 -2.09362e-17)
(0.14391 -0.184346 -4.56117e-17)
(0.197248 -0.205732 -1.68598e-17)
(-0.00712107 -0.0248782 -6.51083e-17)
(-0.0112186 -0.025632 4.21586e-17)
(-0.0140432 -0.0230536 -8.08545e-18)
(-0.0166949 -0.0225016 -1.43319e-16)
(-0.0192049 -0.0218471 1.54603e-17)
(-0.0220349 -0.0213578 6.96323e-17)
(-0.0272934 -0.0224692 -1.21921e-16)
(-0.0334786 -0.0233805 -2.18266e-16)
(-0.0398607 -0.023409 2.02531e-17)
(-0.0463462 -0.0235053 -2.76775e-16)
(-0.0525755 -0.0237731 3.95681e-16)
(-0.0565088 -0.0194083 5.29382e-17)
(-0.0560943 -0.00380731 -2.57691e-16)
(-0.052103 0.022721 -2.83677e-16)
(-0.057119 0.0379161 3.30996e-16)
(-0.0551977 0.0726708 4.47844e-16)
(-0.138178 -0.0264971 -1.50823e-15)
(-0.189187 -0.0873411 1.22883e-15)
(-0.192245 -0.0968291 1.97371e-16)
(-0.168074 -0.109614 -5.23634e-16)
(-0.0953058 -0.0580574 3.47202e-16)
(-0.0360439 -0.0209425 -1.08813e-16)
(-0.00203211 0.00426198 -9.79001e-17)
(0.0049454 0.00958054 -5.71784e-17)
(0.00520717 0.00799205 2.67781e-16)
(0.00511235 0.00580459 1.08639e-17)
(0.00455088 0.00440441 -3.15308e-17)
(0.00346745 0.00310825 -1.83794e-16)
(0.00134966 0.000566539 1.11305e-16)
(-0.00162936 -0.00421943 2.06586e-16)
(-0.00512158 -0.0120033 -1.92771e-17)
(-0.00857647 -0.0231561 -7.19044e-17)
(-0.0111949 -0.0374999 -2.68481e-17)
(-0.0127855 -0.0553433 -7.05597e-18)
(-0.0126577 -0.0779843 -1.14248e-16)
(-0.00881905 -0.103742 4.11045e-17)
(-0.000410265 -0.131113 -1.82062e-18)
(0.013769 -0.157073 -5.14389e-17)
(0.0334174 -0.183742 4.11202e-18)
(0.0601557 -0.208547 3.89971e-17)
(0.0963968 -0.233037 4.53306e-17)
(-0.00661618 -0.0182826 7.58603e-17)
(-0.00996443 -0.018918 -5.77195e-17)
(-0.0122374 -0.0171717 -6.85773e-17)
(-0.0145118 -0.0168539 -2.23542e-17)
(-0.0166852 -0.0164453 1.64129e-16)
(-0.0187622 -0.0158985 -1.95777e-17)
(-0.02154 -0.0155666 6.18056e-17)
(-0.0263815 -0.0163307 1.75086e-16)
(-0.0314248 -0.0164016 7.23978e-17)
(-0.0365995 -0.0156925 -5.34139e-16)
(-0.0418151 -0.0147353 -2.88963e-16)
(-0.0466932 -0.0141604 -8.86485e-17)
(-0.0505193 -0.0124737 -5.28769e-16)
(-0.0512465 -0.0046415 3.9563e-16)
(-0.046805 0.0145586 1.40284e-15)
(-0.0467053 0.0280146 -7.56303e-16)
(-0.0427506 0.0449467 -2.05682e-16)
(-0.0424635 0.084787 3.02751e-16)
(-0.134043 -0.0153037 -3.35942e-16)
(-0.17759 -0.0720815 9.57842e-16)
(-0.18887 -0.086087 -1.74891e-16)
(-0.182884 -0.106116 -4.81227e-16)
(-0.131202 -0.0732382 -7.04491e-16)
(-0.0753294 -0.0402921 3.54241e-16)
(-0.0305439 -0.00784263 3.93798e-16)
(-0.00992107 0.00936399 3.57886e-17)
(-0.0036514 0.0145952 3.33042e-17)
(-0.00183158 0.0132025 1.66505e-17)
(-0.00227218 0.0085835 1.32686e-17)
(-0.00470302 0.00239917 1.01804e-16)
(-0.0084778 -0.00502534 8.02224e-17)
(-0.0132358 -0.0140357 -1.47184e-16)
(-0.0192199 -0.0267647 1.85122e-17)
(-0.0250696 -0.0429362 -2.0738e-17)
(-0.031281 -0.0634404 -6.95412e-17)
(-0.0380178 -0.0890674 5.61057e-18)
(-0.0416807 -0.119792 1.11605e-16)
(-0.041643 -0.151101 -5.87131e-17)
(-0.0382102 -0.18429 -3.31064e-17)
(-0.0295609 -0.215498 -1.97254e-17)
(-0.0133136 -0.244617 1.28307e-17)
(-0.00591922 -0.0131112 -2.56436e-17)
(-0.00861546 -0.0135702 4.42383e-17)
(-0.0104255 -0.0123736 1.7428e-17)
(-0.0123363 -0.0121667 8.48331e-17)
(-0.0141854 -0.0118861 -7.71669e-17)
(-0.0159669 -0.0114864 3.56945e-17)
(-0.0177017 -0.0109879 3.18873e-18)
(-0.0207771 -0.0109105 -4.70695e-17)
(-0.0246971 -0.0109592 1.81976e-16)
(-0.0287758 -0.0104815 1.70159e-16)
(-0.0328761 -0.00934766 -4.68748e-16)
(-0.0367758 -0.00777654 8.4149e-16)
(-0.0406128 -0.00646543 7.47655e-16)
(-0.0440237 -0.00537317 -7.40645e-16)
(-0.0456778 -0.00216827 -4.64708e-16)
(-0.0430514 0.00875534 -3.55092e-16)
(-0.0372043 0.0278362 8.25903e-16)
(-0.0370793 0.0383868 -8.01478e-16)
(-0.0328268 0.0522524 1.77528e-16)
(-0.0335268 0.0841253 3.98871e-16)
(-0.115528 0.0023126 -2.68919e-16)
(-0.162717 -0.0450703 -2.76491e-16)
(-0.195338 -0.0741195 1.2576e-16)
(-0.203578 -0.0975976 1.84755e-16)
(-0.179601 -0.0865925 -3.05912e-16)
(-0.143432 -0.0696823 6.92943e-17)
(-0.0971999 -0.0395409 2.88932e-16)
(-0.0587958 -0.0118527 -5.05452e-16)
(-0.0368091 0.0059537 1.37649e-16)
(-0.0272451 0.0132994 1.44542e-16)
(-0.0241261 0.0117652 -4.19415e-17)
(-0.0250897 0.00327711 -1.35601e-16)
(-0.0292705 -0.00994445 4.14897e-17)
(-0.035475 -0.0258824 1.76507e-16)
(-0.0428269 -0.0436479 2.70722e-17)
(-0.050846 -0.0637901 -5.91617e-18)
(-0.0627321 -0.0876882 -5.20108e-17)
(-0.078367 -0.118797 -3.09485e-17)
(-0.0914147 -0.153386 -6.93993e-17)
(-0.102444 -0.188122 1.79987e-17)
(-0.108171 -0.222985 5.08858e-17)
(-0.00512616 -0.00915469 -3.52107e-17)
(-0.00727416 -0.00943942 4.31617e-17)
(-0.00869326 -0.00859687 -3.58145e-17)
(-0.0102594 -0.00842376 -1.45699e-16)
(-0.0117945 -0.00819216 3.25498e-17)
(-0.013293 -0.00787335 -5.47318e-17)
(-0.0147657 -0.007461 -4.35135e-17)
(-0.0164602 -0.00700488 3.10757e-17)
(-0.0192945 -0.00680658 -5.05157e-17)
(-0.0224727 -0.00639796 8.2794e-18)
(-0.0256992 -0.00557704 -3.12468e-16)
(-0.0287468 -0.0042421 2.85574e-16)
(-0.0316795 -0.00246822 -2.11971e-16)
(-0.0345217 -0.000672624 -6.92725e-16)
(-0.0372077 0.000682948 9.39916e-16)
(-0.0391861 0.0021059 3.69323e-16)
(-0.0389521 0.00624601 2.04873e-16)
(-0.0345527 0.0174012 -6.87371e-18)
(-0.0276193 0.0348515 -1.86996e-16)
(-0.025668 0.0447778 -1.5197e-16)
(-0.0228508 0.060494 -7.15667e-17)
(-0.0259056 0.0823893 1.93198e-16)
(-0.0861462 0.0334079 -3.95406e-16)
(-0.123716 0.000753595 -1.41e-17)
(-0.167125 -0.039494 1.60407e-16)
(-0.20828 -0.0782346 -1.54985e-16)
(-0.209645 -0.080562 -4.0284e-16)
(-0.204223 -0.0841922 5.02436e-16)
(-0.181303 -0.0729389 5.17017e-16)
(-0.149228 -0.0535112 -4.01363e-16)
(-0.117612 -0.0337806 -1.16162e-16)
(-0.0946085 -0.0193288 -6.46214e-17)
(-0.0821399 -0.0131752 -8.46332e-17)
(-0.0772825 -0.015342 2.85113e-16)
(-0.0779505 -0.0249222 -1.03398e-16)
(-0.0828847 -0.0407136 -4.72405e-17)
(-0.0910935 -0.0609132 6.87901e-17)
(-0.0991083 -0.082643 -4.4247e-18)
(-0.112953 -0.107923 7.31295e-17)
(-0.127181 -0.132244 6.09305e-17)
(-0.146987 -0.162963 5.17671e-19)
(-0.00429668 -0.00609752 3.11306e-18)
(-0.00598974 -0.0062613 5.35223e-17)
(-0.00708728 -0.00566525 1.99032e-17)
(-0.00834187 -0.00550246 -2.1235e-17)
(-0.00958651 -0.00529162 -5.88417e-17)
(-0.0108157 -0.00501204 -2.51341e-19)
(-0.012037 -0.00466122 4.68386e-17)
(-0.0132602 -0.0042414 4.58639e-17)
(-0.0149219 -0.00377423 -3.94535e-18)
(-0.0173724 -0.00335815 -9.79974e-17)
(-0.0198791 -0.00266376 -2.39707e-16)
(-0.02228 -0.00166217 2.15829e-16)
(-0.0245678 -0.000302821 -2.79648e-16)
(-0.0266991 0.0014268 -2.08074e-16)
(-0.0286876 0.00336607 3.59129e-16)
(-0.030554 0.00513738 2.35946e-16)
(-0.0321828 0.00648036 3.36744e-16)
(-0.0329799 0.00800238 -5.82827e-16)
(-0.0316419 0.0118917 -3.18103e-16)
(-0.0264709 0.0214604 1.01162e-15)
(-0.0186734 0.0355083 -5.16103e-16)
(-0.0149042 0.0481374 -1.13138e-16)
(-0.00845368 0.0714184 1.11256e-16)
(-0.0157329 0.0782769 -3.38989e-16)
(-0.0467094 0.0471467 5.4984e-16)
(-0.0574258 0.0553637 -3.54639e-16)
(-0.113916 0.0224743 -4.40893e-16)
(-0.140579 -0.0150661 2.21203e-16)
(-0.174318 -0.0378422 1.62308e-16)
(-0.194708 -0.0572163 6.94573e-16)
(-0.204246 -0.0686752 -4.00319e-16)
(-0.203999 -0.0720782 -3.24139e-16)
(-0.194636 -0.0695553 2.10541e-16)
(-0.181602 -0.065285 1.3608e-17)
(-0.169236 -0.0617472 -5.21692e-17)
(-0.162037 -0.0626463 3.55958e-17)
(-0.160923 -0.0688705 3.85255e-18)
(-0.162784 -0.0791753 4.97007e-17)
(-0.171015 -0.0941611 -5.36323e-17)
(-0.182338 -0.110481 1.53535e-17)
(-0.19912 -0.126768 -2.06591e-17)
(-0.00373746 -0.00417003 -2.27754e-17)
(-0.00506532 -0.00417434 1.91431e-17)
(-0.00591488 -0.00370864 5.36864e-18)
(-0.00689366 -0.00350762 -4.52871e-19)
(-0.00786484 -0.00327106 7.97899e-17)
(-0.00882596 -0.00298279 -2.00661e-17)
(-0.0097851 -0.00264533 -9.50084e-17)
(-0.0107487 -0.0022522 6.02564e-17)
(-0.0117676 -0.00180323 2.61758e-16)
(-0.013463 -0.00129617 -3.01974e-16)
(-0.0154257 -0.000654978 -4.50106e-17)
(-0.0173384 0.00019653 4.70461e-16)
(-0.0191803 0.00127229 -3.35763e-16)
(-0.0208917 0.00259316 1.19724e-16)
(-0.0224347 0.00418472 -6.24107e-17)
(-0.0237978 0.00601202 -7.53436e-16)
(-0.0250129 0.00788018 1.31515e-15)
(-0.0261037 0.00946711 4.05338e-16)
(-0.0269425 0.0106036 -1.12497e-15)
(-0.0269748 0.0118063 9.71296e-16)
(-0.0249886 0.0148845 -8.1589e-17)
(-0.0209436 0.0233712 -7.7371e-16)
(-0.0143503 0.0343277 1.30042e-16)
(-0.00617966 0.0476417 3.34488e-16)
(0.00438743 0.0675273 -5.82253e-16)
(0.00259477 0.0734861 2.91762e-17)
(0.00173913 0.0787925 1.06559e-16)
(-0.0103394 0.0747915 5.59846e-17)
(-0.0298935 0.0624846 -4.22779e-16)
(-0.0557755 0.0427036 3.59233e-16)
(-0.0845649 0.0195936 5.23232e-16)
(-0.112825 -0.0030689 -7.88538e-17)
(-0.131893 -0.0236792 -1.93157e-16)
(-0.162893 -0.0456702 -3.42634e-16)
(-0.175236 -0.0565527 7.6585e-17)
(-0.189335 -0.0684272 2.21409e-17)
(-0.19889 -0.076605 5.80284e-17)
(-0.205617 -0.0835625 1.86488e-17)
(-0.215648 -0.0920524 7.5708e-17)
(-0.227023 -0.101013 4.72665e-17)
(-0.24482 -0.113163 -3.25055e-17)
(-0.00325941 -0.00285551 -2.732e-17)
(-0.00430561 -0.00275571 -3.9155e-17)
(-0.00497218 -0.00237011 -3.25213e-18)
(-0.00573704 -0.00214501 6.45986e-17)
(-0.00649563 -0.00189222 4.25928e-17)
(-0.00724555 -0.00160123 -2.68844e-17)
(-0.00799583 -0.00127342 -2.8904e-18)
(-0.0087522 -0.000906938 2.71584e-17)
(-0.00951906 -0.000494199 -1.44616e-16)
(-0.0105129 5.79128e-06 -3.93285e-17)
(-0.0120788 0.000600954 4.73394e-16)
(-0.0136096 0.00135899 9.38472e-17)
(-0.0151007 0.00227714 -6.92857e-16)
(-0.0164985 0.00336042 1.74131e-16)
(-0.0177649 0.00461217 2.16595e-16)
(-0.0188652 0.00604348 -9.50895e-16)
(-0.0197716 0.00765903 1.49919e-17)
(-0.0204875 0.009392 4.96371e-16)
(-0.0210644 0.0110483 5.77092e-16)
(-0.0215436 0.0123534 -3.55356e-16)
(-0.021832 0.0131641 1.50804e-16)
(-0.0226875 0.0149217 3.52202e-16)
(-0.0217547 0.0174879 -6.49813e-16)
(-0.0187855 0.0220025 -2.26841e-16)
(-0.0139234 0.0281664 7.25603e-17)
(-0.00598043 0.0378603 2.21894e-16)
(0.00234566 0.0487236 -1.153e-16)
(0.0102669 0.0588869 2.30385e-16)
(0.0159541 0.0670794 -1.26698e-16)
(0.0179132 0.0715581 -3.95739e-17)
(0.0152085 0.0713354 2.60216e-16)
(0.00836198 0.0679189 -1.9426e-16)
(-0.0197084 0.0435736 -7.75486e-17)
(-0.0172396 0.0431751 2.9206e-16)
(-0.0485039 0.0238992 -3.21247e-16)
(-0.0664566 0.00579254 1.97906e-16)
(-0.0917366 -0.0100557 1.32822e-16)
(-0.11329 -0.0255926 -2.28113e-16)
(-0.142706 -0.0406269 5.05712e-17)
(-0.156011 -0.045905 8.65348e-17)
(-0.184138 -0.0597599 1.3688e-17)
(-0.00282877 -0.00190934 -6.96762e-18)
(-0.00365584 -0.0017501 -1.82368e-17)
(-0.00418056 -0.00142017 -8.47325e-18)
(-0.00478211 -0.00118759 3.37886e-17)
(-0.00537681 -0.000932931 -4.85709e-20)
(-0.00596576 -0.000648455 -9.65724e-18)
(-0.00655527 -0.00033611 -3.61875e-18)
(-0.00715349 5.06058e-06 1.03423e-17)
(-0.00776043 0.000384277 4.03112e-17)
(-0.00840957 0.000807756 -4.44063e-17)
(-0.00953246 0.00137708 6.22935e-17)
(-0.0107606 0.00206051 -7.31391e-17)
(-0.0119685 0.00286489 5.69235e-17)
(-0.0131113 0.00379164 3.17096e-16)
(-0.0141544 0.00483663 -4.0297e-16)
(-0.0150729 0.00599342 -1.92147e-16)
(-0.0158384 0.00725724 -1.00954e-16)
(-0.0164202 0.00863305 7.46574e-17)
(-0.0168087 0.0101048 2.81752e-16)
(-0.0170159 0.0116055 -1.34477e-16)
(-0.017135 0.0129297 -3.94809e-16)
(-0.018242 0.0148063 3.16974e-16)
(-0.0190123 0.0160577 3.41937e-16)
(-0.019449 0.0171962 -5.75264e-16)
(-0.0190736 0.0186784 2.47474e-16)
(-0.0175879 0.0207735 1.78132e-16)
(-0.0145708 0.0240202 -2.99472e-16)
(-0.0100197 0.0284931 5.50402e-16)
(-0.00418915 0.0341118 -1.49782e-16)
(0.00235846 0.0403781 -4.40652e-16)
(0.00884129 0.0466203 -8.05599e-19)
(0.0144976 0.0520872 4.90956e-16)
(0.0222249 0.0592116 -3.95151e-16)
(0.016735 0.0563028 -1.32005e-16)
(0.0173888 0.0573183 2.79681e-16)