/*--------------------------------*- C++ -*----------------------------------*\
| =========                 |                                                 |
| \\      /  F ield         | OpenFOAM: The Open Source CFD Toolbox           |
|  \\    /   O peration     | Version:  2312                                  |
|   \\  /    A nd           | Website:  www.openfoam.com                      |
|    \\/     M anipulation  |                                                 |
\*---------------------------------------------------------------------------*/
FoamFile
{
    version     2.0;
    format      ascii;
    arch        "LSB;label=32;scalar=64";
    class       volScalarField;
    location    "850";
    object      nut;
}
// * * * * * * * * * * * * * * * * * * * * * * * * * * * * * * * * * * * * * //

dimensions      [0 2 -1 0 0 0 0];

internalField   nonuniform List<scalar> 
11040
(
3.78643e-05
5.48733e-05
1.55125e-05
4.84234e-05
0.000187989
0.000181276
0.000171618
0.000161534
0.000148922
0.000141121
0.000133031
0.000125963
0.00011957
0.000114513
0.000110148
0.000107729
0.000107339
0.00010898
0.000112178
0.000116703
0.000122629
0.000129748
0.000137776
0.000146514
0.000156081
0.000167446
0.000180447
0.000193204
0.000205177
0.000215786
0.000224409
0.000230433
0.0002347
0.000241751
0.000261214
0.000249788
0.000173305
0.000180543
0.00019942
0.000219272
0.000295149
4.19421e-06
3.68564e-05
5.60015e-05
0.00014267
0.000601027
0.000628457
0.000552225
0.000508746
0.000442491
0.00040717
0.000370562
0.000341934
0.000315078
0.000294719
0.000275651
0.000262243
0.000255428
0.000254515
0.000256793
0.000260894
0.000266932
0.00027494
0.000283309
0.000290877
0.000298638
0.00031416
0.000341827
0.000373916
0.00041007
0.00045039
0.000495052
0.000544421
0.000597737
0.000656706
0.000723521
0.000791308
0.000859879
0.000951073
0.00105941
0.00114762
0.00161314
5.53058e-06
9.42794e-06
3.01632e-05
6.49382e-05
0.000412203
0.000964341
0.00118673
0.00114766
0.0010048
0.000930523
0.000847861
0.000786564
0.000726841
0.000682946
0.000640892
0.000607312
0.000581647
0.00056199
0.000550495
0.000546187
0.000550455
0.000564325
0.000588513
0.000623865
0.000670442
0.000728039
0.000796425
0.000875085
0.000963697
0.00106172
0.00116806
0.00128198
0.00140305
0.0015319
0.00166958
0.00181619
0.00197827
0.00217816
0.00242131
0.00266157
0.00348731
6.48328e-06
5.16393e-06
1.06749e-05
1.12221e-05
0.000138611
0.000594609
0.00130318
0.00170793
0.00177886
0.00168958
0.00154603
0.00144549
0.00134082
0.00126337
0.001188
0.00112518
0.00107887
0.00104209
0.00102002
0.00101103
0.00101685
0.00104048
0.00108443
0.00114986
0.0012362
0.0013423
0.00146724
0.00160996
0.00176957
0.00194496
0.00213459
0.00233703
0.00255118
0.00277732
0.00301632
0.00327077
0.00355246
0.00389319
0.00431088
0.0047671
0.00593156
6.20212e-06
5.7689e-06
6.40279e-06
5.43455e-06
4.83859e-06
0.000176559
0.000707107
0.00155895
0.00225428
0.00246555
0.0024785
0.00237308
0.00220968
0.00209122
0.00197693
0.0018734
0.00180058
0.00174055
0.00170346
0.00168775
0.00169344
0.00172609
0.00179181
0.00189253
0.00202741
0.00219508
0.00239379
0.00262127
0.00287548
0.00315445
0.0034551
0.00377457
0.00411074
0.00446333
0.00483293
0.00522355
0.00565145
0.00616157
0.00678841
0.00751738
0.00898505
6.09447e-06
6.18767e-06
5.89215e-06
6.59932e-06
1.71503e-06
8.98404e-07
0.000171711
0.000728923
0.00171235
0.0027295
0.00320664
0.00337733
0.00336637
0.00325828
0.0030816
0.00291827
0.00281049
0.00271824
0.0026579
0.002632
0.002635
0.0026744
0.0027632
0.00290525
0.00309928
0.00334409
0.00363704
0.00397377
0.00434992
0.00476237
0.00520552
0.00567396
0.00616374
0.00667358
0.00720306
0.00775683
0.00835569
0.00905698
0.00992069
0.0109667
0.0127511
6.1049e-06
6.13722e-06
6.01436e-06
6.35001e-06
5.93763e-06
4.38983e-07
3.36297e-09
0.000118941
0.000657837
0.00170561
0.00300983
0.00395136
0.00433235
0.00447823
0.00447092
0.00437016
0.00422123
0.00406842
0.0039719
0.00393133
0.00392956
0.00397139
0.00408175
0.00426911
0.0045313
0.00486816
0.00527674
0.00574991
0.00627829
0.00685763
0.00747854
0.00813105
0.00880805
0.00950662
0.0102241
0.0109643
0.0117518
0.012655
0.0137681
0.0151541
0.0172989
6.11448e-06
6.11191e-06
6.13195e-06
6.04895e-06
6.56108e-06
6.0609e-06
2.0357e-08
2.64414e-11
5.14219e-05
0.000510755
0.00151806
0.00301833
0.0044876
0.00530719
0.00567635
0.0058231
0.00585027
0.00580048
0.00573071
0.0056727
0.00566845
0.00572376
0.00585871
0.00609595
0.00643295
0.00687356
0.00741722
0.00805557
0.008768
0.00954972
0.0103865
0.0112605
0.0121588
0.0130762
0.0140064
0.0149488
0.0159315
0.0170311
0.0183772
0.0200906
0.0226031
6.1127e-06
6.11635e-06
6.11205e-06
6.1318e-06
5.99706e-06
7.15548e-06
5.40379e-06
1.15987e-07
3.18211e-07
5.23495e-07
0.000313561
0.0011774
0.00270908
0.00459615
0.00612476
0.00689284
0.00729758
0.00750383
0.007628
0.00771092
0.00780883
0.00794851
0.00817238
0.00850978
0.00896167
0.00952807
0.0102167
0.0110325
0.011959
0.0129773
0.0140687
0.0152029
0.0163549
0.0175171
0.0186786
0.0198276
0.0209948
0.0222668
0.023784
0.0257559
0.0285788
6.11205e-06
6.11367e-06
6.11344e-06
6.11903e-06
6.09901e-06
6.0453e-06
7.34836e-06
4.92059e-06
4.80908e-07
1.44766e-08
2.33202e-05
0.00012458
0.000771455
0.00213775
0.00418736
0.00639644
0.00797912
0.00879904
0.00931796
0.00968486
0.0100226
0.0103758
0.0108067
0.0113606
0.0120575
0.0128981
0.013872
0.0149613
0.0161475
0.0174285
0.0188038
0.0202296
0.0216558
0.023072
0.0244697
0.0258106
0.0271224
0.0285085
0.030096
0.0321734
0.0351433
6.11083e-06
6.11183e-06
6.11317e-06
6.10911e-06
6.12639e-06
6.05532e-06
6.1766e-06
7.03871e-06
5.91542e-06
1.36646e-06
7.15867e-09
5.41786e-07
1.74217e-07
0.000367759
0.00140817
0.00330942
0.00586276
0.00840275
0.0101529
0.0111683
0.0119445
0.012628
0.0133512
0.0141982
0.0152233
0.0164455
0.0178612
0.0194523
0.0211841
0.0230082
0.0248605
0.0266664
0.0283799
0.0300359
0.0316678
0.0331681
0.0345382
0.0359473
0.0374808
0.0393915
0.0421855
6.10944e-06
6.11033e-06
6.11018e-06
6.11073e-06
6.10839e-06
6.11721e-06
6.06235e-06
6.16662e-06
6.7609e-06
6.60893e-06
2.9305e-06
2.71399e-09
1.13662e-09
2.54089e-05
9.60126e-05
0.000720784
0.00217947
0.00460342
0.00767573
0.0106592
0.0127964
0.0141832
0.0153642
0.0165723
0.0179509
0.0195656
0.0214336
0.0235524
0.0258892
0.0283888
0.030982
0.0335878
0.0361145
0.0384704
0.0405404
0.0421991
0.0434862
0.0448103
0.0461367
0.0476033
0.0497849
6.10814e-06
6.10862e-06
6.10851e-06
6.10834e-06
6.1082e-06
6.1077e-06
6.10901e-06
6.07816e-06
6.12761e-06
6.53053e-06
7.03472e-06
4.39128e-06
2.05051e-07
1.96233e-09
1.24029e-07
9.90576e-05
0.000220855
0.00110378
0.00295905
0.00589362
0.00956136
0.0131149
0.0157949
0.0177669
0.0196293
0.0216614
0.0239425
0.0265259
0.0293988
0.0325043
0.0357705
0.0391133
0.0424356
0.0456417
0.0486292
0.0512847
0.0535108
0.055232
0.0563394
0.0570883
0.0585227
6.10695e-06
6.10726e-06
6.10726e-06
6.10727e-06
6.10693e-06
6.10637e-06
6.10635e-06
6.1063e-06
6.08797e-06
6.09415e-06
6.32866e-06
7.08292e-06
5.96154e-06
1.58439e-06
3.34117e-10
6.93431e-11
1.33084e-06
0.000169755
0.000347843
0.00143087
0.00362187
0.00688562
0.0107743
0.0148103
0.0184771
0.021577
0.0244425
0.0274827
0.0308268
0.0344408
0.0382682
0.0422387
0.0462479
0.0501961
0.0539811
0.0575031
0.0606725
0.0634295
0.065705
0.0674699
0.0687712
6.1059e-06
6.10666e-06
6.1068e-06
6.10681e-06
6.10645e-06
6.10609e-06
6.10561e-06
6.10575e-06
6.1052e-06
6.09756e-06
6.07071e-06
6.20661e-06
6.82095e-06
6.77821e-06
4.44523e-06
2.89766e-07
3.04751e-09
1.02857e-12
5.7663e-06
0.000216121
0.00041218
0.00152938
0.00355091
0.00653349
0.0103219
0.0146767
0.0193262
0.0239703
0.0284131
0.0327197
0.0370871
0.0416127
0.0462407
0.0508618
0.0553682
0.0596614
0.0636631
0.067336
0.0706127
0.0734381
0.0758076
6.10504e-06
6.10633e-06
6.10637e-06
6.10615e-06
6.1057e-06
6.10528e-06
6.10495e-06
6.10464e-06
6.10459e-06
6.10476e-06
6.10156e-06
6.06969e-06
6.13852e-06
6.40914e-06
7.12541e-06
5.94035e-06
2.96553e-06
1.36016e-08
5.53077e-10
8.16446e-14
8.85862e-06
0.000190744
0.000242598
0.00101067
0.00246038
0.0047444
0.00787853
0.0118394
0.0165526
0.0219107
0.0277295
0.0337203
0.0395952
0.0452165
0.0505754
0.0556925
0.0605592
0.0651593
0.0694266
0.0732916
0.0767282
6.10428e-06
6.1056e-06
6.10548e-06
6.10493e-06
6.10444e-06
6.10405e-06
6.10376e-06
6.10353e-06
6.10341e-06
6.10312e-06
6.10433e-06
6.10071e-06
6.08681e-06
6.0753e-06
6.25091e-06
6.67476e-06
7.1303e-06
5.16083e-06
1.60297e-06
1.29121e-09
2.31633e-10
5.00769e-14
8.07196e-07
8.42613e-05
5.55067e-05
0.000347499
0.000987988
0.00224268
0.00417378
0.00687806
0.0104179
0.0148151
0.0200324
0.0259811
0.0324794
0.0392407
0.0459353
0.0523312
0.0582424
0.0635775
0.0683432
6.10332e-06
6.10438e-06
6.1041e-06
6.10362e-06
6.1032e-06
6.10291e-06
6.10271e-06
6.10259e-06
6.10244e-06
6.10233e-06
6.10218e-06
6.10295e-06
6.10213e-06
6.09367e-06
6.07107e-06
6.12224e-06
6.35452e-06
6.95751e-06
6.99591e-06
4.78475e-06
1.18196e-06
9.27583e-10
2.41317e-10
8.40115e-13
7.83082e-09
1.85501e-06
4.76681e-05
0.000181646
2.98587e-05
0.000348467
0.00104227
0.00221784
0.00397596
0.00643339
0.00964913
0.0136408
0.0183604
0.0237661
0.0297065
0.0359863
0.0423989
6.10212e-06
6.10282e-06
6.10237e-06
6.10179e-06
6.10133e-06
6.10103e-06
6.10084e-06
6.10076e-06
6.10073e-06
6.10077e-06
6.10072e-06
6.10078e-06
6.10098e-06
6.10221e-06
6.09651e-06
6.08528e-06
6.06741e-06
6.18136e-06
6.51009e-06
7.04492e-06
6.85534e-06
4.49925e-06
1.71906e-06
1.92907e-08
7.3895e-10
3.21353e-11
2.23864e-13
0
1.80114e-09
1.24962e-06
4.21993e-05
0.000147995
1.29886e-08
9.32893e-05
0.000396455
0.00109814
0.00220367
0.00380546
0.00595444
0.00867374
0.0120197
6.10084e-06
6.10123e-06
6.10068e-06
6.1001e-06
6.09968e-06
6.09942e-06
6.09929e-06
6.09925e-06
6.09926e-06
6.09931e-06
6.09939e-06
6.09948e-06
6.09954e-06
6.09983e-06
6.10031e-06
6.09984e-06
6.09042e-06
6.07376e-06
6.08074e-06
6.23347e-06
6.61643e-06
7.03641e-06
6.97679e-06
5.26963e-06
2.69105e-06
8.94403e-07
6.99735e-09
4.56105e-10
3.11568e-11
7.46438e-12
1.78683e-14
0
2.8616e-13
1.00892e-08
1.28132e-06
3.5722e-05
0.000123614
0.000232381
0.000373358
1.74238e-05
0.000390213
6.09949e-06
6.09966e-06
6.09911e-06
6.09862e-06
6.09832e-06
6.09818e-06
6.09816e-06
6.0982e-06
6.09828e-06
6.09837e-06
6.09848e-06
6.09859e-06
6.09871e-06
6.09879e-06
6.09898e-06
6.09942e-06
6.09997e-06
6.09651e-06
6.08311e-06
6.06692e-06
6.09308e-06
6.26542e-06
6.56555e-06
7.03394e-06
7.08751e-06
6.60652e-06
4.97956e-06
2.85352e-06
1.19369e-06
3.1985e-07
8.45141e-10
1.88388e-10
2.59486e-11
9.96373e-12
2.58735e-12
3.90493e-14
0
0
0
2.93872e-10
6.76474e-07
6.09813e-06
6.0982e-06
6.09777e-06
6.09747e-06
6.09736e-06
6.0974e-06
6.09752e-06
6.09767e-06
6.09783e-06
6.09798e-06
6.09813e-06
6.09826e-06
6.09838e-06
6.09848e-06
6.09858e-06
6.09866e-06
6.09899e-06
6.0996e-06
6.0992e-06
6.09356e-06
6.07721e-06
6.06807e-06
6.08721e-06
6.20925e-06
6.44609e-06
6.74335e-06
7.11823e-06
7.19111e-06
6.77228e-06
5.97696e-06
4.52829e-06
2.87519e-06
1.51949e-06
6.45694e-07
1.85084e-07
3.07168e-09
2.34422e-10
2.40407e-11
1.28617e-11
6.12826e-12
2.29192e-12
6.09681e-06
6.09692e-06
6.09673e-06
6.0967e-06
6.09685e-06
6.09708e-06
6.09736e-06
6.09762e-06
6.09787e-06
6.09809e-06
6.09828e-06
6.09844e-06
6.09858e-06
6.0987e-06
6.0988e-06
6.09887e-06
6.09893e-06
6.09907e-06
6.0995e-06
6.10008e-06
6.0987e-06
6.09191e-06
6.07892e-06
6.06501e-06
6.07539e-06
6.12398e-06
6.25031e-06
6.45813e-06
6.71446e-06
6.95812e-06
7.22428e-06
7.26402e-06
7.0143e-06
6.46302e-06
5.70586e-06
4.63209e-06
3.4305e-06
2.28812e-06
1.37508e-06
7.22991e-07
3.0159e-07
6.09559e-06
6.09589e-06
6.09604e-06
6.09633e-06
6.09672e-06
6.09715e-06
6.09756e-06
6.09793e-06
6.09826e-06
6.09854e-06
6.09878e-06
6.09898e-06
6.09915e-06
6.09929e-06
6.09941e-06
6.09951e-06
6.09958e-06
6.09963e-06
6.0997e-06
6.09988e-06
6.10045e-06
6.10069e-06
6.09954e-06
6.09416e-06
6.08413e-06
6.07225e-06
6.06406e-06
6.07241e-06
6.11257e-06
6.18668e-06
6.3119e-06
6.48467e-06
6.6858e-06
6.89388e-06
7.07719e-06
7.25819e-06
7.33688e-06
7.26173e-06
7.01744e-06
6.60772e-06
6.0947e-06
6.09454e-06
6.09517e-06
6.09569e-06
6.09628e-06
6.09688e-06
6.09745e-06
6.09797e-06
6.09842e-06
6.09881e-06
6.09915e-06
6.09944e-06
6.09968e-06
6.09989e-06
6.10007e-06
6.10022e-06
6.10035e-06
6.10046e-06
6.10055e-06
6.10062e-06
6.10065e-06
6.10076e-06
6.10102e-06
6.10148e-06
6.10188e-06
6.10123e-06
6.09867e-06
6.09299e-06
6.084e-06
6.0737e-06
6.0656e-06
6.06303e-06
6.07258e-06
6.09982e-06
6.14964e-06
6.22131e-06
6.31955e-06
6.44214e-06
6.58613e-06
6.74094e-06
6.89648e-06
7.03723e-06
6.0937e-06
6.09473e-06
6.09561e-06
6.09643e-06
6.09719e-06
6.09786e-06
6.09844e-06
6.09895e-06
6.0994e-06
6.09978e-06
6.10011e-06
6.1004e-06
6.10066e-06
6.10088e-06
6.10107e-06
6.10124e-06
6.10139e-06
6.10152e-06
6.10163e-06
6.10172e-06
6.10182e-06
6.1019e-06
6.10202e-06
6.10226e-06
6.10264e-06
6.10305e-06
6.10322e-06
6.1026e-06
6.10055e-06
6.09676e-06
6.09096e-06
6.08342e-06
6.07507e-06
6.06743e-06
6.06237e-06
6.06137e-06
6.0664e-06
6.08025e-06
6.10412e-06
6.14136e-06
6.18361e-06
6.09311e-06
6.09454e-06
6.0957e-06
6.09668e-06
6.09752e-06
6.09825e-06
6.09889e-06
6.09944e-06
6.09993e-06
6.10036e-06
6.10073e-06
6.10107e-06
6.10136e-06
6.10163e-06
6.10186e-06
6.10208e-06
6.10227e-06
6.10244e-06
6.1026e-06
6.10274e-06
6.10289e-06
6.10302e-06
6.10314e-06
6.10324e-06
6.10336e-06
6.10354e-06
6.10381e-06
6.10418e-06
6.10456e-06
6.10482e-06
6.10475e-06
6.1041e-06
6.10262e-06
6.10012e-06
6.09655e-06
6.09193e-06
6.08648e-06
6.08037e-06
6.07412e-06
6.06842e-06
6.06388e-06
6.09275e-06
6.09451e-06
6.09584e-06
6.09691e-06
6.09781e-06
6.09858e-06
6.09926e-06
6.09986e-06
6.10039e-06
6.10086e-06
6.10128e-06
6.10166e-06
6.102e-06
6.1023e-06
6.10258e-06
6.10284e-06
6.10307e-06
6.10329e-06
6.1035e-06
6.10368e-06
6.10388e-06
6.10406e-06
6.10422e-06
6.10437e-06
6.1045e-06
6.10462e-06
6.10474e-06
6.10488e-06
6.10506e-06
6.10529e-06
6.10558e-06
6.10592e-06
6.10626e-06
6.10655e-06
6.10671e-06
6.10666e-06
6.10631e-06
6.10555e-06
6.10438e-06
6.10254e-06
6.10076e-06
6.09259e-06
6.09455e-06
6.09596e-06
6.09708e-06
6.09801e-06
6.09882e-06
6.09954e-06
6.10018e-06
6.10076e-06
6.10128e-06
6.10175e-06
6.10217e-06
6.10256e-06
6.10291e-06
6.10323e-06
6.10353e-06
6.10381e-06
6.10407e-06
6.10432e-06
6.10454e-06
6.10478e-06
6.105e-06
6.1052e-06
6.10539e-06
6.10557e-06
6.10573e-06
6.10588e-06
6.10602e-06
6.10616e-06
6.10629e-06
6.10642e-06
6.10657e-06
6.10674e-06
6.10694e-06
6.10717e-06
6.10743e-06
6.10771e-06
6.108e-06
6.10828e-06
6.10853e-06
6.10875e-06
6.09254e-06
6.09457e-06
6.09601e-06
6.09716e-06
6.09813e-06
6.09898e-06
6.09974e-06
6.10043e-06
6.10105e-06
6.10162e-06
6.10213e-06
6.10261e-06
6.10304e-06
6.10344e-06
6.10381e-06
6.10415e-06
6.10447e-06
6.10477e-06
6.10506e-06
6.10533e-06
6.1056e-06
6.10586e-06
6.1061e-06
6.10633e-06
6.10654e-06
6.10674e-06
6.10693e-06
6.10711e-06
6.10727e-06
6.10743e-06
6.10759e-06
6.10773e-06
6.10787e-06
6.108e-06
6.10814e-06
6.10827e-06
6.10841e-06
6.10856e-06
6.10872e-06
6.10889e-06
6.10906e-06
6.09248e-06
6.09451e-06
6.09597e-06
6.09714e-06
6.09815e-06
6.09904e-06
6.09984e-06
6.10058e-06
6.10125e-06
6.10187e-06
6.10243e-06
6.10296e-06
6.10344e-06
6.10388e-06
6.1043e-06
6.10469e-06
6.10505e-06
6.1054e-06
6.10573e-06
6.10604e-06
6.10636e-06
6.10665e-06
6.10693e-06
6.10719e-06
6.10743e-06
6.10766e-06
6.10788e-06
6.10809e-06
6.10829e-06
6.10848e-06
6.10866e-06
6.10884e-06
6.109e-06
6.10916e-06
6.10932e-06
6.10946e-06
6.10961e-06
6.10974e-06
6.10988e-06
6.11e-06
6.11014e-06
6.09235e-06
6.09437e-06
6.09584e-06
6.09703e-06
6.09807e-06
6.099e-06
6.09984e-06
6.10063e-06
6.10135e-06
6.10202e-06
6.10264e-06
6.10322e-06
6.10375e-06
6.10425e-06
6.10472e-06
6.10515e-06
6.10557e-06
6.10596e-06
6.10633e-06
6.10668e-06
6.10704e-06
6.10737e-06
6.10768e-06
6.10797e-06
6.10825e-06
6.10851e-06
6.10876e-06
6.109e-06
6.10922e-06
6.10944e-06
6.10964e-06
6.10984e-06
6.11003e-06
6.11022e-06
6.1104e-06
6.11057e-06
6.11073e-06
6.11089e-06
6.11104e-06
6.11118e-06
6.11135e-06
6.09213e-06
6.09413e-06
6.09561e-06
6.09681e-06
6.09787e-06
6.09884e-06
6.09974e-06
6.10057e-06
6.10135e-06
6.10208e-06
6.10276e-06
6.1034e-06
6.10399e-06
6.10454e-06
6.10506e-06
6.10555e-06
6.10601e-06
6.10644e-06
6.10686e-06
6.10726e-06
6.10765e-06
6.10802e-06
6.10837e-06
6.1087e-06
6.109e-06
6.1093e-06
6.10957e-06
6.10984e-06
6.11009e-06
6.11033e-06
6.11056e-06
6.11078e-06
6.11099e-06
6.1112e-06
6.11139e-06
6.11158e-06
6.11176e-06
6.11194e-06
6.11211e-06
6.11227e-06
6.11244e-06
6.09183e-06
6.09379e-06
6.09525e-06
6.09647e-06
6.09756e-06
6.09857e-06
6.09952e-06
6.10041e-06
6.10126e-06
6.10205e-06
6.10279e-06
6.10349e-06
6.10414e-06
6.10475e-06
6.10533e-06
6.10587e-06
6.10638e-06
6.10687e-06
6.10733e-06
6.10777e-06
6.10821e-06
6.10862e-06
6.109e-06
6.10936e-06
6.1097e-06
6.11003e-06
6.11033e-06
6.11062e-06
6.1109e-06
6.11116e-06
6.11142e-06
6.11166e-06
6.11189e-06
6.11211e-06
6.11233e-06
6.11253e-06
6.11273e-06
6.11292e-06
6.11311e-06
6.11328e-06
6.11347e-06
6.09141e-06
6.09332e-06
6.09476e-06
6.09599e-06
6.09712e-06
6.09818e-06
6.09918e-06
6.10014e-06
6.10105e-06
6.10191e-06
6.10272e-06
6.10348e-06
6.1042e-06
6.10488e-06
6.10551e-06
6.10611e-06
6.10668e-06
6.10722e-06
6.10773e-06
6.10822e-06
6.1087e-06
6.10915e-06
6.10957e-06
6.10997e-06
6.11034e-06
6.1107e-06
6.11104e-06
6.11135e-06
6.11166e-06
6.11195e-06
6.11222e-06
6.11249e-06
6.11274e-06
6.11298e-06
6.11321e-06
6.11343e-06
6.11365e-06
6.11385e-06
6.11406e-06
6.11424e-06
6.11444e-06
6.09087e-06
6.09272e-06
6.09414e-06
6.09538e-06
6.09654e-06
6.09765e-06
6.09872e-06
6.09974e-06
6.10072e-06
6.10165e-06
6.10253e-06
6.10336e-06
6.10415e-06
6.10489e-06
6.10559e-06
6.10625e-06
6.10688e-06
6.10748e-06
6.10804e-06
6.10858e-06
6.10911e-06
6.10961e-06
6.11007e-06
6.11051e-06
6.11092e-06
6.11131e-06
6.11167e-06
6.11202e-06
6.11235e-06
6.11267e-06
6.11297e-06
6.11325e-06
6.11352e-06
6.11379e-06
6.11404e-06
6.11428e-06
6.11451e-06
6.11473e-06
6.11494e-06
6.11514e-06
6.11535e-06
6.09019e-06
6.09197e-06
6.09337e-06
6.09462e-06
6.09582e-06
6.09698e-06
6.0981e-06
6.09919e-06
6.10023e-06
6.10123e-06
6.10218e-06
6.10309e-06
6.10395e-06
6.10476e-06
6.10553e-06
6.10626e-06
6.10695e-06
6.1076e-06
6.10823e-06
6.10882e-06
6.1094e-06
6.10994e-06
6.11045e-06
6.11093e-06
6.11138e-06
6.11181e-06
6.11221e-06
6.11259e-06
6.11295e-06
6.11329e-06
6.11361e-06
6.11392e-06
6.11422e-06
6.1145e-06
6.11477e-06
6.11502e-06
6.11527e-06
6.11551e-06
6.11574e-06
6.11595e-06
6.11618e-06
6.08936e-06
6.09106e-06
6.09244e-06
6.09371e-06
6.09493e-06
6.09613e-06
6.09731e-06
6.09845e-06
6.09955e-06
6.10061e-06
6.10163e-06
6.10261e-06
6.10354e-06
6.10442e-06
6.10526e-06
6.10606e-06
6.10682e-06
6.10754e-06
6.10823e-06
6.10888e-06
6.10951e-06
6.11011e-06
6.11067e-06
6.11119e-06
6.11168e-06
6.11215e-06
6.11259e-06
6.113e-06
6.11339e-06
6.11376e-06
6.11411e-06
6.11444e-06
6.11476e-06
6.11506e-06
6.11535e-06
6.11562e-06
6.11588e-06
6.11613e-06
6.11637e-06
6.1166e-06
6.11684e-06
6.08836e-06
6.08998e-06
6.09133e-06
6.09261e-06
6.09386e-06
6.09508e-06
6.09629e-06
6.09747e-06
6.09862e-06
6.09974e-06
6.10082e-06
6.10186e-06
6.10286e-06
6.10382e-06
6.10473e-06
6.1056e-06
6.10643e-06
6.10722e-06
6.10797e-06
6.10868e-06
6.10937e-06
6.11002e-06
6.11063e-06
6.1112e-06
6.11174e-06
6.11224e-06
6.11272e-06
6.11317e-06
6.11359e-06
6.11399e-06
6.11437e-06
6.11473e-06
6.11507e-06
6.11539e-06
6.1157e-06
6.11599e-06
6.11627e-06
6.11654e-06
6.11679e-06
6.11703e-06
6.11728e-06
6.08719e-06
6.08872e-06
6.09004e-06
6.0913e-06
6.09255e-06
6.09378e-06
6.095e-06
6.0962e-06
6.09739e-06
6.09855e-06
6.09969e-06
6.10079e-06
6.10186e-06
6.10288e-06
6.10387e-06
6.10481e-06
6.1057e-06
6.10656e-06
6.10738e-06
6.10816e-06
6.1089e-06
6.10961e-06
6.11027e-06
6.11089e-06
6.11148e-06
6.11203e-06
6.11254e-06
6.11303e-06
6.11348e-06
6.11391e-06
6.11432e-06
6.1147e-06
6.11506e-06
6.1154e-06
6.11573e-06
6.11603e-06
6.11632e-06
6.1166e-06
6.11686e-06
6.11711e-06
6.11736e-06
6.08582e-06
6.08726e-06
6.08853e-06
6.08976e-06
6.09097e-06
6.09218e-06
6.09339e-06
6.0946e-06
6.09581e-06
6.09701e-06
6.09819e-06
6.09935e-06
6.10047e-06
6.10156e-06
6.10261e-06
6.10362e-06
6.10459e-06
6.10551e-06
6.10639e-06
6.10723e-06
6.10804e-06
6.1088e-06
6.10951e-06
6.11018e-06
6.11081e-06
6.1114e-06
6.11195e-06
6.11247e-06
6.11296e-06
6.11342e-06
6.11385e-06
6.11426e-06
6.11465e-06
6.11501e-06
6.11535e-06
6.11568e-06
6.11599e-06
6.11628e-06
6.11656e-06
6.11682e-06
6.11708e-06
6.08424e-06
6.08558e-06
6.08678e-06
6.08794e-06
6.08909e-06
6.09025e-06
6.09143e-06
6.09263e-06
6.09385e-06
6.09507e-06
6.09628e-06
6.09749e-06
6.09866e-06
6.09981e-06
6.10092e-06
6.102e-06
6.10303e-06
6.10402e-06
6.10496e-06
6.10586e-06
6.10672e-06
6.10754e-06
6.10831e-06
6.10902e-06
6.1097e-06
6.11033e-06
6.11093e-06
6.11149e-06
6.11201e-06
6.1125e-06
6.11295e-06
6.11338e-06
6.11379e-06
6.11416e-06
6.11452e-06
6.11485e-06
6.11517e-06
6.11546e-06
6.11574e-06
6.11599e-06
6.11625e-06
6.08244e-06
6.08366e-06
6.08475e-06
6.0858e-06
6.08687e-06
6.08796e-06
6.0891e-06
6.09027e-06
6.09148e-06
6.0927e-06
6.09394e-06
6.09517e-06
6.09639e-06
6.09758e-06
6.09875e-06
6.09988e-06
6.10097e-06
6.10202e-06
6.10302e-06
6.10397e-06
6.10488e-06
6.10574e-06
6.10655e-06
6.10731e-06
6.10803e-06
6.10869e-06
6.10932e-06
6.10991e-06
6.11046e-06
6.11097e-06
6.11146e-06
6.11191e-06
6.11234e-06
6.11274e-06
6.11311e-06
6.11347e-06
6.1138e-06
6.11411e-06
6.11441e-06
6.11469e-06
6.11496e-06
6.0804e-06
6.08146e-06
6.08241e-06
6.08334e-06
6.08429e-06
6.0853e-06
6.08637e-06
6.08749e-06
6.08866e-06
6.08987e-06
6.09109e-06
6.09233e-06
6.09356e-06
6.09478e-06
6.09598e-06
6.09715e-06
6.09829e-06
6.09938e-06
6.10044e-06
6.10145e-06
6.10242e-06
6.10334e-06
6.10421e-06
6.10502e-06
6.10579e-06
6.10651e-06
6.10719e-06
6.10782e-06
6.10841e-06
6.10895e-06
6.10946e-06
6.10994e-06
6.11038e-06
6.11079e-06
6.11118e-06
6.11153e-06
6.11186e-06
6.11217e-06
6.11246e-06
6.11272e-06
6.11296e-06
6.07809e-06
6.07897e-06
6.07974e-06
6.08052e-06
6.08135e-06
6.08225e-06
6.08323e-06
6.08427e-06
6.08536e-06
6.0865e-06
6.08768e-06
6.08888e-06
6.09009e-06
6.0913e-06
6.09251e-06
6.09371e-06
6.09487e-06
6.096e-06
6.09709e-06
6.09813e-06
6.09912e-06
6.10006e-06
6.10095e-06
6.10179e-06
6.10257e-06
6.10331e-06
6.104e-06
6.10465e-06
6.10525e-06
6.10582e-06
6.10635e-06
6.10684e-06
6.10731e-06
6.10774e-06
6.10814e-06
6.10852e-06
6.10888e-06
6.10921e-06
6.10952e-06
6.10982e-06
6.11009e-06
6.07549e-06
6.07615e-06
6.07673e-06
6.07735e-06
6.07804e-06
6.0788e-06
6.07963e-06
6.08053e-06
6.08149e-06
6.08251e-06
6.08357e-06
6.08468e-06
6.08581e-06
6.08695e-06
6.08809e-06
6.08922e-06
6.09034e-06
6.09145e-06
6.09255e-06
6.09362e-06
6.09466e-06
6.09567e-06
6.09663e-06
6.09754e-06
6.09841e-06
6.09922e-06
6.09999e-06
6.10071e-06
6.10138e-06
6.102e-06
6.10258e-06
6.10312e-06
6.10362e-06
6.10408e-06
6.10451e-06
6.1049e-06
6.10526e-06
6.10559e-06
6.1059e-06
6.10617e-06
6.10644e-06
6.07257e-06
6.07298e-06
6.07336e-06
6.07379e-06
6.07429e-06
6.07485e-06
6.07547e-06
6.07615e-06
6.07688e-06
6.07767e-06
6.07851e-06
6.07942e-06
6.08039e-06
6.08143e-06
6.08257e-06
6.08376e-06
6.08496e-06
6.08614e-06
6.08728e-06
6.08838e-06
6.08943e-06
6.09043e-06
6.09137e-06
6.09227e-06
6.09311e-06
6.09391e-06
6.09466e-06
6.09536e-06
6.09602e-06
6.09663e-06
6.09721e-06
6.09774e-06
6.09824e-06
6.0987e-06
6.09913e-06
6.09953e-06
6.0999e-06
6.10024e-06
6.10056e-06
6.10086e-06
6.10113e-06
6.06932e-06
6.06945e-06
6.0696e-06
6.06978e-06
6.06999e-06
6.07024e-06
6.07052e-06
6.07083e-06
6.07117e-06
6.07154e-06
6.07194e-06
6.07235e-06
6.07277e-06
6.0732e-06
6.07362e-06
6.07409e-06
6.07449e-06
6.07488e-06
6.07528e-06
6.07569e-06
6.07612e-06
6.07658e-06
6.07707e-06
6.07757e-06
6.07808e-06
6.0786e-06
6.07912e-06
6.07964e-06
6.08014e-06
6.08064e-06
6.08112e-06
6.08158e-06
6.08202e-06
6.08245e-06
6.08285e-06
6.08323e-06
6.08359e-06
6.08394e-06
6.08426e-06
6.08456e-06
6.08486e-06
0.00362189
0.00710398
0.0101755
0.0123098
0.0133313
0.0132407
0.0120909
0.00995362
0.00698279
0.00343914
0.000631225
0.000110257
5.14227e-09
1.22847e-06
7.4439e-06
6.4817e-06
5.97631e-06
6.09784e-06
6.11839e-06
6.10023e-06
6.10184e-06
6.10581e-06
6.10602e-06
6.10522e-06
6.10417e-06
6.10265e-06
6.10078e-06
6.09882e-06
6.09693e-06
6.09524e-06
6.09386e-06
6.09283e-06
6.09214e-06
6.09172e-06
6.09147e-06
6.09129e-06
6.09113e-06
6.09095e-06
6.09073e-06
6.09047e-06
6.09018e-06
6.08984e-06
6.08946e-06
6.08902e-06
6.08853e-06
6.08799e-06
6.08738e-06
6.08672e-06
6.08599e-06
6.08521e-06
6.08437e-06
6.08345e-06
6.08245e-06
6.08136e-06
6.08018e-06
6.07891e-06
6.07755e-06
6.07608e-06
6.07455e-06
6.07305e-06
6.07183e-06
6.07115e-06
6.07121e-06
6.07205e-06
6.07359e-06
6.07568e-06
6.07818e-06
6.08102e-06
6.08414e-06
6.08755e-06
6.09115e-06
6.09534e-06
6.09871e-06
6.10713e-06
0.00620746
0.0108384
0.0144236
0.0167133
0.0177653
0.0176778
0.0165374
0.0144246
0.0114494
0.0076728
0.00347012
0.00054578
9.59127e-05
6.45929e-09
9.89617e-07
7.53667e-06
6.59295e-06
5.88217e-06
6.05229e-06
6.131e-06
6.11041e-06
6.10296e-06
6.10628e-06
6.10643e-06
6.10458e-06
6.10295e-06
6.10132e-06
6.09937e-06
6.09735e-06
6.09553e-06
6.09406e-06
6.09296e-06
6.0922e-06
6.09173e-06
6.09145e-06
6.09127e-06
6.09111e-06
6.09094e-06
6.09072e-06
6.09047e-06
6.09018e-06
6.08985e-06
6.08947e-06
6.08904e-06
6.08855e-06
6.08802e-06
6.08742e-06
6.08677e-06
6.08606e-06
6.08529e-06
6.08447e-06
6.08357e-06
6.08259e-06
6.08152e-06
6.08036e-06
6.07911e-06
6.07776e-06
6.07631e-06
6.07479e-06
6.07328e-06
6.07201e-06
6.07125e-06
6.07122e-06
6.07197e-06
6.07342e-06
6.07545e-06
6.0779e-06
6.0807e-06
6.08378e-06
6.08716e-06
6.09073e-06
6.0949e-06
6.09823e-06
6.10657e-06
0.00867861
0.0147287
0.0190306
0.021583
0.0227292
0.0226853
0.0215767
0.0194979
0.0165528
0.0128034
0.00828672
0.00354441
0.000498526
0.000102564
4.77161e-09
3.71649e-07
7.74137e-06
7.426e-06
5.97321e-06
5.97018e-06
6.12177e-06
6.11989e-06
6.10123e-06
6.10352e-06
6.10656e-06
6.10457e-06
6.10167e-06
6.09959e-06
6.09781e-06
6.09599e-06
6.09435e-06
6.09309e-06
6.09225e-06
6.09174e-06
6.09143e-06
6.09124e-06
6.09108e-06
6.09091e-06
6.09071e-06
6.09047e-06
6.09018e-06
6.08985e-06
6.08948e-06
6.08906e-06
6.08858e-06
6.08806e-06
6.08747e-06
6.08683e-06
6.08614e-06
6.08538e-06
6.08458e-06
6.0837e-06
6.08274e-06
6.08169e-06
6.08055e-06
6.07932e-06
6.07799e-06
6.07656e-06
6.07504e-06
6.07352e-06
6.07221e-06
6.07137e-06
6.07123e-06
6.07187e-06
6.07324e-06
6.07519e-06
6.07759e-06
6.08035e-06
6.08339e-06
6.08674e-06
6.09029e-06
6.09442e-06
6.09773e-06
6.10597e-06
0.0111158
0.018807
0.0239674
0.0269018
0.0282334
0.0282979
0.0272657
0.0252476
0.0223469
0.0186466
0.0141751
0.00897755
0.0037683
0.00053061
0.000143121
1.41357e-09
8.58141e-09
5.32921e-06
7.91922e-06
6.25621e-06
5.91868e-06
6.10536e-06
6.14947e-06
6.11049e-06
6.09658e-06
6.10205e-06
6.10436e-06
6.10147e-06
6.09815e-06
6.09606e-06
6.09464e-06
6.0934e-06
6.0924e-06
6.09175e-06
6.09139e-06
6.0912e-06
6.09106e-06
6.0909e-06
6.0907e-06
6.09046e-06
6.09019e-06
6.08987e-06
6.0895e-06
6.08909e-06
6.08863e-06
6.08811e-06
6.08754e-06
6.08691e-06
6.08623e-06
6.08549e-06
6.0847e-06
6.08384e-06
6.0829e-06
6.08187e-06
6.08075e-06
6.07953e-06
6.07822e-06
6.07681e-06
6.0753e-06
6.07378e-06
6.07243e-06
6.07151e-06
6.07125e-06
6.07178e-06
6.07304e-06
6.07492e-06
6.07726e-06
6.07997e-06
6.08298e-06
6.08629e-06
6.08981e-06
6.09391e-06
6.09719e-06
6.10534e-06
0.0136959
0.0231326
0.0291867
0.0326115
0.0342403
0.034504
0.0336197
0.0317177
0.0289034
0.0252694
0.0208787
0.0157358
0.00992852
0.0042572
0.000696911
0.000239153
2.41866e-11
2.94638e-08
3.58846e-06
8.3733e-06
6.66496e-06
5.77127e-06
5.95367e-06
6.15202e-06
6.14875e-06
6.10402e-06
6.09318e-06
6.09896e-06
6.10098e-06
6.09806e-06
6.09485e-06
6.09317e-06
6.09246e-06
6.09197e-06
6.09154e-06
6.09121e-06
6.09101e-06
6.09086e-06
6.09069e-06
6.09048e-06
6.09021e-06
6.08989e-06
6.08954e-06
6.08914e-06
6.08869e-06
6.08818e-06
6.08762e-06
6.08701e-06
6.08634e-06
6.08562e-06
6.08484e-06
6.08399e-06
6.08307e-06
6.08206e-06
6.08096e-06
6.07976e-06
6.07847e-06
6.07708e-06
6.07558e-06
6.07405e-06
6.07266e-06
6.07166e-06
6.07129e-06
6.07168e-06
6.07283e-06
6.07462e-06
6.0769e-06
6.07956e-06
6.08253e-06
6.08581e-06
6.08929e-06
6.09336e-06
6.09662e-06
6.10466e-06
0.0171433
0.0277696
0.0346257
0.0386238
0.0406663
0.041239
0.0405988
0.0388965
0.0362424
0.0327312
0.0284436
0.0234246
0.0176769
0.0113148
0.0051439
0.00112252
0.000391822
0
1.70884e-08
1.10777e-06
8.55307e-06
8.49846e-06
6.21604e-06
5.75032e-06
6.01042e-06
6.16407e-06
6.14315e-06
6.09947e-06
6.08927e-06
6.09505e-06
6.09781e-06
6.09553e-06
6.09258e-06
6.09124e-06
6.09112e-06
6.09124e-06
6.09117e-06
6.09094e-06
6.09069e-06
6.09046e-06
6.09022e-06
6.08993e-06
6.0896e-06
6.08921e-06
6.08877e-06
6.08827e-06
6.08773e-06
6.08713e-06
6.08648e-06
6.08577e-06
6.085e-06
6.08416e-06
6.08325e-06
6.08226e-06
6.08118e-06
6.08e-06
6.07873e-06
6.07735e-06
6.07588e-06
6.07435e-06
6.07292e-06
6.07183e-06
6.07133e-06
6.07159e-06
6.07262e-06
6.07431e-06
6.07651e-06
6.07912e-06
6.08205e-06
6.08529e-06
6.08874e-06
6.09277e-06
6.09601e-06
6.10394e-06
0.0218642
0.0327317
0.040222
0.0448305
0.0473846
0.0483804
0.0480976
0.0467032
0.0443121
0.0410184
0.0369061
0.0320441
0.0264701
0.0201883
0.0133145
0.00662633
0.00181909
0.000692013
1.3367e-05
3.09553e-09
2.82722e-10
3.21092e-06
8.88303e-06
7.50378e-06
5.9485e-06
5.77512e-06
6.04014e-06
6.16748e-06
6.14134e-06
6.09596e-06
6.08362e-06
6.09024e-06
6.09575e-06
6.09527e-06
6.09248e-06
6.0907e-06
6.09042e-06
6.09072e-06
6.09085e-06
6.09068e-06
6.09034e-06
6.08998e-06
6.08963e-06
6.08927e-06
6.08887e-06
6.08839e-06
6.08786e-06
6.08727e-06
6.08663e-06
6.08593e-06
6.08518e-06
6.08435e-06
6.08346e-06
6.08248e-06
6.08141e-06
6.08025e-06
6.079e-06
6.07765e-06
6.07619e-06
6.07466e-06
6.07319e-06
6.07202e-06
6.0714e-06
6.07151e-06
6.0724e-06
6.07397e-06
6.0761e-06
6.07865e-06
6.08153e-06
6.08473e-06
6.08815e-06
6.09214e-06
6.09536e-06
6.10318e-06
0.027461
0.0379825
0.0459146
0.0511027
0.054227
0.0557457
0.0559374
0.0549744
0.0529727
0.0500225
0.0462039
0.0415906
0.0362444
0.0301991
0.0234577
0.0161384
0.00887324
0.00326388
0.00026581
0.000232897
5.73876e-08
1.26143e-08
3.26704e-07
5.90011e-06
8.72391e-06
7.02485e-06
5.82677e-06
5.75887e-06
6.03136e-06
6.16962e-06
6.14975e-06