/*--------------------------------*- C++ -*----------------------------------*\
| =========                 |                                                 |
| \\      /  F ield         | OpenFOAM: The Open Source CFD Toolbox           |
|  \\    /   O peration     | Version:  2312                                  |
|   \\  /    A nd           | Website:  www.openfoam.com                      |
|    \\/     M anipulation  |                                                 |
\*---------------------------------------------------------------------------*/
FoamFile
{
    version     2.0;
    format      ascii;
    arch        "LSB;label=32;scalar=64";
    class       volScalarField;
    location    "850";
    object      nuTilda;
}
// * * * * * * * * * * * * * * * * * * * * * * * * * * * * * * * * * * * * * //

dimensions      [0 2 -1 0 0 0 0];

internalField   nonuniform List<scalar> 
11040
(
7.28772e-05
8.58802e-05
5.29376e-05
8.10159e-05
0.000196815
0.00019064
0.000181834
0.000172748
0.000161561
0.00015475
0.000147783
0.000141782
0.000136424
0.000132237
0.000128659
0.000126691
0.000126374
0.000127707
0.000130319
0.000134045
0.000138979
0.000144985
0.000151857
0.000159449
0.000167886
0.000178061
0.000189881
0.000201639
0.000212798
0.000222772
0.000230931
0.000236656
0.000240722
0.000247461
0.000266172
0.000255169
0.000183365
0.000189969
0.000207418
0.000226065
0.000299097
3.61007e-05
7.20803e-05
8.67274e-05
0.000156096
0.000602013
0.000629359
0.000553391
0.000510118
0.000444297
0.000409296
0.000373116
0.000344917
0.000318566
0.000298678
0.000280139
0.000267165
0.000260594
0.000259715
0.000261909
0.000265863
0.000271696
0.00027945
0.000287573
0.000294935
0.000302499
0.000317667
0.000344811
0.000376425
0.000412167
0.000452135
0.000496499
0.000545621
0.000598734
0.000657533
0.000724203
0.000791878
0.000860363
0.000951468
0.00105973
0.00114789
0.00161328
3.89721e-05
4.5426e-05
6.6641e-05
9.34333e-05
0.000414278
0.000964725
0.00118699
0.00114793
0.00100515
0.000930936
0.000848358
0.000787141
0.000727517
0.000683711
0.00064176
0.000608277
0.000582699
0.000563116
0.000551669
0.000547379
0.000551629
0.000565442
0.000589541
0.000624781
0.000671235
0.000728712
0.000796988
0.000875552
0.000964082
0.00106204
0.00116832
0.0012822
0.00140323
0.00153205
0.00166971
0.0018163
0.00197836
0.00217824
0.00242137
0.00266162
0.00348734
4.0757e-05
3.82334e-05
4.71424e-05
4.786e-05
0.000152578
0.000595616
0.00130339
0.00170805
0.00177897
0.0016897
0.00154618
0.00144566
0.00134102
0.0012636
0.00118826
0.00112546
0.00107917
0.00104242
0.00102037
0.00101138
0.0010172
0.00104081
0.00108473
0.00115013
0.00123643
0.0013425
0.0014674
0.0016101
0.00176968
0.00194505
0.00213467
0.00233709
0.00255124
0.00277737
0.00301636
0.00327081
0.00355248
0.00389322
0.0043109
0.00476712
0.00593157
4.02484e-05
3.94356e-05
4.06129e-05
3.87817e-05
3.75493e-05
0.000186327
0.000707821
0.00155909
0.00225435
0.00246561
0.00247856
0.00237314
0.00220976
0.0020913
0.00197702
0.0018735
0.00180069
0.00174067
0.00170358
0.00168787
0.00169356
0.00172621
0.00179192
0.00189263
0.0020275
0.00219515
0.00239385
0.00262132
0.00287552
0.00315449
0.00345513
0.00377459
0.00411076
0.00446335
0.00483294
0.00522356
0.00565146
0.00616158
0.00678842
0.00751739
0.00898506
4.00498e-05
4.02219e-05
3.96707e-05
4.0963e-05
2.84294e-05
2.40407e-05
0.000181919
0.000729594
0.00171248
0.00272955
0.00320667
0.00337736
0.0033664
0.00325831
0.00308164
0.00291831
0.00281054
0.00271829
0.00265795
0.00263205
0.00263505
0.00267445
0.00276325
0.00290529
0.00309932
0.00334413
0.00363707
0.00397379
0.00434994
0.00476239
0.00520554
0.00567397
0.00616375
0.00667359
0.00720307
0.00775684
0.00835569
0.00905699
0.00992069
0.0109667
0.0127511
4.00692e-05
4.01289e-05
3.99007e-05
4.05177e-05
3.97566e-05
2.00199e-05
5.89097e-06
0.000135901
0.000658661
0.00170573
0.00300987
0.00395138
0.00433237
0.00447824
0.00447094
0.00437018
0.00422125
0.00406845
0.00397192
0.00393135
0.00392958
0.00397141
0.00408177
0.00426913
0.00453132
0.00486818
0.00527675
0.00574992
0.0062783
0.00685764
0.00747854
0.00813106
0.00880806
0.00950662
0.0102241
0.0109643
0.0117518
0.012655
0.0137681
0.0151541
0.0172989
4.00869e-05
4.00821e-05
4.01192e-05
3.99652e-05
4.08954e-05
3.99875e-05
9.24403e-06
1.75395e-06
8.32828e-05
0.000512116
0.00151822
0.00301837
0.00448762
0.00530721
0.00567636
0.00582311
0.00585028
0.00580049
0.00573072
0.00567271
0.00566846
0.00572377
0.00585872
0.00609596
0.00643295
0.00687357
0.00741723
0.00805557
0.008768
0.00954973
0.0103865
0.0112605
0.0121588
0.0130762
0.0140064
0.0149488
0.0159315
0.0170311
0.0183772
0.0200906
0.0226031
4.00836e-05
4.00904e-05
4.00824e-05
4.01189e-05
3.98683e-05
4.19203e-05
3.87202e-05
1.43031e-05
1.84506e-05
2.09373e-05
0.000317081
0.00117766
0.00270913
0.00459617
0.00612477
0.00689285
0.00729759
0.00750384
0.00762801
0.00771093
0.00780884
0.00794852
0.00817238
0.00850978
0.00896168
0.00952808
0.0102167
0.0110325
0.011959
0.0129773
0.0140687
0.0152029
0.0163549
0.0175171
0.0186786
0.0198276
0.0209948
0.0222668
0.023784
0.0257559
0.0285788
4.00824e-05
4.00854e-05
4.0085e-05
4.00953e-05
4.00583e-05
3.99584e-05
4.22417e-05
3.77244e-05
2.04898e-05
8.48781e-06
6.0679e-05
0.000140616
0.000772055
0.00213783
0.00418738
0.00639645
0.00797913
0.00879904
0.00931797
0.00968486
0.0100226
0.0103758
0.0108067
0.0113606
0.0120575
0.0128981
0.013872
0.0149613
0.0161476
0.0174285
0.0188038
0.0202296
0.0216558
0.023072
0.0244697
0.0258106
0.0271224
0.0285085
0.030096
0.0321734
0.0351433
4.00802e-05
4.0082e-05
4.00845e-05
4.0077e-05
4.0109e-05
3.99771e-05
4.02015e-05
4.17232e-05
3.97147e-05
2.67933e-05
7.11641e-06
2.11214e-05
1.58459e-05
0.000370351
0.00140835
0.00330946
0.00586277
0.00840276
0.0101529
0.0111683
0.0119445
0.012628
0.0133512
0.0141982
0.0152233
0.0164455
0.0178612
0.0194523
0.0211841
0.0230082
0.0248605
0.0266664
0.0283799
0.0300359
0.0316678
0.0331681
0.0345382
0.0359473
0.0374808
0.0393915
0.0421855
4.00776e-05
4.00792e-05
4.0079e-05
4.008e-05
4.00756e-05
4.0092e-05
3.99902e-05
4.01831e-05
4.12461e-05
4.09799e-05
3.27607e-05
5.5834e-06
4.49133e-06
6.25569e-05
0.000117303
0.00072147
0.00217955
0.00460343
0.00767574
0.0106592
0.0127964
0.0141832
0.0153642
0.0165723
0.0179509
0.0195656
0.0214336
0.0235524
0.0258892
0.0283888
0.030982
0.0335878
0.0361145
0.0384704
0.0405404
0.0421991
0.0434862
0.0448104
0.0461367
0.0476033
0.0497849
4.00752e-05
4.00761e-05
4.00759e-05
4.00755e-05
4.00753e-05
4.00744e-05
4.00768e-05
4.00196e-05
4.01112e-05
4.08412e-05
4.17164e-05
3.65582e-05
1.65107e-05
5.14847e-06
1.45464e-05
0.000119719
0.000227563
0.00110408
0.00295909
0.00589363
0.00956137
0.0131149
0.0157949
0.0177669
0.0196293
0.0216614
0.0239425
0.0265259
0.0293988
0.0325043
0.0357705
0.0391133
0.0424356
0.0456417
0.0486292
0.0512847
0.0535108
0.055232
0.0563394
0.0570883
0.0585227
4.0073e-05
4.00735e-05
4.00735e-05
4.00736e-05
4.00729e-05
4.00719e-05
4.00719e-05
4.00718e-05
4.00378e-05
4.00493e-05
4.04791e-05
4.17981e-05
3.98016e-05
2.78464e-05
3.30696e-06
2.23202e-06
2.66101e-05
0.000180147
0.000350728
0.00143105
0.0036219
0.00688563
0.0107743
0.0148103
0.0184771
0.021577
0.0244425
0.0274827
0.0308268
0.0344408
0.0382682
0.0422387
0.0462479
0.0501961
0.0539811
0.0575031
0.0606725
0.0634295
0.065705
0.0674699
0.0687712
4.0071e-05
4.00724e-05
4.00727e-05
4.00727e-05
4.0072e-05
4.00714e-05
4.00705e-05
4.00707e-05
4.00697e-05
4.00556e-05
4.00057e-05
4.02566e-05
4.13502e-05
4.12761e-05
3.66812e-05
1.80184e-05
5.74762e-06
7.78936e-07
3.94306e-05
0.000223088
0.000414256
0.00152953
0.00355094
0.0065335
0.0103219
0.0146767
0.0193262
0.0239703
0.0284131
0.0327197
0.0370871
0.0416127
0.0462407
0.0508618
0.0553682
0.0596614
0.0636631
0.067336
0.0706127
0.0734381
0.0758076
4.00694e-05
4.00718e-05
4.00719e-05
4.00715e-05
4.00707e-05
4.00699e-05
4.00693e-05
4.00687e-05
4.00686e-05
4.00689e-05
4.0063e-05
4.00038e-05
4.01314e-05
4.06243e-05
4.18697e-05
3.97617e-05
3.28652e-05
8.35638e-06
3.75108e-06
4.13452e-07
4.45992e-05
0.00019936
0.000248272
0.00101102
0.00246044
0.00474442
0.00787853
0.0118394
0.0165526
0.0219107
0.0277295
0.0337203
0.0395952
0.0452165
0.0505754
0.0556925
0.0605592
0.0651593
0.0694266
0.0732916
0.0767282
4.0068e-05
4.00705e-05
4.00702e-05
4.00692e-05
4.00683e-05
4.00676e-05
4.00671e-05
4.00666e-05
4.00664e-05
4.00659e-05
4.00681e-05
4.00614e-05
4.00356e-05
4.00143e-05
4.03377e-05
4.10957e-05
4.1878e-05
3.8227e-05
2.79313e-05
4.63686e-06
3.01753e-06
3.65892e-07
2.33885e-05
0.000108121
8.63559e-05
0.00035039
0.000988355
0.00224275
0.0041738
0.00687807
0.0104179
0.0148151
0.0200324
0.0259811
0.0324794
0.0392407
0.0459353
0.0523312
0.0582424
0.0635775
0.0683432
4.00662e-05
4.00682e-05
4.00677e-05
4.00668e-05
4.0066e-05
4.00655e-05
4.00651e-05
4.00649e-05
4.00646e-05
4.00644e-05
4.00641e-05
4.00656e-05
4.0064e-05
4.00484e-05
4.00064e-05
4.01013e-05
4.05258e-05
4.15849e-05
4.16504e-05
3.74332e-05
2.58039e-05
4.2688e-06
3.04859e-06
7.40506e-07
7.27801e-06
2.90203e-05
8.04429e-05
0.000190979
6.63859e-05
0.000351343
0.0010426
0.00221791
0.00397598
0.00643339
0.00964914
0.0136408
0.0183604
0.0237661
0.0297065
0.0359863
0.0423989
4.0064e-05
4.00653e-05
4.00645e-05
4.00634e-05
4.00626e-05
4.0062e-05
4.00617e-05
4.00615e-05
4.00615e-05
4.00615e-05
4.00614e-05
4.00615e-05
4.00619e-05
4.00642e-05
4.00536e-05
4.00328e-05
3.99996e-05
4.02103e-05
4.08048e-05
4.17337e-05
4.14096e-05
3.68033e-05
2.84469e-05
9.12033e-06
4.0329e-06
1.84158e-06
5.32034e-07
0
5.03929e-06
2.61787e-05
7.62578e-05
0.000160747
8.26048e-06
0.000115155
0.000398694
0.00109844
0.00220375
0.00380548
0.00595445
0.00867375
0.0120197
4.00616e-05
4.00624e-05
4.00614e-05
4.00603e-05
4.00595e-05
4.0059e-05
4.00588e-05
4.00587e-05
4.00587e-05
4.00588e-05
4.0059e-05
4.00591e-05
4.00592e-05
4.00598e-05
4.00607e-05
4.00598e-05
4.00423e-05
4.00114e-05
4.00244e-05
4.03058e-05
4.09932e-05
4.17193e-05
4.16179e-05
3.84497e-05
3.20224e-05
2.40131e-05
7.07595e-06
3.57457e-06
1.8274e-06
1.27848e-06
2.8279e-07
0
5.65713e-07
7.75443e-06
2.63494e-05
7.11774e-05
0.000139805
0.000238511
0.000375874
5.49693e-05
0.000392522
4.00592e-05
4.00595e-05
4.00585e-05
4.00575e-05
4.0057e-05
4.00567e-05
4.00567e-05
4.00568e-05
4.00569e-05
4.00571e-05
4.00573e-05
4.00575e-05
4.00577e-05
4.00578e-05
4.00582e-05
4.0059e-05
4.006e-05
4.00536e-05
4.00288e-05
3.99987e-05
4.00473e-05
4.03641e-05
4.09033e-05
4.17151e-05
4.18058e-05
4.09757e-05
3.78492e-05
3.2528e-05
2.587e-05
1.84747e-05
4.17059e-06
2.86559e-06
1.74572e-06
1.3742e-06
9.80974e-07
3.43833e-07
0
0
0
3.20253e-06
2.23534e-05
4.00566e-05
4.00568e-05
4.0056e-05
4.00554e-05
4.00552e-05
4.00553e-05
4.00555e-05
4.00558e-05
4.00561e-05
4.00564e-05
4.00566e-05
4.00569e-05
4.00571e-05
4.00573e-05
4.00575e-05
4.00576e-05
4.00582e-05
4.00594e-05
4.00586e-05
4.00482e-05
4.00178e-05
4.00008e-05
4.00364e-05
4.02615e-05
4.06906e-05
4.12155e-05
4.18577e-05
4.19801e-05
4.12658e-05
3.98306e-05
3.68685e-05
3.25939e-05
2.75441e-05
2.20888e-05
1.60895e-05
5.75898e-06
3.02658e-06
1.7127e-06
1.46477e-06
1.21697e-06
9.51687e-07
4.00542e-05
4.00544e-05
4.0054e-05
4.0054e-05
4.00543e-05
4.00547e-05
4.00552e-05
4.00557e-05
4.00561e-05
4.00566e-05
4.00569e-05
4.00572e-05
4.00575e-05
4.00577e-05
4.00579e-05
4.0058e-05
4.00581e-05
4.00584e-05
4.00592e-05
4.00602e-05
4.00577e-05
4.00451e-05
4.0021e-05
3.99951e-05
4.00144e-05
4.01045e-05
4.03366e-05
4.07121e-05
4.11651e-05
4.1586e-05
4.20355e-05
4.21018e-05
4.16817e-05
4.07208e-05
3.93142e-05
3.70995e-05
3.41796e-05
3.06712e-05
2.68372e-05
2.27371e-05
1.82017e-05
4.00519e-05
4.00525e-05
4.00528e-05
4.00533e-05
4.0054e-05
4.00548e-05
4.00556e-05
4.00563e-05
4.00569e-05
4.00574e-05
4.00578e-05
4.00582e-05
4.00585e-05
4.00588e-05
4.0059e-05
4.00592e-05
4.00593e-05
4.00594e-05
4.00595e-05
4.00599e-05
4.00609e-05
4.00614e-05
4.00592e-05
4.00493e-05
4.00307e-05
4.00086e-05
3.99934e-05
4.00089e-05
4.00834e-05
4.022e-05
4.04487e-05
4.07595e-05
4.1115e-05
4.14759e-05
4.17884e-05
4.20921e-05
4.22227e-05
4.2098e-05
4.16871e-05
4.09778e-05
4.00503e-05
4.005e-05
4.00511e-05
4.00521e-05
4.00532e-05
4.00543e-05
4.00554e-05
4.00563e-05
4.00572e-05
4.00579e-05
4.00585e-05
4.00591e-05
4.00595e-05
4.00599e-05
4.00602e-05
4.00605e-05
4.00607e-05
4.00609e-05
4.00611e-05
4.00612e-05
4.00613e-05
4.00615e-05
4.0062e-05
4.00628e-05
4.00636e-05
4.00624e-05
4.00576e-05
4.00471e-05
4.00304e-05
4.00113e-05
3.99962e-05
3.99914e-05
4.00092e-05
4.00598e-05
4.01519e-05
4.02836e-05
4.04625e-05
4.06835e-05
4.09397e-05
4.12113e-05
4.14804e-05
4.17207e-05
4.00484e-05
4.00503e-05
4.0052e-05
4.00535e-05
4.00549e-05
4.00561e-05
4.00572e-05
4.00582e-05
4.0059e-05
4.00597e-05
4.00603e-05
4.00608e-05
4.00613e-05
4.00617e-05
4.00621e-05
4.00624e-05
4.00627e-05
4.00629e-05
4.00631e-05
4.00633e-05
4.00635e-05
4.00636e-05
4.00638e-05
4.00643e-05
4.0065e-05
4.00658e-05
4.00661e-05
4.00649e-05
4.00611e-05
4.00541e-05
4.00433e-05
4.00293e-05
4.00138e-05
3.99996e-05
3.99902e-05
3.99884e-05
3.99977e-05
4.00235e-05
4.00677e-05
4.01366e-05
4.02144e-05
4.00473e-05
4.005e-05
4.00521e-05
4.00539e-05
4.00555e-05
4.00569e-05
4.0058e-05
4.00591e-05
4.006e-05
4.00608e-05
4.00615e-05
4.00621e-05
4.00626e-05
4.00631e-05
4.00635e-05
4.00639e-05
4.00643e-05
4.00646e-05
4.00649e-05
4.00652e-05
4.00655e-05
4.00657e-05
4.00659e-05
4.00661e-05
4.00663e-05
4.00667e-05
4.00672e-05
4.00678e-05
4.00686e-05
4.0069e-05
4.00689e-05
4.00677e-05
4.0065e-05
4.00603e-05
4.00537e-05
4.00451e-05
4.0035e-05
4.00237e-05
4.00121e-05
4.00015e-05
3.9993e-05
4.00467e-05
4.00499e-05
4.00524e-05
4.00544e-05
4.0056e-05
4.00575e-05
4.00587e-05
4.00598e-05
4.00608e-05
4.00617e-05
4.00625e-05
4.00632e-05
4.00638e-05
4.00644e-05
4.00649e-05
4.00654e-05
4.00658e-05
4.00662e-05
4.00666e-05
4.00669e-05
4.00673e-05
4.00676e-05
4.00679e-05
4.00682e-05
4.00684e-05
4.00687e-05
4.00689e-05
4.00691e-05
4.00695e-05
4.00699e-05
4.00704e-05
4.00711e-05
4.00717e-05
4.00722e-05
4.00725e-05
4.00724e-05
4.00718e-05
4.00704e-05
4.00682e-05
4.00648e-05
4.00615e-05
4.00464e-05
4.005e-05
4.00526e-05
4.00547e-05
4.00564e-05
4.00579e-05
4.00592e-05
4.00604e-05
4.00615e-05
4.00625e-05
4.00633e-05
4.00641e-05
4.00648e-05
4.00655e-05
4.00661e-05
4.00666e-05
4.00672e-05
4.00676e-05
4.00681e-05
4.00685e-05
4.0069e-05
4.00694e-05
4.00697e-05
4.00701e-05
4.00704e-05
4.00707e-05
4.0071e-05
4.00713e-05
4.00715e-05
4.00717e-05
4.0072e-05
4.00723e-05
4.00726e-05
4.0073e-05
4.00734e-05
4.00739e-05
4.00744e-05
4.00749e-05
4.00754e-05
4.00759e-05
4.00763e-05
4.00463e-05
4.005e-05
4.00527e-05
4.00548e-05
4.00566e-05
4.00582e-05
4.00596e-05
4.00609e-05
4.0062e-05
4.00631e-05
4.00641e-05
4.00649e-05
4.00657e-05
4.00665e-05
4.00671e-05
4.00678e-05
4.00684e-05
4.00689e-05
4.00695e-05
4.007e-05
4.00705e-05
4.0071e-05
4.00714e-05
4.00718e-05
4.00722e-05
4.00726e-05
4.00729e-05
4.00733e-05
4.00736e-05
4.00739e-05
4.00742e-05
4.00744e-05
4.00747e-05
4.00749e-05
4.00752e-05
4.00754e-05
4.00757e-05
4.0076e-05
4.00763e-05
4.00766e-05
4.00769e-05
4.00462e-05
4.00499e-05
4.00526e-05
4.00548e-05
4.00567e-05
4.00583e-05
4.00598e-05
4.00612e-05
4.00624e-05
4.00636e-05
4.00646e-05
4.00656e-05
4.00665e-05
4.00673e-05
4.00681e-05
4.00688e-05
4.00695e-05
4.00701e-05
4.00707e-05
4.00713e-05
4.00719e-05
4.00724e-05
4.00729e-05
4.00734e-05
4.00739e-05
4.00743e-05
4.00747e-05
4.00751e-05
4.00755e-05
4.00758e-05
4.00761e-05
4.00765e-05
4.00768e-05
4.00771e-05
4.00774e-05
4.00776e-05
4.00779e-05
4.00781e-05
4.00784e-05
4.00786e-05
4.00789e-05
4.00459e-05
4.00497e-05
4.00524e-05
4.00546e-05
4.00565e-05
4.00582e-05
4.00598e-05
4.00613e-05
4.00626e-05
4.00638e-05
4.0065e-05
4.00661e-05
4.00671e-05
4.0068e-05
4.00688e-05
4.00696e-05
4.00704e-05
4.00711e-05
4.00718e-05
4.00725e-05
4.00731e-05
4.00737e-05
4.00743e-05
4.00749e-05
4.00754e-05
4.00759e-05
4.00763e-05
4.00768e-05
4.00772e-05
4.00776e-05
4.0078e-05
4.00783e-05
4.00787e-05
4.0079e-05
4.00794e-05
4.00797e-05
4.008e-05
4.00803e-05
4.00806e-05
4.00808e-05
4.00811e-05
4.00455e-05
4.00492e-05
4.0052e-05
4.00542e-05
4.00562e-05
4.00579e-05
4.00596e-05
4.00612e-05
4.00626e-05
4.0064e-05
4.00652e-05
4.00664e-05
4.00675e-05
4.00685e-05
4.00695e-05
4.00704e-05
4.00712e-05
4.0072e-05
4.00728e-05
4.00735e-05
4.00743e-05
4.0075e-05
4.00756e-05
4.00762e-05
4.00768e-05
4.00773e-05
4.00778e-05
4.00783e-05
4.00788e-05
4.00792e-05
4.00797e-05
4.00801e-05
4.00805e-05
4.00808e-05
4.00812e-05
4.00815e-05
4.00819e-05
4.00822e-05
4.00825e-05
4.00828e-05
4.00831e-05
4.00449e-05
4.00486e-05
4.00513e-05
4.00535e-05
4.00556e-05
4.00574e-05
4.00592e-05
4.00609e-05
4.00624e-05
4.00639e-05
4.00653e-05
4.00666e-05
4.00678e-05
4.00689e-05
4.007e-05
4.0071e-05
4.00719e-05
4.00728e-05
4.00737e-05
4.00745e-05
4.00753e-05
4.00761e-05
4.00768e-05
4.00774e-05
4.00781e-05
4.00787e-05
4.00792e-05
4.00798e-05
4.00803e-05
4.00808e-05
4.00812e-05
4.00817e-05
4.00821e-05
4.00825e-05
4.00829e-05
4.00833e-05
4.00837e-05
4.0084e-05
4.00844e-05
4.00847e-05
4.0085e-05
4.00442e-05
4.00477e-05
4.00504e-05
4.00527e-05
4.00548e-05
4.00567e-05
4.00586e-05
4.00604e-05
4.0062e-05
4.00636e-05
4.00651e-05
4.00666e-05
4.00679e-05
4.00691e-05
4.00703e-05
4.00714e-05
4.00725e-05
4.00735e-05
4.00744e-05
4.00753e-05
4.00762e-05
4.0077e-05
4.00778e-05
4.00786e-05
4.00793e-05
4.00799e-05
4.00805e-05
4.00811e-05
4.00817e-05
4.00822e-05
4.00827e-05
4.00832e-05
4.00837e-05
4.00841e-05
4.00846e-05
4.0085e-05
4.00854e-05
4.00858e-05
4.00861e-05
4.00865e-05
4.00868e-05
4.00432e-05
4.00466e-05
4.00492e-05
4.00515e-05
4.00537e-05
4.00557e-05
4.00577e-05
4.00596e-05
4.00614e-05
4.00631e-05
4.00648e-05
4.00663e-05
4.00678e-05
4.00692e-05
4.00705e-05
4.00717e-05
4.00728e-05
4.00739e-05
4.0075e-05
4.0076e-05
4.0077e-05
4.00779e-05
4.00787e-05
4.00796e-05
4.00803e-05
4.0081e-05
4.00817e-05
4.00824e-05
4.0083e-05
4.00836e-05
4.00841e-05
4.00846e-05
4.00851e-05
4.00856e-05
4.00861e-05
4.00865e-05
4.0087e-05
4.00874e-05
4.00878e-05
4.00881e-05
4.00885e-05
4.00419e-05
4.00452e-05
4.00478e-05
4.00501e-05
4.00523e-05
4.00545e-05
4.00566e-05
4.00586e-05
4.00605e-05
4.00624e-05
4.00641e-05
4.00658e-05
4.00674e-05
4.00689e-05
4.00703e-05
4.00717e-05
4.0073e-05
4.00742e-05
4.00753e-05
4.00764e-05
4.00775e-05
4.00785e-05
4.00795e-05
4.00803e-05
4.00812e-05
4.0082e-05
4.00827e-05
4.00834e-05
4.00841e-05
4.00847e-05
4.00853e-05
4.00859e-05
4.00864e-05
4.00869e-05
4.00874e-05
4.00879e-05
4.00884e-05
4.00888e-05
4.00892e-05
4.00896e-05
4.00901e-05
4.00404e-05
4.00435e-05
4.00461e-05
4.00484e-05
4.00507e-05
4.00529e-05
4.00551e-05
4.00572e-05
4.00593e-05
4.00612e-05
4.00631e-05
4.00649e-05
4.00667e-05
4.00683e-05
4.00698e-05
4.00713e-05
4.00727e-05
4.00741e-05
4.00753e-05
4.00766e-05
4.00777e-05
4.00788e-05
4.00799e-05
4.00808e-05
4.00817e-05
4.00826e-05
4.00834e-05
4.00842e-05
4.00849e-05
4.00856e-05
4.00862e-05
4.00868e-05
4.00874e-05
4.0088e-05
4.00885e-05
4.0089e-05
4.00895e-05
4.009e-05
4.00904e-05
4.00908e-05
4.00913e-05
4.00385e-05
4.00415e-05
4.0044e-05
4.00464e-05
4.00487e-05
4.0051e-05
4.00532e-05
4.00554e-05
4.00575e-05
4.00596e-05
4.00616e-05
4.00635e-05
4.00654e-05
4.00672e-05
4.00689e-05
4.00705e-05
4.0072e-05
4.00735e-05
4.00749e-05
4.00762e-05
4.00775e-05
4.00787e-05
4.00798e-05
4.00808e-05
4.00818e-05
4.00828e-05
4.00837e-05
4.00845e-05
4.00853e-05
4.0086e-05
4.00867e-05
4.00874e-05
4.0088e-05
4.00886e-05
4.00892e-05
4.00897e-05
4.00902e-05
4.00907e-05
4.00912e-05
4.00916e-05
4.00921e-05
4.00363e-05
4.00392e-05
4.00416e-05
4.0044e-05
4.00463e-05
4.00486e-05
4.00508e-05
4.00531e-05
4.00553e-05
4.00574e-05
4.00595e-05
4.00616e-05
4.00635e-05
4.00654e-05
4.00673e-05
4.0069e-05
4.00707e-05
4.00723e-05
4.00738e-05
4.00752e-05
4.00766e-05
4.00779e-05
4.00791e-05
4.00803e-05
4.00814e-05
4.00824e-05
4.00833e-05
4.00842e-05
4.00851e-05
4.00859e-05
4.00866e-05
4.00873e-05
4.0088e-05
4.00886e-05
4.00892e-05
4.00898e-05
4.00903e-05
4.00908e-05
4.00913e-05
4.00918e-05
4.00922e-05
4.00338e-05
4.00365e-05
4.00388e-05
4.00411e-05
4.00434e-05
4.00456e-05
4.00478e-05
4.00501e-05
4.00523e-05
4.00545e-05
4.00567e-05
4.00589e-05
4.0061e-05
4.0063e-05
4.00649e-05
4.00668e-05
4.00686e-05
4.00703e-05
4.00719e-05
4.00735e-05
4.0075e-05
4.00764e-05
4.00777e-05
4.0079e-05
4.00801e-05
4.00812e-05
4.00822e-05
4.00832e-05
4.00841e-05
4.0085e-05
4.00858e-05
4.00865e-05
4.00872e-05
4.00879e-05
4.00885e-05
4.00891e-05
4.00897e-05
4.00902e-05
4.00908e-05
4.00912e-05
4.00917e-05
4.00309e-05
4.00333e-05
4.00356e-05
4.00377e-05
4.00399e-05
4.0042e-05
4.00442e-05
4.00464e-05
4.00487e-05
4.0051e-05
4.00532e-05
4.00554e-05
4.00576e-05
4.00597e-05
4.00618e-05
4.00638e-05
4.00657e-05
4.00675e-05
4.00693e-05
4.0071e-05
4.00726e-05
4.00741e-05
4.00755e-05
4.00768e-05
4.00781e-05
4.00792e-05
4.00803e-05
4.00814e-05
4.00823e-05
4.00832e-05
4.00841e-05
4.00849e-05
4.00856e-05
4.00863e-05
4.0087e-05
4.00876e-05
4.00882e-05
4.00887e-05
4.00892e-05
4.00897e-05
4.00902e-05
4.00275e-05
4.00298e-05
4.00318e-05
4.00338e-05
4.00357e-05
4.00378e-05
4.00399e-05
4.00421e-05
4.00443e-05
4.00466e-05
4.00489e-05
4.00511e-05
4.00534e-05
4.00556e-05
4.00578e-05
4.00599e-05
4.00619e-05
4.00638e-05
4.00657e-05
4.00675e-05
4.00691e-05
4.00707e-05
4.00722e-05
4.00736e-05
4.0075e-05
4.00762e-05
4.00774e-05
4.00785e-05
4.00795e-05
4.00804e-05
4.00813e-05
4.00822e-05
4.00829e-05
4.00837e-05
4.00844e-05
4.0085e-05
4.00857e-05
4.00862e-05
4.00868e-05
4.00873e-05
4.00878e-05
4.00237e-05
4.00257e-05
4.00275e-05
4.00292e-05
4.0031e-05
4.00328e-05
4.00348e-05
4.00369e-05
4.00391e-05
4.00413e-05
4.00436e-05
4.00459e-05
4.00482e-05
4.00504e-05
4.00526e-05
4.00548e-05
4.00569e-05
4.0059e-05
4.00609e-05
4.00628e-05
4.00646e-05
4.00663e-05
4.00679e-05
4.00694e-05
4.00708e-05
4.00722e-05
4.00734e-05
4.00746e-05
4.00757e-05
4.00767e-05
4.00776e-05
4.00785e-05
4.00793e-05
4.00801e-05
4.00808e-05
4.00815e-05
4.00821e-05
4.00826e-05
4.00832e-05
4.00836e-05
4.00841e-05
4.00194e-05
4.00211e-05
4.00225e-05
4.0024e-05
4.00255e-05
4.00272e-05
4.0029e-05
4.00309e-05
4.00329e-05
4.00351e-05
4.00372e-05
4.00395e-05
4.00417e-05
4.0044e-05
4.00462e-05
4.00484e-05
4.00506e-05
4.00527e-05
4.00547e-05
4.00566e-05
4.00585e-05
4.00602e-05
4.00619e-05
4.00634e-05
4.00649e-05
4.00662e-05
4.00675e-05
4.00687e-05
4.00698e-05
4.00709e-05
4.00719e-05
4.00728e-05
4.00736e-05
4.00744e-05
4.00752e-05
4.00759e-05
4.00765e-05
4.00772e-05
4.00777e-05
4.00783e-05
4.00788e-05
4.00146e-05
4.00158e-05
4.00169e-05
4.00181e-05
4.00193e-05
4.00208e-05
4.00223e-05
4.0024e-05
4.00258e-05
4.00276e-05
4.00296e-05
4.00317e-05
4.00338e-05
4.00359e-05
4.0038e-05
4.00401e-05
4.00422e-05
4.00442e-05
4.00463e-05
4.00483e-05
4.00502e-05
4.00521e-05
4.00538e-05
4.00555e-05
4.00571e-05
4.00587e-05
4.00601e-05
4.00614e-05
4.00626e-05
4.00638e-05
4.00649e-05
4.00659e-05
4.00668e-05
4.00677e-05
4.00684e-05
4.00692e-05
4.00698e-05
4.00705e-05
4.0071e-05
4.00715e-05
4.0072e-05
4.00092e-05
4.00099e-05
4.00107e-05
4.00115e-05
4.00124e-05
4.00134e-05
4.00146e-05
4.00158e-05
4.00172e-05
4.00187e-05
4.00202e-05
4.00219e-05
4.00237e-05
4.00257e-05
4.00278e-05
4.003e-05
4.00322e-05
4.00344e-05
4.00365e-05
4.00385e-05
4.00405e-05
4.00423e-05
4.00441e-05
4.00458e-05
4.00473e-05
4.00488e-05
4.00502e-05
4.00515e-05
4.00527e-05
4.00539e-05
4.00549e-05
4.00559e-05
4.00568e-05
4.00577e-05
4.00585e-05
4.00592e-05
4.00599e-05
4.00606e-05
4.00611e-05
4.00617e-05
4.00622e-05
4.00031e-05
4.00034e-05
4.00037e-05
4.0004e-05
4.00044e-05
4.00048e-05
4.00054e-05
4.00059e-05
4.00066e-05
4.00073e-05
4.0008e-05
4.00088e-05
4.00096e-05
4.00104e-05
4.00111e-05
4.0012e-05
4.00128e-05
4.00135e-05
4.00142e-05
4.0015e-05
4.00158e-05
4.00166e-05
4.00175e-05
4.00185e-05
4.00194e-05
4.00204e-05
4.00214e-05
4.00223e-05
4.00233e-05
4.00242e-05
4.00251e-05
4.00259e-05
4.00267e-05
4.00275e-05
4.00283e-05
4.0029e-05
4.00297e-05
4.00303e-05
4.00309e-05
4.00314e-05
4.0032e-05
0.00362192
0.00710399
0.0101755
0.0123098
0.0133313
0.0132407
0.0120909
0.00995362
0.0069828
0.00343917
0.000632119
0.000128748
6.55115e-06
2.60631e-05
4.2399e-05
4.07542e-05
3.98294e-05
4.00561e-05
4.00941e-05
4.00605e-05
4.00635e-05
4.00709e-05
4.00712e-05
4.00698e-05
4.00678e-05
4.0065e-05
4.00615e-05
4.00579e-05
4.00544e-05
4.00513e-05
4.00487e-05
4.00468e-05
4.00455e-05
4.00447e-05
4.00443e-05
4.0044e-05
4.00437e-05
4.00433e-05
4.00429e-05
4.00424e-05
4.00419e-05
4.00413e-05
4.00405e-05
4.00397e-05
4.00388e-05
4.00378e-05
4.00367e-05
4.00355e-05
4.00341e-05
4.00327e-05
4.00311e-05
4.00294e-05
4.00275e-05
4.00255e-05
4.00233e-05
4.0021e-05
4.00184e-05
4.00157e-05
4.00129e-05
4.00101e-05
4.00078e-05
4.00065e-05
4.00067e-05
4.00082e-05
4.00111e-05
4.0015e-05
4.00196e-05
4.00249e-05
4.00307e-05
4.0037e-05
4.00437e-05
4.00515e-05
4.00577e-05
4.00733e-05
0.00620747
0.0108384
0.0144236
0.0167133
0.0177653
0.0176778
0.0165374
0.0144246
0.0114494
0.0076728
0.00347015
0.000546974
0.000117224
6.93571e-06
2.46468e-05
4.25505e-05
4.09517e-05
3.96517e-05
3.99714e-05
4.01175e-05
4.00794e-05
4.00656e-05
4.00717e-05
4.0072e-05
4.00686e-05
4.00656e-05
4.00625e-05
4.00589e-05
4.00552e-05
4.00518e-05
4.00491e-05
4.0047e-05
4.00456e-05
4.00448e-05
4.00442e-05
4.00439e-05
4.00436e-05
4.00433e-05
4.00429e-05
4.00424e-05
4.00419e-05
4.00413e-05
4.00406e-05
4.00398e-05
4.00389e-05
4.00379e-05
4.00368e-05
4.00356e-05
4.00342e-05
4.00328e-05
4.00313e-05
4.00296e-05
4.00278e-05
4.00258e-05
4.00237e-05
4.00213e-05
4.00188e-05
4.00161e-05
4.00133e-05
4.00105e-05
4.00081e-05
4.00067e-05
4.00067e-05
4.00081e-05
4.00108e-05
4.00145e-05
4.00191e-05
4.00243e-05
4.003e-05
4.00363e-05
4.00429e-05
4.00506e-05
4.00568e-05
4.00723e-05
0.00867862
0.0147287
0.0190306
0.021583
0.0227292
0.0226853
0.0215767
0.0194979
0.0165528
0.0128034
0.00828672
0.00354444
0.000499954
0.000122522
6.4297e-06
1.91911e-05
4.2881e-05
4.23696e-05
3.98235e-05
3.98179e-05
4.01004e-05
4.00969e-05
4.00624e-05
4.00666e-05
4.00723e-05
4.00686e-05
4.00632e-05
4.00593e-05
4.0056e-05
4.00527e-05
4.00496e-05
4.00473e-05
4.00457e-05
4.00448e-05
4.00442e-05
4.00438e-05
4.00436e-05
4.00432e-05
4.00429e-05
4.00424e-05
4.00419e-05
4.00413e-05
4.00406e-05
4.00398e-05
4.00389e-05
4.00379e-05
4.00369e-05
4.00357e-05
4.00344e-05
4.0033e-05
4.00315e-05
4.00299e-05
4.00281e-05
4.00261e-05
4.0024e-05
4.00217e-05
4.00192e-05
4.00166e-05
4.00138e-05
4.0011e-05
4.00085e-05
4.0007e-05
4.00067e-05
4.00079e-05
4.00104e-05
4.00141e-05
4.00185e-05
4.00236e-05
4.00293e-05
4.00355e-05
4.00421e-05
4.00498e-05
4.00559e-05
4.00712e-05
0.0111158
0.018807
0.0239674
0.0269018
0.0282334
0.0282979
0.0272657
0.0252476
0.0223469
0.0186466
0.0141751
0.00897756
0.00376832
0.000531872
0.000156488
4.74302e-06
7.44661e-06
3.85704e-05
4.31639e-05
4.03474e-05
3.97208e-05
4.007e-05
4.01516e-05
4.00795e-05
4.00537e-05
4.00639e-05
4.00682e-05
4.00628e-05
4.00567e-05
4.00528e-05
4.00502e-05
4.00479e-05
4.0046e-05
4.00448e-05
4.00441e-05
4.00438e-05
4.00435e-05
4.00432e-05
4.00429e-05
4.00424e-05
4.00419e-05
4.00413e-05
4.00406e-05
4.00399e-05
4.0039e-05
4.0038e-05
4.0037e-05
4.00358e-05
4.00346e-05
4.00332e-05
4.00317e-05
4.00301e-05
4.00284e-05
4.00265e-05
4.00244e-05
4.00221e-05
4.00197e-05
4.00171e-05
4.00143e-05
4.00114e-05
4.00089e-05
4.00072e-05
4.00067e-05
4.00077e-05
4.00101e-05
4.00135e-05
4.00179e-05
4.00229e-05
4.00285e-05
4.00347e-05
4.00412e-05
4.00488e-05
4.00549e-05
4.007e-05
0.0136959
0.0231326
0.0291867
0.0326115
0.0342403
0.034504
0.0336197
0.0317177
0.0289034
0.0252694
0.0208787
0.0157358
0.00992852
0.00425722
0.000697645
0.000244976
1.7153e-06
1.0141e-05
3.45987e-05
4.38695e-05
4.10785e-05
3.94402e-05
3.97868e-05
4.01562e-05
4.01502e-05
4.00675e-05
4.00474e-05
4.00582e-05
4.00619e-05
4.00565e-05
4.00505e-05
4.00474e-05
4.00461e-05
4.00452e-05
4.00444e-05
4.00438e-05
4.00434e-05
4.00431e-05
4.00428e-05
4.00424e-05
4.00419e-05
4.00414e-05
4.00407e-05
4.004e-05
4.00391e-05
4.00382e-05
4.00371e-05
4.0036e-05
4.00348e-05
4.00334e-05
4.0032e-05
4.00304e-05
4.00287e-05
4.00268e-05
4.00248e-05
4.00226e-05
4.00201e-05
4.00176e-05
4.00148e-05
4.00119e-05
4.00094e-05
4.00075e-05
4.00068e-05
4.00075e-05
4.00097e-05
4.0013e-05
4.00172e-05
4.00222e-05
4.00277e-05
4.00338e-05
4.00402e-05
4.00478e-05
4.00538e-05
4.00687e-05
0.0171433
0.0277696
0.0346257
0.0386238
0.0406663
0.041239
0.0405988
0.0388965
0.0362424
0.0327312
0.0284436
0.0234246
0.0176769
0.0113148
0.00514392
0.0011228
0.000394113
0
8.84768e-06
2.53748e-05
4.41426e-05
4.406e-05
4.02739e-05
3.94e-05
3.98933e-05
4.01785e-05
4.01399e-05
4.00591e-05
4.00402e-05
4.00509e-05
4.0056e-05
4.00518e-05
4.00463e-05
4.00439e-05
4.00436e-05
4.00439e-05
4.00437e-05
4.00433e-05
4.00428e-05
4.00424e-05
4.0042e-05
4.00414e-05
4.00408e-05
4.00401e-05
4.00393e-05
4.00383e-05
4.00373e-05
4.00362e-05
4.0035e-05
4.00337e-05
4.00323e-05
4.00307e-05
4.0029e-05
4.00272e-05
4.00252e-05
4.0023e-05
4.00206e-05
4.00181e-05
4.00153e-05
4.00125e-05
4.00098e-05
4.00078e-05
4.00069e-05
4.00074e-05
4.00093e-05
4.00124e-05
4.00165e-05
4.00214e-05
4.00268e-05
4.00328e-05
4.00392e-05
4.00467e-05
4.00527e-05
4.00674e-05
0.0218642
0.0327317
0.040222
0.0448305
0.0473846
0.0483804
0.0480976
0.0467032
0.0443121
0.0410184
0.0369061
0.0320441
0.0264701
0.0201883
0.0133145
0.00662634
0.00181919
0.000692758
5.05046e-05
5.77013e-06
3.17171e-06
3.35749e-05
4.46352e-05
4.24969e-05
3.97771e-05
3.94476e-05
3.99488e-05
4.01847e-05
4.01366e-05
4.00526e-05
4.00297e-05
4.0042e-05
4.00522e-05
4.00513e-05
4.00461e-05
4.00429e-05
4.00423e-05
4.00429e-05
4.00431e-05
4.00428e-05
4.00422e-05
4.00415e-05
4.00409e-05
4.00402e-05
4.00394e-05
4.00386e-05
4.00376e-05
4.00365e-05
4.00353e-05
4.0034e-05
4.00326e-05
4.00311e-05
4.00294e-05
4.00276e-05
4.00256e-05
4.00235e-05
4.00211e-05
4.00186e-05
4.00159e-05
4.00131e-05
4.00103e-05
4.00082e-05
4.0007e-05
4.00072e-05
4.00089e-05
4.00118e-05
4.00157e-05
4.00205e-05
4.00258e-05
4.00318e-05
4.00381e-05
4.00455e-05
4.00515e-05
4.0066e-05
0.027461
0.0379825
0.0459146
0.0511027
0.054227
0.0557457
0.0559374
0.0549744
0.0529727
0.0500225
0.0462039
0.0415906
0.0362444
0.0301991
0.0234577
0.0161384
0.00887325
0.00326391
0.000270611
0.000239003
1.19859e-05
8.20024e-06
1.85742e-05
3.96857e-05
4.4399e-05
4.16997e-05
3.95464e-05
3.94164e-05
3.99324e-05
4.01887e-05