/*--------------------------------*- C++ -*----------------------------------*\
| =========                 |                                                 |
| \\      /  F ield         | OpenFOAM: The Open Source CFD Toolbox           |
|  \\    /   O peration     | Version:  2312                                  |
|   \\  /    A nd           | Website:  www.openfoam.com                      |
|    \\/     M anipulation  |                                                 |
\*---------------------------------------------------------------------------*/
FoamFile
{
    version     2.0;
    format      ascii;
    arch        "LSB;label=32;scalar=64";
    class       volScalarField;
    location    "850";
    object      p;
}
// * * * * * * * * * * * * * * * * * * * * * * * * * * * * * * * * * * * * * //

dimensions      [0 2 -2 0 0 0 0];

internalField   nonuniform List<scalar> 
11040
(
-19.1611
-24.5446
-19.8517
-19.2255
-19.1007
-18.898
-18.6966
-18.53
-18.4028
-18.3143
-18.2346
-18.1697
-18.1191
-18.0737
-18.0403
-18.0142
-17.9972
-17.9893
-17.9901
-18.0007
-18.0188
-18.0457
-18.0844
-18.1335
-18.1874
-18.2402
-18.2841
-18.3099
-18.3066
-18.2632
-18.1699
-18.0191
-17.8069
-17.5359
-17.2205
-16.8851
-16.5476
-16.2739
-16.2367
-16.2104
-16.6476
-8.20945
-14.7181
-18.5687
-19.047
-19.0597
-18.9081
-18.7075
-18.5367
-18.4039
-18.3139
-18.2335
-18.167
-18.1159
-18.0699
-18.0359
-18.0093
-17.9919
-17.9836
-17.9839
-17.9941
-18.012
-18.0389
-18.0771
-18.1259
-18.1798
-18.2332
-18.2782
-18.3057
-18.3049
-18.2646
-18.1748
-18.0278
-17.8201
-17.5537
-17.2426
-16.9114
-16.5779
-16.304
-16.2702
-16.225
-17.0556
-1.5377
-8.46297
-14.6542
-17.9871
-18.804
-18.8603
-18.7142
-18.5436
-18.4016
-18.3108
-18.2309
-18.1626
-18.1116
-18.0648
-18.0303
-18.0033
-17.9853
-17.9766
-17.9764
-17.986
-18.0037
-18.0308
-18.0688
-18.1172
-18.1712
-18.225
-18.271
-18.3001
-18.3017
-18.2648
-18.1791
-18.0372
-17.8355
-17.5759
-17.2719
-16.9483
-16.6237
-16.3555
-16.3346
-16.2678
-17.2662
2.38939
-4.66713
-10.5899
-14.9312
-17.5911
-18.5677
-18.6347
-18.544
-18.399
-18.3049
-18.2259
-18.1553
-18.1051
-18.0576
-18.0226
-17.9951
-17.9765
-17.9674
-17.9667
-17.9758
-17.9932
-18.0204
-18.0584
-18.1066
-18.1607
-18.2152
-18.2627
-18.2941
-18.2991
-18.2666
-18.1865
-18.0514
-17.8577
-17.6071
-17.3128
-16.9991
-16.6862
-16.4283
-16.4212
-16.3488
-17.3487
4.9085
-0.865473
-6.52892
-11.2522
-14.8314
-17.1959
-18.2485
-18.3832
-18.3913
-18.3031
-18.2222
-18.1442
-18.0961
-18.0478
-18.0127
-17.9849
-17.9655
-17.956
-17.9546
-17.9631
-17.98
-18.0073
-18.0452
-18.0933
-18.1478
-18.2033
-18.2528
-18.2873
-18.2967
-18.2701
-18.1976
-18.0715
-17.8884
-17.6499
-17.3684
-17.0681
-16.7703
-16.5282
-16.5294
-16.4703
-17.3853
6.34386
1.83059
-3.04492
-7.72093
-11.6151
-14.5719
-16.6808
-17.8074
-18.1488
-18.2487
-18.2222
-18.1354
-18.0853
-18.0344
-18.0001
-17.9724
-17.9523
-17.9426
-17.9404
-17.9482
-17.9644
-17.9916
-18.0292
-18.0772
-18.1321
-18.189
-18.241
-18.2796
-18.2947
-18.2758
-18.2129
-18.0987
-17.9293
-17.7064
-17.4418
-17.159
-16.8804
-16.6596
-16.6612
-16.6343
-17.4216
7.11849
3.50551
-0.443886
-4.53811
-8.40367
-11.6612
-14.1912
-16.092
-17.3151
-17.9013
-18.0525
-18.129
-18.0824
-18.0228
-17.9836
-17.9562
-17.9362
-17.9268
-17.924
-17.9312
-17.9463
-17.9729
-18.01
-18.0577
-18.1131
-18.1717
-18.2269
-18.2706
-18.293
-18.2839
-18.2334
-18.134
-17.9821
-17.7791
-17.5359
-17.275
-17.0202
-16.8247
-16.8205
-16.8363
-17.4745
7.42494
4.49593
1.35268
-2.01144
-5.44739
-8.70917
-11.527
-13.7597
-15.4873
-16.7645
-17.5161
-17.842
-17.9913
-18.028
-17.9742
-17.9403
-17.9151
-17.9072
-17.9045
-17.9117
-17.9257
-17.9513
-17.9874
-18.0345
-18.0903
-18.1507
-18.2098
-18.2598
-18.2913
-18.2944
-18.2592
-18.1784
-18.0482
-17.8696
-17.6527
-17.4183
-17.1912
-17.0223
-17.0102
-17.0647
-17.5472
7.42417
5.01176
2.48687
-0.228632
-3.09668
-5.99924
-8.79049
-11.2746
-13.2998
-14.8898
-16.1363
-17.0304
-17.5568
-17.7893
-17.9319
-17.9442
-17.8997
-17.886
-17.8794
-17.8882
-17.9017
-17.9264
-17.9612
-18.0073
-18.0633
-18.1256
-18.189
-18.2463
-18.2887
-18.3064
-18.2899
-18.2315
-18.1273
-17.9779
-17.7921
-17.5883
-17.3916
-17.2474
-17.227
-17.3004
-17.6358
7.20943
5.18777
3.12855
0.940144
-1.40254
-3.84829
-6.32155
-8.73088
-10.9428
-12.8156
-14.2989
-15.4911
-16.4568
-17.14
-17.5355
-17.747
-17.8805
-17.8867
-17.8594
-17.8623
-17.8715
-17.8958
-17.9302
-17.9754
-18.0316
-18.0958
-18.1639
-18.2293
-18.2839
-18.3183
-18.3232
-18.291
-18.217
-18.1011
-17.9501
-17.7799
-17.6137
-17.4894
-17.4586
-17.5213
-17.7295
6.84853
5.12893
3.4207
1.64071
-0.262004
-2.2806
-4.37723
-6.49917
-8.58674
-10.5568
-12.2932
-13.7195
-14.8701
-15.8313
-16.608
-17.1621
-17.4954
-17.713
-17.8483
-17.8609
-17.846
-17.8609
-17.8905
-17.9348
-17.9925
-18.0596
-18.1329
-18.2072
-18.2751
-18.3278
-18.3563
-18.3525
-18.3112
-18.2309
-18.1163
-17.9799
-17.8411
-17.7291
-17.681
-17.7055
-17.8056
6.39001
4.90791
3.46692
1.99787
0.445105
-1.20683
-2.94924
-4.75425
-6.58298
-8.39348
-10.135
-11.7388
-13.1262
-14.2626
-15.1989
-15.9997
-16.6557
-17.1387
-17.4516
-17.6846
-17.8295
-17.8579
-17.8598
-17.8893
-17.9419
-18.01
-18.0898
-18.1752
-18.2584
-18.3308
-18.384
-18.4097
-18.4013
-18.3558
-18.2751
-18.1676
-18.0483
-17.938
-17.8616
-17.8291
-17.8346
5.87062
4.57952
3.34603
2.11479
0.83269
-0.522717
-1.95684
-3.46318
-5.02173
-6.60154
-8.1697
-9.70135
-11.1634
-12.4951
-13.6341
-14.5715
-15.3632
-16.0555
-16.6369
-17.0818
-17.3813
-17.6258
-17.82
-17.9029
-17.9249
-17.9626
-18.032
-18.1218
-18.2194
-18.3133
-18.3931
-18.4495
-18.4741
-18.4614
-18.41
-18.3243
-18.2138
-18.0917
-17.9733
-17.8729
-17.7915
5.31816
4.18432
3.11584
2.06915
0.996156
-0.12604
-1.30801
-2.55307
-3.85689
-5.20367
-6.56827
-7.92993
-9.27489
-10.5847
-11.8271
-12.9516
-13.9142
-14.7181
-15.414
-16.0357
-16.5803
-16.9729
-17.2315
-17.4906
-17.764
-17.9633
-18.0633
-18.1196
-18.1825
-18.264
-18.354
-18.4357
-18.4929
-18.5139
-18.4914
-18.4243
-18.317
-18.1768
-18.0126
-17.8436
-17.6798
4.75354
3.75241
2.81873
1.9185
1.00907
0.0693209
-0.911824
-1.94148
-3.02252
-4.15041
-5.31216
-6.49302
-7.67917
-8.85672
-10.015
-11.141
-12.2096
-13.1821
-14.0287
-14.7532
-15.4169
-15.964
-16.3661
-16.707
-16.9935
-17.2549
-17.5558
-17.8814
-18.1518
-18.3246
-18.4182
-18.4668
-18.489
-18.4888
-18.4609
-18.397
-18.2901
-18.1404
-17.9486
-17.7308
-17.5032
4.19655
3.30965
2.48845
1.70663
0.926967
0.130921
-0.69158
-1.54841
-2.44493
-3.38219
-4.35517
-5.35708
-6.3797
-7.4108
-8.43848
-9.45413
-10.4522
-11.4249
-12.3565
-13.217
-13.9924
-14.6424
-15.162
-15.6078
-16.0033
-16.3536
-16.6574
-16.9176
-17.1716
-17.4672
-17.8028
-18.1204
-18.356
-18.4818
-18.5005
-18.4298
-18.2858
-18.0805
-17.8156
-17.512
-17.2006
3.66925
2.88257
2.15748
1.47344
0.798456
0.11674
-0.580226
-1.29971
-2.04768
-2.82711
-3.63714
-4.47555
-5.33918
-6.22127
-7.11299
-8.00479
-8.88842
-9.75826
-10.6114
-11.4438
-12.2471
-12.984
-13.6266
-14.1807
-14.6651
-15.0974
-15.4852
-15.8338
-16.1476
-16.4233
-16.6555
-16.8526
-17.0361
-17.2224
-17.3984
-17.5351
-17.5984
-17.5711
-17.4367
-17.2113
-16.9357
3.20261
2.50007
1.85485
1.24969
0.657033
0.0636865
-0.537399
-1.15254
-1.78712
-2.44445
-3.12555
-3.83042
-4.55831
-5.30589
-6.06818
-6.83892
-7.61105
-8.37774
-9.13326
-9.87405
-10.5969
-11.2771
-11.9002
-12.4675
-12.9786
-13.4366
-13.8478
-14.2203
-14.5602
-14.8692
-15.1482
-15.3966
-15.6078
-15.7748
-15.8858
-15.9373
-15.9306
-15.8803
-15.7773
-15.6224
-15.4538
2.80467
2.17176
1.59222
1.05079
0.52357
-0.000545049
-0.527513
-1.06286
-1.61141
-2.17635
-2.75895
-3.36016
-3.98025
-4.61758
-5.26934
-5.93174
-6.6002
-7.26961
-7.9344
-8.58879
-9.22704
-9.82268
-10.3614
-10.8502
-11.2939
-11.6981
-12.0674
-12.4047
-12.712
-12.9916
-13.2447
-13.4707
-13.666
-13.8264
-13.9456
-14.0186
-14.0394
-14.011
-13.926
-13.7772
-13.6034
2.46727
1.89371
1.36959
0.881166
0.407598
-0.0604972
-0.528231
-1.00041
-1.48123
-1.97354
-2.47861
-2.99765
-3.53136
-4.07891
-4.63857
-5.20785
-5.78353
-6.36189
-6.9388
-7.50978
-8.07018
-8.59675
-9.07484
-9.50764
-9.89611
-10.2428
-10.551
-10.8244
-11.0659
-11.2777
-11.4609
-11.6154
-11.741
-11.8371
-11.9028
-11.9363
-11.9352
-11.8986
-11.8247
-11.7066
-11.5563
2.17945
1.65748
1.18118
0.737964
0.309732
-0.111538
-0.530272
-0.95068
-1.37638
-1.80984
-2.25224
-2.70466
-3.16793
-3.64161
-4.12455
-4.61499
-5.11058
-5.60846
-6.10532
-6.59754
-7.08125
-7.53724
-7.95314
-8.33061
-8.66925
-8.96975
-9.23335
-9.46147
-9.65563
-9.8174
-9.9483
-10.0497
-10.1227
-10.1677
-10.1853
-10.1753
-10.1382
-10.0723
-9.98014
-9.86074
-9.71703
1.93292
1.45655
1.0222
0.618367
0.22932
-0.151814
-0.528944
-0.905739
-1.28533
-1.6698
-2.06022
-2.45744
-2.86226
-3.27438
-3.69295
-4.11662
-4.54358
-4.97153
-5.39776
-5.81918
-6.23243
-6.62139
-6.97593
-7.29723
-7.5847
-7.8387
-8.05996
-8.24931
-8.40768
-8.53601
-8.6353
-8.70648
-8.75056
-8.76858
-8.76197
-8.73163
-8.679
-8.6044
-8.51103
-8.39891
-8.27143
1.72098
1.28529
0.888184
0.519132
0.164504
-0.181634
-0.522746
-0.862058
-1.20225
-1.54508
-1.89147
-2.24208
-2.59754
-2.95764
-3.32165
-3.68847
-4.05659
-4.42413
-4.78884
-5.14809
-5.499
-5.82818
-6.1274
-6.39747
-6.63771
-6.84829
-7.02981
-7.18296
-7.30859
-7.40764
-7.48112
-7.53007
-7.55559
-7.55884
-7.54118
-7.50358
-7.44719
-7.37301
-7.28338
-7.17884
-7.06205
1.53824
1.13914
0.775383
0.437376
0.113342
-0.201859
-0.511332
-0.817902
-1.12388
-1.43073
-1.73921
-2.04984
-2.36308
-2.6787
-2.99608
-3.31422
-3.63184
-3.94734
-4.25882
-4.56401
-4.86046
-5.13712
-5.38751
-5.61224
-5.81072
-5.98306
-6.1298
-6.25164
-6.34938
-6.42398
-6.47648
-6.50799
-6.51965
-6.51267
-6.48837
-6.44784
-6.39222
-6.32256
-6.2407
-6.14744
-6.0445
1.3803
1.01428
0.680578
0.370485
0.0738825
-0.213719
-0.495096
-0.772748
-1.04864
-1.32401
-1.59946
-1.87539
-2.15209
-2.42933
-2.70651
-2.98274
-3.2569
-3.5276
-3.79318
-4.05173
-4.30114
-4.53239
-4.74047
-4.92596
-5.08841
-5.22802
-5.34533
-5.44104
-5.51598
-5.5711
-5.60744
-5.6261
-5.62824
-5.61501
-5.58772
-5.54744
-5.4953
-5.43217
-5.3598
-5.27878
-5.19097
1.24356
0.907559
0.601051
0.316198
0.0443373
-0.21846
-0.474701
-0.726581
-0.975781
-1.22334
-1.46974
-1.71526
-1.96009
-2.20395
-2.44627
-2.68627
-2.92293
-3.15503
-3.38117
-3.5997
-3.80886
-4.00128
-4.17325
-4.32535
-4.45731
-4.56939
-4.66222
-4.7365
-4.79308
-4.83289
-4.85693
-4.86628
-4.86201
-4.8452
-4.81706
-4.77856
-4.73074
-4.67434
-4.6109
-4.54085
-4.46604
1.12502
0.816313
0.534503
0.272554
0.0231075
-0.217296
-0.450918
-0.679696
-0.905062
-1.12789
-1.34855
-1.56726
-1.78409
-1.99875
-2.21072
-2.41927
-2.62351
-2.82238
-3.01467
-3.19899
-3.37387
-3.53338
-3.67485
-3.79887
-3.90535
-3.99463
-4.06738
-4.12433
-4.16632
-4.19424
-4.20905
-4.21172
-4.20327
-4.18466
-4.15696
-4.12102
-4.07775
-4.02778
-3.97241
-3.91196
-3.84804
1.02215
0.73833
0.478979
0.237874
0.00878689
-0.211326
-0.424519
-0.632491
-0.836474
-1.03719
-1.23495
-1.42989
-1.62201
-1.81104
-1.99648
-2.17767
-2.35383
-2.52407
-2.68736
-2.84253
-2.98838
-3.12018
-3.23607
-3.33672
-3.42213
-3.49275
-3.54925
-3.59238
-3.62294
-3.64177
-3.64977
-3.64784
-3.63687
-3.61771
-3.59128
-3.55835
-3.51967
-3.47578
-3.42775
-3.37584
-3.32143
0.93286
0.671714
0.432828
0.210714
0.000158356
-0.201532
-0.396221
-0.585404
-0.770136
-0.951031
-1.12833
-1.30212
-1.47238
-1.63883
-1.80102
-1.95837
-2.11022
-2.2558
-2.39426
-2.52465
-2.64602
-2.75459
-2.8492
-2.93052
-2.99868
-3.05417
-3.09766
-3.12989
-3.15162
-3.16364
-3.16675
-3.16177
-3.14947
-3.13062
-3.10598
-3.07622
-3.04198
-3.00369
-2.96226
-2.91787
-2.87172
0.855332
0.614876
0.394634
0.189844
-0.00382959
-0.188768
-0.366669
-0.538847
-0.706212
-0.869283
-1.02826
-1.1832
-1.33406
-1.48059
-1.62238
-1.75894
-1.88971
-2.01407
-2.13131
-2.24069
-2.34146
-2.43065
-2.50764
-2.5731
-2.62723
-2.67055
-2.70372
-2.72746
-2.74247
-2.74947
-2.74917
-2.74231
-2.72956
-2.71157
-2.689
-2.66241
-2.63232
-2.59912
-2.56352
-2.52567
-2.4866
0.788039
0.56644
0.363196
0.174206
-0.00407758
-0.173774
-0.336426
-0.493195
-0.644866
-0.791888
-0.934433
-1.07254
-1.20616
-1.33508
-1.45897
-1.57739
-1.68989
-1.79598
-1.89512
-1.98671
-2.0702
-2.14329
-2.20576
-2.25825
-2.30104
-2.33464
-2.3597
-2.37689
-2.38684
-2.39022
-2.38765
-2.37977
-2.36717
-2.35039
-2.33
-2.30645
-2.2802
-2.25153
-2.22106
-2.18886
-2.15586
0.729659
0.525246
0.337478
0.162902
-0.00135615
-0.157179
-0.305973
-0.448767
-0.586243
-0.718797
-0.846586
-0.969648
-1.08794
-1.2013
-1.30944
-1.41203
-1.50871
-1.5991
-1.6828
-1.75936
-1.8284
-1.88816
-1.9387
-1.98067
-2.01435
-2.04025
-2.059
-2.07119
-2.07743
-2.07827
-2.07429
-2.06603
-2.05398
-2.03861
-2.0204
-1.99972
-1.97694
-1.9523
-1.9263
-1.89898
-1.87114
0.679061
0.490279
0.316601
0.155156
0.0036776
-0.139518
-0.275717
-0.405829
-0.530458
-0.64996
-0.76449
-0.874092
-0.978751
-1.07833
-1.17265
-1.26142
-1.34439
-1.42129
-1.49184
-1.55573
-1.61271
-1.66144
-1.70222
-1.73565
-1.76204
-1.78187
-1.79573
-1.80415
-1.80768
-1.8068
-1.80202
-1.79379
-1.78255
-1.76868
-1.75257
-1.73453
-1.71488
-1.69379
-1.67169
-1.64857
-1.62513
0.63526
0.460678
0.299797
0.15031
0.0104627
-0.121246
-0.245994
-0.364596
-0.477591
-0.585312
-0.687918
-0.785475
-0.877993
-0.965389
-1.04754
-1.12426
-1.19537
-1.2607
-1.32007
-1.37329
-1.42022
-1.45989
-1.49272
-1.51929
-1.53989
-1.555
-1.56512
-1.57077
-1.5724
-1.57045
-1.56534
-1.55747
-1.54719
-1.53484
-1.52071
-1.5051
-1.48822
-1.47025
-1.45151
-1.43199
-1.41229
0.597407
0.435682
0.286411
0.147789
0.0185214
-0.102742
-0.217083
-0.325235
-0.427691
-0.524772
-0.616651
-0.70342
-0.785125
-0.861737
-0.933198
-0.999398
-1.06023
-1.11563
-1.16549
-1.20973
-1.24829
-1.28048
-1.30682
-1.32784
-1.34382
-1.35521
-1.36247
-1.36605
-1.36634
-1.36374
-1.35859
-1.35124
-1.34197
-1.33107
-1.31879
-1.30535
-1.29095
-1.2757
-1.25988
-1.24347
-1.22699
0.564757
0.414642
0.275865
0.147103
0.0274409
-0.0843309
-0.189214
-0.287877
-0.38078
-0.468244
-0.550464
-0.627567
-0.699637
-0.7667
-0.82876
-0.885786
-0.937744
-0.984631
-1.02644
-1.06315
-1.09479
-1.1209
-1.14202
-1.15865
-1.17106
-1.17964
-1.18481
-1.18696
-1.18644
-1.18357
-1.17865
-1.17196
-1.16375
-1.15425
-1.14367
-1.13218
-1.11994
-1.10705
-1.09373
-1.07994
-1.06616
0.536676
0.396991
0.267671
0.147822
0.0368669
-0.066289
-0.162576
-0.252619
-0.336855
-0.41562
-0.489133
-0.557565
-0.621038
-0.679637
-0.733418
-0.782428
-0.826683
-0.866249
-0.901178
-0.931523
-0.95736
-0.97839
-0.995193
-1.00821
-1.01771
-1.02402
-1.02753
-1.02858
-1.02747
-1.02447
-1.01984
-1.01382
-1.0066
-0.998373
-0.989311
-0.979559
-0.969239
-0.958434
-0.947314
-0.935844
-0.924425
0.512595
0.382235
0.261396
0.149583
0.0464966
-0.0488491
-0.137329
-0.219532
-0.295899
-0.36678
-0.432437
-0.493076
-0.548875
-0.599967
-0.646471
-0.688496
-0.726119
-0.759455
-0.78862
-0.813711
-0.834856
-0.851873
-0.865347
-0.875658
-0.883046
-0.887807
-0.890271
-0.890722
-0.889421
-0.886592
-0.882453
-0.877188
-0.870973
-0.86395
-0.856265
-0.848027
-0.839346
-0.830277
-0.820969
-0.811376
-0.801853
0.491974
0.369887
0.256628
0.15204
0.0560588
-0.0322128
-0.113599
-0.18867
-0.257877
-0.3216
-0.380147
-0.43377
-0.482691
-0.527094
-0.567147
-0.603009
-0.634802
-0.66268
-0.6868
-0.707294
-0.724324
-0.737802
-0.748305
-0.756172
-0.761621
-0.764918
-0.766355
-0.766178
-0.764611
-0.761845
-0.758061
-0.753413
-0.748044
-0.74207
-0.735605
-0.728738
-0.721555
-0.714095
-0.706479
-0.698652
-0.690934
0.474347
0.359499
0.252942
0.154828
0.0652621
-0.0165873
-0.0915132
-0.16008
-0.222754
-0.279958
-0.332049
-0.379335
-0.422094
-0.460565
-0.494971
-0.525528
-0.552407
-0.575798
-0.595892
-0.612846
-0.626839
-0.637847
-0.6464
-0.652781
-0.657175
-0.659805
-0.660913
-0.660702
-0.659352
-0.657019
-0.653848
-0.649964
-0.645482
-0.640493
-0.635095
-0.629355
-0.623346
-0.617099
-0.610715
-0.604147
-0.597665
0.459485
0.350845
0.250093
0.157671
0.0738385
-0.00218813
-0.0712062
-0.133807
-0.190498
-0.241739
-0.287938
-0.329453
-0.366612
-0.399691
-0.428943
-0.454601
-0.47687
-0.495962
-0.512098
-0.52546
-0.536247
-0.544492
-0.55071
-0.555156
-0.557999
-0.559441
-0.559698
-0.558945
-0.55734
-0.555013
-0.552086
-0.548659
-0.544826
-0.540658
-0.536227
-0.531585
-0.526786
-0.52185
-0.516853
-0.51174
-0.506757
0.447235
0.343898
0.248115
0.160593
0.0817517
0.0108966
-0.0527628
-0.109879
-0.161045
-0.206801
-0.247615
-0.283899
-0.316039
-0.344403
-0.369325
-0.391105
-0.409967
-0.426129
-0.439791
-0.451138
-0.460351
-0.467489
-0.472978
-0.477021
-0.479742
-0.481306
-0.481875
-0.48159
-0.480566
-0.478908
-0.476706
-0.474044
-0.470991
-0.467612
-0.463961
-0.460089
-0.456035
-0.451826
-0.447521
-0.443091
-0.438721
0.436713
0.33787
0.246486
0.163356
0.0889612
0.0226898
-0.0361876
-0.0883231
-0.134373
-0.174991
-0.210765
-0.242179
-0.269611
-0.293361
-0.313716
-0.330995
-0.34551
-0.357557
-0.367395
-0.375235
-0.38127
-0.385594
-0.388631
-0.390569
-0.391524
-0.391649
-0.39109
-0.389973
-0.388398
-0.386454
-0.384213
-0.381741
-0.37909
-0.376303
-0.373417
-0.370463
-0.367468
-0.36444
-0.361419
-0.358357
-0.355436
0.426402
0.33086
0.24323
0.16428
0.094313
0.0325849
-0.0217159
-0.0692528
-0.110645
-0.14652
-0.177526
-0.204335
-0.227607
-0.247916
-0.265661
-0.28107
-0.294271
-0.305425
-0.314731
-0.322385
-0.328566
-0.333374
-0.337119
-0.33993
-0.34189
-0.343106
-0.343681
-0.3437
-0.343231
-0.342338
-0.341074
-0.33949
-0.337629
-0.335529
-0.333226
-0.330751
-0.328131
-0.325385
-0.322548
-0.319614
-0.316678
0.417634
0.323759
0.238371
0.162524
0.0965087
0.0393833
-0.00999083
-0.0526253
-0.0893806
-0.120939
-0.147789
-0.170274
-0.188691
-0.203407
-0.214961
-0.22402
-0.231156
-0.236713
-0.240893
-0.243848
-0.245729
-0.246623
-0.246855
-0.246542
-0.24576
-0.244607
-0.24318
-0.241556
-0.239794
-0.237946
-0.23605
-0.234139
-0.232237
-0.230364
-0.228531
-0.226749
-0.225027
-0.223362
-0.221769
-0.220203
-0.218793
0.41638
0.32394
0.23935
0.16429
0.0996668
0.0450152
-0.00066735
-0.038574
-0.0700128
-0.0963032
-0.118667
-0.138131
-0.15544
-0.170984
-0.184763
-0.19653
-0.206214
-0.214105
-0.220584
-0.225928
-0.230327
-0.233919
-0.236899
-0.239332
-0.241265
-0.242757
-0.243858
-0.244608
-0.245036
-0.24517
-0.245037
-0.24466
-0.244063
-0.243268
-0.242294
-0.241162
-0.239887
-0.238488
-0.236976
-0.235383
-0.233687
0.419955
0.330291
0.247764
0.173688
0.109132
0.0541908
0.00850692
-0.0284935
-0.0575534
-0.0795349
-0.0953532
-0.10595
-0.112304
-0.11545
-0.116513
-0.116521
-0.115908
-0.114734
-0.113008
-0.110806
-0.108227
-0.10531
-0.102275
-0.0991975
-0.0961206
-0.0930911
-0.0901591
-0.0873567
-0.0847072
-0.082222
-0.0799096
-0.0777697
-0.0758006
-0.0739937
-0.0723403
-0.0708302
-0.0694557
-0.0681983
-0.0670554
-0.0659842
-0.0650513
0.401306
0.310101
0.230698
0.162488
0.104629
0.0558488
0.0148703
-0.0194226
-0.0480078
-0.0717584
-0.0914591
-0.107813
-0.121434
-0.132839
-0.142409
-0.150488
-0.157367
-0.162962
-0.167635
-0.171782
-0.175623
-0.179291
-0.182748
-0.185977
-0.189006
-0.191861
-0.194549
-0.197076
-0.199448
-0.201679
-0.203778
-0.20576
-0.207638
-0.209428
-0.21114
-0.212793
-0.214392
-0.215959
-0.217484
-0.219024
-0.220468
-15.5696
-14.5832
-13.854
-13.5825
-13.3095
-12.9259
-12.4526
-11.8989
-11.2765
-10.6
-9.88561
-9.14067
-8.39076
-7.64714
-6.92091
-6.222
-5.55519
-4.92641
-4.33868
-3.79402
-3.29408
-2.83781
-2.42562
-2.05545
-1.72567
-1.43374
-1.17743
-0.953312
-0.759134
-0.59174
-0.448339
-0.326254
-0.222912
-0.136042
-0.063407
-0.00301938
0.0467412
0.0875698
0.120672
0.147356
0.168398
0.184942
0.197589
0.206833
0.213555
0.217823
0.220309
0.221189
0.220705
0.219111
0.216602
0.213251
0.209202
0.204533
0.199309
0.193568
0.187374
0.180672
0.173576
0.16597
0.157967
0.149427
0.140472
0.130952
0.120848
0.110309
0.098885
0.0873452
0.0740687
0.0623527
0.0447742
0.0381987
0.00446675
0.0303048
-16.2764
-15.2999
-14.4335
-13.9852
-13.6052
-13.157
-12.6388
-12.0511
-11.4022
-10.7065
-9.98056
-9.22668
-8.46367
-7.70635
-6.96823
-6.25896
-5.58334
-4.94715
-4.35319
-3.80348
-3.29936
-2.83984
-2.4251
-2.05301
-1.72183
-1.42896
-1.17202
-0.947619
-0.753357
-0.58606
-0.442884
-0.321115
-0.218158
-0.131703
-0.059493
0.000459788
0.0498046
0.0902322
0.122964
0.149286
0.170019
0.186274
0.198646
0.207667
0.214172
0.218261
0.220587
0.221323
0.220723
0.219027
0.216433
0.213011
0.208904
0.204189
0.198928
0.193164
0.186949
0.180238
0.173134
0.165532
0.15753
0.149007
0.140062
0.130558
0.120478
0.109958
0.0985685
0.0870516
0.0738143
0.0621209
0.0446098
0.0380263
0.00443213
0.0302201
-16.76
-16.0372
-15.1038
-14.4816
-13.9784
-13.4496
-12.8739
-12.2422
-11.5581
-10.8336
-10.0861
-9.32074
-8.54703
-7.77566
-7.02323
-6.30155
-5.61543
-4.97043
-4.36918
-3.81355
-3.30463
-2.8414
-2.42377
-2.04954
-1.71684
-1.42297
-1.16541
-0.94075
-0.746463
-0.579345
-0.436482
-0.315125
-0.212641
-0.12669
-0.054994
0.00444573
0.0533029
0.0932648
0.125566
0.151479
0.171858
0.187783
0.199851
0.208618
0.21488
0.218771
0.220918
0.221496
0.220766
0.218959
0.21627
0.212771
0.2086
0.203835
0.198534
0.192741
0.186504
0.179782
0.172671
0.16507
0.157072
0.148562
0.139627
0.130142
0.120085
0.109587
0.09823
0.0867376
0.0735418
0.0618712
0.0444323
0.037836
0.00439642
0.0301129
-17.1816
-16.6864
-15.7933
-15.0493
-14.4247
-13.8063
-13.1629
-12.4784
-11.7517
-10.9909
-10.2118
-9.42404
-8.63744
-7.85443
-7.08731
-6.3508
-5.65217
-4.99669
-4.38685
-3.82427
-3.30982
-2.8423
-2.42139
-2.04478
-1.71042
-1.41548
-1.15731
-0.932444
-0.738214
-0.571377
-0.428939
-0.308113
-0.206216
-0.120878
-0.0498011
0.00903173
0.0573141
0.0967329
0.128531
0.153983
0.173952
0.189497
0.201225
0.209703
0.215696
0.219363
0.221309
0.221713
0.22084
0.218909
0.216115
0.212532
0.20829
0.203469
0.198126
0.192299
0.186039
0.179303
0.172184
0.164583
0.156589
0.14809
0.139168
0.129701
0.119668
0.109193
0.0978685
0.086402
0.0732501
0.0616027
0.0442413
0.0376265
0.00436075
0.0299813
-17.5215
-17.216
-16.4447
-15.6509
-14.9285
-14.2226
-13.5065
-12.7626
-11.9862
-11.1829
-10.3658
-9.54521
-8.73501
-7.93838
-7.15888
-6.40733
-5.69422
-5.02621
-4.40624
-3.83555
-3.31466
-2.84223
-2.41761
-2.03835
-1.70217
-1.40613
-1.14738
-0.922385
-0.728321
-0.561894
-0.420024
-0.299874
-0.198708
-0.114119
-0.0437903
0.0143196
0.0619234
0.100705
0.131918
0.156837
0.176334
0.191445
0.202789
0.210936
0.216628
0.220043
0.221765
0.221977
0.220944
0.218877
0.215967
0.21229
0.207971
0.203089
0.197699
0.191835
0.185551
0.178799
0.17167
0.164069
0.15608
0.147591
0.138682
0.129236
0.119226
0.108776
0.0974853
0.0860463
0.0729411
0.0613168
0.0440391
0.0373987
0.00432918
0.0298227
-17.7821
-17.6283
-17.0105
-16.2367
-15.4594
-14.6832
-13.8986
-13.0935
-12.2635
-11.4125
-10.5521
-9.69235
-8.84773
-8.02688
-7.23299
-6.46849
-5.74108
-5.05908
-4.42707
-3.84687
-3.31861
-2.84057
-2.41178
-2.0296
-1.6915
-1.39434
-1.13508
-0.910079
-0.716343
-0.550509
-0.4094
-0.290116
-0.189865
-0.106201
-0.0367785
0.0204629
0.0672587
0.105287
0.135816
0.160112
0.179063
0.193674
0.204577
0.212347
0.217697
0.220827
0.222296
0.222294
0.221083
0.218862
0.215825
0.212044
0.20764
0.202691
0.197249
0.191346
0.185033
0.178264
0.171125
0.163523
0.155538
0.147061
0.138165
0.128741
0.118756
0.108333
0.0970774
0.0856669
0.0726118
0.0610104
0.0438241
0.0371494
0.00430175
0.0296345
-17.969
-17.9245
-17.46
-16.7562
-15.9741
-15.1578
-14.3203
-13.4607
-12.5785
-11.6785
-10.7715
-9.86835
-8.98318
-8.12719
-7.30847
-6.52899
-5.78871
-5.09332
-4.44891
-3.8576
-3.32075
-2.83635
-2.40298
-2.01765
-1.67754
-1.37931
-1.11969
-0.894889
-0.701718
-0.536727
-0.396635
-0.278468
-0.179375
-0.0968576
-0.0285456
0.0276449
0.0734702
0.110601
0.140322
0.16389
0.182201
0.196234
0.20663
0.213966
0.218927
0.221732
0.222916
0.222673
0.22126
0.21887
0.21569
0.211794
0.207296
0.202273
0.196773
0.190827
0.184482
0.177695
0.170545
0.162942
0.15496
0.146497
0.137615
0.128213
0.118256
0.10786
0.0966429
0.0852624
0.072261
0.0606822
0.0435952
0.0368782
0.00427835
0.0294154
-18.0827
-18.1063
-17.7758
-17.1673
-16.4237
-15.6042
-14.7392
-13.8408
-12.9157
-11.9712
-11.019
-10.0712
-9.14273
-8.24599
-7.39183
-6.58709
-5.8315
-5.12392
-4.46826
-3.86606
-3.31994
-2.82832
-2.38981
-2.00119
-1.65914
-1.36001
-1.10026
-0.875951
-0.683691
-0.519903
-0.381177
-0.264458
-0.166833
-0.0857488
-0.018807
0.0361019
0.0807525
0.116809
0.14557
0.168278
0.185836
0.199193
0.209001
0.215837
0.22035
0.222785
0.223643
0.223127
0.221487
0.218905
0.215566
0.211541
0.206938
0.201832
0.196269
0.190275
0.183896
0.177088
0.169925
0.162321
0.154343
0.145894
0.137026
0.127649
0.117721
0.107354
0.0961784
0.0848296
0.0718856
0.0603295
0.0433506
0.0365819
0.00425856
0.0291632
-18.1314
-18.1825
-17.9486
-17.4407
-16.762
-15.9735
-15.1112
-14.1976
-13.2464
-12.2694
-11.2797
-10.2916
-9.321
-8.38246
-7.4883
-6.64836
-5.86758
-5.14517
-4.47887
-3.86738
-3.31264
-2.8145
-2.37068
-1.97852
-1.63457
-1.3349
-1.07551
-0.852181
-0.661296
-0.499179
-0.362292
-0.247477
-0.151735
-0.0724551
-0.00721358
0.0461214
0.0893401
0.124099
0.15171
0.173395
0.190062
0.202628
0.21175
0.218002
0.222
0.224007
0.224493
0.223667
0.221768
0.218971
0.215452
0.211284
0.206564
0.201366
0.195732
0.189686
0.183269
0.176439
0.169261
0.161656
0.153683
0.145248
0.136397
0.127047
0.117149
0.106814
0.0956821
0.0843671
0.0714848
0.0599515
0.0430896
0.0362608
0.00424293
0.028877
-18.1211
-18.1615
-17.9811
-17.5578
-16.9538
-16.2182
-15.387
-14.4845
-13.53
-12.539
-11.5267
-10.5091
-9.50377
-8.52747
-7.59443
-6.71631
-5.90174
-5.15481
-4.47409
-3.855
-3.29343
-2.78956
-2.34163
-1.94731
-1.60195
-1.30207
-1.04354
-0.821921
-0.633218
-0.473494
-0.339066
-0.226724
-0.1334
-0.0564181
0.00668506
0.0580695
0.0995337
0.13272
0.158944
0.179403
0.195006
0.206637
0.214954
0.220522
0.223922
0.225433
0.225492
0.22431
0.222115
0.219075
0.215353
0.211022
0.206172
0.200872
0.195159
0.189054
0.182596
0.17574
0.168548
0.160942
0.152973
0.144555
0.135722
0.1264
0.116536
0.106235
0.0951505
0.0838715
0.0710558
0.0595458
0.0428108
0.0359117
0.00423128
0.0285552
-18.0531
-18.0483
-17.8805
-17.5136
-16.9773
-16.3023
-15.5194
-14.6518
-13.7178
-12.7353
-11.7205
-10.6908
-9.66513
-8.66186
-7.69712
-6.78458
-5.93542
-5.15732
-4.45323
-3.82126
-3.25491
-2.748
-2.29733
-1.90179
-1.55702
-1.25888
-1.00246
-0.783295
-0.597537
-0.441173
-0.310207
-0.201222
-0.11103
-0.0369485
0.0234807
0.0724297
0.111711
0.142964
0.167503
0.186489
0.200819
0.211339
0.218703
0.223463
0.226165
0.227098
0.226663
0.225072
0.222539
0.21922
0.215268
0.210754
0.205756
0.200342
0.194542
0.188373
0.181869
0.174986
0.167778
0.16017
0.152208
0.143807
0.134995
0.125704
0.115877
0.105613
0.0945802
0.0833405
0.0705965
0.0591104
0.0425124
0.0355348
0.0042233
0.0281973
-17.9207
-17.8489
-17.6572
-17.3127
-16.8244
-16.2062
-15.4763
-14.6553
-13.7609
-12.8087
-11.8136
-10.7935
-9.76749
-8.7548
-7.77259
-6.83613
-5.95909
-5.15198
-4.42094
-3.76785
-3.18996
-2.68048
-2.2319
-1.8379
-1.49464
-1.19924
-0.947486
-0.733602
-0.552594
-0.400638
-0.273986
-0.169362
-0.0833738
-0.0131629
0.0438272
0.0897504
0.126359
0.155246
0.177716
0.194898
0.207684
0.216877
0.223112
0.226916
0.228798
0.229054
0.228043
0.225979
0.223054
0.219416
0.215202
0.210479
0.205316
0.199773
0.193876
0.187635
0.18108
0.174168
0.166943
0.159334
0.151379
0.142998
0.13421
0.124954
0.115167
0.104944
0.093967
0.0827697
0.0701034
0.0586423
0.0421927
0.0351264
0.00421822
0.0278023
-17.7155
-17.5649
-17.3237
-16.9707
-16.5022
-15.9234
-15.2428
-14.4715
-13.6239
-12.7152
-11.7592
-10.77
-9.76604
-8.76593
-7.7865
-6.84349
-5.9524
-5.12638
-4.37406
-3.69979
-3.10423
-2.5847
-2.13516
-1.74682
-1.41131
-1.12164
-0.874538
-0.666734
-0.493214
-0.34896
-0.229018
-0.130113
-0.0491511
0.0163388
0.068909
0.110844
0.143989
0.169935
0.189908
0.204934
0.21586
0.223446
0.228313
0.230973
0.231889
0.231348
0.229668
0.227051
0.223674
0.219668
0.215154
0.210193
0.204844
0.199155
0.193148
0.186829
0.180218
0.173274
0.166031
0.158423
0.150477
0.14212
0.133359
0.124141
0.1144
0.104222
0.093306
0.0821557
0.0695734
0.058139
0.0418491
0.034687
0.00421477
0.0273707
-17.45
-17.2138
-16.9013
-16.5108
-16.0352
-15.4718
-14.8225
-14.0928
-13.2925
-12.4334
-11.5255
-10.5815
-9.61851
-8.65258
-7.69855
-6.77098
-5.88592
-5.05814
-4.29806
-3.61178
-3.00234
-2.47019
-2.01273
-1.62405
-1.29588
-1.01828
-0.782847
-0.583913
-0.417686
-0.280902
-0.169736
-0.0799417
-0.0069895
0.0520278
0.0993664
0.136745
0.16571
0.187883
0.204587
0.216867
0.225531
0.231222
0.234484
0.235782
0.235543
0.23405
0.231581
0.228322
0.22442
0.219988
0.215129
0.209897
0.204334
0.198482
0.192353
0.185945
0.179273
0.172295
0.165033
0.157428
0.149493
0.141162
0.132433
0.123259
0.113567
0.103441
0.0925921
0.0814935
0.0690027
0.0575976
0.0414796
0.0342128
0.00421141
0.0269025
-17.1525
-16.8401
-16.4473
-15.9916
-15.4748
-14.8964
-14.2536
-13.5448
-12.7772
-11.9626
-11.1068
-10.2155
-9.30215
-8.38375
-7.47377
-6.58305
-5.72637
-4.91863
-4.17035
-3.48822
-2.87701
-2.33971
-1.8763
-1.48343
-1.1553
-0.884335
-0.66159
-0.478362
-0.326999
-0.201408
-0.0984628
-0.0160195
0.0483577
0.0981088
0.136935
0.16751
0.191273
0.209337
0.222474
0.231496
0.237263
0.24049
0.241739
0.241414
0.239838
0.237237
0.233842
0.229821
0.225303
0.220378
0.215124
0.20958
0.203776
0.197737
0.191471
0.184965
0.178227
0.171212
0.163933
0.156331
0.148412
0.140112
0.13142
0.122296
0.112661
0.102593
0.0918183
0.080778
0.0683865
0.0570141
0.0410804
0.0337043
0.00420556
0.0263997
-16.7594
-16.3982
-15.9599
-15.4617
-14.9064
-14.2918
-13.6202
-12.899
-12.1378
-11.3454
-10.5252
-9.67952
-8.81926
-7.95726
-7.10163
-6.26153
-5.45043
-4.68249
-3.96672
-3.30848
-2.71289
-2.18474
-1.72604
-1.335
-1.00745
-0.738153
-0.520615
-0.3475
-0.210756
-0.102546
-0.015985
0.054122
0.11027
0.153703
0.185674
0.208292
0.223951
0.235081
0.243033
0.248277
0.251086
0.2517
0.250568
0.248169
0.244888
0.24094
0.236474
0.231585
0.226355
0.220853
0.215138
0.209236
0.203157
0.19691
0.190489
0.183875
0.177064
0.17001
0.162714
0.155119
0.14722
0.138957
0.13031
0.121242
0.111673
0.10167
0.0909779
0.0800031
0.0677202
0.0563853
0.0406487
0.033158
0.00419421
0.0258632
-16.4468
-16.0562
-15.562
-14.9894
-14.3638
-13.6915
-12.9779
-12.2303
-11.4559
-10.6607
-9.85087
-9.03279
-8.21198
-7.39623
-6.59488
-5.81317
-5.05845
-4.34295
-3.67507
-3.05839
-2.4962
-1.99401
-1.55488
-1.17777
-0.859465