/*--------------------------------*- C++ -*----------------------------------*\
| =========                 |                                                 |
| \\      /  F ield         | OpenFOAM: The Open Source CFD Toolbox           |
|  \\    /   O peration     | Version:  2312                                  |
|   \\  /    A nd           | Website:  www.openfoam.com                      |
|    \\/     M anipulation  |                                                 |
\*---------------------------------------------------------------------------*/
FoamFile
{
    version     2.0;
    format      ascii;
    arch        "LSB;label=32;scalar=64";
    class       surfaceScalarField;
    location    "850";
    object      phi;
}
// * * * * * * * * * * * * * * * * * * * * * * * * * * * * * * * * * * * * * //

dimensions      [0 3 -1 0 0 0 0];

oriented        oriented;

internalField   nonuniform List<scalar> 
21876
(
0.0082235
0.000920287
-0.00914378
0.00236106
0.00586244
-0.000877652
0.00323873
-0.00158588
0.000708242
-0.00145263
-0.000133229
-0.00140806
-4.45568e-05
-0.00135403
-5.40176e-05
-0.00129722
-5.67927e-05
-0.00125018
-4.70249e-05
-0.00122229
-2.7852e-05
-0.00119284
-2.94453e-05
-0.0011666
-2.6207e-05
-0.00114923
-1.73497e-05
-0.00113263
-1.65509e-05
-0.00112414
-8.45643e-06
-0.00112099
-3.11247e-06
-0.00112519
4.22909e-06
-0.00113873
1.35797e-05
-0.00116148
2.28026e-05
-0.0011956
3.41875e-05
-0.00124051
4.49871e-05
-0.00129383
5.34212e-05
-0.00136014
6.63859e-05
-0.00144018
8.01019e-05
-0.00153106
9.08955e-05
-0.00162844
9.74329e-05
-0.00172561
9.7167e-05
-0.00181482
8.92409e-05
-0.00188719
7.23729e-05
-0.00193154
4.43606e-05
-0.0019355
3.96343e-06
-0.00189428
-4.12116e-05
-0.00180574
-8.85436e-05
-0.00166168
-0.000144044
-0.00145403
-0.000207641
-0.00117872
-0.000275295
-0.000832997
-0.000345701
-0.000360295
-0.00047268
0.000217185
-0.00057749
0.000566099
-0.000348587
-0.00219552
0.00276192
0.0115554
-0.000647928
-0.00998722
0.0102912
0.00712667
0.00501175
0.00851819
0.000233873
0.00548614
-0.00158467
0.00168534
-0.00164042
1.12266e-05
-0.0016579
-3.65065e-05
-0.00164192
-7.2736e-05
-0.00161738
-7.15302e-05
-0.00160764
-3.75555e-05
-0.00159466
-4.23983e-05
-0.00158081
-3.99985e-05
-0.00157516
-2.29507e-05
-0.00157047
-2.11742e-05
-0.00157405
-4.81963e-06
-0.00158501
7.91997e-06
-0.00160536
2.46594e-05
-0.00163652
4.48324e-05
-0.00167861
6.50073e-05
-0.00173421
8.98793e-05
-0.00180436
0.000115247
-0.00188551
0.000134689
-0.00197968
0.000160659
-0.00208292
0.00018345
-0.00218832
0.000196363
-0.00228916
0.000198336
-0.00237868
0.000186716
-0.00244971
0.000160306
-0.00249498
0.000117661
-0.0025087
5.81065e-05
-0.00248689
-1.78202e-05
-0.00242012
-0.000107953
-0.0022966
-0.000212029
-0.00210661
-0.000333994
-0.0018413
-0.000472896
-0.00149369
-0.000622854
-0.00105886
-0.000780468
-0.000513454
-0.00101801
0.000204519
-0.00129536
0.000961001
-0.00110486
-0.00365169
0.00241739
0.013274
-0.00291416
-0.0110078
0.0149926
0.00540806
0.0130157
0.0104951
0.00754605
0.0109558
0.00176946
0.00746193
-0.00114723
0.00292793
-0.00170542
0.000521695
-0.00184354
6.53952e-05
-0.00187691
-3.81518e-05
-0.00190998
-4.47889e-06
-0.00192983
-2.2546e-05
-0.00193678
-3.30362e-05
-0.00194879
-1.09438e-05
-0.00195873
-1.12186e-05
-0.00197556
1.20093e-05
-0.00199941
3.17803e-05
-0.00203243
5.7675e-05
-0.00207707
8.94727e-05
-0.00213355
0.0001215
-0.00220433
0.000160671
-0.00229006
0.000200989
-0.00238528
0.000229929
-0.00249128
0.000266678
-0.00260407
0.00029624
-0.00271749
0.000309771
-0.00282571
0.000306568
-0.0029225
0.000283496
-0.0030008
0.00023862
-0.00305292
0.000169769
-0.00307062
7.58168e-05
-0.00304449
-4.39548e-05
-0.00296311
-0.000189335
-0.00281531
-0.000359834
-0.00258951
-0.0005598
-0.00227564
-0.000786766
-0.00186418
-0.00103432
-0.00134867
-0.00129598
-0.000711433
-0.00165525
0.000115889
-0.00212271
0.00106011
-0.00204902
-0.0046871
0.00209557
0.0150648
-0.00553624
-0.0124428
0.0174744
0.00299851
0.0186836
0.00928595
0.0165034
0.013136
0.0107506
0.0132147
0.00399211
0.00968644
-0.000230274
0.0047441
-0.00159889
0.00143403
-0.00193029
0.000293275
-0.00208403
0.000149293
-0.00218564
7.9099e-05
-0.00224187
2.32255e-05
-0.0022901
3.73186e-05
-0.00232576
2.44802e-05
-0.00236236
4.86493e-05
-0.00240312
7.2592e-05
-0.00245116
0.000105774
-0.00251073
0.000149114
-0.00258215
0.000193005
-0.00266828
0.000246871
-0.0027697
0.000302483
-0.00287996
0.000340277
-0.00300079
0.000387582
-0.00312904
0.000424559
-0.00325936
0.000440143
-0.00338594
0.000433188
-0.00350179
0.000399377
-0.00359854
0.000335395
-0.00366648
0.00023773
-0.00369473
0.000104095
-0.0036712
-6.74633e-05
-0.00358301
-0.0002775
-0.00341754
-0.000525265
-0.00316098
-0.000816325
-0.00280151
-0.0011462
-0.00232731
-0.00150848
-0.00173022
-0.00189302
-0.000993291
-0.00239213
-7.46707e-05
-0.00304126
0.00101209
-0.00313566
-0.00553755
0.00186265
0.0169967
-0.00837807
-0.0141549
0.0194786
0.000516565
0.0218875
0.0068771
0.0230868
0.0119367
0.0209991
0.0153024
0.0150876
0.015598
0.00741599
0.0124157
0.00151917
0.00733087
-0.00113668
0.00294913
-0.00187186
0.000884495
-0.00222515
0.000432398
-0.00241218
0.000210261
-0.00254847
0.000173614
-0.00264258
0.000118607
-0.00271945
0.000125524
-0.00279039
0.000143547
-0.00286168
0.00017707
-0.00294182
0.00022927
-0.00303215
0.000283344
-0.00313723
0.000351975
-0.00325849
0.000423743
-0.00338907
0.000470863
-0.00353146
0.000529977
-0.0036833
0.0005764
-0.00383963
0.000596461
-0.00399408
0.00058764
-0.00413856
0.000543858
-0.00426301
0.000459854
-0.00435563
0.000330349
-0.00440317
0.000151637
-0.00439124
-7.93922e-05
-0.0043049
-0.000363834
-0.00412934
-0.000700833
-0.00384823
-0.00109743
-0.00344774
-0.00154669
-0.00291427
-0.00204194
-0.00223835
-0.00256893
-0.00140223
-0.00322825
-0.000406675
-0.00403681
0.000798025
-0.00434033
-0.00635651
0.00161701
0.0192953
-0.0115255
-0.0161479
0.0220678
-0.00225597
0.0245663
0.00437863
0.0270199
0.00948303
0.0283765
0.0139458
0.0266519
0.0173226
0.0208736
0.018194
0.0124804
0.0157241
0.00466589
0.0107636
0.00013765
0.00541275
-0.0015265
0.00209656
-0.00218473
0.000868519
-0.00256461
0.000553523
-0.00280716
0.000361184
-0.00297892
0.000297319
-0.0031152
0.000279872
-0.00323228
0.000294201
-0.00334799
0.000345036
-0.00346719
0.000402606
-0.00359882
0.000483664
-0.00374663
0.000571614
-0.00390437
0.000628664
-0.00407589
0.000701552
-0.00425974
0.000760306
-0.0044513
0.000788062
-0.00464358
0.000779953
-0.00482729
0.000727598
-0.00499068
0.000623263
-0.0051198
0.000459498
-0.00519905
0.000230907
-0.00521157
-6.68406e-05
-0.00513989
-0.000435494
-0.00496657
-0.000874122
-0.00467272
-0.00139124
-0.00424238
-0.001977
-0.00366085
-0.00262343
-0.00291819
-0.00331155
-0.00199743
-0.00414897
-0.000939248
-0.00509494
0.000355546
-0.00563508
-0.00723265
0.00123175
0.0220529
-0.0150628
-0.0185157
0.0252835
-0.00548652
0.0280053
0.00165678
0.0304879
0.00700046
0.0329581
0.0114756
0.0345949
0.0156858
0.0335115
0.0192774
0.0283008
0.0209348
0.0195747
0.0194897
0.010001
0.0149864
0.00295493
0.00914268
-0.000527159
0.00435063
-0.00184
0.00186638
-0.00253437
0.00105557
-0.0029588
0.000721777
-0.00325814
0.000579239
-0.00347997
0.000516055
-0.00366871
0.00053381
-0.00384091
0.000574833
-0.00401514
0.000657925
-0.00420042
0.000756905
-0.00439375
0.000822014
-0.00460249
0.000910303
-0.00482708
0.000984909
-0.00506379
0.00102477
-0.00530521
0.00102138
-0.00554099
0.000963387
-0.00575773
0.000840022
-0.0059394
0.000641174
-0.00606787
0.000359391
-0.00612367
-1.10286e-05
-0.00608642
-0.000472725
-0.00593594
-0.00102459
-0.00565081
-0.00167636
-0.00521306
-0.00241473
-0.00460763
-0.00322883
-0.00382504
-0.00409412
-0.00285194
-0.00512205
-0.00175437
-0.0061925
-0.000418509
-0.00697091
-0.0081999
0.000548755
0.0253946
-0.0191284
-0.0213289
0.0290917
-0.0091837
0.032281
-0.00153247
0.0349683
0.00431317
0.0373853
0.0090585
0.0398343
0.0132369
0.0417896
0.0173221
0.0415675
0.0211569
0.0374017
0.0236555
0.0290021
0.023386
0.0182672
0.0198776
0.00837895
0.0142388
0.00203605
0.0082093
-0.000865405
0.00395705
-0.00212777
0.00198417
-0.0028938
0.0013453
-0.00339029
0.00101259
-0.0037597
0.000903267
-0.00405004
0.000865227
-0.00430686
0.000914787
-0.00455315
0.00100324
-0.00479549
0.00106439
-0.00505078
0.00116564
-0.0053247
0.00125886
-0.00561643
0.00131654
-0.00591925
0.00132423
-0.00622219
0.00126635
-0.00651037
0.00112822
-0.00676568
0.000896507
-0.00696751
0.000561247
-0.00709363
0.000115106
-0.00712075
-0.000445582
-0.00702587
-0.00111946
-0.00678541
-0.00191679
-0.00637972
-0.00282041
-0.00579394
-0.00381459
-0.00502004
-0.004868
-0.00405065
-0.00609143
-0.00295826
-0.00728487
-0.0016561
-0.00827305
-0.00924233
-0.000613672
0.0294302
-0.0238914
-0.0246672
0.0336937
-0.0134473
0.037402
-0.00524073
0.0405625
0.00115264
0.0431868
0.00643428
0.0454923
0.0109314
0.0478473
0.0149671
0.050055
0.0189492
0.0507753
0.0229352
0.0480781
0.0260831
0.0408533
0.0271025
0.0298144
0.0252777
0.0175819
0.0204419
0.00759299
0.013946
0.0016942
0.00788299
-0.00100108
0.00404061
-0.0023519
0.00236346
-0.00322987
0.00178129
-0.00383012
0.00146551
-0.00429047
0.00137517
-0.00466797
0.00138077
-0.0049958
0.00139225
-0.00531719
0.00148705
-0.00565187
0.00159357
-0.0060079
0.00167259
-0.00638304
0.00169939
-0.0067681
0.00165143
-0.00714791
0.00150806
-0.00750272
0.00125134
-0.00780948
0.00086802
-0.00804316
0.000348818
-0.00817783
-0.000310899
-0.00818774
-0.00110951
-0.00804785
-0.00205666
-0.00773719
-0.00313104
-0.00724144
-0.00431032
-0.0065548
-0.00555462
-0.0056764
-0.00696982
-0.00467015
-0.00829112
-0.00349471
-0.00944849
-0.0102909
-0.00244616
0.0342844
-0.0295439
-0.0286319
0.0392756
-0.0184386
0.0435808
-0.00954596
0.0472697
-0.00253616
0.0503735
0.00333048
0.0529178
0.00838703
0.0550866
0.0127983
0.057272
0.0167638
0.0595796
0.0206276
0.0611306
0.0245321
0.0601243
0.0281088
0.0548036
0.0305984
0.0447015
0.0305439
0.0313667
0.0272808
0.0179315
0.0213183
0.00771562
0.0142565
0.00187664
0.00820245
-0.00090527
0.00456322
-0.00244002
0.00300029
-0.00347702
0.00241221
-0.00420626
0.00211003
-0.00474356
0.00192959
-0.00519917
0.00194269
-0.00563083
0.00202526
-0.00607153
0.00211332
-0.00653302
0.00216092
-0.00701437
0.00213279
-0.00750465
0.00199836
-0.00798538
0.00173209
-0.00843287
0.00131553
-0.00882037
0.000736333
-0.00911969
-1.15533e-05
-0.00930255
-0.000926642
-0.00934308
-0.00201611
-0.00921922
-0.00325488
-0.00891715
-0.00461237
-0.00843308
-0.00603869
-0.00777088
-0.007632
-0.00697699
-0.00908502
-0.00604329
-0.0103822
-0.0112241
-0.00511013
0.0401068
-0.0363135
-0.0333372
0.046018
-0.0243498
0.0510708
-0.0145987
0.0553706
-0.00683596
0.0589984
-0.000297316
0.0620228
0.0053627
0.0644797
0.0103414
0.0665078
0.0147356
0.0684692
0.0186662
0.0706758
0.0223256
0.0727653
0.0260193
0.0733544
0.0300093
0.0704422
0.0334561
0.0625606
0.0351623
0.049866
0.0340129
0.0344611
0.0296614
0.0197676
0.022896
0.00892357
0.0154072
0.00268918
0.0092347
-0.000438214
0.00553963
-0.00223817
0.00391002
-0.00338869
0.00308014
-0.00420883
0.00276287
-0.00487268
0.00268915
-0.00547744
0.00271812
-0.00607146
0.00275495
-0.00667943
0.00274079
-0.00730637
0.00262531
-0.00794246
0.0023682
-0.00856843
0.0019415
-0.00915975
0.00132767
-0.00968896
0.000517666
-0.0101275
-0.0004881
-0.0104501
-0.00169351
-0.0106333
-0.00307168
-0.0106627
-0.00458292
-0.0105343
-0.00616709
-0.010254
-0.00791233
-0.00984561
-0.00949338
-0.00930746
-0.0109204
-0.0118642
-0.00866728
0.0470812
-0.0444735
-0.0389213
0.054147
-0.0314155
0.0601405
-0.0205923
0.0651957
-0.0118911
0.0694327
-0.00453434
0.0729665
0.00182894
0.0758903
0.00741769
0.0782547
0.0123712
0.0801567
0.0167642
0.081876
0.0206063
0.0838155
0.0240799
0.0860747
0.0277501
0.0878501
0.0316808
0.0873774
0.0356349
0.0826386
0.0387517
0.0724707
0.0398292
0.0574539
0.0379128
0.0400084
0.0328527
0.0237052
0.0255379
0.0116155
0.0176294
0.00444248
0.0110831
0.00093295
0.0065897
-0.00103844
0.00473429
-0.00239485
0.00404559
-0.0034434
0.00376672
-0.00433978
0.00365136
-0.00518185
0.00358288
-0.00601918
0.00346265
-0.00686872
0.00321776
-0.00772839
0.00280117
-0.00858506
0.00218435
-0.00941854
0.00135116
-0.0102049
0.000298269
-0.0109241
-0.000974341
-0.0115525
-0.00244324
-0.0120748
-0.00406059
-0.0124829
-0.00575899
-0.0127828
-0.00761246
-0.0129708
-0.00930543
-0.0130314
-0.0108597
-0.0119736
-0.0129221
0.0554296
-0.0543527
-0.0455503
0.0639321
-0.0399181
0.0711037
-0.0277639
0.0771051
-0.0178925
0.0820941
-0.00952333
0.0862224
-0.00229932
0.0896312
0.00400893
0.0924345
0.00956786
0.0947016
0.0144971
0.0964962
0.0188117
0.0980062
0.0225699
0.0996248
0.0261315
0.101705
0.0296009
0.104055
0.0332849
0.105521
0.0372857
0.104139
0.0412109
0.0979237
0.044128
0.0858945
0.044882
0.0688103
0.0426221
0.0491863
0.0372533
0.0306212
0.0296481
0.0172942
0.0199167
0.00916128
0.0128672
0.00467231
0.0085346
0.00206956
0.00636948
0.000278383
0.0054426
-0.00116753
0.00502881
-0.00245889
0.00475407
-0.00369107
0.00444994
-0.00491324
0.00402339
-0.00614732
0.00341844
-0.0073961
0.00259998
-0.00864869
0.00155085
-0.0098969
0.000273904
-0.0111216
-0.00121851
-0.0123072
-0.00287502
-0.0134397
-0.00462648
-0.0145275
-0.00652464
-0.0155365
-0.00829645
-0.0164338
-0.00996233
-0.01127
-0.0171375
0.0654215
-0.0663485
-0.0534257
0.0757012
-0.0501977
0.0843382
-0.0364009
0.0915226
-0.0250769
0.0974499
-0.0154506
0.102314
-0.00716378
0.106294
2.94827e-05
0.10955
0.00631219
0.112214
0.0118331
0.114371
0.0166545
0.116077
0.0208634
0.117459
0.0247494
0.118795
0.0282651
0.120503
0.0315775
0.122829
0.0349597
0.125358
0.0386819
0.126721
0.0427641
0.124857
0.0467466
0.11777
0.0497085
0.104473
0.0505511
0.085659
0.0484617
0.065295
0.0402807
0.0462849
0.0318773
0.0309837
0.0238358
0.0202182
0.0171351
0.0133521
0.0123087
0.00908329
0.00929767
0.00622739
0.00760998
0.00402535
0.00665207
0.00207904
0.0059697
0.000201246
0.00529631
-0.00168547
0.0044867
-0.00360587
0.00347132
-0.00557589
0.00224391
-0.00758827
0.000793953
-0.00963448
-0.000828852
-0.0116955
-0.00256533
-0.0137853
-0.0044349
-0.0158374
-0.00624435
-0.0178114
-0.00798836
-0.00947142
-0.0196099
0.0773841
-0.0809414
-0.0627912
0.0898518
-0.0626653
0.1003
-0.0468496
0.108955
-0.0337318
0.116054
-0.0225494
0.121836
-0.0129455
0.126525
-0.00465909
0.13032
0.00251699
0.133398
0.00875486
0.135902
0.0141509
0.137936
0.018829
0.139583
0.0231027
0.140909
0.0269384
0.142079
0.0304085
0.143424
0.0336142
0.145362
0.036744
0.148053
0.0400726
0.150964
0.0438364
0.152647
0.048025
0.150999
0.0521992
0.143976
0.0554844
0.131524
0.052733
0.114757
0.0486444
0.0955719
0.043021
0.0761568
0.0365502
0.058528
0.0299376
0.0440388
0.0237869
0.0330859
0.018563
0.0252298
0.0145082
0.0196221
0.0115775
0.0154126
0.00950581
0.0119554
0.00794402
0.00883689
0.00658981
0.00580016
0.00528069
0.00273112
0.003863
-0.000420786
0.00232311
-0.0036591
0.000672964
-0.0070217
-0.00107226
-0.0103975
-0.00286852
-0.0137367
-0.0046492
-0.0062837
-0.0169244
0.0917135
-0.0987138
-0.073941
0.106866
-0.0778181
0.119545
-0.0595285
0.130018
-0.0442049
0.138573
-0.031104
0.145499
-0.0198717
0.151071
-0.0102313
0.155538
-0.00194939
0.159117
0.00517561
0.161993
0.0112748
0.16432
0.0165017
0.166238
0.0211857
0.167831
0.0253447
0.169157
0.0290823
0.170296
0.0324751
0.171445
0.0355953
0.172963
0.0385545
0.175259
0.041541
0.178469
0.0448144
0.18207
0.0485981
0.184657
0.0528982
0.184242
0.0531474
0.179814
0.0530729
0.170999
0.0518362
0.158184
0.049365
0.142327
0.0457948
0.124703
0.0414103
0.106708
0.036558
0.0896372
0.0315795
0.0744478
0.0267669
0.0615994
0.0223542
0.0510581
0.0184854
0.0424574
0.0151906
0.0352629
0.0124752
0.0290385
0.0100874
0.0234186
0.00794308
0.0181527
0.00593883
0.0129765
0.00410402
0.00789932
0.00220861
0.00285709
0.000393063
-0.00134299
-0.00208366
0.108884
-0.120371
-0.0872271
0.127325
-0.0962586
0.142741
-0.0749449
0.155454
-0.0569178
0.165811
-0.0414604
0.174161
-0.0282219
0.180837
-0.0169078
0.186144
-0.00725579
0.190349
0.000970708
0.193682
0.00794179
0.196337
0.0138461
0.198495
0.0190284
0.200293
0.0235467
0.201836
0.0275388
0.203192
0.0311197
0.204406
0.0343808
0.205566
0.0373944
0.20688
0.0402275
0.208708
0.0429857
0.211471
0.0458354
0.215345
0.0490245
0.219455
0.049037
0.222997
0.049531
0.224941
0.0498922
0.22438
0.0499264
0.220729
0.0494454
0.213813
0.0483265
0.203841
0.0465297
0.191316
0.044105
0.176922
0.0411602
0.161437
0.0378392
0.145634
0.0342889
0.130183
0.0306421
0.115487
0.0271707
0.101881
0.0236939
0.0894659
0.0203578
0.0782001
0.0172046
0.0677394
0.0145649
0.0581066
0.0118413
0.0490712
0.00942861
0.00713186
0.0405963
0.117367
-0.144274
-0.093464
0.137703
-0.116594
0.154697
-0.0919387
0.168698
-0.0709188
0.180086
-0.0528487
0.189245
-0.037381
0.196539
-0.024202
0.202302
-0.013018
0.206828
-0.00355558
0.210373
0.00439688
0.213155
0.0110643
0.21537
0.0168126
0.217179
0.0217383
0.218712
0.0260056
0.220076
0.0297553
0.221347
0.0331098
0.22257
0.0361721
0.223777
0.0390197
0.225046
0.0417176
0.22656
0.0443213
0.22865
0.0469345
0.231297
0.0463898
0.234662
0.0461657
0.238601
0.0459534
0.242718
0.0458098
0.246456
0.0457073
0.249216
0.045566
0.250466
0.0452799
0.249815
0.0447558
0.247055
0.0439207
0.242157
0.0427375
0.235245
0.0412006
0.226557
0.0393301
0.216338
0.0373896
0.204956
0.0350759
0.192779
0.0325352
0.180163
0.0298211
0.167143
0.027584
0.154173
0.0248113
0.141322
0.0222803
0.0196015
0.128852
0.124225
-0.170093
-0.0984064
0.146178
-0.138548
0.16452
-0.11028
0.179623
-0.0860221
0.191897
-0.0651225
0.201752
-0.0472366
0.209581
-0.0320303
0.21574
-0.0191769
0.220548
-0.00836401
0.224281
0.000663713
0.227176
0.00816999
0.229442
0.0145457
0.231254
0.0199269
0.232754
0.0245059
0.234061
0.0284475
0.235277
0.0318944
0.236478
0.0349712
0.237716
0.0377813
0.239019
0.0404151
0.240404
0.0429364
0.241929
0.0454095
0.24344
0.044878
0.245177
0.044429
0.247335
0.0437956
0.250054
0.043091
0.253366
0.0423948
0.257176
0.0417566
0.261267
0.0411888
0.265343
0.0406795
0.269072
0.0401916
0.272129
0.0396807
0.274232
0.0390979
0.275167
0.0383947
0.274787
0.0377701
0.273017
0.0368462
0.269859
0.035693
0.265384
0.0342955
0.259565
0.033404
0.252617
0.0317592
0.244616
0.0302806
0.0284346
0.235783
0.131803
-0.197973
-0.103923
0.1555
-0.162244
0.175296
-0.130076
0.191593
-0.102319
0.20483
-0.0783589
0.215448
-0.0578547
0.223867
-0.0404497
0.230472
-0.0257816
0.235604
-0.0134967
0.239562
-0.00329395
0.2426
0.00513214
0.244945
0.0122008
0.246783
0.0180887
0.24827
0.0230189
0.249535
0.0271823
0.250686
0.0307436
0.251812
0.0338454
0.252986
0.036607
0.254265
0.039136
0.255683
0.0415182
0.257254
0.0438385
0.258695
0.0434369
0.260086
0.0430387
0.261488
0.0423937
0.262998
0.0415803
0.264735
0.0406587
0.266808
0.0396836
0.269298
0.0386984
0.272236
0.0377413
0.275593
0.0368345
0.279284
0.03599
0.283177
0.0352053
0.287109
0.0344625
0.290921
0.0339582
0.294425
0.0333418
0.297457
0.0326616
0.299879
0.0318732
0.301591
0.0316922
0.30249
0.0308603
0.30252
0.0302503
0.0293125
0.301642
0.140111
-0.228074
-0.11001
0.165688
-0.187822
0.187055
-0.151443
0.204641
-0.119905
0.218921
-0.0926386
0.230369
-0.0693025
0.239436
-0.0495162
0.246533
-0.0328791
0.25203
-0.0189932
0.256245
-0.00750931
0.259454
0.00192301
0.2619
0.00975518
0.263782
0.016206
0.26527
0.0215309
0.266504
0.0259491
0.267598
0.0296495
0.268648
0.0327947
0.269735
0.0355205
0.270923
0.0379477
0.272267
0.0401742
0.273807
0.0422988
0.275269
0.0419745
0.276706
0.0416023
0.278113
0.040987
0.279493
0.0402001
0.280865
0.039287
0.282263
0.0382851
0.283738
0.0372231
0.285349
0.0361311
0.287151
0.0350324
0.289192
0.0339489
0.291501
0.0328957
0.294086
0.0318777
0.296943
0.0311016
0.300027
0.0302575
0.303279
0.0294098
0.306623
0.0285292
0.310025
0.0282897
0.313362
0.027524
0.31657
0.0270414
0.0263333
0.31955
0.149173
-0.26057
-0.116678
0.17678
-0.215429
0.199842
-0.174505
0.218823
-0.138886
0.234232
-0.108048
0.24658
-0.0816507
0.256352
-0.0592877
0.26399
-0.0405171
0.269889
-0.0248927
0.274394
-0.0120142
0.2778
-0.00148332
0.280368
0.00718793
0.282311
0.0142621
0.283813
0.0200296
0.285022
0.0247396
0.286065
0.0286069
0.287043
0.0318161
0.288043
0.0345213
0.289132
0.0368585
0.290369
0.0389376
0.291801
0.0408667
0.293173
0.0406022
0.294551
0.0402245
0.295939
0.0395984
0.297336
0.038803
0.298736
0.0378875
0.300131
0.0368899
0.301518
0.0358358
0.3029
0.0347497
0.304284
0.0336479
0.305687
0.0325459
0.307129
0.0314541
0.308631
0.0303754
0.310223
0.0295098
0.311921
0.0285597
0.313738
0.0275926
0.31568
0.0265874
0.317776
0.0261942
0.319998
0.025302
0.322349
0.0246907
0.0238828
0.324799
0.159027
-0.29565
-0.123947
0.188825
-0.245227
0.213719
-0.199398
0.234207
-0.159375
0.250839
-0.12468
0.264164
-0.0949753
0.274702
-0.0698259
0.28293
-0.0487449
0.289272
-0.0312348
0.294098
-0.0168403
0.297727
-0.0051119
0.300435
0.00447919
0.302456
0.0122417
0.303982
0.0185033
0.305176
0.0235456
0.306172
0.027611
0.307081
0.0309076
0.307992
0.0336095
0.308982
0.0358691
0.310109
0.0378101
0.311424
0.0395517
0.312677
0.0393492
0.313937
0.0389647
0.315216
0.0383195
0.316521
0.0374981
0.317855
0.0365542
0.319214
0.0355303
0.320594
0.0344558
0.321987
0.0333573
0.323382
0.0322522
0.324773
0.0311553
0.326152
0.0300749
0.327516
0.0290117
0.328868
0.0281578
0.330207
0.0272209
0.331536
0.0262636
0.33286
0.0252633
0.334201
0.0248533
0.335555
0.0239477
0.336939
0.0233072
0.022467
0.338355
0.169717
-0.333522
-0.131845
0.201885
-0.277395
0.228759
-0.226273
0.250879
-0.181494
0.268835
-0.142636
0.283218
-0.109359
0.294589
-0.081197
0.30346
-0.0576158
0.310287
-0.0380617
0.315467
-0.0220207
0.319344
-0.00898823
0.322214
0.00160936
0.324325
0.0101299
0.325887
0.0169412
0.327074
0.0223595
0.328028
0.026657
0.328868
0.0300671
0.329693
0.0327851
0.33058
0.0349813
0.331596
0.0367943
0.332792
0.0383556
0.333923
0.0382179
0.335059
0.0378292
0.336212
0.0371665
0.337391
0.0363188
0.338602
0.035343
0.339848
0.0342846
0.341128
0.0331757
0.34244
0.0320454
0.343779
0.030913
0.34514
0.029795
0.346514
0.0287009
0.347894
0.0276318
0.349277
0.0267747
0.350652
0.0258454
0.352012
0.0249033
0.353351
0.0239247
0.354677
0.0235275
0.355976
0.0226489
0.357252
0.022031
0.0212169
0.358502
0.181298
-0.374412
-0.140407
0.216028
-0.312125
0.245047
-0.255291
0.268933
-0.20538
0.288323
-0.162026
0.303856
-0.124891
0.316132
-0.0934735
0.325703
-0.067187
0.33306
-0.0454183
0.33863
-0.0275903
0.342781
-0.013139
0.345832
-0.00144164
0.348049
0.00791204
0.349658
0.0153327
0.350843
0.0211742
0.351759
0.0257407
0.352534
0.0292925
0.353271
0.0320481
0.354056
0.0341967
0.354957
0.0358932
0.35603
0.037282
0.357036
0.0372121
0.358045
0.0368204
0.359071
0.0361403
0.360125
0.0352654
0.361211
0.0342563
0.362335
0.0331611
0.363496
0.0320143
0.364695
0.0308466
0.365929
0.0296787
0.367197
0.028528
0.368493
0.0274049
0.369813
0.0263115
0.371158
0.0254299
0.372519
0.0244846
0.373889
0.0235329
0.375262
0.0225513
0.376647
0.0221429
0.378026
0.02127
0.3794
0.0206566
0.0198544
0.380763
0.193831
-0.41857
-0.149673
0.231336
-0.349631
0.262676
-0.286631
0.288476
-0.231181
0.309423
-0.182974
0.326203
-0.141671
0.339464
-0.106734
0.349798
-0.0775214
0.357734
-0.0533539
0.36373
-0.0335871
0.368185
-0.0175931
0.371438
-0.00469506
0.373777
0.00557274
0.375443
0.0136675
0.376634
0.0199831
0.377516
0.0248582
0.378226
0.0285825
0.378875
0.0313988
0.379555
0.033517
0.380339
0.0351092
0.381287
0.0363339
0.382164
0.0363357
0.383042
0.0359425
0.383938
0.0352442
0.384864
0.0343397
0.385826
0.0332936
0.38683
0.032157
0.387878
0.0309669
0.388969
0.0297559
0.390101
0.0285459
0.391274
0.0273552
0.392484
0.0261951
0.393728
0.0250679
0.395007
0.0241511
0.396314
0.0231775
0.397644
0.0222024
0.398993
0.0212026
0.40037
0.020766
0.401759
0.019881
0.403162
0.019253
0.0184438
0.404573
0.207384
-0.466265
-0.159689
0.247895
-0.390142
0.281751
-0.320487
0.309628
-0.259057
0.332265
-0.20561
0.3504
-0.159806
0.364732
-0.121066
0.375899
-0.0886877
0.384467
-0.0619223
0.390932
-0.0400525
0.395721
-0.0223815
0.3992
-0.00817386
0.401677
0.00309576
0.40341
0.0119344
0.404613
0.0187794
0.405465
0.0240062
0.406112
0.027936
0.406672
0.0308382
0.407245
0.0329445
0.407909
0.0344456
0.408728
0.0355149
0.40947
0.0355928
0.410213
0.0351997
0.410975
0.0344824
0.411769
0.0335454
0.412606
0.0324575
0.413489
0.0312736
0.414423
0.0300333
0.415408
0.028771
0.416443
0.0275103
0.417528
0.0262707
0.418659
0.0250641
0.419833
0.0238936
0.421052
0.0229321
0.422309
0.0219202
0.4236
0.0209117
0.424919
0.0198837
0.426276
0.0194089
0.427655
0.0185015
0.42906
0.0178485
0.0170224
0.430481
0.222032
-0.517793
-0.170503
0.265803
-0.433913
0.302389
-0.357074
0.33252
-0.289188
0.356993
-0.230083
0.376603
-0.179416
0.392101
-0.136565
0.404176
-0.100762
0.413436
-0.0711829
0.420416
-0.0470321
0.425573
-0.0275386
0.429302
-0.0119032
0.431935
0.000463467
0.433747
0.010122
0.43497
0.0175562
0.435795
0.0231816
0.436378
0.027353
0.436848
0.0303681
0.43731
0.0324826
0.437849
0.0339066
0.438534
0.0348299
0.439138
0.0349886
0.439741
0.0345973
0.440363
0.03386
0.441021
0.0328872
0.441726
0.0317526
0.442485
0.0305148
0.443302
0.0292164
0.444179
0.0278942
0.445116
0.0265736
0.446111
0.0252751
0.447164
0.0240118
0.44827
0.0227874
0.449431
0.0217707
0.450642
0.02071
0.451896
0.0196577
0.453188
0.0185913
0.454528
0.0180684
0.455901
0.0171292
0.457307
0.0164423
0.0155908
0.458739
0.237859
-0.57348
-0.182172
0.285166
-0.48122
0.324717
-0.396625
0.357297
-0.321768
0.383766
-0.256552
0.404981
-0.200631
0.421752
-0.153336
0.434818
-0.113828
0.444837
-0.0812014
0.452381
-0.0545766
0.457945
-0.0331026
0.461952
-0.0159107
0.464759
-0.00234355
0.466664
0.00821741
0.467914
0.0163063
0.468714
0.0223813
0.469234
0.0268335
0.46961
0.0299914
0.469957
0.0321359
0.470365
0.0334983
0.47091
0.0342855
0.471368
0.0345302
0.471823
0.0341425
0.472299
0.0333841
0.472814
0.032372
0.473382
0.0311852
0.47401
0.0298865
0.474705
0.028522
0.475468
0.0271309
0.476301
0.0257405
0.477203
0.024373
0.478173
0.0230423
0.479207
0.0217534
0.480307
0.0206707
0.481466
0.0195507
0.48268
0.0184441
0.483942
0.0173292
0.485262
0.0167481
0.486624
0.0157677
0.488028
0.0150378
0.0141524
0.489466
0.254955
-0.633679
-0.194756
0.306102
-0.532368
0.348874
-0.439396
0.384117
-0.357011
0.412759
-0.285194
0.435724
-0.223595
0.453883
-0.171496
0.468033
-0.127978
0.478882
-0.0920504
0.487048
-0.0627418
0.493061
-0.0391154
0.497377
-0.0202273
0.50038
-0.00534679
0.502391
0.0062069
0.503675
0.0150218
0.504454
0.0216024
0.504909
0.0263788
0.505188
0.0297122
0.505413
0.0319107
0.505683
0.0332285
0.506078
0.0338908
0.506381
0.0342271
0.506679
0.0338449
0.506998
0.0330642
0.507361
0.0320092
0.507782
0.0307646
0.508271
0.0293978
0.508834
0.0279587
0.509475
0.0264893
0.510197
0.0250192
0.510997
0.0235722
0.511876
0.0221637
0.51283
0.0207997
0.51386
0.0196402
0.514961
0.0184503
0.516125
0.0172793
0.517349
0.016106
0.51864
0.0154568
0.519982
0.0144261
0.521375
0.0136444
0.0127171
0.52281
0.273418
-0.698779
-0.208318
0.328739
-0.587689
0.375013
-0.48567
0.413155
-0.395153
0.444164
-0.316204
0.469037
-0.248468
0.488714
-0.191172
0.504051
-0.143315
0.515811
-0.103811
0.524659
-0.0715901
0.531168
-0.0456242
0.535828
-0.0248872
0.539051
-0.00857009
0.541183
0.00407512
0.54251
0.0136946
0.54327
0.0208424
0.543659
0.0259906
0.543835
0.0295357
0.54393
0.0318153
0.544051
0.0331078
0.544284
0.0336578
0.54442
0.0340917
0.544547
0.0337174
0.544698
0.0329136
0.544895
0.031812
0.545156
0.0305038
0.545492
0.0290615
0.545912
0.0275392
0.546419
0.025982
0.547016
0.0244221
0.547703
0.0228852
0.548478
0.0213882
0.54934
0.0199383
0.550289
0.0186915
0.551318
0.0174212
0.552421
0.0161756
0.553593
0.0149345
0.554842
0.0142073
0.556151
0.0131176
0.55752
0.0122755
0.0112986
0.558938
0.293358
-0.769206
-0.222931
0.353217
-0.647548
0.403303
-0.535755
0.444601
-0.436451
0.478193
-0.349795
0.505149
-0.275425
0.526485
-0.212507
0.543122
-0.159953
0.555883
-0.116571
0.565483
-0.0811908
0.57254
-0.0526811
0.577582
-0.0299288
0.581052
-0.0120401
0.583322
0.00180508
0.584701
0.0123154
0.585445
0.0200985
0.585764
0.0256716
0.585831
0.0294691
0.585786
0.0318602
0.585744
0.0331492
0.5858
0.0336022
0.585752
0.0341402
0.585692
0.0337767
0.585657
0.0329491
0.585671
0.0317974
0.585755
0.0304198
0.585922
0.0288947
0.586181
0.0272805
0.586537
0.025626
0.586993
0.0239661
0.587549
0.0223288
0.588205
0.0207326
0.588957
0.0191862
0.589807
0.0178414
0.590748
0.0164804
0.591773
0.0151503
0.592876
0.0138318
0.594066
0.0130171
0.595324
0.0118597
0.596651
0.0109488
0.00991481
0.598034
0.31489
-0.845427
-0.238669
0.379689
-0.712348
0.433926
-0.589992
0.478667
-0.481192
0.515076
-0.386204
0.54431
-0.304659
0.567461
-0.235659
0.585524
-0.178016
0.599385
-0.130432
0.609815
-0.0916209
0.617479
-0.0603447
0.622945
-0.0353947
0.626691
-0.0157865
0.629118
-0.000622079
0.630559
0.0108745
0.631289
0.0193684
0.631535
0.0254255
0.631483
0.0295212
0.631285
0.0320584
0.631065
0.0333696
0.630924
0.0337434
0.630671
0.0343928
0.630404
0.0340439
0.630161
0.0331923
0.62997
0.0319874
0.629855
0.0305351
0.62983
0.0289198
0.629905
0.0272051
0.630088
0.0254437
0.63038
0.0236738
0.630783
0.0219255
0.631297
0.0202194
0.631917
0.0185659
0.632646
0.0171122
0.633476
0.0156503
0.634401
0.0142258
0.635412
0.0128205
0.63652
0.0119085
0.637705
0.0106749
0.638967
0.00968694
0.00858831
0.640294
0.338143
-0.927955
-0.255615
0.408323
-0.782527
0.467085
-0.648754
0.515581
-0.529689
0.555068
-0.425691
0.586794
-0.336385
0.611935
-0.2608
0.631564
-0.197645
0.646635
-0.145504
0.65798
-0.102966
0.666316
-0.06868
0.672254
-0.0413327
0.67631
-0.0198425
0.678915
-0.0032274
0.680429
0.00936092
0.681147
0.0186497
0.681316
0.0252573
0.681134
0.0297029
0.680766
0.0324259
0.680347
0.0337892
0.679984
0.0341057
0.679502
0.0348747
0.679001
0.034545
0.678524
0.0336701
0.678102
0.0324094
0.67776
0.0308771
0.677515
0.0291645
0.677379
0.027341
0.677359
0.0254633
0.67746
0.0235731
0.677682
0.0217034
0.678025
0.0198768
0.678485
0.0181055
0.679065
0.0165324
0.679756
0.0149592
0.680552
0.0134304
0.681443
0.0119289
0.682442
0.0109098
0.683525
0.00959161
0.684694
0.00851816
0.00734747
0.685935
0.363256
-1.01735
-0.273857
0.4393
-0.858572
0.503
-0.712453
0.555598
-0.582287
0.598451