/*--------------------------------*- C++ -*----------------------------------*\
| =========                 |                                                 |
| \\      /  F ield         | OpenFOAM: The Open Source CFD Toolbox           |
|  \\    /   O peration     | Version:  2312                                  |
|   \\  /    A nd           | Website:  www.openfoam.com                      |
|    \\/     M anipulation  |                                                 |
\*---------------------------------------------------------------------------*/
FoamFile
{
    version     2.0;
    format      ascii;
    arch        "LSB;label=32;scalar=64";
    class       volScalarField;
    location    "850";
    object      turbulenceProperties:k;
}
// * * * * * * * * * * * * * * * * * * * * * * * * * * * * * * * * * * * * * //

dimensions      [0 2 -2 0 0 0 0];

internalField   nonuniform List<scalar> 
11040
(
0.402898
0.44198
0.0709729
0.0462928
0.275094
0.284014
0.269448
0.24615
0.221852
0.206584
0.192224
0.179752
0.169498
0.161567
0.155173
0.151849
0.151462
0.154237
0.159716
0.167799
0.178777
0.192329
0.208475
0.22747
0.249388
0.275163
0.303951
0.331725
0.356003
0.373886
0.382319
0.378693
0.363787
0.342794
0.324758
0.257455
0.135815
0.0838753
0.0356632
0.108018
0.216567
0.0336723
0.0695909
0.235458
0.422641
0.81579
0.274037
0.0851946
0.0294042
0.00777123
0.00555353
0.013595
0.0181606
0.0211786
0.023317
0.0247125
0.0260371
0.0276702
0.0296502
0.0316936
0.0337874
0.0359894
0.0383972
0.0403638
0.0411839
0.0406567
0.039565
0.0382421
0.0357306
0.0320655
0.0278123
0.0242695
0.0231943
0.023354
0.0261908
0.0324044
0.0420694
0.0556953
0.0735007
0.118042
0.134494
0.551463
0.0207582
0.0185668
0.0410061
0.176814
0.94316
1.27176
0.662441
0.251145
0.118416
0.0709005
0.0400725
0.0230011
0.0112508
0.00341514
0.00304596
0.00669127
0.00935558
0.0113311
0.0127781
0.0137756
0.0144332
0.0147593
0.0143858
0.0131743
0.0113943
0.00942234
0.00740835
0.00516378
0.00247583
0.00363077
0.0105273
0.0209877
0.0351524
0.0533735
0.0763173
0.105328
0.141801
0.183509
0.274246
0.358528
0.524823
0.0149188
0.012762
0.0105922
0.0163574
0.224569
1.09189
1.63902
1.10638
0.463289
0.249345
0.147951
0.0996087
0.0700533
0.0498837
0.0371672
0.028201
0.022687
0.0191123
0.0171393
0.0164403
0.0165997
0.0175819
0.0195258
0.0222665
0.0251713
0.0277046
0.0294357
0.0300331
0.0295207
0.0291065
0.0321442
0.0427539
0.0624711
0.0917504
0.131082
0.182454
0.248032
0.323331
0.459789
0.632878
0.567503
0.0111089
0.0100174
0.0106667
0.00536109
0.00705791
0.199702
1.03707
1.84982
1.59787
0.80552
0.425579
0.257717
0.178281
0.128785
0.100002
0.0796858
0.0672993
0.0590615
0.0541844
0.0518017
0.0509636
0.0513127
0.0529289
0.0557256
0.0588973
0.0617543
0.063678
0.0641017
0.0628325
0.0607751
0.061269
0.0708669
0.0956772
0.137572
0.196517
0.274409
0.374045
0.490497
0.662898
0.929828
0.751388
0.00801611
0.00736111
0.00715918
0.00792662
0.00245427
0.00171814
0.13467
0.82922
1.8755
2.03437
1.32546
0.678138
0.420564
0.282858
0.209665
0.16237
0.134482
0.116377
0.105208
0.0992132
0.0962321
0.0953588
0.096387
0.0992265
0.102848
0.106334
0.108716
0.108945
0.106284
0.101139
0.0968382
0.102443
0.13014
0.185178
0.266616
0.375104
0.513246
0.676123
0.879154
1.22105
1.03321
0.00578959
0.00553339
0.00519551
0.00552932
0.00572249
0.00110858
4.71574e-05
0.0628749
0.555233
1.63145
2.28629
1.92641
1.12716
0.641748
0.431371
0.316634
0.247996
0.204859
0.178402
0.163872
0.156064
0.152855
0.153079
0.156293
0.160943
0.165684
0.169026
0.169228
0.164686
0.154946
0.14259
0.138073
0.161606
0.226676
0.331354
0.472685
0.651241
0.861098
1.0943
1.47951
1.35109
0.00422541
0.00413153
0.00406934
0.00390917
0.00422749
0.00443752
0.000213596
2.33931e-06
0.0193566
0.298179
1.1744
2.22345
2.41134
1.76679
1.02564
0.643019
0.459997
0.359222
0.296758
0.259784
0.239018
0.229992
0.227907
0.231292
0.237483
0.24435
0.249612
0.25053
0.244129
0.228653
0.204796
0.181454
0.185725
0.249736
0.374194
0.547679
0.765153
1.01729
1.28074
1.6685
1.63624
0.00312104
0.00307702
0.00308286
0.00305753
0.00293771
0.0033167
0.00317939
0.000441933
0.000384803
0.00074854
0.114013
0.673417
1.76132
2.56723
2.40768
1.65806
0.998415
0.670425
0.506856
0.416461
0.364186
0.339195
0.329888
0.331433
0.338867
0.348165
0.355936
0.358429
0.351244
0.330312
0.293267
0.243583
0.205087
0.238473
0.370478
0.571566
0.822731
1.10806
1.39601
1.75522
1.81484
0.00231806
0.00229751
0.00231425
0.00233932
0.00232001
0.00224889
0.00252685
0.00227217
0.000742636
9.8455e-05
0.0017714
0.0253534
0.291263
1.09545
2.21274
2.75345
2.39134
1.62934
1.02856
0.726435
0.579698
0.50856
0.476457
0.468059
0.473403
0.485472
0.497981
0.504124
0.497443
0.472253
0.423412
0.347358
0.25074
0.188806
0.287909
0.50844
0.786131
1.09338
1.39411
1.70895
1.83003
0.0017291
0.0017195
0.00173677
0.00176407
0.00178895
0.00177273
0.00174854
0.00186808
0.00185573
0.000982804
6.74727e-05
0.000329033
0.000248232
0.078214
0.499012
1.45175
2.50706
2.86864
2.42604
1.6873
1.11816
0.838055
0.720915
0.673449
0.660054
0.666116
0.680546
0.692727
0.692984
0.671633
0.619086
0.527068
0.391176
0.21371
0.0922607
0.322461
0.623102
0.941734
1.24038
1.50415
1.64783
0.00129239
0.00128849
0.00130091
0.00132569
0.00135177
0.00137252
0.00136827
0.00135441
0.00139953
0.00145704
0.00108535
3.52673e-05
1.91629e-05
0.00134776
0.00985344
0.148861
0.681107
1.69037
2.68119
2.97594
2.54288
1.87511
1.36369
1.08543
0.966954
0.932714
0.933272
0.942657
0.946924
0.93367
0.891055
0.808203
0.677911
0.499441
0.289116
0.190556
0.408404
0.701727
0.971602
1.17529
1.29363
0.000966527
0.000965658
0.00097399
0.00099294
0.00101662
0.00103914
0.00105703
0.00106157
0.00105393
0.00106672
0.00112874
0.000977721
0.000237345
2.39064e-05
0.000141458
0.00278613
0.0205262
0.202885
0.78185
1.79128
2.76439
3.11235
2.84925
2.35503
1.89047
1.56521
1.38647
1.31446
1.29877
1.29442
1.272
1.21587
1.12053
0.990928
0.846485
0.729119
0.701664
0.786808
0.921207
1.01449
1.0256
0.000722234
0.000723007
0.000728371
0.000742053
0.000761217
0.000781638
0.000800688
0.00081679
0.000825634
0.000824015
0.000824937
0.000868347
0.000839973
0.000485638
7.93773e-06
3.57831e-06
0.0003447
0.00421097
0.0279615
0.218613
0.781713
1.71283
2.64292
3.19706
3.28473
3.07217
2.74742
2.42187
2.15275
1.96051
1.83902
1.76507
1.71047
1.6559
1.59938
1.55133
1.52816
1.53718
1.57209
1.59564
1.49669
0.000538496
0.000540106
0.000543533
0.000553237
0.000567905
0.000584737
0.000601903
0.000618171
0.000632563
0.000643142
0.000645787
0.000646985
0.000668285
0.000675519
0.000592439
0.000171711
1.97868e-05
3.53475e-07
0.000591891
0.00432252
0.0256554
0.177421
0.57996
1.27122
2.11819
2.89169
3.41905
3.66466
3.69371
3.58481
3.39287
3.15932
2.92414
2.7243
2.58669
2.52238
2.52888
2.58223
2.65374
2.72455
2.65237
0.000400165
0.000402022
0.000404213
0.000411025
0.000421956
0.000435074
0.000449151
0.000463509
0.000477396
0.000490033
0.000500527
0.000506272
0.000510104
0.000515383
0.000539782
0.000507884
0.000394826
3.06115e-05
6.95057e-06
8.32486e-08
0.000660976
0.00287079
0.00891289
0.0716938
0.26041
0.641275
1.22124
1.93807
2.6836
3.35632
3.8927
4.26727
4.48245
4.55897
4.53207
4.44211
4.3307
4.22616
4.15538
4.15389
4.08224
0.000296902
0.000298635
0.000300091
0.000304901
0.000312945
0.00032284
0.000333808
0.000345419
0.000357252
0.000368775
0.000379515
0.000388953
0.000396368
0.000400709
0.000406424
0.000415999
0.000430309
0.000380918
0.000234482
7.69125e-06
3.7005e-06
5.57317e-08
0.00019434
0.00167594
0.000993553
0.0102277
0.0510308
0.167181
0.39726
0.767763
1.27966
1.90656
2.60268
3.31644
3.99813
4.60209
5.10108
5.48264
5.75763
5.97793
6.041
0.000222414
0.000223949
0.000225047
0.000228633
0.000234694
0.00024224
0.00025074
0.000259936
0.000269529
0.000279207
0.000288635
0.000297544
0.000305705
0.000312779
0.000318013
0.000322598
0.000328304
0.000341125
0.000343561
0.000296798
0.000163145
5.26636e-06
3.07438e-06
1.96927e-07
1.89805e-05
0.000261729
0.00113088
0.00189799
0.000651388
0.00880155
0.0414528
0.120966
0.2717
0.51743
0.872477
1.33838
1.90361
2.55036
3.24581
3.97428
4.627
0.000169736
0.000171087
0.000171984
0.000174765
0.000179448
0.000185311
0.000191994
0.000199346
0.000207169
0.00021522
0.000223271
0.000231111
0.00023856
0.000245513
0.000251738
0.000257124
0.000261133
0.000265921
0.000272518
0.000281567
0.000279029
0.000234921
0.000158183
1.88876e-05
4.23361e-06
9.93065e-07
8.98001e-08
0
7.94306e-06
0.000184932
0.000934601
0.00140334
4.42026e-06
0.00112247
0.00787796
0.032701
0.0876103
0.188224
0.348479
0.582246
0.891965
0.000131916
0.000133061
0.000133804
0.000135999
0.000139666
0.000144268
0.000149551
0.000155416
0.000161737
0.000168339
0.000175068
0.000181789
0.000188359
0.000194649
0.000200553
0.000206009
0.000210865
0.000215024
0.000218628
0.000223206
0.00022956
0.000235074
0.000234205
0.000207797
0.000156554
9.84842e-05
9.71454e-06
2.79404e-06
8.14817e-07
4.35949e-07
2.26517e-08
0
9.12741e-08
1.60084e-05
0.000159137
0.000745914
0.00120061
0.000925021
0.000753167
0.000307056
0.00576354
0.000103915
0.000104864
0.000105487
0.000107244
0.000110148
0.000113797
0.000118008
0.000122709
0.000127806
0.000133179
0.000138716
0.000144326
0.000149916
0.000155386
0.00016065
0.000165633
0.000170288
0.000174555
0.000178348
0.000181693
0.000184842
0.000188953
0.000193572
0.00019955
0.000199572
0.000193887
0.000172193
0.00013628
9.42128e-05
5.30044e-05
2.98533e-06
1.54634e-06
6.24687e-07
4.16036e-07
2.24137e-07
2.85363e-08
0
0
0
2.22087e-06
9.57015e-05
8.27449e-05
8.35234e-05
8.4056e-05
8.54806e-05
8.78031e-05
9.07217e-05
9.41019e-05
9.7888e-05
0.00010201
0.000106378
0.000110907
0.000115535
0.000120193
0.000124811
0.000129324
0.000133674
0.000137811
0.000141698
0.000145306
0.000148623
0.000151507
0.000154101
0.000156564
0.000159619
0.000163282
0.000166875
0.000170963
0.000171503
0.000167008
0.000159038
0.000141896
0.000117285
8.9396e-05
6.15967e-05
3.5011e-05
4.79174e-06
1.40368e-06
4.74366e-07
3.6363e-07
2.60665e-07
1.64102e-07
6.6454e-05
6.70898e-05
6.75501e-05
6.87151e-05
7.05863e-05
7.29365e-05
7.56648e-05
7.87266e-05
8.20662e-05
8.56159e-05
8.93118e-05
9.31056e-05
9.69493e-05
0.000100787
0.000104571
0.000108255
0.000111801
0.000115173
0.000118343
0.00012131
0.000123986
0.000126349
0.00012845
0.000130267
0.000132028
0.000133822
0.000136016
0.000138597
0.000141209
0.000143323
0.000145585
0.000145725
0.000143411
0.000138544
0.000131785
0.000120817
0.000106237
8.89827e-05
7.09201e-05
5.29223e-05
3.52209e-05
5.37438e-05
5.42622e-05
5.46638e-05
5.56239e-05
5.71411e-05
5.90447e-05
6.12577e-05
6.3743e-05
6.64556e-05
6.93429e-05
7.23556e-05
7.5455e-05
7.86048e-05
8.17628e-05
8.48897e-05
8.79512e-05
9.09159e-05
9.37546e-05
9.64407e-05
9.89689e-05
0.000101267
0.000103319
0.000105171
0.000106766
0.000108123
0.00010929
0.000110305
0.000111258
0.000112254
0.000113279
0.00011447
0.000115789
0.000117076
0.000118201
0.000118991
0.000119765
0.000119794
0.000118767
0.000116639
0.000113253
0.000109458
4.37128e-05
4.41355e-05
4.44882e-05
4.52842e-05
4.6521e-05
4.80702e-05
4.98724e-05
5.1896e-05
5.41038e-05
5.64543e-05
5.89084e-05
6.1435e-05
6.40056e-05
6.65874e-05
6.91487e-05
7.16618e-05
7.41011e-05
7.64425e-05
7.86629e-05
8.07564e-05
8.26582e-05
8.43556e-05
8.58863e-05
8.72078e-05
8.83292e-05
8.92723e-05
9.00454e-05
9.06553e-05
9.11197e-05
9.14621e-05
9.16985e-05
9.18684e-05
9.19999e-05
9.21246e-05
9.2234e-05
9.23586e-05
9.24889e-05
9.26156e-05
9.27236e-05
9.26787e-05
9.26861e-05
3.5721e-05
3.60666e-05
3.6378e-05
3.70417e-05
3.80548e-05
3.93215e-05
4.07946e-05
4.24469e-05
4.42475e-05
4.6163e-05
4.8162e-05
5.02193e-05
5.23115e-05
5.44122e-05
5.64961e-05
5.85409e-05
6.05252e-05
6.24291e-05
6.42327e-05
6.59303e-05
6.74661e-05
6.88308e-05
7.00568e-05
7.11055e-05
7.19837e-05
7.27091e-05
7.32919e-05
7.37377e-05
7.40521e-05
7.4243e-05
7.43165e-05
7.42803e-05
7.41408e-05
7.39121e-05
7.36084e-05
7.32334e-05
7.2796e-05
7.23157e-05
7.18218e-05
7.12859e-05
7.07699e-05
2.93035e-05
2.95869e-05
2.98633e-05
3.04198e-05
3.12538e-05
3.22938e-05
3.3502e-05
3.48548e-05
3.63261e-05
3.78887e-05
3.95172e-05
4.11908e-05
4.28903e-05
4.45939e-05
4.62814e-05
4.79343e-05
4.95353e-05
5.10674e-05
5.25141e-05
5.38701e-05
5.50882e-05
5.61629e-05
5.71233e-05
5.79359e-05
5.86043e-05
5.91428e-05
5.95603e-05
5.98624e-05
6.00555e-05
6.01468e-05
6.01434e-05
6.00523e-05
5.98777e-05
5.96281e-05
5.93116e-05
5.89305e-05
5.8488e-05
5.79921e-05
5.74641e-05
5.6875e-05
5.63109e-05
2.41154e-05
2.43492e-05
2.45959e-05
2.50653e-05
2.57555e-05
2.66131e-05
2.76076e-05
2.87181e-05
2.99226e-05
3.11989e-05
3.25261e-05
3.3887e-05
3.52656e-05
3.66437e-05
3.80051e-05
3.93346e-05
4.06179e-05
4.1841e-05
4.29901e-05
4.40606e-05
4.50133e-05
4.58456e-05
4.65845e-05
4.72011e-05
4.76979e-05
4.80868e-05
4.83752e-05
4.85679e-05
4.86707e-05
4.86901e-05
4.86324e-05
4.85046e-05
4.83111e-05
4.80596e-05
4.77575e-05
4.74074e-05
4.70122e-05
4.65783e-05
4.61233e-05
4.5621e-05
4.51435e-05
1.98974e-05
2.00919e-05
2.03134e-05
2.07121e-05
2.12865e-05
2.19971e-05
2.28187e-05
2.37327e-05
2.47209e-05
2.57648e-05
2.6847e-05
2.79534e-05
2.90705e-05
3.01835e-05
3.12787e-05
3.23439e-05
3.33675e-05
3.43378e-05
3.52435e-05
3.60808e-05
3.68174e-05
3.74532e-05
3.80131e-05
3.84727e-05
3.88337e-05
3.91062e-05
3.92969e-05
3.94098e-05
3.945e-05
3.9423e-05
3.93345e-05
3.91903e-05
3.89944e-05
3.87533e-05
3.84732e-05
3.81565e-05
3.78059e-05
3.74262e-05
3.70324e-05
3.66047e-05
3.61906e-05
1.64515e-05
1.66153e-05
1.68156e-05
1.71568e-05
1.76379e-05
1.82296e-05
1.89109e-05
1.96657e-05
2.04782e-05
2.13333e-05
2.22166e-05
2.31162e-05
2.4021e-05
2.49188e-05
2.57979e-05
2.66488e-05
2.74619e-05
2.82279e-05
2.89373e-05
2.95873e-05
3.01515e-05
3.06317e-05
3.10503e-05
3.13873e-05
3.16439e-05
3.18288e-05
3.19477e-05
3.20043e-05
3.20028e-05
3.19481e-05
3.18449e-05
3.16981e-05
3.15113e-05
3.12897e-05
3.10384e-05
3.07596e-05
3.04555e-05
3.01297e-05
2.97946e-05
2.94355e-05
2.90817e-05
1.36247e-05
1.37648e-05
1.39474e-05
1.42419e-05
1.46477e-05
1.51431e-05
1.57105e-05
1.63358e-05
1.70056e-05
1.77075e-05
1.84293e-05
1.91612e-05
1.9894e-05
2.06176e-05
2.13223e-05
2.20002e-05
2.26441e-05
2.32462e-05
2.37991e-05
2.43004e-05
2.47291e-05
2.50877e-05
2.53968e-05
2.56398e-05
2.58177e-05
2.59379e-05
2.60054e-05
2.60235e-05
2.59958e-05
2.59262e-05
2.58189e-05
2.5678e-05
2.55063e-05
2.53082e-05
2.50879e-05
2.48472e-05
2.45878e-05
2.43124e-05
2.40314e-05
2.37333e-05
2.34356e-05
1.12976e-05
1.142e-05
1.15877e-05
1.18441e-05
1.2189e-05
1.26062e-05
1.30811e-05
1.36011e-05
1.41551e-05
1.47325e-05
1.53235e-05
1.59196e-05
1.65132e-05
1.70963e-05
1.76607e-05
1.82e-05
1.87087e-05
1.91805e-05
1.96095e-05
1.99941e-05
2.03175e-05
2.05828e-05
2.08085e-05
2.09809e-05
2.11008e-05
2.11748e-05
2.1207e-05
2.12004e-05
2.11579e-05
2.10828e-05
2.09787e-05
2.08487e-05
2.06954e-05
2.05222e-05
2.03323e-05
2.01275e-05
1.99089e-05
1.96785e-05
1.94452e-05
1.91997e-05
1.89508e-05
9.37644e-06
9.48555e-06
9.64089e-06
9.86622e-06
1.01616e-05
1.05154e-05
1.0915e-05
1.13494e-05
1.18093e-05
1.22858e-05
1.27708e-05
1.32571e-05
1.37385e-05
1.42086e-05
1.46605e-05
1.50891e-05
1.54902e-05
1.58589e-05
1.61906e-05
1.64842e-05
1.67264e-05
1.69206e-05
1.70831e-05
1.72028e-05
1.72804e-05
1.73216e-05
1.73299e-05
1.73079e-05
1.7258e-05
1.7183e-05
1.70858e-05
1.6969e-05
1.68346e-05
1.66853e-05
1.65239e-05
1.63514e-05
1.61692e-05
1.59781e-05
1.57861e-05
1.55851e-05
1.53792e-05
7.78644e-06
7.88599e-06
8.03078e-06
8.23068e-06
8.48593e-06
8.78802e-06
9.12626e-06
9.49115e-06
9.87463e-06
1.02694e-05
1.06687e-05
1.10664e-05
1.14575e-05
1.18368e-05
1.21989e-05
1.25396e-05
1.28556e-05
1.31435e-05
1.33995e-05
1.36231e-05
1.38038e-05
1.3945e-05
1.40612e-05
1.4143e-05
1.41912e-05
1.42107e-05
1.42045e-05
1.41747e-05
1.41233e-05
1.40527e-05
1.3965e-05
1.38626e-05
1.3747e-05
1.36202e-05
1.34845e-05
1.33408e-05
1.31901e-05
1.30328e-05
1.28758e-05
1.27121e-05
1.25419e-05
6.46794e-06
6.5607e-06
6.6965e-06
6.87543e-06
7.09797e-06
7.35795e-06
7.64623e-06
7.95453e-06
8.27604e-06
8.60462e-06
8.9346e-06
9.261e-06
9.57961e-06
9.88633e-06
1.01769e-05
1.04478e-05
1.06967e-05
1.0921e-05
1.11181e-05
1.12874e-05
1.14211e-05
1.15222e-05
1.16034e-05
1.16571e-05
1.16841e-05
1.16885e-05
1.16729e-05
1.16391e-05
1.15888e-05
1.15238e-05
1.14461e-05
1.13573e-05
1.12587e-05
1.1152e-05
1.1039e-05
1.09202e-05
1.07965e-05
1.0668e-05
1.05408e-05
1.04078e-05
1.02699e-05
5.37291e-06
5.46095e-06
5.58887e-06
5.75044e-06
5.94626e-06
6.17188e-06
6.41942e-06
6.68171e-06
6.95293e-06
7.22796e-06
7.50204e-06
7.77109e-06
8.03163e-06
8.28049e-06
8.51437e-06
8.73047e-06
8.9271e-06
9.1025e-06
9.2548e-06
9.38378e-06
9.48339e-06
9.5564e-06
9.61375e-06
9.6492e-06
9.66344e-06
9.65986e-06
9.64078e-06
9.60759e-06
9.56165e-06
9.5045e-06
9.43762e-06
9.36242e-06
9.2799e-06
9.1913e-06
9.09808e-06
9.00073e-06
8.89989e-06
8.79534e-06
8.69259e-06
8.58522e-06
8.47152e-06
4.46245e-06
4.54725e-06
4.66818e-06
4.81527e-06
4.98919e-06
5.18667e-06
5.40095e-06
5.62576e-06
5.85613e-06
6.08777e-06
6.31673e-06
6.53965e-06
6.75365e-06
6.95628e-06
7.14498e-06
7.31753e-06
7.47272e-06
7.60937e-06
7.7262e-06
7.82315e-06
7.89572e-06
7.94639e-06
7.98468e-06
8.00548e-06
8.00947e-06
7.99959e-06
7.97782e-06
7.94533e-06
7.90324e-06
7.85281e-06
7.79524e-06
7.73163e-06
7.66277e-06
7.58962e-06
7.51329e-06
7.43412e-06
7.3527e-06
7.26848e-06
7.18672e-06
7.09972e-06
7.01139e-06
3.70507e-06
3.78757e-06
3.90219e-06
4.03715e-06
4.19304e-06
4.36736e-06
4.55429e-06
4.7484e-06
4.94545e-06
5.14185e-06
5.33433e-06
5.52016e-06
5.69709e-06
5.86327e-06
6.01687e-06
6.15618e-06
6.28043e-06
6.38896e-06
6.48097e-06
6.55654e-06
6.61237e-06
6.65029e-06
6.67852e-06
6.69274e-06
6.69353e-06
6.68334e-06
6.66381e-06
6.63585e-06
6.60039e-06
6.55842e-06
6.51092e-06
6.45879e-06
6.40264e-06
6.34321e-06
6.28145e-06
6.21761e-06
6.15216e-06
6.08446e-06
6.01911e-06
5.94996e-06
5.87508e-06
3.07501e-06
3.15571e-06
3.26452e-06
3.38925e-06
3.53021e-06
3.68533e-06
3.84955e-06
4.01824e-06
4.18786e-06
4.35543e-06
4.51825e-06
4.67405e-06
4.82097e-06
4.95749e-06
5.08223e-06
5.19388e-06
5.29189e-06
5.37592e-06
5.44562e-06
5.50114e-06
5.54025e-06
5.56475e-06
5.58167e-06
5.58752e-06
5.58292e-06
5.56997e-06
5.55009e-06
5.52404e-06
5.49256e-06
5.45646e-06
5.4165e-06
5.37336e-06
5.32752e-06
5.27952e-06
5.23004e-06
5.1792e-06
5.12754e-06
5.07405e-06
5.02364e-06
4.96683e-06
4.91554e-06
2.55096e-06
2.63009e-06
2.73345e-06
2.84935e-06
2.97768e-06
3.11661e-06
3.26177e-06
3.40919e-06
3.55597e-06
3.69975e-06
3.83843e-06
3.97024e-06
4.09379e-06
4.20815e-06
4.31253e-06
4.40599e-06
4.48818e-06
4.55892e-06
4.61797e-06
4.66551e-06
4.69985e-06
4.72191e-06
4.73779e-06
4.7445e-06
4.74252e-06
4.73362e-06
4.71894e-06
4.69912e-06
4.67477e-06
4.64657e-06
4.61516e-06
4.58113e-06
4.54488e-06
4.50685e-06
4.46768e-06
4.42751e-06
4.38667e-06
4.34439e-06
4.30435e-06
4.26175e-06
4.211e-06
2.11518e-06
2.19313e-06
2.29162e-06
2.39968e-06
2.51671e-06
2.64126e-06
2.76984e-06
2.89919e-06
3.02686e-06
3.15085e-06
3.26946e-06
3.38126e-06
3.48493e-06
3.57916e-06
3.66303e-06
3.73604e-06
3.79831e-06
3.85023e-06
3.89205e-06
3.92405e-06
3.94535e-06
3.95727e-06
3.96472e-06
3.96533e-06
3.95956e-06
3.9489e-06
3.93431e-06
3.91628e-06
3.89526e-06
3.87177e-06
3.84627e-06
3.81913e-06
3.79066e-06
3.76113e-06
3.73095e-06
3.70007e-06
3.66907e-06
3.63658e-06
3.60765e-06
3.56955e-06
3.54856e-06
1.7541e-06
1.83124e-06
1.92556e-06
2.0267e-06
2.13322e-06
2.24414e-06
2.35718e-06
2.47023e-06
2.58152e-06
2.68929e-06
2.79194e-06
2.88842e-06
2.97846e-06
3.06235e-06
3.14002e-06
3.21023e-06
3.27184e-06
3.32452e-06
3.36823e-06
3.40341e-06
3.42931e-06
3.44608e-06
3.45841e-06
3.46429e-06
3.46421e-06
3.45947e-06
3.45091e-06
3.43901e-06
3.42421e-06
3.40702e-06
3.3879e-06
3.36727e-06
3.34541e-06
3.32261e-06
3.29934e-06
3.27572e-06
3.25189e-06
3.22737e-06
3.20418e-06
3.18211e-06
3.14146e-06
1.45825e-06
1.53358e-06
1.62299e-06
1.71715e-06
1.81392e-06
1.91239e-06
2.011e-06
2.10853e-06
2.20429e-06
2.2975e-06
2.38674e-06
2.46985e-06
2.54429e-06
2.60795e-06
2.66063e-06
2.70459e-06
2.74213e-06
2.77396e-06
2.80012e-06
2.8203e-06
2.83413e-06
2.84266e-06
2.84869e-06
2.85059e-06
2.84861e-06
2.84373e-06
2.83658e-06
2.82744e-06
2.81657e-06
2.80427e-06
2.79079e-06
2.77634e-06
2.7611e-06
2.74517e-06
2.72879e-06
2.71179e-06
2.69487e-06
2.67622e-06
2.66178e-06
2.63269e-06
2.64158e-06
1.21739e-06
1.289e-06
1.37061e-06
1.45486e-06
1.54045e-06
1.62739e-06
1.71445e-06
1.79993e-06
1.88251e-06
1.96171e-06
2.03817e-06
2.11347e-06
2.1892e-06
2.26601e-06
2.34171e-06
2.41025e-06
2.46761e-06
2.51458e-06
2.55268e-06
2.58339e-06
2.60659e-06
2.62199e-06
2.63353e-06
2.64006e-06
2.64218e-06
2.6409e-06
2.63688e-06
2.63054e-06
2.62228e-06
2.61254e-06
2.60171e-06
2.59015e-06
2.57808e-06
2.56576e-06
2.55355e-06
2.54168e-06
2.52996e-06
2.51882e-06
2.50699e-06
2.50522e-06
2.45845e-06
1.0163e-06
1.08587e-06
1.15972e-06
1.23164e-06
1.30208e-06
1.37358e-06
1.44731e-06
1.52301e-06
1.59898e-06
1.67191e-06
1.73739e-06
1.79118e-06
1.83097e-06
1.8572e-06
1.87488e-06
1.89425e-06
1.91973e-06
1.94713e-06
1.97335e-06
1.99648e-06
2.01616e-06
2.03308e-06
2.04801e-06
2.05987e-06
2.06875e-06
2.07525e-06
2.07975e-06
2.08244e-06
2.08346e-06
2.083e-06
2.08121e-06
2.07819e-06
2.07408e-06
2.06888e-06
2.06273e-06
2.05537e-06
2.04772e-06
2.03725e-06
2.03212e-06
2.00204e-06
2.04606e-06
8.46922e-07
9.22376e-07
9.97308e-07
1.06375e-06
1.12158e-06
1.17441e-06
1.22561e-06
1.27827e-06
1.33553e-06
1.40044e-06
1.47537e-06
1.56136e-06
1.65691e-06
1.75836e-06
1.85744e-06
1.93742e-06
1.99316e-06
2.03528e-06
2.06833e-06
2.09447e-06
2.11335e-06
2.12544e-06
2.13367e-06
2.13765e-06
2.13816e-06
2.13606e-06
2.13195e-06
2.12632e-06
2.11961e-06
2.11228e-06
2.10473e-06
2.09735e-06
2.09039e-06
2.08413e-06
2.07892e-06
2.07522e-06
2.07232e-06
2.07229e-06
2.06852e-06
2.09086e-06
2.01941e-06
7.24155e-07
7.98138e-07
8.70868e-07
9.37838e-07
9.97404e-07
1.04939e-06
1.09285e-06
1.12687e-06
1.15155e-06
1.16812e-06
1.17862e-06
1.18541e-06
1.1909e-06
1.1956e-06
1.20171e-06
1.22322e-06
1.26079e-06
1.30245e-06
1.34427e-06
1.38376e-06
1.42036e-06
1.45413e-06
1.48546e-06
1.51401e-06
1.53956e-06
1.56233e-06
1.58248e-06
1.60006e-06
1.61509e-06
1.62757e-06
1.6375e-06
1.64484e-06
1.64961e-06
1.65165e-06
1.65101e-06
1.64732e-06
1.64158e-06
1.63045e-06
1.62445e-06
1.58129e-06
1.64691e-06
7.86018e-07
8.83459e-07
9.35676e-07
9.4558e-07
9.3232e-07
9.22475e-07
9.39415e-07
9.93952e-07
1.0818e-06
1.18969e-06
1.30322e-06
1.41116e-06
1.50624e-06
1.58623e-06
1.64903e-06
1.68043e-06
1.68347e-06
1.67349e-06
1.65774e-06
1.63905e-06
1.61632e-06
1.59578e-06
1.57332e-06
1.55033e-06
1.52756e-06
1.50522e-06
1.48339e-06
1.46217e-06
1.44165e-06
1.42184e-06
1.40269e-06
1.38414e-06
1.36597e-06
1.348e-06
1.33021e-06
1.31288e-06
1.29449e-06
1.27751e-06
1.25335e-06
1.25662e-06
1.15709e-06
6.62471
7.61656
6.94687
5.70898
4.23922
2.83327
1.65483
0.773085
0.231503
0.0481491
0.0130777
0.00235446
9.62127e-06
0.000131163
0.000292631
0.000239409
0.000201363
0.000178153
0.000155819
0.000135565
0.000117707
0.000102014
8.80841e-05
7.58404e-05
6.50827e-05
5.56926e-05
4.74494e-05
4.03187e-05
3.41142e-05
2.87553e-05
2.41427e-05
2.0194e-05
1.68337e-05
1.39834e-05
1.15697e-05
9.53812e-06
7.82602e-06
6.38988e-06
5.18167e-06
4.17583e-06
3.33417e-06
2.63174e-06
2.05101e-06
1.57357e-06
1.18255e-06
8.72439e-07
6.33668e-07
4.66954e-07
3.81175e-07
3.66583e-07
3.93603e-07
4.36089e-07
4.77373e-07
5.11974e-07
5.3768e-07
5.5623e-07
5.65934e-07
5.70533e-07
5.68442e-07
5.63516e-07
5.53464e-07
5.42948e-07
5.29088e-07
5.14055e-07
4.99375e-07
4.82151e-07
4.68333e-07
4.49954e-07
4.39391e-07
4.14792e-07
4.2042e-07
3.76752e-07
4.34935e-07
3.82131e-07
6.37703
10.2646
9.99135
8.43842
6.56369
4.72241
3.09936
1.78138
0.818336
0.238565
0.0479893
0.0102436
0.00187573
9.61198e-06
0.00010469
0.000261166
0.000213531
0.000175936
0.00015577
0.000136544
0.000118266
0.000102349
8.83692e-05
7.60778e-05
6.52687e-05
5.58519e-05
4.7586e-05
4.04275e-05
3.42066e-05
2.88289e-05
2.42005e-05
2.02348e-05
1.68606e-05
1.40003e-05
1.15784e-05
9.54128e-06
7.82571e-06
6.38769e-06
5.1778e-06
4.17191e-06
3.33265e-06
2.63018e-06
2.05165e-06
1.5769e-06
1.18817e-06
8.81363e-07
6.4444e-07
4.79749e-07
3.92331e-07
3.73595e-07
3.9548e-07
4.33821e-07
4.72064e-07
5.04532e-07
5.28515e-07
5.46128e-07
5.55036e-07
5.59221e-07
5.56852e-07
5.52019e-07
5.42019e-07
5.31812e-07
5.18539e-07
5.0373e-07
4.89773e-07
4.72981e-07
4.59874e-07
4.41968e-07
4.32459e-07
4.07398e-07
4.15672e-07
3.69071e-07
4.32585e-07
3.78175e-07
4.39271
9.98118
11.6435
10.7439
8.91854
6.87856
4.9312
3.22421
1.84273
0.838302
0.242682
0.0477994
0.00835656
0.0017602
7.37114e-06
5.67595e-05
0.000234468
0.00020041
0.000155802
0.000135452
0.00011903
0.000102958
8.86857e-05
7.63383e-05
6.55048e-05
5.60345e-05
4.77538e-05
4.05562e-05
3.43162e-05
2.89188e-05
2.42722e-05
2.02908e-05
1.68987e-05
1.40257e-05
1.15963e-05
9.55128e-06
7.83219e-06
6.3913e-06
5.18094e-06
4.17303e-06
3.33634e-06
2.63498e-06
2.0585e-06
1.58651e-06
1.20111e-06
8.97318e-07
6.62797e-07
5.00834e-07
4.1094e-07
3.86082e-07
4.01125e-07
4.33771e-07
4.67822e-07
4.97445e-07
5.19798e-07
5.35145e-07
5.43685e-07
5.46964e-07
5.44765e-07
5.39559e-07
5.30334e-07
5.196e-07
5.07279e-07
4.93088e-07
4.79518e-07
4.63751e-07
4.50798e-07
4.33702e-07
4.25294e-07
4.00005e-07
4.10599e-07
3.61586e-07
4.29704e-07
3.74317e-07
3.06501
8.56846
11.8009
12.1592
10.9323
9.05544
7.01215
5.04995
3.3144
1.90019
0.86886
0.257779
0.0495475
0.00786162
0.00206533
3.5761e-06
7.61403e-06
0.000170359
0.00018247
0.00013998
0.000117907
0.000103604
8.96571e-05
7.68568e-05
6.58381e-05
5.63363e-05
4.80347e-05
4.07808e-05
3.44962e-05
2.90638e-05
2.43882e-05
2.03811e-05
1.69656e-05
1.4074e-05
1.16315e-05
9.57588e-06
7.85021e-06
6.40454e-06
5.19219e-06
4.18227e-06
3.34579e-06
2.64538e-06
2.07053e-06
1.6004e-06
1.21787e-06
9.16314e-07
6.83674e-07
5.23111e-07
4.30414e-07
3.98864e-07
4.07073e-07
4.33756e-07
4.63537e-07
4.90169e-07
5.10656e-07
5.24315e-07
5.32269e-07
5.34888e-07
5.32772e-07
5.27391e-07
5.1876e-07
5.07966e-07
4.96386e-07
4.82878e-07
4.69779e-07
4.54909e-07
4.42373e-07
4.25918e-07
4.18644e-07
3.93092e-07
4.05988e-07
3.54475e-07
4.27231e-07
3.70631e-07
2.35481
7.0109
10.897
12.4972
12.2412
10.917
9.09021
7.1005
5.16228
3.42298
1.98823
0.929822
0.292329
0.0562603
0.00902307
0.00294122
4.16287e-07
1.24686e-05
0.000122416
0.000165102
0.000126669
0.000101512
8.89586e-05
7.77903e-05
6.66543e-05
5.6765e-05
4.83425e-05
4.10678e-05
3.47464e-05
2.92624e-05
2.45422e-05
2.05e-05
1.70569e-05
1.41422e-05
1.16814e-05
9.61262e-06
7.87793e-06
6.42601e-06
5.21021e-06
4.19835e-06
3.36062e-06
2.66053e-06
2.08682e-06
1.61796e-06
1.23759e-06
9.37579e-07
7.06233e-07
5.45684e-07
4.49691e-07
4.11287e-07
4.12712e-07
4.33354e-07
4.58894e-07
4.82518e-07
5.00896e-07
5.13503e-07
5.20662e-07
5.22914e-07
5.2075e-07
5.15475e-07
5.07189e-07
4.96841e-07
4.85855e-07
4.7298e-07
4.60517e-07
4.46349e-07
4.34531e-07
4.1857e-07
4.12424e-07
3.86572e-07
4.01771e-07
3.47687e-07
4.25082e-07
3.6712e-07
2.01023
5.65678
9.46437
11.8895
12.6505
12.1453
10.8465
9.1137
7.20483
5.3115
3.58183
2.13002
1.03746
0.355467
0.0730483
0.012659
0.00421982
0
8.36671e-06
5.9136e-05
0.000146538
0.000125745
9.18202e-05
7.58234e-05
6.65286e-05
5.75932e-05
4.89697e-05
4.14134e-05
3.50008e-05
2.94937e-05
2.47378e-05
2.06496e-05
1.71675e-05
1.42241e-05
1.17428e-05
9.65901e-06
7.91362e-06
6.4541e-06
5.2339e-06
4.21959e-06
3.38019e-06
2.67996e-06
2.10698e-06
1.63915e-06
1.26041e-06
9.61708e-07
7.3133e-07
5.69994e-07
4.70252e-07
4.2522e-07
4.1945e-07
4.33865e-07
4.54903e-07
4.75372e-07
4.91576e-07
5.02972e-07
5.09295e-07
5.11186e-07
5.08964e-07
5.03836e-07
4.95885e-07
4.86052e-07
4.75633e-07
4.63349e-07
4.5156e-07
4.38042e-07
4.27017e-07
4.11505e-07
4.06427e-07
3.80286e-07
3.97691e-07
3.41153e-07
4.22946e-07
3.63759e-07
1.89701
4.56551
7.90401
10.6441
12.1892
12.5496
11.9833
10.7721
9.16051
7.35285
5.52111
3.81177
2.34432
1.2073
0.460545
0.109738
0.0185299
0.00651814
0.000258005
3.1273e-06
8.21725e-07
7.72317e-05
0.000112471
8.80394e-05
6.67844e-05
5.62695e-05
4.90958e-05
4.2101e-05
3.54994e-05
2.97699e-05
2.49324e-05
2.08212e-05
1.73106e-05
1.43309e-05
1.18188e-05
9.71431e-06
7.95645e-06
6.4888e-06
5.26363e-06
4.24591e-06
3.40419e-06
2.70343e-06
2.13087e-06
1.66383e-06
1.28635e-06
9.88774e-07
7.59059e-07
5.96565e-07
4.92955e-07
4.41511e-07
4.28273e-07
4.36221e-07
4.52396e-07
4.69446e-07
4.83382e-07
4.9321e-07
4.98644e-07
5.00055e-07
4.97761e-07
4.92701e-07
4.85119e-07
4.757e-07
4.65826e-07
4.54115e-07
4.42947e-07
4.30081e-07
4.19794e-07
4.04719e-07
4.00635e-07
3.74234e-07
3.93677e-07
3.34871e-07
4.20737e-07
3.60505e-07
1.9082
3.70899
6.43552
9.08615
11.0569
12.1212
12.3172
11.7875
10.7038
9.23759
7.55217
5.80125
4.12565
2.64594
1.45664
0.627021
0.181646
0.0343482
0.00221896
0.00167649
1.18197e-05
4.76963e-06
2.12547e-05
7.94684e-05
8.29375e-05
6.29218e-05
4.86448e-05
4.11259e-05
3.56444e-05
3.03359e-05
2.53483e-05
2.10378e-05
1.74416e-05
1.44403e-05
1.19136e-05
9.78836e-06
8.01063e-06
6.52979e-06
5.29817e-06
4.277e-06
3.43279e-06
2.7311e-06
2.15838e-06
1.69163e-06
1.31511e-06
1.01836e-06
7.88999e-07
6.25061e-07
5.17683e-07
4.59922e-07
4.39267e-07
4.40598e-07
4.51616e-07
4.64962e-07
4.76401e-07
4.84486e-07
4.88903e-07
4.89718e-07
4.87287e-07
4.82224e-07
4.74964e-07
4.6589e-07
4.56511e-07
4.45365e-07
4.34763e-07
4.22518e-07
4.12901e-07
3.98247e-07
3.95086e-07
3.6847e-07
3.89746e-07
3.28865e-07
4.1848e-07
3.57308e-07
1.94548
3.04141
5.1346
7.45774
9.51535
11.0083
11.8297
11.9881
11.5535
10.6284
9.33226
7.79462
6.14917
4.52663
3.04544
1.8038
0.878255
0.315496
0.0726045
0.00967627
0.000284686
0.000284878
9.49403e-07
5.1642e-06
3.13169e-05
6.49248e-05
6.13334e-05
4.59407e-05
3.52844e-05
2.95056e-05
2.53774e-05
2.14819e-05
1.78094e-05
1.46279e-05
1.20025e-05
9.85163e-06
8.0702e-06
6.58322e-06
5.34253e-06
4.31356e-06
3.46478e-06
2.76206e-06
2.18927e-06
1.72257e-06
1.34662e-06
1.05019e-06
8.20842e-07
6.55231e-07
5.44161e-07
4.80207e-07
4.52293e-07
4.4692e-07
4.52564e-07
4.61936e-07
4.70614e-07
4.76841e-07
4.80086e-07
4.80197e-07
4.77529e-07
4.72411e-07
4.65389e-07
4.56632e-07
4.47688e-07
4.37074e-07
4.27001e-07
4.1533e-07
4.06334e-07
3.92081e-07
3.89764e-07
3.6299e-07
3.85883e-07
3.23141e-07