/*--------------------------------*- C++ -*----------------------------------*\
| =========                 |                                                 |
| \\      /  F ield         | OpenFOAM: The Open Source CFD Toolbox           |
|  \\    /   O peration     | Version:  2312                                  |
|   \\  /    A nd           | Website:  www.openfoam.com                      |
|    \\/     M anipulation  |                                                 |
\*---------------------------------------------------------------------------*/
FoamFile
{
    version     2.0;
    format      ascii;
    arch        "LSB;label=32;scalar=64";
    class       volScalarField;
    location    "850";
    object      turbulenceProperties:L;
}
// * * * * * * * * * * * * * * * * * * * * * * * * * * * * * * * * * * * * * //

dimensions      [0 1 0 0 0 0 0];

internalField   nonuniform List<scalar> 
11040
(
0.00044191
0.000483574
0.00086658
0.00142071
0.00137057
0.00130662
0.00127964
0.00127212
0.00125353
0.00124455
0.00123251
0.00122324
0.00121261
0.0012044
0.00119622
0.00119106
0.00118965
0.00119112
0.00119404
0.00119775
0.00120258
0.00120903
0.00121588
0.00122185
0.00122839
0.00124008
0.00125802
0.00127866
0.00130251
0.0013305
0.0013639
0.00140437
0.00145746
0.00154344
0.00170557
0.00183642
0.00181755
0.00239593
0.00401134
0.00251192
0.0023469
0.00117621
0.00105436
0.000668302
0.000877633
0.00243381
0.00438999
0.00692302
0.0108627
0.0184034
0.020055
0.0116849
0.00934592
0.0079933
0.00714242
0.00650727
0.00604604
0.0057207
0.00550776
0.00537224
0.00528164
0.00522976
0.0052076
0.00522676
0.00530691
0.00547818
0.00583167
0.00643849
0.00727159
0.00840475
0.00989964
0.0116375
0.0130819
0.0143062
0.0148359
0.0146902
0.0140976
0.013312
0.012815
0.0112628
0.0114293
0.00793268
0.001497
0.00161333
0.0012973
0.00082482
0.00155765
0.00312371
0.00532527
0.00836417
0.0106659
0.0127663
0.0154748
0.0189517
0.025045
0.0427206
0.04246
0.0271529
0.0219978
0.0193167
0.0178203
0.0170295
0.0167662
0.0169951
0.017948
0.0198762
0.0229616
0.0274123
0.0338112
0.0444905
0.0707495
0.064359
0.0415789
0.0323179
0.0273288
0.0242147
0.0220698
0.0204355
0.0191838
0.0185672
0.0168834
0.0162313
0.0175775
0.00177047
0.00190842
0.0021554
0.00174176
0.00117703
0.00208136
0.00371752
0.0059295
0.00954361
0.012356
0.0146781
0.0167259
0.0185007
0.0206585
0.0225061
0.0244719
0.0261621
0.0275333
0.0284596
0.0288025
0.0288286
0.028662
0.0283457
0.0281444
0.0284569
0.0294515
0.0312307
0.0339252
0.0376098
0.04163
0.0434758
0.0412722
0.0372718
0.033481
0.0304215
0.0279607
0.0260464
0.0250008
0.0232144
0.0218809
0.0287511
0.00204974
0.00215597
0.00209321
0.00294528
0.00256616
0.00152304
0.00253798
0.00418579
0.00651209
0.0100313
0.0138733
0.0170695
0.01911
0.0212791
0.0228285
0.0242345
0.0253456
0.0261537
0.0267236
0.0270793
0.0273931
0.0278261
0.0284408
0.0292757
0.0305058
0.0322552
0.0346396
0.0378055
0.0418884
0.0467235
0.0509698
0.0517747
0.0485275
0.0439404
0.039809
0.0364113
0.0337418
0.032125
0.0304449
0.0284666
0.0378493
0.00241217
0.00251792
0.00255103
0.00242999
0.00452306
0.00568236
0.00181089
0.00292561
0.004566
0.00698788
0.0101705
0.0149757
0.0189548
0.0223706
0.0245747
0.0264453
0.0279851
0.0290959
0.0299221
0.0305126
0.0310169
0.0316245
0.0324998
0.0336779
0.035289
0.0374468
0.0402786
0.0439613
0.0487213
0.0546808
0.0610817
0.0647315
0.0623891
0.0566283
0.0509383
0.0462464
0.0425882
0.0402198
0.0386348
0.0362393
0.0458061
0.00283844
0.00290369
0.00299554
0.00290678
0.00285369
0.00757612
0.0655889
0.00198343
0.0032277
0.00487632
0.00726861
0.0103955
0.0149005
0.0204124
0.0248567
0.0283589
0.030952
0.0328224
0.0343376
0.0354617
0.0363215
0.0370915
0.0380943
0.0394311
0.0412437
0.0436713
0.0468662
0.0510382
0.0564914
0.0636141
0.0723171
0.0799028
0.0800057
0.0729109
0.0648559
0.0582322
0.0531746
0.0497974
0.0480589
0.0454927
0.0543431
0.00332263
0.00336014
0.00338592
0.00345374
0.00332692
0.00324173
0.0246623
0.539242
0.00224963
0.00342452
0.00511557
0.00739143
0.0105525
0.0145795
0.0204664
0.0265163
0.031497
0.0353389
0.038413
0.04064
0.0423369
0.0435808
0.0448118
0.0462841
0.0482018
0.0507745
0.0542099
0.0587673
0.0647979
0.0729243
0.0838067
0.0965261
0.10302
0.0955455
0.0836078
0.0737583
0.0665046
0.0616581
0.0592952
0.0567936
0.0645229
0.00386602
0.00389362
0.00388988
0.00390619
0.0039835
0.00376571
0.00382439
0.0139062
0.0133017
0.00905696
0.00342902
0.00524018
0.00745385
0.0104745
0.0144132
0.0195464
0.0266682
0.033464
0.0391235
0.0436304
0.0472491
0.0498346
0.0519559
0.0539747
0.0562139
0.0589633
0.0625311
0.0672887
0.0736817
0.0824501
0.0948621
0.112479
0.13187
0.130982
0.112055
0.095765
0.0845186
0.0772406
0.0735038
0.070987
0.0774632
0.00448591
0.00450595
0.00448962
0.00446557
0.00448385
0.00455348
0.00431837
0.00452261
0.0091707
0.037881
0.00587773
0.00323059
0.00522366
0.00745841
0.0102789
0.0140757
0.018841
0.0251709
0.0335487
0.041492
0.0480674
0.0531274
0.0571678
0.0606345
0.0639901
0.0675947
0.0717797
0.076943
0.0835997
0.0926064
0.10552
0.125334
0.157918
0.193886
0.166521
0.132174
0.111699
0.0995536
0.0930745
0.0898672
0.0948598
0.00519399
0.00520848
0.00518254
0.00514222
0.0051066
0.00512884
0.00516609
0.00501493
0.00501091
0.00726189
0.0499215
0.0136141
0.0177047
0.00483552
0.00727988
0.0100295
0.0135204
0.0181156
0.0238017
0.0313949
0.0412463
0.0503696
0.0574181
0.0631756
0.068421
0.0735771
0.0790591
0.0853413
0.092922
0.102515
0.115373
0.134122
0.165689
0.237246
0.380697
0.213281
0.159768
0.135261
0.122885
0.117281
0.119999
0.00600775
0.00601687
0.00598807
0.00593186
0.00587431
0.0058299
0.00583799
0.00586962
0.00578685
0.00566799
0.00661335
0.0778947
0.117781
0.00686424
0.00433668
0.00682806
0.00964336
0.0129289
0.0171169
0.0225623
0.0293018
0.0378209
0.0480421
0.0580834
0.0666579
0.0739755
0.0810142
0.0885783
0.0971471
0.10728
0.119847
0.136424
0.160164
0.198772
0.275309
0.352989
0.248471
0.195328
0.170912
0.160337
0.159831
0.00694705
0.00695019
0.0069204
0.00685404
0.00677373
0.00669993
0.00664303
0.00662818
0.00665316
0.00662229
0.00645144
0.00689887
0.0177758
0.0985098
0.0243883
0.00831915
0.00580049
0.00895044
0.0122199
0.0160794
0.0209985
0.0271449
0.0341682
0.042275
0.0521301
0.0632221
0.0742476
0.0844822
0.0941962
0.104321
0.115811
0.129524
0.146382
0.167421
0.193
0.21931
0.233263
0.227366
0.21434
0.206963
0.211011
0.00803651
0.00803222
0.00800259
0.00792847
0.00782802
0.00772507
0.00763262
0.00755701
0.00751602
0.00752354
0.00752498
0.00735707
0.00744893
0.0102221
0.213221
0.386508
0.0122862
0.0101414
0.00765885
0.011176
0.0149583
0.0192112
0.0242
0.0302453
0.0372267
0.0449509
0.0538459
0.0644843
0.0767188
0.0898168
0.103042
0.116091
0.129123
0.142437
0.15586
0.168581
0.179216
0.186809
0.19135
0.195034
0.205263
0.00930708
0.00929322
0.00926389
0.00918228
0.00906291
0.00893151
0.00880321
0.00868661
0.00858721
0.0085161
0.00849797
0.00849363
0.00837649
0.00833
0.00886161
0.020115
0.102504
2.08147
0.00886944
0.0123917
0.00944387
0.0132594
0.017026
0.0211595
0.0258969
0.0315152
0.0381649
0.0457221
0.0539829
0.0631022
0.0735205
0.0854867
0.0987404
0.112521
0.125706
0.137169
0.146182
0.15301
0.158279
0.162459
0.169967
0.0107965
0.0107716
0.0107424
0.010653
0.0105141
0.0103543
0.0101908
0.0100317
0.00988471
0.00975642
0.00965351
0.00959768
0.00956353
0.00952299
0.00933315
0.00957898
0.01096
0.0684598
0.213961
5.87866
0.008518
0.0135898
0.0096032
0.0137876
0.0176057
0.0216337
0.0260324
0.0310539
0.0368957
0.0436711
0.0513199
0.0596054
0.0682894
0.0773273
0.0867482
0.0964876
0.10626
0.115737
0.124363
0.13131
0.138668
0.0125342
0.0124978
0.0124675
0.0123687
0.0122087
0.0120201
0.011821
0.0116206
0.0114265
0.0112466
0.0110863
0.0109509
0.0108475
0.0107882
0.010718
0.0106104
0.0104534
0.0110463
0.0146993
0.182978
0.326904
7.62194
0.0170572
0.0097189
0.0102491
0.0126513
0.0159759
0.0200289
0.0241804
0.028663
0.0336281
0.0391786
0.045341
0.0520944
0.0593128
0.0667927
0.0742651
0.0816085
0.0886311
0.0949506
0.101534
0.0144817
0.0144321
0.0143968
0.0142834
0.0140978
0.0138764
0.0136392
0.0133958
0.0131552
0.0129252
0.0127123
0.0125206
0.0123523
0.0122115
0.0121098
0.0120253
0.0119293
0.0117313
0.0116916
0.0125143
0.0180231
0.230441
0.356821
2.85973
0.0930824
0.0137817
0.0090354
0.016012
0.0102659
0.0136749
0.0186986
0.0232853
0.0278528
0.0326576
0.0377208
0.0430546
0.0485917
0.0543409
0.0602086
0.065914
0.0719739
0.0165773
0.0165117
0.0164686
0.016337
0.0161224
0.0158653
0.0155867
0.0152966
0.015005
0.0147216
0.0144538
0.0142065
0.013983
0.0137836
0.0136119
0.0134681
0.0133636
0.0132474
0.0131009
0.0129177
0.0129653
0.0140711
0.0178134
0.0834853
0.264412
0.807703
4.99147
0
0.172735
0.0168546
0.00950992
0.015682
0.181186
0.0126202
0.0164023
0.0221802
0.0271865
0.0320289
0.0368318
0.0415071
0.0464716
0.018804
0.0187229
0.0186708
0.0185195
0.0182748
0.0179809
0.0176604
0.017324
0.0169821
0.0166458
0.0163227
0.0160182
0.0157363
0.01548
0.0152504
0.0150472
0.0148725
0.0147272
0.0146056
0.0144619
0.0142801
0.0141369
0.0141593
0.0149572
0.0174732
0.0237435
0.131937
0.345686
0.895134
1.46303
13.3227
0
4.8017
0.0982259
0.0181343
0.0100873
0.0147609
0.0286377
0.0500114
0.0133973
0.0188795
0.0211864
0.0210904
0.021028
0.0208549
0.0205782
0.0202456
0.019881
0.0194965
0.0191038
0.0187144
0.0183372
0.0179772
0.0176389
0.0173256
0.0170394
0.0167812
0.0165502
0.0163465
0.0161712
0.0160208
0.015885
0.0157198
0.0155479
0.0153436
0.0153465
0.0155377
0.0164286
0.0186827
0.0236986
0.0358203
0.309645
0.51893
1.04595
1.44453
2.32909
10.8755
0
0
0
0.409617
0.0247068
0.0237424
0.0236315
0.0235565
0.0233593
0.0230483
0.0226745
0.0222636
0.0218288
0.0213833
0.0209396
0.0205076
0.0200927
0.0196995
0.0193316
0.0189913
0.0186798
0.0183973
0.0181432
0.0179165
0.0177152
0.0175449
0.0173962
0.0172597
0.0171002
0.0169211
0.0167573
0.0165834
0.016563
0.0167527
0.0171196
0.0181043
0.0201328
0.0238944
0.0309327
0.0468202
0.208092
0.529989
1.21179
1.49658
1.93915
2.76322
0.0264931
0.0263673
0.0262773
0.0260535
0.0257059
0.0252884
0.0248283
0.0243407
0.0238403
0.0233409
0.0228529
0.0223824
0.0219343
0.0215126
0.0211199
0.0207573
0.0204255
0.0201242
0.019853
0.0196087
0.0193958
0.0192133
0.0190547
0.0189206
0.0187946
0.0186709
0.0185271
0.018367
0.0182145
0.0180986
0.0179798
0.0179746
0.0180976
0.0183709
0.0187943
0.0196171
0.0210286
0.0233556
0.0270207
0.033018
0.0442217
0.0294596
0.0293186
0.0292107
0.0289575
0.0285705
0.0281063
0.0275939
0.0270507
0.0264929
0.0259355
0.0253898
0.0248629
0.0243597
0.0238846
0.0234406
0.023029
0.0226504
0.0223049
0.0219921
0.0217094
0.0214617
0.0212475
0.0210595
0.0209013
0.0207691
0.0206572
0.0205614
0.0204737
0.0203851
0.0202973
0.0201997
0.0200967
0.0200016
0.0199236
0.0198739
0.0198267
0.019832
0.0199102
0.0200677
0.02033
0.0206427
0.0326653
0.0325085
0.0323794
0.0320936
0.0316642
0.0311498
0.0305819
0.0299798
0.0293617
0.028744
0.0281389
0.0275543
0.0269953
0.0264668
0.025972
0.0255125
0.0250891
0.0247019
0.0243508
0.0240331
0.023755
0.0235148
0.0233044
0.0231271
0.0229798
0.0228579
0.0227592
0.0226819
0.0226234
0.0225805
0.0225512
0.0225309
0.0225166
0.0225048
0.0224965
0.0224887
0.0224825
0.0224794
0.0224803
0.0225006
0.022514
0.0361349
0.0359615
0.0358073
0.0354852
0.0350097
0.0344413
0.0338138
0.0331492
0.0324677
0.031787
0.0311204
0.0304763
0.0298607
0.0292786
0.0287335
0.0282273
0.0277607
0.0273341
0.0269477
0.0265985
0.026294
0.026032
0.0258033
0.0256123
0.0254556
0.0253283
0.0252274
0.025151
0.0250974
0.0250648
0.025052
0.0250576
0.0250805
0.0251187
0.0251701
0.0252344
0.0253105
0.0253954
0.0254844
0.0255829
0.0256794
0.0398959
0.0397046
0.0395205
0.0391575
0.0386316
0.0380045
0.037313
0.0365818
0.0358334
0.0350867
0.0343562
0.033651
0.0329776
0.0323416
0.0317465
0.0311944
0.0306862
0.0302224
0.0298032
0.0294257
0.0290986
0.0288188
0.0285755
0.0283745
0.0282122
0.0280835
0.0279849
0.0279142
0.0278693
0.0278482
0.027849
0.02787
0.0279105
0.0279687
0.0280429
0.028133
0.0282388
0.0283588
0.0284882
0.0286349
0.0287776
0.0439785
0.0437671
0.0435472
0.0431377
0.0425559
0.0418647
0.0411038
0.0403013
0.0394819
0.0386659
0.0378689
0.0371007
0.0363684
0.035678
0.0350332
0.0344361
0.0338877
0.0333888
0.0329395
0.0325369
0.0321908
0.0318973
0.0316433
0.031436
0.0312718
0.0311451
0.0310522
0.0309905
0.0309578
0.0309517
0.03097
0.0310108
0.0310729
0.0311541
0.0312525
0.0313677
0.0314992
0.0316456
0.0318011
0.0319756
0.032144
0.0484161
0.0481814
0.0479182
0.0474549
0.0468104
0.0460482
0.0452118
0.0443326
0.0434376
0.0425486
0.0416823
0.0408491
0.0400566
0.0393112
0.0386169
0.0379757
0.0373887
0.0368567
0.0363801
0.0359555
0.035594
0.0352906
0.0350298
0.0348199
0.0346577
0.0345368
0.0344529
0.0344035
0.034386
0.0343978
0.0344365
0.0344998
0.0345864
0.0346938
0.0348199
0.0349641
0.0351259
0.0353037
0.0354909
0.0356977
0.0359013
0.0532458
0.0529829
0.0526667
0.0521405
0.0514246
0.0505833
0.0496638
0.0487016
0.0477257
0.0467596
0.0458206
0.0449202
0.0440662
0.0432651
0.0425216
0.0418373
0.0412133
0.0406504
0.040149
0.0397056
0.0393323
0.0390229
0.038759
0.0385504
0.0383937
0.0382821
0.0382108
0.038177
0.0381779
0.0382107
0.0382725
0.038361
0.0384746
0.0386106
0.0387666
0.0389419
0.0391359
0.0393469
0.0395676
0.0398083
0.0400497
0.0585092
0.0582109
0.0578289
0.0572281
0.05643
0.0554995
0.0544881
0.0534353
0.0523724
0.0513241
0.050309
0.0493389
0.0484218
0.0475645
0.046772
0.0460457
0.0453864
0.0447948
0.0442715
0.0438125
0.0434312
0.0431197
0.0428565
0.0426529
0.0425058
0.0424072
0.0423521
0.0423374
0.0423601
0.0424169
0.0425049
0.0426214
0.0427646
0.0429317
0.0431198
0.0433282
0.0435562
0.0438022
0.0440576
0.0443334
0.0446142
0.064253
0.0639083
0.0634443
0.062754
0.0618602
0.060828
0.0597138
0.0585613
0.057404
0.0562679
0.0551723
0.0541297
0.0531479
0.0522338
0.0513925
0.0506253
0.0499324
0.0493146
0.0487722
0.0483008
0.047915
0.0476052
0.0473464
0.0471515
0.0470173
0.0469352
0.0468995
0.0469069
0.0469541
0.0470376
0.0471542
0.047301
0.0474759
0.0476759
0.047898
0.0481411
0.0484047
0.0486872
0.0489784
0.0492906
0.0496133
0.070529
0.0701226
0.0695557
0.0687571
0.0677506
0.0666013
0.0653711
0.0641078
0.0628473
0.0616166
0.0604354
0.0593167
0.0582682
0.0572965
0.0564066
0.0555997
0.0548753
0.0542337
0.0536752
0.0531952
0.0528087
0.0525049
0.0522546
0.0520726
0.0519555
0.0518938
0.0518814
0.0519144
0.0519894
0.0521027
0.0522508
0.0524304
0.0526393
0.0528743
0.053132
0.0534115
0.0537117
0.0540318
0.0543595
0.0547089
0.0550741
0.0773957
0.0769062
0.07621
0.0752792
0.0741386
0.0728534
0.0714908
0.0701033
0.0687287
0.0673949
0.066122
0.064923
0.0638054
0.0627749
0.0618362
0.0609906
0.0602363
0.0595732
0.0590013
0.0585152
0.0581311
0.057836
0.0575968
0.05743
0.0573323
0.0572932
0.0573057
0.0573659
0.0574702
0.0576145
0.0577951
0.0580082
0.0582518
0.0585223
0.058816
0.059132
0.0594689
0.0598267
0.0601904
0.0605768
0.0609865
0.0849186
0.0843166
0.0834577
0.0823649
0.0810637
0.0796189
0.0781039
0.0765755
0.0750736
0.0736264
0.0722542
0.0709697
0.0697796
0.0686888
0.0677013
0.0668179
0.0660361
0.0653545
0.0647728
0.0642851
0.063908
0.063627
0.0634041
0.0632579
0.0631848
0.0631731
0.0632153
0.063307
0.0634444
0.0636231
0.0638388
0.0640879
0.0643678
0.064675
0.0650054
0.065358
0.0657314
0.0661262
0.0665241
0.0669478
0.0673959
0.093171
0.0924174
0.091354
0.0900618
0.0885667
0.0869332
0.0852408
0.0835512
0.0819057
0.0803325
0.0788516
0.0774748
0.076208
0.0750543
0.0740164
0.0730948
0.0722855
0.0715857
0.0709944
0.0705049
0.0701338
0.0698655
0.0696568
0.0695289
0.0694777
0.0694907
0.0695595
0.0696796
0.0698469
0.0700566
0.0703045
0.0705863
0.0708995
0.0712404
0.0716045
0.0719908
0.0723975
0.0728266
0.0732558
0.0737125
0.0742056
0.102235
0.101277
0.0999573
0.0984192
0.0966889
0.0948307
0.0929308
0.0910554
0.0892467
0.0875325
0.0859318
0.0844547
0.0831061
0.081887
0.0807986
0.0798405
0.0790073
0.0782948
0.0777007
0.0772179
0.0768623
0.076617
0.0764332
0.0763339
0.076315
0.0763622
0.0764664
0.0766227
0.0768266
0.0770729
0.0773571
0.0776747
0.078023
0.0783982
0.0787955
0.079214
0.0796514
0.0801116
0.0805661
0.0810583
0.0815673
0.112198
0.11097
0.109328
0.107486
0.105469
0.103343
0.101201
0.099111
0.0971166
0.0952442
0.0935103
0.0919231
0.0904847
0.0891935
0.0880479
0.0870461
0.0861809
0.085446
0.0848375
0.0843474
0.0839907
0.083751
0.083574
0.0834853
0.0834804
0.0835442
0.0836666
0.0838428
0.0840678
0.0843365
0.0846436
0.0849846
0.0853566
0.0857555
0.0861762
0.0866175
0.0870771
0.0875603
0.0880344
0.0885445
0.0891071
0.123157
0.121573
0.11953
0.11731
0.114945
0.1125
0.110075
0.10774
0.105536
0.103486
0.101605
0.0998971
0.0983634
0.0969998
0.0958023
0.0947672
0.0938859
0.0931494
0.0925516
0.0920836
0.0917581
0.0915561
0.0914174
0.0913697
0.0914075
0.0915138
0.0916777
0.0918937
0.0921568
0.0924613
0.0928018
0.0931737
0.0935738
0.0939983
0.0944419
0.0949044
0.0953814
0.095883
0.0963629
0.0969124
0.0974169
0.135216
0.133167
0.130626
0.127942
0.125155
0.122334
0.119581
0.116968
0.114529
0.112282
0.110235
0.10839
0.106742
0.105282
0.104001
0.102892
0.101946
0.101152
0.100504
0.0999904
0.0996246
0.0993918
0.0992253
0.0991554
0.0991762
0.0992696
0.099424
0.0996336
0.0998929
0.100196
0.100536
0.100909
0.101311
0.101737
0.102182
0.102645
0.103122
0.103623
0.104103
0.104623
0.105251
0.148493
0.14583
0.142663
0.139414
0.136135
0.132887
0.129766
0.126839
0.124135
0.121669
0.119442
0.117451
0.115691
0.114159
0.112845
0.111737
0.110817
0.110068
0.109475
0.109028
0.108734
0.10857
0.108468
0.10846
0.108539
0.108686
0.108888
0.109138
0.109432
0.109764
0.110127
0.110518
0.110933
0.111367
0.111817
0.112283
0.112756
0.113259
0.113712
0.114317
0.114655
0.163061
0.15959
0.155633
0.1517
0.147865
0.144165
0.140666
0.13741
0.134416
0.131696
0.129253
0.127076
0.125141
0.123415
0.12188
0.12054
0.1194
0.118451
0.11768
0.117071
0.116628
0.116344
0.116137
0.116038
0.11604
0.11612
0.116264
0.116465
0.116717
0.117011
0.117341
0.1177
0.118084
0.118488
0.118906
0.119334
0.11977
0.120224
0.120659
0.121077
0.121857
0.178838
0.174391
0.169519
0.164807
0.160351
0.156168
0.152292
0.148729
0.145463
0.142482
0.139793
0.137422
0.135397
0.133735
0.132405
0.131325
0.130423
0.129673
0.129066
0.128604
0.12829
0.128098
0.127962
0.12792
0.127965
0.128075
0.128236
0.128444
0.128692
0.128974
0.129285
0.129621
0.129979
0.130355
0.130746
0.131155
0.131567
0.132025
0.132382
0.133112
0.132888
0.19573
0.190216
0.184466
0.179046
0.174001
0.16929
0.164937
0.160973
0.157403
0.154194
0.151274
0.148556
0.145964
0.143469
0.141132
0.139111
0.137485
0.136196
0.135176
0.134371
0.133772
0.133379
0.133086
0.132922
0.132869
0.132901
0.133003
0.133163
0.133373
0.133622
0.1339
0.134199
0.134512
0.134835
0.135157
0.135473
0.135786
0.136086
0.136407
0.136455
0.137747
0.214219
0.207243
0.200537
0.194594
0.189258
0.184267
0.179513
0.174995
0.170788
0.167022
0.163845
0.161366
0.159604
0.158473
0.157725
0.156917
0.155873
0.154773
0.153741
0.152849
0.152102
0.151468
0.150915
0.15048
0.150157
0.149922
0.14976
0.149664
0.149627
0.149644
0.149709
0.149818
0.149967
0.150155
0.150379
0.150648
0.150929
0.151317
0.151508
0.152642
0.150991
0.234662
0.22486
0.216248
0.209386
0.203917
0.199278
0.195072
0.191012
0.186873
0.182492
0.177797
0.172833
0.167776
0.162865
0.158462
0.155157
0.152973
0.151382
0.150168
0.149229
0.148561
0.148138
0.147853
0.147715
0.147698
0.147771
0.147914
0.14811
0.148344
0.148602
0.148868
0.14913
0.149378
0.149603
0.14979
0.149924
0.150029
0.15003
0.150167
0.149363
0.151982
0.253773
0.241726
0.231412
0.222997
0.216236
0.210812
0.206578
0.203437
0.201245
0.199813
0.198921
0.198352
0.197894
0.197505
0.197004
0.195265
0.192334
0.189233
0.186268
0.183591
0.181211
0.179095
0.177197
0.175519
0.174056
0.172784
0.171681
0.170735
0.169939
0.169287
0.168773
0.168396
0.168153
0.168049
0.168082
0.16827
0.168564
0.169139
0.169451
0.171748
0.168292
0.243579
0.229755
0.223252
0.22208
0.223653
0.224844
0.222808
0.216609
0.207628
0.19799
0.18917
0.181792
0.17596
0.171467
0.16817
0.166592
0.166442
0.166937
0.167729
0.168682
0.169865
0.170954
0.172171
0.173443
0.174731
0.176023
0.177314
0.178596
0.179863
0.181112
0.182344
0.183562
0.184779
0.186007
0.187247
0.188479
0.189813
0.191071
0.192904
0.192653
0.200768
0.00513836
0.00939923
0.0140971
0.0188122
0.0236428
0.0287234
0.0343203
0.0413368
0.0529932
0.0572308
0.0201838
0.0097178
0.137741
0.0200399
0.0126958
0.013976
0.0152144
0.0161807
0.0173026
0.0185491
0.0199067
0.0213834
0.0230121
0.0248001
0.0267713
0.0289402
0.0313533
0.0340128
0.0369765
0.0402747
0.0439538
0.0480593
0.0526377
0.0577537
0.0634928
0.0699286
0.0771996
0.0854356
0.0948747
0.105685
0.118274
0.133126
0.150799
0.172163
0.198597
0.231214
0.271299
0.316039
0.349795
0.356687
0.344226
0.327028
0.312567
0.301819
0.294515
0.289562
0.287067
0.285907
0.286431
0.287679
0.290278
0.293075
0.296889
0.3012
0.305596
0.311008
0.315565
0.321948
0.325798
0.335323
0.333074
0.351851
0.327477
0.349379
0.00897584
0.0123528
0.0166621
0.0210087
0.0253202
0.0297041
0.0343004
0.0394633
0.0462153
0.0573615
0.0578423
0.0197337
0.00993303
0.133962
0.0228291
0.0134453
0.014805
0.0162727
0.0173019
0.0184843
0.0198601
0.0213481
0.022975
0.0247615
0.0267332
0.028899
0.0313083
0.0339671
0.0369265
0.0402233
0.0439013
0.0480107
0.0525957
0.0577189
0.0634689
0.069917
0.0772011
0.0854503
0.0949101
0.105735
0.118301
0.133165
0.150776
0.171981
0.198127
0.23004
0.269022
0.311796
0.344786
0.353324
0.343409
0.327882
0.31432
0.304037
0.297058
0.292228
0.289872
0.288784
0.289396
0.290659
0.293327
0.296128
0.299894
0.304271
0.308577
0.314009
0.318454
0.324843
0.328398
0.338351
0.33497
0.355493
0.328365
0.351201
0.0151201
0.0170233
0.0203649
0.0240436
0.0277911
0.0315839
0.0354795
0.0396503
0.0445257
0.0510616
0.0614234
0.0591978
0.0199704
0.0107057
0.158836
0.034067
0.0142057
0.0153398
0.0172963
0.01855
0.0197969
0.0212859
0.0229336
0.024719
0.0266851
0.028852
0.0312532
0.0339131
0.0368676
0.0401608
0.0438365
0.0479445
0.0525364
0.0576665
0.06342
0.0698803
0.0771692
0.0854261
0.0948813
0.10572
0.118236
0.133044
0.150525
0.171459
0.197056
0.227986
0.265271
0.305162
0.336889
0.347564
0.340984
0.327901
0.315742
0.306196
0.299538
0.295211
0.292882
0.292002
0.29259
0.293996
0.296541
0.299587
0.303204
0.307536
0.311859
0.317117
0.321643
0.327924
0.331152
0.341463
0.337033
0.359153
0.329463
0.353005
0.0231842
0.0234606
0.0254761
0.0281708
0.03118
0.0343374
0.0375976
0.0410248
0.0448213
0.0493936
0.0555292
0.064566
0.0618168
0.0219039
0.012586
0.265331
0.145308
0.0165201
0.0161191
0.0182632
0.0198796
0.0212185
0.0228124
0.024636
0.0266167
0.0287744
0.031162
0.0338198
0.0367713
0.0400604
0.0437321
0.0478382
0.0524327
0.0575676
0.0633239
0.0697905
0.0770806
0.0853378
0.0947785
0.105604
0.118069
0.132782
0.150087
0.170714
0.195696
0.22561
0.261189
0.298594
0.32918
0.34195
0.338484
0.327907
0.317198
0.30846
0.302208
0.298245
0.296007
0.29528
0.295864
0.297369
0.299831
0.302999
0.306512
0.31077
0.315074
0.320184
0.324691
0.330907
0.333772
0.344452
0.338941
0.362737
0.330415
0.354755
0.0325899
0.0319012
0.0322849
0.0336848
0.0357351
0.0381317
0.040717
0.0434636
0.0464513
0.0498726
0.0540678
0.059588
0.067053
0.0655382
0.026818
0.0164953
1.29258
0.0975595
0.0195665
0.0169912
0.0192277
0.0214172
0.0228888
0.0244908
0.0264574
0.0286657
0.0310616
0.0337012
0.036639
0.0399245
0.0435947
0.0476993
0.0522922
0.0574287
0.0631885
0.069657
0.0769449
0.0851951
0.0946145
0.105401
0.117808
0.132404
0.1495
0.169785
0.194131
0.223037
0.256984
0.292353
0.322047
0.336746
0.336164
0.328059
0.318798
0.310896
0.305138
0.301368
0.299288
0.298642
0.29926
0.300786
0.303232
0.306373
0.309817
0.314005
0.318227
0.32324
0.327608
0.333798
0.336279
0.347344
0.340715
0.36626
0.331248
0.356447
0.0441512
0.0426338
0.0410981
0.0409019
0.0417494
0.0432089
0.0450129
0.047047
0.0493031
0.0518588
0.0548784
0.058607
0.063371
0.0692976
0.0694958
0.0364395
0.0221536
0
0.127319
0.0300919
0.0180554
0.0194845
0.0225468
0.0247799
0.0264716
0.028464
0.0308667
0.0335603
0.0365043
0.0397673
0.0434224
0.0475264
0.0521236
0.0572628
0.0630231
0.0694896
0.0767712
0.0850095
0.0944001
0.105136
0.117467
0.131923
0.148783
0.168684
0.192365
0.220221
0.252536
0.286051
0.314928
0.331184
0.333453
0.327866
0.320194
0.313224
0.308017
0.304507
0.30261
0.302048
0.302706
0.304241
0.306669
0.309754
0.313128
0.317252
0.321367
0.32629
0.330477
0.336651
0.33875
0.350202
0.342457
0.36975
0.332083
0.358089
0.0579652
0.0559363
0.0522408
0.0501751
0.0495586
0.0498683
0.0507346
0.0519596
0.0534604
0.0552357
0.0573527
0.0599314
0.0631271
0.0670906
0.0716404
0.0730407
0.048799
0.0313321
0.0141118
0.257335
0.676663
0.0247124
0.0206528
0.0231534
0.0264164
0.0287666
0.0308176
0.033292
0.0362528
0.0395825
0.0432508
0.0473295
0.0519082
0.0570497
0.0628205
0.0692914
0.0765641
0.0847819
0.0941332
0.104809
0.117052
0.131349
0.147947
0.167428
0.190416
0.217187
0.247881
0.279609
0.307591
0.325016
0.330001
0.32698
0.32108
0.315195
0.310617
0.307506
0.305825
0.305392
0.306093
0.30766
0.310053
0.313107
0.316407
0.320461
0.324476
0.329295
0.333308
0.339461
0.341189
0.353022
0.344198
0.373201
0.332953
0.359701
0.0725896
0.0720154
0.0660889
0.0619046
0.0595481
0.0584667
0.058199
0.058468
0.0591226
0.0600973
0.061392
0.0630528
0.0651575
0.0677911
0.0709705
0.07442
0.076022
0.0643066
0.0209777
0.0213161
0.0924283
0.175054
0.0564379
0.0242136
0.0240258
0.0273234
0.0309428
0.0336475
0.0361672
0.0392203
0.0429031
0.0470861
0.0517098
0.056831
0.0625697
0.0690297
0.0763054
0.0845154
0.0938256
0.104427
0.116563
0.130682
0.147001
0.166047
0.188322
0.214008
0.243132
0.273161
0.300155
0.318445
0.325845
0.325352
0.321358
0.316711
0.312885
0.310262
0.308856
0.308598
0.309366
0.310984
0.31335
0.316386
0.319619
0.323593
0.327516
0.332229
0.336077
0.342207
0.343576
0.355772
0.345929
0.376593
0.333849
0.361306
0.0882019
0.091009
0.0831683
0.0765888
0.0721837
0.0694329
0.0677967
0.0669186
0.0665828
0.0666665
0.0671147
0.0679196
0.0691069
0.0707197
0.0727848
0.0752531
0.0778149
0.0794801
0.0743485
0.0459082
0.0148004
0.0161432
0.564499
0.153951
0.0409812
0.0269021
0.0279484
0.0319737
0.0363305
0.0397193
0.042857
0.0466069
0.0511891
0.0564717
0.0623353
0.0688032
0.0760211
0.0841722
0.0934365
0.103985
0.116024
0.129947
0.14596
0.164549
0.186106
0.21074
0.23837
0.266798
0.292762
0.311647
0.321119
0.323043
0.321021
0.317747
0.314803
0.31274
0.31168
0.311643
0.312511
0.314198
0.316558
0.319577
0.322753
0.326648
0.330479
0.335091
0.338782
0.344887
0.345913
0.358446
0.347655
0.379913
0.334773
0.362926
0.106892
0.113691
0.10449
0.0950594
0.0881309
0.0833389
0.0800309
0.0777588
0.0762342
0.075277
0.0747811
0.0746933
0.0749971
0.0756985
0.0768091
0.0783214
0.0801538
0.0820837
0.0834371
0.0814226
0.0703359
0.028963
0.0361324
0
0.406591
0.168482
0.0472194
0.0313804
0.032398
0.0371443
0.0427657
0.0474169
0.0514641
0.0560202
0.0616166
0.0682334
0.0756877
0.0839223
0.0930939
0.103476
0.115356
0.129095
0.144847
0.162997
0.183823
0.207406
0.233596
0.260543
0.285474
0.304704
0.315889
0.32008
0.320052
0.318259
0.316322
0.314903
0.31427
0.314499
0.31552
0.317291
0.319674
0.322682
0.325815
0.32964
0.333381
0.337897
0.341433
0.34751
0.348222
0.361059
0.349404
0.383162
0.335744
0.36459
0.13298
0.143775
0.132878
0.119264
0.108728
0.101164
0.0956728
0.0916314
0.088628
0.086403
0.0847919
0.083695
0.0830561
0.0828454
0.0830472
0.0836513
0.0846312
0.0859127
0.0873438
0.0883664
0.0879653
0.0826086
0.0665587
0.0609995
0.0368448
0.270661
0.457091
0.705662
0.053896
0.037674
0.0377784
0.043058
0.0502252
0.0569745
0.062605
0.0682099
0.0748973
0.0830288
0.0924804
0.103076
0.114873
0.12826
0.143566
0.161226
0.181411
0.204068
0.228902
0.254403
0.27827
0.297619
0.310191
0.316445
0.318383
0.318159
0.317344
0.316682
0.316563
0.317123
0.318353
0.320241
0.322676
0.32569
0.328796
0.332565
0.336226
0.340651
0.344041
0.350086
0.350519
0.363618
0.351198
0.386339
0.336781
0.366332
0.176313
0.196559
0.179383
0.155353
0.137598
0.125246
0.116344
0.109723
0.104689
0.100802
0.0977781
0.09545
0.0937126
0.0924933
0.0917404
0.091421
0.0915126
0.0919823
0.0927754
0.0937348
0.0945696
0.0946615
0.0927645
0.0853634
0.0651131
0.0229041
0.0483472
8.48627
0.598088
0.272806
0.115829
0.0497802
0.0453173
0.0501459
0.0585029
0.0681222
0.0766079
0.0839664
0.0919374
0.101746
0.113624
0.127365
0.142697
0.159809
0.179013
0.200517
0.224094
0.248367
0.271261
0.290472
0.304087
0.312149
0.315996
0.317389
0.317788
0.318006
0.31849
0.319469
0.320961
0.323019
0.325531
0.328584
0.331685
0.335414
0.339011
0.343356
0.346617
0.352622
0.352814
0.366122
0.353056
0.389444
0.337897
0.368196
0.238209
0.328369
0.327267
0.233481
0.188192
0.16295
0.146589
0.135061
0.126536
0.120025
0.114941
0.110921
0.10775
0.105279
0.103402
0.102045
0.101166
0.10073
0.100698
0.101007
0.101543
0.102128
0.102412
0.101824
0.0987313
0.091662
0.0758196
0.0826591
0.0651174
0.0339178
1.5156
0.504356
0.27939
0.0860472
0.059015
0.059782
0.0686954
0.0811474
0.0936537
0.104046
0.113827
0.125418
0.139946
0.157345
0.176836
0.19775
0.219821
0.242421
0.264222
0.283264
0.297694
0.307247
0.312857
0.315889
0.317595
0.318801
0.319984
0.321471
0.323296
0.325585
0.328217
0.33134
0.334468
0.338173
0.34173
0.346006
0.349163
0.355121
0.355117
0.368568
0.354991
0.392469
0.339102
0.370225
0.215399
0.244174
0.304295
0.416053
0.326667
0.244645
0.202596
0.177423
0.160555
0.148412
0.139337
0.132371
0.126909
0.122572
0.11912
0.116398
0.114311
0.112791
0.111772
0.111195
0.110993
0.111087
0.111348
0.111606
0.111462
0.110378
0.107742
0.100472
0.0872974
0.0424572
0.091352
0.0660147
0.0507825
0.1405
0.509427
0.643873
0.0939461
0.074529
0.0815432
0.0967524
0.114427
0.129982
0.142866
0.156098
0.17247
0.19256
0.214911
0.237244
0.257965
0.276211
0.291023
0.301869
0.309093
0.31367
0.316717
0.319014
0.321005
0.323095
0.325326
0.327911
0.330714
0.333952
0.337136
0.340846
0.34438
0.348608
0.351685
0.357589
0.357443
0.370966
0.357022
0.39542
0.340407
0.372483
0.173428
0.181048
0.190717
0.206874
0.229948
0.257599
0.272105
0.254508
0.224792
0.199473
0.180666
0.166813
0.156274
0.148114
0.141714
0.136659
0.13267
0.129557
0.127166
0.125379
0.124111
0.123295
0.122853
0.122693
0.122675
0.122581
0.122227
0.121128
0.118467
0.112347
0.102826
0.079689