/*--------------------------------*- C++ -*----------------------------------*\
| =========                 |                                                 |
| \\      /  F ield         | OpenFOAM: The Open Source CFD Toolbox           |
|  \\    /   O peration     | Version:  2312                                  |
|   \\  /    A nd           | Website:  www.openfoam.com                      |
|    \\/     M anipulation  |                                                 |
\*---------------------------------------------------------------------------*/
FoamFile
{
    version     2.0;
    format      ascii;
    arch        "LSB;label=32;scalar=64";
    class       volSymmTensorField;
    location    "850";
    object      turbulenceProperties:R;
}
// * * * * * * * * * * * * * * * * * * * * * * * * * * * * * * * * * * * * * //

dimensions      [0 2 -2 0 0 0 0];

internalField   nonuniform List<symmTensor> 
11040
(
(0.282869 0.0750419 -1.33586e-22 0.246457 9.22073e-21 0.276471)
(0.351582 0.0742713 8.14783e-21 0.226817 1.14667e-19 0.305561)
(0.0548924 0.00597123 -1.8045e-20 0.0406502 5.62612e-20 0.0464032)
(0.0267972 0.00887067 -5.84147e-20 0.0353049 3.32456e-20 0.0304834)
(0.117998 0.0460071 -2.12662e-20 0.248995 1.90118e-19 0.183196)
(0.129888 0.0566798 -2.90704e-19 0.249465 1.05942e-19 0.188675)
(0.12945 0.0593195 1.66337e-19 0.230056 -1.09287e-18 0.179389)
(0.12328 0.0575753 2.30977e-19 0.205043 -1.599e-19 0.163976)
(0.11556 0.054086 9.87949e-20 0.180319 -2.8653e-20 0.147825)
(0.111323 0.0519621 9.1841e-20 0.164109 1.45935e-19 0.137736)
(0.106681 0.0492906 -8.11773e-20 0.149617 3.46095e-19 0.12815)
(0.102495 0.0467277 -1.21047e-19 0.137146 2.59861e-19 0.119863)
(0.0991022 0.044457 2.01041e-20 0.126839 -1.48727e-19 0.113055)
(0.0966369 0.0426279 2.50007e-20 0.11873 1.45246e-19 0.107767)
(0.0948324 0.0410862 -1.12303e-20 0.111987 1.09188e-20 0.103526)
(0.0946656 0.0403636 -4.28832e-21 0.107715 -1.86637e-19 0.101318)
(0.0962155 0.0404795 5.15256e-20 0.105634 -6.86187e-22 0.101074)
(0.0997562 0.0415196 -5.04753e-21 0.105779 3.39282e-19 0.102938)
(0.105114 0.0433382 -2.92848e-20 0.107714 2.97817e-21 0.106606)
(0.112325 0.0458949 4.75253e-21 0.111261 -4.95833e-20 0.112012)
(0.121688 0.0492714 2.25431e-20 0.116526 3.80649e-20 0.11934)
(0.13287 0.0533722 -2.47797e-20 0.123412 1.15527e-19 0.128376)
(0.145744 0.058212 9.53138e-22 0.132052 -9.55117e-20 0.139153)
(0.16068 0.0638493 1.28256e-20 0.142431 2.46467e-19 0.151829)
(0.177839 0.0703043 -7.5086e-20 0.1545 -2.22638e-19 0.166437)
(0.197908 0.0778872 -4.0255e-20 0.168813 -5.22276e-19 0.183605)
(0.220305 0.0863356 1.09771e-20 0.184827 -2.4418e-19 0.20277)
(0.242083 0.0944197 3.27979e-20 0.200124 6.99577e-20 0.221243)
(0.261364 0.101424 -2.22358e-20 0.213274 -2.00797e-19 0.237367)
(0.27591 0.10653 1.36806e-20 0.222648 -4.69941e-19 0.249214)
(0.283352 0.10888 1.19671e-19 0.226528 3.38551e-19 0.254759)
(0.281716 0.107732 2.0146e-20 0.223404 -2.7462e-20 0.252266)
(0.271478 0.103366 1.0411e-19 0.213844 9.53513e-19 0.242252)
(0.256356 0.0974016 -9.0119e-20 0.201067 5.8449e-19 0.228164)
(0.242982 0.0925719 4.59625e-20 0.190566 1.013e-20 0.215966)
(0.191922 0.0734787 1.27541e-19 0.15201 9.09472e-19 0.170978)
(0.0998679 0.0381713 7.84529e-21 0.0817435 1.72106e-19 0.090019)
(0.0594471 0.0240912 -3.92755e-20 0.0531739 5.16578e-19 0.0551295)
(0.0185677 0.00889016 -4.27637e-19 0.0293806 -1.10789e-18 0.0233779)
(0.0567708 -0.0274105 -1.40509e-22 0.0885798 -9.3809e-19 0.0706854)
(0.0869045 -0.0186144 1.9932e-19 0.208551 5.36152e-20 0.137678)
(0.0241535 -0.00176579 1.73736e-22 0.0212248 -5.08448e-22 0.0219663)
(0.0596828 0.00134568 2.059e-20 0.038406 4.01982e-21 0.0410929)
(0.201421 0.0273308 4.84025e-20 0.111221 -2.56729e-19 0.158273)
(0.396885 0.0303983 7.31495e-20 0.165935 -1.66075e-19 0.282463)
(0.787669 -0.0208809 8.16676e-20 0.300518 -4.87162e-19 0.543393)
(0.249257 -0.0484308 5.60078e-19 0.116596 -1.18983e-18 0.182221)
(0.0743993 -0.0188493 -8.14595e-19 0.0400892 3.19234e-18 0.0559007)
(0.0239144 -0.00761894 -8.18544e-19 0.0151035 2.1129e-18 0.0197904)
(0.00553172 -0.00228076 -7.37126e-20 0.00470707 -1.51289e-19 0.00530366)
(0.00249786 0.00118904 -1.01809e-19 0.0047876 3.95469e-20 0.00382159)
(0.00692476 0.00344653 4.50568e-19 0.0112159 -1.1329e-18 0.00904928)
(0.00973462 0.00484472 -1.70965e-21 0.0145721 -7.28504e-20 0.0120145)
(0.0119034 0.00588634 -1.62184e-19 0.0164255 6.64059e-19 0.0140283)
(0.0135247 0.00660635 -1.09972e-19 0.0177093 3.19988e-20 0.0154001)
(0.0148009 0.00711812 -4.3329e-20 0.0183053 -1.6667e-19 0.0163188)
(0.0160432 0.007581 1.03206e-20 0.0188536 5.70562e-19 0.0171774)
(0.0174985 0.00811762 -1.40784e-20 0.0195988 1.90399e-19 0.018243)
(0.0192088 0.00874366 -8.75536e-21 0.0205509 -5.32296e-19 0.0195407)
(0.0209955 0.00937254 -2.28722e-20 0.0215159 -2.46444e-20 0.0208757)
(0.0228704 0.00999907 -7.14419e-21 0.0224505 7.95663e-20 0.0222539)
(0.0248789 0.0106358 -1.0623e-20 0.0233885 -1.47505e-20 0.0237114)
(0.0270611 0.0113101 3.01374e-20 0.0244257 -2.67802e-19 0.0253076)
(0.0288946 0.0118395 2.31677e-20 0.0252327 3.77177e-19 0.0266004)
(0.0298732 0.0120219 -4.53321e-20 0.0253518 -3.44195e-19 0.0271429)
(0.0298227 0.0118082 -6.29697e-21 0.0246795 2.79431e-19 0.0268112)
(0.0292878 0.0114421 7.27963e-20 0.023722 9.03771e-19 0.0261202)
(0.0284966 0.0110275 1.36392e-19 0.0226991 5.00412e-19 0.0252884)
(0.0266937 0.0102932 -3.3505e-20 0.0210747 1.39554e-19 0.0236928)
(0.023855 0.0092627 -9.0107e-20 0.0189103 2.78265e-19 0.0213655)
(0.0203605 0.00810265 4.38883e-20 0.0165849 4.95958e-19 0.0186792)
(0.0171352 0.00716851 -1.09604e-19 0.0149272 -7.57885e-19 0.0164766)
(0.0152962 0.00691163 -5.52934e-20 0.015158 -1.23869e-18 0.0159344)
(0.0137229 0.00675831 -1.27959e-19 0.0167399 -2.5904e-18 0.0162451)
(0.0133908 0.00683439 6.9536e-20 0.0206321 -1.2865e-18 0.0183586)
(0.014716 0.0071858 -9.26127e-20 0.0272704 1.20615e-19 0.0228224)
(0.0176815 0.00788438 -4.34206e-19 0.0366751 -3.94863e-18 0.0297822)
(0.0226272 0.00941243 -6.80823e-20 0.0493871 -3.43554e-19 0.0393762)
(0.0297806 0.011947 -5.034e-19 0.0664498 -2.36964e-18 0.050771)
(0.0453849 0.0153044 1.23697e-18 0.108223 5.35767e-18 0.0824759)
(0.0638276 0.0295763 8.11514e-19 0.118128 4.8147e-18 0.0870319)
(0.246244 -0.113189 -3.99332e-19 0.442033 -6.6703e-19 0.414649)
(0.0145989 -0.00148279 -1.88712e-22 0.0129842 -2.71843e-22 0.0139334)
(0.0121847 -0.00193627 -4.95867e-21 0.0126413 -1.26838e-20 0.0123075)
(0.0338237 0.00355878 1.56753e-20 0.0212401 7.77057e-20 0.0269483)
(0.155834 0.0163312 5.25986e-20 0.0792926 8.12486e-20 0.118501)
(0.905553 0.0478049 -7.50715e-21 0.349751 -3.7271e-20 0.631017)
(1.22845 -0.0347644 -3.02327e-19 0.468792 1.18681e-18 0.846267)
(0.615125 -0.0974768 2.57979e-20 0.268828 1.04648e-20 0.440928)
(0.221564 -0.0539186 9.47253e-20 0.116905 -2.45374e-18 0.163822)
(0.10038 -0.0284826 -1.6745e-19 0.0579683 2.56534e-20 0.0784843)
(0.0590926 -0.017594 2.39302e-19 0.0352186 -6.98865e-19 0.0474897)
(0.0325822 -0.01046 -4.40306e-19 0.0207537 1.03887e-18 0.0268089)
(0.0181776 -0.00628711 7.64924e-19 0.0125067 -2.08317e-18 0.015318)
(0.00896921 -0.00302063 -3.94298e-20 0.00597196 -6.91502e-20 0.00756047)
(0.00291792 -0.000795879 1.54397e-19 0.00163008 -9.11723e-19 0.0022823)
(0.00244995 0.000796661 2.45465e-20 0.00156776 9.53257e-19 0.0020742)
(0.00486715 0.00195916 -7.89455e-20 0.00401888 -3.64149e-19 0.00449652)
(0.00679296 0.00274327 -3.41004e-21 0.00564431 -6.13241e-19 0.00627389)
(0.00835224 0.00329442 4.19064e-20 0.00671752 -4.38368e-19 0.00759238)
(0.00959358 0.00366938 1.9562e-20 0.00741436 -2.48737e-20 0.00854832)
(0.0105727 0.00388066 2.6022e-20 0.00776676 2.76986e-20 0.00921185)
(0.0113408 0.00396262 2.79042e-21 0.00788126 8.39783e-20 0.00964446)
(0.0119207 0.003894 -4.42789e-20 0.00773079 1.33743e-19 0.00986717)
(0.0120054 0.00356053 -3.73516e-20 0.00714618 -4.41375e-19 0.00962003)
(0.0114269 0.00292046 -3.96455e-20 0.00611294 -1.77279e-19 0.00880883)
(0.0103023 0.00207423 8.28964e-20 0.00487519 -2.78888e-19 0.00761106)
(0.00885505 0.00116451 -1.43265e-20 0.00370751 -2.60773e-19 0.00628211)
(0.00714617 0.000326502 -2.27115e-19 0.00275193 2.65476e-19 0.0049186)
(0.00498304 -0.000310159 -7.83974e-20 0.0019524 -1.07324e-18 0.00339212)
(0.00216097 -0.000562611 1.91835e-19 0.00122991 2.65242e-19 0.00156078)
(0.0014596 -0.000311987 2.61976e-19 0.00351024 1.11435e-18 0.00229169)
(0.00396355 0.000322238 -1.85606e-19 0.0102286 6.26913e-19 0.00686245)
(0.00786396 0.000967664 4.31048e-19 0.0202945 2.594e-18 0.013817)
(0.0132391 0.0022969 1.81012e-19 0.0338149 8.02786e-19 0.0232509)
(0.0202963 0.00448504 -3.97813e-19 0.0510323 9.00636e-19 0.0354183)
(0.0293588 0.00768669 -4.77993e-19 0.072488 -9.49772e-19 0.0507878)
(0.0410031 0.0122201 3.23928e-19 0.0992783 1.99041e-18 0.0703751)
(0.0561243 0.0188264 2.97927e-19 0.132399 -2.09368e-18 0.0950779)
(0.0747862 0.0275574 5.33243e-19 0.170099 1.90864e-18 0.122132)
(0.108173 0.0379582 -4.30291e-19 0.25372 -9.50254e-19 0.186599)
(0.174907 0.0836847 2.22671e-20 0.308921 -5.01858e-19 0.233229)
(0.191748 0.00546582 4.44779e-19 0.506414 1.68541e-18 0.351484)
(0.0107247 -0.0010416 -5.97484e-23 0.00912719 -2.80475e-22 0.00998567)
(0.00841467 -0.00100133 -1.34785e-22 0.00853677 9.67203e-22 0.00857257)
(0.00661626 -0.00109529 -7.72245e-21 0.00749663 -1.77193e-20 0.00707149)
(0.0126279 0.00077235 -1.05866e-20 0.00923436 -2.07506e-20 0.0108525)
(0.209506 0.0197305 3.69804e-20 0.0894451 4.38123e-20 0.150187)
(1.05046 0.042496 2.40336e-19 0.401704 9.0484e-21 0.731608)
(1.58323 -0.0447157 2.56028e-19 0.604014 -1.38875e-18 1.09079)
(1.03756 -0.137375 9.01988e-19 0.433419 -1.41089e-18 0.741791)
(0.413255 -0.0946268 -4.1017e-19 0.210473 1.22532e-18 0.302849)
(0.214446 -0.0577749 2.31336e-19 0.119539 3.99524e-19 0.164706)
(0.124652 -0.035974 -3.52959e-19 0.0726655 1.12328e-18 0.0985833)
(0.0815917 -0.0257218 -5.801e-19 0.0511803 1.2612e-18 0.0664453)
(0.0563265 -0.0186542 4.65165e-19 0.0369788 -9.51605e-19 0.0468013)
(0.039343 -0.0136836 -1.17388e-19 0.027235 9.36305e-19 0.0331895)
(0.0290926 -0.0102837 -1.99892e-19 0.0204819 -1.05614e-18 0.02476)
(0.0221067 -0.00779232 -1.12317e-19 0.0155248 -4.56205e-19 0.0187704)
(0.0179429 -0.00619907 5.33595e-20 0.0123302 2.251e-19 0.0151008)
(0.0153716 -0.00509579 1.14602e-19 0.0101203 1.31701e-20 0.0127326)
(0.0139944 -0.00445632 3.11266e-20 0.0088691 5.34963e-20 0.0114151)
(0.0135657 -0.00418554 -1.21491e-20 0.0083521 -7.7021e-20 0.0109627)
(0.0137272 -0.00420844 -2.73495e-20 0.00840654 -1.96173e-19 0.0110657)
(0.0145145 -0.00447294 2.64722e-20 0.00892799 -2.7945e-19 0.0117214)
(0.0160085 -0.00503362 2.31005e-20 0.0100209 -1.26618e-19 0.0130222)
(0.0179803 -0.00589386 8.65384e-21 0.011697 1.1758e-19 0.0148556)
(0.0199026 -0.00687247 -6.85353e-20 0.0136487 7.07665e-19 0.0167912)
(0.0213548 -0.00779196 2.51835e-19 0.0155753 -8.07344e-19 0.0184791)
(0.0219507 -0.00851651 1.80755e-19 0.0172865 -6.21984e-19 0.0196342)
(0.0213209 -0.00891432 1.99022e-19 0.01871 1.52132e-18 0.0200354)
(0.0192934 -0.00884767 -6.31337e-20 0.0200517 4.05504e-19 0.0196963)
(0.0164396 -0.00821634 -5.57004e-19 0.0223499 -5.9416e-19 0.0194234)
(0.0147157 -0.00693336 1.77878e-19 0.0281195 -1.07661e-18 0.0214532)
(0.0165921 -0.00479347 -4.48787e-19 0.040385 6.55322e-19 0.0285308)
(0.0229343 -0.00130872 3.96879e-19 0.0603247 -5.55859e-19 0.0416833)
(0.0338915 0.00381578 4.51487e-19 0.0884095 -1.41417e-18 0.0611998)
(0.0495937 0.0108764 4.4474e-19 0.125174 8.24531e-19 0.0873966)
(0.0707725 0.0203447 4.76103e-19 0.172401 1.78582e-18 0.121734)
(0.0987575 0.0335032 3.87556e-19 0.231634 1.87708e-18 0.165673)
(0.133906 0.0513792 -5.78975e-19 0.298413 -2.33977e-18 0.214342)
(0.185969 0.0703223 3.06374e-20 0.422978 -8.13638e-19 0.310631)
(0.311765 0.151196 -2.02379e-19 0.540156 -1.68446e-18 0.413836)
(0.229687 0.0864674 -4.81028e-19 0.522726 -8.08775e-19 0.382592)
(0.00800136 -0.000751855 5.32482e-22 0.00681434 1.28004e-21 0.00740212)
(0.00683766 -0.000820303 -8.31148e-22 0.00653859 -1.64345e-21 0.00665855)
(0.00684142 -0.000893787 4.50051e-21 0.00738277 9.14224e-21 0.0071093)
(0.00338565 -0.000389083 5.1631e-21 0.00376925 9.07407e-21 0.00356728)
(0.00522904 0.000154776 -4.85654e-21 0.00419473 -7.21554e-21 0.00469205)
(0.188995 0.0145588 3.2647e-20 0.077127 -1.06737e-20 0.133283)
(0.99906 0.0299489 -7.24536e-20 0.380217 -8.90863e-21 0.694859)
(1.78717 -0.0471667 -2.53405e-19 0.681386 3.16651e-19 1.23108)
(1.51102 -0.16783 4.03607e-19 0.613191 -1.81775e-19 1.07154)
(0.725799 -0.152675 9.40509e-21 0.351287 1.80957e-19 0.533953)
(0.369497 -0.0963709 3.61944e-19 0.202597 -2.34654e-18 0.279063)
(0.218073 -0.0621584 -2.58119e-19 0.126139 3.98416e-19 0.171222)
(0.147311 -0.0451587 -2.91725e-19 0.0900116 2.33084e-19 0.11924)
(0.103898 -0.0341403 3.37221e-19 0.0677298 -2.32507e-18 0.0859413)
(0.0789009 -0.0273869 2.67512e-19 0.0544113 1.33308e-19 0.0666913)
(0.0619278 -0.0222289 1.69029e-19 0.0443418 1.77818e-19 0.053102)
(0.0516875 -0.0190073 -1.57147e-19 0.0380763 6.30281e-19 0.0448348)
(0.0450755 -0.016777 -1.04565e-20 0.0336829 1.38328e-19 0.0393645)
(0.0410924 -0.0154798 3.6936e-20 0.031176 -6.7144e-20 0.0361002)
(0.0390656 -0.0148652 4.76592e-20 0.0300082 4.99121e-20 0.0345296)
(0.0381732 -0.0147027 -1.00206e-20 0.0297916 2.31947e-19 0.0339624)
(0.038279 -0.0148471 -8.95889e-20 0.0301523 2.29639e-19 0.0341941)
(0.0394405 -0.015327 1.22822e-19 0.0311473 1.75832e-19 0.0352699)
(0.0414236 -0.016163 1.51898e-19 0.0328872 4.02777e-19 0.0371404)
(0.0435179 -0.0171501 -1.78271e-19 0.0350195 -9.87194e-20 0.0392572)
(0.0451225 -0.0180998 -1.33761e-19 0.0372217 2.04751e-18 0.0411645)
(0.0456346 -0.0188363 8.26523e-20 0.0392715 -3.14831e-20 0.0424498)
(0.0444221 -0.019156 -2.9591e-19 0.0410452 -8.3414e-19 0.0427361)
(0.0410455 -0.0188308 -5.04438e-19 0.0427247 -1.60993e-18 0.0418948)
(0.0357561 -0.0176017 3.66124e-19 0.0452638 -6.6303e-19 0.0405303)
(0.0304155 -0.0151415 1.22582e-19 0.051256 1.76434e-18 0.0408666)
(0.0290548 -0.0110278 2.63789e-19 0.0654071 -1.06765e-18 0.0472719)
(0.0354559 -0.00474676 -2.33639e-19 0.0920715 2.9706e-18 0.0638269)
(0.0506346 0.00419496 -9.00877e-19 0.13275 1.46625e-19 0.0917598)
(0.0743454 0.0162888 -3.36872e-19 0.187665 6.2165e-19 0.131023)
(0.107115 0.0322126 -4.58562e-19 0.258632 7.43342e-19 0.183071)
(0.150741 0.0539228 -6.66393e-20 0.347553 -3.66552e-20 0.249795)
(0.207131 0.0841254 2.29609e-20 0.448538 7.38056e-20 0.325325)
(0.276496 0.1138 -3.12512e-20 0.602326 1.62281e-18 0.446975)
(0.457963 0.222847 -2.88168e-20 0.792105 -1.11759e-18 0.609588)
(0.351341 0.171225 6.27188e-19 0.643888 -7.45041e-19 0.507547)
(0.00579326 -0.000516195 -5.25404e-22 0.00489136 -8.93039e-22 0.00534761)
(0.00508146 -0.000610449 2.71276e-21 0.00473934 4.42916e-21 0.00490141)
(0.00470405 -0.000598183 -1.33519e-21 0.0048452 -2.91479e-21 0.00476912)
(0.0049713 -0.000631409 -1.31101e-21 0.00559422 -3.50279e-21 0.00528772)
(0.00157577 -9.56379e-05 3.02948e-22 0.00169708 7.29349e-22 0.0016357)
(0.00120344 6.74413e-06 -1.52057e-22 0.00108913 -1.50297e-22 0.0011437)
(0.127953 0.00756699 -2.3334e-20 0.0516906 -2.39878e-20 0.0896958)
(0.799766 0.0178089 -7.91534e-20 0.303853 9.76741e-20 0.554821)
(1.81108 -0.0453553 -1.67606e-19 0.689497 -1.61286e-19 1.25042)
(1.93796 -0.179127 -3.69322e-19 0.77116 -9.65344e-19 1.35961)
(1.21038 -0.22197 3.73991e-19 0.550808 5.58366e-19 0.889723)
(0.594614 -0.148468 6.02631e-19 0.317446 -8.28155e-19 0.444216)
(0.356884 -0.101256 -8.07071e-19 0.206559 6.22393e-19 0.277684)
(0.23525 -0.0708773 3.51708e-19 0.141932 1.08104e-18 0.188533)
(0.169551 -0.055305 1.89679e-20 0.109639 4.7701e-19 0.140141)
(0.128358 -0.0443304 -2.28084e-19 0.0879858 -8.57098e-20 0.108396)
(0.104024 -0.0377058 1.60175e-19 0.0753234 -8.96123e-19 0.0896176)
(0.0886583 -0.0331114 -3.41854e-20 0.0665204 5.82869e-19 0.0775748)
(0.0790588 -0.0302802 7.03052e-20 0.0612523 -1.10826e-19 0.0701048)
(0.0737469 -0.0287751 4.67793e-20 0.0585332 2.03045e-19 0.0661463)
(0.0708245 -0.0280894 -6.2884e-20 0.0574949 -2.92818e-19 0.0641448)
(0.0697844 -0.0279251 2.9757e-20 0.0573644 1.1891e-20 0.0635687)
(0.0704382 -0.0282485 1.42544e-20 0.0580858 1.01493e-19 0.0642499)
(0.072454 -0.0290932 -2.95871e-19 0.0598522 -3.40974e-19 0.0661469)
(0.0748841 -0.0302005 3.21121e-19 0.062251 -8.02503e-19 0.06856)
(0.0768833 -0.0313325 4.52799e-20 0.0649015 -4.30298e-19 0.0708839)
(0.0775132 -0.0322239 -5.36641e-19 0.0674468 -4.3126e-19 0.072472)
(0.0757009 -0.0325391 5.17692e-20 0.0695638 -9.72824e-19 0.0726256)
(0.0705109 -0.0318832 8.47721e-19 0.0712021 -1.18639e-19 0.0708547)
(0.0617336 -0.0298035 3.38297e-19 0.0731114 1.42483e-18 0.0674329)
(0.0511049 -0.0257524 -4.12575e-19 0.0779971 -7.78924e-19 0.0645744)
(0.0442187 -0.0191138 -4.96076e-19 0.0923504 6.38086e-19 0.0683162)
(0.0488021 -0.00921774 -2.14356e-19 0.124679 -3.16428e-18 0.0868001)
(0.0680737 0.00468242 7.79528e-19 0.178785 -1.97165e-18 0.123498)
(0.101234 0.0233286 6.26782e-19 0.254248 -1.79645e-18 0.177749)
(0.148022 0.0476074 -1.35404e-19 0.351951 -6.33842e-20 0.250235)
(0.210436 0.0801318 1.38622e-19 0.47339 1.44634e-18 0.342666)
(0.292055 0.125067 4.09694e-20 0.611383 -8.17476e-19 0.448808)
(0.380504 0.168416 -2.50063e-19 0.786102 7.51083e-19 0.591701)
(0.601671 0.293998 -5.50891e-19 1.03745 1.77633e-18 0.802971)
(0.524478 0.264657 -5.28345e-19 0.846576 -8.87426e-19 0.695362)
(0.00420737 -0.000351939 -1.26826e-22 0.0035099 -2.33488e-22 0.0038619)
(0.00386252 -0.000441849 2.95921e-22 0.00351527 3.47729e-22 0.00368898)
(0.00347463 -0.000441329 -1.38791e-21 0.0034535 -1.84827e-21 0.00346289)
(0.00353755 -0.000458437 -2.20141e-21 0.00383642 -2.75751e-21 0.00368466)
(0.00354741 -0.000402881 -7.55952e-22 0.00408114 -8.82135e-22 0.00381642)
(0.000722559 -2.01893e-05 2.10082e-22 0.000755496 2.90678e-22 0.000739098)
(3.15336e-05 -2.64885e-08 -4.67256e-25 3.13466e-05 -7.07162e-25 3.14346e-05)
(0.0590739 0.00228839 1.83548e-20 0.0248631 2.02004e-20 0.0418127)
(0.536082 0.0079372 2.37582e-19 0.203604 2.28663e-19 0.370779)
(1.5744 -0.0392233 -1.70271e-19 0.598746 3.86515e-19 1.08976)
(2.19109 -0.164107 -2.69366e-19 0.859186 6.47746e-19 1.5223)
(1.78817 -0.273247 2.73681e-19 0.770147 -1.06704e-18 1.2945)
(0.997924 -0.231861 4.3964e-19 0.505652 1.319e-18 0.750747)
(0.548989 -0.152231 -7.86314e-19 0.314414 -2.9638e-19 0.420094)
(0.358968 -0.108422 3.33016e-19 0.217738 -1.34383e-18 0.286037)
(0.257659 -0.0826813 -2.22797e-19 0.164137 7.70819e-19 0.211472)
(0.196305 -0.0675755 1.37761e-19 0.134064 7.56582e-19 0.165623)
(0.158422 -0.0574114 1.58596e-19 0.114564 3.89421e-19 0.136732)
(0.13509 -0.0510317 -8.25773e-20 0.102829 3.44036e-19 0.118885)
(0.12208 -0.0474582 9.24705e-21 0.0964232 -9.95808e-19 0.109241)
(0.114711 -0.0455919 2.16378e-20 0.0934123 4.24849e-19 0.104005)
(0.111516 -0.0448387 -1.30955e-19 0.0923023 -8.43208e-21 0.101891)
(0.111436 -0.0449559 1.22892e-19 0.0926817 -4.78309e-19 0.10204)
(0.113715 -0.0459115 2.04214e-19 0.0946785 -7.08737e-20 0.104192)
(0.116935 -0.0473109 -1.78469e-19 0.0976572 1.03408e-18 0.107294)
(0.11984 -0.0488113 -3.24011e-19 0.101074 -9.08565e-19 0.110454)
(0.121034 -0.0500157 4.11241e-19 0.104336 -5.42287e-19 0.112682)
(0.118852 -0.0504086 2.09554e-19 0.106788 1.63931e-18 0.112815)
(0.111635 -0.0493715 1.44284e-19 0.107949 1.79593e-18 0.109789)
(0.0984479 -0.0462304 -2.03726e-19 0.108141 -3.26395e-19 0.103303)
(0.0803963 -0.0401882 -2.00934e-20 0.109708 -1.18644e-18 0.0950766)
(0.063887 -0.0303856 -4.05028e-19 0.120189 -3.56465e-19 0.0920698)
(0.0619223 -0.0159183 -1.92734e-19 0.15351 1.49035e-18 0.107779)
(0.083223 0.00424347 9.46869e-20 0.218964 2.2891e-18 0.151166)
(0.126486 0.0311047 1.3469e-18 0.315315 7.58982e-19 0.220907)
(0.189355 0.0656942 2.22256e-19 0.440695 -8.46887e-19 0.31532)
(0.273148 0.110999 -1.57293e-18 0.594701 -7.43402e-19 0.434633)
(0.381822 0.171459 2.39623e-20 0.768228 -2.13809e-19 0.572147)
(0.493555 0.230808 -1.96592e-20 0.960198 -1.87246e-18 0.734849)
(0.734818 0.36189 -1.34627e-19 1.2479 5.99466e-19 0.976297)
(0.716043 0.361703 4.30329e-19 1.08173 1.59144e-18 0.904419)
(0.00308095 -0.000246262 -2.62047e-23 0.00255067 -5.26344e-24 0.00281919)
(0.00291509 -0.000315245 -5.37903e-22 0.00259403 -7.32216e-22 0.00275394)
(0.0027642 -0.000345238 5.21981e-22 0.00266219 7.06541e-22 0.00271229)
(0.00255374 -0.00032882 2.39044e-21 0.00265976 3.19994e-21 0.00260484)
(0.00265389 -0.000335899 4.7409e-22 0.00298484 6.59399e-22 0.00281626)
(0.00271842 -0.000292814 4.07496e-22 0.00319793 2.14861e-22 0.0029587)
(0.000141627 -7.66196e-07 -1.55353e-23 0.000143162 -1.71153e-23 0.000142403)
(1.55958e-06 -4.26288e-10 -9.18544e-28 1.55951e-06 -6.25709e-28 1.55953e-06)
(0.0171333 0.000170797 -9.05978e-21 0.00872012 -1.30434e-20 0.0128597)
(0.28808 0.00164975 1.70471e-19 0.10952 1.92041e-19 0.198758)
(1.13337 -0.0280104 -2.77802e-19 0.431021 -6.81258e-19 0.784417)
(2.13533 -0.13748 -1.05557e-19 0.829918 8.47937e-19 1.48165)
(2.2731 -0.279228 1.48478e-19 0.938466 -1.02425e-18 1.61112)
(1.59415 -0.321002 -3.52417e-19 0.751168 -3.91644e-19 1.18827)
(0.885409 -0.234743 9.33948e-19 0.487946 -2.69878e-19 0.677932)
(0.537412 -0.161211 3.83864e-19 0.326425 8.30811e-19 0.422201)
(0.375357 -0.119933 -3.49772e-19 0.238857 5.14521e-19 0.30578)
(0.285799 -0.0971514 -3.81008e-19 0.192539 4.39446e-19 0.240108)
(0.229721 -0.0830618 -6.12004e-19 0.165648 -3.63818e-20 0.198146)
(0.196287 -0.0744086 4.7766e-19 0.149932 -6.07901e-19 0.17335)
(0.177036 -0.0694965 1.93771e-19 0.141717 8.41712e-19 0.159283)
(0.168425 -0.0673306 -3.51164e-19 0.138275 -2.04923e-19 0.153285)
(0.166212 -0.0668707 1.2277e-19 0.137712 3.53239e-19 0.15189)
(0.16852 -0.0678957 9.22788e-20 0.139899 2.34383e-19 0.154164)
(0.172952 -0.0697282 1.7322e-20 0.143709 -3.75979e-19 0.158305)
(0.17753 -0.0718312 -2.35462e-20 0.148279 5.29487e-19 0.162891)
(0.180185 -0.0736051 3.36919e-19 0.15263 1.37644e-18 0.166408)
(0.178444 -0.0742851 3.07888e-19 0.155589 -5.45434e-19 0.167027)
(0.169562 -0.0729207 -4.52956e-19 0.155931 3.882e-20 0.162763)
(0.151595 -0.0685907 -9.87454e-19 0.153257 -1.14315e-18 0.152452)
(0.12425 -0.0602018 2.50467e-19 0.148783 7.19175e-20 0.136559)
(0.0928029 -0.0465926 5.65888e-19 0.149103 -1.0544e-18 0.121002)
(0.0748247 -0.0265858 6.30719e-19 0.172756 3.29305e-19 0.123869)
(0.0915489 0.00111192 -4.23966e-19 0.241374 -1.74048e-19 0.16655)
(0.143714 0.037699 -7.68424e-19 0.355191 1.52081e-18 0.249482)
(0.223913 0.0841927 -6.09175e-19 0.506099 -1.43233e-18 0.365346)
(0.330652 0.143377 9.66353e-19 0.689172 -2.21497e-19 0.510482)
(0.465867 0.21844 3.01146e-20 0.892093 3.66061e-19 0.676618)
(0.604531 0.294048 2.0293e-19 1.09899 -3.54617e-19 0.857949)
(0.844808 0.420705 -1.54441e-19 1.38684 -8.28162e-19 1.10536)
(0.891892 0.448494 -4.54566e-19 1.29092 5.38492e-19 1.08967)
(0.00228198 -0.000174894 -8.44714e-23 0.00187784 -2.85275e-23 0.00208226)
(0.00218773 -0.000225611 -4.525e-22 0.00191521 -7.03996e-22 0.0020511)
(0.00212269 -0.00025523 1.89135e-21 0.00198792 2.15282e-21 0.00205511)
(0.00203276 -0.000262152 -2.5435e-22 0.00204392 -3.24588e-22 0.00203839)
(0.00188545 -0.000238238 6.67743e-22 0.00203211 6.2015e-22 0.00195785)
(0.00204718 -0.000257985 -6.70035e-22 0.0023769 -6.09528e-22 0.00220931)
(0.00194034 -0.000183444 1.37514e-21 0.00229926 1.84203e-21 0.00211918)
(0.000290504 -3.43291e-06 3.54786e-23 0.000298714 2.97169e-23 0.000294648)
(0.000251692 -5.99087e-06 1.61768e-24 0.000261385 2.92882e-23 0.000256528)
(0.000518096 -3.20184e-06 2.09749e-22 0.00048024 1.85868e-22 0.000498744)
(0.110018 -0.000849314 -4.85203e-21 0.04214 5.21755e-21 0.0758678)
(0.650027 -0.0174676 -3.18845e-19 0.24755 -2.14606e-19 0.449258)
(1.69278 -0.0985897 1.98312e-19 0.654565 -3.93061e-19 1.17529)
(2.44273 -0.244395 -4.84874e-19 0.982018 9.2672e-19 1.70971)
(2.22309 -0.365994 -2.59888e-19 0.977975 -9.3022e-19 1.61429)
(1.45777 -0.347 5.45199e-19 0.745354 7.39418e-19 1.113)
(0.842495 -0.244364 3.40172e-19 0.496963 -1.54458e-18 0.657371)
(0.548414 -0.175095 1.66148e-19 0.351242 5.75507e-19 0.441193)
(0.405019 -0.136565 -7.35081e-19 0.271291 -1.12373e-18 0.337404)
(0.323625 -0.116007 2.97413e-19 0.230876 1.18944e-18 0.27842)
(0.275165 -0.104294 7.48183e-20 0.210072 -8.75407e-19 0.243135)
(0.251298 -0.0985798 -3.27445e-19 0.20083 4.29916e-19 0.226261)
(0.242089 -0.0964595 2.4547e-19 0.197821 5.30473e-21 0.219867)
(0.242408 -0.0970971 -4.15335e-20 0.199586 2.69262e-20 0.220872)
(0.247728 -0.0992984 -8.92091e-20 0.204157 7.36082e-19 0.22585)
(0.254372 -0.102055 1.09438e-19 0.209895 -1.75467e-19 0.232063)
(0.259293 -0.104492 -7.63708e-19 0.215317 6.11468e-21 0.237261)
(0.259165 -0.105613 -3.74642e-19 0.218752 1.90541e-19 0.23894)
(0.250108 -0.104159 -1.94168e-19 0.218207 -1.21798e-18 0.234171)
(0.228463 -0.0987475 9.45453e-19 0.211915 1.006e-19 0.220245)
(0.191775 -0.087902 1.59698e-19 0.19918 8.16572e-19 0.195579)
(0.141644 -0.0700806 2.9013e-19 0.183051 9.02525e-19 0.16247)
(0.0935021 -0.0438316 -6.00935e-19 0.179856 2.68773e-19 0.136816)
(0.0878122 -0.00771429 4.92648e-19 0.230062 -1.1984e-18 0.159073)
(0.143063 0.0394853 2.8152e-19 0.350849 -1.41837e-19 0.247045)
(0.24057 0.0985042 1.01599e-18 0.521274 3.15436e-19 0.381288)
(0.370479 0.17112 -1.48879e-18 0.726218 4.65048e-19 0.548765)
(0.529863 0.25818 -1.34931e-19 0.948637 1.06921e-19 0.737625)
(0.694203 0.346465 2.911e-19 1.16471 4.5836e-19 0.933107)
(0.918083 0.461418 4.70138e-19 1.4254 1.1939e-20 1.16696)
(1.01528 0.507263 8.8937e-20 1.41041 -1.18224e-18 1.20398)
(0.00169841 -0.000125709 -3.32249e-22 0.00139122 -3.86429e-22 0.00154649)
(0.00164251 -0.000162549 1.34577e-21 0.00142079 1.4065e-21 0.00153171)
(0.00160944 -0.000186652 -3.15262e-22 0.00147621 -2.79092e-22 0.00154284)
(0.00157804 -0.00019956 -2.47783e-21 0.001541 -2.61473e-21 0.00155961)
(0.00151579 -0.00019604 -2.32849e-22 0.00157749 -3.11607e-22 0.00154675)
(0.00142362 -0.00017592 2.43207e-21 0.00157522 2.60242e-21 0.00149895)
(0.0015411 -0.000187172 -7.00244e-22 0.00182932 -9.23248e-22 0.00168329)
(0.00138317 -0.000115423 -4.77557e-21 0.00164708 -4.74942e-21 0.0015141)
(0.000480169 -1.05622e-05 4.76709e-22 0.000509967 4.60695e-22 0.000495135)
(6.53001e-05 -2.55501e-07 7.5756e-25 6.59709e-05 -7.25512e-25 6.56391e-05)
(0.00131858 -0.000246013 -1.02691e-21 0.00104769 -1.69559e-21 0.00117653)
(0.023899 -0.00081116 -8.49093e-21 0.00996185 -4.80999e-21 0.016846)
(0.281071 -0.00939701 -1.88062e-19 0.107418 -1.24035e-19 0.194037)
(1.05338 -0.0585407 1.72934e-19 0.406638 -1.32612e-19 0.730886)
(2.11321 -0.18371 -6.41562e-19 0.837423 6.67734e-19 1.47485)
(2.58828 -0.34085 5.98888e-19 1.08342 -3.95803e-19 1.83519)
(2.16306 -0.42867 -5.0255e-19 1.01315 7.53279e-19 1.60647)
(1.40089 -0.371789 -1.08734e-19 0.766406 -1.85854e-19 1.09139)
(0.849428 -0.263995 -2.40103e-19 0.531091 -3.56669e-19 0.676604)
(0.581396 -0.196318 2.88198e-19 0.392947 -1.03497e-18 0.478528)
(0.452119 -0.161133 4.53144e-19 0.321272 3.28921e-19 0.386005)
(0.386466 -0.144854 -2.42311e-19 0.290706 -9.96141e-19 0.339949)
(0.355346 -0.137796 -2.27201e-19 0.279384 4.48423e-19 0.318184)
(0.345459 -0.136357 7.01736e-19 0.278414 -5.84175e-19 0.312244)
(0.348011 -0.138276 -4.10841e-19 0.283212 4.9081e-20 0.315583)
(0.35662 -0.141874 -5.65128e-19 0.290794 -3.68339e-19 0.323531)
(0.365722 -0.145548 1.00008e-18 0.298364 -1.41469e-18 0.331876)
(0.369473 -0.147513 -2.09225e-20 0.302765 1.06766e-18 0.33601)
(0.362308 -0.146048 -4.37373e-22 0.300978 -6.48643e-20 0.331599)
(0.339352 -0.139538 -5.98085e-19 0.29031 1.05267e-18 0.314845)
(0.296216 -0.126253 6.42502e-20 0.26828 -6.35133e-19 0.282328)
(0.229745 -0.104192 -1.17643e-20 0.233298 3.27041e-19 0.231674)
(0.14397 -0.0715825 -6.81351e-19 0.190198 -5.74529e-19 0.167312)
(0.0759683 -0.0269736 3.67173e-19 0.17558 1.7119e-18 0.126064)
(0.111074 0.0306003 -5.19087e-19 0.272613 2.82208e-19 0.192131)
(0.224684 0.101215 -4.88721e-19 0.452907 1.45254e-21 0.339288)
(0.377462 0.184831 6.94042e-19 0.67043 -1.84043e-18 0.52437)
(0.557654 0.279559 -7.15488e-20 0.900814 7.6606e-19 0.7283)
(0.740759 0.373518 -1.57415e-19 1.11706 -9.12311e-19 0.930399)
(0.939492 0.472116 -1.37168e-18 1.33925 -6.60954e-19 1.13916)
(1.06029 0.523788 -3.22066e-19 1.38828 -1.9095e-19 1.21149)
(0.00126882 -9.13877e-05 -2.94718e-22 0.00103589 -2.39702e-22 0.00115349)
(0.00123421 -0.000118093 -1.23025e-21 0.00105835 -1.10882e-21 0.00114644)
(0.00121664 -0.000136608 -6.79805e-23 0.00109903 -1.86457e-22 0.00115787)
(0.00120314 -0.000148563 -2.00346e-22 0.00114892 -1.6897e-22 0.00117608)
(0.00118596 -0.000153209 1.75815e-21 0.00119929 1.73154e-21 0.00119266)
(0.00114205 -0.000145796 9.4088e-22 0.00122154 7.64803e-22 0.00118186)
(0.0010946 -0.000132595 -1.305e-21 0.00123689 -1.24725e-21 0.00116558)
(0.00113239 -0.000128188 -9.74746e-22 0.00135905 -3.69898e-22 0.00124471)
(0.00111316 -9.48267e-05 -6.27951e-22 0.00136198 -6.33644e-22 0.00123631)
(0.000620478 -2.09114e-05 -1.0911e-21 0.000689957 -1.07546e-21 0.000655172)
(4.48055e-05 -1.01925e-07 -1.56526e-24 4.51571e-05 -1.07298e-24 4.49829e-05)
(0.00021331 -6.11181e-06 -2.01681e-23 0.000225369 -9.1385e-24 0.000219386)
(0.000168887 -1.46056e-06 5.99493e-23 0.000162128 5.84373e-23 0.000165449)
(0.0752421 -0.00378749 -2.72944e-19 0.0291524 -2.24771e-19 0.0520335)
(0.479819 -0.027699 7.25449e-19 0.185607 6.24335e-19 0.332599)
(1.38864 -0.111374 -3.43051e-19 0.546564 -4.08915e-19 0.968293)
(2.37615 -0.264591 1.48045e-18 0.968081 9.11095e-19 1.66988)
(2.66259 -0.420492 6.385e-19 1.16085 7.69926e-19 1.91385)
(2.15595 -0.481542 -1.83205e-18 1.06523 -2.63288e-19 1.6309)
(1.42315 -0.407216 5.94207e-19 0.821965 -1.17008e-18 1.12949)
(0.903322 -0.298087 2.83395e-19 0.596894 1.41651e-18 0.736112)
(0.655297 -0.23332 -5.92676e-20 0.469187 -8.00491e-19 0.551625)
(0.55238 -0.204207 5.77996e-19 0.409953 6.22096e-19 0.479498)
(0.50792 -0.19303 -3.44171e-19 0.388694 -6.82919e-19 0.450285)
(0.492137 -0.190872 3.93635e-19 0.386773 5.0907e-20 0.441198)
(0.493754 -0.193491 -5.53863e-19 0.393866 8.50593e-19 0.444612)
(0.503745 -0.19792 1.06476e-19 0.403533 7.25139e-19 0.453815)
(0.513159 -0.201389 -1.81696e-19 0.410578 -1.88001e-18 0.461716)