/*--------------------------------*- C++ -*----------------------------------*\
| =========                 |                                                 |
| \\      /  F ield         | OpenFOAM: The Open Source CFD Toolbox           |
|  \\    /   O peration     | Version:  2312                                  |
|   \\  /    A nd           | Website:  www.openfoam.com                      |
|    \\/     M anipulation  |                                                 |
\*---------------------------------------------------------------------------*/
FoamFile
{
    version     2.0;
    format      ascii;
    arch        "LSB;label=32;scalar=64";
    class       volSymmTensorField;
    location    "850";
    object      turbulenceProperties:devReff;
}
// * * * * * * * * * * * * * * * * * * * * * * * * * * * * * * * * * * * * * //

dimensions      [0 2 -2 0 0 0 0];

internalField   nonuniform List<symmTensor> 
11040
(
(0.0180387 0.0948605 -1.68866e-22 -0.0279895 1.16559e-20 0.00995077)
(0.0673031 0.0878063 9.63267e-21 -0.0801984 1.35564e-19 0.0128953)
(0.0124616 0.00982054 -2.96776e-20 -0.0109616 9.25295e-20 -0.00150006)
(-0.00490406 0.0107026 -7.0478e-20 0.00536064 4.01113e-20 -0.000456585)
(-0.068877 0.0484545 -2.23974e-20 0.0690879 2.00232e-19 -0.000210831)
(-0.0627343 0.0598065 -3.06741e-19 0.0634386 1.11786e-19 -0.000704363)
(-0.0531057 0.062776 1.7603e-19 0.0533626 -1.15655e-18 -0.000256928)
(-0.0433465 0.0611396 2.45276e-19 0.0434775 -1.69799e-19 -0.000131041)
(-0.0345127 0.0577179 1.05429e-19 0.0345946 -3.0577e-20 -8.19159e-05)
(-0.02827 0.0556442 9.83489e-20 0.0282561 1.56276e-19 1.39333e-05)
(-0.0230819 0.0529958 -8.72795e-20 0.023081 3.72111e-19 8.27584e-07)
(-0.0187161 0.0504373 -1.30657e-19 0.0186855 2.8049e-19 3.06258e-05)
(-0.015059 0.0481751 2.17855e-20 0.0149978 -1.61165e-19 6.11907e-05)
(-0.0120416 0.0463504 2.71839e-20 0.011981 1.5793e-19 6.06266e-05)
(-0.00939822 0.0448163 -1.22498e-20 0.00931325 1.19101e-20 8.4977e-05)
(-0.00717695 0.0441104 -4.68638e-21 0.00708402 -2.03961e-19 9.29313e-05)
(-0.00520247 0.0442507 5.63259e-20 0.00509381 -7.50114e-22 0.000108657)
(-0.00334988 0.0453295 -5.51069e-21 0.0032255 3.70414e-19 0.000124382)
(-0.00148544 0.0472016 -3.18954e-20 0.00134617 3.24366e-21 0.000139264)
(0.000498412 0.0498275 5.15977e-21 -0.000657062 -5.38319e-20 0.00015865)
(0.00270738 0.0532893 2.43814e-20 -0.00287517 4.11689e-20 0.000167797)
(0.00500913 0.0574857 -2.66896e-20 -0.0051781 1.24431e-19 0.000168963)
(0.00725147 0.0624371 1.02232e-21 -0.00743425 -1.02444e-19 0.00018278)
(0.00964996 0.0682072 1.3701e-20 -0.00984446 2.6329e-19 0.000194499)
(0.0123222 0.0748086 -7.98967e-20 -0.0125123 -2.36903e-19 0.000190083)
(0.0153295 0.0825387 -4.26591e-20 -0.0155027 -5.53467e-19 0.000173204)
(0.0186506 0.0911202 1.15855e-20 -0.0187941 -2.57712e-19 0.000143416)
(0.0220165 0.0993068 3.44955e-20 -0.0221147 7.35786e-20 9.82082e-05)
(0.0252002 0.106368 -2.33196e-20 -0.0252337 -2.10584e-19 3.34944e-05)
(0.0278881 0.111467 1.43146e-20 -0.0278422 -4.91719e-19 -4.58485e-05)
(0.0297408 0.113732 1.25003e-19 -0.0296147 3.53637e-19 -0.000126069)
(0.0305234 0.112407 2.10203e-20 -0.0303189 -2.86537e-20 -0.000204531)
(0.0301869 0.10777 1.08546e-19 -0.0299027 9.9414e-19 -0.000284205)
(0.0289777 0.101431 -9.38468e-20 -0.0285976 6.08668e-19 -0.000380079)
(0.0274909 0.0961159 4.77221e-20 -0.0269317 1.05178e-20 -0.000559266)
(0.021097 0.0764204 1.32647e-19 -0.0204123 9.45882e-19 -0.000684742)
(0.00986248 0.0403739 8.29798e-21 -0.00930774 1.82037e-19 -0.000554735)
(0.00372581 0.0254256 -4.14509e-20 -0.00289487 5.4519e-19 -0.000830942)
(-0.00546884 0.00933596 -4.49081e-19 0.00588629 -1.16345e-18 -0.000417445)
(-0.0159363 -0.0286606 -1.46917e-22 0.0173234 -9.80872e-19 -0.00138713)
(-0.0594206 -0.0192451 2.06073e-19 0.0663476 5.54317e-20 -0.006927)
(0.00577124 -0.00597587 5.87966e-22 -0.00414029 -1.72071e-21 -0.00163095)
(0.0168945 0.00171079 2.61766e-20 -0.0101552 5.11049e-21 -0.00673931)
(0.0523865 0.0322111 5.70456e-20 -0.0539204 -3.02573e-19 0.00153389)
(0.123193 0.032529 7.82767e-20 -0.123945 -1.77716e-19 0.000751244)
(0.247865 -0.0212284 8.30264e-20 -0.247391 -4.95268e-19 -0.000474561)
(0.0676249 -0.0492014 5.6899e-19 -0.0671467 -1.20876e-18 -0.000478212)
(0.0179217 -0.0191906 -8.29346e-19 -0.0170097 3.25015e-18 -0.000911922)
(0.00439641 -0.0077687 -8.34634e-19 -0.00458772 2.15444e-18 0.000191306)
(0.000358835 -0.00233231 -7.53785e-20 -0.000484457 -1.54708e-19 0.000125621)
(-0.00123407 0.00121825 -1.04309e-19 0.00111191 4.05181e-20 0.000122168)
(-0.00219626 0.00353954 4.62727e-19 0.00221067 -1.16347e-18 -1.44109e-05)
(-0.00244185 0.00498641 -1.75964e-21 0.00253715 -7.4981e-20 -9.53047e-05)
(-0.00228596 0.00607316 -1.67332e-19 0.00237961 6.85135e-19 -9.36463e-05)
(-0.00208854 0.00683051 -1.13703e-19 0.00223806 3.30845e-20 -0.000149519)
(-0.00173487 0.00737635 -4.49008e-20 0.00189668 -1.72716e-19 -0.000161812)
(-0.00136496 0.00787009 1.07141e-20 0.00155254 5.92319e-19 -0.000187582)
(-0.000985419 0.00843543 -1.46296e-20 0.00119714 1.97853e-19 -0.000211723)
(-0.000579934 0.0090872 -9.09936e-21 0.000814928 -5.5321e-19 -0.000234993)
(-0.000138773 0.00973752 -2.37629e-20 0.000401965 -2.56041e-20 -0.000263192)
(0.000358701 0.0103823 -7.41802e-21 -7.72884e-05 8.26161e-20 -0.000281412)
(0.000919189 0.0110343 -1.1021e-20 -0.000627125 -1.53031e-20 -0.000292064)
(0.00151617 0.0117214 3.12336e-20 -0.00121505 -2.77542e-19 -0.00030112)
(0.00205544 0.0122574 2.39855e-20 -0.0017357 3.90491e-19 -0.000319747)
(0.00250034 0.0124352 -4.68905e-20 -0.00217652 -3.56028e-19 -0.000323821)
(0.00280925 0.0122036 -6.50783e-21 -0.00250614 2.88788e-19 -0.000303114)
(0.00300381 0.0118063 7.51134e-20 -0.00273918 9.32539e-19 -0.000264626)
(0.00308975 0.0113501 1.40382e-19 -0.00287743 5.15051e-19 -0.000212323)
(0.00295017 0.0105685 -3.4401e-20 -0.00281911 1.43286e-19 -0.000131057)
(0.0025385 0.00948858 -9.23043e-20 -0.00252678 2.8505e-19 -1.17216e-05)
(0.00185935 0.00828255 4.48628e-20 -0.00200007 5.0697e-19 0.00014072)
(0.000974825 0.00731331 -1.11818e-19 -0.00127779 -7.73194e-19 0.000302969)
(-0.000169722 0.00703859 -5.6309e-20 -0.00031048 -1.26144e-18 0.000480202)
(-0.00187729 0.00687137 -1.301e-19 0.00119017 -2.63374e-18 0.000687114)
(-0.00413166 0.00693846 7.05948e-20 0.00321987 -1.30609e-18 0.000911788)
(-0.00698214 0.00728512 -9.38927e-20 0.00574581 1.22282e-19 0.00123633)
(-0.0104957 0.00798402 -4.39693e-19 0.00873783 -3.99853e-18 0.00175788)
(-0.0146716 0.00952189 -6.8874e-20 0.0123995 -3.47549e-19 0.00227214)
(-0.019422 0.0120726 -5.08693e-19 0.0176328 -2.39455e-18 0.00178917)
(-0.033624 0.0154489 1.24865e-18 0.0298068 5.40825e-18 0.00381714)
(-0.02606 0.029834 8.18585e-19 0.0287135 4.85665e-18 -0.0026535)
(-0.12215 -0.113891 -4.01807e-19 0.0748518 -6.71165e-19 0.0472987)
(0.00213443 -0.00416388 -5.29927e-22 -0.00239998 -7.63369e-22 0.000265548)
(-0.000398057 -0.00399003 -1.02182e-20 0.000542951 -2.61372e-20 -0.000144893)
(0.00863675 0.00473862 2.08721e-20 -0.00811864 1.03467e-19 -0.000518107)
(0.0438034 0.0188461 6.06984e-20 -0.0445247 9.37603e-20 0.000721237)
(0.283494 0.0489646 -7.68927e-21 -0.285791 -3.81752e-20 0.00229767)
(0.384562 -0.0351249 -3.05462e-19 -0.382976 1.19911e-18 -0.00158632)
(0.17496 -0.0982982 2.60153e-20 -0.174255 1.0553e-20 -0.000705249)
(0.0546052 -0.0543884 9.55506e-20 -0.0509651 -2.47512e-18 -0.00364003)
(0.0216492 -0.0287661 -1.69117e-19 -0.0211847 2.59088e-20 -0.000464489)
(0.0119527 -0.0177831 2.41873e-19 -0.0121778 -7.06376e-19 0.00022511)
(0.00593648 -0.0105833 -4.45499e-19 -0.00603155 1.05112e-18 9.50699e-05)
(0.00287965 -0.00636704 7.74649e-19 -0.00286337 -2.10966e-18 -1.62749e-05)
(0.00148887 -0.00306219 -3.99723e-20 -0.00154962 -7.01016e-20 6.07475e-05)
(0.000650541 -0.000807533 1.56658e-19 -0.000656154 -9.25073e-19 5.61357e-06)
(0.000425851 0.000809092 2.49295e-20 -0.000470096 9.68131e-19 4.42445e-05)
(0.000412994 0.00199142 -8.02454e-20 -0.000449249 -3.70145e-19 3.62553e-05)
(0.000565467 0.00279044 -3.46867e-21 -0.000602935 -6.23785e-19 3.74678e-05)
(0.000812393 0.00335304 4.26521e-20 -0.000851408 -4.46168e-19 3.90148e-05)
(0.00109435 0.00373604 1.99174e-20 -0.00112445 -2.53256e-20 3.01012e-05)
(0.00141432 0.00395171 2.64984e-20 -0.00144294 2.82057e-20 2.86113e-05)
(0.00174983 0.0040346 2.84111e-21 -0.00177253 8.55039e-20 2.26981e-05)
(0.00211802 0.003963 -4.50635e-20 -0.00214613 1.36113e-19 2.81074e-05)
(0.0024559 0.00362103 -3.79862e-20 -0.0024859 -4.48875e-19 2.99956e-05)
(0.0026864 0.00296727 -4.0281e-20 -0.00271276 -1.80121e-19 2.63525e-05)
(0.00274646 0.00210516 8.41329e-20 -0.00276157 -2.83048e-19 1.51074e-05)
(0.00260884 0.00118051 -1.45233e-20 -0.0026094 -2.64355e-19 5.58274e-07)
(0.00223499 0.000330602 -2.29966e-19 -0.00221443 2.68809e-19 -2.05537e-05)
(0.00155812 -0.000313703 -7.92933e-20 -0.00150715 -1.08551e-18 -5.09733e-05)
(0.000515712 -0.000568449 1.93825e-19 -0.000425005 2.67995e-19 -9.07067e-05)
(-0.000969958 -0.000314925 2.64443e-19 0.00109999 1.12484e-18 -0.000130033)
(-0.00308081 0.000324997 -1.87195e-19 0.0032379 6.3228e-19 -0.000157086)
(-0.00617563 0.000975212 4.34411e-19 0.00635183 2.61423e-18 -0.000176197)
(-0.0102685 0.00231327 1.82302e-19 0.0104539 8.08508e-19 -0.000185399)
(-0.0153858 0.00451431 -4.0041e-19 0.0155509 9.06515e-19 -0.000165099)
(-0.0216483 0.00773273 -4.80856e-19 0.0217393 -9.5546e-19 -9.09536e-05)
(-0.0293766 0.0122873 3.25712e-19 0.0292195 2.00137e-18 0.000157113)
(-0.0386036 0.0189216 2.99433e-19 0.0380566 -2.10426e-18 0.000546974)
(-0.0477714 0.0276839 5.35691e-19 0.0479794 1.9174e-18 -0.000207967)
(-0.0749659 0.0381149 -4.32068e-19 0.0711822 -9.54178e-19 0.00378374)
(-0.064353 0.0839991 2.23508e-20 0.0701651 -5.03744e-19 -0.00581213)
(-0.158587 0.00548149 4.46054e-19 0.156981 1.69025e-18 0.00160624)
(0.00198014 -0.00264819 -1.51906e-22 -0.00208139 -7.13088e-22 0.000101244)
(-0.000274078 -0.00294042 -3.95799e-22 8.44819e-05 2.8402e-21 0.000189596)
(-0.000862252 -0.00212133 -1.49566e-20 0.000842823 -3.43183e-20 1.94291e-05)
(0.00325838 0.00146059 -2.00203e-20 -0.00315924 -3.92413e-20 -9.91372e-05)
(0.0641074 0.0211539 3.96483e-20 -0.0646157 4.69731e-20 0.000508339)
(0.327961 0.0432107 2.44378e-19 -0.331706 9.20057e-21 0.0037459)
(0.494313 -0.0450589 2.57992e-19 -0.492414 -1.39941e-18 -0.00189897)
(0.301724 -0.13818 9.07269e-19 -0.30595 -1.41915e-18 0.00422679)
(0.104983 -0.0951588 -4.12476e-19 -0.0989393 1.23221e-18 -0.00604344)
(0.0485012 -0.0581169 2.32705e-19 -0.0469681 4.01888e-19 -0.00153311)
(0.0261869 -0.0362066 -3.55242e-19 -0.0261362 1.13055e-18 -5.07464e-05)
(0.015291 -0.0258998 -5.84113e-19 -0.0153308 1.26993e-18 3.97686e-05)
(0.00969613 -0.0187933 4.68634e-19 -0.00979595 -9.58702e-19 9.98198e-05)
(0.00613534 -0.0137919 -1.18317e-19 -0.00606848 9.43717e-19 -6.68606e-05)
(0.00435074 -0.0103702 -2.01575e-19 -0.00433244 -1.06503e-18 -1.82984e-05)
(0.00333546 -0.00786158 -1.13315e-19 -0.00330494 -4.60259e-19 -3.05146e-05)
(0.00284436 -0.00625653 5.38541e-20 -0.00282031 2.27186e-19 -2.40546e-05)
(0.00265535 -0.00514469 1.15702e-19 -0.00264634 1.32965e-20 -9.01084e-06)
(0.00259334 -0.0045 3.14318e-20 -0.00258217 5.40208e-20 -1.11731e-05)
(0.00263131 -0.00422694 -1.22692e-20 -0.00263388 -7.77828e-20 2.57018e-06)
(0.00268689 -0.00424983 -2.76185e-20 -0.00268611 -1.98102e-19 -7.81857e-07)
(0.00282003 -0.00451593 2.67266e-20 -0.00282016 -2.82136e-19 1.27219e-07)
(0.00301891 -0.00508004 2.33135e-20 -0.00302393 -1.27786e-19 5.01562e-06)
(0.00316322 -0.00594512 8.7291e-21 -0.00317465 1.18602e-19 1.14325e-05)
(0.00314703 -0.00692806 -6.90898e-20 -0.00315746 7.1339e-19 1.04207e-05)
(0.00290657 -0.00785001 2.53711e-19 -0.00291597 -8.13358e-19 9.40551e-06)
(0.00234275 -0.00857455 1.81987e-19 -0.00235322 -6.26223e-19 1.04731e-05)
(0.00130683 -0.00896969 2.00258e-19 -0.00132023 1.53077e-18 1.33984e-05)
(-0.000389264 -0.00889767 -6.34905e-20 0.000373355 4.07795e-19 1.5909e-05)
(-0.00297994 -0.00825859 -5.59868e-19 0.00296074 -5.97215e-19 1.91987e-05)
(-0.00674521 -0.00696584 1.78711e-19 0.00672135 -1.08165e-18 2.38609e-05)
(-0.0119615 -0.00481398 -4.50708e-19 0.0119332 6.58126e-19 2.82954e-05)
(-0.0187865 -0.00131385 3.98434e-19 0.0187505 -5.58038e-19 3.59923e-05)
(-0.0273736 0.00382952 4.53112e-19 0.0273407 -1.41926e-18 3.29604e-05)
(-0.0379198 0.0109125 4.46215e-19 0.0379114 8.27264e-19 8.44084e-06)
(-0.0510188 0.0204069 4.77558e-19 0.0509202 1.79128e-18 9.86763e-05)
(-0.0667848 0.0335975 3.88647e-19 0.0664658 1.88236e-18 0.000319018)
(-0.0818574 0.0515111 -5.80462e-19 0.0830722 -2.34578e-18 -0.00121484)
(-0.120836 0.0704854 3.07085e-20 0.116722 -8.15526e-19 0.00411429)
(-0.110385 0.151514 -2.02804e-19 0.118485 -1.688e-18 -0.00809964)
(-0.148898 0.0866131 -4.81839e-19 0.144634 -8.10139e-19 0.00426407)
(0.00155545 -0.00196411 1.39103e-21 -0.00154547 3.34391e-21 -9.98051e-06)
(0.000435693 -0.00224224 -2.27189e-21 -0.000381788 -4.49227e-21 -5.39055e-05)
(-0.000691032 -0.00228972 1.15295e-20 0.000695812 2.34208e-20 -4.78029e-06)
(-0.000535103 -0.00110503 1.46636e-20 0.00055436 2.57711e-20 -1.92567e-05)
(0.00160625 0.000474654 -1.48936e-20 -0.0015657 -2.2128e-20 -4.05519e-05)
(0.0590237 0.0153834 3.44961e-20 -0.0591801 -1.12782e-20 0.000156406)
(0.312033 0.0303725 -7.34783e-20 -0.315562 -9.03462e-21 0.00352935)
(0.557514 -0.0474693 -2.55031e-19 -0.555364 3.18682e-19 -0.00214953)
(0.447745 -0.168574 4.05397e-19 -0.454062 -1.82581e-19 0.00631668)
(0.189552 -0.153295 9.44324e-21 -0.186479 1.81691e-19 -0.00307247)
(0.086124 -0.0967598 3.63404e-19 -0.0814495 -2.35601e-18 -0.00467449)
(0.0464567 -0.0624203 -2.59207e-19 -0.0458649 4.00094e-19 -0.000591755)
(0.0285856 -0.0453631 -2.93045e-19 -0.0289731 2.34138e-19 0.000387509)
(0.0181283 -0.0343035 3.38834e-19 -0.0182134 -2.33619e-18 8.516e-05)
(0.0122949 -0.0275254 2.68865e-19 -0.0123185 1.33982e-19 2.35502e-05)
(0.00885093 -0.0223476 1.69932e-19 -0.00882898 1.78767e-19 -2.19461e-05)
(0.00685921 -0.0191128 -1.5802e-19 -0.0068276 6.33782e-19 -3.16015e-05)
(0.00573394 -0.0168734 -1.05166e-20 -0.00572407 1.39123e-19 -9.87659e-06)
(0.00499872 -0.0155707 3.71529e-20 -0.0049759 -6.75382e-20 -2.2817e-05)
(0.00455793 -0.0149533 4.79416e-20 -0.00455305 5.02078e-20 -4.88013e-06)
(0.00422225 -0.0147895 -1.00797e-20 -0.00420881 2.33316e-19 -1.34442e-05)
(0.00409409 -0.0149331 -9.01079e-20 -0.00407967 2.30969e-19 -1.44293e-05)
(0.00417778 -0.0154125 1.23507e-19 -0.00416173 1.76813e-19 -1.60562e-05)
(0.0042958 -0.0162484 1.52701e-19 -0.00428574 4.04906e-19 -1.00591e-05)
(0.00427398 -0.0172347 -1.7915e-19 -0.00426625 -9.92063e-20 -7.72971e-06)
(0.00397097 -0.0181822 -1.3437e-19 -0.00396586 2.05684e-18 -5.10181e-06)
(0.00319596 -0.0189149 8.29976e-20 -0.00319373 -3.16146e-20 -2.23014e-06)
(0.00169407 -0.0192291 -2.97038e-19 -0.00169572 -8.37322e-19 1.64961e-06)
(-0.000845807 -0.0188963 -5.06193e-19 0.000839316 -1.61553e-18 6.49068e-06)
(-0.00477572 -0.0176575 3.67284e-19 0.00476214 -6.65132e-19 1.3573e-05)
(-0.0104607 -0.0151853 1.22937e-19 0.0104401 1.76945e-18 2.06197e-05)
(-0.018238 -0.011057 2.64488e-19 0.0182106 -1.07048e-18 2.73665e-05)
(-0.0283978 -0.00475831 -2.34207e-19 0.0283555 2.97783e-18 4.22637e-05)
(-0.0411723 0.00420436 -9.02896e-19 0.0411273 1.46953e-19 4.5041e-05)
(-0.0567831 0.0163225 -3.37569e-19 0.0567715 6.22937e-19 1.1593e-05)
(-0.0759694 0.0322743 -4.5944e-19 0.0758373 7.44765e-19 0.000132133)
(-0.0987962 0.0540182 -6.67573e-20 0.0983637 -3.67201e-20 0.000432492)
(-0.120062 0.084262 2.29981e-20 0.121738 7.39253e-20 -0.00167587)
(-0.16568 0.113968 -3.12972e-20 0.16063 1.6252e-18 0.00504975)
(-0.162138 0.223143 -2.88551e-20 0.172449 -1.11908e-18 -0.0103106)
(-0.149751 0.171416 6.27886e-19 0.143122 -7.4587e-19 0.00662899)
(0.00118621 -0.00136319 -1.38751e-21 -0.00119554 -2.35837e-21 9.33203e-06)
(0.000455351 -0.00159701 7.09689e-21 -0.000439674 1.15872e-20 -1.5677e-05)
(-0.000185399 -0.0016134 -3.60123e-21 0.000195302 -7.8617e-21 -9.90264e-06)
(-0.000787586 -0.00158819 -3.2976e-21 0.000779265 -8.81059e-21 8.32076e-06)
(-0.00041268 -0.000653285 2.06938e-21 0.000415954 4.98205e-21 -3.2738e-06)
(0.000703839 8.1812e-05 -1.84458e-21 -0.000682952 -1.82323e-21 -2.08867e-05)
(0.0403965 0.00800767 -2.46929e-20 -0.0403075 -2.53848e-20 -8.90108e-05)
(0.25034 0.0180532 -8.02393e-20 -0.252376 9.90141e-20 0.00203544)
(0.564023 -0.0456202 -1.68584e-19 -0.56411 -1.62227e-19 8.70586e-05)
(0.58385 -0.179784 -3.70675e-19 -0.587227 -9.6888e-19 0.00337707)
(0.327761 -0.222663 3.75157e-19 -0.333866 5.60107e-19 0.00610516)
(0.142944 -0.148908 6.04415e-19 -0.135045 -8.30607e-19 -0.00789922)
(0.0767354 -0.101557 -8.09469e-19 -0.0740357 6.24242e-19 -0.00269968)
(0.0468219 -0.0710948 3.52787e-19 -0.0467827 1.08436e-18 -3.91626e-05)
(0.0298705 -0.0554845 1.90294e-20 -0.0302355 4.78558e-19 0.000364957)
(0.0201804 -0.0444823 -2.28866e-19 -0.0203302 -8.60035e-20 0.000149857)
(0.0144199 -0.03784 1.60745e-19 -0.0143825 -8.99312e-19 -3.73851e-05)
(0.0111145 -0.0332333 -3.43112e-20 -0.0111048 5.85013e-19 -9.70872e-06)
(0.00895375 -0.0303941 7.05697e-20 -0.00891978 -1.11243e-19 -3.39704e-05)
(0.0076337 -0.0288844 4.6957e-20 -0.00763789 2.03816e-19 4.19725e-06)
(0.00669508 -0.028196 -6.31226e-20 -0.00668509 -2.9393e-19 -9.99123e-06)
(0.00623509 -0.0280295 2.98683e-20 -0.00623132 1.19355e-20 -3.77064e-06)
(0.00620259 -0.0283507 1.4306e-20 -0.00619447 1.0186e-19 -8.12248e-06)
(0.00632464 -0.0291933 -2.9689e-19 -0.00632048 -3.42147e-19 -4.15475e-06)
(0.00633947 -0.030298 3.22157e-19 -0.00633439 -8.05092e-19 -5.07472e-06)
(0.00601165 -0.0314262 4.54153e-20 -0.00600594 -4.31585e-19 -5.70215e-06)
(0.00504973 -0.0323125 -5.38117e-19 -0.00504433 -4.32445e-19 -5.39952e-06)
(0.00307854 -0.0326209 5.18995e-20 -0.00307405 -9.75272e-19 -4.48859e-06)
(-0.000345784 -0.0319565 8.4967e-19 0.000347036 -1.18912e-19 -1.2521e-06)
(-0.0057043 -0.0298661 3.39007e-19 0.00569737 1.42782e-18 6.9283e-06)
(-0.0134797 -0.0258019 -4.13368e-19 0.0134641 -7.80421e-19 1.56158e-05)
(-0.0241188 -0.0191475 -4.9695e-19 0.0240977 6.3921e-19 2.11319e-05)
(-0.0380198 -0.0092327 -2.14703e-19 0.0379799 -3.16941e-18 3.98513e-05)
(-0.0554615 0.00468943 7.80696e-19 0.0554159 -1.9746e-18 4.56184e-05)
(-0.0766158 0.0233609 6.27652e-19 0.0766108 -1.79895e-18 5.03288e-06)
(-0.102179 0.0476687 -1.35579e-19 0.102013 -6.34659e-20 0.000165923)
(-0.131886 0.0802277 1.38788e-19 0.131383 1.44807e-18 0.000502528)
(-0.158869 0.125205 4.10146e-20 0.160812 -8.18379e-19 -0.00194314)
(-0.205806 0.168586 -2.50315e-19 0.200202 7.5184e-19 0.00560425)
(-0.212554 0.294266 -5.51393e-19 0.223625 1.77795e-18 -0.0110707)
(-0.164456 0.264864 -5.28759e-19 0.157895 -8.88122e-19 0.0065615)
(0.000917096 -0.000928424 -3.34572e-22 -0.000922845 -6.15948e-22 5.74897e-06)
(0.000456457 -0.0011618 7.78095e-22 -0.000456608 9.14321e-22 1.50767e-07)
(2.91682e-05 -0.00117512 -3.69558e-21 -2.70769e-05 -4.92136e-21 -2.09131e-06)
(-0.000382776 -0.00118038 -5.66819e-21 0.000386767 -7.10005e-21 -3.99011e-06)
(-0.000718231 -0.0010814 -2.02911e-21 0.000714393 -2.3678e-21 3.83753e-06)
(-0.000392174 -0.000480102 4.99574e-21 0.000391054 6.91231e-21 1.1198e-06)
(0.000283636 -7.87916e-05 -1.38988e-21 -0.000272736 -2.1035e-21 -1.09004e-05)
(0.0185999 0.00248079 1.98979e-20 -0.0184873 2.18988e-20 -0.000112615)
(0.168449 0.00805786 2.41194e-19 -0.169082 2.32139e-19 0.000633082)
(0.48962 -0.0394533 -1.71269e-19 -0.491755 3.88782e-19 0.0021351)
(0.669115 -0.164653 -2.70261e-19 -0.667215 6.49898e-19 -0.00189929)
(0.505172 -0.273939 2.74374e-19 -0.515426 -1.06974e-18 0.0102538)
(0.247052 -0.232397 4.40655e-19 -0.246356 1.32205e-18 -0.000695532)
(0.121427 -0.152571 -7.8807e-19 -0.113672 -2.97042e-19 -0.00775518)
(0.0715468 -0.108665 3.33761e-19 -0.0699991 -1.34684e-18 -0.00154769)
(0.0466763 -0.0828705 -2.23307e-19 -0.0470595 7.72583e-19 0.000383266)
(0.0310476 -0.0677356 1.38087e-19 -0.0313409 7.58374e-19 0.000293334)
(0.0219028 -0.0575526 1.58986e-19 -0.022063 3.90379e-19 0.00016024)
(0.0161959 -0.0511602 -8.27852e-20 -0.0161458 3.44903e-19 -5.01186e-05)
(0.0128645 -0.0475789 9.27057e-21 -0.0128574 -9.98341e-19 -7.08109e-06)
(0.0106954 -0.0457079 2.16928e-20 -0.0106577 4.2593e-19 -3.76607e-05)
(0.00963683 -0.0449516 -1.31285e-19 -0.00962499 -8.45331e-21 -1.18376e-05)
(0.00940615 -0.0450661 1.23193e-19 -0.00939377 -4.79481e-19 -1.23778e-05)
(0.00954232 -0.046019 2.04692e-19 -0.00953917 -7.10397e-20 -3.15378e-06)
(0.009661 -0.0474154 -1.78863e-19 -0.00965964 1.03637e-18 -1.36574e-06)
(0.00940306 -0.0489116 -3.24677e-19 -0.00940136 -9.10432e-19 -1.7067e-06)
(0.00836561 -0.0501105 4.1202e-19 -0.00836357 -5.43315e-19 -2.0423e-06)
(0.00604454 -0.0504962 2.09918e-19 -0.00604112 1.64216e-18 -3.42237e-06)
(0.00184649 -0.0494502 1.44514e-19 -0.00184446 1.79879e-18 -2.02782e-06)
(-0.00485657 -0.0462979 -2.04023e-19 0.00485056 -3.26871e-19 6.0081e-06)
(-0.0146836 -0.0402419 -2.01203e-20 0.0146673 -1.18803e-18 1.63225e-05)
(-0.0281963 -0.030423 -4.05526e-19 0.0281753 -3.56904e-19 2.10669e-05)
(-0.0458669 -0.0159364 -1.92953e-19 0.0458249 1.49204e-18 4.20251e-05)
(-0.067966 0.00424794 9.47865e-20 0.0679174 2.29151e-18 4.85576e-05)
(-0.0945088 0.0311351 1.34821e-18 0.0945048 7.59725e-19 3.9638e-06)
(-0.125883 0.0657541 2.22458e-19 0.125686 -8.47659e-19 0.000196664)
(-0.16115 0.111093 -1.57427e-18 0.160677 -7.44034e-19 0.000472696)
(-0.192396 0.171595 2.39813e-20 0.194316 -2.13978e-19 -0.0019205)
(-0.23615 0.230975 -1.96735e-20 0.230831 -1.87382e-18 0.00531869)
(-0.251688 0.362129 -1.34716e-19 0.261736 5.99862e-19 -0.0100489)
(-0.184793 0.361913 4.30578e-19 0.181101 1.59236e-18 0.00369173)
(0.000695798 -0.000649014 -6.90616e-23 -0.00070173 -1.38716e-23 5.93216e-06)
(0.000423727 -0.000831034 -1.41799e-21 -0.000422644 -1.93023e-21 -1.08233e-06)
(0.000134983 -0.000908254 1.37323e-21 -0.000133396 1.85877e-21 -1.58775e-06)
(-0.000138958 -0.000872419 6.34226e-21 0.000142337 8.49001e-21 -3.37885e-06)
(-0.000415078 -0.000847855 1.19667e-21 0.000420296 1.66442e-21 -5.21869e-06)
(-0.000635786 -0.000775934 1.07983e-21 0.000634862 5.69365e-22 9.23342e-07)
(-0.000379258 -0.000377146 -7.64699e-21 0.000376476 -8.42472e-21 2.78201e-06)
(1.63314e-05 -0.00016122 -3.47389e-22 -1.20242e-05 -2.3664e-22 -4.3072e-06)
(0.00505137 0.000204012 -1.08216e-20 -0.00499797 -1.55799e-20 -5.33984e-05)
(0.0910424 0.00168205 1.73808e-19 -0.0910134 1.95801e-19 -2.90242e-05)
(0.352743 -0.0281949 -2.79632e-19 -0.354233 -6.85746e-19 0.00149031)
(0.655195 -0.137935 -1.05907e-19 -0.654545 8.50746e-19 -0.000650387)
(0.667022 -0.27985 1.48809e-19 -0.670588 -1.02653e-18 0.00356589)
(0.41707 -0.321607 -3.53081e-19 -0.427496 -3.92382e-19 0.0104264)
(0.202002 -0.235156 9.35593e-19 -0.196161 -2.70353e-19 -0.00584054)
(0.10892 -0.161488 3.84523e-19 -0.10243 8.32238e-19 -0.00648964)
(0.0688096 -0.120138 -3.5037e-19 -0.0679235 5.154e-19 -0.000886087)
(0.0463968 -0.0973189 -3.81665e-19 -0.0470239 4.40204e-19 0.000627108)
(0.0319385 -0.0832068 -6.13071e-19 -0.0322467 -3.64452e-20 0.000308182)
(0.0231379 -0.0745398 4.78502e-19 -0.0232987 -6.08973e-19 0.000160827)
(0.0177224 -0.0696191 1.94113e-19 -0.0176596 8.43197e-19 -6.2814e-05)
(0.0151231 -0.0674483 -3.51777e-19 -0.0150798 -2.05281e-19 -4.33159e-05)
(0.0142983 -0.0669848 1.2298e-19 -0.0142502 3.53842e-19 -4.81106e-05)
(0.0143492 -0.0680071 9.24302e-20 -0.014319 2.34768e-19 -3.02007e-05)
(0.0146531 -0.0698366 1.73489e-20 -0.014636 -3.76563e-19 -1.71677e-05)
(0.0146515 -0.0719357 -2.35805e-20 -0.014642 5.30257e-19 -9.55529e-06)
(0.0137961 -0.0737044 3.37373e-19 -0.0137964 1.3783e-18 3.06531e-07)
(0.0114383 -0.0743773 3.0827e-19 -0.0114455 -5.46111e-19 7.16747e-06)
(0.00681763 -0.0730039 -4.53472e-19 -0.00682877 3.88642e-20 1.11337e-05)
(-0.00084061 -0.0686625 -9.88488e-19 0.000823287 -1.14435e-18 1.73231e-05)
(-0.0122923 -0.0602598 2.50708e-19 0.0122642 7.19868e-20 2.80853e-05)
(-0.0281913 -0.046634 5.66391e-19 0.0281585 -1.05534e-18 3.27822e-05)
(-0.0490322 -0.0266077 6.31238e-19 0.0489794 3.29576e-19 5.27944e-05)
(-0.0749993 0.00111277 -4.24291e-19 0.0749405 -1.74181e-19 5.88535e-05)
(-0.105824 0.0377259 -7.68972e-19 0.105804 1.5219e-18 2.00234e-05)
(-0.1413 0.0842491 -6.09582e-19 0.141074 -1.43329e-18 0.000226431)
(-0.179562 0.143467 9.6696e-19 0.179182 -2.21636e-19 0.000380033)
(-0.21245 0.218569 3.01322e-20 0.214026 3.66276e-19 -0.00157537)
(-0.249429 0.294208 2.0304e-19 0.245302 -3.5481e-19 0.00412664)
(-0.267659 0.420914 -1.54518e-19 0.274639 -8.28574e-19 -0.00697951)
(-0.199026 0.448692 -4.54767e-19 0.200183 5.3873e-19 -0.00115787)
(0.000530588 -0.00046101 -2.22662e-22 -0.000534718 -7.51968e-23 4.12968e-06)
(0.000359353 -0.000594475 -1.19232e-21 -0.000358709 -1.855e-21 -6.44603e-07)
(0.000177808 -0.000672816 4.98581e-21 -0.000177452 5.67508e-21 -3.56139e-07)
(-1.47307e-05 -0.000689681 -6.69156e-22 1.46413e-05 -8.5394e-22 8.93528e-08)
(-0.000194783 -0.000635496 1.78119e-21 0.000196434 1.65424e-21 -1.65098e-06)
(-0.000393076 -0.000618527 -1.60643e-21 0.000397445 -1.46136e-21 -4.3691e-06)
(-0.000510973 -0.000522917 3.91991e-21 0.000512154 5.25081e-21 -1.18107e-06)
(-0.000359168 -0.000299407 3.09433e-21 0.00035687 2.59181e-21 2.29807e-06)
(-0.000157042 -0.000194258 5.24545e-23 0.00015728 9.49692e-22 -2.37563e-07)
(0.000383336 -6.43646e-05 4.21645e-21 -0.000377647 3.73638e-21 -5.68848e-06)
(0.0350939 -0.000876401 -5.00677e-21 -0.0349487 5.38395e-21 -0.000145254)
(0.20279 -0.017616 -3.21553e-19 -0.203106 -2.16429e-19 0.000316229)
(0.520482 -0.0989536 1.99044e-19 -0.521566 -3.94511e-19 0.00108338)
(0.732837 -0.244927 -4.85929e-19 -0.731057 9.28737e-19 -0.00177977)
(0.618984 -0.366592 -2.60312e-19 -0.628168 -9.31739e-19 0.0091837)
(0.35291 -0.347503 5.45989e-19 -0.360543 7.40491e-19 0.00763296)
(0.177128 -0.244699 3.40638e-19 -0.168878 -1.5467e-18 -0.00824997)
(0.1016 -0.175329 1.6637e-19 -0.0958354 5.76274e-19 -0.0057642)
(0.0672023 -0.136744 -7.36045e-19 -0.0667009 -1.12521e-18 -0.000501311)
(0.0460444 -0.116157 2.97799e-19 -0.0468252 1.19098e-18 0.000780864)
(0.0324157 -0.104428 7.49141e-20 -0.0327608 -8.76528e-19 0.000345087)
(0.0251998 -0.0987038 -3.27857e-19 -0.0253314 4.30457e-19 0.000131547)
(0.0221904 -0.0965775 2.45771e-19 -0.0221316 5.31122e-21 -5.87925e-05)
(0.0214777 -0.0972112 -4.15823e-20 -0.0213941 2.69579e-20 -8.36259e-05)
(0.0218407 -0.0994092 -8.93086e-20 -0.0217791 7.36904e-19 -6.15555e-05)
(0.0222855 -0.102162 1.09552e-19 -0.0222384 -1.75651e-19 -4.71168e-05)
(0.0220245 -0.104595 -7.64456e-19 -0.021995 6.12066e-21 -2.9532e-05)
(0.0202309 -0.105709 -3.74982e-19 -0.0202189 1.90714e-19 -1.19851e-05)
(0.0159593 -0.104246 -1.94331e-19 -0.0159683 -1.219e-18 8.96341e-06)
(0.00826191 -0.0988236 9.46182e-19 -0.00829888 1.00677e-19 3.69724e-05)
(-0.00373895 -0.0879645 1.59812e-19 0.00367123 8.17152e-19 6.77172e-05)
(-0.020758 -0.0701267 2.90321e-19 0.0206762 9.03119e-19 8.17559e-05)
(-0.0432491 -0.0438584 -6.01302e-19 0.0431573 2.68937e-19 9.17327e-05)
(-0.0712106 -0.00771869 4.92929e-19 0.07112 -1.19909e-18 9.05533e-05)
(-0.103978 0.0395065 2.81671e-19 0.103919 -1.41913e-19 5.94212e-05)
(-0.140545 0.0985539 1.0165e-18 0.140301 3.15595e-19 0.000243751)
(-0.178093 0.171202 -1.48949e-18 0.177815 4.65269e-19 0.000277509)
(-0.208939 0.258295 -1.34992e-19 0.210023 1.0697e-19 -0.00108415)
(-0.23657 0.346611 2.91222e-19 0.234136 4.58553e-19 0.00243394)
(-0.252164 0.461597 4.7032e-19 0.255352 1.19437e-20 -0.00318822)
(-0.194677 0.507441 8.89681e-20 0.200592 -1.18265e-18 -0.00591491)
(0.000403428 -0.000331382 -8.75847e-22 -0.00040637 -1.01867e-21 2.94204e-06)
(0.000292138 -0.000428428 3.54701e-21 -0.000292236 3.70707e-21 9.76362e-08)
(0.000175569 -0.000491967 -8.30949e-22 -0.000175586 -7.35613e-22 1.61968e-08)
(4.87165e-05 -0.000525691 -6.52722e-21 -4.88692e-05 -6.88785e-21 1.52735e-07)
(-8.15348e-05 -0.000517469 -6.14632e-22 8.13271e-05 -8.22522e-22 2.07625e-07)
(-0.00020077 -0.000466923 6.45515e-21 0.000201606 6.90729e-21 -8.35977e-07)
(-0.000338705 -0.000441885 -1.65317e-21 0.00034173 -2.17965e-21 -3.02458e-06)
(-0.000399095 -0.000349993 -1.44808e-20 0.000401171 -1.44016e-20 -2.07519e-06)
(-0.0003252 -0.000230193 1.03894e-20 0.000324225 1.00404e-20 9.74931e-07)
(-0.000232846 -0.000176748 5.24057e-22 0.000231175 -5.01888e-22 1.6706e-06)
(0.000196666 -0.000351506 -1.46726e-21 -0.000190376 -2.42268e-21 -6.29009e-06)
(0.00755837 -0.000876272 -9.17249e-21 -0.00749754 -5.19609e-21 -6.08342e-05)
(0.0880219 -0.00951882 -1.905e-19 -0.0878819 -1.25643e-19 -0.000139977)
(0.324588 -0.0588146 1.73743e-19 -0.325176 -1.33232e-19 0.00058824)
(0.639572 -0.184149 -6.43094e-19 -0.639263 6.69328e-19 -0.000309162)
(0.753826 -0.341383 5.99825e-19 -0.753388 -3.96422e-19 -0.000437721)
(0.569546 -0.429207 -5.0318e-19 -0.581801 7.54223e-19 0.0122551)
(0.315015 -0.372211 -1.08857e-19 -0.320185 -1.86065e-19 0.00516986)
(0.163896 -0.264279 -2.40361e-19 -0.154782 -3.57052e-19 -0.00911344)
(0.0972059 -0.196521 2.88496e-19 -0.0914377 -1.03603e-18 -0.00576826)
(0.0657192 -0.161294 4.53597e-19 -0.065258 3.29249e-19 -0.000461207)
(0.0474714 -0.144993 -2.42545e-19 -0.0483808 -9.97102e-19 0.000909465)
(0.0377431 -0.137924 -2.27411e-19 -0.0382896 4.48838e-19 0.000546501)
(0.0334497 -0.136477 7.02354e-19 -0.0336546 -5.84689e-19 0.000204904)
(0.0324357 -0.13839 -4.11181e-19 -0.0324167 4.91217e-20 -1.90068e-05)
(0.0329973 -0.141984 -5.65566e-19 -0.0328796 -3.68625e-19 -0.000117701)
(0.0337592 -0.145653 1.0008e-18 -0.0336479 -1.41571e-18 -0.000111337)
(0.0334124 -0.147612 -2.09364e-20 -0.0333396 1.06838e-18 -7.28451e-05)
(0.0306986 -0.146139 -4.37644e-22 -0.0306694 -6.49045e-20 -2.92765e-05)
(0.0245302 -0.139618 -5.98428e-19 -0.0245397 1.05328e-18 9.48437e-06)
(0.013949 -0.12632 6.42844e-20 -0.0140018 -6.35471e-19 5.27278e-05)
(-0.00182861 -0.104244 -1.17701e-20 0.00172633 3.27202e-19 0.000102275)
(-0.0232004 -0.0716156 -6.81666e-19 0.0230485 -5.74795e-19 0.000151971)
(-0.0499242 -0.0269853 3.67332e-19 0.0497311 1.71264e-18 0.000193123)
(-0.0808987 0.0306128 -5.19299e-19 0.080707 2.82324e-19 0.000191652)
(-0.11432 0.101254 -4.8891e-19 0.113991 1.4531e-21 0.000328745)
(-0.14668 0.184899 6.94297e-19 0.146397 -1.8411e-18 0.000282761)
(-0.171329 0.279657 -7.15739e-20 0.171951 7.66329e-19 -0.000622435)