/*--------------------------------*- C++ -*----------------------------------*\
| =========                 |                                                 |
| \\      /  F ield         | OpenFOAM: The Open Source CFD Toolbox           |
|  \\    /   O peration     | Version:  2312                                  |
|   \\  /    A nd           | Website:  www.openfoam.com                      |
|    \\/     M anipulation  |                                                 |
\*---------------------------------------------------------------------------*/
FoamFile
{
    version     2.0;
    format      ascii;
    arch        "LSB;label=32;scalar=64";
    class       volScalarField;
    location    "850";
    object      turbulenceProperties:nuEff;
}
// * * * * * * * * * * * * * * * * * * * * * * * * * * * * * * * * * * * * * //

dimensions      [0 2 -1 0 0 0 0];

internalField   nonuniform List<scalar> 
11040
(
4.78643e-05
6.48733e-05
2.55125e-05
5.84234e-05
0.000197989
0.000191276
0.000181618
0.000171534
0.000158922
0.000151121
0.000143031
0.000135963
0.00012957
0.000124513
0.000120148
0.000117729
0.000117339
0.00011898
0.000122178
0.000126703
0.000132629
0.000139748
0.000147776
0.000156514
0.000166081
0.000177446
0.000190447
0.000203204
0.000215177
0.000225786
0.000234409
0.000240433
0.0002447
0.000251751
0.000271214
0.000259788
0.000183305
0.000190543
0.00020942
0.000229272
0.000305149
1.41942e-05
4.68564e-05
6.60015e-05
0.00015267
0.000611027
0.000638457
0.000562225
0.000518746
0.000452491
0.00041717
0.000380562
0.000351934
0.000325078
0.000304719
0.000285651
0.000272243
0.000265428
0.000264515
0.000266793
0.000270894
0.000276932
0.00028494
0.000293309
0.000300877
0.000308638
0.00032416
0.000351827
0.000383916
0.00042007
0.00046039
0.000505052
0.000554421
0.000607737
0.000666706
0.000733521
0.000801308
0.000869879
0.000961073
0.00106941
0.00115762
0.00162314
1.55306e-05
1.94279e-05
4.01632e-05
7.49382e-05
0.000422203
0.000974341
0.00119673
0.00115766
0.0010148
0.000940523
0.000857861
0.000796564
0.000736841
0.000692946
0.000650892
0.000617312
0.000591647
0.00057199
0.000560495
0.000556187
0.000560455
0.000574325
0.000598513
0.000633865
0.000680442
0.000738039
0.000806425
0.000885085
0.000973697
0.00107172
0.00117806
0.00129198
0.00141305
0.0015419
0.00167958
0.00182619
0.00198827
0.00218816
0.00243131
0.00267157
0.00349731
1.64833e-05
1.51639e-05
2.06749e-05
2.12221e-05
0.000148611
0.000604609
0.00131318
0.00171793
0.00178886
0.00169958
0.00155603
0.00145549
0.00135082
0.00127337
0.001198
0.00113518
0.00108887
0.00105209
0.00103002
0.00102103
0.00102685
0.00105048
0.00109443
0.00115986
0.0012462
0.0013523
0.00147724
0.00161996
0.00177957
0.00195496
0.00214459
0.00234703
0.00256118
0.00278732
0.00302632
0.00328077
0.00356246
0.00390319
0.00432088
0.0047771
0.00594156
1.62021e-05
1.57689e-05
1.64028e-05
1.54345e-05
1.48386e-05
0.000186559
0.000717107
0.00156895
0.00226428
0.00247555
0.0024885
0.00238308
0.00221968
0.00210122
0.00198693
0.0018834
0.00181058
0.00175055
0.00171346
0.00169775
0.00170344
0.00173609
0.00180181
0.00190253
0.00203741
0.00220508
0.00240379
0.00263127
0.00288548
0.00316445
0.0034651
0.00378457
0.00412074
0.00447333
0.00484293
0.00523355
0.00566145
0.00617157
0.00679841
0.00752738
0.00899505
1.60945e-05
1.61877e-05
1.58921e-05
1.65993e-05
1.1715e-05
1.08984e-05
0.000181711
0.000738923
0.00172235
0.0027395
0.00321664
0.00338733
0.00337637
0.00326828
0.0030916
0.00292827
0.00282049
0.00272824
0.0026679
0.002642
0.002645
0.0026844
0.0027732
0.00291525
0.00310928
0.00335409
0.00364704
0.00398377
0.00435992
0.00477237
0.00521552
0.00568396
0.00617374
0.00668358
0.00721306
0.00776683
0.00836569
0.00906698
0.00993069
0.0109767
0.0127611
1.61049e-05
1.61372e-05
1.60144e-05
1.635e-05
1.59376e-05
1.0439e-05
1.00034e-05
0.000128941
0.000667837
0.00171561
0.00301983
0.00396136
0.00434235
0.00448823
0.00448092
0.00438016
0.00423123
0.00407842
0.0039819
0.00394133
0.00393956
0.00398139
0.00409175
0.00427911
0.0045413
0.00487816
0.00528674
0.00575991
0.00628829
0.00686763
0.00748854
0.00814105
0.00881805
0.00951662
0.0102341
0.0109743
0.0117618
0.012665
0.0137781
0.0151641
0.0173089
1.61145e-05
1.61119e-05
1.61319e-05
1.60489e-05
1.65611e-05
1.60609e-05
1.00204e-05
1e-05
6.14219e-05
0.000520755
0.00152806
0.00302833
0.0044976
0.00531719
0.00568635
0.0058331
0.00586027
0.00581048
0.00574071
0.0056827
0.00567845
0.00573376
0.00586871
0.00610595
0.00644295
0.00688356
0.00742722
0.00806557
0.008778
0.00955972
0.0103965
0.0112705
0.0121688
0.0130862
0.0140164
0.0149588
0.0159415
0.0170411
0.0183872
0.0201006
0.0226131
1.61127e-05
1.61163e-05
1.61121e-05
1.61318e-05
1.59971e-05
1.71555e-05
1.54038e-05
1.0116e-05
1.03182e-05
1.05235e-05
0.000323561
0.0011874
0.00271908
0.00460615
0.00613476
0.00690284
0.00730758
0.00751383
0.007638
0.00772092
0.00781883
0.00795851
0.00818238
0.00851978
0.00897167
0.00953807
0.0102267
0.0110425
0.011969
0.0129873
0.0140787
0.0152129
0.0163649
0.0175271
0.0186886
0.0198376
0.0210048
0.0222768
0.023794
0.0257659
0.0285888
1.6112e-05
1.61137e-05
1.61134e-05
1.6119e-05
1.6099e-05
1.60453e-05
1.73484e-05
1.49206e-05
1.04809e-05
1.00145e-05
3.33202e-05
0.00013458
0.000781455
0.00214775
0.00419736
0.00640644
0.00798912
0.00880904
0.00932796
0.00969486
0.0100326
0.0103858
0.0108167
0.0113706
0.0120675
0.0129081
0.013882
0.0149713
0.0161575
0.0174385
0.0188138
0.0202396
0.0216658
0.023082
0.0244797
0.0258206
0.0271324
0.0285185
0.030106
0.0321834
0.0351533
1.61108e-05
1.61118e-05
1.61132e-05
1.61091e-05
1.61264e-05
1.60553e-05
1.61766e-05
1.70387e-05
1.59154e-05
1.13665e-05
1.00072e-05
1.05418e-05
1.01742e-05
0.000377759
0.00141817
0.00331942
0.00587276
0.00841275
0.0101629
0.0111783
0.0119545
0.012638
0.0133612
0.0142082
0.0152333
0.0164555
0.0178712
0.0194623
0.0211941
0.0230182
0.0248705
0.0266764
0.0283899
0.0300459
0.0316778
0.0331781
0.0345482
0.0359573
0.0374908
0.0394015
0.0421955
1.61094e-05
1.61103e-05
1.61102e-05
1.61107e-05
1.61084e-05
1.61172e-05
1.60624e-05
1.61666e-05
1.67609e-05
1.66089e-05
1.29305e-05
1.00027e-05
1.00011e-05
3.54089e-05
0.000106013
0.000730784
0.00218947
0.00461342
0.00768573
0.0106692
0.0128064
0.0141932
0.0153742
0.0165823
0.0179609
0.0195756
0.0214436
0.0235624
0.0258992
0.0283988
0.030992
0.0335978
0.0361245
0.0384804
0.0405504
0.0422091
0.0434962
0.0448203
0.0461467
0.0476133
0.0497949
1.61081e-05
1.61086e-05
1.61085e-05
1.61083e-05
1.61082e-05
1.61077e-05
1.6109e-05
1.60782e-05
1.61276e-05
1.65305e-05
1.70347e-05
1.43913e-05
1.02051e-05
1.0002e-05
1.0124e-05
0.000109058
0.000230855
0.00111378
0.00296905
0.00590362
0.00957136
0.0131249
0.0158049
0.0177769
0.0196393
0.0216714
0.0239525
0.0265359
0.0294088
0.0325143
0.0357805
0.0391233
0.0424456
0.0456517
0.0486392
0.0512947
0.0535208
0.055242
0.0563494
0.0570983
0.0585327
1.6107e-05
1.61073e-05
1.61073e-05
1.61073e-05
1.61069e-05
1.61064e-05
1.61063e-05
1.61063e-05
1.6088e-05
1.60942e-05
1.63287e-05
1.70829e-05
1.59615e-05
1.15844e-05
1.00003e-05
1.00001e-05
1.13308e-05
0.000179755
0.000357843
0.00144087
0.00363187
0.00689562
0.0107843
0.0148203
0.0184871
0.021587
0.0244525
0.0274927
0.0308368
0.0344508
0.0382782
0.0422487
0.0462579
0.0502061
0.0539911
0.0575131
0.0606825
0.0634395
0.065715
0.0674799
0.0687812
1.61059e-05
1.61067e-05
1.61068e-05
1.61068e-05
1.61064e-05
1.61061e-05
1.61056e-05
1.61057e-05
1.61052e-05
1.60976e-05
1.60707e-05
1.62066e-05
1.68209e-05
1.67782e-05
1.44452e-05
1.02898e-05
1.0003e-05
1e-05
1.57663e-05
0.000226121
0.00042218
0.00153938
0.00356091
0.00654349
0.0103319
0.0146867
0.0193362
0.0239803
0.0284231
0.0327297
0.0370971
0.0416227
0.0462507
0.0508718
0.0553782
0.0596714
0.0636731
0.067346
0.0706227
0.0734481
0.0758176
1.6105e-05
1.61063e-05
1.61064e-05
1.61061e-05
1.61057e-05
1.61053e-05
1.6105e-05
1.61046e-05
1.61046e-05
1.61048e-05
1.61016e-05
1.60697e-05
1.61385e-05
1.64091e-05
1.71254e-05
1.59404e-05
1.29655e-05
1.00136e-05
1.00006e-05
1e-05
1.88586e-05
0.000200744
0.000252598
0.00102067
0.00247038
0.0047544
0.00788853
0.0118494
0.0165626
0.0219207
0.0277395
0.0337303
0.0396052
0.0452265
0.0505854
0.0557025
0.0605692
0.0651693
0.0694366
0.0733016
0.0767382
1.61043e-05
1.61056e-05
1.61055e-05
1.61049e-05
1.61044e-05
1.61041e-05
1.61038e-05
1.61035e-05
1.61034e-05
1.61031e-05
1.61043e-05
1.61007e-05
1.60868e-05
1.60753e-05
1.62509e-05
1.66748e-05
1.71303e-05
1.51608e-05
1.1603e-05
1.00013e-05
1.00002e-05
1e-05
1.08072e-05
9.42613e-05
6.55067e-05
0.000357499
0.000997988
0.00225268
0.00418378
0.00688806
0.0104279
0.0148251
0.0200424
0.0259911
0.0324894
0.0392507
0.0459453
0.0523412
0.0582524
0.0635875
0.0683532
1.61033e-05
1.61044e-05
1.61041e-05
1.61036e-05
1.61032e-05
1.61029e-05
1.61027e-05
1.61026e-05
1.61024e-05
1.61023e-05
1.61022e-05
1.6103e-05
1.61021e-05
1.60937e-05
1.60711e-05
1.61222e-05
1.63545e-05
1.69575e-05
1.69959e-05
1.47848e-05
1.1182e-05
1.00009e-05
1.00002e-05
1e-05
1.00078e-05
1.1855e-05
5.76681e-05
0.000191646
3.98587e-05
0.000358467
0.00105227
0.00222784
0.00398596
0.00644339
0.00965913
0.0136508
0.0183704
0.0237761
0.0297165
0.0359963
0.0424089
1.61021e-05
1.61028e-05
1.61024e-05
1.61018e-05
1.61013e-05
1.6101e-05
1.61008e-05
1.61008e-05
1.61007e-05
1.61008e-05
1.61007e-05
1.61008e-05
1.6101e-05
1.61022e-05
1.60965e-05
1.60853e-05
1.60674e-05
1.61814e-05
1.65101e-05
1.70449e-05
1.68553e-05
1.44993e-05
1.17191e-05
1.00193e-05
1.00007e-05
1e-05
1e-05
1e-05
1.00018e-05
1.12496e-05
5.21993e-05
0.000157995
1.0013e-05
0.000103289
0.000406455
0.00110814
0.00221367
0.00381546
0.00596444
0.00868374
0.0120297
1.61008e-05
1.61012e-05
1.61007e-05
1.61001e-05
1.60997e-05
1.60994e-05
1.60993e-05
1.60992e-05
1.60993e-05
1.60993e-05
1.60994e-05
1.60995e-05
1.60995e-05
1.60998e-05
1.61003e-05
1.60998e-05
1.60904e-05
1.60738e-05
1.60807e-05
1.62335e-05
1.66164e-05
1.70364e-05
1.69768e-05
1.52696e-05
1.2691e-05
1.08944e-05
1.0007e-05
1.00005e-05
1e-05
1e-05
1e-05
1e-05
1e-05
1.00101e-05
1.12813e-05
4.5722e-05
0.000133614
0.000242381
0.000383358
2.74238e-05
0.000400213
1.60995e-05
1.60997e-05
1.60991e-05
1.60986e-05
1.60983e-05
1.60982e-05
1.60982e-05
1.60982e-05
1.60983e-05
1.60984e-05
1.60985e-05
1.60986e-05
1.60987e-05
1.60988e-05
1.6099e-05
1.60994e-05
1.61e-05
1.60965e-05
1.60831e-05
1.60669e-05
1.60931e-05
1.62654e-05
1.65656e-05
1.70339e-05
1.70875e-05
1.66065e-05
1.49796e-05
1.28535e-05
1.11937e-05
1.03198e-05
1.00008e-05
1.00002e-05
1e-05
1e-05
1e-05
1e-05
1e-05
1e-05
1e-05
1.00003e-05
1.06765e-05
1.60981e-05
1.60982e-05
1.60978e-05
1.60975e-05
1.60974e-05
1.60974e-05
1.60975e-05
1.60977e-05
1.60978e-05
1.6098e-05
1.60981e-05
1.60983e-05
1.60984e-05
1.60985e-05
1.60986e-05
1.60987e-05
1.6099e-05
1.60996e-05
1.60992e-05
1.60936e-05
1.60772e-05
1.60681e-05
1.60872e-05
1.62092e-05
1.64461e-05
1.67434e-05
1.71182e-05
1.71911e-05
1.67723e-05
1.5977e-05
1.45283e-05
1.28752e-05
1.15195e-05
1.06457e-05
1.01851e-05
1.00031e-05
1.00002e-05
1e-05
1e-05
1e-05
1e-05
1.60968e-05
1.60969e-05
1.60967e-05
1.60967e-05
1.60968e-05
1.60971e-05
1.60974e-05
1.60976e-05
1.60979e-05
1.60981e-05
1.60983e-05
1.60984e-05
1.60986e-05
1.60987e-05
1.60988e-05
1.60989e-05
1.60989e-05
1.60991e-05
1.60995e-05
1.61001e-05
1.60987e-05
1.60919e-05
1.60789e-05
1.6065e-05
1.60754e-05
1.6124e-05
1.62503e-05
1.64581e-05
1.67145e-05
1.69581e-05
1.72243e-05
1.7264e-05
1.70143e-05
1.6463e-05
1.57059e-05
1.46321e-05
1.34305e-05
1.22881e-05
1.13751e-05
1.0723e-05
1.03016e-05
1.60956e-05
1.60959e-05
1.6096e-05
1.60963e-05
1.60967e-05
1.60971e-05
1.60976e-05
1.60979e-05
1.60983e-05
1.60985e-05
1.60988e-05
1.6099e-05
1.60992e-05
1.60993e-05
1.60994e-05
1.60995e-05
1.60996e-05
1.60996e-05
1.60997e-05
1.60999e-05
1.61004e-05
1.61007e-05
1.60995e-05
1.60942e-05
1.60841e-05
1.60722e-05
1.60641e-05
1.60724e-05
1.61126e-05
1.61867e-05
1.63119e-05
1.64847e-05
1.66858e-05
1.68939e-05
1.70772e-05
1.72582e-05
1.73369e-05
1.72617e-05
1.70174e-05
1.66077e-05
1.60947e-05
1.60945e-05
1.60952e-05
1.60957e-05
1.60963e-05
1.60969e-05
1.60975e-05
1.6098e-05
1.60984e-05
1.60988e-05
1.60991e-05
1.60994e-05
1.60997e-05
1.60999e-05
1.61001e-05
1.61002e-05
1.61004e-05
1.61005e-05
1.61005e-05
1.61006e-05
1.61007e-05
1.61008e-05
1.6101e-05
1.61015e-05
1.61019e-05
1.61012e-05
1.60987e-05
1.6093e-05
1.6084e-05
1.60737e-05
1.60656e-05
1.6063e-05
1.60726e-05
1.60998e-05
1.61496e-05
1.62213e-05
1.63196e-05
1.64421e-05
1.65861e-05
1.67409e-05
1.68965e-05
1.70372e-05
1.60937e-05
1.60947e-05
1.60956e-05
1.60964e-05
1.60972e-05
1.60979e-05
1.60984e-05
1.6099e-05
1.60994e-05
1.60998e-05
1.61001e-05
1.61004e-05
1.61007e-05
1.61009e-05
1.61011e-05
1.61012e-05
1.61014e-05
1.61015e-05
1.61016e-05
1.61017e-05
1.61018e-05
1.61019e-05
1.6102e-05
1.61023e-05
1.61026e-05
1.61031e-05
1.61032e-05
1.61026e-05
1.61005e-05
1.60968e-05
1.6091e-05
1.60834e-05
1.60751e-05
1.60674e-05
1.60624e-05
1.60614e-05
1.60664e-05
1.60803e-05
1.61041e-05
1.61414e-05
1.61836e-05
1.60931e-05
1.60945e-05
1.60957e-05
1.60967e-05
1.60975e-05
1.60983e-05
1.60989e-05
1.60994e-05
1.60999e-05
1.61004e-05
1.61007e-05
1.61011e-05
1.61014e-05
1.61016e-05
1.61019e-05
1.61021e-05
1.61023e-05
1.61024e-05
1.61026e-05
1.61027e-05
1.61029e-05
1.6103e-05
1.61031e-05
1.61032e-05
1.61034e-05
1.61035e-05
1.61038e-05
1.61042e-05
1.61046e-05
1.61048e-05
1.61047e-05
1.61041e-05
1.61026e-05
1.61001e-05
1.60965e-05
1.60919e-05
1.60865e-05
1.60804e-05
1.60741e-05
1.60684e-05
1.60639e-05
1.60928e-05
1.60945e-05
1.60958e-05
1.60969e-05
1.60978e-05
1.60986e-05
1.60993e-05
1.60999e-05
1.61004e-05
1.61009e-05
1.61013e-05
1.61017e-05
1.6102e-05
1.61023e-05
1.61026e-05
1.61028e-05
1.61031e-05
1.61033e-05
1.61035e-05
1.61037e-05
1.61039e-05
1.61041e-05
1.61042e-05
1.61044e-05
1.61045e-05
1.61046e-05
1.61047e-05
1.61049e-05
1.61051e-05
1.61053e-05
1.61056e-05
1.61059e-05
1.61063e-05
1.61066e-05
1.61067e-05
1.61067e-05
1.61063e-05
1.61056e-05
1.61044e-05
1.61025e-05
1.61008e-05
1.60926e-05
1.60946e-05
1.6096e-05
1.60971e-05
1.6098e-05
1.60988e-05
1.60995e-05
1.61002e-05
1.61008e-05
1.61013e-05
1.61017e-05
1.61022e-05
1.61026e-05
1.61029e-05
1.61032e-05
1.61035e-05
1.61038e-05
1.61041e-05
1.61043e-05
1.61045e-05
1.61048e-05
1.6105e-05
1.61052e-05
1.61054e-05
1.61056e-05
1.61057e-05
1.61059e-05
1.6106e-05
1.61062e-05
1.61063e-05
1.61064e-05
1.61066e-05
1.61067e-05
1.61069e-05
1.61072e-05
1.61074e-05
1.61077e-05
1.6108e-05
1.61083e-05
1.61085e-05
1.61088e-05
1.60925e-05
1.60946e-05
1.6096e-05
1.60972e-05
1.60981e-05
1.6099e-05
1.60997e-05
1.61004e-05
1.61011e-05
1.61016e-05
1.61021e-05
1.61026e-05
1.6103e-05
1.61034e-05
1.61038e-05
1.61041e-05
1.61045e-05
1.61048e-05
1.61051e-05
1.61053e-05
1.61056e-05
1.61059e-05
1.61061e-05
1.61063e-05
1.61065e-05
1.61067e-05
1.61069e-05
1.61071e-05
1.61073e-05
1.61074e-05
1.61076e-05
1.61077e-05
1.61079e-05
1.6108e-05
1.61081e-05
1.61083e-05
1.61084e-05
1.61086e-05
1.61087e-05
1.61089e-05
1.61091e-05
1.60925e-05
1.60945e-05
1.6096e-05
1.60971e-05
1.60981e-05
1.6099e-05
1.60998e-05
1.61006e-05
1.61013e-05
1.61019e-05
1.61024e-05
1.6103e-05
1.61034e-05
1.61039e-05
1.61043e-05
1.61047e-05
1.61051e-05
1.61054e-05
1.61057e-05
1.6106e-05
1.61064e-05
1.61067e-05
1.61069e-05
1.61072e-05
1.61074e-05
1.61077e-05
1.61079e-05
1.61081e-05
1.61083e-05
1.61085e-05
1.61087e-05
1.61088e-05
1.6109e-05
1.61092e-05
1.61093e-05
1.61095e-05
1.61096e-05
1.61097e-05
1.61099e-05
1.611e-05
1.61101e-05
1.60923e-05
1.60944e-05
1.60958e-05
1.6097e-05
1.60981e-05
1.6099e-05
1.60998e-05
1.61006e-05
1.61014e-05
1.6102e-05
1.61026e-05
1.61032e-05
1.61038e-05
1.61043e-05
1.61047e-05
1.61052e-05
1.61056e-05
1.6106e-05
1.61063e-05
1.61067e-05
1.6107e-05
1.61074e-05
1.61077e-05
1.6108e-05
1.61082e-05
1.61085e-05
1.61088e-05
1.6109e-05
1.61092e-05
1.61094e-05
1.61096e-05
1.61098e-05
1.611e-05
1.61102e-05
1.61104e-05
1.61106e-05
1.61107e-05
1.61109e-05
1.6111e-05
1.61112e-05
1.61113e-05
1.60921e-05
1.60941e-05
1.60956e-05
1.60968e-05
1.60979e-05
1.60988e-05
1.60997e-05
1.61006e-05
1.61014e-05
1.61021e-05
1.61028e-05
1.61034e-05
1.6104e-05
1.61045e-05
1.61051e-05
1.61055e-05
1.6106e-05
1.61064e-05
1.61069e-05
1.61073e-05
1.61077e-05
1.6108e-05
1.61084e-05
1.61087e-05
1.6109e-05
1.61093e-05
1.61096e-05
1.61098e-05
1.61101e-05
1.61103e-05
1.61106e-05
1.61108e-05
1.6111e-05
1.61112e-05
1.61114e-05
1.61116e-05
1.61118e-05
1.61119e-05
1.61121e-05
1.61123e-05
1.61124e-05
1.60918e-05
1.60938e-05
1.60952e-05
1.60965e-05
1.60976e-05
1.60986e-05
1.60995e-05
1.61004e-05
1.61013e-05
1.6102e-05
1.61028e-05
1.61035e-05
1.61041e-05
1.61048e-05
1.61053e-05
1.61059e-05
1.61064e-05
1.61069e-05
1.61073e-05
1.61078e-05
1.61082e-05
1.61086e-05
1.6109e-05
1.61094e-05
1.61097e-05
1.611e-05
1.61103e-05
1.61106e-05
1.61109e-05
1.61112e-05
1.61114e-05
1.61117e-05
1.61119e-05
1.61121e-05
1.61123e-05
1.61125e-05
1.61127e-05
1.61129e-05
1.61131e-05
1.61133e-05
1.61135e-05
1.60914e-05
1.60933e-05
1.60948e-05
1.6096e-05
1.60971e-05
1.60982e-05
1.60992e-05
1.61001e-05
1.6101e-05
1.61019e-05
1.61027e-05
1.61035e-05
1.61042e-05
1.61049e-05
1.61055e-05
1.61061e-05
1.61067e-05
1.61072e-05
1.61077e-05
1.61082e-05
1.61087e-05
1.61091e-05
1.61096e-05
1.611e-05
1.61103e-05
1.61107e-05
1.6111e-05
1.61114e-05
1.61117e-05
1.61119e-05
1.61122e-05
1.61125e-05
1.61127e-05
1.6113e-05
1.61132e-05
1.61134e-05
1.61136e-05
1.61139e-05
1.61141e-05
1.61142e-05
1.61144e-05
1.60909e-05
1.60927e-05
1.60941e-05
1.60954e-05
1.60965e-05
1.60977e-05
1.60987e-05
1.60997e-05
1.61007e-05
1.61016e-05
1.61025e-05
1.61034e-05
1.61041e-05
1.61049e-05
1.61056e-05
1.61063e-05
1.61069e-05
1.61075e-05
1.6108e-05
1.61086e-05
1.61091e-05
1.61096e-05
1.61101e-05
1.61105e-05
1.61109e-05
1.61113e-05
1.61117e-05
1.6112e-05
1.61124e-05
1.61127e-05
1.6113e-05
1.61133e-05
1.61135e-05
1.61138e-05
1.6114e-05
1.61143e-05
1.61145e-05
1.61147e-05
1.61149e-05
1.61151e-05
1.61154e-05
1.60902e-05
1.6092e-05
1.60934e-05
1.60946e-05
1.60958e-05
1.6097e-05
1.60981e-05
1.60992e-05
1.61002e-05
1.61012e-05
1.61022e-05
1.61031e-05
1.61039e-05
1.61048e-05
1.61055e-05
1.61063e-05
1.61069e-05
1.61076e-05
1.61082e-05
1.61088e-05
1.61094e-05
1.61099e-05
1.61105e-05
1.61109e-05
1.61114e-05
1.61118e-05
1.61122e-05
1.61126e-05
1.61129e-05
1.61133e-05
1.61136e-05
1.61139e-05
1.61142e-05
1.61145e-05
1.61148e-05
1.6115e-05
1.61153e-05
1.61155e-05
1.61157e-05
1.61159e-05
1.61162e-05
1.60894e-05
1.60911e-05
1.60924e-05
1.60937e-05
1.60949e-05
1.60961e-05
1.60973e-05
1.60984e-05
1.60995e-05
1.61006e-05
1.61016e-05
1.61026e-05
1.61035e-05
1.61044e-05
1.61053e-05
1.61061e-05
1.61068e-05
1.61075e-05
1.61082e-05
1.61089e-05
1.61095e-05
1.61101e-05
1.61107e-05
1.61112e-05
1.61117e-05
1.61121e-05
1.61126e-05
1.6113e-05
1.61134e-05
1.61138e-05
1.61141e-05
1.61144e-05
1.61148e-05
1.61151e-05
1.61153e-05
1.61156e-05
1.61159e-05
1.61161e-05
1.61164e-05
1.61166e-05
1.61168e-05
1.60884e-05
1.609e-05
1.60913e-05
1.60926e-05
1.60939e-05
1.60951e-05
1.60963e-05
1.60975e-05
1.60986e-05
1.60997e-05
1.61008e-05
1.61019e-05
1.61029e-05
1.61038e-05
1.61047e-05
1.61056e-05
1.61064e-05
1.61072e-05
1.6108e-05
1.61087e-05
1.61094e-05
1.611e-05
1.61106e-05
1.61112e-05
1.61117e-05
1.61122e-05
1.61127e-05
1.61132e-05
1.61136e-05
1.6114e-05
1.61144e-05
1.61147e-05
1.61151e-05
1.61154e-05
1.61157e-05
1.6116e-05
1.61163e-05
1.61165e-05
1.61168e-05
1.6117e-05
1.61173e-05
1.60872e-05
1.60887e-05
1.609e-05
1.60913e-05
1.60925e-05
1.60938e-05
1.6095e-05
1.60962e-05
1.60974e-05
1.60986e-05
1.60997e-05
1.61008e-05
1.61019e-05
1.61029e-05
1.61039e-05
1.61048e-05
1.61057e-05
1.61066e-05
1.61074e-05
1.61082e-05
1.61089e-05
1.61096e-05
1.61103e-05
1.61109e-05
1.61115e-05
1.6112e-05
1.61125e-05
1.6113e-05
1.61135e-05
1.61139e-05
1.61143e-05
1.61147e-05
1.61151e-05
1.61154e-05
1.61157e-05
1.6116e-05
1.61163e-05
1.61166e-05
1.61169e-05
1.61171e-05
1.61174e-05
1.60858e-05
1.60873e-05
1.60885e-05
1.60898e-05
1.6091e-05
1.60922e-05
1.60934e-05
1.60946e-05
1.60958e-05
1.6097e-05
1.60982e-05
1.60993e-05
1.61005e-05
1.61016e-05
1.61026e-05
1.61036e-05
1.61046e-05
1.61055e-05
1.61064e-05
1.61072e-05
1.6108e-05
1.61088e-05
1.61095e-05
1.61102e-05
1.61108e-05
1.61114e-05
1.6112e-05
1.61125e-05
1.6113e-05
1.61134e-05
1.61139e-05
1.61143e-05
1.61146e-05
1.6115e-05
1.61154e-05
1.61157e-05
1.6116e-05
1.61163e-05
1.61166e-05
1.61168e-05
1.61171e-05
1.60842e-05
1.60856e-05
1.60868e-05
1.60879e-05
1.60891e-05
1.60903e-05
1.60914e-05
1.60926e-05
1.60938e-05
1.60951e-05
1.60963e-05
1.60975e-05
1.60987e-05
1.60998e-05
1.61009e-05
1.6102e-05
1.6103e-05
1.6104e-05
1.6105e-05
1.61059e-05
1.61067e-05
1.61075e-05
1.61083e-05
1.6109e-05
1.61097e-05
1.61103e-05
1.61109e-05
1.61115e-05
1.6112e-05
1.61125e-05
1.6113e-05
1.61134e-05
1.61138e-05
1.61142e-05
1.61145e-05
1.61149e-05
1.61152e-05
1.61155e-05
1.61157e-05
1.6116e-05
1.61162e-05
1.60824e-05
1.60837e-05
1.60847e-05
1.60858e-05
1.60869e-05
1.6088e-05
1.60891e-05
1.60903e-05
1.60915e-05
1.60927e-05
1.60939e-05
1.60952e-05
1.60964e-05
1.60976e-05
1.60987e-05
1.60999e-05
1.6101e-05
1.6102e-05
1.6103e-05
1.6104e-05
1.61049e-05
1.61057e-05
1.61066e-05
1.61073e-05
1.6108e-05
1.61087e-05
1.61093e-05
1.61099e-05
1.61105e-05
1.6111e-05
1.61115e-05
1.61119e-05
1.61123e-05
1.61127e-05
1.61131e-05
1.61135e-05
1.61138e-05
1.61141e-05
1.61144e-05
1.61147e-05
1.6115e-05
1.60804e-05
1.60815e-05
1.60824e-05
1.60833e-05
1.60843e-05
1.60853e-05
1.60864e-05
1.60875e-05
1.60887e-05
1.60899e-05
1.60911e-05
1.60923e-05
1.60936e-05
1.60948e-05
1.6096e-05
1.60972e-05
1.60983e-05
1.60994e-05
1.61004e-05
1.61014e-05
1.61024e-05
1.61033e-05
1.61042e-05
1.6105e-05
1.61058e-05
1.61065e-05
1.61072e-05
1.61078e-05
1.61084e-05
1.6109e-05
1.61095e-05
1.61099e-05
1.61104e-05
1.61108e-05
1.61112e-05
1.61115e-05
1.61119e-05
1.61122e-05
1.61125e-05
1.61127e-05
1.6113e-05
1.60781e-05
1.6079e-05
1.60797e-05
1.60805e-05
1.60814e-05
1.60823e-05
1.60832e-05
1.60843e-05
1.60854e-05
1.60865e-05
1.60877e-05
1.60889e-05
1.60901e-05
1.60913e-05
1.60925e-05
1.60937e-05
1.60949e-05
1.6096e-05
1.60971e-05
1.60981e-05
1.60991e-05
1.61001e-05
1.6101e-05
1.61018e-05
1.61026e-05
1.61033e-05
1.6104e-05
1.61046e-05
1.61053e-05
1.61058e-05
1.61063e-05
1.61068e-05
1.61073e-05
1.61077e-05
1.61081e-05
1.61085e-05
1.61089e-05
1.61092e-05
1.61095e-05
1.61098e-05
1.61101e-05
1.60755e-05
1.60761e-05
1.60767e-05
1.60774e-05
1.6078e-05
1.60788e-05
1.60796e-05
1.60805e-05
1.60815e-05
1.60825e-05
1.60836e-05
1.60847e-05
1.60858e-05
1.6087e-05
1.60881e-05
1.60892e-05
1.60903e-05
1.60915e-05
1.60925e-05
1.60936e-05
1.60947e-05
1.60957e-05
1.60966e-05
1.60975e-05
1.60984e-05
1.60992e-05
1.61e-05
1.61007e-05
1.61014e-05
1.6102e-05
1.61026e-05
1.61031e-05
1.61036e-05
1.61041e-05
1.61045e-05
1.61049e-05
1.61053e-05
1.61056e-05
1.61059e-05
1.61062e-05
1.61064e-05
1.60726e-05
1.6073e-05
1.60734e-05
1.60738e-05
1.60743e-05
1.60748e-05
1.60755e-05
1.60761e-05
1.60769e-05
1.60777e-05
1.60785e-05
1.60794e-05
1.60804e-05
1.60814e-05
1.60826e-05
1.60838e-05
1.6085e-05
1.60861e-05
1.60873e-05
1.60884e-05
1.60894e-05
1.60904e-05
1.60914e-05
1.60923e-05
1.60931e-05
1.60939e-05
1.60947e-05
1.60954e-05
1.6096e-05
1.60966e-05
1.60972e-05
1.60977e-05
1.60982e-05
1.60987e-05
1.60991e-05
1.60995e-05
1.60999e-05
1.61002e-05
1.61006e-05
1.61009e-05
1.61011e-05
1.60693e-05
1.60695e-05
1.60696e-05
1.60698e-05
1.607e-05
1.60702e-05
1.60705e-05
1.60708e-05
1.60712e-05
1.60715e-05
1.60719e-05
1.60723e-05
1.60728e-05
1.60732e-05
1.60736e-05
1.60741e-05
1.60745e-05
1.60749e-05
1.60753e-05
1.60757e-05
1.60761e-05
1.60766e-05
1.60771e-05
1.60776e-05
1.60781e-05
1.60786e-05
1.60791e-05
1.60796e-05
1.60801e-05
1.60806e-05
1.60811e-05
1.60816e-05
1.6082e-05
1.60824e-05
1.60829e-05
1.60832e-05
1.60836e-05
1.60839e-05
1.60843e-05
1.60846e-05
1.60849e-05
0.00363189
0.00711398
0.0101855
0.0123198
0.0133413
0.0132507
0.0121009
0.00996362
0.00699279
0.00344914
0.000641225
0.000120257
1.00051e-05
1.12285e-05
1.74439e-05
1.64817e-05
1.59763e-05
1.60978e-05
1.61184e-05
1.61002e-05
1.61018e-05
1.61058e-05
1.6106e-05
1.61052e-05
1.61042e-05
1.61026e-05
1.61008e-05
1.60988e-05
1.60969e-05
1.60952e-05
1.60939e-05
1.60928e-05
1.60921e-05
1.60917e-05
1.60915e-05
1.60913e-05
1.60911e-05
1.6091e-05
1.60907e-05
1.60905e-05
1.60902e-05
1.60898e-05
1.60895e-05
1.6089e-05
1.60885e-05
1.6088e-05
1.60874e-05
1.60867e-05
1.6086e-05
1.60852e-05
1.60844e-05
1.60834e-05
1.60824e-05
1.60814e-05
1.60802e-05
1.60789e-05
1.60775e-05
1.60761e-05
1.60745e-05
1.60731e-05
1.60718e-05
1.60711e-05
1.60712e-05
1.60721e-05
1.60736e-05
1.60757e-05
1.60782e-05
1.6081e-05
1.60841e-05
1.60875e-05
1.60911e-05
1.60953e-05
1.60987e-05
1.61071e-05
0.00621746
0.0108484
0.0144336
0.0167233
0.0177753
0.0176878
0.0165474
0.0144346
0.0114594
0.0076828
0.00348012
0.00055578
0.000105913
1.00065e-05
1.09896e-05
1.75367e-05
1.65929e-05
1.58822e-05
1.60523e-05
1.6131e-05
1.61104e-05
1.6103e-05
1.61063e-05
1.61064e-05
1.61046e-05
1.6103e-05
1.61013e-05
1.60994e-05
1.60973e-05
1.60955e-05
1.60941e-05
1.6093e-05
1.60922e-05
1.60917e-05
1.60914e-05
1.60913e-05
1.60911e-05
1.60909e-05
1.60907e-05
1.60905e-05
1.60902e-05
1.60898e-05
1.60895e-05
1.6089e-05
1.60886e-05
1.6088e-05
1.60874e-05
1.60868e-05
1.60861e-05
1.60853e-05
1.60845e-05
1.60836e-05
1.60826e-05
1.60815e-05
1.60804e-05
1.60791e-05
1.60778e-05
1.60763e-05
1.60748e-05
1.60733e-05
1.6072e-05
1.60713e-05
1.60712e-05
1.6072e-05
1.60734e-05
1.60754e-05
1.60779e-05
1.60807e-05
1.60838e-05
1.60872e-05
1.60907e-05
1.60949e-05
1.60982e-05
1.61066e-05
0.00868861
0.0147387
0.0190406
0.021593
0.0227392
0.0226953
0.0215867
0.0195079
0.0165628
0.0128134
0.00829672
0.00355441
0.000508526
0.000112564
1.00048e-05
1.03716e-05
1.77414e-05
1.7426e-05
1.59732e-05
1.59702e-05
1.61218e-05
1.61199e-05
1.61012e-05
1.61035e-05
1.61066e-05
1.61046e-05
1.61017e-05
1.60996e-05
1.60978e-05
1.6096e-05
1.60943e-05
1.60931e-05
1.60923e-05
1.60917e-05
1.60914e-05
1.60912e-05
1.60911e-05
1.60909e-05
1.60907e-05
1.60905e-05
1.60902e-05
1.60899e-05
1.60895e-05
1.60891e-05
1.60886e-05
1.60881e-05
1.60875e-05
1.60868e-05
1.60861e-05
1.60854e-05
1.60846e-05
1.60837e-05
1.60827e-05
1.60817e-05
1.60805e-05
1.60793e-05
1.6078e-05
1.60766e-05
1.6075e-05
1.60735e-05
1.60722e-05
1.60714e-05
1.60712e-05
1.60719e-05
1.60732e-05
1.60752e-05
1.60776e-05
1.60803e-05
1.60834e-05
1.60867e-05
1.60903e-05
1.60944e-05
1.60977e-05
1.6106e-05
0.0111258
0.018817
0.0239774
0.0269118
0.0282434
0.0283079
0.0272757
0.0252576
0.0223569
0.0186566
0.0141851
0.00898755
0.0037783
0.00054061
0.000153121
1.00014e-05
1.00086e-05
1.53292e-05
1.79192e-05
1.62562e-05
1.59187e-05
1.61054e-05
1.61495e-05
1.61105e-05
1.60966e-05
1.61021e-05
1.61044e-05
1.61015e-05
1.60981e-05
1.60961e-05
1.60946e-05
1.60934e-05
1.60924e-05
1.60917e-05
1.60914e-05
1.60912e-05
1.60911e-05
1.60909e-05
1.60907e-05
1.60905e-05
1.60902e-05
1.60899e-05
1.60895e-05
1.60891e-05
1.60886e-05
1.60881e-05
1.60875e-05
1.60869e-05
1.60862e-05
1.60855e-05
1.60847e-05
1.60838e-05
1.60829e-05
1.60819e-05
1.60807e-05
1.60795e-05
1.60782e-05
1.60768e-05
1.60753e-05
1.60738e-05
1.60724e-05
1.60715e-05
1.60713e-05
1.60718e-05
1.6073e-05
1.60749e-05
1.60773e-05
1.608e-05
1.6083e-05
1.60863e-05
1.60898e-05
1.60939e-05
1.60972e-05
1.61053e-05
0.0137059
0.0231426
0.0291967
0.0326215
0.0342503
0.034514
0.0336297
0.0317277
0.0289134
0.0252794
0.0208887
0.0157458
0.00993852
0.0042672
0.000706911
0.000249153
1e-05
1.00295e-05
1.35885e-05
1.83733e-05
1.6665e-05
1.57713e-05
1.59537e-05
1.6152e-05
1.61487e-05
1.6104e-05
1.60932e-05
1.6099e-05
1.6101e-05
1.60981e-05
1.60948e-05
1.60932e-05
1.60925e-05
1.6092e-05
1.60915e-05
1.60912e-05
1.6091e-05
1.60909e-05
1.60907e-05
1.60905e-05
1.60902e-05
1.60899e-05
1.60895e-05
1.60891e-05
1.60887e-05
1.60882e-05
1.60876e-05
1.6087e-05
1.60863e-05
1.60856e-05
1.60848e-05
1.6084e-05
1.60831e-05
1.60821e-05
1.6081e-05
1.60798e-05
1.60785e-05
1.60771e-05
1.60756e-05
1.60741e-05
1.60727e-05
1.60717e-05
1.60713e-05
1.60717e-05
1.60728e-05
1.60746e-05
1.60769e-05
1.60796e-05
1.60825e-05
1.60858e-05
1.60893e-05
1.60934e-05
1.60966e-05
1.61047e-05
0.0171533
0.0277796
0.0346357
0.0386338
0.0406763
0.041249
0.0406088
0.0389065
0.0362524
0.0327412
0.0284536
0.0234346
0.0176869
0.0113248
0.0051539
0.00113252
0.000401822
1e-05
1.00171e-05
1.11078e-05
1.85531e-05
1.84985e-05
1.6216e-05
1.57503e-05
1.60104e-05
1.61641e-05
1.61432e-05
1.60995e-05
1.60893e-05
1.6095e-05
1.60978e-05
1.60955e-05
1.60926e-05
1.60912e-05
1.60911e-05
1.60912e-05
1.60912e-05
1.60909e-05
1.60907e-05
1.60905e-05
1.60902e-05
1.60899e-05
1.60896e-05
1.60892e-05
1.60888e-05
1.60883e-05
1.60877e-05
1.60871e-05
1.60865e-05
1.60858e-05
1.6085e-05
1.60842e-05
1.60832e-05
1.60823e-05
1.60812e-05
1.608e-05
1.60787e-05
1.60774e-05
1.60759e-05
1.60743e-05
1.60729e-05
1.60718e-05
1.60713e-05
1.60716e-05
1.60726e-05
1.60743e-05
1.60765e-05
1.60791e-05
1.6082e-05
1.60853e-05
1.60887e-05
1.60928e-05
1.6096e-05
1.61039e-05
0.0218742
0.0327417
0.040232
0.0448405
0.0473946
0.0483904
0.0481076
0.0467132
0.0443221
0.0410284
0.0369161
0.0320541
0.0264801
0.0201983
0.0133245
0.00663633
0.00182909
0.000702013
2.3367e-05
1.00031e-05
1.00003e-05
1.32109e-05
1.8883e-05
1.75038e-05
1.59485e-05
1.57751e-05
1.60401e-05
1.61675e-05
1.61413e-05
1.6096e-05
1.60836e-05
1.60902e-05
1.60958e-05
1.60953e-05
1.60925e-05
1.60907e-05
1.60904e-05
1.60907e-05
1.60909e-05
1.60907e-05
1.60903e-05
1.609e-05
1.60896e-05
1.60893e-05
1.60889e-05
1.60884e-05
1.60879e-05
1.60873e-05
1.60866e-05
1.60859e-05
1.60852e-05
1.60844e-05
1.60835e-05
1.60825e-05
1.60814e-05
1.60803e-05
1.6079e-05
1.60776e-05
1.60762e-05
1.60747e-05
1.60732e-05
1.6072e-05
1.60714e-05
1.60715e-05
1.60724e-05
1.6074e-05
1.60761e-05
1.60786e-05
1.60815e-05
1.60847e-05
1.60881e-05
1.60921e-05
1.60954e-05
1.61032e-05
0.027471
0.0379925
0.0459246
0.0511127
0.054237
0.0557557
0.0559474
0.0549844
0.0529827
0.0500325
0.0462139
0.0416006
0.0362544
0.0302091
0.0234677
0.0161484
0.00888324
0.00327388
0.00027581
0.000242897
1.00574e-05
1.00126e-05
1.03267e-05
1.59001e-05
1.87239e-05
1.70249e-05
1.58268e-05
1.57589e-05
1.60314e-05
1.61696e-05
1.61497e-05
1.6097e-05
1.60758e-05
1.60814e-05
1.60914e-05
1.6095e-05
1.60935e-05
1.60911e-05
1.609e-05