/*--------------------------------*- C++ -*----------------------------------*\
| =========                 |                                                 |
| \\      /  F ield         | OpenFOAM: The Open Source CFD Toolbox           |
|  \\    /   O peration     | Version:  2312                                  |
|   \\  /    A nd           | Website:  www.openfoam.com                      |
|    \\/     M anipulation  |                                                 |
\*---------------------------------------------------------------------------*/
FoamFile
{
    version     2.0;
    format      ascii;
    arch        "LSB;label=32;scalar=64";
    class       volScalarField;
    location    "850";
    object      turbulenceProperties:I;
}
// * * * * * * * * * * * * * * * * * * * * * * * * * * * * * * * * * * * * * //

dimensions      [0 0 0 0 0 0 0];

internalField   nonuniform List<scalar> 
11040
(
0.0591102
0.0925923
1
0.0977067
0.272798
0.288283
0.290347
0.291676
0.288513
0.287379
0.284904
0.282755
0.280226
0.278238
0.276219
0.275179
0.275452
0.276666
0.27812
0.279567
0.281001
0.282445
0.283264
0.282961
0.281821
0.280963
0.280755
0.280544
0.280625
0.28145
0.283742
0.288414
0.295544
0.309293
0.338268
0.359916
0.349245
0.464956
1
0.434236
0.729064
0.0186265
0.0240086
0.0674271
0.363757
0.59323
0.310346
0.165817
0.0984195
0.0514719
0.0440398
0.0696106
0.0814029
0.0885808
0.0934489
0.0964194
0.0987066
0.101001
0.103184
0.104718
0.105512
0.105673
0.105449
0.104021
0.100787
0.0960661
0.0912187
0.0868316
0.0819201
0.0765322
0.0711664
0.0672997
0.0676195
0.071322
0.0817622
0.102465
0.139564
0.213115
0.403488
1
0.520068
0.816169
0.0161615
0.0126619
0.0185764
0.0538517
0.318655
1
0.598116
0.320444
0.213856
0.162957
0.121105
0.0914767
0.0637193
0.0349684
0.032846
0.048254
0.0563731
0.0610255
0.0634724
0.064254
0.0638476
0.0625027
0.0596222
0.0550682
0.0494781
0.0436051
0.0376543
0.0308178
0.0210977
0.0255273
0.0439966
0.0639148
0.0869612
0.115875
0.155682
0.217282
0.329649
0.591498
1
0.952397
0.671419
0.0142773
0.0115761
0.00928373
0.011649
0.0563708
0.247742
1
1
0.518313
0.346775
0.252774
0.201505
0.165419
0.137306
0.116869
0.100261
0.0884535
0.0796046
0.0736854
0.0702964
0.0685796
0.0683997
0.0697892
0.0721136
0.07425
0.0756173
0.0759673
0.0752232
0.0736822
0.0730151
0.0775602
0.0918911
0.116494
0.152105
0.203094
0.281814
0.420634
0.71438
1
1
0.679399
0.0128529
0.0109161
0.0101564
0.00653986
0.00754231
0.0490414
0.186524
0.775934
1
0.909057
0.525537
0.370347
0.290842
0.237215
0.203036
0.176633
0.158587
0.144998
0.135348
0.128674
0.12378
0.120298
0.118266
0.11741
0.116845
0.116049
0.114708
0.112635
0.109954
0.107676
0.109001
0.120056
0.145706
0.187188
0.247849
0.339742
0.493914
0.784893
1
1
0.79184
0.0112878
0.00975965
0.00887117
0.00858166
0.00440918
0.00365774
0.0372501
0.133912
0.425024
1
1
0.836857
0.549627
0.405628
0.328027
0.275254
0.241398
0.217202
0.200091
0.188202
0.179271
0.172455
0.167497
0.164112
0.161398
0.158802
0.155892
0.152296
0.147865
0.143142
0.140684
0.147527
0.172702
0.219043
0.287967
0.389179
0.547968
0.810567
1
1
0.934672
0.009762
0.00876184
0.00787133
0.0076131
0.00723285
0.00297006
0.000598093
0.0237816
0.091383
0.262228
0.818499
1
1
0.842747
0.582272
0.449223
0.370941
0.319673
0.285405
0.262777
0.24665
0.234897
0.226257
0.22001
0.214903
0.210209
0.205336
0.199698
0.192826
0.184762
0.177117
0.176637
0.19701
0.245643
0.320795
0.426934
0.580168
0.800207
1
1
1
0.00840384
0.00774356
0.00720239
0.00665446
0.00656596
0.00636246
0.0013132
0.000132505
0.0125297
0.0580486
0.163487
0.420306
1
1
1
0.889271
0.633504
0.502965
0.423826
0.37376
0.340729
0.31911
0.303929
0.293121
0.284461
0.276742
0.269075
0.260583
0.250352
0.237893
0.223478
0.211535
0.218523
0.26342
0.34214
0.449132
0.589261
0.763585
0.935189
1
1
0.00722307
0.00676445
0.00641519
0.00606811
0.00566951
0.00576882
0.00539833
0.00190972
0.00170566
0.0023857
0.0323115
0.0985547
0.241899
0.588521
1
1
1
0.974742
0.710408
0.575163
0.495567
0.448389
0.418159
0.397814
0.382418
0.369186
0.356593
0.343437
0.328431
0.310257
0.287668
0.261004
0.24156
0.266505
0.344904
0.450901
0.575044
0.708575
0.82537
0.942899
0.937203
0.00619207
0.00587199
0.00563482
0.00542608
0.00518083
0.00490207
0.00501125
0.00458067
0.00250721
0.000872829
0.00362372
0.0142365
0.0551892
0.140288
0.315105
0.727635
1
1
1
1
0.831278
0.6918
0.614071
0.566485
0.534082
0.50934
0.487891
0.466665
0.443559
0.416806
0.384093
0.34195
0.288521
0.251146
0.3138
0.424292
0.537155
0.640346
0.719663
0.787168
0.80448
0.00530094
0.00507539
0.00491375
0.00477726
0.0046431
0.00446321
0.00428682
0.00429658
0.00415546
0.00292067
0.000734759
0.00156839
0.00136128
0.0257747
0.0765335
0.175057
0.367637
0.796487
1
1
1
1
1
0.911755
0.815679
0.752336
0.705597
0.666261
0.628894
0.589244
0.54295
0.484653
0.406733
0.294347
0.189792
0.347761
0.47148
0.560662
0.617214
0.652774
0.665767
0.00453278
0.00437324
0.00425864
0.00417204
0.0040896
0.00400066
0.00387885
0.00375088
0.00371303
0.00369471
0.00310303
0.000540918
0.00038447
0.00315045
0.00864967
0.0364626
0.0928239
0.196586
0.389339
0.784717
1
1
1
1
1
1
1
1
0.978239
0.905254
0.832243
0.750836
0.653455
0.532492
0.382882
0.291745
0.397955
0.483168
0.525932
0.539491
0.538189
0.00387252
0.00375953
0.00367689
0.00362028
0.00357342
0.00352409
0.00346675
0.00338882
0.00329526
0.00323965
0.00326191
0.00297076
0.00142624
0.000438401
0.00103326
0.00451878
0.0125705
0.043112
0.100515
0.201453
0.379313
0.697929
1
1
1
1
1
1
1
1
1
1
1
1
0.853417
0.699046
0.602024
0.560304
0.537253
0.507531
0.469804
0.00330563
0.00322591
0.00316544
0.00312779
0.0031026
0.0030791
0.00305167
0.0030177
0.00297033
0.00290589
0.00284967
0.00286941
0.0027719
0.00206655
0.000257749
0.000167973
0.00160398
0.00555084
0.0146916
0.0446281
0.0988379
0.185977
0.31769
0.51666
0.806702
1
1
1
1
1
1
1
1
1
1
1
1
1
0.856289
0.733969
0.624385
0.00281885
0.00276312
0.00271855
0.00269342
0.0026812
0.00267336
0.00266487
0.00265289
0.00263563
0.00260985
0.00256855
0.00252621
0.00252507
0.00249946
0.00230461
0.00121851
0.000404176
5.25574e-05
0.00209807
0.00561759
0.0140028
0.0393637
0.0798053
0.139214
0.222255
0.335666
0.487052
0.678657
0.901546
1
1
1
1
1
1
1
1
1
1
1
1
0.00240092
0.00236227
0.00232927
0.0023125
0.00230808
0.00230912
0.00231152
0.00231314
0.00231205
0.00230662
0.00229533
0.002273
0.00224694
0.0022254
0.00224602
0.00215022
0.00187031
0.000512359
0.000239057
2.55117e-05
0.0022207
0.00457689
0.00814432
0.0239469
0.0487128
0.0840776
0.13142
0.192715
0.27021
0.366098
0.48122
0.614339
0.76393
0.932657
1
1
1
1
1
1
1
0.002045
0.00201827
0.00199393
0.00198295
0.00198313
0.00198883
0.00199693
0.00200569
0.00201368
0.00201939
0.00202176
0.00201975
0.00201192
0.00199627
0.00198448
0.00198288
0.00199331
0.00185474
0.00143838
0.000256851
0.000174898
2.10052e-05
0.001215
0.00351458
0.00269309
0.00871949
0.0199767
0.0377345
0.0617731
0.0927462
0.131351
0.178343
0.234492
0.300716
0.377866
0.466561
0.568096
0.686331
0.82769
1
1
0.00175272
0.00173425
0.00171648
0.00170984
0.00171297
0.00172125
0.00173221
0.00174455
0.00175702
0.00176848
0.00177796
0.00178476
0.00178844
0.00178832
0.00178265
0.0017752
0.00177119
0.00178662
0.0017756
0.00163518
0.00120065
0.000213287
0.000160734
4.00239e-05
0.000386116
0.00141024
0.00289332
0.00372152
0.00218161
0.0080983
0.017924
0.0315441
0.0491877
0.0713139
0.0981909
0.13006
0.167144
0.210109
0.259313
0.315857
0.378919
0.00151876
0.001506
0.00149299
0.0014894
0.00149429
0.00150389
0.00151623
0.00153037
0.00154526
0.00155988
0.00157336
0.00158505
0.00159444
0.00160139
0.00160538
0.00160633
0.00160287
0.00160188
0.00160653
0.00161869
0.00159844
0.00145605
0.00118655
0.000406947
0.00019096
9.14987e-05
2.71737e-05
0
0.000248742
0.00118565
0.00263988
0.00321586
0.000180254
0.00288388
0.0077141
0.0159621
0.0266873
0.0401938
0.0565266
0.075908
0.0982864
0.00132988
0.00132093
0.00131131
0.00130976
0.00131557
0.00132562
0.00133831
0.0013529
0.00136858
0.00138446
0.00139987
0.00141426
0.00142712
0.0014381
0.00144697
0.0014537
0.00145797
0.00145966
0.00145945
0.00146258
0.00147169
0.00147883
0.00146725
0.00137495
0.00118796
0.000937979
0.000293146
0.000156309
8.38311e-05
6.08278e-05
1.37415e-05
0
2.70655e-05
0.000355282
0.00111167
0.00239282
0.00302501
0.00265273
0.00239851
0.0015391
0.006726
0.00117364
0.00116732
0.0011602
0.00116005
0.00116631
0.00117637
0.00118892
0.00120333
0.00121894
0.00123502
0.00125098
0.0012664
0.00128086
0.00129404
0.00130566
0.00131557
0.00132375
0.00133011
0.0013345
0.00133718
0.00133922
0.00134518
0.00135358
0.00136733
0.00136149
0.00133715
0.00125643
0.00111498
0.000924977
0.000692223
0.000163866
0.000117585
7.44727e-05
6.05261e-05
4.42197e-05
1.5699e-05
0
0
0
0.000135791
0.000888154
0.00104228
0.00103782
0.00103261
0.00103345
0.00103988
0.00104969
0.00106183
0.00107574
0.00109086
0.00110657
0.00112236
0.00113788
0.0011528
0.00116681
0.00117969
0.00119128
0.00120146
0.00121022
0.00121755
0.00122354
0.00122776
0.00123111
0.00123447
0.00124065
0.00124964
0.00125884
0.00127039
0.0012694
0.00125041
0.00121869
0.00115024
0.0010453
0.000912448
0.000757383
0.000570998
0.000211221
0.000114293
6.64094e-05
5.81005e-05
4.91405e-05
3.89419e-05
0.000930261
0.000927142
0.000923416
0.00092495
0.000931354
0.00094079
0.000952363
0.000965593
0.000979977
0.000994996
0.00101021
0.00102531
0.00104004
0.00105411
0.00106732
0.00107953
0.00109062
0.00110054
0.00110924
0.00111684
0.00112307
0.00112808
0.00113234
0.00113574
0.00113932
0.00114347
0.00114973
0.001158
0.00116678
0.0011739
0.00118208
0.00118211
0.00117264
0.00115299
0.00112533
0.00107861
0.00101276
0.00092828
0.000830108
0.000718332
0.000587064
0.000833685
0.000831547
0.000828989
0.00083101
0.000837279
0.00084626
0.000857195
0.000869655
0.000883192
0.000897358
0.000911773
0.000926164
0.000940299
0.000953947
0.000966919
0.00097908
0.000990328
0.00100059
0.00100981
0.00101806
0.00102507
0.00103099
0.0010362
0.00104047
0.00104392
0.00104681
0.00104935
0.00105193
0.00105507
0.00105868
0.00106338
0.00106898
0.00107473
0.00108003
0.00108411
0.00108842
0.00108964
0.00108633
0.00107816
0.00106422
0.00104822
0.000749645
0.000748233
0.000746602
0.000748959
0.00075502
0.00076351
0.000773778
0.000785431
0.000798071
0.000811305
0.000824803
0.000838319
0.000851653
0.000864604
0.000876999
0.000888715
0.000899653
0.000909738
0.00091891
0.000927215
0.000934367
0.000940476
0.000945885
0.000950389
0.000954079
0.000957098
0.000959503
0.000961336
0.000962689
0.000963679
0.000964378
0.00096498
0.000965618
0.000966443
0.000967394
0.00096862
0.000970059
0.000971649
0.000973303
0.000974294
0.00097571
0.000675947
0.000675082
0.000674192
0.000676777
0.000682593
0.000690583
0.000700182
0.000711031
0.000722768
0.00073505
0.000747584
0.000760153
0.000772576
0.000784674
0.000796296
0.000807328
0.000817675
0.000827265
0.000836031
0.000844006
0.000850906
0.000856818
0.000862046
0.000866381
0.000869898
0.000872726
0.000874939
0.000876573
0.000877661
0.000878244
0.000878345
0.000877999
0.000877226
0.000876093
0.000874665
0.000872946
0.000870971
0.000868839
0.000866713
0.000864394
0.000862278
0.000610896
0.000610446
0.000610158
0.000612892
0.000618447
0.000625947
0.000634896
0.000644961
0.000655817
0.000667158
0.000678725
0.000690324
0.000701793
0.000712969
0.000723719
0.000733938
0.00074354
0.000752451
0.000760608
0.00076803
0.000774446
0.000779929
0.000784765
0.000788743
0.000791919
0.000794406
0.000796273
0.000797558
0.000798303
0.000798549
0.000798332
0.000797687
0.000796628
0.000795194
0.000793424
0.000791317
0.000788878
0.000786144
0.000783245
0.000779958
0.000776889
0.000553157
0.000553031
0.000553234
0.000556066
0.000561359
0.00056839
0.000576721
0.00058604
0.000596052
0.000606487
0.000617112
0.000627755
0.000638268
0.000648503
0.000658344
0.000667695
0.000676476
0.000684618
0.000692058
0.00069881
0.000704617
0.000709549
0.000713877
0.000717397
0.00072015
0.000722242
0.000723731
0.000724657
0.000725056
0.000724971
0.000724439
0.000723501
0.000722177
0.00072051
0.000718541
0.000716277
0.000713726
0.000710922
0.000707989
0.000704705
0.000701642
0.00050166
0.000501793
0.000502406
0.000505304
0.000510347
0.00051694
0.00052469
0.000533308
0.000542526
0.000552101
0.000561827
0.000571548
0.000581131
0.000590445
0.00059938
0.000607855
0.000615797
0.00062314
0.000629824
0.000635859
0.000641008
0.000645339
0.000649114
0.000652138
0.000654444
0.000656126
0.000657242
0.000657828
0.000657919
0.000657555
0.000656774
0.000655613
0.000654096
0.000652264
0.000650157
0.000647785
0.000645158
0.000642306
0.000639349
0.0006361
0.000632984
0.000455539
0.00045589
0.000456853
0.000459798
0.000464609
0.000470799
0.000478013
0.000485981
0.000494458
0.000503228
0.000512108
0.000520957
0.000529656
0.000538086
0.000546149
0.000553771
0.000560889
0.000567443
0.000573376
0.000578697
0.000583188
0.000586918
0.000590141
0.000592675
0.000594544
0.000595837
0.000596608
0.000596891
0.000596718
0.000596129
0.000595159
0.000593845
0.000592209
0.000590291
0.000588129
0.000585734
0.000583116
0.000580301
0.000577404
0.000574265
0.000571184
0.000414083
0.000414627
0.000415896
0.00041888
0.000423484
0.000429309
0.000436033
0.000443402
0.000451197
0.000459223
0.000467317
0.000475351
0.00048322
0.00049082
0.000498058
0.00050487
0.000511204
0.000517003
0.000522217
0.000526854
0.000530716
0.000533875
0.000536575
0.000538646
0.00054011
0.000541049
0.000541514
0.000541536
0.000541146
0.000540382
0.000539277
0.000537866
0.00053617
0.000534227
0.000532072
0.000529715
0.00052717
0.000524455
0.000521679
0.000518705
0.000515735
0.0003767
0.00037743
0.000378973
0.000381995
0.000386418
0.000391917
0.000398198
0.000405024
0.000412195
0.00041954
0.000426912
0.000434194
0.000441295
0.000448124
0.000454596
0.000460654
0.000466256
0.000471351
0.000475897
0.000479899
0.000483182
0.000485817
0.00048804
0.000489696
0.000490801
0.000491433
0.000491641
0.000491452
0.000490898
0.000490011
0.000488823
0.000487368
0.000485664
0.000483746
0.000481646
0.000479375
0.000476944
0.000474369
0.000471753
0.000468975
0.000466152
0.0003429
0.000343814
0.000345609
0.000348673
0.000352944
0.000358155
0.000364041
0.000370378
0.000376987
0.000383714
0.000390427
0.000397024
0.000403423
0.000409544
0.000415313
0.00042068
0.00042561
0.000430061
0.000433995
0.000437418
0.000440176
0.00044234
0.000444136
0.000445423
0.000446214
0.000446583
0.000446575
0.000446217
0.000445538
0.000444568
0.000443336
0.000441874
0.000440198
0.000438339
0.000436328
0.000434174
0.000431887
0.000429478
0.000427048
0.000424482
0.000421842
0.000312267
0.000313372
0.000315403
0.000318515
0.000322662
0.000327626
0.000333163
0.000339066
0.000345171
0.000351342
0.000357463
0.00036344
0.000369202
0.000374683
0.000379816
0.000384558
0.000388881
0.000392753
0.00039614
0.000399052
0.000401353
0.000403112
0.000404546
0.000405524
0.000406061
0.000406224
0.000406055
0.000405581
0.000404826
0.000403818
0.000402585
0.000401154
0.000399542
0.000397774
0.000395879
0.000393865
0.000391743
0.000389517
0.000387286
0.00038494
0.000382488
0.000284447
0.000285753
0.000288009
0.00029118
0.00029523
0.000299985
0.000305219
0.00031074
0.0003164
0.000322077
0.000327668
0.000333091
0.000338283
0.000343188
0.000347751
0.000351932
0.000355711
0.000359063
0.000361963
0.000364417
0.000366312
0.000367713
0.000368827
0.000369535
0.000369851
0.000369837
0.000369536
0.000368969
0.000368161
0.000367137
0.000365923
0.000364542
0.000363009
0.000361348
0.000359584
0.000357723
0.000355777
0.000353743
0.000351721
0.00034959
0.000347369
0.000259138
0.00026066
0.000263132
0.000266371
0.000270353
0.000274936
0.000279911
0.000285102
0.000290372
0.000295614
0.000300737
0.000305668
0.000310354
0.000314749
0.000318809
0.000322498
0.000325804
0.000328709
0.000331195
0.00033327
0.00033484
0.000335962
0.000336834
0.000337348
0.000337514
0.000337393
0.000337021
0.000336421
0.000335611
0.000334617
0.000333461
0.000332163
0.000330738
0.000329206
0.000327588
0.000325893
0.000324128
0.000322288
0.000320472
0.000318559
0.000316522
0.000236084
0.000237835
0.000240516
0.000243835
0.000247775
0.000252221
0.00025698
0.000261886
0.000266819
0.00027168
0.000276391
0.00028089
0.000285129
0.000289073
0.000292685
0.000295935
0.000298816
0.000301317
0.000303426
0.000305151
0.000306415
0.000307273
0.000307913
0.000308234
0.000308251
0.000308019
0.000307573
0.000306933
0.000306118
0.00030515
0.000304049
0.000302833
0.000301515
0.000300111
0.000298642
0.000297112
0.000295531
0.000293886
0.000292284
0.000290564
0.000288812
0.000215066
0.000217057
0.000219943
0.000223354
0.000227278
0.000231619
0.000236197
0.00024086
0.000245499
0.000250029
0.000254381
0.000258502
0.000262354
0.000265911
0.000269146
0.000272036
0.000274578
0.000276769
0.000278603
0.00028009
0.000281166
0.000281878
0.0002824
0.000282641
0.000282613
0.000282367
0.000281934
0.000281334
0.000280582
0.000279697
0.000278697
0.000277601
0.000276417
0.000275162
0.000273853
0.000272495
0.000271096
0.00026964
0.000268231
0.000266728
0.000265092
0.000195896
0.000198137
0.000201222
0.000204739
0.000208671
0.000212932
0.000217358
0.00022181
0.000226192
0.000230432
0.000234468
0.000238257
0.000241766
0.000244972
0.000247855
0.000250399
0.000252601
0.000254466
0.000255993
0.000257193
0.00025802
0.000258519
0.000258856
0.000258947
0.000258808
0.000258485
0.00025801
0.000257398
0.000256665
0.000255827
0.000254901
0.0002539
0.000252835
0.000251716
0.00025056
0.000249366
0.000248149
0.000246881
0.000245684
0.000244322
0.000243092
0.000178408
0.000180907
0.000184186
0.000187816
0.000191771
0.000195972
0.000200267
0.000204533
0.000208686
0.000212668
0.000216431
0.00021994
0.00022317
0.000226112
0.000228757
0.000231093
0.000233121
0.000234847
0.000236271
0.000237405
0.000238211
0.000238714
0.000239072
0.000239206
0.000239131
0.000238889
0.000238508
0.000238001
0.000237385
0.000236673
0.00023588
0.000235021
0.000234105
0.000233141
0.000232145
0.000231121
0.000230075
0.000228987
0.000227954
0.000226847
0.00022552
0.000162453
0.000165227
0.000168706
0.000172451
0.000176424
0.000180559
0.000184728
0.000188823
0.000192772
0.000196524
0.00020004
0.000203291
0.000206253
0.000208901
0.000211223
0.000213217
0.000214896
0.00021628
0.000217382
0.000218214
0.000218757
0.000219047
0.000219221
0.000219213
0.000219035
0.000218727
0.000218315
0.000217811
0.000217226
0.000216574
0.000215866
0.000215112
0.000214319
0.000213495
0.00021265
0.000211784
0.00021091
0.000209991
0.000209171
0.000208081
0.000207488
0.000147946
0.000151017
0.00015471
0.000158575
0.000162545
0.000166575
0.000170581
0.000174489
0.000178246
0.000181804
0.000185124
0.000188184
0.000190991
0.000193567
0.000195918
0.000198017
0.000199836
0.000201375
0.000202639
0.000203646
0.00020438
0.000204846
0.000205186
0.000205339
0.000205321
0.000205169
0.000204908
0.00020455
0.000204109
0.000203598
0.00020303
0.000202418
0.000201768
0.000201089
0.000200394
0.000199687
0.000198972
0.000198234
0.000197535
0.000196867
0.000195622
0.000134908
0.000138239
0.000142101
0.000146053
0.00015
0.000153906
0.000157715
0.000161389
0.000164911
0.000168264
0.000171409
0.000174282
0.000176809
0.000178935
0.000180667
0.000182095
0.000183303
0.000184319
0.000185147
0.00018578
0.000186208
0.000186465
0.000186645
0.000186693
0.000186617
0.00018645
0.00018621
0.000185907
0.000185548
0.000185143
0.0001847
0.000184224
0.000183722
0.000183197
0.000182655
0.000182092
0.00018153
0.000180908
0.000180428
0.000179447
0.000179759
0.000123283
0.000126779
0.00013065
0.000134522
0.000138338
0.000142103
0.000145771
0.000149279
0.000152586
0.000155689
0.000158624
0.000161462
0.000164269
0.000167069
0.000169783
0.000172201
0.000174193
0.000175804
0.000177097
0.000178129
0.000178902
0.000179409
0.000179787
0.000179996
0.000180057
0.000180005
0.000179863
0.000179643
0.000179359
0.000179026
0.000178656
0.000178261
0.000177849
0.000177428
0.000177011
0.000176606
0.000176205
0.000175824
0.000175419
0.000175365
0.000173729
0.000112666
0.000116406
0.000120242
0.000123854
0.000127284
0.00013067
0.000134069
0.00013747
0.000140798
0.000143918
0.000146657
0.000148863
0.000150465
0.000151503
0.000152191
0.000152949
0.000153952
0.000155026
0.000156049
0.000156945
0.000157703
0.000158352
0.000158923
0.000159374
0.000159711
0.000159956
0.000160125
0.000160224
0.000160261
0.000160241
0.00016017
0.000160053
0.000159894
0.000159694
0.000159457
0.000159173
0.000158877
0.000158472
0.000158274
0.0001571
0.00015882
0.000102884
0.000107338
0.000111574
0.000115186
0.000118229
0.000120935
0.000123498
0.00012608
0.000128832
0.000131888
0.000135334
0.000139186
0.000143346
0.000147634
0.000151702
0.0001549
0.000157084
0.00015871
0.000159972
0.000160962
0.000161671
0.000162121
0.000162424
0.000162568
0.000162581
0.000162496
0.000162336
0.000162119
0.000161862
0.000161581
0.000161292
0.000161011
0.000160745
0.000160506
0.000160308
0.000160169
0.000160061
0.000160064
0.000159922
0.000160789
0.000158022
9.51729e-05
9.99042e-05
0.000104335
0.000108243
0.000111592
0.000114427
0.000116736
0.000118504
0.000119765
0.000120598
0.000121119
0.000121452
0.000121723
0.000121958
0.000122266
0.000123355
0.000125234
0.000127284
0.000129308
0.00013119
0.000132909
0.000134476
0.000135912
0.000137206
0.000138354
0.000139368
0.000140259
0.000141031
0.000141687
0.000142228
0.000142656
0.000142971
0.000143174
0.000143258
0.000143226
0.000143062
0.00014281
0.000142321
0.000142056
0.000140153
0.00014303
9.9171e-05
0.000105138
0.000108195
0.000108755
0.000107974
0.000107383
0.000108343
0.000111419
0.000116213
0.000121845
0.000127499
0.000132648
0.000137019
0.000140585
0.000143318
0.000144654
0.000144767
0.000144323
0.000143631
0.000142811
0.000141811
0.000140902
0.000139902
0.000138873
0.000137847
0.000136833
0.000135835
0.000134859
0.000133908
0.000132984
0.000132084
0.000131208
0.000130343
0.000129482
0.000128624
0.000127783
0.000126884
0.000126048
0.000124849
0.000125011
0.000119957
0.44754
0.345475
0.292623
0.247617
0.204149
0.162089
0.12153
0.0821705
0.044827
0.0205272
0.010799
0.00463315
0.000299407
0.0011175
0.00168727
0.00154239
0.00142912
0.00135751
0.00128145
0.00120576
0.0011327
0.0010624
0.000993969
0.000928016
0.000864461
0.00080363
0.000745026
0.000689414
0.000636287
0.000585885
0.000538195
0.000493281
0.0004512
0.000411867
0.000375123
0.000340965
0.000309123
0.000279523
0.000251858
0.000226199
0.000202192
0.000179683
0.000158654
0.000138984
0.000120493
0.000103498
8.82049e-05
7.57148e-05
6.84033e-05
6.70752e-05
6.94957e-05
7.31412e-05
7.65145e-05
7.92272e-05
8.1179e-05
8.25537e-05
8.32564e-05
8.35792e-05
8.34107e-05
8.3033e-05
8.22736e-05
8.14727e-05
8.04108e-05
7.92448e-05
7.80901e-05
7.67168e-05
7.55952e-05
7.40826e-05
7.31952e-05
7.11017e-05
7.15747e-05
6.77343e-05
7.27887e-05
6.81741e-05
0.737906
0.524215
0.408498
0.331895
0.271461
0.219051
0.171535
0.127194
0.0851693
0.0458453
0.0206633
0.00964547
0.00417561
0.000302268
0.00100853
0.00161011
0.00147111
0.00134868
0.00128104
0.00121
0.00113537
0.00106419
0.000995651
0.000929564
0.0008658
0.000804885
0.0007462
0.000690436
0.000637232
0.000586707
0.000538901
0.000493832
0.000451605
0.000412152
0.000375295
0.000341046
0.000309137
0.000279491
0.000251777
0.000226102
0.000202154
0.000179635
0.000158683
0.000139134
0.000120781
0.000104028
8.89524e-05
7.67457e-05
6.93973e-05
6.77138e-05
6.96611e-05
7.29506e-05
7.60876e-05
7.86488e-05
8.04836e-05
8.18e-05
8.24501e-05
8.27456e-05
8.25551e-05
8.21807e-05
8.14176e-05
8.06318e-05
7.9604e-05
7.84439e-05
7.73346e-05
7.59825e-05
7.49082e-05
7.3421e-05
7.26143e-05
7.04638e-05
7.11681e-05
6.70388e-05
7.25903e-05
6.78183e-05
0.976518
0.710553
0.5398
0.428789
0.347971
0.282991
0.227137
0.176964
0.130583
0.0869378
0.0466365
0.020811
0.00879626
0.00408571
0.000267409
0.000750165
0.00154085
0.001439
0.00128094
0.00120505
0.00113901
0.0010674
0.000997525
0.00093127
0.000867492
0.000806327
0.000747635
0.000691645
0.000638349
0.000587705
0.000539771
0.000494575
0.000452166
0.000412568
0.000375618
0.000341252
0.000309287
0.000279588
0.000251867
0.000226143
0.000202274
0.000179806
0.000158952
0.000139561
0.00012144
0.000104967
9.02114e-05
7.84147e-05
7.10245e-05
6.88362e-05
7.01566e-05
7.29463e-05
7.57446e-05
7.8094e-05
7.98165e-05
8.09726e-05
8.16019e-05
8.18329e-05
8.16532e-05
8.1247e-05
8.05341e-05
7.96997e-05
7.87339e-05
7.76097e-05
7.65195e-05
7.52364e-05
7.41641e-05
7.27299e-05
7.2009e-05
6.98202e-05
7.07311e-05
6.63539e-05
7.23468e-05
6.74696e-05
1
0.936167
0.698625
0.545273
0.438716
0.357521
0.290953
0.233387
0.181706
0.134052
0.089393
0.0485325
0.021396
0.00861742
0.00447105
0.000188173
0.00027753
0.00132626
0.00138594
0.00122491
0.00113362
0.00107081
0.00100309
0.000934572
0.000869851
0.000808649
0.000749975
0.000693689
0.000640137
0.000589277
0.000541144
0.000495745
0.000453118
0.000413326
0.000376227
0.000341723
0.000309668
0.000279898
0.000252156
0.000226406
0.00020257
0.000180167
0.000159421
0.000140174
0.000122287
0.000106074
9.16224e-05
8.01404e-05
7.26883e-05
6.99667e-05
7.06749e-05
7.29449e-05
7.53966e-05
7.75204e-05
7.91109e-05
8.01484e-05
8.07399e-05
8.09237e-05
8.07485e-05
8.03247e-05
7.96495e-05
7.88013e-05
7.78829e-05
7.68009e-05
7.57373e-05
7.45144e-05
7.34666e-05
7.2073e-05
7.14425e-05
6.92129e-05
7.03314e-05
6.56968e-05
7.21367e-05
6.71346e-05
1
1
0.90891
0.694042
0.551329
0.447692
0.366458
0.298907
0.240201
0.187471
0.138932
0.0935677
0.0522473
0.0230371
0.00932651
0.00539037
6.48583e-05
0.000358671
0.00113491
0.00133015
0.00117499
0.00106004
0.000999323
0.000940409
0.000875416
0.000811907
0.000752549
0.000696283
0.000642593
0.000591405
0.000542949
0.000497272
0.000454404
0.000414381
0.000377079
0.000342414
0.000310243
0.000280389
0.000252611
0.000226854
0.000203029
0.00018069
0.000160053
0.000140945
0.000123276
0.0001073
9.31231e-05
8.18522e-05
7.42988e-05
7.10483e-05
7.11628e-05
7.2911e-05
7.50179e-05
7.69127e-05
7.83508e-05
7.93171e-05
7.9854e-05
8.00119e-05
7.98314e-05
7.94111e-05
7.87552e-05
7.79325e-05
7.70512e-05
7.60086e-05
7.49859e-05
7.38088e-05
7.28113e-05
7.14473e-05
7.09084e-05
6.86351e-05
6.99637e-05
6.50632e-05
7.19535e-05
6.68138e-05
1
1
1
0.902023
0.700667
0.562549
0.459551
0.377523
0.308832
0.249039
0.195398
0.146134
0.100224
0.0583254
0.0265408
0.0111612
0.00652215
0
0.000296648
0.000795988
0.00126381
0.00117994
0.00101547
0.000928668
0.000874825
0.000818039
0.000757631
0.000699399
0.000645109
0.000593881
0.000545228
0.000499183
0.000455955
0.000415646
0.000378121
0.000343281
0.000310978
0.000281027
0.000253205
0.000227443
0.000203631
0.000181358
0.000160831
0.00014187
0.000124411
0.000108674
9.4765e-05
8.36566e-05
7.59791e-05
7.2242e-05
7.17416e-05
7.29539e-05
7.46908e-05
7.63407e-05
7.76181e-05
7.8499e-05
7.89769e-05
7.91089e-05
7.8922e-05
7.85085e-05
7.78716e-05
7.70808e-05
7.62353e-05
7.52296e-05
7.42519e-05
7.31177e-05
7.21778e-05
7.08405e-05
7.03896e-05
6.80734e-05
6.96061e-05
6.44473e-05
7.17708e-05
6.65053e-05
1
1
1
1
0.919374
0.72033
0.581374
0.476485
0.3925
0.322129
0.261011
0.206377
0.1564
0.109951
0.0673313
0.0329189
0.0136448
0.00818627
0.00164673
0.000183056
9.46486e-05
0.000924869
0.00112414
0.001001
0.000876808
0.000808871
0.000758872
0.00070542
0.000649894
0.00059683
0.000547514
0.00050137
0.000457947
0.000417281
0.000379403
0.000344312
0.000311857
0.000281812
0.000253947
0.00022817
0.000204366
0.00018216
0.000161748
0.00014294
0.000125688
0.000110195
9.65467e-05
8.55856e-05
7.77924e-05
7.36135e-05
7.24924e-05
7.31519e-05
7.44846e-05
7.58631e-05
7.69679e-05
7.77329e-05
7.8146e-05
7.82421e-05
7.80477e-05
7.76352e-05
7.70207e-05
7.62544e-05
7.54442e-05
7.44751e-05
7.35392e-05
7.24489e-05
7.15634e-05
7.02527e-05
6.98849e-05
6.75282e-05
6.92524e-05
6.38496e-05
7.15813e-05
6.6205e-05
1
1
1
1
1
0.96332
0.755443
0.610087
0.50045
0.412964
0.340046
0.277109
0.221212
0.170369
0.123291
0.0798853
0.0429184
0.0187785
0.00482221
0.00423649
0.000359054
0.000229926
0.000488856
0.000951378
0.000977522
0.000855734
0.000755715
0.000697497
0.000651475
0.000602693
0.000552239
0.000504116
0.000459792
0.000418962
0.000380996
0.000345679
0.000312963
0.000282736
0.000254806
0.000229024
0.000205239
0.000183102
0.000162798
0.000144135
0.00012709
0.000111835
9.84347e-05
8.76074e-05
7.97207e-05
7.51333e-05
7.34174e-05
7.35181e-05
7.44203e-05
7.54997e-05
7.64098e-05
7.70419e-05
7.73783e-05
7.74284e-05
7.72214e-05
7.68044e-05
7.62093e-05
7.54631e-05
7.4685e-05
7.3753e-05
7.28555e-05
7.18079e-05
7.09723e-05
6.96873e-05
6.93979e-05
6.70046e-05
6.89041e-05
6.32728e-05
7.13873e-05
6.59086e-05
1
1
1
1
1
1
1
0.810352
0.651847
0.533791
0.440684
0.363934
0.298375
0.240699
0.188676
0.140798
0.0965011
0.0574538
0.0276247
0.0101654
0.00176082
0.0017774
0.000103387
0.000242681
0.000601008
0.000869713
0.000849034
0.000737591
0.000648499
0.000594652
0.000552774
0.000509586
0.000464757
0.000421787
0.000382502
0.000346863
0.000314177
0.000283932
0.000255902
0.000230026
0.000206211
0.000184151
0.000163969
0.000145455
0.00012861
0.000113574
0.000100404
8.96987e-05
8.17353e-05
7.67732e-05
7.44986e-05
7.4044e-05
7.44984e-05
7.52535e-05
7.5944e-05
7.64312e-05
7.66768e-05
7.66714e-05
7.64436e-05
7.60181e-05
7.54363e-05
7.47085e-05
7.39587e-05
7.30622e-05
7.2201e-05
7.11932e-05
7.04043e-05
6.91445e-05
6.89274e-05
6.6503e-05
6.85602e-05
6.27181e-05
7.11881e-05
6.5612e-05
0.83451
1
1
1
1
1
1
1
0.893056
0.711595
0.579819
0.477983
0.395468
0.326033
0.26576
0.212026
0.163012
0.117779
0.0768343
0.0424445
0.0191844
0.0049602
0.00484052
0
0.000123924
0.000220314
0.000526334
0.000751889
0.000740137
0.000640441
0.000554189
0.00050039
0.000461997
0.000425297
0.000387211
0.000349937
0.000315642
0.00028481
0.000256866
0.00023118
0.000207428
0.000185385
0.000165241
0.000146849
0.000130213
0.000115404
0.000102459
9.18546e-05
8.38237e-05
7.85236e-05
7.57328e-05
7.47298e-05
7.47244e-05
7.51325e-05
7.55792e-05
7.5906e-05
7.60444e-05
7.59746e-05
7.57138e-05
7.52763e-05
7.47e-05
7.39889e-05
7.32627e-05
7.23979e-05
7.15713e-05
7.06008e-05
6.98563e-05
6.8621e-05
6.84687e-05
6.60201e-05
6.82152e-05
6.21845e-05
7.098e-05
6.53101e-05
0.665797
0.751468
1
1
1
1
1
1
1
1
0.797665
0.643666
0.528225
0.436944
0.361712
0.297568
0.241262
0.190577
0.14416
0.101521
0.063947