/*--------------------------------*- C++ -*----------------------------------*\
| =========                 |                                                 |
| \\      /  F ield         | OpenFOAM: The Open Source CFD Toolbox           |
|  \\    /   O peration     | Version:  2312                                  |
|   \\  /    A nd           | Website:  www.openfoam.com                      |
|    \\/     M anipulation  |                                                 |
\*---------------------------------------------------------------------------*/
FoamFile
{
    version     2.0;
    format      ascii;
    arch        "LSB;label=32;scalar=64";
    class       volScalarField;
    location    "850";
    object      turbulenceProperties:epsilon;
}
// * * * * * * * * * * * * * * * * * * * * * * * * * * * * * * * * * * * * * //

dimensions      [0 2 -3 0 0 0 0];

internalField   nonuniform List<scalar> 
11040
(
95.0914
99.8441
3.58519
1.15198
17.2983
19.0345
17.96
15.7744
13.6976
12.3969
11.2358
10.2372
9.45603
8.86017
8.3964
8.16335
8.14173
8.35621
8.78388
9.42973
10.3284
11.4633
12.8638
14.5898
16.6594
19.1257
21.8876
24.5525
26.7966
28.2342
28.48
27.2667
24.7376
21.3669
17.8299
11.6886
4.525
1.66593
0.275881
2.32231
7.05627
0.863187
2.86102
28.0918
51.4431
49.7466
5.36949
0.590207
0.076271
0.00611671
0.00339088
0.0222906
0.0430285
0.063358
0.0819118
0.0980973
0.114182
0.132206
0.152317
0.172577
0.193217
0.214517
0.237407
0.25494
0.258781
0.245891
0.221746
0.190858
0.152621
0.112257
0.076987
0.0533845
0.0443693
0.0409922
0.0469453
0.0652468
0.100574
0.162244
0.255506
0.591683
0.709114
8.48275
0.328282
0.257671
1.05175
14.8114
96.6251
75.4425
16.6364
2.47256
0.627774
0.242991
0.0851775
0.0302453
0.00782956
0.000767641
0.000650559
0.00331229
0.00675942
0.0102602
0.0133189
0.0156008
0.0169939
0.0173363
0.0157967
0.0125009
0.00870381
0.00548244
0.00309887
0.00137046
0.000286114
0.000558561
0.00426859
0.0154591
0.0396272
0.0836739
0.156971
0.274862
0.457366
0.6957
1.39776
2.17327
3.55422
0.169119
0.124133
0.0831061
0.197363
14.8566
90.0743
92.748
32.2494
5.42934
1.65579
0.637069
0.308844
0.164678
0.088618
0.0523146
0.0317989
0.0214622
0.0157686
0.0129552
0.0120258
0.0121902
0.0133652
0.0158164
0.0193985
0.0230596
0.0257278
0.0265713
0.0252093
0.02216
0.0196002
0.0217815
0.0351956
0.0688367
0.136394
0.25634
0.457998
0.779286
1.20836
2.20679
3.78092
2.44331
0.0938621
0.0764139
0.0864802
0.0218995
0.0379675
9.62821
68.376
98.7637
50.9653
11.8424
3.28831
1.25944
0.64726
0.356883
0.227623
0.152518
0.113186
0.0901789
0.0775528
0.071542
0.0690131
0.0686383
0.0703525
0.073834
0.0769915
0.0781778
0.0762243
0.0705393
0.0617824
0.0526909
0.0488912
0.0598727
0.100209
0.190816
0.359584
0.648699
1.11403
1.75709
2.91298
5.17548
2.82762
0.0488899
0.0412149
0.0390176
0.047721
0.00441706
0.00205939
4.48431
42.4103
92.4316
68.2307
24.654
6.12733
2.36434
1.10498
0.641925
0.406529
0.28957
0.224207
0.187397
0.168289
0.158148
0.153003
0.151296
0.152503
0.15358
0.152152
0.146234
0.134407
0.11686
0.0966551
0.0810663
0.0832314
0.123649
0.231224
0.444086
0.816266
1.41867
2.27133
3.5059
6.11789
3.76739
0.025502
0.0232926
0.0205423
0.0232422
0.024926
0.000800541
8.11289e-07
1.30611
21.062
70.2185
78.1496
42.263
13.1965
4.13842
1.87291
1.03235
0.655631
0.464187
0.360587
0.307383
0.278916
0.264744
0.258341
0.257486
0.257237
0.25375
0.243642
0.224126
0.194396
0.157543
0.122342
0.105508
0.133428
0.24322
0.483248
0.917015
1.62402
2.63666
3.91394
6.50006
4.7486
0.0135832
0.0129865
0.0125977
0.0116284
0.0135758
0.0149836
2.07988e-05
1.09026e-09
0.196704
7.81265
40.8803
73.7047
58.3062
26.4677
8.33942
3.19525
1.62759
1.00109
0.691523
0.535362
0.453532
0.41587
0.398958
0.394903
0.394518
0.390891
0.378008
0.350619
0.305878
0.246362
0.181713
0.131579
0.127663
0.214632
0.449862
0.902942
1.65368
2.73438
4.01654
6.23552
5.33016
0.00741084
0.00720318
0.00723064
0.0071119
0.00656795
0.00833478
0.00770256
0.000109776
9.32465e-05
0.000371554
1.84477
17.3286
51.5298
64.5278
42.5912
17.948
6.14688
2.69544
1.51555
1.01217
0.764316
0.651365
0.599235
0.580878
0.57661
0.572503
0.558011
0.524015
0.464232
0.378335
0.275096
0.175622
0.115729
0.146093
0.330669
0.741438
1.45083
2.48132
3.68727
5.38272
5.18612
0.00408807
0.00401588
0.00407461
0.00416332
0.00409512
0.00384851
0.00483316
0.00393509
0.000362613
4.23758e-06
0.00208424
0.205331
4.94465
25.2595
52.6178
53.3368
32.2508
13.5769
5.10919
2.45196
1.50881
1.1217
0.945292
0.867786
0.836403
0.822273
0.804451
0.764397
0.689592
0.575842
0.429035
0.268399
0.130643
0.0695282
0.152438
0.450707
1.02536
1.88705
2.906
4.08484
4.28832
0.00227462
0.00224944
0.00229485
0.00236758
0.00243472
0.00239126
0.00232558
0.0026455
0.00262142
0.00069716
1.82426e-06
7.20363e-05
3.62977e-05
0.743303
7.95655
28.6576
48.2435
44.0701
26.0868
11.4713
4.71037
2.50277
1.7517
1.43744
1.28784
1.21413
1.16685
1.11011
1.02011
0.882256
0.693754
0.468794
0.24263
0.0684259
0.0120956
0.141074
0.505861
1.1102
1.8472
2.58459
2.89651
0.00127075
0.00126308
0.00128756
0.00133707
0.00139021
0.00143317
0.00142454
0.0013954
0.00148666
0.00161236
0.000888414
4.41806e-07
1.17031e-07
0.00118442
0.0370601
1.38216
9.57803
27.9315
42.1451
37.3882
22.7393
11.1555
5.44672
3.19913
2.3439
2.00086
1.82866
1.69779
1.55857
1.38182
1.15322
0.875129
0.572633
0.291779
0.0927833
0.0387217
0.1726
0.494505
0.920752
1.30577
1.51264
0.000710727
0.000709447
0.000721743
0.000750102
0.000786309
0.000821529
0.000850049
0.000857455
0.000845024
0.000864469
0.00096587
0.000728159
3.38004e-05
1.94972e-07
1.13355e-05
0.00290472
0.0833068
1.67769
9.29609
24.4994
35.9661
33.2373
23.1289
14.0473
8.19309
5.08944
3.61299
2.93115
2.58193
2.31966
2.03547
1.70083
1.33147
0.968132
0.663061
0.466468
0.414027
0.504382
0.677821
0.811256
0.808806
0.000396854
0.000397704
0.000403627
0.000418933
0.000440852
0.000464824
0.000487757
0.000507572
0.000518651
0.000516609
0.000517378
0.000571501
0.000537015
0.000172033
1.72344e-08
2.87767e-09
8.55906e-05
0.00442749
0.100313
1.50283
7.59226
19.1734
29.1737
31.0563
26.277
19.6839
13.8968
9.60403
6.76502
5.02202
3.97691
3.31914
2.84675
2.45817
2.13242
1.88334
1.73205
1.67637
1.69267
1.69814
1.46579
0.000220618
0.000221939
0.000224764
0.000232862
0.000245374
0.000260135
0.000275633
0.000290733
0.000304428
0.000314703
0.000317322
0.000318368
0.000338893
0.000346333
0.000267383
1.83805e-05
1.41093e-07
1.65891e-11
0.000266777
0.00376839
0.0714988
0.926117
4.26251
11.1304
19.5606
25.6383
27.2192
25.2119
21.6083
17.6741
13.9677
10.7938
8.32117
6.56645
5.43802
4.79889
4.52044
4.4561
4.48794
4.54864
4.17607
0.000121831
0.000122963
0.000124308
0.000128532
0.00013546
0.000144014
0.000153484
0.000163454
0.000173395
0.000182696
0.000190607
0.000195025
0.000197948
0.000201885
0.000220791
0.00019634
0.00011762
4.06512e-07
1.40727e-08
6.70381e-13
0.00032781
0.00185982
0.0143977
0.228778
1.24027
3.90048
8.51867
14.2764
19.5786
23.1358
24.5908
24.3009
22.8351
20.6847
18.2754
15.9439
13.9363
12.3347
11.192
10.5942
9.77361
6.70662e-05
6.78512e-05
6.85146e-05
7.07287e-05
7.45099e-05
7.92965e-05
8.47762e-05
9.07762e-05
9.71024e-05
0.000103468
0.000109581
0.000115101
0.000119536
0.000122173
0.000125614
0.000131398
0.000140312
0.000110589
4.01374e-05
1.91549e-08
3.57809e-09
2.82641e-13
2.60986e-05
0.00115999
0.000502092
0.0134342
0.118567
0.560799
1.70149
3.85656
7.07327
11.041
15.2168
19.0502
22.1472
24.2876
25.4912
25.8482
25.6131
25.2936
24.0289
3.76361e-05
3.81572e-05
3.85325e-05
3.97703e-05
4.19069e-05
4.46451e-05
4.7833e-05
5.14059e-05
5.52706e-05
5.9311e-05
6.3384e-05
6.73569e-05
7.11027e-05
7.44334e-05
7.69505e-05
7.91732e-05
8.1937e-05
8.82483e-05
8.9498e-05
6.7138e-05
1.89982e-05
8.61762e-09
2.48238e-09
5.02028e-12
1.45974e-07
5.04842e-05
0.000691608
0.000848546
0.000266099
0.00992194
0.0741658
0.296891
0.835502
1.87273
3.55003
5.90926
8.88152
12.3157
15.9591
19.7511
22.7225
2.19193e-05
2.22699e-05
2.2504e-05
2.32377e-05
2.44997e-05
2.61268e-05
2.80452e-05
3.02342e-05
3.26538e-05
3.52412e-05
3.79269e-05
4.06372e-05
4.32991e-05
4.58597e-05
4.82155e-05
5.03026e-05
5.18861e-05
5.37874e-05
5.64253e-05
6.00996e-05
5.90709e-05
4.2047e-05
1.83516e-05
1.61562e-07
5.41335e-09
2.01324e-10
8.84868e-13
0
2.12952e-08
2.45177e-05
0.000493679
0.000550841
8.42811e-09
0.000489642
0.00700485
0.0438085
0.156733
0.418942
0.917749
1.75881
2.97863
1.32397e-05
1.34706e-05
1.36214e-05
1.40721e-05
1.48411e-05
1.58352e-05
1.70164e-05
1.83772e-05
1.99023e-05
2.15602e-05
2.33184e-05
2.51432e-05
2.69934e-05
2.88262e-05
3.06016e-05
3.22891e-05
3.38302e-05
3.51798e-05
3.63681e-05
3.78893e-05
4.00216e-05
4.18922e-05
4.15944e-05
3.29072e-05
1.84207e-05
6.76375e-06
3.77092e-08
2.21998e-09
1.35015e-10
3.23273e-11
4.10477e-14
0
9.42645e-13
1.07146e-07
1.81902e-05
0.000331849
0.000463094
0.000161425
6.79126e-05
6.59922e-05
0.00380825
8.21569e-06
8.36634e-06
8.46607e-06
8.75052e-06
9.2308e-06
9.85251e-06
1.05952e-05
1.14561e-05
1.24277e-05
1.34946e-05
1.46399e-05
1.58481e-05
1.70994e-05
1.83701e-05
1.96359e-05
2.08728e-05
2.20625e-05
2.31823e-05
2.42016e-05
2.51192e-05
2.59952e-05
2.71499e-05
2.84625e-05
3.01878e-05
3.01872e-05
2.85509e-05
2.25999e-05
1.39923e-05
6.34051e-06
1.77019e-06
2.7372e-09
6.08879e-10
7.75634e-11
3.05236e-11
7.48528e-12
7.18332e-14
0
0
0
1.32766e-09
6.22648e-06
5.20918e-06
5.30766e-06
5.37557e-06
5.55934e-06
5.86554e-06
6.26196e-06
6.73728e-06
7.29032e-06
7.91716e-06
8.60973e-06
9.35854e-06
1.01557e-05
1.09913e-05
1.1852e-05
1.27246e-05
1.3595e-05
1.44496e-05
1.52762e-05
1.6064e-05
1.68061e-05
1.74655e-05
1.8069e-05
1.86504e-05
1.93779e-05
2.02611e-05
2.11381e-05
2.21494e-05
2.22819e-05
2.11691e-05
1.92505e-05
1.53411e-05
1.03667e-05
5.8125e-06
2.56803e-06
7.27034e-07
8.28262e-09
5.15605e-10
4.4301e-11
2.40743e-11
1.1276e-11
3.9521e-12
3.35994e-06
3.42453e-06
3.47169e-06
3.59248e-06
3.79079e-06
4.04742e-06
4.35588e-06
4.71553e-06
5.12408e-06
5.57695e-06
6.06882e-06
6.59535e-06
7.15115e-06
7.72857e-06
8.31964e-06
8.91624e-06
9.50995e-06
1.00923e-05
1.06554e-05
1.11963e-05
1.16959e-05
1.21461e-05
1.2554e-05
1.29121e-05
1.32632e-05
1.36241e-05
1.4069e-05
1.45974e-05
1.51377e-05
1.55779e-05
1.60536e-05
1.60814e-05
1.55932e-05
1.45859e-05
1.32268e-05
1.11234e-05
8.55632e-06
5.90539e-06
3.63194e-06
1.91597e-06
7.76689e-07
2.19759e-06
2.24019e-06
2.27347e-06
2.35403e-06
2.4842e-06
2.65247e-06
2.85502e-06
3.09138e-06
3.36009e-06
3.6584e-06
3.98318e-06
4.33173e-06
4.70093e-06
5.08624e-06
5.48271e-06
5.8853e-06
6.28876e-06
6.6876e-06
7.07629e-06
7.45216e-06
7.80223e-06
8.12162e-06
8.41546e-06
8.67273e-06
8.89498e-06
9.08828e-06
9.25816e-06
9.41849e-06
9.58679e-06
9.76038e-06
9.96272e-06
1.01873e-05
1.04068e-05
1.05986e-05
1.07317e-05
1.08624e-05
1.08635e-05
1.0682e-05
1.03145e-05
9.74133e-06
9.11568e-06
1.45381e-06
1.48207e-06
1.50585e-06
1.56021e-06
1.64659e-06
1.75809e-06
1.89238e-06
2.04906e-06
2.22711e-06
2.42482e-06
2.64022e-06
2.87156e-06
3.11689e-06
3.37341e-06
3.63791e-06
3.90714e-06
4.17767e-06
4.44584e-06
4.70787e-06
4.96178e-06
5.19823e-06
5.41391e-06
5.61216e-06
5.7862e-06
5.93597e-06
6.06345e-06
6.16903e-06
6.25304e-06
6.31746e-06
6.36518e-06
6.39818e-06
6.42173e-06
6.43961e-06
6.4561e-06
6.46998e-06
6.48536e-06
6.50086e-06
6.51514e-06
6.52628e-06
6.51564e-06
6.51256e-06
9.70825e-07
9.89695e-07
1.00686e-06
1.04393e-06
1.10181e-06
1.17638e-06
1.26617e-06
1.37081e-06
1.48958e-06
1.62134e-06
1.76479e-06
1.91878e-06
2.08199e-06
2.25256e-06
2.4284e-06
2.60736e-06
2.78712e-06
2.96522e-06
3.13903e-06
3.30714e-06
3.46301e-06
3.60453e-06
3.73407e-06
3.8467e-06
3.9423e-06
4.02215e-06
4.08689e-06
4.13676e-06
4.17214e-06
4.19373e-06
4.20211e-06
4.1981e-06
4.18245e-06
4.15679e-06
4.12276e-06
4.08087e-06
4.03221e-06
3.97902e-06
3.92457e-06
3.86579e-06
3.80952e-06
6.53328e-07
6.66024e-07
6.78525e-07
7.04047e-07
7.4318e-07
7.93459e-07
8.53942e-07
9.24294e-07
1.00397e-06
1.0922e-06
1.18811e-06
1.29088e-06
1.39959e-06
1.51298e-06
1.62965e-06
1.74814e-06
1.86686e-06
1.98413e-06
2.09813e-06
2.20789e-06
2.30887e-06
2.39982e-06
2.48261e-06
2.55373e-06
2.613e-06
2.66124e-06
2.69894e-06
2.72639e-06
2.744e-06
2.75235e-06
2.75204e-06
2.74372e-06
2.7278e-06
2.70512e-06
2.67651e-06
2.64226e-06
2.60277e-06
2.55887e-06
2.51253e-06
2.46132e-06
2.41277e-06
4.42468e-07
4.51089e-07
4.60273e-07
4.78007e-07
5.04692e-07
5.38862e-07
5.79887e-07
6.27473e-07
6.81213e-07
7.40565e-07
8.04908e-07
8.73674e-07
9.46202e-07
1.0216e-06
1.09892e-06
1.17715e-06
1.25521e-06
1.33194e-06
1.4061e-06
1.477e-06
1.54156e-06
1.5991e-06
1.65105e-06
1.69505e-06
1.73092e-06
1.75926e-06
1.78042e-06
1.79464e-06
1.80224e-06
1.80368e-06
1.79941e-06
1.78996e-06
1.7757e-06
1.75726e-06
1.73524e-06
1.70989e-06
1.6815e-06
1.65061e-06
1.61852e-06
1.58347e-06
1.55051e-06
3.01222e-07
3.07139e-07
3.13947e-07
3.2639e-07
3.44744e-07
3.68143e-07
3.96155e-07
4.28529e-07
4.64957e-07
5.05052e-07
5.48371e-07
5.945e-07
6.42965e-07
6.93139e-07
7.44349e-07
7.95911e-07
8.47083e-07
8.97065e-07
9.4501e-07
9.90446e-07
1.0313e-06
1.06723e-06
1.09937e-06
1.12612e-06
1.14735e-06
1.16351e-06
1.17488e-06
1.18164e-06
1.18405e-06
1.18243e-06
1.17713e-06
1.16851e-06
1.15686e-06
1.1426e-06
1.12614e-06
1.10767e-06
1.08741e-06
1.06568e-06
1.04337e-06
1.01941e-06
9.96473e-07
2.05923e-07
2.10043e-07
2.15137e-07
2.23955e-07
2.36691e-07
2.52837e-07
2.72089e-07
2.9424e-07
3.19056e-07
3.46257e-07
3.75524e-07
4.06551e-07
4.39e-07
4.72427e-07
5.06349e-07
5.40299e-07
5.73774e-07
6.06226e-07
6.37081e-07
6.66022e-07
6.91666e-07
7.13869e-07
7.33513e-07
7.49522e-07
7.61828e-07
7.70756e-07
7.76524e-07
7.79277e-07
7.79205e-07
7.76541e-07
7.71532e-07
7.64438e-07
7.55453e-07
7.44863e-07
7.32947e-07
7.1984e-07
7.05677e-07
6.90657e-07
6.75382e-07
6.59197e-07
6.43446e-07
1.41237e-07
1.44156e-07
1.48006e-07
1.54321e-07
1.63239e-07
1.74467e-07
1.87787e-07
2.03032e-07
2.20024e-07
2.38558e-07
2.58405e-07
2.79336e-07
3.01109e-07
3.23411e-07
3.45896e-07
3.68242e-07
3.90112e-07
4.11134e-07
4.30922e-07
4.49268e-07
4.65256e-07
4.78848e-07
4.90721e-07
5.00156e-07
5.07119e-07
5.11852e-07
5.14521e-07
5.15237e-07
5.14138e-07
5.1139e-07
5.07165e-07
5.01644e-07
4.94959e-07
4.873e-07
4.78853e-07
4.69707e-07
4.59951e-07
4.49703e-07
4.3937e-07
4.28538e-07
4.17851e-07
9.71115e-08
9.92253e-08
1.02161e-07
1.06732e-07
1.13037e-07
1.20908e-07
1.30189e-07
1.40745e-07
1.52444e-07
1.65134e-07
1.78648e-07
1.92816e-07
2.07465e-07
2.22374e-07
2.37298e-07
2.52013e-07
2.66295e-07
2.79895e-07
2.92557e-07
3.04146e-07
3.14063e-07
3.22319e-07
3.29425e-07
3.34905e-07
3.38745e-07
3.41123e-07
3.42163e-07
3.41949e-07
3.40578e-07
3.38167e-07
3.34833e-07
3.30698e-07
3.25852e-07
3.20418e-07
3.14518e-07
3.08212e-07
3.01555e-07
2.94616e-07
2.87671e-07
2.80452e-07
2.73227e-07
6.68916e-08
6.84569e-08
7.07171e-08
7.40611e-08
7.85621e-08
8.41273e-08
9.0642e-08
9.80013e-08
1.06104e-07
1.1484e-07
1.24085e-07
1.33714e-07
1.43602e-07
1.53596e-07
1.63521e-07
1.73223e-07
1.82553e-07
1.91347e-07
1.99436e-07
2.06735e-07
2.12853e-07
2.17824e-07
2.22029e-07
2.2515e-07
2.27187e-07
2.28269e-07
2.28489e-07
2.27909e-07
2.26596e-07
2.24632e-07
2.22096e-07
2.1907e-07
2.15614e-07
2.11806e-07
2.07727e-07
2.03414e-07
1.98904e-07
1.94232e-07
1.89592e-07
1.84794e-07
1.79942e-07
4.61289e-08
4.73156e-08
4.90689e-08
5.15419e-08
5.47881e-08
5.87583e-08
6.33682e-08
6.85365e-08
7.41865e-08
8.02367e-08
8.65964e-08
9.31734e-08
9.98757e-08
1.06598e-07
1.1322e-07
1.19631e-07
1.25737e-07
1.3143e-07
1.36601e-07
1.41198e-07
1.44968e-07
1.47949e-07
1.50423e-07
1.52179e-07
1.53219e-07
1.53639e-07
1.53505e-07
1.52862e-07
1.51755e-07
1.50241e-07
1.48373e-07
1.46204e-07
1.43775e-07
1.41135e-07
1.38337e-07
1.35405e-07
1.32362e-07
1.29224e-07
1.26129e-07
1.22942e-07
1.19672e-07
3.18294e-08
3.27487e-08
3.41182e-08
3.59657e-08
3.83316e-08
4.11909e-08
4.44816e-08
4.81408e-08
5.21108e-08
5.63308e-08
6.07339e-08
6.52523e-08
6.98192e-08
7.43616e-08
7.87966e-08
8.30474e-08
8.70512e-08
9.07402e-08
9.40444e-08
9.6931e-08
9.92399e-08
1.01005e-07
1.02433e-07
1.03384e-07
1.03864e-07
1.03941e-07
1.03664e-07
1.03065e-07
1.02175e-07
1.01033e-07
9.96738e-08
9.81336e-08
9.64379e-08
9.46187e-08
9.27099e-08
9.07255e-08
8.86818e-08
8.6583e-08
8.45302e-08
8.24106e-08
8.0241e-08
2.19642e-08
2.26898e-08
2.37651e-08
2.5159e-08
2.69015e-08
2.89816e-08
3.13529e-08
3.39673e-08
3.67807e-08
3.97479e-08
4.28194e-08
4.59456e-08
4.9078e-08
5.21663e-08
5.51547e-08
5.79898e-08
6.06312e-08
6.30372e-08
6.51641e-08
6.69929e-08
6.84228e-08
6.94802e-08
7.03165e-08
7.0836e-08
7.1045e-08
7.09923e-08
7.07122e-08
7.0226e-08
6.95559e-08
6.87268e-08
6.7763e-08
6.66874e-08
6.55169e-08
6.42719e-08
6.29747e-08
6.16342e-08
6.02608e-08
5.88533e-08
5.74862e-08
5.60748e-08
5.45994e-08
1.51511e-08
1.57324e-08
1.65802e-08
1.76414e-08
1.89387e-08
2.04676e-08
2.21936e-08
2.40795e-08
2.60919e-08
2.81968e-08
3.03576e-08
3.25379e-08
3.47022e-08
3.68156e-08
3.884e-08
4.07386e-08
4.24847e-08
4.40527e-08
4.54157e-08
4.65625e-08
4.74303e-08
4.8041e-08
4.8505e-08
4.87579e-08
4.88065e-08
4.86861e-08
4.84214e-08
4.80277e-08
4.75202e-08
4.69157e-08
4.62302e-08
4.54788e-08
4.46723e-08
4.38234e-08
4.29464e-08
4.2046e-08
4.113e-08
4.01931e-08
3.92939e-08
3.83483e-08
3.74e-08
1.04446e-08
1.09149e-08
1.15854e-08
1.24006e-08
1.33767e-08
1.4512e-08
1.57808e-08
1.71546e-08
1.86079e-08
2.01151e-08
2.16492e-08
2.31838e-08
2.46937e-08
2.61552e-08
2.75435e-08
2.88336e-08
3.00092e-08
3.10552e-08
3.19561e-08
3.27056e-08
3.32649e-08
3.36475e-08
3.39337e-08
3.40783e-08
3.40863e-08
3.39825e-08
3.37841e-08
3.35013e-08
3.31441e-08
3.27239e-08
3.22516e-08
3.17371e-08
3.11877e-08
3.06114e-08
3.00182e-08
2.94111e-08
2.87952e-08
2.81648e-08
2.75631e-08
2.69334e-08
2.62597e-08
7.19438e-09
7.5769e-09
8.10838e-09
8.73978e-09
9.48185e-09
1.03334e-08
1.12748e-08
1.22846e-08
1.33435e-08
1.44327e-08
1.55319e-08
1.66215e-08
1.76828e-08
1.86984e-08
1.96511e-08
2.0524e-08
2.13058e-08
2.19878e-08
2.25615e-08
2.30239e-08
2.33524e-08
2.35593e-08
2.37027e-08
2.37525e-08
2.37133e-08
2.36034e-08
2.34352e-08
2.32156e-08
2.29518e-08
2.26511e-08
2.23205e-08
2.19663e-08
2.15931e-08
2.12057e-08
2.08101e-08
2.04075e-08
2.00024e-08
1.95872e-08
1.91999e-08
1.87682e-08
1.83825e-08
4.95118e-09
5.26308e-09
5.68484e-09
6.17713e-09
6.74606e-09
7.39023e-09
8.09465e-09
8.84284e-09
9.62064e-09
1.04143e-08
1.12097e-08
1.19927e-08
1.27507e-08
1.3473e-08
1.41496e-08
1.47695e-08
1.53256e-08
1.58125e-08
1.62247e-08
1.65604e-08
1.68051e-08
1.69632e-08
1.70775e-08
1.71258e-08
1.71115e-08
1.70473e-08
1.69417e-08
1.67997e-08
1.6626e-08
1.6426e-08
1.62046e-08
1.59665e-08
1.57148e-08
1.54529e-08
1.51855e-08
1.49136e-08
1.46397e-08
1.43589e-08
1.40954e-08
1.38178e-08
1.34906e-08
3.40407e-09
3.65958e-09
3.99561e-09
4.38131e-09
4.81905e-09
5.30782e-09
5.83718e-09
6.39508e-09
6.97067e-09
7.55341e-09
8.13279e-09
8.69849e-09
9.24002e-09
9.74644e-09
1.02085e-08
1.06195e-08
1.09764e-08
1.12785e-08
1.15248e-08
1.17151e-08
1.18425e-08
1.19142e-08
1.19591e-08
1.19627e-08
1.19279e-08
1.18638e-08
1.17762e-08
1.16685e-08
1.15436e-08
1.14048e-08
1.1255e-08
1.10967e-08
1.09319e-08
1.07622e-08
1.05902e-08
1.04156e-08
1.02418e-08
1.00612e-08
9.90174e-09
9.69369e-09
9.58004e-09
2.34108e-09
2.55149e-09
2.82109e-09
3.12521e-09
3.46235e-09
3.83174e-09
4.22748e-09
4.64269e-09
5.07041e-09
5.5026e-09
5.93065e-09
6.3476e-09
6.74947e-09
7.13503e-09
7.50152e-09
7.8407e-09
8.14453e-09
8.40885e-09
8.63142e-09
8.81262e-09
8.94724e-09
9.03495e-09
9.09971e-09
9.13066e-09
9.13021e-09
9.10523e-09
9.06023e-09
8.99781e-09
8.92052e-09
8.83116e-09
8.73229e-09
8.62626e-09
8.51462e-09
8.39896e-09
8.28172e-09
8.16354e-09
8.04518e-09
7.92434e-09
7.81086e-09
7.70362e-09
7.50806e-09
1.61797e-09
1.78944e-09
2.00417e-09
2.24345e-09
2.50343e-09
2.78261e-09
3.07696e-09
3.38265e-09
3.69686e-09
4.0161e-09
4.33414e-09
4.64121e-09
4.92519e-09
5.17472e-09
5.38585e-09
5.56528e-09
5.72085e-09
5.85441e-09
5.96531e-09
6.05159e-09
6.11108e-09
6.14789e-09
6.17402e-09
6.18221e-09
6.17361e-09
6.15249e-09
6.12158e-09
6.08219e-09
6.0355e-09
5.98287e-09
5.92549e-09
5.86428e-09
5.80005e-09
5.73334e-09
5.66512e-09
5.59475e-09
5.52514e-09
5.44891e-09
5.39026e-09
5.27309e-09
5.30874e-09
1.12764e-09
1.2642e-09
1.42934e-09
1.61046e-09
1.80551e-09
2.01506e-09
2.23641e-09
2.46497e-09
2.69633e-09
2.92798e-09
3.16067e-09
3.39849e-09
3.6464e-09
3.90675e-09
4.1721e-09
4.41991e-09
4.63275e-09
4.8108e-09
4.95766e-09
5.07765e-09
5.16924e-09
5.23047e-09
5.27661e-09
5.30282e-09
5.31132e-09
5.30615e-09
5.28999e-09
5.26457e-09
5.23158e-09
5.19279e-09
5.14981e-09
5.10412e-09
5.05667e-09
5.00843e-09
4.96088e-09
4.91488e-09
4.86963e-09
4.82683e-09
4.78162e-09
4.77484e-09
4.59822e-09
7.85882e-10
8.97159e-10
1.02333e-09
1.15419e-09
1.28999e-09
1.43554e-09
1.59378e-09
1.76486e-09
1.94531e-09
2.1268e-09
2.29665e-09
2.44105e-09
2.55071e-09
2.62431e-09
2.67451e-09
2.73003e-09
2.80397e-09
2.88457e-09
2.96277e-09
3.03263e-09
3.09268e-09
3.14481e-09
3.19116e-09
3.22821e-09
3.25609e-09
3.27658e-09
3.29081e-09
3.29931e-09
3.30254e-09
3.30107e-09
3.2954e-09
3.28584e-09
3.27284e-09
3.25646e-09
3.23712e-09
3.21407e-09
3.19018e-09
3.15764e-09
3.14173e-09
3.04942e-09
3.185e-09
5.45761e-10
6.47338e-10
7.56786e-10
8.60979e-10
9.57131e-10
1.04943e-09
1.14292e-09
1.24324e-09
1.35712e-09
1.49222e-09
1.65619e-09
1.85485e-09
2.08882e-09
2.35242e-09
2.62501e-09
2.85593e-09
3.0226e-09
3.15168e-09
3.25486e-09
3.33764e-09
3.39808e-09
3.43708e-09
3.46372e-09
3.47667e-09
3.4783e-09
3.47145e-09
3.45812e-09
3.43987e-09
3.41819e-09
3.39457e-09
3.37034e-09
3.34675e-09
3.32457e-09
3.30468e-09
3.28817e-09
3.27649e-09
3.26731e-09
3.26721e-09
3.25533e-09
3.32604e-09
3.10261e-09
3.99009e-10
4.84703e-10
5.77063e-10
6.69228e-10
7.56937e-10
8.37905e-10
9.0874e-10
9.66189e-10
1.00897e-09
1.03822e-09
1.05697e-09
1.06918e-09
1.07911e-09
1.08764e-09
1.09877e-09
1.13845e-09
1.20946e-09
1.2907e-09
1.3749e-09
1.45686e-09
1.53496e-09
1.60881e-09
1.67887e-09
1.74401e-09
1.80338e-09
1.85711e-09
1.90532e-09
1.94789e-09
1.98465e-09
2.01543e-09
2.0401e-09
2.05843e-09
2.07037e-09
2.07549e-09
2.07388e-09
2.06463e-09
2.05027e-09
2.02256e-09
2.00768e-09
1.90241e-09
2.0636e-09
4.70099e-10
5.93877e-10
6.66154e-10
6.80331e-10
6.61384e-10
6.47489e-10
6.71487e-10
7.51715e-10
8.90459e-10
1.07694e-09
1.29228e-09
1.5152e-09
1.72627e-09
1.91448e-09
2.06908e-09
2.14862e-09
2.15639e-09
2.13091e-09
2.09097e-09
2.0441e-09
1.98778e-09
1.93759e-09
1.88342e-09
1.82878e-09
1.77546e-09
1.72391e-09
1.67425e-09
1.6267e-09
1.58136e-09
1.5382e-09
1.49703e-09
1.45771e-09
1.41968e-09
1.38257e-09
1.34633e-09
1.31146e-09
1.27499e-09
1.24175e-09
1.19522e-09
1.20146e-09
1.01868e-09
545.264
367.475
213.42
119.146
60.6613
27.2821
10.192
2.702
0.345379
0.0303343
0.0121751
0.00193175
3.56014e-08
1.2317e-05
6.47892e-05
4.35523e-05
3.08601e-05
2.41475e-05
1.84715e-05
1.39824e-05
1.05411e-05
7.91758e-06
5.90299e-06
4.37602e-06
3.22263e-06
2.35981e-06
1.71295e-06
1.2368e-06
8.85439e-07
6.2911e-07
4.43471e-07
3.10268e-07
2.15603e-07
1.48772e-07
1.01846e-07
6.92184e-08
4.65992e-08
3.10658e-08
2.04285e-08
1.32673e-08
8.45809e-09
5.26968e-09
3.20061e-09
1.88396e-09
1.06399e-09
5.79122e-10
3.0551e-10
1.65901e-10
1.10548e-10
1.02246e-10
1.17875e-10
1.44696e-10
1.73389e-10
1.99437e-10
2.19967e-10
2.35407e-10
2.43694e-10
2.47672e-10
2.45861e-10
2.41619e-10
2.33077e-10
2.24304e-10
2.12999e-10
2.01066e-10
1.89746e-10
1.76881e-10
1.66887e-10
1.54044e-10
1.46895e-10
1.30906e-10
1.34482e-10
1.07995e-10
1.43924e-10
1.11096e-10
294.805
437.448
311.449
191.723
109.128
56.769
26.1391
9.89975
2.63205
0.333788
0.0298644
0.00863286
0.00134386
3.65527e-08
7.70995e-06
5.15804e-05
3.46311e-05
2.35642e-05
1.84636e-05
1.41836e-05
1.06412e-05
7.96987e-06
5.94125e-06
4.40344e-06
3.24107e-06
2.37332e-06
1.72283e-06
1.24348e-06
8.90244e-07
6.32335e-07
4.45597e-07
3.11525e-07
2.16293e-07
1.49131e-07
1.01999e-07
6.92643e-08
4.65955e-08
3.10445e-08
2.0398e-08
1.32424e-08
8.4504e-09
5.26345e-09
3.20263e-09
1.89193e-09
1.07413e-09
5.9103e-10
3.15985e-10
1.75118e-10
1.17114e-10
1.06196e-10
1.19002e-10
1.43195e-10
1.69555e-10
1.9368e-10
2.12532e-10
2.26934e-10
2.34399e-10
2.37948e-10
2.35938e-10
2.31861e-10
2.23538e-10
2.15198e-10
2.0459e-10
1.9307e-10
1.82519e-10
1.70217e-10
1.60913e-10
1.48625e-10
1.42297e-10
1.26281e-10
1.31462e-10
1.03636e-10
1.42373e-10
1.08808e-10
100.052
304.376
320.57
240.671
157.477
93.8562
50.7146
23.9923
9.23132
2.46995
0.319819
0.0290075
0.00628546
0.00113346
2.07031e-08
2.06255e-06
4.15282e-05
3.03908e-05
1.84752e-05
1.39642e-05
1.07787e-05
8.0646e-06
5.98398e-06
4.43369e-06
3.26455e-06
2.38886e-06
1.735e-06
1.25141e-06
8.95953e-07
6.36283e-07
4.48238e-07
3.13249e-07
2.17271e-07
1.49674e-07
1.02314e-07
6.94095e-08
4.66726e-08
3.10796e-08
2.04227e-08
1.32495e-08
8.46914e-09
5.28267e-09
3.22404e-09
1.91508e-09
1.09766e-09
6.12622e-10
3.34243e-10
1.90849e-10
1.28487e-10
1.13413e-10
1.22424e-10
1.43162e-10
1.66521e-10
1.88277e-10
2.05579e-10
2.17898e-10
2.2491e-10
2.27631e-10
2.25805e-10
2.21512e-10
2.14002e-10
2.05428e-10
1.95801e-10
1.84999e-10
1.74956e-10
1.63639e-10
1.54624e-10
1.43118e-10
1.37621e-10
1.2174e-10
1.28272e-10
9.9475e-11
1.40484e-10
1.066e-10
38.0309
175.67
261.47
247.308
190.491
130.4
81.1518
45.4533
22.1209
8.71375
2.39654
0.33308
0.0293162
0.00522912
0.0012254
4.188e-09
2.37582e-08
2.21165e-05
2.51264e-05
1.49006e-05
1.05823e-05
8.16648e-06
6.11489e-06
4.49403e-06
3.29795e-06
2.41468e-06
1.75546e-06
1.2653e-06
9.05378e-07
6.42681e-07
4.52535e-07
3.16044e-07
2.18995e-07
1.50706e-07
1.02936e-07
6.97676e-08
4.68877e-08
3.12085e-08
2.05115e-08
1.33083e-08
8.51717e-09
5.32443e-09
3.26184e-09
1.94875e-09
1.1285e-09
6.38835e-10
3.55631e-10
2.08204e-10
1.40953e-10
1.21047e-10
1.26081e-10
1.43152e-10
1.63484e-10
1.8281e-10
1.98411e-10
2.09168e-10
2.15564e-10
2.17691e-10
2.15973e-10
2.11633e-10
2.04764e-10
1.96332e-10
1.87483e-10
1.77417e-10
1.67922e-10
1.57458e-10
1.48899e-10
1.38026e-10
1.33351e-10
1.17569e-10
1.25408e-10
9.56015e-11
1.38871e-10
1.04511e-10
18.2194
95.6173
183.081
215.509
196.935
155.436
110.603
71.5302
41.4903
20.8654
8.52005
2.47242
0.387321
0.0334573
0.00525153
0.00158896
3.4143e-11
7.41544e-08
1.13743e-05
2.05158e-05
1.21831e-05
7.8469e-06
6.02338e-06
4.60327e-06
3.37969e-06
2.45155e-06
1.77808e-06
1.28318e-06
9.18549e-07
6.51488e-07
4.58267e-07
3.19742e-07
2.21359e-07
1.52169e-07
1.03821e-07
7.0304e-08
4.72194e-08
3.1418e-08
2.06541e-08
1.34108e-08
8.59283e-09
5.38559e-09
3.31335e-09
1.99174e-09
1.16533e-09
6.6883e-10
3.79487e-10
2.26561e-10
1.53862e-10
1.28705e-10
1.29598e-10
1.42887e-10
1.60226e-10
1.77148e-10
1.90899e-10
2.0063e-10
2.06264e-10
2.08053e-10
2.06336e-10
2.02178e-10
1.95731e-10
1.87826e-10
1.79612e-10
1.70219e-10
1.61366e-10
1.51588e-10
1.43667e-10
1.33305e-10
1.29418e-10
1.13701e-10
1.22816e-10
9.19751e-11
1.37479e-10
1.0254e-10
10.6073
51.8539
116.412
164.696
177.089
160.961
130.401
96.093
64.453
38.7869
20.2973
8.71579
2.73997
0.50253
0.0466808
0.00642259
0.00203319
0
3.12336e-08
2.48319e-06
1.61437e-05
1.18914e-05
6.41217e-06
4.37811e-06
3.36832e-06
2.52314e-06
1.82424e-06
1.30487e-06
9.32083e-07
6.61835e-07
4.65595e-07
3.24426e-07
2.24237e-07
1.53939e-07
1.04916e-07
7.09841e-08
4.76482e-08
3.16933e-08
2.08424e-08
1.35468e-08
8.69318e-09
5.46454e-09
3.37768e-09
2.04425e-09
1.20871e-09
7.03699e-10
4.06938e-10
2.47196e-10
1.68253e-10
1.37572e-10
1.33864e-10
1.43223e-10
1.57451e-10
1.71939e-10
1.83862e-10
1.92485e-10
1.97357e-10
1.98826e-10
1.97101e-10
1.9315e-10
1.87103e-10
1.79758e-10
1.72134e-10
1.63357e-10
1.5515e-10
1.45999e-10
1.38741e-10
1.28843e-10
1.25682e-10
1.10033e-10
1.20335e-10
8.85506e-11
1.36101e-10
1.00672e-10
7.40662
28.6564
69.8946
113.726
141.1
146.488
134.352
111.806
85.2175
59.3124
37.1679
20.4041
9.34311
3.24895
0.716857
0.0817806
0.00849341
0.0027598
4.8255e-05
3.53131e-09
1.80883e-10
4.51294e-06
9.48991e-06
5.86248e-06
3.39485e-06
2.41103e-06
1.83421e-06
1.34828e-06
9.58675e-07
6.74287e-07
4.72972e-07
3.29843e-07
2.27988e-07
1.56257e-07
1.06277e-07
7.17994e-08
4.81655e-08
3.2035e-08
2.10798e-08
1.37164e-08
8.81708e-09
5.56067e-09
3.45473e-09
2.10628e-09
1.25898e-09
7.43865e-10
4.3838e-10
2.7078e-10
1.84891e-10
1.48315e-10
1.39555e-10
1.44783e-10
1.5572e-10
1.67679e-10
1.77782e-10
1.85086e-10
1.89188e-10
1.90261e-10
1.8852e-10
1.84708e-10
1.79067e-10
1.72181e-10
1.65108e-10
1.56911e-10
1.49288e-10
1.4074e-10
1.34087e-10
1.24629e-10
1.22126e-10
1.06559e-10
1.17918e-10
8.53196e-11
1.34683e-10
9.88789e-11
5.96681
16.2982
40.5909
72.6991
101.453
118.602
122.049
113.736
97.327
76.7654
55.5492
36.4133
21.1327
10.4323
4.07036
1.09627
0.167333
0.016266
0.000818742
0.000529144
7.22418e-08
9.77768e-09
2.85294e-07
4.80744e-06
5.16572e-06
3.00158e-06
1.80167e-06
1.28796e-06
9.66839e-07
7.00015e-07
4.88784e-07
3.36736e-07
2.31466e-07
1.58657e-07
1.0799e-07
7.28972e-08
4.88233e-08
3.2441e-08
2.13574e-08
1.3918e-08
8.96584e-09
5.67508e-09
3.54449e-09
2.17724e-09
1.3159e-09
7.89047e-10
4.73645e-10
2.97267e-10
2.03906e-10
1.60942e-10
1.46812e-10
1.47703e-10
1.55183e-10
1.64491e-10
1.72684e-10
1.78596e-10
1.81869e-10
1.82475e-10
1.80669e-10
1.76935e-10
1.71649e-10
1.65153e-10
1.58571e-10
1.50923e-10
1.43822e-10
1.35834e-10
1.29721e-10
1.20675e-10
1.18766e-10
1.03302e-10
1.15575e-10
8.22868e-11
1.33242e-10
9.71329e-11
5.05526
9.57656
22.9871
43.6945
66.8159
86.4361
98.6134
101.921
96.9147
85.4033
69.7982
52.6477
36.2564
22.3771
11.9982
5.28983
1.738
0.366365
0.043237
0.00340685
5.33281e-05
4.89417e-05
2.69273e-10
1.25257e-08
7.02692e-07
3.1953e-06
2.82404e-06
1.60024e-06
9.47949e-07
6.63034e-07
4.90152e-07
3.51027e-07
2.41257e-07
1.62789e-07
1.09611e-07
7.38475e-08
4.95535e-08
3.29739e-08
2.17163e-08
1.41568e-08
9.13371e-09
5.8045e-09
3.64668e-09
2.25762e-09
1.37971e-09
8.39144e-10
5.12647e-10
3.26656e-10
2.25298e-10
1.75452e-10
1.55648e-10
1.51972e-10
1.55835e-10
1.62357e-10
1.68514e-10
1.73004e-10
1.75367e-10
1.75449e-10
1.73506e-10
1.69807e-10
1.64797e-10
1.58655e-10
1.52501e-10
1.45356e-10
1.38733e-10
1.31252e-10
1.25627e-10
1.16968e-10
1.15588e-10
1.00253e-10
1.13296e-10
7.94475e-11
1.31776e-10
9.54092e-11
3.99483
5.64459
12.5122
24.6607
40.5479
57.1201
71.3445
80.9322
84.6719
82.4181
74.9161
63.5548
50.0914
36.3584
23.9592
14.0038
6.97724
2.76981