/*--------------------------------*- C++ -*----------------------------------*\
| =========                 |                                                 |
| \\      /  F ield         | OpenFOAM: The Open Source CFD Toolbox           |
|  \\    /   O peration     | Version:  2312                                  |
|   \\  /    A nd           | Website:  www.openfoam.com                      |
|    \\/     M anipulation  |                                                 |
\*---------------------------------------------------------------------------*/
FoamFile
{
    version     2.0;
    format      ascii;
    arch        "LSB;label=32;scalar=64";
    class       volVectorField;
    location    "850";
    object      U;
}
// * * * * * * * * * * * * * * * * * * * * * * * * * * * * * * * * * * * * * //

dimensions      [0 1 -1 0 0 0 0];

internalField   nonuniform List<vector> 
11040
(
(-0.581156 8.74849 -3.44994e-19)
(0.792916 5.8086 -2.08761e-18)
(-0.018982 -0.106044 -2.2826e-17)
(-1.37035 -1.164 -1.17079e-17)
(-1.40483 -0.700589 -4.30215e-18)
(-1.38329 -0.603999 -1.69235e-17)
(-1.36661 -0.513035 3.07346e-17)
(-1.32147 -0.427304 2.23406e-17)
(-1.28418 -0.35734 4.40259e-18)
(-1.25576 -0.301144 1.22594e-18)
(-1.23019 -0.255736 -2.09238e-17)
(-1.20539 -0.21426 3.04927e-18)
(-1.18632 -0.177883 8.52941e-18)
(-1.17052 -0.145613 7.16654e-18)
(-1.1587 -0.115214 -6.85135e-18)
(-1.15291 -0.0876425 1.18565e-17)
(-1.15199 -0.061251 5.53313e-18)
(-1.15847 -0.0359395 -1.41798e-17)
(-1.17321 -0.0111531 -4.28219e-19)
(-1.19629 0.0136563 2.31432e-18)
(-1.22797 0.0387011 -2.59922e-18)
(-1.26625 0.0621506 -8.97157e-18)
(-1.31348 0.0830298 9.13023e-18)
(-1.37234 0.103303 -9.33466e-18)
(-1.44154 0.12375 9.60949e-18)
(-1.51756 0.144284 1.71196e-17)
(-1.59488 0.164589 7.24559e-18)
(-1.66616 0.18382 6.7753e-18)
(-1.72436 0.200903 7.09323e-18)
(-1.76086 0.214444 9.40949e-18)
(-1.76525 0.222964 -1.66775e-17)
(-1.72748 0.225483 -1.27932e-17)
(-1.65147 0.221879 -3.91015e-17)
(-1.53131 0.209769 -2.28568e-17)
(-1.36289 0.186101 2.50382e-18)
(-1.14138 0.149109 -3.62842e-17)
(-0.855936 0.0984953 9.8546e-19)
(-0.507524 0.0327601 -2.70144e-17)
(-0.139404 -0.0394681 4.30337e-17)
(0.601855 -0.140261 3.53222e-17)
(0.0550399 -0.518262 -6.14456e-18)
(1.43971 7.91386 2.07772e-19)
(3.03041 8.44418 -2.38105e-19)
(2.66153 5.23859 7.11385e-18)
(0.756008 1.24814 1.15929e-18)
(-1.0278 -0.699309 -5.17702e-19)
(-1.249 -0.580361 5.93705e-18)
(-1.342 -0.514515 -9.31928e-19)
(-1.34983 -0.449117 -1.28381e-17)
(-1.34357 -0.387695 5.69628e-19)
(-1.34114 -0.332052 -4.20735e-18)
(-1.33686 -0.288448 6.38776e-18)
(-1.32888 -0.247334 -2.2609e-17)
(-1.32503 -0.209038 -1.78066e-18)
(-1.32259 -0.17553 -1.60973e-17)
(-1.32354 -0.142711 7.27698e-18)
(-1.33003 -0.112363 -2.95334e-18)
(-1.34217 -0.0828848 -4.78772e-18)
(-1.36149 -0.0539211 -4.85814e-18)
(-1.38787 -0.0250873 -6.3141e-19)
(-1.42242 0.00453863 3.77653e-19)
(-1.46539 0.03524 1.3444e-18)
(-1.51589 0.0644821 3.85153e-18)
(-1.57441 0.0903391 -5.92211e-18)
(-1.64 0.115341 -1.34716e-18)
(-1.70802 0.140183 -1.63063e-18)
(-1.77285 0.164144 3.34248e-18)
(-1.82937 0.186498 2.01973e-18)
(-1.87267 0.206419 -1.11547e-17)
(-1.89737 0.222894 -9.03751e-19)
(-1.89891 0.234724 6.61591e-18)
(-1.87461 0.241058 8.3827e-18)
(-1.82302 0.241632 1.70885e-17)
(-1.73371 0.234418 1.41204e-17)
(-1.60146 0.217254 6.92094e-18)
(-1.42202 0.188267 -3.20314e-18)
(-1.191 0.14629 1.28818e-17)
(-0.899792 0.0888635 -9.96007e-18)
(-0.548549 0.00862246 7.45203e-18)
(-0.178215 -0.0851394 -3.06226e-18)
(0.541602 -0.195377 -4.27451e-18)
(0.582688 -0.460848 5.80023e-18)
(1.8216 7.04733 -1.61964e-20)
(3.32579 8.1329 1.08692e-18)
(4.13008 7.88432 -2.01646e-18)
(3.42987 5.37427 -3.19726e-18)
(1.47037 2.00757 3.0841e-19)
(-0.444185 -0.19917 -4.11793e-18)
(-1.02598 -0.426425 -8.76531e-18)
(-1.2066 -0.417915 -8.07199e-18)
(-1.25933 -0.374466 5.85277e-18)
(-1.2934 -0.327233 2.66509e-19)
(-1.31786 -0.291132 3.56218e-18)
(-1.32969 -0.253757 1.16734e-17)
(-1.34199 -0.215473 -9.05541e-18)
(-1.3523 -0.182317 9.97098e-18)
(-1.36391 -0.148221 -6.20537e-18)
(-1.37922 -0.116423 -2.79265e-18)
(-1.39835 -0.085087 1.32962e-18)
(-1.4232 -0.0540191 1.8866e-18)
(-1.45394 -0.0231162 9.46901e-20)
(-1.49143 0.00872436 -9.04262e-20)
(-1.53579 0.0417111 -3.11883e-18)
(-1.58535 0.0734186 -2.62744e-18)
(-1.63942 0.101089 5.42336e-19)
(-1.6971 0.126877 -3.7062e-19)
(-1.75499 0.151411 3.18283e-18)
(-1.80923 0.174116 -7.01715e-18)
(-1.85623 0.194353 -5.05581e-18)
(-1.89209 0.211377 7.31151e-18)
(-1.91254 0.224371 1.77575e-18)
(-1.91324 0.232384 -1.10986e-18)
(-1.88964 0.234409 -7.29203e-18)
(-1.83644 0.22929 3.04847e-18)
(-1.74715 0.21545 -6.84546e-18)
(-1.61663 0.191202 -9.09762e-18)
(-1.44057 0.154835 2.00361e-18)
(-1.215 0.105346 5.12841e-18)
(-0.931826 0.04035 7.69281e-18)
(-0.589312 -0.0488099 -7.84759e-18)
(-0.228197 -0.159737 -1.59094e-18)
(0.433328 -0.275202 -2.0918e-18)
(0.622487 -0.623409 -3.43153e-18)
(2.22058 6.62276 -5.6513e-20)
(3.12447 7.32991 -2.06093e-19)
(4.17898 8.02916 1.07741e-18)
(4.71295 7.62558 2.00774e-18)
(4.01957 5.56391 -2.82126e-19)
(2.19669 2.65229 -2.58128e-18)
(0.200371 0.356669 1.75585e-18)
(-0.730766 -0.249948 4.25184e-18)
(-1.02726 -0.307269 -3.23275e-18)
(-1.1408 -0.284455 3.66727e-18)
(-1.21346 -0.266873 -8.59482e-18)
(-1.25564 -0.242499 1.1584e-18)
(-1.28959 -0.209024 1.24696e-18)
(-1.31594 -0.17968 -7.92083e-18)
(-1.3389 -0.14653 -3.85747e-18)
(-1.36274 -0.115016 2.43733e-18)
(-1.38786 -0.083309 4.62832e-18)
(-1.41706 -0.0513672 2.14933e-18)
(-1.45054 -0.0195692 -1.33616e-19)
(-1.48922 0.0133053 1.4292e-19)
(-1.53322 0.047147 8.14062e-19)
(-1.58082 0.0798031 2.44558e-18)
(-1.63123 0.108321 8.3123e-19)
(-1.68416 0.134411 1.4871e-18)
(-1.73744 0.158544 2.25242e-18)
(-1.78819 0.180276 1.00957e-17)
(-1.83325 0.198982 -7.36236e-19)
(-1.86887 0.213833 -1.29959e-18)
(-1.89074 0.223905 -4.46894e-18)
(-1.89413 0.228118 -3.88803e-18)
(-1.87392 0.225279 5.42348e-18)
(-1.82474 0.214085 -4.57451e-18)
(-1.74115 0.193116 1.20369e-17)
(-1.61801 0.160759 3.17854e-18)
(-1.45098 0.115318 2.5074e-18)
(-1.23631 0.055737 5.28315e-19)
(-0.966522 -0.0199485 -1.18698e-19)
(-0.638722 -0.120034 -6.21622e-19)
(-0.292243 -0.249273 1.68617e-18)
(0.291472 -0.365098 -2.42569e-18)
(0.545697 -0.722401 6.47427e-19)
(2.67719 6.13707 1.13757e-19)
(3.3596 6.69005 -1.10875e-19)
(4.06591 7.23928 -9.45442e-19)
(4.84562 7.75145 -1.52861e-18)
(5.22535 7.44374 1.52962e-18)
(4.6257 5.82744 -1.14227e-19)
(2.97735 3.31776 4.56379e-19)
(0.990766 1.03279 2.76263e-18)
(-0.338175 -0.0315277 -1.1323e-18)
(-0.787201 -0.173632 -1.97886e-18)
(-0.993915 -0.198483 -2.80024e-18)
(-1.10091 -0.201644 -1.882e-20)
(-1.17114 -0.183032 -9.53104e-20)
(-1.22425 -0.164246 5.00588e-18)
(-1.2644 -0.136129 3.00828e-18)
(-1.30046 -0.10734 1.18164e-19)
(-1.33342 -0.0770136 -2.00461e-18)
(-1.36775 -0.0454803 2.21782e-18)
(-1.40416 -0.0139556 -3.25562e-19)
(-1.44411 0.0189473 7.75762e-19)
(-1.4882 0.0527249 -1.58551e-18)
(-1.5351 0.085589 -1.67759e-19)
(-1.58419 0.114514 2.09915e-18)
(-1.63559 0.140808 -2.2523e-18)
(-1.68785 0.164689 -4.93842e-18)
(-1.73855 0.185647 -2.48819e-18)
(-1.78471 0.202935 5.15028e-19)
(-1.82264 0.215572 -3.97203e-18)
(-1.84804 0.222471 1.11832e-19)
(-1.85611 0.222402 3.69516e-18)
(-1.84176 0.214063 -2.8867e-18)
(-1.79982 0.196113 6.0181e-19)
(-1.72525 0.167182 -8.34335e-18)
(-1.61297 0.125697 -3.9643e-18)
(-1.4587 0.0699856 -2.28618e-18)
(-1.25894 -0.00103955 -2.16771e-18)
(-1.00712 -0.0888701 1.19252e-18)
(-0.700265 -0.201049 -5.40251e-20)
(-0.373447 -0.345873 8.81568e-19)
(0.126575 -0.467107 3.23428e-18)
(0.412328 -0.79303 -1.86537e-18)
(3.08072 5.69661 -1.4785e-19)
(3.59314 6.21372 2.18458e-19)
(4.11441 6.61202 2.04343e-19)
(4.69723 7.04921 5.47499e-19)
(5.3341 7.46387 -4.1291e-19)
(5.67731 7.30624 2.02121e-19)
(5.2331 6.10881 5.0031e-19)
(3.83055 4.01929 1.86867e-20)
(1.90822 1.81112 -1.00532e-19)
(0.264204 0.351121 4.15383e-18)
(-0.465532 -0.0257985 4.66181e-18)
(-0.796596 -0.104774 -2.13253e-18)
(-0.955914 -0.119795 -1.3553e-18)
(-1.06324 -0.124951 6.27416e-18)
(-1.1343 -0.111286 -5.28536e-18)
(-1.19188 -0.0902664 2.31496e-18)
(-1.23869 -0.0646411 2.17725e-19)
(-1.28191 -0.0353944 6.12724e-19)
(-1.32357 -0.00548393 7.2339e-19)
(-1.36626 0.0265477 -3.57703e-19)
(-1.41162 0.0595716 -7.57022e-19)
(-1.45912 0.0922365 5.49142e-19)
(-1.50853 0.121374 -9.25646e-19)
(-1.56022 0.14785 -6.52862e-19)
(-1.61329 0.171553 4.73998e-18)
(-1.66562 0.191807 -3.12009e-18)
(-1.7144 0.20767 -7.30958e-19)
(-1.75611 0.217954 4.92089e-18)
(-1.78655 0.221376 3.87042e-18)
(-1.80106 0.216559 -1.89934e-18)
(-1.79472 0.202087 -1.54459e-18)
(-1.76261 0.176579 -4.87259e-19)
(-1.6999 0.138696 3.8716e-18)
(-1.6017 0.0869136 4.04214e-18)
(-1.46392 0.0196309 1.14919e-18)
(-1.28333 -0.0641631 -1.54091e-18)
(-1.05459 -0.165404 -2.1927e-19)
(-0.775678 -0.290475 -1.05888e-18)
(-0.475333 -0.447006 -2.56437e-18)
(-0.0560001 -0.578021 -1.24781e-19)
(0.237089 -0.855714 1.97336e-18)
(3.46459 5.33843 -2.83249e-20)
(3.8344 5.77487 1.63985e-19)
(4.23142 6.16432 2.5881e-20)
(4.66465 6.46847 4.51344e-19)
(5.16183 6.80296 2.28202e-19)
(5.70769 7.15561 -7.77895e-19)
(6.0612 7.1518 2.27828e-19)
(5.80841 6.35428 -2.04897e-19)
(4.7064 4.70906 -1.50622e-18)
(2.94496 2.67287 3.89581e-20)
(1.14782 0.978584 -5.58599e-18)
(-0.0213261 0.174782 7.32299e-18)
(-0.510218 0.0133079 -5.89402e-18)
(-0.775235 -0.0374461 -6.58479e-19)
(-0.919352 -0.0548836 2.84308e-18)
(-1.02134 -0.0538443 -1.01513e-18)
(-1.09539 -0.0410755 3.96808e-18)
(-1.1559 -0.0182133 -1.63408e-18)
(-1.20833 0.00751788 3.76368e-19)
(-1.25727 0.0372427 -2.97018e-19)
(-1.30595 0.068585 3.08943e-19)
(-1.35526 0.10063 -4.06657e-19)
(-1.40593 0.129837 2.14817e-18)
(-1.4588 0.156527 -7.05125e-19)
(-1.51353 0.180174 -1.77866e-18)
(-1.56836 0.199839 8.33621e-19)
(-1.62069 0.214329 2.71169e-18)
(-1.66722 0.222194 -1.33866e-18)
(-1.70399 0.221919 3.65657e-20)
(-1.72657 0.211954 -1.0597e-18)
(-1.73027 0.190764 6.80564e-20)
(-1.71044 0.156911 -1.79249e-18)
(-1.6625 0.109093 -3.89882e-20)
(-1.58187 0.0458589 8.06885e-19)
(-1.46472 -0.0342384 2.69941e-18)
(-1.30822 -0.131963 -2.08401e-18)
(-1.1084 -0.247595 -2.42679e-18)
(-0.864659 -0.385847 2.00629e-18)
(-0.598513 -0.550661 -7.47111e-19)
(-0.255551 -0.694179 2.26569e-20)
(0.0231744 -0.92032 9.51048e-20)
(3.81229 5.03513 -7.63437e-21)
(4.09791 5.39829 -6.06394e-20)
(4.3938 5.74385 3.97701e-20)
(4.7285 6.04104 -2.49078e-19)
(5.10072 6.27336 -1.49407e-19)
(5.52361 6.52456 -2.56478e-19)
(5.99783 6.82637 1.09504e-18)
(6.36913 6.94679 1.78198e-19)
(6.31257 6.50754 5.22581e-19)
(5.54313 5.31667 -1.10443e-18)
(4.06252 3.57613 1.17712e-18)
(2.25833 1.81405 1.67718e-18)
(0.719872 0.595036 -4.27666e-18)
(-0.119056 0.154984 6.37558e-18)
(-0.513214 0.0598065 1.06639e-19)
(-0.735844 0.0247855 -1.2917e-18)
(-0.87409 0.00965034 -4.70221e-18)
(-0.972851 0.0151013 -3.75943e-19)
(-1.04904 0.0296525 -1.47918e-18)
(-1.11215 0.0535319 5.59512e-18)
(-1.16874 0.0811575 -3.52778e-18)
(-1.22198 0.111739 5.94777e-19)
(-1.27476 0.140758 1.18578e-18)
(-1.3291 0.167718 2.06021e-19)
(-1.3856 0.191532 4.6312e-19)
(-1.44311 0.210848 2.11351e-19)
(-1.49939 0.224149 1.1011e-18)
(-1.55142 0.229683 -6.50911e-19)
(-1.59555 0.225665 -2.64804e-18)
(-1.62766 0.210336 -7.654e-19)
(-1.64336 0.182025 2.27175e-18)
(-1.63829 0.139226 1.06227e-18)
(-1.60822 0.0806873 8.67795e-20)
(-1.54898 0.00508053 -1.86701e-18)
(-1.45712 -0.0887773 -1.04526e-18)
(-1.33025 -0.201198 6.84839e-19)
(-1.16578 -0.331683 1.59396e-18)
(-0.964404 -0.482787 -8.83822e-19)
(-0.740975 -0.653625 6.14654e-19)
(-0.470868 -0.80811 -1.31127e-18)
(-0.226305 -0.989572 -1.95777e-19)
(4.13386 4.7741 -2.02926e-20)
(4.36281 5.07901 -1.36181e-19)
(4.591 5.37235 2.92906e-19)
(4.8441 5.64729 3.64098e-20)
(5.13351 5.88017 -5.9637e-20)
(5.45346 6.05817 1.03449e-20)
(5.81268 6.24068 -4.24964e-19)
(6.22262 6.48564 -4.35368e-19)
(6.60055 6.67912 -6.12507e-21)
(6.71295 6.52796 -8.1828e-19)
(6.27756 5.77887 -2.70545e-19)
(5.1606 4.42595 8.02956e-19)
(3.51881 2.77215 5.1016e-19)
(1.79926 1.3054 -2.15528e-18)
(0.517672 0.441015 7.42909e-18)
(-0.1357 0.178085 -3.58351e-18)
(-0.479212 0.113188 3.11327e-18)
(-0.68038 0.0865779 -4.86927e-18)
(-0.814736 0.0758118 -1.51318e-19)
(-0.912289 0.0836603 1.64534e-18)
(-0.989121 0.10127 -2.19889e-18)
(-1.05284 0.127535 -2.91522e-19)
(-1.1107 0.155224 5.84207e-19)
(-1.16747 0.182218 -1.9376e-18)
(-1.22562 0.206473 -5.37399e-19)
(-1.28527 0.225913 -1.42962e-18)
(-1.34506 0.238549 -2.59335e-18)
(-1.40258 0.242206 9.81604e-19)
(-1.45456 0.234748 7.19126e-19)
(-1.49726 0.214181 2.32784e-18)
(-1.52665 0.178706 -9.27876e-19)
(-1.53873 0.126751 6.66353e-19)
(-1.52967 0.0571345 -7.74599e-19)
(-1.4958 -0.0312816 1.87595e-18)
(-1.43416 -0.139281 -2.10266e-19)
(-1.34282 -0.26652 4.84491e-19)
(-1.22037 -0.411563 -2.40956e-18)
(-1.06829 -0.574505 1.54492e-18)
(-0.896362 -0.750127 -1.1453e-19)
(-0.69699 -0.911247 8.01229e-19)
(-0.501041 -1.06133 -8.28057e-19)
(4.43021 4.54737 -1.10539e-19)
(4.6191 4.80475 4.12658e-19)
(4.80136 5.05354 -1.45397e-19)
(4.99731 5.29118 -2.00039e-19)
(5.21964 5.51171 1.40019e-19)
(5.47065 5.69758 -3.27537e-19)
(5.74558 5.83685 1.03743e-19)
(6.04977 5.96597 1.66431e-18)
(6.39924 6.14894 -1.74752e-18)
(6.7625 6.35807 -1.76263e-19)
(6.99296 6.40553 8.73565e-20)
(6.85141 6.03758 6.54891e-20)
(6.1311 5.11473 8.74021e-19)
(4.80959 3.73836 -3.28712e-19)
(3.13645 2.24044 1.91606e-18)
(1.54972 1.03218 -2.33081e-18)
(0.460766 0.396373 1.02785e-18)
(-0.0992879 0.217735 -8.96833e-19)
(-0.412739 0.170976 1.7273e-18)
(-0.603787 0.149072 1.36293e-18)
(-0.734102 0.142691 5.89969e-19)
(-0.827221 0.155313 -1.59783e-18)
(-0.900632 0.176681 1.49718e-18)
(-0.965237 0.201713 8.41729e-19)
(-1.0273 0.226029 -2.3419e-18)
(-1.08951 0.245992 1.60711e-18)
(-1.15227 0.258758 1.83033e-18)
(-1.21444 0.261503 -2.11845e-18)
(-1.27369 0.251594 2.85663e-19)
(-1.32697 0.226691 -1.81419e-18)
(-1.37085 0.184785 9.43442e-19)
(-1.40179 0.124234 -1.23431e-18)
(-1.41638 0.0439509 -3.98759e-19)
(-1.41151 -0.0568818 6.56101e-20)
(-1.38468 -0.178507 -8.2631e-19)
(-1.3344 -0.319759 2.41008e-19)
(-1.26007 -0.478107 6.87428e-19)
(-1.16341 -0.651262 -9.31157e-19)
(-1.05068 -0.83101 -1.36137e-19)
(-0.921036 -0.995169 -1.13021e-18)
(-0.783228 -1.12768 7.9162e-19)
(4.70322 4.34767 -1.13131e-19)
(4.86299 4.56646 -3.41742e-19)
(5.01348 4.77695 2.1221e-20)
(5.16993 4.98022 7.06241e-20)
(5.34332 5.17399 -3.32454e-20)
(5.5388 5.3525 -2.3736e-19)
(5.75656 5.50405 1.76606e-20)
(5.99282 5.61674 1.40645e-20)
(6.25 5.70808 1.19441e-19)
(6.54276 5.83102 1.63086e-18)
(6.87001 6.0102 5.24856e-19)
(7.15941 6.15771 1.37321e-19)
(7.23938 6.07412 -1.06286e-18)
(6.89374 5.56459 2.36346e-18)
(5.988 4.576 -1.96696e-18)
(4.57776 3.25978 1.18182e-18)
(2.94204 1.92629 -1.75445e-18)
(1.47794 0.911192 -4.87735e-18)
(0.504826 0.405225 3.17524e-19)
(-0.0133471 0.264373 6.45113e-18)
(-0.309746 0.228733 -3.53734e-18)
(-0.488111 0.2163 4.00179e-18)
(-0.606867 0.219237 -1.99712e-18)
(-0.696621 0.234092 3.23729e-19)
(-0.772573 0.253987 -2.11027e-19)
(-0.842653 0.27297 -1.61652e-18)
(-0.910689 0.286228 1.34618e-18)
(-0.978076 0.28935 -1.08804e-18)
(-1.04424 0.278649 8.93121e-19)
(-1.10747 0.251187 5.94964e-19)
(-1.16539 0.204693 7.77659e-20)
(-1.21534 0.137451 5.34659e-19)
(-1.25461 0.0484106 3.10738e-19)
(-1.2808 -0.062961 -1.29279e-18)
(-1.2919 -0.196286 -7.60828e-19)
(-1.28664 -0.349451 5.30955e-19)
(-1.26476 -0.518751 6.40315e-19)
(-1.22772 -0.699973 1.26049e-19)
(-1.17917 -0.883301 1.27207e-18)
(-1.11903 -1.04931 9.01027e-19)
(-1.04588 -1.17668 2.00268e-19)
(4.95425 4.17014 -1.28714e-19)
(5.09194 4.35732 6.39542e-20)
(5.21964 4.53605 3.05687e-19)
(5.3482 4.70872 -2.77957e-19)
(5.48707 4.87593 3.3637e-20)
(5.6411 5.03461 5.09656e-20)
(5.81293 5.18053 9.33051e-20)
(6.00216 5.30595 -6.87314e-19)
(6.20572 5.40042 -1.72508e-18)
(6.42346 5.46776 2.27625e-18)
(6.66544 5.5424 -1.57805e-18)
(6.94491 5.66782 -4.09896e-19)
(7.2408 5.8307 -7.07431e-19)
(7.45311 5.91416 -4.06273e-19)
(7.40783 5.738 9.29146e-19)
(6.92678 5.1637 -4.17515e-19)
(5.92979 4.1877 1.98004e-18)
(4.51015 2.96956 -1.85383e-18)
(2.93727 1.77884 -8.38749e-19)
(1.55959 0.888557 5.98111e-18)
(0.638719 0.439687 -3.59334e-18)
(0.146509 0.315295 -2.20969e-19)
(-0.123936 0.300667 8.47276e-19)
(-0.293115 0.302503 3.03958e-18)
(-0.413169 0.308071 -2.55695e-18)
(-0.508729 0.317718 -5.56325e-19)
(-0.592377 0.32695 -6.19085e-19)
(-0.670911 0.329176 3.28346e-18)
(-0.74707 0.318697 -1.44608e-18)
(-0.821492 0.291048 -4.70338e-19)
(-0.893628 0.243071 1.58597e-18)
(-0.962263 0.172589 -1.34131e-18)
(-1.02579 0.0784187 -6.65693e-19)
(-1.08291 -0.0397175 7.89057e-19)
(-1.1323 -0.180756 5.83759e-19)
(-1.17292 -0.341731 1.03836e-19)
(-1.2045 -0.518067 -3.01874e-19)
(-1.22789 -0.704426 -1.78821e-19)
(-1.24444 -0.890567 -6.33407e-19)
(-1.25293 -1.05936 5.57812e-19)
(-1.2483 -1.19131 -1.01158e-19)
(5.18445 4.01106 2.05261e-19)
(5.30487 4.17205 -4.59443e-19)
(5.41556 4.32441 4.2884e-19)
(5.52425 4.47092 1.08984e-19)
(5.63828 4.61367 -1.00989e-19)
(5.76228 4.75158 5.73598e-20)
(5.89908 4.88207 5.00563e-19)
(6.05019 5.00206 2.96497e-19)
(6.21511 5.10663 1.63401e-19)
(6.39118 5.18762 7.99613e-20)
(6.57642 5.24154 -5.72143e-19)
(6.7768 5.28503 9.07635e-19)
(7.00716 5.35597 -8.99185e-20)
(7.27279 5.48001 9.34396e-19)
(7.53396 5.61884 -2.54083e-18)
(7.68132 5.6534 2.6139e-18)
(7.55532 5.43288 -7.65987e-19)
(7.01212 4.85816 -2.25336e-18)
(6.00216 3.94521 1.87744e-18)
(4.62351 2.83704 -2.1883e-18)
(3.11637 1.75988 1.62151e-18)
(1.82826 0.957661 -6.45357e-19)
(0.973498 0.534825 2.60661e-18)
(0.479854 0.396431 -1.03816e-18)
(0.189674 0.384526 -5.25201e-18)
(0.00396785 0.39792 2.8609e-18)
(-0.129778 0.404051 1.20285e-18)
(-0.239434 0.399716 -2.91137e-19)
(-0.337422 0.384407 2.27151e-19)
(-0.430067 0.354736 -6.77922e-19)
(-0.520452 0.306567 -3.23744e-18)
(-0.609861 0.236354 3.37847e-18)
(-0.698385 0.141989 -2.13343e-19)
(-0.785816 0.022861 -9.43891e-19)
(-0.87203 -0.119965 1.0207e-18)
(-0.956352 -0.283019 -1.37116e-19)
(-1.03832 -0.461024 -2.52091e-19)
(-1.11834 -0.648184 4.55877e-19)
(-1.19607 -0.834926 2.07992e-19)
(-1.26941 -1.00707 -4.22616e-19)
(-1.33303 -1.14927 -2.14264e-19)
(5.39484 3.8677 6.00525e-21)
(5.50128 4.00669 2.23672e-19)
(5.59875 4.13702 4.25132e-19)
(5.69271 4.26146 -5.00959e-19)
(5.78885 4.38272 -2.01416e-20)
(5.89106 4.50089 -1.16161e-19)
(6.00195 4.6147 -2.77777e-19)
(6.12347 4.72214 -3.26207e-19)
(6.25655 4.82093 4.53448e-19)
(6.40067 4.90787 1.42186e-18)
(6.55352 4.97745 -4.85217e-19)
(6.71308 5.02438 9.88091e-19)
(6.88146 5.05244 -1.21624e-20)
(7.0686 5.08383 -1.90339e-18)
(7.28812 5.15151 -7.70009e-19)
(7.5373 5.26672 1.76057e-18)
(7.76838 5.38269 -9.55554e-19)
(7.87616 5.39236 1.2814e-18)
(7.72073 5.17239 -1.85102e-18)
(7.18271 4.64591 1.22098e-19)
(6.21946 3.82953 -1.5909e-19)
(4.97333 2.87757 3.82325e-18)
(3.682 1.97497 -1.1747e-19)
(2.53493 1.24846 -2.4514e-18)
(1.66209 0.776168 -4.98498e-19)
(1.07757 0.548571 -7.92105e-19)
(0.704489 0.481948 -2.73081e-18)
(0.459952 0.481313 3.41674e-18)
(0.287143 0.484357 -2.7912e-18)
(0.149562 0.46595 -9.41742e-20)
(0.0264783 0.421606 7.77082e-19)
(-0.0920452 0.352106 -4.68222e-19)
(-0.210264 0.25818 3.56979e-19)
(-0.330237 0.14054 -1.45339e-19)
(-0.452819 0.000708169 1.66798e-18)
(-0.578443 -0.158216 -1.46561e-18)
(-0.706563 -0.331845 1.06108e-19)
(-0.837363 -0.515171 6.99353e-20)
(-0.969313 -0.699862 9.03018e-20)
(-1.09996 -0.874488 -3.05463e-20)
(-1.22627 -1.02745 2.52517e-19)
(5.58637 3.73799 -3.65464e-19)
(5.68114 3.85824 1.72424e-19)
(5.76795 3.96996 -6.38478e-19)
(5.85057 4.07573 2.9658e-19)
(5.93343 4.17848 -1.42155e-19)
(6.01964 4.2789 2.58658e-20)
(6.11155 4.37648 -7.93597e-20)
(6.21084 4.47016 8.41503e-20)
(6.3189 4.5584 -9.95549e-19)
(6.43624 4.63932 5.35557e-19)
(6.56235 4.71079 7.37472e-20)
(6.69593 4.76986 -3.4558e-18)
(6.83522 4.81194 2.19017e-18)
(6.97952 4.83454 1.58561e-19)
(7.13329 4.84552 1.99441e-18)
(7.30798 4.86743 -1.81536e-18)
(7.51508 4.92685 2.93867e-19)
(7.748 5.02777 1.43323e-18)
(7.95982 5.12665 -1.53464e-18)
(8.05908 5.13487 5.81275e-19)
(7.92065 4.94893 1.8783e-19)
(7.46987 4.53166 -3.91087e-19)
(6.7299 3.92634 1.38926e-19)
(5.78195 3.209 -3.96632e-19)
(4.74059 2.47263 2.56353e-18)
(3.72257 1.80343 -3.63831e-18)
(2.8286 1.26795 3.20851e-18)
(2.12012 0.899738 9.29865e-19)
(1.59905 0.687542 -1.41228e-18)
(1.22502 0.58487 -5.83525e-19)
(0.950669 0.535184 -3.42436e-19)
(0.737571 0.492111 2.32118e-18)
(0.557756 0.428459 -2.77568e-19)
(0.391953 0.334689 -2.95156e-18)
(0.228844 0.211617 6.31344e-19)
(0.0631783 0.0643347 8.63773e-19)
(-0.107101 -0.100848 -7.31967e-19)
(-0.284313 -0.278343 7.13073e-19)
(-0.465629 -0.460468 2.4498e-19)
(-0.647781 -0.637876 1.08822e-19)
(-0.831026 -0.800989 -5.381e-19)
(5.75961 3.62035 2.69072e-19)
(5.84441 3.72444 -3.22651e-19)
(5.92232 3.82025 6.85976e-19)
(5.99591 3.91017 -2.91156e-20)
(6.06862 3.99708 6.74604e-20)
(6.14293 4.08191 2.63513e-19)
(6.22073 4.16458 -5.77205e-20)
(6.30355 4.2446 6.32631e-20)
(6.39263 4.32113 2.66359e-19)
(6.48883 4.39285 -5.22994e-20)
(6.59235 4.45825 1.27094e-18)
(6.70311 4.51612 -1.7561e-18)
(6.82051 4.56485 3.04354e-18)
(6.94301 4.60141 -2.32378e-18)
(7.06898 4.62213 -1.08897e-18)
(7.19907 4.62674 -4.20877e-19)
(7.33911 4.62427 -7.19539e-19)
(7.50063 4.6347 7.49619e-19)
(7.69339 4.67913 9.17401e-20)
(7.91226 4.76112 5.47505e-19)
(8.11678 4.84476 -2.74119e-19)
(8.22799 4.86446 3.01853e-19)
(8.17656 4.76709 1.15585e-18)
(7.92748 4.52791 -1.4346e-18)
(7.47783 4.15248 7.28226e-19)
(6.85547 3.67148 7.86506e-19)
(6.11112 3.12951 9.42263e-20)
(5.30662 2.57472 -3.65139e-18)
(4.50481 2.05178 8.63177e-19)
(3.76115 1.59638 1.88403e-18)
(3.11377 1.22923 -1.38729e-18)
(2.57534 0.951533 3.01424e-18)
(2.13593 0.747241 -2.83863e-18)
(1.77316 0.591578 3.94677e-19)
(1.46499 0.46036 9.79737e-19)
(1.19348 0.334663 -9.55658e-19)
(0.944845 0.202288 4.94463e-19)
(0.70717 0.0569248 -5.60748e-20)
(0.474887 -0.101702 -8.32373e-19)
(0.245754 -0.267939 -3.21764e-20)
(0.00952595 -0.433304 7.33188e-21)
(5.91495 3.51327 1.55758e-20)
(5.99095 3.60332 -1.99483e-19)
(6.06114 3.68548 -6.32832e-20)
(6.1272 3.76193 3.48802e-19)
(6.19181 3.83538 4.0588e-22)
(6.25696 3.90682 -2.50395e-20)
(6.32412 3.97637 -2.99889e-19)
(6.39461 4.04383 1.816e-19)
(6.46945 4.10874 -1.02467e-19)
(6.5495 4.17036 8.5937e-19)
(6.6352 4.22759 -1.81235e-19)
(6.72683 4.27948 -1.64868e-19)
(6.82452 4.32511 1.205e-18)
(6.92786 4.36344 -4.63532e-19)
(7.03587 4.39289 -6.66813e-19)
(7.14706 4.41084 -5.65391e-19)
(7.26029 4.41457 -3.93325e-19)
(7.37692 4.40468 2.99749e-18)
(7.50291 4.38897 -3.13863e-18)
(7.64887 4.38367 2.0083e-21)
(7.82524 4.40623 1.8837e-18)
(8.02095 4.45792 -1.67367e-18)
(8.20611 4.51933 1.62399e-18)
(8.34633 4.55976 -7.10251e-19)
(8.40526 4.54732 -8.1745e-19)
(8.35456 4.45903 2.21862e-18)
(8.17866 4.28482 -8.45134e-19)
(7.87717 4.02799 1.16038e-18)
(7.46306 3.70225 -3.16947e-18)
(6.95935 3.32732 3.97725e-19)
(6.39444 2.92532 1.38555e-18)
(5.79839 2.51804 -1.81723e-19)
(5.20012 2.12466 -3.14195e-19)
(4.62139 1.75845 1.1631e-19)
(4.07799 1.42744 -4.68867e-20)
(3.57886 1.13411 2.8083e-19)
(3.12582 0.875521 -7.56955e-19)
(2.71009 0.644092 6.10117e-19)
(2.3268 0.434699 -3.23707e-19)
(1.97195 0.243797 2.98098e-19)
(1.62565 0.070838 2.95053e-20)
(6.04721 3.42017 9.6485e-21)
(6.11564 3.49846 -4.14174e-19)
(6.17919 3.56928 4.1445e-19)
(6.23899 3.63467 -3.82547e-19)
(6.29714 3.69714 -6.28626e-20)
(6.35522 3.75764 1.93044e-19)
(6.41444 3.81636 2.35724e-19)
(6.47581 3.87329 -8.94603e-19)
(6.54024 3.92818 -5.89248e-20)
(6.60845 3.98051 1.44738e-18)
(6.6809 4.02955 -1.9248e-18)
(6.75798 4.0746 5.13032e-19)
(6.83998 4.1149 4.8645e-19)
(6.92688 4.14962 -8.3092e-19)
(7.01847 4.17802 2.00381e-18)
(7.11417 4.19929 -2.62324e-19)
(7.21296 4.21204 -5.84182e-18)
(7.31348 4.21406 5.02768e-18)
(7.41495 4.20319 -1.84813e-18)
(7.51866 4.17978 -1.3341e-18)
(7.63048 4.15012 1.74765e-18)
(7.75537 4.12695 1.78129e-18)
(7.89603 4.1213 -2.63196e-18)
(8.05241 4.13685 2.45755e-18)
(8.21571 4.16861 -6.66288e-19)
(8.37026 4.204 6.1239e-19)
(8.49677 4.22672 -1.12992e-18)
(8.57597 4.22062 1.16374e-18)
(8.59222 4.17318 4.28709e-19)
(8.53513 4.07703 -2.19475e-18)
(8.40062 3.93044 2.60464e-19)
(8.1905 3.73665 -1.25033e-19)
(7.91186 3.50265 1.2655e-18)
(7.57326 3.23637 3.32801e-20)
(7.18619 2.94734 -7.11609e-20)
(6.7637 2.64576 -1.32559e-19)
(6.32015 2.34128 -5.00779e-20)
(5.86165 2.03844 -1.08547e-19)
(5.398 1.74395 -3.93648e-19)
(4.94159 1.46223 3.89883e-20)
(4.47849 1.19463 6.53415e-20)
(6.15495 3.34269 1.70485e-19)
(6.2171 3.41133 3.21605e-19)
(6.27514 3.47287 -2.23869e-19)
(6.3298 3.5293 -3.7803e-19)
(6.38278 3.58287 -1.32225e-20)
(6.43537 3.63447 1.58917e-19)
(6.48854 3.68435 -1.51607e-19)
(6.54315 3.73256 2.33895e-19)
(6.59994 3.77902 5.48992e-19)
(6.65953 3.82337 -1.04069e-18)
(6.72234 3.86509 -1.34602e-18)
(6.78875 3.9037 1.60623e-18)
(6.85907 3.93858 1.4332e-18)
(6.93339 3.96903 -2.13937e-18)
(7.01168 3.99433 2.51283e-18)
(7.09376 4.01386 1.71777e-18)
(7.17933 4.02708 -1.31704e-18)
(7.26776 4.0333 -2.17652e-18)
(7.35807 4.03132 -2.78332e-19)
(7.44897 4.01921 1.76066e-18)
(7.5396 3.99499 -3.4777e-18)
(7.62803 3.96044 2.74353e-18)
(7.7156 3.92065 3.40871e-19)
(7.80805 3.88186 7.24755e-19)
(7.91019 3.8507 -1.24924e-18)
(8.02469 3.83177 6.12454e-19)
(8.15077 3.82625 -5.40879e-19)
(8.2838 3.83143 -3.75352e-19)
(8.41599 3.8414 7.4069e-19)
(8.53763 3.84849 -4.74958e-19)
(8.63854 3.84469 -2.4182e-19)
(8.70923 3.82285 9.50245e-19)
(8.74214 3.77761 -1.21478e-18)
(8.73182 3.70564 6.58009e-19)
(8.67502 3.60578 6.10987e-20)
(8.57085 3.47909 -7.71595e-19)
(8.42182 3.32875 5.51962e-19)
(8.22858 3.15641 1.17552e-19)
(7.99426 2.96638 -2.4831e-19)
(7.72833 2.76384 -7.39982e-20)
(7.42024 2.54871 -5.95808e-20)
(6.2438 3.27734 -1.04522e-19)
(6.30062 3.33788 4.0134e-20)
(6.35394 3.39169 -8.29066e-20)
(6.40422 3.4407 -1.27157e-19)
(6.45286 3.48695 9.38014e-20)
(6.50094 3.53124 -1.73355e-20)
(6.54927 3.57382 6.39377e-20)
(6.59855 3.61481 -2.28041e-19)
(6.64941 3.65418 2.89184e-20)
(6.70237 3.69169 1.37223e-19)
(6.75778 3.72695 -4.92128e-19)
(6.816 3.75961 7.87239e-19)
(6.87732 3.78922 -1.78605e-18)
(6.94188 3.81522 1.08915e-18)
(7.00969 3.83702 6.77239e-19)
(7.08068 3.85399 4.66288e-19)
(7.1547 3.86558 2.0057e-19)
(7.2315 3.87129 -3.39635e-19)
(7.31071 3.87069 -1.01761e-18)
(7.39175 3.86321 2.01677e-18)
(7.47362 3.84768 9.41284e-20)
(7.55239 3.82381 -2.20956e-18)
(7.62543 3.79198 9.95875e-19)
(7.69379 3.75278 1.11619e-18)
(7.7592 3.70817 -2.26551e-18)
(7.82446 3.6611 2.04338e-18)
(7.89277 3.61498 -1.734e-18)
(7.96696 3.57298 7.76456e-20)
(8.04879 3.53738 5.34667e-19)
(8.13849 3.50912 1.39916e-18)
(8.2346 3.48766 -1.84372e-18)
(8.33416 3.4712 5.24171e-19)
(8.433 3.45696 9.67332e-19)
(8.5266 3.44184 -7.62566e-19)
(8.61007 3.42266 -8.98745e-20)
(8.67843 3.39654 -2.75398e-20)
(8.72759 3.36137 1.48628e-19)
(8.75455 3.31544 -1.01886e-19)
(8.75608 3.25753 6.98475e-20)
(8.73217 3.18817 -1.21246e-19)
(8.67701 3.10548 -8.62362e-21)
(6.31802 3.2213 2.26335e-20)
(6.37016 3.27492 4.06511e-19)
(6.41931 3.3222 4.30279e-21)
(6.46574 3.36496 -2.14674e-19)
(6.51062 3.40507 5.95805e-20)
(6.55485 3.44324 -1.4869e-20)
(6.5991 3.47974 -1.71955e-19)
(6.64398 3.51468 9.44071e-20)
(6.69 3.54806 3.51866e-19)
(6.7376 3.57975 3.68255e-20)
(6.78709 3.60942 1.41389e-19)
(6.83875 3.63682 5.59431e-19)
(6.89286 3.66159 -3.78889e-19)
(6.94954 3.68328 -7.72819e-19)
(7.00885 3.70144 6.59519e-20)
(7.07075 3.71554 -2.48219e-19)
(7.13514 3.72507 6.2918e-19)
(7.20185 3.72954 -5.99356e-19)
(7.27065 3.72847 -4.19881e-19)
(7.34125 3.72149 -1.18281e-18)
(7.41329 3.70812 1.52414e-18)
(7.48382 3.68886 7.40789e-19)
(7.55031 3.66425 -7.95785e-19)
(7.61246 3.63419 -7.74196e-19)
(7.66977 3.59872 -4.45477e-19)
(7.72221 3.55812 1.56318e-18)
(7.77034 3.51303 9.56603e-19)
(7.81526 3.46449 8.62222e-19)
(7.85847 3.4139 -1.83643e-18)
(7.90162 3.36284 5.95777e-19)
(7.94628 3.31284 -7.3358e-19)
(7.9937 3.26524 4.06245e-19)
(8.04453 3.22098 -6.41506e-19)
(8.09903 3.18057 1.0029e-18)
(8.15672 3.14405 -5.1022e-19)
(8.21648 3.11119 2.17985e-19)
(8.27645 3.08129 -4.53033e-19)
(8.33566 3.05375 3.71096e-19)
(8.3918 3.02739 -2.82507e-19)
(8.44303 3.00171 -7.82784e-21)
(8.48694 2.97552 4.86739e-20)
(6.38072 3.17261 -9.16211e-20)
(6.42869 3.22025 -3.81918e-20)
(6.47409 3.2619 -4.08116e-19)
(6.51707 3.29934 5.15629e-19)
(6.55859 3.33423 -9.46802e-20)
(6.59942 3.3672 -2.60372e-20)
(6.64014 3.39853 1.21356e-19)
(6.68124 3.42834 -2.92748e-19)
(6.72318 3.45665 1.44835e-18)
(6.7663 3.48335 -2.0998e-18)
(6.81086 3.50821 1.11119e-18)
(6.8571 3.53102 3.44413e-19)
(6.90525 3.55148 -4.15246e-19)
(6.9554 3.56926 -1.75165e-18)
(7.00763 3.58397 4.45405e-19)
(7.06191 3.59518 -1.03315e-18)
(7.11818 3.60248 3.32672e-18)
(7.17628 3.60543 -9.12755e-19)
(7.23604 3.60359 -1.98335e-19)
(7.29721 3.59656 6.54205e-19)
(7.35951 3.58386 -3.17383e-18)
(7.42065 3.56606 1.92617e-18)
(7.47879 3.54395 1.15651e-18)
(7.53392 3.51781 -1.08209e-18)
(7.58558 3.48799 -2.79253e-19)
(7.63341 3.4547 9.73797e-19)
(7.67706 3.41811 -1.58292e-18)
(7.71637 3.37834 1.13146e-18)
(7.75133 3.33561 9.79209e-19)
(7.78215 3.29022 -7.12675e-19)
(7.80927 3.24267 -1.24323e-18)
(7.83331 3.19357 1.14169e-19)
(7.85498 3.14362 6.33454e-19)
(7.87511 3.09351 2.90322e-19)
(7.89448 3.04399 -7.46872e-19)
(7.91374 2.99587 7.83605e-19)
(7.93325 2.94978 -5.0044e-19)
(7.95371 2.90614 2.22428e-19)
(7.97522 2.86529 6.61199e-20)
(7.99797 2.8277 -1.91824e-19)
(8.02114 2.79341 -2.48505e-20)
(6.43412 3.12989 -2.51323e-19)
(6.47833 3.17229 2.8351e-19)
(6.52033 3.20908 2.29504e-19)
(6.56015 3.24192 1.33006e-19)
(6.59863 3.27231 -6.25468e-20)
(6.6364 3.30084 -1.44538e-19)
(6.67397 3.32775 4.77713e-19)
(6.71175 3.35317 -1.48502e-18)
(6.75013 3.37715 2.00272e-18)
(6.78938 3.39958 -1.02167e-18)
(6.82973 3.42031 -1.64753e-18)
(6.87136 3.43914 4.45443e-19)
(6.91445 3.45585 2.14601e-18)
(6.95909 3.47015 1.14411e-18)
(7.00532 3.48174 -2.04517e-18)
(7.05312 3.49027 1.54386e-18)
(7.10243 3.49538 -1.21166e-18)
(7.15315 3.49674 -2.94477e-19)
(7.2051 3.49396 3.49386e-19)
(7.25807 3.48669 -1.64592e-18)
(7.31181 3.4745 4.12176e-18)