# Force and moment coefficients
# dragDir     : (1.000000e+00 0.000000e+00 0.000000e+00)
# sideDir     : (0.000000e+00 0.000000e+00 -1.000000e+00)
# liftDir     : (0.000000e+00 1.000000e+00 0.000000e+00)
# rollAxis    : (1.000000e+00 0.000000e+00 0.000000e+00)
# pitchAxis   : (0.000000e+00 0.000000e+00 -1.000000e+00)
# yawAxis     : (0.000000e+00 1.000000e+00 0.000000e+00)
# magUInf     : 7.300000e+00
# lRef        : 3.190000e-01
# Aref        : 1.595000e-03
# CofR        : (0.000000e+00 0.000000e+00 0.000000e+00)
#
# Time        	Cd            	Cd(f)         	Cd(r)         	Cl            	Cl(f)         	Cl(r)         	CmPitch       	CmRoll        	CmYaw         	Cs            	Cs(f)         	Cs(r)         
1             	9.914198e+01	-5.674459e+02	6.665879e+02	1.312189e+03	-1.542260e+03	2.854449e+03	-2.198354e+03	-6.170169e+02	4.661849e+01	3.069650e-19	4.661849e+01	-4.661849e+01
2             	5.119518e+01	-5.428885e+02	5.940837e+02	1.208981e+03	-1.346615e+03	2.555596e+03	-1.951106e+03	-5.684861e+02	2.407297e+01	-1.012261e-17	2.407297e+01	-2.407297e+01
3             	-4.493460e+01	-1.390852e+02	9.415060e+01	2.480074e+02	-8.572877e+01	3.337362e+02	-2.097325e+02	-1.166179e+02	-2.112912e+01	-2.440310e-17	-2.112912e+01	2.112912e+01
4             	-4.486791e+01	1.761562e+02	-2.210241e+02	-4.223350e+02	7.548848e+02	-1.177220e+03	9.660523e+02	1.985901e+02	-2.109776e+01	-1.578770e-17	-2.109776e+01	2.109776e+01
5             	-1.868467e+01	1.862061e+02	-2.048908e+02	-4.158663e+02	6.828983e+02	-1.098765e+03	8.908315e+02	1.955484e+02	-8.785893e+00	-6.154331e-18	-8.785893e+00	8.785893e+00
6             	-2.355071e+00	3.218522e+00	-5.573593e+00	-9.348949e+00	9.860824e+01	-1.079572e+02	1.032827e+02	4.396058e+00	-1.107400e+00	-4.023965e-18	-1.107400e+00	1.107400e+00
7             	-1.883710e+00	-2.076132e+02	2.057295e+02	4.395211e+02	-4.908278e+02	9.303489e+02	-7.105883e+02	-2.066714e+02	-8.857568e-01	-1.090885e-17	-8.857568e-01	8.857568e-01
8             	-1.314076e+01	-2.744830e+02	2.613422e+02	5.697607e+02	-6.218225e+02	1.191583e+03	-9.067029e+02	-2.679126e+02	-6.179040e+00	-1.194058e-17	-6.179040e+00	6.179040e+00
9             	-1.192374e+01	-2.224791e+02	2.105554e+02	4.604601e+02	-4.496473e+02	9.101073e+02	-6.798773e+02	-2.165173e+02	-5.606773e+00	-7.638416e-18	-5.606773e+00	5.606773e+00
10            	-3.750239e+00	-1.239580e+02	1.202077e+02	2.596296e+02	-1.183255e+02	3.779551e+02	-2.481403e+02	-1.220829e+02	-1.763435e+00	-2.322550e-18	-1.763435e+00	1.763435e+00
11            	-7.441241e+00	-6.924753e+01	6.180629e+01	1.393539e+02	8.970643e+01	4.964746e+01	2.002949e+01	-6.552691e+01	-3.499016e+00	-1.177073e-18	-3.499016e+00	3.499016e+00
12            	-1.682254e+01	-6.839211e+01	5.156957e+01	1.275592e+02	9.001408e+01	3.754517e+01	2.623446e+01	-5.998084e+01	-7.910285e+00	-3.599004e-18	-7.910285e+00	7.910285e+00
13            	-2.281096e+01	-1.000932e+02	7.728228e+01	1.886093e+02	-2.463096e+01	2.132403e+02	-1.189356e+02	-8.868775e+01	-1.072616e+01	-6.055910e-18	-1.072616e+01	1.072616e+01
14            	-2.397608e+01	-1.439064e+02	1.199303e+02	2.805463e+02	-1.794897e+02	4.600361e+02	-3.197629e+02	-1.319183e+02	-1.127402e+01	-8.094319e-18	-1.127402e+01	1.127402e+01
15            	-2.158638e+01	-1.669811e+02	1.453948e+02	3.321597e+02	-2.606551e+02	5.928148e+02	-4.267349e+02	-1.561879e+02	-1.015034e+01	-8.802491e-18	-1.015034e+01	1.015034e+01
16            	-1.533735e+01	-1.661612e+02	1.508239e+02	3.370608e+02	-2.642092e+02	6.012699e+02	-4.327395e+02	-1.584925e+02	-7.211919e+00	-8.331359e-18	-7.211919e+00	7.211919e+00
17            	-1.033508e+01	-1.600183e+02	1.496832e+02	3.293160e+02	-2.105521e+02	5.398681e+02	-3.752101e+02	-1.548508e+02	-4.859758e+00	-6.840816e-18	-4.859758e+00	4.859758e+00
18            	-1.310331e+01	-1.511055e+02	1.380022e+02	3.074178e+02	-1.285435e+02	4.359613e+02	-2.822524e+02	-1.445538e+02	-6.161429e+00	-6.465260e-18	-6.161429e+00	6.161429e+00
19            	-1.886521e+01	-1.411928e+02	1.223276e+02	2.802099e+02	-7.832334e+01	3.585333e+02	-2.184283e+02	-1.317602e+02	-8.870787e+00	-7.084087e-18	-8.870787e+00	8.870787e+00
20            	-1.988426e+01	-1.313855e+02	1.115012e+02	2.582695e+02	-7.383952e+01	3.321090e+02	-2.029743e+02	-1.214433e+02	-9.349966e+00	-7.181039e-18	-9.349966e+00	9.349966e+00
21            	-1.859220e+01	-1.299726e+02	1.113804e+02	2.566386e+02	-1.068652e+02	3.635038e+02	-2.351845e+02	-1.206765e+02	-8.742413e+00	-7.190060e-18	-8.742413e+00	8.742413e+00
22            	-1.798914e+01	-1.425646e+02	1.245755e+02	2.840590e+02	-1.601396e+02	4.441986e+02	-3.021691e+02	-1.335701e+02	-8.458842e+00	-7.900486e-18	-8.458842e+00	8.458842e+00
23            	-1.745076e+01	-1.600196e+02	1.425689e+02	3.217524e+02	-2.023791e+02	5.241315e+02	-3.632553e+02	-1.512942e+02	-8.205685e+00	-8.921582e-18	-8.205685e+00	8.205685e+00
24            	-1.603090e+01	-1.705119e+02	1.544810e+02	3.455757e+02	-2.135597e+02	5.591354e+02	-3.863475e+02	-1.624964e+02	-7.538040e+00	-9.421730e-18	-7.538040e+00	7.538040e+00
25            	-1.423354e+01	-1.691316e+02	1.548981e+02	3.445516e+02	-1.922591e+02	5.368107e+02	-3.645349e+02	-1.620149e+02	-6.692886e+00	-8.965932e-18	-6.692886e+00	6.692886e+00
26            	-1.326634e+01	-1.585453e+02	1.452790e+02	3.230665e+02	-1.551937e+02	4.782601e+02	-3.167269e+02	-1.519121e+02	-6.238090e+00	-8.034271e-18	-6.238090e+00	6.238090e+00
27            	-1.358482e+01	-1.478209e+02	1.342360e+02	2.999205e+02	-1.302460e+02	4.301665e+02	-2.802062e+02	-1.410284e+02	-6.387847e+00	-7.157325e-18	-6.387847e+00	6.387847e+00
28            	-1.442067e+01	-1.439691e+02	1.295485e+02	2.908404e+02	-1.323327e+02	4.231731e+02	-2.777529e+02	-1.367588e+02	-6.780879e+00	-6.636878e-18	-6.780879e+00	6.780879e+00
29            	-1.503806e+01	-1.486595e+02	1.336214e+02	3.001587e+02	-1.601645e+02	4.603232e+02	-3.102439e+02	-1.411405e+02	-7.071188e+00	-6.451859e-18	-7.071188e+00	7.071188e+00
30            	-1.466498e+01	-1.602181e+02	1.455532e+02	3.251368e+02	-2.028763e+02	5.280131e+02	-3.654447e+02	-1.528856e+02	-6.895758e+00	-6.516091e-18	-6.895758e+00	6.895758e+00
31            	-1.327977e+01	-1.710778e+02	1.577980e+02	3.497045e+02	-2.356459e+02	5.853504e+02	-4.104981e+02	-1.644379e+02	-6.244407e+00	-6.604747e-18	-6.244407e+00	6.244407e+00
32            	-1.158111e+01	-1.757517e+02	1.641705e+02	3.614506e+02	-2.453820e+02	6.068326e+02	-4.261073e+02	-1.699611e+02	-5.445663e+00	-6.518488e-18	-5.445663e+00	5.445663e+00
33            	-9.968546e+00	-1.741503e+02	1.641817e+02	3.597597e+02	-2.363027e+02	5.960624e+02	-4.161825e+02	-1.691660e+02	-4.687404e+00	-6.120455e-18	-4.687404e+00	4.687404e+00
34            	-8.871080e+00	-1.683386e+02	1.594675e+02	3.485672e+02	-2.181925e+02	5.667597e+02	-3.924761e+02	-1.639031e+02	-4.171354e+00	-5.473783e-18	-4.171354e+00	4.171354e+00
35            	-8.519850e+00	-1.627403e+02	1.542204e+02	3.370349e+02	-2.058517e+02	5.428866e+02	-3.743691e+02	-1.584804e+02	-4.006199e+00	-4.786405e-18	-4.006199e+00	4.006199e+00
36            	-8.418955e+00	-1.607992e+02	1.523802e+02	3.330141e+02	-2.082989e+02	5.413130e+02	-3.748060e+02	-1.565897e+02	-3.958756e+00	-4.198990e-18	-3.958756e+00	3.958756e+00
37            	-8.013416e+00	-1.628399e+02	1.548265e+02	3.377853e+02	-2.252270e+02	5.630122e+02	-3.941196e+02	-1.588332e+02	-3.768064e+00	-3.781113e-18	-3.768064e+00	3.768064e+00
38            	-6.831896e+00	-1.688666e+02	1.620347e+02	3.518584e+02	-2.546494e+02	6.065078e+02	-4.305786e+02	-1.654507e+02	-3.212490e+00	-3.525739e-18	-3.212490e+00	3.212490e+00
39            	-5.084753e+00	-1.756070e+02	1.705222e+02	3.680507e+02	-2.831203e+02	6.511710e+02	-4.671457e+02	-1.730646e+02	-2.390950e+00	-3.406211e-18	-2.390950e+00	2.390950e+00
40            	-3.359414e+00	-1.793877e+02	1.760283e+02	3.779258e+02	-2.987622e+02	6.766880e+02	-4.877251e+02	-1.777080e+02	-1.579662e+00	-3.387140e-18	-1.579662e+00	1.579662e+00
41            	-1.932825e+00	-1.795114e+02	1.775786e+02	3.797057e+02	-3.014975e+02	6.812032e+02	-4.913504e+02	-1.785450e+02	-9.088521e-01	-3.420461e-18	-9.088521e-01	9.088521e-01
42            	-7.470057e-01	-1.770260e+02	1.762790e+02	3.756811e+02	-2.972159e+02	6.728970e+02	-4.850564e+02	-1.766525e+02	-3.512566e-01	-3.500507e-18	-3.512566e-01	3.512566e-01
43            	2.569599e-01	-1.736218e+02	1.738788e+02	3.695089e+02	-2.925460e+02	6.620549e+02	-4.773005e+02	-1.737503e+02	1.208276e-01	-3.622268e-18	1.208276e-01	-1.208276e-01
44            	1.203366e+00	-1.713660e+02	1.725694e+02	3.657180e+02	-2.935278e+02	6.592458e+02	-4.763868e+02	-1.719677e+02	5.658462e-01	-3.771507e-18	5.658462e-01	-5.658462e-01
45            	2.301291e+00	-1.710279e+02	1.733292e+02	3.661663e+02	-3.018713e+02	6.680376e+02	-4.849544e+02	-1.721785e+02	1.082112e+00	-3.949461e-18	1.082112e+00	-1.082112e+00
46            	3.703414e+00	-1.723641e+02	1.760675e+02	3.704988e+02	-3.161867e+02	6.866855e+02	-5.014361e+02	-1.742158e+02	1.741417e+00	-4.164369e-18	1.741417e+00	-1.741417e+00
47            	5.291635e+00	-1.743207e+02	1.796124e+02	3.763488e+02	-3.317737e+02	7.081225e+02	-5.199481e+02	-1.769665e+02	2.488230e+00	-4.382973e-18	2.488230e+00	-2.488230e+00
48            	6.811955e+00	-1.754480e+02	1.822600e+02	3.803628e+02	-3.432955e+02	7.236583e+02	-5.334769e+02	-1.788540e+02	3.203114e+00	-4.586471e-18	3.203114e+00	-3.203114e+00
49            	8.142477e+00	-1.750312e+02	1.831737e+02	3.808912e+02	-3.490178e+02	7.299090e+02	-5.394634e+02	-1.791024e+02	3.828751e+00	-4.795329e-18	3.828751e+00	-3.828751e+00
50            	9.374176e+00	-1.732449e+02	1.826191e+02	3.784021e+02	-3.508213e+02	7.292234e+02	-5.400223e+02	-1.779320e+02	4.407920e+00	-5.044669e-18	4.407920e+00	-4.407920e+00
51            	1.058920e+01	-1.706743e+02	1.812635e+02	3.742271e+02	-3.513854e+02	7.256125e+02	-5.384990e+02	-1.759689e+02	4.979250e+00	-5.336865e-18	4.979250e+00	-4.979250e+00
52            	1.175848e+01	-1.681816e+02	1.799401e+02	3.701694e+02	-3.529252e+02	7.230946e+02	-5.380099e+02	-1.740609e+02	5.529067e+00	-5.669447e-18	5.529067e+00	-5.529067e+00
53            	1.289006e+01	-1.662396e+02	1.791296e+02	3.672426e+02	-3.562320e+02	7.234746e+02	-5.398533e+02	-1.726846e+02	6.061155e+00	-5.972220e-18	6.061155e+00	-6.061155e+00
54            	1.405815e+01	-1.646298e+02	1.786879e+02	3.650612e+02	-3.604381e+02	7.254993e+02	-5.429687e+02	-1.716589e+02	6.610417e+00	-6.206093e-18	6.610417e+00	-6.610417e+00
55            	1.526040e+01	-1.628529e+02	1.781133e+02	3.625607e+02	-3.636893e+02	7.262501e+02	-5.449697e+02	-1.704831e+02	7.175736e+00	-6.342450e-18	7.175736e+00	-7.175736e+00
56            	1.641009e+01	-1.604632e+02	1.768733e+02	3.587012e+02	-3.642099e+02	7.229111e+02	-5.435605e+02	-1.686683e+02	7.716343e+00	-6.372722e-18	7.716343e+00	-7.716343e+00
57            	1.746992e+01	-1.572495e+02	1.747194e+02	3.529936e+02	-3.614995e+02	7.144931e+02	-5.379963e+02	-1.659844e+02	8.214696e+00	-6.315094e-18	8.214696e+00	-8.214696e+00
58            	1.847373e+01	-1.532508e+02	1.717245e+02	3.455571e+02	-3.563302e+02	7.018873e+02	-5.291087e+02	-1.624877e+02	8.686705e+00	-6.206168e-18	8.686705e+00	-8.686705e+00
59            	1.946077e+01	-1.487949e+02	1.682557e+02	3.371304e+02	-3.501829e+02	6.873133e+02	-5.187481e+02	-1.585253e+02	9.150834e+00	-6.075077e-18	9.150834e+00	-9.150834e+00
60            	2.044186e+01	-1.443526e+02	1.647944e+02	3.287263e+02	-3.444749e+02	6.732013e+02	-5.088381e+02	-1.545735e+02	9.612161e+00	-5.939971e-18	9.612161e+00	-9.612161e+00
61            	2.141631e+01	-1.401312e+02	1.615475e+02	3.207851e+02	-3.395694e+02	6.603545e+02	-4.999620e+02	-1.508394e+02	1.007037e+01	-5.797048e-18	1.007037e+01	-1.007037e+01
62            	2.237995e+01	-1.359564e+02	1.583363e+02	3.129313e+02	-3.346555e+02	6.475868e+02	-4.911211e+02	-1.471464e+02	1.052349e+01	-5.625530e-18	1.052349e+01	-1.052349e+01
63            	2.331288e+01	-1.315260e+02	1.548388e+02	3.045012e+02	-3.285590e+02	6.330602e+02	-4.808096e+02	-1.431824e+02	1.096217e+01	-5.402258e-18	1.096217e+01	-1.096217e+01
64            	2.419516e+01	-1.266384e+02	1.508336e+02	2.950453e+02	-3.205792e+02	6.156245e+02	-4.681018e+02	-1.387360e+02	1.137704e+01	-5.108965e-18	1.137704e+01	-1.137704e+01
65            	2.503461e+01	-1.212884e+02	1.463230e+02	2.845602e+02	-3.108765e+02	5.954366e+02	-4.531566e+02	-1.338057e+02	1.177176e+01	-4.740559e-18	1.177176e+01	-1.177176e+01
66            	2.584400e+01	-1.156045e+02	1.414486e+02	2.733331e+02	-3.001034e+02	5.734365e+02	-4.367700e+02	-1.285265e+02	1.215235e+01	-4.307202e-18	1.215235e+01	-1.215235e+01
67            	2.662698e+01	-1.098102e+02	1.364372e+02	2.618431e+02	-2.890974e+02	5.509406e+02	-4.200190e+02	-1.231237e+02	1.252052e+01	-3.827381e-18	1.252052e+01	-1.252052e+01
68            	2.738554e+01	-1.041171e+02	1.315027e+02	2.505424e+02	-2.785708e+02	5.291132e+02	-4.038420e+02	-1.178099e+02	1.287721e+01	-3.332570e-18	1.287721e+01	-1.287721e+01
69            	2.811376e+01	-9.856533e+01	1.266791e+02	2.395099e+02	-2.686180e+02	5.081279e+02	-3.883729e+02	-1.126222e+02	1.321964e+01	-2.830347e-18	1.321964e+01	-1.321964e+01
70            	2.880363e+01	-9.304952e+01	1.218532e+02	2.285132e+02	-2.588494e+02	4.873626e+02	-3.731060e+02	-1.074513e+02	1.354403e+01	-2.313925e-18	1.354403e+01	-1.354403e+01
71            	2.946194e+01	-8.754164e+01	1.170036e+02	2.174998e+02	-2.491084e+02	4.666082e+02	-3.578583e+02	-1.022726e+02	1.385358e+01	-1.759768e-18	1.385358e+01	-1.385358e+01
72            	3.009125e+01	-8.205303e+01	1.121443e+02	2.064965e+02	-2.393749e+02	4.458714e+02	-3.426231e+02	-9.709866e+01	1.414949e+01	-1.155257e-18	1.414949e+01	-1.414949e+01
73            	3.067858e+01	-7.655957e+01	1.072381e+02	1.954382e+02	-2.295280e+02	4.249662e+02	-3.272471e+02	-9.189886e+01	1.442566e+01	-5.103408e-19	1.442566e+01	-1.442566e+01
74            	3.120125e+01	-7.103129e+01	1.022325e+02	1.842372e+02	-2.194613e+02	4.036985e+02	-3.115799e+02	-8.663191e+01	1.467143e+01	1.567831e-19	1.467143e+01	-1.467143e+01
75            	3.163300e+01	-6.545318e+01	9.708618e+01	1.728335e+02	-2.090838e+02	3.819173e+02	-2.955005e+02	-8.126968e+01	1.487445e+01	8.237757e-19	1.487445e+01	-1.487445e+01
76            	3.198070e+01	-5.988010e+01	9.186079e+01	1.613511e+02	-1.986145e+02	3.599657e+02	-2.792901e+02	-7.587045e+01	1.503794e+01	1.468621e-18	1.503794e+01	-1.503794e+01
77            	3.225003e+01	-5.433813e+01	8.658816e+01	1.498516e+02	-1.880965e+02	3.379482e+02	-2.630224e+02	-7.046315e+01	1.516459e+01	2.073072e-18	1.516459e+01	-1.516459e+01
78            	3.245742e+01	-4.896926e+01	8.142667e+01	1.386543e+02	-1.778584e+02	3.165127e+02	-2.471856e+02	-6.519797e+01	1.526211e+01	2.605549e-18	1.526211e+01	-1.526211e+01
79            	3.259513e+01	-4.390496e+01	7.650008e+01	1.280307e+02	-1.680780e+02	2.961087e+02	-2.320934e+02	-6.020252e+01	1.532686e+01	3.051798e-18	1.532686e+01	-1.532686e+01
80            	3.261825e+01	-3.909424e+01	7.171249e+01	1.178245e+02	-1.582902e+02	2.761147e+02	-2.172025e+02	-5.540337e+01	1.533773e+01	3.415596e-18	1.533773e+01	-1.533773e+01
81            	3.248776e+01	-3.436128e+01	6.684904e+01	1.076203e+02	-1.478195e+02	2.554398e+02	-2.016296e+02	-5.060516e+01	1.527638e+01	3.709012e-18	1.527638e+01	-1.527638e+01
82            	3.219968e+01	-2.958003e+01	6.177971e+01	9.714586e+01	-1.363464e+02	2.334923e+02	-1.849193e+02	-4.567987e+01	1.514091e+01	3.925801e-18	1.514091e+01	-1.514091e+01
83            	3.177438e+01	-2.472018e+01	5.649456e+01	8.635834e+01	-1.239421e+02	2.103005e+02	-1.671213e+02	-4.060737e+01	1.494093e+01	4.071080e-18	1.494093e+01	-1.494093e+01
84            	3.122965e+01	-1.985738e+01	5.108702e+01	7.543755e+01	-1.109175e+02	1.863550e+02	-1.486362e+02	-3.547220e+01	1.468479e+01	4.149712e-18	1.468479e+01	-1.468479e+01
85            	3.060399e+01	-1.525557e+01	4.585956e+01	6.498576e+01	-9.808161e+01	1.630674e+02	-1.305745e+02	-3.055757e+01	1.439059e+01	4.159137e-18	1.439059e+01	-1.439059e+01
86            	2.991216e+01	-1.113540e+01	4.104756e+01	5.548788e+01	-8.597238e+01	1.414603e+02	-1.137163e+02	-2.609148e+01	1.406528e+01	4.098735e-18	1.406528e+01	-1.406528e+01
87            	2.911599e+01	-7.459069e+00	3.657506e+01	4.682296e+01	-7.430317e+01	1.211261e+02	-9.771465e+01	-2.201706e+01	1.369090e+01	3.983761e-18	1.369090e+01	-1.369090e+01
88            	2.819555e+01	-4.095700e+00	3.229125e+01	3.869146e+01	-6.269151e+01	1.013830e+02	-8.203724e+01	-1.819348e+01	1.325810e+01	3.841052e-18	1.325810e+01	-1.325810e+01
89            	2.714962e+01	-9.537661e-01	2.810338e+01	3.089743e+01	-5.091360e+01	8.181104e+01	-6.636232e+01	-1.452857e+01	1.276628e+01	3.695721e-18	1.276628e+01	-1.276628e+01
90            	2.600151e+01	2.000416e+00	2.400110e+01	2.339406e+01	-3.902249e+01	6.241655e+01	-5.071952e+01	-1.100034e+01	1.222642e+01	3.555890e-18	1.222642e+01	-1.222642e+01
91            	2.480071e+01	4.720138e+00	2.008058e+01	1.633327e+01	-2.741659e+01	4.374986e+01	-3.558322e+01	-7.680219e+00	1.166178e+01	3.421070e-18	1.166178e+01	-1.166178e+01
92            	2.358554e+01	7.041580e+00	1.654396e+01	1.010420e+01	-1.669195e+01	2.679615e+01	-2.174405e+01	-4.751189e+00	1.109038e+01	3.277354e-18	1.109038e+01	-1.109038e+01
93            	2.234476e+01	8.809723e+00	1.353503e+01	5.024582e+00	-7.152616e+00	1.217720e+01	-9.664907e+00	-2.362656e+00	1.050694e+01	3.108677e-18	1.050694e+01	-1.050694e+01
94            	2.104950e+01	1.002920e+01	1.102030e+01	1.053877e+00	1.322530e+00	-2.686530e-01	7.955916e-01	-4.955536e-01	9.897884e+00	2.912309e-18	9.897884e+00	-9.897884e+00
95            	1.969546e+01	1.076070e+01	8.934755e+00	-1.941593e+00	8.871500e+00	-1.081309e+01	9.842296e+00	9.129745e-01	9.261188e+00	2.694204e-18	9.261188e+00	-9.261188e+00
96            	1.830780e+01	1.103571e+01	7.272094e+00	-4.001976e+00	1.543603e+01	-1.943801e+01	1.743702e+01	1.881807e+00	8.608684e+00	2.461270e-18	8.608684e+00	-8.608684e+00
97            	1.691434e+01	1.085535e+01	6.058987e+00	-5.100135e+00	2.088606e+01	-2.598620e+01	2.343613e+01	2.398182e+00	7.953451e+00	2.213838e-18	7.953451e+00	-7.953451e+00
98            	1.554225e+01	1.023752e+01	5.304731e+00	-5.245199e+00	2.509783e+01	-3.034303e+01	2.772043e+01	2.466394e+00	7.308268e+00	1.947535e-18	7.308268e+00	-7.308268e+00
99            	1.419799e+01	9.179771e+00	5.018219e+00	-4.425117e+00	2.799649e+01	-3.242161e+01	3.020905e+01	2.080776e+00	6.676171e+00	1.656045e-18	6.676171e+00	-6.676171e+00
100           	1.288074e+01	7.599064e+00	5.281674e+00	-2.464158e+00	2.939459e+01	-3.185875e+01	3.062667e+01	1.158695e+00	6.056773e+00	1.332977e-18	6.056773e+00	-6.056773e+00
101           	1.159563e+01	5.408561e+00	6.187068e+00	8.278126e-01	2.906803e+01	-2.824022e+01	2.865413e+01	-3.892536e-01	5.452490e+00	9.718883e-19	5.452490e+00	-5.452490e+00
102           	1.036094e+01	2.621684e+00	7.739255e+00	5.441684e+00	2.696096e+01	-2.151928e+01	2.424012e+01	-2.558786e+00	4.871915e+00	5.739868e-19	4.871915e+00	-4.871915e+00
103           	9.188049e+00	-6.577369e-01	9.845786e+00	1.116875e+01	2.326641e+01	-1.209766e+01	1.768203e+01	-5.251761e+00	4.320399e+00	1.486970e-19	4.320399e+00	-4.320399e+00
104           	8.077424e+00	-4.330263e+00	1.240769e+01	1.779802e+01	1.824704e+01	-4.490254e-01	9.348035e+00	-8.368975e+00	3.798162e+00	-2.930086e-19	3.798162e+00	-3.798162e+00
105           	7.032020e+00	-8.313080e+00	1.534510e+01	2.515653e+01	1.210256e+01	1.305397e+01	-4.757031e-01	-1.182909e+01	3.306592e+00	-7.436045e-19	3.306592e+00	-3.306592e+00
106           	6.049692e+00	-1.256459e+01	1.861428e+01	3.315353e+01	4.961465e+00	2.819207e+01	-1.161530e+01	-1.558944e+01	2.844683e+00	-1.199764e-18	2.844683e+00	-2.844683e+00
107           	5.135253e+00	-1.706171e+01	2.219696e+01	4.174505e+01	-3.084940e+00	4.482999e+01	-2.395746e+01	-1.962933e+01	2.414696e+00	-1.664342e-18	2.414696e+00	-2.414696e+00
108           	4.297990e+00	-2.178688e+01	2.608487e+01	5.090363e+01	-1.195568e+01	6.285931e+01	-3.740750e+01	-2.393588e+01	2.020999e+00	-2.130509e-18	2.020999e+00	-2.020999e+00
109           	3.538276e+00	-2.667108e+01	3.020936e+01	6.048287e+01	-2.144773e+01	8.193060e+01	-5.168916e+01	-2.844022e+01	1.663766e+00	-2.600084e-18	1.663766e+00	-1.663766e+00
110           	2.839972e+00	-3.164682e+01	3.448679e+01	7.032207e+01	-3.129617e+01	1.016182e+02	-6.645721e+01	-3.306680e+01	1.335410e+00	-3.068685e-18	1.335410e+00	-1.335410e+00
111           	2.197435e+00	-3.665407e+01	3.885151e+01	8.028760e+01	-4.127683e+01	1.215644e+02	-8.142063e+01	-3.775279e+01	1.033277e+00	-3.527110e-18	1.033277e+00	-1.033277e+00
112           	1.599291e+00	-4.161423e+01	4.321352e+01	9.020018e+01	-5.109593e+01	1.412961e+02	-9.619602e+01	-4.241388e+01	7.520176e-01	-3.963195e-18	7.520176e-01	-7.520176e-01
113           	1.034007e+00	-4.647069e+01	4.750470e+01	9.992717e+01	-6.053986e+01	1.604670e+02	-1.105034e+02	-4.698770e+01	4.862101e-01	-4.374692e-18	4.862101e-01	-4.862101e-01
114           	4.974160e-01	-5.121186e+01	5.170928e+01	1.094395e+02	-6.953657e+01	1.789761e+02	-1.242563e+02	-5.146057e+01	2.338947e-01	-4.753888e-18	2.338947e-01	-2.338947e-01
115           	-1.325775e-02	-5.582828e+01	5.581502e+01	1.187140e+02	-7.804436e+01	1.967584e+02	-1.374014e+02	-5.582165e+01	-6.234053e-03	-5.107378e-18	-6.234053e-03	6.234053e-03
116           	-4.946224e-01	-6.031774e+01	5.982312e+01	1.277498e+02	-8.610507e+01	2.138549e+02	-1.499800e+02	-6.007043e+01	-2.325811e-01	-5.431498e-18	-2.325811e-01	2.325811e-01
117           	-9.478893e-01	-6.468912e+01	6.374123e+01	1.365643e+02	-9.376831e+01	2.303326e+02	-1.620504e+02	-6.421518e+01	-4.457160e-01	-5.724364e-18	-4.457160e-01	4.457160e-01
118           	-1.389496e+00	-6.894012e+01	6.755063e+01	1.451352e+02	-1.010146e+02	2.461497e+02	-1.735821e+02	-6.824538e+01	-6.533682e-01	-5.985756e-18	-6.533682e-01	6.533682e-01
119           	-1.840858e+00	-7.302263e+01	7.118177e+01	1.533373e+02	-1.076789e+02	2.610162e+02	-1.843475e+02	-7.210220e+01	-8.656070e-01	-6.220637e-18	-8.656070e-01	8.656070e-01
120           	-2.317141e+00	-7.687656e+01	7.455942e+01	1.610269e+02	-1.135548e+02	2.745817e+02	-1.940683e+02	-7.571799e+01	-1.089565e+00	-6.437331e-18	-1.089565e+00	1.089565e+00
121           	-2.822361e+00	-8.048570e+01	7.766333e+01	1.681651e+02	-1.185920e+02	2.867571e+02	-2.026746e+02	-7.907452e+01	-1.327129e+00	-6.656569e-18	-1.327129e+00	1.327129e+00
122           	-3.345729e+00	-8.388185e+01	8.053612e+01	1.748311e+02	-1.229090e+02	2.977401e+02	-2.103245e+02	-8.220898e+01	-1.573227e+00	-6.869425e-18	-1.573227e+00	1.573227e+00
123           	-3.869768e+00	-8.711548e+01	8.324571e+01	1.811507e+02	-1.266998e+02	3.078505e+02	-2.172752e+02	-8.518059e+01	-1.819640e+00	-7.094672e-18	-1.819640e+00	1.819640e+00
124           	-4.377482e+00	-9.023741e+01	8.585993e+01	1.872502e+02	-1.301664e+02	3.174165e+02	-2.237914e+02	-8.804867e+01	-2.058377e+00	-7.321004e-18	-2.058377e+00	2.058377e+00
125           	-4.865534e+00	-9.326396e+01	8.839842e+01	1.931677e+02	-1.333925e+02	3.265602e+02	-2.299763e+02	-9.083119e+01	-2.287869e+00	-7.564738e-18	-2.287869e+00	2.287869e+00
126           	-5.338553e+00	-9.618506e+01	9.084650e+01	1.988769e+02	-1.363692e+02	3.352461e+02	-2.358077e+02	-9.351578e+01	-2.510291e+00	-7.806822e-18	-2.510291e+00	2.510291e+00
127           	-5.803125e+00	-9.897917e+01	9.317604e+01	2.043250e+02	-1.390584e+02	3.433835e+02	-2.412209e+02	-9.607761e+01	-2.728742e+00	-8.055215e-18	-2.728742e+00	2.728742e+00
128           	-6.266605e+00	-1.016340e+02	9.536740e+01	2.094782e+02	-1.414414e+02	3.509195e+02	-2.461805e+02	-9.850071e+01	-2.946679e+00	-8.286984e-18	-2.946679e+00	2.946679e+00
129           	-6.725787e+00	-1.041701e+02	9.744434e+01	2.143834e+02	-1.436048e+02	3.579882e+02	-2.507965e+02	-1.008072e+02	-3.162596e+00	-8.506307e-18	-3.162596e+00	3.162596e+00
130           	-7.170927e+00	-1.066227e+02	9.945181e+01	2.191259e+02	-1.456720e+02	3.647979e+02	-2.552350e+02	-1.030373e+02	-3.371909e+00	-8.703594e-18	-3.371909e+00	3.371909e+00
131           	-7.589493e+00	-1.090235e+02	1.014340e+02	2.237866e+02	-1.477643e+02	3.715509e+02	-2.596576e+02	-1.052288e+02	-3.568727e+00	-8.883290e-18	-3.568727e+00	3.568727e+00
132           	-7.965870e+00	-1.113985e+02	1.034327e+02	2.284372e+02	-1.500003e+02	3.784375e+02	-2.642189e+02	-1.074156e+02	-3.745707e+00	-9.046996e-18	-3.745707e+00	3.745707e+00
133           	-8.293381e+00	-1.137461e+02	1.054528e+02	2.330815e+02	-1.524079e+02	3.854894e+02	-2.689487e+02	-1.095995e+02	-3.899709e+00	-9.192951e-18	-3.899709e+00	3.899709e+00
134           	-8.572029e+00	-1.160569e+02	1.074849e+02	2.376994e+02	-1.549703e+02	3.926697e+02	-2.738200e+02	-1.117709e+02	-4.030734e+00	-9.323674e-18	-4.030734e+00	4.030734e+00
135           	-8.805626e+00	-1.183246e+02	1.095190e+02	2.422737e+02	-1.576807e+02	3.999544e+02	-2.788175e+02	-1.139218e+02	-4.140577e+00	-9.439392e-18	-4.140577e+00	4.140577e+00
136           	-8.992625e+00	-1.205628e+02	1.115702e+02	2.468348e+02	-1.605784e+02	4.074132e+02	-2.839958e+02	-1.160665e+02	-4.228507e+00	-9.542490e-18	-4.228507e+00	4.228507e+00
137           	-9.129201e+00	-1.227858e+02	1.136566e+02	2.514170e+02	-1.637208e+02	4.151379e+02	-2.894293e+02	-1.182212e+02	-4.292728e+00	-9.630234e-18	-4.292728e+00	4.292728e+00
138           	-9.210304e+00	-1.250044e+02	1.157941e+02	2.560491e+02	-1.671468e+02	4.231959e+02	-2.951714e+02	-1.203993e+02	-4.330864e+00	-9.709467e-18	-4.330864e+00	4.330864e+00
139           	-9.224922e+00	-1.272173e+02	1.179924e+02	2.607396e+02	-1.708741e+02	4.316137e+02	-3.012439e+02	-1.226048e+02	-4.337738e+00	-9.771611e-18	-4.337738e+00	4.337738e+00
140           	-9.166341e+00	-1.294161e+02	1.202498e+02	2.654780e+02	-1.749029e+02	4.403810e+02	-3.076419e+02	-1.248329e+02	-4.310192e+00	-9.817466e-18	-4.310192e+00	4.310192e+00
141           	-9.030662e+00	-1.315969e+02	1.225662e+02	2.702601e+02	-1.792454e+02	4.495055e+02	-3.143755e+02	-1.270816e+02	-4.246393e+00	-9.847871e-18	-4.246393e+00	4.246393e+00
142           	-8.817395e+00	-1.337652e+02	1.249478e+02	2.750981e+02	-1.839329e+02	4.590310e+02	-3.214819e+02	-1.293565e+02	-4.146110e+00	-9.858256e-18	-4.146110e+00	4.146110e+00
143           	-8.525912e+00	-1.359279e+02	1.274020e+02	2.800075e+02	-1.890056e+02	4.690130e+02	-3.290093e+02	-1.316650e+02	-4.009049e+00	-9.850895e-18	-4.009049e+00	4.009049e+00
144           	-8.156904e+00	-1.380824e+02	1.299255e+02	2.849817e+02	-1.944820e+02	4.794637e+02	-3.369728e+02	-1.340039e+02	-3.835535e+00	-9.816262e-18	-3.835535e+00	3.835535e+00
145           	-7.710155e+00	-1.402206e+02	1.325105e+02	2.900041e+02	-2.003568e+02	4.903609e+02	-3.453588e+02	-1.363656e+02	-3.625465e+00	-9.760450e-18	-3.625465e+00	3.625465e+00
146           	-7.187621e+00	-1.423271e+02	1.351395e+02	2.950395e+02	-2.065912e+02	5.016307e+02	-3.541109e+02	-1.387333e+02	-3.379759e+00	-9.675591e-18	-3.379759e+00	3.379759e+00
147           	-6.590142e+00	-1.443857e+02	1.377955e+02	3.000527e+02	-2.131567e+02	5.132094e+02	-3.631831e+02	-1.410906e+02	-3.098813e+00	-9.568387e-18	-3.098813e+00	3.098813e+00
148           	-5.919923e+00	-1.463804e+02	1.404605e+02	3.050075e+02	-2.200213e+02	5.250288e+02	-3.725250e+02	-1.434204e+02	-2.783663e+00	-9.434323e-18	-2.783663e+00	2.783663e+00
149           	-5.180466e+00	-1.483031e+02	1.431227e+02	3.098828e+02	-2.271688e+02	5.370516e+02	-3.821102e+02	-1.457129e+02	-2.435956e+00	-9.276633e-18	-2.435956e+00	2.435956e+00
150           	-4.381054e+00	-1.501321e+02	1.457510e+02	3.146223e+02	-2.345298e+02	5.491521e+02	-3.918409e+02	-1.479415e+02	-2.060057e+00	-9.098189e-18	-2.060057e+00	2.060057e+00
151           	-3.525394e+00	-1.518653e+02	1.483399e+02	3.192182e+02	-2.420938e+02	5.613120e+02	-4.017029e+02	-1.501026e+02	-1.657709e+00	-8.906432e-18	-1.657709e+00	1.657709e+00
152           	-2.619873e+00	-1.534903e+02	1.508704e+02	3.236369e+02	-2.498268e+02	5.734638e+02	-4.116453e+02	-1.521804e+02	-1.231915e+00	-8.711326e-18	-1.231915e+00	1.231915e+00
153           	-1.670864e+00	-1.549787e+02	1.533079e+02	3.278114e+02	-2.576636e+02	5.854750e+02	-4.215693e+02	-1.541433e+02	-7.856726e-01	-8.521604e-18	-7.856726e-01	7.856726e-01
154           	-6.806661e-01	-1.563042e+02	1.556235e+02	3.316831e+02	-2.655576e+02	5.972408e+02	-4.313992e+02	-1.559639e+02	-3.200624e-01	-8.344260e-18	-3.200624e-01	3.200624e-01
155           	3.412917e-01	-1.574534e+02	1.577947e+02	3.352138e+02	-2.734271e+02	6.086408e+02	-4.410339e+02	-1.576240e+02	1.604820e-01	-8.184016e-18	1.604820e-01	-1.604820e-01
156           	1.375060e+00	-1.584519e+02	1.598270e+02	3.384365e+02	-2.811944e+02	6.196309e+02	-4.504126e+02	-1.591394e+02	6.465798e-01	-8.045404e-18	6.465798e-01	-6.465798e-01
157           	2.402927e+00	-1.592892e+02	1.616921e+02	3.413101e+02	-2.887391e+02	6.300492e+02	-4.593941e+02	-1.604907e+02	1.129903e+00	-7.937856e-18	1.129903e+00	-1.129903e+00
158           	3.409759e+00	-1.599075e+02	1.633173e+02	3.436957e+02	-2.958680e+02	6.395638e+02	-4.677159e+02	-1.616124e+02	1.603335e+00	-7.868573e-18	1.603335e+00	-1.603335e+00
159           	4.391885e+00	-1.602440e+02	1.646359e+02	3.454556e+02	-3.024291e+02	6.478847e+02	-4.751569e+02	-1.624400e+02	2.065149e+00	-7.841814e-18	2.065149e+00	-2.065149e+00
160           	5.356459e+00	-1.602613e+02	1.656178e+02	3.465181e+02	-3.083537e+02	6.548718e+02	-4.816127e+02	-1.629395e+02	2.518711e+00	-7.859112e-18	2.518711e+00	-2.518711e+00
161           	6.305996e+00	-1.599495e+02	1.662555e+02	3.468646e+02	-3.135726e+02	6.604372e+02	-4.870049e+02	-1.631025e+02	2.965202e+00	-7.915437e-18	2.965202e+00	-2.965202e+00
162           	7.222145e+00	-1.592996e+02	1.665217e+02	3.464567e+02	-3.178786e+02	6.643353e+02	-4.911069e+02	-1.629107e+02	3.395993e+00	-7.999090e-18	3.395993e+00	-3.395993e+00
163           	8.079986e+00	-1.583251e+02	1.664051e+02	3.452965e+02	-3.210857e+02	6.663822e+02	-4.937340e+02	-1.623651e+02	3.799367e+00	-8.098160e-18	3.799367e+00	-3.799367e+00
164           	8.864021e+00	-1.570282e+02	1.658922e+02	3.433720e+02	-3.230617e+02	6.664337e+02	-4.947477e+02	-1.614602e+02	4.168035e+00	-8.207032e-18	4.168035e+00	-4.168035e+00