# Force and moment coefficients
# dragDir     : (1.000000e+00 0.000000e+00 0.000000e+00)
# sideDir     : (0.000000e+00 0.000000e+00 -1.000000e+00)
# liftDir     : (0.000000e+00 1.000000e+00 0.000000e+00)
# rollAxis    : (1.000000e+00 0.000000e+00 0.000000e+00)
# pitchAxis   : (0.000000e+00 0.000000e+00 -1.000000e+00)
# yawAxis     : (0.000000e+00 1.000000e+00 0.000000e+00)
# magUInf     : 7.300000e+00
# lRef        : 3.190000e-01
# Aref        : 1.595000e-03
# CofR        : (0.000000e+00 0.000000e+00 0.000000e+00)
#
# Time        	Cd            	Cd(f)         	Cd(r)         	Cl            	Cl(f)         	Cl(r)         	CmPitch       	CmRoll        	CmYaw         	Cs            	Cs(f)         	Cs(r)         
1             	-1.112814e+02	7.698629e+02	-8.811443e+02	-1.755571e+03	9.761961e+02	-2.731767e+03	1.853982e+03	8.255036e+02	-5.232668e+01	8.783120e-17	-5.232668e+01	5.232668e+01
2             	-2.186360e+02	3.576798e+02	-5.763158e+02	-9.931486e+02	-2.197725e+02	-7.733761e+02	2.768018e+02	4.669978e+02	-1.028069e+02	1.552983e-17	-1.028069e+02	1.028069e+02
3             	2.146943e+03	-1.190292e+04	1.404986e+04	2.759645e+04	-3.248128e+04	6.007773e+04	-4.627951e+04	-1.297639e+04	1.009534e+03	9.786195e-16	1.009534e+03	-1.009534e+03
4             	1.342945e+03	-7.398438e+03	8.741383e+03	1.716201e+04	-1.744508e+04	3.460709e+04	-2.602609e+04	-8.069911e+03	6.314789e+02	7.873182e-16	6.314789e+02	-6.314789e+02
5             	-5.861306e+02	2.639708e+03	-3.225838e+03	-6.237031e+03	1.349954e+04	-1.973657e+04	1.661805e+04	2.932773e+03	-2.756100e+02	5.190523e-16	-2.756100e+02	2.756100e+02
6             	-2.016208e+03	2.804444e+04	-3.006065e+04	-6.178507e+04	5.400523e+04	-1.157903e+05	8.489777e+04	2.905254e+04	-9.480600e+02	8.250025e-17	-9.480600e+02	9.480600e+02
7             	1.691451e+02	2.719773e+04	-2.702858e+04	-5.766064e+04	3.641044e+04	-9.407108e+04	6.524076e+04	2.711316e+04	7.953531e+01	1.562272e-15	7.953531e+01	-7.953531e+01
8             	1.768408e+03	1.299612e+03	4.687960e+02	-8.834341e+02	-1.400466e+04	1.312123e+04	-1.356294e+04	4.154079e+02	8.315397e+02	2.139476e-15	8.315397e+02	-8.315397e+02
9             	3.625271e+03	-3.573351e+04	3.935878e+04	7.984814e+04	-8.039330e+04	1.602414e+05	-1.203174e+05	-3.754615e+04	1.704673e+03	2.148713e-15	1.704673e+03	-1.704673e+03
10            	3.252012e+03	-3.918374e+04	4.243575e+04	8.678873e+04	-7.766952e+04	1.644582e+05	-1.210639e+05	-4.080975e+04	1.529159e+03	1.490408e-15	1.529159e+03	-1.529159e+03
11            	1.285914e+03	-1.303294e+04	1.431886e+04	2.908408e+04	-2.388368e+04	5.296776e+04	-3.842572e+04	-1.367590e+04	6.046616e+02	1.032770e-15	6.046616e+02	-6.046616e+02
12            	-2.024932e+03	2.983681e+04	-3.186174e+04	-6.560613e+04	5.818071e+04	-1.237868e+05	9.098377e+04	3.084928e+04	-9.521625e+02	9.302062e-16	-9.521625e+02	9.521625e+02
13            	-2.013899e+03	4.211854e+04	-4.413244e+04	-9.171355e+04	7.250437e+04	-1.642179e+05	1.183611e+05	4.312549e+04	-9.469746e+02	2.148015e-15	-9.469746e+02	9.469746e+02
14            	-1.728168e+03	1.533804e+04	-1.706621e+04	-3.445652e+04	2.847250e+04	-6.292902e+04	4.570076e+04	1.620213e+04	-8.126180e+02	1.387668e-15	-8.126180e+02	8.126180e+02
15            	8.084305e+02	-2.891614e+04	2.972457e+04	6.235462e+04	-5.819384e+04	1.205485e+05	-8.937115e+04	-2.932035e+04	3.801397e+02	-7.722349e-17	3.801397e+02	-3.801397e+02
16            	7.109085e+03	-6.260623e+04	6.971531e+04	1.407019e+05	-1.465219e+05	2.872238e+05	-2.168729e+05	-6.616077e+04	3.342830e+03	-1.117118e-15	3.342830e+03	-3.342830e+03
17            	5.490009e+03	-3.989186e+04	4.538187e+04	9.067440e+04	-9.462212e+04	1.852965e+05	-1.399593e+05	-4.263687e+04	2.581509e+03	4.052397e-16	2.581509e+03	-2.581509e+03
18            	2.194338e+03	2.077104e+03	1.172339e+02	-2.083995e+03	-2.938331e+03	8.543358e+02	-1.896333e+03	9.799349e+02	1.031820e+03	1.555312e-15	1.031820e+03	-1.031820e+03
19            	-8.272212e+02	3.508094e+04	-3.590816e+04	-7.548508e+04	6.828026e+04	-1.437653e+05	1.060228e+05	3.549455e+04	-3.889755e+02	2.515023e-15	-3.889755e+02	3.889755e+02
20            	-2.769012e+03	2.605734e+04	-2.882635e+04	-5.835965e+04	5.686009e+04	-1.152197e+05	8.603992e+04	2.744184e+04	-1.302043e+03	1.627326e-15	-1.302043e+03	1.302043e+03
21            	-3.764190e+03	8.856727e+02	-4.649862e+03	-5.886119e+03	1.601630e+04	-2.190242e+04	1.895936e+04	2.767767e+03	-1.769995e+03	-5.928595e-16	-1.769995e+03	1.769995e+03
22            	2.265042e+02	-3.909764e+04	3.932414e+04	8.338849e+04	-7.304746e+04	1.564360e+05	-1.147417e+05	-3.921089e+04	1.065067e+02	-3.750140e-15	1.065067e+02	-1.065067e+02
23            	6.348647e+03	-4.935941e+04	5.570806e+04	1.117217e+05	-1.240481e+05	2.357698e+05	-1.799089e+05	-5.253374e+04	2.985257e+03	-3.855543e-15	2.985257e+03	-2.985257e+03
24            	4.281741e+03	-1.854082e+04	2.282256e+04	4.398306e+04	-5.366208e+04	9.764513e+04	-7.565360e+04	-2.068169e+04	2.013358e+03	-4.748925e-16	2.013358e+03	-2.013358e+03
25            	4.409608e+03	1.747542e+04	-1.306581e+04	-3.247551e+04	1.890571e+04	-5.138122e+04	3.514347e+04	1.527062e+04	2.073484e+03	3.110673e-15	2.073484e+03	-2.073484e+03
26            	6.443366e+02	2.743127e+04	-2.678693e+04	-5.765202e+04	5.133122e+04	-1.089832e+05	8.015723e+04	2.710910e+04	3.029796e+02	2.983774e-15	3.029796e+02	-3.029796e+02
27            	-1.628953e+03	1.372033e+04	-1.534928e+04	-3.091068e+04	3.091328e+04	-6.182397e+04	4.636863e+04	1.453480e+04	-7.659653e+02	1.312060e-15	-7.659653e+02	7.659653e+02
28            	-3.868091e+03	-1.567370e+04	1.180560e+04	2.921966e+04	-1.795862e+04	4.717827e+04	-3.256845e+04	-1.373965e+04	-1.818852e+03	-2.815043e-15	-1.818852e+03	1.818852e+03
29            	-1.044586e+02	-2.904574e+04	2.894128e+04	6.165953e+04	-5.594404e+04	1.176036e+05	-8.677381e+04	-2.899351e+04	-4.911847e+01	-3.693089e-15	-4.911847e+01	4.911847e+01
30            	1.614112e+03	-1.973860e+04	2.135271e+04	4.369377e+04	-4.384561e+04	8.753937e+04	-6.569249e+04	-2.054566e+04	7.589868e+02	-2.346346e-15	7.589868e+02	-7.589868e+02
31            	2.735856e+03	-9.880470e+02	3.723903e+03	5.010373e+03	-1.116584e+04	1.617622e+04	-1.367103e+04	-2.355975e+03	1.286453e+03	1.859305e-16	1.286453e+03	-1.286453e+03
32            	1.904775e+03	1.202592e+04	-1.012115e+04	-2.354972e+04	1.486515e+04	-3.841487e+04	2.664001e+04	1.107354e+04	8.956623e+02	1.319177e-15	8.956623e+02	-8.956623e+02
33            	-1.237287e+03	1.165649e+04	-1.289378e+04	-2.610512e+04	2.245495e+04	-4.856007e+04	3.550751e+04	1.227514e+04	-5.817966e+02	8.867979e-16	-5.817966e+02	5.817966e+02
34            	-2.027678e+03	3.212148e+03	-5.239826e+03	-8.987265e+03	1.147461e+04	-2.046188e+04	1.596824e+04	4.225987e+03	-9.534538e+02	1.007814e-16	-9.534538e+02	9.534538e+02
35            	-1.558418e+03	-4.389584e+03	2.831166e+03	7.678064e+03	-1.660922e+03	9.338987e+03	-5.499954e+03	-3.610375e+03	-7.327985e+02	-5.277444e-16	-7.327985e+02	7.327985e+02
36            	-8.896412e+02	-7.208843e+03	6.319202e+03	1.438482e+04	-8.280568e+03	2.266539e+04	-1.547298e+04	-6.764022e+03	-4.183266e+02	-7.647693e-16	-4.183266e+02	4.183266e+02
37            	-4.716515e+02	-4.222506e+03	3.750855e+03	8.478341e+03	-5.716365e+03	1.419471e+04	-9.955535e+03	-3.986681e+03	-2.217797e+02	-3.867509e-16	-2.217797e+02	2.217797e+02
38            	2.122672e+00	5.151229e+02	-5.130003e+02	-1.093238e+03	-3.976755e+01	-1.053470e+03	5.068513e+02	5.140616e+02	9.981215e-01	2.361376e-16	9.981215e-01	-9.981215e-01
39            	1.184545e+02	3.001151e+03	-2.882697e+03	-6.256492e+03	4.313620e+03	-1.057011e+04	7.441866e+03	2.941924e+03	5.569961e+01	5.008981e-16	5.569961e+01	-5.569961e+01
40            	-4.016839e+02	2.056464e+03	-2.458148e+03	-4.800536e+03	4.579177e+03	-9.379714e+03	6.979446e+03	2.257306e+03	-1.888796e+02	2.321124e-16	-1.888796e+02	1.888796e+02
41            	-9.901585e+02	-7.459558e+01	-9.155630e+02	-8.942286e+02	2.756011e+03	-3.650240e+03	3.203126e+03	4.204837e+02	-4.655918e+02	-1.764751e-16	-4.655918e+02	4.655918e+02
42            	-1.130027e+03	-1.297637e+03	1.676107e+02	1.558047e+03	1.307643e+03	2.504045e+02	5.286191e+02	-7.326241e+02	-5.313606e+02	-4.219479e-16	-5.313606e+02	5.313606e+02
43            	-7.965312e+02	-1.207854e+03	4.113224e+02	1.721724e+03	1.989358e+02	1.522788e+03	-6.619261e+02	-8.095880e+02	-3.745445e+02	-3.910933e-16	-3.745445e+02	3.745445e+02
44            	-3.233597e+02	-4.910645e+02	1.677048e+02	7.004913e+02	-5.004278e+02	1.200919e+03	-8.506735e+02	-3.293846e+02	-1.520500e+02	-2.112237e-16	-1.520500e+02	1.520500e+02
45            	-8.389769e+00	1.136237e+02	-1.220135e+02	-2.505609e+02	-6.939320e+02	4.433710e+02	-5.686515e+02	1.178186e+02	-3.945033e+00	-5.226855e-17	-3.945033e+00	3.945033e+00
46            	1.089148e+02	5.661256e+02	-4.572108e+02	-1.088148e+03	-8.188874e+01	-1.006259e+03	4.621851e+02	5.116682e+02	5.121384e+01	3.823290e-18	5.121384e+01	-5.121384e+01
47            	1.412793e+02	6.654523e+02	-5.241730e+02	-1.264968e+03	1.689657e+02	-1.433934e+03	8.014498e+02	5.948126e+02	6.643226e+01	1.203344e-17	6.643226e+01	-6.643226e+01
48            	9.510490e+01	6.767497e+02	-5.816448e+02	-1.338093e+03	4.295874e+02	-1.767680e+03	1.098634e+03	6.291973e+02	4.472017e+01	2.484625e-17	4.472017e+01	-4.472017e+01
49            	3.341011e+01	6.416807e+02	-6.082706e+02	-1.329115e+03	5.231236e+02	-1.852239e+03	1.187681e+03	6.249757e+02	1.571009e+01	3.550783e-17	1.571009e+01	-1.571009e+01
50            	-9.827822e+00	4.491316e+02	-4.589594e+02	-9.656034e+02	2.416603e+02	-1.207264e+03	7.244620e+02	4.540455e+02	-4.621233e+00	1.702532e-17	-4.621233e+00	4.621233e+00
51            	-3.091759e+01	1.005008e+02	-1.314184e+02	-2.466074e+02	-1.963675e+02	-5.023985e+01	-7.306384e+01	1.159596e+02	-1.453805e+01	-1.924027e-17	-1.453805e+01	1.453805e+01
52            	-1.940593e+01	-1.678457e+02	1.484398e+02	3.363168e+02	-5.109522e+02	8.472691e+02	-6.791107e+02	-1.581427e+02	-9.125047e+00	-3.877176e-17	-9.125047e+00	9.125047e+00
53            	3.399865e+00	-1.957708e+02	1.991707e+02	4.199545e+02	-5.113618e+02	9.313163e+02	-7.213390e+02	-1.974708e+02	1.598683e+00	-3.127552e-17	1.598683e+00	-1.598683e+00
54            	3.057752e+01	-7.528161e+01	1.058591e+02	1.926130e+02	-2.903200e+02	4.829329e+02	-3.866265e+02	-9.057036e+01	1.437814e+01	-1.523779e-17	1.437814e+01	-1.437814e+01
55            	5.888347e+01	8.409429e+01	-2.521082e+01	-1.162278e+02	-6.276596e+00	-1.099512e+02	5.183729e+01	5.465255e+01	2.768815e+01	-5.301562e-18	2.768815e+01	-2.768815e+01
56            	7.875039e+01	1.846795e+02	-1.059291e+02	-3.090137e+02	1.597937e+02	-4.688074e+02	3.143006e+02	1.453043e+02	3.702996e+01	6.287439e-19	3.702996e+01	-3.702996e+01
57            	6.963309e+01	1.766014e+02	-1.069683e+02	-3.015291e+02	1.610174e+02	-4.625465e+02	3.117819e+02	1.417848e+02	3.274283e+01	-8.697487e-20	3.274283e+01	-3.274283e+01
58            	4.195606e+01	1.069584e+02	-6.500232e+01	-1.828515e+02	1.091238e+02	-2.919754e+02	2.005496e+02	8.598035e+01	1.972855e+01	-3.532066e-18	1.972855e+01	-1.972855e+01
59            	9.354415e+00	3.024733e+01	-2.089292e+01	-5.437913e+01	1.123078e+02	-1.666869e+02	1.394973e+02	2.557013e+01	4.398628e+00	-6.188076e-18	4.398628e+00	-4.398628e+00
60            	4.299416e+00	1.633615e+01	-1.203673e+01	-3.016982e+01	1.712795e+02	-2.014494e+02	1.863644e+02	1.418644e+01	2.021669e+00	-3.817980e-18	2.021669e+00	-2.021669e+00
61            	1.692141e+01	4.244879e+01	-2.552738e+01	-7.228133e+01	2.997308e+02	-3.720122e+02	3.358715e+02	3.398809e+01	7.956774e+00	5.407626e-18	7.956774e+00	-7.956774e+00
62            	2.769187e+01	6.694033e+01	-3.924846e+01	-1.129141e+02	3.470047e+02	-4.599188e+02	4.034618e+02	5.309440e+01	1.302125e+01	1.045446e-17	1.302125e+01	-1.302125e+01
63            	2.840484e+01	9.178317e+01	-6.337833e+01	-1.649884e+02	3.796269e+02	-5.446153e+02	4.621211e+02	7.758075e+01	1.335651e+01	1.036646e-17	1.335651e+01	-1.335651e+01
64            	1.506998e+01	1.508879e+02	-1.358179e+02	-3.048639e+02	4.745959e+02	-7.794598e+02	6.270278e+02	1.433529e+02	7.086197e+00	6.063339e-18	7.086197e+00	-7.086197e+00
65            	5.877499e+00	1.743155e+02	-1.684380e+02	-3.644612e+02	5.045590e+02	-8.690202e+02	6.867896e+02	1.713768e+02	2.763714e+00	4.737626e-18	2.763714e+00	-2.763714e+00
66            	-5.549488e+00	1.935823e+02	-1.991318e+02	-4.175860e+02	5.244595e+02	-9.420456e+02	7.332526e+02	1.963571e+02	-2.609477e+00	3.178262e-18	-2.609477e+00	2.609477e+00
67            	-1.821065e+01	2.084995e+02	-2.267102e+02	-4.627729e+02	5.248653e+02	-9.876382e+02	7.562517e+02	2.176048e+02	-8.563000e+00	9.565450e-19	-8.563000e+00	8.563000e+00
68            	-2.932008e+01	2.217576e+02	-2.510777e+02	-5.027815e+02	5.108391e+02	-1.013621e+03	7.622298e+02	2.364176e+02	-1.378687e+01	-1.612256e-18	-1.378687e+01	1.378687e+01
69            	-3.792777e+01	2.410178e+02	-2.789456e+02	-5.528945e+02	5.154691e+02	-1.068364e+03	7.919163e+02	2.599817e+02	-1.783437e+01	-3.787727e-18	-1.783437e+01	1.783437e+01
70            	-4.250046e+01	2.570875e+02	-2.995880e+02	-5.919316e+02	5.365386e+02	-1.128470e+03	8.325044e+02	2.783377e+02	-1.998454e+01	-4.986625e-18	-1.998454e+01	1.998454e+01
71            	-4.421332e+01	2.667640e+02	-3.109773e+02	-6.143316e+02	5.597925e+02	-1.174124e+03	8.669583e+02	2.888707e+02	-2.078996e+01	-5.982616e-18	-2.078996e+01	2.078996e+01
72            	-4.458261e+01	2.704594e+02	-3.150420e+02	-6.225832e+02	5.704184e+02	-1.193002e+03	8.817100e+02	2.927507e+02	-2.096361e+01	-7.399860e-18	-2.096361e+01	2.096361e+01
73            	-4.456889e+01	2.715666e+02	-3.161354e+02	-6.249231e+02	5.652866e+02	-1.190210e+03	8.777481e+02	2.938510e+02	-2.095716e+01	-9.305170e-18	-2.095716e+01	2.095716e+01
74            	-4.406416e+01	2.720743e+02	-3.161385e+02	-6.254663e+02	5.487960e+02	-1.174262e+03	8.615292e+02	2.941064e+02	-2.071982e+01	-1.138204e-17	-2.071982e+01	2.071982e+01
75            	-4.294841e+01	2.727973e+02	-3.157457e+02	-6.258173e+02	5.285246e+02	-1.154342e+03	8.414332e+02	2.942715e+02	-2.019518e+01	-1.304820e-17	-2.019518e+01	2.019518e+01
76            	-4.109901e+01	2.748761e+02	-3.159751e+02	-6.282718e+02	5.139777e+02	-1.142250e+03	8.281136e+02	2.954256e+02	-1.932555e+01	-1.409926e-17	-1.932555e+01	1.932555e+01
77            	-3.865888e+01	2.791136e+02	-3.177725e+02	-6.346889e+02	5.117961e+02	-1.146485e+03	8.291406e+02	2.984430e+02	-1.817815e+01	-1.403179e-17	-1.817815e+01	1.817815e+01
78            	-3.582055e+01	2.866247e+02	-3.224452e+02	-6.476443e+02	5.262618e+02	-1.173906e+03	8.500839e+02	3.045349e+02	-1.684352e+01	-1.221667e-17	-1.684352e+01	1.684352e+01
79            	-3.531422e+01	2.902496e+02	-3.255638e+02	-6.548149e+02	5.417945e+02	-1.196609e+03	8.692019e+02	3.079067e+02	-1.660543e+01	-1.078078e-17	-1.660543e+01	1.660543e+01
80            	-3.464621e+01	2.929381e+02	-3.275843e+02	-6.598221e+02	5.587835e+02	-1.218606e+03	8.886945e+02	3.102612e+02	-1.629132e+01	-8.084390e-18	-1.629132e+01	1.629132e+01
81            	-3.314491e+01	2.903001e+02	-3.234450e+02	-6.526157e+02	5.549318e+02	-1.207548e+03	8.812397e+02	3.068726e+02	-1.558538e+01	-6.204204e-18	-1.558538e+01	1.558538e+01
82            	-3.052988e+01	2.834573e+02	-3.139872e+02	-6.352826e+02	5.340439e+02	-1.169326e+03	8.516852e+02	2.987222e+02	-1.435574e+01	-5.021183e-18	-1.435574e+01	1.435574e+01
83            	-2.678776e+01	2.733377e+02	-3.001255e+02	-6.097825e+02	5.049417e+02	-1.114724e+03	8.098330e+02	2.867316e+02	-1.259612e+01	-4.511502e-18	-1.259612e+01	1.259612e+01
84            	-2.234028e+01	2.642581e+02	-2.865984e+02	-5.857440e+02	4.848333e+02	-1.070577e+03	7.777053e+02	2.754282e+02	-1.050483e+01	-4.345956e-18	-1.050483e+01	1.050483e+01
85            	-1.931103e+01	2.620801e+02	-2.813911e+02	-5.778910e+02	4.850302e+02	-1.062921e+03	7.739757e+02	2.717356e+02	-9.080420e+00	-3.894880e-18	-9.080420e+00	9.080420e+00
86            	-1.459460e+01	2.594332e+02	-2.740278e+02	-5.672469e+02	4.961568e+02	-1.063404e+03	7.797803e+02	2.667305e+02	-6.862666e+00	-3.491056e-18	-6.862666e+00	6.862666e+00
87            	-1.129585e+01	2.581674e+02	-2.694633e+02	-5.610473e+02	5.086641e+02	-1.069711e+03	7.891877e+02	2.638153e+02	-5.311529e+00	-3.199222e-18	-5.311529e+00	5.311529e+00
88            	-1.009056e+01	2.552944e+02	-2.653850e+02	-5.536557e+02	5.105825e+02	-1.064238e+03	7.874104e+02	2.603397e+02	-4.744779e+00	-2.930268e-18	-4.744779e+00	4.744779e+00
89            	-9.344529e+00	2.493804e+02	-2.587250e+02	-5.402854e+02	5.029241e+02	-1.043210e+03	7.730669e+02	2.540527e+02	-4.393979e+00	-2.464172e-18	-4.393979e+00	4.393979e+00
90            	-8.376194e+00	2.463688e+02	-2.547450e+02	-5.328510e+02	4.996480e+02	-1.032499e+03	7.660735e+02	2.505569e+02	-3.938649e+00	-2.220707e-18	-3.938649e+00	3.938649e+00
91            	-5.377685e+00	2.375424e+02	-2.429200e+02	-5.108917e+02	4.888658e+02	-9.997575e+02	7.443116e+02	2.402312e+02	-2.528692e+00	-1.235765e-18	-2.528692e+00	2.528692e+00
92            	-2.248765e+00	2.293959e+02	-2.316447e+02	-4.902399e+02	4.758813e+02	-9.661211e+02	7.210012e+02	2.305203e+02	-1.057413e+00	-4.049069e-19	-1.057413e+00	1.057413e+00
93            	-1.131444e-01	2.214715e+02	-2.215846e+02	-4.711164e+02	4.587286e+02	-9.298450e+02	6.942868e+02	2.215281e+02	-5.320269e-02	1.028373e-19	-5.320269e-02	5.320269e-02
94            	9.223118e-01	2.133955e+02	-2.124732e+02	-4.528404e+02	4.407107e+02	-8.935511e+02	6.671309e+02	2.129344e+02	4.336889e-01	2.983837e-19	4.336889e-01	-4.336889e-01
95            	1.360986e+00	2.051608e+02	-2.037998e+02	-4.348615e+02	4.257471e+02	-8.606086e+02	6.431778e+02	2.044803e+02	6.399620e-01	3.808584e-19	6.399620e-01	-6.399620e-01
96            	1.766054e+00	1.980714e+02	-1.963054e+02	-4.193540e+02	4.173867e+02	-8.367407e+02	6.270637e+02	1.971884e+02	8.304331e-01	4.737090e-19	8.304331e-01	-8.304331e-01
97            	2.382446e+00	1.930155e+02	-1.906330e+02	-4.079462e+02	4.150623e+02	-8.230086e+02	6.190354e+02	1.918243e+02	1.120273e+00	5.957601e-19	1.120273e+00	-1.120273e+00
98            	3.196978e+00	1.901903e+02	-1.869933e+02	-4.010719e+02	4.158774e+02	-8.169494e+02	6.164134e+02	1.885918e+02	1.503281e+00	6.802839e-19	1.503281e+00	-1.503281e+00
99            	4.062062e+00	1.887769e+02	-1.847148e+02	-3.971462e+02	4.167415e+02	-8.138877e+02	6.153146e+02	1.867458e+02	1.910061e+00	6.682649e-19	1.910061e+00	-1.910061e+00
100           	4.816375e+00	1.883396e+02	-1.835232e+02	-3.954140e+02	4.184316e+02	-8.138456e+02	6.161386e+02	1.859314e+02	2.264753e+00	4.903831e-19	2.264753e+00	-2.264753e+00
101           	5.358744e+00	1.884587e+02	-1.831000e+02	-3.950907e+02	4.229508e+02	-8.180415e+02	6.204962e+02	1.857793e+02	2.519785e+00	2.962730e-19	2.519785e+00	-2.519785e+00
102           	5.800944e+00	1.891940e+02	-1.833930e+02	-3.961842e+02	4.328262e+02	-8.290104e+02	6.309183e+02	1.862935e+02	2.727717e+00	1.858909e-19	2.727717e+00	-2.727717e+00
103           	6.234564e+00	1.908454e+02	-1.846109e+02	-3.992352e+02	4.486988e+02	-8.479340e+02	6.483164e+02	1.877281e+02	2.931613e+00	1.496083e-19	2.931613e+00	-2.931613e+00
104           	6.658825e+00	1.934105e+02	-1.867517e+02	-4.042391e+02	4.678035e+02	-8.720426e+02	6.699230e+02	1.900811e+02	3.131109e+00	1.415456e-19	3.131109e+00	-3.131109e+00
105           	7.046263e+00	1.964179e+02	-1.893716e+02	-4.102229e+02	4.863725e+02	-8.965953e+02	6.914839e+02	1.928948e+02	3.313290e+00	1.480854e-19	3.313290e+00	-3.313290e+00
106           	7.412459e+00	1.995258e+02	-1.921134e+02	-4.164430e+02	5.030271e+02	-9.194701e+02	7.112486e+02	1.958196e+02	3.485482e+00	1.310710e-19	3.485482e+00	-3.485482e+00
107           	7.795140e+00	2.030216e+02	-1.952265e+02	-4.234705e+02	5.196996e+02	-9.431701e+02	7.314348e+02	1.991240e+02	3.665426e+00	1.037403e-19	3.665426e+00	-3.665426e+00
108           	8.202187e+00	2.074774e+02	-1.992752e+02	-4.325135e+02	5.393945e+02	-9.719080e+02	7.556513e+02	2.033763e+02	3.856828e+00	7.181102e-20	3.856828e+00	-3.856828e+00
109           	8.386960e+00	2.123217e+02	-2.039348e+02	-4.426194e+02	5.608956e+02	-1.003515e+03	7.822053e+02	2.081283e+02	3.943712e+00	1.487476e-20	3.943712e+00	-3.943712e+00
110           	8.457098e+00	2.178611e+02	-2.094040e+02	-4.543251e+02	5.858322e+02	-1.040157e+03	8.129948e+02	2.136325e+02	3.976692e+00	2.991483e-20	3.976692e+00	-3.976692e+00
111           	8.478434e+00	2.237194e+02	-2.152409e+02	-4.667611e+02	6.124755e+02	-1.079237e+03	8.458560e+02	2.194801e+02	3.986724e+00	1.502306e-19	3.986724e+00	-3.986724e+00
112           	8.424620e+00	2.290800e+02	-2.206554e+02	-4.782186e+02	6.369876e+02	-1.115206e+03	8.760969e+02	2.248677e+02	3.961420e+00	3.718982e-19	3.961420e+00	-3.961420e+00
113           	8.287098e+00	2.333929e+02	-2.251058e+02	-4.875370e+02	6.566428e+02	-1.144180e+03	9.004113e+02	2.292494e+02	3.896754e+00	6.585797e-19	3.896754e+00	-3.896754e+00
114           	8.119533e+00	2.366876e+02	-2.285681e+02	-4.947219e+02	6.711712e+02	-1.165893e+03	9.185321e+02	2.326278e+02	3.817962e+00	9.709511e-19	3.817962e+00	-3.817962e+00
115           	7.992611e+00	2.395210e+02	-2.315284e+02	-5.008826e+02	6.825201e+02	-1.183403e+03	9.329614e+02	2.355247e+02	3.758281e+00	1.292396e-18	3.758281e+00	-3.758281e+00
116           	7.900530e+00	2.424531e+02	-2.345526e+02	-5.072160e+02	6.928416e+02	-1.200058e+03	9.464496e+02	2.385028e+02	3.714983e+00	1.598474e-18	3.714983e+00	-3.714983e+00
117           	7.777914e+00	2.456875e+02	-2.379096e+02	-5.142249e+02	7.031662e+02	-1.217391e+03	9.602786e+02	2.417986e+02	3.657326e+00	1.848419e-18	3.657326e+00	-3.657326e+00
118           	7.536152e+00	2.487753e+02	-2.412392e+02	-5.210488e+02	7.123160e+02	-1.233365e+03	9.728403e+02	2.450073e+02	3.543645e+00	2.071936e-18	3.543645e+00	-3.543645e+00
119           	7.152719e+00	2.511814e+02	-2.440287e+02	-5.265733e+02	7.188129e+02	-1.245386e+03	9.820996e+02	2.476050e+02	3.363347e+00	2.256609e-18	3.363347e+00	-3.363347e+00
120           	6.667440e+00	2.527515e+02	-2.460841e+02	-5.304285e+02	7.221934e+02	-1.252622e+03	9.874076e+02	2.494178e+02	3.135160e+00	2.422290e-18	3.135160e+00	-3.135160e+00
121           	6.153328e+00	2.538089e+02	-2.476556e+02	-5.332239e+02	7.232282e+02	-1.256452e+03	9.898402e+02	2.507323e+02	2.893414e+00	2.572068e-18	2.893414e+00	-2.893414e+00
122           	5.634920e+00	2.546132e+02	-2.489783e+02	-5.354856e+02	7.223027e+02	-1.257788e+03	9.900455e+02	2.517957e+02	2.649649e+00	2.704731e-18	2.649649e+00	-2.649649e+00
123           	5.072042e+00	2.550646e+02	-2.499925e+02	-5.370440e+02	7.188399e+02	-1.255884e+03	9.873619e+02	2.525285e+02	2.384973e+00	2.798591e-18	2.384973e+00	-2.384973e+00
124           	4.423291e+00	2.552005e+02	-2.507772e+02	-5.380229e+02	7.131407e+02	-1.251164e+03	9.821522e+02	2.529888e+02	2.079917e+00	2.831846e-18	2.079917e+00	-2.079917e+00
125           	3.649595e+00	2.549990e+02	-2.513494e+02	-5.384171e+02	7.057126e+02	-1.244130e+03	9.749212e+02	2.531742e+02	1.716111e+00	2.788792e-18	1.716111e+00	-1.716111e+00
126           	2.724539e+00	2.543940e+02	-2.516695e+02	-5.381142e+02	6.969886e+02	-1.235103e+03	9.660457e+02	2.530318e+02	1.281131e+00	2.661943e-18	1.281131e+00	-1.281131e+00
127           	1.598769e+00	2.527421e+02	-2.511433e+02	-5.357981e+02	6.855618e+02	-1.221360e+03	9.534609e+02	2.519427e+02	7.517721e-01	2.458444e-18	7.517721e-01	-7.517721e-01
128           	3.073859e-01	2.498950e+02	-2.495876e+02	-5.311165e+02	6.714611e+02	-1.202578e+03	9.370193e+02	2.497413e+02	1.445388e-01	2.210586e-18	1.445388e-01	-1.445388e-01
129           	-1.096766e+00	2.463068e+02	-2.474036e+02	-5.249787e+02	6.560038e+02	-1.180983e+03	9.184931e+02	2.468552e+02	-5.157208e-01	1.948251e-18	-5.157208e-01	5.157208e-01
130           	-2.623958e+00	2.427229e+02	-2.453469e+02	-5.189808e+02	6.407606e+02	-1.159741e+03	9.002510e+02	2.440349e+02	-1.233836e+00	1.656180e-18	-1.233836e+00	1.233836e+00
131           	-4.345440e+00	2.391335e+02	-2.434789e+02	-5.131779e+02	6.252303e+02	-1.138408e+03	8.818192e+02	2.413062e+02	-2.043310e+00	1.304161e-18	-2.043310e+00	2.043310e+00
132           	-6.281811e+00	2.351172e+02	-2.413990e+02	-5.066956e+02	6.083427e+02	-1.115038e+03	8.616905e+02	2.382581e+02	-2.953830e+00	8.861017e-19	-2.953830e+00	2.953830e+00
133           	-8.408947e+00	2.306322e+02	-2.390412e+02	-4.994194e+02	5.902047e+02	-1.089624e+03	8.399144e+02	2.348367e+02	-3.954050e+00	3.941786e-19	-3.954050e+00	3.954050e+00
134           	-1.065360e+01	2.257446e+02	-2.363982e+02	-4.914118e+02	5.715406e+02	-1.062952e+03	8.172465e+02	2.310714e+02	-5.009531e+00	-1.448922e-19	-5.009531e+00	5.009531e+00
135           	-1.313501e+01	2.207123e+02	-2.338473e+02	-4.833484e+02	5.520766e+02	-1.035425e+03	7.937508e+02	2.272798e+02	-6.176337e+00	-7.719485e-19	-6.176337e+00	6.176337e+00
136           	-1.592981e+01	2.157142e+02	-2.316440e+02	-4.756910e+02	5.316301e+02	-1.007321e+03	7.694756e+02	2.236791e+02	-7.490507e+00	-1.500965e-18	-7.490507e+00	7.490507e+00
137           	-1.900989e+01	2.109837e+02	-2.299936e+02	-4.689058e+02	5.107996e+02	-9.797054e+02	7.452525e+02	2.204886e+02	-8.938822e+00	-2.310393e-18	-8.938822e+00	8.938822e+00
138           	-2.223667e+01	2.069055e+02	-2.291421e+02	-4.636640e+02	4.910728e+02	-9.547367e+02	7.229047e+02	2.180238e+02	-1.045611e+01	-3.153796e-18	-1.045611e+01	1.045611e+01
139           	-2.552404e+01	2.035787e+02	-2.291027e+02	-4.600846e+02	4.728966e+02	-9.329811e+02	7.029389e+02	2.163407e+02	-1.200190e+01	-4.002379e-18	-1.200190e+01	1.200190e+01
140           	-2.886818e+01	2.012428e+02	-2.301110e+02	-4.586729e+02	4.564771e+02	-9.151500e+02	6.858135e+02	2.156769e+02	-1.357438e+01	-4.875752e-18	-1.357438e+01	1.357438e+01
141           	-3.225383e+01	2.001660e+02	-2.324198e+02	-4.599828e+02	4.420734e+02	-9.020563e+02	6.720649e+02	2.162929e+02	-1.516638e+01	-5.797358e-18	-1.516638e+01	1.516638e+01
142           	-3.563245e+01	2.003163e+02	-2.359487e+02	-4.638951e+02	4.295970e+02	-8.934921e+02	6.615446e+02	2.181325e+02	-1.675507e+01	-6.769751e-18	-1.675507e+01	1.675507e+01
143           	-3.892365e+01	2.015899e+02	-2.405135e+02	-4.701033e+02	4.192210e+02	-8.893243e+02	6.542726e+02	2.210517e+02	-1.830266e+01	-7.766746e-18	-1.830266e+01	1.830266e+01
144           	-4.203810e+01	2.039479e+02	-2.459860e+02	-4.784297e+02	4.114001e+02	-8.898298e+02	6.506149e+02	2.249670e+02	-1.976713e+01	-8.750887e-18	-1.976713e+01	1.976713e+01
145           	-4.489773e+01	2.073549e+02	-2.522527e+02	-4.887161e+02	4.064790e+02	-8.951951e+02	6.508371e+02	2.298038e+02	-2.111179e+01	-9.693905e-18	-2.111179e+01	2.111179e+01
146           	-4.745176e+01	2.117098e+02	-2.591616e+02	-5.006932e+02	4.044277e+02	-9.051210e+02	6.547743e+02	2.354357e+02	-2.231274e+01	-1.055010e-17	-2.231274e+01	2.231274e+01
147           	-4.966525e+01	2.169772e+02	-2.666425e+02	-5.142489e+02	4.053883e+02	-9.196372e+02	6.625128e+02	2.418098e+02	-2.335356e+01	-1.131708e-17	-2.335356e+01	2.335356e+01
148           	-5.151048e+01	2.229999e+02	-2.745103e+02	-5.290192e+02	4.092183e+02	-9.382375e+02	6.737279e+02	2.487551e+02	-2.422123e+01	-1.199797e-17	-2.422123e+01	2.422123e+01
149           	-5.294989e+01	2.294684e+02	-2.824183e+02	-5.443063e+02	4.155173e+02	-9.598236e+02	6.876705e+02	2.559434e+02	-2.489807e+01	-1.259684e-17	-2.489807e+01	2.489807e+01
150           	-5.396459e+01	2.361110e+02	-2.900756e+02	-5.595117e+02	4.239500e+02	-9.834617e+02	7.037059e+02	2.630933e+02	-2.537520e+01	-1.311361e-17	-2.537520e+01	2.537520e+01
151           	-5.456738e+01	2.428298e+02	-2.973972e+02	-5.744414e+02	4.343720e+02	-1.008813e+03	7.215927e+02	2.701135e+02	-2.565864e+01	-1.355390e-17	-2.565864e+01	2.565864e+01
152           	-5.478553e+01	2.495477e+02	-3.043333e+02	-5.889601e+02	4.466002e+02	-1.035560e+03	7.410803e+02	2.769405e+02	-2.576122e+01	-1.391956e-17	-2.576122e+01	2.576122e+01
153           	-5.464481e+01	2.561548e+02	-3.107996e+02	-6.028616e+02	4.603274e+02	-1.063189e+03	7.617582e+02	2.834772e+02	-2.569505e+01	-1.419286e-17	-2.569505e+01	2.569505e+01
154           	-5.416186e+01	2.627616e+02	-3.169234e+02	-6.163984e+02	4.758526e+02	-1.092251e+03	7.840518e+02	2.898425e+02	-2.546796e+01	-1.435090e-17	-2.546796e+01	2.546796e+01
155           	-5.336877e+01	2.692993e+02	-3.226681e+02	-6.294587e+02	4.928203e+02	-1.122279e+03	8.075496e+02	2.959837e+02	-2.509503e+01	-1.436511e-17	-2.509503e+01	2.509503e+01
156           	-5.230100e+01	2.756221e+02	-3.279231e+02	-6.417698e+02	5.106185e+02	-1.152388e+03	8.315034e+02	3.017726e+02	-2.459295e+01	-1.425373e-17	-2.459295e+01	2.459295e+01
157           	-5.098420e+01	2.816358e+02	-3.326200e+02	-6.531587e+02	5.287497e+02	-1.181908e+03	8.553290e+02	3.071279e+02	-2.397376e+01	-1.401914e-17	-2.397376e+01	2.397376e+01
158           	-4.942849e+01	2.873652e+02	-3.367937e+02	-6.636890e+02	5.471138e+02	-1.210803e+03	8.789583e+02	3.120795e+02	-2.324224e+01	-1.368525e-17	-2.324224e+01	2.324224e+01
159           	-4.763634e+01	2.929465e+02	-3.405828e+02	-6.736528e+02	5.661121e+02	-1.239765e+03	9.029385e+02	3.167647e+02	-2.239953e+01	-1.327954e-17	-2.239953e+01	2.239953e+01
160           	-4.561681e+01	2.984751e+02	-3.440920e+02	-6.832630e+02	5.861662e+02	-1.269429e+03	9.277977e+02	3.212835e+02	-2.144991e+01	-1.283789e-17	-2.144991e+01	2.144991e+01
161           	-4.344016e+01	3.036690e+02	-3.471092e+02	-6.919942e+02	6.064132e+02	-1.298407e+03	9.524103e+02	3.253891e+02	-2.042641e+01	-1.238712e-17	-2.042641e+01	2.042641e+01
162           	-4.120745e+01	3.080445e+02	-3.492520e+02	-6.989253e+02	6.251140e+02	-1.324039e+03	9.745767e+02	3.286483e+02	-1.937654e+01	-1.195767e-17	-1.937654e+01	1.937654e+01
163           	-3.897838e+01	3.112566e+02	-3.502350e+02	-7.033861e+02	6.409215e+02	-1.344308e+03	9.926146e+02	3.307458e+02	-1.832839e+01	-1.155302e-17	-1.832839e+01	1.832839e+01
164           	-3.672330e+01	3.132733e+02	-3.499966e+02	-7.052769e+02	6.537190e+02	-1.358996e+03	1.006357e+03	3.316349e+02	-1.726801e+01	-1.116288e-17	-1.726801e+01	1.726801e+01
165           	-3.440628e+01	3.142893e+02	-3.486956e+02	-7.049739e+02	6.640706e+02	-1.369045e+03	1.016558e+03	3.314924e+02	-1.617850e+01	-1.076232e-17	-1.617850e+01	1.617850e+01