# Force and moment coefficients
# dragDir     : (1.000000e+00 0.000000e+00 0.000000e+00)
# sideDir     : (0.000000e+00 0.000000e+00 -1.000000e+00)
# liftDir     : (0.000000e+00 1.000000e+00 0.000000e+00)
# rollAxis    : (1.000000e+00 0.000000e+00 0.000000e+00)
# pitchAxis   : (0.000000e+00 0.000000e+00 -1.000000e+00)
# yawAxis     : (0.000000e+00 1.000000e+00 0.000000e+00)
# magUInf     : 7.300000e+00
# lRef        : 3.190000e-01
# Aref        : 1.595000e-03
# CofR        : (0.000000e+00 0.000000e+00 0.000000e+00)
#
# Time        	Cd            	Cd(f)         	Cd(r)         	Cl            	Cl(f)         	Cl(r)         	CmPitch       	CmRoll        	CmYaw         	Cs            	Cs(f)         	Cs(r)         
1             	-2.910825e+01	-5.013508e+02	4.722426e+02	1.035254e+03	-1.175299e+03	2.210553e+03	-1.692926e+03	-4.867967e+02	-1.368726e+01	-1.595596e-17	-1.368726e+01	1.368726e+01
2             	-6.693847e+00	-4.164064e+02	4.097126e+02	8.784398e+02	-1.103447e+03	1.981887e+03	-1.542667e+03	-4.130595e+02	-3.147577e+00	-1.350659e-18	-3.147577e+00	3.147577e+00
3             	4.354833e+00	-9.351192e+01	9.786675e+01	2.034993e+02	-4.267288e+02	6.302281e+02	-5.284785e+02	-9.568933e+01	2.047727e+00	4.516077e-18	2.047727e+00	-2.047727e+00
4             	6.827654e+00	1.386889e+02	-1.318612e+02	-2.876849e+02	1.804195e+02	-4.681045e+02	3.242620e+02	1.352750e+02	3.210496e+00	4.760606e-18	3.210496e+00	-3.210496e+00
5             	7.100088e+00	1.361739e+02	-1.290738e+02	-2.820467e+02	2.792498e+02	-5.612965e+02	4.202731e+02	1.326238e+02	3.338599e+00	1.622527e-18	3.338599e+00	-3.338599e+00
6             	-4.795891e+00	2.223498e+00	-7.019390e+00	-9.828271e+00	6.302422e+01	-7.285249e+01	6.793835e+01	4.621444e+00	-2.255121e+00	-2.717943e-18	-2.255121e+00	2.255121e+00
7             	-9.587613e+00	-1.605979e+02	1.510103e+02	3.313434e+02	-2.924926e+02	6.238360e+02	-4.581643e+02	-1.558041e+02	-4.508282e+00	-3.757039e-18	-4.508282e+00	4.508282e+00
8             	-2.622574e-02	-2.346902e+02	2.346640e+02	4.990800e+02	-5.313453e+02	1.030425e+03	-7.808853e+02	-2.346771e+02	-1.233185e-02	-2.878166e-19	-1.233185e-02	1.233185e-02
9             	1.156978e+01	-2.134240e+02	2.249938e+02	4.661842e+02	-5.633626e+02	1.029547e+03	-7.964547e+02	-2.192089e+02	5.440335e+00	2.748983e-18	5.440335e+00	-5.440335e+00
10            	2.194816e+01	-1.402461e+02	1.621942e+02	3.215948e+02	-4.681095e+02	7.897043e+02	-6.289069e+02	-1.512201e+02	1.032045e+01	6.074554e-18	1.032045e+01	-1.032045e+01
11            	2.458423e+01	-6.996481e+01	9.454905e+01	1.749331e+02	-3.315659e+02	5.064989e+02	-4.190324e+02	-8.225693e+01	1.155999e+01	7.517441e-18	1.155999e+01	-1.155999e+01
12            	1.941568e+01	-4.295547e+01	6.237115e+01	1.119973e+02	-2.579918e+02	3.699891e+02	-3.139904e+02	-5.266331e+01	9.129629e+00	6.274430e-18	9.129629e+00	-9.129629e+00
13            	1.110664e+01	-5.403074e+01	6.513738e+01	1.267154e+02	-2.573459e+02	3.840613e+02	-3.207036e+02	-5.958406e+01	5.222558e+00	2.975083e-18	5.222558e+00	-5.222558e+00
14            	4.171083e+00	-8.991682e+01	9.408791e+01	1.956584e+02	-3.178771e+02	5.135354e+02	-4.157063e+02	-9.200237e+01	1.961324e+00	-8.287392e-19	1.961324e+00	-1.961324e+00
15            	1.340623e+00	-1.239676e+02	1.253083e+02	2.650634e+02	-3.921167e+02	6.571801e+02	-5.246484e+02	-1.246380e+02	6.303872e-01	-3.479255e-18	6.303872e-01	-6.303872e-01
16            	1.999680e+00	-1.379789e+02	1.399785e+02	2.955614e+02	-4.352237e+02	7.307850e+02	-5.830043e+02	-1.389787e+02	9.402885e-01	-5.061388e-18	9.402885e-01	-9.402885e-01
17            	5.555361e+00	-1.332128e+02	1.387681e+02	2.892064e+02	-4.489106e+02	7.381170e+02	-5.935138e+02	-1.359905e+02	2.612239e+00	-5.291719e-18	2.612239e+00	-2.612239e+00
18            	1.147708e+01	-1.111180e+02	1.225951e+02	2.485149e+02	-4.293279e+02	6.778428e+02	-5.535854e+02	-1.168565e+02	5.396744e+00	-4.549665e-18	5.396744e+00	-5.396744e+00
19            	1.687896e+01	-8.724667e+01	1.041256e+02	2.034925e+02	-3.973014e+02	6.007940e+02	-4.990477e+02	-9.568615e+01	7.936813e+00	-3.377068e-18	7.936813e+00	-7.936813e+00
20            	1.931229e+01	-7.397826e+01	9.329055e+01	1.778625e+02	-3.737605e+02	5.516230e+02	-4.626918e+02	-8.363441e+01	9.081012e+00	-3.183294e-18	9.081012e+00	-9.081012e+00
21            	1.842442e+01	-7.238197e+01	9.080639e+01	1.735236e+02	-3.629382e+02	5.364618e+02	-4.497000e+02	-8.159418e+01	8.663518e+00	-4.168096e-18	8.663518e+00	-8.663518e+00
22            	1.484498e+01	-8.281087e+01	9.765586e+01	1.918963e+02	-3.705331e+02	5.624294e+02	-4.664812e+02	-9.023337e+01	6.980399e+00	-6.350980e-18	6.980399e+00	-6.980399e+00
23            	1.149207e+01	-9.867621e+01	1.101683e+02	2.220713e+02	-3.911340e+02	6.132054e+02	-5.021697e+02	-1.044222e+02	5.403794e+00	-8.681618e-18	5.403794e+00	-5.403794e+00
24            	1.062241e+01	-1.052112e+02	1.158336e+02	2.350444e+02	-3.983164e+02	6.333607e+02	-5.158385e+02	-1.105224e+02	4.994866e+00	-9.654571e-18	4.994866e+00	-4.994866e+00
25            	1.114563e+01	-1.154258e+02	1.265714e+02	2.573236e+02	-4.191378e+02	6.764614e+02	-5.477996e+02	-1.209986e+02	5.240892e+00	-1.058607e-17	5.240892e+00	-5.240892e+00
26            	1.222260e+01	-1.164208e+02	1.286433e+02	2.605848e+02	-4.225763e+02	6.831611e+02	-5.528687e+02	-1.225320e+02	5.747303e+00	-1.024117e-17	5.747303e+00	-5.747303e+00
27            	1.414990e+01	-1.149271e+02	1.290770e+02	2.594577e+02	-4.237071e+02	6.831648e+02	-5.534359e+02	-1.220021e+02	6.653560e+00	-9.101569e-18	6.653560e+00	-6.653560e+00
28            	1.663938e+01	-1.118781e+02	1.285174e+02	2.556206e+02	-4.235080e+02	6.791285e+02	-5.513183e+02	-1.201978e+02	7.824158e+00	-7.650084e-18	7.824158e+00	-7.824158e+00
29            	1.853301e+01	-1.087103e+02	1.272434e+02	2.508974e+02	-4.219825e+02	6.728800e+02	-5.474312e+02	-1.179768e+02	8.714583e+00	-6.121677e-18	8.714583e+00	-8.714583e+00
30            	1.897162e+01	-1.065693e+02	1.255409e+02	2.468105e+02	-4.198313e+02	6.666418e+02	-5.432366e+02	-1.160551e+02	8.920824e+00	-4.782218e-18	8.920824e+00	-8.920824e+00
31            	1.762853e+01	-1.062593e+02	1.238879e+02	2.447232e+02	-4.191527e+02	6.638759e+02	-5.415143e+02	-1.150736e+02	8.289275e+00	-3.460425e-18	8.289275e+00	-8.289275e+00
32            	1.582816e+01	-1.070077e+02	1.228359e+02	2.444003e+02	-4.186891e+02	6.630894e+02	-5.408893e+02	-1.149218e+02	7.442711e+00	-2.799617e-18	7.442711e+00	-7.442711e+00
33            	1.363782e+01	-1.091032e+02	1.227411e+02	2.465278e+02	-4.204593e+02	6.669871e+02	-5.437232e+02	-1.159221e+02	6.412768e+00	-2.310654e-18	6.412768e+00	-6.412768e+00
34            	1.185641e+01	-1.117941e+02	1.236505e+02	2.503561e+02	-4.242717e+02	6.746279e+02	-5.494498e+02	-1.177223e+02	5.575115e+00	-1.805773e-18	5.575115e+00	-5.575115e+00
35            	1.116419e+01	-1.139057e+02	1.250699e+02	2.541108e+02	-4.284164e+02	6.825271e+02	-5.554718e+02	-1.194878e+02	5.249621e+00	-1.314875e-18	5.249621e+00	-5.249621e+00
36            	1.164806e+01	-1.146187e+02	1.262667e+02	2.561415e+02	-4.308919e+02	6.870334e+02	-5.589627e+02	-1.204427e+02	5.477144e+00	-8.840189e-19	5.477144e+00	-5.477144e+00
37            	1.290955e+01	-1.137806e+02	1.266902e+02	2.557006e+02	-4.303174e+02	6.860179e+02	-5.581677e+02	-1.202354e+02	6.070324e+00	-5.960297e-19	6.070324e+00	-6.070324e+00
38            	1.430263e+01	-1.121051e+02	1.264078e+02	2.536187e+02	-4.269929e+02	6.806116e+02	-5.538023e+02	-1.192564e+02	6.725373e+00	-5.304349e-19	6.725373e+00	-6.725373e+00
39            	1.534525e+01	-1.106571e+02	1.260024e+02	2.516480e+02	-4.225045e+02	6.741525e+02	-5.483285e+02	-1.183298e+02	7.215636e+00	-6.304137e-19	7.215636e+00	-7.215636e+00
40            	1.583108e+01	-1.102129e+02	1.260440e+02	2.512198e+02	-4.182336e+02	6.694534e+02	-5.438435e+02	-1.181284e+02	7.444081e+00	-8.389415e-19	7.444081e+00	-7.444081e+00
41            	1.568424e+01	-1.113570e+02	1.270413e+02	2.534969e+02	-4.153938e+02	6.688907e+02	-5.421422e+02	-1.191992e+02	7.375035e+00	-1.236421e-18	7.375035e+00	-7.375035e+00
42            	1.493557e+01	-1.144690e+02	1.294045e+02	2.593188e+02	-4.153638e+02	6.746826e+02	-5.450232e+02	-1.219367e+02	7.022995e+00	-1.638121e-18	7.022995e+00	-7.022995e+00
43            	1.392640e+01	-1.189079e+02	1.328343e+02	2.676858e+02	-4.186070e+02	6.862928e+02	-5.524499e+02	-1.258711e+02	6.548462e+00	-1.993775e-18	6.548462e+00	-6.548462e+00
44            	1.312554e+01	-1.231928e+02	1.363183e+02	2.759468e+02	-4.233239e+02	6.992707e+02	-5.612973e+02	-1.297556e+02	6.171883e+00	-2.189237e-18	6.171883e+00	-6.171883e+00
45            	1.266302e+01	-1.264197e+02	1.390827e+02	2.823176e+02	-4.271755e+02	7.094931e+02	-5.683343e+02	-1.327512e+02	5.954399e+00	-2.271747e-18	5.954399e+00	-5.954399e+00
46            	1.240551e+01	-1.283514e+02	1.407569e+02	2.861517e+02	-4.286216e+02	7.147733e+02	-5.716975e+02	-1.345541e+02	5.833310e+00	-2.233841e-18	5.833310e+00	-5.833310e+00
47            	1.213507e+01	-1.290407e+02	1.411758e+02	2.873303e+02	-4.268818e+02	7.142121e+02	-5.705470e+02	-1.351083e+02	5.706145e+00	-2.172149e-18	5.706145e+00	-5.706145e+00
48            	1.159656e+01	-1.288196e+02	1.404162e+02	2.862874e+02	-4.211728e+02	7.074602e+02	-5.643165e+02	-1.346179e+02	5.452929e+00	-2.314796e-18	5.452929e+00	-5.452929e+00
49            	1.112598e+01	-1.283069e+02	1.394329e+02	2.846967e+02	-4.174814e+02	7.021782e+02	-5.598298e+02	-1.338699e+02	5.231651e+00	-2.238831e-18	5.231651e+00	-5.231651e+00
50            	1.038195e+01	-1.278153e+02	1.381973e+02	2.828601e+02	-4.129439e+02	6.958040e+02	-5.543739e+02	-1.330063e+02	4.881794e+00	-2.207356e-18	4.881794e+00	-4.881794e+00
51            	9.030798e+00	-1.271360e+02	1.361668e+02	2.799786e+02	-4.045811e+02	6.845597e+02	-5.445704e+02	-1.316514e+02	4.246457e+00	-2.154101e-18	4.246457e+00	-4.246457e+00
52            	8.071520e+00	-1.277958e+02	1.358674e+02	2.803619e+02	-4.027649e+02	6.831268e+02	-5.429459e+02	-1.318316e+02	3.795386e+00	-2.334276e-18	3.795386e+00	-3.795386e+00
53            	6.718948e+00	-1.288479e+02	1.355668e+02	2.811610e+02	-4.006133e+02	6.817743e+02	-5.411938e+02	-1.322074e+02	3.159380e+00	-2.769487e-18	3.159380e+00	-3.159380e+00
54            	4.426597e+00	-1.299877e+02	1.344143e+02	2.811474e+02	-3.951374e+02	6.762849e+02	-5.357111e+02	-1.322010e+02	2.081472e+00	-3.454903e-18	2.081472e+00	-2.081472e+00
55            	3.450486e+00	-1.300895e+02	1.335400e+02	2.803261e+02	-3.917262e+02	6.720523e+02	-5.318893e+02	-1.318148e+02	1.622486e+00	-4.010316e-18	1.622486e+00	-1.622486e+00
56            	2.480303e+00	-1.294315e+02	1.319118e+02	2.778950e+02	-3.866298e+02	6.645249e+02	-5.255774e+02	-1.306717e+02	1.166287e+00	-4.663938e-18	1.166287e+00	-1.166287e+00
57            	8.595761e-01	-1.271092e+02	1.279688e+02	2.712329e+02	-3.751405e+02	6.463734e+02	-5.107569e+02	-1.275390e+02	4.041894e-01	-5.722949e-18	4.041894e-01	-4.041894e-01
58            	1.705303e-02	-1.259917e+02	1.260088e+02	2.679605e+02	-3.693400e+02	6.373005e+02	-5.033203e+02	-1.260002e+02	8.018665e-03	-6.230306e-18	8.018665e-03	-8.018665e-03
59            	-1.089067e+00	-1.247559e+02	1.236668e+02	2.641561e+02	-3.624702e+02	6.266263e+02	-4.945483e+02	-1.242114e+02	-5.121004e-01	-6.703210e-18	-5.121004e-01	5.121004e-01
60            	-3.130926e+00	-1.224476e+02	1.193167e+02	2.570760e+02	-3.501495e+02	6.072255e+02	-4.786875e+02	-1.208821e+02	-1.472222e+00	-7.309906e-18	-1.472222e+00	1.472222e+00
61            	-4.199487e+00	-1.210031e+02	1.168036e+02	2.528678e+02	-3.432392e+02	5.961070e+02	-4.696731e+02	-1.189034e+02	-1.974680e+00	-7.391556e-18	-1.974680e+00	1.974680e+00
62            	-5.583513e+00	-1.191422e+02	1.135587e+02	2.474387e+02	-3.349983e+02	5.824370e+02	-4.587177e+02	-1.163505e+02	-2.625476e+00	-7.509155e-18	-2.625476e+00	2.625476e+00
63            	-7.960383e+00	-1.159322e+02	1.079718e+02	2.380845e+02	-3.212670e+02	5.593515e+02	-4.403092e+02	-1.119520e+02	-3.743127e+00	-7.579737e-18	-3.743127e+00	3.743127e+00
64            	-8.875384e+00	-1.139875e+02	1.051122e+02	2.329760e+02	-3.149296e+02	5.479056e+02	-4.314176e+02	-1.095498e+02	-4.173378e+00	-7.451127e-18	-4.173378e+00	4.173378e+00
65            	-1.066017e+01	-1.103047e+02	9.964455e+01	2.232461e+02	-3.021354e+02	5.253815e+02	-4.137584e+02	-1.049746e+02	-5.012618e+00	-7.499198e-18	-5.012618e+00	5.012618e+00
66            	-1.223496e+01	-1.064687e+02	9.423375e+01	2.134136e+02	-2.898182e+02	5.032318e+02	-3.965250e+02	-1.003512e+02	-5.753115e+00	-7.583893e-18	-5.753115e+00	5.753115e+00
67            	-1.316048e+01	-1.039911e+02	9.083066e+01	2.071605e+02	-2.833146e+02	4.904751e+02	-3.868948e+02	-9.741090e+01	-6.188315e+00	-7.682269e-18	-6.188315e+00	6.188315e+00
68            	-1.518719e+01	-9.893124e+01	8.374405e+01	1.942447e+02	-2.674931e+02	4.617379e+02	-3.646155e+02	-9.133765e+01	-7.141312e+00	-8.043794e-18	-7.141312e+00	7.141312e+00
69            	-1.688861e+01	-9.394006e+01	7.705146e+01	1.818210e+02	-2.531547e+02	4.349757e+02	-3.440652e+02	-8.549576e+01	-7.941351e+00	-8.341989e-18	-7.941351e+00	7.941351e+00
70            	-1.772885e+01	-9.086127e+01	7.313243e+01	1.743800e+02	-2.462083e+02	4.205883e+02	-3.333983e+02	-8.199685e+01	-8.336448e+00	-8.551698e-18	-8.336448e+00	8.336448e+00
71            	-1.960085e+01	-8.540589e+01	6.580504e+01	1.607876e+02	-2.304585e+02	3.912462e+02	-3.108523e+02	-7.560546e+01	-9.216701e+00	-8.913269e-18	-9.216701e+00	9.216701e+00
72            	-2.118235e+01	-8.023124e+01	5.904889e+01	1.481012e+02	-2.160177e+02	3.641189e+02	-2.900683e+02	-6.964007e+01	-9.960351e+00	-9.225567e-18	-9.960351e+00	9.960351e+00
73            	-2.231949e+01	-7.558972e+01	5.327023e+01	1.370211e+02	-2.040103e+02	3.410314e+02	-2.725208e+02	-6.442998e+01	-1.049506e+01	-9.453041e-18	-1.049506e+01	1.049506e+01
74            	-2.330064e+01	-7.120586e+01	4.790522e+01	1.266548e+02	-1.929784e+02	3.196332e+02	-2.563058e+02	-5.955554e+01	-1.095641e+01	-9.646584e-18	-1.095641e+01	1.095641e+01
75            	-2.430673e+01	-6.662608e+01	4.231935e+01	1.158453e+02	-1.813116e+02	2.971569e+02	-2.392342e+02	-5.447271e+01	-1.142950e+01	-9.797299e-18	-1.142950e+01	1.142950e+01
76            	-2.523302e+01	-6.164028e+01	3.640726e+01	1.042572e+02	-1.688578e+02	2.731150e+02	-2.209864e+02	-4.902377e+01	-1.186505e+01	-9.828635e-18	-1.186505e+01	1.186505e+01
77            	-2.593506e+01	-5.634319e+01	3.040813e+01	9.224557e+01	-1.562551e+02	2.485007e+02	-2.023779e+02	-4.337566e+01	-1.219517e+01	-9.697704e-18	-1.219517e+01	1.219517e+01
78            	-2.639936e+01	-5.106198e+01	2.466262e+01	8.052050e+01	-1.441548e+02	2.246753e+02	-1.844151e+02	-3.786230e+01	-1.241349e+01	-9.447534e-18	-1.241349e+01	1.241349e+01
79            	-2.667224e+01	-4.611229e+01	1.944005e+01	6.970400e+01	-1.329509e+02	2.026549e+02	-1.678029e+02	-3.277617e+01	-1.254181e+01	-9.129369e-18	-1.254181e+01	1.254181e+01
80            	-2.676507e+01	-4.163966e+01	1.487459e+01	6.009349e+01	-1.228372e+02	1.829307e+02	-1.528839e+02	-2.825713e+01	-1.258546e+01	-8.803686e-18	-1.258546e+01	1.258546e+01
81            	-2.665088e+01	-3.759189e+01	1.094102e+01	5.160666e+01	-1.138024e+02	1.654090e+02	-1.396057e+02	-2.426646e+01	-1.253176e+01	-8.518963e-18	-1.253176e+01	1.253176e+01
82            	-2.630280e+01	-3.379483e+01	7.492036e+00	4.390170e+01	-1.056430e+02	1.495447e+02	-1.275939e+02	-2.064343e+01	-1.236809e+01	-8.286155e-18	-1.236809e+01	1.236809e+01
83            	-2.570495e+01	-3.012986e+01	4.424909e+00	3.674324e+01	-9.824795e+01	1.349912e+02	-1.166196e+02	-1.727738e+01	-1.208697e+01	-8.095666e-18	-1.208697e+01	1.208697e+01
84            	-2.500710e+01	-2.790724e+01	2.900137e+00	3.275851e+01	-9.460148e+01	1.273600e+02	-1.109807e+02	-1.540369e+01	-1.175883e+01	-8.000603e-18	-1.175883e+01	1.175883e+01
85            	-2.369659e+01	-2.366352e+01	-3.307029e-02	2.512705e+01	-8.689251e+01	1.120196e+02	-9.945603e+01	-1.181523e+01	-1.114260e+01	-7.755993e-18	-1.114260e+01	1.114260e+01
86            	-2.265760e+01	-2.152640e+01	-1.131201e+00	2.168689e+01	-8.368690e+01	1.053738e+02	-9.453034e+01	-1.019760e+01	-1.065404e+01	-7.645442e-18	-1.065404e+01	1.065404e+01
87            	-2.125564e+01	-1.949119e+01	-1.764446e+00	1.884944e+01	-8.103155e+01	9.988099e+01	-9.045627e+01	-8.863372e+00	-9.994813e+00	-7.448916e-18	-9.994813e+00	9.994813e+00
88            	-1.949895e+01	-1.772769e+01	-1.771261e+00	1.696701e+01	-7.929508e+01	9.626209e+01	-8.777859e+01	-7.978216e+00	-9.168787e+00	-7.146859e-18	-9.168787e+00	9.168787e+00
89            	-1.764789e+01	-1.667889e+01	-9.690054e-01	1.670484e+01	-7.900401e+01	9.570884e+01	-8.735643e+01	-7.854940e+00	-8.298381e+00	-6.771806e-18	-8.298381e+00	8.298381e+00
90            	-1.584585e+01	-1.656746e+01	7.216032e-01	1.838404e+01	-8.038752e+01	9.877155e+01	-8.957954e+01	-8.644531e+00	-7.451029e+00	-6.335033e-18	-7.451029e+00	7.451029e+00
91            	-1.403019e+01	-1.733052e+01	3.300327e+00	2.193747e+01	-8.342649e+01	1.053640e+02	-9.439522e+01	-1.031542e+01	-6.597268e+00	-5.816088e-18	-6.597268e+00	6.597268e+00
92            	-1.215710e+01	-1.885444e+01	6.697342e+00	2.717006e+01	-8.802070e+01	1.151908e+02	-1.016057e+02	-1.277589e+01	-5.716503e+00	-5.230085e-18	-5.716503e+00	5.716503e+00
93            	-1.030338e+01	-2.103310e+01	1.072972e+01	3.377447e+01	-9.397293e+01	1.277474e+02	-1.108602e+02	-1.588141e+01	-4.844848e+00	-4.620008e-18	-4.844848e+00	4.844848e+00
94            	-8.548137e+00	-2.375352e+01	1.520539e+01	4.142631e+01	-1.009916e+02	1.424179e+02	-1.217048e+02	-1.947945e+01	-4.019500e+00	-4.062151e-18	-4.019500e+00	4.019500e+00
95            	-6.932072e+00	-2.685059e+01	1.991852e+01	4.973115e+01	-1.087237e+02	1.584549e+02	-1.335893e+02	-2.338455e+01	-3.259595e+00	-3.541713e-18	-3.259595e+00	3.259595e+00
96            	-5.480516e+00	-3.023195e+01	2.475143e+01	5.846566e+01	-1.169361e+02	1.754018e+02	-1.461690e+02	-2.749169e+01	-2.577045e+00	-3.097280e-18	-2.577045e+00	2.577045e+00
97            	-4.240303e+00	-3.379796e+01	2.955765e+01	6.736813e+01	-1.254530e+02	1.928211e+02	-1.591371e+02	-3.167781e+01	-1.993873e+00	-2.802114e-18	-1.993873e+00	1.993873e+00
98            	-3.246117e+00	-3.747565e+01	3.422953e+01	7.624651e+01	-1.342627e+02	2.105092e+02	-1.723860e+02	-3.585259e+01	-1.526387e+00	-2.637229e-18	-1.526387e+00	1.526387e+00
99            	-2.557664e+00	-4.115155e+01	3.859389e+01	8.479598e+01	-1.432615e+02	2.280575e+02	-1.856595e+02	-3.987272e+01	-1.202663e+00	-2.621741e-18	-1.202663e+00	1.202663e+00
100           	-1.907760e+00	-4.617240e+01	4.426464e+01	9.616472e+01	-1.569255e+02	2.530902e+02	-2.050078e+02	-4.521852e+01	-8.970657e-01	-2.685308e-18	-8.970657e-01	8.970657e-01
101           	-2.213378e+00	-4.816425e+01	4.595087e+01	1.000757e+02	-1.620089e+02	2.620847e+02	-2.120468e+02	-4.705756e+01	-1.040773e+00	-2.933018e-18	-1.040773e+00	1.040773e+00
102           	-2.798419e+00	-4.949564e+01	4.669722e+01	1.022851e+02	-1.663105e+02	2.685955e+02	-2.174530e+02	-4.809643e+01	-1.315871e+00	-3.275996e-18	-1.315871e+00	1.315871e+00
103           	-3.526131e+00	-5.017604e+01	4.664991e+01	1.029583e+02	-1.721312e+02	2.750895e+02	-2.236103e+02	-4.841298e+01	-1.658055e+00	-3.776191e-18	-1.658055e+00	1.658055e+00
104           	-4.290230e+00	-5.031577e+01	4.602554e+01	1.024429e+02	-1.750452e+02	2.774881e+02	-2.262666e+02	-4.817065e+01	-2.017350e+00	-4.183785e-18	-2.017350e+00	2.017350e+00
105           	-5.468881e+00	-4.983353e+01	4.436465e+01	1.001641e+02	-1.770283e+02	2.771924e+02	-2.271103e+02	-4.709909e+01	-2.571574e+00	-4.663136e-18	-2.571574e+00	2.571574e+00
106           	-6.942242e+00	-4.849685e+01	4.155461e+01	9.575472e+01	-1.780147e+02	2.737694e+02	-2.258921e+02	-4.502573e+01	-3.264377e+00	-5.249830e-18	-3.264377e+00	3.264377e+00
107           	-8.243986e+00	-4.613422e+01	3.789024e+01	8.934601e+01	-1.779517e+02	2.672977e+02	-2.226247e+02	-4.201223e+01	-3.876482e+00	-5.716242e-18	-3.876482e+00	3.876482e+00
108           	-9.119266e+00	-4.280088e+01	3.368162e+01	8.132640e+01	-1.765182e+02	2.578446e+02	-2.171814e+02	-3.824125e+01	-4.288056e+00	-5.991835e-18	-4.288056e+00	4.288056e+00
109           	-9.632512e+00	-3.905347e+01	2.942095e+01	7.281113e+01	-1.741413e+02	2.469524e+02	-2.105468e+02	-3.423721e+01	-4.529394e+00	-6.110907e-18	-4.529394e+00	4.529394e+00
110           	-9.869323e+00	-3.544453e+01	2.557521e+01	6.488433e+01	-1.715947e+02	2.364790e+02	-2.040369e+02	-3.050987e+01	-4.640748e+00	-6.142113e-18	-4.640748e+00	4.640748e+00
111           	-9.781802e+00	-3.235134e+01	2.256954e+01	5.839921e+01	-1.697512e+02	2.281504e+02	-1.989508e+02	-2.746044e+01	-4.599594e+00	-6.081525e-18	-4.599594e+00	4.599594e+00
112           	-9.290991e+00	-3.003481e+01	2.074382e+01	5.399460e+01	-1.692377e+02	2.232323e+02	-1.962350e+02	-2.538931e+01	-4.368804e+00	-5.900286e-18	-4.368804e+00	4.368804e+00
113           	-8.443653e+00	-2.875982e+01	2.031617e+01	5.218413e+01	-1.702647e+02	2.224488e+02	-1.963567e+02	-2.453799e+01	-3.970370e+00	-5.603491e-18	-3.970370e+00	3.970370e+00
114           	-7.367680e+00	-2.873004e+01	2.136236e+01	5.326492e+01	-1.729194e+02	2.261844e+02	-1.995519e+02	-2.504620e+01	-3.464426e+00	-5.234801e-18	-3.464426e+00	3.464426e+00
115           	-6.154360e+00	-3.001673e+01	2.386237e+01	5.729145e+01	-1.772631e+02	2.345545e+02	-2.059088e+02	-2.693955e+01	-2.893900e+00	-4.825609e-18	-2.893900e+00	2.893900e+00
116           	-4.821882e+00	-3.240384e+01	2.758195e+01	6.378489e+01	-1.832633e+02	2.470482e+02	-2.151558e+02	-2.999290e+01	-2.267343e+00	-4.392000e-18	-2.267343e+00	2.267343e+00
117           	-3.443732e+00	-3.546665e+01	3.202292e+01	7.176391e+01	-1.902240e+02	2.619879e+02	-2.261060e+02	-3.374479e+01	-1.619310e+00	-3.923702e-18	-1.619310e+00	1.619310e+00
118           	-2.076178e+00	-3.876191e+01	3.668574e+01	8.022600e+01	-1.974018e+02	2.776278e+02	-2.375148e+02	-3.772383e+01	-9.762594e-01	-3.412302e-18	-9.762594e-01	9.762594e-01
119           	-7.041774e-01	-4.208986e+01	4.138569e+01	8.876233e+01	-2.046534e+02	2.934158e+02	-2.490346e+02	-4.173777e+01	-3.311179e-01	-2.846415e-18	-3.311179e-01	3.311179e-01
120           	6.032275e-01	-4.552121e+01	4.612444e+01	9.744987e+01	-2.118731e+02	3.093230e+02	-2.605981e+02	-4.582282e+01	2.836493e-01	-2.250888e-18	2.836493e-01	-2.836493e-01
121           	1.765948e+00	-4.917158e+01	5.093753e+01	1.064494e+02	-2.190981e+02	3.255475e+02	-2.723228e+02	-5.005456e+01	8.303829e-01	-1.653405e-18	8.303829e-01	-8.303829e-01
122           	2.754583e+00	-5.308518e+01	5.583976e+01	1.158235e+02	-2.265197e+02	3.423432e+02	-2.844314e+02	-5.446247e+01	1.295258e+00	-1.091186e-18	1.295258e+00	-1.295258e+00
123           	3.590667e+00	-5.718634e+01	6.077701e+01	1.254344e+02	-2.342811e+02	3.597155e+02	-2.969983e+02	-5.898167e+01	1.688401e+00	-6.109219e-19	1.688401e+00	-1.688401e+00
124           	4.298047e+00	-6.134911e+01	6.564716e+01	1.350394e+02	-2.423946e+02	3.774340e+02	-3.099143e+02	-6.349813e+01	2.021025e+00	-2.750228e-19	2.021025e+00	-2.021025e+00
125           	4.881468e+00	-6.540753e+01	7.028900e+01	1.442906e+02	-2.505859e+02	3.948765e+02	-3.227312e+02	-6.784826e+01	2.295361e+00	-5.346863e-20	2.295361e+00	-2.295361e+00
126           	5.333079e+00	-6.921906e+01	7.455214e+01	1.528767e+02	-2.584402e+02	4.113169e+02	-3.348786e+02	-7.188560e+01	2.507717e+00	4.857999e-20	2.507717e+00	-2.507717e+00
127           	5.654370e+00	-7.271378e+01	7.836815e+01	1.606505e+02	-2.656485e+02	4.262989e+02	-3.459737e+02	-7.554097e+01	2.658794e+00	1.723781e-20	2.658794e+00	-2.658794e+00
128           	5.838190e+00	-7.592718e+01	8.176536e+01	1.676797e+02	-2.721061e+02	4.397859e+02	-3.559460e+02	-7.884627e+01	2.745230e+00	-1.881314e-19	2.745230e+00	-2.745230e+00
129           	5.873616e+00	-7.893181e+01	8.480542e+01	1.741073e+02	-2.778294e+02	4.519367e+02	-3.648830e+02	-8.186861e+01	2.761888e+00	-5.664958e-19	2.761888e+00	-2.761888e+00
130           	5.711015e+00	-8.195617e+01	8.766719e+01	1.803662e+02	-2.830783e+02	4.634445e+02	-3.732614e+02	-8.481168e+01	2.685430e+00	-1.123306e-18	2.685430e+00	-2.685430e+00
131           	5.437826e+00	-8.496496e+01	9.040279e+01	1.864744e+02	-2.881438e+02	4.746182e+02	-3.813810e+02	-8.768388e+01	2.556972e+00	-1.777477e-18	2.556972e+00	-2.556972e+00
132           	5.139658e+00	-8.783463e+01	9.297429e+01	1.922602e+02	-2.929524e+02	4.852126e+02	-3.890825e+02	-9.040446e+01	2.416767e+00	-2.444879e-18	2.416767e+00	-2.416767e+00
133           	4.866518e+00	-9.044656e+01	9.531308e+01	1.975244e+02	-2.973663e+02	4.948907e+02	-3.961285e+02	-9.287982e+01	2.288331e+00	-3.089074e-18	2.288331e+00	-2.288331e+00
134           	4.606029e+00	-9.274012e+01	9.734615e+01	2.021251e+02	-3.012151e+02	5.033402e+02	-4.022777e+02	-9.504314e+01	2.165845e+00	-3.690596e-18	2.165845e+00	-2.165845e+00
135           	4.321311e+00	-9.472682e+01	9.904813e+01	2.060474e+02	-3.044596e+02	5.105070e+02	-4.074833e+02	-9.688747e+01	2.031965e+00	-4.233594e-18	2.031965e+00	-2.031965e+00
136           	3.965417e+00	-9.645162e+01	1.004170e+02	2.093370e+02	-3.070660e+02	5.164030e+02	-4.117345e+02	-9.843433e+01	1.864616e+00	-4.724035e-18	1.864616e+00	-1.864616e+00
137           	3.504998e+00	-9.797706e+01	1.014821e+02	2.120915e+02	-3.090460e+02	5.211375e+02	-4.150918e+02	-9.972956e+01	1.648118e+00	-5.139760e-18	1.648118e+00	-1.648118e+00
138           	2.935391e+00	-9.931865e+01	1.022540e+02	2.143390e+02	-3.104519e+02	5.247909e+02	-4.176214e+02	-1.007863e+02	1.380278e+00	-5.478481e-18	1.380278e+00	-1.380278e+00
139           	2.272835e+00	-1.004350e+02	1.027079e+02	2.160086e+02	-3.112962e+02	5.273048e+02	-4.193005e+02	-1.015715e+02	1.068731e+00	-5.733274e-18	1.068731e+00	-1.068731e+00
140           	1.550245e+00	-1.012504e+02	1.028007e+02	2.169744e+02	-3.115844e+02	5.285588e+02	-4.200716e+02	-1.020256e+02	7.289554e-01	-5.908260e-18	7.289554e-01	-7.289554e-01
141           	7.568967e-01	-1.016843e+02	1.024412e+02	2.170535e+02	-3.112282e+02	5.282816e+02	-4.197549e+02	-1.020628e+02	3.559075e-01	-6.009513e-18	3.559075e-01	-3.559075e-01
142           	-7.378896e-02	-1.016461e+02	1.015723e+02	2.160890e+02	-3.101831e+02	5.262721e+02	-4.182276e+02	-1.016092e+02	-3.469700e-02	-6.042869e-18	-3.469700e-02	3.469700e-02
143           	-9.165271e-01	-1.011001e+02	1.001836e+02	2.140316e+02	-3.083776e+02	5.224092e+02	-4.153934e+02	-1.006418e+02	-4.309689e-01	-6.012227e-18	-4.309689e-01	4.309689e-01
144           	-1.777474e+00	-1.000647e+02	9.828720e+01	2.109142e+02	-3.057118e+02	5.166259e+02	-4.111688e+02	-9.917594e+01	-8.358029e-01	-5.941489e-18	-8.358029e-01	8.358029e-01
145           	-2.668954e+00	-9.861049e+01	9.594154e+01	2.068737e+02	-3.021485e+02	5.090222e+02	-4.055853e+02	-9.727602e+01	-1.254994e+00	-5.857118e-18	-1.254994e+00	1.254994e+00
146           	-3.575213e+00	-9.684867e+01	9.327346e+01	2.021632e+02	-2.978002e+02	4.999634e+02	-3.988818e+02	-9.506106e+01	-1.681135e+00	-5.783124e-18	-1.681135e+00	1.681135e+00
147           	-4.480174e+00	-9.491966e+01	9.043949e+01	1.970986e+02	-2.928505e+02	4.899491e+02	-3.913998e+02	-9.267957e+01	-2.106665e+00	-5.743414e-18	-2.106665e+00	2.106665e+00
148           	-5.370547e+00	-9.298506e+01	8.761452e+01	1.920376e+02	-2.875294e+02	4.795670e+02	-3.835482e+02	-9.029979e+01	-2.525336e+00	-5.759356e-18	-2.525336e+00	2.525336e+00
149           	-6.488948e+00	-9.054912e+01	8.406017e+01	1.856679e+02	-2.794903e+02	4.651582e+02	-3.723242e+02	-8.730465e+01	-3.051229e+00	-5.869330e-18	-3.051229e+00	3.051229e+00
150           	-6.987983e+00	-8.937900e+01	8.239102e+01	1.826488e+02	-2.762245e+02	4.588733e+02	-3.675489e+02	-8.588501e+01	-3.285885e+00	-5.984274e-18	-3.285885e+00	3.285885e+00
151           	-7.674691e+00	-8.829346e+01	8.061877e+01	1.796100e+02	-2.723095e+02	4.519195e+02	-3.621145e+02	-8.445611e+01	-3.608789e+00	-6.187260e-18	-3.608789e+00	3.608789e+00
152           	-8.831417e+00	-8.665397e+01	7.782255e+01	1.748934e+02	-2.647928e+02	4.396862e+02	-3.522395e+02	-8.223826e+01	-4.152704e+00	-6.506166e-18	-4.152704e+00	4.152704e+00
153           	-9.336256e+00	-8.545505e+01	7.611879e+01	1.718069e+02	-2.604255e+02	4.322323e+02	-3.463289e+02	-8.078692e+01	-4.390089e+00	-6.696018e-18	-4.390089e+00	4.390089e+00
154           	-9.892137e+00	-8.409875e+01	7.420662e+01	1.683314e+02	-2.552613e+02	4.235927e+02	-3.394270e+02	-7.915269e+01	-4.651475e+00	-6.888536e-18	-4.651475e+00	4.651475e+00
155           	-1.089531e+01	-8.206965e+01	7.117433e+01	1.629494e+02	-2.464647e+02	4.094142e+02	-3.279395e+02	-7.662199e+01	-5.123188e+00	-7.165747e-18	-5.123188e+00	5.123188e+00
156           	-1.120326e+01	-8.086359e+01	6.966033e+01	1.600571e+02	-2.421322e+02	4.021893e+02	-3.221608e+02	-7.526196e+01	-5.267990e+00	-7.231795e-18	-5.267990e+00	5.267990e+00
157           	-1.153719e+01	-7.964364e+01	6.810645e+01	1.571076e+02	-2.375155e+02	3.946231e+02	-3.160693e+02	-7.387505e+01	-5.425013e+00	-7.274882e-18	-5.425013e+00	5.425013e+00
158           	-1.201140e+01	-7.827945e+01	6.626805e+01	1.537022e+02	-2.319984e+02	3.857006e+02	-3.088495e+02	-7.227375e+01	-5.647994e+00	-7.314690e-18	-5.647994e+00	5.647994e+00
159           	-1.290979e+01	-7.587811e+01	6.296833e+01	1.476400e+02	-2.225965e+02	3.702365e+02	-2.964165e+02	-6.942322e+01	-6.070432e+00	-7.368021e-18	-6.070432e+00	6.070432e+00
160           	-1.305960e+01	-7.452443e+01	6.146483e+01	1.446019e+02	-2.187638e+02	3.633658e+02	-2.910648e+02	-6.799463e+01	-6.140877e+00	-7.268674e-18	-6.140877e+00	6.140877e+00
161           	-1.319821e+01	-7.285371e+01	5.965550e+01	1.409015e+02	-2.145115e+02	3.554129e+02	-2.849622e+02	-6.625461e+01	-6.206054e+00	-7.150227e-18	-6.206054e+00	6.206054e+00
162           	-1.380050e+01	-6.947834e+01	5.567785e+01	1.330828e+02	-2.049757e+02	3.380585e+02	-2.715171e+02	-6.257810e+01	-6.489262e+00	-7.041048e-18	-6.489262e+00	6.489262e+00
163           	-1.402404e+01	-6.771942e+01	5.369538e+01	1.291044e+02	-2.007086e+02	3.298130e+02	-2.652608e+02	-6.070740e+01	-6.594375e+00	-6.979427e-18	-6.594375e+00	6.594375e+00
164           	-1.434158e+01	-6.564437e+01	5.130279e+01	1.243538e+02	-1.955397e+02	3.198935e+02	-2.577166e+02	-5.847358e+01	-6.743689e+00	-6.957965e-18	-6.743689e+00	6.743689e+00