# Force and moment coefficients
# dragDir     : (1.000000e+00 0.000000e+00 0.000000e+00)
# sideDir     : (0.000000e+00 0.000000e+00 -1.000000e+00)
# liftDir     : (0.000000e+00 1.000000e+00 0.000000e+00)
# rollAxis    : (1.000000e+00 0.000000e+00 0.000000e+00)
# pitchAxis   : (0.000000e+00 0.000000e+00 -1.000000e+00)
# yawAxis     : (0.000000e+00 1.000000e+00 0.000000e+00)
# magUInf     : 7.300000e+00
# lRef        : 3.190000e-01
# Aref        : 1.595000e-03
# CofR        : (0.000000e+00 0.000000e+00 0.000000e+00)
#
# Time        	Cd            	Cd(f)         	Cd(r)         	Cl            	Cl(f)         	Cl(r)         	CmPitch       	CmRoll        	CmYaw         	Cs            	Cs(f)         	Cs(r)         
1             	4.132353e+01	-4.199827e+02	4.613062e+02	9.371039e+02	-1.911667e+03	2.848771e+03	-2.380219e+03	-4.406445e+02	1.943113e+01	6.979022e-17	1.943113e+01	-1.943113e+01
2             	3.092536e+02	5.496839e+02	-2.404303e+02	-8.401548e+02	-1.568469e+03	7.283142e+02	-1.148392e+03	3.950571e+02	1.454170e+02	2.223876e-16	1.454170e+02	-1.454170e+02
3             	3.656979e+02	-8.551234e+02	1.220821e+03	2.207421e+03	-3.614119e+03	5.821541e+03	-4.717830e+03	-1.037972e+03	1.719582e+02	1.313443e-16	1.719582e+02	-1.719582e+02
4             	2.033935e+02	-1.423275e+03	1.626668e+03	3.243106e+03	-3.043825e+03	6.286932e+03	-4.665378e+03	-1.524972e+03	9.563957e+01	-2.968182e-17	9.563957e+01	-9.563957e+01
5             	6.693870e+01	-6.353274e+02	7.022661e+02	1.422308e+03	-8.329623e+02	2.255270e+03	-1.544116e+03	-6.687967e+02	3.147588e+01	-6.740316e-17	3.147588e+01	-3.147588e+01
6             	-2.891111e+01	3.990122e+02	-4.279233e+02	-8.793080e+02	-2.949389e+02	-5.843691e+02	1.447151e+02	4.134677e+02	-1.359457e+01	-5.726213e-17	-1.359457e+01	1.359457e+01
7             	-8.279009e+01	1.204862e+03	-1.287652e+03	-2.650373e+03	-4.493570e+02	-2.201016e+03	8.758295e+02	1.246257e+03	-3.892951e+01	-1.016412e-16	-3.892951e+01	3.892951e+01
8             	1.360113e+02	1.006429e+03	-8.704177e+02	-1.995714e+03	-1.628707e+03	-3.670066e+02	-6.308502e+02	9.384234e+02	6.395518e+01	-5.679232e-17	6.395518e+01	-6.395518e+01
9             	2.896239e+02	-1.436998e+02	4.333237e+02	6.135682e+02	-2.475645e+03	3.089213e+03	-2.782429e+03	-2.885117e+02	1.361868e+02	-1.334662e-17	1.361868e+02	-1.361868e+02
10            	2.726001e+02	-1.723248e+03	1.995848e+03	3.954638e+03	-9.806643e+02	4.935302e+03	-2.957983e+03	-1.859548e+03	1.281819e+02	9.869372e-19	1.281819e+02	-1.281819e+02
11            	1.657986e+02	-2.799767e+03	2.965565e+03	6.130470e+03	7.991726e+02	5.331297e+03	-2.266062e+03	-2.882666e+03	7.796171e+01	-6.829776e-18	7.796171e+01	-7.796171e+01
12            	2.044446e+02	-1.312850e+03	1.517294e+03	3.009386e+03	4.637803e+02	2.545606e+03	-1.040913e+03	-1.415072e+03	9.613381e+01	1.041685e-16	9.613381e+01	-9.613381e+01
13            	3.230122e+02	1.034318e+02	2.195804e+02	1.235047e+02	-1.088136e+03	1.211641e+03	-1.149889e+03	-5.807430e+01	1.518866e+02	1.471052e-16	1.518866e+02	-1.518866e+02
14            	5.530200e+02	2.280208e+03	-1.727188e+03	-4.261198e+03	-1.940819e+03	-2.320378e+03	1.897796e+02	2.003698e+03	2.600407e+02	1.819222e-16	2.600407e+02	-2.600407e+02
15            	1.840765e+02	1.797143e+03	-1.613066e+03	-3.626189e+03	-2.404597e+03	-1.221593e+03	-5.915020e+02	1.705105e+03	8.655633e+01	8.584451e-17	8.655633e+01	-8.655633e+01
16            	-2.059000e+02	4.507075e+02	-6.566076e+02	-1.177445e+03	-1.411757e+03	2.343123e+02	-8.230348e+02	5.536575e+02	-9.681820e+01	-8.983441e-17	-9.681820e+01	9.681820e+01
17            	-1.312134e+03	-5.007808e+03	3.695673e+03	9.254701e+03	-1.475979e+03	1.073068e+04	-6.103330e+03	-4.351740e+03	-6.169910e+02	-7.198611e-16	-6.169910e+02	6.169910e+02
18            	-1.039920e+03	-6.294287e+03	5.254367e+03	1.228007e+04	-1.409659e+03	1.368973e+04	-7.549693e+03	-5.774327e+03	-4.889907e+02	-5.597478e-16	-4.889907e+02	4.889907e+02
19            	-1.056914e+01	-2.856291e+03	2.845721e+03	6.063140e+03	-5.897555e+02	6.652895e+03	-3.621325e+03	-2.851006e+03	-4.969817e+00	-1.302721e-16	-4.969817e+00	4.969817e+00
20            	1.754649e+03	3.556351e+03	-1.801703e+03	-5.697398e+03	-5.964203e+02	-5.100977e+03	2.252279e+03	2.679027e+03	8.250699e+02	9.705428e-16	8.250699e+02	-8.250699e+02
21            	1.906503e+03	5.794352e+03	-3.887849e+03	-1.029541e+04	-1.894123e+03	-8.401284e+03	3.253581e+03	4.841100e+03	8.964749e+02	1.196957e-15	8.964749e+02	-8.964749e+02
22            	3.539649e+02	2.563206e+03	-2.209241e+03	-5.074703e+03	-2.744046e+03	-2.330657e+03	-2.066942e+02	2.386224e+03	1.664412e+02	4.851404e-16	1.664412e+02	-1.664412e+02
23            	-4.083250e+03	-9.439332e+03	5.356082e+03	1.573246e+04	-8.231054e+02	1.655556e+04	-8.689334e+03	-7.397707e+03	-1.920023e+03	-3.089207e-15	-1.920023e+03	1.920023e+03
24            	-4.173182e+03	-1.307157e+04	8.898393e+03	2.336140e+04	-1.399613e+03	2.476101e+04	-1.308031e+04	-1.098498e+04	-1.962311e+03	-3.797013e-15	-1.962311e+03	1.962311e+03
25            	-1.650204e+03	-7.717410e+03	6.067206e+03	1.465764e+04	-9.510839e+02	1.560873e+04	-8.279905e+03	-6.892308e+03	-7.759580e+02	-1.590811e-15	-7.759580e+02	7.759580e+02
26            	2.867568e+03	2.546877e+03	3.206907e+02	-2.367178e+03	-1.113177e+03	-1.254000e+03	7.041150e+01	1.113093e+03	1.348386e+03	5.401452e-16	1.348386e+03	-1.348386e+03
27            	4.595431e+03	9.048634e+03	-4.453203e+03	-1.435695e+04	-2.219769e+03	-1.213718e+04	4.958707e+03	6.750918e+03	2.160861e+03	1.660893e-15	2.160861e+03	-2.160861e+03
28            	1.413034e+03	3.824296e+03	-2.411262e+03	-6.630477e+03	-1.446830e+04	7.837823e+03	-1.115306e+04	3.117779e+03	6.644361e+02	1.674939e-15	6.644361e+02	-6.644361e+02
29            	-3.478288e+03	-8.380371e+03	4.902083e+03	1.412368e+04	-2.806204e+04	4.218571e+04	-3.512388e+04	-6.641227e+03	-1.635559e+03	4.547191e-16	-1.635559e+03	1.635559e+03
30            	-4.524393e+03	-1.195128e+04	7.426890e+03	2.060546e+04	-1.664341e+04	3.724886e+04	-2.694613e+04	-9.689086e+03	-2.127457e+03	-4.092852e-16	-2.127457e+03	2.127457e+03
31            	-2.108090e+03	-6.353914e+03	4.245824e+03	1.127106e+04	-2.097414e+01	1.129203e+04	-5.656502e+03	-5.299869e+03	-9.912649e+02	-4.440041e-16	-9.912649e+02	9.912649e+02
32            	3.856820e+02	-2.654194e+02	6.511014e+02	9.745672e+02	9.755533e+03	-8.780966e+03	9.268249e+03	-4.582604e+02	1.813552e+02	1.332548e-16	1.813552e+02	-1.813552e+02
33            	2.144566e+03	3.860715e+03	-1.716149e+03	-5.930065e+03	1.039730e+04	-1.632736e+04	1.336233e+04	2.788432e+03	1.008417e+03	6.591127e-16	1.008417e+03	-1.008417e+03
34            	1.424881e+03	3.833513e+03	-2.408632e+03	-6.637480e+03	3.830061e+03	-1.046754e+04	7.148801e+03	3.121072e+03	6.700067e+02	6.185211e-16	6.700067e+02	-6.700067e+02
35            	1.971135e+02	1.649599e+03	-1.452486e+03	-3.298551e+03	-2.527952e+03	-7.705985e+02	-8.786768e+02	1.551043e+03	9.268660e+01	2.525708e-16	9.268660e+01	-9.268660e+01
36            	-6.876012e+02	-1.340768e+03	6.531667e+02	2.120217e+03	-7.122245e+03	9.242462e+03	-8.182354e+03	-9.969673e+02	-3.233234e+02	-1.859901e-16	-3.233234e+02	3.233234e+02
37            	-9.017704e+02	-2.776219e+03	1.874448e+03	4.945210e+03	-7.364470e+03	1.230968e+04	-9.837075e+03	-2.325334e+03	-4.240300e+02	-3.224542e-16	-4.240300e+02	4.240300e+02
38            	-8.059068e+02	-2.167749e+03	1.361843e+03	3.753133e+03	-3.624478e+03	7.377611e+03	-5.501044e+03	-1.764796e+03	-3.789530e+02	-3.025001e-16	-3.789530e+02	3.789530e+02
39            	-5.772582e+02	-1.224608e+03	6.473499e+02	1.990515e+03	4.045727e+02	1.585943e+03	-5.906849e+02	-9.359790e+02	-2.714380e+02	-2.617259e-16	-2.714380e+02	2.714380e+02
40            	-4.413228e+01	6.572634e+02	-7.013957e+02	-1.444708e+03	5.901943e+03	-7.346651e+03	6.624297e+03	6.793296e+02	-2.075185e+01	-1.421468e-16	-2.075185e+01	2.075185e+01
41            	3.077016e+02	1.191503e+03	-8.838014e+02	-2.206740e+03	4.609890e+03	-6.816630e+03	5.713260e+03	1.037652e+03	1.446873e+02	-5.085974e-17	1.446873e+02	-1.446873e+02
42            	2.987420e+02	7.815847e+02	-4.828427e+02	-1.344508e+03	1.313150e+03	-2.657658e+03	1.985404e+03	6.322137e+02	1.404743e+02	-7.734348e-18	1.404743e+02	-1.404743e+02
43            	3.641676e+01	7.951577e+01	-4.309901e+01	-1.303804e+02	-1.281047e+03	1.150666e+03	-1.215857e+03	6.130739e+01	1.712387e+01	-6.362848e-18	1.712387e+01	-1.712387e+01
44            	-2.594898e+02	-4.240213e+02	1.645315e+02	6.258278e+02	-2.136980e+03	2.762808e+03	-2.449894e+03	-2.942764e+02	-1.220172e+02	-1.632711e-17	-1.220172e+02	1.220172e+02
45            	-3.264086e+02	-1.948091e+02	-1.315994e+02	6.721296e+01	-5.105872e+02	5.778002e+02	-5.441937e+02	-3.160484e+01	-1.534836e+02	-3.355528e-17	-1.534836e+02	1.534836e+02
46            	-1.683492e+02	2.794542e+02	-4.478033e+02	-7.733172e+02	1.418391e+03	-2.191708e+03	1.805050e+03	3.636288e+02	-7.916105e+01	-3.821021e-17	-7.916105e+01	7.916105e+01
47            	2.610413e+00	5.002337e+02	-4.976233e+02	-1.061055e+03	2.266268e+03	-3.327323e+03	2.796796e+03	4.989285e+02	1.227467e+00	-2.553101e-17	1.227467e+00	-1.227467e+00
48            	2.441149e+01	2.843447e+02	-2.599332e+02	-5.787488e+02	1.494483e+03	-2.073232e+03	1.783857e+03	2.721389e+02	1.147876e+01	-3.222657e-17	1.147876e+01	-1.147876e+01
49            	-7.200159e+01	-8.446902e+01	1.246743e+01	1.030758e+02	3.269216e+02	-2.238458e+02	2.753837e+02	-4.846823e+01	-3.385655e+01	-5.493725e-17	-3.385655e+01	3.385655e+01
50            	-1.762176e+02	-2.288422e+02	5.262464e+01	2.992931e+02	-1.003272e+02	3.996203e+02	-2.499737e+02	-1.407334e+02	-8.286093e+01	-6.802344e-17	-8.286093e+01	8.286093e+01
51            	-1.937436e+02	-1.472964e+02	-4.644728e+01	1.072362e+02	-5.035171e+01	1.575879e+02	-1.039698e+02	-5.042454e+01	-9.110203e+01	-5.423079e-17	-9.110203e+01	9.110203e+01
52            	-1.164076e+02	4.184856e+01	-1.582562e+02	-2.127780e+02	2.203977e+02	-4.331757e+02	3.267867e+02	1.000524e+02	-5.473712e+01	-1.942930e-17	-5.473712e+01	5.473712e+01
53            	-1.993081e+01	1.337243e+02	-1.536551e+02	-3.055801e+02	3.620828e+02	-6.676628e+02	5.148728e+02	1.436897e+02	-9.371855e+00	1.095552e-17	-9.371855e+00	9.371855e+00
54            	1.881714e+01	7.907620e+01	-6.025906e+01	-1.481598e+02	3.586146e+02	-5.067744e+02	4.326945e+02	6.966763e+01	8.848187e+00	1.122104e-17	8.848187e+00	-8.848187e+00
55            	-3.062647e+00	-2.303432e+01	1.997167e+01	4.572971e+01	2.795115e+02	-2.337818e+02	2.566466e+02	-2.150300e+01	-1.440116e+00	-4.990377e-18	-1.440116e+00	1.440116e+00
56            	-3.425174e+01	-7.589199e+01	4.164025e+01	1.249759e+02	2.261715e+02	-1.011955e+02	1.636835e+02	-5.876612e+01	-1.610583e+01	-1.482004e-17	-1.610583e+01	1.610583e+01
57            	-3.698271e+01	-5.276765e+01	1.578494e+01	7.289425e+01	2.365131e+02	-1.636189e+02	2.000660e+02	-3.427629e+01	-1.738999e+01	-1.287205e-17	-1.738999e+01	1.738999e+01
58            	-1.898926e+01	-8.904913e+00	-1.008434e+01	-1.254126e+00	2.709575e+02	-2.722116e+02	2.715845e+02	5.897144e-01	-8.929117e+00	-8.186660e-18	-8.929117e+00	8.929117e+00
59            	4.175502e+00	1.877013e+01	-1.459463e+01	-3.547785e+01	2.761259e+02	-3.116038e+02	2.938648e+02	1.668238e+01	1.963402e+00	-7.064500e-18	1.963402e+00	-1.963402e+00
60            	2.173711e+01	1.992481e+01	1.812297e+00	-1.925964e+01	2.430684e+02	-2.623281e+02	2.526982e+02	9.056257e+00	1.022121e+01	-7.290967e-18	1.022121e+01	-1.022121e+01
61            	2.976527e+01	1.000152e+01	1.976374e+01	1.038050e+01	2.105827e+02	-2.002022e+02	2.053924e+02	-4.881111e+00	1.399621e+01	-6.101568e-18	1.399621e+01	-1.399621e+01
62            	2.882320e+01	6.561490e+00	2.226171e+01	1.669456e+01	2.036330e+02	-1.869384e+02	1.952857e+02	-7.850109e+00	1.355323e+01	-2.542697e-18	1.355323e+01	-1.355323e+01
63            	2.232486e+01	1.533316e+01	6.991696e+00	-8.869757e+00	2.135912e+02	-2.224609e+02	2.180261e+02	4.170732e+00	1.049758e+01	1.821054e-18	1.049758e+01	-1.049758e+01
64            	1.707886e+01	2.762639e+01	-1.054752e+01	-4.059159e+01	2.118222e+02	-2.524138e+02	2.321180e+02	1.908695e+01	8.030813e+00	5.001112e-18	8.030813e+00	-8.030813e+00
65            	1.677306e+01	3.468228e+01	-1.790922e+01	-5.592230e+01	1.982889e+02	-2.542112e+02	2.262500e+02	2.629575e+01	7.887017e+00	6.419274e-18	7.887017e+00	-7.887017e+00
66            	1.843824e+01	2.497057e+01	-6.532331e+00	-3.349808e+01	1.274818e+02	-1.609799e+02	1.442309e+02	1.575145e+01	8.670019e+00	7.699033e-18	8.670019e+00	-8.670019e+00
67            	2.111797e+01	8.386194e-01	2.027935e+01	2.067198e+01	3.526305e+01	-1.459107e+01	2.492706e+01	-9.720366e+00	9.930080e+00	7.959664e-18	9.930080e+00	-9.930080e+00
68            	2.315010e+01	-3.013999e+01	5.329009e+01	8.871398e+01	-5.603487e+01	1.447489e+02	-1.003919e+02	-4.171504e+01	1.088563e+01	6.944543e-18	1.088563e+01	-1.088563e+01
69            	2.367471e+01	-5.646270e+01	8.013742e+01	1.452515e+02	-1.236722e+02	2.689236e+02	-1.962979e+02	-6.830006e+01	1.113231e+01	5.261716e-18	1.113231e+01	-1.113231e+01
70            	2.267821e+01	-6.465901e+01	8.733722e+01	1.616227e+02	-1.409820e+02	3.026047e+02	-2.217934e+02	-7.599812e+01	1.066373e+01	4.174101e-18	1.066373e+01	-1.066373e+01
71            	1.879438e+01	-7.465527e+01	9.344965e+01	1.787516e+02	-1.608237e+02	3.395752e+02	-2.501995e+02	-8.405246e+01	8.837482e+00	2.769820e-18	8.837482e+00	-8.837482e+00
72            	1.465236e+01	-7.450059e+01	8.915295e+01	1.740183e+02	-1.522323e+02	3.262506e+02	-2.392414e+02	-8.182677e+01	6.889823e+00	2.713852e-18	6.889823e+00	-6.889823e+00
73            	1.088374e+01	-7.080723e+01	8.169096e+01	1.621564e+02	-1.313886e+02	2.935450e+02	-2.124668e+02	-7.624910e+01	5.117744e+00	3.132462e-18	5.117744e+00	-5.117744e+00
74            	7.134288e+00	-6.976028e+01	7.689457e+01	1.559430e+02	-1.163126e+02	2.722556e+02	-1.942841e+02	-7.332742e+01	3.354681e+00	3.053991e-18	3.354681e+00	-3.354681e+00
75            	3.289177e+00	-7.361986e+01	7.690904e+01	1.600624e+02	-1.151558e+02	2.752182e+02	-1.951870e+02	-7.526445e+01	1.546635e+00	1.744031e-18	1.546635e+00	-1.546635e+00
76            	5.277672e-01	-8.174306e+01	8.227083e+01	1.744014e+02	-1.308148e+02	3.052163e+02	-2.180155e+02	-8.200695e+01	2.481664e-01	-4.587063e-19	2.481664e-01	-2.481664e-01
77            	-7.222050e-01	-8.607038e+01	8.534818e+01	1.822751e+02	-1.414362e+02	3.237113e+02	-2.325737e+02	-8.570928e+01	-3.395948e-01	-1.543643e-18	-3.395948e-01	3.395948e-01
78            	-5.299726e+00	-9.857503e+01	9.327530e+01	2.040009e+02	-1.669991e+02	3.709999e+02	-2.689995e+02	-9.592517e+01	-2.492034e+00	-4.336087e-18	-2.492034e+00	2.492034e+00
79            	-1.103780e+01	-1.073777e+02	9.633990e+01	2.166197e+02	-1.756593e+02	3.922790e+02	-2.839691e+02	-1.018588e+02	-5.190188e+00	-6.466383e-18	-5.190188e+00	5.190188e+00
80            	-1.417332e+01	-1.066098e+02	9.243647e+01	2.116525e+02	-1.637215e+02	3.753740e+02	-2.695478e+02	-9.952313e+01	-6.664570e+00	-6.840888e-18	-6.664570e+00	6.664570e+00
81            	-2.033007e+01	-1.011414e+02	8.081131e+01	1.934764e+02	-1.334741e+02	3.269505e+02	-2.302123e+02	-9.097635e+01	-9.559594e+00	-7.518404e-18	-9.559594e+00	9.559594e+00
82            	-2.413279e+01	-9.318013e+01	6.904735e+01	1.725019e+02	-1.075854e+02	2.800872e+02	-1.938363e+02	-8.111374e+01	-1.134770e+01	-8.280305e-18	-1.134770e+01	1.134770e+01
83            	-2.505887e+01	-8.842492e+01	6.336605e+01	1.614044e+02	-9.838945e+01	2.597939e+02	-1.790916e+02	-7.589549e+01	-1.178317e+01	-9.133743e-18	-1.178317e+01	1.178317e+01
84            	-2.809305e+01	-8.480956e+01	5.671652e+01	1.504894e+02	-8.917122e+01	2.396606e+02	-1.644159e+02	-7.076304e+01	-1.320990e+01	-1.091697e-17	-1.320990e+01	1.320990e+01
85            	-3.128656e+01	-8.583505e+01	5.454849e+01	1.492745e+02	-8.742933e+01	2.367038e+02	-1.620666e+02	-7.019177e+01	-1.471155e+01	-1.255843e-17	-1.471155e+01	1.471155e+01
86            	-3.414240e+01	-8.984205e+01	5.569965e+01	1.547593e+02	-9.049102e+01	2.452504e+02	-1.678707e+02	-7.277085e+01	-1.605442e+01	-1.366105e-17	-1.605442e+01	1.605442e+01
87            	-3.686139e+01	-9.441840e+01	5.755701e+01	1.616005e+02	-9.457181e+01	2.561723e+02	-1.753721e+02	-7.598770e+01	-1.733294e+01	-1.446813e-17	-1.733294e+01	1.733294e+01
88            	-3.967597e+01	-9.832805e+01	5.865208e+01	1.669222e+02	-9.775781e+01	2.646800e+02	-1.812189e+02	-7.849006e+01	-1.865641e+01	-1.521013e-17	-1.865641e+01	1.865641e+01
89            	-4.242557e+01	-1.017919e+02	5.936630e+01	1.713649e+02	-1.010718e+02	2.724366e+02	-1.867542e+02	-8.057909e+01	-1.994933e+01	-1.594805e-17	-1.994933e+01	1.994933e+01
90            	-4.489579e+01	-1.059571e+02	6.106127e+01	1.775962e+02	-1.071880e+02	2.847841e+02	-1.959860e+02	-8.350917e+01	-2.111087e+01	-1.662818e-17	-2.111087e+01	2.111087e+01
91            	-4.697955e+01	-1.117183e+02	6.473876e+01	1.876327e+02	-1.180343e+02	3.056670e+02	-2.118506e+02	-8.822854e+01	-2.209070e+01	-1.725236e-17	-2.209070e+01	2.209070e+01
92            	-4.873777e+01	-1.191876e+02	7.044982e+01	2.016478e+02	-1.333256e+02	3.349733e+02	-2.341495e+02	-9.481870e+01	-2.291745e+01	-1.783598e-17	-2.291745e+01	2.291745e+01
93            	-5.022953e+01	-1.276644e+02	7.743489e+01	2.180889e+02	-1.510415e+02	3.691304e+02	-2.600859e+02	-1.025497e+02	-2.361890e+01	-1.838402e-17	-2.361890e+01	2.361890e+01
94            	-5.141784e+01	-1.361363e+02	8.471846e+01	2.348422e+02	-1.691179e+02	4.039601e+02	-2.865390e+02	-1.104274e+02	-2.417767e+01	-1.886151e-17	-2.417767e+01	2.417767e+01
95            	-5.216070e+01	-1.437299e+02	9.156917e+01	2.502013e+02	-1.865256e+02	4.367269e+02	-3.116263e+02	-1.176495e+02	-2.452697e+01	-1.917414e-17	-2.452697e+01	2.452697e+01
96            	-5.237321e+01	-1.500855e+02	9.771226e+01	2.634916e+02	-2.034352e+02	4.669268e+02	-3.351810e+02	-1.238989e+02	-2.462690e+01	-1.923775e-17	-2.462690e+01	2.462690e+01
97            	-5.200520e+01	-1.555071e+02	1.035019e+02	2.754128e+02	-2.210839e+02	4.964967e+02	-3.587903e+02	-1.295045e+02	-2.445386e+01	-1.906493e-17	-2.445386e+01	2.445386e+01
98            	-5.107877e+01	-1.604348e+02	1.093560e+02	2.868776e+02	-2.404557e+02	5.273332e+02	-3.838945e+02	-1.348954e+02	-2.401823e+01	-1.873801e-17	-2.401823e+01	2.401823e+01
99            	-4.955426e+01	-1.651553e+02	1.156010e+02	2.985376e+02	-2.621797e+02	5.607173e+02	-4.114485e+02	-1.403782e+02	-2.330138e+01	-1.838244e-17	-2.330138e+01	2.330138e+01
100           	-4.733321e+01	-1.697641e+02	1.224308e+02	3.107006e+02	-2.868612e+02	5.975618e+02	-4.422115e+02	-1.460975e+02	-2.225700e+01	-1.812055e-17	-2.225700e+01	2.225700e+01
101           	-4.437088e+01	-1.742785e+02	1.299076e+02	3.234512e+02	-3.147759e+02	6.382271e+02	-4.765015e+02	-1.520930e+02	-2.086405e+01	-1.802553e-17	-2.086405e+01	2.086405e+01
102           	-4.080688e+01	-1.786799e+02	1.378730e+02	3.366013e+02	-3.454491e+02	6.820504e+02	-5.137498e+02	-1.582765e+02	-1.918819e+01	-1.810243e-17	-1.918819e+01	1.918819e+01
103           	-3.690557e+01	-1.830167e+02	1.461111e+02	3.499725e+02	-3.780323e+02	7.280048e+02	-5.530186e+02	-1.645639e+02	-1.735372e+01	-1.831034e-17	-1.735372e+01	1.735372e+01
104           	-3.285485e+01	-1.871657e+02	1.543109e+02	3.631034e+02	-4.113541e+02	7.744576e+02	-5.929059e+02	-1.707383e+02	-1.544899e+01	-1.861870e-17	-1.544899e+01	1.544899e+01
105           	-2.868415e+01	-1.913432e+02	1.626590e+02	3.764223e+02	-4.457056e+02	8.221279e+02	-6.339167e+02	-1.770011e+02	-1.348784e+01	-1.904707e-17	-1.348784e+01	1.348784e+01
106           	-2.454986e+01	-1.953753e+02	1.708255e+02	3.893935e+02	-4.798284e+02	8.692220e+02	-6.745252e+02	-1.831004e+02	-1.154382e+01	-1.954003e-17	-1.154382e+01	1.154382e+01
107           	-2.018840e+01	-1.999617e+02	1.797733e+02	4.037850e+02	-5.164287e+02	9.202136e+02	-7.183212e+02	-1.898675e+02	-9.492977e+00	-2.011768e-17	-9.492977e+00	9.492977e+00
108           	-1.579083e+01	-2.048305e+02	1.890397e+02	4.188154e+02	-5.538233e+02	9.726387e+02	-7.632310e+02	-1.969351e+02	-7.425155e+00	-2.066131e-17	-7.425155e+00	7.425155e+00
109           	-1.141067e+01	-2.103897e+02	1.989791e+02	4.352955e+02	-5.926342e+02	1.027930e+03	-8.102820e+02	-2.046844e+02	-5.365518e+00	-2.121166e-17	-5.365518e+00	5.365518e+00
110           	-7.131416e+00	-2.161538e+02	2.090224e+02	4.521040e+02	-6.311714e+02	1.083275e+03	-8.572234e+02	-2.125881e+02	-3.353330e+00	-2.165607e-17	-3.353330e+00	3.353330e+00
111           	-3.002329e+00	-2.219427e+02	2.189404e+02	4.688058e+02	-6.687928e+02	1.137599e+03	-9.031956e+02	-2.204416e+02	-1.411753e+00	-2.193966e-17	-1.411753e+00	1.411753e+00
112           	1.001450e+00	-2.280768e+02	2.290782e+02	4.861081e+02	-7.062280e+02	1.192336e+03	-9.492821e+02	-2.285775e+02	4.709014e-01	-2.215015e-17	4.709014e-01	-4.709014e-01
113           	3.663703e+00	-2.321023e+02	2.357660e+02	4.974999e+02	-7.313185e+02	1.228818e+03	-9.800685e+02	-2.339341e+02	1.722745e+00	-2.224057e-17	1.722745e+00	-1.722745e+00
114           	8.675735e+00	-2.401185e+02	2.487942e+02	5.198772e+02	-7.773912e+02	1.297268e+03	-1.037330e+03	-2.444564e+02	4.079499e+00	-2.216958e-17	4.079499e+00	-4.079499e+00
115           	1.287524e+01	-2.481939e+02	2.610692e+02	5.415164e+02	-8.193709e+02	1.360887e+03	-1.090129e+03	-2.546315e+02	6.054188e+00	-2.225578e-17	6.054188e+00	-6.054188e+00
116           	1.481847e+01	-2.524002e+02	2.672187e+02	5.525280e+02	-8.405492e+02	1.393077e+03	-1.116813e+03	-2.598094e+02	6.967930e+00	-2.232107e-17	6.967930e+00	-6.967930e+00
117           	1.832379e+01	-2.591711e+02	2.774949e+02	5.706549e+02	-8.751248e+02	1.445780e+03	-1.160452e+03	-2.683330e+02	8.616202e+00	-2.234930e-17	8.616202e+00	-8.616202e+00
118           	2.042925e+01	-2.627973e+02	2.832265e+02	5.806053e+02	-8.949657e+02	1.475571e+03	-1.185268e+03	-2.730119e+02	9.606232e+00	-2.233445e-17	9.606232e+00	-9.606232e+00
119           	2.423212e+01	-2.687251e+02	2.929572e+02	5.972555e+02	-9.274999e+02	1.524755e+03	-1.226128e+03	-2.808411e+02	1.139441e+01	-2.215265e-17	1.139441e+01	-1.139441e+01
120           	2.609427e+01	-2.718840e+02	2.979783e+02	6.059536e+02	-9.444273e+02	1.550381e+03	-1.247404e+03	-2.849312e+02	1.227003e+01	-2.204701e-17	1.227003e+01	-1.227003e+01
121           	2.908796e+01	-2.768918e+02	3.059797e+02	6.197867e+02	-9.705927e+02	1.590379e+03	-1.280486e+03	-2.914358e+02	1.367773e+01	-2.178162e-17	1.367773e+01	-1.367773e+01
122           	3.055672e+01	-2.794963e+02	3.100530e+02	6.268874e+02	-9.838722e+02	1.610760e+03	-1.297316e+03	-2.947746e+02	1.436836e+01	-2.157760e-17	1.436836e+01	-1.436836e+01
123           	3.316263e+01	-2.831255e+02	3.162881e+02	6.373765e+02	-1.004133e+03	1.641509e+03	-1.322821e+03	-2.997068e+02	1.559371e+01	-2.114294e-17	1.559371e+01	-1.559371e+01
124           	3.528101e+01	-2.857358e+02	3.210169e+02	6.451804e+02	-1.019695e+03	1.664875e+03	-1.342285e+03	-3.033763e+02	1.658982e+01	-2.066283e-17	1.658982e+01	-1.658982e+01
125           	3.622585e+01	-2.866794e+02	3.229053e+02	6.481917e+02	-1.026169e+03	1.674360e+03	-1.350265e+03	-3.047923e+02	1.703410e+01	-2.031970e-17	1.703410e+01	-1.703410e+01
126           	3.822203e+01	-2.885196e+02	3.267416e+02	6.542278e+02	-1.038416e+03	1.692644e+03	-1.365530e+03	-3.076306e+02	1.797274e+01	-1.969892e-17	1.797274e+01	-1.797274e+01
127           	4.001534e+01	-2.900197e+02	3.300350e+02	6.593248e+02	-1.048806e+03	1.708131e+03	-1.378469e+03	-3.100273e+02	1.881599e+01	-1.904089e-17	1.881599e+01	-1.881599e+01
128           	4.139865e+01	-2.909917e+02	3.323904e+02	6.628630e+02	-1.056067e+03	1.718930e+03	-1.387498e+03	-3.116910e+02	1.946645e+01	-1.838523e-17	1.946645e+01	-1.946645e+01
129           	4.254805e+01	-2.914659e+02	3.340140e+02	6.650937e+02	-1.060742e+03	1.725835e+03	-1.393289e+03	-3.127400e+02	2.000692e+01	-1.769306e-17	2.000692e+01	-2.000692e+01
130           	4.325788e+01	-2.912728e+02	3.345307e+02	6.654378e+02	-1.061692e+03	1.727130e+03	-1.394411e+03	-3.129018e+02	2.034070e+01	-1.705987e-17	2.034070e+01	-2.034070e+01
131           	4.488022e+01	-2.917379e+02	3.366181e+02	6.681520e+02	-1.066531e+03	1.734683e+03	-1.400607e+03	-3.141780e+02	2.110355e+01	-1.613798e-17	2.110355e+01	-2.110355e+01
132           	4.616314e+01	-2.920108e+02	3.381739e+02	6.700964e+02	-1.069389e+03	1.739486e+03	-1.404438e+03	-3.150923e+02	2.170681e+01	-1.522075e-17	2.170681e+01	-2.170681e+01
133           	4.689487e+01	-2.918744e+02	3.387692e+02	6.705843e+02	-1.068851e+03	1.739435e+03	-1.404143e+03	-3.153218e+02	2.205088e+01	-1.439046e-17	2.205088e+01	-2.205088e+01
134           	4.736913e+01	-2.914071e+02	3.387762e+02	6.700949e+02	-1.065839e+03	1.735934e+03	-1.400886e+03	-3.150917e+02	2.227388e+01	-1.370484e-17	2.227388e+01	-2.227388e+01
135           	4.781905e+01	-2.908611e+02	3.386801e+02	6.694121e+02	-1.061958e+03	1.731370e+03	-1.396664e+03	-3.147706e+02	2.248545e+01	-1.300788e-17	2.248545e+01	-2.248545e+01
136           	4.827019e+01	-2.903422e+02	3.386124e+02	6.687883e+02	-1.057851e+03	1.726639e+03	-1.392245e+03	-3.144773e+02	2.269758e+01	-1.220528e-17	2.269758e+01	-2.269758e+01
137           	4.861911e+01	-2.897400e+02	3.383591e+02	6.678788e+02	-1.052919e+03	1.720798e+03	-1.386858e+03	-3.140496e+02	2.286165e+01	-1.126799e-17	2.286165e+01	-2.286165e+01
138           	4.880831e+01	-2.889471e+02	3.377554e+02	6.663937e+02	-1.046537e+03	1.712931e+03	-1.379734e+03	-3.133513e+02	2.295062e+01	-1.033883e-17	2.295062e+01	-2.295062e+01
139           	4.880374e+01	-2.879105e+02	3.367142e+02	6.641843e+02	-1.038279e+03	1.702464e+03	-1.370371e+03	-3.123124e+02	2.294847e+01	-9.397969e-18	2.294847e+01	-2.294847e+01
140           	4.859802e+01	-2.866726e+02	3.352706e+02	6.613330e+02	-1.028190e+03	1.689523e+03	-1.358857e+03	-3.109716e+02	2.285173e+01	-8.431132e-18	2.285173e+01	-2.285173e+01
141           	4.823068e+01	-2.853616e+02	3.335922e+02	6.581542e+02	-1.016806e+03	1.674960e+03	-1.345883e+03	-3.094769e+02	2.267900e+01	-7.515485e-18	2.267900e+01	-2.267900e+01
142           	4.776049e+01	-2.840932e+02	3.318536e+02	6.549568e+02	-1.004655e+03	1.659612e+03	-1.332134e+03	-3.079734e+02	2.245791e+01	-6.618169e-18	2.245791e+01	-2.245791e+01
143           	4.721108e+01	-2.828752e+02	3.300862e+02	6.517823e+02	-9.918479e+02	1.643630e+03	-1.317739e+03	-3.064807e+02	2.219957e+01	-5.776993e-18	2.219957e+01	-2.219957e+01
144           	4.656562e+01	-2.817193e+02	3.282849e+02	6.486379e+02	-9.783718e+02	1.627010e+03	-1.302691e+03	-3.050021e+02	2.189606e+01	-4.883191e-18	2.189606e+01	-2.189606e+01
145           	4.575784e+01	-2.805805e+02	3.263383e+02	6.453570e+02	-9.639021e+02	1.609259e+03	-1.286581e+03	-3.034594e+02	2.151623e+01	-4.008994e-18	2.151623e+01	-2.151623e+01
146           	4.476674e+01	-2.794196e+02	3.241863e+02	6.418342e+02	-9.484546e+02	1.590289e+03	-1.269372e+03	-3.018029e+02	2.105019e+01	-3.117064e-18	2.105019e+01	-2.105019e+01
147           	4.362441e+01	-2.782574e+02	3.218819e+02	6.381481e+02	-9.323685e+02	1.570517e+03	-1.251443e+03	-3.000696e+02	2.051305e+01	-2.332357e-18	2.051305e+01	-2.051305e+01
148           	4.238187e+01	-2.771645e+02	3.195463e+02	6.345025e+02	-9.161194e+02	1.550622e+03	-1.233371e+03	-2.983554e+02	1.992878e+01	-1.595850e-18	1.992878e+01	-1.992878e+01
149           	4.103276e+01	-2.761090e+02	3.171418e+02	6.308233e+02	-8.996037e+02	1.530427e+03	-1.215015e+03	-2.966254e+02	1.929440e+01	-9.500655e-19	1.929440e+01	-1.929440e+01
150           	3.955189e+01	-2.749325e+02	3.144844e+02	6.267466e+02	-8.823213e+02	1.509068e+03	-1.195695e+03	-2.947085e+02	1.859807e+01	-3.025210e-19	1.859807e+01	-1.859807e+01
151           	3.791409e+01	-2.734052e+02	3.113193e+02	6.217571e+02	-8.636940e+02	1.485451e+03	-1.174573e+03	-2.923623e+02	1.782794e+01	3.290356e-19	1.782794e+01	-1.782794e+01
152           	3.617437e+01	-2.713803e+02	3.075547e+02	6.156009e+02	-8.438475e+02	1.459448e+03	-1.151648e+03	-2.894675e+02	1.700989e+01	9.589912e-19	1.700989e+01	-1.700989e+01
153           	3.438688e+01	-2.689399e+02	3.033268e+02	6.085103e+02	-8.234020e+02	1.431912e+03	-1.127657e+03	-2.861334e+02	1.616938e+01	1.522010e-18	1.616938e+01	-1.616938e+01
154           	3.255550e+01	-2.661613e+02	2.987168e+02	6.006537e+02	-8.025891e+02	1.403243e+03	-1.102916e+03	-2.824391e+02	1.530823e+01	2.084691e-18	1.530823e+01	-1.530823e+01
155           	3.069168e+01	-2.631606e+02	2.938522e+02	5.922903e+02	-7.818138e+02	1.374104e+03	-1.077959e+03	-2.785064e+02	1.443182e+01	2.542548e-18	1.443182e+01	-1.443182e+01
156           	2.862818e+01	-2.596791e+02	2.883073e+02	5.826921e+02	-7.593714e+02	1.342064e+03	-1.050717e+03	-2.739932e+02	1.346152e+01	2.960233e-18	1.346152e+01	-1.346152e+01
157           	2.635899e+01	-2.555291e+02	2.818881e+02	5.714537e+02	-7.349587e+02	1.306412e+03	-1.020686e+03	-2.687086e+02	1.239451e+01	3.313200e-18	1.239451e+01	-1.239451e+01
158           	2.394481e+01	-2.507319e+02	2.746767e+02	5.586844e+02	-7.091851e+02	1.267870e+03	-9.885273e+02	-2.627043e+02	1.125932e+01	3.573952e-18	1.125932e+01	-1.125932e+01
159           	2.149333e+01	-2.457252e+02	2.672186e+02	5.454302e+02	-6.839822e+02	1.229412e+03	-9.566973e+02	-2.564719e+02	1.010658e+01	3.678412e-18	1.010658e+01	-1.010658e+01
160           	1.898598e+01	-2.406721e+02	2.596581e+02	5.320178e+02	-6.597348e+02	1.191753e+03	-9.257437e+02	-2.501651e+02	8.927578e+00	3.621595e-18	8.927578e+00	-8.927578e+00
161           	1.731473e+01	-2.374494e+02	2.547641e+02	5.233870e+02	-6.448831e+02	1.168270e+03	-9.065766e+02	-2.461067e+02	8.141722e+00	3.400630e-18	8.141722e+00	-8.141722e+00
162           	1.351780e+01	-2.305822e+02	2.441000e+02	5.047453e+02	-6.122626e+02	1.117008e+03	-8.646353e+02	-2.373411e+02	6.356334e+00	3.171998e-18	6.356334e+00	-6.356334e+00
163           	1.079329e+01	-2.254574e+02	2.362507e+02	4.909496e+02	-5.895711e+02	1.080521e+03	-8.350459e+02	-2.308540e+02	5.075215e+00	2.827995e-18	5.075215e+00	-5.075215e+00
164           	6.587020e+00	-2.176714e+02	2.242584e+02	4.699187e+02	-5.553918e+02	1.025310e+03	-7.903511e+02	-2.209649e+02	3.097345e+00	2.264636e-18	3.097345e+00	-3.097345e+00
165           	2.885558e+00	-2.108598e+02	2.137454e+02	4.514968e+02	-5.272611e+02	9.787579e+02	-7.530095e+02	-2.123026e+02	1.356846e+00	1.462680e-18	1.356846e+00	-1.356846e+00