# Force and moment coefficients
# dragDir     : (1.000000e+00 0.000000e+00 0.000000e+00)
# sideDir     : (0.000000e+00 0.000000e+00 -1.000000e+00)
# liftDir     : (0.000000e+00 1.000000e+00 0.000000e+00)
# rollAxis    : (1.000000e+00 0.000000e+00 0.000000e+00)
# pitchAxis   : (0.000000e+00 0.000000e+00 -1.000000e+00)
# yawAxis     : (0.000000e+00 1.000000e+00 0.000000e+00)
# magUInf     : 7.300000e+00
# lRef        : 3.190000e-01
# Aref        : 1.595000e-03
# CofR        : (0.000000e+00 0.000000e+00 0.000000e+00)
#
# Time        	Cd            	Cd(f)         	Cd(r)         	Cl            	Cl(f)         	Cl(r)         	CmPitch       	CmRoll        	CmYaw         	Cs            	Cs(f)         	Cs(r)         
1             	9.752945e+01	-2.149139e+02	3.124434e+02	5.607566e+02	-6.893788e+02	1.250135e+03	-9.697571e+02	-2.636787e+02	4.586024e+01	9.097743e-18	4.586024e+01	-4.586024e+01
2             	5.046536e+01	-2.218521e+02	2.723174e+02	5.254669e+02	-5.955941e+02	1.121061e+03	-8.583275e+02	-2.470848e+02	2.372980e+01	-1.544994e-18	2.372980e+01	-2.372980e+01
3             	-1.874461e+01	-8.523226e+01	6.648764e+01	1.613288e+02	-8.881260e+01	2.501414e+02	-1.694770e+02	-7.585995e+01	-8.814080e+00	-1.374725e-17	-8.814080e+00	8.814080e+00
4             	-2.537402e+01	4.618571e+01	-7.155973e+01	-1.252027e+02	2.709870e+02	-3.961897e+02	3.335883e+02	5.887272e+01	-1.193136e+01	-1.098359e-17	-1.193136e+01	1.193136e+01
5             	-9.302209e+00	5.925042e+01	-6.855263e+01	-1.358972e+02	2.363343e+02	-3.722315e+02	3.042829e+02	6.390153e+01	-4.374080e+00	-6.389917e-18	-4.374080e+00	4.374080e+00
6             	-4.931803e-01	-1.499106e+01	1.449788e+01	3.135658e+01	-3.758082e+01	6.893740e+01	-5.325911e+01	-1.474447e+01	-2.319030e-01	-7.318239e-18	-2.319030e-01	2.319030e-01
7             	-8.938640e-01	-9.179118e+01	9.089732e+01	1.942588e+02	-2.453246e+02	4.395834e+02	-3.424540e+02	-9.134425e+01	-4.203122e-01	-1.063304e-17	-4.203122e-01	4.203122e-01
8             	-1.267253e+00	-1.145182e+02	1.132510e+02	2.421946e+02	-2.635288e+02	5.057234e+02	-3.846261e+02	-1.138846e+02	-5.958870e-01	-9.925038e-18	-5.958870e-01	5.958870e-01
9             	1.247427e+00	-9.727591e+01	9.852333e+01	2.081999e+02	-1.684738e+02	3.766737e+02	-2.725738e+02	-9.789962e+01	5.865646e-01	-6.427803e-18	5.865646e-01	-5.865646e-01
10            	9.966910e-01	-6.730417e+01	6.830086e+01	1.441934e+02	-6.603704e+01	2.102304e+02	-1.381337e+02	-6.780252e+01	4.686635e-01	-3.767154e-18	4.686635e-01	-4.686635e-01
11            	-1.972225e+00	-4.722313e+01	4.525090e+01	9.833072e+01	-1.234124e+01	1.106720e+02	-6.150660e+01	-4.623701e+01	-9.273784e-01	-3.585202e-18	-9.273784e-01	9.273784e-01
12            	-4.441359e+00	-4.512464e+01	4.068328e+01	9.124241e+01	-2.034975e+01	1.115922e+02	-6.597096e+01	-4.290396e+01	-2.088413e+00	-5.040580e-18	-2.088413e+00	2.088413e+00
13            	-5.331114e+00	-5.491473e+01	4.958362e+01	1.111166e+02	-6.169514e+01	1.728117e+02	-1.172534e+02	-5.224918e+01	-2.506793e+00	-6.792066e-18	-2.506793e+00	2.506793e+00
14            	-5.067352e+00	-6.804747e+01	6.298012e+01	1.393260e+02	-1.059744e+02	2.453004e+02	-1.756374e+02	-6.551379e+01	-2.382767e+00	-8.054941e-18	-2.382767e+00	2.382767e+00
15            	-4.306562e+00	-7.699293e+01	7.268637e+01	1.591590e+02	-1.289066e+02	2.880656e+02	-2.084861e+02	-7.483965e+01	-2.025029e+00	-8.609634e-18	-2.025029e+00	2.025029e+00
16            	-3.391159e+00	-7.952803e+01	7.613687e+01	1.655237e+02	-1.264337e+02	2.919574e+02	-2.091956e+02	-7.783245e+01	-1.594589e+00	-8.629324e-18	-1.594589e+00	1.594589e+00
17            	-2.878117e+00	-7.679599e+01	7.391787e+01	1.602591e+02	-1.061581e+02	2.664172e+02	-1.862876e+02	-7.535693e+01	-1.353347e+00	-8.412323e-18	-1.353347e+00	1.353347e+00
18            	-3.664320e+00	-7.155015e+01	6.788583e+01	1.482669e+02	-8.139812e+01	2.296650e+02	-1.555316e+02	-6.971799e+01	-1.723035e+00	-8.269815e-18	-1.723035e+00	1.723035e+00
19            	-5.548042e+00	-6.727075e+01	6.172271e+01	1.371630e+02	-6.597633e+01	2.031394e+02	-1.345578e+02	-6.449673e+01	-2.608797e+00	-8.414616e-18	-2.608797e+00	2.608797e+00
20            	-7.617146e+00	-6.603020e+01	5.841305e+01	1.323247e+02	-6.600908e+01	1.983337e+02	-1.321714e+02	-6.222163e+01	-3.581730e+00	-8.920366e-18	-3.581730e+00	3.581730e+00
21            	-8.596479e+00	-6.878882e+01	6.019234e+01	1.371500e+02	-8.131683e+01	2.184668e+02	-1.498918e+02	-6.449058e+01	-4.042232e+00	-9.750095e-18	-4.042232e+00	4.042232e+00
22            	-8.078351e+00	-7.407332e+01	6.599496e+01	1.489393e+02	-1.017679e+02	2.507071e+02	-1.762375e+02	-7.003414e+01	-3.798598e+00	-1.075414e-17	-3.798598e+00	3.798598e+00
23            	-6.878904e+00	-7.864522e+01	7.176632e+01	1.599376e+02	-1.137115e+02	2.736491e+02	-1.936803e+02	-7.520577e+01	-3.234594e+00	-1.160366e-17	-3.234594e+00	3.234594e+00
24            	-5.958335e+00	-7.989200e+01	7.393366e+01	1.635680e+02	-1.099486e+02	2.735165e+02	-1.917326e+02	-7.691283e+01	-2.801725e+00	-1.202848e-17	-2.801725e+00	2.801725e+00
25            	-6.065807e+00	-7.684614e+01	7.078033e+01	1.569761e+02	-9.166063e+01	2.486368e+02	-1.701487e+02	-7.381324e+01	-2.852261e+00	-1.189143e-17	-2.852261e+00	2.852261e+00
26            	-7.194964e+00	-7.172609e+01	6.453113e+01	1.448868e+02	-7.042634e+01	2.153132e+02	-1.428698e+02	-6.812861e+01	-3.383212e+00	-1.132369e-17	-3.383212e+00	3.383212e+00
27            	-8.659061e+00	-6.766761e+01	5.900855e+01	1.346990e+02	-5.745915e+01	1.921581e+02	-1.248086e+02	-6.333808e+01	-4.071659e+00	-1.063697e-17	-4.071659e+00	4.071659e+00
28            	-9.908266e+00	-6.639805e+01	5.648979e+01	1.306707e+02	-5.641893e+01	1.870897e+02	-1.217543e+02	-6.144392e+01	-4.659059e+00	-1.006479e-17	-4.659059e+00	4.659059e+00
29            	-1.045331e+01	-6.832068e+01	5.786737e+01	1.341800e+02	-6.528374e+01	1.994637e+02	-1.323737e+02	-6.309403e+01	-4.915348e+00	-9.747521e-18	-4.915348e+00	4.915348e+00
30            	-1.029470e+01	-7.143972e+01	6.114502e+01	1.409818e+02	-7.478614e+01	2.157679e+02	-1.452770e+02	-6.629237e+01	-4.840767e+00	-9.634323e-18	-4.840767e+00	4.840767e+00
31            	-9.959550e+00	-7.312194e+01	6.316239e+01	1.449157e+02	-7.588917e+01	2.208049e+02	-1.483470e+02	-6.814217e+01	-4.683174e+00	-9.590495e-18	-4.683174e+00	4.683174e+00
32            	-9.915146e+00	-7.211229e+01	6.219715e+01	1.428157e+02	-6.551877e+01	2.083345e+02	-1.369266e+02	-6.715472e+01	-4.662295e+00	-9.506394e-18	-4.662295e+00	4.662295e+00
33            	-1.044879e+01	-6.821597e+01	5.776718e+01	1.339621e+02	-4.522893e+01	1.791910e+02	-1.122100e+02	-6.299158e+01	-4.913224e+00	-9.353031e-18	-4.913224e+00	4.913224e+00
34            	-1.145459e+01	-6.311737e+01	5.166279e+01	1.220496e+02	-2.316359e+01	1.452132e+02	-8.418837e+01	-5.739008e+01	-5.386170e+00	-9.147857e-18	-5.386170e+00	5.386170e+00
35            	-1.248816e+01	-5.926297e+01	4.677481e+01	1.127535e+02	-8.479152e+00	1.212327e+02	-6.485590e+01	-5.301889e+01	-5.872175e+00	-8.957370e-18	-5.872175e+00	5.872175e+00
36            	-1.317311e+01	-5.792605e+01	4.475294e+01	1.091820e+02	-4.672912e+00	1.138549e+02	-5.926391e+01	-5.133949e+01	-6.194251e+00	-8.832437e-18	-6.194251e+00	6.194251e+00
37            	-1.339653e+01	-5.901457e+01	4.561803e+01	1.112593e+02	-9.829750e+00	1.210891e+02	-6.545941e+01	-5.231630e+01	-6.299311e+00	-8.798997e-18	-6.299311e+00	6.299311e+00
38            	-1.325901e+01	-6.183296e+01	4.857395e+01	1.173994e+02	-1.999285e+01	1.373922e+02	-7.869253e+01	-5.520346e+01	-6.234646e+00	-8.859500e-18	-6.234646e+00	6.234646e+00
39            	-1.302553e+01	-6.507229e+01	5.204676e+01	1.245366e+02	-2.988530e+01	1.544219e+02	-9.215360e+01	-5.855953e+01	-6.124857e+00	-8.998558e-18	-6.124857e+00	6.124857e+00
40            	-1.293273e+01	-6.748504e+01	5.455231e+01	1.297664e+02	-3.561324e+01	1.653796e+02	-1.004964e+02	-6.101868e+01	-6.081223e+00	-9.156342e-18	-6.081223e+00	6.081223e+00
41            	-1.303908e+01	-6.881469e+01	5.577561e+01	1.324810e+02	-3.734359e+01	1.698246e+02	-1.035841e+02	-6.229515e+01	-6.131231e+00	-9.297356e-18	-6.131231e+00	6.131231e+00
42            	-1.326811e+01	-6.933319e+01	5.606508e+01	1.333402e+02	-3.696283e+01	1.703030e+02	-1.036329e+02	-6.269914e+01	-6.238924e+00	-9.412994e-18	-6.238924e+00	6.238924e+00
43            	-1.348070e+01	-6.957984e+01	5.609915e+01	1.336387e+02	-3.674354e+01	1.703822e+02	-1.035629e+02	-6.283950e+01	-6.338885e+00	-9.502416e-18	-6.338885e+00	6.338885e+00
44            	-1.358441e+01	-7.007955e+01	5.649514e+01	1.345911e+02	-3.818060e+01	1.727717e+02	-1.054761e+02	-6.328734e+01	-6.387653e+00	-9.569154e-18	-6.387653e+00	6.387653e+00
45            	-1.358398e+01	-7.103318e+01	5.744921e+01	1.366196e+02	-4.124785e+01	1.778675e+02	-1.095577e+02	-6.424120e+01	-6.387450e+00	-9.591124e-18	-6.387450e+00	6.387450e+00
46            	-1.354358e+01	-7.236853e+01	5.882495e+01	1.395024e+02	-4.513793e+01	1.846403e+02	-1.148891e+02	-6.559674e+01	-6.368453e+00	-9.563633e-18	-6.368453e+00	6.368453e+00
47            	-1.354806e+01	-7.374530e+01	6.019723e+01	1.424256e+02	-4.855746e+01	1.909830e+02	-1.197702e+02	-6.697127e+01	-6.370563e+00	-9.524222e-18	-6.370563e+00	6.370563e+00
48            	-1.363312e+01	-7.488610e+01	6.125299e+01	1.447612e+02	-5.078001e+01	1.955412e+02	-1.231606e+02	-6.806955e+01	-6.410556e+00	-9.495247e-18	-6.410556e+00	6.410556e+00
49            	-1.378116e+01	-7.576499e+01	6.198383e+01	1.464729e+02	-5.198686e+01	1.984598e+02	-1.252233e+02	-6.887441e+01	-6.480170e+00	-9.503847e-18	-6.480170e+00	6.480170e+00
50            	-1.395122e+01	-7.649549e+01	6.254427e+01	1.478456e+02	-5.274510e+01	2.005907e+02	-1.266679e+02	-6.951988e+01	-6.560134e+00	-9.565282e-18	-6.560134e+00	6.560134e+00
51            	-1.411328e+01	-7.711358e+01	6.300030e+01	1.489878e+02	-5.329421e+01	2.022820e+02	-1.277881e+02	-7.005694e+01	-6.636339e+00	-9.663899e-18	-6.636339e+00	6.636339e+00
52            	-1.426250e+01	-7.769508e+01	6.343258e+01	1.500657e+02	-5.386137e+01	2.039271e+02	-1.288942e+02	-7.056383e+01	-6.706506e+00	-9.768866e-18	-6.706506e+00	6.706506e+00
53            	-1.441052e+01	-7.829051e+01	6.387998e+01	1.511746e+02	-5.450776e+01	2.056824e+02	-1.300951e+02	-7.108525e+01	-6.776107e+00	-9.861651e-18	-6.776107e+00	6.776107e+00
54            	-1.456967e+01	-7.887525e+01	6.430558e+01	1.522489e+02	-5.506164e+01	2.073106e+02	-1.311861e+02	-7.159041e+01	-6.850942e+00	-9.928105e-18	-6.850942e+00	6.850942e+00
55            	-1.473771e+01	-7.941302e+01	6.467531e+01	1.532139e+02	-5.539165e+01	2.086056e+02	-1.319986e+02	-7.204417e+01	-6.929960e+00	-9.970454e-18	-6.929960e+00	6.929960e+00
56            	-1.491039e+01	-7.989058e+01	6.498019e+01	1.540459e+02	-5.546234e+01	2.095082e+02	-1.324853e+02	-7.243538e+01	-7.011155e+00	-9.995731e-18	-7.011155e+00	7.011155e+00
57            	-1.508132e+01	-8.031080e+01	6.522948e+01	1.547578e+02	-5.532907e+01	2.100869e+02	-1.327080e+02	-7.277014e+01	-7.091529e+00	-1.001133e-17	-7.091529e+00	7.091529e+00
58            	-1.524361e+01	-8.067566e+01	6.543205e+01	1.553612e+02	-5.512910e+01	2.104903e+02	-1.328097e+02	-7.305386e+01	-7.167841e+00	-1.002168e-17	-7.167841e+00	7.167841e+00
59            	-1.539866e+01	-8.100631e+01	6.560766e+01	1.558995e+02	-5.503359e+01	2.109331e+02	-1.329833e+02	-7.330699e+01	-7.240747e+00	-1.002893e-17	-7.240747e+00	7.240747e+00
60            	-1.554757e+01	-8.136589e+01	6.581832e+01	1.565059e+02	-5.523936e+01	2.117452e+02	-1.334923e+02	-7.359210e+01	-7.310768e+00	-1.004180e-17	-7.310768e+00	7.310768e+00
61            	-1.568983e+01	-8.181784e+01	6.612800e+01	1.573157e+02	-5.586324e+01	2.131790e+02	-1.345211e+02	-7.397292e+01	-7.377665e+00	-1.006527e-17	-7.377665e+00	7.377665e+00
62            	-1.582010e+01	-8.237487e+01	6.655477e+01	1.583618e+02	-5.683670e+01	2.151985e+02	-1.360176e+02	-7.446482e+01	-7.438920e+00	-1.010524e-17	-7.438920e+00	7.438920e+00
63            	-1.593812e+01	-8.299071e+01	6.705259e+01	1.595460e+02	-5.792081e+01	2.174669e+02	-1.376938e+02	-7.502165e+01	-7.494415e+00	-1.015756e-17	-7.494415e+00	7.494415e+00
64            	-1.604860e+01	-8.360257e+01	6.755397e+01	1.607298e+02	-5.890004e+01	2.196298e+02	-1.392649e+02	-7.557827e+01	-7.546365e+00	-1.021625e-17	-7.546365e+00	7.546365e+00
65            	-1.616330e+01	-8.413798e+01	6.797468e+01	1.617465e+02	-5.958855e+01	2.213350e+02	-1.404618e+02	-7.605633e+01	-7.600300e+00	-1.026623e-17	-7.600300e+00	7.600300e+00
66            	-1.628753e+01	-8.457769e+01	6.829016e+01	1.625495e+02	-6.000727e+01	2.225568e+02	-1.412820e+02	-7.643393e+01	-7.658711e+00	-1.030407e-17	-7.658711e+00	7.658711e+00
67            	-1.642414e+01	-8.495172e+01	6.852758e+01	1.631997e+02	-6.027992e+01	2.234796e+02	-1.418798e+02	-7.673965e+01	-7.722948e+00	-1.032827e-17	-7.722948e+00	7.722948e+00
68            	-1.656370e+01	-8.531153e+01	6.874783e+01	1.638164e+02	-6.056602e+01	2.243825e+02	-1.424742e+02	-7.702968e+01	-7.788574e+00	-1.034953e-17	-7.788574e+00	7.788574e+00
69            	-1.669429e+01	-8.568042e+01	6.898612e+01	1.644621e+02	-6.091731e+01	2.253794e+02	-1.431484e+02	-7.733327e+01	-7.849982e+00	-1.037366e-17	-7.849982e+00	7.849982e+00
70            	-1.680506e+01	-8.606938e+01	6.926432e+01	1.651715e+02	-6.135142e+01	2.265229e+02	-1.439372e+02	-7.766685e+01	-7.902068e+00	-1.040849e-17	-7.902068e+00	7.902068e+00
71            	-1.690058e+01	-8.647040e+01	6.956982e+01	1.659228e+02	-6.180822e+01	2.277310e+02	-1.447696e+02	-7.802011e+01	-7.946980e+00	-1.044945e-17	-7.946980e+00	7.946980e+00
72            	-1.699019e+01	-8.686781e+01	6.987761e+01	1.666726e+02	-6.223812e+01	2.289107e+02	-1.455744e+02	-7.837271e+01	-7.989119e+00	-1.049333e-17	-7.989119e+00	7.989119e+00
73            	-1.709092e+01	-8.721684e+01	7.012592e+01	1.673078e+02	-6.252521e+01	2.298330e+02	-1.461791e+02	-7.867138e+01	-8.036483e+00	-1.052722e-17	-8.036483e+00	8.036483e+00
74            	-1.720703e+01	-8.752366e+01	7.031663e+01	1.678368e+02	-6.271902e+01	2.305559e+02	-1.466374e+02	-7.892014e+01	-8.091082e+00	-1.055189e-17	-8.091082e+00	8.091082e+00
75            	-1.733357e+01	-8.781344e+01	7.047988e+01	1.683186e+02	-6.290039e+01	2.312190e+02	-1.470597e+02	-7.914666e+01	-8.150580e+00	-1.056785e-17	-8.150580e+00	8.150580e+00
76            	-1.745453e+01	-8.812075e+01	7.066621e+01	1.688435e+02	-6.317847e+01	2.320219e+02	-1.476002e+02	-7.939348e+01	-8.207460e+00	-1.058488e-17	-8.207460e+00	8.207460e+00
77            	-1.755972e+01	-8.844894e+01	7.088922e+01	1.694296e+02	-6.354923e+01	2.329788e+02	-1.482640e+02	-7.966908e+01	-8.256923e+00	-1.060516e-17	-8.256923e+00	8.256923e+00
78            	-1.764420e+01	-8.879961e+01	7.115542e+01	1.700855e+02	-6.400784e+01	2.340934e+02	-1.490506e+02	-7.997752e+01	-8.296645e+00	-1.063427e-17	-8.296645e+00	8.296645e+00
79            	-1.771856e+01	-8.914321e+01	7.142465e+01	1.707372e+02	-6.444585e+01	2.351830e+02	-1.498144e+02	-8.028393e+01	-8.331613e+00	-1.066696e-17	-8.331613e+00	8.331613e+00
80            	-1.779623e+01	-8.945917e+01	7.166293e+01	1.713265e+02	-6.480378e+01	2.361303e+02	-1.504670e+02	-8.056105e+01	-8.368135e+00	-1.070026e-17	-8.368135e+00	8.368135e+00
81            	-1.788853e+01	-8.973352e+01	7.184498e+01	1.718118e+02	-6.503816e+01	2.368500e+02	-1.509441e+02	-8.078925e+01	-8.411536e+00	-1.072644e-17	-8.411536e+00	8.411536e+00
82            	-1.799166e+01	-8.999197e+01	7.200031e+01	1.722518e+02	-6.523655e+01	2.374883e+02	-1.513625e+02	-8.099614e+01	-8.460027e+00	-1.074859e-17	-8.460027e+00	8.460027e+00
83            	-1.810040e+01	-9.025593e+01	7.215552e+01	1.726975e+02	-6.544528e+01	2.381428e+02	-1.517940e+02	-8.120572e+01	-8.511161e+00	-1.076606e-17	-8.511161e+00	8.511161e+00
84            	-1.819947e+01	-9.052786e+01	7.232839e+01	1.731705e+02	-6.569332e+01	2.388638e+02	-1.522786e+02	-8.142812e+01	-8.557743e+00	-1.078524e-17	-8.557743e+00	8.557743e+00
85            	-1.828369e+01	-9.078820e+01	7.250451e+01	1.736346e+02	-6.592678e+01	2.395614e+02	-1.527441e+02	-8.164635e+01	-8.597346e+00	-1.080584e-17	-8.597346e+00	8.597346e+00
86            	-1.835431e+01	-9.103591e+01	7.268160e+01	1.740863e+02	-6.615095e+01	2.402372e+02	-1.531941e+02	-8.185876e+01	-8.630554e+00	-1.083070e-17	-8.630554e+00	8.630554e+00
87            	-1.842259e+01	-9.126646e+01	7.284388e+01	1.745040e+02	-6.633588e+01	2.408399e+02	-1.535879e+02	-8.205517e+01	-8.662659e+00	-1.085503e-17	-8.662659e+00	8.662659e+00
88            	-1.849568e+01	-9.149024e+01	7.299456e+01	1.749022e+02	-6.650915e+01	2.414113e+02	-1.539602e+02	-8.224240e+01	-8.697026e+00	-1.087896e-17	-8.697026e+00	8.697026e+00
89            	-1.857940e+01	-9.170521e+01	7.312580e+01	1.752703e+02	-6.665258e+01	2.419229e+02	-1.542877e+02	-8.241550e+01	-8.736396e+00	-1.089784e-17	-8.736396e+00	8.736396e+00
90            	-1.866901e+01	-9.192420e+01	7.325519e+01	1.756408e+02	-6.681086e+01	2.424516e+02	-1.546312e+02	-8.258970e+01	-8.778531e+00	-1.091491e-17	-8.778531e+00	8.778531e+00
91            	-1.875783e+01	-9.213738e+01	7.337954e+01	1.759997e+02	-6.696046e+01	2.429601e+02	-1.549603e+02	-8.275846e+01	-8.820297e+00	-1.092877e-17	-8.820297e+00	8.820297e+00
92            	-1.883579e+01	-9.234233e+01	7.350655e+01	1.763526e+02	-6.711725e+01	2.434699e+02	-1.552936e+02	-8.292444e+01	-8.856953e+00	-1.094421e-17	-8.856953e+00	8.856953e+00
93            	-1.890358e+01	-9.253355e+01	7.362996e+01	1.766872e+02	-6.725723e+01	2.439444e+02	-1.556008e+02	-8.308175e+01	-8.888831e+00	-1.095934e-17	-8.888831e+00	8.888831e+00
94            	-1.896361e+01	-9.272406e+01	7.376045e+01	1.770285e+02	-6.741350e+01	2.444420e+02	-1.559278e+02	-8.324226e+01	-8.917058e+00	-1.097733e-17	-8.917058e+00	8.917058e+00
95            	-1.902447e+01	-9.291245e+01	7.388799e+01	1.773645e+02	-6.755943e+01	2.449239e+02	-1.562417e+02	-8.340022e+01	-8.945674e+00	-1.099461e-17	-8.945674e+00	8.945674e+00
96            	-1.908921e+01	-9.309530e+01	7.400609e+01	1.776845e+02	-6.769488e+01	2.453794e+02	-1.565371e+02	-8.355069e+01	-8.976116e+00	-1.101201e-17	-8.976116e+00	8.976116e+00
97            	-1.916000e+01	-9.326256e+01	7.410257e+01	1.779649e+02	-6.778959e+01	2.457545e+02	-1.567721e+02	-8.368256e+01	-9.009403e+00	-1.102560e-17	-9.009403e+00	9.009403e+00
98            	-1.923084e+01	-9.342586e+01	7.419502e+01	1.782369e+02	-6.789065e+01	2.461275e+02	-1.570091e+02	-8.381044e+01	-9.042716e+00	-1.103877e-17	-9.042716e+00	9.042716e+00
99            	-1.929860e+01	-9.358445e+01	7.428584e+01	1.785021e+02	-6.798922e+01	2.464913e+02	-1.572403e+02	-8.393514e+01	-9.074579e+00	-1.104967e-17	-9.074579e+00	9.074579e+00
100           	-1.935802e+01	-9.374224e+01	7.438422e+01	1.787745e+02	-6.810536e+01	2.468798e+02	-1.574926e+02	-8.406323e+01	-9.102516e+00	-1.106197e-17	-9.102516e+00	9.102516e+00
101           	-1.941199e+01	-9.389092e+01	7.447893e+01	1.790333e+02	-6.820348e+01	2.472367e+02	-1.577201e+02	-8.418492e+01	-9.127896e+00	-1.107314e-17	-9.127896e+00	9.127896e+00
102           	-1.946209e+01	-9.403712e+01	7.457503e+01	1.792909e+02	-6.830482e+01	2.475957e+02	-1.579503e+02	-8.430608e+01	-9.151455e+00	-1.108620e-17	-9.151455e+00	9.151455e+00
103           	-1.951377e+01	-9.417165e+01	7.465789e+01	1.795221e+02	-6.837580e+01	2.478979e+02	-1.581368e+02	-8.441477e+01	-9.175752e+00	-1.109751e-17	-9.175752e+00	9.175752e+00
104           	-1.956656e+01	-9.430436e+01	7.473780e+01	1.797482e+02	-6.845266e+01	2.482008e+02	-1.583267e+02	-8.452108e+01	-9.200575e+00	-1.110952e-17	-9.200575e+00	9.200575e+00
105           	-1.962078e+01	-9.441779e+01	7.479700e+01	1.799317e+02	-6.849038e+01	2.484221e+02	-1.584562e+02	-8.460739e+01	-9.226074e+00	-1.111797e-17	-9.226074e+00	9.226074e+00
106           	-1.967292e+01	-9.453775e+01	7.486483e+01	1.801314e+02	-6.855902e+01	2.486904e+02	-1.586247e+02	-8.470129e+01	-9.250588e+00	-1.112739e-17	-9.250588e+00	9.250588e+00
107           	-1.972209e+01	-9.465885e+01	7.493676e+01	1.803367e+02	-6.863584e+01	2.489725e+02	-1.588042e+02	-8.479780e+01	-9.273711e+00	-1.113473e-17	-9.273711e+00	9.273711e+00
108           	-1.976567e+01	-9.476943e+01	7.500376e+01	1.805255e+02	-6.870217e+01	2.492277e+02	-1.589649e+02	-8.488660e+01	-9.294203e+00	-1.114404e-17	-9.294203e+00	9.294203e+00
109           	-1.980680e+01	-9.487188e+01	7.506508e+01	1.806996e+02	-6.874954e+01	2.494492e+02	-1.590994e+02	-8.496848e+01	-9.313540e+00	-1.115188e-17	-9.313540e+00	9.313540e+00
110           	-1.984535e+01	-9.497265e+01	7.512729e+01	1.808729e+02	-6.880272e+01	2.496757e+02	-1.592392e+02	-8.504997e+01	-9.331671e+00	-1.116114e-17	-9.331671e+00	9.331671e+00
111           	-1.988456e+01	-9.506763e+01	7.518306e+01	1.810332e+02	-6.884193e+01	2.498752e+02	-1.593585e+02	-8.512534e+01	-9.350107e+00	-1.116838e-17	-9.350107e+00	9.350107e+00
112           	-1.992334e+01	-9.515675e+01	7.523341e+01	1.811815e+02	-6.887947e+01	2.500610e+02	-1.594702e+02	-8.519508e+01	-9.368342e+00	-1.117625e-17	-9.368342e+00	9.368342e+00
113           	-1.996232e+01	-9.523392e+01	7.527160e+01	1.813042e+02	-6.889362e+01	2.501978e+02	-1.595457e+02	-8.525276e+01	-9.386671e+00	-1.118145e-17	-9.386671e+00	9.386671e+00
114           	-1.999864e+01	-9.531827e+01	7.531963e+01	1.814450e+02	-6.893924e+01	2.503842e+02	-1.596617e+02	-8.531895e+01	-9.403749e+00	-1.118747e-17	-9.403749e+00	9.403749e+00
115           	-2.003253e+01	-9.539469e+01	7.536216e+01	1.815714e+02	-6.897090e+01	2.505423e+02	-1.597566e+02	-8.537842e+01	-9.419686e+00	-1.119181e-17	-9.419686e+00	9.419686e+00
116           	-2.006236e+01	-9.546563e+01	7.540327e+01	1.816906e+02	-6.900232e+01	2.506929e+02	-1.598476e+02	-8.543445e+01	-9.433710e+00	-1.119813e-17	-9.433710e+00	9.433710e+00
117           	-2.009069e+01	-9.553097e+01	7.544028e+01	1.817994e+02	-6.902045e+01	2.508199e+02	-1.599202e+02	-8.548563e+01	-9.447034e+00	-1.120314e-17	-9.447034e+00	9.447034e+00
118           	-2.011658e+01	-9.559920e+01	7.548262e+01	1.819170e+02	-6.905385e+01	2.509709e+02	-1.600124e+02	-8.554091e+01	-9.459209e+00	-1.120978e-17	-9.459209e+00	9.459209e+00
119           	-2.014343e+01	-9.565729e+01	7.551386e+01	1.820120e+02	-6.906275e+01	2.510747e+02	-1.600687e+02	-8.558558e+01	-9.471831e+00	-1.121427e-17	-9.471831e+00	9.471831e+00
120           	-2.016926e+01	-9.570974e+01	7.554049e+01	1.820961e+02	-6.907027e+01	2.511663e+02	-1.601183e+02	-8.562511e+01	-9.483976e+00	-1.121928e-17	-9.483976e+00	9.483976e+00
121           	-2.019505e+01	-9.575630e+01	7.556125e+01	1.821677e+02	-6.906695e+01	2.512346e+02	-1.601508e+02	-8.565878e+01	-9.496105e+00	-1.122183e-17	-9.496105e+00	9.496105e+00
122           	-2.021823e+01	-9.580618e+01	7.558795e+01	1.822491e+02	-6.908416e+01	2.513332e+02	-1.602087e+02	-8.569707e+01	-9.507006e+00	-1.122512e-17	-9.507006e+00	9.507006e+00
123           	-2.023975e+01	-9.584940e+01	7.560965e+01	1.823181e+02	-6.908876e+01	2.514069e+02	-1.602478e+02	-8.572953e+01	-9.517123e+00	-1.122705e-17	-9.517123e+00	9.517123e+00
124           	-2.025785e+01	-9.589008e+01	7.563222e+01	1.823854e+02	-6.909825e+01	2.514836e+02	-1.602909e+02	-8.576115e+01	-9.525637e+00	-1.123121e-17	-9.525637e+00	9.525637e+00
125           	-2.027472e+01	-9.592443e+01	7.564971e+01	1.824405e+02	-6.909297e+01	2.515335e+02	-1.603132e+02	-8.578707e+01	-9.533566e+00	-1.123394e-17	-9.533566e+00	9.533566e+00
126           	-2.028937e+01	-9.595882e+01	7.566946e+01	1.824981e+02	-6.909685e+01	2.515949e+02	-1.603459e+02	-8.581414e+01	-9.540454e+00	-1.123848e-17	-9.540454e+00	9.540454e+00
127           	-2.030492e+01	-9.598599e+01	7.568107e+01	1.825393e+02	-6.908306e+01	2.516224e+02	-1.603527e+02	-8.583353e+01	-9.547768e+00	-1.124071e-17	-9.547768e+00	9.547768e+00
128           	-2.031964e+01	-9.601288e+01	7.569324e+01	1.825808e+02	-6.907779e+01	2.516586e+02	-1.603682e+02	-8.585306e+01	-9.554689e+00	-1.124372e-17	-9.554689e+00	9.554689e+00
129           	-2.033464e+01	-9.603337e+01	7.569873e+01	1.826085e+02	-6.905832e+01	2.516668e+02	-1.603626e+02	-8.586605e+01	-9.561744e+00	-1.124408e-17	-9.561744e+00	9.561744e+00
130           	-2.034713e+01	-9.605360e+01	7.570647e+01	1.826382e+02	-6.904955e+01	2.516878e+02	-1.603687e+02	-8.588004e+01	-9.567615e+00	-1.124593e-17	-9.567615e+00	9.567615e+00
131           	-2.035850e+01	-9.606931e+01	7.571081e+01	1.826595e+02	-6.903220e+01	2.516917e+02	-1.603620e+02	-8.589006e+01	-9.572962e+00	-1.124591e-17	-9.572962e+00	9.572962e+00
132           	-2.036670e+01	-9.608564e+01	7.571894e+01	1.826855e+02	-6.902742e+01	2.517130e+02	-1.603702e+02	-8.590229e+01	-9.576818e+00	-1.124818e-17	-9.576818e+00	9.576818e+00
133           	-2.037416e+01	-9.609589e+01	7.572173e+01	1.826994e+02	-6.900869e+01	2.517081e+02	-1.603584e+02	-8.590881e+01	-9.580326e+00	-1.124907e-17	-9.580326e+00	9.580326e+00
134           	-2.037968e+01	-9.610667e+01	7.572699e+01	1.827165e+02	-6.900003e+01	2.517165e+02	-1.603583e+02	-8.591683e+01	-9.582919e+00	-1.125165e-17	-9.582919e+00	9.582919e+00
135           	-2.038600e+01	-9.611222e+01	7.572622e+01	1.827215e+02	-6.897796e+01	2.516995e+02	-1.603387e+02	-8.591922e+01	-9.585893e+00	-1.125196e-17	-9.585893e+00	9.585893e+00
136           	-2.039159e+01	-9.611899e+01	7.572741e+01	1.827300e+02	-6.896670e+01	2.516967e+02	-1.603317e+02	-8.592320e+01	-9.588520e+00	-1.125363e-17	-9.588520e+00	9.588520e+00
137           	-2.039784e+01	-9.612043e+01	7.572259e+01	1.827264e+02	-6.894224e+01	2.516687e+02	-1.603054e+02	-8.592151e+01	-9.591459e+00	-1.125261e-17	-9.591459e+00	9.591459e+00
138           	-2.040191e+01	-9.612280e+01	7.572089e+01	1.827271e+02	-6.892938e+01	2.516565e+02	-1.602929e+02	-8.592185e+01	-9.593372e+00	-1.125336e-17	-9.593372e+00	9.593372e+00
139           	-2.040524e+01	-9.611971e+01	7.571447e+01	1.827170e+02	-6.890396e+01	2.516210e+02	-1.602625e+02	-8.591709e+01	-9.594939e+00	-1.125207e-17	-9.594939e+00	9.594939e+00
140           	-2.040582e+01	-9.611769e+01	7.571187e+01	1.827121e+02	-6.889067e+01	2.516028e+02	-1.602467e+02	-8.591478e+01	-9.595212e+00	-1.125310e-17	-9.595212e+00	9.595212e+00
141           	-2.040625e+01	-9.611060e+01	7.570435e+01	1.826966e+02	-6.886444e+01	2.515610e+02	-1.602127e+02	-8.590747e+01	-9.595417e+00	-1.125222e-17	-9.595417e+00	9.595417e+00
142           	-2.040506e+01	-9.610538e+01	7.570032e+01	1.826867e+02	-6.885068e+01	2.515374e+02	-1.601940e+02	-8.590285e+01	-9.594854e+00	-1.125361e-17	-9.594854e+00	9.594854e+00
143           	-2.040516e+01	-9.609537e+01	7.569021e+01	1.826653e+02	-6.882228e+01	2.514876e+02	-1.601549e+02	-8.589279e+01	-9.594904e+00	-1.125233e-17	-9.594904e+00	9.594904e+00
144           	-2.040437e+01	-9.608767e+01	7.568330e+01	1.826498e+02	-6.880601e+01	2.514558e+02	-1.601309e+02	-8.588549e+01	-9.594531e+00	-1.125281e-17	-9.594531e+00	9.594531e+00
145           	-2.040427e+01	-9.607428e+01	7.567001e+01	1.826214e+02	-6.877473e+01	2.513962e+02	-1.600854e+02	-8.587214e+01	-9.594482e+00	-1.125068e-17	-9.594482e+00	9.594482e+00
146           	-2.040220e+01	-9.606229e+01	7.566009e+01	1.825981e+02	-6.875500e+01	2.513531e+02	-1.600541e+02	-8.586119e+01	-9.593509e+00	-1.125066e-17	-9.593509e+00	9.593509e+00
147           	-2.039990e+01	-9.604572e+01	7.564582e+01	1.825653e+02	-6.872324e+01	2.512886e+02	-1.600059e+02	-8.584577e+01	-9.592428e+00	-1.124839e-17	-9.592428e+00	9.592428e+00
148           	-2.039522e+01	-9.603100e+01	7.563578e+01	1.825390e+02	-6.870447e+01	2.512435e+02	-1.599740e+02	-8.583339e+01	-9.590230e+00	-1.124853e-17	-9.590230e+00	9.590230e+00
149           	-2.039094e+01	-9.601221e+01	7.562127e+01	1.825036e+02	-6.867405e+01	2.511776e+02	-1.599259e+02	-8.581674e+01	-9.588215e+00	-1.124643e-17	-9.588215e+00	9.588215e+00
150           	-2.038549e+01	-9.599565e+01	7.561016e+01	1.824742e+02	-6.865549e+01	2.511297e+02	-1.598926e+02	-8.580291e+01	-9.585656e+00	-1.124647e-17	-9.585656e+00	9.585656e+00
151           	-2.038114e+01	-9.597499e+01	7.559385e+01	1.824349e+02	-6.862455e+01	2.510594e+02	-1.598420e+02	-8.578442e+01	-9.583609e+00	-1.124403e-17	-9.583609e+00	9.583609e+00
152           	-2.037573e+01	-9.595660e+01	7.558087e+01	1.824015e+02	-6.860561e+01	2.510071e+02	-1.598064e+02	-8.576874e+01	-9.581063e+00	-1.124353e-17	-9.581063e+00	9.581063e+00
153           	-2.037114e+01	-9.593472e+01	7.556357e+01	1.823598e+02	-6.857559e+01	2.509354e+02	-1.597555e+02	-8.574915e+01	-9.578908e+00	-1.124055e-17	-9.578908e+00	9.578908e+00
154           	-2.036506e+01	-9.591514e+01	7.555008e+01	1.823247e+02	-6.855707e+01	2.508818e+02	-1.597194e+02	-8.573261e+01	-9.576048e+00	-1.123966e-17	-9.576048e+00	9.576048e+00
155           	-2.035927e+01	-9.589099e+01	7.553173e+01	1.822795e+02	-6.852543e+01	2.508049e+02	-1.596652e+02	-8.571136e+01	-9.573323e+00	-1.123652e-17	-9.573323e+00	9.573323e+00
156           	-2.035157e+01	-9.586775e+01	7.551618e+01	1.822382e+02	-6.850297e+01	2.507412e+02	-1.596221e+02	-8.569197e+01	-9.569704e+00	-1.123561e-17	-9.569704e+00	9.569704e+00
157           	-2.034429e+01	-9.584036e+01	7.549607e+01	1.821877e+02	-6.846898e+01	2.506567e+02	-1.595629e+02	-8.566822e+01	-9.566281e+00	-1.123258e-17	-9.566281e+00	9.566281e+00
158           	-2.033596e+01	-9.581728e+01	7.548132e+01	1.821475e+02	-6.845061e+01	2.505981e+02	-1.595244e+02	-8.564930e+01	-9.562364e+00	-1.123180e-17	-9.562364e+00	9.562364e+00
159           	-2.032895e+01	-9.579170e+01	7.546275e+01	1.821006e+02	-6.842192e+01	2.505225e+02	-1.594722e+02	-8.562722e+01	-9.559066e+00	-1.122871e-17	-9.559066e+00	9.559066e+00
160           	-2.032104e+01	-9.576822e+01	7.544718e+01	1.820590e+02	-6.840256e+01	2.504616e+02	-1.594321e+02	-8.560770e+01	-9.555346e+00	-1.122760e-17	-9.555346e+00	9.555346e+00
161           	-2.031403e+01	-9.573974e+01	7.542570e+01	1.820059e+02	-6.836828e+01	2.503742e+02	-1.593712e+02	-8.558272e+01	-9.552054e+00	-1.122406e-17	-9.552054e+00	9.552054e+00
162           	-2.030563e+01	-9.571356e+01	7.540793e+01	1.819592e+02	-6.834532e+01	2.503045e+02	-1.593249e+02	-8.556075e+01	-9.548103e+00	-1.122262e-17	-9.548103e+00	9.548103e+00
163           	-2.029786e+01	-9.568421e+01	7.538634e+01	1.819050e+02	-6.831208e+01	2.502171e+02	-1.592646e+02	-8.553528e+01	-9.544450e+00	-1.121897e-17	-9.544450e+00	9.544450e+00