/*--------------------------------*- C++ -*----------------------------------*\
| =========                 |                                                 |
| \\      /  F ield         | OpenFOAM: The Open Source CFD Toolbox           |
|  \\    /   O peration     | Version:  2312                                  |
|   \\  /    A nd           | Website:  www.openfoam.com                      |
|    \\/     M anipulation  |                                                 |
\*---------------------------------------------------------------------------*/
FoamFile
{
    version     2.0;
    format      ascii;
    arch        "LSB;label=32;scalar=64";
    class       volScalarField;
    location    "150";
    object      div(phi);
}
// * * * * * * * * * * * * * * * * * * * * * * * * * * * * * * * * * * * * * //

dimensions      [0 0 -1 0 0 0 0];

internalField   nonuniform List<scalar> 
11040
(
-0.10651
-0.0985667
-0.30259
-0.192064
-0.17789
-0.165546
-0.208903
-0.269905
-0.245035
-0.305749
-0.231961
-0.46629
0.0762093
-0.401109
-0.193361
-0.176638
0.267057
0.234491
-0.00529541
-0.060082
-0.46168
-0.728247
-0.782922
-0.561539
0.448934
-0.450677
0.726758
-0.492941
0.70195
-0.18776
0.71932
-0.039284
0.547802
0.203381
0.481711
0.34372
0.442711
0.437405
0.283078
1.07451
1.28286
-0.0374926
-0.0524787
-0.124369
-0.223866
-0.295016
-0.327112
-0.300883
-0.296229
-0.254093
-0.289127
-0.244244
-0.313651
-0.188281
-0.448138
-0.284331
-0.417626
-0.270244
-0.530753
-0.622844
-0.655631
-0.8784
-1.05019
-1.1243
-1.13386
-0.484264
-0.680605
0.0674983
-0.283102
0.427082
0.191757
0.701764
0.456086
0.73556
0.61755
0.665266
0.580754
0.521706
0.476348
0.456563
0.624334
0.668098
-0.0311653
-0.0123829
-0.0205748
-0.0317795
-0.0852899
-0.0937549
-0.0805725
-0.0573
-0.0612931
-0.0633441
-0.0772195
-0.116168
0.0131916
-0.0413526
-0.0412242
-0.00449511
0.113554
0.210597
0.058781
0.0905451
0.0776694
-0.0198349
-0.0348399
0.0643924
0.312108
-0.00120987
0.336986
-0.0861439
0.280923
-0.0620472
0.228714
-0.0615952
0.137255
-0.0101468
0.0926505
0.0224915
0.0806608
0.0386529
-0.00447876
0.159645
0.174181
-0.011903
-0.00151596
-0.00925372
-0.0141413
-0.0476422
-0.0821399
-0.130464
-0.148737
-0.153583
-0.131529
-0.138555
-0.0998963
-0.103274
-0.13407
-0.146813
-0.174286
-0.183175
-0.29685
-0.347706
-0.395144
-0.44901
-0.538364
-0.53727
-0.530578
-0.284366
-0.288733
-0.0304117
-0.0684715
0.169399
0.146363
0.304872
0.257001
0.333268
0.297225
0.292796
0.255662
0.219469
0.197927
0.185356
0.23351
0.222644
0.013916
-0.0112107
-0.00826668
-0.0215956
-0.0184099
-0.0283904
-0.0522744
-0.0829814
-0.0611995
-0.0584277
-0.0475619
-0.0578883
-0.022484
-0.0253022
-0.0412287
-0.032098
0.00349368
0.0247438
0.00632084
0.000707039
0.0634768
0.0389132
0.0175485
0.0714671
0.103872
0.0793169
0.0951917
0.0607636
0.0899972
0.0631569
0.0817919
0.049039
0.0647866
0.0458366
0.0547623
0.0421905
0.0521297
0.0342836
0.0257501
0.0563652
0.0633044
-0.0382091
0.0044993
-0.0145396
0.00951745
0.000259547
-0.00867503
-0.0119218
-0.0270404
-0.040221
-0.0712017
-0.0768124
-0.0793373
-0.0632451
-0.0682805
-0.073438
-0.0788279
-0.112436
-0.140857
-0.193285
-0.19555
-0.235229
-0.238336
-0.261364
-0.198177
-0.150849
-0.0783226
-0.0478523
0.0181676
0.0410643
0.098921
0.102302
0.132462
0.123981
0.132327
0.116797
0.104242
0.0969775
0.0724147
0.0852882
0.0726992
0.0894874
0.0174818
-0.00973705
0.0253273
0.00617319
-0.00806917
-0.00727943
-0.0165895
-0.015402
-0.035451
-0.0479524
-0.0854171
-0.0622851
-0.0527796
-0.034332
-0.0502177
-0.0555782
-0.0618967
-0.059373
-0.058539
-0.0538812
-0.00442685
-0.019384
-0.0156071
-0.00203764
0.0410317
0.0199947
0.0507118
0.0305854
0.065212
0.0486297
0.07319
0.0572342
0.0715927
0.0620174
0.0649251
0.0607007
0.0550038
0.0537753
0.0373792
0.0492112
0.0347485
-0.015167
0.0178772
0.0199075
-0.0122709
-0.000759526
-0.0218998
-0.00352373
-0.0127715
0.00124356
-0.0251792
-0.00364977
-0.0232299
-0.0390629
-0.0519601
-0.0576732
-0.0708962
-0.0604198
-0.0785014
-0.0784657
-0.0928763
-0.0875161
-0.107252
-0.080658
-0.0613739
-0.0336634
-0.0229795
0.0197414
0.013666
0.0480791
0.042007
0.0636353
0.0570045
0.0675496
0.0626182
0.0645761
0.0581747
0.0537891
0.0442638
0.0405607
0.0363625
0.0353848
-0.00397969
0.0344004
-0.0174821
0.014241
-0.0288874
0.00553734
-0.0101101
0.0172869
-0.00726342
0.0173358
0.00115162
-0.0248709
-0.0401162
-0.0642203
-0.0809627
-0.0680405
-0.0804032
-0.0565157
-0.0656502
-0.046249
-0.0503415
-0.0380177
-0.0433926
-0.0116889
-0.00513162
0.0381276
0.012548
0.0518721
0.0273148
0.0584758
0.0400083
0.059424
0.0474781
0.0560878
0.0497784
0.0490421
0.0451855
0.0375754
0.0365821
0.0290788
0.0316783
0.0167009
-0.0108611
0.0174989
-0.0243192
0.00478146
-0.0103541
0.0158001
-0.000403278
0.0141348
0.00763022
-0.0133385
-0.0128374
-0.0256332
-0.0362833
-0.0215577
-0.0450042
-0.0136335
-0.010315
-0.0296115
-0.0257965
-0.0331943
-0.0310006
-0.0149781
0.00578756
0.0309478
-0.0304305
0.101848
-0.0173328
0.0924636
-0.00862431
0.0736045
0.00354706
0.0522706
0.015137
0.0357261
0.0243298
0.0174198
0.0252814
0.00457437
0.0262365
0.00247323
0.000541251
0.00214641
-0.00736226
-0.0055914
-0.00727807
-0.000847208
0.00119374
0.000985814
0.0053235
-0.00813608
-0.00667813
-0.00849386
-0.014938
0.00991618
-0.00639225
0.0128754
0.0156156
-0.026013
-0.0127194
-0.0371569
-0.0263689
-0.024249
-0.0016068
0.0196674
-0.0557663
0.0779489
-0.0500554
0.113729
-0.0350843
0.0953759
-0.0259101
0.0638832
-0.0118323
0.0332252
0.00410753
0.00251058
0.0186997
-0.0221421
0.0282113
-0.0341641
0.036625
-0.00303707
-0.00172562
-0.00677565
-0.00644249
-0.00858193
-0.00535723
-0.00579339
-0.00486966
-0.00406091
-0.00844581
-0.0019493
-0.0112432
0.0113768
0.00229238
0.00999048
0.012446
-0.0114418
0.00910929
-0.0139141
0.00166612
-0.00429494
0.0150158
0.0253715
-0.00759193
-0.00497327
-0.0278314
0.0380235
0.0112823
0.0494252
0.0183615
0.0383232
0.0185835
0.0219029
0.0193257
0.00273251
0.0272706
-0.0189035
0.0312198
-0.0368264
0.041729
-0.0473151
-0.00385403
-0.00203449
-0.00605672
-0.00391689
-0.00802886
-0.00445035
-0.00768266
-0.00507897
-0.00733173
-0.00483635
-0.00671352
0.000533046
0.00291833
0.00198337
0.00689652
-0.00544623
0.0114627
0.000631734
0.0142086
0.0117998
0.0309138
0.0227811
0.0579889
-0.0546375
0.0391756
-0.0910169
0.0910168
-0.0595872
0.112729
-0.0373308
0.102091
-0.015548
0.0744146
0.00714306
0.0497118
0.0248335
0.020282
0.0301627
0.00782493
0.0315357
0.00141526
-0.00312553
-0.000840213
-0.00480096
-0.0014905
-0.00645596
-0.00192673
-0.00707623
-0.00228413
-0.00703304
-0.00353176
-0.00636685
-0.00231013
-0.00361151
-0.00131281
-0.00328409
0.00335673
-0.000422418
0.00835391
0.00810582
0.0188446
0.0069471
0.0384564
-0.0206738
0.0470859
-0.0965298
0.0791975
-0.0986556
0.123295
-0.0763789
0.135479
-0.0386801
0.109328
0.0111792
0.0667664
0.0645663
0.010649
0.100669
-0.0335516
0.124093
-0.0634436
0.137918
-0.0021987
-0.000181158
-0.00357111
-0.00035793
-0.0050775
-0.000500075
-0.00578821
-0.000644798
-0.00615296
-0.00107913
-0.00597114
-0.00178058
-0.00495212
-0.00280584
-0.00513212
-0.00469952
-0.00175878
0.000528772
0.00364711
0.000325145
0.00616953
0.00127182
0.00873863
-0.0195525
0.00478965
-0.0220653
0.0162953
-0.0121889
0.0307482
0.00172045
0.0354731
0.0173169
0.0334165
0.0327739
0.0233195
0.042556
0.00840871
0.0476335
-0.00202413
0.0538988
-0.0108547
-0.00158376
0.000124424
-0.00255905
-5.24488e-05
-0.0036403
-3.4541e-05
-0.0042405
0.000262951
-0.00428422
0.000186475
-0.00395453
-0.000228675
-0.0034365
-0.00200161
-0.0037745
-0.00471647
-0.00412255
-0.00575611
-0.00307536
-0.00563827
-0.000974058
-0.00673908
0.00192107
-0.0109814
0.00344666
-0.012345
0.00860944
-0.00844872
0.0131984
-0.00293899
0.0138951
0.00367527
0.0105031
0.0121557
0.00321108
0.0179376
-0.00608442
0.0250229
-0.0143565
0.0313613
-0.0191492
-0.00106598
0.000270401
-0.00158232
0.000233714
-0.00204291
0.000325394
-0.00219581
0.000550192
-0.00193398
0.000619932
-0.00138973
0.00024442
-0.00080622
-0.000904657
-0.000392896
-0.00306997
-0.000236433
-0.00508535
0.000405229
-0.00655581
0.00249016
-0.00775015
0.00540246
-0.00951569
0.00791559
-0.0104201
0.00968257
-0.0100427
0.00977065
-0.00830673
0.00654906
-0.00489254
0.000653351
0.000148449
-0.00726415
0.00577691
-0.0156588
0.0121631
-0.0228814
0.0202972
-0.0252682
-0.000628229
7.204e-05
-0.000903305
1.31266e-05
-0.00111785
6.37719e-05
-0.00113618
0.000249842
-0.000839513
0.000487707
-0.000268265
0.00057919
0.000488705
0.000301495
0.00132296
-0.000574155
0.00203569
-0.00169776
0.00279382
-0.00286455
0.00433212
-0.00390937
0.00669693
-0.00502249
0.00859622
-0.0059065
0.00951357
-0.00592971
0.00891091
-0.0046182
0.00651593
-0.0015491
0.00260643
0.00306378
-0.00215197
0.00810929
-0.00687415
0.0127974
-0.0104504
0.0169248
-0.0135806
-0.00044881
4.56518e-05
-0.000414138
0.000100626
-0.000362364
0.00020896
-0.000191947
0.000387287
0.000157344
0.000586991
0.000616242
0.000656315
0.00120093
0.000561686
0.00179319
0.000134726
0.00236704
-0.000544419
0.00279428
-0.00157625
0.00349542
-0.00277879
0.00448776
-0.00432847
0.00468977
-0.00589446
0.00387014
-0.00697543
0.00179946
-0.00711936
-0.00128682
-0.00605219
-0.00501916
-0.0041095
-0.00890727
-0.00204888
-0.0127058
-6.2671e-05
-0.016196
0.00263216
-0.0172152
-2.19682e-05
-0.00016846
-0.000105601
2.80883e-05
-5.37047e-05
0.000154761
8.08147e-05
0.000287635
0.000308952
0.000335349
0.000574928
0.000344015
0.000905342
0.000176852
0.00124383
-0.000126621
0.00147581
-0.000669273
0.00150191
-0.00147603
0.00160269
-0.00262771
0.00173933
-0.00402556
0.00128072
-0.00519191
0.000247929
-0.00576301
-0.0012664
-0.00530915
-0.00301942
-0.00394186
-0.00485464
-0.0019209
-0.00661905
0.000149288
-0.00815943
0.00181329
-0.00903291
0.00311607
-0.0106538
-0.000709803
8.5394e-05
-0.000166225
2.88931e-05
6.81396e-05
-9.26858e-05
0.000453175
-0.000280593
0.00085172
-0.00052364
0.00135831
-0.000829
0.00172727
-0.00124419
0.00221453
-0.00185611
0.00246901
-0.00263216
0.00262079
-0.00352035
0.00247055
-0.00445827
0.00198879
-0.00544227
0.0008393
-0.00612443
-0.00110301
-0.0063157
-0.00327147
-0.00584878
-0.00582216
-0.00475113
-0.00811778
-0.00335582
-0.00994395
-0.00212229
-0.0114924
-0.00149905
-0.0126543
-0.00117862
-0.0132192
-3.69516e-05
-0.000154759
-6.23639e-05
-8.47398e-05
-9.96865e-05
-3.69529e-06
-0.00015251
0.000103823
-0.000242466
0.00026126
-0.000355811
0.000419991
-0.000516812
0.00056951
-0.000746374
0.000688435
-0.00105333
0.000670147
-0.00134552
0.000668293
-0.00163282
0.000514319
-0.00203129
0.000368577
-0.00227709
-0.00031063
-0.0022956
-0.000834601
-0.0019689
-0.00182584
-0.00110416
-0.00261198
-8.97877e-05
-0.0029331
0.00120495
-0.00370401
0.00200124
-0.00345181
0.00218266
-0.00455046
0.00246774
-0.000506202
-5.50406e-05
-0.000124287
-0.000142539
-6.96517e-05
-0.000104317
-7.49281e-05
-4.97853e-05
-0.000146187
3.24311e-05
-0.000215081
0.000121933
-0.000367219
0.000203208
-0.000482562
0.000240063
-0.000689939
0.000217899
-0.000773628
0.000213628
-0.000979126
0.000161028
-0.00116625
3.81748e-05
-0.00126903
-0.000265977
-0.00112806
-0.000681897
-0.000637677
-0.000898066
-0.000144546
-0.00169881
0.00074957
-0.00205937
0.00131575
-0.00242794
0.00146837
-0.00367906
0.00118416
-0.00466765
0.000785637
7.45136e-05
-0.000311937
-0.000193884
-2.36454e-05
-0.000221548
0.000111871
-0.000286684
0.000252496
-0.00038651
0.000360783
-0.00049092
0.000470791
-0.000605073
0.000509588
-0.000734897
0.000521253
-0.000893194
0.000445438
-0.00100888
0.000296366
-0.0011131
2.04709e-05
-0.00126736
-0.00045319
-0.0013644
-0.00104338
-0.00136204
-0.0018028
-0.00116993
-0.00275977
-0.000693175
-0.00329631
-1.94986e-06
-0.00391365
0.000895945
-0.00408429
0.00153714
-0.00398273
0.00160019
-0.00458811
0.00106224
-0.000386042
1.67248e-05
-0.000154243
-0.000130297
-4.86421e-05
-0.00010866
6.74158e-06
-0.000115378
5.79238e-05
-0.000146211
9.89569e-05
-0.000189331
0.000139187
-0.000248586
0.000140152
-0.000329331
0.000125145
-0.000403486
4.24285e-05
-0.000452747
-2.56078e-05
-0.000520366
-0.000229009
-0.00058946
-0.000427992
-0.000618779
-0.00083866
-0.000530479
-0.00130809
-0.000388404
-0.00163044
3.17909e-05
-0.00211398
0.000459642
-0.00219518
0.000990471
-0.00231226
0.00120752
-0.00259118
0.00113144
-0.00291617
8.4026e-05
-0.000316943
-0.000136448
-0.000100849
-0.00011609
-2.42105e-05
-5.36393e-05
-9.9265e-07
-7.85232e-06
-3.08162e-05
3.23418e-05
-4.74524e-05
6.46398e-05
-0.000105486
7.18586e-05
-0.000150276
4.81184e-05
-0.000204309
-1.00643e-06
-0.000237005
-5.9472e-05
-0.000264769
-0.00018666
-0.000255986
-0.000392728
-0.000191779
-0.000615291
-0.000166379
-0.00109605
1.58003e-05
-0.00131995
0.000205153
-0.00165818
0.000478016
-0.0018141
0.000749958
-0.00191353
0.000980758
-0.00213544
0.00105268
-0.00228437
-0.000212953
7.1552e-05
-0.000206068
-0.000175664
5.49875e-06
-0.000136037
0.000107035
-0.000139604
0.000158837
-0.000160482
0.000192344
-0.000179739
0.000196817
-0.000198661
0.000165329
-0.000221205
0.000101408
-0.000229214
-1.54e-05
-0.000202864
-0.000181954
-0.000151806
-0.000397027
-9.23513e-05
-0.000696182
-3.25413e-05
-0.00110535
5.87114e-05
-0.00135873
0.00018778
-0.00167439
0.000417735
-0.00172318
0.000657727
-0.00178178
0.000911623
-0.00183194
0.00107107
-0.00198139
0.00114805
-0.00210954
0.00011967
-0.000319343
-4.61603e-05
-0.000114769
-7.929e-05
-1.64435e-07
-3.27686e-05
4.07342e-05
-3.06421e-05
4.94311e-05
-4.53731e-05
5.51197e-05
-6.79902e-05
3.81466e-05
-9.7973e-05
1.27626e-05
-0.000131959
-4.9519e-05
-0.000147982
-0.000128131
-0.000151046
-0.000212481
-0.000147808
-0.000387929
-0.000134754
-0.000611145
-0.000117261
-0.000778044
-5.10276e-06
-0.00100993
0.000116393
-0.00107748
0.000337169
-0.00113688
0.000475258
-0.00121302
0.000593982
-0.00132983
0.000647606
-0.00151133
0.00088693
-0.000110114
0.000154391
-0.00022208
-0.000105409
-3.93394e-05
-5.62985e-05
4.0473e-05
-7.20569e-06
4.27776e-05
1.45467e-05
2.16237e-05
2.40057e-05
-9.71821e-06
1.8209e-05
-5.13651e-05
-1.03882e-05
-8.57151e-05
-5.58321e-05
-0.000114138
-0.000121269
-0.000120954
-0.000213255
-0.000118294
-0.000333284
-0.000102387
-0.000523999
-2.01586e-05
-0.000599198
9.48419e-05
-0.000728598
0.00024403
-0.000730118
0.00039466
-0.000801262
0.000492413
-0.00088287
0.000555288
-0.00101814
0.000613661
-0.00119318
0.000804624
0.000106678
-0.000262705
4.82305e-06
-0.000138741
-0.000122649
4.00402e-05
-6.89093e-05
0.000108224
-6.32186e-05
0.000124555
-6.77595e-05
0.000119077
-7.19402e-05
7.02015e-05
-6.55239e-05
9.73086e-06
-5.7795e-05
-8.34106e-05
-3.51424e-05
-0.000205906
-2.34201e-06
-0.000354164
4.56208e-05
-0.000515458
0.000121401
-0.000634797
0.000210005
-0.000723943
0.000333152
-0.000736489
0.000441281
-0.000764348
0.000543711
-0.000834923
0.000581027
-0.000942663
0.000631491
-0.00106625
0.000672834
-0.0011654
0.000738205
-8.5474e-05
0.000176335
-0.000222975
-4.95507e-05
-7.66059e-05
-5.23076e-05
1.18349e-05
-1.17422e-05
3.6711e-05
-9.38379e-06
3.43208e-05
-2.4337e-05
1.6232e-05
-3.09931e-05
-1.41832e-05
-5.475e-05
-5.6973e-05
-7.6637e-05
-0.000145714
-7.34034e-05
-0.000230629
-7.79148e-05
-0.000331009
-6.28136e-05
-0.000476582
6.76113e-06
-0.000490649
9.47854e-05
-0.000535947
0.000204298
-0.00054823
0.000287322
-0.000624306
0.000359215
-0.000691711
0.000398721
-0.000811199
0.000477569
-0.000911987
0.000503522
-0.00104057
0.000106108
-0.000186034
7.9947e-05
-0.000159287
-0.000102426
-3.04585e-05
-6.1387e-05
2.63581e-05
-2.43646e-05
2.31e-05
-1.38072e-05
8.31521e-06
-1.12691e-05
-2.71301e-05
-3.35592e-05
-3.97532e-05
-7.90421e-05
-5.2663e-05
-0.000106674
-7.31151e-05
-0.000191488
-7.87823e-05
-0.00030911
-6.32017e-05
-0.000362203
-1.17327e-05
-0.000442728
7.12022e-05
-0.000455009
0.000174562
-0.000489461
0.000257045
-0.000540675
0.000315705
-0.000644502
0.00036266
-0.000742331
0.000438096
-0.00084779
0.000505049
-0.00097701
-4.89891e-05
0.000160472
-0.000171679
-2.77468e-05
-0.000101205
-0.000121655
2.35192e-05
-7.85291e-05
6.93931e-05
-6.87031e-05
7.18104e-05
-6.50638e-05
3.77011e-05
-5.02423e-05
-2.34218e-06
-3.74255e-05
-6.19867e-05
-1.37317e-05
-0.000152851
8.92366e-06
-0.000218967
3.81048e-05
-0.000319582
8.97759e-05
-0.000369687
0.000173076
-0.000399533
0.00027265
-0.000347305
0.000384834
-0.000372266
0.000453973
-0.0004071
0.000513014
-0.000513985
0.000546508
-0.000615101
0.000634027
-0.000711086
0.000662868
-0.000798812
9.29876e-05
-0.000122851
0.000107808
-0.000154399
-5.79784e-05
-5.61753e-05
-3.14148e-05
3.4862e-06
-9.74014e-06
1.80948e-05
-1.04039e-05
1.17867e-05
-1.20636e-05
1.09459e-07
-2.82754e-05
-2.82088e-05
-2.65276e-05
-8.26926e-05
-2.3533e-05
-0.000101627
-3.65543e-05
-0.000185853
-2.37167e-05
-0.000241034
2.32441e-05
-0.000255397
7.84748e-05
-0.000272316
0.000160788
-0.000284962
0.000224776
-0.000318187
0.000289703
-0.00037751
0.000321424
-0.000443671
0.000353561
-0.000556947
0.000370331
-0.000663365
0.000496187
-2.12702e-05
0.000141648
-0.00011446
4.78107e-05
-8.7135e-05
-3.1288e-05
-3.19749e-05
1.57462e-05
-4.06904e-06
2.24469e-05
-2.71459e-06
1.91635e-05
-1.29608e-05
1.38844e-06
-3.41934e-06
-1.76044e-05
-1.34525e-05
-3.33324e-05
-2.02512e-05
-9.91157e-05
-6.20782e-07
-0.000126673
3.73073e-05
-0.000115131
0.000105838
-0.000133989
0.000193531
-7.38013e-05
0.000283325
-7.12224e-05
0.000348551
-8.54738e-05
0.000393808
-0.000154062
0.000421454
-0.000223184
0.000445366
-0.000330755
0.000474912
-0.000439911
0.000577136
7.85459e-05
-7.44137e-05
0.000112002
-8.88497e-05
-1.79898e-05
-6.52143e-05
1.73627e-05
-3.25827e-05
4.47612e-05
-1.03207e-05
3.50875e-05
-3.55984e-06
2.52162e-05
3.29952e-06
2.44852e-06
-8.93588e-06
-1.72053e-06
-4.37017e-05
1.58038e-06
-5.16951e-05
2.44733e-05
-6.40401e-05
7.77232e-05
-6.68473e-05
0.00015804
-5.69616e-06
0.000232768
1.3281e-05
0.000295437
1.32844e-05
0.00032827
-4.37689e-05
0.000366324
-9.73937e-05
0.000380758
-0.000184067
0.000420991
-0.000287217
0.000468259
-0.000370278
0.00055318
-7.86017e-06
0.000111688
-6.4766e-05
4.39701e-05
-5.75128e-05
-2.27411e-05
-6.9326e-05
5.80488e-05
-4.68498e-05
8.58808e-05
-4.52844e-05
8.99953e-05
-4.55262e-05
7.18679e-05
-3.48017e-05
5.34084e-05
-2.25324e-05
2.4437e-05
4.24534e-06
1.11466e-06
4.02695e-05
3.12787e-06
8.88533e-05
2.85282e-05
0.000133752
2.31255e-05
0.000168209
1.08538e-05
0.000193495
-4.63951e-05
0.000220816
-9.53068e-05
0.000245266
-0.000192642
0.000262169
-0.000274857
0.000274177
-0.00041949
0.000297691
-0.000523138
0.000379086
5.82715e-05
-4.16477e-05
8.04844e-05
-3.459e-05
-3.87599e-05
-3.17139e-05
-1.94199e-05
-4.75319e-06
2.51929e-05
9.90811e-06
3.78301e-05
9.2642e-06
3.91507e-05
8.68389e-06
4.0918e-05
3.07641e-07
3.00376e-05
6.46381e-06
1.91516e-05
1.60238e-05
2.99061e-05
2.92544e-05
1.95754e-05
4.70193e-05
1.12503e-05
6.32015e-05
-2.45314e-06
8.49494e-05
-3.49536e-05
0.000104817
-6.48693e-05
0.000136156
-0.000120837
0.000162446
-0.000177935
0.000206262
-0.000262848
0.000280552
-0.000333643
0.000323831
-0.00042013
-2.15453e-06
7.96094e-05
-2.57887e-05
2.9062e-05
-9.28324e-06
-5.39142e-05
-1.22339e-05
-1.42795e-05
2.54679e-05
9.51094e-06
3.66711e-05
1.25433e-05
4.38897e-05
7.47658e-06
4.31666e-05
1.43359e-05
4.80519e-05
1.70923e-05
5.63093e-05
3.29304e-05
5.45486e-05
5.13968e-05
7.5458e-05
7.40822e-05
7.37012e-05
9.28294e-05
7.38905e-05
0.00011539
5.06801e-05
0.000139651
3.95521e-05
0.000170688
-3.7543e-06
0.000203406
-3.93327e-05
0.000250514
-0.000104934
0.000333185
-0.000152423
0.000393629
-0.000225095
3.7318e-05
-1.5444e-05
5.94802e-05
-5.40719e-06
-2.60714e-05
-1.64836e-05
-5.3732e-05
1.61409e-05
-1.72816e-05
3.65596e-05
8.39053e-06
3.04053e-05
2.30158e-05
2.44539e-05
3.7994e-05
1.91344e-05
4.79288e-05
2.34737e-05
5.58411e-05
3.09312e-05
7.46614e-05
3.87474e-05
8.31168e-05
4.5802e-05
8.72257e-05
5.38424e-05
7.55579e-05
6.24846e-05
6.54311e-05
7.57743e-05
2.98331e-05
9.35989e-05
2.55232e-06
0.000117338
-5.40883e-05
0.00015144
-0.000108233
0.000212569
-0.000159254
0.000270461
-0.000229116
-1.77226e-06
5.14129e-05
4.2129e-06
2.14043e-05
-2.7025e-06
-5.25408e-05
-1.11892e-05
-6.21946e-05
4.53808e-05
-4.15816e-05
7.33062e-05
-3.86744e-05
8.59486e-05
-3.794e-05
9.37989e-05
-3.27796e-05
9.86678e-05
-2.71041e-05
0.000107539
-2.00186e-05
0.000106661
-1.38016e-05
0.000105227
-1.88557e-06
0.000106717
1.60606e-05
9.64845e-05
3.81055e-05
9.54508e-05
6.96027e-05
8.03254e-05
0.000104538
7.60896e-05
0.000145367
4.81952e-05
0.000190062
2.22287e-05
0.000259488
6.07042e-08
0.000321758
-5.40119e-05
1.3354e-05
8.13466e-07
3.02094e-05
9.06093e-06
-1.08803e-05
-3.5425e-05
-4.81815e-05
-2.66546e-05
-1.83282e-05
1.2181e-05
-1.91071e-06
2.99285e-05
8.09723e-07
4.234e-05
3.99835e-07
5.5597e-05
2.89021e-06
7.06732e-05
6.06277e-06
8.3548e-05
5.58322e-06
9.92594e-05
6.72504e-06
0.000105846
5.00956e-06
0.000103494
6.74071e-06
0.000104173
1.47982e-05
9.12461e-05
2.77754e-05
8.38001e-05
4.94144e-05
6.22611e-05
6.97882e-05
4.94157e-05
9.25069e-05
1.32734e-05
0.000126273
-1.4968e-05
0.000187545
6.23403e-07
1.35515e-05
3.12285e-05
-1.49992e-06
-6.95675e-06
-2.81285e-05
-4.35127e-05
-4.05873e-05
-3.07597e-05
-6.25753e-06
-1.11377e-05
1.7518e-05
-2.55548e-06
3.54453e-05
3.42923e-06
5.24485e-05
6.95387e-06
6.80643e-05
5.56025e-06
7.53783e-05
2.41186e-06
8.69519e-05
-4.48313e-06
9.02048e-05
-9.53373e-06
8.64599e-05
-7.42016e-06
9.30212e-05
5.30725e-06
9.25155e-05
2.48247e-05
9.98509e-05
5.18464e-05
9.45614e-05
7.68009e-05
9.6547e-05
0.000101102
7.95991e-05
0.00013173
6.42958e-05
0.000161895
-2.33405e-05
3.4595e-05
1.18646e-05
5.10208e-05
-1.03576e-05
-1.98153e-05
-7.92278e-05
-6.31259e-05
-6.3519e-05
-4.25993e-05
-4.28027e-05
-1.30132e-05
-2.23454e-05
1.79058e-05
-5.81135e-06
4.42717e-05
1.10562e-06
5.96229e-05
-1.31674e-06
7.15251e-05
-1.49571e-05
7.03756e-05
-2.93375e-05
6.89742e-05
-3.97948e-05
7.45594e-05
-3.99869e-05
7.96034e-05
-3.39695e-05
9.03768e-05
-2.1207e-05
9.40814e-05
-6.01206e-06
0.000103989
9.58322e-06
0.000104596
2.2729e-05
0.000111422
4.7007e-05
0.000104928
6.35077e-05
1.80675e-05
-1.50301e-05
3.25058e-05
-5.05359e-05
-2.51438e-05
-9.7427e-05
-9.43415e-05
-0.000127559
-0.000124783
-0.000109798
-0.000109878
-8.51381e-05
-8.23031e-05
-5.46907e-05
-5.31539e-05
-2.44505e-05
-2.81798e-05
3.41661e-06
-1.65384e-05
2.08066e-05
-1.34556e-05
3.89553e-05
-1.7302e-05
5.80199e-05
-1.99869e-05
7.72736e-05
-2.2501e-05
9.7584e-05
-1.91335e-05
0.000113238
-1.27687e-05
0.00012906
-2.51112e-07
0.000137263
1.21352e-05
0.000149893
2.38723e-05
0.000158431
4.24769e-05
0.000160578
3.66386e-05
-5.73167e-05
-2.81381e-05
-8.87764e-05
-5.88262e-05
-0.000128003
-0.000135184
-0.000186625
-0.000191907
-0.00017242
-0.000197151
-0.000163766
-0.000191269
-0.000155998
-0.000172632
-0.000138778
-0.000141562
-0.000113995
-0.000104333
-8.78611e-05
-6.79231e-05
-6.92599e-05
-3.57416e-05
-5.50482e-05
-3.28641e-06
-5.03236e-05
2.34943e-05
-5.05258e-05
5.34411e-05
-5.85192e-05
8.00963e-05
-7.06655e-05
0.000108413
-8.64647e-05
0.000144802
-0.000101817
0.000176957
-0.000118898
0.000231822
-0.000106183
0.00024859
-7.49125e-05
-4.51544e-05
-6.43706e-05
-6.74882e-05
-0.000108554
-0.000132766
-0.000163343
-0.000179439
-0.000159995
-0.000198412
-0.000153668
-0.000228564
-0.000159394
-0.000257852
-0.000164293
-0.000276266
-0.000168071
-0.00026748
-0.000157889
-0.000241442
-0.000150153
-0.000202819
-0.000135295
-0.000156173
-0.000126765
-0.000102428
-0.000114498
-4.52407e-05
-0.000114523
1.281e-05
-0.000118366
6.92779e-05
-0.000130006
0.000121937
-0.000159137
0.00016454
-0.000176326
0.000191571
-0.000226226
0.000163705
-0.00022818
9.80199e-05
-2.08121e-05
-1.4475e-05
-2.32646e-05
-3.38458e-05
-4.484e-05
-5.45137e-05
-5.82773e-05
-7.01536e-05
-6.80572e-05
-9.53935e-05
-8.26428e-05
-0.000133221
-9.96673e-05
-0.00018252
-0.000121052
-0.000235268
-0.000137714
-0.000278137
-0.000156191
-0.000319311
-0.00017877
-0.000356689
-0.000199837
-0.000389127
-0.000216998
-0.000417423
-0.000225857
-0.000443108
-0.000222463
-0.000469171
-0.00020762
-0.000497515
-0.000174696
-0.000529861
-0.000123679
-0.000567659
-5.58462e-05
-0.000629233
1.878e-05
-0.000624598
0.000149422
1.86874
0.819937
-0.681398
0.401723
-0.175143
0.00866777
0.0823841
-0.0832454
0.277874
-0.229403
-0.0874266
0.0609003
-0.0589663
0.00183694
-0.0169117
-0.00324768
-0.0180425
0.011227
-0.021933
0.00427179
-0.0170575
-0.00480705
-0.0111662
-0.00416736
-0.0106827
0.0124162
-0.020637
-0.000327036
-0.00296336
0.0259316
-0.0350099
0.0112838
-0.020581
-0.0221832
-0.014373
-0.0118251
-0.0116313
-0.00794852
-0.057295
0.0391105
-0.00964215
-0.0225416
0.020106
0.0169876
-0.00181139
0.00422834
0.0335192
-0.00920651
-0.0136693
0.0112042
-0.0135055
-0.00141153
-0.00588661
-0.00190692
-0.00462106
-0.00716149
-0.00669325
-0.00305632
-0.00847976
-0.000903033
-0.012398
0.00564903
-0.00252168
-0.00612502
0.00204101
-0.00809949
0.00575095
-0.00110772
-0.000291405
-0.00257219
0.00258409
-0.000976182
0.000538418
0.000255571
0.432094
0.151241
-0.158305
-0.0146077
-0.102667
-0.0504111
-0.02119
-0.0223481
0.075497
-0.00428523
-0.00853555
0.0510007
0.017925
0.0333653
0.0301699
0.0328867
0.0255044
0.0415483
0.031014
0.0332268
0.0266131
0.0189277
0.0173244
0.013341
0.0113474
0.0141734
0.00453772
0.00659174
0.0049643
0.00712398
-0.00746182
-0.00285654
-0.00802766
-0.0163662
-0.0143813
-0.0119113
-0.0112574
-0.00860355
-0.0214451
0.000530052
-0.0114158
-0.0177166
-0.0098586
-0.00641697
-0.0167929
-0.011815
-0.00993336
-0.0175459
-0.0191057
-0.00810812
-0.0137362
-0.00667065
-0.00837546
-0.00422467
-0.00499459
-0.00337244
-0.00341942
-0.00104092
-0.00267122
0.000498012
-0.00166578
0.00260417
0.000245957
-0.000947102
0.00209671
-0.000587285
0.002495
0.000519372
0.000455339
-0.000180096
0.00156353
-0.000103139
0.000501291
0.000161998
0.340734
0.0822637
0.0217308
0.0913341
0.0298439
0.0301981
0.0266534
-0.0523362
-0.0325273
-0.0261842
-0.014906
-0.0139022
-0.0405491
-0.021286
-0.0395092
-0.0276747
-0.0357643
-0.0240372
-0.0267401
-0.0225134
-0.0230742
-0.0254816
-0.0224834
-0.0205355
-0.0169657
-0.0101536
-0.0114641
-0.0096375
-0.00636796
-0.00140075
-0.00400793
0.000481908
0.00134116
-0.000654402
0.00339372
0.00230099
0.00161584
0.00250049
-0.00411786
0.00674315
0.00422227
0.00178844
0.00893789
0.00663645
0.00825735
0.0128364
0.0135763
0.0119264
0.00800725
0.0137251
0.00289654
0.00517957
0.00235176
0.00198247
9.41575e-05
-0.00158357
-0.00200587
-0.00187962
-0.00375596
-0.00175259
-0.00367624
-0.000804214
-0.00253226
-0.00358027
-0.000618018
-0.00267108
-7.54585e-05
-0.00144994
-0.00146598
-0.00139613
0.000349124
-0.00082222
-9.67003e-06
7.1786e-05
0.233128
0.106313
0.0293957
0.0164706
-0.0161749
-0.0223614
-0.019812
-0.0195667
0.0185476
0.00630045
-0.0086299
0.00792653
0.00448702
0.0139964
0.0134359
0.0160792
0.0129642
0.0188178
0.0158193
0.0153843
0.0141357
0.00881295
0.00956958
0.00628819
0.00688766
0.00671995
0.00530644
0.00569381
0.00391202
0.00235057
-0.00285059
-0.00443483
-0.0058913
-0.0116029
-0.0117624
-0.0108993
-0.00960246
-0.00610144
-0.00991286
-0.00252798
-0.00717153
-0.00852175
-0.00671942
-0.00544151
-0.0102749
-0.00851876
-0.00989074
-0.0105739
-0.0138093
-0.00684803
-0.010336
-0.00547358
-0.00716738
-0.00416201
-0.0046457
-0.00326255
-0.00311283
-0.0015105
-0.0022403
-0.000283337
-0.00100477
0.000838761
-0.000156337
-0.000608785
0.00133574
-6.20845e-05
0.00123647
0.000309537
4.021e-05
9.36687e-05
0.00104846
-0.000202188
0.000376756
0.000116597
0.0983511
0.0434124
0.024504
0.0350831
0.0108017
0.00824711
-0.0040756
-0.0305575
-0.0349895
-0.00985855
-0.0079188
-0.00954026
-0.0153422
-0.00507174
-0.0156589
-0.0121338
-0.016812
-0.0167528
-0.0175415
-0.0163494
-0.0166
-0.0165152
-0.0158474
-0.0143288
-0.0128165
-0.0103161
-0.00940311
-0.00789886
-0.00698789
-0.0041973
-0.00258041
-0.000998775
0.000987071
0.00122062
0.00334518
0.00321842
0.00376057
0.00498744
0.00211144
0.00265138
0.0027089
0.0038016
0.0046228
0.00366304
0.00523828
0.00727774
0.00760685
0.00938158
0.006747
0.00824657
0.0036398
0.00457933
0.00307314
0.00224174
0.0009563
-0.000605466
-0.000600919
-0.000873667
-0.00188145
-0.00106895
-0.00217028
-0.00144748
-0.00195533
-0.00222434
-0.00057115
-0.00178071
-0.000741973
-0.00117433
-0.00118682
-0.000782986
0.000113106
-0.000635748
2.47952e-06
9.66059e-05
0.0703741
0.0690329
0.0345635
0.0361766
0.00418938
0.00968795
-0.00942754
-0.00482821
-0.000287632
0.00131892
-0.00920481
-0.00470097
-0.000455534
0.0057193
0.00476822
0.0072415
0.00545042
0.00659237
0.00615653
0.00580171
0.00601804
0.00365899
0.00476131
0.00309279
0.00439555
0.00443315
0.00504499
0.00464995
0.00291971
0.00120537
-0.00085617
-0.0027977
-0.00352403
-0.00634714
-0.007644
-0.00829562
-0.00769306
-0.00513909
-0.00546706
-0.00304888
-0.00434985
-0.00284045
-0.00363322
-0.00412267
-0.00539029
-0.0059536
-0.00702375
-0.00595508
-0.00952609
-0.00455094
-0.00785012
-0.0046042
-0.00579881
-0.00395804
-0.0041149
-0.00318554
-0.00285128
-0.00179133
-0.00196741
-0.000810929
-0.00104377
-8.04232e-05
-0.000432567
-0.000443322
0.000738815
-6.65838e-05
0.000624966
0.00016204
-0.000147471
0.000221455
0.000660054
-0.000267488
0.000281216
8.32115e-05
0.0491977
0.0234772
0.032949
0.0161294
0.0158925
0.00316347
9.07604e-05
-0.00907692
-0.0115948
-0.0100352
-0.00477841
-0.00573298
-0.00185974
0.00260541
-0.00316866
-0.00224648
-0.00507186
-0.00737427
-0.00849026
-0.0086237
-0.00887822
-0.00902098
-0.00886972
-0.00857621
-0.00784981
-0.0070334
-0.00635843
-0.00657255
-0.00505264
-0.00450547
-0.00226541
-0.00163561
8.11406e-06
0.0007564
0.00228361
0.00266612
0.00336193
0.00413493
0.00350125
0.00152984
0.00219475
0.00318395
0.00244488
0.00169597
0.00363439
0.00417663
0.00484201
0.00742758
0.00532235
0.00689404
0.00328734
0.00389956
0.00258312
0.00231041
0.00115748
0.000317275
0.000199079
-0.000295449
-0.000826511
-0.000706053
-0.00111153
-0.00111079
-0.00130356
-0.00149059
-0.000596651
-0.00118354
-0.00064346
-0.000812609
-0.000943379
-0.000486029
-6.12353e-05
-0.000416571
3.66408e-05
0.00012876
0.0309441
0.028719
0.0281065
0.0225333
0.022845
0.0104319
0.0184848
0.00139469
0.00450272
-0.00153166
-0.00216742
-0.00293851
0.00192203
0.00134955
0.000865454
0.00122455
-0.000101416
0.00016909
0.00030302
0.000671854
0.000739754
0.000817753
0.00125515
0.00146494
0.00248129