/*--------------------------------*- C++ -*----------------------------------*\
| =========                 |                                                 |
| \\      /  F ield         | OpenFOAM: The Open Source CFD Toolbox           |
|  \\    /   O peration     | Version:  2312                                  |
|   \\  /    A nd           | Website:  www.openfoam.com                      |
|    \\/     M anipulation  |                                                 |
\*---------------------------------------------------------------------------*/
FoamFile
{
    version     2.0;
    format      ascii;
    arch        "LSB;label=32;scalar=64";
    class       volScalarField;
    location    "150";
    object      magR;
}
// * * * * * * * * * * * * * * * * * * * * * * * * * * * * * * * * * * * * * //

dimensions      [0 2 -2 0 0 0 0];

internalField   nonuniform List<scalar> 
11040
(
0.789582
0.384989
0.113799
0.45879
0.527833
0.430377
0.361441
0.326868
0.311993
0.312995
0.32812
0.355013
0.395108
0.452766
0.53003
0.629837
0.755027
0.911754
1.10482
1.33575
1.60571
1.89943
2.20179
2.51666
2.83941
3.17685
3.51132
3.8471
4.16488
4.47331
4.76599
4.99228
5.10364
5.05719
4.81158
4.36482
3.71416
2.82404
1.65746
0.768101
0.701355
0.0628309
0.207476
0.600633
1.16232
0.355243
0.0506166
0.0484769
0.0666939
0.0897493
0.117439
0.150189
0.183697
0.217282
0.248056
0.276135
0.300861
0.320954
0.335187
0.343154
0.347271
0.349023
0.351641
0.355149
0.358145
0.356079
0.344461
0.329432
0.300391
0.265276
0.220882
0.187605
0.149782
0.117874
0.101687
0.115894
0.158607
0.24096
0.374882
0.569022
0.784094
1.50275
0.0292215
0.0101797
0.154124
1.2754
1.88793
0.773039
0.186456
0.0523373
0.0264778
0.0534303
0.0805223
0.105508
0.127182
0.142239
0.151141
0.153144
0.1496
0.141482
0.13033
0.117837
0.105961
0.0962403
0.0874212
0.0795774
0.0761011
0.0790778
0.089469
0.10408
0.120785
0.131087
0.132389
0.120288
0.110408
0.138701
0.228075
0.375783
0.596953
0.927778
1.416
2.06909
2.96847
0.0193568
0.0213424
0.00563338
0.248373
1.64498
2.47434
1.30809
0.420132
0.213603
0.1536
0.128574
0.12436
0.128568
0.136365
0.147403
0.156449
0.166313
0.1759
0.187318
0.199025
0.211369
0.224041
0.237827
0.253158
0.266762
0.281305
0.294202
0.304801
0.309705
0.304815
0.28794
0.257443
0.222753
0.221068
0.323313
0.550742
0.906724
1.43587
2.21232
3.24326
4.06075
0.0150035
0.0167168
0.0106266
0.00368281
0.294803
1.77042
2.971
2.12165
0.845761
0.46913
0.357053
0.341932
0.342794
0.348381
0.362619
0.375339
0.389803
0.402269
0.415522
0.428275
0.440322
0.45112
0.461636
0.472094
0.477899
0.484153
0.487261
0.489515
0.485757
0.472451
0.442589
0.391263
0.321949
0.2856
0.416815
0.744413
1.24455
1.95898
2.97602
4.27668
4.99069
0.0111926
0.0108224
0.0131337
0.00383
0.00145877
0.257127
1.63832
3.35567
3.07457
1.55604
0.863482
0.653963
0.63048
0.630033
0.649663
0.663672
0.67993
0.689856
0.697552
0.703686
0.706931
0.707562
0.709407
0.712748
0.712678
0.715441
0.71595
0.717084
0.71252
0.697157
0.65796
0.58416
0.469095
0.358316
0.465246
0.87361
1.49992
2.3534
3.51578
4.91924
5.60451
0.00845769
0.00792996
0.00877282
0.00943277
0.00106334
8.63825e-05
0.160527
1.28732
3.38448
3.96276
2.69161
1.41167
1.03656
0.936114
0.95773
0.972926
0.987388
0.992333
0.998066
1.00003
0.996176
0.987516
0.983365
0.983837
0.985677
0.995676
1.00807
1.0214
1.02656
1.01723
0.978155
0.890979
0.736615
0.530175
0.478561
0.874174
1.57225
2.48491
3.64756
4.94983
5.65496
0.00628154
0.00621073
0.00611909
0.00696953
0.0068854
0.000206008
0.00265778
0.0698225
0.834535
2.89335
4.47536
4.00866
2.46495
1.54168
1.30521
1.28584
1.31684
1.33019
1.33568
1.33123
1.32142
1.30685
1.29948
1.29994
1.30798
1.332
1.36668
1.40823
1.4439
1.46266
1.44278
1.35969
1.18613
0.910588
0.621065
0.731973
1.36479
2.22596
3.21631
4.21232
4.82675
0.00472582
0.0047096
0.0047762
0.00471323
0.00580934
0.00497552
0.000264742
0.00169958
0.0164572
0.409295
1.95945
4.24463
5.02306
3.97822
2.51235
1.81749
1.65817
1.67934
1.71718
1.72772
1.72077
1.70212
1.69164
1.68979
1.70121
1.73679
1.7935
1.86462
1.93922
2.00187
2.02761
1.98515
1.83942
1.56079
1.15875
0.808511
0.936763
1.53632
2.21202
2.79114
3.19779
0.00357292
0.00357556
0.00366187
0.00370781
0.00376555
0.00448149
0.00340006
0.00016944
0.000393179
0.0111487
0.126611
0.994968
3.10623
5.16235
5.37535
4.15717
2.82357
2.21602
2.09762
2.14559
2.19418
2.19958
2.19618
2.18897
2.19429
2.23531
2.3081
2.40518
2.51715
2.62733
2.7102
2.72828
2.64299
2.41754
2.04659
1.59971
1.17508
0.953814
1.01224
1.16121
1.42497
0.00270874
0.00272038
0.00278118
0.00287294
0.00290156
0.00301713
0.00335066
0.00274222
0.000551746
4.06291e-05
0.00381962
0.0198141
0.338657
1.62885
3.99054
5.82296
5.84619
4.6839
3.42694
2.80005
2.66866
2.71519
2.78379
2.8055
2.81301
2.85528
2.93283
3.04283
3.17881
3.33145
3.47483
3.57083
3.57351
3.44362
3.17247
2.80511
2.40428
2.00694
1.66588
1.46631
1.53448
0.00205654
0.00206866
0.00211713
0.00218623
0.00225842
0.00230156
0.00237642
0.00255563
0.00243362
0.000854818
7.23141e-05
0.000434994
0.0088316
0.0597448
0.561666
2.10893
4.56515
6.4206
6.63482
5.72317
4.53681
3.7786
3.50651
3.44992
3.47969
3.55877
3.666
3.7888
3.93642
4.114
4.30467
4.47468
4.571
4.54938
4.39417
4.13944
3.84553
3.52517
3.20429
2.93433
2.7446
0.00156098
0.00157265
0.00160884
0.00166275
0.00172401
0.0017843
0.00183097
0.00187929
0.00201027
0.00197718
0.00129449
4.99852e-07
3.68143e-06
0.00201131
0.000235571
0.0934973
0.673794
2.26628
4.74547
6.91082
7.75485
7.48464
6.7099
5.89259
5.30929
5.00169
4.89569
4.90977
5.01018
5.17873
5.39766
5.62897
5.82212
5.90508
5.8372
5.66784
5.45172
5.16491
4.78861
4.38697
3.96191
0.00118303
0.00119356
0.00122025
0.00126106
0.00130985
0.00136241
0.00141521
0.00145949
0.00150414
0.00157248
0.00165267
0.00138439
0.000265635
3.41777e-05
6.57769e-06
0.00434577
0.0019646
0.0920044
0.595657
1.95978
4.2398
6.62504
8.30366
9.17676
9.46145
9.39146
9.15637
8.90092
8.70553
8.59902
8.57518
8.59992
8.62081
8.54616
8.30199
7.90608
7.35473
6.67842
5.93508
5.18205
4.54679
0.000894042
0.000903151
0.00092296
0.000953293
0.000991046
0.00103367
0.00107891
0.00112483
0.00116765
0.00120615
0.00125211
0.00136778
0.00125818
0.000842891
8.93488e-06
7.51883e-06
4.29217e-05
0.00575716
0.00239853
0.0524069
0.339126
1.11174
2.41876
4.06165
5.72536
7.16183
8.26768
9.04975
9.55341
9.8264
9.90139
9.79876
9.51295
9.05321
8.41732
7.53307
6.46349
5.39478
4.44773
3.63935
3.0775
0.000672998
0.000680566
0.000695253
0.000717572
0.00074594
0.000779029
0.000815601
0.000854332
0.000894133
0.000933189
0.000967432
0.00101293
0.00107571
0.00112888
0.000964976
0.000437332
4.17361e-05
3.43421e-06
5.0973e-05
0.00463495
0.0178924
0.0136468
0.0551036
0.194199
0.474591
0.883207
1.36743
1.85729
2.2874
2.609
2.79309
2.82931
2.72239
2.49478
2.17437
1.81755
1.4935
1.23884
1.04547
0.887576
0.753574
0.00050538
0.000511422
0.000522343
0.000538702
0.000559682
0.000584583
0.000612708
0.000643325
0.000675814
0.000709598
0.00074334
0.000776014
0.000811837
0.000855864
0.000918004
0.000929076
0.000777683
0.000315922
3.3122e-05
3.78673e-06
1.01375e-08
0.00108683
0.00739921
0.0166286
0.00780707
0.0166034
0.0227741
0.0221201
0.0178872
0.0229016
0.0395988
0.0596694
0.0790857
0.0952324
0.105782
0.109588
0.105941
0.0958037
0.0809115
0.0643582
0.0481773
0.000382496
0.0003873
0.000395633
0.000407888
0.000423626
0.000442428
0.000463877
0.000487522
0.000512954
0.000540035
0.000568128
0.000596732
0.000625728
0.000654725
0.000689416
0.000733032
0.000783221
0.000789068
0.000648608
0.000337684
9.03986e-07
4.89982e-06
1.6357e-06
1.25433e-09
0.000155664
0.00105991
0.00336346
0.00614985
0.00868357
0.0106851
0.0121902
0.000105518
0.00116383
0.00236456
0.00423377
0.00241464
0.000771183
0.00065604
0.00055828
0.00038152
0.000167839
0.00029443
0.000298304
0.000304806
0.000314185
0.000326218
0.000340666
0.000357245
0.000375688
0.00039578
0.000417238
0.000439827
0.000463186
0.000487193
0.000511652
0.000536533
0.000562385
0.000593836
0.000633031
0.000674948
0.000682976
0.000587609
0.000398555
0.000160861
1.29754e-07
4.13321e-06
2.84578e-06
1.90937e-06
1.171e-06
6.6552e-07
3.6609e-07
2.13138e-07
1.1202e-06
6.69717e-06
1.28021e-05
2.34679e-05
1.2718e-05
4.98484e-06
4.67834e-06
4.34247e-06
3.62468e-06
2.52683e-06
0.00023064
0.00023375
0.000238851
0.000246097
0.000255382
0.00026657
0.000279459
0.00029386
0.000309651
0.000326622
0.000344702
0.000363573
0.000383021
0.00040298
0.000423374
0.000444017
0.000464994
0.000487386
0.000514579
0.000546754
0.000582355
0.000598326
0.000583809
0.000524228
0.000434552
0.000329456
0.000229578
0.000146514
8.66938e-05
4.96336e-05
3.00524e-05
2.16809e-05
2.056e-05
2.49998e-05
3.498e-05
5.40469e-05
7.63858e-05
0.000100884
0.00012672
0.000153799
0.000178696
0.000183063
0.00018553
0.000189553
0.000195203
0.000202435
0.000211176
0.000221266
0.000232563
0.000244937
0.000258367
0.000272633
0.000287694
0.00030328
0.000319261
0.000335574
0.000352187
0.000368918
0.000385674
0.000402665
0.000420671
0.00044147
0.000464715
0.00048879
0.000511068
0.000526545
0.000532476
0.00052899
0.000518547
0.000504209
0.00048914
0.000475554
0.000464834
0.000457678
0.000453849
0.00045296
0.000454381
0.000457129
0.000459608
0.000461783
0.000462602
0.000462947
0.000146854
0.000148809
0.00015201
0.000156458
0.000162149
0.00016903
0.000176986
0.000185894
0.000195653
0.000206216
0.000217458
0.000229392
0.000241794
0.000254474
0.000267367
0.000280427
0.000293588
0.00030672
0.000319713
0.000332477
0.00034544
0.000358757
0.000372135
0.000385516
0.000398745
0.000411329
0.000422635
0.00043221
0.000439774
0.000445286
0.000448738
0.000450305
0.0004501
0.000448301
0.0004451
0.000440664
0.000435148
0.000428423
0.000420973
0.000411762
0.000404487
0.000118818
0.000120376
0.000122941
0.000126473
0.000130985
0.000136442
0.000142755
0.000149816
0.000157545
0.000165867
0.000174782
0.000184183
0.000194009
0.000204049
0.000214205
0.000224414
0.00023464
0.000244773
0.000254727
0.000264367
0.000273894
0.000283272
0.000292018
0.000299926
0.000307028
0.000313355
0.000318882
0.00032355
0.000327275
0.000329979
0.000331613
0.000332135
0.000331539
0.000329844
0.000327136
0.000323459
0.000318965
0.00031357
0.000307776
0.000300334
0.00029572
9.68214e-05
9.80689e-05
0.000100137
0.000102969
0.000106576
0.000110938
0.000115981
0.000121611
0.000127765
0.000134371
0.000141421
0.000148829
0.000156604
0.000164559
0.000172559
0.000180542
0.000188464
0.000196254
0.000203822
0.000211061
0.000218109
0.000224986
0.000231305
0.000236859
0.000241629
0.000245613
0.000248819
0.000251234
0.000252882
0.000253765
0.000253911
0.00025332
0.000252042
0.000250085
0.000247522
0.000244388
0.000240773
0.00023656
0.000232248
0.000226466
0.000224039
7.936e-05
8.03727e-05
8.20566e-05
8.43457e-05
8.72534e-05
9.0766e-05
9.48175e-05
9.93337e-05
0.000104256
0.000109528
0.000115105
0.00012098
0.000127127
0.000133429
0.000139744
0.000145999
0.000152149
0.000158143
0.000163905
0.000169342
0.00017456
0.000179602
0.000184187
0.000188158
0.00019151
0.00019424
0.00019636
0.00019786
0.000198771
0.000199092
0.000198863
0.000198103
0.000196855
0.000195132
0.000193001
0.000190505
0.000187701
0.000184491
0.000181335
0.00017682
0.000175983
6.53755e-05
6.62033e-05
6.75873e-05
6.94571e-05
7.18201e-05
7.46689e-05
7.79453e-05
8.15896e-05
8.55476e-05
8.97767e-05
9.42218e-05
9.88967e-05
0.000103751
0.000108746
0.000113746
0.000118666
0.000123459
0.000128088
0.000132494
0.000136597
0.000140484
0.000144212
0.000147565
0.000150431
0.00015281
0.000154713
0.000156149
0.000157126
0.000157657
0.000157765
0.000157469
0.000156806
0.000155785
0.000154439
0.000152811
0.000150952
0.000148881
0.000146519
0.000144293
0.00014079
0.000141156
5.40793e-05
5.47717e-05
5.59212e-05
5.74592e-05
5.93959e-05
6.1723e-05
6.43906e-05
6.73481e-05
7.05496e-05
7.39596e-05
7.75296e-05
8.12551e-05
8.51071e-05
8.90789e-05
9.30541e-05
9.69445e-05
0.000100703
0.0001043
0.000107691
0.000110813
0.00011374
0.000116532
0.000119023
0.000121135
0.000122866
0.000124235
0.00012525
0.000125924
0.000126266
0.000126303
0.00012605
0.000125538
0.000124772
0.000123781
0.000122602
0.000121273
0.000119802
0.000118115
0.000116616
0.000113909
0.000115154
4.48997e-05
4.5483e-05
4.64488e-05
4.77271e-05
4.93271e-05
5.12418e-05
5.34283e-05
5.58427e-05
5.84475e-05
6.12114e-05
6.40965e-05
6.70799e-05
7.01622e-05
7.3327e-05
7.64976e-05
7.95918e-05
8.25603e-05
8.53776e-05
8.8011e-05
9.04118e-05
9.26429e-05
9.47688e-05
9.66568e-05
9.8252e-05
9.95526e-05
0.000100581
0.000101341
0.000101849
0.000102114
0.000102159
0.000101996
0.000101649
0.000101125
0.000100445
9.96408e-05
9.87377e-05
9.77413e-05
9.65764e-05
9.56283e-05
9.35286e-05
9.53854e-05
3.73907e-05
3.7896e-05
3.87141e-05
3.97839e-05
4.11175e-05
4.27039e-05
4.45077e-05
4.64903e-05
4.86222e-05
5.08744e-05
5.32185e-05
5.56257e-05
5.81052e-05
6.06335e-05
6.31743e-05
6.56518e-05
6.80162e-05
7.02434e-05
7.23107e-05
7.41794e-05
7.59076e-05
7.75553e-05
7.90193e-05
8.02565e-05
8.12709e-05
8.20777e-05
8.26868e-05
8.31083e-05
8.33563e-05
8.34416e-05
8.338e-05
8.31867e-05
8.2872e-05
8.24459e-05
8.19382e-05
8.13651e-05
8.07297e-05
7.99585e-05
7.94138e-05
7.77745e-05
8.00302e-05
3.12196e-05
3.16618e-05
3.23638e-05
3.32685e-05
3.43867e-05
3.57107e-05
3.7209e-05
3.8848e-05
4.0603e-05
4.24495e-05
4.4365e-05
4.63233e-05
4.83263e-05
5.03567e-05
5.24041e-05
5.44009e-05
5.62998e-05
5.80778e-05
5.97197e-05
6.11943e-05
6.25563e-05
6.38578e-05
6.50191e-05
6.60052e-05
6.68247e-05
6.74875e-05
6.80047e-05
6.83832e-05
6.86363e-05
6.87716e-05
6.88027e-05
6.87412e-05
6.85936e-05
6.83662e-05
6.80825e-05
6.7755e-05
6.73823e-05
6.68964e-05
6.6632e-05
6.53296e-05
6.78016e-05
2.61226e-05
2.65193e-05
2.71251e-05
2.78974e-05
2.88438e-05
2.9957e-05
3.12101e-05
3.25738e-05
3.40274e-05
3.5551e-05
3.71258e-05
3.87306e-05
4.03573e-05
4.20012e-05
4.36608e-05
4.52806e-05
4.68199e-05
4.82545e-05
4.95744e-05
5.07543e-05
5.18461e-05
5.28937e-05
5.3836e-05
5.4644e-05
5.53262e-05
5.58918e-05
5.63512e-05
5.67091e-05
5.69752e-05
5.7157e-05
5.72636e-05
5.7304e-05
5.72804e-05
5.71987e-05
5.70759e-05
5.69233e-05
5.67356e-05
5.64527e-05
5.63803e-05
5.5338e-05
5.7889e-05
2.18965e-05
2.22565e-05
2.27885e-05
2.34542e-05
2.426e-05
2.52034e-05
2.62577e-05
2.73996e-05
2.86107e-05
2.98755e-05
3.11774e-05
3.25007e-05
3.38321e-05
3.51764e-05
3.65265e-05
3.78484e-05
3.91057e-05
4.02763e-05
4.1351e-05
4.23112e-05
4.32013e-05
4.40621e-05
4.48423e-05
4.55219e-05
4.61055e-05
4.66028e-05
4.70212e-05
4.73666e-05
4.76435e-05
4.7859e-05
4.80188e-05
4.81316e-05
4.81957e-05
4.82175e-05
4.82092e-05
4.81808e-05
4.81247e-05
4.79888e-05
4.80477e-05
4.7207e-05
4.97386e-05
1.83823e-05
1.8714e-05
1.91841e-05
1.97635e-05
2.0456e-05
2.12592e-05
2.21519e-05
2.31142e-05
2.41297e-05
2.51861e-05
2.62689e-05
2.73662e-05
2.84648e-05
2.95699e-05
3.06739e-05
3.17602e-05
3.2795e-05
3.37594e-05
3.46445e-05
3.54371e-05
3.61741e-05
3.68929e-05
3.75499e-05
3.81314e-05
3.86409e-05
3.90874e-05
3.94746e-05
3.98081e-05
4.00912e-05
4.033e-05
4.05273e-05
4.06899e-05
4.08153e-05
4.09083e-05
4.09776e-05
4.10306e-05
4.10605e-05
4.10201e-05
4.11556e-05
4.04598e-05
4.28786e-05
1.54499e-05
1.57582e-05
1.61798e-05
1.66867e-05
1.72864e-05
1.79749e-05
1.87363e-05
1.95524e-05
2.04097e-05
2.12974e-05
2.22038e-05
2.31193e-05
2.40324e-05
2.49458e-05
2.5855e-05
2.67535e-05
2.76112e-05
2.84122e-05
2.91477e-05
2.98096e-05
3.04279e-05
3.10348e-05
3.15946e-05
3.20973e-05
3.25451e-05
3.29464e-05
3.33042e-05
3.36216e-05
3.39019e-05
3.41493e-05
3.43656e-05
3.45547e-05
3.47148e-05
3.48487e-05
3.49632e-05
3.50626e-05
3.51425e-05
3.51592e-05
3.53324e-05
3.47451e-05
3.69758e-05
1.29983e-05
1.32869e-05
1.3665e-05
1.41141e-05
1.46368e-05
1.52321e-05
1.5886e-05
1.65827e-05
1.73109e-05
1.80611e-05
1.88247e-05
1.95929e-05
2.03572e-05
2.11164e-05
2.18701e-05
2.26171e-05
2.33331e-05
2.40034e-05
2.46212e-05
2.518e-05
2.57063e-05
2.62247e-05
2.67086e-05
2.7149e-05
2.75486e-05
2.79126e-05
2.82443e-05
2.85451e-05
2.8818e-05
2.90646e-05
2.92874e-05
2.94883e-05
2.9666e-05
2.9821e-05
2.99595e-05
3.00833e-05
3.01902e-05
3.02395e-05
3.04235e-05
2.99267e-05
3.19082e-05
1.09433e-05
1.12146e-05
1.15568e-05
1.19559e-05
1.2416e-05
1.29339e-05
1.34992e-05
1.4098e-05
1.472e-05
1.53579e-05
1.60042e-05
1.66527e-05
1.7296e-05
1.79308e-05
1.85591e-05
1.91827e-05
1.97818e-05
2.03444e-05
2.08648e-05
2.13373e-05
2.17838e-05
2.22246e-05
2.26397e-05
2.30216e-05
2.3373e-05
2.36975e-05
2.39974e-05
2.42744e-05
2.453e-05
2.47655e-05
2.49813e-05
2.51789e-05
2.53562e-05
2.55139e-05
2.56559e-05
2.57829e-05
2.58936e-05
2.59526e-05
2.61234e-05
2.56968e-05
2.73865e-05
9.21965e-06
9.47402e-06
9.78391e-06
1.01413e-05
1.05483e-05
1.1002e-05
1.14938e-05
1.20113e-05
1.25458e-05
1.30907e-05
1.36407e-05
1.41901e-05
1.4734e-05
1.52683e-05
1.57967e-05
1.63186e-05
1.68228e-05
1.72981e-05
1.77399e-05
1.81442e-05
1.85285e-05
1.8908e-05
1.92687e-05
1.9604e-05
1.99157e-05
2.02069e-05
2.04792e-05
2.07329e-05
2.0969e-05
2.11874e-05
2.13889e-05
2.15732e-05
2.17395e-05
2.18872e-05
2.20195e-05
2.21352e-05
2.22354e-05
2.22881e-05
2.24305e-05
2.20592e-05
2.34079e-05
7.77098e-06
8.00953e-06
8.29066e-06
8.61156e-06
8.97265e-06
9.37238e-06
9.80168e-06
1.02517e-05
1.07136e-05
1.11817e-05
1.16511e-05
1.21181e-05
1.25789e-05
1.30294e-05
1.34734e-05
1.39097e-05
1.43318e-05
1.47302e-05
1.51016e-05
1.54428e-05
1.57676e-05
1.60881e-05
1.63941e-05
1.66806e-05
1.69488e-05
1.72004e-05
1.74364e-05
1.76568e-05
1.78621e-05
1.80519e-05
1.82266e-05
1.83856e-05
1.85283e-05
1.86534e-05
1.87627e-05
1.88548e-05
1.89317e-05
1.89653e-05
1.90683e-05
1.87396e-05
1.97343e-05
6.55259e-06
6.77442e-06
7.02991e-06
7.31941e-06
7.64171e-06
7.99367e-06
8.36929e-06
8.76074e-06
9.1607e-06
9.56436e-06
9.96697e-06
1.03656e-05
1.0757e-05
1.11391e-05
1.15144e-05
1.18835e-05
1.22419e-05
1.2582e-05
1.28999e-05
1.3194e-05
1.34738e-05
1.37485e-05
1.40114e-05
1.42586e-05
1.44905e-05
1.47086e-05
1.4913e-05
1.51039e-05
1.52809e-05
1.54438e-05
1.55924e-05
1.57264e-05
1.58443e-05
1.59453e-05
1.60302e-05
1.60977e-05
1.615e-05
1.61634e-05
1.62289e-05
1.59382e-05
1.65633e-05
5.52535e-06
5.73009e-06
5.96203e-06
6.22337e-06
6.51241e-06
6.82476e-06
7.15374e-06
7.49394e-06
7.83897e-06
8.18505e-06
8.52974e-06
8.87031e-06
9.20351e-06
9.52581e-06
9.83801e-06
1.01414e-05
1.04353e-05
1.07147e-05
1.09765e-05
1.12195e-05
1.14495e-05
1.16725e-05
1.18854e-05
1.20851e-05
1.22719e-05
1.24462e-05
1.26084e-05
1.27578e-05
1.28943e-05
1.30171e-05
1.31259e-05
1.32201e-05
1.32984e-05
1.336e-05
1.34054e-05
1.34323e-05
1.3445e-05
1.34219e-05
1.34378e-05
1.31608e-05
1.34344e-05
4.66223e-06
4.84813e-06
5.05595e-06
5.28923e-06
5.54521e-06
5.82105e-06
6.11125e-06
6.41005e-06
6.71063e-06
7.00784e-06
7.30052e-06
7.58841e-06
7.87181e-06
8.14916e-06
8.42001e-06
8.68207e-06
8.93281e-06
9.16832e-06
9.38773e-06
9.59176e-06
9.78449e-06
9.96932e-06
1.01459e-05
1.03114e-05
1.04658e-05
1.06092e-05
1.07413e-05
1.08614e-05
1.09688e-05
1.10632e-05
1.11436e-05
1.12094e-05
1.12597e-05
1.12943e-05
1.13132e-05
1.13142e-05
1.13029e-05
1.126e-05
1.12461e-05
1.10017e-05
1.0964e-05
3.9393e-06
4.10795e-06
4.29258e-06
4.49527e-06
4.71521e-06
4.94941e-06
5.19812e-06
5.45789e-06
5.7236e-06
5.98775e-06
6.24453e-06
6.48963e-06
6.72205e-06
6.94322e-06
7.15761e-06
7.36834e-06
7.57502e-06
7.7717e-06
7.95418e-06
8.12129e-06
8.27396e-06
8.41395e-06
8.54294e-06
8.65976e-06
8.76433e-06
8.85696e-06
8.9373e-06
9.00522e-06
9.06015e-06
9.10182e-06
9.1293e-06
9.14214e-06
9.14001e-06
9.12285e-06
9.0907e-06
9.04138e-06
8.98281e-06
8.89527e-06
8.83749e-06
8.57604e-06
8.29963e-06
3.32868e-06
3.47946e-06
3.64508e-06
3.8243e-06
4.01161e-06
4.20604e-06
4.40803e-06
4.61833e-06
4.83657e-06
5.062e-06
5.29203e-06
5.52116e-06
5.74144e-06
5.94458e-06
6.12615e-06
6.28638e-06
6.43234e-06
6.56988e-06
6.70115e-06
6.82658e-06
6.94455e-06
7.05489e-06
7.15854e-06
7.25343e-06
7.33814e-06
7.41178e-06
7.47362e-06
7.52307e-06
7.55954e-06
7.58239e-06
7.59119e-06
7.58558e-06
7.56596e-06
7.53245e-06
7.486e-06
7.4252e-06
7.35886e-06
7.26991e-06
7.21026e-06
6.9862e-06
6.6019e-06
2.8067e-06
2.93334e-06
3.07506e-06
3.2319e-06
3.39957e-06
3.57516e-06
3.75389e-06
3.92982e-06
4.09989e-06
4.26411e-06
4.42659e-06
4.59422e-06
4.77309e-06
4.96573e-06
5.16919e-06
5.37067e-06
5.55128e-06
5.7031e-06
5.8261e-06
5.92538e-06
6.00313e-06
6.06066e-06
6.10406e-06
6.13365e-06
6.15028e-06
6.15416e-06
6.14549e-06
6.12416e-06
6.09024e-06
6.04352e-06
5.98419e-06
5.91247e-06
5.82958e-06
5.73668e-06
5.63622e-06
5.52813e-06
5.42588e-06
5.30747e-06
5.25865e-06
4.97744e-06
4.88885e-06
2.37694e-06
2.47269e-06
2.57261e-06
2.68166e-06
2.80607e-06
2.95269e-06
3.1218e-06
3.30765e-06
3.49776e-06
3.67676e-06
3.82929e-06
3.94483e-06
4.021e-06
4.06417e-06
4.08778e-06
4.11668e-06
4.1757e-06
4.25782e-06
4.35024e-06
4.44301e-06
4.52847e-06
4.60323e-06
4.66666e-06
4.71698e-06
4.75267e-06
4.77273e-06
4.77678e-06
4.76443e-06
4.73578e-06
4.69096e-06
4.63074e-06
4.55585e-06
4.46843e-06
4.37084e-06
4.26683e-06
4.15897e-06
4.06105e-06
3.96135e-06
3.93106e-06
3.72535e-06
3.80263e-06
2.04225e-06
2.12376e-06
2.19234e-06
2.24819e-06
2.29765e-06
2.35206e-06
2.42231e-06
2.51898e-06
2.65333e-06
2.83374e-06
3.06277e-06
3.33366e-06
3.63227e-06
3.9381e-06
4.23367e-06
4.47208e-06
4.61331e-06
4.69355e-06
4.73258e-06
4.74362e-06
4.72907e-06
4.69222e-06
4.63956e-06
4.57386e-06
4.49621e-06
4.40812e-06
4.31005e-06
4.20373e-06
4.09054e-06
3.97305e-06
3.85399e-06
3.73816e-06
3.63198e-06
3.54437e-06
3.48706e-06
3.47052e-06
3.51984e-06
3.60341e-06
3.90041e-06
3.7213e-06
5.48747e-06
1.78069e-06
1.86582e-06
1.94305e-06
2.00352e-06
2.03902e-06
2.04773e-06
2.03369e-06
2.0049e-06
1.97512e-06
1.95746e-06
1.96165e-06
1.99014e-06
2.03686e-06
2.08874e-06
2.12638e-06
2.17925e-06
2.26512e-06
2.36985e-06
2.48465e-06
2.59808e-06
2.70286e-06
2.79369e-06
2.86791e-06
2.92324e-06
2.95627e-06
2.96474e-06
2.94678e-06
2.90112e-06
2.82627e-06
2.72121e-06
2.58488e-06
2.41695e-06
2.21777e-06
1.98929e-06
1.73537e-06
1.46699e-06
1.20974e-06
1.01968e-06
1.05126e-06
9.714e-07
2.46831e-06
1.55745e-06
1.56531e-06
1.6524e-06
1.90077e-06
2.30915e-06
2.81593e-06
3.35286e-06
3.86772e-06
4.32518e-06
4.70519e-06
4.99851e-06
5.20495e-06
5.33148e-06
5.38766e-06
5.39413e-06
5.30733e-06
5.17079e-06
5.04427e-06
4.9385e-06
4.85113e-06
4.77626e-06
4.73204e-06
4.69843e-06
4.67299e-06
4.65182e-06
4.63203e-06
4.61305e-06
4.59503e-06
4.58018e-06
4.57171e-06
4.57579e-06
4.60024e-06
4.65609e-06
4.75552e-06
4.91448e-06
5.1451e-06
5.47002e-06
5.85843e-06
6.50621e-06
6.59288e-06
9.61617e-06
14.1798
9.63863
4.05485
0.546784
0.0256558
0.000903094
0.000146261
0.000419789
0.00417052
0.292791
0.978593
0.257508
1.41185
2.73086
3.46313
3.70281
3.66227
3.5134
3.38071
3.3264
3.38464
3.55234
3.80361
4.08818
4.3382
4.47243
4.41225
4.08538
3.4663
2.6116
1.67746
0.857889
0.301201
0.0525438
0.00148082
2.44491e-07
5.85974e-07
0.000100553
0.000366643
0.000422345
0.000358317
0.00030104
0.000259812
0.000220955
0.000180941
0.000142734
0.000107926
7.82284e-05
5.56636e-05
4.10819e-05
3.37398e-05
3.3981e-05
3.65257e-05
3.95862e-05
4.16548e-05
4.27333e-05
4.27656e-05
4.22236e-05
4.08074e-05
3.92741e-05
3.70759e-05
3.51665e-05
3.28582e-05
3.05852e-05
2.85185e-05
2.62286e-05
2.44105e-05
2.2434e-05
2.0689e-05
1.8973e-05
1.74966e-05
1.59771e-05
1.4755e-05
1.35892e-05
17.334
16.2524
9.48083
3.04933
0.211815
0.00650827
3.45721e-05
2.43371e-05
0.00858128
0.376928
0.740256
0.327319
1.43102
2.17762
2.4312
2.36902
2.18148
1.95806
1.72552
1.4658
1.20888
1.075
1.24973
1.71601
2.30803
2.88603
3.338
3.55765
3.4582
3.00156
2.24953
1.37878
0.626392
0.172732
0.0191468
0.000500924
1.46253e-10
5.90335e-07
0.000202988
0.00037836
0.000351554
0.000287763
0.000240889
0.000202091
0.000164726
0.00013009
9.85066e-05
7.21155e-05
5.2641e-05
4.04772e-05
3.42438e-05
3.43056e-05
3.60767e-05
3.84256e-05
3.98851e-05
4.06643e-05
4.04634e-05
3.98347e-05
3.84059e-05
3.69597e-05
3.48586e-05
3.30729e-05
3.09572e-05
2.87813e-05
2.69005e-05
2.47395e-05
2.30454e-05
2.12232e-05
1.95794e-05
1.79582e-05
1.65876e-05
1.51477e-05
1.40041e-05
1.29227e-05
15.7928
18.9873
14.59
7.51988
1.71307
0.0821334
0.0129273
0
0.0124807
0.365651
0.48231
0.509994
1.48649
2.15358
2.58067
2.92512
3.2471
3.49899
3.6133
3.53765
3.25166
2.75852
2.08081
1.26276
0.432975
0.742949
1.60008
2.32781
2.7952
2.90406
2.60808
1.95724
1.14047
0.448544
0.0926382
0.00557899
5.80192e-05
7.6131e-08
3.77973e-05
0.000260496
0.000327341
0.000275158
0.000222732
0.000183356
0.00014929
0.000118946
9.13056e-05
6.90986e-05
5.29509e-05
4.27772e-05
3.72094e-05
3.62586e-05
3.67133e-05
3.78764e-05
3.85785e-05
3.86514e-05
3.82025e-05
3.73275e-05
3.59265e-05
3.44418e-05
3.25536e-05
3.0733e-05
2.88629e-05
2.6846e-05
2.50844e-05
2.31503e-05
2.14952e-05
1.98744e-05
1.83455e-05
1.68505e-05
1.55666e-05
1.42365e-05
1.31801e-05
1.21902e-05
13.5919
19.0579
17.8899
12.3509
5.28861
0.82407
0.0411547
0.00395589
0.0149245
0.322236
0.35545
0.630026
1.67841
2.567
3.3368
4.04903
4.69887
5.22747
5.57206
5.68651
5.5498
5.1604
4.53293
3.69573
2.69123
1.57921
0.442254
0.667555
1.58732
2.23664
2.51124
2.34705
1.7711
0.979266
0.328969
0.049752
0.00110889
3.02025e-07
2.40118e-06
0.000108318
0.000263605
0.000261693
0.000210014
0.000168187
0.000136497
0.00010999
8.61352e-05
6.76566e-05
5.41198e-05
4.50947e-05
3.98034e-05
3.78487e-05
3.71209e-05
3.71845e-05
3.71492e-05
3.66371e-05
3.59237e-05
3.48481e-05
3.34667e-05
3.19685e-05
3.0255e-05
2.8474e-05
2.68056e-05
2.49628e-05
2.33207e-05
2.15932e-05
2.0015e-05
1.85629e-05
1.7154e-05
1.57811e-05
1.45896e-05
1.33589e-05
1.23946e-05
1.14914e-05
11.6657
17.6951
19.0693
16.0348
9.89426
3.44493
0.391453
0.0151895
0.0167283
0.264938
0.287464
0.657208
1.74583
2.79495
3.78197
4.71564
5.57498
6.30907
6.86103
7.18465
7.25239
7.05293
6.59009
5.87976
4.94957
3.84182
2.61439
1.34127
0.116397
0.953809
1.75652
2.18108
2.14084
1.63477
0.862843
0.251425
0.0288639
1.3646e-08
5.99888e-07
1.8383e-08
0.000132942
0.000228101
0.000201424
0.000158131
0.000126794
0.000103109
8.25586e-05
6.69174e-05
5.52255e-05
4.68135e-05
4.15639e-05
3.87513e-05
3.70675e-05
3.62029e-05
3.54644e-05
3.45887e-05
3.35974e-05
3.24061e-05
3.10252e-05
2.9573e-05
2.79773e-05
2.63234e-05
2.48242e-05
2.31498e-05
2.16455e-05
2.00882e-05
1.86298e-05
1.73182e-05
1.60291e-05
1.4768e-05
1.36768e-05
1.25329e-05
1.16618e-05
1.08392e-05
10.0689
15.5331
18.4678
17.7979
13.8649
7.6418
2.22013
0.201211
0.0301976
0.207882
0.259331
0.613608
1.66093
2.7503
3.81975
4.85308
5.82767
6.70257
7.42765
7.95634
8.25352
8.29671
8.07694
7.59617
6.86599
5.91028
4.76596
3.48516
2.13969
0.821392
0.373909
1.30722
1.87055
1.95174
1.51749
0.774671
0.204566
0.0193813
1.88433e-05
2.88894e-08
5.37368e-06
0.000133931
0.000182607
0.000152707
0.000121203
9.88899e-05
8.0913e-05
6.7378e-05
5.68999e-05
4.88454e-05
4.33074e-05
3.96755e-05
3.70865e-05
3.53654e-05
3.39472e-05
3.27044e-05
3.14224e-05
3.01159e-05
2.87161e-05
2.73139e-05
2.58173e-05
2.42988e-05
2.29509e-05
2.14311e-05
2.00658e-05
1.86641e-05
1.73334e-05
1.61484e-05
1.49723e-05
1.38149e-05
1.28245e-05
1.17605e-05
1.09803e-05
1.02308e-05
8.60225
12.9217
16.4862
17.5284
16.0227
11.7129
5.88989
1.47432
0.0659681
0.133971
0.270671
0.540105
1.44962
2.45968
3.49055
4.51608
5.51552
6.45729
7.29958
7.99812
8.51296
8.81189
8.8737
8.68667
8.24666
7.55961
6.64084
5.51907
4.24002
2.86856
1.48924
0.223759
0.857088
1.55195
1.75302
1.39854
0.703868
0.178056
0.016972
0.00188234
8.51972e-07
1.80846e-05
0.000118778
0.00014307
0.000119746
9.78669e-05
8.13012e-05
6.91694e-05
5.94655e-05
5.155e-05
4.55258e-05
4.10607e-05
3.75816e-05
3.50057e-05
3.29131e-05
3.11936e-05
2.9588e-05
2.81064e-05
2.66524e-05
2.52601e-05
2.38482e-05
2.24301e-05
2.12127e-05
1.98318e-05
1.85908e-05
1.73375e-05
1.61252e-05
1.50575e-05
1.39868e-05
1.29261e-05
1.20315e-05
1.10425e-05
1.03508e-05
9.66565e-06
6.88577
10.0664
13.4368
15.4578
15.892
14.0549
9.82379
4.59086
0.908426
0.212089
0.359338
0.617543
1.25262
2.05733
2.93411
3.84714
4.7774
5.69999
6.58177
7.38396
8.06623
8.5906
8.9264
9.05024
8.94433
8.59882
8.00953
7.18286
6.13804
4.91049
3.55354
2.14575
0.7971
0.391282
1.2064
1.52804
1.26657
0.641318
0.163865
0.0165824
2.60466e-06
1.46854e-05
1.74522e-05
9.83017e-05
0.000116122
9.98753e-05
8.37097e-05
7.20643e-05
6.27524e-05
5.47706e-05
4.82135e-05
4.29553e-05
3.86444e-05
3.52186e-05
3.24436e-05
3.01683e-05
2.81826e-05
2.64563e-05
2.48949e-05
2.34589e-05
2.20934e-05
2.07364e-05
1.96197e-05
1.83632e-05
1.72278e-05
1.61078e-05
1.50044e-05
1.4044e-05
1.30731e-05
1.21021e-05
1.12983e-05
1.03773e-05
9.77199e-06
9.14263e-06
4.66616
6.96745
9.67673
11.968
13.5567
13.8374
12.0552
8.19299
3.54467
1.05884
0.850007
1.01445
1.32429
1.78531
2.37584
3.06056
3.8173
4.62238
5.44819
6.2623
7.02798
7.70653
8.26219
8.66349
8.88242
8.89697
8.68752
8.24203
7.55638
6.63788
5.50713
4.20641
2.80511
1.40279
0.175042
0.825864
1.27014
1.11584
0.580713
0.155731
0.0184407
0.000237421
6.52309e-05
1.67285e-05
8.2671e-05
9.9631e-05
8.79902e-05
7.60884e-05
6.66062e-05
5.83522e-05
5.12727e-05
4.52973e-05
4.02258e-05
3.59957e-05
3.25337e-05
2.96746e-05
2.72544e-05
2.52169e-05
2.34839e-05
2.19459e-05
2.05752e-05
1.92381e-05
1.81838e-05
1.70306e-05
1.59813e-05
1.49745e-05
1.39698e-05
1.31053e-05
1.22283e-05
1.13401e-05
1.06223e-05
9.76261e-06
9.24159e-06
8.6599e-06
2.38487
4.03171
5.78924
7.70013
9.56792
11.0517
11.4818
10.0693
6.78102
3.38618
2.06768
1.85541
1.80165
1.86025
2.06725
2.41278
2.88546
3.46516
4.12755
4.84497
5.58602
6.31536
6.99682
7.59528
8.07692
8.4119
8.57051
8.52784
8.26259
7.75984
7.01141
6.02393
4.82365
3.4614
2.03044
0.684981
0.414568
0.979665
0.947301
0.517336
0.14954
0.0208939
0.000973357
0.000207026
2.3294e-05
7.23101e-05
8.92985e-05
8.12775e-05
7.1259e-05
6.23437e-05
5.47024e-05
4.80217e-05
4.2272e-05
3.72821e-05
3.31657e-05
2.97065e-05
2.68325e-05
2.44256e-05
2.24515e-05
2.07522e-05
1.93146e-05
1.7956e-05
1.69188e-05
1.58366e-05
1.48525e-05
1.39387e-05
1.30215e-05
1.22401e-05
1.14481e-05
1.06353e-05
9.99897e-06
9.19512e-06
8.7562e-06
8.21457e-06
1.94668
2.71948
3.29716
4.2031
5.33973
6.74581
8.18495
8.95988
8.18201
6.01774
4.11941
3.21972
2.69854
2.31118
2.10467
2.07943
2.21001
2.47993
2.8775
3.38653
3.9847
4.64346
5.33004
6.01018
6.64861
7.21207
7.66618
7.9792
8.12027
8.06079
7.77314
7.23627
6.43823
5.38077