/*--------------------------------*- C++ -*----------------------------------*\
| =========                 |                                                 |
| \\      /  F ield         | OpenFOAM: The Open Source CFD Toolbox           |
|  \\    /   O peration     | Version:  2312                                  |
|   \\  /    A nd           | Website:  www.openfoam.com                      |
|    \\/     M anipulation  |                                                 |
\*---------------------------------------------------------------------------*/
FoamFile
{
    version     2.0;
    format      ascii;
    arch        "LSB;label=32;scalar=64";
    class       volVectorField;
    location    "150";
    object      momentError;
}
// * * * * * * * * * * * * * * * * * * * * * * * * * * * * * * * * * * * * * //

dimensions      [0 1 -2 0 0 0 0];

internalField   nonuniform List<vector> 
11040
(
(-9.27066 44.0891 -3.94158e-15)
(0.91975 37.3553 3.886e-15)
(1.67208 -0.963325 8.85394e-15)
(-1.00816 0.185704 -6.01812e-16)
(-1.26222 0.379521 7.56226e-15)
(-1.11105 0.619717 -4.80174e-15)
(-1.15252 0.265884 -1.1098e-14)
(-1.29595 0.0128139 -2.19568e-15)
(-1.54743 -0.199945 -6.66417e-16)
(-1.87281 -0.326204 3.60739e-15)
(-2.09621 -0.279796 2.03e-15)
(-2.84007 -0.272506 -9.03689e-16)
(-3.77771 -0.164301 -1.66283e-15)
(-4.85576 0.0139322 1.08e-15)
(-6.35725 0.153095 -5.73439e-16)
(-7.88911 0.361633 -1.8272e-15)
(-9.72561 0.528042 1.28671e-15)
(-11.4523 0.685454 1.49363e-15)
(-13.2695 0.776498 -5.06105e-16)
(-14.4743 0.911107 -1.37978e-16)
(-14.8022 0.962245 1.37654e-15)
(-15.4343 0.883852 -7.55629e-16)
(-15.7611 0.690972 6.88468e-16)
(-14.6554 0.495618 3.37186e-16)
(-11.9169 0.209195 -3.85163e-15)
(-8.86389 -0.192349 -2.90935e-15)
(-4.69212 -0.721602 -1.42697e-15)
(-0.305914 -1.37861 -1.22103e-15)
(4.18033 -2.01583 -3.59068e-15)
(8.80273 -2.55529 1.96043e-15)
(13.5735 -3.08978 3.74308e-15)
(17.8352 -3.61497 8.54531e-15)
(20.4916 -3.8939 9.76371e-15)
(21.2327 -3.90577 -9.21853e-16)
(18.6146 -3.45986 5.33931e-15)
(14.3144 -2.75765 2.44716e-15)
(9.57805 -2.03975 3.26383e-15)
(3.53083 -1.58491 -1.47264e-15)
(-5.28735 -1.13915 -4.9638e-15)
(-6.72445 -1.52602 -5.84289e-16)
(3.71122 2.29732 -6.08191e-16)
(13.6935 2.68348 1.76997e-15)
(36.4725 68.3516 6.41241e-15)
(11.1279 28.8694 1.26693e-14)
(4.72625 1.73847 -4.04136e-16)
(-1.32271 -0.079501 -1.41544e-15)
(-2.36475 -0.0474936 -2.93988e-16)
(-2.5329 0.134183 3.63123e-15)
(-3.03559 -0.341535 1.75908e-15)
(-3.58922 -0.666442 -3.2239e-16)
(-4.29531 -1.08181 -1.25266e-15)
(-5.462 -1.27668 3.02537e-15)
(-6.88193 -1.39464 2.60208e-15)
(-8.62928 -1.36725 1.98709e-15)
(-10.6884 -1.10404 1.55565e-16)
(-12.9845 -0.819185 -3.99998e-16)
(-15.3691 -0.353741 5.57731e-16)
(-17.7143 0.14774 6.79235e-16)
(-19.6847 0.671291 1.07187e-15)
(-20.8629 1.10958 -1.44671e-17)
(-20.9893 1.5373 -2.21481e-16)
(-19.8518 1.74545 -6.13946e-16)
(-18.5855 1.73273 9.59931e-16)
(-16.0355 1.426 6.40592e-16)
(-12.4038 1.07208 9.01271e-16)
(-7.49979 0.556577 -1.01764e-15)
(-1.33337 -0.267546 -2.17637e-15)
(5.15254 -1.17537 2.42845e-15)
(11.931 -2.25352 2.02467e-15)
(18.4086 -3.29432 -2.303e-15)
(24.141 -4.2223 -3.24825e-15)
(28.2286 -4.82968 -4.43759e-15)
(30.3199 -5.12935 -6.67063e-15)
(30.5583 -5.07748 -2.0712e-15)
(29.2513 -4.71392 2.63963e-15)
(27.7318 -4.2462 -2.91743e-15)
(23.9142 -3.24399 3.33091e-16)
(18.7775 -1.89685 -1.175e-16)
(11.8982 -0.190003 5.33009e-16)
(3.53337 1.72653 4.95856e-16)
(-2.03159 1.51983 -3.68302e-16)
(-0.43988 1.0303 1.73845e-16)
(9.74903 -6.55372 2.56732e-16)
(33.2846 12.5665 -2.90145e-15)
(35.6604 69.7781 -2.13114e-14)
(18.4653 28.7296 5.5034e-15)
(1.78161 -1.05997 1.42069e-15)
(-2.21207 -0.712281 2.767e-15)
(-3.05037 0.65337 3.44237e-15)
(-3.45616 0.917228 4.80904e-16)
(-4.32572 0.255875 -1.04473e-15)
(-5.09485 -0.446229 -1.03361e-16)
(-6.1818 -0.770213 -2.69981e-15)
(-7.64085 -1.04565 1.05424e-15)
(-9.28051 -1.26384 2.6867e-16)
(-11.0819 -1.17928 5.10456e-16)
(-13.0095 -1.0504 1.3293e-15)
(-14.8153 -0.723275 1.33177e-16)
(-16.4125 -0.329698 -4.44412e-16)
(-17.4855 0.106362 -1.14881e-16)
(-17.7969 0.504855 6.35075e-18)
(-17.2102 0.885893 3.69033e-16)
(-15.4476 1.03863 7.17874e-16)
(-13.4953 0.898606 -2.00267e-16)
(-10.5073 0.484545 3.50529e-16)
(-6.52744 0.0417178 -9.64188e-16)
(-1.41282 -0.585845 8.55971e-16)
(4.43832 -1.47911 2.50778e-15)
(10.5565 -2.37142 -1.33891e-15)
(16.5921 -3.37717 -1.59926e-15)
(22.2237 -4.26203 3.28929e-16)
(27.1271 -5.04758 2.90094e-15)
(31.2727 -5.55551 -9.06764e-16)
(34.3206 -5.80403 -8.44315e-17)
(35.9962 -5.77083 3.13774e-15)
(36.5383 -5.45001 7.51323e-16)
(35.7825 -4.83208 -2.39802e-15)
(32.8782 -3.6386 -4.21499e-15)
(28.238 -2.14465 5.5721e-16)
(21.3366 -0.359431 1.83902e-15)
(12.543 1.39738 1.62591e-17)
(6.64163 2.26355 1.41942e-15)
(4.99823 -0.538751 -9.11586e-18)
(8.49815 6.28903 -2.74851e-16)
(19.6927 -5.68649 -5.99141e-16)
(31.5131 19.5863 5.35702e-15)
(41.9102 63.9102 6.88973e-17)
(20.9607 31.807 -2.10321e-15)
(0.085448 -0.408078 2.6083e-15)
(-3.09743 -1.43074 -8.49998e-16)
(-3.21496 1.27465 3.10547e-16)
(-3.62723 1.34509 -4.6496e-16)
(-4.36056 0.6303 9.324e-16)
(-5.29847 0.19746 1.56201e-15)
(-6.56036 0.0604199 -1.89526e-15)
(-7.86639 -0.257456 1.51398e-15)
(-9.3121 -0.244288 7.90316e-16)
(-10.8781 -0.24768 4.58298e-16)
(-12.362 -0.122713 -8.08658e-16)
(-13.6684 0.0177869 -9.0894e-16)
(-14.561 0.195641 -4.62819e-16)
(-14.7977 0.323707 8.09101e-17)
(-14.2956 0.438612 -1.09343e-16)
(-12.7581 0.35436 -1.5443e-16)
(-10.8785 -0.00453096 -2.36002e-16)
(-7.98153 -0.640082 -4.58257e-16)
(-4.19952 -1.24364 -8.28336e-17)
(0.591211 -1.9619 -2.8541e-15)
(6.13598 -2.88335 -1.14157e-15)
(12.0768 -3.74892 1.21763e-15)
(18.1449 -4.67679 1.00035e-15)
(24.1517 -5.50762 2.46887e-15)
(29.8231 -6.247 -1.66191e-15)
(34.9475 -6.74644 1.91521e-15)
(38.9967 -6.92219 -2.98402e-15)
(41.4978 -6.73947 -3.13094e-15)
(42.9371 -6.19642 3.94315e-16)
(43.2734 -5.30292 -4.63081e-16)
(41.4324 -3.7751 -4.69288e-17)
(37.5695 -1.91555 -6.21436e-16)
(31.1186 0.170163 3.44547e-16)
(22.7889 2.06916 -2.60913e-16)
(17.7961 3.50807 -1.59092e-16)
(16.3303 -1.19921 9.80782e-16)
(8.66313 3.59587 2.78711e-16)
(17.923 1.06716 -1.61297e-16)
(22.0755 -12.4666 -1.21271e-15)
(33.2166 20.1181 1.07249e-15)
(46.2931 63.9418 1.05599e-16)
(27.5008 40.1492 7.26427e-16)
(0.239855 2.82927 -7.75351e-16)
(-3.53681 -1.73613 -1.24063e-15)
(-2.98581 1.20834 7.15281e-16)
(-3.22328 1.05969 -6.83222e-17)
(-3.53424 1.13437 9.48053e-16)
(-4.65226 0.985892 3.22655e-16)
(-5.83581 0.512159 -7.70817e-16)
(-7.1061 0.481654 -9.39796e-16)
(-8.63329 0.433092 2.79241e-16)
(-10.1283 0.434359 -1.05405e-17)
(-11.5515 0.437179 -3.75287e-16)
(-12.6304 0.422488 -5.3934e-16)
(-13.137 0.381068 -9.3037e-17)
(-12.9533 0.294386 1.01611e-16)
(-11.7872 0.0170556 3.06359e-16)
(-10.1487 -0.529909 -7.26946e-16)
(-7.43752 -1.35261 -1.57182e-16)
(-3.83455 -2.13185 1.32323e-15)
(0.782949 -2.99292 1.03341e-15)
(6.29006 -4.01571 -8.79598e-16)
(12.3841 -4.97152 9.56071e-16)
(18.8011 -5.93858 9.71254e-16)
(25.317 -6.81749 -1.43618e-15)
(31.6414 -7.55927 7.16771e-16)
(37.4791 -8.02357 -3.44743e-16)
(42.2833 -8.06478 3.15906e-15)
(45.4913 -7.6372 2.12043e-15)
(47.6013 -6.75964 4.54728e-16)
(49.1318 -5.51261 8.58286e-16)
(48.5855 -3.58503 4.25614e-16)
(45.8873 -1.31476 -3.92251e-16)
(40.36 0.978866 3.82222e-16)
(33.2685 2.94492 -2.32988e-16)
(29.9446 4.52426 -3.14818e-16)
(29.9485 -1.75678 -1.72809e-16)
(8.97237 1.50953 -2.77148e-16)
(12.4983 3.72087 4.96942e-16)
(16.8445 -3.0735 1.68224e-15)
(20.3673 -13.3017 7.8429e-16)
(33.3591 14.6494 -2.41648e-15)
(49.6251 58.0126 -2.6954e-16)
(36.6581 49.2506 -1.18511e-15)
(6.23367 13.6475 -1.67756e-15)
(-4.01607 -2.63749 -2.20198e-16)
(-2.66258 0.00208369 -1.14832e-15)
(-2.2677 1.29445 5.5021e-16)
(-2.5417 1.75719 7.75973e-17)
(-3.67173 1.35342 -1.93298e-16)
(-4.93289 1.03743 -8.70255e-16)
(-6.54727 0.947462 1.0806e-16)
(-8.14985 0.834819 -4.016e-16)
(-9.80037 0.774623 -8.00162e-17)
(-11.164 0.604455 -2.52535e-16)
(-12.0214 0.440191 -9.33828e-17)
(-12.1943 0.193064 1.10951e-16)
(-11.4301 -0.233359 1.35875e-16)
(-10.0941 -0.970746 8.83838e-17)
(-7.58289 -1.99144 1.12275e-16)
(-4.13842 -2.97652 -7.03378e-16)
(0.330314 -4.04208 3.8383e-16)
(5.80371 -5.23317 1.60875e-15)
(12.0253 -6.34815 -1.36291e-15)
(18.7188 -7.39766 -1.90605e-15)
(25.6143 -8.32504 -3.36837e-16)
(32.4165 -9.04487 7.6776e-16)
(38.814 -9.43852 1.21468e-15)
(44.2826 -9.31619 -9.97898e-16)
(48.1975 -8.61039 -1.71935e-15)
(50.7645 -7.32468 -1.30823e-15)
(53.521 -5.67414 1.17748e-16)
(54.4562 -3.29257 1.24942e-15)
(53.2743 -0.56165 6.41926e-16)
(49.0334 1.92124 3.2804e-16)
(43.5593 3.87304 9.19865e-16)
(41.6778 5.00793 -5.30755e-16)
(42.3838 -2.71222 -3.54659e-16)
(9.00058 1.24345 3.93644e-17)
(9.71799 1.07421 7.87916e-17)
(12.3052 3.09987 -4.49509e-16)
(16.3376 -5.4686 -1.65617e-15)
(18.9591 -16.3706 -6.02437e-16)
(30.8431 3.3872 6.77508e-16)
(49.0591 46.3481 6.78288e-16)
(46.2486 58.0794 -2.69265e-17)
(18.0478 28.3463 1.58961e-15)
(-1.62912 0.580324 2.69229e-17)
(-2.56959 -1.42405 9.84195e-19)
(-1.27913 0.985746 -5.44384e-16)
(-1.78064 1.6316 1.48792e-15)
(-2.55241 1.74371 -1.28933e-15)
(-4.24017 1.70251 3.13256e-16)
(-6.05684 1.30284 -3.73882e-16)
(-7.9387 1.17086 -1.84727e-16)
(-9.57677 0.841048 2.00874e-16)
(-10.8147 0.566018 -4.54276e-17)
(-11.3994 0.149448 -2.99342e-16)
(-11.0903 -0.419838 3.55991e-16)
(-10.1406 -1.34851 -3.87677e-16)
(-7.92139 -2.58004 -2.85692e-16)
(-4.73495 -3.79772 6.04571e-16)
(-0.525378 -5.10822 -3.74996e-16)
(4.78713 -6.53001 -6.13862e-16)
(10.9989 -7.86289 -2.05863e-16)
(17.8213 -9.05841 -2.64423e-16)
(24.9597 -10.0629 -4.58124e-17)
(32.1379 -10.7836 4.75337e-16)
(39.0266 -11.0916 5.02724e-16)
(45.1123 -10.7842 5.96525e-16)
(49.7968 -9.78045 -6.69974e-16)
(52.5618 -8.00269 -1.65528e-15)
(56.4679 -5.9383 -2.91259e-16)
(58.9463 -3.08387 1.68603e-15)
(59.5534 0.128228 -1.95779e-16)
(56.9966 2.88294 -1.20499e-16)
(53.3474 4.75932 2.90856e-16)
(52.2798 4.93086 3.89319e-16)
(52.5478 -3.46048 -2.36683e-16)
(8.2445 0.791151 1.55102e-17)
(8.75171 0.253227 -9.8606e-17)
(9.40898 0.908486 -2.52366e-16)
(12.8231 1.04913 4.36458e-16)
(15.2771 -6.61863 6.23456e-16)
(16.7614 -17.6316 1.39619e-15)
(25.6648 -7.5227 -1.32657e-15)
(44.7287 29.828 -1.61469e-15)
(53.4532 57.9823 7.42283e-16)
(34.7404 43.3728 7.03312e-16)
(10.0518 14.7814 1.91712e-15)
(-2.59994 -2.77856 -1.43074e-15)
(-1.13745 -0.393775 7.48938e-16)
(-0.759384 1.40411 -4.33634e-16)
(-1.86047 2.21256 -8.87605e-16)
(-3.50297 2.11956 9.22349e-16)
(-5.63358 1.93064 1.01867e-16)
(-7.66143 1.29377 7.01715e-16)
(-9.31978 0.838953 -4.7176e-16)
(-10.3449 0.218715 -4.69927e-16)
(-10.5641 -0.507127 6.15093e-16)
(-10.0895 -1.6474 -2.21768e-16)
(-8.26507 -3.1153 -4.80895e-16)
(-5.46706 -4.57888 8.43885e-17)
(-1.67295 -6.16 2.21425e-16)
(3.30901 -7.85358 -3.15475e-16)
(9.32844 -9.4489 -4.05364e-16)
(16.0785 -10.852 9.65948e-16)
(23.2648 -11.987 9.70829e-16)
(30.6329 -12.7575 -5.61738e-16)
(37.8533 -13.01 -9.12093e-16)
(44.4788 -12.5613 -2.57521e-16)
(49.9194 -11.2843 7.55188e-16)
(53.1988 -9.03598 7.11328e-16)
(57.7008 -6.49993 -9.98457e-17)
(61.6158 -3.18995 -7.13214e-16)
(64.0285 0.497022 5.09638e-16)
(63.515 3.65388 -4.405e-16)
(61.9882 5.60456 1.68044e-16)
(61.3922 4.88909 1.94542e-16)
(60.5705 -3.04262 2.68642e-16)
(7.38215 0.291295 -2.89269e-17)
(8.02111 -0.0630588 -6.07261e-17)
(7.40643 -0.273116 1.51313e-16)
(9.52913 0.151115 3.84961e-16)
(12.1645 0.0651764 6.60345e-17)
(13.8048 -5.66814 -3.7529e-17)
(14.3561 -16.6732 -5.45802e-16)
(19.9165 -16.3429 1.24216e-15)
(36.832 10.1176 -6.86194e-16)
(53.5845 45.4789 1.60512e-15)
(51.2819 54.449 -3.13151e-16)
(28.6613 32.67 -1.12868e-15)
(5.93148 7.13082 3.97092e-16)
(-2.38424 -2.69295 -5.2436e-16)
(-0.770113 0.551331 -9.88202e-16)
(-1.3533 2.09097 3.28254e-16)
(-3.10441 2.62211 4.17926e-16)
(-5.18576 2.16488 6.90425e-16)
(-7.22937 1.57505 -4.1312e-17)
(-8.80706 0.589592 -6.44971e-16)
(-9.64377 -0.382058 6.64207e-16)
(-9.70691 -1.78882 -5.82292e-17)
(-8.36503 -3.5257 -3.2483e-17)
(-6.09661 -5.23647 3.08419e-16)
(-2.89649 -7.10231 3.01455e-16)
(1.56125 -9.09496 7.17983e-16)
(7.17752 -10.9828 1.24195e-16)
(13.6151 -12.606 -1.13723e-16)
(20.5742 -13.9068 -5.01081e-16)
(27.8243 -14.7555 -1.36968e-17)
(35.0738 -15.018 -3.69953e-16)
(41.9605 -14.4795 1.58511e-16)
(47.9066 -13.0008 -4.62976e-16)
(52.0669 -10.4314 -2.76519e-16)
(56.3497 -7.36962 -3.91475e-17)
(61.3845 -3.71302 6.94736e-16)
(65.2875 0.351478 7.45674e-17)
(66.8168 4.03758 -1.37519e-16)
(67.602 6.29757 -1.54238e-16)
(67.9177 5.32304 3.20869e-16)
(66.4942 -1.04387 8.81351e-17)
(6.44645 -0.101425 5.76302e-17)
(7.11529 -0.456203 1.49043e-17)
(6.34362 -0.472543 9.86496e-17)
(7.51843 -0.67588 -2.41477e-16)
(9.39304 -0.619041 -6.39073e-16)
(11.3875 -0.665878 3.63352e-16)
(12.5884 -4.47365 1.40665e-15)
(12.417 -14.0623 -2.12224e-15)
(14.8759 -20.3799 -4.62247e-16)
(26.473 -7.58659 3.36793e-15)
(45.5603 23.7324 1.44745e-16)
(58.1687 50.2644 -3.25454e-16)
(48.0633 46.6267 -1.30465e-15)
(24.5812 25.7429 7.1848e-16)
(3.54399 4.57565 -1.56175e-15)
(-2.89578 -1.67321 4.58266e-16)
(-1.76598 1.08824 -1.67422e-16)
(-2.87533 2.18889 6.96464e-16)
(-4.74052 2.32881 -2.94381e-16)
(-6.52675 1.44399 -5.61657e-16)
(-7.85827 0.357075 3.67281e-16)
(-8.55604 -1.46349 -4.87022e-17)
(-7.83963 -3.58599 -3.51567e-16)
(-6.26823 -5.59321 4.23991e-16)
(-3.85246 -7.79001 2.82473e-16)
(-0.110879 -10.1507 -4.96982e-16)
(4.91029 -12.3583 3.62943e-16)
(10.8028 -14.2457 2.71165e-16)
(17.246 -15.7041 2.50492e-16)
(24.0296 -16.6638 -2.48875e-16)
(30.9309 -16.9394 2.27192e-16)
(37.6378 -16.3651 3.4902e-16)
(43.6135 -14.7419 1.18551e-16)
(48.1785 -11.9945 2.46327e-16)
(51.5936 -8.4134 3.1046e-16)
(56.9741 -4.59758 -5.02662e-16)
(61.6584 -0.312014 1.54852e-16)
(64.6005 3.80465 1.6634e-16)
(67.2966 6.43301 1.40408e-16)
(68.8354 6.01493 -2.88658e-17)
(67.8633 1.45633 -2.08895e-16)
(5.49954 -0.432718 2.50738e-18)
(6.16382 -0.740947 -9.62989e-18)
(5.66631 -0.768562 -1.38721e-17)
(6.02328 -0.948309 -1.6562e-16)
(7.37414 -1.27899 5.39254e-17)
(9.01383 -1.49083 7.60781e-16)
(10.6242 -1.49255 5.07064e-17)
(11.5941 -3.56203 -1.1071e-15)
(11.2998 -10.5094 8.58392e-16)
(11.3548 -19.5258 -1.24413e-15)
(16.8132 -19.0628 -2.48178e-15)
(32.0767 0.216098 -4.84915e-16)
(51.1582 30.2593 6.9999e-16)
(59.3522 48.5952 -1.05745e-15)
(46.2817 41.8968 -8.42911e-16)
(23.0315 23.5549 9.86814e-16)
(2.72332 5.06704 1.57169e-16)
(-4.0992 -1.18673 1.15065e-15)
(-3.62497 0.271485 -2.29829e-16)
(-4.3411 0.982482 -8.03209e-16)
(-5.56781 1.02452 9.36505e-17)
(-6.49652 -0.52663 -1.19342e-16)
(-6.24333 -2.74374 -7.30795e-18)
(-5.38087 -5.0186 -2.69332e-16)
(-3.91179 -7.68399 6.55998e-16)
(-1.07877 -10.5662 -1.43739e-16)
(3.12887 -13.2409 -2.49764e-16)
(8.23003 -15.4436 1.49914e-16)
(13.8419 -17.1346 -2.46372e-16)
(19.7816 -18.2183 1.24607e-16)
(25.9046 -18.5709 -3.99332e-16)
(31.915 -17.9828 -4.87898e-17)
(37.4476 -16.3143 3.94697e-16)
(41.8534 -13.4504 6.32318e-16)
(44.7456 -9.51851 1.24736e-16)
(49.3271 -5.62671 -4.1643e-16)
(54.0252 -1.3807 -1.89806e-16)
(57.4386 2.81259 -3.40282e-16)
(60.6776 5.68968 -5.38328e-16)
(62.4902 5.97765 -4.95581e-16)
(62.3223 3.05756 -1.13959e-16)
(4.589 -0.677038 7.08284e-17)
(5.20765 -0.96759 -3.31231e-17)
(4.93107 -0.988477 9.37574e-17)
(5.09681 -1.13087 -3.59512e-17)
(5.75597 -1.41256 -6.21018e-17)
(7.00708 -1.86002 1.92852e-16)
(8.39525 -2.2581 -4.78925e-16)
(9.75884 -2.33169 2.49197e-16)
(10.7213 -3.21053 2.65936e-15)
(10.6893 -7.40195 -9.91923e-16)
(9.73884 -15.453 -2.10275e-15)
(10.7347 -21.6999 2.43059e-15)
(18.9127 -16.0048 1.11463e-15)
(36.1976 4.82447 -6.74903e-17)
(55.3585 31.4141 4.2616e-16)
(62.1571 45.8168 -7.78964e-16)
(50.1429 41.038 -2.43129e-16)
(28.0743 25.682 9.06702e-16)
(6.10281 7.43464 5.86286e-16)
(-4.31284 -1.94973 -1.38146e-15)
(-5.15475 -2.30048 3.86287e-16)
(-4.79478 -2.25808 -2.63471e-16)
(-4.22987 -2.98543 -1.55554e-16)
(-3.56419 -4.18505 -9.41858e-17)
(-2.70732 -6.56815 4.42642e-16)
(-0.677512 -9.67658 3.63113e-16)
(2.68335 -12.7104 -5.93094e-16)
(6.7994 -15.2336 -2.00594e-16)
(11.2497 -17.1778 2.68968e-16)
(15.9188 -18.4373 -3.52416e-16)
(20.7313 -18.9187 1.45799e-16)
(25.5497 -18.3878 2.0003e-16)
(30.0763 -16.7439 -4.89025e-18)
(33.8503 -13.9174 -2.10512e-16)
(36.6788 -10.1845 -3.11386e-16)
(40.014 -6.29629 3.7966e-17)
(44.507 -2.52243 1.28772e-16)
(48.074 1.22856 2.23209e-16)
(51.4277 4.01185 -7.62077e-17)
(53.5453 4.95978 -5.03501e-17)
(53.0941 3.65806 1.03596e-16)
(3.75255 -0.839259 -7.61671e-18)
(4.29735 -1.11796 -2.14666e-17)
(4.1658 -1.13901 3.35124e-17)
(4.37769 -1.30158 9.89352e-17)
(4.65196 -1.49832 -4.42701e-19)
(5.41515 -1.85379 -1.9022e-16)
(6.48146 -2.3714 -6.04199e-16)
(7.63646 -2.89131 -8.31366e-16)
(8.80537 -3.14986 2.723e-16)
(9.81319 -3.51348 -6.96686e-16)
(10.1598 -5.5708 1.04824e-15)
(9.34975 -10.936 2.0951e-16)
(8.30063 -18.4332 -6.15901e-16)
(10.5997 -22.1088 -5.71869e-16)
(20.7956 -14.9435 6.47394e-16)
(39.7067 4.12274 9.04991e-16)
(60.4462 27.5498 -3.10085e-15)
(70.8569 42.1663 2.5808e-15)
(64.4444 41.7093 3.28968e-16)
(45.8324 30.0727 -1.0518e-15)
(21.8018 12.3443 5.66448e-16)
(4.29571 -1.7238 -1.65754e-16)
(-1.88424 -6.97025 -3.04524e-16)
(-2.22313 -7.82147 -4.64715e-17)
(-1.24913 -8.68604 6.80702e-16)
(0.659658 -10.7618 -1.44474e-16)
(3.60776 -12.7284 -3.98365e-17)
(6.95539 -14.3711 -5.33111e-16)
(10.2446 -15.604 2.84898e-16)
(13.414 -16.4507 8.81606e-16)
(16.5554 -16.6723 -3.12961e-16)
(19.6893 -16.1223 -3.3477e-16)
(22.7315 -14.6082 2.12223e-16)
(25.3922 -12.0898 -1.96954e-16)
(27.73 -8.97316 -3.34994e-16)
(29.8497 -5.9397 2.05727e-16)
(33.3651 -3.56877 -8.64987e-17)
(35.8511 -0.866055 -2.01123e-16)
(38.1476 1.52577 2.43287e-17)
(40.0722 3.06736 1.73229e-16)
(38.5669 3.26291 -1.01132e-17)
(3.00675 -0.928159 1.7413e-17)
(3.46668 -1.19386 -1.86668e-17)
(3.41905 -1.22526 8.4457e-17)
(3.64225 -1.3933 7.19947e-17)
(3.86159 -1.58115 -3.35806e-16)
(4.20128 -1.8311 3.22421e-16)
(4.94818 -2.24474 8.04825e-16)
(5.83361 -2.8044 4.23538e-16)
(6.77117 -3.41702 5.17724e-17)
(7.75658 -3.8974 -1.62902e-15)
(8.72342 -4.22878 -6.98852e-16)
(9.33817 -5.09256 -1.00454e-16)
(9.13341 -7.92096 -1.20215e-15)
(7.9599 -13.5107 9.76762e-16)
(7.18611 -20.2252 3.24644e-15)
(10.2663 -23.532 -1.78665e-15)
(21.0845 -18.4585 -3.81046e-16)
(40.6004 -3.78325 6.75112e-16)
(64.2935 16.167 -7.11488e-16)
(82.6821 32.1075 2.07858e-15)
(87.3526 36.6673 -4.19017e-16)
(83.1208 32.2713 -1.21869e-15)
(68.3918 20.7868 -1.53335e-15)
(50.0756 6.94147 8.67496e-16)
(34.107 -4.8811 1.08099e-15)
(23.6918 -12.4432 1.21103e-17)
(18.78 -16.3551 1.42332e-16)
(17.1835 -17.937 -2.49052e-17)
(17.0791 -18.4461 8.44486e-17)
(17.5825 -18.401 3.04577e-16)
(18.5075 -18.0829 3.36067e-16)
(19.7542 -17.4111 -4.88784e-16)
(21.2926 -16.3208 2.89628e-17)
(22.891 -14.6118 -7.28084e-17)
(24.5827 -12.3663 -2.96128e-16)
(27.6732 -10.9698 1.46596e-17)
(31.3584 -7.90749 4.32887e-16)
(33.8228 -3.99533 -1.7041e-16)
(35.2523 -0.443222 -9.35221e-17)
(35.4099 2.34785 -3.8945e-17)
(34.0902 3.85006 1.09103e-17)
(2.36093 -0.955389 -2.84016e-17)
(2.73211 -1.20368 3.08398e-17)
(2.72873 -1.2453 -6.57554e-17)
(2.93436 -1.41559 4.35696e-17)
(3.13982 -1.60537 -8.11644e-19)
(3.35204 -1.80344 -8.05002e-17)
(3.72445 -2.11859 3.2943e-16)
(4.36973 -2.58585 -2.93397e-16)
(5.07335 -3.16385 5.68131e-16)
(5.81506 -3.81901 5.64038e-16)
(6.59767 -4.46013 -1.34919e-15)
(7.38887 -4.9434 2.15093e-15)
(8.09803 -5.46731 1.8526e-15)
(8.37861 -6.77456 -1.95604e-15)
(7.79917 -9.92017 -1.08575e-15)
(6.38004 -15.3925 -8.39742e-16)
(5.33592 -22.1005 1.90378e-15)
(7.43117 -27.0434 -1.86739e-15)
(15.9042 -26.5774 4.47579e-16)
(32.6217 -18.7296 8.92721e-16)
(55.9697 -5.15026 -6.112e-16)
(83.8693 8.00826 -6.57279e-16)
(104.108 15.7695 2.76765e-16)
(115.431 17.2174 4.72595e-16)
(118.439 13.9718 -9.00662e-16)
(115.754 8.10102 2.97012e-16)
(109.861 1.14004 8.88348e-16)
(102.572 -5.78378 -1.84564e-15)
(94.8504 -11.8248 5.39918e-16)
(87.3598 -16.4907 5.70338e-16)
(80.3424 -19.5981 2.23185e-18)
(73.9761 -21.1127 -4.43041e-16)
(68.1104 -21.0775 -5.51563e-16)
(62.202 -19.5755 9.84824e-16)
(60.1322 -16.8564 6.90278e-16)
(57.959 -12.579 -5.76635e-16)
(55.3571 -7.37771 -8.36534e-17)
(51.8937 -1.61899 1.17968e-16)
(48.5584 3.47364 -3.75697e-16)
(44.7165 7.51209 -7.71283e-17)
(41.1734 9.71857 1.62314e-16)
(1.81541 -0.931963 -8.38198e-20)
(2.10403 -1.15996 -2.74388e-17)
(2.11706 -1.20756 2.29173e-17)
(2.28735 -1.37293 6.42359e-17)
(2.46237 -1.55747 -1.1569e-16)
(2.63935 -1.75464 -4.5729e-16)
(2.83783 -1.97865 5.54902e-18)
(3.2074 -2.35319 5.58153e-16)
(3.70754 -2.84085 -2.64744e-16)
(4.24223 -3.40824 -3.51165e-17)
(4.79148 -4.0597 -8.30488e-16)
(5.33497 -4.74892 7.74483e-16)
(5.90739 -5.4067 -4.44518e-16)
(6.48709 -5.99913 -1.77769e-15)
(6.91493 -6.7574 2.37975e-15)
(6.84975 -8.27666 8.73415e-16)
(5.89913 -11.3375 4.66145e-16)
(3.92793 -16.4421 -1.33796e-17)
(1.59686 -23.1012 -4.42373e-16)
(0.43113 -29.7123 -3.52547e-16)
(3.2441 -33.5424 -1.73483e-16)
(12.1337 -34.9723 4.67803e-16)
(25.6183 -32.0888 -1.01707e-15)
(41.8143 -27.4048 -4.52075e-17)
(57.8605 -22.573 5.46383e-16)
(71.583 -18.8075 -6.44406e-16)
(81.6259 -16.572 -1.21999e-15)
(87.5442 -15.6756 1.59522e-15)
(89.5319 -15.4919 2.02083e-15)
(88.1268 -15.3842 -1.62712e-15)
(83.9871 -14.8039 -2.3187e-16)
(77.7772 -13.4099 -3.22793e-16)
(70.1123 -11.0118 -6.95555e-16)
(61.6821 -7.48772 1.67935e-15)
(51.4905 -3.05172 -8.05772e-16)
(45.1607 2.42849 -1.22738e-16)
(39.2528 8.56899 4.21191e-16)
(33.8193 14.0732 -3.65177e-16)
(29.7307 18.6787 3.13873e-16)
(26.0533 21.6417 3.43093e-16)
(24.3028 23.0747 -6.28074e-17)
(1.3594 -0.87638 4.39604e-18)
(1.5783 -1.08223 -1.17687e-17)
(1.59342 -1.13112 -3.16301e-17)
(1.72354 -1.28377 1.17775e-17)
(1.85817 -1.45442 1.45018e-16)
(1.99644 -1.6368 -8.38563e-17)
(2.13823 -1.83607 3.90063e-16)
(2.31307 -2.09003 3.8356e-16)
(2.62082 -2.48514 -2.92908e-16)
(2.9829 -2.96351 -2.93401e-16)
(3.35569 -3.50511 -7.95414e-16)
(3.70848 -4.10558 7.13211e-16)
(4.04529 -4.77963 -7.29344e-16)
(4.37767 -5.49269 -4.90598e-16)
(4.71389 -6.19206 9.7557e-16)
(5.00918 -6.87913 5.97258e-16)
(5.10292 -7.72332 7.86488e-16)
(4.68219 -9.1206 -1.37597e-15)
(3.35933 -11.5824 -7.74454e-16)
(0.794041 -15.495 2.41772e-15)
(-2.87433 -20.6719 -1.22672e-15)
(-7.01122 -27.3773 -2.86927e-16)
(-10.3649 -32.7105 3.27991e-16)
(-12.346 -36.411 -9.22426e-16)
(-12.8817 -38.054 1.41738e-15)
(-12.286 -37.74 -8.09222e-16)
(-11.0866 -35.9206 -1.27034e-15)
(-9.93731 -32.9971 3.40461e-16)
(-9.29058 -29.2292 3.55335e-16)
(-9.37112 -24.8056 2.47103e-15)
(-10.1759 -19.833 -1.29969e-15)
(-11.5411 -14.3919 -9.57256e-16)
(-13.1381 -8.59057 5.0777e-16)
(-14.5312 -2.616 1.23845e-16)
(-15.78 3.35771 -6.55428e-17)
(-17.6091 9.31859 -9.68799e-17)
(-17.7154 14.5659 1.26275e-16)
(-16.6403 18.5027 2.25002e-16)
(-14.9438 21.6478 -2.54549e-16)
(-12.8039 23.1706 1.29183e-16)
(-9.94166 24.0223 -1.59393e-16)
(1.05997 -0.837101 3.11347e-18)
(1.21365 -1.01404 1.21681e-18)
(1.22245 -1.06241 5.02671e-17)
(1.30969 -1.19563 -3.09048e-17)
(1.39978 -1.34324 -7.52679e-17)
(1.49227 -1.50125 -4.52882e-16)
(1.58694 -1.67283 -6.26553e-16)
(1.68563 -1.86423 8.0796e-16)
(1.81972 -2.13375 1.27395e-15)
(2.05433 -2.53566 -1.2831e-15)
(2.29503 -2.99339 -2.37677e-16)
(2.51992 -3.48613 1.5141e-15)
(2.72006 -4.03289 -1.03136e-15)
(2.88611 -4.63985 3.05166e-16)
(3.01739 -5.30359 -1.26583e-16)
(3.11938 -5.99755 -1.8601e-15)
(3.1853 -6.68349 3.20205e-15)
(3.16712 -7.35048 1.03083e-15)
(2.93055 -8.07794 -2.76575e-15)
(2.23571 -9.04918 2.30958e-15)
(0.761937 -10.5168 -1.52797e-16)
(-1.77417 -13.3036 -1.86379e-15)
(-5.22452 -16.1893 3.01433e-16)
(-9.40281 -19.0625 8.38935e-16)
(-13.9037 -21.4052 -1.45554e-15)
(-18.3825 -22.8381 1.58358e-16)
(-22.5169 -23.1229 1.93571e-16)
(-26.0653 -22.1955 3.09203e-16)
(-28.891 -20.1409 -1.2619e-15)
(-30.9279 -17.1455 8.0412e-16)
(-32.1616 -13.4958 1.46826e-15)
(-32.5907 -9.39015 -2.74034e-16)
(-32.2282 -5.09873 -3.59346e-16)
(-31.0627 -0.97497 -8.84694e-16)
(-29.3482 2.82547 1.78577e-16)
(-27.1443 6.06659 9.77214e-17)
(-25.1115 8.80562 8.4043e-17)
(-22.533 10.7437 1.80946e-17)
(-19.8535 12.3359 1.61065e-16)
(-16.965 13.1697 1.66918e-16)
(-14.1858 13.8329 -6.21566e-17)
(0.839871 -0.785729 -2.11059e-17)
(0.945176 -0.935371 1.69735e-17)
(0.947325 -0.980755 2.77592e-17)
(1.00226 -1.09455 -7.0738e-17)
(1.0587 -1.21973 -4.67647e-17)
(1.11595 -1.35316 -3.4045e-16)
(1.17434 -1.49828 -4.31675e-17)
(1.23256 -1.65908 4.52718e-16)
(1.2943 -1.84143 -6.70422e-16)
(1.41047 -2.14505 -8.64905e-17)
(1.55536 -2.52256 1.64868e-15)
(1.68906 -2.92742 2.22431e-16)
(1.80255 -3.36487 -2.05176e-15)
(1.88241 -3.83779 4.60616e-16)
(1.91813 -4.35118 6.11334e-16)
(1.90241 -4.9067 -2.42807e-15)
(1.82905 -5.49851 6.31321e-17)
(1.6937 -6.10236 1.25353e-15)
(1.4878 -6.68301 1.37491e-15)
(1.18066 -7.20759 -8.51648e-16)
(0.705486 -7.6852 3.30932e-16)
(-0.0935484 -8.67839 9.03918e-16)
(-1.2763 -9.54247 -1.58966e-15)
(-2.93187 -10.4256 -4.71568e-16)
(-5.01636 -11.225 1.50861e-16)
(-7.4146 -11.8006 5.36527e-16)
(-9.9497 -12.0132 -3.0571e-16)
(-12.4244 -11.7651 5.68835e-16)
(-14.651 -11.0178 -2.17886e-16)
(-16.4878 -9.80133 -2.39545e-16)
(-17.8388 -8.19295 5.99527e-16)
(-18.6468 -6.3094 -3.90007e-16)
(-18.9455 -4.26423 -1.52102e-16)
(-18.6968 -2.1761 6.75334e-16)
(-18.0584 -0.132947 -6.56454e-16)
(-17.0764 1.76068 3.59375e-16)
(-15.8327 3.46062 2.92444e-16)
(-14.2549 4.85405 -4.36566e-16)
(-12.6716 6.11429 7.10358e-17)
(-11.0022 6.99377 1.50106e-16)
(-9.44262 7.724 2.92907e-17)
(0.669185 -0.724712 -7.13024e-18)
(0.740257 -0.850868 2.19709e-17)
(0.736324 -0.891986 3.79936e-17)
(0.768863 -0.988121 -1.00809e-16)
(0.801562 -1.09305 3.35485e-17)
(0.834428 -1.20436 9.78978e-17)
(0.866791 -1.32506 -1.77377e-16)
(0.898531 -1.45764 4.64712e-17)
(0.928643 -1.60542 1.92016e-16)
(0.965596 -1.79728 -1.80993e-16)
(1.04754 -2.10239 2.00197e-16)
(1.11885 -2.43196 -1.94467e-16)
(1.17395 -2.78232 1.00419e-16)
(1.20195 -3.15315 8.85194e-16)
(1.19234 -3.54423 -1.12358e-15)
(1.13702 -3.95428 -4.83264e-16)
(1.02742 -4.38214 -2.44545e-16)
(0.853805 -4.82317 1.69518e-16)
(0.608784 -5.26571 6.68138e-16)
(0.285457 -5.68521 -2.79316e-16)
(-0.109328 -6.04937 -9.70788e-16)
(-0.638489 -6.70976 7.49501e-16)
(-1.24066 -7.15961 8.18976e-16)
(-1.97904 -7.51384 -1.30092e-15)
(-2.85897 -7.75253 5.08612e-16)
(-3.86675 -7.84776 4.54013e-16)
(-4.96051 -7.77107 -7.30391e-16)
(-6.07908 -7.49761 1.20872e-15)
(-7.15034 -7.0159 -3.01209e-16)
(-8.10737 -6.33253 -9.24459e-16)
(-8.89368 -5.47059 -5.76957e-17)
(-9.4717 -4.46869 1.07861e-15)
(-9.82049 -3.37142 -8.41306e-16)
(-9.90461 -2.22586 -2.52725e-16)
(-9.79187 -1.0795 5.50986e-16)
(-9.49066 0.0138854 -2.39026e-19)
(-9.03272 1.02555 -5.69581e-17)
(-8.35832 1.89517 -4.3411e-17)
(-7.66256 2.69579 3.95874e-17)
(-6.87709 3.31184 -1.17355e-17)
(-6.12414 3.83753 6.04245e-17)
(0.534692 -0.660925 -2.27393e-19)
(0.581952 -0.766287 -2.10386e-18)
(0.573101 -0.802607 1.32581e-19)
(0.590098 -0.883252 6.92793e-17)
(0.606471 -0.970293 -4.72962e-17)
(0.622602 -1.06225 -7.65513e-18)
(0.637664 -1.16144 1.54477e-16)
(0.651349 -1.27032 1.03317e-16)
(0.662606 -1.38998 -2.94849e-16)
(0.672784 -1.5255 -1.68127e-16)
(0.699458 -1.74489 5.48809e-17)
(0.730071 -2.00962 -2.69746e-16)
(0.747608 -2.29003 -1.41629e-16)
(0.744437 -2.58106 4.30988e-16)
(0.71187 -2.88153 2.95584e-16)
(0.643112 -3.18801 -3.64901e-18)
(0.533258 -3.49594 -1.06117e-16)
(0.376021 -3.79984 -1.95665e-16)
(0.164719 -4.09319 3.91172e-16)
(-0.109292 -4.36603 4.65019e-16)
(-0.443238 -4.60334 5.0786e-17)
(-0.895406 -5.06605 -8.71135e-16)
(-1.37245 -5.37775 -8.39667e-17)
(-1.90493 -5.60794 5.35359e-16)
(-2.47895 -5.73702 6.41145e-16)
(-3.08202 -5.75221 -3.09257e-16)
(-3.69523 -5.64488 -9.06736e-16)
(-4.29612 -5.41483 -7.12162e-16)
(-4.85924 -5.06548 2.53287e-16)
(-5.36042 -4.60973 6.88827e-16)
(-5.77827 -4.06263 -1.72517e-16)
(-6.09608 -3.44696 2.32014e-16)
(-6.30443 -2.78452 -3.02793e-17)
(-6.37762 -2.0969 5.29144e-17)
(-6.35393 -1.41026 -3.82263e-16)
(-6.23226 -0.75137 2.45744e-16)
(-6.02703 -0.133681 2.23456e-18)
(-5.6871 0.418497 1.12793e-16)
(-5.33627 0.933485 -1.40116e-16)
(-4.919 1.35716 1.68558e-16)
(-4.5078 1.72663 -3.12947e-17)
(0.428244 -0.597318 3.18241e-18)
(0.45838 -0.685427 4.16113e-18)
(0.446316 -0.716639 -7.41722e-17)
(0.452392 -0.783765 1.01821e-16)
(0.457901 -0.85555 1.10775e-16)
(0.462716 -0.930903 6.49652e-17)
(0.466466 -1.01202 -1.8213e-16)
(0.468263 -1.10062 2.69622e-16)
(0.468079 -1.19783 -5.6286e-16)
(0.464742 -1.30655 -8.32554e-17)
(0.459594 -1.44458 1.02052e-15)
(0.466638 -1.65873 -9.28348e-16)
(0.461309 -1.88329 -4.91064e-17)
(0.440325 -2.1123 7.89698e-16)
(0.397619 -2.34413 5.33679e-16)
(0.327536 -2.57503 1.86786e-16)
(0.226803 -2.80087 -4.78665e-16)
(0.0929305 -3.01537 -1.26937e-15)
(-0.0768553 -3.21259 7.97477e-16)
(-0.286412 -3.38417 -3.23352e-16)
(-0.534415 -3.52189 5.80727e-16)
(-0.876182 -3.82502 8.75634e-16)
(-1.22965 -4.02358 -1.3784e-15)
(-1.61754 -4.168 -1.86416e-17)
(-2.02773 -4.24723 7.0371e-16)
(-2.44718 -4.25361 -4.01873e-16)
(-2.86237 -4.18213 7.67455e-18)
(-3.25796 -4.03427 5.4135e-16)
(-3.62053 -3.81322 -8.8409e-16)
(-3.93741 -3.52868 -2.63498e-16)
(-4.19881 -3.19013 7.43389e-16)
(-4.39827 -2.8122 5.05929e-16)
(-4.53189 -2.40708 -2.82122e-16)
(-4.58499 -1.98518 -4.27313e-16)
(-4.58204 -1.56384 1.89756e-16)
(-4.52332 -1.15729 1.14361e-16)
(-4.41523 -0.77306 -2.54455e-16)
(-4.22121 -0.4174 2.28268e-16)
(-4.02422 -0.0869481 -1.6196e-16)
(-3.78227 0.196179 3.53289e-17)
(-3.54343 0.440425 8.77769e-17)
(0.343475 -0.536239 -1.2105e-17)
(0.361256 -0.609535 5.45628e-18)
(0.347244 -0.635956 4.98398e-17)
(0.346092 -0.691533 7.27683e-18)
(0.344385 -0.750452 -9.97521e-17)
(0.341962 -0.811889 1.26711e-16)
(0.338362 -0.877805 -1.40736e-16)
(0.332909 -0.949551 3.29102e-16)
(0.325296 -1.02812 2.61036e-16)
(0.314663 -1.11496 -1.07276e-15)
(0.300841 -1.21233 1.15371e-15)
(0.288117 -1.36818 6.31782e-16)
(0.269615 -1.54704 -8.09941e-16)
(0.239405 -1.72865 -1.26126e-15)
(0.193811 -1.90859 3.33549e-16)
(0.128404 -2.08425 5.28704e-16)
(0.0405951 -2.25179 -6.55666e-16)
(-0.0704798 -2.40637 7.27884e-16)
(-0.205109 -2.54272 -1.81876e-16)