/*--------------------------------*- C++ -*----------------------------------*\
| =========                 |                                                 |
| \\      /  F ield         | OpenFOAM: The Open Source CFD Toolbox           |
|  \\    /   O peration     | Version:  2312                                  |
|   \\  /    A nd           | Website:  www.openfoam.com                      |
|    \\/     M anipulation  |                                                 |
\*---------------------------------------------------------------------------*/
FoamFile
{
    version     2.0;
    format      ascii;
    arch        "LSB;label=32;scalar=64";
    class       volScalarField;
    location    "150";
    object      nuTilda;
}
// * * * * * * * * * * * * * * * * * * * * * * * * * * * * * * * * * * * * * //

dimensions      [0 2 -1 0 0 0 0];

internalField   nonuniform List<scalar> 
11040
(
9.24641e-05
8.10317e-05
8.68763e-05
0.000235347
0.000227208
0.000204427
0.000186445
0.000178083
0.000175023
0.000176875
0.000182725
0.000190707
0.00020065
0.000213148
0.000227862
0.000244926
0.000264123
0.000285964
0.000310467
0.00033744
0.000366865
0.000397237
0.000427233
0.000457011
0.000486228
0.000515591
0.000543634
0.000570909
0.000596496
0.000622512
0.0006504
0.000675378
0.000694368
0.000704826
0.000703479
0.000690324
0.000663416
0.000611055
0.000498583
0.000413298
0.000633828
5.47015e-05
8.83444e-05
0.000136172
0.000569944
0.00065667
0.000592501
0.000524015
0.000495444
0.000485342
0.000497696
0.000526943
0.000554761
0.000576952
0.000593672
0.000605141
0.000613655
0.000619356
0.000623663
0.000627156
0.000631591
0.000638352
0.000647407
0.000656753
0.000665814
0.000673189
0.000678562
0.000681733
0.000678648
0.000669816
0.000664289
0.000707249
0.000767512
0.000839246
0.00092639
0.00102968
0.00114799
0.00128818
0.00146028
0.00168486
0.00207074
0.00305825
3.72684e-05
5.8692e-05
7.91212e-05
0.000383489
0.00101397
0.0012384
0.0011051
0.00103365
0.000990976
0.000967688
0.000970451
0.000979808
0.000985521
0.000990152
0.000989438
0.000988279
0.000986434
0.000985734
0.000986838
0.000992531
0.00100573
0.00102384
0.00104035
0.00105772
0.00108229
0.00112013
0.00117216
0.00124318
0.00133171
0.00144448
0.00158081
0.00174178
0.00192308
0.00212666
0.0023508
0.00260063
0.00289146
0.00325224
0.00373282
0.00452367
0.00635798
3.89313e-05
4.40388e-05
4.06781e-05
0.000138985
0.000637151
0.0014704
0.00184511
0.00178567
0.00171145
0.00165444
0.00166241
0.00168909
0.00171142
0.00173707
0.00175311
0.00176714
0.00177864
0.00178777
0.00179688
0.00181395
0.00184414
0.00188385
0.00191997
0.00195647
0.00200349
0.0020703
0.00216129
0.00228733
0.00244678
0.00264556
0.00287903
0.00314925
0.00344992
0.00378202
0.00414207
0.0045346
0.00498181
0.00554482
0.00631928
0.00759128
0.0102477
4.03278e-05
4.11041e-05
3.75353e-05
3.06941e-05
0.000204447
0.000850238
0.00189959
0.00264394
0.00278665
0.00264886
0.00261862
0.00266845
0.00273076
0.00280965
0.00287473
0.00292809
0.00297291
0.0030032
0.0030235
0.00305383
0.00310108
0.00316372
0.00322195
0.00327971
0.00334944
0.0034429
0.00357174
0.00375494
0.00399581
0.00429754
0.0046515
0.005054
0.00549387
0.00596822
0.00647015
0.00699901
0.00757784
0.00830754
0.00935621
0.0111153
0.0144917
4.04277e-05
4.00135e-05
4.19115e-05
2.59709e-05
2.20707e-05
0.000237324
0.000975422
0.00228588
0.0034891
0.00389092
0.00402704
0.00407311
0.00413703
0.00424525
0.00436863
0.00449942
0.0046186
0.0047023
0.00474954
0.00480453
0.00487338
0.00495929
0.00504124
0.00512629
0.00523111
0.00536613
0.00554291
0.00578677
0.0061169
0.00653754
0.00703316
0.00758667
0.00817553
0.00878938
0.00941676
0.0100461
0.0106874
0.0114673
0.0126783
0.0148504
0.0188723
4.03054e-05
4.00706e-05
4.10361e-05
4.02e-05
1.50541e-05
7.0717e-06
0.000214018
0.000986013
0.00249795
0.00422298
0.00510783
0.00550918
0.00570834
0.00589876
0.00608372
0.0062692
0.0064381
0.00658834
0.00672053
0.00685451
0.00699021
0.00713704
0.0072836
0.00744463
0.00764365
0.00789342
0.00819953
0.00857115
0.00901933
0.00956765
0.0102167
0.0109322
0.0116656
0.0123917
0.0130953
0.0137529
0.0143358
0.0149566
0.0160536
0.018347
0.022675
4.02252e-05
4.02818e-05
4.01229e-05
4.14202e-05
3.87964e-05
7.12557e-06
4.94966e-05
0.000154165
0.000873752
0.00245266
0.00461106
0.00631304
0.00704668
0.00749555
0.00782301
0.00812802
0.00840452
0.00865491
0.00887845
0.00909808
0.00933447
0.00959609
0.00985676
0.0101489
0.0105028
0.0109379
0.0114631
0.0120842
0.0127915
0.0135968
0.0144723
0.0153708
0.0162318
0.01701
0.0176914
0.018258
0.0186122
0.0187909
0.0192684
0.0210403
0.0246992
4.02088e-05
4.02026e-05
4.02902e-05
3.98693e-05
4.30945e-05
3.72861e-05
8.67662e-06
3.22496e-05
8.33441e-05
0.000646262
0.00210342
0.00448611
0.00706025
0.00861143
0.00938516
0.00993128
0.0103955
0.010818
0.0111976
0.0115603
0.0119384
0.0123512
0.01276
0.013205
0.0137281
0.0143541
0.0150965
0.0159632
0.0169531
0.0180566
0.0192385
0.0204424
0.021592
0.0225974
0.0233479
0.0237316
0.0236322
0.0230416
0.0223378
0.0227783
0.0246897
4.01843e-05
4.01899e-05
4.02336e-05
4.01096e-05
4.02966e-05
4.30733e-05
3.49843e-05
7.55337e-06
1.36861e-05
0.000131166
0.000355938
0.00152805
0.00381569
0.00692878
0.0097671
0.0113127
0.0122152
0.0129153
0.0135356
0.0141271
0.0147175
0.0153369
0.0159318
0.0165513
0.0172486
0.0180523
0.0189801
0.0200438
0.0212405
0.0225494
0.0239215
0.02528
0.0265179
0.0275065
0.0281026
0.0281868
0.0276947
0.0266605
0.0253081
0.0240719
0.0235881
4.01652e-05
4.0177e-05
4.01772e-05
4.02379e-05
4.00146e-05
4.07124e-05
4.22846e-05
3.59921e-05
1.51553e-05
4.33003e-06
6.34487e-05
0.000138049
0.000878081
0.00272877
0.00584155
0.00964717
0.0128286
0.0145847
0.0156858
0.0166095
0.0174848
0.0183876
0.0192258
0.0200544
0.0209343
0.0218946
0.022959
0.0241458
0.0254552
0.0268621
0.028309
0.0297032
0.0309152
0.0317885
0.0321516
0.0318631
0.0308505
0.0291023
0.0267591
0.0242103
0.0221134
4.01495e-05
4.01578e-05
4.01677e-05
4.01768e-05
4.01898e-05
4.01e-05
4.05971e-05
4.1751e-05
3.90035e-05
2.14203e-05
6.09663e-06
1.68752e-05
0.000155092
0.000344538
0.00155917
0.00409935
0.00801162
0.0125608
0.0163515
0.0185936
0.0200321
0.0213089
0.0224391
0.0235232
0.0246226
0.0257442
0.0269109
0.0281523
0.0294818
0.0308815
0.0323004
0.033646
0.0347854
0.0355493
0.035746
0.0352074
0.033845
0.0316084
0.0285491
0.0249025
0.0210969
4.01352e-05
4.01424e-05
4.01509e-05
4.01587e-05
4.01704e-05
4.01702e-05
4.01383e-05
4.03982e-05
4.15959e-05
4.01363e-05
3.04177e-05
5.61049e-07
1.53317e-06
4.31516e-05
1.76424e-05
0.000584333
0.00222074
0.0053602
0.00998721
0.0153465
0.0201434
0.0233485
0.0252794
0.0267645
0.0281475
0.0294581
0.0307145
0.0319645
0.0332366
0.0345315
0.0358164
0.0370219
0.0380366
0.0387042
0.038824
0.0381959
0.0366878
0.0342445
0.0309224
0.0269379
0.0225676
4.01222e-05
4.01281e-05
4.01352e-05
4.01427e-05
4.01499e-05
4.01592e-05
4.0166e-05
4.01323e-05
4.03182e-05
4.09934e-05
4.14641e-05
3.62568e-05
1.47335e-05
5.03967e-06
2.24366e-06
7.47684e-05
5.69098e-05
0.000759275
0.00262228
0.00605343
0.0110798
0.0168098
0.0221671
0.0265288
0.0297316
0.0320083
0.033706
0.0350982
0.0363327
0.0374683
0.0385042
0.039405
0.0400975
0.0404738
0.0403558
0.0394855
0.0375863
0.0347321
0.0310857
0.0269558
0.0226828
4.01101e-05
4.01147e-05
4.01208e-05
4.01272e-05
4.01338e-05
4.01407e-05
4.01496e-05
4.01547e-05
4.01473e-05
4.02001e-05
4.05655e-05
4.2069e-05
3.92447e-05
3.03321e-05
2.90826e-06
2.5464e-06
6.10534e-06
9.32498e-05
6.78702e-05
0.000749104
0.00246195
0.00538493
0.00930658
0.0138084
0.0184045
0.0226852
0.0263911
0.0294194
0.0317779
0.0335301
0.0347482
0.0354871
0.0357731
0.0356163
0.0348466
0.0331336
0.0305374
0.0273203
0.023719
0.0200181
0.0165342
4.00989e-05
4.01024e-05
4.01074e-05
4.0113e-05
4.01188e-05
4.01251e-05
4.01319e-05
4.01399e-05
4.01478e-05
4.01498e-05
4.01129e-05
4.0448e-05
4.12187e-05
4.15885e-05
3.7061e-05
2.3412e-05
6.77074e-06
1.84395e-06
6.97561e-06
7.87766e-05
0.000320095
0.00035916
0.00124444
0.00267999
0.00461015
0.00683565
0.0091446
0.0113363
0.0132518
0.0147822
0.0158629
0.016463
0.0165759
0.0162124
0.0153879
0.0141391
0.0125711
0.0108363
0.00905081
0.00734058
0.00583374
4.0089e-05
4.00914e-05
4.00955e-05
4.01002e-05
4.01053e-05
4.01107e-05
4.01166e-05
4.01231e-05
4.01304e-05
4.01414e-05
4.01397e-05
4.01217e-05
4.02412e-05
4.06448e-05
4.14858e-05
4.08484e-05
3.59061e-05
2.15059e-05
6.54198e-06
2.0918e-06
1.04185e-07
3.43679e-05
0.000117233
0.000275153
0.000159944
0.000427691
0.000833239
0.00129444
0.00175681
0.00215242
0.00243332
0.00257564
0.00257319
0.00243379
0.0021794
0.00187012
0.00154147
0.00122476
0.000936039
0.000689229
0.000492528
4.00812e-05
4.00829e-05
4.00863e-05
4.00902e-05
4.00944e-05
4.0099e-05
4.01039e-05
4.01094e-05
4.01154e-05
4.01228e-05
4.01321e-05
4.01351e-05
4.01341e-05
4.01343e-05
4.03465e-05
4.08542e-05
4.1492e-05
4.06646e-05
3.54568e-05
2.42441e-05
1.1846e-06
2.62084e-06
1.45126e-06
3.89673e-08
1.34799e-05
3.54226e-05
6.78179e-05
0.000103534
0.000138091
0.00016627
0.000186667
1.08585e-05
3.63343e-05
5.27817e-05
7.41001e-05
5.18712e-05
2.79068e-05
2.55384e-05
2.34877e-05
1.9401e-05
1.29353e-05
4.00752e-05
4.00763e-05
4.0079e-05
4.00822e-05
4.00857e-05
4.00895e-05
4.00938e-05
4.00984e-05
4.01035e-05
4.01094e-05
4.01165e-05
4.01246e-05
4.01331e-05
4.01339e-05
4.01312e-05
4.01626e-05
4.04132e-05
4.09334e-05
4.14773e-05
4.07764e-05
3.65589e-05
2.88529e-05
1.75494e-05
4.79935e-07
2.62223e-06
2.11563e-06
1.69326e-06
1.3018e-06
9.6746e-07
7.09786e-07
5.37258e-07
1.22479e-06
2.98449e-06
4.12084e-06
5.58392e-06
4.12255e-06
2.59387e-06
2.53037e-06
2.46036e-06
2.27129e-06
1.92194e-06
4.007e-05
4.00705e-05
4.00725e-05
4.00751e-05
4.00779e-05
4.00811e-05
4.00846e-05
4.00886e-05
4.0093e-05
4.00979e-05
4.01038e-05
4.01106e-05
4.01187e-05
4.01282e-05
4.01351e-05
4.0132e-05
4.013e-05
4.01874e-05
4.04519e-05
4.09113e-05
4.14327e-05
4.11203e-05
3.96808e-05
3.66435e-05
3.24917e-05
2.75865e-05
2.252e-05
1.76573e-05
1.33809e-05
1.00092e-05
7.72368e-06
6.52389e-06
6.33386e-06
6.97943e-06
8.26791e-06
1.03136e-05
1.23271e-05
1.42681e-05
1.61356e-05
1.79617e-05
1.95944e-05
4.00658e-05
4.00656e-05
4.00669e-05
4.00688e-05
4.0071e-05
4.00735e-05
4.00765e-05
4.00798e-05
4.00836e-05
4.00879e-05
4.00929e-05
4.00987e-05
4.01054e-05
4.01133e-05
4.01225e-05
4.01318e-05
4.01355e-05
4.01319e-05
4.01392e-05
4.0205e-05
4.03954e-05
4.06858e-05
4.10314e-05
4.13235e-05
4.13525e-05
4.10252e-05
4.03725e-05
3.951e-05
3.85689e-05
3.76756e-05
3.69189e-05
3.63508e-05
3.5999e-05
3.58507e-05
3.58893e-05
3.60871e-05
3.63994e-05
3.67651e-05
3.71761e-05
3.76019e-05
3.80094e-05
4.00623e-05
4.00614e-05
4.0062e-05
4.00632e-05
4.00648e-05
4.00668e-05
4.00693e-05
4.00721e-05
4.00755e-05
4.00792e-05
4.00834e-05
4.00884e-05
4.00942e-05
4.01009e-05
4.01085e-05
4.01172e-05
4.01267e-05
4.01348e-05
4.01393e-05
4.01418e-05
4.01515e-05
4.01829e-05
4.02605e-05
4.03978e-05
4.0585e-05
4.07928e-05
4.09916e-05
4.11604e-05
4.12915e-05
4.13848e-05
4.1445e-05
4.14797e-05
4.14965e-05
4.15026e-05
4.15048e-05
4.15081e-05
4.15134e-05
4.15209e-05
4.15305e-05
4.15398e-05
4.1551e-05
4.00594e-05
4.00578e-05
4.00576e-05
4.00582e-05
4.00593e-05
4.00609e-05
4.00629e-05
4.00654e-05
4.00683e-05
4.00716e-05
4.00753e-05
4.00796e-05
4.00846e-05
4.00904e-05
4.0097e-05
4.01043e-05
4.01126e-05
4.01216e-05
4.0131e-05
4.01402e-05
4.01478e-05
4.01528e-05
4.01578e-05
4.01684e-05
4.01894e-05
4.02243e-05
4.0273e-05
4.03326e-05
4.03983e-05
4.04651e-05
4.0529e-05
4.05868e-05
4.06362e-05
4.06771e-05
4.07095e-05
4.07341e-05
4.07518e-05
4.07656e-05
4.07753e-05
4.0782e-05
4.07872e-05
4.0057e-05
4.00546e-05
4.00539e-05
4.0054e-05
4.00547e-05
4.00559e-05
4.00576e-05
4.00597e-05
4.00622e-05
4.00651e-05
4.00683e-05
4.00721e-05
4.00764e-05
4.00815e-05
4.00872e-05
4.00936e-05
4.01007e-05
4.01085e-05
4.0117e-05
4.01263e-05
4.01362e-05
4.01463e-05
4.01557e-05
4.01642e-05
4.0172e-05
4.01799e-05
4.01885e-05
4.01987e-05
4.02107e-05
4.02246e-05
4.02401e-05
4.02568e-05
4.02742e-05
4.02918e-05
4.03092e-05
4.0326e-05
4.03421e-05
4.03577e-05
4.03728e-05
4.0387e-05
4.04014e-05
4.00551e-05
4.0052e-05
4.00508e-05
4.00505e-05
4.00509e-05
4.00519e-05
4.00533e-05
4.00551e-05
4.00572e-05
4.00598e-05
4.00626e-05
4.00658e-05
4.00696e-05
4.0074e-05
4.0079e-05
4.00846e-05
4.00908e-05
4.00976e-05
4.0105e-05
4.01131e-05
4.01217e-05
4.01312e-05
4.0141e-05
4.01513e-05
4.01617e-05
4.01722e-05
4.01827e-05
4.01932e-05
4.02036e-05
4.02143e-05
4.02251e-05
4.02363e-05
4.02478e-05
4.02596e-05
4.02717e-05
4.0284e-05
4.02965e-05
4.0309e-05
4.03218e-05
4.0334e-05
4.03472e-05
4.00536e-05
4.005e-05
4.00485e-05
4.00481e-05
4.00483e-05
4.00491e-05
4.00502e-05
4.00517e-05
4.00535e-05
4.00557e-05
4.00582e-05
4.0061e-05
4.00642e-05
4.00679e-05
4.00722e-05
4.00771e-05
4.00825e-05
4.00885e-05
4.0095e-05
4.0102e-05
4.01096e-05
4.01177e-05
4.01263e-05
4.01353e-05
4.01448e-05
4.01546e-05
4.01648e-05
4.01752e-05
4.01857e-05
4.01964e-05
4.02072e-05
4.02181e-05
4.0229e-05
4.02399e-05
4.02509e-05
4.02619e-05
4.02728e-05
4.02837e-05
4.02947e-05
4.03051e-05
4.03164e-05
4.00526e-05
4.00489e-05
4.00473e-05
4.00468e-05
4.00469e-05
4.00475e-05
4.00483e-05
4.00495e-05
4.0051e-05
4.00528e-05
4.00548e-05
4.00572e-05
4.006e-05
4.00632e-05
4.00669e-05
4.00711e-05
4.00758e-05
4.0081e-05
4.00867e-05
4.00928e-05
4.00994e-05
4.01065e-05
4.0114e-05
4.01219e-05
4.01301e-05
4.01386e-05
4.01475e-05
4.01566e-05
4.01658e-05
4.01753e-05
4.01848e-05
4.01945e-05
4.02042e-05
4.02139e-05
4.02236e-05
4.02333e-05
4.02429e-05
4.02524e-05
4.0262e-05
4.0271e-05
4.02808e-05
4.00524e-05
4.00489e-05
4.00473e-05
4.00467e-05
4.00466e-05
4.00468e-05
4.00473e-05
4.00481e-05
4.00492e-05
4.00506e-05
4.00523e-05
4.00543e-05
4.00566e-05
4.00594e-05
4.00625e-05
4.00662e-05
4.00703e-05
4.00748e-05
4.00798e-05
4.00851e-05
4.00909e-05
4.00971e-05
4.01036e-05
4.01105e-05
4.01178e-05
4.01252e-05
4.0133e-05
4.01409e-05
4.0149e-05
4.01573e-05
4.01656e-05
4.01741e-05
4.01826e-05
4.01911e-05
4.01996e-05
4.0208e-05
4.02165e-05
4.02248e-05
4.02332e-05
4.0241e-05
4.02497e-05
4.00534e-05
4.00501e-05
4.00484e-05
4.00474e-05
4.00468e-05
4.00465e-05
4.00466e-05
4.00469e-05
4.00476e-05
4.00486e-05
4.005e-05
4.00516e-05
4.00536e-05
4.0056e-05
4.00587e-05
4.00619e-05
4.00655e-05
4.00695e-05
4.00738e-05
4.00785e-05
4.00836e-05
4.00891e-05
4.00949e-05
4.01009e-05
4.01073e-05
4.01138e-05
4.01206e-05
4.01276e-05
4.01347e-05
4.0142e-05
4.01493e-05
4.01567e-05
4.01642e-05
4.01716e-05
4.01791e-05
4.01865e-05
4.01939e-05
4.02012e-05
4.02086e-05
4.02153e-05
4.02229e-05
4.00555e-05
4.00521e-05
4.005e-05
4.00484e-05
4.00472e-05
4.00464e-05
4.0046e-05
4.00459e-05
4.00462e-05
4.00468e-05
4.00478e-05
4.00491e-05
4.00507e-05
4.00527e-05
4.0055e-05
4.00578e-05
4.0061e-05
4.00645e-05
4.00684e-05
4.00726e-05
4.00771e-05
4.0082e-05
4.00871e-05
4.00925e-05
4.00981e-05
4.01039e-05
4.01099e-05
4.0116e-05
4.01223e-05
4.01287e-05
4.01351e-05
4.01417e-05
4.01482e-05
4.01547e-05
4.01613e-05
4.01678e-05
4.01742e-05
4.01805e-05
4.01869e-05
4.01927e-05
4.01994e-05
4.0058e-05
4.00545e-05
4.00518e-05
4.00496e-05
4.00478e-05
4.00465e-05
4.00457e-05
4.00452e-05
4.00451e-05
4.00453e-05
4.00459e-05
4.00468e-05
4.0048e-05
4.00496e-05
4.00515e-05
4.00539e-05
4.00566e-05
4.00597e-05
4.00632e-05
4.00669e-05
4.00709e-05
4.00753e-05
4.00799e-05
4.00847e-05
4.00897e-05
4.00948e-05
4.01002e-05
4.01056e-05
4.01112e-05
4.01168e-05
4.01225e-05
4.01282e-05
4.0134e-05
4.01397e-05
4.01454e-05
4.0151e-05
4.01566e-05
4.01621e-05
4.01676e-05
4.01725e-05
4.01783e-05
4.00604e-05
4.00571e-05
4.00539e-05
4.00512e-05
4.0049e-05
4.00473e-05
4.0046e-05
4.00452e-05
4.00447e-05
4.00445e-05
4.00446e-05
4.00451e-05
4.00459e-05
4.00471e-05
4.00486e-05
4.00504e-05
4.00527e-05
4.00553e-05
4.00583e-05
4.00615e-05
4.00651e-05
4.00689e-05
4.0073e-05
4.00773e-05
4.00817e-05
4.00864e-05
4.00911e-05
4.0096e-05
4.01009e-05
4.01059e-05
4.01109e-05
4.0116e-05
4.0121e-05
4.0126e-05
4.0131e-05
4.01359e-05
4.01407e-05
4.01454e-05
4.01501e-05
4.01542e-05
4.01591e-05
4.00625e-05
4.00594e-05
4.00563e-05
4.00534e-05
4.0051e-05
4.0049e-05
4.00473e-05
4.00461e-05
4.00452e-05
4.00446e-05
4.00443e-05
4.00443e-05
4.00447e-05
4.00454e-05
4.00464e-05
4.00477e-05
4.00495e-05
4.00516e-05
4.0054e-05
4.00567e-05
4.00597e-05
4.0063e-05
4.00666e-05
4.00703e-05
4.00743e-05
4.00784e-05
4.00826e-05
4.00869e-05
4.00912e-05
4.00956e-05
4.01001e-05
4.01045e-05
4.01089e-05
4.01133e-05
4.01175e-05
4.01218e-05
4.01259e-05
4.01298e-05
4.01338e-05
4.01371e-05
4.01412e-05
4.00639e-05
4.0061e-05
4.00582e-05
4.00558e-05
4.00535e-05
4.00514e-05
4.00496e-05
4.0048e-05
4.00467e-05
4.00457e-05
4.0045e-05
4.00445e-05
4.00444e-05
4.00446e-05
4.00451e-05
4.0046e-05
4.00471e-05
4.00487e-05
4.00506e-05
4.00527e-05
4.00552e-05
4.00579e-05
4.00609e-05
4.00641e-05
4.00675e-05
4.0071e-05
4.00746e-05
4.00784e-05
4.00822e-05
4.0086e-05
4.00898e-05
4.00937e-05
4.00974e-05
4.01012e-05
4.01048e-05
4.01084e-05
4.01118e-05
4.0115e-05
4.01183e-05
4.01209e-05
4.01243e-05
4.00647e-05
4.0062e-05
4.00595e-05
4.00575e-05
4.00557e-05
4.00542e-05
4.00525e-05
4.00509e-05
4.00492e-05
4.00478e-05
4.00467e-05
4.00458e-05
4.00452e-05
4.00449e-05
4.00449e-05
4.00452e-05
4.00458e-05
4.00468e-05
4.00481e-05
4.00497e-05
4.00515e-05
4.00537e-05
4.00561e-05
4.00587e-05
4.00615e-05
4.00644e-05
4.00674e-05
4.00706e-05
4.00738e-05
4.0077e-05
4.00802e-05
4.00834e-05
4.00866e-05
4.00897e-05
4.00927e-05
4.00956e-05
4.00984e-05
4.01009e-05
4.01034e-05
4.01053e-05
4.01079e-05
4.00648e-05
4.00624e-05
4.00603e-05
4.00586e-05
4.00573e-05
4.00561e-05
4.00551e-05
4.00539e-05
4.00526e-05
4.0051e-05
4.00494e-05
4.0048e-05
4.00469e-05
4.00461e-05
4.00456e-05
4.00454e-05
4.00455e-05
4.00459e-05
4.00466e-05
4.00476e-05
4.00489e-05
4.00504e-05
4.00522e-05
4.00542e-05
4.00564e-05
4.00587e-05
4.00611e-05
4.00636e-05
4.00662e-05
4.00688e-05
4.00714e-05
4.0074e-05
4.00765e-05
4.0079e-05
4.00813e-05
4.00835e-05
4.00856e-05
4.00874e-05
4.00892e-05
4.00904e-05
4.00923e-05
4.00642e-05
4.00621e-05
4.00604e-05
4.00592e-05
4.00583e-05
4.00575e-05
4.00568e-05
4.00561e-05
4.00552e-05
4.00541e-05
4.00528e-05
4.00512e-05
4.00496e-05
4.00483e-05
4.00473e-05
4.00465e-05
4.00461e-05
4.00459e-05
4.00461e-05
4.00465e-05
4.00472e-05
4.00481e-05
4.00493e-05
4.00507e-05
4.00522e-05
4.00539e-05
4.00558e-05
4.00576e-05
4.00596e-05
4.00616e-05
4.00635e-05
4.00654e-05
4.00673e-05
4.00691e-05
4.00707e-05
4.00723e-05
4.00736e-05
4.00748e-05
4.00758e-05
4.00763e-05
4.00774e-05
4.0063e-05
4.00612e-05
4.00599e-05
4.00591e-05
4.00586e-05
4.00582e-05
4.00578e-05
4.00574e-05
4.00568e-05
4.00561e-05
4.00553e-05
4.00542e-05
4.00528e-05
4.00512e-05
4.00497e-05
4.00484e-05
4.00474e-05
4.00468e-05
4.00464e-05
4.00462e-05
4.00464e-05
4.00467e-05
4.00473e-05
4.00481e-05
4.00491e-05
4.00501e-05
4.00513e-05
4.00526e-05
4.00539e-05
4.00552e-05
4.00566e-05
4.00578e-05
4.0059e-05
4.00601e-05
4.00611e-05
4.00619e-05
4.00626e-05
4.0063e-05
4.00633e-05
4.00631e-05
4.00635e-05
4.0061e-05
4.00596e-05
4.00587e-05
4.00582e-05
4.00581e-05
4.0058e-05
4.00579e-05
4.00577e-05
4.00574e-05
4.0057e-05
4.00564e-05
4.00557e-05
4.00548e-05
4.00537e-05
4.00523e-05
4.00507e-05
4.00493e-05
4.00481e-05
4.00473e-05
4.00466e-05
4.00462e-05
4.00461e-05
4.00461e-05
4.00463e-05
4.00467e-05
4.00472e-05
4.00478e-05
4.00484e-05
4.00491e-05
4.00498e-05
4.00505e-05
4.00511e-05
4.00516e-05
4.00521e-05
4.00524e-05
4.00525e-05
4.00525e-05
4.00522e-05
4.00517e-05
4.00509e-05
4.00503e-05
4.00583e-05
4.00573e-05
4.00567e-05
4.00566e-05
4.00566e-05
4.00566e-05
4.00567e-05
4.00567e-05
4.00566e-05
4.00564e-05
4.00562e-05
4.00557e-05
4.00552e-05
4.00544e-05
4.00535e-05
4.00524e-05
4.0051e-05
4.00495e-05
4.00482e-05
4.00472e-05
4.00464e-05
4.00458e-05
4.00453e-05
4.00451e-05
4.00449e-05
4.00449e-05
4.00449e-05
4.0045e-05
4.00451e-05
4.00452e-05
4.00452e-05
4.00452e-05
4.00451e-05
4.00449e-05
4.00445e-05
4.0044e-05
4.00432e-05
4.00423e-05
4.00411e-05
4.00399e-05
4.00385e-05
4.00549e-05
4.00542e-05
4.00539e-05
4.00539e-05
4.00539e-05
4.0054e-05
4.00541e-05
4.00542e-05
4.00542e-05
4.00543e-05
4.00542e-05
4.00541e-05
4.00538e-05
4.00535e-05
4.00529e-05
4.00522e-05
4.00513e-05
4.00502e-05
4.00489e-05
4.00476e-05
4.00465e-05
4.00455e-05
4.00447e-05
4.0044e-05
4.00435e-05
4.0043e-05
4.00425e-05
4.00421e-05
4.00417e-05
4.00413e-05
4.00408e-05
4.00403e-05
4.00397e-05
4.00389e-05
4.00381e-05
4.00372e-05
4.00363e-05
4.00355e-05
4.00349e-05
4.00348e-05
4.00348e-05
4.00508e-05
4.00503e-05
4.00502e-05
4.00501e-05
4.00501e-05
4.00501e-05
4.00501e-05
4.00502e-05
4.00503e-05
4.00504e-05
4.00505e-05
4.00506e-05
4.00506e-05
4.00505e-05
4.00504e-05
4.005e-05
4.00496e-05
4.00489e-05
4.00481e-05
4.00472e-05
4.00462e-05
4.00451e-05
4.00441e-05
4.00432e-05
4.00424e-05
4.00416e-05
4.00409e-05
4.00401e-05
4.00394e-05
4.00388e-05
4.00381e-05
4.00375e-05
4.00369e-05
4.00366e-05
4.00366e-05
4.00368e-05
4.00374e-05
4.00383e-05
4.00396e-05
4.00412e-05
4.0043e-05
4.00457e-05
4.00455e-05
4.00454e-05
4.00452e-05
4.0045e-05
4.00448e-05
4.00447e-05
4.00447e-05
4.00447e-05
4.00448e-05
4.0045e-05
4.00452e-05
4.00454e-05
4.00456e-05
4.00456e-05
4.00457e-05
4.00455e-05
4.00453e-05
4.0045e-05
4.00446e-05
4.00441e-05
4.00435e-05
4.00429e-05
4.00423e-05
4.00417e-05
4.00412e-05
4.00407e-05
4.00402e-05
4.00399e-05
4.00398e-05
4.00398e-05
4.00399e-05
4.00403e-05
4.00409e-05
4.00418e-05
4.00429e-05
4.00444e-05
4.00461e-05
4.00482e-05
4.00504e-05
4.00529e-05
4.00399e-05
4.00397e-05
4.00395e-05
4.00391e-05
4.00387e-05
4.00383e-05
4.0038e-05
4.00378e-05
4.00377e-05
4.00377e-05
4.00378e-05
4.00379e-05
4.00381e-05
4.00383e-05
4.00386e-05
4.00388e-05
4.0039e-05
4.00392e-05
4.00393e-05
4.00394e-05
4.00394e-05
4.00394e-05
4.00394e-05
4.00395e-05
4.00395e-05
4.00397e-05
4.00399e-05
4.00402e-05
4.00406e-05
4.00412e-05
4.0042e-05
4.00429e-05
4.00441e-05
4.00455e-05
4.00471e-05
4.0049e-05
4.00512e-05
4.00536e-05
4.00565e-05
4.00594e-05
4.00627e-05
4.0033e-05
4.00329e-05
4.00324e-05
4.00319e-05
4.00313e-05
4.00308e-05
4.00303e-05
4.00298e-05
4.00294e-05
4.0029e-05
4.00288e-05
4.00286e-05
4.00286e-05
4.00287e-05
4.00288e-05
4.00291e-05
4.00295e-05
4.00298e-05
4.00302e-05
4.00305e-05
4.00309e-05
4.00313e-05
4.00318e-05
4.00323e-05
4.00329e-05
4.00335e-05
4.00343e-05
4.00352e-05
4.00362e-05
4.00374e-05
4.00388e-05
4.00403e-05
4.00421e-05
4.00441e-05
4.00463e-05
4.00487e-05
4.00515e-05
4.00544e-05
4.00577e-05
4.0061e-05
4.00647e-05
4.00251e-05
4.00249e-05
4.00244e-05
4.00238e-05
4.00232e-05
4.00225e-05
4.00217e-05
4.00209e-05
4.002e-05
4.00191e-05
4.00184e-05
4.00178e-05
4.00174e-05
4.00171e-05
4.0017e-05
4.00171e-05
4.00173e-05
4.00177e-05
4.00183e-05
4.0019e-05
4.00199e-05
4.00209e-05
4.00221e-05
4.00234e-05
4.00249e-05
4.00264e-05
4.00282e-05
4.003e-05
4.00321e-05
4.00343e-05
4.00366e-05
4.00392e-05
4.0042e-05
4.00449e-05
4.00482e-05
4.00516e-05
4.00553e-05
4.00591e-05
4.00634e-05
4.00676e-05
4.00723e-05
4.0016e-05
4.00158e-05
4.00154e-05
4.00149e-05
4.00144e-05
4.00137e-05
4.00128e-05
4.00117e-05
4.00102e-05
4.00087e-05
4.00077e-05
4.00071e-05
4.00071e-05
4.00074e-05
4.00081e-05
4.00087e-05
4.00093e-05
4.00096e-05
4.00098e-05
4.00099e-05
4.001e-05
4.00102e-05
4.00106e-05
4.00112e-05
4.00121e-05
4.00132e-05
4.00147e-05
4.00164e-05
4.00184e-05
4.00207e-05
4.00232e-05
4.00259e-05
4.00289e-05
4.00321e-05
4.00355e-05
4.00392e-05
4.0043e-05
4.0047e-05
4.00513e-05
4.00556e-05
4.00601e-05
4.00056e-05
4.00055e-05
4.00054e-05
4.00053e-05
4.00051e-05
4.00048e-05
4.00043e-05
4.00037e-05
4.00023e-05
4.00017e-05
4.00025e-05
4.00044e-05
4.00073e-05
4.0011e-05
4.00155e-05
4.00209e-05
4.00259e-05
4.00301e-05
4.00335e-05
4.00358e-05
4.00371e-05
4.00374e-05
4.0037e-05
4.00355e-05
4.0033e-05
4.00307e-05
4.00293e-05
4.00287e-05
4.00289e-05
4.00299e-05
4.00316e-05
4.00339e-05
4.00369e-05
4.00404e-05
4.00445e-05
4.00491e-05
4.00541e-05
4.00595e-05
4.00655e-05
4.00714e-05
4.00781e-05
0.00610725
0.0076997
0.00633362
0.00284163
0.00033404
2.83607e-05
1.26593e-05
2.32736e-05
9.55524e-05
0.00380713
0.0146348
0.0233381
0.0295755
0.0341806
0.0375123
0.0397886
0.0411737
0.0417927
0.0417508
0.0411026
0.0398869
0.0381324
0.0358749
0.0331545
0.0300354
0.0265763
0.0228885
0.0190644
0.0152274
0.0115218
0.00810391
0.00509714
0.00260738
0.000855318
7.47152e-05
1.1672e-06
1.7798e-06
2.17086e-05
4.12875e-05
4.54622e-05
4.32973e-05
4.16194e-05
4.1205e-05
4.11864e-05
4.11316e-05
4.10148e-05
4.0889e-05
4.07838e-05
4.07124e-05
4.06801e-05
4.067e-05
4.0667e-05
4.06637e-05
4.06569e-05
4.06456e-05
4.06296e-05
4.06098e-05
4.05872e-05
4.05629e-05
4.05377e-05
4.05125e-05
4.04881e-05
4.04651e-05
4.04441e-05
4.04254e-05
4.04091e-05
4.03952e-05
4.03834e-05
4.03733e-05
4.03641e-05
4.03554e-05
4.03467e-05
4.03381e-05
4.03222e-05
0.0103094
0.0120523
0.0107104
0.00680853
0.00207752
9.13389e-05
5.92286e-06
5.55878e-06
0.000155646
0.00535182
0.017083
0.0261045
0.0324035
0.0370551
0.0404868
0.0429232
0.0445126
0.0453629
0.0455691
0.0451702
0.0441974
0.0426695
0.0406113
0.0380471
0.0350212
0.0315801
0.0278209
0.0238058
0.019635
0.0154237
0.0113311
0.00755768
0.00432401
0.00186556
0.00043459
4.78134e-05
2.99127e-08
1.80264e-06
3.20129e-05
4.45939e-05
4.45397e-05
4.23326e-05
4.13665e-05
4.11899e-05
4.11242e-05
4.10082e-05
4.08797e-05
4.07774e-05
4.07169e-05
4.06977e-05
4.06952e-05
4.06962e-05
4.06946e-05
4.0688e-05
4.06759e-05
4.06588e-05
4.06377e-05
4.06137e-05
4.0588e-05
4.05616e-05
4.05354e-05
4.05101e-05
4.04863e-05
4.04645e-05
4.04451e-05
4.04282e-05
4.04137e-05
4.04012e-05
4.03904e-05
4.03805e-05
4.03711e-05
4.03615e-05
4.03522e-05
4.03346e-05
0.0143533
0.0164301
0.0153218
0.0116463
0.00590606
0.00123368
0.000171665
0
0.000209135
0.00617373
0.0186252
0.0281725
0.0347249
0.0395932
0.0432969
0.0460597
0.0480072
0.0492291
0.049805
0.0497705
0.0491494
0.0479515
0.0461872
0.0438653
0.0410092
0.0376694
0.0339183
0.0297991
0.0253956
0.0207926
0.0161007
0.0114876
0.00722333
0.00368221
0.0012882
0.000183174
1.79115e-05
7.08688e-07
1.48826e-05
3.88169e-05
4.50769e-05
4.34141e-05
4.17465e-05
4.12233e-05
4.11018e-05
4.0994e-05
4.08726e-05
4.07784e-05
4.07306e-05
4.07215e-05
4.07248e-05
4.07287e-05
4.07279e-05
4.07209e-05
4.07077e-05
4.06892e-05
4.06665e-05
4.06409e-05
4.06139e-05
4.05862e-05
4.05589e-05
4.05326e-05
4.0508e-05
4.04855e-05
4.04654e-05
4.04479e-05
4.04327e-05
4.04195e-05
4.0408e-05
4.03974e-05
4.03872e-05
4.03767e-05
4.03666e-05
4.03473e-05
0.0181634
0.0207207
0.019987
0.0167756
0.011156
0.00452675
0.000647768
7.61035e-05
0.000249436
0.0063338
0.0193192
0.0295744
0.03657
0.0418129
0.0459566
0.0491649
0.0515668
0.0532474
0.0542765
0.0546903
0.0545084
0.0537346
0.0523677
0.0504031
0.0478462
0.0447114
0.0410433
0.0369078
0.0323763
0.0275254
0.022424
0.0171768
0.0119597
0.00710479
0.00320907
0.000889834
6.62262e-05
1.41476e-06
4.13554e-06
2.67527e-05
4.26369e-05
4.44933e-05
4.25244e-05
4.13926e-05
4.10836e-05
4.09707e-05
4.0867e-05
4.07865e-05
4.07516e-05
4.07503e-05
4.0758e-05
4.07637e-05
4.0763e-05
4.07551e-05
4.07404e-05
4.07202e-05
4.06958e-05
4.06687e-05
4.06401e-05
4.06112e-05
4.05828e-05
4.05556e-05
4.05302e-05
4.05069e-05
4.04862e-05
4.04679e-05
4.04521e-05
4.04383e-05
4.0426e-05
4.04146e-05
4.04035e-05
4.03921e-05
4.03812e-05
4.03601e-05
0.0218052
0.0247999
0.0245162
0.0219037
0.0169391
0.00992288
0.00325855
0.000257131
0.000280569
0.00587715
0.0191419
0.0302416
0.0378815
0.0436857
0.0483573
0.0520924
0.0550191
0.0572219
0.0587671
0.0596938
0.0600208
0.0597485
0.0588684
0.0573652
0.055229
0.0524512
0.0490476
0.0450437
0.0404781
0.0354982
0.0301402
0.0244921
0.0186445
0.0127531
0.00722803
0.00293599
0.000656202
2.41801e-07
2.13821e-06
3.8207e-07
3.22084e-05
4.38028e-05
4.36519e-05
4.19046e-05
4.11509e-05
4.09477e-05
4.08595e-05
4.07995e-05
4.07783e-05
4.07832e-05
4.07939e-05
4.08005e-05
4.07994e-05
4.07901e-05
4.07737e-05
4.07516e-05
4.07255e-05
4.06967e-05
4.06667e-05
4.06365e-05
4.06071e-05
4.05789e-05
4.05527e-05
4.05287e-05
4.05073e-05
4.04884e-05
4.04719e-05
4.04573e-05
4.04443e-05
4.04321e-05
4.04201e-05
4.04078e-05
4.0396e-05
4.03731e-05
0.0252071
0.02841
0.0286187
0.0267248
0.0226635
0.0163325
0.00857347
0.00229727
0.000553769
0.00489567
0.0180245
0.0300541
0.0385528
0.0450498
0.0503407
0.0546659
0.0581684
0.0609389
0.0630459
0.0645343
0.0654255
0.0657199
0.0654052
0.0644585
0.0628573
0.060577
0.0576093
0.0539504
0.0496072
0.0446462
0.039141
0.0332439
0.0270148
0.0205108
0.0138752
0.00761115
0.00287619
0.000547348
9.90598e-06
5.01359e-07
7.04514e-06
3.55839e-05
4.36191e-05
4.28043e-05
4.14778e-05
4.09812e-05
4.08541e-05
4.08136e-05
4.08081e-05
4.08192e-05
4.08319e-05
4.08387e-05
4.08366e-05
4.08257e-05
4.08073e-05
4.07833e-05
4.07553e-05
4.07249e-05
4.06934e-05
4.0662e-05
4.06315e-05
4.06025e-05
4.05755e-05
4.05509e-05
4.05288e-05
4.05093e-05
4.0492e-05
4.04768e-05
4.04629e-05
4.04499e-05
4.04371e-05
4.04238e-05
4.0411e-05
4.03863e-05
0.0279836
0.0311256
0.0318804
0.0307992
0.0278233
0.0227056
0.0155288
0.00733917
0.000949361
0.0035612
0.0160005
0.0288804
0.0384335
0.0457292
0.0517244
0.0566905
0.0608033
0.0641707
0.0668693
0.0689531
0.0704496
0.0713627
0.07168
0.0713745
0.0704141
0.0687619
0.0663902
0.0632725
0.0593895
0.0547502
0.0493841
0.0433596
0.0368872
0.0300105
0.0227792
0.0153226
0.00826191
0.00302607
0.000579296
0.00015599
2.91689e-06
1.40382e-05
3.69839e-05
4.2964e-05
4.21622e-05
4.12065e-05
4.08872e-05
4.08294e-05
4.08378e-05
4.08564e-05
4.08711e-05
4.08776e-05
4.08742e-05
4.08615e-05
4.08411e-05
4.0815e-05
4.07852e-05
4.07531e-05
4.07202e-05
4.06876e-05
4.06562e-05
4.06263e-05
4.05986e-05
4.05734e-05
4.05507e-05
4.05305e-05
4.05126e-05
4.04966e-05
4.04819e-05
4.04681e-05
4.04543e-05
4.044e-05
4.04263e-05
4.03996e-05
0.0293969
0.0323905
0.0336968
0.0335114
0.0317825
0.0281919
0.0225221
0.0146651
0.00553195
0.00352182
0.0134929
0.0267004
0.0373679
0.045534
0.0523208
0.0579641
0.0627038
0.0666798
0.0699832
0.0726795
0.0748053
0.0763719
0.0773716
0.0777765
0.0775483
0.0766414
0.0750125
0.0726163
0.0694114
0.0653681
0.0604736
0.0547314
0.04823
0.0410939
0.0334964
0.025455
0.0170928
0.00917598
0.00337673
0.000670024
4.21368e-06
1.28553e-05
1.48861e-05
3.68034e-05
4.22554e-05
4.172e-05
4.10626e-05
4.08717e-05
4.08664e-05
4.08921e-05
4.09102e-05
4.09165e-05
4.09117e-05
4.08971e-05
4.08747e-05