/*--------------------------------*- C++ -*----------------------------------*\
| =========                 |                                                 |
| \\      /  F ield         | OpenFOAM: The Open Source CFD Toolbox           |
|  \\    /   O peration     | Version:  2312                                  |
|   \\  /    A nd           | Website:  www.openfoam.com                      |
|    \\/     M anipulation  |                                                 |
\*---------------------------------------------------------------------------*/
FoamFile
{
    version     2.0;
    format      ascii;
    arch        "LSB;label=32;scalar=64";
    class       volScalarField;
    location    "150";
    object      p;
}
// * * * * * * * * * * * * * * * * * * * * * * * * * * * * * * * * * * * * * //

dimensions      [0 2 -2 0 0 0 0];

internalField   nonuniform List<scalar> 
11040
(
-40.9809
-38.1104
-35.6106
-35.5985
-35.1251
-34.7963
-34.6024
-34.5164
-34.5101
-34.577
-34.7135
-34.9339
-35.2439
-35.6701
-36.2324
-36.9354
-37.8007
-38.8405
-40.0871
-41.5087
-43.0723
-44.6692
-46.2676
-47.822
-49.2089
-50.4999
-51.5257
-52.3867
-52.8849
-53.0825
-52.7967
-52.0441
-50.6574
-48.5692
-45.625
-41.8457
-37.4463
-32.6033
-27.3347
-23.3277
-25.3628
-25.0566
-30.6836
-35.1635
-35.4244
-35.1489
-34.7996
-34.5901
-34.4919
-34.4752
-34.5328
-34.6577
-34.8655
-35.1626
-35.5745
-36.1235
-36.814
-37.6682
-38.6985
-39.9378
-41.3562
-42.9245
-44.5295
-46.1352
-47.6977
-49.0981
-50.3995
-51.4423
-52.3169
-52.8369
-53.0557
-52.7995
-52.078
-50.7291
-48.682
-45.788
-42.0616
-37.7098
-32.9118
-27.7163
-23.8037
-26.2188
-15.094
-22.7377
-31.425
-34.8475
-35.0394
-34.7895
-34.5702
-34.4612
-34.4382
-34.494
-34.6124
-34.8113
-35.0989
-35.4969
-36.0331
-36.7096
-37.5508
-38.5684
-39.7951
-41.205
-42.7714
-44.3832
-45.9938
-47.5604
-48.9749
-50.2841
-51.3452
-52.23
-52.7717
-53.0077
-52.7791
-52.0851
-50.7757
-48.7767
-45.9439
-42.288
-38.006
-33.2811
-28.2069
-24.4439
-26.921
-9.73242
-17.8825
-25.5479
-31.9128
-34.468
-34.645
-34.5255
-34.4027
-34.3663
-34.4239
-34.5393
-34.7311
-35.0134
-35.3997
-35.925
-36.5892
-37.4194
-38.4261
-39.6403
-41.0414
-42.6058
-44.2252
-45.8414
-47.4121
-48.843
-50.1592
-51.2425
-52.1377
-52.7067
-52.964
-52.7729
-52.1158
-50.861
-48.9278
-46.1788
-42.6175
-38.43
-33.8006
-28.8802
-25.2937
-27.351
-5.21701
-12.6568
-19.9733
-26.8077
-31.8313
-33.983
-34.2716
-34.3288
-34.2858
-34.3359
-34.4391
-34.6189
-34.8969
-35.2691
-35.7827
-36.4325
-37.2509
-38.2453
-39.4474
-40.8409
-42.4051
-44.0337
-45.6591
-47.2371
-48.6895
-50.018
-51.1294
-52.0409
-52.6441
-52.9308
-52.7874
-52.179
-50.9939
-49.1472
-46.5078
-43.0706
-39.0058
-34.497
-29.76
-26.3455
-27.5732
-2.19165
-8.33984
-15.0222
-21.5793
-27.2053
-31.3177
-33.4187
-33.9103
-34.1748
-34.2698
-34.3458
-34.4897
-34.7613
-35.117
-35.6183
-36.2512
-37.0564
-38.0365
-39.2254
-40.6095
-42.1759
-43.8165
-45.4539
-47.0436
-48.5195
-49.8651
-51.0074
-51.9416
-52.584
-52.9095
-52.8243
-52.2799
-51.1829
-49.4473
-46.949
-43.6709
-39.7622
-35.3992
-30.8635
-27.5622
-27.7138
-0.178178
-5.22155
-10.8146
-16.7173
-22.3076
-27.0046
-30.5916
-32.7162
-33.5998
-34.0071
-34.2852
-34.3909
-34.6327
-34.949
-35.4346
-36.0488
-36.8393
-37.8025
-38.9752
-40.3481
-41.9148
-43.569
-45.2213
-46.8293
-48.333
-49.705
-50.8829
-51.8506
-52.5395
-52.9177
-52.9039
-52.4443
-51.4574
-49.8628
-47.5422
-44.4622
-40.7442
-36.551
-32.2149
-28.9084
-27.8985
1.13808
-3.02707
-7.59312
-12.5587
-17.6845
-22.4765
-26.5309
-29.7366
-31.974
-33.2482
-33.7432
-34.2587
-34.5707
-34.8164
-35.2527
-35.8282
-36.6008
-37.5456
-38.7032
-40.0633
-41.632
-43.3011
-44.9726
-46.6047
-48.1425
-49.5485
-50.7696
-51.7807
-52.5262
-52.9707
-53.0455
-52.6937
-51.8441
-50.4233
-48.3208
-45.4825
-41.9906
-37.9899
-33.8187
-30.361
-28.2388
1.9484
-1.54626
-5.29614
-9.36956
-13.7134
-18.1325
-22.3106
-25.9292
-28.8813
-31.1785
-32.6632
-33.5329
-34.1183
-34.7321
-35.1536
-35.6429
-36.3584
-37.2652
-38.4062
-39.7528
-41.3262
-43.0125
-44.7108
-46.3768
-47.958
-49.4103
-50.6871
-51.7556
-52.5721
-53.1
-53.284
-53.0667
-52.3854
-51.1734
-49.3297
-46.7754
-43.5434
-39.7478
-35.6786
-31.9392
-28.8472
2.38764
-0.589239
-3.69621
-7.0464
-10.6381
-14.4088
-18.2491
-21.9567
-25.2668
-28.0436
-30.285
-31.9933
-33.1873
-33.9713
-34.7478
-35.547
-36.2168
-37.0295
-38.1113
-39.4252
-41.0015
-42.7113
-44.4464
-46.1608
-47.7995
-49.3173
-50.6618
-51.8093
-52.711
-53.3455
-53.6587
-53.6066
-53.1258
-52.1598
-50.6116
-48.3791
-45.4374
-41.8503
-37.8135
-33.7234
-29.831
2.55411
-0.0149995
-2.63129
-5.40763
-8.38089
-11.5314
-14.8197
-18.1808
-21.4875
-24.5507
-27.1963
-29.4099
-31.2614
-32.7028
-33.8129
-34.7316
-35.7894
-36.9129
-37.9638
-39.1815
-40.7091
-42.4173
-44.1915
-45.9707
-47.6891
-49.2856
-50.7315
-51.9683
-52.9864
-53.739
-54.2114
-54.3455
-54.1021
-53.4144
-52.1899
-50.3046
-47.6699
-44.2925
-40.2495
-35.8386
-31.2995
2.5237
0.277321
-1.96219
-4.29192
-6.7667
-9.3955
-12.1667
-15.0503
-18.0034
-20.9538
-23.7774
-26.3418
-28.5817
-30.5198
-32.1894
-33.5857
-34.819
-36.0303
-37.4616
-39.0476
-40.6326
-42.2896
-44.0517
-45.8683
-47.6505
-49.348
-50.8987
-52.2632
-53.4019
-54.3012
-54.9344
-55.2747
-55.2789
-54.8875
-53.9938
-52.4457
-50.1232
-46.9459
-42.9349
-38.2807
-33.2613
2.35598
0.370756
-1.57415
-3.55896
-5.63929
-7.83959
-10.1682
-12.6146
-15.1561
-17.7605
-20.386
-22.9769
-25.4559
-27.7404
-29.7981
-31.6643
-33.3724
-34.954
-36.5084
-38.1406
-40.0217
-42.1245
-44.1687
-46.0749
-47.8818
-49.6254
-51.2502
-52.7118
-53.9515
-54.9698
-55.7354
-56.243
-56.4478
-56.3056
-55.6916
-54.4398
-52.3824
-49.394
-45.4342
-40.6322
-35.2645
2.09794
0.329262
-1.38028
-3.09563
-4.86667
-6.72273
-8.68176
-10.7475
-12.9142
-15.1622
-17.4663
-19.8087
-22.173
-24.5223
-26.8055
-28.9824
-31.0573
-33.0716
-35.0761
-37.0871
-39.2207
-41.3843
-43.5102
-45.6843
-47.8849
-49.9649
-51.8418
-53.4317
-54.7619
-55.8235
-56.6501
-57.2214
-57.5285
-57.5298
-57.106
-56.0542
-54.1204
-51.1726
-47.1591
-42.2201
-36.6835
1.78638
0.202203
-1.3134
-2.81289
-4.33941
-5.92013
-7.57736
-9.32148
-11.157
-13.077
-15.0675
-17.1152
-19.2141
-21.3553
-23.5308
-25.7288
-27.936
-30.1527
-32.4109
-34.7646
-37.3151
-39.8963
-42.3417
-44.7493
-47.1112
-49.3619
-51.4095
-53.2032
-54.7128
-55.9376
-56.8695
-57.4995
-57.7995
-57.7373
-57.1981
-55.9452
-53.7547
-50.5302
-46.3402
-41.331
-35.9189
1.45569
0.0326576
-1.31895
-2.64158
-3.97125
-5.33184
-6.74417
-8.22209
-9.77422
-11.4012
-13.0981
-14.8594
-16.6817
-18.5575
-20.4811
-22.4542
-24.4813
-26.5729
-28.7406
-31.0075
-33.423
-35.9218
-38.4051
-40.883
-43.3091
-45.6258
-47.7454
-49.6086
-51.1551
-52.355
-53.169
-53.5639
-53.4873
-52.8621
-51.6142
-49.6903
-47.0672
-43.7506
-39.8399
-35.463
-30.896
1.14242
-0.136265
-1.34486
-2.51808
-3.68536
-4.86703
-6.08063
-7.33992
-8.65461
-10.029
-11.4623
-12.9547
-14.5061
-16.114
-17.771
-19.4744
-21.2197
-23.0137
-24.8593
-26.7705
-28.7481
-30.745
-32.6974
-34.5961
-36.402
-38.0923
-39.6097
-40.9107
-41.9329
-42.6383
-42.9816
-42.9352
-42.4719
-41.571
-40.2261
-38.4422
-36.2566
-33.6965
-30.843
-27.7792
-24.6445
0.870231
-0.284704
-1.3723
-2.42183
-3.45739
-4.49643
-5.5535
-6.64029
-7.76593
-8.93616
-10.1524
-11.4166
-12.7293
-14.0907
-15.4964
-16.9438
-18.4252
-19.9393
-21.479
-23.0462
-24.6284
-26.1758
-27.633
-28.989
-30.2116
-31.2906
-32.1967
-32.914
-33.4105
-33.6705
-33.6713
-33.4035
-32.8599
-32.0376
-30.9459
-29.5994
-28.0366
-26.2733
-24.3566
-22.3286
-20.263
0.642309
-0.408545
-1.39477
-2.34171
-3.26944
-4.19325
-5.12545
-6.07636
-7.05346
-8.06291
-9.10671
-10.1873
-11.3049
-12.4597
-13.6485
-14.8698
-16.1167
-17.3855
-18.6659
-19.9525
-21.2291
-22.4476
-23.5627
-24.567
-25.4375
-26.1675
-26.7402
-27.149
-27.3785
-27.4237
-27.2771
-26.9391
-26.4132
-25.7044
-24.8269
-23.7952
-22.6386
-21.369
-20.0192
-18.6136
-17.1947
0.457749
-0.502888
-1.40198
-2.26158
-3.09876
-3.92673
-4.75638
-5.59638
-6.4531
-7.33177
-8.23461
-9.16427
-10.1209
-11.1038
-12.1098
-13.1372
-14.1801
-15.2336
-16.2876
-17.3343
-18.3579
-19.3172
-20.1782
-20.9344
-21.5697
-22.0795
-22.4545
-22.6922
-22.7862
-22.7369
-22.5449
-22.2143
-21.7536
-21.1695
-20.4765
-19.6865
-18.8217
-17.8909
-16.9172
-15.9166
-14.9139
0.309901
-0.571286
-1.39382
-2.17772
-2.93672
-3.68316
-4.42587
-5.17314
-5.92941
-6.69965
-7.48503
-8.28911
-9.11103
-9.95086
-10.8036
-11.6688
-12.5392
-13.4117
-14.2749
-15.1227
-15.9386
-16.6911
-17.3538
-17.9236
-18.388
-18.7457
-18.9917
-19.1267
-19.1495
-19.063
-18.8715
-18.58
-18.1985
-17.7327
-17.1962
-16.5973
-15.9536
-15.2697
-14.5628
-13.8414
-13.1213
0.193517
-0.616782
-1.37148
-2.08817
-2.77896
-3.4541
-4.12229
-4.78968
-5.46115
-6.13944
-6.82677
-7.52439
-8.234
-8.95303
-9.67905
-10.4078
-11.1361
-11.8574
-12.5653
-13.2498
-13.901
-14.4895
-15.0009
-15.4296
-15.771
-16.0219
-16.1834
-16.2562
-16.2426
-16.1466
-15.9727
-15.7281
-15.4188
-15.0536
-14.639
-14.1862
-13.7021
-13.1959
-12.673
-12.1453
-11.616
0.103119
-0.643301
-1.33698
-1.99386
-2.62394
-3.23657
-3.83936
-4.43786
-5.036
-5.63615
-6.23964
-6.84767
-7.46154
-8.07938
-8.69847
-9.31457
-9.92435
-10.5222
-11.1025
-11.6568
-12.1764
-12.6386
-13.0339
-13.3592
-13.6114
-13.7898
-13.8965
-13.9334
-13.9039
-13.8122
-13.6631
-13.4627
-13.2162
-12.9311
-12.6121
-12.2678
-11.903
-11.5241
-11.1346
-10.7433
-10.3511
0.0346127
-0.654067
-1.2928
-1.89563
-2.47164
-3.02854
-3.57385
-4.1118
-4.64634
-5.1788
-5.71074
-6.24225
-6.77485
-7.3069
-7.83624
-8.35836
-8.87031
-9.367
-9.84387
-10.2937
-10.7097
-11.0741
-11.3813
-11.6299
-11.818
-11.9465
-12.0175
-12.0342
-11.9995
-11.918
-11.7933
-11.6316
-11.4364
-11.2143
-10.9681
-10.7053
-10.4282
-10.1426
-9.84968
-9.55674
-9.26288
-0.0160776
-0.652052
-1.24084
-1.7951
-2.32218
-2.82962
-3.32358
-3.80847
-4.28699
-4.76093
-5.23081
-5.69705
-6.16011
-6.61965
-7.07302
-7.51701
-7.9478
-8.36195
-8.75479
-9.12141
-9.45549
-9.74439
-9.98448
-10.1759
-10.3178
-10.4115
-10.4596
-10.4649
-10.431
-10.361
-10.2596
-10.1299
-9.97704
-9.80347
-9.61441
-9.41215
-9.20182
-8.98387
-8.76283
-8.5403
-8.31894
-0.0517682
-0.639966
-1.18327
-1.69328
-2.17638
-2.6392
-3.08756
-3.5252
-3.9546
-4.37716
-4.79335
-5.2033
-5.60726
-6.00489
-6.39434
-6.77274
-7.13663
-7.48298
-7.80806
-8.108
-8.37789
-8.6082
-8.79745
-8.94638
-9.05482
-9.12429
-9.1577
-9.15747
-9.127
-9.06881
-8.98704
-8.88408
-8.76414
-8.62897
-8.48275
-8.32696
-8.16556
-7.99865
-7.8298
-7.65999
-7.49111
-0.0754543
-0.619653
-1.12157
-1.59147
-2.03453
-2.45737
-2.86471
-3.26046
-3.64628
-4.02385
-4.39312
-4.75456
-5.1077
-5.45263
-5.78789
-6.11132
-6.41966
-6.71044
-6.98058
-7.22715
-7.44644
-7.63125
-7.78174
-7.89879
-7.98293
-8.03543
-8.05942
-8.05668
-8.03071
-7.98321
-7.91796
-7.83646
-7.74255
-7.63716
-7.52388
-7.40341
-7.2791
-7.15064
-7.021
-6.8907
-6.76117
-0.0890005
-0.593283
-1.05718
-1.49037
-1.89733
-2.28379
-2.65454
-3.01262
-3.35999
-3.69765
-4.02603
-4.3451
-4.65467
-4.95446
-5.24387
-5.52087
-5.78308
-6.02803
-6.25354
-6.45723
-6.63641
-6.78584
-6.90647
-6.99968
-7.06571
-7.10654
-7.12412
-7.12119
-7.09948
-7.06179
-7.00967
-6.94603
-6.87214
-6.79056
-6.70216
-6.60942
-6.51286
-6.41429
-6.31382
-6.21415
-6.1138
-0.0946056
-0.561854
-0.991293
-1.39098
-1.76493
-2.1186
-2.4562
-2.78067
-3.09363
-3.3961
-3.68841
-3.9706
-4.24245
-4.50371
-4.75397
-4.99185
-5.21539
-5.42253
-5.61153
-5.78066
-5.92794
-6.0496
-6.14719
-6.2222
-6.27493
-6.30728
-6.32097
-6.31846
-6.30114
-6.2714
-6.23046
-6.18074
-6.12315
-6.05977
-5.99119
-5.91941
-5.84475
-5.76865
-5.69109
-5.6144
-5.53698
-0.0935233
-0.52723
-0.924705
-1.29379
-1.63779
-1.96149
-2.26929
-2.56339
-2.84572
-3.1168
-3.37738
-3.62717
-3.86638
-4.09438
-4.31121
-4.51586
-4.70695
-4.88268
-5.0417
-5.18279
-5.30448
-5.40425
-5.48385
-5.54497
-5.58768
-5.61402
-5.62523
-5.62371
-5.61033
-5.58737
-5.55557
-5.51709
-5.47241
-5.42341
-5.37035
-5.31499
-5.25737
-5.19884
-5.13912
-5.08047
-5.02103
-0.0873556
-0.489783
-0.858382
-1.19933
-1.51585
-1.8125
-2.09307
-2.35998
-2.61462
-2.8579
-3.09017
-3.31162
-3.52214
-3.72147
-3.9095
-4.08592
-4.24954
-4.39904
-4.53329
-4.65142
-4.75255
-4.83473
-4.90037
-4.95048
-4.98584
-5.00746
-5.01736
-5.01663
-5.00702
-4.98931
-4.96524
-4.93541
-4.90138
-4.86344
-4.82305
-4.78034
-4.7366
-4.69162
-4.64645
-4.6017
-4.55686
-0.0768919
-0.451064
-0.792639
-1.10803
-1.39946
-1.67126
-1.92723
-2.16938
-2.39921
-2.61744
-2.8246
-3.02084
-3.20626
-3.38057
-3.54383
-3.69598
-3.83626
-3.96363
-4.07725
-4.17651
-4.26084
-4.32895
-4.38334
-4.42491
-4.4544
-4.47272
-4.4816
-4.48193
-4.47523
-4.46214
-4.44411
-4.42156
-4.39582
-4.36707
-4.33651
-4.30419
-4.27118
-4.23724
-4.20323
-4.16977
-4.13606
-0.063361
-0.411129
-0.728413
-1.02008
-1.28851
-1.53777
-1.77108
-1.99092
-2.19813
-2.39396
-2.57852
-2.75247
-2.9156
-3.06809
-3.20982
-3.34107
-3.46133
-3.56993
-3.6662
-3.74971
-3.82021
-3.87682
-3.92212
-3.95684
-3.98172
-3.99741
-4.00559
-4.00687
-4.00266
-3.99336
-3.98027
-3.96361
-3.94457
-3.92318
-3.90051
-3.87648
-3.85206
-3.82697
-3.80193
-3.77761
-3.75294
-0.0472481
-0.371194
-0.665664
-0.935839
-1.18313
-1.41156
-1.62439
-1.82363
-2.01053
-2.18588
-2.35032
-2.50413
-2.64762
-2.78075
-2.90373
-3.01674
-3.11976
-3.21227
-3.29377
-3.3641
-3.42303
-3.47024
-3.50797
-3.53723
-3.55821
-3.572
-3.57946
-3.58174
-3.57935
-3.57329
-3.56394
-3.55222
-3.53836
-3.52314
-3.50662
-3.48958
-3.47192
-3.45435
-3.43639
-3.41987
-3.40235
-0.0294936
-0.331186
-0.605194
-0.855238
-1.08326
-1.29261
-1.48656
-1.66702
-1.83527
-1.9921
-2.13822
-2.27401
-2.39986
-2.51585
-2.6222
-2.71927
-2.80727
-2.88587
-2.95475
-3.01383
-3.06298
-3.10223
-3.13372
-3.15834
-3.17622
-3.1883
-3.19528
-3.19819
-3.19746
-3.19389
-3.18779
-3.17992
-3.17045
-3.16002
-3.14868
-3.13704
-3.12504
-3.11325
-3.10119
-3.09066
-3.07906
-0.0104666
-0.29212
-0.546859
-0.778762
-0.988835
-1.1807
-1.3572
-1.52048
-1.67154
-1.81149
-1.94088
-2.06036
-2.17027
-2.27092
-2.3625
-2.44548
-2.52026
-2.58669
-2.64456
-2.69388
-2.73466
-2.76707
-2.79317
-2.81374
-2.82884
-2.8393
-2.84577
-2.84906
-2.84953
-2.84783
-2.84426
-2.83939
-2.8334
-2.82678
-2.8196
-2.81234
-2.80492
-2.79785
-2.79065
-2.78508
-2.7784
0.00907314
-0.253945
-0.491443
-0.706266
-0.899977
-1.07554
-1.2361
-1.38329
-1.51875
-1.64297
-1.7572
-1.86162
-1.95718
-2.04385
-2.12226
-2.19265
-2.25579
-2.31147
-2.3598
-2.40067
-2.43431
-2.4609
-2.48251
-2.49965
-2.51251
-2.52163
-2.52768
-2.53122
-2.53266
-2.53246
-2.5309
-2.52843
-2.52524
-2.52167
-2.51779
-2.514
-2.51022
-2.5069
-2.50352
-2.50186
-2.49904
0.0288846
-0.217468
-0.438823
-0.63823
-0.816646
-0.977183
-1.12272
-1.2552
-1.37592
-1.48589
-1.5859
-1.67674
-1.75892
-1.83303
-1.89932
-1.9585
-2.01101
-2.05712
-2.09672
-2.13002
-2.15707
-2.17832
-2.19558
-2.20937
-2.21977
-2.22728
-2.23246
-2.2358
-2.23765
-2.23833
-2.23818
-2.23743
-2.23637
-2.23512
-2.23393
-2.23287
-2.23217
-2.23185
-2.23182
-2.23332
-2.23392
0.0484314
-0.182543
-0.389446
-0.574481
-0.738855
-0.885493
-1.01708
-1.13573
-1.24273
-1.33928
-1.42619
-1.50437
-1.57436
-1.63687
-1.69221
-1.74117
-1.78423
-1.82182
-1.85386
-1.88062
-1.90213
-1.91892
-1.93259
-1.94368
-1.95216
-1.9585
-1.9631
-1.96642
-1.96869
-1.97021
-1.97119
-1.97187
-1.97244
-1.97302
-1.97378
-1.9748
-1.97623
-1.97814
-1.98033
-1.98411
-1.98687
0.067447
-0.149764
-0.343187
-0.515066
-0.666411
-0.800061
-0.918812
-1.02449
-1.11876
-1.20264
-1.27728
-1.34355
-1.4022
-1.4539
-1.49908
-1.53845
-1.57257
-1.60198
-1.6267
-1.64702
-1.66298
-1.67514
-1.68497
-1.69294
-1.69896
-1.70351
-1.70686
-1.70947
-1.71144
-1.71311
-1.71455
-1.71602
-1.71761
-1.71948
-1.7217
-1.72439
-1.7276
-1.73145
-1.73564
-1.74151
-1.74636
0.0853446
-0.1195
-0.300819
-0.460411
-0.599402
-0.720795
-0.827185
-0.920873
-1.00307
-1.07539
-1.13846
-1.19369
-1.24158
-1.28335
-1.31925
-1.35027
-1.37666
-1.39921
-1.41776
-1.43284
-1.44433
-1.45299
-1.45993
-1.46571
-1.47009
-1.4736
-1.4763
-1.47868
-1.48072
-1.48274
-1.48472
-1.48693
-1.48934
-1.49215
-1.49535
-1.49907
-1.5033
-1.50821
-1.51342
-1.52029
-1.52609
0.101916
-0.0923785
-0.263095
-0.411636
-0.539214
-0.64874
-0.743095
-0.824595
-0.895135
-0.956119
-1.00863
-1.05349
-1.09156
-1.12353
-1.15026
-1.17239
-1.19092
-1.20619
-1.21852
-1.22788
-1.23459
-1.2389
-1.24227
-1.24475
-1.24657
-1.24773
-1.24875
-1.24963
-1.25074
-1.25199
-1.25367
-1.2557
-1.25833
-1.26145
-1.26523
-1.26962
-1.27472
-1.28055
-1.28684
-1.29474
-1.30173
0.117061
-0.068013
-0.229241
-0.368282
-0.485858
-0.584911
-0.668151
-0.737966
-0.796525
-0.84568
-0.887035
-0.921743
-0.950839
-0.974822
-0.994241
-1.00941
-1.02118
-1.03008
-1.03671
-1.04122
-1.04401
-1.04533
-1.0464
-1.04718
-1.04788
-1.04843
-1.0492
-1.05013
-1.0515
-1.05317
-1.05537
-1.05798
-1.06119
-1.06487
-1.06917
-1.074
-1.07945
-1.08552
-1.09199
-1.09987
-1.10685
0.130298
-0.0458146
-0.197812
-0.326904
-0.435078
-0.524819
-0.598984
-0.659432
-0.708212
-0.746892
-0.777075
-0.800281
-0.818164
-0.832016
-0.842951
-0.851448
-0.857927
-0.86233
-0.86474
-0.865144
-0.863927
-0.861351
-0.858568
-0.855624
-0.852799
-0.850059
-0.847821
-0.846033
-0.845001
-0.844575
-0.845011
-0.846136
-0.848159
-0.850891
-0.854503
-0.85882
-0.863974
-0.869863
-0.876349
-0.884186
-0.891464
0.141524
-0.0276088
-0.170446
-0.289297
-0.385721
-0.463919
-0.526961
-0.577871
-0.618552
-0.650489
-0.674597
-0.691504
-0.701881
-0.706526
-0.70655
-0.703431
-0.69882
-0.693893
-0.689019
-0.684238
-0.679497
-0.674919
-0.671144
-0.668141
-0.665903
-0.664332
-0.663576
-0.66352
-0.664301
-0.665738
-0.667962
-0.670776
-0.67432
-0.678396
-0.683133
-0.688353
-0.69417
-0.70048
-0.707167
-0.714869
-0.721935
0.151004
-0.01552
-0.15485
-0.267174
-0.354552
-0.420165
-0.468374
-0.50287
-0.527356
-0.544975
-0.557956
-0.568233
-0.576639
-0.583604
-0.588534
-0.590587
-0.589011
-0.584303
-0.577238
-0.568685
-0.559149
-0.549188
-0.539465
-0.530207
-0.521563
-0.513645
-0.506653
-0.500621
-0.4957
-0.491796
-0.489048
-0.4873
-0.486693
-0.487012
-0.488406
-0.490624
-0.49382
-0.497761
-0.502464
-0.508193
-0.513836
0.15808
-0.00975179
-0.150952
-0.26581
-0.354795
-0.419984
-0.464093
-0.489978
-0.500752
-0.498945
-0.487681
-0.46917
-0.446497
-0.421566
-0.397202
-0.374985
-0.35626
-0.340529
-0.327428
-0.316114
-0.306532
-0.2984
-0.292012
-0.28724
-0.283852
-0.281812
-0.280865
-0.281096
-0.282183
-0.284278
-0.28702
-0.290618
-0.294692
-0.299476
-0.304578
-0.310264
-0.316145
-0.322512
-0.328877
-0.335896
-0.34234
0.154184
-0.00702503
-0.137588
-0.241746
-0.323135
-0.38545
-0.43195
-0.465362
-0.487807
-0.501129
-0.506671
-0.505896
-0.499647
-0.489237
-0.475165
-0.458638
-0.440648
-0.421257
-0.400569
-0.380085
-0.359772
-0.340577
-0.321955
-0.304479
-0.287764
-0.272394
-0.258046
-0.245172
-0.233458
-0.223258
-0.214283
-0.206815
-0.200559
-0.195746
-0.192058
-0.189711
-0.188356
-0.188227
-0.18887
-0.190752
-0.192919
-23.7298
-17.9901
-14.436
-11.5159
-8.75684
-6.04378
-3.69907
-1.83614
-0.21422
0.813173
1.11236
1.10246
1.22083
1.56575
1.97514
2.36827
2.67858
2.91651
3.06767
3.17419
3.23223
3.27018
3.28283
3.28224
3.25955
3.22228
3.15551
3.07871
2.9697
2.84865
2.70334
2.5584
2.36429
2.16553
1.97848
1.8093
1.65861
1.54521
1.44262
1.37933
1.2993
1.26749
1.26862
1.26937
1.27245
1.30053
1.30552
1.29425
1.28442
1.25806
1.19442
1.14209
1.07098
0.996223
0.913845
0.825466
0.73904
0.657621
0.569371
0.494891
0.412666
0.350881
0.276105
0.219274
0.171921
0.116883
0.0873071
0.0436278
0.0244658
0.00144444
0.00318338
-0.0313417
0.0305209
-0.0842275
-25.1348
-19.0111
-15.1281
-11.9042
-8.98541
-6.17631
-3.74542
-1.82932
-0.192524
0.898077
1.20002
0.998382
0.858919
0.999266
1.29406
1.63993
1.94509
2.20093
2.38543
2.53162
2.63682
2.7238
2.78962
2.84244
2.8742
2.88932
2.87514
2.84641
2.7821
2.69997
2.58947
2.47099
2.29991
2.11708
1.93994
1.77491
1.62753
1.51671
1.4186
1.35658
1.28264
1.25653
1.26256
1.27
1.28262
1.31766
1.32985
1.32674
1.32157
1.29852
1.23784
1.18624
1.11504
1.03892
0.954678
0.86362
0.774659
0.689661
0.598879
0.520742
0.436396
0.370451
0.293925
0.234925
0.184736
0.128692
0.0960608
0.0516395
0.0309094
0.00701443
0.00704536
-0.0281021
0.0327072
-0.0835977
-25.8884
-20.152
-15.9521
-12.3776
-9.2151
-6.31686
-3.79905
-1.81754
-0.172507
0.959382
1.25497
0.893343
0.536311
0.495908
0.678099
0.967867
1.2539
1.51282
1.71715
1.89177
2.0339
2.16228
2.27451
2.37598
2.45877
2.52513
2.56244
2.58209
2.56403
2.52411
2.45187
2.36463
2.22153
2.05911
1.89507
1.73724
1.59395
1.4854
1.39101
1.33056
1.26283
1.24184
1.25197
1.2664
1.28797
1.32983
1.34984
1.35462
1.3542
1.33492
1.27765
1.227
1.15617
1.07892
0.992898
0.899896
0.808338
0.72019
0.626885
0.545473
0.458767
0.389326
0.311042
0.249797
0.19706
0.139755
0.104634
0.0593933
0.0371149
0.0123264
0.0107981
-0.0249099
0.0348293
-0.0828539
-26.4153
-21.1542
-16.773
-12.9233
-9.46978
-6.43333
-3.84647
-1.79448
-0.137848
1.00923
1.29859
0.852425
0.356621
0.176679
0.253917
0.47333
0.719032
0.957416
1.15841
1.34006
1.49925
1.65137
1.7937
1.92964
2.05124
2.15902
2.23974
2.3024
2.32693
2.32764
2.29328
2.23947
2.12783
1.98943
1.84165
1.69458
1.55711
1.45126
1.35994
1.30147
1.23995
1.22335
1.2365
1.25828
1.28751
1.33575
1.36379
1.37578
1.38019
1.36528
1.31219
1.26295
1.19309
1.1152
1.02773
0.93367
0.839593
0.748929
0.65321
0.568989
0.479853
0.407558
0.327528
0.264022
0.209016
0.150282
0.113141
0.0670265
0.0432361
0.0174722
0.0145462
-0.0217237
0.036896
-0.0820672
-26.7106
-21.8443
-17.4592
-13.4416
-9.76025
-6.51179
-3.84745
-1.74993
-0.0854679
1.05454
1.33126
0.846252
0.263462
-0.0283083
-0.0532068
0.0859538
0.275618
0.476734
0.658405
0.832377
0.995071
1.15889
1.32016
1.48106
1.63309
1.77548
1.89435
1.99619
2.06141
2.1022
2.10639
2.08831
2.01203
1.90275
1.77635
1.64406
1.5154
1.41386
1.32601
1.27017
1.21542
1.20292
1.21919
1.24829
1.2847
1.33913
1.37514
1.39388
1.40301
1.39263
1.34369
1.29594
1.22732
1.14894
1.06039
0.965273
0.868931
0.775954
0.677997
0.591151
0.499757
0.424773
0.343104
0.277375
0.220292
0.160161
0.121196
0.0742507
0.04899
0.0222746
0.0180534
-0.0186767
0.0387885
-0.0812694
-26.7434
-22.1965
-17.8993
-13.8206
-10.0154
-6.56788
-3.76758
-1.64584
0.00571254
1.1251
1.3865
0.891924
0.256647
-0.130227
-0.256107
-0.206819
-0.08611
0.0641091
0.212933
0.366239
0.520562
0.684629
0.854619
1.03076
1.20464
1.37394
1.5248
1.6612
1.76417
1.84324
1.88559
1.90382
1.8655
1.78993
1.69097
1.57898
1.46331
1.36888
1.28583
1.23342
1.1857
1.17729
1.19724
1.23393
1.2774
1.33796
1.38179
1.40728
1.42121
1.41578
1.37125
1.32536
1.25832
1.17986
1.09075
0.994723
0.896484
0.801457
0.701549
0.612223
0.518895
0.441293
0.358115
0.290254
0.231177
0.169816
0.129044
0.0813504
0.0546282
0.0269796
0.0214924
-0.0156359
0.0406007
-0.0804403
-26.5483
-22.2625
-18.028
-13.9602
-10.1136
-6.56249
-3.60814
-1.43625
0.170788
1.25214
1.50635
1.01991
0.351176
-0.122101
-0.35263
-0.403443
-0.364577
-0.278422
-0.175272
-0.0543876
0.0801156
0.23402
0.402529
0.584715
0.771594
0.959827
1.13558
1.30067
1.43748
1.55237
1.63208
1.6863
1.68682
1.6477
1.58084
1.49494
1.39741
1.31381
1.23801
1.18979
1.14911
1.14487
1.1693
1.21361
1.26483
1.33173
1.3836
1.41626
1.43556
1.4351
1.39541
1.35161
1.28652
1.20821
1.11889
1.02203
0.922262
0.825321
0.723708
0.632019
0.536977
0.456809
0.372273
0.302381
0.241436
0.178951
0.136426
0.0880835
0.0599749
0.0314358
0.0247391
-0.0126712
0.0422828
-0.0795324
-26.2394
-22.1114
-17.868
-13.791
-9.95259
-6.38932
-3.35128
-1.10289
0.452695
1.45806
1.71255
1.25023
0.556365
-0.00159918
-0.341657
-0.502176
-0.556311
-0.545057
-0.498331
-0.420147
-0.315501
-0.181605
-0.0241066
0.154699
0.345509
0.54387
0.736259
0.922715
1.08685
1.23264
1.34655
1.435
1.47383
1.47242
1.44057
1.38578
1.31218
1.24426
1.17955
1.1375
1.10379
1.10371
1.13277
1.18461
1.24389
1.31739
1.37742
1.41783
1.4431
1.44805
1.41398
1.37287
1.31033
1.23269
1.14372
1.04651
0.945669
0.847194
0.744193
0.65041
0.553875
0.471396
0.385661
0.313884
0.251206
0.187711
0.143516
0.0946105
0.0651642
0.0357769
0.0279195
-0.0097456
0.0438733
-0.0785763
-25.9826
-21.8627
-17.5103
-13.337
-9.48092
-5.95935
-2.93527
-0.655675
0.859395
1.75653
1.99461
1.57436
0.865567
0.223704
-0.231347
-0.509426
-0.66562
-0.738317
-0.756835
-0.729613
-0.663051
-0.557382
-0.419237
-0.252272
-0.066009
0.134041
0.334827
0.534815
0.71924
0.88968
1.03337
1.15312
1.22864
1.26488
1.26951
1.24899
1.20436
1.15691
1.10761
1.07494
1.04957
1.05404
1.08779
1.14685
1.21455
1.29496
1.36361
1.41237
1.44441
1.45512
1.4274
1.38954
1.33003
1.2536
1.16539
1.06819
0.966696
0.866953
0.762876
0.667212
0.569437
0.484815
0.398063
0.32452
0.260261
0.195879
0.150088
0.100726
0.0700369
0.0398381
0.0308882
-0.00691401
0.0453142
-0.0775437
-25.9806
-21.6742
-17.097
-12.7149
-8.73697
-5.25039
-2.31415
-0.0957391
1.35549
2.14324
2.32875
1.94794
1.24544
0.532011
-0.0366767
-0.435862
-0.699817
-0.862228
-0.951775
-0.980972
-0.958165
-0.886657
-0.774301
-0.626037
-0.451733
-0.257754
-0.0565123
0.148772
0.345157
0.532077
0.6983
0.843792
0.952076
1.0241
1.06495
1.08013
1.06846
1.04639
1.01666
0.996932
0.982592
0.993487
1.03237
1.09836
1.17451
1.26221
1.33974
1.39749
1.43693
1.45414
1.43365
1.39969
1.344
1.26944
1.18274
1.08614
0.984611
0.884071
0.779301
0.682147
0.583409
0.497004
0.409456
0.33431
0.268654
0.203543
0.156266
0.106546
0.0746599
0.0437216
0.0337354
-0.00416664
0.0466323
-0.0764745
-26.4638
-21.7254
-16.7705
-12.0704
-7.86303
-4.32404
-1.51413
0.564805
1.89505
2.56983
2.68023
2.30924
1.62835
0.87399
0.211476
-0.300929
-0.671226
-0.92482
-1.08804
-1.17638
-1.20049
-1.1669
-1.08468
-0.960269
-0.803696
-0.622385
-0.427862
-0.224667
-0.0241055
0.171267
0.352046
0.516234
0.651
0.754647
0.829557
0.879867
0.90303
0.910379
0.904185
0.900043
0.898949
0.918852
0.964511
1.03767
1.12266
1.2183
1.30542
1.37298
1.42086
1.44534
1.43298
1.40388
1.35257
1.28073
1.19606
1.1006
0.999519
0.898554
0.793527
0.69516
0.595794
0.507823
0.419706
0.343153
0.276268
0.210576
0.161893
0.111928
0.0789666
0.0473319
0.036381
-0.00150644
0.0477993
-0.0753144
-27.6079
-22.2569
-16.7318
-11.5977
-7.09281
-3.42121
-0.667503
1.24176
2.4161
2.96645
2.9914
2.60086
1.93693
1.17529
0.457152
-0.140724
-0.603272
-0.941336
-1.17554
-1.32184
-1.39285
-1.39799
-1.3475
-1.2495
-1.11412
-0.949948
-0.767738
-0.573044
-0.375689
-0.179708
0.00714608
0.181762
0.334587
0.462716
0.566477
0.64871
0.706086
0.745221
0.766604
0.781592
0.795098
0.825528
0.879823
0.961073
1.05556
1.1601
1.25751
1.33598
1.39328
1.42628
1.42293
1.39987
1.35374
1.28568
1.20381
1.11034
1.01035
0.909618
0.804808
0.705752
0.606145
0.517011
0.428642
0.350934
0.283045
0.216937
0.166993
0.116913
0.0829494
0.0507233
0.038868
0.00102964
0.0488207
-0.0741144
-29.144
-23.2492
-17.2833
-11.7404
-6.9254
-3.04659
-0.168178
1.74
2.81437
3.23183
3.16749
2.75074
2.10862
1.36514
0.635924
-0.00754986
-0.532167
-0.935875
-1.22965
-1.42737
-1.54145
-1.58323
-1.56345
-1.49188
-1.37905
-1.23446
-1.06801
-0.886328
-0.697962
-0.507988
-0.322514
-0.145333
0.0167611
0.160557
0.285532
0.393374
0.480992
0.551081
0.602349
0.640533
0.670988
0.712092
0.775246
0.865364
0.970466
1.08528
1.19437
1.28514
1.35359
1.39645
1.40347
1.38772
1.34773
1.28456
1.20628
1.11557
1.01734
0.917393
0.813351
0.714013
0.614545
0.524573
0.436196
0.357621
0.288922
0.222585
0.171509
0.12142
0.0865905
0.0538194
0.0411459
0.00347082
0.0496873
-0.0728194
-30.334
-24.2389
-18.1905
-12.5152
-7.58141
-3.55024
-0.488522
1.62851
2.86071
3.32688
3.20186
2.7093
2.0542
1.34965
0.658485
0.0286644
-0.509365
-0.943426
-1.27439
-1.50919
-1.65758
-1.72982
-1.73667
-1.68915
-1.59781
-1.47287
-1.32356
-1.15716
-0.98148
-0.802119
-0.624178
-0.451271
-0.288131
-0.137688
-0.000712586
0.123909
0.234013
0.330041
0.409774
0.473946
0.525076
0.578509
0.649477
0.747337
0.863434
0.989995
1.11226
1.21693
1.29836
1.35276
1.37165
1.36467
1.33209
1.27511
1.2015
1.11461
1.01906
0.920759
0.818105
0.719166
0.620315
0.530006
0.442035
0.362921
0.293725
0.227362
0.175364
0.125413
0.0898026
0.056604
0.0431956
0.00573688
0.0503866
-0.0714955
-29.8051
-24.1127
-18.5714
-13.4009
-8.87413
-5.13422
-2.1881
0.0010636
1.48158
2.32048
2.60755
2.43567
1.91607
1.22965
0.536105
-0.0842524
-0.607184
-1.0309
-1.3602
-1.60211
-1.76384
-1.85265
-1.87785
-1.84831
-1.77483
-1.66684
-1.53364
-1.38268
-1.22122
-1.05474
-0.887815
-0.723917
-0.5664
-0.417062
-0.276693
-0.144294
-0.0212984
0.0922078
0.193998
0.282353
0.356215
0.425109
0.504009
0.607103
0.7323
0.871274
1.0084
1.12908
1.22585
1.29404
1.32669
1.33039
1.30674
1.25743
1.18971
1.10769
1.01574
0.91988
0.819356
0.721403
0.62367
0.533483
0.446188
0.366925
0.297451
0.231287
0.178566
0.128853
0.0926247
0.0590654
0.045023
0.00789209
0.0509279
-0.0700838
-26.0693
-21.6629
-17.4393
-13.4779
-9.91018
-6.85388
-4.34385
-2.38225
-0.938969
0.036189
0.615251
0.868238
0.847502
0.604883
0.209229
-0.256243
-0.716907
-1.1233
-1.45327
-1.70161
-1.87089
-1.96848
-2.0029
-1.98414
-1.92209
-1.82628
-1.70525
-1.5669
-1.41778
-1.26372
-1.1087
-0.955749
-0.807188
-0.664561
-0.527802
-0.395658
-0.268761
-0.147372
-0.0330738
0.0721686
0.165776
0.251655
0.340413
0.447311
0.577855
0.727225
0.87959
1.01808
1.13244
1.21678
1.26522
1.28169
1.26888
1.22887
1.16859
1.09271
1.00561
0.913247
0.815729
0.719631
0.623679
0.53426
0.44809
0.369164
0.299751
0.234106
0.180895
0.131642
0.0949018
0.0611285
0.046547
0.00982058
0.0512743
-0.0686586
-21.5367
-18.6367
-15.8182
-13.1278
-10.6039
-8.32408
-6.33114
-4.66039
-3.31477
-2.29156
-1.56686
-1.10593
-0.86175
-0.788047
-0.843726
-0.991065
-1.1935
-1.41663
-1.63147
-1.81643
-1.95812
-2.05039
-2.09222
-2.08631
-2.03838
-1.95558
-1.84648
-1.71856
-1.57947
-1.43485
-1.28921
-1.1457
-1.00626
-0.871857
-0.742247
-0.616418
-0.493187
-0.372674
-0.255699
-0.143942
-0.0391132
0.0598361
0.15893
0.270113
0.403031
0.558508
0.72407
0.88122
1.01564
1.11894
1.18558
1.21746
1.21771
1.18904
1.13797
1.06969
0.988762
0.901016
0.807521
0.714101
0.620611
0.532551
0.44791
0.369786
0.300755
0.235861
0.182454
0.133758
0.0967041
0.0628257
0.047813
0.0116015
0.0514626
-0.0671724
-18.2784
-16.3921
-14.5134
-12.6775
-10.8993
-9.22751
-7.69353
-6.33494
-5.16469
-4.19515
-3.42026
-2.8311
-2.40919
-2.13393
-1.97893
-1.91642
-1.9201
-1.96583
-2.03269
-2.10249
-2.16043
-2.19638
-2.20483
-2.18406
-2.13462
-2.05907
-1.96072
-1.84455
-1.71604
-1.5807
-1.44297