/*--------------------------------*- C++ -*----------------------------------*\
| =========                 |                                                 |
| \\      /  F ield         | OpenFOAM: The Open Source CFD Toolbox           |
|  \\    /   O peration     | Version:  2312                                  |
|   \\  /    A nd           | Website:  www.openfoam.com                      |
|    \\/     M anipulation  |                                                 |
\*---------------------------------------------------------------------------*/
FoamFile
{
    version     2.0;
    format      ascii;
    arch        "LSB;label=32;scalar=64";
    class       surfaceScalarField;
    location    "150";
    object      phi;
}
// * * * * * * * * * * * * * * * * * * * * * * * * * * * * * * * * * * * * * //

dimensions      [0 3 -1 0 0 0 0];

oriented        oriented;

internalField   nonuniform List<scalar> 
21876
(
0.00642659
0.00421736
-0.0106451
-0.000316393
0.0067419
-0.00213068
0.00181104
-0.0018783
-0.000254516
-0.00167712
-0.000203273
-0.00148755
-0.000191638
-0.00136892
-0.000121429
-0.00130036
-7.24384e-05
-0.00126142
-4.27187e-05
-0.0012573
-9.15428e-06
-0.00127584
1.4486e-05
-0.001326
4.14351e-05
-0.00140334
7.88588e-05
-0.00151603
0.00010412
-0.00165923
0.000138786
-0.00183661
0.000173082
-0.00204702
0.000217351
-0.00229554
0.000255024
-0.0025836
0.000287908
-0.00290879
0.000323279
-0.003269
0.000344514
-0.00362127
0.000327968
-0.00397288
0.000325461
-0.00433529
0.000343627
-0.00469862
0.000378371
-0.00508514
0.000371396
-0.00546086
0.000400137
-0.00585745
0.000380008
-0.00623238
0.000398593
-0.00660474
0.000366015
-0.00692046
0.00034006
-0.00716722
0.00024542
-0.00727603
0.000127393
-0.00721628
-5.28217e-05
-0.00694773
-0.00025209
-0.00643904
-0.000496956
-0.00563641
-0.000787573
-0.00451931
-0.00110203
-0.00311943
-0.00139017
-0.000863126
-0.00221942
-0.00354028
0.0027209
0.0133869
0.00350151
-0.0126716
0.00847663
0.0116515
0.0011422
0.00914378
-0.00214611
0.00303065
-0.00223524
-0.000118491
-0.00206776
-0.000364225
-0.00194093
-0.00025328
-0.00189535
-0.000123292
-0.00189479
-4.81214e-05
-0.00194218
3.23717e-05
-0.00202516
9.22028e-05
-0.00214787
0.000156942
-0.00230854
0.000234909
-0.00251169
0.000295536
-0.00275518
0.000374338
-0.00303867
0.000444145
-0.00335854
0.000528642
-0.00371572
0.000594231
-0.00411021
0.000659861
-0.0045384
0.000726103
-0.00500188
0.000771597
-0.00545833
0.000741691
-0.00592067
0.000742063
-0.00639151
0.000768271
-0.00684999
0.000817104
-0.00731644
0.000810048
-0.00775416
0.00084062
-0.00818122
0.000795461
-0.00854831
0.000783216
-0.0088626
0.000688186
-0.00907952
0.000585864
-0.00920344
0.000388134
-0.00920057
0.000154864
-0.00905434
-0.000173444
-0.00869523
-0.000583567
-0.00805833
-0.00110974
-0.00708589
-0.00173843
-0.00571144
-0.00245654
-0.00390652
-0.00317605
-0.00151594
-0.00458395
-0.00676295
0.00173443
0.0166124
0.000968717
-0.0140802
0.016445
0.0118187
0.0103892
0.0151992
0.00238451
0.0110348
-0.00183933
0.00410376
-0.00247338
0.000267985
-0.0024344
-0.000293938
-0.00239318
-0.000165789
-0.00242214
-2.06056e-05
-0.00251366
0.000122303
-0.00264704
0.000223536
-0.00282568
0.000332291
-0.00305149
0.000461119
-0.00332269
0.000565409
-0.00363799
0.000688225
-0.00399248
0.000798474
-0.00438276
0.000923328
-0.00480939
0.00102958
-0.00527471
0.00112777
-0.00577592
0.00123159
-0.0063167
0.0013163
-0.00684903
0.00127304
-0.00738264
0.00127394
-0.0079155
0.00130432
-0.00842875
0.00134587
-0.00894138
0.00132262
-0.00941883
0.00133487
-0.00988131
0.00125364
-0.0102862
0.00120209
-0.0106459
0.00104478
-0.0109181
0.000869567
-0.0110994
0.0005663
-0.0111377
0.000200092
-0.0109956
-0.000316049
-0.0106024
-0.000972076
-0.00989589
-0.00181512
-0.00880817
-0.00282208
-0.00725111
-0.00401164
-0.00519451
-0.00523288
-0.00262912
-0.00714124
-0.00964316
0.000259874
0.018855
-0.00192825
-0.0159583
0.0214003
0.00927338
0.0199978
0.0166015
0.0130808
0.0179514
0.00411481
0.0130686
-0.00128383
0.00566459
-0.0026184
0.00103722
-0.00277265
-1.56645e-05
-0.00283311
3.53341e-05
-0.00297837
0.000263471
-0.00316597
0.000406585
-0.00339224
0.000555067
-0.00367337
0.000738411
-0.00399985
0.000886595
-0.00437497
0.00105718
-0.00479053
0.00120624
-0.00524523
0.00136932
-0.00574022
0.00150953
-0.00627975
0.00164852
-0.00686163
0.00179066
-0.0074892
0.00191616
-0.00810706
0.00185829
-0.00872519
0.00185955
-0.00934026
0.00188724
-0.00993697
0.00192533
-0.0105327
0.00190086
-0.0110989
0.00189917
-0.0116531
0.00180373
-0.0121571
0.00171641
-0.0126173
0.00151383
-0.0129888
0.00125973
-0.0132565
0.000849724
-0.0133617
0.000325615
-0.0132588
-0.000400694
-0.0128737
-0.00133918
-0.012136
-0.00253703
-0.0109711
-0.00397356
-0.00928266
-0.0056878
-0.00705458
-0.00744953
-0.00436628
-0.00981512
-0.0122667
-0.00172906
0.0213121
-0.00490546
-0.0183344
0.0244457
0.00613938
0.0266538
0.0143931
0.0246475
0.0199572
0.0171099
0.0206057
0.00699085
0.0157827
-0.000103226
0.00812957
-0.00258226
0.00246048
-0.00298778
0.000438604
-0.00321469
0.000488114
-0.00347965
0.000669603
-0.00376549
0.0008384
-0.00411259
0.00108447
-0.00450166
0.00127443
-0.00494589
0.00149927
-0.00543517
0.00169376
-0.00597095
0.00190531
-0.00655378
0.0020939
-0.00719008
0.00228523
-0.00787734
0.00247797
-0.0086194
0.00266301
-0.0093512
0.00259297
-0.0100852
0.00259488
-0.0108169
0.00262416
-0.0115351
0.0026513
-0.0122544
0.00262599
-0.012952
0.00260382
-0.0136399
0.00249617
-0.0142835
0.00236665
-0.014881
0.00211603
-0.0153877
0.00177252
-0.0157786
0.00124425
-0.0159912
0.000543085
-0.0159721
-0.000416406
-0.0156418
-0.00166537
-0.0149221
-0.00325356
-0.0137338
-0.00515796
-0.0119824
-0.00743657
-0.00966902
-0.00976101
-0.00694375
-0.0125362
-0.0147619
-0.00444385
0.0242837
-0.00816595
-0.0210248
0.0274156
0.00300769
0.0307199
0.0110882
0.0328364
0.017841
0.0307553
0.0226868
0.0229721
0.0235656
0.0117406
0.0193606
0.00235444
0.0118454
-0.00201301
0.0048042
-0.00300162
0.00147327
-0.00346278
0.00112685
-0.00383017
0.00120152
-0.00427385
0.00152456
-0.0047529
0.00174936
-0.00529209
0.00203378
-0.00588318
0.00227952
-0.00653012
0.00254417
-0.00723228
0.00278533
-0.00799835
0.00303561
-0.00882579
0.00328849
-0.00972074
0.00353623
-0.010604
0.00345459
-0.0114909
0.00345813
-0.0123762
0.00349159
-0.0132526
0.003514
-0.0141316
0.00349789
-0.0149966
0.00346454
-0.0158546
0.00335579
-0.0166749
0.00319063
-0.0174486
0.00289871
-0.0181327
0.00246588
-0.0186936
0.00181725
-0.0190664
0.000927092
-0.0191892
-0.000281487
-0.018979
-0.00186489
-0.0183529
-0.00387015
-0.0172306
-0.00627145
-0.015523
-0.0091375
-0.0132413
-0.0120349
-0.010586
-0.0151849
-0.017195
-0.00814473
0.0278861
-0.0119055
-0.0241456
0.0312913
-0.000398022
0.0345248
0.00785602
0.0379006
0.0144656
0.0401586
0.0204284
0.0385151
0.0252087
0.0310347
0.0268401
0.0190581
0.0238211
0.007014
0.0168462
-0.000190385
0.00867472
-0.00263291
0.00356392
-0.00339354
0.00195796
-0.00399396
0.00212124
-0.0045992
0.00235204
-0.00527504
0.00270565
-0.00601181
0.00301165
-0.00681241
0.00333929
-0.00767827
0.0036456
-0.00861955
0.00397104
-0.00963481
0.00429803
-0.0107323
0.00463317
-0.0118147
0.0045349
-0.0128992
0.0045409
-0.0139809
0.00457307
-0.0150536
0.00459122
-0.0161283
0.0045748
-0.0171929
0.00453474
-0.0182535
0.00441984
-0.0192834
0.00422775
-0.0202715
0.0038922
-0.0211762
0.0033787
-0.02196
0.00260732
-0.0225547
0.00152982
-0.0228936
6.42396e-05
-0.0228908
-0.00186037
-0.0224661
-0.00428812
-0.0215423
-0.00718913
-0.020035
-0.0106389
-0.017953
-0.0141127
-0.0155111
-0.0176213
-0.0195817
-0.0131206
0.0320961
-0.0161941
-0.0278086
0.0360363
-0.00433695
0.0394777
0.0044159
0.0427429
0.0111996
0.0461399
0.0170313
0.0487206
0.0226266
0.0479638
0.0275966
0.0415265
0.0302575
0.0295212
0.0288517
0.0152589
0.0229351
0.00422153
0.014601
-0.00119009
0.00736762
-0.00287584
0.00380353
-0.00376871
0.00324006
-0.00462099
0.00355227
-0.0055548
0.00393812
-0.00657112
0.00434898
-0.00766682
0.0047322
-0.00884958
0.00514415
-0.0101195
0.0055558
-0.0114899
0.00599142
-0.0128372
0.00586749
-0.0141805
0.00587327
-0.0155139
0.00589809
-0.0168316
0.0059043
-0.0181427
0.00588278
-0.0194413
0.00583602
-0.020734
0.00571445
-0.022001
0.00550125
-0.0232318
0.00512873
-0.0243905
0.00454597
-0.0254393
0.00366389
-0.0263133
0.00241296
-0.0269442
0.000703707
-0.027249
-0.00154682
-0.0271539
-0.00437527
-0.0265927
-0.00774305
-0.0254891
-0.0117365
-0.0238376
-0.0157587
-0.0218144
-0.0196395
-0.0218122
-0.0195791
0.0371033
-0.0212013
-0.0320965
0.0416627
-0.00889311
0.0456403
0.00043676
0.0490919
0.00774921
0.0522949
0.0138258
0.0556465
0.0192754
0.0585959
0.0246464
0.0590429
0.0298121
0.0543783
0.0335155
0.0434757
0.0338394
0.0282836
0.0297932
0.0132039
0.0224446
0.00311939
0.0138836
-0.00130509
0.00765704
-0.00289748
0.00513474
-0.00411166
0.00514352
-0.00538764
0.00561403
-0.00679053
0.00612696
-0.00831059
0.00665422
-0.00993294
0.00717068
-0.0116773
0.00772717
-0.0133802
0.00756399
-0.0150673
0.0075531
-0.0167261
0.00755493
-0.0183497
0.00752705
-0.019945
0.00748445
-0.0215149
0.00740797
-0.0230665
0.00727467
-0.0245904
0.00702974
-0.0260788
0.00662677
-0.0275065
0.00598038
-0.0288407
0.00500793
-0.0300263
0.00360647
-0.0310011
0.00168778
-0.0316901
-0.000849455
-0.0320294
-0.00402787
-0.0319749
-0.00779005
-0.031473
-0.0122321
-0.0305071
-0.0167185
-0.0291666
-0.0209751
-0.0236129
-0.0273607
0.0430453
-0.0271283
-0.0371161
0.0483499
-0.0141991
0.0529761
-0.0041873
0.0569751
0.00374734
0.0603907
0.0104107
0.0634825
0.0161824
0.0667061
0.0214247
0.0699262
0.0265919
0.0716331
0.0318104
0.0692693
0.0362042
0.060805
0.0382558
0.0463288
0.0369191
0.0287441
0.0314648
0.0131601
0.0232356
0.00347432
0.0148172
-0.00077178
0.00938236
-0.00269915
0.00753908
-0.00444774
0.00787371
-0.00635961
0.00856051
-0.00844375
0.00924966
-0.0107014
0.00997782
-0.0128938
0.00974994
-0.0150465
0.00970261
-0.0171347
0.00964438
-0.0191423
0.00954101
-0.0210812
0.00941715
-0.0229523
0.00929985
-0.0247819
0.00910076
-0.0265571
0.00882379
-0.0282918
0.00835971
-0.0299644
0.007668
-0.0315651
0.00660938
-0.0330461
0.0050981
-0.034362
0.00300673
-0.035441
0.000236818
-0.0362314
-0.00323246
-0.036717
-0.00730093
-0.036889
-0.012055
-0.0367475
-0.0168591
-0.0363021
-0.0214152
-0.0245974
-0.0353171
0.0500681
-0.0342106
-0.0429857
0.0563266
-0.0204572
0.0617298
-0.00959176
0.0663846
-0.000908336
0.0703657
0.00642845
0.0737297
0.0128183
0.0766935
0.018461
0.0797101
0.0235755
0.0829952
0.0285262
0.0857063
0.0334917
0.0857603
0.0382007
0.0806704
0.0420075
0.068948
0.0431845
0.0515752
0.0406102
0.0320777
0.0343136
0.0156135
0.0258492
0.00537652
0.0177794
0.000465325
0.0127791
-0.00220914
0.011232
-0.00474353
0.0117748
-0.00755853
0.0127859
-0.0103628
0.012548
-0.0131442
0.0124836
-0.0158139
0.0123191
-0.0183306
0.0120435
-0.0206773
0.0117836
-0.0229035
0.0115134
-0.0249939
0.0112199
-0.0269945
0.0108156
-0.0288868
0.010276
-0.0307109
0.00948557
-0.0324444
0.00835885
-0.0340925
0.00674333
-0.03561
0.00453252
-0.0369472
0.00157498
-0.0380531
-0.0021259
-0.0389211
-0.00642827
-0.0396067
-0.0113749
-0.0401311
-0.0163277
-0.0405035
-0.0210512
-0.0245969
-0.040495
0.0583574
-0.0427279
-0.0498409
0.065811
-0.0279111
0.0721916
-0.015974
0.0776406
-0.00635872
0.08228
0.00178721
0.0862205
0.00887662
0.0895342
0.0151461
0.0923855
0.0207232
0.0951664
0.0257444
0.0982771
0.0303791
0.101523
0.0349548
0.103601
0.0399268
0.102184
0.0446044
0.0949211
0.0478732
0.0808117
0.0484254
0.0612473
0.0454168
0.03991
0.0391136
0.0216817
0.0310099
0.00956062
0.023349
0.00292804
0.0184079
-0.00103785
0.0167504
-0.00438281
0.0158977
-0.00777828
0.0158872
-0.0111151
0.0156535
-0.0142412
0.0151681
-0.0171232
0.0146569
-0.0197469
0.0141489
-0.0221307
0.0136072
-0.0242681
0.0129683
-0.026197
0.0122105
-0.0279397
0.0112401
-0.0295409
0.00996584
-0.0310214
0.00823057
-0.0323946
0.00591167
-0.0336272
0.0028084
-0.0346617
-0.00108308
-0.0354911
-0.00560458
-0.0361916
-0.0106649
-0.0368746
-0.0156559
-0.037552
-0.0203611
-0.0240261
-0.0381371
0.0681263
-0.0530152
-0.0578403
0.0770646
-0.0368501
0.0846683
-0.0235797
0.091109
-0.0128006
0.0965449
-0.00365105
0.101139
0.00428099
0.105028
0.0112554
0.108304
0.017445
0.11109
0.0229567
0.113666
0.0278015
0.116469
0.0321503
0.11978
0.0366162
0.123099
0.0412859
0.124832
0.046141
0.122628
0.050631
0.114322
0.0537217
0.099122
0.0543171
0.0783689
0.0517632
0.0553756
0.0463476
0.034482
0.0393061
0.0188141
0.032431
0.00933334
0.0253876
0.00355916
0.0216843
-0.000620302
0.0198114
-0.00424522
0.0188083
-0.00761745
0.0179937
-0.0106234
0.0171902
-0.0132722
0.016233
-0.0154482
0.0151877
-0.0172285
0.0139765
-0.0185768
0.0126274
-0.0196148
0.010998
-0.0203683
0.0090123
-0.0209676
0.0065137
-0.0214339
0.00329353
-0.021728
-0.000779585
-0.0218196
-0.00550539
-0.0218251
-0.0106479
-0.0219082
-0.0155699
-0.0222266
-0.0200309
-0.0234695
-0.0227827
0.0796298
-0.0654743
-0.0671723
0.0903997
-0.0476205
0.0995221
-0.0327042
0.107198
-0.0204769
0.113626
-0.0100824
0.119011
-0.00110415
0.123537
0.00672622
0.127372
0.0136095
0.130627
0.0196986
0.1334
0.0250272
0.13587
0.0296788
0.138419
0.0340657
0.141482
0.0382215
0.145189
0.0424337
0.148895
0.0469233
0.150997
0.0516218
0.149288
0.0560256
0.141781
0.0592735
0.127638
0.0604944
0.107774
0.0591803
0.0846892
0.0555189
0.0633607
0.0467355
0.0456887
0.039346
0.032323
0.0332004
0.0226955
0.0283885
0.0159893
0.0247385
0.011243
0.0218888
0.00799361
0.0195416
0.0057392
0.0174055
0.00443485
0.0153454
0.00384313
0.0132008
0.003999
0.0108937
0.00472164
0.00829492
0.00591513
0.00535161
0.00743024
0.00180869
0.0091506
-0.00249497
0.0109413
-0.00724942
0.0124424
-0.0121647
0.0135399
-0.0166099
0.0138708
-0.0203911
-0.0231457
0.0136102
0.0931724
-0.0805874
-0.0780609
0.106188
-0.0606366
0.117181
-0.0436992
0.126386
-0.0296823
0.134045
-0.0177439
0.140411
-0.00747075
0.145709
0.0014249
0.150159
0.00915996
0.153937
0.0159175
0.157182
0.0217813
0.159987
0.0268709
0.162499
0.0315526
0.164953
0.0357647
0.167743
0.0396422
0.171276
0.0433882
0.175646
0.0472491
0.180275
0.0513952
0.183792
0.0557567
0.184348
0.0599403
0.180228
0.0633006
0.170582
0.0651694
0.156941
0.060377
0.141165
0.0551271
0.12507
0.0492839
0.110076
0.0433848
0.0970372
0.0377643
0.0863716
0.0325643
0.0781175
0.0277883
0.0721676
0.0233738
0.0682893
0.0192248
0.0662717
0.0152393
0.0658629
0.0113127
0.0668347
0.00734263
0.0689512
0.00325417
0.0719024
-0.00112892
0.075047
-0.00561498
0.0777245
-0.00992202
0.0795176
-0.0139303
0.0801677
-0.0172612
0.0796346
-0.0198273
-0.0215554
0.0780382
0.109119
-0.0989351
-0.090773
0.124878
-0.0763959
0.138163
-0.0569857
0.149249
-0.0407686
0.158427
-0.0269245
0.166003
-0.015047
0.172256
-0.00483095
0.177447
0.00396863
0.181803
0.0115586
0.185523
0.0180619
0.188756
0.0236352
0.191649
0.0286593
0.194301
0.0331105
0.196856
0.0370855
0.199567
0.0406742
0.202818
0.0439952
0.207
0.0472108
0.212257
0.0504946
0.218244
0.0539514
0.224031
0.0575092
0.228317
0.0608829
0.229733
0.0589556
0.228333
0.0565285
0.224548
0.0530599
0.219148
0.0487871
0.212935
0.0439681
0.206669
0.0388374
0.200876
0.0335748
0.195948
0.0283119
0.19204
0.0231301
0.18921
0.0180795
0.187337
0.0131886
0.18621
0.00847723
0.185431
0.00404152
0.184515
-0.000210353
0.183053
-0.00413994
0.180752
-0.00762546
0.177395
-0.0105553
0.172994
-0.0128703
0.167646
-0.0144571
-0.0154197
0.161497
0.127903
-0.121215
-0.105625
0.147004
-0.0954962
0.163085
-0.0730684
0.176473
-0.0541568
0.187517
-0.0379709
0.196582
-0.0241117
0.204008
-0.0122586
0.21011
-0.00213326
0.215163
0.00650413
0.219411
0.0138142
0.223057
0.0199885
0.2263
0.0254162
0.229283
0.0301268
0.232116
0.0342514
0.234898
0.0378916
0.237764
0.0411265
0.240947
0.044028
0.244766
0.0466706
0.24957
0.0491479
0.25554
0.0515321
0.262554
0.0538714
0.269372
0.0521298
0.275566
0.0503402
0.280683
0.0479326
0.284545
0.0449334
0.287103
0.0413995
0.288516
0.0374341
0.288924
0.033157
0.288543
0.0287025
0.287475
0.02419
0.28583
0.0197305
0.2836
0.0154147
0.280759
0.0113187
0.277192
0.00760862
0.272808
0.00416708
0.267567
0.00110617
0.261441
-0.00151386
0.254392
-0.00349476
0.246634
-0.00513263
0.23838
-0.00618538
-0.00686081
0.229799
0.136119
-0.145719
-0.111616
0.157096
-0.116473
0.174742
-0.0907155
0.189409
-0.0688238
0.201478
-0.0500419
0.211344
-0.0339777
0.219377
-0.0202931
0.225923
-0.0086786
0.231279
0.00114661
0.235712
0.00938149
0.239448
0.016253
0.242702
0.0221623
0.245647
0.0271824
0.248425
0.0314742
0.251148
0.0351698
0.253898
0.0383756
0.256755
0.041173
0.259808
0.0436156
0.263212
0.0457479
0.267148
0.0475928
0.271827
0.0491974
0.276732
0.0472199
0.281831
0.0452494
0.286862
0.0428958
0.291587
0.0402184
0.295726
0.0372531
0.29912
0.0340507
0.301602
0.0306689
0.303129
0.0271857
0.303636
0.0236774
0.303149
0.0202245
0.301665
0.0168975
0.29923
0.0137559
0.295868
0.0109738
0.291646
0.00838719
0.286674
0.00608589
0.281061
0.00409246
0.274872
0.00270788
0.268309
0.00141985
0.261546
0.000593594
-3.21782e-05
0.254704
0.142372
-0.1721
-0.115992
0.164928
-0.139029
0.183888
-0.109677
0.199627
-0.0845626
0.212554
-0.0629692
0.223088
-0.0445107
0.231624
-0.0288299
0.238531
-0.0155854
0.244134
-0.00445548
0.248709
0.00480711
0.2525
0.0124629
0.255732
0.0189313
0.258588
0.0243283
0.26122
0.0288427
0.26376
0.0326321
0.266308
0.0358274
0.268949
0.0385355
0.27173
0.0408336
0.274701
0.0427809
0.277888
0.044403
0.281357
0.0457341
0.284691
0.0438818
0.287982
0.0419643
0.291165
0.0397069
0.294181
0.0372085
0.296895
0.0345319
0.299214
0.0317366
0.301002
0.0288725
0.302193
0.0259966
0.302704
0.0231577
0.30252
0.0204072
0.301623
0.0177872
0.300041
0.0153318
0.297804
0.0132057
0.29497
0.0112116
0.291631
0.0094224
0.287867
0.0078424
0.28373
0.00684468
0.279354
0.00577785
0.274859
0.00509185
0.00448796
0.27032
0.149409
-0.200501
-0.121009
0.173669
-0.163289
0.194048
-0.130057
0.210947
-0.101461
0.224805
-0.0768273
0.236069
-0.055774
0.245163
-0.0379234
0.252477
-0.022899
0.258361
-0.0103391
0.263112
5.66147e-05
0.266989
0.00858699
0.270227
0.0156936
0.273021
0.0215357
0.27553
0.026334
0.277892
0.0302722
0.280213
0.033506
0.282588
0.036163
0.285077
0.0383436
0.287732
0.0401285
0.290564
0.0415687
0.293584
0.0427164
0.29637
0.0410921
0.298979
0.0393572
0.301368
0.0373127
0.303517
0.0350614
0.305368
0.0326727
0.306897
0.0302087
0.308042
0.0277195
0.308781
0.0252549
0.309077
0.0228548
0.308924
0.0205565
0.308317
0.0183884
0.307273
0.0163699
0.305815
0.0146615
0.303974
0.0130441
0.301817
0.0115794
0.29939
0.0102597
0.296729
0.00950736
0.293918
0.00857828
0.291032
0.00798117
0.00738985
0.288117
0.157225
-0.231081
-0.126647
0.183324
-0.189388
0.205236
-0.151969
0.22339
-0.119615
0.238258
-0.0916949
0.250317
-0.0678332
0.260022
-0.0476281
0.267789
-0.0306664
0.273993
-0.0165409
0.278951
-0.00490257
0.282942
0.00459837
0.286209
0.0124249
0.288965
0.0187837
0.29137
0.0239265
0.293577
0.0280692
0.295688
0.031391
0.29781
0.0340455
0.299998
0.0361509
0.30232
0.0378117
0.304786
0.0390964
0.307424
0.0400827
0.309836
0.0386719
0.312083
0.0371142
0.314112
0.0352745
0.315916
0.0332588
0.317447
0.0311312
0.318701
0.0289528
0.319643
0.0267674
0.320273
0.0246204
0.320575
0.0225439
0.320554
0.0205679
0.320223
0.0187132
0.31959
0.0169904
0.318687
0.0155601
0.317529
0.0141881
0.316173
0.0129319
0.314642
0.0117747
0.312971
0.0111763
0.311204
0.0103282
0.309401
0.00978282
0.00919238
0.307581
0.165833
-0.26401
-0.132904
0.19392
-0.217476
0.21749
-0.175539
0.237001
-0.139127
0.252964
-0.107658
0.265889
-0.0807586
0.276264
-0.0580026
0.284533
-0.0389351
0.291093
-0.0231021
0.296293
-0.010102
0.300423
0.000467271
0.303749
0.00910036
0.306483
0.0160482
0.308811
0.0215996
0.310879
0.0260004
0.312811
0.0294599
0.3147
0.0321544
0.316625
0.0342269
0.318635
0.0357995
0.320769
0.0369637
0.323036
0.0378123
0.325103
0.0366061
0.327008
0.0352049
0.328742
0.0335415
0.330277
0.031719
0.331605
0.0298031
0.332704
0.0278492
0.333571
0.0258992
0.334196
0.0239918
0.334582
0.0221548
0.334736
0.0204122
0.334665
0.0187794
0.334393
0.0172622
0.333929
0.0160197
0.333307
0.0148116
0.332543
0.01369
0.331685
0.0126361
0.330725
0.0121316
0.329726
0.0113298
0.328693
0.0108093
0.0102114
0.327677
0.175262
-0.299482
-0.139793
0.205499
-0.247713
0.230862
-0.200902
0.251846
-0.160112
0.268997
-0.124809
0.282865
-0.0946269
0.293971
-0.0691089
0.302792
-0.0477568
0.309754
-0.0300645
0.315228
-0.0155753
0.319529
-0.00383416
0.322935
0.00569446
0.325675
0.0133074
0.327944
0.019331
0.329898
0.0240453
0.331669
0.027689
0.333357
0.030465
0.335045
0.0325393
0.336787
0.0340555
0.338627
0.0351241
0.340581
0.0358558
0.342343
0.0348444
0.34396
0.0335855
0.34543
0.0320715
0.34674
0.0304066
0.347887
0.0286557
0.348861
0.0268723
0.349663
0.0250959
0.350292
0.0233616
0.350751
0.0216939
0.35105
0.0201128
0.351196
0.0186305
0.35121
0.0172496
0.351098
0.0161285
0.350888
0.0150233
0.35059
0.0139843
0.350238
0.0129898
0.349826
0.0125375
0.349402
0.011756
0.348962
0.0112418
0.0106283
0.348546
0.185551
-0.337699
-0.147333
0.218115
-0.280279
0.245421
-0.228209
0.268001
-0.182692
0.286442
-0.143252
0.301337
-0.109521
0.313243
-0.0810153
0.322673
-0.0571862
0.33008
-0.0374734
0.335866
-0.0213592
0.340365
-0.00833562
0.343879
0.00218217
0.346647
0.0105377
0.34888
0.0170994
0.350742
0.0221816
0.352376
0.026056
0.353887
0.0289517
0.355367
0.0310604
0.356874
0.0325455
0.358461
0.0335383
0.360148
0.0341651
0.361654
0.0333386
0.363031
0.0322057
0.364284
0.0308173
0.365409
0.0292779
0.36641
0.0276529
0.367284
0.0259948
0.368034
0.0243415
0.368666
0.0227268
0.369182
0.0211724
0.369596
0.019697
0.36991
0.01831
0.370146
0.0170134
0.370303
0.0159634
0.370411
0.0149171
0.370466
0.0139217
0.370503
0.012956
0.370508
0.0125245
0.370522
0.0117452
0.370532
0.0112227
0.010588
0.370575
0.196747
-0.378894
-0.155556
0.231834
-0.315366
0.261246
-0.257621
0.285558
-0.207004
0.305403
-0.163098
0.321415
-0.125534
0.334196
-0.0937961
0.344294
-0.0672842
0.352198
-0.0453772
0.358332
-0.0274947
0.363065
-0.013068
0.366711
-0.00146412
0.369533
0.00771646
0.371748
0.0148829
0.373541
0.0203894
0.375056
0.0245394
0.376416
0.0275928
0.37771
0.0297648
0.379013
0.0312422
0.380376
0.0321742
0.381836
0.0327047
0.383121
0.0320527
0.384295
0.0310308
0.385365
0.0297455
0.386338
0.0283037
0.387218
0.0267709
0.38801
0.0252004
0.388721
0.0236297
0.389353
0.0220913
0.389918
0.0206067
0.390418
0.019193
0.390868
0.0178595
0.39127
0.0166067
0.391644
0.0155908
0.391987
0.0145691
0.392321
0.0135893
0.392644
0.0126282
0.392976
0.0121953
0.393312
0.0114037
0.393675
0.0108625
0.0102011
0.394056
0.208909
-0.423309
-0.164493
0.246729
-0.353188
0.278426
-0.289319
0.304619
-0.233198
0.32599
-0.18447
0.343221
-0.142766
0.356958
-0.107533
0.36779
-0.0781164
0.376243
-0.0538296
0.382772
-0.0340237
0.38777
-0.0180665
0.391578
-0.00527196
0.394475
0.00481929
0.396696
0.0126614
0.398437
0.0186487
0.399855
0.023121
0.40108
0.026368
0.402212
0.0286319
0.403333
0.0301216
0.4045
0.0310062
0.405759
0.0314454
0.406852
0.0309588
0.407849
0.0300336
0.408762
0.0288317
0.409602
0.0274626
0.410378
0.0259936
0.411098
0.0244791
0.41177
0.0229569
0.412398
0.0214603
0.412994
0.0200103
0.413559
0.0186243
0.414108
0.0173112
0.414639
0.0160719
0.41517
0.0150609
0.415695
0.0140388
0.416234
0.0130524
0.416779
0.0120789
0.41735
0.0116265
0.417937
0.0108121
0.418559
0.010243
0.00955069
0.419204
0.222096
-0.471221
-0.174187
0.262884
-0.393975
0.297061
-0.323499
0.325299
-0.261437
0.348331
-0.207502
0.366891
-0.161327
0.381675
-0.122316
0.393313
-0.0897554
0.402372
-0.0628881
0.409341
-0.0409932
0.414643
-0.0233682
0.418642
-0.00927118
0.42164
0.00182218
0.423887
0.0104135
0.425595
0.0169417
0.426931
0.0217831
0.428039
0.0252608
0.429026
0.0276441
0.429982
0.0291657
0.430973
0.0300142
0.432051
0.0303661
0.432972
0.0300373
0.433808
0.029196
0.434579
0.0280603
0.435297
0.0267424
0.435977
0.025313
0.436625
0.0238277
0.437255
0.0223267
0.437868
0.0208432
0.438479
0.0194
0.439084
0.018014
0.439701
0.0166958
0.440322
0.0154456
0.440967
0.0144174
0.441626
0.0133749
0.442316
0.0123652
0.443025
0.011365
0.443775
0.0108796
0.444548
0.0100333
0.445365
0.00942927
0.00870181
0.446209
0.236385
-0.52292
-0.184684
0.280391
-0.437985
0.317265
-0.360373
0.347726
-0.2919
0.372566
-0.232344
0.392577
-0.181337
0.408503
-0.138243
0.421028
-0.10228
0.430756
-0.0726165
0.438216
-0.048453
0.443861
-0.0290134
0.448082
-0.0134925
0.451205
-0.0013005
0.453499
0.00811921
0.45519
0.0152507
0.456462
0.0205112
0.457464
0.0242575
0.45832
0.0267886
0.459123
0.0283614
0.459951
0.0291856
0.460863
0.0294539
0.461622
0.0292768
0.462308
0.028509
0.462943
0.0274246
0.463544
0.0261401
0.464125
0.0247296
0.464701
0.0232516
0.465276
0.0217483
0.465865
0.0202549
0.466466
0.018795
0.467093
0.0173874
0.467743
0.0160426
0.468427
0.0147626
0.469142
0.0136985
0.469898
0.0126201
0.470687
0.011573
0.471518
0.0105353
0.472389
0.0100048
0.473305
0.00911967
0.474256
0.00847379
0.0077076
0.475252
0.251849
-0.578736
-0.196035
0.299355
-0.485488
0.339158
-0.400179
0.372038
-0.324782
0.39885
-0.259155
0.420442
-0.20293
0.43762
-0.155421
0.451117
-0.115776
0.461584
-0.0830832
0.469589
-0.0564581
0.475621
-0.0350447
0.480098
-0.0179696
0.483372
-0.00457413
0.485733
0.00575824
0.487423
0.0135604
0.488641
0.0192925
0.48955
0.0233478
0.490282
0.0260564
0.490942
0.027701
0.491614
0.028513
0.492365
0.0287024
0.492968
0.0286727
0.493506
0.0279701
0.494004
0.0269249
0.494485
0.0256586
0.494963
0.0242497
0.495454
0.0227604
0.495964
0.0212356
0.496506
0.0197128
0.497081
0.0182174
0.4977
0.0167694
0.498359
0.0153809
0.499068
0.0140548
0.499823
0.0129402
0.500633
0.0118124
0.501486
0.0107166
0.502392
0.00963142
0.503347
0.00904655
0.504353
0.0081156
0.505401
0.00742229
0.00661325
0.506498
0.268581
-0.639018
-0.208296
0.319886
-0.536798
0.362877
-0.44317
0.398392
-0.360298
0.427351
-0.288116
0.450672
-0.226251
0.46922
-0.173969
0.483784
-0.130339
0.495065
-0.0943646
0.503676
-0.0650679
0.510139
-0.0415088
0.514909
-0.0227385
0.51836
-0.00802599
0.520809
0.00331059
0.522513
0.0118559
0.523689
0.0181162
0.524512
0.022524
0.525126
0.0254423
0.525645
0.0271812
0.526162
0.0279948
0.526753
0.0281119
0.527196
0.0282271
0.527583
0.0275836
0.527937
0.0265674
0.52829
0.025307
0.528651
0.0238851
0.529043
0.022369
0.529469
0.0208062
0.529946
0.0192376
0.53047
0.0176903
0.531055
0.0161867
0.531693
0.0147396
0.532396
0.013354
0.533157
0.0121758
0.533984
0.0109874
0.534864
0.00983278
0.535806
0.00869193
0.536805
0.00804369
0.537862
0.00706097
0.538966
0.00631447
0.00545855
0.540123
0.286669
-0.70416
-0.221529
0.342112
-0.592237
0.38857
-0.489633
0.426956
-0.398684
0.458259
-0.31942
0.483468
-0.251461
0.503515
-0.194016
0.51925
-0.146075
0.53143
-0.106543
0.54071
-0.0743482
0.547657
-0.048456
0.552757
-0.0278382
0.556415
-0.0116844
0.55897
0.000755219
0.560704
0.0101227
0.561846
0.0169732
0.562588
0.0217812
0.563085
0.0249448
0.563462
0.0268032
0.563821
0.0276352
0.564243
0.0276885
0.564521
0.0279485
0.564743
0.0273596
0.564945
0.0263652
0.565149
0.0251
0.56538
0.0236534
0.56565
0.0220968
0.565974
0.0204825
0.566355
0.0188537
0.566805
0.0172409
0.567321
0.0156679
0.567913
0.0141498
0.568571
0.0126925
0.569309
0.0114397
0.570113
0.0101803
0.570989
0.00895807
0.571924
0.00775347
0.572936
0.007034
0.574
0.00599333
0.575128
0.00518842
0.00428113
0.576302
0.306225
-0.774582
-0.2358
0.366164
-0.652181
0.416403
-0.539871
0.457917
-0.440201
0.491777
-0.353283
0.519051
-0.278735
0.540741
-0.215707
0.557763
-0.163097
0.57093
-0.119711
0.580952
-0.0843701
0.588438
-0.0559418
0.593909
-0.0333095
0.597804
-0.0155793
0.600488
-0.00192853
0.602262
0.00834746
0.603379
0.0158566
0.604042
0.0211175
0.60442
0.0245664
0.604648
0.0265736
0.604839
0.0274437
0.605081
0.0274453
0.605177
0.0278516
0.605219
0.0273155
0.605246
0.0263372
0.605284
0.0250592
0.60536
0.0235777
0.605485
0.0219695
0.605676
0.0202914
0.605937
0.0185905
0.606279
0.0168998
0.606698
0.0152456
0.607205
0.0136449
0.607789
0.0121054
0.608463
0.0107675
0.609212
0.00942791
0.610042
0.00812966
0.610938
0.0068542
0.611918
0.00605571
0.612956
0.00495155
0.614064
0.00408281
0.00311988
0.615221
0.327354
-0.850755
-0.251182
0.392197
-0.717019
0.446552
-0.59423
0.49148
-0.48513
0.528135
-0.389941
0.557666
-0.308268
0.581157
-0.239197
0.599591
-0.181533
0.613849
-0.133968
0.62469
-0.0952124
0.632775
-0.0640256
0.638662
-0.0391976
0.642826
-0.0197427
0.645659
-0.00476205
0.647488
0.00651799
0.648583
0.014761
0.649166
0.020534
0.649419
0.0243135
0.649488
0.0265031
0.649496
0.0274359
0.649537
0.0274017
0.649431
0.027958
0.649269
0.0274747
0.649097
0.0265094
0.648941
0.0252123
0.648833
0.0236878
0.648781
0.0220183
0.648808
0.0202664
0.648914
0.0184822
0.649113
0.0167029
0.6494
0.0149567
0.649784
0.0132633
0.650255
0.0116315
0.650827
0.010199
0.651481
0.00877043
0.652226
0.00738831
0.653042
0.00603474
0.653951
0.00514977
0.654923
0.00397614
0.655971
0.0030381
0.00201446
0.657073
0.350187
-0.933186
-0.267752
0.420368
-0.787204
0.479217
-0.653076
0.527871
-0.533789
0.567581
-0.429652
0.599583
-0.340272
0.625047
-0.264662
0.645035
-0.201521
0.660492
-0.149424
0.672241
-0.106961
0.680989
-0.0727739
0.687343
-0.0455509
0.691809
-0.0242096
0.694815
-0.00776755
0.696711
0.00462183
0.697788
0.0136829
0.698288
0.0200343
0.698404
0.024196
0.698299
0.0266078
0.698102
0.0276322
0.69792
0.0275834
0.697581
0.0282949
0.697188
0.0278672
0.696782
0.026913
0.696402
0.0255927
0.696069
0.0240183
0.695808
0.0222798
0.695628
0.0204444
0.695544
0.0185677
0.695555
0.0166896
0.695672
0.0148418
0.695887
0.0130455
0.696208
0.0113124
0.696629
0.00977583
0.697152
0.00824979
0.697762
0.00677558
0.698461
0.0053369
0.699251
0.00435743
0.70012
0.00310838
0.70106
0.00209489
0.00100538
0.702072
0.374853
-1.02245
-0.285594
0.450862
-0.863207
0.51461
-0.716829
0.567339
-0.586516
0.610389
-0.472705
0.6451
-0.374984
0.672729
-0.292292
0.694424
-0.223216
0.711203
-0.166204
0.723954
-0.119711
0.733439
-0.0822592
0.740312
-0.0524232
0.745119
-0.029017
0.74832
-0.0109686
0.750295
0.00264733
0.751357
0.0126204
0.751766
0.0196251
0.751733
0.0242282
0.751433
0.0269082
0.751004
0.0280599
0.750564
0.0280232
0.74996
0.0288975
0.749297
0.0285301
0.748621
0.0275879