/*--------------------------------*- C++ -*----------------------------------*\
| =========                 |                                                 |
| \\      /  F ield         | OpenFOAM: The Open Source CFD Toolbox           |
|  \\    /   O peration     | Version:  2312                                  |
|   \\  /    A nd           | Website:  www.openfoam.com                      |
|    \\/     M anipulation  |                                                 |
\*---------------------------------------------------------------------------*/
FoamFile
{
    version     2.0;
    format      ascii;
    arch        "LSB;label=32;scalar=64";
    class       volScalarField;
    location    "150";
    object      turbulenceProperties:epsilon;
}
// * * * * * * * * * * * * * * * * * * * * * * * * * * * * * * * * * * * * * //

dimensions      [0 2 -3 0 0 0 0];

internalField   nonuniform List<scalar> 
11040
(
206.947
55.9661
4.60185
26.7085
36.6333
27.1091
21.0007
18.0003
16.6929
16.6202
17.6672
19.7983
23.2852
28.7555
36.8279
48.3398
64.371
86.6465
117.127
157.46
209.224
270.317
337.666
412.349
493.304
582.305
674.635
771.102
864.952
956.07
1038.71
1097.51
1115.63
1079.16
978.753
820.793
618.447
388.198
163.925
42.5254
23.1107
2.0281
14.9586
80.1843
70.5228
5.71569
0.129028
0.133423
0.267115
0.493842
0.824554
1.27374
1.81002
2.43519
3.08502
3.75106
4.3918
4.9527
5.36532
5.59283
5.6877
5.68392
5.68772
5.71808
5.73437
5.60492
5.20283
4.73579
3.95514
3.12482
2.18437
1.48013
0.869842
0.49373
0.334437
0.391986
0.657653
1.34864
2.87585
5.7383
8.84023
22.3382
0.48393
0.0514294
9.16979
126.275
104.535
14.3512
0.936907
0.0788212
0.0211875
0.0880626
0.199052
0.338353
0.488683
0.608182
0.687064
0.706094
0.674948
0.604001
0.511896
0.416033
0.331979
0.269034
0.218486
0.178074
0.159156
0.166044
0.2031
0.259144
0.325794
0.353792
0.329755
0.247142
0.188657
0.269205
0.658243
1.61497
3.66507
7.87022
15.9723
28.1544
41.2303
0.212002
0.253144
0.017885
13.4179
126.323
123.815
27.5765
2.94318
0.792947
0.424066
0.295715
0.272278
0.287251
0.318369
0.368615
0.411943
0.462516
0.514697
0.580696
0.649362
0.720404
0.792304
0.876013
0.974076
1.05618
1.13659
1.19085
1.20777
1.16569
1.04433
0.856335
0.625821
0.427712
0.384299
0.750476
1.98903
4.90729
11.0568
23.0308
41.213
47.8571
0.126966
0.15725
0.0639907
0.00755588
12.7183
109.635
138.175
50.6276
7.63855
2.47148
1.44769
1.30289
1.27959
1.28451
1.36014
1.43068
1.5198
1.60225
1.69809
1.78601
1.85913
1.91281
1.96682
2.02071
2.02759
2.02451
1.97661
1.89761
1.75595
1.54445
1.25224
0.900714
0.561025
0.406417
0.798472
2.35434
6.07797
13.7363
28.1482
48.9378
51.1111
0.070638
0.0661153
0.0967867
0.00785039
0.0010786
8.31737
81.8326
146.483
80.5656
18.5053
5.50891
3.12227
2.85729
2.78039
2.87283
2.91092
2.97644
3.00946
3.04638
3.06472
3.04934
3.00187
2.9685
2.94679
2.88717
2.83639
2.74983
2.6423
2.46798
2.21068
1.83032
1.33751
0.80037
0.434386
0.683519
2.259
6.25957
14.3618
28.9909
48.4595
49.4931
0.0403487
0.0354923
0.0433173
0.0502026
0.000487895
2.23553e-06
3.59976
49.9807
136.357
110.575
42.1812
10.7628
5.59865
4.41748
4.48334
4.48979
4.50294
4.44448
4.40756
4.33844
4.22147
4.06305
3.94788
3.86619
3.77961
3.73464
3.68526
3.61933
3.47437
3.21599
2.78473
2.15927
1.38311
0.674534
0.520063
1.65226
5.12743
12.2763
24.644
39.7114
41.9364
0.0222614
0.021759
0.0211304
0.0273043
0.0268283
1.27623e-05
0.0037857
0.952562
23.7038
101.496
129.163
75.6991
25.6398
9.43535
6.47655
6.04875
6.13529
6.07917
5.97511
5.79218
5.56259
5.29225
5.09429
4.95115
4.84371
4.82339
4.84517
4.87984
4.84654
4.67876
4.27705
3.57654
2.57736
1.44952
0.648344
0.872601
2.97585
7.84088
15.9644
25.0773
28.0482
0.0126006
0.0125145
0.0128679
0.0125443
0.0188421
0.0140298
2.32293e-05
0.00162181
0.0995056
7.70962
54.2784
119.423
106.267
54.6622
19.999
9.89616
7.866
7.75185
7.83043
7.6781
7.37528
6.97513
6.66874
6.42991
6.26877
6.24882
6.33586
6.47647
6.59607
6.59953
6.35441
5.73239
4.65961
3.20561
1.71008
0.819078
1.10417
3.046
6.51372
10.1702
12.316
0.007203
0.00721352
0.00756511
0.00775862
0.0079982
0.0112141
0.00654242
8.88645e-06
6.38308e-05
0.0287116
1.34086
19.2649
75.1924
114.371
87.9721
45.4375
19.409
11.3121
9.66766
9.68994
9.72724
9.38035
9.00218
8.60845
8.30069
8.23042
8.34623
8.58207
8.87017
9.10273
9.13043
8.75547
7.83304
6.31812
4.43192
2.69969
1.48259
1.01475
1.2041
1.66597
2.55982
0.00414021
0.00417573
0.00436447
0.00465648
0.00475244
0.00512871
0.00629017
0.00426071
0.000131763
3.87425e-07
0.00678643
0.0859945
3.88419
28.9117
81.061
104.512
79.2267
44.7386
22.2641
14.0434
12.1146
11.9225
11.9858
11.6705
11.2399
11.0724
11.1403
11.4023
11.8041
12.2859
12.683
12.7647
12.2827
11.0928
9.30828
7.34328
5.5717
4.11555
3.08415
2.64148
3.16625
0.00238661
0.00241475
0.00252918
0.00269692
0.00287785
0.00298954
0.00318285
0.00366692
0.00335035
0.000366244
1.45543e-06
8.5943e-05
0.015146
0.308486
6.01657
32.2619
77.3514
97.5925
80.055
52.3898
30.553
19.9305
16.2998
15.0481
14.6233
14.6285
14.8503
15.1625
15.629
16.2972
17.059
17.6959
17.8611
17.3124
16.0624
14.4723
12.9927
11.6906
10.6944
10.2826
10.6174
0.00137504
0.00139565
0.0014606
0.00156008
0.00167711
0.00179646
0.00189182
0.00199161
0.00227017
0.00220602
0.000931962
2.11154e-11
1.89339e-09
0.00225798
2.56981e-05
0.444978
6.07908
28.4921
67.0492
92.5415
88.7757
71.3464
52.9607
38.578
29.7839
25.2583
23.2081
22.4276
22.459
23.0948
24.1884
25.4494
26.4998
26.7904
26.0976
25.0097
24.0895
23.1641
22.0508
21.2453
20.6832
0.000789826
0.000803928
0.000840273
0.000897393
0.000968164
0.00104739
0.00113013
0.00120206
0.00127611
0.00139192
0.00153507
0.00108608
3.01489e-05
2.95712e-07
7.31175e-09
0.00767842
0.00193012
0.331553
4.0234
18.8665
48.2434
77.6436
92.4993
94.3974
89.5321
81.9374
73.9636
67.1221
62.0271
58.6853
56.7904
55.8124
55.1151
53.6613
50.7864
47.0722
42.794
38.1853
33.6962
29.6231
27.1057
0.000451092
0.000460325
0.000480732
0.000512841
0.000554256
0.000602952
0.000656863
0.000713961
0.000769364
0.000820822
0.000883683
0.00104908
0.00089511
0.000394925
1.53591e-08
1.01777e-08
5.13108e-07
0.0108952
0.00254053
0.109038
1.38909
6.82512
18.6927
35.5256
52.9615
67.2337
77.0179
82.7792
85.4029
85.6313
83.8954
80.4545
75.2238
68.4301
60.4657
50.9391
40.6925
31.6875
24.8091
19.6771
17.0414
0.000255617
0.000261396
0.000272796
0.000290588
0.000314013
0.000342483
0.000375388
0.000411879
0.00045114
0.00049141
0.000528186
0.000578513
0.000650903
0.000715916
0.00052776
9.90077e-05
5.10726e-07
1.80689e-09
7.73151e-07
0.00832681
0.0297903
0.0154383
0.0725633
0.418479
1.45289
3.39354
6.08069
9.049
11.7417
13.6943
14.6261
14.4614
13.2984
11.4187
9.13895
6.94961
5.2775
4.21219
3.59144
3.19128
2.89492
0.000144148
0.000147614
0.000153984
0.000163779
0.000176782
0.00019286
0.00021186
0.000233559
0.00025774
0.000284145
0.000311811
0.000339841
0.000371825
0.000412779
0.0004736
0.00048612
0.000342653
5.01003e-05
3.1622e-07
2.33985e-09
3.74263e-15
0.000667691
0.014214
0.0299615
0.011466
0.0191808
0.0185121
0.0112413
0.00541622
0.0072463
0.0191627
0.0411061
0.0722794
0.11081
0.15268
0.190964
0.216519
0.222855
0.207992
0.178736
0.140197
8.25726e-05
8.46594e-05
8.83408e-05
9.38973e-05
0.000101282
0.000110471
0.00012144
0.000134134
0.000148491
0.000164581
0.000182145
0.000200946
0.00022095
0.000241903
0.000268064
0.000302607
0.000344732
0.000350842
0.000238242
5.97294e-05
1.00351e-10
4.38495e-09
3.63654e-10
3.50418e-17
9.93426e-06
0.000636174
0.00499891
0.0111707
0.0165115
0.020638
0.0238596
4.1172e-06
0.00076762
0.00291242
0.0073464
0.00306235
0.000324576
0.000229181
0.000161523
7.01554e-05
1.13271e-05
4.89276e-05
5.02233e-05
5.2436e-05
5.57123e-05
6.0061e-05
6.54983e-05
7.20276e-05
7.96558e-05
8.84026e-05
9.82465e-05
0.000109171
0.000121072
0.000133944
0.000147731
0.000162449
0.000178467
0.000198852
0.000225619
0.000256021
0.000262753
0.000195692
8.73836e-05
1.19555e-05
1.31597e-12
3.12099e-09
1.32899e-09
5.35239e-10
1.76521e-10
4.91534e-11
1.27396e-11
3.7569e-12
1.56688e-10
8.74148e-09
3.75273e-08
1.46728e-07
3.70431e-08
4.51503e-09
3.92792e-09
3.33705e-09
2.23394e-09
9.98674e-10
3.00236e-05
3.08387e-05
3.21992e-05
3.41821e-05
3.681e-05
4.01055e-05
4.40773e-05
4.87366e-05
5.41144e-05
6.02078e-05
6.70569e-05
7.45987e-05
8.27912e-05
9.16424e-05
0.000101151
0.000111256
0.000122018
0.000134032
0.000149298
0.000168322
0.000190625
0.000201437
0.000192548
0.000155756
0.000106128
5.90642e-05
2.6912e-05
9.94424e-06
3.07069e-06
8.7564e-07
2.82645e-07
1.35305e-07
1.19903e-07
1.86027e-07
3.9602e-07
1.05353e-06
2.29314e-06
4.28463e-06
7.14994e-06
1.10385e-05
1.54531e-05
1.89147e-05
1.9428e-05
2.02795e-05
2.15064e-05
2.31293e-05
2.51696e-05
2.76322e-05
3.05256e-05
3.38601e-05
3.76745e-05
4.19495e-05
4.67114e-05
5.19089e-05
5.75226e-05
6.35496e-05
6.99959e-05
7.68036e-05
8.39394e-05
9.14966e-05
9.98454e-05
0.000109906
0.000121683
0.000134473
0.000146868
0.000155882
0.000159587
0.000157812
0.000151963
0.000143914
0.000135567
0.000128177
0.000122451
0.000118686
0.000116695
0.000116242
0.000116989
0.000118428
0.000119725
0.000120856
0.000121261
0.000121403
1.21723e-05
1.24987e-05
1.30421e-05
1.38165e-05
1.48398e-05
1.61259e-05
1.76796e-05
1.9504e-05
2.16054e-05
2.40009e-05
2.66889e-05
2.96981e-05
3.29957e-05
3.65466e-05
4.03427e-05
4.43794e-05
4.86417e-05
5.30892e-05
5.76814e-05
6.23787e-05
6.73363e-05
7.2622e-05
7.8123e-05
8.3811e-05
8.9614e-05
9.53004e-05
0.000100549
0.000105099
0.000108762
0.000111469
0.00011318
0.000113958
0.000113848
0.000112937
0.000111329
0.00010912
0.000106403
0.000103137
9.95776e-05
9.52647e-05
9.19245e-05
7.96836e-06
8.17872e-06
8.53101e-06
9.02823e-06
9.68381e-06
1.05075e-05
1.15024e-05
1.26682e-05
1.4009e-05
1.55279e-05
1.72417e-05
1.91462e-05
2.12432e-05
2.34985e-05
2.58954e-05
2.84221e-05
3.10705e-05
3.38114e-05
3.66163e-05
3.94393e-05
4.23323e-05
4.52803e-05
4.81187e-05
5.0759e-05
5.31883e-05
5.5398e-05
5.7362e-05
5.90441e-05
6.04006e-05
6.13913e-05
6.19894e-05
6.21746e-05
6.19427e-05
6.13034e-05
6.02951e-05
5.89429e-05
5.73135e-05
5.53885e-05
5.33592e-05
5.08087e-05
4.92589e-05
5.29117e-06
5.42842e-06
5.65982e-06
5.9844e-06
6.41108e-06
6.94659e-06
7.59238e-06
8.34739e-06
9.2136e-06
1.01909e-05
1.12882e-05
1.25017e-05
1.38419e-05
1.52836e-05
1.68055e-05
1.8396e-05
2.00455e-05
2.17364e-05
2.34447e-05
2.5139e-05
2.68452e-05
2.85642e-05
3.01904e-05
3.16569e-05
3.29441e-05
3.40388e-05
3.49323e-05
3.56128e-05
3.60804e-05
3.63315e-05
3.63718e-05
3.62011e-05
3.58349e-05
3.52792e-05
3.45581e-05
3.3687e-05
3.26963e-05
3.15607e-05
3.04192e-05
2.89225e-05
2.83047e-05
3.55479e-06
3.64611e-06
3.80051e-06
4.01551e-06
4.29714e-06
4.65008e-06
5.07445e-06
5.56934e-06
6.13498e-06
6.77108e-06
7.4781e-06
8.26081e-06
9.12156e-06
1.00483e-05
1.10218e-05
1.20302e-05
1.30649e-05
1.41144e-05
1.51615e-05
1.61837e-05
1.71959e-05
1.82032e-05
1.9144e-05
1.99778e-05
2.06953e-05
2.12891e-05
2.17557e-05
2.20888e-05
2.22919e-05
2.23636e-05
2.23113e-05
2.21405e-05
2.18618e-05
2.14801e-05
2.10128e-05
2.04722e-05
1.98733e-05
1.91987e-05
1.85469e-05
1.76341e-05
1.7467e-05
2.41237e-06
2.47386e-06
2.57839e-06
2.72303e-06
2.91145e-06
3.147e-06
3.42922e-06
3.75736e-06
4.13074e-06
4.54922e-06
5.01083e-06
5.52036e-06
6.07555e-06
6.67462e-06
7.30243e-06
7.94764e-06
8.60252e-06
9.25962e-06
9.90739e-06
1.05303e-05
1.1138e-05
1.17366e-05
1.22884e-05
1.27701e-05
1.31769e-05
1.35068e-05
1.37583e-05
1.39306e-05
1.40247e-05
1.40433e-05
1.39904e-05
1.38724e-05
1.3692e-05
1.3456e-05
1.31735e-05
1.28545e-05
1.25039e-05
1.21098e-05
1.17443e-05
1.11808e-05
1.12385e-05
1.65073e-06
1.69328e-06
1.76511e-06
1.86354e-06
1.99128e-06
2.15037e-06
2.34025e-06
2.56016e-06
2.80934e-06
3.08747e-06
3.3927e-06
3.72657e-06
4.08824e-06
4.47869e-06
4.88729e-06
5.30443e-06
5.72367e-06
6.13973e-06
6.54542e-06
6.93031e-06
7.30107e-06
7.66378e-06
7.99483e-06
8.28089e-06
8.51903e-06
8.7098e-06
8.85243e-06
8.94782e-06
8.99619e-06
9.00119e-06
8.96504e-06
8.89213e-06
8.78373e-06
8.64453e-06
8.48045e-06
8.29728e-06
8.09703e-06
7.87037e-06
7.67171e-06
7.31951e-06
7.48019e-06
1.13789e-06
1.16766e-06
1.21777e-06
1.28573e-06
1.37338e-06
1.48207e-06
1.61124e-06
1.76015e-06
1.92818e-06
2.11485e-06
2.3189e-06
2.53978e-06
2.77853e-06
3.03482e-06
3.30291e-06
3.57548e-06
3.84712e-06
4.11411e-06
4.37177e-06
4.61347e-06
4.84389e-06
5.06868e-06
5.27255e-06
5.44793e-06
5.59302e-06
5.70909e-06
5.79557e-06
5.85364e-06
5.88403e-06
5.88913e-06
5.87025e-06
5.83017e-06
5.77014e-06
5.69267e-06
5.60174e-06
5.50053e-06
5.38996e-06
5.26213e-06
5.15921e-06
4.93503e-06
5.1328e-06
7.89114e-07
8.10591e-07
8.4597e-07
8.93373e-07
9.54275e-07
1.02933e-06
1.11812e-06
1.21996e-06
1.3344e-06
1.46088e-06
1.5986e-06
1.74648e-06
1.90565e-06
2.07508e-06
2.25262e-06
2.43274e-06
2.6111e-06
2.78487e-06
2.95117e-06
3.10564e-06
3.25199e-06
3.39465e-06
3.52398e-06
3.63513e-06
3.72755e-06
3.80186e-06
3.85842e-06
3.89779e-06
3.92102e-06
3.92897e-06
3.9231e-06
3.90485e-06
3.87529e-06
3.83547e-06
3.7883e-06
3.73542e-06
3.67723e-06
3.60725e-06
3.5582e-06
3.41275e-06
3.61351e-06
5.50131e-07
5.6583e-07
5.912e-07
6.24717e-07
6.6742e-07
7.19809e-07
7.81477e-07
8.51837e-07
9.3054e-07
1.0171e-06
1.11096e-06
1.2112e-06
1.3182e-06
1.43129e-06
1.55003e-06
1.6704e-06
1.78903e-06
1.90379e-06
2.01294e-06
2.11355e-06
2.20866e-06
2.30149e-06
2.38593e-06
2.45881e-06
2.52021e-06
2.57041e-06
2.60992e-06
2.63901e-06
2.65854e-06
2.66899e-06
2.67136e-06
2.66654e-06
2.65505e-06
2.63744e-06
2.61555e-06
2.59041e-06
2.56194e-06
2.52508e-06
2.50512e-06
2.40811e-06
2.59375e-06
3.85161e-07
3.96949e-07
4.15293e-07
4.39281e-07
4.69593e-07
5.06544e-07
5.49806e-07
5.98904e-07
6.5355e-07
7.13385e-07
7.77985e-07
8.46695e-07
9.19312e-07
9.95724e-07
1.07597e-06
1.15727e-06
1.23728e-06
1.31426e-06
1.38713e-06
1.45393e-06
1.51713e-06
1.57905e-06
1.6358e-06
1.68524e-06
1.72756e-06
1.76304e-06
1.79212e-06
1.81493e-06
1.83198e-06
1.84366e-06
1.85052e-06
1.8531e-06
1.85155e-06
1.84624e-06
1.8383e-06
1.82845e-06
1.81638e-06
1.79829e-06
1.79366e-06
1.72793e-06
1.89088e-06
2.70616e-07
2.79589e-07
2.93119e-07
3.10496e-07
3.32199e-07
3.5854e-07
3.89166e-07
4.2375e-07
4.62039e-07
5.03793e-07
5.48659e-07
5.9622e-07
6.46068e-07
6.98428e-07
7.53067e-07
8.08556e-07
8.63162e-07
9.15608e-07
9.65113e-07
1.01045e-06
1.0534e-06
1.09579e-06
1.13492e-06
1.16957e-06
1.19974e-06
1.22574e-06
1.24784e-06
1.26622e-06
1.28105e-06
1.29265e-06
1.30128e-06
1.30738e-06
1.31085e-06
1.31202e-06
1.31155e-06
1.30999e-06
1.30693e-06
1.29954e-06
1.30271e-06
1.25752e-06
1.39599e-06
1.90724e-07
1.97668e-07
2.07727e-07
2.20466e-07
2.36188e-07
2.55101e-07
2.76975e-07
3.01562e-07
3.28643e-07
3.5805e-07
3.89498e-07
4.2272e-07
4.57338e-07
4.93538e-07
5.31077e-07
5.69356e-07
6.07062e-07
6.43284e-07
6.77453e-07
7.08804e-07
7.38586e-07
7.68224e-07
7.95822e-07
8.20653e-07
8.42719e-07
8.62301e-07
8.79458e-07
8.94371e-07
9.07127e-07
9.17956e-07
9.26951e-07
9.34393e-07
9.40149e-07
9.44428e-07
9.47618e-07
9.50062e-07
9.5144e-07
9.49555e-07
9.5583e-07
9.23777e-07
1.03752e-06
1.34726e-07
1.40157e-07
1.47759e-07
1.57162e-07
1.68663e-07
1.82368e-07
1.98146e-07
2.15783e-07
2.35123e-07
2.5602e-07
2.78276e-07
3.01698e-07
3.26e-07
3.51249e-07
3.77319e-07
4.04e-07
4.30318e-07
4.55646e-07
4.79539e-07
5.01564e-07
5.22583e-07
5.43632e-07
5.63417e-07
5.81483e-07
5.97817e-07
6.12646e-07
6.26016e-07
6.38002e-07
6.48679e-07
6.58171e-07
6.66529e-07
6.73878e-07
6.80131e-07
6.85381e-07
6.89888e-07
6.93809e-07
6.96969e-07
6.97626e-07
7.0451e-07
6.81278e-07
7.71559e-07
9.53614e-08
9.96438e-08
1.05397e-07
1.12438e-07
1.2092e-07
1.30957e-07
1.42443e-07
1.55211e-07
1.69144e-07
1.84123e-07
2.00021e-07
2.16679e-07
2.33915e-07
2.51687e-07
2.69975e-07
2.88732e-07
3.07302e-07
3.25209e-07
3.42166e-07
3.57873e-07
3.72987e-07
3.8818e-07
4.02636e-07
4.16018e-07
4.28355e-07
4.39745e-07
4.50254e-07
4.59893e-07
4.68723e-07
4.76778e-07
4.84112e-07
4.9077e-07
4.96698e-07
5.019e-07
5.06568e-07
5.1076e-07
5.14393e-07
5.16069e-07
5.22365e-07
5.05443e-07
5.74588e-07
6.75923e-08
7.09853e-08
7.53845e-08
8.06809e-08
8.70109e-08
9.44201e-08
1.02855e-07
1.12183e-07
1.223e-07
1.3313e-07
1.44572e-07
1.56526e-07
1.68853e-07
1.81475e-07
1.94416e-07
2.07701e-07
2.20879e-07
2.33621e-07
2.45725e-07
2.56979e-07
2.67845e-07
2.78793e-07
2.89303e-07
2.99145e-07
3.08346e-07
3.16965e-07
3.25036e-07
3.32582e-07
3.39621e-07
3.46169e-07
3.52228e-07
3.57818e-07
3.62874e-07
3.67399e-07
3.71497e-07
3.75182e-07
3.78409e-07
3.80134e-07
3.85152e-07
3.72677e-07
4.23294e-07
4.79767e-08
5.06606e-08
5.40293e-08
5.80492e-08
6.28014e-08
6.83208e-08
7.45648e-08
8.14308e-08
8.88396e-08
9.67253e-08
1.05023e-07
1.13654e-07
1.22535e-07
1.31583e-07
1.40847e-07
1.50309e-07
1.59741e-07
1.68894e-07
1.77632e-07
1.8582e-07
1.93775e-07
2.01794e-07
2.09566e-07
2.16923e-07
2.23875e-07
2.30468e-07
2.36721e-07
2.42622e-07
2.48176e-07
2.53373e-07
2.58213e-07
2.6268e-07
2.66745e-07
2.70381e-07
2.73658e-07
2.76539e-07
2.79048e-07
2.80372e-07
2.83966e-07
2.74642e-07
3.09249e-07
3.40843e-08
3.62091e-08
3.87956e-08
4.18571e-08
4.5441e-08
4.958e-08
5.42261e-08
5.93198e-08
6.47858e-08
7.05707e-08
7.66208e-08
8.28856e-08
8.93095e-08
9.58217e-08
1.02464e-07
1.09208e-07
1.15936e-07
1.22472e-07
1.28725e-07
1.34608e-07
1.4033e-07
1.46092e-07
1.51702e-07
1.57051e-07
1.62142e-07
1.66991e-07
1.71605e-07
1.75968e-07
1.80084e-07
1.83932e-07
1.87508e-07
1.90794e-07
1.93766e-07
1.9639e-07
1.98698e-07
2.00653e-07
2.02292e-07
2.03011e-07
2.05222e-07
1.98209e-07
2.19808e-07
2.42343e-08
2.59029e-08
2.78937e-08
3.02384e-08
3.29601e-08
3.60662e-08
3.95352e-08
4.332e-08
4.73658e-08
5.16321e-08
5.60706e-08
6.06458e-08
6.53119e-08
7.00342e-08
7.48335e-08
7.97082e-08
8.45889e-08
8.93552e-08
9.39273e-08
9.82592e-08
1.02471e-07
1.06691e-07
1.10811e-07
1.14756e-07
1.18519e-07
1.22112e-07
1.25531e-07
1.28764e-07
1.31799e-07
1.34625e-07
1.37228e-07
1.39597e-07
1.41697e-07
1.4351e-07
1.45042e-07
1.46265e-07
1.47217e-07
1.47462e-07
1.48659e-07
1.43383e-07
1.54849e-07
1.72316e-08
1.85324e-08
2.0063e-08
2.18605e-08
2.39383e-08
2.62896e-08
2.88851e-08
3.16978e-08
3.46838e-08
3.78139e-08
4.10658e-08
4.44106e-08
4.78098e-08
5.12171e-08
5.46294e-08
5.80511e-08
6.14647e-08
6.48004e-08
6.80055e-08
7.105e-08
7.39931e-08
7.69042e-08
7.97346e-08
8.24371e-08
8.5005e-08
8.74375e-08
8.97304e-08
9.18704e-08
9.38456e-08
9.56416e-08
9.7248e-08
9.86481e-08
9.98199e-08
1.00747e-07
1.01433e-07
1.01841e-07
1.02034e-07
1.01683e-07
1.01926e-07
9.77685e-08
1.01874e-07
1.22687e-08
1.32666e-08
1.44284e-08
1.57905e-08
1.73559e-08
1.91256e-08
2.108e-08
2.31918e-08
2.54178e-08
2.77191e-08
3.00828e-08
3.25022e-08
3.49752e-08
3.74833e-08
4.00163e-08
4.25461e-08
4.50391e-08
4.74455e-08
4.97437e-08
5.19296e-08
5.40376e-08
5.60986e-08
5.81033e-08
6.00145e-08
6.18256e-08
6.35316e-08
6.51236e-08
6.65877e-08
6.7912e-08
6.90854e-08
7.00931e-08
7.09231e-08
7.1562e-08
7.20024e-08
7.22432e-08
7.22572e-08
7.21119e-08
7.15661e-08
7.13904e-08
6.83227e-08
6.78533e-08
8.75896e-09
9.52501e-09
1.04005e-08
1.14058e-08
1.25492e-08
1.38268e-08
1.52514e-08
1.68138e-08
1.84907e-08
2.02368e-08
2.20098e-08
2.37714e-08
2.55046e-08
2.72106e-08
2.89169e-08
3.06447e-08
3.2388e-08
3.40917e-08
3.57116e-08
3.72279e-08
3.86408e-08
3.99596e-08
4.11943e-08
4.23287e-08
4.33573e-08
4.42787e-08
4.50856e-08
4.57736e-08
4.63339e-08
4.67611e-08
4.70439e-08
4.71764e-08
4.71546e-08
4.69776e-08
4.66471e-08
4.61424e-08
4.55464e-08
4.46629e-08
4.40845e-08
4.15156e-08
3.88814e-08
6.25409e-09
6.83353e-09
7.49955e-09
8.25515e-09
9.08361e-09
9.98545e-09
1.09676e-08
1.2039e-08
1.32037e-08
1.44632e-08
1.58076e-08
1.72061e-08
1.86064e-08
1.99463e-08
2.11834e-08
2.2306e-08
2.33538e-08
2.43633e-08
2.53466e-08
2.63044e-08
2.72214e-08
2.80933e-08
2.8925e-08
2.96969e-08
3.03946e-08
3.10077e-08
3.15274e-08
3.19461e-08
3.22565e-08
3.24519e-08
3.25272e-08
3.24791e-08
3.23113e-08
3.20257e-08
3.16318e-08
3.112e-08
3.05663e-08
2.98318e-08
2.9344e-08
2.75498e-08
2.46009e-08
4.44651e-09
4.8568e-09
5.33744e-09
5.8958e-09
6.52344e-09
7.21473e-09
7.95412e-09
8.71716e-09
9.48797e-09
1.02633e-08
1.10603e-08
1.19139e-08
1.28596e-08
1.39186e-08
1.50825e-08
1.62812e-08
1.73946e-08
1.83591e-08
1.91596e-08
1.98181e-08
2.03416e-08
2.07333e-08
2.10313e-08
2.12357e-08
2.1351e-08
2.13779e-08
2.13177e-08
2.11699e-08
2.0936e-08
2.0616e-08
2.02132e-08
1.97316e-08
1.91821e-08
1.85755e-08
1.79306e-08
1.72494e-08
1.66171e-08
1.58996e-08
1.56084e-08
1.39844e-08
1.34903e-08
3.18912e-09
3.45123e-09
3.73579e-09
4.05924e-09
4.44459e-09
4.92123e-09
5.5011e-09
6.17562e-09
6.90594e-09
7.6309e-09
8.27713e-09
8.78411e-09
9.12657e-09
9.3236e-09
9.43234e-09
9.56632e-09
9.84268e-09
1.02337e-08
1.06827e-08
1.11431e-08
1.15758e-08
1.19611e-08
1.22929e-08
1.25594e-08
1.27501e-08
1.28579e-08
1.28797e-08
1.28131e-08
1.26594e-08
1.24209e-08
1.2104e-08
1.17156e-08
1.12703e-08
1.07833e-08
1.02761e-08
9.76312e-09
9.30873e-09
8.85721e-09
8.72222e-09
7.83383e-09
8.16155e-09
2.35429e-09
2.54598e-09
2.71307e-09
2.85311e-09
2.98013e-09
3.12305e-09
3.31244e-09
3.58209e-09
3.97427e-09
4.53293e-09
5.29517e-09
6.27333e-09
7.44779e-09
8.75525e-09
1.01194e-08
1.12915e-08
1.20159e-08
1.24373e-08
1.26448e-08
1.27035e-08
1.26255e-08
1.24292e-08
1.21515e-08
1.18096e-08
1.14119e-08
1.09689e-08
1.04862e-08
9.97514e-09
9.44509e-09
8.9102e-09
8.38412e-09
7.88766e-09
7.44585e-09
7.09092e-09
6.86341e-09
6.79837e-09
6.99289e-09
7.32883e-09
8.58662e-09
7.81653e-09
1.69957e-08
1.78991e-09
1.96514e-09
2.1312e-09
2.2659e-09
2.34692e-09
2.36704e-09
2.3348e-09
2.26946e-09
2.20313e-09
2.16481e-09
2.17532e-09
2.24034e-09
2.34808e-09
2.47025e-09
2.5608e-09
2.68943e-09
2.904e-09
3.17686e-09
3.49036e-09
3.81484e-09
4.12753e-09
4.4087e-09
4.64526e-09
4.82565e-09
4.93485e-09
4.96283e-09
4.90262e-09
4.75168e-09
4.5095e-09
4.18036e-09
3.77192e-09
3.2977e-09
2.77654e-09
2.2339e-09
1.69999e-09
1.21484e-09
8.26134e-10
5.86931e-10
6.23903e-10
5.3264e-10
3.43912e-09
1.36935e-09
1.38313e-09
1.54164e-09
2.04112e-09
3.01439e-09
4.48477e-09
6.35989e-09
8.46438e-09
1.05858e-08
1.25279e-08
1.41382e-08
1.53293e-08
1.60823e-08
1.64211e-08
1.64582e-08
1.59298e-08
1.51171e-08
1.43826e-08
1.37825e-08
1.32964e-08
1.28869e-08
1.26476e-08
1.2467e-08
1.23312e-08
1.22187e-08
1.21143e-08
1.20146e-08
1.19204e-08
1.18431e-08
1.1799e-08
1.18197e-08
1.19461e-08
1.22377e-08
1.27657e-08
1.36331e-08
1.49423e-08
1.68888e-08
1.93721e-08
2.38923e-08
2.45332e-08
5.21902e-08
979.443
358.786
77.1934
3.12858
0.0586817
0.000446869
8.51433e-06
9.10367e-05
0.00557772
0.669573
1.94582
0.0844919
2.0041
6.48781
9.50702
10.2468
9.68639
8.78287
8.14016
8.00497
8.54032
9.84044
11.9917
14.9898
18.6321
22.3805
25.2918
26.0327
23.4632
17.6023
10.3249
4.29353
1.03463
0.0959914
0.000892117
7.2864e-12
5.16831e-11
5.09336e-06
7.55975e-05
9.83438e-05
7.16146e-05
5.09054e-05
3.79719e-05
2.74647e-05
1.84214e-05
1.14675e-05
6.55902e-06
3.44714e-06
1.74569e-06
9.50965e-07
6.41456e-07
6.50662e-07
7.51769e-07
8.83044e-07
9.77776e-07
1.02911e-06
1.03073e-06
1.00483e-06
9.38622e-07
8.69472e-07
7.74926e-07
6.97209e-07
6.08726e-07
5.27452e-07
4.58602e-07
3.87928e-07
3.36025e-07
2.83823e-07
2.41392e-07
2.03015e-07
1.72652e-07
1.43971e-07
1.2279e-07
1.04158e-07
866.645
651.694
249.555
40.6101
0.64217
0.0142171
3.27908e-07
1.57446e-07
0.0142477
0.789393
0.953987
0.122152
1.87926
3.80536
4.34118
3.88798
3.17907
2.51324
1.94291
1.41443
0.983229
0.805343
1.14359
2.30143
4.52305
7.84273
11.9091
15.8096
18.1112
17.3694
13.2798
7.47965
2.69826
0.475575
0.0251008
0.000136205
4.17401e-19
5.27906e-11
2.31105e-05
7.93223e-05
6.85008e-05
4.63858e-05
3.26242e-05
2.29752e-05
1.5268e-05
9.52593e-06
5.46424e-06
2.92952e-06
1.56124e-06
9.23135e-07
6.60728e-07
6.63105e-07
7.33342e-07
8.31956e-07
8.96387e-07
9.31794e-07
9.22669e-07
8.94279e-07
8.31341e-07
7.69968e-07
6.84967e-07
6.16629e-07
5.40297e-07
4.67043e-07
4.08018e-07
3.45114e-07
2.99477e-07
2.54001e-07
2.16185e-07
1.81871e-07
1.55172e-07
1.29406e-07
1.10606e-07
9.41894e-08
516.706
652.474
413.123
144.382
14.7752
0.162608
0.0292339
0
0.0222773
0.643968
0.371667
0.274729
1.89218
3.48324
4.574
5.52402
6.53091
7.3952
7.79506
7.47725
6.397
4.71882
2.7876
1.08098
0.13597
0.435749
2.24456
5.40719
9.14837
12.0609
12.5625
9.91595
5.35438
1.62473
0.198101
0.00509477
1.56901e-06
5.50511e-13
6.13237e-07
3.83992e-05
5.92106e-05
4.22073e-05
2.78535e-05
1.89107e-05
1.25416e-05
7.96425e-06
4.69466e-06
2.68951e-06
1.57959e-06
1.03094e-06
7.80031e-07
7.40669e-07
7.59363e-07
8.08254e-07
8.38532e-07
8.4175e-07
8.22366e-07
7.85183e-07
7.27412e-07
6.68585e-07
5.97334e-07
5.32426e-07
4.69635e-07
4.06319e-07
3.54766e-07
3.02182e-07
2.6053e-07
2.22729e-07
1.89785e-07
1.60119e-07
1.36651e-07
1.143e-07
9.79693e-08
8.38108e-08
302.451
521.224
476.151
270.395
74.5511
4.46088
0.0777668
0.00626168
0.0266476
0.487487
0.194678
0.399351
2.29071
4.6862
7.20428
9.91574
12.7319
15.2603
17.0097
17.5816
16.8023
14.7364
11.6673
8.05788
4.50123
1.6586
0.141703
0.359034
2.31409
5.40427
8.3626
9.5363
7.79912
4.01354
1.00279
0.0827228
0.0005537
1.22416e-11
1.32253e-09
6.33248e-06
3.88747e-05
3.79669e-05
2.46869e-05
1.5902e-05
1.04849e-05
6.81058e-06
4.17811e-06
2.57838e-06
1.65e-06
1.14557e-06
8.92487e-07
8.06967e-07
7.76234e-07
7.78913e-07
7.7747e-07
7.56228e-07
7.27121e-07
6.84285e-07
6.31161e-07
5.75966e-07
5.15921e-07
4.57001e-07
4.05048e-07
3.51293e-07
3.06613e-07
2.62883e-07
2.25871e-07
1.94294e-07
1.65926e-07
1.40433e-07
1.20031e-07
1.00638e-07
8.6637e-08
7.44745e-08
185.599
375.434
441.059
349.05
171.851
35.5633
1.39834
0.0267677
0.0297328
0.35514
0.128501
0.424815
2.39253
5.31725
8.7953
12.6936
16.7978
20.6845
23.8189
25.7134
26.0579
24.7566
21.937
17.9204
13.19
8.3675
4.14383
1.18762
0.00995334
0.76207
3.04395
5.77556
7.30962
6.23126
3.06282
0.640238
0.0377605
1.03314e-14
5.93696e-11
2.35679e-14
9.92123e-06
2.895e-05
2.25914e-05
1.40309e-05
9.04516e-06
5.98552e-06
3.83842e-06
2.52224e-06
1.71797e-06
1.23444e-06
9.73075e-07
8.45821e-07
7.73914e-07
7.38252e-07
7.08477e-07
6.73969e-07
6.35941e-07
5.91693e-07
5.42389e-07
4.92846e-07
4.41131e-07
3.90549e-07
3.47356e-07
3.021e-07
2.6413e-07
2.27502e-07
1.95678e-07
1.69102e-07
1.4487e-07
1.22976e-07
1.05477e-07
8.85743e-08
7.66917e-08
6.62582e-08
119.612
252.535
354.371
352.454
252.224
106.32
17.0954
0.524052
0.0489849
0.262482
0.111042
0.372583
2.12778
4.99282
8.61844
12.8114
17.3612
21.9213
26.021
29.1685
30.9606
31.1453
29.6591
26.6187
22.3012
17.1469
11.7243
6.69467
2.74432
0.44936
0.106214
1.52849
3.85136
5.52252
4.93504
2.34457
0.432643
0.0204142
1.25572e-07
6.66758e-14
8.63501e-09
1.01597e-05
1.85707e-05
1.30366e-05
8.25592e-06
5.50509e-06
3.68698e-06
2.55696e-06
1.82356e-06
1.34378e-06
1.0563e-06
8.8654e-07
7.74619e-07
7.04414e-07
6.49088e-07
6.02477e-07
5.56217e-07
5.10971e-07
4.64618e-07
4.20392e-07
3.75619e-07
3.3276e-07
2.96891e-07
2.58891e-07
2.26971e-07
1.96378e-07
1.69382e-07
1.47021e-07
1.2639e-07
1.07609e-07
9.27359e-08
7.79895e-08
6.79877e-08
5.90278e-08
78.6438
159.515
253.51
296.634
274.374
179.669
66.4285
8.80676
0.136324
0.149868
0.136213
0.30038
1.62584
3.93408
7.00441
10.6977
14.8773
19.3215
23.6945
27.5868
30.5887
32.3553
32.6655
31.437
28.7193
24.7132
19.7524
14.3151
9.00129
4.46909
1.33542
0.034337
0.592181
2.38649
4.01157
3.79573
1.78312
0.311538
0.0147901
0.000683955
1.39856e-10
1.3665e-07
7.9961e-06
1.14349e-05
8.03786e-06
5.38781e-06
3.72206e-06
2.69461e-06
1.99153e-06
1.49654e-06
1.16715e-06
9.4941e-07
7.95347e-07
6.90084e-07
6.10083e-07
5.48046e-07
4.93126e-07
4.45019e-07
4.00208e-07
3.5952e-07
3.20484e-07
2.83526e-07
2.53606e-07
2.21679e-07
1.94815e-07
1.69444e-07
1.46583e-07
1.27821e-07
1.10294e-07
9.42027e-08
8.16179e-08
6.87537e-08
6.04126e-08
5.26841e-08
47.9671
93.0269
159.325
212.021
236.29
208.358
127.417
42.7348
4.4359
0.379804
0.284595
0.42473
1.24858
2.76409
4.8928
7.59267
10.8235
14.4888
18.4064
22.3072
25.8635
28.7337
30.6231
31.3148
30.6762
28.6875
25.4307
21.127
16.1401
10.9689
6.20919
2.5015
0.391731
0.110786
1.29199
2.72756
2.79075
1.33282
0.236458
0.0122057
1.57077e-09
8.64622e-08
1.30754e-07
5.47689e-06
7.55586e-06
5.60108e-06
3.94365e-06
2.92449e-06
2.21757e-06
1.68919e-06
1.30886e-06
1.03892e-06
8.40869e-07
6.98425e-07
5.92742e-07
5.12561e-07
4.47351e-07
3.94267e-07
3.49139e-07
3.10052e-07
2.75035e-07
2.42309e-07
2.16931e-07
1.9005e-07
1.67286e-07
1.46251e-07
1.26907e-07
1.11186e-07
9.63491e-08
8.25708e-08
7.19699e-08
6.07171e-08
5.38433e-08
4.71351e-08
22.6949
45.945
83.7424
125.092
162.286
178.71
153.251
89.8952
27.8206
4.57134
1.74373
1.27129
1.47363
2.13361
3.22882
4.77748
6.80695
9.31199
12.2369
15.4588
18.7835
21.9587
24.7141
26.7943
27.9732
28.0871
27.0256
24.7768
21.4383
17.2401
12.5473
7.87743
3.85231
1.08861
0.0198439
0.540594
1.68034
1.93095
0.969607
0.18419
0.0116133
3.14164e-05
2.3344e-06
1.22302e-07
3.8725e-06
5.57643e-06
4.35128e-06
3.25855e-06
2.49792e-06
1.91712e-06
1.48006e-06
1.15516e-06
9.10992e-07
7.29505e-07
5.95974e-07
4.95876e-07
4.18331e-07
3.5816e-07
3.10657e-07
2.71328e-07
2.38516e-07
2.08544e-07
1.86328e-07
1.63457e-07
1.43945e-07
1.26388e-07
1.10003e-07
9.68147e-08
8.42946e-08
7.24963e-08
6.3612e-08
5.37349e-08
4.81548e-08
4.22876e-08
6.77045
17.6375
33.7988
56.3568
84.0451
111.837
125.604
108.123
62.9796
22.9033
8.53385
4.4779
2.90448
2.41529
2.50585
3.00618
3.90014
5.20515
6.93452
9.07224
11.5543
14.2565
17.0053
19.5964
21.8093
23.4353
24.2729
24.1672
23.0178
20.8078
17.6182
13.68
9.38747
5.2862
2.04514
0.271196
0.12142
0.890561
1.23814
0.678268
0.143912
0.0113553
0.000254944
2.19603e-05
2.58856e-07
2.95926e-06
4.48805e-06
3.71406e-06
2.85763e-06
2.18797e-06
1.68449e-06
1.29815e-06
1.00592e-06
7.82494e-07
6.19292e-07
4.96893e-07
4.05443e-07
3.36006e-07
2.83919e-07
2.42594e-07
2.1017e-07
1.81659e-07
1.61294e-07
1.4133e-07
1.2432e-07
1.095e-07
9.55689e-08
8.44478e-08
7.38768e-08
6.3762e-08
5.63627e-08
4.7667e-08
4.32273e-08
3.80488e-08
5.34105
10.4775
14.7334
21.7698
32.0317
47.492
66.7695
80.3508
72.977
46.8979
24.0628
12.4699
6.68966
3.88806
2.69953
2.30237
2.33977
2.70523
3.39454
4.43303
5.83984
7.60237
9.66341
11.922
14.2354
16.4374
18.3363
19.7424
20.472
20.3686
19.3103
17.2573
14.2823
10.6088
6.67986
3.16546
0.803974
0.0109335
0.367974
0.720559
0.45319
0.111004
0.0112005
0.000521153
1.41875e-10
4.50725e-08
2.33092e-06