/*--------------------------------*- C++ -*----------------------------------*\
| =========                 |                                                 |
| \\      /  F ield         | OpenFOAM: The Open Source CFD Toolbox           |
|  \\    /   O peration     | Version:  2312                                  |
|   \\  /    A nd           | Website:  www.openfoam.com                      |
|    \\/     M anipulation  |                                                 |
\*---------------------------------------------------------------------------*/
FoamFile
{
    version     2.0;
    format      ascii;
    arch        "LSB;label=32;scalar=64";
    class       volScalarField;
    location    "150";
    object      turbulenceProperties:k;
}
// * * * * * * * * * * * * * * * * * * * * * * * * * * * * * * * * * * * * * //

dimensions      [0 2 -2 0 0 0 0];

internalField   nonuniform List<scalar> 
11040
(
0.65777
0.322693
0.0953718
0.37376
0.430098
0.350966
0.295029
0.266961
0.254871
0.255653
0.267895
0.289707
0.322258
0.369089
0.431859
0.512954
0.614684
0.742047
0.898947
1.08662
1.30603
1.54474
1.79048
2.0464
2.30872
2.58298
2.85484
3.12776
3.38605
3.63674
3.87463
4.05856
4.14906
4.11129
3.91161
3.54844
3.01952
2.29594
1.34767
0.624957
0.57054
0.0537678
0.173236
0.493127
0.945093
0.288803
0.0412174
0.0394167
0.0542301
0.0729813
0.0954961
0.122128
0.149379
0.176698
0.201742
0.224594
0.244724
0.261087
0.272688
0.279188
0.28254
0.283954
0.286056
0.288882
0.291282
0.289566
0.280097
0.267853
0.244229
0.215667
0.17957
0.152521
0.121803
0.0959584
0.0829751
0.0947064
0.129527
0.196485
0.305489
0.463519
0.637806
1.23212
0.0251989
0.00871625
0.129316
1.03736
1.53475
0.628446
0.151685
0.0425502
0.0216006
0.0435168
0.0655185
0.0858321
0.103452
0.115681
0.12291
0.124527
0.121636
0.115025
0.105952
0.0957921
0.0861371
0.0782372
0.0710714
0.0646963
0.0618696
0.0642895
0.0727346
0.0846119
0.0981907
0.106567
0.107629
0.0978054
0.0897901
0.112793
0.185436
0.305503
0.485282
0.754186
1.15105
1.68234
2.41358
0.0166813
0.018346
0.00485116
0.203772
1.33738
2.01139
1.06334
0.341745
0.173659
0.124864
0.10452
0.101094
0.104521
0.110858
0.119835
0.127188
0.135208
0.142996
0.152275
0.161789
0.171822
0.182122
0.193328
0.205791
0.216849
0.228671
0.239155
0.247771
0.251757
0.247783
0.234066
0.209277
0.181081
0.179717
0.262828
0.447697
0.737069
1.16722
1.79838
2.63675
3.30127
0.0129211
0.0143913
0.00916282
0.00318267
0.240406
1.43926
2.41511
1.7247
0.687765
0.381418
0.290247
0.277957
0.278657
0.283197
0.29477
0.305111
0.316868
0.327003
0.337776
0.348143
0.357936
0.366714
0.375262
0.383763
0.388481
0.393565
0.396091
0.397923
0.394868
0.384053
0.359778
0.318057
0.261712
0.232168
0.338829
0.605127
1.01169
1.59245
2.41918
3.47677
4.05706
0.00963863
0.00932164
0.0113022
0.00331312
0.00126257
0.209448
1.33184
2.72781
2.49934
1.26493
0.702133
0.531609
0.512525
0.512151
0.528106
0.539495
0.55271
0.560781
0.567037
0.572025
0.574661
0.575175
0.576674
0.579388
0.579331
0.581576
0.58199
0.582912
0.579202
0.566714
0.534851
0.474862
0.381327
0.29128
0.378199
0.710151
1.21928
1.91306
2.85795
3.99901
4.55594
0.00728387
0.00683013
0.00755266
0.00812403
0.000920753
7.4809e-05
0.130855
1.04649
2.75122
3.2213
2.18812
1.14789
0.842733
0.76096
0.778537
0.790884
0.80264
0.806663
0.811324
0.812922
0.809787
0.802748
0.799372
0.799755
0.801249
0.809377
0.81945
0.830285
0.834486
0.826901
0.795136
0.724272
0.598791
0.430984
0.389026
0.710609
1.27807
2.01996
2.96508
4.02378
4.59688
0.00540995
0.00534883
0.00527028
0.00599907
0.00593382
0.000178407
0.00227729
0.0571569
0.678417
2.35199
3.638
3.25881
2.00375
1.25364
1.06109
1.04525
1.07045
1.0813
1.08576
1.08216
1.07418
1.06233
1.05634
1.05671
1.06325
1.08277
1.11096
1.14474
1.17374
1.18899
1.17283
1.10528
0.964196
0.740215
0.504867
0.595016
1.10942
1.80946
2.61452
3.42421
3.92363
0.00407012
0.00405617
0.00411335
0.00405991
0.00499618
0.00429057
0.000229269
0.00146814
0.0137716
0.332747
1.59283
3.45043
4.08321
3.23426
2.0423
1.47785
1.34801
1.36512
1.39588
1.40445
1.3988
1.38364
1.37512
1.37362
1.3829
1.41182
1.45792
1.51573
1.57638
1.6273
1.64823
1.61372
1.49525
1.26876
0.941947
0.657233
0.761487
1.24887
1.79816
2.26892
2.59948
0.00307722
0.00307948
0.00315376
0.0031935
0.00324295
0.00385424
0.00293451
0.000146738
0.000340472
0.00916053
0.102985
0.808808
2.52503
4.19644
4.36968
3.37975
2.29533
1.80184
1.70527
1.74414
1.78363
1.78802
1.78526
1.77939
1.78372
1.81707
1.87624
1.95515
2.04617
2.13573
2.2031
2.2178
2.14846
1.96519
1.66365
1.30039
0.955218
0.775366
0.822915
0.944024
1.15836
0.00233296
0.00234296
0.00239533
0.00247429
0.0024992
0.00259789
0.00288286
0.00236589
0.00047776
3.51858e-05
0.00324056
0.0162588
0.275303
1.32408
3.24387
4.73344
4.75247
3.80788
2.78579
2.2767
2.16959
2.20719
2.26292
2.28057
2.28668
2.32104
2.38407
2.47349
2.58403
2.70811
2.82466
2.9027
2.90487
2.79929
2.57887
2.28025
1.95442
1.63144
1.35424
1.19211
1.24737
0.00177125
0.00178168
0.00182342
0.00188293
0.00194509
0.00198232
0.00204633
0.00219942
0.0020971
0.000739895
6.26256e-05
0.000376636
0.00722877
0.0485995
0.456577
1.71434
3.71098
5.21927
5.39346
4.65263
3.68794
3.07208
2.85094
2.80467
2.82867
2.8929
2.98006
3.07989
3.1999
3.34425
3.49925
3.63745
3.71575
3.69818
3.57201
3.36496
3.12601
2.86558
2.60477
2.38543
2.23106
0.00134444
0.00135449
0.00138566
0.00143208
0.00148484
0.00153676
0.00157698
0.0016184
0.0017302
0.0017029
0.00111876
4.32885e-07
3.18822e-06
0.00172973
0.000203959
0.076014
0.547723
1.84224
3.85756
5.61781
6.30387
6.08428
5.45449
4.79009
4.31623
4.06628
3.98002
3.99134
4.07284
4.20977
4.38771
4.57575
4.73278
4.80023
4.74508
4.60741
4.43168
4.19852
3.89262
3.56621
3.22066
0.00101893
0.00102799
0.00105098
0.00108612
0.00112814
0.0011734
0.00121888
0.00125703
0.00129538
0.0013538
0.00142251
0.00119428
0.000230018
2.95987e-05
5.69645e-06
0.0036569
0.00167479
0.0747945
0.484206
1.59309
3.44651
5.38552
6.75021
7.45989
7.69117
7.63424
7.44314
7.23551
7.07675
6.99021
6.97084
6.99093
7.0079
6.94722
6.74871
6.4268
5.9786
5.42885
4.82464
4.21245
3.69635
0.000770031
0.000777874
0.000794933
0.000821056
0.00085357
0.000890282
0.000929238
0.000968788
0.00100567
0.0010388
0.00107821
0.00117694
0.00108408
0.000728485
7.73783e-06
6.51149e-06
3.71712e-05
0.00479119
0.00202829
0.0426044
0.275676
0.90373
1.96619
3.30168
4.6541
5.82181
6.72076
7.3565
7.76591
7.98781
8.04876
7.96533
7.73303
7.35939
6.84271
6.12426
5.25493
4.38612
3.61616
2.9586
2.50229
0.000579651
0.000586167
0.000598816
0.000618038
0.000642469
0.000670966
0.000702463
0.000735818
0.000770095
0.000803733
0.000833239
0.00087229
0.000926017
0.000971613
0.000832209
0.000378452
3.61443e-05
2.97411e-06
4.41436e-05
0.00388975
0.0145571
0.0111004
0.044796
0.157869
0.385804
0.717977
1.11161
1.50984
1.8595
2.12096
2.27064
2.30013
2.21326
2.02827
1.76779
1.4777
1.21421
1.00714
0.849907
0.721508
0.612613
0.000435284
0.000440487
0.000449892
0.000463982
0.000482051
0.000503496
0.000527718
0.000554087
0.000582067
0.000611162
0.000640223
0.00066837
0.000699186
0.000736964
0.000790152
0.000799928
0.000670979
0.000273447
2.86843e-05
3.2794e-06
8.7793e-09
0.000938212
0.00610052
0.0135354
0.00638667
0.0135018
0.0185143
0.0179822
0.0145413
0.0186172
0.0321901
0.0485053
0.0642891
0.077415
0.0859909
0.0890848
0.086121
0.0778806
0.0657754
0.0523216
0.0391723
0.000329445
0.000333582
0.000340759
0.000351313
0.000364868
0.000381061
0.000399534
0.000419898
0.000441802
0.000465124
0.000489319
0.000513954
0.000538928
0.000563903
0.000593722
0.000631134
0.000674138
0.000679441
0.000559705
0.000292189
7.82875e-07
4.24337e-06
1.41655e-06
1.08628e-09
0.000134797
0.000914644
0.00284438
0.00509435
0.00712542
0.00873548
0.00995032
9.1378e-05
0.00100399
0.0020216
0.00356432
0.00206569
0.000666871
0.000567544
0.000483113
0.000330285
0.000145343
0.000253595
0.000256931
0.00026253
0.000270608
0.000280972
0.000293416
0.000307694
0.000323579
0.000340883
0.000359363
0.000378818
0.000398935
0.00041961
0.000440676
0.000462106
0.000484365
0.000511394
0.000545013
0.000580949
0.000588058
0.000506861
0.000344577
0.000139275
1.1237e-07
3.57946e-06
2.46452e-06
1.65356e-06
1.01411e-06
5.76358e-07
3.17043e-07
1.84583e-07
9.70121e-07
5.79991e-06
1.1087e-05
2.03237e-05
1.10141e-05
4.317e-06
4.05156e-06
3.76069e-06
3.13907e-06
2.18829e-06
0.000198652
0.00020133
0.000205724
0.000211964
0.000219962
0.000229597
0.000240699
0.000253102
0.000266702
0.000281318
0.000296889
0.000313142
0.000329891
0.00034708
0.000364644
0.000382424
0.000400492
0.000419766
0.000443132
0.000470738
0.000501262
0.000515087
0.000502928
0.000452175
0.000375351
0.000284911
0.00019869
0.000126853
7.50727e-05
4.29828e-05
2.60259e-05
1.87761e-05
1.78054e-05
2.16503e-05
3.02932e-05
4.68046e-05
6.6148e-05
8.73587e-05
0.000109723
0.000133158
0.000154697
0.000157674
0.000159799
0.000163263
0.00016813
0.000174358
0.000181887
0.000190577
0.000200307
0.000210965
0.000222531
0.000234819
0.000247789
0.000261213
0.000274977
0.000289025
0.000303333
0.000317742
0.000332174
0.000346807
0.000362305
0.000380184
0.000400147
0.000420808
0.000439926
0.000453242
0.000458419
0.000455559
0.000446742
0.000434568
0.000421737
0.000410147
0.000400989
0.000394867
0.000391585
0.000390813
0.00039201
0.000394335
0.000396418
0.00039823
0.000398868
0.000399098
0.000126487
0.000128171
0.000130928
0.000134759
0.00013966
0.000145587
0.00015244
0.000160112
0.000168517
0.000177614
0.000187297
0.000197575
0.000208256
0.000219177
0.000230281
0.000241528
0.000252863
0.000264172
0.000275362
0.000286355
0.000297519
0.000308984
0.000320494
0.000331997
0.00034336
0.000354161
0.000363861
0.000372074
0.000378562
0.000383289
0.000386249
0.000387591
0.000387411
0.000385862
0.000383106
0.000379287
0.000374539
0.000368749
0.000362335
0.000354406
0.000348142
0.000102339
0.000103681
0.00010589
0.000108933
0.000112819
0.000117519
0.000122957
0.000129038
0.000135695
0.000142862
0.00015054
0.000158638
0.0001671
0.000175747
0.000184494
0.000193286
0.000202093
0.00021082
0.000219392
0.000227694
0.000235898
0.000243975
0.000251507
0.000258317
0.000264431
0.000269876
0.00027463
0.000278642
0.000281841
0.000284161
0.000285559
0.000286002
0.000285482
0.000284017
0.000281681
0.000278511
0.00027464
0.000269992
0.000265002
0.000258594
0.00025462
8.33935e-05
8.44681e-05
8.62495e-05
8.86882e-05
9.17955e-05
9.55525e-05
9.98955e-05
0.000104745
0.000110046
0.000115735
0.000121807
0.000128187
0.000134884
0.000141735
0.000148625
0.0001555
0.000162323
0.000169032
0.00017555
0.000181784
0.000187853
0.000193776
0.000199217
0.000204
0.000208107
0.000211538
0.000214298
0.000216377
0.000217795
0.000218554
0.000218678
0.000218168
0.000217065
0.000215378
0.000213169
0.000210468
0.000207353
0.000203724
0.000200009
0.000195028
0.000192937
6.83539e-05
6.92261e-05
7.06766e-05
7.26482e-05
7.51526e-05
7.8178e-05
8.16676e-05
8.55574e-05
8.97973e-05
9.43379e-05
9.91412e-05
0.000104201
0.000109495
0.000114923
0.000120362
0.000125749
0.000131045
0.000136208
0.000141171
0.000145853
0.000150346
0.000154688
0.000158636
0.000162056
0.000164942
0.000167292
0.000169117
0.000170409
0.000171192
0.000171468
0.00017127
0.000170614
0.000169539
0.000168054
0.000166218
0.000164067
0.000161651
0.000158886
0.000156167
0.000152278
0.000151556
5.63089e-05
5.70219e-05
5.8214e-05
5.98245e-05
6.18597e-05
6.43135e-05
6.71354e-05
7.02743e-05
7.36833e-05
7.73258e-05
8.11543e-05
8.51808e-05
8.93618e-05
9.36642e-05
9.79705e-05
0.000102208
0.000106336
0.000110323
0.000114117
0.00011765
0.000120998
0.000124208
0.000127095
0.000129563
0.000131612
0.00013325
0.000134486
0.000135327
0.000135784
0.000135876
0.000135621
0.000135049
0.000134169
0.000133009
0.000131607
0.000130004
0.00012822
0.000126185
0.000124268
0.00012125
0.000121564
4.65793e-05
4.71757e-05
4.81658e-05
4.94905e-05
5.11586e-05
5.3163e-05
5.54606e-05
5.8008e-05
6.07654e-05
6.37025e-05
6.67773e-05
6.9986e-05
7.33037e-05
7.67245e-05
8.01483e-05
8.34989e-05
8.67362e-05
8.98338e-05
9.27547e-05
9.54433e-05
9.79636e-05
0.000100368
0.000102514
0.000104332
0.000105822
0.000107001
0.000107875
0.000108455
0.000108749
0.00010878
0.000108562
0.000108121
0.000107461
0.000106607
0.000105591
0.000104445
0.000103178
0.000101724
0.000100433
9.81015e-05
9.91733e-05
3.86728e-05
3.91752e-05
4.00071e-05
4.11081e-05
4.24862e-05
4.41354e-05
4.60187e-05
4.80982e-05
5.03417e-05
5.27223e-05
5.52072e-05
5.77768e-05
6.04315e-05
6.31574e-05
6.58881e-05
6.85531e-05
7.11097e-05
7.35361e-05
7.58042e-05
7.78718e-05
7.97932e-05
8.1624e-05
8.32499e-05
8.46236e-05
8.57435e-05
8.66292e-05
8.72834e-05
8.77202e-05
8.79481e-05
8.79869e-05
8.78464e-05
8.75465e-05
8.70953e-05
8.65093e-05
8.58162e-05
8.5038e-05
8.41796e-05
8.3176e-05
8.23592e-05
8.05505e-05
8.21493e-05
3.22051e-05
3.26404e-05
3.3345e-05
3.42665e-05
3.54152e-05
3.67816e-05
3.83352e-05
4.00429e-05
4.1879e-05
4.38189e-05
4.58379e-05
4.79112e-05
5.00468e-05
5.22244e-05
5.44128e-05
5.65466e-05
5.85829e-05
6.05011e-05
6.22816e-05
6.3891e-05
6.53794e-05
6.67983e-05
6.80591e-05
6.91245e-05
6.9998e-05
7.06927e-05
7.1217e-05
7.15799e-05
7.17932e-05
7.18664e-05
7.18131e-05
7.16464e-05
7.13751e-05
7.10079e-05
7.05704e-05
7.00765e-05
6.95291e-05
6.88647e-05
6.83953e-05
6.69832e-05
6.89257e-05
2.68899e-05
2.72708e-05
2.78754e-05
2.86546e-05
2.96178e-05
3.07582e-05
3.20487e-05
3.34604e-05
3.4972e-05
3.65625e-05
3.82123e-05
3.98989e-05
4.16242e-05
4.33729e-05
4.51363e-05
4.68561e-05
4.84917e-05
5.00229e-05
5.1437e-05
5.2707e-05
5.388e-05
5.50009e-05
5.6001e-05
5.68501e-05
5.75558e-05
5.81266e-05
5.85719e-05
5.88977e-05
5.91155e-05
5.92319e-05
5.92585e-05
5.92053e-05
5.9078e-05
5.8882e-05
5.86375e-05
5.83553e-05
5.8034e-05
5.76154e-05
5.73875e-05
5.62657e-05
5.83945e-05
2.24998e-05
2.28414e-05
2.33632e-05
2.40284e-05
2.48436e-05
2.58025e-05
2.68817e-05
2.80564e-05
2.93084e-05
3.06207e-05
3.1977e-05
3.33593e-05
3.47604e-05
3.61762e-05
3.76057e-05
3.90008e-05
4.03265e-05
4.15621e-05
4.26989e-05
4.37151e-05
4.46553e-05
4.55576e-05
4.63691e-05
4.70649e-05
4.76524e-05
4.81394e-05
4.8535e-05
4.88431e-05
4.90722e-05
4.92287e-05
4.93204e-05
4.9355e-05
4.93345e-05
4.9264e-05
4.91582e-05
4.90266e-05
4.88648e-05
4.8621e-05
4.85585e-05
4.76607e-05
4.98577e-05
1.88597e-05
1.91698e-05
1.96281e-05
2.02014e-05
2.08955e-05
2.17081e-05
2.26162e-05
2.35997e-05
2.46429e-05
2.57323e-05
2.68537e-05
2.79934e-05
2.91401e-05
3.0298e-05
3.14608e-05
3.25994e-05
3.36823e-05
3.46905e-05
3.56161e-05
3.64431e-05
3.72097e-05
3.79511e-05
3.86229e-05
3.92082e-05
3.97108e-05
4.0139e-05
4.04993e-05
4.07967e-05
4.10351e-05
4.12206e-05
4.13582e-05
4.14552e-05
4.15103e-05
4.1529e-05
4.15218e-05
4.14972e-05
4.14488e-05
4.13316e-05
4.13823e-05
4.06582e-05
4.28385e-05
1.58329e-05
1.61186e-05
1.65235e-05
1.70226e-05
1.76191e-05
1.83109e-05
1.90798e-05
1.99086e-05
2.07833e-05
2.16932e-05
2.26258e-05
2.3571e-05
2.45172e-05
2.5469e-05
2.64199e-05
2.73555e-05
2.82469e-05
2.90774e-05
2.98398e-05
3.05225e-05
3.11572e-05
3.17762e-05
3.23421e-05
3.28429e-05
3.32816e-05
3.36662e-05
3.39995e-05
3.42867e-05
3.45305e-05
3.47361e-05
3.4906e-05
3.5046e-05
3.51539e-05
3.52339e-05
3.52935e-05
3.53391e-05
3.53648e-05
3.53299e-05
3.54466e-05
3.48472e-05
3.69304e-05
1.33072e-05
1.35727e-05
1.39359e-05
1.43724e-05
1.4889e-05
1.54821e-05
1.61379e-05
1.68408e-05
1.75792e-05
1.83438e-05
1.91245e-05
1.99131e-05
2.06995e-05
2.14862e-05
2.22693e-05
2.30432e-05
2.3782e-05
2.44719e-05
2.51054e-05
2.56755e-05
2.6208e-05
2.67306e-05
2.72128e-05
2.76457e-05
2.80314e-05
2.8377e-05
2.8685e-05
2.89584e-05
2.91998e-05
2.94128e-05
2.9599e-05
2.97619e-05
2.98997e-05
3.0015e-05
3.01136e-05
3.01991e-05
3.02679e-05
3.02823e-05
3.04314e-05
2.99255e-05
3.18467e-05
1.11956e-05
1.14441e-05
1.17698e-05
1.21566e-05
1.26068e-05
1.31196e-05
1.36828e-05
1.42829e-05
1.49102e-05
1.55563e-05
1.6214e-05
1.68757e-05
1.7534e-05
1.81879e-05
1.88371e-05
1.94805e-05
2.00972e-05
2.06745e-05
2.12067e-05
2.1688e-05
2.21412e-05
2.25877e-05
2.30045e-05
2.33837e-05
2.37279e-05
2.40414e-05
2.4327e-05
2.45861e-05
2.48211e-05
2.50335e-05
2.52254e-05
2.53983e-05
2.55513e-05
2.56848e-05
2.58041e-05
2.59107e-05
2.60027e-05
2.60451e-05
2.62035e-05
2.57757e-05
2.74823e-05
9.42558e-06
9.65923e-06
9.95402e-06
1.02978e-05
1.06941e-05
1.11401e-05
1.1627e-05
1.21428e-05
1.26785e-05
1.3228e-05
1.37846e-05
1.43432e-05
1.48973e-05
1.54441e-05
1.59852e-05
1.65223e-05
1.70384e-05
1.7523e-05
1.79712e-05
1.83782e-05
1.87627e-05
1.91424e-05
1.94999e-05
1.98288e-05
2.01315e-05
2.04109e-05
2.06692e-05
2.09078e-05
2.11279e-05
2.13307e-05
2.15166e-05
2.16867e-05
2.18394e-05
2.19752e-05
2.20975e-05
2.22069e-05
2.23022e-05
2.2353e-05
2.25001e-05
2.21327e-05
2.35879e-05
7.94098e-06
8.16007e-06
8.42699e-06
8.73485e-06
9.08535e-06
9.47618e-06
9.89973e-06
1.03455e-05
1.08059e-05
1.12752e-05
1.17489e-05
1.22221e-05
1.26907e-05
1.31508e-05
1.36059e-05
1.40555e-05
1.44898e-05
1.48991e-05
1.52796e-05
1.56279e-05
1.59589e-05
1.62858e-05
1.65964e-05
1.68852e-05
1.71537e-05
1.74045e-05
1.7639e-05
1.78575e-05
1.80608e-05
1.8249e-05
1.84225e-05
1.85812e-05
1.87244e-05
1.88516e-05
1.89655e-05
1.90651e-05
1.91515e-05
1.91968e-05
1.93195e-05
1.89997e-05
2.01613e-05
6.69323e-06
6.89869e-06
7.14083e-06
7.41723e-06
7.72825e-06
8.07254e-06
8.44231e-06
8.82992e-06
9.22776e-06
9.63094e-06
1.00353e-05
1.04375e-05
1.08344e-05
1.12224e-05
1.16049e-05
1.19806e-05
1.23442e-05
1.26874e-05
1.30072e-05
1.33011e-05
1.35809e-05
1.38569e-05
1.41205e-05
1.43673e-05
1.45983e-05
1.4815e-05
1.50183e-05
1.5208e-05
1.53849e-05
1.55484e-05
1.56988e-05
1.58358e-05
1.59587e-05
1.60664e-05
1.61605e-05
1.62398e-05
1.6306e-05
1.6335e-05
1.64237e-05
1.61406e-05
1.69973e-05
5.64382e-06
5.83488e-06
6.05494e-06
6.30429e-06
6.5819e-06
6.88505e-06
7.20857e-06
7.54573e-06
7.89022e-06
8.2379e-06
8.58467e-06
8.92804e-06
9.26514e-06
9.59424e-06
9.91752e-06
1.02354e-05
1.05441e-05
1.08371e-05
1.11109e-05
1.13642e-05
1.16052e-05
1.18418e-05
1.20682e-05
1.22812e-05
1.24809e-05
1.26687e-05
1.28448e-05
1.30092e-05
1.31616e-05
1.3302e-05
1.343e-05
1.35454e-05
1.36469e-05
1.3734e-05
1.38071e-05
1.38652e-05
1.39102e-05
1.39218e-05
1.39782e-05
1.37279e-05
1.42662e-05
4.75905e-06
4.9354e-06
5.13517e-06
5.36027e-06
5.60922e-06
5.87825e-06
6.1616e-06
6.45462e-06
6.7518e-06
7.04989e-06
7.34677e-06
7.64011e-06
7.9271e-06
8.20471e-06
8.47361e-06
8.73494e-06
8.98809e-06
9.22875e-06
9.45421e-06
9.66352e-06
9.86162e-06
1.00537e-05
1.02371e-05
1.04091e-05
1.057e-05
1.07202e-05
1.08598e-05
1.09885e-05
1.1106e-05
1.12118e-05
1.13056e-05
1.13867e-05
1.14541e-05
1.15072e-05
1.15463e-05
1.15695e-05
1.15804e-05
1.15605e-05
1.15742e-05
1.13357e-05
1.15713e-05
4.01565e-06
4.17576e-06
4.35476e-06
4.55568e-06
4.77617e-06
5.01375e-06
5.2637e-06
5.52106e-06
5.77995e-06
6.03595e-06
6.28803e-06
6.536e-06
6.78009e-06
7.01899e-06
7.25227e-06
7.47799e-06
7.69396e-06
7.89681e-06
8.0858e-06
8.26153e-06
8.42754e-06
8.58674e-06
8.73881e-06
8.88137e-06
9.01439e-06
9.13791e-06
9.25168e-06
9.3551e-06
9.44767e-06
9.52893e-06
9.59817e-06
9.65483e-06
9.69821e-06
9.728e-06
9.74425e-06
9.74519e-06
9.73538e-06
9.69846e-06
9.68654e-06
9.47614e-06
9.44353e-06
3.39298e-06
3.53824e-06
3.69726e-06
3.87184e-06
4.06128e-06
4.263e-06
4.47722e-06
4.70096e-06
4.92982e-06
5.15733e-06
5.37851e-06
5.58961e-06
5.7898e-06
5.9803e-06
6.16495e-06
6.34646e-06
6.52448e-06
6.69388e-06
6.85106e-06
6.99499e-06
7.1265e-06
7.24707e-06
7.35819e-06
7.4588e-06
7.54888e-06
7.62866e-06
7.69786e-06
7.75636e-06
7.80368e-06
7.83958e-06
7.86324e-06
7.87431e-06
7.87248e-06
7.85769e-06
7.83e-06
7.78753e-06
7.73708e-06
7.66167e-06
7.61191e-06
7.38681e-06
7.14862e-06
2.86705e-06
2.99692e-06
3.13957e-06
3.29393e-06
3.45527e-06
3.62273e-06
3.79671e-06
3.97785e-06
4.16582e-06
4.35998e-06
4.55811e-06
4.75547e-06
4.9452e-06
5.12016e-06
5.27655e-06
5.41457e-06
5.54028e-06
5.65875e-06
5.77181e-06
5.87985e-06
5.98146e-06
6.0765e-06
6.16578e-06
6.24751e-06
6.32047e-06
6.3839e-06
6.43717e-06
6.47977e-06
6.51118e-06
6.53086e-06
6.53843e-06
6.53361e-06
6.51671e-06
6.48784e-06
6.44783e-06
6.39546e-06
6.33831e-06
6.2617e-06
6.21031e-06
6.01746e-06
5.68631e-06
2.41746e-06
2.52654e-06
2.6486e-06
2.7837e-06
2.92812e-06
3.07936e-06
3.2333e-06
3.38483e-06
3.53131e-06
3.67277e-06
3.81271e-06
3.95709e-06
4.11116e-06
4.27708e-06
4.45232e-06
4.62586e-06
4.78143e-06
4.9122e-06
5.01815e-06
5.10366e-06
5.17062e-06
5.22017e-06
5.25755e-06
5.28304e-06
5.29736e-06
5.3007e-06
5.29322e-06
5.27485e-06
5.24564e-06
5.2054e-06
5.15429e-06
5.09252e-06
5.02112e-06
4.9411e-06
4.85457e-06
4.76147e-06
4.67339e-06
4.57139e-06
4.52935e-06
4.28725e-06
4.21084e-06
2.04731e-06
2.12978e-06
2.21584e-06
2.30978e-06
2.41693e-06
2.54322e-06
2.68888e-06
2.84897e-06
3.01272e-06
3.1669e-06
3.29827e-06
3.39778e-06
3.46338e-06
3.50057e-06
3.52092e-06
3.54584e-06
3.5967e-06
3.66744e-06
3.74703e-06
3.82693e-06
3.90053e-06
3.96491e-06
4.01953e-06
4.06287e-06
4.0936e-06
4.11087e-06
4.11435e-06
4.10371e-06
4.07902e-06
4.04042e-06
3.98854e-06
3.92404e-06
3.84874e-06
3.76468e-06
3.67509e-06
3.58218e-06
3.49784e-06
3.41196e-06
3.38587e-06
3.20882e-06
3.27526e-06
1.75904e-06
1.82925e-06
1.88832e-06
1.93644e-06
1.97908e-06
2.02597e-06
2.0865e-06
2.16976e-06
2.28545e-06
2.4408e-06
2.63805e-06
2.87139e-06
3.12865e-06
3.39216e-06
3.64686e-06
3.85228e-06
3.97394e-06
4.04303e-06
4.0766e-06
4.08607e-06
4.0735e-06
4.04171e-06
3.99632e-06
3.9397e-06
3.87279e-06
3.79689e-06
3.71241e-06
3.62082e-06
3.52331e-06
3.4221e-06
3.31954e-06
3.21977e-06
3.1283e-06
3.05284e-06
3.00347e-06
2.98921e-06
3.03169e-06
3.10366e-06
3.35946e-06
3.20529e-06
4.7264e-06
1.53376e-06
1.60709e-06
1.67361e-06
1.72569e-06
1.75627e-06
1.76378e-06
1.75173e-06
1.72704e-06
1.70161e-06
1.68675e-06
1.69084e-06
1.71592e-06
1.75669e-06
1.80181e-06
1.83454e-06
1.88005e-06
1.95361e-06
2.04333e-06
2.14178e-06
2.23913e-06
2.32909e-06
2.40711e-06
2.47085e-06
2.51836e-06
2.5467e-06
2.55391e-06
2.53838e-06
2.499e-06
2.43449e-06
2.34396e-06
2.22652e-06
2.08186e-06
1.91029e-06
1.71348e-06
1.49476e-06
1.2636e-06
1.04202e-06
8.78308e-07
9.05551e-07
8.36706e-07
2.12609e-06
1.34152e-06
1.34825e-06
1.42341e-06
1.63785e-06
1.99039e-06
2.42778e-06
2.8911e-06
3.33531e-06
3.72993e-06
4.05767e-06
4.31058e-06
4.48849e-06
4.59742e-06
4.6456e-06
4.65086e-06
4.57561e-06
4.45738e-06
4.34777e-06
4.25611e-06
4.18039e-06
4.11551e-06
4.07712e-06
4.04791e-06
4.02579e-06
4.00738e-06
3.99021e-06
3.97375e-06
3.95815e-06
3.94529e-06
3.93794e-06
3.94141e-06
3.96243e-06
4.0105e-06
4.09612e-06
4.23301e-06
4.43162e-06
4.71145e-06
5.04598e-06
5.60388e-06
5.67856e-06
8.28244e-06
11.5294
7.83517
3.29617
0.444479
0.0208712
0.000780868
0.000126657
0.000363277
0.00346685
0.238008
0.795497
0.209331
1.14768
2.2199
2.81516
3.01
2.97704
2.85602
2.74817
2.70401
2.75135
2.88767
3.09193
3.32325
3.52648
3.6356
3.58668
3.32097
2.81773
2.12294
1.36359
0.697371
0.244844
0.0427143
0.00124614
2.11736e-07
5.07468e-07
8.7032e-05
0.00031561
0.000362757
0.000308129
0.000259097
0.000223658
0.000190209
0.000155768
0.000122883
9.29218e-05
6.73564e-05
4.79293e-05
3.53741e-05
2.90524e-05
2.926e-05
3.14512e-05
3.40866e-05
3.5868e-05
3.67969e-05
3.68251e-05
3.63587e-05
3.51397e-05
3.38197e-05
3.19272e-05
3.02832e-05
2.82958e-05
2.63387e-05
2.45591e-05
2.25873e-05
2.10217e-05
1.93198e-05
1.78171e-05
1.63394e-05
1.50679e-05
1.37595e-05
1.2707e-05
1.17031e-05
14.0906
13.2115
7.70689
2.47878
0.172183
0.00542159
2.99402e-05
2.10765e-05
0.00702359
0.306402
0.601794
0.266196
1.16328
1.77017
1.97631
1.92576
1.77331
1.5917
1.40267
1.19154
0.982696
0.873862
1.0159
1.39493
1.87618
2.34603
2.71343
2.89198
2.81114
2.43995
1.82863
1.1208
0.509189
0.140413
0.0155696
0.000429652
1.26659e-10
5.11245e-07
0.000175358
0.000325137
0.00030211
0.000247581
0.000207352
0.000173971
0.000141809
0.000111998
8.48122e-05
6.20932e-05
4.53267e-05
3.48532e-05
2.94863e-05
2.95393e-05
3.10644e-05
3.30869e-05
3.43438e-05
3.50149e-05
3.48423e-05
3.43013e-05
3.30714e-05
3.18264e-05
3.00176e-05
2.84801e-05
2.66585e-05
2.4785e-05
2.31656e-05
2.13048e-05
1.9846e-05
1.82769e-05
1.68614e-05
1.54653e-05
1.4285e-05
1.30451e-05
1.20602e-05
1.11291e-05
12.8378
15.4346
11.8601
6.11285
1.39255
0.0667676
0.0105634
0
0.010176
0.297235
0.392212
0.414723
1.20836
1.75063
2.09783
2.37784
2.63957
2.84433
2.93724
2.87575
2.64327
2.24239
1.69149
1.02651
0.352011
0.603958
1.3007
1.89226
2.27219
2.36068
2.12009
1.59102
0.92708
0.364618
0.0753058
0.00455485
5.02326e-05
6.59314e-08
3.27292e-05
0.000224493
0.000281219
0.000236603
0.000191688
0.00015784
0.000128522
0.000102405
7.86127e-05
5.94954e-05
4.55929e-05
3.68331e-05
3.2039e-05
3.12203e-05
3.16118e-05
3.26133e-05
3.32181e-05
3.32812e-05
3.2895e-05
3.21419e-05
3.0936e-05
2.96579e-05
2.80323e-05
2.64648e-05
2.48548e-05
2.31182e-05
2.16014e-05
1.9936e-05
1.85109e-05
1.71152e-05
1.57986e-05
1.45113e-05
1.34056e-05
1.22602e-05
1.13505e-05
1.04982e-05
11.0489
15.492
14.5425
10.04
4.29907
0.66988
0.033458
0.00332579
0.0121539
0.261943
0.289099
0.512305
1.3644
2.0867
2.71246
3.29142
3.81967
4.24937
4.52948
4.62252
4.51139
4.19485
3.68478
3.00423
2.18768
1.28373
0.359505
0.54265
1.29032
1.81815
2.04137
1.9079
1.43971
0.796038
0.267416
0.0404446
0.000938852
2.61561e-07
2.07949e-06
9.36875e-05
0.000226761
0.000224893
0.000180671
0.00014477
0.00011751
9.46955e-05
7.41613e-05
5.82538e-05
4.6599e-05
3.88281e-05
3.42719e-05
3.25888e-05
3.19622e-05
3.2017e-05
3.19868e-05
3.15462e-05
3.09324e-05
3.00066e-05
2.88174e-05
2.75278e-05
2.60527e-05
2.45193e-05
2.3083e-05
2.14963e-05
2.00824e-05
1.85949e-05
1.7236e-05
1.59857e-05
1.47725e-05
1.35902e-05
1.25642e-05
1.15044e-05
1.0674e-05
9.8963e-06
9.48335
14.3842
15.5013
13.0345
8.04296
2.80036
0.318209
0.0123677
0.0136157
0.215366
0.233797
0.534314
1.41918
2.27199
3.07433
3.83331
4.53186
5.12859
5.57727
5.84034
5.89541
5.73327
5.35703
4.77961
4.02347
3.12298
2.12522
1.09031
0.0946212
0.775344
1.42786
1.77298
1.74027
1.32889
0.701398
0.204382
0.0234656
1.18178e-08
5.19518e-07
1.59202e-08
0.00011484
0.000196099
0.000173179
0.000136079
0.000109153
8.87722e-05
7.10821e-05
5.76169e-05
4.75504e-05
4.03074e-05
3.57872e-05
3.33654e-05
3.19156e-05
3.11713e-05
3.05357e-05
2.97821e-05
2.89289e-05
2.79035e-05
2.67148e-05
2.54648e-05
2.4091e-05
2.26671e-05
2.13764e-05
1.99349e-05
1.86396e-05
1.72987e-05
1.6043e-05
1.49136e-05
1.38036e-05
1.27177e-05
1.1778e-05
1.0793e-05
1.00429e-05
9.33457e-06
8.18544
12.6267
15.0123
14.4678
11.2707
6.21196
1.80473
0.163564
0.0245521
0.168986
0.210896
0.498835
1.35016
2.2357
3.10504
3.94503
4.73727
5.44847
6.03788
6.46764
6.70922
6.74433
6.56567
6.17487
5.5813
4.80442
3.87421
2.83306
1.73934
0.667703
0.303949
1.06263
1.52055
1.58655
1.23355
0.629724
0.16629
0.0157577
1.63184e-05
2.5019e-08
4.65371e-06
0.000115569
0.000157003
0.000131352
0.000104324
8.51382e-05
6.96654e-05
5.8013e-05
4.89914e-05
4.20561e-05
3.72877e-05
3.41605e-05
3.19314e-05
3.04497e-05
2.92289e-05
2.81591e-05
2.70557e-05
2.59311e-05
2.47262e-05
2.35192e-05
2.22308e-05
2.09235e-05
1.97631e-05
1.84546e-05
1.72792e-05
1.60722e-05
1.49264e-05
1.39061e-05
1.28934e-05
1.18968e-05
1.10439e-05
1.01277e-05
9.45594e-06
8.81065e-06
6.99323
10.504
13.4015
14.2487
13.0248
9.52131
4.78785
1.19847
0.0536284
0.108904
0.220074
0.439067
1.17838
1.99946
2.83744
3.67109
4.48352
5.24907
5.93377
6.50161
6.92012
7.16311
7.21335
7.06132
6.70364
6.14515
5.39829
4.48641
3.44668
2.33183
1.21059
0.181894
0.69672
1.26157
1.42502
1.13686
0.572169
0.14474
0.0137984
0.00154055
7.37829e-07
1.56601e-05
0.000102439
0.000123052
0.000103034
8.42482e-05
6.99985e-05
5.9555e-05
5.11997e-05
4.43841e-05
3.9197e-05
3.53525e-05
3.23571e-05
3.01395e-05
2.83381e-05
2.68579e-05
2.54759e-05
2.42005e-05
2.2949e-05
2.17504e-05
2.0535e-05
1.93142e-05
1.82661e-05
1.70773e-05
1.60088e-05
1.49297e-05
1.38859e-05
1.29666e-05
1.20447e-05
1.11313e-05
1.0361e-05
9.50931e-06
8.91373e-06
8.32386e-06
5.59779
8.18289
10.9227
12.5655
12.9185
11.4251
7.98568
3.73187
0.738455
0.172408
0.292119
0.502006
1.01824
1.67239
2.38512
3.12731
3.88351
4.63347
5.35027
6.00236
6.55697
6.98323
7.2562
7.35686
7.27077
6.98991
6.51088
5.83889
4.98956
3.99169
2.88864
1.74427
0.647957
0.318071
0.980669
1.24213
1.02958
0.521323
0.133204
0.0134809
2.2557e-06
1.2717e-05
1.51121e-05
8.47853e-05
9.99113e-05
8.59556e-05
7.20661e-05
6.20462e-05
5.40289e-05
4.71561e-05
4.15103e-05
3.6983e-05
3.32716e-05
3.03223e-05
2.79334e-05
2.59747e-05
2.42654e-05
2.27794e-05
2.14354e-05
2.01992e-05
1.90238e-05
1.78556e-05
1.68942e-05
1.58125e-05
1.4835e-05
1.38707e-05
1.29206e-05
1.20937e-05
1.12577e-05
1.04216e-05
9.72948e-06
8.93641e-06
8.41526e-06
7.8734e-06
3.79328
5.66379
7.86614
9.72872
11.0201
11.2483
9.79954
6.66002
2.88143
0.860724
0.690965
0.82465
1.0765
1.45127
1.93131
2.48791
3.10305
3.75749
4.42879
5.09057
5.71299
6.26458
6.71626
7.04248
7.22045
7.23227
7.06202
6.69988
6.14252
5.39588
4.4767
3.41935
2.28025
1.14032
0.142291
0.671338
1.03249
0.907053
0.472057
0.126592
0.0149909
0.000204148
5.64006e-05
1.44851e-05
7.13251e-05
8.5751e-05
7.57363e-05
6.55058e-05
5.73457e-05
5.0239e-05
4.41434e-05
3.89987e-05
3.46325e-05
3.09908e-05
2.80105e-05
2.55493e-05
2.34659e-05
2.1712e-05
2.02202e-05
1.88963e-05
1.77163e-05
1.65653e-05
1.56577e-05
1.46649e-05
1.37615e-05
1.28946e-05
1.20296e-05
1.12853e-05
1.05301e-05
9.76531e-06
9.14726e-06
8.40704e-06
7.95845e-06
7.45765e-06
1.93865
3.27734
4.70603
6.25938
7.77769
8.98382
9.33345
8.18522
5.51224
2.75259
1.6808
1.50825
1.46455
1.51218
1.68045
1.96133
2.34557
2.8168
3.35525
3.93843
4.54083
5.1337
5.68765
6.17414
6.56566
6.83796
6.9669
6.93221
6.71659
6.30791
5.69952
4.8968
3.9211
2.81375
1.65053
0.556816
0.336999
0.796362
0.770054
0.420538
0.12156
0.0169848
0.000803486
0.000176787
2.01665e-05
6.24085e-05
7.68781e-05
6.9962e-05
6.13468e-05
5.3674e-05
4.70953e-05
4.13436e-05
3.63936e-05
3.20978e-05
2.85542e-05
2.55763e-05
2.31023e-05
2.10304e-05
1.9331e-05
1.78682e-05
1.66307e-05
1.54611e-05
1.45682e-05
1.36365e-05
1.27893e-05
1.20026e-05
1.12129e-05
1.05401e-05
9.85819e-06
9.15835e-06
8.61043e-06
7.91828e-06
7.5404e-06
7.07412e-06
1.5826
2.21064
2.68024
3.41666
4.34062
5.48362
6.65348
7.28341
6.65109
4.89177
3.34863
2.61728
2.19362
1.87874
1.71087
1.69035
1.7965
2.01591
2.3391
2.75288
3.23913
3.77463