/*--------------------------------*- C++ -*----------------------------------*\
| =========                 |                                                 |
| \\      /  F ield         | OpenFOAM: The Open Source CFD Toolbox           |
|  \\    /   O peration     | Version:  2312                                  |
|   \\  /    A nd           | Website:  www.openfoam.com                      |
|    \\/     M anipulation  |                                                 |
\*---------------------------------------------------------------------------*/
FoamFile
{
    version     2.0;
    format      ascii;
    arch        "LSB;label=32;scalar=64";
    class       volSymmTensorField;
    location    "150";
    object      turbulenceProperties:devReff;
}
// * * * * * * * * * * * * * * * * * * * * * * * * * * * * * * * * * * * * * //

dimensions      [0 2 -2 0 0 0 0];

internalField   nonuniform List<symmTensor> 
11040
(
(-0.00523916 0.175763 -3.2754e-21 -0.0133626 4.47981e-20 0.0186018)
(0.032324 0.0746021 1.04387e-20 -0.0379231 2.46966e-19 0.00559906)
(-0.0108612 0.0183833 -3.24787e-19 0.0174381 4.29731e-19 -0.00657691)
(-0.10569 0.0484534 -4.16265e-19 0.102525 -1.94888e-19 0.00316474)
(-0.109496 0.0715439 -2.0582e-20 0.112652 4.15617e-19 -0.0031554)
(-0.0803085 0.0711048 -5.81802e-19 0.0813622 2.09369e-19 -0.00105373)
(-0.0595566 0.0675219 3.03354e-19 0.0601234 -2.1181e-18 -0.000566818)
(-0.0475035 0.0660545 4.35648e-19 0.0478469 -3.77308e-19 -0.000343463)
(-0.039921 0.0665884 2.17441e-19 0.0401613 -5.22917e-20 -0.00024028)
(-0.0351259 0.0695775 1.79615e-19 0.0353169 2.89098e-19 -0.000191021)
(-0.0320978 0.0752377 -1.81862e-19 0.0323751 8.16242e-19 -0.000277291)
(-0.0298256 0.0834597 -2.78811e-19 0.0301198 4.76564e-19 -0.000294236)
(-0.0279197 0.0947483 5.13574e-20 0.0281656 -3.60206e-19 -0.000245965)
(-0.0261989 0.110251 7.39578e-20 0.0263439 2.71921e-19 -0.000144988)
(-0.024154 0.130547 -2.49226e-20 0.0240257 7.13644e-20 0.000128266)
(-0.0212795 0.156365 -7.11009e-22 0.0207079 -4.91823e-19 0.000571568)
(-0.0168919 0.188371 1.35582e-19 0.0156757 -2.22631e-20 0.00121625)
(-0.0104474 0.22798 -2.42119e-20 0.00846631 8.80387e-19 0.00198113)
(-0.00122312 0.276243 -7.3881e-20 -0.00160577 7.53649e-21 0.0028289)
(0.011743 0.33334 1.7657e-20 -0.0155665 -1.34342e-19 0.0038235)
(0.0293092 0.399319 6.78425e-20 -0.0339925 1.0466e-19 0.00468328)
(0.0499494 0.470367 -1.06413e-19 -0.0551243 3.24206e-19 0.00517493)
(0.0714313 0.542985 3.48405e-20 -0.0770355 -2.61477e-19 0.0056042)
(0.095072 0.61804 2.68292e-20 -0.101088 7.23574e-19 0.00601555)
(0.121577 0.694264 -1.85813e-19 -0.127868 -6.54547e-19 0.00629073)
(0.150271 0.7735 -1.3499e-19 -0.15628 -1.57281e-18 0.00600906)
(0.181067 0.851253 6.50165e-20 -0.186859 -7.44771e-19 0.00579158)
(0.213235 0.928824 2.77916e-19 -0.218189 2.63968e-19 0.00495379)
(0.246215 1.00136 6.25394e-22 -0.250462 -5.92793e-19 0.0042471)
(0.27946 1.07124 -5.99481e-20 -0.28248 -1.41456e-18 0.0030198)
(0.312518 1.13684 2.85917e-19 -0.314384 8.74523e-19 0.00186541)
(0.340865 1.18663 -5.09897e-19 -0.341159 -2.5494e-19 0.000293762)
(0.360247 1.20941 -4.35053e-19 -0.359107 2.43953e-18 -0.00113977)
(0.366455 1.19553 -3.93077e-19 -0.363805 1.35662e-18 -0.00265003)
(0.355944 1.13549 -1.24661e-19 -0.35177 1.11994e-19 -0.00417379)
(0.326709 1.02942 -1.70085e-19 -0.320958 1.54785e-18 -0.00575103)
(0.27646 0.877214 6.99142e-20 -0.269582 5.78929e-19 -0.00687767)
(0.20157 0.670588 -1.13035e-19 -0.194846 7.86983e-19 -0.00672341)
(0.102422 0.39938 -3.65596e-19 -0.0961397 -1.26476e-18 -0.00628193)
(0.0222163 0.189552 3.08627e-20 -0.00757763 -8.79736e-19 -0.0146387)
(-0.130829 0.103188 2.30151e-19 0.145262 1.45381e-19 -0.0144322)
(0.0104317 -0.00575568 2.93352e-21 -0.00656848 -5.93169e-21 -0.00386326)
(0.0249642 0.0395377 4.29098e-20 -0.019658 -2.87127e-20 -0.00530621)
(0.109466 0.0925562 6.52277e-19 -0.117192 -9.91155e-19 0.00772604)
(0.279794 0.0856728 4.37803e-19 -0.269571 -2.00684e-19 -0.0102228)
(0.0813585 -0.0335886 2.26702e-19 -0.0810719 -7.82228e-19 -0.000286572)
(-0.00144819 -0.0120884 8.79327e-19 0.00313157 -1.81774e-18 -0.00168337)
(-0.0114576 0.00308529 -1.33721e-18 0.0117802 5.24871e-18 -0.000322652)
(-0.0116454 0.0115735 -1.35499e-18 0.0120315 3.74886e-18 -0.000386124)
(-0.0119974 0.0185307 -1.68083e-19 0.0127205 -2.50601e-19 -0.000723174)
(-0.0124172 0.0261288 -1.73106e-19 0.0133623 1.06555e-19 -0.000945106)
(-0.0128338 0.0346397 9.52855e-19 0.0143297 -2.71257e-18 -0.00149597)
(-0.0125887 0.0433559 1.04163e-20 0.0146882 -1.09928e-19 -0.00209947)
(-0.0117874 0.0520344 -4.35162e-19 0.0146676 1.60161e-18 -0.0028802)
(-0.0103759 0.0599453 -3.00315e-19 0.0142566 1.63393e-19 -0.00388077)
(-0.0083874 0.0671828 -8.20163e-20 0.0131732 -4.78517e-19 -0.00478577)
(-0.00610275 0.0735047 9.21742e-21 0.0117973 1.46769e-18 -0.00569459)
(-0.00341951 0.078631 -7.09239e-20 0.00991655 4.82274e-19 -0.00649704)
(-0.000461446 0.0822187 -5.98792e-20 0.00772525 -1.30818e-18 -0.0072638)
(0.00273854 0.0841938 -5.36635e-20 0.00506599 -5.88979e-20 -0.00780453)
(0.00609513 0.08517 -1.28834e-20 0.0018427 1.79251e-19 -0.00793782)
(0.00956449 0.0854631 -7.59773e-21 -0.00178091 -1.69613e-20 -0.00778358)
(0.0130049 0.0858641 1.13581e-19 -0.00567442 -5.64602e-19 -0.00733046)
(0.0160151 0.0864 -3.60077e-20 -0.00919659 8.06725e-19 -0.00681853)
(0.0188723 0.0867264 -1.20615e-19 -0.0128427 -7.27095e-19 -0.00602965)
(0.0213572 0.085722 -4.75888e-20 -0.0162979 5.60767e-19 -0.00505927)
(0.0230463 0.0823488 2.26071e-19 -0.0188061 1.9684e-18 -0.00424027)
(0.0242232 0.0781243 3.43148e-19 -0.0210073 1.05408e-18 -0.00321592)
(0.0238328 0.0706638 -3.41198e-19 -0.021503 1.88468e-19 -0.00232973)
(0.0223663 0.0618714 -1.91283e-19 -0.0211827 4.31912e-19 -0.00118359)
(0.0193298 0.051139 2.41878e-19 -0.0191463 7.16661e-19 -0.000183499)
(0.0165085 0.0431171 1.19536e-19 -0.0174989 -9.68557e-19 0.000990399)
(0.0122352 0.0343513 5.36267e-19 -0.0144397 -1.89108e-18 0.00220451)
(0.00699281 0.0272025 5.09319e-19 -0.0106512 -3.25627e-18 0.00365836)
(0.00028065 0.0237621 5.53944e-19 -0.00544016 -1.30032e-18 0.00515951)
(-0.0089482 0.0261614 -3.02798e-19 0.00201433 9.32735e-20 0.00693387)
(-0.0230587 0.0318091 3.41576e-19 0.0141786 -4.42174e-18 0.00888006)
(-0.0429847 0.0430109 -7.29317e-19 0.0319308 -5.28438e-19 0.0110539)
(-0.0720483 0.061964 1.0343e-19 0.056778 -1.5879e-18 0.0152702)
(-0.109031 0.0941557 8.37925e-19 0.0876964 4.02893e-18 0.0213341)
(-0.138039 0.13967 4.15066e-19 0.121516 4.46915e-18 0.0165225)
(-0.377891 0.0720231 -1.52605e-19 0.263247 -1.30518e-18 0.114644)
(0.00248048 -0.00540719 -6.90982e-22 -0.00246534 -1.29686e-21 -1.51433e-05)
(0.00167388 -0.000643767 -8.76278e-21 -0.000748581 -4.83277e-20 -0.000925302)
(0.0223829 0.0241032 -2.546e-20 -0.0223284 2.00196e-19 -5.44738e-05)
(0.269289 0.161026 7.68501e-20 -0.278517 3.21431e-19 0.00922781)
(0.456027 0.104426 -8.80333e-21 -0.449736 -1.27819e-19 -0.00629102)
(0.183057 -0.0588677 -8.02275e-19 -0.177993 2.84654e-18 -0.00506474)
(0.0310424 -0.0350773 7.45843e-20 -0.026832 -1.74703e-19 -0.00421038)
(0.00762054 -0.0102006 2.10222e-19 -0.00806891 -3.60446e-18 0.00044837)
(0.00512427 0.00237812 -2.96674e-19 -0.00642629 5.58787e-21 0.00130203)
(0.0041109 0.0118264 4.16076e-19 -0.00603175 -1.12059e-18 0.00192085)
(0.00425211 0.0189015 -7.1074e-19 -0.00627224 1.77298e-18 0.00202014)
(0.00599683 0.024746 1.27757e-18 -0.00835152 -3.50118e-18 0.0023547)
(0.00831961 0.029567 -5.74372e-20 -0.0109396 -8.64553e-20 0.00261995)
(0.0108748 0.0326641 2.81995e-19 -0.0133844 -1.48362e-18 0.00250954)
(0.0135105 0.0340228 3.22952e-21 -0.0158968 1.58235e-18 0.00238627)
(0.0157417 0.033642 -1.66011e-19 -0.0178287 -6.06869e-19 0.00208704)
(0.0176918 0.0317287 5.56683e-21 -0.0194315 -1.0144e-18 0.00173966)
(0.0192425 0.0285837 9.53347e-20 -0.0204607 -7.19252e-19 0.00121819)
(0.0203861 0.0244849 3.75747e-20 -0.0210774 -4.17292e-20 0.000691362)
(0.0209878 0.0199073 4.61381e-20 -0.0212369 4.3263e-20 0.000249159)
(0.0211653 0.015359 -5.75857e-20 -0.0210176 1.39356e-19 -0.000147693)
(0.021114 0.0111398 -1.43067e-19 -0.0206937 2.08355e-19 -0.000420376)
(0.0207138 0.00681009 -4.84182e-20 -0.0200729 -7.57254e-19 -0.000640952)
(0.0198369 0.00160679 -8.43978e-20 -0.0191543 -3.12493e-19 -0.000682602)
(0.0186112 -0.00389214 2.61001e-19 -0.0179798 -5.00141e-19 -0.000631417)
(0.0171441 -0.0097352 -3.00389e-19 -0.0164884 -5.38057e-19 -0.000655694)
(0.0152351 -0.0161313 -6.18024e-19 -0.0146399 4.62443e-19 -0.000595252)
(0.0126754 -0.0223904 2.49986e-19 -0.0119998 -1.71056e-18 -0.000675619)
(0.00935549 -0.0282522 4.31552e-19 -0.00869599 4.91482e-19 -0.000659505)
(0.00519583 -0.0318077 3.5804e-19 -0.00435664 1.8119e-18 -0.000839188)
(6.22069e-05 -0.0324476 -9.27851e-19 0.001011 8.96204e-19 -0.00107321)
(-0.00665081 -0.0284654 9.82392e-19 0.00819655 4.06774e-18 -0.00154574)
(-0.0163203 -0.0206471 -5.28239e-19 0.018237 8.82801e-19 -0.00191668)
(-0.0313792 -0.00934924 -1.948e-18 0.0336392 1.47331e-18 -0.00225994)
(-0.0541632 0.00551162 -4.96095e-19 0.0567529 -1.5889e-18 -0.00258973)
(-0.0849724 0.0308623 1.3816e-18 0.0881136 2.47326e-18 -0.0031412)
(-0.126988 0.0689947 2.03621e-18 0.130349 -2.88763e-18 -0.00336152)
(-0.187256 0.127332 -9.72034e-19 0.188454 2.48982e-18 -0.00119734)
(-0.262139 0.226391 -8.91904e-19 0.261803 -1.01646e-18 0.000336271)
(-0.305222 0.39135 -3.70524e-19 0.33101 -4.52293e-19 -0.025787)
(-0.571915 0.465053 -2.19379e-20 0.535712 2.76705e-18 0.0362027)
(0.00203835 -0.00312123 -3.6478e-22 -0.0023103 -5.66403e-22 0.000271954)
(-8.85477e-05 -0.00399396 -1.67079e-21 -5.50579e-05 4.04074e-21 0.000143606)
(0.000875031 0.000695905 -8.77647e-21 -0.000759083 -3.5293e-20 -0.000115948)
(0.0465503 0.0388714 -4.79854e-20 -0.0470049 -2.71986e-19 0.000454629)
(0.362331 0.177046 2.73435e-19 -0.370528 3.83335e-19 0.00819756)
(0.598655 0.111503 2.39589e-19 -0.595623 -7.08826e-19 -0.0030322)
(0.310901 -0.0840406 4.42839e-19 -0.308068 -3.27835e-18 -0.00283331)
(0.0805682 -0.0682071 1.68943e-18 -0.071774 -2.9314e-18 -0.00879421)
(0.0380594 -0.0369211 -6.58491e-19 -0.0360653 1.89456e-18 -0.00199409)
(0.0311701 -0.0207423 3.4299e-19 -0.03173 5.43433e-19 0.000559891)
(0.0281484 -0.0136553 -5.28218e-19 -0.0286959 1.76857e-18 0.000547536)
(0.0285098 -0.0101957 -9.36055e-19 -0.0289772 1.94799e-18 0.000467427)
(0.0302219 -0.00717167 7.29855e-19 -0.0311398 -1.50472e-18 0.000917867)
(0.032307 -0.00656072 -2.90142e-19 -0.0332299 1.45528e-18 0.000922932)
(0.0346529 -0.00777005 -4.14045e-19 -0.0358711 -1.71133e-18 0.00121824)
(0.0361528 -0.0107899 -1.41171e-19 -0.0373975 -7.3876e-19 0.00124478)
(0.0372093 -0.0150546 2.08575e-19 -0.038508 3.77895e-19 0.00129873)
(0.0375945 -0.020128 2.60019e-19 -0.0386467 1.33461e-20 0.00105222)
(0.0375143 -0.0258503 4.80607e-20 -0.0383821 9.36188e-20 0.00086781)
(0.0365598 -0.0319454 -1.5712e-20 -0.0372031 -1.37976e-19 0.000643322)
(0.0349212 -0.038097 -1.85743e-20 -0.0353346 -3.42102e-19 0.000413375)
(0.0328844 -0.0439767 1.65722e-19 -0.0329267 -5.14181e-19 4.235e-05)
(0.0308933 -0.0494883 8.55373e-20 -0.0307374 -2.51397e-19 -0.000155955)
(0.0285094 -0.0551492 9.90807e-20 -0.0283708 2.19857e-19 -0.000138629)
(0.0258432 -0.0600781 -9.6854e-21 -0.0257246 1.2872e-18 -0.000118585)
(0.0233963 -0.0648449 1.2217e-18 -0.0233625 -1.50422e-18 -3.37791e-05)
(0.0207561 -0.0690255 2.70119e-19 -0.020742 -1.07531e-18 -1.4126e-05)
(0.0180606 -0.0724208 2.24129e-19 -0.0181895 2.70955e-18 0.000128858)
(0.0146336 -0.0743854 -6.07379e-19 -0.0148683 7.77302e-19 0.000234723)
(0.010289 -0.0738644 -1.50424e-18 -0.0107728 -1.00016e-18 0.000483821)
(0.00383586 -0.0703335 1.17563e-18 -0.004483 -1.90884e-18 0.000647143)
(-0.00601189 -0.0627213 -1.70671e-18 0.00512721 1.26582e-18 0.000884677)
(-0.0217087 -0.0501881 3.39102e-18 0.020545 -1.18001e-18 0.0011637)
(-0.0455515 -0.0301886 1.75825e-18 0.0440155 -2.44143e-18 0.001536)
(-0.0797919 0.000815704 1.58607e-18 0.0782047 1.34232e-18 0.00158713)
(-0.12617 0.0483094 9.78395e-19 0.125083 2.85911e-18 0.00108685)
(-0.188968 0.116293 5.09456e-19 0.188207 2.61115e-18 0.000760524)
(-0.277013 0.217201 -1.05068e-18 0.273836 -2.99683e-18 0.00317741)
(-0.379721 0.386106 8.08251e-19 0.376303 -1.00529e-18 0.00341897)
(-0.417842 0.661943 -1.55764e-18 0.447527 -2.15289e-18 -0.0296856)
(-0.607508 0.794318 -2.36999e-19 0.574707 -1.22105e-18 0.0328015)
(0.00194926 -0.00217409 1.02726e-21 -0.0019109 4.02386e-21 -3.8366e-05)
(0.000720919 -0.00313132 -2.54578e-21 -0.000693383 -5.31885e-21 -2.75359e-05)
(-0.000365254 -0.0021181 8.63943e-21 0.000384374 2.8394e-20 -1.91192e-05)
(0.000778771 0.000495809 8.16539e-21 -0.000737142 2.43716e-20 -4.16291e-05)
(0.0611145 0.0409378 -1.68407e-19 -0.0615719 -3.53136e-19 0.000457383)
(0.400159 0.165948 3.3247e-19 -0.407407 -4.20839e-19 0.00724862)
(0.719748 0.116661 -4.37827e-19 -0.718081 -1.17067e-19 -0.00166695)
(0.504614 -0.109056 -2.22597e-20 -0.510779 1.01293e-18 0.00616503)
(0.167906 -0.128349 9.25393e-19 -0.154626 -6.37704e-20 -0.0132796)
(0.083629 -0.0809767 5.78965e-20 -0.0785696 3.23008e-20 -0.00505944)
(0.0659726 -0.0570073 4.74236e-19 -0.0665293 -3.4745e-18 0.000556626)
(0.0626435 -0.0550026 -3.89254e-19 -0.0635065 5.7995e-19 0.000863013)
(0.0627458 -0.0552034 -4.44491e-19 -0.0635961 3.86429e-19 0.000850283)
(0.0628131 -0.0577483 6.57184e-19 -0.0626366 -3.72918e-18 -0.000176489)
(0.0641292 -0.06137 5.43913e-19 -0.0640599 2.71504e-19 -6.93576e-05)
(0.0641167 -0.0658922 2.91728e-19 -0.0638451 2.71345e-19 -0.000271609)
(0.0637219 -0.0710699 -3.50768e-19 -0.0634968 1.05787e-18 -0.000225081)
(0.0624373 -0.0763086 8.45699e-20 -0.0618865 2.19164e-19 -0.000550731)
(0.0607446 -0.0817554 5.23542e-20 -0.0601082 -1.3256e-19 -0.000636433)
(0.058028 -0.0874911 1.39071e-19 -0.0572758 7.72691e-20 -0.000752179)
(0.0546148 -0.0930538 -1.26713e-19 -0.0539178 4.33694e-19 -0.000696979)
(0.0509793 -0.0981031 -1.83465e-19 -0.0500868 4.3101e-19 -0.000892519)
(0.0478814 -0.102479 4.32361e-19 -0.0469612 3.22143e-19 -0.000920181)
(0.0446067 -0.106652 8.12908e-20 -0.0439296 8.0499e-19 -0.000677013)
(0.0410278 -0.109564 -8.85031e-19 -0.0404208 -1.44191e-19 -0.000607056)
(0.0382427 -0.112106 -5.76024e-19 -0.0380029 3.92291e-18 -0.000239876)
(0.0352457 -0.113866 2.53794e-19 -0.0349902 -5.63609e-20 -0.000255499)
(0.0326239 -0.115137 -1.17985e-18 -0.0328003 -1.47508e-18 0.000176345)
(0.0286986 -0.11521 -8.94785e-19 -0.0289099 -2.96482e-18 0.000211317)
(0.0233686 -0.113025 1.4694e-18 -0.0240021 -1.30298e-18 0.000633521)
(0.014373 -0.107159 -5.16815e-19 -0.0150035 3.32446e-18 0.000630464)
(0.000323387 -0.0955944 7.27693e-19 -0.00116425 -1.98052e-18 0.000840864)
(-0.0221762 -0.0755788 -3.43803e-18 0.0213232 6.0037e-18 0.000852973)
(-0.0554389 -0.0430869 -3.42731e-18 0.0542471 4.18263e-19 0.00119181)
(-0.102149 0.00606158 -1.84215e-18 0.101076 1.23484e-18 0.00107368)
(-0.163988 0.0787539 -2.08983e-18 0.163719 1.49199e-18 0.000268708)
(-0.244927 0.17983 6.917e-19 0.245053 -1.305e-19 -0.000125953)
(-0.352537 0.324631 -1.29329e-20 0.34997 1.22974e-19 0.00256752)
(-0.467554 0.556624 8.29661e-19 0.466284 2.06437e-18 0.00127019)
(-0.494756 0.909224 2.58882e-18 0.526765 -9.97177e-19 -0.032009)
(-0.603077 1.06489 -1.35256e-18 0.576507 -1.39379e-18 0.0265699)
(0.00138146 -0.00166403 -7.11048e-22 -0.00139302 -2.38025e-21 1.15531e-05)
(0.00071114 -0.0019856 5.34654e-21 -0.000690892 1.50046e-20 -2.02476e-05)
(-9.21156e-05 -0.00249991 -2.54262e-21 9.35587e-05 -1.2728e-20 -1.44314e-06)
(-0.000333541 -0.00114357 -1.00996e-21 0.000338151 -7.81219e-21 -4.60943e-06)
(0.00056768 0.000204823 7.87303e-22 -0.000543993 5.60709e-21 -2.36868e-05)
(0.0565704 0.0306467 -4.42802e-20 -0.0567285 -5.04392e-20 0.000158133)
(0.377642 0.133383 -5.47658e-20 -0.383862 3.19944e-21 0.00621971)
(0.814092 0.120687 -4.805e-19 -0.811887 1.21971e-18 -0.00220491)
(0.736761 -0.120198 -7.50278e-19 -0.747449 -3.21541e-19 0.0106882)
(0.318484 -0.213033 -7.61679e-20 -0.311614 -1.5895e-18 -0.00687002)
(0.15196 -0.151644 6.53111e-19 -0.139578 2.84258e-18 -0.0123821)
(0.111344 -0.115675 9.25133e-19 -0.109284 -1.56251e-18 -0.00206002)
(0.107121 -0.109482 -1.25132e-18 -0.109713 8.72335e-19 0.00259222)
(0.104072 -0.113001 7.02129e-19 -0.105174 1.63994e-18 0.00110228)
(0.103826 -0.119952 -1.01824e-19 -0.104277 7.99201e-19 0.000451215)
(0.102289 -0.126125 -3.0396e-19 -0.101703 -1.67515e-19 -0.000585433)
(0.100793 -0.132381 2.96068e-19 -0.100077 -1.5772e-18 -0.00071588)
(0.0980958 -0.137527 -2.71355e-20 -0.0969049 1.02868e-18 -0.00119092)
(0.0947773 -0.142113 1.97454e-19 -0.0934754 -2.06049e-19 -0.00130186)
(0.090296 -0.146783 7.51685e-20 -0.0888306 3.791e-19 -0.00146542)
(0.0849681 -0.150766 -1.805e-19 -0.0836595 -5.48753e-19 -0.00130851)
(0.0795835 -0.153841 1.34694e-19 -0.0781883 2.08351e-20 -0.00139514)
(0.0752501 -0.156461 -9.92575e-20 -0.0739412 2.08189e-19 -0.00130894)
(0.0710251 -0.15921 -6.98469e-19 -0.0701173 -6.64477e-19 -0.000907867)
(0.0665172 -0.161085 1.43425e-18 -0.0657231 -1.70136e-18 -0.000794086)
(0.0631823 -0.163036 -5.0163e-19 -0.0628881 -7.6952e-19 -0.000294166)
(0.0596187 -0.164501 -1.19059e-18 -0.0592648 -8.17245e-19 -0.000353896)
(0.0565534 -0.16576 1.23969e-18 -0.056759 -2.0518e-18 0.000205602)
(0.0517921 -0.166124 2.64451e-18 -0.0520195 -4.09824e-19 0.000227315)
(0.0451505 -0.164065 2.84137e-20 -0.045943 2.76688e-18 0.00079247)
(0.0336636 -0.157025 -1.31779e-18 -0.0344801 -1.33734e-18 0.000816455)
(0.0155676 -0.141723 -1.18183e-18 -0.0166758 1.26441e-18 0.00110817)
(-0.0134089 -0.113801 1.59129e-18 0.0123387 -6.4959e-18 0.00107012)
(-0.0559642 -0.0678211 4.05284e-18 0.0544639 -4.25964e-18 0.00150035)
(-0.114192 0.000715633 2.04412e-18 0.112932 -3.49922e-18 0.00125964)
(-0.188427 0.100027 -1.54575e-18 0.188259 2.22762e-19 0.000168687)
(-0.281053 0.234508 -3.10592e-20 0.281275 2.34363e-18 -0.00022272)
(-0.395015 0.418079 -1.25897e-18 0.392779 -1.17516e-18 0.00223578)
(-0.505125 0.693132 -3.35815e-18 0.506472 9.42054e-19 -0.00134615)
(-0.525849 1.07132 -9.54344e-19 0.554294 1.79964e-18 -0.0284452)
(-0.593156 1.23632 2.56198e-18 0.574399 -5.36822e-19 0.0187573)
(0.00110812 -0.00120349 -4.30606e-22 -0.00111871 -7.28068e-22 1.0587e-05)
(0.000588214 -0.00142635 1.54834e-21 -0.000583212 5.43493e-22 -5.00221e-06)
(0.000142534 -0.00168037 -3.97694e-21 -0.000133193 -6.65045e-21 -9.34074e-06)
(-0.000394781 -0.00178807 -5.74236e-21 0.000394418 -8.83415e-21 3.62756e-07)
(-0.000332078 -0.000815071 -1.07898e-21 0.000333928 -1.8502e-21 -1.85e-06)
(0.000324289 -3.18679e-05 4.23519e-21 -0.000308708 8.16413e-21 -1.55809e-05)
(0.0370068 0.0157103 -2.74636e-20 -0.0369676 -5.66561e-20 -3.92131e-05)
(0.302376 0.0897371 2.05474e-19 -0.30572 2.68738e-19 0.00334399)
(0.820668 0.111784 3.77747e-19 -0.821495 4.45355e-19 0.000827503)
(0.961122 -0.101646 4.35044e-20 -0.965491 2.75116e-18 0.00436859)
(0.573437 -0.305326 -1.77518e-18 -0.590546 6.14001e-19 0.0171091)
(0.24928 -0.246816 1.39149e-19 -0.228917 -3.51739e-18 -0.0203633)
(0.163916 -0.196738 4.92048e-19 -0.153535 3.12087e-18 -0.0103804)
(0.150476 -0.172273 -1.24811e-18 -0.150284 -5.36594e-19 -0.000192187)
(0.150207 -0.178369 6.53357e-19 -0.152468 -2.15292e-18 0.0022612)
(0.147666 -0.186001 -3.92178e-19 -0.148154 1.24665e-18 0.000487853)
(0.144008 -0.193665 4.52773e-19 -0.143421 1.2225e-18 -0.000587179)
(0.139625 -0.198688 1.62299e-19 -0.137921 6.97637e-19 -0.00170371)
(0.135626 -0.203151 -1.18354e-19 -0.133747 6.52247e-19 -0.00187844)
(0.130341 -0.207181 -1.89855e-20 -0.128234 -1.8505e-18 -0.00210655)
(0.123952 -0.209841 8.37423e-20 -0.122191 8.47074e-19 -0.00176119)
(0.117197 -0.211245 -3.25177e-19 -0.115416 -5.37895e-21 -0.00178054)
(0.111974 -0.212822 6.14338e-19 -0.110458 -1.01531e-18 -0.00151645)
(0.10699 -0.215368 2.87865e-19 -0.105927 -1.16211e-19 -0.00106303)
(0.101863 -0.218256 -7.67634e-19 -0.101056 2.12203e-18 -0.000807146)
(0.0980572 -0.222536 -4.38159e-19 -0.0977487 -1.84858e-18 -0.000308454)
(0.0943243 -0.227401 1.60841e-18 -0.094047 -1.2287e-18 -0.000277326)
(0.0907484 -0.232231 -6.83479e-20 -0.0909877 3.29465e-18 0.000239344)
(0.0850301 -0.235691 2.76926e-19 -0.0853988 3.48575e-18 0.000368747)
(0.0766704 -0.236039 -8.2682e-19 -0.0776174 -5.22668e-19 0.000946945)
(0.0627304 -0.230228 5.51091e-20 -0.0638483 -2.25358e-18 0.00111793)
(0.0406597 -0.2135 -1.84612e-18 -0.0420699 -4.62655e-19 0.00141014)
(0.00578627 -0.179663 -4.44617e-19 -0.00714818 2.92625e-18 0.00136191)
(-0.0453089 -0.121535 8.52806e-19 0.0433421 4.39232e-18 0.00196677)
(-0.112538 -0.0341372 5.14375e-18 0.110795 9.35109e-19 0.00174276)
(-0.193859 0.0894914 -1.98933e-18 0.193459 -1.06373e-18 0.000399706)
(-0.289161 0.252148 -5.65781e-18 0.289244 -8.56791e-19 -8.31759e-05)
(-0.394876 0.46085 2.85768e-18 0.393355 -4.00151e-19 0.00152149)
(-0.484877 0.745111 -1.19255e-18 0.488801 -2.1683e-18 -0.00392411)
(-0.50524 1.09171 -1.76898e-19 0.526175 7.38466e-19 -0.0209349)
(-0.571917 1.25688 9.18263e-19 0.565927 1.8587e-18 0.00598945)
(0.000853408 -0.000866125 -9.75216e-23 -0.000861915 -1.83741e-22 8.50685e-06)
(0.000522774 -0.00108559 -1.07744e-21 -0.000520301 -2.47839e-21 -2.47319e-06)
(0.000195798 -0.00117309 8.57938e-22 -0.000191965 3.30492e-21 -3.8329e-06)
(-0.000148707 -0.00132535 6.13135e-21 0.000154047 1.17127e-20 -5.33992e-06)
(-0.000477582 -0.00127746 9.03302e-22 0.000476804 1.91688e-21 7.7785e-07)
(-0.00035384 -0.000660525 6.10686e-22 0.00035338 7.55393e-23 4.59946e-07)
(0.000209387 -0.000448327 -1.76748e-20 -0.000189107 -2.49379e-20 -2.02805e-05)
(0.0166268 0.00478967 3.27531e-21 -0.0165393 8.30389e-21 -8.7544e-05)
(0.199698 0.0475004 -3.37865e-20 -0.20074 -2.56588e-19 0.00104163)
(0.701621 0.0788279 3.80706e-19 -0.706432 7.772e-19 0.00481087)
(1.09589 -0.0577629 -3.34542e-19 -1.08847 -4.09623e-18 -0.00742392)
(0.903278 -0.34344 1.08817e-18 -0.929059 3.20616e-18 0.0257807)
(0.450563 -0.396688 -1.89728e-19 -0.454916 -1.97265e-18 0.0043529)
(0.238751 -0.298342 -8.76847e-19 -0.215608 -2.34113e-19 -0.0231437)
(0.193838 -0.256354 1.74628e-18 -0.183763 -1.58443e-18 -0.0100746)
(0.195813 -0.24526 5.32986e-19 -0.196197 1.36645e-18 0.000384262)
(0.195383 -0.254707 -8.67264e-19 -0.197007 8.8643e-19 0.00162373)
(0.191147 -0.262702 -6.76726e-19 -0.190743 7.88614e-19 -0.000403117)
(0.185642 -0.268678 -1.21659e-18 -0.183919 -7.87509e-21 -0.00172231)
(0.17884 -0.272233 1.4979e-18 -0.176124 -1.26443e-18 -0.00271619)
(0.171548 -0.27393 -1.54665e-19 -0.169157 1.65056e-18 -0.00239115)
(0.163745 -0.274486 -5.70391e-19 -0.161379 -3.81638e-19 -0.00236662)
(0.157653 -0.275795 4.43308e-19 -0.155774 5.72306e-19 -0.00187907)
(0.151816 -0.279006 2.31993e-19 -0.150486 4.74114e-19 -0.00133014)
(0.145699 -0.284323 1.53688e-19 -0.144798 -7.44564e-19 -0.000900424)
(0.141013 -0.293036 -2.51623e-20 -0.140682 1.03966e-18 -0.000331008)
(0.136899 -0.304243 1.0638e-18 -0.136674 2.67213e-18 -0.000224737)
(0.133014 -0.316875 3.28486e-19 -0.133244 -1.05067e-18 0.000229952)
(0.12673 -0.328746 -2.18809e-18 -0.127114 3.5918e-19 0.00038397)
(0.117006 -0.337075 -2.3251e-18 -0.117922 -2.16423e-18 0.000915897)
(0.100599 -0.337231 2.00582e-18 -0.101792 -2.01069e-19 0.00119288)
(0.0747151 -0.323096 1.95046e-18 -0.0762202 -2.28209e-18 0.00150506)
(0.0349133 -0.28723 1.32691e-18 -0.0363045 6.49187e-19 0.0013912)
(-0.0226815 -0.221117 -2.82837e-18 0.020608 3.85669e-20 0.00207351)
(-0.0952023 -0.118694 -2.87695e-18 0.0931423 3.1004e-18 0.00206)
(-0.17766 0.0214361 1.3787e-20 0.176956 -2.63504e-18 0.000703966)
(-0.266143 0.200156 4.15668e-18 0.266138 -3.85292e-19 4.78178e-06)
(-0.35209 0.41365 -1.4455e-18 0.351844 3.52867e-19 0.000245892)
(-0.411978 0.666133 1.32092e-18 0.417603 -3.55055e-19 -0.00562456)
(-0.432335 0.929137 -3.08912e-18 0.445371 -1.26772e-18 -0.013036)
(-0.513119 1.05864 -8.83425e-19 0.518179 5.3355e-19 -0.0050598)
(0.000654434 -0.000638999 -1.79932e-22 -0.000661554 -2.68441e-22 7.12021e-06)
(0.000443164 -0.000799846 -1.27614e-21 -0.000442282 -1.86986e-21 -8.82407e-07)
(0.000221676 -0.000899212 4.81226e-21 -0.00022136 7.38202e-21 -3.16154e-07)
(-1.34104e-05 -0.000918805 -1.6542e-22 1.45657e-05 -1.92911e-21 -1.15529e-06)
(-0.000289264 -0.0010561 2.05352e-21 0.000293503 2.32899e-21 -4.23887e-06)
(-0.00046533 -0.00089853 -1.47197e-21 0.000466097 -1.32204e-21 -7.67051e-07)
(-0.000364977 -0.00053843 2.53479e-21 0.000363603 4.78663e-21 1.37481e-06)
(-0.000130379 -0.000372534 4.29944e-21 0.000134333 4.1613e-21 -3.95459e-06)
(0.00359022 0.000248829 2.49535e-22 -0.00355023 1.08407e-20 -3.99897e-05)
(0.0999347 0.0161325 2.42825e-19 -0.100042 2.22571e-19 0.000106823)
(0.477046 0.0387679 -3.1002e-19 -0.479996 -2.67465e-20 0.0029499)
(1.03759 -0.0390132 -1.1277e-18 -1.0358 -2.59607e-19 -0.00179684)
(1.18848 -0.29335 1.65101e-18 -1.19368 -1.78733e-18 0.00519267)
(0.798914 -0.522599 -2.33725e-18 -0.835172 1.94872e-18 0.0362578)
(0.400936 -0.467368 3.87087e-19 -0.393081 -2.83187e-18 -0.007855)
(0.258406 -0.367574 1.26115e-18 -0.2332 2.60359e-18 -0.0252058)
(0.238612 -0.330586 7.42952e-19 -0.227367 -2.73268e-18 -0.0112447)
(0.247429 -0.32683 -1.02052e-19 -0.247392 1.12412e-18 -3.63221e-05)
(0.2477 -0.337645 -1.25771e-18 -0.248965 -1.83763e-18 0.00126475)
(0.241423 -0.346102 7.03534e-19 -0.240413 1.81259e-18 -0.00100946)
(0.232565 -0.350403 -1.6355e-19 -0.230472 -1.37947e-18 -0.00209335)
(0.222464 -0.351759 -6.40323e-19 -0.219471 7.49555e-19 -0.00299244)
(0.214234 -0.353725 5.86541e-19 -0.211514 -9.24625e-20 -0.00271988)
(0.206038 -0.357818 -5.61792e-19 -0.203975 1.54571e-19 -0.00206207)
(0.196784 -0.365928 -3.0993e-19 -0.19544 1.47389e-18 -0.00134344)
(0.188819 -0.379603 -2.53606e-19 -0.188237 -2.36524e-19 -0.000582011)
(0.182142 -0.398005 -2.57649e-18 -0.181964 2.31646e-19 -0.000178211)
(0.17575 -0.419644 -2.44903e-19 -0.175977 3.13368e-19 0.000226649)
(0.167416 -0.442484 4.71172e-20 -0.167956 -2.48579e-18 0.000540035)
(0.155335 -0.462933 3.49064e-18 -0.156339 -1.34944e-19 0.00100404)
(0.136623 -0.475271 -4.98566e-19 -0.138078 1.68347e-18 0.00145517)
(0.108263 -0.471887 1.21111e-18 -0.110027 1.65752e-18 0.00176471)
(0.0663327 -0.443729 -2.13156e-18 -0.0679173 7.79386e-19 0.00158455)
(0.00638528 -0.380714 3.33808e-18 -0.00827854 -3.06777e-18 0.00189326)
(-0.0684601 -0.274536 2.06401e-19 0.0663277 -7.82218e-20 0.00213242)
(-0.148468 -0.130351 2.65473e-18 0.147612 3.58226e-19 0.00085693)
(-0.223216 0.0477067 -6.7852e-18 0.223797 1.23336e-18 -0.000581201)
(-0.283387 0.244298 2.87127e-18 0.285132 8.09514e-20 -0.00174503)
(-0.312074 0.437859 2.61613e-19 0.318632 4.86739e-19 -0.00655785)
(-0.326426 0.595278 2.34332e-18 0.334551 4.15938e-19 -0.00812533)
(-0.412133 0.659981 -2.08808e-18 0.419606 -1.44726e-18 -0.00747301)
(0.000500552 -0.000477299 -7.6502e-22 -0.000506141 -1.07576e-21 5.58835e-06)
(0.000357121 -0.000595497 3.34938e-21 -0.000356363 4.75927e-21 -7.57788e-07)
(0.000213528 -0.000677782 -6.28479e-22 -0.000212977 -1.81664e-21 -5.50362e-07)
(5.25186e-05 -0.000718675 -6.30411e-21 -5.27128e-05 -8.88576e-21 1.94186e-07)
(-0.000117285 -0.000720504 -4.16669e-22 0.000118336 -3.04911e-22 -1.05102e-06)
(-0.000323205 -0.000780311 7.10291e-21 0.000326736 1.01412e-20 -3.53157e-06)
(-0.000400992 -0.000607717 -1.71283e-21 0.000402604 -2.97679e-21 -1.61293e-06)
(-0.000351407 -0.000421685 -9.9811e-21 0.000350235 -1.28399e-20 1.17215e-06)
(-0.000234384 -0.000314093 1.10069e-20 0.000234256 1.32317e-20 1.27231e-07)
(0.00227593 -0.00150796 3.88883e-21 -0.00222838 -1.81699e-20 -4.75519e-05)
(0.0316278 0.00129626 -1.71695e-20 -0.0315251 -4.03751e-20 -0.000102723)
(0.24381 0.00761926 -1.69336e-19 -0.244378 -6.81387e-20 0.000567532)
(0.756801 -0.0389766 -6.49148e-19 -0.760147 -2.96138e-19 0.00334616)
(1.24412 -0.21957 3.02603e-19 -1.23879 -1.84546e-18 -0.00533216)
(1.19479 -0.518474 -3.64326e-19 -1.21537 4.27067e-18 0.0205825)
(0.745287 -0.665372 9.12872e-19 -0.783029 -1.12416e-18 0.0377417)
(0.409586 -0.558834 -1.22384e-18 -0.395983 1.71894e-18 -0.0136029)
(0.302122 -0.456107 -2.53301e-19 -0.273109 1.40559e-18 -0.0290128)
(0.295652 -0.422549 -2.7727e-19 -0.280728 -7.04525e-19 -0.0149243)
(0.308486 -0.423947 6.16446e-19 -0.306086 -1.95075e-18 -0.00239992)
(0.309284 -0.436505 8.98455e-19 -0.31093 4.70909e-19 0.00164557)
(0.299094 -0.445714 -6.4076e-19 -0.299056 -1.60628e-18 -3.74243e-05)
(0.287016 -0.452913 -3.06262e-20 -0.285943 6.34032e-19 -0.00107307)
(0.272696 -0.459768 1.57496e-18 -0.271043 -1.11685e-18 -0.00165268)
(0.255348 -0.471066 -1.49658e-18 -0.25366 3.63162e-19 -0.00168821)
(0.23909 -0.490481 -4.11841e-19 -0.238033 -7.81168e-19 -0.00105672)
(0.224944 -0.516403 2.73565e-18 -0.224437 -2.89158e-18 -0.000506642)
(0.211348 -0.547497 -1.1801e-18 -0.211143 2.42931e-18 -0.00020532)
(0.196122 -0.581948 2.14489e-19 -0.196332 -2.52214e-19 0.000210631)
(0.177362 -0.615892 -2.44141e-18 -0.177952 2.31621e-18 0.000589778)
(0.153066 -0.643115 8.58346e-19 -0.154132 -1.46199e-18 0.0010654)
(0.120756 -0.654443 -1.15074e-18 -0.121964 9.45036e-19 0.00120749)
(0.0776295 -0.640047 -1.73686e-18 -0.0783566 -9.71931e-19 0.000727121)
(0.0193478 -0.589451 7.0429e-19 -0.0196126 3.46933e-18 0.000264812)
(-0.0535536 -0.496439 -2.20911e-18 0.0526783 1.08612e-18 0.000875284)
(-0.126891 -0.369024 -4.57325e-19 0.127038 -2.56431e-19 -0.000147283)
(-0.184934 -0.218095 2.63778e-18 0.187103 -3.11706e-18 -0.00216935)
(-0.222674 -0.0606836 -1.87634e-18 0.226472 1.10918e-18 -0.00379748)
(-0.230948 0.0757072 -3.94266e-19 0.238649 -1.25528e-18 -0.00770092)
(-0.231798 0.155794 -3.50409e-18 0.240734 -1.03241e-18 -0.00893603)
(-0.301584 0.168808 1.50518e-18 0.30611 1.79941e-19 -0.00452672)
(0.000380934 -0.000360536 -7.47756e-22 -0.000385118 -9.71363e-22 4.18401e-06)
(0.000281161 -0.000447339 -2.96912e-21 -0.000280693 -3.79519e-21 -4.67662e-07)
(0.0001834 -0.000507992 -3.44228e-22 -0.000183137 -3.5597e-22 -2.63576e-07)
(7.67982e-05 -0.000552098 -5.04987e-22 -7.69808e-05 -2.72713e-22 1.8261e-07)
(-3.99737e-05 -0.0005632 4.55293e-21 3.96907e-05 6.11273e-21 2.82981e-07)
(-0.000162543 -0.000558791 2.7004e-21 0.000163023 2.08209e-21 -4.79124e-07)
(-0.000302487 -0.000558928 -3.79468e-21 0.000304628 -4.64543e-21 -2.14106e-06)
(-0.000358858 -0.000446344 -2.30147e-21 0.000360745 -2.9015e-22 -1.88743e-06)