/*--------------------------------*- C++ -*----------------------------------*\
| =========                 |                                                 |
| \\      /  F ield         | OpenFOAM: The Open Source CFD Toolbox           |
|  \\    /   O peration     | Version:  2312                                  |
|   \\  /    A nd           | Website:  www.openfoam.com                      |
|    \\/     M anipulation  |                                                 |
\*---------------------------------------------------------------------------*/
FoamFile
{
    version     2.0;
    format      ascii;
    arch        "LSB;label=32;scalar=64";
    class       volScalarField;
    location    "150";
    object      turbulenceProperties:nuEff;
}
// * * * * * * * * * * * * * * * * * * * * * * * * * * * * * * * * * * * * * //

dimensions      [0 2 -1 0 0 0 0];

internalField   nonuniform List<scalar> 
11040
(
7.36478e-05
5.84442e-05
6.61999e-05
0.000239058
0.00023048
0.000206206
0.000186688
0.00017747
0.00017407
0.000176129
0.000182599
0.000191349
0.000202137
0.000215551
0.000231171
0.000249101
0.00026909
0.000291653
0.000316798
0.000344326
0.000374225
0.000404982
0.000435281
0.000465304
0.000494719
0.000524248
0.000552426
0.000579813
0.000605492
0.00063159
0.000659555
0.000684594
0.000703626
0.000714107
0.000712757
0.000699574
0.000672604
0.000620098
0.000507147
0.000421213
0.000642938
2.71658e-05
6.81563e-05
0.000129267
0.000578844
0.000665841
0.000601483
0.000532714
0.00050399
0.000493827
0.000506256
0.000535657
0.0005636
0.000585879
0.000602658
0.000614165
0.000622706
0.000628424
0.000632745
0.000636248
0.000640695
0.000647475
0.000656554
0.000665924
0.000675007
0.0006824
0.000687785
0.000690964
0.000687871
0.000679019
0.000673479
0.000716534
0.000776905
0.000848738
0.000935973
0.00103934
0.00115772
0.00129796
0.00147011
0.00169473
0.00208066
0.00306822
1.4709e-05
3.11864e-05
5.59314e-05
0.000391071
0.00102363
0.00124816
0.00111481
0.00104331
0.00100061
0.000977306
0.000980071
0.000989436
0.000995152
0.000999787
0.000999073
0.000997913
0.000996066
0.000995366
0.00099647
0.00100217
0.00101538
0.0010335
0.00105002
0.0010674
0.00109199
0.00112985
0.0011819
0.00125295
0.00134151
0.0014543
0.00159066
0.00175166
0.00193298
0.00213658
0.00236073
0.00261058
0.00290142
0.0032622
0.00374279
0.00453365
0.00636797
1.55099e-05
1.84845e-05
1.64391e-05
0.000132636
0.00064627
0.00148023
0.001855
0.00179556
0.00172133
0.00166431
0.00167228
0.00169896
0.0017213
0.00174695
0.001763
0.00177703
0.00178853
0.00179765
0.00180677
0.00182384
0.00185403
0.00189375
0.00192987
0.00196637
0.00201341
0.00208022
0.00217121
0.00229726
0.00245672
0.00265551
0.00288899
0.00315921
0.00345989
0.00379199
0.00415205
0.00454458
0.0049918
0.0055548
0.00632927
0.00760128
0.0102577
1.62455e-05
1.66796e-05
1.48321e-05
1.22946e-05
0.000206229
0.000859743
0.00190949
0.00265389
0.0027966
0.00265881
0.00262857
0.0026784
0.00274072
0.0028196
0.00288469
0.00293805
0.00298287
0.00301316
0.00303346
0.00306379
0.00311104
0.00317368
0.00323191
0.00328968
0.00335941
0.00345287
0.00358172
0.00376492
0.00400579
0.00430752
0.00466148
0.00506398
0.00550386
0.00597821
0.00648014
0.007009
0.00758784
0.00831753
0.0093662
0.0111253
0.0145017
1.63004e-05
1.60749e-05
1.71503e-05
1.12118e-05
1.06436e-05
0.000241136
0.000985046
0.00229581
0.00349907
0.00390089
0.00403702
0.00408309
0.00414701
0.00425523
0.00437861
0.0045094
0.00462858
0.00471228
0.00475953
0.00481452
0.00488337
0.00496928
0.00505122
0.00513627
0.0052411
0.00537611
0.0055529
0.00579676
0.00612689
0.00654754
0.00704315
0.00759666
0.00818553
0.00879938
0.00942676
0.0100561
0.0106974
0.0114773
0.0126883
0.0148604
0.0188823
1.62333e-05
1.61057e-05
1.66408e-05
1.61758e-05
1.01421e-05
1.0007e-05
0.000216479
0.000995645
0.00250789
0.00423296
0.00511782
0.00551917
0.00571833
0.00590875
0.00609371
0.00627919
0.00644809
0.00659834
0.00673052
0.00686451
0.0070002
0.00714703
0.00729359
0.00745462
0.00765365
0.00790342
0.00820952
0.00858114
0.00902933
0.00957764
0.0102267
0.0109422
0.0116756
0.0124017
0.0131053
0.0137629
0.0143458
0.0149666
0.0160636
0.018357
0.022685
1.61895e-05
1.62204e-05
1.61339e-05
1.68615e-05
1.54419e-05
1.00072e-05
2.25259e-05
0.000150445
0.000883283
0.0024626
0.00462104
0.00632303
0.00705667
0.00750554
0.007833
0.00813801
0.00841452
0.0086649
0.00888844
0.00910808
0.00934447
0.00960609
0.00986676
0.0101589
0.0105128
0.0109479
0.0114731
0.0120942
0.0128015
0.0136068
0.0144823
0.0153807
0.0162418
0.01702
0.0177014
0.018268
0.0186222
0.0188009
0.0192784
0.0210503
0.0247092
1.61806e-05
1.61772e-05
1.62249e-05
1.59976e-05
1.78753e-05
1.4717e-05
1.00158e-05
1.27632e-05
6.15033e-05
0.000655406
0.00211334
0.0044961
0.00707024
0.00862143
0.00939516
0.00994127
0.0104054
0.010828
0.0112076
0.0115703
0.0119484
0.0123612
0.01277
0.013215
0.0137381
0.0143641
0.0151064
0.0159732
0.0169631
0.0180666
0.0192485
0.0204524
0.021602
0.0226074
0.0233579
0.0237416
0.0236422
0.0230516
0.0223478
0.0227883
0.0246997
1.61672e-05
1.61703e-05
1.6194e-05
1.61267e-05
1.62284e-05
1.7862e-05
1.3738e-05
1.00091e-05
1.00973e-05
0.00012321
0.000363135
0.0015379
0.00382566
0.00693877
0.0097771
0.0113227
0.0122252
0.0129253
0.0135456
0.0141371
0.0147275
0.0153469
0.0159418
0.0165613
0.0172586
0.0180623
0.0189901
0.0200538
0.0212505
0.0225594
0.0239315
0.02529
0.0265279
0.0275165
0.0281126
0.0281968
0.0277047
0.0266705
0.0253181
0.0240819
0.0235981
1.61569e-05
1.61633e-05
1.61634e-05
1.61964e-05
1.60755e-05
1.64583e-05
1.73743e-05
1.41483e-05
1.0146e-05
1.0001e-05
3.64235e-05
0.000131518
0.000887617
0.00273872
0.00585154
0.00965717
0.0128386
0.0145947
0.0156958
0.0166194
0.0174948
0.0183976
0.0192358
0.0200644
0.0209443
0.0219046
0.022969
0.0241558
0.0254652
0.0268721
0.028319
0.0297132
0.0309252
0.0317985
0.0321616
0.0318731
0.0308605
0.0291123
0.0267691
0.0242203
0.0221234
1.61484e-05
1.61529e-05
1.61582e-05
1.61632e-05
1.61702e-05
1.61215e-05
1.6394e-05
1.70551e-05
1.55465e-05
1.05725e-05
1.00039e-05
1.02236e-05
0.000151514
0.000351549
0.00156902
0.00410933
0.00802162
0.0125708
0.0163615
0.0186036
0.0200421
0.0213189
0.0224491
0.0235332
0.0246326
0.0257542
0.0269209
0.0281623
0.0294918
0.0308915
0.0323104
0.033656
0.0347954
0.0355593
0.035756
0.0352174
0.033855
0.0316184
0.0285591
0.0249125
0.0211069
1.61406e-05
1.61445e-05
1.61491e-05
1.61534e-05
1.61597e-05
1.61596e-05
1.61423e-05
1.62841e-05
1.69639e-05
1.61412e-05
1.22175e-05
1e-05
1e-05
1.79114e-05
1.02666e-05
0.000593287
0.00223066
0.00537019
0.0099972
0.0153565
0.0201534
0.0233585
0.0252894
0.0267745
0.0281575
0.0294681
0.0307245
0.0319745
0.0332466
0.0345415
0.0358264
0.0370319
0.0380466
0.0387142
0.038834
0.0382059
0.0366978
0.0342545
0.0309324
0.0269479
0.0225776
1.61335e-05
1.61367e-05
1.61406e-05
1.61446e-05
1.61486e-05
1.61536e-05
1.61573e-05
1.61391e-05
1.62403e-05
1.66165e-05
1.6887e-05
1.42608e-05
1.01305e-05
1.00018e-05
1.00001e-05
5.02784e-05
2.9345e-05
0.000768654
0.00263223
0.00606342
0.0110898
0.0168198
0.0221771
0.0265388
0.0297416
0.0320183
0.033716
0.0351082
0.0363427
0.0374783
0.0385142
0.039415
0.0401075
0.0404838
0.0403658
0.0394955
0.0375963
0.0347421
0.0310957
0.0269658
0.0226928
1.6127e-05
1.61295e-05
1.61328e-05
1.61362e-05
1.61399e-05
1.61436e-05
1.61484e-05
1.61512e-05
1.61472e-05
1.61758e-05
1.63765e-05
1.72444e-05
1.567e-05
1.2194e-05
1.00002e-05
1.00001e-05
1.00039e-05
7.46939e-05
4.16438e-05
0.000758467
0.00247189
0.00539492
0.00931658
0.0138184
0.0184145
0.0226952
0.0264011
0.0294294
0.0317879
0.0335401
0.0347582
0.0354971
0.0357831
0.0356263
0.0348566
0.0331436
0.0305474
0.0273303
0.023729
0.0200281
0.0165442
1.6121e-05
1.61229e-05
1.61256e-05
1.61286e-05
1.61317e-05
1.61351e-05
1.61388e-05
1.61431e-05
1.61474e-05
1.61485e-05
1.61285e-05
1.63115e-05
1.67452e-05
1.69596e-05
1.46147e-05
1.08104e-05
1.00059e-05
1e-05
1.00066e-05
5.54799e-05
0.00032664
0.000366407
0.00125421
0.00268994
0.00462013
0.00684565
0.0091546
0.0113463
0.0132618
0.0147922
0.0158729
0.016473
0.0165859
0.0162224
0.0153979
0.0141491
0.0125811
0.0108463
0.0090608
0.00735057
0.00584373
1.61156e-05
1.61169e-05
1.61191e-05
1.61217e-05
1.61244e-05
1.61273e-05
1.61305e-05
1.61341e-05
1.6138e-05
1.6144e-05
1.6143e-05
1.61333e-05
1.61982e-05
1.64206e-05
1.68996e-05
1.65346e-05
1.41122e-05
1.05815e-05
1.00051e-05
1.00001e-05
1e-05
1.35009e-05
0.000105924
0.000280506
0.000157079
0.000435743
0.000842724
0.00130422
0.0017667
0.00216234
0.00244326
0.00258559
0.00258314
0.00244373
0.00218932
0.00188002
0.00155131
0.00123452
0.000945631
0.000698477
0.000501057
1.61114e-05
1.61123e-05
1.61141e-05
1.61162e-05
1.61185e-05
1.6121e-05
1.61237e-05
1.61266e-05
1.61299e-05
1.61339e-05
1.61389e-05
1.61405e-05
1.614e-05
1.61401e-05
1.62558e-05
1.65379e-05
1.69033e-05
1.64316e-05
1.39269e-05
1.09283e-05
1e-05
1.00001e-05
1e-05
1e-05
1.00916e-05
1.3913e-05
4.15804e-05
8.82868e-05
0.000131568
0.000164259
0.000186931
1.00387e-05
1.42941e-05
2.53702e-05
4.94219e-05
2.45523e-05
1.15976e-05
1.11356e-05
1.08206e-05
1.03879e-05
1.00778e-05
1.61081e-05
1.61087e-05
1.61102e-05
1.61119e-05
1.61138e-05
1.61159e-05
1.61182e-05
1.61207e-05
1.61234e-05
1.61266e-05
1.61305e-05
1.61349e-05
1.61395e-05
1.61399e-05
1.61385e-05
1.61554e-05
1.62924e-05
1.65826e-05
1.68947e-05
1.64941e-05
1.43916e-05
1.18146e-05
1.02611e-05
1e-05
1.00001e-05
1.00001e-05
1e-05
1e-05
1e-05
1e-05
1e-05
1e-05
1.00002e-05
1.00008e-05
1.00027e-05
1.00008e-05
1.00001e-05
1.00001e-05
1.00001e-05
1.00001e-05
1e-05
1.61053e-05
1.61056e-05
1.61067e-05
1.61081e-05
1.61096e-05
1.61113e-05
1.61132e-05
1.61154e-05
1.61178e-05
1.61204e-05
1.61236e-05
1.61273e-05
1.61316e-05
1.61368e-05
1.61406e-05
1.61389e-05
1.61378e-05
1.6169e-05
1.63137e-05
1.65701e-05
1.68688e-05
1.66888e-05
1.58975e-05
1.44286e-05
1.28416e-05
1.15285e-05
1.06964e-05
1.02675e-05
1.0089e-05
1.0028e-05
1.00099e-05
1.00051e-05
1.00045e-05
1.00066e-05
1.0013e-05
1.00315e-05
1.00642e-05
1.01149e-05
1.01872e-05
1.02862e-05
1.04034e-05
1.61031e-05
1.6103e-05
1.61037e-05
1.61047e-05
1.61059e-05
1.61072e-05
1.61088e-05
1.61107e-05
1.61127e-05
1.6115e-05
1.61177e-05
1.61209e-05
1.61245e-05
1.61287e-05
1.61337e-05
1.61388e-05
1.61408e-05
1.61388e-05
1.61428e-05
1.61785e-05
1.62826e-05
1.64434e-05
1.66382e-05
1.68055e-05
1.68223e-05
1.66346e-05
1.627e-05
1.58077e-05
1.53285e-05
1.48976e-05
1.45508e-05
1.43012e-05
1.41512e-05
1.40891e-05
1.41051e-05
1.41885e-05
1.43222e-05
1.44823e-05
1.46668e-05
1.48631e-05
1.50559e-05
1.61012e-05
1.61007e-05
1.6101e-05
1.61017e-05
1.61025e-05
1.61036e-05
1.61049e-05
1.61065e-05
1.61083e-05
1.61103e-05
1.61126e-05
1.61153e-05
1.61184e-05
1.6122e-05
1.61261e-05
1.61309e-05
1.6136e-05
1.61404e-05
1.61428e-05
1.61442e-05
1.61494e-05
1.61665e-05
1.62087e-05
1.62839e-05
1.63873e-05
1.65034e-05
1.66155e-05
1.67117e-05
1.67871e-05
1.6841e-05
1.68759e-05
1.68961e-05
1.69059e-05
1.69094e-05
1.69107e-05
1.69126e-05
1.69157e-05
1.69201e-05
1.69257e-05
1.69311e-05
1.69376e-05
1.60996e-05
1.60987e-05
1.60987e-05
1.6099e-05
1.60996e-05
1.61004e-05
1.61015e-05
1.61029e-05
1.61044e-05
1.61062e-05
1.61082e-05
1.61105e-05
1.61132e-05
1.61164e-05
1.61199e-05
1.61239e-05
1.61283e-05
1.61332e-05
1.61384e-05
1.61433e-05
1.61474e-05
1.61501e-05
1.61528e-05
1.61586e-05
1.617e-05
1.6189e-05
1.62156e-05
1.62481e-05
1.62842e-05
1.6321e-05
1.63563e-05
1.63883e-05
1.64158e-05
1.64386e-05
1.64566e-05
1.64704e-05
1.64803e-05
1.64881e-05
1.64935e-05
1.64973e-05
1.65002e-05
1.60983e-05
1.6097e-05
1.60966e-05
1.60967e-05
1.60971e-05
1.60977e-05
1.60986e-05
1.60998e-05
1.61011e-05
1.61027e-05
1.61044e-05
1.61065e-05
1.61088e-05
1.61115e-05
1.61146e-05
1.61181e-05
1.61219e-05
1.61262e-05
1.61308e-05
1.61358e-05
1.61412e-05
1.61466e-05
1.61517e-05
1.61563e-05
1.61606e-05
1.61648e-05
1.61695e-05
1.6175e-05
1.61816e-05
1.61891e-05
1.61976e-05
1.62067e-05
1.62162e-05
1.62258e-05
1.62353e-05
1.62445e-05
1.62533e-05
1.62619e-05
1.62702e-05
1.6278e-05
1.62859e-05
1.60973e-05
1.60956e-05
1.6095e-05
1.60948e-05
1.60951e-05
1.60956e-05
1.60963e-05
1.60973e-05
1.60985e-05
1.60998e-05
1.61014e-05
1.61031e-05
1.61051e-05
1.61075e-05
1.61102e-05
1.61132e-05
1.61166e-05
1.61203e-05
1.61243e-05
1.61286e-05
1.61333e-05
1.61384e-05
1.61438e-05
1.61493e-05
1.6155e-05
1.61607e-05
1.61664e-05
1.61721e-05
1.61778e-05
1.61835e-05
1.61894e-05
1.61955e-05
1.62018e-05
1.62082e-05
1.62148e-05
1.62216e-05
1.62284e-05
1.62352e-05
1.62422e-05
1.62489e-05
1.62561e-05
1.60965e-05
1.60946e-05
1.60937e-05
1.60935e-05
1.60937e-05
1.60941e-05
1.60947e-05
1.60955e-05
1.60965e-05
1.60976e-05
1.6099e-05
1.61005e-05
1.61022e-05
1.61042e-05
1.61066e-05
1.61092e-05
1.61121e-05
1.61153e-05
1.61188e-05
1.61226e-05
1.61267e-05
1.61311e-05
1.61358e-05
1.61407e-05
1.61458e-05
1.61511e-05
1.61566e-05
1.61623e-05
1.6168e-05
1.61738e-05
1.61797e-05
1.61856e-05
1.61915e-05
1.61975e-05
1.62035e-05
1.62095e-05
1.62154e-05
1.62214e-05
1.62274e-05
1.62331e-05
1.62392e-05
1.6096e-05
1.60939e-05
1.60931e-05
1.60928e-05
1.60929e-05
1.60932e-05
1.60936e-05
1.60943e-05
1.60951e-05
1.6096e-05
1.60972e-05
1.60985e-05
1.60999e-05
1.61017e-05
1.61037e-05
1.61059e-05
1.61085e-05
1.61113e-05
1.61143e-05
1.61177e-05
1.61212e-05
1.61251e-05
1.61291e-05
1.61334e-05
1.61378e-05
1.61425e-05
1.61473e-05
1.61522e-05
1.61572e-05
1.61623e-05
1.61675e-05
1.61728e-05
1.6178e-05
1.61833e-05
1.61886e-05
1.61939e-05
1.61991e-05
1.62043e-05
1.62096e-05
1.62145e-05
1.62198e-05
1.60959e-05
1.60939e-05
1.60931e-05
1.60928e-05
1.60927e-05
1.60928e-05
1.60931e-05
1.60935e-05
1.60941e-05
1.60949e-05
1.60958e-05
1.60969e-05
1.60981e-05
1.60996e-05
1.61013e-05
1.61033e-05
1.61055e-05
1.61079e-05
1.61106e-05
1.61135e-05
1.61166e-05
1.612e-05
1.61235e-05
1.61273e-05
1.61312e-05
1.61352e-05
1.61394e-05
1.61437e-05
1.61481e-05
1.61526e-05
1.61571e-05
1.61617e-05
1.61663e-05
1.61709e-05
1.61755e-05
1.61801e-05
1.61847e-05
1.61893e-05
1.61939e-05
1.61981e-05
1.62028e-05
1.60964e-05
1.60946e-05
1.60937e-05
1.60932e-05
1.60928e-05
1.60927e-05
1.60927e-05
1.60929e-05
1.60933e-05
1.60938e-05
1.60945e-05
1.60954e-05
1.60965e-05
1.60978e-05
1.60993e-05
1.6101e-05
1.61029e-05
1.61051e-05
1.61074e-05
1.611e-05
1.61127e-05
1.61157e-05
1.61188e-05
1.61221e-05
1.61255e-05
1.6129e-05
1.61327e-05
1.61365e-05
1.61403e-05
1.61443e-05
1.61483e-05
1.61523e-05
1.61563e-05
1.61604e-05
1.61644e-05
1.61685e-05
1.61725e-05
1.61764e-05
1.61804e-05
1.61841e-05
1.61882e-05
1.60975e-05
1.60957e-05
1.60945e-05
1.60937e-05
1.60931e-05
1.60926e-05
1.60924e-05
1.60923e-05
1.60925e-05
1.60928e-05
1.60934e-05
1.60941e-05
1.60949e-05
1.6096e-05
1.60973e-05
1.60988e-05
1.61005e-05
1.61024e-05
1.61045e-05
1.61067e-05
1.61092e-05
1.61118e-05
1.61146e-05
1.61175e-05
1.61205e-05
1.61237e-05
1.61269e-05
1.61302e-05
1.61336e-05
1.61371e-05
1.61406e-05
1.61441e-05
1.61476e-05
1.61512e-05
1.61547e-05
1.61583e-05
1.61618e-05
1.61652e-05
1.61687e-05
1.61718e-05
1.61754e-05
1.60989e-05
1.6097e-05
1.60955e-05
1.60943e-05
1.60934e-05
1.60927e-05
1.60922e-05
1.6092e-05
1.60919e-05
1.6092e-05
1.60923e-05
1.60928e-05
1.60935e-05
1.60943e-05
1.60954e-05
1.60967e-05
1.60981e-05
1.60998e-05
1.61017e-05
1.61037e-05
1.61059e-05
1.61082e-05
1.61107e-05
1.61133e-05
1.6116e-05
1.61188e-05
1.61216e-05
1.61246e-05
1.61276e-05
1.61307e-05
1.61337e-05
1.61368e-05
1.61399e-05
1.6143e-05
1.61461e-05
1.61492e-05
1.61522e-05
1.61552e-05
1.61582e-05
1.61609e-05
1.6164e-05
1.61002e-05
1.60984e-05
1.60966e-05
1.60952e-05
1.6094e-05
1.60931e-05
1.60924e-05
1.6092e-05
1.60917e-05
1.60916e-05
1.60917e-05
1.60919e-05
1.60924e-05
1.6093e-05
1.60938e-05
1.60948e-05
1.6096e-05
1.60974e-05
1.6099e-05
1.61008e-05
1.61027e-05
1.61048e-05
1.6107e-05
1.61093e-05
1.61117e-05
1.61142e-05
1.61167e-05
1.61194e-05
1.6122e-05
1.61247e-05
1.61275e-05
1.61302e-05
1.61329e-05
1.61356e-05
1.61383e-05
1.6141e-05
1.61436e-05
1.61461e-05
1.61487e-05
1.61509e-05
1.61536e-05
1.61013e-05
1.60996e-05
1.60979e-05
1.60964e-05
1.60951e-05
1.6094e-05
1.60931e-05
1.60924e-05
1.60919e-05
1.60916e-05
1.60915e-05
1.60915e-05
1.60917e-05
1.6092e-05
1.60926e-05
1.60933e-05
1.60943e-05
1.60954e-05
1.60967e-05
1.60982e-05
1.60998e-05
1.61016e-05
1.61035e-05
1.61055e-05
1.61077e-05
1.61099e-05
1.61121e-05
1.61145e-05
1.61168e-05
1.61192e-05
1.61216e-05
1.6124e-05
1.61264e-05
1.61287e-05
1.6131e-05
1.61333e-05
1.61355e-05
1.61377e-05
1.61398e-05
1.61416e-05
1.61439e-05
1.61021e-05
1.61005e-05
1.6099e-05
1.60977e-05
1.60965e-05
1.60953e-05
1.60943e-05
1.60935e-05
1.60928e-05
1.60922e-05
1.60918e-05
1.60916e-05
1.60915e-05
1.60916e-05
1.60919e-05
1.60924e-05
1.6093e-05
1.60938e-05
1.60949e-05
1.6096e-05
1.60973e-05
1.60988e-05
1.61004e-05
1.61022e-05
1.6104e-05
1.61059e-05
1.61078e-05
1.61099e-05
1.61119e-05
1.6114e-05
1.61161e-05
1.61181e-05
1.61202e-05
1.61222e-05
1.61242e-05
1.61261e-05
1.61279e-05
1.61297e-05
1.61315e-05
1.61328e-05
1.61347e-05
1.61025e-05
1.6101e-05
1.60997e-05
1.60986e-05
1.60976e-05
1.60968e-05
1.60959e-05
1.6095e-05
1.60941e-05
1.60934e-05
1.60927e-05
1.60923e-05
1.60919e-05
1.60918e-05
1.60918e-05
1.6092e-05
1.60923e-05
1.60928e-05
1.60935e-05
1.60944e-05
1.60954e-05
1.60965e-05
1.60978e-05
1.60992e-05
1.61007e-05
1.61023e-05
1.6104e-05
1.61057e-05
1.61074e-05
1.61091e-05
1.61109e-05
1.61126e-05
1.61143e-05
1.6116e-05
1.61176e-05
1.61192e-05
1.61207e-05
1.6122e-05
1.61234e-05
1.61244e-05
1.61258e-05
1.61025e-05
1.61012e-05
1.61001e-05
1.60992e-05
1.60985e-05
1.60979e-05
1.60973e-05
1.60967e-05
1.60959e-05
1.60951e-05
1.60942e-05
1.60935e-05
1.60929e-05
1.60925e-05
1.60922e-05
1.60921e-05
1.60921e-05
1.60923e-05
1.60927e-05
1.60933e-05
1.6094e-05
1.60948e-05
1.60957e-05
1.60968e-05
1.6098e-05
1.60992e-05
1.61006e-05
1.61019e-05
1.61033e-05
1.61047e-05
1.61061e-05
1.61075e-05
1.61089e-05
1.61102e-05
1.61114e-05
1.61126e-05
1.61138e-05
1.61148e-05
1.61157e-05
1.61164e-05
1.61174e-05
1.61022e-05
1.61011e-05
1.61002e-05
1.60995e-05
1.6099e-05
1.60986e-05
1.60982e-05
1.60978e-05
1.60973e-05
1.60968e-05
1.60961e-05
1.60952e-05
1.60943e-05
1.60936e-05
1.60931e-05
1.60927e-05
1.60924e-05
1.60924e-05
1.60924e-05
1.60927e-05
1.6093e-05
1.60935e-05
1.60942e-05
1.60949e-05
1.60958e-05
1.60967e-05
1.60977e-05
1.60987e-05
1.60997e-05
1.61008e-05
1.61018e-05
1.61029e-05
1.61039e-05
1.61048e-05
1.61057e-05
1.61066e-05
1.61073e-05
1.61079e-05
1.61085e-05
1.61087e-05
1.61093e-05
1.61015e-05
1.61006e-05
1.60999e-05
1.60995e-05
1.60992e-05
1.6099e-05
1.60988e-05
1.60985e-05
1.60982e-05
1.60979e-05
1.60974e-05
1.60968e-05
1.60961e-05
1.60952e-05
1.60944e-05
1.60937e-05
1.60932e-05
1.60928e-05
1.60926e-05
1.60925e-05
1.60926e-05
1.60928e-05
1.60931e-05
1.60935e-05
1.6094e-05
1.60946e-05
1.60953e-05
1.6096e-05
1.60967e-05
1.60974e-05
1.60981e-05
1.60988e-05
1.60994e-05
1.61e-05
1.61005e-05
1.6101e-05
1.61013e-05
1.61016e-05
1.61017e-05
1.61016e-05
1.61018e-05
1.61005e-05
1.60997e-05
1.60992e-05
1.6099e-05
1.60989e-05
1.60989e-05
1.60988e-05
1.60987e-05
1.60985e-05
1.60983e-05
1.6098e-05
1.60976e-05
1.60971e-05
1.60965e-05
1.60958e-05
1.60949e-05
1.60942e-05
1.60936e-05
1.60931e-05
1.60927e-05
1.60925e-05
1.60924e-05
1.60924e-05
1.60926e-05
1.60928e-05
1.6093e-05
1.60933e-05
1.60937e-05
1.60941e-05
1.60944e-05
1.60948e-05
1.60951e-05
1.60954e-05
1.60957e-05
1.60958e-05
1.60959e-05
1.60959e-05
1.60958e-05
1.60955e-05
1.6095e-05
1.60947e-05
1.60991e-05
1.60985e-05
1.60982e-05
1.60981e-05
1.60981e-05
1.60981e-05
1.60981e-05
1.60981e-05
1.60981e-05
1.6098e-05
1.60979e-05
1.60977e-05
1.60973e-05
1.60969e-05
1.60965e-05
1.60959e-05
1.60951e-05
1.60943e-05
1.60936e-05
1.60931e-05
1.60926e-05
1.60923e-05
1.6092e-05
1.60919e-05
1.60918e-05
1.60918e-05
1.60918e-05
1.60918e-05
1.60919e-05
1.6092e-05
1.6092e-05
1.6092e-05
1.60919e-05
1.60918e-05
1.60916e-05
1.60913e-05
1.60909e-05
1.60904e-05
1.60897e-05
1.60891e-05
1.60883e-05
1.60972e-05
1.60968e-05
1.60967e-05
1.60966e-05
1.60967e-05
1.60967e-05
1.60968e-05
1.60968e-05
1.60968e-05
1.60968e-05
1.60968e-05
1.60968e-05
1.60966e-05
1.60964e-05
1.60961e-05
1.60958e-05
1.60953e-05
1.60947e-05
1.6094e-05
1.60933e-05
1.60926e-05
1.60921e-05
1.60917e-05
1.60913e-05
1.6091e-05
1.60908e-05
1.60905e-05
1.60903e-05
1.60901e-05
1.60899e-05
1.60896e-05
1.60893e-05
1.6089e-05
1.60886e-05
1.60881e-05
1.60877e-05
1.60872e-05
1.60867e-05
1.60864e-05
1.60864e-05
1.60863e-05
1.6095e-05
1.60947e-05
1.60946e-05
1.60946e-05
1.60946e-05
1.60946e-05
1.60946e-05
1.60946e-05
1.60947e-05
1.60948e-05
1.60948e-05
1.60949e-05
1.60949e-05
1.60948e-05
1.60947e-05
1.60946e-05
1.60943e-05
1.6094e-05
1.60936e-05
1.60931e-05
1.60925e-05
1.60919e-05
1.60914e-05
1.60909e-05
1.60904e-05
1.609e-05
1.60896e-05
1.60892e-05
1.60889e-05
1.60885e-05
1.60881e-05
1.60878e-05
1.60875e-05
1.60873e-05
1.60873e-05
1.60875e-05
1.60878e-05
1.60883e-05
1.6089e-05
1.60898e-05
1.60908e-05
1.60923e-05
1.60921e-05
1.60921e-05
1.6092e-05
1.60918e-05
1.60917e-05
1.60917e-05
1.60917e-05
1.60917e-05
1.60918e-05
1.60919e-05
1.6092e-05
1.60921e-05
1.60922e-05
1.60922e-05
1.60922e-05
1.60922e-05
1.6092e-05
1.60919e-05
1.60916e-05
1.60914e-05
1.60911e-05
1.60907e-05
1.60904e-05
1.60901e-05
1.60898e-05
1.60895e-05
1.60893e-05
1.60891e-05
1.6089e-05
1.6089e-05
1.60891e-05
1.60893e-05
1.60897e-05
1.60901e-05
1.60907e-05
1.60915e-05
1.60924e-05
1.60936e-05
1.60948e-05
1.60961e-05
1.60891e-05
1.6089e-05
1.60889e-05
1.60887e-05
1.60884e-05
1.60882e-05
1.60881e-05
1.6088e-05
1.60879e-05
1.60879e-05
1.6088e-05
1.6088e-05
1.60881e-05
1.60883e-05
1.60884e-05
1.60885e-05
1.60886e-05
1.60887e-05
1.60888e-05
1.60888e-05
1.60888e-05
1.60888e-05
1.60889e-05
1.60889e-05
1.60889e-05
1.6089e-05
1.60891e-05
1.60893e-05
1.60895e-05
1.60898e-05
1.60902e-05
1.60907e-05
1.60914e-05
1.60921e-05
1.6093e-05
1.6094e-05
1.60952e-05
1.60965e-05
1.6098e-05
1.60996e-05
1.61014e-05
1.60854e-05
1.60853e-05
1.60851e-05
1.60848e-05
1.60845e-05
1.60842e-05
1.60839e-05
1.60837e-05
1.60834e-05
1.60833e-05
1.60831e-05
1.6083e-05
1.6083e-05
1.60831e-05
1.60832e-05
1.60833e-05
1.60835e-05
1.60837e-05
1.60839e-05
1.60841e-05
1.60843e-05
1.60845e-05
1.60847e-05
1.6085e-05
1.60853e-05
1.60857e-05
1.60861e-05
1.60866e-05
1.60871e-05
1.60878e-05
1.60885e-05
1.60893e-05
1.60903e-05
1.60914e-05
1.60926e-05
1.60939e-05
1.60953e-05
1.60969e-05
1.60987e-05
1.61005e-05
1.61025e-05
1.60811e-05
1.6081e-05
1.60807e-05
1.60804e-05
1.60801e-05
1.60797e-05
1.60793e-05
1.60789e-05
1.60784e-05
1.60779e-05
1.60775e-05
1.60772e-05
1.6077e-05
1.60769e-05
1.60768e-05
1.60768e-05
1.60769e-05
1.60772e-05
1.60775e-05
1.60779e-05
1.60783e-05
1.60789e-05
1.60795e-05
1.60802e-05
1.6081e-05
1.60819e-05
1.60828e-05
1.60838e-05
1.60849e-05
1.60861e-05
1.60873e-05
1.60887e-05
1.60902e-05
1.60918e-05
1.60936e-05
1.60954e-05
1.60974e-05
1.60995e-05
1.61018e-05
1.6104e-05
1.61066e-05
1.60762e-05
1.60761e-05
1.60759e-05
1.60757e-05
1.60754e-05
1.6075e-05
1.60745e-05
1.60739e-05
1.60731e-05
1.60723e-05
1.60718e-05
1.60715e-05
1.60715e-05
1.60716e-05
1.6072e-05
1.60723e-05
1.60726e-05
1.60728e-05
1.60729e-05
1.6073e-05
1.6073e-05
1.60731e-05
1.60733e-05
1.60737e-05
1.60741e-05
1.60747e-05
1.60755e-05
1.60765e-05
1.60775e-05
1.60787e-05
1.60801e-05
1.60816e-05
1.60832e-05
1.60849e-05
1.60868e-05
1.60887e-05
1.60908e-05
1.6093e-05
1.60953e-05
1.60976e-05
1.61e-05
1.60707e-05
1.60706e-05
1.60706e-05
1.60705e-05
1.60704e-05
1.60702e-05
1.607e-05
1.60696e-05
1.60689e-05
1.60686e-05
1.6069e-05
1.607e-05
1.60716e-05
1.60736e-05
1.6076e-05
1.60789e-05
1.60815e-05
1.60838e-05
1.60856e-05
1.60869e-05
1.60876e-05
1.60878e-05
1.60875e-05
1.60868e-05
1.60854e-05
1.60842e-05
1.60834e-05
1.60831e-05
1.60832e-05
1.60837e-05
1.60846e-05
1.60859e-05
1.60875e-05
1.60894e-05
1.60916e-05
1.60941e-05
1.60968e-05
1.60997e-05
1.61029e-05
1.61061e-05
1.61097e-05
0.00611724
0.00770969
0.00634361
0.00285159
0.000340863
1.16993e-05
1.00714e-05
1.07919e-05
7.77556e-05
0.00381711
0.0146448
0.0233481
0.0295855
0.0341906
0.0375223
0.0397986
0.0411837
0.0418027
0.0417608
0.0411126
0.0398969
0.0381424
0.0358849
0.0331645
0.0300454
0.0265863
0.0228985
0.0190744
0.0152374
0.0115318
0.0081139
0.00510713
0.00261733
0.000864829
5.02101e-05
1e-05
1e-05
1.06033e-05
1.67848e-05
1.94533e-05
1.80039e-05
1.69777e-05
1.67373e-05
1.67267e-05
1.66953e-05
1.66287e-05
1.65575e-05
1.64983e-05
1.64583e-05
1.64402e-05
1.64346e-05
1.64329e-05
1.64311e-05
1.64273e-05
1.6421e-05
1.64121e-05
1.64011e-05
1.63886e-05
1.6375e-05
1.63611e-05
1.63472e-05
1.63337e-05
1.6321e-05
1.63094e-05
1.62991e-05
1.62901e-05
1.62825e-05
1.6276e-05
1.62704e-05
1.62654e-05
1.62606e-05
1.62558e-05
1.62512e-05
1.62424e-05
0.0103194
0.0120623
0.0107204
0.00681853
0.00208744
7.21486e-05
1.00034e-05
1.00027e-05
0.000152153
0.00536181
0.017093
0.0261145
0.0324135
0.0370651
0.0404967
0.0429332
0.0445226
0.0453729
0.0455791
0.0451802
0.0442074
0.0426795
0.0406213
0.0380571
0.0350312
0.0315901
0.0278309
0.0238158
0.019645
0.0154337
0.0113411
0.00756767
0.00433399
0.00187546
0.000442703
2.11861e-05
1e-05
1e-05
1.2688e-05
1.88551e-05
1.88185e-05
1.74035e-05
1.68304e-05
1.67287e-05
1.6691e-05
1.6625e-05
1.65522e-05
1.64947e-05
1.64608e-05
1.64501e-05
1.64487e-05
1.64492e-05
1.64483e-05
1.64446e-05
1.64379e-05
1.64284e-05
1.64166e-05
1.64033e-05
1.6389e-05
1.63743e-05
1.63598e-05
1.63458e-05
1.63326e-05
1.63206e-05
1.63099e-05
1.63006e-05
1.62926e-05
1.62858e-05
1.62798e-05
1.62744e-05
1.62692e-05
1.6264e-05
1.62589e-05
1.62492e-05
0.0143633
0.0164401
0.0153318
0.0116563
0.00591605
0.00124344
0.000170322
1e-05
0.00021126
0.00618372
0.0186352
0.0281825
0.0347349
0.0396032
0.0433069
0.0460697
0.0480172
0.0492391
0.049815
0.0497805
0.0491594
0.0479615
0.0461972
0.0438753
0.0410192
0.0376794
0.0339283
0.0298091
0.0254056
0.0208026
0.0161107
0.0114976
0.00723333
0.00369218
0.00129798
0.000183093
1.0283e-05
1e-05
1.01358e-05
1.54523e-05
1.91851e-05
1.80785e-05
1.70524e-05
1.67478e-05
1.66782e-05
1.66169e-05
1.65482e-05
1.64953e-05
1.64685e-05
1.64634e-05
1.64652e-05
1.64674e-05
1.6467e-05
1.6463e-05
1.64556e-05
1.64453e-05
1.64326e-05
1.64184e-05
1.64033e-05
1.6388e-05
1.63728e-05
1.63583e-05
1.63447e-05
1.63322e-05
1.63211e-05
1.63115e-05
1.63031e-05
1.62959e-05
1.62895e-05
1.62837e-05
1.62781e-05
1.62723e-05
1.62667e-05
1.62562e-05
0.0181734
0.0207307
0.019997
0.0167856
0.011166
0.00453673
0.000656916
5.19994e-05
0.000253813
0.00634379
0.0193292
0.0295844
0.03658
0.0418229
0.0459666
0.0491749
0.0515768
0.0532574
0.0542865
0.0547003
0.0545184
0.0537446
0.0523777
0.0504131
0.0478562
0.0447214
0.0410533
0.0369178
0.0323863
0.0275354
0.022434
0.0171868
0.0119696
0.00711479
0.00321904
0.000899382
3.96684e-05
1e-05
1.00008e-05
1.13585e-05
1.75899e-05
1.87872e-05
1.75206e-05
1.68455e-05
1.66679e-05
1.66037e-05
1.65451e-05
1.64998e-05
1.64802e-05
1.64795e-05
1.64838e-05
1.6487e-05
1.64866e-05
1.64822e-05
1.64739e-05
1.64626e-05
1.6449e-05
1.64339e-05
1.6418e-05
1.64019e-05
1.63861e-05
1.6371e-05
1.63569e-05
1.63441e-05
1.63326e-05
1.63225e-05
1.63138e-05
1.63062e-05
1.62994e-05
1.62931e-05
1.6287e-05
1.62808e-05
1.62748e-05
1.62632e-05
0.0218152
0.0248099
0.0245262
0.0219137
0.0169491
0.00993287
0.00326852
0.000261829
0.000286095
0.00588714
0.0191519
0.0302516
0.0378915
0.0436957
0.0483673
0.0521024
0.0550291
0.0572319
0.0587771
0.0597038
0.0600308
0.0597585
0.0588784
0.0573752
0.055239
0.0524612
0.0490576
0.0450537
0.0404881
0.0355082
0.0301501
0.0245021
0.0186545
0.0127631
0.00723803
0.00294595
0.000665372
1e-05
1.00001e-05
1e-05
1.27501e-05
1.83297e-05
1.82317e-05
1.71462e-05
1.67063e-05
1.65907e-05
1.65409e-05
1.65071e-05
1.64952e-05
1.6498e-05
1.6504e-05
1.65077e-05
1.6507e-05
1.65018e-05
1.64926e-05
1.64802e-05
1.64656e-05
1.64495e-05
1.64328e-05
1.6416e-05
1.63996e-05
1.63839e-05
1.63694e-05
1.63561e-05
1.63443e-05
1.63338e-05
1.63247e-05
1.63167e-05
1.63095e-05
1.63028e-05
1.62962e-05
1.62894e-05
1.62829e-05
1.62703e-05
0.0252171
0.02842
0.0286287
0.0267348
0.0226735
0.0163425
0.00858346
0.0023072
0.000562604
0.00490565
0.0180345
0.0300641
0.0385628
0.0450598
0.0503507
0.0546759
0.0581784
0.0609489
0.0630559
0.0645443
0.0654355
0.0657299
0.0654152
0.0644685
0.0628673
0.060587
0.0576193
0.0539604
0.0496172
0.0446562
0.039151
0.0332539
0.0270248
0.0205208
0.0138851
0.00762114
0.00288615
0.000556156
1.00268e-05
1e-05
1.00069e-05
1.39787e-05
1.82104e-05
1.76935e-05
1.68949e-05
1.66097e-05
1.65378e-05
1.6515e-05
1.65119e-05
1.65182e-05
1.65253e-05
1.65291e-05
1.6528e-05
1.65218e-05
1.65115e-05
1.6498e-05
1.64823e-05
1.64653e-05
1.64477e-05
1.64302e-05
1.64132e-05
1.6397e-05
1.6382e-05
1.63684e-05
1.63562e-05
1.63453e-05
1.63358e-05
1.63274e-05
1.63198e-05
1.63126e-05
1.63055e-05
1.62982e-05
1.62912e-05
1.62776e-05
0.0279936
0.0311356
0.0318904
0.0308092
0.0278333
0.0227156
0.0155388
0.00734917
0.000958964
0.00357117
0.0160105
0.0288904
0.0384435
0.0457392
0.0517344
0.0567005
0.0608133
0.0641807
0.0668793
0.0689631
0.0704596
0.0713727
0.07169
0.0713845
0.0704241
0.0687719
0.0664002
0.0632825
0.0593995
0.0547602
0.0493941
0.0433696
0.0368972
0.0300205
0.0227892
0.0153326
0.00827191
0.00303603
0.000588231
0.000152548
1.00002e-05
1.01077e-05
1.458e-05
1.77933e-05
1.73004e-05
1.67382e-05
1.65565e-05
1.65239e-05
1.65286e-05
1.65391e-05
1.65474e-05
1.65511e-05
1.65491e-05
1.6542e-05
1.65305e-05
1.65158e-05
1.64991e-05
1.64811e-05
1.64627e-05
1.64445e-05
1.64269e-05
1.64103e-05
1.63949e-05
1.63809e-05
1.63683e-05
1.63571e-05
1.63472e-05
1.63383e-05
1.63303e-05
1.63226e-05
1.6315e-05
1.63071e-05
1.62996e-05
1.62849e-05
0.0294069
0.0324005
0.0337068
0.0335214
0.0317925
0.0282019
0.0225321
0.014675
0.00554194
0.00353179
0.0135029
0.0267104
0.0373779
0.045544
0.0523308
0.0579741
0.0627138
0.0666898
0.0699932
0.0726895
0.0748153
0.0763819
0.0773816
0.0777865
0.0775583
0.0766514
0.0750225
0.0726263
0.0694214
0.0653781
0.0604836
0.0547414
0.04824
0.0411039
0.0335064
0.025465
0.0171028
0.00918598
0.0033867
0.000679228
1.00009e-05
1.00759e-05
1.01359e-05
1.44993e-05
1.73567e-05
1.70368e-05
1.66559e-05
1.65477e-05
1.65448e-05
1.65592e-05
1.65694e-05
1.6573e-05
1.65703e-05
1.65621e-05
1.65494e-05
1.65336e-05
1.65158e-05
1.64969e-05
1.64777e-05
1.64589e-05
1.64408e-05
1.64237e-05
1.64079e-05
1.63935e-05
1.63806e-05