/*--------------------------------*- C++ -*----------------------------------*\
| =========                 |                                                 |
| \\      /  F ield         | OpenFOAM: The Open Source CFD Toolbox           |
|  \\    /   O peration     | Version:  2312                                  |
|   \\  /    A nd           | Website:  www.openfoam.com                      |
|    \\/     M anipulation  |                                                 |
\*---------------------------------------------------------------------------*/
FoamFile
{
    version     2.0;
    format      ascii;
    arch        "LSB;label=32;scalar=64";
    class       volScalarField;
    location    "150";
    object      turbulenceProperties:nut;
}
// * * * * * * * * * * * * * * * * * * * * * * * * * * * * * * * * * * * * * //

dimensions      [0 2 -1 0 0 0 0];

internalField   nonuniform List<scalar> 
11040
(
6.36478e-05
4.84442e-05
5.61999e-05
0.000229058
0.00022048
0.000196206
0.000176688
0.00016747
0.00016407
0.000166129
0.000172599
0.000181349
0.000192137
0.000205551
0.000221171
0.000239101
0.00025909
0.000281653
0.000306798
0.000334326
0.000364225
0.000394982
0.000425281
0.000455304
0.000484719
0.000514248
0.000542426
0.000569813
0.000595492
0.00062159
0.000649555
0.000674594
0.000693626
0.000704107
0.000702757
0.000689574
0.000662604
0.000610098
0.000497147
0.000411213
0.000632938
1.71658e-05
5.81563e-05
0.000119267
0.000568844
0.000655841
0.000591483
0.000522714
0.00049399
0.000483827
0.000496256
0.000525657
0.0005536
0.000575879
0.000592658
0.000604165
0.000612706
0.000618424
0.000622745
0.000626248
0.000630695
0.000637475
0.000646554
0.000655924
0.000665007
0.0006724
0.000677785
0.000680964
0.000677871
0.000669019
0.000663479
0.000706534
0.000766905
0.000838738
0.000925973
0.00102934
0.00114772
0.00128796
0.00146011
0.00168473
0.00207066
0.00305822
4.70896e-06
2.11864e-05
4.59314e-05
0.000381071
0.00101363
0.00123816
0.00110481
0.00103331
0.000990611
0.000967306
0.000970071
0.000979436
0.000985152
0.000989787
0.000989073
0.000987913
0.000986066
0.000985366
0.00098647
0.000992168
0.00100538
0.0010235
0.00104002
0.0010574
0.00108199
0.00111985
0.0011719
0.00124295
0.00133151
0.0014443
0.00158066
0.00174166
0.00192298
0.00212658
0.00235073
0.00260058
0.00289142
0.0032522
0.00373279
0.00452365
0.00635797
5.50991e-06
8.48445e-06
6.43914e-06
0.000122636
0.00063627
0.00147023
0.001845
0.00178556
0.00171133
0.00165431
0.00166228
0.00168896
0.0017113
0.00173695
0.001753
0.00176703
0.00177853
0.00178765
0.00179677
0.00181384
0.00184403
0.00188375
0.00191987
0.00195637
0.00200341
0.00207022
0.00216121
0.00228726
0.00244672
0.00264551
0.00287899
0.00314921
0.00344989
0.00378199
0.00414205
0.00453458
0.0049818
0.0055448
0.00631927
0.00759128
0.0102477
6.24553e-06
6.67959e-06
4.83209e-06
2.29457e-06
0.000196229
0.000849743
0.00189949
0.00264389
0.0027866
0.00264881
0.00261857
0.0026684
0.00273072
0.0028096
0.00287469
0.00292805
0.00297287
0.00300316
0.00302346
0.00305379
0.00310104
0.00316368
0.00322191
0.00327968
0.00334941
0.00344287
0.00357172
0.00375492
0.00399579
0.00429752
0.00465148
0.00505398
0.00549386
0.00596821
0.00647014
0.006999
0.00757784
0.00830753
0.0093562
0.0111153
0.0144917
6.30036e-06
6.07487e-06
7.15025e-06
1.21176e-06
6.4363e-07
0.000231136
0.000975046
0.00228581
0.00348907
0.00389089
0.00402702
0.00407309
0.00413701
0.00424523
0.00436861
0.0044994
0.00461858
0.00470228
0.00474953
0.00480452
0.00487337
0.00495928
0.00504122
0.00512627
0.0052311
0.00536611
0.0055429
0.00578676
0.00611689
0.00653754
0.00703315
0.00758666
0.00817553
0.00878938
0.00941676
0.0100461
0.0106874
0.0114673
0.0126783
0.0148504
0.0188723
6.23327e-06
6.10565e-06
6.64084e-06
6.1758e-06
1.42141e-07
6.9806e-09
0.000206479
0.000985645
0.00249789
0.00422296
0.00510782
0.00550917
0.00570833
0.00589875
0.00608371
0.00626919
0.00643809
0.00658834
0.00672052
0.00685451
0.0069902
0.00713703
0.00728359
0.00744462
0.00764365
0.00789342
0.00819952
0.00857114
0.00901933
0.00956764
0.0102167
0.0109322
0.0116656
0.0123917
0.0130953
0.0137529
0.0143358
0.0149566
0.0160536
0.018347
0.022675
6.18946e-06
6.22035e-06
6.13393e-06
6.8615e-06
5.44195e-06
7.19554e-09
1.25259e-05
0.000140445
0.000873283
0.0024526
0.00461104
0.00631303
0.00704667
0.00749554
0.007823
0.00812801
0.00840452
0.0086549
0.00887844
0.00909808
0.00933447
0.00959609
0.00985676
0.0101489
0.0105028
0.0109379
0.0114631
0.0120842
0.0127915
0.0135968
0.0144723
0.0153707
0.0162318
0.01701
0.0176914
0.018258
0.0186122
0.0187909
0.0192684
0.0210403
0.0246992
6.18056e-06
6.17718e-06
6.22494e-06
5.99759e-06
7.87534e-06
4.71704e-06
1.58065e-08
2.76324e-06
5.15033e-05
0.000645406
0.00210334
0.0044861
0.00706024
0.00861143
0.00938516
0.00993127
0.0103954
0.010818
0.0111976
0.0115603
0.0119384
0.0123512
0.01276
0.013205
0.0137281
0.0143541
0.0150964
0.0159632
0.0169531
0.0180566
0.0192385
0.0204424
0.021592
0.0225974
0.0233479
0.0237316
0.0236322
0.0230416
0.0223378
0.0227783
0.0246897
6.16723e-06
6.17026e-06
6.19403e-06
6.12673e-06
6.22841e-06
7.86196e-06
3.73804e-06
9.08378e-09
9.73302e-08
0.00011321
0.000353135
0.0015279
0.00381566
0.00692877
0.0097671
0.0113127
0.0122152
0.0129153
0.0135356
0.0141271
0.0147175
0.0153369
0.0159318
0.0165513
0.0172486
0.0180523
0.0189801
0.0200438
0.0212405
0.0225494
0.0239215
0.02528
0.0265179
0.0275065
0.0281026
0.0281868
0.0276947
0.0266605
0.0253081
0.0240719
0.0235881
6.1569e-06
6.16327e-06
6.16337e-06
6.19638e-06
6.07551e-06
6.45827e-06
7.37435e-06
4.14829e-06
1.45977e-07
9.81949e-10
2.64235e-05
0.000121518
0.000877617
0.00272872
0.00584154
0.00964717
0.0128286
0.0145847
0.0156858
0.0166094
0.0174848
0.0183876
0.0192258
0.0200544
0.0209343
0.0218946
0.022959
0.0241458
0.0254552
0.0268621
0.028309
0.0297032
0.0309152
0.0317885
0.0321516
0.0318631
0.0308505
0.0291023
0.0267591
0.0242103
0.0221134
6.14835e-06
6.15287e-06
6.15821e-06
6.16316e-06
6.17025e-06
6.12154e-06
6.39402e-06
7.05509e-06
5.54652e-06
5.72487e-07
3.85754e-09
2.23578e-07
0.000141514
0.000341549
0.00155902
0.00409933
0.00801162
0.0125608
0.0163515
0.0185936
0.0200321
0.0213089
0.0224391
0.0235232
0.0246226
0.0257442
0.0269109
0.0281523
0.0294818
0.0308815
0.0323004
0.033646
0.0347854
0.0355493
0.035746
0.0352074
0.033845
0.0316084
0.0285491
0.0249025
0.0210969
6.14059e-06
6.14449e-06
6.1491e-06
6.15336e-06
6.1597e-06
6.15957e-06
6.14229e-06
6.28411e-06
6.9639e-06
6.14122e-06
2.21747e-06
2.7684e-13
1.54377e-11
7.91138e-06
2.66587e-07
0.000583287
0.00222066
0.00536019
0.0099872
0.0153465
0.0201434
0.0233485
0.0252794
0.0267645
0.0281475
0.0294581
0.0307145
0.0319645
0.0332366
0.0345315
0.0358164
0.0370219
0.0380366
0.0387042
0.038824
0.0381959
0.0366878
0.0342445
0.0309224
0.0269379
0.0225676
6.13354e-06
6.13675e-06
6.14062e-06
6.14465e-06
6.14858e-06
6.15364e-06
6.15728e-06
6.13905e-06
6.24026e-06
6.61654e-06
6.88699e-06
4.2608e-06
1.30493e-07
1.80169e-09
7.08009e-11
4.02784e-05
1.9345e-05
0.000758654
0.00262223
0.00605342
0.0110798
0.0168098
0.0221671
0.0265288
0.0297316
0.0320083
0.033706
0.0350982
0.0363327
0.0374683
0.0385042
0.039405
0.0400975
0.0404738
0.0403558
0.0394855
0.0375863
0.0347321
0.0310857
0.0269558
0.0226828
6.12701e-06
6.12952e-06
6.13278e-06
6.13624e-06
6.13986e-06
6.14359e-06
6.14842e-06
6.15118e-06
6.14715e-06
6.17582e-06
6.37651e-06
7.24435e-06
5.66999e-06
2.19396e-06
1.99861e-10
1.17465e-10
3.8796e-09
6.46939e-05
3.16438e-05
0.000748467
0.00246189
0.00538492
0.00930658
0.0138084
0.0184045
0.0226852
0.0263911
0.0294194
0.0317779
0.0335301
0.0347482
0.0354871
0.0357731
0.0356163
0.0348466
0.0331336
0.0305374
0.0273203
0.023719
0.0200181
0.0165342
6.12097e-06
6.12285e-06
6.12557e-06
6.12856e-06
6.13175e-06
6.13512e-06
6.1388e-06
6.14315e-06
6.14741e-06
6.14852e-06
6.12851e-06
6.31155e-06
6.74515e-06
6.95962e-06
4.61469e-06
8.10363e-07
5.86669e-09
3.23006e-11
6.6091e-09
4.54799e-05
0.00031664
0.000356407
0.00124421
0.00267994
0.00461013
0.00683565
0.0091446
0.0113363
0.0132518
0.0147822
0.0158629
0.016463
0.0165759
0.0162124
0.0153879
0.0141391
0.0125711
0.0108363
0.0090508
0.00734057
0.00583373
6.11558e-06
6.11692e-06
6.11914e-06
6.12168e-06
6.1244e-06
6.12735e-06
6.13052e-06
6.13407e-06
6.13801e-06
6.14395e-06
6.14302e-06
6.13327e-06
6.1982e-06
6.42056e-06
6.89964e-06
6.53462e-06
4.11221e-06
5.815e-07
5.11354e-09
5.3493e-11
3.29188e-16
3.50088e-06
9.59243e-05
0.000270506
0.000147079
0.000425743
0.000832724
0.00129422
0.0017567
0.00215234
0.00243326
0.00257559
0.00257314
0.00243373
0.00217932
0.00187002
0.00154131
0.00122452
0.000935631
0.000688477
0.000491057
6.11139e-06
6.11231e-06
6.11412e-06
6.11624e-06
6.11853e-06
6.121e-06
6.12369e-06
6.12662e-06
6.1299e-06
6.13387e-06
6.13892e-06
6.14055e-06
6.14002e-06
6.14013e-06
6.25575e-06
6.53787e-06
6.90327e-06
6.43159e-06
3.92689e-06
9.2831e-07
5.50187e-12
1.31815e-10
1.23939e-11
6.44211e-18
9.16252e-08
3.91301e-06
3.15804e-05
7.82868e-05
0.000121568
0.000154259
0.000176931
3.87033e-08
4.2941e-06
1.53702e-05
3.94219e-05
1.45523e-05
1.59758e-06
1.13564e-06
8.20625e-07
3.87926e-07
7.77527e-08
6.10814e-06
6.10873e-06
6.11019e-06
6.11193e-06
6.11383e-06
6.1159e-06
6.11817e-06
6.12066e-06
6.12343e-06
6.12661e-06
6.13047e-06
6.13488e-06
6.13946e-06
6.13989e-06
6.13846e-06
6.15543e-06
6.29236e-06
6.58259e-06
6.89467e-06
6.49411e-06
4.39156e-06
1.81457e-06
2.61074e-07
1.48237e-13
1.32096e-10
5.59719e-11
2.29676e-11
8.02422e-12
2.44769e-12
7.09145e-13
2.32786e-13
6.2874e-12
2.21653e-10
8.05536e-10
2.71501e-09
8.06871e-10
1.26472e-10
1.14537e-10
1.02377e-10
7.43538e-11
3.81221e-11
6.10535e-06
6.10563e-06
6.10672e-06
6.10808e-06
6.10961e-06
6.11132e-06
6.11323e-06
6.11538e-06
6.11775e-06
6.12044e-06
6.1236e-06
6.1273e-06
6.13165e-06
6.13679e-06
6.14057e-06
6.13887e-06
6.13781e-06
6.16895e-06
6.31366e-06
6.57007e-06
6.86876e-06
6.68881e-06
5.89751e-06
4.42865e-06
2.84163e-06
1.52846e-06
6.964e-07
2.67481e-07
8.89764e-08
2.79645e-08
9.93031e-09
5.05725e-09
4.49355e-09
6.62359e-09
1.30354e-08
3.15159e-08
6.418e-08
1.14864e-07
1.87194e-07
2.86178e-07
4.03385e-07
6.10307e-06
6.10299e-06
6.10369e-06
6.10468e-06
6.10586e-06
6.10724e-06
6.10884e-06
6.11066e-06
6.11271e-06
6.11503e-06
6.1177e-06
6.12085e-06
6.12448e-06
6.12873e-06
6.13371e-06
6.13877e-06
6.14078e-06
6.13883e-06
6.14278e-06
6.17848e-06
6.28258e-06
6.44342e-06
6.63815e-06
6.80551e-06
6.82231e-06
6.63463e-06
6.27001e-06
5.80772e-06
5.3285e-06
4.89762e-06
4.55078e-06
4.3012e-06
4.15121e-06
4.08906e-06
4.10515e-06
4.18846e-06
4.3222e-06
4.48232e-06
4.66684e-06
4.86313e-06
5.0559e-06
6.10117e-06
6.10071e-06
6.10102e-06
6.10166e-06
6.10252e-06
6.10362e-06
6.10494e-06
6.1065e-06
6.10829e-06
6.1103e-06
6.1126e-06
6.1153e-06
6.11844e-06
6.12203e-06
6.12613e-06
6.13087e-06
6.13598e-06
6.1404e-06
6.14281e-06
6.14419e-06
6.14943e-06
6.16646e-06
6.20872e-06
6.28388e-06
6.38732e-06
6.50336e-06
6.61553e-06
6.71174e-06
6.78708e-06
6.84099e-06
6.87592e-06
6.89608e-06
6.90585e-06
6.90943e-06
6.9107e-06
6.91262e-06
6.91572e-06
6.92009e-06
6.92571e-06
6.93112e-06
6.93764e-06
6.09961e-06
6.09874e-06
6.09867e-06
6.09899e-06
6.09959e-06
6.10044e-06
6.10153e-06
6.10286e-06
6.10442e-06
6.10619e-06
6.10819e-06
6.11052e-06
6.11324e-06
6.11637e-06
6.11991e-06
6.12389e-06
6.12834e-06
6.13324e-06
6.13835e-06
6.14329e-06
6.14742e-06
6.15012e-06
6.15284e-06
6.15862e-06
6.17003e-06
6.18901e-06
6.21556e-06
6.24814e-06
6.28417e-06
6.32097e-06
6.35628e-06
6.38831e-06
6.41577e-06
6.43856e-06
6.45664e-06
6.47044e-06
6.48034e-06
6.48806e-06
6.49352e-06
6.49728e-06
6.50021e-06
6.09832e-06
6.09704e-06
6.09664e-06
6.09669e-06
6.09707e-06
6.09773e-06
6.09864e-06
6.09977e-06
6.10112e-06
6.10268e-06
6.10444e-06
6.10646e-06
6.10881e-06
6.11153e-06
6.11462e-06
6.11809e-06
6.12193e-06
6.12616e-06
6.13077e-06
6.13579e-06
6.14117e-06
6.14663e-06
6.15172e-06
6.15633e-06
6.16058e-06
6.16483e-06
6.16952e-06
6.17505e-06
6.18158e-06
6.18914e-06
6.1976e-06
6.20673e-06
6.21621e-06
6.22582e-06
6.23531e-06
6.2445e-06
6.25334e-06
6.26188e-06
6.27018e-06
6.27796e-06
6.28588e-06
6.09728e-06
6.09563e-06
6.09496e-06
6.09483e-06
6.09506e-06
6.09557e-06
6.09633e-06
6.09729e-06
6.09846e-06
6.09982e-06
6.10135e-06
6.1031e-06
6.10513e-06
6.10749e-06
6.11018e-06
6.11321e-06
6.11657e-06
6.12025e-06
6.12427e-06
6.12862e-06
6.13332e-06
6.13842e-06
6.14377e-06
6.14933e-06
6.155e-06
6.16069e-06
6.16638e-06
6.17205e-06
6.17775e-06
6.18353e-06
6.18944e-06
6.19552e-06
6.20178e-06
6.20823e-06
6.21483e-06
6.22156e-06
6.22838e-06
6.23522e-06
6.2422e-06
6.24891e-06
6.25611e-06
6.09648e-06
6.09456e-06
6.09374e-06
6.09351e-06
6.09365e-06
6.09405e-06
6.09467e-06
6.09548e-06
6.09647e-06
6.09763e-06
6.09895e-06
6.10046e-06
6.10221e-06
6.10423e-06
6.10656e-06
6.10919e-06
6.11211e-06
6.11533e-06
6.11884e-06
6.12264e-06
6.12672e-06
6.13112e-06
6.13577e-06
6.14067e-06
6.14581e-06
6.15114e-06
6.15665e-06
6.16228e-06
6.16801e-06
6.17382e-06
6.17969e-06
6.18559e-06
6.19153e-06
6.1975e-06
6.20348e-06
6.20947e-06
6.21545e-06
6.22138e-06
6.2274e-06
6.2331e-06
6.23924e-06
6.09596e-06
6.09394e-06
6.0931e-06
6.09284e-06
6.0929e-06
6.09318e-06
6.09365e-06
6.09428e-06
6.09508e-06
6.09604e-06
6.09717e-06
6.09845e-06
6.09994e-06
6.10167e-06
6.10366e-06
6.10594e-06
6.10848e-06
6.11128e-06
6.11434e-06
6.11766e-06
6.12122e-06
6.12507e-06
6.12912e-06
6.13338e-06
6.13784e-06
6.14247e-06
6.14726e-06
6.15219e-06
6.15722e-06
6.16235e-06
6.16754e-06
6.17278e-06
6.17804e-06
6.18333e-06
6.18861e-06
6.19388e-06
6.19912e-06
6.20431e-06
6.20956e-06
6.21447e-06
6.21982e-06
6.09587e-06
6.09393e-06
6.09312e-06
6.09279e-06
6.09271e-06
6.09281e-06
6.09308e-06
6.09351e-06
6.0941e-06
6.09486e-06
6.09578e-06
6.09686e-06
6.09812e-06
6.0996e-06
6.10132e-06
6.10329e-06
6.10549e-06
6.10793e-06
6.11061e-06
6.11351e-06
6.11662e-06
6.11998e-06
6.12353e-06
6.12726e-06
6.13116e-06
6.13521e-06
6.13939e-06
6.1437e-06
6.14809e-06
6.15257e-06
6.15711e-06
6.16169e-06
6.1663e-06
6.17092e-06
6.17554e-06
6.18015e-06
6.18474e-06
6.18926e-06
6.19385e-06
6.19811e-06
6.20281e-06
6.09639e-06
6.09459e-06
6.09369e-06
6.09316e-06
6.09283e-06
6.09268e-06
6.0927e-06
6.0929e-06
6.09327e-06
6.09382e-06
6.09454e-06
6.09543e-06
6.0965e-06
6.09776e-06
6.09925e-06
6.10097e-06
6.10291e-06
6.10506e-06
6.10741e-06
6.10996e-06
6.1127e-06
6.11566e-06
6.11877e-06
6.12205e-06
6.12548e-06
6.12903e-06
6.13271e-06
6.13649e-06
6.14035e-06
6.14427e-06
6.14826e-06
6.15227e-06
6.15631e-06
6.16037e-06
6.16442e-06
6.16845e-06
6.17247e-06
6.17642e-06
6.18043e-06
6.18411e-06
6.18823e-06
6.09753e-06
6.0957e-06
6.09454e-06
6.09369e-06
6.09305e-06
6.09262e-06
6.09238e-06
6.09234e-06
6.0925e-06
6.09284e-06
6.09336e-06
6.09406e-06
6.09493e-06
6.09599e-06
6.09727e-06
6.09877e-06
6.10048e-06
6.10238e-06
6.10448e-06
6.10675e-06
6.10919e-06
6.11181e-06
6.11458e-06
6.11748e-06
6.12051e-06
6.12366e-06
6.1269e-06
6.13023e-06
6.13363e-06
6.13708e-06
6.14058e-06
6.1441e-06
6.14765e-06
6.15119e-06
6.15474e-06
6.15826e-06
6.16176e-06
6.16519e-06
6.16868e-06
6.17182e-06
6.17542e-06
6.09887e-06
6.09699e-06
6.09551e-06
6.09432e-06
6.09339e-06
6.09269e-06
6.09223e-06
6.09197e-06
6.0919e-06
6.09203e-06
6.09234e-06
6.09283e-06
6.09349e-06
6.09433e-06
6.09539e-06
6.09666e-06
6.09814e-06
6.09981e-06
6.10166e-06
6.10368e-06
6.10586e-06
6.1082e-06
6.11067e-06
6.11326e-06
6.11597e-06
6.11877e-06
6.12165e-06
6.1246e-06
6.1276e-06
6.13065e-06
6.13373e-06
6.13683e-06
6.13994e-06
6.14304e-06
6.14613e-06
6.1492e-06
6.15223e-06
6.15519e-06
6.15819e-06
6.16085e-06
6.16397e-06
6.10018e-06
6.09837e-06
6.09665e-06
6.0952e-06
6.09402e-06
6.0931e-06
6.09242e-06
6.09195e-06
6.09168e-06
6.09159e-06
6.09167e-06
6.09193e-06
6.09236e-06
6.09297e-06
6.09377e-06
6.09479e-06
6.09601e-06
6.09742e-06
6.09901e-06
6.10077e-06
6.10268e-06
6.10476e-06
6.10695e-06
6.10927e-06
6.11168e-06
6.11418e-06
6.11674e-06
6.11937e-06
6.12204e-06
6.12474e-06
6.12746e-06
6.13019e-06
6.13291e-06
6.13563e-06
6.13832e-06
6.14097e-06
6.14358e-06
6.14611e-06
6.14868e-06
6.15089e-06
6.15356e-06
6.10131e-06
6.09965e-06
6.09793e-06
6.09637e-06
6.09507e-06
6.09399e-06
6.09312e-06
6.09244e-06
6.09195e-06
6.09163e-06
6.09148e-06
6.0915e-06
6.09169e-06
6.09205e-06
6.09259e-06
6.09333e-06
6.09426e-06
6.09539e-06
6.0967e-06
6.09817e-06
6.0998e-06
6.10159e-06
6.1035e-06
6.10553e-06
6.10765e-06
6.10986e-06
6.11213e-06
6.11445e-06
6.11681e-06
6.11919e-06
6.12159e-06
6.12398e-06
6.12636e-06
6.12872e-06
6.13105e-06
6.13332e-06
6.13555e-06
6.13768e-06
6.13984e-06
6.14163e-06
6.14388e-06
6.10206e-06
6.10051e-06
6.099e-06
6.09766e-06
6.09645e-06
6.09533e-06
6.09432e-06
6.09347e-06
6.09276e-06
6.09222e-06
6.09184e-06
6.09161e-06
6.09155e-06
6.09165e-06
6.09192e-06
6.09237e-06
6.09302e-06
6.09384e-06
6.09485e-06
6.09602e-06
6.09734e-06
6.09882e-06
6.10043e-06
6.10215e-06
6.10397e-06
6.10587e-06
6.10784e-06
6.10986e-06
6.11191e-06
6.11398e-06
6.11605e-06
6.11812e-06
6.12017e-06
6.12219e-06
6.12416e-06
6.12608e-06
6.12794e-06
6.12969e-06
6.13145e-06
6.13285e-06
6.13469e-06
6.10247e-06
6.10103e-06
6.0997e-06
6.09858e-06
6.09765e-06
6.09679e-06
6.09593e-06
6.09501e-06
6.09413e-06
6.09337e-06
6.09275e-06
6.09227e-06
6.09195e-06
6.09178e-06
6.09178e-06
6.09195e-06
6.0923e-06
6.09283e-06
6.09352e-06
6.09438e-06
6.09538e-06
6.09654e-06
6.09783e-06
6.09923e-06
6.10073e-06
6.10231e-06
6.10396e-06
6.10565e-06
6.10738e-06
6.10912e-06
6.11087e-06
6.11261e-06
6.11432e-06
6.11599e-06
6.11761e-06
6.11917e-06
6.12066e-06
6.12204e-06
6.12341e-06
6.12442e-06
6.12585e-06
6.10253e-06
6.10123e-06
6.10009e-06
6.09919e-06
6.09848e-06
6.09787e-06
6.09728e-06
6.09666e-06
6.09594e-06
6.09508e-06
6.09421e-06
6.09348e-06
6.09289e-06
6.09245e-06
6.09218e-06
6.09206e-06
6.09211e-06
6.09234e-06
6.09273e-06
6.09327e-06
6.09395e-06
6.09479e-06
6.09575e-06
6.09682e-06
6.09799e-06
6.09924e-06
6.10055e-06
6.10191e-06
6.1033e-06
6.10471e-06
6.10611e-06
6.10751e-06
6.10887e-06
6.11019e-06
6.11145e-06
6.11264e-06
6.11375e-06
6.11476e-06
6.11572e-06
6.11635e-06
6.11737e-06
6.10222e-06
6.10108e-06
6.10016e-06
6.0995e-06
6.09902e-06
6.09862e-06
6.09823e-06
6.09782e-06
6.09735e-06
6.09679e-06
6.09608e-06
6.09521e-06
6.09435e-06
6.09363e-06
6.09307e-06
6.09267e-06
6.09243e-06
6.09236e-06
6.09244e-06
6.09266e-06
6.09304e-06
6.09355e-06
6.09418e-06
6.09493e-06
6.09577e-06
6.09668e-06
6.09766e-06
6.09868e-06
6.09973e-06
6.10079e-06
6.10185e-06
6.10289e-06
6.10389e-06
6.10485e-06
6.10575e-06
6.10657e-06
6.1073e-06
6.10793e-06
6.10849e-06
6.10874e-06
6.10934e-06
6.10155e-06
6.10058e-06
6.09988e-06
6.09945e-06
6.09919e-06
6.09899e-06
6.09879e-06
6.09855e-06
6.09824e-06
6.09785e-06
6.09739e-06
6.09682e-06
6.09609e-06
6.0952e-06
6.09437e-06
6.09369e-06
6.09317e-06
6.09281e-06
6.0926e-06
6.09253e-06
6.09259e-06
6.09279e-06
6.09311e-06
6.09354e-06
6.09405e-06
6.09463e-06
6.09528e-06
6.09596e-06
6.09667e-06
6.09738e-06
6.09809e-06
6.09877e-06
6.09942e-06
6.10001e-06
6.10054e-06
6.10099e-06
6.10134e-06
6.10159e-06
6.10174e-06
6.10161e-06
6.10182e-06
6.10049e-06
6.09971e-06
6.09923e-06
6.099e-06
6.0989e-06
6.09885e-06
6.09879e-06
6.0987e-06
6.09855e-06
6.09833e-06
6.09802e-06
6.09762e-06
6.09713e-06
6.09655e-06
6.0958e-06
6.09493e-06
6.09417e-06
6.09355e-06
6.09308e-06
6.09273e-06
6.09252e-06
6.09243e-06
6.09245e-06
6.09257e-06
6.09276e-06
6.09303e-06
6.09335e-06
6.0937e-06
6.09407e-06
6.09444e-06
6.0948e-06
6.09514e-06
6.09543e-06
6.09567e-06
6.09584e-06
6.09592e-06
6.09589e-06
6.09576e-06
6.09548e-06
6.09502e-06
6.09473e-06
6.09905e-06
6.09847e-06
6.09817e-06
6.09809e-06
6.09809e-06
6.09812e-06
6.09815e-06
6.09814e-06
6.09811e-06
6.09802e-06
6.09787e-06
6.09765e-06
6.09735e-06
6.09695e-06
6.09647e-06
6.09587e-06
6.09509e-06
6.09429e-06
6.09361e-06
6.09305e-06
6.09261e-06
6.09227e-06
6.09204e-06
6.09189e-06
6.09181e-06
6.09178e-06
6.0918e-06
6.09184e-06
6.0919e-06
6.09195e-06
6.09198e-06
6.09198e-06
6.09193e-06
6.09181e-06
6.0916e-06
6.0913e-06
6.09089e-06
6.09039e-06
6.08975e-06
6.08911e-06
6.08834e-06
6.09721e-06
6.09682e-06
6.09666e-06
6.09664e-06
6.09667e-06
6.09672e-06
6.09676e-06
6.0968e-06
6.09684e-06
6.09685e-06
6.09682e-06
6.09675e-06
6.09662e-06
6.09642e-06
6.09613e-06
6.09576e-06
6.09527e-06
6.09468e-06
6.09397e-06
6.09326e-06
6.09265e-06
6.09213e-06
6.09169e-06
6.09133e-06
6.09102e-06
6.09076e-06
6.09053e-06
6.09032e-06
6.0901e-06
6.08987e-06
6.08962e-06
6.08932e-06
6.08898e-06
6.08858e-06
6.08813e-06
6.08765e-06
6.08718e-06
6.08674e-06
6.08643e-06
6.08635e-06
6.08635e-06
6.09496e-06
6.09473e-06
6.09464e-06
6.09461e-06
6.09459e-06
6.09459e-06
6.0946e-06
6.09464e-06
6.0947e-06
6.09477e-06
6.09483e-06
6.09487e-06
6.09488e-06
6.09484e-06
6.09474e-06
6.09457e-06
6.09432e-06
6.09398e-06
6.09355e-06
6.09306e-06
6.09252e-06
6.09192e-06
6.09138e-06
6.09088e-06
6.09044e-06
6.09002e-06
6.08962e-06
6.08924e-06
6.08887e-06
6.08849e-06
6.08813e-06
6.0878e-06
6.08752e-06
6.08733e-06
6.08731e-06
6.08745e-06
6.08777e-06
6.08826e-06
6.08896e-06
6.08983e-06
6.09076e-06
6.09226e-06
6.09215e-06
6.09206e-06
6.09195e-06
6.09184e-06
6.09174e-06
6.09168e-06
6.09167e-06
6.09171e-06
6.09178e-06
6.09187e-06
6.09198e-06
6.09208e-06
6.09216e-06
6.09221e-06
6.09221e-06
6.09215e-06
6.09203e-06
6.09186e-06
6.09163e-06
6.09137e-06
6.09107e-06
6.09074e-06
6.09041e-06
6.09009e-06
6.08979e-06
6.08952e-06
6.08929e-06
6.08913e-06
6.08904e-06
6.08903e-06
6.08912e-06
6.08933e-06
6.08966e-06
6.09013e-06
6.09074e-06
6.09151e-06
6.09243e-06
6.09356e-06
6.09478e-06
6.09611e-06
6.08909e-06
6.08903e-06
6.08888e-06
6.08866e-06
6.08844e-06
6.08825e-06
6.08809e-06
6.08798e-06
6.08792e-06
6.08791e-06
6.08795e-06
6.08803e-06
6.08814e-06
6.08826e-06
6.0884e-06
6.08853e-06
6.08864e-06
6.08873e-06
6.08878e-06
6.08882e-06
6.08884e-06
6.08885e-06
6.08886e-06
6.08888e-06
6.08892e-06
6.08899e-06
6.0891e-06
6.08927e-06
6.0895e-06
6.08982e-06
6.09023e-06
6.09074e-06
6.09136e-06
6.09212e-06
6.093e-06
6.09402e-06
6.09521e-06
6.09651e-06
6.09805e-06
6.09962e-06
6.10138e-06
6.0854e-06
6.08532e-06
6.08509e-06
6.08479e-06
6.08449e-06
6.08419e-06
6.08392e-06
6.08366e-06
6.08344e-06
6.08326e-06
6.08313e-06
6.08304e-06
6.08301e-06
6.08305e-06
6.08316e-06
6.08331e-06
6.08349e-06
6.08368e-06
6.08387e-06
6.08407e-06
6.08427e-06
6.08449e-06
6.08473e-06
6.085e-06
6.08531e-06
6.08567e-06
6.08609e-06
6.08657e-06
6.08712e-06
6.08776e-06
6.0885e-06
6.08934e-06
6.09029e-06
6.09136e-06
6.09255e-06
6.09387e-06
6.09534e-06
6.09692e-06
6.0987e-06
6.1005e-06
6.10247e-06
6.08113e-06
6.08102e-06
6.08075e-06
6.08043e-06
6.08009e-06
6.07972e-06
6.0793e-06
6.07887e-06
6.0784e-06
6.07793e-06
6.07751e-06
6.07718e-06
6.07697e-06
6.07685e-06
6.0768e-06
6.07682e-06
6.07694e-06
6.07715e-06
6.07746e-06
6.07786e-06
6.07833e-06
6.07889e-06
6.07952e-06
6.08023e-06
6.08101e-06
6.08186e-06
6.08279e-06
6.0838e-06
6.08489e-06
6.08607e-06
6.08735e-06
6.08873e-06
6.09022e-06
6.09183e-06
6.09356e-06
6.09541e-06
6.0974e-06
6.09948e-06
6.10179e-06
6.10403e-06
6.10658e-06
6.07623e-06
6.07611e-06
6.0759e-06
6.07566e-06
6.07538e-06
6.07501e-06
6.07452e-06
6.07393e-06
6.07314e-06
6.07234e-06
6.07176e-06
6.07147e-06
6.07145e-06
6.07163e-06
6.07198e-06
6.07233e-06
6.07262e-06
6.0728e-06
6.0729e-06
6.07296e-06
6.07303e-06
6.07314e-06
6.07334e-06
6.07366e-06
6.07412e-06
6.07475e-06
6.07552e-06
6.07645e-06
6.07753e-06
6.07874e-06
6.08009e-06
6.08158e-06
6.08319e-06
6.08491e-06
6.08676e-06
6.08872e-06
6.0908e-06
6.09296e-06
6.09528e-06
6.09759e-06
6.10002e-06
6.07066e-06
6.07061e-06
6.07055e-06
6.07049e-06
6.07039e-06
6.07023e-06
6.06997e-06
6.06959e-06
6.06889e-06
6.06855e-06
6.06896e-06
6.07e-06
6.07155e-06
6.07356e-06
6.07598e-06
6.07886e-06
6.08155e-06
6.08384e-06
6.08564e-06
6.08689e-06
6.08758e-06
6.08778e-06
6.08755e-06
6.08676e-06
6.08542e-06
6.08417e-06
6.0834e-06
6.08308e-06
6.0832e-06
6.08373e-06
6.08464e-06
6.0859e-06
6.0875e-06
6.0894e-06
6.09159e-06
6.09405e-06
6.09677e-06
6.09969e-06
6.10291e-06
6.10609e-06
6.10972e-06
0.00610724
0.00769969
0.00633361
0.00284159
0.000330863
1.69926e-06
7.13531e-08
7.91855e-07
6.77556e-05
0.00380711
0.0146348
0.0233381
0.0295755
0.0341806
0.0375123
0.0397886
0.0411737
0.0417927
0.0417508
0.0411026
0.0398869
0.0381324
0.0358749
0.0331545
0.0300354
0.0265763
0.0228885
0.0190644
0.0152274
0.0115218
0.0081039
0.00509713
0.00260733
0.000854829
4.02101e-05
5.18562e-12
2.80353e-11
6.03267e-07
6.78476e-06
9.45332e-06
8.00386e-06
6.97768e-06
6.73731e-06
6.72666e-06
6.69525e-06
6.62874e-06
6.55748e-06
6.49828e-06
6.4583e-06
6.44025e-06
6.4346e-06
6.43292e-06
6.43111e-06
6.42733e-06
6.421e-06
6.41213e-06
6.40112e-06
6.38856e-06
6.37503e-06
6.36108e-06
6.34715e-06
6.33367e-06
6.32098e-06
6.30937e-06
6.29906e-06
6.2901e-06
6.28247e-06
6.27599e-06
6.27042e-06
6.2654e-06
6.26065e-06
6.25584e-06
6.25117e-06
6.24245e-06
0.0103094
0.0120523
0.0107104
0.00680853
0.00207744
6.21486e-05
3.43636e-09
2.66646e-09
0.000142153
0.00535181
0.017083
0.0261045
0.0324035
0.0370551
0.0404867
0.0429232
0.0445126
0.0453629
0.0455691
0.0451702
0.0441974
0.0426695
0.0406113
0.0380471
0.0350212
0.0315801
0.0278209
0.0238058
0.019635
0.0154237
0.0113311
0.00755767
0.00432399
0.00186546
0.000432703
1.11861e-05
2.23689e-18
2.95022e-11
2.68804e-06
8.85505e-06
8.81846e-06
7.40351e-06
6.83041e-06
6.72868e-06
6.69103e-06
6.62498e-06
6.55222e-06
6.49468e-06
6.46084e-06
6.45009e-06
6.44866e-06
6.44921e-06
6.44832e-06
6.44464e-06
6.4379e-06
6.42838e-06
6.4166e-06
6.40325e-06
6.38898e-06
6.37434e-06
6.35981e-06
6.3458e-06
6.33264e-06
6.32063e-06
6.30994e-06
6.30062e-06
6.29262e-06
6.28578e-06
6.27983e-06
6.27441e-06
6.26924e-06
6.26397e-06
6.25887e-06
6.24924e-06
0.0143533
0.0164301
0.0153218
0.0116463
0.00590605
0.00123344
0.000160322
0
0.00020126
0.00617372
0.0186252
0.0281725
0.0347249
0.0395932
0.0432969
0.0460597
0.0480072
0.0492291
0.049805
0.0497705
0.0491494
0.0479515
0.0461872
0.0438653
0.0410092
0.0376694
0.0339183
0.0297991
0.0253956
0.0207926
0.0161007
0.0114876
0.00722333
0.00368218
0.00128798
0.000173093
2.83033e-07
7.04765e-13
1.35819e-07
5.45225e-06
9.1851e-06
8.0785e-06
7.05245e-06
6.7478e-06
6.67823e-06
6.61693e-06
6.54824e-06
6.49527e-06
6.46846e-06
6.46336e-06
6.46523e-06
6.46739e-06
6.46696e-06
6.46303e-06
6.45565e-06
6.44531e-06
6.43265e-06
6.41842e-06
6.40335e-06
6.38799e-06
6.37284e-06
6.35828e-06
6.34466e-06
6.33223e-06
6.32114e-06
6.31145e-06
6.30308e-06
6.29586e-06
6.28951e-06
6.28367e-06
6.27806e-06
6.2723e-06
6.26675e-06
6.25618e-06
0.0181634
0.0207207
0.019987
0.0167756
0.011156
0.00452673
0.000646916
4.19994e-05
0.000243813
0.00633379
0.0193192
0.0295744
0.03657
0.0418129
0.0459566
0.0491649
0.0515668
0.0532474
0.0542765
0.0546903
0.0545084
0.0537346
0.0523677
0.0504031
0.0478462
0.0447114
0.0410433
0.0369078
0.0323763
0.0275254
0.022424
0.0171768
0.0119596
0.00710479
0.00320904
0.000889382
2.96684e-05
1.11932e-11
8.17083e-10
1.3585e-06
7.58986e-06
8.78723e-06
7.52061e-06
6.84548e-06
6.66788e-06
6.6037e-06
6.54505e-06
6.49982e-06
6.48023e-06
6.4795e-06
6.48381e-06
6.487e-06
6.48663e-06
6.48217e-06
6.47394e-06
6.46264e-06
6.44902e-06
6.43388e-06
6.41797e-06
6.40188e-06
6.38611e-06
6.37101e-06
6.35692e-06
6.34407e-06
6.33259e-06
6.32253e-06
6.31378e-06
6.30616e-06
6.2994e-06
6.29313e-06
6.28704e-06
6.28078e-06
6.27476e-06
6.26321e-06
0.0218052
0.0247999
0.0245162
0.0219037
0.0169391
0.00992287
0.00325852
0.000251829
0.000276095
0.00587714
0.0191419
0.0302416
0.0378815
0.0436857
0.0483573
0.0520924
0.0550191
0.0572219
0.0587671
0.0596938
0.0600208
0.0597485
0.0588684
0.0573652
0.055229
0.0524512
0.0490476
0.0450437
0.0404781
0.0354982
0.0301401
0.0244921
0.0186445
0.0127531
0.00722803
0.00293595
0.000655372
9.55123e-15
5.84005e-11
5.95384e-14
2.75006e-06
8.32972e-06
8.23165e-06
7.14616e-06
6.7063e-06
6.59068e-06
6.54087e-06
6.50711e-06
6.49517e-06
6.49797e-06
6.50398e-06
6.50768e-06
6.50704e-06
6.50183e-06
6.49261e-06
6.48024e-06
6.4656e-06
6.44951e-06
6.43276e-06
6.41595e-06
6.39956e-06
6.38394e-06
6.36938e-06
6.35613e-06
6.34427e-06
6.33382e-06
6.32469e-06
6.31667e-06
6.30948e-06
6.30276e-06
6.29619e-06
6.2894e-06
6.28289e-06
6.27034e-06
0.0252071
0.02841
0.0286187
0.0267248
0.0226635
0.0163325
0.00857346
0.0022972
0.000552604
0.00489565
0.0180245
0.0300541
0.0385528
0.0450498
0.0503407
0.0546659
0.0581684
0.0609389
0.0630459
0.0645343
0.0654255
0.0657199
0.0654052
0.0644585
0.0628573
0.060577
0.0576093
0.0539504
0.0496072
0.0446462
0.039141
0.0332439
0.0270148
0.0205108
0.0138751
0.00761114
0.00287615
0.000546156
2.68311e-08
1.76531e-13
6.87637e-09
3.97874e-06
8.21044e-06
7.69354e-06
6.89495e-06
6.60966e-06
6.53779e-06
6.51505e-06
6.51195e-06
6.51816e-06
6.52533e-06
6.52914e-06
6.52796e-06
6.52183e-06
6.5115e-06
6.498e-06
6.48231e-06
6.46527e-06
6.44768e-06
6.43015e-06
6.41317e-06
6.39704e-06
6.38204e-06
6.36839e-06
6.35616e-06
6.34534e-06
6.33583e-06
6.32739e-06
6.31976e-06
6.31257e-06
6.3055e-06
6.29818e-06
6.29116e-06
6.27756e-06
0.0279836
0.0311256
0.0318804
0.0307992
0.0278233
0.0227056
0.0155288
0.00733917
0.000948964
0.00356117
0.0160005
0.0288804
0.0384335
0.0457292
0.0517244
0.0566905
0.0608033
0.0641707
0.0668693
0.0689531
0.0704496
0.0713627
0.07168
0.0713745
0.0704141
0.0687619
0.0663902
0.0632725
0.0593895
0.0547502
0.0493841
0.0433596
0.0368872
0.0300105
0.0227792
0.0153226
0.00826191
0.00302603
0.000578231
0.000142548
2.02243e-10
1.07677e-07
4.57996e-06
7.79327e-06
7.30039e-06
6.73816e-06
6.55646e-06
6.52392e-06
6.52863e-06
6.53908e-06
6.54741e-06
6.55105e-06
6.54914e-06
6.54197e-06
6.53048e-06
6.51582e-06
6.49906e-06
6.48108e-06
6.46268e-06
6.44446e-06
6.4269e-06
6.41029e-06
6.39488e-06
6.38086e-06
6.36827e-06
6.35709e-06
6.34719e-06
6.33834e-06
6.33026e-06
6.32259e-06
6.315e-06
6.30712e-06
6.29959e-06
6.2849e-06
0.0293969
0.0323905
0.0336968
0.0335114
0.0317825
0.0281919
0.0225221
0.014665
0.00553194
0.00352179
0.0134929
0.0267004
0.0373679
0.045534
0.0523208
0.0579641
0.0627038
0.0666798
0.0699832
0.0726795
0.0748053
0.0763719
0.0773716
0.0777765
0.0775483
0.0766414
0.0750125
0.0726163
0.0694114
0.0653681
0.0604736
0.0547314
0.04823
0.0410939
0.0334964
0.025455
0.0170928
0.00917598
0.0033767
0.000669228
8.80601e-10
7.58547e-08
1.35947e-07
4.4993e-06
7.3567e-06
7.03683e-06
6.65593e-06
6.54771e-06
6.54475e-06
6.55921e-06
6.56944e-06
6.57304e-06