/*--------------------------------*- C++ -*----------------------------------*\
| =========                 |                                                 |
| \\      /  F ield         | OpenFOAM: The Open Source CFD Toolbox           |
|  \\    /   O peration     | Version:  2312                                  |
|   \\  /    A nd           | Website:  www.openfoam.com                      |
|    \\/     M anipulation  |                                                 |
\*---------------------------------------------------------------------------*/
FoamFile
{
    version     2.0;
    format      ascii;
    arch        "LSB;label=32;scalar=64";
    class       volSymmTensorField;
    location    "150";
    object      turbulenceProperties:R;
}
// * * * * * * * * * * * * * * * * * * * * * * * * * * * * * * * * * * * * * //

dimensions      [0 2 -2 0 0 0 0];

internalField   nonuniform List<symmTensor> 
11040
(
(0.433986 0.151898 -2.83066e-21 0.426965 3.87153e-20 0.454589)
(0.241922 0.0618374 8.65257e-21 0.183694 2.04709e-19 0.21977)
(0.0543607 0.0156064 -2.75725e-19 0.0783852 3.64817e-19 0.0579978)
(0.147904 0.0464266 -3.98852e-19 0.34741 -1.86735e-19 0.252206)
(0.181987 0.0684397 -1.9689e-20 0.394496 3.97584e-19 0.283714)
(0.157564 0.0676566 -5.53587e-19 0.311394 1.99216e-19 0.232975)
(0.14032 0.0639051 2.87105e-19 0.253589 -2.00464e-18 0.19615)
(0.133147 0.0623325 4.111e-19 0.223125 -3.56047e-19 0.17765)
(0.132286 0.062763 2.0495e-19 0.207768 -4.92877e-20 0.169688)
(0.137304 0.0656272 1.69417e-19 0.203747 2.72684e-19 0.170255)
(0.148257 0.0711173 -1.71902e-19 0.209199 7.71541e-19 0.178334)
(0.164871 0.0790981 -2.6424e-19 0.221684 4.51659e-19 0.192859)
(0.1883 0.0900609 4.88167e-20 0.241611 -3.42386e-19 0.214605)
(0.221076 0.105136 7.05267e-20 0.271181 2.59306e-19 0.245921)
(0.264797 0.1249 -2.38445e-20 0.310892 6.82773e-20 0.288029)
(0.321544 0.150088 -6.82466e-22 0.361846 -4.72079e-19 0.342518)
(0.393525 0.18137 1.30543e-19 0.424882 -2.14358e-20 0.41096)
(0.484609 0.220163 -2.33817e-20 0.502874 8.50201e-19 0.496611)
(0.598114 0.267523 -7.15489e-20 0.597743 7.2986e-21 0.602038)
(0.735818 0.323659 1.71442e-20 0.709302 -1.3044e-19 0.728129)
(0.899214 0.388649 6.60296e-20 0.837604 1.01863e-19 0.875246)
(1.07855 0.458753 -1.03785e-19 0.976066 3.16201e-19 1.03488)
(1.26345 0.53051 3.40401e-20 1.11839 -2.5547e-19 1.19913)
(1.45729 0.604757 2.62526e-20 1.26535 7.08024e-19 1.37015)
(1.65827 0.680231 -1.82057e-19 1.41386 -6.41316e-19 1.54531)
(1.86939 0.758746 -1.32415e-19 1.56869 -1.5428e-18 1.72788)
(2.08101 0.835844 6.38396e-20 1.71975 -7.31289e-19 1.90891)
(2.29473 0.912804 2.73123e-19 1.87075 2.59415e-19 2.09004)
(2.49952 0.984823 6.15065e-22 2.01104 -5.83003e-19 2.26155)
(2.69953 1.05428 -5.8999e-20 2.14649 -1.39216e-18 2.42747)
(2.89087 1.1196 2.81582e-19 2.27347 8.61264e-19 2.58492)
(3.04159 1.1693 -5.02449e-19 2.36953 -2.51216e-19 2.70599)
(3.12116 1.19222 -4.2887e-19 2.41203 2.40486e-18 2.76491)
(3.10218 1.17879 -3.87573e-19 2.38215 1.33763e-18 2.73824)
(2.95869 1.11956 -1.22912e-19 2.26091 1.10423e-19 2.60363)
(2.68766 1.0147 -1.67654e-19 2.04925 1.52573e-18 2.35996)
(2.28536 0.864172 6.88748e-20 1.74744 5.70321e-19 2.00624)
(1.72895 0.659774 -1.11212e-19 1.33892 7.74292e-19 1.52401)
(0.998851 0.391505 -3.58387e-19 0.804205 -1.23982e-18 0.892291)
(0.438327 0.185052 3.013e-20 0.40924 -8.58851e-19 0.402347)
(0.251566 0.101583 2.26572e-19 0.523362 1.4312e-19 0.366152)
(0.0424369 -0.00363696 1.85366e-21 0.0316946 -3.74818e-21 0.033404)
(0.136792 0.0337367 3.6614e-20 0.0987171 -2.45e-20 0.110963)
(0.42975 0.0853961 6.01817e-19 0.220625 -9.1448e-19 0.33588)
(0.905022 0.0841927 4.3024e-19 0.365148 -1.97217e-19 0.620016)
(0.272672 -0.0330841 2.23297e-19 0.112681 -7.7048e-19 0.192253)
(0.0260541 -0.0118875 8.64707e-19 0.0305577 -1.78752e-18 0.0258229)
(0.0150353 0.00302737 -1.31211e-18 0.0378369 5.15019e-18 0.0259612)
(0.0247391 0.0113438 -1.3281e-18 0.0479462 3.67448e-18 0.035775)
(0.0368998 0.0181555 -1.64679e-19 0.0611172 -2.45526e-19 0.0479457)
(0.0514922 0.0256127 -1.69687e-19 0.0767624 1.0445e-19 0.0627376)
(0.0688248 0.033993 9.35067e-19 0.0954812 -2.66193e-18 0.0799509)
(0.0872204 0.0425867 1.02315e-20 0.114013 -1.07977e-19 0.0975236)
(0.106212 0.0511462 -4.27735e-19 0.132216 1.57427e-18 0.114967)
(0.124291 0.0589506 -2.95331e-19 0.148515 1.60682e-19 0.130678)
(0.141479 0.0660889 -8.06809e-20 0.162688 -4.70726e-19 0.145022)
(0.157145 0.0723243 9.0694e-21 0.174757 1.44412e-18 0.157546)
(0.170693 0.0773798 -6.97953e-20 0.183817 4.746e-19 0.167664)
(0.181338 0.0809193 -5.89328e-20 0.189395 -1.2875e-18 0.174643)
(0.188821 0.0828705 -5.282e-20 0.191112 -5.79722e-20 0.178444)
(0.19436 0.0838407 -1.26823e-20 0.190174 1.76454e-19 0.180546)
(0.198719 0.0841432 -7.48038e-21 0.187549 -1.66993e-20 0.181639)
(0.203511 0.0845563 1.11851e-19 0.185116 -5.56003e-19 0.183485)
(0.208362 0.0851025 -3.5467e-20 0.183529 7.94611e-19 0.185872)
(0.21278 0.0854415 -1.18828e-19 0.181535 -7.16324e-19 0.188247)
(0.214088 0.0844658 -4.68914e-20 0.176985 5.5255e-19 0.188059)
(0.209442 0.0811515 2.22784e-19 0.168199 1.93978e-18 0.182553)
(0.202442 0.0769936 3.38182e-19 0.157866 1.03883e-18 0.1754)
(0.186305 0.0696365 -3.36238e-19 0.141629 1.85728e-19 0.160523)
(0.165815 0.0609602 -1.88466e-19 0.122907 4.25551e-19 0.142612)
(0.138756 0.0503797 2.38287e-19 0.100852 7.0602e-19 0.119533)
(0.117959 0.0425153 1.17868e-19 0.0844258 -9.5504e-19 0.102657)
(0.0932794 0.0339091 5.29365e-19 0.0669479 -1.86674e-18 0.0833779)
(0.0708827 0.026882 5.03318e-19 0.0534466 -3.21791e-18 0.0675875)
(0.0555944 0.0235082 5.48026e-19 0.0499347 -1.28643e-18 0.0604211)
(0.0542755 0.0259097 -2.99884e-19 0.0651326 9.2376e-20 0.0700048)
(0.063492 0.0315344 3.38626e-19 0.100408 -4.38354e-18 0.0951548)
(0.0883365 0.0426796 -7.23698e-19 0.162675 -5.24366e-19 0.141959)
(0.132101 0.0615425 1.02726e-19 0.260051 -1.5771e-18 0.218826)
(0.200625 0.0936001 8.3298e-19 0.396191 4.00515e-18 0.330221)
(0.287829 0.138999 4.13071e-19 0.546137 4.44767e-18 0.441647)
(0.444756 0.0717884 -1.52108e-19 1.0838 -1.30092e-18 0.935686)
(0.0175934 -0.00173107 -2.21212e-22 0.01601 -4.1518e-22 0.0167944)
(0.00694798 -0.000437342 -5.95298e-21 0.00530228 -3.28313e-20 0.00518223)
(0.104591 0.0197938 -2.0908e-20 0.067874 1.64403e-19 0.0861656)
(0.953977 0.156908 7.4885e-20 0.420179 3.13212e-19 0.700566)
(1.47474 0.103405 -8.71733e-21 0.577824 -1.2657e-19 1.01694)
(0.600555 -0.058396 -7.95847e-19 0.242397 2.82374e-18 0.41394)
(0.131888 -0.0347627 7.39152e-20 0.0745322 -1.73136e-19 0.0969509)
(0.0359143 -0.0101028 2.08207e-19 0.0203752 -3.56991e-18 0.0288109)
(0.0194734 0.00235435 -2.93709e-19 0.00803831 5.53202e-21 0.0156894)
(0.0330801 0.0117054 4.11818e-19 0.0230412 -1.10913e-18 0.0309124)
(0.0478877 0.0187087 -7.03488e-19 0.0374707 1.75489e-18 0.0456785)
(0.0631576 0.0244959 1.26465e-18 0.0489543 -3.4658e-18 0.0595523)
(0.0772042 0.0292699 -5.686e-20 0.0581386 -8.55866e-20 0.0715619)
(0.0878866 0.0323374 2.79174e-19 0.06387 -1.46879e-18 0.079605)
(0.0953152 0.0336823 3.1972e-21 0.0662022 1.56651e-18 0.0843023)
(0.0986022 0.0333049 -1.64348e-19 0.0653682 -6.00788e-19 0.0850844)
(0.098605 0.0314101 5.51094e-21 0.0618544 -1.00422e-18 0.082813)
(0.0957326 0.0282966 9.43769e-20 0.0564282 -7.12026e-19 0.0778893)
(0.0908159 0.0242392 3.71976e-20 0.0497685 -4.13105e-20 0.0713188)
(0.0846397 0.0197086 4.56777e-20 0.0428364 4.28313e-20 0.0641081)
(0.0783816 0.0152077 -5.70185e-20 0.0366142 1.37983e-19 0.0572785)
(0.0730679 0.011032 -1.41683e-19 0.0316647 2.06339e-19 0.0517418)
(0.0678975 0.00674523 -4.79571e-20 0.0274992 -7.50043e-19 0.0467461)
(0.062782 0.00159174 -8.36071e-20 0.024156 -3.09565e-19 0.0424547)
(0.0596872 -0.0038565 2.58611e-19 0.0234312 -4.95561e-19 0.0406208)
(0.059852 -0.00964903 -2.97731e-19 0.0265172 -5.33295e-19 0.0422098)
(0.063596 -0.0159949 -6.12795e-19 0.0339737 4.5853e-19 0.0478995)
(0.0689822 -0.0222117 2.47991e-19 0.0445039 -1.6969e-18 0.0557377)
(0.0747462 -0.0280416 4.28335e-19 0.0568293 4.87819e-19 0.0648058)
(0.0762048 -0.031589 3.55578e-19 0.066718 1.79944e-18 0.0702112)
(0.0718144 -0.0322436 -9.22018e-19 0.0727573 8.90569e-19 0.0706862)
(0.0585907 -0.0283029 9.76783e-19 0.0733533 4.04452e-18 0.0636667)
(0.0436242 -0.0205403 -5.25506e-19 0.0780027 8.78234e-19 0.0579533)
(0.0439632 -0.00930548 -1.93888e-18 0.108677 1.46641e-18 0.0729462)
(0.0696903 0.00548827 -4.93994e-19 0.180137 -1.58217e-18 0.121045)
(0.119022 0.0307441 1.37631e-18 0.291445 2.46379e-18 0.200539)
(0.196971 0.0687569 2.02919e-18 0.453421 -2.87768e-18 0.320171)
(0.316108 0.126942 -9.69054e-19 0.690667 2.48219e-18 0.501597)
(0.505931 0.225786 -8.89521e-19 1.02847 -1.01374e-18 0.767705)
(0.817008 0.390487 -3.69707e-19 1.45184 -4.51296e-19 1.09583)
(1.03804 0.464323 -2.19035e-20 2.14392 2.76271e-18 1.6452)
(0.011845 -0.00110882 -1.29588e-22 0.0103001 -2.01215e-22 0.0112175)
(0.01219 -0.00183325 -7.66899e-22 0.0122054 1.85472e-21 0.0122966)
(0.00357685 0.000272583 -3.43771e-21 0.00293678 -1.38241e-20 0.00318869)
(0.178889 0.0359407 -4.43676e-20 0.0923873 -2.5148e-19 0.136269)
(1.24831 0.174307 2.69204e-19 0.526794 3.77403e-19 0.899659)
(1.93554 0.11075 2.3797e-19 0.749331 -7.04037e-19 1.33792)
(1.01812 -0.0835875 4.40452e-19 0.402489 -3.26068e-18 0.706078)
(0.30795 -0.0678273 1.68002e-18 0.156456 -2.91508e-18 0.219085)
(0.153611 -0.0367066 -6.54665e-19 0.0799171 1.88355e-18 0.11379)
(0.114225 -0.0206176 3.40929e-19 0.0517032 5.40168e-19 0.0837991)
(0.0976601 -0.0135737 -5.25059e-19 0.0411557 1.758e-18 0.0702243)
(0.0957381 -0.0101357 -9.30546e-19 0.0385894 1.93653e-18 0.0678607)
(0.0997268 -0.00713001 7.25615e-19 0.0387216 -1.49598e-18 0.070593)
(0.106028 -0.00652317 -2.88481e-19 0.0408658 1.44695e-18 0.0748232)
(0.114347 -0.00772598 -4.11696e-19 0.0442227 -1.70163e-18 0.0811016)
(0.120742 -0.0107292 -1.40376e-19 0.0476052 -7.34602e-19 0.0860301)
(0.12714 -0.0149704 2.07408e-19 0.0518457 3.75782e-19 0.0914299)
(0.132716 -0.0200161 2.58572e-19 0.0568992 1.32718e-20 0.0963772)
(0.138823 -0.0257073 4.77947e-20 0.0633468 9.31007e-20 0.102379)
(0.144219 -0.0317703 -1.56258e-20 0.0708605 -1.3722e-19 0.108499)
(0.149281 -0.0378915 -1.84742e-20 0.0794038 -3.40257e-19 0.114959)
(0.154126 -0.0437445 1.64846e-19 0.088662 -5.11466e-19 0.121457)
(0.159619 -0.0492319 8.50941e-20 0.0983075 -2.50094e-19 0.12873)
(0.165558 -0.0548687 9.85768e-20 0.108968 2.18739e-19 0.137056)
(0.170281 -0.0597797 -9.63729e-21 0.118969 1.2808e-18 0.144448)
(0.175731 -0.0645332 1.21582e-18 0.129197 -1.49699e-18 0.152414)
(0.180097 -0.0687076 2.68875e-19 0.13879 -1.07035e-18 0.159422)
(0.183163 -0.0721056 2.23153e-19 0.14707 2.69775e-18 0.165309)
(0.182412 -0.0740826 -6.04907e-19 0.15303 7.74138e-19 0.168072)
(0.175439 -0.0735862 -1.49857e-18 0.154456 -9.96398e-19 0.16567)
(0.159867 -0.0700901 1.17156e-18 0.151577 -1.90223e-18 0.156689)
(0.133525 -0.0625228 -1.70131e-18 0.144629 1.26182e-18 0.1404)
(0.0990749 -0.0500431 3.38122e-18 0.141207 -1.1766e-18 0.121881)
(0.0743803 -0.030109 1.75361e-18 0.163711 -2.43499e-18 0.121344)
(0.0956187 0.000813739 1.58225e-18 0.253235 1.33908e-18 0.176802)
(0.172572 0.0482031 9.76242e-19 0.423272 2.85282e-18 0.299549)
(0.30279 0.11606 5.08436e-19 0.67921 2.60591e-18 0.492138)
(0.50163 0.21681 -1.04879e-18 1.05149 -2.99143e-18 0.781316)
(0.8198 0.385496 8.06974e-19 1.57463 -1.0037e-18 1.20233)
(1.34054 0.661072 -1.55559e-18 2.20477 -2.15006e-18 1.72818)
(1.59393 0.793543 -2.36768e-19 2.77499 -1.21986e-18 2.23362)
(0.00936346 -0.000835821 3.94926e-22 0.00787944 1.54696e-21 0.00859933)
(0.00988287 -0.00125398 -1.0195e-21 0.00931649 -2.13001e-21 0.00958314)
(0.00598955 -0.000690048 2.81461e-21 0.00623377 9.25035e-21 0.00610232)
(0.00226713 9.25343e-05 1.52393e-21 0.00198421 4.54855e-21 0.00211401)
(0.218422 0.0389527 -1.60241e-19 0.101684 -3.36013e-19 0.160706)
(1.35501 0.164018 3.28602e-19 0.556837 -4.15944e-19 0.96667)
(2.32606 0.11605 -4.35534e-19 0.895755 -1.16454e-19 1.60842)
(1.65251 -0.108645 -2.21758e-20 0.640945 1.00911e-18 1.15594)
(0.625816 -0.12789 9.22084e-19 0.304437 -6.35423e-20 0.445278)
(0.337593 -0.0806721 5.76788e-20 0.176005 3.21794e-20 0.249239)
(0.25922 -0.0567904 4.72432e-19 0.127222 -3.46129e-18 0.194053)
(0.247714 -0.0547973 -3.878e-19 0.122035 5.77785e-19 0.186164)
(0.248289 -0.055002 -4.42869e-19 0.122408 3.85019e-19 0.186619)
(0.251388 -0.0575435 6.54853e-19 0.126383 -3.71595e-18 0.188622)
(0.26042 -0.0611572 5.42028e-19 0.132676 2.70562e-19 0.196444)
(0.267306 -0.0656679 2.90735e-19 0.139779 2.70421e-19 0.203137)
(0.274753 -0.0708316 -3.49593e-19 0.147961 1.05432e-18 0.211021)
(0.280232 -0.0760554 8.42892e-20 0.156321 2.18436e-19 0.217453)
(0.285729 -0.0814859 5.21816e-20 0.165274 -1.32123e-19 0.22455)
(0.289934 -0.0872056 1.38617e-19 0.175007 7.70169e-20 0.231346)
(0.293063 -0.0927547 -1.26306e-19 0.184879 4.323e-19 0.237929)
(0.295295 -0.097794 -1.82887e-19 0.194547 4.29652e-19 0.243587)
(0.297908 -0.102162 4.31023e-19 0.203359 3.21147e-19 0.249258)
(0.300313 -0.106328 8.10437e-20 0.212046 8.02543e-19 0.255167)
(0.299893 -0.109238 -8.82397e-19 0.218687 -1.43762e-19 0.258382)
(0.300508 -0.111782 -5.74356e-19 0.224484 3.91155e-18 0.262137)
(0.299208 -0.113548 2.53085e-19 0.229168 -5.62036e-20 0.263806)
(0.297819 -0.114831 -1.17672e-18 0.232569 -1.47116e-18 0.265458)
(0.291872 -0.114922 -8.92552e-19 0.234408 -2.95742e-18 0.263456)
(0.279349 -0.112762 1.46599e-18 0.232089 -1.29996e-18 0.256667)
(0.254194 -0.106929 -5.15706e-19 0.224881 3.31733e-18 0.240481)
(0.212361 -0.0954057 7.26256e-19 0.210876 -1.97661e-18 0.212877)
(0.152339 -0.0754415 -3.43178e-18 0.195759 5.99279e-18 0.175326)
(0.0994324 -0.0430148 -3.42158e-18 0.208935 4.17563e-19 0.155968)
(0.123895 0.00605223 -1.83931e-18 0.326806 1.23293e-18 0.226958)
(0.239664 0.0786415 -2.08685e-18 0.566904 1.48986e-18 0.403687)
(0.429853 0.179593 6.90789e-19 0.919187 -1.30328e-19 0.674331)
(0.709517 0.324241 -1.29173e-20 1.41118 1.22826e-19 1.0642)
(1.14574 0.55603 8.28775e-19 2.07858 2.06216e-18 1.61406)
(1.82353 0.908407 2.58649e-18 2.84414 -9.96281e-19 2.28587)
(2.10205 1.06415 -1.35162e-18 3.28082 -1.39283e-18 2.73126)
(0.00695972 -0.000643176 -2.74832e-22 0.00588733 -9.20006e-22 0.00643022)
(0.00648318 -0.00075038 2.02052e-21 0.00595333 5.67039e-21 0.00620678)
(0.00749637 -0.00104226 -1.06007e-21 0.00757378 -5.30653e-21 0.00753417)
(0.0021727 -0.000123597 -1.09156e-22 0.00224529 -8.44339e-22 0.00220825)
(0.000876039 1.23858e-05 4.76089e-23 0.000808815 3.39066e-22 0.000840279)
(0.193857 0.0293758 -4.24439e-20 0.0852563 -4.83474e-20 0.139784)
(1.2617 0.132029 -5.42098e-20 0.507931 3.16696e-21 0.894052)
(2.62908 0.120162 -4.78407e-19 1.01019 1.2144e-18 1.81634)
(2.40088 -0.119854 -7.48134e-19 0.920915 -3.20622e-19 1.67689)
(1.16096 -0.212487 -7.59726e-20 0.532474 -1.58542e-18 0.836437)
(0.619673 -0.151268 6.51493e-19 0.328856 2.83554e-18 0.455737)
(0.465478 -0.115392 9.22867e-19 0.245389 -1.55868e-18 0.352351)
(0.448546 -0.109218 -1.2483e-18 0.232235 8.70231e-19 0.344269)
(0.445261 -0.112736 7.00479e-19 0.236507 1.63608e-18 0.342534)
(0.455659 -0.119678 -1.01591e-19 0.248032 7.97375e-19 0.352521)
(0.461725 -0.125845 -3.03286e-19 0.258186 -1.67144e-19 0.359079)
(0.469049 -0.132095 2.95428e-19 0.268613 -1.57379e-18 0.367759)
(0.471741 -0.137235 -2.70779e-20 0.277155 1.0265e-18 0.372665)
(0.472603 -0.141814 1.97039e-19 0.284746 -2.05616e-19 0.376726)
(0.471458 -0.146478 7.50124e-20 0.292704 3.78312e-19 0.379887)
(0.467902 -0.150458 -1.8013e-19 0.299619 -5.47629e-19 0.381802)
(0.462873 -0.153531 1.34423e-19 0.305419 2.07931e-20 0.382057)
(0.459551 -0.156152 -9.9061e-20 0.310655 2.07777e-19 0.383143)
(0.457146 -0.1589 -6.97109e-19 0.316278 -6.63183e-19 0.385353)
(0.452611 -0.160778 1.43152e-18 0.320623 -1.69811e-18 0.385428)
(0.450782 -0.162732 -5.00697e-19 0.324946 -7.68088e-19 0.387424)
(0.447505 -0.164205 -1.18845e-18 0.328835 -8.15773e-19 0.38764)
(0.445064 -0.165474 1.23755e-18 0.331947 -2.04827e-18 0.388813)
(0.437842 -0.165853 2.64019e-18 0.3342 -4.09156e-19 0.386361)
(0.422891 -0.163815 2.83703e-20 0.331937 2.76265e-18 0.378601)
(0.390183 -0.156802 -1.31592e-18 0.322136 -1.33544e-18 0.357383)
(0.332122 -0.141536 -1.18027e-18 0.299921 1.26275e-18 0.317681)
(0.240825 -0.113662 1.58935e-18 0.266541 -6.48796e-18 0.255287)
(0.138286 -0.067744 4.04823e-18 0.248589 -4.2548e-18 0.195685)
(0.138062 0.000714874 2.04196e-18 0.364945 -3.49551e-18 0.253391)
(0.285194 0.0999279 -1.54422e-18 0.661505 2.2254e-19 0.473602)
(0.532061 0.234289 -3.10302e-20 1.09386 2.34144e-18 0.812628)
(0.880701 0.417714 -1.25787e-18 1.66781 -1.17413e-18 1.27761)
(1.40057 0.692586 -3.3555e-18 2.41137 9.41311e-19 1.90395)
(2.14051 1.0706 -9.53702e-19 3.21993 1.79843e-18 2.63758)
(2.44445 1.23566 2.56062e-18 3.61139 -5.36537e-19 3.05604)
(0.00528141 -0.000462118 -1.65345e-22 0.00442635 -2.79564e-22 0.00485998)
(0.00477641 -0.000540727 5.86975e-22 0.00433232 2.06038e-22 0.00455152)
(0.00509199 -0.000670585 -1.58707e-21 0.00498195 -2.65398e-21 0.00503138)
(0.00526529 -0.00068267 -2.19239e-21 0.0055666 -3.37281e-21 0.00541616)
(0.000609181 -1.14231e-05 -1.51218e-23 0.000618515 -2.59304e-23 0.000613809)
(5.00989e-05 -2.22302e-08 2.95435e-24 4.96573e-05 5.69507e-24 4.98618e-05)
(0.122534 0.0149846 -2.61949e-20 0.0519768 -5.40389e-20 0.0871993)
(0.997001 0.0888358 2.0341e-19 0.395012 2.66039e-19 0.700972)
(2.65154 0.111338 3.76241e-19 1.01593 4.43579e-19 1.83497)
(3.10639 -0.101406 4.34017e-20 1.18433 2.74466e-18 2.15189)
(2.03106 -0.304729 -1.77171e-18 0.869356 6.12802e-19 1.47582)
(1.01409 -0.246368 1.38897e-19 0.536757 -3.51102e-18 0.744933)
(0.725451 -0.196394 4.91187e-19 0.408555 3.11542e-18 0.55146)
(0.657528 -0.171981 -1.24599e-18 0.357277 -5.35686e-19 0.507115)
(0.668985 -0.178077 6.52285e-19 0.366807 -2.14939e-18 0.521282)
(0.674687 -0.185705 -3.91554e-19 0.379338 1.24467e-18 0.527743)
(0.678878 -0.193365 4.52071e-19 0.391895 1.22061e-18 0.534507)
(0.677189 -0.198387 1.62053e-19 0.400063 6.9658e-19 0.536074)
(0.676307 -0.202849 -1.18178e-19 0.407334 6.51278e-19 0.539007)
(0.672099 -0.206879 -1.89578e-20 0.4139 -1.84781e-18 0.539844)
(0.663633 -0.209541 8.36226e-20 0.417842 8.45864e-19 0.538099)
(0.652198 -0.21095 -3.24722e-19 0.419911 -5.37143e-21 0.533387)
(0.644735 -0.212531 6.13496e-19 0.422608 -1.01392e-18 0.5314)
(0.640016 -0.215079 2.87479e-19 0.427385 -1.16056e-19 0.532108)
(0.635896 -0.217971 -7.66631e-19 0.433243 2.11925e-18 0.53336)
(0.637518 -0.222255 -4.37605e-19 0.44196 -1.84624e-18 0.539277)
(0.640509 -0.227124 1.60645e-18 0.452367 -1.22721e-18 0.546023)
(0.644166 -0.231961 -6.82683e-20 0.462642 3.29081e-18 0.553763)
(0.64126 -0.23543 2.76619e-19 0.47102 3.48189e-18 0.556693)
(0.627858 -0.235792 -8.25957e-19 0.473731 -5.22122e-19 0.552213)
(0.592759 -0.230002 5.50553e-20 0.466304 -2.25138e-18 0.531207)
(0.523471 -0.213305 -1.84443e-18 0.440817 -4.62232e-19 0.484257)
(0.404975 -0.179509 -4.44236e-19 0.392052 2.92374e-18 0.400555)
(0.24205 -0.121437 8.52119e-19 0.33063 4.38878e-18 0.289288)
(0.146899 -0.0341112 5.13982e-18 0.370061 9.34395e-19 0.261092)
(0.280021 0.0894264 -1.98788e-18 0.667058 -1.06296e-18 0.474139)
(0.563087 0.251972 -5.65386e-18 1.14109 -8.56194e-19 0.851963)
(0.952031 0.460542 2.85577e-18 1.73973 -3.99883e-19 1.34816)
(1.49214 0.744648 -1.19181e-18 2.46522 -2.16695e-18 1.9728)
(2.17756 1.09111 -1.76802e-19 3.20841 7.38064e-19 2.6616)
(2.49292 1.25632 9.17859e-19 3.63026 1.85788e-18 3.07057)
(0.00393291 -0.000331132 -3.72839e-23 0.00327711 -7.02467e-23 0.00360989)
(0.00376636 -0.000416314 -4.13189e-22 0.00336635 -9.5044e-22 0.00356494)
(0.00358796 -0.000445994 3.26178e-22 0.00344054 1.25649e-21 0.00351207)
(0.00393886 -0.000539329 2.49505e-21 0.00406206 4.76628e-21 0.0039972)
(0.00378757 -0.000450193 3.18336e-22 0.00412391 6.75534e-22 0.00395615)
(0.000118683 -4.74942e-07 4.39106e-25 0.000119192 5.43155e-26 0.000118938)
(0.00163463 -0.0002493 -9.82834e-21 0.00141304 -1.38671e-20 0.00150692)
(0.0536262 0.00447131 3.05761e-21 0.0226646 7.75194e-21 0.0380229)
(0.649715 0.0469626 -3.3404e-20 0.253811 -2.53683e-19 0.453308)
(2.26677 0.0785078 3.7916e-19 0.864431 7.74044e-19 1.57279)
(3.51885 -0.0576379 -3.33818e-19 1.33922 -4.08737e-18 2.41792)
(3.07439 -0.342897 1.08645e-18 1.24495 3.20109e-18 2.19828)
(1.78576 -0.396125 -1.89459e-19 0.881561 -1.96985e-18 1.34018)
(1.0742 -0.297945 -8.75679e-19 0.620443 -2.33801e-19 0.81265)
(0.900984 -0.256026 1.74405e-18 0.523865 -1.58241e-18 0.697332)
(0.892404 -0.244958 5.32331e-19 0.500875 1.36477e-18 0.697215)
(0.908786 -0.254404 -8.66233e-19 0.516863 8.85376e-19 0.715258)
(0.911794 -0.262399 -6.75945e-19 0.530345 7.87703e-19 0.720465)
(0.909275 -0.268376 -1.21523e-18 0.54013 -7.86623e-21 0.722122)
(0.90008 -0.271934 1.49625e-18 0.545507 -1.26304e-18 0.718724)
(0.887485 -0.273637 -1.545e-19 0.547144 1.6488e-18 0.713732)
(0.871797 -0.2742 -5.69798e-19 0.547012 -3.8124e-19 0.705859)
(0.861719 -0.275516 4.42859e-19 0.548608 5.71725e-19 0.702348)
(0.85614 -0.278732 2.31764e-19 0.554135 4.73647e-19 0.703144)
(0.854393 -0.284053 1.53541e-19 0.564172 -7.43856e-19 0.707933)
(0.86273 -0.292768 -2.51393e-20 0.581293 1.03871e-18 0.721516)
(0.87742 -0.303978 1.06287e-18 0.604085 2.66981e-18 0.740416)
(0.896062 -0.316613 3.28214e-19 0.630023 -1.0498e-18 0.763387)
(0.909122 -0.328489 -2.18638e-18 0.655477 3.58899e-19 0.782875)
(0.909578 -0.336827 -2.32339e-18 0.674823 -2.16264e-18 0.793573)
(0.882416 -0.336998 2.00443e-18 0.680164 -2.0093e-19 0.783078)
(0.811521 -0.322886 1.94919e-18 0.660684 -2.28061e-18 0.738358)
(0.677689 -0.287054 1.3261e-18 0.606515 6.48787e-19 0.644187)
(0.470809 -0.220987 -2.82671e-18 0.514073 3.85442e-20 0.495549)
(0.24143 -0.118626 -2.87533e-18 0.429668 3.09865e-18 0.338637)
(0.219114 0.0214243 1.37794e-20 0.573537 -2.63359e-18 0.397381)
(0.473617 0.200049 4.15445e-18 1.00561 -3.85085e-19 0.739621)
(0.854405 0.41343 -1.44473e-18 1.55797 3.5268e-19 1.20655)
(1.33125 0.665787 1.32024e-18 2.1604 -3.54871e-19 1.7374)
(1.85067 0.928696 -3.08765e-18 2.72796 -1.26711e-18 2.26977)
(2.10284 1.05821 -8.83068e-19 3.13372 5.33334e-19 2.6107)
(0.00296339 -0.000244081 -6.87295e-23 0.00246072 -1.02538e-22 0.00271613)
(0.00287333 -0.000305417 -4.87286e-22 0.00253523 -7.13999e-22 0.00270377)
(0.00282729 -0.000344996 1.8463e-21 0.00265731 2.83222e-21 0.00274211)
(0.00270158 -0.000344465 -6.20171e-23 0.00271207 -7.23234e-22 0.00270617)
(0.00320335 -0.000465285 9.04717e-22 0.0034601 1.02609e-21 0.00332892)
(0.00271123 -0.000287993 -4.71789e-22 0.00300977 -4.23734e-22 0.00286013)
(0.00015227 -8.49727e-07 4.00029e-24 0.00015342 7.55405e-24 0.000152848)
(0.000950535 -8.06536e-05 9.30827e-22 0.00100785 9.00921e-22 0.000977906)
(0.0121875 0.000208371 2.08963e-22 0.00620807 9.07808e-21 0.00914757)
(0.320241 0.0158863 2.3912e-19 0.123316 2.19175e-19 0.221937)
(1.53668 0.0385844 -3.08553e-19 0.584164 -2.66199e-20 1.06482)
(3.33557 -0.0389264 -1.12519e-18 1.26679 -2.59029e-19 2.29849)
(3.90895 -0.292935 1.64868e-18 1.53015 -1.7848e-18 2.72733)
(2.95416 -0.521993 -2.33454e-18 1.32197 1.94646e-18 2.19239)
(1.76204 -0.466871 3.86675e-19 0.968868 -2.82886e-18 1.35368)
(1.24338 -0.367204 1.25988e-18 0.752266 2.60097e-18 0.960052)
(1.13705 -0.330269 7.42238e-19 0.671523 -2.73005e-18 0.887438)
(1.15728 -0.326528 -1.01958e-19 0.662916 1.12308e-18 0.910044)
(1.17807 -0.337343 -1.25659e-18 0.681844 -1.83599e-18 0.931851)
(1.17751 -0.345803 7.02926e-19 0.696094 1.81102e-18 0.935291)
(1.16491 -0.35011 -1.63413e-19 0.702256 -1.37831e-18 0.930443)
(1.14471 -0.351474 -6.39805e-19 0.703135 7.48949e-19 0.919438)
(1.13081 -0.353448 5.86082e-19 0.7054 -9.23901e-20 0.91403)
(1.12163 -0.357548 -5.61367e-19 0.711923 1.54454e-19 0.913684)
(1.11857 -0.365662 -3.09704e-19 0.726634 1.47282e-18 0.92059)
(1.1299 -0.379339 -2.53429e-19 0.753109 -2.36359e-19 0.940634)
(1.15397 -0.397742 -2.57478e-18 0.790104 2.31493e-19 0.971769)
(1.18613 -0.419382 -2.4475e-19 0.834622 3.13171e-19 1.01072)
(1.21824 -0.442223 4.70894e-20 0.883062 -2.48433e-18 1.05146)
(1.24012 -0.462677 3.48871e-18 0.928616 -1.34869e-19 1.08587)
(1.23537 -0.475024 -4.98307e-19 0.960811 1.68259e-18 1.10027)
(1.18402 -0.471656 1.21052e-18 0.965838 1.65671e-18 1.07758)
(1.06314 -0.443524 -2.13057e-18 0.92895 7.79025e-19 0.99842)
(0.852221 -0.380546 3.3366e-18 0.837563 -3.06642e-18 0.847731)
(0.559534 -0.274418 2.06313e-19 0.694264 -7.81883e-20 0.630096)
(0.28975 -0.130296 2.65362e-18 0.585705 3.58075e-19 0.439012)
(0.284537 0.0476865 -6.78233e-18 0.731361 1.23284e-18 0.507077)
(0.549313 0.244192 2.87002e-18 1.11758 8.09163e-20 0.830833)
(0.886839 0.437663 2.61496e-19 1.51726 4.86521e-19 1.19222)
(1.18633 0.595016 2.34229e-18 1.84702 4.15756e-19 1.50449)
(1.32102 0.659714 -2.08724e-18 2.15242 -1.44667e-18 1.72551)
(0.00224243 -0.000182073 -2.91828e-22 0.00185841 -4.10364e-22 0.00205361)
(0.00218926 -0.00022723 1.27806e-21 0.00191701 1.81605e-21 0.0020527)
(0.00218418 -0.000259244 -2.40386e-22 0.00202104 -6.94843e-22 0.00210229)
(0.00214895 -0.000273033 -2.395e-21 0.00210898 -3.3758e-21 0.00212908)
(0.00211695 -0.000276527 -1.59916e-22 0.00220738 -1.17024e-22 0.00216156)
(0.00242723 -0.000343455 3.12635e-21 0.00271331 4.46365e-21 0.00256794)
(0.00184724 -0.000165356 -4.6605e-22 0.00206589 -8.09968e-22 0.0019559)
(9.75065e-05 -3.82702e-07 -9.05838e-24 9.81433e-05 -1.16529e-23 9.78265e-05)
(0.000224722 -3.02761e-06 1.06098e-22 0.000229239 1.27543e-22 0.000226983)
(0.00819823 -0.00138557 3.5732e-21 0.0040595 -1.66952e-20 0.00606332)
(0.0994136 0.00126056 -1.66967e-20 0.0379998 -3.92633e-20 0.0685569)
(0.78143 0.00756971 -1.68235e-19 0.296417 -6.76956e-20 0.539769)
(2.43818 -0.0388747 -6.47451e-19 0.925195 -2.95364e-19 1.68669)
(4.03995 -0.219253 3.02167e-19 1.56062 -1.8428e-18 2.7923)
(4.10668 -0.517944 -3.63954e-19 1.69899 4.2663e-18 2.93368)
(2.99779 -0.664784 9.12066e-19 1.47083 -1.12316e-18 2.29087)
(1.93947 -0.558377 -1.22283e-18 1.13456 1.71754e-18 1.51663)
(1.50312 -0.455754 -2.53105e-19 0.928331 1.40451e-18 1.17224)
(1.43228 -0.422237 -2.77066e-19 0.856327 -7.04005e-19 1.12193)
(1.47103 -0.423647 6.1601e-19 0.856887 -1.94937e-18 1.16036)
(1.49816 -0.436209 8.97845e-19 0.878368 4.70589e-19 1.19073)
(1.49091 -0.445424 -6.40343e-19 0.893152 -1.60524e-18 1.19198)
(1.47701 -0.452628 -3.0607e-20 0.904407 6.33635e-19 1.1891)
(1.45879 -0.459491 1.57401e-18 0.915383 -1.11617e-18 1.18461)
(1.44435 -0.470793 -1.49571e-18 0.935636 3.62952e-19 1.18746)
(1.45034 -0.490209 -4.11613e-19 0.973477 -7.80735e-19 1.21032)
(1.47565 -0.516131 2.73421e-18 1.02651 -2.89006e-18 1.25032)
(1.51467 -0.547224 -1.17951e-18 1.09239 2.4281e-18 1.30323)
(1.56014 -0.581674 2.14388e-19 1.16787 -2.52095e-19 1.36432)
(1.60111 -0.615619 -2.44033e-18 1.24595 2.31519e-18 1.42441)
(1.62173 -0.642846 8.57987e-19 1.31466 -1.46137e-18 1.4698)
(1.59924 -0.654185 -1.15028e-18 1.35662 9.44663e-19 1.47974)
(1.50991 -0.639806 -1.73621e-18 1.35398 -9.71565e-19 1.43304)
(1.32947 -0.589237 7.04034e-19 1.29052 3.46806e-18 1.31039)
(1.05557 -0.496262 -2.20833e-18 1.16176 1.08573e-18 1.10998)
(0.74008 -0.368893 -4.57163e-19 0.993919 -2.5634e-19 0.866778)
(0.451945 -0.218017 2.63682e-18 0.823847 -3.11593e-18 0.634643)
(0.29432 -0.0606608 -1.87563e-18 0.743297 1.10876e-18 0.513114)
(0.317753 0.0756773 -3.9411e-19 0.787164 -1.25479e-18 0.540912)
(0.397648 0.155729 -3.50264e-18 0.869983 -1.03198e-18 0.620417)
(0.470787 0.168736 1.50454e-18 1.07822 1.79865e-19 0.767718)
(0.00170047 -0.000137389 -2.84947e-22 0.00140855 -3.70157e-22 0.0015569)
(0.00166919 -0.000170576 -1.13216e-21 0.00145494 -1.44716e-21 0.0015618)
(0.00166682 -0.000193706 -1.3126e-22 0.00152705 -1.35738e-22 0.00159679)
(0.00167891 -0.000211221 -1.93197e-22 0.00162008 -1.04334e-22 0.0016496)
(0.00165102 -0.000212853 1.72071e-21 0.00168113 2.31022e-21 0.00166624)
(0.00166815 -0.000219271 1.05965e-21 0.0017959 8.17016e-22 0.00173174)
(0.00179352 -0.000237231 -1.61061e-21 0.0020512 -1.9717e-21 0.001921)
(0.00147204 -0.000130869 -6.74794e-22 0.00168303 -8.50723e-23 0.00157671)
(0.000313892 -4.56268e-06 -1.93627e-23 0.000323119 -2.1389e-23 0.000318509)
(2.34288e-05 -2.71291e-08 -8.39016e-25 2.34855e-05 -1.06305e-24 2.34573e-05)
(0.00195347 -0.000500549 -5.85857e-21 0.00236994 -4.20026e-21 0.00215771)
(0.0152005 -0.00110611 -2.53143e-21 0.00651874 -9.58084e-23 0.0107983)
(0.265975 -0.00502904 2.16832e-19 0.101158 3.11228e-19 0.183473)
(1.2777 -0.0359181 -1.62184e-18 0.486522 -1.64735e-18 0.88394)
(3.12078 -0.165031 2.45035e-18 1.20265 2.94533e-18 2.16432)
(4.5146 -0.420574 -1.79135e-19 1.802 -1.61242e-18 3.15028)
(4.38168 -0.725146 3.73033e-18 1.92791 1.96476e-18 3.19535)
(3.30736 -0.825297 -9.30654e-19 1.73177 1.8896e-18 2.57664)
(2.32189 -0.698847 -4.34215e-18 1.40613 -6.50744e-19 1.84357)
(1.88278 -0.585832 1.69766e-18 1.18885 -4.13233e-18 1.48178)
(1.80593 -0.549109 1.66813e-19 1.11067 3.33718e-18 1.4226)
(1.84237 -0.551279 5.23015e-19 1.10922 -1.66072e-18 1.46279)
(1.88028 -0.567758 6.38269e-19 1.13591 1.33183e-18 1.50966)
(1.87593 -0.583613 -4.78002e-19 1.16188 -1.22348e-18 1.52333)
(1.85041 -0.602988 7.03515e-19 1.19621 1.69461e-19 1.52674)
(1.84159 -0.630599 -1.64514e-18 1.25104 1.79759e-18 1.54945)
(1.8537 -0.664347 7.81943e-19 1.32387 1.09554e-18 1.59057)
(1.88434 -0.703602 -8.98149e-19 1.41284 -3.36223e-18 1.6498)
(1.92672 -0.74785 5.89238e-21 1.51846 7.47044e-19 1.72288)
(1.97558 -0.794369 1.25865e-18 1.63485 -1.4066e-18 1.8058)
(2.01524 -0.83701 -1.01759e-19 1.75067 -7.00269e-19 1.88343)
(2.02479 -0.866159 7.31119e-19 1.84506 -1.57151e-19 1.93555)
(1.97753 -0.870514 2.34786e-18 1.89627 2.96716e-19 1.93595)
(1.84892 -0.839587 -1.81848e-18 1.88526 4.00454e-20 1.86441)
(1.63126 -0.768568 -3.71721e-18 1.80848 -1.50188e-18 1.718)
(1.36402 -0.665875 -3.1294e-20 1.6775 -2.15368e-19 1.51899)
(1.09987 -0.549445 2.32301e-18 1.5091 9.956e-19 1.29987)
(0.864185 -0.43411 1.15871e-20 1.31602 -5.90821e-19 1.08268)
(0.692058 -0.344031 2.77905e-18 1.12329 1.14909e-18 0.893145)
(0.603616 -0.296969 3.09879e-18 0.999931 -4.55785e-19 0.78068)
(0.595681 -0.289811 8.87038e-19 1.06912 6.68408e-19 0.82993)
(0.00129063 -0.000104605 -3.0593e-22 0.00106984 -3.77722e-22 0.00118203)