/*--------------------------------*- C++ -*----------------------------------*\
| =========                 |                                                 |
| \\      /  F ield         | OpenFOAM: The Open Source CFD Toolbox           |
|  \\    /   O peration     | Version:  2312                                  |
|   \\  /    A nd           | Website:  www.openfoam.com                      |
|    \\/     M anipulation  |                                                 |
\*---------------------------------------------------------------------------*/
FoamFile
{
    version     2.0;
    format      ascii;
    arch        "LSB;label=32;scalar=64";
    class       volScalarField;
    location    "150";
    object      turbulenceProperties:I;
}
// * * * * * * * * * * * * * * * * * * * * * * * * * * * * * * * * * * * * * //

dimensions      [0 0 0 0 0 0 0];

internalField   nonuniform List<scalar> 
11040
(
0.0705313
0.13841
0.096277
0.25442
0.292341
0.300298
0.302568
0.307891
0.314467
0.3225
0.331139
0.337261
0.340388
0.339995
0.336644
0.331297
0.324479
0.316672
0.308361
0.300446
0.293356
0.287655
0.283235
0.279601
0.276275
0.272769
0.269563
0.265932
0.262519
0.259226
0.257163
0.255511
0.254915
0.255828
0.258678
0.263483
0.271728
0.284719
0.302934
0.382149
0.736727
0.0178333
0.0381799
0.176904
0.53389
0.234255
0.0924659
0.0972081
0.118468
0.138998
0.157631
0.173236
0.182885
0.186725
0.184538
0.17785
0.168301
0.156978
0.144641
0.131967
0.120006
0.109282
0.100511
0.0934608
0.0873869
0.0817402
0.0758922
0.0704638
0.0643173
0.0581791
0.0515884
0.0466579
0.0414036
0.0369366
0.035035
0.0389134
0.0487577
0.0670438
0.0998272
0.167946
0.353234
1
0.0140875
0.00724711
0.034653
0.233146
1
0.398871
0.188276
0.101685
0.0717739
0.0988686
0.116148
0.12559
0.128637
0.125642
0.118636
0.108957
0.0981291
0.0869619
0.076103
0.0661114
0.057484
0.0505903
0.0449164
0.0401802
0.0371161
0.0359555
0.0365577
0.0379212
0.0395316
0.0401443
0.0396252
0.0374397
0.0359416
0.0409615
0.0544848
0.0745809
0.104112
0.152724
0.248964
0.483248
0.955615
0.01248
0.0111942
0.00540808
0.043955
0.235292
1
0.631303
0.308843
0.212836
0.171681
0.148207
0.136523
0.1288
0.122317
0.1166
0.109907
0.103657
0.0975594
0.0921807
0.0871277
0.082589
0.0787296
0.0757376
0.073423
0.0713145
0.0696829
0.0681643
0.066714
0.0650055
0.0627261
0.0597047
0.055761
0.0517798
0.0522447
0.0652155
0.0901085
0.12665
0.183947
0.28852
0.498851
0.778173
0.0114212
0.0108669
0.00764216
0.00437191
0.0465174
0.207318
1
1
0.499015
0.337042
0.27103
0.245432
0.225789
0.208583
0.19426
0.180269
0.167643
0.155556
0.144503
0.134287
0.125027
0.116995
0.110349
0.104711
0.0995196
0.0951385
0.0910946
0.0875681
0.0840745
0.0803799
0.0759186
0.0702311
0.0633262
0.0601021
0.0744652
0.104398
0.145876
0.206433
0.306648
0.47382
0.642453
0.0103095
0.00924813
0.00926022
0.00452266
0.00272906
0.0412253
0.16498
0.695766
1
0.842266
0.509661
0.397315
0.352008
0.317828
0.291143
0.265612
0.243118
0.221941
0.202593
0.185115
0.169399
0.155906
0.144957
0.135846
0.127879
0.121299
0.115439
0.11043
0.105727
0.101012
0.0953901
0.0880573
0.078057
0.0683386
0.0792681
0.112748
0.157157
0.21641
0.304045
0.427259
0.534397
0.00928127
0.00823768
0.00803929
0.00767999
0.0023708
0.000656483
0.030617
0.120977
0.40293
1
1
0.78557
0.56643
0.470901
0.420446
0.374759
0.335395
0.300098
0.269642
0.242766
0.219009
0.198924
0.183091
0.170271
0.159679
0.151315
0.144319
0.138376
0.132786
0.127212
0.120794
0.112456
0.100628
0.0849667
0.0815
0.113001
0.158438
0.213117
0.283876
0.368954
0.43965
0.00819314
0.0075521
0.00699406
0.00700591
0.00649908
0.00104514
0.00358975
0.019085
0.0822616
0.248856
0.818825
1
1
0.832451
0.637894
0.53978
0.470905
0.411239
0.360839
0.317827
0.281546
0.252072
0.229478
0.211672
0.197649
0.187105
0.178912
0.17239
0.166561
0.160835
0.154167
0.145434
0.133052
0.115298
0.0953205
0.104892
0.14711
0.195712
0.248517
0.302192
0.346258
0.00722056
0.00674752
0.00639156
0.00599571
0.00630406
0.00551219
0.00119318
0.00287721
0.00895691
0.0503239
0.150457
0.398576
1
1
1
0.903975
0.701889
0.588425
0.502447
0.430932
0.372373
0.326596
0.292647
0.266533
0.246716
0.232313
0.22177
0.21384
0.207472
0.201725
0.195455
0.187417
0.176086
0.159608
0.136625
0.114446
0.124499
0.162142
0.198667
0.228053
0.251919
0.00633685
0.00598434
0.00574321
0.00549206
0.00527174
0.0054903
0.00456455
0.000964941
0.00139493
0.00712236
0.0254157
0.085643
0.217626
0.527467
1
1
1
0.945931
0.737811
0.612528
0.516472
0.442171
0.387861
0.346598
0.31604
0.294626
0.279523
0.268726
0.260828
0.254572
0.248623
0.241462
0.231585
0.217313
0.197617
0.173878
0.148757
0.133736
0.137006
0.145358
0.160689
0.00554056
0.00527991
0.0050977
0.00495704
0.00477079
0.00466535
0.00472431
0.00411044
0.00176272
0.00045483
0.004214
0.00954041
0.0430161
0.116379
0.264881
0.584659
1
1
1
0.947983
0.74414
0.623694
0.539338
0.473383
0.424173
0.389996
0.366067
0.349441
0.338093
0.330579
0.325084
0.319705
0.312461
0.301522
0.286065
0.267036
0.245099
0.220516
0.195841
0.177446
0.175838
0.00482951
0.00463453
0.00450344
0.00440378
0.00431047
0.00419269
0.00410827
0.00411456
0.00388251
0.00221987
0.000617979
0.00145238
0.00622741
0.0165768
0.0562821
0.134299
0.279389
0.556987
1
1
1
0.9659
0.784033
0.673489
0.599835
0.548739
0.512305
0.486004
0.468697
0.459083
0.455261
0.454787
0.454635
0.451863
0.444408
0.431772
0.413071
0.385411
0.350406
0.314256
0.284873
0.0041981
0.00405313
0.00395726
0.00389047
0.00383385
0.00377581
0.00370344
0.00363447
0.00364465
0.00351006
0.00275773
5.2322e-05
0.000136328
0.00306248
0.00103677
0.0206119
0.0608161
0.133625
0.257403
0.466006
0.81629
1
1
1
0.99046
0.886225
0.816968
0.772927
0.748994
0.743402
0.754676
0.781714
0.822793
0.873407
0.925474
0.962138
0.945083
0.845817
0.705598
0.578152
0.480142
0.00364026
0.00353302
0.00346288
0.00341855
0.00338599
0.00335709
0.00332637
0.00328404
0.00324162
0.00322461
0.00321959
0.00287331
0.00122487
0.000424648
0.000179421
0.00439931
0.00293556
0.0200284
0.0546833
0.113262
0.204325
0.332691
0.50322
0.71986
0.958937
1
1
1
1
1
1
1
1
1
1
1
1
1
0.833534
0.637791
0.529829
0.00314903
0.00307028
0.00301954
0.00299058
0.00297405
0.00296347
0.00295416
0.00294285
0.0029249
0.00289993
0.00288317
0.00294164
0.00275833
0.00220747
0.000221436
0.00019679
0.000454042
0.00499233
0.00318626
0.0146616
0.0387025
0.0752078
0.122463
0.178882
0.242286
0.310153
0.379757
0.447923
0.510527
0.562558
0.598707
0.614713
0.608022
0.58102
0.535125
0.474339
0.410204
0.352676
0.305625
0.267893
0.245676
0.00271784
0.00266042
0.00262417
0.00260589
0.0025993
0.00259981
0.00260382
0.0026083
0.00261121
0.0026101
0.00260014
0.0026031
0.00262511
0.00263311
0.00238669
0.0015748
0.000474892
0.000132395
0.000494157
0.00449564
0.00848423
0.00731995
0.0147464
0.0281425
0.0452129
0.0638541
0.0825655
0.100042
0.115163
0.127018
0.134942
0.138567
0.13784
0.133131
0.125048
0.115004
0.105073
0.0968842
0.0906608
0.0856322
0.0817807
0.00234334
0.00230166
0.00227629
0.0022655
0.00226504
0.00227166
0.00228266
0.00229573
0.00230916
0.00232173
0.00233138
0.00233683
0.00234454
0.00236137
0.00239937
0.00236992
0.002131
0.00133475
0.000423385
0.000139832
7.04926e-06
0.00224634
0.00560325
0.00820691
0.00557685
0.00806946
0.00945365
0.00936172
0.00848776
0.00970734
0.0129266
0.0160945
0.0188223
0.0210184
0.0225921
0.0235175
0.0237255
0.02324
0.0220904
0.0204534
0.0184503
0.00202972
0.00199946
0.00198223
0.00197688
0.00198046
0.00199054
0.00200506
0.00202221
0.00204057
0.00205947
0.00207757
0.00209396
0.00210853
0.00212081
0.0021399
0.00216989
0.00220636
0.00218021
0.00194839
0.00138618
7.06112e-05
0.000161748
9.19967e-05
2.51074e-06
0.000873437
0.0022531
0.00394761
0.00526759
0.00623406
0.00693183
0.00745502
0.000722266
0.00242805
0.00350494
0.00474855
0.00369897
0.00215622
0.00204579
0.00194568
0.00166132
0.00113984
0.00177454
0.00175241
0.00174096
0.0017393
0.00174537
0.00175737
0.00177364
0.0017928
0.00181377
0.00183553
0.00185737
0.00187843
0.00189846
0.00191721
0.00193474
0.00195221
0.00197739
0.00201299
0.00205047
0.00203678
0.00186835
0.00152392
0.000959768
2.70435e-05
0.00015164
0.000125226
0.000102287
8.0057e-05
6.04627e-05
4.50375e-05
3.46011e-05
8.00712e-05
0.000198108
0.000277798
0.000382298
0.000286618
0.000183062
0.0001812
0.000178604
0.000167092
0.000142952
0.00156621
0.00154979
0.00154225
0.00154288
0.00155021
0.00156291
0.00157961
0.00159916
0.00162075
0.00164348
0.00166693
0.00169019
0.00171274
0.0017345
0.00175541
0.00177527
0.00179444
0.00181516
0.00184352
0.00187937
0.00191973
0.00192897
0.00189244
0.00178453
0.00161968
0.00140815
0.0011755
0.000940567
0.000725882
0.000551995
0.000432436
0.000370422
0.000364381
0.000406501
0.000487156
0.000614245
0.000741502
0.000866077
0.00098722
0.00110662
0.00121394
0.00139234
0.00137994
0.00137514
0.00137721
0.00138514
0.00139791
0.00141435
0.0014335
0.00145455
0.00147712
0.00150038
0.00152407
0.0015474
0.00157009
0.0015921
0.0016135
0.00163404
0.00165377
0.00167341
0.00169481
0.00172156
0.00175347
0.00178777
0.00182004
0.00184222
0.00185038
0.00184512
0.00183045
0.00181124
0.00179269
0.0017786
0.00177152
0.00177291
0.00178245
0.00179947
0.00182268
0.00185002
0.00187816
0.0019068
0.00193342
0.00195939
0.00124502
0.00123557
0.00123274
0.00123576
0.00124391
0.00125638
0.00127221
0.00129052
0.00131064
0.00133214
0.00135444
0.00137746
0.00140043
0.00142286
0.00144465
0.00146584
0.00148641
0.00150623
0.00152531
0.00154374
0.00156279
0.00158343
0.00160533
0.00162851
0.00165282
0.00167741
0.00170116
0.00172333
0.00174347
0.00176152
0.00177743
0.00179142
0.00180352
0.00181388
0.00182262
0.00182977
0.00183535
0.0018388
0.00184085
0.00183889
0.0018407
0.00111854
0.00111133
0.00110994
0.00111356
0.00112168
0.00113367
0.00114869
0.00116595
0.00118488
0.00120499
0.00122611
0.00124778
0.00126971
0.00129124
0.00131215
0.0013324
0.00135202
0.0013709
0.00138901
0.00140626
0.00142345
0.00144098
0.00145791
0.0014739
0.00148921
0.00150402
0.00151834
0.00153204
0.00154494
0.00155679
0.00156741
0.00157659
0.00158416
0.00158999
0.00159411
0.00159638
0.00159694
0.00159538
0.00159277
0.00158563
0.00158542
0.00100885
0.00100336
0.00100302
0.00100704
0.00101501
0.00102643
0.00104057
0.00105672
0.00107439
0.00109309
0.00111269
0.00113276
0.00115329
0.00117359
0.00119327
0.00121225
0.00123052
0.00124803
0.00126469
0.00128039
0.00129577
0.00131127
0.00132595
0.00133937
0.00135158
0.00136268
0.0013727
0.00138161
0.00138943
0.00139611
0.00140165
0.00140592
0.00140894
0.0014106
0.00141095
0.00140994
0.00140767
0.00140365
0.00139923
0.00139014
0.0013909
0.000912846
0.000908747
0.000909221
0.000913481
0.000921232
0.000932051
0.00094529
0.000960334
0.000976715
0.000994032
0.001012
0.00103052
0.00104946
0.00106832
0.00108662
0.00110417
0.00112097
0.00113698
0.00115207
0.00116613
0.00117969
0.00119319
0.00120583
0.00121718
0.00122731
0.00123626
0.00124408
0.00125072
0.00125623
0.00126055
0.00126374
0.00126575
0.00126663
0.00126632
0.00126492
0.00126246
0.00125902
0.00125419
0.00124943
0.00123978
0.00124268
0.000828258
0.000825259
0.000826366
0.000830797
0.000838293
0.000848521
0.000860889
0.000874865
0.000890005
0.000905982
0.000922454
0.000939444
0.00095669
0.000974026
0.000990891
0.00100702
0.00102234
0.00103684
0.00105041
0.0010629
0.0010748
0.00108653
0.00109737
0.00110695
0.00111536
0.00112263
0.00112882
0.00113391
0.00113793
0.0011409
0.00114283
0.00114378
0.00114371
0.00114265
0.00114071
0.00113798
0.00113447
0.00112981
0.00112559
0.00111623
0.00112193
0.00075322
0.000751176
0.00075279
0.000757308
0.000764547
0.000774209
0.000785763
0.00079873
0.000812714
0.000827426
0.000842545
0.00085802
0.000873687
0.000889527
0.000904994
0.000919746
0.000933674
0.000946756
0.000958917
0.000970001
0.000980448
0.000990678
0.00100004
0.00100824
0.00101532
0.00102136
0.0010264
0.00103046
0.00103354
0.00103572
0.001037
0.00103747
0.00103708
0.00103591
0.00103404
0.00103159
0.00102855
0.00102456
0.00102132
0.00101268
0.00102137
0.000686351
0.00068508
0.000687117
0.000691699
0.000698685
0.000707818
0.00071862
0.000730653
0.000743571
0.000757107
0.00077099
0.000785068
0.000799341
0.000813732
0.000827846
0.00084131
0.000853957
0.000865762
0.00087666
0.000886516
0.000895728
0.000904726
0.000912907
0.000920039
0.000926143
0.000931331
0.000935607
0.000939027
0.000941609
0.000943428
0.000944498
0.000944889
0.000944603
0.000943689
0.000942265
0.000940412
0.000938127
0.000935019
0.000932924
0.00092514
0.000936702
0.000626447
0.00062589
0.000628265
0.000632868
0.000639624
0.000648269
0.000658381
0.000669558
0.000681503
0.000693961
0.00070671
0.000719553
0.000732553
0.000745576
0.000758432
0.000770719
0.000782224
0.000792899
0.000802703
0.000811508
0.000819704
0.0008277
0.000834962
0.000841281
0.000846699
0.000851298
0.000855119
0.000858199
0.000860591
0.000862325
0.000863457
0.000864036
0.000864089
0.00086364
0.000862819
0.000861689
0.000860244
0.000858075
0.000857102
0.000850178
0.000864309
0.000572588
0.000572637
0.000575314
0.000579939
0.000586462
0.000594665
0.000604157
0.000614565
0.000625628
0.000637115
0.000648837
0.0006606
0.000672428
0.000684217
0.000695925
0.000707144
0.000717633
0.00072732
0.000736185
0.000744109
0.000751478
0.000758671
0.000765219
0.000770929
0.000775867
0.000780093
0.000783663
0.000786603
0.000788977
0.000790809
0.000792159
0.000793073
0.000793569
0.000793667
0.000793484
0.000793076
0.000792422
0.00079111
0.000791099
0.000784902
0.00080111
0.000523967
0.000524591
0.000527506
0.000532151
0.000538475
0.000546285
0.000555219
0.000564939
0.000575209
0.000585828
0.000596627
0.000607438
0.000618211
0.000628925
0.000639597
0.000649851
0.000659449
0.000668286
0.000676353
0.000683538
0.000690236
0.000696785
0.000702783
0.000708048
0.000712651
0.00071665
0.000720106
0.000723041
0.000725505
0.000727534
0.000729173
0.000730464
0.000731409
0.000732032
0.000732431
0.000732666
0.000732693
0.000732117
0.000732904
0.000727374
0.000745155
0.000479934
0.000481072
0.000484243
0.000488912
0.000495046
0.000502509
0.000510939
0.000520042
0.000529599
0.000539442
0.000549411
0.000559371
0.000569223
0.000579025
0.000588741
0.000598125
0.00060693
0.00061504
0.000622436
0.000629028
0.000635182
0.000641233
0.000646801
0.000651752
0.000656128
0.00066
0.000663416
0.000666411
0.000669009
0.000671252
0.000673171
0.000674817
0.00067617
0.000677265
0.00067818
0.000678977
0.000679597
0.000679665
0.000681114
0.000676183
0.000695059
0.00043997
0.00044159
0.000444974
0.000449676
0.000455655
0.000462789
0.000470768
0.000479321
0.000488245
0.000497396
0.000506624
0.000515822
0.000524876
0.000533857
0.000542713
0.000551323
0.000559428
0.000566907
0.000573731
0.000579834
0.000585545
0.000591193
0.000596421
0.000601128
0.000605349
0.000609157
0.000612578
0.000615652
0.000618398
0.000620859
0.000623051
0.000625018
0.000626735
0.000628234
0.000629577
0.000630814
0.000631889
0.000632435
0.000634337
0.000629834
0.000649194
0.000403586
0.000405649
0.000409263
0.000413981
0.000419828
0.000426672
0.000434257
0.000442323
0.00045069
0.000459223
0.000467796
0.000476314
0.000484671
0.000492914
0.000501017
0.000508939
0.000516418
0.000523342
0.000529666
0.000535353
0.000540694
0.000545996
0.000550937
0.000555434
0.000559515
0.000563254
0.000566675
0.000569802
0.00057266
0.00057528
0.000577675
0.000579872
0.000581853
0.000583637
0.000585278
0.000586807
0.000588185
0.000589046
0.000591215
0.000587024
0.000606241
0.000370413
0.000372887
0.000376675
0.000381445
0.000387173
0.000393778
0.000401018
0.000408655
0.000416527
0.000424509
0.000432501
0.000440411
0.000448157
0.000455743
0.000463182
0.000470481
0.000477407
0.000483838
0.000489737
0.00049507
0.000500114
0.000505125
0.000509838
0.000514172
0.00051816
0.000521852
0.000525279
0.000528454
0.000531401
0.000534135
0.000536674
0.000539034
0.000541202
0.000543179
0.00054502
0.000546738
0.00054831
0.000549369
0.000551646
0.000547756
0.000566152
0.000340098
0.000342948
0.000346913
0.000351714
0.000357364
0.000363756
0.000370696
0.000377956
0.000385384
0.000392878
0.000400345
0.000407716
0.000414914
0.000421917
0.000428766
0.000435497
0.000441903
0.000447872
0.000453369
0.000458356
0.000463084
0.000467782
0.000472229
0.000476354
0.000480189
0.000483773
0.000487129
0.000490277
0.000493228
0.000495996
0.000498583
0.000501002
0.000503233
0.000505279
0.000507179
0.000508938
0.000510541
0.000511642
0.000513838
0.000510164
0.000527125
0.000312383
0.000315557
0.00031966
0.000324506
0.000330083
0.000336298
0.000342973
0.000349899
0.000356934
0.000363986
0.000370983
0.000377858
0.000384562
0.000391054
0.000397398
0.000403604
0.000409544
0.000415102
0.000420246
0.000424948
0.000429428
0.000433869
0.000438103
0.00044206
0.000445765
0.000449256
0.000452551
0.000455653
0.000458573
0.000461312
0.000463876
0.000466261
0.00046846
0.000470465
0.00047231
0.000473981
0.000475489
0.000476495
0.000478452
0.000474933
0.000489612
0.000286999
0.000290463
0.000294681
0.000299556
0.000305059
0.000311118
0.000317547
0.00032418
0.000330868
0.000337526
0.000344088
0.000350509
0.000356748
0.000362765
0.000368624
0.000374324
0.00037979
0.000384913
0.000389668
0.000394031
0.00039819
0.000402304
0.000406238
0.000409936
0.000413415
0.000416699
0.000419802
0.000422722
0.000425469
0.000428037
0.00043043
0.000432643
0.000434668
0.000436489
0.000438128
0.000439569
0.000440833
0.000441597
0.000443159
0.000439708
0.000451531
0.000263737
0.000267424
0.000271738
0.000276646
0.000282091
0.000287977
0.000294169
0.000300509
0.000306868
0.000313169
0.000319342
0.000325354
0.000331166
0.000336763
0.000342197
0.000347486
0.000352576
0.000357373
0.000361834
0.000365954
0.000369873
0.000373724
0.000377411
0.000380885
0.000384155
0.000387243
0.000390154
0.000392889
0.000395445
0.000397822
0.000400015
0.000402023
0.000403827
0.000405417
0.000406803
0.000407969
0.000408943
0.000409426
0.00041056
0.000407189
0.000415342
0.000242367
0.00024622
0.000250603
0.000255527
0.000260926
0.00026668
0.000272636
0.000278679
0.000284691
0.000290609
0.000296398
0.000302025
0.000307446
0.000312618
0.000317569
0.000322333
0.00032691
0.000331232
0.000335263
0.000338998
0.000342532
0.000345962
0.000349236
0.000352312
0.000355199
0.000357904
0.000360434
0.000362783
0.000364947
0.000366918
0.000368693
0.000370263
0.000371611
0.000372726
0.000373615
0.000374247
0.000374679
0.000374611
0.00037508
0.000371454
0.000375482
0.000222806
0.000226729
0.000231098
0.000235964
0.000241235
0.000246823
0.00025259
0.000258409
0.000264144
0.000269705
0.000275082
0.000280287
0.000285334
0.000290208
0.00029491
0.000299411
0.000303679
0.00030766
0.000311351
0.000314776
0.000318009
0.000321109
0.000324068
0.000326844
0.00032944
0.000331861
0.000334102
0.000336154
0.00033801
0.000339664
0.000341103
0.000342318
0.000343298
0.000344037
0.000344536
0.000344764
0.000344799
0.000344351
0.000344338
0.000340787
0.000340344
0.000204965
0.000208934
0.000213232
0.000217889
0.000222866
0.000228071
0.000233494
0.000239045
0.000244606
0.000250023
0.000255189
0.000260034
0.000264562
0.000268816
0.000272896
0.000276869
0.000280733
0.000284383
0.000287754
0.000290835
0.000293649
0.000296235
0.000298623
0.000300794
0.00030275
0.0003045
0.000306039
0.000307365
0.00030847
0.00030935
0.000309989
0.000310379
0.000310514
0.000310392
0.000310011
0.000309333
0.000308488
0.000307138
0.000306286
0.000301877
0.00029707
0.000188562
0.0001925
0.000196761
0.000201293
0.000205939
0.00021067
0.000215491
0.000220418
0.000225434
0.000230518
0.000235608
0.000240586
0.000245289
0.000249561
0.000253333
0.000256633
0.000259623
0.00026243
0.0002651
0.000267647
0.00027004
0.00027228
0.000274384
0.000276314
0.000278046
0.000279566
0.000280862
0.000281924
0.000282743
0.000283306
0.000283607
0.000283637
0.000283404
0.000282907
0.000282162
0.000281139
0.000280001
0.000278422
0.000277387
0.000273162
0.00026561
0.000173288
0.000176943
0.000180969
0.000185341
0.000189918
0.000194609
0.000199282
0.000203787
0.000208059
0.000212117
0.000216073
0.000220099
0.000224332
0.000228818
0.000233476
0.000238012
0.000242023
0.000245366
0.000248068
0.000250256
0.000251987
0.000253296
0.000254311
0.000255041
0.000255503
0.000255702
0.000255641
0.000255314
0.000254722
0.000253857
0.000252718
0.000251305
0.000249639
0.00024774
0.000245654
0.000243375
0.000241196
0.000238628
0.000237599
0.000231234
0.000229205
0.000159601
0.000162635
0.000165745
0.000169088
0.000172844
0.000177196
0.000182109
0.000187375
0.000192625
0.00019745
0.000201478
0.000204487
0.000206463
0.000207597
0.000208244
0.000209035
0.000210591
0.000212719
0.000215084
0.000217438
0.000219594
0.000221477
0.000223076
0.000224354
0.00022528
0.000225833
0.000226006
0.00022579
0.000225184
0.000224189
0.000222815
0.000221073
0.000219006
0.000216663
0.000214127
0.000211457
0.000209003
0.000206469
0.00020572
0.000200313
0.000202399
0.000148062
0.000150882
0.000153193
0.000155032
0.000156642
0.000158417
0.000160712
0.000163851
0.000168142
0.000173753
0.000180639
0.000188468
0.000196745
0.000204885
0.000212467
0.000218409
0.000221888
0.000223883
0.000224899
0.000225257
0.000225013
0.000224239
0.000223082
0.0002216
0.00021981
0.000217742
0.000215397
0.000212808
0.000210002
0.000207037
0.000203978
0.00020095
0.00019813
0.000195775
0.00019423
0.000193808
0.000195215
0.00019755
0.000205556
0.000200808
0.000243857
0.000138372
0.000141568
0.000144384
0.000146526
0.00014774
0.000147991
0.00014744
0.000146374
0.00014529
0.000144673
0.000144885
0.000146009
0.000147799
0.000149759
0.00015119
0.000153129
0.000156162
0.000159765
0.000163618
0.000167338
0.000170707
0.00017358
0.000175896
0.00017761
0.000178635
0.000178914
0.000178393
0.000177026
0.000174746
0.000171484
0.000167148
0.00016164
0.000154848
0.000146664
0.000136991
0.000125958
0.000114386
0.000105019
0.000106636
0.000102503
0.000163391
0.000129507
0.000129802
0.000133328
0.000142964
0.000157536
0.000173916
0.000189716
0.000203705
0.000215367
0.000224596
0.000231477
0.000236217
0.000239102
0.000240412
0.00024063
0.000238775
0.00023579
0.000233012
0.000230693
0.000228788
0.000227163
0.000226256
0.000225595
0.000225122
0.000224744
0.00022439
0.000224045
0.000223712
0.000223446
0.000223325
0.000223499
0.000224161
0.000225574
0.000228017
0.000231835
0.000237243
0.000244642
0.000253193
0.000266831
0.000268603
0.000324385
0.497683
0.307329
0.178506
0.0628371
0.0138755
0.00280042
0.00117549
0.00207003
0.00660442
0.0564541
0.106953
0.0557558
0.12944
0.17506
0.189504
0.187548
0.178565
0.167897
0.158718
0.152399
0.149513
0.149724
0.152265
0.156073
0.160033
0.162976
0.163757
0.160896
0.152748
0.137748
0.115248
0.0859609
0.0526372
0.0223224
0.00379678
4.87402e-05
7.4197e-05
0.000957728
0.00180206
0.00191185
0.00174574
0.00158838
0.0014666
0.00134617
0.00121467
0.0010777
0.000937487
0.000799631
0.000676641
0.000583632
0.000531411
0.00053615
0.000559031
0.000585432
0.00060419
0.000615702
0.000619693
0.000619453
0.000612562
0.000604382
0.000590496
0.000578172
0.000561724
0.000544662
0.000528438
0.0005091
0.000493294
0.000474888
0.000457902
0.000440282
0.00042436
0.000407191
0.000392447
0.000378652
0.932257
0.511188
0.308454
0.155584
0.0399352
0.00733194
0.000570438
0.000499103
0.00941855
0.064564
0.0936829
0.0628885
0.129523
0.154836
0.15715
0.148592
0.136685
0.124449
0.112647
0.100484
0.0886685
0.0815872
0.0862257
0.099535
0.114369
0.127541
0.137828
0.144214
0.145469
0.139994
0.126268
0.103519
0.0729079
0.0394977
0.0132826
0.00218719
1.16837e-06
7.30811e-05
0.00133641
0.00180061
0.00172008
0.00154564
0.00140639
0.00128291
0.00115562
0.00102653
0.000894153
0.000766915
0.000657619
0.000579214
0.000535463
0.000538958
0.000555977
0.000577299
0.000591825
0.000601289
0.000603507
0.000602421
0.00059502
0.00058705
0.000573296
0.000561396
0.000545904
0.000528994
0.000513827
0.000495002
0.000479824
0.000462384
0.000445907
0.000428766
0.000413573
0.000396837
0.00038265
0.000369554
1
0.79413
0.468009
0.271375
0.117452
0.025649
0.0106603
0
0.0113677
0.063945
0.0758666
0.0784482
0.131695
0.153706
0.16197
0.16562
0.167687
0.167592
0.164382
0.157435
0.146541
0.131472
0.111626
0.085352
0.0492874
0.0640077
0.0937256
0.113644
0.126269
0.131759
0.129133
0.116774
0.0935368
0.0613101
0.0286307
0.00706776
0.000733376
2.61489e-05
0.000574651
0.00148857
0.00165137
0.00150416
0.00134679
0.00121779
0.00109707
0.000979425
0.000859479
0.000749916
0.000659173
0.000595343
0.000558266
0.000554342
0.000561247
0.000573654
0.000582632
0.000586863
0.00058709
0.000583861
0.000576206
0.000567406
0.000554706
0.000541834
0.000527752
0.000511503
0.000496748
0.000479373
0.000463903
0.000447915
0.00043206
0.000415732
0.00040101
0.000385055
0.000371529
0.000359219
1
1
0.701688
0.415935
0.225514
0.082973
0.0188699
0.00624592
0.0124509
0.0602223
0.0651922
0.0872014
0.140195
0.168694
0.185916
0.197498
0.20516
0.208871
0.20846
0.203931
0.195488
0.183334
0.167553
0.147977
0.123957
0.0936126
0.0490928
0.0601436
0.0931633
0.112054
0.12151
0.121517
0.110288
0.0861337
0.0521062
0.0207169
0.00315252
5.19186e-05
0.000144279
0.000957071
0.00147572
0.0014599
0.00130234
0.00116236
0.00104613
0.000939814
0.000833489
0.000741283
0.000666025
0.000611145
0.000577487
0.000566607
0.000564719
0.000568855
0.000572278
0.000571966
0.000569947
0.000564793
0.000556792
0.00054731
0.000535404
0.000522159
0.000509192
0.000493803
0.000479501
0.000463474
0.000448116
0.000433326
0.000418204
0.000402704
0.000388571
0.000373322
0.000360579
0.000349049
1
1
1
0.626265
0.363413
0.182629
0.0589108
0.0119725
0.0131635
0.054641
0.0585827
0.0891292
0.143723
0.177949
0.201284
0.217922
0.229517
0.23648
0.238922
0.237008
0.231035
0.221324
0.208157
0.191693
0.171918
0.14853
0.120642
0.0855053
0.0250762
0.0719843
0.0988256
0.112557
0.115268
0.105225
0.0802578
0.0450952
0.0155468
1.09848e-05
7.18832e-05
1.24255e-05
0.00104541
0.00135725
0.00127006
0.00112319
0.00100552
0.000908023
0.000814742
0.000736455
0.00067239
0.000622547
0.000590182
0.000573536
0.000564642
0.000561719
0.000559644
0.000556293
0.000551765
0.000545245
0.000536704
0.000527009
0.000515447
0.000502627
0.000490565
0.000476061
0.000462459
0.000447503
0.000432775
0.000418961
0.000404647
0.000389923
0.00037655
0.000361904
0.000350033
0.000339264
1
1
1
1
0.562216
0.316793
0.149271
0.0438386
0.0175847
0.0482414
0.0555026
0.0862085
0.141213
0.179158
0.206849
0.227586
0.242943
0.253471
0.259335
0.260679
0.25776
0.250901
0.240455
0.226717
0.209889
0.190037
0.167028
0.140331
0.108546
0.0667844
0.0450728
0.0850537
0.103767
0.109385
0.100635
0.075355
0.040171
0.0125356
0.000401198
1.55257e-05
0.00020961
0.00103755
0.0012046
0.00109986
0.000980362
0.000887349
0.000805312
0.00073818
0.000682056
0.000635732
0.00060245
0.000580501
0.00056507
0.000555555
0.000547981
0.000541416
0.000534127
0.000526167
0.000516896
0.000507029
0.000495691
0.000483438
0.000472205
0.000458537
0.000445731
0.00043179
0.000417861
0.000404956
0.000391445
0.00037747
0.000364942
0.000350866
0.000339915
0.000329859
0.674925
1
1
1
0.935124
0.510348
0.281039
0.125294
0.026091
0.038452
0.0564127
0.0809021
0.132965
0.172269
0.202821
0.226997
0.246063
0.260492
0.270365
0.275693
0.276596
0.273305
0.266157
0.255502
0.241645
0.224819
0.205141
0.182553
0.156748
0.126879
0.0904898
0.0349712
0.0688514
0.0942169
0.103081
0.0958412
0.0710578
0.0369497
0.0115411
0.00383714
8.3188e-05
0.00038049
0.000969321
0.00106096
0.000971572
0.000880748
0.000805891
0.00074704
0.000696728
0.000652835
0.000617633
0.000590649
0.000569049
0.000553032
0.000539945
0.000529186
0.00051876
0.000508789
0.000498468
0.000488089
0.000476903
0.000464958
0.000454441
0.000441547
0.000429467
0.000416573
0.000403423
0.000391406
0.000378688
0.000365445
0.000353776
0.000340262
0.000330276
0.000320859
0.47056
0.717506
1
1
1
0.871729
0.473137
0.255016
0.101959
0.0485764
0.0646463
0.0864227
0.124452
0.160111
0.190793
0.216915
0.239031
0.257255
0.27143
0.281335
0.286842
0.287985
0.284978
0.278138
0.267803
0.254294
0.237855
0.21863
0.196635
0.171679
0.143184
0.109698
0.0663911
0.0466093
0.0829232
0.0957495
0.0904483
0.0670308
0.0349295
0.0112334
0.000144854
0.00034175
0.000370993
0.000877694
0.000953942
0.000887519
0.000816211
0.000761474
0.000715053
0.000672536
0.000635443
0.00060413
0.000577174
0.000554941
0.000536381
0.00052077
0.00050668
0.000494044
0.000482183
0.000470803
0.000459461
0.000447493
0.000437471
0.000425297
0.000413823
0.000401909
0.000389513
0.000378347
0.000366433
0.000353906
0.000343108
0.000330117
0.000321146
0.000312287
0.327231
0.460785
0.702663
1
1
1
0.831268
0.447908
0.233206
0.114758
0.100657
0.111101
0.128809
0.1513
0.175762
0.199934
0.222788
0.243552
0.261533
0.276095
0.286735
0.293139
0.295258
0.293241
0.287355
0.277934
0.265281
0.249656
0.231233
0.21006
0.186005
0.158679
0.127166
0.088877
0.0313135
0.0686119
0.086938
0.0842114
0.0630381
0.0335757
0.0116863
0.00136325
0.000714347
0.00036159
0.000803541
0.000884162
0.000835003
0.000781171
0.000735815
0.000693626
0.000654986
0.00062026
0.000588889
0.000561161
0.000537337
0.000516763
0.000498581
0.000482679
0.000468686
0.000455748
0.000443778
0.000431408
0.000421543
0.000409949
0.000398936
0.000387864
0.000376181
0.000365806
0.000354699
0.000342867
0.00033295
0.000320439
0.000312534
0.00030415
0.214256
0.304926
0.426044
0.637282
1
1
1
0.805957
0.429532
0.2397
0.168265
0.15453
0.15254
0.156822
0.167404
0.182683
0.201058
0.220808
0.240383
0.258459
0.273946
0.285999
0.294097
0.298024
0.297805
0.293656
0.285843
0.274671
0.260397
0.243205
0.223152
0.200165
0.173971
0.143868
0.108317
0.0624118
0.0487261
0.0761614
0.0770536
0.0588675
0.0324978
0.0123027
0.00268328
0.00125894
0.000425925
0.000752132
0.000839259
0.000805757
0.000759924
0.000716167
0.00067603
0.00063835
0.000603558
0.000571107
0.000542635
0.000517217
0.000494939
0.000475317
0.000458567
0.000443498
0.000430299
0.000417121
0.000406956
0.000395652
0.000384918
0.000374529
0.000363497
0.000353822
0.00034348
0.000332309
0.000323285
0.000311221
0.00030443
0.000296435
0.197561
0.247507
0.299098
0.39611
0.579825
1
1
1
0.77858
0.430219
0.281347
0.222585
0.195626
0.179845
0.172932
0.173979
0.181514
0.194123
0.210318
0.228392
0.246628
0.263462
0.27765
0.288339
0.295052
0.29765
0.296191
0.290892
0.282011
0.269795
0.254405
0.235923
0.214295