/*--------------------------------*- C++ -*----------------------------------*\
| =========                 |                                                 |
| \\      /  F ield         | OpenFOAM: The Open Source CFD Toolbox           |
|  \\    /   O peration     | Version:  2312                                  |
|   \\  /    A nd           | Website:  www.openfoam.com                      |
|    \\/     M anipulation  |                                                 |
\*---------------------------------------------------------------------------*/
FoamFile
{
    version     2.0;
    format      ascii;
    arch        "LSB;label=32;scalar=64";
    class       volScalarField;
    location    "150";
    object      turbulenceProperties:L;
}
// * * * * * * * * * * * * * * * * * * * * * * * * * * * * * * * * * * * * * //

dimensions      [0 1 0 0 0 0 0];

internalField   nonuniform List<scalar> 
11040
(
0.000423578
0.000538196
0.00105167
0.00140579
0.00126519
0.00126027
0.00125385
0.00125914
0.00126657
0.00127798
0.00128962
0.00129418
0.00129095
0.00128132
0.00126625
0.00124881
0.00123018
0.00121221
0.00119571
0.00118204
0.0011722
0.00116706
0.00116587
0.00116655
0.00116849
0.00117142
0.00117486
0.00117875
0.00118367
0.00119196
0.00120652
0.00122414
0.00124476
0.0012693
0.0012988
0.00133815
0.00139408
0.00147255
0.00156825
0.00190901
0.00306406
0.00101013
0.000792046
0.000709629
0.00214074
0.00446186
0.0106566
0.00963769
0.00776862
0.00656012
0.00588087
0.00550586
0.00524121
0.00501181
0.00482634
0.00466258
0.00452955
0.00442606
0.004361
0.00433408
0.00433876
0.00437427
0.00441999
0.00446182
0.0045047
0.00456807
0.00468171
0.00480989
0.00501436
0.00526663
0.00572412
0.00661268
0.0080302
0.00989275
0.0117433
0.0122174
0.0116473
0.0106116
0.00964735
0.00903648
0.00946785
0.0100604
0.00135823
0.00259995
0.000833295
0.00137486
0.00298867
0.00570421
0.010361
0.0182975
0.0246207
0.0169386
0.013844
0.012212
0.0111883
0.0106302
0.0103054
0.0102263
0.0103278
0.0106129
0.0110703
0.0117098
0.0125129
0.0133658
0.0142495
0.0151846
0.0158882
0.0161313
0.0158703
0.0156059
0.0155183
0.0161573
0.0175948
0.0203367
0.0234343
0.023122
0.0199337
0.0171807
0.0151562
0.0136745
0.0127045
0.0127351
0.0149437
0.00166989
0.00161297
0.00310429
0.00112646
0.0020118
0.00378578
0.00653362
0.0111537
0.0149963
0.0170963
0.0187762
0.0193981
0.0193297
0.0190504
0.0184921
0.0180932
0.0176627
0.0172631
0.0168141
0.0164672
0.0162451
0.0161189
0.0159447
0.0157481
0.0157101
0.0158087
0.0161377
0.0167793
0.0178063
0.0194067
0.0217293
0.0251371
0.0296034
0.032576
0.029502
0.0247466
0.0211886
0.0187405
0.0172066
0.0170707
0.0205948
0.00190084
0.00180401
0.00225221
0.00390468
0.00152289
0.00258786
0.00446335
0.0073513
0.0122696
0.0156613
0.0177484
0.0184816
0.0188894
0.0192787
0.0193341
0.0193564
0.0192847
0.0191769
0.0189961
0.0188988
0.0189269
0.0190767
0.0192053
0.0193319
0.0196226
0.0200395
0.020723
0.0217357
0.0232193
0.0253217
0.0283169
0.0327229
0.0392135
0.0452286
0.0405876
0.0328536
0.0275101
0.0240386
0.0219652
0.0217671
0.0262714
0.00220124
0.00223676
0.0020399
0.00399159
0.00683443
0.0018937
0.00308628
0.00505377
0.0080588
0.0126324
0.0175487
0.0203986
0.0211009
0.0216607
0.021951
0.0223683
0.0226846
0.0229289
0.0230311
0.023196
0.0234744
0.0238775
0.0242405
0.0245916
0.0250957
0.0256937
0.0265308
0.027676
0.0293485
0.0317104
0.0351159
0.040201
0.0483434
0.0594665
0.0559128
0.0435303
0.035342
0.0302736
0.0273843
0.0271164
0.0322853
0.00253161
0.00261331
0.00248983
0.00239669
0.00940958
0.0475588
0.0021607
0.00351952
0.00549909
0.00859157
0.0126087
0.0187761
0.0227057
0.0246916
0.0251767
0.025741
0.0262402
0.0267855
0.0272443
0.0277601
0.0283644
0.0290869
0.0297468
0.0303972
0.0311807
0.0320375
0.0330748
0.0343475
0.0360524
0.0384192
0.041837
0.0469058
0.0550476
0.0689238
0.0766646
0.059573
0.0463035
0.0384265
0.0340428
0.0333978
0.0386176
0.00293711
0.00295413
0.00297526
0.00279625
0.00279956
0.030681
0.00471697
0.00235717
0.00387355
0.00583967
0.00882752
0.0127696
0.0181774
0.0244447
0.0277311
0.0290298
0.0296619
0.0303919
0.0311128
0.0319356
0.0328867
0.0339964
0.0350189
0.0360503
0.0371926
0.0383825
0.0397119
0.0412415
0.0431128
0.045532
0.0487966
0.0533861
0.0603607
0.0721928
0.0909164
0.0864288
0.0645234
0.0510083
0.043513
0.0415184
0.0455312
0.00338611
0.00339189
0.00336874
0.00338853
0.00307971
0.00329156
0.0245564
0.00569948
0.00266876
0.00409092
0.00608569
0.00881867
0.0127582
0.0174847
0.0239801
0.0298304
0.0326939
0.033809
0.0346074
0.0356194
0.0368585
0.0383412
0.0397329
0.041141
0.042627
0.0441118
0.0456538
0.0473454
0.0493046
0.0516859
0.0547182
0.0587607
0.064477
0.0732553
0.0878425
0.10689
0.0988875
0.0752878
0.0608268
0.0552181
0.0559168
0.0038941
0.0038927
0.00384688
0.00382207
0.00379403
0.00350612
0.00399253
0.0328676
0.0161724
0.00501771
0.00405004
0.00620418
0.00876816
0.0123505
0.0170612
0.0224695
0.0294407
0.035133
0.0378487
0.0390599
0.0402392
0.0418814
0.0435396
0.045307
0.0471584
0.0489009
0.0505969
0.052343
0.0542204
0.0563418
0.0588493
0.0619849
0.0660608
0.0716478
0.0795582
0.0902564
0.10347
0.110557
0.101871
0.0904666
0.0800276
0.00447218
0.0044627
0.00441365
0.00434311
0.00431982
0.00424234
0.00404347
0.00443805
0.0130228
0.0885208
0.00446654
0.00396134
0.00611081
0.00865924
0.0118431
0.0161913
0.0214877
0.0272913
0.0343163
0.0401949
0.0433453
0.0451934
0.0466681
0.0484905
0.0505506
0.0524766
0.0542953
0.0560603
0.0578225
0.059604
0.061505
0.0636608
0.0662336
0.0693769
0.0731067
0.0770489
0.0805791
0.0831975
0.0839638
0.0809676
0.0722981
0.0051324
0.00511744
0.00505861
0.00497811
0.00489803
0.00485108
0.0047789
0.00462212
0.00470998
0.00902955
0.0559523
0.0139751
0.00666778
0.00570682
0.00842567
0.0114324
0.0151861
0.0200762
0.0257095
0.0314763
0.0380894
0.0443929
0.0485268
0.051289
0.0534579
0.0552691
0.0569226
0.0585755
0.0601804
0.0616621
0.0630506
0.0644176
0.0658936
0.0675004
0.0690621
0.0700832
0.0698987
0.0681813
0.0645918
0.0588748
0.0515741
0.00589087
0.00586906
0.00580275
0.00570801
0.00560579
0.00551027
0.00543926
0.00537164
0.00520915
0.00523427
0.00659767
2.21626
0.494042
0.00523514
0.018625
0.00773897
0.0109569
0.0144204
0.0185677
0.0236427
0.0292954
0.0345639
0.0395238
0.0446537
0.0494718
0.0533427
0.0562174
0.0584222
0.0601364
0.0614547
0.0624355
0.0631971
0.063843
0.0645054
0.0650799
0.0649767
0.0636365
0.0610255
0.0572296
0.0520871
0.0459179
0.00676657
0.00673675
0.00666275
0.00655415
0.00643101
0.00630587
0.00618718
0.00609222
0.00600328
0.00588031
0.005743
0.00624424
0.0190131
0.0894792
0.305539
0.00473239
0.00583494
0.0101376
0.0137605
0.0175126
0.0217928
0.0264495
0.0311544
0.0354667
0.0391464
0.0423008
0.0451126
0.0476453
0.0498713
0.0517473
0.0532519
0.0544194
0.0553086
0.0560709
0.0567238
0.0568735
0.0561305
0.0544311
0.051677
0.0479572
0.0430805
0.00778356
0.00774428
0.00766081
0.00753804
0.00739316
0.0072392
0.00708594
0.00693985
0.00681133
0.00670242
0.00658321
0.00632423
0.00655235
0.00818084
0.230274
0.268259
0.0725743
0.00500164
0.00590818
0.0132521
0.0171218
0.0206838
0.0242352
0.0277488
0.0311512
0.0343307
0.0371722
0.0396066
0.0416388
0.0433202
0.0447236
0.0459132
0.0469733
0.0479399
0.0486425
0.048889
0.0486427
0.0476337
0.0455451
0.0424962
0.0381666
0.00897101
0.00892105
0.0088264
0.00868814
0.00852143
0.0083386
0.0081496
0.00796285
0.00778372
0.00761913
0.00748255
0.00731746
0.00711368
0.0069512
0.0074747
0.0122188
0.0699123
0.466429
0.0623331
0.00478725
0.00968764
0.0124477
0.0214696
0.0246294
0.0271019
0.0294574
0.0316707
0.033688
0.0354852
0.0370631
0.0384395
0.039637
0.0406847
0.0415675
0.0422603
0.0424717
0.0416578
0.0394283
0.0358485
0.0315558
0.027216
0.0103522
0.0102909
0.0101828
0.0100271
0.00983746
0.00962576
0.00940234
0.00917599
0.00895283
0.00873729
0.00853666
0.00835473
0.00817019
0.00796404
0.00770612
0.00764741
0.00833472
0.0148303
0.0798287
0.417047
28.5005
0.00707225
0.00550828
0.00863624
0.00731445
0.0134402
0.0223607
0.0352476
0.0531976
0.0576021
0.049523
0.0427032
0.0370572
0.0319404
0.0271381
0.022879
0.01918
0.0160252
0.013327
0.0110025
0.00908681
0.0118993
0.0118253
0.0117002
0.0115231
0.0113072
0.0110644
0.0108057
0.0105405
0.010276
0.0100151
0.00976455
0.00952771
0.00930431
0.00909594
0.00886784
0.00860963
0.00834302
0.00829465
0.00913277
0.0137401
1.13421
0.327555
0.761801
5.68375
0.0258861
0.00714471
0.00498641
0.00534855
0.00598565
0.00650047
0.00683557
0.0348612
0.0068097
0.00512827
0.00475961
0.00503762
0.00871823
0.009694
0.0108024
0.014059
0.0254187
0.0135624
0.0134741
0.0133297
0.0131293
0.012885
0.0126089
0.0123129
0.012007
0.0116984
0.0113937
0.0110974
0.0108141
0.0105445
0.0102894
0.0100479
0.00981485
0.00955619
0.00926652
0.00898695
0.00891792
0.00958166
0.0120277
0.0225905
4.69982
0.356546
0.478363
0.652774
0.950632
1.46271
2.30234
3.46756
1.00204
0.26256
0.161642
0.102606
0.162143
0.326433
0.341156
0.359104
0.409083
0.532619
0.0153235
0.0152212
0.0150579
0.0148346
0.0145625
0.0142537
0.0139212
0.0135759
0.0132254
0.0128773
0.0125352
0.0122057
0.011892
0.0115939
0.0113114
0.0110453
0.0107932
0.0105435
0.0102666
0.00997033
0.00967386
0.00953593
0.009625
0.0101437
0.0112592
0.0133789
0.0171002
0.023608
0.0348072
0.0528809
0.0771879
0.0988042
0.102963
0.0889821
0.0691804
0.0499423
0.0385502
0.0313132
0.0264137
0.022873
0.0204591
0.0171997
0.017085
0.0169028
0.0166564
0.0163562
0.0160142
0.0156449
0.0152603
0.0148699
0.0144784
0.0140946
0.0137209
0.0133639
0.0130253
0.012705
0.0124019
0.0121175
0.0118513
0.0115987
0.0113492
0.0110829
0.0108089
0.0105481
0.0103234
0.0101714
0.010106
0.0101241
0.0102101
0.0103435
0.0104976
0.0106483
0.010775
0.0108632
0.0109111
0.0109212
0.0109014
0.0108649
0.0108324
0.0108048
0.0107945
0.0107913
0.0192033
0.0190767
0.0188748
0.0186046
0.0182753
0.0178995
0.0174926
0.0170684
0.0166374
0.0162058
0.0157815
0.0153657
0.0149666
0.0145891
0.0142332
0.013898
0.0135832
0.0132894
0.0130167
0.0127645
0.0125229
0.012289
0.0120679
0.0118599
0.0116662
0.0114918
0.0113425
0.0112209
0.0111279
0.0110616
0.0110208
0.0110026
0.0110057
0.0110279
0.0110676
0.0111232
0.0111937
0.0112814
0.0113811
0.011508
0.0116114
0.0213489
0.0212103
0.0209878
0.0206927
0.0203332
0.0199225
0.019477
0.0190126
0.0185405
0.0180695
0.0176028
0.0171478
0.0167081
0.016292
0.0159013
0.0155356
0.0151935
0.014876
0.0145827
0.0143146
0.0140636
0.013829
0.0136205
0.01344
0.0132842
0.0131503
0.013037
0.0129442
0.0128721
0.012821
0.0127911
0.0127827
0.0127956
0.0128296
0.0128835
0.0129573
0.0130488
0.013161
0.0132846
0.0134484
0.013553
0.0236499
0.0234989
0.0232549
0.022933
0.0225415
0.0220939
0.0216084
0.0211023
0.0205879
0.0200756
0.0195689
0.0190758
0.0185964
0.0181415
0.0177162
0.0173203
0.0169526
0.016613
0.0163019
0.0160201
0.0157595
0.015517
0.0153039
0.0151237
0.0149739
0.0148521
0.0147564
0.0146856
0.014638
0.0146129
0.0146092
0.0146267
0.0146642
0.014722
0.0147985
0.0148936
0.0150055
0.015139
0.0152794
0.0154737
0.0155577
0.0261223
0.0259571
0.0256893
0.0253383
0.0249126
0.0244258
0.0238983
0.0233488
0.022791
0.0222359
0.0216906
0.0211576
0.0206398
0.0201466
0.0196863
0.0192603
0.0188672
0.0185064
0.0181784
0.0178845
0.0176155
0.0173668
0.0171496
0.016968
0.0168192
0.0167009
0.0166108
0.0165481
0.0165104
0.0164974
0.0165073
0.0165393
0.016592
0.0166655
0.0167577
0.0168675
0.0169934
0.0171411
0.01729
0.0175098
0.0175519
0.0287809
0.0286002
0.0283058
0.0279222
0.027459
0.0269301
0.0263581
0.0257628
0.0251598
0.0245602
0.023974
0.0234006
0.0228467
0.022316
0.0218202
0.0213633
0.0209447
0.0205629
0.0202184
0.0199127
0.0196355
0.0193804
0.0191593
0.0189762
0.0188283
0.0187125
0.0186266
0.018569
0.018538
0.0185321
0.0185498
0.0185894
0.0186506
0.0187321
0.018832
0.0189481
0.0190798
0.0192334
0.0193816
0.0196217
0.0195967
0.0316443
0.0314435
0.0311185
0.0306992
0.0301945
0.0296199
0.0289999
0.0283561
0.0277053
0.0270591
0.0264289
0.025816
0.0252252
0.0246565
0.0241243
0.0236355
0.0231904
0.0227873
0.0224258
0.0221079
0.0218219
0.0215592
0.0213326
0.0211462
0.020997
0.0208813
0.0207969
0.0207415
0.0207138
0.0207112
0.0207323
0.0207749
0.020839
0.0209226
0.0210234
0.0211387
0.0212685
0.0214203
0.0215579
0.0218129
0.0216951
0.0347287
0.0345051
0.0341444
0.033684
0.0331332
0.0325083
0.0318362
0.0311404
0.0304387
0.0297436
0.0290666
0.028413
0.027782
0.0271759
0.026607
0.0260848
0.0256118
0.0251859
0.0248064
0.0244751
0.0241789
0.0239064
0.0236721
0.0234794
0.0233258
0.0232066
0.0231197
0.0230624
0.0230328
0.0230281
0.0230468
0.0230866
0.0231466
0.0232252
0.0233192
0.0234259
0.0235454
0.0236874
0.0238049
0.024071
0.023836
0.0380566
0.0378018
0.0374002
0.0368938
0.0362905
0.0356101
0.034881
0.0341291
0.0333726
0.0326256
0.0318991
0.0312013
0.0305284
0.0298853
0.0292783
0.0287207
0.0282173
0.0277665
0.027367
0.0270203
0.0267112
0.0264262
0.0261805
0.0259782
0.0258159
0.025689
0.0255946
0.0255299
0.0254923
0.0254796
0.0254894
0.0255193
0.0255681
0.0256344
0.0257141
0.0258049
0.0259066
0.0260316
0.0261211
0.0263953
0.026021
0.0416485
0.0413564
0.0409053
0.0403452
0.0396837
0.038941
0.0381489
0.0373355
0.0365197
0.0357166
0.0349371
0.0341908
0.0334748
0.0327931
0.0321463
0.0315509
0.0310145
0.0305362
0.0301138
0.0297489
0.0294236
0.0291224
0.0288615
0.0286454
0.0284695
0.0283296
0.028222
0.0281441
0.0280925
0.0280652
0.0280592
0.0280721
0.0281026
0.0281497
0.0282086
0.0282771
0.0283555
0.0284587
0.0285154
0.0287985
0.0282691
0.0455309
0.0451889
0.0446812
0.0440582
0.0433293
0.0425164
0.0416542
0.0407729
0.0398925
0.0390283
0.0381916
0.0373921
0.0366308
0.0359069
0.035218
0.0345825
0.0340094
0.0335002
0.0330515
0.0326653
0.0323198
0.0319983
0.0317173
0.0314823
0.0312878
0.0311294
0.0310026
0.0309049
0.030833
0.0307842
0.0307559
0.0307454
0.0307521
0.0307743
0.0308077
0.0308494
0.0309007
0.0309783
0.0309985
0.0312894
0.0305925
0.0497313
0.0493272
0.0487477
0.0480507
0.0472458
0.0463529
0.0454127
0.0444563
0.0435052
0.0425743
0.0416759
0.0408187
0.0400075
0.0392357
0.0385038
0.0378256
0.0372127
0.0366681
0.0361887
0.0357759
0.0354057
0.0350583
0.0347523
0.0344922
0.0342735
0.0340904
0.0339387
0.033815
0.033717
0.0336413
0.0335856
0.0335465
0.0335245
0.0335172
0.0335204
0.0335306
0.0335504
0.0335982
0.0335779
0.0338759
0.0330028
0.0542773
0.053794
0.0531304
0.0523455
0.0514516
0.0504701
0.0494426
0.0484024
0.0473729
0.0463686
0.0454029
0.0444833
0.0436165
0.0427938
0.0420167
0.041292
0.0406354
0.040051
0.0395362
0.0390917
0.0386917
0.0383132
0.0379768
0.0376863
0.0374373
0.0372232
0.0370405
0.0368853
0.0367551
0.0366464
0.0365574
0.0364846
0.0364288
0.0363877
0.0363572
0.036334
0.036321
0.0363392
0.0362796
0.0365904
0.0355437
0.0592048
0.0586226
0.0578534
0.0569677
0.0559706
0.0548879
0.0537609
0.0526269
0.0515095
0.0504246
0.0493846
0.0483969
0.0474685
0.0465915
0.045765
0.04499
0.0442858
0.0436572
0.043103
0.0426219
0.0421868
0.0417726
0.041401
0.0410758
0.0407925
0.0405435
0.0403255
0.0401349
0.0399689
0.0398242
0.039699
0.0395905
0.0394993
0.0394237
0.0393593
0.0393037
0.0392593
0.0392502
0.0391541
0.0394839
0.0382746
0.0645472
0.063842
0.0629523
0.0619426
0.0608263
0.0596256
0.0583854
0.0571456
0.0559305
0.0547564
0.0536343
0.0525723
0.0515758
0.0506402
0.0497599
0.0489313
0.0481747
0.0474975
0.0468978
0.0463746
0.0458977
0.0454419
0.0450286
0.0446621
0.0443372
0.0440474
0.0437883
0.0435572
0.0433507
0.0431666
0.0430024
0.042856
0.0427277
0.0426167
0.0425183
0.042431
0.042356
0.0423217
0.0421937
0.0425426
0.0412007
0.0703471
0.0694908
0.0684539
0.0673015
0.0660425
0.0647068
0.0633372
0.0619774
0.0606537
0.0593805
0.058169
0.0570251
0.0559544
0.0549549
0.0540166
0.0531314
0.0523205
0.0515921
0.0509447
0.0503776
0.0498588
0.049362
0.0489076
0.0485003
0.0481345
0.047804
0.0475046
0.047233
0.0469865
0.0467628
0.0465606
0.0463778
0.0462155
0.0460727
0.0459453
0.0458321
0.0457342
0.0456824
0.0455329
0.0459094
0.0444708
0.0766413
0.0756052
0.074398
0.073075
0.0716515
0.0701583
0.0686409
0.0671458
0.0656998
0.0643176
0.0630076
0.0617757
0.0606245
0.0595542
0.0585497
0.0576057
0.0567358
0.0559509
0.0552498
0.0546308
0.0540614
0.0535161
0.053013
0.0525578
0.052145
0.0517681
0.0514229
0.0511075
0.0508193
0.0505568
0.0503182
0.0501031
0.0499112
0.0497427
0.0495932
0.0494636
0.0493521
0.0492938
0.0491371
0.049549
0.0481006
0.0834798
0.082227
0.0808207
0.0793004
0.0776883
0.0760135
0.0743302
0.0726803
0.0710963
0.0695921
0.0681756
0.0668491
0.065613
0.0644685
0.0633972
0.0623949
0.0614691
0.0606321
0.0598819
0.0592166
0.0586035
0.0580169
0.057473
0.0569773
0.0565247
0.0561099
0.055729
0.0553804
0.0550613
0.0547711
0.0545082
0.054272
0.0540628
0.0538813
0.0537243
0.053593
0.0534841
0.0534368
0.0532923
0.0537575
0.0523853
0.0909099
0.0894089
0.087769
0.0860157
0.0841822
0.082308
0.0804398
0.0786221
0.0768866
0.0752466
0.0737111
0.0722796
0.0709525
0.0697248
0.0685789
0.0675053
0.0665096
0.0656043
0.0647908
0.0640646
0.0633958
0.0627594
0.0621678
0.0616265
0.0611314
0.0606767
0.0602594
0.0598775
0.0595298
0.0592149
0.0589322
0.0586806
0.058462
0.0582765
0.0581221
0.0580002
0.0579062
0.0578821
0.0577652
0.0582893
0.0571789
0.0990001
0.0972152
0.0953054
0.0932828
0.0911892
0.089078
0.0870057
0.0850079
0.083116
0.0813399
0.0796794
0.0781348
0.0767073
0.0753983
0.0741922
0.0730738
0.0720372
0.0710916
0.0702387
0.0694737
0.0687723
0.068112
0.0674992
0.0669391
0.0664277
0.0659608
0.0655353
0.0651503
0.0648048
0.0644984
0.0642304
0.0640012
0.0638126
0.0636652
0.0635573
0.0634935
0.0634633
0.063518
0.0634801
0.0641443
0.0634879
0.107774
0.105688
0.103493
0.101185
0.0988219
0.0964521
0.0941342
0.091914
0.089832
0.0879064
0.0861263
0.0844767
0.0829421
0.0815183
0.0801965
0.0789768
0.0778603
0.0768537
0.07595
0.0751377
0.0743939
0.0737009
0.0730567
0.0724679
0.0719312
0.0714434
0.0710027
0.0706091
0.0702623
0.0699619
0.0697091
0.0695042
0.0693485
0.0692422
0.0691843
0.0691809
0.0692156
0.0693472
0.0693897
0.0701559
0.0702769
0.117247
0.114815
0.112318
0.109757
0.107166
0.1046
0.102067
0.0996086
0.097269
0.0950994
0.0931235
0.0913481
0.089755
0.0883139
0.0869812
0.0857283
0.0845506
0.0834738
0.0825106
0.0816572
0.0809002
0.0802242
0.0796161
0.0790771
0.0786038
0.0781916
0.0778393
0.0775451
0.0773095
0.0771323
0.077016
0.0769618
0.0769707
0.077043
0.0771791
0.0773894
0.0776413
0.0780226
0.0782774
0.0794613
0.0807745
0.127547
0.124753
0.121885
0.118995
0.116184
0.113467
0.110836
0.108283
0.105812
0.103429
0.101157
0.0990353
0.097117
0.0954432
0.0940182
0.0928122
0.0917532
0.0907876
0.089894
0.0890642
0.0883044
0.087611
0.0869743
0.0864035
0.0859032
0.0854754
0.0851209
0.0848406
0.0846357
0.084508
0.084459
0.0844903
0.0845998
0.0847879
0.0850507
0.0853983
0.0857827
0.0863061
0.0866627
0.0880407
0.0905684
0.1389
0.135869
0.132701
0.129441
0.126208
0.12307
0.120104
0.117385
0.114925
0.11269
0.110602
0.108566
0.106512
0.104426
0.10235
0.100412
0.0987651
0.0974417
0.0964076
0.0955965
0.0949754
0.0945237
0.094187
0.0939596
0.0938325
0.0938029
0.0938692
0.0940325
0.0942941
0.094658
0.0951262
0.0957015
0.0963798
0.0971573
0.0980196
0.0989735
0.0999022
0.101011
0.101479
0.104305
0.105248
0.150934
0.147983
0.14508
0.142099
0.138914
0.135421
0.131701
0.127948
0.124422
0.121355
0.118914
0.117159
0.116045
0.115427
0.115093
0.114687
0.113874
0.11277
0.111566
0.110395
0.109349
0.108458
0.107718
0.107142
0.10674
0.106515
0.10647
0.106608
0.106931
0.10744
0.108137
0.109023
0.110084
0.111307
0.112656
0.114108
0.115476
0.116921
0.117371
0.120566
0.119338
0.16283
0.159675
0.157157
0.155192
0.153511
0.151724
0.149507
0.14661
0.142851
0.13823
0.132962
0.127445
0.122093
0.117254
0.113086
0.110029
0.108332
0.107403
0.106959
0.106836
0.107
0.107421
0.108029
0.108803
0.109739
0.110831
0.112085
0.113494
0.115054
0.116744
0.118534
0.120357
0.122104
0.123605
0.124617
0.124914
0.124037
0.122591
0.117832
0.120634
0.0993437
0.174376
0.170352
0.166932
0.164393
0.162956
0.162608
0.163167
0.164328
0.165551
0.166279
0.166077
0.164859
0.162934
0.160881
0.15944
0.157499
0.154505
0.151075
0.147562
0.144319
0.141504
0.139192
0.137385
0.136083
0.135324
0.135133
0.135546
0.13661
0.138409
0.141057
0.14473
0.149674
0.156252
0.164982
0.176642
0.192122
0.211566
0.230443
0.226952
0.236106
0.148118
0.186449
0.185983
0.181007
0.168742
0.15307
0.138597
0.127007
0.118247
0.111817
0.107206
0.104013
0.101932
0.100717
0.100194
0.100138
0.100959
0.10229
0.103572
0.104682
0.105626
0.106456
0.106956
0.107341
0.107635
0.107882
0.108113
0.108337
0.10855
0.108727
0.108828
0.108781
0.108492
0.10784
0.106708
0.104969
0.102591
0.0994983
0.0961444
0.091234
0.0906329
0.0750465
0.00656768
0.0100443
0.0127384
0.0155637
0.00844306
0.00802357
0.027509
0.0124975
0.0060135
0.0284952
0.0599152
0.186259
0.100807
0.0837689
0.0816378
0.0837423
0.0871358
0.0903001
0.091963
0.0912714
0.0878065
0.0819388
0.0744983
0.0664096
0.0584026
0.0508951
0.0441306
0.0381998
0.0331241
0.0288749
0.0253409
0.0222876
0.0192411
0.0151116
0.00810231
2.19685
1.14931
0.0261936
0.0121871
0.0115441
0.0124102
0.013462
0.0144743
0.0156948
0.0173411
0.0195188
0.0224398
0.0263506
0.0312331
0.0363534
0.0401132
0.0399704
0.0385526
0.0370318
0.0360997
0.03564
0.035625
0.0358511
0.0364659
0.0371689
0.0382528
0.0392756
0.0406297
0.0421105
0.043608
0.0454702
0.0471318
0.0491629
0.0511932
0.0534572
0.055666
0.0582518
0.0606152
0.0631597
0.0100285
0.0121078
0.0140875
0.0157908
0.0182818
0.00461383
0.0820941
0.100983
0.00678853
0.0353041
0.0804101
0.18475
0.109703
0.101697
0.105161
0.112943
0.122056
0.131292
0.140495
0.151101
0.162801
0.166673
0.147126
0.117629
0.0933605
0.0752862
0.061671
0.0511157
0.042762
0.0360552
0.0305969
0.0260671
0.0221267
0.0181792
0.0127178
0.010744
0.234128
1.13779
0.0165106
0.0121447
0.0125961
0.0137998
0.0150385
0.0164111
0.0181742
0.020445
0.0234877
0.0274443
0.0321176
0.0366253
0.039819
0.0397833
0.0387944
0.0375895
0.0368943
0.0365378
0.0366266
0.0369126
0.0375908
0.038317
0.0394526
0.0405015
0.0418604
0.0434119
0.0449021
0.0468205
0.0485095
0.0505477
0.0526256
0.0549487
0.0571727
0.0598271
0.0622209
0.0647695
0.0146277
0.0152708
0.0162456
0.0172002
0.0182752
0.0174337
0.00610242
0
0.00757159
0.0413492
0.108595
0.159741
0.115349
0.109268
0.109154
0.109069
0.107897
0.106586
0.106114
0.107168
0.110387
0.116927
0.129675
0.158092
0.25239
0.176993
0.108596
0.0791011
0.0615185
0.049415
0.0403774
0.0332554
0.0273936
0.0222668
0.0171411
0.00991446
0.0372851
5.04389
0.0501713
0.0143934
0.0130873
0.0141685
0.0156564
0.0172306
0.0190896
0.0213805
0.0243959
0.0280371
0.0320246
0.0356291
0.0382022
0.0387001
0.0384597
0.037864
0.0375167
0.0374797
0.0376973
0.0381345
0.0388685
0.039695
0.0408275
0.0420171
0.0433546
0.0449516
0.0465011
0.0484029
0.0502302
0.0522369
0.0543687
0.056728
0.0590199
0.061714
0.0641382
0.0666888
0.0199529
0.0192229
0.019138
0.0193322
0.0196467
0.0201956
0.0129312
0.00503307
0.00826225
0.0451887
0.1312
0.150876
0.11432
0.105694
0.101891
0.0989538
0.0963444
0.0943205
0.093123
0.0928839
0.0937083
0.0957999
0.0996156
0.106184
0.11812
0.144096
0.249954
0.182948
0.104075
0.0745398
0.0573089
0.0454081
0.0363957
0.0290773
0.0226597
0.0161565
0.00853695
1.79543
0.372573
0.0235305
0.0144333
0.0145963
0.016164
0.017999
0.0199632
0.0222327
0.025117
0.0283349
0.0316784
0.0347038
0.0369392
0.0378816
0.0382511
0.0382177
0.0382345
0.038499
0.0388772
0.0394702
0.040274
0.0412042
0.0423523
0.0436542
0.0449897
0.0466184
0.0482297
0.0501199
0.0520566
0.0540527
0.0562272
0.0586207
0.060966
0.0637109
0.0661412
0.0686885
0.0258552
0.0238768
0.0227372
0.0221533
0.0218098
0.0216521
0.021093
0.00844312
0.0087802
0.0462432
0.144556
0.151069
0.116112
0.105829
0.100706
0.0971531
0.0943723
0.0922642
0.0908642
0.0901944
0.0902639
0.0911161
0.0928731
0.0958124
0.100539
0.108378
0.122853
0.157518
0.480502
0.147207
0.0921026
0.0671652
0.0516073
0.0403962
0.0315143
0.0237139
0.015642
18.6297
1.03636
13.4349
0.0203825
0.0155864
0.016576
0.0185902
0.0207165
0.0229612
0.0256549
0.0284918
0.0313616
0.0340634
0.0361515
0.037441
0.0382819
0.0387355
0.0391352
0.0396254
0.0402033
0.0409329
0.0418311
0.042843
0.044045
0.0454048
0.046753
0.0484118
0.0500635
0.0519657
0.0539595
0.0559638
0.058169
0.0606002
0.0629697
0.065779
0.0681899
0.0707267
0.0321715
0.0291941
0.0269709
0.0256557
0.0246502
0.0239281
0.0233034
0.0207414
0.0129049
0.0434867
0.143317
0.15538
0.121153
0.110016
0.104317
0.100499
0.0975872
0.0953295
0.093688
0.0926588
0.0922317
0.0924053
0.0932056
0.0947187
0.0971532
0.100915
0.106874
0.117041
0.137348
0.199509
0.259239
0.117758
0.0799963
0.0594601
0.0456172
0.0350223
0.0257545
0.0159216
0.0862588
9.60844
0.191037
0.0200937
0.0174068
0.0189746
0.0212075
0.0234479
0.0259141
0.0283952
0.0308989
0.0333502
0.0354195
0.0370057
0.0382754
0.0391947
0.0400033
0.040754
0.0415743
0.0424636
0.0434831
0.0445821
0.0458529
0.047261
0.048626
0.050318
0.0519991
0.0539142
0.0559434
0.0579577
0.0601893
0.0626581
0.0650309
0.067907
0.0702762
0.072801
0.0386398
0.035068
0.0317993
0.0297935
0.0281509
0.0268691
0.0259142
0.0244796
0.0149694
0.0394042
0.124542
0.15915
0.129281
0.118088
0.112125
0.108039
0.104854
0.102274
0.100238
0.0987444
0.0977892
0.097362
0.0974539
0.0980775
0.0993055
0.101286
0.104339
0.109077
0.11681
0.13092
0.163892
0.371232
0.161367
0.0975636
0.0696784
0.0524746
0.039883
0.0290438
0.0180076
0.0145267
0.744614
0.0745186
0.0213059
0.0196148
0.0213803
0.0235836
0.0258542
0.0280261
0.0302271
0.0324664
0.034549
0.0363796
0.0380259
0.0393989
0.0406301
0.0417324
0.0428467
0.0439582
0.0451379
0.0463618
0.047711
0.0491929
0.0505817
0.0523101
0.0540252
0.0559414
0.0580039
0.060023
0.0622761
0.0647791
0.0671423
0.0700825
0.0723841
0.0749013
0.0453694
0.041346
0.03723
0.0345202
0.0322888
0.0304553
0.029102
0.0277198
0.0235064
0.0309712
0.0911578
0.137604
0.135221
0.128569
0.123706
0.119686
0.116185
0.113112
0.110478
0.108323
0.106672
0.10553
0.104881
0.104706
0.105015
0.105851
0.107345
0.109733
0.113467
0.119469
0.129924
0.151321
0.218783
0.266063
0.123511
0.0833986
0.061511
0.0464054
0.0337837
0.0210717
0.354398
0.0861854
0.0738268
0.0234223
0.021718
0.0233788
0.0254906
0.0274602
0.0294268
0.0315001
0.0335753
0.0355716
0.0375027
0.039283
0.0409263
0.0424388
0.0439051
0.0453113
0.0467069
0.0481116
0.0495724
0.0511651
0.0525978
0.0543643
0.0561244
0.0580401
0.0601341
0.0621539
0.0644183
0.0669508
0.0692892
0.0722963
0.0744993
0.0770161
0.0534905
0.0482064
0.0432891
0.0398599
0.0370408
0.0346867
0.0328918
0.0314165
0.0288887
0.0287034
0.0541236
0.0967923
0.124542
0.134645
0.136589
0.134969
0.131951
0.128525
0.125152
0.122083
0.119454
0.117331
0.115725
0.114611
0.113969
0.113785
0.114104
0.11501
0.116684
0.119463
0.124043
0.131891
0.146871
0.183801
0.444449
0.167195
0.102591
0.0735123
0.0549639
0.0401816
0.0259699
0.0152561
0.0298148
0.0740682
0.0255596
0.0233983
0.0248898
0.0267348
0.0285663
0.0305206
0.0325612
0.034643
0.0367615
0.03886
0.0408729
0.0427935
0.0446496
0.0464145
0.0480927
0.0497453
0.0513717
0.0531231
0.0546379
0.0564541
0.0582749
0.0601992
0.0623237
0.0643441
0.0666091
0.0691664
0.0714627
0.0745401
0.0766098
0.0791357
0.0655109
0.0552747
0.049632
0.0456596
0.0424077
0.0395628
0.0373027
0.0355883
0.0337655
0.032764
0.0419576
0.0679701
0.100269
0.126508
0.142845
0.150139
0.151347
0.149239
0.145631
0.141564
0.137607
0.134065
0.131068
0.128638
0.126753
0.125373
0.124486
0.124097
0.124263
0.125108
0.126905
0.130157
0.135908
0.146712
0.17037
0.251748
0.264749
0.131125
0.0896799
0.0660677
0.0483915
0.0320313
0.0146793
0.0175881
0.057487
0.0273756
0.0246791
0.0258896
0.0276289
0.0295316
0.0315268
0.0336489
0.0358638
0.0381869
0.0404847
0.0427737
0.0450024
0.0471635
0.0491891
0.0511591
0.0530246
0.0549901
0.0566467
0.0585467
0.060452
0.062399
0.0645565
0.0665825
0.0688445
0.0714242
0.0736593
0.0768087
0.0787073
0.0812548
0.0612506
0.0515468
0.0489375
0.0476685
0.0463905
0.0444285
0.0422355
0.0401971
0.038622
0.0379077
0.0418444
0.0557949
0.0798033
0.10883
0.136213
0.156846
0.169103
0.173854
0.17317
0.169302
0.16403
0.158505
0.153354
0.148838
0.14503
0.141901
0.139408
0.13749
0.136121
0.135312
0.135156
0.135841
0.137747
0.141688
0.149446
0.165725
0.208935
0.526797
0.178311
0.112044
0.0804118
0.0585493
0.0394694
0.0207729
0.708343
0.101243
0.0291312
0.0257083
0.026689
0.0285016
0.0304726
0.0326052
0.0348579
0.0373071
0.0397982
0.042376
0.0449274
0.0474758
0.0498861
0.0522336
0.0544146
0.056663
0.0585372
0.0605773
0.0626059
0.064602
0.0668043
0.0688465
0.0711061
0.0737103
0.0758683
0.0790903
0.0807781
0.0833615
0.0438981
0.0375807
0.0349542
0.0350437
0.0373886
0.0407987
0.0439394
0.0443393
0.0433947
0.0430382
0.0454494
0.0535559
0.0692885
0.0926513
0.121684
0.151824
0.177605
0.195915
0.205909
0.208
0.204023
0.196647
0.188173
0.179982
0.172701
0.166488
0.161309
0.15704
0.153561
0.150771
0.148635
0.147175
0.146516
0.146978
0.149202
0.154501
0.166022
0.193409
0.294286
0.275768
0.144236
0.0989045
0.0708838
0.0481663
0.0271234
0.0255593
0.0838611
0.0315322
0.0268444
0.0276046
0.0294084
0.0315179
0.033783
0.0362741
0.038879
0.0416441
0.0444514
0.0473327
0.0501197
0.0528734
0.0554235
0.0580275
0.060205
0.0624558
0.0646685
0.0667603
0.069036
0.0711113
0.0733713
0.076001
0.0780723
0.081373
0.0828112
0.0854428
0.0389685
0.0328152
0.0276842
0.0239509
0.0223
0.0237998
0.0286701
0.0356491
0.0426541
0.0470741
0.050114
0.0557694
0.066396
0.0833191
0.107543
0.139241
0.175821
0.210996
0.239047
0.257955
0.266169
0.262769
0.250765
0.235412
0.220442
0.207362
0.196452
0.187496
0.180163
0.174128
0.16915
0.165062
0.161794
0.159416
0.158172
0.158567
0.161658
0.169729
0.188704
0.241794
0.525434
0.193831
0.122914
0.0856952
0.0580174
0.0341735
0.0173493
0.048163
0.0330256
0.0280927
0.0285931
0.0304253
0.0326574
0.035142
0.0377926
0.0406515
0.0436293
0.0467579
0.0498679
0.0530087
0.0559541
0.0589615
0.0615294
0.0640711
0.066545
0.068798
0.0711948
0.0733331
0.0756054
0.0782673
0.0802467
0.0836345
0.0847912
0.0874813
0.0374289
0.0322716
0.0275927
0.0236543
0.0202388
0.017114
0.0140873
0.0124765
0.0183543
0.0315977
0.0460787
0.057403
0.0678664
0.0813516
0.100439
0.127733
0.166651
0.220334
0.284337
0.338563
0.372385
0.393831
0.397298
0.372267
0.332471
0.295304
0.265879
0.243421
0.22621
0.212765
0.202043
0.193316
0.186104
0.180138