/*--------------------------------*- C++ -*----------------------------------*\
| =========                 |                                                 |
| \\      /  F ield         | OpenFOAM: The Open Source CFD Toolbox           |
|  \\    /   O peration     | Version:  2312                                  |
|   \\  /    A nd           | Website:  www.openfoam.com                      |
|    \\/     M anipulation  |                                                 |
\*---------------------------------------------------------------------------*/
FoamFile
{
    version     2.0;
    format      ascii;
    arch        "LSB;label=32;scalar=64";
    class       volVectorField;
    location    "150";
    object      U;
}
// * * * * * * * * * * * * * * * * * * * * * * * * * * * * * * * * * * * * * //

dimensions      [0 1 -1 0 0 0 0];

internalField   nonuniform List<vector> 
11040
(
(-1.40592 9.28292 -7.11329e-19)
(0.246317 3.34199 -4.30774e-18)
(-1.37176 -2.23106 -6.02838e-17)
(-1.67512 -1.02149 -1.44687e-17)
(-1.59853 -0.894287 -6.7239e-18)
(-1.4664 -0.666527 -2.8006e-17)
(-1.37008 -0.520904 5.46436e-17)
(-1.30504 -0.417506 4.08886e-17)
(-1.26519 -0.342796 7.92629e-18)
(-1.24767 -0.286406 2.12732e-18)
(-1.25279 -0.243446 -3.44118e-17)
(-1.28654 -0.206881 4.63518e-18)
(-1.35062 -0.173386 1.20225e-17)
(-1.45206 -0.141844 9.31691e-18)
(-1.59013 -0.109169 -8.24211e-18)
(-1.76363 -0.0727811 1.31388e-17)
(-1.97261 -0.0306042 5.78133e-18)
(-2.22099 0.0175694 -1.39748e-17)
(-2.50949 0.0717325 -4.23614e-19)
(-2.82972 0.133777 2.13208e-18)
(-3.17433 0.202635 -2.33867e-18)
(-3.51755 0.269368 -8.10276e-18)
(-3.84319 0.330489 8.26568e-18)
(-4.15911 0.390931 -8.5741e-18)
(-4.46756 0.453796 8.95913e-18)
(-4.78311 0.515661 1.63003e-17)
(-5.08484 0.58009 7.05889e-18)
(-5.39171 0.643652 6.70144e-18)
(-5.67918 0.70866 7.08165e-18)
(-5.95691 0.771353 9.33646e-18)
(-6.19435 0.830148 -1.61283e-17)
(-6.37749 0.878435 -1.20549e-17)
(-6.46044 0.910492 -3.55188e-17)
(-6.40576 0.918959 -1.95958e-17)
(-6.17771 0.898505 1.92783e-18)
(-5.77599 0.844494 -2.49595e-17)
(-5.16763 0.747521 5.99668e-19)
(-4.30438 0.594836 -1.38794e-17)
(-3.10841 0.358027 1.95758e-17)
(-1.68894 -0.0204881 1.76926e-17)
(-0.666032 -0.50713 -6.13397e-18)
(0.316994 10.6118 3.55964e-19)
(1.77989 8.72122 -7.85967e-19)
(0.924364 3.10652 1.72797e-17)
(-1.08951 -1.01164 3.23038e-18)
(-1.59981 -0.974265 -7.08587e-19)
(-1.60308 -0.802492 8.45554e-18)
(-1.54223 -0.634369 -1.52001e-18)
(-1.51524 -0.529208 -2.20292e-17)
(-1.51984 -0.456465 9.36705e-19)
(-1.54928 -0.40241 -6.63237e-18)
(-1.6062 -0.364865 9.25307e-18)
(-1.69304 -0.333249 -3.00803e-17)
(-1.81264 -0.3048 -2.18577e-18)
(-1.96781 -0.27773 -1.81036e-17)
(-2.16171 -0.246438 7.56401e-18)
(-2.39082 -0.209407 -2.90166e-18)
(-2.6527 -0.163138 -4.45695e-18)
(-2.94582 -0.107981 -4.40536e-18)
(-3.2689 -0.0423251 -5.95816e-19)
(-3.61633 0.0371681 3.27097e-19)
(-3.97927 0.128085 1.20381e-18)
(-4.33922 0.219427 3.55549e-18)
(-4.68568 0.304026 -5.6011e-18)
(-5.02759 0.390246 -1.30647e-18)
(-5.35374 0.479508 -1.63577e-18)
(-5.66596 0.563498 3.42175e-18)
(-5.96161 0.650891 2.12623e-18)
(-6.23099 0.730968 -1.20883e-17)
(-6.46676 0.811497 -9.96945e-19)
(-6.64882 0.880487 7.34163e-18)
(-6.76914 0.941467 9.25758e-18)
(-6.8117 0.984442 1.90985e-17)
(-6.77263 1.01054 1.5818e-17)
(-6.63647 1.01182 7.57993e-18)
(-6.38178 0.984021 -3.28682e-18)
(-5.95723 0.913521 1.20769e-17)
(-5.33989 0.792287 -8.48628e-18)
(-4.47886 0.61339 5.70316e-18)
(-3.29083 0.354988 -2.02614e-18)
(-1.84538 -0.048479 -2.63892e-18)
(-0.669605 -0.511601 5.35486e-18)
(1.06403 9.13874 -7.97739e-21)
(2.48486 10.2208 1.93261e-18)
(2.85534 7.97742 -3.83067e-18)
(1.42947 3.26794 -8.15185e-18)
(-0.678132 -0.387824 1.01259e-18)
(-1.41205 -0.799674 -7.26049e-18)
(-1.54227 -0.688568 -1.25626e-17)
(-1.56061 -0.554911 -1.30873e-17)
(-1.60408 -0.471492 9.62513e-18)
(-1.67396 -0.40713 4.1027e-19)
(-1.76272 -0.361414 5.13283e-18)
(-1.87738 -0.321343 1.56078e-17)
(-2.02151 -0.285298 -1.11114e-17)
(-2.19581 -0.252569 1.14166e-17)
(-2.40317 -0.215965 -6.6367e-18)
(-2.63861 -0.175204 -2.83365e-18)
(-2.8992 -0.125937 1.31089e-18)
(-3.1836 -0.0691726 1.82838e-18)
(-3.49226 -0.00297309 1.0585e-19)
(-3.82169 0.0767119 -6.66267e-20)
(-4.16534 0.167676 -3.02617e-18)
(-4.50683 0.260209 -2.59793e-18)
(-4.83388 0.344672 5.81516e-19)
(-5.15079 0.43004 -3.89502e-19)
(-5.44724 0.517893 3.48602e-18)
(-5.72664 0.598471 -7.98896e-18)
(-5.9848 0.681279 -5.93613e-18)
(-6.2176 0.753476 8.83573e-18)
(-6.4193 0.824975 2.18407e-18)
(-6.58069 0.882429 -1.38286e-18)
(-6.69552 0.931542 -9.14358e-18)
(-6.7522 0.961441 3.90664e-18)
(-6.73724 0.973792 -8.90638e-18)
(-6.62572 0.957358 -1.16354e-17)
(-6.38931 0.905961 2.41732e-18)
(-5.99692 0.807976 5.74905e-18)
(-5.42374 0.655783 7.76095e-18)
(-4.62166 0.44328 -7.07319e-18)
(-3.51533 0.150712 -1.22524e-18)
(-2.17263 -0.286964 -1.46022e-18)
(-1.07986 -0.771941 -3.07062e-18)
(1.33552 8.34373 8.44074e-21)
(2.39347 9.58512 -3.09099e-19)
(3.47861 9.92358 2.01662e-18)
(3.46401 7.63635 3.97446e-18)
(1.89631 3.53676 -7.80877e-19)
(-0.227261 0.120567 -8.84484e-18)
(-1.18854 -0.605055 3.86983e-18)
(-1.44282 -0.553912 5.88554e-18)
(-1.5322 -0.456169 -4.97444e-18)
(-1.63535 -0.387112 5.61628e-18)
(-1.74824 -0.340461 -1.25395e-17)
(-1.87874 -0.293744 1.56673e-18)
(-2.03431 -0.248837 1.57925e-18)
(-2.21265 -0.209487 -9.28182e-18)
(-2.41837 -0.166375 -4.26415e-18)
(-2.64664 -0.121488 2.52809e-18)
(-2.89557 -0.0691771 4.66935e-18)
(-3.16479 -0.0114479 2.11483e-18)
(-3.456 0.0544666 -1.43027e-19)
(-3.7671 0.132065 1.51433e-19)
(-4.09211 0.219412 8.18768e-19)
(-4.41516 0.307527 2.51739e-18)
(-4.72422 0.388136 8.88741e-19)
(-5.02281 0.469388 1.63656e-18)
(-5.30284 0.552831 2.5731e-18)
(-5.56779 0.628689 1.21083e-17)
(-5.81506 0.706557 -9.05607e-19)
(-6.04273 0.773483 -1.6659e-18)
(-6.24608 0.839552 -5.81354e-18)
(-6.41792 0.891271 -5.12093e-18)
(-6.55011 0.933614 7.23196e-18)
(-6.63024 0.954621 -6.27034e-18)
(-6.64188 0.954536 1.68323e-17)
(-6.56107 0.920537 4.38399e-18)
(-6.36265 0.845493 3.28059e-18)
(-6.02025 0.717886 6.7984e-19)
(-5.50937 0.530171 -1.11483e-19)
(-4.7875 0.277456 -6.44065e-19)
(-3.79468 -0.0544316 1.43508e-18)
(-2.60741 -0.514958 -1.84201e-18)
(-1.63563 -0.979357 5.66899e-19)
(1.95105 7.88864 -2.04585e-19)
(2.66729 8.6099 2.91417e-19)
(3.52341 9.601 -1.87187e-18)
(4.27474 9.62995 -2.78036e-18)
(4.04388 7.59696 3.18386e-18)
(2.47979 4.02179 -3.03032e-19)
(0.353606 0.737771 1.56169e-18)
(-0.918562 -0.380012 8.6604e-18)
(-1.29545 -0.403843 -1.76475e-18)
(-1.46131 -0.32094 -2.74812e-18)
(-1.59906 -0.277819 -3.94732e-18)
(-1.73783 -0.237101 -3.08765e-20)
(-1.89938 -0.19058 -1.25655e-19)
(-2.07768 -0.150823 5.99352e-18)
(-2.27956 -0.105148 3.39137e-18)
(-2.50113 -0.0601887 1.17023e-19)
(-2.74162 -0.00803118 -2.06317e-18)
(-3.00114 0.0479674 2.23007e-18)
(-3.282 0.112194 -3.06976e-19)
(-3.58269 0.186591 7.92289e-19)
(-3.89774 0.270227 -1.60675e-18)
(-4.21139 0.353771 -1.69237e-19)
(-4.51215 0.430918 2.28551e-18)
(-4.80367 0.50876 -2.51578e-18)
(-5.07968 0.58838 -5.78281e-18)
(-5.34322 0.661504 -3.05132e-18)
(-5.59287 0.735596 6.55797e-19)
(-5.82716 0.79966 -5.19262e-18)
(-6.04158 0.861001 1.53559e-19)
(-6.22931 0.907702 5.00428e-18)
(-6.3818 0.941962 -3.96638e-18)
(-6.48704 0.952381 8.52052e-19)
(-6.52914 0.937027 -1.21294e-17)
(-6.48598 0.883277 -5.75082e-18)
(-6.33439 0.782264 -3.15234e-18)
(-6.05203 0.622324 -2.74124e-18)
(-5.61586 0.396277 1.41659e-18)
(-4.99019 0.101486 -9.6333e-20)
(-4.13273 -0.26807 8.35684e-19)
(-3.12712 -0.738476 2.46336e-18)
(-2.28445 -1.1551 -1.59824e-18)
(2.40612 7.3938 6.42883e-20)
(3.02416 7.96958 -9.39698e-19)
(3.62059 8.64631 6.43852e-19)
(4.36285 9.4313 8.91458e-19)
(4.94128 9.41268 -7.07138e-19)
(4.67175 7.76753 4.10356e-19)
(3.22544 4.71358 1.12949e-18)
(1.12129 1.58093 9.50799e-20)
(-0.504542 -0.0807329 -3.09608e-19)
(-1.06638 -0.227058 7.75948e-18)
(-1.33053 -0.178168 5.80136e-18)
(-1.49174 -0.140729 -2.76135e-18)
(-1.65769 -0.0978791 -1.7408e-18)
(-1.83728 -0.066777 7.64593e-18)
(-2.03789 -0.0230113 -6.07305e-18)
(-2.2578 0.018656 2.53871e-18)
(-2.49589 0.0681204 2.22988e-19)
(-2.75233 0.12027 6.21604e-19)
(-3.02944 0.181004 7.79471e-19)
(-3.32651 0.250893 -3.00759e-19)
(-3.6389 0.330112 -7.37681e-19)
(-3.95072 0.409029 5.86376e-19)
(-4.25009 0.482686 -1.01455e-18)
(-4.54093 0.557505 -7.34931e-19)
(-4.81835 0.633261 5.59313e-18)
(-5.08481 0.70422 -3.82596e-18)
(-5.33997 0.774597 -9.34779e-19)
(-5.58276 0.836322 6.48575e-18)
(-5.80918 0.892704 5.22525e-18)
(-6.01291 0.934266 -2.60291e-18)
(-6.1859 0.959694 -2.14686e-18)
(-6.31724 0.958743 -7.01448e-19)
(-6.39257 0.926683 5.74632e-18)
(-6.39182 0.851422 6.05042e-18)
(-6.29324 0.722292 1.63696e-18)
(-6.0798 0.527822 -2.04174e-18)
(-5.73084 0.261759 -2.3825e-19)
(-5.2179 -0.075626 -1.22469e-18)
(-4.51437 -0.480624 -2.43247e-18)
(-3.70103 -0.952177 -1.14519e-19)
(-2.98478 -1.314 1.67417e-18)
(2.86012 6.94196 2.0662e-20)
(3.34579 7.47707 9.11325e-20)
(3.83102 7.95171 4.34585e-19)
(4.37749 8.52421 9.19979e-19)
(5.03425 9.15786 3.92851e-19)
(5.53572 9.22376 -1.39869e-18)
(5.345 8.03078 4.52091e-19)
(4.11013 5.54761 -4.80663e-19)
(2.10295 2.622 -4.15531e-18)
(0.170254 0.47296 2.22772e-19)
(-0.724434 -0.0261965 -1.53578e-17)
(-1.11314 -0.0311766 1.06372e-17)
(-1.323 0.0275996 -6.91246e-18)
(-1.51168 0.0508942 -8.01075e-19)
(-1.71134 0.0860164 3.36638e-18)
(-1.93394 0.118575 -1.16621e-18)
(-2.17494 0.162557 4.34035e-18)
(-2.43467 0.209187 -1.72851e-18)
(-2.71455 0.26542 3.77544e-19)
(-3.01444 0.329879 -3.15581e-19)
(-3.33047 0.404013 3.33118e-19)
(-3.64635 0.477872 -4.32796e-19)
(-3.94932 0.547948 2.37831e-18)
(-4.24338 0.61963 -7.86664e-19)
(-4.52453 0.69176 -2.10275e-18)
(-4.79461 0.760378 1.03885e-18)
(-5.05418 0.827326 3.47707e-18)
(-5.303 0.886569 -1.76552e-18)
(-5.53819 0.93819 4.94117e-20)
(-5.75459 0.974318 -1.45511e-18)
(-5.9454 0.990752 9.31167e-20)
(-6.10121 0.977698 -2.58882e-18)
(-6.20978 0.927933 -5.05762e-20)
(-6.25385 0.829685 1.25341e-18)
(-6.21253 0.670916 4.00559e-18)
(-6.07503 0.440894 -2.92042e-18)
(-5.82447 0.134566 -3.11091e-18)
(-5.43966 -0.244288 2.28373e-18)
(-4.90549 -0.682412 -7.99581e-19)
(-4.28719 -1.1515 9.57738e-21)
(-3.69989 -1.47156 8.57724e-20)
(3.28556 6.55234 -1.73611e-21)
(3.67372 7.00183 2.03537e-19)
(4.06708 7.4354 -1.63732e-19)
(4.49761 7.82648 -9.56019e-19)
(4.99998 8.28595 -2.56535e-19)
(5.58548 8.81413 -3.53466e-19)
(6.06517 9.00157 2.03442e-18)
(6.01764 8.27061 2.69256e-19)
(5.08116 6.40452 1.06022e-18)
(3.28336 3.81295 -2.73864e-18)
(1.23462 1.44674 3.5582e-18)
(-0.198211 0.261241 5.27955e-18)
(-0.764438 0.139201 -8.8262e-18)
(-1.08219 0.186867 8.13541e-18)
(-1.29816 0.230726 1.73365e-19)
(-1.52546 0.254152 -1.43144e-18)
(-1.77096 0.286149 -5.27733e-18)
(-2.03926 0.322408 -4.15901e-19)
(-2.32829 0.37189 -1.68019e-18)
(-2.6377 0.429529 6.07047e-18)
(-2.96411 0.498186 -3.83837e-18)
(-3.29021 0.566149 6.15764e-19)
(-3.60186 0.632111 1.33632e-18)
(-3.903 0.69972 2.47589e-19)
(-4.18998 0.76749 5.51911e-19)
(-4.46386 0.832596 2.50168e-19)
(-4.72609 0.895681 1.42282e-18)
(-4.97739 0.951481 -8.57631e-19)
(-5.21625 0.998153 -3.60066e-18)
(-5.43924 1.02819 -1.05912e-18)
(-5.64135 1.0356 3.16348e-18)
(-5.81527 1.01008 1.53275e-18)
(-5.95167 0.942483 1.32716e-19)
(-6.03721 0.820788 -2.93392e-18)
(-6.05339 0.632527 -1.58059e-18)
(-5.99321 0.367906 9.72838e-19)
(-5.846 0.023483 2.15635e-18)
(-5.59809 -0.393816 -1.12368e-18)
(-5.24197 -0.862438 6.46802e-19)
(-4.81922 -1.33153 -1.32275e-18)
(-4.37461 -1.63702 -1.71311e-19)
(3.68052 6.20469 1.10779e-21)
(4.00649 6.5834 6.77723e-20)
(4.32191 6.9604 -4.35624e-19)
(4.66808 7.31438 1.44627e-19)
(5.06041 7.62918 -2.23539e-19)
(5.5146 7.98307 1.40134e-19)
(6.04011 8.41882 -8.02913e-19)
(6.51768 8.70352 -8.27134e-19)
(6.63977 8.38768 -3.44484e-20)
(6.04867 7.14196 -1.59491e-18)
(4.6099 5.06536 -5.32924e-19)
(2.63466 2.74559 2.13975e-18)
(0.783863 0.96998 1.49653e-18)
(-0.258261 0.35285 -5.93051e-18)
(-0.7143 0.347786 1.30396e-17)
(-1.01606 0.416279 -4.23039e-18)
(-1.27229 0.453261 3.48053e-18)
(-1.54936 0.477414 -5.49198e-18)
(-1.85014 0.512991 -2.13211e-19)
(-2.17484 0.558571 1.87782e-18)
(-2.51837 0.618948 -2.45147e-18)
(-2.86121 0.67924 -3.50507e-19)
(-3.18705 0.739672 7.03013e-19)
(-3.49964 0.801956 -2.30362e-18)
(-3.79473 0.863874 -6.65853e-19)
(-4.07262 0.923938 -1.81382e-18)
(-4.33575 0.981611 -3.42162e-18)
(-4.58599 1.03279 1.35104e-18)
(-4.82311 1.07346 1.01055e-18)
(-5.04547 1.09682 3.30098e-18)
(-5.25014 1.09491 -1.32148e-18)
(-5.43236 1.05712 9.8031e-19)
(-5.58608 0.97221 -1.19012e-18)
(-5.70244 0.82782 3.0133e-18)
(-5.76779 0.611661 -3.27668e-19)
(-5.7752 0.315165 7.32554e-19)
(-5.7226 -0.0628777 -3.52034e-18)
(-5.60404 -0.513465 2.07462e-18)
(-5.418 -1.009 -1.604e-19)
(-5.18434 -1.48548 8.42192e-19)
(-4.90306 -1.80749 -8.31093e-19)
(4.04783 5.89095 -1.3252e-20)
(4.32893 6.21182 -4.84726e-20)
(4.59453 6.52937 -5.54864e-21)
(4.87408 6.84304 6.88264e-19)
(5.1885 7.1325 2.50131e-19)
(5.54281 7.38373 -1.04392e-18)
(5.9479 7.64977 2.15731e-19)
(6.41628 7.9934 3.19178e-18)
(6.88905 8.31815 -3.13882e-18)
(7.15992 8.31403 -2.62172e-19)
(6.91823 7.64359 1.70753e-19)
(5.9366 6.18634 1.53313e-19)
(4.25203 4.17889 1.99945e-18)
(2.2843 2.19939 -8.67933e-19)
(0.667155 0.890809 5.37047e-18)
(-0.181332 0.544041 -5.61755e-18)
(-0.615868 0.590702 1.67794e-18)
(-0.946416 0.668412 -1.07055e-18)
(-1.25901 0.709428 1.90075e-18)
(-1.59741 0.739858 1.59682e-18)
(-1.96036 0.784084 7.76566e-19)
(-2.32564 0.829569 -1.79677e-18)
(-2.67161 0.879751 1.84858e-18)
(-3.00067 0.933169 1.11568e-18)
(-3.30667 0.985673 -2.99468e-18)
(-3.58892 1.03678 2.12971e-18)
(-3.85073 1.08665 2.53925e-18)
(-4.09548 1.12992 -3.03399e-18)
(-4.32423 1.16291 4.27787e-19)
(-4.53694 1.17741 -2.72681e-18)
(-4.7331 1.16553 1.44825e-18)
(-4.91078 1.11502 -1.91819e-18)
(-5.06742 1.01375 -6.51226e-19)
(-5.19839 0.847917 1.33298e-19)
(-5.29466 0.605815 -1.46301e-18)
(-5.3475 0.280278 3.98419e-19)
(-5.36299 -0.126257 1.0693e-18)
(-5.3421 -0.602906 -1.42565e-18)
(-5.28915 -1.11879 -2.34486e-19)
(-5.21538 -1.60802 -1.48541e-18)
(-5.10236 -1.96815 9.10875e-19)
(4.38821 5.60434 -2.18263e-20)
(4.63615 5.87675 5.50296e-20)
(4.86654 6.14552 7.21086e-20)
(5.10073 6.41188 1.61294e-19)
(5.35647 6.67167 -6.48589e-19)
(5.64224 6.90921 -5.24664e-19)
(5.96061 7.11207 3.6554e-19)
(6.31886 7.30922 1.75201e-19)
(6.7317 7.56245 2.46538e-19)
(7.18152 7.86235 2.94798e-18)
(7.54945 8.04138 9.04378e-19)
(7.6077 7.82364 2.44787e-19)
(7.09975 6.98438 -1.98389e-18)
(5.89474 5.51598 4.87681e-18)
(4.13522 3.70442 -4.52491e-18)
(2.24659 2.04561 2.96417e-18)
(0.775777 1.03605 -4.32523e-18)
(-0.0298995 0.795968 -1.07104e-17)
(-0.494546 0.865436 3.97614e-19)
(-0.87945 0.956821 7.73673e-18)
(-1.2571 1.01573 -3.90459e-18)
(-1.6402 1.04521 4.67565e-18)
(-2.00705 1.07612 -2.34036e-18)
(-2.35647 1.10981 4.40485e-19)
(-2.67736 1.14216 -2.60888e-19)
(-2.96485 1.17608 -2.2735e-18)
(-3.22405 1.21081 1.93407e-18)
(-3.45902 1.24074 -1.68991e-18)
(-3.67171 1.26064 1.40513e-18)
(-3.8635 1.26249 9.74247e-19)
(-4.03582 1.23745 1.43236e-19)
(-4.19013 1.17282 9.21489e-19)
(-4.32703 1.05469 5.56988e-19)
(-4.44676 0.86778 -2.47948e-18)
(-4.54414 0.599967 -1.56051e-18)
(-4.61062 0.246122 1.08482e-18)
(-4.65348 -0.185547 1.24246e-18)
(-4.67988 -0.682225 1.90852e-19)
(-4.69804 -1.21166 2.15949e-18)
(-4.7224 -1.71444 1.33029e-18)
(-4.73658 -2.11192 3.11306e-19)
(4.70238 5.33992 -2.99113e-20)
(4.9247 5.57202 3.68761e-20)
(5.12915 5.79917 -2.71703e-19)
(5.33204 6.02471 4.74318e-19)
(5.54657 6.2471 -4.33433e-19)
(5.78157 6.46162 3.50594e-19)
(6.04141 6.65809 1.94448e-19)
(6.32728 6.82464 -1.71608e-18)
(6.64335 6.97233 -3.5281e-18)
(7.00272 7.14562 4.63011e-18)
(7.40937 7.37731 -3.01859e-18)
(7.81542 7.61268 -7.43938e-19)
(8.08075 7.67913 -1.23879e-18)
(7.98803 7.35512 -7.26567e-19)
(7.3378 6.49983 1.78216e-18)
(6.06428 5.15663 -8.46307e-19)
(4.33633 3.59031 4.40161e-18)
(2.52857 2.19593 -4.33355e-18)
(1.08419 1.33822 -2.01202e-18)
(0.209073 1.10427 1.20782e-17)
(-0.329132 1.17454 -5.96269e-18)
(-0.76078 1.27139 -4.03745e-19)
(-1.14444 1.33498 9.45306e-19)
(-1.50745 1.36007 3.81239e-18)
(-1.83988 1.36235 -3.36557e-18)
(-2.13222 1.36326 -8.05559e-19)
(-2.3879 1.36661 -9.78982e-19)
(-2.6111 1.36932 5.33236e-18)
(-2.80246 1.36277 -2.4951e-18)
(-2.96299 1.34134 -8.64143e-19)
(-3.09539 1.29384 3.04257e-18)
(-3.20356 1.20897 -2.69317e-18)
(-3.29242 1.06992 -1.40007e-18)
(-3.3667 0.860357 1.7872e-18)
(-3.42599 0.565789 1.44081e-18)
(-3.46403 0.183365 2.74259e-19)
(-3.48392 -0.275831 -7.36497e-19)
(-3.49713 -0.794366 -4.40408e-19)
(-3.51457 -1.3381 -1.36521e-18)
(-3.55915 -1.85351 1.16537e-18)
(-3.62711 -2.27425 -1.43926e-19)
(4.99077 5.09398 4.98209e-20)
(5.19255 5.29194 1.51492e-20)
(5.37735 5.48393 -7.71268e-20)
(5.5574 5.67381 -2.37172e-19)
(5.74298 5.86217 5.26882e-19)
(5.94142 6.04656 3.9562e-19)
(6.15792 6.22349 1.84185e-18)
(6.39497 6.38623 6.06971e-19)
(6.65276 6.52498 2.03284e-19)
(6.93288 6.63926 1.21872e-19)
(7.24369 6.7528 -1.2585e-18)
(7.59859 6.90499 1.72515e-18)
(7.99211 7.10559 -1.64256e-19)
(8.35994 7.28455 1.66135e-18)
(8.56253 7.29254 -4.55744e-18)
(8.41378 6.96329 4.84509e-18)
(7.75909 6.20667 -1.47464e-18)
(6.55964 5.07488 -4.60588e-18)
(4.95553 3.77588 3.97665e-18)
(3.23808 2.6002 -4.7384e-18)
(1.7409 1.81006 3.33418e-18)
(0.718287 1.49826 -1.26854e-18)
(0.0975792 1.4801 4.6842e-18)
(-0.343174 1.5304 -1.6542e-18)
(-0.70139 1.56245 -8.67506e-18)
(-0.998463 1.56673 4.34253e-18)
(-1.24784 1.5551 1.92723e-18)
(-1.45678 1.52702 -4.90554e-19)
(-1.62427 1.48384 4.38191e-19)
(-1.74801 1.42224 -1.3985e-18)
(-1.82949 1.33753 -7.31157e-18)
(-1.87264 1.2187 8.21978e-18)
(-1.88549 1.05144 -5.52823e-19)
(-1.87816 0.817039 -2.72341e-18)
(-1.85692 0.495195 3.32274e-18)
(-1.81998 0.0761309 -4.79364e-19)
(-1.7676 -0.42824 -8.44483e-19)
(-1.71559 -0.984502 1.61694e-18)
(-1.67502 -1.55135 6.55413e-19)
(-1.67357 -2.07649 -1.3422e-18)
(-1.74246 -2.50546 -5.96053e-19)
(5.25385 4.86397 1.1172e-20)
(5.43844 5.03266 -1.80591e-20)
(5.60749 5.19473 -4.05636e-19)
(5.77011 5.35395 4.20447e-19)
(5.93458 5.51183 1.42131e-19)
(6.10639 5.66772 -1.92948e-18)
(6.29069 5.81948 -7.9943e-19)
(6.49078 5.96429 -7.45069e-19)
(6.70814 6.09784 1.4222e-18)
(6.94244 6.21293 3.29851e-18)
(7.19327 6.30434 -1.3033e-18)
(7.46536 6.38021 1.96349e-18)
(7.77124 6.46661 -1.41352e-19)
(8.12207 6.59233 -3.62288e-18)
(8.50539 6.75479 -1.39627e-18)
(8.85868 6.89128 3.19469e-18)
(9.06285 6.88688 -1.75714e-18)
(8.96961 6.62195 2.43057e-18)
(8.45706 6.03573 -3.62618e-18)
(7.49005 5.16624 2.151e-19)
(6.14634 4.15433 -3.83246e-19)
(4.6935 3.22633 7.77589e-18)
(3.37585 2.5248 -2.09575e-20)
(2.30717 2.06741 -4.37191e-18)
(1.51542 1.81094 -8.05524e-19)
(0.962407 1.67971 -1.33609e-18)
(0.581785 1.60627 -5.03183e-18)
(0.318117 1.54413 6.72681e-18)
(0.141213 1.47104 -6.02408e-18)
(0.0381602 1.3748 -2.72129e-19)
(0.00317323 1.2492 1.92554e-18)
(0.0297148 1.08525 -1.30961e-18)
(0.110444 0.873146 1.11933e-18)
(0.228703 0.59882 -5.01006e-19)
(0.369665 0.242194 6.39802e-18)
(0.533851 -0.225894 -5.86799e-18)
(0.709911 -0.77628 4.66555e-19)
(0.86174 -1.35806 2.74299e-19)
(0.970397 -1.92035 2.96743e-19)
(1.0324 -2.41618 -1.41847e-19)
(0.950311 -2.80628 8.97569e-19)
(5.49207 4.64815 -1.03326e-19)
(5.66171 4.79142 1.15162e-20)
(5.81745 4.92765 2.60774e-19)
(5.96613 5.06043 -5.54808e-19)
(6.11426 5.19147 5.11635e-19)
(6.26645 5.3211 -7.20001e-19)
(6.42647 5.44846 -7.04704e-20)
(6.59804 5.57153 3.92725e-19)
(6.7834 5.68803 -2.91698e-18)
(6.98348 5.79493 1.56833e-18)
(7.19781 5.88749 1.61799e-19)
(7.42586 5.96078 -7.4153e-18)
(7.66952 6.01399 4.79077e-18)
(7.93571 6.05716 4.06332e-19)
(8.23704 6.11186 3.8815e-18)
(8.58358 6.19813 -3.43779e-18)
(8.9653 6.31097 5.52343e-19)
(9.33491 6.40449 2.68814e-18)
(9.60446 6.39893 -2.90759e-18)
(9.66987 6.21472 1.1301e-18)
(9.43318 5.80609 3.88779e-19)
(8.90309 5.22042 -7.97795e-19)
(8.1639 4.55555 2.59302e-19)
(7.32436 3.89118 -8.16834e-19)
(6.48671 3.28296 4.87127e-18)
(5.72304 2.75575 -6.47779e-18)
(5.07336 2.30851 5.40738e-18)
(4.55277 1.9278 1.55516e-18)
(4.16229 1.59348 -2.24942e-18)
(3.89526 1.28599 -9.5615e-19)
(3.74133 0.985884 -5.86437e-19)
(3.6872 0.67641 4.25683e-18)
(3.7186 0.342068 -5.44794e-19)
(3.81213 -0.0331525 -6.00742e-18)
(3.96435 -0.462997 1.36037e-18)
(4.15503 -0.939078 1.77513e-18)
(4.33118 -1.43547 -1.5241e-18)
(4.45089 -1.92321 1.51769e-18)
(4.49437 -2.36855 5.10233e-19)
(4.47038 -2.73845 2.09955e-19)
(4.30366 -3.0195 -1.18487e-18)
(5.70558 4.44538 6.05928e-20)
(5.86174 4.56636 3.9248e-20)
(6.00569 4.68014 -2.02225e-19)
(6.14256 4.79 2.98023e-19)
(6.2775 4.89766 7.91124e-19)
(6.41428 5.0037 1.21154e-18)
(6.55597 5.1081 -1.64517e-18)
(6.70551 5.20971 2.38012e-19)
(6.86543 5.30673 8.665e-19)
(7.03721 5.39714 -2.35233e-19)
(7.22146 5.47861 3.06545e-18)
(7.41838 5.54864 -4.22808e-18)
(7.62792 5.6035 6.67145e-18)
(7.84992 5.63951 -5.06338e-18)
(8.08685 5.65688 -2.25488e-18)
(8.34617 5.66364 -8.27421e-19)
(8.63991 5.67433 -1.40068e-18)
(8.97844 5.70114 1.45232e-18)
(9.35823 5.73935 1.707e-19)
(9.75331 5.76014 1.05587e-18)
(10.1088 5.71256 -5.37039e-19)
(10.3583 5.55135 6.17692e-19)
(10.4654 5.27344 2.43754e-18)
(10.437 4.89442 -2.94383e-18)
(10.2998 4.44235 1.52579e-18)
(10.0903 3.94707 1.65747e-18)
(9.84494 3.43305 2.66995e-19)
(9.59487 2.91732 -6.74352e-18)
(9.36308 2.40919 1.48132e-18)
(9.16437 1.91216 3.12278e-18)
(9.00549 1.42554 -2.2061e-18)
(8.88631 0.946471 4.63628e-18)
(8.79982 0.471473 -4.37879e-18)
(8.73447 -0.00343675 5.93444e-19)
(8.66821 -0.479708 1.4728e-18)
(8.5782 -0.948405 -1.46178e-18)
(8.44883 -1.39192 7.40316e-19)
(8.26495 -1.79478 -1.1952e-19)
(8.02266 -2.13824 -1.15992e-18)
(7.73442 -2.40305 -4.13169e-20)
(7.37079 -2.59548 6.86661e-20)
(5.89436 4.25469 1.432e-20)
(6.03791 4.35606 8.20561e-20)
(6.17081 4.45032 1.74073e-19)
(6.29696 4.54041 -5.3612e-19)
(6.42047 4.6279 -3.87806e-19)
(6.54438 4.71345 -1.11502e-19)
(6.67131 4.79721 -2.26179e-18)
(6.8034 4.87874 1.25526e-18)
(6.94295 4.95673 -2.95233e-19)
(7.09155 5.02951 2.55274e-18)
(7.25014 5.09526 -6.43147e-19)
(7.41946 5.15253 -4.89962e-19)
(7.60022 5.19949 2.68418e-18)
(7.79231 5.23355 -1.17353e-18)
(7.99529 5.25132 -1.50153e-18)
(8.20919 5.24966 -1.185e-18)
(8.43638 5.22792 -7.73306e-19)
(8.68292 5.18962 6.0131e-18)
(8.95816 5.14113 -6.23321e-18)
(9.27041 5.08643 2.37486e-22)
(9.62146 5.02097 3.72922e-18)
(9.98482 4.92516 -3.35976e-18)
(10.3274 4.78362 3.2903e-18)
(10.6291 4.58206 -1.46345e-18)
(10.8755 4.31554 -1.71611e-18)
(11.0604 3.98744 4.68163e-18)
(11.1847 3.60706 -1.7369e-18)
(11.2531 3.18633 2.40356e-18)
(11.2725 2.73765 -6.3295e-18)
(11.2494 2.27229 7.68839e-19)
(11.1888 1.79997 2.54024e-18)
(11.0937 1.32895 -3.29055e-19)
(10.9647 0.866717 -5.30309e-19)
(10.8004 0.419541 1.76384e-19)
(10.598 -0.00466371 -9.79567e-20)
(10.3549 -0.396671 3.61377e-19)
(10.0717 -0.746047 -1.04999e-18)
(9.74859 -1.04731 7.89325e-19)
(9.39096 -1.29209 -3.89986e-19)
(9.01165 -1.47308 3.29924e-19)
(8.61124 -1.60047 5.70464e-20)
(6.05235 4.08417 -1.52484e-20)
(6.18437 4.16905 5.70774e-20)
(6.30706 4.247 -3.43377e-19)
(6.42347 4.32072 5.02169e-19)
(6.53693 4.39157 4.56844e-19)
(6.64994 4.46024 2.65521e-18)
(6.76463 4.52691 -3.94479e-19)
(6.8828 4.59142 -4.79748e-18)
(7.00608 4.65293 3.02569e-19)
(7.13615 4.70995 4.62939e-18)
(7.27394 4.76093 -5.46586e-18)
(7.4202 4.80461 1.51032e-18)
(7.57573 4.83955 1.19265e-18)
(7.7409 4.86411 -1.91381e-18)
(7.91578 4.87635 4.42529e-18)
(8.09995 4.8737 -6.5432e-19)
(8.29279 4.85302 -1.22734e-17)
(8.49395 4.81107 1.04514e-17)
(8.70456 4.74571 -3.76844e-18)
(8.92733 4.65601 -2.67678e-18)
(9.1673 4.54294 3.51987e-18)
(9.41846 4.40696 3.57095e-18)
(9.67078 4.24955 -5.29242e-18)
(9.91734 4.06526 4.98795e-18)
(10.1475 3.84991 -1.36144e-18)
(10.3511 3.60133 1.26468e-18)
(10.5194 3.32027 -2.36793e-18)
(10.6459 3.01035 2.44031e-18)
(10.7266 2.67761 8.56226e-19)
(10.7598 2.32945 -4.53219e-18)
(10.7453 1.97394 5.49985e-19)
(10.6843 1.61913 -2.13195e-19)
(10.5789 1.27282 2.38363e-18)
(10.4318 0.941345 2.10063e-20)
(10.2461 0.631192 -1.65664e-19)
(10.0264 0.348607 -2.53342e-19)
(9.77823 0.098945 -1.08671e-19)
(9.50739 -0.116931 -1.92611e-19)
(9.21903 -0.295332 -5.47888e-19)
(8.92144 -0.433362 5.15292e-20)
(8.61914 -0.537019 8.2198e-20)
(6.17826 3.93916 1.62711e-20)
(6.30015 4.01058 -1.74639e-19)
(6.4138 4.07526 -6.77088e-20)
(6.52159 4.13566 7.3356e-19)
(6.62629 4.19303 4.22865e-19)
(6.73 4.24798 1.983e-18)
(6.83451 4.30078 -2.32711e-18)
(6.94133 4.35127 1.12413e-18)
(7.05175 4.39912 1.79382e-18)
(7.16709 4.44305 -3.58742e-18)
(7.28833 4.48167 -3.72017e-18)
(7.41615 4.51383 4.47644e-18)
(7.55116 4.53826 3.5524e-18)
(7.69366 4.55347 -5.1249e-18)
(7.84387 4.5579 5.77905e-18)
(8.00172 4.54981 3.69036e-18)
(8.16686 4.52718 -2.95792e-18)
(8.33845 4.48747 -4.62186e-18)
(8.51542 4.42772 -5.57035e-19)
(8.6964 4.34446 3.60955e-18)
(8.88057 4.23514 -7.05732e-18)
(9.06115 4.10029 5.54397e-18)
(9.23246 3.94452 6.84893e-19)
(9.39327 3.76803 1.4436e-18)
(9.54024 3.57208 -2.52783e-18)
(9.66941 3.35797 1.22746e-18)
(9.77655 3.12752 -1.10506e-18)
(9.85768 2.88317 -7.5864e-19)
(9.90948 2.62826 1.4921e-18)
(9.9298 2.3668 -9.79953e-19)
(9.9176 2.10333 -4.93995e-19)
(9.87318 1.84256 1.86134e-18)
(9.79771 1.58916 -2.40287e-18)
(9.69348 1.34697 1.24112e-18)
(9.56305 1.11988 7.54029e-20)
(9.41014 0.911755 -1.36823e-18)
(9.23871 0.72581 9.34595e-19)
(9.05256 0.562399 1.61073e-19)
(8.85525 0.423622 -3.99935e-19)
(8.65206 0.311017 -1.14419e-19)
(8.44635 0.22158 -8.31929e-20)
(6.27983 3.81473 -1.91678e-20)
(6.39269 3.87499 -4.19543e-20)
(6.49816 3.92872 6.8211e-20)
(6.59815 3.97823 4.73269e-19)
(6.69499 4.0246 -7.91997e-19)
(6.79049 4.06841 6.1654e-19)
(6.88616 4.10993 4.82428e-19)
(6.98328 4.14906 -1.06242e-18)
(7.08295 4.18547 2.56391e-19)
(7.18606 4.2185 4.62894e-19)
(7.29358 4.24673 -1.45838e-18)
(7.40612 4.26916 2.20289e-18)
(7.52417 4.28468 -4.50332e-18)
(7.64788 4.29203 2.79556e-18)
(7.77732 4.28985 1.61332e-18)
(7.9124 4.27662 1.0586e-18)
(8.05282 4.25074 4.37657e-19)
(8.19799 4.21042 -7.39333e-19)
(8.34699 4.15363 -2.13847e-18)
(8.49834 4.07792 4.17909e-18)
(8.6503 3.98097 1.68032e-19)
(8.79572 3.86294 -4.47226e-18)
(8.92898 3.7274 2.00724e-18)
(9.04878 3.57482 2.21004e-18)
(9.1531 3.40702 -4.47802e-18)
(9.24023 3.22625 4.0118e-18)
(9.3086 3.03501 -3.38082e-18)
(9.35687 2.83596 1.80677e-19)
(9.38395 2.63198 1.05644e-18)
(9.3893 2.42605 2.66225e-18)
(9.3728 2.22127 -3.50701e-18)
(9.33506 2.02064 1.01134e-18)
(9.27708 1.82709 1.77969e-18)
(9.20045 1.64288 -1.4254e-18)
(9.10692 1.47032 -1.6276e-19)
(8.99894 1.31171 -4.56681e-20)
(8.8791 1.16893 2.49837e-19)
(8.74971 1.04189 -1.73785e-19)
(8.61319 0.9317 1.07629e-19)
(8.47268 0.839071 -1.87759e-19)
(8.33077 0.762608 -1.26698e-20)
(6.36267 3.70655 2.08186e-20)
(6.4673 3.75748 -1.97615e-19)
(6.56521 3.80213 -3.54156e-19)
(6.65801 3.84264 4.43179e-19)
(6.74765 3.87998 6.27955e-20)
(6.83571 3.91467 -4.00602e-19)
(6.92349 3.94698 -1.01073e-18)
(7.01208 3.97685 6.81927e-19)
(7.10237 4.00399 1.37087e-18)
(7.19507 4.02794 2.49879e-20)
(7.29089 4.04763 3.64331e-19)
(7.39043 4.06204 1.4411e-18)
(7.49407 4.07023 -1.10324e-18)
(7.60188 4.07112 -1.95254e-18)
(7.71379 4.06362 1.74102e-19)
(7.82962 4.04647 -5.53287e-19)
(7.949 4.01836 1.40083e-18)
(8.07135 3.97781 -1.30539e-18)
(8.19581 3.92337 -8.57691e-19)
(8.32115 3.85329 -2.41453e-18)
(8.44593 3.76614 3.17294e-18)
(8.56433 3.66264 1.50049e-18)
(8.67178 3.54608 -1.58989e-18)
(8.76712 3.41686 -1.50933e-18)
(8.84863 3.27658 -8.28108e-19)
(8.91513 3.1271 3.04402e-18)
(8.96571 2.97056 1.80296e-18)
(8.99987 2.80922 1.5776e-18)
(9.01733 2.6454 -3.44958e-18)
(9.01826 2.48145 1.079e-18)
(9.00307 2.31962 -1.33077e-18)
(8.9726 2.16207 7.25975e-19)
(8.92788 2.01074 -1.1206e-18)
(8.87025 1.86711 1.72445e-18)
(8.80112 1.73257 -8.8383e-19)
(8.72226 1.60856 3.47077e-19)
(8.63552 1.49616 -7.4217e-19)
(8.54244 1.39512 5.881e-19)
(8.44469 1.30598 -4.4869e-19)
(8.34416 1.22901 -1.14894e-20)
(8.24303 1.16372 7.14969e-20)
(6.43093 3.61155 2.75557e-20)
(6.52798 3.65461 9.35425e-20)
(6.61888 3.69163 8.08047e-19)
(6.705 3.72465 -1.61216e-18)
(6.788 3.75449 -2.4491e-19)
(6.86925 3.78166 1.43296e-19)
(6.94988 3.80642 9.2644e-19)
(7.03082 3.82871 -1.27334e-18)
(7.11279 3.84832 5.5509e-18)
(7.19642 3.8648 -7.34341e-18)
(7.28209 3.87757 3.47374e-18)
(7.3704 3.88552 8.39995e-19)
(7.46165 3.88787 -1.23056e-18)
(7.55586 3.8837 -4.39625e-18)
(7.65284 3.87215 1.15578e-18)
(7.75235 3.85218 -2.32958e-18)
(7.85399 3.82281 7.50962e-18)
(7.95718 3.78288 -2.09184e-18)
(8.0611 3.73131 -4.73866e-19)
(8.16463 3.66679 1.33546e-18)
(8.26653 3.58843 -6.53069e-18)
(8.3622 3.4973 3.94743e-18)
(8.44824 3.39645 2.29554e-18)
(8.52387 3.28643 -2.14739e-18)
(8.58794 3.16866 -5.32292e-19)
(8.63963 3.04471 1.86302e-18)
(8.67848 2.91632 -2.98308e-18)
(8.70427 2.78523 2.11342e-18)
(8.71706 2.65322 1.76528e-18)
(8.71714 2.52199 -1.31982e-18)
(8.70511 2.39316 -2.20372e-18)
(8.68172 2.26824 2.23889e-19)
(8.64796 2.14852 1.0928e-18)
(8.6049 2.03496 4.72291e-19)
(8.55369 1.92839 -1.22991e-18)
(8.49563 1.82975 1.26036e-18)
(8.43206 1.73962 -7.97456e-19)
(8.36408 1.65773 3.43467e-19)
(8.2929 1.58433 9.13498e-20)
(8.21963 1.51946 -2.87538e-19)
(8.14619 1.46326 -3.717e-20)
(6.48759 3.52745 1.64617e-20)
(6.57761 3.56382 -8.55104e-20)
(6.66198 3.59442 -3.37877e-19)
(6.74186 3.62117 -7.18432e-19)
(6.81869 3.64479 1.72169e-18)
(6.89366 3.66574 -2.55077e-18)
(6.96776 3.68429 2.83705e-18)
(7.04177 3.70041 -7.26446e-18)
(7.11631 3.7139 7.91718e-18)
(7.19185 3.72439 -3.69424e-18)
(7.26869 3.73148 -4.80825e-18)
(7.34724 3.7343 1.60667e-18)
(7.42777 3.73208 5.81188e-18)
(7.51026 3.72407 2.78826e-18)
(7.59449 3.70955 -5.03603e-18)
(7.68017 3.68775 3.61621e-18)
(7.76687 3.65788 -2.7815e-18)
(7.85404 3.61914 -6.17338e-19)
(7.94095 3.57069 7.90992e-19)
(8.02662 3.51169 -3.4264e-18)
(8.10998 3.44149 8.53922e-18)
(8.18736 3.36139 -3.88615e-18)
(8.25625 3.27408 3.13805e-19)
(8.31621 3.18015 9.47088e-19)
(8.36647 3.08083 -9.20042e-19)
(8.40659 2.97747 4.55466e-19)
(8.43641 2.87144 1.1742e-18)
(8.45593 2.76412 -1.31271e-19)
(8.46538 2.65682 -1.1221e-19)