/*--------------------------------*- C++ -*----------------------------------*\
| =========                 |                                                 |
| \\      /  F ield         | OpenFOAM: The Open Source CFD Toolbox           |
|  \\    /   O peration     | Version:  2312                                  |
|   \\  /    A nd           | Website:  www.openfoam.com                      |
|    \\/     M anipulation  |                                                 |
\*---------------------------------------------------------------------------*/
FoamFile
{
    version     2.0;
    format      ascii;
    arch        "LSB;label=32;scalar=64";
    class       volScalarField;
    location    "248";
    object      div(phi);
}
// * * * * * * * * * * * * * * * * * * * * * * * * * * * * * * * * * * * * * //

dimensions      [0 0 -1 0 0 0 0];

internalField   nonuniform List<scalar> 
11040
(
7.39976e-06
-1.02264e-06
1.29306e-06
-6.44979e-07
-6.9704e-07
-2.97685e-06
-3.75183e-06
-4.34753e-06
-5.75248e-06
-3.92107e-06
-5.66734e-06
-3.54176e-06
-3.65379e-06
-5.31647e-06
-3.52e-06
-4.32567e-06
-2.00497e-06
-4.77093e-06
-1.8009e-08
-2.77661e-06
4.52339e-06
4.71823e-06
5.61583e-06
4.35621e-06
-1.83695e-06
1.82266e-06
-2.6141e-06
1.94524e-06
-1.932e-06
1.63633e-06
-1.70659e-06
2.19182e-06
-1.12533e-06
2.21547e-06
-9.52381e-07
2.76142e-06
-6.25022e-07
2.6963e-06
6.70321e-08
9.66478e-06
1.57506e-05
-5.44099e-06
-1.0749e-06
1.96849e-06
5.62632e-06
7.11391e-06
8.12113e-06
8.37637e-06
9.14657e-06
8.69747e-06
8.98416e-06
8.49264e-06
8.53136e-06
8.34349e-06
5.78693e-06
6.42847e-06
4.41472e-06
6.4405e-06
3.11002e-06
7.61361e-06
3.28624e-06
7.3735e-06
8.04357e-06
7.96676e-06
6.71131e-06
2.48265e-06
3.56772e-06
1.02187e-06
2.85476e-06
8.74067e-07
2.29343e-06
7.17361e-07
2.28059e-06
7.75043e-07
2.01079e-06
5.82661e-07
1.84217e-06
2.66532e-07
1.16869e-06
-8.28542e-08
3.42501e-06
3.07863e-06
2.78987e-06
-7.40311e-07
1.00655e-06
5.82845e-07
3.62291e-07
-5.05572e-07
-9.32532e-07
-1.19181e-06
-1.93941e-06
-1.86313e-06
-2.77333e-06
-2.0901e-06
-3.17652e-06
-3.25245e-06
-3.1125e-06
-3.07007e-06
-2.81743e-06
-3.17602e-06
-1.15307e-06
-1.78901e-06
1.00902e-07
5.18018e-07
5.01277e-07
4.89483e-07
-1.65109e-06
-9.31461e-08
-1.70004e-06
4.04666e-08
-1.29339e-06
8.96754e-08
-1.01887e-06
3.79629e-07
-6.82834e-07
5.07016e-07
-4.8124e-07
7.72552e-07
-2.39204e-07
9.31642e-07
2.23831e-07
3.33494e-06
3.69032e-06
-5.23979e-06
-1.65e-06
-6.51585e-07
-1.32309e-06
-7.98375e-08
-1.47532e-07
1.40037e-06
2.08088e-06
3.34355e-06
3.96564e-06
4.64462e-06
5.16439e-06
5.14248e-06
4.79482e-06
4.80503e-06
4.52336e-06
4.72688e-06
4.52498e-06
5.41238e-06
4.18552e-06
4.94603e-06
5.05667e-06
4.67075e-06
4.03506e-06
2.23331e-06
2.35641e-06
1.33824e-06
1.79989e-06
1.04552e-06
1.43946e-06
8.46419e-07
1.29489e-06
7.29092e-07
1.08191e-06
5.27873e-07
8.5865e-07
2.51269e-07
4.4382e-07
8.06676e-08
8.95847e-07
3.4342e-07
-1.64501e-06
-1.86279e-07
-8.44218e-07
3.4755e-07
-6.60353e-07
8.34819e-08
1.25235e-07
6.42469e-07
5.15849e-07
7.28122e-07
5.16013e-07
4.5515e-07
-3.25623e-07
-5.13905e-07
-8.29799e-07
-8.26963e-07
-1.05471e-06
-5.05496e-07
-3.1735e-07
-4.97791e-07
-1.76951e-07
-3.11457e-07
-7.87563e-08
-2.4949e-07
-5.69167e-07
-3.87159e-07
-4.74092e-07
-2.69677e-07
-3.20505e-07
-1.80421e-07
-1.83975e-07
-3.84418e-08
-3.88076e-08
3.81663e-08
5.19672e-08
1.17118e-07
1.36508e-07
1.48411e-07
3.51972e-07
7.78113e-07
9.00941e-07
1.85961e-06
-9.48406e-07
9.99529e-07
-1.94812e-06
-4.52079e-07
-7.12736e-07
-8.10521e-07
-3.83535e-07
-8.65e-08
6.44387e-07
7.9445e-07
1.38963e-06
1.71669e-06
1.97939e-06
2.27822e-06
2.46432e-06
2.90482e-06
3.0968e-06
3.34657e-06
2.90628e-06
3.01414e-06
2.66446e-06
2.56774e-06
2.08344e-06
1.63776e-06
1.36222e-06
1.16269e-06
1.0323e-06
9.29409e-07
8.02835e-07
7.59337e-07
6.52914e-07
6.25998e-07
4.96234e-07
4.76328e-07
3.31853e-07
2.92891e-07
1.39057e-07
2.1255e-07
1.77325e-07
2.48145e-07
-3.52025e-08
1.08204e-06
-2.14121e-06
5.91875e-08
-9.09687e-08
4.57006e-08
3.28458e-07
1.14939e-07
7.69644e-07
6.2521e-07
1.16878e-06
1.05829e-06
9.4819e-07
8.56373e-07
7.62968e-07
8.28032e-07
7.44959e-07
9.34937e-07
5.55259e-07
4.42432e-07
2.66964e-08
9.03216e-08
8.05684e-08
1.25144e-07
-1.53696e-08
1.73649e-07
8.10188e-08
2.31917e-07
1.26278e-07
2.45185e-07
1.41707e-07
2.57342e-07
1.43367e-07
2.38425e-07
1.09648e-07
1.97371e-07
4.98488e-08
1.2373e-07
2.27259e-08
1.28724e-07
4.0979e-08
1.3697e-06
-1.04786e-06
-7.57017e-07
7.17812e-07
2.52108e-07
1.45683e-06
1.02499e-08
5.30749e-07
-3.96935e-07
4.21143e-07
-3.00903e-07
-1.15946e-07
3.90655e-07
4.93185e-07
6.04733e-07
8.86865e-07
1.04762e-06
1.26356e-06
1.26178e-06
1.21625e-06
1.16235e-06
1.06754e-06
9.21263e-07
8.44258e-07
7.23807e-07
6.50889e-07
4.88892e-07
5.18168e-07
3.91683e-07
4.26701e-07
3.16663e-07
3.49181e-07
2.46076e-07
2.69292e-07
1.74319e-07
1.83904e-07
9.09635e-08
1.01221e-07
4.85455e-08
7.80945e-08
9.90671e-08
1.02226e-06
-2.18021e-06
1.16903e-06
-7.28326e-07
2.15844e-06
-1.56534e-07
7.36682e-07
-9.99379e-07
1.87379e-07
-8.78229e-07
-4.10946e-07
4.00873e-07
5.04073e-07
7.55802e-07
9.46051e-07
8.89883e-07
1.04746e-06
9.27048e-07
7.98523e-07
5.30888e-07
3.89833e-07
3.27929e-07
4.00826e-07
3.36034e-07
3.77019e-07
2.86831e-07
3.9611e-07
2.72432e-07
3.85081e-07
2.47378e-07
3.4807e-07
2.05949e-07
2.94549e-07
1.4766e-07
2.22367e-07
7.35854e-08
1.32614e-07
-6.5631e-09
4.84311e-08
-4.87463e-08
2.49834e-08
-1.47065e-06
6.80515e-07
-1.11132e-06
1.55664e-06
1.34154e-08
8.5999e-07
-5.92587e-07
1.52497e-07
-5.10973e-07
-3.30584e-07
4.32711e-07
2.33836e-07
6.13801e-07
5.79735e-07
2.97969e-07
3.76544e-07
2.59079e-07
7.00717e-08
2.76525e-07
1.99999e-07
2.35717e-07
2.36915e-07
2.1418e-07
2.29225e-07
2.62886e-07
2.86535e-07
-4.89381e-08
2.79555e-07
-3.41709e-08
2.91917e-07
-1.36589e-08
2.77636e-07
-1.58615e-08
2.42003e-07
-3.69574e-08
1.86783e-07
-7.14132e-08
1.17251e-07
-1.04204e-07
5.81913e-08
-1.01884e-07
-1.25531e-07
-3.24263e-07
2.57685e-07
3.34998e-07
4.84741e-07
2.15056e-07
2.0011e-07
1.60488e-07
5.39218e-08
4.5096e-07
2.01201e-07
4.04074e-07
3.50183e-07
-1.30786e-07
-6.21959e-08
-1.59876e-07
-3.43621e-07
1.79336e-07
4.28978e-08
2.57964e-07
2.44608e-07
2.58579e-07
2.58796e-07
3.29438e-07
2.88737e-07
4.22773e-08
2.27038e-07
-1.83619e-07
2.10442e-07
-1.85909e-07
2.30337e-07
-1.71852e-07
2.40268e-07
-1.63965e-07
2.3341e-07
-1.64718e-07
2.11679e-07
-1.6104e-07
1.79539e-07
-1.41434e-07
1.82798e-07
-6.61932e-09
-4.26726e-08
1.93843e-07
2.83656e-07
3.52321e-07
4.03423e-07
3.76901e-07
4.58815e-07
4.31262e-07
4.29542e-07
3.55678e-07
3.35761e-07
-1.17641e-07
-1.49401e-07
-2.0585e-07
-3.9135e-07
7.70168e-08
-2.17136e-07
7.79773e-08
1.24291e-08
5.4966e-08
6.07357e-08
1.56622e-07
8.7761e-08
2.52215e-07
1.06531e-07
5.04156e-09
5.47718e-08
-5.92237e-08
6.66358e-08
-6.73444e-08
1.03663e-07
-7.17628e-08
1.25846e-07
-8.50594e-08
1.46241e-07
-9.4907e-08
1.45025e-07
-9.76261e-08
1.63682e-07
-6.69841e-08
1.55067e-07
1.4806e-09
2.24215e-07
1.38545e-07
3.03662e-07
2.72707e-07
3.48276e-07
3.97128e-07
3.99197e-07
4.14064e-07
3.30313e-07
1.66825e-07
3.28572e-08
9.20954e-09
-1.35579e-07
5.63964e-08
-2.60841e-07
-6.26982e-08
-1.93323e-07
-1.79102e-07
-2.24493e-07
-9.39622e-08
-2.07482e-07
2.27628e-07
-9.10004e-08
2.88736e-07
-7.59643e-08
2.50724e-07
-1.02743e-07
2.39389e-07
-9.19111e-08
2.28314e-07
-9.24763e-08
2.05953e-07
-8.08998e-08
1.73069e-07
-8.7472e-08
1.3371e-07
-7.40063e-08
1.05385e-07
-6.87276e-08
1.80014e-07
-3.47405e-08
2.30249e-07
2.49026e-08
2.67009e-07
1.08159e-07
2.82235e-07
2.10082e-07
2.96878e-07
3.03072e-07
2.75902e-07
2.60402e-07
1.93371e-07
1.62088e-07
1.25362e-07
-3.22449e-08
-7.8657e-10
-1.5415e-07
-1.87357e-07
-2.61426e-07
-1.45085e-07
-2.60966e-07
6.46176e-08
-1.58972e-07
3.30081e-07
-4.65074e-08
3.82142e-07
-7.24957e-08
3.94338e-07
-1.02872e-07
3.97865e-07
-1.44397e-07
3.90819e-07
-1.78699e-07
3.67139e-07
-2.23722e-07
3.29628e-07
-2.53537e-07
2.82951e-07
-2.70868e-07
2.22834e-07
1.54906e-07
-4.89459e-08
2.10032e-07
-2.49745e-08
2.44358e-07
1.591e-08
2.42329e-07
8.21708e-08
2.32692e-07
1.47284e-07
2.08483e-07
1.78763e-07
1.68003e-07
1.67015e-07
1.42478e-07
1.31114e-07
3.8177e-08
-1.11964e-08
-6.02711e-08
-2.46471e-08
-4.57511e-08
1.12928e-08
-1.84745e-09
1.61732e-07
1.11777e-07
2.31256e-07
1.3587e-07
2.42156e-07
1.15781e-07
2.37046e-07
9.00323e-08
2.22595e-07
4.94126e-08
1.98214e-07
7.98157e-09
1.64101e-07
-4.45148e-08
1.23666e-07
-8.13913e-08
8.975e-08
-1.20862e-07
1.26962e-07
-5.15596e-08
1.80555e-07
-4.39865e-08
2.13789e-07
-3.6986e-08
2.08908e-07
-1.56299e-08
1.80998e-07
1.71633e-08
1.41463e-07
5.12006e-08
1.08478e-07
8.66289e-08
9.8408e-08
1.21255e-07
9.29598e-08
1.13743e-07
7.85339e-08
1.11759e-07
8.20312e-08
1.3605e-07
9.56442e-08
1.77841e-07
1.19408e-07
2.1224e-07
1.18244e-07
2.17645e-07
1.00846e-07
2.21949e-07
7.38774e-08
2.0779e-07
3.94755e-08
1.94306e-07
-7.42153e-10
1.62471e-07
-4.45106e-08
1.37109e-07
-8.54826e-08
1.16319e-07
-1.05144e-07
1.0648e-07
-5.35264e-08
1.47418e-07
-5.80296e-08
1.70192e-07
-6.66103e-08
1.64417e-07
-6.6752e-08
1.37943e-07
-5.51698e-08
1.02538e-07
-2.93012e-08
7.37536e-08
8.96482e-09
6.2885e-08
5.3006e-08
6.65484e-08
8.62466e-08
7.28002e-08
1.0719e-07
7.48721e-08
1.2948e-07
7.80744e-08
1.53883e-07
7.6522e-08
1.74625e-07
6.857e-08
1.87987e-07
5.35159e-08
1.95647e-07
3.31146e-08
1.94983e-07
6.79165e-09
1.87189e-07
-2.33388e-08
1.7206e-07
-5.47619e-08
1.55473e-07
-8.25489e-08
1.46772e-07
-1.01498e-07
6.90389e-08
-2.32844e-08
1.03599e-07
-2.82054e-08
1.22511e-07
-3.9827e-08
1.22603e-07
-4.96968e-08
1.06627e-07
-5.33416e-08
8.10905e-08
-4.59064e-08
5.57038e-08
-2.50332e-08
3.87914e-08
5.56731e-09
3.32225e-08
3.64657e-08
3.5481e-08
5.9574e-08
3.69245e-08
8.10624e-08
3.80918e-08
1.0309e-07
3.64022e-08
1.24032e-07
3.19292e-08
1.41523e-07
2.40337e-08
1.54458e-07
1.16213e-08
1.60097e-07
-6.14257e-09
1.58369e-07
-2.83675e-08
1.50061e-07
-5.25957e-08
1.40229e-07
-7.87525e-08
1.40923e-07
-9.16653e-08
6.31519e-08
-1.94511e-08
7.1808e-08
-2.18249e-08
7.99341e-08
-3.41275e-08
7.76477e-08
-4.64641e-08
6.7082e-08
-5.36856e-08
5.06375e-08
-5.19288e-08
3.34503e-08
-4.0664e-08
1.98259e-08
-2.25519e-08
1.07089e-08
-2.39863e-09
7.71962e-09
1.45314e-08
5.86551e-09
3.0631e-08
3.62097e-09
4.8811e-08
5.8157e-10
6.78437e-08
-2.76098e-09
8.63916e-08
-7.84831e-09
1.0198e-07
-1.54602e-08
1.12596e-07
-2.73973e-08
1.17425e-07
-4.22639e-08
1.17234e-07
-5.92803e-08
1.16606e-07
-7.65047e-08
1.25684e-07
-8.75519e-08
-2.40517e-08
3.99157e-08
-6.61773e-09
2.97489e-08
1.36797e-08
1.01942e-08
2.16179e-08
-4.48964e-09
2.2129e-08
-1.69861e-08
1.66711e-08
-2.25699e-08
7.35437e-09
-2.26849e-08
-3.59539e-09
-1.69358e-08
-1.27038e-08
-7.09897e-09
-1.64595e-08
8.33443e-10
-1.56704e-08
9.01508e-09
-1.59259e-08
1.98456e-08
-1.65205e-08
3.55997e-08
-1.67216e-08
5.21136e-08
-1.77146e-08
6.93369e-08
-2.05241e-08
8.24488e-08
-2.63953e-08
9.18314e-08
-3.55488e-08
9.81609e-08
-4.60375e-08
1.02912e-07
-5.8495e-08
1.14704e-07
-6.98343e-08
8.15144e-08
-8.20677e-08
8.56712e-08
-8.0661e-08
1.03095e-07
-8.75824e-08
1.10291e-07
-9.57206e-08
1.07489e-07
-1.00124e-07
9.99839e-08
-9.88023e-08
8.55039e-08
-8.99031e-08
6.65503e-08
-7.39235e-08
4.56854e-08
-5.15517e-08
2.43533e-08
-2.82913e-08
6.41434e-09
-8.74006e-09
-1.37987e-08
9.6887e-09
-2.94847e-08
2.85479e-08
-4.53962e-08
4.67451e-08
-5.51385e-08
6.34058e-08
-6.73035e-08
7.83042e-08
-7.74392e-08
9.1049e-08
-8.35922e-08
1.02337e-07
-8.98143e-08
1.0977e-07
-9.80316e-08
1.19815e-07
-1.05515e-07
-1.45564e-08
-1.62765e-10
-2.52646e-08
2.49616e-08
-1.36705e-08
3.43413e-08
-1.28746e-08
4.13004e-08
-1.43308e-08
4.2315e-08
-1.46524e-08
4.41699e-08
-1.24155e-08
3.93993e-08
-7.61572e-09
3.58898e-08
5.77674e-11
2.81229e-08
8.95825e-09
2.41844e-08
1.69688e-08
1.89958e-08
2.57062e-08
1.52738e-08
3.55014e-08
8.99723e-09
4.58334e-08
5.12348e-09
5.67833e-08
-1.11987e-09
6.96375e-08
-8.45869e-09
8.15085e-08
-4.56887e-09
9.70486e-08
-1.07032e-08
1.06057e-07
-1.13165e-08
1.11581e-07
-2.50054e-08
1.20289e-07
4.12809e-08
-4.30358e-08
1.07629e-08
-1.76179e-08
1.79757e-08
-1.28382e-09
1.59732e-08
8.87372e-09
1.14847e-08
1.5656e-08
9.12457e-09
2.02317e-08
7.73647e-09
2.20005e-08
9.55213e-09
2.17215e-08
1.33195e-08
1.99187e-08
1.81118e-08
1.93309e-08
2.20919e-08
1.92237e-08
2.74167e-08
1.8263e-08
3.55869e-08
1.59542e-08
4.42608e-08
1.33684e-08
5.59423e-08
1.36001e-08
6.37306e-08
6.05867e-09
7.57701e-08
6.84523e-09
8.19148e-08
2.3193e-09
8.43993e-08
-1.47685e-08
8.16464e-08
-3.3667e-08
8.02398e-08
-3.95201e-08
1.24697e-08
-5.09077e-08
3.35969e-08
-4.05772e-08
4.99315e-08
-3.99849e-08
5.83994e-08
-4.20314e-08
6.05058e-08
-4.24966e-08
5.98646e-08
-3.99824e-08
5.52889e-08
-3.38062e-08
4.8377e-08
-2.42339e-08
3.94064e-08
-1.27111e-08
2.9206e-08
-2.1201e-09
1.87572e-08
6.60311e-09
5.96295e-09
1.51024e-08
-5.40577e-09
2.3054e-08
-1.81225e-08
3.15162e-08
-3.05778e-08
4.16019e-08
-3.44163e-08
5.34453e-08
-4.01638e-08
6.58805e-08
-3.81525e-08
7.41804e-08
-3.9114e-08
7.49231e-08
-5.59531e-08
6.89003e-08
2.15077e-08
-3.63693e-08
-9.00778e-09
-1.78817e-08
1.02395e-08
-6.41835e-09
1.78366e-08
-3.52818e-09
2.29773e-08
-3.32184e-09
2.45229e-08
-3.01114e-09
2.67065e-08
-1.1801e-09
2.63337e-08
2.52688e-09
2.66108e-08
7.82478e-09
2.4451e-08
1.29779e-08
2.31509e-08
1.77465e-08
2.01586e-08
2.24565e-08
1.71388e-08
2.72951e-08
1.01175e-08
3.38861e-08
4.21467e-09
3.94962e-08
2.61904e-09
4.94858e-08
-3.38885e-09
5.71843e-08
-1.98204e-10
6.62135e-08
-4.12708e-09
6.80979e-08
-1.15305e-08
6.89329e-08
-2.60904e-08
-1.95e-08
-5.1866e-09
-3.12174e-08
3.01884e-09
-1.32943e-08
9.95559e-09
-2.5245e-09
1.13525e-08
3.8315e-09
8.15272e-09
7.85226e-09
6.69884e-09
1.10959e-08
5.54601e-09
1.34377e-08
7.26767e-09
1.52019e-08
1.05777e-08
1.62459e-08
1.34816e-08
1.72416e-08
1.80221e-08
1.82519e-08
2.31702e-08
1.77577e-08
2.93492e-08
1.80215e-08
3.21379e-08
1.02374e-08
3.64106e-08
6.56954e-09
3.76855e-08
-2.43468e-09
3.98854e-08
-1.12353e-08
4.17295e-08
-1.88124e-08
4.38716e-08
-2.7074e-08
4.64697e-08
-3.41272e-08
1.39201e-08
-3.45021e-08
1.49847e-09
-3.08042e-08
1.40421e-08
-2.28188e-08
2.5112e-08
-2.14917e-08
2.96957e-08
-2.23377e-08
3.11436e-08
-2.25552e-08
3.02783e-08
-2.08145e-08
2.80147e-08
-1.6855e-08
2.5083e-08
-1.06653e-08
2.03008e-08
-3.40476e-09
1.67416e-08
3.05201e-09
1.24533e-08
9.72624e-09
6.52417e-09
1.53906e-08
-1.23101e-09
2.10056e-08
-7.03863e-09
2.57766e-08
-1.63936e-08
3.15427e-08
-2.0804e-08
3.70107e-08
-2.49467e-08
4.31327e-08
-2.81751e-08
4.70985e-08
-3.22997e-08
5.05363e-08
-3.7231e-08
-1.5778e-08
-7.3629e-10
-2.51782e-08
-7.68634e-09
-1.31169e-08
2.3267e-09
-5.70475e-09
7.78089e-09
-3.64055e-09
9.70959e-09
-3.32751e-09
1.16454e-08
-2.82371e-09
1.21723e-08
-1.38976e-09
1.40468e-08
1.85408e-09
1.40734e-08
7.51667e-09
1.61837e-08
1.11499e-08
1.82963e-08
1.84548e-08
1.83495e-08
2.73143e-08
2.33368e-08
3.4566e-08
2.35852e-08
4.25303e-08
2.11256e-08
4.7435e-08
2.09069e-08
5.15063e-08
1.48412e-08
5.13641e-08
7.7956e-09
5.09064e-08
-2.0034e-09
4.81327e-08
-1.15091e-08
5.07393e-08
5.24308e-09
-1.99419e-08
-3.26257e-09
-2.00108e-08
-2.20268e-10
-1.00564e-08
3.93904e-09
-4.10532e-09
3.64768e-09
-6.98392e-10
2.24859e-09
1.94225e-09
5.77998e-10
4.14371e-09
1.53645e-09
6.54248e-09
3.59013e-09
9.85212e-09
5.20763e-09
1.00999e-08
1.00505e-08
1.24399e-08
1.44499e-08
1.65395e-08
1.91766e-08
1.32325e-08
2.47767e-08
1.48433e-08
2.81425e-08
1.09795e-08
3.03266e-08
5.56138e-09
3.16766e-08
-6.74182e-10
3.31334e-08
-5.81358e-09
3.4522e-08
-1.10133e-08
3.53939e-08
-1.76241e-08
3.92766e-08
-9.22565e-09
7.48391e-09
-2.0273e-08
1.42113e-09
-1.72886e-08
6.97198e-09
-1.32771e-08
1.20835e-08
-1.30991e-08
1.37798e-08
-1.3506e-08
1.36863e-08
-1.28531e-08
1.42283e-08
-1.12282e-08
1.34532e-08
-7.44534e-09
1.14076e-08
-2.54607e-09
1.26864e-08
1.27273e-09
1.02355e-08
5.32294e-09
6.08e-09
8.38543e-09
3.54722e-09
1.08353e-08
-4.58424e-09
1.31809e-08
-1.17526e-08
1.5782e-08
-1.60139e-08
2.00067e-08
-1.89353e-08
2.35703e-08
-2.07397e-08
2.79266e-08
-2.2818e-08
3.09915e-08
-2.42202e-08
3.4146e-08
5.18249e-09
-1.05506e-08
1.909e-09
-1.30792e-08
-2.82671e-09
-6.3106e-09
1.72899e-09
-2.99874e-09
3.88782e-09
-2.33435e-09
4.42707e-09
-1.6074e-09
6.14753e-09
-1.50982e-09
7.29717e-09
1.11192e-09
8.01463e-09
4.67365e-09
1.16388e-08
5.5951e-09
1.01759e-08
7.43488e-09
8.7165e-09
8.14615e-09
6.6217e-09
7.71016e-09
2.44065e-11
7.9206e-09
-5.88417e-09
9.89202e-09
-8.74014e-09
1.20368e-08
-1.23598e-08
1.44954e-08
-1.4471e-08
1.6639e-08
-1.77721e-08
1.962e-08
-1.99116e-08
2.19029e-08
-2.42814e-08
-4.32773e-09
7.2521e-09
-1.03812e-08
6.79091e-10
-9.2935e-09
1.64514e-09
-4.13916e-09
3.11978e-09
-1.36684e-09
2.34631e-09
6.5977e-10
1.17068e-09
1.95762e-09
1.98519e-09
3.98533e-09
2.12108e-09
6.71215e-09
2.72213e-09
5.23678e-09
4.92053e-09
6.04997e-09
5.17392e-09
6.21753e-09
6.41876e-09
2.58264e-09
8.69206e-09
1.88721e-09
1.19464e-08
1.96181e-09
1.50605e-08
-4.58742e-10
1.71018e-08
-2.89336e-09
1.82839e-08
-6.97422e-09
1.93478e-08
-1.0147e-08
2.09746e-08
-1.32204e-08
2.29114e-08
-1.79295e-08
4.85583e-09
-5.59464e-09
6.51576e-09
-1.02058e-08
2.80783e-09
-8.00366e-09
4.96631e-09
-6.21988e-09
7.03935e-09
-6.00101e-09
7.55546e-09
-5.62369e-09
8.37276e-09
-5.20178e-09
7.72309e-09
-3.51052e-09
6.60932e-09
-2.10918e-09
6.953e-09
-9.56e-10
3.41674e-09
7.8841e-11
-6.95286e-10
9.96295e-10
-2.18872e-09
3.0074e-09
-7.1498e-09
5.0445e-09
-9.64475e-09
8.3572e-09
-1.1486e-08
1.11703e-08
-1.27627e-08
1.35429e-08
-1.50119e-08
1.50986e-08
-1.6765e-08
1.73018e-08
-1.88255e-08
1.8409e-08
-2.17324e-08
-1.71031e-09
6.71325e-09
-5.67217e-09
2.45721e-09
-6.24995e-09
-2.39313e-09
-2.5549e-09
4.87187e-10
-1.01165e-09
1.74454e-09
-6.80091e-10
2.67895e-09
-8.02972e-10
2.94104e-09
9.45619e-11
3.15918e-09
-1.96132e-11
4.06604e-09
-2.82419e-10
9.60611e-10
5.37116e-10
2.99514e-10
5.12743e-10
-4.79846e-10
1.73314e-09
-4.22329e-09
3.69639e-09
-3.64717e-09
7.29736e-09
-4.13079e-09
1.00564e-08
-4.91175e-09
1.24711e-08
-6.57814e-09
1.37128e-08
-8.18761e-09
1.46978e-08
-1.09382e-08
1.45144e-08
-1.34447e-08
1.74542e-08
3.8059e-09
-2.99457e-09
5.02639e-09
-5.86488e-09
-3.58058e-09
-2.60513e-09
-2.76462e-09
4.28182e-11
-1.15283e-09
1.20047e-09
-7.0698e-10
1.6103e-09
-2.07878e-10
2.2693e-09
-1.00412e-09
2.15748e-09
-5.10428e-10
7.6457e-10
-2.25795e-10
1.40818e-09
-1.37187e-09
-1.78281e-09
-1.42283e-09
-4.50802e-09
-1.65718e-09
-6.34268e-09
-7.95042e-10
-8.79411e-09
6.26876e-10
-1.04084e-08
2.81448e-09
-1.14155e-08
5.05796e-09
-1.21563e-08
6.82489e-09
-1.28083e-08
7.96055e-09
-1.43827e-08
8.25134e-09
-1.62539e-08
1.11372e-08
-7.22319e-10
5.02728e-09
-3.88146e-09
4.8699e-10
-2.69641e-09
-4.67083e-09
-1.1235e-10
-2.02958e-09
8.48744e-10
-5.76051e-10
7.58985e-10
4.40414e-10
8.84285e-11
6.58908e-10
3.87806e-10
1.01961e-09
-5.34638e-11
1.60911e-09
-4.49509e-10
-5.3167e-10
-6.94542e-10
-1.51527e-09
-1.81974e-09
-3.99102e-09
-2.2217e-09
-7.38302e-09
-2.37281e-09
-9.65538e-09
-8.56351e-10
-1.09171e-08
8.46486e-10
-1.16031e-08
2.99999e-09
-1.21605e-08
4.42137e-09
-1.27366e-08
5.7498e-09
-1.34386e-08
6.02415e-09
-1.4665e-08
8.14637e-09
2.98425e-09
-1.87653e-09
3.34389e-09
-2.59039e-09
-3.89978e-09
3.04734e-10
-3.72791e-09
1.56972e-09
-2.58786e-09
2.52222e-09
-2.38519e-09
2.54783e-09
-2.18806e-09
2.6752e-09
-2.08462e-09
1.90862e-09
-1.50652e-09
8.49719e-10
-1.32515e-09
-3.55132e-11
-1.35836e-09
-2.72067e-09
-1.44788e-09
-5.02499e-09
-1.04737e-09
-6.7505e-09
3.73112e-10
-7.62498e-09
2.13139e-09
-8.24669e-09
4.2216e-09
-8.57468e-09
6.04967e-09
-8.81862e-09
7.44295e-09
-8.76188e-09
7.99651e-09
-9.7825e-09
7.81738e-09
-9.76861e-09
9.05619e-09
-1.26288e-10
3.48839e-09
-2.37962e-09
3.63394e-10
-9.17285e-10
-3.18234e-09
-1.19415e-09
-1.15308e-09
5.05397e-11
-5.70989e-10
3.96745e-10
-6.11646e-10
5.91118e-10
-8.23867e-10
4.18775e-10
-4.84293e-10
3.54399e-10
-5.32186e-10
3.24923e-10
-2.58536e-10
-9.91437e-10
1.1124e-10
-9.79605e-10
1.10586e-09
-1.56976e-09
2.11814e-09
-2.1256e-09
3.51591e-09
-3.0678e-09
4.76927e-09
-4.15642e-09
6.13755e-09
-5.1917e-09
7.12845e-09
-6.1208e-09
7.84943e-09
-6.91636e-09
8.38198e-09
-6.87174e-09
7.68887e-09
-8.4671e-09
2.19185e-09
-1.34731e-09
2.41256e-09
-1.7394e-09
-2.07047e-09
-1.64364e-09
-1.1407e-09
-1.10871e-09
-1.19238e-10
-6.86705e-10
8.49903e-11
-8.00631e-10
-4.41355e-11
-7.13375e-10
2.97952e-11
-1.05867e-09
-4.02118e-10
-7.63876e-10
-9.91578e-10
-7.31292e-10
-1.38928e-09
-5.4944e-10
-2.32374e-09
-2.1661e-10
-3.19858e-09
5.35798e-10
-3.79288e-09
1.55502e-09
-4.56683e-09
2.75893e-09
-5.51952e-09
3.95989e-09
-6.35447e-09
4.89196e-09
-7.42693e-09
5.47228e-09
-8.07246e-09
5.7781e-09
-8.07059e-09
4.63469e-09
-9.11848e-09
-5.66672e-11
2.38505e-09
-1.68389e-09
3.80647e-10
-1.09776e-09
-1.28446e-09
-1.81247e-09
-1.78615e-10
-7.8129e-10
-7.59372e-11
-4.61232e-10
-3.15681e-10
-2.63069e-10
-7.08667e-10
-3.91997e-10
-6.76491e-10
-4.90115e-10
-8.25257e-10
-7.00471e-10
-7.07717e-10
-1.47835e-09
-4.69318e-10
-2.09959e-09
9.15442e-12
-2.53948e-09
6.68357e-10
-3.12844e-09
1.57544e-09
-3.67667e-09
2.68939e-09
-4.37347e-09
3.92031e-09
-5.31793e-09
5.00416e-09
-5.94526e-09
5.67857e-09
-6.53496e-09
5.97967e-09
-6.30628e-09
4.91329e-09
-6.34644e-09
1.45288e-09
-8.6745e-10
1.67075e-09
-1.33912e-09
-7.26344e-10
-1.76038e-09
4.17085e-11
-1.45812e-09
2.94808e-10
-1.10103e-09
4.13497e-10
-1.13966e-09
1.67605e-10
-1.14595e-09
-2.78066e-11
-1.08093e-09
-4.80453e-10
-5.87634e-10
-9.33871e-10
6.97073e-11
-8.3369e-10
1.01029e-09
-1.16768e-09
1.66264e-09
-1.41019e-09
2.22483e-09
-2.13594e-09
2.60125e-09
-2.85517e-09
3.11892e-09
-3.93478e-09
3.76703e-09
-5.23294e-09
4.60663e-09
-6.19657e-09
5.32853e-09
-7.41163e-09
5.92479e-09
-7.30201e-09
4.30643e-09
-7.34116e-09
-7.40711e-11
1.54837e-09
-1.17467e-09
3.58179e-10
-9.73635e-10
-5.98111e-10
-1.52652e-09
-6.68674e-10
-6.8302e-10
-2.72483e-10
-5.20337e-10
-2.36965e-10
-6.02925e-10
-2.716e-10
-7.64604e-10
-5.66877e-10
-6.22563e-10
-7.55223e-10
-4.54947e-10
-7.70319e-10
3.00649e-11
-1.3171e-09
5.94172e-10
-1.15636e-09
1.27796e-09
-1.34822e-09
1.64367e-09
-1.68419e-09
1.90045e-09
-2.22865e-09
2.10396e-09
-2.92372e-09
2.42137e-09
-3.41733e-09
2.65054e-09
-4.10939e-09
2.53118e-09
-4.49896e-09
1.85506e-09
-4.34038e-09
2.01993e-09
9.00424e-10
-5.91563e-10
1.01386e-09
-1.12496e-09
-6.69354e-10
-1.2606e-09
-7.98572e-10
-9.35663e-10
-7.1113e-10
-4.68805e-10
-5.6218e-10
-3.92211e-10
-6.36784e-10
-5.7142e-10
-6.72043e-10
-7.25619e-10
-8.9782e-10
-1.21826e-09
-8.29953e-10
-1.68694e-09
-7.69901e-10
-2.03329e-09
-5.74927e-10
-2.58815e-09
-3.28966e-10
-3.02961e-09
-4.80727e-11
-3.35827e-09
2.47273e-10
-3.71459e-09
6.16445e-10
-4.09228e-09
1.13358e-09
-4.46645e-09
1.79647e-09
-5.2693e-09
2.27487e-09
-5.80116e-09
1.96811e-09
-6.34848e-09
1.92032e-09
-2.55556e-10
8.07352e-10
-8.24642e-10
9.45747e-11
-8.00731e-10
-6.67954e-10
-1.4791e-09
-9.99517e-10
-9.03301e-10
-7.17348e-10
-7.41911e-10
-5.88862e-10
-7.17635e-10
-5.30929e-10
-8.01158e-10
-7.29488e-10
-8.63271e-10
-9.7207e-10
-1.10207e-09
-1.41718e-09
-1.17844e-09
-2.10518e-09
-1.1967e-09
-2.59554e-09
-9.06128e-10
-2.92743e-09
-5.36771e-10
-3.05029e-09
-1.3018e-10
-3.12277e-09
1.32955e-10
-3.22635e-09
3.86354e-10
-3.43662e-09
5.481e-10
-3.68602e-09
8.3016e-10
-4.32203e-09
9.48199e-10
-4.32956e-09
1.4791e-09
8.57214e-10
-2.40119e-10
2.05367e-10
-1.03773e-09
-9.73798e-10
-1.52047e-09
-1.25197e-09
-1.41981e-09
-1.38213e-09
-1.17349e-09
-1.27163e-09
-1.12904e-09
-1.15347e-09
-1.18725e-09
-1.06142e-09
-1.28947e-09
-1.07047e-09
-1.5931e-09
-1.09977e-09
-1.90083e-09
-1.18047e-09
-2.1322e-09
-1.19033e-09
-2.30345e-09
-1.13364e-09
-2.32392e-09
-9.89235e-10
-2.28849e-09
-7.9687e-10
-2.24039e-09
-5.55464e-10
-2.1502e-09
-2.35646e-10
-2.21514e-09
2.32802e-10
-2.38956e-09
7.24588e-10
-2.73865e-09
1.04103e-09
-3.22648e-09
1.57638e-09
-1.11211e-10
1.35745e-10
-9.33036e-10
-1.1095e-09
-1.6021e-09
-1.73467e-09
-2.10481e-09
-2.03103e-09
-1.72445e-09
-2.01044e-09
-1.63592e-09
-2.03204e-09
-1.61828e-09
-1.99021e-09
-1.46182e-09
-1.87986e-09
-1.24476e-09
-1.72618e-09
-9.71493e-10
-1.61089e-09
-7.80408e-10
-1.55819e-09
-6.80528e-10
-1.44373e-09
-7.29283e-10
-1.38749e-09
-8.99687e-10
-1.13814e-09
-1.22788e-09
-8.53246e-10
-1.66019e-09
-5.13458e-10
-2.15248e-09
1.03411e-10
-2.57186e-09
3.46e-10
-2.66542e-09
9.4026e-10
-1.7995e-09
8.11849e-10
4.31073e-12
7.13103e-11
-2.97549e-10
-7.9782e-10
-1.41623e-09
-1.87919e-09
-2.13831e-09
-2.131e-09
-1.86827e-09
-2.11227e-09
-1.74926e-09
-2.33658e-09
-1.88788e-09
-2.52377e-09
-2.05839e-09
-2.53744e-09
-2.2772e-09
-2.34126e-09
-2.35277e-09
-1.95463e-09
-2.41258e-09
-1.44907e-09
-2.4299e-09
-8.8013e-10
-2.55095e-09
-2.69541e-10
-2.70065e-09
3.48239e-10
-3.01035e-09
9.43063e-10
-3.42094e-09
1.47861e-09
-3.88114e-09
1.93368e-09
-4.65837e-09
2.26971e-09
-5.25858e-09
2.45551e-09
-6.51833e-09
1.63769e-09
-6.87668e-09
4.84975e-10
-1.73732e-10
-1.54194e-10
-3.31175e-10
-5.23807e-10
-6.64076e-10
-7.44871e-10
-7.71414e-10
-8.61652e-10
-8.55763e-10
-1.13793e-09
-1.03062e-09
-1.56957e-09
-1.26374e-09
-2.08651e-09
-1.53631e-09
-2.63688e-09
-1.88383e-09
-3.14563e-09
-2.23023e-09
-3.57335e-09
-2.63817e-09
-3.92865e-09
-3.03202e-09
-4.22102e-09
-3.39081e-09
-4.49114e-09
-3.68306e-09
-4.76782e-09
-3.82248e-09
-5.09617e-09
-3.81584e-09
-5.47619e-09
-3.6299e-09
-5.89937e-09
-3.13242e-09
-6.31588e-09
-2.6253e-09
-6.69503e-09
-1.98944e-09
-5.97836e-09
-9.30776e-10
2.53374e-05
8.46518e-09
2.81097e-06
6.52065e-07
6.546e-06
2.62778e-06
1.42155e-06
1.66905e-06
1.40111e-06
2.05292e-06
1.73366e-06
1.62847e-06
9.80641e-07
8.2694e-07
6.88582e-07
6.54976e-07
2.59001e-07
1.35929e-06
-7.37693e-07
2.94754e-06
-1.94301e-06
4.29854e-07
-1.99345e-07
3.65781e-07
-8.9162e-08
-8.26328e-07
7.15373e-07
-2.36513e-07
-1.75326e-07
-2.18823e-06
1.63083e-06
-2.82e-07
1.69703e-06
6.29588e-07
1.12931e-06
-3.29096e-07
5.48065e-07
-1.10394e-07
1.47354e-06
-1.97264e-06
3.14876e-07
4.07673e-07
-7.55974e-07
1.77492e-07
-6.39521e-07
3.69344e-07
3.91478e-07
-3.6233e-07
-6.91057e-07
4.28413e-07
-8.45229e-07
-3.18907e-07
-4.83503e-07
-4.45579e-07
-4.87205e-07
-3.54387e-07
-8.74247e-07
2.07734e-07
-1.23112e-06
3.18081e-07
-1.15031e-06
1.16354e-06
-1.81764e-07
-3.92514e-07
5.47403e-07
-3.58327e-07
6.32918e-07
1.10237e-07
-1.78729e-08
8.79716e-08
1.98416e-10
1.4395e-07
-1.1578e-07
-4.32791e-09
-8.14314e-07
-4.97794e-06
-3.32672e-06
-2.6582e-06
-8.4807e-07
-8.03332e-07
-7.93252e-07
-4.24959e-07
-5.453e-07
-3.24026e-07
-3.94312e-07
-3.93873e-07
-3.37099e-07
-2.39949e-07
-1.7313e-07
-1.30836e-07
-1.85471e-07
7.84346e-09
-4.57066e-07
5.12825e-07
-6.75386e-07
1.284e-07
-4.48581e-07
-1.21398e-08
-3.02653e-07
-4.10316e-07
7.13627e-09
-2.36276e-07
-8.16488e-08
-4.23313e-07
3.23399e-07
1.35923e-07
3.90736e-07
3.33451e-07
3.92774e-07
-2.65105e-08
2.78466e-07
-5.24498e-08
2.34853e-07
-4.18858e-07
1.92601e-07
1.51653e-07
2.60844e-08
1.44597e-07
-1.52331e-08
1.9987e-07
3.91216e-08
1.35756e-07
-2.53057e-07
5.15894e-08
-4.72497e-07
-3.87942e-07
-5.26473e-07
-5.07233e-07
-4.65682e-07
-4.8832e-07
-5.39878e-07
-1.42337e-07
-5.1041e-07
5.69799e-08
-1.23295e-07
3.78322e-07
1.2427e-07
1.1152e-07
4.15744e-07
1.98292e-07
3.63249e-07
1.63411e-07
3.82851e-08
3.79599e-08
-2.23256e-08
1.55994e-08
-1.08e-07
-3.05208e-08
5.74584e-06
2.07845e-06
2.02583e-06
1.62307e-06
1.96685e-06
1.71799e-06
1.43006e-06
1.31961e-06
1.0759e-06
1.02419e-06
9.50568e-07
7.99429e-07
6.81168e-07
8.0225e-07
5.71579e-07
6.99886e-07
3.25861e-07
5.76643e-07
8.26544e-09
7.24944e-07
-1.20115e-07
3.99348e-07
1.41508e-07
4.34071e-07
1.46606e-07
2.25003e-07
2.62208e-07
4.70739e-08
-3.1936e-08
-4.42636e-07
9.38985e-08
4.00306e-08
1.57868e-07
9.13202e-08
2.84016e-07
-1.50474e-07
1.4472e-07
-3.41003e-08
2.27436e-07
-4.01735e-07
4.05586e-08
1.0109e-08
-3.05748e-07
-1.82426e-08
-3.20216e-07
4.24845e-08
-9.07469e-08
-1.64693e-08
-2.73907e-07
2.08497e-07
-2.04151e-07
6.15413e-08
4.41453e-08
7.44523e-08
5.33816e-08
1.30692e-07
-1.2482e-07
2.48252e-07
-3.87843e-07
1.34098e-07
-3.80811e-07
1.39726e-07
-2.78471e-07
-3.83089e-07
-1.44059e-08
-2.39317e-07
1.72552e-08
-8.65996e-08
-7.95566e-08
4.68683e-08
6.14366e-08
1.43772e-07
5.41279e-08
5.76562e-08
-3.6335e-07
-1.97793e-06
-1.70942e-06
-1.48604e-06
-9.06643e-07
-7.31261e-07
-5.92102e-07
-4.14127e-07
-3.52716e-07
-3.014e-07
-3.4656e-07
-3.44853e-07
-2.76883e-07
-1.57624e-07
-1.23479e-07
-7.5617e-08
-1.145e-07
-4.66157e-09
-2.05887e-07
1.82002e-07
-2.90784e-07
6.31097e-08
-3.14629e-07
-4.70081e-08
-2.73142e-07
-2.61346e-07
-1.19504e-07
-1.97434e-07
-1.05309e-07
-1.71481e-07
1.25386e-07
1.82402e-07
1.99491e-07
2.52892e-07
2.5983e-07
4.80978e-08
2.16942e-07
-8.84018e-08
1.15929e-08
-1.87206e-07
1.45117e-07
3.92538e-08
5.7879e-08
1.231e-07
2.64525e-08
1.41236e-07
-2.81265e-08
1.44434e-07
-1.77981e-07
-1.35007e-08
-3.64439e-07
-3.38615e-07
-4.51468e-07
-4.41373e-07
-4.01702e-07
-4.14558e-07
-4.4413e-07
-1.85673e-07
-3.89001e-07
-1.49999e-08
-4.59875e-08
1.87864e-07
9.55454e-08
1.30027e-07
3.25992e-07
2.0568e-07
2.76681e-07
1.56908e-07
5.70287e-08
6.14917e-08
1.92229e-08
4.77533e-08
-5.4766e-08
-8.05052e-09
1.36249e-06
8.14366e-07
6.55997e-07
6.41823e-07
6.78895e-07
7.04835e-07
6.52456e-07
6.58791e-07
6.20691e-07
5.77464e-07
4.61993e-07
4.01824e-07
3.86203e-07
4.69982e-07
3.80125e-07
4.16765e-07
2.39533e-07
3.2484e-07
1.5356e-07
3.33808e-07
1.39826e-07
2.66056e-07
2.09447e-07
3.43944e-07
2.06707e-07
3.22886e-07
1.6454e-07
1.2343e-07
3.91888e-08
-1.54023e-07
-2.01692e-08
1.44425e-08
-7.01393e-09
-2.99988e-08
7.41604e-08
-1.39685e-07
7.93136e-08
-8.00289e-08
5.99362e-08
-1.66239e-07
5.59737e-08
-6.23499e-08
-2.10461e-07
-3.07519e-08
-2.10489e-07
1.07475e-08
-1.14459e-07
2.2929e-08
-1.51058e-07
1.38639e-07
-8.00864e-08
1.05245e-07
1.09415e-07
1.34026e-07
1.30862e-07
1.85376e-07
-2.07731e-08
1.97116e-07
-2.16554e-07
9.23012e-08
-2.48036e-07
2.58527e-09
-2.42386e-07
-2.8148e-07
-4.76242e-08
-2.16447e-07
-6.94434e-08
-9.56158e-08
-8.90078e-08
1.4646e-08
2.78653e-08
1.06595e-07
4.14021e-08
4.34688e-08
4.83976e-08
-3.40396e-07
-5.36063e-07
-5.30786e-07
-4.73309e-07
-3.97754e-07
-3.4473e-07
-2.64956e-07
-2.33902e-07
-2.5149e-07
-2.73234e-07
-2.48665e-07
-1.73023e-07
-8.70118e-08
-8.29498e-08
-4.5205e-08
-6.85543e-08
1.26125e-09
-7.53751e-08
5.42209e-08
-1.10694e-07