/*--------------------------------*- C++ -*----------------------------------*\
| =========                 |                                                 |
| \\      /  F ield         | OpenFOAM: The Open Source CFD Toolbox           |
|  \\    /   O peration     | Version:  2312                                  |
|   \\  /    A nd           | Website:  www.openfoam.com                      |
|    \\/     M anipulation  |                                                 |
\*---------------------------------------------------------------------------*/
FoamFile
{
    version     2.0;
    format      ascii;
    arch        "LSB;label=32;scalar=64";
    class       volScalarField;
    location    "248";
    object      magR;
}
// * * * * * * * * * * * * * * * * * * * * * * * * * * * * * * * * * * * * * //

dimensions      [0 2 -2 0 0 0 0];

internalField   nonuniform List<scalar> 
11040
(
0.0971391
0.232221
0.516041
0.998252
1.76827
2.93931
4.39966
5.62575
6.3249
6.62773
6.74411
6.78888
6.79719
6.7711
6.70693
6.60378
6.46387
6.29173
6.09152
5.86658
5.61276
5.34495
5.09375
4.87201
4.6733
4.48718
4.30857
4.13588
3.96771
3.80224
3.6375
3.47137
3.30171
3.12552
2.93899
2.73892
2.51923
2.27792
1.9842
1.69724
1.13637
0.0338999
0.0383585
0.0429682
0.0418717
0.040501
0.0496048
0.0788671
0.126319
0.181128
0.236823
0.289519
0.337063
0.378676
0.414951
0.44694
0.475494
0.501146
0.523981
0.544294
0.562397
0.580306
0.594766
0.599797
0.596382
0.589322
0.581509
0.573936
0.566705
0.559903
0.553621
0.54802
0.5433
0.539651
0.53742
0.537134
0.539399
0.545087
0.555726
0.574248
0.604248
0.678378
0.024565
0.0200272
0.0125775
0.0108078
0.0125111
0.0130286
0.0123719
0.0111994
0.00997607
0.00895938
0.00784697
0.00652842
0.00583719
0.0116754
0.0252706
0.0454596
0.0717908
0.103579
0.139782
0.178976
0.220054
0.260787
0.297816
0.329091
0.354514
0.374977
0.391176
0.403843
0.413686
0.421328
0.42725
0.431854
0.435486
0.438393
0.440933
0.443454
0.446815
0.450788
0.461349
0.469515
0.541571
0.0160776
0.015316
0.0140001
0.0129869
0.0118332
0.0104256
0.00898924
0.00766232
0.00645002
0.00533596
0.00432091
0.00336118
0.00249099
0.00175883
0.00122291
0.000986548
0.00129238
0.00234272
0.00447746
0.00831533
0.0148208
0.0244434
0.0364615
0.0503716
0.0659953
0.0831307
0.101464
0.12062
0.140282
0.160194
0.180177
0.200147
0.220085
0.240141
0.26057
0.281635
0.303976
0.327895
0.35793
0.38535
0.462812
0.0107607
0.010827
0.0100159
0.00849866
0.00660737
0.00505114
0.00417414
0.00382847
0.00370498
0.00361019
0.00348175
0.0032981
0.00307539
0.00282475
0.00256101
0.0023004
0.0020487
0.00180768
0.00157778
0.00135984
0.00115192
0.000938228
0.000717205
0.000536674
0.000689482
0.00144877
0.0028207
0.00490505
0.00783794
0.011762
0.0168418
0.0232843
0.0313375
0.0413749
0.0538862
0.069498
0.0890918
0.114059
0.148183
0.187098
0.276009
0.00717838
0.00752464
0.00745297
0.00708517
0.00646088
0.00574883
0.00505827
0.0044364
0.0038958
0.00343001
0.00302498
0.00266287
0.00233129
0.002018
0.00171274
0.00142658
0.00117001
0.000949362
0.000769113
0.000635654
0.000547071
0.00048876
0.000444484
0.000413224
0.000396066
0.000386349
0.00038011
0.000377913
0.000383328
0.000402674
0.000447126
0.000536876
0.000708697
0.00103581
0.00165883
0.00284047
0.00502344
0.00898858
0.0166512
0.0280332
0.0652522
0.00486142
0.0051923
0.00529774
0.00525166
0.00492783
0.00438713
0.0037628
0.00317094
0.00267966
0.00230658
0.00204181
0.0018623
0.00174262
0.00166128
0.00159684
0.00153187
0.00146098
0.00138522
0.00130652
0.00122622
0.00114305
0.00105038
0.000951377
0.000862704
0.000794357
0.00074123
0.000697286
0.000659999
0.000627976
0.000599631
0.000573382
0.000547658
0.00052097
0.000492217
0.000461137
0.00043134
0.000410241
0.000416642
0.000553738
0.000767049
0.00391836
0.00331797
0.00357672
0.00370654
0.003822
0.00379562
0.00362202
0.00335762
0.00305757
0.00275792
0.00247732
0.00222219
0.00199306
0.00178942
0.00161001
0.00145004
0.00130241
0.00116399
0.00103642
0.000920526
0.000816159
0.000723033
0.000640312
0.000568531
0.000511557
0.000472452
0.000448353
0.000434724
0.000428773
0.000429204
0.000435122
0.000445763
0.000460454
0.000478458
0.000498932
0.000519974
0.000538397
0.000548443
0.000537987
0.00051135
0.000401851
0.00036754
0.00228069
0.00247161
0.00256711
0.00270199
0.00277353
0.00274433
0.00262645
0.0024459
0.00223199
0.00200976
0.00179747
0.00160548
0.0014391
0.00130103
0.00119118
0.00110736
0.00104437
0.000994932
0.000952586
0.000913082
0.000872098
0.000826837
0.000777814
0.000729687
0.000688914
0.000656518
0.000630214
0.000608457
0.000590859
0.000577288
0.000567589
0.000561695
0.000559617
0.000561557
0.000567619
0.000578043
0.000592147
0.00060731
0.000623376
0.000612297
0.000570467
0.00157346
0.00171264
0.001772
0.00188395
0.00197994
0.00202613
0.0020193
0.00196618
0.00187798
0.00176815
0.00164827
0.00152597
0.00140627
0.00129293
0.00118806
0.00109191
0.00100347
0.000921018
0.000843678
0.000771269
0.000704345
0.000643523
0.000588128
0.000539247
0.000499576
0.000469409
0.000447031
0.000430838
0.000420041
0.000414242
0.000413108
0.000416335
0.000423673
0.00043501
0.000450186
0.000468969
0.000490962
0.000515037
0.000542341
0.000561603
0.000583045
0.00108792
0.00118916
0.00122265
0.00130297
0.00138656
0.00144866
0.00148286
0.00148659
0.00146062
0.00140976
0.00134097
0.00126096
0.00117557
0.00109017
0.00100873
0.000934033
0.000867747
0.000810595
0.000762186
0.000720753
0.000683406
0.000648872
0.000616597
0.00058651
0.000560483
0.000539483
0.000522881
0.000509647
0.000499135
0.00049103
0.000485099
0.000481109
0.000478864
0.000478116
0.00047861
0.000480015
0.000481909
0.00048302
0.000483516
0.000477455
0.000474123
0.00075275
0.000826061
0.000843874
0.000898079
0.000961052
0.00101704
0.0010618
0.00109182
0.00110442
0.00109939
0.00107899
0.00104628
0.00100447
0.000956795
0.000906101
0.000854627
0.000803906
0.000754677
0.000707083
0.00066082
0.0006164
0.000575295
0.000537654
0.000503187
0.000472845
0.000447289
0.000426318
0.000409318
0.000395808
0.000385489
0.000378119
0.00037347
0.0003713
0.000371372
0.00037339
0.000376865
0.00038116
0.000385353
0.000388358
0.000386768
0.000383594
0.000520819
0.000573537
0.000582619
0.000618131
0.000662251
0.0007051
0.000744727
0.000778606
0.000803745
0.000818118
0.000821333
0.000813998
0.000797382
0.00077327
0.000743677
0.000710616
0.000675915
0.000641037
0.000607086
0.000574724
0.000544226
0.000516559
0.000491902
0.000469609
0.00045003
0.000433492
0.000419911
0.000408883
0.000399955
0.000392764
0.000386981
0.00038228
0.000378355
0.000374806
0.000371233
0.000367228
0.000362294
0.000355754
0.000346991
0.000334533
0.000321361
0.000360107
0.000397582
0.000402142
0.000425148
0.000454989
0.000485432
0.000515892
0.00054515
0.000571148
0.000592029
0.000606695
0.000614679
0.000615985
0.000611091
0.000600795
0.000586096
0.000568033
0.000547551
0.00052544
0.000502232
0.000478548
0.000455612
0.000433916
0.00041332
0.000394237
0.000376989
0.000361662
0.000348154
0.000336287
0.00032588
0.000316792
0.000308868
0.000301952
0.00029587
0.0002904
0.000285279
0.000280179
0.000274792
0.000268578
0.000260593
0.000252632
0.000248653
0.000274885
0.000277284
0.000292159
0.000311974
0.000332757
0.000354484
0.000376701
0.0003982
0.000417706
0.000434217
0.000447012
0.000455612
0.000459815
0.000459703
0.000455607
0.000448056
0.00043766
0.000425053
0.000410796
0.000395403
0.000380039
0.000365448
0.000351581
0.000338705
0.000327013
0.000316569
0.000307323
0.000299167
0.000291952
0.000285518
0.000279655
0.000274131
0.000268671
0.000263005
0.000256923
0.000250196
0.000242543
0.000233748
0.000223419
0.000213389
0.000171429
0.000189455
0.000190911
0.000200534
0.00021353
0.000227397
0.000242283
0.000258068
0.000274126
0.00028972
0.000304193
0.000316987
0.000327615
0.000335703
0.000341032
0.000343553
0.000343363
0.00034067
0.00033576
0.00032895
0.000320575
0.000311414
0.000301991
0.000292364
0.000282808
0.00027352
0.000264608
0.000256111
0.00024802
0.000240291
0.000232855
0.000225643
0.000218585
0.000211636
0.000204749
0.000197874
0.000190958
0.000183983
0.000176813
0.000169327
0.00016234
0.00011847
0.000130594
0.000131715
0.00013798
0.000146423
0.000155552
0.000165517
0.000176303
0.00018759
0.000198979
0.00021009
0.000220569
0.000230059
0.000238229
0.000244809
0.000249616
0.000252561
0.000253642
0.000252932
0.000250561
0.000246639
0.000241661
0.000236108
0.000230114
0.000223922
0.00021771
0.000211589
0.000205627
0.000199856
0.000194281
0.000188891
0.000183652
0.000178529
0.000173438
0.000168315
0.000163093
0.000157694
0.000152033
0.000146067
0.000139759
0.000133735
8.3314e-05
9.13903e-05
9.23754e-05
9.6589e-05
0.000102163
0.000108251
0.000114974
0.000122327
0.000130137
0.000138192
0.000146283
0.000154209
0.000161749
0.000168679
0.00017479
0.000179905
0.000183893
0.000186669
0.000188195
0.000188488
0.000187547
0.000185611
0.00018296
0.000179687
0.000175967
0.000171931
0.000167672
0.000163255
0.000158727
0.000154113
0.000149426
0.000144668
0.000139845
0.000134949
0.000129973
0.00012494
0.000119885
0.000114823
0.000109751
0.000104759
9.9993e-05
6.02715e-05
6.5755e-05
6.65863e-05
6.95245e-05
7.33377e-05
7.75297e-05
8.21898e-05
8.7313e-05
9.27963e-05
9.85184e-05
0.000104358
0.000110197
0.0001159
0.000121317
0.0001263
0.000130712
0.000134433
0.000137367
0.000139445
0.000140634
0.000140873
0.000140267
0.000138996
0.000137142
0.000134836
0.000132189
0.000129284
0.000126189
0.000122958
0.000119633
0.000116243
0.000112808
0.000109349
0.000105868
0.000102369
9.88649e-05
9.53678e-05
9.18587e-05
8.83307e-05
8.48054e-05
8.14361e-05
4.48152e-05
4.86024e-05
4.93057e-05
5.14097e-05
5.40937e-05
5.70604e-05
6.03715e-05
6.40183e-05
6.79338e-05
7.20432e-05
7.62725e-05
8.05487e-05
8.47877e-05
8.8894e-05
9.27685e-05
9.63145e-05
9.94423e-05
0.000102072
0.000104139
0.000105599
0.000106387
0.000106537
0.000106149
0.000105269
0.000103984
0.000102364
0.000100468
9.83472e-05
9.60432e-05
9.35898e-05
9.1015e-05
8.83392e-05
8.55873e-05
8.27713e-05
7.99021e-05
7.69987e-05
7.4094e-05
7.11869e-05
6.82816e-05
6.54183e-05
6.2638e-05
3.40351e-05
3.66902e-05
3.72774e-05
3.88073e-05
4.07358e-05
4.28796e-05
4.52785e-05
4.79215e-05
5.07626e-05
5.37526e-05
5.68427e-05
5.99855e-05
6.31262e-05
6.62014e-05
6.91442e-05
7.18872e-05
7.43651e-05
7.65163e-05
7.82862e-05
7.96333e-05
8.04939e-05
8.08717e-05
8.08257e-05
8.03848e-05
7.96076e-05
7.85466e-05
7.72482e-05
7.57548e-05
7.41042e-05
7.23289e-05
7.04572e-05
6.85119e-05
6.65176e-05
6.44879e-05
6.24358e-05
6.03793e-05
5.83413e-05
5.6313e-05
5.43057e-05
5.23223e-05
5.04774e-05
2.62983e-05
2.81836e-05
2.86709e-05
2.97991e-05
3.12101e-05
3.27879e-05
3.45562e-05
3.65032e-05
3.85958e-05
4.07998e-05
4.30812e-05
4.54075e-05
4.77414e-05
5.00399e-05
5.22573e-05
5.4347e-05
5.62629e-05
5.79599e-05
5.93971e-05
6.05412e-05
6.13418e-05
6.17928e-05
6.19286e-05
6.17647e-05
6.13389e-05
6.06863e-05
5.98388e-05
5.88265e-05
5.76768e-05
5.64138e-05
5.50587e-05
5.36291e-05
5.2145e-05
5.06179e-05
4.90582e-05
4.74791e-05
4.59043e-05
4.43268e-05
4.27595e-05
4.11825e-05
3.97517e-05
2.06094e-05
2.19613e-05
2.23627e-05
2.32038e-05
2.42511e-05
2.54295e-05
2.67513e-05
2.82051e-05
2.97663e-05
3.14099e-05
3.31112e-05
3.48467e-05
3.65901e-05
3.8311e-05
3.99773e-05
4.15563e-05
4.30149e-05
4.43206e-05
4.54429e-05
4.63559e-05
4.70202e-05
4.74272e-05
4.75986e-05
4.75429e-05
4.72852e-05
4.685e-05
4.62611e-05
4.55414e-05
4.47126e-05
4.37944e-05
4.28047e-05
4.17587e-05
4.06731e-05
3.95582e-05
3.84233e-05
3.72799e-05
3.61458e-05
3.50135e-05
3.38973e-05
3.27668e-05
3.18023e-05
1.63427e-05
1.73195e-05
1.76482e-05
1.82812e-05
1.90685e-05
1.99598e-05
2.09601e-05
2.20588e-05
2.32372e-05
2.44763e-05
2.57575e-05
2.70634e-05
2.83745e-05
2.9669e-05
3.09239e-05
3.21157e-05
3.32208e-05
3.42157e-05
3.50785e-05
3.579e-05
3.63212e-05
3.66655e-05
3.68375e-05
3.68417e-05
3.6695e-05
3.64145e-05
3.60168e-05
3.55185e-05
3.49351e-05
3.42811e-05
3.35694e-05
3.28112e-05
3.2019e-05
3.12005e-05
3.03625e-05
2.95127e-05
2.8666e-05
2.7816e-05
2.69761e-05
2.61031e-05
2.54047e-05
1.30878e-05
1.37977e-05
1.40653e-05
1.45456e-05
1.5144e-05
1.58254e-05
1.65905e-05
1.74295e-05
1.83278e-05
1.9271e-05
2.02445e-05
2.12349e-05
2.22276e-05
2.32064e-05
2.41545e-05
2.50547e-05
2.589e-05
2.66433e-05
2.72986e-05
2.7842e-05
2.8252e-05
2.85239e-05
2.86686e-05
2.86883e-05
2.85946e-05
2.83999e-05
2.81161e-05
2.77555e-05
2.73298e-05
2.685e-05
2.63261e-05
2.57669e-05
2.51821e-05
2.45777e-05
2.39593e-05
2.3333e-05
2.271e-05
2.20848e-05
2.14697e-05
2.08236e-05
2.03435e-05
1.05688e-05
1.10866e-05
1.13035e-05
1.16708e-05
1.21299e-05
1.2656e-05
1.32467e-05
1.38934e-05
1.45847e-05
1.5309e-05
1.60548e-05
1.68118e-05
1.75687e-05
1.83132e-05
1.90329e-05
1.97151e-05
2.03474e-05
2.09173e-05
2.14133e-05
2.18252e-05
2.21378e-05
2.23483e-05
2.24654e-05
2.24902e-05
2.2431e-05
2.22967e-05
2.20962e-05
2.18381e-05
2.15313e-05
2.11835e-05
2.08023e-05
2.03939e-05
1.99655e-05
1.95215e-05
1.9066e-05
1.86032e-05
1.81417e-05
1.7677e-05
1.72198e-05
1.67282e-05
1.63933e-05
8.59459e-06
8.97319e-06
9.14843e-06
9.4313e-06
9.78678e-06
1.01965e-05
1.06565e-05
1.11592e-05
1.16956e-05
1.22562e-05
1.2832e-05
1.34147e-05
1.39957e-05
1.45654e-05
1.51144e-05
1.56334e-05
1.61131e-05
1.65444e-05
1.6919e-05
1.72295e-05
1.74649e-05
1.76238e-05
1.77135e-05
1.77345e-05
1.76927e-05
1.75947e-05
1.74471e-05
1.72562e-05
1.70286e-05
1.67701e-05
1.64863e-05
1.61819e-05
1.58622e-05
1.55307e-05
1.51904e-05
1.48446e-05
1.44995e-05
1.41518e-05
1.38103e-05
1.34393e-05
1.32052e-05
7.03058e-06
7.30766e-06
7.44891e-06
7.66831e-06
7.94588e-06
8.26757e-06
8.62865e-06
9.02261e-06
9.44193e-06
9.87916e-06
1.0327e-05
1.07786e-05
1.12274e-05
1.1666e-05
1.20871e-05
1.24838e-05
1.28492e-05
1.31765e-05
1.34598e-05
1.36938e-05
1.38705e-05
1.39897e-05
1.40575e-05
1.40742e-05
1.40442e-05
1.39724e-05
1.38637e-05
1.37229e-05
1.35547e-05
1.33635e-05
1.31533e-05
1.29277e-05
1.26905e-05
1.24443e-05
1.21913e-05
1.19338e-05
1.16766e-05
1.14169e-05
1.11622e-05
1.08805e-05
1.07185e-05
5.77973e-06
5.98246e-06
6.09621e-06
6.26764e-06
6.48619e-06
6.74076e-06
7.02636e-06
7.33735e-06
7.66759e-06
8.01099e-06
8.36159e-06
8.714e-06
9.06283e-06
9.40244e-06
9.72727e-06
1.0032e-05
1.03114e-05
1.05607e-05
1.07755e-05
1.09519e-05
1.10842e-05
1.11729e-05
1.12231e-05
1.1235e-05
1.12118e-05
1.11573e-05
1.10752e-05
1.0969e-05
1.08422e-05
1.06981e-05
1.05397e-05
1.03696e-05
1.01907e-05
1.00048e-05
9.81377e-06
9.61917e-06
9.42444e-06
9.22768e-06
9.03474e-06
8.81983e-06
8.70441e-06
4.77105e-06
4.91916e-06
5.01083e-06
5.14587e-06
5.31938e-06
5.5224e-06
5.74997e-06
5.99724e-06
6.25913e-06
6.53065e-06
6.80696e-06
7.08367e-06
7.3565e-06
7.62104e-06
7.873e-06
8.10832e-06
8.32316e-06
8.5139e-06
8.67733e-06
8.81078e-06
8.91007e-06
8.97611e-06
9.0133e-06
9.0216e-06
9.00356e-06
8.9621e-06
8.89997e-06
8.81986e-06
8.72437e-06
8.61593e-06
8.49678e-06
8.36887e-06
8.23429e-06
8.09451e-06
7.95075e-06
7.80425e-06
7.65748e-06
7.50911e-06
7.3637e-06
7.20002e-06
7.11904e-06
3.95178e-06
4.05973e-06
4.13379e-06
4.24111e-06
4.38006e-06
4.54321e-06
4.72586e-06
4.92384e-06
5.13295e-06
5.34905e-06
5.56818e-06
5.7868e-06
6.00149e-06
6.20877e-06
6.40534e-06
6.58809e-06
6.75415e-06
6.90083e-06
7.02582e-06
7.12722e-06
7.20201e-06
7.25124e-06
7.27867e-06
7.28422e-06
7.26982e-06
7.23775e-06
7.19011e-06
7.12892e-06
7.05612e-06
6.97354e-06
6.88283e-06
6.78548e-06
6.683e-06
6.57651e-06
6.46694e-06
6.35521e-06
6.24308e-06
6.12964e-06
6.0184e-06
5.89277e-06
5.83375e-06
3.28215e-06
3.3606e-06
3.42072e-06
3.50687e-06
3.61912e-06
3.75126e-06
3.89894e-06
4.05855e-06
4.22661e-06
4.39971e-06
4.5746e-06
4.74839e-06
4.91834e-06
5.08174e-06
5.236e-06
5.37877e-06
5.50789e-06
5.62137e-06
5.71755e-06
5.79509e-06
5.85181e-06
5.8888e-06
5.90924e-06
5.91305e-06
5.9017e-06
5.87699e-06
5.84054e-06
5.79388e-06
5.73847e-06
5.67568e-06
5.60676e-06
5.53283e-06
5.455e-06
5.37411e-06
5.29088e-06
5.20597e-06
5.12066e-06
5.03434e-06
4.94969e-06
4.85364e-06
4.81122e-06
2.73186e-06
2.78868e-06
2.83784e-06
2.90777e-06
2.9993e-06
3.10717e-06
3.22743e-06
3.357e-06
3.49296e-06
3.63249e-06
3.77294e-06
3.91194e-06
4.0473e-06
4.17689e-06
4.2987e-06
4.41093e-06
4.51198e-06
4.60037e-06
4.6749e-06
4.73466e-06
4.77804e-06
4.80611e-06
4.82155e-06
4.82425e-06
4.81536e-06
4.7963e-06
4.7683e-06
4.73254e-06
4.69011e-06
4.64206e-06
4.58933e-06
4.53274e-06
4.47315e-06
4.41118e-06
4.34738e-06
4.28224e-06
4.21668e-06
4.15031e-06
4.08513e-06
4.01122e-06
3.97948e-06
2.27751e-06
2.31856e-06
2.35915e-06
2.41661e-06
2.49197e-06
2.58073e-06
2.67937e-06
2.78526e-06
2.89596e-06
3.00915e-06
3.12263e-06
3.23449e-06
3.34298e-06
3.44639e-06
3.5432e-06
3.63202e-06
3.71165e-06
3.78101e-06
3.83926e-06
3.88575e-06
3.91935e-06
3.94099e-06
3.95297e-06
3.95516e-06
3.94845e-06
3.93397e-06
3.91269e-06
3.88549e-06
3.85323e-06
3.81667e-06
3.77654e-06
3.73346e-06
3.68807e-06
3.64085e-06
3.5922e-06
3.54251e-06
3.49243e-06
3.44171e-06
3.39186e-06
3.33527e-06
3.31206e-06
1.90087e-06
1.93051e-06
1.96445e-06
2.0123e-06
2.07495e-06
2.14855e-06
2.23002e-06
2.31713e-06
2.40784e-06
2.50022e-06
2.59248e-06
2.68306e-06
2.77055e-06
2.85362e-06
2.93107e-06
3.00186e-06
3.0651e-06
3.11999e-06
3.16594e-06
3.20251e-06
3.22889e-06
3.24589e-06
3.25544e-06
3.25741e-06
3.2525e-06
3.2416e-06
3.22546e-06
3.20476e-06
3.18015e-06
3.15223e-06
3.12154e-06
3.08857e-06
3.05378e-06
3.01756e-06
2.9802e-06
2.942e-06
2.90343e-06
2.86435e-06
2.82586e-06
2.78235e-06
2.76437e-06
1.58761e-06
1.6091e-06
1.6379e-06
1.67828e-06
1.73086e-06
1.79236e-06
1.86011e-06
1.93221e-06
2.00698e-06
2.08282e-06
2.15827e-06
2.23206e-06
2.30307e-06
2.37024e-06
2.43265e-06
2.4895e-06
2.54013e-06
2.58398e-06
2.62063e-06
2.6498e-06
2.67091e-06
2.68464e-06
2.69264e-06
2.69476e-06
2.69157e-06
2.68375e-06
2.67192e-06
2.65659e-06
2.63824e-06
2.61734e-06
2.5943e-06
2.56948e-06
2.54324e-06
2.51587e-06
2.48759e-06
2.45864e-06
2.42934e-06
2.39963e-06
2.37033e-06
2.33714e-06
2.32436e-06
1.32638e-06
1.34213e-06
1.36699e-06
1.40151e-06
1.44602e-06
1.49775e-06
1.55443e-06
1.61446e-06
1.67643e-06
1.73904e-06
1.80108e-06
1.86154e-06
1.91952e-06
1.97419e-06
2.02484e-06
2.07087e-06
2.11178e-06
2.14717e-06
2.17674e-06
2.20032e-06
2.21748e-06
2.22879e-06
2.23561e-06
2.23781e-06
2.23582e-06
2.2302e-06
2.22144e-06
2.20992e-06
2.19605e-06
2.18017e-06
2.16261e-06
2.14366e-06
2.12358e-06
2.1026e-06
2.0809e-06
2.05866e-06
2.0361e-06
2.01323e-06
1.99057e-06
1.96525e-06
1.95441e-06
1.10809e-06
1.11991e-06
1.14174e-06
1.17162e-06
1.20957e-06
1.25331e-06
1.30093e-06
1.35111e-06
1.40272e-06
1.45466e-06
1.50596e-06
1.55578e-06
1.6034e-06
1.64818e-06
1.68957e-06
1.72714e-06
1.76052e-06
1.78942e-06
1.81367e-06
1.83314e-06
1.84756e-06
1.8574e-06
1.86378e-06
1.86661e-06
1.86622e-06
1.86303e-06
1.85741e-06
1.84967e-06
1.84008e-06
1.82892e-06
1.81642e-06
1.80279e-06
1.78824e-06
1.77294e-06
1.75704e-06
1.74065e-06
1.72397e-06
1.70697e-06
1.69015e-06
1.67098e-06
1.66482e-06
9.25411e-07
9.3463e-07
9.54119e-07
9.80264e-07
1.01284e-06
1.04997e-06
1.09008e-06
1.1321e-06
1.17512e-06
1.2183e-06
1.26086e-06
1.30213e-06
1.3415e-06
1.37846e-06
1.41257e-06
1.44349e-06
1.47097e-06
1.49479e-06
1.51484e-06
1.53102e-06
1.5431e-06
1.55143e-06
1.55693e-06
1.55954e-06
1.5595e-06
1.5572e-06
1.55294e-06
1.54698e-06
1.53957e-06
1.53092e-06
1.52124e-06
1.5107e-06
1.49946e-06
1.48766e-06
1.4754e-06
1.4628e-06
1.44994e-06
1.43692e-06
1.42384e-06
1.40973e-06
1.40215e-06
7.72465e-07
7.80029e-07
7.97625e-07
8.2062e-07
8.48662e-07
8.80282e-07
9.14171e-07
9.49423e-07
9.85298e-07
1.02114e-06
1.05637e-06
1.0905e-06
1.12312e-06
1.1538e-06
1.18219e-06
1.20799e-06
1.231e-06
1.25108e-06
1.2682e-06
1.28236e-06
1.29345e-06
1.30177e-06
1.30807e-06
1.31224e-06
1.31445e-06
1.31493e-06
1.31389e-06
1.31147e-06
1.30784e-06
1.30312e-06
1.29748e-06
1.29102e-06
1.28389e-06
1.27617e-06
1.26797e-06
1.25937e-06
1.25048e-06
1.24129e-06
1.23221e-06
1.22123e-06
1.22065e-06
6.44527e-07
6.51122e-07
6.67131e-07
6.87309e-07
7.11277e-07
7.38002e-07
7.66509e-07
7.96098e-07
8.2615e-07
8.56069e-07
8.85334e-07
9.1354e-07
9.40396e-07
9.65672e-07
9.89167e-07
1.01068e-06
1.03e-06
1.04693e-06
1.0613e-06
1.07301e-06
1.0819e-06
1.08817e-06
1.09248e-06
1.09485e-06
1.0955e-06
1.09473e-06
1.09276e-06
1.0898e-06
1.08601e-06
1.08155e-06
1.07653e-06
1.07105e-06
1.06522e-06
1.05909e-06
1.05273e-06
1.0462e-06
1.0395e-06
1.03278e-06
1.02575e-06
1.01923e-06
1.01151e-06
5.37686e-07
5.43843e-07
5.58588e-07
5.76318e-07
5.96575e-07
6.18655e-07
6.41928e-07
6.6604e-07
6.90701e-07
7.15555e-07
7.40162e-07
7.64051e-07
7.86791e-07
8.0805e-07
8.27656e-07
8.45585e-07
8.61914e-07
8.76751e-07
8.90189e-07
9.02279e-07
9.1294e-07
9.22215e-07
9.30451e-07
9.37438e-07
9.4313e-07
9.47571e-07
9.50808e-07
9.52891e-07
9.53888e-07
9.53884e-07
9.52971e-07
9.51244e-07
9.48807e-07
9.45747e-07
9.42152e-07
9.38078e-07
9.33685e-07
9.28874e-07
9.24308e-07
9.1705e-07
9.2333e-07
4.48531e-07
4.54525e-07
4.68127e-07
4.83813e-07
5.01087e-07
5.19339e-07
5.37974e-07
5.56731e-07
5.75566e-07
5.94521e-07
6.13639e-07
6.32872e-07
6.52014e-07
6.70668e-07
6.88311e-07
7.04387e-07
7.18428e-07
7.30126e-07
7.39364e-07
7.46216e-07
7.50713e-07
7.53217e-07
7.54346e-07
7.54381e-07
7.53601e-07
7.52262e-07
7.50563e-07
7.4865e-07
7.46631e-07
7.44577e-07
7.42536e-07
7.40539e-07
7.38588e-07
7.36704e-07
7.34868e-07
7.33108e-07
7.31294e-07
7.29706e-07
7.27393e-07
7.2784e-07
7.15579e-07
3.74271e-07
3.79969e-07
3.91838e-07
4.0503e-07
4.19462e-07
4.34867e-07
4.50686e-07
4.66426e-07
4.8168e-07
4.96152e-07
5.09747e-07
5.22618e-07
5.35126e-07
5.47737e-07
5.60889e-07
5.74882e-07
5.89812e-07
6.05556e-07
6.21826e-07
6.3822e-07
6.5433e-07
6.69697e-07
6.84155e-07
6.97221e-07
7.08655e-07
7.18377e-07
7.26376e-07
7.32687e-07
7.3739e-07
7.40597e-07
7.4244e-07
7.43048e-07
7.42577e-07
7.41145e-07
7.38881e-07
7.3586e-07
7.32359e-07
7.28107e-07
7.2456e-07
7.15605e-07
7.32071e-07
3.13156e-07
3.18539e-07
3.28238e-07
3.37806e-07
3.47551e-07
3.57988e-07
3.69416e-07
3.82081e-07
3.95993e-07
4.10779e-07
4.25694e-07
4.39774e-07
4.52043e-07
4.61724e-07
4.68403e-07
4.72076e-07
4.73108e-07
4.72096e-07
4.69701e-07
4.66629e-07
4.63039e-07
4.59367e-07
4.55914e-07
4.52984e-07
4.50627e-07
4.48834e-07
4.4762e-07
4.47015e-07
4.4704e-07
4.477e-07
4.4899e-07
4.50897e-07
4.53378e-07
4.56419e-07
4.59952e-07
4.63972e-07
4.68244e-07
4.73212e-07
4.76911e-07
4.87347e-07
4.65518e-07
2.64276e-07
2.70314e-07
2.79765e-07
2.8772e-07
2.93742e-07
2.98157e-07
3.01403e-07
3.04143e-07
3.07208e-07
3.11541e-07
3.18163e-07
3.28059e-07
3.4198e-07
3.6023e-07
3.82559e-07
4.08194e-07
4.36003e-07
4.64702e-07
4.93086e-07
5.19985e-07
5.45084e-07
5.67901e-07
5.88044e-07
6.05164e-07
6.19342e-07
6.30784e-07
6.3972e-07
6.46376e-07
6.50978e-07
6.53734e-07
6.54832e-07
6.54428e-07
6.52688e-07
6.49706e-07
6.4563e-07
6.4051e-07
6.34677e-07
6.27589e-07
6.21737e-07
6.07463e-07
6.3278e-07
2.26326e-07
2.33431e-07
2.44102e-07
2.54233e-07
2.62588e-07
2.68463e-07
2.71276e-07
2.70872e-07
2.67587e-07
2.62164e-07
2.55646e-07
2.49241e-07
2.44125e-07
2.41216e-07
2.40977e-07
2.43322e-07
2.47683e-07
2.53232e-07
2.59112e-07
2.64718e-07
2.69263e-07
2.72524e-07
2.73676e-07
2.7327e-07
2.71746e-07
2.69465e-07
2.66843e-07
2.64345e-07
2.62403e-07
2.61364e-07
2.61487e-07
2.62943e-07
2.65822e-07
2.70132e-07
2.75831e-07
2.82856e-07
2.91012e-07
3.00545e-07
3.09516e-07
3.26384e-07
3.12702e-07
1.96862e-07
2.01483e-07
2.07626e-07
2.19125e-07
2.41698e-07
2.77657e-07
3.245e-07
3.77561e-07
4.32334e-07
4.85287e-07
5.339e-07
5.765e-07
6.12108e-07
6.40296e-07
6.6108e-07
6.74827e-07
6.82171e-07
6.83904e-07
6.80918e-07
6.7399e-07
6.64165e-07
6.55053e-07
6.44747e-07
6.34368e-07
6.24507e-07
6.15482e-07
6.07473e-07
6.00529e-07
5.9458e-07
5.89468e-07
5.84982e-07
5.80889e-07
5.76932e-07
5.72773e-07
5.68347e-07
5.63488e-07
5.57881e-07
5.51357e-07
5.43097e-07
5.38897e-07
5.20517e-07
0.157135
0.195174
0.22307
0.240636
0.252117
0.256749
0.256611
0.253575
0.24846
0.241735
0.233831
0.22511
0.215841
0.206219
0.196391
0.18647
0.176544
0.166679
0.156923
0.147313
0.137888
0.128653
0.119614
0.110768
0.102124
0.0936966
0.0854962
0.0775311
0.0698112
0.0623472
0.05515
0.0482331
0.0416143
0.0353072
0.029313
0.0236309
0.0182637
0.0132204
0.00851993
0.00423451
0.00148522
0.00417069
0.00750453
0.0106096
0.0134281
0.0159472
0.0181632
0.0200759
0.0216864
0.0230055
0.0240441
0.0248112
0.0253153
0.0255654
0.0255717
0.025346
0.0249012
0.0242516
0.0234141
0.0224076
0.0212521
0.0199681
0.0185771
0.0171019
0.0155663
0.0139961
0.0124181
0.0108591
0.00934692
0.00790456
0.00656901
0.00531043
0.00434082
0.00293696
0.652564
0.535069
0.473233
0.443182
0.420533
0.399475
0.37944
0.360411
0.342332
0.325138
0.308785
0.293226
0.278411
0.264286
0.2508
0.237908
0.225565
0.213732
0.202373
0.191451
0.18094
0.17081
0.161032
0.151585
0.142447
0.133594
0.12501
0.116678
0.108592
0.100748
0.0931442
0.0857747
0.0786422
0.0717573
0.0651263
0.0587499
0.052628
0.0467653
0.0411603
0.0358135
0.0307241
0.0259083
0.021369
0.0171028
0.0131069
0.00938223
0.00593475
0.00279481
0.000807065
0.00301185
0.005387
0.00754977
0.00948348
0.0111869
0.0126621
0.0139126
0.0149429
0.0157587
0.0163703
0.0167884
0.0170228
0.017083
0.0169789
0.0167209
0.0163203
0.0157892
0.0151405
0.0143881
0.0135476
0.0126317
0.0116711
0.0106321
0.00972595
0.00827827
0.582912
0.520478
0.475529
0.44533
0.416545
0.389733
0.365691
0.344018
0.324369
0.306532
0.290308
0.275501
0.261925
0.249413
0.237819
0.227015
0.216887
0.207342
0.198295
0.189679
0.181433
0.173508
0.165862
0.158459
0.151272
0.144276
0.13745
0.13078
0.124254
0.117859
0.111592
0.10544
0.0994026
0.0934878
0.0877042
0.0820581
0.0765527
0.0711871
0.065963
0.0608849
0.0559549
0.0511833
0.0465801
0.0421507
0.0378971
0.0338255
0.0299361
0.0262294
0.0227052
0.0193743
0.0162399
0.0132999
0.0105512
0.00799177
0.00562089
0.0034401
0.001464
0.000550026
0.00208292
0.00354731
0.00486114
0.00602308
0.00703567
0.00790241
0.0086274
0.00921522
0.009671
0.0100004
0.0102094
0.0103054
0.0102989
0.0101934
0.00999989
0.00979286
0.458589
0.383057
0.329266
0.295129
0.266508
0.242269
0.22234
0.205704
0.191625
0.179671
0.169502
0.160829
0.153414
0.147058
0.141589
0.136861
0.132744
0.129125
0.125903
0.122991
0.12031
0.117795
0.115385
0.113033
0.110699
0.108348
0.105955
0.1035
0.100968
0.0983484
0.0956363
0.0928325
0.0899382
0.0869584
0.0839022
0.0807813
0.0776068
0.0743845
0.0711273
0.0678484
0.0645582
0.0612682
0.0579911
0.0547389
0.0515223
0.0483468
0.0452193
0.0421474
0.0391372
0.0361981
0.0333401
0.0305708
0.0278954
0.0253177
0.0228408
0.0204675
0.0182005
0.0160424
0.0140002
0.0120771
0.0102724
0.00858525
0.00701411
0.00555669
0.00421093
0.002975
0.00184759
0.000830477
0.000183458
0.000941775
0.00166362
0.0023299
0.00280403
0.00366273
0.24952
0.183852
0.138689
0.111852
0.0922018
0.0772155
0.0660019
0.057408
0.0506595
0.0453244
0.0411051
0.0377774
0.035177
0.0331826
0.0317021
0.0306634
0.0300098
0.0296957
0.0296831
0.0299394
0.0304352
0.0311429
0.0320353
0.0330843
0.0342608
0.0355341
0.0368719
0.0382411
0.0396081
0.04094
0.0422051
0.0433742
0.0444206
0.0453217
0.0460591
0.0466196
0.0469951
0.0471844
0.0471869
0.0470058
0.0466472
0.0461199
0.0454356
0.0446078
0.043651
0.0425749
0.041394
0.0401233
0.0387761
0.0373656
0.0359048
0.0344063
0.0328813
0.0313399
0.0297907
0.0282415
0.0266991
0.0251697
0.0236602
0.0221774
0.0207275
0.0193145
0.0179415
0.0166117
0.0153277
0.0140918
0.012906
0.0117719
0.0106913
0.00966502
0.00870467
0.00777437
0.007008
0.00591497
0.0573794
0.0361466
0.0223675
0.0151734
0.0105288
0.00730828
0.00515276
0.00367859
0.00263754
0.00189833
0.00137593
0.00100853
0.000751863
0.000574311
0.000453205
0.000372632
0.00032185
0.000294073
0.000285607
0.000295325
0.000324397
0.000376167
0.000455974
0.000570645
0.00072747
0.000932935
0.00119201
0.0015087
0.00188717
0.00233236
0.00284947
0.00344291
0.00411523
0.00486629
0.00569282
0.00658825
0.00754285
0.00854414
0.00957734
0.0106261
0.0116728
0.0127
0.0136903
0.0146278
0.0154982
0.0162914
0.0169978
0.0176101
0.0181236
0.0185356
0.018846
0.0190565
0.0191709
0.019194
0.0191315
0.01899
0.0187762
0.0184967
0.0181588
0.0177696
0.0173364
0.0168653
0.0163622
0.0158332
0.0152841
0.0147198
0.0141449
0.0135636
0.0129794
0.0123954
0.0118175
0.01124
0.0106908
0.0101088
0.0031091
0.00138348
0.000540268
0.000250901
0.000131182
7.01437e-05
4.0179e-05
2.50457e-05
1.66854e-05
1.20859e-05
1.01349e-05
1.01634e-05
1.14906e-05
1.3491e-05
1.57476e-05
1.8018e-05
2.01472e-05
2.20177e-05
2.35341e-05
2.46193e-05
2.52128e-05
2.52693e-05
2.47581e-05
2.36634e-05
2.19853e-05
1.97429e-05
1.69778e-05
1.37558e-05
1.01607e-05
6.2865e-06
2.30609e-06
2.61794e-06
7.26085e-06
1.27084e-05
1.94234e-05
2.8332e-05
4.09053e-05
5.93423e-05
8.67078e-05
0.000126852
0.000183892
0.000261272
0.000360929
0.000483268
0.000627838
0.00079392
0.00098059
0.00118648
0.00140956
0.00164707
0.00189558
0.00215113
0.00240945
0.00266615
0.00291692
0.00315768
0.00338474
0.00359484
0.00378523
0.00395378
0.00409886
0.00421975
0.00431612
0.00438794
0.00443553
0.00445954
0.00446089
0.00444077
0.00440038
0.0043414
0.00426448
0.00417408
0.00405995
0.00397084
0.000327599
0.000237859
0.000158976
0.000124299
0.000110064
9.29488e-05
7.68495e-05
6.4572e-05
5.51802e-05
4.7506e-05
4.10559e-05
3.55754e-05
3.09169e-05
2.69618e-05
2.3599e-05
2.07468e-05
1.83527e-05
1.6376e-05
1.47756e-05
1.3506e-05
1.25161e-05
1.17499e-05
1.11492e-05
1.06581e-05
1.02271e-05
9.81568e-06
9.39316e-06
8.93939e-06
8.44262e-06
7.89847e-06
7.30868e-06
6.68006e-06
6.02389e-06
5.35538e-06
4.69331e-06
4.0595e-06
3.47784e-06
2.97326e-06
2.57041e-06
2.2925e-06
2.16029e-06
2.19019e-06
2.39042e-06
2.75657e-06
3.27099e-06
3.90704e-06
4.63574e-06
5.43262e-06
6.28397e-06
7.19183e-06
8.17718e-06
9.28144e-06
1.05664e-05
1.21128e-05
1.40179e-05
1.63917e-05
1.93495e-05
2.30021e-05
2.74405e-05
3.27183e-05
3.88334e-05
4.57151e-05
5.32192e-05
6.11355e-05
6.92049e-05
7.71435e-05
8.46669e-05
9.15116e-05
9.74476e-05
0.00010228
0.000105916
0.000107944
0.000109796
0.00010447
0.000541573
0.000444766
0.000328969
0.000261827
0.000227311
0.000191071
0.000155926
0.000128966
0.000108531
9.17232e-05
7.77713e-05
6.63871e-05
5.70435e-05
4.92732e-05
4.27625e-05
3.72744e-05
3.26129e-05
2.86231e-05
2.51845e-05
2.22017e-05
1.95982e-05
1.73129e-05
1.5297e-05