/*--------------------------------*- C++ -*----------------------------------*\
| =========                 |                                                 |
| \\      /  F ield         | OpenFOAM: The Open Source CFD Toolbox           |
|  \\    /   O peration     | Version:  2312                                  |
|   \\  /    A nd           | Website:  www.openfoam.com                      |
|    \\/     M anipulation  |                                                 |
\*---------------------------------------------------------------------------*/
FoamFile
{
    version     2.0;
    format      ascii;
    arch        "LSB;label=32;scalar=64";
    class       volVectorField;
    location    "248";
    object      momentError;
}
// * * * * * * * * * * * * * * * * * * * * * * * * * * * * * * * * * * * * * //

dimensions      [0 1 -2 0 0 0 0];

internalField   nonuniform List<vector> 
11040
(
(0.000959688 -0.000726527 1.80265e-15)
(-0.000448174 -0.00638958 -2.89226e-15)
(-0.00260958 -0.00338435 -7.58723e-16)
(-0.00150331 -0.000359211 1.4222e-15)
(-0.000631654 -0.000212002 1.13499e-15)
(-4.93607e-05 0.000101598 2.54149e-15)
(5.13819e-05 0.000240836 4.12584e-16)
(4.70915e-05 0.000318007 -5.40884e-15)
(-2.1028e-05 0.000284898 -2.12972e-15)
(-0.000137326 0.000197902 -4.51455e-16)
(-0.000254009 0.00011817 1.17016e-15)
(-0.00034187 6.59e-05 2.14804e-15)
(-0.000386552 3.37463e-05 -8.6017e-16)
(-0.00039638 1.60328e-05 -8.32013e-16)
(-0.000381015 7.73502e-06 -4.74032e-17)
(-0.000353327 4.74027e-06 1.91155e-16)
(-0.000321404 4.91439e-06 -1.05216e-15)
(-0.000292164 6.48641e-06 3.37603e-16)
(-0.000266431 8.62395e-06 7.94094e-16)
(-0.000246106 1.07714e-05 -2.03008e-16)
(-0.000227544 1.30173e-05 -1.14388e-16)
(-0.000223992 1.66386e-05 4.01907e-16)
(-0.000219039 1.84214e-05 8.77475e-17)
(-0.000216335 1.92712e-05 -1.08561e-16)
(-0.000215691 2.01032e-05 3.26573e-16)
(-0.000215707 2.14391e-05 -8.25087e-16)
(-0.000214933 2.2815e-05 -7.05082e-16)
(-0.00021468 2.42671e-05 -1.54632e-16)
(-0.000214134 2.56862e-05 -2.76435e-16)
(-0.000213887 2.71955e-05 -5.36923e-16)
(-0.000212912 2.86454e-05 -5.0232e-17)
(-0.00021197 3.01164e-05 4.91579e-16)
(-0.000210051 3.13911e-05 6.72188e-16)
(-0.000207293 3.24265e-05 1.10228e-15)
(-0.0002039 3.32949e-05 1.79885e-16)
(-0.000200214 3.40582e-05 9.04306e-17)
(-0.000194736 3.44233e-05 3.84087e-16)
(-0.000185674 3.40475e-05 -6.73336e-17)
(-0.000174769 3.3328e-05 5.23239e-17)
(-0.000160547 3.1731e-05 2.29065e-16)
(-0.000140651 3.72257e-05 1.14171e-16)
(0.00079745 -0.00315554 1.37045e-17)
(-0.00124013 -0.00426467 7.95359e-16)
(-0.00415156 -0.00179538 -7.15383e-16)
(-0.00339074 5.4481e-05 8.53878e-16)
(-0.0021203 0.000206911 3.15238e-16)
(-0.00191042 -0.000452327 -2.68996e-16)
(-0.00187908 -0.000518593 -1.22745e-15)
(-0.00173036 -0.000428145 1.50221e-15)
(-0.00148442 -0.000332332 1.73905e-15)
(-0.00123368 -0.000248393 4.87095e-17)
(-0.000986975 -0.000204152 -2.76426e-16)
(-0.000800397 -0.0001514 5.81643e-16)
(-0.000659222 -0.000117534 2.58399e-15)
(-0.000559195 -8.93392e-05 7.12232e-16)
(-0.000490758 -6.5344e-05 1.16365e-15)
(-0.000442626 -4.59127e-05 -9.35074e-16)
(-0.00040679 -3.01735e-05 4.69991e-16)
(-0.000376947 -1.7338e-05 6.27813e-16)
(-0.000350876 -7.27593e-06 3.05156e-16)
(-0.000326214 5.98108e-07 -4.03798e-17)
(-0.000303298 6.9475e-06 3.80579e-18)
(-0.000297411 1.39346e-05 -1.93915e-16)
(-0.000287521 1.67899e-05 -7.08645e-17)
(-0.000280627 1.83649e-05 4.70445e-16)
(-0.00027775 2.07285e-05 8.04945e-18)
(-0.000275891 2.37507e-05 -9.51287e-17)
(-0.000274358 2.64903e-05 -3.69845e-16)
(-0.00027319 2.9085e-05 1.90531e-16)
(-0.000272676 3.16884e-05 5.69849e-16)
(-0.000272313 3.42048e-05 -2.44871e-16)
(-0.000272218 3.67051e-05 -2.6074e-16)
(-0.000271924 3.90416e-05 -5.666e-16)
(-0.000271786 4.127e-05 -6.18659e-16)
(-0.000270546 4.31293e-05 -3.48685e-16)
(-0.000270221 4.51166e-05 -3.07755e-17)
(-0.000269978 4.70466e-05 5.75147e-18)
(-0.000269918 4.89617e-05 -1.671e-16)
(-0.000267245 5.02567e-05 1.4711e-16)
(-0.000265107 5.21712e-05 -1.77106e-17)
(-0.000268103 5.37642e-05 -2.05682e-17)
(-0.000251377 6.02951e-05 2.92307e-17)
(0.000274468 -0.00359811 -6.54088e-17)
(-0.000887779 -0.00373302 1.2617e-15)
(-0.00232948 -0.00284681 1.0925e-15)
(-0.00233761 -0.00173696 -1.07392e-15)
(-0.00167344 -0.00112874 3.88982e-16)
(-0.00125575 -0.000843507 6.71729e-17)
(-0.00113735 -0.000630886 1.08474e-15)
(-0.00108557 -0.000457887 2.0649e-15)
(-0.00100383 -0.000320849 5.28245e-16)
(-0.00090481 -0.000220435 -1.10316e-15)
(-0.000839688 -0.000140476 2.27083e-16)
(-0.000782434 -8.39931e-05 -1.70415e-15)
(-0.000722321 -6.61897e-05 -6.40168e-16)
(-0.000665215 -5.41551e-05 7.33179e-16)
(-0.000612262 -3.96737e-05 -1.19382e-15)
(-0.000561223 -2.68883e-05 1.20246e-15)
(-0.000512054 -1.56788e-05 1.47563e-16)
(-0.000465925 -5.6136e-06 -2.85275e-16)
(-0.00042385 3.12796e-06 -1.57592e-16)
(-0.000386198 1.04037e-05 -1.77097e-17)
(-0.000352289 1.60596e-05 1.07821e-16)
(-0.000343879 2.34362e-05 3.42337e-16)
(-0.000333068 2.5371e-05 1.60908e-16)
(-0.000325342 2.6168e-05 -1.63111e-17)
(-0.000321781 2.80534e-05 -1.92267e-16)
(-0.000320071 3.08613e-05 -4.9778e-17)
(-0.000318814 3.35588e-05 7.98059e-16)
(-0.000318298 3.61831e-05 3.95048e-17)
(-0.000318214 3.88998e-05 -5.69233e-16)
(-0.000318496 4.14819e-05 -6.36864e-17)
(-0.000318711 4.40594e-05 2.87988e-16)
(-0.000318953 4.64859e-05 1.45973e-16)
(-0.000318994 4.88595e-05 -2.04585e-16)
(-0.000317861 5.08909e-05 5.34032e-16)
(-0.000317417 5.31548e-05 2.71844e-16)
(-0.000317384 5.54457e-05 -2.52102e-16)
(-0.000317302 5.77771e-05 -1.76686e-16)
(-0.000313875 5.92794e-05 -6.01567e-17)
(-0.000311137 6.17258e-05 6.24788e-17)
(-0.000313606 6.38071e-05 -4.00528e-17)
(-0.000292996 7.06464e-05 -7.46346e-17)
(8.06617e-05 -0.00331525 -3.53272e-16)
(-0.000686539 -0.00321882 4.89333e-18)
(-0.00169672 -0.00265537 5.64292e-17)
(-0.00221269 -0.00161506 9.85395e-16)
(-0.00202859 -0.000689143 -1.39862e-16)
(-0.0016461 -0.000268973 4.25233e-16)
(-0.00140228 -0.000168285 5.84485e-16)
(-0.00127096 -0.000135691 -9.24465e-16)
(-0.0011574 -0.000100075 -1.24999e-16)
(-0.00104563 -7.20287e-05 2.23392e-18)
(-0.000952361 -5.58046e-05 1.72135e-16)
(-0.000862005 -7.15543e-05 1.4837e-15)
(-0.000795154 -6.26036e-05 -7.85091e-16)
(-0.000732983 -6.12593e-05 3.13386e-16)
(-0.000682787 -5.15939e-05 1.55494e-15)
(-0.000638578 -3.88395e-05 2.52143e-16)
(-0.000596478 -2.59016e-05 -6.78426e-16)
(-0.000555689 -1.3917e-05 -6.50585e-16)
(-0.000516255 -3.12488e-06 -1.30973e-16)
(-0.000478137 6.49753e-06 6.93138e-17)
(-0.000440868 1.44308e-05 2.49495e-18)
(-0.000435242 2.51094e-05 -1.81073e-16)
(-0.00042203 2.90384e-05 -2.36736e-16)
(-0.000409735 3.09687e-05 -6.41097e-17)
(-0.000400741 3.34469e-05 -7.36628e-17)
(-0.000393201 3.68743e-05 -6.31262e-16)
(-0.000386146 4.02802e-05 -7.56055e-16)
(-0.000379975 4.34311e-05 1.87113e-16)
(-0.000374758 4.66174e-05 2.25194e-16)
(-0.000370503 4.95271e-05 5.40178e-16)
(-0.000366941 5.23992e-05 -2.0942e-17)
(-0.000364153 5.50571e-05 -1.18249e-16)
(-0.000361991 5.77235e-05 1.06513e-17)
(-0.000359117 5.99869e-05 -7.60352e-16)
(-0.00035788 6.26377e-05 -9.57407e-17)
(-0.000357921 6.53781e-05 -9.54481e-17)
(-0.000358814 6.83242e-05 -1.39645e-17)
(-0.000356365 7.0169e-05 1.34413e-17)
(-0.000355729 7.33935e-05 2.55388e-17)
(-0.000361197 7.54638e-05 -4.20192e-17)
(-0.000342225 8.25183e-05 -1.00533e-16)
(-3.36358e-05 -0.00279187 -1.11289e-17)
(-0.000527028 -0.00267835 -4.70752e-16)
(-0.00115647 -0.00239854 -2.37852e-16)
(-0.00162925 -0.00182665 -1.2358e-15)
(-0.00167065 -0.00119669 -2.72217e-16)
(-0.00143042 -0.000813619 1.42332e-16)
(-0.00120635 -0.000639783 4.40126e-17)
(-0.00107309 -0.000525435 -5.43468e-16)
(-0.000974836 -0.000418853 -5.34424e-16)
(-0.000882173 -0.00032888 3.14892e-16)
(-0.000797891 -0.000261496 4.55115e-16)
(-0.000720661 -0.000204753 3.54469e-16)
(-0.000653373 -0.000158865 1.20184e-16)
(-0.000607709 -0.00010405 -3.25053e-16)
(-0.000565938 -7.76437e-05 -1.00617e-15)
(-0.00052812 -5.83282e-05 -3.60496e-16)
(-0.000493624 -4.01867e-05 2.63442e-16)
(-0.000461349 -2.5024e-05 9.91597e-17)
(-0.000431537 -1.20275e-05 -2.70651e-16)
(-0.000404047 -9.49754e-07 6.18203e-18)
(-0.000378875 8.00133e-06 -2.67478e-18)
(-0.000383512 1.86676e-05 2.28084e-16)
(-0.000380766 2.24911e-05 -1.78334e-16)
(-0.00037802 2.45394e-05 -1.8006e-16)
(-0.000378049 2.70399e-05 4.7232e-16)
(-0.000379209 3.06466e-05 5.33123e-16)
(-0.000380438 3.4568e-05 4.36248e-17)
(-0.000381703 3.83712e-05 1.10719e-16)
(-0.000383143 4.23534e-05 4.22355e-16)
(-0.000384615 4.61754e-05 -2.76023e-16)
(-0.000385984 5.00102e-05 -1.76466e-16)
(-0.000387246 5.36479e-05 1.59808e-16)
(-0.000388478 5.72997e-05 1.42694e-16)
(-0.000388078 6.0513e-05 6.45328e-16)
(-0.000389058 6.4153e-05 1.62823e-16)
(-0.000391076 6.792e-05 1.23447e-16)
(-0.000394129 7.20358e-05 4.44642e-17)
(-0.00039319 7.48446e-05 -4.79027e-17)
(-0.000395433 7.95893e-05 -1.27112e-17)
(-0.000403285 8.15544e-05 7.67577e-17)
(-0.000393135 8.82208e-05 4.98016e-17)
(-5.98091e-05 -0.00224918 2.99673e-16)
(-0.000396644 -0.00216724 -8.20475e-16)
(-0.000808677 -0.00203051 7.21234e-17)
(-0.00120144 -0.00170351 7.19833e-16)
(-0.0013975 -0.00122142 2.69609e-17)
(-0.00135469 -0.000786966 -2.96925e-17)
(-0.00121694 -0.000500593 -1.84924e-16)
(-0.0010944 -0.000325348 -1.88844e-16)
(-0.000996714 -0.000207258 2.35272e-16)
(-0.000908229 -0.000125354 -2.19454e-16)
(-0.000826387 -7.21099e-05 -9.41347e-16)
(-0.000748303 -4.04982e-05 -3.30238e-16)
(-0.000683215 -1.95707e-05 7.16503e-16)
(-0.000625624 -1.80616e-05 -5.18012e-16)
(-0.000580008 -1.12093e-05 -4.67253e-16)
(-0.000538701 -9.35338e-06 7.34441e-16)
(-0.000501601 -3.07434e-06 -4.34228e-16)
(-0.000467554 3.97818e-06 5.34617e-18)
(-0.000435716 1.10408e-05 -1.19115e-16)
(-0.000406042 1.76451e-05 -5.93079e-17)
(-0.000378234 2.32653e-05 1.23443e-16)
(-0.000380936 3.19234e-05 2.89564e-17)
(-0.000377511 3.47914e-05 -3.86459e-17)
(-0.000374064 3.64151e-05 2.36338e-16)
(-0.000373253 3.81399e-05 -2.57847e-16)
(-0.000373938 4.07991e-05 -3.05628e-16)
(-0.000375118 4.39828e-05 5.12215e-16)
(-0.000376658 4.73228e-05 -1.67095e-16)
(-0.000378709 5.10021e-05 -6.76369e-16)
(-0.000381151 5.47831e-05 -1.9078e-16)
(-0.000383854 5.86516e-05 2.91534e-16)
(-0.000386774 6.24289e-05 1.59435e-16)
(-0.000390007 6.61952e-05 -6.24186e-17)
(-0.000391832 6.95046e-05 -3.91382e-16)
(-0.000395422 7.32191e-05 -2.38679e-16)
(-0.000400396 7.71171e-05 2.97709e-17)
(-0.000406976 8.14875e-05 7.4079e-17)
(-0.000409475 8.43871e-05 8.31946e-18)
(-0.000417471 8.96917e-05 8.73206e-18)
(-0.000427184 9.09234e-05 -2.16911e-17)
(-0.00043772 9.84614e-05 3.7448e-17)
(-6.18492e-05 -0.0017646 -3.61195e-18)
(-0.000298695 -0.00171965 2.10437e-16)
(-0.000571143 -0.00166081 3.67439e-17)
(-0.000853387 -0.00149863 1.44801e-16)
(-0.00106136 -0.00121421 1.19817e-16)
(-0.00112159 -0.000903182 -1.24103e-17)
(-0.00106796 -0.000657702 -1.48361e-17)
(-0.000978641 -0.00049241 -1.47696e-16)
(-0.000893215 -0.000379103 3.93633e-16)
(-0.000816028 -0.000296715 3.96703e-16)
(-0.000743969 -0.000237344 7.26581e-16)
(-0.000673285 -0.000193623 4.19064e-16)
(-0.000612129 -0.000160188 -7.62672e-16)
(-0.000560211 -0.000131608 9.51541e-16)
(-0.000514635 -0.000106573 -2.83057e-16)
(-0.000478404 -7.55015e-05 -2.11005e-16)
(-0.000446184 -5.57681e-05 -9.4602e-17)
(-0.000416089 -3.96672e-05 -3.82867e-16)
(-0.000387797 -2.57554e-05 2.4896e-16)
(-0.000361255 -1.37834e-05 -5.53407e-17)
(-0.000336384 -3.67813e-06 1.39211e-17)
(-0.00033869 6.94878e-06 2.67288e-17)
(-0.000335574 1.19174e-05 -7.84192e-17)
(-0.000331692 1.53233e-05 -2.13082e-16)
(-0.000329758 1.80237e-05 2.13369e-16)
(-0.000329176 2.11065e-05 1.7157e-16)
(-0.000329097 2.45728e-05 -2.69564e-16)
(-0.000329323 2.81593e-05 -1.69725e-16)
(-0.000330018 3.20049e-05 1.48905e-16)
(-0.000331123 3.59979e-05 2.8342e-17)
(-0.000332522 4.00595e-05 5.88891e-17)
(-0.000334169 4.40366e-05 5.07969e-17)
(-0.000336155 4.79272e-05 1.31881e-16)
(-0.000337022 5.14069e-05 -3.219e-17)
(-0.000339554 5.51503e-05 -1.53763e-16)
(-0.000343537 5.90402e-05 -9.35045e-17)
(-0.000349315 6.33289e-05 1.68777e-16)
(-0.000351843 6.65558e-05 4.06485e-17)
(-0.000361173 7.16397e-05 -4.31678e-17)
(-0.000369425 7.429e-05 5.81328e-18)
(-0.000393158 8.01584e-05 2.32147e-17)
(-5.44382e-05 -0.00136049 -1.80624e-17)
(-0.000221877 -0.00134347 2.82817e-16)
(-0.000409024 -0.00132297 -2.63235e-16)
(-0.000606021 -0.00124516 -3.62063e-16)
(-0.000782735 -0.00108458 -2.54881e-16)
(-0.000889323 -0.000872222 1.60086e-16)
(-0.000911617 -0.00065992 2.81803e-17)
(-0.000878492 -0.000482618 -1.27283e-16)
(-0.000824343 -0.00034575 -3.38018e-16)
(-0.000766593 -0.000242297 1.54409e-16)
(-0.000708464 -0.000165914 3.31111e-16)
(-0.000647085 -0.000110998 -8.47365e-16)
(-0.000591638 -7.08778e-05 1.69109e-16)
(-0.000543108 -4.22368e-05 3.29719e-16)
(-0.000501105 -2.10758e-05 -8.4428e-16)
(-0.00046395 -9.49662e-06 8.18398e-17)
(-0.000431621 -2.09808e-06 4.20661e-16)
(-0.000402826 5.78913e-06 4.88556e-16)
(-0.00037576 1.25609e-05 1.47625e-16)
(-0.000350324 1.85484e-05 -2.39089e-16)
(-0.000326272 2.36106e-05 -3.79203e-16)
(-0.000328552 3.16166e-05 4.54069e-16)
(-0.000326047 3.48415e-05 -1.90564e-16)
(-0.000322773 3.73576e-05 -9.74944e-17)
(-0.000320921 3.93559e-05 -1.43928e-17)
(-0.000320225 4.15705e-05 -3.24484e-17)
(-0.000320051 4.41763e-05 -7.87089e-17)
(-0.000320147 4.69641e-05 -9.90571e-17)
(-0.000320625 5.00122e-05 1.89417e-16)
(-0.000321456 5.32706e-05 2.73633e-16)
(-0.000322513 5.66368e-05 -6.37319e-17)
(-0.000323691 5.9926e-05 -2.1545e-16)
(-0.000325013 6.30632e-05 -6.39289e-17)
(-0.000324953 6.56088e-05 6.38789e-17)
(-0.000326062 6.82182e-05 1.46399e-16)
(-0.000327966 7.07175e-05 2.98318e-17)
(-0.000331 7.33278e-05 -6.90165e-17)
(-0.000329722 7.45703e-05 -3.60652e-17)
(-0.00033426 7.69018e-05 3.10662e-17)
(-0.000335006 7.75457e-05 -8.36176e-18)
(-0.000349301 7.90029e-05 -2.85713e-17)
(-4.5668e-05 -0.00103586 3.54418e-17)
(-0.000164354 -0.00103631 -1.41681e-16)
(-0.000295584 -0.00103572 -8.67987e-17)
(-0.000431982 -0.00100256 5.60421e-17)
(-0.000564607 -0.000920159 5.54179e-17)
(-0.000669725 -0.000796796 -6.79761e-17)
(-0.000726917 -0.000653029 3.77999e-17)
(-0.000736668 -0.000514508 -2.56195e-18)
(-0.000715474 -0.000397054 4.83746e-17)
(-0.0006804 -0.000304418 1.47791e-16)
(-0.000638768 -0.000234247 4.68616e-16)
(-0.000589711 -0.000181663 -3.53831e-17)
(-0.000542378 -0.000142536 -4.80001e-16)
(-0.000499222 -0.0001141 3.19213e-16)
(-0.000460764 -9.26038e-05 -1.28767e-16)
(-0.00042606 -7.5129e-05 -6.97611e-16)
(-0.000394631 -5.71912e-05 2.28279e-16)
(-0.000366598 -4.14946e-05 -8.39554e-17)
(-0.000341947 -2.93014e-05 5.3781e-16)
(-0.000318788 -1.89939e-05 -2.021e-16)
(-0.000296869 -9.84693e-06 -3.77873e-17)
(-0.000299128 -6.5738e-07 2.54283e-16)
(-0.000297283 4.30841e-06 -7.83156e-17)
(-0.000294167 8.6512e-06 3.26555e-17)
(-0.000291909 1.21345e-05 1.80799e-16)
(-0.000290527 1.53644e-05 3.68553e-17)
(-0.000289618 1.86289e-05 2.51755e-16)
(-0.000288955 2.18657e-05 1.6573e-16)
(-0.000288631 2.51414e-05 -1.1138e-16)
(-0.000288683 2.85239e-05 -1.48299e-16)
(-0.000289042 3.1962e-05 -1.18876e-16)
(-0.00028962 3.53569e-05 6.32714e-17)
(-0.000290424 3.86125e-05 -9.68869e-18)
(-0.0002901 4.14477e-05 9.41786e-19)
(-0.000290896 4.42813e-05 -1.02361e-16)
(-0.000292498 4.70235e-05 5.1639e-18)
(-0.000295211 4.97787e-05 2.39603e-17)
(-0.000294157 5.16672e-05 6.30768e-17)
(-0.000298314 5.40629e-05 -4.5817e-17)
(-0.000299241 5.57073e-05 1.82285e-17)
(-0.000310032 5.61921e-05 1.46293e-18)
(-3.70286e-05 -0.000780745 9.59369e-17)
(-0.000121786 -0.000790689 -1.44761e-17)
(-0.000214929 -0.000799503 1.08279e-18)
(-0.000310731 -0.000788341 2.32917e-16)
(-0.000406434 -0.000747701 1.55648e-16)
(-0.000493276 -0.000679791 -1.26708e-16)
(-0.000557975 -0.000589455 -5.27133e-17)
(-0.000592661 -0.00048829 -1.87134e-16)
(-0.000599966 -0.000389725 7.73884e-18)
(-0.000589314 -0.000302577 4.44163e-16)
(-0.000567187 -0.000229812 -4.61618e-18)
(-0.000533775 -0.000170303 1.46647e-17)
(-0.000497765 -0.00012313 -1.90578e-16)
(-0.000462181 -8.70588e-05 -2.08094e-16)
(-0.00042873 -5.92612e-05 -1.26568e-16)
(-0.000397941 -3.75357e-05 -2.26889e-16)
(-0.000369762 -2.0431e-05 3.50778e-16)
(-0.000343723 -8.73263e-06 -8.49906e-17)
(-0.000320083 1.16457e-06 3.44681e-17)
(-0.000298824 8.70348e-06 -1.86741e-16)
(-0.000278594 1.50023e-05 -1.20403e-16)
(-0.000280756 2.32172e-05 7.37707e-17)
(-0.000279319 2.72841e-05 8.4908e-17)
(-0.000276892 3.13108e-05 -2.04769e-16)
(-0.000274979 3.47615e-05 9.18051e-17)
(-0.000273703 3.78538e-05 1.52587e-16)
(-0.000272839 4.07974e-05 -2.75522e-16)
(-0.000272195 4.35945e-05 -2.30513e-17)
(-0.000271809 4.62937e-05 1.52905e-16)
(-0.000271744 4.89439e-05 3.13663e-17)
(-0.000271968 5.15848e-05 8.59444e-17)
(-0.000272393 5.41309e-05 -4.64697e-17)
(-0.00027299 5.65452e-05 1.03763e-16)
(-0.000272445 5.84146e-05 -6.60023e-18)
(-0.000272778 6.02362e-05 1.66159e-17)
(-0.000273661 6.18194e-05 3.92889e-17)
(-0.000275383 6.32816e-05 -2.84922e-17)
(-0.00027339 6.34977e-05 -9.31113e-18)
(-0.000275957 6.40984e-05 2.58966e-17)
(-0.000275887 6.35701e-05 4.963e-19)
(-0.000283309 6.28448e-05 6.7279e-18)
(-2.96071e-05 -0.000583118 6.08964e-17)
(-9.03838e-05 -0.000597365 9.11728e-17)
(-0.000157094 -0.000609955 -3.19724e-17)
(-0.000225172 -0.000609986 7.84407e-17)
(-0.000293528 -0.000591956 -1.3309e-16)
(-0.000359442 -0.000557505 -6.3528e-17)
(-0.000416545 -0.000506624 7.74987e-17)
(-0.000457952 -0.000442894 1.10769e-16)
(-0.000481041 -0.000373733 1.12578e-16)
(-0.000488622 -0.000306941 -2.75265e-16)
(-0.000483847 -0.000246964 -4.05094e-16)
(-0.000466326 -0.000194728 -1.83304e-16)
(-0.000443176 -0.000151517 3.91116e-16)
(-0.000417214 -0.000117418 -1.79302e-16)
(-0.00039071 -9.09889e-05 -5.09394e-16)
(-0.000364956 -7.04645e-05 5.19685e-16)
(-0.000340415 -5.42176e-05 -3.61465e-16)
(-0.000317028 -4.07008e-05 6.68883e-16)
(-0.000294591 -2.92543e-05 5.67282e-16)
(-0.00027397 -1.91907e-05 -3.91552e-16)
(-0.00025521 -1.07659e-05 -2.16929e-16)
(-0.00025758 -3.08617e-06 1.28591e-16)
(-0.000256787 1.04008e-06 -2.14032e-16)
(-0.000254819 5.24584e-06 1.69738e-16)
(-0.00025311 8.87785e-06 -5.55732e-17)
(-0.000251807 1.2068e-05 9.76121e-17)
(-0.000250806 1.50063e-05 3.64673e-17)
(-0.000249942 1.77211e-05 -6.66461e-17)
(-0.000249258 2.02626e-05 6.05959e-17)
(-0.000248813 2.26943e-05 -9.8287e-17)
(-0.000248623 2.50992e-05 -2.32933e-17)
(-0.000248641 2.74912e-05 -6.20529e-18)
(-0.000248843 2.98682e-05 -5.15095e-17)
(-0.000248029 3.20194e-05 2.11373e-17)
(-0.000248005 3.42317e-05 9.54753e-17)
(-0.000248482 3.63794e-05 1.10107e-17)
(-0.000249681 3.84783e-05 -4.28768e-17)
(-0.000247511 3.98903e-05 -1.22834e-17)
(-0.000249351 4.15968e-05 -7.08954e-18)
(-0.00024909 4.26676e-05 -1.45624e-17)
(-0.000254801 4.32371e-05 5.71508e-18)
(-2.34834e-05 -0.000432464 -1.73345e-17)
(-6.72583e-05 -0.000447439 8.96626e-17)
(-0.000115332 -0.000460419 -1.84943e-16)
(-0.000164253 -0.000465571 -4.71197e-18)
(-0.000213299 -0.0004592 1.02478e-16)
(-0.000261864 -0.000442833 -3.00052e-17)
(-0.000307285 -0.000415681 4.78263e-17)
(-0.000345512 -0.000378013 -6.63097e-17)
(-0.000373504 -0.00033278 2.26789e-16)
(-0.000391042 -0.000284618 -4.18812e-17)
(-0.000398516 -0.000237175 -2.09212e-16)
(-0.000394293 -0.000191887 3.79248e-16)
(-0.000383276 -0.000151228 1.28435e-16)
(-0.000367456 -0.000116524 3.11412e-16)
(-0.000348827 -8.76514e-05 -7.09754e-17)
(-0.000328965 -6.39515e-05 -1.6069e-16)
(-0.000308913 -4.45787e-05 -1.58688e-16)
(-0.000289171 -2.87219e-05 -3.27732e-16)
(-0.000269951 -1.59309e-05 6.1563e-16)
(-0.000251479 -5.65393e-06 -3.02657e-16)
(-0.000233996 2.14689e-06 -4.41909e-16)
(-0.000235695 1.03431e-05 3.72026e-16)
(-0.000235026 1.4861e-05 -3.42664e-17)
(-0.00023356 1.94736e-05 -1.5901e-16)
(-0.000232234 2.36915e-05 -7.29108e-17)
(-0.000231115 2.73887e-05 1.81904e-16)
(-0.000230148 3.07804e-05 5.89432e-17)
(-0.000229333 3.38959e-05 -9.70929e-17)
(-0.000228624 3.67204e-05 -1.58636e-16)
(-0.000228077 3.9356e-05 1.56598e-16)
(-0.000227717 4.18293e-05 -5.88186e-17)
(-0.000227521 4.42205e-05 -6.3393e-17)
(-0.000227492 4.65004e-05 1.18975e-16)
(-0.00022655 4.84329e-05 1.39232e-18)
(-0.000226286 5.03386e-05 -6.1115e-17)
(-0.000226433 5.20897e-05 -2.47524e-17)
(-0.000227211 5.36545e-05 4.17832e-18)
(-0.000224972 5.4127e-05 1.09468e-17)
(-0.000226197 5.48581e-05 8.11247e-18)
(-0.000225891 5.46687e-05 5.62215e-18)
(-0.00023003 5.42502e-05 -9.5217e-18)
(-1.84689e-05 -0.000318632 -4.98962e-17)
(-5.02436e-05 -0.000332683 3.36692e-17)
(-8.50426e-05 -0.000344465 -1.03945e-16)
(-0.000120448 -0.000351411 -2.86746e-17)
(-0.000155876 -0.000350932 3.37647e-17)
(-0.000191327 -0.000344312 1.4314e-17)
(-0.000225779 -0.00033103 4.13568e-17)
(-0.000257175 -0.00031056 2.56182e-17)
(-0.000283505 -0.000283769 -8.32669e-17)
(-0.000303927 -0.000252961 -8.6626e-17)
(-0.000317666 -0.000220257 7.11043e-17)
(-0.000322438 -0.000186515 -6.42627e-17)
(-0.000321075 -0.00015427 -1.36702e-16)
(-0.000314519 -0.00012506 -1.92698e-16)
(-0.000304077 -9.95323e-05 3.09288e-16)
(-0.000291055 -7.78615e-05 2.54965e-16)
(-0.000276527 -5.98046e-05 -8.20527e-16)
(-0.000261262 -4.49098e-05 7.00496e-16)
(-0.000245671 -3.26715e-05 2.20557e-16)
(-0.000230066 -2.25473e-05 -2.46713e-16)
(-0.00021445 -1.42145e-05 2.95303e-16)
(-0.000216064 -6.76438e-06 -2.00768e-16)
(-0.000215844 -2.76518e-06 -9.77711e-18)
(-0.000215054 1.26359e-06 -1.88104e-16)
(-0.000214282 4.85381e-06 2.48079e-16)
(-0.000213557 8.10191e-06 1.67407e-16)
(-0.000212836 1.10266e-05 -2.11814e-16)
(-0.000212101 1.37071e-05 -1.83208e-17)
(-0.000211296 1.62087e-05 1.41548e-17)
(-0.000210609 1.84344e-05 -2.54884e-17)
(-0.000210174 2.06258e-05 1.56806e-16)
(-0.000209833 2.27471e-05 5.78154e-17)
(-0.000209586 2.48461e-05 -1.96949e-16)
(-0.000208464 2.67623e-05 7.64512e-17)
(-0.000207916 2.87661e-05 1.29827e-17)
(-0.000207729 3.06816e-05 -4.82373e-17)
(-0.000208066 3.25148e-05 2.19816e-17)
(-0.000205651 3.36607e-05 -2.08412e-18)
(-0.000206251 3.50458e-05 -1.87824e-17)
(-0.000205666 3.58063e-05 2.40172e-18)
(-0.000208665 3.63422e-05 7.12271e-18)
(-1.43499e-05 -0.000232731 6.09027e-17)
(-3.75224e-05 -0.000245246 -6.05734e-17)
(-6.28608e-05 -0.000255409 9.37726e-18)
(-8.86515e-05 -0.000262535 -7.57914e-18)
(-0.000114429 -0.000264768 1.2314e-16)
(-0.000140327 -0.000263104 -8.7703e-17)
(-0.000165982 -0.000257317 -7.14254e-17)
(-0.000190388 -0.000246858 4.44296e-17)
(-0.000212446 -0.000231831 6.65909e-17)
(-0.000231533 -0.000213229 -1.37855e-16)
(-0.000246769 -0.000191988 -9.59299e-17)
(-0.000255957 -0.000168259 3.45012e-17)
(-0.0002605 -0.000143919 -2.923e-16)
(-0.000260576 -0.000120231 1.94677e-16)
(-0.000256762 -9.80583e-05 5.12546e-16)
(-0.000249841 -7.79696e-05 -1.48985e-16)
(-0.000240644 -6.02375e-05 -2.45725e-16)
(-0.000229872 -4.48637e-05 3.45754e-17)
(-0.000218062 -3.17023e-05 -9.30416e-17)
(-0.000205693 -2.05743e-05 4.20858e-16)
(-0.000192841 -1.13208e-05 1.35548e-17)
(-0.000194578 -2.99832e-06 -2.58692e-16)
(-0.000194385 1.93499e-06 -5.4118e-16)
(-0.000193819 6.79176e-06 2.32854e-16)
(-0.000193175 1.12245e-05 2.10217e-16)
(-0.000192486 1.52488e-05 -2.7352e-18)
(-0.000191751 1.8947e-05 1.33277e-16)
(-0.000190917 2.23549e-05 9.76683e-18)
(-0.000189968 2.54888e-05 -1.09877e-16)
(-0.000188962 2.84595e-05 1.52622e-16)
(-0.000188039 3.11781e-05 -4.76095e-17)
(-0.000187364 3.38017e-05 -2.74412e-17)
(-0.000186962 3.62442e-05 1.16512e-17)
(-0.00018585 3.82876e-05 -5.12976e-18)
(-0.000185296 4.02637e-05 -3.79517e-17)
(-0.000185142 4.19992e-05 -2.94937e-17)
(-0.000185576 4.35186e-05 6.0939e-17)
(-0.000183756 4.4023e-05 -1.6057e-17)
(-0.000184624 4.47211e-05 -1.26007e-18)
(-0.000184676 4.46443e-05 1.01458e-18)
(-0.000187522 4.45019e-05 -2.30889e-18)
(-1.11457e-05 -0.000169456 -1.14648e-18)
(-2.80859e-05 -0.000179541 1.78642e-17)
(-4.65645e-05 -0.000187727 6.55996e-18)
(-6.54008e-05 -0.000194158 7.89386e-18)
(-8.42388e-05 -0.000197403 -1.11617e-17)
(-0.000103211 -0.000198162 2.14868e-17)
(-0.000122207 -0.000196382 -3.51755e-17)
(-0.000140725 -0.000191663 4.25811e-18)
(-0.000158195 -0.000183913 4.43746e-17)
(-0.000174298 -0.000173556 4.52383e-17)
(-0.000188411 -0.000160931 -1.73658e-16)
(-0.000198814 -0.000145761 3.87239e-16)
(-0.000206163 -0.000129245 2.51671e-16)
(-0.000210254 -0.000112214 -3.12766e-16)
(-0.000211176 -9.53532e-05 -2.10904e-16)
(-0.000209231 -7.927e-05 -1.32836e-16)
(-0.000204865 -6.44005e-05 4.15874e-16)
(-0.000198572 -5.10002e-05 -3.22145e-16)
(-0.000190789 -3.91787e-05 -7.73689e-17)
(-0.00018195 -2.89116e-05 2.75881e-16)
(-0.000172239 -2.01502e-05 -1.81856e-16)
(-0.000175019 -1.30274e-05 2.79109e-17)
(-0.000175551 -8.665e-06 4.58489e-17)
(-0.000175651 -4.40095e-06 4.52507e-17)
(-0.000175632 -5.71563e-07 -1.50718e-16)
(-0.000175539 2.86612e-06 -5.68557e-17)
(-0.000175354 5.97091e-06 2.38771e-16)
(-0.000175048 8.81862e-06 -3.10666e-16)
(-0.000174612 1.14063e-05 3.20889e-17)
(-0.000174064 1.37669e-05 9.41809e-17)
(-0.000173403 1.58972e-05 3.78733e-17)
(-0.000172795 1.77783e-05 -4.18716e-17)
(-0.000172224 1.94958e-05 -9.94197e-17)
(-0.000171239 2.09584e-05 9.24208e-17)
(-0.000170815 2.23518e-05 8.7984e-17)
(-0.000170736 2.35954e-05 -6.11734e-17)
(-0.000171127 2.46441e-05 -5.31127e-18)
(-0.000169421 2.51553e-05 1.70871e-17)
(-0.000170089 2.57764e-05 -2.46714e-17)
(-0.000170034 2.5993e-05 -5.49811e-18)
(-0.000172156 2.62878e-05 3.801e-18)
(-8.65172e-06 -0.00012294 -2.35419e-17)
(-2.11448e-05 -0.000131 3.23188e-17)
(-3.46768e-05 -0.000137315 -3.43662e-17)
(-4.84726e-05 -0.000142627 -5.57897e-17)
(-6.22809e-05 -0.000145863 2.07769e-17)
(-7.62079e-05 -0.000147514 1.10217e-17)
(-9.02413e-05 -0.000147615 -2.70535e-17)
(-0.000104121 -0.000145891 -2.63408e-17)
(-0.000117551 -0.000142219 -6.34221e-18)
(-0.000130392 -0.000136782 3.76012e-18)
(-0.000142272 -0.000129657 -1.18198e-16)
(-0.000151991 -0.000120418 5.56755e-17)
(-0.000159864 -0.000109752 -8.70968e-17)
(-0.000165587 -9.80969e-05 -2.65318e-16)
(-0.000169026 -8.58738e-05 4.6995e-16)
(-0.000170198 -7.35337e-05 1.06247e-16)
(-0.000169247 -6.14766e-05 1.12116e-16)
(-0.000166416 -5.00271e-05 2.21818e-17)
(-0.000161969 -3.94077e-05 -1.11201e-16)
(-0.000156236 -2.97586e-05 -4.8099e-17)
(-0.000149341 -2.11648e-05 -5.09047e-17)
(-0.000152564 -1.40153e-05 7.13522e-17)
(-0.000153433 -9.1474e-06 -1.8515e-16)
(-0.0001539 -4.42517e-06 -2.18473e-17)
(-0.000154195 -1.31088e-07 1.98912e-16)
(-0.000154339 3.77412e-06 -1.7499e-16)
(-0.000154328 7.35596e-06 -1.17659e-16)
(-0.000154166 1.06572e-05 1.91558e-16)
(-0.000153866 1.36923e-05 2.84343e-16)
(-0.00015345 1.64776e-05 -2.02272e-16)
(-0.000152933 1.90175e-05 -3.36261e-17)
(-0.000152351 2.1322e-05 -1.84323e-18)
(-0.000151777 2.33844e-05 -7.75454e-17)
(-0.000150711 2.51389e-05 1.42663e-16)
(-0.000150167 2.67235e-05 -6.05673e-17)
(-0.00015027 2.81704e-05 -8.69067e-18)
(-0.000150954 2.94187e-05 2.86375e-17)
(-0.000149925 2.99835e-05 -2.24438e-17)
(-0.000150955 3.07222e-05 1.54304e-17)
(-0.00015145 3.10006e-05 1.8585e-17)
(-0.000153465 3.13773e-05 -2.80372e-18)
(-6.52293e-06 -8.76347e-05 3.69533e-18)
(-1.57036e-05 -9.43003e-05 2.85516e-17)
(-2.5634e-05 -9.93593e-05 1.93751e-18)
(-3.57707e-05 -0.000103743 -1.81208e-18)
(-4.59486e-05 -0.000106702 -1.81903e-17)
(-5.62334e-05 -0.000108612 6.28616e-18)
(-6.66405e-05 -0.000109556 -6.56581e-18)
(-7.7029e-05 -0.000109364 1.20911e-17)
(-8.7241e-05 -0.000107939 1.94509e-17)
(-9.72255e-05 -0.00010537 -6.11042e-17)
(-0.000106777 -0.000101652 -2.51204e-17)
(-0.000115103 -9.63862e-05 4.80455e-17)
(-0.000122378 -8.99526e-05 -7.04581e-17)
(-0.000128335 -8.25499e-05 -1.20938e-16)
(-0.00013279 -7.43973e-05 8.45651e-17)
(-0.000135641 -6.57702e-05 9.96939e-17)
(-0.000136869 -5.69492e-05 1.97644e-16)
(-0.00013654 -4.82065e-05 -2.89333e-16)
(-0.000134761 -3.97675e-05 -1.49058e-16)
(-0.000131732 -3.18224e-05 5.06096e-16)
(-0.000127527 -2.45024e-05 -2.52284e-16)
(-0.000131564 -1.8759e-05 -8.15358e-17)
(-0.000133271 -1.467e-05 1.31218e-16)
(-0.00013456 -1.07212e-05 -2.18336e-16)
(-0.000135637 -7.14456e-06 2.30548e-16)
(-0.000136527 -3.91255e-06 -7.82297e-17)
(-0.000137235 -9.77112e-07 -1.88131e-16)
(-0.000137779 1.69249e-06 2.98355e-17)
(-0.000138184 4.11359e-06 3.76702e-17)
(-0.000138475 6.30009e-06 2.9725e-16)
(-0.000138668 8.26023e-06 -1.47914e-16)
(-0.000138785 1.00034e-05 -8.44301e-17)
(-0.000138865 1.15409e-05 4.15771e-17)
(-0.000138296 1.28201e-05 1.1771e-17)
(-0.000138061 1.39836e-05 -5.3398e-18)
(-0.000138213 1.49567e-05 -6.66626e-18)
(-0.000138726 1.58324e-05 8.26457e-18)
(-0.000137561 1.63365e-05 1.61567e-17)
(-0.000138428 1.70288e-05 -1.71715e-17)
(-0.000138792 1.75007e-05 8.82901e-18)
(-0.000140219 1.80689e-05 -1.03206e-17)
(-5.49246e-06 -6.8804e-05 -1.01505e-17)
(-1.2715e-05 -7.34925e-05 2.3918e-19)
(-2.0397e-05 -7.70366e-05 -3.60174e-18)
(-2.81403e-05 -8.0134e-05 1.86848e-17)
(-3.58719e-05 -8.22446e-05 2.6709e-17)
(-4.3652e-05 -8.36706e-05 5.58754e-18)
(-5.1506e-05 -8.44881e-05 -1.47863e-17)
(-5.93542e-05 -8.45896e-05 5.424e-19)
(-6.71142e-05 -8.39119e-05 4.69521e-17)
(-7.47777e-05 -8.25092e-05 -6.51059e-17)
(-8.22347e-05 -8.03571e-05 2.52008e-17)
(-8.8969e-05 -7.71346e-05 1.17316e-16)
(-9.50936e-05 -7.30567e-05 -1.2503e-16)
(-0.000100416 -6.81981e-05 7.62433e-17)
(-0.000104774 -6.26549e-05 -6.18401e-17)
(-0.000108046 -5.65706e-05 -3.35859e-16)
(-0.000110155 -5.01126e-05 5.34473e-16)
(-0.000111078 -4.34638e-05 2.76736e-16)
(-0.000110825 -3.67959e-05 -5.64372e-16)
(-0.00010949 -3.02768e-05 3.98407e-16)
(-0.000107065 -2.40274e-05 4.65914e-17)
(-0.000111162 -1.90983e-05 -3.79795e-16)
(-0.000113143 -1.52791e-05 5.76407e-17)
(-0.000114742 -1.15281e-05 1.52513e-16)
(-0.000116102 -8.04152e-06 -2.52808e-16)
(-0.000117241 -4.80891e-06 6.80284e-17)
(-0.000118169 -1.80128e-06 1.03133e-17)
(-0.000118913 9.96407e-07 7.01111e-17)
(-0.000119503 3.59547e-06 -1.81866e-16)
(-0.000119972 6.00364e-06 9.65273e-17)
(-0.000120339 8.22903e-06 1.73536e-16)
(-0.000120632 1.0277e-05 -4.16456e-17)
(-0.000120891 1.21549e-05 -3.31083e-17)
(-0.000120611 1.37995e-05 -8.36768e-17)
(-0.000120618 1.5352e-05 1.86317e-17)
(-0.000120831 1.67558e-05 1.0012e-17)
(-0.00012136 1.80398e-05 7.39692e-18)
(-0.000120378 1.89432e-05 1.86207e-18)