/*--------------------------------*- C++ -*----------------------------------*\
| =========                 |                                                 |
| \\      /  F ield         | OpenFOAM: The Open Source CFD Toolbox           |
|  \\    /   O peration     | Version:  2312                                  |
|   \\  /    A nd           | Website:  www.openfoam.com                      |
|    \\/     M anipulation  |                                                 |
\*---------------------------------------------------------------------------*/
FoamFile
{
    version     2.0;
    format      ascii;
    arch        "LSB;label=32;scalar=64";
    class       volScalarField;
    location    "248";
    object      nut;
}
// * * * * * * * * * * * * * * * * * * * * * * * * * * * * * * * * * * * * * //

dimensions      [0 2 -1 0 0 0 0];

internalField   nonuniform List<scalar> 
11040
(
8.65267e-06
1.7098e-05
4.13243e-05
8.99335e-05
0.000166556
0.000278483
0.00041644
0.00053282
0.000600526
0.000631573
0.000645622
0.000653717
0.000659398
0.000663072
0.000664531
0.000663702
0.000660738
0.000655988
0.000649782
0.000642427
0.000633758
0.000624618
0.000616455
0.000609614
0.000603728
0.000598296
0.000592992
0.000587714
0.00058237
0.000576839
0.000570965
0.000564564
0.000557434
0.000549266
0.000539649
0.000528148
0.000513988
0.000496505
0.000471997
0.000445365
0.000374124
5.69154e-06
5.77594e-06
6.09432e-06
7.02252e-06
9.06726e-06
1.72996e-05
4.5584e-05
9.97159e-05
0.000163822
0.000229228
0.000293261
0.000354204
0.000410464
0.00046024
0.000502059
0.000535362
0.000560741
0.000579667
0.000594104
0.000605957
0.000617026
0.000627174
0.000635221
0.000641581
0.000646916
0.00065165
0.00065608
0.000660356
0.000664585
0.000668842
0.000673203
0.000677734
0.000682488
0.000687536
0.000692945
0.000698748
0.000704982
0.000711692
0.000718533
0.000727415
0.000714725
6.14241e-06
6.18858e-06
6.11232e-06
6.12033e-06
6.19019e-06
6.31001e-06
6.51586e-06
6.98227e-06
8.12519e-06
1.08594e-05
1.63439e-05
2.83274e-05
5.0486e-05
8.31969e-05
0.000123381
0.000168578
0.000217738
0.000269884
0.000323769
0.000377934
0.000431358
0.000480597
0.000523016
0.000559683
0.000591602
0.000619657
0.000644702
0.000667463
0.000688545
0.000708421
0.000727454
0.000745908
0.000763974
0.000781829
0.000799591
0.000817286
0.000835044
0.000852831
0.000871304
0.000889977
0.000901076
6.11283e-06
6.10087e-06
6.11478e-06
6.14056e-06
6.16869e-06
6.20549e-06
6.25554e-06
6.32033e-06
6.40221e-06
6.50067e-06
6.65058e-06
6.76773e-06
6.86076e-06
7.08221e-06
7.75616e-06
9.46731e-06
1.3363e-05
2.16051e-05
3.7436e-05
6.31538e-05
9.88202e-05
0.000139868
0.000181796
0.00022447
0.000267976
0.000311951
0.000356033
0.000399824
0.000443014
0.000485375
0.000526807
0.000567324
0.00060701
0.000646209
0.000685251
0.000724427
0.000764048
0.000805125
0.000848298
0.000892906
0.000948435
6.14034e-06
6.10216e-06
6.09314e-06
6.09357e-06
6.07105e-06
6.06513e-06
6.07269e-06
6.08904e-06
6.11251e-06
6.14248e-06
6.17927e-06
6.22223e-06
6.27544e-06
6.32081e-06
6.32622e-06
6.26668e-06
6.13242e-06
5.94397e-06
5.76288e-06
5.70084e-06
6.00821e-06
7.03658e-06
9.26117e-06
1.33348e-05
2.03357e-05
3.14151e-05
4.73162e-05
6.78471e-05
9.21671e-05
0.000119481
0.000149512
0.000182446
0.000218651
0.000258848
0.000303708
0.000353921
0.000409962
0.000474072
0.000547609
0.000628225
0.000753861
6.12689e-06
6.10164e-06
6.09032e-06
6.08878e-06
6.09217e-06
6.09527e-06
6.09741e-06
6.09984e-06
6.1047e-06
6.11289e-06
6.12469e-06
6.14032e-06
6.16011e-06
6.18437e-06
6.21158e-06
6.23825e-06
6.25732e-06
6.25733e-06
6.21982e-06
6.12333e-06
5.92342e-06
5.61981e-06
5.30817e-06
5.02353e-06
4.76986e-06
4.56307e-06
4.4223e-06
4.37789e-06
4.47773e-06
4.80233e-06
5.49476e-06
6.82885e-06
9.32961e-06
1.40711e-05
2.29849e-05
3.89226e-05
6.4237e-05
0.000100598
0.000150212
0.000208532
0.000330714
6.1209e-06
6.10079e-06
6.0858e-06
6.08257e-06
6.08273e-06
6.07904e-06
6.07236e-06
6.06429e-06
6.06351e-06
6.06586e-06
6.07012e-06
6.07613e-06
6.08396e-06
6.09384e-06
6.10584e-06
6.11977e-06
6.13554e-06
6.15312e-06
6.17203e-06
6.19103e-06
6.20549e-06
6.20562e-06
6.19081e-06
6.16336e-06
6.12056e-06
6.05981e-06
5.97635e-06
5.8641e-06
5.71455e-06
5.51827e-06
5.26455e-06
4.94295e-06
4.54958e-06
4.08351e-06
3.56854e-06
3.05245e-06
2.65466e-06
2.43778e-06
3.29277e-06
4.65381e-06
3.40047e-05
6.11381e-06
6.0981e-06
6.08793e-06
6.08278e-06
6.08128e-06
6.08109e-06
6.08111e-06
6.08038e-06
6.07743e-06
6.07485e-06
6.07363e-06
6.07366e-06
6.07476e-06
6.07696e-06
6.08033e-06
6.0849e-06
6.09042e-06
6.09677e-06
6.10404e-06
6.11228e-06
6.12215e-06
6.13376e-06
6.14564e-06
6.15715e-06
6.16816e-06
6.17846e-06
6.18773e-06
6.19539e-06
6.20031e-06
6.20048e-06
6.1923e-06
6.16933e-06
6.12126e-06
6.02862e-06
5.86268e-06
5.57136e-06
5.11795e-06
4.38213e-06
3.45391e-06
2.15635e-06
1.19763e-06
6.10784e-06
6.09591e-06
6.0878e-06
6.08197e-06
6.07923e-06
6.07804e-06
6.07735e-06
6.07456e-06
6.07139e-06
6.06796e-06
6.06584e-06
6.06552e-06
6.0661e-06
6.06731e-06
6.0691e-06
6.0715e-06
6.07458e-06
6.07824e-06
6.08236e-06
6.08689e-06
6.09172e-06
6.09666e-06
6.10164e-06
6.10671e-06
6.1119e-06
6.1172e-06
6.12263e-06
6.12827e-06
6.13423e-06
6.14071e-06
6.14801e-06
6.15652e-06
6.16667e-06
6.17887e-06
6.19254e-06
6.20455e-06
6.20314e-06
6.17216e-06
5.99904e-06
5.76889e-06
4.41187e-06
6.10252e-06
6.09379e-06
6.08693e-06
6.08217e-06
6.07845e-06
6.07688e-06
6.07609e-06
6.07591e-06
6.07419e-06
6.07208e-06
6.06992e-06
6.0677e-06
6.06539e-06
6.06302e-06
6.06073e-06
6.05804e-06
6.05722e-06
6.05724e-06
6.05771e-06
6.05841e-06
6.05942e-06
6.06075e-06
6.06222e-06
6.06381e-06
6.06546e-06
6.06717e-06
6.06891e-06
6.07067e-06
6.07244e-06
6.07423e-06
6.07606e-06
6.07803e-06
6.08027e-06
6.08316e-06
6.08737e-06
6.09424e-06
6.10404e-06
6.12706e-06
6.15138e-06
6.23231e-06
6.19784e-06
6.09788e-06
6.09175e-06
6.08551e-06
6.08124e-06
6.07849e-06
6.07633e-06
6.07529e-06
6.07486e-06
6.07367e-06
6.07234e-06
6.07092e-06
6.06954e-06
6.06796e-06
6.06737e-06
6.06733e-06
6.06759e-06
6.06804e-06
6.0687e-06
6.06957e-06
6.07062e-06
6.07169e-06
6.07268e-06
6.07369e-06
6.0748e-06
6.076e-06
6.07727e-06
6.07858e-06
6.0799e-06
6.0812e-06
6.08244e-06
6.0836e-06
6.08462e-06
6.08547e-06
6.08609e-06
6.08646e-06
6.08657e-06
6.08672e-06
6.08659e-06
6.08966e-06
6.09496e-06
6.14192e-06
6.0939e-06
6.08882e-06
6.0837e-06
6.08035e-06
6.07818e-06
6.07671e-06
6.07546e-06
6.07487e-06
6.07469e-06
6.0739e-06
6.07299e-06
6.07204e-06
6.07107e-06
6.07004e-06
6.06896e-06
6.06784e-06
6.06667e-06
6.06544e-06
6.06417e-06
6.06285e-06
6.06154e-06
6.06019e-06
6.05934e-06
6.05903e-06
6.05896e-06
6.05901e-06
6.05913e-06
6.0593e-06
6.05949e-06
6.0597e-06
6.05991e-06
6.0601e-06
6.06014e-06
6.05966e-06
6.05913e-06
6.05863e-06
6.05824e-06
6.05796e-06
6.05888e-06
6.05778e-06
6.06297e-06
6.09046e-06
6.08642e-06
6.08227e-06
6.07961e-06
6.07794e-06
6.07681e-06
6.076e-06
6.07524e-06
6.07499e-06
6.07457e-06
6.07409e-06
6.07359e-06
6.07305e-06
6.07244e-06
6.07181e-06
6.0711e-06
6.07065e-06
6.07054e-06
6.07059e-06
6.07076e-06
6.07097e-06
6.07113e-06
6.07131e-06
6.07151e-06
6.07175e-06
6.07202e-06
6.07231e-06
6.07261e-06
6.07292e-06
6.07321e-06
6.07347e-06
6.07367e-06
6.07378e-06
6.07375e-06
6.07361e-06
6.07305e-06
6.0721e-06
6.07099e-06
6.06965e-06
6.06891e-06
6.06775e-06
6.08758e-06
6.08438e-06
6.08106e-06
6.07898e-06
6.07772e-06
6.07692e-06
6.07632e-06
6.07585e-06
6.07577e-06
6.0758e-06
6.07578e-06
6.07577e-06
6.07548e-06
6.0751e-06
6.0747e-06
6.07426e-06
6.07377e-06
6.07323e-06
6.07267e-06
6.07208e-06
6.07145e-06
6.07082e-06
6.07021e-06
6.06963e-06
6.06907e-06
6.06853e-06
6.068e-06
6.0675e-06
6.067e-06
6.06655e-06
6.06614e-06
6.06573e-06
6.06533e-06
6.06497e-06
6.06464e-06
6.06434e-06
6.06411e-06
6.06388e-06
6.06416e-06
6.06388e-06
6.0647e-06
6.0852e-06
6.08273e-06
6.0801e-06
6.07847e-06
6.07757e-06
6.077e-06
6.07656e-06
6.07641e-06
6.07637e-06
6.07637e-06
6.07637e-06
6.07638e-06
6.07641e-06
6.07642e-06
6.07639e-06
6.07612e-06
6.0758e-06
6.07546e-06
6.0751e-06
6.07472e-06
6.07433e-06
6.07393e-06
6.07355e-06
6.07317e-06
6.07281e-06
6.07246e-06
6.07213e-06
6.0718e-06
6.07148e-06
6.07116e-06
6.07085e-06
6.07053e-06
6.0702e-06
6.06986e-06
6.06952e-06
6.06912e-06
6.06893e-06
6.06882e-06
6.06868e-06
6.06875e-06
6.06857e-06
6.08327e-06
6.0814e-06
6.07934e-06
6.07806e-06
6.07741e-06
6.07695e-06
6.07659e-06
6.07635e-06
6.07622e-06
6.07615e-06
6.07613e-06
6.07615e-06
6.0762e-06
6.07627e-06
6.07635e-06
6.07644e-06
6.07654e-06
6.07663e-06
6.07673e-06
6.07681e-06
6.0769e-06
6.07701e-06
6.07712e-06
6.07724e-06
6.07737e-06
6.07751e-06
6.07765e-06
6.0778e-06
6.07795e-06
6.0781e-06
6.07825e-06
6.07841e-06
6.07857e-06
6.07872e-06
6.07886e-06
6.07898e-06
6.07907e-06
6.07912e-06
6.07908e-06
6.0791e-06
6.07907e-06
6.08169e-06
6.08029e-06
6.07874e-06
6.07766e-06
6.07691e-06
6.07639e-06
6.07601e-06
6.07583e-06
6.07576e-06
6.07572e-06
6.07569e-06
6.07568e-06
6.07567e-06
6.07567e-06
6.07567e-06
6.07567e-06
6.07567e-06
6.07566e-06
6.07566e-06
6.07565e-06
6.07563e-06
6.07562e-06
6.0756e-06
6.0756e-06
6.0756e-06
6.07562e-06
6.07563e-06
6.07565e-06
6.07568e-06
6.0757e-06
6.07573e-06
6.07576e-06
6.0758e-06
6.07583e-06
6.07587e-06
6.07592e-06
6.07599e-06
6.07609e-06
6.07617e-06
6.07637e-06
6.0765e-06
6.08038e-06
6.07932e-06
6.07824e-06
6.07728e-06
6.07669e-06
6.07634e-06
6.07612e-06
6.07597e-06
6.07585e-06
6.07574e-06
6.07563e-06
6.07552e-06
6.07541e-06
6.0753e-06
6.07518e-06
6.07505e-06
6.07492e-06
6.07479e-06
6.07465e-06
6.07451e-06
6.07436e-06
6.07421e-06
6.07407e-06
6.07394e-06
6.0738e-06
6.07368e-06
6.07356e-06
6.07345e-06
6.07334e-06
6.07323e-06
6.07313e-06
6.07303e-06
6.07294e-06
6.07284e-06
6.07275e-06
6.07266e-06
6.07258e-06
6.0725e-06
6.0724e-06
6.07237e-06
6.07247e-06
6.07937e-06
6.07857e-06
6.07767e-06
6.07696e-06
6.07656e-06
6.07636e-06
6.07625e-06
6.07618e-06
6.07612e-06
6.07607e-06
6.07601e-06
6.07595e-06
6.07588e-06
6.07581e-06
6.07574e-06
6.07566e-06
6.07558e-06
6.0755e-06
6.07542e-06
6.07534e-06
6.07525e-06
6.07518e-06
6.07511e-06
6.07504e-06
6.07498e-06
6.07491e-06
6.07484e-06
6.07478e-06
6.07471e-06
6.07465e-06
6.07459e-06
6.07453e-06
6.07448e-06
6.07442e-06
6.07437e-06
6.07431e-06
6.07426e-06
6.0742e-06
6.07415e-06
6.07408e-06
6.0741e-06
6.07862e-06
6.078e-06
6.07727e-06
6.07677e-06
6.07652e-06
6.07641e-06
6.07637e-06
6.07635e-06
6.07633e-06
6.0763e-06
6.07627e-06
6.07623e-06
6.07619e-06
6.07616e-06
6.07613e-06
6.07609e-06
6.07606e-06
6.07603e-06
6.076e-06
6.07597e-06
6.07599e-06
6.07603e-06
6.07607e-06
6.0761e-06
6.07608e-06
6.07605e-06
6.07601e-06
6.07598e-06
6.07594e-06
6.07591e-06
6.07587e-06
6.07584e-06
6.07581e-06
6.07578e-06
6.07575e-06
6.07573e-06
6.07569e-06
6.07569e-06
6.07567e-06
6.07564e-06
6.07565e-06
6.07803e-06
6.07754e-06
6.07694e-06
6.07658e-06
6.0764e-06
6.07633e-06
6.07631e-06
6.07632e-06
6.07634e-06
6.07637e-06
6.0764e-06
6.07643e-06
6.07646e-06
6.07649e-06
6.07652e-06
6.07655e-06
6.07658e-06
6.07661e-06
6.07664e-06
6.07667e-06
6.07671e-06
6.07675e-06
6.07679e-06
6.07682e-06
6.07685e-06
6.07687e-06
6.07688e-06
6.07689e-06
6.0769e-06
6.07691e-06
6.0769e-06
6.0769e-06
6.07688e-06
6.07687e-06
6.07686e-06
6.07687e-06
6.07685e-06
6.07686e-06
6.07686e-06
6.07688e-06
6.07685e-06
6.07756e-06
6.07716e-06
6.07667e-06
6.07639e-06
6.07627e-06
6.07624e-06
6.07626e-06
6.07629e-06
6.07633e-06
6.07637e-06
6.07642e-06
6.07646e-06
6.0765e-06
6.07654e-06
6.07658e-06
6.07662e-06
6.07665e-06
6.07669e-06
6.07673e-06
6.07677e-06
6.07681e-06
6.07686e-06
6.0769e-06
6.07694e-06
6.07697e-06
6.077e-06
6.07703e-06
6.07705e-06
6.07707e-06
6.0771e-06
6.07711e-06
6.07713e-06
6.07715e-06
6.07717e-06
6.07719e-06
6.07721e-06
6.07722e-06
6.07725e-06
6.07726e-06
6.07729e-06
6.07731e-06
6.07717e-06
6.07683e-06
6.07644e-06
6.07623e-06
6.07616e-06
6.07617e-06
6.0762e-06
6.07625e-06
6.0763e-06
6.07636e-06
6.07641e-06
6.07647e-06
6.07652e-06
6.07657e-06
6.07662e-06
6.07667e-06
6.07672e-06
6.07676e-06
6.07681e-06
6.07686e-06
6.07691e-06
6.07696e-06
6.07701e-06
6.07705e-06
6.0771e-06
6.07713e-06
6.07717e-06
6.0772e-06
6.07723e-06
6.07726e-06
6.07729e-06
6.07731e-06
6.07734e-06
6.07736e-06
6.07738e-06
6.07741e-06
6.07743e-06
6.07745e-06
6.07747e-06
6.0775e-06
6.07752e-06
6.07683e-06
6.07654e-06
6.07623e-06
6.07609e-06
6.07606e-06
6.07609e-06
6.07614e-06
6.0762e-06
6.07627e-06
6.07633e-06
6.0764e-06
6.07646e-06
6.07652e-06
6.07657e-06
6.07663e-06
6.07669e-06
6.07674e-06
6.0768e-06
6.07685e-06
6.0769e-06
6.07696e-06
6.07701e-06
6.07707e-06
6.07712e-06
6.07716e-06
6.07721e-06
6.07725e-06
6.07728e-06
6.07732e-06
6.07735e-06
6.07739e-06
6.07742e-06
6.07745e-06
6.07748e-06
6.07751e-06
6.07754e-06
6.07756e-06
6.07759e-06
6.07762e-06
6.07766e-06
6.07767e-06
6.07653e-06
6.07628e-06
6.07604e-06
6.07595e-06
6.07595e-06
6.076e-06
6.07607e-06
6.07614e-06
6.07622e-06
6.07629e-06
6.07636e-06
6.07643e-06
6.07649e-06
6.07656e-06
6.07662e-06
6.07668e-06
6.07674e-06
6.0768e-06
6.07686e-06
6.07692e-06
6.07698e-06
6.07704e-06
6.07709e-06
6.07715e-06
6.0772e-06
6.07724e-06
6.07729e-06
6.07733e-06
6.07737e-06
6.07741e-06
6.07745e-06
6.07748e-06
6.07751e-06
6.07755e-06
6.07758e-06
6.07761e-06
6.07764e-06
6.07767e-06
6.07769e-06
6.07774e-06
6.07775e-06
6.07625e-06
6.07604e-06
6.07587e-06
6.07582e-06
6.07585e-06
6.07591e-06
6.07599e-06
6.07607e-06
6.07615e-06
6.07623e-06
6.0763e-06
6.07638e-06
6.07645e-06
6.07652e-06
6.07659e-06
6.07665e-06
6.07672e-06
6.07678e-06
6.07684e-06
6.07691e-06
6.07697e-06
6.07703e-06
6.07709e-06
6.07715e-06
6.0772e-06
6.07725e-06
6.0773e-06
6.07734e-06
6.07739e-06
6.07743e-06
6.07747e-06
6.07751e-06
6.07754e-06
6.07758e-06
6.07761e-06
6.07765e-06
6.07768e-06
6.07771e-06
6.07774e-06
6.07779e-06
6.0778e-06
6.07598e-06
6.07582e-06
6.0757e-06
6.07568e-06
6.07573e-06
6.07581e-06
6.07589e-06
6.07598e-06
6.07606e-06
6.07615e-06
6.07623e-06
6.07631e-06
6.07638e-06
6.07646e-06
6.07653e-06
6.0766e-06
6.07667e-06
6.07674e-06
6.0768e-06
6.07687e-06
6.07694e-06
6.077e-06
6.07706e-06
6.07712e-06
6.07718e-06
6.07723e-06
6.07728e-06
6.07733e-06
6.07737e-06
6.07742e-06
6.07746e-06
6.0775e-06
6.07754e-06
6.07758e-06
6.07761e-06
6.07765e-06
6.07768e-06
6.07772e-06
6.07775e-06
6.07779e-06
6.07779e-06
6.07573e-06
6.07561e-06
6.07553e-06
6.07554e-06
6.07561e-06
6.07569e-06
6.07578e-06
6.07587e-06
6.07596e-06
6.07605e-06
6.07613e-06
6.07621e-06
6.0763e-06
6.07637e-06
6.07645e-06
6.07652e-06
6.0766e-06
6.07667e-06
6.07674e-06
6.07681e-06
6.07688e-06
6.07695e-06
6.07701e-06
6.07707e-06
6.07713e-06
6.07718e-06
6.07724e-06
6.07729e-06
6.07733e-06
6.07738e-06
6.07742e-06
6.07747e-06
6.07751e-06
6.07755e-06
6.07758e-06
6.07762e-06
6.07766e-06
6.07769e-06
6.07772e-06
6.07777e-06
6.07777e-06
6.07548e-06
6.0754e-06
6.07536e-06
6.07539e-06
6.07547e-06
6.07556e-06
6.07565e-06
6.07574e-06
6.07584e-06
6.07593e-06
6.07602e-06
6.0761e-06
6.07619e-06
6.07627e-06
6.07635e-06
6.07643e-06
6.0765e-06
6.07658e-06
6.07665e-06
6.07672e-06
6.07679e-06
6.07686e-06
6.07693e-06
6.07699e-06
6.07705e-06
6.07711e-06
6.07716e-06
6.07722e-06
6.07727e-06
6.07731e-06
6.07736e-06
6.0774e-06
6.07744e-06
6.07748e-06
6.07752e-06
6.07756e-06
6.0776e-06
6.07764e-06
6.07767e-06
6.07771e-06
6.07772e-06
6.07523e-06
6.07519e-06
6.07518e-06
6.07523e-06
6.07531e-06
6.07541e-06
6.0755e-06
6.0756e-06
6.07569e-06
6.07579e-06
6.07588e-06
6.07597e-06
6.07605e-06
6.07614e-06
6.07622e-06
6.0763e-06
6.07638e-06
6.07646e-06
6.07654e-06
6.07661e-06
6.07669e-06
6.07676e-06
6.07683e-06
6.07689e-06
6.07695e-06
6.07701e-06
6.07707e-06
6.07712e-06
6.07717e-06
6.07722e-06
6.07727e-06
6.07731e-06
6.07736e-06
6.0774e-06
6.07744e-06
6.07748e-06
6.07751e-06
6.07755e-06
6.07758e-06
6.07763e-06
6.07764e-06
6.07499e-06
6.07497e-06
6.07499e-06
6.07505e-06
6.07514e-06
6.07523e-06
6.07533e-06
6.07543e-06
6.07552e-06
6.07562e-06
6.07571e-06
6.07581e-06
6.0759e-06
6.07599e-06
6.07607e-06
6.07616e-06
6.07624e-06
6.07632e-06
6.0764e-06
6.07648e-06
6.07655e-06
6.07663e-06
6.0767e-06
6.07676e-06
6.07683e-06
6.07689e-06
6.07694e-06
6.077e-06
6.07705e-06
6.0771e-06
6.07715e-06
6.07719e-06
6.07724e-06
6.07728e-06
6.07732e-06
6.07736e-06
6.0774e-06
6.07743e-06
6.07747e-06
6.07751e-06
6.07752e-06
6.07474e-06
6.07475e-06
6.07478e-06
6.07486e-06
6.07495e-06
6.07504e-06
6.07514e-06
6.07524e-06
6.07533e-06
6.07543e-06
6.07553e-06
6.07562e-06
6.07571e-06
6.07581e-06
6.0759e-06
6.07598e-06
6.07607e-06
6.07615e-06
6.07624e-06
6.07631e-06
6.07639e-06
6.07647e-06
6.07654e-06
6.07661e-06
6.07667e-06
6.07673e-06
6.07679e-06
6.07685e-06
6.0769e-06
6.07695e-06
6.077e-06
6.07705e-06
6.07709e-06
6.07713e-06
6.07717e-06
6.07721e-06
6.07725e-06
6.07729e-06
6.07732e-06
6.07736e-06
6.07738e-06
6.07448e-06
6.07451e-06
6.07456e-06
6.07464e-06
6.07473e-06
6.07483e-06
6.07492e-06
6.07502e-06
6.07512e-06
6.07521e-06
6.07531e-06
6.07541e-06
6.0755e-06
6.0756e-06
6.07569e-06
6.07578e-06
6.07587e-06
6.07596e-06
6.07604e-06
6.07612e-06
6.0762e-06
6.07628e-06
6.07635e-06
6.07642e-06
6.07649e-06
6.07655e-06
6.07661e-06
6.07667e-06
6.07672e-06
6.07677e-06
6.07682e-06
6.07687e-06
6.07691e-06
6.07695e-06
6.07699e-06
6.07703e-06
6.07707e-06
6.0771e-06
6.07714e-06
6.07718e-06
6.07719e-06
6.07422e-06
6.07426e-06
6.07433e-06
6.07441e-06
6.07449e-06
6.07458e-06
6.07468e-06
6.07477e-06
6.07487e-06
6.07497e-06
6.07507e-06
6.07517e-06
6.07527e-06
6.07536e-06
6.07546e-06
6.07555e-06
6.07564e-06
6.07573e-06
6.07582e-06
6.0759e-06
6.07598e-06
6.07606e-06
6.07613e-06
6.0762e-06
6.07627e-06
6.07633e-06
6.07639e-06
6.07645e-06
6.0765e-06
6.07656e-06
6.0766e-06
6.07665e-06
6.07669e-06
6.07674e-06
6.07677e-06
6.07681e-06
6.07685e-06
6.07688e-06
6.07691e-06
6.07695e-06
6.07697e-06
6.07394e-06
6.074e-06
6.07407e-06
6.07415e-06
6.07423e-06
6.07432e-06
6.07441e-06
6.0745e-06
6.0746e-06
6.0747e-06
6.0748e-06
6.0749e-06
6.075e-06
6.07509e-06
6.07519e-06
6.07529e-06
6.07538e-06
6.07547e-06
6.07556e-06
6.07564e-06
6.07572e-06
6.0758e-06
6.07588e-06
6.07595e-06
6.07602e-06
6.07608e-06
6.07614e-06
6.07619e-06
6.07625e-06
6.0763e-06
6.07635e-06
6.07639e-06
6.07643e-06
6.07648e-06
6.07651e-06
6.07655e-06
6.07658e-06
6.07662e-06
6.07665e-06
6.07668e-06
6.0767e-06
6.07364e-06
6.07372e-06
6.07379e-06
6.07386e-06
6.07394e-06
6.07402e-06
6.07411e-06
6.0742e-06
6.07429e-06
6.07439e-06
6.07449e-06
6.07459e-06
6.07469e-06
6.07479e-06
6.07489e-06
6.07498e-06
6.07508e-06
6.07517e-06
6.07526e-06
6.07534e-06
6.07543e-06
6.0755e-06
6.07558e-06
6.07565e-06
6.07572e-06
6.07578e-06
6.07584e-06
6.07589e-06
6.07595e-06
6.076e-06
6.07604e-06
6.07609e-06
6.07613e-06
6.07617e-06
6.0762e-06
6.07624e-06
6.07627e-06
6.0763e-06
6.07633e-06
6.07636e-06
6.07638e-06
6.07333e-06
6.07341e-06
6.07348e-06
6.07355e-06
6.07362e-06
6.0737e-06
6.07378e-06
6.07386e-06
6.07396e-06
6.07405e-06
6.07415e-06
6.07425e-06
6.07435e-06
6.07445e-06
6.07454e-06
6.07464e-06
6.07473e-06
6.07482e-06
6.07491e-06
6.075e-06
6.07508e-06
6.07516e-06
6.07523e-06
6.0753e-06
6.07537e-06
6.07543e-06
6.07549e-06
6.07554e-06
6.07559e-06
6.07564e-06
6.07569e-06
6.07573e-06
6.07577e-06
6.0758e-06
6.07584e-06
6.07587e-06
6.0759e-06
6.07593e-06
6.07596e-06
6.07598e-06
6.076e-06
6.073e-06
6.07308e-06
6.07315e-06
6.07321e-06
6.07327e-06
6.07334e-06
6.07341e-06
6.0735e-06
6.07358e-06
6.07367e-06
6.07377e-06
6.07387e-06
6.07396e-06
6.07406e-06
6.07415e-06
6.07425e-06
6.07434e-06
6.07443e-06
6.07452e-06
6.0746e-06
6.07468e-06
6.07476e-06
6.07483e-06
6.0749e-06
6.07496e-06
6.07502e-06
6.07508e-06
6.07513e-06
6.07518e-06
6.07523e-06
6.07527e-06
6.07531e-06
6.07535e-06
6.07538e-06
6.07541e-06
6.07544e-06
6.07547e-06
6.07549e-06
6.07552e-06
6.07554e-06
6.07556e-06
6.07265e-06
6.07273e-06
6.07279e-06
6.07284e-06
6.07289e-06
6.07295e-06
6.07302e-06
6.07309e-06
6.07317e-06
6.07326e-06
6.07335e-06
6.07344e-06
6.07353e-06
6.07362e-06
6.07372e-06
6.07381e-06
6.0739e-06
6.07398e-06
6.07407e-06
6.07415e-06
6.07422e-06
6.0743e-06
6.07437e-06
6.07443e-06
6.07449e-06
6.07455e-06
6.0746e-06
6.07465e-06
6.0747e-06
6.07474e-06
6.07478e-06
6.07482e-06
6.07485e-06
6.07489e-06
6.07491e-06
6.07494e-06
6.07496e-06
6.07499e-06
6.07501e-06
6.07503e-06
6.07504e-06
6.07227e-06
6.07235e-06
6.07239e-06
6.07243e-06
6.07248e-06
6.07253e-06
6.07259e-06
6.07265e-06
6.07272e-06
6.0728e-06
6.07288e-06
6.07296e-06
6.07305e-06
6.07314e-06
6.07322e-06
6.07331e-06
6.07339e-06
6.07348e-06
6.07355e-06
6.07363e-06
6.0737e-06
6.07377e-06
6.07384e-06
6.0739e-06
6.07396e-06
6.07401e-06
6.07406e-06
6.07411e-06
6.07415e-06
6.07419e-06
6.07422e-06
6.07426e-06
6.07429e-06
6.07432e-06
6.07434e-06
6.07436e-06
6.07438e-06
6.0744e-06
6.07442e-06
6.07444e-06
6.07444e-06
6.07186e-06
6.07193e-06
6.07197e-06
6.072e-06
6.07203e-06
6.07207e-06
6.07212e-06
6.07217e-06
6.07223e-06
6.0723e-06
6.07237e-06
6.07244e-06
6.07252e-06
6.0726e-06
6.07267e-06
6.07275e-06
6.07283e-06
6.0729e-06
6.07298e-06
6.07305e-06
6.07311e-06
6.07317e-06
6.07323e-06
6.07329e-06
6.07334e-06
6.07339e-06
6.07344e-06
6.07348e-06
6.07352e-06
6.07355e-06
6.07358e-06
6.07361e-06
6.07364e-06
6.07366e-06
6.07368e-06
6.0737e-06
6.07371e-06
6.07373e-06
6.07374e-06
6.07375e-06
6.07375e-06
6.07142e-06
6.07148e-06
6.07151e-06
6.07153e-06
6.07155e-06
6.07158e-06
6.07161e-06
6.07165e-06
6.0717e-06
6.07175e-06
6.07181e-06
6.07187e-06
6.07193e-06
6.072e-06
6.07207e-06
6.07213e-06
6.0722e-06
6.07226e-06
6.07233e-06
6.07239e-06
6.07244e-06
6.0725e-06
6.07255e-06
6.0726e-06
6.07264e-06
6.07268e-06
6.07272e-06
6.07276e-06
6.07279e-06
6.07282e-06
6.07285e-06
6.07287e-06
6.07289e-06
6.07291e-06
6.07292e-06
6.07294e-06
6.07295e-06
6.07296e-06
6.07297e-06
6.07297e-06
6.07297e-06
6.07095e-06
6.071e-06
6.07102e-06
6.07103e-06
6.07104e-06
6.07105e-06
6.07107e-06
6.0711e-06
6.07113e-06
6.07117e-06
6.07121e-06
6.07125e-06
6.0713e-06
6.07135e-06
6.0714e-06
6.07145e-06
6.0715e-06
6.07155e-06
6.0716e-06
6.07165e-06
6.07169e-06
6.07174e-06
6.07178e-06
6.07181e-06
6.07185e-06
6.07188e-06
6.07191e-06
6.07194e-06
6.07196e-06
6.07198e-06
6.072e-06
6.07201e-06
6.07203e-06
6.07204e-06
6.07204e-06
6.07205e-06
6.07205e-06
6.07205e-06
6.07205e-06
6.07205e-06
6.07205e-06
6.07045e-06
6.07048e-06
6.07049e-06
6.07049e-06
6.07049e-06
6.07049e-06
6.0705e-06
6.07051e-06
6.07053e-06
6.07055e-06
6.07057e-06
6.07059e-06
6.07062e-06
6.07065e-06
6.07068e-06
6.07071e-06
6.07074e-06
6.07077e-06
6.0708e-06
6.07083e-06
6.07086e-06
6.07088e-06
6.07091e-06
6.07093e-06
6.07095e-06
6.07097e-06
6.07098e-06
6.071e-06
6.07101e-06
6.07102e-06
6.07103e-06
6.07104e-06
6.07105e-06
6.07105e-06
6.07105e-06
6.07105e-06
6.07105e-06
6.07105e-06
6.07105e-06
6.07105e-06
6.07103e-06
6.0699e-06
6.06992e-06
6.06992e-06
6.06992e-06
6.06991e-06
6.0699e-06
6.0699e-06
6.0699e-06
6.0699e-06
6.06991e-06
6.06991e-06
6.06992e-06
6.06992e-06
6.06992e-06
6.06993e-06
6.06993e-06
6.06994e-06
6.06994e-06
6.06994e-06
6.06995e-06
6.06995e-06
6.06995e-06
6.06995e-06
6.06995e-06
6.06995e-06
6.06995e-06
6.06995e-06
6.06995e-06
6.06995e-06
6.06994e-06
6.06993e-06
6.06992e-06
6.06991e-06
6.0699e-06
6.06988e-06
6.06987e-06
6.06985e-06
6.06983e-06
6.0698e-06
6.06978e-06
6.06976e-06
6.06931e-06
6.06933e-06
6.06932e-06
6.06931e-06
6.0693e-06
6.06929e-06
6.06928e-06
6.06927e-06
6.06927e-06
6.06926e-06
6.06925e-06
6.06923e-06
6.06922e-06
6.0692e-06
6.06918e-06
6.06915e-06
6.06913e-06
6.0691e-06
6.06907e-06
6.06904e-06
6.06901e-06
6.06898e-06
6.06895e-06
6.06893e-06
6.0689e-06
6.06888e-06
6.06886e-06
6.06884e-06
6.06883e-06
6.06881e-06
6.0688e-06
6.06879e-06
6.06878e-06
6.06878e-06
6.06877e-06
6.06877e-06
6.06877e-06
6.06878e-06
6.06878e-06
6.06879e-06
6.06879e-06
6.06868e-06
6.06868e-06
6.06868e-06
6.06867e-06
6.06866e-06
6.06866e-06
6.06865e-06
6.06864e-06
6.06863e-06
6.06862e-06
6.0686e-06
6.06857e-06
6.06854e-06
6.0685e-06
6.06846e-06
6.06841e-06
6.06836e-06
6.06832e-06
6.06828e-06
6.06826e-06
6.06824e-06
6.06823e-06
6.06823e-06
6.06823e-06
6.06824e-06
6.06825e-06
6.06826e-06
6.06828e-06
6.0683e-06
6.06832e-06
6.06834e-06
6.06836e-06
6.06839e-06
6.06842e-06
6.06844e-06
6.06847e-06
6.06851e-06
6.06853e-06
6.06856e-06
6.06859e-06
6.06862e-06
6.06799e-06
6.06799e-06
6.06799e-06
6.06799e-06
6.06799e-06
6.06799e-06
6.06799e-06
6.06799e-06
6.06799e-06
6.06799e-06
6.06798e-06
6.06796e-06
6.06794e-06
6.0679e-06
6.06786e-06
6.06781e-06
6.06777e-06
6.06777e-06
6.0678e-06
6.06786e-06
6.06793e-06
6.06801e-06
6.06811e-06
6.06822e-06
6.06833e-06
6.06844e-06
6.06856e-06
6.06868e-06
6.0688e-06
6.06892e-06
6.06903e-06
6.06914e-06
6.06925e-06
6.06935e-06
6.06944e-06
6.06953e-06
6.06962e-06
6.06969e-06
6.06976e-06
6.06983e-06
6.06988e-06
0.000578248
0.00079284
0.000948249
0.0010577
0.00113805
0.00119917
0.00124901
0.0012918
0.00132954
0.00136331
0.00139385
0.0014218
0.00144767
0.00147188
0.00149477
0.00151661
0.00153762
0.00155798
0.00157783
0.00159725
0.00161629
0.00163498
0.00165332
0.00167128
0.00168883
0.00170591
0.00172248
0.00173849
0.00175382
0.00176836
0.00178201
0.00179453
0.00180622
0.00181771
0.00182915
0.00184037
0.00185112
0.00186113
0.00187017
0.00187806
0.00188433
0.00189259
0.00190202
0.00191165
0.00192082
0.00192905
0.00193595
0.00194118
0.00194429
0.00194575
0.00194573
0.00194401
0.00194019
0.00193384
0.00192451
0.00191181
0.00189531
0.00187462
0.00184944
0.0018195
0.00178457
0.00174436
0.00169861
0.00164703
0.00158942
0.0015256
0.00145552
0.00137925
0.00129706
0.00120916
0.00111722
0.00101752
0.000932063
0.000769015
0.000875362
0.00100066
0.00108848
0.00115297
0.00120275
0.00124211
0.00127422
0.00130159
0.00132598
0.00134845
0.00136969
0.00139013
0.00141007
0.00142971
0.0014492
0.00146867
0.00148819
0.00150781
0.00152755
0.00154744
0.00156746
0.00158759
0.00160777
0.00162796
0.00164808
0.00166806
0.00168781
0.0017072
0.00172614
0.00174453
0.00176226
0.0017792
0.00179527
0.00181059
0.0018253
0.00183942
0.00185288
0.00186554
0.00187723
0.00188783
0.00189691
0.00190539
0.00191372
0.00192185
0.00192953
0.00193645
0.00194231
0.00194688
0.00194975
0.00195491
0.0019616
0.00196874
0.00197554
0.00198144
0.00198598
0.00198877
0.00198944
0.00198762
0.00198357
0.00197737
0.00196883
0.00195762
0.00194335
0.00192563
0.00190407
0.0018783
0.00184798
0.00181278
0.00177246
0.00172656
0.00167593
0.00161646
0.00156518
0.00145223
0.000985172
0.00105149
0.00109411
0.0011218
0.0011414
0.00115643
0.00116898
0.00118048
0.00119183
0.00120361
0.00121619
0.00122982
0.0012446
0.00126058
0.00127776
0.00129612
0.00131558
0.00133609
0.00135755
0.00137989
0.001403
0.00142679
0.00145116
0.00147599
0.00150119
0.00152665
0.00155224
0.00157784
0.00160335
0.00162862
0.00165355
0.00167796
0.00170172
0.00172476
0.00174708
0.00176866
0.00178947
0.00180949
0.00182858
0.00184665
0.00186347
0.00187906
0.0018936
0.00190723
0.00191993
0.00193165
0.00194223
0.00195155
0.00195925
0.00196613
0.00197273
0.00197912
0.0019851
0.00199039
0.0019947
0.00199777
0.00199923
0.00199946
0.00200193
0.00200606
0.00201085
0.00201548
0.00201937
0.00202203
0.00202309
0.00202216
0.00201894
0.0020131
0.00200432
0.00199253
0.00197828
0.0019595
0.00194352
0.00190236
0.000953942
0.000945293
0.000928858
0.000911632
0.00089696
0.000885082
0.000876016
0.000869933
0.000866883
0.000866829
0.000869734
0.000875568
0.000884282
0.000895809
0.000910056
0.000926913
0.000946247
0.000967909
0.000991731
0.00101753
0.00104513
0.00107434
0.00110495
0.00113678
0.00116965
0.00120335
0.00123773
0.0012726
0.00130779
0.00134313
0.00137846
0.00141361
0.00144842
0.00148274
0.00151644
0.00154946
0.0015817
0.00161308
0.00164353
0.001673
0.00170139
0.00172863
0.0017547
0.00177961
0.00180339
0.00182605
0.00184755
0.00186783
0.0018867
0.00190418
0.00192039
0.00193547
0.00194948
0.0019624
0.00197413
0.00198456
0.00199354
0.0020009
0.00200727
0.00201316
0.00201871
0.00202385
0.00202842
0.00203219
0.00203495
0.00203647
0.00203656
0.00203506
0.00203162
0.0020301
0.00203042
0.00203155
0.00203318
0.00203491
0.000707691
0.000647247
0.000591219
0.00054391
0.000505712
0.000474564
0.000448869
0.000427832
0.000410932
0.000397772
0.000388092
0.000381742
0.000378643
0.000378757
0.000382083
0.000388639
0.000398454
0.000411556
0.000427963
0.000447678
0.000470676
0.0004969
0.000526256
0.000558605
0.000593766
0.000631517
0.000671594
0.000713702
0.000757522
0.000802722
0.000848965
0.000895924
0.000943284
0.000990755
0.00103808
0.00108505
0.00113149
0.00117725
0.00122223
0.00126635
0.00130952
0.00135168
0.00139276
0.00143273
0.00147155
0.00150916
0.00154553
0.00158063
0.0016144
0.0016468
0.00167779
0.00170739
0.00173563
0.00176251
0.00178806
0.00181224
0.00183502
0.00185634
0.00187619
0.00189468
0.00191194
0.00192807
0.00194312
0.00195708
0.00196992
0.00198157
0.00199195
0.00200098
0.00200848
0.00201485
0.00202047
0.00202576
0.00202982
0.00203751
0.000298451
0.000250869
0.000207339
0.00017054
0.000140116
0.000114418
9.2193e-05
7.29023e-05
5.63969e-05
4.2668e-05
3.16893e-05
2.32966e-05
1.71608e-05
1.28561e-05
9.95692e-06
8.10644e-06
7.04805e-06
6.63166e-06
6.81444e-06
7.66992e-06
9.41319e-06
1.24389e-05
1.73468e-05
2.48924e-05
3.57952e-05
5.04388e-05
6.86936e-05
9.00735e-05
0.000114098
0.000140535
0.000169406
0.000200863
0.000235068
0.000272121
0.000312025
0.000354678
0.000399886
0.000447372
0.000496801
0.000547794
0.00059995
0.000652863
0.000706136
0.000759396
0.000812311
0.000864585
0.000915971
0.00096627
0.00101532
0.001063
0.00110922
0.00115392
0.00119708
0.0012387
0.00127879
0.00131736
0.00135443
0.00139001
0.00142411
0.00145673
0.00148793
0.00151773
0.00154616
0.00157325
0.00159903
0.0016235
0.00164666
0.00166851
0.00168898
0.00170813
0.00172577
0.00174288
0.00175562
0.00178062
2.24228e-05
1.04084e-05
4.33403e-06
1.87501e-06
9.26385e-07
5.39731e-07
3.71308e-07
2.98529e-07
2.74435e-07
2.80449e-07
3.09639e-07
3.60126e-07
4.32227e-07
5.27011e-07
6.4541e-07
7.87585e-07
9.52459e-07
1.1374e-06
1.33806e-06
1.54838e-06
1.76079e-06
1.96655e-06
2.15638e-06
2.3212e-06
2.45313e-06
2.54662e-06
2.59961e-06
2.61467e-06
2.59983e-06
2.56902e-06
2.5427e-06
2.54738e-06
2.62286e-06
2.8226e-06
3.22835e-06
3.97729e-06
5.30891e-06
7.63648e-06
1.16255e-05
1.8201e-05
2.83426e-05
4.26309e-05
6.08776e-05
8.22865e-05
0.000106001
0.000131481
0.00015851
0.000187042
0.00021706
0.000248506
0.000281263
0.000315157
0.000349971
0.000385463
0.000421378
0.000457459
0.000493456
0.000529132
0.000564266
0.000598658
0.00063213
0.000664527
0.000695719
0.000725595
0.000754064