/*--------------------------------*- C++ -*----------------------------------*\
| =========                 |                                                 |
| \\      /  F ield         | OpenFOAM: The Open Source CFD Toolbox           |
|  \\    /   O peration     | Version:  2312                                  |
|   \\  /    A nd           | Website:  www.openfoam.com                      |
|    \\/     M anipulation  |                                                 |
\*---------------------------------------------------------------------------*/
FoamFile
{
    version     2.0;
    format      ascii;
    arch        "LSB;label=32;scalar=64";
    class       volScalarField;
    location    "248";
    object      nuTilda;
}
// * * * * * * * * * * * * * * * * * * * * * * * * * * * * * * * * * * * * * //

dimensions      [0 2 -1 0 0 0 0];

internalField   nonuniform List<scalar> 
11040
(
4.42925e-05
5.46307e-05
7.55809e-05
0.000112525
0.000177259
0.000282886
0.000418473
0.000534071
0.000601514
0.000632467
0.000646477
0.000654551
0.000660218
0.000663883
0.000665338
0.000664511
0.000661555
0.000656816
0.000650626
0.000643291
0.000634645
0.000625531
0.000617393
0.000610573
0.000604705
0.000599291
0.000594004
0.000588744
0.000583419
0.000577909
0.000572056
0.00056568
0.000558578
0.000550444
0.000540869
0.000529422
0.000515332
0.000497944
0.000473588
0.000447148
0.000376631
3.92865e-05
3.94492e-05
4.00496e-05
4.16957e-05
4.49056e-05
5.48406e-05
7.88562e-05
0.000120244
0.0001748
0.000235509
0.000297257
0.00035699
0.000412556
0.000461911
0.000503467
0.000536602
0.000561872
0.000580727
0.000595113
0.000606927
0.000617961
0.00062808
0.000636104
0.000642447
0.000647768
0.00065249
0.000656908
0.000661174
0.000665393
0.000669639
0.00067399
0.00067851
0.000683254
0.000688291
0.000693688
0.000699479
0.0007057
0.000712397
0.000719224
0.00072809
0.000715423
4.01385e-05
4.02235e-05
4.00829e-05
4.00977e-05
4.02265e-05
4.04452e-05
4.08151e-05
4.16272e-05
4.34869e-05
4.73865e-05
5.38352e-05
6.5091e-05
8.25765e-05
0.0001073
0.000139609
0.000179083
0.000224615
0.000274552
0.000327081
0.000380392
0.000433257
0.000482132
0.000524314
0.000560819
0.00059262
0.000620585
0.000645559
0.000668263
0.000689297
0.000709132
0.000728128
0.00074655
0.000764586
0.000782413
0.000800149
0.000817821
0.000835556
0.000853322
0.000871775
0.000890429
0.000901516
4.00839e-05
4.00617e-05
4.00875e-05
4.01351e-05
4.0187e-05
4.02546e-05
4.03461e-05
4.0464e-05
4.06118e-05
4.07881e-05
4.10532e-05
4.12579e-05
4.14189e-05
4.17969e-05
4.29047e-05
4.54821e-05
5.04999e-05
5.9088e-05
7.25392e-05
9.20933e-05
0.00011953
0.000153665
0.000191117
0.000230989
0.000272706
0.000315506
0.000358792
0.000402026
0.000444816
0.00048688
0.000528087
0.000568429
0.000607977
0.000647062
0.00068601
0.000725107
0.000764659
0.000805676
0.000848794
0.000893354
0.000948832
4.01347e-05
4.00641e-05
4.00474e-05
4.00482e-05
4.00064e-05
3.99954e-05
4.00094e-05
4.00398e-05
4.00833e-05
4.01387e-05
4.02064e-05
4.02852e-05
4.03824e-05
4.04648e-05
4.04746e-05
4.03664e-05
4.01201e-05
3.97686e-05
3.94241e-05
3.93045e-05
3.98892e-05
4.17196e-05
4.51868e-05
5.04667e-05
5.78772e-05
6.76815e-05
8.01755e-05
9.56213e-05
0.000114273
0.00013635
0.00016208
0.000191713
0.000225478
0.00026389
0.000307449
0.000356712
0.000412059
0.000475648
0.000548795
0.000629128
0.000754489
4.01099e-05
4.00631e-05
4.00422e-05
4.00393e-05
4.00456e-05
4.00513e-05
4.00553e-05
4.00598e-05
4.00688e-05
4.0084e-05
4.01058e-05
4.01347e-05
4.01712e-05
4.02158e-05
4.02657e-05
4.03145e-05
4.03494e-05
4.03494e-05
4.02808e-05
4.01033e-05
3.97298e-05
3.91471e-05
3.85279e-05
3.79417e-05
3.7401e-05
3.69463e-05
3.6629e-05
3.65276e-05
3.67547e-05
3.74712e-05
3.89013e-05
4.13639e-05
4.52853e-05
5.13235e-05
6.03716e-05
7.37092e-05
9.29066e-05
0.000120948
0.000162696
0.000215944
0.000333894
4.00988e-05
4.00616e-05
4.00338e-05
4.00278e-05
4.00281e-05
4.00212e-05
4.00088e-05
3.99938e-05
3.99923e-05
3.99967e-05
4.00046e-05
4.00158e-05
4.00303e-05
4.00487e-05
4.00709e-05
4.00967e-05
4.01259e-05
4.01583e-05
4.01931e-05
4.0228e-05
4.02546e-05
4.02548e-05
4.02276e-05
4.01772e-05
4.00982e-05
3.99854e-05
3.98295e-05
3.96174e-05
3.9331e-05
3.89478e-05
3.84393e-05
3.77718e-05
3.69162e-05
3.58374e-05
3.45465e-05
3.3121e-05
3.19064e-05
3.11909e-05
3.38035e-05
3.71474e-05
6.97975e-05
4.00857e-05
4.00566e-05
4.00377e-05
4.00282e-05
4.00254e-05
4.0025e-05
4.00251e-05
4.00237e-05
4.00182e-05
4.00134e-05
4.00112e-05
4.00112e-05
4.00133e-05
4.00173e-05
4.00236e-05
4.00321e-05
4.00423e-05
4.00541e-05
4.00676e-05
4.00829e-05
4.01011e-05
4.01226e-05
4.01445e-05
4.01657e-05
4.0186e-05
4.02049e-05
4.0222e-05
4.0236e-05
4.02451e-05
4.02454e-05
4.02304e-05
4.01881e-05
4.00995e-05
3.99273e-05
3.96147e-05
3.90523e-05
3.81384e-05
3.65373e-05
3.42425e-05
3.01938e-05
2.5892e-05
4.00746e-05
4.00525e-05
4.00375e-05
4.00266e-05
4.00216e-05
4.00193e-05
4.00181e-05
4.00129e-05
4.0007e-05
4.00006e-05
3.99967e-05
3.99961e-05
3.99972e-05
3.99994e-05
4.00027e-05
4.00072e-05
4.00129e-05
4.00197e-05
4.00274e-05
4.00358e-05
4.00447e-05
4.00539e-05
4.00631e-05
4.00725e-05
4.00821e-05
4.00919e-05
4.0102e-05
4.01124e-05
4.01234e-05
4.01354e-05
4.01489e-05
4.01646e-05
4.01833e-05
4.02057e-05
4.02308e-05
4.02529e-05
4.02503e-05
4.01933e-05
3.9872e-05
3.94356e-05
3.66053e-05
4.00648e-05
4.00486e-05
4.00359e-05
4.0027e-05
4.00201e-05
4.00172e-05
4.00157e-05
4.00154e-05
4.00122e-05
4.00083e-05
4.00043e-05
4.00001e-05
3.99958e-05
3.99914e-05
3.99872e-05
3.99821e-05
3.99806e-05
3.99807e-05
3.99815e-05
3.99829e-05
3.99847e-05
3.99872e-05
3.99899e-05
3.99929e-05
3.9996e-05
3.99991e-05
4.00024e-05
4.00056e-05
4.00089e-05
4.00123e-05
4.00157e-05
4.00193e-05
4.00235e-05
4.00289e-05
4.00367e-05
4.00494e-05
4.00676e-05
4.01102e-05
4.01551e-05
4.03037e-05
4.02405e-05
4.00562e-05
4.00448e-05
4.00332e-05
4.00253e-05
4.00202e-05
4.00162e-05
4.00142e-05
4.00134e-05
4.00112e-05
4.00088e-05
4.00061e-05
4.00036e-05
4.00006e-05
3.99995e-05
3.99994e-05
3.99999e-05
4.00008e-05
4.0002e-05
4.00036e-05
4.00056e-05
4.00075e-05
4.00094e-05
4.00113e-05
4.00133e-05
4.00156e-05
4.00179e-05
4.00204e-05
4.00228e-05
4.00252e-05
4.00275e-05
4.00297e-05
4.00316e-05
4.00331e-05
4.00343e-05
4.0035e-05
4.00352e-05
4.00355e-05
4.00352e-05
4.00409e-05
4.00508e-05
4.01376e-05
4.00488e-05
4.00394e-05
4.00299e-05
4.00236e-05
4.00196e-05
4.00169e-05
4.00146e-05
4.00135e-05
4.00131e-05
4.00117e-05
4.001e-05
4.00082e-05
4.00064e-05
4.00045e-05
4.00025e-05
4.00004e-05
3.99982e-05
3.99959e-05
3.99936e-05
3.99911e-05
3.99887e-05
3.99862e-05
3.99846e-05
3.9984e-05
3.99839e-05
3.9984e-05
3.99842e-05
3.99845e-05
3.99849e-05
3.99853e-05
3.99856e-05
3.9986e-05
3.99861e-05
3.99852e-05
3.99842e-05
3.99832e-05
3.99825e-05
3.9982e-05
3.99837e-05
3.99817e-05
3.99913e-05
4.00424e-05
4.00349e-05
4.00272e-05
4.00223e-05
4.00192e-05
4.00171e-05
4.00156e-05
4.00141e-05
4.00137e-05
4.00129e-05
4.0012e-05
4.00111e-05
4.00101e-05
4.00089e-05
4.00078e-05
4.00065e-05
4.00056e-05
4.00054e-05
4.00055e-05
4.00058e-05
4.00062e-05
4.00065e-05
4.00068e-05
4.00072e-05
4.00077e-05
4.00082e-05
4.00087e-05
4.00093e-05
4.00098e-05
4.00104e-05
4.00109e-05
4.00112e-05
4.00114e-05
4.00114e-05
4.00111e-05
4.00101e-05
4.00083e-05
4.00063e-05
4.00038e-05
4.00024e-05
4.00002e-05
4.00371e-05
4.00311e-05
4.0025e-05
4.00211e-05
4.00188e-05
4.00173e-05
4.00162e-05
4.00153e-05
4.00151e-05
4.00152e-05
4.00151e-05
4.00151e-05
4.00146e-05
4.00139e-05
4.00131e-05
4.00123e-05
4.00114e-05
4.00104e-05
4.00094e-05
4.00083e-05
4.00071e-05
4.00059e-05
4.00048e-05
4.00037e-05
4.00027e-05
4.00017e-05
4.00007e-05
3.99998e-05
3.99988e-05
3.9998e-05
3.99972e-05
3.99965e-05
3.99957e-05
3.9995e-05
3.99944e-05
3.99939e-05
3.99935e-05
3.9993e-05
3.99936e-05
3.9993e-05
3.99945e-05
4.00327e-05
4.00281e-05
4.00232e-05
4.00202e-05
4.00185e-05
4.00174e-05
4.00166e-05
4.00163e-05
4.00163e-05
4.00162e-05
4.00162e-05
4.00163e-05
4.00163e-05
4.00163e-05
4.00163e-05
4.00158e-05
4.00152e-05
4.00145e-05
4.00139e-05
4.00132e-05
4.00124e-05
4.00117e-05
4.0011e-05
4.00103e-05
4.00096e-05
4.0009e-05
4.00084e-05
4.00077e-05
4.00072e-05
4.00066e-05
4.0006e-05
4.00054e-05
4.00048e-05
4.00041e-05
4.00035e-05
4.00028e-05
4.00024e-05
4.00022e-05
4.00019e-05
4.00021e-05
4.00017e-05
4.00291e-05
4.00256e-05
4.00218e-05
4.00194e-05
4.00182e-05
4.00173e-05
4.00167e-05
4.00162e-05
4.0016e-05
4.00158e-05
4.00158e-05
4.00158e-05
4.00159e-05
4.00161e-05
4.00162e-05
4.00164e-05
4.00166e-05
4.00167e-05
4.00169e-05
4.00171e-05
4.00172e-05
4.00174e-05
4.00176e-05
4.00179e-05
4.00181e-05
4.00184e-05
4.00186e-05
4.00189e-05
4.00192e-05
4.00195e-05
4.00197e-05
4.002e-05
4.00203e-05
4.00206e-05
4.00209e-05
4.00211e-05
4.00213e-05
4.00214e-05
4.00213e-05
4.00213e-05
4.00213e-05
4.00261e-05
4.00235e-05
4.00206e-05
4.00186e-05
4.00172e-05
4.00163e-05
4.00156e-05
4.00152e-05
4.00151e-05
4.0015e-05
4.0015e-05
4.0015e-05
4.00149e-05
4.00149e-05
4.00149e-05
4.00149e-05
4.00149e-05
4.00149e-05
4.00149e-05
4.00149e-05
4.00149e-05
4.00148e-05
4.00148e-05
4.00148e-05
4.00148e-05
4.00148e-05
4.00149e-05
4.00149e-05
4.0015e-05
4.0015e-05
4.00151e-05
4.00151e-05
4.00152e-05
4.00152e-05
4.00153e-05
4.00154e-05
4.00155e-05
4.00157e-05
4.00159e-05
4.00162e-05
4.00165e-05
4.00237e-05
4.00217e-05
4.00197e-05
4.00179e-05
4.00168e-05
4.00162e-05
4.00158e-05
4.00155e-05
4.00153e-05
4.00151e-05
4.00149e-05
4.00147e-05
4.00145e-05
4.00143e-05
4.0014e-05
4.00138e-05
4.00136e-05
4.00133e-05
4.0013e-05
4.00128e-05
4.00125e-05
4.00122e-05
4.0012e-05
4.00117e-05
4.00115e-05
4.00112e-05
4.0011e-05
4.00108e-05
4.00106e-05
4.00104e-05
4.00102e-05
4.001e-05
4.00099e-05
4.00097e-05
4.00095e-05
4.00094e-05
4.00092e-05
4.0009e-05
4.00089e-05
4.00088e-05
4.0009e-05
4.00218e-05
4.00203e-05
4.00187e-05
4.00173e-05
4.00166e-05
4.00162e-05
4.0016e-05
4.00159e-05
4.00158e-05
4.00157e-05
4.00156e-05
4.00155e-05
4.00153e-05
4.00152e-05
4.00151e-05
4.00149e-05
4.00148e-05
4.00146e-05
4.00145e-05
4.00143e-05
4.00142e-05
4.0014e-05
4.00139e-05
4.00138e-05
4.00137e-05
4.00135e-05
4.00134e-05
4.00133e-05
4.00132e-05
4.00131e-05
4.00129e-05
4.00128e-05
4.00127e-05
4.00126e-05
4.00125e-05
4.00124e-05
4.00123e-05
4.00122e-05
4.00121e-05
4.0012e-05
4.0012e-05
4.00204e-05
4.00193e-05
4.00179e-05
4.0017e-05
4.00165e-05
4.00163e-05
4.00162e-05
4.00162e-05
4.00162e-05
4.00161e-05
4.00161e-05
4.0016e-05
4.00159e-05
4.00159e-05
4.00158e-05
4.00157e-05
4.00157e-05
4.00156e-05
4.00156e-05
4.00155e-05
4.00155e-05
4.00156e-05
4.00157e-05
4.00158e-05
4.00157e-05
4.00156e-05
4.00156e-05
4.00155e-05
4.00154e-05
4.00154e-05
4.00153e-05
4.00153e-05
4.00152e-05
4.00152e-05
4.00151e-05
4.0015e-05
4.0015e-05
4.0015e-05
4.00149e-05
4.00149e-05
4.00149e-05
4.00193e-05
4.00184e-05
4.00173e-05
4.00166e-05
4.00163e-05
4.00162e-05
4.00161e-05
4.00162e-05
4.00162e-05
4.00162e-05
4.00163e-05
4.00164e-05
4.00164e-05
4.00165e-05
4.00165e-05
4.00166e-05
4.00166e-05
4.00167e-05
4.00168e-05
4.00168e-05
4.00169e-05
4.0017e-05
4.0017e-05
4.00171e-05
4.00171e-05
4.00172e-05
4.00172e-05
4.00172e-05
4.00172e-05
4.00172e-05
4.00172e-05
4.00172e-05
4.00172e-05
4.00172e-05
4.00172e-05
4.00172e-05
4.00171e-05
4.00171e-05
4.00171e-05
4.00172e-05
4.00171e-05
4.00185e-05
4.00177e-05
4.00168e-05
4.00163e-05
4.00161e-05
4.0016e-05
4.0016e-05
4.00161e-05
4.00162e-05
4.00162e-05
4.00163e-05
4.00164e-05
4.00165e-05
4.00166e-05
4.00166e-05
4.00167e-05
4.00168e-05
4.00168e-05
4.00169e-05
4.0017e-05
4.00171e-05
4.00171e-05
4.00172e-05
4.00173e-05
4.00174e-05
4.00174e-05
4.00175e-05
4.00175e-05
4.00176e-05
4.00176e-05
4.00176e-05
4.00177e-05
4.00177e-05
4.00177e-05
4.00178e-05
4.00178e-05
4.00178e-05
4.00179e-05
4.00179e-05
4.0018e-05
4.0018e-05
4.00177e-05
4.00171e-05
4.00164e-05
4.0016e-05
4.00159e-05
4.00159e-05
4.00159e-05
4.0016e-05
4.00161e-05
4.00162e-05
4.00163e-05
4.00164e-05
4.00165e-05
4.00166e-05
4.00167e-05
4.00168e-05
4.00169e-05
4.0017e-05
4.00171e-05
4.00172e-05
4.00172e-05
4.00173e-05
4.00174e-05
4.00175e-05
4.00176e-05
4.00177e-05
4.00177e-05
4.00178e-05
4.00178e-05
4.00179e-05
4.00179e-05
4.0018e-05
4.0018e-05
4.00181e-05
4.00181e-05
4.00182e-05
4.00182e-05
4.00183e-05
4.00183e-05
4.00183e-05
4.00184e-05
4.00171e-05
4.00166e-05
4.0016e-05
4.00157e-05
4.00157e-05
4.00157e-05
4.00158e-05
4.00159e-05
4.00161e-05
4.00162e-05
4.00163e-05
4.00164e-05
4.00165e-05
4.00166e-05
4.00167e-05
4.00168e-05
4.00169e-05
4.0017e-05
4.00171e-05
4.00172e-05
4.00173e-05
4.00174e-05
4.00175e-05
4.00176e-05
4.00177e-05
4.00178e-05
4.00179e-05
4.00179e-05
4.0018e-05
4.00181e-05
4.00181e-05
4.00182e-05
4.00182e-05
4.00183e-05
4.00184e-05
4.00184e-05
4.00185e-05
4.00185e-05
4.00186e-05
4.00186e-05
4.00187e-05
4.00165e-05
4.00161e-05
4.00156e-05
4.00155e-05
4.00155e-05
4.00156e-05
4.00157e-05
4.00158e-05
4.0016e-05
4.00161e-05
4.00162e-05
4.00164e-05
4.00165e-05
4.00166e-05
4.00167e-05
4.00168e-05
4.00169e-05
4.0017e-05
4.00172e-05
4.00173e-05
4.00174e-05
4.00175e-05
4.00176e-05
4.00177e-05
4.00178e-05
4.00179e-05
4.0018e-05
4.0018e-05
4.00181e-05
4.00182e-05
4.00182e-05
4.00183e-05
4.00184e-05
4.00184e-05
4.00185e-05
4.00185e-05
4.00186e-05
4.00187e-05
4.00187e-05
4.00188e-05
4.00188e-05
4.0016e-05
4.00156e-05
4.00153e-05
4.00152e-05
4.00153e-05
4.00154e-05
4.00155e-05
4.00157e-05
4.00158e-05
4.0016e-05
4.00161e-05
4.00163e-05
4.00164e-05
4.00165e-05
4.00166e-05
4.00168e-05
4.00169e-05
4.0017e-05
4.00171e-05
4.00172e-05
4.00174e-05
4.00175e-05
4.00176e-05
4.00177e-05
4.00178e-05
4.00179e-05
4.0018e-05
4.00181e-05
4.00181e-05
4.00182e-05
4.00183e-05
4.00184e-05
4.00184e-05
4.00185e-05
4.00186e-05
4.00186e-05
4.00187e-05
4.00187e-05
4.00188e-05
4.00189e-05
4.00189e-05
4.00155e-05
4.00152e-05
4.0015e-05
4.0015e-05
4.00151e-05
4.00152e-05
4.00154e-05
4.00155e-05
4.00157e-05
4.00158e-05
4.0016e-05
4.00161e-05
4.00163e-05
4.00164e-05
4.00165e-05
4.00167e-05
4.00168e-05
4.00169e-05
4.00171e-05
4.00172e-05
4.00173e-05
4.00174e-05
4.00175e-05
4.00176e-05
4.00177e-05
4.00178e-05
4.00179e-05
4.0018e-05
4.00181e-05
4.00182e-05
4.00183e-05
4.00183e-05
4.00184e-05
4.00185e-05
4.00186e-05
4.00186e-05
4.00187e-05
4.00188e-05
4.00188e-05
4.00189e-05
4.00189e-05
4.0015e-05
4.00148e-05
4.00147e-05
4.00147e-05
4.00148e-05
4.0015e-05
4.00151e-05
4.00153e-05
4.00155e-05
4.00156e-05
4.00158e-05
4.0016e-05
4.00161e-05
4.00163e-05
4.00164e-05
4.00165e-05
4.00167e-05
4.00168e-05
4.00169e-05
4.00171e-05
4.00172e-05
4.00173e-05
4.00174e-05
4.00175e-05
4.00177e-05
4.00178e-05
4.00179e-05
4.00179e-05
4.0018e-05
4.00181e-05
4.00182e-05
4.00183e-05
4.00184e-05
4.00184e-05
4.00185e-05
4.00186e-05
4.00186e-05
4.00187e-05
4.00188e-05
4.00188e-05
4.00189e-05
4.00146e-05
4.00144e-05
4.00144e-05
4.00144e-05
4.00146e-05
4.00147e-05
4.00149e-05
4.00151e-05
4.00153e-05
4.00154e-05
4.00156e-05
4.00157e-05
4.00159e-05
4.00161e-05
4.00162e-05
4.00163e-05
4.00165e-05
4.00166e-05
4.00168e-05
4.00169e-05
4.0017e-05
4.00172e-05
4.00173e-05
4.00174e-05
4.00175e-05
4.00176e-05
4.00177e-05
4.00178e-05
4.00179e-05
4.0018e-05
4.00181e-05
4.00182e-05
4.00182e-05
4.00183e-05
4.00184e-05
4.00185e-05
4.00185e-05
4.00186e-05
4.00187e-05
4.00187e-05
4.00188e-05
4.00141e-05
4.0014e-05
4.0014e-05
4.00141e-05
4.00143e-05
4.00145e-05
4.00146e-05
4.00148e-05
4.0015e-05
4.00152e-05
4.00153e-05
4.00155e-05
4.00157e-05
4.00158e-05
4.0016e-05
4.00161e-05
4.00163e-05
4.00164e-05
4.00166e-05
4.00167e-05
4.00168e-05
4.0017e-05
4.00171e-05
4.00172e-05
4.00173e-05
4.00174e-05
4.00175e-05
4.00176e-05
4.00177e-05
4.00178e-05
4.00179e-05
4.0018e-05
4.00181e-05
4.00182e-05
4.00182e-05
4.00183e-05
4.00184e-05
4.00184e-05
4.00185e-05
4.00186e-05
4.00186e-05
4.00137e-05
4.00136e-05
4.00137e-05
4.00138e-05
4.0014e-05
4.00141e-05
4.00143e-05
4.00145e-05
4.00147e-05
4.00149e-05
4.0015e-05
4.00152e-05
4.00154e-05
4.00155e-05
4.00157e-05
4.00158e-05
4.0016e-05
4.00162e-05
4.00163e-05
4.00164e-05
4.00166e-05
4.00167e-05
4.00169e-05
4.0017e-05
4.00171e-05
4.00172e-05
4.00173e-05
4.00174e-05
4.00175e-05
4.00176e-05
4.00177e-05
4.00178e-05
4.00179e-05
4.00179e-05
4.0018e-05
4.00181e-05
4.00182e-05
4.00182e-05
4.00183e-05
4.00184e-05
4.00184e-05
4.00132e-05
4.00132e-05
4.00133e-05
4.00134e-05
4.00136e-05
4.00138e-05
4.0014e-05
4.00141e-05
4.00143e-05
4.00145e-05
4.00147e-05
4.00149e-05
4.0015e-05
4.00152e-05
4.00154e-05
4.00155e-05
4.00157e-05
4.00158e-05
4.0016e-05
4.00161e-05
4.00163e-05
4.00164e-05
4.00166e-05
4.00167e-05
4.00168e-05
4.00169e-05
4.0017e-05
4.00171e-05
4.00172e-05
4.00173e-05
4.00174e-05
4.00175e-05
4.00176e-05
4.00177e-05
4.00177e-05
4.00178e-05
4.00179e-05
4.00179e-05
4.0018e-05
4.00181e-05
4.00181e-05
4.00127e-05
4.00128e-05
4.00129e-05
4.0013e-05
4.00132e-05
4.00134e-05
4.00136e-05
4.00137e-05
4.00139e-05
4.00141e-05
4.00143e-05
4.00145e-05
4.00146e-05
4.00148e-05
4.0015e-05
4.00152e-05
4.00153e-05
4.00155e-05
4.00156e-05
4.00158e-05
4.00159e-05
4.00161e-05
4.00162e-05
4.00163e-05
4.00165e-05
4.00166e-05
4.00167e-05
4.00168e-05
4.00169e-05
4.0017e-05
4.00171e-05
4.00172e-05
4.00172e-05
4.00173e-05
4.00174e-05
4.00175e-05
4.00175e-05
4.00176e-05
4.00177e-05
4.00177e-05
4.00178e-05
4.00122e-05
4.00123e-05
4.00124e-05
4.00126e-05
4.00128e-05
4.00129e-05
4.00131e-05
4.00133e-05
4.00135e-05
4.00136e-05
4.00138e-05
4.0014e-05
4.00142e-05
4.00144e-05
4.00146e-05
4.00147e-05
4.00149e-05
4.00151e-05
4.00152e-05
4.00154e-05
4.00155e-05
4.00157e-05
4.00158e-05
4.00159e-05
4.00161e-05
4.00162e-05
4.00163e-05
4.00164e-05
4.00165e-05
4.00166e-05
4.00167e-05
4.00168e-05
4.00168e-05
4.00169e-05
4.0017e-05
4.00171e-05
4.00171e-05
4.00172e-05
4.00173e-05
4.00173e-05
4.00174e-05
4.00117e-05
4.00118e-05
4.0012e-05
4.00121e-05
4.00123e-05
4.00124e-05
4.00126e-05
4.00128e-05
4.0013e-05
4.00131e-05
4.00133e-05
4.00135e-05
4.00137e-05
4.00139e-05
4.00141e-05
4.00142e-05
4.00144e-05
4.00146e-05
4.00147e-05
4.00149e-05
4.0015e-05
4.00152e-05
4.00153e-05
4.00155e-05
4.00156e-05
4.00157e-05
4.00158e-05
4.00159e-05
4.0016e-05
4.00161e-05
4.00162e-05
4.00163e-05
4.00164e-05
4.00164e-05
4.00165e-05
4.00166e-05
4.00166e-05
4.00167e-05
4.00168e-05
4.00168e-05
4.00169e-05
4.00112e-05
4.00113e-05
4.00114e-05
4.00116e-05
4.00117e-05
4.00119e-05
4.0012e-05
4.00122e-05
4.00124e-05
4.00126e-05
4.00128e-05
4.00129e-05
4.00131e-05
4.00133e-05
4.00135e-05
4.00137e-05
4.00138e-05
4.0014e-05
4.00142e-05
4.00143e-05
4.00145e-05
4.00146e-05
4.00148e-05
4.00149e-05
4.0015e-05
4.00151e-05
4.00153e-05
4.00154e-05
4.00155e-05
4.00156e-05
4.00156e-05
4.00157e-05
4.00158e-05
4.00159e-05
4.00159e-05
4.0016e-05
4.00161e-05
4.00161e-05
4.00162e-05
4.00162e-05
4.00163e-05
4.00106e-05
4.00107e-05
4.00109e-05
4.0011e-05
4.00111e-05
4.00113e-05
4.00114e-05
4.00116e-05
4.00118e-05
4.00119e-05
4.00121e-05
4.00123e-05
4.00125e-05
4.00127e-05
4.00129e-05
4.0013e-05
4.00132e-05
4.00134e-05
4.00135e-05
4.00137e-05
4.00138e-05
4.0014e-05
4.00141e-05
4.00143e-05
4.00144e-05
4.00145e-05
4.00146e-05
4.00147e-05
4.00148e-05
4.00149e-05
4.0015e-05
4.00151e-05
4.00151e-05
4.00152e-05
4.00153e-05
4.00153e-05
4.00154e-05
4.00154e-05
4.00155e-05
4.00155e-05
4.00156e-05
4.001e-05
4.00101e-05
4.00103e-05
4.00104e-05
4.00105e-05
4.00106e-05
4.00108e-05
4.00109e-05
4.00111e-05
4.00112e-05
4.00114e-05
4.00116e-05
4.00118e-05
4.0012e-05
4.00121e-05
4.00123e-05
4.00125e-05
4.00126e-05
4.00128e-05
4.0013e-05
4.00131e-05
4.00132e-05
4.00134e-05
4.00135e-05
4.00136e-05
4.00137e-05
4.00138e-05
4.00139e-05
4.0014e-05
4.00141e-05
4.00142e-05
4.00143e-05
4.00143e-05
4.00144e-05
4.00145e-05
4.00145e-05
4.00146e-05
4.00146e-05
4.00147e-05
4.00147e-05
4.00147e-05
4.00093e-05
4.00095e-05
4.00096e-05
4.00097e-05
4.00098e-05
4.00099e-05
4.001e-05
4.00102e-05
4.00103e-05
4.00105e-05
4.00106e-05
4.00108e-05
4.0011e-05
4.00111e-05
4.00113e-05
4.00115e-05
4.00116e-05
4.00118e-05
4.0012e-05
4.00121e-05
4.00123e-05
4.00124e-05
4.00125e-05
4.00126e-05
4.00128e-05
4.00129e-05
4.0013e-05
4.00131e-05
4.00131e-05
4.00132e-05
4.00133e-05
4.00134e-05
4.00134e-05
4.00135e-05
4.00135e-05
4.00136e-05
4.00136e-05
4.00137e-05
4.00137e-05
4.00138e-05
4.00138e-05
4.00086e-05
4.00088e-05
4.00089e-05
4.00089e-05
4.0009e-05
4.00091e-05
4.00092e-05
4.00093e-05
4.00095e-05
4.00096e-05
4.00098e-05
4.00099e-05
4.00101e-05
4.00102e-05
4.00104e-05
4.00106e-05
4.00107e-05
4.00109e-05
4.0011e-05
4.00112e-05
4.00113e-05
4.00114e-05
4.00115e-05
4.00117e-05
4.00118e-05
4.00119e-05
4.0012e-05
4.0012e-05
4.00121e-05
4.00122e-05
4.00123e-05
4.00123e-05
4.00124e-05
4.00124e-05
4.00125e-05
4.00125e-05
4.00126e-05
4.00126e-05
4.00126e-05
4.00127e-05
4.00127e-05
4.00079e-05
4.0008e-05
4.00081e-05
4.00081e-05
4.00082e-05
4.00083e-05
4.00083e-05
4.00084e-05
4.00086e-05
4.00087e-05
4.00088e-05
4.00089e-05
4.00091e-05
4.00092e-05
4.00094e-05
4.00095e-05
4.00097e-05
4.00098e-05
4.00099e-05
4.00101e-05
4.00102e-05
4.00103e-05
4.00104e-05
4.00105e-05
4.00106e-05
4.00107e-05
4.00108e-05
4.00109e-05
4.00109e-05
4.0011e-05
4.00111e-05
4.00111e-05
4.00112e-05
4.00112e-05
4.00112e-05
4.00113e-05
4.00113e-05
4.00113e-05
4.00114e-05
4.00114e-05
4.00114e-05
4.00071e-05
4.00072e-05
4.00072e-05
4.00072e-05
4.00073e-05
4.00073e-05
4.00074e-05
4.00075e-05
4.00076e-05
4.00077e-05
4.00078e-05
4.00079e-05
4.0008e-05
4.00081e-05
4.00082e-05
4.00084e-05
4.00085e-05
4.00086e-05
4.00087e-05
4.00088e-05
4.00089e-05
4.0009e-05
4.00091e-05
4.00092e-05
4.00093e-05
4.00094e-05
4.00095e-05
4.00095e-05
4.00096e-05
4.00096e-05
4.00097e-05
4.00097e-05
4.00098e-05
4.00098e-05
4.00098e-05
4.00099e-05
4.00099e-05
4.00099e-05
4.00099e-05
4.00099e-05
4.00099e-05
4.00062e-05
4.00063e-05
4.00063e-05
4.00063e-05
4.00063e-05
4.00064e-05
4.00064e-05
4.00064e-05
4.00065e-05
4.00066e-05
4.00067e-05
4.00067e-05
4.00068e-05
4.00069e-05
4.0007e-05
4.00071e-05
4.00072e-05
4.00073e-05
4.00074e-05
4.00075e-05
4.00076e-05
4.00076e-05
4.00077e-05
4.00078e-05
4.00078e-05
4.00079e-05
4.0008e-05
4.0008e-05
4.00081e-05
4.00081e-05
4.00081e-05
4.00082e-05
4.00082e-05
4.00082e-05
4.00082e-05
4.00082e-05
4.00082e-05
4.00082e-05
4.00082e-05
4.00082e-05
4.00082e-05
4.00052e-05
4.00053e-05
4.00053e-05
4.00053e-05
4.00053e-05
4.00053e-05
4.00053e-05
4.00054e-05
4.00054e-05
4.00054e-05
4.00055e-05
4.00055e-05
4.00056e-05
4.00056e-05
4.00057e-05
4.00057e-05
4.00058e-05
4.00058e-05
4.00059e-05
4.0006e-05
4.0006e-05
4.0006e-05
4.00061e-05
4.00061e-05
4.00062e-05
4.00062e-05
4.00062e-05
4.00063e-05
4.00063e-05
4.00063e-05
4.00063e-05
4.00063e-05
4.00063e-05
4.00064e-05
4.00064e-05
4.00064e-05
4.00064e-05
4.00064e-05
4.00064e-05
4.00064e-05
4.00063e-05
4.00042e-05
4.00043e-05
4.00043e-05
4.00043e-05
4.00042e-05
4.00042e-05
4.00042e-05
4.00042e-05
4.00042e-05
4.00042e-05
4.00042e-05
4.00042e-05
4.00043e-05
4.00043e-05
4.00043e-05
4.00043e-05
4.00043e-05
4.00043e-05
4.00043e-05
4.00043e-05
4.00043e-05
4.00043e-05
4.00043e-05
4.00043e-05
4.00043e-05
4.00043e-05
4.00043e-05
4.00043e-05
4.00043e-05
4.00043e-05
4.00043e-05
4.00043e-05
4.00042e-05
4.00042e-05
4.00042e-05
4.00042e-05
4.00041e-05
4.00041e-05
4.0004e-05
4.0004e-05
4.0004e-05
4.00031e-05
4.00032e-05
4.00031e-05
4.00031e-05
4.00031e-05
4.00031e-05
4.00031e-05
4.00031e-05
4.0003e-05
4.0003e-05
4.0003e-05
4.0003e-05
4.0003e-05
4.00029e-05
4.00029e-05
4.00028e-05
4.00028e-05
4.00027e-05
4.00027e-05
4.00026e-05
4.00026e-05
4.00025e-05
4.00025e-05
4.00024e-05
4.00024e-05
4.00023e-05
4.00023e-05
4.00023e-05
4.00022e-05
4.00022e-05
4.00022e-05
4.00022e-05
4.00021e-05
4.00021e-05
4.00021e-05
4.00021e-05
4.00021e-05
4.00021e-05
4.00021e-05
4.00022e-05
4.00022e-05
4.00019e-05
4.0002e-05
4.00019e-05
4.00019e-05
4.00019e-05
4.00019e-05
4.00019e-05
4.00019e-05
4.00019e-05
4.00018e-05
4.00018e-05
4.00017e-05
4.00017e-05
4.00016e-05
4.00015e-05
4.00015e-05
4.00014e-05
4.00013e-05
4.00012e-05
4.00012e-05
4.00011e-05
4.00011e-05
4.00011e-05
4.00011e-05
4.00011e-05
4.00012e-05
4.00012e-05
4.00012e-05
4.00012e-05
4.00013e-05
4.00013e-05
4.00014e-05
4.00014e-05
4.00015e-05
4.00015e-05
4.00016e-05
4.00016e-05
4.00017e-05
4.00017e-05
4.00018e-05
4.00018e-05
4.00007e-05
4.00007e-05
4.00007e-05
4.00007e-05
4.00007e-05
4.00007e-05
4.00007e-05
4.00007e-05
4.00007e-05
4.00007e-05
4.00006e-05
4.00006e-05
4.00006e-05
4.00005e-05
4.00004e-05
4.00003e-05
4.00003e-05
4.00003e-05
4.00003e-05
4.00004e-05
4.00006e-05
4.00007e-05
4.00009e-05
4.00011e-05
4.00013e-05
4.00015e-05
4.00017e-05
4.0002e-05
4.00022e-05
4.00024e-05
4.00026e-05
4.00028e-05
4.0003e-05
4.00032e-05
4.00034e-05
4.00035e-05
4.00037e-05
4.00038e-05
4.0004e-05
4.00041e-05
4.00042e-05
0.000579312
0.000793408
0.000948647
0.00105802
0.00113832
0.00119942
0.00124924
0.00129202
0.00132975
0.0013635
0.00139404
0.00142198
0.00144785
0.00147205
0.00149493
0.00151676
0.00153777
0.00155813
0.00157798
0.00159739
0.00161643
0.00163511
0.00165346
0.00167141
0.00168895
0.00170603
0.0017226
0.00173861
0.00175394
0.00176848
0.00178213
0.00179464
0.00180633
0.00181782
0.00182926
0.00184048
0.00185122
0.00186124
0.00187028
0.00187816
0.00188443
0.00189269
0.00190212
0.00191175
0.00192092
0.00192915
0.00193604
0.00194128
0.00194438
0.00194584
0.00194582
0.0019441
0.00194028
0.00193393
0.00192461
0.00191191
0.00189541
0.00187473
0.00184954
0.00181961
0.00178468
0.00174448
0.00169873
0.00164717
0.00158956
0.00152575
0.00145569
0.00137944
0.00129728
0.00120941
0.00111751
0.00101786
0.000932474
0.000769619
0.000875828
0.00100102
0.00108878
0.00115324
0.001203
0.00124234
0.00127444
0.0013018
0.00132618
0.00134865
0.00136988
0.00139032
0.00141025
0.00142988
0.00144937
0.00146884
0.00148835
0.00150796
0.00152771
0.00154759
0.00156761
0.00158773
0.00160791
0.00162809
0.00164821
0.00166819
0.00168793
0.00170732
0.00172626
0.00174465
0.00176238
0.00177931
0.00179538
0.0018107
0.00182541
0.00183953
0.00185298
0.00186564
0.00187733
0.00188793
0.00189701
0.00190548
0.00191381
0.00192195
0.00192963
0.00193655
0.00194241
0.00194697
0.00194985
0.00195501
0.00196169
0.00196883
0.00197563
0.00198153
0.00198607
0.00198886
0.00198953
0.00198771
0.00198366
0.00197746
0.00196892
0.00195771
0.00194344
0.00192572
0.00190417
0.0018784
0.00184809
0.00181289
0.00177257
0.00172668
0.00167606
0.0016166
0.00156533
0.0014524
0.00098554
0.00105181
0.00109441
0.00112208
0.00114168
0.0011567
0.00116925
0.00118073
0.00119208
0.00120385
0.00121644
0.00123005
0.00124483
0.0012608
0.00127798
0.00129633
0.00131579
0.00133629
0.00135775
0.00138008
0.00140318
0.00142697
0.00145133
0.00147616
0.00150135
0.0015268
0.00155238
0.00157799
0.00160349
0.00162876
0.00165368
0.00167809
0.00170185
0.00172488
0.0017472
0.00176877
0.00178958
0.00180959
0.00182869
0.00184676
0.00186357
0.00187916
0.0018937
0.00190732
0.00192003
0.00193174
0.00194232
0.00195165
0.00195934
0.00196622
0.00197283
0.00197921
0.00198519
0.00199048
0.00199479
0.00199786
0.00199932
0.00199954
0.00200202
0.00200615
0.00201094
0.00201557
0.00201945
0.00202212
0.00202317
0.00202225
0.00201903
0.00201319
0.00200441
0.00199262
0.00197838
0.00195959
0.00194361
0.00190246
0.000954335
0.000945693
0.000929272
0.000912062
0.000897404
0.000885539
0.000876481
0.000870405
0.000867358
0.000867304
0.000870206
0.000876034
0.000884739
0.000896254
0.000910487
0.000927329
0.000946647
0.00096829
0.000992094
0.00101788
0.00104546
0.00107465
0.00110524
0.00113706
0.00116991
0.0012036
0.00123797
0.00127282
0.001308
0.00134333
0.00137865
0.00141379
0.00144859
0.0014829
0.0015166
0.00154961
0.00158185
0.00161322
0.00164367
0.00167313
0.00170152
0.00172875
0.00175481
0.00177972
0.0018035
0.00182616
0.00184766
0.00186793
0.0018868
0.00190428
0.00192049
0.00193557
0.00194958
0.00196249
0.00197422
0.00198465
0.00199363
0.00200099
0.00200736
0.00201325
0.00201879
0.00202394
0.00202851
0.00203228
0.00203503
0.00203656
0.00203665
0.00203514
0.00203171
0.00203019
0.0020305
0.00203164
0.00203326
0.002035
0.000708404
0.000648098
0.000592238
0.000545112
0.0005071
0.000476137
0.000450625
0.000429761
0.000413019
0.000399996
0.000390426
0.000384152
0.000381091
0.000381204
0.000384489
0.000390967
0.000400671
0.000413637
0.000429891
0.000449443
0.000472275
0.000498337
0.000527539
0.000559745
0.000594776
0.000632411
0.000672385
0.000714402
0.000758144
0.000803276
0.000849461
0.000896369
0.000943685
0.000991119
0.00103841
0.00108535
0.00113176
0.00117751
0.00122247
0.00126657
0.00130973
0.00135187
0.00139294
0.0014329
0.00147171
0.00150932
0.00154568
0.00158077
0.00161454
0.00164693
0.00167792
0.00170751
0.00173574
0.00176263
0.00178817
0.00181235
0.00183513
0.00185644
0.00187629
0.00189478
0.00191204
0.00192816
0.00194321
0.00195717
0.00197001
0.00198166
0.00199204
0.00200107
0.00200857
0.00201494
0.00202056
0.00202584
0.00202991
0.0020376
0.000302317
0.000256208
0.000214824
0.000180858
0.000153879
0.000132159
0.000114294
9.9439e-05
8.70242e-05
7.66195e-05
6.79078e-05
6.06574e-05
5.46962e-05
4.98965e-05
4.61689e-05
4.34577e-05
4.1739e-05
4.102e-05
4.13389e-05
4.27663e-05
4.54049e-05
4.93904e-05
5.48895e-05
6.2098e-05
7.1236e-05
8.25409e-05
9.62591e-05
0.000112634
0.000131896
0.000154243
0.000179832
0.000208764
0.000241073
0.000276718
0.000315579
0.000357458
0.000402087
0.000449139
0.000498238
0.000548979
0.00060094
0.0006537
0.000706851
0.000760015
0.000812852
0.000865063
0.000916397
0.000966653
0.00101567
0.00106332
0.00110951
0.00115419
0.00119733
0.00123894
0.00127901
0.00131757
0.00135463
0.0013902
0.00142428
0.0014569
0.00148809
0.00151789
0.00154631
0.0015734
0.00159917
0.00162364
0.00164679
0.00166863
0.0016891
0.00170825
0.00172589
0.001743
0.00175574
0.00178074
5.98526e-05
4.67854e-05
3.64267e-05
2.91022e-05
2.42311e-05
2.11009e-05
1.91867e-05
1.81548e-05
1.77723e-05
1.787e-05
1.83235e-05
1.90384e-05
1.99412e-05
2.09731e-05
2.20863e-05
2.32413e-05
2.44049e-05
2.55486e-05
2.66475e-05
2.76798e-05
2.86262e-05
2.94692e-05
3.0194e-05
3.07881e-05
3.1243e-05
3.15552e-05
3.17287e-05
3.17776e-05
3.17294e-05
3.16288e-05
3.15423e-05
3.15577e-05
3.18041e-05
3.24333e-05
3.36239e-05
3.55804e-05
3.85293e-05
4.27123e-05
4.83768e-05
5.57653e-05
6.5104e-05
7.65909e-05
9.03854e-05
0.000106599
0.000125291
0.00014646
0.000170048
0.000195941
0.000223974
0.000253938
0.000285585
0.000318643
0.000352823
0.000387828
0.000423365
0.00045915
0.000494912
0.000530401
0.000565384
0.000599652