/*--------------------------------*- C++ -*----------------------------------*\
| =========                 |                                                 |
| \\      /  F ield         | OpenFOAM: The Open Source CFD Toolbox           |
|  \\    /   O peration     | Version:  2312                                  |
|   \\  /    A nd           | Website:  www.openfoam.com                      |
|    \\/     M anipulation  |                                                 |
\*---------------------------------------------------------------------------*/
FoamFile
{
    version     2.0;
    format      ascii;
    arch        "LSB;label=32;scalar=64";
    class       volScalarField;
    location    "248";
    object      p;
}
// * * * * * * * * * * * * * * * * * * * * * * * * * * * * * * * * * * * * * //

dimensions      [0 2 -2 0 0 0 0];

internalField   nonuniform List<scalar> 
11040
(
23.2631
9.33243
-3.60735
-9.89368
-12.533
-13.973
-15.0015
-15.771
-16.3177
-16.6796
-16.9028
-17.0118
-17.0349
-16.986
-16.8625
-16.6603
-16.3754
-15.9995
-15.5273
-14.9421
-14.2264
-13.3549
-12.4283
-11.6131
-10.8905
-10.1837
-9.47855
-8.77646
-8.07632
-7.37078
-6.65365
-5.91798
-5.15609
-4.3585
-3.51374
-2.60806
-1.63194
-0.555901
0.610681
1.98279
3.23353
22.0021
13.0761
2.93946
-4.24984
-8.4872
-11.0215
-12.7575
-14.0663
-15.0488
-15.7424
-16.2005
-16.4749
-16.6118
-16.6427
-16.5781
-16.4217
-16.1735
-15.8287
-15.3831
-14.8222
-14.1299
-13.2872
-12.3876
-11.5816
-10.8616
-10.1589
-9.45765
-8.75898
-8.06185
-7.35927
-6.64509
-5.91251
-5.15407
-4.3603
-3.51999
-2.61992
-1.65088
-0.582964
0.570637
1.93749
3.11686
20.0105
14.2435
5.89096
-1.86688
-7.21049
-10.3754
-12.319
-13.6628
-14.6372
-15.3218
-15.7772
-16.0609
-16.2164
-16.2716
-16.2362
-16.1123
-15.8978
-15.5866
-15.1734
-14.6439
-13.9832
-13.1789
-12.3121
-11.517
-10.802
-10.1071
-9.41303
-8.7202
-8.02792
-7.32982
-6.61977
-5.89125
-5.13703
-4.34779
-3.51271
-2.61932
-1.65879
-0.601906
0.535099
1.87854
2.99298
17.6746
14.1037
8.26764
1.74253
-3.63965
-7.33919
-9.81798
-11.5966
-12.9359
-13.9343
-14.6556
-15.1642
-15.503
-15.7008
-15.7746
-15.7341
-15.5832
-15.3217
-14.9478
-14.4518
-13.8227
-13.0579
-12.2265
-11.4446
-10.7345
-10.0467
-9.3593
-8.67196
-7.98451
-7.29125
-6.58605
-5.8627
-5.11427
-4.33159
-3.50448
-2.62142
-1.67427
-0.635141
0.476973
1.77969
2.82782
15.3857
13.0939
9.21306
4.07848
-1.06995
-5.24093
-8.28776
-10.4884
-12.108
-13.2945
-14.1395
-14.7197
-15.0984
-15.3176
-15.4062
-15.3791
-15.2431
-14.9994
-14.6462
-14.1751
-13.5756
-12.8511
-12.0614
-11.3005
-10.6003
-9.92372
-9.24784
-8.57087
-7.89284
-7.20878
-6.51274
-5.79883
-5.06066
-4.28951
-3.47603
-2.61024
-1.68538
-0.676117
0.395998
1.63369
2.61398
13.2482
11.687
9.19853
5.5529
1.31666
-2.63501
-5.84661
-8.31387
-10.1925
-11.6134
-12.6677
-13.4371
-13.9841
-14.3537
-14.5765
-14.6669
-14.6328
-14.4777
-14.2013
-13.7983
-13.2614
-12.5997
-11.8687
-11.1429
-10.4606
-9.79971
-9.13858
-8.47405
-7.80652
-7.13221
-6.44574
-5.74179
-5.01476
-4.25665
-3.45945
-2.61522
-1.71945
-0.750569
0.267532
1.41466
2.34696
11.3128
10.1679
8.54417
6.068
2.84292
-0.597772
-3.7654
-6.43646
-8.59234
-10.2863
-11.5818
-12.5495
-13.254
-13.7434
-14.0526
-14.205
-14.2178
-14.1005
-13.8569
-13.4857
-12.9827
-12.3657
-11.6784
-10.9794
-10.3088
-9.65739
-9.00675
-8.35211
-7.69367
-7.02861
-6.35215
-5.65947
-4.9457
-4.20379
-3.42719
-2.61035
-1.75159
-0.835008
0.115248
1.14745
2.02702
9.58285
8.69005
7.58287
5.92796
3.63
0.923799
-1.84659
-4.40963
-6.62813
-8.46284
-9.92535
-11.061
-11.9205
-12.5475
-12.9786
-13.2428
-13.3594
-13.3383
-13.1841
-12.8977
-12.4766
-11.9351
-11.3207
-10.6774
-10.0436
-9.42102
-8.79699
-8.1664
-7.52928
-6.88398
-6.22678
-5.55367
-4.86076
-4.14228
-3.39335
-2.61102
-1.79609
-0.939194
-0.0622244
0.850785
1.65082
8.0528
7.32355
6.52007
5.38828
3.78732
1.77858
-0.464111
-2.73638
-4.87088
-6.76208
-8.36024
-9.66521
-10.6996
-11.4903
-12.0663
-12.4543
-12.6736
-12.7378
-12.6567
-12.4353
-12.0758
-11.6008
-11.0473
-10.4514
-9.84768
-9.2459
-8.64014
-8.02627
-7.40424
-6.77342
-6.13131
-5.47489
-4.80133
-4.10616
-3.38635
-2.64137
-1.87413
-1.08079
-0.280648
0.520232
1.22778
6.71132
6.09668
5.47808
4.67072
3.54981
2.10815
0.406882
-1.44351
-3.31314
-5.08502
-6.6745
-8.04256
-9.17947
-10.0883
-10.7834
-11.2839
-11.6084
-11.7723
-11.7868
-11.6582
-11.3901
-10.9979
-10.523
-9.99463
-9.44282
-8.88191
-8.31238
-7.73237
-7.14207
-6.54165
-5.92995
-5.30513
-4.66555
-4.00838
-3.33216
-2.6387
-1.93281
-1.21534
-0.502629
0.188263
0.799269
5.54518
5.01646
4.51607
3.90985
3.10133
2.0673
0.815412
-0.613424
-2.14613
-3.69359
-5.17067
-6.5187
-7.70277
-8.70161
-9.50913
-10.1299
-10.5737
-10.851
-10.9707
-10.9399
-10.7649
-10.4648
-10.073
-9.61687
-9.12284
-8.60719
-8.07558
-7.52933
-6.96979
-6.3982
-5.81488
-5.2195
-4.61182
-3.99048
-3.35605
-2.71218
-2.06492
-1.41735
-0.78404
-0.183536
0.348011
4.5404
4.08005
3.6607
3.18387
2.57799
1.82268
0.908437
-0.159238
-1.3504
-2.613
-3.88348
-5.10611
-6.23717
-7.24093
-8.09461
-8.78737
-9.31711
-9.68682
-9.90178
-9.96794
-9.891
-9.68223
-9.37554
-8.99651
-8.56857
-8.10856
-7.62566
-7.12441
-6.6078
-6.07825
-5.5374
-4.98638
-4.42629
-3.8574
-3.28131
-2.70289
-2.12882
-1.56331
-1.01759
-0.507784
-0.0565595
3.68244
3.27909
2.91936
2.53001
2.0581
1.48959
0.812925
0.0206559
-0.880719
-1.86765
-2.90237
-3.94461
-4.95621
-5.89972
-6.74452
-7.46881
-8.05916
-8.50888
-8.8159
-8.98103
-9.00712
-8.90206
-8.69236
-8.40299
-8.05536
-7.66569
-7.2449
-6.79996
-6.33564
-5.85567
-5.36307
-4.86032
-4.34983
-3.83301
-3.31286
-2.79482
-2.28538
-1.78832
-1.31308
-0.871688
-0.478542
2.95642
2.60233
2.2896
1.96331
1.58402
1.14298
0.631102
0.0386974
-0.637028
-1.38835
-2.19663
-3.03804
-3.88612
-4.71046
-5.48188
-6.17519
-6.77066
-7.25423
-7.61687
-7.85356
-7.96255
-7.94367
-7.81887
-7.61103
-7.33932
-7.01904
-6.66182
-6.2763
-5.86894
-5.44487
-5.00836
-4.56309
-4.1125
-3.65913
-3.2063
-2.75941
-2.32436
-1.90425
-1.5053
-1.13595
-0.80481
2.34801
2.03744
1.76375
1.48562
1.17348
0.822118
0.425266
-0.0254157
-0.535023
-1.10277
-1.721
-2.37781
-3.05784
-3.74057
-4.4035
-5.02441
-5.58311
-6.06261
-6.44959
-6.73436
-6.91092
-6.97288
-6.93351
-6.81216
-6.62517
-6.38613
-6.10616
-5.79423
-5.45751
-5.10181
-4.73197
-4.35229
-3.96677
-3.5785
-3.19126
-2.80999
-2.43964
-2.08243
-1.74329
-1.42794
-1.14169
1.84564
1.57404
1.33394
1.09433
0.83318
0.547434
0.232945
-0.116565
-0.505774
-0.936101
-1.40501
-1.9073
-2.43515
-2.97633
-3.5158
-4.03704
-4.52329
-4.95873
-5.3293
-5.62318
-5.83134
-5.94206
-5.96211
-5.90637
-5.78768
-5.61737
-5.40531
-5.16007
-4.88893
-4.59809
-4.29296
-3.9784
-3.65886
-3.33776
-3.0186
-2.70563
-2.40286
-2.11186
-1.83557
-1.57784
-1.3417
1.43894
1.2027
0.992583
0.785259
0.564694
0.329077
0.0755724
-0.200338
-0.502246
-0.83186
-1.18866
-1.57064
-1.97419
-2.39254
-2.81657
-3.23531
-3.63667
-4.00821
-4.33784
-4.61444
-4.82859
-4.96683
-5.03022
-5.0289
-4.97201
-4.86816
-4.72531
-4.55073
-4.35089
-4.13147
-3.89746
-3.65332
-3.40304
-3.14969
-2.89639
-2.64665
-2.40367
-2.1686
-1.94387
-1.73216
-1.53533
1.1274
0.920776
0.736746
0.556112
0.36742
0.1697
-0.0391695
-0.262467
-0.502759
-0.761426
-1.03853
-1.33329
-1.64403
-1.96694
-2.29654
-2.62582
-2.94661
-3.2499
-3.52643
-3.76701
-3.96322
-4.10208
-4.18182
-4.20889
-4.18932
-4.1293
-4.03492
-3.91198
-3.76587
-3.60151
-3.42334
-3.23537
-3.04123
-2.84382
-2.6459
-2.45044
-2.25997
-2.07543
-1.89838
-1.73069
-1.57346
0.894656
0.712108
0.549404
0.390306
0.226493
0.0574514
-0.118505
-0.303817
-0.50032
-0.709028
-0.930107
-1.16324
-1.40754
-1.66075
-1.91944
-2.1791
-2.43422
-2.67853
-2.90529
-3.10751
-3.27851
-3.40716
-3.49061
-3.53284
-3.53771
-3.5095
-3.45269
-3.37168
-3.2707
-3.15368
-3.02424
-2.88564
-2.74084
-2.59218
-2.4419
-2.29225
-2.14513
-2.00122
-1.86184
-1.72837
-1.60158
0.718529
0.556122
0.411152
0.269901
0.126192
-0.020298
-0.170957
-0.327649
-0.491703
-0.663847
-0.844212
-1.03262
-1.22853
-1.43047
-1.63617
-1.84258
-2.04595
-2.24189
-2.42554
-2.59174
-2.73535
-2.84733
-2.9248
-2.97025
-2.9861
-2.9753
-2.94108
-2.88677
-2.8156
-2.73066
-2.63485
-2.5308
-2.42093
-2.30719
-2.19142
-2.07543
-1.96079
-1.84811
-1.73845
-1.6329
-1.5321
0.582681
0.437421
0.307454
0.181271
0.0541978
-0.0740263
-0.204577
-0.338904
-0.477989
-0.622348
-0.77206
-0.926982
-1.08673
-1.25027
-1.416
-1.5818
-1.74504
-1.90261
-2.05104
-2.18658
-2.30543
-2.40051
-2.46936
-2.51362
-2.53485
-2.5351
-2.51672
-2.48218
-2.43393
-2.37433
-2.3056
-2.22981
-2.14883
-2.06417
-1.97729
-1.88957
-1.80216
-1.71556
-1.63062
-1.54811
-1.46852
0.476357
0.34588
0.22881
0.115553
0.00251731
-0.110562
-0.224699
-0.34104
-0.460323
-0.582917
-0.708853
-0.837993
-0.970033
-1.10418
-1.23928
-1.37377
-1.50576
-1.63301
-1.75302
-1.86305
-1.96032
-2.03935
-2.09824
-2.13811
-2.16
-2.16536
-2.15594
-2.13355
-2.10005
-2.05723
-2.00681
-1.95038
-1.8894
-1.82507
-1.75854
-1.69089
-1.62303
-1.55539
-1.48867
-1.42349
-1.36028
0.392129
0.274504
0.168634
0.0665809
-0.0344581
-0.134781
-0.235273
-0.336851
-0.440083
-0.545236
-0.652305
-0.761153
-0.871522
-0.982791
-1.09407
-1.2042
-1.31179
-1.41519
-1.5126
-1.60201
-1.6814
-1.74661
-1.79624
-1.83114
-1.85204
-1.86003
-1.8564
-1.84253
-1.81982
-1.78963
-1.75329
-1.71199
-1.66687
-1.61885
-1.56882
-1.5176
-1.46588
-1.414
-1.36253
-1.3119
-1.26249
0.324745
0.218368
0.122307
0.0300469
-0.0606345
-0.150076
-0.239054
-0.328315
-0.418304
-0.509216
-0.601024
-0.693596
-0.786704
-0.879847
-0.972329
-1.06327
-1.15161
-1.23615
-1.31554
-1.38832
-1.45302
-1.50648
-1.54773
-1.57745
-1.59618
-1.60474
-1.60412
-1.59538
-1.57958
-1.55777
-1.53094
-1.50003
-1.46591
-1.42928
-1.39086
-1.35126
-1.31102
-1.27042
-1.22992
-1.18987
-1.15058
0.270389
0.173909
0.0864968
0.00284945
-0.0788205
-0.158891
-0.238047
-0.316904
-0.395817
-0.474931
-0.554211
-0.633529
-0.712686
-0.791273
-0.868738
-0.944397
-1.01745
-1.08699
-1.15203
-1.21149
-1.26432
-1.30812
-1.34226
-1.3673
-1.38369
-1.39206
-1.39319
-1.3879
-1.37702
-1.36135
-1.34167
-1.31868
-1.29305
-1.26535
-1.23611
-1.20581
-1.17486
-1.14348
-1.11205
-1.08081
-1.05006
0.226241
0.138508
0.05876
-0.0172734
-0.0910537
-0.162991
-0.233693
-0.303671
-0.373216
-0.442439
-0.511302
-0.579688
-0.647423
-0.714171
-0.779492
-0.842853
-0.903641
-0.961172
-1.01471
-1.06347
-1.10669
-1.14255
-1.17067
-1.19156
-1.20555
-1.21317
-1.21503
-1.21179
-1.20409
-1.19254
-1.17776
-1.16028
-1.14064
-1.11925
-1.09655
-1.07289
-1.04861
-1.02386
-0.998978
-0.974113
-0.949544
0.190174
0.110203
0.0372763
-0.0319992
-0.098837
-0.163671
-0.227043
-0.289382
-0.350931
-0.411781
-0.471893
-0.531165
-0.589447
-0.646465
-0.701868
-0.755238
-0.806106
-0.853957
-0.898246
-0.938398
-0.973866
-1.00327
-1.02644
-1.04379
-1.05562
-1.06236
-1.06452
-1.06262
-1.05715
-1.04861
-1.03748
-1.02418
-1.00911
-0.992623
-0.975036
-0.956638
-0.93768
-0.918293
-0.89874
-0.879133
-0.859719
0.160567
0.0875022
0.0206699
-0.0425869
-0.10329
-0.161888
-0.218865
-0.274587
-0.329259
-0.38296
-0.435655
-0.487259
-0.537644
-0.586589
-0.633814
-0.678995
-0.721773
-0.761762
-0.798559
-0.831746
-0.860936
-0.885081
-0.90415
-0.918511
-0.928413
-0.934215
-0.936336
-0.935193
-0.931192
-0.924722
-0.916151
-0.905823
-0.894049
-0.881097
-0.867227
-0.85266
-0.837591
-0.822125
-0.806477
-0.790721
-0.775085
0.136162
0.0692613
0.00788895
-0.0499925
-0.105254
-0.158353
-0.209724
-0.259679
-0.308399
-0.355952
-0.402315
-0.447414
-0.491147
-0.533338
-0.573767
-0.612182
-0.648314
-0.681874
-0.712569
-0.7401
-0.764198
-0.78407
-0.799781
-0.811654
-0.819905
-0.824836
-0.826798
-0.826133
-0.823168
-0.818214
-0.811568
-0.8035
-0.794258
-0.784053
-0.773094
-0.761553
-0.749583
-0.737268
-0.724786
-0.712182
-0.699666
0.115976
0.0545894
-0.00187892
-0.0549483
-0.10537
-0.153602
-0.200034
-0.244939
-0.288476
-0.330712
-0.371629
-0.411173
-0.449263
-0.485761
-0.520496
-0.55328
-0.583911
-0.612179
-0.637874
-0.660784
-0.680729
-0.697113
-0.710062
-0.719862
-0.726698
-0.730829
-0.732549
-0.732139
-0.729866
-0.725982
-0.720724
-0.714308
-0.706933
-0.698764
-0.68997
-0.680685
-0.671031
-0.661075
-0.650961
-0.640718
-0.630534
0.0992349
0.0427882
-0.00926709
-0.0580205
-0.104125
-0.148035
-0.190101
-0.230562
-0.269565
-0.307174
-0.343383
-0.378152
-0.411421
-0.443087
-0.473023
-0.501088
-0.527136
-0.551019
-0.572591
-0.591709
-0.608256
-0.621787
-0.632469
-0.640555
-0.646203
-0.649637
-0.651105
-0.650841
-0.649065
-0.64598
-0.64178
-0.636639
-0.630715
-0.624144
-0.617058
-0.609567
-0.601766
-0.593708
-0.585515
-0.5772
-0.568934
0.085319
0.0333049
-0.0147734
-0.0596497
-0.101896
-0.141957
-0.180149
-0.216686
-0.251703
-0.285266
-0.31738
-0.34802
-0.377148
-0.404688
-0.430549
-0.454634
-0.47684
-0.497067
-0.51522
-0.531205
-0.544957
-0.556144
-0.564957
-0.571618
-0.576266
-0.579092
-0.580306
-0.580104
-0.578668
-0.576166
-0.572752
-0.568569
-0.563746
-0.55839
-0.552609
-0.546489
-0.540108
-0.533508
-0.526788
-0.519953
-0.513159
0.0737325
0.0256989
-0.0187919
-0.0601819
-0.0989739
-0.135599
-0.170343
-0.203401
-0.2349
-0.264909
-0.293443
-0.320495
-0.346043
-0.370038
-0.392421
-0.413128
-0.432092
-0.449253
-0.464554
-0.477941
-0.489382
-0.498636
-0.505906
-0.511386
-0.515198
-0.517505
-0.518487
-0.51831
-0.517123
-0.515063
-0.51226
-0.508829
-0.504874
-0.500482
-0.495741
-0.490721
-0.485483
-0.480062
-0.474541
-0.468916
-0.46333
0.0640747
0.0196166
-0.021637
-0.0598899
-0.0955845
-0.129135
-0.160803
-0.190766
-0.219147
-0.24602
-0.271411
-0.295327
-0.317764
-0.338698
-0.358094
-0.375916
-0.392131
-0.406705
-0.419612
-0.430829
-0.44035
-0.448001
-0.453991
-0.458488
-0.461598
-0.463462
-0.464234
-0.464053
-0.463043
-0.461319
-0.458986
-0.456138
-0.452861
-0.449226
-0.445303
-0.441149
-0.436814
-0.432324
-0.42775
-0.423083
-0.418452
0.0560202
0.0147723
-0.0235608
-0.0589906
-0.0919055
-0.122701
-0.151617
-0.178818
-0.204426
-0.22852
-0.251137
-0.272299
-0.292019
-0.310293
-0.327109
-0.342455
-0.356322
-0.368701
-0.379588
-0.388983
-0.3969
-0.403218
-0.408141
-0.411816
-0.414337
-0.415823
-0.416408
-0.416207
-0.415326
-0.413858
-0.411892
-0.409504
-0.406763
-0.403729
-0.400459
-0.396999
-0.393389
-0.38965
-0.385841
-0.38195
-0.378095
0.049303
0.0109336
-0.0247674
-0.0576576
-0.0880767
-0.1164
-0.142849
-0.167578
-0.190711
-0.212331
-0.232489
-0.251221
-0.268555
-0.284504
-0.299079
-0.312287
-0.324138
-0.334643
-0.343816
-0.351673
-0.358242
-0.363443
-0.367474
-0.370463
-0.37249
-0.37366
-0.374085
-0.373864
-0.373086
-0.371827
-0.370161
-0.368151
-0.365853
-0.363315
-0.360585
-0.357699
-0.35469
-0.351576
-0.348404
-0.345161
-0.341953
0.0437048
0.00790983
-0.0254241
-0.0560331
-0.0842113
-0.110313
-0.134544
-0.157055
-0.17797
-0.19738
-0.215348
-0.231924
-0.247151
-0.261059
-0.273675
-0.285025
-0.295134
-0.304029
-0.311737
-0.318286
-0.323715
-0.327972
-0.331247
-0.333651
-0.335251
-0.336139
-0.33641
-0.336148
-0.335427
-0.334312
-0.332861
-0.331129
-0.329161
-0.326996
-0.324674
-0.322223
-0.319671
-0.317032
-0.314346
-0.311598
-0.308884
0.039046
0.00554421
-0.0256686
-0.0542343
-0.0804037
-0.104509
-0.126743
-0.147255
-0.166172
-0.183597
-0.199606
-0.21426
-0.227616
-0.239721
-0.250616
-0.260341
-0.268935
-0.276436
-0.282885
-0.288317
-0.292778
-0.296242
-0.298886
-0.300807
-0.302064
-0.302734
-0.3029
-0.302632
-0.301992
-0.301033
-0.299803
-0.298347
-0.296701
-0.294898
-0.292968
-0.290936
-0.288824
-0.286642
-0.284423
-0.282153
-0.279918
0.0351786
0.00370828
-0.0256118
-0.0523534
-0.0767267
-0.0990407
-0.119479
-0.138187
-0.1553
-0.170931
-0.185172
-0.198099
-0.209782
-0.220283
-0.229655
-0.23795
-0.245217
-0.251504
-0.256858
-0.261321
-0.264941
-0.267708
-0.269787
-0.271259
-0.272174
-0.2726
-0.272608
-0.272256
-0.271596
-0.270675
-0.269531
-0.268202
-0.266718
-0.265106
-0.263391
-0.261593
-0.259729
-0.257809
-0.255858
-0.253865
-0.251903
0.0319801
0.00229324
-0.0253476
-0.050464
-0.0732294
-0.0939335
-0.112754
-0.129839
-0.145326
-0.159339
-0.17198
-0.183344
-0.193516
-0.202573
-0.210583
-0.217608
-0.223705
-0.22893
-0.233335
-0.23697
-0.239886
-0.242092
-0.243739
-0.244897
-0.24561
-0.245934
-0.245927
-0.245637
-0.245107
-0.244371
-0.243462
-0.242408
-0.241235
-0.239962
-0.238609
-0.237192
-0.235726
-0.234217
-0.232686
-0.231121
-0.229588
0.0293466
0.00120023
-0.0249714
-0.0486534
-0.0699802
-0.0892241
-0.106566
-0.122166
-0.136175
-0.148726
-0.159932
-0.169894
-0.178709
-0.186465
-0.193243
-0.199118
-0.204159
-0.208424
-0.211968
-0.214835
-0.217072
-0.21869
-0.219827
-0.220541
-0.220872
-0.22087
-0.220589
-0.220072
-0.219356
-0.218474
-0.217453
-0.216318
-0.215089
-0.213784
-0.212418
-0.211004
-0.209554
-0.208072
-0.206575
-0.205054
-0.203561
0.0271909
0.000342965
-0.0245765
-0.047031
-0.0671087
-0.0850528
-0.101043
-0.115252
-0.127857
-0.139021
-0.148883
-0.157561
-0.165158
-0.171763
-0.177458
-0.182322
-0.186431
-0.189859
-0.192677
-0.194945
-0.196723
-0.198036
-0.199005
-0.199675
-0.200072
-0.200232
-0.200189
-0.199973
-0.199609
-0.199117
-0.198517
-0.197828
-0.197063
-0.196237
-0.195361
-0.194446
-0.193501
-0.19253
-0.191548
-0.190542
-0.189564
0.0254445
-0.00033483
-0.0242
-0.045619
-0.0646481
-0.0815029
-0.0963475
-0.109347
-0.120679
-0.130524
-0.139053
-0.146425
-0.152785
-0.158252
-0.16292
-0.16686
-0.170127
-0.172767
-0.174822
-0.176329
-0.177333
-0.177862
-0.178037
-0.177911
-0.177526
-0.17693
-0.176167
-0.175273
-0.174278
-0.173203
-0.172067
-0.170886
-0.169671
-0.168432
-0.167176
-0.165909
-0.164637
-0.163361
-0.162088
-0.160815
-0.159567
0.0240566
-0.000866222
-0.023816
-0.0442789
-0.0623133
-0.0781558
-0.0919989
-0.104018
-0.114382
-0.123243
-0.130744
-0.137028
-0.142241
-0.146535
-0.150059
-0.152956
-0.155351
-0.157348
-0.159023
-0.160434
-0.161619
-0.162592
-0.163412
-0.164084
-0.164603
-0.164976
-0.165216
-0.165332
-0.165337
-0.165241
-0.165058
-0.1648
-0.164479
-0.164104
-0.163687
-0.163236
-0.162759
-0.16226
-0.16175
-0.161219
-0.160706
0.0229763
-0.00132931
-0.0235443
-0.0431373
-0.0601287
-0.0747749
-0.0873449
-0.0981094
-0.107324
-0.115207
-0.121926
-0.127604
-0.132325
-0.136146
-0.13911
-0.141262
-0.142657
-0.143361
-0.143454
-0.143018
-0.142136
-0.14089
-0.139421
-0.137808
-0.136109
-0.134373
-0.132641
-0.130938
-0.12928
-0.127677
-0.126131
-0.124644
-0.123212
-0.121833
-0.120502
-0.119215
-0.117969
-0.116758
-0.115578
-0.114432
-0.113311
0.0221367
-0.00190426
-0.0238406
-0.0431308
-0.0596496
-0.0735231
-0.0849598
-0.0942345
-0.101667
-0.107589
-0.112323
-0.116166
-0.119378
-0.122174
-0.124718
-0.127123
-0.12945
-0.131721
-0.133933
-0.136065
-0.138097
-0.139994
-0.141732
-0.143277
-0.144609
-0.145727
-0.146638
-0.147355
-0.147896
-0.148281
-0.14853
-0.148664
-0.148703
-0.148663
-0.148561
-0.148409
-0.148221
-0.148003
-0.147767
-0.147508
-0.147255
0.0214833
-0.00273438
-0.0248945
-0.0446115
-0.061748
-0.0763349
-0.0884512
-0.0982177
-0.105792
-0.111356
-0.115099
-0.117221
-0.11792
-0.117396
-0.11585
-0.113479
-0.110472
-0.107011
-0.103253
-0.0993333
-0.0953572
-0.0914181
-0.0876407
-0.0840926
-0.0808056
-0.0777943
-0.0750617
-0.0725996
-0.0703915
-0.0684165
-0.0666512
-0.0650722
-0.0636567
-0.062383
-0.0612316
-0.0601852
-0.0592285
-0.0583484
-0.0575311
-0.056774
-0.0560519
0.0210436
-0.00352857
-0.0254162
-0.044372
-0.0605876
-0.0744532
-0.0863543
-0.096621
-0.105526
-0.113291
-0.120091
-0.126067
-0.13133
-0.135969
-0.140052
-0.14363
-0.146742
-0.149421
-0.151694
-0.153594
-0.155155
-0.156411
-0.157344
-0.157957
-0.15829
-0.158386
-0.158281
-0.158012
-0.157616
-0.157124
-0.156568
-0.155974
-0.155363
-0.154755
-0.154164
-0.153603
-0.15308
-0.152602
-0.152175
-0.151797
-0.151478
5.94584
3.81737
2.60199
2.38817
2.17645
1.86198
1.59404
1.39632
1.23439
1.09152
0.966697
0.859238
0.766152
0.684614
0.612798
0.549399
0.493288
0.443475
0.399133
0.35958
0.324237
0.292604
0.264253
0.238813
0.21596
0.195414
0.176925
0.160277
0.145277
0.131755
0.119559
0.108554
0.09862
0.0896487
0.0815443
0.0742214
0.067603
0.0616202
0.0562112
0.0513187
0.0468921
0.0428843
0.0392545
0.0359662
0.0329854
0.0302825
0.0278306
0.0256042
0.0235802
0.0217379
0.0200584
0.0185251
0.0171222
0.0158362
0.0146539
0.013563
0.0125531
0.0116134
0.0107349
0.00990904
0.00912752
0.00838297
0.00766739
0.00697408
0.00629611
0.00562636
0.0049577
0.00428421
0.00358868
0.0028889
0.00206337
0.00141513
-0.000486711
0.0017954
5.75041
3.79988
2.58975
2.37329
2.16451
1.85136
1.58438
1.38774
1.22669
1.08451
0.960281
0.853349
0.76073
0.679608
0.608165
0.545103
0.4893
0.439768
0.395683
0.356367
0.32124
0.289807
0.26164
0.23637
0.213675
0.193274
0.17492
0.158397
0.143513
0.130098
0.118002
0.10709
0.0972427
0.0883531
0.0803254
0.0730743
0.0665227
0.0606026
0.0552522
0.0504148
0.0460399
0.0420812
0.0384975
0.0352525
0.0323125
0.0296481
0.0272326
0.0250408
0.0230494
0.0212377
0.019587
0.0180809
0.0167041
0.0154431
0.0142847
0.0132169
0.0122291
0.0113108
0.0104527
0.00964649
0.00888398
0.00815785
0.00746024
0.00678451
0.00612381
0.0054711
0.00481936
0.00416283
0.00348455
0.00280225
0.00199524
0.00136553
-0.000557625
0.00187479
5.47586
3.77372
2.56592
2.34055
2.14317
1.83531
1.56994
1.37503
1.21561
1.07467
0.951432
0.845353
0.753476
0.672999
0.602119
0.539557
0.4842
0.435068
0.391345
0.352355
0.317526
0.286364
0.258445
0.233401
0.210914
0.190703
0.172525
0.156163
0.141429
0.128151
0.116183
0.105389
0.0956509
0.0868625
0.0789289
0.0717654
0.0652952
0.0594507
0.0541706
0.0493988
0.0450853
0.0411845
0.0376556
0.034462
0.0315701
0.0289509
0.0265779
0.0244261
0.0224725
0.0206967
0.0190799
0.0176058
0.0162592
0.0150268
0.0138955
0.0128536
0.0118905
0.0109956
0.0101597
0.00937445
0.00863199
0.00792511
0.00724614
0.00658852
0.0059455
0.00531018
0.00467567
0.00403643
0.00337579
0.00271141
0.00192397
0.00131255
-0.000583266
0.00187959
5.08069
3.69127
2.52472
2.28558
2.10545
1.80896
1.54708
1.35517
1.19875
1.0601
0.938596
0.833954
0.743307
0.663875
0.59389
0.532106
0.477431
0.4289
0.38571
0.347195
0.31279
0.282009
0.254433
0.2297
0.207493
0.187538
0.169593
0.153444
0.138904
0.125805
0.114001
0.103357
0.0937586
0.0850987
0.0772841
0.0702309
0.0638638
0.058115
0.0529231
0.0482328
0.0439949
0.0401647
0.0367016
0.0335695
0.0307351
0.0281694
0.0258465
0.0237415
0.021832
0.0200978
0.0185205
0.0170836
0.0157722
0.0145729
0.0134729
0.0124605
0.0115254
0.0106571
0.0098466
0.00908556
0.00836603
0.00768095
0.00702285
0.00638528
0.00576162
0.00514514
0.0045291
0.00390822
0.00326612
0.00262024
0.00185343
0.00125939
-0.00055817
0.00179912
4.55161
3.52777
2.46094
2.20061
2.0402
1.76511
1.51131
1.32445
1.17302
1.03829
0.919672
0.817356
0.728668
0.650887
0.5823
0.521716
0.468083
0.420466
0.37808
0.340277
0.306505
0.276289
0.249218
0.224938
0.203139
0.18355
0.165934
0.150082
0.13581
0.122954
0.111369
0.100925
0.0915065
0.0830109
0.0753459
0.0684296
0.0621879
0.0565541
0.0514682
0.0468761
0.0427294
0.0389837
0.0355992
0.0325405
0.0297755
0.0272749
0.0250121
0.0229631
0.0211058
0.0194207
0.0178893
0.0164958
0.0152252
0.0140642
0.0130004
0.0120221
0.0111191
0.0102812
0.00949967
0.00876622
0.00807296
0.00741282
0.00677846
0.00616358
0.00556173
0.00496634
0.00437083
0.00377017
0.00314847
0.00252295
0.00177958
0.00120351
-0.000500193
0.00165658
3.88635
3.25723
2.36143
2.08318
1.94209
1.69974
1.46081
1.28152
1.13718
1.0083
0.893979
0.795012
0.709105
0.633643
0.566994
0.508053
0.455834
0.409441
0.368123
0.331258
0.298315
0.268836
0.242424
0.218734
0.197467
0.178359
0.161179
0.145723
0.131811
0.119282
0.107996
0.0978255
0.0886575
0.0803912
0.0729363
0.0662123
0.0601466
0.0546738
0.049735
0.0452774
0.0412532
0.0376193
0.034337
0.0313716
0.0286919
0.0262694
0.0240781
0.0220953
0.0202993
0.0186709
0.0171923
0.0158479
0.0146231
0.013505
0.0124814
0.0115408
0.0106734
0.00986906
0.0091192
0.00841572
0.00775111
0.00711842
0.00651015
0.00592003
0.00534188
0.00476937
0.0041961
0.0036173
0.00301761
0.00241396
0.00169632
0.00114014
-0.000441739
0.00148446
3.16263
2.89258
2.2212
1.94162
1.81502
1.61237
1.3956
1.22658
1.09118
0.970084
0.861552
0.767011
0.684739
0.612304
0.548173
0.491355
0.440947
0.396116
0.356153
0.32047
0.288566
0.260003
0.234402
0.211433
0.190809
0.172276
0.155611
0.140618
0.127123
0.114972
0.104028
0.094167
0.0852812
0.0772724
0.070053
0.0635448
0.0576773
0.0523871
0.0476169
0.0433154
0.0394361
0.0359368
0.0327798
0.0299309
0.0273592
0.0250371
0.0229393
0.0210432
0.0193278
0.0177743
0.0163653
0.0150854
0.0139207
0.0128583
0.0118864
0.010994
0.0101713
0.0094087
0.00869773
0.00803059
0.00739997
0.00679908
0.00622066
0.00565878
0.0051075
0.00456076
0.00401238
0.00345792
0.00288258
0.002303
0.00161364
0.00108038
-0.000382759
0.00131684
2.47824
2.45599
2.01885
1.76929
1.65657
1.49702
1.31079
1.15661
1.03249
0.921477
0.820675
0.731959
0.654395
0.58587
0.524983
0.470877
0.422771
0.379913
0.341653
0.30745
0.276838
0.249412
0.224815
0.202737
0.182906
0.165082
0.149052
0.13463
0.12165
0.109964
0.0994397
0.0899601
0.0814201
0.0737255
0.0667919
0.060544
0.0549138
0.0498401
0.0452677
0.041147
0.0374332
0.0340856
0.0310677
0.0283463
0.025892
0.023678
0.02168
0.0198762
0.0182463
0.0167722
0.0154371
0.0142262
0.0131258
0.0121235
0.011208
0.0103684
0.00959517
0.00887908
0.00821187
0.00758595
0.00699419
0.00642995
0.0058863
0.00535743
0.00483759
0.00432096
0.00380161
0.00327542
0.00272823
0.00217636
0.00151949
0.00101233
-0.000327953
0.00115774
1.86661
1.97966
1.74974
1.56446
1.47129
1.35344
1.20408
1.07001
0.959674
0.860851
0.769837
0.688536
0.616897
0.553292
0.496497
0.445809
0.400594
0.360209
0.324078
0.29172
0.262718
0.236702
0.213347
0.192367
0.17351
0.156552
0.141297
0.127568
0.115209
0.104082
0.094061
0.085036
0.0769073
0.0695854
0.0629904
0.0570503
0.0517005
0.0468827
0.0425443
0.0386378
0.0351203
0.031953
0.0291008
0.0265321
0.0242185
0.0221343
0.0202561
0.018563
0.0170354
0.015656
0.0144085
0.0132787
0.0122535
0.011321
0.0104702
0.00969075
0.00897348
0.00830949
0.00769088
0.00711034
0.00656103
0.00603659
0.00553037
0.0050368
0.0045504
0.00406567
0.003577
0.00308063
0.00256313
0.00204041
0.00141829
0.000937936
-0.000276337
0.00100663
1.31631
1.48624
1.41315
1.31207
1.25006
1.17251
1.06486
0.95806
0.865925
0.782502
0.704295
0.632917
0.569135
0.512011
0.460607
0.414406
0.372966
0.335789
0.302406
0.272417
0.245468
0.221241
0.199454
0.179854
0.162215
0.146337
0.132042
0.11917
0.107577
0.0971368
0.0877337
0.0792649
0.0716379
0.0647695
0.0585851
0.0530172
0.0480054
0.0434947
0.0394359
0.035784
0.0324989
0.0295439
0.0268857
0.0244946
0.0223437
0.0204087
0.0186674
0.0171002
0.0156885
0.0144158
0.0132668
0.0122282
0.0112873
0.0104329
0.00965455
0.00894243
0.00828775
0.00768205
0.00711779
0.00658799
0.00608611
0.00560607
0.00514158
0.00468731
0.00423808
0.00378873
0.00333398
0.00287046
0.00238557
0.00189471
0.00131052
0.000859519
-0.000231847
0.000864621
0.790519
0.992498
1.03088
1.01611
0.997452
0.960196
0.895623
0.821573
0.752014
0.686804
0.623964
0.564833
0.51076
0.461608
0.416848
0.376194
0.339413
0.306192
0.276196
0.249121
0.224695
0.202666
0.1828
0.164887
0.148736
0.134175
0.121049
0.109217
0.0985536
0.088944
0.0802857
0.0724861
0.0654614
0.0591362
0.0534423
0.0483181
0.0437083
0.0395625
0.035835
0.0324848
0.0294744
0.0267699
0.0243407
0.0221591
0.0201999
0.0184406
0.0168606
0.0154414
0.0141659
0.0130185
0.011985
0.0110528
0.0102101
0.00944634
0.00875171
0.00811704
0.00753404
0.00699477
0.00649214
0.00601957
0.00557091
0.00514044
0.00472228
0.00431142
0.00390303
0.00349237
0.00307454
0.00264658
0.00219688
0.00174024
0.00119688
0.00077699
-0.000193466
0.000732703
0.321031
0.529017
0.630954
0.68316
0.710147
0.712484
0.6895
0.651383
0.608995
0.565641
0.52143
0.477703
0.436107
0.397242
0.361099
0.327677
0.296985
0.268928
0.243343
0.220055
0.198897
0.179701
0.162302
0.146547
0.132289
0.119396
0.107744
0.0972183
0.0877153
0.0791397
0.0714049
0.0644318
0.0581484
0.0524892
0.0473948
0.0428112
0.0386895
0.0349851
0.0316574
0.0286697
0.0259884
0.0235832
0.0214263
0.0194927
0.0177598
0.0162072
0.014816
0.0135695
0.0124521
0.0114497
0.0105493
0.00973929
0.00900901
0.00834875
0.00774946
0.00720274
0.00670093
0.00623673
0.00580356
0.00539535
0.00500639
0.00463139
0.00426493
0.00390238
0.0035393
0.0031714
0.00279425
0.00240534
0.00199411
0.00157476
0.00107562
0.000689411
-0.000162293
0.000610684
-0.144288
0.0710382
0.215775
0.320021
0.392295
0.435212
0.45265
0.451688
0.439879
0.4216
0.398738
0.373042
0.346347
0.319833
0.294056
0.269367
0.246045
0.22424
0.203992
0.185285
0.168076
0.152299
0.137877
0.12472
0.112743
0.101855
0.0919736
0.0830158
0.0749049
0.0675686
0.0609394
0.054955
0.0495573
0.0446933
0.0403139
0.0363743
0.0328334
0.0296536
0.0268004
0.0242425
0.021951
0.0198995
0.0180643
0.0164235
0.0149572
0.0136477
0.0124785
0.0114348
0.0105028
0.00967009
0.00892518
0.00825777
0.00765835
0.00711823
0.00662935
0.00618416
0.00577579
0.00539766
0.00504385
0.00470887
0.00438758
0.00407516
0.00376678
0.00345824
0.0031456
0.00282507
0.00249275
0.00214664
0.00177741
0.00139855
0.000947024
0.000597228
-0.000138595
0.000499198
-0.51887
-0.316272
-0.158636
-0.0293116
0.0720401
0.145682
0.195559
0.226798
0.244219
0.251519
0.251198
0.245271
0.235584
0.223583
0.21023
0.196194
0.181999
0.168024
0.154514
0.141625
0.129452
0.118048
0.107434
0.0976055
0.0885432
0.0802174
0.0725921
0.0656271
0.0592802
0.0535089
0.0482713
0.0435266
0.0392357
0.0353612
0.0318683
0.0287241
0.0258979
0.0233613
0.0210878
0.0190529
0.017234
0.0156101
0.0141621
0.0128724
0.011725
0.0107051
0.00979932
0.00899542
0.00828201
0.00764868
0.00708581
0.00658474
0.00613745
0.00573655
0.00537517
0.00504688
0.00474573
0.00446606
0.00420274
0.003951
0.00370634
0.00346459
0.00322153
0.00297355
0.00271721
0.00244936
0.00216667
0.00186772
0.00154454
0.00120992
0.000809729
0.000499568
-0.000123261
0.000397734
-0.891294
-0.697024
-0.53127
-0.385533
-0.261983
-0.161961
-0.0831549
-0.0222401
0.023736
0.0573738
0.0809624
0.0965048
0.105785
0.110323
0.111322
0.109718
0.106262
0.101551
0.0960385
0.090064
0.083881
0.0776778
0.0715895
0.0657104
0.0601041
0.0548107
0.0498532
0.0452414
0.0409754
0.0370488
0.0334501
0.0301646
0.0271756
0.0244651
0.0220146
0.0198055
0.0178196
0.0160392
0.014447
0.013027
0.0117635
0.0106421
0.00964917
0.008772
0.0079989
0.00731904
0.00672239
0.0061997
0.00574236
0.00534237