/*--------------------------------*- C++ -*----------------------------------*\
| =========                 |                                                 |
| \\      /  F ield         | OpenFOAM: The Open Source CFD Toolbox           |
|  \\    /   O peration     | Version:  2312                                  |
|   \\  /    A nd           | Website:  www.openfoam.com                      |
|    \\/     M anipulation  |                                                 |
\*---------------------------------------------------------------------------*/
FoamFile
{
    version     2.0;
    format      ascii;
    arch        "LSB;label=32;scalar=64";
    class       surfaceScalarField;
    location    "248";
    object      phi;
}
// * * * * * * * * * * * * * * * * * * * * * * * * * * * * * * * * * * * * * //

dimensions      [0 3 -1 0 0 0 0];

oriented        oriented;

internalField   nonuniform List<scalar> 
21876
(
0.00489606
-0.00426335
-0.000632708
0.00691177
-0.00201571
0.00767733
-0.000765563
0.00796935
-0.00029202
0.008011
-4.16477e-05
0.0079127
9.82981e-05
0.00776141
0.000151286
0.00760835
0.000153066
0.00748307
0.000125279
0.00739848
8.4589e-05
0.0073488
4.96788e-05
0.0073212
2.76014e-05
0.00729972
2.14782e-05
0.00727041
2.93049e-05
0.00722536
4.50577e-05
0.00716132
6.40374e-05
0.00707841
8.29089e-05
0.00697902
9.93898e-05
0.0068643
0.000114724
0.00673323
0.000131064
0.00658113
0.000152098
0.00644115
0.000139985
0.0063342
0.000106953
0.00624711
8.70876e-05
0.00616732
7.97847e-05
0.0060908
7.65266e-05
0.00601407
7.67288e-05
0.00593576
7.83098e-05
0.00585413
8.16289e-05
0.00576748
8.66488e-05
0.0056733
9.41834e-05
0.0055687
0.0001046
0.00545028
0.000118413
0.00531195
0.000138338
0.00514744
0.000164508
0.00494873
0.000198704
0.0047049
0.000243833
0.00439011
0.000314793
0.00398422
0.000405891
0.00340274
0.000581481
0.000546984
0.00285575
0.0046698
-0.00800338
-0.000929761
0.00692468
-0.00427059
0.00793538
-0.00177626
0.00854855
-0.000905199
0.00906298
-0.000556072
0.00952228
-0.000361001
0.0099045
-0.000230938
0.0101938
-0.000136233
0.0103867
-6.76097e-05
0.0104909
-1.95874e-05
0.0105188
2.17235e-05
0.0104863
6.01505e-05
0.0104107
9.70302e-05
0.0103068
0.000133194
0.0101865
0.000165346
0.0100576
0.000193014
0.00992364
0.00021684
0.00978617
0.000236861
0.00964386
0.000257031
0.00949411
0.000280819
0.00932682
0.000319384
0.00916335
0.000303453
0.00901984
0.000250462
0.00889284
0.000214092
0.00877711
0.000195518
0.00867056
0.000183068
0.00856939
0.000177899
0.00847079
0.000176914
0.00837197
0.000180451
0.00827055
0.000188063
0.00816379
0.000200947
0.00804865
0.000219737
0.00792189
0.000245174
0.00777768
0.000282546
0.0076105
0.000331695
0.00741251
0.00039669
0.00717533
0.000481013
0.00687049
0.000619631
0.00649629
0.000780097
0.0059313
0.00114646
0.00126507
0.00521322
0.00470034
-0.0114887
-0.00121502
0.00767661
-0.00724686
0.00968642
-0.00378607
0.0109641
-0.00218285
0.0118014
-0.00139336
0.0123543
-0.00091393
0.0127101
-0.000586783
0.0129324
-0.000358464
0.0130656
-0.00020085
0.0131396
-9.36007e-05
0.0131738
-1.24242e-05
0.0131804
5.34825e-05
0.0131683
0.00010914
0.0131406
0.000160936
0.0130983
0.000207649
0.0130411
0.000250202
0.0129681
0.000289846
0.0128786
0.000326366
0.0127708
0.000364838
0.0126422
0.000409366
0.0124858
0.000475778
0.012328
0.000461235
0.0121878
0.000390689
0.0120601
0.000341796
0.0119385
0.000317141
0.0118218
0.000299758
0.0117074
0.000292321
0.0115931
0.000291189
0.0114766
0.000296995
0.0113554
0.000309264
0.0112264
0.000329868
0.0110863
0.000359863
0.0109311
0.000400407
0.0107538
0.000459845
0.0105484
0.000537049
0.0103068
0.000638347
0.01002
0.000767765
0.00965934
0.000980309
0.00922492
0.00121452
0.00863513
0.00173626
0.00198699
0.00791321
0.0048735
-0.0148364
-0.00152576
0.00805314
-0.0104265
0.0104882
-0.00622111
0.0120915
-0.00378618
0.0131336
-0.00243541
0.0138608
-0.00164116
0.0143997
-0.00112568
0.0148131
-0.000771827
0.0151376
-0.000525382
0.0153972
-0.00035324
0.0156076
-0.000222805
0.0157767
-0.000115639
0.0159118
-2.59668e-05
0.0160175
5.53034e-05
0.0160972
0.000127965
0.0161533
0.000194072
0.0161875
0.000255619
0.0162008
0.000313089
0.016192
0.000373668
0.0161583
0.000443055
0.0160917
0.000542333
0.0160088
0.000544112
0.0159308
0.00046871
0.0158549
0.000417678
0.0157743
0.000397763
0.015688
0.000386105
0.0155943
0.000386
0.015492
0.000393495
0.0153796
0.000409339
0.0152558
0.000433053
0.0151184
0.00046729
0.0149645
0.000513778
0.0147905
0.000574385
0.0145892
0.000661152
0.0143545
0.000771794
0.0140776
0.000915234
0.0137484
0.00109694
0.0133366
0.0013921
0.0128383
0.00171288
0.0121914
0.0023831
0.00272336
0.0114551
0.00524007
-0.0182279
-0.00184859
0.00859593
-0.0137824
0.0115426
-0.00916775
0.0138317
-0.0060753
0.0154979
-0.0041016
0.0167076
-0.00285092
0.0175922
-0.00201021
0.0182348
-0.00141445
0.0186951
-0.000985724
0.0190197
-0.000677818
0.0192425
-0.000445613
0.0193888
-0.000261908
0.019478
-0.000115147
0.019526
7.26457e-06
0.0195451
0.000108868
0.0195449
0.000194237
0.0195324
0.000268179
0.019512
0.000333455
0.0194858
0.000399857
0.0194548
0.000474098
0.0194141
0.000583028
0.019373
0.000585164
0.0193488
0.000492931
0.0193392
0.000427262
0.019335
0.000401964
0.0193325
0.00038861
0.0193284
0.000390095
0.0193193
0.000402663
0.0193015
0.0004271
0.0192718
0.000462739
0.0192264
0.0005127
0.0191609
0.000579253
0.0190705
0.000664815
0.0189469
0.000784751
0.0187829
0.000935835
0.0185687
0.00112943
0.0182931
0.00137253
0.0179259
0.00175925
0.017459
0.0021798
0.0168468
0.00299532
0.0034415
0.0161286
0.0058033
-0.0218326
-0.00219864
0.00934617
-0.0173252
0.0126368
-0.0124584
0.0154291
-0.00886756
0.0175948
-0.0062673
0.019202
-0.00445813
0.0203809
-0.00318919
0.0212431
-0.00227661
0.0218713
-0.00161394
0.0223293
-0.00113581
0.022666
-0.000782261
0.0229148
-0.00051073
0.0231011
-0.00030147
0.0232433
-0.000134968
0.0233527
-5.19367e-07
0.0234369
0.000110044
0.0235003
0.000204833
0.0235456
0.000288112
0.0235743
0.000371183
0.0235868
0.000461547
0.0235803
0.000589526
0.0235652
0.000600274
0.0235607
0.000497476
0.0235697
0.00041821
0.0235847
0.000386951
0.0236021
0.000371263
0.0236197
0.000372507
0.0236351
0.000387275
0.0236457
0.000416484
0.0236491
0.000459275
0.0236428
0.000519051
0.0236235
0.000598574
0.0235876
0.000700657
0.0235289
0.000843479
0.0234421
0.00102259
0.0233201
0.0012515
0.0231545
0.00153812
0.0229234
0.00199033
0.0226152
0.00248801
0.022226
0.00338454
0.00401636
0.0216511
0.0065652
-0.0258192
-0.00257857
0.0104058
-0.0211658
0.0140305
-0.016083
0.0172982
-0.0121353
0.0200451
-0.00901412
0.0222343
-0.0066474
0.0239292
-0.00488409
0.0252211
-0.00356845
0.0261935
-0.00258639
0.026917
-0.00185936
0.0274509
-0.00131612
0.0278424
-0.00090222
0.0281267
-0.000585783
0.0283298
-0.000338054
0.0284702
-0.000140883
0.0285627
1.7521e-05
0.0286187
0.000148814
0.0286471
0.000259751
0.0286537
0.000364547
0.0286425
0.000472783
0.0286148
0.00061719
0.0285782
0.000636881
0.0285512
0.000524455
0.0285397
0.00042971
0.0285378
0.000388819
0.0285409
0.000368216
0.0285464
0.000367029
0.0285516
0.000382
0.0285538
0.000414281
0.0285503
0.000462796
0.0285384
0.000530937
0.0285154
0.00062165
0.0284783
0.000737691
0.0284224
0.00089944
0.0283453
0.00109963
0.0282448
0.00135204
0.0281194
0.0016635
0.0279638
0.00214592
0.0277735
0.00267831
0.0276075
0.00355055
0.00434605
0.0272778
0.00753145
-0.0303539
-0.00299675
0.0118138
-0.0254482
0.0158244
-0.0200936
0.0195167
-0.0158275
0.0227683
-0.0122658
0.0254965
-0.00937558
0.0276976
-0.0070852
0.0294248
-0.00529561
0.0307517
-0.00391326
0.0317527
-0.0028604
0.0324988
-0.0020622
0.0330512
-0.00145465
0.0334584
-0.000992946
0.033758
-0.000637681
0.0339795
-0.000362413
0.0341449
-0.000147858
0.0342693
2.44599e-05
0.0343627
0.000166275
0.0344314
0.000295924
0.0344787
0.000425424
0.0345045
0.000591439
0.034515
0.000626352
0.0345259
0.000513599
0.034547
0.000408565
0.0345755
0.000360291
0.0346065
0.000337243
0.0346371
0.000336462
0.0346645
0.00035453
0.0346858
0.00039301
0.0346978
0.000450815
0.0346974
0.000531316
0.0346815
0.000637606
0.0346467
0.000772456
0.0345874
0.000958696
0.0345017
0.00118539
0.0343881
0.00146564
0.0342463
0.00180525
0.0340769
0.0023154
0.0338818
0.00287342
0.0337402
0.00369213
0.0045416
0.0335446
0.00871936
-0.0356159
-0.00345735
0.0136143
-0.0303431
0.0181364
-0.0246158
0.0222983
-0.0199894
0.0260472
-0.0160147
0.0293192
-0.0126476
0.0320819
-0.00984783
0.0343482
-0.00756195
0.0361641
-0.0057292
0.0375897
-0.00428594
0.0386913
-0.00316381
0.0395355
-0.00229887
0.0401777
-0.00163517
0.0406646
-0.00112452
0.0410331
-0.000730952
0.0413109
-0.000425649
0.0415184
-0.000183039
0.0416712
1.34347e-05
0.0417807
0.000186419
0.0418553
0.000350888
0.0419032
0.000543541
0.0419257
0.000603821
0.0419414
0.000497864
0.0419616
0.000388397
0.0419873
0.000334626
0.0420148
0.000309742
0.0420414
0.000309826
0.0420649
0.000331084
0.0420823
0.000375555
0.0420908
0.000442362
0.0420872
0.000534861
0.0420686
0.000656189
0.042032
0.000809083
0.0419719
0.00101879
0.0418872
0.0012701
0.0417777
0.00157514
0.0416444
0.00193861
0.0414878
0.00247197
0.0413173
0.00304387
0.0411918
0.0038177
0.00464599
0.0410874
0.010156
-0.0418062
-0.00396565
0.0158538
-0.0360409
0.0210516
-0.0298136
0.0257883
-0.0247261
0.0300668
-0.0202931
0.0338681
-0.016449
0.0371709
-0.0131507
0.0399719
-0.0103629
0.0422925
-0.00804982
0.0441726
-0.00616604
0.0456673
-0.00465845
0.046841
-0.00347259
0.047752
-0.00254618
0.0484539
-0.00182641
0.0489929
-0.00126998
0.049407
-0.000839779
0.0497268
-0.000502832
0.0499759
-0.000235618
0.0501714
-9.13188e-06
0.0503259
0.000196468
0.0504458
0.000423561
0.0505319
0.00051772
0.0506
0.000429793
0.050664
0.000324389
0.0507291
0.000269577
0.0507937
0.000245119
0.0508556
0.00024792
0.0509126
0.000274078
0.050962
0.000326114
0.0510009
0.000403535
0.051026
0.000509725
0.0510345
0.000647705
0.0510237
0.000819878
0.0509883
0.00105422
0.0509285
0.00132984
0.050846
0.00165764
0.0507448
0.0020398
0.0506255
0.00259129
0.0505076
0.00316176
0.05043
0.00389535
0.00466582
0.0504101
0.0118781
-0.0491588
-0.00452545
0.0185971
-0.0427599
0.0246688
-0.0358854
0.0301419
-0.0301992
0.035055
-0.0252062
0.0394351
-0.0208291
0.043296
-0.0170116
0.0466481
-0.013715
0.0495089
-0.0109106
0.0519053
-0.00856236
0.0538782
-0.00663142
0.055484
-0.00507838
0.0567755
-0.00383766
0.0578058
-0.00285668
0.0586244
-0.00208861
0.0592749
-0.00149026
0.0597935
-0.00102144
0.0602089
-0.000650982
0.060543
-0.000343314
0.0608134
-7.39104e-05
0.0610363
0.000200698
0.0612022
0.000351783
0.0613346
0.000297441
0.0614484
0.000210546
0.0615528
0.000165145
0.0616499
0.000148061
0.0617391
0.000158751
0.0618193
0.000193894
0.0618888
0.000256542
0.0619457
0.000346704
0.0619875
0.000467871
0.0620123
0.000622874
0.0620185
0.000813696
0.0620021
0.00107065
0.0619654
0.00136657
0.0619121
0.00171085
0.0618493
0.00210269
0.0617784
0.00266218
0.0617243
0.00321583
0.061715
0.00390468
0.00460381
0.061777
0.0139323
-0.0579504
-0.00514078
0.0219269
-0.0507545
0.0291036
-0.0430621
0.0355139
-0.0366095
0.0412188
-0.0309111
0.0462804
-0.0258908
0.0507512
-0.0214823
0.0546718
-0.0176357
0.0580762
-0.0143149
0.0609941
-0.0114803
0.0634616
-0.00909885
0.0655278
-0.00714457
0.0672383
-0.00554825
0.0686416
-0.00425993
0.0697857
-0.00323275
0.0707163
-0.00242084
0.0714743
-0.00177939
0.0720948
-0.00127149
0.0726076
-0.000856099
0.0730365
-0.000502835
0.0733996
-0.000162427
0.0736833
6.80692e-05
0.0739143
6.64887e-05
0.0741108
1.39816e-05
0.0742862
-1.02468e-05
0.0744467
-1.24018e-05
0.0745946
1.08803e-05
0.0747305
5.79281e-05
0.0748543
0.000132757
0.0749649
0.000236089
0.0750612
0.000371647
0.075142
0.000542077
0.075207
0.000748634
0.075253
0.00102464
0.0752843
0.00133531
0.0753063
0.00168886
0.075328
0.00208096
0.0753499
0.00264029
0.0753988
0.00316691
0.075494
0.00380947
0.00443631
0.0756615
0.0163771
-0.068512
-0.00581549
0.0259489
-0.0603263
0.0345031
-0.0516163
0.0420925
-0.0441989
0.0487946
-0.0376131
0.0546988
-0.0317949
0.059892
-0.0266755
0.0644503
-0.022194
0.0684371
-0.0183017
0.071902
-0.0149453
0.0748902
-0.012087
0.0774534
-0.00970775
0.0796351
-0.00773
0.0814795
-0.00610436
0.0830311
-0.00478428
0.0843333
-0.00372301
0.0854272
-0.00287333
0.0863501
-0.00219444
0.0871348
-0.00164075
0.0878089
-0.00117698
0.0883978
-0.000751291
0.0888696
-0.000403723
0.089262
-0.000325954
0.0895967
-0.000320693
0.0898908
-0.000304368
0.090155
-0.000276624
0.0903953
-0.000229425
0.090615
-0.000161766
0.090816
-6.81915e-05
0.0909991
5.29804e-05
0.0911649
0.000205886
0.0913139
0.000393034
0.0914475
0.000615075
0.0915643
0.000907829
0.0916706
0.00122901
0.0917736
0.00158582
0.0918834
0.00197116
0.0920009
0.00252276
0.092152
0.00301588
0.092351
0.00361039
0.00416879
0.0926186
0.0192848
-0.0812427
-0.00655409
0.0307953
-0.0718368
0.0410509
-0.0618719
0.0501069
-0.0532549
0.0580559
-0.0455621
0.0650113
-0.0387504
0.0710905
-0.0327547
0.0764037
-0.0275073
0.0810479
-0.0229459
0.0851022
-0.0189995
0.0886329
-0.0156177
0.0917055
-0.0127803
0.0943709
-0.0103954
0.0966755
-0.0084089
0.0986626
-0.00677138
0.100374
-0.00543416
0.101848
-0.00434804
0.103124
-0.00346959
0.104233
-0.00275019
0.105207
-0.00215068
0.106071
-0.00161556
0.106777
-0.00111005
0.107373
-0.000921488
0.107884
-0.000832142
0.108334
-0.0007536
0.108736
-0.000679129
0.109102
-0.000595822
0.10944
-0.00049925
0.109754
-0.000381903
0.110047
-0.000240844
0.110325
-7.11752e-05
0.110588
0.000129676
0.110841
0.000361878
0.111084
0.000664809
0.111325
0.000988225
0.111571
0.0013392
0.111834
0.00170839
0.112111
0.00224559
0.112427
0.00270079
0.112788
0.00324886
0.00374649
0.11321
0.0227455
-0.0966262
-0.00736203
0.0366313
-0.0857226
0.048978
-0.0742186
0.0598449
-0.0641219
0.0693419
-0.0550591
0.077607
-0.0470155
0.0847877
-0.0399354
0.0910275
-0.0337471
0.096458
-0.0283764
0.101192
-0.0237336
0.105325
-0.019751
0.108946
-0.0164013
0.112124
-0.0135727
0.114915
-0.0112002
0.11737
-0.00922666
0.119533
-0.0075975
0.121445
-0.0062594
0.123141
-0.00516552
0.124655
-0.00426429
0.126018
-0.00351363
0.127258
-0.00285623
0.128297
-0.00214863
0.129191
-0.00181583
0.129972
-0.00161262
0.130664
-0.00144608
0.131289
-0.00130343
0.13186
-0.00116686
0.132389
-0.0010281
0.132884
-0.000876937
0.133351
-0.000708608
0.133797
-0.000517097
0.134226
-0.000299382
0.134644
-5.54825e-05
0.135051
0.000257292
0.135458
0.000581657
0.135872
0.00092501
0.136304
0.00127678
0.136751
0.00179811
0.137235
0.00221662
0.137762
0.00272173
0.00316544
0.138343
0.026871
-0.115251
-0.00824611
0.0436624
-0.102514
0.058572
-0.0891282
0.0716654
-0.0772153
0.083073
-0.0664667
0.0929612
-0.0569037
0.10151
-0.0484841
0.108898
-0.041135
0.115293
-0.0347711
0.120843
-0.0292836
0.125677
-0.0245856
0.129913
-0.0206373
0.133644
-0.0173039
0.136949
-0.0145043
0.13989
-0.0121678
0.142522
-0.0102295
0.14489
-0.00862793
0.147035
-0.00731013
0.14899
-0.00621982
0.150788
-0.00531085
0.152454
-0.004523
0.153877
-0.00357152
0.155123
-0.00306139
0.156224
-0.00271435
0.157212
-0.00243336
0.158108
-0.00219998
0.158933
-0.00199177
0.159702
-0.00179659
0.160426
-0.00160138
0.161117
-0.00139927
0.161783
-0.00118296
0.162432
-0.00094857
0.163072
-0.000695817
0.163707
-0.000377723
0.164347
-5.79099e-05
0.165
0.00027219
0.165675
0.000601553
0.166369
0.00110432
0.167099
0.00148618
0.167869
0.00195208
0.00234947
0.168685
0.0317992
-0.137836
-0.00921434
0.0521431
-0.122858
0.0701903
-0.107175
0.0860155
-0.0930405
0.0997739
-0.0802251
0.111666
-0.0687956
0.121909
-0.0587275
0.130722
-0.0499482
0.138313
-0.0423613
0.144867
-0.0358382
0.150552
-0.0302708
0.155518
-0.0256026
0.159887
-0.0216732
0.163764
-0.0183813
0.167234
-0.0156383
0.170369
-0.0133641
0.173226
-0.0114849
0.175854
-0.00993794
0.178293
-0.00865925
0.180579
-0.00759676
0.182742
-0.00668628
0.184629
-0.00545797
0.186313
-0.00474549
0.187829
-0.00423057
0.189209
-0.0038128
0.190478
-0.00346881
0.191658
-0.00317191
0.192767
-0.00290623
0.193822
-0.0026557
0.194833
-0.00241104
0.195814
-0.00216311
0.196772
-0.00190668
0.197716
-0.0016405
0.198652
-0.00131372
0.199589
-0.000994751
0.200535
-0.000673687
0.201498
-0.000361527
0.202476
0.000126892
0.203483
0.000479126
0.204521
0.000913354
0.0012733
0.205597
0.0341799
-0.162671
-0.00934529
0.0565394
-0.145217
0.0763619
-0.126998
0.0937263
-0.110405
0.108802
-0.0953009
0.121808
-0.0818011
0.132982
-0.0699017
0.142565
-0.059531
0.150785
-0.0505817
0.157853
-0.042906
0.163955
-0.0363734
0.169262
-0.0309088
0.173914
-0.026326
0.178035
-0.0225018
0.181725
-0.019328
0.185068
-0.0167072
0.188134
-0.0145506
0.190979
-0.0127831
0.19365
-0.0113308
0.196187
-0.0101335
0.198622
-0.00912104
0.200779
-0.00761522
0.202734
-0.00669981
0.204517
-0.00601391
0.206159
-0.00545451
0.207684
-0.00499424
0.209115
-0.00460293
0.21047
-0.00426149
0.211766
-0.0039512
0.213015
-0.00366051
0.214231
-0.00337849
0.215422
-0.00309847
0.2166
-0.00281807
0.217769
-0.00248277
0.218939
-0.00216453
0.220117
-0.00185175
0.22131
-0.00155496
0.222516
-0.00107914
0.223747
-0.00075155
0.225003
-0.000342621
-1.17573e-05
0.226288
0.0361045
-0.189434
-0.00934127
0.0601914
-0.169304
0.0815363
-0.148343
0.100222
-0.129091
0.116431
-0.111509
0.130396
-0.0957662
0.142374
-0.0818797
0.152623
-0.06978
0.16139
-0.0593486
0.168902
-0.0504181
0.175364
-0.0428353
0.180959
-0.0365042
0.185846
-0.0312127
0.190159
-0.0268152
0.194013
-0.0231825
0.197505
-0.0201986
0.200713
-0.0177587
0.203703
-0.0157737
0.206531
-0.0141581
0.20924
-0.0128424
0.211867
-0.0117489
0.214226
-0.00997379
0.21639
-0.00886357
0.218388
-0.00801246
0.220249
-0.00731514
0.221995
-0.00674077
0.223649
-0.00625614
0.225226
-0.0058393
0.226744
-0.00546908
0.228216
-0.00513178
0.229652
-0.00481464
0.231063
-0.00450943
0.232457
-0.00421251
0.233841
-0.0038664
0.235221
-0.00354493
0.236604
-0.00323505
0.237996
-0.00294667
0.239395
-0.00247791
0.240809
-0.002166
0.24224
-0.00177363
-0.00146212
0.243691
0.0382605
-0.218299
-0.00939505
0.0642317
-0.195275
0.0872399
-0.171351
0.107373
-0.149224
0.124827
-0.128963
0.139853
-0.110792
0.152725
-0.0947522
0.163722
-0.0807771
0.17311
-0.0687362
0.181133
-0.0584417
0.188014
-0.0497165
0.193952
-0.0424417
0.199118
-0.0363788
0.203662
-0.0313586
0.207709
-0.0272299
0.211368
-0.0238572
0.214727
-0.0211183
0.217863
-0.018909
0.220836
-0.0171313
0.223698
-0.0157048
0.226493
-0.0145436
0.229023
-0.012504
0.231364
-0.0112047
0.233545
-0.0101932
0.235591
-0.0093615
0.237526
-0.0086756
0.239369
-0.00809935
0.241138
-0.00760815
0.242848
-0.00717852
0.244511
-0.00679469
0.246138
-0.00644213
0.24774
-0.00611109
0.249324
-0.00579661
0.250896
-0.00543878
0.252464
-0.0051124
0.254032
-0.00480316
0.255605
-0.00452029
0.257184
-0.00405663
0.258775
-0.00375657
0.260378
-0.00337689
-0.00308044
0.261996
0.040653
-0.249453
-0.00949918
0.068677
-0.223299
0.0934991
-0.196173
0.115214
-0.170939
0.134031
-0.14778
0.150221
-0.126981
0.16408
-0.108611
0.175906
-0.0926037
0.185987
-0.0788167
0.194586
-0.067041
0.201944
-0.0570742
0.208274
-0.048772
0.213764
-0.0418689
0.218576
-0.0361703
0.222848
-0.0315022
0.226699
-0.0277081
0.230228
-0.0246475
0.23352
-0.0222004
0.236643
-0.020255
0.239658
-0.0187194
0.242613
-0.0174984
0.245304
-0.0151957
0.247811
-0.0137114
0.250161
-0.0125434
0.252381
-0.0115812
0.254492
-0.0107871
0.256515
-0.0101221
0.258466
-0.00955893
0.260359
-0.00907169
0.262207
-0.00864257
0.26402
-0.00825526
0.265808
-0.00789844
0.267577
-0.00756576
0.269333
-0.00719547
0.271083
-0.00686238
0.272831
-0.00655108
0.274581
-0.00627008
0.276333
-0.00580896
0.278093
-0.00551591
0.27986
-0.00514423
-0.00485723
0.281637
0.0432926
-0.283097
-0.00964874
0.0735514
-0.253558
0.100349
-0.222971
0.123788
-0.194378
0.144094
-0.168086
0.161559
-0.144446
0.1765
-0.123553
0.18924
-0.105344
0.200087
-0.0896638
0.209327
-0.0762807
0.217218
-0.0649651
0.223991
-0.0555451
0.229848
-0.0477264
0.234966
-0.041288
0.239495
-0.0360313
0.243565
-0.0317776
0.247284
-0.0283672
0.250747
-0.0256628
0.25403
-0.0235383
0.2572
-0.0218895
0.260313
-0.0206108
0.263159
-0.0180418
0.26582
-0.0163725
0.268326
-0.0150492
0.270702
-0.013958
0.272973
-0.0130574
0.275156
-0.0123054
0.277269
-0.0116716
0.279325
-0.011128
0.281337
-0.0106544
0.283314
-0.0102328
0.285266
-0.00985031
0.2872
-0.00949913
0.28912
-0.00911601
0.291033
-0.00877524
0.292942
-0.00846044
0.294852
-0.00817939
0.296762
-0.00771969
0.298678
-0.00743122
0.300599
-0.00706529
-0.00678518
0.302527
0.0461939
-0.31945
-0.00984068
0.078885
-0.286249
0.107835
-0.251921
0.133153
-0.219697
0.155084
-0.190017
0.17394
-0.163302
0.190067
-0.139679
0.203809
-0.119086
0.2155
-0.101354
0.225447
-0.0862276
0.233929
-0.0734471
0.241195
-0.0628111
0.247463
-0.0539951
0.252925
-0.0467495
0.257743
-0.0408496
0.262059
-0.0360932
0.265991
-0.0322998
0.269643
-0.0293141
0.273099
-0.0269945
0.276433
-0.0252236
0.279707
-0.023885
0.282708
-0.0210427
0.285521
-0.0191856
0.288178
-0.0177057
0.290705
-0.0164854
0.293127
-0.0154789
0.295462
-0.0146407
0.297728
-0.0139375
0.299938
-0.0133385
0.302105
-0.0128214
0.304239
-0.0123663
0.306347
-0.0119584
0.308437
-0.0115887
0.310513
-0.0111928
0.312582
-0.0108437
0.314646
-0.0105243
0.316708
-0.0102416
0.318771
-0.00978245
0.320836
-0.00949633
0.322905
-0.00913405
-0.00885818
0.324978
0.0493749
-0.358752
-0.0100732
0.0847139
-0.321588
0.116007
-0.283214
0.143373
-0.247063
0.167075
-0.213719
0.187452
-0.183679
0.204873
-0.157101
0.219713
-0.133926
0.232329
-0.113971
0.243054
-0.096952
0.252187
-0.0825808
0.259999
-0.0706223
0.266723
-0.0607198
0.272567
-0.0525933
0.277707
-0.0459899
0.282297
-0.0406824
0.286465
-0.0364682
0.290323
-0.0331725
0.293966
-0.0306375
0.297474
-0.0287314
0.300916
-0.0273264
0.304073
-0.0242001
0.307036
-0.0221488
0.309839
-0.0205083
0.31251
-0.0191562
0.315073
-0.0180424
0.31755
-0.0171173
0.319957
-0.0163444
0.322308
-0.01569
0.324616
-0.0151294
0.326891
-0.0146408
0.32914
-0.0142076
0.33137
-0.0138192
0.333588
-0.0134103
0.335797
-0.0130525
0.338
-0.0127278
0.340201
-0.0124423
0.342402
-0.0119833
0.344603
-0.0116981
0.346808
-0.0113383
-0.0110652
0.349015
0.052857
-0.401264
-0.0103454
0.0910791
-0.35981
0.124924
-0.317059
0.154521
-0.27666
0.180155
-0.239352
0.202191
-0.205715
0.221027
-0.175937
0.237067
-0.149966
0.250697
-0.1276
0.262274
-0.108529
0.272124
-0.0924306
0.280536
-0.0790336
0.287763
-0.0679474
0.294029
-0.0588591
0.299525
-0.0514858
0.304416
-0.0455735
0.308843
-0.0408957
0.312928
-0.0372571
0.316773
-0.034482
0.320465
-0.0324237
0.32408
-0.0309419
0.327398
-0.0275176
0.330512
-0.025263
0.333459
-0.0234552
0.33627
-0.0219669
0.33897
-0.0207426
0.341581
-0.0197285
0.344121
-0.0188846
0.346605
-0.018174
0.349045
-0.0175696
0.351452
-0.0170472
0.353833
-0.0165884
0.356195
-0.0161812
0.358544
-0.0157593
0.360884
-0.0153925
0.363218
-0.0150619
0.365548
-0.0147729
0.367879
-0.0143139
0.37021
-0.0140288
0.372542
-0.0136706
-0.013399
0.374876
0.056665
-0.447271
-0.0106572
0.0980276
-0.401173
0.134653
-0.353684
0.166683
-0.308689
0.194423
-0.267093
0.218269
-0.22956
0.238651
-0.196319
0.256003
-0.167319
0.270742
-0.142339
0.283254
-0.121041
0.293889
-0.103066
0.302959
-0.0881036
0.310739
-0.0757273
0.317468
-0.0655886
0.323355
-0.0573722
0.328576
-0.0507953
0.333287
-0.0456059
0.337616
-0.0415864
0.341676
-0.0385424
0.345563
-0.0363108
0.349359
-0.0347378
0.35284
-0.0309984
0.356105
-0.0285285
0.359194
-0.0265443
0.36214
-0.0249128
0.364971
-0.0235729
0.367708
-0.0224663
0.370373
-0.0215486
0.372979
-0.02078
0.375539
-0.0201304
0.378065
-0.0195731
0.380565
-0.0190881
0.383045
-0.0186614
0.385512
-0.018226
0.387969
-0.0178497
0.39042
-0.0175128
0.392867
-0.0172197
0.395314
-0.0167606
0.39776
-0.0164747
0.400207
-0.0161177
-0.0158467
0.402655
0.0608269
-0.497089
-0.0110089
0.105612
-0.445958
0.145269
-0.393341
0.179951
-0.343371
0.209989
-0.297132
0.235811
-0.255382
0.257881
-0.218389
0.276668
-0.186105
0.29262
-0.158291
0.306155
-0.134576
0.31765
-0.114561
0.327442
-0.0978953
0.335827
-0.0841124
0.343064
-0.0728258
0.349377
-0.0636856
0.35496
-0.0563777
0.359976
-0.0506227
0.364569
-0.0461794
0.36886
-0.0428327
0.372951
-0.0404022
0.376933
-0.0387198
0.38058
-0.0346452
0.383997
-0.0319452
0.387226
-0.0297731
0.390302
-0.0279896
0.393257
-0.0265275
0.396114
-0.0253231
0.398893
-0.0243279
0.401611
-0.0234984
0.404282
-0.0228013
0.406917
-0.0222077
0.409524
-0.0216952
0.412111
-0.0212481
0.414684
-0.0207988
0.417246
-0.0204125
0.419802
-0.0200688
0.422354
-0.0197711
0.424905
-0.0193119
0.427455
-0.0190248
0.430006
-0.0186685
-0.0183977
0.432557
0.0653745
-0.551062
-0.0114015
0.113893
-0.494476
0.156855
-0.436304
0.194431
-0.380946
0.226978
-0.329679
0.254958
-0.283362
0.278873
-0.242304
0.299228
-0.20646
0.316507
-0.175571
0.331161
-0.14923
0.343598
-0.126997
0.354179
-0.108477
0.363227
-0.0931596
0.371019
-0.0806179
0.377797
-0.0704644
0.383771
-0.0623516
0.389119
-0.0559707
0.393995
-0.0510545
0.398528
-0.0473662
0.402832
-0.0447066
0.407005
-0.042892
0.410819
-0.0384593
0.414385
-0.0355117
0.41775
-0.0331377
0.420952
-0.0311913
0.424022
-0.0295982
0.426988
-0.0282894
0.429872
-0.0272114
0.43269
-0.0263169
0.435459
-0.0255694
0.438188
-0.0249371
0.440888
-0.0243953
0.443566
-0.0239264
0.44623
-0.0234622
0.448882
-0.0230651
0.451527
-0.0227139
0.454167
-0.0224109
0.456807
-0.0219515
0.459445
-0.0216628
0.462083
-0.021307
-0.0210359
0.464722
0.0703433
-0.609569
-0.0118363
0.122935
-0.547068
0.169506
-0.482875
0.210241
-0.421681
0.245529
-0.364967
0.275867
-0.3137
0.301798
-0.268235
0.323868
-0.22853
0.3426
-0.194302
0.358479
-0.165109
0.371945
-0.140464
0.383391
-0.119923
0.393162
-0.102931
0.40156
-0.0890153
0.408845
-0.0777497
0.415243
-0.0687497
0.420947
-0.0616748
0.426123
-0.0562304
0.430913
-0.0521557
0.435437
-0.0492312
0.439802
-0.0472567
0.443783
-0.0424401
0.447495
-0.0392245
0.45099
-0.0366322
0.454308
-0.0345096
0.457485
-0.0327752
0.46055
-0.0313537
0.463525
-0.0301865
0.46643
-0.029222
0.46928
-0.02842
0.472089
-0.0277458
0.474866
-0.0271724
0.47762
-0.0266799
0.480357
-0.0261995
0.483083
-0.0257907
0.4858
-0.0254312
0.488511
-0.0251223
0.491222
-0.0246627
0.493931
-0.0243718
0.496641
-0.0240165
-0.0237447
0.49935
0.0757733
-0.673028
-0.0123149
0.132813
-0.604108
0.183326
-0.533388
0.227513
-0.465867
0.265795
-0.40325
0.298712
-0.346617
0.326849
-0.296372
0.350796
-0.252477
0.371118
-0.214624
0.388338
-0.182329
0.402933
-0.155058
0.415324
-0.132314
0.425886
-0.113492
0.434943
-0.0980728
0.442778
-0.085585
0.449635
-0.0756061
0.455721
-0.067761
0.461216
-0.0617253
0.466273
-0.0572125
0.471023
-0.0539815
0.47558
-0.0518137
0.479724
-0.0465843
0.483577
-0.0430773
0.487193
-0.0402477
0.490617
-0.0379337
0.493887
-0.0360455
0.497035
-0.0345013
0.500085
-0.033237
0.503059
-0.0321961
0.505974
-0.0313347
0.508843
-0.0306148
0.511677
-0.0300067
0.514485
-0.0294881
0.517276
-0.0289899
0.520053
-0.0285679
0.522821
-0.0281991
0.525582
-0.0278834
0.528343
-0.0274233
0.531101
-0.0271299
0.533859
-0.0267749
-0.0265023
0.536617
0.0817095
-0.741898
-0.0128394
0.143611
-0.666009
0.198432
-0.58821
0.246393
-0.513828
0.287952
-0.444808
0.323691
-0.382356
0.354243
-0.326924
0.380245
-0.278479
0.402308
-0.236687
0.420997
-0.201019
0.436827
-0.170888
0.450253
-0.14574
0.461678
-0.124917
0.471454
-0.107849
0.479887
-0.0940174
0.487238
-0.0829569
0.493732
-0.0742558
0.499564
-0.0675572
0.504899
-0.0625472
0.509878
-0.0589609
0.514624
-0.0565599
0.518926
-0.0508857
0.522909
-0.0470607
0.526633
-0.043972
0.530149
-0.0414487
0.533495
-0.0393924
0.536708
-0.0377139
0.539814
-0.036343
0.542836
-0.0352182
0.545793
-0.0342914
0.548699
-0.033521
0.551567
-0.0328743
0.554405
-0.0323268
0.557224
-0.0318085
0.560028
-0.0313717
0.562821
-0.0309923
0.565607
-0.0306688
0.568391
-0.030208
0.571173
-0.0299116
0.573955
-0.0295567
-0.029283
0.576736
0.0882018
-0.816688
-0.0134121
0.155422
-0.733229
0.214956
-0.647745
0.267048
-0.565919
0.312193
-0.489953
0.351022
-0.421185
0.384219
-0.360122
0.412474
-0.306734
0.436446
-0.260658
0.456746
-0.221318
0.473928
-0.18807
0.488486
-0.160298
0.500855
-0.137286
0.511415
-0.118409
0.520495
-0.103097
0.528378
-0.0908403
0.535309
-0.0811865
0.541495
-0.0737438
0.547117
-0.0681684
0.552326
-0.0641699
0.557254
-0.0614886
0.561703
-0.0553341
0.565803
-0.051161
0.569619
-0.0477884
0.573206
-0.0450356
0.576608
-0.0427944
0.579862
-0.040968
0.582999
-0.0394795
0.586043
-0.0382619
0.589014
-0.0372624
0.591928
-0.0364358
0.5948
-0.0357461
0.597639
-0.035166
0.600456
-0.0346249
0.603255
-0.0341712
0.606042
-0.0337795
0.608821
-0.033447
0.611597
-0.0329849
0.614371
-0.0326849
0.617144
-0.03233
-0.032055
0.619916
0.0953065
-0.897959
-0.0140356
0.168349
-0.806271
0.233045
-0.712441
0.28966
-0.622535
0.338735
-0.539028
0.380951
-0.463401
0.41705
-0.396221
0.447776
-0.33746
0.473842
-0.286724
0.495908
-0.243384
0.514573
-0.206736
0.530371
-0.176096
0.543771
-0.150686
0.555184
-0.129822
0.564966
-0.112879
0.573422
-0.099297
0.580817
-0.0885813
0.587375
-0.080302
0.59329
-0.0740831
0.598726
-0.0696062
0.603827
-0.0665887
0.608407
-0.059915
0.612606
-0.0553598
0.616493
-0.051675
0.620127
-0.0486694
0.623557
-0.0462243
0.626823
-0.0442344
0.629959
-0.0426154
0.632992
-0.0412946
0.635943
-0.040214
0.638832
-0.0393243
0.641672
-0.0385861
0.644475
-0.0379692
0.647252
-0.0374021
0.65001
-0.0369289
0.652753
-0.036523
0.655486
-0.03618
0.658217
-0.035716
0.660944
-0.0354117
0.663671
-0.0350564
-0.03478
0.666396
0.103086
-0.986332
-0.0147128
0.182509
-0.885694
0.252863
-0.782794
0.314438
-0.68411
0.367823
-0.592412
0.413756
-0.509334
0.453039
-0.435504
0.486478
-0.370899
0.514842
-0.315088
0.538847
-0.267389
0.559139
-0.227028
0.576295
-0.193252
0.590823
-0.165214
0.603165
-0.142165
0.613708
-0.123421
0.622781
-0.10837
0.630669
-0.0964692
0.637615
-0.0872482
0.643828
-0.0802958
0.649485
-0.0752637
0.65474
-0.071844
0.659433
-0.0646081
0.663706
-0.0596325
0.667635
-0.0556038
0.671284
-0.0523189
0.674708
-0.0496481
0.67795
-0.0474766
0.681047
-0.0457124
0.684029
-0.0442763
0.68692
-0.0431048
0.689739
-0.042144
0.692504
-0.0413509
0.695227
-0.0406919
0.69792
-0.0400948
0.70059
-0.0395991
0.703243
-0.0391767
0.705885
-0.0388213
0.708523
-0.0383545
0.711157
-0.038045