/*--------------------------------*- C++ -*----------------------------------*\
| =========                 |                                                 |
| \\      /  F ield         | OpenFOAM: The Open Source CFD Toolbox           |
|  \\    /   O peration     | Version:  2312                                  |
|   \\  /    A nd           | Website:  www.openfoam.com                      |
|    \\/     M anipulation  |                                                 |
\*---------------------------------------------------------------------------*/
FoamFile
{
    version     2.0;
    format      ascii;
    arch        "LSB;label=32;scalar=64";
    class       volScalarField;
    location    "248";
    object      turbulenceProperties:I;
}
// * * * * * * * * * * * * * * * * * * * * * * * * * * * * * * * * * * * * * //

dimensions      [0 0 0 0 0 0 0];

internalField   nonuniform List<scalar> 
11040
(
0.0885063
0.0682621
0.079131
0.101001
0.131039
0.168843
0.208121
0.237253
0.252957
0.259352
0.261163
0.261138
0.26049
0.259751
0.259171
0.258858
0.258841
0.259099
0.259612
0.260361
0.261451
0.262643
0.263483
0.263952
0.264312
0.264725
0.265235
0.265831
0.266516
0.267301
0.268212
0.269284
0.270566
0.272139
0.274125
0.276679
0.280074
0.284705
0.291888
0.301533
0.331628
0.0450173
0.0284383
0.0228336
0.0194655
0.0176866
0.0186715
0.0227636
0.0281496
0.0333687
0.0381452
0.0424499
0.0463227
0.0498157
0.0530099
0.0559831
0.0587905
0.0614738
0.0640583
0.0665941
0.069139
0.0718921
0.0746728
0.0769735
0.0786785
0.0800409
0.0812945
0.0825405
0.0838072
0.0851228
0.0865224
0.0880504
0.089763
0.0917266
0.094044
0.0968705
0.1004
0.104976
0.110995
0.120144
0.131425
0.165524
0.0319804
0.0212517
0.0132523
0.0106237
0.0105269
0.0102688
0.00975082
0.00912589
0.00851625
0.00800504
0.0074451
0.00675505
0.00635324
0.00889208
0.0130325
0.0174965
0.022083
0.0267177
0.0313505
0.0359354
0.0405026
0.0449491
0.0490145
0.0525562
0.0556113
0.0583008
0.0607066
0.0628949
0.0649275
0.0668638
0.0687564
0.0706586
0.0726257
0.0747227
0.077044
0.0796973
0.082907
0.0867851
0.0926652
0.0987477
0.119872
0.0224604
0.0184973
0.0146698
0.0122378
0.0106161
0.00938178
0.00837951
0.00753281
0.00677997
0.00608144
0.00541791
0.00474511
0.00406594
0.00340719
0.00283774
0.00254814
0.00291653
0.00392888
0.00543524
0.00741951
0.00995578
0.0129098
0.0159666
0.0190248
0.0220863
0.0251563
0.0282254
0.0312766
0.0343045
0.0373124
0.0403142
0.0433346
0.0464065
0.049589
0.0529616
0.0566129
0.0607102
0.0653923
0.0715632
0.0778897
0.0938308
0.0164325
0.0150256
0.0127327
0.0103695
0.00829875
0.00678136
0.00589196
0.00547276
0.00527075
0.00512636
0.00498342
0.00481759
0.00463257
0.0044297
0.00421457
0.00399641
0.00377791
0.00355905
0.00333877
0.00311638
0.00288784
0.00262723
0.0023164
0.00201961
0.00230444
0.00335859
0.00471016
0.00624554
0.00794802
0.00981759
0.0118658
0.0141152
0.0165945
0.0193586
0.0224783
0.0260405
0.0301781
0.0350879
0.0414196
0.0482714
0.0628023
0.0123297
0.0119639
0.0109962
0.00976442
0.00854176
0.00751217
0.00669175
0.00603782
0.00550731
0.00506693
0.00469087
0.00435601
0.004046
0.00374541
0.00343973
0.00313482
0.0028395
0.00256223
0.00231383
0.00211389
0.00197439
0.00188198
0.00181149
0.00176316
0.00174211
0.00173635
0.00173819
0.00174943
0.00177874
0.00184085
0.00195917
0.00216876
0.00251768
0.0030755
0.00393177
0.00519599
0.0069852
0.00947048
0.0131488
0.0174395
0.0276896
0.00949496
0.00948614
0.00912395
0.00851569
0.00768573
0.00679557
0.00596619
0.00525463
0.00468135
0.00424283
0.00392386
0.00370108
0.00354875
0.00344428
0.00336445
0.00328962
0.00321252
0.00313298
0.0030521
0.00297063
0.00288636
0.00278854
0.00267702
0.00257229
0.00249047
0.00242733
0.00237572
0.00233285
0.00229727
0.00226692
0.00223938
0.00221193
0.00218157
0.00214575
0.00210333
0.00206189
0.0020403
0.00208805
0.00244845
0.00292812
0.00669099
0.0074426
0.00754975
0.00744976
0.00724866
0.00685686
0.00634482
0.00581195
0.00531668
0.00487975
0.00450243
0.00417742
0.00389521
0.00364851
0.00343209
0.00323855
0.00305838
0.0028865
0.00272398
0.00257175
0.00243001
0.00229932
0.00217865
0.00206906
0.00197907
0.00191804
0.00188444
0.00187177
0.00187559
0.00189389
0.00192516
0.00196798
0.00202105
0.00208288
0.00215192
0.00222445
0.00229408
0.00234915
0.00236302
0.0023429
0.00211201
0.00205372
0.00591523
0.0060532
0.00604064
0.00602466
0.00588561
0.00561624
0.00526686
0.00488642
0.00450998
0.00415837
0.00384258
0.00356601
0.00332915
0.00313242
0.00297487
0.00285408
0.00276408
0.0026958
0.00264068
0.00259282
0.00254585
0.00249426
0.00243671
0.00237878
0.00233031
0.0022939
0.00226675
0.00224695
0.00223436
0.00222931
0.00223205
0.00224298
0.00226262
0.00229192
0.00233159
0.00238242
0.00244334
0.00250904
0.00257958
0.00259388
0.00253997
0.00474771
0.00488764
0.0048968
0.00495232
0.0049509
0.0048593
0.00469286
0.004478
0.00423997
0.00399933
0.00376914
0.00355482
0.00335803
0.00317962
0.00301923
0.002875
0.0027441
0.00262305
0.00250979
0.00240347
0.00230478
0.00221418
0.0021299
0.0020538
0.00199163
0.00194561
0.00191398
0.0018947
0.001887
0.00189075
0.00190576
0.00193179
0.00196853
0.00201599
0.0020739
0.00214169
0.00221832
0.00230109
0.00239226
0.00246535
0.0025421
0.00383896
0.00397056
0.00397969
0.00405147
0.00410618
0.00410758
0.00405412
0.00395241
0.00381348
0.00365118
0.00347855
0.00330477
0.00313597
0.00297722
0.00283182
0.00270188
0.00258866
0.00249268
0.00241326
0.00234772
0.00229146
0.00224176
0.00219681
0.00215584
0.00212188
0.0020969
0.00208015
0.00207003
0.00206557
0.0020664
0.00207227
0.00208294
0.00209818
0.00211767
0.002141
0.00216744
0.00219593
0.00222344
0.00224989
0.00226003
0.00227458
0.00312111
0.00324038
0.00324492
0.00331236
0.00338266
0.00342614
0.00343783
0.00341615
0.00336251
0.00328248
0.00318436
0.00307548
0.00296169
0.00284779
0.00273726
0.00263232
0.00253412
0.00244271
0.00235737
0.00227678
0.00220118
0.00213242
0.00207001
0.00201298
0.00196299
0.00192168
0.00188917
0.00186475
0.00184785
0.00183825
0.00183579
0.00184026
0.00185134
0.00186867
0.00189166
0.00191905
0.00194906
0.00197922
0.00200636
0.00202073
0.00202941
0.00254801
0.00265362
0.00265415
0.00271114
0.00277894
0.00283468
0.00287467
0.00289523
0.00289321
0.00286839
0.00282377
0.00276337
0.00269141
0.00261214
0.00252938
0.00244636
0.00236564
0.00228909
0.00221802
0.00215309
0.00209444
0.00204342
0.00199984
0.00196194
0.00193011
0.00190498
0.00188648
0.00187387
0.00186628
0.00186303
0.00186343
0.0018668
0.00187241
0.00187933
0.00188649
0.00189268
0.00189634
0.00189541
0.00188767
0.00186809
0.00184413
0.00208657
0.00217822
0.00217657
0.0022228
0.00228191
0.00233646
0.00238472
0.00242388
0.0024501
0.00246095
0.00245633
0.00243744
0.00240623
0.00236526
0.00231721
0.00226462
0.00220966
0.00215404
0.00209896
0.00204504
0.00199312
0.0019452
0.00190162
0.00186143
0.0018251
0.00179311
0.0017656
0.00174237
0.00172306
0.00170732
0.00169488
0.00168542
0.00167857
0.00167392
0.00167087
0.00166856
0.00166589
0.00166183
0.00165448
0.00164039
0.00162486
0.00171241
0.00179037
0.00178827
0.00182523
0.00187446
0.00192264
0.00196927
0.00201276
0.00204988
0.00207793
0.00209548
0.00210207
0.00209795
0.00208401
0.00206161
0.00203239
0.00199811
0.00196041
0.00192075
0.00188027
0.00183991
0.00180212
0.00176815
0.00173735
0.00170997
0.00168621
0.00166611
0.00164944
0.00163589
0.00162505
0.00161647
0.00160953
0.00160353
0.00159762
0.00159088
0.00158249
0.00157152
0.00155685
0.00153744
0.00151145
0.00148473
0.00140761
0.00147258
0.00147121
0.00150062
0.0015406
0.00158109
0.00162224
0.00166324
0.00170184
0.00173587
0.00176379
0.00178464
0.00179785
0.00180331
0.00180136
0.00179271
0.0017783
0.00175918
0.0017364
0.00171093
0.00168366
0.00165659
0.00163078
0.00160589
0.00158225
0.0015601
0.0015395
0.00152036
0.00150253
0.00148576
0.00146975
0.00145418
0.00143876
0.00142323
0.00140736
0.00139086
0.00137341
0.00135486
0.0013346
0.00131195
0.00129001
0.00116076
0.00121359
0.00121379
0.00123725
0.00126912
0.00130221
0.00133683
0.00137256
0.0014079
0.00144127
0.00147144
0.00149746
0.00151854
0.00153414
0.00154401
0.0015482
0.00154703
0.00154099
0.0015307
0.00151682
0.00149984
0.00148138
0.00146278
0.0014441
0.00142579
0.00140816
0.00139136
0.00137542
0.00136032
0.00134597
0.00133222
0.00131888
0.00130574
0.00129243
0.00127862
0.00126396
0.00124803
0.00123039
0.00121072
0.00118868
0.00116682
0.000967438
0.00100953
0.00101135
0.00103052
0.00105602
0.00108297
0.00111171
0.00114193
0.00117259
0.00120262
0.00123112
0.00125737
0.00128067
0.00130044
0.00131627
0.0013279
0.00133529
0.00133854
0.00133788
0.00133366
0.0013261
0.00131627
0.00130513
0.00129282
0.00127975
0.0012662
0.00125231
0.00123817
0.00122378
0.00120911
0.00119408
0.00117858
0.00116253
0.00114579
0.00112824
0.00110987
0.00109075
0.00107088
0.00105019
0.00102904
0.00100815
0.000819134
0.00085282
0.000855513
0.000871509
0.000892314
0.000914547
0.000938533
0.000964012
0.000990221
0.0010164
0.0010419
0.00106616
0.00108864
0.00110882
0.00112625
0.00114061
0.00115168
0.00115935
0.00116364
0.00116464
0.00116233
0.00115736
0.0011505
0.001142
0.00113226
0.0011216
0.00111024
0.00109834
0.001086
0.00107331
0.00106028
0.00104694
0.00103329
0.00101929
0.00100488
0.000990073
0.000974879
0.000959168
0.000942859
0.000926017
0.000909463
0.000703943
0.000730975
0.000734209
0.000747689
0.000764885
0.000783427
0.000803576
0.000825088
0.000847379
0.000869885
0.000892122
0.000913674
0.000934119
0.000953039
0.000970057
0.000984855
0.000997188
0.00100688
0.00101383
0.00101803
0.00101934
0.00101813
0.00101494
0.00100995
0.00100349
0.000995812
0.000987108
0.00097752
0.000967155
0.000956089
0.000944375
0.000932035
0.000919124
0.00090564
0.00089158
0.000876987
0.000862
0.000846582
0.00083072
0.000814626
0.000798546
0.000611873
0.000633655
0.00063713
0.000648519
0.000662858
0.000678452
0.000695483
0.000713717
0.000732692
0.000751971
0.000771178
0.000789991
0.000808081
0.000825112
0.000840771
0.000854778
0.000866898
0.000876933
0.000884737
0.000890233
0.000893209
0.000893843
0.000892534
0.00088942
0.000884785
0.00087886
0.000871835
0.000863872
0.000855112
0.000845668
0.000835639
0.000825098
0.00081414
0.000802799
0.000791118
0.000779173
0.000767084
0.00075478
0.000742317
0.000729699
0.000717732
0.000536765
0.000554385
0.000557922
0.000567581
0.000579641
0.000592865
0.000607357
0.000622894
0.000639098
0.000655619
0.000672156
0.00068845
0.000704241
0.000719259
0.00073325
0.000745981
0.000757246
0.000766861
0.000774681
0.000780606
0.000784426
0.000786224
0.000786282
0.000784697
0.000781688
0.000777443
0.000772117
0.000765851
0.000758766
0.000750966
0.000742539
0.000733554
0.0007241
0.000714219
0.000703948
0.000693349
0.000682567
0.000671537
0.000660336
0.000648795
0.000638142
0.000474419
0.000488709
0.000492175
0.000500388
0.000510599
0.000521887
0.000534287
0.000547588
0.000561475
0.00057566
0.000589892
0.000603959
0.000617648
0.00063074
0.000643026
0.000654313
0.000664424
0.000673198
0.000680496
0.000686218
0.000690157
0.000692345
0.000692991
0.000692162
0.000690029
0.000686749
0.00068246
0.000677293
0.000671367
0.000664787
0.000657651
0.000650036
0.000642041
0.000633716
0.000625112
0.0006163
0.00060741
0.000598373
0.000589299
0.000579913
0.000571822
0.000421929
0.000433535
0.000436846
0.000443849
0.000452548
0.000462241
0.000472908
0.00048435
0.0004963
0.000508516
0.000520784
0.000532924
0.000544762
0.000556113
0.000566808
0.000576685
0.000585597
0.000593407
0.000599995
0.000605268
0.000609048
0.000611349
0.000612334
0.000612047
0.000610625
0.000608193
0.000604868
0.00060076
0.000595971
0.000590592
0.000584706
0.00057838
0.0005717
0.000564712
0.000557457
0.000549988
0.00054243
0.000534714
0.000526962
0.000518736
0.000512111
0.000377198
0.000386628
0.000389728
0.000395715
0.000403167
0.000411534
0.000420753
0.000430639
0.000440962
0.000451514
0.00046211
0.000472597
0.000482824
0.00049264
0.0005019
0.000510472
0.000518231
0.000525062
0.000530864
0.000535553
0.000538977
0.000541142
0.000542183
0.000542128
0.000541084
0.000539158
0.000536446
0.000533044
0.000529043
0.000524524
0.000519564
0.000514227
0.00050859
0.000502699
0.000496594
0.000490327
0.000484006
0.000477567
0.000471137
0.000464256
0.000459129
0.000338679
0.000346337
0.000349197
0.000354331
0.000360748
0.000368004
0.000376009
0.000384588
0.00039354
0.000402686
0.000411863
0.000420937
0.00042978
0.000438263
0.000446264
0.000453673
0.000460386
0.000466307
0.000471351
0.000475449
0.000478472
0.000480433
0.000481448
0.000481534
0.000480779
0.000479273
0.000477096
0.00047433
0.00047105
0.000467327
0.000463226
0.0004588
0.000454115
0.000449211
0.00044412
0.000438884
0.000433596
0.000428198
0.000422815
0.000416922
0.000412914
0.000305209
0.000311418
0.000314027
0.000318444
0.000323997
0.000330321
0.000337301
0.000344776
0.00035257
0.000360523
0.000368493
0.000376362
0.000384019
0.000391353
0.000398262
0.000404651
0.000410436
0.000415535
0.000419879
0.000423409
0.000426021
0.000427729
0.000428638
0.000428758
0.000428162
0.000426924
0.000425112
0.000422796
0.00042004
0.000416904
0.000413444
0.000409708
0.000405752
0.000401609
0.000397312
0.000392895
0.000388436
0.000383885
0.000379361
0.000374363
0.000371222
0.000275893
0.000280916
0.000283276
0.000287091
0.000291922
0.000297459
0.000303573
0.000310114
0.000316925
0.000323865
0.000330808
0.00033765
0.000344293
0.000350642
0.000356611
0.00036212
0.000367097
0.000371476
0.0003752
0.000378221
0.000380454
0.00038192
0.000382714
0.000382842
0.000382366
0.000381348
0.000379848
0.000377922
0.000375627
0.000373012
0.000370124
0.000367006
0.000363701
0.000360241
0.000356651
0.000352959
0.00034923
0.000345423
0.000341645
0.000337404
0.00033498
0.000250036
0.000254086
0.00025621
0.00025952
0.000263747
0.000268618
0.000273998
0.000279745
0.000285721
0.000291799
0.000297867
0.000303832
0.000309609
0.000315116
0.000320279
0.000325032
0.000329313
0.000333069
0.000336252
0.000338826
0.000340719
0.000341957
0.000342628
0.000342737
0.000342332
0.00034147
0.0003402
0.000338569
0.000336626
0.000334412
0.000331968
0.000329327
0.000326529
0.000323599
0.000320559
0.000317432
0.000314272
0.000311045
0.000307847
0.000304234
0.000302308
0.000227088
0.000230341
0.000232247
0.000235136
0.000238856
0.000243164
0.000247919
0.000252992
0.000258256
0.000263599
0.00026892
0.000274136
0.000279174
0.000283963
0.000288438
0.000292544
0.000296231
0.000299453
0.000302174
0.000304364
0.000305965
0.000307006
0.00030757
0.000307658
0.000307313
0.000306582
0.000305509
0.000304134
0.000302496
0.000300633
0.000298576
0.000296356
0.000294004
0.000291542
0.000288988
0.000286363
0.000283708
0.000280998
0.000278317
0.000275258
0.000273759
0.000206609
0.00020921
0.00021092
0.00021346
0.000216755
0.000220586
0.000224811
0.000229308
0.000233965
0.00023868
0.000243363
0.00024794
0.000252347
0.000256522
0.000260411
0.000263966
0.000267147
0.000269917
0.000272245
0.000274108
0.000275461
0.000276334
0.000276804
0.00027687
0.000276568
0.000275941
0.000275025
0.000273855
0.000272463
0.00027088
0.000269134
0.00026725
0.000265253
0.000263164
0.000260997
0.000258769
0.000256514
0.000254211
0.000251933
0.000249328
0.000248116
0.000188244
0.000190314
0.000191852
0.000194105
0.000197045
0.000200472
0.000204245
0.000208251
0.000212389
0.000216566
0.000220703
0.000224734
0.000228602
0.000232254
0.000235644
0.000238732
0.000241484
0.000243871
0.000245869
0.00024746
0.000248607
0.000249342
0.000249735
0.000249786
0.000249526
0.000248992
0.000248214
0.000247222
0.000246045
0.000244707
0.000243233
0.000241643
0.00023996
0.000238198
0.000236373
0.000234495
0.000232594
0.000230654
0.000228736
0.000226535
0.000225573
0.000171704
0.000173343
0.000174735
0.000176753
0.000179397
0.000182482
0.00018587
0.000189457
0.00019315
0.000196867
0.000200536
0.0002041
0.000207507
0.000210713
0.000213679
0.000216371
0.000218761
0.000220826
0.000222547
0.000223911
0.00022489
0.000225512
0.000225845
0.000225887
0.000225664
0.000225209
0.000224547
0.000223705
0.000222706
0.000221572
0.000220322
0.000218974
0.000217547
0.000216053
0.000214504
0.000212912
0.000211297
0.000209649
0.000208019
0.00020615
0.000205356
0.000156749
0.000158042
0.000159314
0.000161142
0.00016354
0.000166335
0.000169394
0.000172622
0.000175934
0.000179256
0.000182525
0.000185688
0.000188702
0.000191528
0.000194133
0.000196489
0.000198575
0.00020037
0.000201861
0.00020304
0.000203882
0.000204417
0.000204706
0.000204747
0.000204563
0.000204181
0.000203626
0.000202919
0.000202079
0.000201126
0.000200075
0.000198942
0.000197742
0.000196486
0.000195184
0.000193845
0.000192486
0.0001911
0.000189728
0.000188155
0.000187517
0.000143182
0.000144201
0.000145376
0.000147054
0.000149248
0.000151796
0.000154575
0.000157494
0.000160478
0.000163461
0.000166385
0.000169206
0.000171884
0.000174386
0.000176685
0.000178758
0.000180587
0.000182157
0.000183459
0.000184485
0.000185218
0.000185685
0.000185942
0.000185987
0.00018584
0.000185524
0.00018506
0.000184467
0.000183762
0.000182959
0.000182074
0.000181119
0.000180106
0.000179045
0.000177945
0.000176813
0.000175663
0.000174489
0.000173326
0.000171999
0.000171456
0.000130838
0.000131644
0.000132746
0.000134305
0.000136329
0.000138669
0.000141206
0.000143859
0.000146561
0.000149251
0.000151879
0.000154404
0.000156795
0.000159021
0.000161061
0.000162895
0.000164509
0.000165893
0.000167039
0.000167943
0.000168592
0.00016901
0.00016925
0.000169309
0.000169203
0.000168955
0.000168582
0.000168099
0.000167521
0.000166861
0.000166131
0.000165341
0.000164503
0.000163623
0.00016271
0.00016177
0.000160813
0.000159837
0.000158868
0.000157762
0.000157341
0.000119579
0.000120225
0.000121275
0.000122742
0.000124624
0.000126784
0.000129112
0.000131535
0.000133991
0.000136428
0.000138799
0.000141071
0.000143214
0.000145206
0.000147025
0.000148658
0.000150094
0.000151323
0.000152342
0.000153148
0.00015373
0.000154111
0.000154338
0.000154408
0.000154336
0.00015414
0.000153837
0.00015344
0.00015296
0.00015241
0.0001518
0.000151139
0.000150436
0.000149698
0.00014893
0.00014814
0.000147334
0.000146512
0.000145693
0.000144771
0.00014438
0.000109288
0.000109819
0.000110837
0.000112234
0.000113996
0.000115998
0.000118142
0.000120362
0.000122603
0.000124819
0.000126968
0.000129021
0.000130952
0.000132741
0.000134374
0.000135837
0.000137124
0.000138228
0.000139146
0.000139879
0.000140418
0.000140783
0.000141019
0.000141122
0.000141105
0.000140984
0.000140772
0.000140479
0.000140117
0.000139695
0.000139221
0.000138702
0.000138146
0.000137559
0.000136947
0.000136312
0.000135664
0.000134999
0.000134339
0.000133581
0.000133341
9.98682e-05
0.000100324
0.000101327
0.00010267
0.000104328
0.000106191
0.000108169
0.000110204
0.00011225
0.000114267
0.00011622
0.000118083
0.000119833
0.000121452
0.000122927
0.000124248
0.00012541
0.000126409
0.000127243
0.000127911
0.000128408
0.000128748
0.000128973
0.000129078
0.000129075
0.00012898
0.000128804
0.000128558
0.000128252
0.000127894
0.000127493
0.000127054
0.000126585
0.00012609
0.000125574
0.000125041
0.000124495
0.00012394
0.00012338
0.000122771
0.000122446
9.12385e-05
9.16521e-05
9.265e-05
9.39474e-05
9.5512e-05
9.72492e-05
9.90787e-05
0.000100947
0.000102814
0.000104646
0.000106416
0.000108104
0.000109691
0.000111164
0.000112509
0.000113718
0.000114785
0.000115708
0.000116488
0.00011713
0.000117631
0.000118005
0.000118287
0.000118474
0.000118573
0.000118595
0.000118549
0.000118441
0.000118279
0.000118068
0.000117815
0.000117524
0.000117202
0.000116853
0.000116481
0.000116088
0.000115682
0.00011526
0.000114841
0.000114332
0.00011431
8.33381e-05
8.37383e-05
8.47377e-05
8.59871e-05
8.74521e-05
8.90595e-05
9.07437e-05
9.246e-05
9.41714e-05
9.5845e-05
9.74541e-05
9.89802e-05
0.000100412
0.00010174
0.00010296
0.000104065
0.000105047
0.000105899
0.000106618
0.0001072
0.00010764
0.000107949
0.000108161
0.000108278
0.00010831
0.000108273
0.000108177
0.000108032
0.000107846
0.000107626
0.000107378
0.000107107
0.000106818
0.000106513
0.000106196
0.000105869
0.000105533
0.000105194
0.000104839
0.000104508
0.000104115
7.6116e-05
7.65312e-05
7.75434e-05
7.87468e-05
8.01021e-05
8.1555e-05
8.30596e-05
8.45908e-05
8.61292e-05
8.76525e-05
8.91352e-05
9.05516e-05
9.18796e-05
9.3104e-05
9.42191e-05
9.52276e-05
9.6137e-05
9.69562e-05
9.76926e-05
9.83508e-05
9.8928e-05
9.94278e-05
9.987e-05
0.000100244
0.000100548
0.000100785
0.000100958
0.000101069
0.000101124
0.000101125
0.000101078
0.000100989
0.000100861
0.000100701
0.000100512
0.000100296
0.000100064
9.9808e-05
9.9565e-05
9.91755e-05
9.95175e-05
6.95185e-05
6.9967e-05
7.09921e-05
7.21582e-05
7.34223e-05
7.47352e-05
7.60525e-05
7.73559e-05
7.86434e-05
7.99185e-05
8.11847e-05
8.24395e-05
8.36701e-05
8.48525e-05
8.5956e-05
8.69494e-05
8.7808e-05
8.85169e-05
8.90729e-05
8.94831e-05
8.97514e-05
8.99007e-05
8.99683e-05
8.9971e-05
8.99254e-05
8.98467e-05
8.97466e-05
8.96339e-05
8.95146e-05
8.93933e-05
8.92726e-05
8.91544e-05
8.90389e-05
8.89272e-05
8.88184e-05
8.8714e-05
8.86062e-05
8.8512e-05
8.83736e-05
8.84028e-05
8.76568e-05
6.35029e-05
6.39739e-05
6.49551e-05
6.60294e-05
6.71858e-05
6.83992e-05
6.96232e-05
7.08203e-05
7.19612e-05
7.30273e-05
7.40147e-05
7.49378e-05
7.58246e-05
7.67088e-05
7.76209e-05
7.85804e-05
7.95919e-05
8.06454e-05
8.17201e-05
8.27892e-05
8.38269e-05
8.48051e-05
8.57154e-05
8.65301e-05
8.7237e-05
8.78338e-05
8.83221e-05
8.87057e-05
8.89908e-05
8.91852e-05
8.92972e-05
8.9335e-05
8.93081e-05
8.92233e-05
8.90884e-05
8.89075e-05
8.86973e-05
8.84409e-05
8.82269e-05
8.76812e-05
8.86863e-05
5.80871e-05
5.8577e-05
5.94548e-05
6.0308e-05
6.11648e-05
6.20696e-05
6.30462e-05
6.41119e-05
6.52632e-05
6.64654e-05
6.76567e-05
6.87624e-05
6.97115e-05
7.0451e-05
7.09563e-05
7.12323e-05
7.13091e-05
7.12324e-05
7.10519e-05
7.08203e-05
7.05491e-05
7.0271e-05
7.00089e-05
6.97859e-05
6.96066e-05
6.94703e-05
6.93783e-05
6.93333e-05
6.93369e-05
6.93895e-05
6.94907e-05
6.96393e-05
6.98317e-05
7.00664e-05
7.0338e-05
7.06456e-05
7.09709e-05
7.13472e-05
7.16263e-05
7.24062e-05
7.0767e-05
5.33618e-05
5.39632e-05
5.48935e-05
5.56634e-05
5.6238e-05
5.66545e-05
5.69579e-05
5.72125e-05
5.74967e-05
5.78977e-05
5.85069e-05
5.94071e-05
6.0652e-05
6.22475e-05
6.41463e-05
6.62597e-05
6.8479e-05
7.06967e-05
7.28236e-05
7.47834e-05
7.65668e-05
7.81526e-05
7.95262e-05
8.0675e-05
8.16141e-05
8.23642e-05
8.29451e-05
8.33753e-05
8.36715e-05
8.38485e-05
8.39191e-05
8.38935e-05
8.37824e-05
8.35914e-05
8.33295e-05
8.29991e-05
8.26212e-05
8.21594e-05
8.17765e-05
8.08327e-05
8.25011e-05
4.93825e-05
5.0149e-05
5.12792e-05
5.23288e-05
5.31776e-05
5.3765e-05
5.40418e-05
5.39981e-05
5.36672e-05
5.31195e-05
5.24562e-05
5.17986e-05
5.12707e-05
5.09734e-05
5.0959e-05
5.12177e-05
5.16854e-05
5.22707e-05
5.28819e-05
5.34572e-05
5.39191e-05
5.42486e-05
5.43657e-05
5.43267e-05
5.41755e-05
5.39471e-05
5.36825e-05
5.34283e-05
5.32284e-05
5.3119e-05
5.31271e-05
5.327e-05
5.35559e-05
5.39836e-05
5.45455e-05
5.52314e-05
5.60183e-05
5.6925e-05
5.77658e-05
5.93151e-05
5.80605e-05
4.60568e-05
4.65933e-05
4.72974e-05
4.859e-05
5.10341e-05
5.47029e-05
5.9141e-05
6.37947e-05
6.82652e-05
7.23233e-05
7.58567e-05
7.88216e-05
8.12159e-05
8.30612e-05
8.4395e-05
8.52646e-05
8.57241e-05
8.583e-05
8.56397e-05
8.52005e-05
8.45749e-05
8.39904e-05
8.33245e-05
8.26484e-05
8.20008e-05
8.14035e-05
8.08696e-05
8.04037e-05
8.00022e-05
7.96555e-05
7.93501e-05
7.90706e-05
7.87997e-05
7.85143e-05
7.82098e-05
7.78743e-05
7.74856e-05
7.70311e-05
7.6452e-05
7.61554e-05
7.48459e-05
0.10681
0.0904592
0.0834857
0.0805081
0.0781806
0.0755145
0.0728406
0.070326
0.0679277
0.0656051
0.0633538
0.061175
0.0590645
0.0570161
0.0550241
0.0530829
0.0511875
0.0493329
0.0475139
0.0457255
0.0439651
0.0422256
0.0405011
0.0387842
0.0370706
0.0353563
0.0336376
0.0319102
0.0301697
0.0284121
0.0266324
0.0248257
0.022987
0.0211085
0.0191754
0.0171658
0.0150467
0.0127645
0.0102173
0.00718227
0.00424129
0.00708673
0.00947849
0.0112372
0.0126049
0.013696
0.0145734
0.015276
0.0158297
0.0162554
0.0165688
0.0167809
0.0169003
0.0169335
0.016886
0.0167626
0.0165672
0.0163035
0.0159751
0.0155855
0.015138
0.0146356
0.0140813
0.0134779
0.0128287
0.0121374
0.0114086
0.0106472
0.00985958
0.0090512
0.00823806
0.00739586
0.00667885
0.00548388
0.163327
0.128751
0.109646
0.100279
0.0936072
0.0879693
0.0831988
0.0791227
0.0755443
0.0723373
0.0694292
0.0667678
0.0643102
0.0620219
0.0598761
0.0578509
0.0559286
0.054094
0.0523346
0.0506392
0.0489986
0.0474045
0.0458491
0.044326
0.0428289
0.0413518
0.0398896
0.0384369
0.0369904
0.0355471
0.0341044
0.0326587
0.0312081
0.0297523
0.0282901
0.0268191
0.0253364
0.0238397
0.0223244
0.0207857
0.0192166
0.0176134
0.0159659
0.0142561
0.0124557
0.0105174
0.00834787
0.0057168
0.00306561
0.00590947
0.00788602
0.00931512
0.0104166
0.0112878
0.0119813
0.0125298
0.0129551
0.0132728
0.013496
0.0136351
0.0136977
0.0136898
0.0136165
0.0134817
0.0132891
0.013042
0.0127435
0.0123964
0.0120039
0.0115677
0.0110978
0.0105719
0.0100957
0.00928915
0.125413
0.10843
0.0966132
0.0897676
0.0841829
0.0792718
0.075095
0.071526
0.0684094
0.065648
0.0631819
0.0609638
0.058953
0.0571152
0.0554226
0.0538522
0.0523842
0.051002
0.0496915
0.0484406
0.047239
0.0460778
0.0449493
0.0438469
0.0427647
0.0416978
0.0406417
0.0395928
0.0385476
0.0375031
0.036457
0.0354059
0.0343483
0.033284
0.0322132
0.0311357
0.0300508
0.0289571
0.0278536
0.0267396
0.0256141
0.024478
0.0233319
0.0221756
0.0210079
0.0198286
0.0186354
0.0174255
0.016195
0.0149431
0.0136648
0.0123509
0.0109867
0.00954895
0.00799712
0.00624729
0.00406942
0.00249051
0.00483896
0.00630473
0.00736838
0.00818812
0.00883463
0.00934687
0.0097492
0.0100582
0.0102857
0.010441
0.0105309
0.0105617
0.0105401
0.0104671
0.0103523
0.0102172
0.0940512
0.0809857
0.0713418
0.0655593
0.0609468
0.0570114
0.053764
0.0510674
0.0487833
0.0468295
0.0451531
0.0437115
0.0424689
0.0413956
0.0404661
0.0396585
0.0389532
0.0383327
0.0377814
0.0372851
0.0368312
0.0364085
0.036007
0.035618
0.0352341
0.0348489
0.0344571
0.0340542
0.0336365
0.033201
0.0327454
0.0322684
0.0317688
0.0312459
0.0306999
0.0301314
0.029541
0.0289284
0.0282944
0.0276403
0.0269665
0.0262742
0.0255647
0.0248393
0.0240991
0.0233443
0.0225751
0.0217924
0.0209964
0.0201884
0.01937
0.0185423
0.017706
0.0168612
0.0160078
0.0151456
0.0142742
0.0133931
0.0125034
0.0116047
0.0106945
0.0097691
0.00882263
0.00784577
0.00682361
0.00572993
0.00451101
0.00302125
0.0014185
0.00321042
0.00426224
0.00503806
0.00552164
0.00629902
0.0603447
0.0500397
0.0420414
0.037038
0.0331713
0.0299895
0.0274473
0.0253946
0.0237018
0.0222986
0.0211395
0.0201893
0.0194205
0.0188122
0.0183472
0.0180112
0.0177917
0.0176773
0.0176571
0.0177209
0.0178586
0.01806
0.018315
0.0186136
0.0189455
0.0193007
0.0196694
0.0200421
0.02041
0.0207648
0.0210993
0.0214067
0.0216816
0.0219194
0.0221165
0.0222703
0.0223796
0.0224442
0.022464
0.0224396
0.0223719
0.0222624
0.0221131
0.0219263
0.0217044
0.0214488
0.0211618
0.020846
0.0205034
0.0201364
0.0197471
0.0193379
0.0189106
0.0184672
0.0180092
0.0175379
0.0170547
0.0165607
0.0160572
0.0155461
0.0150288
0.0145064
0.0139797
0.0134495
0.0129167
0.0123821
0.0118464
0.0113105
0.0107753
0.0102412
0.00971525
0.00917722
0.0087099
0.00799586
0.0263896
0.0206603
0.015974
0.0130373
0.0108013
0.00895617
0.00749437
0.00632134
0.00535014
0.00453992
0.00386713
0.00331259
0.00286121
0.00250091
0.00222131
0.00201352
0.00187038
0.00178676
0.00175954
0.00178757
0.00187127
0.00201185
0.00221021
0.00246547
0.00277388
0.00312901
0.00352349
0.00395121
0.0044083
0.00489257
0.00540222
0.00593487
0.00648711
0.00705447
0.0076316
0.00821258
0.0087912
0.00936125
0.00991676
0.0104521
0.010962
0.0114421
0.0118883
0.0122975
0.0126673
0.0129969
0.0132853
0.0135321
0.0137375
0.0139021
0.0140271
0.014114
0.0141647
0.0141811
0.0141654
0.0141199
0.0140465
0.0139475
0.0138248
0.0136806
0.0135171
0.0133359
0.0131387
0.0129274
0.0127036
0.0124688
0.0122244
0.0119716
0.0117117
0.0114455
0.0111756
0.0108987
0.0106288
0.010334
0.00607254
0.0040527
0.00251437
0.00170557
0.00122939
0.00089562
0.000675329
0.000531575
0.000432807
0.000367567
0.000335966
0.000335895
0.000356653
0.000385978
0.000416556
0.000445141
0.000470297
0.000491257
0.000507529
0.000518761
0.000524667
0.000524972
0.000519384
0.000507552
0.000489036
0.000463269
0.000429478
0.000386484
0.000332089
0.000261162
0.000158148
0.000168471
0.000280511
0.000371018
0.000458533
0.000553534
0.000664648
0.000799668
0.000964973
0.00116419
0.00139684
0.00165812
0.0019407
0.00223749
0.0025432
0.00285432
0.00316819
0.00348227
0.00379388
0.00410019
0.00439833
0.00468557
0.00495942
0.00521769
0.00545854
0.0056805
0.00588248
0.00606368
0.00622362
0.00636215
0.0064793
0.0065756
0.00665167
0.00670813
0.00674566
0.00676505
0.00676713
0.00675278
0.00672281
0.00667828
0.0066194
0.00654921
0.00645943
0.00638807
0.00196467
0.00167512
0.00136177
0.001199
0.00112503
0.0010305
0.000933794
0.000853387
0.000786878
0.000728456
0.000675817
0.000627954
0.00058446
0.000545022
0.000509256
0.000476953
0.000448141
0.000422941
0.000401423
0.000383517
0.000368961
0.000357287
0.000347858
0.000339958
0.00033288
0.000325998
0.000318802
0.000310917
0.000302076
0.000292111
0.000280935
0.000268532
0.00025496
0.000240362
0.000224986
0.000209221
0.000193637
0.000179029
0.000166453
0.000157196
0.000152599
0.000153658
0.00016054
0.000172413
0.000187833
0.00020531
0.000223665
0.000242155
0.000260465
0.000278667
0.000297157
0.000316586
0.000337773
0.000361605
0.000388931
0.000420452
0.000456624
0.000497574
0.000543047
0.000592391
0.000644595
0.000698375
0.000752299
0.000804915
0.000854874
0.000901014
0.000942394
0.000978301
0.00100822
0.00103176
0.00104896
0.00105816
0.00106645
0.00104044
0.00250097
0.00227143
0.00194755
0.00173199
0.00161001
0.00147227
0.0013262
0.00120296
0.00110108
0.00101023
0.000928563
0.000856551
0.000792878
0.000735989
0.000684891
0.000638812
0.000597018
0.000558879
0.000523878
0.000491578
0.000461606
0.00043365
0.000407446
0.000382773
0.000359446
0.000337312
0.000316241
0.000296127
0.000276885
0.000258442
0.000240742
0.000223737
0.000207387
0.000191654
0.000176504
0.000161899
0.000147795
0.000134135
0.000120842
0.000107811
9.4896e-05
8.18971e-05
6.85668e-05