/*--------------------------------*- C++ -*----------------------------------*\
| =========                 |                                                 |
| \\      /  F ield         | OpenFOAM: The Open Source CFD Toolbox           |
|  \\    /   O peration     | Version:  2312                                  |
|   \\  /    A nd           | Website:  www.openfoam.com                      |
|    \\/     M anipulation  |                                                 |
\*---------------------------------------------------------------------------*/
FoamFile
{
    version     2.0;
    format      ascii;
    arch        "LSB;label=32;scalar=64";
    class       volScalarField;
    location    "248";
    object      turbulenceProperties:epsilon;
}
// * * * * * * * * * * * * * * * * * * * * * * * * * * * * * * * * * * * * * //

dimensions      [0 2 -3 0 0 0 0];

internalField   nonuniform List<scalar> 
11040
(
5.23739
27.6046
107.289
270.134
529.478
910.563
1376.71
1762.94
1978.21
2065.75
2092.53
2094.22
2081.31
2053.95
2010.8
1951.85
1878.38
1792.51
1696.24
1591.23
1476.37
1358.36
1249.96
1156.29
1074.22
999.314
929.548
864.187
802.601
744.088
687.98
633.642
580.515
527.906
475.049
421.502
366.358
310.009
247.331
191.684
102.061
0.649763
0.832105
1.04376
0.98708
0.910669
1.26456
2.43535
4.08464
5.68411
7.14872
8.42716
9.48955
10.352
11.0953
11.8056
12.5349
13.2964
14.063
14.8072
15.5004
16.2084
16.7516
16.8211
16.4658
15.9461
15.4137
14.9138
14.4464
14.0123
13.6127
13.2525
12.9384
12.6765
12.4799
12.3696
12.3708
12.5217
12.8929
13.6362
14.9138
19.1377
0.340525
0.226295
0.0893887
0.0662234
0.0887013
0.0960673
0.086496
0.0706738
0.0556473
0.0438899
0.0319669
0.0197155
0.0129151
0.0390011
0.138334
0.346183
0.685538
1.16511
1.77924
2.50667
3.32589
4.19673
5.03223
5.74426
6.30801
6.73895
7.04986
7.25839
7.38396
7.44497
7.45587
7.4294
7.37658
7.30501
7.22604
7.15094
7.1056
7.08193
7.26057
7.36247
9.67579
0.145889
0.132402
0.110624
0.0951942
0.0790508
0.0613833
0.0456468
0.033169
0.023502
0.0160811
0.0105392
0.00637462
0.00350008
0.0017431
0.0008392
0.00053846
0.000888742
0.00268169
0.00837187
0.0230197
0.0558986
0.117156
0.208408
0.328093
0.476234
0.652509
0.854292
1.07709
1.31641
1.56807
1.8287
2.09623
2.36966
2.65068
2.94358
3.25323
3.59371
3.96857
4.48862
4.94316
6.71399
0.0653436
0.0661629
0.0566233
0.0407687
0.0246484
0.0144116
0.00984847
0.00828926
0.00776439
0.00737133
0.00685422
0.00614776
0.00534283
0.00450511
0.00370184
0.00298674
0.00236979
0.0018462
0.00140732
0.00104554
0.000749262
0.000494281
0.000284089
0.00015324
0.000235603
0.000929655
0.00303477
0.00771207
0.0163827
0.030698
0.0526394
0.0847145
0.130121
0.193479
0.281382
0.40313
0.573252
0.813732
1.19018
1.65497
3.00321
0.0290805
0.0319575
0.0313533
0.0283354
0.0235617
0.0186548
0.0144431
0.0111114
0.00856976
0.0066443
0.00516885
0.00400623
0.00307117
0.00230152
0.00165799
0.00115029
0.000773748
0.000509437
0.000334375
0.000228429
0.000169256
0.000135188
0.000111882
9.67454e-05
8.89018e-05
8.46006e-05
8.18882e-05
8.09427e-05
8.32825e-05
9.18869e-05
0.000113117
0.000162056
0.000277205
0.000566264
0.00132556
0.00332234
0.00832614
0.0203059
0.0512516
0.10879
0.379843
0.0133379
0.0152168
0.0158422
0.015568
0.0137073
0.0108645
0.00799262
0.00567642
0.00405412
0.00300421
0.00235449
0.00195903
0.00171559
0.00155928
0.00144064
0.00132568
0.00120563
0.00108364
0.000963804
0.000848785
0.000737414
0.00062264
0.000510788
0.000420036
0.000356172
0.000310197
0.0002746
0.00024613
0.000222955
0.000203423
0.000186143
0.000169933
0.000153829
0.000137258
0.000120248
0.000104807
9.43487e-05
9.69726e-05
0.000173087
0.000333461
0.00662713
0.00621329
0.00722071
0.00775472
0.00824558
0.00813222
0.00740536
0.00636366
0.00527717
0.0042936
0.00346447
0.00278773
0.00224258
0.00180784
0.00146363
0.00118735
0.00095798
0.000765234
0.000606732
0.000478642
0.00037626
0.000295281
0.000231562
0.00018254
0.000147772
0.000126024
0.000113475
0.000106664
0.000103749
0.000103946
0.000106826
0.000112114
0.000119635
0.0001292
0.000140553
0.000152767
0.000163967
0.000170363
0.000164036
0.000147764
8.96861e-05
7.22299e-05
0.00293578
0.00344807
0.00371978
0.00412104
0.00434221
0.0042513
0.00389395
0.00337701
0.00281222
0.00228012
0.0018239
0.00145512
0.00116918
0.00095563
0.000801104
0.000692363
0.000615859
0.000558938
0.000512369
0.000470743
0.000429418
0.000385988
0.000341559
0.000300587
0.000267922
0.000243305
0.000224187
0.000208964
0.00019704
0.000188083
0.000181806
0.000178039
0.000176713
0.000177927
0.000181776
0.000188501
0.000197813
0.000208104
0.000219437
0.00021191
0.000184446
0.00139738
0.00165558
0.00177238
0.00200345
0.00221284
0.00231733
0.00230174
0.00218223
0.00199086
0.00176483
0.00153363
0.00131451
0.00111639
0.000943704
0.000796841
0.000673101
0.000568501
0.000478928
0.000401882
0.000335867
0.000280114
0.000233829
0.000195307
0.000164193
0.000140924
0.000124416
0.000112834
0.000104805
9.96152e-05
9.68798e-05
9.63465e-05
9.78544e-05
0.00010133
0.000106822
0.000114402
0.000124141
0.00013605
0.000149703
0.000165976
0.000177905
0.000191781
0.000668041
0.000798185
0.000843792
0.000958323
0.00108524
0.00118464
0.00124123
0.00124749
0.0012043
0.00112189
0.00101508
0.000897577
0.000780137
0.000670898
0.000574418
0.000492493
0.000425073
0.000370928
0.000327949
0.000293265
0.000263662
0.000237689
0.000214632
0.000194197
0.000177344
0.000164303
0.000154345
0.000146629
0.000140641
0.000136109
0.000132839
0.000130661
0.000129443
0.000129038
0.000129303
0.000130062
0.00013109
0.000131694
0.000131963
0.000128672
0.000126854
0.000319831
0.000385173
0.000401969
0.000455274
0.000521366
0.000583884
0.000636416
0.000672905
0.000688533
0.000682277
0.000657194
0.000617951
0.000569552
0.000516777
0.00046347
0.000412311
0.000364825
0.000321514
0.000282243
0.000246521
0.000214495
0.000186843
0.000163195
0.000142943
0.000126225
0.00011295
0.000102608
9.45879e-05
8.84471e-05
8.38949e-05
8.07176e-05
7.87443e-05
7.78314e-05
7.78611e-05
7.87091e-05
8.01809e-05
8.20185e-05
8.38323e-05
8.5144e-05
8.44486e-05
8.30661e-05
0.000153109
0.000185678
0.000191606
0.000215679
0.000247568
0.000280642
0.000313074
0.000342208
0.000364663
0.000377823
0.000380798
0.000374029
0.000358915
0.000337538
0.000312198
0.000285058
0.000257898
0.00023197
0.000208049
0.000186459
0.000167195
0.000150628
0.000136592
0.000124492
0.000114328
0.00010608
9.95373e-05
9.43778e-05
9.03012e-05
8.70832e-05
8.45375e-05
8.24958e-05
8.08102e-05
7.9301e-05
7.77963e-05
7.61269e-05
7.40951e-05
7.14441e-05
6.7968e-05
6.31753e-05
5.82989e-05
7.31975e-05
8.92265e-05
9.12855e-05
0.00010203
0.000116856
0.000133017
0.000150235
0.000167759
0.000184141
0.000197852
0.000207776
0.00021328
0.000214188
0.000210798
0.000203755
0.000193907
0.00018214
0.000169242
0.00015585
0.000142387
0.000129275
0.00011718
0.000106286
9.64367e-05
8.77377e-05
8.02288e-05
7.38378e-05
6.84256e-05
6.38406e-05
5.99506e-05
5.66538e-05
5.38551e-05
5.14705e-05
4.94177e-05
4.76076e-05
4.59433e-05
4.43152e-05
4.26276e-05
4.07212e-05
3.8336e-05
3.6029e-05
3.49e-05
4.26528e-05
4.34005e-05
4.81821e-05
5.49399e-05
6.25035e-05
7.09327e-05
8.01023e-05
8.95067e-05
9.84902e-05
0.00010643
0.000112795
0.000117177
0.000119349
0.000119291
0.000117175
0.000113323
0.000108126
0.000101986
9.52594e-05
8.82544e-05
8.15293e-05
7.53895e-05
6.97769e-05
6.47594e-05
6.03661e-05
5.65719e-05
5.33157e-05
5.05232e-05
4.81158e-05
4.60186e-05
4.41483e-05
4.24215e-05
4.07485e-05
3.90478e-05
3.72627e-05
3.53371e-05
3.32084e-05
3.08437e-05
2.81779e-05
2.57048e-05
1.65887e-05
2.0261e-05
2.05735e-05
2.27e-05
2.57375e-05
2.9189e-05
3.31359e-05
3.75942e-05
4.24183e-05
4.73816e-05
5.22339e-05
5.67201e-05
6.05871e-05
6.36155e-05
6.56514e-05
6.66252e-05
6.65515e-05
6.55117e-05
6.36372e-05
6.10816e-05
5.80111e-05
5.47429e-05
5.14802e-05
4.82502e-05
4.51475e-05
4.22307e-05
3.95237e-05
3.7026e-05
3.47236e-05
3.25931e-05
3.06069e-05
2.87405e-05
2.69707e-05
2.52829e-05
2.36642e-05
2.21019e-05
2.05838e-05
1.91076e-05
1.76472e-05
1.61845e-05
1.48765e-05
7.92243e-06
9.62711e-06
9.79313e-06
1.07469e-05
1.21024e-05
1.36585e-05
1.54646e-05
1.75459e-05
1.98644e-05
2.23496e-05
2.49153e-05
2.74627e-05
2.98766e-05
3.20363e-05
3.38305e-05
3.51722e-05
3.60071e-05
3.63159e-05
3.61127e-05
3.54389e-05
3.43383e-05
3.29662e-05
3.14685e-05
2.9891e-05
2.8304e-05
2.67553e-05
2.52721e-05
2.38679e-05
2.25469e-05
2.13067e-05
2.01408e-05
1.90391e-05
1.79917e-05
1.69803e-05
1.59918e-05
1.50149e-05
1.40374e-05
1.30476e-05
1.20436e-05
1.10259e-05
1.00958e-05
3.91816e-06
4.71465e-06
4.81683e-06
5.2663e-06
5.89169e-06
6.61485e-06
7.46193e-06
8.44686e-06
9.55989e-06
1.078e-05
1.20793e-05
1.34237e-05
1.47686e-05
1.60612e-05
1.7246e-05
1.82702e-05
1.90892e-05
1.96698e-05
1.99928e-05
2.00551e-05
1.98553e-05
1.94476e-05
1.88959e-05
1.8226e-05
1.74791e-05
1.66865e-05
1.587e-05
1.5045e-05
1.4222e-05
1.34071e-05
1.26042e-05
1.18142e-05
1.10396e-05
1.02802e-05
9.53605e-06
8.81173e-06
8.11312e-06
7.44247e-06
6.79948e-06
6.19504e-06
5.64418e-06
2.05056e-06
2.44067e-06
2.50276e-06
2.72852e-06
3.03604e-06
3.39304e-06
3.81319e-06
4.30339e-06
4.86088e-06
5.47882e-06
6.14764e-06
6.85482e-06
7.58261e-06
8.30798e-06
9.00452e-06
9.64457e-06
1.02015e-05
1.06517e-05
1.09765e-05
1.11645e-05
1.12024e-05
1.11062e-05
1.09059e-05
1.06168e-05
1.02629e-05
9.86386e-06
9.43505e-06
8.98873e-06
8.53438e-06
8.07896e-06
7.62758e-06
7.18351e-06
6.74977e-06
6.32688e-06
5.91551e-06
5.51748e-06
5.13405e-06
4.76319e-06
4.40434e-06
4.0598e-06
3.74361e-06
1.1337e-06
1.33342e-06
1.37229e-06
1.49191e-06
1.65176e-06
1.8379e-06
2.05739e-06
2.31345e-06
2.6051e-06
2.9298e-06
3.28389e-06
3.66243e-06
4.05806e-06
4.46064e-06
4.85796e-06
5.23644e-06
5.58208e-06
5.88122e-06
6.12178e-06
6.29466e-06
6.38891e-06
6.40698e-06
6.36038e-06
6.25541e-06
6.10355e-06
5.91485e-06
5.69782e-06
5.45981e-06
5.20699e-06
4.94436e-06
4.67605e-06
4.40515e-06
4.13498e-06
3.86735e-06
3.60388e-06
3.34673e-06
3.09899e-06
2.86058e-06
2.63185e-06
2.41576e-06
2.21477e-06
6.5389e-07
7.59892e-07
7.84407e-07
8.50116e-07
9.36709e-07
1.0379e-06
1.15728e-06
1.29632e-06
1.45459e-06
1.63099e-06
1.8239e-06
2.03116e-06
2.24943e-06
2.47393e-06
2.69876e-06
2.91713e-06
3.1217e-06
3.30491e-06
3.45957e-06
3.57966e-06
3.65744e-06
3.69186e-06
3.68766e-06
3.64754e-06
3.57734e-06
3.48262e-06
3.36843e-06
3.23945e-06
3.09983e-06
2.95308e-06
2.80222e-06
2.64962e-06
2.49761e-06
2.34752e-06
2.20049e-06
2.05792e-06
1.92134e-06
1.79007e-06
1.66472e-06
1.54534e-06
1.43829e-06
3.90396e-07
4.48378e-07
4.64017e-07
5.01254e-07
5.49847e-07
6.06848e-07
6.74069e-07
7.52167e-07
8.40878e-07
9.39656e-07
1.04768e-06
1.16388e-06
1.2866e-06
1.41346e-06
1.54151e-06
1.66726e-06
1.78688e-06
1.8963e-06
1.99151e-06
2.06897e-06
2.12405e-06
2.1554e-06
2.16488e-06
2.15344e-06
2.12385e-06
2.0789e-06
2.02124e-06
1.95343e-06
1.87782e-06
1.79647e-06
1.71121e-06
1.6235e-06
1.53489e-06
1.44631e-06
1.35855e-06
1.2725e-06
1.18948e-06
1.10913e-06
1.03208e-06
9.57362e-07
8.91994e-07
2.39764e-07
2.72251e-07
2.82294e-07
3.03927e-07
3.31984e-07
3.65029e-07
4.03964e-07
4.49063e-07
5.00151e-07
5.56911e-07
6.18873e-07
6.85449e-07
7.5575e-07
8.2851e-07
9.02151e-07
9.74821e-07
1.04446e-06
1.10883e-06
1.16569e-06
1.213e-06
1.24801e-06
1.26971e-06
1.27891e-06
1.27592e-06
1.26212e-06
1.239e-06
1.20804e-06
1.17075e-06
1.12852e-06
1.08265e-06
1.03427e-06
9.84337e-07
9.33826e-07
8.83331e-07
8.33374e-07
7.84511e-07
7.37505e-07
6.92023e-07
6.48605e-07
6.06063e-07
5.70909e-07
1.50764e-07
1.69327e-07
1.75814e-07
1.88652e-07
2.05252e-07
2.24888e-07
2.47994e-07
2.74674e-07
3.04803e-07
3.38177e-07
3.74508e-07
4.13444e-07
4.54475e-07
4.96889e-07
5.3981e-07
5.82218e-07
6.22975e-07
6.6085e-07
6.94596e-07
7.23059e-07
7.44685e-07
7.58868e-07
7.66006e-07
7.66181e-07
7.60089e-07
7.48513e-07
7.32253e-07
7.1213e-07
6.8893e-07
6.63375e-07
6.36118e-07
6.07708e-07
5.78718e-07
5.49508e-07
5.20385e-07
4.91664e-07
4.63859e-07
4.36756e-07
4.1078e-07
3.84622e-07
3.64315e-07
9.66913e-08
1.07464e-07
1.11673e-07
1.19432e-07
1.29459e-07
1.41372e-07
1.55371e-07
1.71483e-07
1.89616e-07
2.09634e-07
2.31349e-07
2.54537e-07
2.78893e-07
3.03997e-07
3.29342e-07
3.54348e-07
3.78368e-07
4.00707e-07
4.20661e-07
4.37574e-07
4.50556e-07
4.5927e-07
4.63941e-07
4.64579e-07
4.61551e-07
4.55285e-07
4.46232e-07
4.34859e-07
4.21623e-07
4.06948e-07
3.91223e-07
3.7478e-07
3.5796e-07
3.40983e-07
3.24039e-07
3.0732e-07
2.91128e-07
2.75318e-07
2.60197e-07
2.44773e-07
2.33616e-07
6.30523e-08
6.9382e-08
7.21237e-08
7.68872e-08
8.30557e-08
9.04163e-08
9.90532e-08
1.08961e-07
1.20073e-07
1.32295e-07
1.455e-07
1.59543e-07
1.74233e-07
1.89314e-07
2.04486e-07
2.19407e-07
2.33705e-07
2.4698e-07
2.58831e-07
2.68887e-07
2.76643e-07
2.81929e-07
2.84891e-07
2.8552e-07
2.84019e-07
2.80629e-07
2.75603e-07
2.69204e-07
2.61692e-07
2.53307e-07
2.44271e-07
2.34774e-07
2.25014e-07
2.15118e-07
2.05196e-07
1.95355e-07
1.85782e-07
1.76386e-07
1.67382e-07
1.57959e-07
1.517e-07
4.16969e-08
4.54515e-08
4.72441e-08
5.02107e-08
5.40671e-08
5.86887e-08
6.41033e-08
7.02948e-08
7.72137e-08
8.47937e-08
9.29488e-08
1.01582e-07
1.1057e-07
1.19756e-07
1.28954e-07
1.37962e-07
1.46558e-07
1.5451e-07
1.61585e-07
1.67571e-07
1.7218e-07
1.75328e-07
1.77117e-07
1.77536e-07
1.767e-07
1.74749e-07
1.71829e-07
1.6809e-07
1.63685e-07
1.58753e-07
1.53425e-07
1.47812e-07
1.42029e-07
1.36155e-07
1.30254e-07
1.2439e-07
1.18675e-07
1.1305e-07
1.07661e-07
1.01953e-07
9.84323e-08
2.79021e-08
3.01447e-08
3.13213e-08
3.31935e-08
3.564e-08
3.85842e-08
4.20281e-08
4.59534e-08
5.03239e-08
5.50926e-08
6.02002e-08
6.55813e-08
7.11558e-08
7.68234e-08
8.24705e-08
8.79723e-08
9.31969e-08
9.80061e-08
1.02266e-07
1.05852e-07
1.08601e-07
1.10476e-07
1.1155e-07
1.11815e-07
1.11338e-07
1.10203e-07
1.08495e-07
1.06302e-07
1.03712e-07
1.00806e-07
9.76602e-08
9.43387e-08
9.09086e-08
8.74156e-08
8.38977e-08
8.03916e-08
7.69627e-08
7.35776e-08
7.03309e-08
6.68258e-08
6.48507e-08
1.88569e-08
2.02029e-08
2.09785e-08
2.21749e-08
2.37483e-08
2.56491e-08
2.78686e-08
3.03901e-08
3.31873e-08
3.62264e-08
3.94667e-08
4.28635e-08
4.6364e-08
4.99038e-08
5.34115e-08
5.68101e-08
6.00193e-08
6.29566e-08
6.55428e-08
6.77064e-08
6.93519e-08
7.04663e-08
7.11016e-08
7.12521e-08
7.09582e-08
7.02704e-08
6.92398e-08
6.79183e-08
6.63574e-08
6.46052e-08
6.2706e-08
6.06984e-08
5.86215e-08
5.65029e-08
5.43654e-08
5.22307e-08
5.01373e-08
4.80657e-08
4.60767e-08
4.39107e-08
4.2769e-08
1.28494e-08
1.36596e-08
1.41734e-08
1.49476e-08
1.59726e-08
1.72151e-08
1.86632e-08
2.03028e-08
2.21148e-08
2.4075e-08
2.61553e-08
2.8325e-08
3.05489e-08
3.27854e-08
3.49891e-08
3.7112e-08
3.91047e-08
4.09175e-08
4.25034e-08
4.38209e-08
4.48141e-08
4.54808e-08
4.58584e-08
4.5943e-08
4.57593e-08
4.53389e-08
4.47125e-08
4.39111e-08
4.29655e-08
4.1904e-08
4.0753e-08
3.95353e-08
3.8274e-08
3.69855e-08
3.56834e-08
3.43805e-08
3.30995e-08
3.18293e-08
3.06085e-08
2.92629e-08
2.86084e-08
8.81537e-09
9.30356e-09
9.64612e-09
1.01535e-08
1.08296e-08
1.16514e-08
1.26072e-08
1.36856e-08
1.48726e-08
1.61513e-08
1.75017e-08
1.8903e-08
2.03316e-08
2.17603e-08
2.31599e-08
2.45003e-08
2.5751e-08
2.68816e-08
2.78642e-08
2.86743e-08
2.92792e-08
2.96809e-08
2.99058e-08
2.99515e-08
2.98331e-08
2.95705e-08
2.91825e-08
2.86879e-08
2.8105e-08
2.74509e-08
2.67415e-08
2.59903e-08
2.52112e-08
2.44142e-08
2.36074e-08
2.27987e-08
2.20013e-08
2.1209e-08
2.04462e-08
1.96015e-08
1.92108e-08
6.08099e-09
6.37513e-09
6.60528e-09
6.94216e-09
7.39371e-09
7.94346e-09
8.58118e-09
9.29816e-09
1.00842e-08
1.0927e-08
1.1813e-08
1.27276e-08
1.3655e-08
1.45773e-08
1.54758e-08
1.63312e-08
1.71247e-08
1.78376e-08
1.84533e-08
1.89572e-08
1.933e-08
1.95752e-08
1.97113e-08
1.97367e-08
1.9661e-08
1.94968e-08
1.92557e-08
1.89492e-08
1.85885e-08
1.81839e-08
1.7745e-08
1.72801e-08
1.67973e-08
1.63029e-08
1.58018e-08
1.52987e-08
1.48014e-08
1.43066e-08
1.38295e-08
1.3298e-08
1.30666e-08
4.21284e-09
4.3899e-09
4.54602e-09
4.77282e-09
5.07804e-09
5.44986e-09
5.87989e-09
6.36147e-09
6.8872e-09
7.44843e-09
8.03551e-09
8.6385e-09
9.24668e-09
9.84826e-09
1.04311e-08
1.09828e-08
1.14918e-08
1.19464e-08
1.23367e-08
1.26541e-08
1.2887e-08
1.30389e-08
1.31228e-08
1.31375e-08
1.30891e-08
1.29857e-08
1.28345e-08
1.26427e-08
1.2417e-08
1.21639e-08
1.18891e-08
1.15978e-08
1.12948e-08
1.0984e-08
1.06686e-08
1.03513e-08
1.00368e-08
9.72327e-09
9.42028e-09
9.08247e-09
8.93931e-09
2.92804e-09
3.03455e-09
3.14172e-09
3.29663e-09
3.50544e-09
3.75959e-09
4.05248e-09
4.37911e-09
4.73415e-09
5.11143e-09
5.50423e-09
5.90564e-09
6.30844e-09
6.70478e-09
7.08674e-09
7.44648e-09
7.77658e-09
8.06994e-09
8.32049e-09
8.52322e-09
8.67124e-09
8.76726e-09
8.82064e-09
8.83041e-09
8.80048e-09
8.73605e-09
8.64179e-09
8.52207e-09
8.3811e-09
8.22282e-09
8.05081e-09
7.8682e-09
7.67804e-09
7.48268e-09
7.28406e-09
7.08392e-09
6.88503e-09
6.6865e-09
6.49422e-09
6.27935e-09
6.19227e-09
2.03968e-09
2.10379e-09
2.17841e-09
2.28582e-09
2.43036e-09
2.60584e-09
2.80722e-09
3.0308e-09
3.27273e-09
3.52867e-09
3.7939e-09
4.06365e-09
4.33299e-09
4.59671e-09
4.84962e-09
5.0867e-09
5.30326e-09
5.49489e-09
5.65794e-09
5.78942e-09
5.88519e-09
5.94732e-09
5.98237e-09
5.98962e-09
5.97157e-09
5.93159e-09
5.87266e-09
5.79754e-09
5.70884e-09
5.60904e-09
5.50036e-09
5.38477e-09
5.26415e-09
5.14e-09
5.01352e-09
4.88583e-09
4.75855e-09
4.63132e-09
4.50768e-09
4.36995e-09
4.31364e-09
1.42281e-09
1.46158e-09
1.51438e-09
1.58997e-09
1.69115e-09
1.81346e-09
1.95315e-09
2.1075e-09
2.27375e-09
2.44884e-09
2.62947e-09
2.81235e-09
2.99413e-09
3.17132e-09
3.34052e-09
3.49848e-09
3.64224e-09
3.76906e-09
3.87674e-09
3.96352e-09
4.02691e-09
4.06843e-09
4.09269e-09
4.09916e-09
4.08944e-09
4.06574e-09
4.02996e-09
3.98384e-09
3.929e-09
3.86699e-09
3.79921e-09
3.72687e-09
3.65114e-09
3.57296e-09
3.49311e-09
3.41227e-09
3.33143e-09
3.25043e-09
3.17154e-09
3.08335e-09
3.04972e-09
9.93102e-10
1.01683e-09
1.05484e-09
1.1088e-09
1.18034e-09
1.2663e-09
1.36396e-09
1.47133e-09
1.58646e-09
1.70717e-09
1.83115e-09
1.95616e-09
2.0799e-09
2.20006e-09
2.3144e-09
2.42082e-09
2.51741e-09
2.60248e-09
2.67466e-09
2.73292e-09
2.77572e-09
2.80411e-09
2.82128e-09
2.82683e-09
2.82181e-09
2.80765e-09
2.78562e-09
2.75682e-09
2.72232e-09
2.68309e-09
2.64005e-09
2.59397e-09
2.5456e-09
2.49555e-09
2.44431e-09
2.39234e-09
2.3402e-09
2.28792e-09
2.23671e-09
2.18017e-09
2.15618e-09
6.93118e-10
7.07985e-10
7.35852e-10
7.74878e-10
8.25893e-10
8.86701e-10
9.5536e-10
1.03048e-09
1.1107e-09
1.19448e-09
1.28022e-09
1.36632e-09
1.45124e-09
1.53343e-09
1.61143e-09
1.68389e-09
1.74961e-09
1.80752e-09
1.85682e-09
1.89691e-09
1.92687e-09
1.94745e-09
1.96086e-09
1.96682e-09
1.96598e-09
1.95927e-09
1.94748e-09
1.93127e-09
1.91131e-09
1.88818e-09
1.86245e-09
1.83461e-09
1.80513e-09
1.77437e-09
1.74268e-09
1.71033e-09
1.6777e-09
1.64478e-09
1.61253e-09
1.57616e-09
1.56455e-09
4.83426e-10
4.93105e-10
5.13883e-10
5.42432e-10
5.7908e-10
6.22319e-10
6.70775e-10
7.23479e-10
7.79508e-10
8.37847e-10
8.97413e-10
9.57119e-10
1.01588e-09
1.07262e-09
1.12636e-09
1.17621e-09
1.22142e-09
1.2613e-09
1.29535e-09
1.32317e-09
1.34414e-09
1.35869e-09
1.36835e-09
1.37293e-09
1.37286e-09
1.36881e-09
1.36133e-09
1.3509e-09
1.33799e-09
1.323e-09
1.30633e-09
1.28829e-09
1.26919e-09
1.24929e-09
1.22879e-09
1.20788e-09
1.18675e-09
1.16552e-09
1.1444e-09
1.12182e-09
1.1098e-09
3.36836e-10
3.43465e-10
3.59136e-10
3.80141e-10
4.06564e-10
4.37425e-10
4.71754e-10
5.08838e-10
5.48018e-10
5.88609e-10
6.29924e-10
6.71296e-10
7.1205e-10
7.51487e-10
7.88923e-10
8.23735e-10
8.55413e-10
8.8355e-10
9.0789e-10
9.28275e-10
9.44407e-10
9.56592e-10
9.65865e-10
9.72038e-10
9.75314e-10
9.76036e-10
9.74485e-10
9.70903e-10
9.65524e-10
9.5858e-10
9.50292e-10
9.40861e-10
9.30487e-10
9.19339e-10
9.07564e-10
8.95283e-10
8.82692e-10
8.69766e-10
8.57084e-10
8.41882e-10
8.41093e-10
2.34501e-10
2.39324e-10
2.51237e-10
2.66665e-10
2.85587e-10
3.07451e-10
3.31662e-10
3.57762e-10
3.85282e-10
4.13693e-10
4.42461e-10
4.71103e-10
4.99208e-10
5.26404e-10
5.52331e-10
5.76618e-10
5.98877e-10
6.1872e-10
6.35817e-10
6.49932e-10
6.60742e-10
6.68426e-10
6.73728e-10
6.76653e-10
6.77463e-10
6.76505e-10
6.74077e-10
6.70428e-10
6.65777e-10
6.60312e-10
6.54195e-10
6.47563e-10
6.40522e-10
6.33178e-10
6.25596e-10
6.17861e-10
6.09969e-10
6.02111e-10
5.93939e-10
5.86408e-10
5.77565e-10
1.632e-10
1.66959e-10
1.76135e-10
1.87494e-10
2.00906e-10
2.16053e-10
2.32613e-10
2.50416e-10
2.69304e-10
2.89033e-10
3.09254e-10
3.29539e-10
3.49446e-10
3.68585e-10
3.86688e-10
4.03622e-10
4.19362e-10
4.33923e-10
4.47327e-10
4.5956e-10
4.70484e-10
4.80092e-10
4.88706e-10
4.96073e-10
5.02116e-10
5.06856e-10
5.10325e-10
5.12563e-10
5.13637e-10
5.13632e-10
5.1265e-10
5.10793e-10
5.0818e-10
5.04908e-10
5.01076e-10
4.96752e-10
4.92111e-10
4.87052e-10
4.82277e-10
4.7473e-10
4.8126e-10
1.13566e-10
1.16622e-10
1.23706e-10
1.32135e-10
1.41739e-10
1.52253e-10
1.63375e-10
1.74966e-10
1.87005e-10
1.99525e-10
2.12563e-10
2.26097e-10
2.3998e-10
2.53909e-10
2.67443e-10
2.80082e-10
2.91359e-10
3.00925e-10
3.08588e-10
3.14334e-10
3.18134e-10
3.2026e-10
3.21222e-10
3.21252e-10
3.20589e-10
3.19451e-10
3.1801e-10
3.16393e-10
3.14689e-10
3.1296e-10
3.11247e-10
3.09576e-10
3.07947e-10
3.06377e-10
3.04853e-10
3.03394e-10
3.01895e-10
3.00585e-10
2.98682e-10
2.9905e-10
2.89056e-10
7.90748e-11
8.15007e-11
8.66718e-11
9.26058e-11
9.93228e-11
1.06752e-10
1.1466e-10
1.22809e-10
1.30973e-10
1.38961e-10
1.46681e-10
1.54182e-10
1.6165e-10
1.69359e-10
1.7759e-10
1.86562e-10
1.96377e-10
2.07001e-10
2.18274e-10
2.29935e-10
2.41691e-10
2.53178e-10
2.6423e-10
2.7442e-10
2.83497e-10
2.91331e-10
2.97856e-10
3.03055e-10
3.06958e-10
3.09635e-10
3.11178e-10
3.11688e-10
3.11293e-10
3.10093e-10
3.08202e-10
3.05686e-10
3.02784e-10
2.99277e-10
2.9637e-10
2.89086e-10
3.02548e-10
5.5359e-11
5.72785e-11
6.08194e-11
6.44171e-11
6.81873e-11
7.23438e-11
7.70364e-11
8.24093e-11
8.85205e-11
9.52546e-11
1.02298e-10
1.09177e-10
1.15354e-10
1.20348e-10
1.23853e-10
1.25803e-10
1.26353e-10
1.25814e-10
1.24543e-10
1.22923e-10
1.21044e-10
1.19137e-10
1.17359e-10
1.15861e-10
1.14663e-10
1.13756e-10
1.13144e-10
1.1284e-10
1.12853e-10
1.13186e-10
1.13838e-10
1.14806e-10
1.16071e-10
1.17631e-10
1.19457e-10
1.21552e-10
1.23798e-10
1.26437e-10
1.28419e-10
1.34097e-10
1.22353e-10
3.94261e-11
4.12481e-11
4.41828e-11
4.67314e-11
4.87085e-11
5.01848e-11
5.12847e-11
5.22225e-11
5.3281e-11
5.47944e-11
5.71474e-11
6.07559e-11
6.60195e-11
7.32533e-11
8.26173e-11
9.40644e-11
1.07324e-10
1.21926e-10
1.37285e-10
1.52682e-10
1.67787e-10
1.82136e-10
1.9529e-10
2.0683e-10
2.16635e-10
2.24712e-10
2.3112e-10
2.3595e-10
2.39317e-10
2.41342e-10
2.42147e-10
2.41842e-10
2.40553e-10
2.38355e-10
2.3537e-10
2.31647e-10
2.27444e-10
2.22389e-10
2.18259e-10
2.08345e-10
2.26072e-10
2.89159e-11
3.076e-11
3.36365e-11
3.64865e-11
3.89241e-11
4.06853e-11
4.15422e-11
4.14193e-11
4.04227e-11
3.8805e-11
3.69077e-11
3.50947e-11
3.36872e-11
3.29125e-11
3.28737e-11
3.35435e-11
3.47816e-11
3.63789e-11
3.81044e-11
3.97829e-11
4.11686e-11
4.21766e-11
4.25346e-11
4.24058e-11
4.19292e-11
4.12207e-11
4.04127e-11
3.96481e-11
3.90541e-11
3.87306e-11
3.87511e-11
3.91671e-11
4.00125e-11
4.13039e-11
4.30487e-11
4.52536e-11
4.78866e-11
5.10616e-11
5.41448e-11
6.01901e-11
5.52562e-11
2.18773e-11
2.29164e-11
2.43359e-11
2.71109e-11
3.29969e-11
4.35674e-11
5.95349e-11
8.06235e-11
1.05737e-10
1.33246e-10
1.61296e-10
1.88076e-10
2.12039e-10
2.32027e-10
2.47343e-10
2.57743e-10
2.63387e-10
2.64729e-10
2.62421e-10
2.57105e-10
2.49657e-10
2.42842e-10
2.35241e-10
2.27703e-10
2.20651e-10
2.14289e-10
2.08715e-10
2.03939e-10
1.99886e-10
1.96433e-10
1.93426e-10
1.90702e-10
1.88089e-10
1.85366e-10
1.82495e-10
1.79372e-10
1.75807e-10
1.71707e-10
1.66592e-10
1.64013e-10
1.53012e-10
1.27328
1.42916
1.5599
1.62753
1.66047
1.63432
1.56746
1.4799
1.38048
1.27441
1.16632
1.0597
0.956825
0.859055
0.767202
0.681691
0.602699
0.530205
0.464045
0.403975
0.349767
0.301005
0.257308
0.218286
0.183621
0.153018
0.12618
0.10281
0.0826263
0.0653607
0.0507499
0.0385475
0.0285082
0.0203919
0.0139678
0.00902219
0.00535798
0.00279236
0.00115411
0.000283893
3.48085e-05
0.000273287
0.000880424
0.00175086
0.00279128
0.00392001
0.00506702
0.00617367
0.00719238
0.0080879
0.00883477
0.00941585
0.0098216
0.0100495
0.0101032
0.00999154
0.00972787
0.00932874
0.00881399
0.00820534
0.00752534
0.00679657
0.0060411
0.00527998
0.00453292
0.00381783
0.00315011
0.00254198
0.0020026
0.0015363
0.00114827
0.000823895
0.000600918
0.000333312
14.4596
8.50588
6.11656
5.06455
4.37145
3.81969
3.35937
2.96715
2.62773
2.33091
2.06974
1.83899
1.63442
1.45256
1.29051
1.14585
1.01654
0.900813
0.797165
0.704279
0.621035
0.546429
0.479562
0.41968
0.366079
0.318135
0.275309
0.237109
0.20313
0.173
0.146385
0.122956
0.102433
0.0845606
0.0690931
0.0557943
0.0444472
0.034858
0.0268348
0.0202018
0.0147969
0.010475
0.00709496
0.00452558
0.00264733
0.00135165
0.000539195
0.000119296
9.9334e-06
0.000137975
0.00043989
0.000860877
0.00135366
0.00187803
0.00240048
0.00289395
0.00333732
0.00371506
0.00401724
0.00423831
0.00437637
0.00443261
0.0044109
0.00431726
0.00415944
0.00394649
0.00368841
0.00339562
0.00307898
0.00274787
0.00241668
0.00207932
0.00179698
0.00140307
10.2553
7.65914
6.1443
5.25577
4.51933
3.90487
3.40108
2.98059
2.62462
2.32097
2.06026
1.8349
1.63883
1.46717
1.31601
1.18217
1.06309
0.956668
0.861182
0.775215
0.697597
0.627351
0.563653
0.505812
0.453233
0.405405
0.361887
0.322304
0.28631
0.253603
0.223923
0.197005
0.172647
0.150672
0.130913
0.113202
0.0973759
0.0832727
0.0707527
0.0596885
0.0499588
0.0414548
0.0340698
0.0276991
0.0222426
0.0176125
0.0137199
0.0104823
0.00782389
0.00567677
0.00397521
0.00265756
0.00166756
0.000954132
0.000470971
0.000176141
3.18773e-05
4.499e-06
6.44403e-05
0.000186515
0.000349429
0.000535205
0.000728882
0.000918317
0.00109397
0.0012487
0.00137747
0.00147716
0.0015463
0.00158483
0.00159425
0.00157671
0.0015299
0.00149894
6.55465
4.61425
3.46949
2.83995
2.35367
1.97106
1.67729
1.44571
1.25899
1.10688
0.981845
0.878061
0.791097
0.717557
0.654782
0.600669
0.553542
0.512059
0.475143
0.441928
0.411717
0.383957
0.358211
0.334138
0.311478
0.290034
0.269665
0.250265
0.231764
0.214112
0.197278
0.181259
0.166046
0.151634
0.138026
0.125223
0.113219
0.101989
0.0915256
0.081815
0.0728365
0.0645684
0.0569868
0.0500636
0.0437681
0.0380609
0.0329085
0.028279
0.0241398
0.0204608
0.0172109
0.0143577
0.0118688
0.00971235
0.00785794
0.00627663
0.00494086
0.00382449
0.00290351
0.00215431
0.00155428
0.0010829
0.00072119
0.000451784
0.000259099
0.000129228
4.98396e-05
1.00772e-05
4.92597e-07
1.29909e-05
4.05309e-05
7.9453e-05
0.000114988
0.000196032
2.61453
1.55122
0.966036
0.6827
0.498714
0.372547
0.287636
0.228194
0.184917
0.152851
0.128807
0.110578
0.0966508
0.0859769
0.0778033
0.0715791
0.0668954
0.0634441
0.0609882
0.0593416
0.0583537
0.0578991
0.0578692
0.0581663
0.0586998
0.0593836
0.0601357
0.0608782
0.0615389
0.0620519
0.0623598
0.0624148
0.0621798
0.0616297
0.0607521
0.0595475
0.0580289
0.0562245
0.0541621
0.0518757
0.0494036
0.0467874
0.0440703
0.0412944
0.0384992
0.0357118
0.032964
0.0302837
0.0276926
0.0252088
0.0228464
0.0206155
0.0185223
0.0165697
0.0147582
0.0130862
0.0115507
0.0101475
0.00887194
0.00771872
0.0066816
0.00575312
0.00492584
0.00419258
0.00354624
0.00297978
0.00248636
0.00205927
0.00169222
0.00137856
0.0011151
0.000887168
0.000719437
0.000510584
0.324589
0.152142
0.0696309
0.038179
0.0217015
0.0122408
0.00707778
0.00416625
0.0024502
0.00143308
0.000835656
0.000488398
0.000289121
0.000176189
0.000112746
7.73915e-05
5.8161e-05
4.86762e-05
4.58653e-05
4.8766e-05
5.80383e-05
7.58953e-05
0.000106134
0.000153839
0.000224479
0.000322763
0.000452248
0.000616065
0.000817908
0.00106234
0.00135431
0.00169821
0.00209698
0.00255131
0.0030591
0.00361515
0.00421118
0.00483619
0.00547683
0.00611808
0.00674394
0.0073383
0.00788579
0.00837273
0.00878769
0.00912396
0.00937585
0.00954027
0.00961698
0.00960836
0.00951921
0.00935628
0.0091277
0.00884242
0.00850974
0.00813894
0.00773895
0.00731815
0.00688438
0.00644479
0.00600582
0.00557227
0.00514838
0.00473791
0.0043438
0.00396825
0.00361282
0.00327846
0.00296576
0.00267457
0.00240612
0.00215534
0.00193574
0.0017064
0.00468403
0.00104643
0.000165429
3.46971e-05
9.01239e-06
2.45193e-06
7.74535e-07
2.94068e-07
1.2933e-07
6.80152e-08
4.83419e-08
4.94004e-08
6.43505e-08
9.04899e-08
1.25727e-07
1.67633e-07
2.13077e-07
2.58175e-07
2.98601e-07
3.3011e-07
3.49067e-07
3.52898e-07
3.40431e-07
3.12113e-07
2.70089e-07
2.18149e-07
1.61459e-07
1.06015e-07
5.78297e-08
2.21262e-08
2.97617e-09
3.83581e-09
2.95411e-08
9.07457e-08
2.12857e-07
4.54641e-07
9.4725e-07
1.96946e-06
4.06412e-06
8.14233e-06
1.54296e-05
2.71556e-05
4.41865e-05
6.69296e-05
9.54959e-05
0.000129855
0.000169847
0.000215115
0.000265042
0.000318729
0.00037502
0.000432566
0.000489901
0.000545537
0.000598044
0.000646121
0.000688657
0.000724764
0.0007538
0.000775386
0.000789373
0.000795965
0.000795507
0.000788431
0.000775275
0.000756669
0.000733298
0.000705882
0.000675129
0.000641769
0.000606397
0.000569868
0.00053162
0.000497491
5.67549e-05
3.00849e-05
1.36016e-05
8.42544e-06
6.68392e-06
4.81138e-06
3.3119e-06
2.34958e-06
1.72119e-06
1.27801e-06
9.55266e-07
7.17271e-07
5.41458e-07
4.11449e-07
3.14896e-07
2.43112e-07
1.90033e-07
1.51143e-07
1.22926e-07
1.02621e-07
8.80651e-08
7.75649e-08
6.98013e-08
6.37622e-08
5.86919e-08
5.40525e-08
4.94911e-08
4.48195e-08
3.99732e-08
3.49845e-08
2.99537e-08
2.50224e-08
2.03484e-08
1.60836e-08
1.23544e-08
9.245e-09
6.788e-09
4.9639e-09
3.71265e-09
2.95609e-09
2.62804e-09
2.70493e-09
3.22671e-09
4.29682e-09
6.05729e-09
8.64907e-09
1.218e-08
1.67237e-08
2.23608e-08
2.92617e-08
3.77983e-08
4.86791e-08
6.31133e-08
8.3024e-08
1.11329e-07
1.52272e-07
2.11721e-07
2.97213e-07
4.17447e-07
5.80944e-07
7.93864e-07
1.05758e-06
1.36693e-06
1.70997e-06
2.06945e-06
2.42539e-06
2.75784e-06
3.04908e-06
3.28505e-06
3.4554e-06
3.55729e-06
3.57316e-06
3.57317e-06
3.27023e-06
0.00016624
0.000112095
6.12865e-05
3.87883e-05
2.92092e-05
2.06207e-05
1.37225e-05
9.38182e-06
6.64112e-06
4.74166e-06
3.40799e-06
2.48286e-06
1.83298e-06
1.36758e-06
1.03007e-06
7.82688e-07
5.99223e-07
4.6163e-07