/*--------------------------------*- C++ -*----------------------------------*\
| =========                 |                                                 |
| \\      /  F ield         | OpenFOAM: The Open Source CFD Toolbox           |
|  \\    /   O peration     | Version:  2312                                  |
|   \\  /    A nd           | Website:  www.openfoam.com                      |
|    \\/     M anipulation  |                                                 |
\*---------------------------------------------------------------------------*/
FoamFile
{
    version     2.0;
    format      ascii;
    arch        "LSB;label=32;scalar=64";
    class       volScalarField;
    location    "248";
    object      turbulenceProperties:nuEff;
}
// * * * * * * * * * * * * * * * * * * * * * * * * * * * * * * * * * * * * * //

dimensions      [0 2 -1 0 0 0 0];

internalField   nonuniform List<scalar> 
11040
(
1.86527e-05
2.7098e-05
5.13243e-05
9.99335e-05
0.000176556
0.000288483
0.00042644
0.00054282
0.000610526
0.000641573
0.000655622
0.000663717
0.000669398
0.000673072
0.000674531
0.000673702
0.000670738
0.000665988
0.000659782
0.000652427
0.000643758
0.000634618
0.000626455
0.000619614
0.000613728
0.000608296
0.000602992
0.000597714
0.00059237
0.000586839
0.000580965
0.000574564
0.000567434
0.000559266
0.000549649
0.000538148
0.000523988
0.000506505
0.000481997
0.000455365
0.000384124
1.56915e-05
1.57759e-05
1.60943e-05
1.70225e-05
1.90673e-05
2.72996e-05
5.5584e-05
0.000109716
0.000173822
0.000239228
0.000303261
0.000364204
0.000420464
0.00047024
0.000512059
0.000545362
0.000570741
0.000589667
0.000604104
0.000615957
0.000627026
0.000637174
0.000645221
0.000651581
0.000656916
0.00066165
0.00066608
0.000670356
0.000674585
0.000678842
0.000683203
0.000687734
0.000692488
0.000697536
0.000702945
0.000708748
0.000714982
0.000721692
0.000728533
0.000737415
0.000724725
1.61424e-05
1.61886e-05
1.61123e-05
1.61203e-05
1.61902e-05
1.631e-05
1.65159e-05
1.69823e-05
1.81252e-05
2.08594e-05
2.63439e-05
3.83274e-05
6.0486e-05
9.31969e-05
0.000133381
0.000178578
0.000227738
0.000279884
0.000333769
0.000387934
0.000441358
0.000490597
0.000533016
0.000569683
0.000601602
0.000629657
0.000654702
0.000677463
0.000698545
0.000718421
0.000737454
0.000755908
0.000773974
0.000791829
0.000809591
0.000827286
0.000845044
0.000862831
0.000881304
0.000899977
0.000911076
1.61128e-05
1.61009e-05
1.61148e-05
1.61406e-05
1.61687e-05
1.62055e-05
1.62555e-05
1.63203e-05
1.64022e-05
1.65007e-05
1.66506e-05
1.67677e-05
1.68608e-05
1.70822e-05
1.77562e-05
1.94673e-05
2.3363e-05
3.16051e-05
4.7436e-05
7.31538e-05
0.00010882
0.000149868
0.000191796
0.00023447
0.000277976
0.000321951
0.000366033
0.000409824
0.000453014
0.000495375
0.000536807
0.000577324
0.00061701
0.000656209
0.000695251
0.000734427
0.000774048
0.000815125
0.000858298
0.000902906
0.000958435
1.61403e-05
1.61022e-05
1.60931e-05
1.60936e-05
1.6071e-05
1.60651e-05
1.60727e-05
1.6089e-05
1.61125e-05
1.61425e-05
1.61793e-05
1.62222e-05
1.62754e-05
1.63208e-05
1.63262e-05
1.62667e-05
1.61324e-05
1.5944e-05
1.57629e-05
1.57008e-05
1.60082e-05
1.70366e-05
1.92612e-05
2.33348e-05
3.03357e-05
4.14151e-05
5.73162e-05
7.78471e-05
0.000102167
0.000129481
0.000159512
0.000192446
0.000228651
0.000268848
0.000313708
0.000363921
0.000419962
0.000484072
0.000557609
0.000638225
0.000763861
1.61269e-05
1.61016e-05
1.60903e-05
1.60888e-05
1.60922e-05
1.60953e-05
1.60974e-05
1.60998e-05
1.61047e-05
1.61129e-05
1.61247e-05
1.61403e-05
1.61601e-05
1.61844e-05
1.62116e-05
1.62382e-05
1.62573e-05
1.62573e-05
1.62198e-05
1.61233e-05
1.59234e-05
1.56198e-05
1.53082e-05
1.50235e-05
1.47699e-05
1.45631e-05
1.44223e-05
1.43779e-05
1.44777e-05
1.48023e-05
1.54948e-05
1.68288e-05
1.93296e-05
2.40711e-05
3.29849e-05
4.89226e-05
7.4237e-05
0.000110598
0.000160212
0.000218532
0.000340714
1.61209e-05
1.61008e-05
1.60858e-05
1.60826e-05
1.60827e-05
1.6079e-05
1.60724e-05
1.60643e-05
1.60635e-05
1.60659e-05
1.60701e-05
1.60761e-05
1.6084e-05
1.60938e-05
1.61058e-05
1.61198e-05
1.61355e-05
1.61531e-05
1.6172e-05
1.6191e-05
1.62055e-05
1.62056e-05
1.61908e-05
1.61634e-05
1.61206e-05
1.60598e-05
1.59764e-05
1.58641e-05
1.57145e-05
1.55183e-05
1.52645e-05
1.49429e-05
1.45496e-05
1.40835e-05
1.35685e-05
1.30525e-05
1.26547e-05
1.24378e-05
1.32928e-05
1.46538e-05
4.40047e-05
1.61138e-05
1.60981e-05
1.60879e-05
1.60828e-05
1.60813e-05
1.60811e-05
1.60811e-05
1.60804e-05
1.60774e-05
1.60749e-05
1.60736e-05
1.60737e-05
1.60748e-05
1.6077e-05
1.60803e-05
1.60849e-05
1.60904e-05
1.60968e-05
1.6104e-05
1.61123e-05
1.61221e-05
1.61338e-05
1.61456e-05
1.61571e-05
1.61682e-05
1.61785e-05
1.61877e-05
1.61954e-05
1.62003e-05
1.62005e-05
1.61923e-05
1.61693e-05
1.61213e-05
1.60286e-05
1.58627e-05
1.55714e-05
1.5118e-05
1.43821e-05
1.34539e-05
1.21564e-05
1.11976e-05
1.61078e-05
1.60959e-05
1.60878e-05
1.6082e-05
1.60792e-05
1.6078e-05
1.60774e-05
1.60746e-05
1.60714e-05
1.6068e-05
1.60658e-05
1.60655e-05
1.60661e-05
1.60673e-05
1.60691e-05
1.60715e-05
1.60746e-05
1.60782e-05
1.60824e-05
1.60869e-05
1.60917e-05
1.60967e-05
1.61016e-05
1.61067e-05
1.61119e-05
1.61172e-05
1.61226e-05
1.61283e-05
1.61342e-05
1.61407e-05
1.6148e-05
1.61565e-05
1.61667e-05
1.61789e-05
1.61925e-05
1.62046e-05
1.62031e-05
1.61722e-05
1.5999e-05
1.57689e-05
1.44119e-05
1.61025e-05
1.60938e-05
1.60869e-05
1.60822e-05
1.60785e-05
1.60769e-05
1.60761e-05
1.60759e-05
1.60742e-05
1.60721e-05
1.60699e-05
1.60677e-05
1.60654e-05
1.6063e-05
1.60607e-05
1.6058e-05
1.60572e-05
1.60572e-05
1.60577e-05
1.60584e-05
1.60594e-05
1.60607e-05
1.60622e-05
1.60638e-05
1.60655e-05
1.60672e-05
1.60689e-05
1.60707e-05
1.60724e-05
1.60742e-05
1.60761e-05
1.6078e-05
1.60803e-05
1.60832e-05
1.60874e-05
1.60942e-05
1.6104e-05
1.61271e-05
1.61514e-05
1.62323e-05
1.61978e-05
1.60979e-05
1.60918e-05
1.60855e-05
1.60812e-05
1.60785e-05
1.60763e-05
1.60753e-05
1.60749e-05
1.60737e-05
1.60723e-05
1.60709e-05
1.60695e-05
1.6068e-05
1.60674e-05
1.60673e-05
1.60676e-05
1.6068e-05
1.60687e-05
1.60696e-05
1.60706e-05
1.60717e-05
1.60727e-05
1.60737e-05
1.60748e-05
1.6076e-05
1.60773e-05
1.60786e-05
1.60799e-05
1.60812e-05
1.60824e-05
1.60836e-05
1.60846e-05
1.60855e-05
1.60861e-05
1.60865e-05
1.60866e-05
1.60867e-05
1.60866e-05
1.60897e-05
1.6095e-05
1.61419e-05
1.60939e-05
1.60888e-05
1.60837e-05
1.60803e-05
1.60782e-05
1.60767e-05
1.60755e-05
1.60749e-05
1.60747e-05
1.60739e-05
1.6073e-05
1.6072e-05
1.60711e-05
1.607e-05
1.6069e-05
1.60678e-05
1.60667e-05
1.60654e-05
1.60642e-05
1.60628e-05
1.60615e-05
1.60602e-05
1.60593e-05
1.6059e-05
1.6059e-05
1.6059e-05
1.60591e-05
1.60593e-05
1.60595e-05
1.60597e-05
1.60599e-05
1.60601e-05
1.60601e-05
1.60597e-05
1.60591e-05
1.60586e-05
1.60582e-05
1.6058e-05
1.60589e-05
1.60578e-05
1.6063e-05
1.60905e-05
1.60864e-05
1.60823e-05
1.60796e-05
1.60779e-05
1.60768e-05
1.6076e-05
1.60752e-05
1.6075e-05
1.60746e-05
1.60741e-05
1.60736e-05
1.6073e-05
1.60724e-05
1.60718e-05
1.60711e-05
1.60706e-05
1.60705e-05
1.60706e-05
1.60708e-05
1.6071e-05
1.60711e-05
1.60713e-05
1.60715e-05
1.60717e-05
1.6072e-05
1.60723e-05
1.60726e-05
1.60729e-05
1.60732e-05
1.60735e-05
1.60737e-05
1.60738e-05
1.60738e-05
1.60736e-05
1.60731e-05
1.60721e-05
1.6071e-05
1.60697e-05
1.60689e-05
1.60677e-05
1.60876e-05
1.60844e-05
1.60811e-05
1.6079e-05
1.60777e-05
1.60769e-05
1.60763e-05
1.60759e-05
1.60758e-05
1.60758e-05
1.60758e-05
1.60758e-05
1.60755e-05
1.60751e-05
1.60747e-05
1.60743e-05
1.60738e-05
1.60732e-05
1.60727e-05
1.60721e-05
1.60714e-05
1.60708e-05
1.60702e-05
1.60696e-05
1.60691e-05
1.60685e-05
1.6068e-05
1.60675e-05
1.6067e-05
1.60665e-05
1.60661e-05
1.60657e-05
1.60653e-05
1.6065e-05
1.60646e-05
1.60643e-05
1.60641e-05
1.60639e-05
1.60642e-05
1.60639e-05
1.60647e-05
1.60852e-05
1.60827e-05
1.60801e-05
1.60785e-05
1.60776e-05
1.6077e-05
1.60766e-05
1.60764e-05
1.60764e-05
1.60764e-05
1.60764e-05
1.60764e-05
1.60764e-05
1.60764e-05
1.60764e-05
1.60761e-05
1.60758e-05
1.60755e-05
1.60751e-05
1.60747e-05
1.60743e-05
1.60739e-05
1.60735e-05
1.60732e-05
1.60728e-05
1.60725e-05
1.60721e-05
1.60718e-05
1.60715e-05
1.60712e-05
1.60708e-05
1.60705e-05
1.60702e-05
1.60699e-05
1.60695e-05
1.60691e-05
1.60689e-05
1.60688e-05
1.60687e-05
1.60687e-05
1.60686e-05
1.60833e-05
1.60814e-05
1.60793e-05
1.60781e-05
1.60774e-05
1.60769e-05
1.60766e-05
1.60764e-05
1.60762e-05
1.60762e-05
1.60761e-05
1.60762e-05
1.60762e-05
1.60763e-05
1.60764e-05
1.60764e-05
1.60765e-05
1.60766e-05
1.60767e-05
1.60768e-05
1.60769e-05
1.6077e-05
1.60771e-05
1.60772e-05
1.60774e-05
1.60775e-05
1.60777e-05
1.60778e-05
1.60779e-05
1.60781e-05
1.60783e-05
1.60784e-05
1.60786e-05
1.60787e-05
1.60789e-05
1.6079e-05
1.60791e-05
1.60791e-05
1.60791e-05
1.60791e-05
1.60791e-05
1.60817e-05
1.60803e-05
1.60787e-05
1.60777e-05
1.60769e-05
1.60764e-05
1.6076e-05
1.60758e-05
1.60758e-05
1.60757e-05
1.60757e-05
1.60757e-05
1.60757e-05
1.60757e-05
1.60757e-05
1.60757e-05
1.60757e-05
1.60757e-05
1.60757e-05
1.60756e-05
1.60756e-05
1.60756e-05
1.60756e-05
1.60756e-05
1.60756e-05
1.60756e-05
1.60756e-05
1.60757e-05
1.60757e-05
1.60757e-05
1.60757e-05
1.60758e-05
1.60758e-05
1.60758e-05
1.60759e-05
1.60759e-05
1.6076e-05
1.60761e-05
1.60762e-05
1.60764e-05
1.60765e-05
1.60804e-05
1.60793e-05
1.60782e-05
1.60773e-05
1.60767e-05
1.60763e-05
1.60761e-05
1.6076e-05
1.60759e-05
1.60757e-05
1.60756e-05
1.60755e-05
1.60754e-05
1.60753e-05
1.60752e-05
1.60751e-05
1.60749e-05
1.60748e-05
1.60746e-05
1.60745e-05
1.60744e-05
1.60742e-05
1.60741e-05
1.60739e-05
1.60738e-05
1.60737e-05
1.60736e-05
1.60734e-05
1.60733e-05
1.60732e-05
1.60731e-05
1.6073e-05
1.60729e-05
1.60728e-05
1.60728e-05
1.60727e-05
1.60726e-05
1.60725e-05
1.60724e-05
1.60724e-05
1.60725e-05
1.60794e-05
1.60786e-05
1.60777e-05
1.6077e-05
1.60766e-05
1.60764e-05
1.60762e-05
1.60762e-05
1.60761e-05
1.60761e-05
1.6076e-05
1.6076e-05
1.60759e-05
1.60758e-05
1.60757e-05
1.60757e-05
1.60756e-05
1.60755e-05
1.60754e-05
1.60753e-05
1.60753e-05
1.60752e-05
1.60751e-05
1.6075e-05
1.6075e-05
1.60749e-05
1.60748e-05
1.60748e-05
1.60747e-05
1.60747e-05
1.60746e-05
1.60745e-05
1.60745e-05
1.60744e-05
1.60744e-05
1.60743e-05
1.60743e-05
1.60742e-05
1.60742e-05
1.60741e-05
1.60741e-05
1.60786e-05
1.6078e-05
1.60773e-05
1.60768e-05
1.60765e-05
1.60764e-05
1.60764e-05
1.60763e-05
1.60763e-05
1.60763e-05
1.60763e-05
1.60762e-05
1.60762e-05
1.60762e-05
1.60761e-05
1.60761e-05
1.60761e-05
1.6076e-05
1.6076e-05
1.6076e-05
1.6076e-05
1.6076e-05
1.60761e-05
1.60761e-05
1.60761e-05
1.6076e-05
1.6076e-05
1.6076e-05
1.60759e-05
1.60759e-05
1.60759e-05
1.60758e-05
1.60758e-05
1.60758e-05
1.60758e-05
1.60757e-05
1.60757e-05
1.60757e-05
1.60757e-05
1.60756e-05
1.60757e-05
1.6078e-05
1.60775e-05
1.60769e-05
1.60766e-05
1.60764e-05
1.60763e-05
1.60763e-05
1.60763e-05
1.60763e-05
1.60764e-05
1.60764e-05
1.60764e-05
1.60765e-05
1.60765e-05
1.60765e-05
1.60766e-05
1.60766e-05
1.60766e-05
1.60766e-05
1.60767e-05
1.60767e-05
1.60768e-05
1.60768e-05
1.60768e-05
1.60768e-05
1.60769e-05
1.60769e-05
1.60769e-05
1.60769e-05
1.60769e-05
1.60769e-05
1.60769e-05
1.60769e-05
1.60769e-05
1.60769e-05
1.60769e-05
1.60768e-05
1.60769e-05
1.60769e-05
1.60769e-05
1.60769e-05
1.60776e-05
1.60772e-05
1.60767e-05
1.60764e-05
1.60763e-05
1.60762e-05
1.60763e-05
1.60763e-05
1.60763e-05
1.60764e-05
1.60764e-05
1.60765e-05
1.60765e-05
1.60765e-05
1.60766e-05
1.60766e-05
1.60767e-05
1.60767e-05
1.60767e-05
1.60768e-05
1.60768e-05
1.60769e-05
1.60769e-05
1.60769e-05
1.6077e-05
1.6077e-05
1.6077e-05
1.60771e-05
1.60771e-05
1.60771e-05
1.60771e-05
1.60771e-05
1.60772e-05
1.60772e-05
1.60772e-05
1.60772e-05
1.60772e-05
1.60772e-05
1.60773e-05
1.60773e-05
1.60773e-05
1.60772e-05
1.60768e-05
1.60764e-05
1.60762e-05
1.60762e-05
1.60762e-05
1.60762e-05
1.60763e-05
1.60763e-05
1.60764e-05
1.60764e-05
1.60765e-05
1.60765e-05
1.60766e-05
1.60766e-05
1.60767e-05
1.60767e-05
1.60768e-05
1.60768e-05
1.60769e-05
1.60769e-05
1.6077e-05
1.6077e-05
1.60771e-05
1.60771e-05
1.60771e-05
1.60772e-05
1.60772e-05
1.60772e-05
1.60773e-05
1.60773e-05
1.60773e-05
1.60773e-05
1.60774e-05
1.60774e-05
1.60774e-05
1.60774e-05
1.60775e-05
1.60775e-05
1.60775e-05
1.60775e-05
1.60768e-05
1.60765e-05
1.60762e-05
1.60761e-05
1.60761e-05
1.60761e-05
1.60761e-05
1.60762e-05
1.60763e-05
1.60763e-05
1.60764e-05
1.60765e-05
1.60765e-05
1.60766e-05
1.60766e-05
1.60767e-05
1.60767e-05
1.60768e-05
1.60768e-05
1.60769e-05
1.6077e-05
1.6077e-05
1.60771e-05
1.60771e-05
1.60772e-05
1.60772e-05
1.60772e-05
1.60773e-05
1.60773e-05
1.60774e-05
1.60774e-05
1.60774e-05
1.60774e-05
1.60775e-05
1.60775e-05
1.60775e-05
1.60776e-05
1.60776e-05
1.60776e-05
1.60777e-05
1.60777e-05
1.60765e-05
1.60763e-05
1.6076e-05
1.6076e-05
1.6076e-05
1.6076e-05
1.60761e-05
1.60761e-05
1.60762e-05
1.60763e-05
1.60764e-05
1.60764e-05
1.60765e-05
1.60766e-05
1.60766e-05
1.60767e-05
1.60767e-05
1.60768e-05
1.60769e-05
1.60769e-05
1.6077e-05
1.6077e-05
1.60771e-05
1.60771e-05
1.60772e-05
1.60772e-05
1.60773e-05
1.60773e-05
1.60774e-05
1.60774e-05
1.60774e-05
1.60775e-05
1.60775e-05
1.60775e-05
1.60776e-05
1.60776e-05
1.60776e-05
1.60777e-05
1.60777e-05
1.60777e-05
1.60778e-05
1.60762e-05
1.6076e-05
1.60759e-05
1.60758e-05
1.60758e-05
1.60759e-05
1.6076e-05
1.60761e-05
1.60761e-05
1.60762e-05
1.60763e-05
1.60764e-05
1.60764e-05
1.60765e-05
1.60766e-05
1.60767e-05
1.60767e-05
1.60768e-05
1.60768e-05
1.60769e-05
1.6077e-05
1.6077e-05
1.60771e-05
1.60771e-05
1.60772e-05
1.60773e-05
1.60773e-05
1.60773e-05
1.60774e-05
1.60774e-05
1.60775e-05
1.60775e-05
1.60775e-05
1.60776e-05
1.60776e-05
1.60776e-05
1.60777e-05
1.60777e-05
1.60777e-05
1.60778e-05
1.60778e-05
1.6076e-05
1.60758e-05
1.60757e-05
1.60757e-05
1.60757e-05
1.60758e-05
1.60759e-05
1.6076e-05
1.60761e-05
1.60761e-05
1.60762e-05
1.60763e-05
1.60764e-05
1.60765e-05
1.60765e-05
1.60766e-05
1.60767e-05
1.60767e-05
1.60768e-05
1.60769e-05
1.60769e-05
1.6077e-05
1.60771e-05
1.60771e-05
1.60772e-05
1.60772e-05
1.60773e-05
1.60773e-05
1.60774e-05
1.60774e-05
1.60775e-05
1.60775e-05
1.60775e-05
1.60776e-05
1.60776e-05
1.60776e-05
1.60777e-05
1.60777e-05
1.60777e-05
1.60778e-05
1.60778e-05
1.60757e-05
1.60756e-05
1.60755e-05
1.60755e-05
1.60756e-05
1.60757e-05
1.60758e-05
1.60759e-05
1.6076e-05
1.6076e-05
1.60761e-05
1.60762e-05
1.60763e-05
1.60764e-05
1.60764e-05
1.60765e-05
1.60766e-05
1.60767e-05
1.60767e-05
1.60768e-05
1.60769e-05
1.60769e-05
1.6077e-05
1.60771e-05
1.60771e-05
1.60772e-05
1.60772e-05
1.60773e-05
1.60773e-05
1.60774e-05
1.60774e-05
1.60775e-05
1.60775e-05
1.60775e-05
1.60776e-05
1.60776e-05
1.60777e-05
1.60777e-05
1.60777e-05
1.60778e-05
1.60778e-05
1.60755e-05
1.60754e-05
1.60754e-05
1.60754e-05
1.60755e-05
1.60756e-05
1.60757e-05
1.60757e-05
1.60758e-05
1.60759e-05
1.6076e-05
1.60761e-05
1.60762e-05
1.60763e-05
1.60763e-05
1.60764e-05
1.60765e-05
1.60766e-05
1.60767e-05
1.60767e-05
1.60768e-05
1.60769e-05
1.60769e-05
1.6077e-05
1.60771e-05
1.60771e-05
1.60772e-05
1.60772e-05
1.60773e-05
1.60773e-05
1.60774e-05
1.60774e-05
1.60774e-05
1.60775e-05
1.60775e-05
1.60776e-05
1.60776e-05
1.60776e-05
1.60777e-05
1.60777e-05
1.60777e-05
1.60752e-05
1.60752e-05
1.60752e-05
1.60752e-05
1.60753e-05
1.60754e-05
1.60755e-05
1.60756e-05
1.60757e-05
1.60758e-05
1.60759e-05
1.6076e-05
1.60761e-05
1.60761e-05
1.60762e-05
1.60763e-05
1.60764e-05
1.60765e-05
1.60765e-05
1.60766e-05
1.60767e-05
1.60768e-05
1.60768e-05
1.60769e-05
1.6077e-05
1.6077e-05
1.60771e-05
1.60771e-05
1.60772e-05
1.60772e-05
1.60773e-05
1.60773e-05
1.60774e-05
1.60774e-05
1.60774e-05
1.60775e-05
1.60775e-05
1.60776e-05
1.60776e-05
1.60776e-05
1.60776e-05
1.6075e-05
1.6075e-05
1.6075e-05
1.60751e-05
1.60751e-05
1.60752e-05
1.60753e-05
1.60754e-05
1.60755e-05
1.60756e-05
1.60757e-05
1.60758e-05
1.60759e-05
1.6076e-05
1.60761e-05
1.60762e-05
1.60762e-05
1.60763e-05
1.60764e-05
1.60765e-05
1.60766e-05
1.60766e-05
1.60767e-05
1.60768e-05
1.60768e-05
1.60769e-05
1.60769e-05
1.6077e-05
1.60771e-05
1.60771e-05
1.60771e-05
1.60772e-05
1.60772e-05
1.60773e-05
1.60773e-05
1.60774e-05
1.60774e-05
1.60774e-05
1.60775e-05
1.60775e-05
1.60775e-05
1.60747e-05
1.60747e-05
1.60748e-05
1.60749e-05
1.60749e-05
1.6075e-05
1.60751e-05
1.60752e-05
1.60753e-05
1.60754e-05
1.60755e-05
1.60756e-05
1.60757e-05
1.60758e-05
1.60759e-05
1.6076e-05
1.60761e-05
1.60762e-05
1.60762e-05
1.60763e-05
1.60764e-05
1.60765e-05
1.60765e-05
1.60766e-05
1.60767e-05
1.60767e-05
1.60768e-05
1.60768e-05
1.60769e-05
1.6077e-05
1.6077e-05
1.6077e-05
1.60771e-05
1.60771e-05
1.60772e-05
1.60772e-05
1.60772e-05
1.60773e-05
1.60773e-05
1.60774e-05
1.60774e-05
1.60745e-05
1.60745e-05
1.60746e-05
1.60746e-05
1.60747e-05
1.60748e-05
1.60749e-05
1.6075e-05
1.60751e-05
1.60752e-05
1.60753e-05
1.60754e-05
1.60755e-05
1.60756e-05
1.60757e-05
1.60758e-05
1.60759e-05
1.6076e-05
1.6076e-05
1.60761e-05
1.60762e-05
1.60763e-05
1.60764e-05
1.60764e-05
1.60765e-05
1.60766e-05
1.60766e-05
1.60767e-05
1.60767e-05
1.60768e-05
1.60768e-05
1.60769e-05
1.60769e-05
1.6077e-05
1.6077e-05
1.6077e-05
1.60771e-05
1.60771e-05
1.60771e-05
1.60772e-05
1.60772e-05
1.60742e-05
1.60743e-05
1.60743e-05
1.60744e-05
1.60745e-05
1.60746e-05
1.60747e-05
1.60748e-05
1.60749e-05
1.6075e-05
1.60751e-05
1.60752e-05
1.60753e-05
1.60754e-05
1.60755e-05
1.60756e-05
1.60756e-05
1.60757e-05
1.60758e-05
1.60759e-05
1.6076e-05
1.60761e-05
1.60761e-05
1.60762e-05
1.60763e-05
1.60763e-05
1.60764e-05
1.60765e-05
1.60765e-05
1.60766e-05
1.60766e-05
1.60766e-05
1.60767e-05
1.60767e-05
1.60768e-05
1.60768e-05
1.60768e-05
1.60769e-05
1.60769e-05
1.6077e-05
1.6077e-05
1.60739e-05
1.6074e-05
1.60741e-05
1.60741e-05
1.60742e-05
1.60743e-05
1.60744e-05
1.60745e-05
1.60746e-05
1.60747e-05
1.60748e-05
1.60749e-05
1.6075e-05
1.60751e-05
1.60752e-05
1.60753e-05
1.60754e-05
1.60755e-05
1.60756e-05
1.60756e-05
1.60757e-05
1.60758e-05
1.60759e-05
1.60759e-05
1.6076e-05
1.60761e-05
1.60761e-05
1.60762e-05
1.60762e-05
1.60763e-05
1.60763e-05
1.60764e-05
1.60764e-05
1.60765e-05
1.60765e-05
1.60766e-05
1.60766e-05
1.60766e-05
1.60766e-05
1.60767e-05
1.60767e-05
1.60736e-05
1.60737e-05
1.60738e-05
1.60739e-05
1.60739e-05
1.6074e-05
1.60741e-05
1.60742e-05
1.60743e-05
1.60744e-05
1.60745e-05
1.60746e-05
1.60747e-05
1.60748e-05
1.60749e-05
1.6075e-05
1.60751e-05
1.60752e-05
1.60753e-05
1.60753e-05
1.60754e-05
1.60755e-05
1.60756e-05
1.60756e-05
1.60757e-05
1.60758e-05
1.60758e-05
1.60759e-05
1.60759e-05
1.6076e-05
1.6076e-05
1.60761e-05
1.60761e-05
1.60762e-05
1.60762e-05
1.60762e-05
1.60763e-05
1.60763e-05
1.60763e-05
1.60764e-05
1.60764e-05
1.60733e-05
1.60734e-05
1.60735e-05
1.60735e-05
1.60736e-05
1.60737e-05
1.60738e-05
1.60739e-05
1.6074e-05
1.60741e-05
1.60741e-05
1.60742e-05
1.60743e-05
1.60744e-05
1.60745e-05
1.60746e-05
1.60747e-05
1.60748e-05
1.60749e-05
1.6075e-05
1.60751e-05
1.60752e-05
1.60752e-05
1.60753e-05
1.60754e-05
1.60754e-05
1.60755e-05
1.60755e-05
1.60756e-05
1.60756e-05
1.60757e-05
1.60757e-05
1.60758e-05
1.60758e-05
1.60758e-05
1.60759e-05
1.60759e-05
1.60759e-05
1.6076e-05
1.6076e-05
1.6076e-05
1.6073e-05
1.60731e-05
1.60731e-05
1.60732e-05
1.60733e-05
1.60733e-05
1.60734e-05
1.60735e-05
1.60736e-05
1.60737e-05
1.60738e-05
1.60739e-05
1.6074e-05
1.60741e-05
1.60742e-05
1.60742e-05
1.60743e-05
1.60744e-05
1.60745e-05
1.60746e-05
1.60747e-05
1.60748e-05
1.60748e-05
1.60749e-05
1.6075e-05
1.6075e-05
1.60751e-05
1.60751e-05
1.60752e-05
1.60752e-05
1.60753e-05
1.60753e-05
1.60753e-05
1.60754e-05
1.60754e-05
1.60754e-05
1.60755e-05
1.60755e-05
1.60755e-05
1.60755e-05
1.60756e-05
1.60726e-05
1.60727e-05
1.60728e-05
1.60728e-05
1.60729e-05
1.6073e-05
1.6073e-05
1.60731e-05
1.60732e-05
1.60733e-05
1.60733e-05
1.60734e-05
1.60735e-05
1.60736e-05
1.60737e-05
1.60738e-05
1.60739e-05
1.6074e-05
1.60741e-05
1.60741e-05
1.60742e-05
1.60743e-05
1.60744e-05
1.60744e-05
1.60745e-05
1.60746e-05
1.60746e-05
1.60747e-05
1.60747e-05
1.60747e-05
1.60748e-05
1.60748e-05
1.60749e-05
1.60749e-05
1.60749e-05
1.60749e-05
1.6075e-05
1.6075e-05
1.6075e-05
1.6075e-05
1.6075e-05
1.60723e-05
1.60723e-05
1.60724e-05
1.60724e-05
1.60725e-05
1.60725e-05
1.60726e-05
1.60727e-05
1.60727e-05
1.60728e-05
1.60729e-05
1.6073e-05
1.60731e-05
1.60731e-05
1.60732e-05
1.60733e-05
1.60734e-05
1.60735e-05
1.60736e-05
1.60736e-05
1.60737e-05
1.60738e-05
1.60738e-05
1.60739e-05
1.6074e-05
1.6074e-05
1.60741e-05
1.60741e-05
1.60741e-05
1.60742e-05
1.60742e-05
1.60743e-05
1.60743e-05
1.60743e-05
1.60743e-05
1.60744e-05
1.60744e-05
1.60744e-05
1.60744e-05
1.60744e-05
1.60744e-05
1.60719e-05
1.60719e-05
1.6072e-05
1.6072e-05
1.6072e-05
1.60721e-05
1.60721e-05
1.60722e-05
1.60722e-05
1.60723e-05
1.60724e-05
1.60724e-05
1.60725e-05
1.60726e-05
1.60727e-05
1.60728e-05
1.60728e-05
1.60729e-05
1.6073e-05
1.6073e-05
1.60731e-05
1.60732e-05
1.60732e-05
1.60733e-05
1.60733e-05
1.60734e-05
1.60734e-05
1.60735e-05
1.60735e-05
1.60735e-05
1.60736e-05
1.60736e-05
1.60736e-05
1.60737e-05
1.60737e-05
1.60737e-05
1.60737e-05
1.60737e-05
1.60737e-05
1.60737e-05
1.60738e-05
1.60714e-05
1.60715e-05
1.60715e-05
1.60715e-05
1.60716e-05
1.60716e-05
1.60716e-05
1.60717e-05
1.60717e-05
1.60718e-05
1.60718e-05
1.60719e-05
1.60719e-05
1.6072e-05
1.60721e-05
1.60721e-05
1.60722e-05
1.60723e-05
1.60723e-05
1.60724e-05
1.60724e-05
1.60725e-05
1.60725e-05
1.60726e-05
1.60726e-05
1.60727e-05
1.60727e-05
1.60728e-05
1.60728e-05
1.60728e-05
1.60728e-05
1.60729e-05
1.60729e-05
1.60729e-05
1.60729e-05
1.60729e-05
1.60729e-05
1.6073e-05
1.6073e-05
1.6073e-05
1.6073e-05
1.6071e-05
1.6071e-05
1.6071e-05
1.6071e-05
1.6071e-05
1.60711e-05
1.60711e-05
1.60711e-05
1.60711e-05
1.60712e-05
1.60712e-05
1.60713e-05
1.60713e-05
1.60713e-05
1.60714e-05
1.60715e-05
1.60715e-05
1.60716e-05
1.60716e-05
1.60716e-05
1.60717e-05
1.60717e-05
1.60718e-05
1.60718e-05
1.60718e-05
1.60719e-05
1.60719e-05
1.60719e-05
1.6072e-05
1.6072e-05
1.6072e-05
1.6072e-05
1.6072e-05
1.6072e-05
1.6072e-05
1.60721e-05
1.60721e-05
1.60721e-05
1.60721e-05
1.60721e-05
1.6072e-05
1.60704e-05
1.60705e-05
1.60705e-05
1.60705e-05
1.60705e-05
1.60705e-05
1.60705e-05
1.60705e-05
1.60705e-05
1.60705e-05
1.60706e-05
1.60706e-05
1.60706e-05
1.60707e-05
1.60707e-05
1.60707e-05
1.60707e-05
1.60708e-05
1.60708e-05
1.60708e-05
1.60709e-05
1.60709e-05
1.60709e-05
1.60709e-05
1.60709e-05
1.6071e-05
1.6071e-05
1.6071e-05
1.6071e-05
1.6071e-05
1.6071e-05
1.6071e-05
1.6071e-05
1.6071e-05
1.60711e-05
1.60711e-05
1.60711e-05
1.60711e-05
1.6071e-05
1.6071e-05
1.6071e-05
1.60699e-05
1.60699e-05
1.60699e-05
1.60699e-05
1.60699e-05
1.60699e-05
1.60699e-05
1.60699e-05
1.60699e-05
1.60699e-05
1.60699e-05
1.60699e-05
1.60699e-05
1.60699e-05
1.60699e-05
1.60699e-05
1.60699e-05
1.60699e-05
1.60699e-05
1.60699e-05
1.60699e-05
1.607e-05
1.607e-05
1.607e-05
1.607e-05
1.607e-05
1.607e-05
1.60699e-05
1.60699e-05
1.60699e-05
1.60699e-05
1.60699e-05
1.60699e-05
1.60699e-05
1.60699e-05
1.60699e-05
1.60698e-05
1.60698e-05
1.60698e-05
1.60698e-05
1.60698e-05
1.60693e-05
1.60693e-05
1.60693e-05
1.60693e-05
1.60693e-05
1.60693e-05
1.60693e-05
1.60693e-05
1.60693e-05
1.60693e-05
1.60692e-05
1.60692e-05
1.60692e-05
1.60692e-05
1.60692e-05
1.60692e-05
1.60691e-05
1.60691e-05
1.60691e-05
1.6069e-05
1.6069e-05
1.6069e-05
1.6069e-05
1.60689e-05
1.60689e-05
1.60689e-05
1.60689e-05
1.60688e-05
1.60688e-05
1.60688e-05
1.60688e-05
1.60688e-05
1.60688e-05
1.60688e-05
1.60688e-05
1.60688e-05
1.60688e-05
1.60688e-05
1.60688e-05
1.60688e-05
1.60688e-05
1.60687e-05
1.60687e-05
1.60687e-05
1.60687e-05
1.60687e-05
1.60687e-05
1.60686e-05
1.60686e-05
1.60686e-05
1.60686e-05
1.60686e-05
1.60686e-05
1.60685e-05
1.60685e-05
1.60685e-05
1.60684e-05
1.60684e-05
1.60683e-05
1.60683e-05
1.60683e-05
1.60682e-05
1.60682e-05
1.60682e-05
1.60682e-05
1.60682e-05
1.60683e-05
1.60683e-05
1.60683e-05
1.60683e-05
1.60683e-05
1.60683e-05
1.60684e-05
1.60684e-05
1.60684e-05
1.60684e-05
1.60685e-05
1.60685e-05
1.60685e-05
1.60686e-05
1.60686e-05
1.60686e-05
1.6068e-05
1.6068e-05
1.6068e-05
1.6068e-05
1.6068e-05
1.6068e-05
1.6068e-05
1.6068e-05
1.6068e-05
1.6068e-05
1.6068e-05
1.6068e-05
1.60679e-05
1.60679e-05
1.60679e-05
1.60678e-05
1.60678e-05
1.60678e-05
1.60678e-05
1.60679e-05
1.60679e-05
1.6068e-05
1.60681e-05
1.60682e-05
1.60683e-05
1.60684e-05
1.60686e-05
1.60687e-05
1.60688e-05
1.60689e-05
1.6069e-05
1.60691e-05
1.60692e-05
1.60693e-05
1.60694e-05
1.60695e-05
1.60696e-05
1.60697e-05
1.60698e-05
1.60698e-05
1.60699e-05
0.000588248
0.00080284
0.000958249
0.0010677
0.00114805
0.00120917
0.00125901
0.0013018
0.00133954
0.00137331
0.00140385
0.0014318
0.00145767
0.00148188
0.00150477
0.00152661
0.00154762
0.00156798
0.00158783
0.00160725
0.00162629
0.00164498
0.00166332
0.00168128
0.00169883
0.00171591
0.00173248
0.00174849
0.00176382
0.00177836
0.00179201
0.00180453
0.00181622
0.00182771
0.00183915
0.00185037
0.00186112
0.00187113
0.00188017
0.00188806
0.00189433
0.00190259
0.00191202
0.00192165
0.00193082
0.00193905
0.00194595
0.00195118
0.00195429
0.00195575
0.00195573
0.00195401
0.00195019
0.00194384
0.00193451
0.00192181
0.00190531
0.00188462
0.00185944
0.0018295
0.00179457
0.00175436
0.00170861
0.00165703
0.00159942
0.0015356
0.00146552
0.00138925
0.00130706
0.00121916
0.00112722
0.00102752
0.000942063
0.000779015
0.000885362
0.00101066
0.00109848
0.00116297
0.00121275
0.00125211
0.00128422
0.00131159
0.00133598
0.00135845
0.00137969
0.00140013
0.00142007
0.00143971
0.0014592
0.00147867
0.00149819
0.00151781
0.00153755
0.00155744
0.00157746
0.00159759
0.00161777
0.00163796
0.00165808
0.00167806
0.00169781
0.0017172
0.00173614
0.00175453
0.00177226
0.0017892
0.00180527
0.00182059
0.0018353
0.00184942
0.00186288
0.00187554
0.00188723
0.00189783
0.00190691
0.00191539
0.00192372
0.00193185
0.00193953
0.00194645
0.00195231
0.00195688
0.00195975
0.00196491
0.0019716
0.00197874
0.00198554
0.00199144
0.00199598
0.00199877
0.00199944
0.00199762
0.00199357
0.00198737
0.00197883
0.00196762
0.00195335
0.00193563
0.00191407
0.0018883
0.00185798
0.00182278
0.00178246
0.00173656
0.00168593
0.00162646
0.00157518
0.00146223
0.000995172
0.00106149
0.00110411
0.0011318
0.0011514
0.00116643
0.00117898
0.00119048
0.00120183
0.00121361
0.00122619
0.00123982
0.0012546
0.00127058
0.00128776
0.00130612
0.00132558
0.00134609
0.00136755
0.00138989
0.001413
0.00143679
0.00146116
0.00148599
0.00151119
0.00153665
0.00156224
0.00158784
0.00161335
0.00163862
0.00166355
0.00168796
0.00171172
0.00173476
0.00175708
0.00177866
0.00179947
0.00181949
0.00183858
0.00185665
0.00187347
0.00188906
0.0019036
0.00191723
0.00192993
0.00194165
0.00195223
0.00196155
0.00196925
0.00197613
0.00198273
0.00198912
0.0019951
0.00200039
0.0020047
0.00200777
0.00200923
0.00200946
0.00201193
0.00201606
0.00202085
0.00202548
0.00202937
0.00203203
0.00203309
0.00203216
0.00202894
0.0020231
0.00201432
0.00200253
0.00198828
0.0019695
0.00195352
0.00191236
0.000963942
0.000955293
0.000938858
0.000921632
0.00090696
0.000895082
0.000886016
0.000879933
0.000876883
0.000876829
0.000879734
0.000885568
0.000894282
0.000905809
0.000920056
0.000936913
0.000956247
0.000977909
0.00100173
0.00102753
0.00105513
0.00108434
0.00111495
0.00114678
0.00117965
0.00121335
0.00124773
0.0012826
0.00131779
0.00135313
0.00138846
0.00142361
0.00145842
0.00149274
0.00152644
0.00155946
0.0015917
0.00162308
0.00165353
0.001683
0.00171139
0.00173863
0.0017647
0.00178961
0.00181339
0.00183605
0.00185755
0.00187783
0.0018967
0.00191418
0.00193039
0.00194547
0.00195948
0.0019724
0.00198413
0.00199456
0.00200354
0.0020109
0.00201727
0.00202316
0.00202871
0.00203385
0.00203842
0.00204219
0.00204495
0.00204647
0.00204656
0.00204506
0.00204162
0.0020401
0.00204042
0.00204155
0.00204318
0.00204491
0.000717691
0.000657247
0.000601219
0.00055391
0.000515712
0.000484564
0.000458869
0.000437832
0.000420932
0.000407772
0.000398092
0.000391742
0.000388643
0.000388757
0.000392083
0.000398639
0.000408454
0.000421556
0.000437963
0.000457678
0.000480676
0.0005069
0.000536256
0.000568605
0.000603766
0.000641517
0.000681594
0.000723702
0.000767522
0.000812722
0.000858965
0.000905924
0.000953284
0.00100075
0.00104808
0.00109505
0.00114149
0.00118725
0.00123223
0.00127635
0.00131952
0.00136168
0.00140276
0.00144273
0.00148155
0.00151916
0.00155553
0.00159063
0.0016244
0.0016568
0.00168779
0.00171739
0.00174563
0.00177251
0.00179806
0.00182224
0.00184502
0.00186634
0.00188619
0.00190468
0.00192194
0.00193807
0.00195312
0.00196708
0.00197992
0.00199157
0.00200195
0.00201098
0.00201848
0.00202485
0.00203047
0.00203576
0.00203982
0.00204751
0.000308451
0.000260869
0.000217339
0.00018054
0.000150116
0.000124418
0.000102193
8.29023e-05
6.63969e-05
5.2668e-05
4.16893e-05
3.32966e-05
2.71608e-05
2.28561e-05
1.99569e-05
1.81064e-05
1.70481e-05
1.66317e-05
1.68144e-05
1.76699e-05
1.94132e-05
2.24389e-05
2.73468e-05
3.48924e-05
4.57952e-05
6.04388e-05
7.86936e-05
0.000100074
0.000124098
0.000150535
0.000179406
0.000210863
0.000245068
0.000282121
0.000322025
0.000364678
0.000409886
0.000457372
0.000506801
0.000557794
0.00060995
0.000662863
0.000716136
0.000769396
0.000822311
0.000874585
0.000925971
0.00097627
0.00102532
0.001073
0.00111922
0.00116392
0.00120708
0.0012487
0.00128879
0.00132736
0.00136443
0.00140001
0.00143411
0.00146673
0.00149793
0.00152773
0.00155616
0.00158325
0.00160903
0.0016335
0.00165666
0.00167851
0.00169898
0.00171813
0.00173577
0.00175288
0.00176562
0.00179062
3.24228e-05
2.04084e-05
1.4334e-05
1.1875e-05
1.09264e-05
1.05397e-05
1.03713e-05
1.02985e-05
1.02744e-05
1.02804e-05
1.03096e-05
1.03601e-05
1.04322e-05
1.0527e-05
1.06454e-05
1.07876e-05
1.09525e-05
1.11374e-05
1.13381e-05
1.15484e-05
1.17608e-05
1.19666e-05
1.21564e-05
1.23212e-05
1.24531e-05
1.25466e-05
1.25996e-05
1.26147e-05
1.25998e-05
1.2569e-05
1.25427e-05
1.25474e-05
1.26229e-05
1.28226e-05
1.32283e-05
1.39773e-05
1.53089e-05
1.76365e-05
2.16255e-05
2.8201e-05
3.83426e-05
5.26309e-05
7.08776e-05
9.22865e-05
0.000116001
0.000141481
0.00016851
0.000197042
0.00022706
0.000258506
0.000291263
0.000325157
0.000359971
0.000395463
0.000431378
0.000467459
0.000503456
0.000539132
0.000574266
0.000608658
0.00064213
0.000674527