/*--------------------------------*- C++ -*----------------------------------*\
| =========                 |                                                 |
| \\      /  F ield         | OpenFOAM: The Open Source CFD Toolbox           |
|  \\    /   O peration     | Version:  2312                                  |
|   \\  /    A nd           | Website:  www.openfoam.com                      |
|    \\/     M anipulation  |                                                 |
\*---------------------------------------------------------------------------*/
FoamFile
{
    version     2.0;
    format      ascii;
    arch        "LSB;label=32;scalar=64";
    class       volSymmTensorField;
    location    "248";
    object      turbulenceProperties:devReff;
}
// * * * * * * * * * * * * * * * * * * * * * * * * * * * * * * * * * * * * * //

dimensions      [0 2 -2 0 0 0 0];

internalField   nonuniform List<symmTensor> 
11040
(
(0.0174439 0.00648349 2.26855e-21 -0.01637 -1.19981e-20 -0.00107389)
(0.0411402 0.0064566 1.62031e-20 -0.0442985 7.35072e-21 0.00315828)
(0.101193 -0.0176218 9.98178e-20 -0.110427 1.23661e-19 0.00923449)
(0.208041 -0.0951189 -8.49655e-20 -0.223091 -2.89245e-20 0.0150499)
(0.352761 -0.248092 -1.05223e-19 -0.373129 -2.00077e-20 0.0203685)
(0.530596 -0.494208 -1.0564e-19 -0.556821 1.836e-20 0.0262251)
(0.708201 -0.821362 -3.76532e-19 -0.739058 -6.46858e-19 0.0308573)
(0.805096 -1.12839 -6.60025e-19 -0.835576 -3.33376e-19 0.03048)
(0.802455 -1.33722 2.9065e-19 -0.828181 2.90911e-20 0.0257262)
(0.742427 -1.45755 -5.10727e-19 -0.762258 5.57263e-21 0.0198311)
(0.663108 -1.52806 1.87578e-19 -0.677978 3.4889e-19 0.0148705)
(0.581453 -1.57364 -9.29414e-19 -0.592653 1.8029e-19 0.0111997)
(0.501355 -1.60364 -3.64085e-19 -0.509984 -1.99609e-19 0.00862957)
(0.422972 -1.61974 -1.6261e-19 -0.429826 1.78596e-19 0.00685431)
(0.346223 -1.62189 3.55905e-20 -0.351807 -8.11776e-21 0.00558379)
(0.271444 -1.61042 -3.63766e-19 -0.276099 -2.16195e-19 0.00465482)
(0.199188 -1.58631 6.03685e-20 -0.203151 1.59052e-20 0.00396346)
(0.130341 -1.55097 1.82184e-19 -0.133746 3.70943e-19 0.00340485)
(0.0654561 -1.50574 -9.58948e-20 -0.0684045 3.77327e-21 0.0029484)
(0.00540022 -1.45177 -3.61153e-20 -0.00790301 -4.89817e-20 0.00250279)
(-0.0497249 -1.38837 -7.55153e-21 0.0476124 3.0973e-20 0.0021125)
(-0.0944882 -1.31986 1.34769e-19 0.0931064 7.72473e-20 0.00138179)
(-0.125573 -1.25499 -1.05922e-19 0.124983 -5.1006e-20 0.000590826)
(-0.14914 -1.19727 3.51892e-20 0.148753 1.73407e-19 0.000387412)
(-0.16854 -1.14513 -1.39807e-19 0.168153 -1.33505e-19 0.000386783)
(-0.184355 -1.09611 -1.79851e-21 0.184042 -3.20158e-19 0.000313259)
(-0.1972 -1.04902 -6.35001e-20 0.196958 -1.30653e-19 0.000242804)
(-0.207471 -1.00351 -2.63804e-19 0.207291 8.38538e-20 0.000180064)
(-0.21553 -0.959268 -1.02897e-19 0.215403 -7.94038e-20 0.000126951)
(-0.221556 -0.915882 1.14799e-19 0.221488 -2.1553e-19 6.82985e-05)
(-0.225696 -0.872886 8.72436e-20 0.225688 1.06752e-19 8.15347e-06)
(-0.227992 -0.82979 4.9602e-19 0.228049 -1.0131e-19 -5.70096e-05)
(-0.228386 -0.786115 6.03457e-19 0.228519 1.65911e-19 -0.000132623)
(-0.226768 -0.741166 7.04519e-20 0.226985 1.10171e-19 -0.000216775)
(-0.222902 -0.694077 1.26225e-19 0.223211 -1.46027e-20 -0.00030898)
(-0.216348 -0.644189 2.90502e-19 0.216781 5.15458e-20 -0.00043297)
(-0.206474 -0.590183 -7.31417e-20 0.207035 3.78238e-20 -0.000560303)
(-0.192682 -0.531769 4.84484e-20 0.193473 5.97389e-21 -0.000791148)
(-0.172761 -0.461757 -1.66518e-19 0.173552 6.34817e-20 -0.000791539)
(-0.147125 -0.395384 -3.2444e-20 0.148976 8.7017e-20 -0.00185039)
(-0.107892 -0.262072 1.61631e-21 0.10792 -1.2461e-20 -2.74767e-05)
(0.00601323 -0.002879 -2.75918e-21 -0.00600642 2.0169e-21 -6.80705e-06)
(0.00235357 -0.00702676 8.36424e-22 -0.000932589 7.12699e-21 -0.00142098)
(-0.000457028 -0.00717631 -4.2316e-20 0.00306874 -4.10862e-20 -0.00261171)
(-0.00099439 -0.00616301 -4.24566e-21 0.00396826 -4.62704e-21 -0.00297387)
(-0.000520123 -0.00575399 2.63187e-22 0.00351101 -1.61001e-21 -0.00299089)
(0.000230056 -0.00746242 -1.56068e-20 0.00334418 -1.64341e-20 -0.00357424)
(0.0019521 -0.0144053 -1.40976e-20 0.00389544 6.43322e-20 -0.00584754)
(0.00595816 -0.0273719 1.23595e-19 0.00296439 1.40417e-19 -0.00892255)
(0.0116698 -0.041989 -8.54925e-21 -0.00115649 -2.36334e-20 -0.0105133)
(0.0176206 -0.0560266 6.88452e-20 -0.00718414 2.67602e-20 -0.0104365)
(0.0226711 -0.0688592 -1.01612e-19 -0.013333 -2.13783e-19 -0.00933807)
(0.0261401 -0.0803542 7.01193e-19 -0.0182924 7.71618e-20 -0.00784771)
(0.0277936 -0.0905849 -9.45302e-21 -0.0214794 1.98666e-19 -0.00631421)
(0.0277269 -0.0997793 5.34613e-19 -0.0227973 3.82719e-20 -0.00492967)
(0.0261891 -0.108153 -2.82243e-19 -0.0224046 -5.53906e-20 -0.00378445)
(0.0234656 -0.115815 8.95887e-20 -0.0205644 2.26449e-19 -0.00290117)
(0.0198285 -0.122787 1.70055e-19 -0.0175687 7.68501e-20 -0.00225973)
(0.0155284 -0.128995 1.79558e-19 -0.0137151 -2.08695e-19 -0.00181328)
(0.0107519 -0.134447 1.22377e-21 -0.00925264 -1.04172e-20 -0.0014993)
(0.00571363 -0.139178 -1.602e-20 -0.00444917 3.19965e-20 -0.00126446)
(0.000586062 -0.143676 -5.47642e-20 0.000429659 1.17208e-20 -0.00101572)
(-0.00399789 -0.147167 -1.0603e-19 0.00458932 -8.63494e-20 -0.000591424)
(-0.00782571 -0.148242 2.14656e-19 0.00797615 1.34828e-19 -0.00015044)
(-0.0114672 -0.147145 3.32559e-20 0.0113872 -1.27768e-19 8.00089e-05)
(-0.0148362 -0.145074 4.4902e-20 0.0147309 8.21567e-20 0.000105292)
(-0.0177465 -0.142785 -9.90944e-20 0.0176702 3.51608e-19 7.62825e-05)
(-0.020284 -0.140541 -4.45643e-20 0.0202153 1.88972e-19 6.86622e-05)
(-0.0225203 -0.138378 4.14669e-19 0.0224407 -2.69428e-20 7.96014e-05)
(-0.0245076 -0.136321 -1.90962e-21 0.0244054 6.24061e-20 0.000102229)
(-0.026273 -0.134402 -2.59173e-19 0.0261369 1.46001e-19 0.000136146)
(-0.0278529 -0.132663 -3.76266e-19 0.0276693 -8.13351e-20 0.000183596)
(-0.0292743 -0.131157 -6.92341e-19 0.0290277 -1.27892e-19 0.000246542)
(-0.0305543 -0.129936 -5.51227e-19 0.0302272 -2.53877e-19 0.000327116)
(-0.0317154 -0.12909 -2.78112e-19 0.0312879 -6.40055e-20 0.000427551)
(-0.0327774 -0.128756 1.62055e-19 0.0322211 -2.08488e-20 0.000556261)
(-0.0336921 -0.129104 -5.39146e-19 0.0329801 -1.41134e-19 0.000711984)
(-0.0345749 -0.13034 4.17773e-19 0.033631 -9.17503e-20 0.000943915)
(-0.034948 -0.132962 -3.09054e-19 0.0338388 3.72875e-20 0.00110927)
(-0.0364253 -0.137369 6.0501e-20 0.0346008 -6.03267e-20 0.00182454)
(-0.0325325 -0.145763 1.5097e-19 0.0320691 -1.72636e-19 0.000463387)
(-0.0415383 -0.162986 -3.29961e-19 0.0338056 1.19523e-19 0.00773267)
(0.00439885 -0.00185982 7.00616e-22 -0.00439114 1.86094e-21 -7.71278e-06)
(0.00123056 -0.00365294 -1.39726e-20 -0.00138377 -8.84234e-21 0.000153202)
(-0.00128972 -0.00202086 2.16035e-20 0.000629105 1.4255e-20 0.000660611)
(-0.00184314 8.03924e-05 2.86792e-20 0.000734386 1.79434e-20 0.00110875)
(-0.0014454 0.00130311 -1.0194e-21 0.000188408 -1.01427e-21 0.001257)
(-0.000964867 0.00175013 8.99857e-21 -0.000224138 8.27124e-21 0.00118901)
(-0.000624953 0.00180112 1.82943e-20 -0.000417766 6.07058e-21 0.00104272)
(-0.000400779 0.00168262 1.79178e-20 -0.000482962 -1.94704e-21 0.000883741)
(-0.000241475 0.00150671 -1.39965e-20 -0.000502257 -3.88612e-21 0.000743731)
(-0.000111434 0.00133225 9.47623e-22 -0.000536043 -4.4242e-21 0.000647477)
(2.58181e-05 0.00112365 -1.42974e-20 -0.000619056 6.11561e-21 0.000593238)
(0.00022838 0.000780061 -3.86796e-20 -0.000824623 -3.17172e-20 0.000596243)
(0.0005874 -0.000127253 5.36793e-20 -0.00119388 7.17603e-21 0.000606475)
(0.00114497 -0.00220721 -8.19056e-20 -0.00168803 -3.29545e-20 0.000543064)
(0.001833 -0.00582769 7.36571e-20 -0.00220683 5.53166e-20 0.000373833)
(0.00252189 -0.0110311 3.44579e-20 -0.00265372 -2.29199e-20 0.00013183)
(0.00307172 -0.0177252 -2.16558e-20 -0.00294117 -6.00165e-20 -0.000130548)
(0.00333846 -0.0257348 -2.91947e-20 -0.00296521 -5.17914e-20 -0.000373251)
(0.00318378 -0.0348013 -1.00869e-21 -0.00261959 -2.05521e-21 -0.000564194)
(0.00251444 -0.0445671 7.8192e-21 -0.00181605 4.57608e-21 -0.000698389)
(0.00128287 -0.0547488 9.20317e-20 -0.000545191 1.17868e-20 -0.000737679)
(-0.000483471 -0.0647859 8.35239e-20 0.00118895 1.24863e-20 -0.000705482)
(-0.00271107 -0.0738365 -2.04643e-20 0.00345348 -8.22719e-20 -0.000742412)
(-0.0052093 -0.0813931 1.01754e-20 0.00595484 -3.83334e-20 -0.000745544)
(-0.00768903 -0.0874535 -1.32645e-19 0.00837606 -4.75699e-20 -0.000687037)
(-0.0100342 -0.0922564 3.3679e-19 0.0106551 -1.02921e-19 -0.000620821)
(-0.0122509 -0.0959819 2.11604e-19 0.0128039 2.25794e-20 -0.000553035)
(-0.0143338 -0.0988172 -4.06548e-19 0.0148248 -1.14071e-19 -0.000490989)
(-0.0162668 -0.100945 -7.82766e-20 0.0167045 6.11042e-20 -0.000437674)
(-0.0180351 -0.102527 8.55385e-20 0.0184332 1.36186e-19 -0.000398082)
(-0.0196316 -0.103689 4.12222e-19 0.020002 -4.73248e-21 -0.000370325)
(-0.0210504 -0.104539 -1.87856e-19 0.0214031 2.72634e-19 -0.000352748)
(-0.0222798 -0.105169 5.05718e-19 0.0226264 -4.05169e-20 -0.000346624)
(-0.0232984 -0.105652 6.24613e-19 0.0236485 -4.3012e-20 -0.000350164)
(-0.0240818 -0.10609 -1.48914e-19 0.0244392 -3.69876e-20 -0.000357424)
(-0.024544 -0.106592 -4.19536e-19 0.0249253 1.32677e-19 -0.000381323)
(-0.0247699 -0.107364 -5.71528e-19 0.025152 4.50812e-20 -0.000382151)
(-0.0240978 -0.108484 6.1838e-19 0.0245919 -8.31685e-20 -0.000494069)
(-0.0245001 -0.111076 1.04661e-19 0.0246597 -1.18034e-20 -0.000159636)
(-0.0185013 -0.114132 1.88834e-19 0.0198835 -2.27467e-20 -0.0013822)
(-0.0300195 -0.130342 3.16531e-19 0.0270761 -1.60245e-19 0.00294339)
(0.00291519 -0.0010943 -3.35936e-23 -0.00294004 -7.85345e-22 2.48586e-05)
(0.00133231 -0.00266681 3.78852e-21 -0.00132029 9.09399e-22 -1.20222e-05)
(-0.000489731 -0.00266035 -1.62017e-20 0.000605572 -8.6501e-21 -0.000115841)
(-0.00148695 -0.00189323 -2.41728e-20 0.00175278 -1.65743e-20 -0.000265834)
(-0.0016876 -0.00113412 2.91306e-21 0.00210684 2.11933e-21 -0.000419246)
(-0.00149798 -0.000651923 1.50832e-20 0.00201078 5.06435e-21 -0.000512796)
(-0.00122478 -0.000401909 -4.11467e-21 0.00176135 -5.91234e-21 -0.000536577)
(-0.000981641 -0.000274537 -5.72579e-21 0.00149514 -6.18762e-21 -0.000513502)
(-0.000780721 -0.000201485 5.66434e-21 0.0012463 4.6032e-21 -0.00046558)
(-0.000613065 -0.000155455 -6.93572e-21 0.00101887 -7.37796e-22 -0.00040581)
(-0.000472201 -0.000125476 1.66551e-20 0.000813663 6.98609e-21 -0.000341462)
(-0.000350159 -0.000103409 -4.27594e-21 0.000623991 3.59319e-21 -0.000273832)
(-0.000245724 -8.85456e-05 -6.40822e-22 0.000454213 -3.5859e-21 -0.000208488)
(-0.000158113 -8.43503e-05 1.3994e-20 0.000309018 4.96987e-21 -0.000150905)
(-8.62574e-05 -9.76955e-05 6.00393e-21 0.000191196 -3.72338e-21 -0.000104938)
(-2.50186e-05 -0.000138315 -5.13469e-21 9.52019e-05 -2.55236e-21 -7.01833e-05)
(3.6169e-05 -0.000229893 -9.55798e-21 7.21489e-06 7.83293e-22 -4.33839e-05)
(0.000116742 -0.000433482 -4.80182e-21 -9.81675e-05 -5.28571e-22 -1.85746e-05)
(0.000246193 -0.000887238 8.41867e-22 -0.000260471 7.82767e-22 1.42785e-05)
(0.00044485 -0.00180701 -1.06675e-21 -0.000508541 -1.72952e-21 6.36911e-05)
(0.000695027 -0.00346506 -7.90951e-21 -0.000831076 -4.46874e-21 0.000136049)
(0.000874757 -0.00595358 -2.82407e-20 -0.00108535 -9.14712e-21 0.000210596)
(0.000847064 -0.00904835 -1.16217e-20 -0.00110417 -6.58582e-21 0.00025711)
(0.00060209 -0.0125866 -2.94014e-20 -0.000906779 9.48225e-21 0.000304689)
(0.00018228 -0.016512 -6.31091e-20 -0.000536497 4.57806e-20 0.000354217)
(-0.000401359 -0.0207755 -2.8027e-19 1.97158e-05 -1.95295e-20 0.000381643)
(-0.001154 -0.0252993 4.10668e-20 0.000762088 -3.72222e-20 0.000391909)
(-0.00206851 -0.0299902 5.68344e-20 0.00167519 8.57532e-20 0.000393323)
(-0.00312446 -0.0347715 1.97585e-19 0.00273483 1.62274e-21 0.000389627)
(-0.00429503 -0.0395824 1.64585e-19 0.00391485 -5.71385e-20 0.000380181)
(-0.00555232 -0.0443829 -2.95589e-19 0.0051853 -1.21809e-20 0.000367016)
(-0.0068686 -0.0491569 2.56724e-19 0.00651678 -5.77409e-21 0.000351821)
(-0.00821091 -0.0539059 -8.18236e-19 0.00787682 9.6918e-20 0.000334089)
(-0.00954652 -0.0586746 -2.00676e-19 0.00923203 -1.30709e-20 0.00031449)
(-0.0108383 -0.0635355 -1.87663e-19 0.0105424 5.65783e-20 0.000295907)
(-0.0120036 -0.0685703 -8.13778e-20 0.0117378 5.3535e-20 0.000265829)
(-0.0130635 -0.0739408 -2.35786e-21 0.0128073 2.60142e-20 0.000256187)
(-0.0135273 -0.0797964 9.4306e-20 0.0133879 -2.45957e-20 0.000139395)
(-0.0148128 -0.0870671 -1.94006e-19 0.0144035 3.21811e-20 0.000409294)
(-0.0112297 -0.0942766 3.32079e-19 0.0120361 -1.65017e-20 -0.000806463)
(-0.022549 -0.111984 -9.04613e-20 0.0195402 5.28344e-20 0.00300884)
(0.00197617 -0.00066811 2.36591e-21 -0.0019857 1.07813e-21 9.53014e-06)
(0.00119725 -0.00172909 -3.52968e-21 -0.00120519 -2.64301e-21 7.93973e-06)
(2.35349e-05 -0.00194797 1.62554e-20 -2.50108e-05 5.7237e-21 1.47587e-06)
(-0.000835524 -0.00143943 2.23341e-20 0.000781938 1.17098e-20 5.35862e-05)
(-0.00113019 -0.000692283 -2.01903e-20 0.00100378 -9.02731e-21 0.000126419)
(-0.00103205 -8.80235e-05 1.71843e-21 0.000843266 -8.15073e-22 0.000188783)
(-0.000795552 0.000278945 -3.13044e-21 0.000563593 -1.52991e-21 0.000231959)
(-0.000563939 0.000466665 -9.50394e-21 0.000307361 -1.86356e-21 0.000256578)
(-0.000378348 0.00054942 2.90166e-21 0.000113709 3.84667e-22 0.000264639)
(-0.000239455 0.000574718 3.77372e-21 -1.92454e-05 1.13196e-21 0.000258701)
(-0.000139425 0.000570002 5.87533e-21 -0.000103225 -2.76972e-21 0.000242649)
(-7.0889e-05 0.000548546 -3.09985e-22 -0.000147613 7.12584e-22 0.000218502)
(-2.61691e-05 0.000519362 -6.00479e-22 -0.000163475 6.48165e-22 0.000189644)
(9.6145e-07 0.000486427 -8.36809e-21 -0.000158884 -6.8352e-21 0.000157922)
(1.71207e-05 0.000451351 -4.59602e-21 -0.00014292 -8.37454e-23 0.0001258)
(2.80264e-05 0.000415077 2.97191e-22 -0.000123878 4.12983e-22 9.58514e-05)
(3.66787e-05 0.00037764 2.7267e-21 -0.000106133 1.88556e-21 6.9454e-05)
(4.45405e-05 0.000339012 -3.31601e-21 -9.17431e-05 1.69687e-22 4.72026e-05)
(5.25325e-05 0.000298949 5.66095e-22 -8.18636e-05 -1.43474e-22 2.93311e-05)
(6.11803e-05 0.000257193 -9.23074e-22 -7.65353e-05 1.57417e-22 1.5355e-05)
(7.21378e-05 0.00021157 2.16076e-21 -7.73638e-05 7.11478e-22 5.22598e-06)
(8.35801e-05 0.000158863 -2.27214e-23 -8.14305e-05 6.07567e-22 -2.1496e-06)
(9.17596e-05 0.000100273 -3.2306e-21 -8.29156e-05 7.02019e-22 -8.844e-06)
(9.94927e-05 2.99435e-05 5.41788e-21 -8.48809e-05 1.18047e-21 -1.46118e-05)
(0.000112107 -7.638e-05 1.35492e-20 -9.13257e-05 -1.52746e-21 -2.0781e-05)
(0.000129033 -0.000263498 9.35283e-21 -9.90855e-05 9.49787e-21 -2.99478e-05)
(0.000142619 -0.000589116 -2.45351e-21 -0.000100404 8.31166e-23 -4.22144e-05)
(0.000139611 -0.00110789 3.06509e-20 -8.3641e-05 -9.71715e-21 -5.59696e-05)
(0.000106241 -0.0018596 -5.37861e-21 -3.6745e-05 -1.41218e-20 -6.94958e-05)
(3.13565e-05 -0.0028717 -5.0214e-20 5.07151e-05 -3.57158e-23 -8.20716e-05)
(-9.34145e-05 -0.00417323 5.42853e-20 0.000186648 1.17863e-20 -9.32338e-05)
(-0.000275452 -0.00580599 -1.15051e-20 0.00037819 -9.30254e-21 -0.000102739)
(-0.000521106 -0.00782552 2.39564e-19 0.000631991 -2.39192e-22 -0.000110885)
(-0.000836776 -0.0103214 1.34776e-19 0.000954748 -1.83875e-20 -0.000117972)
(-0.00122896 -0.0134134 9.52769e-20 0.00135166 -7.87041e-21 -0.000122703)
(-0.00168832 -0.0172571 9.84179e-20 0.00181797 -8.88889e-21 -0.000129645)
(-0.00224815 -0.0220687 -8.07652e-20 0.00237125 1.04388e-20 -0.000123105)
(-0.00272207 -0.0282064 1.73637e-20 0.00289032 -3.1439e-22 -0.000168255)
(-0.00384333 -0.0365494 -8.29097e-20 0.00383086 9.03884e-21 1.24665e-05)
(-0.00276849 -0.0461995 -3.01623e-19 0.00344739 5.50819e-20 -0.000678906)
(-0.010867 -0.0673878 2.51531e-19 0.00901164 -3.15639e-20 0.00185533)
(0.0013279 -0.000420484 -2.69001e-21 -0.00133248 -1.33351e-21 4.57175e-06)
(0.000954977 -0.00110389 1.09642e-20 -0.000965777 2.96358e-21 1.08e-05)
(0.000265396 -0.00142626 -7.05941e-21 -0.00025282 2.28244e-22 -1.2576e-05)
(-0.000412963 -0.00131191 -6.46532e-21 0.000430273 -2.58039e-21 -1.73097e-05)
(-0.000836699 -0.00092384 4.46961e-21 0.000865068 2.14486e-21 -2.83687e-05)
(-0.000969768 -0.000501495 -2.82218e-21 0.00102265 -1.19609e-21 -5.28802e-05)
(-0.000918571 -0.000182684 -4.64496e-21 0.000999509 -1.59178e-21 -8.09388e-05)
(-0.000796261 1.378e-05 -5.21431e-22 0.000900605 1.28658e-21 -0.000104344)
(-0.000664952 0.000120449 -2.45593e-22 0.000786241 3.4862e-22 -0.000121289)
(-0.000546938 0.000171647 -9.13113e-21 0.000679427 -3.26487e-21 -0.000132489)
(-0.000446965 0.000190745 -6.9404e-21 0.000585417 -3.17503e-22 -0.000138452)
(-0.000363553 0.000192062 4.43982e-21 0.000502623 -3.36531e-22 -0.00013907)
(-0.000293934 0.000183947 1.36936e-21 0.0004287 8.96628e-22 -0.000134767)
(-0.000234373 0.000171864 -1.06621e-20 0.000360335 1.93884e-22 -0.000125962)
(-0.000181135 0.000159647 9.15645e-21 0.000293973 1.87778e-21 -0.000112838)
(-0.000133457 0.000148322 -4.26665e-21 0.000231018 -4.47757e-22 -9.7561e-05)
(-9.10826e-05 0.000137831 -3.37546e-23 0.000172943 -1.70381e-21 -8.18609e-05)
(-5.34659e-05 0.000127828 -1.0291e-21 0.000120223 1.10893e-21 -6.67575e-05)
(-1.99956e-05 0.000117858 -9.47015e-22 7.2708e-05 -1.96816e-22 -5.27125e-05)
(9.86764e-06 0.00010745 6.32926e-22 3.03539e-05 4.46783e-22 -4.02215e-05)
(3.6354e-05 9.51955e-05 9.53374e-22 -7.34593e-06 -5.70865e-22 -2.90081e-05)
(5.61841e-05 7.91021e-05 -7.18643e-22 -3.65329e-05 3.5875e-23 -1.96512e-05)
(6.58784e-05 6.25587e-05 1.32411e-21 -5.2458e-05 1.04834e-22 -1.34205e-05)
(6.91097e-05 5.0287e-05 4.68813e-22 -6.04803e-05 -5.66028e-22 -8.62937e-06)
(7.0746e-05 4.16568e-05 -6.38795e-21 -6.60194e-05 -6.69959e-22 -4.72661e-06)
(7.24462e-05 3.39276e-05 4.68363e-21 -7.03736e-05 -8.63352e-22 -2.07267e-06)
(7.41335e-05 2.58758e-05 5.06625e-22 -7.37888e-05 -5.76101e-22 -3.44693e-07)
(7.57205e-05 1.71453e-05 -7.69179e-21 -7.65951e-05 -2.44875e-22 8.74632e-07)
(7.75533e-05 7.19168e-06 -5.59019e-21 -7.93256e-05 5.25559e-22 1.77222e-06)
(8.01825e-05 -4.8869e-06 3.55027e-21 -8.25939e-05 7.52329e-22 2.41141e-06)
(8.443e-05 -2.05443e-05 2.58859e-21 -8.73287e-05 -8.52861e-22 2.89874e-06)
(9.17357e-05 -4.26522e-05 7.22479e-22 -9.51058e-05 2.98632e-22 3.37011e-06)
(0.000104744 -7.74266e-05 -1.01618e-20 -0.000108715 -8.11004e-22 3.97175e-06)
(0.000128772 -0.000139948 -1.30677e-20 -0.000133689 4.41439e-22 4.91693e-06)
(0.000172461 -0.000265996 -5.01886e-21 -0.000179156 -5.94023e-22 6.69539e-06)
(0.000247992 -0.000532191 1.12918e-20 -0.000257234 -1.58537e-21 9.24153e-06)
(0.000352602 -0.00107455 2.23814e-21 -0.00036769 7.25911e-22 1.5088e-05)
(0.000502267 -0.00209878 1.93058e-20 -0.000514446 -2.85019e-21 1.2179e-05)
(0.000535808 -0.00409174 6.68676e-20 -0.00059413 -9.67506e-21 5.83219e-05)
(0.000862564 -0.00696972 5.76721e-21 -0.000760671 -4.22114e-21 -0.000101893)
(-0.000768707 -0.0162743 -1.22e-19 0.000199652 2.27496e-20 0.000569055)
(0.0009033 -0.000278234 -3.46995e-22 -0.000902779 -1.81965e-22 -5.20901e-07)
(0.000717734 -0.000704142 2.20797e-22 -0.000729265 9.48072e-22 1.15311e-05)
(0.000335153 -0.000975232 -4.21386e-21 -0.000331356 -1.52786e-21 -3.79726e-06)
(-0.000115741 -0.00101504 -6.34699e-21 0.00011771 -3.33208e-21 -1.96854e-06)
(-0.00048541 -0.000828404 -3.12999e-21 0.000479629 -1.13978e-21 5.78104e-06)
(-0.000678494 -0.000526541 9.68102e-21 0.000664589 3.94073e-21 1.39051e-05)
(-0.000705608 -0.000231353 -2.8309e-21 0.000682094 -8.74807e-22 2.35134e-05)
(-0.000632501 -4.85233e-06 2.67873e-21 0.000597375 1.04666e-21 3.51261e-05)
(-0.00051951 0.000145597 1.11539e-20 0.000472122 3.0411e-21 4.73878e-05)
(-0.000401448 0.000235295 -2.93447e-22 0.000342999 1.62745e-21 5.84491e-05)
(-0.000294238 0.000282625 1.49818e-20 0.00022702 3.5505e-21 6.72175e-05)
(-0.000203461 0.000302401 -1.22246e-20 0.000129906 -4.16363e-21 7.35547e-05)
(-0.000129808 0.0003053 9.02719e-21 5.22295e-05 2.97946e-21 7.75787e-05)
(-7.16082e-05 0.000298981 2.66203e-22 -7.53133e-06 1.26727e-22 7.91395e-05)
(-2.68681e-05 0.000287718 -4.28045e-21 -5.08228e-05 -2.03362e-21 7.76909e-05)
(6.76248e-06 0.000273502 1.4167e-21 -7.99918e-05 1.0367e-21 7.32293e-05)
(3.24548e-05 0.000257405 -5.98818e-21 -9.9321e-05 2.86691e-22 6.68661e-05)
(5.26868e-05 0.00024015 2.66951e-21 -0.000112212 6.84556e-22 5.95257e-05)
(6.91438e-05 0.00022204 -6.70597e-22 -0.000120967 3.87122e-22 5.1823e-05)
(8.29275e-05 0.000203118 4.41774e-22 -0.000127023 -1.31118e-21 4.40957e-05)
(9.47899e-05 0.000182547 -4.04291e-22 -0.000131612 5.30806e-22 3.68217e-05)
(0.000103189 0.000159778 4.30171e-22 -0.000133228 -1.44217e-23 3.00393e-05)
(0.000105772 0.000137748 -2.99887e-21 -0.000129558 -4.77221e-22 2.37854e-05)
(0.000103875 0.000120253 1.29407e-21 -0.000122576 -1.02043e-22 1.87013e-05)
(0.000101165 0.000107466 2.60744e-21 -0.000116055 9.1407e-22 1.48899e-05)
(9.93532e-05 9.7193e-05 -1.65216e-21 -0.00011105 -7.70241e-22 1.1697e-05)
(9.8322e-05 8.80969e-05 -4.16194e-21 -0.00010723 -1.04018e-22 8.90795e-06)
(9.76858e-05 7.98445e-05 2.49348e-21 -0.000104302 1.05998e-21 6.61596e-06)
(9.73678e-05 7.21932e-05 3.92534e-23 -0.00010218 1.17606e-21 4.8124e-06)
(9.73617e-05 6.48061e-05 1.77978e-21 -0.000100744 -3.79435e-22 3.38238e-06)
(9.75879e-05 5.737e-05 -1.5573e-22 -9.98356e-05 -5.3875e-22 2.24771e-06)
(9.7909e-05 4.95819e-05 3.21482e-21 -9.92798e-05 -5.1213e-22 1.37076e-06)
(9.81482e-05 4.11336e-05 2.19445e-23 -9.88656e-05 5.0217e-22 7.17423e-07)
(9.81811e-05 3.16573e-05 -1.55045e-21 -9.8428e-05 8.40891e-22 2.46888e-07)
(9.78252e-05 2.05726e-05 -5.09403e-21 -9.78178e-05 8.19817e-22 -7.35665e-09)
(9.73309e-05 7.34517e-06 4.20038e-21 -9.71091e-05 -6.5246e-22 -2.21792e-07)
(9.60377e-05 -1.0046e-05 4.72679e-21 -9.61058e-05 -7.1411e-22 6.81262e-08)
(9.58748e-05 -3.16366e-05 -4.13055e-21 -9.5388e-05 5.53441e-22 -4.86748e-07)
(9.53257e-05 -7.55124e-05 1.68878e-21 -9.76754e-05 -1.76561e-22 2.34964e-06)
(9.89935e-05 -0.000122437 -6.64925e-23 -9.55178e-05 -9.22156e-24 -3.47566e-06)
(0.000189264 -0.000764953 -1.04739e-21 -0.000229676 -5.79868e-22 4.04114e-05)
(0.000617424 -0.000191038 -6.69378e-23 -0.000614743 1.84267e-22 -2.6803e-06)
(0.000519203 -0.000457077 -2.04738e-21 -0.000529081 -5.69046e-22 9.87806e-06)
(0.000308219 -0.0006523 2.12179e-21 -0.000306195 -4.38608e-22 -2.02472e-06)
(3.18176e-05 -0.00074295 8.75482e-21 -2.87619e-05 2.39696e-21 -3.05568e-06)
(-0.000247992 -0.00069522 1.72243e-21 0.000250037 9.42697e-22 -2.04505e-06)
(-0.00045573 -0.000535878 1.23043e-21 0.0004595 5.44373e-22 -3.77039e-06)
(-0.000558385 -0.000332431 -1.46862e-20 0.000566083 -4.62716e-21 -7.69784e-06)
(-0.00057087 -0.00014309 -1.19179e-21 0.000583383 -5.02812e-22 -1.25129e-05)
(-0.000527215 4.30922e-06 -4.28955e-21 0.000544735 -1.6495e-21 -1.75202e-05)
(-0.000457859 0.00010549 8.32821e-21 0.00048047 2.55865e-21 -2.26106e-05)
(-0.000382528 0.000167594 -6.77329e-21 0.00041038 -3.36329e-21 -2.78523e-05)
(-0.000311646 0.000200768 -5.39898e-21 0.000344647 2.07878e-22 -3.30008e-05)
(-0.000249753 0.000214335 8.8147e-21 0.000287416 4.24736e-22 -3.7663e-05)
(-0.000197668 0.000215773 -9.41772e-21 0.000239243 -1.39775e-21 -4.15759e-05)
(-0.000154163 0.000210018 4.74449e-22 0.00019851 -1.87494e-22 -4.43465e-05)
(-0.000116949 0.000200257 2.1477e-21 0.000162319 7.79624e-22 -4.53705e-05)
(-8.41158e-05 0.000188451 6.48925e-21 0.000128659 1.16482e-21 -4.45429e-05)
(-5.47631e-05 0.000175634 2.52652e-22 9.71517e-05 2.72909e-22 -4.23887e-05)
(-2.82835e-05 0.000162132 1.55107e-21 6.76117e-05 -2.33911e-23 -3.93281e-05)
(-4.06782e-06 0.000147794 -7.30952e-21 3.98044e-05 -6.31955e-22 -3.57366e-05)
(1.80554e-05 0.000132299 4.97333e-21 1.3625e-05 7.13398e-22 -3.16805e-05)
(3.63707e-05 0.00011523 -1.14288e-21 -8.85162e-06 -1.92968e-22 -2.75191e-05)
(4.85706e-05 9.78164e-05 -1.56926e-21 -2.44941e-05 3.69342e-22 -2.40765e-05)
(5.55927e-05 8.27842e-05 -2.30582e-22 -3.46283e-05 1.73853e-22 -2.09644e-05)
(6.03295e-05 7.11279e-05 -6.89882e-22 -4.24462e-05 -2.60739e-22 -1.78833e-05)
(6.46414e-05 6.16845e-05 -3.41873e-22 -4.95088e-05 3.57004e-22 -1.51326e-05)
(6.88875e-05 5.33577e-05 -1.59504e-21 -5.60481e-05 9.77786e-22 -1.28393e-05)
(7.29584e-05 4.58046e-05 1.28707e-21 -6.20912e-05 -3.89823e-22 -1.08673e-05)
(7.69234e-05 3.88763e-05 4.46702e-21 -6.78087e-05 -4.02137e-22 -9.11471e-06)
(8.09424e-05 3.23359e-05 9.78759e-22 -7.33582e-05 -5.98845e-22 -7.58421e-06)
(8.51249e-05 2.59262e-05 -4.18104e-21 -7.88471e-05 4.69403e-22 -6.27779e-06)
(8.95064e-05 1.94076e-05 -1.92964e-21 -8.43382e-05 -1.06812e-22 -5.16822e-06)
(9.40501e-05 1.25152e-05 -4.23659e-24 -8.98214e-05 1.02955e-22 -4.22869e-06)
(9.86589e-05 4.97684e-06 4.01991e-21 -9.52089e-05 -5.02123e-22 -3.44996e-06)
(0.000102962 -3.63036e-06 2.26876e-21 -0.000100205 -1.56374e-23 -2.75726e-06)
(0.000106437 -1.33944e-05 -1.70888e-21 -0.000104174 1.01707e-23 -2.26298e-06)
(0.000107609 -2.53752e-05 -3.69283e-21 -0.000106025 4.43575e-22 -1.58398e-06)
(0.000105504 -3.72654e-05 2.06111e-21 -0.000103809 -2.31269e-22 -1.69444e-06)
(9.70955e-05 -5.52937e-05 -1.4124e-21 -9.71976e-05 1.88851e-22 1.02135e-07)
(8.04336e-05 -6.26486e-05 2.71289e-21 -7.81474e-05 -3.00836e-22 -2.28621e-06)
(6.09269e-05 -9.55822e-05 4.01421e-22 -6.58153e-05 -7.25991e-23 4.88834e-06)
(0.000423999 -0.00013527 -3.06081e-22 -0.000420559 1.63663e-22 -3.43999e-06)
(0.000368559 -0.000303579 -1.63362e-21 -0.000376497 -8.22054e-22 7.93821e-06)
(0.000248824 -0.000433191 6.67723e-21 -0.000248052 1.34112e-21 -7.71359e-07)
(8.77479e-05 -0.000518405 -1.3581e-21 -8.66385e-05 4.3784e-22 -1.10934e-06)
(-9.77595e-05 -0.000530763 2.15921e-21 9.72365e-05 4.5806e-22 5.23056e-07)
(-0.000266355 -0.000463138 -1.87233e-21 0.000265184 -5.02341e-22 1.17167e-06)
(-0.000382112 -0.000340225 5.13068e-21 0.000380555 1.6881e-21 1.55717e-06)
(-0.000433846 -0.000198442 5.7481e-21 0.00043134 1.38002e-21 2.5055e-06)
(-0.000431308 -6.69104e-05 3.68569e-22 0.000426947 9.25191e-22 4.36013e-06)
(-0.00039259 3.89122e-05 7.69084e-21 0.000385534 1.64936e-21 7.056e-06)
(-0.000335065 0.0001152 1.30612e-21 0.00032491 3.63443e-22 1.01552e-05)
(-0.000271385 0.000164853 -5.29072e-21 0.000258034 -8.52482e-22 1.33509e-05)
(-0.000209462 0.000193301 -1.43529e-21 0.000192917 -1.1649e-21 1.65457e-05)
(-0.000153372 0.000206505 5.04491e-21 0.00013382 1.54713e-21 1.95521e-05)
(-0.000104558 0.000209541 -1.20386e-20 8.22969e-05 -2.38917e-21 2.22613e-05)
(-6.29997e-05 0.000206221 4.6273e-21 3.85543e-05 1.11685e-21 2.44453e-05)
(-2.81404e-05 0.000198966 -3.43641e-21 2.39749e-06 -1.23549e-21 2.57429e-05)
(8.90781e-07 0.000189124 6.13951e-21 -2.69326e-05 6.93179e-22 2.60419e-05)
(2.52085e-05 0.000177334 -2.25557e-22 -5.07527e-05 -6.67127e-22 2.55442e-05)
(4.57221e-05 0.000163885 -1.89598e-21 -7.01669e-05 7.68343e-22 2.44448e-05)
(6.27874e-05 0.000148627 2.80948e-21 -8.57014e-05 -5.02516e-22 2.29141e-05)
(7.59608e-05 0.000131832 1.81592e-22 -9.70689e-05 2.3197e-22 2.11081e-05)
(8.44533e-05 0.000114964 -6.29119e-22 -0.000103611 4.14897e-23 1.91578e-05)
(8.86572e-05 9.99616e-05 2.66107e-21 -0.00010596 -3.64227e-23 1.73026e-05)
(9.04987e-05 8.78493e-05 7.28355e-22 -0.000106188 3.06092e-22 1.56894e-05)
(9.16809e-05 7.79774e-05 2.20321e-21 -0.000105872 -1.99941e-22 1.41913e-05)
(9.2817e-05 6.93661e-05 3.75069e-21 -0.000105505 -2.34657e-22 1.26884e-05)
(9.39498e-05 6.1533e-05 -1.73017e-21 -0.000105188 1.63277e-22 1.12381e-05)
(9.51405e-05 5.42486e-05 -1.2804e-21 -0.000105051 -2.9597e-22 9.91067e-06)
(9.65242e-05 4.72591e-05 -3.82444e-21 -0.000105231 4.02348e-22 8.70652e-06)
(9.81984e-05 4.02782e-05 1.7435e-21 -0.000105803 6.63673e-23 7.60493e-06)
(0.000100198 3.3023e-05 -1.21317e-21 -0.000106798 3.1751e-22 6.60049e-06)
(0.000102503 2.51977e-05 1.47765e-21 -0.000108199 -1.21763e-22 5.69609e-06)
(0.000105065 1.64536e-05 -3.96068e-21 -0.000109946 2.19842e-22 4.8804e-06)
(0.000107696 6.31793e-06 5.45803e-22 -0.000111873 -8.92941e-23 4.17693e-06)
(0.000110132 -5.53519e-06 -1.07766e-21 -0.00011362 1.72539e-22 3.48766e-06)
(0.000111506 -2.00169e-05 5.87934e-21 -0.000114545 -6.20334e-22 3.03958e-06)
(0.000110982 -3.64323e-05 -3.98651e-21 -0.000113183 4.64109e-22 2.20129e-06)
(0.000105754 -5.74367e-05 3.24664e-22 -0.000108315 -1.88351e-23 2.5611e-06)
(9.31639e-05 -7.55196e-05 -2.15594e-21 -9.36026e-05 2.8657e-22 4.38789e-07)
(6.78172e-05 -9.44008e-05 2.07495e-21 -7.20669e-05 -1.91697e-22 4.24968e-06)
(0.000291503 -9.79728e-05 -1.20815e-21 -0.000288141 -3.81544e-22 -3.36189e-06)
(0.000258341 -0.000206238 4.89734e-21 -0.000264508 7.29325e-22 6.16631e-06)
(0.000186895 -0.000289809 -1.27997e-21 -0.000186396 4.7504e-22 -4.99205e-07)
(9.33886e-05 -0.000354544 -8.49971e-21 -9.25507e-05 -1.65794e-21 -8.3789e-07)
(-2.20886e-05 -0.000384614 -9.535e-22 2.19255e-05 -7.99794e-22 1.63073e-07)
(-0.000142627 -0.000367575 8.22056e-21 0.000142465 1.82912e-21 1.62173e-07)
(-0.000245102 -0.000306937 -1.44525e-21 0.000245529 -3.14612e-22 -4.26136e-07)
(-0.000313576 -0.000218281 -1.9197e-20 0.000314835 -4.3996e-21 -1.25884e-06)
(-0.000343859 -0.000120558 1.83271e-20 0.00034608 4.51793e-21 -2.22151e-06)
(-0.000341188 -2.94959e-05 1.04099e-21 0.000344391 -8.27043e-22 -3.20241e-06)
(-0.000315305 4.56904e-05 -8.31728e-22 0.000319577 -6.16343e-22 -4.2719e-06)
(-0.000276084 0.000101941 -9.08355e-22 0.00028157 -9.02456e-23 -5.48642e-06)
(-0.000231557 0.000140027 -5.59704e-21 0.000238363 -4.17523e-22 -6.80585e-06)
(-0.000187227 0.000162958 1.74926e-21 0.00019553 -1.00332e-21 -8.30352e-06)
(-0.000146235 0.000174361 -6.37214e-21 0.000156166 8.12318e-22 -9.93134e-06)
(-0.000109827 0.000177535 5.19314e-21 0.00012139 1.2012e-22 -1.1563e-05)
(-7.80378e-05 0.000175032 -1.63865e-21 9.1049e-05 4.02378e-22 -1.30112e-05)
(-5.02486e-05 0.000168598 8.93045e-22 6.43109e-05 1.24174e-22 -1.40623e-05)
(-2.5744e-05 0.0001594 -1.87807e-21 4.0331e-05 -2.32492e-22 -1.4587e-05)
(-3.94772e-06 0.000148098 -1.36876e-21 1.86399e-05 -3.03285e-22 -1.46921e-05)
(1.5261e-05 0.000135174 -4.57689e-22 -8.74698e-07 6.30989e-23 -1.43863e-05)
(3.10599e-05 0.000121171 1.76144e-21 -1.72541e-05 -3.13146e-22 -1.38058e-05)
(4.26588e-05 0.000106842 -1.88886e-21 -2.94196e-05 2.1365e-22 -1.32391e-05)
(5.03912e-05 9.33669e-05 -8.00455e-22 -3.77344e-05 -1.62683e-22 -1.26568e-05)