/*--------------------------------*- C++ -*----------------------------------*\
| =========                 |                                                 |
| \\      /  F ield         | OpenFOAM: The Open Source CFD Toolbox           |
|  \\    /   O peration     | Version:  2312                                  |
|   \\  /    A nd           | Website:  www.openfoam.com                      |
|    \\/     M anipulation  |                                                 |
\*---------------------------------------------------------------------------*/
FoamFile
{
    version     2.0;
    format      ascii;
    arch        "LSB;label=32;scalar=64";
    class       volScalarField;
    location    "248";
    object      turbulenceProperties:k;
}
// * * * * * * * * * * * * * * * * * * * * * * * * * * * * * * * * * * * * * //

dimensions      [0 2 -2 0 0 0 0];

internalField   nonuniform List<scalar> 
11040
(
0.0834918
0.198307
0.434134
0.824459
1.44453
2.39255
3.57808
4.57417
5.14225
5.3883
5.48284
5.5192
5.52594
5.50472
5.45254
5.36868
5.25495
5.11501
4.95226
4.7694
4.56307
4.34537
4.14117
3.96091
3.79937
3.64807
3.50287
3.36249
3.22578
3.09126
2.95734
2.82229
2.68437
2.54114
2.38951
2.22687
2.04829
1.85213
1.61337
1.38011
0.924236
0.0292085
0.0330568
0.0370386
0.0360828
0.0348621
0.0424818
0.0665495
0.104701
0.148631
0.193433
0.235942
0.274376
0.308069
0.337476
0.363432
0.386617
0.407455
0.426009
0.442516
0.457229
0.471785
0.483537
0.487624
0.484846
0.479105
0.472752
0.466595
0.460715
0.455184
0.450077
0.445522
0.441685
0.438717
0.436903
0.43667
0.438511
0.443135
0.451783
0.466844
0.491225
0.551595
0.0211573
0.0172486
0.0108394
0.00932989
0.010799
0.0112406
0.0106699
0.00965414
0.00859227
0.00770293
0.00672605
0.00556965
0.00494171
0.00968244
0.0207362
0.0371256
0.0584999
0.0843137
0.113721
0.145566
0.178945
0.212047
0.242142
0.26756
0.288223
0.304853
0.318018
0.328313
0.336311
0.342522
0.347334
0.351075
0.354025
0.356387
0.358451
0.360499
0.36323
0.36646
0.375043
0.381685
0.440275
0.0138477
0.0131918
0.0120585
0.0111864
0.0101943
0.00898367
0.00774763
0.00660507
0.00556065
0.00460054
0.00372546
0.00289807
0.00214786
0.00151651
0.00105405
0.000848868
0.00110723
0.00199405
0.00377362
0.00692465
0.0122128
0.0200126
0.0297556
0.0410402
0.0537229
0.0676386
0.0825315
0.0980952
0.114072
0.130253
0.146493
0.162724
0.178929
0.19523
0.211835
0.228956
0.247115
0.266557
0.290972
0.313262
0.376252
0.00926799
0.00932537
0.00862682
0.0073201
0.00569158
0.00435203
0.0035977
0.00330072
0.00319462
0.00311285
0.00300185
0.00284314
0.00265072
0.00243424
0.0022066
0.00198185
0.00176496
0.00155741
0.00135945
0.00117168
0.00099224
0.000807467
0.000616145
0.00045971
0.00058772
0.00122575
0.0023656
0.0040779
0.00646861
0.00965496
0.013775
0.0190005
0.0255355
0.0336846
0.0438462
0.0565297
0.0724514
0.0927423
0.120478
0.15211
0.224395
0.00618267
0.00648105
0.00641938
0.0061026
0.00556488
0.00495164
0.00435699
0.00382157
0.00335618
0.00295522
0.00260658
0.00229484
0.00200932
0.00173949
0.00147647
0.00122986
0.00100871
0.000818484
0.000663064
0.000547959
0.000471544
0.000421279
0.000383162
0.00035627
0.000341534
0.000333209
0.000327867
0.000325985
0.000330628
0.000347217
0.000385317
0.000462136
0.000608777
0.000886454
0.00141057
0.002392
0.00418133
0.00740328
0.0136179
0.0228503
0.0530887
0.00418712
0.00447219
0.00456306
0.00452338
0.00424446
0.00377876
0.00324104
0.00273132
0.00230825
0.00198701
0.00175908
0.00160459
0.0015016
0.00143158
0.00137607
0.00132005
0.00125889
0.00119353
0.00112564
0.00105637
0.000984655
0.000904788
0.000819481
0.000743092
0.000684228
0.000638485
0.000600664
0.000568591
0.000541067
0.000516729
0.000494215
0.000472174
0.000449317
0.000424691
0.000398056
0.000372506
0.000354411
0.000360012
0.000478108
0.000661493
0.00330918
0.00285777
0.00308068
0.00319252
0.00329198
0.00326926
0.00311974
0.002892
0.00263357
0.00237549
0.00213383
0.00191411
0.00171678
0.00154142
0.00138694
0.00124921
0.00112209
0.00100288
0.000893005
0.000793169
0.00070325
0.000623003
0.000551713
0.000489854
0.000440749
0.000407032
0.000386242
0.000374476
0.000369329
0.000369683
0.000374768
0.000383927
0.000396581
0.000412101
0.000429766
0.000447953
0.000463939
0.000472779
0.000464062
0.000441445
0.00034732
0.000317944
0.00196437
0.00212884
0.0022111
0.00232729
0.00238891
0.00236377
0.00226224
0.00210672
0.00192249
0.00173108
0.00154823
0.00138288
0.00123959
0.00112068
0.00102608
0.000953908
0.000899667
0.000857088
0.000820612
0.000786577
0.000751264
0.000712266
0.000670026
0.00062856
0.00059343
0.000565515
0.000542847
0.000524097
0.00050893
0.000497232
0.00048887
0.000483785
0.000481988
0.00048365
0.000488864
0.000497835
0.000509981
0.000523052
0.000536969
0.000527527
0.00049207
0.00135524
0.00147512
0.00152626
0.00162269
0.00170537
0.00174516
0.00173928
0.00169353
0.00161756
0.00152297
0.00141971
0.00131437
0.00121128
0.00111366
0.00102334
0.000940526
0.000864363
0.000793351
0.000726742
0.000664378
0.000606735
0.000554347
0.000506632
0.000464528
0.000430356
0.000404367
0.000385087
0.000371134
0.000361828
0.000356827
0.000355845
0.000358619
0.000364934
0.000374695
0.000387762
0.000403936
0.000422873
0.000443599
0.000467105
0.000483662
0.000502141
0.000937039
0.00102425
0.00105309
0.00112228
0.00119428
0.00124777
0.00127723
0.00128044
0.00125808
0.00121427
0.00115502
0.00108611
0.00101256
0.000938999
0.000868862
0.00080452
0.000747428
0.000698204
0.00065651
0.000620825
0.000588658
0.000558913
0.000531115
0.0005052
0.000482781
0.000464692
0.000450391
0.000438991
0.000429934
0.000422951
0.00041784
0.000414402
0.000412466
0.00041182
0.000412243
0.000413451
0.000415082
0.000416038
0.000416463
0.00041124
0.000408354
0.000648357
0.000711505
0.000726848
0.000773538
0.00082778
0.000876004
0.00091456
0.000940413
0.00095127
0.000946938
0.000929367
0.000901191
0.000865178
0.000824119
0.000780456
0.000736121
0.000692434
0.000650033
0.00060904
0.000569194
0.000530935
0.000495531
0.000463111
0.000433424
0.000407291
0.000385279
0.000367216
0.000352573
0.000340937
0.000332047
0.000325699
0.000321693
0.000319823
0.000319884
0.000321621
0.000324614
0.000328312
0.000331922
0.00033451
0.00033314
0.000330405
0.000448592
0.000494002
0.000501823
0.000532412
0.000570415
0.000607322
0.000641455
0.000670636
0.000692289
0.00070467
0.000707438
0.000701121
0.000686809
0.000666041
0.000640553
0.000612077
0.000582188
0.000552147
0.000522904
0.000495029
0.000468761
0.000444931
0.000423694
0.000404492
0.000387629
0.000373384
0.000361687
0.000352188
0.000344498
0.000338304
0.000333323
0.000329273
0.000325892
0.000322835
0.000319757
0.000316307
0.000312057
0.000306424
0.000298876
0.000288145
0.000276801
0.000310169
0.000342448
0.000346375
0.000366192
0.000391895
0.000418116
0.000444353
0.000469554
0.000491946
0.000509931
0.000522564
0.000529441
0.000530566
0.00052635
0.000517483
0.000504822
0.000489264
0.000471623
0.000452578
0.000432588
0.00041219
0.000392434
0.000373747
0.000356008
0.000339571
0.000324715
0.000311513
0.000299879
0.000289658
0.000280694
0.000272867
0.000266041
0.000260085
0.000254845
0.000250134
0.000245723
0.00024133
0.00023669
0.000231337
0.000224459
0.000217601
0.000214171
0.000236767
0.000238832
0.000251644
0.000268712
0.000286612
0.000305327
0.000324463
0.000342981
0.000359782
0.000374003
0.000385024
0.000392432
0.000396051
0.000395955
0.000392428
0.000385924
0.00037697
0.000366111
0.00035383
0.000340572
0.000327339
0.000314772
0.000302828
0.000291737
0.000281667
0.000272672
0.000264708
0.000257682
0.000251468
0.000245927
0.000240877
0.000236119
0.000231416
0.000226535
0.000221297
0.000215503
0.000208911
0.000201336
0.000192439
0.000183799
0.000147656
0.000163184
0.000164436
0.000172726
0.000183919
0.000195863
0.000208685
0.000222281
0.000236113
0.000249544
0.00026201
0.00027303
0.000282184
0.000289151
0.000293741
0.000295912
0.000295748
0.000293428
0.0002892
0.000283333
0.00027612
0.00026823
0.000260114
0.000251821
0.00024359
0.00023559
0.000227914
0.000220596
0.000213627
0.000206969
0.000200564
0.000194353
0.000188274
0.000182288
0.000176356
0.000170435
0.000164478
0.00015847
0.000152294
0.000145846
0.000139828
0.000102041
0.000112485
0.00011345
0.000118846
0.000126118
0.000133981
0.000142565
0.000151855
0.000161577
0.000171387
0.000180957
0.000189982
0.000198156
0.000205193
0.000210861
0.000215002
0.000217538
0.000218469
0.000217857
0.000215815
0.000212438
0.00020815
0.000203367
0.000198204
0.000192871
0.00018752
0.000182248
0.000177113
0.000172142
0.00016734
0.000162697
0.000158185
0.000153772
0.000149388
0.000144974
0.000140477
0.000135827
0.000130951
0.000125811
0.000120379
0.00011519
7.17606e-05
7.87171e-05
7.95654e-05
8.31947e-05
8.7996e-05
9.324e-05
9.90303e-05
0.000105363
0.00011209
0.000119028
0.000125998
0.000132824
0.000139319
0.000145288
0.000150552
0.000154958
0.000158393
0.000160783
0.000162098
0.000162351
0.00016154
0.000159873
0.000157589
0.00015477
0.000151566
0.000148089
0.000144421
0.000140617
0.000136716
0.000132742
0.000128706
0.000124607
0.000120453
0.000116236
0.00011195
0.000107614
0.00010326
9.89005e-05
9.45318e-05
9.02323e-05
8.61272e-05
5.19135e-05
5.66367e-05
5.73526e-05
5.98834e-05
6.31678e-05
6.67785e-05
7.07924e-05
7.52052e-05
7.99281e-05
8.48567e-05
8.98869e-05
9.49162e-05
9.98278e-05
0.000104494
0.000108786
0.000112586
0.000115791
0.000118318
0.000120108
0.000121133
0.000121338
0.000120816
0.000119721
0.000118124
0.000116139
0.000113858
0.000111356
0.00010869
0.000105908
0.000103043
0.000100123
9.7165e-05
9.41859e-05
9.11876e-05
8.81733e-05
8.51553e-05
8.21431e-05
7.91207e-05
7.60819e-05
7.30455e-05
7.01434e-05
3.86005e-05
4.18626e-05
4.24684e-05
4.42806e-05
4.65925e-05
4.91477e-05
5.19997e-05
5.51407e-05
5.85133e-05
6.20528e-05
6.56956e-05
6.93789e-05
7.30301e-05
7.65669e-05
7.99041e-05
8.29584e-05
8.56525e-05
8.79176e-05
8.96976e-05
9.09554e-05
9.16338e-05
9.17633e-05
9.14289e-05
9.06714e-05
8.9564e-05
8.81686e-05
8.6536e-05
8.47093e-05
8.27248e-05
8.06116e-05
7.83938e-05
7.60891e-05
7.37189e-05
7.12934e-05
6.8822e-05
6.63212e-05
6.38193e-05
6.13153e-05
5.88129e-05
5.63467e-05
5.39519e-05
2.93154e-05
3.16023e-05
3.2108e-05
3.34258e-05
3.50869e-05
3.69334e-05
3.89997e-05
4.12761e-05
4.37232e-05
4.62986e-05
4.89602e-05
5.16672e-05
5.43724e-05
5.70211e-05
5.95559e-05
6.19185e-05
6.40528e-05
6.59056e-05
6.74301e-05
6.85904e-05
6.93317e-05
6.96571e-05
6.96174e-05
6.92377e-05
6.85683e-05
6.76544e-05
6.6536e-05
6.52497e-05
6.3828e-05
6.22989e-05
6.06867e-05
5.90112e-05
5.72935e-05
5.55453e-05
5.37777e-05
5.20064e-05
5.0251e-05
4.8504e-05
4.6775e-05
4.50666e-05
4.34776e-05
2.26515e-05
2.42753e-05
2.4695e-05
2.56668e-05
2.68821e-05
2.82411e-05
2.97642e-05
3.14412e-05
3.32437e-05
3.5142e-05
3.71071e-05
3.91107e-05
4.1121e-05
4.31008e-05
4.50107e-05
4.68106e-05
4.84608e-05
4.99225e-05
5.11604e-05
5.21458e-05
5.28354e-05
5.32239e-05
5.33408e-05
5.31997e-05
5.28329e-05
5.22708e-05
5.15408e-05
5.06689e-05
4.96787e-05
4.85907e-05
4.74236e-05
4.61922e-05
4.49139e-05
4.35986e-05
4.22552e-05
4.08951e-05
3.95386e-05
3.81799e-05
3.68299e-05
3.54716e-05
3.42392e-05
1.77515e-05
1.89159e-05
1.92616e-05
1.99861e-05
2.08882e-05
2.19031e-05
2.30416e-05
2.42938e-05
2.56385e-05
2.70542e-05
2.85196e-05
3.00144e-05
3.1516e-05
3.29983e-05
3.44336e-05
3.57936e-05
3.70499e-05
3.81746e-05
3.91412e-05
3.99276e-05
4.04998e-05
4.08503e-05
4.0998e-05
4.09501e-05
4.0728e-05
4.03532e-05
3.98459e-05
3.9226e-05
3.85122e-05
3.77213e-05
3.68689e-05
3.59679e-05
3.50329e-05
3.40726e-05
3.30951e-05
3.21102e-05
3.11333e-05
3.01581e-05
2.91967e-05
2.82229e-05
2.73922e-05
1.40764e-05
1.49178e-05
1.52009e-05
1.57461e-05
1.64243e-05
1.71919e-05
1.80536e-05
1.89999e-05
2.00148e-05
2.10821e-05
2.21857e-05
2.33105e-05
2.44398e-05
2.55548e-05
2.66356e-05
2.76621e-05
2.8614e-05
2.9471e-05
3.02141e-05
3.08269e-05
3.12845e-05
3.1581e-05
3.17292e-05
3.17328e-05
3.16064e-05
3.13648e-05
3.10223e-05
3.0593e-05
3.00906e-05
2.95272e-05
2.89142e-05
2.82612e-05
2.75789e-05
2.68739e-05
2.6152e-05
2.54201e-05
2.46909e-05
2.39587e-05
2.32353e-05
2.24833e-05
2.18817e-05
1.12729e-05
1.18843e-05
1.21148e-05
1.25286e-05
1.30439e-05
1.36309e-05
1.42898e-05
1.50125e-05
1.57863e-05
1.65987e-05
1.74372e-05
1.82902e-05
1.91453e-05
1.99883e-05
2.08049e-05
2.15803e-05
2.22997e-05
2.29486e-05
2.35131e-05
2.39811e-05
2.43342e-05
2.45684e-05
2.4693e-05
2.471e-05
2.46293e-05
2.44616e-05
2.42172e-05
2.39066e-05
2.35399e-05
2.31266e-05
2.26754e-05
2.21938e-05
2.169e-05
2.11694e-05
2.06368e-05
2.00973e-05
1.95607e-05
1.90222e-05
1.84925e-05
1.7936e-05
1.75224e-05
9.10317e-06
9.54917e-06
9.73601e-06
1.00524e-05
1.04478e-05
1.0901e-05
1.14098e-05
1.19668e-05
1.25622e-05
1.3186e-05
1.38285e-05
1.44804e-05
1.51324e-05
1.57737e-05
1.63936e-05
1.69812e-05
1.75258e-05
1.80166e-05
1.84438e-05
1.87987e-05
1.90679e-05
1.92492e-05
1.935e-05
1.93714e-05
1.93204e-05
1.92048e-05
1.9032e-05
1.88098e-05
1.85455e-05
1.82459e-05
1.79176e-05
1.75658e-05
1.71968e-05
1.68144e-05
1.64221e-05
1.60234e-05
1.56259e-05
1.52256e-05
1.48319e-05
1.44084e-05
1.412e-05
7.40277e-06
7.72887e-06
7.87981e-06
8.12345e-06
8.42963e-06
8.78252e-06
9.17872e-06
9.61178e-06
1.00737e-05
1.05566e-05
1.10526e-05
1.15545e-05
1.20549e-05
1.25456e-05
1.30185e-05
1.34655e-05
1.38787e-05
1.42502e-05
1.45728e-05
1.48403e-05
1.5043e-05
1.51799e-05
1.52571e-05
1.52752e-05
1.52392e-05
1.51548e-05
1.50276e-05
1.48633e-05
1.46672e-05
1.44446e-05
1.42001e-05
1.39379e-05
1.36626e-05
1.3377e-05
1.30839e-05
1.27861e-05
1.24888e-05
1.21893e-05
1.18952e-05
1.15756e-05
1.1374e-05
6.05564e-06
6.2943e-06
6.41596e-06
6.60493e-06
6.84402e-06
7.1211e-06
7.43211e-06
7.77143e-06
8.1326e-06
8.5092e-06
8.8949e-06
9.28394e-06
9.67047e-06
1.00482e-05
1.0411e-05
1.07526e-05
1.10673e-05
1.13493e-05
1.15933e-05
1.17948e-05
1.1947e-05
1.20497e-05
1.21081e-05
1.21225e-05
1.20966e-05
1.20348e-05
1.19412e-05
1.18199e-05
1.1675e-05
1.15103e-05
1.13293e-05
1.11349e-05
1.09306e-05
1.07186e-05
1.05007e-05
1.02789e-05
1.00573e-05
9.83368e-06
9.61427e-06
9.37164e-06
9.2321e-06
4.97825e-06
5.15286e-06
5.25084e-06
5.3985e-06
5.58674e-06
5.80601e-06
6.05201e-06
6.31987e-06
6.60432e-06
6.90009e-06
7.20207e-06
7.50561e-06
7.80607e-06
8.09859e-06
8.37838e-06
8.64082e-06
8.88154e-06
9.09627e-06
9.28122e-06
9.43317e-06
9.54711e-06
9.62351e-06
9.6668e-06
9.67702e-06
9.65704e-06
9.61013e-06
9.53939e-06
9.44793e-06
9.33873e-06
9.2146e-06
9.07815e-06
8.93165e-06
8.77752e-06
8.61745e-06
8.45287e-06
8.28526e-06
8.11752e-06
7.94806e-06
7.78187e-06
7.59676e-06
7.49735e-06
4.10945e-06
4.23702e-06
4.31598e-06
4.43229e-06
4.58174e-06
4.7566e-06
4.95261e-06
5.16559e-06
5.39117e-06
5.62504e-06
5.86303e-06
6.10136e-06
6.33636e-06
6.56421e-06
6.78124e-06
6.98392e-06
7.16898e-06
7.33326e-06
7.47403e-06
7.58897e-06
7.67449e-06
7.73138e-06
7.7634e-06
7.77056e-06
7.75502e-06
7.71931e-06
7.66579e-06
7.59679e-06
7.51454e-06
7.42114e-06
7.31851e-06
7.20834e-06
7.09242e-06
6.97202e-06
6.8482e-06
6.72202e-06
6.5956e-06
6.4678e-06
6.34256e-06
6.20157e-06
6.13183e-06
3.40378e-06
3.49676e-06
3.56056e-06
3.653e-06
3.77267e-06
3.91319e-06
4.07052e-06
4.24105e-06
4.42116e-06
4.60729e-06
4.79604e-06
4.98434e-06
5.16925e-06
5.34779e-06
5.5171e-06
5.67451e-06
5.81754e-06
5.94388e-06
6.05154e-06
6.13888e-06
6.20329e-06
6.2457e-06
6.26932e-06
6.2741e-06
6.2617e-06
6.23408e-06
6.19305e-06
6.14034e-06
6.07764e-06
6.0065e-06
5.92837e-06
5.84452e-06
5.75625e-06
5.66453e-06
5.57016e-06
5.47391e-06
5.37733e-06
5.27962e-06
5.18381e-06
5.07561e-06
5.02477e-06
2.82702e-06
2.89458e-06
2.94637e-06
3.02057e-06
3.11726e-06
3.23107e-06
3.35827e-06
3.49575e-06
3.64051e-06
3.7896e-06
3.94023e-06
4.08992e-06
4.23631e-06
4.37704e-06
4.50992e-06
4.63289e-06
4.7441e-06
4.84185e-06
4.92469e-06
4.99148e-06
5.04033e-06
5.07219e-06
5.0898e-06
5.09308e-06
5.0833e-06
5.06202e-06
5.03062e-06
4.99043e-06
4.9427e-06
4.88862e-06
4.82926e-06
4.76558e-06
4.69854e-06
4.62887e-06
4.55718e-06
4.48405e-06
4.41057e-06
4.33622e-06
4.2633e-06
4.18057e-06
4.14404e-06
2.35304e-06
2.40198e-06
2.44431e-06
2.50455e-06
2.58339e-06
2.6763e-06
2.77988e-06
2.89148e-06
3.00859e-06
3.12877e-06
3.24974e-06
3.36946e-06
3.48606e-06
3.59767e-06
3.70259e-06
3.79926e-06
3.8863e-06
3.96243e-06
4.02663e-06
4.07809e-06
4.11547e-06
4.13964e-06
4.15294e-06
4.15526e-06
4.14761e-06
4.13118e-06
4.10707e-06
4.07627e-06
4.03972e-06
3.99834e-06
3.95292e-06
3.90418e-06
3.85285e-06
3.79948e-06
3.74452e-06
3.68841e-06
3.63195e-06
3.57478e-06
3.51864e-06
3.45498e-06
3.42764e-06
1.96169e-06
1.99705e-06
2.03201e-06
2.0815e-06
2.14641e-06
2.22286e-06
2.30782e-06
2.39902e-06
2.49438e-06
2.59187e-06
2.68961e-06
2.78596e-06
2.8794e-06
2.96848e-06
3.05186e-06
3.12837e-06
3.19695e-06
3.2567e-06
3.30687e-06
3.34691e-06
3.37585e-06
3.39449e-06
3.40481e-06
3.40669e-06
3.40091e-06
3.38844e-06
3.37011e-06
3.34669e-06
3.31889e-06
3.2874e-06
3.25284e-06
3.21574e-06
3.17664e-06
3.13597e-06
3.09407e-06
3.05126e-06
3.00812e-06
2.96444e-06
2.9215e-06
2.87276e-06
2.85278e-06
1.63727e-06
1.66281e-06
1.69204e-06
1.73325e-06
1.78721e-06
1.85061e-06
1.92079e-06
1.99581e-06
2.07394e-06
2.15351e-06
2.23298e-06
2.311e-06
2.38636e-06
2.4579e-06
2.52462e-06
2.58559e-06
2.64006e-06
2.68733e-06
2.72691e-06
2.75841e-06
2.78114e-06
2.79578e-06
2.80401e-06
2.8057e-06
2.80147e-06
2.79208e-06
2.77818e-06
2.76035e-06
2.73915e-06
2.7151e-06
2.68867e-06
2.66027e-06
2.63031e-06
2.59911e-06
2.56693e-06
2.53403e-06
2.50081e-06
2.46715e-06
2.43399e-06
2.39652e-06
2.38103e-06
1.36746e-06
1.38597e-06
1.41077e-06
1.44556e-06
1.49084e-06
1.54381e-06
1.60217e-06
1.66427e-06
1.72867e-06
1.79399e-06
1.85898e-06
1.92254e-06
1.9837e-06
2.04156e-06
2.09531e-06
2.14428e-06
2.18789e-06
2.22566e-06
2.25723e-06
2.28235e-06
2.30053e-06
2.31236e-06
2.31924e-06
2.32108e-06
2.31832e-06
2.3116e-06
2.3014e-06
2.28819e-06
2.27239e-06
2.25439e-06
2.23454e-06
2.21317e-06
2.19057e-06
2.16699e-06
2.14264e-06
2.1177e-06
2.09246e-06
2.06687e-06
2.04163e-06
2.01305e-06
2.00204e-06
1.14245e-06
1.15602e-06
1.17743e-06
1.20716e-06
1.2455e-06
1.29006e-06
1.33888e-06
1.39058e-06
1.44396e-06
1.49789e-06
1.55133e-06
1.6034e-06
1.65334e-06
1.70043e-06
1.74406e-06
1.7837e-06
1.81894e-06
1.84942e-06
1.87489e-06
1.8952e-06
1.90998e-06
1.91973e-06
1.92559e-06
1.92749e-06
1.92577e-06
1.92094e-06
1.91339e-06
1.90347e-06
1.89152e-06
1.87785e-06
1.86272e-06
1.8464e-06
1.8291e-06
1.81103e-06
1.79234e-06
1.77318e-06
1.75375e-06
1.73405e-06
1.71454e-06
1.69273e-06
1.68339e-06
9.5443e-07
9.64611e-07
9.83412e-07
1.00915e-06
1.04184e-06
1.07952e-06
1.12053e-06
1.16375e-06
1.2082e-06
1.25294e-06
1.29713e-06
1.34004e-06
1.38106e-06
1.41962e-06
1.45528e-06
1.48764e-06
1.51639e-06
1.54128e-06
1.56216e-06
1.57894e-06
1.59136e-06
1.59983e-06
1.60533e-06
1.60777e-06
1.60743e-06
1.60468e-06
1.59984e-06
1.59317e-06
1.58492e-06
1.5753e-06
1.56453e-06
1.5528e-06
1.54027e-06
1.52709e-06
1.51339e-06
1.49928e-06
1.4849e-06
1.47027e-06
1.45578e-06
1.43927e-06
1.43396e-06
7.97086e-07
8.05026e-07
8.21812e-07
8.44331e-07
8.72388e-07
9.04372e-07
9.3892e-07
9.75109e-07
1.01216e-06
1.04936e-06
1.08602e-06
1.12156e-06
1.15548e-06
1.18731e-06
1.21669e-06
1.24332e-06
1.26699e-06
1.28751e-06
1.30477e-06
1.31871e-06
1.32912e-06
1.33629e-06
1.34103e-06
1.34327e-06
1.34324e-06
1.34126e-06
1.33759e-06
1.33246e-06
1.32607e-06
1.31863e-06
1.31029e-06
1.30121e-06
1.29153e-06
1.28137e-06
1.27081e-06
1.25995e-06
1.24888e-06
1.23766e-06
1.2264e-06
1.21424e-06
1.20771e-06
6.65349e-07
6.71863e-07
6.8702e-07
7.06825e-07
7.30979e-07
7.58214e-07
7.87404e-07
8.17768e-07
8.48668e-07
8.79536e-07
9.0988e-07
9.39285e-07
9.67377e-07
9.93805e-07
1.01826e-06
1.04048e-06
1.0603e-06
1.0776e-06
1.09234e-06
1.10453e-06
1.11409e-06
1.12125e-06
1.12668e-06
1.13027e-06
1.13217e-06
1.13259e-06
1.13169e-06
1.12961e-06
1.12648e-06
1.12242e-06
1.11756e-06
1.112e-06
1.10585e-06
1.09921e-06
1.09214e-06
1.08473e-06
1.07707e-06
1.06916e-06
1.06134e-06
1.05188e-06
1.05139e-06
5.55152e-07
5.60832e-07
5.74621e-07
5.92001e-07
6.12645e-07
6.35664e-07
6.60219e-07
6.85704e-07
7.11589e-07
7.37359e-07
7.62566e-07
7.86861e-07
8.09992e-07
8.31763e-07
8.52001e-07
8.70531e-07
8.87174e-07
9.01752e-07
9.14127e-07
9.24217e-07
9.31872e-07
9.37275e-07
9.40985e-07
9.43026e-07
9.4359e-07
9.42922e-07
9.41229e-07
9.38678e-07
9.35416e-07
9.31569e-07
9.27244e-07
9.22532e-07
9.17503e-07
9.12229e-07
9.0675e-07
9.01127e-07
8.95354e-07
8.89568e-07
8.83511e-07
8.77891e-07
8.71247e-07
4.63127e-07
4.68429e-07
4.8113e-07
4.96401e-07
5.13849e-07
5.32867e-07
5.52913e-07
5.73681e-07
5.94923e-07
6.1633e-07
6.37525e-07
6.58102e-07
6.77688e-07
6.95999e-07
7.12886e-07
7.28329e-07
7.42394e-07
7.55173e-07
7.66747e-07
7.77161e-07
7.86344e-07
7.94332e-07
8.01427e-07
8.07445e-07
8.12348e-07
8.16173e-07
8.18961e-07
8.20756e-07
8.21615e-07
8.21611e-07
8.20825e-07
8.19337e-07
8.17239e-07
8.14604e-07
8.11507e-07
8.07998e-07
8.04214e-07
8.0007e-07
7.96138e-07
7.89885e-07
7.95299e-07
3.86334e-07
3.91497e-07
4.03213e-07
4.16723e-07
4.31603e-07
4.47324e-07
4.63375e-07
4.7953e-07
4.95753e-07
5.1208e-07
5.28547e-07
5.45113e-07
5.616e-07
5.77668e-07
5.92864e-07
6.06711e-07
6.18805e-07
6.28881e-07
6.36837e-07
6.4274e-07
6.46613e-07
6.4877e-07
6.49744e-07
6.49774e-07
6.49103e-07
6.47951e-07
6.46488e-07
6.44841e-07
6.43103e-07
6.41334e-07
6.39576e-07
6.37857e-07
6.36176e-07
6.34553e-07
6.32972e-07
6.31457e-07
6.29894e-07
6.28526e-07
6.26534e-07
6.26919e-07
6.16354e-07
3.22372e-07
3.2728e-07
3.37503e-07
3.48865e-07
3.61296e-07
3.74565e-07
3.88191e-07
4.01749e-07
4.14887e-07
4.27352e-07
4.39062e-07
4.50148e-07
4.60921e-07
4.71783e-07
4.83112e-07
4.95165e-07
5.08024e-07
5.21585e-07
5.35599e-07
5.4972e-07
5.63598e-07
5.76836e-07
5.89291e-07
6.00547e-07
6.10398e-07
6.18774e-07
6.25665e-07
6.31102e-07
6.35153e-07
6.37917e-07
6.39504e-07
6.40028e-07
6.39623e-07
6.38388e-07
6.36439e-07
6.33836e-07
6.3082e-07
6.27157e-07
6.24103e-07
6.16385e-07
6.30574e-07
2.69732e-07
2.74368e-07
2.82722e-07
2.90964e-07
2.99357e-07
3.08347e-07
3.1819e-07
3.29099e-07
3.41083e-07
3.53819e-07
3.66667e-07
3.78795e-07
3.89363e-07
3.97701e-07
4.03452e-07
4.06615e-07
4.07504e-07
4.06633e-07
4.04574e-07
4.01933e-07
3.9885e-07
3.95696e-07
3.92732e-07
3.90217e-07
3.88195e-07
3.86657e-07
3.85616e-07
3.85097e-07
3.85119e-07
3.85687e-07
3.86796e-07
3.88437e-07
3.90571e-07
3.93187e-07
3.96227e-07
3.99686e-07
4.03362e-07
4.07638e-07
4.10822e-07
4.19805e-07
4.01e-07
2.2763e-07
2.32831e-07
2.40971e-07
2.47823e-07
2.53012e-07
2.56817e-07
2.59616e-07
2.61979e-07
2.64621e-07
2.68353e-07
2.74054e-07
2.82574e-07
2.9456e-07
3.10278e-07
3.29514e-07
3.51601e-07
3.75566e-07
4.00301e-07
4.24766e-07
4.47953e-07
4.69588e-07
4.89255e-07
5.06615e-07
5.21368e-07
5.33583e-07
5.43439e-07
5.51133e-07
5.56862e-07
5.60821e-07
5.63189e-07
5.64127e-07
5.63773e-07
5.62267e-07
5.59693e-07
5.56177e-07
5.51761e-07
5.46733e-07
5.40622e-07
5.3558e-07
5.23274e-07
5.45081e-07
1.94942e-07
2.01062e-07
2.10253e-07
2.1898e-07
2.26176e-07
2.31236e-07
2.33659e-07
2.33313e-07
2.30489e-07
2.2583e-07
2.2024e-07
2.14762e-07
2.10412e-07
2.07978e-07
2.07856e-07
2.09962e-07
2.13802e-07
2.18656e-07
2.23782e-07
2.28658e-07
2.32606e-07
2.35436e-07
2.36433e-07
2.36075e-07
2.34744e-07
2.32753e-07
2.3046e-07
2.2827e-07
2.26553e-07
2.25613e-07
2.25673e-07
2.26881e-07
2.29317e-07
2.32988e-07
2.37858e-07
2.43873e-07
2.50867e-07
2.59051e-07
2.66757e-07
2.81255e-07
2.69481e-07
1.69564e-07
1.73544e-07
1.78838e-07
1.8876e-07
2.08245e-07
2.39286e-07
2.7972e-07
3.25513e-07
3.72779e-07
4.1847e-07
4.60414e-07
4.97169e-07
5.27892e-07
5.52213e-07
5.70147e-07
5.8201e-07
5.88347e-07
5.89844e-07
5.87267e-07
5.81289e-07
5.72807e-07
5.64935e-07
5.56024e-07
5.47044e-07
5.38505e-07
5.30685e-07
5.23739e-07
5.17711e-07
5.12541e-07
5.08095e-07
5.04191e-07
5.00629e-07
4.97187e-07
4.93575e-07
4.89738e-07
4.85529e-07
4.8068e-07
4.75043e-07
4.67914e-07
4.64277e-07
4.48437e-07
0.12803
0.158738
0.18134
0.195617
0.204948
0.208712
0.2086
0.206132
0.201973
0.196506
0.190081
0.182992
0.175457
0.167635
0.159646
0.151581
0.143512
0.135493
0.127563
0.11975
0.112089
0.104581
0.0972337
0.0900426
0.0830164
0.0761656
0.0694996
0.0630248
0.0567492
0.0506818
0.0448312
0.0392085
0.0338281
0.0287011
0.0238284
0.0192095
0.0148465
0.0107468
0.00692581
0.00344222
0.00120733
0.00339034
0.0061004
0.00862453
0.0109156
0.0129634
0.0147648
0.0163196
0.0176287
0.018701
0.0195453
0.0201689
0.0205787
0.020782
0.0207871
0.0206036
0.0202421
0.019714
0.0190332
0.0182151
0.0172757
0.016232
0.0151013
0.013902
0.0126538
0.0113774
0.0100947
0.00882737
0.00759813
0.00642566
0.00534
0.00431692
0.00352874
0.00238758
0.530495
0.434985
0.384696
0.360266
0.341853
0.324735
0.308448
0.292979
0.278282
0.264305
0.251011
0.238364
0.22632
0.214838
0.203875
0.193395
0.183362
0.173743
0.164508
0.15563
0.147086
0.138851
0.130902
0.123223
0.115794
0.108598
0.101621
0.0948474
0.0882742
0.0818976
0.0757166
0.0697259
0.0639279
0.0583312
0.0529409
0.0477575
0.042781
0.0380153
0.033459
0.0291126
0.0249755
0.0210607
0.0173707
0.0139028
0.0106545
0.00762677
0.00482433
0.00227189
0.000656059
0.00244831
0.00437906
0.00613717
0.00770907
0.0090938
0.010293
0.0113095
0.012147
0.0128101
0.0133074
0.0136472
0.0138377
0.0138867
0.013802
0.0135924
0.0132667
0.0128349
0.0123076
0.011696
0.0110128
0.0102683
0.00948744
0.00864282
0.0079062
0.0067294
0.473919
0.423109
0.386563
0.362012
0.338612
0.316816
0.297273
0.279654
0.263681
0.249181
0.235993
0.223956
0.212919
0.202749
0.193324
0.184541
0.176308
0.168548
0.161195
0.15419
0.147487
0.141044
0.134829
0.128812
0.122969
0.117281
0.111733
0.106311
0.101005
0.0958074
0.0907129
0.0857118
0.080804
0.0759959
0.0712944
0.0667047
0.0622293
0.0578676
0.0536211
0.049493
0.0454855
0.0416067
0.0378647
0.0342641
0.0308064
0.0274966
0.0243349
0.0213218
0.018457
0.0157493
0.0132013
0.0108114
0.008577
0.00649647
0.00456919
0.00279644
0.00119008
0.000447113
0.00169319
0.00288359
0.00395159
0.00489612
0.00571925
0.00642383
0.00701316
0.007491
0.00786151
0.00812925
0.00829917
0.00837717
0.00837194
0.00828615
0.00812886
0.00796057
0.372837
0.311401
0.267669
0.239917
0.216651
0.196946
0.180746
0.167222
0.155777
0.146059
0.137793
0.130742
0.124714
0.119547
0.115101
0.111257
0.10791
0.104968
0.102349
0.099981
0.0978018
0.0957564
0.0937977
0.0918858
0.0899876
0.0880765
0.0861311
0.0841353
0.0820768
0.0799475
0.0777428
0.0754635
0.0731107
0.0706884
0.068204
0.0656669
0.0630864
0.0604669
0.0578192
0.0551538
0.0524791
0.0498047
0.0471407
0.0444971
0.0418823
0.0393009
0.0367586
0.0342614
0.0318144
0.0294253
0.027102
0.0248508
0.022676
0.0205807
0.0185672
0.0166379
0.0147951
0.0130408
0.0113807
0.00981739
0.00835034
0.0069789
0.00570173
0.00451701
0.00342304
0.00241836
0.00150189
0.00067509
0.000149132
0.000765563
0.00135235
0.00189397
0.00227938
0.00297741
0.202876
0.149469
0.112756
0.0909393
0.0749664
0.0627843
0.053669
0.0466831
0.0411972
0.0368601
0.0334298
0.0307242
0.0286096
0.0269876
0.0257831
0.0249378
0.0244054
0.024149
0.0241377
0.0243451
0.0247472
0.0253216
0.0260462
0.0268983
0.0278541
0.0288886
0.0299757
0.0310883
0.0321992
0.0332816
0.0343098
0.0352599
0.0361104
0.0368427
0.037442
0.0378975
0.0382027
0.0383565
0.0383585
0.0382112
0.0379196
0.0374909
0.0369346
0.0362617
0.0354839
0.0346091
0.0336491
0.0326161
0.031521
0.0303744
0.0291869
0.0279687
0.0267291
0.0254761
0.0242167
0.0229574
0.0217036
0.0204603
0.0192333
0.0180279
0.0168493
0.0157006
0.0145846
0.0135036
0.0124598
0.0114551
0.0104912
0.00956935
0.00869092
0.00785664
0.00707598
0.00631974
0.00569676
0.00480825
0.0466978
0.0294324
0.0182335
0.0123899
0.00861919
0.0060036
0.00425211
0.00305246
0.00220233
0.0015954
0.0011635
0.000857401
0.00064196
0.000491953
0.000389105
0.000320412
0.000276991
0.000253174
0.000245848
0.000254031
0.000278637
0.000322328
0.00038927
0.000484619
0.000613677
0.000781068
0.000990554
0.00124565
0.00155035
0.00190925
0.00232693
0.0028071
0.00335183
0.00396097
0.00463178
0.00535884
0.00613418
0.00694762
0.00778712
0.00863931
0.00949
0.0103248
0.0111296
0.0118916
0.012599
0.0132437
0.0138179
0.0143156
0.0147329
0.0150678
0.01532
0.0154912
0.0155841
0.0156028
0.0155521
0.015437
0.0152632
0.015036
0.0147613
0.0144449
0.0140927
0.0137097
0.0133008
0.0128708
0.0124244
0.0119657
0.0114984
0.0110258
0.0105509
0.0100762
0.00960636
0.00913693
0.00869055
0.00821739
0.00264498
0.00118738
0.000466056
0.000216909
0.000113509
6.07154e-05
3.47838e-05
2.16841e-05
1.44462e-05
1.04639e-05
8.77449e-06
8.79878e-06
9.9471e-06
1.16778e-05
1.36295e-05
1.55925e-05
1.74324e-05
1.90476e-05
2.03557e-05
2.12902e-05
2.17992e-05
2.1844e-05
2.13984e-05
2.04492e-05
1.89968e-05
1.70577e-05
1.4668e-05
1.18842e-05
8.7784e-06
5.43139e-06
1.99245e-06
2.26188e-06
6.2729e-06
1.09773e-05
1.67715e-05
2.44475e-05
3.52561e-05
5.1046e-05
7.43452e-05
0.000108227
0.000155822
0.000219583
0.000300815
0.000399847
0.000516539
0.000650576
0.000801387
0.000967945
0.00114862
0.00134116
0.00154275
0.00175015
0.00195987
0.00216834
0.00237202
0.00256761
0.00275207
0.00292277
0.00307747
0.00321442
0.0033323
0.00343053
0.00350883
0.00356719
0.00360584
0.00362533
0.00362642
0.00361004
0.0035772
0.00352924
0.0034667
0.0033932
0.00330042
0.00322797
0.000283434
0.000205777
0.000137511
0.000107488
9.51495e-05
8.03266e-05
6.639e-05
5.57628e-05
4.76346e-05
4.09949e-05
3.54165e-05
3.06786e-05
2.66531e-05
2.32369e-05
2.03334e-05
1.78718e-05
1.58063e-05
1.41013e-05
1.27213e-05
1.16267e-05
1.07735e-05
1.01131e-05
9.59536e-06
9.17222e-06
8.80098e-06
8.44668e-06
8.08292e-06
7.69232e-06
7.26477e-06
6.79649e-06
6.28895e-06
5.74803e-06
5.18343e-06
4.60823e-06
4.0386e-06
3.49331e-06
2.99292e-06
2.55888e-06
2.2124e-06
1.97347e-06
1.85998e-06
1.88613e-06
2.05908e-06
2.37516e-06
2.81928e-06
3.3686e-06
3.99816e-06
4.68685e-06
5.42277e-06
6.20751e-06
7.05898e-06
8.01267e-06
9.12146e-06
1.04545e-05
1.20947e-05
1.41351e-05
1.66723e-05
1.97974e-05
2.35818e-05
2.80626e-05
3.32271e-05
3.90035e-05
4.52597e-05
5.18126e-05
5.84445e-05
6.49242e-05
7.10251e-05
7.65413e-05
8.12954e-05
8.5138e-05
8.80006e-05
8.95555e-05
9.09636e-05
8.65895e-05
0.000467111
0.000383498
0.00028357
0.000225633
0.000195846
0.000164594
0.0001343
0.000111068
9.34617e-05
7.89826e-05
6.69658e-05