/*--------------------------------*- C++ -*----------------------------------*\
| =========                 |                                                 |
| \\      /  F ield         | OpenFOAM: The Open Source CFD Toolbox           |
|  \\    /   O peration     | Version:  2312                                  |
|   \\  /    A nd           | Website:  www.openfoam.com                      |
|    \\/     M anipulation  |                                                 |
\*---------------------------------------------------------------------------*/
FoamFile
{
    version     2.0;
    format      ascii;
    arch        "LSB;label=32;scalar=64";
    class       volSymmTensorField;
    location    "248";
    object      turbulenceProperties:R;
}
// * * * * * * * * * * * * * * * * * * * * * * * * * * * * * * * * * * * * * //

dimensions      [0 2 -2 0 0 0 0];

internalField   nonuniform List<symmTensor> 
11040
(
(0.0637532 0.00300758 1.05235e-21 0.0480674 -5.56571e-21 0.0551631)
(0.158163 0.00407391 1.02237e-20 0.104254 4.63807e-21 0.134198)
(0.370899 -0.0141884 8.03694e-20 0.200511 9.95668e-20 0.296858)
(0.736862 -0.0856007 -7.64633e-20 0.348872 -2.60301e-20 0.563183)
(1.2958 -0.23404 -9.92636e-20 0.611025 -1.88745e-20 0.982235)
(2.10724 -0.477077 -1.01978e-19 1.05751 1.77235e-20 1.62035)
(3.07698 -0.802101 -3.67702e-19 1.66366 -6.31689e-19 2.41552)
(3.83971 -1.10761 -6.47866e-19 2.22926 -3.27235e-19 3.07936)
(4.21748 -1.31531 2.8589e-19 2.61355 2.86146e-20 3.45347)
(4.32305 -1.43483 -5.02766e-19 2.84182 5.48577e-21 3.61172)
(4.30822 -1.50475 1.84717e-19 2.98759 3.43568e-19 3.66987)
(4.25216 -1.54993 -9.15411e-19 3.09575 1.77574e-19 3.6905)
(4.17782 -1.57969 -3.58646e-19 3.18159 -1.96627e-19 3.69246)
(4.0865 -1.59567 -1.60194e-19 3.24637 1.75942e-19 3.67656)
(3.97612 -1.59784 3.50629e-20 3.28844 -7.99741e-21 3.64053)
(3.84654 -1.58652 -3.58367e-19 3.30712 -2.12985e-19 3.58371)
(3.69952 -1.56266 5.94685e-20 3.30317 1.56681e-20 3.5072)
(3.53839 -1.52768 1.79449e-19 3.27827 3.65373e-19 3.41336)
(3.36597 -1.48292 -9.44414e-20 3.23414 3.71608e-21 3.30441)
(3.18492 -1.42952 -3.55618e-20 3.17182 -4.82309e-20 3.18207)
(2.9931 -1.3668 -7.43423e-21 3.08892 3.04919e-20 3.04413)
(2.80391 -1.29906 1.32646e-19 2.98855 7.60301e-20 2.89827)
(2.63721 -1.23495 -1.04231e-19 2.88377 -5.01918e-20 2.76136)
(2.49387 -1.17795 3.46213e-20 2.78696 1.70609e-19 2.64099)
(2.36712 -1.12648 -1.37529e-19 2.69833 -1.31329e-19 2.5333)
(2.25073 -1.07809 -1.76895e-21 2.61307 -3.14895e-19 2.43236)
(2.14132 -1.03162 -6.2447e-20 2.52894 -1.28486e-19 2.33549)
(2.03766 -0.98672 -2.5939e-19 2.44548 8.24509e-20 2.24184)
(1.93863 -0.943075 -1.0116e-19 2.36228 -7.80633e-20 2.15064)
(1.84306 -0.900275 1.12843e-19 2.27855 -2.11857e-19 2.06091)
(1.74975 -0.857862 8.57419e-20 2.19336 1.04914e-19 1.97157)
(1.6575 -0.815348 4.87387e-19 2.10561 -9.95467e-20 1.88147)
(1.56522 -0.772261 5.92822e-19 2.01407 1.62988e-19 1.78945)
(1.47138 -0.727914 6.91921e-20 1.91702 1.08201e-19 1.69388)
(1.37416 -0.681449 1.23928e-19 1.81216 -1.4337e-20 1.5927)
(1.27225 -0.632218 2.85104e-19 1.69733 5.0588e-20 1.48415)
(1.16299 -0.57892 -7.17458e-20 1.56861 3.7102e-20 1.36497)
(1.04587 -0.52127 4.74919e-20 1.42441 5.85595e-21 1.23398)
(0.906402 -0.452177 -1.63063e-19 1.24553 6.21646e-20 1.0748)
(0.776178 -0.386701 -3.17315e-20 1.06578 8.51061e-20 0.918262)
(0.511074 -0.25525 1.57423e-21 0.721267 -1.21366e-20 0.61613)
(0.0216534 -0.00104425 -1.00079e-21 0.0172937 7.31556e-22 0.0194699)
(0.0228996 -0.00257266 3.06234e-22 0.0216965 2.60936e-21 0.0215176)
(0.0245193 -0.0027174 -1.60235e-20 0.0258544 -1.55578e-20 0.0237034)
(0.023645 -0.0025425 -1.75152e-21 0.0256923 -1.90885e-21 0.0228284)
(0.022994 -0.00273626 1.25156e-22 0.024911 -7.65625e-22 0.0218191)
(0.028467 -0.00472889 -9.88994e-21 0.0304404 -1.04142e-20 0.0260562)
(0.0459673 -0.0118137 -1.15614e-20 0.047561 5.27584e-20 0.0395708)
(0.075216 -0.0248771 1.1233e-19 0.0724951 1.27619e-19 0.0616916)
(0.110086 -0.0395734 -8.05741e-21 0.0979974 -2.22738e-20 0.0891789)
(0.14584 -0.0536846 6.59674e-20 0.122072 2.56416e-20 0.118955)
(0.179218 -0.0665886 -9.82611e-20 0.144401 -2.06734e-19 0.148264)
(0.20834 -0.0781479 6.8194e-19 0.165127 7.50431e-20 0.175285)
(0.232512 -0.0884305 -9.2282e-21 0.184411 1.93941e-19 0.199215)
(0.252121 -0.0976574 5.23244e-19 0.202671 3.7458e-20 0.220159)
(0.267966 -0.106041 -2.76731e-19 0.220321 -5.43089e-20 0.238578)
(0.28078 -0.113692 8.7946e-20 0.237557 2.22297e-19 0.254897)
(0.291118 -0.120636 1.67076e-19 0.254376 7.55036e-20 0.269416)
(0.299271 -0.126807 1.76513e-19 0.270523 -2.05156e-19 0.282223)
(0.305585 -0.132221 1.20351e-21 0.285911 -1.02448e-20 0.293536)
(0.31044 -0.136919 -1.57599e-20 0.300443 3.14771e-20 0.303576)
(0.3151 -0.141385 -5.38908e-20 0.314946 1.15338e-20 0.313524)
(0.318423 -0.144857 -1.04366e-19 0.326875 -8.49942e-20 0.321776)
(0.317378 -0.145944 2.11329e-19 0.332935 1.32738e-19 0.324934)
(0.311939 -0.144887 3.27455e-20 0.334443 -1.25807e-19 0.323309)
(0.304793 -0.142866 4.42185e-20 0.33391 8.09061e-20 0.319507)
(0.29769 -0.140627 -9.75967e-20 0.332571 3.46294e-19 0.315243)
(0.291084 -0.138431 -4.38953e-20 0.330975 1.86135e-19 0.311131)
(0.284959 -0.136313 4.08483e-19 0.329249 -2.65409e-20 0.307222)
(0.279312 -0.134301 -1.88131e-21 0.3275 6.1481e-20 0.303557)
(0.274165 -0.132422 -2.55355e-19 0.325803 1.4385e-19 0.300185)
(0.26957 -0.130721 -3.70758e-19 0.324279 -8.01446e-20 0.297196)
(0.265608 -0.12925 -6.82274e-19 0.323062 -1.26032e-19 0.294699)
(0.262365 -0.12806 -5.43267e-19 0.322269 -2.50211e-19 0.292801)
(0.260008 -0.12724 -2.74125e-19 0.322108 -6.30879e-20 0.29169)
(0.258802 -0.126924 1.59749e-19 0.322876 -2.05522e-20 0.291662)
(0.259124 -0.127283 -5.31539e-19 0.324855 -1.39143e-19 0.293042)
(0.261332 -0.128517 4.1193e-19 0.328584 -9.04671e-20 0.296354)
(0.266725 -0.13112 -3.04772e-19 0.334559 3.67709e-20 0.302283)
(0.275304 -0.135483 5.96706e-20 0.345355 -5.94987e-20 0.313029)
(0.295392 -0.143787 1.48923e-19 0.359118 -1.70295e-19 0.32794)
(0.326765 -0.160737 -3.25408e-19 0.401069 1.17874e-19 0.375356)
(0.0157787 -0.000707686 2.66594e-22 0.012434 7.08113e-22 0.0141019)
(0.0119695 -0.00139645 -5.34147e-21 0.0109701 -3.38026e-21 0.0115576)
(0.00673703 -0.000766628 8.19543e-21 0.00746495 5.40772e-21 0.0074769)
(0.00552015 3.05222e-05 1.08885e-20 0.00649875 6.81247e-21 0.00664088)
(0.00664668 0.000498234 -3.89759e-22 0.00727136 -3.87797e-22 0.00767992)
(0.00712047 0.000677088 3.48136e-21 0.00740705 3.19997e-21 0.00795376)
(0.00686673 0.000710581 7.21748e-21 0.00694847 2.39497e-21 0.00752466)
(0.00627132 0.000691811 7.36693e-21 0.00623753 -8.00525e-22 0.00679945)
(0.00561993 0.000675432 -6.27435e-21 0.00550302 -1.74208e-21 0.00606158)
(0.00507728 0.000693567 4.93332e-22 0.00485622 -2.30323e-21 0.00547236)
(0.00450005 0.000697116 -8.87019e-21 0.00409997 3.79416e-21 0.00485208)
(0.00388189 0.000576535 -2.85877e-20 0.00310363 -2.34419e-20 0.00415378)
(0.00378476 -0.000106215 4.48046e-20 0.00229798 5.98963e-21 0.00380068)
(0.00747708 -0.00197037 -7.31172e-20 0.00494805 -2.94185e-20 0.00693975)
(0.0155197 -0.00539077 6.81348e-20 0.0117828 5.11693e-20 0.01417)
(0.027131 -0.0104134 3.25283e-20 0.0222453 -2.16365e-20 0.0248748)
(0.0419368 -0.0169468 -2.07049e-20 0.0361879 -5.73812e-20 0.0388751)
(0.0594283 -0.0248154 -2.81516e-20 0.0533499 -4.99409e-20 0.0558492)
(0.0789025 -0.0337586 -9.78468e-22 0.0732731 -1.99364e-21 0.0752669)
(0.0994934 -0.0434182 7.61764e-21 0.0952746 4.45812e-21 0.0963634)
(0.120551 -0.0535083 8.99465e-20 0.118764 1.15197e-20 0.118576)
(0.140891 -0.0634653 8.18214e-20 0.14253 1.22317e-20 0.140674)
(0.158768 -0.0724513 -2.00803e-20 0.164817 -8.07283e-20 0.1607)
(0.173256 -0.0799644 9.99675e-21 0.184224 -3.76605e-20 0.177641)
(0.184587 -0.0859999 -1.3044e-19 0.200385 -4.67792e-20 0.191473)
(0.193361 -0.0907912 3.31441e-19 0.213721 -1.01287e-19 0.202624)
(0.199949 -0.0945159 2.08372e-19 0.224621 2.22345e-20 0.211468)
(0.204753 -0.0973586 -4.00547e-19 0.233481 -1.12387e-19 0.218391)
(0.208174 -0.0994997 -7.71561e-20 0.240673 6.02295e-20 0.223776)
(0.210564 -0.1011 8.43479e-20 0.246525 1.34291e-19 0.227956)
(0.21219 -0.102283 4.06633e-19 0.251287 -4.66831e-21 0.231191)
(0.213278 -0.103156 -1.85371e-19 0.25517 2.69027e-19 0.233702)
(0.214025 -0.10381 4.99184e-19 0.258351 -3.99934e-20 0.235675)
(0.214587 -0.104318 6.16725e-19 0.260941 -4.24688e-20 0.237246)
(0.215183 -0.104779 -1.47074e-19 0.263104 -3.65308e-20 0.238614)
(0.216086 -0.105303 -4.14465e-19 0.264957 1.31073e-19 0.239956)
(0.217677 -0.106094 -5.64765e-19 0.267008 4.45477e-20 0.241776)
(0.220488 -0.107226 6.11213e-19 0.268613 -8.22046e-20 0.243818)
(0.225807 -0.109816 1.03473e-19 0.274409 -1.16695e-20 0.249871)
(0.236161 -0.112864 1.86736e-19 0.274119 -2.2494e-20 0.25309)
(0.263826 -0.128911 3.13056e-19 0.320295 -1.58486e-19 0.296428)
(0.0103377 -0.000415152 -1.27446e-23 0.0081164 -2.97941e-22 0.00924122)
(0.00929939 -0.00101049 1.43553e-21 0.00829428 3.44585e-22 0.00879)
(0.00785315 -0.00100948 -6.14777e-21 0.00826877 -3.2823e-21 0.00799502)
(0.00689189 -0.000720266 -9.19636e-21 0.00812442 -6.30558e-21 0.00735645)
(0.00615233 -0.000432691 1.11139e-21 0.00759999 8.08568e-22 0.00663623)
(0.0054155 -0.000249638 5.77575e-21 0.00675909 1.93927e-21 0.00579275)
(0.00469376 -0.000154665 -1.58343e-21 0.0058429 -2.27522e-21 0.0049586)
(0.00402322 -0.000106319 -2.21741e-21 0.0049824 -2.39626e-21 0.00420452)
(0.00340237 -7.86448e-05 2.21094e-21 0.00419357 1.79675e-21 0.00352537)
(0.0028255 -6.12438e-05 -2.73243e-21 0.00346843 -2.90665e-22 0.00290715)
(0.00229504 -5.01175e-05 6.65237e-21 0.00280864 2.79038e-21 0.00234726)
(0.00179072 -4.17377e-05 -1.72584e-21 0.0021839 1.45027e-21 0.00182152)
(0.00133192 -3.60298e-05 -2.60755e-22 0.00161673 -1.45913e-21 0.00134707)
(0.000945453 -3.49713e-05 5.80187e-21 0.00113912 2.06049e-21 0.000948441)
(0.000665023 -4.26749e-05 2.62261e-21 0.000786219 -1.62643e-21 0.000656863)
(0.000553745 -6.7265e-05 -2.49709e-21 0.000612211 -1.24126e-21 0.000531781)
(0.000758841 -0.000131492 -5.4669e-21 0.00074228 4.48022e-22 0.000713339)
(0.00140917 -0.000296326 -3.2825e-21 0.00126226 -3.61328e-22 0.00131667)
(0.00271004 -0.000700199 6.64393e-22 0.00231019 6.17751e-22 0.00252702)
(0.00500047 -0.00156 -9.20923e-22 0.00417741 -1.49309e-21 0.00467142)
(0.00877301 -0.00314664 -7.18267e-21 0.00738715 -4.05809e-21 0.0082654)
(0.0141581 -0.00555632 -2.63564e-20 0.0123288 -8.53677e-21 0.0135383)
(0.02064 -0.00857658 -1.10158e-20 0.0187905 -6.24244e-21 0.0200808)
(0.0279366 -0.0120498 -2.81475e-20 0.026492 9.07784e-21 0.0276518)
(0.035991 -0.015918 -6.08388e-20 0.0352981 4.41337e-20 0.0361567)
(0.0447035 -0.0201302 -2.71564e-19 0.0451115 -1.89229e-20 0.0454622)
(0.0538985 -0.0246081 3.99449e-20 0.0557623 -3.62053e-20 0.0554022)
(0.0633788 -0.0292584 5.54476e-20 0.0670311 8.36607e-20 0.0657805)
(0.0729928 -0.034004 1.93224e-19 0.0787227 1.58692e-21 0.0764293)
(0.0826271 -0.0387833 1.61263e-19 0.0906712 -5.59851e-20 0.0872079)
(0.0922133 -0.0435561 -2.90083e-19 0.102751 -1.1954e-20 0.0980223)
(0.101733 -0.0483054 2.52278e-19 0.114886 -5.67407e-21 0.108828)
(0.111208 -0.0530322 -8.04975e-19 0.127035 9.53472e-20 0.119614)
(0.120752 -0.0577804 -1.97618e-19 0.139244 -1.28717e-20 0.130463)
(0.130541 -0.0626217 -1.84964e-19 0.151614 5.57646e-20 0.141515)
(0.140797 -0.0676366 -8.02698e-20 0.164215 5.28061e-20 0.152899)
(0.151849 -0.0729856 -2.3274e-21 0.177385 2.56781e-20 0.164996)
(0.164344 -0.0788175 9.3149e-20 0.190929 -2.42939e-20 0.177843)
(0.179341 -0.0860527 -1.91746e-19 0.208217 3.18062e-20 0.194386)
(0.197736 -0.0932325 3.28401e-19 0.220744 -1.6319e-20 0.208044)
(0.228521 -0.110816 -8.95175e-20 0.270171 5.22832e-20 0.253812)
(0.00693046 -0.000254172 9.00073e-22 0.00542323 4.10156e-22 0.00618229)
(0.00667063 -0.000655265 -1.33763e-21 0.00576019 -1.00161e-21 0.00621992)
(0.00576013 -0.000737535 6.15458e-21 0.00574175 2.16709e-21 0.00575177)
(0.00456371 -0.000545018 8.45646e-21 0.00517613 4.43373e-21 0.00490035)
(0.00336744 -0.000261519 -7.62716e-21 0.00417358 -3.41019e-21 0.00384214)
(0.00251172 -3.32318e-05 6.48765e-22 0.00321971 -3.07718e-22 0.00297262)
(0.00209788 0.000105393 -1.18277e-21 0.0026114 -5.78042e-22 0.0024861)
(0.00198705 0.000176613 -3.59685e-21 0.0023168 -7.05279e-22 0.00229758)
(0.00198622 0.00020843 1.10078e-21 0.00217288 1.45929e-22 0.00223014)
(0.00198412 0.00021869 1.43596e-21 0.00206791 4.30731e-22 0.00217368)
(0.00194799 0.000217698 2.24394e-21 0.00196181 -1.05783e-21 0.00209391)
(0.00186824 0.000210402 -1.18899e-22 0.00183881 2.7332e-22 0.00197924)
(0.00175706 0.000200254 -2.31531e-22 0.00170411 2.49918e-22 0.00184027)
(0.0016232 0.000188386 -3.24084e-21 0.0015613 -2.64717e-21 0.00168399)
(0.0014777 0.000174893 -1.78091e-21 0.00141569 -3.24504e-23 0.00151981)
(0.00133203 0.000159907 1.14492e-22 0.00127351 1.591e-22 0.00135816)
(0.00119058 0.000143553 1.0365e-21 0.00113629 7.1676e-22 0.00120304)
(0.00105488 0.000126385 -1.23622e-21 0.00100407 6.32598e-23 0.00105587)
(0.000925504 0.000109295 2.06963e-22 0.000876369 -5.24539e-23 0.000917022)
(0.000803332 9.33847e-05 -3.3516e-22 0.000753329 5.71567e-23 0.000786693)
(0.000688568 7.94066e-05 8.10977e-22 0.000632457 2.67032e-22 0.000663455)
(0.000572832 6.56149e-05 -9.38457e-24 0.000504678 2.50942e-22 0.000537424)
(0.000454884 4.82136e-05 -1.55334e-21 0.000370896 3.37545e-22 0.000406511)
(0.000363329 1.71114e-05 3.09608e-21 0.000257968 6.74585e-22 0.000298124)
(0.000466965 -5.12018e-05 9.08279e-21 0.000330593 -1.02394e-21 0.000377883)
(0.000915044 -0.000199875 7.09452e-21 0.000742006 7.20454e-21 0.00079445)
(0.0016948 -0.000486333 -2.02544e-21 0.00149418 6.86152e-23 0.00154221)
(0.00284028 -0.000965573 2.67136e-20 0.00264571 -8.46891e-21 0.00266982)
(0.00440825 -0.00167759 -4.85216e-21 0.00427926 -1.27396e-20 0.00424971)
(0.00646557 -0.00264991 -4.63359e-20 0.00648344 -3.29574e-23 0.0063609)
(0.00909575 -0.00391161 5.08821e-20 0.00935826 1.10474e-20 0.00909592)
(0.0124059 -0.00550429 -1.09072e-20 0.0130255 -8.81916e-21 0.0125696)
(0.0165254 -0.00748327 2.29087e-19 0.017628 -2.28731e-22 0.0169176)
(0.0216508 -0.00993746 1.29763e-19 0.0233756 -1.77035e-20 0.0223428)
(0.028041 -0.0129858 9.22398e-20 0.0305394 -7.61953e-21 0.029112)
(0.0360445 -0.0167829 9.57136e-20 0.0394545 -8.64464e-21 0.0375604)
(0.0461063 -0.0215432 -7.8842e-20 0.0506157 1.01902e-20 0.0481808)
(0.0591624 -0.0276237 1.7005e-20 0.0646588 -3.07895e-22 0.0616634)
(0.076544 -0.0358939 -8.14228e-20 0.0840805 8.87674e-21 0.0803306)
(0.0986817 -0.0454756 -2.96897e-19 0.1048 5.42189e-20 0.100739)
(0.138872 -0.0665056 2.48239e-19 0.15849 -3.11507e-20 0.151428)
(0.00462628 -0.000159749 -1.02198e-21 0.00361555 -5.06626e-22 0.00412352)
(0.00468258 -0.000418314 4.15482e-21 0.00395472 1.12303e-21 0.00432479)
(0.00438004 -0.000539853 -2.67205e-21 0.00418389 8.63922e-23 0.00427483)
(0.00391211 -0.000496491 -2.44679e-21 0.00423124 -9.76547e-22 0.00406185)
(0.00339316 -0.000349747 1.6921e-21 0.00403742 8.12e-22 0.00369918)
(0.00293385 -0.000189916 -1.06876e-21 0.00368837 -4.52959e-22 0.00328107)
(0.00255672 -6.91973e-05 -1.75943e-21 0.00328326 -6.02936e-22 0.002874)
(0.00224603 5.22091e-06 -1.97557e-22 0.00288893 4.87455e-22 0.00250818)
(0.00198539 4.5658e-05 -9.30953e-23 0.00253549 1.32149e-22 0.00219148)
(0.00176265 6.51194e-05 -3.46416e-21 0.00222791 -1.23862e-21 0.00191989)
(0.00156795 7.24513e-05 -2.63619e-21 0.00196008 -1.20598e-22 0.00168513)
(0.00139158 7.30667e-05 1.68906e-21 0.00172111 -1.28028e-22 0.00147699)
(0.0012275 7.01191e-05 5.21988e-22 0.00150297 3.41788e-22 0.00128818)
(0.0010701 6.56728e-05 -4.07421e-21 0.00129735 7.40869e-23 0.00111152)
(0.000914909 6.11697e-05 3.50836e-21 0.00109695 7.19486e-22 0.000941077)
(0.000768636 5.69808e-05 -1.63912e-21 0.000908657 -1.72015e-22 0.000782426)
(0.000637414 5.30501e-05 -1.29919e-23 0.000739035 -6.55784e-22 0.000640963)
(0.000525077 4.92002e-05 -3.96094e-22 0.000591929 4.26821e-22 0.000519962)
(0.000434375 4.51952e-05 -3.63152e-22 0.000469924 -7.5473e-23 0.000421829)
(0.000369054 4.08073e-05 2.40373e-22 0.000376834 1.69679e-22 0.000350031)
(0.000327886 3.54122e-05 3.5465e-22 0.00031163 -2.12358e-22 0.000303572)
(0.000301067 2.84599e-05 -2.58559e-22 0.000267709 1.29074e-23 0.000273783)
(0.000278285 2.16925e-05 4.5914e-22 0.000237251 3.63517e-23 0.000250788)
(0.000260622 1.68148e-05 1.5676e-22 0.00021729 -1.89267e-22 0.000234628)
(0.000250537 1.34529e-05 -2.06296e-21 0.000206369 -2.1636e-22 0.000226163)
(0.000244839 1.06306e-05 1.46753e-21 0.000200089 -2.70516e-22 0.00022149)
(0.000241309 7.93428e-06 1.55346e-22 0.000195952 -1.76649e-22 0.000218472)
(0.000240379 5.22054e-06 -2.34205e-21 0.000194001 -7.45614e-23 0.00021759)
(0.000244404 2.22427e-06 -1.72896e-21 0.000195884 1.62547e-22 0.000220967)
(0.000257492 -1.58546e-06 1.15182e-21 0.000204682 2.44079e-22 0.00023226)
(0.000286819 -7.28542e-06 9.17968e-22 0.00022591 -3.02442e-22 0.000257906)
(0.000345316 -1.73075e-05 2.93169e-22 0.000269499 1.2118e-22 0.000309458)
(0.000456407 -3.73706e-05 -4.90466e-21 0.000353379 -3.91438e-22 0.000407768)
(0.000666245 -8.18089e-05 -7.63891e-21 0.000512819 2.5805e-22 0.000593844)
(0.00106056 -0.000185354 -3.49729e-21 0.00081554 -4.13933e-22 0.000945047)
(0.00179197 -0.000423409 8.98367e-21 0.00139001 -1.26132e-21 0.00160202)
(0.00309266 -0.000929803 1.93665e-21 0.00246939 6.28128e-22 0.00280061)
(0.00539237 -0.00190902 1.75602e-20 0.00446759 -2.59248e-21 0.0049466)
(0.00958094 -0.00383634 6.26939e-20 0.00852152 -9.07116e-21 0.00913325)
(0.0160566 -0.00665078 5.5033e-21 0.0145077 -4.02799e-21 0.0151363)
(0.0346464 -0.0157967 -1.18419e-19 0.0355863 2.20819e-20 0.0359448)
(0.00313439 -0.000105642 -1.3175e-22 0.00244864 -6.90897e-23 0.00279122)
(0.00325342 -0.000266808 8.36628e-23 0.00270513 3.59236e-22 0.00298583)
(0.00316884 -0.000368963 -1.59425e-21 0.00291668 -5.78042e-22 0.0030406)
(0.00297181 -0.000383896 -2.40049e-21 0.0030601 -1.26022e-21 0.00301484)
(0.00264605 -0.000313315 -1.18381e-21 0.00301104 -4.31081e-22 0.00283183)
(0.00226265 -0.000199071 3.66013e-21 0.00277044 1.48988e-21 0.00252443)
(0.00189411 -8.74086e-05 -1.06955e-21 0.0024184 -3.30514e-22 0.00216958)
(0.00158211 -1.83176e-06 1.01122e-21 0.00204639 3.95117e-22 0.00183414)
(0.00134273 5.49586e-05 4.21026e-21 0.00171705 1.14793e-21 0.00155672)
(0.0011731 8.88384e-05 -1.10794e-22 0.00145418 6.14463e-22 0.00134674)
(0.00106158 0.000106755 5.65902e-21 0.00125847 1.34112e-21 0.00119811)
(0.000992825 0.000114295 -4.62042e-21 0.00111882 -1.57369e-21 0.00109753)
(0.000951963 0.000115483 3.41465e-21 0.00102082 1.12702e-21 0.00103041)
(0.000927273 0.000113207 1.00796e-22 0.000951535 4.79846e-23 0.000984353)
(0.000907193 0.000109076 -1.62275e-21 0.000898111 -7.70962e-22 0.000946832)
(0.000882599 0.000103833 5.37841e-22 0.000849663 3.93577e-22 0.000907833)
(0.0008516 9.78782e-05 -2.27701e-21 0.000801492 1.09014e-22 0.000864685)
(0.000815759 9.14792e-05 1.01688e-21 0.000752944 2.60764e-22 0.000818364)
(0.000776816 8.47412e-05 -2.55932e-22 0.00070426 1.47744e-22 0.000770205)
(0.000735958 7.7667e-05 1.68923e-22 0.000655678 -5.01361e-22 0.00072111)
(0.000692734 6.99019e-05 -1.54813e-22 0.000606039 2.03259e-22 0.000670537)
(0.000642706 6.11837e-05 1.64725e-22 0.000552175 -5.52248e-24 0.000614695)
(0.000586764 5.26701e-05 -1.14666e-21 0.000496782 -1.82473e-22 0.000555415)
(0.000535004 4.58545e-05 4.9345e-22 0.000448654 -3.89108e-23 0.000502526)
(0.000494562 4.08022e-05 9.89978e-22 0.000412089 3.47049e-22 0.000461805)
(0.000463146 3.66736e-05 -6.23405e-22 0.000383755 -2.90633e-22 0.00043007)
(0.000437222 3.29549e-05 -1.55688e-21 0.00036033 -3.89105e-23 0.000403775)
(0.00041517 2.95142e-05 9.21706e-22 0.000340506 3.91817e-22 0.000381506)
(0.000396119 2.62528e-05 1.42744e-23 0.000323554 4.27671e-22 0.000362461)
(0.000379108 2.30449e-05 6.32885e-22 0.000308661 -1.34927e-22 0.000345689)
(0.000363133 1.97862e-05 -5.37093e-23 0.000295045 -1.85808e-22 0.000330252)
(0.00034717 1.64011e-05 1.06342e-21 0.000281942 -1.69407e-22 0.000315236)
(0.000330235 1.28623e-05 6.86193e-24 0.00026863 1.57026e-22 0.000299769)
(0.000311595 9.17902e-06 -4.49554e-22 0.000254588 2.43816e-22 0.000283199)
(0.000291099 5.41062e-06 -1.33974e-21 0.000239645 2.15613e-22 0.000265369)
(0.000271099 1.71775e-06 9.82303e-22 0.000225627 -1.52585e-22 0.000248285)
(0.000256421 -2.10741e-06 9.91573e-22 0.000216113 -1.49804e-22 0.000236288)
(0.000258799 -6.20071e-06 -8.0958e-22 0.000221312 1.08473e-22 0.000239912)
(0.000342352 -1.87053e-05 4.1833e-22 0.000294543 -4.37362e-23 0.000319321)
(0.000472434 -3.88839e-05 -2.11169e-23 0.000410661 -2.92861e-24 0.000439892)
(0.00235237 -0.000591119 -8.09371e-22 0.00202863 -4.48094e-22 0.00223735)
(0.00213944 -7.24824e-05 -2.53971e-23 0.00167194 6.99137e-23 0.00190416)
(0.00225046 -0.000173145 -7.75564e-22 0.00185337 -2.15559e-22 0.00205753)
(0.00224498 -0.000246841 8.02918e-22 0.00201247 -1.65976e-22 0.00212758)
(0.00220669 -0.000280996 3.31122e-21 0.00218377 9.06572e-22 0.0021935)
(0.00208573 -0.000262903 6.51353e-22 0.00227406 3.56489e-22 0.00217874)
(0.00190749 -0.000202643 4.65289e-22 0.00225359 2.05855e-22 0.0020784)
(0.00171685 -0.00012571 -5.55363e-21 0.00214207 -1.74977e-21 0.00192509)
(0.00153986 -5.41057e-05 -4.50644e-22 0.00197631 -1.90125e-22 0.00175098)
(0.00138437 1.62893e-06 -1.62149e-21 0.00178958 -6.23529e-22 0.00157704)
(0.00124952 3.98656e-05 3.14732e-21 0.00160413 9.66942e-22 0.00141401)
(0.00113153 6.33276e-05 -2.55938e-21 0.00143114 -1.27086e-21 0.00126555)
(0.00102676 7.58631e-05 -2.04008e-21 0.00127475 7.85498e-23 0.00113205)
(0.000933231 8.09988e-05 3.33114e-21 0.00113623 1.60511e-22 0.00101338)
(0.000849912 8.15604e-05 -3.55982e-21 0.00101506 -5.28339e-22 0.000908913)
(0.000774512 7.94126e-05 1.794e-22 0.000907865 -7.08957e-23 0.000816036)
(0.000703816 7.5757e-05 8.12472e-22 0.000809462 2.94931e-22 0.000730894)
(0.000636747 7.13309e-05 2.45626e-21 0.000717285 4.40899e-22 0.000651726)
(0.000574595 6.65229e-05 9.56937e-23 0.000632134 1.03366e-22 0.000579282)
(0.000518059 6.1454e-05 5.87914e-22 0.000554406 -8.86609e-24 0.000513872)
(0.00046729 5.60665e-05 -2.77291e-21 0.000483933 -2.39736e-22 0.000455277)
(0.000422191 5.02387e-05 1.88855e-21 0.000420509 2.70902e-22 0.000403305)
(0.000381636 4.38082e-05 -4.34503e-22 0.000364443 -7.33629e-23 0.000357346)
(0.000345057 3.72326e-05 -5.9732e-22 0.000317246 1.40585e-22 0.000317405)
(0.000315018 3.15473e-05 -8.78698e-23 0.000280637 6.62517e-23 0.000285844)
(0.00029437 2.71353e-05 -2.6319e-22 0.000255161 -9.9472e-23 0.000264532)
(0.000282181 2.3557e-05 -1.30559e-22 0.000238587 1.36338e-22 0.000251715)
(0.000275983 2.03959e-05 -6.09701e-22 0.000228227 3.73757e-22 0.000244743)
(0.000274129 1.75221e-05 4.92356e-22 0.000222467 -1.49123e-22 0.000242062)
(0.000275896 1.4879e-05 1.70966e-21 0.000220503 -1.53909e-22 0.000242967)
(0.000280825 1.23761e-05 3.74605e-22 0.000221769 -2.29198e-22 0.000246943)
(0.000288505 9.91478e-06 -1.59893e-21 0.000225798 1.7951e-22 0.00025355)
(0.000298538 7.40488e-06 -7.36243e-22 0.000232209 -4.07535e-23 0.000262416)
(0.000310445 4.75205e-06 -1.60864e-24 0.000240628 3.90922e-23 0.000273128)
(0.000323618 1.87187e-06 1.51195e-21 0.000250701 -1.88857e-22 0.000285213)
(0.000336689 -1.34174e-06 8.38511e-22 0.0002616 -5.77943e-24 0.000297616)
(0.000347375 -4.79247e-06 -6.1143e-22 0.00027202 3.63903e-24 0.000308483)
(0.000351615 -8.59039e-06 -1.25015e-21 0.000279292 1.50166e-22 0.000314649)
(0.000341521 -1.13545e-05 6.28004e-22 0.000277745 -7.0466e-23 0.000308859)
(0.000319223 -1.41951e-05 -3.62594e-22 0.000269344 4.8482e-23 0.000294323)
(0.000245814 -1.11129e-05 4.81226e-22 0.000217684 -5.33637e-23 0.000231141)
(0.000218479 -1.02229e-05 4.29334e-23 0.000204923 -7.76474e-24 0.000212485)
(0.00147036 -5.12923e-05 -1.16061e-22 0.00115011 6.20586e-23 0.00130828)
(0.00155881 -0.000114973 -6.18691e-22 0.00127664 -3.11332e-22 0.00142223)
(0.00156822 -0.000163924 2.52674e-21 0.0013802 5.07495e-22 0.00147378)
(0.00158471 -0.000196053 -5.13613e-22 0.00151876 1.65585e-22 0.0015511)
(0.00155565 -0.000200671 8.16354e-22 0.00162937 1.73183e-22 0.0015928)
(0.00147515 -0.000175082 -7.07803e-22 0.00167609 -1.89902e-22 0.00157629)
(0.00136372 -0.000128608 1.93943e-21 0.00165201 6.38112e-22 0.00150875)
(0.00124053 -7.49911e-05 2.1722e-21 0.00156749 5.21508e-22 0.00140543)
(0.00111872 -2.52772e-05 1.39236e-22 0.00144295 3.49515e-22 0.00128331)
(0.00100579 1.4695e-05 2.90439e-21 0.00129964 6.22871e-22 0.00115672)
(0.000905648 4.34949e-05 4.93141e-22 0.00115483 1.37222e-22 0.00103599)
(0.00081946 6.22401e-05 -1.99751e-21 0.00101934 -3.21854e-22 0.000926962)
(0.000747304 7.29848e-05 -5.41926e-22 0.000899231 -4.39831e-22 0.000832639)
(0.000689204 7.79802e-05 1.90505e-21 0.000797653 5.84223e-22 0.000754503)
(0.000644565 7.9141e-05 -4.54684e-21 0.000715138 -9.0236e-22 0.000692463)
(0.000612139 7.79064e-05 1.7481e-21 0.000650504 4.21923e-22 0.000645174)
(0.000589144 7.51893e-05 -1.29862e-21 0.000600684 -4.66891e-22 0.000609506)
(0.000571729 7.14969e-05 2.32099e-21 0.00056121 2.6205e-22 0.000581237)
(0.000556609 6.70678e-05 -8.53059e-23 0.00052788 -2.52308e-22 0.000556735)
(0.000541685 6.20101e-05 -7.17393e-22 0.000497835 2.90723e-22 0.000533634)
(0.000524612 5.62646e-05 1.06356e-21 0.000468399 -1.90234e-22 0.000509517)
(0.000503614 4.99316e-05 6.87786e-23 0.000438079 8.78594e-23 0.000482839)
(0.000478687 4.3565e-05 -2.38402e-22 0.000407421 1.57223e-23 0.000453944)
(0.000452654 3.78995e-05 1.00892e-21 0.000378866 -1.38093e-23 0.0004256)
(0.00042995 3.33248e-05 2.76295e-22 0.000355338 1.16113e-22 0.000401572)
(0.000411807 2.95959e-05 8.36217e-22 0.000336827 -7.58865e-23 0.000382396)
(0.000397146 2.6342e-05 1.42434e-21 0.000321832 -8.91119e-23 0.000366716)
(0.000385096 2.33807e-05 -6.57412e-22 0.00030943 6.20405e-23 0.000353668)
(0.000375459 2.06253e-05 -4.8681e-22 0.000299346 -1.12528e-22 0.000343054)
(0.00036821 1.79797e-05 -1.455e-21 0.000291453 1.53073e-22 0.0003348)
(0.0003633 1.5335e-05 6.63801e-22 0.000285631 2.52679e-23 0.000328809)
(0.000360704 1.25836e-05 -4.62283e-22 0.000281827 1.20989e-22 0.000325039)
(0.000360424 9.61148e-06 5.63642e-22 0.000280054 -4.64458e-23 0.000323498)
(0.000362559 6.2838e-06 -1.51262e-21 0.000280444 8.39599e-23 0.000324298)
(0.000367095 2.41618e-06 2.08732e-22 0.000283125 -3.41489e-23 0.000327506)
(0.000374058 -2.11937e-06 -4.12625e-22 0.000288386 6.60634e-23 0.000333225)
(0.000382676 -7.6632e-06 2.25082e-21 0.000296135 -2.37486e-22 0.000341151)
(0.000391058 -1.39045e-05 -1.52146e-21 0.000305505 1.77129e-22 0.000349542)
(0.000397633 -2.15366e-05 1.21737e-22 0.000317365 -7.06245e-24 0.00035894)
(0.000385768 -2.76281e-05 -7.88729e-22 0.000317441 1.04839e-22 0.000351845)
(0.000348807 -2.88987e-05 6.352e-22 0.000305985 -5.86838e-23 0.000329347)
(0.00101397 -3.71296e-05 -4.57863e-22 0.000794294 -1.44597e-22 0.000902219)
(0.00108123 -7.80903e-05 1.85434e-21 0.000883262 2.76153e-22 0.000985751)
(0.00108822 -0.000109657 -4.84311e-22 0.000946976 1.79744e-22 0.00101732)
(0.00111711 -0.000134086 -3.21453e-21 0.00104679 -6.27023e-22 0.00108148)
(0.00112856 -0.000145403 -3.6047e-22 0.0011452 -3.02362e-22 0.00113698)
(0.00110953 -0.000138939 3.10728e-21 0.00121729 6.91388e-22 0.0011635)
(0.00106688 -0.000116009 -5.46244e-22 0.00125232 -1.1891e-22 0.00115936)
(0.0010105 -8.24995e-05 -7.25551e-21 0.00124801 -1.66283e-21 0.00112854)
(0.000948438 -4.5557e-05 6.92554e-21 0.00120916 1.70726e-21 0.00107754)
(0.00088641 -1.11436e-05 3.93291e-22 0.00114542 -3.12459e-22 0.0010141)
(0.000827375 1.72582e-05 -3.1416e-22 0.00106718 -2.32805e-22 0.000944858)
(0.000771991 3.84964e-05 -3.43025e-22 0.00098258 -3.40797e-23 0.000874178)
(0.000720095 5.28664e-05 -2.11313e-21 0.00089751 -1.57633e-22 0.000804948)
(0.00067177 6.15089e-05 6.60262e-22 0.000816242 -3.78706e-22 0.000739305)
(0.000627041 6.57973e-05 -2.40461e-21 0.000741156 3.06539e-22 0.000678477)
(0.000585584 6.69767e-05 1.95916e-21 0.000672813 4.53162e-23 0.000622655)
(0.000546804 6.60267e-05 -6.18144e-22 0.000610588 1.51788e-22 0.000571334)
(0.000509946 6.36e-05 3.36882e-22 0.000553161 4.6842e-23 0.000523596)
(0.000474783 6.0133e-05 -7.08496e-22 0.000499709 -8.77067e-23 0.000478992)
(0.000441429 5.58734e-05 -5.16396e-22 0.000449951 -1.14421e-22 0.000437375)
(0.000410248 5.10028e-05 -1.72692e-22 0.00040416 2.3808e-23 0.000399062)
(0.000381285 4.57257e-05 6.64704e-22 0.000363053 -1.1817e-22 0.000364355)
(0.000353855 4.03245e-05 -7.12897e-22 0.000326651 8.0636e-23 0.000332758)
(0.000328707 3.52444e-05 -3.02158e-22 0.000295441 -6.14102e-23 0.000304908)
(0.000307895 3.08415e-05 1.12279e-21 0.000270418 -5.14468e-23 0.000282399)
(0.000292108 2.70804e-05 -9.24371e-22 0.000251245 -1.29447e-23 0.00026538)
(0.000280634 2.37372e-05 -9.09688e-22 0.00023671 -9.14963e-23 0.000252829)
(0.000272622 2.06559e-05 1.23933e-21 0.000225824 1.03578e-23 0.000243821)
(0.000267651 1.77576e-05 -1.74874e-22 0.000218092 1.06103e-23 0.000237913)
(0.000265535 1.4968e-05 1.11102e-21 0.000213242 -1.14784e-23 0.000234877)
(0.000266116 1.21984e-05 -6.16513e-22 0.00021106 1.14842e-23 0.000234513)
(0.000269228 9.35828e-06 8.45194e-22 0.000211366 -5.82492e-23 0.000236644)
(0.000274715 6.3503e-06 2.52709e-22 0.000214029 -5.98699e-23 0.000241124)
(0.000282486 3.06523e-06 -3.04087e-23 0.000219015 8.04377e-23 0.000247889)
(0.000292375 -6.2821e-07 6.64766e-22 0.000226296 -6.26247e-23 0.000256853)
(0.000304135 -4.83109e-06 -2.25709e-22 0.000235868 2.32497e-23 0.000267868)
(0.000317301 -9.75713e-06 -6.20347e-22 0.000247696 2.94421e-23 0.000280749)
(0.000330983 -1.53681e-05 8.79564e-22 0.000261477 -7.98701e-23 0.000294738)
(0.0003452 -2.20823e-05 1.22434e-22 0.000278236 -1.62026e-23 0.000310773)
(0.000353031 -2.88432e-05 1.15693e-21 0.000292553 -1.1642e-22 0.000321739)
(0.000358363 -3.61789e-05 -8.40561e-22 0.000310849 8.94741e-23 0.00033507)
(0.000700559 -2.73574e-05 -3.95212e-22 0.000549929 3.11466e-24 0.000623591)
(0.000750757 -5.40717e-05 -1.63079e-21 0.000613114 -1.95966e-22 0.00068462)
(0.00075298 -7.42352e-05 -7.1265e-23 0.000651265 -1.25189e-22 0.000701937)
(0.000778129 -9.11038e-05 -2.28751e-22 0.000718458 -1.21178e-22 0.000747975)