/*--------------------------------*- C++ -*----------------------------------*\
| =========                 |                                                 |
| \\      /  F ield         | OpenFOAM: The Open Source CFD Toolbox           |
|  \\    /   O peration     | Version:  2312                                  |
|   \\  /    A nd           | Website:  www.openfoam.com                      |
|    \\/     M anipulation  |                                                 |
\*---------------------------------------------------------------------------*/
FoamFile
{
    version     2.0;
    format      ascii;
    arch        "LSB;label=32;scalar=64";
    class       volScalarField;
    location    "248";
    object      turbulenceProperties:L;
}
// * * * * * * * * * * * * * * * * * * * * * * * * * * * * * * * * * * * * * //

dimensions      [0 1 0 0 0 0 0];

internalField   nonuniform List<scalar> 
11040
(
0.000756891
0.000525665
0.000438091
0.00045536
0.000538796
0.000667826
0.000807818
0.000911828
0.000968586
0.000994904
0.00100814
0.00101736
0.00102554
0.00103322
0.00104043
0.00104722
0.00105378
0.00106045
0.00106758
0.00107559
0.00108485
0.00109573
0.00110782
0.00112024
0.00113281
0.00114571
0.0011589
0.00117237
0.00118613
0.00120022
0.00121467
0.00122953
0.00124489
0.00126087
0.00127764
0.00129546
0.00131481
0.00133603
0.00136146
0.00138984
0.00143053
0.00126239
0.00118685
0.00112218
0.00114099
0.00117449
0.00113775
0.00115835
0.00136288
0.00165647
0.00195547
0.00223464
0.00248861
0.00271413
0.0029034
0.0030495
0.00315124
0.00321416
0.00324887
0.00326666
0.00327747
0.00328518
0.00329815
0.00332625
0.00336903
0.00341722
0.00346518
0.00351159
0.00355688
0.00360125
0.00364475
0.00368713
0.00372795
0.00376669
0.00380232
0.00383316
0.00385704
0.00387098
0.00387014
0.00384368
0.00379327
0.0035174
0.00148499
0.0016449
0.00207448
0.00223607
0.00207886
0.00203842
0.00209377
0.00220543
0.00235179
0.00253105
0.00283545
0.0034643
0.00441976
0.00401405
0.00354689
0.00339536
0.00339143
0.00345271
0.00354168
0.0036406
0.00373986
0.00382313
0.00389069
0.00395896
0.00403071
0.00410417
0.00418003
0.00425866
0.00434015
0.00442438
0.00451132
0.00460075
0.00469222
0.00478569
0.00488007
0.00497365
0.00506237
0.00514718
0.00519796
0.00526279
0.00496113
0.00183538
0.00188038
0.00196685
0.00204223
0.00213949
0.00227935
0.00245485
0.00265929
0.00289911
0.00318845
0.00354525
0.00402152
0.0046732
0.00556708
0.00670054
0.00754725
0.00681181
0.00545606
0.00454985
0.00411318
0.00396737
0.00397075
0.00404688
0.00416389
0.00429636
0.00442983
0.00456042
0.00468707
0.00480906
0.00492604
0.0050381
0.00514541
0.00524827
0.0053474
0.00544254
0.00553344
0.00561678
0.00569816
0.00574574
0.00582826
0.00564832
0.00224366
0.00223649
0.00232521
0.00252424
0.00286249
0.00327346
0.00360039
0.00375906
0.00382123
0.00387145
0.00394283
0.00405194
0.00419717
0.00438049
0.00460098
0.00485389
0.00514129
0.00547023
0.00585238
0.00630306
0.00685447
0.00762774
0.00884612
0.0105691
0.00993703
0.00758513
0.0062297
0.00554838
0.00521811
0.00507805
0.00504669
0.00508009
0.0051529
0.00525044
0.00536147
0.00547838
0.00558993
0.00570318
0.00577334
0.00589019
0.00581588
0.00274691
0.00268273
0.00269549
0.00276456
0.00289507
0.00306914
0.0032719
0.00349362
0.00372804
0.003973
0.00423052
0.00450894
0.00481894
0.00517963
0.00562258
0.00616108
0.00680346
0.00755278
0.00839037
0.00922685
0.0099408
0.0105099
0.0110153
0.0114214
0.011666
0.0118136
0.0119126
0.0119481
0.0118614
0.0115699
0.0109871
0.0100733
0.00890365
0.00765857
0.00656715
0.00578602
0.00533592
0.0051546
0.00509492
0.00521713
0.00529153
0.00333785
0.00322952
0.00319706
0.00321102
0.00331485
0.00351314
0.00379332
0.00413205
0.00449479
0.00484455
0.00514891
0.00539119
0.00557314
0.00570797
0.00582217
0.00594468
0.00608766
0.00625245
0.00643862
0.00664676
0.00688489
0.00718233
0.00754656
0.00792428
0.00825702
0.00854615
0.00880903
0.00905143
0.00927561
0.00948804
0.0096986
0.00992106
0.0101736
0.0104774
0.0108523
0.0112717
0.01162
0.0115747
0.00992445
0.00838351
0.00471994
0.00404019
0.00389109
0.00382221
0.00376397
0.00377701
0.00386646
0.00401581
0.00420823
0.00443089
0.00467504
0.00493606
0.00521202
0.00550052
0.0057988
0.00611019
0.0064471
0.00681962
0.00722713
0.00766866
0.00814438
0.00865329
0.0091957
0.00975942
0.0102891
0.0107071
0.0109919
0.0111635
0.0112413
0.0112361
0.0111596
0.0110255
0.0108473
0.0106396
0.0104158
0.0101976
0.0100142
0.00991502
0.010014
0.010314
0.0118591
0.012897
0.00487299
0.0046808
0.0045928
0.00447661
0.00441846
0.00444188
0.00454045
0.00470501
0.00492525
0.00519037
0.00548827
0.00580711
0.0061336
0.00645081
0.00674165
0.0069921
0.00719985
0.0073766
0.00753886
0.00770033
0.00787935
0.0080923
0.0083436
0.00861455
0.008866
0.00908233
0.00927018
0.0094347
0.00957444
0.0096866
0.00976931
0.00982077
0.00983937
0.00982282
0.00977073
0.00968266
0.00956662
0.0094454
0.00931743
0.00939501
0.00972416
0.00586668
0.00562309
0.00552798
0.00536113
0.0052295
0.00516951
0.00517823
0.00524771
0.00536949
0.0055337
0.00573138
0.00595657
0.00620485
0.00647104
0.00675053
0.00704139
0.00734505
0.00766672
0.00801038
0.00837793
0.00876689
0.00917183
0.00959406
0.0100195
0.0104097
0.0107391
0.0110047
0.0112097
0.011353
0.0114323
0.0114482
0.0114039
0.0113048
0.0111567
0.0109673
0.0107457
0.0105026
0.010255
0.00999443
0.00982439
0.00964085
0.0070553
0.00674815
0.00665496
0.00644647
0.00624908
0.00611363
0.0060427
0.0060351
0.00608849
0.00619733
0.00635426
0.00655271
0.00678648
0.0070473
0.00732622
0.00761355
0.00789899
0.00817271
0.00842825
0.00866712
0.00890081
0.00913461
0.00937064
0.00960801
0.00982859
0.0100181
0.0101759
0.0103073
0.0104153
0.010501
0.010565
0.0106088
0.0106337
0.0106421
0.0106366
0.0106211
0.0106002
0.010588
0.0105827
0.0106498
0.0106889
0.00848169
0.00809643
0.0080104
0.00776481
0.00750605
0.00729649
0.00714101
0.00704216
0.00700185
0.00701783
0.00708384
0.00719371
0.00734188
0.00752253
0.00773006
0.00795942
0.00820664
0.00847003
0.00875041
0.00905147
0.00937189
0.00970087
0.0100347
0.0103726
0.0107002
0.0110016
0.011269
0.0115006
0.0116952
0.0118508
0.0119657
0.01204
0.0120751
0.012074
0.0120413
0.0119856
0.0119179
0.0118529
0.011807
0.0118312
0.0118803
0.0101967
0.00971662
0.00964049
0.00935937
0.00904219
0.0087631
0.00852675
0.00833915
0.0082077
0.00813527
0.00811932
0.0081558
0.00824033
0.0083678
0.00853264
0.00872885
0.0089501
0.00919035
0.00944384
0.00970609
0.00997434
0.010238
0.0104914
0.0107376
0.0109686
0.0111759
0.0113552
0.0115073
0.0116351
0.0117411
0.0118285
0.011901
0.0119626
0.0120191
0.0120768
0.0121425
0.0122249
0.0123367
0.0124915
0.0127219
0.0129799
0.0122626
0.0116702
0.0116038
0.0112854
0.010909
0.0105613
0.0102448
0.00996606
0.0097366
0.00956335
0.00944705
0.0093855
0.00937554
0.00941299
0.00949329
0.00961158
0.00976319
0.0099441
0.0101512
0.010383
0.0106368
0.0109013
0.0111704
0.0114453
0.011719
0.0119841
0.0122354
0.0124705
0.0126886
0.0128896
0.0130731
0.0132397
0.0133905
0.0135274
0.0136542
0.0137762
0.013901
0.0140366
0.014198
0.0144139
0.0146393
0.014757
0.0140351
0.0139742
0.0136137
0.0131742
0.0127562
0.012359
0.011989
0.0116609
0.0113854
0.0111668
0.0110058
0.0109015
0.0108515
0.0108529
0.0109015
0.010993
0.0111228
0.0112865
0.0114807
0.011702
0.0119362
0.0121721
0.0124098
0.0126435
0.0128675
0.013078
0.0132733
0.013453
0.0136182
0.0137707
0.0139143
0.0140538
0.0141958
0.014348
0.0145168
0.0147106
0.0149409
0.0152194
0.0155672
0.0159289
0.0177725
0.0169058
0.0168411
0.016432
0.0159241
0.0154309
0.0149493
0.0144849
0.0140542
0.0136708
0.0133416
0.0130696
0.0128558
0.0127
0.0126004
0.0125541
0.0125576
0.0126071
0.012699
0.0128298
0.0129963
0.013186
0.0133902
0.0136089
0.0138369
0.0140699
0.0143048
0.0145402
0.0147755
0.0150112
0.015249
0.0154908
0.0157389
0.0159953
0.016262
0.0165421
0.016839
0.0171552
0.0174996
0.0178823
0.018263
0.0213789
0.0203622
0.0202753
0.0198096
0.01923
0.0186571
0.0180867
0.0175247
0.0169893
0.016496
0.0160538
0.0156678
0.0153413
0.0150759
0.0148719
0.014728
0.0146419
0.0146107
0.0146312
0.0147002
0.0148167
0.0149685
0.0151435
0.0153394
0.0155501
0.0157704
0.0159968
0.0162271
0.0164597
0.0166942
0.0169307
0.0171705
0.0174151
0.0176689
0.0179358
0.0182207
0.0185299
0.0188718
0.0192534
0.019683
0.0201215
0.0254935
0.0243409
0.0242107
0.0236766
0.0230216
0.0223648
0.0217011
0.0210388
0.0203977
0.0197943
0.0192391
0.0187382
0.0182962
0.0179164
0.0176004
0.0173484
0.0171592
0.0170312
0.0169619
0.0169487
0.0169912
0.0170796
0.0172029
0.0173588
0.0175414
0.017746
0.01797
0.0182115
0.0184694
0.0187438
0.0190355
0.019346
0.0196768
0.0200305
0.0204103
0.0208174
0.0212518
0.0217151
0.0222112
0.0227343
0.0232697
0.029973
0.0286959
0.0285162
0.0279071
0.0271718
0.026427
0.0256669
0.0249025
0.0241555
0.0234436
0.0227781
0.0221664
0.0216143
0.0211262
0.0207052
0.0203528
0.0200691
0.0198536
0.0197051
0.0196216
0.019605
0.0196473
0.0197369
0.0198699
0.020039
0.0202387
0.0204648
0.0207143
0.0209846
0.0212743
0.0215823
0.0219083
0.0222521
0.022615
0.0229983
0.0234023
0.0238275
0.0242783
0.0247584
0.0252678
0.0257852
0.0347595
0.0333776
0.0331387
0.0324534
0.031638
0.0308046
0.0299479
0.0290824
0.0282319
0.0274149
0.0266439
0.025927
0.0252706
0.02468
0.0241592
0.0237103
0.0233344
0.0230318
0.0228022
0.0226439
0.02256
0.0225441
0.0225852
0.0226794
0.0228192
0.022999
0.023215
0.0234639
0.0237437
0.0240529
0.0243908
0.0247574
0.0251522
0.0255765
0.0260317
0.0265179
0.0270327
0.0275792
0.0281598
0.0287694
0.029401
0.039886
0.0384157
0.0381119
0.0373531
0.0364581
0.0355351
0.0345809
0.0336138
0.0326596
0.0317382
0.0308635
0.0300441
0.0292872
0.0285989
0.0279837
0.0274446
0.0269835
0.0266015
0.0262991
0.0260757
0.0259359
0.0258753
0.0258826
0.0259535
0.0260799
0.0262555
0.0264752
0.0267349
0.027031
0.0273607
0.0277217
0.0281126
0.0285309
0.0289764
0.0294487
0.029946
0.0304646
0.0310084
0.0315762
0.0321692
0.0327518
0.0453754
0.0438314
0.0434573
0.0426266
0.0416519
0.0406374
0.039584
0.0385139
0.0374552
0.0364295
0.0354518
0.0345318
0.0336771
0.0328946
0.0321891
0.0315642
0.0310221
0.0305646
0.0301926
0.0299059
0.0297102
0.0296015
0.0295691
0.0296083
0.0297109
0.0298702
0.030081
0.0303387
0.0306396
0.0309807
0.0313596
0.0317748
0.0322238
0.0327063
0.0332222
0.0337701
0.0343445
0.0349503
0.0355851
0.03626
0.0369068
0.0512567
0.0496539
0.0492062
0.0483062
0.0472516
0.0461438
0.0449894
0.0438146
0.0426501
0.0415192
0.0404385
0.0394187
0.0384681
0.0375942
0.0368024
0.0360965
0.0354792
0.0349526
0.0345184
0.0341767
0.0339345
0.0337886
0.0337277
0.0337474
0.0338393
0.0339961
0.0342118
0.0344811
0.0347992
0.0351621
0.0355663
0.036009
0.0364863
0.0369969
0.0375393
0.0381107
0.038704
0.0393248
0.039967
0.0406506
0.0412624
0.0575601
0.0559132
0.0553901
0.0544226
0.0532872
0.0520839
0.0508259
0.049544
0.0482715
0.0470337
0.045849
0.0447292
0.0436836
0.04272
0.0418442
0.0410605
0.0403718
0.0397805
0.0392883
0.0388958
0.0386103
0.0384286
0.0383388
0.0383366
0.0384132
0.0385608
0.0387731
0.0390442
0.0393688
0.0397426
0.0401617
0.0406231
0.0411225
0.0416584
0.0422295
0.0428331
0.0434611
0.0441201
0.0448017
0.0455447
0.0461666
0.0643204
0.062644
0.0620452
0.061012
0.0597946
0.0584931
0.0571285
0.0557365
0.0543534
0.0530066
0.0517165
0.0504961
0.0493556
0.0483035
0.0473461
0.0464877
0.0457317
0.0450806
0.0445362
0.0440995
0.0437783
0.0435692
0.0434591
0.0434442
0.0435152
0.0436642
0.043884
0.0441682
0.0445108
0.0449068
0.0453514
0.0458408
0.0463701
0.0469368
0.0475387
0.0481725
0.0488288
0.0495151
0.0502194
0.0509925
0.0515907
0.0715765
0.0698849
0.0692111
0.0681132
0.0668117
0.0654084
0.0639334
0.0624277
0.0609303
0.0594716
0.0580737
0.0567513
0.0555154
0.0543751
0.0533372
0.0524062
0.0515856
0.050878
0.0502854
0.0498085
0.0494557
0.0492222
0.0490938
0.0490667
0.0491314
0.0492791
0.0495023
0.0497939
0.0501475
0.0505574
0.0510186
0.0515269
0.0520768
0.0526657
0.0532911
0.0539499
0.0546318
0.0553453
0.0560751
0.0568932
0.0574713
0.0793723
0.0776798
0.0769322
0.0757697
0.0743809
0.0728713
0.0712812
0.0696569
0.0680411
0.0664667
0.0649583
0.0635318
0.0621994
0.0609708
0.0598531
0.0588513
0.0579687
0.057208
0.0565712
0.0560591
0.0556802
0.0554285
0.0552881
0.0552554
0.0553206
0.0554744
0.0557086
0.0560158
0.056389
0.0568219
0.057309
0.0578455
0.0584255
0.0590457
0.0597034
0.0603949
0.0611093
0.0618556
0.0626156
0.0634741
0.0640343
0.0877578
0.086078
0.0852579
0.0840295
0.0825487
0.0809268
0.0792155
0.0774668
0.0757271
0.0740324
0.0724095
0.0708762
0.0694453
0.0681275
0.06693
0.0658581
0.0649151
0.0641036
0.0634255
0.0628812
0.0624795
0.0622127
0.0620625
0.0620257
0.062092
0.0622513
0.0624949
0.0628147
0.0632032
0.0636538
0.0641604
0.0647179
0.0653199
0.0659629
0.0666437
0.0673588
0.0680968
0.0688669
0.0696483
0.0705441
0.0710752
0.0967893
0.0951352
0.0942434
0.0929456
0.0913664
0.0896245
0.0877842
0.0859037
0.0840334
0.0822127
0.0804707
0.0788267
0.0772948
0.0758861
0.0746082
0.0734665
0.0724641
0.0716037
0.0708867
0.0703134
0.0698926
0.0696147
0.0694586
0.0694219
0.0694937
0.0696632
0.069921
0.0702586
0.0706682
0.0711426
0.0716753
0.0722607
0.0728924
0.0735663
0.074279
0.0750266
0.0757978
0.0766016
0.0774152
0.0783528
0.0788705
0.10653
0.104914
0.10395
0.102577
0.100891
0.0990187
0.0970395
0.095018
0.0930089
0.0910549
0.0891877
0.0874285
0.0857919
0.0842898
0.0829301
0.0817179
0.0806563
0.0797477
0.0789932
0.0783927
0.0779547
0.0776674
0.0775071
0.0774714
0.077549
0.0777282
0.077999
0.0783525
0.0787801
0.0792743
0.0798283
0.080436
0.0810906
0.0817878
0.0825239
0.0832949
0.0840894
0.0849161
0.0857504
0.0867197
0.0872114
0.117053
0.115487
0.114447
0.11299
0.111184
0.109169
0.107039
0.104865
0.102706
0.10061
0.0986108
0.0967302
0.0949844
0.0933854
0.0919414
0.0906572
0.0895358
0.0885792
0.0877878
0.0871611
0.0867074
0.0864125
0.0862496
0.0862167
0.0863021
0.0864931
0.0867791
0.0871508
0.0875992
0.0881164
0.0886952
0.0893292
0.0900115
0.0907373
0.0915028
0.0923037
0.0931289
0.0939868
0.0948514
0.0958571
0.0963407
0.12844
0.126932
0.125812
0.124257
0.122315
0.120141
0.117844
0.115504
0.113184
0.110935
0.108794
0.106784
0.104923
0.103223
0.101691
0.100332
0.0991492
0.0981434
0.0973144
0.0966612
0.0961916
0.0958891
0.0957231
0.0956923
0.0957843
0.0959854
0.0962845
0.0966715
0.0971371
0.097673
0.0982714
0.0989259
0.0996291
0.100376
0.101163
0.101984
0.10283
0.103708
0.104591
0.105621
0.106085
0.140783
0.139341
0.138129
0.136458
0.13436
0.132007
0.129524
0.127
0.124504
0.122089
0.119796
0.117648
0.115664
0.113856
0.112231
0.110794
0.109546
0.108489
0.107621
0.106939
0.106453
0.106142
0.105971
0.105942
0.10604
0.10625
0.106562
0.106964
0.107446
0.108001
0.10862
0.109296
0.110021
0.110791
0.111601
0.112447
0.113318
0.11422
0.115128
0.116184
0.116646
0.154187
0.152816
0.151496
0.149684
0.147404
0.144847
0.142156
0.139427
0.136736
0.13414
0.13168
0.129383
0.127266
0.125343
0.123618
0.122098
0.120781
0.119668
0.118757
0.118044
0.117537
0.117214
0.117036
0.117004
0.117103
0.117319
0.117637
0.118048
0.118541
0.119108
0.119739
0.120428
0.121167
0.12195
0.122773
0.123631
0.124514
0.125429
0.126347
0.127414
0.12786
0.168773
0.167472
0.166019
0.164034
0.161538
0.158747
0.15582
0.152864
0.149957
0.14716
0.144518
0.142058
0.139797
0.137747
0.135915
0.134303
0.13291
0.131736
0.130777
0.130028
0.129496
0.129156
0.128966
0.128927
0.129025
0.129242
0.129565
0.129982
0.130484
0.131061
0.131704
0.132405
0.133157
0.133954
0.134791
0.135663
0.136561
0.13749
0.138423
0.139501
0.139954
0.184674
0.183437
0.181817
0.179616
0.176867
0.173807
0.170612
0.167398
0.164251
0.161233
0.15839
0.155749
0.15333
0.151142
0.14919
0.147477
0.146
0.144756
0.14374
0.142947
0.142381
0.142016
0.141805
0.141749
0.141834
0.14204
0.142354
0.142764
0.14326
0.143831
0.144468
0.145164
0.145911
0.146703
0.147534
0.1484
0.149292
0.150214
0.151139
0.152209
0.152627
0.202043
0.200854
0.19902
0.196553
0.193504
0.190133
0.186635
0.183132
0.179715
0.176451
0.173385
0.170546
0.167951
0.165609
0.163525
0.161697
0.160124
0.158799
0.157716
0.156869
0.156261
0.155864
0.155626
0.15555
0.155619
0.155815
0.156122
0.156528
0.157022
0.157593
0.158231
0.158929
0.159679
0.160474
0.161308
0.162177
0.163073
0.163997
0.164927
0.165986
0.166446
0.22105
0.21988
0.217768
0.214973
0.211573
0.207849
0.20401
0.200185
0.196469
0.192929
0.189615
0.186554
0.183763
0.18125
0.179015
0.177058
0.175371
0.173949
0.172783
0.171863
0.171191
0.170737
0.170444
0.170315
0.170333
0.170479
0.170736
0.171093
0.171539
0.172061
0.172653
0.173304
0.174007
0.174756
0.175546
0.17637
0.177221
0.178101
0.178985
0.180009
0.180342
0.241885
0.240689
0.238218
0.23502
0.23121
0.227085
0.222868
0.218693
0.214653
0.210815
0.207226
0.203916
0.200901
0.19819
0.195782
0.193674
0.191857
0.190322
0.189058
0.188057
0.187319
0.186816
0.186485
0.18633
0.186332
0.186469
0.186725
0.187084
0.187534
0.188063
0.18866
0.189317
0.190026
0.190778
0.191569
0.192392
0.193243
0.194117
0.195007
0.19598
0.196509
0.26475
0.263463
0.260541
0.256865
0.252586
0.248008
0.243367
0.238807
0.234419
0.230269
0.226396
0.222825
0.219566
0.216626
0.21401
0.211712
0.209724
0.208034
0.206626
0.205482
0.204599
0.203944
0.203453
0.203129
0.202958
0.202921
0.203001
0.203188
0.203471
0.203838
0.204281
0.204791
0.20536
0.20598
0.206644
0.20735
0.208085
0.208854
0.209622
0.210562
0.210612
0.289837
0.288365
0.284884
0.280672
0.275902
0.270861
0.265776
0.260791
0.256003
0.25149
0.247299
0.243451
0.23995
0.236789
0.23396
0.231456
0.229275
0.227414
0.22587
0.224634
0.223709
0.223064
0.222623
0.222382
0.222316
0.222395
0.222595
0.222897
0.223285
0.223746
0.224267
0.224839
0.225454
0.226105
0.226787
0.227494
0.228226
0.228967
0.229751
0.230485
0.231362
0.317328
0.315527
0.311334
0.306508
0.301259
0.295835
0.290423
0.285117
0.279981
0.275076
0.270465
0.266203
0.262328
0.258855
0.25577
0.253044
0.250636
0.248506
0.246624
0.244966
0.243531
0.242304
0.241229
0.240328
0.239602
0.23904
0.238632
0.238372
0.238247
0.238247
0.238361
0.238578
0.238884
0.23927
0.239726
0.240246
0.240811
0.241434
0.242029
0.242985
0.242157
0.347436
0.345137
0.340086
0.334528
0.328711
0.322884
0.317242
0.311853
0.306708
0.301779
0.297041
0.292493
0.288167
0.284132
0.280467
0.277248
0.274525
0.272317
0.270611
0.269365
0.268558
0.268111
0.26791
0.267904
0.268042
0.26828
0.268584
0.268926
0.26929
0.269661
0.270031
0.270395
0.270752
0.271098
0.271436
0.271762
0.272099
0.272394
0.272827
0.272743
0.275071
0.380342
0.37748
0.37172
0.365616
0.359272
0.352851
0.346603
0.340705
0.335267
0.330342
0.325907
0.321869
0.318085
0.314402
0.310694
0.30689
0.302981
0.299016
0.295079
0.291264
0.287656
0.284336
0.281315
0.278666
0.276409
0.274532
0.273016
0.271837
0.270969
0.270381
0.270046
0.269935
0.27002
0.270281
0.270695
0.27125
0.271898
0.272691
0.273357
0.275063
0.271951
0.4158
0.412272
0.406136
0.400343
0.394691
0.388896
0.382833
0.376435
0.369763
0.363047
0.35663
0.350875
0.346081
0.342434
0.339984
0.338659
0.33829
0.338652
0.339513
0.340626
0.34194
0.3433
0.344593
0.345702
0.346601
0.34729
0.347758
0.347993
0.347983
0.347726
0.347227
0.346493
0.345545
0.344394
0.34307
0.341582
0.340022
0.338234
0.336921
0.333297
0.341022
0.452618
0.447535
0.439912
0.433788
0.429318
0.426125
0.423822
0.421906
0.419795
0.416866
0.412508
0.406242
0.397891
0.387682
0.376197
0.36419
0.352379
0.341319
0.331344
0.322655
0.315135
0.308736
0.3034
0.299077
0.295634
0.292941
0.290889
0.289389
0.288366
0.287759
0.287519
0.28761
0.287994
0.288656
0.289567
0.290723
0.292057
0.293703
0.295082
0.298532
0.292499
0.48909
0.48159
0.470948
0.46147
0.45407
0.449074
0.446741
0.447072
0.449802
0.454417
0.460148
0.465978
0.47077
0.473516
0.473655
0.471274
0.467023
0.46181
0.456492
0.451599
0.44775
0.445051
0.444111
0.444448
0.445706
0.447609
0.449829
0.451982
0.453691
0.454635
0.454575
0.453364
0.45095
0.447383
0.44278
0.437286
0.431147
0.424283
0.41811
0.407192
0.415992
0.524408
0.51836
0.510632
0.497033
0.473212
0.441456
0.408308
0.378501
0.353693
0.333826
0.318258
0.306268
0.297222
0.290604
0.285997
0.283067
0.281538
0.281181
0.281797
0.283242
0.285332
0.287313
0.289606
0.291974
0.294279
0.29644
0.298399
0.300131
0.301641
0.302958
0.304129
0.305209
0.306264
0.307382
0.308584
0.309919
0.311478
0.313321
0.315699
0.316933
0.322482
0.00591189
0.00727152
0.00813442
0.00873497
0.00918151
0.00958666
0.00998752
0.0103912
0.0108042
0.0112314
0.0116755
0.012138
0.0126214
0.0131283
0.0136619
0.0142254
0.0148223
0.0154566
0.0161327
0.0168555
0.0176297
0.0184625
0.0193621
0.020339
0.0214045
0.0225724
0.0238596
0.025288
0.0268846
0.0286842
0.0307339
0.0330946
0.0358614
0.0391806
0.043271
0.048489
0.0554774
0.0655587
0.0820616
0.116892
0.198032
0.118693
0.0889257
0.0751679
0.0671356
0.0618692
0.0581796
0.0554885
0.0534738
0.051957
0.0508219
0.0499858
0.0493885
0.0489855
0.0487434
0.0486367
0.0486459
0.0487551
0.0489528
0.0492302
0.0495805
0.0499977
0.0504763
0.0510114
0.0515983
0.0522314
0.0529046
0.0536114
0.0543437
0.0550914
0.0558405
0.0565681
0.0573187
0.0575131
0.00439084
0.0055421
0.0064099
0.00701579
0.00751303
0.00796062
0.00837909
0.00878207
0.00917972
0.00957891
0.00998405
0.0103983
0.0108244
0.0112646
0.0117211
0.0121961
0.0126917
0.0132101
0.0137536
0.0143245
0.0149252
0.0155586
0.0162277
0.0169357
0.0176864
0.0184843
0.0193346
0.0202429
0.0212158
0.0222608
0.0233869
0.024605
0.0259286
0.0273757
0.028969
0.0307365
0.0327125
0.0349396
0.0374761
0.040403
0.043831
0.0479444
0.0530224
0.0595196
0.0682615
0.0809705
0.102115
0.149154
0.277971
0.144273
0.108245
0.0917684
0.0821626
0.0758748
0.0714816
0.0682894
0.0659152
0.0641278
0.0627902
0.0618095
0.0611175
0.0606623
0.0604045
0.0603137
0.060366
0.0605426
0.0608281
0.0612099
0.061677
0.0622203
0.0628326
0.0634956
0.0642822
0.06465
0.00522747
0.00590446
0.00642746
0.00680975
0.00716411
0.00750389
0.00783065
0.00815288
0.00847684
0.00880613
0.00914343
0.00949101
0.00985078
0.0102244
0.0106133
0.0110189
0.0114425
0.0118852
0.0123485
0.0128335
0.0133416
0.0138741
0.0144326
0.0150184
0.0156334
0.0162793
0.0169582
0.0176719
0.0184231
0.0192144
0.0200487
0.0209298
0.0218612
0.0228473
0.0238937
0.0250071
0.0261953
0.0274684
0.0288365
0.0303115
0.0319065
0.0336397
0.0355356
0.0376248
0.0399445
0.0425382
0.0454649
0.0488044
0.0526622
0.05721
0.0626973
0.0695058
0.0782716
0.0901756
0.107757
0.137953
0.211624
0.345296
0.177658
0.136416
0.11681
0.105182
0.0975065
0.0921255
0.0882156
0.0853168
0.0831492
0.0815323
0.0803413
0.0794959
0.0789523
0.0786065
0.0787162
0.0778597
0.00570704
0.00618813
0.00655863
0.00679928
0.00704007
0.00728623
0.00752796
0.00777219
0.00802446
0.0082866
0.00856009
0.00884672
0.00914801
0.00946524
0.0097995
0.0101517
0.0105227
0.0109131
0.0113235
0.0117546
0.0122069
0.0126809
0.0131774
0.0136971
0.0142406
0.0148089
0.0154027
0.0160232
0.0166712
0.017348
0.0180548
0.0187926
0.0195625
0.020366
0.0212048
0.0220809
0.0229967
0.0239554
0.0249601
0.0260143
0.0271214
0.0282857
0.0295123
0.0308075
0.0321788
0.0336362
0.0351894
0.0368491
0.0386264
0.0405359
0.0425971
0.044834
0.0472744
0.0499513
0.0529044
0.0561829
0.0598489
0.0639827
0.0687086
0.0741939
0.0806695
0.0884654
0.098094
0.110415
0.127009
0.151219
0.191896
0.286012
0.607499
0.267926
0.201618
0.170463
0.155509
0.13618
0.00574294
0.00612117
0.00644015
0.00660054
0.00676286
0.00693868
0.0071027
0.00726303
0.00743032
0.00760762
0.00779728
0.00800267
0.00822706
0.00847319
0.00874355
0.00904029
0.00936517
0.00971942
0.0101037
0.0105182
0.0109623
0.0114353
0.0119358
0.0124623
0.013013
0.0135864
0.0141809
0.014795
0.0154276
0.016078
0.0167457
0.0174307
0.0181335
0.0188547
0.0195957
0.020358
0.0211436
0.021954
0.0227918
0.0236594
0.0245595
0.0254942
0.0264659
0.0274765
0.0285284
0.0296248
0.0307682
0.0319612
0.0332061
0.0345057
0.0358629
0.0372818
0.0387671
0.0403241
0.0419585
0.0436767
0.0454852
0.0473908
0.0494018
0.0515295
0.0537867
0.0561894
0.0587547
0.0614999
0.064444
0.0676081
0.0710157
0.0746949
0.0786726
0.0830065
0.0877098
0.0930519
0.0982046
0.107299
0.00510849
0.00545346
0.00581012
0.00593555
0.00605888
0.00624437
0.00643712
0.00665138
0.00693113
0.00730664
0.00780379
0.00844665
0.00924409
0.0101763
0.0111862
0.0121773
0.0130241
0.0135986
0.0138101
0.0136425
0.0131682
0.0125289
0.0118906
0.0113951
0.011128
0.011113
0.0113272
0.011726
0.0122638
0.0129036
0.0136188
0.0143905
0.0152059
0.0160554
0.0169321
0.0178304
0.0187462
0.0196758
0.0206167
0.0215668
0.0225251
0.0234913
0.0244657
0.0254491
0.0264431
0.0274481
0.0284664
0.0295009
0.0305546
0.0316306
0.0327319
0.0338614
0.0350222
0.0362173
0.0374497
0.0387222
0.0400375
0.041398
0.0428059
0.0442633
0.0457723
0.0473362
0.0489584
0.0506412
0.0523873
0.0541987
0.0560777
0.0580265
0.0600455
0.0621402
0.0642988
0.0665835
0.0687709
0.0717302
0.00477194
0.00642476
0.00999371
0.0151288
0.0220488
0.0317046
0.0435218
0.0564215
0.069761
0.0817741
0.0883467
0.0868131
0.0801077
0.0724637
0.0657619
0.0603528
0.0561282
0.0529089
0.0505383
0.0488983
0.0479109
0.0475367
0.0477777
0.0486839
0.0503726
0.0530652
0.0571712
0.063499
0.0739017
0.0940028
0.155277
0.145723
0.087389
0.0658561
0.0530215
0.0436883
0.0363135
0.0304283
0.0259176
0.0227216
0.0207144
0.0196889
0.0194018
0.0196293
0.0202
0.0209976
0.0219476
0.0230031
0.0241342
0.025321
0.0265503
0.0278127
0.0291015
0.0304122
0.0317414
0.0330872
0.0344483
0.0358242
0.0372148
0.0386205
0.040042
0.0414791
0.0429321
0.0444024
0.0458919
0.0474022
0.0489348
0.0504915
0.0520726
0.0536816
0.0553093
0.0569931
0.0586049
0.0605747
0.0138152
0.0161224
0.0194803
0.0217334
0.0228171
0.0245868
0.0268385
0.0291212
0.0313861
0.0337475
0.0362548
0.0389271
0.0417579
0.0447334
0.0478443
0.0510654
0.0543372
0.0575683
0.0606506
0.0634794
0.0659799
0.0681304
0.0699698
0.0715864
0.0730971
0.0746269
0.076297
0.078217
0.0804908
0.0832212
0.0865165
0.0904967
0.0952967
0.101065
0.107946
0.116046
0.125338
0.135498
0.145644
0.154102
0.158603
0.157356
0.150464
0.139982
0.128414
0.117459
0.107851
0.0996945
0.0927954
0.0868479
0.0815311
0.0765605
0.0717229
0.066901
0.0620821
0.0573466
0.0528339
0.0486996
0.0450759
0.0420474
0.0396437
0.0378462
0.0366018
0.0358382
0.0354767
0.0354413
0.035664
0.0360875
0.0366639
0.0373568
0.0381322
0.0389734
0.039896
0.0404857
0.00997878
0.0110088
0.0128029
0.0143577
0.0154182
0.0168267
0.0186364
0.0205011
0.0223558
0.0243247
0.0264219
0.0286015
0.0308573
0.0332021
0.0356396
0.0381714
0.0408054
0.0435527
0.0464261
0.049441
0.0526165
0.0559749
0.0595422
0.0633484
0.0674287
0.0718236
0.0765804
0.0817539
0.0874084
0.0936198
0.100478
0.10809
0.116588
0.126135
0.13694
0.149271
0.163495
0.180125
0.199921
0.224068
0.254547
0.294937
0.352267
0.440756
0.568874
0.579787
0.469513
0.393257
0.34559
0.313761
0.291389
0.275247
0.263588
0.255416
0.250152
0.247473
0.247232
0.249418
0.254151
0.261688
0.272457
0.28712
0.306682
0.332707
0.367697
0.415927
0.48549
0.593494
0.789254
1.23327
1.36891
1.12828
0.770328
1.18279
0.0098061
0.0106941
0.0121947
0.0137323
0.0150047
0.0164712
0.0183003
0.0202587
0.0222344
0.0243219
0.0265677
0.0289367
0.031415
0.0340213
0.0367695
0.0396659
0.0427205
0.0459483
0.0493656
0.0529899
0.0568414
0.0609428
0.0653198
0.0700008
0.0750179
0.0804069
0.086208
0.0924661
0.0992314
0.10656
0.114514
0.123163
0.132583
0.142859
0.154079
0.166338
0.179728
0.194336
0.210228
0.227427
0.245888
0.265455
0.285804
0.306387
0.326374
0.344655
0.359918
0.370876
0.376606
0.376858
0.372136
0.363523
0.35233
0.33979
0.326888
0.314315
0.302514
0.29174
0.282117
0.27369
0.266457
0.260394
0.255467
0.251643
0.248893
0.247206
0.246568
0.247031
0.248521
0.251488
0.254894
0.26286
0.266663
0.274299
0.0110498
0.0119491
0.0132739
0.0146966
0.0159736
0.0173603
0.0190498
0.0209133
0.0228263
0.0248405
0.0270173
0.0293385
0.0317817
0.0343581
0.0370828
0.0399604
0.0429951
0.0461961
0.0495738
0.053138
0.0568991
0.0608683
0.0650575
0.0694786
0.0741438
0.0790653
0.0842548
0.0897238
0.0954821
0.101538
0.107896
0.114558
0.121518
0.128766
0.136278
0.14402
0.151943
0.159979
0.168044
0.176032
0.183822
0.191283
0.198276
0.204672
0.210358
0.215248
0.219298
0.222508
0.224921
0.226622
0.227724
0.22836
0.228675
0.228812
0.228913
0.229112
0.229534
0.230293
0.231499
0.233255
0.235665
0.238836
0.242884
0.24794
0.254154
0.261713
0.270833
0.281852
0.294996
0.311432
0.329851
0.359934
0.380385
0.432236
0.0121625
0.0129254
0.0139993
0.0152235
0.016463
0.0178143
0.0194038
0.0211845
0.0230624
0.0250472
0.0271861
0.0294751
0.0318908
0.0344334
0.0371133
0.0399337
0.0428938
0.0459972
0.0492492
0.0526546
0.0562178
0.0599437
0.0638373
0.0679029
0.0721444
0.0765647
0.0811651
0.0859454
0.0909025
0.0960303
0.101319
0.106753
0.112312
0.117971
0.123697
0.12945
0.135187
0.140858
0.146415
0.151805
0.156985
0.161916
0.16657
0.170934
0.175007
0.178806
0.182363
0.185725
0.18895
0.192109
0.195277
0.198539
0.201981
0.205696
0.209781
0.21434
0.219482
0.225331
0.232021
0.23971
0.248578
0.258846
0.270786
0.284735
0.301133
0.320569
0.343826
0.372148
0.406929
0.452563
0.508398
0.613834
0.700516
0.976452
0.013455
0.0142905
0.015309
0.0164441
0.0176525
0.0189666
0.0204509
0.0220981
0.0238554
0.0257161
0.0277105
0.0298459
0.0321079
0.0344927
0.037008
0.0396581
0.0424427
0.0453632
0.048423
0.0516249
0.0549707
0.0584618
0.0620987
0.0658811
0.0698069
0.0738725
0.0780722
0.0823981
0.0868399
0.0913847
0.0960175
0.100721
0.105476
0.110263
0.115062
0.119854
0.124622
0.129353
0.134039
0.138677
0.143272
0.147835
0.152387
0.156953
0.161569
0.166277
0.171128
0.176179
0.181495
0.18715
0.193228
0.199823
0.20704
0.215001
0.223848
0.233748
0.244901
0.257551
0.271997
0.288618
0.307901
0.330489
0.357264
0.389461
0.42891
0.478491
0.54297
0.631794
0.763104
1.00477
1.53453
1.49666
1.22529
0.924365
0.0150303
0.015739
0.0165635
0.0174965
0.0185507
0.0197375
0.021077
0.0225714
0.0242009
0.0259575
0.0278535
0.0298959
0.0320776
0.0343927
0.0368424
0.039428
0.0421467
0.0449955
0.0479727
0.0510764
0.054304
0.0576522
0.0611175
0.0646962
0.0683837
0.0721754
0.0760664
0.0800519
0.0841275
0.0882889
0.0925333
0.0968588
0.101265
0.105755
0.110332
0.115004
0.119782
0.124679
0.129714
0.13491
0.140294
0.145898
0.151762
0.157929
0.164452
0.171391
0.178815
0.186804
0.195452
0.204869
0.215184
0.226551
0.239155
0.253216
0.26901
0.286875
0.307243