/*--------------------------------*- C++ -*----------------------------------*\
| =========                 |                                                 |
| \\      /  F ield         | OpenFOAM: The Open Source CFD Toolbox           |
|  \\    /   O peration     | Version:  2312                                  |
|   \\  /    A nd           | Website:  www.openfoam.com                      |
|    \\/     M anipulation  |                                                 |
\*---------------------------------------------------------------------------*/
FoamFile
{
    version     2.0;
    format      ascii;
    arch        "LSB;label=32;scalar=64";
    class       volVectorField;
    location    "248";
    object      U;
}
// * * * * * * * * * * * * * * * * * * * * * * * * * * * * * * * * * * * * * //

dimensions      [0 1 -1 0 0 0 0];

internalField   nonuniform List<vector> 
11040
(
(1.52753 2.18456 1.05314e-18)
(2.61726 4.63916 1.321e-18)
(4.00048 5.49701 -6.82515e-19)
(5.03731 5.33905 -1.58533e-18)
(5.69173 4.86702 -8.40071e-19)
(6.09252 4.33952 -2.9884e-18)
(6.3629 3.81906 5.46782e-18)
(6.56965 3.31879 4.03514e-18)
(6.74051 2.85332 8.65084e-19)
(6.88939 2.4375 1.62486e-19)
(7.02051 2.07449 -3.85871e-18)
(7.13202 1.75818 5.01651e-19)
(7.21837 1.47877 1.49987e-18)
(7.27214 1.22769 1.24364e-18)
(7.28835 0.998501 -1.1677e-18)
(7.26597 0.787162 1.98248e-18)
(7.20692 0.590945 9.2113e-19)
(7.11537 0.408326 -2.36675e-18)
(6.99489 0.237884 -7.26053e-20)
(6.84828 0.0790296 3.91666e-19)
(6.67067 -0.0697563 -4.49211e-19)
(6.47735 -0.198961 -1.50225e-18)
(6.29914 -0.297051 1.52188e-18)
(6.14515 -0.372014 -1.5351e-18)
(6.0057 -0.43395 1.57887e-18)
(5.87085 -0.487293 2.80055e-18)
(5.73673 -0.533745 1.18187e-18)
(5.60286 -0.574235 1.09593e-18)
(5.46847 -0.609573 1.11774e-18)
(5.33227 -0.640267 1.4175e-18)
(5.19251 -0.666644 -2.35662e-18)
(5.04704 -0.688822 -1.66757e-18)
(4.89352 -0.706656 -4.57327e-18)
(4.72827 -0.719837 -2.29005e-18)
(4.54639 -0.727756 1.96829e-19)
(4.34298 -0.729237 -2.09508e-18)
(4.10934 -0.722133 3.49794e-20)
(3.83883 -0.704621 -3.02152e-19)
(3.48961 -0.668513 -5.09141e-19)
(3.1215 -0.612844 -1.56154e-18)
(2.30595 -0.534021 1.20068e-18)
(2.50034 1.83218 -4.90634e-19)
(3.8487 3.52666 1.14414e-18)
(5.68283 3.88147 -8.44521e-19)
(7.14224 3.53193 -2.36427e-19)
(8.06481 3.04236 -2.30732e-19)
(8.61966 2.63401 1.0548e-18)
(8.95905 2.31397 -3.85802e-19)
(9.15836 2.05244 -3.01009e-18)
(9.25505 1.82589 1.48825e-19)
(9.27367 1.62009 -1.01357e-18)
(9.23311 1.42781 1.41491e-18)
(9.1483 1.24634 -4.93844e-18)
(9.03377 1.07308 -4.08187e-19)
(8.90187 0.905894 -3.37573e-18)
(8.76098 0.743049 1.49587e-18)
(8.61577 0.583584 -6.2081e-19)
(8.46745 0.426876 -9.68662e-19)
(8.31484 0.273261 -9.79917e-19)
(8.15519 0.123004 -1.29479e-19)
(7.9854 -0.0224774 8.14685e-20)
(7.79921 -0.16281 2.79167e-19)
(7.59806 -0.284488 7.84809e-19)
(7.39773 -0.375024 -1.18254e-18)
(7.21216 -0.447563 -2.64734e-19)
(7.04227 -0.512082 -3.13727e-19)
(6.88221 -0.569614 6.47216e-19)
(6.7285 -0.620536 3.81384e-19)
(6.57929 -0.665485 -2.06703e-18)
(6.43291 -0.705229 -1.6171e-19)
(6.28754 -0.740149 1.12832e-18)
(6.14138 -0.77056 1.34239e-18)
(5.99252 -0.796571 2.57566e-18)
(5.8389 -0.818002 1.95171e-18)
(5.67772 -0.83461 8.44747e-19)
(5.5052 -0.845819 -3.26077e-19)
(5.31777 -0.850278 1.00602e-18)
(5.10809 -0.8458 -5.09177e-19)
(4.87419 -0.830537 1.3933e-19)
(4.57471 -0.795951 6.70127e-20)
(4.29024 -0.744103 3.01402e-19)
(3.60933 -0.627952 -1.23302e-18)
(3.39362 1.50816 -1.46636e-20)
(4.09039 2.95461 -2.49302e-18)
(5.17967 3.78387 1.50886e-18)
(6.21353 4.06234 -4.62391e-19)
(6.99062 4.01224 4.56681e-20)
(7.52324 3.80353 -8.79576e-19)
(7.89558 3.53196 -1.71828e-18)
(8.17295 3.23789 -1.8731e-18)
(8.38811 2.936 1.45764e-18)
(8.55556 2.63445 4.39349e-20)
(8.68482 2.33882 8.88453e-19)
(8.78454 2.05052 3.12572e-18)
(8.85892 1.77179 -2.37554e-18)
(8.90925 1.50404 2.64611e-18)
(8.9351 1.24772 -1.6153e-18)
(8.93552 1.00314 -7.2258e-19)
(8.90958 0.770083 3.5562e-19)
(8.85671 0.548662 4.99773e-19)
(8.77624 0.338461 1.42416e-20)
(8.66772 0.140041 -2.82454e-20)
(8.52757 -0.0467485 -8.00295e-19)
(8.36213 -0.207209 -6.47579e-19)
(8.19053 -0.330336 1.23505e-19)
(8.02453 -0.429773 -8.70362e-20)
(7.86545 -0.51568 7.37595e-19)
(7.71004 -0.590275 -1.59794e-18)
(7.55647 -0.655088 -1.1328e-18)
(7.40434 -0.711621 1.58764e-18)
(7.25301 -0.761141 3.6778e-19)
(7.10133 -0.804366 -2.26421e-19)
(6.94784 -0.841824 -1.38279e-18)
(6.79084 -0.873766 5.44813e-19)
(6.62847 -0.900119 -1.14331e-18)
(6.45794 -0.920648 -1.36846e-18)
(6.27575 -0.934724 2.61821e-19)
(6.07886 -0.940851 5.17598e-19)
(5.86104 -0.936972 5.17504e-19)
(5.6206 -0.91983 -2.0521e-19)
(5.32315 -0.884179 3.93508e-20)
(5.0423 -0.818775 1.79912e-19)
(4.46308 -0.712338 7.93664e-19)
(4.08068 1.28378 -1.22353e-19)
(4.47647 2.38014 3.15563e-19)
(5.24409 3.13923 -1.67046e-18)
(6.1667 3.43041 -3.04191e-19)
(7.0032 3.35518 2.19705e-21)
(7.64788 3.09099 -9.81539e-19)
(8.11729 2.76936 4.6983e-19)
(8.46173 2.44969 9.42035e-19)
(8.71912 2.14992 -8.25774e-19)
(8.91153 1.87438 9.67912e-19)
(9.05411 1.62296 -2.53087e-18)
(9.15762 1.39478 2.99102e-19)
(9.23088 1.1856 4.20704e-19)
(9.27923 0.992033 -2.35453e-18)
(9.30619 0.810372 -1.1288e-18)
(9.31404 0.637039 7.26018e-19)
(9.3037 0.469139 1.37362e-18)
(9.27511 0.305082 6.49133e-19)
(9.22704 0.143889 -3.9406e-20)
(9.15752 -0.0139408 4.01251e-20)
(9.06175 -0.167827 2.38958e-19)
(8.94199 -0.305427 6.98123e-19)
(8.81136 -0.415756 2.29659e-19)
(8.67956 -0.507425 4.01196e-19)
(8.5484 -0.588495 5.90659e-19)
(8.41529 -0.660916 2.60441e-18)
(8.27873 -0.72547 -1.85235e-19)
(8.13876 -0.782969 -3.23685e-19)
(7.99546 -0.834164 -1.05739e-18)
(7.84847 -0.879447 -8.75952e-19)
(7.69716 -0.919074 1.15442e-18)
(7.54056 -0.953112 -9.34729e-19)
(7.37746 -0.981338 2.27661e-18)
(7.20564 -1.00334 5.49998e-19)
(7.02219 -1.01833 3.70016e-19)
(6.82457 -1.02458 5.86869e-20)
(6.60737 -1.01996 -8.88638e-21)
(6.36845 -1.00003 -2.3947e-20)
(6.07883 -0.961898 -3.54019e-20)
(5.80003 -0.88497 2.15176e-19)
(5.27925 -0.787264 -1.3239e-19)
(4.65063 1.11947 5.25582e-19)
(4.87722 1.93636 -6.9893e-19)
(5.34925 2.6192 1.71218e-18)
(6.00969 3.0444 7.76798e-19)
(6.69667 3.20159 -1.46616e-20)
(7.28555 3.16411 -6.99619e-20)
(7.74411 3.01968 2.58852e-19)
(8.09207 2.82619 9.33421e-19)
(8.35709 2.61186 -2.4276e-19)
(8.559 2.38982 -4.83486e-19)
(8.71137 2.1668 -6.94811e-19)
(8.82523 1.94489 -4.28799e-20)
(8.90887 1.72495 -1.64084e-20)
(8.96843 1.50693 1.6085e-18)
(9.00861 1.28971 9.67804e-19)
(9.03169 1.07413 2.98464e-20)
(9.03872 0.861205 -6.44604e-19)
(9.03008 0.65221 7.02188e-19)
(9.00561 0.447989 -1.09187e-19)
(8.96477 0.249949 2.46182e-19)
(8.90596 0.0591282 -5.22877e-19)
(8.83047 -0.112026 -5.00516e-20)
(8.74586 -0.251805 6.21498e-19)
(8.66037 -0.368165 -6.78073e-19)
(8.57677 -0.469964 -1.43623e-18)
(8.49285 -0.560625 -7.15017e-19)
(8.40674 -0.641543 1.47104e-19)
(8.31781 -0.713899 -1.06951e-18)
(8.22551 -0.778771 3.31346e-20)
(8.12897 -0.83681 9.02815e-19)
(8.0271 -0.888409 -6.73936e-19)
(7.91863 -0.933714 1.29747e-19)
(7.80216 -0.972532 -1.71081e-18)
(7.67556 -1.00445 -7.25825e-19)
(7.53615 -1.02858 -3.6316e-19)
(7.38161 -1.04306 -2.77144e-19)
(7.20713 -1.04559 1.05003e-19)
(7.01118 -1.03097 -7.57907e-21)
(6.76914 -0.997837 -6.78131e-21)
(6.53255 -0.919539 -3.33296e-19)
(6.10157 -0.836593 3.41921e-19)
(5.11069 0.997076 -3.75116e-19)
(5.25554 1.60174 1.62989e-18)
(5.54611 2.15264 -7.58325e-19)
(6.00484 2.57151 -2.25022e-19)
(6.55908 2.7975 3.56222e-20)
(7.10454 2.83224 8.95427e-20)
(7.57779 2.72818 3.73173e-19)
(7.96357 2.54316 -1.53421e-20)
(8.27031 2.31759 -2.91546e-20)
(8.51058 2.07553 1.08419e-18)
(8.69592 1.8311 1.03238e-18)
(8.83711 1.59148 -5.90629e-19)
(8.94313 1.35993 -3.98368e-19)
(9.02059 1.13823 1.9392e-18)
(9.07371 0.927588 -1.65877e-18)
(9.10511 0.72809 7.29751e-19)
(9.11672 0.538405 6.69672e-20)
(9.10977 0.357264 1.92393e-19)
(9.08471 0.183627 2.26976e-19)
(9.04159 0.0173064 -1.39428e-19)
(8.97904 -0.141143 -2.69148e-19)
(8.90031 -0.282373 1.73935e-19)
(8.81383 -0.398826 -2.85484e-19)
(8.72671 -0.496125 -1.96452e-19)
(8.64203 -0.581224 1.3963e-18)
(8.5585 -0.657422 -9.18089e-19)
(8.47459 -0.725836 -1.98691e-19)
(8.38981 -0.78734 1.36542e-18)
(8.30396 -0.842784 1.02895e-18)
(8.21653 -0.892688 -4.85383e-19)
(8.12686 -0.937292 -3.70091e-19)
(8.0342 -0.976609 -1.12889e-19)
(7.93765 -1.01036 8.23239e-19)
(7.83591 -1.03802 7.82187e-19)
(7.72728 -1.05862 1.91867e-19)
(7.61053 -1.07023 -2.04212e-19)
(7.48223 -1.07068 -1.95899e-20)
(7.34284 -1.05421 -5.78023e-20)
(7.17412 -1.0211 4.43327e-20)
(7.01437 -0.941397 4.92483e-21)
(6.73836 -0.869301 -3.15048e-19)
(5.49113 0.900079 -6.42262e-20)
(5.59479 1.35297 9.24192e-20)
(5.77698 1.78021 -4.93998e-19)
(6.07821 2.15403 -4.14932e-19)
(6.48329 2.42275 5.88509e-20)
(6.9298 2.55525 -6.79782e-20)
(7.35716 2.5639 7.27167e-20)
(7.73195 2.48276 -1.14567e-19)
(8.04483 2.34495 -1.09628e-18)
(8.29798 2.17492 -5.86354e-20)
(8.49768 1.98913 -2.13238e-18)
(8.65242 1.79697 1.8552e-18)
(8.77032 1.60356 -1.39338e-18)
(8.85764 1.41163 -1.70505e-19)
(8.91912 1.22194 8.68078e-19)
(8.95842 1.03368 -3.40905e-19)
(8.97803 0.846356 1.22442e-18)
(8.97929 0.660455 -5.28899e-19)
(8.96276 0.476652 1.28715e-19)
(8.92845 0.296206 -9.31868e-20)
(8.87576 0.12057 9.86366e-20)
(8.80737 -0.0398534 -1.34347e-19)
(8.72938 -0.175763 6.50978e-19)
(8.6479 -0.29109 -2.15772e-19)
(8.56681 -0.391904 -5.39719e-19)
(8.48597 -0.481914 2.34165e-19)
(8.40435 -0.562685 7.64346e-19)
(8.32159 -0.635246 -3.84061e-19)
(8.23763 -0.700561 4.97792e-22)
(8.15218 -0.759293 -2.69081e-19)
(8.06482 -0.811811 1.62535e-20)
(7.97507 -0.858249 -4.04126e-19)
(7.88241 -0.898456 -8.61742e-21)
(7.78614 -0.93207 1.58251e-19)
(7.68545 -0.958288 4.51516e-19)
(7.58035 -0.975393 -2.86932e-19)
(7.46957 -0.981582 -2.3494e-19)
(7.35556 -0.971673 8.76799e-20)
(7.22997 -0.946368 -4.43137e-21)
(7.11758 -0.880239 -7.54629e-21)
(6.97208 -0.817037 5.049e-21)
(5.8071 0.819671 -7.19e-21)
(5.88879 1.16375 -3.08683e-19)
(6.01127 1.48791 2.63929e-19)
(6.20922 1.79285 6.64011e-19)
(6.49318 2.04815 -1.4179e-20)
(6.83747 2.21652 -1.65647e-19)
(7.20118 2.28478 2.23888e-19)
(7.54926 2.2628 2.15173e-19)
(7.86096 2.17081 4.62177e-19)
(8.12731 2.02994 -8.68883e-19)
(8.34686 1.85836 8.14296e-19)
(8.52333 1.66907 8.45503e-19)
(8.66219 1.47079 -1.36694e-18)
(8.76842 1.26943 1.55351e-18)
(8.84658 1.06861 4.09466e-20)
(8.90036 0.870671 -3.59467e-19)
(8.93226 0.677557 -1.39157e-18)
(8.94387 0.490416 -1.23999e-19)
(8.93609 0.309786 -4.49258e-19)
(8.90942 0.136335 1.75637e-18)
(8.86336 -0.0285507 -1.11921e-18)
(8.80106 -0.176998 1.93421e-19)
(8.72877 -0.30314 3.43989e-19)
(8.65171 -0.410275 6.06611e-20)
(8.57366 -0.502829 1.3491e-19)
(8.49526 -0.584342 6.12225e-20)
(8.41582 -0.656573 2.97541e-19)
(8.33501 -0.720576 -1.89005e-19)
(8.25271 -0.777254 -6.87539e-19)
(8.16871 -0.827268 -1.81333e-19)
(8.08259 -0.870971 5.21805e-19)
(7.99388 -0.908447 2.30426e-19)
(7.90211 -0.939518 9.82591e-21)
(7.80658 -0.963736 -3.57371e-19)
(7.7066 -0.980269 -1.75838e-19)
(7.60225 -0.987507 9.36702e-20)
(7.49309 -0.983903 1.56765e-19)
(7.38063 -0.965032 -5.25125e-20)
(7.26273 -0.931069 -7.08891e-21)
(7.15268 -0.865137 5.17437e-20)
(7.04472 -0.79165 3.53438e-20)
(6.0716 0.750331 -3.05288e-20)
(6.14018 1.01553 -2.55202e-19)
(6.2295 1.26114 6.85917e-19)
(6.3636 1.50012 -9.89074e-20)
(6.5586 1.72053 8.24541e-20)
(6.80954 1.89473 -9.64405e-20)
(7.09616 2.00312 -1.92935e-20)
(7.39306 2.04061 -1.25961e-19)
(7.6784 2.01346 3.53029e-20)
(7.93714 1.93403 -6.88819e-19)
(8.16111 1.81652 -3.16857e-19)
(8.34857 1.67325 5.88336e-19)
(8.50119 1.51388 3.40756e-19)
(8.6216 1.34574 -9.48936e-19)
(8.7131 1.17371 2.13043e-18)
(8.77886 1.00075 -8.09364e-19)
(8.8214 0.828428 7.38394e-19)
(8.84266 0.657435 -1.2903e-18)
(8.84394 0.488366 -3.54597e-20)
(8.826 0.322267 4.6998e-19)
(8.78914 0.160535 -6.53556e-19)
(8.73643 0.0117749 -7.65146e-20)
(8.67274 -0.117281 1.53388e-19)
(8.60241 -0.228758 -5.47636e-19)
(8.5292 -0.326015 -1.49273e-19)
(8.45447 -0.412214 -3.9723e-19)
(8.37818 -0.489225 -7.00152e-19)
(8.30019 -0.558111 2.37244e-19)
(8.22052 -0.619699 1.72055e-19)
(8.1391 -0.674598 5.4894e-19)
(8.05572 -0.723142 -2.09951e-19)
(7.97007 -0.7654 1.45745e-19)
(7.88185 -0.80118 -1.60465e-19)
(7.79057 -0.830098 3.37042e-19)
(7.69583 -0.851364 -4.00248e-20)
(7.59787 -0.863561 6.33155e-20)
(7.49678 -0.865208 -2.42123e-19)
(7.39344 -0.853151 9.41218e-20)
(7.28795 -0.826419 -6.28091e-21)
(7.18804 -0.77601 -4.43729e-20)
(7.09519 -0.711749 6.36558e-20)
(6.29349 0.688901 -1.4556e-19)
(6.35327 0.89553 5.50496e-19)
(6.42356 1.08241 -2.2173e-19)
(6.51973 1.26569 -6.86446e-19)
(6.65572 1.44373 -1.29939e-20)
(6.83468 1.59964 3.22901e-19)
(7.05007 1.71672 1.1841e-20)
(7.28833 1.7842 4.95765e-19)
(7.53327 1.79863 -9.10599e-19)
(7.7698 1.76305 -2.45613e-19)
(7.98644 1.68508 4.47247e-20)
(8.17708 1.57378 3.64048e-20)
(8.33931 1.43786 7.62576e-19)
(8.47259 1.28509 -2.26071e-19)
(8.57801 1.12163 1.05773e-18)
(8.65749 0.952078 -8.99193e-19)
(8.71306 0.779772 2.51537e-19)
(8.74654 0.607252 -1.99807e-19)
(8.75927 0.436701 3.95953e-19)
(8.75219 0.270004 3.3297e-19)
(8.72551 0.109177 1.32432e-19)
(8.68216 -0.0382307 -4.18966e-19)
(8.62699 -0.166967 3.6656e-19)
(8.56388 -0.279155 1.89355e-19)
(8.49634 -0.376978 -5.96253e-19)
(8.42622 -0.462921 4.21564e-19)
(8.354 -0.538771 4.56125e-19)
(8.27982 -0.60564 -5.21727e-19)
(8.20378 -0.664339 5.84698e-20)
(8.12593 -0.71548 -4.15718e-19)
(8.04619 -0.75943 1.89708e-19)
(7.96438 -0.796297 -2.50243e-19)
(7.88036 -0.825956 -7.00094e-20)
(7.7938 -0.848051 1.06177e-20)
(7.70456 -0.861915 -1.29005e-19)
(7.61307 -0.866426 2.89234e-20)
(7.51989 -0.860443 6.36151e-20)
(7.42581 -0.841745 -6.33765e-20)
(7.33201 -0.809358 -1.36033e-20)
(7.24396 -0.758959 -6.93382e-21)
(7.16366 -0.69578 -3.85505e-20)
(6.47971 0.633345 -1.28865e-19)
(6.53293 0.795617 -4.23626e-19)
(6.59139 0.938758 -1.74542e-20)
(6.66469 1.07848 1.06152e-20)
(6.76304 1.21773 3.08987e-19)
(6.89111 1.34735 -4.60513e-20)
(7.04878 1.45638 -2.2358e-19)
(7.23103 1.5351 -7.25837e-20)
(7.42881 1.57672 4.35577e-20)
(7.63098 1.57857 9.27854e-19)
(7.82668 1.54235 4.03906e-19)
(8.00808 1.47264 1.27003e-19)
(8.17007 1.37535 -1.00565e-18)
(8.30928 1.2569 2.14913e-18)
(8.42436 1.12328 -1.58738e-18)
(8.51535 0.979584 8.12434e-19)
(8.5831 0.829861 -8.72619e-19)
(8.62871 0.677175 -1.71456e-18)
(8.6532 0.52386 8.73299e-20)
(8.65751 0.371713 1.31663e-18)
(8.6423 0.22256 -7.22245e-19)
(8.61027 0.0840172 8.37238e-19)
(8.56549 -0.0385425 -4.47673e-19)
(8.51148 -0.146555 5.91863e-20)
(8.45146 -0.241469 -5.50878e-20)
(8.38752 -0.325178 -3.53785e-19)
(8.32063 -0.399298 3.16875e-19)
(8.2512 -0.464933 -2.2389e-19)
(8.17955 -0.522874 2.09403e-19)
(8.10588 -0.573696 1.29817e-19)
(8.03029 -0.617762 7.41734e-21)
(7.95279 -0.655205 9.51347e-20)
(7.87344 -0.685929 5.1721e-20)
(7.79212 -0.709709 -2.19881e-19)
(7.70897 -0.725998 -1.08803e-19)
(7.6246 -0.733937 7.55618e-20)
(7.53984 -0.732611 6.68714e-20)
(7.45548 -0.720742 4.24168e-21)
(7.37305 -0.697491 5.37307e-20)
(7.2965 -0.660929 -7.2661e-21)
(7.22783 -0.614411 6.89158e-21)
(6.63569 0.582396 -1.2797e-19)
(6.68357 0.710421 7.39105e-20)
(6.73397 0.820622 4.24242e-19)
(6.79283 0.926996 -4.6748e-19)
(6.8673 1.03395 2.26549e-19)
(6.96126 1.1367 -1.2181e-19)
(7.07659 1.2289 2.85411e-20)
(7.21265 1.30376 -4.06217e-20)
(7.36576 1.35489 -6.78946e-19)
(7.52948 1.37743 9.877e-19)
(7.69587 1.3693 -8.63704e-19)
(7.85789 1.33111 -2.74282e-19)
(8.00968 1.26535 -5.79385e-19)
(8.14636 1.17584 -3.78202e-19)
(8.26462 1.06708 8.32719e-19)
(8.36263 0.943617 -3.78533e-19)
(8.43971 0.809599 1.49919e-18)
(8.49591 0.66862 -1.1262e-18)
(8.53163 0.523759 -3.84635e-19)
(8.54753 0.37769 1.94234e-18)
(8.54394 0.233021 -8.62499e-19)
(8.52295 0.097247 -2.81094e-20)
(8.48833 -0.0243907 1.55346e-19)
(8.44343 -0.133058 5.2547e-19)
(8.39124 -0.229495 -4.80617e-19)
(8.33397 -0.314878 -1.0246e-19)
(8.27294 -0.390402 -1.0945e-19)
(8.20893 -0.456978 6.49364e-19)
(8.14247 -0.515275 -2.87088e-19)
(8.07394 -0.565783 -7.97642e-20)
(8.00362 -0.608823 3.05191e-19)
(7.93172 -0.64453 -2.44794e-19)
(7.85847 -0.672877 -1.06069e-19)
(7.78394 -0.693709 1.34241e-19)
(7.70842 -0.706673 9.03401e-20)
(7.63265 -0.711241 1.70075e-20)
(7.55755 -0.706949 -3.06566e-20)
(7.48383 -0.693115 -1.44736e-20)
(7.41286 -0.669522 -2.96114e-20)
(7.3475 -0.635594 1.84076e-20)
(7.28903 -0.594364 9.57337e-21)
(6.76589 0.535252 1.83853e-19)
(6.80913 0.636439 -4.15847e-19)
(6.85346 0.721547 4.06366e-19)
(6.90256 0.802584 1.49586e-19)
(6.96139 0.88406 -2.25229e-19)
(7.03269 0.963479 -6.11347e-20)
(7.11845 1.03737 -1.41807e-19)
(7.21964 1.1017 1.22957e-19)
(7.33548 1.15187 1.35417e-19)
(7.46306 1.18338 7.69702e-20)
(7.59769 1.19293 -2.56316e-19)
(7.73435 1.17896 5.54717e-19)
(7.86812 1.14145 -5.73726e-20)
(7.99408 1.08177 7.19026e-19)
(8.10818 1.00245 -2.09161e-18)
(8.20735 0.906709 2.23279e-18)
(8.28962 0.798006 -6.47028e-19)
(8.35383 0.679744 -1.79625e-18)
(8.3995 0.555075 1.30377e-18)
(8.42657 0.426839 -1.23564e-18)
(8.43514 0.297683 6.88329e-19)
(8.42653 0.174833 -1.86718e-19)
(8.40373 0.0634022 5.76157e-19)
(8.3699 -0.0371747 -2.02851e-19)
(8.32779 -0.127131 -8.38122e-19)
(8.27953 -0.207122 4.55322e-19)
(8.22663 -0.277969 1.86132e-19)
(8.17009 -0.340418 -5.23852e-20)
(8.11065 -0.395071 3.46898e-20)
(8.04884 -0.442397 -1.20411e-19)
(7.9851 -0.482759 -5.29293e-19)
(7.91981 -0.516372 5.50904e-19)
(7.85332 -0.54331 -4.43233e-20)
(7.78588 -0.563615 -1.36132e-19)
(7.71791 -0.577133 1.40615e-19)
(7.65018 -0.58361 -2.18094e-20)
(7.5836 -0.582843 -2.14864e-20)
(7.51878 -0.574698 4.80574e-20)
(7.45687 -0.559202 1.1951e-20)
(7.39989 -0.536237 -2.01854e-20)
(7.34867 -0.508449 -1.79942e-21)
(6.87407 0.491441 -1.68831e-21)
(6.9131 0.571328 1.93545e-19)
(6.95247 0.637078 4.28406e-19)
(6.99442 0.698776 -4.95127e-19)
(7.04245 0.760495 -3.37972e-20)
(7.0984 0.820868 3.52457e-19)
(7.1638 0.878015 -1.8833e-20)
(7.23992 0.929716 -1.0161e-19)
(7.32712 0.973066 4.78109e-20)
(7.42448 1.00472 5.66371e-19)
(7.52968 1.0216 -1.30983e-19)
(7.6398 1.02147 5.80094e-19)
(7.75143 1.00296 6.30602e-20)
(7.86067 0.965732 -1.22546e-18)
(7.96372 0.910489 -5.55112e-19)
(8.05726 0.838832 1.32504e-18)
(8.1386 0.752989 -7.42119e-19)
(8.20574 0.655539 1.02556e-18)
(8.25731 0.549189 -1.44381e-18)
(8.29254 0.436631 9.3398e-20)
(8.31086 0.320498 -8.48772e-20)
(8.31264 0.207631 1.913e-18)
(8.30016 0.103259 -9.00152e-20)
(8.2763 0.00741847 -7.53708e-19)
(8.24353 -0.0795866 -1.30504e-19)
(8.20387 -0.157869 -1.59238e-19)
(8.1589 -0.227795 -4.39683e-19)
(8.1098 -0.289788 5.25699e-19)
(8.05748 -0.344245 -4.05247e-19)
(8.00268 -0.391492 5.78243e-21)
(7.94602 -0.431776 1.2827e-19)
(7.88801 -0.465262 -4.46898e-20)
(7.82918 -0.492042 5.39134e-20)
(7.7699 -0.512208 -7.0086e-21)
(7.71065 -0.525756 1.97662e-19)
(7.65219 -0.532643 -1.71931e-19)
(7.59532 -0.532938 1.60917e-20)
(7.5405 -0.526747 5.29387e-21)
(7.48849 -0.514402 2.54232e-21)
(7.44069 -0.496083 -1.60211e-21)
(7.39738 -0.474059 1.5163e-20)
(6.96337 0.450704 -2.53315e-19)
(6.9985 0.513536 1.33172e-19)
(7.03356 0.564209 -4.91246e-19)
(7.06991 0.61107 2.95584e-19)
(7.11004 0.657582 -1.88549e-19)
(7.15516 0.702956 1.23238e-19)
(7.20636 0.746161 -4.93988e-20)
(7.2647 0.786025 -1.29079e-20)
(7.33086 0.820845 -2.49537e-19)
(7.40476 0.848423 1.45243e-19)
(7.48547 0.866443 3.02798e-20)
(7.57152 0.872914 -1.77369e-18)
(7.66095 0.866185 1.1118e-18)
(7.75112 0.845159 5.4215e-20)
(7.83913 0.809463 1.24615e-18)
(7.9221 0.759477 -1.19211e-18)
(7.99734 0.696252 1.9892e-19)
(8.06258 0.621372 1.00383e-18)
(8.11598 0.536785 -1.10175e-18)
(8.15621 0.444673 4.1621e-19)
(8.18221 0.347326 1.24366e-19)
(8.19345 0.250842 -2.4373e-19)
(8.19125 0.16007 7.87009e-20)
(8.17798 0.0755311 -1.74298e-19)
(8.15573 -0.00208897 9.53889e-19)
(8.12629 -0.0725114 -1.10314e-18)
(8.09116 -0.135753 7.87919e-19)
(8.05153 -0.191978 1.61881e-19)
(8.0084 -0.241412 -2.65448e-19)
(7.96256 -0.284298 -9.62689e-20)
(7.91469 -0.320859 -5.06713e-20)
(7.86539 -0.351321 3.00798e-19)
(7.8152 -0.375869 -5.65649e-20)
(7.76456 -0.394754 -3.44806e-19)
(7.71396 -0.408125 8.17299e-20)
(7.66409 -0.416107 8.527e-20)
(7.61561 -0.418898 -7.07648e-20)
(7.56885 -0.416838 6.02533e-20)
(7.52442 -0.410277 1.8454e-20)
(7.48325 -0.399418 8.88913e-21)
(7.44555 -0.386115 -3.33649e-20)
(7.03641 0.412886 1.76295e-19)
(7.06785 0.462008 -2.00638e-19)
(7.09905 0.500868 4.47839e-19)
(7.13077 0.536298 -6.83348e-20)
(7.16479 0.571121 -7.50065e-20)
(7.20192 0.604853 3.13214e-20)
(7.24291 0.636912 1.51542e-19)
(7.28857 0.666688 1.37825e-22)
(7.33948 0.693205 6.84507e-20)
(7.39588 0.715092 -8.06915e-21)
(7.45746 0.730777 5.49655e-19)
(7.52358 0.738773 -7.83855e-19)
(7.59325 0.737653 1.55234e-18)
(7.66489 0.726211 -1.21287e-18)
(7.73655 0.703635 -6.08507e-19)
(7.8061 0.669604 -2.5215e-19)
(7.87133 0.624318 -4.33272e-19)
(7.93016 0.568472 4.6325e-19)
(7.9807 0.50318 6.59864e-20)
(8.02138 0.429903 3.45281e-19)
(8.0508 0.350315 -1.7631e-19)
(8.06773 0.269425 1.81469e-19)
(8.0727 0.191553 6.53355e-19)
(8.06751 0.117552 -7.91638e-19)
(8.05379 0.048383 3.43579e-19)
(8.03302 -0.0153695 3.06301e-19)
(8.00652 -0.0734187 -3.01831e-21)
(7.97541 -0.125667 -1.11733e-18)
(7.94069 -0.172135 2.47858e-19)
(7.90318 -0.212912 4.1055e-19)
(7.86363 -0.248124 -2.58906e-19)
(7.82269 -0.277916 4.73232e-19)
(7.78098 -0.302446 -4.23363e-19)
(7.73896 -0.321925 5.03577e-20)
(7.69713 -0.336527 1.07637e-19)
(7.65606 -0.346405 -1.05117e-19)
(7.61632 -0.351801 4.71941e-20)
(7.57812 -0.353061 -7.38594e-21)
(7.54183 -0.350554 -6.51167e-20)
(7.50807 -0.344505 -4.47483e-23)
(7.47689 -0.336298 -1.06983e-21)
(7.0955 0.377856 7.74871e-21)
(7.12345 0.415948 -1.20639e-19)
(7.15109 0.445518 -6.31157e-20)
(7.17879 0.472154 2.02611e-19)
(7.20784 0.498046 1.45378e-20)
(7.23879 0.522871 -2.44152e-21)
(7.27216 0.546302 6.40442e-21)
(7.30851 0.568024 1.40142e-22)
(7.34832 0.587475 -2.97873e-20)
(7.39184 0.603814 2.98049e-19)
(7.439 0.616029 -5.39467e-20)
(7.48959 0.623112 -5.95402e-20)
(7.54312 0.624011 5.87288e-19)
(7.59872 0.61773 -2.04686e-19)
(7.6552 0.60345 -3.27128e-19)
(7.71115 0.580624 -2.99268e-19)
(7.76497 0.549038 -2.21786e-19)
(7.81502 0.508841 1.65743e-18)
(7.8597 0.460536 -1.74543e-18)
(7.89755 0.404971 1.03797e-20)
(7.92719 0.343238 1.05693e-18)
(7.94707 0.279195 -9.08049e-19)
(7.95709 0.216363 8.66575e-19)
(7.95849 0.155677 -3.7324e-19)
(7.95241 0.0981567 -3.9024e-19)
(7.93997 0.0445131 9.94542e-19)
(7.92222 -0.00480991 -3.79551e-19)
(7.90014 -0.0495608 4.04735e-19)
(7.87457 -0.0896301 -1.07113e-18)
(7.84628 -0.125008 1.40165e-19)
(7.81595 -0.155756 3.62745e-19)
(7.78418 -0.181989 -4.78722e-20)
(7.75152 -0.203856 -6.44865e-20)
(7.71838 -0.221595 1.8882e-20)
(7.68519 -0.235403 -9.44253e-21)
(7.65243 -0.245493 3.33394e-20)
(7.62051 -0.252114 -9.33924e-20)
(7.5896 -0.255645 6.55006e-20)
(7.56 -0.256387 -3.2477e-20)
(7.53212 -0.254541 2.65021e-20)
(7.50608 -0.251081 1.45384e-22)
(7.14105 0.347092 5.64869e-21)
(7.16588 0.376646 -1.97077e-19)
(7.19033 0.399171 2.04394e-19)
(7.21461 0.419313 -2.11251e-19)
(7.23962 0.438663 -5.76731e-20)
(7.26578 0.456984 -2.87423e-20)
(7.29344 0.474098 1.23661e-19)
(7.32303 0.489843 -2.2427e-19)
(7.35488 0.503878 -3.97672e-20)
(7.38918 0.515669 5.01835e-19)
(7.42597 0.524561 -7.43405e-19)
(7.46516 0.529884 1.99086e-19)
(7.50653 0.530905 2.15723e-19)
(7.54958 0.526884 -3.8709e-19)
(7.59361 0.51715 9.70889e-19)
(7.6377 0.501171 -1.21248e-19)
(7.68078 0.478607 -2.93484e-18)
(7.72166 0.449352 2.54746e-18)
(7.7591 0.41355 -9.39207e-19)
(7.79191 0.37162 -6.66411e-19)
(7.81888 0.324183 8.94029e-19)
(7.83848 0.274053 8.60519e-19)
(7.85029 0.223962 -1.25097e-18)
(7.8551 0.174759 1.12792e-18)
(7.85365 0.127385 -3.10185e-19)
(7.84676 0.0825468 2.46242e-19)
(7.8352 0.0407387 -4.63933e-19)
(7.81976 0.00228593 4.36044e-19)
(7.80114 -0.0326208 1.25655e-19)
(7.77999 -0.0638939 -7.27702e-19)
(7.75692 -0.0915247 9.18344e-20)
(7.73247 -0.115565 -2.15331e-20)
(7.70711 -0.136108 3.11387e-19)
(7.68126 -0.153337 -2.26451e-21)
(7.65526 -0.167406 -2.24756e-20)
(7.62954 -0.178467 -2.97047e-20)
(7.60443 -0.186707 -1.26216e-20)
(7.58007 -0.192445 -1.88841e-20)
(7.55666 -0.195887 -5.12165e-20)
(7.53449 -0.197196 5.41503e-21)
(7.51363 -0.196999 6.9292e-21)
(7.17471 0.321316 7.54108e-20)
(7.19696 0.344536 1.4392e-19)
(7.21871 0.361941 -9.19536e-20)
(7.24014 0.377393 -1.63065e-19)
(7.26194 0.392047 -1.64018e-20)
(7.28441 0.405729 2.46057e-20)
(7.30782 0.418347 -2.07527e-20)
(7.33248 0.429814 7.50411e-20)
(7.35864 0.439908 1.92566e-19)
(7.38643 0.448277 -3.56749e-19)
(7.41589 0.454483 -5.14289e-19)
(7.447 0.458074 6.34253e-19)
(7.47964 0.458545 6.0458e-19)
(7.51351 0.45537 -9.31355e-19)
(7.54817 0.448049 1.13023e-18)
(7.58302 0.43615 7.9446e-19)
(7.61735 0.419355 -6.09682e-19)
(7.65031 0.397487 -1.02348e-18)
(7.68103 0.370542 -1.24765e-19)
(7.70857 0.338711 8.20142e-19)
(7.73199 0.302343 -1.59545e-18)
(7.74995 0.263484 1.24541e-18)
(7.76195 0.224195 1.45632e-19)
(7.76846 0.185178 2.91162e-19)
(7.76996 0.147223 -5.2031e-19)
(7.76701 0.110955 2.32829e-19)
(7.76019 0.076838 -2.11272e-19)
(7.75007 0.0451963 -1.35145e-19)
(7.73723 0.0162394 2.47482e-19)
(7.72218 -0.00991728 -1.62077e-19)
(7.7054 -0.0332341 -7.54244e-20)
(7.68734 -0.053732 2.63509e-19)
(7.66839 -0.0714753 -3.32101e-19)
(7.64888 -0.0866102 1.62388e-19)
(7.6291 -0.0992662 7.26996e-21)
(7.60936 -0.109571 -1.64265e-19)
(7.58992 -0.117677 1.08087e-19)
(7.57088 -0.123851 1.74256e-20)
(7.55241 -0.128255 -4.34708e-20)
(7.53471 -0.131036 -1.19611e-20)
(7.51788 -0.13255 -8.53919e-21)
(7.20009 0.299488 -3.86337e-20)
(7.22012 0.317909 1.75408e-20)
(7.23957 0.331506 -3.24348e-20)
(7.25863 0.343477 -3.70131e-20)
(7.27781 0.354673 3.40776e-20)
(7.29735 0.364967 -9.56498e-21)
(7.31746 0.374318 2.67481e-20)
(7.33838 0.382679 -8.04634e-20)
(7.36029 0.389898 8.93668e-21)
(7.38329 0.395733 4.77862e-20)
(7.40741 0.39988 -1.8088e-19)
(7.43263 0.402028 3.01757e-19)
(7.45888 0.401825 -7.1818e-19)
(7.48597 0.398897 4.46526e-19)
(7.51361 0.392881 2.8713e-19)
(7.54139 0.383454 1.99353e-19)
(7.56882 0.370354 8.72975e-20)
(7.59531 0.353412 -1.47241e-19)
(7.62023 0.332569 -4.38685e-19)
(7.64289 0.307902 8.72702e-19)
(7.66256 0.279599 3.32747e-20)
(7.67815 0.249146 -9.25655e-19)
(7.68918 0.21809 4.11155e-19)
(7.69593 0.186971 4.32109e-19)
(7.69873 0.156417 -8.57326e-19)
(7.69795 0.126945 7.42556e-19)
(7.694 0.0989498 -6.02614e-19)
(7.68732 0.072724 3.97799e-20)
(7.67834 0.048466 1.78917e-19)
(7.66747 0.026297 4.17937e-19)
(7.6551 0.00627421 -5.35596e-19)
(7.64157 -0.0115977 1.50788e-19)
(7.62723 -0.0273512 2.49076e-19)
(7.61232 -0.0410901 -1.95369e-19)
(7.59709 -0.0529048 -2.12251e-20)
(7.5818 -0.0628812 -5.44903e-21)
(7.56665 -0.0711207 3.04711e-20)
(7.55174 -0.077836 -2.10703e-20)
(7.5372 -0.0831312 1.27233e-20)
(7.52318 -0.0871265 -2.18184e-20)
(7.50977 -0.0900021 -1.68187e-21)
(7.21959 0.280749 1.01007e-20)
(7.23768 0.295467 1.3446e-19)
(7.25516 0.306178 -4.54855e-21)
(7.27217 0.315516 -5.5463e-20)
(7.28916 0.324114 1.92606e-20)
(7.3063 0.331887 -1.05598e-20)
(7.32376 0.338822 -6.42113e-20)
(7.34174 0.344895 3.77075e-20)
(7.36036 0.349998 1.26848e-19)
(7.37969 0.353958 1.17258e-20)
(7.39976 0.356561 5.00892e-20)
(7.42055 0.357588 2.07385e-19)
(7.44201 0.356789 -1.4595e-19)
(7.464 0.353901 -3.03598e-19)
(7.48632 0.348664 2.53928e-20)
(7.50869 0.340844 -1.03105e-19)
(7.53075 0.330245 2.5689e-19)
(7.5521 0.316731 -2.41981e-19)
(7.57227 0.30024 -1.64987e-19)
(7.59077 0.280803 -4.70034e-19)
(7.60705 0.258528 6.16973e-19)
(7.62027 0.23452 2.90012e-19)
(7.63 0.209942 -3.02793e-19)
(7.63644 0.185199 -2.77732e-19)
(7.6398 0.16078 -1.42023e-19)
(7.64034 0.137093 5.46694e-19)
(7.63835 0.114463 3.08612e-19)
(7.63417 0.0931326 2.55162e-19)
(7.62811 0.0732746 -5.6759e-19)
(7.6205 0.054999 1.68305e-19)
(7.61162 0.0383639 -2.05074e-19)
(7.60175 0.0233839 1.08054e-19)
(7.59115 0.0100421 -1.61623e-19)
(7.58003 -0.00173705 2.42176e-19)
(7.56857 -0.01202 -1.22427e-19)
(7.55696 -0.0208694 4.62504e-20)
(7.54537 -0.0283604 -9.80216e-20)
(7.53387 -0.0346607 7.61062e-20)
(7.52257 -0.0398451 -5.73818e-20)
(7.51157 -0.0440173 -1.39133e-21)
(7.50094 -0.047248 8.58569e-21)
(7.23482 0.264486 -2.871e-20)
(7.25121 0.276301 -7.94016e-21)
(7.26695 0.284784 -1.00019e-19)
(7.28221 0.292092 1.08816e-19)
(7.29732 0.298704 -3.53801e-20)
(7.31245 0.304565 -3.20117e-21)
(7.32774 0.309682 5.81995e-20)
(7.34333 0.314041 -1.11361e-19)
(7.35932 0.317565 5.32714e-19)
(7.37577 0.32013 -7.50317e-19)
(7.39268 0.321581 3.88115e-19)
(7.41005 0.321759 1.21937e-19)
(7.42782 0.320488 -1.5574e-19)
(7.4459 0.31758 -6.60474e-19)
(7.46413 0.312852 1.70843e-19)
(7.48231 0.306136 -3.97274e-19)
(7.50019 0.297291 1.29161e-18)
(7.51746 0.286218 -3.59066e-19)
(7.5338 0.272866 -8.10147e-20)
(7.54884 0.25725 2.44687e-19)
(7.56218 0.239435 -1.18984e-18)
(7.57317 0.220257 7.19522e-19)
(7.58148 0.200596 4.12737e-19)
(7.58724 0.18075 -3.83687e-19)
(7.59059 0.161089 -9.19287e-20)
(7.59171 0.141929 3.18528e-19)
(7.59084 0.123523 -4.98615e-19)
(7.5882 0.106066 3.46411e-19)
(7.58404 0.0896992 2.78056e-19)
(7.57861 0.0745148 -2.09003e-19)
(7.57213 0.0605658 -3.35091e-19)
(7.56481 0.0478708 3.47476e-20)
(7.55686 0.0364238 1.58891e-19)
(7.54843 0.0261717 6.68482e-20)
(7.53967 0.0170687 -1.72714e-19)
(7.53075 0.00907347 1.73361e-19)
(7.52177 0.00213718 -1.07775e-19)
(7.5128 -0.00387068 4.56707e-20)
(7.50394 -0.00899642 1.13632e-20)
(7.49526 -0.0133262 -3.70611e-20)
(7.48683 -0.016845 -4.91192e-21)
(7.24687 0.250249 -7.20173e-20)
(7.26174 0.259764 7.65299e-20)
(7.27596 0.266505 5.26907e-20)
(7.28968 0.27223 6.15652e-21)
(7.30318 0.277303 3.61483e-20)
(7.3166 0.281697 -1.20641e-19)
(7.33006 0.285429 2.14605e-19)
(7.34368 0.288492 -6.07883e-19)
(7.35753 0.290832 7.54764e-19)
(7.37165 0.292357 -3.7082e-19)
(7.38605 0.292953 -5.62099e-19)
(7.4007 0.292508 1.6371e-19)
(7.41558 0.290892 7.69397e-19)
(7.4306 0.287973 4.12988e-19)
(7.44564 0.283623 -7.55619e-19)
(7.46055 0.277723 5.71479e-19)
(7.47514 0.270177 -4.50189e-19)
(7.4892 0.260918 -1.05811e-19)
(7.50248 0.249909 1.31743e-19)
(7.51472 0.237166 -5.91577e-19)
(7.52563 0.222733 1.47053e-18)
(7.5347 0.207257 -6.7014e-19)