/*--------------------------------*- C++ -*----------------------------------*\
| =========                 |                                                 |
| \\      /  F ield         | OpenFOAM: The Open Source CFD Toolbox           |
|  \\    /   O peration     | Version:  2312                                  |
|   \\  /    A nd           | Website:  www.openfoam.com                      |
|    \\/     M anipulation  |                                                 |
\*---------------------------------------------------------------------------*/
FoamFile
{
    version     2.0;
    format      ascii;
    arch        "LSB;label=32;scalar=64";
    class       volScalarField;
    location    "249";
    object      div(phi);
}
// * * * * * * * * * * * * * * * * * * * * * * * * * * * * * * * * * * * * * //

dimensions      [0 0 -1 0 0 0 0];

internalField   nonuniform List<scalar> 
11040
(
8.00711e-06
-1.72755e-06
8.67096e-07
-1.59198e-06
-2.02624e-06
-4.81369e-06
-5.76155e-06
-6.59959e-06
-7.93263e-06
-5.90521e-06
-7.23504e-06
-5.15473e-06
-4.32282e-06
-7.43643e-06
-4.31539e-06
-5.86879e-06
-2.34092e-06
-6.67472e-06
-5.40014e-08
-4.63227e-06
4.71538e-06
5.42188e-06
6.94462e-06
5.11063e-06
-3.0755e-06
1.62672e-06
-4.17271e-06
1.76887e-06
-3.25051e-06
1.40459e-06
-2.85479e-06
2.18137e-06
-2.01923e-06
2.27828e-06
-1.77972e-06
3.02541e-06
-1.38596e-06
2.96987e-06
-4.14562e-07
1.18158e-05
1.96896e-05
-4.20647e-06
-2.01881e-07
3.4459e-06
7.79615e-06
9.3837e-06
1.03747e-05
1.04685e-05
1.11226e-05
1.04683e-05
1.04476e-05
9.91038e-06
9.48695e-06
9.56522e-06
5.85972e-06
7.17472e-06
4.36997e-06
7.29754e-06
2.70108e-06
8.48433e-06
2.66725e-06
8.18085e-06
9.30155e-06
9.39574e-06
7.57279e-06
2.25355e-06
3.62421e-06
4.20742e-07
2.75474e-06
2.24718e-07
2.05328e-06
5.59956e-08
2.07978e-06
2.14861e-07
1.82193e-06
4.91979e-08
1.67201e-06
-3.91893e-07
7.6221e-07
-9.68892e-07
3.45397e-06
3.16824e-06
2.76125e-06
-1.17612e-06
9.32323e-07
4.27556e-07
1.13798e-07
-9.22796e-07
-1.46399e-06
-1.8048e-06
-2.64717e-06
-2.56583e-06
-3.54385e-06
-2.82251e-06
-3.88932e-06
-4.21453e-06
-3.78321e-06
-3.88267e-06
-3.37689e-06
-4.10042e-06
-1.51853e-06
-2.66892e-06
-8.00576e-08
5.55489e-07
7.81894e-07
6.5822e-07
-2.2139e-06
-2.46386e-07
-2.33824e-06
-1.0203e-07
-1.80953e-06
-4.22678e-08
-1.43315e-06
3.30655e-07
-9.93094e-07
4.96381e-07
-7.53534e-07
8.30657e-07
-4.56508e-07
1.04656e-06
1.9363e-07
4.04287e-06
4.49462e-06
-5.65131e-06
-2.14869e-06
-1.04952e-06
-1.7876e-06
-1.94886e-07
-1.41328e-07
1.73085e-06
2.6425e-06
4.13624e-06
4.87936e-06
5.58519e-06
6.1612e-06
6.02003e-06
5.46123e-06
5.44873e-06
5.01246e-06
5.26386e-06
4.79433e-06
5.86201e-06
4.25204e-06
5.43817e-06
5.78654e-06
5.37127e-06
4.50763e-06
2.245e-06
2.43054e-06
1.17657e-06
1.78804e-06
8.47549e-07
1.36668e-06
6.30122e-07
1.2182e-06
5.27244e-07
9.93213e-07
3.10826e-07
7.36106e-07
-4.49524e-08
1.90334e-07
-3.05389e-07
7.13987e-07
6.89163e-08
-2.74429e-06
-4.95273e-07
-1.19972e-06
2.85452e-07
-8.47561e-07
3.13088e-08
1.13923e-07
7.21074e-07
6.00928e-07
8.18407e-07
5.64841e-07
4.64267e-07
-4.59992e-07
-7.2529e-07
-1.06927e-06
-1.10607e-06
-1.36216e-06
-8.34101e-07
-5.89848e-07
-8.39882e-07
-3.01821e-07
-3.44612e-07
1.6531e-08
-2.60093e-07
-7.60914e-07
-5.63599e-07
-6.98454e-07
-4.41311e-07
-5.08314e-07
-3.32412e-07
-3.31046e-07
-1.50994e-07
-1.45216e-07
-5.42364e-08
-3.72013e-08
3.7374e-08
6.46908e-08
8.29291e-08
3.54165e-07
8.70335e-07
1.02468e-06
2.00301e-06
-1.37445e-06
9.44193e-07
-2.54222e-06
-8.01846e-07
-1.02162e-06
-1.08159e-06
-5.34671e-07
-1.28713e-07
7.42335e-07
9.58464e-07
1.63698e-06
2.04701e-06
2.30832e-06
2.63504e-06
2.78349e-06
3.24164e-06
3.36789e-06
3.63688e-06
3.09607e-06
3.35686e-06
3.01968e-06
2.92253e-06
2.27039e-06
1.70209e-06
1.3603e-06
1.12754e-06
9.83117e-07
8.72423e-07
7.32511e-07
6.95346e-07
5.79805e-07
5.63163e-07
4.13567e-07
3.99997e-07
2.25845e-07
1.84543e-07
-8.16011e-09
8.61488e-08
3.71048e-08
1.44597e-07
-6.94238e-07
1.03653e-06
-2.79057e-06
-2.21411e-07
-2.94105e-07
-9.78143e-08
3.00172e-07
1.17071e-07
8.85035e-07
7.54541e-07
1.35047e-06
1.26016e-06
1.09245e-06
9.89878e-07
8.22754e-07
8.90965e-07
7.3281e-07
9.36859e-07
4.82961e-07
3.87266e-07
-1.31926e-08
1.13601e-07
9.47748e-08
1.19136e-07
-1.13965e-07
9.98643e-08
-3.54339e-08
1.53607e-07
1.88767e-08
1.72389e-07
4.64623e-08
1.96626e-07
5.73463e-08
1.80237e-07
1.80188e-08
1.30497e-07
-5.49051e-08
4.44564e-08
-7.92182e-08
5.84021e-08
-5.60128e-08
1.38273e-06
-1.42051e-06
-1.08454e-06
7.06564e-07
1.39749e-07
1.61563e-06
-3.09043e-08
5.50031e-07
-4.77699e-07
4.08654e-07
-3.48653e-07
-2.10146e-07
4.25555e-07
5.43517e-07
6.68096e-07
9.60938e-07
1.12979e-06
1.34524e-06
1.3287e-06
1.32089e-06
1.28804e-06
1.20616e-06
1.0103e-06
8.8683e-07
7.14731e-07
6.32455e-07
4.20204e-07
4.73446e-07
3.14422e-07
3.76257e-07
2.41367e-07
2.98123e-07
1.72241e-07
2.12554e-07
9.50053e-08
1.16183e-07
4.04695e-09
2.48692e-08
-3.81256e-08
1.20629e-09
3.29049e-08
1.01387e-06
-2.64121e-06
1.309e-06
-9.49451e-07
2.45887e-06
-2.25377e-07
7.59675e-07
-1.19468e-06
1.02901e-07
-1.03224e-06
-5.82064e-07
4.13452e-07
5.2174e-07
8.41135e-07
1.05271e-06
9.82343e-07
1.13043e-06
9.80967e-07
8.45961e-07
5.57787e-07
4.33082e-07
3.46282e-07
4.20685e-07
3.13857e-07
3.5307e-07
2.13489e-07
3.58059e-07
1.91887e-07
3.45993e-07
1.69014e-07
3.08833e-07
1.28569e-07
2.51239e-07
6.48267e-08
1.67548e-07
-2.04949e-08
6.13469e-08
-1.12856e-07
-3.73326e-08
-1.58731e-07
-6.34936e-08
-1.75001e-06
7.82018e-07
-1.31825e-06
1.80077e-06
-1.53548e-09
9.35195e-07
-7.18919e-07
9.69024e-08
-6.19107e-07
-4.59523e-07
4.44822e-07
1.72996e-07
6.5786e-07
5.9235e-07
3.2133e-07
3.52687e-07
2.70521e-07
2.21209e-10
2.68696e-07
2.03574e-07
2.52961e-07
2.41632e-07
2.01461e-07
1.9573e-07
2.0623e-07
2.87526e-07
-1.69025e-07
2.70391e-07
-1.45136e-07
2.84123e-07
-1.13372e-07
2.67214e-07
-1.10967e-07
2.23732e-07
-1.34522e-07
1.55256e-07
-1.73568e-07
7.11756e-08
-2.11773e-07
-3.75839e-09
-2.09983e-07
-1.75431e-07
-3.84227e-07
3.03573e-07
3.8445e-07
5.5208e-07
2.30511e-07
2.16032e-07
1.65315e-07
3.7746e-08
4.97544e-07
1.42955e-07
4.28397e-07
2.90804e-07
-1.5709e-07
-1.70206e-07
-1.87e-07
-4.80172e-07
1.56189e-07
-1.24169e-08
2.6804e-07
2.46632e-07
2.62447e-07
2.3583e-07
2.96169e-07
3.13208e-07
-3.46575e-08
2.40473e-07
-2.99222e-07
2.17549e-07
-2.96381e-07
2.41369e-07
-2.75719e-07
2.53311e-07
-2.64336e-07
2.44634e-07
-2.63759e-07
2.18556e-07
-2.57903e-07
1.79057e-07
-2.3405e-07
1.84723e-07
-3.80697e-08
-6.05836e-08
2.14693e-07
3.28542e-07
4.04348e-07
4.71161e-07
4.39773e-07
5.26249e-07
5.11645e-07
4.51785e-07
4.03163e-07
2.96719e-07
-1.43055e-07
-2.48095e-07
-2.50683e-07
-5.06844e-07
3.63195e-08
-3.26501e-07
4.65443e-08
-3.25797e-08
4.70332e-08
1.87771e-08
1.31984e-07
7.21422e-08
2.57766e-07
1.02533e-07
-3.05808e-08
2.31095e-08
-1.14387e-07
3.62052e-08
-1.25246e-07
8.52866e-08
-1.30392e-07
1.16012e-07
-1.46911e-07
1.45083e-07
-1.58835e-07
1.47728e-07
-1.62276e-07
1.75665e-07
-1.25515e-07
1.50926e-07
-1.55796e-08
2.40936e-07
1.53001e-07
3.35787e-07
3.14168e-07
3.93064e-07
4.611e-07
4.5891e-07
4.71202e-07
3.58383e-07
1.70895e-07
1.19335e-08
-1.5602e-08
-1.76612e-07
2.82171e-08
-3.65926e-07
-1.08511e-07
-2.88489e-07
-2.05422e-07
-3.07591e-07
-1.15018e-07
-2.86279e-07
2.69141e-07
-1.43731e-07
3.51108e-07
-1.60059e-07
2.82451e-07
-2.0205e-07
2.61419e-07
-1.83567e-07
2.47302e-07
-1.77758e-07
2.20257e-07
-1.5634e-07
1.80139e-07
-1.58861e-07
1.3183e-07
-1.36377e-07
9.62836e-08
-1.22336e-07
1.83946e-07
-5.66322e-08
2.46146e-07
1.75001e-08
2.85959e-07
1.18943e-07
3.03773e-07
2.40048e-07
3.24356e-07
3.50643e-07
3.02528e-07
2.91332e-07
2.12353e-07
1.72701e-07
1.35961e-07
-8.01351e-08
-1.67102e-08
-2.40943e-07
-2.17985e-07
-3.45398e-07
-1.68135e-07
-3.50864e-07
7.64159e-08
-2.32616e-07
4.00522e-07
-1.29614e-07
4.3728e-07
-1.79496e-07
4.4125e-07
-2.16804e-07
4.44701e-07
-2.62392e-07
4.39461e-07
-2.97822e-07
4.14047e-07
-3.48505e-07
3.70885e-07
-3.8168e-07
3.15339e-07
-3.99207e-07
2.41436e-07
1.59901e-07
-7.15121e-08
2.24116e-07
-3.98192e-08
2.58999e-07
1.07131e-08
2.52746e-07
9.15507e-08
2.42169e-07
1.69248e-07
2.17232e-07
2.05931e-07
1.75803e-07
1.86577e-07
1.49529e-07
1.35763e-07
1.3977e-08
-3.5595e-08
-9.60677e-08
-5.25122e-08
-8.53549e-08
-1.92075e-08
-3.988e-08
1.58143e-07
8.23681e-08
2.26517e-07
9.65821e-08
2.30569e-07
6.65385e-08
2.23749e-07
3.71889e-08
2.10011e-07
-8.79177e-09
1.85982e-07
-5.50332e-08
1.48587e-07
-1.18035e-07
1.01242e-07
-1.62255e-07
5.92952e-08
-2.14619e-07
1.30484e-07
-7.10266e-08
1.9171e-07
-5.95443e-08
2.25101e-07
-4.89723e-08
2.14426e-07
-2.11595e-08
1.79677e-07
2.03666e-08
1.35159e-07
6.02517e-08
9.97964e-08
9.87447e-08
8.89317e-08
1.30071e-07
8.01635e-08
1.11284e-07
5.97487e-08
1.02054e-07
5.68e-08
1.23732e-07
6.3207e-08
1.68438e-07
8.41358e-08
2.04515e-07
7.63031e-08
2.08174e-07
5.36544e-08
2.15703e-07
2.31017e-08
2.01862e-07
-1.48852e-08
1.8977e-07
-6.03381e-08
1.53158e-07
-1.12608e-07
1.24072e-07
-1.64163e-07
1.01772e-07
-1.84796e-07
1.08905e-07
-7.15015e-08
1.54123e-07
-7.38527e-08
1.7558e-07
-8.15385e-08
1.64107e-07
-7.89637e-08
1.3053e-07
-6.28544e-08
8.88961e-08
-3.15547e-08
5.59592e-08
1.07429e-08
4.30918e-08
5.62624e-08
4.58185e-08
8.64052e-08
4.99228e-08
1.05039e-07
4.65567e-08
1.25823e-07
4.18018e-08
1.51002e-07
3.39709e-08
1.73802e-07
2.14582e-08
1.9034e-07
3.68113e-09
2.02487e-07
-1.75498e-08
2.05522e-07
-4.47702e-08
1.99611e-07
-7.69009e-08
1.83604e-07
-1.12016e-07
1.64497e-07
-1.40321e-07
1.51385e-07
-1.65912e-07
6.68296e-08
-3.46738e-08
1.06231e-07
-3.87015e-08
1.24088e-07
-5.04523e-08
1.20131e-07
-5.98903e-08
9.8659e-08
-6.22477e-08
6.74219e-08
-5.28069e-08
3.72228e-08
-2.97188e-08
1.69031e-08
2.22315e-09
9.42348e-09
3.25362e-08
9.79287e-09
5.55651e-08
7.32142e-09
7.71951e-08
1.58981e-09
1.00514e-07
-5.40552e-09
1.24427e-07
-1.31483e-08
1.46145e-07
-2.21064e-08
1.64039e-07
-3.41287e-08
1.73559e-07
-5.1617e-08
1.73556e-07
-7.47451e-08
1.63622e-07
-1.01825e-07
1.50716e-07
-1.3471e-07
1.53051e-07
-1.42995e-07
5.97099e-08
-2.85967e-08
7.22308e-08
-2.95162e-08
7.87815e-08
-4.2637e-08
7.30044e-08
-5.56181e-08
5.79126e-08
-6.2977e-08
3.68341e-08
-6.04865e-08
1.55538e-08
-4.80354e-08
-9.94079e-10
-2.87661e-08
-1.21404e-08
-8.48107e-09
-1.68573e-08
9.4597e-09
-2.19828e-08
2.6458e-08
-3.00026e-08
4.69326e-08
-3.719e-08
6.98237e-08
-4.26723e-08
9.36811e-08
-4.77304e-08
1.15109e-07
-5.37838e-08
1.30852e-07
-6.40111e-08
1.39611e-07
-7.72892e-08
1.42073e-07
-9.33493e-08
1.42703e-07
-1.05316e-07
1.49824e-07
-1.20121e-07
-3.23668e-08
3.72821e-08
-1.31358e-08
2.71602e-08
9.39208e-09
5.82994e-09
1.64774e-08
-1.0728e-08
1.47041e-08
-2.41955e-08
6.44728e-09
-3.05426e-08
-5.60132e-09
-3.041e-08
-1.86233e-08
-2.4863e-08
-2.90696e-08
-1.52242e-08
-3.36901e-08
-7.49319e-09
-3.54263e-08
2.13312e-09
-4.07233e-08
1.50779e-08
-4.52872e-08
3.46964e-08
-4.8045e-08
5.54394e-08
-5.03909e-08
7.72268e-08
-5.38847e-08
9.38894e-08
-6.00413e-08
1.04952e-07
-6.94334e-08
1.11003e-07
-8.04156e-08
1.14696e-07
-9.78721e-08
1.28914e-07
-1.04554e-07
7.45108e-08
-9.64956e-08
8.65793e-08
-8.99997e-08
1.03332e-07
-9.40427e-08
1.06533e-07
-9.99707e-08
9.91916e-08
-1.02201e-07
8.6154e-08
-9.84742e-08
6.70955e-08
-8.6819e-08
4.30347e-08
-6.78694e-08
1.8694e-08
-4.27696e-08
-6.86953e-09
-1.69144e-08
-2.76722e-08
5.40012e-09
-5.36688e-08
2.72034e-08
-7.19668e-08
4.9973e-08
-8.97317e-08
7.24563e-08
-9.8811e-08
9.28351e-08
-1.09287e-07
1.10256e-07
-1.18893e-07
1.24345e-07
-1.22542e-07
1.3693e-07
-1.2433e-07
1.45474e-07
-1.26071e-07
1.53996e-07
-1.29915e-07
-2.14075e-08
-9.94079e-09
-3.27124e-08
2.14099e-08
-1.81326e-08
3.099e-08
-1.68267e-08
3.65726e-08
-1.81776e-08
3.53323e-08
-1.84485e-08
3.48951e-08
-1.58278e-08
2.78082e-08
-1.0469e-08
2.23223e-08
-2.08783e-09
1.2881e-08
7.05662e-09
7.0902e-09
1.57393e-08
-1.26793e-09
2.54898e-08
-8.61878e-09
3.66604e-08
-1.77126e-08
4.8414e-08
-2.46004e-08
6.00252e-08
-3.22673e-08
7.148e-08
-4.60472e-08
8.12935e-08
-4.35007e-08
9.55999e-08
-5.0492e-08
1.01995e-07
-5.74464e-08
1.09711e-07
-6.61486e-08
1.22677e-07
2.78034e-08
-5.22544e-08
3.97195e-09
-2.39606e-08
1.45672e-08
-5.26309e-09
1.27737e-08
4.99529e-09
7.83086e-09
1.08134e-08
5.03851e-09
1.40285e-08
3.66227e-09
1.42477e-08
5.40219e-09
1.2671e-08
9.41867e-09
9.7468e-09
1.37223e-08
7.68763e-09
1.85764e-08
4.82192e-09
2.43774e-08
4.70995e-10
3.37211e-08
-5.24075e-09
4.25152e-08
-1.15283e-08
5.46594e-08
-1.57607e-08
6.2395e-08
-2.70505e-08
7.63933e-08
-2.4906e-08
8.63372e-08
-2.79922e-08
9.44692e-08
-3.60669e-08
9.54805e-08
-4.92882e-08
9.54139e-08
-4.87007e-08
-8.95282e-10
-6.11016e-08
2.91523e-08
-4.54863e-08
4.65247e-08
-4.2293e-08
5.31415e-08
-4.24864e-08
5.29081e-08
-4.14076e-08
4.92788e-08
-3.73201e-08
4.22844e-08
-2.96447e-08
3.24924e-08
-1.84681e-08
2.17089e-08
-5.54799e-09
9.2163e-09
6.53985e-09
-2.86664e-09
1.71429e-08
-1.76769e-08
2.72112e-08
-2.98247e-08
3.63426e-08
-4.33238e-08
4.61032e-08
-5.76008e-08
5.77705e-08
-6.03846e-08
7.20437e-08
-6.44676e-08
8.70445e-08
-5.68687e-08
9.68627e-08
-5.4432e-08
9.85943e-08
-6.91988e-08
9.30377e-08
8.10512e-09
-4.16392e-08
-1.74356e-08
-2.36153e-08
6.21845e-09
-9.6428e-09
1.45393e-08
-6.01744e-09
1.88895e-08
-5.5969e-09
1.91773e-08
-5.2074e-09
1.98211e-08
-3.28711e-09
1.78546e-08
5.8437e-10
1.66934e-08
6.15299e-09
1.34294e-08
1.16293e-08
1.08909e-08
1.7169e-08
5.9408e-09
2.26009e-08
1.04464e-09
2.78388e-08
-6.92866e-09
3.37161e-08
-1.74735e-08
3.93732e-08
-1.98474e-08
5.1039e-08
-2.59262e-08
6.1103e-08
-2.0724e-08
7.3931e-08
-1.87472e-08
7.80326e-08
-2.38317e-08
7.88652e-08
-3.65554e-08
-2.37444e-08
-1.97159e-08
-3.81051e-08
-2.76638e-09
-1.75984e-08
7.24921e-09
-5.19166e-09
8.93794e-09
1.20347e-09
5.78459e-09
4.49306e-09
3.89328e-09
6.60024e-09
2.8231e-09
7.59182e-09
4.12401e-09
8.13572e-09
7.61896e-09
8.07101e-09
1.05299e-08
7.72752e-09
1.53709e-08
6.3345e-09
2.0293e-08
3.43861e-09
2.65484e-08
5.54764e-10
2.98801e-08
-9.04781e-09
3.65866e-08
-1.13206e-08
4.22868e-08
-1.77568e-08
4.9503e-08
-1.94942e-08
5.55104e-08
-2.24e-08
5.93068e-08
-2.88329e-08
6.23125e-08
-3.69113e-08
3.0628e-09
-3.53185e-08
-7.71469e-09
-3.6093e-08
1.06752e-08
-2.47004e-08
2.24321e-08
-2.17125e-08
2.60078e-08
-2.14717e-08
2.57601e-08
-2.08585e-08
2.32611e-08
-1.84509e-08
1.92068e-08
-1.39898e-08
1.47932e-08
-7.46272e-09
8.92163e-09
-7.68477e-11
3.5126e-09
6.76377e-09
-2.34988e-09
1.35237e-08
-9.51091e-09
1.95282e-08
-1.84067e-08
2.58632e-08
-2.3122e-08
3.26581e-08
-3.06004e-08
4.09689e-08
-3.12187e-08
4.8363e-08
-3.27667e-08
5.48524e-08
-3.44816e-08
5.75502e-08
-3.86957e-08
5.95376e-08
-4.36807e-08
-1.69321e-08
-1.36196e-08
-2.79434e-08
-1.25848e-08
-1.55508e-08
6.67534e-10
-6.5429e-09
6.46112e-09
-4.13941e-09
7.75373e-09
-3.85723e-09
8.64965e-09
-3.53543e-09
8.03369e-09
-2.37881e-09
8.36078e-09
2.54234e-10
7.205e-09
4.61629e-09
6.9224e-09
7.80333e-09
7.00794e-09
1.33081e-08
4.41064e-09
1.95094e-08
4.35164e-09
2.50188e-08
3.20535e-09
3.23874e-08
-6.01484e-10
3.81102e-08
-5.30622e-10
4.49152e-08
-3.35936e-09
4.74659e-08
-7.83103e-09
4.86916e-08
-1.45341e-08
4.67225e-08
-2.24468e-08
5.0319e-08
-1.92536e-09
-1.65105e-08
-1.17424e-08
-2.29839e-08
-2.84111e-09
-1.13774e-08
3.43846e-09
-4.51499e-09
3.45467e-09
-1.25952e-09
1.8715e-09
6.97615e-10
1.69906e-10
1.91259e-09
3.28771e-10
2.95783e-09
1.72826e-09
4.38335e-09
2.91069e-09
3.54974e-09
6.30997e-09
3.64869e-09
9.55235e-09
4.30098e-09
1.3079e-08
-1.3712e-10
1.81045e-08
5.00755e-10
2.24912e-08
-2.95712e-09
2.68903e-08
-5.12817e-09
3.09393e-08
-8.99137e-09
3.37048e-08
-1.30038e-08
3.52076e-08
-1.76003e-08
3.53366e-08
-2.38171e-08
3.88682e-08
-8.22629e-09
-3.1486e-09
-2.02589e-08
-4.13277e-09
-1.94993e-08
5.60029e-09
-1.33035e-08
1.12868e-08
-1.21352e-08
1.24482e-08
-1.2062e-08
1.1646e-08
-1.12942e-08
1.06969e-08
-9.63741e-09
8.78167e-09
-6.39448e-09
5.82593e-09
-2.325e-09
4.59497e-09
1.0894e-09
7.96267e-10
4.79291e-09
-3.93222e-09
8.2638e-09
-6.70632e-09
1.15166e-08
-1.221e-08
1.49763e-08
-1.5987e-08
1.82847e-08
-1.86247e-08
2.26364e-08
-2.13988e-08
2.57609e-08
-2.39952e-08
2.90209e-08
-2.68171e-08
3.02999e-08
-2.87847e-08
3.19295e-08
4.53888e-11
-5.73712e-09
-5.75299e-09
-1.42816e-08
-5.56152e-09
-7.50282e-09
9.76134e-10
-3.2246e-09
3.33527e-09
-2.39227e-09
3.5462e-09
-2.0228e-09
4.2684e-09
-1.99042e-09
4.39643e-09
-4.3893e-10
4.11836e-09
1.71245e-09
5.14404e-09
2.43693e-09
2.92943e-09
3.5931e-09
6.55067e-10
4.39529e-09
-2.34148e-09
5.22128e-09
-6.25842e-09
6.54308e-09
-1.00892e-08
9.13806e-09
-1.18022e-08
1.17133e-08
-1.46648e-08
1.46039e-08
-1.66874e-08
1.68939e-08
-1.98211e-08
1.92992e-08
-2.18607e-08
2.03122e-08
-2.59644e-08
-2.07013e-09
-2.97688e-10
-8.15428e-09
-4.59777e-09
-1.13571e-08
-1.68946e-10
-5.40236e-09
2.57114e-09
-2.10704e-09
1.98549e-09
-3.15507e-10
7.92627e-10
6.52133e-10
7.21087e-10
1.70152e-09
5.10416e-10
2.84252e-09
6.9575e-10
1.45541e-09
1.69569e-09
9.12854e-10
1.67109e-09
-4.3788e-10
2.63196e-09
-3.18928e-09
4.63245e-09
-4.35751e-09
7.62263e-09
-4.22171e-09
1.05649e-08
-5.76509e-09
1.28098e-08
-7.71272e-09
1.45016e-08
-1.10595e-08
1.61153e-08
-1.37481e-08
1.7739e-08
-1.62654e-08
1.91007e-08
-2.00474e-08
1.78769e-09
-8.64409e-10
1.6478e-10
-1.02665e-08
-9.29666e-10
-9.91683e-09
3.76242e-09
-6.8969e-09
6.3323e-09
-6.2562e-09
6.72021e-09
-5.89997e-09
6.76579e-09
-5.5024e-09
5.77307e-09
-4.3205e-09
4.2831e-09
-3.21327e-09
3.29062e-09
-2.22536e-09
1.88605e-10
-1.29126e-09
-3.46057e-09
-5.37435e-11
-4.98575e-09
2.3773e-09
-8.07173e-09
5.01198e-09
-8.78473e-09
8.21258e-09
-9.80371e-09
1.04683e-08
-1.07603e-08
1.25172e-08
-1.28507e-08
1.41758e-08
-1.45898e-08
1.65481e-08
-1.60321e-08
1.73963e-08
-1.7944e-08
7.40761e-10
1.39356e-09
-2.63806e-09
-2.41897e-09
-7.19367e-09
-3.86911e-09
-3.19612e-09
-4.36141e-11
-1.30959e-09
1.28594e-09
-1.03036e-09
1.89311e-09
-1.21031e-09
1.9484e-09
-9.32221e-10
1.78166e-09
-1.11855e-09
1.73109e-09
-1.35481e-09
-4.26951e-10
-1.1208e-09
-1.6571e-09
-1.11571e-09
-2.71554e-09
4.68565e-11
-5.03088e-09
1.9021e-09
-4.82454e-09
4.80455e-09
-5.00207e-09
6.90362e-09
-5.5483e-09
8.62838e-09
-6.7019e-09
9.73429e-09
-7.93761e-09
1.09213e-08
-9.905e-09
1.11758e-08
-1.16085e-08
1.36254e-08
2.16008e-09
1.27999e-09
5.46254e-10
-4.20278e-09
-5.51868e-09
-3.34822e-09
-3.32569e-09
-5.64967e-11
-1.33826e-09
1.02802e-09
-9.39234e-10
1.30513e-09
-7.84558e-10
1.57442e-09
-1.31574e-09
1.32664e-09
-1.2687e-09
3.04931e-10
-1.33891e-09
4.60783e-11
-1.94831e-09
-2.0986e-09
-1.77736e-09
-3.67543e-09
-1.2078e-09
-4.83152e-09
2.37346e-10
-5.68941e-09
2.04389e-09
-6.27042e-09
3.72326e-09
-6.60224e-09
5.05441e-09
-7.09107e-09
6.11467e-09
-7.48757e-09
7.18273e-09
-8.54749e-09
8.05433e-09
-9.79577e-09
1.07394e-08
1.52379e-09
1.40741e-09
-5.6778e-10
-2.27994e-09
-3.0987e-09
-5.4826e-09
-2.20732e-10
-2.54183e-09
1.16391e-09
-9.27546e-10
9.46957e-10
1.19751e-11
2.35119e-10
4.02977e-10
-5.57867e-11
6.39847e-10
-6.59146e-10
7.09452e-10
-1.10969e-09
-6.12584e-10
-1.29178e-09
-1.36127e-09
-1.61193e-09
-2.76968e-09
-1.17804e-09
-4.26915e-09
-4.51005e-10
-5.21658e-09
9.78554e-10
-5.72462e-09
2.14936e-09
-6.07236e-09
3.20503e-09
-6.18619e-09
3.68402e-09
-6.74822e-09
4.67143e-09
-7.36284e-09
5.70688e-09
-8.33225e-09
8.10972e-09
2.02182e-09
1.5484e-09
4.88792e-10
-1.32255e-09
-4.7177e-09
-7.44974e-10
-4.51774e-09
1.89372e-09
-3.03866e-09
3.17365e-09
-2.83358e-09
3.36905e-09
-2.78352e-09
3.38328e-09
-2.77466e-09
2.8733e-09
-2.55962e-09
2.09692e-09
-2.51319e-09
1.2974e-09
-2.44213e-09
-3.49456e-10
-2.17573e-09
-1.7655e-09
-1.46111e-09
-2.89608e-09
-1.79482e-10
-3.64102e-09
1.11864e-09
-4.11559e-09
2.21508e-09
-4.25565e-09
2.73184e-09
-4.61605e-09
2.83023e-09
-4.53184e-09
2.72422e-09
-5.78569e-09
3.18966e-09
-6.72368e-09
5.70211e-09
1.56413e-09
1.12285e-09
1.3891e-10
-1.01908e-09
-1.85719e-09
-3.37615e-09
-1.6126e-09
-1.21001e-09
2.4059e-10
-4.51242e-10
7.66932e-10
-4.96616e-10
1.0138e-09
-7.1996e-10
1.07363e-09
-7.27675e-10
1.12521e-09
-9.19429e-10
1.07315e-09
-1.03767e-09
3.63768e-10
-9.90645e-10
1.508e-10
-4.78906e-10
-3.58522e-10
2.97951e-10
-8.69382e-10
1.30005e-09
-1.43341e-09
2.0825e-09
-1.95471e-09
2.55873e-09
-2.38845e-09
2.54605e-09
-2.3644e-09
2.33965e-09
-2.83986e-09
2.60179e-09
-3.03848e-09
3.60934e-09
-4.34992e-09
1.65371e-09
1.26711e-09
6.54288e-10
-7.76415e-10
-2.10283e-09
-2.57659e-09
-1.3646e-09
-1.29604e-09
1.7269e-10
-5.29776e-10
5.54859e-10
-5.54212e-10
6.39274e-10
-5.94777e-10
8.26969e-10
-8.35741e-10
8.03069e-10
-8.96634e-10
5.25457e-10
-1.11338e-09
2.82832e-10
-1.22376e-09
-2.26175e-10
-1.04098e-09
-7.17601e-10
-3.73737e-10
-1.07043e-09
5.62917e-10
-1.28587e-09
1.3483e-09
-1.58035e-09
1.89077e-09
-1.66636e-09
1.88729e-09
-1.24405e-09
1.52821e-09
-1.44055e-09
1.47947e-09
-1.09183e-09
2.19171e-09
-2.17998e-09
1.18273e-09
9.44994e-10
3.20125e-10
-3.8096e-10
-1.51023e-09
-1.51592e-09
-2.39596e-09
-4.07084e-11
-9.86642e-10
4.57258e-10
-3.12371e-10
2.2399e-10
1.31104e-10
-1.64972e-10
4.23399e-10
-3.60548e-10
6.23629e-10
-7.3519e-10
6.48087e-10
-1.0146e-09
3.06984e-10
-1.25586e-09
2.86485e-11
-1.14005e-09
-1.67988e-10
-6.87339e-10
-3.51539e-10
-5.23079e-12
-6.72884e-10
6.27057e-10
-8.44563e-10
9.61684e-10
-8.67429e-10
8.39909e-10
-8.22866e-10
9.68848e-11
1.7139e-11
-6.36609e-10
-4.15824e-10
2.38732e-10
-4.82619e-10
1.25065e-09
1.11196e-09
6.31107e-10
-3.35947e-10
-8.15854e-10
-2.27644e-09
-3.69404e-10
-2.11385e-09
9.28016e-10
-1.53699e-09
1.55732e-09
-1.5721e-09
1.71274e-09
-1.62998e-09
1.82652e-09
-1.64021e-09
1.67502e-09
-1.50763e-09
1.5145e-09
-1.36851e-09
1.41263e-09
-1.16863e-09
1.15298e-09
-9.46352e-10
9.77077e-10
-5.95573e-10
5.97765e-10
-1.33394e-10
1.09803e-10
3.76856e-10
-2.79407e-10
7.50652e-10
-5.90557e-10
8.93304e-10
-6.30409e-10
4.08365e-10
6.28385e-11
-2.78806e-10
-1.20585e-10
-1.338e-10
3.15699e-10
8.65016e-10
7.85165e-10
5.62605e-10
-9.36347e-11
-7.40995e-10
-1.09281e-09
-1.67398e-09
-8.34153e-10
-6.65596e-10
8.49645e-11
-3.44063e-10
4.00824e-10
-4.03799e-10
6.07465e-10
-5.48193e-10
6.97645e-10
-5.49757e-10
8.12768e-10
-5.72556e-10
9.08207e-10
-5.77135e-10
7.10297e-10
-5.19432e-10
7.82064e-10
-3.39141e-10
6.55792e-10
-4.21267e-11
4.76556e-10
4.00832e-10
3.07014e-10
8.20428e-10
2.30259e-11
1.0697e-09
1.72932e-11
8.71777e-10
3.24965e-10
2.91179e-10
4.15314e-10
-3.66151e-10
1.24295e-09
-3.97329e-10
1.02075e-09
1.02711e-09
4.21865e-10
3.85979e-11
-6.962e-10
-1.07806e-09
-1.31181e-09
-9.11093e-10
-6.2754e-10
-8.89597e-11
-3.23491e-10
2.18595e-10
-3.82935e-10
3.37843e-10
-4.61772e-10
4.74557e-10
-6.33212e-10
4.26953e-10
-7.72885e-10
2.0028e-10
-9.61315e-10
8.038e-11
-1.20107e-09
-2.38902e-10
-1.3606e-09
-5.24895e-10
-1.30186e-09
-5.80267e-10
-1.00185e-09
-6.97161e-10
-4.67538e-10
-8.68811e-10
2.19786e-10
-9.66929e-10
8.22203e-10
-1.13145e-09
1.08788e-09
-1.18761e-09
6.61294e-10
-7.3662e-10
4.7892e-11
5.01275e-10
5.56186e-10
4.47858e-10
-2.14773e-10
-2.91201e-10
-8.79496e-10
-1.32141e-09
-9.79901e-10
-6.74781e-10
-2.59081e-10
-4.37336e-10
8.91564e-11
-4.76587e-10
3.44123e-10
-6.32969e-10
4.42019e-10
-8.95226e-10
3.59704e-10
-1.25843e-09
1.72174e-10
-1.62187e-09
-2.86183e-10
-1.89672e-09
-5.83512e-10
-1.9728e-09
-5.91576e-10
-1.88111e-09
-5.08928e-10
-1.68134e-09
-3.09731e-10
-1.40796e-09
-2.59703e-10
-9.95175e-10
-2.81244e-10
-5.75932e-10
-2.65723e-10
-3.20097e-10
-2.67059e-10
-1.46599e-10
-1.30873e-10
-7.63732e-11
1.45012e-09
7.56468e-10
2.81033e-10
9.35834e-11
-9.76675e-10
-7.84994e-10
-1.45652e-09
-9.36327e-10
-1.08555e-09
-4.95756e-10
-8.11053e-10
-3.16678e-10
-7.28265e-10
-2.04739e-10
-8.18364e-10
-2.05156e-10
-1.02812e-09
-3.46463e-10
-1.35197e-09
-6.05973e-10
-1.63983e-09
-7.46857e-10
-1.86365e-09
-6.93716e-10
-1.90232e-09
-5.04727e-10
-1.87242e-09
-1.24774e-10
-1.69526e-09
7.73549e-11
-1.34783e-09
3.07877e-10
-7.01816e-10
2.56419e-10
2.0823e-10
-2.54918e-11
1.11964e-09
-1.62491e-10
1.59785e-09
-3.76135e-10
1.41743e-09
5.7745e-10
9.33159e-10
4.93351e-10
-8.46506e-10
-2.81205e-10
-1.59415e-09
-9.78486e-10
-1.79134e-09
-7.67712e-10
-1.39761e-09
-7.83601e-10
-1.17853e-09
-9.30789e-10
-9.9401e-10
-9.92315e-10
-7.82869e-10
-1.04877e-09
-6.12732e-10
-1.05629e-09
-4.69573e-10
-1.07259e-09
-3.2411e-10
-1.06002e-09
-5.98574e-11
-1.12952e-09
2.11513e-10
-1.26576e-09
6.1997e-10
-1.54295e-09
1.10178e-09
-1.86824e-09
1.4799e-09
-2.15404e-09
2.03496e-09
-2.28948e-09
2.26925e-09
-2.15263e-09
2.6823e-09
-1.2884e-09
2.75559e-09
-1.16955e-10
1.12548e-09
8.7879e-10
1.03834e-11
-2.03825e-10
-1.16163e-09
-7.43249e-10
-1.76578e-09
-6.90246e-10
-1.70014e-09
-5.77368e-10
-1.85361e-09
-7.35238e-10
-2.01135e-09
-9.34834e-10
-2.06316e-09
-1.18327e-09
-1.95917e-09
-1.33675e-09
-1.71147e-09
-1.42709e-09
-1.3093e-09
-1.41234e-09
-8.44043e-10
-1.46029e-09
-3.41714e-10
-1.4874e-09
1.26231e-10
-1.73149e-09
5.57303e-10
-2.03812e-09
9.44304e-10
-2.52415e-09
1.33555e-09
-3.38044e-09
1.68693e-09
-4.07916e-09
1.90535e-09
-5.54612e-09
9.91373e-10
-5.94807e-09
-6.15964e-10
8.85871e-12
6.29447e-11
-5.41913e-11
-2.60036e-10
-2.36745e-10
-5.30451e-10
-3.3804e-10
-6.3931e-10
-3.47903e-10
-8.76462e-10
-4.60807e-10
-1.28487e-09
-6.54478e-10
-1.80416e-09
-9.22195e-10
-2.37938e-09
-1.28677e-09
-2.91984e-09
-1.67347e-09
-3.36218e-09
-2.0995e-09
-3.71988e-09
-2.51074e-09
-4.02132e-09
-2.8621e-09
-4.33802e-09
-3.11515e-09
-4.69521e-09
-3.25373e-09
-5.11608e-09
-3.18724e-09
-5.5454e-09
-3.10601e-09
-5.9001e-09
-2.74992e-09
-6.07758e-09
-2.49998e-09
-6.09001e-09
-2.24859e-09
-5.08563e-09
-1.50159e-09
3.12813e-05
-3.75065e-06
4.4617e-06
2.77103e-06
3.10995e-06
1.49892e-06
7.68912e-07
6.23813e-07
-7.08844e-07
4.52688e-07
-1.24401e-06
1.09123e-06
7.40903e-07
-1.76008e-06
7.27196e-07
-1.01397e-06
2.79751e-07
-3.50074e-08
-1.00408e-06
7.74892e-07
-1.98482e-06
-8.22219e-07
-4.9786e-07
-8.0559e-07
-4.19799e-07
-3.75089e-06
1.96411e-06
-9.54898e-07
-8.52067e-07
-1.85457e-06
2.31297e-07
-4.13129e-07
-1.36008e-07
-4.63935e-07
-4.48743e-07
-4.50705e-07
-5.29422e-07
-3.07417e-07
-1.28624e-06
8.73382e-07
-7.14086e-07
-1.18224e-06
6.30544e-07
-8.07524e-07
1.76276e-07
-6.85503e-07
-7.48272e-07
-2.35277e-07
1.30315e-07
-1.12693e-06
3.46887e-07
-3.94762e-07
4.59756e-07
-8.97361e-07
-1.75223e-06
2.71466e-06
-8.87629e-07
1.57414e-06
-2.67638e-08
1.0036e-06
2.24928e-07
7.76503e-07
6.46103e-07
8.39658e-07
-1.55877e-07
6.06616e-07
-8.81313e-07
2.66068e-07
-1.74312e-07
3.06111e-07
-6.94094e-07
4.09489e-08
-4.22443e-08
5.49154e-08
-1.44625e-06
-7.20396e-06
-4.05305e-06
-3.18995e-06
-2.39988e-06
-1.92158e-06
-1.73645e-06
-1.58283e-06
-1.82483e-06
-1.56425e-06
-1.69667e-06
-1.45246e-06
-1.00174e-06
-1.59503e-06
-5.42908e-07
-1.02905e-06
-5.05802e-07
-6.42129e-07
-9.19488e-07
-3.17254e-07
-1.07382e-06
-6.73269e-07
-6.33457e-07
-7.42911e-07
-3.62591e-07
-1.33991e-06
1.85217e-07
-5.67932e-07
-4.59058e-07
-5.60251e-07
-2.40057e-07
-2.75089e-07
-3.49372e-07
-4.80303e-07
-3.61897e-07
-5.22669e-07
-4.12159e-07
-2.26114e-07
-3.3387e-07
1.1071e-07
-2.25117e-07
-9.18642e-08
1.7876e-07
-1.31576e-07
8.30241e-09
-2.25574e-07
-1.79486e-07
-3.97183e-07
-2.89523e-07
-6.66956e-07
-2.83303e-07
-4.79615e-07
-2.60864e-08
-4.22363e-07
-2.23206e-07
6.69978e-07
1.23954e-08
9.4666e-07
4.44181e-07
8.56733e-07
6.09944e-07
7.44631e-07
5.89463e-07
5.08701e-07
1.13687e-07
7.36e-08
-2.71737e-07
-2.01089e-08
-1.94141e-07
-1.27262e-07
-4.49408e-07
-1.06078e-07
-9.21537e-08
2.07978e-08
7.13765e-06
2.39153e-06
2.3269e-06
2.01143e-06
2.03018e-06
1.92629e-06
1.68589e-06
1.55084e-06
1.19615e-06
1.13774e-06
9.76907e-07
7.9912e-07
8.30361e-07
4.04683e-07
7.98648e-07
3.87908e-07
6.14751e-07
3.54141e-07
3.31925e-07
3.31191e-07
2.04723e-07
1.2037e-07
2.46144e-07
3.50243e-08
1.27097e-07
-4.93616e-07
4.65574e-07
-2.27378e-07
-2.24369e-07
-4.46476e-07
2.05852e-08
2.41176e-08
1.11879e-07
9.49548e-08
9.05048e-08
8.20695e-08
-3.34318e-08
-2.5838e-08
-2.3863e-07
9.27439e-08
-3.11565e-07
-3.91724e-07
-3.87707e-08
-3.15213e-07
3.33431e-08
-3.06432e-07
-5.29544e-08
-3.90959e-08
2.72696e-07
-1.54829e-07
4.44707e-07
1.64003e-07
3.93992e-07
-1.20956e-07
-2.67513e-07
4.62188e-07
-4.57703e-07
2.14942e-07
-3.43199e-07
-7.8417e-08
-2.11869e-07
-1.79482e-07
-1.08513e-07
1.40274e-07
-1.94005e-07
1.90573e-07
-1.54526e-07
2.78946e-07
2.55299e-07
2.73514e-07
-6.63976e-08
1.42153e-07
1.95537e-08
9.90898e-09
-7.36817e-07
-2.80929e-06
-2.33589e-06
-2.0522e-06
-1.64706e-06
-1.44565e-06
-1.28954e-06
-1.18162e-06
-1.16365e-06
-1.1193e-06
-1.20975e-06
-1.19019e-06
-9.36905e-07
-1.00382e-06
-5.52365e-07
-6.93581e-07
-4.48868e-07
-4.7857e-07
-5.5808e-07
-3.76293e-07
-6.26674e-07
-5.26323e-07
-5.26269e-07
-6.08524e-07
-3.69506e-07
-8.0608e-07
-1.09279e-07
-4.36276e-07
-3.83351e-07
-3.39912e-07
-1.88809e-07
-2.02837e-07
-2.4964e-07
-3.5568e-07
-2.99407e-07
-4.26566e-07
-3.37589e-07
-2.04415e-07
-2.30522e-07
-6.49137e-08
-1.98936e-07
-3.20389e-08
3.15778e-09
-1.03067e-07
-3.16672e-08
-1.85941e-07
-9.38266e-08
-3.36429e-07
-2.38283e-07
-4.87992e-07
-2.36423e-07
-3.3013e-07
-1.40222e-08
-2.43777e-07
1.67315e-08
3.19743e-07
1.10388e-07
6.41072e-07
3.83456e-07
6.16701e-07
4.73832e-07
5.10569e-07
4.41968e-07
3.87868e-07
1.48223e-07
7.30888e-08
-8.22121e-08
3.19546e-08
-7.93606e-08
-1.49662e-07
-3.29248e-07
-9.96121e-08
-1.12436e-07
-1.27098e-09
1.62921e-06
9.43219e-07
6.53573e-07
6.81997e-07
7.01271e-07
7.72758e-07
7.05197e-07
7.69941e-07
7.19587e-07
6.98965e-07
5.08078e-07
3.86703e-07
4.42314e-07
3.75093e-07
5.00275e-07
3.57033e-07
4.3918e-07
3.33808e-07
4.06542e-07
2.78503e-07
3.83698e-07
2.35817e-07
3.09584e-07
2.08817e-07
2.09059e-07
2.94974e-08
2.08922e-07
-3.97143e-08
-1.10164e-07
-1.87371e-07
1.13509e-08
7.28874e-08
1.05538e-07
1.32334e-07
9.37629e-08
1.09023e-07
3.23635e-08
9.63748e-08
-8.83147e-08
1.58174e-08
-2.16774e-07
-1.78486e-07
-1.23144e-07
-1.88689e-07
1.05255e-08
-1.53876e-07
2.09392e-08
-6.99513e-09
2.07842e-07
-3.57302e-08
3.0846e-07
1.76227e-07
2.86657e-07
-4.40347e-08
-6.93806e-08
1.72797e-07
-2.93991e-07
5.02207e-08
-2.57833e-07
-1.32511e-07
-2.37178e-07
-2.67763e-07
-1.55546e-07
2.97613e-08
-1.81641e-07
9.10342e-08
-7.32113e-08
1.9865e-07
2.09421e-07
1.59235e-07
2.60626e-09
1.49421e-07
5.4103e-08
3.77921e-08
-9.39493e-08
-5.97834e-07
-8.62569e-07
-8.54223e-07
-8.44399e-07
-7.87669e-07
-7.57616e-07
-6.97005e-07
-6.88057e-07
-7.58243e-07
-8.0871e-07