/*--------------------------------*- C++ -*----------------------------------*\
| =========                 |                                                 |
| \\      /  F ield         | OpenFOAM: The Open Source CFD Toolbox           |
|  \\    /   O peration     | Version:  2312                                  |
|   \\  /    A nd           | Website:  www.openfoam.com                      |
|    \\/     M anipulation  |                                                 |
\*---------------------------------------------------------------------------*/
FoamFile
{
    version     2.0;
    format      ascii;
    arch        "LSB;label=32;scalar=64";
    class       volScalarField;
    location    "249";
    object      magR;
}
// * * * * * * * * * * * * * * * * * * * * * * * * * * * * * * * * * * * * * //

dimensions      [0 2 -2 0 0 0 0];

internalField   nonuniform List<scalar> 
11040
(
0.10392
0.269179
0.590628
1.13695
1.9684
3.22502
4.77416
6.01273
6.66344
6.91413
6.99473
7.01272
6.99676
6.94553
6.85273
6.71925
6.54942
6.34929
6.12372
5.87616
5.60201
5.31655
5.05084
4.81689
4.60746
4.41157
4.22389
4.04271
3.86648
3.69324
3.52089
3.34719
3.16988
2.98585
2.79126
2.58303
2.35537
2.10706
1.80873
1.52226
0.97776
0.0375278
0.0446573
0.0494757
0.0471736
0.0510003
0.0730373
0.121316
0.188728
0.262552
0.332274
0.3915
0.43939
0.477186
0.507071
0.532313
0.554583
0.57454
0.592109
0.607436
0.620745
0.634056
0.644138
0.644947
0.63745
0.626639
0.61552
0.605076
0.595358
0.586401
0.578249
0.571023
0.564891
0.56002
0.556738
0.555559
0.557057
0.562063
0.571791
0.589051
0.61516
0.682462
0.0255213
0.0199242
0.0127013
0.0131299
0.0151218
0.0151829
0.0141766
0.0128329
0.0114159
0.010139
0.00843684
0.00619277
0.00815934
0.0204126
0.0405948
0.0678941
0.101596
0.14052
0.183116
0.227524
0.272359
0.315288
0.353034
0.383743
0.407667
0.426078
0.439945
0.450191
0.457649
0.463016
0.466805
0.469437
0.471264
0.472534
0.473625
0.474914
0.477348
0.480717
0.491225
0.500178
0.571561
0.0167721
0.0160006
0.0149293
0.0140859
0.0127927
0.0110984
0.00940422
0.00787045
0.00647736
0.00516529
0.00395866
0.0028962
0.00202584
0.00137942
0.00102386
0.00117767
0.00206165
0.00396473
0.00752135
0.013533
0.023131
0.0367025
0.0531315
0.071641
0.0918624
0.113435
0.135904
0.158779
0.18168
0.204326
0.226552
0.248305
0.269614
0.290685
0.311835
0.333366
0.355996
0.379916
0.409842
0.436906
0.512101
0.0112633
0.0113033
0.0104219
0.00871664
0.00673657
0.00531014
0.0046471
0.00442858
0.00432567
0.00417253
0.0039421
0.00365693
0.00333151
0.00299671
0.00267049
0.00235958
0.00206571
0.00179037
0.00153576
0.00130511
0.00109364
0.000878911
0.00066263
0.000748144
0.0015912
0.00323262
0.00579065
0.00941618
0.0142682
0.0205226
0.0283842
0.0380969
0.0499355
0.0643163
0.0817696
0.102941
0.128732
0.160524
0.202184
0.248305
0.345432
0.00753703
0.00786225
0.00782331
0.00744894
0.00682695
0.00611182
0.00539952
0.00474128
0.00415421
0.00363267
0.00316715
0.00274765
0.00235466
0.00198769
0.00165582
0.00136293
0.00111127
0.000904532
0.000745783
0.000638327
0.000572416
0.000524208
0.000477842
0.000439202
0.000413293
0.000396214
0.000386534
0.000387544
0.000406966
0.000458725
0.000568568
0.000784528
0.00119401
0.00196023
0.00336009
0.00583149
0.0100416
0.0171826
0.0300446
0.0486566
0.101689
0.0051178
0.0054362
0.00558206
0.00552087
0.00515939
0.00457305
0.00391263
0.00330709
0.00282059
0.00246485
0.00222133
0.00205947
0.00194714
0.00185413
0.00176308
0.00166937
0.00157315
0.00147625
0.00138036
0.00128621
0.00119197
0.00109025
0.000983611
0.000888315
0.000813982
0.000755221
0.000705644
0.000662323
0.000623507
0.00058738
0.000552282
0.000516877
0.000480479
0.000443668
0.000409429
0.000387213
0.000394683
0.000478599
0.000864647
0.00164583
0.00834689
0.00350664
0.00375467
0.00392227
0.00404124
0.00400904
0.00382822
0.00355631
0.00324767
0.0029364
0.00263947
0.00236429
0.00211386
0.00188875
0.00168555
0.00149963
0.00133189
0.00118246
0.00105006
0.000933279
0.000831095
0.000742573
0.00066546
0.000598308
0.000544677
0.00050821
0.000486295
0.000474319
0.000469379
0.00047014
0.000475655
0.000485023
0.00049726
0.000511125
0.000524626
0.00053464
0.000536712
0.000523804
0.00048236
0.000427537
0.000295019
0.000321788
0.00242249
0.00260462
0.00273046
0.00287118
0.00294182
0.00290706
0.00277824
0.00258351
0.00235433
0.00211728
0.00189252
0.00169131
0.00152002
0.00138223
0.00127662
0.0011958
0.00113089
0.00107568
0.00102595
0.000978639
0.000930156
0.00087827
0.000823553
0.000770463
0.000725455
0.000689586
0.000660536
0.000636661
0.000617472
0.000602773
0.000592366
0.000586137
0.000584034
0.000586146
0.000592324
0.000602265
0.000614328
0.000623188
0.000626188
0.000587978
0.000501044
0.00168164
0.00181395
0.00189618
0.00201407
0.00211324
0.00216108
0.00215289
0.00209598
0.00200242
0.00188594
0.00175813
0.0016268
0.00149754
0.00137453
0.00125947
0.00115215
0.00105258
0.000961498
0.000878757
0.000803286
0.000734973
0.000673826
0.000618452
0.000569601
0.000529992
0.000500044
0.000478077
0.000462414
0.000452178
0.0004469
0.000446202
0.000449741
0.000457234
0.000468553
0.00048351
0.00050186
0.000523299
0.00054657
0.000572518
0.000589645
0.000599539
0.0011714
0.00126746
0.00131773
0.00140262
0.00148968
0.00155485
0.00158981
0.00159168
0.00156166
0.00150497
0.00142912
0.00134138
0.00124837
0.0011561
0.00106934
0.000991519
0.000924243
0.000866925
0.00081759
0.000774082
0.000733927
0.000696303
0.000660899
0.000627703
0.000598674
0.000574888
0.000555801
0.000540394
0.000528007
0.000518302
0.000511021
0.000505908
0.000502732
0.000501221
0.000501098
0.000502011
0.000503548
0.000504426
0.000505043
0.000499284
0.000497282
0.000817806
0.000887184
0.000917072
0.000974562
0.00104054
0.0010999
0.00114702
0.0011779
0.00119001
0.00118328
0.00116017
0.00112393
0.00107798
0.00102584
0.000970582
0.000914417
0.00085871
0.000804167
0.000751385
0.000700792
0.000653179
0.000609823
0.000570512
0.000534723
0.00050332
0.000476935
0.000455371
0.000437998
0.000424283
0.000413877
0.000406506
0.000401889
0.000399719
0.000399724
0.000401536
0.000404606
0.00040825
0.000411467
0.000413217
0.000409911
0.000405211
0.000571808
0.000621371
0.000639097
0.000676938
0.000723324
0.000769019
0.000811022
0.000846449
0.000872189
0.000886198
0.000888066
0.000878519
0.000858987
0.000831503
0.000798357
0.000761835
0.000724079
0.000686766
0.000651061
0.000617351
0.000585533
0.000556379
0.000530097
0.00050612
0.000484841
0.00046663
0.000451427
0.000438858
0.00042849
0.000419953
0.00041292
0.000407063
0.000402054
0.000397491
0.000392976
0.000388086
0.000382333
0.000375036
0.000365594
0.000352409
0.000338811
0.00040006
0.000435062
0.000445749
0.000470402
0.000501882
0.000534526
0.000567069
0.000598021
0.00062525
0.000646831
0.000661621
0.000669157
0.000669485
0.000663171
0.000651126
0.000634447
0.000614248
0.000591487
0.000566932
0.000541151
0.000514919
0.000489684
0.000466056
0.000443818
0.000423314
0.00040484
0.000388477
0.000374103
0.000361538
0.000350596
0.000341095
0.000332839
0.00032563
0.000319258
0.000313473
0.000307969
0.000302381
0.00029635
0.000289331
0.000280312
0.000271288
0.000279925
0.000304261
0.000310928
0.000326955
0.000347916
0.000370301
0.000393638
0.00041729
0.000440016
0.000460468
0.000477566
0.000490546
0.000498917
0.000502496
0.000501417
0.000496082
0.000487106
0.000475194
0.000461073
0.000445383
0.000428686
0.000412173
0.000396519
0.00038161
0.000367712
0.000355025
0.000343624
0.000333458
0.000324393
0.000316265
0.000308898
0.000302082
0.000295596
0.000289183
0.000282594
0.000275614
0.000268007
0.000259502
0.000249896
0.000238751
0.000228106
0.00019585
0.000212459
0.000216825
0.000227236
0.000241007
0.000256001
0.000272074
0.000288998
0.000306129
0.000322681
0.000337938
0.000351298
0.00036225
0.000370408
0.000375561
0.000377679
0.000376891
0.000373433
0.000367618
0.000359777
0.00035029
0.000339984
0.00032941
0.000318651
0.000308015
0.000297707
0.000287835
0.000278437
0.000269509
0.000261009
0.000252871
0.000245041
0.000237452
0.000230024
0.00022269
0.000215382
0.000208015
0.000200541
0.00019283
0.000184718
0.000177159
0.000137456
0.000148559
0.000151607
0.000158388
0.000167356
0.000177269
0.000188087
0.000199729
0.000211863
0.000224063
0.000235903
0.000246994
0.000256953
0.000265427
0.000272133
0.000276887
0.000279608
0.00028031
0.000279089
0.000276097
0.000271483
0.0002658
0.000259553
0.000252874
0.000246013
0.000239149
0.000232397
0.000225821
0.000219455
0.000213298
0.000207331
0.000201504
0.000195777
0.000190059
0.000184259
0.00017833
0.00017223
0.000165875
0.000159222
0.000152244
0.000145637
9.81007e-05
0.000105466
0.000107705
0.000112251
0.000118193
0.000124835
0.000132173
0.000140162
0.000148625
0.000157331
0.000166044
0.00017454
0.000182579
0.000189916
0.000196327
0.000201627
0.000205678
0.000208395
0.000209746
0.000209752
0.000208431
0.000206052
0.000202902
0.000199084
0.000194792
0.000190169
0.000185317
0.000180308
0.000175191
0.000169996
0.000164741
0.000159427
0.000154065
0.000148655
0.000143201
0.000137714
0.000132227
0.000126769
0.000121328
0.000115947
0.000110848
7.19274e-05
7.69062e-05
7.85666e-05
8.17235e-05
8.58021e-05
9.03957e-05
9.55083e-05
0.00010111
0.000107093
0.000113324
0.000119664
0.000125977
0.000132113
0.000137908
0.000143199
0.000147839
0.000151701
0.000154684
0.00015672
0.000157774
0.000157797
0.000156915
0.000155324
0.000153114
0.000150433
0.000147397
0.000144097
0.000140604
0.000136976
0.000133254
0.000129468
0.000125639
0.000121784
0.000117904
0.000114002
0.000110091
0.000106178
0.00010224
9.82821e-05
9.43275e-05
9.05363e-05
5.41359e-05
5.75601e-05
5.88153e-05
6.10629e-05
6.39395e-05
6.72003e-05
7.08475e-05
7.48554e-05
7.91543e-05
8.36601e-05
8.82851e-05
9.29456e-05
9.75477e-05
0.000101985
0.000106147
0.00010993
0.000113236
0.00011598
0.000118093
0.000119531
0.000120229
0.000120235
0.000119653
0.000118537
0.000116982
0.000115068
0.000112858
0.000110407
0.000107763
0.000104961
0.000102035
9.90063e-05
9.59035e-05
9.2741e-05
8.95313e-05
8.62961e-05
8.30709e-05
7.9854e-05
7.66494e-05
7.3501e-05
7.04652e-05
4.15664e-05
4.39547e-05
4.49106e-05
4.65357e-05
4.86055e-05
5.09681e-05
5.36203e-05
5.65393e-05
5.96762e-05
6.29746e-05
6.63759e-05
6.98247e-05
7.3259e-05
7.66072e-05
7.97947e-05
8.27469e-05
8.53923e-05
8.76642e-05
8.95042e-05
9.08673e-05
9.1691e-05
9.19847e-05
9.18124e-05
9.12102e-05
9.02451e-05
8.89755e-05
8.74525e-05
8.5723e-05
8.38281e-05
8.1803e-05
7.96781e-05
7.74777e-05
7.52281e-05
7.29427e-05
7.06349e-05
6.83237e-05
6.60335e-05
6.37542e-05
6.14977e-05
5.92675e-05
5.71923e-05
3.24323e-05
3.41184e-05
3.48525e-05
3.60444e-05
3.75604e-05
3.93029e-05
4.12646e-05
4.34246e-05
4.57474e-05
4.81928e-05
5.07194e-05
5.3289e-05
5.5859e-05
5.83803e-05
6.08014e-05
6.30704e-05
6.51363e-05
6.69498e-05
6.84665e-05
6.965e-05
7.04501e-05
7.0863e-05
7.09255e-05
7.0658e-05
7.0104e-05
6.93024e-05
6.82885e-05
6.70959e-05
6.57549e-05
6.42921e-05
6.27314e-05
6.10919e-05
5.9396e-05
5.76566e-05
5.58849e-05
5.40959e-05
5.23158e-05
5.0537e-05
4.87731e-05
4.70028e-05
4.53983e-05
2.56369e-05
2.68378e-05
2.74041e-05
2.82883e-05
2.94146e-05
3.07184e-05
3.21895e-05
3.38094e-05
3.5551e-05
3.73845e-05
3.92795e-05
4.12082e-05
4.314e-05
4.50401e-05
4.6872e-05
4.85987e-05
5.01835e-05
5.15904e-05
5.27859e-05
5.37413e-05
5.44167e-05
5.48046e-05
5.49284e-05
5.48006e-05
5.44506e-05
5.39063e-05
5.3194e-05
5.23398e-05
5.1368e-05
5.03003e-05
4.91565e-05
4.79533e-05
4.67092e-05
4.5435e-05
4.41407e-05
4.28388e-05
4.1549e-05
4.02625e-05
3.89946e-05
3.77122e-05
3.66162e-05
2.04838e-05
2.13451e-05
2.17834e-05
2.24459e-05
2.32934e-05
2.42815e-05
2.53983e-05
2.66277e-05
2.79485e-05
2.9338e-05
3.0773e-05
3.22326e-05
3.36943e-05
3.51326e-05
3.65213e-05
3.78335e-05
3.9043e-05
4.01237e-05
4.10509e-05
4.18036e-05
4.23523e-05
4.26905e-05
4.28341e-05
4.27904e-05
4.25795e-05
4.22206e-05
4.17324e-05
4.11334e-05
4.04414e-05
3.96724e-05
3.8841e-05
3.79594e-05
3.70418e-05
3.60966e-05
3.51312e-05
3.41543e-05
3.31829e-05
3.22092e-05
3.12481e-05
3.02516e-05
2.94539e-05
1.65129e-05
1.71333e-05
1.74733e-05
1.79742e-05
1.8619e-05
1.93759e-05
2.02329e-05
2.11756e-05
2.21873e-05
2.32502e-05
2.43464e-05
2.54595e-05
2.65725e-05
2.76664e-05
2.87218e-05
2.97192e-05
3.06392e-05
3.14628e-05
3.21721e-05
3.27512e-05
3.31784e-05
3.3449e-05
3.35747e-05
3.356e-05
3.3419e-05
3.31655e-05
3.28131e-05
3.23759e-05
3.18673e-05
3.12994e-05
3.06837e-05
3.00299e-05
2.93489e-05
2.86473e-05
2.79311e-05
2.72072e-05
2.64883e-05
2.57679e-05
2.50594e-05
2.43167e-05
2.37642e-05
1.34112e-05
1.38592e-05
1.41235e-05
1.45054e-05
1.50008e-05
1.55865e-05
1.62504e-05
1.69801e-05
1.77622e-05
1.85824e-05
1.94266e-05
2.02819e-05
2.11352e-05
2.1972e-05
2.27778e-05
2.35382e-05
2.42389e-05
2.48659e-05
2.54062e-05
2.58485e-05
2.61769e-05
2.63889e-05
2.64937e-05
2.64943e-05
2.64007e-05
2.6223e-05
2.59711e-05
2.56553e-05
2.52852e-05
2.48701e-05
2.44181e-05
2.39365e-05
2.34333e-05
2.29135e-05
2.23814e-05
2.18419e-05
2.13048e-05
2.07649e-05
2.02341e-05
1.96643e-05
1.92767e-05
1.096e-05
1.12839e-05
1.14896e-05
1.17832e-05
1.21675e-05
1.26248e-05
1.31437e-05
1.37134e-05
1.4323e-05
1.4961e-05
1.5616e-05
1.62778e-05
1.69362e-05
1.758e-05
1.81982e-05
1.87798e-05
1.93144e-05
1.97917e-05
2.02022e-05
2.05374e-05
2.07861e-05
2.09471e-05
2.1028e-05
2.1031e-05
2.09631e-05
2.08318e-05
2.06447e-05
2.04092e-05
2.01327e-05
1.98219e-05
1.94831e-05
1.91217e-05
1.87438e-05
1.83532e-05
1.79533e-05
1.75476e-05
1.71436e-05
1.6737e-05
1.6338e-05
1.59052e-05
1.56328e-05
9.00362e-06
9.23752e-06
9.39807e-06
9.62561e-06
9.92655e-06
1.02867e-05
1.06955e-05
1.1144e-05
1.16228e-05
1.21228e-05
1.26347e-05
1.31503e-05
1.36615e-05
1.41597e-05
1.46365e-05
1.50835e-05
1.54929e-05
1.58571e-05
1.61692e-05
1.64232e-05
1.66109e-05
1.67323e-05
1.67939e-05
1.67972e-05
1.67474e-05
1.66503e-05
1.65114e-05
1.63363e-05
1.61304e-05
1.58988e-05
1.5646e-05
1.53762e-05
1.50938e-05
1.48015e-05
1.4502e-05
1.41977e-05
1.38943e-05
1.35884e-05
1.32885e-05
1.29574e-05
1.27681e-05
7.42861e-06
7.59713e-06
7.72286e-06
7.90082e-06
8.13858e-06
8.42459e-06
8.74934e-06
9.10496e-06
9.48388e-06
9.87845e-06
1.02812e-05
1.06856e-05
1.1085e-05
1.14728e-05
1.18423e-05
1.21875e-05
1.25023e-05
1.27811e-05
1.30189e-05
1.32113e-05
1.33525e-05
1.3443e-05
1.34885e-05
1.349e-05
1.34515e-05
1.33773e-05
1.32716e-05
1.31386e-05
1.29824e-05
1.28066e-05
1.26149e-05
1.24101e-05
1.21956e-05
1.19735e-05
1.17458e-05
1.15143e-05
1.12831e-05
1.10499e-05
1.08213e-05
1.0567e-05
1.04317e-05
6.15116e-06
6.2721e-06
6.37105e-06
6.51162e-06
6.70122e-06
6.93025e-06
7.19021e-06
7.47433e-06
7.7763e-06
8.08982e-06
8.40881e-06
8.72788e-06
9.04184e-06
9.34542e-06
9.63357e-06
9.90148e-06
1.01447e-05
1.03591e-05
1.0541e-05
1.06872e-05
1.07936e-05
1.08611e-05
1.08947e-05
1.0895e-05
1.08651e-05
1.08083e-05
1.07278e-05
1.06268e-05
1.05084e-05
1.03752e-05
1.02301e-05
1.00751e-05
9.91268e-06
9.74456e-06
9.57207e-06
9.39667e-06
9.22128e-06
9.04425e-06
8.87081e-06
8.67573e-06
8.58067e-06
5.10834e-06
5.1947e-06
5.27311e-06
5.38537e-06
5.53803e-06
5.72298e-06
5.93268e-06
6.16132e-06
6.40363e-06
6.65439e-06
6.90863e-06
7.16197e-06
7.41025e-06
7.64931e-06
7.87523e-06
8.08434e-06
8.2733e-06
8.43898e-06
8.57875e-06
8.69035e-06
8.77073e-06
8.82115e-06
8.84575e-06
8.84499e-06
8.82123e-06
8.7771e-06
8.71502e-06
8.63738e-06
8.54649e-06
8.44445e-06
8.33322e-06
8.21448e-06
8.09003e-06
7.96113e-06
7.82881e-06
7.69416e-06
7.55931e-06
7.42309e-06
7.28956e-06
7.13885e-06
7.0694e-06
4.25229e-06
4.31358e-06
4.37631e-06
4.46707e-06
4.59124e-06
4.74186e-06
4.91231e-06
5.09762e-06
5.29337e-06
5.49524e-06
5.69915e-06
5.90154e-06
6.09906e-06
6.28843e-06
6.46661e-06
6.63078e-06
6.77843e-06
6.90724e-06
7.0153e-06
7.10103e-06
7.16222e-06
7.20015e-06
7.2184e-06
7.21726e-06
7.19858e-06
7.16442e-06
7.11664e-06
7.05708e-06
6.98748e-06
6.90943e-06
6.82441e-06
6.73368e-06
6.63859e-06
6.54009e-06
6.43898e-06
6.33604e-06
6.23283e-06
6.12856e-06
6.02634e-06
5.91037e-06
5.8605e-06
3.54615e-06
3.58938e-06
3.6402e-06
3.71458e-06
3.81663e-06
3.94034e-06
4.07995e-06
4.23121e-06
4.39039e-06
4.55394e-06
4.71851e-06
4.88118e-06
5.03927e-06
5.1902e-06
5.33159e-06
5.46128e-06
5.57739e-06
5.67821e-06
5.76235e-06
5.82872e-06
5.87571e-06
5.90454e-06
5.91828e-06
5.91711e-06
5.90245e-06
5.87592e-06
5.83899e-06
5.79304e-06
5.7394e-06
5.67929e-06
5.6138e-06
5.54392e-06
5.47064e-06
5.3947e-06
5.31669e-06
5.23722e-06
5.15739e-06
5.07671e-06
4.99751e-06
4.9077e-06
4.87024e-06
2.96124e-06
2.99159e-06
3.03342e-06
3.09528e-06
3.18004e-06
3.28251e-06
3.39772e-06
3.52202e-06
3.65233e-06
3.78567e-06
3.91931e-06
4.05086e-06
4.17818e-06
4.29922e-06
4.41213e-06
4.51527e-06
4.60723e-06
4.68674e-06
4.75283e-06
4.80472e-06
4.84128e-06
4.86362e-06
4.87433e-06
4.87355e-06
4.86236e-06
4.84207e-06
4.81382e-06
4.77867e-06
4.73764e-06
4.69164e-06
4.64153e-06
4.58804e-06
4.53192e-06
4.47373e-06
4.41393e-06
4.35298e-06
4.29167e-06
4.22969e-06
4.16879e-06
4.09965e-06
4.07237e-06
2.47506e-06
2.49635e-06
2.53143e-06
2.58366e-06
2.6548e-06
2.74039e-06
2.83613e-06
2.93897e-06
3.0463e-06
3.15568e-06
3.26486e-06
3.37191e-06
3.47509e-06
3.57279e-06
3.66358e-06
3.74619e-06
3.81959e-06
3.88283e-06
3.93524e-06
3.97628e-06
4.00514e-06
4.02279e-06
4.03143e-06
4.03112e-06
4.02271e-06
4.00725e-06
3.98561e-06
3.95864e-06
3.9271e-06
3.8917e-06
3.8531e-06
3.81186e-06
3.76855e-06
3.72359e-06
3.67736e-06
3.63019e-06
3.58265e-06
3.53458e-06
3.48723e-06
3.43375e-06
3.41236e-06
2.06977e-06
2.08481e-06
2.11485e-06
2.15961e-06
2.21992e-06
2.29196e-06
2.37206e-06
2.45766e-06
2.54658e-06
2.63683e-06
2.72655e-06
2.81419e-06
2.89834e-06
2.97774e-06
3.05126e-06
3.11795e-06
3.17702e-06
3.22782e-06
3.26986e-06
3.30281e-06
3.32608e-06
3.34051e-06
3.34797e-06
3.34848e-06
3.34271e-06
3.33149e-06
3.31551e-06
3.29541e-06
3.27177e-06
3.24515e-06
3.21604e-06
3.18486e-06
3.15205e-06
3.11793e-06
3.08278e-06
3.04687e-06
3.01061e-06
2.97389e-06
2.93771e-06
2.89669e-06
2.88177e-06
1.73113e-06
1.74201e-06
1.76828e-06
1.80716e-06
1.85873e-06
1.91975e-06
1.98716e-06
2.0588e-06
2.13288e-06
2.20774e-06
2.28189e-06
2.35404e-06
2.42309e-06
2.48804e-06
2.54802e-06
2.6023e-06
2.6503e-06
2.69152e-06
2.72565e-06
2.75246e-06
2.77152e-06
2.78351e-06
2.79e-06
2.79098e-06
2.78699e-06
2.77868e-06
2.76661e-06
2.7513e-06
2.73319e-06
2.71274e-06
2.69031e-06
2.66626e-06
2.6409e-06
2.61452e-06
2.58731e-06
2.5595e-06
2.53135e-06
2.50287e-06
2.47465e-06
2.44319e-06
2.43001e-06
1.4477e-06
1.45594e-06
1.47941e-06
1.51357e-06
1.55795e-06
1.60986e-06
1.66679e-06
1.72698e-06
1.78896e-06
1.85137e-06
1.91298e-06
1.97273e-06
2.02973e-06
2.0832e-06
2.13249e-06
2.17705e-06
2.21645e-06
2.25036e-06
2.27855e-06
2.30092e-06
2.31717e-06
2.32789e-06
2.33438e-06
2.33664e-06
2.33506e-06
2.33014e-06
2.32233e-06
2.31198e-06
2.29945e-06
2.28504e-06
2.26904e-06
2.25172e-06
2.23332e-06
2.21404e-06
2.19405e-06
2.17349e-06
2.15261e-06
2.13138e-06
2.11038e-06
2.08639e-06
2.07948e-06
1.21018e-06
1.21688e-06
1.23822e-06
1.26851e-06
1.30691e-06
1.35121e-06
1.39936e-06
1.44996e-06
1.50185e-06
1.55397e-06
1.60534e-06
1.6551e-06
1.70249e-06
1.74688e-06
1.78772e-06
1.82461e-06
1.85724e-06
1.88536e-06
1.9088e-06
1.92748e-06
1.94114e-06
1.9502e-06
1.95576e-06
1.9578e-06
1.95667e-06
1.95281e-06
1.9466e-06
1.93836e-06
1.9284e-06
1.91699e-06
1.90436e-06
1.89073e-06
1.8763e-06
1.86122e-06
1.84563e-06
1.82965e-06
1.81339e-06
1.79698e-06
1.78049e-06
1.76281e-06
1.75312e-06
1.01109e-06
1.01696e-06
1.03655e-06
1.06348e-06
1.09675e-06
1.13462e-06
1.17545e-06
1.21804e-06
1.26146e-06
1.30488e-06
1.34759e-06
1.38896e-06
1.42845e-06
1.46555e-06
1.49979e-06
1.53081e-06
1.55836e-06
1.58231e-06
1.60261e-06
1.6193e-06
1.63227e-06
1.64189e-06
1.64903e-06
1.65362e-06
1.65584e-06
1.65598e-06
1.65425e-06
1.65085e-06
1.64595e-06
1.63975e-06
1.6324e-06
1.62405e-06
1.61488e-06
1.605e-06
1.59452e-06
1.58355e-06
1.57225e-06
1.56058e-06
1.54908e-06
1.53504e-06
1.53518e-06
8.44399e-07
8.49939e-07
8.67965e-07
8.91708e-07
9.20194e-07
9.52259e-07
9.86699e-07
1.02259e-06
1.05913e-06
1.09555e-06
1.13118e-06
1.16552e-06
1.19819e-06
1.22892e-06
1.25745e-06
1.2835e-06
1.3068e-06
1.32706e-06
1.34409e-06
1.35774e-06
1.36784e-06
1.37466e-06
1.379e-06
1.38097e-06
1.38087e-06
1.37905e-06
1.37581e-06
1.37142e-06
1.36607e-06
1.35995e-06
1.35322e-06
1.34599e-06
1.33836e-06
1.33043e-06
1.32225e-06
1.3139e-06
1.30537e-06
1.29687e-06
1.28794e-06
1.27984e-06
1.26944e-06
7.05085e-07
7.107e-07
7.27437e-07
7.48269e-07
7.72216e-07
7.98556e-07
8.2658e-07
8.55846e-07
8.8597e-07
9.16462e-07
9.46711e-07
9.76074e-07
1.00397e-06
1.03e-06
1.05395e-06
1.07585e-06
1.09582e-06
1.11403e-06
1.13059e-06
1.14557e-06
1.15886e-06
1.17048e-06
1.18081e-06
1.18958e-06
1.19671e-06
1.20224e-06
1.20621e-06
1.20869e-06
1.20976e-06
1.20953e-06
1.20812e-06
1.20565e-06
1.20227e-06
1.19808e-06
1.19321e-06
1.18772e-06
1.18184e-06
1.17542e-06
1.16937e-06
1.15963e-06
1.16866e-06
5.88736e-07
5.94526e-07
6.10048e-07
6.28449e-07
6.48754e-07
6.70333e-07
6.9253e-07
7.15054e-07
7.37882e-07
7.61087e-07
7.84707e-07
8.08638e-07
8.32542e-07
8.5583e-07
8.77749e-07
8.97534e-07
9.14562e-07
9.2845e-07
9.39085e-07
9.46619e-07
9.51137e-07
9.53153e-07
9.53469e-07
9.52508e-07
9.50646e-07
9.48204e-07
9.45433e-07
9.42519e-07
9.39591e-07
9.36733e-07
9.33994e-07
9.31403e-07
9.28952e-07
9.26656e-07
9.24481e-07
9.22454e-07
9.20389e-07
9.18658e-07
9.15957e-07
9.17027e-07
9.00403e-07
4.91707e-07
4.97168e-07
5.10526e-07
5.25856e-07
5.42794e-07
5.61093e-07
5.80059e-07
5.99024e-07
6.17437e-07
6.34924e-07
6.51395e-07
6.67095e-07
6.82545e-07
6.9838e-07
7.15177e-07
7.33306e-07
7.52848e-07
7.73588e-07
7.9509e-07
8.16763e-07
8.38059e-07
8.58333e-07
8.7731e-07
8.94353e-07
9.09147e-07
9.21592e-07
9.31682e-07
9.39477e-07
9.45096e-07
9.48697e-07
9.50461e-07
9.50566e-07
9.49226e-07
9.46595e-07
9.42854e-07
9.38098e-07
9.32708e-07
9.26306e-07
9.20905e-07
9.08091e-07
9.30195e-07
4.11781e-07
4.16671e-07
4.26968e-07
4.3732e-07
4.48078e-07
4.60088e-07
4.73811e-07
4.89519e-07
5.07115e-07
5.25962e-07
5.44937e-07
5.62662e-07
5.77797e-07
5.89327e-07
5.96764e-07
6.00196e-07
6.00198e-07
5.97639e-07
5.93443e-07
5.88572e-07
5.83201e-07
5.77843e-07
5.72815e-07
5.68526e-07
5.65035e-07
5.62322e-07
5.60413e-07
5.5937e-07
5.59242e-07
5.60051e-07
5.61802e-07
5.64485e-07
5.68046e-07
5.72462e-07
5.77641e-07
5.8357e-07
5.89922e-07
5.97289e-07
6.02995e-07
6.17952e-07
5.8914e-07
3.47916e-07
3.53752e-07
3.63592e-07
3.71408e-07
3.76743e-07
3.80269e-07
3.82694e-07
3.84939e-07
3.8812e-07
3.93504e-07
4.02444e-07
4.16211e-07
4.35708e-07
4.61191e-07
4.92147e-07
5.2738e-07
5.65264e-07
6.0402e-07
6.42022e-07
6.77715e-07
7.10759e-07
7.40605e-07
7.66734e-07
7.88758e-07
8.06845e-07
8.21314e-07
8.32501e-07
8.40734e-07
8.46326e-07
8.49562e-07
8.50691e-07
8.4992e-07
8.47466e-07
8.43448e-07
8.38058e-07
8.31357e-07
8.23779e-07
8.14627e-07
8.07066e-07
7.89056e-07
8.20678e-07
2.98276e-07
3.05753e-07
3.1765e-07
3.28752e-07
3.37396e-07
3.42739e-07
3.4411e-07
3.41418e-07
3.35256e-07
3.26777e-07
3.17531e-07
3.09246e-07
3.03516e-07
3.01459e-07
3.0344e-07
3.09007e-07
3.17088e-07
3.26352e-07
3.35558e-07
3.43875e-07
3.50355e-07
3.54743e-07
3.55887e-07
3.54638e-07
3.51693e-07
3.47588e-07
3.42924e-07
3.38356e-07
3.34489e-07
3.3181e-07
3.3068e-07
3.31339e-07
3.33918e-07
3.38427e-07
3.44814e-07
3.52991e-07
3.62732e-07
3.74216e-07
3.85517e-07
4.04865e-07
3.94685e-07
2.59123e-07
2.6247e-07
2.69317e-07
2.85808e-07
3.19208e-07
3.71038e-07
4.36533e-07
5.08924e-07
5.82257e-07
6.52083e-07
7.15332e-07
7.70025e-07
8.15071e-07
8.50072e-07
8.75189e-07
8.91028e-07
8.98515e-07
8.98768e-07
8.93009e-07
8.82295e-07
8.68011e-07
8.54958e-07
8.40552e-07
8.26239e-07
8.12727e-07
8.00378e-07
7.89371e-07
7.79722e-07
7.71292e-07
7.63842e-07
7.57074e-07
7.5067e-07
7.44291e-07
7.37489e-07
7.30196e-07
7.2222e-07
7.13166e-07
7.02767e-07
6.89895e-07
6.8246e-07
6.54715e-07
0.172745
0.141561
0.122017
0.120018
0.128003
0.133676
0.134836
0.132672
0.127957
0.121156
0.112756
0.103175
0.0927214
0.0816432
0.0701528
0.0584332
0.0466593
0.0350273
0.0237985
0.0137235
0.00870783
0.0142792
0.0232921
0.0325126
0.041328
0.0495174
0.0569476
0.0635311
0.0692261
0.0739916
0.0777846
0.0805701
0.0823229
0.0830377
0.0827375
0.0814579
0.0792415
0.0761395
0.0722133
0.0675394
0.0622128
0.0563457
0.0500664
0.0435193
0.0368663
0.0302899
0.0239878
0.0181656
0.0130223
0.00872406
0.00537098
0.00297222
0.00143199
0.000569298
0.000163913
2.33693e-05
8.74159e-07
1.99919e-07
5.68254e-07
1.63817e-06
2.63771e-06
2.44916e-06
1.25511e-06
1.31074e-07
9.05347e-07
1.22906e-06
1.22679e-06
1.08456e-06
9.13672e-07
7.60303e-07
6.44167e-07
5.44549e-07
4.99139e-07
4.61411e-07
0.634852
0.505229
0.436325
0.402013
0.377496
0.355578
0.334741
0.314602
0.294969
0.275735
0.256877
0.238392
0.220278
0.202523
0.185101
0.168001
0.151227
0.134781
0.118679
0.102982
0.0877103
0.072941
0.0587161
0.0450697
0.0320617
0.0198235
0.00888353
0.00595136
0.0145187
0.0235685
0.0319493
0.0394779
0.046066
0.0516666
0.0562664
0.0598569
0.0624307
0.0639889
0.0645413
0.0641197
0.0627764
0.0605755
0.0575896
0.0539009
0.0496014
0.0447982
0.0396152
0.034193
0.0286892
0.0232788
0.0181465
0.0134783
0.00944281
0.00616207
0.00368736
0.00198233
0.000929288
0.000359824
9.91375e-05
1.34304e-05
6.22108e-07
7.34693e-08
2.88409e-07
9.36664e-07
1.71008e-06
1.86063e-06
1.21993e-06
2.51046e-07
6.29402e-07
1.1172e-06
1.28354e-06
1.21255e-06
1.09893e-06
8.55967e-07
0.627856
0.569509
0.524848
0.494877
0.465943
0.438637
0.413813
0.390954
0.369596
0.349465
0.330342
0.312032
0.294371
0.277222
0.260477
0.244042
0.22784
0.211798
0.195907
0.180151
0.16452
0.149116
0.13397
0.119096
0.10452
0.0902822
0.0764314
0.0630437
0.0502137
0.0379957
0.0264381
0.0156293
0.00593632
0.00512572
0.0131212
0.020756
0.0276023
0.0335691
0.0386017
0.0426817
0.0458132
0.0480065
0.0492775
0.0496518
0.0491633
0.047864
0.0458219
0.0431158
0.0398343
0.0360769
0.0319561
0.0275992
0.0231515
0.0187718
0.014626
0.0108751
0.00765383
0.00504918
0.00308609
0.00172151
0.000857871
0.000367823
0.000123235
2.47062e-05
2.18676e-06
6.48459e-08
2.93663e-08
1.82128e-07
6.15072e-07
1.10909e-06
1.23077e-06
8.62721e-07
2.39265e-07
6.99824e-07
0.523127
0.456102
0.408407
0.380164
0.35613
0.335445
0.318571
0.304602
0.292772
0.282618
0.273747
0.265792
0.258433
0.251394
0.244437
0.237362
0.230009
0.222259
0.214021
0.205194
0.195782
0.185798
0.175295
0.164397
0.153213
0.141802
0.130206
0.118469
0.106657
0.0948451
0.0831046
0.0715129
0.0601466
0.0491154
0.0385346
0.028483
0.0190253
0.0102502
0.00263634
0.00577375
0.0123135
0.018227
0.0233976
0.0277805
0.0313434
0.0340818
0.0360071
0.0371387
0.0375028
0.0371353
0.0360815
0.0343999
0.0321635
0.0294584
0.0263836
0.0230519
0.0195897
0.0161328
0.0128201
0.00978314
0.00712941
0.00492964
0.00320997
0.00195009
0.00109136
0.000551984
0.000243025
8.40282e-05
1.75584e-05
1.66483e-06
4.56125e-08
8.10824e-11
9.1907e-09
2.74276e-07
0.322368
0.252822
0.20422
0.176169
0.155993
0.14097
0.130418
0.123132
0.118249
0.115308
0.113997
0.114058
0.115277
0.117464
0.120433
0.123988
0.127918
0.131999
0.135989
0.139656
0.142763
0.145029
0.146282
0.146339
0.145113
0.142622
0.138928
0.134133
0.128365
0.121768
0.114484
0.106645
0.0983711
0.0897718
0.0809606
0.0720406
0.0631
0.0542219
0.0454748
0.0369672
0.0287929
0.0210202
0.0137096
0.00693902
0.00125225
0.0051626
0.0101519
0.0145744
0.0183771
0.0215327
0.0240219
0.0258421
0.0270054
0.0275332
0.0274546
0.0268079
0.0256423
0.0240189
0.0220126
0.0197128
0.0172204
0.0146428
0.012089
0.00966273
0.00745317
0.00552681
0.00392305
0.00265219
0.00169711
0.00101907
0.000568285
0.000284983
0.000132717
2.07487e-05
0.0922123
0.0635072
0.0439265
0.0332902
0.0262076
0.0211424
0.0176906
0.0153359
0.0137168
0.0126585
0.0120645
0.0118753
0.0120643
0.0126319
0.0135998
0.0150063
0.0169033
0.0193512
0.0224124
0.0261416
0.0305727
0.0357189
0.0415379
0.0479299
0.0547141
0.061665
0.0684516
0.0747593
0.0803075
0.0848611
0.0882245
0.0902922
0.0910346
0.0904864
0.0887343
0.0859006
0.0821253
0.0775561
0.0723325
0.0665961
0.0604871
0.0541349
0.0476511
0.0411368
0.0346698
0.0283553
0.0222746
0.0164847
0.0110325
0.00596902
0.00143169
0.0030093
0.00672078
0.010004
0.0128198
0.0151474
0.0169725
0.0182877
0.0190998
0.0194272
0.019298
0.0187499
0.01783
0.0165956
0.0151129
0.0134546
0.0116976
0.00991856
0.00819058
0.00657337
0.00512701
0.00383847
0.00289885
0.00166407
0.00724979
0.00377154
0.00174075
0.000897211
0.000488594
0.000266343
0.0001519
9.23443e-05
5.91924e-05
3.99233e-05
2.85473e-05
2.17925e-05
1.7898e-05
1.59847e-05
1.57049e-05
1.71391e-05
2.09059e-05
2.85607e-05
4.35521e-05
7.33154e-05
0.000133455
0.00025474
0.000489669
0.000908811
0.00158164
0.00256791
0.00396349
0.00587497
0.00839804
0.0115961
0.015486
0.0200053
0.0250174
0.0303226
0.0356764
0.0408122
0.0454754
0.0494466
0.0525571
0.0546987
0.0558267
0.0559538
0.0551377
0.0534684
0.05105
0.0480005
0.0444456
0.0405078
0.0362996
0.0319248
0.0274704
0.0230318
0.018693
0.0145161
0.010548
0.00682776
0.00339554
0.000450313
0.00258766
0.00504703
0.00718598
0.00898927
0.010447
0.0115539
0.0123109
0.0127263
0.0128191
0.0126162
0.0121529
0.0114655
0.0106144
0.00958486
0.00866292
0.00702882
0.000265958
0.000173849
0.000108372
8.13034e-05
6.96847e-05
5.72876e-05
4.63608e-05
3.82759e-05
3.24206e-05
2.82757e-05
2.54863e-05
2.37377e-05
2.28532e-05
2.26289e-05
2.28124e-05
2.31991e-05
2.36439e-05
2.40252e-05
2.42234e-05
2.41102e-05
2.35392e-05
2.23343e-05
2.02837e-05
1.71343e-05
1.26055e-05
6.56685e-06
4.82966e-06
1.68705e-05
3.71393e-05
7.21954e-05
0.000137553
0.000263983
0.000501193
0.000909014
0.00155106
0.00250135
0.00383453
0.00560911
0.00784939
0.0105336
0.0135908
0.0169027
0.0203168
0.0236633
0.0267719
0.0294884
0.0316885
0.0332858
0.034234
0.0345249
0.0341812
0.0332517
0.0318057
0.0299243
0.0276921
0.0251915
0.0225027
0.0196939
0.016843
0.0140164
0.0112654
0.00862981
0.00614208
0.00382995
0.00171988
0.000277703
0.00187904
0.00333089
0.00456867
0.00559094
0.00639672
0.00699998
0.0073525
0.00776179
0.00047229
0.000390012
0.000291912
0.000236065
0.000207505
0.00017593
0.000144637
0.00012046
0.00010202
8.67142e-05
7.39128e-05
6.34172e-05
5.47745e-05
4.75668e-05
4.15185e-05
3.64207e-05
3.20965e-05
2.84032e-05
2.52284e-05
2.24811e-05
2.00869e-05
1.79838e-05