/*--------------------------------*- C++ -*----------------------------------*\
| =========                 |                                                 |
| \\      /  F ield         | OpenFOAM: The Open Source CFD Toolbox           |
|  \\    /   O peration     | Version:  2312                                  |
|   \\  /    A nd           | Website:  www.openfoam.com                      |
|    \\/     M anipulation  |                                                 |
\*---------------------------------------------------------------------------*/
FoamFile
{
    version     2.0;
    format      ascii;
    arch        "LSB;label=32;scalar=64";
    class       volVectorField;
    location    "249";
    object      momentError;
}
// * * * * * * * * * * * * * * * * * * * * * * * * * * * * * * * * * * * * * //

dimensions      [0 1 -2 0 0 0 0];

internalField   nonuniform List<vector> 
11040
(
(0.00168245 -0.00302458 3.28312e-15)
(-0.000741865 -0.00867803 -3.27813e-15)
(-0.00322716 -0.00371429 1.32179e-15)
(-0.00147922 -0.000463044 4.91192e-15)
(0.000623023 0.000919436 1.30068e-15)
(0.00124365 0.000861952 3.41332e-15)
(0.00129234 0.000710333 5.71952e-16)
(0.0010803 0.000615366 -7.03517e-15)
(0.000737762 0.000561957 -2.67912e-15)
(0.000399947 0.000436757 -5.19213e-16)
(0.000114798 0.000282197 1.38782e-15)
(3.20147e-05 0.000211568 2.56575e-15)
(-5.04662e-05 0.000145199 -1.028e-15)
(-0.000246804 6.70433e-05 -9.5766e-16)
(-0.000319792 3.28238e-05 -6.01317e-17)
(-0.000330781 1.25543e-05 2.18518e-16)
(-0.000316052 3.37977e-06 -1.18038e-15)
(-0.000291428 1.48361e-06 3.77782e-16)
(-0.000267782 3.129e-06 8.79081e-16)
(-0.000246694 6.16711e-06 -2.24076e-16)
(-0.000231091 9.83209e-06 -1.24885e-16)
(-0.000228773 1.43848e-05 4.36665e-16)
(-0.000225671 1.68627e-05 9.58094e-17)
(-0.000226151 1.84194e-05 -1.1717e-16)
(-0.000228305 2.00083e-05 3.50813e-16)
(-0.000231722 2.23927e-05 -8.87577e-16)
(-0.000232457 2.47001e-05 -7.54797e-16)
(-0.000234289 2.70381e-05 -1.63936e-16)
(-0.000234354 2.89671e-05 -2.9533e-16)
(-0.00023523 3.07965e-05 -5.70408e-16)
(-0.000234578 3.21907e-05 -5.3325e-17)
(-0.000234587 3.3502e-05 5.16884e-16)
(-0.000233084 3.44622e-05 7.07243e-16)
(-0.00023061 3.52268e-05 1.1532e-15)
(-0.000226811 3.59288e-05 1.87216e-16)
(-0.000221436 3.66036e-05 9.39885e-17)
(-0.00021263 3.68944e-05 3.95806e-16)
(-0.000198175 3.62577e-05 -6.82995e-17)
(-0.000177868 3.44191e-05 5.37211e-17)
(-0.000156158 3.32298e-05 2.26548e-16)
(-0.000114051 1.65771e-05 1.11872e-16)
(0.00116982 -0.00489827 -1.28662e-16)
(-0.00203839 -0.00600078 1.17868e-15)
(-0.0059229 -0.00187072 -2.16475e-15)
(-0.00443199 0.000678013 -2.23449e-15)
(-0.00320924 -0.000645129 8.35978e-16)
(-0.00299089 -0.000933368 -3.18021e-16)
(-0.00297909 -0.000707395 -1.84928e-15)
(-0.00248042 -0.000631982 1.8864e-15)
(-0.00202979 -0.000433643 2.26174e-15)
(-0.00162427 -0.000298527 2.12697e-17)
(-0.00126744 -0.000231239 -3.21838e-16)
(-0.00107507 -0.000237748 6.74093e-16)
(-0.00091608 -0.00020217 3.03697e-15)
(-0.00067549 -0.000117662 8.02869e-16)
(-0.000529285 -7.76077e-05 1.33689e-15)
(-0.000444565 -5.7798e-05 -1.06396e-15)
(-0.00039745 -4.0791e-05 5.25728e-16)
(-0.000368772 -2.59532e-05 7.03402e-16)
(-0.000346623 -1.36251e-05 3.369e-16)
(-0.000327199 -3.57629e-06 -4.62183e-17)
(-0.000307668 4.95493e-06 5.40704e-18)
(-0.00030519 1.3189e-05 -2.06876e-16)
(-0.000298697 1.6816e-05 -7.78541e-17)
(-0.000295556 1.9571e-05 5.09642e-16)
(-0.000296584 2.3346e-05 4.97456e-18)
(-0.000297605 2.78243e-05 -1.04811e-16)
(-0.000298721 3.17996e-05 -3.94965e-16)
(-0.000299361 3.51506e-05 2.00203e-16)
(-0.000300765 3.80788e-05 6.01453e-16)
(-0.000301723 4.03818e-05 -2.62582e-16)
(-0.000303076 4.235e-05 -2.70149e-16)
(-0.000303978 4.39921e-05 -5.95753e-16)
(-0.000305191 4.56754e-05 -6.37749e-16)
(-0.000305052 4.72472e-05 -3.56537e-16)
(-0.000305443 4.93485e-05 -3.22724e-17)
(-0.000305149 5.16749e-05 9.30559e-18)
(-0.000303272 5.40709e-05 -1.71423e-16)
(-0.000297483 5.56442e-05 1.51122e-16)
(-0.000287245 5.68731e-05 -1.70824e-17)
(-0.000285593 5.84452e-05 -1.30316e-17)
(-0.000233983 5.14998e-05 2.52457e-17)
(0.000557573 -0.00496191 -5.19899e-17)
(-0.00124051 -0.00508186 7.23835e-16)
(-0.00320989 -0.00365199 9.57379e-16)
(-0.00303111 -0.00223663 7.20883e-16)
(-0.00207981 -0.0014594 1.3885e-15)
(-0.00161114 -0.00101363 -1.78861e-16)
(-0.00147746 -0.000801719 1.60355e-15)
(-0.00155043 -0.000506795 2.83609e-15)
(-0.00141296 -0.000378437 7.07264e-16)
(-0.0013001 -0.000229566 -1.4332e-15)
(-0.0011716 -0.000180531 2.57843e-16)
(-0.00105886 -0.000149447 -2.0166e-15)
(-0.000974863 -0.000112768 -7.66599e-16)
(-0.000900881 -8.99967e-05 8.77199e-16)
(-0.000824791 -7.88267e-05 -1.37485e-15)
(-0.000748154 -6.39231e-05 1.36598e-15)
(-0.000675108 -4.53819e-05 1.66772e-16)
(-0.000606185 -2.7103e-05 -3.1465e-16)
(-0.000542388 -1.09685e-05 -1.72462e-16)
(-0.00048457 2.82733e-06 -1.85939e-17)
(-0.00043363 1.38328e-05 1.17702e-16)
(-0.00041487 2.55347e-05 3.67987e-16)
(-0.000396912 2.96959e-05 1.76489e-16)
(-0.00038491 3.23037e-05 -1.74624e-17)
(-0.000378886 3.59411e-05 -2.06545e-16)
(-0.000375917 4.04648e-05 -5.56892e-17)
(-0.000373563 4.44446e-05 8.50003e-16)
(-0.000372543 4.77151e-05 4.47971e-17)
(-0.000371952 5.0448e-05 -5.99883e-16)
(-0.000372 5.2431e-05 -6.73426e-17)
(-0.000371941 5.40516e-05 2.98703e-16)
(-0.000372167 5.54566e-05 1.46441e-16)
(-0.000372152 5.70251e-05 -2.21804e-16)
(-0.000370738 5.85112e-05 5.53522e-16)
(-0.00036969 6.06383e-05 2.8093e-16)
(-0.000368223 6.29462e-05 -2.65235e-16)
(-0.000365259 6.53873e-05 -1.80349e-16)
(-0.000357238 6.65634e-05 -6.09854e-17)
(-0.00034618 6.79203e-05 6.25937e-17)
(-0.000342969 6.92413e-05 -4.386e-17)
(-0.000301884 6.09105e-05 -6.63429e-17)
(0.000218655 -0.00443596 -3.41048e-16)
(-0.000901113 -0.00432045 9.66339e-17)
(-0.00229393 -0.00344452 1.00489e-16)
(-0.00295886 -0.00195405 -8.20955e-18)
(-0.00265461 -0.000728614 -1.12971e-15)
(-0.00210823 -0.000299661 1.03959e-15)
(-0.00182994 -0.000224816 1.01366e-15)
(-0.00169062 -0.000171123 -1.29564e-15)
(-0.00153879 -0.000120218 -1.90715e-16)
(-0.00135702 -0.000131534 3.68608e-17)
(-0.00123379 -9.81292e-05 1.63022e-16)
(-0.00111371 -0.000100024 1.79876e-15)
(-0.00102902 -9.09429e-05 -9.27285e-16)
(-0.000961678 -8.40929e-05 3.62168e-16)
(-0.000899587 -7.02436e-05 1.79695e-15)
(-0.000840876 -5.37844e-05 2.83788e-16)
(-0.000787252 -3.74837e-05 -7.7046e-16)
(-0.00073617 -2.16598e-05 -7.28687e-16)
(-0.000685601 -6.54981e-06 -1.44903e-16)
(-0.000635208 7.01783e-06 7.62005e-17)
(-0.000585198 1.85835e-05 4.57634e-18)
(-0.000575149 3.3065e-05 -1.95541e-16)
(-0.000555075 3.87037e-05 -2.57002e-16)
(-0.000536376 4.20053e-05 -6.92196e-17)
(-0.000521528 4.60972e-05 -8.29711e-17)
(-0.000508514 5.13754e-05 -6.74653e-16)
(-0.000495878 5.6311e-05 -8.02216e-16)
(-0.000484565 6.03369e-05 1.96589e-16)
(-0.00047438 6.3764e-05 2.39193e-16)
(-0.000465702 6.62141e-05 5.70854e-16)
(-0.000458077 6.82378e-05 -1.85268e-17)
(-0.000451903 6.99019e-05 -1.25131e-16)
(-0.000446777 7.17579e-05 1.24091e-17)
(-0.000441033 7.3308e-05 -7.86469e-16)
(-0.000437108 7.55436e-05 -9.97305e-17)
(-0.000434085 7.77981e-05 -9.99317e-17)
(-0.000430879 8.01749e-05 -1.72739e-17)
(-0.000422315 8.07376e-05 1.49466e-17)
(-0.000412687 8.18979e-05 2.55848e-17)
(-0.000410638 8.20442e-05 -4.25969e-17)
(-0.000372524 7.49082e-05 -1.04234e-16)
(2.04739e-05 -0.00368482 4.25629e-17)
(-0.000676507 -0.00354229 -3.8547e-16)
(-0.00153499 -0.00309043 -5.75603e-17)
(-0.00215319 -0.00231311 -3.09439e-16)
(-0.00216277 -0.00151023 -7.07827e-17)
(-0.0018157 -0.00106153 -6.18907e-16)
(-0.00154696 -0.000857273 2.01612e-16)
(-0.00140565 -0.000700203 -7.847e-16)
(-0.0012822 -0.000544234 -7.45837e-16)
(-0.00114894 -0.000411684 4.36946e-16)
(-0.00102935 -0.000312064 5.94123e-16)
(-0.00093126 -0.000232884 4.41573e-16)
(-0.000859348 -0.000173265 1.27174e-16)
(-0.00079885 -0.000137792 -3.67727e-16)
(-0.000743 -0.00010493 -1.15873e-15)
(-0.00069155 -7.91836e-05 -4.10712e-16)
(-0.000646345 -5.81485e-05 2.92991e-16)
(-0.000605948 -3.89142e-05 1.09934e-16)
(-0.000568482 -2.15002e-05 -3.01514e-16)
(-0.000533703 -6.44828e-06 7.98976e-18)
(-0.000501637 5.77895e-06 -3.57745e-18)
(-0.00050878 1.99146e-05 2.47467e-16)
(-0.000506487 2.55836e-05 -1.9453e-16)
(-0.000504566 2.93986e-05 -1.94989e-16)
(-0.000505986 3.41741e-05 5.11018e-16)
(-0.000508396 4.04865e-05 5.6749e-16)
(-0.000510437 4.70814e-05 4.66745e-17)
(-0.000512112 5.30872e-05 1.20608e-16)
(-0.000513534 5.8809e-05 4.52327e-16)
(-0.000514589 6.36838e-05 -2.91214e-16)
(-0.000515129 6.8094e-05 -1.89619e-16)
(-0.000515323 7.19591e-05 1.72662e-16)
(-0.00051525 7.58167e-05 1.45673e-16)
(-0.000512831 7.90872e-05 6.74394e-16)
(-0.00051169 8.28792e-05 1.69494e-16)
(-0.000510942 8.64723e-05 1.27823e-16)
(-0.000509987 8.99943e-05 4.50211e-17)
(-0.000502123 9.1028e-05 -4.91829e-17)
(-0.00049499 9.30362e-05 -1.26479e-17)
(-0.000494981 9.13972e-05 7.56047e-17)
(-0.000461085 8.73033e-05 5.071e-17)
(-5.47591e-05 -0.00294815 2.36756e-16)
(-0.000509914 -0.00284331 -6.60517e-16)
(-0.00105155 -0.00261051 -1.03148e-16)
(-0.00156891 -0.002174 3.31692e-16)
(-0.00181538 -0.00153358 -2.10486e-18)
(-0.00174043 -0.000969964 1.90351e-16)
(-0.00156411 -0.000614207 -3.62135e-16)
(-0.00142442 -0.000393229 -3.06244e-16)
(-0.00130715 -0.000232758 3.12295e-16)
(-0.00118617 -0.000123902 -2.81994e-16)
(-0.0010709 -6.43886e-05 -1.24152e-15)
(-0.000967557 -3.37568e-05 -4.08295e-16)
(-0.000880222 -3.14122e-05 8.57359e-16)
(-0.000811547 -3.01882e-05 -6.15631e-16)
(-0.000753735 -1.90239e-05 -5.5663e-16)
(-0.000700691 -1.14772e-05 8.50611e-16)
(-0.000652487 -4.19674e-06 -4.92475e-16)
(-0.000608539 3.95803e-06 3.80627e-18)
(-0.000567628 1.2524e-05 -1.32677e-16)
(-0.000529246 2.03143e-05 -6.40882e-17)
(-0.000493393 2.6928e-05 1.38572e-16)
(-0.000497222 3.70409e-05 3.26627e-17)
(-0.000493606 4.03283e-05 -4.28411e-17)
(-0.00049041 4.26984e-05 2.57669e-16)
(-0.000490552 4.59087e-05 -2.77264e-16)
(-0.000492476 5.08153e-05 -3.27873e-16)
(-0.000494936 5.65493e-05 5.51812e-16)
(-0.000497818 6.23276e-05 -1.78843e-16)
(-0.000501314 6.81783e-05 -7.25283e-16)
(-0.000505288 7.36052e-05 -2.05313e-16)
(-0.00050964 7.86264e-05 3.12615e-16)
(-0.000514423 8.31512e-05 1.68349e-16)
(-0.000519843 8.75415e-05 -6.23943e-17)
(-0.000523662 9.13067e-05 -4.11395e-16)
(-0.000529892 9.56064e-05 -2.49017e-16)
(-0.00053769 9.98539e-05 3.24597e-17)
(-0.000546741 0.000104162 7.64653e-17)
(-0.000549365 0.000105599 9.01942e-18)
(-0.000556517 0.000108722 1.04516e-17)
(-0.000567317 0.000105248 -1.97373e-17)
(-0.000565378 0.000105913 3.50495e-17)
(-6.92621e-05 -0.00229992 5.93946e-18)
(-0.000384826 -0.00224224 1.53294e-16)
(-0.000736515 -0.00212606 3.36611e-17)
(-0.00110587 -0.00191382 1.18971e-16)
(-0.00137472 -0.00154107 -8.02104e-17)
(-0.00144019 -0.00113979 1.38135e-16)
(-0.00136487 -0.000837559 1.42699e-16)
(-0.00125764 -0.000636401 -2.92481e-16)
(-0.00115616 -0.000490849 6.01105e-16)
(-0.00105586 -0.000381531 5.72029e-16)
(-0.000957268 -0.000304417 8.87115e-16)
(-0.000862212 -0.000248392 5.774e-16)
(-0.00078038 -0.000204617 -9.77914e-16)
(-0.000716066 -0.000159591 1.16412e-15)
(-0.00066695 -0.000121489 -3.27881e-16)
(-0.000622256 -9.56924e-05 -2.4893e-16)
(-0.000580068 -7.43312e-05 -1.09679e-16)
(-0.000541194 -5.56126e-05 -4.33766e-16)
(-0.000504915 -3.89148e-05 2.7916e-16)
(-0.000470716 -2.43544e-05 -6.1018e-17)
(-0.000438589 -1.21635e-05 1.54056e-17)
(-0.000441773 1.62585e-07 2.89024e-17)
(-0.000438265 6.39111e-06 -8.51248e-17)
(-0.00043409 1.14511e-05 -2.31521e-16)
(-0.000432396 1.64044e-05 2.29488e-16)
(-0.000432324 2.23703e-05 1.86516e-16)
(-0.00043285 2.90398e-05 -2.90577e-16)
(-0.000433784 3.57445e-05 -1.8502e-16)
(-0.000435342 4.24655e-05 1.57803e-16)
(-0.000437438 4.88292e-05 3.12439e-17)
(-0.000439952 5.46955e-05 6.39381e-17)
(-0.000442914 5.99373e-05 5.49139e-17)
(-0.000446566 6.48e-05 1.37982e-16)
(-0.000449104 6.90371e-05 -3.65766e-17)
(-0.000454219 7.36673e-05 -1.6369e-16)
(-0.000461542 7.83475e-05 -9.80665e-17)
(-0.000471271 8.32097e-05 1.78627e-16)
(-0.000476906 8.58549e-05 4.25896e-17)
(-0.000491475 9.01765e-05 -4.53459e-17)
(-0.000506958 8.91637e-05 6.72234e-18)
(-0.000540996 9.26952e-05 2.46175e-17)
(-6.87361e-05 -0.00176653 -2.04669e-17)
(-0.000288296 -0.00174482 2.36062e-16)
(-0.000525257 -0.00168965 -1.88583e-16)
(-0.000779837 -0.00158929 -2.45651e-16)
(-0.00100937 -0.00137964 -1.35825e-16)
(-0.00114198 -0.00110076 2.32688e-16)
(-0.00116603 -0.000828833 -8.76575e-17)
(-0.00112565 -0.000604495 -4.06439e-16)
(-0.00106158 -0.000427572 -4.09883e-16)
(-0.000989151 -0.000290211 1.88165e-16)
(-0.000911803 -0.000189699 4.82297e-16)
(-0.000829586 -0.000120215 -1.09634e-15)
(-0.00075615 -7.26366e-05 1.96489e-16)
(-0.000694049 -4.01241e-05 4.19273e-16)
(-0.000641737 -3.03059e-05 -1.00757e-15)
(-0.000599085 -1.7619e-05 1.08436e-16)
(-0.000559309 -7.09598e-06 4.81962e-16)
(-0.00052204 1.84378e-06 5.5665e-16)
(-0.000487114 9.94794e-06 1.61992e-16)
(-0.000454211 1.72722e-05 -2.67414e-16)
(-0.000423081 2.34083e-05 -4.20629e-16)
(-0.000425932 3.26805e-05 5.00785e-16)
(-0.000422825 3.69238e-05 -2.11443e-16)
(-0.000418892 4.08539e-05 -1.06458e-16)
(-0.000416787 4.46912e-05 -1.41408e-17)
(-0.000416144 4.922e-05 -3.64091e-17)
(-0.000416209 5.43679e-05 -8.70138e-17)
(-0.000416719 5.96144e-05 -1.05631e-16)
(-0.000417795 6.48859e-05 2.04363e-16)
(-0.000419363 6.99426e-05 2.94131e-16)
(-0.000421221 7.45819e-05 -6.84961e-17)
(-0.000423251 7.8593e-05 -2.29388e-16)
(-0.000425536 8.20762e-05 -6.76982e-17)
(-0.000426185 8.46873e-05 6.81658e-17)
(-0.000428549 8.74753e-05 1.54492e-16)
(-0.000432078 9.01667e-05 3.19346e-17)
(-0.000437064 9.29163e-05 -7.28449e-17)
(-0.000436366 9.34524e-05 -3.82217e-17)
(-0.000443849 9.49268e-05 3.28183e-17)
(-0.000446794 9.29746e-05 -8.40346e-18)
(-0.000472722 9.23e-05 -2.75845e-17)
(-6.01347e-05 -0.00134021 2.10339e-17)
(-0.000214602 -0.00134127 -1.06882e-16)
(-0.000378927 -0.00131996 -5.85573e-17)
(-0.000553588 -0.00127714 -1.05241e-17)
(-0.000725187 -0.00117033 4.11752e-17)
(-0.000858257 -0.00100849 -3.84415e-17)
(-0.000928497 -0.000824321 6.98267e-17)
(-0.000940324 -0.000650446 1.11782e-16)
(-0.000915182 -0.00050293 1.2813e-16)
(-0.000871859 -0.000385024 2.07359e-16)
(-0.00081778 -0.00029574 6.43688e-16)
(-0.000752794 -0.000230187 -7.51627e-17)
(-0.000690376 -0.000182351 -6.06827e-16)
(-0.000633899 -0.000148952 3.77277e-16)
(-0.00058421 -0.000118563 -1.35299e-16)
(-0.000541952 -9.22044e-05 -8.47245e-16)
(-0.000506332 -7.223e-05 2.88848e-16)
(-0.000473137 -5.56232e-05 -9.88538e-17)
(-0.000441644 -4.09327e-05 6.07867e-16)
(-0.000411776 -2.79008e-05 -2.31568e-16)
(-0.000383465 -1.65648e-05 -3.82141e-17)
(-0.000386198 -5.4467e-06 2.80483e-16)
(-0.000383783 1.10844e-06 -8.65738e-17)
(-0.000379838 7.25477e-06 3.61861e-17)
(-0.000377044 1.26661e-05 1.96964e-16)
(-0.000375455 1.80008e-05 4.05689e-17)
(-0.000374625 2.34457e-05 2.73436e-16)
(-0.000374297 2.87354e-05 1.78991e-16)
(-0.000374564 3.38686e-05 -1.19373e-16)
(-0.000375412 3.88322e-05 -1.59234e-16)
(-0.000376672 4.35026e-05 -1.28131e-16)
(-0.000378171 4.7754e-05 6.69635e-17)
(-0.000379914 5.15797e-05 -1.03863e-17)
(-0.000380197 5.48074e-05 1.41803e-18)
(-0.000382004 5.81696e-05 -1.08705e-16)
(-0.000384885 6.15859e-05 4.87941e-18)
(-0.00038915 6.50836e-05 2.59808e-17)
(-0.000388184 6.72601e-05 6.73371e-17)
(-0.000394165 6.97153e-05 -4.92732e-17)
(-0.000395357 7.05636e-05 1.86047e-17)
(-0.000411885 6.93798e-05 1.15839e-18)
(-5.04901e-05 -0.00100574 9.51061e-17)
(-0.000159965 -0.00101992 -1.85866e-17)
(-0.00027544 -0.00101716 -1.64754e-17)
(-0.00039709 -0.00100226 1.87163e-16)
(-0.000520113 -0.000949595 1.08232e-16)
(-0.000630398 -0.000860195 -4.36538e-17)
(-0.000711505 -0.000743547 6.89142e-17)
(-0.000754916 -0.000614808 -4.85924e-16)
(-0.000764616 -0.00048946 -1.22683e-16)
(-0.000751877 -0.000377553 7.9722e-16)
(-0.000723647 -0.00028345 -6.0505e-17)
(-0.00067989 -0.000206657 7.55902e-18)
(-0.000632504 -0.000146351 -2.50298e-16)
(-0.000586086 -0.000100918 -2.52782e-16)
(-0.000543256 -6.65559e-05 -1.51406e-16)
(-0.000504484 -4.34797e-05 -2.74385e-16)
(-0.000470542 -2.66941e-05 4.14789e-16)
(-0.000440777 -1.25832e-05 -1.0336e-16)
(-0.000412407 -1.11788e-06 3.91199e-17)
(-0.000385176 8.42928e-06 -2.09441e-16)
(-0.000358973 1.60796e-05 -1.31728e-16)
(-0.000361328 2.60734e-05 8.38701e-17)
(-0.000359196 3.14596e-05 9.38657e-17)
(-0.000355846 3.68862e-05 -2.23179e-16)
(-0.00035322 4.16803e-05 1.01501e-16)
(-0.000351543 4.61014e-05 1.6687e-16)
(-0.000350625 5.0293e-05 -2.9834e-16)
(-0.000350237 5.42167e-05 -2.52408e-17)
(-0.000350371 5.79185e-05 1.65079e-16)
(-0.000351041 6.14453e-05 3.31808e-17)
(-0.000352098 6.48375e-05 9.29413e-17)
(-0.000353329 6.79648e-05 -5.00982e-17)
(-0.000354642 7.0832e-05 1.11796e-16)
(-0.000354367 7.3023e-05 -7.90329e-18)
(-0.000355212 7.52861e-05 1.76042e-17)
(-0.000356789 7.74323e-05 4.19365e-17)
(-0.00035949 7.95452e-05 -3.00903e-17)
(-0.000357269 8.00917e-05 -9.88246e-18)
(-0.000361085 8.08633e-05 2.80826e-17)
(-0.000361255 7.9957e-05 1.86683e-18)
(-0.000372153 7.76058e-05 7.9314e-18)
(-4.0873e-05 -0.000748479 5.1701e-17)
(-0.000119151 -0.000768158 7.99998e-17)
(-0.000201456 -0.000774878 -1.21639e-17)
(-0.000287311 -0.000773861 4.12805e-17)
(-0.000374586 -0.000750251 -8.46616e-17)
(-0.000458064 -0.000704795 -1.42736e-17)
(-0.000529921 -0.000639129 8.19203e-17)
(-0.000581916 -0.000558112 1.0436e-16)
(-0.000611058 -0.000470619 1.65005e-16)
(-0.000620883 -0.000386072 -4.4209e-16)
(-0.000614882 -0.000309953 -6.50663e-16)
(-0.000592096 -0.000243832 -2.32726e-16)
(-0.000561786 -0.000189558 4.93787e-16)
(-0.000527979 -0.000147358 -2.10788e-16)
(-0.000493784 -0.000115126 -6.524e-16)
(-0.000460524 -9.00236e-05 6.60266e-16)
(-0.000428957 -6.83819e-05 -4.24056e-16)
(-0.000400319 -5.1592e-05 7.8721e-16)
(-0.000374914 -3.71514e-05 6.51248e-16)
(-0.000350742 -2.53376e-05 -4.4737e-16)
(-0.000327209 -1.53115e-05 -2.45247e-16)
(-0.000329773 -5.71633e-06 1.45202e-16)
(-0.00032845 -2.42754e-07 -2.37341e-16)
(-0.000325661 5.28391e-06 1.87603e-16)
(-0.000323242 1.00624e-05 -6.00621e-17)
(-0.000321513 1.4217e-05 1.05918e-16)
(-0.000320409 1.79943e-05 3.83389e-17)
(-0.000319704 2.14938e-05 -7.1628e-17)
(-0.000319418 2.48243e-05 6.56142e-17)
(-0.000319548 2.81018e-05 -1.05616e-16)
(-0.000320023 3.14425e-05 -2.53674e-17)
(-0.000320666 3.48321e-05 -6.54319e-18)
(-0.000321362 3.82391e-05 -5.53398e-17)
(-0.000320567 4.1402e-05 2.29924e-17)
(-0.000320692 4.47009e-05 1.02965e-16)
(-0.00032145 4.79902e-05 1.19287e-17)
(-0.000323215 5.12367e-05 -4.64929e-17)
(-0.000320684 5.3528e-05 -1.29902e-17)
(-0.000323474 5.60151e-05 -8.12631e-18)
(-0.000323536 5.73545e-05 -1.75276e-17)
(-0.000332032 5.74456e-05 4.7545e-18)
(-3.19637e-05 -0.000553546 -6.62916e-18)
(-8.8467e-05 -0.000573527 7.23244e-17)
(-0.000147925 -0.000584076 -1.50536e-16)
(-0.000209355 -0.000589407 -6.34827e-18)
(-0.000271543 -0.000580636 8.03781e-17)
(-0.000332781 -0.000558748 -3.88655e-17)
(-0.000389862 -0.000523537 -3.54517e-17)
(-0.000437865 -0.000475434 -4.8448e-17)
(-0.000473014 -0.000417928 5.22928e-16)
(-0.000495102 -0.000356671 -5.95352e-17)
(-0.000504497 -0.000296164 -4.33706e-16)
(-0.000498827 -0.00023836 6.33568e-16)
(-0.000484293 -0.000186477 1.6822e-16)
(-0.000463638 -0.000142465 4.03852e-16)
(-0.00043955 -0.000106116 -9.98316e-17)
(-0.000414117 -7.65134e-05 -2.05666e-16)
(-0.000388708 -5.30079e-05 -1.85825e-16)
(-0.000363847 -3.42207e-05 -4.03388e-16)
(-0.000340688 -1.97249e-05 7.25305e-16)
(-0.000319191 -8.05002e-06 -3.54206e-16)
(-0.000298578 1.45903e-06 -5.03798e-16)
(-0.000301184 1.15091e-05 4.17473e-16)
(-0.000300156 1.71469e-05 -3.8572e-17)
(-0.000297979 2.29579e-05 -1.7669e-16)
(-0.000295992 2.81578e-05 -8.04313e-17)
(-0.000294434 3.27333e-05 2.01245e-16)
(-0.000293318 3.68655e-05 6.37389e-17)
(-0.000292525 4.06873e-05 -1.06373e-16)
(-0.000291991 4.42664e-05 -1.72736e-16)
(-0.000291752 4.77492e-05 1.70167e-16)
(-0.000291772 5.1163e-05 -6.43913e-17)
(-0.000291943 5.45922e-05 -6.87568e-17)
(-0.00029218 5.79235e-05 1.28841e-16)
(-0.000291089 6.08198e-05 1.70775e-18)
(-0.000290778 6.36179e-05 -6.59204e-17)
(-0.000290998 6.61467e-05 -2.6894e-17)
(-0.000292146 6.83242e-05 4.44759e-18)
(-0.000289575 6.90196e-05 1.19287e-17)
(-0.000291662 6.98707e-05 9.32619e-18)
(-0.000291804 6.94333e-05 6.0679e-18)
(-0.000298339 6.82321e-05 -1.10752e-17)
(-2.50711e-05 -0.000406314 -4.45628e-17)
(-6.58089e-05 -0.000425083 2.88291e-17)
(-0.000108919 -0.000436005 -7.17007e-17)
(-0.000153273 -0.000443804 -3.1815e-17)
(-0.000197957 -0.000442607 2.13332e-17)
(-0.000242453 -0.000433428 3.20313e-17)
(-0.000285605 -0.000416094 -1.38275e-17)
(-0.000324935 -0.000389969 -6.35272e-17)
(-0.000357907 -0.000356001 -1.17406e-16)
(-0.000383502 -0.000317039 -1.10471e-16)
(-0.000400737 -0.000275717 1.28182e-16)
(-0.000406579 -0.000233144 -5.86861e-17)
(-0.00040459 -0.000192563 -2.08181e-16)
(-0.000395995 -0.000156043 -2.40384e-16)
(-0.000382517 -0.000124344 3.69992e-16)
(-0.000365842 -9.7652e-05 3.49366e-16)
(-0.000347286 -7.54723e-05 -1.02252e-15)
(-0.000327812 -5.70694e-05 8.504e-16)
(-0.000307911 -4.18789e-05 2.63638e-16)
(-0.00028851 -2.89809e-05 -3.01397e-16)
(-0.000269634 -1.85464e-05 3.44809e-16)
(-0.000272947 -9.52894e-06 -2.29236e-16)
(-0.000272893 -4.48592e-06 -1.01964e-17)
(-0.000271621 7.38107e-07 -2.11215e-16)
(-0.00027034 5.40115e-06 2.76691e-16)
(-0.000269297 9.5036e-06 1.85007e-16)
(-0.00026849 1.32191e-05 -2.34805e-16)
(-0.000267802 1.66803e-05 -2.06232e-17)
(-0.000267223 1.99809e-05 1.60312e-17)
(-0.000266783 2.31534e-05 -2.74092e-17)
(-0.000266479 2.63151e-05 1.70783e-16)
(-0.000266274 2.94445e-05 6.29922e-17)
(-0.000266132 3.2566e-05 -2.13967e-16)
(-0.00026482 3.53752e-05 8.29423e-17)
(-0.000264208 3.81672e-05 1.39199e-17)
(-0.000264095 4.06729e-05 -5.26742e-17)
(-0.000264777 4.2914e-05 2.40289e-17)
(-0.000262159 4.41168e-05 -2.18414e-18)
(-0.000263611 4.54974e-05 -2.06875e-17)
(-0.000263586 4.59926e-05 2.63974e-18)
(-0.000268634 4.62561e-05 8.48483e-18)
(-1.94366e-05 -0.000296179 5.35064e-17)
(-4.90019e-05 -0.00031248 -5.08604e-17)
(-8.03161e-05 -0.000322544 5.9726e-18)
(-0.000112551 -0.000330741 8.70493e-19)
(-0.000144935 -0.000333033 8.29883e-17)
(-0.000177297 -0.000330302 -2.63293e-17)
(-0.000209291 -0.000322576 4.70208e-18)
(-0.000239741 -0.000309161 8.20612e-17)
(-0.000267262 -0.000290078 9.45238e-17)
(-0.000291085 -0.00026654 -2.99756e-16)
(-0.000310125 -0.000239701 -1.60927e-16)
(-0.000321541 -0.000209756 9.0394e-17)
(-0.000327085 -0.000179049 -4.00909e-16)
(-0.000326976 -0.000149214 2.87647e-16)
(-0.000321951 -0.000121342 6.88306e-16)
(-0.000313019 -9.61425e-05 -1.95636e-16)
(-0.000301252 -7.39518e-05 -3.13815e-16)
(-0.000287543 -5.48085e-05 6.15478e-17)
(-0.000272582 -3.85364e-05 -1.22337e-16)
(-0.000257037 -2.49245e-05 5.02058e-16)
(-0.000241013 -1.3955e-05 8.19566e-18)
(-0.000243672 -3.95447e-06 -2.96144e-16)
(-0.000243604 2.09945e-06 -6.17279e-16)
(-0.000242808 8.22793e-06 2.67029e-16)
(-0.000241904 1.38044e-05 2.40036e-16)
(-0.000240984 1.88383e-05 -5.1031e-18)
(-0.000240069 2.347e-05 1.49278e-16)
(-0.000239275 2.78149e-05 1.20809e-17)
(-0.000238538 3.18685e-05 -1.22539e-16)
(-0.000237864 3.56403e-05 1.6874e-16)
(-0.000237307 3.91762e-05 -5.16576e-17)
(-0.000236872 4.24583e-05 -3.07886e-17)
(-0.000236604 4.54957e-05 1.25567e-17)
(-0.000235456 4.79644e-05 -5.42258e-18)
(-0.000235045 5.02215e-05 -4.1952e-17)
(-0.000235184 5.20496e-05 -3.23458e-17)
(-0.000236131 5.35055e-05 6.70228e-17)
(-0.000234308 5.36618e-05 -1.76918e-17)
(-0.000236042 5.39972e-05 -1.46419e-18)
(-0.000236658 5.34707e-05 1.17561e-18)
(-0.000241037 5.29458e-05 -2.71361e-18)
(-1.4918e-05 -0.000215134 -2.07233e-18)
(-3.64458e-05 -0.000228136 1.6272e-17)
(-5.92553e-05 -0.000236527 2.87871e-18)
(-8.27742e-05 -0.000244004 1.20793e-17)
(-0.000106373 -0.000247644 -2.38909e-17)
(-0.000129988 -0.000248095 2.58059e-18)
(-0.000153567 -0.000245509 2.47481e-20)
(-0.00017656 -0.000239384 -2.58931e-17)
(-0.000198265 -0.000229537 9.69566e-17)
(-0.000218293 -0.000216478 1.10053e-16)
(-0.000235885 -0.000200625 -3.03353e-16)
(-0.000248844 -0.000181625 5.69145e-16)
(-0.000257987 -0.000160963 3.80964e-16)
(-0.000263045 -0.000139701 -4.97303e-16)
(-0.000264113 -0.000118689 -2.74279e-16)
(-0.000261571 -9.86981e-05 -1.85474e-16)
(-0.000255974 -8.02617e-05 5.28519e-16)
(-0.000247947 -6.3691e-05 -3.99957e-16)
(-0.000238047 -4.9107e-05 -9.56355e-17)
(-0.000226846 -3.64545e-05 3.36113e-16)
(-0.000214518 -2.56805e-05 -2.17195e-16)
(-0.000217824 -1.68606e-05 3.28531e-17)
(-0.000218501 -1.13326e-05 5.44758e-17)
(-0.00021858 -5.88247e-06 4.90574e-17)
(-0.000218481 -9.91621e-07 -1.69e-16)
(-0.000218271 3.39563e-06 -6.61136e-17)
(-0.000217942 7.34776e-06 2.71059e-16)
(-0.000217574 1.09235e-05 -3.50882e-16)
(-0.000217129 1.41455e-05 3.71478e-17)
(-0.000216629 1.70829e-05 1.05652e-16)
(-0.0002163 1.96741e-05 4.13611e-17)
(-0.000216194 2.20572e-05 -4.5775e-17)
(-0.000216204 2.41645e-05 -1.09943e-16)
(-0.00021539 2.59252e-05 1.02022e-16)
(-0.000215203 2.74962e-05 9.67407e-17)
(-0.000215469 2.88459e-05 -6.73007e-17)
(-0.000216337 2.99513e-05 -5.7837e-18)
(-0.000214567 3.04303e-05 1.88477e-17)
(-0.000215843 3.10651e-05 -2.76048e-17)
(-0.000216091 3.12962e-05 -6.34691e-18)
(-0.000219103 3.18044e-05 4.4281e-18)
(-1.13682e-05 -0.000155648 -2.08372e-17)
(-2.72039e-05 -0.000166022 2.44542e-17)
(-4.38931e-05 -0.000172638 -2.77015e-17)
(-6.11045e-05 -0.000178836 -4.23767e-17)
(-7.83598e-05 -0.000182532 1.20211e-17)
(-9.56299e-05 -0.000184193 -2.10267e-17)
(-0.000112965 -0.000184012 4.10033e-19)
(-0.000130107 -0.000181656 7.30397e-19)
(-0.000146703 -0.00017693 -3.64155e-17)
(-0.00016259 -0.000170045 -1.57013e-18)
(-0.000177326 -0.000161094 -1.7551e-16)
(-0.000189387 -0.00014954 7.60277e-17)
(-0.000199167 -0.000136217 -8.43261e-17)
(-0.000206277 -0.000121678 -3.85114e-16)
(-0.000210531 -0.000106431 6.56872e-16)
(-0.000211941 -9.10486e-05 1.36517e-16)
(-0.00021068 -7.60228e-05 1.38453e-16)
(-0.000207054 -6.17775e-05 2.92633e-17)
(-0.000201395 -4.85887e-05 -1.44746e-16)
(-0.000194143 -3.66311e-05 -5.72053e-17)
(-0.00018541 -2.60795e-05 -6.02248e-17)
(-0.000189321 -1.72675e-05 8.25432e-17)
(-0.000190443 -1.12092e-05 -2.11951e-16)
(-0.000190996 -5.28349e-06 -2.69865e-17)
(-0.000191303 1.13433e-07 2.29383e-16)
(-0.000191407 5.00627e-06 -1.9795e-16)
(-0.000191316 9.46626e-06 -1.33182e-16)
(-0.00019106 1.3534e-05 2.16758e-16)
(-0.00019068 1.72302e-05 3.1997e-16)
(-0.000190233 2.05619e-05 -2.27552e-16)
(-0.000189825 2.35973e-05 -3.76199e-17)
(-0.000189555 2.63039e-05 -1.82641e-18)
(-0.0001894 2.87021e-05 -8.71995e-17)
(-0.000188898 3.0773e-05 1.59915e-16)
(-0.000189025 3.26541e-05 -6.78137e-17)
(-0.00018958 3.42794e-05 -9.75157e-18)
(-0.000190689 3.5725e-05 3.20192e-17)
(-0.000189553 3.64095e-05 -2.52327e-17)
(-0.000190964 3.73432e-05 1.73511e-17)
(-0.000191561 3.78097e-05 2.1045e-17)
(-0.000194026 3.83933e-05 -3.06424e-18)
(-8.3831e-06 -0.000110853 3.29319e-18)
(-2.00019e-05 -0.000119346 2.22555e-17)
(-3.22564e-05 -0.000124776 1.98738e-18)
(-4.49014e-05 -0.000129907 -1.21156e-18)
(-5.7596e-05 -0.000133311 -8.18351e-18)
(-7.03068e-05 -0.000135364 -1.10915e-17)
(-8.31063e-05 -0.000136271 2.4679e-17)
(-9.58702e-05 -0.000135836 5.59394e-17)
(-0.000108421 -0.000133919 1.77899e-18)
(-0.000120706 -0.000130626 -1.01868e-16)
(-0.00013249 -0.000125952 -5.40485e-17)
(-0.00014278 -0.000119399 8.4595e-17)
(-0.000151791 -0.000111426 -9.48357e-17)
(-0.000159192 -0.000102276 -1.65237e-16)
(-0.000164738 -9.22048e-05 1.30971e-16)
(-0.000168292 -8.15544e-05 1.34616e-16)
(-0.000169817 -7.06644e-05 2.40941e-16)
(-0.00016939 -5.98812e-05 -3.53965e-16)
(-0.000167133 -4.94759e-05 -1.93595e-16)
(-0.000163312 -3.96854e-05 6.197e-16)
(-0.000157981 -3.07285e-05 -3.03678e-16)
(-0.000162924 -2.36964e-05 -9.99862e-17)
(-0.000165072 -1.85979e-05 1.55025e-16)
(-0.000166633 -1.36234e-05 -2.55001e-16)
(-0.000167911 -9.10944e-06 2.6719e-16)
(-0.000168949 -5.04235e-06 -8.87768e-17)
(-0.000169758 -1.36824e-06 -2.1734e-16)
(-0.000170373 1.94118e-06 3.6894e-17)
(-0.000170838 4.91301e-06 4.21058e-17)
(-0.000171201 7.57069e-06 3.37247e-16)
(-0.00017149 9.94331e-06 -1.67706e-16)
(-0.000171732 1.20579e-05 -9.58677e-17)
(-0.000171958 1.39546e-05 4.75794e-17)
(-0.000171601 1.55369e-05 1.3225e-17)
(-0.000171666 1.7036e-05 -6.13604e-18)
(-0.000172085 1.83629e-05 -7.44343e-18)
(-0.000173106 1.9627e-05 9.25203e-18)
(-0.000172029 2.05119e-05 1.8175e-17)
(-0.000173075 2.15838e-05 -1.92822e-17)
(-0.000173432 2.23758e-05 9.94556e-18)
(-0.000175129 2.32899e-05 -1.17764e-17)
(-6.89965e-06 -8.6741e-05 -8.50448e-18)
(-1.59818e-05 -9.26817e-05 1.72119e-18)
(-2.54528e-05 -9.65005e-05 1.53852e-18)
(-3.51038e-05 -0.00010012 7.40362e-18)
(-4.47242e-05 -0.000102524 1.42468e-17)
(-5.43041e-05 -0.000104036 -3.75245e-17)
(-6.39211e-05 -0.000104823 -4.04514e-17)
(-7.35134e-05 -0.000104765 5.69795e-17)
(-8.29948e-05 -0.000103773 1.11828e-16)
(-9.23635e-05 -0.00010192 -1.31921e-16)
(-0.000101501 -9.91817e-05 2.23615e-17)
(-0.000109765 -9.51575e-05 1.94936e-16)
(-0.000117299 -9.01072e-05 -1.90929e-16)
(-0.000123864 -8.41163e-05 9.88321e-17)
(-0.000129256 -7.72897e-05 -7.42477e-17)
(-0.000133313 -6.97983e-05 -4.39248e-16)
(-0.00013593 -6.18396e-05 6.87566e-16)
(-0.000137073 -5.36429e-05 3.59176e-16)
(-0.000136741 -4.54156e-05 -7.20784e-16)
(-0.000135062 -3.73691e-05 4.95264e-16)
(-0.000131991 -2.97064e-05 5.05901e-17)
(-0.000137011 -2.3627e-05 -4.54391e-16)
(-0.000139509 -1.88404e-05 6.67106e-17)
(-0.000141486 -1.41085e-05 1.84329e-16)
(-0.000143152 -9.70825e-06 -2.98885e-16)
(-0.000144534 -5.63854e-06 8.09575e-17)
(-0.000145645 -1.86717e-06 1.12676e-17)
(-0.000146523 1.61848e-06 8.15115e-17)
(-0.000147214 4.83725e-06 -2.08697e-16)
(-0.00014777 7.80269e-06 1.10168e-16)
(-0.000148226 1.0537e-05 1.99084e-16)
(-0.000148623 1.3054e-05 -4.75991e-17)
(-0.000149012 1.53742e-05 -3.8098e-17)
(-0.000148758 1.74156e-05 -9.54283e-17)
(-0.00014887 1.93441e-05 2.12637e-17)
(-0.000149255 2.1132e-05 1.12022e-17)
(-0.000150122 2.2794e-05 8.58139e-18)
(-0.000149136 2.39182e-05 2.03738e-18)
(-0.00015006 2.52779e-05 1.45667e-17)
(-0.000150735 2.63127e-05 1.46736e-17)