/*--------------------------------*- C++ -*----------------------------------*\
| =========                 |                                                 |
| \\      /  F ield         | OpenFOAM: The Open Source CFD Toolbox           |
|  \\    /   O peration     | Version:  2312                                  |
|   \\  /    A nd           | Website:  www.openfoam.com                      |
|    \\/     M anipulation  |                                                 |
\*---------------------------------------------------------------------------*/
FoamFile
{
    version     2.0;
    format      ascii;
    arch        "LSB;label=32;scalar=64";
    class       volScalarField;
    location    "249";
    object      nut;
}
// * * * * * * * * * * * * * * * * * * * * * * * * * * * * * * * * * * * * * //

dimensions      [0 2 -1 0 0 0 0];

internalField   nonuniform List<scalar> 
11040
(
7.37109e-06
1.74034e-05
4.3876e-05
9.69377e-05
0.000176781
0.000294167
0.000438754
0.000556331
0.000620688
0.000648228
0.000660142
0.000666872
0.000671448
0.000674002
0.000674098
0.000671765
0.00066728
0.000661085
0.000653552
0.000644995
0.000635215
0.000625065
0.000616013
0.000608363
0.000601704
0.000595513
0.000589451
0.000583414
0.000577304
0.000570989
0.000564299
0.000557033
0.00054897
0.000539773
0.000529001
0.000516191
0.000500532
0.000481346
0.000454842
0.000426355
0.000351209
6.06336e-06
6.11067e-06
6.66282e-06
7.67475e-06
1.22709e-05
2.88356e-05
7.07356e-05
0.000132135
0.000199316
0.000266607
0.000331456
0.000392618
0.000448493
0.000497068
0.000537062
0.000568136
0.000591183
0.000607964
0.000620624
0.000631115
0.000641142
0.000650476
0.000657858
0.000663568
0.000668214
0.000672242
0.000675985
0.00067963
0.000683301
0.000687077
0.000691027
0.000695201
0.000699634
0.00070437
0.000709451
0.000714875
0.000720654
0.000726675
0.000732622
0.000739641
0.000723653
6.10271e-06
6.16832e-06
6.10013e-06
6.11906e-06
6.22349e-06
6.43292e-06
6.84199e-06
7.73487e-06
9.63934e-06
1.40113e-05
2.27373e-05
4.02783e-05
6.88615e-05
0.000106712
0.000150952
0.000200144
0.00025339
0.000309348
0.00036638
0.00042278
0.000477416
0.000526964
0.000569118
0.000605233
0.000636496
0.000663928
0.000688462
0.000710864
0.000731742
0.000751546
0.000770602
0.000789132
0.000807285
0.000825201
0.000842968
0.000860583
0.000878174
0.000895602
0.000913569
0.000931518
0.000938254
6.11259e-06
6.11868e-06
6.1413e-06
6.17194e-06
6.20818e-06
6.25699e-06
6.32327e-06
6.40608e-06
6.52473e-06
6.61154e-06
6.62933e-06
6.60102e-06
6.6492e-06
7.012e-06
8.14132e-06
1.09284e-05
1.71944e-05
3.00575e-05
5.28111e-05
8.57935e-05
0.000127669
0.000174312
0.000221761
0.000269891
0.000318565
0.000367228
0.000415409
0.000462667
0.000508704
0.000553345
0.000596568
0.000638481
0.000679266
0.000719355
0.000759155
0.000799
0.000839241
0.000880778
0.000924135
0.000968926
0.00101863
6.12517e-06
6.1148e-06
6.10937e-06
6.10696e-06
6.0837e-06
6.08248e-06
6.0945e-06
6.116e-06
6.14592e-06
6.1836e-06
6.22835e-06
6.27995e-06
6.31539e-06
6.30668e-06
6.22583e-06
6.05757e-06
5.8135e-06
5.54796e-06
5.36726e-06
5.44693e-06
6.15697e-06
8.17925e-06
1.23163e-05
1.98117e-05
3.22079e-05
5.02726e-05
7.35186e-05
0.000100709
0.000130956
0.000164022
0.000200135
0.000239693
0.000283054
0.000330848
0.000383603
0.00044181
0.000505735
0.00057742
0.000657671
0.000744401
0.000869567
6.12849e-06
6.1059e-06
6.09807e-06
6.09759e-06
6.10088e-06
6.10374e-06
6.10639e-06
6.111e-06
6.11898e-06
6.13094e-06
6.1471e-06
6.16782e-06
6.19276e-06
6.22054e-06
6.24762e-06
6.26666e-06
6.26485e-06
6.22433e-06
6.12032e-06
5.92879e-06
5.60362e-06
5.17291e-06
4.76323e-06
4.41628e-06
4.14213e-06
3.96447e-06
3.91596e-06
4.0516e-06
4.46914e-06
5.35149e-06
7.05539e-06
1.02874e-05
1.63468e-05
2.74294e-05
4.61154e-05
7.40228e-05
0.000110903
0.000158309
0.000220341
0.000294743
0.000438475
6.1203e-06
6.1044e-06
6.09351e-06
6.09011e-06
6.08987e-06
6.08376e-06
6.07561e-06
6.07318e-06
6.07465e-06
6.07859e-06
6.08453e-06
6.0926e-06
6.10291e-06
6.11525e-06
6.12946e-06
6.14559e-06
6.16368e-06
6.18337e-06
6.20301e-06
6.21925e-06
6.22259e-06
6.19755e-06
6.14589e-06
6.07173e-06
5.97124e-06
5.84131e-06
5.67652e-06
5.47079e-06
5.21676e-06
4.90859e-06
4.54254e-06
4.12033e-06
3.65601e-06
3.17367e-06
2.72583e-06
2.39591e-06
2.34498e-06
2.85729e-06
6.10735e-06
1.36813e-05
7.80611e-05
6.11449e-06
6.10131e-06
6.09133e-06
6.08722e-06
6.08591e-06
6.08581e-06
6.08582e-06
6.08486e-06
6.08326e-06
6.08221e-06
6.08218e-06
6.0833e-06
6.08565e-06
6.08927e-06
6.09389e-06
6.09932e-06
6.10554e-06
6.11266e-06
6.12101e-06
6.13087e-06
6.14325e-06
6.15803e-06
6.17276e-06
6.18634e-06
6.19832e-06
6.20801e-06
6.21441e-06
6.21587e-06
6.20964e-06
6.19116e-06
6.15319e-06
6.08351e-06
5.96555e-06
5.76481e-06
5.44639e-06
4.96037e-06
4.28516e-06
3.32109e-06
2.33609e-06
1.14691e-06
8.37718e-07
6.10877e-06
6.0983e-06
6.09096e-06
6.08562e-06
6.08354e-06
6.08276e-06
6.08179e-06
6.07911e-06
6.07618e-06
6.07268e-06
6.07193e-06
6.07241e-06
6.07366e-06
6.0756e-06
6.07824e-06
6.08144e-06
6.08507e-06
6.08906e-06
6.0934e-06
6.0981e-06
6.10313e-06
6.10845e-06
6.11399e-06
6.11977e-06
6.12582e-06
6.13217e-06
6.13891e-06
6.14617e-06
6.15416e-06
6.16317e-06
6.17352e-06
6.18547e-06
6.19898e-06
6.21288e-06
6.22324e-06
6.21933e-06
6.17789e-06
6.05099e-06
5.68979e-06
5.13856e-06
3.30538e-06
6.10375e-06
6.09577e-06
6.08986e-06
6.08595e-06
6.08271e-06
6.08159e-06
6.08109e-06
6.08101e-06
6.07931e-06
6.07727e-06
6.07519e-06
6.07301e-06
6.07082e-06
6.06844e-06
6.06681e-06
6.06639e-06
6.06654e-06
6.06699e-06
6.06771e-06
6.06858e-06
6.0697e-06
6.0711e-06
6.07262e-06
6.07421e-06
6.07586e-06
6.07755e-06
6.07926e-06
6.08101e-06
6.08281e-06
6.08472e-06
6.08686e-06
6.08945e-06
6.09285e-06
6.09793e-06
6.10552e-06
6.11769e-06
6.13631e-06
6.17421e-06
6.20267e-06
6.30729e-06
6.11126e-06
6.09932e-06
6.09361e-06
6.08877e-06
6.08526e-06
6.08274e-06
6.08097e-06
6.08026e-06
6.07996e-06
6.07884e-06
6.07754e-06
6.0762e-06
6.07471e-06
6.07391e-06
6.07382e-06
6.07408e-06
6.07458e-06
6.0753e-06
6.07618e-06
6.07713e-06
6.07816e-06
6.07917e-06
6.08006e-06
6.08098e-06
6.08197e-06
6.08304e-06
6.08416e-06
6.08531e-06
6.08645e-06
6.08756e-06
6.08859e-06
6.08952e-06
6.0903e-06
6.09092e-06
6.09135e-06
6.09162e-06
6.09194e-06
6.09289e-06
6.09541e-06
6.10416e-06
6.12385e-06
6.19702e-06
6.09552e-06
6.09176e-06
6.08739e-06
6.08433e-06
6.0823e-06
6.08075e-06
6.08008e-06
6.07984e-06
6.07987e-06
6.07926e-06
6.07845e-06
6.07757e-06
6.07662e-06
6.0756e-06
6.07452e-06
6.07339e-06
6.07222e-06
6.07101e-06
6.06977e-06
6.0685e-06
6.06729e-06
6.06606e-06
6.06531e-06
6.06508e-06
6.06509e-06
6.0652e-06
6.06536e-06
6.06556e-06
6.06577e-06
6.06597e-06
6.06614e-06
6.0662e-06
6.0657e-06
6.06514e-06
6.06459e-06
6.0641e-06
6.06363e-06
6.06339e-06
6.06458e-06
6.06277e-06
6.0738e-06
6.09233e-06
6.08938e-06
6.08584e-06
6.08343e-06
6.08192e-06
6.0809e-06
6.0803e-06
6.08022e-06
6.08029e-06
6.08024e-06
6.0798e-06
6.07928e-06
6.07868e-06
6.07804e-06
6.07739e-06
6.07666e-06
6.07647e-06
6.07651e-06
6.07666e-06
6.0769e-06
6.07713e-06
6.07726e-06
6.07737e-06
6.07751e-06
6.07769e-06
6.07791e-06
6.07814e-06
6.07838e-06
6.07862e-06
6.07882e-06
6.07898e-06
6.07908e-06
6.07908e-06
6.07893e-06
6.0787e-06
6.07784e-06
6.07675e-06
6.07553e-06
6.07411e-06
6.07304e-06
6.07154e-06
6.08966e-06
6.08748e-06
6.08465e-06
6.08277e-06
6.08174e-06
6.08111e-06
6.08091e-06
6.08087e-06
6.08087e-06
6.08085e-06
6.08079e-06
6.08077e-06
6.08045e-06
6.08001e-06
6.07954e-06
6.07904e-06
6.0785e-06
6.07793e-06
6.07733e-06
6.07672e-06
6.07607e-06
6.07546e-06
6.07487e-06
6.07432e-06
6.07377e-06
6.0733e-06
6.07302e-06
6.07285e-06
6.07271e-06
6.07259e-06
6.07236e-06
6.07202e-06
6.07168e-06
6.07135e-06
6.07106e-06
6.0708e-06
6.07059e-06
6.07032e-06
6.07057e-06
6.07028e-06
6.07089e-06
6.08749e-06
6.08593e-06
6.08366e-06
6.08226e-06
6.08166e-06
6.08128e-06
6.08097e-06
6.08072e-06
6.08054e-06
6.08041e-06
6.08033e-06
6.0803e-06
6.08028e-06
6.08026e-06
6.08021e-06
6.07991e-06
6.07957e-06
6.0792e-06
6.07881e-06
6.07841e-06
6.07801e-06
6.07759e-06
6.07718e-06
6.07679e-06
6.07641e-06
6.07604e-06
6.07568e-06
6.07533e-06
6.07498e-06
6.07464e-06
6.0743e-06
6.07395e-06
6.0736e-06
6.07325e-06
6.0729e-06
6.07256e-06
6.07241e-06
6.07235e-06
6.07226e-06
6.07237e-06
6.07235e-06
6.08577e-06
6.08468e-06
6.08286e-06
6.08183e-06
6.0811e-06
6.08054e-06
6.08011e-06
6.07982e-06
6.07965e-06
6.07957e-06
6.07955e-06
6.07957e-06
6.07963e-06
6.0797e-06
6.07978e-06
6.07987e-06
6.07996e-06
6.08005e-06
6.08014e-06
6.08022e-06
6.08031e-06
6.08042e-06
6.08053e-06
6.08066e-06
6.0808e-06
6.08094e-06
6.08109e-06
6.08124e-06
6.0814e-06
6.08156e-06
6.08171e-06
6.08187e-06
6.08201e-06
6.08214e-06
6.08223e-06
6.08229e-06
6.08233e-06
6.08232e-06
6.08222e-06
6.08219e-06
6.08214e-06
6.08437e-06
6.0836e-06
6.08219e-06
6.08106e-06
6.08027e-06
6.07973e-06
6.07933e-06
6.07913e-06
6.07905e-06
6.079e-06
6.07897e-06
6.07894e-06
6.07892e-06
6.07891e-06
6.07889e-06
6.07888e-06
6.07887e-06
6.07885e-06
6.07883e-06
6.0788e-06
6.07876e-06
6.07872e-06
6.07869e-06
6.07868e-06
6.07867e-06
6.07867e-06
6.07868e-06
6.0787e-06
6.07871e-06
6.07873e-06
6.07876e-06
6.07878e-06
6.07881e-06
6.07885e-06
6.07891e-06
6.07898e-06
6.07907e-06
6.0792e-06
6.07931e-06
6.07954e-06
6.0797e-06
6.08316e-06
6.08257e-06
6.08156e-06
6.0806e-06
6.07999e-06
6.07962e-06
6.0794e-06
6.07924e-06
6.0791e-06
6.07897e-06
6.07884e-06
6.07871e-06
6.07858e-06
6.07845e-06
6.07832e-06
6.07818e-06
6.07805e-06
6.07792e-06
6.07778e-06
6.07765e-06
6.07752e-06
6.07739e-06
6.07727e-06
6.07715e-06
6.07704e-06
6.07692e-06
6.07681e-06
6.0767e-06
6.07659e-06
6.07649e-06
6.07639e-06
6.07629e-06
6.0762e-06
6.07611e-06
6.07601e-06
6.07592e-06
6.07583e-06
6.07575e-06
6.07568e-06
6.07557e-06
6.07569e-06
6.08219e-06
6.08173e-06
6.08084e-06
6.08016e-06
6.07975e-06
6.07953e-06
6.07941e-06
6.07933e-06
6.07926e-06
6.07917e-06
6.0791e-06
6.07903e-06
6.07898e-06
6.07892e-06
6.07887e-06
6.07882e-06
6.07876e-06
6.07872e-06
6.07873e-06
6.07874e-06
6.07877e-06
6.07881e-06
6.07885e-06
6.07887e-06
6.07885e-06
6.0788e-06
6.07873e-06
6.07867e-06
6.07861e-06
6.07854e-06
6.07848e-06
6.07842e-06
6.07836e-06
6.07831e-06
6.07825e-06
6.0782e-06
6.07814e-06
6.07811e-06
6.07813e-06
6.07806e-06
6.07809e-06
6.08147e-06
6.08108e-06
6.08033e-06
6.07979e-06
6.07949e-06
6.07933e-06
6.07926e-06
6.07923e-06
6.07923e-06
6.07924e-06
6.07926e-06
6.07929e-06
6.07931e-06
6.07933e-06
6.07936e-06
6.07939e-06
6.07941e-06
6.07944e-06
6.07947e-06
6.0795e-06
6.07953e-06
6.07957e-06
6.07961e-06
6.07963e-06
6.07965e-06
6.07966e-06
6.07967e-06
6.07967e-06
6.07965e-06
6.07963e-06
6.0796e-06
6.07958e-06
6.07955e-06
6.07955e-06
6.07955e-06
6.07956e-06
6.07956e-06
6.07957e-06
6.07959e-06
6.07959e-06
6.07962e-06
6.08089e-06
6.08054e-06
6.0799e-06
6.07948e-06
6.07926e-06
6.07916e-06
6.07914e-06
6.07915e-06
6.07917e-06
6.07921e-06
6.07925e-06
6.07929e-06
6.07933e-06
6.07937e-06
6.07941e-06
6.07946e-06
6.0795e-06
6.07954e-06
6.07959e-06
6.07963e-06
6.07968e-06
6.07973e-06
6.07978e-06
6.07982e-06
6.07986e-06
6.07989e-06
6.07992e-06
6.07994e-06
6.07997e-06
6.07999e-06
6.08e-06
6.08002e-06
6.08004e-06
6.08006e-06
6.08007e-06
6.08009e-06
6.08011e-06
6.08013e-06
6.08014e-06
6.08017e-06
6.08018e-06
6.08041e-06
6.08008e-06
6.07954e-06
6.07921e-06
6.07906e-06
6.07902e-06
6.07903e-06
6.07907e-06
6.07911e-06
6.07917e-06
6.07923e-06
6.07929e-06
6.07934e-06
6.0794e-06
6.07946e-06
6.07951e-06
6.07957e-06
6.07962e-06
6.07968e-06
6.07973e-06
6.07979e-06
6.07985e-06
6.07991e-06
6.07996e-06
6.08001e-06
6.08005e-06
6.08009e-06
6.08013e-06
6.08016e-06
6.08019e-06
6.08022e-06
6.08025e-06
6.08028e-06
6.08031e-06
6.08034e-06
6.08037e-06
6.0804e-06
6.08043e-06
6.08045e-06
6.0805e-06
6.0805e-06
6.07999e-06
6.07968e-06
6.07923e-06
6.07898e-06
6.07889e-06
6.07889e-06
6.07893e-06
6.07899e-06
6.07905e-06
6.07912e-06
6.0792e-06
6.07927e-06
6.07934e-06
6.0794e-06
6.07947e-06
6.07954e-06
6.0796e-06
6.07967e-06
6.07973e-06
6.0798e-06
6.07986e-06
6.07993e-06
6.07999e-06
6.08005e-06
6.08011e-06
6.08016e-06
6.08021e-06
6.08025e-06
6.08029e-06
6.08033e-06
6.08037e-06
6.08041e-06
6.08044e-06
6.08048e-06
6.08051e-06
6.08055e-06
6.08058e-06
6.08061e-06
6.08064e-06
6.08068e-06
6.0807e-06
6.07961e-06
6.07932e-06
6.07896e-06
6.07878e-06
6.07874e-06
6.07877e-06
6.07883e-06
6.0789e-06
6.07898e-06
6.07907e-06
6.07915e-06
6.07923e-06
6.07931e-06
6.07938e-06
6.07946e-06
6.07953e-06
6.07961e-06
6.07968e-06
6.07975e-06
6.07982e-06
6.0799e-06
6.07997e-06
6.08004e-06
6.0801e-06
6.08016e-06
6.08022e-06
6.08028e-06
6.08033e-06
6.08037e-06
6.08042e-06
6.08046e-06
6.08051e-06
6.08055e-06
6.08059e-06
6.08063e-06
6.08067e-06
6.08071e-06
6.08075e-06
6.08078e-06
6.08083e-06
6.08085e-06
6.07925e-06
6.07899e-06
6.07871e-06
6.07859e-06
6.07859e-06
6.07864e-06
6.07872e-06
6.07881e-06
6.0789e-06
6.07899e-06
6.07908e-06
6.07917e-06
6.07926e-06
6.07934e-06
6.07942e-06
6.07951e-06
6.07959e-06
6.07966e-06
6.07974e-06
6.07982e-06
6.0799e-06
6.07998e-06
6.08005e-06
6.08012e-06
6.08018e-06
6.08025e-06
6.0803e-06
6.08036e-06
6.08041e-06
6.08046e-06
6.08051e-06
6.08056e-06
6.0806e-06
6.08065e-06
6.08069e-06
6.08073e-06
6.08077e-06
6.08082e-06
6.08085e-06
6.08091e-06
6.08092e-06
6.07891e-06
6.07869e-06
6.07848e-06
6.07841e-06
6.07843e-06
6.07851e-06
6.0786e-06
6.0787e-06
6.0788e-06
6.0789e-06
6.079e-06
6.07909e-06
6.07918e-06
6.07928e-06
6.07936e-06
6.07945e-06
6.07954e-06
6.07962e-06
6.0797e-06
6.07978e-06
6.07987e-06
6.07995e-06
6.08003e-06
6.0801e-06
6.08017e-06
6.08023e-06
6.0803e-06
6.08036e-06
6.08041e-06
6.08047e-06
6.08052e-06
6.08057e-06
6.08062e-06
6.08067e-06
6.08071e-06
6.08076e-06
6.0808e-06
6.08085e-06
6.08088e-06
6.08094e-06
6.08095e-06
6.07859e-06
6.07841e-06
6.07825e-06
6.07822e-06
6.07827e-06
6.07836e-06
6.07846e-06
6.07857e-06
6.07868e-06
6.07878e-06
6.07889e-06
6.07899e-06
6.07909e-06
6.07918e-06
6.07928e-06
6.07937e-06
6.07946e-06
6.07955e-06
6.07963e-06
6.07972e-06
6.07981e-06
6.07989e-06
6.07997e-06
6.08005e-06
6.08012e-06
6.08019e-06
6.08025e-06
6.08032e-06
6.08038e-06
6.08043e-06
6.08049e-06
6.08054e-06
6.08059e-06
6.08064e-06
6.08069e-06
6.08074e-06
6.08078e-06
6.08083e-06
6.08087e-06
6.08093e-06
6.08092e-06
6.07827e-06
6.07813e-06
6.07802e-06
6.07803e-06
6.0781e-06
6.0782e-06
6.07831e-06
6.07842e-06
6.07853e-06
6.07864e-06
6.07875e-06
6.07886e-06
6.07896e-06
6.07906e-06
6.07916e-06
6.07925e-06
6.07935e-06
6.07944e-06
6.07953e-06
6.07962e-06
6.07971e-06
6.0798e-06
6.07988e-06
6.07996e-06
6.08004e-06
6.08011e-06
6.08018e-06
6.08024e-06
6.0803e-06
6.08036e-06
6.08042e-06
6.08048e-06
6.08053e-06
6.08058e-06
6.08063e-06
6.08068e-06
6.08073e-06
6.08077e-06
6.08081e-06
6.08087e-06
6.08088e-06
6.07796e-06
6.07785e-06
6.07779e-06
6.07782e-06
6.07791e-06
6.07801e-06
6.07813e-06
6.07824e-06
6.07836e-06
6.07847e-06
6.07858e-06
6.07869e-06
6.0788e-06
6.07891e-06
6.07901e-06
6.07911e-06
6.07921e-06
6.07931e-06
6.0794e-06
6.07949e-06
6.07959e-06
6.07968e-06
6.07976e-06
6.07984e-06
6.07992e-06
6.07999e-06
6.08006e-06
6.08013e-06
6.0802e-06
6.08026e-06
6.08032e-06
6.08037e-06
6.08043e-06
6.08048e-06
6.08053e-06
6.08058e-06
6.08063e-06
6.08068e-06
6.08072e-06
6.08077e-06
6.08079e-06
6.07765e-06
6.07757e-06
6.07755e-06
6.0776e-06
6.0777e-06
6.07781e-06
6.07792e-06
6.07804e-06
6.07816e-06
6.07827e-06
6.07839e-06
6.0785e-06
6.07861e-06
6.07872e-06
6.07883e-06
6.07893e-06
6.07904e-06
6.07914e-06
6.07923e-06
6.07933e-06
6.07943e-06
6.07952e-06
6.07961e-06
6.07969e-06
6.07977e-06
6.07984e-06
6.07992e-06
6.07999e-06
6.08005e-06
6.08011e-06
6.08017e-06
6.08023e-06
6.08029e-06
6.08034e-06
6.08039e-06
6.08044e-06
6.08049e-06
6.08054e-06
6.08058e-06
6.08064e-06
6.08065e-06
6.07733e-06
6.07729e-06
6.07729e-06
6.07736e-06
6.07746e-06
6.07757e-06
6.07769e-06
6.07781e-06
6.07793e-06
6.07804e-06
6.07816e-06
6.07828e-06
6.07839e-06
6.0785e-06
6.07861e-06
6.07872e-06
6.07883e-06
6.07893e-06
6.07903e-06
6.07913e-06
6.07923e-06
6.07933e-06
6.07941e-06
6.0795e-06
6.07958e-06
6.07966e-06
6.07973e-06
6.0798e-06
6.07987e-06
6.07993e-06
6.07999e-06
6.08005e-06
6.08011e-06
6.08016e-06
6.08021e-06
6.08026e-06
6.08031e-06
6.08036e-06
6.0804e-06
6.08046e-06
6.08048e-06
6.07701e-06
6.07699e-06
6.07702e-06
6.0771e-06
6.0772e-06
6.07731e-06
6.07743e-06
6.07754e-06
6.07766e-06
6.07778e-06
6.0779e-06
6.07802e-06
6.07813e-06
6.07825e-06
6.07836e-06
6.07848e-06
6.07858e-06
6.07869e-06
6.0788e-06
6.0789e-06
6.079e-06
6.07909e-06
6.07919e-06
6.07927e-06
6.07936e-06
6.07943e-06
6.07951e-06
6.07958e-06
6.07965e-06
6.07971e-06
6.07977e-06
6.07983e-06
6.07989e-06
6.07994e-06
6.08e-06
6.08005e-06
6.08009e-06
6.08014e-06
6.08018e-06
6.08023e-06
6.08025e-06
6.07667e-06
6.07668e-06
6.07673e-06
6.07681e-06
6.07691e-06
6.07702e-06
6.07713e-06
6.07724e-06
6.07736e-06
6.07748e-06
6.0776e-06
6.07772e-06
6.07784e-06
6.07796e-06
6.07808e-06
6.07819e-06
6.0783e-06
6.07841e-06
6.07852e-06
6.07862e-06
6.07873e-06
6.07882e-06
6.07892e-06
6.079e-06
6.07909e-06
6.07917e-06
6.07924e-06
6.07932e-06
6.07938e-06
6.07945e-06
6.07951e-06
6.07957e-06
6.07963e-06
6.07968e-06
6.07973e-06
6.07978e-06
6.07983e-06
6.07987e-06
6.07991e-06
6.07996e-06
6.07999e-06
6.07632e-06
6.07635e-06
6.07641e-06
6.07649e-06
6.07659e-06
6.07669e-06
6.0768e-06
6.07691e-06
6.07702e-06
6.07714e-06
6.07726e-06
6.07739e-06
6.07751e-06
6.07763e-06
6.07775e-06
6.07786e-06
6.07798e-06
6.07809e-06
6.0782e-06
6.07831e-06
6.07841e-06
6.07851e-06
6.0786e-06
6.07869e-06
6.07878e-06
6.07886e-06
6.07893e-06
6.07901e-06
6.07907e-06
6.07914e-06
6.0792e-06
6.07926e-06
6.07931e-06
6.07937e-06
6.07942e-06
6.07946e-06
6.07951e-06
6.07955e-06
6.07959e-06
6.07964e-06
6.07966e-06
6.07595e-06
6.076e-06
6.07606e-06
6.07614e-06
6.07623e-06
6.07633e-06
6.07643e-06
6.07653e-06
6.07665e-06
6.07677e-06
6.07689e-06
6.07701e-06
6.07713e-06
6.07725e-06
6.07738e-06
6.07749e-06
6.07761e-06
6.07772e-06
6.07784e-06
6.07794e-06
6.07805e-06
6.07815e-06
6.07824e-06
6.07833e-06
6.07842e-06
6.0785e-06
6.07857e-06
6.07864e-06
6.07871e-06
6.07878e-06
6.07884e-06
6.07889e-06
6.07895e-06
6.079e-06
6.07905e-06
6.07909e-06
6.07914e-06
6.07918e-06
6.07922e-06
6.07926e-06
6.07928e-06
6.07557e-06
6.07563e-06
6.07569e-06
6.07576e-06
6.07584e-06
6.07593e-06
6.07602e-06
6.07612e-06
6.07623e-06
6.07635e-06
6.07647e-06
6.07659e-06
6.07671e-06
6.07683e-06
6.07696e-06
6.07708e-06
6.07719e-06
6.07731e-06
6.07742e-06
6.07753e-06
6.07763e-06
6.07773e-06
6.07783e-06
6.07791e-06
6.078e-06
6.07808e-06
6.07815e-06
6.07822e-06
6.07829e-06
6.07835e-06
6.07841e-06
6.07847e-06
6.07852e-06
6.07857e-06
6.07862e-06
6.07866e-06
6.0787e-06
6.07874e-06
6.07878e-06
6.07881e-06
6.07884e-06
6.07515e-06
6.07522e-06
6.07528e-06
6.07534e-06
6.07541e-06
6.07549e-06
6.07557e-06
6.07567e-06
6.07577e-06
6.07588e-06
6.076e-06
6.07612e-06
6.07624e-06
6.07636e-06
6.07648e-06
6.0766e-06
6.07672e-06
6.07683e-06
6.07694e-06
6.07705e-06
6.07715e-06
6.07725e-06
6.07735e-06
6.07743e-06
6.07752e-06
6.0776e-06
6.07767e-06
6.07774e-06
6.0778e-06
6.07786e-06
6.07792e-06
6.07797e-06
6.07802e-06
6.07807e-06
6.07811e-06
6.07815e-06
6.07819e-06
6.07823e-06
6.07826e-06
6.07829e-06
6.07831e-06
6.07472e-06
6.07479e-06
6.07484e-06
6.07489e-06
6.07494e-06
6.07501e-06
6.07508e-06
6.07517e-06
6.07527e-06
6.07537e-06
6.07549e-06
6.0756e-06
6.07572e-06
6.07584e-06
6.07595e-06
6.07607e-06
6.07619e-06
6.0763e-06
6.07641e-06
6.07651e-06
6.07661e-06
6.07671e-06
6.0768e-06
6.07688e-06
6.07696e-06
6.07704e-06
6.07711e-06
6.07718e-06
6.07724e-06
6.0773e-06
6.07735e-06
6.0774e-06
6.07745e-06
6.07749e-06
6.07753e-06
6.07757e-06
6.0776e-06
6.07763e-06
6.07766e-06
6.07769e-06
6.07771e-06
6.07425e-06
6.07432e-06
6.07436e-06
6.07439e-06
6.07443e-06
6.07449e-06
6.07455e-06
6.07463e-06
6.07472e-06
6.07481e-06
6.07492e-06
6.07503e-06
6.07514e-06
6.07525e-06
6.07536e-06
6.07547e-06
6.07558e-06
6.07569e-06
6.0758e-06
6.0759e-06
6.07599e-06
6.07609e-06
6.07617e-06
6.07625e-06
6.07633e-06
6.0764e-06
6.07647e-06
6.07653e-06
6.07659e-06
6.07664e-06
6.07669e-06
6.07674e-06
6.07678e-06
6.07682e-06
6.07686e-06
6.07689e-06
6.07692e-06
6.07695e-06
6.07697e-06
6.077e-06
6.07701e-06
6.07375e-06
6.07381e-06
6.07383e-06
6.07385e-06
6.07388e-06
6.07392e-06
6.07398e-06
6.07404e-06
6.07412e-06
6.0742e-06
6.07429e-06
6.07439e-06
6.07449e-06
6.0746e-06
6.0747e-06
6.07481e-06
6.07491e-06
6.07501e-06
6.07511e-06
6.0752e-06
6.07529e-06
6.07538e-06
6.07546e-06
6.07554e-06
6.07561e-06
6.07567e-06
6.07574e-06
6.07579e-06
6.07585e-06
6.0759e-06
6.07594e-06
6.07598e-06
6.07602e-06
6.07606e-06
6.07609e-06
6.07611e-06
6.07614e-06
6.07616e-06
6.07618e-06
6.0762e-06
6.07621e-06
6.07321e-06
6.07326e-06
6.07327e-06
6.07328e-06
6.07329e-06
6.07331e-06
6.07335e-06
6.0734e-06
6.07346e-06
6.07353e-06
6.07361e-06
6.0737e-06
6.07378e-06
6.07388e-06
6.07397e-06
6.07406e-06
6.07415e-06
6.07425e-06
6.07433e-06
6.07442e-06
6.0745e-06
6.07458e-06
6.07465e-06
6.07472e-06
6.07479e-06
6.07485e-06
6.0749e-06
6.07495e-06
6.075e-06
6.07504e-06
6.07508e-06
6.07512e-06
6.07515e-06
6.07518e-06
6.0752e-06
6.07522e-06
6.07524e-06
6.07526e-06
6.07527e-06
6.07528e-06
6.07529e-06
6.07263e-06
6.07267e-06
6.07266e-06
6.07266e-06
6.07265e-06
6.07267e-06
6.07269e-06
6.07272e-06
6.07276e-06
6.07281e-06
6.07287e-06
6.07294e-06
6.07301e-06
6.07308e-06
6.07316e-06
6.07324e-06
6.07332e-06
6.0734e-06
6.07347e-06
6.07354e-06
6.07361e-06
6.07368e-06
6.07374e-06
6.0738e-06
6.07385e-06
6.0739e-06
6.07395e-06
6.07399e-06
6.07403e-06
6.07407e-06
6.0741e-06
6.07413e-06
6.07416e-06
6.07418e-06
6.0742e-06
6.07421e-06
6.07423e-06
6.07424e-06
6.07425e-06
6.07426e-06
6.07425e-06
6.07201e-06
6.07203e-06
6.07202e-06
6.07199e-06
6.07198e-06
6.07197e-06
6.07198e-06
6.07199e-06
6.07202e-06
6.07205e-06
6.07208e-06
6.07213e-06
6.07218e-06
6.07223e-06
6.07228e-06
6.07234e-06
6.0724e-06
6.07246e-06
6.07251e-06
6.07257e-06
6.07262e-06
6.07267e-06
6.07272e-06
6.07276e-06
6.0728e-06
6.07284e-06
6.07288e-06
6.07291e-06
6.07294e-06
6.07296e-06
6.07298e-06
6.073e-06
6.07301e-06
6.07302e-06
6.07303e-06
6.07304e-06
6.07304e-06
6.07304e-06
6.07303e-06
6.07303e-06
6.07302e-06
6.07134e-06
6.07135e-06
6.07132e-06
6.07129e-06
6.07126e-06
6.07125e-06
6.07123e-06
6.07123e-06
6.07123e-06
6.07124e-06
6.07125e-06
6.07127e-06
6.07129e-06
6.07132e-06
6.07134e-06
6.07137e-06
6.0714e-06
6.07143e-06
6.07146e-06
6.07149e-06
6.07152e-06
6.07154e-06
6.07157e-06
6.07159e-06
6.07161e-06
6.07163e-06
6.07165e-06
6.07166e-06
6.07168e-06
6.07169e-06
6.0717e-06
6.07171e-06
6.07171e-06
6.07172e-06
6.07172e-06
6.07172e-06
6.07172e-06
6.07171e-06
6.07171e-06
6.07171e-06
6.07169e-06
6.07062e-06
6.07062e-06
6.07058e-06
6.07055e-06
6.07052e-06
6.07049e-06
6.07046e-06
6.07044e-06
6.07043e-06
6.07042e-06
6.0704e-06
6.07039e-06
6.07038e-06
6.07037e-06
6.07037e-06
6.07036e-06
6.07035e-06
6.07034e-06
6.07034e-06
6.07033e-06
6.07032e-06
6.07032e-06
6.07031e-06
6.07031e-06
6.0703e-06
6.0703e-06
6.07029e-06
6.07028e-06
6.07028e-06
6.07026e-06
6.07025e-06
6.07024e-06
6.07022e-06
6.0702e-06
6.07018e-06
6.07015e-06
6.07013e-06
6.0701e-06
6.07007e-06
6.07004e-06
6.07e-06
6.06984e-06
6.06983e-06
6.0698e-06
6.06977e-06
6.06973e-06
6.0697e-06
6.06968e-06
6.06965e-06
6.06962e-06
6.06959e-06
6.06956e-06
6.06953e-06
6.06949e-06
6.06945e-06
6.0694e-06
6.06936e-06
6.06931e-06
6.06926e-06
6.06921e-06
6.06916e-06
6.06911e-06
6.06907e-06
6.06903e-06
6.06899e-06
6.06896e-06
6.06893e-06
6.0689e-06
6.06887e-06
6.06885e-06
6.06883e-06
6.06882e-06
6.0688e-06
6.06879e-06
6.06879e-06
6.06878e-06
6.06878e-06
6.06879e-06
6.06879e-06
6.0688e-06
6.06881e-06
6.06882e-06
6.06901e-06
6.069e-06
6.06897e-06
6.06895e-06
6.06893e-06
6.06891e-06
6.06888e-06
6.06886e-06
6.06883e-06
6.0688e-06
6.06876e-06
6.06871e-06
6.06865e-06
6.06858e-06
6.06851e-06
6.06843e-06
6.06837e-06
6.06832e-06
6.06828e-06
6.06826e-06
6.06825e-06
6.06826e-06
6.06828e-06
6.06831e-06
6.06834e-06
6.06838e-06
6.06841e-06
6.06845e-06
6.06848e-06
6.06852e-06
6.06856e-06
6.0686e-06
6.06863e-06
6.06867e-06
6.06872e-06
6.06875e-06
6.06879e-06
6.06882e-06
6.06886e-06
6.0689e-06
6.06895e-06
6.0681e-06
6.06809e-06
6.06809e-06
6.06808e-06
6.06808e-06
6.06808e-06
6.06807e-06
6.06807e-06
6.06806e-06
6.06805e-06
6.06802e-06
6.06799e-06
6.06795e-06
6.0679e-06
6.06782e-06
6.06778e-06
6.0678e-06
6.06785e-06
6.06794e-06
6.06805e-06
6.06818e-06
6.06832e-06
6.06848e-06
6.06865e-06
6.06882e-06
6.069e-06
6.06918e-06
6.06937e-06
6.06955e-06
6.06973e-06
6.0699e-06
6.07007e-06
6.07023e-06
6.07038e-06
6.07052e-06
6.07065e-06
6.07078e-06
6.0709e-06
6.07101e-06
6.07111e-06
6.0712e-06
0.000622094
0.000823958
0.000968651
0.0010772
0.00116213
0.00123065
0.0012874
0.00133552
0.0013772
0.00141398
0.00144702
0.00147716
0.00150498
0.0015309
0.00155526
0.00157831
0.00160008
0.00162062
0.00163986
0.00165765
0.00167424
0.00169282
0.00171237
0.00173187
0.00175056
0.00176789
0.00178318
0.00179624
0.00180775
0.0018176
0.00182511
0.00182947
0.00182983
0.00182545
0.00181593
0.00180083
0.00177958
0.00175151
0.00171585
0.00167185
0.00161883
0.00155618
0.00148333
0.00139979
0.00130521
0.00119949
0.00108292
0.000956432
0.000821869
0.000682247
0.00054194
0.000406542
0.000282052
0.000172708
7.77704e-05
1.24065e-05
4.2168e-07
2.43775e-08
6.32083e-08
5.35468e-07
2.34908e-06
5.40146e-06
8.08582e-06
9.28852e-06
9.12072e-06
8.24642e-06
7.25647e-06
6.46317e-06
5.95398e-06
5.70206e-06
5.64081e-06
5.70213e-06
5.80974e-06
6.00332e-06
0.000901815
0.0010408
0.00113782
0.00120994
0.00126763
0.00131578
0.00135709
0.00139341
0.00142607
0.00145597
0.00148379
0.00150998
0.00153488
0.00155868
0.00158148
0.00160329
0.00162416
0.00164413
0.00166307
0.00168079
0.00169709
0.00171297
0.00172882
0.00174444
0.00175941
0.00177332
0.00178542
0.00179724
0.00181173
0.0018273
0.00184241
0.00185597
0.00186689
0.0018749
0.00188038
0.00188303
0.00188207
0.00187658
0.00186554
0.00184816
0.00182387
0.00179208
0.00175213
0.0017033
0.00164483
0.00157599
0.00149614
0.00140482
0.00130179
0.00118715
0.0010616
0.000926687
0.0007851
0.000640864
0.000499278
0.000366366
0.000247559
0.000145118
5.72385e-05
6.84292e-06
2.08191e-07
1.30921e-08
3.71062e-08
3.31131e-07
1.58641e-06
4.0819e-06
6.85529e-06
8.75565e-06
9.41391e-06
9.11026e-06
8.32377e-06
7.44045e-06
6.71819e-06
5.98357e-06
0.00104187
0.00112945
0.00119152
0.00123656
0.00127214
0.00130252
0.00133018
0.00135659
0.00138254
0.00140844
0.00143448
0.00146073
0.0014872
0.00151381
0.00154045
0.00156697
0.00159317
0.00161879
0.00164366
0.00166769
0.00169056
0.00171224
0.00173286
0.00175244
0.00177082
0.00178776
0.00180279
0.00181596
0.00182842
0.00184057
0.00185212
0.00186254
0.00187068
0.00187918
0.00189065
0.00190317
0.00191483
0.00192427
0.00193005
0.0019321
0.00193048
0.00192464
0.00191368
0.00189662
0.00187239
0.0018401
0.00179903
0.0017485
0.00168778
0.00161614
0.00153293
0.00143765
0.00133012
0.0012107
0.00108052
0.000941695
0.000797521
0.000652425
0.000511693
0.000380801
0.00026431
0.00016403
7.74258e-05
1.53437e-05
6.85855e-07
1.26265e-08
2.76317e-09
3.06557e-08
3.10874e-07
1.4293e-06
3.66125e-06
6.32591e-06
8.51923e-06
9.77972e-06
0.00104573
0.00106051
0.00106698
0.00107217
0.00107974
0.0010903
0.0011041
0.00112143
0.00114232
0.00116663
0.00119413
0.00122454
0.0012575
0.00129264
0.00132954
0.0013678
0.00140697
0.00144661
0.0014863
0.0015255
0.00156382
0.00160101
0.0016369
0.00167126
0.00170385
0.00173446
0.00176283
0.00178872
0.00181223
0.00183358
0.00185282
0.00186988
0.00188421
0.00189605
0.00190664
0.00191642
0.0019251
0.00193223
0.00193607
0.00194232
0.00195143
0.00196114
0.00196938
0.00197463
0.00197526
0.00197111
0.00196195
0.00194712
0.00192565
0.00189649
0.00185853
0.00181077
0.00175234
0.00168251
0.00160065
0.00150642
0.00139981
0.00128142
0.00115258
0.0010155
0.000873354
0.000730096
0.000590245
0.000458417
0.000338682
0.000233664
0.000143114
6.40534e-05
1.12174e-05
4.11589e-07
2.11809e-09
1.18659e-11
3.25552e-10
1.37046e-07
0.000834909
0.000787291
0.000744396
0.000711029
0.000688224
0.000674254
0.000667768
0.000668244
0.000675395
0.000688999
0.000708916
0.000735049
0.000767275
0.00080539
0.000849085
0.00089792
0.000951312
0.00100854
0.00106875
0.00113102
0.00119438
0.00125777
0.00132036
0.00138111
0.00143946
0.00149538
0.00154891
0.00159996
0.00164833
0.00169382
0.00173616
0.0017751
0.0018103
0.00184151
0.00186881
0.00189255
0.00191295
0.00193022
0.00194374
0.00195458
0.00196398
0.0019723
0.00197914
0.00198408
0.00198488
0.00198914
0.00199616
0.00200347
0.00200885
0.00201062
0.00200714
0.00199766
0.00198173
0.00195865
0.00192746
0.00188709
0.0018365
0.00177471
0.00170103
0.00161511
0.00151703
0.00140736
0.00128727
0.00115856
0.0010237
0.000885704
0.000748065
0.000614472
0.000488532
0.000373324
0.000271163
0.000181309
0.000107953
1.57398e-05
0.000407125
0.000358078
0.00031373
0.000277543
0.000249549
0.000228025
0.000211527
0.000199355
0.000191173
0.000186833
0.000186356
0.000189911
0.000197777
0.000210324
0.000228007
0.000251361
0.000280987
0.000317526
0.000361598
0.000413721
0.00047422
0.000543135
0.000620059
0.000704515
0.000795294
0.000890727
0.000987828
0.00108407
0.00117741
0.0012663
0.00134978
0.00142739
0.0014991
0.00156515
0.00162591
0.00168178
0.00173307
0.00177998
0.00182236
0.00186006
0.00189312
0.00192175
0.00194607
0.00196623
0.00198155
0.00199341
0.00200316
0.0020113
0.0020176
0.00202166
0.00202158
0.00202296
0.00202728
0.00203232
0.00203571
0.00203542
0.00202983
0.00201726
0.00199697
0.00196831
0.00193058
0.00188298
0.00182483
0.00175561
0.00167513
0.00158353
0.00148142
0.00136985
0.00125044
0.00112498
0.000996901
0.000864023
0.000751727
0.00055848
6.21777e-05
3.82617e-05
2.03173e-05
9.97598e-06
4.8992e-06
2.51284e-06
1.36769e-06
7.97054e-07
4.99891e-07
3.37846e-07
2.45992e-07
1.9299e-07
1.63448e-07
1.50249e-07
1.5153e-07
1.7054e-07
2.18942e-07
3.27798e-07
5.80311e-07
1.20948e-06
2.87789e-06
7.34649e-06
1.83123e-05
4.02322e-05
7.39424e-05
0.000116277
0.000166594
0.000226143
0.000296502
0.000378592
0.000472368
0.000576434
0.000688473
0.000805583
0.000924599
0.00104242
0.00115631
0.00126411
0.00136432
0.0014561
0.0015392
0.00161386
0.00168063
0.00174021
0.00179308
0.00183967
0.00188052
0.00191614
0.00194682
0.00197277
0.00199349
0.00200973
0.00202276
0.00203333
0.00204154
0.00204697
0.00204933
0.00204635
0.00204572
0.00204724
0.00204863
0.00204758
0.00204217