/*--------------------------------*- C++ -*----------------------------------*\
| =========                 |                                                 |
| \\      /  F ield         | OpenFOAM: The Open Source CFD Toolbox           |
|  \\    /   O peration     | Version:  2312                                  |
|   \\  /    A nd           | Website:  www.openfoam.com                      |
|    \\/     M anipulation  |                                                 |
\*---------------------------------------------------------------------------*/
FoamFile
{
    version     2.0;
    format      ascii;
    arch        "LSB;label=32;scalar=64";
    class       volScalarField;
    location    "249";
    object      nuTilda;
}
// * * * * * * * * * * * * * * * * * * * * * * * * * * * * * * * * * * * * * //

dimensions      [0 2 -1 0 0 0 0];

internalField   nonuniform List<scalar> 
11040
(
4.22792e-05
5.49481e-05
7.75487e-05
0.000118035
0.00018653
0.00029814
0.00044059
0.000557481
0.000621613
0.000649076
0.000660961
0.000667674
0.000672239
0.000674787
0.000674883
0.000672555
0.000668081
0.000661901
0.000654387
0.000645852
0.000636098
0.000625977
0.000616952
0.000609325
0.000602688
0.000596517
0.000590476
0.00058446
0.000578372
0.000572081
0.000565416
0.00055818
0.00055015
0.000540993
0.000530271
0.000517524
0.000501949
0.000482876
0.000456553
0.000428298
0.000354042
3.9992e-05
4.00799e-05
4.10747e-05
4.2774e-05
4.9184e-05
6.55232e-05
9.77999e-05
0.000147018
0.000207321
0.000271381
0.000334623
0.0003949
0.000450251
0.000498504
0.000538294
0.000569239
0.000592202
0.000608927
0.00062155
0.00063201
0.000642009
0.000651319
0.000658682
0.000664378
0.000669013
0.000673031
0.000676766
0.000680403
0.000684065
0.000687833
0.000691774
0.000695939
0.000700363
0.000705089
0.00071016
0.000715573
0.000721341
0.000727351
0.000733287
0.000740294
0.000724335
4.00651e-05
4.01863e-05
4.00603e-05
4.00954e-05
4.02876e-05
4.0667e-05
4.13866e-05
4.28706e-05
4.57257e-05
5.12548e-05
6.01436e-05
7.47683e-05
9.63857e-05
0.000125866
0.000163348
0.000208094
0.000258633
0.00031296
0.00036899
0.000424755
0.000478971
0.000528243
0.000570217
0.000606205
0.000637376
0.000664737
0.000689215
0.000711571
0.000732408
0.000752178
0.000771203
0.000789705
0.000807833
0.000825725
0.000843471
0.000861065
0.000878638
0.000896048
0.000913998
0.00093193
0.00093866
4.00834e-05
4.00947e-05
4.01365e-05
4.0193e-05
4.02595e-05
4.03488e-05
4.04693e-05
4.06188e-05
4.08309e-05
4.09845e-05
4.10159e-05
4.0966e-05
4.10508e-05
4.16778e-05
4.3512e-05
4.74773e-05
5.47312e-05
6.65526e-05
8.43294e-05
0.000109306
0.000143223
0.000184281
0.00022842
0.000274558
0.000321981
0.000369827
0.000417453
0.000464321
0.000510076
0.000554506
0.000597569
0.000639356
0.000680039
0.000720044
0.000759774
0.00079956
0.000839749
0.000881239
0.000924553
0.000969307
0.00101897
4.01067e-05
4.00875e-05
4.00775e-05
4.0073e-05
4.00299e-05
4.00276e-05
4.00499e-05
4.00897e-05
4.0145e-05
4.02144e-05
4.02964e-05
4.03906e-05
4.0455e-05
4.04392e-05
4.02918e-05
3.99813e-05
3.9521e-05
3.90063e-05
3.8647e-05
3.88063e-05
4.01654e-05
4.35709e-05
4.92399e-05
5.73681e-05
6.83341e-05
8.24153e-05
9.9906e-05
0.000121037
0.000146012
0.00017498
0.000208085
0.000245491
0.000287325
0.000334025
0.00038599
0.000443621
0.000507123
0.000578487
0.000658495
0.000745045
0.00087004
4.01128e-05
4.0071e-05
4.00565e-05
4.00556e-05
4.00617e-05
4.0067e-05
4.00719e-05
4.00805e-05
4.00952e-05
4.01173e-05
4.01472e-05
4.01854e-05
4.02312e-05
4.02821e-05
4.03317e-05
4.03664e-05
4.03631e-05
4.02891e-05
4.00977e-05
3.97399e-05
3.91155e-05
3.82519e-05
3.73866e-05
3.66153e-05
3.59774e-05
3.55491e-05
3.54299e-05
3.57607e-05
3.67353e-05
3.86153e-05
4.17515e-05
4.66217e-05
5.38383e-05
6.43211e-05
7.92616e-05
0.000100288
0.000129276
0.000169868
0.000227076
0.000298701
0.000440314
4.00977e-05
4.00683e-05
4.00481e-05
4.00417e-05
4.00413e-05
4.003e-05
4.00148e-05
4.00103e-05
4.00131e-05
4.00204e-05
4.00314e-05
4.00464e-05
4.00655e-05
4.00883e-05
4.01146e-05
4.01444e-05
4.01778e-05
4.0214e-05
4.025e-05
4.02798e-05
4.02859e-05
4.024e-05
4.0145e-05
4.00076e-05
3.98198e-05
3.95741e-05
3.92574e-05
3.88538e-05
3.83418e-05
3.76989e-05
3.69004e-05
3.59255e-05
3.47741e-05
3.34696e-05
3.21324e-05
3.10478e-05
3.08714e-05
3.25395e-05
4.00737e-05
5.08729e-05
0.000103362
4.00869e-05
4.00625e-05
4.0044e-05
4.00364e-05
4.0034e-05
4.00338e-05
4.00338e-05
4.0032e-05
4.0029e-05
4.00271e-05
4.0027e-05
4.00291e-05
4.00335e-05
4.00402e-05
4.00488e-05
4.00588e-05
4.00704e-05
4.00836e-05
4.0099e-05
4.01172e-05
4.01401e-05
4.01673e-05
4.01945e-05
4.02194e-05
4.02414e-05
4.02592e-05
4.02709e-05
4.02736e-05
4.02622e-05
4.02283e-05
4.01584e-05
4.00295e-05
3.98091e-05
3.94278e-05
3.88053e-05
3.78087e-05
3.63136e-05
3.38817e-05
3.08403e-05
2.56037e-05
2.36124e-05
4.00763e-05
4.00569e-05
4.00433e-05
4.00334e-05
4.00296e-05
4.00281e-05
4.00263e-05
4.00213e-05
4.00159e-05
4.00094e-05
4.0008e-05
4.00089e-05
4.00112e-05
4.00148e-05
4.00197e-05
4.00257e-05
4.00324e-05
4.00398e-05
4.00479e-05
4.00566e-05
4.00659e-05
4.00757e-05
4.0086e-05
4.00967e-05
4.01079e-05
4.01196e-05
4.01321e-05
4.01455e-05
4.01602e-05
4.01768e-05
4.01958e-05
4.02178e-05
4.02426e-05
4.02681e-05
4.02871e-05
4.02799e-05
4.02039e-05
3.9969e-05
3.92831e-05
3.8181e-05
3.38384e-05
4.00671e-05
4.00523e-05
4.00413e-05
4.0034e-05
4.0028e-05
4.00259e-05
4.0025e-05
4.00249e-05
4.00217e-05
4.00179e-05
4.0014e-05
4.001e-05
4.00059e-05
4.00015e-05
3.99985e-05
3.99977e-05
3.9998e-05
3.99988e-05
4.00001e-05
4.00018e-05
4.00039e-05
4.00065e-05
4.00093e-05
4.00122e-05
4.00153e-05
4.00184e-05
4.00216e-05
4.00249e-05
4.00282e-05
4.00318e-05
4.00357e-05
4.00405e-05
4.00468e-05
4.00563e-05
4.00703e-05
4.00929e-05
4.01273e-05
4.01971e-05
4.02494e-05
4.04403e-05
4.0081e-05
4.00588e-05
4.00483e-05
4.00393e-05
4.00327e-05
4.00281e-05
4.00248e-05
4.00235e-05
4.00229e-05
4.00208e-05
4.00184e-05
4.00159e-05
4.00132e-05
4.00117e-05
4.00115e-05
4.0012e-05
4.00129e-05
4.00143e-05
4.00159e-05
4.00177e-05
4.00196e-05
4.00214e-05
4.00231e-05
4.00248e-05
4.00267e-05
4.00286e-05
4.00307e-05
4.00329e-05
4.0035e-05
4.0037e-05
4.00389e-05
4.00407e-05
4.00421e-05
4.00433e-05
4.0044e-05
4.00446e-05
4.00451e-05
4.00469e-05
4.00516e-05
4.00678e-05
4.01042e-05
4.0239e-05
4.00518e-05
4.00448e-05
4.00367e-05
4.0031e-05
4.00273e-05
4.00244e-05
4.00231e-05
4.00227e-05
4.00228e-05
4.00216e-05
4.00201e-05
4.00185e-05
4.00167e-05
4.00148e-05
4.00128e-05
4.00107e-05
4.00085e-05
4.00063e-05
4.0004e-05
4.00016e-05
3.99994e-05
3.99971e-05
3.99957e-05
3.99953e-05
3.99953e-05
3.99955e-05
3.99958e-05
3.99962e-05
3.99965e-05
3.99969e-05
3.99972e-05
3.99973e-05
3.99964e-05
3.99954e-05
3.99943e-05
3.99934e-05
3.99926e-05
3.99921e-05
3.99943e-05
3.9991e-05
4.00115e-05
4.00459e-05
4.00404e-05
4.00338e-05
4.00294e-05
4.00265e-05
4.00247e-05
4.00236e-05
4.00234e-05
4.00235e-05
4.00234e-05
4.00226e-05
4.00216e-05
4.00205e-05
4.00193e-05
4.00181e-05
4.00168e-05
4.00164e-05
4.00165e-05
4.00168e-05
4.00172e-05
4.00177e-05
4.00179e-05
4.00181e-05
4.00184e-05
4.00187e-05
4.00191e-05
4.00195e-05
4.002e-05
4.00204e-05
4.00208e-05
4.00211e-05
4.00213e-05
4.00213e-05
4.0021e-05
4.00206e-05
4.0019e-05
4.0017e-05
4.00147e-05
4.0012e-05
4.00101e-05
4.00073e-05
4.00409e-05
4.00369e-05
4.00316e-05
4.00281e-05
4.00262e-05
4.0025e-05
4.00247e-05
4.00246e-05
4.00246e-05
4.00246e-05
4.00245e-05
4.00244e-05
4.00238e-05
4.0023e-05
4.00221e-05
4.00212e-05
4.00202e-05
4.00191e-05
4.0018e-05
4.00169e-05
4.00157e-05
4.00145e-05
4.00135e-05
4.00124e-05
4.00114e-05
4.00105e-05
4.001e-05
4.00097e-05
4.00095e-05
4.00092e-05
4.00088e-05
4.00082e-05
4.00075e-05
4.00069e-05
4.00064e-05
4.00059e-05
4.00055e-05
4.0005e-05
4.00055e-05
4.00049e-05
4.00061e-05
4.00369e-05
4.0034e-05
4.00298e-05
4.00272e-05
4.00261e-05
4.00254e-05
4.00248e-05
4.00243e-05
4.0024e-05
4.00238e-05
4.00236e-05
4.00235e-05
4.00235e-05
4.00235e-05
4.00234e-05
4.00228e-05
4.00222e-05
4.00215e-05
4.00208e-05
4.002e-05
4.00193e-05
4.00185e-05
4.00178e-05
4.0017e-05
4.00163e-05
4.00156e-05
4.0015e-05
4.00143e-05
4.00137e-05
4.0013e-05
4.00124e-05
4.00117e-05
4.00111e-05
4.00104e-05
4.00098e-05
4.00092e-05
4.00089e-05
4.00088e-05
4.00086e-05
4.00088e-05
4.00088e-05
4.00337e-05
4.00317e-05
4.00283e-05
4.00264e-05
4.0025e-05
4.0024e-05
4.00232e-05
4.00226e-05
4.00223e-05
4.00222e-05
4.00222e-05
4.00222e-05
4.00223e-05
4.00224e-05
4.00226e-05
4.00227e-05
4.00229e-05
4.00231e-05
4.00233e-05
4.00234e-05
4.00236e-05
4.00238e-05
4.0024e-05
4.00242e-05
4.00245e-05
4.00247e-05
4.0025e-05
4.00253e-05
4.00256e-05
4.00259e-05
4.00262e-05
4.00265e-05
4.00267e-05
4.0027e-05
4.00271e-05
4.00272e-05
4.00273e-05
4.00273e-05
4.00271e-05
4.00271e-05
4.0027e-05
4.00311e-05
4.00297e-05
4.0027e-05
4.0025e-05
4.00235e-05
4.00225e-05
4.00217e-05
4.00214e-05
4.00212e-05
4.00211e-05
4.00211e-05
4.0021e-05
4.0021e-05
4.0021e-05
4.00209e-05
4.00209e-05
4.00209e-05
4.00209e-05
4.00208e-05
4.00208e-05
4.00207e-05
4.00206e-05
4.00206e-05
4.00205e-05
4.00205e-05
4.00205e-05
4.00205e-05
4.00206e-05
4.00206e-05
4.00206e-05
4.00207e-05
4.00207e-05
4.00208e-05
4.00209e-05
4.0021e-05
4.00211e-05
4.00213e-05
4.00215e-05
4.00217e-05
4.00221e-05
4.00224e-05
4.00289e-05
4.00278e-05
4.00259e-05
4.00241e-05
4.0023e-05
4.00223e-05
4.00219e-05
4.00216e-05
4.00213e-05
4.00211e-05
4.00208e-05
4.00206e-05
4.00203e-05
4.00201e-05
4.00199e-05
4.00196e-05
4.00194e-05
4.00191e-05
4.00189e-05
4.00186e-05
4.00184e-05
4.00181e-05
4.00179e-05
4.00177e-05
4.00175e-05
4.00173e-05
4.00171e-05
4.00169e-05
4.00167e-05
4.00165e-05
4.00163e-05
4.00161e-05
4.00159e-05
4.00158e-05
4.00156e-05
4.00154e-05
4.00153e-05
4.00151e-05
4.0015e-05
4.00148e-05
4.0015e-05
4.00271e-05
4.00262e-05
4.00245e-05
4.00233e-05
4.00225e-05
4.00221e-05
4.00219e-05
4.00217e-05
4.00216e-05
4.00214e-05
4.00213e-05
4.00212e-05
4.00211e-05
4.0021e-05
4.00209e-05
4.00208e-05
4.00207e-05
4.00206e-05
4.00206e-05
4.00207e-05
4.00207e-05
4.00208e-05
4.00208e-05
4.00209e-05
4.00209e-05
4.00208e-05
4.00206e-05
4.00205e-05
4.00204e-05
4.00203e-05
4.00202e-05
4.00201e-05
4.002e-05
4.00198e-05
4.00197e-05
4.00196e-05
4.00195e-05
4.00195e-05
4.00195e-05
4.00194e-05
4.00194e-05
4.00257e-05
4.0025e-05
4.00236e-05
4.00226e-05
4.0022e-05
4.00218e-05
4.00216e-05
4.00216e-05
4.00216e-05
4.00216e-05
4.00216e-05
4.00217e-05
4.00217e-05
4.00218e-05
4.00218e-05
4.00218e-05
4.00219e-05
4.00219e-05
4.0022e-05
4.00221e-05
4.00221e-05
4.00222e-05
4.00223e-05
4.00223e-05
4.00223e-05
4.00224e-05
4.00224e-05
4.00224e-05
4.00223e-05
4.00223e-05
4.00222e-05
4.00222e-05
4.00222e-05
4.00221e-05
4.00222e-05
4.00222e-05
4.00222e-05
4.00222e-05
4.00222e-05
4.00222e-05
4.00223e-05
4.00246e-05
4.0024e-05
4.00228e-05
4.0022e-05
4.00216e-05
4.00214e-05
4.00214e-05
4.00214e-05
4.00215e-05
4.00215e-05
4.00216e-05
4.00217e-05
4.00217e-05
4.00218e-05
4.00219e-05
4.0022e-05
4.00221e-05
4.00221e-05
4.00222e-05
4.00223e-05
4.00224e-05
4.00225e-05
4.00226e-05
4.00227e-05
4.00227e-05
4.00228e-05
4.00228e-05
4.00229e-05
4.00229e-05
4.0023e-05
4.0023e-05
4.0023e-05
4.00231e-05
4.00231e-05
4.00231e-05
4.00232e-05
4.00232e-05
4.00232e-05
4.00233e-05
4.00233e-05
4.00233e-05
4.00237e-05
4.00231e-05
4.00221e-05
4.00215e-05
4.00212e-05
4.00212e-05
4.00212e-05
4.00213e-05
4.00213e-05
4.00214e-05
4.00216e-05
4.00217e-05
4.00218e-05
4.00219e-05
4.0022e-05
4.00221e-05
4.00222e-05
4.00223e-05
4.00224e-05
4.00225e-05
4.00226e-05
4.00227e-05
4.00228e-05
4.00229e-05
4.0023e-05
4.00231e-05
4.00232e-05
4.00232e-05
4.00233e-05
4.00233e-05
4.00234e-05
4.00235e-05
4.00235e-05
4.00236e-05
4.00236e-05
4.00237e-05
4.00237e-05
4.00238e-05
4.00238e-05
4.00239e-05
4.00239e-05
4.0023e-05
4.00224e-05
4.00216e-05
4.00211e-05
4.00209e-05
4.00209e-05
4.0021e-05
4.00211e-05
4.00212e-05
4.00214e-05
4.00215e-05
4.00216e-05
4.00218e-05
4.00219e-05
4.0022e-05
4.00221e-05
4.00222e-05
4.00224e-05
4.00225e-05
4.00226e-05
4.00227e-05
4.00229e-05
4.0023e-05
4.00231e-05
4.00232e-05
4.00233e-05
4.00234e-05
4.00235e-05
4.00235e-05
4.00236e-05
4.00237e-05
4.00237e-05
4.00238e-05
4.00239e-05
4.00239e-05
4.0024e-05
4.00241e-05
4.00241e-05
4.00242e-05
4.00243e-05
4.00243e-05
4.00223e-05
4.00217e-05
4.00211e-05
4.00207e-05
4.00206e-05
4.00207e-05
4.00208e-05
4.0021e-05
4.00211e-05
4.00213e-05
4.00214e-05
4.00216e-05
4.00217e-05
4.00218e-05
4.0022e-05
4.00221e-05
4.00223e-05
4.00224e-05
4.00225e-05
4.00227e-05
4.00228e-05
4.00229e-05
4.00231e-05
4.00232e-05
4.00233e-05
4.00234e-05
4.00235e-05
4.00236e-05
4.00237e-05
4.00238e-05
4.00239e-05
4.00239e-05
4.0024e-05
4.00241e-05
4.00242e-05
4.00242e-05
4.00243e-05
4.00244e-05
4.00244e-05
4.00245e-05
4.00246e-05
4.00216e-05
4.00211e-05
4.00206e-05
4.00204e-05
4.00204e-05
4.00205e-05
4.00206e-05
4.00208e-05
4.00209e-05
4.00211e-05
4.00213e-05
4.00214e-05
4.00216e-05
4.00218e-05
4.00219e-05
4.00221e-05
4.00222e-05
4.00224e-05
4.00225e-05
4.00227e-05
4.00228e-05
4.00229e-05
4.00231e-05
4.00232e-05
4.00233e-05
4.00234e-05
4.00236e-05
4.00237e-05
4.00238e-05
4.00238e-05
4.00239e-05
4.0024e-05
4.00241e-05
4.00242e-05
4.00243e-05
4.00244e-05
4.00244e-05
4.00245e-05
4.00246e-05
4.00247e-05
4.00247e-05
4.0021e-05
4.00206e-05
4.00202e-05
4.002e-05
4.00201e-05
4.00202e-05
4.00204e-05
4.00206e-05
4.00208e-05
4.00209e-05
4.00211e-05
4.00213e-05
4.00215e-05
4.00216e-05
4.00218e-05
4.0022e-05
4.00221e-05
4.00223e-05
4.00224e-05
4.00226e-05
4.00227e-05
4.00229e-05
4.0023e-05
4.00232e-05
4.00233e-05
4.00234e-05
4.00235e-05
4.00236e-05
4.00238e-05
4.00239e-05
4.0024e-05
4.0024e-05
4.00241e-05
4.00242e-05
4.00243e-05
4.00244e-05
4.00245e-05
4.00246e-05
4.00246e-05
4.00247e-05
4.00248e-05
4.00204e-05
4.002e-05
4.00197e-05
4.00197e-05
4.00198e-05
4.00199e-05
4.00201e-05
4.00203e-05
4.00205e-05
4.00207e-05
4.00209e-05
4.00211e-05
4.00213e-05
4.00215e-05
4.00216e-05
4.00218e-05
4.0022e-05
4.00221e-05
4.00223e-05
4.00225e-05
4.00226e-05
4.00228e-05
4.00229e-05
4.00231e-05
4.00232e-05
4.00233e-05
4.00235e-05
4.00236e-05
4.00237e-05
4.00238e-05
4.00239e-05
4.0024e-05
4.00241e-05
4.00242e-05
4.00243e-05
4.00244e-05
4.00244e-05
4.00245e-05
4.00246e-05
4.00247e-05
4.00247e-05
4.00198e-05
4.00195e-05
4.00193e-05
4.00193e-05
4.00195e-05
4.00196e-05
4.00198e-05
4.00201e-05
4.00203e-05
4.00205e-05
4.00207e-05
4.00209e-05
4.00211e-05
4.00212e-05
4.00214e-05
4.00216e-05
4.00218e-05
4.0022e-05
4.00221e-05
4.00223e-05
4.00225e-05
4.00226e-05
4.00228e-05
4.00229e-05
4.00231e-05
4.00232e-05
4.00233e-05
4.00234e-05
4.00236e-05
4.00237e-05
4.00238e-05
4.00239e-05
4.0024e-05
4.00241e-05
4.00242e-05
4.00243e-05
4.00243e-05
4.00244e-05
4.00245e-05
4.00246e-05
4.00246e-05
4.00192e-05
4.0019e-05
4.00189e-05
4.00189e-05
4.00191e-05
4.00193e-05
4.00195e-05
4.00197e-05
4.00199e-05
4.00202e-05
4.00204e-05
4.00206e-05
4.00208e-05
4.0021e-05
4.00211e-05
4.00213e-05
4.00215e-05
4.00217e-05
4.00219e-05
4.0022e-05
4.00222e-05
4.00224e-05
4.00225e-05
4.00227e-05
4.00228e-05
4.0023e-05
4.00231e-05
4.00232e-05
4.00234e-05
4.00235e-05
4.00236e-05
4.00237e-05
4.00238e-05
4.00239e-05
4.0024e-05
4.00241e-05
4.00242e-05
4.00242e-05
4.00243e-05
4.00244e-05
4.00244e-05
4.00186e-05
4.00185e-05
4.00184e-05
4.00185e-05
4.00187e-05
4.00189e-05
4.00191e-05
4.00193e-05
4.00196e-05
4.00198e-05
4.002e-05
4.00202e-05
4.00204e-05
4.00206e-05
4.00208e-05
4.0021e-05
4.00212e-05
4.00214e-05
4.00216e-05
4.00217e-05
4.00219e-05
4.00221e-05
4.00223e-05
4.00224e-05
4.00226e-05
4.00227e-05
4.00228e-05
4.0023e-05
4.00231e-05
4.00232e-05
4.00233e-05
4.00234e-05
4.00235e-05
4.00236e-05
4.00237e-05
4.00238e-05
4.00239e-05
4.0024e-05
4.00241e-05
4.00242e-05
4.00242e-05
4.0018e-05
4.0018e-05
4.0018e-05
4.00181e-05
4.00183e-05
4.00185e-05
4.00187e-05
4.00189e-05
4.00191e-05
4.00194e-05
4.00196e-05
4.00198e-05
4.002e-05
4.00202e-05
4.00204e-05
4.00206e-05
4.00208e-05
4.0021e-05
4.00212e-05
4.00214e-05
4.00216e-05
4.00217e-05
4.00219e-05
4.00221e-05
4.00222e-05
4.00224e-05
4.00225e-05
4.00226e-05
4.00227e-05
4.00229e-05
4.0023e-05
4.00231e-05
4.00232e-05
4.00233e-05
4.00234e-05
4.00235e-05
4.00236e-05
4.00237e-05
4.00237e-05
4.00238e-05
4.00239e-05
4.00174e-05
4.00174e-05
4.00175e-05
4.00176e-05
4.00178e-05
4.0018e-05
4.00182e-05
4.00184e-05
4.00186e-05
4.00189e-05
4.00191e-05
4.00193e-05
4.00195e-05
4.00197e-05
4.002e-05
4.00202e-05
4.00204e-05
4.00206e-05
4.00208e-05
4.00209e-05
4.00211e-05
4.00213e-05
4.00215e-05
4.00216e-05
4.00218e-05
4.00219e-05
4.00221e-05
4.00222e-05
4.00223e-05
4.00225e-05
4.00226e-05
4.00227e-05
4.00228e-05
4.00229e-05
4.0023e-05
4.00231e-05
4.00232e-05
4.00232e-05
4.00233e-05
4.00234e-05
4.00235e-05
4.00168e-05
4.00168e-05
4.00169e-05
4.00171e-05
4.00172e-05
4.00174e-05
4.00177e-05
4.00179e-05
4.00181e-05
4.00183e-05
4.00185e-05
4.00188e-05
4.0019e-05
4.00192e-05
4.00194e-05
4.00196e-05
4.00198e-05
4.002e-05
4.00202e-05
4.00204e-05
4.00206e-05
4.00208e-05
4.0021e-05
4.00211e-05
4.00213e-05
4.00214e-05
4.00216e-05
4.00217e-05
4.00218e-05
4.0022e-05
4.00221e-05
4.00222e-05
4.00223e-05
4.00224e-05
4.00225e-05
4.00226e-05
4.00227e-05
4.00228e-05
4.00228e-05
4.00229e-05
4.0023e-05
4.00162e-05
4.00162e-05
4.00163e-05
4.00165e-05
4.00166e-05
4.00168e-05
4.0017e-05
4.00172e-05
4.00175e-05
4.00177e-05
4.00179e-05
4.00181e-05
4.00184e-05
4.00186e-05
4.00188e-05
4.0019e-05
4.00192e-05
4.00194e-05
4.00196e-05
4.00198e-05
4.002e-05
4.00202e-05
4.00204e-05
4.00206e-05
4.00207e-05
4.00209e-05
4.0021e-05
4.00211e-05
4.00213e-05
4.00214e-05
4.00215e-05
4.00216e-05
4.00217e-05
4.00218e-05
4.00219e-05
4.0022e-05
4.00221e-05
4.00222e-05
4.00222e-05
4.00223e-05
4.00224e-05
4.00155e-05
4.00156e-05
4.00157e-05
4.00158e-05
4.0016e-05
4.00162e-05
4.00164e-05
4.00166e-05
4.00168e-05
4.0017e-05
4.00172e-05
4.00174e-05
4.00177e-05
4.00179e-05
4.00181e-05
4.00183e-05
4.00186e-05
4.00188e-05
4.0019e-05
4.00192e-05
4.00194e-05
4.00195e-05
4.00197e-05
4.00199e-05
4.002e-05
4.00202e-05
4.00203e-05
4.00205e-05
4.00206e-05
4.00207e-05
4.00208e-05
4.00209e-05
4.0021e-05
4.00211e-05
4.00212e-05
4.00213e-05
4.00214e-05
4.00215e-05
4.00215e-05
4.00216e-05
4.00217e-05
4.00148e-05
4.00149e-05
4.0015e-05
4.00151e-05
4.00153e-05
4.00154e-05
4.00156e-05
4.00158e-05
4.0016e-05
4.00162e-05
4.00164e-05
4.00167e-05
4.00169e-05
4.00171e-05
4.00173e-05
4.00176e-05
4.00178e-05
4.0018e-05
4.00182e-05
4.00184e-05
4.00186e-05
4.00188e-05
4.00189e-05
4.00191e-05
4.00193e-05
4.00194e-05
4.00196e-05
4.00197e-05
4.00198e-05
4.00199e-05
4.002e-05
4.00201e-05
4.00202e-05
4.00203e-05
4.00204e-05
4.00205e-05
4.00206e-05
4.00206e-05
4.00207e-05
4.00208e-05
4.00208e-05
4.0014e-05
4.00141e-05
4.00142e-05
4.00143e-05
4.00145e-05
4.00146e-05
4.00148e-05
4.00149e-05
4.00151e-05
4.00153e-05
4.00156e-05
4.00158e-05
4.0016e-05
4.00162e-05
4.00165e-05
4.00167e-05
4.00169e-05
4.00171e-05
4.00173e-05
4.00175e-05
4.00177e-05
4.00179e-05
4.00181e-05
4.00182e-05
4.00184e-05
4.00185e-05
4.00187e-05
4.00188e-05
4.00189e-05
4.0019e-05
4.00191e-05
4.00192e-05
4.00193e-05
4.00194e-05
4.00195e-05
4.00196e-05
4.00196e-05
4.00197e-05
4.00198e-05
4.00198e-05
4.00199e-05
4.00132e-05
4.00133e-05
4.00134e-05
4.00135e-05
4.00136e-05
4.00137e-05
4.00139e-05
4.0014e-05
4.00142e-05
4.00144e-05
4.00146e-05
4.00148e-05
4.0015e-05
4.00153e-05
4.00155e-05
4.00157e-05
4.00159e-05
4.00161e-05
4.00163e-05
4.00165e-05
4.00167e-05
4.00169e-05
4.0017e-05
4.00172e-05
4.00173e-05
4.00175e-05
4.00176e-05
4.00177e-05
4.00179e-05
4.0018e-05
4.00181e-05
4.00182e-05
4.00182e-05
4.00183e-05
4.00184e-05
4.00185e-05
4.00185e-05
4.00186e-05
4.00186e-05
4.00187e-05
4.00187e-05
4.00123e-05
4.00124e-05
4.00125e-05
4.00126e-05
4.00126e-05
4.00127e-05
4.00129e-05
4.0013e-05
4.00132e-05
4.00134e-05
4.00135e-05
4.00137e-05
4.0014e-05
4.00142e-05
4.00144e-05
4.00146e-05
4.00148e-05
4.0015e-05
4.00152e-05
4.00154e-05
4.00155e-05
4.00157e-05
4.00159e-05
4.0016e-05
4.00162e-05
4.00163e-05
4.00164e-05
4.00165e-05
4.00167e-05
4.00168e-05
4.00168e-05
4.00169e-05
4.0017e-05
4.00171e-05
4.00172e-05
4.00172e-05
4.00173e-05
4.00173e-05
4.00174e-05
4.00174e-05
4.00174e-05
4.00114e-05
4.00115e-05
4.00115e-05
4.00116e-05
4.00116e-05
4.00117e-05
4.00118e-05
4.00119e-05
4.00121e-05
4.00122e-05
4.00124e-05
4.00126e-05
4.00128e-05
4.00129e-05
4.00131e-05
4.00133e-05
4.00135e-05
4.00137e-05
4.00139e-05
4.00141e-05
4.00142e-05
4.00144e-05
4.00146e-05
4.00147e-05
4.00148e-05
4.0015e-05
4.00151e-05
4.00152e-05
4.00153e-05
4.00154e-05
4.00155e-05
4.00155e-05
4.00156e-05
4.00157e-05
4.00157e-05
4.00158e-05
4.00158e-05
4.00159e-05
4.00159e-05
4.00159e-05
4.00159e-05
4.00104e-05
4.00105e-05
4.00105e-05
4.00105e-05
4.00105e-05
4.00106e-05
4.00106e-05
4.00107e-05
4.00108e-05
4.0011e-05
4.00111e-05
4.00113e-05
4.00114e-05
4.00116e-05
4.00118e-05
4.0012e-05
4.00121e-05
4.00123e-05
4.00125e-05
4.00126e-05
4.00128e-05
4.00129e-05
4.00131e-05
4.00132e-05
4.00133e-05
4.00134e-05
4.00135e-05
4.00136e-05
4.00137e-05
4.00138e-05
4.00139e-05
4.00139e-05
4.0014e-05
4.0014e-05
4.00141e-05
4.00141e-05
4.00141e-05
4.00142e-05
4.00142e-05
4.00142e-05
4.00142e-05
4.00093e-05
4.00094e-05
4.00094e-05
4.00093e-05
4.00093e-05
4.00094e-05
4.00094e-05
4.00095e-05
4.00095e-05
4.00096e-05
4.00097e-05
4.00099e-05
4.001e-05
4.00101e-05
4.00103e-05
4.00104e-05
4.00106e-05
4.00107e-05
4.00109e-05
4.0011e-05
4.00111e-05
4.00112e-05
4.00114e-05
4.00115e-05
4.00116e-05
4.00117e-05
4.00118e-05
4.00118e-05
4.00119e-05
4.0012e-05
4.0012e-05
4.00121e-05
4.00121e-05
4.00122e-05
4.00122e-05
4.00122e-05
4.00123e-05
4.00123e-05
4.00123e-05
4.00123e-05
4.00123e-05
4.00081e-05
4.00082e-05
4.00082e-05
4.00081e-05
4.00081e-05
4.00081e-05
4.00081e-05
4.00081e-05
4.00082e-05
4.00082e-05
4.00083e-05
4.00084e-05
4.00085e-05
4.00085e-05
4.00087e-05
4.00088e-05
4.00089e-05
4.0009e-05
4.00091e-05
4.00092e-05
4.00093e-05
4.00094e-05
4.00095e-05
4.00095e-05
4.00096e-05
4.00097e-05
4.00098e-05
4.00098e-05
4.00099e-05
4.00099e-05
4.00099e-05
4.001e-05
4.001e-05
4.001e-05
4.001e-05
4.001e-05
4.00101e-05
4.00101e-05
4.001e-05
4.001e-05
4.001e-05
4.00069e-05
4.00069e-05
4.00069e-05
4.00068e-05
4.00068e-05
4.00067e-05
4.00067e-05
4.00067e-05
4.00067e-05
4.00067e-05
4.00067e-05
4.00068e-05
4.00068e-05
4.00069e-05
4.00069e-05
4.0007e-05
4.0007e-05
4.00071e-05
4.00071e-05
4.00072e-05
4.00072e-05
4.00073e-05
4.00073e-05
4.00074e-05
4.00074e-05
4.00074e-05
4.00075e-05
4.00075e-05
4.00075e-05
4.00075e-05
4.00076e-05
4.00076e-05
4.00076e-05
4.00076e-05
4.00076e-05
4.00076e-05
4.00076e-05
4.00076e-05
4.00076e-05
4.00076e-05
4.00075e-05
4.00056e-05
4.00056e-05
4.00055e-05
4.00054e-05
4.00054e-05
4.00053e-05
4.00053e-05
4.00052e-05
4.00052e-05
4.00052e-05
4.00052e-05
4.00051e-05
4.00051e-05
4.00051e-05
4.00051e-05
4.00051e-05
4.00051e-05
4.0005e-05
4.0005e-05
4.0005e-05
4.0005e-05
4.0005e-05
4.0005e-05
4.0005e-05
4.0005e-05
4.0005e-05
4.00049e-05
4.00049e-05
4.00049e-05
4.00049e-05
4.00049e-05
4.00048e-05
4.00048e-05
4.00048e-05
4.00047e-05
4.00047e-05
4.00046e-05
4.00046e-05
4.00045e-05
4.00045e-05
4.00044e-05
4.00041e-05
4.00041e-05
4.0004e-05
4.0004e-05
4.00039e-05
4.00039e-05
4.00038e-05
4.00038e-05
4.00037e-05
4.00037e-05
4.00036e-05
4.00035e-05
4.00035e-05
4.00034e-05
4.00033e-05
4.00032e-05
4.00031e-05
4.0003e-05
4.00029e-05
4.00028e-05
4.00028e-05
4.00027e-05
4.00026e-05
4.00025e-05
4.00025e-05
4.00024e-05
4.00024e-05
4.00023e-05
4.00023e-05
4.00022e-05
4.00022e-05
4.00022e-05
4.00022e-05
4.00022e-05
4.00021e-05
4.00021e-05
4.00021e-05
4.00022e-05
4.00022e-05
4.00022e-05
4.00022e-05
4.00026e-05
4.00025e-05
4.00025e-05
4.00025e-05
4.00024e-05
4.00024e-05
4.00023e-05
4.00023e-05
4.00022e-05
4.00022e-05
4.00021e-05
4.0002e-05
4.00019e-05
4.00018e-05
4.00016e-05
4.00015e-05
4.00014e-05
4.00013e-05
4.00012e-05
4.00012e-05
4.00012e-05
4.00012e-05
4.00012e-05
4.00013e-05
4.00013e-05
4.00014e-05
4.00015e-05
4.00015e-05
4.00016e-05
4.00017e-05
4.00017e-05
4.00018e-05
4.00019e-05
4.00019e-05
4.0002e-05
4.00021e-05
4.00021e-05
4.00022e-05
4.00023e-05
4.00024e-05
4.00024e-05
4.00009e-05
4.00009e-05
4.00009e-05
4.00008e-05
4.00008e-05
4.00008e-05
4.00008e-05
4.00008e-05
4.00008e-05
4.00008e-05
4.00007e-05
4.00007e-05
4.00006e-05
4.00005e-05
4.00004e-05
4.00003e-05
4.00003e-05
4.00004e-05
4.00006e-05
4.00008e-05
4.0001e-05
4.00013e-05
4.00016e-05
4.00019e-05
4.00022e-05
4.00026e-05
4.00029e-05
4.00032e-05
4.00036e-05
4.00039e-05
4.00042e-05
4.00045e-05
4.00048e-05
4.00051e-05
4.00054e-05
4.00056e-05
4.00059e-05
4.00061e-05
4.00063e-05
4.00065e-05
4.00066e-05
0.000623014
0.000824484
0.000969032
0.00107751
0.00116239
0.00123089
0.00128762
0.00133572
0.00137739
0.00141416
0.00144719
0.00147733
0.00150514
0.00153105
0.00155541
0.00157845
0.00160022
0.00162075
0.00164
0.00165778
0.00167437
0.00169295
0.00171249
0.00173198
0.00175068
0.00176801
0.00178329
0.00179635
0.00180786
0.00181771
0.00182522
0.00182958
0.00182993
0.00182556
0.00181604
0.00180094
0.00177969
0.00175163
0.00171597
0.00167198
0.00161897
0.00155632
0.00148349
0.00139997
0.00130542
0.00119974
0.00108322
0.000956823
0.000822398
0.000683013
0.000543151
0.000408674
0.000286351
0.000182823
0.00010314
4.93507e-05
1.98164e-05
9.67086e-06
1.228e-05
2.10583e-05
3.08857e-05
3.87156e-05
4.34256e-05
4.52262e-05
4.49835e-05
4.36747e-05
4.20892e-05
4.07211e-05
3.97874e-05
3.93069e-05
3.9188e-05
3.9307e-05
3.95139e-05
3.988e-05
0.000902254
0.00104113
0.00113809
0.00121019
0.00126786
0.00131599
0.00135728
0.0013936
0.00142625
0.00145614
0.00148395
0.00151014
0.00153503
0.00155882
0.00158162
0.00160342
0.00162429
0.00164427
0.00166319
0.00168091
0.00169721
0.00171309
0.00172894
0.00174455
0.00175952
0.00177343
0.00178553
0.00179736
0.00181184
0.00182741
0.00184252
0.00185608
0.001867
0.00187501
0.00188048
0.00188313
0.00188217
0.00187668
0.00186564
0.00184826
0.00182397
0.00179219
0.00175225
0.00170343
0.00164496
0.00157613
0.0014963
0.00140501
0.001302
0.0011874
0.00106192
0.000927104
0.000785679
0.000641732
0.000500701
0.000368976
0.000253029
0.000158229
8.76558e-05
4.13882e-05
1.65742e-05
8.27691e-06
1.07444e-05
1.86376e-05
2.78557e-05
3.58336e-05
4.14095e-05
4.44463e-05
4.5406e-05
4.49683e-05
4.37937e-05
4.23933e-05
4.11716e-05
3.9843e-05
0.0010422
0.00112973
0.00119177
0.0012368
0.00127236
0.00130273
0.00133038
0.00135678
0.00138273
0.00140862
0.00143465
0.0014609
0.00148736
0.00151397
0.0015406
0.00156712
0.00159331
0.00161893
0.00164379
0.00166782
0.00169069
0.00171237
0.00173298
0.00175256
0.00177093
0.00178787
0.0018029
0.00181606
0.00182852
0.00184068
0.00185222
0.00186264
0.00187078
0.00187928
0.00189075
0.00190327
0.00191493
0.00192436
0.00193014
0.0019322
0.00193057
0.00192473
0.00191378
0.00189672
0.00187249
0.0018402
0.00179914
0.00174861
0.0016879
0.00161628
0.00153309
0.00143782
0.00133032
0.00121094
0.00108082
0.000942098
0.000798082
0.000653263
0.000513049
0.000383223
0.000269161
0.000174986
0.000102877
5.27525e-05
2.24323e-05
8.20223e-06
5.60853e-06
1.02423e-05
1.8342e-05
2.71085e-05
3.47877e-05
4.04741e-05
4.40915e-05
4.59226e-05
0.00104606
0.00106082
0.00106729
0.00107248
0.00108005
0.0010906
0.0011044
0.00112171
0.00114259
0.0011669
0.00119439
0.00122478
0.00125772
0.00129285
0.00132975
0.00136799
0.00140715
0.00144678
0.00148646
0.00152566
0.00156396
0.00160115
0.00163703
0.00167139
0.00170398
0.00173458
0.00176294
0.00178883
0.00181234
0.00183369
0.00185293
0.00186999
0.00188431
0.00189615
0.00190674
0.00191652
0.00192519
0.00193233
0.00193616
0.00194241
0.00195153
0.00196124
0.00196947
0.00197472
0.00197535
0.0019712
0.00196205
0.00194722
0.00192575
0.00189659
0.00185863
0.00181088
0.00175246
0.00168263
0.00160079
0.00150658
0.0014
0.00128164
0.00115285
0.00101585
0.000873823
0.000730765
0.000591267
0.000460101
0.000341719
0.000239734
0.000156482
9.27686e-05
4.78539e-05
1.96949e-05
5.24776e-06
1.43555e-06
3.28556e-06
1.49163e-05
0.000835422
0.000787867
0.00074504
0.000711735
0.000688978
0.000675038
0.000668568
0.000669042
0.000676177
0.000689751
0.000709626
0.00073571
0.000767881
0.00080594
0.00084958
0.000898363
0.000951707
0.00100889
0.00106907
0.0011313
0.00119463
0.00125799
0.00132057
0.0013813
0.00143963
0.00149554
0.00154906
0.0016001
0.00164846
0.00169394
0.00173627
0.00177521
0.00181041
0.00184161
0.00186891
0.00189265
0.00191305
0.00193032
0.00194384
0.00195468
0.00196407
0.00197239
0.00197923
0.00198417
0.00198497
0.00198923
0.00199625
0.00200356
0.00200894
0.00201071
0.00200722
0.00199775
0.00198182
0.00195874
0.00192756
0.0018872
0.0018366
0.00177483
0.00170116
0.00161525
0.00151718
0.00140754
0.00128748
0.00115883
0.00102404
0.00088616
0.000748703
0.000615415
0.000490018
0.000375841
0.00027579
0.000190671
0.000126872
5.31853e-05
0.000409251
0.000360807
0.000317247
0.000281973
0.00025494
0.000234365
0.000218759
0.000207358
0.000199757
0.000195748
0.000195309
0.00019859
0.000205888
0.000217628
0.000234348
0.000256681
0.000285317
0.000320963
0.000364275
0.000415781
0.000475796
0.000544341
0.000620986
0.000705234
0.000795859
0.000891178
0.000988195
0.00108437
0.00117766
0.00126653
0.00134998
0.00142756
0.00149926
0.0015653
0.00162604
0.0016819
0.00173319
0.00178009
0.00182247
0.00186016
0.00189322
0.00192185
0.00194616
0.00196633
0.00198164
0.0019935
0.00200325
0.00201139
0.00201769
0.00202174
0.00202166
0.00202305
0.00202736
0.00203241
0.0020358
0.0020355
0.00202991
0.00201735
0.00199705
0.00196841
0.00193068
0.00188309
0.00182494
0.00175573
0.00167526
0.00158368
0.00148158
0.00137004
0.00125067
0.00112527
0.000997261
0.000864502
0.000752359
0.00055962
9.13608e-05
7.31902e-05
5.78595e-05
4.61952e-05
3.76789e-05
3.14433e-05
2.67996e-05
2.33127e-05
2.06927e-05
1.87327e-05
1.72874e-05
1.62601e-05
1.55931e-05
1.52658e-05
1.52985e-05
1.57609e-05
1.67862e-05
1.85899e-05
2.14947e-05
2.59582e-05
3.26021e-05
4.22386e-05
5.58782e-05
7.47324e-05
0.000100227
0.000133693
0.000177294
0.000232577
0.000300416
0.000381041
0.000473956
0.000577505
0.000689225
0.000806133
0.000925017
0.00104275
0.00115658
0.00126433
0.00136451
0.00145627
0.00153935
0.001614
0.00168076
0.00174033
0.00179319
0.00183978
0.00188062
0.00191624
0.00194691
0.00197286
0.00199358
0.00200981
0.00202285
0.00203342
0.00204162
0.00204705
0.00204942
0.00204643
0.00204581
0.00204733
0.00204871
0.00204767
0.00204226
0.00203086