/*--------------------------------*- C++ -*----------------------------------*\
| =========                 |                                                 |
| \\      /  F ield         | OpenFOAM: The Open Source CFD Toolbox           |
|  \\    /   O peration     | Version:  2312                                  |
|   \\  /    A nd           | Website:  www.openfoam.com                      |
|    \\/     M anipulation  |                                                 |
\*---------------------------------------------------------------------------*/
FoamFile
{
    version     2.0;
    format      ascii;
    arch        "LSB;label=32;scalar=64";
    class       volScalarField;
    location    "249";
    object      p;
}
// * * * * * * * * * * * * * * * * * * * * * * * * * * * * * * * * * * * * * //

dimensions      [0 2 -2 0 0 0 0];

internalField   nonuniform List<scalar> 
11040
(
19.5677
1.37811
-11.7648
-16.8534
-18.5118
-19.2835
-19.8122
-20.1492
-20.2962
-20.2886
-20.1823
-20.0056
-19.7808
-19.512
-19.1893
-18.8031
-18.3453
-17.8049
-17.175
-16.4377
-15.575
-14.5671
-13.5191
-12.5954
-11.7746
-10.9773
-10.1879
-9.40694
-8.63237
-7.85601
-7.07105
-6.27006
-5.44505
-4.58625
-3.68234
-2.72058
-1.69349
-0.574293
0.619553
1.99528
3.20403
19.226
7.49716
-3.54712
-10.4659
-14.1313
-16.1698
-17.5178
-18.4785
-19.1066
-19.4431
-19.5651
-19.5394
-19.4132
-19.2114
-18.9381
-18.5905
-18.1643
-17.6512
-17.0454
-16.3305
-15.4899
-14.5097
-13.4874
-12.5719
-11.753
-10.9592
-10.1733
-9.39541
-8.62356
-7.84995
-7.06778
-6.26978
-5.44813
-4.59307
-3.69354
-2.73725
-1.71691
-0.605143
0.577135
1.95046
3.09394
17.9843
10.0289
0.196919
-7.9355
-12.8996
-15.5199
-17.0144
-17.9878
-18.6102
-18.9527
-19.0894
-19.0858
-18.9882
-18.8198
-18.5835
-18.2745
-17.8865
-17.4106
-16.8395
-16.1577
-15.3498
-14.4082
-13.4184
-12.5135
-11.6993
-10.913
-10.134
-9.36165
-8.59444
-7.82513
-7.04696
-6.25295
-5.4355
-4.585
-3.69076
-2.74114
-1.72921
-0.628036
0.538732
1.89214
2.97758
16.1397
10.9783
3.77187
-3.38596
-8.72192
-12.106
-14.2627
-15.7546
-16.8132
-17.5262
-17.967
-18.2083
-18.2984
-18.271
-18.1402
-17.9105
-17.5828
-17.1541
-16.6206
-15.9713
-15.1943
-14.2923
-13.3377
-12.4456
-11.6361
-10.8569
-10.0846
-9.31781
-8.55555
-7.79126
-7.01818
-6.22958
-5.4182
-4.57455
-3.68854
-2.74942
-1.75079
-0.666787
0.476722
1.79367
2.81888
14.1949
10.752
5.70103
-0.249223
-5.70972
-9.83116
-12.6756
-14.6315
-15.9876
-16.8921
-17.4491
-17.7533
-17.8785
-17.8713
-17.7551
-17.5399
-17.2291
-16.8206
-16.3104
-15.6886
-14.9437
-14.0841
-13.1733
-12.3036
-11.5048
-10.7376
-9.97741
-9.22158
-8.46927
-7.71469
-6.95126
-6.17264
-5.37208
-4.54058
-3.66887
-2.74762
-1.77157
-0.717081
0.388292
1.64544
2.60626
12.3038
9.89954
6.49017
2.06777
-2.62921
-6.71889
-9.86286
-12.1692
-13.8457
-15.0387
-15.8532
-16.3861
-16.712
-16.8771
-16.908
-16.8186
-16.615
-16.2983
-15.867
-15.3146
-14.6332
-13.8373
-12.9856
-12.1507
-11.3696
-10.6178
-9.87234
-9.12898
-8.38731
-7.64279
-6.88941
-6.12142
-5.33287
-4.51547
-3.66128
-2.76291
-1.81714
-0.803548
0.249032
1.42116
2.33927
10.5549
8.77892
6.44933
3.307
-0.430188
-4.16575
-7.43214
-10.0699
-12.1134
-13.6443
-14.7444
-15.5013
-15.9926
-16.2736
-16.3859
-16.3554
-16.1966
-15.9166
-15.518
-14.9979
-14.3514
-13.6013
-12.7945
-11.9873
-11.2185
-10.4768
-9.74247
-9.00968
-8.2778
-7.54331
-6.80084
-6.04513
-5.27107
-4.47134
-3.63954
-2.7707
-1.86433
-0.905249
0.0784215
1.1378
2.0166
8.96872
7.59298
5.94737
3.75856
0.989617
-2.06469
-5.034
-7.66361
-9.85122
-11.5873
-12.9053
-13.8695
-14.5461
-14.9911
-15.2492
-15.3485
-15.3063
-15.1324
-14.8308
-14.4013
-13.8413
-13.1702
-12.4389
-11.6891
-10.9581
-10.246
-9.5389
-8.83066
-8.1206
-7.4064
-6.68382
-5.94845
-5.19622
-4.42114
-3.61851
-2.78595
-1.92537
-1.02792
-0.118551
0.821171
1.63293
7.55162
6.4456
5.22791
3.67883
1.68002
-0.670862
-3.1657
-5.58841
-7.78116
-9.65582
-11.1802
-12.3708
-13.2652
-13.9028
-14.3205
-14.5489
-14.6117
-14.5248
-14.2975
-13.9342
-13.437
-12.8337
-12.1644
-11.4628
-10.7624
-10.0717
-9.38342
-8.69261
-7.99846
-7.29969
-6.59332
-5.87596
-5.14458
-4.39453
-3.62293
-2.82977
-2.01885
-1.18673
-0.354572
0.472572
1.19702
6.29984
5.38643
4.44526
3.3139
1.87284
0.131698
-1.82268
-3.86018
-5.84431
-7.66164
-9.23672
-10.5427
-11.5824
-12.3712
-12.9336
-13.297
-13.4847
-13.5132
-13.3937
-13.1331
-12.7355
-12.2212
-11.6355
-11.0053
-10.3597
-9.71213
-9.06208
-8.40684
-7.74594
-7.07904
-6.40452
-5.72026
-5.02444
-4.31408
-3.58787
-2.84808
-2.10017
-1.3452
-0.600614
0.116781
0.747331
5.20575
4.43684
3.68197
2.8228
1.76119
0.479269
-1.00048
-2.6211
-4.29821
-5.93756
-7.45464
-8.79614
-9.93491
-10.8586
-11.5699
-12.0808
-12.406
-12.5593
-12.5531
-12.3967
-12.0973
-11.6793
-11.1797
-10.6239
-10.0376
-9.43645
-8.82536
-8.2049
-7.57583
-6.93895
-6.29418
-5.64093
-4.97879
-4.30629
-3.62406
-2.93612
-2.24899
-1.56589
-0.90187
-0.275607
0.276309
4.25924
3.60366
2.98118
2.30506
1.49995
0.545511
-0.560425
-1.80216
-3.14002
-4.51428
-5.857
-7.11233
-8.23936
-9.2072
-9.99921
-10.6111
-11.0465
-11.3137
-11.4214
-11.3774
-11.1887
-10.8718
-10.4651
-9.99287
-9.47802
-8.93699
-8.37846
-7.80642
-7.22339
-6.6314
-6.03182
-5.42551
-4.81347
-4.19583
-3.57425
-2.95386
-2.34164
-1.74173
-1.16567
-0.629699
-0.156551
3.44867
2.88527
2.36177
1.81374
1.1843
0.457397
-0.375407
-1.31602
-2.35159
-3.45209
-4.57427
-5.67491
-6.71519
-7.65879
-8.47798
-9.15498
-9.68073
-10.0526
-10.2718
-10.3418
-10.2679
-10.0643
-9.76166
-9.38447
-8.9541
-8.48668
-7.99294
-7.47954
-6.95095
-6.41064
-5.86136
-5.30543
-4.74515
-4.18186
-3.61855
-3.06084
-2.51544
-1.98598
-1.48198
-1.01556
-0.601082
2.76177
2.27541
1.8295
1.37563
0.870911
0.304068
-0.332937
-1.04705
-1.83748
-2.69212
-3.58774
-4.49703
-5.39128
-6.23898
-7.01126
-7.68457
-8.24172
-8.67169
-8.96852
-9.13008
-9.15709
-9.05457
-8.84891
-8.56327
-8.2173
-7.82656
-7.40277
-6.95448
-6.48798
-6.00821
-5.51927
-5.02472
-4.52799
-4.03149
-3.53853
-3.05459
-2.58564
-2.13458
-1.70768
-1.31339
-0.960306
2.18587
1.76526
1.38248
1.00086
0.588053
0.136383
-0.36033
-0.909189
-1.51347
-2.16982
-2.86744
-3.59158
-4.32456
-5.04395
-5.72621
-6.34903
-6.89308
-7.34285
-7.68692
-7.91761
-8.03094
-8.02502
-7.91738
-7.72849
-7.47568
-7.17313
-6.83228
-6.46227
-6.0703
-5.66224
-5.243
-4.81696
-4.38813
-3.95949
-3.53472
-3.11883
-2.71684
-2.33075
-1.96544
-1.62667
-1.31967
1.71065
1.34703
1.01701
0.692857
0.350301
-0.0158582
-0.410075
-0.838151
-1.30391
-1.80737
-2.34405
-2.9068
-3.48596
-4.06747
-4.63488
-5.17077
-5.65815
-6.08156
-6.42779
-6.68623
-6.84922
-6.90843
-6.87459
-6.76394
-6.59052
-6.36649
-6.10233
-5.807
-5.48805
-5.15182
-4.80383
-4.44889
-4.09141
-3.73463
-3.382
-3.03788
-2.7063
-2.38863
-2.0878
-1.80763
-1.55109
1.32668
1.01322
0.728695
0.451941
0.165136
-0.13533
-0.45274
-0.791505
-1.15487
-1.54381
-1.95669
-2.39027
-2.8397
-3.29683
-3.75126
-4.19098
-4.60324
-4.97531
-5.29522
-5.55229
-5.73783
-5.84058
-5.86455
-5.82127
-5.72114
-5.57372
-5.38767
-5.17076
-4.92981
-4.67076
-4.39876
-4.11838
-3.8337
-3.54785
-3.26404
-2.98591
-2.71669
-2.45737
-2.21029
-1.97814
-1.76269
1.03327
0.761198
0.514666
0.276133
0.0326518
-0.218257
-0.479179
-0.753443
-1.04351
-1.35038
-1.67344
-2.01119
-2.36111
-2.71846
-3.07676
-3.42813
-3.76366
-4.07386
-4.34922
-4.58056
-4.75971
-4.87495
-4.92673
-4.92275
-4.87018
-4.7761
-4.64731
-4.49018
-4.31052
-4.11357
-3.90401
-3.68601
-3.46333
-3.2389
-3.01548
-2.79606
-2.58318
-2.37756
-2.1807
-1.99451
-1.82007
0.814575
0.575695
0.359524
0.151203
-0.0588425
-0.272424
-0.49167
-0.719144
-0.956684
-1.20512
-1.46421
-1.73317
-2.01062
-2.29362
-2.57805
-2.85871
-3.12949
-3.38363
-3.61403
-3.81353
-3.97547
-4.08938
-4.15392
-4.17407
-4.15459
-4.10054
-4.01701
-3.90895
-3.78097
-3.63733
-3.48188
-3.31807
-3.14899
-2.97704
-2.80452
-2.63375
-2.4667
-2.30397
-2.14688
-1.99689
-1.85476
0.649603
0.438078
0.24671
0.0629652
-0.120397
-0.304826
-0.492125
-0.684308
-0.882761
-1.08812
-1.30028
-1.51874
-1.74265
-1.97007
-2.19823
-2.42358
-2.64189
-2.84835
-3.03777
-3.20476
-3.34406
-3.44694
-3.51159
-3.54124
-3.53906
-3.50863
-3.45372
-3.37811
-3.28543
-3.17905
-3.0621
-2.93743
-2.80758
-2.67458
-2.54032
-2.40672
-2.27536
-2.1468
-2.02208
-1.90235
-1.78819
0.522834
0.334305
0.163627
0.000317906
-0.161196
-0.322172
-0.484168
-0.648793
-0.817111
-0.989608
-1.1662
-1.34656
-1.53007
-1.71539
-1.90055
-2.08309
-2.25999
-2.42783
-2.58286
-2.7211
-2.83863
-2.92847
-2.98891
-3.02217
-3.03033
-3.01596
-2.98185
-2.93085
-2.86572
-2.78909
-2.70338
-2.61084
-2.51345
-2.41284
-2.3105
-2.2079
-2.10626
-2.00602
-1.90805
-1.81319
-1.72189
0.424043
0.25514
0.102032
-0.0439669
-0.187217
-0.32887
-0.470296
-0.612795
-0.757201
-0.903884
-1.05278
-1.20361
-1.35593
-1.50872
-1.66057
-1.80966
-1.95383
-2.09059
-2.21722
-2.33079
-2.42838
-2.50453
-2.55789
-2.59
-2.6023
-2.59666
-2.57517
-2.53995
-2.49314
-2.43674
-2.37266
-2.30265
-2.22828
-2.15083
-2.07153
-1.99151
-1.91176
-1.83266
-1.75495
-1.67927
-1.60607
0.346162
0.194182
0.0561822
-0.0749667
-0.202729
-0.328197
-0.452584
-0.576957
-0.701983
-0.827949
-0.95479
-1.08228
-1.21006
-1.33736
-1.4631
-1.58592
-1.70425
-1.81625
-1.91994
-2.01317
-2.09382
-2.15769
-2.20378
-2.23329
-2.24723
-2.24701
-2.2342
-2.21044
-2.17734
-2.13644
-2.08922
-2.03702
-1.98107
-1.92235
-1.86184
-1.8004
-1.73878
-1.6773
-1.61656
-1.55704
-1.4991
0.284192
0.146927
0.0220505
-0.0962288
-0.210704
-0.322432
-0.43249
-0.541769
-0.650811
-0.759843
-0.868806
-0.977509
-1.08565
-1.19263
-1.29761
-1.39957
-1.49732
-1.5895
-1.67465
-1.7512
-1.8176
-1.87063
-1.90963
-1.93555
-1.94915
-1.9515
-1.94382
-1.92735
-1.90335
-1.873
-1.83744
-1.79771
-1.75477
-1.70938
-1.66232
-1.61425
-1.56577
-1.51714
-1.46886
-1.42129
-1.37478
0.234502
0.110118
-0.00326844
-0.110307
-0.213283
-0.313223
-0.411093
-0.507642
-0.60332
-0.698314
-0.792572
-0.885931
-0.978144
-1.06872
-1.15702
-1.24226
-1.32352
-1.39982
-1.47005
-1.53307
-1.58777
-1.63168
-1.66445
-1.68684
-1.69945
-1.70312
-1.69882
-1.68752
-1.67018
-1.64775
-1.62108
-1.591
-1.55824
-1.52341
-1.4871
-1.44984
-1.41208
-1.37404
-1.33613
-1.29859
-1.26177
0.194409
0.0813638
-0.021899
-0.119057
-0.212008
-0.301751
-0.389153
-0.474853
-0.559231
-0.642447
-0.724458
-0.805127
-0.88425
-0.961436
-1.03618
-1.10787
-1.17582
-1.23928
-1.29744
-1.34947
-1.39456
-1.43083
-1.45814
-1.47714
-1.48832
-1.49233
-1.48996
-1.48197
-1.46913
-1.45215
-1.43173
-1.40849
-1.38302
-1.35578
-1.32725
-1.29783
-1.26788
-1.23756
-1.20723
-1.17706
-1.14736
0.161892
0.058874
-0.0354207
-0.123849
-0.208008
-0.288868
-0.367211
-0.443585
-0.51832
-0.591557
-0.663264
-0.733328
-0.801584
-0.867719
-0.931333
-0.99196
-1.04908
-1.10212
-1.1505
-1.1936
-1.23085
-1.26083
-1.28355
-1.29957
-1.30928
-1.31325
-1.31209
-1.30642
-1.29686
-1.28396
-1.26828
-1.2503
-1.23048
-1.2092
-1.18683
-1.16368
-1.14003
-1.11602
-1.09194
-1.0679
-1.04419
0.135411
0.0412935
-0.045022
-0.125705
-0.202115
-0.275192
-0.345642
-0.413942
-0.480384
-0.545094
-0.608054
-0.669175
-0.728324
-0.785255
-0.839657
-0.891169
-0.939399
-0.983928
-1.02432
-1.06014
-1.09098
-1.11576
-1.13461
-1.14801
-1.1563
-1.15992
-1.15941
-1.15525
-1.14794
-1.13793
-1.12565
-1.11149
-1.09581
-1.0789
-1.06106
-1.04254
-1.02355
-1.00421
-0.984748
-0.965254
-0.945983
0.113774
0.0275831
-0.0516072
-0.125393
-0.194945
-0.26117
-0.324706
-0.385972
-0.445231
-0.502603
-0.558081
-0.611599
-0.663056
-0.712261
-0.758973
-0.802921
-0.84381
-0.881335
-0.915183
-0.94504
-0.97063
-0.99114
-1.00678
-1.01796
-1.02496
-1.02817
-1.02803
-1.02493
-1.01929
-1.01145
-1.00176
-0.99055
-0.978087
-0.964615
-0.950369
-0.935544
-0.920314
-0.904765
-0.889096
-0.873359
-0.857792
0.09605
0.0169375
-0.0558714
-0.123498
-0.186959
-0.247124
-0.304574
-0.35968
-0.412682
-0.463697
-0.512731
-0.559741
-0.604652
-0.647321
-0.687568
-0.72519
-0.759974
-0.7917
-0.820148
-0.845101
-0.866377
-0.883367
-0.896324
-0.90561
-0.911467
-0.914222
-0.914233
-0.911843
-0.907371
-0.901113
-0.893346
-0.884323
-0.87427
-0.863379
-0.851838
-0.839803
-0.82741
-0.814729
-0.801926
-0.789029
-0.77626
0.0815048
0.00872704
-0.0583527
-0.120465
-0.1785
-0.233288
-0.285357
-0.335042
-0.382564
-0.428041
-0.471492
-0.512894
-0.552198
-0.589302
-0.624075
-0.656373
-0.686046
-0.712941
-0.736911
-0.757811
-0.775532
-0.789618
-0.800352
-0.80805
-0.812919
-0.815237
-0.815307
-0.813417
-0.809826
-0.804777
-0.798496
-0.791187
-0.783034
-0.77419
-0.764808
-0.755013
-0.744914
-0.734567
-0.72411
-0.713557
-0.70311
0.0695547
0.00245522
-0.0594715
-0.116637
-0.169825
-0.219826
-0.267121
-0.312014
-0.354716
-0.395342
-0.433928
-0.470469
-0.504941
-0.537276
-0.567385
-0.595173
-0.620539
-0.643385
-0.663619
-0.681153
-0.695927
-0.707607
-0.716488
-0.722847
-0.726861
-0.728768
-0.728826
-0.727274
-0.724327
-0.720185
-0.715031
-0.709032
-0.702337
-0.695071
-0.687356
-0.679293
-0.67097
-0.662431
-0.653793
-0.645056
-0.636408
0.0597316
-0.00227228
-0.0595583
-0.112281
-0.161131
-0.206857
-0.249901
-0.290543
-0.328983
-0.365341
-0.399665
-0.43197
-0.462253
-0.490476
-0.516589
-0.540532
-0.562248
-0.58168
-0.598781
-0.613502
-0.625824
-0.635506
-0.642844
-0.64808
-0.651367
-0.652908
-0.652923
-0.651614
-0.649159
-0.645723
-0.641457
-0.636497
-0.630965
-0.624962
-0.618588
-0.611925
-0.605044
-0.597981
-0.590832
-0.583591
-0.57643
0.0516584
-0.00577074
-0.0588747
-0.107601
-0.152562
-0.194463
-0.233712
-0.270567
-0.305225
-0.337809
-0.368381
-0.396974
-0.423605
-0.448264
-0.470929
-0.491576
-0.51018
-0.526717
-0.541173
-0.553532
-0.563804
-0.571816
-0.577863
-0.582153
-0.584819
-0.586035
-0.58599
-0.584852
-0.582771
-0.579883
-0.576314
-0.572174
-0.567562
-0.562563
-0.557257
-0.551709
-0.54598
-0.540095
-0.534137
-0.528094
-0.522123
0.045029
-0.008294
-0.0576288
-0.102761
-0.144231
-0.182702
-0.218551
-0.252023
-0.28331
-0.312542
-0.339794
-0.365117
-0.388547
-0.410099
-0.429775
-0.447579
-0.463512
-0.47758
-0.489792
-0.500156
-0.508703
-0.515315
-0.520276
-0.523767
-0.525902
-0.526831
-0.526714
-0.525695
-0.523899
-0.521438
-0.518417
-0.514926
-0.511047
-0.506848
-0.502397
-0.497746
-0.492943
-0.48801
-0.483017
-0.477946
-0.472942
0.0395936
-0.0100482
-0.0559888
-0.0978873
-0.136221
-0.171611
-0.204408
-0.234847
-0.263118
-0.289359
-0.313661
-0.336089
-0.356697
-0.375523
-0.392592
-0.407929
-0.421558
-0.433506
-0.443801
-0.452471
-0.45956
-0.464993
-0.46904
-0.471858
-0.473545
-0.474231
-0.474053
-0.473132
-0.471572
-0.469468
-0.466905
-0.463958
-0.460694
-0.457169
-0.453438
-0.449543
-0.445524
-0.441397
-0.437222
-0.432979
-0.428798
0.0351474
-0.0112025
-0.0540924
-0.0930854
-0.1286
-0.161217
-0.191267
-0.218977
-0.24454
-0.268102
-0.289767
-0.309618
-0.327726
-0.344146
-0.358926
-0.372109
-0.383737
-0.393853
-0.402501
-0.40972
-0.415565
-0.419992
-0.423254
-0.425487
-0.426774
-0.427227
-0.426962
-0.426083
-0.424677
-0.422821
-0.420588
-0.418039
-0.415229
-0.412205
-0.409011
-0.405682
-0.402249
-0.398728
-0.395166
-0.391544
-0.38798
0.0315217
-0.0118957
-0.0520527
-0.0884418
-0.121426
-0.151547
-0.179116
-0.204361
-0.227478
-0.248626
-0.267923
-0.285468
-0.301347
-0.315633
-0.328391
-0.33968
-0.349558
-0.358081
-0.365305
-0.371279
-0.376064
-0.379644
-0.382253
-0.384009
-0.384984
-0.385273
-0.384978
-0.384182
-0.38296
-0.381376
-0.379487
-0.377346
-0.374996
-0.372475
-0.369819
-0.367056
-0.364213
-0.361299
-0.358356
-0.355363
-0.352426
0.0285779
-0.0122411
-0.0499593
-0.0840214
-0.11474
-0.142616
-0.167949
-0.190963
-0.211862
-0.230819
-0.247971
-0.263434
-0.277311
-0.289691
-0.300651
-0.310264
-0.3186
-0.325724
-0.331699
-0.33658
-0.34043
-0.343247
-0.345248
-0.346532
-0.347159
-0.347213
-0.346779
-0.34593
-0.344728
-0.343227
-0.341477
-0.339519
-0.33739
-0.335122
-0.332743
-0.330277
-0.327745
-0.325156
-0.322542
-0.319886
-0.31728
0.0262003
-0.012336
-0.0478889
-0.0798734
-0.108558
-0.134412
-0.157726
-0.178725
-0.197619
-0.214591
-0.229794
-0.243362
-0.25542
-0.266073
-0.275416
-0.283533
-0.290502
-0.296397
-0.301287
-0.305237
-0.308314
-0.310535
-0.312099
-0.31309
-0.313561
-0.313579
-0.313215
-0.312528
-0.311566
-0.310372
-0.308985
-0.307438
-0.305759
-0.303974
-0.302105
-0.300171
-0.298188
-0.296163
-0.294123
-0.29205
-0.290027
0.0242895
-0.0122745
-0.045931
-0.0760761
-0.102933
-0.126943
-0.148402
-0.167551
-0.184615
-0.199789
-0.213236
-0.225099
-0.235513
-0.244598
-0.252467
-0.259218
-0.26494
-0.269711
-0.273596
-0.276653
-0.278941
-0.280479
-0.281446
-0.281913
-0.281929
-0.281557
-0.28086
-0.279894
-0.278702
-0.277323
-0.27579
-0.274133
-0.272374
-0.270535
-0.268633
-0.266684
-0.264699
-0.262685
-0.260661
-0.258615
-0.256611
0.0227621
-0.0121401
-0.0441807
-0.0727485
-0.0980114
-0.12037
-0.140117
-0.157517
-0.172829
-0.186284
-0.198077
-0.208373
-0.217309
-0.225007
-0.231574
-0.237116
-0.241736
-0.245529
-0.248586
-0.250985
-0.2528
-0.254067
-0.254938
-0.255467
-0.255682
-0.255623
-0.255332
-0.254845
-0.254188
-0.253389
-0.252469
-0.25145
-0.250349
-0.249183
-0.247966
-0.246709
-0.245425
-0.244116
-0.242802
-0.241466
-0.240171
0.0215543
-0.0119768
-0.042653
-0.0698875
-0.0938118
-0.114785
-0.133079
-0.148946
-0.162649
-0.174444
-0.184571
-0.193247
-0.200664
-0.206977
-0.212306
-0.216741
-0.220347
-0.22318
-0.225291
-0.22673
-0.227549
-0.227792
-0.227615
-0.227089
-0.226264
-0.2252
-0.223952
-0.222565
-0.221072
-0.2195
-0.21787
-0.2162
-0.214501
-0.212784
-0.211057
-0.209326
-0.207596
-0.205869
-0.204152
-0.20244
-0.200763
0.0206172
-0.0118024
-0.0412728
-0.0672538
-0.0898932
-0.109576
-0.126607
-0.141249
-0.153744
-0.16431
-0.173146
-0.180449
-0.186419
-0.19126
-0.195171
-0.19834
-0.200928
-0.203064
-0.204844
-0.206331
-0.20757
-0.208574
-0.20941
-0.210079
-0.210569
-0.210886
-0.211042
-0.211051
-0.210924
-0.210678
-0.210328
-0.20989
-0.209378
-0.208807
-0.208189
-0.207536
-0.206856
-0.206155
-0.205448
-0.20472
-0.204023
0.0198928
-0.0117204
-0.0402039
-0.0650098
-0.0862549
-0.104361
-0.11974
-0.132782
-0.143843
-0.153217
-0.161127
-0.16773
-0.173133
-0.177404
-0.180598
-0.18277
-0.183992
-0.184354
-0.18396
-0.182922
-0.181348
-0.179346
-0.177106
-0.174728
-0.172282
-0.16983
-0.167418
-0.165077
-0.162822
-0.16066
-0.158591
-0.156614
-0.154722
-0.152908
-0.151164
-0.149484
-0.147861
-0.146288
-0.144758
-0.143273
-0.141822
0.0193049
-0.0119927
-0.0401325
-0.0645359
-0.085129
-0.102167
-0.115996
-0.127026
-0.13571
-0.142507
-0.14785
-0.152131
-0.15569
-0.158802
-0.161671
-0.16443
-0.167149
-0.169842
-0.172493
-0.175064
-0.177522
-0.179814
-0.181905
-0.183745
-0.185306
-0.186588
-0.1876
-0.188361
-0.188896
-0.18923
-0.189392
-0.18941
-0.18931
-0.189114
-0.188842
-0.188513
-0.188142
-0.187739
-0.187318
-0.186874
-0.186442
0.0187929
-0.0127699
-0.0412585
-0.0662878
-0.0877546
-0.10577
-0.120494
-0.132131
-0.140919
-0.147121
-0.151004
-0.152839
-0.152894
-0.151437
-0.14873
-0.145029
-0.140584
-0.135624
-0.130354
-0.124944
-0.119524
-0.114212
-0.109165
-0.104466
-0.100148
-0.096222
-0.0926858
-0.0895227
-0.0867064
-0.0842049
-0.0819846
-0.0800119
-0.0782547
-0.0766835
-0.0752711
-0.0739944
-0.0728327
-0.0717687
-0.0707844
-0.0698733
-0.0690087
0.0183841
-0.0135075
-0.0414459
-0.0653317
-0.085543
-0.102664
-0.117238
-0.129716
-0.140462
-0.149768
-0.157863
-0.164931
-0.171115
-0.17653
-0.181263
-0.185379
-0.188929
-0.19195
-0.19448
-0.196557
-0.198227
-0.199531
-0.200442
-0.200964
-0.201149
-0.201051
-0.200717
-0.200196
-0.19953
-0.198763
-0.197933
-0.197072
-0.196206
-0.19536
-0.19455
-0.193791
-0.193092
-0.192461
-0.191904
-0.191419
-0.191016
5.81295
3.8188
2.63249
2.41268
2.20361
1.8929
1.62581
1.42799
1.26591
1.12269
0.997341
0.889234
0.795414
0.713086
0.640449
0.576223
0.51929
0.468668
0.423537
0.383218
0.34713
0.314772
0.285722
0.259606
0.236112
0.214959
0.195889
0.17868
0.16314
0.149101
0.136407
0.124919
0.114519
0.105102
0.0965713
0.0888373
0.0818205
0.0754505
0.0696637
0.0644034
0.0596198
0.0552675
0.0513035
0.0476879
0.0443862
0.0413673
0.0386038
0.0360692
0.03374
0.0315961
0.0296181
0.0277875
0.0260877
0.0245029
0.0230184
0.021621
0.0202973
0.0190381
0.0178322
0.0166721
0.0155465
0.0144477
0.0133648
0.0122898
0.0112122
0.0101226
0.00901086
0.00787036
0.00667928
0.00545817
0.00407723
0.00286115
0.000616675
0.00153408
5.64126
3.80268
2.62021
2.39859
2.19206
1.88235
1.61606
1.41916
1.25783
1.11524
0.990438
0.882833
0.789472
0.70756
0.635304
0.571424
0.514807
0.464475
0.419609
0.379533
0.343671
0.311524
0.282667
0.256729
0.2334
0.2124
0.193473
0.176394
0.160973
0.147044
0.134454
0.123063
0.112755
0.103425
0.0949745
0.0873165
0.0803717
0.0740705
0.0683496
0.0631528
0.0584302
0.0541368
0.0502298
0.0466696
0.0434216
0.0404547
0.0377414
0.0352549
0.0329715
0.0308706
0.0289328
0.0271402
0.0254772
0.0239287
0.0224804
0.0211194
0.0198325
0.0186096
0.017438
0.0163095
0.0152127
0.0141402
0.0130818
0.0120302
0.0109757
0.00990906
0.00882051
0.00770341
0.00653617
0.00533925
0.00398272
0.0027924
0.000529848
0.00159733
5.3976
3.77729
2.59705
2.36807
2.17182
1.86666
1.60171
1.40636
1.24652
1.10506
0.981178
0.874377
0.781729
0.700449
0.628752
0.565377
0.509219
0.459301
0.414808
0.37507
0.339515
0.307651
0.279057
0.253358
0.230249
0.20945
0.190706
0.173797
0.158533
0.144748
0.13229
0.121022
0.110828
0.101603
0.0932484
0.0856791
0.0788175
0.072595
0.066949
0.0618226
0.0571665
0.0529362
0.0490892
0.0455867
0.0423943
0.039481
0.0368197
0.0343835
0.0321489
0.0300951
0.0282027
0.0264536
0.0248317
0.0233218
0.0219096
0.0205831
0.0193299
0.0181405
0.0170023
0.0159073
0.0148444
0.0138049
0.0127779
0.0117553
0.0107277
0.0096862
0.00862144
0.00752768
0.00638424
0.00521182
0.00388088
0.00271758
0.00043241
0.00167146
5.04085
3.69936
2.55651
2.31614
2.13611
1.84122
1.57936
1.38677
1.22973
1.09041
0.968148
0.862702
0.771222
0.690941
0.620105
0.557482
0.501987
0.45266
0.408703
0.36945
0.334327
0.302856
0.274618
0.249246
0.226439
0.205917
0.187425
0.170745
0.155692
0.1421
0.129817
0.118707
0.108659
0.0995674
0.0913366
0.0838807
0.0771231
0.0709974
0.0654413
0.0603976
0.0558175
0.0516581
0.0478782
0.0444399
0.0413088
0.0384538
0.0358477
0.0334643
0.0312804
0.0292754
0.0274303
0.0257269
0.0241493
0.0226819
0.0213106
0.0200227
0.0188058
0.0176502
0.016544
0.0154795
0.0144467
0.0134371
0.0124402
0.0114478
0.0104508
0.00944012
0.00840553
0.00734086
0.00622581
0.00508112
0.00377809
0.00264191
0.00032848
0.00175876
4.55193
3.54208
2.49083
2.23272
2.07217
1.79748
1.54326
1.35559
1.20346
1.06804
0.948686
0.845608
0.756146
0.677577
0.608195
0.546817
0.492398
0.444004
0.400854
0.3623
0.327799
0.296882
0.269117
0.244154
0.221712
0.201526
0.183347
0.166961
0.152184
0.138852
0.126811
0.115925
0.106082
0.0971789
0.089122
0.0818245
0.0752101
0.0692132
0.0637737
0.0588365
0.0543532
0.0502818
0.0465827
0.0432193
0.0401582
0.0373676
0.034821
0.0324937
0.0303633
0.02841
0.0266148
0.0249596
0.0234283
0.0220056
0.0206776
0.0194315
0.0182548
0.0171378
0.0160683
0.0150386
0.0140383
0.0130592
0.0120911
0.0111262
0.0101563
0.00917266
0.00816578
0.00712965
0.00604436
0.00493064
0.00366106
0.00255691
0.000207257
0.00186974
3.91624
3.27527
2.38489
2.11173
1.97114
1.72852
1.48911
1.30919
1.16433
1.03496
0.920095
0.820564
0.734088
0.65805
0.590818
0.531296
0.478502
0.431543
0.389669
0.352258
0.318782
0.288776
0.261842
0.237647
0.215882
0.196273
0.178583
0.162606
0.14817
0.135127
0.123335
0.112666
0.103022
0.0943078
0.086433
0.0793127
0.0728704
0.0670391
0.0617575
0.05697
0.0526277
0.0486869
0.0451072
0.0418522
0.0388892
0.0361875
0.0337208
0.0314654
0.0294001
0.0275064
0.0257665
0.0241622
0.0226779
0.0212994
0.0200138
0.0188088
0.0176723
0.0165946
0.0155637
0.0145714
0.0136075
0.0126635
0.0117292
0.0107967
0.00985756
0.00890326
0.00792462
0.00691613
0.00585882
0.0047735
0.00353503
0.00246276
5.88889e-05
0.00200087
3.19241
2.90544
2.23404
1.9613
1.83679
1.63437
1.41768
1.24864
1.11319
0.992021
0.883314
0.78853
0.705981
0.633236
0.568762
0.511574
0.460783
0.415558
0.375195
0.339109
0.306804
0.277844
0.251858
0.228516
0.20752
0.188619
0.171599
0.156266
0.142446
0.129986
0.118738
0.108566
0.0993606
0.0910236
0.0834673
0.0766106
0.0703834
0.0647284
0.0595937
0.0549331
0.0507053
0.0468721
0.0433968
0.0402447
0.0373836
0.0347834
0.0324164
0.0302575
0.0282841
0.0264764
0.0248164
0.0232862
0.0218695
0.0205522
0.019322
0.0181673
0.0170772
0.0160422
0.0150505
0.0140945
0.0131648
0.0122537
0.0113517
0.010451
0.00954329
0.00862029
0.00767283
0.00669552
0.00566996
0.00461625
0.00341236
0.00237321
-4.12269e-05
0.0020944
2.48702
2.45861
2.0216
1.77858
1.6692
1.51081
1.3254
1.17184
1.04826
0.937683
0.837176
0.748637
0.67118
0.602701
0.541798
0.487626
0.439415
0.39642
0.357998
0.32361
0.292798
0.265158
0.240337
0.218027
0.197951
0.179871
0.163582
0.148894
0.135637
0.123656
0.11283
0.10306
0.0942437
0.086287
0.0791057
0.0726193
0.0667551
0.0614504
0.0566477
0.0522948
0.0483455
0.0447579
0.0414936
0.0385194
0.0358061
0.033328
0.0310626
0.02899
0.0270922
0.0253532
0.023758
0.0222911
0.0209373
0.0196829
0.0185148
0.0174209
0.0163897
0.0154111
0.0144735
0.0135682
0.0126858
0.0118186
0.0109574
0.010095
0.00922342
0.00833477
0.00742012
0.00647456
0.00548089
0.0044589
0.00329157
0.00228274
-2.14886e-05
0.00202647
1.85283
1.96933
1.7413
1.56141
1.47264
1.35733
1.20976
1.07716
0.968088
0.870356
0.780214
0.699599
0.62852
0.565371
0.508933
0.458515
0.413501
0.373257
0.337217
0.304907
0.275915
0.249879
0.22648
0.205434
0.186491
0.169428
0.154052
0.140189
0.127682
0.116391
0.106207
0.0970261
0.0887407
0.0812528
0.0744749
0.0683359
0.0627771
0.0577435
0.0531854
0.0490582
0.0453237
0.0419457
0.0388882
0.0361186
0.033607
0.0313262
0.0292511
0.0273588
0.0256285
0.0240417
0.022582
0.0212334
0.0199813
0.018813
0.0177179
0.0166862
0.0157084
0.0147768
0.013882
0.013017
0.0121734
0.0113439
0.0105199
0.00969429
0.00885918
0.00800688
0.0071287
0.00621952
0.00526279
0.00427728
0.00315267
0.002173
0.000105844
0.00174839
1.28071
1.45931
1.39079
1.29528
1.23875
1.16514
1.06031
0.955811
0.865702
0.78405
0.707334
0.63721
0.574506
0.518319
0.467715
0.422196
0.381335
0.344651
0.311684
0.282043
0.255382
0.231393
0.209799
0.190351
0.172826
0.157026
0.142778
0.129925
0.118324
0.107849
0.0983939
0.0898609
0.0821545
0.07519
0.0688933
0.0632036
0.0580657
0.0534251
0.0492321
0.0454424
0.0420139
0.0389084
0.0360937
0.0335395
0.0312184
0.0291069
0.0271838
0.0254302
0.0238291
0.0223651
0.0210244
0.0197927
0.0186555
0.0176001
0.0166151
0.0156896
0.0148133
0.0139772
0.0131712
0.0123872
0.0116167
0.0108525
0.0100866
0.0093122
0.00852256
0.00771099
0.00687009
0.00599576
0.00507309
0.00412018
0.00303582
0.0020786
0.000277755
0.00138701
0.735118
0.946497
0.99121
0.982953
0.970745
0.938714
0.8782
0.807574
0.741061
0.678544
0.61804
0.560929
0.508625
0.461033
0.417643
0.378186
0.342454
0.310152
0.28096
0.254588
0.230774
0.209277
0.189873
0.172359
0.156548
0.142275
0.129388
0.117754
0.107248
0.0977582
0.0891911
0.0814615
0.0744863
0.0681891
0.0625014
0.0573641
0.0527239
0.0485304
0.0447391
0.0413109
0.0382089
0.0354019
0.0328629
0.0305647
0.0284828
0.0265951
0.0248815
0.0233232
0.0219032
0.020606
0.0194161
0.0183185
0.0173012
0.0163533
0.0154648
0.0146265
0.0138295
0.0130664
0.0123288
0.0116099
0.010902
0.0101986
0.00949192
0.00877549
0.00804253
0.00728646
0.00649999
0.00567898
0.00480924
0.00390766
0.00288102
0.00197102
0.000359772
0.00111717
0.239156
0.459019
0.570173
0.631019
0.665986
0.675047
0.65758
0.624173
0.585939
0.546256
0.505264
0.464362
0.425266
0.388627
0.354467
0.322809
0.293688
0.267034
0.242701
0.22053
0.200367
0.182059
0.165451
0.150398
0.136763
0.124418
0.113246
0.10314
0.0940004
0.0857354
0.0782668
0.0715229
0.0654339
0.0599339
0.0549643
0.0504746
0.0464204
0.0427602
0.0394561
0.0364742
0.0337823
0.0313519
0.0291576
0.0271741
0.0253788
0.0237514
0.0222739
0.0209298
0.0197043
0.0185841
0.017556
0.0166083
0.0157311
0.0149146
0.0141495
0.013427
0.0127387
0.0120774
0.0114347
0.0108037
0.0101772
0.00954852
0.00891045
0.00825684
0.00758162
0.00687902
0.00614261
0.00536911
0.00454583
0.00368942
0.00271485
0.00185064
0.000364947
0.000947942
-0.249115
-0.0216786
0.133191
0.247103
0.328331
0.379097
0.403327
0.408352
0.401904
0.388431
0.369866
0.34801
0.324758
0.301342
0.278351
0.256168
0.235099
0.215321
0.196899
0.179834
0.164101
0.149653
0.136423
0.124338
0.11332
0.10329
0.0941727
0.0858948
0.0783861
0.0715812
0.065421
0.0598512
0.0548183
0.0502712
0.0461638
0.0424557
0.0391107
0.0360944
0.0333747
0.0309226
0.0287112
0.0267165
0.0249172
0.0232928
0.0218249
0.020497
0.0192943
0.0182028
0.0172101
0.0163045
0.0154748
0.0147101
0.014001
0.0133386
0.0127143
0.0121204
0.0115495
0.0109952
0.0104505
0.00990949
0.00936582
0.00881384
0.00824739
0.00766104
0.00704946
0.00640753
0.00572951
0.00501262
0.00424552
0.00344385
0.00253238
0.00171751
0.000378016
0.000808561
-0.655454
-0.43859
-0.268492
-0.127386
-0.015167
0.0681393
0.126554
0.165409
0.189669
0.203113
0.208305
0.207328
0.202097
0.194115
0.18439
0.173634
0.162404
0.151112
0.140033
0.129345
0.119166
0.10957
0.100592
0.0922461
0.0845244
0.0774098
0.0708771
0.0648961
0.0594338
0.054456
0.0499297
0.0458229
0.0421024
0.0387352
0.0356902
0.0329394
0.0304575
0.0282202
0.0262047
0.0243902
0.0227573
0.0212884
0.0199677
0.0187798
0.0177102
0.0167458
0.0158747
0.0150857
0.0143688
0.0137145
0.0131138
0.0125581
0.0120399
0.0115521
0.0110881
0.0106416
0.0102068
0.00977821
0.00934984
0.00891651
0.00847267
0.00801323
0.00753268
0.0070261
0.00648873
0.0059161
0.00530329
0.00464818
0.00394103
0.00319687
0.00235022
0.00158728
0.000388415
0.000679364
-1.05142
-0.843197
-0.664769
-0.506846
-0.371868
-0.261425
-0.173153
-0.103584
-0.0496792
-0.00879065
0.0214185
0.0430054
0.057806
0.0673877
0.0729936
0.075597
0.0759825
0.074778
0.0724657
0.0694102
0.0658887
0.062111
0.0582317
0.0543631
0.0505847
0.0469514
0.0434996
0.0402519
0.03722
0.0344081
0.0318156
0.0294379
0.0272666
0.0252901
0.0234961
0.0218723
0.0204071
0.0190883
0.0179039
0.0168422
0.015892
0.0150424
0.0142836
0.0136058
0.0129997
0.0124566
0.0119689
0.0115293
0.0111311
0.0107678
0.0104333
0.0101214
0.0098267
0.00954391
0.0092679
0.00899382
0.0087169
0.00843284
0.00813685
0.00782472
0.00749195
0.00713441
0.00674766
0.00632766
0.00587063
0.00537304
0.00483098
0.0042432
0.0036017
0.00292083
0.00214518
0.00144039
0.00037997