/*--------------------------------*- C++ -*----------------------------------*\
| =========                 |                                                 |
| \\      /  F ield         | OpenFOAM: The Open Source CFD Toolbox           |
|  \\    /   O peration     | Version:  2312                                  |
|   \\  /    A nd           | Website:  www.openfoam.com                      |
|    \\/     M anipulation  |                                                 |
\*---------------------------------------------------------------------------*/
FoamFile
{
    version     2.0;
    format      ascii;
    arch        "LSB;label=32;scalar=64";
    class       surfaceScalarField;
    location    "249";
    object      phi;
}
// * * * * * * * * * * * * * * * * * * * * * * * * * * * * * * * * * * * * * //

dimensions      [0 3 -1 0 0 0 0];

oriented        oriented;

internalField   nonuniform List<scalar> 
21876
(
0.00619654
-0.00400792
-0.00218861
0.00789235
-0.00169581
0.0084253
-0.000532954
0.00850368
-7.83794e-05
0.00830728
0.000196407
0.00800818
0.000299094
0.00772005
0.000288134
0.00749518
0.000224866
0.00735071
0.000144475
0.00728199
6.87213e-05
0.00726388
1.81008e-05
0.00726875
-4.8669e-06
0.00727353
-4.77815e-06
0.0072612
1.23279e-05
0.00722286
3.83457e-05
0.0071573
6.55514e-05
0.00706752
8.97887e-05
0.00695844
0.00010908
0.00683294
0.000125498
0.00669094
0.000142
0.00652798
0.000162959
0.0063784
0.000149573
0.00626295
0.00011546
0.00616795
9.49942e-05
0.0060804
8.75486e-05
0.00599603
8.43701e-05
0.00591124
8.47881e-05
0.00582455
8.66956e-05
0.00573409
9.04617e-05
0.00563802
9.60686e-05
0.00553366
0.000104357
0.00541793
0.000115728
0.00528721
0.000130725
0.00513504
0.000152165
0.00495496
0.000180085
0.00473874
0.000216217
0.00447555
0.000263188
0.00414008
0.000335477
0.00371409
0.000425991
0.00312399
0.000590095
0.000530734
0.00259326
0.00609918
-0.00764355
-0.00246356
0.00802699
-0.00362362
0.00879632
-0.00130229
0.00930604
-0.000588099
0.0098101
-0.000307647
0.0102558
-0.000146606
0.0105944
-5.04426e-05
0.0108137
5.57451e-06
0.0109214
3.66997e-05
0.0109363
5.38677e-05
0.0108797
7.47234e-05
0.0107714
0.000103391
0.0106301
0.000136486
0.0104715
0.000170977
0.0103076
0.000202295
0.0101443
0.00022877
0.00998311
0.000251008
0.00982296
0.000269235
0.00966068
0.000287775
0.00949233
0.000310357
0.00930687
0.000348411
0.00912696
0.000329487
0.0089685
0.000273922
0.00882782
0.00023567
0.00869932
0.000216047
0.00858056
0.000203132
0.00846742
0.000197932
0.00835685
0.000197268
0.00824584
0.000201467
0.00813181
0.0002101
0.00801176
0.000224408
0.0078824
0.000245091
0.00774016
0.000272959
0.00757877
0.000313556
0.00739228
0.000366576
0.00717236
0.000436134
0.00691007
0.000525481
0.00657618
0.000669366
0.00616814
0.000834028
0.00556963
0.0011886
0.00129485
0.00480552
0.00629556
-0.0111542
-0.0027849
0.0091588
-0.00648685
0.0109942
-0.00313771
0.0121052
-0.00169904
0.0128008
-0.00100326
0.0132311
-0.000576954
0.0134792
-0.000298557
0.0136071
-0.000122293
0.0136596
-1.57814e-05
0.0136652
4.8219e-05
0.0136422
9.77118e-05
0.0136004
0.000145228
0.0135449
0.000191988
0.0134764
0.000239517
0.0133941
0.000284612
0.0132969
0.000325881
0.013184
0.000363962
0.0130549
0.000398354
0.0129082
0.0004344
0.012742
0.000476572
0.0125492
0.000541243
0.0123594
0.000519261
0.0121909
0.000442414
0.0120381
0.00038853
0.0118937
0.000360428
0.011756
0.000340837
0.0116217
0.000332201
0.0114883
0.000330714
0.0113528
0.000336939
0.0112125
0.000350375
0.011064
0.000372907
0.0109035
0.000405639
0.0107266
0.000449796
0.0105261
0.000514121
0.0102955
0.000597187
0.0100262
0.000705417
0.00970916
0.0008425
0.009315
0.00106352
0.00884409
0.00130494
0.00821579
0.00181691
0.0020676
0.00744304
0.00658553
-0.014555
-0.00318476
0.00971713
-0.00961845
0.0119697
-0.00539026
0.0133605
-0.00308983
0.0142312
-0.00187402
0.0148308
-0.00117656
0.0152694
-0.000737151
0.0156
-0.000452897
0.0158561
-0.000271839
0.016059
-0.000154726
0.0162203
-6.35589e-05
0.0163453
2.02256e-05
0.0164406
9.66791e-05
0.0165091
0.000171085
0.016553
0.000240679
0.0165743
0.000304614
0.0165737
0.00036455
0.0165514
0.000420582
0.0165057
0.000480191
0.0164328
0.00054941
0.0163244
0.00064968
0.0162008
0.000642886
0.016083
0.000560161
0.0159685
0.000503078
0.0158502
0.000478657
0.0157274
0.000463702
0.0155983
0.000461308
0.0154616
0.000467394
0.0153158
0.000482717
0.0151593
0.000506855
0.0149897
0.000542558
0.0148036
0.00059168
0.0145972
0.000656234
0.0143624
0.000748926
0.0140926
0.000866971
0.0137785
0.00101947
0.0134096
0.00121142
0.0129546
0.00151854
0.0124106
0.00184891
0.0117163
0.00251123
0.00285679
0.0109271
0.00706862
-0.0180049
-0.00361873
0.0104381
-0.0129879
0.0132944
-0.00824659
0.0154329
-0.00522833
0.0169476
-0.0033887
0.0180236
-0.00225261
0.0187881
-0.00150159
0.0193192
-0.000984036
0.0196746
-0.000627201
0.0199017
-0.000381792
0.0200362
-0.00019808
0.0201031
-4.6737e-05
0.0201228
7.6994e-05
0.0201107
0.000183235
0.0200783
0.00027302
0.0200339
0.00034901
0.0199827
0.000415803
0.019928
0.000475301
0.0198707
0.000537443
0.019811
0.000609143
0.0197429
0.000717789
0.019677
0.000708797
0.0196291
0.000608002
0.0195963
0.000535843
0.0195688
0.000506255
0.0195421
0.00049037
0.0195125
0.000490843
0.0194762
0.000503702
0.0194293
0.000529679
0.019368
0.000568129
0.0192883
0.000622276
0.0191854
0.00069453
0.0190542
0.000787495
0.0188856
0.000917515
0.018672
0.00108056
0.0184032
0.00128827
0.0180674
0.00154719
0.0176328
0.00195318
0.017093
0.00238874
0.016399
0.00320517
0.00364202
0.0156138
0.00776459
-0.021663
-0.00410643
0.0113492
-0.0165725
0.0146065
-0.011504
0.0172829
-0.00790464
0.0192898
-0.00539563
0.0207338
-0.00369658
0.0217604
-0.00252819
0.0224831
-0.00170676
0.0229848
-0.00112897
0.0233315
-0.000728474
0.0235731
-0.000439691
0.0237423
-0.000215867
0.0238622
-4.29678e-05
0.0239473
9.81254e-05
0.024006
0.000214377
0.0240431
0.000311907
0.024062
0.000396903
0.0240651
0.000472161
0.0240535
0.000549053
0.0240276
0.000635056
0.0239844
0.000760978
0.023937
0.000756254
0.0239032
0.000641745
0.0238856
0.000553502
0.0238758
0.000515961
0.0238701
0.000496147
0.0238658
0.000495165
0.0238601
0.000509371
0.0238501
0.000539628
0.0238331
0.00058512
0.023806
0.000649416
0.023765
0.000735507
0.023706
0.000846533
0.0236215
0.00100202
0.0235052
0.00119679
0.0233485
0.00144501
0.0231412
0.00175451
0.0228571
0.00223732
0.0224839
0.00276185
0.022004
0.00368512
0.00429653
0.0213495
0.00868011
-0.0256983
-0.00464483
0.0125738
-0.0204662
0.0162079
-0.0151381
0.0194169
-0.0111137
0.0220492
-0.00802787
0.0240983
-0.00574576
0.0256491
-0.00407897
0.0268009
-0.00285854
0.0276397
-0.00196778
0.0282384
-0.00132713
0.0286581
-0.000859386
0.0289454
-0.00050324
0.0291337
-0.000231284
0.0292484
-1.65744e-05
0.0293083
0.000154573
0.0293278
0.000292351
0.0293182
0.000406508
0.0292872
0.000503127
0.0292396
0.000596654
0.0291784
0.000696317
0.029104
0.000835327
0.0290269
0.000833382
0.0289637
0.000704902
0.0289195
0.000597728
0.0288877
0.000547816
0.0288629
0.000520878
0.0288424
0.000515683
0.0288231
0.000528649
0.028802
0.000560792
0.0287761
0.000611005
0.0287427
0.000682779
0.028699
0.000779226
0.0286422
0.000903352
0.0285673
0.00107695
0.0284723
0.00129179
0.0283547
0.00156252
0.0282133
0.00189592
0.0280406
0.00241007
0.0278313
0.00297112
0.0276322
0.00388421
0.00467565
0.0272531
0.00982434
-0.0302787
-0.00524394
0.014162
-0.0248039
0.0182033
-0.0191793
0.0218763
-0.0147867
0.0250515
-0.011203
0.0276592
-0.00835354
0.0297159
-0.00613558
0.0312889
-0.00443155
0.0324602
-0.00313911
0.0333105
-0.00217739
0.0339157
-0.00146462
0.0343392
-0.000926706
0.0346312
-0.000523367
0.0348311
-0.000216404
0.0349663
1.93614e-05
0.0350558
0.00020286
0.0351116
0.000350662
0.0351416
0.0004731
0.0351506
0.000587683
0.0351414
0.000705567
0.035113
0.000863734
0.0350753
0.000871014
0.0350423
0.000737957
0.0350229
0.000617057
0.0350138
0.000557
0.0350093
0.000525387
0.0350061
0.000518793
0.0350014
0.000533405
0.0349916
0.00057058
0.0349735
0.000629127
0.0349438
0.000712445
0.0348993
0.000823708
0.0348369
0.000965816
0.0347508
0.00116299
0.0346398
0.00140286
0.0345031
0.00169917
0.0343418
0.00205723
0.0341576
0.00259429
0.0339536
0.00317506
0.0338115
0.00402632
0.0048876
0.0335996
0.0112164
-0.0355846
-0.00591049
0.0161649
-0.0297524
0.0207261
-0.0237406
0.0248941
-0.0189547
0.0286037
-0.0149125
0.0317916
-0.0115415
0.0344364
-0.00878036
0.0365643
-0.0065594
0.0382314
-0.00480624
0.0395057
-0.00345173
0.0404601
-0.00241895
0.0411644
-0.0016311
0.0416769
-0.00103584
0.042044
-0.000583433
0.0423008
-0.000237511
0.0424747
2.89881e-05
0.0425859
0.00023947
0.0426495
0.00040944
0.0426766
0.000560672
0.0426745
0.000707605
0.0426507
0.000887507
0.0426107
0.000911059
0.0425703
0.00077836
0.0425395
0.000647832
0.0425185
0.000578069
0.0425026
0.000541208
0.0424887
0.000532703
0.0424739
0.000548255
0.0424549
0.000589604
0.0424283
0.000655678
0.042391
0.000749779
0.0423396
0.000875043
0.0422712
0.00103423
0.0421802
0.00125404
0.0420656
0.0015174
0.0419279
0.00183691
0.0417685
0.00221662
0.041589
0.00277376
0.0413989
0.00336515
0.041262
0.00416321
0.00500659
0.0411431
0.0128867
-0.041818
-0.00665335
0.0186345
-0.0355002
0.0238717
-0.0289777
0.0286253
-0.0237083
0.0328873
-0.0191745
0.0366333
-0.0152876
0.0398441
-0.0119911
0.0425234
-0.00923872
0.0447015
-0.00698428
0.0464266
-0.00517683
0.0477616
-0.00375398
0.0487765
-0.00264602
0.0495345
-0.00179378
0.0500923
-0.00114126
0.0504987
-0.000643896
0.0507927
-0.000264997
0.0510039
2.82308e-05
0.0511541
0.000259301
0.0512582
0.000456511
0.051327
0.000638841
0.0513659
0.00084862
0.0513803
0.0008966
0.0513834
0.000775303
0.0513878
0.000643429
0.0513977
0.000568208
0.0514107
0.000528186
0.0514239
0.000519474
0.0514346
0.000537539
0.0514397
0.000584496
0.0514359
0.000659559
0.0514197
0.000765962
0.0513881
0.000906628
0.0513384
0.00108388
0.0512653
0.00132719
0.0511693
0.00161338
0.0510525
0.00195373
0.0509193
0.00234982
0.0507706
0.00292242
0.050626
0.00350974
0.0505261
0.00426316
0.00504798
0.0504847
0.0148761
-0.0492134
-0.00748069
0.0216406
-0.0422647
0.0277476
-0.0350847
0.0332391
-0.0291998
0.0381467
-0.0240821
0.0424919
-0.0196328
0.0462864
-0.0157856
0.0495421
-0.0124945
0.0522814
-0.00972356
0.0545376
-0.007433
0.0563588
-0.00557521
0.0578071
-0.00409432
0.058941
-0.00292771
0.0598181
-0.00201831
0.0604905
-0.00131632
0.0610024
-0.000776855
0.0613894
-0.000358858
0.0616804
-3.16329e-05
0.0618972
0.000239704
0.0620568
0.000479252
0.0621748
0.000730566
0.0622482
0.000823191
0.062297
0.000726581
0.0623345
0.000605914
0.0623687
0.000534009
0.0624006
0.000496285
0.0624288
0.000491226
0.0624517
0.000514707
0.0624669
0.000569247
0.062472
0.000654442
0.0624645
0.000773533
0.062442
0.000929128
0.0624028
0.00112299
0.0623429
0.00138709
0.0622649
0.00169142
0.0621729
0.00204573
0.0620741
0.00244858
0.0619702
0.00302638
0.0618863
0.00359357
0.0618506
0.0042989
0.00501002
0.0618886
0.0172365
-0.0580481
-0.00840182
0.0252716
-0.0502998
0.0324767
-0.0422898
0.0389005
-0.0356236
0.0446006
-0.0297822
0.0496358
-0.024668
0.0540553
-0.0202051
0.0578986
-0.0163377
0.0612003
-0.0130253
0.0639935
-0.0102262
0.0663187
-0.00790047
0.0682301
-0.0060057
0.0697786
-0.00447618
0.0710174
-0.00325712
0.0719989
-0.00229785
0.0727719
-0.00154981
0.0733795
-0.000966529
0.0738584
-0.000510481
0.0742382
-0.000140069
0.0745419
0.000175507
0.0747864
0.000486089
0.0749648
0.000644736
0.0751001
0.000591337
0.0752089
0.000497049
0.0753034
0.000439582
0.0753885
0.000411154
0.0754658
0.000413951
0.0755351
0.000445371
0.0755956
0.000508727
0.0756459
0.000604192
0.0756843
0.000735148
0.0757095
0.000903874
0.0757212
0.00111129
0.0757158
0.00139247
0.075698
0.0017093
0.0756734
0.00207034
0.0756513
0.00247062
0.075632
0.00304567
0.075643
0.00358259
0.0757034
0.00423847
0.00487452
0.0758389
0.020033
-0.068654
-0.00942714
0.0296399
-0.0599066
0.0382139
-0.0508638
0.0458079
-0.0432176
0.0524989
-0.0364732
0.0583756
-0.0305446
0.063523
-0.0253525
0.0680156
-0.0208303
0.0719156
-0.0169253
0.0752733
-0.0135839
0.0781358
-0.010763
0.0805579
-0.00842778
0.0825869
-0.00650518
0.0842712
-0.00494138
0.0856592
-0.00368589
0.086798
-0.00268861
0.0877312
-0.00189969
0.0884972
-0.00127654
0.0891294
-0.000772209
0.0896558
-0.000350927
0.0901021
3.97873e-05
0.0904453
0.000301547
0.0907198
0.000316882
0.0909457
0.000271141
0.091139
0.000246203
0.0913094
0.000240785
0.0914618
0.000261536
0.0915988
0.000308397
0.0917215
0.00038599
0.0918305
0.000495278
0.0919257
0.000639915
0.0920076
0.000821916
0.0920775
0.00104145
0.0921336
0.00133633
0.0921826
0.00166035
0.0922318
0.0020211
0.0922917
0.00241077
0.0923625
0.00297489
0.0924707
0.00347433
0.0926306
0.00407856
0.00464249
0.0928627
0.0233467
-0.0814301
-0.0105705
0.0348862
-0.0714462
0.0451515
-0.0611291
0.0541999
-0.0522661
0.0621263
-0.0443996
0.0690452
-0.0374636
0.0750743
-0.0313815
0.0803227
-0.0260788
0.0848863
-0.0214889
0.0888432
-0.0175408
0.09226
-0.0141798
0.0952031
-0.0113709
0.0977253
-0.00902733
0.0998753
-0.00709143
0.1017
-0.00551036
0.103243
-0.00423216
0.104548
-0.00320477
0.105654
-0.00238253
0.106597
-0.001715
0.107408
-0.00116182
0.108114
-0.000666057
0.108676
-0.000260984
0.109139
-0.00014578
0.109527
-0.000117118
0.109862
-8.85058e-05
0.110158
-5.48875e-05
0.110424
-4.81837e-06
0.110668
6.49061e-05
0.110893
0.000160917
0.111103
0.000285405
0.1113
0.000442595
0.111487
0.000634473
0.111668
0.000860582
0.111842
0.00116252
0.112017
0.0014855
0.112201
0.00183707
0.112404
0.00220715
0.112625
0.00275407
0.112888
0.00321208
0.113199
0.00376663
0.00426654
0.113575
0.027278
-0.0968607
-0.0118474
0.0411863
-0.0853545
0.0535307
-0.0734735
0.0643753
-0.0631106
0.0738337
-0.053858
0.0820475
-0.0456774
0.0891658
-0.0384999
0.0953328
-0.0322458
0.10068
-0.0268358
0.105318
-0.0221793
0.109344
-0.0182052
0.112844
-0.0148713
0.115888
-0.0120717
0.118536
-0.00973853
0.120837
-0.00781159
0.122838
-0.00623368
0.124582
-0.00494875
0.126107
-0.00390762
0.127449
-0.00305661
0.128639
-0.00235201
0.129708
-0.00173475
0.130586
-0.00113915
0.131329
-0.000889213
0.131968
-0.000755694
0.132527
-0.000647554
0.133026
-0.000553527
0.133478
-0.000457194
0.133895
-0.000351555
0.134283
-0.000227437
0.134649
-8.09739e-05
0.134999
9.30382e-05
0.135336
0.000296939
0.135667
0.000530012
0.135992
0.000837501
0.136321
0.00115695
0.136661
0.00149631
0.137024
0.00184423
0.137407
0.00237155
0.137831
0.00278825
0.138301
0.00329572
0.00373744
0.138831
0.0319516
-0.115535
-0.0132775
0.0487582
-0.102161
0.0636517
-0.088367
0.0767049
-0.0761638
0.088054
-0.0652071
0.0978705
-0.0554939
0.106338
-0.0469671
0.113636
-0.0395444
0.119935
-0.033134
0.125381
-0.0276255
0.130103
-0.0229277
0.134219
-0.0189868
0.13782
-0.0156731
0.140985
-0.0129032
0.143777
-0.0106039
0.146252
-0.00870823
0.148455
-0.00715233
0.150429
-0.0058811
0.152208
-0.00483626
0.153826
-0.00396999
0.155312
-0.00322008
0.156563
-0.00239007
0.157644
-0.00197086
0.15859
-0.00170178
0.15943
-0.00148741
0.160187
-0.00131059
0.16088
-0.0011502
0.161524
-0.000995319
0.16213
-0.000833907
0.16271
-0.000660051
0.16327
-0.000467201
0.163819
-0.000252153
0.164364
-1.52806e-05
0.164909
0.000293139
0.165462
0.000603636
0.166033
0.000925499
0.16663
0.00124683
0.167249
0.00175235
0.167909
0.00212844
0.168612
0.0025932
0.0029851
0.169364
0.0375199
-0.138171
-0.0148836
0.0578707
-0.122512
0.0758859
-0.106382
0.0916496
-0.0919275
0.105325
-0.0788829
0.11712
-0.0672885
0.127257
-0.0571037
0.135957
-0.0482445
0.143429
-0.0406066
0.149863
-0.0340587
0.155422
-0.0284875
0.160258
-0.0238225
0.164493
-0.0199078
0.168229
-0.0166396
0.171553
-0.0139273
0.174533
-0.0116887
0.177229
-0.00984835
0.179689
-0.00834137
0.181955
-0.00710221
0.184062
-0.0060772
0.186043
-0.00520029
0.187752
-0.00409942
0.189264
-0.00348322
0.190615
-0.00305235
0.191835
-0.00270779
0.192952
-0.00242709
0.193986
-0.00218468
0.194957
-0.00196577
0.195878
-0.00175525
0.196763
-0.00154473
0.197621
-0.00132587
0.198464
-0.00109419
0.199297
-0.000849173
0.200127
-0.000536916
0.200964
-0.00023246
0.201814
7.50452e-05
0.202687
0.000373818
0.203579
0.00086081
0.204505
0.00120211
0.205467
0.00163057
0.00198031
0.206472
0.0400604
-0.163056
-0.0151758
0.0624176
-0.144869
0.0821943
-0.126159
0.0994807
-0.109214
0.114456
-0.0938577
0.127345
-0.080178
0.138394
-0.0681524
0.147846
-0.0576967
0.155933
-0.0486941
0.162867
-0.0409924
0.168835
-0.0344553
0.174006
-0.0289935
0.178522
-0.0244242
0.182505
-0.0206219
0.186053
-0.0174759
0.189251
-0.0148869
0.192168
-0.0127647
0.194858
-0.0110322
0.197371
-0.00961432
0.199743
-0.00844932
0.202008
-0.00746535
0.203999
-0.00609044
0.20579
-0.00527464
0.207415
-0.00467712
0.208903
-0.00419605
0.210281
-0.00380465
0.21157
-0.00347364
0.212789
-0.00318488
0.213954
-0.00292049
0.215079
-0.00266977
0.216176
-0.00242253
0.217255
-0.00217284
0.218324
-0.00191907
0.219391
-0.00160323
0.220463
-0.00130436
0.221548
-0.00100987
0.222652
-0.000731068
0.223773
-0.000260087
0.224923
5.26096e-05
0.226101
0.000452294
0.000769518
0.227312
0.0420823
-0.189867
-0.015271
0.0661586
-0.168945
0.0874457
-0.147446
0.106039
-0.127807
0.12213
-0.109949
0.135963
-0.0940102
0.147798
-0.0799883
0.157901
-0.0677991
0.16652
-0.0573132
0.173885
-0.0483573
0.180201
-0.0407716
0.185653
-0.0344454
0.190398
-0.0291694
0.194571
-0.024795
0.198286
-0.0211905
0.201637
-0.0182379
0.204703
-0.0158307
0.207549
-0.0138784
0.210229
-0.0122941
0.212787
-0.011007
0.215259
-0.00993804
0.217465
-0.0082962
0.219478
-0.00728783
0.221329
-0.00652819
0.223046
-0.00591301
0.224653
-0.00541181
0.226172
-0.00499207
0.22762
-0.00463268
0.229012
-0.00431319
0.230363
-0.00402067
0.231684
-0.00374306
0.232984
-0.00347286
0.234272
-0.00320715
0.235553
-0.0028847
0.236836
-0.00258689
0.238126
-0.00229957
0.239428
-0.00203348
0.240741
-0.00157309
0.242074
-0.00128027
0.243427
-0.000900973
-0.000607117
0.244804
0.0443871
-0.218779
-0.0154753
0.07034
-0.194898
0.0932787
-0.170385
0.113305
-0.147834
0.130626
-0.12727
0.145502
-0.108886
0.158215
-0.0927016
0.169049
-0.0786328
0.178273
-0.0665368
0.186134
-0.0562188
0.192856
-0.047494
0.198639
-0.0402281
0.203654
-0.0341848
0.208051
-0.0291912
0.211954
-0.0250936
0.21547
-0.0217541
0.218688
-0.0190488
0.221682
-0.0168721
0.224512
-0.0151245
0.22723
-0.0137248
0.229877
-0.0125855
0.232263
-0.0106813
0.234461
-0.00948593
0.236501
-0.00856853
0.23841
-0.00782234
0.240212
-0.00721338
0.241926
-0.00670614
0.24357
-0.0062767
0.245159
-0.00590223
0.246706
-0.00556767
0.248222
-0.00525915
0.249717
-0.00496758
0.251198
-0.00468871
0.252672
-0.00435863
0.254145
-0.00406003
0.255623
-0.0037774
0.257111
-0.00352083
0.258606
-0.00306877
0.260117
-0.00279148
0.261645
-0.00242815
-0.00215253
0.26319
0.0469729
-0.249978
-0.0157742
0.074971
-0.222896
0.0997119
-0.195126
0.121305
-0.169427
0.139973
-0.145938
0.155996
-0.124909
0.169678
-0.106384
0.181324
-0.0902784
0.191223
-0.0764364
0.199644
-0.0646399
0.206828
-0.0546779
0.21299
-0.0463902
0.218318
-0.0395123
0.222973
-0.0338459
0.227093
-0.0292137
0.230795
-0.0254568
0.234179
-0.0224329
0.237328
-0.0200203
0.240309
-0.0181061
0.243182
-0.0165972
0.245993
-0.0153972
0.248545
-0.0132327
0.250914
-0.0118548
0.253129
-0.0107839
0.255217
-0.00991044
0.257201
-0.00919695
0.259099
-0.00860483
0.26093
-0.00810738
0.262707
-0.0076794
0.264443
-0.00730365
0.266148
-0.00696447
0.267832
-0.00665116
0.269501
-0.00635808
0.271162
-0.00601926
0.27282
-0.0057177
0.274479
-0.0054367
0.276144
-0.00518565
0.277814
-0.00473919
0.279495
-0.00447233
0.281187
-0.00412012
-0.0038571
0.282892
0.0498461
-0.283665
-0.0161589
0.0800712
-0.253121
0.106776
-0.221831
0.130078
-0.19273
0.150218
-0.166077
0.167498
-0.142188
0.182244
-0.12113
0.194784
-0.102819
0.205433
-0.0870846
0.214477
-0.0736842
0.222178
-0.0623787
0.228767
-0.0529798
0.234448
-0.0451936
0.239397
-0.0387943
0.243763
-0.03358
0.247676
-0.0293694
0.251244
-0.0260005
0.254558
-0.0233345
0.257696
-0.021244
0.260722
-0.0196235
0.263691
-0.0183665
0.266398
-0.0159394
0.268923
-0.0143797
0.271296
-0.0131569
0.273544
-0.0121581
0.275689
-0.0113419
0.27775
-0.0106667
0.279746
-0.0101027
0.281689
-0.00962233
0.283591
-0.0092062
0.285463
-0.00883676
0.287314
-0.0085017
0.28915
-0.008194
0.290977
-0.00784603
0.292799
-0.00754044
0.294622
-0.0072595
0.296448
-0.00701189
0.298279
-0.00656983
0.300118
-0.00631079
0.301965
-0.0059673
-0.00571408
0.303822
0.0530189
-0.32006
-0.0166241
0.0856682
-0.285771
0.114512
-0.250674
0.139678
-0.217896
0.161424
-0.187824
0.180077
-0.160841
0.195988
-0.137041
0.209512
-0.116343
0.220984
-0.0985571
0.230717
-0.0834171
0.238992
-0.070653
0.246058
-0.0600461
0.252135
-0.0512709
0.257414
-0.0440729
0.262057
-0.0382233
0.266205
-0.0335173
0.269976
-0.0297719
0.273472
-0.0268301
0.276777
-0.0245489
0.279963
-0.0228096
0.283091
-0.021495
0.285951
-0.0187995
0.288628
-0.0170561
0.291152
-0.0156808
0.293551
-0.0145571
0.295848
-0.0136393
0.298064
-0.0128821
0.300214
-0.0122529
0.302313
-0.0117214
0.304373
-0.0112658
0.306403
-0.0108668
0.308411
-0.0105104
0.310405
-0.010188
0.31239
-0.0098308
0.31437
-0.00952045
0.316349
-0.00923834
0.318329
-0.00899238
0.320313
-0.00855383
0.322303
-0.00830019
0.324299
-0.00796319
-0.007717
0.326302
0.0565082
-0.359401
-0.017167
0.0917964
-0.321059
0.12297
-0.281847
0.150166
-0.245092
0.173665
-0.211323
0.193817
-0.180993
0.211003
-0.154227
0.225603
-0.130943
0.23798
-0.110935
0.248471
-0.0939078
0.257378
-0.0795603
0.264972
-0.0676397
0.271489
-0.0577876
0.277134
-0.0497184
0.282086
-0.0431748
0.286495
-0.0379264
0.290491
-0.0337681
0.294184
-0.0305234
0.297668
-0.0280326
0.301021
-0.026163
0.304312
-0.0247856
0.307325
-0.0218121
0.310148
-0.0198797
0.312816
-0.0183487
0.315357
-0.0170982
0.317796
-0.0160778
0.320152
-0.0152385
0.322443
-0.0145441
0.324683
-0.0139616
0.326884
-0.0134669
0.329056
-0.0130386
0.331207
-0.0126608
0.333342
-0.0123236
0.335468
-0.0119572
0.33759
-0.0116416
0.339709
-0.0113576
0.341829
-0.0111122
0.343952
-0.0106768
0.346079
-0.0104271
0.348211
-0.0100954
-0.00985464
0.350349
0.0603353
-0.401949
-0.0177867
0.0984968
-0.35922
0.132207
-0.315558
0.161616
-0.274501
0.187026
-0.236732
0.208815
-0.202782
0.227394
-0.172805
0.243172
-0.146721
0.256541
-0.124304
0.267863
-0.10523
0.277466
-0.0891633
0.285641
-0.0758143
0.292643
-0.0647893
0.298694
-0.0557693
0.303985
-0.0484666
0.308682
-0.0426235
0.312925
-0.038011
0.316834
-0.0344316
0.320509
-0.0317081
0.324039
-0.0296925
0.327496
-0.0282434
0.330663
-0.0249791
0.333633
-0.0228496
0.336442
-0.0211574
0.33912
-0.0197763
0.341693
-0.0186509
0.344183
-0.0177278
0.346606
-0.0169674
0.348978
-0.0163337
0.351311
-0.0157998
0.353614
-0.0153421
0.355897
-0.014943
0.358164
-0.014591
0.360422
-0.0142153
0.362675
-0.0138945
0.364925
-0.0136081
0.367176
-0.0133625
0.369429
-0.0129302
0.371686
-0.0126835
0.373946
-0.0123563
-0.0121197
0.376211
0.0645252
-0.447991
-0.0184836
0.105816
-0.400512
0.142291
-0.352032
0.174113
-0.306323
0.201607
-0.264227
0.225182
-0.226358
0.245282
-0.192905
0.262348
-0.163786
0.276802
-0.138758
0.289037
-0.117464
0.299403
-0.0995298
0.308216
-0.0846269
0.31575
-0.0723239
0.322247
-0.0622658
0.327912
-0.0541321
0.332925
-0.0476361
0.337437
-0.0425226
0.341577
-0.0385722
0.345457
-0.0355884
0.349172
-0.033407
0.352802
-0.0318733
0.356125
-0.0283022
0.35924
-0.0259647
0.362186
-0.024103
0.364995
-0.0225853
0.367694
-0.0213505
0.370307
-0.0203408
0.372852
-0.0195123
0.375344
-0.0188258
0.377796
-0.0182516
0.380218
-0.0177639
0.382618
-0.0173431
0.385003
-0.0169758
0.387378
-0.0165908
0.389748
-0.0162643
0.392115
-0.0159752
0.394482
-0.0157289
0.396851
-0.0152997
0.399223
-0.0150553
0.401599
-0.014732
-0.0144988
0.403978
0.0691069
-0.497839
-0.0192592
0.113809
-0.445213
0.153297
-0.39152
0.187748
-0.340775
0.217517
-0.293995
0.243043
-0.251884
0.264804
-0.214666
0.283278
-0.182261
0.298921
-0.154401
0.312153
-0.130697
0.323356
-0.110733
0.332868
-0.094139
0.340987
-0.0804428
0.347972
-0.0692506
0.354046
-0.0602066
0.359403
-0.0529925
0.364206
-0.0473258
0.368596
-0.0429626
0.372694
-0.0396862
0.376602
-0.037315
0.380408
-0.0356795
0.383889
-0.0317829
0.387148
-0.0292238
0.390227
-0.0271821
0.393162
-0.0255198
0.395981
-0.0241698
0.398709
-0.0230689
0.401366
-0.0221691
0.403967
-0.0214274
0.406527
-0.0208114
0.409056
-0.0202925
0.411562
-0.0198491
0.414052
-0.019466
0.416533
-0.0190714
0.419007
-0.0187389
0.421479
-0.0184468
0.423949
-0.0181994
0.426423
-0.0177736
0.428899
-0.0175311
0.431379
-0.0172115
-0.0169812
0.433861
0.0741134
-0.551836
-0.0201161
0.122534
-0.493634
0.165308
-0.434294
0.20263
-0.378097
0.23488
-0.326245
0.262537
-0.27954
0.286114
-0.238244
0.306128
-0.202274
0.32307
-0.171343
0.337395
-0.145022
0.349514
-0.122852
0.359792
-0.104417
0.368551
-0.0892014
0.376069
-0.0767692
0.38259
-0.0667271
0.38832
-0.0587226
0.393438
-0.0524435
0.398095
-0.0476202
0.402423
-0.0440138
0.406532
-0.0414237
0.410517
-0.0396652
0.414156
-0.0354213
0.417556
-0.0326242
0.420763
-0.0303895
0.423816
-0.0285727
0.426746
-0.0270995
0.429579
-0.0259015
0.432336
-0.0249258
0.435034
-0.0241257
0.437688
-0.0234652
0.440308
-0.0229132
0.442905
-0.0224458
0.445485
-0.0220458
0.448054
-0.021641
0.450618
-0.0213021
0.453177
-0.0210065
0.455735
-0.0207576
0.458297
-0.0203352
0.46086
-0.0200943
0.463427
-0.0197784
-0.0195505
0.465996
0.0795821
-0.610361
-0.0210573
0.132061
-0.546113
0.178421
-0.480655
0.218876
-0.418551
0.253837
-0.361207
0.283821
-0.309524
0.309384
-0.263807
0.331083
-0.223973
0.349447
-0.189707
0.364968
-0.160543
0.37809
-0.135974
0.389206
-0.115534
0.398664
-0.0986593
0.406766
-0.0848706
0.413772
-0.073733
0.419906
-0.0648575
0.425363
-0.0578998
0.430305
-0.0525623
0.434873
-0.0485825
0.439189
-0.0457394
0.443355
-0.0438315
0.44715
-0.0392158
0.450687
-0.0361614
0.454016
-0.0337186
0.457179
-0.031735
0.460208
-0.0301293
0.463133
-0.0288267
0.465977
-0.0277693
0.468758
-0.0269063
0.47149
-0.0261979
0.474187
-0.0256103
0.476858
-0.0251169
0.479511
-0.0246987
0.482153
-0.0242827
0.484788
-0.0239367
0.487418
-0.0236371
0.490047
-0.0233862
0.492679
-0.0229675
0.495313
-0.022728
0.49795
-0.0224157
-0.0221903
0.50059
0.085555
-0.673829
-0.0220868
0.142464
-0.603022
0.192742
-0.530933
0.236619
-0.462428
0.274543
-0.399131
0.307072
-0.342053
0.334807
-0.291542
0.358349
-0.247514
0.37827
-0.209629
0.395102
-0.177374
0.409322
-0.150194
0.421355
-0.127568
0.431578
-0.108882
0.440315
-0.0936075
0.447848
-0.0812663
0.45442
-0.0714297
0.460239
-0.0637188
0.465483
-0.057806
0.470303
-0.0534028
0.47483
-0.0502665
0.479176
-0.0481773
0.483123
-0.0431623
0.48679
-0.0398286
0.490231
-0.0371596
0.493491
-0.034995
0.496607
-0.0332452
0.499609
-0.031829
0.502523
-0.0306828
0.505367
-0.0297512
0.50816
-0.0289906
0.510914
-0.028364
0.513639
-0.0278421
0.516344
-0.0274036
0.519036
-0.0269753
0.521721
-0.0266211
0.5244
-0.0263168
0.527078
-0.0260634
0.529758
-0.0256484
0.53244
-0.0254099
0.535126
-0.0251015
-0.0248783
0.537814
0.092079
-0.742699
-0.0232093
0.15383
-0.664773
0.208388
-0.585491
0.256007
-0.510048
0.297172
-0.440296
0.332486
-0.377367
0.362599
-0.321655
0.38816
-0.273075
0.409787
-0.231256
0.428053
-0.19564
0.443476
-0.165616
0.456514
-0.140605
0.467571
-0.119939
0.477001
-0.103037
0.485107
-0.0893723
0.492151
-0.078474
0.498358
-0.069926
0.50392
-0.063368
0.509001
-0.058484
0.513742
-0.0550073
0.518264
-0.0526987
0.522355
-0.0472537
0.526142
-0.0436153
0.529682
-0.0406996
0.533024
-0.0383373
0.536209
-0.0364301
0.539269
-0.0348895
0.542232
-0.0336459
0.54512
-0.0326389
0.54795
-0.0318208
0.550737
-0.031151
0.553493
-0.0305974
0.556225
-0.0301363
0.558944
-0.0296938
0.561653
-0.0293302
0.564357
-0.0290202
0.567057
-0.0287636
0.569761
-0.0283524
0.572466
-0.0281148
0.575174
-0.0278102
-0.0275892
0.577885
0.0992069
-0.817476
-0.0244299
0.166253
-0.731818
0.225494
-0.644732
0.277207
-0.561761
0.32192
-0.485008
0.360284
-0.415731
0.393002
-0.354372
0.420775
-0.300848
0.444272
-0.254753
0.464111
-0.215479
0.480852
-0.182356
0.494989
-0.154742
0.506959
-0.13191
0.517144
-0.113221
0.525871
-0.0980994
0.533423
-0.0860268
0.540044
-0.0765469
0.545941
-0.0692646
0.551291
-0.0638336
0.556245
-0.0599616
0.560934
-0.057388
0.56516
-0.0514791
0.569052
-0.0475073
0.572673
-0.0443214
0.576078
-0.0417422
0.57931
-0.0396619
0.582405
-0.0379843
0.585392
-0.0366333
0.588296
-0.0355428
0.591136
-0.0346607
0.593928
-0.0339426
0.596684
-0.0333533
0.599414
-0.0328665
0.602128
-0.0324076
0.60483
-0.0320329
0.607526
-0.0317161
0.610218
-0.0314554
0.612913
-0.0310477
0.615609
-0.0308107
0.618309
-0.03051
-0.0302912
0.621011
0.106998
-0.898719
-0.0257545
0.179839
-0.80466
0.244207
-0.7091
0.300405
-0.617959
0.349004
-0.533607
0.390711
-0.457438
0.426285
-0.389947
0.456486
-0.331049
0.482034
-0.280302
0.503599
-0.237044
0.521784
-0.200542
0.537125
-0.170083
0.550094
-0.144878
0.5611
-0.124228
0.570501
-0.1075
0.578601
-0.0941268
0.585662
-0.0836084
0.591909
-0.0755114
0.597533
-0.0694573
0.602697
-0.0651259
0.607543
-0.0622334
0.611887
-0.0558232
0.615865
-0.0514855
0.619546
-0.0480026
0.622988
-0.0451845
0.62624
-0.0429132
0.629339
-0.041084
0.63232
-0.0396136
0.635207
-0.0384301
0.638023
-0.0374764
0.640784
-0.0367039
0.643505
-0.0360742
0.646196
-0.0355579
0.648869
-0.0350799
0.651528
-0.0346921
0.654179
-0.0343669
0.656824
-0.0341009
0.659473
-0.0336966
0.662122
-0.0334597
0.664775
-0.033163
-0.0329465
0.66743
0.115517
-0.987046
-0.0271895
0.194709
-0.883852
0.264695
-0.779086
0.325808
-0.679072
0.378669
-0.586468
0.424044
-0.502812
0.462753
-0.428657
0.495619
-0.363914
0.52342
-0.308103
0.54688
-0.260504
0.56665
-0.220312
0.58331
-0.186743
0.59737
-0.158938
0.609273
-0.136131
0.619403
-0.117631
0.628092
-0.102815
0.635621
-0.0911375
0.642233
-0.0821233
0.648134
-0.0753585
0.653501
-0.0704931
0.658486
-0.0672179
0.662927
-0.060265
0.666967
-0.0555248
0.670679
-0.0517144
0.674127
-0.0486325
0.677363
-0.0461496
0.680431
-0.0441519
0.683366
-0.0425484
0.686196
-0.0412607
0.688946
-0.0402264
0.691635
-0.0393924
0.694277
-0.0387165
0.696885
-0.0381662
0.699471
-0.0376658
0.702042
-0.0372623
0.704601
-0.0369268
0.707155
-0.0366541
0.709711
-0.0362527
0.712267