/*--------------------------------*- C++ -*----------------------------------*\
| =========                 |                                                 |
| \\      /  F ield         | OpenFOAM: The Open Source CFD Toolbox           |
|  \\    /   O peration     | Version:  2312                                  |
|   \\  /    A nd           | Website:  www.openfoam.com                      |
|    \\/     M anipulation  |                                                 |
\*---------------------------------------------------------------------------*/
FoamFile
{
    version     2.0;
    format      ascii;
    arch        "LSB;label=32;scalar=64";
    class       volSymmTensorField;
    location    "249";
    object      turbulenceProperties:devReff;
}
// * * * * * * * * * * * * * * * * * * * * * * * * * * * * * * * * * * * * * //

dimensions      [0 2 -2 0 0 0 0];

internalField   nonuniform List<symmTensor> 
11040
(
(0.016788 0.0106594 1.62973e-21 -0.0163909 -9.80638e-21 -0.000397137)
(0.0467184 0.0105439 1.41107e-20 -0.0510734 1.74252e-20 0.00435499)
(0.117298 -0.0175008 1.15413e-19 -0.128178 1.4516e-19 0.0108802)
(0.240684 -0.106092 -1.07208e-19 -0.257764 -4.4178e-20 0.0170798)
(0.396494 -0.27265 -1.20169e-19 -0.418601 -1.45551e-20 0.0221066)
(0.586104 -0.537951 -1.39768e-19 -0.613854 2.84949e-20 0.02775)
(0.771536 -0.888282 -3.93579e-19 -0.803185 -8.4767e-19 0.0316488)
(0.860963 -1.20573 -6.70132e-19 -0.890665 -3.85067e-19 0.0297027)
(0.843042 -1.41057 3.29393e-19 -0.866656 2.82369e-20 0.0236134)
(0.770359 -1.52301 -5.21194e-19 -0.787547 2.84202e-20 0.0171884)
(0.683185 -1.58703 1.81504e-19 -0.69549 4.25898e-19 0.0123049)
(0.596569 -1.62708 -9.83838e-19 -0.605507 2.23672e-19 0.00893805)
(0.512893 -1.65166 -3.72362e-19 -0.519646 -2.28079e-19 0.00675236)
(0.431636 -1.66191 -1.63923e-19 -0.436977 2.04738e-19 0.00534128)
(0.352385 -1.65727 3.57029e-20 -0.356757 -7.78138e-21 0.00437238)
(0.275469 -1.63854 -3.71625e-19 -0.279158 -2.42964e-19 0.00368867)
(0.201512 -1.6072 6.74271e-20 -0.204702 1.73806e-20 0.00318924)
(0.131447 -1.56504 1.83795e-19 -0.134221 4.132e-19 0.00277475)
(0.0658215 -1.5136 -9.98757e-20 -0.0682456 3.84832e-21 0.00242407)
(0.00547288 -1.45407 -3.57373e-20 -0.00752705 -5.39672e-20 0.00205417)
(-0.0495485 -1.38566 -5.62492e-21 0.0478307 3.418e-20 0.00171777)
(-0.0938935 -1.31283 1.32404e-19 0.0928511 8.57824e-20 0.00104242)
(-0.124423 -1.24442 -1.05319e-19 0.12412 -5.72243e-20 0.000303278)
(-0.147357 -1.18376 3.58326e-20 0.147216 1.88766e-19 0.000141248)
(-0.166058 -1.12905 -1.42986e-19 0.165888 -1.45878e-19 0.000169463)
(-0.181124 -1.07772 -3.98397e-21 0.181008 -3.45841e-19 0.000116635)
(-0.193183 -1.0285 -6.19601e-20 0.193121 -1.41395e-19 6.20104e-05)
(-0.202638 -0.981022 -2.57443e-19 0.202626 8.58784e-20 1.19403e-05)
(-0.209852 -0.934935 -1.01582e-19 0.209883 -8.64029e-20 -3.12501e-05)
(-0.215003 -0.88979 1.1249e-19 0.215085 -2.28678e-19 -8.2064e-05)
(-0.218231 -0.845093 8.8973e-20 0.218367 1.15613e-19 -0.000136053)
(-0.219571 -0.800321 4.80296e-19 0.219768 -9.91956e-20 -0.000196217)
(-0.218959 -0.754972 5.84026e-19 0.219226 1.86203e-19 -0.000267469)
(-0.216271 -0.708326 6.47932e-20 0.216619 1.18871e-19 -0.000347888)
(-0.211265 -0.65951 1.19803e-19 0.211701 -1.35188e-20 -0.000435897)
(-0.203517 -0.607896 2.7616e-19 0.204071 6.00512e-20 -0.000553829)
(-0.192433 -0.552223 -6.97803e-20 0.193102 3.79063e-20 -0.000668968)
(-0.17749 -0.492376 4.56704e-20 0.178375 7.22131e-21 -0.000885296)
(-0.15668 -0.421466 -1.50059e-19 0.15752 6.12326e-20 -0.000840091)
(-0.130855 -0.355255 -2.87553e-20 0.13273 8.83046e-20 -0.00187526)
(-0.0929457 -0.225692 -6.86036e-22 0.0929277 -1.3301e-20 1.80689e-05)
(0.00620005 -0.00403453 -2.12749e-21 -0.0059569 1.85986e-21 -0.000243148)
(0.00215983 -0.00808178 3.5042e-21 -0.000187396 3.00107e-21 -0.00197243)
(-0.000458292 -0.00794005 -4.45876e-20 0.00367066 -5.36795e-20 -0.00321237)
(-0.000655157 -0.00686304 -4.61684e-21 0.00411807 -8.18492e-22 -0.00346292)
(0.000286073 -0.00748475 4.53108e-22 0.00341966 -2.91546e-21 -0.00370573)
(0.00230314 -0.0122849 -2.23911e-20 0.00285688 -2.84274e-20 -0.00516002)
(0.00728911 -0.0248465 -2.93332e-20 0.000968296 1.1905e-19 -0.0082574)
(0.0154421 -0.0426415 1.55944e-19 -0.00473521 2.16799e-19 -0.0107069)
(0.0244246 -0.0608577 -1.06311e-20 -0.0133207 -3.32772e-20 -0.0111039)
(0.0320481 -0.0773484 7.60006e-20 -0.0220585 3.08847e-20 -0.00998968)
(0.0371135 -0.0913058 -1.05225e-19 -0.0289007 -2.83219e-19 -0.0082128)
(0.0394926 -0.102906 7.94522e-19 -0.0331349 8.25429e-20 -0.00635769)
(0.0394488 -0.112544 -2.01995e-20 -0.0347165 2.4526e-19 -0.00473229)
(0.0373957 -0.120672 5.85154e-19 -0.033953 4.22115e-20 -0.00344264)
(0.0338914 -0.127903 -3.09736e-19 -0.0314117 -6.59942e-20 -0.00247961)
(0.0293931 -0.13446 9.52747e-20 -0.0275786 2.67341e-19 -0.00181443)
(0.02424 -0.140362 1.81477e-19 -0.0228542 8.96128e-20 -0.0013858)
(0.0186864 -0.145501 1.90609e-19 -0.0175623 -2.42555e-19 -0.00112408)
(0.0128902 -0.14987 -3.54501e-22 -0.0119334 -1.19843e-20 -0.000956799)
(0.00703525 -0.153503 -1.70211e-20 -0.00620416 3.67058e-20 -0.000831087)
(0.00126383 -0.156907 -5.77923e-20 -0.000610538 1.21929e-20 -0.000653295)
(-0.00379416 -0.159329 -1.08377e-19 0.00407092 -9.91267e-20 -0.000276768)
(-0.00794733 -0.15936 2.22962e-19 0.00782123 1.53518e-19 0.000126096)
(-0.0118277 -0.15725 3.27363e-20 0.0115043 -1.43919e-19 0.000323398)
(-0.0153644 -0.154247 4.55256e-20 0.015043 9.36751e-20 0.000321378)
(-0.0183802 -0.151136 -9.92067e-20 0.0181072 3.91347e-19 0.000272935)
(-0.0209798 -0.148179 -4.18836e-20 0.0207264 2.09108e-19 0.000253442)
(-0.0232476 -0.1454 4.21687e-19 0.0229901 -2.41611e-20 0.000257483)
(-0.0252433 -0.142811 -4.53674e-21 0.0249667 7.02784e-20 0.000276652)
(-0.0269984 -0.140433 -2.61973e-19 0.0266888 1.58988e-19 0.00030964)
(-0.0285524 -0.138298 -3.82972e-19 0.0281942 -9.61198e-20 0.000358178)
(-0.0299336 -0.136452 -6.98251e-19 0.0295098 -1.49682e-19 0.000423811)
(-0.0311597 -0.134942 -5.53756e-19 0.0306515 -2.89736e-19 0.00050819)
(-0.0322518 -0.133853 -2.77509e-19 0.0316382 -7.69342e-20 0.000613588)
(-0.033229 -0.133319 1.62566e-19 0.0324809 -2.00218e-20 0.0007481)
(-0.0340379 -0.133504 -5.37415e-19 0.0331299 -1.63475e-19 0.00090807)
(-0.0347981 -0.1346 4.1342e-19 0.0336546 -9.20729e-20 0.00114351)
(-0.0349905 -0.137033 -3.04522e-19 0.0336947 3.43687e-20 0.00129585)
(-0.0362847 -0.141163 5.53516e-20 0.0342765 -6.32858e-20 0.00200821)
(-0.0319261 -0.148627 1.43551e-19 0.0314295 -1.82447e-19 0.000496606)
(-0.0402816 -0.164284 -3.10073e-19 0.0323089 1.21705e-19 0.00797267)
(0.00425839 -0.00256677 4.64334e-22 -0.0042364 1.13857e-21 -2.19872e-05)
(0.000587153 -0.00378145 -1.40777e-20 -0.000846895 -1.03387e-20 0.000259742)
(-0.00181478 -0.00156663 2.02141e-20 0.00092436 2.34346e-20 0.000890422)
(-0.00206765 0.000698149 3.13587e-20 0.000714184 1.80031e-20 0.00135347)
(-0.00157475 0.0018368 -1.51926e-21 0.000159752 -1.86282e-21 0.001415)
(-0.00110021 0.00218783 9.24918e-21 -0.000166502 1.07501e-20 0.00126672)
(-0.000765081 0.00217624 1.98567e-20 -0.000310123 6.644e-21 0.0010752)
(-0.00052606 0.00201914 1.97037e-20 -0.000370971 -3.61954e-21 0.000897031)
(-0.000337459 0.00180441 -1.61432e-20 -0.000411421 -4.49921e-21 0.00074888)
(-0.000166091 0.00159547 1.40181e-21 -0.000491864 -5.87866e-21 0.000657956)
(4.84858e-05 0.001293 -1.90723e-20 -0.000662322 9.26107e-21 0.000613836)
(0.000402093 0.000621995 -5.13343e-20 -0.00100501 -4.6415e-20 0.000602913)
(0.00100849 -0.00108657 7.23559e-20 -0.00155652 9.75783e-21 0.000548022)
(0.00186678 -0.00444731 -1.04841e-19 -0.0022591 -4.53434e-20 0.000392312)
(0.00283997 -0.00964174 9.1234e-20 -0.00298715 7.36072e-20 0.000147185)
(0.00375279 -0.0165846 4.07521e-20 -0.00361538 -3.01552e-20 -0.00013741)
(0.00442712 -0.0250856 -2.49798e-20 -0.0040166 -7.62461e-20 -0.000410515)
(0.00468826 -0.0348505 -3.25089e-20 -0.00404943 -6.45764e-20 -0.000638826)
(0.00438422 -0.0454952 -1.16347e-21 -0.00358763 -2.57359e-21 -0.000796584)
(0.00343437 -0.0565493 9.27822e-21 -0.00254619 5.59267e-21 -0.000888173)
(0.00181935 -0.0676554 1.02456e-19 -0.000939978 1.43424e-20 -0.000879372)
(-0.000372647 -0.0782236 9.1902e-20 0.00118227 1.55702e-20 -0.000809618)
(-0.00299636 -0.0874326 -2.23106e-20 0.00382317 -9.6657e-20 -0.000826814)
(-0.00584043 -0.0948263 1.06201e-20 0.00665144 -4.441e-20 -0.000811012)
(-0.00859912 -0.100492 -1.42179e-19 0.00933359 -5.55805e-20 -0.000734473)
(-0.0111547 -0.104764 3.60787e-19 0.0118115 -1.14509e-19 -0.000656756)
(-0.0135248 -0.107893 2.22122e-19 0.0141074 2.77612e-20 -0.000582617)
(-0.0157133 -0.110112 -4.3225e-19 0.0162316 -1.33824e-19 -0.000518228)
(-0.0177114 -0.111635 -8.08012e-20 0.0181768 6.78809e-20 -0.000465438)
(-0.0195099 -0.112645 9.19662e-20 0.0199383 1.5451e-19 -0.000428439)
(-0.0211066 -0.113275 4.30105e-19 0.0215109 1.19954e-22 -0.000404304)
(-0.0224989 -0.113636 -1.94399e-19 0.0228895 3.046e-19 -0.000390592)
(-0.0236768 -0.113826 5.28649e-19 0.0240649 -3.83108e-20 -0.000388079)
(-0.0246186 -0.113916 6.45651e-19 0.0250129 -3.94091e-20 -0.000394297)
(-0.025301 -0.114012 -1.55015e-19 0.0257035 -4.29602e-20 -0.000402517)
(-0.0256345 -0.114234 -4.3184e-19 0.0260608 1.41754e-19 -0.000426261)
(-0.025722 -0.114805 -5.82853e-19 0.026142 4.07411e-20 -0.000419982)
(-0.0248657 -0.115807 6.28801e-19 0.0253983 -8.15804e-20 -0.000532602)
(-0.0251908 -0.118406 1.04247e-19 0.0253424 -1.1055e-20 -0.000151537)
(-0.0188221 -0.121674 1.90291e-19 0.020299 -2.13024e-20 -0.00147693)
(-0.0305125 -0.137753 3.0679e-19 0.0274088 -1.65768e-19 0.00310374)
(0.00282607 -0.00160257 -1.04762e-22 -0.0028528 -7.6733e-22 2.67353e-05)
(0.000928334 -0.00297178 2.79263e-21 -0.000905852 1.13612e-21 -2.24814e-05)
(-0.000924304 -0.00271168 -1.6671e-20 0.00108052 -1.29415e-20 -0.000156213)
(-0.0017959 -0.00181977 -2.50964e-20 0.00214827 -1.90867e-20 -0.000352371)
(-0.0018527 -0.00104213 4.25703e-21 0.00237361 2.76465e-21 -0.000520918)
(-0.00156565 -0.00058367 1.61e-20 0.00216539 5.22009e-21 -0.000599733)
(-0.00124099 -0.000358612 -4.30965e-21 0.00184172 -7.59269e-21 -0.000600726)
(-0.000968628 -0.000247632 -5.59086e-21 0.00152584 -7.4056e-21 -0.000557208)
(-0.000746769 -0.000183665 5.83537e-21 0.0012379 5.44659e-21 -0.000491131)
(-0.000560135 -0.000140679 -7.25008e-21 0.000972505 -6.75059e-22 -0.00041237)
(-0.000404618 -0.000110168 1.72343e-20 0.00073433 7.78073e-21 -0.000329712)
(-0.000276839 -9.02604e-05 -4.62955e-21 0.000527611 4.05506e-21 -0.000250772)
(-0.000174279 -8.29898e-05 -4.9774e-22 0.000356597 -3.94149e-21 -0.000182318)
(-9.29107e-05 -9.20841e-05 1.43662e-20 0.00022048 5.3925e-21 -0.000127569)
(-2.57008e-05 -0.000125402 6.24051e-21 0.000111999 -4.26226e-21 -8.62986e-05)
(3.81249e-05 -0.000201318 -5.72646e-21 1.75743e-05 -3.00044e-21 -5.56992e-05)
(0.000117915 -0.000369306 -1.13802e-20 -8.76296e-05 1.03714e-21 -3.02853e-05)
(0.000246676 -0.000750455 -6.11504e-21 -0.000245785 -7.09198e-22 -8.90349e-07)
(0.000458908 -0.00156931 1.15096e-21 -0.000503956 1.11552e-21 4.50479e-05)
(0.000748423 -0.00308088 -1.42546e-21 -0.000859999 -2.4444e-21 0.000111576)
(0.00105837 -0.0055555 -1.0232e-20 -0.00125753 -6.10267e-21 0.000199164)
(0.00123394 -0.00904566 -3.50016e-20 -0.00151565 -1.21799e-20 0.000281708)
(0.00113075 -0.013236 -1.40179e-20 -0.00145758 -8.55739e-21 0.000326829)
(0.000749204 -0.017904 -3.54994e-20 -0.00112146 1.19365e-20 0.000372252)
(0.000146959 -0.0229504 -7.61971e-20 -0.000566316 5.7477e-20 0.000419357)
(-0.000653603 -0.0282886 -3.29536e-19 0.000213176 -2.65167e-20 0.000440427)
(-0.00164923 -0.0338065 4.93092e-20 0.00120655 -4.60199e-20 0.000442679)
(-0.00282163 -0.0393841 6.56068e-20 0.00238524 1.05605e-19 0.000436388)
(-0.00413836 -0.04493 2.2641e-19 0.00371239 3.64769e-21 0.000425969)
(-0.00556115 -0.0503793 1.85015e-19 0.00515061 -6.7037e-20 0.000410545)
(-0.00705256 -0.0556962 -3.32833e-19 0.00666029 -1.77637e-20 0.000392263)
(-0.00857673 -0.0608747 2.84542e-19 0.008204 -3.83969e-21 0.000372733)
(-0.0100928 -0.06593 -9.06377e-19 0.00974182 1.04815e-19 0.000351025)
(-0.0115614 -0.0709221 -2.1717e-19 0.0112339 -1.85062e-20 0.000327479)
(-0.0129385 -0.0759412 -2.03451e-19 0.0126335 6.32811e-20 0.00030505)
(-0.0141287 -0.0810811 -9.19938e-20 0.0138594 6.14198e-20 0.000269365)
(-0.0151605 -0.0865224 -3.92899e-21 0.0149024 3.01457e-20 0.000258108)
(-0.0154808 -0.0923944 1.0358e-19 0.0153564 -2.72816e-20 0.000124331)
(-0.0166975 -0.099646 -2.06437e-19 0.0162677 3.3589e-20 0.000429838)
(-0.0125009 -0.106829 3.52591e-19 0.0134347 -1.49647e-20 -0.000933816)
(-0.0243728 -0.123928 -9.27917e-20 0.0211317 5.65918e-20 0.00324102)
(0.00192925 -0.00102556 2.39282e-21 -0.00193859 1.37909e-21 9.3449e-06)
(0.00094333 -0.00198413 -3.6307e-21 -0.000945254 -2.6081e-21 1.92343e-06)
(-0.000301555 -0.0020045 1.67034e-20 0.000290209 9.11958e-21 1.13466e-05)
(-0.0010974 -0.00131911 2.23931e-20 0.00101754 1.37039e-20 7.98518e-05)
(-0.00127367 -0.000488748 -2.16956e-20 0.00110661 -1.12847e-20 0.000167053)
(-0.00108144 0.000120944 2.38679e-21 0.000844792 -1.00175e-21 0.000236648)
(-0.000793516 0.000463184 -3.41857e-21 0.000513187 -1.82318e-21 0.000280328)
(-0.000537781 0.000623359 -1.0008e-20 0.000236559 -1.79604e-21 0.000301222)
(-0.000341307 0.00068216 3.21638e-21 3.86022e-05 4.1731e-22 0.000302705)
(-0.000200202 0.00068472 3.98836e-21 -8.66238e-05 1.19482e-21 0.000286826)
(-0.000103871 0.000658125 6.22217e-21 -0.000155603 -3.45448e-21 0.000259474)
(-4.21893e-05 0.000618405 -3.8796e-22 -0.000183826 8.33326e-22 0.000226015)
(-6.11866e-06 0.000572728 -6.92919e-22 -0.000182856 7.30521e-22 0.000188975)
(1.46532e-05 0.000525914 -8.56433e-21 -0.000166625 -7.59528e-21 0.000151972)
(2.73579e-05 0.000479504 -4.65325e-21 -0.000144752 -3.22508e-23 0.000117394)
(3.62337e-05 0.000433482 3.37132e-22 -0.000122866 4.49454e-22 8.66323e-05)
(4.36862e-05 0.000387451 2.71594e-21 -0.000104211 2.01308e-21 6.0525e-05)
(5.08499e-05 0.000341314 -3.3152e-21 -9.01236e-05 1.83482e-22 3.92736e-05)
(5.85477e-05 0.000294805 5.73495e-22 -8.13136e-05 -1.48435e-22 2.2766e-05)
(6.74933e-05 0.000247569 -9.19778e-22 -7.76827e-05 1.70034e-22 1.01895e-05)
(8.00593e-05 0.00019648 2.2227e-21 -8.12228e-05 7.75318e-22 1.16345e-06)
(9.63501e-05 0.000135937 -3.97325e-23 -9.06108e-05 6.942e-22 -5.73934e-06)
(0.000113221 5.71038e-05 -3.78238e-21 -0.000100021 8.56645e-22 -1.32e-05)
(0.000133028 -6.39749e-05 7.0604e-21 -0.000111807 1.63051e-21 -2.12202e-05)
(0.000158749 -0.00028278 1.90317e-20 -0.000127773 -2.18535e-21 -3.09755e-05)
(0.000182826 -0.000678391 1.3649e-20 -0.000138007 1.47864e-20 -4.48188e-05)
(0.00018781 -0.00132219 -3.53077e-21 -0.000126371 1.0605e-22 -6.14399e-05)
(0.000154188 -0.0022568 4.3855e-20 -7.63815e-05 -1.4405e-20 -7.78061e-05)
(6.74487e-05 -0.00350886 -7.58702e-21 2.47068e-05 -2.06688e-20 -9.21556e-05)
(-8.27344e-05 -0.00510701 -6.767e-20 0.000187364 -5.51667e-22 -0.00010463)
(-0.000305046 -0.00709172 7.16966e-20 0.000420383 1.69393e-20 -0.000115337)
(-0.000608043 -0.00951776 -1.48031e-20 0.000732283 -1.29059e-20 -0.00012424)
(-0.000998264 -0.0124505 3.06602e-19 0.00113007 2.34947e-21 -0.000131803)
(-0.00148165 -0.015992 1.71049e-19 0.00161989 -2.29543e-20 -0.000138242)
(-0.0020623 -0.0202734 1.18982e-19 0.00220403 -9.19208e-21 -0.000141733)
(-0.00272129 -0.0254567 1.18682e-19 0.0028694 -1.00187e-20 -0.000148107)
(-0.00349101 -0.0317633 -9.99584e-20 0.00362817 1.25477e-20 -0.000137157)
(-0.00412278 -0.0395561 2.36594e-20 0.00431422 -4.89596e-22 -0.000191442)
(-0.00552484 -0.0497151 -9.98933e-20 0.00548679 1.05467e-20 3.80452e-05)
(-0.00408452 -0.0611597 -3.45319e-19 0.00490169 6.23619e-20 -0.000817169)
(-0.0138468 -0.0841639 2.81791e-19 0.0115835 -3.39938e-20 0.00226335)
(0.00129976 -0.000669603 -2.58736e-21 -0.00130561 -1.39379e-21 5.84868e-06)
(0.00079753 -0.00130241 1.10201e-20 -0.000803422 4.10845e-21 5.89164e-06)
(3.68703e-05 -0.00152107 -6.74596e-21 -2.51691e-05 -1.4455e-21 -1.17012e-05)
(-0.000641079 -0.00129395 -5.88543e-21 0.00066054 -3.84358e-21 -1.94611e-05)
(-0.00101123 -0.000835224 4.35594e-21 0.00104954 3.42358e-21 -3.83011e-05)
(-0.00108123 -0.000392913 -3.23861e-21 0.00115204 -1.31176e-21 -7.08015e-05)
(-0.000982835 -8.31604e-05 -4.85757e-21 0.00108704 -1.73742e-21 -0.000104207)
(-0.000830823 9.5684e-05 -5.92749e-22 0.000961033 1.76687e-21 -0.00013021)
(-0.000680471 0.000184686 -4.04796e-22 0.000828332 4.91146e-22 -0.000147861)
(-0.000549018 0.000219764 -9.56105e-21 0.000706918 -3.70043e-21 -0.0001579)
(-0.000439524 0.000224673 -7.15152e-21 0.000600283 -1.13505e-22 -0.000160759)
(-0.000349949 0.000213725 4.72644e-21 0.000507208 -4.97262e-22 -0.000157258)
(-0.000275071 0.000197338 1.29162e-21 0.000422126 1.03656e-21 -0.000147055)
(-0.000211257 0.000181072 -1.10017e-20 0.000343254 3.24694e-22 -0.000131998)
(-0.000156614 0.00016661 9.48288e-21 0.000271384 2.03394e-21 -0.000114771)
(-0.000109359 0.000154054 -4.4358e-21 0.000206426 -4.8493e-22 -9.70673e-05)
(-6.81021e-05 0.000142903 -9.35125e-24 0.00014798 -1.87503e-21 -7.9878e-05)
(-3.19514e-05 0.000132521 -1.05694e-21 9.58424e-05 1.20955e-21 -6.38909e-05)
(-2.2184e-07 0.000122254 -9.49435e-22 4.96059e-05 -2.16788e-22 -4.93841e-05)
(2.75501e-05 0.000111517 6.48004e-22 9.23342e-06 4.74439e-22 -3.67835e-05)
(5.14995e-05 9.87442e-05 9.47135e-22 -2.57246e-05 -6.00329e-22 -2.57749e-05)
(6.8577e-05 8.19795e-05 -7.09391e-22 -5.17026e-05 3.62281e-23 -1.68744e-05)
(7.5862e-05 6.47486e-05 1.3003e-21 -6.46896e-05 1.092e-22 -1.11725e-05)
(7.71892e-05 5.15659e-05 4.34531e-22 -7.02723e-05 -5.75118e-22 -6.91697e-06)
(7.73291e-05 4.16215e-05 -6.18697e-21 -7.38161e-05 -7.09574e-22 -3.51293e-06)
(7.78932e-05 3.2153e-05 4.55961e-21 -7.663e-05 -8.57271e-22 -1.26323e-06)
(7.8848e-05 2.18499e-05 4.66194e-22 -7.90119e-05 -5.86159e-22 1.63917e-07)
(8.022e-05 1.01454e-05 -7.60618e-21 -8.13959e-05 -2.93377e-22 1.17587e-06)
(8.25836e-05 -3.93489e-06 -5.6126e-21 -8.45427e-05 5.17192e-22 1.95904e-06)
(8.69766e-05 -2.22594e-05 3.73098e-21 -8.95658e-05 8.44354e-22 2.58919e-06)
(9.52327e-05 -4.86262e-05 2.86274e-21 -9.84373e-05 -9.66861e-22 3.20461e-06)
(0.000110744 -9.1726e-05 8.60043e-22 -0.000114761 3.89049e-22 4.01665e-06)
(0.000139272 -0.00017159 -1.39355e-20 -0.000144576 -1.25702e-21 5.30462e-06)
(0.000189495 -0.000333361 -2.03329e-20 -0.000196936 5.51509e-22 7.44028e-06)
(0.000267904 -0.000662841 -8.494e-21 -0.000278895 -1.14261e-21 1.09907e-05)
(0.000372873 -0.00129021 1.93146e-20 -0.000387897 -2.65039e-21 1.50232e-05)
(0.000475696 -0.00238782 3.37871e-21 -0.000498564 1.31598e-21 2.28678e-05)
(0.000600816 -0.00422983 2.98944e-20 -0.000615026 -4.32059e-21 1.42103e-05)
(0.000497395 -0.0075048 9.5261e-20 -0.000576193 -1.33456e-20 7.87983e-05)
(0.000907662 -0.0121422 8.17791e-21 -0.000732812 -5.90787e-21 -0.00017485)
(-0.00187667 -0.0252325 -1.57978e-19 0.00107772 2.87402e-20 0.000798948)
(0.00088533 -0.000452865 -3.89302e-22 -0.000886104 -2.2251e-22 7.74234e-07)
(0.000620985 -0.000852501 4.41069e-22 -0.000628826 8.17758e-22 7.84056e-06)
(0.000184557 -0.00107017 -4.56145e-21 -0.000181526 -1.98274e-21 -3.03079e-06)
(-0.000286572 -0.00103489 -6.92689e-21 0.000287117 -3.54186e-21 -5.44889e-07)
(-0.000634716 -0.000780685 -2.97751e-21 0.00062638 -1.04585e-21 8.33593e-06)
(-0.000782932 -0.00043866 1.00869e-20 0.00076408 4.69874e-21 1.88527e-05)
(-0.000764474 -0.000129939 -2.96713e-21 0.000732907 -1.40608e-21 3.15677e-05)
(-0.000655997 9.42788e-05 2.95923e-21 0.000609677 1.32381e-21 4.63197e-05)
(-0.000517803 0.000235605 1.16502e-20 0.00045664 3.2614e-21 6.11631e-05)
(-0.000382673 0.000313503 -3.95285e-22 0.000308838 2.03944e-21 7.38347e-05)
(-0.000265157 0.000348326 1.54474e-20 0.000182095 3.83762e-21 8.30617e-05)
(-0.000169594 0.000356583 -1.26916e-20 8.06992e-05 -4.70858e-21 8.88948e-05)
(-9.58179e-05 0.00034974 9.41255e-21 4.7648e-06 3.38315e-21 9.10531e-05)
(-4.13442e-05 0.000334975 1.80801e-22 -4.76759e-05 9.12963e-23 8.90201e-05)
(-1.54111e-06 0.000316353 -4.38603e-21 -8.22549e-05 -2.2445e-21 8.37961e-05)
(2.81635e-05 0.000295976 1.44279e-21 -0.000104859 1.15442e-21 7.66955e-05)
(5.09024e-05 0.000274875 -6.14311e-21 -0.000119461 3.43427e-22 6.85586e-05)
(6.87917e-05 0.000253575 2.7574e-21 -0.000128773 7.49103e-22 5.99809e-05)
(8.33548e-05 0.000232173 -6.96866e-22 -0.000134786 4.17219e-22 5.14315e-05)
(9.55648e-05 0.000210559 4.53359e-22 -0.000138707 -1.43052e-21 4.31424e-05)
(0.000106082 0.000187792 -4.10802e-22 -0.000141611 5.74523e-22 3.55288e-05)
(0.00011326 0.000163254 4.29168e-22 -0.000141843 -1.68975e-23 2.85821e-05)
(0.000114716 0.000139851 -3.03365e-21 -0.000137007 -5.21031e-22 2.22904e-05)
(0.000111803 0.000121313 1.32116e-21 -0.000129053 -1.05523e-22 1.72498e-05)
(0.000108171 0.000107698 2.61313e-21 -0.000121703 9.79404e-22 1.35321e-05)
(0.000105479 9.67292e-05 -1.66869e-21 -0.000115938 -8.18638e-22 1.04585e-05)
(0.000103561 8.70225e-05 -4.12057e-21 -0.000111366 -1.32293e-22 7.80502e-06)
(0.000101998 7.82032e-05 2.47098e-21 -0.000107654 1.10947e-21 5.65572e-06)
(0.000100687 6.99887e-05 4.2812e-23 -0.000104681 1.20795e-21 3.99354e-06)
(9.95981e-05 6.20136e-05 1.72315e-21 -0.000102298 -3.7267e-22 2.69983e-06)
(9.86481e-05 5.39469e-05 -1.50793e-22 -0.000100343 -5.44355e-22 1.69515e-06)
(9.77325e-05 4.54727e-05 3.05669e-21 -9.86732e-05 -4.88612e-22 9.40697e-07)
(9.67578e-05 3.62658e-05 1.66152e-23 -9.71594e-05 4.95489e-22 4.01565e-07)
(9.57468e-05 2.58969e-05 -1.45859e-21 -9.57827e-05 8.14045e-22 3.58548e-08)
(9.47239e-05 1.36308e-05 -4.79319e-21 -9.45995e-05 7.65854e-22 -1.24474e-07)
(9.42473e-05 -1.4722e-06 4.0098e-21 -9.39943e-05 -6.14886e-22 -2.52963e-07)
(9.39313e-05 -2.23295e-05 4.61739e-21 -9.40611e-05 -6.85776e-22 1.29811e-07)
(9.75653e-05 -5.17141e-05 -4.27128e-21 -9.7166e-05 5.55174e-22 -3.99319e-07)
(0.000109636 -0.000125912 2.05728e-21 -0.000112946 -2.08161e-22 3.30959e-06)
(0.000151949 -0.000265854 -1.0109e-22 -0.000145728 -1.31453e-23 -6.22056e-06)
(0.000296986 -0.00190625 -2.18833e-21 -0.000384833 -1.14857e-21 8.78476e-05)
(0.000605724 -0.000314194 -7.6262e-23 -0.000604227 1.46945e-22 -1.49697e-06)
(0.000458298 -0.000565302 -2.05093e-21 -0.000465685 -7.3701e-22 7.3869e-06)
(0.000210441 -0.000733544 2.07848e-21 -0.000208948 2.85049e-23 -1.49243e-06)
(-9.00523e-05 -0.000780796 8.89599e-21 9.29259e-05 3.17761e-21 -2.87357e-06)
(-0.00037026 -0.00068573 1.69119e-21 0.000372767 1.00185e-21 -2.50711e-06)
(-0.000558409 -0.000489795 1.30528e-21 0.000563509 5.32684e-23 -5.10047e-06)
(-0.000633163 -0.00026639 -1.53949e-20 0.000643459 -5.29206e-21 -1.02962e-05)
(-0.000619032 -7.12879e-05 -1.16708e-21 0.000635551 -3.08531e-22 -1.65196e-05)
(-0.000554102 7.29594e-05 -4.28875e-21 0.000577025 -1.9214e-21 -2.29233e-05)
(-0.000469167 0.000166296 8.60621e-21 0.000498557 2.96387e-21 -2.939e-05)
(-0.000383272 0.000218492 -7.09922e-21 0.000419154 -3.96988e-21 -3.58818e-05)
(-0.000305992 0.000241425 -5.48777e-21 0.000347951 3.73445e-22 -4.19586e-05)
(-0.000240765 0.000245468 9.12094e-21 0.000287731 3.53128e-22 -4.69667e-05)
(-0.000186795 0.000238714 -9.78138e-21 0.000236973 -1.4963e-21 -5.01782e-05)
(-0.000141471 0.000226704 5.85465e-22 0.000192453 -2.50724e-22 -5.09824e-05)
(-0.000102891 0.000212584 2.23742e-21 0.000152771 8.74287e-22 -4.988e-05)
(-6.95655e-05 0.000197813 6.64417e-21 0.000117025 1.25715e-21 -4.74599e-05)
(-4.02668e-05 0.000182856 2.31938e-22 8.4409e-05 2.97733e-22 -4.41422e-05)
(-1.40896e-05 0.000167717 1.55008e-21 5.42885e-05 -2.42272e-23 -4.0199e-05)
(9.67191e-06 0.00015208 -7.44904e-21 2.62761e-05 -6.96115e-22 -3.5948e-05)
(3.12398e-05 0.000135517 5.09325e-21 1.7797e-07 7.86407e-22 -3.14177e-05)
(4.89389e-05 0.00011757 -1.18732e-21 -2.20046e-05 -2.10962e-22 -2.69343e-05)
(6.04969e-05 9.94634e-05 -1.59212e-21 -3.72024e-05 3.89687e-22 -2.32945e-05)
(6.68993e-05 8.39075e-05 -2.3006e-22 -4.68236e-05 1.87416e-22 -2.00757e-05)
(7.10624e-05 7.1857e-05 -7.01478e-22 -5.41126e-05 -2.82238e-22 -1.69498e-05)
(7.48513e-05 6.2107e-05 -3.47983e-22 -6.06521e-05 3.81384e-22 -1.41992e-05)
(7.86189e-05 5.35363e-05 -1.60739e-21 -6.66835e-05 1.03327e-21 -1.19354e-05)
(8.22469e-05 4.57874e-05 1.31412e-21 -7.22365e-05 -4.09225e-22 -1.00103e-05)
(8.57902e-05 3.86984e-05 4.50958e-21 -7.74752e-05 -3.97108e-22 -8.31502e-06)
(8.93847e-05 3.20226e-05 9.66851e-22 -8.25375e-05 -6.25195e-22 -6.84721e-06)
(9.31007e-05 2.55002e-05 -4.20635e-21 -8.74957e-05 4.64443e-22 -5.60496e-06)
(9.69123e-05 1.88964e-05 -1.92667e-21 -9.23541e-05 -1.27667e-22 -4.55813e-06)
(0.000100699 1.1965e-05 4.53459e-24 -9.70202e-05 1.06229e-22 -3.67834e-06)
(0.000104201 4.47097e-06 3.97571e-21 -0.000101246 -4.88323e-22 -2.95468e-06)
(0.000106898 -3.93401e-06 2.21529e-21 -0.000104587 3.34273e-24 -2.31086e-06)
(0.000108185 -1.32235e-05 -1.654e-21 -0.000106318 -3.71352e-24 -1.86657e-06)
(0.000106551 -2.43672e-05 -3.49807e-21 -0.000105328 4.08202e-22 -1.22306e-06)
(0.000101329 -3.48966e-05 1.91532e-21 -9.9951e-05 -2.06904e-22 -1.3775e-06)
(9.08339e-05 -5.1901e-05 -1.29825e-21 -9.12143e-05 1.67057e-22 3.80308e-07)
(7.43642e-05 -5.84908e-05 2.49253e-21 -7.23206e-05 -2.63478e-22 -2.04362e-06)
(5.8508e-05 -9.9112e-05 3.8717e-22 -6.36836e-05 -6.74487e-23 5.17555e-06)
(0.000416275 -0.000222701 -3.01703e-22 -0.000413754 1.21305e-22 -2.52131e-06)
(0.000329446 -0.000381991 -1.69454e-21 -0.000335642 -8.68543e-22 6.19604e-06)
(0.000185668 -0.000497658 6.79976e-21 -0.000185375 1.7977e-21 -2.92654e-07)
(4.67949e-06 -0.000558539 -1.23453e-21 -3.76087e-06 1.44475e-22 -9.18626e-07)
(-0.000188757 -0.000540408 2.24037e-21 0.000188174 5.3595e-22 5.83773e-07)
(-0.000351541 -0.000443607 -1.90852e-21 0.000350131 -4.8853e-22 1.40991e-06)
(-0.000451494 -0.000298759 5.27454e-21 0.000449404 2.31514e-21 2.08976e-06)
(-0.000483229 -0.000144439 6.00891e-21 0.000479663 1.31882e-21 3.56651e-06)
(-0.000461047 -8.58091e-06 2.69654e-22 0.000454836 1.32276e-21 6.2107e-06)
(-0.000405389 9.57266e-05 8.02383e-21 0.000395574 1.7493e-21 9.81518e-06)
(-0.000334548 0.000166908 1.20768e-21 0.000320759 3.54072e-22 1.37892e-05)
(-0.00026124 0.000209618 -5.51913e-21 0.000243469 -9.22743e-22 1.77706e-05)
(-0.000193098 0.000230691 -1.36463e-21 0.000171485 -1.34734e-21 2.16134e-05)
(-0.000133641 0.000237213 5.10141e-21 0.00010867 1.74976e-21 2.49703e-05)
(-8.39027e-05 0.000234732 -1.23776e-20 5.65637e-05 -2.66958e-21 2.73389e-05)
(-4.32564e-05 0.00022688 4.8144e-21 1.47817e-05 1.26589e-21 2.84747e-05)
(-1.00418e-05 0.000215765 -3.51218e-21 -1.85779e-05 -1.37746e-21 2.86197e-05)
(1.73469e-05 0.000202601 6.29673e-21 -4.53594e-05 7.60459e-22 2.80124e-05)
(4.01525e-05 0.000188007 -2.65007e-22 -6.69601e-05 -7.29284e-22 2.68075e-05)
(5.926e-05 0.000172203 -1.9229e-21 -8.43945e-05 8.33982e-22 2.51345e-05)
(7.50427e-05 0.000154974 2.87011e-21 -9.81885e-05 -5.37353e-22 2.31459e-05)
(8.70821e-05 0.000136577 1.71611e-22 -0.00010808 2.54993e-22 2.09974e-05)
(9.45961e-05 0.000118436 -6.30818e-22 -0.000113404 4.2736e-23 1.88079e-05)
(9.79598e-05 0.000102416 2.70507e-21 -0.000114742 -2.83693e-23 1.67817e-05)
(9.90889e-05 8.94738e-05 7.36932e-22 -0.000114144 3.33964e-22 1.50551e-05)
(9.96726e-05 7.89019e-05 2.23997e-21 -0.00011316 -2.01727e-22 1.34873e-05)
(0.000100307 6.96806e-05 3.7863e-21 -0.000112255 -2.29973e-22 1.19479e-05)
(0.000101021 6.13018e-05 -1.76099e-21 -0.000111507 1.65987e-22 1.04868e-05)
(0.000101861 5.35143e-05 -1.29889e-21 -0.000111029 -3.24641e-22 9.16809e-06)
(0.00010295 4.60464e-05 -3.85496e-21 -0.000110936 4.0037e-22 7.98647e-06)
(0.000104372 3.85979e-05 1.76553e-21 -0.000111289 8.0692e-23 6.91732e-06)
(0.000106146 3.08776e-05 -1.22303e-21 -0.000112098 3.28982e-22 5.9521e-06)
(0.000108231 2.25842e-05 1.48692e-21 -0.000113322 -1.16063e-22 5.09096e-06)
(0.00011055 1.33749e-05 -3.99237e-21 -0.000114869 1.98476e-22 4.31899e-06)
(0.000112861 2.7954e-06 5.5285e-22 -0.00011652 -8.95419e-23 3.6592e-06)
(0.000114826 -9.39907e-06 -1.07823e-21 -0.00011783 1.70899e-22 3.00436e-06)
(0.000115437 -2.40375e-05 5.88834e-21 -0.000118034 -5.94607e-22 2.59701e-06)
(0.000113658 -3.99722e-05 -3.97103e-21 -0.000115412 4.44598e-22 1.75415e-06)
(0.000106515 -5.97084e-05 3.21103e-22 -0.000108683 -1.56796e-23 2.16784e-06)
(9.12619e-05 -7.42279e-05 -2.07329e-21 -9.12812e-05 2.64997e-22 1.93238e-08)
(6.45201e-05 -8.84497e-05 1.91907e-21 -6.84447e-05 -1.67178e-22 3.92462e-06)
(0.000286328 -0.000160296 -1.20292e-21 -0.000283652 -4.19454e-22 -2.67599e-06)
(0.000232709 -0.000262866 4.93102e-21 -0.000237665 1.03418e-21 4.95604e-06)
(0.000145692 -0.00033887 -1.26847e-21 -0.000145595 2.07917e-22 -9.74552e-08)
(3.7631e-05 -0.000390036 -8.64029e-21 -3.69016e-05 -2.18397e-21 -7.29366e-07)
(-8.68949e-05 -0.000401859 -9.2406e-22 8.68085e-05 -6.40589e-22 8.63276e-08)
(-0.000208874 -0.000364918 8.40283e-21 0.000208827 2.33569e-21 4.71107e-08)
(-0.000305457 -0.00028624 -1.65673e-21 0.000306149 -8.34837e-22 -6.91842e-07)
(-0.00036295 -0.000184176 -1.95993e-20 0.000364704 -5.11581e-21 -1.75356e-06)
(-0.000380083 -7.86527e-05 1.91166e-20 0.000383041 5.42233e-21 -2.95747e-06)
(-0.000364494 1.51109e-05 9.84012e-22 0.000368703 -1.33796e-21 -4.20965e-06)
(-0.000327387 8.90909e-05 -8.55782e-22 0.000333015 -7.3593e-22 -5.62745e-06)
(-0.000279338 0.000141524 -9.82641e-22 0.000286605 -7.99471e-23 -7.26657e-06)
(-0.00022858 0.000174396 -5.77139e-21 0.000237632 -3.91909e-22 -9.0519e-06)
(-0.000180354 0.000191712 1.84131e-21 0.000191341 -1.22294e-21 -1.09863e-05)
(-0.0001372 0.000197708 -6.55849e-21 0.000150065 1.02481e-21 -1.28654e-05)
(-9.95871e-05 0.000196029 5.3759e-21 0.000113939 1.04303e-22 -1.43514e-05)
(-6.70007e-05 0.000189412 -1.7156e-21 8.22796e-05 4.62758e-22 -1.52789e-05)
(-3.87651e-05 0.000179701 9.10951e-22 5.44919e-05 1.60027e-22 -1.57268e-05)
(-1.41896e-05 0.000167955 -1.92718e-21 2.99452e-05 -2.57326e-22 -1.57556e-05)
(7.42958e-06 0.000154621 -1.38652e-21 8.02187e-06 -3.39937e-22 -1.54515e-05)
(2.63181e-05 0.000140043 -4.50975e-22 -1.15124e-05 6.71068e-23 -1.48057e-05)
(4.17092e-05 0.000124718 1.78948e-21 -2.77635e-05 -3.35414e-22 -1.39457e-05)
(5.28615e-05 0.000109342 -1.92618e-21 -3.97032e-05 2.23241e-22 -1.31583e-05)
(6.01534e-05 9.50328e-05 -7.95961e-22 -4.7746e-05 -1.81849e-22 -1.24074e-05)