/*--------------------------------*- C++ -*----------------------------------*\
| =========                 |                                                 |
| \\      /  F ield         | OpenFOAM: The Open Source CFD Toolbox           |
|  \\    /   O peration     | Version:  2312                                  |
|   \\  /    A nd           | Website:  www.openfoam.com                      |
|    \\/     M anipulation  |                                                 |
\*---------------------------------------------------------------------------*/
FoamFile
{
    version     2.0;
    format      ascii;
    arch        "LSB;label=32;scalar=64";
    class       volScalarField;
    location    "249";
    object      turbulenceProperties:k;
}
// * * * * * * * * * * * * * * * * * * * * * * * * * * * * * * * * * * * * * //

dimensions      [0 2 -2 0 0 0 0];

internalField   nonuniform List<scalar> 
11040
(
0.0894114
0.229828
0.496237
0.937434
1.60698
2.62463
3.8824
4.88867
5.4174
5.62107
5.68654
5.70113
5.68815
5.64649
5.57104
5.46253
5.32448
5.16179
4.97843
4.77719
4.55433
4.32228
4.10628
3.9161
3.74585
3.58661
3.43404
3.28675
3.14349
3.00266
2.86255
2.72134
2.57721
2.4276
2.26942
2.10015
1.91509
1.71324
1.47074
1.23788
0.795317
0.0323244
0.0384796
0.0426367
0.0406391
0.0438115
0.0621245
0.101277
0.155284
0.214599
0.27082
0.318683
0.357447
0.388076
0.412315
0.432805
0.450892
0.467107
0.481384
0.49384
0.504657
0.515475
0.523668
0.524324
0.518228
0.509438
0.500398
0.491906
0.484005
0.476723
0.470095
0.46422
0.459234
0.455274
0.452605
0.451646
0.452864
0.456933
0.464841
0.478878
0.500094
0.55492
0.0219817
0.0171605
0.0109513
0.0113347
0.0130483
0.0130944
0.0122201
0.0110533
0.009819
0.00869602
0.00720275
0.00525846
0.00681484
0.0167995
0.0331975
0.0553577
0.0827209
0.114335
0.148941
0.185024
0.221459
0.256347
0.287025
0.311983
0.331427
0.34639
0.357659
0.365986
0.372046
0.376407
0.379486
0.381624
0.383108
0.384139
0.385025
0.386071
0.388049
0.390787
0.399328
0.40661
0.464653
0.0144459
0.0137813
0.0128586
0.0121332
0.0110215
0.00956407
0.00810585
0.00678491
0.0055845
0.00445372
0.00341374
0.0024979
0.00174744
0.00118978
0.000882235
0.00101125
0.00176047
0.00335596
0.0062904
0.0111869
0.0189658
0.0299652
0.0432921
0.058317
0.0747392
0.0922641
0.11052
0.129108
0.147719
0.166124
0.184187
0.201868
0.219188
0.236314
0.253505
0.271006
0.2894
0.308843
0.33317
0.355171
0.416319
0.00970103
0.00973553
0.00897638
0.00750783
0.00580313
0.0045757
0.00400575
0.00381814
0.00372956
0.00359731
0.00339826
0.00315195
0.00287101
0.00258214
0.00230086
0.00203299
0.00177996
0.00154293
0.00132365
0.00112475
0.000941921
0.000755706
0.000567948
0.000637909
0.00134556
0.00270716
0.00480467
0.00775592
0.0116934
0.0167658
0.0231435
0.031027
0.0406404
0.052322
0.0665027
0.0837074
0.104668
0.130508
0.16437
0.201862
0.280829
0.00649157
0.00677181
0.00673832
0.00641588
0.00588016
0.00526431
0.00465101
0.00408435
0.00357899
0.00313006
0.00272932
0.00236813
0.00202967
0.00171351
0.00142752
0.00117506
0.000958111
0.000779858
0.000642949
0.000550257
0.000493431
0.000451947
0.00041208
0.000378853
0.00035658
0.000341896
0.000333557
0.000334388
0.000351019
0.000395361
0.000489322
0.000673394
0.0010201
0.001662
0.002819
0.00483715
0.00825403
0.0140427
0.0244806
0.0395948
0.0826964
0.00440794
0.00468224
0.00480791
0.00475523
0.00444388
0.00393889
0.0033701
0.00284862
0.0024297
0.00212345
0.00191385
0.00177457
0.00167788
0.00159776
0.00151926
0.00143845
0.00135546
0.00127188
0.00118918
0.00110799
0.00102675
0.00093911
0.000847256
0.000765196
0.000701209
0.000650649
0.000608013
0.000570781
0.000537444
0.000506437
0.000476326
0.000445955
0.000414721
0.000383111
0.000353687
0.000334596
0.000341065
0.000413392
0.000744727
0.00140893
0.00691564
0.00302027
0.00323394
0.00337832
0.0034808
0.00345308
0.00329733
0.00306313
0.00279731
0.00252922
0.0022735
0.00203652
0.00182087
0.00162704
0.00145208
0.00129198
0.00114751
0.00101882
0.00090476
0.000804151
0.000716103
0.000639811
0.000573344
0.000515468
0.000469241
0.000437797
0.000418891
0.000408553
0.000404282
0.000404927
0.000409674
0.000417749
0.000428309
0.000440293
0.000451998
0.00046075
0.00046273
0.000451866
0.000416468
0.000369459
0.000255221
0.000278459
0.00208651
0.0022434
0.0023518
0.00247301
0.00253386
0.00250392
0.00239297
0.00222525
0.00202786
0.00182369
0.00163011
0.00145681
0.0013093
0.00119064
0.00109969
0.0010301
0.000974193
0.000926636
0.000883795
0.000843034
0.000801259
0.000756551
0.000709407
0.000663665
0.000624887
0.000593981
0.000568949
0.000548374
0.000531837
0.000519167
0.000510195
0.000504821
0.000503001
0.000504811
0.000510126
0.000518688
0.000529094
0.000536782
0.000539533
0.000506849
0.000432607
0.00144841
0.00156238
0.00163321
0.00173476
0.00182018
0.00186139
0.00185434
0.00180532
0.00172474
0.00162441
0.00151433
0.00140122
0.00128989
0.00118394
0.00108485
0.000992424
0.000906669
0.000828219
0.000756956
0.000691953
0.000633112
0.000580441
0.000532743
0.000490664
0.000456544
0.000430744
0.000411817
0.000398321
0.000389498
0.000384947
0.000384341
0.000387384
0.000393834
0.000403579
0.000416456
0.000432255
0.000450712
0.000470738
0.000493073
0.000507779
0.000516385
0.00100894
0.00109169
0.00113498
0.0012081
0.0012831
0.00133923
0.00136934
0.00137096
0.0013451
0.00129627
0.00123095
0.00115537
0.00107526
0.000995785
0.000921059
0.000854033
0.000796089
0.000746722
0.00070423
0.000666756
0.00063217
0.000599763
0.000569269
0.000540675
0.00051567
0.000495182
0.00047874
0.000465468
0.000454797
0.000446436
0.000440163
0.000435757
0.000433019
0.000431716
0.000431609
0.000432394
0.000433716
0.000434471
0.000434999
0.000430031
0.000428281
0.000704388
0.000764148
0.000789893
0.000839412
0.000896243
0.000947373
0.000987958
0.00101455
0.00102499
0.00101919
0.000999287
0.000968069
0.000928492
0.000883589
0.000835992
0.000787617
0.000739636
0.000692659
0.000647197
0.000603621
0.000562612
0.000525269
0.000491411
0.000460585
0.000433537
0.000410811
0.000392237
0.000377273
0.000365459
0.000356495
0.000350145
0.000346168
0.000344298
0.000344301
0.000345861
0.000348505
0.000351643
0.000354413
0.00035592
0.000353072
0.000349021
0.000492508
0.0005352
0.000550468
0.000583062
0.000623017
0.000662375
0.000698554
0.000729068
0.000751239
0.000763305
0.000764914
0.000756691
0.000739868
0.000716196
0.000687647
0.00065619
0.000623671
0.000591532
0.000560778
0.000531743
0.000504338
0.000479227
0.00045659
0.000435938
0.00041761
0.000401924
0.00038883
0.000378004
0.000369074
0.00036172
0.000355663
0.000350617
0.000346302
0.000342372
0.000338483
0.000334271
0.000329316
0.00032303
0.000314898
0.000303541
0.00029183
0.00034458
0.000374729
0.000383933
0.000405168
0.000432283
0.000460401
0.00048843
0.000515091
0.000538543
0.000557132
0.000569871
0.000576362
0.000576645
0.000571207
0.000560831
0.000546466
0.000529068
0.000509464
0.000488315
0.000466109
0.000443515
0.00042178
0.000401429
0.000382275
0.000364614
0.000348703
0.000334609
0.000322228
0.000311405
0.000301981
0.000293798
0.000286687
0.000280477
0.000274988
0.000270005
0.000265265
0.000260451
0.000255257
0.00024921
0.000241442
0.000233669
0.000241106
0.000262067
0.00026781
0.000281614
0.000299669
0.00031895
0.00033905
0.000359422
0.000378997
0.000396613
0.00041134
0.00042252
0.00042973
0.000432813
0.000431883
0.000427288
0.000419557
0.000409297
0.000397135
0.00038362
0.000369239
0.000355016
0.000341533
0.000328692
0.000316721
0.000305794
0.000295974
0.000287218
0.00027941
0.000272409
0.000266064
0.000260193
0.000254607
0.000249083
0.000243407
0.000237395
0.000230843
0.000223517
0.000215244
0.000205644
0.000196475
0.00016869
0.000182997
0.000186757
0.000195724
0.000207585
0.0002205
0.000234344
0.000248922
0.000263677
0.000277934
0.000291075
0.000302582
0.000312015
0.000319042
0.00032348
0.000325305
0.000324626
0.000321648
0.000316639
0.000309886
0.000301713
0.000292837
0.000283729
0.000274463
0.000265301
0.000256423
0.00024792
0.000239825
0.000232135
0.000224813
0.000217804
0.00021106
0.000204524
0.000198126
0.000191808
0.000185514
0.000179168
0.000172731
0.00016609
0.000159102
0.000152591
0.000118394
0.000127958
0.000130583
0.000136424
0.000144148
0.000152686
0.000162004
0.000172031
0.000182483
0.000192991
0.000203189
0.000212742
0.000221321
0.000228619
0.000234395
0.00023849
0.000240833
0.000241438
0.000240386
0.00023781
0.000233835
0.000228941
0.00022356
0.000217807
0.000211897
0.000205986
0.000200169
0.000194506
0.000189022
0.00018372
0.00017858
0.000173561
0.000168628
0.000163703
0.000158707
0.000153601
0.000148346
0.000142873
0.000137142
0.000131132
0.000125441
8.44964e-05
9.08402e-05
9.27688e-05
9.66843e-05
0.000101802
0.000107524
0.000113844
0.000120725
0.000128014
0.000135513
0.000143019
0.000150336
0.00015726
0.00016358
0.000169102
0.000173667
0.000177156
0.000179496
0.00018066
0.000180665
0.000179527
0.000177478
0.000174765
0.000171477
0.00016778
0.000163798
0.000159619
0.000155304
0.000150897
0.000146423
0.000141896
0.000137319
0.0001327
0.000128041
0.000123343
0.000118617
0.000113891
0.00010919
0.000104503
9.98686e-05
9.54762e-05
6.19528e-05
6.62412e-05
6.76714e-05
7.03905e-05
7.39036e-05
7.78601e-05
8.22638e-05
8.70883e-05
9.2242e-05
9.76094e-05
0.00010307
0.000108507
0.000113792
0.000118783
0.000123341
0.000127338
0.000130664
0.000133234
0.000134987
0.000135895
0.000135915
0.000135155
0.000133785
0.000131881
0.000129572
0.000126957
0.000124114
0.000121106
0.000117981
0.000114775
0.000111515
0.000108216
0.000104896
0.000101554
9.8193e-05
9.4824e-05
9.14537e-05
8.80617e-05
8.4653e-05
8.12469e-05
7.79814e-05
4.66286e-05
4.9578e-05
5.06591e-05
5.2595e-05
5.50727e-05
5.78814e-05
6.10228e-05
6.44749e-05
6.81777e-05
7.20586e-05
7.60422e-05
8.00565e-05
8.40204e-05
8.7842e-05
9.14274e-05
9.46856e-05
9.75332e-05
9.98967e-05
0.000101717
0.000102955
0.000103557
0.000103562
0.00010306
0.000102099
0.00010076
9.91109e-05
9.72074e-05
9.50967e-05
9.28188e-05
9.04061e-05
8.78853e-05
8.52767e-05
8.26042e-05
7.98802e-05
7.71156e-05
7.43291e-05
7.15512e-05
6.87803e-05
6.60202e-05
6.33083e-05
6.06935e-05
3.58022e-05
3.78593e-05
3.86827e-05
4.00824e-05
4.18652e-05
4.39001e-05
4.61846e-05
4.86988e-05
5.14007e-05
5.42417e-05
5.71713e-05
6.01418e-05
6.30999e-05
6.59838e-05
6.87292e-05
7.1272e-05
7.35506e-05
7.55075e-05
7.70923e-05
7.82664e-05
7.89758e-05
7.92288e-05
7.90804e-05
7.85617e-05
7.77304e-05
7.66369e-05
7.53251e-05
7.38354e-05
7.22033e-05
7.0459e-05
6.86288e-05
6.67335e-05
6.47959e-05
6.28274e-05
6.08397e-05
5.8849e-05
5.68764e-05
5.49131e-05
5.29696e-05
5.10486e-05
4.92612e-05
2.79348e-05
2.93871e-05
3.00194e-05
3.1046e-05
3.23518e-05
3.38527e-05
3.55423e-05
3.74028e-05
3.94034e-05
4.15097e-05
4.3686e-05
4.58992e-05
4.81128e-05
5.02844e-05
5.23698e-05
5.43242e-05
5.61035e-05
5.76656e-05
5.8972e-05
5.99914e-05
6.06804e-05
6.10361e-05
6.10899e-05
6.08595e-05
6.03824e-05
5.96919e-05
5.88186e-05
5.77914e-05
5.66363e-05
5.53764e-05
5.40321e-05
5.262e-05
5.11593e-05
4.96611e-05
4.81351e-05
4.65942e-05
4.50609e-05
4.35288e-05
4.20095e-05
4.04847e-05
3.91027e-05
2.20817e-05
2.31161e-05
2.36039e-05
2.43654e-05
2.53356e-05
2.64586e-05
2.77257e-05
2.91209e-05
3.0621e-05
3.22002e-05
3.38325e-05
3.54937e-05
3.71576e-05
3.87942e-05
4.03721e-05
4.18593e-05
4.32244e-05
4.44362e-05
4.54659e-05
4.62888e-05
4.68705e-05
4.72046e-05
4.73112e-05
4.72011e-05
4.68997e-05
4.64309e-05
4.58174e-05
4.50816e-05
4.42446e-05
4.33249e-05
4.23398e-05
4.13034e-05
4.02318e-05
3.91343e-05
3.80195e-05
3.68981e-05
3.57872e-05
3.46791e-05
3.35871e-05
3.24825e-05
3.15384e-05
1.76433e-05
1.83851e-05
1.87626e-05
1.93333e-05
2.00632e-05
2.09143e-05
2.18762e-05
2.29352e-05
2.40728e-05
2.52696e-05
2.65056e-05
2.77628e-05
2.90218e-05
3.02607e-05
3.14567e-05
3.2587e-05
3.36288e-05
3.45595e-05
3.53582e-05
3.60066e-05
3.64791e-05
3.67705e-05
3.68941e-05
3.68565e-05
3.66748e-05
3.63657e-05
3.59451e-05
3.54292e-05
3.48332e-05
3.41708e-05
3.34547e-05
3.26954e-05
3.19051e-05
3.10909e-05
3.02594e-05
2.9418e-05
2.85812e-05
2.77426e-05
2.69148e-05
2.60565e-05
2.53693e-05
1.4223e-05
1.47574e-05
1.50502e-05
1.54817e-05
1.6037e-05
1.6689e-05
1.74271e-05
1.82391e-05
1.91105e-05
2.0026e-05
2.09702e-05
2.19289e-05
2.28876e-05
2.38298e-05
2.47389e-05
2.55979e-05
2.63904e-05
2.70997e-05
2.77106e-05
2.82095e-05
2.85774e-05
2.88105e-05
2.89187e-05
2.89061e-05
2.87847e-05
2.85663e-05
2.82628e-05
2.78862e-05
2.74481e-05
2.69589e-05
2.64286e-05
2.58655e-05
2.52789e-05
2.46746e-05
2.40577e-05
2.34343e-05
2.28151e-05
2.21945e-05
2.15843e-05
2.09446e-05
2.04687e-05
1.15514e-05
1.19373e-05
1.21649e-05
1.24938e-05
1.29206e-05
1.34251e-05
1.39969e-05
1.46254e-05
1.52991e-05
1.60055e-05
1.67326e-05
1.74693e-05
1.82043e-05
1.89251e-05
1.96192e-05
2.02741e-05
2.08776e-05
2.14176e-05
2.18831e-05
2.2264e-05
2.25469e-05
2.27294e-05
2.28197e-05
2.28202e-05
2.27396e-05
2.25866e-05
2.23696e-05
2.20975e-05
2.17788e-05
2.14212e-05
2.1032e-05
2.06171e-05
2.01837e-05
1.9736e-05
1.92776e-05
1.8813e-05
1.83504e-05
1.78853e-05
1.74281e-05
1.69374e-05
1.66035e-05
9.44016e-06
9.71912e-06
9.89631e-06
1.01491e-05
1.04802e-05
1.08741e-05
1.1321e-05
1.18117e-05
1.23368e-05
1.28863e-05
1.34505e-05
1.40205e-05
1.45876e-05
1.51421e-05
1.56746e-05
1.61756e-05
1.6636e-05
1.70471e-05
1.74006e-05
1.76894e-05
1.79036e-05
1.80422e-05
1.8112e-05
1.81145e-05
1.8056e-05
1.7943e-05
1.77818e-05
1.7579e-05
1.73408e-05
1.70731e-05
1.67813e-05
1.647e-05
1.61445e-05
1.58081e-05
1.54636e-05
1.51142e-05
1.47662e-05
1.4416e-05
1.40723e-05
1.36995e-05
1.34649e-05
7.75506e-06
7.95653e-06
8.09481e-06
8.2908e-06
8.55e-06
8.8602e-06
9.21235e-06
9.59858e-06
1.0011e-05
1.04417e-05
1.08826e-05
1.13267e-05
1.1767e-05
1.21962e-05
1.26068e-05
1.29918e-05
1.33444e-05
1.36581e-05
1.3927e-05
1.41457e-05
1.43074e-05
1.4412e-05
1.4465e-05
1.44678e-05
1.4425e-05
1.43413e-05
1.42217e-05
1.40708e-05
1.38935e-05
1.3694e-05
1.34763e-05
1.32439e-05
1.30007e-05
1.27489e-05
1.24909e-05
1.22289e-05
1.19675e-05
1.17041e-05
1.14458e-05
1.11605e-05
1.09975e-05
6.39846e-06
6.54361e-06
6.65191e-06
6.80519e-06
7.00998e-06
7.25633e-06
7.53604e-06
7.84235e-06
8.16872e-06
8.50857e-06
8.8555e-06
9.20376e-06
9.54779e-06
9.88178e-06
1.02001e-05
1.04974e-05
1.07686e-05
1.10087e-05
1.12135e-05
1.13793e-05
1.15008e-05
1.15788e-05
1.1618e-05
1.16193e-05
1.15861e-05
1.15222e-05
1.14312e-05
1.13166e-05
1.1182e-05
1.10307e-05
1.08655e-05
1.06891e-05
1.05044e-05
1.03131e-05
1.01169e-05
9.91758e-06
9.71846e-06
9.51758e-06
9.32066e-06
9.10159e-06
8.98507e-06
5.29817e-06
5.40233e-06
5.48756e-06
5.60863e-06
5.77194e-06
5.96922e-06
6.19312e-06
6.43784e-06
6.69794e-06
6.96798e-06
7.24273e-06
7.51755e-06
7.78798e-06
8.04946e-06
8.29764e-06
8.52841e-06
8.73793e-06
8.92259e-06
9.07925e-06
9.2052e-06
9.2968e-06
9.35498e-06
9.38391e-06
9.38415e-06
9.35837e-06
9.30946e-06
9.24014e-06
9.15315e-06
9.05112e-06
8.93646e-06
8.81142e-06
8.67792e-06
8.53805e-06
8.39324e-06
8.24467e-06
8.09359e-06
7.94252e-06
7.79004e-06
7.64065e-06
7.47262e-06
7.39075e-06
4.39996e-06
4.47434e-06
4.54187e-06
4.63857e-06
4.77006e-06
4.92936e-06
5.10998e-06
5.30691e-06
5.51562e-06
5.7316e-06
5.95059e-06
6.1688e-06
6.38265e-06
6.58856e-06
6.78314e-06
6.96325e-06
7.12601e-06
7.26872e-06
7.3891e-06
7.48523e-06
7.55446e-06
7.59788e-06
7.61907e-06
7.61842e-06
7.59796e-06
7.55994e-06
7.50647e-06
7.4396e-06
7.36131e-06
7.27342e-06
7.17762e-06
7.07534e-06
6.96815e-06
6.85712e-06
6.74315e-06
6.62718e-06
6.51102e-06
6.3937e-06
6.27868e-06
6.14887e-06
6.08905e-06
3.66262e-06
3.7154e-06
3.76943e-06
3.84761e-06
3.95456e-06
4.08429e-06
4.23111e-06
4.39072e-06
4.55932e-06
4.7332e-06
4.90884e-06
5.08315e-06
5.25328e-06
5.4164e-06
5.56986e-06
5.71127e-06
5.83844e-06
5.94939e-06
6.04247e-06
6.1163e-06
6.16901e-06
6.20168e-06
6.21739e-06
6.21642e-06
6.20033e-06
6.1709e-06
6.12975e-06
6.07845e-06
6.0185e-06
5.95127e-06
5.87804e-06
5.7999e-06
5.71799e-06
5.63315e-06
5.54606e-06
5.4574e-06
5.3685e-06
5.27869e-06
5.19064e-06
5.09076e-06
5.0478e-06
3.0544e-06
3.09163e-06
3.1354e-06
3.19948e-06
3.28737e-06
3.39393e-06
3.51417e-06
3.64445e-06
3.78157e-06
3.92244e-06
4.06418e-06
4.20429e-06
4.34046e-06
4.47046e-06
4.59224e-06
4.70395e-06
4.80396e-06
4.89079e-06
4.96327e-06
5.02043e-06
5.0609e-06
5.08574e-06
5.09757e-06
5.09656e-06
5.08393e-06
5.06108e-06
5.02927e-06
4.9897e-06
4.9435e-06
4.89172e-06
4.83532e-06
4.77513e-06
4.71201e-06
4.64659e-06
4.5794e-06
4.51095e-06
4.4422e-06
4.3727e-06
4.30448e-06
4.22713e-06
4.19486e-06
2.55061e-06
2.57674e-06
2.61277e-06
2.66605e-06
2.73906e-06
2.82732e-06
2.92655e-06
3.03362e-06
3.14585e-06
3.2607e-06
3.37581e-06
3.48912e-06
3.59878e-06
3.70303e-06
3.80029e-06
3.88913e-06
3.96833e-06
4.03682e-06
4.09374e-06
4.13844e-06
4.16993e-06
4.18916e-06
4.19839e-06
4.19771e-06
4.18808e-06
4.1706e-06
4.14627e-06
4.116e-06
4.08065e-06
4.04104e-06
3.99787e-06
3.9518e-06
3.90346e-06
3.85334e-06
3.80183e-06
3.74933e-06
3.69653e-06
3.64314e-06
3.59069e-06
3.53113e-06
3.50764e-06
2.13184e-06
2.15018e-06
2.18039e-06
2.22538e-06
2.28666e-06
2.36038e-06
2.44284e-06
2.53141e-06
2.62386e-06
2.71807e-06
2.81212e-06
2.90432e-06
2.99319e-06
3.07735e-06
3.15554e-06
3.2267e-06
3.28991e-06
3.34439e-06
3.38953e-06
3.42488e-06
3.44974e-06
3.46494e-06
3.47238e-06
3.47211e-06
3.46487e-06
3.45155e-06
3.43292e-06
3.40968e-06
3.38251e-06
3.35203e-06
3.31878e-06
3.28326e-06
3.24595e-06
3.20723e-06
3.1674e-06
3.12677e-06
3.08583e-06
3.04443e-06
3.00364e-06
2.95758e-06
2.93916e-06
1.78275e-06
1.79571e-06
1.82158e-06
1.86013e-06
1.91208e-06
1.97413e-06
2.04312e-06
2.11685e-06
2.19344e-06
2.27117e-06
2.34846e-06
2.42394e-06
2.49643e-06
2.56481e-06
2.62813e-06
2.68557e-06
2.73646e-06
2.78021e-06
2.81642e-06
2.8448e-06
2.86485e-06
2.87728e-06
2.8837e-06
2.88414e-06
2.87917e-06
2.8695e-06
2.85574e-06
2.83842e-06
2.81807e-06
2.79514e-06
2.77006e-06
2.74321e-06
2.71494e-06
2.68556e-06
2.65528e-06
2.62435e-06
2.59312e-06
2.56149e-06
2.53032e-06
2.495e-06
2.48214e-06
1.49107e-06
1.50045e-06
1.52307e-06
1.55656e-06
1.60098e-06
1.65353e-06
1.7116e-06
1.77331e-06
1.83711e-06
1.90159e-06
1.96546e-06
2.0276e-06
2.08708e-06
2.14302e-06
2.19468e-06
2.24143e-06
2.28278e-06
2.31828e-06
2.34768e-06
2.37077e-06
2.38718e-06
2.39751e-06
2.4031e-06
2.40395e-06
2.40051e-06
2.39335e-06
2.38296e-06
2.36977e-06
2.35417e-06
2.33655e-06
2.31724e-06
2.29652e-06
2.27468e-06
2.25196e-06
2.22852e-06
2.20456e-06
2.18032e-06
2.15579e-06
2.13149e-06
2.10439e-06
2.09303e-06
1.24694e-06
1.25404e-06
1.27426e-06
1.30368e-06
1.34191e-06
1.38662e-06
1.43566e-06
1.4875e-06
1.54089e-06
1.59464e-06
1.64771e-06
1.69917e-06
1.74827e-06
1.79432e-06
1.83678e-06
1.87516e-06
1.9091e-06
1.9383e-06
1.96258e-06
1.98184e-06
1.99585e-06
2.00507e-06
2.01067e-06
2.01261e-06
2.01125e-06
2.00702e-06
2.00029e-06
1.99137e-06
1.98058e-06
1.96816e-06
1.95439e-06
1.93947e-06
1.92362e-06
1.90701e-06
1.88979e-06
1.87209e-06
1.8541e-06
1.83581e-06
1.81773e-06
1.79706e-06
1.79111e-06
1.04237e-06
1.04813e-06
1.06651e-06
1.09261e-06
1.12568e-06
1.16384e-06
1.20531e-06
1.24889e-06
1.29358e-06
1.33848e-06
1.38272e-06
1.42558e-06
1.46641e-06
1.50463e-06
1.53981e-06
1.57159e-06
1.59969e-06
1.62391e-06
1.64411e-06
1.66019e-06
1.67196e-06
1.67976e-06
1.68455e-06
1.68631e-06
1.68534e-06
1.68201e-06
1.67666e-06
1.66957e-06
1.66099e-06
1.65115e-06
1.64028e-06
1.62854e-06
1.61611e-06
1.60312e-06
1.58969e-06
1.57593e-06
1.56193e-06
1.54779e-06
1.53358e-06
1.51835e-06
1.51001e-06
8.70886e-07
8.75941e-07
8.92812e-07
9.16007e-07
9.4466e-07
9.77285e-07
1.01245e-06
1.04914e-06
1.08653e-06
1.12393e-06
1.16072e-06
1.19635e-06
1.23037e-06
1.26232e-06
1.29181e-06
1.31853e-06
1.34226e-06
1.36289e-06
1.38038e-06
1.39475e-06
1.40593e-06
1.41421e-06
1.42035e-06
1.42431e-06
1.42623e-06
1.42634e-06
1.42485e-06
1.42192e-06
1.41771e-06
1.41236e-06
1.40603e-06
1.39884e-06
1.39094e-06
1.38243e-06
1.37341e-06
1.36396e-06
1.35422e-06
1.34417e-06
1.33426e-06
1.32218e-06
1.3223e-06
7.27307e-07
7.32079e-07
7.47605e-07
7.68055e-07
7.92591e-07
8.2021e-07
8.49874e-07
8.80789e-07
9.12262e-07
9.43633e-07
9.74323e-07
1.0039e-06
1.03204e-06
1.05851e-06
1.08308e-06
1.10552e-06
1.12559e-06
1.14304e-06
1.1577e-06
1.16946e-06
1.17816e-06
1.18404e-06
1.18777e-06
1.18947e-06
1.18938e-06
1.18781e-06
1.18503e-06
1.18124e-06
1.17664e-06
1.17137e-06
1.16557e-06
1.15934e-06
1.15277e-06
1.14594e-06
1.13889e-06
1.13171e-06
1.12436e-06
1.11704e-06
1.10934e-06
1.10237e-06
1.0934e-06
6.07312e-07
6.12148e-07
6.26564e-07
6.44508e-07
6.65133e-07
6.87821e-07
7.11959e-07
7.37166e-07
7.63113e-07
7.89377e-07
8.15432e-07
8.40723e-07
8.64754e-07
8.87169e-07
9.07803e-07
9.26662e-07
9.43864e-07
9.59546e-07
9.73814e-07
9.86715e-07
9.98161e-07
1.00817e-06
1.01706e-06
1.02462e-06
1.03076e-06
1.03553e-06
1.03895e-06
1.04109e-06
1.04201e-06
1.04181e-06
1.04059e-06
1.03847e-06
1.03555e-06
1.03195e-06
1.02775e-06
1.02302e-06
1.01796e-06
1.01242e-06
1.00722e-06
9.98827e-07
1.00661e-06
5.07097e-07
5.12084e-07
5.25454e-07
5.41303e-07
5.58792e-07
5.77379e-07
5.96498e-07
6.15898e-07
6.35561e-07
6.55549e-07
6.75893e-07
6.96506e-07
7.17095e-07
7.37153e-07
7.56032e-07
7.73074e-07
7.8774e-07
7.99703e-07
8.08864e-07
8.15353e-07
8.19244e-07
8.20982e-07
8.21254e-07
8.20428e-07
8.18826e-07
8.16724e-07
8.14338e-07
8.11829e-07
8.09308e-07
8.06846e-07
8.04488e-07
8.02257e-07
8.00146e-07
7.98169e-07
7.96295e-07
7.94549e-07
7.9277e-07
7.91279e-07
7.88952e-07
7.89875e-07
7.75551e-07
4.23523e-07
4.28227e-07
4.39733e-07
4.52936e-07
4.67526e-07
4.83288e-07
4.99624e-07
5.15959e-07
5.31818e-07
5.46881e-07
5.61067e-07
5.74591e-07
5.87898e-07
6.01537e-07
6.16005e-07
6.3162e-07
6.48452e-07
6.66316e-07
6.84837e-07
7.03506e-07
7.21851e-07
7.39316e-07
7.55665e-07
7.70348e-07
7.83094e-07
7.93816e-07
8.02509e-07
8.09224e-07
8.14065e-07
8.17167e-07
8.18687e-07
8.18777e-07
8.17623e-07
8.15357e-07
8.12133e-07
8.08036e-07
8.03394e-07
7.97878e-07
7.93227e-07
7.82184e-07
8.0123e-07
3.54681e-07
3.58893e-07
3.67761e-07
3.76678e-07
3.85944e-07
3.96288e-07
4.08109e-07
4.21639e-07
4.36796e-07
4.5303e-07
4.69376e-07
4.84644e-07
4.9768e-07
5.07611e-07
5.14014e-07
5.16969e-07
5.1697e-07
5.14769e-07
5.1116e-07
5.06974e-07
5.02361e-07
4.97761e-07
4.93444e-07
4.89764e-07
4.86768e-07
4.84439e-07
4.82801e-07
4.81905e-07
4.81794e-07
4.8249e-07
4.83995e-07
4.86302e-07
4.89364e-07
4.93163e-07
4.97619e-07
5.0272e-07
5.08186e-07
5.14527e-07
5.19439e-07
5.32312e-07
5.07493e-07
2.99672e-07
3.04698e-07
3.13174e-07
3.19907e-07
3.24504e-07
3.27545e-07
3.29638e-07
3.31576e-07
3.34319e-07
3.38955e-07
3.46651e-07
3.58504e-07
3.75292e-07
3.9724e-07
4.23907e-07
4.54267e-07
4.86915e-07
5.20319e-07
5.53077e-07
5.83845e-07
6.12329e-07
6.38055e-07
6.60575e-07
6.79553e-07
6.95135e-07
7.07596e-07
7.17228e-07
7.24312e-07
7.29121e-07
7.31899e-07
7.32862e-07
7.32188e-07
7.30066e-07
7.26596e-07
7.21945e-07
7.16166e-07
7.09633e-07
7.01743e-07
6.95226e-07
6.79701e-07
7.06938e-07
2.56915e-07
2.63355e-07
2.73603e-07
2.83165e-07
2.90611e-07
2.95213e-07
2.96393e-07
2.94078e-07
2.88779e-07
2.81495e-07
2.73569e-07
2.66493e-07
2.61641e-07
2.59973e-07
2.61796e-07
2.66711e-07
2.73782e-07
2.81857e-07
2.89864e-07
2.97085e-07
3.02706e-07
3.06509e-07
3.07496e-07
3.06407e-07
3.03843e-07
3.00271e-07
2.96206e-07
2.92218e-07
2.88829e-07
2.8646e-07
2.85425e-07
2.85931e-07
2.88093e-07
2.91921e-07
2.97369e-07
3.04365e-07
3.12714e-07
3.22568e-07
3.32272e-07
3.489e-07
3.40138e-07
2.23191e-07
2.26075e-07
2.31979e-07
2.46213e-07
2.75049e-07
3.19793e-07
3.76325e-07
4.388e-07
5.0208e-07
5.6233e-07
6.16901e-07
6.64089e-07
7.02954e-07
7.33153e-07
7.54826e-07
7.68494e-07
7.74956e-07
7.75175e-07
7.70205e-07
7.60959e-07
7.48628e-07
7.37351e-07
7.24895e-07
7.1251e-07
7.00811e-07
6.90111e-07
6.80566e-07
6.72192e-07
6.64871e-07
6.58397e-07
6.52515e-07
6.46952e-07
6.41415e-07
6.35518e-07
6.29202e-07
6.22303e-07
6.14478e-07
6.05498e-07
5.94393e-07
5.87965e-07
5.64054e-07
0.140689
0.115192
0.0991941
0.0975661
0.104055
0.108665
0.109609
0.107849
0.104017
0.0984875
0.0916591
0.0838705
0.0753731
0.0663676
0.057027
0.0475002
0.0379292
0.0284736
0.0193457
0.0111558
0.00707857
0.0116075
0.018934
0.0264293
0.0335954
0.0402525
0.0462925
0.0516441
0.0562736
0.0601475
0.0632308
0.0654951
0.0669199
0.067501
0.0672569
0.0662168
0.0644151
0.0618935
0.0587019
0.0549026
0.0505726
0.0458033
0.0406989
0.0353769
0.0299687
0.0246228
0.0194999
0.0147671
0.0105863
0.00709235
0.0043668
0.0024171
0.00116544
0.000464802
0.000135801
2.00251e-05
7.56743e-07
1.73131e-07
4.92093e-07
1.41798e-06
2.27937e-06
2.11075e-06
1.07924e-06
1.12596e-07
7.77824e-07
1.0567e-06
1.05562e-06
9.33855e-07
7.87053e-07
6.5508e-07
5.55046e-07
4.69186e-07
4.30022e-07
3.97456e-07
0.516098
0.410728
0.354692
0.326799
0.306868
0.28905
0.272112
0.25574
0.23978
0.224145
0.208815
0.193788
0.179064
0.16463
0.150468
0.136567
0.122932
0.109563
0.0964736
0.083714
0.0712994
0.0592935
0.0477301
0.036637
0.0260628
0.0161145
0.00722138
0.00483783
0.0118022
0.0191587
0.0259715
0.0320914
0.0374469
0.0419995
0.0457387
0.0486574
0.0507496
0.0520163
0.0524653
0.0521226
0.0510307
0.0492416
0.0468143
0.0438158
0.0403208
0.0364164
0.0322032
0.0277955
0.0233215
0.0189234
0.0147515
0.0109567
0.00767643
0.00500963
0.0029981
0.00161233
0.000756704
0.000294411
8.27496e-05
1.15605e-05
5.38655e-07
6.36255e-08
2.4976e-07
8.10921e-07
1.47879e-06
1.60538e-06
1.05007e-06
2.1575e-07
5.40619e-07
9.59845e-07
1.10346e-06
1.0432e-06
9.46027e-07
7.3733e-07
0.510456
0.462966
0.426653
0.402288
0.378766
0.356569
0.33639
0.317807
0.300445
0.28408
0.268535
0.253651
0.239294
0.225354
0.211741
0.198381
0.18521
0.17217
0.159252
0.146444
0.133738
0.121216
0.108903
0.0968129
0.0849639
0.07339
0.0621308
0.051248
0.0408185
0.0308865
0.0214914
0.012705
0.00482561
0.00416667
0.0106661
0.0168725
0.0224378
0.0272882
0.0313791
0.0346958
0.0372413
0.0390242
0.0400575
0.0403617
0.0399646
0.0389084
0.0372484
0.0350487
0.0323811
0.0293268
0.025977
0.0224354
0.0188199
0.0152597
0.0118897
0.00884061
0.00622208
0.00410485
0.00250918
0.0014001
0.000698352
0.00030048
0.000102111
2.11232e-05
1.89257e-06
5.61575e-08
2.54319e-08
1.57723e-07
5.32512e-07
9.59221e-07
1.06232e-06
7.42929e-07
2.05682e-07
6.00943e-07
0.425302
0.370777
0.332
0.30904
0.289502
0.272687
0.25897
0.247613
0.237997
0.229742
0.22253
0.216064
0.210081
0.204359
0.198703
0.192951
0.186974
0.180674
0.173977
0.166802
0.159151
0.151035
0.142496
0.133638
0.124546
0.115271
0.105844
0.0963026
0.086701
0.0770991
0.0675554
0.0581325
0.0488929
0.0399256
0.0313246
0.0231537
0.0154656
0.00833232
0.00214307
0.00469346
0.0100096
0.0148166
0.0190198
0.0225826
0.0254789
0.0277049
0.02927
0.0301898
0.0304859
0.0301871
0.0293305
0.0279635
0.0261455
0.0239466
0.0214472
0.0187388
0.0159245
0.0131144
0.0104216
0.00795285
0.00579568
0.00400755
0.00260972
0.00158567
0.00088778
0.000449603
0.000198885
6.99463e-05
1.50598e-05
1.44123e-06
3.95015e-08
7.02194e-11
7.95938e-09
2.37499e-07
0.262095
0.205531
0.166021
0.143217
0.126817
0.114604
0.106026
0.100103
0.0961322
0.0937412
0.0926745
0.0927231
0.0937132
0.0954905
0.0979033
0.100793
0.103987
0.107304
0.110547
0.113528
0.116053
0.117895
0.118913
0.118959
0.117962
0.115937
0.112934
0.109036
0.104348
0.0989849
0.0930633
0.0866917
0.0799655
0.0729751
0.0658124
0.0585615
0.0512937
0.0440767
0.0369662
0.0300505
0.0234056
0.0170872
0.0111445
0.0056407
0.00101795
0.00419665
0.00825245
0.0118474
0.0149387
0.0175038
0.0195273
0.0210069
0.0219526
0.0223816
0.0223177
0.021792
0.0208445
0.0195248
0.0178939
0.0160245
0.0139984
0.0119031
0.00982719
0.00785489
0.00605878
0.00449288
0.00318923
0.0021562
0.0013799
0.000828835
0.000462568
0.00023256
0.000109149
1.77344e-05
0.0749997
0.0516561
0.03574
0.027095
0.0213397
0.0172233
0.0144182
0.0125045
0.0111882
0.0103271
0.00984266
0.00968668
0.00983751
0.0102957
0.0110789
0.0122185
0.013757
0.0157438
0.0182295
0.0212587
0.0248588
0.0290407
0.0337698
0.0389649
0.0444791
0.050129
0.0556454
0.0607726
0.0652824
0.0689838
0.0717178
0.0733985
0.0740019
0.0735562
0.0721319
0.0698283
0.0667594
0.063045
0.0587988
0.0541356
0.0491697
0.044006
0.0387353
0.0334399
0.0281829
0.0230499
0.0181069
0.0134003
0.00896825
0.00485219
0.00116381
0.00244624
0.00546329
0.00813216
0.0104211
0.0123132
0.0137969
0.014866
0.0155261
0.0157923
0.0156873
0.0152417
0.0144939
0.0134905
0.0122853
0.0109372
0.00950897
0.00806281
0.00665815
0.00534355
0.00416782
0.0031204
0.00235661
0.00135293
0.00603996
0.0031772
0.001483
0.0007703
0.000421267
0.000230126
0.000131382
7.99127e-05
5.1238e-05
3.45635e-05
2.4717e-05
1.88694e-05
1.54977e-05
1.38412e-05
1.35989e-05
1.48405e-05
1.81013e-05
2.47266e-05
3.76966e-05
6.34213e-05
0.00011527
0.00021918
0.000417743
0.000764771
0.00131198
0.00210884
0.00323726
0.00478618
0.00683375
0.00943118
0.0125917
0.0162645
0.0203382
0.0246503
0.0290021
0.0331768
0.0369673
0.0401953
0.0427237
0.0444646
0.0453814
0.0454847
0.0448212
0.0434642
0.0414983
0.0390194
0.0361296
0.0329286
0.0295077
0.0259515
0.0223305
0.0187224
0.0151955
0.0118001
0.00857439
0.00555025
0.00276022
0.000366061
0.0021035
0.0041027
0.00584144
0.00730732
0.00849233
0.00939206
0.0100074
0.0103452
0.0104206
0.0102557
0.00987905
0.00932022
0.00862839
0.00779151
0.00704207
0.00571373
0.000230194
0.000150481
9.38032e-05
7.03683e-05
6.03053e-05
4.95694e-05
4.01078e-05
3.31068e-05
2.80363e-05
2.44464e-05
2.20297e-05
2.05134e-05
1.97444e-05
1.95461e-05
1.97003e-05
2.003e-05
2.04101e-05
2.07354e-05
2.09032e-05
2.08026e-05
2.03077e-05
1.92666e-05
1.74965e-05
1.47791e-05
1.08722e-05
5.66325e-06
4.16404e-06
1.45373e-05
3.1965e-05
6.19863e-05
0.000117538
0.00022361
0.000419224
0.000750927
0.00127063
0.00204035
0.00312185
0.00456285
0.00638295
0.0085643
0.011049
0.0137409
0.0165161
0.0192362
0.0217631
0.0239712
0.0257596
0.027058
0.0278287
0.0280652
0.0277858
0.0270302
0.0258547
0.0243253
0.0225108
0.0204781
0.0182923
0.0160091
0.0136916
0.0113938
0.00915759
0.00701512
0.00499286
0.00311334
0.00139808
0.000225745
0.00152746
0.00270767
0.00371385
0.00454484
0.00519986
0.00569024
0.00597681
0.00630952
0.000407766
0.000336617
0.000251857
0.000203602
0.000178917
0.000151652
0.00012465
0.000103794
8.78918e-05
7.46958e-05
6.36615e-05
5.46166e-05
4.71697e-05
4.09602e-05
3.57501e-05
3.13593e-05
2.76352e-05