/*--------------------------------*- C++ -*----------------------------------*\
| =========                 |                                                 |
| \\      /  F ield         | OpenFOAM: The Open Source CFD Toolbox           |
|  \\    /   O peration     | Version:  2312                                  |
|   \\  /    A nd           | Website:  www.openfoam.com                      |
|    \\/     M anipulation  |                                                 |
\*---------------------------------------------------------------------------*/
FoamFile
{
    version     2.0;
    format      ascii;
    arch        "LSB;label=32;scalar=64";
    class       volScalarField;
    location    "249";
    object      turbulenceProperties:L;
}
// * * * * * * * * * * * * * * * * * * * * * * * * * * * * * * * * * * * * * //

dimensions      [0 1 0 0 0 0 0];

internalField   nonuniform List<scalar> 
11040
(
0.000726043
0.000489605
0.000418384
0.000447314
0.000537489
0.000671994
0.000816497
0.00092067
0.000975201
0.000999668
0.00101209
0.00102106
0.00102922
0.00103692
0.00104407
0.00105075
0.00105721
0.00106381
0.00107092
0.00107899
0.00108838
0.00109944
0.00111172
0.00112432
0.00113707
0.00115014
0.00116351
0.00117717
0.00119116
0.00120552
0.00122028
0.00123553
0.00125134
0.00126786
0.00128532
0.00130399
0.00132445
0.00134709
0.00137465
0.00140565
0.00144963
0.00120112
0.00110102
0.00104801
0.00107864
0.00107319
0.00104189
0.00113691
0.00136425
0.0016345
0.00190426
0.00216446
0.00241186
0.00263917
0.00283481
0.00298774
0.00309548
0.00316396
0.00320471
0.00322963
0.00324859
0.00326518
0.00328651
0.00332158
0.00336996
0.00342262
0.00347414
0.00352344
0.00357117
0.00361771
0.00366319
0.00370742
0.00374994
0.00379015
0.00382696
0.00385857
0.00388275
0.00389658
0.00389548
0.00386929
0.0038225
0.00355054
0.0014567
0.00164901
0.00206378
0.00202869
0.00189141
0.00188944
0.00195904
0.00206892
0.00222176
0.00244396
0.00289981
0.00394646
0.00432378
0.00355802
0.00327618
0.00323014
0.00328373
0.00337968
0.00349124
0.00360574
0.00371649
0.00380969
0.00388642
0.003963
0.0040427
0.00412417
0.00420813
0.00429492
0.00438454
0.00447673
0.00457131
0.00466785
0.00476575
0.00486475
0.00496358
0.00506025
0.00515034
0.00523396
0.00528141
0.00533658
0.00502821
0.00179697
0.00183983
0.00190482
0.00196112
0.00205789
0.00220948
0.00240054
0.00262459
0.00289422
0.00324196
0.00370327
0.00432877
0.00517646
0.00628314
0.0073401
0.00698925
0.00558383
0.00453064
0.00398927
0.00380133
0.00380376
0.00388875
0.0040091
0.00415167
0.00430062
0.00444584
0.0045852
0.00471859
0.00484604
0.00496776
0.00508426
0.00519611
0.0053039
0.00540859
0.00551012
0.0056083
0.00569992
0.0057902
0.00584882
0.00593898
0.00576658
0.00219291
0.00218895
0.0022796
0.00249258
0.00283495
0.00319261
0.00341231
0.00349536
0.00353695
0.0036018
0.00370632
0.00384906
0.00403347
0.00425298
0.00450425
0.00478934
0.00511515
0.00549106
0.0059269
0.00643033
0.00703826
0.0079326
0.00942921
0.00949376
0.00728908
0.00596146
0.00532495
0.00503969
0.00493778
0.00493711
0.00499549
0.0050894
0.00520446
0.00533227
0.00546547
0.00559887
0.00572369
0.00584716
0.00593076
0.00605514
0.00599498
0.00268077
0.00262454
0.00263099
0.00269629
0.00281646
0.00297667
0.00316688
0.00337948
0.00361029
0.00386066
0.00413459
0.00443899
0.00479522
0.00521935
0.00571883
0.00630369
0.00698095
0.00773673
0.00851796
0.0092025
0.00971089
0.0101413
0.0106207
0.0110822
0.0114319
0.0116832
0.011831
0.0118092
0.0115119
0.0108445
0.00979938
0.00852369
0.00728102
0.00629219
0.00565221
0.00532614
0.00521108
0.00523753
0.00530005
0.00548146
0.005591
0.00325316
0.00315628
0.00311466
0.00313183
0.00323969
0.00344104
0.00372001
0.00404618
0.00438115
0.0046865
0.00493655
0.00512674
0.00527254
0.00540333
0.00554139
0.00569521
0.0058673
0.00605738
0.00626487
0.00649069
0.00674264
0.00704968
0.00742079
0.00780683
0.00815294
0.00846096
0.00874937
0.00902695
0.0093
0.00957963
0.00988108
0.0102232
0.0106257
0.0110998
0.0116187
0.0120164
0.0119146
0.0107263
0.00791422
0.00605477
0.00458329
0.00393001
0.00379781
0.00371566
0.0036605
0.00367516
0.00376095
0.00390208
0.00408327
0.0042942
0.00452926
0.00478553
0.00506099
0.00535402
0.00566746
0.00600844
0.00637554
0.00676638
0.00718037
0.00761651
0.00807142
0.00853941
0.00902124
0.00951465
0.00997273
0.0103251
0.0105558
0.0106888
0.0107451
0.0107363
0.0106733
0.0105684
0.0104351
0.0102887
0.0101496
0.0100468
0.0100218
0.0101507
0.0106308
0.0114498
0.0144444
0.0142024
0.00472823
0.00455976
0.00445334
0.00434276
0.00429027
0.00431583
0.00441474
0.00457806
0.00479565
0.00505693
0.00534876
0.00565796
0.00596821
0.00625859
0.00651228
0.00672875
0.00691919
0.00709461
0.00726462
0.00743827
0.00762983
0.00785216
0.00810901
0.00838395
0.00864033
0.00886244
0.00905549
0.00922401
0.00936655
0.00948041
0.00956372
0.00961485
0.00963264
0.00961578
0.00956588
0.00948648
0.00939148
0.00932043
0.0092883
0.00957608
0.0104321
0.00567487
0.00546384
0.00534395
0.00518512
0.00506194
0.00500558
0.00501509
0.00508272
0.00520007
0.00535821
0.00554952
0.00576911
0.00601288
0.00627612
0.00655646
0.00685497
0.00717183
0.00750382
0.00784911
0.00820954
0.00858258
0.00896357
0.00935628
0.00974926
0.0101071
0.0104054
0.0106419
0.0108207
0.0109426
0.0110072
0.011016
0.0109727
0.0108826
0.0107505
0.0105833
0.0103884
0.0101741
0.00995648
0.00972924
0.00959063
0.00950441
0.00679929
0.00653641
0.00641044
0.00621335
0.00602899
0.00590125
0.00583601
0.00583256
0.00588834
0.00599819
0.00615527
0.00635338
0.00658577
0.00684354
0.00711574
0.00738971
0.00765393
0.00790291
0.00813787
0.00836345
0.00858921
0.00881823
0.00905136
0.00928765
0.00951019
0.00970497
0.00987025
0.01001
0.0101268
0.0102212
0.0102938
0.0103458
0.0103784
0.0103941
0.0103954
0.010386
0.0103702
0.0103612
0.0103552
0.0104155
0.0104391
0.00813739
0.00781264
0.00768417
0.007454
0.00721376
0.00701636
0.00687072
0.00678006
0.00674547
0.0067646
0.00683163
0.00694089
0.00708726
0.00726508
0.00746902
0.00769494
0.00794058
0.00820541
0.00848868
0.00878971
0.00910439
0.00942242
0.0097416
0.0100623
0.0103715
0.0106545
0.0109038
0.011118
0.0112962
0.0114374
0.0115406
0.0116067
0.0116382
0.0116381
0.0116118
0.0115677
0.011516
0.0114708
0.0114466
0.0114926
0.0115595
0.00973152
0.00933524
0.00920477
0.00894372
0.00865215
0.00839113
0.00817094
0.00799812
0.00787921
0.00781669
0.00780845
0.00785075
0.00793949
0.00806962
0.00823541
0.00843048
0.00864747
0.00887928
0.00911951
0.00936519
0.00961628
0.009865
0.0101066
0.0103432
0.0105678
0.010772
0.0109519
0.0111076
0.0112412
0.0113549
0.0114512
0.0115333
0.0116049
0.0116714
0.0117382
0.0118119
0.0119004
0.0120156
0.0121697
0.0123952
0.0126414
0.0116343
0.0111564
0.0110217
0.010729
0.010387
0.0100648
0.00977173
0.00951548
0.00930598
0.00914942
0.00904658
0.00899549
0.00899328
0.00903597
0.00911916
0.00923823
0.00938888
0.0095678
0.00977278
0.0100028
0.0102544
0.0105153
0.0107786
0.0110453
0.0113096
0.0115647
0.0118058
0.0120304
0.0122377
0.0124272
0.012599
0.0127543
0.0128947
0.0130228
0.0131424
0.0132593
0.0133812
0.0135167
0.0136797
0.013898
0.0141273
0.0139084
0.0133405
0.0131966
0.0128691
0.0124754
0.0120924
0.0117285
0.0113912
0.0110931
0.010844
0.0106481
0.0105063
0.0104178
0.0103806
0.0103917
0.0104475
0.0105433
0.0106746
0.0108368
0.011026
0.0112387
0.0114616
0.0116856
0.0119117
0.0121347
0.0123496
0.0125528
0.0127426
0.0129194
0.0130844
0.0132395
0.013388
0.0135341
0.0136833
0.0138419
0.0140161
0.0142136
0.0144446
0.0147196
0.0150593
0.0154066
0.0166278
0.0159645
0.0158029
0.0154366
0.0149891
0.0145435
0.0141073
0.013688
0.0132995
0.0129539
0.0126581
0.0124151
0.012226
0.0120906
0.0120073
0.0119736
0.0119862
0.0120415
0.0121364
0.0122679
0.012433
0.01262
0.012821
0.0130356
0.0132588
0.0134863
0.0137157
0.0139452
0.0141743
0.0144033
0.0146332
0.0148652
0.0151009
0.0153428
0.0155934
0.0158557
0.0161341
0.016432
0.0167573
0.0171213
0.0174827
0.0198478
0.0190916
0.0188987
0.0184896
0.0179873
0.0174772
0.0169671
0.0164652
0.0159867
0.0155454
0.0151503
0.0148062
0.0145164
0.0142828
0.0141057
0.0139841
0.0139159
0.0138985
0.0139288
0.0140041
0.0141226
0.0142728
0.0144435
0.014633
0.0148357
0.015047
0.0152641
0.0154847
0.0157077
0.0159328
0.0161604
0.0163925
0.0166305
0.0168788
0.0171424
0.017425
0.0177309
0.0180674
0.018441
0.0188589
0.019282
0.023494
0.0226587
0.0224219
0.0219631
0.0214039
0.0208266
0.0202403
0.019655
0.0190872
0.0185515
0.0180582
0.0176132
0.0172211
0.0168851
0.0166071
0.0163874
0.0162252
0.0161191
0.0160671
0.0160669
0.0161177
0.0162105
0.0163358
0.0164917
0.0166724
0.0168738
0.0170933
0.0173291
0.0175803
0.0178469
0.0181293
0.018429
0.0187469
0.019085
0.0194451
0.0198286
0.0202359
0.0206669
0.0211252
0.0216098
0.0221013
0.0274374
0.0265344
0.0262525
0.0257404
0.0251211
0.0244745
0.0238104
0.0231415
0.0224857
0.0218587
0.0212718
0.020732
0.0202448
0.0198149
0.0194453
0.0191378
0.0188926
0.0187095
0.0185876
0.0185254
0.0185241
0.0185761
0.018671
0.0188052
0.0189721
0.0191664
0.0193847
0.0196239
0.0198822
0.0201579
0.0204505
0.0207598
0.0210858
0.0214299
0.0217936
0.0221774
0.0225823
0.0230131
0.0234719
0.0239588
0.0244553
0.0316262
0.030671
0.0303419
0.0297782
0.0291006
0.0283858
0.0276455
0.0268952
0.0261547
0.0254406
0.0247653
0.0241364
0.0235602
0.023042
0.0225856
0.0221936
0.0218673
0.021607
0.0214128
0.0212837
0.0212218
0.0212212
0.0212728
0.0213728
0.0215143
0.0216925
0.0219039
0.0221456
0.0224157
0.0227129
0.0230363
0.023386
0.0237613
0.024163
0.0245923
0.0250491
0.0255307
0.0260399
0.0265786
0.0271419
0.0277204
0.0360926
0.0350983
0.0347227
0.034111
0.0333767
0.032594
0.0317776
0.0309465
0.0301221
0.0293227
0.0285615
0.0278472
0.0271867
0.0265859
0.0260495
0.0255806
0.0251813
0.0248528
0.024596
0.0244109
0.024301
0.0242622
0.0242849
0.024365
0.0244949
0.0246691
0.0248829
0.0251327
0.0254152
0.0257278
0.0260686
0.0264362
0.0268286
0.0272456
0.0276871
0.0281515
0.0286356
0.0291429
0.0296728
0.0302259
0.0307694
0.0408601
0.0398376
0.0394158
0.0387586
0.0379683
0.0371171
0.0362241
0.0353117
0.0344035
0.0335194
0.0326738
0.0318763
0.0311344
0.0304547
0.0298422
0.0293004
0.0288321
0.0284389
0.0281221
0.0278822
0.0277234
0.0276425
0.0276304
0.0276826
0.0277918
0.0279521
0.0281588
0.028408
0.0286962
0.0290208
0.0293796
0.0297712
0.0301932
0.0306453
0.0311273
0.0316378
0.0321715
0.0327328
0.0333195
0.0339412
0.0345357
0.0459574
0.0449173
0.0444507
0.0437505
0.0429047
0.0419843
0.0410137
0.0400191
0.0390266
0.0380576
0.0371282
0.0362489
0.035428
0.0346727
0.0339884
0.0333791
0.0328478
0.0323968
0.0320279
0.0317419
0.0315443
0.0314325
0.0313971
0.0314337
0.0315345
0.0316934
0.0319048
0.0321641
0.032467
0.0328098
0.0331893
0.0336031
0.0340476
0.0345218
0.0350243
0.0355525
0.0361001
0.0366723
0.0372637
0.037892
0.0384549
0.051414
0.0503661
0.0498567
0.0491153
0.0482136
0.0472224
0.0461725
0.045094
0.0440156
0.0429607
0.041947
0.0409863
0.0400874
0.0392583
0.0385047
0.0378311
0.0372405
0.0367356
0.0363183
0.0359899
0.035756
0.0356141
0.0355544
0.0355725
0.0356605
0.0358118
0.0360207
0.036282
0.0365911
0.036944
0.0373373
0.0377684
0.0382334
0.0387307
0.0392593
0.0398167
0.0403954
0.0410014
0.0416272
0.0423073
0.0428764
0.0572631
0.0562167
0.055667
0.0548859
0.0539272
0.0528633
0.0517317
0.0505671
0.0494008
0.0482584
0.0471595
0.0461171
0.045141
0.0442395
0.0434191
0.0426843
0.0420386
0.0414848
0.0410249
0.0406606
0.040398
0.0402343
0.0401589
0.0401677
0.0402523
0.0404059
0.0406223
0.0408957
0.0412208
0.041593
0.0420083
0.0424631
0.042953
0.0434758
0.0440296
0.0446115
0.0452128
0.0458405
0.046484
0.0471886
0.047734
0.0635408
0.0625052
0.0619177
0.0610972
0.0600797
0.0589401
0.0577237
0.0564697
0.0552125
0.0539803
0.0527944
0.0516693
0.0506155
0.0496423
0.0487563
0.0479623
0.047264
0.0466644
0.0461654
0.0457688
0.0454808
0.0452978
0.0452081
0.0452076
0.0452877
0.0454409
0.0456607
0.045941
0.0462759
0.0466605
0.0470904
0.0475618
0.0480698
0.048612
0.0491864
0.0497902
0.0504139
0.0510651
0.0517306
0.0524747
0.0529996
0.0702878
0.0692717
0.0686487
0.0677882
0.0667089
0.0654896
0.0641841
0.0628366
0.061485
0.0601597
0.0588845
0.057675
0.0565429
0.055498
0.0545473
0.0536959
0.0529476
0.0523053
0.0517712
0.0513469
0.0510389
0.0508424
0.0507444
0.0507409
0.050823
0.0509828
0.0512134
0.0515081
0.0518606
0.0522656
0.0527181
0.0532139
0.0537476
0.0543166
0.0549183
0.0555494
0.0562002
0.0568787
0.0575691
0.0583472
0.0588533
0.0775491
0.0765609
0.0759041
0.0750016
0.073856
0.0725517
0.0711515
0.0697053
0.0682543
0.0668321
0.0654642
0.0641679
0.0629559
0.0618385
0.0608231
0.0599151
0.0591182
0.0584353
0.0578686
0.0574193
0.057094
0.0568866
0.0567821
0.0567766
0.0568609
0.0570265
0.0572659
0.0575721
0.0579383
0.0583589
0.0588283
0.0593422
0.0598949
0.0604832
0.0611047
0.061756
0.0624268
0.0631254
0.0638337
0.0646443
0.0651216
0.085375
0.0844228
0.0837328
0.0827844
0.0815662
0.0801697
0.0786679
0.0771163
0.0755601
0.0740357
0.072571
0.0711848
0.0698906
0.0686993
0.0676188
0.0666545
0.0658099
0.0650882
0.0644911
0.0640197
0.0636805
0.0634658
0.0633585
0.063355
0.0634457
0.0636214
0.0638743
0.0641968
0.064582
0.0650236
0.065516
0.0660543
0.0666327
0.0672477
0.0678965
0.0685755
0.0692745
0.0700018
0.0707374
0.0715836
0.0720463
0.0938222
0.0929132
0.0921889
0.0911884
0.0898892
0.0883914
0.0867789
0.0851135
0.0834447
0.0818118
0.080245
0.0787646
0.0773851
0.0761178
0.0749709
0.0739496
0.0730577
0.0722978
0.0716713
0.0711793
0.0708278
0.0706072
0.0704983
0.0704975
0.0705945
0.0707798
0.0710448
0.0713816
0.0717828
0.0722418
0.0727526
0.0733101
0.0739082
0.074543
0.0752117
0.0759104
0.076629
0.0773753
0.078128
0.0790016
0.0794379
0.102954
0.102095
0.101333
0.100271
0.0988795
0.0972687
0.0955342
0.0937449
0.0919542
0.090205
0.0885297
0.0869499
0.0854809
0.0841345
0.082919
0.0818396
0.0808997
0.0801016
0.0794464
0.0789347
0.0785722
0.0783473
0.0782383
0.0782417
0.078347
0.0785438
0.078823
0.0791765
0.0795964
0.0800759
0.0806086
0.0811891
0.0818112
0.0824709
0.0831649
0.0838895
0.0846344
0.0854075
0.0861862
0.0870912
0.0875179
0.112842
0.112038
0.111232
0.110096
0.108597
0.106859
0.104988
0.103062
0.101139
0.0992639
0.0974719
0.095786
0.0942223
0.0927927
0.0915055
0.0903656
0.0893761
0.0885388
0.0878542
0.0873224
0.0869486
0.0867193
0.0866096
0.0866165
0.0867288
0.0869354
0.0872267
0.087594
0.0880292
0.088525
0.0890748
0.0896729
0.0903129
0.0909904
0.0917021
0.092444
0.0932063
0.0939958
0.0947897
0.0957151
0.0961215
0.123568
0.122821
0.121961
0.120734
0.119109
0.117224
0.115201
0.113123
0.111053
0.109041
0.107123
0.105323
0.103657
0.102139
0.100776
0.0995721
0.0985303
0.0976517
0.0969361
0.0963827
0.0959966
0.0957619
0.0956507
0.0956602
0.095779
0.095995
0.0962981
0.0966793
0.09713
0.0976428
0.0982106
0.0988276
0.0994874
0.100185
0.100918
0.10168
0.102464
0.103275
0.10409
0.105038
0.105442
0.135221
0.134534
0.133603
0.132261
0.130487
0.128434
0.126238
0.12399
0.121758
0.119595
0.117538
0.115614
0.113839
0.112225
0.11078
0.109507
0.108409
0.107485
0.106736
0.106158
0.105756
0.105513
0.105397
0.105405
0.105527
0.105748
0.106057
0.106447
0.106907
0.10743
0.108008
0.108636
0.109306
0.110015
0.110758
0.111531
0.112324
0.113144
0.113968
0.114925
0.115309
0.147907
0.147275
0.146251
0.144765
0.142812
0.140565
0.138172
0.135733
0.13332
0.13099
0.128781
0.12672
0.124825
0.123106
0.121571
0.120223
0.119063
0.118089
0.1173
0.116693
0.116272
0.116017
0.115893
0.115897
0.116018
0.116242
0.116557
0.116953
0.117422
0.117955
0.118544
0.119184
0.119867
0.120588
0.121344
0.12213
0.122937
0.123771
0.124608
0.125575
0.125968
0.161741
0.161156
0.160008
0.158341
0.156175
0.153702
0.151084
0.14843
0.145815
0.143298
0.140921
0.138709
0.136681
0.134847
0.133212
0.13178
0.130549
0.129518
0.128682
0.128039
0.12759
0.127314
0.127173
0.127163
0.127273
0.127487
0.127794
0.128183
0.128645
0.129172
0.129755
0.130389
0.131066
0.131781
0.13253
0.133309
0.134109
0.134935
0.135763
0.136721
0.137074
0.176854
0.176301
0.174987
0.173094
0.170676
0.167942
0.165069
0.162171
0.15933
0.156606
0.15404
0.151661
0.149485
0.147521
0.145774
0.144246
0.142934
0.141835
0.140944
0.140257
0.139773
0.139472
0.13931
0.139285
0.139385
0.139593
0.139897
0.140286
0.14075
0.14128
0.141868
0.142506
0.143189
0.143909
0.144664
0.145448
0.146254
0.147084
0.14792
0.14887
0.149273
0.193393
0.192845
0.191309
0.189138
0.186424
0.183394
0.180235
0.177067
0.173972
0.171015
0.168239
0.165671
0.163329
0.161219
0.159345
0.157706
0.156298
0.155116
0.154153
0.153402
0.152863
0.152511
0.152299
0.152225
0.152277
0.152438
0.152694
0.153035
0.153452
0.153935
0.154476
0.155069
0.155707
0.156384
0.157095
0.157836
0.158599
0.159387
0.160178
0.161097
0.161364
0.211521
0.210938
0.209113
0.206601
0.203543
0.200179
0.196704
0.193242
0.189875
0.186663
0.183652
0.180871
0.178335
0.176055
0.174033
0.172265
0.170745
0.169467
0.168423
0.167605
0.167014
0.166626
0.166389
0.166302
0.16635
0.166514
0.16678
0.167134
0.167565
0.168063
0.16862
0.169226
0.169876
0.170563
0.171282
0.172028
0.172797
0.173585
0.174387
0.175259
0.175742
0.23141
0.230741
0.228551
0.225639
0.22219
0.21845
0.214623
0.210837
0.207177
0.203701
0.200448
0.19744
0.194691
0.192211
0.190005
0.18807
0.1864
0.184984
0.183809
0.182859
0.182131
0.181597
0.181204
0.180952
0.18083
0.180823
0.180917
0.181104
0.181373
0.181716
0.182125
0.182592
0.18311
0.183673
0.184275
0.184912
0.185576
0.186268
0.186959
0.187811
0.187802
0.253223
0.252396
0.249762
0.246414
0.24257
0.238451
0.234253
0.230105
0.226101
0.222311
0.218782
0.215535
0.212576
0.209902
0.207507
0.205391
0.203551
0.201991
0.200708
0.199697
0.198958
0.198464
0.198152
0.19801
0.198018
0.198148
0.198381
0.198699
0.199087
0.199535
0.200031
0.200567
0.201138
0.201736
0.202359
0.203001
0.203663
0.20433
0.205037
0.205685
0.206526
0.277111
0.276015
0.272821
0.268997
0.264793
0.260389
0.255937
0.251523
0.24721
0.243063
0.239149
0.235524
0.232228
0.229276
0.226656
0.224337
0.222284
0.22046
0.218839
0.217404
0.216154
0.215078
0.214136
0.213345
0.212708
0.212218
0.211868
0.211651
0.211557
0.211578
0.211701
0.211918
0.212215
0.212586
0.21302
0.213511
0.214042
0.214626
0.21518
0.216082
0.215245
0.303259
0.301779
0.297915
0.293521
0.288891
0.284203
0.279611
0.275173
0.270883
0.266721
0.262676
0.25876
0.255019
0.251525
0.248365
0.245612
0.243315
0.241489
0.240117
0.23916
0.238591
0.238339
0.238299
0.238419
0.238652
0.238959
0.239309
0.239679
0.240052
0.240418
0.24077
0.241104
0.241422
0.241721
0.242005
0.242271
0.242543
0.242771
0.243129
0.242987
0.24522
0.331832
0.330005
0.325659
0.320877
0.315831
0.310638
0.305518
0.300643
0.296126
0.29202
0.288304
0.284891
0.281649
0.278437
0.275148
0.271726
0.268176
0.264557
0.260955
0.257469
0.254177
0.251157
0.248425
0.246046
0.244035
0.242382
0.241065
0.240063
0.239348
0.238894
0.238672
0.238659
0.238827
0.239159
0.239633
0.24024
0.240933
0.241764
0.242472
0.244177
0.241258
0.362607
0.360473
0.3561
0.35186
0.347611
0.343044
0.33804
0.332572
0.326751
0.320843
0.315207
0.310202
0.306113
0.303104
0.30121
0.300348
0.300348
0.300989
0.30205
0.303294
0.304683
0.306088
0.307424
0.308577
0.309525
0.310268
0.310794
0.311083
0.311118
0.310894
0.31041
0.309673
0.308703
0.307511
0.306132
0.304574
0.302932
0.30106
0.299633
0.295988
0.303139
0.394484
0.391217
0.385887
0.381804
0.37909
0.377327
0.376127
0.375026
0.373484
0.370921
0.366781
0.360667
0.352508
0.342632
0.33168
0.320405
0.309477
0.299379
0.290378
0.282623
0.275971
0.27035
0.265702
0.261966
0.259013
0.256722
0.254993
0.253743
0.252904
0.252424
0.252258
0.252374
0.252741
0.253343
0.254158
0.255182
0.256353
0.257791
0.258996
0.261937
0.256842
0.426043
0.420802
0.412847
0.405817
0.400585
0.397451
0.396658
0.398217
0.401854
0.407019
0.412872
0.418318
0.422178
0.42353
0.422053
0.418146
0.412712
0.406757
0.4011
0.396195
0.3925
0.390057
0.389431
0.390122
0.391765
0.394089
0.396783
0.399481
0.401818
0.403476
0.404207
0.403849
0.402331
0.399685
0.396007
0.391429
0.386169
0.380226
0.374632
0.365597
0.370275
0.457095
0.45417
0.448355
0.435202
0.411759
0.381871
0.352023
0.326002
0.304767
0.287978
0.274946
0.264997
0.257568
0.252207
0.24856
0.24634
0.245311
0.245276
0.246066
0.247557
0.249587
0.251489
0.25364
0.255835
0.257962
0.259954
0.261771
0.263396
0.264843
0.266142
0.267339
0.268486
0.269642
0.270891
0.272247
0.273752
0.275489
0.277525
0.280105
0.281632
0.28754
0.00606509
0.00887033
0.0112348
0.0125963
0.013158
0.0136346
0.0142015
0.0148517
0.0155946
0.0164542
0.0174545
0.018627
0.0200188
0.0217011
0.0237834
0.0264455
0.0300029
0.0350724
0.0430546
0.0573121
0.0726689
0.0573777
0.045444
0.0389018
0.0348768
0.0321778
0.0302647
0.0288636
0.027828
0.0270636
0.0265045
0.0261046
0.0258302
0.0256573
0.0255697
0.0255555
0.0256048
0.0257092
0.0258615
0.0260558
0.0262875
0.0265535
0.0268511
0.0271787
0.0275351
0.0279182
0.028325
0.028751
0.0291864
0.0296144
0.0300129
0.0303529
0.0306293
0.0309772
0.0326405
0.050253
0.291175
0.847261
0.447766
0.207624
0.145732
0.148428
0.209794
0.654437
0.248737
0.212222
0.211182
0.223761
0.243341
0.266568
0.289559
0.314979
0.329088
0.342475
0.00458598
0.00593193
0.00697784
0.00773003
0.00835726
0.00893789
0.00950094
0.0100625
0.0106355
0.0112308
0.0118579
0.0125263
0.0132459
0.0140285
0.0148884
0.0158432
0.0169161
0.0181388
0.0195528
0.0212137
0.0232094
0.025689
0.028897
0.0332808
0.0397972
0.0510124
0.0767232
0.0943578
0.0608986
0.0482082
0.0417477
0.037833
0.0352294
0.033408
0.0321067
0.0311728
0.0305079
0.0300462
0.0297414
0.0295611
0.0294831
0.0294908
0.0295716
0.0297151
0.0299131
0.0301587
0.0304466
0.0307724
0.0311316
0.0315186
0.0319258
0.0323412
0.0327443
0.033107
0.0333907
0.0335539
0.0335894
0.0337042
0.0359877
0.0636935
0.372494
1.50785
0.670207
0.288524
0.185227
0.170414
0.211348
0.471144
0.298952
0.223899
0.207773
0.212631
0.222538
0.251432
0.00532648
0.00606275
0.0066623
0.00712031
0.0075491
0.00796622
0.00837575
0.00878814
0.00921135
0.00965034
0.0101092
0.0105919
0.0111025
0.0116454
0.0122253
0.0128476
0.0135188
0.0142468
0.0150409
0.0159141
0.0168813
0.0179592
0.0191753
0.0205672
0.0221848
0.0240983
0.0264111
0.0292929
0.0330477
0.038244
0.0461349
0.0603409
0.0983367
0.106308
0.0668497
0.0535033
0.0466801
0.0425373
0.0397867
0.0378777
0.0365294
0.0355773
0.0349156
0.0344737
0.0342019
0.0340653
0.0340393
0.0341057
0.0342508
0.034463
0.0347329
0.0350516
0.0354092
0.0357948
0.0361942
0.0365868
0.0369444
0.0372313
0.0373992
0.0373975
0.0371931
0.0368802
0.0375511
0.050158
0.175463
1.6119
2.88172
0.863164
0.358466
0.231681
0.209939
0.250748
0.481814
0.284279
0.00585701
0.00636145
0.00676369
0.00704451
0.00732973
0.00762614
0.00792446
0.0082312
0.00855216
0.00888958
0.00924527
0.00962133
0.0100198
0.0104429
0.0108927
0.0113718
0.0118828
0.0124287
0.013013
0.0136403
0.014315
0.015044
0.0158352
0.0166948
0.0176306
0.0186554
0.0197868
0.0210485
0.0224749
0.024114
0.0260314
0.0283203
0.031117
0.0346511
0.0393385
0.045991
0.0565276
0.0772978
0.152719
0.10353
0.0712254
0.0588335
0.0521454
0.047983
0.0451881
0.0432437
0.0418762
0.0409216
0.0402735
0.0398594
0.0396281
0.0395424
0.0395748
0.0397042
0.0399135
0.0401873
0.0405101
0.0408659
0.0412358
0.0415947
0.0419122
0.042151
0.0422627
0.0421907
0.0418785
0.0412877
0.0405569
0.0411997
0.0574009
0.211521
2.39601
0.096601
6.38564
0.588339
0.00595863
0.00634576
0.00667678
0.00686736
0.00706458
0.00728113
0.00749737
0.00772147
0.00796334
0.00822614
0.00851175
0.00882231
0.00915932
0.0095234
0.0099146
0.0103325
0.0107766
0.0112462
0.0117409
0.0122602
0.0128048
0.0133783
0.0139835
0.0146238
0.0153056
0.0160382
0.0168316
0.0176942
0.0186341
0.01966
0.0207825
0.0220156
0.0233773
0.0248932
0.0266014
0.0285584
0.0308435
0.0335733
0.036917
0.0411736
0.0468777
0.0550969
0.06846
0.0964676
0.227175
0.112125
0.0802405
0.067214
0.0600178
0.0554947
0.0524498
0.0503301
0.0488417
0.0478081
0.0471143
0.0466808
0.0464503
0.0463801
0.0464367
0.0465926
0.0468239
0.0471085
0.0474238
0.047744
0.0480388
0.0482746
0.0484101
0.0483941
0.048168
0.0476697
0.0468248
0.0456692
0.0444877
0.0549294
0.00545671
0.00579677
0.00612768
0.00625528
0.00637291
0.00652144
0.00665337
0.00677238
0.00689758
0.00703552
0.00719042
0.00736965
0.00758133
0.00783285
0.00813063
0.00847963
0.00888275
0.00934063
0.00985179
0.0104128
0.0110192
0.0116637
0.0123392
0.0130456
0.0137793
0.0145341
0.0152967
0.0160618
0.0168303
0.017608
0.018407
0.0192407
0.0201245
0.0210745
0.0221074
0.023241
0.024494
0.0258873
0.0274439
0.0291929
0.0311761
0.0334528
0.0361073
0.0392638
0.0431024
0.0479458
0.0543603
0.0634467
0.0777981
0.105981
0.21639
0.149357
0.100155
0.0822956
0.0728192
0.0669816
0.0631039
0.0604163
0.0585232
0.0571955
0.0562866
0.0556959
0.0553508
0.0551967
0.0551899
0.0552945
0.0554789
0.0557134
0.0559676
0.0562095
0.0564058
0.0565107
0.0565914
0.0555554
0.00437222
0.00499285
0.00625461
0.0079514
0.0105035
0.0144563
0.0198603
0.0266304
0.0347776
0.0440994
0.0539775
0.063475
0.0713745
0.0762573
0.0768586
0.0725852
0.0638963
0.0523071
0.0399506
0.0288544
0.0203073
0.0146624
0.0115766
0.0103444
0.010221
0.0106565
0.0113837
0.0122768
0.01327
0.0143272
0.0154229
0.016535
0.0176471
0.0187484
0.0198337
0.0209042
0.0219652
0.0230272
0.0241053
0.0252176
0.0263856
0.0276337
0.028989
0.0304814
0.0321426
0.034009
0.0361276
0.0385595
0.0413855
0.0447182
0.0487139
0.0536345
0.0599205
0.0683523
0.0805087
0.100333
0.142439
0.390562
0.162878
0.116714
0.0978791
0.0874682
0.0809221
0.0765188
0.0734451
0.0712568
0.0696983
0.0686075
0.0678728
0.067412
0.0671656
0.06706
0.0672086
0.0666114
0.016082
0.0201287
0.0254057
0.0289569
0.030764
0.0333649
0.0365193
0.0396499
0.0425885
0.0451696
0.0472073
0.0486086
0.0492935
0.0493437
0.0489964
0.0484749
0.0479348
0.0474941
0.047258
0.0473406
0.0478927
0.0491557
0.0515729
0.0561071
0.0654073
0.0906076
0.105646
0.0565724
0.0383249
0.0280183
0.0214039
0.0173757
0.0154072
0.0148918
0.0152392
0.0160659
0.0171561
0.0183939
0.0197139
0.0210767
0.0224573
0.0238415
0.0252219
0.0265977
0.0279735
0.0293588
0.0307681
0.0322214
0.0337433
0.0353632
0.0371138
0.0390317
0.0411617
0.0435591
0.046292
0.0494453
0.0531328
0.0575003
0.0627903
0.069381
0.0778905
0.0894387
0.106377
0.134927
0.201248
0.499275
0.191483
0.143542
0.122271
0.110101
0.102343
0.0968855
0.0937127
0.0886212
0.010741
0.0117897
0.0136032
0.0151141
0.0161173
0.0175069
0.0193152
0.0211746
0.0230197
0.0249803
0.0270688
0.0292341
0.0314665
0.0337761
0.0361612
0.0386166
0.0411422
0.0437407
0.0464157
0.0491736
0.0520243
0.0549841
0.0580752
0.0613312
0.0647943
0.0684954
0.0724224
0.0764668
0.0802883
0.0833028
0.0856916
0.0860953
0.0825806
0.074498
0.0636519
0.052669
0.0429334
0.0346685
0.0279007
0.0229027
0.0199353
0.0188005
0.0189376
0.0198013
0.0210576
0.0225315
0.0241304
0.0258018
0.0275143
0.0292494
0.0309967
0.0327532
0.0345207
0.0363062
0.0381219
0.039985
0.0419177
0.0439456
0.0460985
0.0484135
0.0509362
0.0537206
0.0568304
0.0603419
0.0643513
0.0689764
0.0744015
0.0808891
0.0888149
0.0987871
0.111679
0.130142
0.153241
0.246141
0.00969281
0.0105597
0.0119971
0.0134409
0.0146304
0.0160101
0.0177218
0.019537
0.0213543
0.0232628
0.0253
0.0274278
0.0296309
0.0319236
0.0343147
0.0368047
0.0393974
0.0421005
0.0449219
0.0478696
0.0509526
0.0541813
0.057566
0.0611188
0.0648544
0.0687885
0.0729376
0.0773217
0.081968
0.0869061
0.0921637
0.0977658
0.103748
0.110042
0.116853
0.125441
0.136857
0.151729
0.168609
0.179856
0.17241
0.144618
0.113123
0.0879714
0.0694218
0.0553522
0.0441703
0.0353216
0.0289725
0.0252644
0.0238062
0.0238662
0.0248103
0.0262475
0.0279694
0.0298658
0.0318758
0.0339642
0.0361093
0.0382982
0.0405243
0.0427868
0.0450893
0.0474394
0.049848
0.0523282
0.0548956
0.0575713
0.0603799
0.0633592
0.0665107
0.0700144
0.0733117
0.0789937
0.0107716
0.0116284
0.0128896
0.0142366
0.015451
0.0167756
0.0183802
0.0201376
0.0219326
0.0238141
0.0258351
0.027975
0.0302121
0.0325561
0.0350199
0.0376068
0.0403205
0.0431693
0.0461637
0.0493138
0.0526311
0.0561292
0.0598226
0.0637282
0.067866
0.0722579
0.0769283
0.0819051
0.0872235
0.0929233
0.0990424
0.105625
0.112728
0.120422
0.128789
0.137931
0.147986
0.159158
0.171694
0.186023
0.202114
0.222956
0.254628
0.311975
0.447732
0.541928
0.355309
0.29013
0.273762
0.305347
0.527749
0.253206
0.1533
0.110321
0.0851716
0.0680049
0.0552211
0.0454831
0.0384199
0.0338905
0.0315701
0.0309175
0.0313776
0.0325385
0.0341448
0.0360487
0.0381629
0.0404357
0.0428311
0.04534
0.047908
0.0506805
0.0531019
0.0570847
0.0118564
0.0126065
0.0136444
0.0148145
0.0159948
0.0172806
0.0187856
0.0204605
0.0222174
0.0240664
0.0260498
0.028162
0.030381
0.0327072
0.0351505
0.0377138
0.0403974
0.0432054
0.0461442
0.0492202
0.0524399
0.0558109
0.0593412
0.0630401
0.066918
0.0709857
0.0752547
0.0797376
0.0844497
0.0894069
0.0946214
0.100106
0.105879
0.11196
0.118374
0.125141
0.132283
0.139825
0.14779
0.156198
0.165073
0.174421
0.184244
0.194541
0.205311
0.216555
0.228273
0.240469
0.253095
0.266193
0.279065
0.294051
0.314888
0.345688
0.392613
0.465414
0.574166
0.687884
0.662712
0.502125
0.36006
0.266956
0.206791
0.166168
0.137334
0.115895
0.0992874
0.0859755
0.0750725
0.0660226
0.0587255
0.0526324
0.0488644
0.0439516
0.0130851
0.0138751
0.0148352
0.0159031
0.0170418
0.0182832
0.0196841
0.0212339
0.0228828
0.0246246
0.0264854
0.0284696
0.0305625
0.0327598
0.0350675
0.037489
0.0400235
0.0426725
0.0454394
0.0483282
0.0513421
0.0544849
0.0577606
0.0611734
0.0647278
0.0684281
0.072278
0.0762814
0.0804421
0.084763
0.0892437
0.093882
0.0986772
0.103629
0.108736
0.11399
0.11938
0.124894
0.130516
0.136229
0.142013
0.147848
0.153709
0.159574
0.165422
0.171225
0.176958
0.182595
0.18811
0.193476
0.198674
0.203683
0.208479
0.213048
0.217385
0.221491
0.225376
0.229056
0.232557
0.235912
0.239156
0.24232
0.245424
0.24846
0.251385
0.254116
0.256507
0.258406
0.259493
0.259895
0.258528
0.258107
0.252603
0.249364
0.0145189
0.0152096
0.0160043
0.016897
0.0179021
0.0190301
0.020297
0.0217027
0.0232276
0.024864
0.0266221
0.0285069
0.030511
0.0326288
0.0348615
0.0372102
0.0396733
0.0422493
0.0449384
0.0477411
0.0506576
0.0536881
0.0568329
0.0600921
0.0634659
0.0669542
0.0705563
0.0742712
0.0780978
0.0820341
0.0860761
0.0902191
0.0944589
0.098792
0.103214
0.107717
0.112294
0.116939
0.121644