/*--------------------------------*- C++ -*----------------------------------*\
| =========                 |                                                 |
| \\      /  F ield         | OpenFOAM: The Open Source CFD Toolbox           |
|  \\    /   O peration     | Version:  2312                                  |
|   \\  /    A nd           | Website:  www.openfoam.com                      |
|    \\/     M anipulation  |                                                 |
\*---------------------------------------------------------------------------*/
FoamFile
{
    version     2.0;
    format      ascii;
    arch        "LSB;label=32;scalar=64";
    class       volScalarField;
    location    "249";
    object      turbulenceProperties:nuEff;
}
// * * * * * * * * * * * * * * * * * * * * * * * * * * * * * * * * * * * * * //

dimensions      [0 2 -1 0 0 0 0];

internalField   nonuniform List<scalar> 
11040
(
1.73711e-05
2.74034e-05
5.3876e-05
0.000106938
0.000186781
0.000304167
0.000448754
0.000566331
0.000630688
0.000658228
0.000670142
0.000676872
0.000681448
0.000684002
0.000684098
0.000681765
0.00067728
0.000671085
0.000663552
0.000654995
0.000645215
0.000635065
0.000626013
0.000618363
0.000611704
0.000605513
0.000599451
0.000593414
0.000587304
0.000580989
0.000574299
0.000567033
0.00055897
0.000549773
0.000539001
0.000526191
0.000510532
0.000491346
0.000464842
0.000436355
0.000361209
1.60634e-05
1.61107e-05
1.66628e-05
1.76747e-05
2.22709e-05
3.88356e-05
8.07356e-05
0.000142135
0.000209316
0.000276607
0.000341456
0.000402618
0.000458493
0.000507068
0.000547062
0.000578136
0.000601183
0.000617964
0.000630624
0.000641115
0.000651142
0.000660476
0.000667858
0.000673568
0.000678214
0.000682242
0.000685985
0.00068963
0.000693301
0.000697077
0.000701027
0.000705201
0.000709634
0.00071437
0.000719451
0.000724875
0.000730654
0.000736675
0.000742622
0.000749641
0.000733653
1.61027e-05
1.61683e-05
1.61001e-05
1.61191e-05
1.62235e-05
1.64329e-05
1.6842e-05
1.77349e-05
1.96393e-05
2.40113e-05
3.27373e-05
5.02783e-05
7.88615e-05
0.000116712
0.000160952
0.000210144
0.00026339
0.000319348
0.00037638
0.00043278
0.000487416
0.000536964
0.000579118
0.000615233
0.000646496
0.000673928
0.000698462
0.000720864
0.000741742
0.000761546
0.000780602
0.000799132
0.000817285
0.000835201
0.000852968
0.000870583
0.000888174
0.000905602
0.000923569
0.000941518
0.000948254
1.61126e-05
1.61187e-05
1.61413e-05
1.61719e-05
1.62082e-05
1.6257e-05
1.63233e-05
1.64061e-05
1.65247e-05
1.66115e-05
1.66293e-05
1.6601e-05
1.66492e-05
1.7012e-05
1.81413e-05
2.09284e-05
2.71944e-05
4.00575e-05
6.28111e-05
9.57935e-05
0.000137669
0.000184312
0.000231761
0.000279891
0.000328565
0.000377228
0.000425409
0.000472667
0.000518704
0.000563345
0.000606568
0.000648481
0.000689266
0.000729355
0.000769155
0.000809
0.000849241
0.000890778
0.000934135
0.000978926
0.00102863
1.61252e-05
1.61148e-05
1.61094e-05
1.6107e-05
1.60837e-05
1.60825e-05
1.60945e-05
1.6116e-05
1.61459e-05
1.61836e-05
1.62283e-05
1.628e-05
1.63154e-05
1.63067e-05
1.62258e-05
1.60576e-05
1.58135e-05
1.5548e-05
1.53673e-05
1.54469e-05
1.6157e-05
1.81793e-05
2.23163e-05
2.98117e-05
4.22079e-05
6.02726e-05
8.35186e-05
0.000110709
0.000140956
0.000174022
0.000210135
0.000249693
0.000293054
0.000340848
0.000393603
0.00045181
0.000515735
0.00058742
0.000667671
0.000754401
0.000879567
1.61285e-05
1.61059e-05
1.60981e-05
1.60976e-05
1.61009e-05
1.61037e-05
1.61064e-05
1.6111e-05
1.6119e-05
1.61309e-05
1.61471e-05
1.61678e-05
1.61928e-05
1.62205e-05
1.62476e-05
1.62667e-05
1.62648e-05
1.62243e-05
1.61203e-05
1.59288e-05
1.56036e-05
1.51729e-05
1.47632e-05
1.44163e-05
1.41421e-05
1.39645e-05
1.3916e-05
1.40516e-05
1.44691e-05
1.53515e-05
1.70554e-05
2.02874e-05
2.63468e-05
3.74294e-05
5.61154e-05
8.40228e-05
0.000120903
0.000168309
0.000230341
0.000304743
0.000448475
1.61203e-05
1.61044e-05
1.60935e-05
1.60901e-05
1.60899e-05
1.60838e-05
1.60756e-05
1.60732e-05
1.60747e-05
1.60786e-05
1.60845e-05
1.60926e-05
1.61029e-05
1.61152e-05
1.61295e-05
1.61456e-05
1.61637e-05
1.61834e-05
1.6203e-05
1.62192e-05
1.62226e-05
1.61976e-05
1.61459e-05
1.60717e-05
1.59712e-05
1.58413e-05
1.56765e-05
1.54708e-05
1.52168e-05
1.49086e-05
1.45425e-05
1.41203e-05
1.3656e-05
1.31737e-05
1.27258e-05
1.23959e-05
1.2345e-05
1.28573e-05
1.61073e-05
2.36813e-05
8.80611e-05
1.61145e-05
1.61013e-05
1.60913e-05
1.60872e-05
1.60859e-05
1.60858e-05
1.60858e-05
1.60849e-05
1.60833e-05
1.60822e-05
1.60822e-05
1.60833e-05
1.60856e-05
1.60893e-05
1.60939e-05
1.60993e-05
1.61055e-05
1.61127e-05
1.6121e-05
1.61309e-05
1.61432e-05
1.6158e-05
1.61728e-05
1.61863e-05
1.61983e-05
1.6208e-05
1.62144e-05
1.62159e-05
1.62096e-05
1.61912e-05
1.61532e-05
1.60835e-05
1.59655e-05
1.57648e-05
1.54464e-05
1.49604e-05
1.42852e-05
1.33211e-05
1.23361e-05
1.11469e-05
1.08377e-05
1.61088e-05
1.60983e-05
1.6091e-05
1.60856e-05
1.60835e-05
1.60828e-05
1.60818e-05
1.60791e-05
1.60762e-05
1.60727e-05
1.60719e-05
1.60724e-05
1.60737e-05
1.60756e-05
1.60782e-05
1.60814e-05
1.60851e-05
1.60891e-05
1.60934e-05
1.60981e-05
1.61031e-05
1.61084e-05
1.6114e-05
1.61198e-05
1.61258e-05
1.61322e-05
1.61389e-05
1.61462e-05
1.61542e-05
1.61632e-05
1.61735e-05
1.61855e-05
1.6199e-05
1.62129e-05
1.62232e-05
1.62193e-05
1.61779e-05
1.6051e-05
1.56898e-05
1.51386e-05
1.33054e-05
1.61038e-05
1.60958e-05
1.60899e-05
1.60859e-05
1.60827e-05
1.60816e-05
1.60811e-05
1.6081e-05
1.60793e-05
1.60773e-05
1.60752e-05
1.6073e-05
1.60708e-05
1.60684e-05
1.60668e-05
1.60664e-05
1.60665e-05
1.6067e-05
1.60677e-05
1.60686e-05
1.60697e-05
1.60711e-05
1.60726e-05
1.60742e-05
1.60759e-05
1.60775e-05
1.60793e-05
1.6081e-05
1.60828e-05
1.60847e-05
1.60869e-05
1.60895e-05
1.60929e-05
1.60979e-05
1.61055e-05
1.61177e-05
1.61363e-05
1.61742e-05
1.62027e-05
1.63073e-05
1.61113e-05
1.60993e-05
1.60936e-05
1.60888e-05
1.60853e-05
1.60827e-05
1.6081e-05
1.60803e-05
1.608e-05
1.60788e-05
1.60775e-05
1.60762e-05
1.60747e-05
1.60739e-05
1.60738e-05
1.60741e-05
1.60746e-05
1.60753e-05
1.60762e-05
1.60771e-05
1.60782e-05
1.60792e-05
1.60801e-05
1.6081e-05
1.6082e-05
1.6083e-05
1.60842e-05
1.60853e-05
1.60865e-05
1.60876e-05
1.60886e-05
1.60895e-05
1.60903e-05
1.60909e-05
1.60913e-05
1.60916e-05
1.60919e-05
1.60929e-05
1.60954e-05
1.61042e-05
1.61238e-05
1.6197e-05
1.60955e-05
1.60918e-05
1.60874e-05
1.60843e-05
1.60823e-05
1.60808e-05
1.60801e-05
1.60798e-05
1.60799e-05
1.60793e-05
1.60784e-05
1.60776e-05
1.60766e-05
1.60756e-05
1.60745e-05
1.60734e-05
1.60722e-05
1.6071e-05
1.60698e-05
1.60685e-05
1.60673e-05
1.60661e-05
1.60653e-05
1.60651e-05
1.60651e-05
1.60652e-05
1.60654e-05
1.60656e-05
1.60658e-05
1.6066e-05
1.60661e-05
1.60662e-05
1.60657e-05
1.60651e-05
1.60646e-05
1.60641e-05
1.60636e-05
1.60634e-05
1.60646e-05
1.60628e-05
1.60738e-05
1.60923e-05
1.60894e-05
1.60858e-05
1.60834e-05
1.60819e-05
1.60809e-05
1.60803e-05
1.60802e-05
1.60803e-05
1.60802e-05
1.60798e-05
1.60793e-05
1.60787e-05
1.6078e-05
1.60774e-05
1.60767e-05
1.60765e-05
1.60765e-05
1.60767e-05
1.60769e-05
1.60771e-05
1.60773e-05
1.60774e-05
1.60775e-05
1.60777e-05
1.60779e-05
1.60781e-05
1.60784e-05
1.60786e-05
1.60788e-05
1.6079e-05
1.60791e-05
1.60791e-05
1.60789e-05
1.60787e-05
1.60778e-05
1.60768e-05
1.60755e-05
1.60741e-05
1.6073e-05
1.60715e-05
1.60897e-05
1.60875e-05
1.60846e-05
1.60828e-05
1.60817e-05
1.60811e-05
1.60809e-05
1.60809e-05
1.60809e-05
1.60809e-05
1.60808e-05
1.60808e-05
1.60804e-05
1.608e-05
1.60795e-05
1.6079e-05
1.60785e-05
1.60779e-05
1.60773e-05
1.60767e-05
1.60761e-05
1.60755e-05
1.60749e-05
1.60743e-05
1.60738e-05
1.60733e-05
1.6073e-05
1.60728e-05
1.60727e-05
1.60726e-05
1.60724e-05
1.6072e-05
1.60717e-05
1.60714e-05
1.60711e-05
1.60708e-05
1.60706e-05
1.60703e-05
1.60706e-05
1.60703e-05
1.60709e-05
1.60875e-05
1.60859e-05
1.60837e-05
1.60823e-05
1.60817e-05
1.60813e-05
1.6081e-05
1.60807e-05
1.60805e-05
1.60804e-05
1.60803e-05
1.60803e-05
1.60803e-05
1.60803e-05
1.60802e-05
1.60799e-05
1.60796e-05
1.60792e-05
1.60788e-05
1.60784e-05
1.6078e-05
1.60776e-05
1.60772e-05
1.60768e-05
1.60764e-05
1.6076e-05
1.60757e-05
1.60753e-05
1.6075e-05
1.60746e-05
1.60743e-05
1.60739e-05
1.60736e-05
1.60732e-05
1.60729e-05
1.60726e-05
1.60724e-05
1.60723e-05
1.60723e-05
1.60724e-05
1.60723e-05
1.60858e-05
1.60847e-05
1.60829e-05
1.60818e-05
1.60811e-05
1.60805e-05
1.60801e-05
1.60798e-05
1.60797e-05
1.60796e-05
1.60795e-05
1.60796e-05
1.60796e-05
1.60797e-05
1.60798e-05
1.60799e-05
1.608e-05
1.60801e-05
1.60801e-05
1.60802e-05
1.60803e-05
1.60804e-05
1.60805e-05
1.60807e-05
1.60808e-05
1.60809e-05
1.60811e-05
1.60812e-05
1.60814e-05
1.60816e-05
1.60817e-05
1.60819e-05
1.6082e-05
1.60821e-05
1.60822e-05
1.60823e-05
1.60823e-05
1.60823e-05
1.60822e-05
1.60822e-05
1.60821e-05
1.60844e-05
1.60836e-05
1.60822e-05
1.60811e-05
1.60803e-05
1.60797e-05
1.60793e-05
1.60791e-05
1.6079e-05
1.6079e-05
1.6079e-05
1.60789e-05
1.60789e-05
1.60789e-05
1.60789e-05
1.60789e-05
1.60789e-05
1.60789e-05
1.60788e-05
1.60788e-05
1.60788e-05
1.60787e-05
1.60787e-05
1.60787e-05
1.60787e-05
1.60787e-05
1.60787e-05
1.60787e-05
1.60787e-05
1.60787e-05
1.60788e-05
1.60788e-05
1.60788e-05
1.60789e-05
1.60789e-05
1.6079e-05
1.60791e-05
1.60792e-05
1.60793e-05
1.60795e-05
1.60797e-05
1.60832e-05
1.60826e-05
1.60816e-05
1.60806e-05
1.608e-05
1.60796e-05
1.60794e-05
1.60792e-05
1.60791e-05
1.6079e-05
1.60788e-05
1.60787e-05
1.60786e-05
1.60784e-05
1.60783e-05
1.60782e-05
1.6078e-05
1.60779e-05
1.60778e-05
1.60777e-05
1.60775e-05
1.60774e-05
1.60773e-05
1.60772e-05
1.6077e-05
1.60769e-05
1.60768e-05
1.60767e-05
1.60766e-05
1.60765e-05
1.60764e-05
1.60763e-05
1.60762e-05
1.60761e-05
1.6076e-05
1.60759e-05
1.60758e-05
1.60757e-05
1.60757e-05
1.60756e-05
1.60757e-05
1.60822e-05
1.60817e-05
1.60808e-05
1.60802e-05
1.60797e-05
1.60795e-05
1.60794e-05
1.60793e-05
1.60793e-05
1.60792e-05
1.60791e-05
1.6079e-05
1.6079e-05
1.60789e-05
1.60789e-05
1.60788e-05
1.60788e-05
1.60787e-05
1.60787e-05
1.60787e-05
1.60788e-05
1.60788e-05
1.60788e-05
1.60789e-05
1.60789e-05
1.60788e-05
1.60787e-05
1.60787e-05
1.60786e-05
1.60785e-05
1.60785e-05
1.60784e-05
1.60784e-05
1.60783e-05
1.60783e-05
1.60782e-05
1.60781e-05
1.60781e-05
1.60781e-05
1.60781e-05
1.60781e-05
1.60815e-05
1.60811e-05
1.60803e-05
1.60798e-05
1.60795e-05
1.60793e-05
1.60793e-05
1.60792e-05
1.60792e-05
1.60792e-05
1.60793e-05
1.60793e-05
1.60793e-05
1.60793e-05
1.60794e-05
1.60794e-05
1.60794e-05
1.60794e-05
1.60795e-05
1.60795e-05
1.60795e-05
1.60796e-05
1.60796e-05
1.60796e-05
1.60797e-05
1.60797e-05
1.60797e-05
1.60797e-05
1.60797e-05
1.60796e-05
1.60796e-05
1.60796e-05
1.60796e-05
1.60795e-05
1.60795e-05
1.60796e-05
1.60796e-05
1.60796e-05
1.60796e-05
1.60796e-05
1.60796e-05
1.60809e-05
1.60805e-05
1.60799e-05
1.60795e-05
1.60793e-05
1.60792e-05
1.60791e-05
1.60791e-05
1.60792e-05
1.60792e-05
1.60792e-05
1.60793e-05
1.60793e-05
1.60794e-05
1.60794e-05
1.60795e-05
1.60795e-05
1.60795e-05
1.60796e-05
1.60796e-05
1.60797e-05
1.60797e-05
1.60798e-05
1.60798e-05
1.60799e-05
1.60799e-05
1.60799e-05
1.60799e-05
1.608e-05
1.608e-05
1.608e-05
1.608e-05
1.608e-05
1.60801e-05
1.60801e-05
1.60801e-05
1.60801e-05
1.60801e-05
1.60801e-05
1.60802e-05
1.60802e-05
1.60804e-05
1.60801e-05
1.60795e-05
1.60792e-05
1.60791e-05
1.6079e-05
1.6079e-05
1.60791e-05
1.60791e-05
1.60792e-05
1.60792e-05
1.60793e-05
1.60793e-05
1.60794e-05
1.60795e-05
1.60795e-05
1.60796e-05
1.60796e-05
1.60797e-05
1.60797e-05
1.60798e-05
1.60799e-05
1.60799e-05
1.608e-05
1.608e-05
1.60801e-05
1.60801e-05
1.60801e-05
1.60802e-05
1.60802e-05
1.60802e-05
1.60803e-05
1.60803e-05
1.60803e-05
1.60803e-05
1.60804e-05
1.60804e-05
1.60804e-05
1.60805e-05
1.60805e-05
1.60805e-05
1.608e-05
1.60797e-05
1.60792e-05
1.6079e-05
1.60789e-05
1.60789e-05
1.60789e-05
1.6079e-05
1.60791e-05
1.60791e-05
1.60792e-05
1.60793e-05
1.60793e-05
1.60794e-05
1.60795e-05
1.60795e-05
1.60796e-05
1.60797e-05
1.60797e-05
1.60798e-05
1.60799e-05
1.60799e-05
1.608e-05
1.60801e-05
1.60801e-05
1.60802e-05
1.60802e-05
1.60803e-05
1.60803e-05
1.60803e-05
1.60804e-05
1.60804e-05
1.60804e-05
1.60805e-05
1.60805e-05
1.60805e-05
1.60806e-05
1.60806e-05
1.60806e-05
1.60807e-05
1.60807e-05
1.60796e-05
1.60793e-05
1.6079e-05
1.60788e-05
1.60787e-05
1.60788e-05
1.60788e-05
1.60789e-05
1.6079e-05
1.60791e-05
1.60791e-05
1.60792e-05
1.60793e-05
1.60794e-05
1.60795e-05
1.60795e-05
1.60796e-05
1.60797e-05
1.60798e-05
1.60798e-05
1.60799e-05
1.608e-05
1.608e-05
1.60801e-05
1.60802e-05
1.60802e-05
1.60803e-05
1.60803e-05
1.60804e-05
1.60804e-05
1.60805e-05
1.60805e-05
1.60805e-05
1.60806e-05
1.60806e-05
1.60807e-05
1.60807e-05
1.60807e-05
1.60808e-05
1.60808e-05
1.60809e-05
1.60793e-05
1.6079e-05
1.60787e-05
1.60786e-05
1.60786e-05
1.60786e-05
1.60787e-05
1.60788e-05
1.60789e-05
1.6079e-05
1.60791e-05
1.60792e-05
1.60793e-05
1.60793e-05
1.60794e-05
1.60795e-05
1.60796e-05
1.60797e-05
1.60797e-05
1.60798e-05
1.60799e-05
1.608e-05
1.608e-05
1.60801e-05
1.60802e-05
1.60802e-05
1.60803e-05
1.60804e-05
1.60804e-05
1.60805e-05
1.60805e-05
1.60806e-05
1.60806e-05
1.60806e-05
1.60807e-05
1.60807e-05
1.60808e-05
1.60808e-05
1.60808e-05
1.60809e-05
1.60809e-05
1.60789e-05
1.60787e-05
1.60785e-05
1.60784e-05
1.60784e-05
1.60785e-05
1.60786e-05
1.60787e-05
1.60788e-05
1.60789e-05
1.6079e-05
1.60791e-05
1.60792e-05
1.60793e-05
1.60794e-05
1.60795e-05
1.60795e-05
1.60796e-05
1.60797e-05
1.60798e-05
1.60799e-05
1.60799e-05
1.608e-05
1.60801e-05
1.60802e-05
1.60802e-05
1.60803e-05
1.60804e-05
1.60804e-05
1.60805e-05
1.60805e-05
1.60806e-05
1.60806e-05
1.60807e-05
1.60807e-05
1.60808e-05
1.60808e-05
1.60808e-05
1.60809e-05
1.60809e-05
1.60809e-05
1.60786e-05
1.60784e-05
1.60782e-05
1.60782e-05
1.60783e-05
1.60784e-05
1.60785e-05
1.60786e-05
1.60787e-05
1.60788e-05
1.60789e-05
1.6079e-05
1.60791e-05
1.60792e-05
1.60793e-05
1.60794e-05
1.60795e-05
1.60795e-05
1.60796e-05
1.60797e-05
1.60798e-05
1.60799e-05
1.608e-05
1.608e-05
1.60801e-05
1.60802e-05
1.60803e-05
1.60803e-05
1.60804e-05
1.60804e-05
1.60805e-05
1.60805e-05
1.60806e-05
1.60806e-05
1.60807e-05
1.60807e-05
1.60808e-05
1.60808e-05
1.60809e-05
1.60809e-05
1.60809e-05
1.60783e-05
1.60781e-05
1.6078e-05
1.6078e-05
1.60781e-05
1.60782e-05
1.60783e-05
1.60784e-05
1.60785e-05
1.60786e-05
1.60787e-05
1.60789e-05
1.6079e-05
1.60791e-05
1.60792e-05
1.60793e-05
1.60793e-05
1.60794e-05
1.60795e-05
1.60796e-05
1.60797e-05
1.60798e-05
1.60799e-05
1.608e-05
1.608e-05
1.60801e-05
1.60802e-05
1.60802e-05
1.60803e-05
1.60804e-05
1.60804e-05
1.60805e-05
1.60805e-05
1.60806e-05
1.60806e-05
1.60807e-05
1.60807e-05
1.60808e-05
1.60808e-05
1.60809e-05
1.60809e-05
1.6078e-05
1.60779e-05
1.60778e-05
1.60778e-05
1.60779e-05
1.6078e-05
1.60781e-05
1.60782e-05
1.60784e-05
1.60785e-05
1.60786e-05
1.60787e-05
1.60788e-05
1.60789e-05
1.6079e-05
1.60791e-05
1.60792e-05
1.60793e-05
1.60794e-05
1.60795e-05
1.60796e-05
1.60797e-05
1.60798e-05
1.60798e-05
1.60799e-05
1.608e-05
1.60801e-05
1.60801e-05
1.60802e-05
1.60803e-05
1.60803e-05
1.60804e-05
1.60804e-05
1.60805e-05
1.60805e-05
1.60806e-05
1.60806e-05
1.60807e-05
1.60807e-05
1.60808e-05
1.60808e-05
1.60776e-05
1.60776e-05
1.60775e-05
1.60776e-05
1.60777e-05
1.60778e-05
1.60779e-05
1.6078e-05
1.60782e-05
1.60783e-05
1.60784e-05
1.60785e-05
1.60786e-05
1.60787e-05
1.60788e-05
1.60789e-05
1.6079e-05
1.60791e-05
1.60792e-05
1.60793e-05
1.60794e-05
1.60795e-05
1.60796e-05
1.60797e-05
1.60798e-05
1.60798e-05
1.60799e-05
1.608e-05
1.60801e-05
1.60801e-05
1.60802e-05
1.60802e-05
1.60803e-05
1.60803e-05
1.60804e-05
1.60804e-05
1.60805e-05
1.60805e-05
1.60806e-05
1.60806e-05
1.60807e-05
1.60773e-05
1.60773e-05
1.60773e-05
1.60774e-05
1.60775e-05
1.60776e-05
1.60777e-05
1.60778e-05
1.60779e-05
1.6078e-05
1.60782e-05
1.60783e-05
1.60784e-05
1.60785e-05
1.60786e-05
1.60787e-05
1.60788e-05
1.60789e-05
1.6079e-05
1.60791e-05
1.60792e-05
1.60793e-05
1.60794e-05
1.60795e-05
1.60796e-05
1.60797e-05
1.60797e-05
1.60798e-05
1.60799e-05
1.60799e-05
1.608e-05
1.60801e-05
1.60801e-05
1.60802e-05
1.60802e-05
1.60803e-05
1.60803e-05
1.60804e-05
1.60804e-05
1.60805e-05
1.60805e-05
1.6077e-05
1.6077e-05
1.6077e-05
1.60771e-05
1.60772e-05
1.60773e-05
1.60774e-05
1.60775e-05
1.60777e-05
1.60778e-05
1.60779e-05
1.6078e-05
1.60781e-05
1.60783e-05
1.60784e-05
1.60785e-05
1.60786e-05
1.60787e-05
1.60788e-05
1.60789e-05
1.6079e-05
1.60791e-05
1.60792e-05
1.60793e-05
1.60794e-05
1.60794e-05
1.60795e-05
1.60796e-05
1.60796e-05
1.60797e-05
1.60798e-05
1.60798e-05
1.60799e-05
1.60799e-05
1.608e-05
1.608e-05
1.60801e-05
1.60801e-05
1.60802e-05
1.60802e-05
1.60803e-05
1.60767e-05
1.60767e-05
1.60767e-05
1.60768e-05
1.60769e-05
1.6077e-05
1.60771e-05
1.60772e-05
1.60774e-05
1.60775e-05
1.60776e-05
1.60777e-05
1.60778e-05
1.6078e-05
1.60781e-05
1.60782e-05
1.60783e-05
1.60784e-05
1.60785e-05
1.60786e-05
1.60787e-05
1.60788e-05
1.60789e-05
1.6079e-05
1.60791e-05
1.60792e-05
1.60792e-05
1.60793e-05
1.60794e-05
1.60794e-05
1.60795e-05
1.60796e-05
1.60796e-05
1.60797e-05
1.60797e-05
1.60798e-05
1.60798e-05
1.60799e-05
1.60799e-05
1.608e-05
1.608e-05
1.60763e-05
1.60764e-05
1.60764e-05
1.60765e-05
1.60766e-05
1.60767e-05
1.60768e-05
1.60769e-05
1.6077e-05
1.60771e-05
1.60773e-05
1.60774e-05
1.60775e-05
1.60776e-05
1.60777e-05
1.60779e-05
1.6078e-05
1.60781e-05
1.60782e-05
1.60783e-05
1.60784e-05
1.60785e-05
1.60786e-05
1.60787e-05
1.60788e-05
1.60789e-05
1.60789e-05
1.6079e-05
1.60791e-05
1.60791e-05
1.60792e-05
1.60793e-05
1.60793e-05
1.60794e-05
1.60794e-05
1.60795e-05
1.60795e-05
1.60796e-05
1.60796e-05
1.60796e-05
1.60797e-05
1.6076e-05
1.6076e-05
1.60761e-05
1.60761e-05
1.60762e-05
1.60763e-05
1.60764e-05
1.60765e-05
1.60766e-05
1.60768e-05
1.60769e-05
1.6077e-05
1.60771e-05
1.60773e-05
1.60774e-05
1.60775e-05
1.60776e-05
1.60777e-05
1.60778e-05
1.60779e-05
1.6078e-05
1.60781e-05
1.60782e-05
1.60783e-05
1.60784e-05
1.60785e-05
1.60786e-05
1.60786e-05
1.60787e-05
1.60788e-05
1.60788e-05
1.60789e-05
1.60789e-05
1.6079e-05
1.6079e-05
1.60791e-05
1.60791e-05
1.60792e-05
1.60792e-05
1.60793e-05
1.60793e-05
1.60756e-05
1.60756e-05
1.60757e-05
1.60758e-05
1.60758e-05
1.60759e-05
1.6076e-05
1.60761e-05
1.60762e-05
1.60763e-05
1.60765e-05
1.60766e-05
1.60767e-05
1.60768e-05
1.6077e-05
1.60771e-05
1.60772e-05
1.60773e-05
1.60774e-05
1.60775e-05
1.60776e-05
1.60777e-05
1.60778e-05
1.60779e-05
1.6078e-05
1.60781e-05
1.60782e-05
1.60782e-05
1.60783e-05
1.60784e-05
1.60784e-05
1.60785e-05
1.60785e-05
1.60786e-05
1.60786e-05
1.60787e-05
1.60787e-05
1.60787e-05
1.60788e-05
1.60788e-05
1.60788e-05
1.60752e-05
1.60752e-05
1.60753e-05
1.60753e-05
1.60754e-05
1.60755e-05
1.60756e-05
1.60757e-05
1.60758e-05
1.60759e-05
1.6076e-05
1.60761e-05
1.60762e-05
1.60764e-05
1.60765e-05
1.60766e-05
1.60767e-05
1.60768e-05
1.60769e-05
1.60771e-05
1.60772e-05
1.60773e-05
1.60773e-05
1.60774e-05
1.60775e-05
1.60776e-05
1.60777e-05
1.60777e-05
1.60778e-05
1.60779e-05
1.60779e-05
1.6078e-05
1.6078e-05
1.60781e-05
1.60781e-05
1.60782e-05
1.60782e-05
1.60782e-05
1.60783e-05
1.60783e-05
1.60783e-05
1.60747e-05
1.60748e-05
1.60748e-05
1.60749e-05
1.60749e-05
1.6075e-05
1.60751e-05
1.60752e-05
1.60753e-05
1.60754e-05
1.60755e-05
1.60756e-05
1.60757e-05
1.60758e-05
1.6076e-05
1.60761e-05
1.60762e-05
1.60763e-05
1.60764e-05
1.60765e-05
1.60766e-05
1.60767e-05
1.60768e-05
1.60769e-05
1.6077e-05
1.6077e-05
1.60771e-05
1.60772e-05
1.60772e-05
1.60773e-05
1.60774e-05
1.60774e-05
1.60774e-05
1.60775e-05
1.60775e-05
1.60776e-05
1.60776e-05
1.60776e-05
1.60777e-05
1.60777e-05
1.60777e-05
1.60742e-05
1.60743e-05
1.60744e-05
1.60744e-05
1.60744e-05
1.60745e-05
1.60746e-05
1.60746e-05
1.60747e-05
1.60748e-05
1.60749e-05
1.6075e-05
1.60751e-05
1.60752e-05
1.60754e-05
1.60755e-05
1.60756e-05
1.60757e-05
1.60758e-05
1.60759e-05
1.6076e-05
1.60761e-05
1.60762e-05
1.60763e-05
1.60763e-05
1.60764e-05
1.60765e-05
1.60765e-05
1.60766e-05
1.60766e-05
1.60767e-05
1.60767e-05
1.60768e-05
1.60768e-05
1.60769e-05
1.60769e-05
1.60769e-05
1.60769e-05
1.6077e-05
1.6077e-05
1.6077e-05
1.60737e-05
1.60738e-05
1.60738e-05
1.60739e-05
1.60739e-05
1.60739e-05
1.6074e-05
1.6074e-05
1.60741e-05
1.60742e-05
1.60743e-05
1.60744e-05
1.60745e-05
1.60746e-05
1.60747e-05
1.60748e-05
1.60749e-05
1.6075e-05
1.60751e-05
1.60752e-05
1.60753e-05
1.60754e-05
1.60755e-05
1.60755e-05
1.60756e-05
1.60757e-05
1.60757e-05
1.60758e-05
1.60758e-05
1.60759e-05
1.60759e-05
1.6076e-05
1.6076e-05
1.60761e-05
1.60761e-05
1.60761e-05
1.60761e-05
1.60762e-05
1.60762e-05
1.60762e-05
1.60762e-05
1.60732e-05
1.60733e-05
1.60733e-05
1.60733e-05
1.60733e-05
1.60733e-05
1.60734e-05
1.60734e-05
1.60735e-05
1.60735e-05
1.60736e-05
1.60737e-05
1.60738e-05
1.60739e-05
1.6074e-05
1.60741e-05
1.60742e-05
1.60742e-05
1.60743e-05
1.60744e-05
1.60745e-05
1.60746e-05
1.60747e-05
1.60747e-05
1.60748e-05
1.60748e-05
1.60749e-05
1.6075e-05
1.6075e-05
1.6075e-05
1.60751e-05
1.60751e-05
1.60751e-05
1.60752e-05
1.60752e-05
1.60752e-05
1.60752e-05
1.60753e-05
1.60753e-05
1.60753e-05
1.60753e-05
1.60726e-05
1.60727e-05
1.60727e-05
1.60727e-05
1.60727e-05
1.60727e-05
1.60727e-05
1.60727e-05
1.60728e-05
1.60728e-05
1.60729e-05
1.60729e-05
1.6073e-05
1.60731e-05
1.60732e-05
1.60732e-05
1.60733e-05
1.60734e-05
1.60735e-05
1.60735e-05
1.60736e-05
1.60737e-05
1.60737e-05
1.60738e-05
1.60739e-05
1.60739e-05
1.6074e-05
1.6074e-05
1.6074e-05
1.60741e-05
1.60741e-05
1.60741e-05
1.60742e-05
1.60742e-05
1.60742e-05
1.60742e-05
1.60742e-05
1.60742e-05
1.60742e-05
1.60743e-05
1.60743e-05
1.6072e-05
1.6072e-05
1.6072e-05
1.6072e-05
1.6072e-05
1.6072e-05
1.6072e-05
1.6072e-05
1.6072e-05
1.6072e-05
1.60721e-05
1.60721e-05
1.60722e-05
1.60722e-05
1.60723e-05
1.60723e-05
1.60724e-05
1.60725e-05
1.60725e-05
1.60726e-05
1.60726e-05
1.60727e-05
1.60727e-05
1.60728e-05
1.60728e-05
1.60728e-05
1.60729e-05
1.60729e-05
1.60729e-05
1.6073e-05
1.6073e-05
1.6073e-05
1.6073e-05
1.6073e-05
1.6073e-05
1.6073e-05
1.6073e-05
1.6073e-05
1.6073e-05
1.6073e-05
1.6073e-05
1.60713e-05
1.60714e-05
1.60713e-05
1.60713e-05
1.60713e-05
1.60712e-05
1.60712e-05
1.60712e-05
1.60712e-05
1.60712e-05
1.60713e-05
1.60713e-05
1.60713e-05
1.60713e-05
1.60713e-05
1.60714e-05
1.60714e-05
1.60714e-05
1.60715e-05
1.60715e-05
1.60715e-05
1.60715e-05
1.60716e-05
1.60716e-05
1.60716e-05
1.60716e-05
1.60716e-05
1.60717e-05
1.60717e-05
1.60717e-05
1.60717e-05
1.60717e-05
1.60717e-05
1.60717e-05
1.60717e-05
1.60717e-05
1.60717e-05
1.60717e-05
1.60717e-05
1.60717e-05
1.60717e-05
1.60706e-05
1.60706e-05
1.60706e-05
1.60705e-05
1.60705e-05
1.60705e-05
1.60705e-05
1.60704e-05
1.60704e-05
1.60704e-05
1.60704e-05
1.60704e-05
1.60704e-05
1.60704e-05
1.60704e-05
1.60704e-05
1.60704e-05
1.60703e-05
1.60703e-05
1.60703e-05
1.60703e-05
1.60703e-05
1.60703e-05
1.60703e-05
1.60703e-05
1.60703e-05
1.60703e-05
1.60703e-05
1.60703e-05
1.60703e-05
1.60703e-05
1.60702e-05
1.60702e-05
1.60702e-05
1.60702e-05
1.60702e-05
1.60701e-05
1.60701e-05
1.60701e-05
1.607e-05
1.607e-05
1.60698e-05
1.60698e-05
1.60698e-05
1.60698e-05
1.60697e-05
1.60697e-05
1.60697e-05
1.60696e-05
1.60696e-05
1.60696e-05
1.60696e-05
1.60695e-05
1.60695e-05
1.60694e-05
1.60694e-05
1.60694e-05
1.60693e-05
1.60693e-05
1.60692e-05
1.60692e-05
1.60691e-05
1.60691e-05
1.6069e-05
1.6069e-05
1.6069e-05
1.60689e-05
1.60689e-05
1.60689e-05
1.60689e-05
1.60688e-05
1.60688e-05
1.60688e-05
1.60688e-05
1.60688e-05
1.60688e-05
1.60688e-05
1.60688e-05
1.60688e-05
1.60688e-05
1.60688e-05
1.60688e-05
1.6069e-05
1.6069e-05
1.6069e-05
1.6069e-05
1.60689e-05
1.60689e-05
1.60689e-05
1.60689e-05
1.60688e-05
1.60688e-05
1.60688e-05
1.60687e-05
1.60686e-05
1.60686e-05
1.60685e-05
1.60684e-05
1.60684e-05
1.60683e-05
1.60683e-05
1.60683e-05
1.60683e-05
1.60683e-05
1.60683e-05
1.60683e-05
1.60683e-05
1.60684e-05
1.60684e-05
1.60684e-05
1.60685e-05
1.60685e-05
1.60686e-05
1.60686e-05
1.60686e-05
1.60687e-05
1.60687e-05
1.60688e-05
1.60688e-05
1.60688e-05
1.60689e-05
1.60689e-05
1.60689e-05
1.60681e-05
1.60681e-05
1.60681e-05
1.60681e-05
1.60681e-05
1.60681e-05
1.60681e-05
1.60681e-05
1.60681e-05
1.6068e-05
1.6068e-05
1.6068e-05
1.6068e-05
1.60679e-05
1.60678e-05
1.60678e-05
1.60678e-05
1.60678e-05
1.60679e-05
1.6068e-05
1.60682e-05
1.60683e-05
1.60685e-05
1.60686e-05
1.60688e-05
1.6069e-05
1.60692e-05
1.60694e-05
1.60695e-05
1.60697e-05
1.60699e-05
1.60701e-05
1.60702e-05
1.60704e-05
1.60705e-05
1.60707e-05
1.60708e-05
1.60709e-05
1.6071e-05
1.60711e-05
1.60712e-05
0.000632094
0.000833958
0.000978651
0.0010872
0.00117213
0.00124065
0.0012974
0.00134552
0.0013872
0.00142398
0.00145702
0.00148716
0.00151498
0.0015409
0.00156526
0.00158831
0.00161008
0.00163062
0.00164986
0.00166765
0.00168424
0.00170282
0.00172237
0.00174187
0.00176056
0.00177789
0.00179318
0.00180624
0.00181775
0.0018276
0.00183511
0.00183947
0.00183983
0.00183545
0.00182593
0.00181083
0.00178958
0.00176151
0.00172585
0.00168185
0.00162883
0.00156618
0.00149333
0.00140979
0.00131521
0.00120949
0.00109292
0.000966432
0.000831869
0.000692247
0.00055194
0.000416542
0.000292052
0.000182708
8.77704e-05
2.24065e-05
1.04217e-05
1.00244e-05
1.00632e-05
1.05355e-05
1.23491e-05
1.54015e-05
1.80858e-05
1.92885e-05
1.91207e-05
1.82464e-05
1.72565e-05
1.64632e-05
1.5954e-05
1.57021e-05
1.56408e-05
1.57021e-05
1.58097e-05
1.60033e-05
0.000911815
0.0010508
0.00114782
0.00121994
0.00127763
0.00132578
0.00136709
0.00140341
0.00143607
0.00146597
0.00149379
0.00151998
0.00154488
0.00156868
0.00159148
0.00161329
0.00163416
0.00165413
0.00167307
0.00169079
0.00170709
0.00172297
0.00173882
0.00175444
0.00176941
0.00178332
0.00179542
0.00180724
0.00182173
0.0018373
0.00185241
0.00186597
0.00187689
0.0018849
0.00189038
0.00189303
0.00189207
0.00188658
0.00187554
0.00185816
0.00183387
0.00180208
0.00176213
0.0017133
0.00165483
0.00158599
0.00150614
0.00141482
0.00131179
0.00119715
0.0010716
0.000936687
0.0007951
0.000650864
0.000509278
0.000376366
0.000257559
0.000155118
6.72385e-05
1.68429e-05
1.02082e-05
1.00131e-05
1.00371e-05
1.03311e-05
1.15864e-05
1.40819e-05
1.68553e-05
1.87556e-05
1.94139e-05
1.91103e-05
1.83238e-05
1.74404e-05
1.67182e-05
1.59836e-05
0.00105187
0.00113945
0.00120152
0.00124656
0.00128214
0.00131252
0.00134018
0.00136659
0.00139254
0.00141844
0.00144448
0.00147073
0.0014972
0.00152381
0.00155045
0.00157697
0.00160317
0.00162879
0.00165366
0.00167769
0.00170056
0.00172224
0.00174286
0.00176244
0.00178082
0.00179776
0.00181279
0.00182596
0.00183842
0.00185057
0.00186212
0.00187254
0.00188068
0.00188918
0.00190065
0.00191317
0.00192483
0.00193427
0.00194005
0.0019421
0.00194048
0.00193464
0.00192368
0.00190662
0.00188239
0.0018501
0.00180903
0.0017585
0.00169778
0.00162614
0.00154293
0.00144765
0.00134012
0.0012207
0.00109052
0.000951695
0.000807521
0.000662425
0.000521693
0.000390801
0.00027431
0.00017403
8.74258e-05
2.53437e-05
1.06859e-05
1.00126e-05
1.00028e-05
1.00307e-05
1.03109e-05
1.14293e-05
1.36613e-05
1.63259e-05
1.85192e-05
1.97797e-05
0.00105573
0.00107051
0.00107698
0.00108217
0.00108974
0.0011003
0.0011141
0.00113143
0.00115232
0.00117663
0.00120413
0.00123454
0.0012675
0.00130264
0.00133954
0.0013778
0.00141697
0.00145661
0.0014963
0.0015355
0.00157382
0.00161101
0.0016469
0.00168126
0.00171385
0.00174446
0.00177283
0.00179872
0.00182223
0.00184358
0.00186282
0.00187988
0.00189421
0.00190605
0.00191664
0.00192642
0.0019351
0.00194223
0.00194607
0.00195232
0.00196143
0.00197114
0.00197938
0.00198463
0.00198526
0.00198111
0.00197195
0.00195712
0.00193565
0.00190649
0.00186853
0.00182077
0.00176234
0.00169251
0.00161065
0.00151642
0.00140981
0.00129142
0.00116258
0.0010255
0.000883354
0.000740096
0.000600245
0.000468417
0.000348682
0.000243664
0.000153114
7.40534e-05
2.12174e-05
1.04116e-05
1.00021e-05
1e-05
1.00003e-05
1.0137e-05
0.000844909
0.000797291
0.000754396
0.000721029
0.000698224
0.000684254
0.000677768
0.000678244
0.000685395
0.000698999
0.000718916
0.000745049
0.000777275
0.00081539
0.000859085
0.00090792
0.000961312
0.00101854
0.00107875
0.00114102
0.00120438
0.00126777
0.00133036
0.00139111
0.00144946
0.00150538
0.00155891
0.00160996
0.00165833
0.00170382
0.00174616
0.0017851
0.0018203
0.00185151
0.00187881
0.00190255
0.00192295
0.00194022
0.00195374
0.00196458
0.00197398
0.0019823
0.00198914
0.00199408
0.00199488
0.00199914
0.00200616
0.00201347
0.00201885
0.00202062
0.00201714
0.00200766
0.00199173
0.00196865
0.00193746
0.00189709
0.0018465
0.00178471
0.00171103
0.00162511
0.00152703
0.00141736
0.00129727
0.00116856
0.0010337
0.000895704
0.000758065
0.000624472
0.000498532
0.000383324
0.000281163
0.000191309
0.000117953
2.57398e-05
0.000417125
0.000368078
0.00032373
0.000287543
0.000259549
0.000238025
0.000221527
0.000209355
0.000201173
0.000196833
0.000196356
0.000199911
0.000207777
0.000220324
0.000238007
0.000261361
0.000290987
0.000327526
0.000371598
0.000423721
0.00048422
0.000553135
0.000630059
0.000714515
0.000805294
0.000900727
0.000997828
0.00109407
0.00118741
0.0012763
0.00135978
0.00143739
0.0015091
0.00157515
0.00163591
0.00169178
0.00174307
0.00178998
0.00183236
0.00187006
0.00190312
0.00193175
0.00195607
0.00197623
0.00199155
0.00200341
0.00201316
0.0020213
0.0020276
0.00203166
0.00203158
0.00203296
0.00203728
0.00204232
0.00204571
0.00204542
0.00203983
0.00202726
0.00200697
0.00197831
0.00194058
0.00189298
0.00183483
0.00176561
0.00168513
0.00159353
0.00149142
0.00137985
0.00126044
0.00113498
0.0010069
0.000874023
0.000761727
0.00056848
7.21777e-05
4.82617e-05
3.03173e-05
1.9976e-05
1.48992e-05
1.25128e-05
1.13677e-05
1.07971e-05
1.04999e-05
1.03378e-05
1.0246e-05
1.0193e-05
1.01634e-05
1.01502e-05
1.01515e-05
1.01705e-05
1.02189e-05
1.03278e-05
1.05803e-05
1.12095e-05
1.28779e-05
1.73465e-05
2.83123e-05
5.02322e-05
8.39424e-05
0.000126277
0.000176594
0.000236143
0.000306502
0.000388592
0.000482368
0.000586434
0.000698473
0.000815583
0.000934599
0.00105242
0.00116631
0.00127411
0.00137432
0.0014661
0.0015492
0.00162386
0.00169063
0.00175021
0.00180308
0.00184967
0.00189052
0.00192614
0.00195682
0.00198277
0.00200349
0.00201973
0.00203276
0.00204333
0.00205154
0.00205697
0.00205933
0.00205635
0.00205572
0.00205724
0.00205863
0.00205758