/*--------------------------------*- C++ -*----------------------------------*\
| =========                 |                                                 |
| \\      /  F ield         | OpenFOAM: The Open Source CFD Toolbox           |
|  \\    /   O peration     | Version:  2312                                  |
|   \\  /    A nd           | Website:  www.openfoam.com                      |
|    \\/     M anipulation  |                                                 |
\*---------------------------------------------------------------------------*/
FoamFile
{
    version     2.0;
    format      ascii;
    arch        "LSB;label=32;scalar=64";
    class       volScalarField;
    location    "249";
    object      turbulenceProperties:epsilon;
}
// * * * * * * * * * * * * * * * * * * * * * * * * * * * * * * * * * * * * * //

dimensions      [0 2 -3 0 0 0 0];

internalField   nonuniform List<scalar> 
11040
(
6.05075
36.9777
137.29
333.412
622.773
1039.73
1539.49
1929.14
2124.58
2190.56
2201.58
2190.64
2165.86
2126.19
2069.46
1996.52
1909.58
1811.42
1704.36
1590.1
1467.36
1343.01
1229.87
1132.59
1047.66
970.416
898.714
831.748
768.827
709.197
652.155
597.042
543.287
490.204
437.064
383.515
328.799
273.536
213.202
160.998
80.396
0.795046
1.1265
1.38036
1.24802
1.40407
2.44204
4.65821
7.37017
9.99398
12.1612
13.6575
14.5595
15.0518
15.3463
15.6595
16.0718
16.5796
17.125
17.6567
18.1334
18.6246
18.9466
18.7818
18.1902
17.4567
16.742
16.0894
15.4934
14.9502
14.4578
14.0183
13.6367
13.3179
13.074
12.9257
12.8971
13.025
13.3684
14.073
15.2024
19.1308
0.367625
0.224004
0.0912469
0.0977422
0.129488
0.130309
0.113306
0.0922943
0.071959
0.0545215
0.0346385
0.0158768
0.0213797
0.100558
0.30337
0.662564
1.19052
1.87965
2.70534
3.62687
4.60774
5.59802
6.50146
7.22528
7.75518
8.12255
8.35213
8.47079
8.50459
8.47633
8.40302
8.29885
8.17583
8.04181
7.90896
7.78953
7.71215
7.66939
7.85103
7.98337
10.3505
0.158765
0.14449
0.125782
0.11198
0.0923885
0.0695595
0.0499541
0.0349894
0.0236934
0.0150646
0.00884997
0.00473892
0.00231875
0.00107325
0.000586619
0.000756024
0.00217367
0.00705093
0.0205497
0.0511461
0.11283
0.219178
0.369189
0.557381
0.780681
1.0358
1.31669
1.61547
1.92507
2.23959
2.55473
2.86817
3.17915
3.49005
3.80628
4.1335
4.48809
4.87075
5.40272
5.85634
7.65424
0.0715957
0.0721081
0.0613021
0.0428849
0.025623
0.0159302
0.0122084
0.0110909
0.0105813
0.00984304
0.0087826
0.00755434
0.00626694
0.00506941
0.00402619
0.00314492
0.00241235
0.00181362
0.0013351
0.000963896
0.000674898
0.000430324
0.000235868
0.000278857
0.00111267
0.00388239
0.0102769
0.0222704
0.0420787
0.0722511
0.115811
0.176451
0.258668
0.368805
0.5156
0.710767
0.972134
1.32493
1.84631
2.46116
4.07903
0.0320588
0.0348888
0.0345454
0.0313184
0.0263064
0.0210845
0.0164578
0.0126916
0.00974498
0.00745332
0.00566672
0.00426587
0.00313337
0.00223304
0.00154969
0.00104997
0.000698056
0.000462539
0.000314493
0.000230475
0.000185465
0.000155675
0.00012942
0.000109336
9.67828e-05
8.89124e-05
8.46089e-05
8.50821e-05
9.38704e-05
0.000119114
0.0001815
0.000336867
0.000735285
0.0017694
0.00435117
0.010379
0.0236458
0.0522073
0.11875
0.236179
0.698913
0.0147819
0.0166796
0.0175876
0.0172044
0.0150253
0.0118046
0.00864177
0.00617431
0.00449184
0.0034308
0.0027869
0.00239595
0.00214193
0.00194217
0.00175595
0.00157404
0.00139757
0.00123046
0.00107557
0.000933667
0.000801772
0.00067079
0.000546077
0.000445519
0.00037423
0.000322317
0.000281562
0.000248225
0.00022014
0.000195488
0.000172875
0.000151367
0.000130604
0.000111008
9.40705e-05
8.36928e-05
8.68676e-05
0.000128758
0.000421959
0.00143522
0.0206183
0.00693995
0.00795695
0.00868356
0.0092185
0.00907225
0.00827232
0.00713896
0.00595366
0.00486722
0.00393276
0.00315562
0.0025227
0.00201418
0.00160427
0.00127
0.00100185
0.000789715
0.000622781
0.000491963
0.000390117
0.000311409
0.000250057
0.000202112
0.00016748
0.00014578
0.000133457
0.000126948
0.000124307
0.000124707
0.000127656
0.000132753
0.000139579
0.000147548
0.000155575
0.000161753
0.000163203
0.000155488
0.000131368
0.000101914
4.63826e-05
5.37603e-05
0.00331217
0.00382912
0.00420819
0.00465322
0.00488508
0.00477033
0.00435695
0.00376762
0.00312889
0.00253058
0.00202187
0.00161483
0.00130435
0.00107864
0.000920146
0.000807354
0.000722094
0.000653307
0.000594287
0.000540726
0.000488457
0.000435462
0.000382875
0.000335086
0.000297067
0.000268403
0.000246252
0.000228759
0.000215164
0.000205029
0.000197997
0.000193841
0.000192437
0.000193816
0.000197912
0.000204614
0.000212935
0.000219252
0.000221703
0.0001958
0.000141726
0.00159611
0.00185723
0.00202947
0.00228973
0.00252079
0.00263624
0.00261629
0.0024798
0.00226337
0.00200773
0.00174484
0.00149394
0.00126599
0.00106656
0.000895503
0.000749415
0.000625497
0.000521937
0.000435981
0.000364315
0.000304989
0.000256353
0.000215951
0.000183184
0.000158592
0.000141173
0.000129039
0.000120719
0.00011543
0.000112747
0.000112392
0.000114178
0.00011801
0.000123921
0.000131952
0.000142148
0.000154538
0.000168556
0.000184914
0.000196041
0.00020287
0.000774492
0.000906755
0.000980119
0.00111049
0.00125264
0.00136465
0.0014267
0.00143007
0.00137664
0.00127852
0.0011529
0.00101568
0.000879722
0.000754482
0.000645496
0.000554966
0.000482214
0.000424261
0.000377349
0.000338257
0.000304074
0.000273697
0.000246572
0.000222424
0.000202326
0.000186567
0.000174383
0.000164847
0.000157375
0.000151641
0.000147409
0.000144473
0.000142663
0.000141805
0.000141735
0.000142251
0.000143122
0.000143619
0.000143965
0.000140687
0.000139512
0.000377498
0.000444274
0.00047472
0.000536112
0.000611166
0.000682892
0.000742655
0.000783179
0.000799368
0.00079036
0.000759789
0.00071306
0.00065595
0.000594042
0.000531767
0.000472008
0.000416252
0.000365057
0.000318711
0.000277239
0.000240849
0.000209939
0.000183746
0.000161417
0.000143015
0.000128414
0.000117065
0.000108303
0.000101626
9.67018e-05
9.32877e-05
9.11803e-05
9.0198e-05
9.02e-05
9.10193e-05
9.24165e-05
9.4088e-05
9.55765e-05
9.63908e-05
9.48549e-05
9.26873e-05
0.000184553
0.000217937
0.000230551
0.000258664
0.00029533
0.000333824
0.000371287
0.000404433
0.000429404
0.000443309
0.00044518
0.000435661
0.000416506
0.00039028
0.000359786
0.000327623
0.000295955
0.000266239
0.000239275
0.000215138
0.000193534
0.000174742
0.000158623
0.000144598
0.000132695
0.000122914
0.000115035
0.000108719
0.000103643
9.95539e-05
9.62473e-05
9.35359e-05
9.12479e-05
8.91882e-05
8.71735e-05
8.50179e-05
8.25161e-05
7.93966e-05
7.54498e-05
7.01057e-05
6.48007e-05
9.03396e-05
0.00010684
0.000112154
0.000124904
0.000142182
0.00016128
0.000181516
0.000201872
0.000220674
0.00023617
0.000247094
0.000252755
0.000253003
0.000248254
0.000239318
0.000227216
0.000212979
0.000197488
0.000181432
0.000165306
0.000149669
0.000135359
0.000122612
0.000111191
0.000101154
9.25188e-05
8.5191e-05
7.90036e-05
7.37857e-05
6.93872e-05
6.56776e-05
6.25368e-05
5.9857e-05
5.75373e-05
5.5471e-05
5.35404e-05
5.1615e-05
4.95767e-05
4.72557e-05
4.43557e-05
4.15457e-05
4.42299e-05
5.22551e-05
5.45706e-05
6.03415e-05
6.83268e-05
7.74021e-05
8.74654e-05
9.82922e-05
0.00010929
0.000119686
0.000128739
0.000135833
0.000140508
0.000142531
0.00014192
0.000138916
0.000133935
0.000127464
0.000120002
0.000111974
0.000103736
9.58979e-05
8.87521e-05
8.22039e-05
7.63252e-05
7.11496e-05
6.66535e-05
6.27682e-05
5.9402e-05
5.64626e-05
5.38629e-05
5.15123e-05
4.93241e-05
4.72071e-05
4.50804e-05
4.2881e-05
4.05465e-05
3.80139e-05
3.52518e-05
3.21776e-05
2.93721e-05
2.16511e-05
2.54795e-05
2.65374e-05
2.91472e-05
3.2787e-05
3.69935e-05
4.17848e-05
4.7145e-05
5.28999e-05
5.87752e-05
6.44644e-05
6.96623e-05
7.40733e-05
7.74473e-05
7.96172e-05
8.05178e-05
8.01819e-05
7.87174e-05
7.6285e-05
7.30656e-05
6.92626e-05
6.52471e-05
6.12515e-05
5.7316e-05
5.35534e-05
5.00291e-05
4.67662e-05
4.37621e-05
4.10006e-05
3.8455e-05
3.60945e-05
3.38938e-05
3.18269e-05
2.98669e-05
2.79926e-05
2.61855e-05
2.44248e-05
2.27011e-05
2.0989e-05
1.92601e-05
1.7716e-05
1.06652e-05
1.24578e-05
1.29742e-05
1.41608e-05
1.58099e-05
1.77382e-05
1.99694e-05
2.25179e-05
2.53372e-05
2.83391e-05
3.14132e-05
3.44365e-05
3.72697e-05
3.97684e-05
4.18032e-05
4.32764e-05
4.41312e-05
4.43531e-05
4.39675e-05
4.303e-05
4.16038e-05
3.98803e-05
3.80278e-05
3.60958e-05
3.41636e-05
3.22839e-05
3.04865e-05
2.87858e-05
2.71855e-05
2.56816e-05
2.42649e-05
2.292e-05
2.16356e-05
2.03904e-05
1.91648e-05
1.79513e-05
1.67442e-05
1.55314e-05
1.43105e-05
1.30835e-05
1.19726e-05
5.43229e-06
6.27861e-06
6.54806e-06
7.1125e-06
7.88546e-06
8.79667e-06
9.86118e-06
1.10893e-05
1.24689e-05
1.39726e-05
1.55631e-05
1.71964e-05
1.88169e-05
2.03597e-05
2.17576e-05
2.2948e-05
2.38794e-05
2.45145e-05
2.48334e-05
2.48348e-05
2.4523e-05
2.39664e-05
2.32392e-05
2.2373e-05
2.14187e-05
2.04141e-05
1.93857e-05
1.83519e-05
1.73251e-05
1.63129e-05
1.53199e-05
1.43475e-05
1.33986e-05
1.24742e-05
1.15756e-05
1.07056e-05
9.86942e-06
9.0715e-06
8.30948e-06
7.58881e-06
6.93596e-06
2.92032e-06
3.33861e-06
3.48433e-06
3.76998e-06
4.15568e-06
4.61255e-06
5.14906e-06
5.77073e-06
6.47395e-06
7.24927e-06
8.08305e-06
8.95836e-06
9.85228e-06
1.07355e-05
1.15752e-05
1.23375e-05
1.29905e-05
1.35064e-05
1.38642e-05
1.40514e-05
1.40555e-05
1.38988e-05
1.36183e-05
1.32336e-05
1.27742e-05
1.22638e-05
1.17208e-05
1.11595e-05
1.0591e-05
1.00232e-05
9.46183e-06
8.91035e-06
8.372e-06
7.84711e-06
7.33624e-06
6.84147e-06
6.36378e-06
5.90048e-06
5.45253e-06
5.02257e-06
4.62695e-06
1.6543e-06
1.8702e-06
1.95265e-06
2.10475e-06
2.30773e-06
2.54911e-06
2.83332e-06
3.16296e-06
3.53668e-06
3.95078e-06
4.39968e-06
4.87646e-06
5.37131e-06
5.87105e-06
6.3601e-06
6.82149e-06
7.23796e-06
7.593e-06
7.87223e-06
8.065e-06
8.15957e-06
8.1604e-06
8.08156e-06
7.93146e-06
7.72478e-06
7.47401e-06
7.18967e-06
6.88084e-06
6.55516e-06
6.21879e-06
5.87684e-06
5.53314e-06
5.19177e-06
4.85501e-06
4.52476e-06
4.20367e-06
3.89533e-06
3.59948e-06
3.31638e-06
3.04953e-06
2.80282e-06
9.75278e-07
1.09058e-06
1.13853e-06
1.22241e-06
1.33358e-06
1.46637e-06
1.62295e-06
1.80446e-06
2.01025e-06
2.23861e-06
2.48695e-06
2.7521e-06
3.02948e-06
3.31273e-06
3.59413e-06
3.865e-06
4.11608e-06
4.33802e-06
4.52203e-06
4.66081e-06
4.74569e-06
4.77614e-06
4.75826e-06
4.69604e-06
4.59719e-06
4.46875e-06
4.31708e-06
4.14801e-06
3.96665e-06
3.77732e-06
3.58363e-06
3.38843e-06
3.19451e-06
3.00337e-06
2.81633e-06
2.63505e-06
2.46135e-06
2.29437e-06
2.13483e-06
1.9828e-06
1.84638e-06
5.93746e-07
6.57087e-07
6.85668e-07
7.3337e-07
7.96358e-07
8.71962e-07
9.61174e-07
1.06444e-06
1.18135e-06
1.31102e-06
1.4521e-06
1.60296e-06
1.7613e-06
1.92388e-06
2.08676e-06
2.24542e-06
2.39492e-06
2.53014e-06
2.64608e-06
2.73835e-06
2.80161e-06
2.83455e-06
2.83955e-06
2.81817e-06
2.77415e-06
2.71107e-06
2.63233e-06
2.54118e-06
2.44062e-06
2.33324e-06
2.22134e-06
2.10674e-06
1.9914e-06
1.87647e-06
1.76292e-06
1.65186e-06
1.54494e-06
1.44166e-06
1.34278e-06
1.24707e-06
1.16338e-06
3.71001e-07
4.06576e-07
4.23914e-07
4.5171e-07
4.88397e-07
5.32655e-07
5.84893e-07
6.45242e-07
7.13427e-07
7.88913e-07
8.70923e-07
9.58548e-07
1.05053e-06
1.14511e-06
1.24015e-06
1.3332e-06
1.42157e-06
1.5024e-06
1.57283e-06
1.63028e-06
1.67151e-06
1.69543e-06
1.7031e-06
1.69518e-06
1.6736e-06
1.6403e-06
1.59724e-06
1.54636e-06
1.48946e-06
1.42819e-06
1.36398e-06
1.29802e-06
1.23154e-06
1.16527e-06
1.09982e-06
1.0359e-06
9.74461e-07
9.15052e-07
8.58329e-07
8.02801e-07
7.56815e-07
2.36847e-07
2.57183e-07
2.67854e-07
2.84395e-07
3.06277e-07
3.32811e-07
3.64131e-07
4.00235e-07
4.40924e-07
4.85855e-07
5.34549e-07
5.8646e-07
6.40855e-07
6.96736e-07
7.52901e-07
8.07979e-07
8.60465e-07
9.08755e-07
9.51244e-07
9.86447e-07
1.01251e-06
1.02875e-06
1.03568e-06
1.03357e-06
1.0234e-06
1.00622e-06
9.83083e-07
9.55067e-07
9.23204e-07
8.88426e-07
8.51578e-07
8.13361e-07
7.74513e-07
7.35491e-07
6.96674e-07
6.5847e-07
6.21543e-07
5.85604e-07
5.51178e-07
5.16583e-07
4.89697e-07
1.5392e-07
1.65703e-07
1.72345e-07
1.82368e-07
1.95686e-07
2.11921e-07
2.3108e-07
2.53116e-07
2.7788e-07
3.05141e-07
3.34592e-07
3.65885e-07
3.98575e-07
4.32068e-07
4.65662e-07
4.98563e-07
5.29909e-07
5.5878e-07
5.84256e-07
6.05481e-07
6.21379e-07
6.31555e-07
6.3631e-07
6.35755e-07
6.30423e-07
6.20894e-07
6.07772e-07
5.91683e-07
5.73236e-07
5.52988e-07
5.31447e-07
5.0904e-07
4.86213e-07
4.63244e-07
4.40371e-07
4.17842e-07
3.96052e-07
3.74801e-07
3.54474e-07
3.33774e-07
3.18778e-07
1.01527e-07
1.08424e-07
1.12598e-07
1.18769e-07
1.27022e-07
1.37134e-07
1.49065e-07
1.62754e-07
1.78091e-07
1.94918e-07
2.1303e-07
2.32201e-07
2.52149e-07
2.72512e-07
2.92868e-07
3.12747e-07
3.31643e-07
3.49022e-07
3.64357e-07
3.77152e-07
3.86796e-07
3.93086e-07
3.96215e-07
3.96233e-07
3.93439e-07
3.88159e-07
3.80738e-07
3.71533e-07
3.60893e-07
3.49139e-07
3.36565e-07
3.2342e-07
3.09964e-07
2.96364e-07
2.8276e-07
2.69292e-07
2.56212e-07
2.4339e-07
2.31105e-07
2.18274e-07
2.09753e-07
6.78064e-08
7.18731e-08
7.45177e-08
7.8374e-08
8.35707e-08
8.99704e-08
9.75171e-08
1.06155e-07
1.15802e-07
1.26348e-07
1.37653e-07
1.49569e-07
1.61912e-07
1.74455e-07
1.8694e-07
1.99081e-07
2.10577e-07
2.21112e-07
2.30378e-07
2.38088e-07
2.43889e-07
2.47681e-07
2.49599e-07
2.49668e-07
2.48059e-07
2.44963e-07
2.40581e-07
2.35124e-07
2.28795e-07
2.21785e-07
2.14269e-07
2.06395e-07
1.98318e-07
1.90138e-07
1.81941e-07
1.73812e-07
1.659e-07
1.58125e-07
1.50675e-07
1.42797e-07
1.37948e-07
4.57597e-08
4.81681e-08
4.98571e-08
5.23005e-08
5.56218e-08
5.9731e-08
6.45734e-08
7.01014e-08
7.62552e-08
8.29566e-08
9.01105e-08
9.76156e-08
1.05353e-07
1.13177e-07
1.20926e-07
1.28425e-07
1.35491e-07
1.41936e-07
1.47579e-07
1.52252e-07
1.55751e-07
1.58036e-07
1.59203e-07
1.59264e-07
1.58322e-07
1.56491e-07
1.5389e-07
1.50643e-07
1.4687e-07
1.42682e-07
1.38183e-07
1.33458e-07
1.286e-07
1.23668e-07
1.18713e-07
1.13784e-07
1.08972e-07
1.04228e-07
9.96777e-08
9.47717e-08
9.20233e-08
3.11505e-08
3.25798e-08
3.36671e-08
3.52366e-08
3.73892e-08
4.00633e-08
4.32115e-08
4.67956e-08
5.07715e-08
5.5084e-08
5.96675e-08
6.44529e-08
6.93613e-08
7.42989e-08
7.91631e-08
8.38448e-08
8.82322e-08
9.22113e-08
9.56744e-08
9.85234e-08
1.00639e-07
1.02009e-07
1.02701e-07
1.02724e-07
1.02138e-07
1.01014e-07
9.94243e-08
9.74413e-08
9.51375e-08
9.25791e-08
8.98274e-08
8.69348e-08
8.39555e-08
8.09261e-08
7.78769e-08
7.48378e-08
7.18628e-08
6.89228e-08
6.61002e-08
6.30295e-08
6.14261e-08
2.13582e-08
2.22063e-08
2.29125e-08
2.39347e-08
2.53488e-08
2.71112e-08
2.91832e-08
3.15351e-08
3.41346e-08
3.69425e-08
3.99133e-08
4.29997e-08
4.61489e-08
4.92999e-08
5.23868e-08
5.53411e-08
5.80937e-08
6.0575e-08
6.27207e-08
6.44731e-08
6.57625e-08
6.65882e-08
6.70007e-08
6.70041e-08
6.66364e-08
6.59416e-08
6.49632e-08
6.37458e-08
6.23325e-08
6.07633e-08
5.90747e-08
5.72982e-08
5.5466e-08
5.36005e-08
5.17198e-08
4.98416e-08
4.79983e-08
4.61731e-08
4.44192e-08
4.2487e-08
4.15611e-08
1.47303e-08
1.52325e-08
1.56958e-08
1.63712e-08
1.73126e-08
1.84882e-08
1.98679e-08
2.14288e-08
2.31473e-08
2.49957e-08
2.69422e-08
2.89544e-08
3.09966e-08
3.30288e-08
3.50086e-08
3.68924e-08
3.86371e-08
4.02001e-08
4.15427e-08
4.26306e-08
4.34229e-08
4.39235e-08
4.41688e-08
4.41612e-08
4.39243e-08
4.34858e-08
4.28728e-08
4.21124e-08
4.12307e-08
4.02521e-08
3.91986e-08
3.80895e-08
3.69441e-08
3.57762e-08
3.45968e-08
3.3417e-08
3.22559e-08
3.11039e-08
2.99949e-08
2.87674e-08
2.82104e-08
1.0207e-08
1.05033e-08
1.0811e-08
1.12641e-08
1.1899e-08
1.26925e-08
1.36214e-08
1.46685e-08
1.58166e-08
1.7046e-08
1.83345e-08
1.96598e-08
2.09978e-08
2.2322e-08
2.36049e-08
2.48186e-08
2.59362e-08
2.69313e-08
2.77805e-08
2.84636e-08
2.89562e-08
2.92637e-08
2.94122e-08
2.9403e-08
2.9251e-08
2.8974e-08
2.85888e-08
2.81123e-08
2.75605e-08
2.69483e-08
2.62891e-08
2.55948e-08
2.4877e-08
2.41442e-08
2.34034e-08
2.26611e-08
2.19288e-08
2.12013e-08
2.04999e-08
1.97185e-08
1.93872e-08
7.09849e-09
7.27261e-09
7.48e-09
7.78883e-09
8.22264e-09
8.76434e-09
9.39638e-09
1.0106e-08
1.08807e-08
1.17064e-08
1.25678e-08
1.34493e-08
1.43346e-08
1.52061e-08
1.60458e-08
1.68359e-08
1.75594e-08
1.82e-08
1.87434e-08
1.91776e-08
1.9488e-08
1.96798e-08
1.97715e-08
1.97636e-08
1.96658e-08
1.94894e-08
1.92452e-08
1.89435e-08
1.85943e-08
1.82068e-08
1.77894e-08
1.73493e-08
1.68936e-08
1.64278e-08
1.59561e-08
1.54827e-08
1.50143e-08
1.45483e-08
1.40978e-08
1.35957e-08
1.33889e-08
4.94996e-09
5.05193e-09
5.19419e-09
5.40819e-09
5.70843e-09
6.08226e-09
6.51667e-09
7.00223e-09
7.52993e-09
8.08977e-09
8.671e-09
9.26286e-09
9.85427e-09
1.04335e-08
1.09887e-08
1.15085e-08
1.1982e-08
1.23991e-08
1.27513e-08
1.30312e-08
1.32303e-08
1.33526e-08
1.34115e-08
1.34072e-08
1.33457e-08
1.32346e-08
1.30806e-08
1.28903e-08
1.26698e-08
1.2425e-08
1.2161e-08
1.18823e-08
1.15934e-08
1.12976e-08
1.09976e-08
1.06959e-08
1.03968e-08
1.00986e-08
9.80994e-09
9.48722e-09
9.36142e-09
3.45801e-09
3.51774e-09
3.6173e-09
3.76811e-09
3.97849e-09
4.23914e-09
4.54052e-09
4.87575e-09
5.23837e-09
5.6213e-09
6.01702e-09
6.41806e-09
6.81685e-09
7.20554e-09
7.57637e-09
7.92193e-09
8.23536e-09
8.51033e-09
8.74161e-09
8.9249e-09
9.05493e-09
9.13489e-09
9.17416e-09
9.17274e-09
9.13453e-09
9.06442e-09
8.96682e-09
8.84585e-09
8.70546e-09
8.54924e-09
8.38048e-09
8.20204e-09
8.01668e-09
7.82657e-09
7.63341e-09
7.43883e-09
7.24528e-09
7.05216e-09
6.8645e-09
6.65554e-09
6.57289e-09
2.41823e-09
2.45352e-09
2.52471e-09
2.63271e-09
2.78182e-09
2.96528e-09
3.17618e-09
3.40954e-09
3.66073e-09
3.92478e-09
4.19644e-09
4.47053e-09
4.74189e-09
5.00524e-09
5.25543e-09
5.48767e-09
5.69759e-09
5.88124e-09
6.03545e-09
6.15768e-09
6.24477e-09
6.29907e-09
6.32723e-09
6.32915e-09
6.30736e-09
6.26506e-09
6.2051e-09
6.13009e-09
6.04248e-09
5.94455e-09
5.83836e-09
5.72571e-09
5.60833e-09
5.48758e-09
5.36456e-09
5.2403e-09
5.1163e-09
4.99228e-09
4.87152e-09
4.73644e-09
4.68777e-09
1.69167e-09
1.713e-09
1.76505e-09
1.84351e-09
1.95024e-09
2.08038e-09
2.22905e-09
2.39267e-09
2.56796e-09
2.75138e-09
2.93929e-09
3.1281e-09
3.3143e-09
3.49436e-09
3.66486e-09
3.82267e-09
3.96498e-09
4.08929e-09
4.19365e-09
4.27654e-09
4.33597e-09
4.37356e-09
4.39398e-09
4.39709e-09
4.38451e-09
4.3584e-09
4.32063e-09
4.27292e-09
4.21687e-09
4.15398e-09
4.08558e-09
4.01285e-09
3.9369e-09
3.85862e-09
3.77874e-09
3.69792e-09
3.61703e-09
3.53611e-09
3.45683e-09
3.36949e-09
3.33323e-09
1.18307e-09
1.19658e-09
1.23547e-09
1.29318e-09
1.37014e-09
1.46296e-09
1.56826e-09
1.68357e-09
1.80658e-09
1.93483e-09
2.06574e-09
2.19679e-09
2.32558e-09
2.44973e-09
2.56701e-09
2.67541e-09
2.77313e-09
2.85862e-09
2.9307e-09
2.9885e-09
3.03088e-09
3.05897e-09
3.07607e-09
3.08202e-09
3.07784e-09
3.0649e-09
3.04438e-09
3.01731e-09
2.98467e-09
2.94739e-09
2.90627e-09
2.86207e-09
2.81548e-09
2.76708e-09
2.71733e-09
2.66665e-09
2.61566e-09
2.56431e-09
2.51403e-09
2.45719e-09
2.44095e-09
8.26722e-10
8.35894e-10
8.65469e-10
9.08337e-10
9.64162e-10
1.03063e-09
1.10539e-09
1.18677e-09
1.27323e-09
1.36314e-09
1.45475e-09
1.54633e-09
1.63616e-09
1.72258e-09
1.80407e-09
1.87929e-09
1.9471e-09
2.00651e-09
2.05673e-09
2.09717e-09
2.12699e-09
2.1469e-09
2.15915e-09
2.16367e-09
2.16117e-09
2.15265e-09
2.13898e-09
2.12091e-09
2.09917e-09
2.07439e-09
2.04715e-09
2.01796e-09
1.98726e-09
1.95546e-09
1.92282e-09
1.88967e-09
1.85625e-09
1.8228e-09
1.78949e-09
1.75412e-09
1.73491e-09
5.77087e-10
5.83806e-10
6.0651e-10
6.38434e-10
6.79e-10
7.26709e-10
7.7995e-10
8.37496e-10
8.98266e-10
9.61167e-10
1.02511e-09
1.08902e-09
1.15183e-09
1.21243e-09
1.26974e-09
1.32281e-09
1.37086e-09
1.41331e-09
1.44981e-09
1.48016e-09
1.50398e-09
1.52175e-09
1.53501e-09
1.54356e-09
1.54772e-09
1.54798e-09
1.54475e-09
1.5384e-09
1.52929e-09
1.51777e-09
1.5042e-09
1.48886e-09
1.47209e-09
1.45413e-09
1.43521e-09
1.41553e-09
1.39539e-09
1.37475e-09
1.35456e-09
1.33013e-09
1.33038e-09
4.0249e-10
4.07788e-10
4.25268e-10
4.48853e-10
4.77989e-10
5.11881e-10
5.49576e-10
5.90286e-10
6.33225e-10
6.77524e-10
7.22312e-10
7.66825e-10
8.10421e-10
8.52521e-10
8.92558e-10
9.29928e-10
9.63996e-10
9.94125e-10
1.01979e-09
1.04062e-09
1.05615e-09
1.06671e-09
1.07346e-09
1.07652e-09
1.07636e-09
1.07353e-09
1.0685e-09
1.06168e-09
1.05342e-09
1.04401e-09
1.03369e-09
1.02267e-09
1.01111e-09
9.99167e-10
9.8692e-10
9.74504e-10
9.61888e-10
9.49403e-10
9.36371e-10
9.24633e-10
9.09654e-10
2.80636e-10
2.85124e-10
2.98711e-10
3.16065e-10
3.36618e-10
3.59973e-10
3.85683e-10
4.13477e-10
4.43096e-10
4.7412e-10
5.05935e-10
5.37805e-10
5.6899e-10
5.9887e-10
6.2705e-10
6.53374e-10
6.77857e-10
7.00568e-10
7.21557e-10
7.40802e-10
7.58089e-10
7.73365e-10
7.87072e-10
7.98809e-10
8.08419e-10
8.15908e-10
8.21311e-10
8.24691e-10
8.26151e-10
8.25835e-10
8.2391e-10
8.20548e-10
8.15951e-10
8.10278e-10
8.03699e-10
7.96323e-10
7.88454e-10
7.79907e-10
7.71913e-10
7.59099e-10
7.70979e-10
1.9566e-10
1.99528e-10
2.10082e-10
2.22947e-10
2.37586e-10
2.53655e-10
2.70732e-10
2.88628e-10
3.07352e-10
3.26987e-10
3.47598e-10
3.69122e-10
3.91267e-10
4.13462e-10
4.34912e-10
4.54739e-10
4.72157e-10
4.86606e-10
4.97818e-10
5.05838e-10
5.10677e-10
5.12846e-10
5.13186e-10
5.12154e-10
5.10156e-10
5.07539e-10
5.04579e-10
5.01474e-10
4.98364e-10
4.95337e-10
4.92445e-10
4.89718e-10
4.87144e-10
4.8474e-10
4.82467e-10
4.80353e-10
4.78204e-10
4.76408e-10
4.7361e-10
4.74718e-10
4.57656e-10
1.36482e-10
1.3953e-10
1.47129e-10
1.56098e-10
1.66316e-10
1.77719e-10
1.89937e-10
2.02559e-10
2.15203e-10
2.27566e-10
2.39525e-10
2.51211e-10
2.62982e-10
2.75325e-10
2.88729e-10
3.03552e-10
3.19946e-10
3.37818e-10
3.56858e-10
3.7658e-10
3.96475e-10
4.15893e-10
4.34491e-10
4.51539e-10
4.66605e-10
4.79469e-10
4.90028e-10
4.98264e-10
5.04242e-10
5.08093e-10
5.09984e-10
5.10097e-10
5.08659e-10
5.05843e-10
5.01852e-10
4.96801e-10
4.91109e-10
4.84389e-10
4.78758e-10
4.6552e-10
4.88468e-10
9.5719e-11
9.80058e-11
1.02909e-10
1.0796e-10
1.13337e-10
1.19494e-10
1.26728e-10
1.35271e-10
1.45171e-10
1.56163e-10
1.67635e-10
1.78718e-10
1.88462e-10
1.96058e-10
2.01036e-10
2.03354e-10
2.03355e-10
2.01626e-10
1.9881e-10
1.95567e-10
1.92024e-10
1.88523e-10
1.85268e-10
1.82514e-10
1.80288e-10
1.78567e-10
1.77361e-10
1.76704e-10
1.76623e-10
1.77133e-10
1.7824e-10
1.79943e-10
1.82216e-10
1.85056e-10
1.88415e-10
1.92298e-10
1.96503e-10
2.01437e-10
2.05302e-10
2.15604e-10
1.95967e-10
6.83307e-11
7.0642e-11
7.46268e-11
7.78702e-11
8.01242e-11
8.16329e-11
8.26798e-11
8.36547e-11
8.50445e-11
8.74196e-11
9.14344e-11
9.77938e-11
1.07167e-10
1.20068e-10
1.3673e-10
1.57017e-10
1.80398e-10
2.05999e-10
2.32753e-10
2.5937e-10
2.85295e-10
3.09771e-10
3.32023e-10
3.51375e-10
3.67673e-10
3.80974e-10
3.91416e-10
3.99187e-10
4.04505e-10
4.07593e-10
4.08666e-10
4.07916e-10
4.05554e-10
4.01708e-10
3.96582e-10
3.90258e-10
3.83171e-10
3.74698e-10
3.67771e-10
3.51528e-10
3.80265e-10
5.02232e-11
5.27726e-11
5.69595e-11
6.10104e-11
6.4261e-11
6.63125e-11
6.68438e-11
6.58035e-11
6.34534e-11
6.0293e-11
5.69454e-11
5.40375e-11
5.20878e-11
5.14259e-11
5.21498e-11
5.41262e-11
5.70341e-11
6.04482e-11
6.39314e-11
6.71565e-11
6.97214e-11
7.14846e-11
7.19458e-11
7.14371e-11
7.02465e-11
6.86042e-11
6.67596e-11
6.4974e-11
6.34756e-11
6.24387e-11
6.19883e-11
6.22082e-11
6.31523e-11
6.48417e-11
6.72849e-11
7.04881e-11
7.44078e-11
7.9171e-11
8.40063e-11
9.26244e-11
8.80311e-11
3.79036e-11
3.88894e-11
4.0947e-11
4.61262e-11
5.75634e-11
7.78149e-11
1.07759e-10
1.46507e-10
1.9181e-10
2.40607e-10
2.89572e-10
3.35566e-10
3.75993e-10
4.08992e-10
4.3353e-10
4.49373e-10
4.56962e-10
4.5722e-10
4.51377e-10
4.40603e-10
4.2644e-10
4.13689e-10
3.9983e-10
3.86284e-10
3.73703e-10
3.62379e-10
3.52424e-10
3.43804e-10
3.36355e-10
3.29837e-10
3.2397e-10
3.18469e-10
3.13041e-10
3.07311e-10
3.01233e-10
2.94663e-10
2.87299e-10
2.78963e-10
2.68825e-10
2.63042e-10
2.42082e-10
1.42967
0.724232
0.456927
0.397547
0.419164
0.431694
0.419872
0.391859
0.353478
0.308658
0.261239
0.214266
0.169851
0.12946
0.0940868
0.064324
0.0404557
0.0225103
0.0102693
0.00337821
0.00134664
0.00358135
0.00942041
0.0181485
0.0290112
0.0412395
0.0540769
0.0668134
0.0788236
0.0895617
0.0985723
0.105506
0.110125
0.112315
0.112089
0.10956
0.104916
0.0984151
0.0903663
0.0811273
0.0710894
0.0606604
0.0502452
0.0402283
0.0309598
0.0227405
0.0157965
0.0102559
0.00613219
0.00331408
0.00157986
0.000643313
0.000213441
5.31546e-05
7.96675e-06
2.93009e-07
3.71491e-10
1.397e-11
1.26677e-10
1.33632e-09
3.88017e-09
3.39486e-09
8.78139e-10
9.48536e-12
4.53171e-10
8.41045e-10
8.43886e-10
6.627e-10
4.7149e-10
3.26824e-10
2.34659e-10
1.67655e-10
1.408e-10
1.20222e-10
13.2846
7.29152
4.97438
3.97121
3.3423
2.85697
2.45491
2.1119
1.81403
1.55262
1.32225
1.11905
0.939963
0.78241
0.644169
0.52343
0.418677
0.328526
0.251818
0.187613
0.134787
0.0923517
0.059295
0.0346233
0.0173725
0.00658917
0.00131427
0.000585976
0.00345954
0.00903881
0.0164738
0.0249685
0.0337987
0.0423349
0.0500623
0.0565756
0.0615771
0.0648785
0.0663941
0.0661456
0.0642475
0.0608825
0.0562827
0.0507167
0.0444749
0.0378629
0.0311882
0.0247447
0.0187982
0.0135711
0.00922131
0.00582703
0.00337509
0.00175983
0.000807841
0.000317043
0.000101828
2.4628e-05
3.43697e-06
1.01403e-07
1.74392e-10
1.74792e-12
3.06016e-11
4.15878e-10
1.59528e-09
1.96129e-09
8.36582e-10
3.49495e-11
2.18482e-10
6.90131e-10
9.16706e-10
8.23394e-10
6.79412e-10
4.13765e-10
11.2507
8.53759
6.87338
5.88827
5.07393
4.39182
3.82756
3.34989
2.93769
2.57811
2.26187
1.98182
1.73244
1.50947
1.30958
1.13009
0.968817
0.823953
0.694286
0.578639
0.476055
0.386129
0.307964
0.240661
0.183434
0.135566
0.0963506
0.0650781
0.041004
0.0233223
0.0112215
0.00389971
0.000560137
0.000415719
0.00270766
0.00673084
0.011831
0.017413
0.0229564
0.0280358
0.0323278
0.035605
0.03773
0.0386498
0.0383834
0.0370199
0.0347027
0.0316127
0.0279544
0.0239456
0.0198073
0.0157534
0.0119809
0.00865328
0.00588568
0.00373319
0.00218291
0.0011607
0.000552228
0.000230186
8.15325e-05
2.32066e-05
4.51508e-06
3.18039e-07
2.43823e-09
1.35561e-12
2.30259e-13
1.19232e-11
1.78125e-10
6.66298e-10
8.56989e-10
4.19628e-10
3.18114e-11
2.69269e-10
7.78129
5.8317
4.64735
4.00731
3.49197
3.06813
2.73266
2.45969
2.23081
2.03546
1.86572
1.71522
1.57907
1.45362
1.33614
1.22469
1.11798
1.01532
0.916316
0.820653
0.728795
0.641111
0.558167
0.480834
0.409647
0.344711
0.285961
0.233302
0.186647
0.145877
0.110834
0.0813228
0.057089
0.0378306
0.0231576
0.0125875
0.00559075
0.00161683
0.000106744
0.000510336
0.00231032
0.00503709
0.0082656
0.0116214
0.0147886
0.0175224
0.0196494
0.021063
0.0217175
0.0216214
0.0208285
0.0194315
0.0175533
0.015336
0.0129306
0.0104884
0.0081511
0.00603869
0.00423942
0.00280174
0.00172981
0.000988993
0.00051834
0.000245916
0.000103789
3.79406e-05
1.13638e-05
2.33311e-06
1.67299e-07
1.34409e-09
5.37411e-13
8.88738e-19
1.72724e-14
3.23246e-11
3.70018
2.41276
1.6648
1.29684
1.05041
0.875549
0.756642
0.673985
0.615021
0.573299
0.544632
0.525874
0.51466
0.509131
0.507695
0.508882
0.511292
0.513567
0.514401
0.51267
0.507331
0.497191
0.481846
0.461019
0.434958
0.404446
0.370506
0.334354
0.297233
0.260286
0.224466
0.19051
0.158943
0.130126
0.104289
0.0815392
0.061889
0.04529
0.0316346
0.0207893
0.0125515
0.00666133
0.00282381
0.000721604
2.34914e-05
0.000398413
0.00153519
0.00315252
0.00499885
0.00685693
0.00854873
0.00994026
0.0109426
0.0115084
0.0116279
0.0113237
0.0106459
0.00966566
0.00846991
0.00715387
0.00581209
0.00452974
0.00337543
0.00239593
0.00161312
0.00102506
0.000611329
0.000339957
0.000174861
8.22512e-05
3.49116e-05
1.27603e-05
4.21184e-06
2.2341e-07
0.6185
0.332796
0.181183
0.117157
0.0803758
0.0569526
0.042757
0.0339265
0.028192
0.0245106
0.022315
0.0212568
0.0211478
0.0219152
0.0235668
0.0261718
0.0298484
0.0347512
0.0410513
0.0489124
0.0584456
0.0697197
0.0826394
0.0968785
0.111864
0.12689
0.141003
0.153267
0.162849
0.16908
0.171451
0.169821
0.16437
0.155544
0.143991
0.130459
0.115715
0.100478
0.0853666
0.0708971
0.0574655
0.0453437
0.0346935
0.0255909
0.0180368
0.0119932
0.00736487
0.0040174
0.0017938
0.000524036
3.01486e-05
0.000133108
0.000662505
0.00146425
0.00240054
0.00335184
0.00421985
0.00492969
0.00543186
0.00570146
0.00573584
0.00555147
0.00518009
0.00466457
0.00405414
0.00339908
0.00274634
0.00213526
0.00159506
0.00114187
0.00078383
0.000506834
0.000332172
0.000147186
0.0176413
0.00589388
0.00150035
0.000441802
0.000135265
3.96801e-05
1.24594e-05
4.40786e-06
1.73289e-06
7.5714e-07
3.74078e-07
2.12186e-07
1.40456e-07
1.10958e-07
1.07213e-07
1.29422e-07
1.98048e-07
3.86251e-07
9.51945e-07
2.87623e-06
1.00139e-05
3.63646e-05
0.000121189
0.000335949
0.00076397
0.00149326
0.00265867
0.00443182
0.00699517
0.0105044
0.0150538
0.020613
0.027007
0.0339195
0.0409186
0.0475007
0.0531709
0.0575046
0.0601968
0.0610942
0.0602049
0.0576819
0.0537866
0.0488477
0.0432162
0.0372399
0.0312347
0.025463
0.0201251
0.0153618
0.0112558
0.00784836
0.00513661
0.00308146
0.00162048
0.000677187
0.00016729
2.94661e-06
9.73269e-05
0.000369969
0.000749501
0.00117346
0.00158911
0.00195459
0.00223977
0.00242639
0.00250783
0.00248746
0.00237716
0.00219323
0.00196078
0.0016852
0.0014448
0.0010654
3.56847e-05
1.50692e-05
5.87593e-06
3.34962e-06
2.50134e-06
1.71875e-06
1.14289e-06
7.89435e-07
5.72758e-07
4.39703e-07
3.59902e-07
3.1407e-07
2.92455e-07
2.87767e-07
2.93242e-07
3.03869e-07
3.1608e-07
3.26671e-07
3.32296e-07
3.29326e-07
3.13982e-07
2.82694e-07
2.33177e-07
1.66394e-07
9.00598e-08
2.44408e-08
1.32161e-08
1.60992e-07
7.74843e-07
2.86209e-06
9.78269e-06
3.16212e-05
9.15431e-05
0.000227054
0.000488371
0.000942615
0.00167063
0.00275336
0.00425053
0.00617898
0.00849783
0.0111013
0.0138281
0.0164823
0.0188589
0.0207721
0.0220795
0.0226977
0.0226066
0.0218465
0.020506
0.0187084
0.0165958
0.0143117
0.0119884
0.00973847
0.00765108
0.00578843
0.00419245
0.00288036
0.00184871
0.00107947
0.00054495
0.000211556
4.26825e-05
1.11627e-06
5.12279e-05
0.000161286
0.000304156
0.000457265
0.000602019
0.00072798
0.00081019
0.000929264
0.000125967
8.60758e-05
4.82807e-05
3.15846e-05
2.43987e-05
1.75286e-05
1.18391e-05
8.20595e-06
5.88172e-06
4.24647e-06
3.08339e-06
2.26871e-06
1.69172e-06
1.27531e-06
9.71304e-07
7.47236e-07
5.80214e-07
4.54296e-07
3.58369e-07
2.84543e-07
2.27147e-07
1.82064e-07
1.46296e-07
1.1762e-07
9.44192e-08
7.56056e-08
6.04906e-08
4.86697e-08
4.00405e-08