/*--------------------------------*- C++ -*----------------------------------*\
| =========                 |                                                 |
| \\      /  F ield         | OpenFOAM: The Open Source CFD Toolbox           |
|  \\    /   O peration     | Version:  2312                                  |
|   \\  /    A nd           | Website:  www.openfoam.com                      |
|    \\/     M anipulation  |                                                 |
\*---------------------------------------------------------------------------*/
FoamFile
{
    version     2.0;
    format      ascii;
    arch        "LSB;label=32;scalar=64";
    class       volSymmTensorField;
    location    "249";
    object      turbulenceProperties:R;
}
// * * * * * * * * * * * * * * * * * * * * * * * * * * * * * * * * * * * * * //

dimensions      [0 2 -2 0 0 0 0];

internalField   nonuniform List<symmTensor> 
11040
(
(0.0667313 0.00452311 6.91543e-22 0.0526525 -4.16115e-21 0.0594391)
(0.182889 0.0066962 8.96144e-21 0.120783 1.10664e-20 0.155984)
(0.426351 -0.0142525 9.39914e-20 0.226438 1.18216e-19 0.339685)
(0.843133 -0.0961715 -9.71823e-20 0.391297 -4.00468e-20 0.640439)
(1.44659 -0.258053 -1.13735e-19 0.675133 -1.37758e-20 1.09225)
(2.31659 -0.520265 -1.35173e-19 1.15608 2.75581e-20 1.77659)
(3.34261 -0.868488 -3.84808e-19 1.80298 -8.28781e-19 2.61921)
(4.10487 -1.18444 -6.58299e-19 2.38417 -3.78268e-19 3.28829)
(4.44127 -1.3882 3.2417e-19 2.75868 2.77892e-20 3.63484)
(4.50603 -1.49987 -5.13276e-19 2.9718 2.79884e-20 3.76431)
(4.46402 -1.56335 1.78796e-19 3.10592 4.19543e-19 3.80315)
(4.38851 -1.60305 -9.69303e-19 3.20419 2.20368e-19 3.80956)
(4.29746 -1.62743 -3.66898e-19 3.28008 -2.24732e-19 3.79875)
(4.18965 -1.63762 -1.61527e-19 3.33374 2.01745e-19 3.76959)
(4.06126 -1.63305 3.5181e-20 3.36249 -7.66763e-21 3.71834)
(3.91312 -1.61451 -3.66174e-19 3.36662 -2.394e-19 3.64532)
(3.74819 -1.58347 6.64315e-20 3.34797 1.71239e-20 3.55279)
(3.57068 -1.54172 1.81056e-19 3.30897 4.07043e-19 3.44393)
(3.38378 -1.49079 -9.83705e-20 3.25173 3.79033e-21 3.32134)
(3.19018 -1.43187 -3.51917e-20 3.17738 -5.31432e-20 3.18681)
(2.98744 -1.36419 -5.53774e-21 3.08331 3.36503e-20 3.03791)
(2.7891 -1.29216 1.30319e-19 2.97291 8.44317e-20 2.88254)
(2.61508 -1.22454 -1.03637e-19 2.85966 -5.63102e-20 2.73782)
(2.46576 -1.16461 3.52531e-20 2.75557 1.85714e-19 2.61087)
(2.33389 -1.1106 -1.40649e-19 2.66041 -1.43493e-19 2.4974)
(2.21294 -1.05992 -3.91818e-21 2.56909 -3.40129e-19 2.39119)
(2.0994 -1.01134 -6.09265e-20 2.47926 -1.39036e-19 2.28942)
(1.99195 -0.96449 -2.53104e-19 2.39038 8.44312e-20 2.19118)
(1.88938 -0.919016 -9.98524e-20 2.30197 -8.49317e-20 2.09563)
(1.79047 -0.874475 1.10554e-19 2.21316 -2.24742e-19 2.00169)
(1.69394 -0.830378 8.74237e-20 2.12293 1.136e-19 1.90823)
(1.59853 -0.786207 4.71825e-19 2.03012 -9.74462e-20 1.81404)
(1.5031 -0.741465 5.73578e-19 1.93344 1.82872e-19 1.71787)
(1.40607 -0.695442 6.36147e-20 1.83108 1.16709e-19 1.61806)
(1.3056 -0.647275 1.1758e-19 1.72072 -1.3268e-20 1.51252)
(1.20045 -0.596343 2.70912e-19 1.60029 5.891e-20 1.39956)
(1.08806 -0.541406 -6.84134e-20 1.46605 3.71638e-20 1.27607)
(0.968285 -0.482355 4.47409e-20 1.31691 7.07434e-21 1.1413)
(0.827182 -0.412399 -1.46831e-19 1.13462 5.99153e-20 0.97967)
(0.697396 -0.347113 -2.80963e-20 0.954941 8.62809e-20 0.82342)
(0.439839 -0.219444 -6.67043e-22 0.620566 -1.29328e-20 0.530229)
(0.0238899 -0.00152289 -8.03055e-22 0.0193011 7.02032e-22 0.0214578)
(0.0264723 -0.00306537 1.32912e-21 0.025582 1.13829e-21 0.024905)
(0.0282412 -0.00317492 -1.78288e-20 0.0298922 -2.14644e-20 0.02714)
(0.0268082 -0.00298008 -2.00473e-21 0.0288809 -3.55406e-22 0.0255891)
(0.0293653 -0.00412397 2.49655e-22 0.0310919 -1.60637e-21 0.0271659)
(0.0431264 -0.00912156 -1.66255e-20 0.0435376 -2.11075e-20 0.037585)
(0.073904 -0.021769 -2.57e-20 0.0683661 1.04304e-19 0.0602831)
(0.117878 -0.0396414 1.44973e-19 0.0991207 2.01546e-19 0.0935691)
(0.166324 -0.0579502 -1.01232e-20 0.130382 -3.16874e-20 0.132492)
(0.211436 -0.0745521 7.3253e-20 0.159286 2.97681e-20 0.170918)
(0.248482 -0.0886318 -1.02143e-19 0.184401 -2.74924e-19 0.204483)
(0.276809 -0.10035 7.74788e-19 0.205986 8.04928e-20 0.232098)
(0.297305 -0.11009 -1.97589e-20 0.224758 2.39911e-19 0.254088)
(0.311535 -0.118292 5.73614e-19 0.241593 4.13791e-20 0.271502)
(0.321808 -0.125565 -3.04074e-19 0.257699 -6.47878e-20 0.286102)
(0.329479 -0.132134 9.36267e-20 0.273493 2.62717e-19 0.298812)
(0.335241 -0.138028 1.78459e-19 0.288931 8.81222e-20 0.310042)
(0.339306 -0.143147 1.87524e-19 0.303644 -2.3863e-19 0.319816)
(0.341912 -0.147493 -3.4888e-22 0.317482 -1.17943e-20 0.328285)
(0.343363 -0.151109 -1.67556e-20 0.33033 3.61333e-20 0.33562)
(0.344894 -0.154497 -5.69047e-20 0.343049 1.20057e-20 0.343007)
(0.345375 -0.156917 -1.06736e-19 0.353121 -9.76259e-20 0.34884)
(0.341721 -0.156974 2.19623e-19 0.357253 1.51219e-19 0.349674)
(0.333833 -0.154915 3.22503e-20 0.356819 -1.41782e-19 0.345804)
(0.324488 -0.151973 4.48543e-20 0.354447 9.22939e-20 0.339942)
(0.315488 -0.14892 -9.77526e-20 0.35144 3.85611e-19 0.333867)
(0.307264 -0.146019 -4.1273e-20 0.348362 2.06059e-19 0.328187)
(0.29976 -0.143291 4.15572e-19 0.345327 -2.38107e-20 0.322924)
(0.292936 -0.140751 -4.4713e-21 0.342422 6.92647e-20 0.318088)
(0.286786 -0.138418 -2.58214e-19 0.339703 1.56707e-19 0.313702)
(0.281335 -0.136325 -3.77509e-19 0.337272 -9.47487e-20 0.309833)
(0.276647 -0.134517 -6.8835e-19 0.335247 -1.47559e-19 0.306574)
(0.272795 -0.133041 -5.45953e-19 0.333735 -2.85653e-19 0.304017)
(0.269936 -0.13198 -2.73625e-19 0.332932 -7.58573e-20 0.302342)
(0.26833 -0.131466 1.60306e-19 0.333127 -1.97435e-20 0.301835)
(0.268341 -0.131662 -5.30001e-19 0.334582 -1.6122e-19 0.302805)
(0.2703 -0.132758 4.07762e-19 0.337816 -9.08128e-20 0.30575)
(0.275379 -0.135172 -3.00388e-19 0.343132 3.39022e-20 0.311173)
(0.283456 -0.139262 5.46063e-20 0.353067 -6.24336e-20 0.321233)
(0.301896 -0.146644 1.41636e-19 0.364406 -1.80013e-19 0.333886)
(0.330214 -0.162045 -3.05847e-19 0.401815 1.20046e-19 0.37781)
(0.0162684 -0.000972771 1.75976e-22 0.0130489 4.31502e-22 0.0146462)
(0.0116644 -0.00144265 -5.37073e-21 0.0111173 -3.94429e-21 0.0115394)
(0.00661329 -0.000593575 7.65886e-21 0.00765111 8.87905e-21 0.00763826)
(0.00677157 0.000265029 1.19043e-20 0.0078276 6.83429e-21 0.00807028)
(0.00809481 0.000704614 -5.82805e-22 0.00876018 -7.14598e-22 0.0092417)
(0.00829888 0.000856458 3.62073e-21 0.00866439 4.2083e-21 0.00922545)
(0.00783595 0.00088409 8.06671e-21 0.00802077 2.6991e-21 0.00858356)
(0.00713943 0.000880624 8.59354e-21 0.00720707 -1.57862e-21 0.00776009)
(0.00638037 0.000885636 -7.92338e-21 0.00634407 -2.20829e-21 0.00691356)
(0.00570043 0.000931002 8.17996e-22 0.00551033 -3.43037e-21 0.00618128)
(0.00483551 0.000898035 -1.32465e-20 0.00434183 6.43217e-21 0.00522817)
(0.00382776 0.000498284 -4.11243e-20 0.00270052 -3.71834e-20 0.00398864)
(0.00542384 -0.000948788 6.31808e-20 0.00318408 8.52049e-21 0.00502175)
(0.0129065 -0.00406626 -9.58577e-20 0.0091341 -4.14584e-20 0.0115583)
(0.0247952 -0.00904269 8.55656e-20 0.0193301 6.9034e-20 0.0222697)
(0.0404794 -0.0157954 3.88129e-20 0.0334618 -2.87202e-20 0.0367743)
(0.0594063 -0.0241332 -2.40314e-20 0.0512832 -7.33513e-20 0.0547523)
(0.0807649 -0.0337592 -3.14909e-20 0.0723008 -6.25543e-20 0.0756046)
(0.103562 -0.0442864 -1.13256e-21 0.0958015 -2.50522e-21 0.0985184)
(0.126705 -0.0552427 9.06384e-21 0.120862 5.46344e-21 0.122482)
(0.149421 -0.0662674 1.00354e-19 0.146718 1.40482e-20 0.146778)
(0.170532 -0.0767668 9.01904e-20 0.172058 1.52802e-20 0.170103)
(0.188405 -0.0859228 -2.19253e-20 0.195107 -9.4988e-20 0.190537)
(0.202243 -0.093285 1.04475e-20 0.214532 -4.36881e-20 0.207191)
(0.212485 -0.0989376 -1.3998e-19 0.23014 -5.47208e-20 0.220228)
(0.219937 -0.10321 3.55433e-19 0.242563 -1.1281e-19 0.230279)
(0.225108 -0.106348 2.18942e-19 0.252345 2.73638e-20 0.237865)
(0.228495 -0.108584 -4.26254e-19 0.259997 -1.31968e-19 0.24348)
(0.230558 -0.11013 -7.97118e-20 0.265963 6.69657e-20 0.247572)
(0.231685 -0.111166 9.07586e-20 0.270615 1.52481e-19 0.250515)
(0.232154 -0.111824 4.24595e-19 0.274226 1.18417e-22 0.252592)
(0.232198 -0.112214 -1.91966e-19 0.277019 3.00788e-19 0.25403)
(0.232018 -0.112433 5.22181e-19 0.279175 -3.78421e-20 0.255022)
(0.231769 -0.112552 6.37921e-19 0.280806 -3.89373e-20 0.255703)
(0.231679 -0.112676 -1.53197e-19 0.282085 -4.24566e-20 0.256285)
(0.232041 -0.112922 -4.2688e-19 0.283142 1.40126e-19 0.256959)
(0.233267 -0.113512 -5.76291e-19 0.284547 4.02824e-20 0.258284)
(0.235933 -0.114529 6.21858e-19 0.285642 -8.06795e-20 0.259998)
(0.241301 -0.117124 1.03119e-19 0.291287 -1.09353e-20 0.266069)
(0.252451 -0.120382 1.8827e-19 0.291157 -2.10761e-20 0.269612)
(0.279578 -0.1363 3.03555e-19 0.336889 -1.6402e-19 0.31284)
(0.0107027 -0.000607961 -3.97433e-23 0.00854831 -2.911e-22 0.00964071)
(0.0095399 -0.00112809 1.06009e-21 0.00884364 4.31275e-22 0.00917897)
(0.00822073 -0.00103172 -6.34285e-21 0.0089835 -4.92388e-21 0.00851296)
(0.00740342 -0.000694505 -9.57792e-21 0.0089087 -7.28433e-21 0.00795434)
(0.00663801 -0.000399163 1.63056e-21 0.0082568 1.05894e-21 0.00714812)
(0.00577346 -0.000224643 6.19656e-21 0.00720946 2.00911e-21 0.00614522)
(0.00492317 -0.000138918 -1.66946e-21 0.00611734 -2.94124e-21 0.00517119)
(0.00414505 -9.66928e-05 -2.18306e-21 0.00511907 -2.89166e-21 0.0043057)
(0.00342814 -7.25194e-05 2.30408e-21 0.00421178 2.15057e-21 0.00352908)
(0.00274621 -5.59915e-05 -2.8856e-21 0.00335621 -2.6868e-22 0.00280502)
(0.00211452 -4.39189e-05 6.87051e-21 0.00256857 3.10181e-21 0.00214438)
(0.00155519 -3.589e-05 -1.84084e-21 0.00187506 1.61241e-21 0.00156555)
(0.00109536 -3.31437e-05 -1.98783e-22 0.00130738 -1.57411e-21 0.00109215)
(0.000754888 -3.79552e-05 5.92147e-21 0.000884061 2.22268e-21 0.000740602)
(0.000576623 -5.62768e-05 2.80057e-21 0.000638419 -1.91278e-21 0.000549429)
(0.000694072 -0.000105124 -2.99024e-21 0.00068334 -1.56677e-21 0.000645078)
(0.0012482 -0.000233504 -7.19546e-21 0.00111824 6.55758e-22 0.0011545)
(0.0024224 -0.00056311 -4.58848e-21 0.00205288 -5.32153e-22 0.00223664)
(0.00457945 -0.00131947 9.67717e-22 0.00376988 9.37917e-22 0.00423148)
(0.00812824 -0.00275926 -1.27666e-21 0.00668772 -2.18923e-21 0.00755787)
(0.0136253 -0.00515196 -9.48878e-21 0.0114776 -5.65939e-21 0.0128285)
(0.0211438 -0.00855488 -3.31025e-20 0.0185434 -1.1519e-20 0.0202432)
(0.0299434 -0.0126649 -1.34131e-20 0.0274667 -8.18816e-21 0.0291742)
(0.0396004 -0.0172643 -3.42311e-20 0.0377966 1.15101e-20 0.0392369)
(0.0499686 -0.0222519 -7.3878e-20 0.049277 5.57276e-20 0.0502327)
(0.0608731 -0.0275387 -3.208e-19 0.0617169 -2.58138e-20 0.0619381)
(0.0720694 -0.0330118 4.81501e-20 0.0748581 -4.49382e-20 0.0741122)
(0.08331 -0.0385509 6.42187e-20 0.0884067 1.0337e-19 0.086499)
(0.0944205 -0.0440638 2.22045e-19 0.10212 3.57737e-21 0.0988968)
(0.105287 -0.049485 1.8173e-19 0.115808 -6.5847e-20 0.111152)
(0.115855 -0.054778 -3.27346e-19 0.129342 -1.74709e-20 0.123177)
(0.126134 -0.059936 2.80154e-19 0.142656 -3.78048e-21 0.134946)
(0.136179 -0.0649734 -8.93227e-19 0.155726 1.03294e-19 0.146471)
(0.14614 -0.0699498 -2.14193e-19 0.168623 -1.82524e-20 0.157866)
(0.156233 -0.0749538 -2.00806e-19 0.181473 6.24584e-20 0.169304)
(0.166716 -0.0800788 -9.08567e-20 0.194358 6.06606e-20 0.180936)
(0.177952 -0.0855036 -3.88272e-21 0.20766 2.97908e-20 0.193189)
(0.190589 -0.0913572 1.02417e-19 0.22108 -2.69753e-20 0.206019)
(0.205595 -0.0985793 -2.04227e-19 0.238207 3.32294e-20 0.222539)
(0.224407 -0.105738 3.4899e-19 0.250078 -1.48118e-20 0.235856)
(0.25341 -0.122723 -9.18896e-20 0.298472 5.60417e-20 0.280755)
(0.00720018 -0.000389562 9.08916e-22 0.00573097 5.23848e-22 0.0064709)
(0.0068483 -0.000752885 -1.37768e-21 0.00613167 -9.89648e-22 0.00649108)
(0.00586989 -0.000760194 6.33466e-21 0.00609432 3.45854e-21 0.00598856)
(0.00458914 -0.000500139 8.49036e-21 0.00539102 5.19584e-21 0.00503549)
(0.00338698 -0.00018487 -8.20642e-21 0.00428733 -4.26846e-21 0.00393194)
(0.00264146 4.57418e-05 9.02698e-22 0.00336997 -3.78867e-22 0.00313997)
(0.00237002 0.000175394 -1.29451e-21 0.00286483 -6.90382e-22 0.00277665)
(0.00234134 0.000236564 -3.79802e-21 0.0026352 -6.81593e-22 0.00265974)
(0.00235646 0.000259663 1.22431e-21 0.00250107 1.58849e-22 0.0026016)
(0.00232171 0.000261625 1.52391e-21 0.00236511 4.56531e-22 0.0025078)
(0.00222564 0.000252585 2.38803e-21 0.00220578 -1.32581e-21 0.00236509)
(0.00208503 0.000238548 -1.49654e-22 0.00203039 3.21453e-22 0.00218849)
(0.00191164 0.000221692 -2.68216e-22 0.00184323 2.82771e-22 0.00198716)
(0.00172709 0.0002034 -3.31229e-21 0.00165698 -2.93751e-21 0.0017802)
(0.0015444 0.000183985 -1.78545e-21 0.00147836 -1.23746e-23 0.00157895)
(0.001369 0.000163527 1.2718e-22 0.00130898 1.69552e-22 0.00138801)
(0.0012027 0.000142438 9.98459e-22 0.00114833 7.40067e-22 0.00120889)
(0.00104677 0.000121791 -1.18296e-21 0.000996462 6.54716e-23 0.00104263)
(0.000902884 0.000102965 2.00302e-22 0.000854035 -5.18433e-23 0.000890386)
(0.00077363 8.72982e-05 -3.24334e-22 0.000722438 5.99576e-23 0.000753423)
(0.000658456 7.48731e-05 8.47008e-22 0.000596996 2.95452e-22 0.000628391)
(0.000547154 6.11613e-05 -1.78765e-23 0.000463036 3.12336e-22 0.000501222)
(0.000441118 3.15154e-05 -2.08748e-21 0.000323431 4.7278e-22 0.000371347)
(0.000513677 -4.25152e-05 4.69206e-21 0.00035097 1.08357e-21 0.00041117)
(0.00101818 -0.000215783 1.45226e-20 0.000799542 -1.66759e-21 0.000873406)
(0.00195726 -0.000565837 1.13845e-20 0.00168966 1.23332e-20 0.00176739)
(0.00336843 -0.00116388 -3.10802e-21 0.00309187 9.33527e-23 0.00314903)
(0.00531088 -0.00205295 3.98937e-20 0.00510113 -1.31038e-20 0.00509984)
(0.00785827 -0.00325992 -7.04876e-21 0.00781856 -1.92025e-20 0.00770999)
(0.0110992 -0.00481354 -6.37814e-20 0.0113538 -5.19966e-22 0.0110786)
(0.0151385 -0.00675424 6.82847e-20 0.0158294 1.61331e-20 0.0153192)
(0.020101 -0.00913658 -1.42103e-20 0.0213876 -1.2389e-20 0.0205654)
(0.0261294 -0.0120256 2.96139e-19 0.0281851 2.2693e-21 0.0269663)
(0.0334431 -0.0155228 1.6603e-19 0.0364537 -2.22809e-20 0.0347471)
(0.0423252 -0.0197583 1.15959e-19 0.0464832 -8.95854e-21 0.044197)
(0.0531439 -0.0248933 1.16055e-19 0.0586108 -9.797e-21 0.0556601)
(0.0663553 -0.0311474 -9.80202e-20 0.0733365 1.23044e-20 0.0696441)
(0.0829527 -0.0388827 2.32566e-20 0.091246 -4.81261e-22 0.0868171)
(0.104138 -0.0489704 -9.83972e-20 0.114985 1.03888e-20 0.109618)
(0.130544 -0.060349 -3.40742e-19 0.139412 6.15353e-20 0.133768)
(0.17353 -0.0832071 2.78587e-19 0.198671 -3.36073e-20 0.189457)
(0.0048216 -0.000254435 -9.83143e-22 0.00383161 -5.29611e-22 0.00432994)
(0.00481689 -0.000493757 4.17783e-21 0.00420995 1.55755e-21 0.00451677)
(0.00450618 -0.000576191 -2.55542e-21 0.00448268 -5.47565e-22 0.00448778)
(0.00403442 -0.000490134 -2.22934e-21 0.00452746 -1.45591e-21 0.00426988)
(0.00353693 -0.00031648 1.65054e-21 0.00431779 1.29725e-21 0.00390559)
(0.00309972 -0.000148924 -1.22752e-21 0.00394619 -4.97193e-22 0.0034827)
(0.00272806 -3.15285e-05 -1.84164e-21 0.00351281 -6.58705e-22 0.00306117)
(0.00240776 3.62936e-05 -2.24833e-22 0.00308742 6.70184e-22 0.00267351)
(0.00212768 7.01094e-05 -1.53666e-22 0.00270044 1.86446e-22 0.00232986)
(0.00187804 8.35263e-05 -3.6339e-21 0.00235539 -1.40644e-21 0.00202669)
(0.00165222 8.55315e-05 -2.72254e-21 0.00204807 -4.32108e-23 0.00175835)
(0.00144525 8.15333e-05 1.80308e-21 0.00177225 -1.89699e-22 0.00151876)
(0.00124791 7.547e-05 4.93966e-22 0.00151455 3.96424e-22 0.00129687)
(0.00106132 6.94407e-05 -4.21913e-21 0.00127398 1.24519e-22 0.00109172)
(0.000891456 6.40656e-05 3.6464e-21 0.00105603 7.82099e-22 0.000907545)
(0.000741244 5.93485e-05 -1.70887e-21 0.000862899 -1.86817e-22 0.000745979)
(0.000612509 5.50428e-05 -3.60189e-24 0.000695739 -7.22218e-22 0.000607973)
(0.000507648 5.08406e-05 -4.05488e-22 0.000556675 4.64034e-22 0.000495394)
(0.000428548 4.64154e-05 -3.60467e-22 0.000447466 -8.23068e-23 0.000409883)
(0.000377092 4.15072e-05 2.41191e-22 0.000370275 1.76589e-22 0.000353147)
(0.000347449 3.54613e-05 3.40138e-22 0.000319716 -2.15592e-22 0.000319698)
(0.000324678 2.79493e-05 -2.41853e-22 0.000283671 1.23513e-23 0.000295545)
(0.000299196 2.08906e-05 4.19529e-22 0.000253848 3.52325e-23 0.000271115)
(0.000276215 1.57967e-05 1.33114e-22 0.000231041 -1.76182e-22 0.00025045)
(0.000260369 1.21906e-05 -1.81212e-21 0.0002161 -2.07829e-22 0.000236691)
(0.000250044 9.12814e-06 1.29446e-21 0.000206175 -2.43376e-22 0.000227572)
(0.000244559 6.14857e-06 1.31187e-22 0.000200137 -1.64945e-22 0.000222417)
(0.000246056 2.9253e-06 -2.19314e-21 0.000199456 -8.45915e-23 0.000223265)
(0.00025952 -1.21538e-06 -1.73359e-21 0.000207899 1.59747e-22 0.000234617)
(0.000293894 -7.75956e-06 1.30061e-21 0.000232351 2.9434e-22 0.000264476)
(0.00036561 -2.01155e-05 1.18424e-21 0.000285494 -3.99966e-22 0.00032754)
(0.000505086 -4.65127e-05 4.36113e-22 0.000390736 1.9728e-22 0.000450966)
(0.000766479 -0.000106462 -8.64627e-21 0.000590366 -7.79915e-22 0.00068336)
(0.00124687 -0.000244297 -1.49006e-20 0.000963678 4.04163e-22 0.00111345)
(0.00209949 -0.00054472 -6.98033e-21 0.00165014 -9.38989e-22 0.00188836)
(0.00355327 -0.00113665 1.70159e-20 0.00288304 -2.33495e-21 0.00323801)
(0.00593904 -0.00219032 3.09926e-21 0.00504536 1.20713e-21 0.00552366)
(0.00992692 -0.00397852 2.81183e-20 0.00878331 -4.06388e-21 0.00937516)
(0.0167962 -0.00717899 9.11253e-20 0.0157692 -1.27662e-20 0.0163958)
(0.0272744 -0.0117438 7.90956e-21 0.0256877 -5.71401e-21 0.0262274)
(0.0532961 -0.0246698 -1.54456e-19 0.0561847 2.80994e-20 0.0559121)
(0.00327475 -0.000171937 -1.47804e-22 0.0026022 -8.44792e-23 0.00293892)
(0.00335688 -0.000323142 1.67188e-22 0.00288314 3.09973e-22 0.00312447)
(0.00327515 -0.0004052 -1.72711e-21 0.00313654 -7.50728e-22 0.00320413)
(0.00306168 -0.000391707 -2.62183e-21 0.00327883 -1.34059e-21 0.00316995)
(0.00272235 -0.000295482 -1.12696e-21 0.00319966 -3.95846e-22 0.00296574)
(0.00232978 -0.000165925 3.81542e-21 0.00291494 1.77732e-21 0.00263306)
(0.00195781 -4.91089e-05 -1.1214e-21 0.00252373 -5.31413e-22 0.00225867)
(0.00165122 3.56228e-05 1.11813e-21 0.00212944 5.00194e-22 0.00191658)
(0.00142412 8.90359e-05 4.40264e-21 0.00179237 1.23249e-21 0.00164292)
(0.00127096 0.000118521 -1.49439e-22 0.00153239 7.71018e-22 0.00144354)
(0.0011756 0.000131766 5.84352e-21 0.00134478 1.45171e-21 0.00130732)
(0.00111884 0.000135001 -4.805e-21 0.0012136 -1.78265e-21 0.0012167)
(0.00108227 0.00013255 3.5673e-21 0.00112039 1.2822e-21 0.0011531)
(0.00104948 0.000127113 6.86084e-23 0.00104708 3.46442e-23 0.00109895)
(0.00101226 0.000120219 -1.66676e-21 0.000981585 -8.52947e-22 0.00104469)
(0.000969688 0.000112659 5.49178e-22 0.000919055 4.39412e-22 0.000988161)
(0.000923051 0.000104818 -2.34255e-21 0.000858087 1.30959e-22 0.000929784)
(0.000874206 9.68862e-05 1.05355e-21 0.000798721 2.86219e-22 0.00087084)
(0.000824695 8.8883e-05 -2.66781e-22 0.000741184 1.59724e-22 0.000812474)
(0.000775301 8.07387e-05 1.7384e-22 0.00068547 -5.48532e-22 0.0007552)
(0.000725192 7.20322e-05 -1.57574e-22 0.000630184 2.20373e-22 0.00069813)
(0.000669409 6.24646e-05 1.64209e-22 0.000571801 -6.46537e-24 0.000637009)
(0.000608504 5.32338e-05 -1.15475e-21 0.000512686 -1.98329e-22 0.000573322)
(0.000552369 4.58307e-05 4.99121e-22 0.000461376 -3.98653e-23 0.000516647)
(0.000507915 4.02657e-05 9.76984e-22 0.000421971 3.66174e-22 0.000472532)
(0.00047266 3.56678e-05 -6.1531e-22 0.000391015 -3.01864e-22 0.000437623)
(0.000442842 3.15111e-05 -1.49207e-21 0.000365016 -4.79038e-23 0.000408169)
(0.000416589 2.76543e-05 8.73787e-22 0.000342452 3.92332e-22 0.000382521)
(0.000392814 2.39942e-05 1.46772e-23 0.000322408 4.14121e-22 0.000359665)
(0.000370417 2.04177e-05 5.67339e-22 0.000303943 -1.227e-22 0.000338513)
(0.000348364 1.6851e-05 -4.7102e-23 0.000286207 -1.70036e-22 0.00031808)
(0.000325822 1.3269e-05 8.91945e-22 0.00026851 -1.42578e-22 0.000297578)
(0.000302385 9.70914e-06 4.44825e-24 0.000250469 1.32653e-22 0.000276588)
(0.000278474 6.23884e-06 -3.51389e-22 0.000232332 1.96112e-22 0.000255416)
(0.000256081 2.91967e-06 -1.02668e-21 0.000215529 1.64043e-22 0.000235765)
(0.00024128 -2.84551e-07 7.75025e-22 0.000204896 -1.18847e-22 0.000223015)
(0.00024522 -4.24158e-06 8.77093e-22 0.00020951 -1.30266e-22 0.000227402)
(0.000297276 -1.14925e-05 -9.4921e-22 0.000254001 1.23377e-22 0.000275506)
(0.000538055 -4.77415e-05 7.8005e-22 0.00045366 -7.89274e-23 0.00049774)
(0.00102707 -0.000153591 -5.8402e-23 0.000855097 -7.59436e-24 0.000935694)
(0.00487369 -0.00168978 -1.93983e-21 0.0042693 -1.01814e-21 0.0046883)
(0.00224335 -0.000119218 -2.89369e-23 0.00178424 5.57568e-23 0.00201294)
(0.00232962 -0.000214211 -7.77162e-22 0.0019795 -2.79277e-22 0.00215876)
(0.00233188 -0.000277681 7.86803e-22 0.00217312 1.07904e-23 0.00225165)
(0.00228646 -0.000295444 3.36614e-21 0.0023557 1.20237e-21 0.00231945)
(0.00216197 -0.000259438 6.3984e-22 0.00244308 3.79038e-22 0.0023011)
(0.00198695 -0.000185306 4.93832e-22 0.00241141 2.01533e-23 0.00219629)
(0.00180254 -0.000100785 -5.82443e-21 0.00228553 -2.00217e-21 0.00203819)
(0.00163069 -2.6968e-05 -4.41502e-22 0.0021053 -1.16717e-22 0.00185862)
(0.00147657 2.75958e-05 -1.62216e-21 0.0019044 -7.26743e-22 0.00167748)
(0.00133823 6.28923e-05 3.25482e-21 0.00170422 1.12092e-21 0.00150455)
(0.00121273 8.26325e-05 -2.68488e-21 0.0015162 -1.50138e-21 0.00134411)
(0.00109818 9.13158e-05 -2.07568e-21 0.00134552 1.41251e-22 0.00119805)
(0.000993602 9.28674e-05 3.45071e-21 0.00119355 1.33598e-22 0.00106692)
(0.000897355 9.03457e-05 -3.70194e-21 0.00105774 -5.66301e-22 0.00094906)
(0.000807752 8.58405e-05 2.21684e-22 0.000934192 -9.49356e-23 0.000842016)
(0.000726029 8.05388e-05 8.47658e-22 0.000822888 3.31229e-22 0.000746113)
(0.00065284 7.49901e-05 2.51877e-21 0.000723576 4.76579e-22 0.00066122)
(0.000587898 6.93699e-05 8.79903e-23 0.000635196 1.12951e-22 0.000586427)
(0.000530751 6.36807e-05 5.88551e-22 0.000556714 -9.19888e-24 0.000520838)
(0.000481078 5.7801e-05 -2.83116e-21 0.000487389 -2.64573e-22 0.000463739)
(0.000438429 5.15704e-05 1.93822e-21 0.000426609 2.99264e-22 0.000414585)
(0.000400881 4.48073e-05 -4.52502e-22 0.000373843 -8.04002e-23 0.000371964)
(0.000366735 3.79628e-05 -6.07673e-22 0.000329446 1.48735e-22 0.000334754)
(0.000338396 3.2069e-05 -8.79279e-23 0.000294932 7.16296e-23 0.000305155)
(0.000319057 2.74962e-05 -2.68422e-22 0.000271158 -1.07999e-22 0.000285379)
(0.00030793 2.37883e-05 -1.33285e-22 0.00025603 1.46078e-22 0.000273822)
(0.0003025 2.05185e-05 -6.16056e-22 0.000246811 3.96015e-22 0.000267794)
(0.000301048 1.75513e-05 5.03729e-22 0.000241831 -1.56864e-22 0.000265684)
(0.000302816 1.48247e-05 1.72754e-21 0.000240272 -1.52125e-22 0.000266766)
(0.000307295 1.22448e-05 3.69704e-22 0.000241555 -2.39061e-22 0.000270498)
(0.000313964 9.71371e-06 -1.60231e-21 0.00024517 1.76919e-22 0.000276364)
(0.000322196 7.14748e-06 -7.28754e-22 0.000250607 -4.82895e-23 0.000283815)
(0.000331155 4.47074e-06 1.69436e-24 0.000257277 3.96926e-23 0.000292154)
(0.000339436 1.63492e-06 1.45382e-21 0.000264309 -1.78568e-22 0.000300252)
(0.000344859 -1.38713e-06 7.8111e-22 0.00027029 1.17864e-24 0.000306352)
(0.000344357 -4.38447e-06 -5.48413e-22 0.000273235 -1.23128e-24 0.000307868)
(0.000333206 -7.30949e-06 -1.04933e-21 0.000269648 1.22449e-22 0.000300877)
(0.000302908 -8.70009e-06 4.7751e-22 0.000252726 -5.15833e-23 0.000277302)
(0.000263507 -9.8285e-06 -2.45849e-22 0.000229033 3.16356e-23 0.000246378)
(0.000177798 -6.01815e-06 2.56458e-22 0.000162706 -2.71095e-23 0.000169937)
(0.000190162 -7.66101e-06 2.99269e-23 0.000180717 -5.21355e-24 0.000186039)
(0.00154886 -8.44527e-05 -1.14412e-22 0.0012341 4.60014e-23 0.00139005)
(0.0016204 -0.000144705 -6.41921e-22 0.00136845 -3.29018e-22 0.00149794)
(0.00163815 -0.00018838 2.57393e-21 0.00149769 6.8049e-22 0.00156775)
(0.00165044 -0.00021131 -4.67056e-22 0.00164725 5.46587e-23 0.00164832)
(0.00161784 -0.000204408 8.47414e-22 0.00176042 2.02721e-22 0.00168946)
(0.00153632 -0.000167779 -7.21835e-22 0.00180171 -1.8477e-22 0.00166981)
(0.00142457 -0.000112984 1.99472e-21 0.00176527 8.75536e-22 0.0015961)
(0.0013008 -5.46087e-05 2.27182e-21 0.00166485 4.98613e-22 0.00148485)
(0.00117765 -3.24326e-06 1.01919e-22 0.00152382 4.99954e-22 0.00135425)
(0.00106263 3.6168e-05 3.03161e-21 0.00136525 6.6093e-22 0.0012195)
(0.000960346 6.30573e-05 4.56258e-22 0.00120792 1.33767e-22 0.00109195)
(0.000872507 7.91971e-05 -2.08522e-21 0.00106319 -3.48627e-22 0.000977922)
(0.000799899 8.71696e-05 -5.15646e-22 0.000937662 -5.0911e-22 0.000881031)
(0.00074325 8.96521e-05 1.92802e-21 0.000834829 6.61305e-22 0.000803195)
(0.000701411 8.87383e-05 -4.67926e-21 0.000754513 -1.00921e-21 0.000743465)
(0.000670373 8.5798e-05 1.82064e-21 0.000692321 4.78715e-22 0.000697499)
(0.000645663 8.1625e-05 -1.32868e-21 0.000642434 -5.21099e-22 0.000660289)
(0.000624322 7.66764e-05 2.38306e-21 0.000600591 2.87803e-22 0.000628359)
(0.0006044 7.11844e-05 -1.00339e-22 0.000563844 -2.76127e-22 0.000599347)
(0.000584471 6.52318e-05 -7.28413e-22 0.000530053 3.1592e-22 0.000571544)
(0.000562614 5.87355e-05 1.08778e-21 0.000496959 -2.03658e-22 0.000542945)
(0.00053739 5.17912e-05 6.50763e-23 0.000463383 9.66954e-23 0.00051233)
(0.00050883 4.4937e-05 -2.39346e-22 0.00042991 1.62149e-23 0.000480074)
(0.000479633 3.88815e-05 1.02696e-21 0.000398883 -1.07702e-23 0.000448815)
(0.000454233 3.3989e-05 2.79943e-22 0.000373231 1.26865e-22 0.00042231)
(0.000433875 2.99922e-05 8.51459e-22 0.000352973 -7.66807e-23 0.000401114)
(0.000417454 2.65051e-05 1.44023e-21 0.000336599 -8.74771e-23 0.000383844)
(0.000404037 2.3335e-05 -6.70336e-22 0.000323136 6.31844e-23 0.000369574)
(0.000393363 2.03871e-05 -4.9483e-22 0.00031226 -1.23677e-22 0.00035805)
(0.000385367 1.75579e-05 -1.46993e-21 0.00030381 1.52665e-22 0.000349157)
(0.000379969 1.4733e-05 6.73913e-22 0.00029765 3.08006e-23 0.00034277)
(0.000377112 1.18002e-05 -4.67397e-22 0.000293707 1.25724e-22 0.000338822)
(0.000376752 8.64247e-06 5.69011e-22 0.000291968 -4.44147e-23 0.000337282)
(0.000378904 5.12535e-06 -1.5299e-21 0.000292522 7.60574e-23 0.000338196)
(0.000383377 1.07232e-06 2.12074e-22 0.000295387 -3.43483e-23 0.000341487)
(0.000389822 -3.60409e-06 -4.13451e-22 0.00030061 6.55314e-23 0.000346944)
(0.000396812 -9.17927e-06 2.24859e-21 0.000307656 -2.27064e-22 0.000353721)
(0.000400702 -1.50689e-05 -1.49702e-21 0.000314346 1.67607e-22 0.000358516)
(0.000398316 -2.16528e-05 1.16446e-22 0.000320275 -5.68611e-24 0.000360475)
(0.000368877 -2.51955e-05 -7.03748e-22 0.000306916 8.99492e-23 0.000337906)
(0.000304433 -2.19731e-05 4.76743e-22 0.000271402 -4.15312e-23 0.00028938)
(0.00107413 -6.07563e-05 -4.55939e-22 0.000858096 -1.58984e-22 0.000964593)
(0.00112972 -9.95524e-05 1.86747e-21 0.000951581 3.91664e-22 0.00104347)
(0.00114395 -0.000128259 -4.80102e-22 0.0010337 7.86948e-23 0.00108877)
(0.00117075 -0.000147566 -3.26896e-21 0.00114255 -8.26282e-22 0.00115623)
(0.00118059 -0.000151989 -3.49493e-22 0.00124629 -2.4228e-22 0.00121349)
(0.00116194 -0.000138002 3.17771e-21 0.0013199 8.8329e-22 0.00124095)
(0.00112071 -0.000108242 -6.26495e-22 0.00135199 -3.15695e-22 0.00123596)
(0.0010663 -6.96457e-05 -7.41145e-21 0.00134146 -1.93454e-21 0.00120288)
(0.00100612 -2.97372e-05 7.22767e-21 0.00129464 2.05009e-21 0.00114871)
(0.000945161 5.71197e-06 3.71961e-22 0.00122231 -5.05755e-22 0.00108135)
(0.000885825 3.36695e-05 -3.2342e-22 0.00113541 -2.78125e-22 0.00100743)
(0.000828603 5.34731e-05 -3.7128e-22 0.00104244 -3.02071e-23 0.000931402)
(0.000773582 6.58787e-05 -2.18017e-21 0.000949696 -1.48045e-22 0.00085651)
(0.000721182 7.24025e-05 6.95392e-22 0.000861557 -4.61857e-22 0.000785146)
(0.000671427 7.46542e-05 -2.47648e-21 0.000779898 3.86968e-22 0.000718376)
(0.000624014 7.40171e-05 2.02985e-21 0.000704637 3.93829e-23 0.000656197)
(0.000579147 7.15198e-05 -6.47791e-22 0.000635514 1.74732e-22 0.000598677)
(0.000537508 6.78563e-05 3.4398e-22 0.000572723 6.04273e-23 0.000546208)
(0.000499279 6.34257e-05 -7.27769e-22 0.000515946 -9.71748e-23 0.000498688)
(0.000464108 5.83952e-05 -5.23643e-22 0.000464331 -1.28383e-22 0.000455466)
(0.000432015 5.28959e-05 -1.70338e-22 0.000417726 2.5347e-23 0.000416482)
(0.000402717 4.71142e-05 6.76003e-22 0.000376473 -1.26708e-22 0.000381693)
(0.000375135 4.1312e-05 -7.27755e-22 0.000340161 8.43457e-23 0.000350191)
(0.000349841 3.59115e-05 -3.00782e-22 0.000309067 -6.87181e-23 0.000322421)
(0.000328908 3.12503e-05 1.13808e-21 0.000284184 -4.86997e-23 0.000299996)
(0.000313103 2.72767e-05 -9.433e-22 0.000265244 -1.85073e-23 0.000283141)
(0.000301731 2.37539e-05 -9.16623e-22 0.00025105 -1.05032e-22 0.000270852)
(0.000293902 2.05169e-05 1.25665e-21 0.000240574 1.95451e-23 0.000262166)
(0.000289139 1.74788e-05 -1.77315e-22 0.000233266 9.52469e-24 0.000256592)
(0.000287216 1.45586e-05 1.12208e-21 0.000228818 -3.70893e-24 0.00025386)
(0.000287946 1.1662e-05 -6.23441e-22 0.000226989 6.90624e-24 0.000253747)
(0.000291136 8.69447e-06 8.54358e-22 0.00022758 -5.47973e-23 0.000256053)
(0.000296609 5.55543e-06 2.52923e-22 0.000230444 -6.10885e-23 0.000260615)
(0.000304258 2.13339e-06 -2.99682e-23 0.00023554 8.50548e-23 0.000267358)
(0.000313898 -1.70452e-06 6.69865e-22 0.00024283 -5.98641e-23 0.000276184)
(0.000325272 -6.05431e-06 -2.28618e-22 0.000252305 2.23242e-23 0.000286932)
(0.000337972 -1.11321e-05 -6.25133e-22 0.000263974 2.44016e-23 0.000299478)
(0.000351047 -1.68812e-05 8.89673e-22 0.000277455 -7.53431e-23 0.000312975)
(0.000364266 -2.36853e-05 1.23797e-22 0.00029366 -1.66163e-23 0.00032822)
(0.000370698 -3.052e-05 1.17302e-21 0.000306953 -1.11383e-22 0.000337906)
(0.000368616 -3.67471e-05 -8.30938e-22 0.000319461 8.28905e-23 0.000344693)
(0.000747173 -4.42429e-05 -3.9786e-22 0.000598991 -2.94707e-23 0.000671717)
(0.000789266 -6.95571e-05 -1.63054e-21 0.00066485 -2.86145e-22 0.000729261)
(0.00079729 -8.80887e-05 -8.58836e-23 0.000716027 -1.17518e-22 0.000756651)
(0.000821254 -0.000102018 -2.33392e-22 0.00078973 -9.97231e-23 0.000805225)
(0.000842006 -0.0001088 2.25423e-21 0.000868689 5.14846e-22 0.000855503)