/*--------------------------------*- C++ -*----------------------------------*\
| =========                 |                                                 |
| \\      /  F ield         | OpenFOAM: The Open Source CFD Toolbox           |
|  \\    /   O peration     | Version:  2312                                  |
|   \\  /    A nd           | Website:  www.openfoam.com                      |
|    \\/     M anipulation  |                                                 |
\*---------------------------------------------------------------------------*/
FoamFile
{
    version     2.0;
    format      ascii;
    arch        "LSB;label=32;scalar=64";
    class       volScalarField;
    location    "249";
    object      turbulenceProperties:I;
}
// * * * * * * * * * * * * * * * * * * * * * * * * * * * * * * * * * * * * * //

dimensions      [0 0 0 0 0 0 0];

internalField   nonuniform List<scalar> 
11040
(
0.0659698
0.0617509
0.076123
0.100327
0.132692
0.174141
0.217365
0.248403
0.263741
0.268565
0.268475
0.2667
0.264635
0.262814
0.261488
0.260717
0.260454
0.260601
0.261081
0.261838
0.262958
0.264188
0.265061
0.265552
0.26593
0.266368
0.266913
0.267558
0.268306
0.269171
0.270183
0.271383
0.272825
0.274603
0.276855
0.279759
0.283631
0.2889
0.297111
0.307872
0.342485
0.0380196
0.026071
0.0217324
0.0188117
0.0182798
0.0209802
0.0262806
0.0323264
0.0381199
0.0432699
0.0476717
0.0514474
0.0547318
0.0576503
0.0603575
0.06293
0.0654099
0.0678172
0.0701992
0.072614
0.0752634
0.077974
0.0802293
0.0818958
0.0832271
0.0844662
0.0857189
0.0870154
0.0883856
0.0898674
0.0915089
0.0933723
0.0955329
0.098107
0.101272
0.105248
0.110432
0.117254
0.127644
0.140269
0.178855
0.028671
0.0183778
0.0118422
0.0106545
0.0107167
0.0103932
0.00987058
0.00929698
0.0087135
0.00817624
0.00743338
0.00635327
0.00724327
0.0114039
0.0161009
0.0209216
0.0257901
0.0306467
0.0354442
0.0401398
0.0447683
0.0492361
0.0532921
0.0567992
0.0598038
0.06244
0.0648002
0.0669574
0.0689784
0.0709271
0.0728598
0.074834
0.0769112
0.0791649
0.0817039
0.0846544
0.0882782
0.0927212
0.0994757
0.106662
0.130398
0.0212394
0.0169151
0.0136121
0.0116263
0.0102153
0.00905641
0.00808139
0.00724051
0.00647445
0.00572588
0.00498207
0.00424652
0.00354632
0.00292648
0.00252385
0.00270994
0.00359115
0.00498768
0.00688171
0.00926855
0.0122224
0.0156
0.0190637
0.0225008
0.0259061
0.0292846
0.0326284
0.0359234
0.0391681
0.0423716
0.0455542
0.0487481
0.051995
0.0553641
0.0589484
0.0628507
0.0672631
0.0723364
0.0790631
0.0860414
0.10328
0.0160007
0.014154
0.0118579
0.00963501
0.00776347
0.00650377
0.00586099
0.00558423
0.00543183
0.00528107
0.00510263
0.00489976
0.00467187
0.00443265
0.0041908
0.00394928
0.0037082
0.00346787
0.00322982
0.00299744
0.00276576
0.00250146
0.00219138
0.00234692
0.00344376
0.00493559
0.00664619
0.00853943
0.0106099
0.012865
0.0153205
0.0180008
0.0209351
0.0241821
0.0278176
0.0319335
0.0366737
0.042243
0.0493238
0.0569628
0.0725456
0.0122157
0.0115411
0.01048
0.00928418
0.00817547
0.00725989
0.0065229
0.00592279
0.00542294
0.00499377
0.00461421
0.00426793
0.00393356
0.00360541
0.00328835
0.00298574
0.00270203
0.00244662
0.00223282
0.00207933
0.0019856
0.00191908
0.0018518
0.00179428
0.00175851
0.00173924
0.00173528
0.00175528
0.00181721
0.00194931
0.0021928
0.00260247
0.00324285
0.00419453
0.00554277
0.00737847
0.00981647
0.0130727
0.0177178
0.0231406
0.0350541
0.00951127
0.00931042
0.00886123
0.00820063
0.00737845
0.00652798
0.00574948
0.00509501
0.00458033
0.00419994
0.00393394
0.00375399
0.00362946
0.00353052
0.0034387
0.00334768
0.00325615
0.00316488
0.00307496
0.00298675
0.00289782
0.00279689
0.00268303
0.0025757
0.00249035
0.00242269
0.00236537
0.00231504
0.0022696
0.00222642
0.0021827
0.00213579
0.0020839
0.00202775
0.001974
0.00194689
0.00199532
0.00223188
0.00305045
0.00426817
0.00968326
0.00751729
0.00750275
0.00735011
0.0070907
0.00667626
0.00617676
0.00567474
0.00521442
0.00480825
0.00445357
0.00414314
0.00386946
0.00362626
0.0034062
0.00320205
0.00301336
0.00284016
0.00268154
0.00253688
0.0024062
0.00229003
0.00218584
0.00209158
0.00201468
0.0019647
0.00194029
0.00193486
0.00194385
0.0019652
0.00199738
0.00203881
0.00208771
0.00214173
0.0021971
0.00224772
0.00228431
0.00229127
0.00223451
0.00214033
0.00180798
0.00191952
0.00601543
0.00607348
0.00603602
0.00597318
0.0057999
0.00551615
0.00516715
0.00479604
0.00443283
0.0040952
0.0037935
0.00353117
0.00330984
0.00313128
0.00299389
0.00288957
0.00280801
0.00274163
0.00268508
0.00263429
0.0025842
0.00253017
0.00247092
0.00241159
0.00236177
0.00232421
0.00229639
0.00227643
0.00226419
0.00225996
0.002264
0.00227671
0.00229852
0.0023302
0.00237197
0.00242353
0.0024819
0.00253635
0.00258159
0.00253947
0.0023791
0.00485783
0.00494299
0.00494434
0.00496798
0.00493789
0.00482781
0.00465257
0.00443735
0.00420494
0.00397282
0.00375151
0.00354499
0.00335456
0.00318087
0.00302272
0.0028775
0.00274355
0.00262091
0.00250908
0.00240652
0.00231337
0.00222938
0.00215178
0.00208195
0.00202548
0.00198474
0.00195816
0.00194367
0.00194035
0.00194793
0.00196615
0.00199468
0.00203322
0.00208174
0.00214001
0.00220747
0.00228335
0.00236477
0.00245327
0.00252248
0.00257515
0.00395139
0.00404384
0.0040546
0.0041055
0.00413912
0.00412388
0.00405757
0.00394728
0.00380405
0.00364073
0.00346914
0.00329749
0.00313166
0.00297655
0.00283597
0.00271273
0.00260812
0.00252098
0.00244839
0.00238712
0.00233339
0.00228508
0.00224077
0.00219985
0.00216539
0.00213951
0.00212175
0.0021107
0.00210547
0.00210572
0.00211125
0.00212181
0.00213715
0.00215695
0.00218079
0.0022079
0.00223726
0.00226589
0.00229419
0.0023068
0.00232595
0.00323227
0.00332223
0.00333302
0.00338696
0.00344285
0.00347421
0.00347505
0.00344422
0.003384
0.0033001
0.00320039
0.00309159
0.00297893
0.00286681
0.00275834
0.00265527
0.00255812
0.00246671
0.00238088
0.00230052
0.00222644
0.00216012
0.00210052
0.00204642
0.00199934
0.00196084
0.00193113
0.00190953
0.00189544
0.00188858
0.00188874
0.00189562
0.00190877
0.00192777
0.00195188
0.00197971
0.00200945
0.00203848
0.00206379
0.00207539
0.00208164
0.00265599
0.00273841
0.0027472
0.00279547
0.00285351
0.00290103
0.00293286
0.00294549
0.00293636
0.00290572
0.00285662
0.00279301
0.00271891
0.00263843
0.00255528
0.00247262
0.00239317
0.0023189
0.00225111
0.00218997
0.00213492
0.00208676
0.00204519
0.00200872
0.0019778
0.0019531
0.00193463
0.00192179
0.00191382
0.00191007
0.00190994
0.00191276
0.00191784
0.00192424
0.00193097
0.0019368
0.00194022
0.00193919
0.00193159
0.00191216
0.00188907
0.00219002
0.00226278
0.00226983
0.00231041
0.00236287
0.00241206
0.00245482
0.00248818
0.00250872
0.0025144
0.00250533
0.00248285
0.00244891
0.00240605
0.00235687
0.00230377
0.00224876
0.00219331
0.00213837
0.00208445
0.00203254
0.00198482
0.0019418
0.00190244
0.00186705
0.00183608
0.00180968
0.00178763
0.00176963
0.00175536
0.00174448
0.0017366
0.00173128
0.00172803
0.00172618
0.00172479
0.00172267
0.00171865
0.00171085
0.0016957
0.00167884
0.00181065
0.00187295
0.00187903
0.00191227
0.00195686
0.00200152
0.00204451
0.00208393
0.00211685
0.00214075
0.00215435
0.00215731
0.00214995
0.00213326
0.00210863
0.0020777
0.00204223
0.00200384
0.00196403
0.00192393
0.00188449
0.00184795
0.00181526
0.00178561
0.0017592
0.00173624
0.00171677
0.00170057
0.00168728
0.00167647
0.00166765
0.00166026
0.00165362
0.00164697
0.00163949
0.00163036
0.00161863
0.00160328
0.0015833
0.00155678
0.00153001
0.00150028
0.00155217
0.00155795
0.0015848
0.00162141
0.00165954
0.00169831
0.00173661
0.00177237
0.0018035
0.00182852
0.00184655
0.0018571
0.00186016
0.00185613
0.00184575
0.00182999
0.00180987
0.00178639
0.00176044
0.0017329
0.00170568
0.00167973
0.00165474
0.00163106
0.00160891
0.00158832
0.00156922
0.00155146
0.00153481
0.00151899
0.00150376
0.00148884
0.00147392
0.00145868
0.00144281
0.00142587
0.00140762
0.00138747
0.00136459
0.00134245
0.00124741
0.0012894
0.00129541
0.00131697
0.00134637
0.00137786
0.00141092
0.0014449
0.00147837
0.00150981
0.00153797
0.00156194
0.00158098
0.00159458
0.00160256
0.00160501
0.00160229
0.00159492
0.00158353
0.00156879
0.00155123
0.00153248
0.00151378
0.00149514
0.00147696
0.00145951
0.0014429
0.00142715
0.00141222
0.00139799
0.0013843
0.00137088
0.00135753
0.00134386
0.00132943
0.00131396
0.00129718
0.00127866
0.00125808
0.00123516
0.00121263
0.00104774
0.00108101
0.00108727
0.0011049
0.00112856
0.00115441
0.00118213
0.00121122
0.0012407
0.00126951
0.00129674
0.00132166
0.0013436
0.00136201
0.00137648
0.00138682
0.00139299
0.00139512
0.00139346
0.00138835
0.00138007
0.00136967
0.00135803
0.00134526
0.00133176
0.0013178
0.00130353
0.001289
0.00127423
0.00125918
0.00124378
0.00122792
0.00121153
0.00119451
0.00117677
0.00115828
0.00113908
0.00111925
0.00109868
0.00107751
0.00105676
0.000893365
0.000919782
0.000925838
0.000940516
0.000959906
0.000981357
0.00100465
0.00102939
0.00105485
0.00108026
0.00110495
0.00112835
0.00114992
0.00116913
0.00118557
0.00119892
0.00120898
0.00121567
0.00121902
0.00121914
0.00121604
0.0012104
0.00120298
0.00119399
0.00118385
0.00117286
0.00116122
0.00114908
0.00113652
0.00112361
0.00111038
0.00109681
0.0010829
0.00106859
0.00105382
0.00103859
0.00102288
0.00100654
0.000989542
0.000971956
0.000954587
0.000772592
0.000793612
0.000799316
0.000811619
0.000827675
0.000845621
0.000865272
0.000886286
0.000908099
0.000930135
0.000951879
0.000972899
0.000992772
0.00101108
0.00102744
0.00104155
0.00105317
0.00106215
0.00106838
0.00107188
0.00107254
0.00107074
0.00106699
0.00106148
0.00105452
0.00104637
0.00103721
0.00102716
0.00101634
0.00100482
0.000992645
0.000979847
0.000966482
0.000952555
0.000938065
0.000923066
0.000907699
0.000891926
0.000875738
0.000859353
0.000843102
0.000675354
0.000692125
0.000697364
0.000707692
0.000721089
0.000736212
0.000752877
0.000770774
0.000789449
0.000808449
0.000827367
0.000845864
0.000863603
0.000880243
0.000895467
0.000908998
0.000920603
0.000930092
0.000937326
0.000942229
0.000944622
0.000944702
0.000942856
0.00093923
0.000934116
0.00092774
0.000920289
0.000911921
0.000902773
0.000892956
0.000882561
0.000871659
0.000860339
0.000848631
0.000836569
0.000824228
0.000811724
0.000798983
0.00078606
0.000772958
0.000760525
0.000595439
0.000608862
0.000613613
0.000622316
0.000633585
0.000646425
0.000660643
0.000675952
0.000691976
0.000708347
0.000724735
0.000740864
0.000756464
0.000771259
0.000784988
0.000797417
0.00080834
0.000817578
0.000824985
0.000830466
0.000833833
0.000835185
0.00083479
0.000832756
0.000829308
0.000824627
0.000818869
0.00081217
0.000804652
0.000796417
0.000787553
0.000778127
0.000768232
0.000757912
0.000747201
0.000736166
0.000724959
0.000713513
0.000701905
0.000689966
0.000678964
0.00052862
0.00053938
0.000543639
0.000550994
0.000560534
0.000571503
0.000583697
0.000596848
0.000610638
0.000624761
0.000638938
0.000652941
0.000666547
0.000679527
0.000691667
0.000702769
0.000712655
0.000721163
0.000728156
0.00073353
0.000737099
0.000738904
0.000739149
0.000737912
0.000735373
0.000731689
0.000726998
0.000721431
0.000715109
0.000708137
0.000700612
0.000692612
0.000684234
0.000675528
0.000666542
0.000657347
0.000648077
0.000638657
0.000629196
0.000619415
0.000610978
0.000471968
0.000480597
0.000484384
0.000490621
0.000498748
0.000508175
0.000518687
0.000530037
0.00054195
0.000554163
0.000566441
0.000578587
0.000590415
0.000601735
0.000612367
0.000622146
0.000630923
0.000638558
0.000644931
0.000649946
0.000653442
0.000655438
0.000656093
0.000655461
0.000653688
0.000650899
0.000647209
0.000642731
0.000637568
0.00063181
0.000625542
0.000618833
0.000611767
0.000604393
0.00059675
0.000588893
0.000580955
0.000572861
0.000564733
0.000556125
0.000549199
0.000423366
0.000430281
0.000433623
0.000438931
0.000445894
0.00045404
0.000463146
0.000472983
0.000483311
0.000493903
0.000504553
0.000515092
0.00052536
0.000535197
0.000544451
0.000552984
0.000560669
0.000567388
0.000573037
0.000577531
0.000580728
0.000582641
0.000583398
0.000583042
0.000581686
0.000579438
0.000576395
0.000572655
0.000568312
0.000563448
0.000558141
0.000552456
0.000546472
0.000540234
0.000533782
0.00052717
0.000520509
0.00051373
0.000506962
0.000499729
0.000494347
0.000381252
0.000386784
0.000389717
0.000394252
0.000400252
0.000407327
0.000415253
0.000423817
0.000432806
0.000442021
0.000451282
0.00046044
0.000469358
0.000477898
0.000485932
0.000493345
0.000500028
0.000505883
0.000510823
0.000514776
0.000517625
0.000519382
0.000520161
0.000519993
0.000518971
0.000517185
0.000514717
0.000511649
0.000508062
0.000504025
0.000499606
0.000494859
0.000489852
0.000484624
0.000479208
0.000473646
0.000468038
0.00046232
0.000456621
0.00045039
0.00044617
0.000344447
0.000348857
0.000351422
0.000355314
0.000360515
0.000366692
0.000373623
0.000381109
0.000388963
0.000397007
0.000405082
0.000413056
0.00042081
0.000428225
0.000435192
0.000441613
0.000447398
0.000452464
0.000456738
0.00046016
0.000462633
0.000464173
0.000464882
0.000464782
0.000463952
0.000462465
0.000460393
0.000457807
0.000454773
0.000451353
0.000447605
0.000443578
0.00043933
0.000434895
0.000430303
0.000425592
0.000420844
0.000416004
0.000411195
0.000405888
0.000402572
0.000312042
0.000315542
0.000317779
0.000321139
0.000325675
0.000331096
0.000337186
0.00034376
0.000350649
0.000357696
0.000364757
0.000371717
0.000378471
0.000384917
0.000390962
0.000396521
0.00040152
0.000405889
0.000409569
0.00041251
0.000414634
0.000415962
0.000416588
0.000416529
0.000415851
0.000414618
0.000412889
0.000410725
0.000408183
0.000405315
0.00040217
0.00039879
0.000395222
0.000391498
0.000387641
0.000383682
0.000379691
0.000375621
0.000371584
0.000367055
0.000364494
0.000283325
0.000286086
0.000288039
0.000290958
0.00029494
0.000299725
0.000305102
0.000310902
0.000316969
0.000323164
0.000329359
0.000335451
0.000341348
0.000346961
0.00035221
0.000357025
0.000361342
0.000365104
0.000368262
0.000370776
0.000372582
0.000373706
0.000374235
0.000374181
0.000373601
0.000372549
0.000371076
0.000369233
0.00036707
0.000364629
0.000361953
0.000359077
0.000356042
0.000352872
0.000349592
0.000346224
0.000342826
0.000339361
0.000335929
0.000332053
0.000330017
0.000257733
0.000259895
0.000261604
0.000264162
0.000267682
0.000271931
0.000276703
0.000281843
0.000287209
0.000292676
0.00029813
0.000303479
0.000308641
0.00031354
0.000318108
0.000322284
0.000326016
0.000329256
0.000331966
0.000334112
0.000335643
0.00033659
0.000337032
0.000336982
0.000336484
0.000335588
0.000334338
0.000332776
0.000330944
0.000328879
0.000326617
0.000324187
0.000321624
0.000318949
0.000316181
0.00031334
0.000310473
0.00030755
0.000304659
0.000301362
0.000299779
0.00023481
0.00023649
0.000237993
0.000240256
0.000243393
0.000247189
0.000251449
0.000256025
0.000260793
0.000265637
0.000270456
0.000275167
0.0002797
0.000283988
0.000287973
0.000291603
0.000294835
0.00029763
0.000299956
0.000301789
0.000303086
0.00030388
0.000304246
0.000304192
0.000303758
0.000302985
0.000301913
0.000300577
0.000299012
0.00029725
0.000295321
0.000293249
0.000291064
0.000288783
0.000286423
0.000284002
0.000281555
0.00027906
0.000276593
0.000273772
0.000272492
0.000214188
0.000215481
0.000216815
0.00021884
0.000221661
0.000225075
0.000228898
0.000232994
0.000237249
0.000241559
0.000245833
0.000249999
0.000253993
0.000257758
0.000261244
0.000264409
0.000267216
0.000269634
0.000271637
0.000273207
0.00027431
0.000274979
0.000275284
0.000275232
0.000274857
0.000274196
0.000273281
0.000272144
0.000270815
0.00026932
0.000267684
0.000265929
0.000264078
0.000262148
0.000260151
0.000258102
0.000256032
0.000253922
0.000251836
0.000249442
0.000248429
0.000195563
0.000196549
0.000197748
0.000199584
0.000202143
0.000205235
0.000208687
0.000212373
0.000216188
0.000220039
0.000223846
0.000227543
0.000231076
0.000234394
0.000237455
0.000240224
0.000242671
0.000244771
0.000246503
0.000247854
0.000248798
0.000249365
0.000249624
0.000249577
0.000249254
0.000248688
0.000247906
0.000246936
0.000245803
0.000244528
0.000243135
0.00024164
0.000240063
0.000238418
0.000236717
0.000234971
0.000233204
0.000231404
0.000229623
0.000227582
0.000226744
0.000178683
0.00017943
0.000180526
0.000182214
0.000184557
0.000187378
0.000190513
0.000193847
0.000197284
0.000200742
0.000204147
0.000207442
0.000210579
0.000213515
0.000216215
0.000218649
0.000220792
0.000222624
0.000224132
0.000225303
0.000226118
0.000226608
0.000226834
0.0002268
0.00022653
0.000226053
0.000225394
0.000224576
0.000223619
0.000222544
0.000221368
0.000220107
0.000218776
0.000217388
0.000215953
0.00021448
0.000212987
0.000211468
0.000209964
0.00020824
0.000207571
0.000163339
0.000163903
0.000164924
0.000166499
0.000168665
0.000171257
0.000174121
0.000177153
0.000180265
0.000183382
0.000186442
0.000189392
0.00019219
0.0001948
0.000197193
0.000199342
0.000201229
0.000202839
0.00020416
0.000205185
0.000205898
0.000206328
0.000206533
0.000206513
0.000206291
0.000205892
0.000205337
0.000204646
0.000203838
0.000202927
0.000201931
0.000200861
0.000199732
0.000198554
0.000197334
0.000196083
0.000194813
0.00019352
0.000192238
0.000190777
0.000190202
0.000149355
0.000149784
0.000150756
0.000152246
0.000154267
0.000156664
0.000159296
0.000162065
0.000164895
0.000167719
0.00017048
0.000173133
0.000175641
0.000177974
0.000180105
0.000182014
0.000183687
0.000185112
0.000186281
0.00018719
0.000187826
0.000188216
0.000188413
0.00018842
0.000188253
0.000187935
0.000187486
0.000186921
0.000186256
0.000185506
0.000184681
0.000183795
0.000182858
0.000181879
0.000180864
0.000179822
0.000178763
0.000177684
0.000176614
0.000175392
0.000174955
0.000136582
0.000136919
0.000137863
0.000139291
0.000141191
0.00014342
0.000145849
0.000148391
0.000150976
0.000153545
0.000156047
0.000158443
0.000160702
0.000162796
0.000164706
0.000166414
0.000167909
0.000169181
0.000170225
0.00017104
0.000171615
0.000171973
0.000172165
0.00017219
0.000172064
0.000171807
0.000171436
0.000170964
0.000170406
0.000169774
0.000169079
0.000168331
0.000167538
0.000166709
0.00016585
0.000164968
0.000164069
0.000163155
0.000162245
0.000161222
0.000160798
0.000124895
0.000125176
0.000126112
0.000127496
0.000129292
0.000131371
0.00013362
0.00013596
0.000138329
0.000140675
0.000142952
0.000145127
0.000147171
0.000149062
0.000150783
0.000152322
0.000153669
0.000154818
0.000155767
0.000156514
0.000157054
0.000157408
0.000157621
0.000157694
0.000157639
0.000157474
0.000157211
0.000156864
0.000156443
0.000155958
0.000155418
0.00015483
0.000154204
0.000153545
0.000152859
0.00015215
0.000151426
0.000150687
0.000149952
0.000149106
0.000148869
0.000114186
0.000114442
0.000115386
0.000116738
0.000118443
0.000120388
0.000122471
0.000124624
0.000126795
0.00012894
0.00013102
0.000133003
0.000134864
0.000136584
0.000138147
0.000139543
0.000140767
0.000141812
0.000142678
0.000143363
0.000143862
0.000144191
0.000144392
0.000144466
0.000144424
0.000144282
0.000144055
0.000143753
0.000143387
0.000142967
0.000142501
0.000141996
0.000141459
0.000140896
0.000140312
0.00013971
0.000139095
0.000138472
0.000137842
0.000137163
0.000136794
0.000104369
0.000104624
0.000105583
0.000106905
0.000108525
0.000110347
0.00011228
0.000114264
0.000116251
0.000118206
0.000120098
0.000121903
0.000123602
0.000125176
0.000126611
0.000127897
0.000129029
0.000130005
0.000130827
0.000131498
0.000132018
0.000132403
0.000132688
0.000132871
0.000132961
0.000132967
0.0001329
0.000132766
0.000132572
0.000132326
0.000132033
0.0001317
0.000131332
0.000130935
0.000130513
0.000130069
0.000129609
0.000129133
0.000128662
0.000128084
0.000128096
9.5377e-05
9.56523e-05
9.66266e-05
9.79068e-05
9.94278e-05
0.000101116
0.000102901
0.000104731
0.000106561
0.000108356
0.000110083
0.000111722
0.00011326
0.000114688
0.000115998
0.000117182
0.00011823
0.000119135
0.00011989
0.000120492
0.000120936
0.000121235
0.000121425
0.000121512
0.000121508
0.000121429
0.000121289
0.000121098
0.000120865
0.000120598
0.000120303
0.000119985
0.000119649
0.000119298
0.000118935
0.000118564
0.000118183
0.000117803
0.000117401
0.000117036
0.000116564
8.71541e-05
8.74718e-05
8.84688e-05
8.97013e-05
9.11015e-05
9.26197e-05
9.42097e-05
9.58431e-05
9.74969e-05
9.91434e-05
0.000100751
0.000102287
0.000103726
0.00010505
0.000106255
0.000107345
0.00010833
0.00010922
0.000110024
0.000110748
0.000111386
0.000111941
0.000112433
0.00011285
0.000113189
0.000113451
0.00011364
0.000113759
0.000113812
0.000113804
0.00011374
0.000113627
0.000113471
0.000113276
0.000113049
0.000112792
0.000112516
0.000112214
0.000111929
0.000111465
0.000111902
7.96393e-05
8.00085e-05
8.10257e-05
8.22191e-05
8.35184e-05
8.48787e-05
8.62562e-05
8.76326e-05
8.90065e-05
9.03826e-05
9.1763e-05
9.31415e-05
9.44992e-05
9.58038e-05
9.70161e-05
9.80977e-05
9.90193e-05
9.97647e-05
0.000100332
0.000100732
0.000100972
0.000101079
0.000101096
0.000101047
0.00010095
0.000100823
0.000100678
0.000100525
0.000100372
0.000100222
0.000100078
9.99421e-05
9.98135e-05
9.96932e-05
9.95791e-05
9.94729e-05
9.93645e-05
9.92741e-05
9.9131e-05
9.91919e-05
9.82914e-05
7.27821e-05
7.31694e-05
7.41309e-05
7.52211e-05
7.64091e-05
7.76733e-05
7.89628e-05
8.02316e-05
8.14449e-05
8.25807e-05
8.36366e-05
8.46314e-05
8.55997e-05
8.65819e-05
8.76128e-05
8.87129e-05
8.98845e-05
9.11121e-05
9.2368e-05
9.36173e-05
9.48292e-05
9.59691e-05
9.70243e-05
9.79625e-05
9.877e-05
9.94445e-05
9.99885e-05
0.000100407
0.000100709
0.000100902
0.000100997
0.000101005
0.000100936
0.000100798
0.000100601
0.000100349
0.000100063
9.97208e-05
9.94321e-05
9.87397e-05
9.99372e-05
6.66056e-05
6.69891e-05
6.78011e-05
6.86077e-05
6.94366e-05
7.03515e-05
7.13841e-05
7.25496e-05
7.38344e-05
7.51871e-05
7.65253e-05
7.77546e-05
7.87888e-05
7.95673e-05
8.00649e-05
8.02929e-05
8.02921e-05
8.01209e-05
7.98404e-05
7.95142e-05
7.91535e-05
7.87927e-05
7.84528e-05
7.81624e-05
7.79257e-05
7.77418e-05
7.76128e-05
7.75433e-05
7.75369e-05
7.75951e-05
7.77182e-05
7.79053e-05
7.81522e-05
7.84568e-05
7.88123e-05
7.92169e-05
7.96481e-05
8.01451e-05
8.05283e-05
8.15216e-05
7.95998e-05
6.12243e-05
6.17285e-05
6.25738e-05
6.32354e-05
6.36808e-05
6.39716e-05
6.41694e-05
6.43523e-05
6.46132e-05
6.50557e-05
6.57868e-05
6.68991e-05
6.84451e-05
7.04159e-05
7.2739e-05
7.52967e-05
7.79535e-05
8.05812e-05
8.30771e-05
8.53548e-05
8.74105e-05
8.92263e-05
9.0786e-05
9.208e-05
9.31291e-05
9.39599e-05
9.45973e-05
9.50638e-05
9.53796e-05
9.55621e-05
9.56261e-05
9.55836e-05
9.54464e-05
9.5221e-05
9.49175e-05
9.45386e-05
9.41083e-05
9.35855e-05
9.31518e-05
9.21076e-05
9.3937e-05
5.66899e-05
5.7392e-05
5.8493e-05
5.95007e-05
6.02719e-05
6.07412e-05
6.08567e-05
6.06134e-05
6.00606e-05
5.92951e-05
5.84521e-05
5.76898e-05
5.71619e-05
5.698e-05
5.71808e-05
5.7717e-05
5.84796e-05
5.93389e-05
6.01793e-05
6.09279e-05
6.15054e-05
6.18944e-05
6.19977e-05
6.18913e-05
6.1635e-05
6.12745e-05
6.0861e-05
6.04522e-05
6.01027e-05
5.98575e-05
5.97507e-05
5.9805e-05
6.00318e-05
6.04302e-05
6.09925e-05
6.17065e-05
6.25476e-05
6.3526e-05
6.44749e-05
6.60689e-05
6.52344e-05
5.284e-05
5.31788e-05
5.38668e-05
5.54922e-05
5.86484e-05
6.32347e-05
6.85916e-05
7.40607e-05
7.92147e-05
8.38263e-05
8.77926e-05
9.10816e-05
9.37022e-05
9.56873e-05
9.70853e-05
9.79549e-05
9.83611e-05
9.83708e-05
9.80514e-05
9.74582e-05
9.66631e-05
9.59307e-05
9.5116e-05
9.42996e-05
9.35225e-05
9.28064e-05
9.21635e-05
9.15961e-05
9.10976e-05
9.06548e-05
9.02509e-05
8.98674e-05
8.9484e-05
8.90738e-05
8.86321e-05
8.81467e-05
8.75926e-05
8.69519e-05
8.61525e-05
8.56869e-05
8.39278e-05
0.119945
0.0807191
0.0642065
0.0589966
0.0577573
0.056463
0.0546931
0.0526789
0.050472
0.0480778
0.045528
0.0428448
0.0400304
0.0370753
0.033962
0.0306602
0.0271232
0.0232804
0.01902
0.014322
0.0113165
0.0143785
0.0182246
0.0213717
0.023919
0.0259922
0.0276738
0.0290208
0.0300779
0.0308754
0.031433
0.0317657
0.0318846
0.0318002
0.0315242
0.031067
0.0304365
0.0296393
0.0286803
0.0275642
0.026296
0.0248811
0.0233249
0.0216336
0.019815
0.0178806
0.0158477
0.0137413
0.0115982
0.00946839
0.00741393
0.00550708
0.00381975
0.0024106
0.00130254
0.00050013
9.72285e-05
4.65113e-05
7.84237e-05
0.000133137
0.000168806
0.000162442
0.000116152
3.75152e-05
9.85968e-05
0.000114914
0.000114849
0.000108017
9.91593e-05
9.046e-05
8.32634e-05
7.65485e-05
7.32816e-05
7.04471e-05
0.174738
0.13411
0.111898
0.1011
0.0936622
0.0875049
0.0822998
0.0778011
0.0737702
0.0700582
0.0665828
0.0632865
0.0601218
0.057049
0.054033
0.0510444
0.0480582
0.0450494
0.0419946
0.0388766
0.0356666
0.0323408
0.0288561
0.0251443
0.0210934
0.016497
0.0109838
0.00894117
0.0138881
0.0175954
0.0203692
0.0225107
0.024173
0.0254471
0.026395
0.027058
0.0274642
0.027634
0.027583
0.0273254
0.026875
0.0262434
0.0254402
0.0244733
0.0233492
0.022074
0.0206547
0.0190995
0.0174189
0.0156282
0.0137489
0.0118119
0.00986023
0.00794776
0.0061377
0.00449519
0.00307683
0.00191818
0.00101668
0.000379983
8.20265e-05
2.81941e-05
5.5866e-05
0.000100671
0.000135952
0.000141652
0.000114559
5.19247e-05
8.21899e-05
0.000109508
0.000117408
0.000114149
0.000108697
9.59545e-05
0.138529
0.120291
0.107322
0.0999561
0.0940038
0.0887612
0.0843031
0.0804804
0.0771004
0.0740407
0.0712272
0.0686031
0.0661199
0.0637383
0.0614258
0.0591551
0.0569019
0.0546434
0.0523642
0.0500482
0.0476799
0.04526
0.0427787
0.0402223
0.0375761
0.0348249
0.0319496
0.0289297
0.0257374
0.022314
0.0185482
0.0142084
0.00872231
0.00807153
0.0128582
0.0160987
0.0184771
0.0202768
0.0216339
0.0226308
0.0233227
0.0237469
0.0239298
0.0238912
0.0236459
0.0232076
0.0225888
0.0218001
0.0208507
0.019749
0.0185031
0.0171225
0.0156204
0.0140147
0.0123306
0.0106023
0.00887294
0.00719241
0.00561435
0.00418885
0.00295589
0.00193788
0.00112935
0.0005136
0.000153735
2.64837e-05
1.78238e-05
4.43903e-05
8.15692e-05
0.000109478
0.00011521
9.63418e-05
5.06902e-05
8.66365e-05
0.105356
0.0924648
0.0829712
0.077656
0.0735309
0.070032
0.0672152
0.064952
0.0630845
0.0615128
0.06017
0.0589998
0.057952
0.0569837
0.0560578
0.0551427
0.0542116
0.0532421
0.0522147
0.0511089
0.049915
0.0486229
0.0472288
0.0457384
0.0441554
0.0424772
0.0406974
0.038809
0.0368076
0.0346883
0.0324439
0.0300647
0.0275365
0.0248448
0.0219663
0.0188453
0.0153648
0.0112473
0.00568697
0.00838847
0.0122068
0.0147951
0.0166954
0.0181154
0.0191578
0.0198871
0.020347
0.0205678
0.0205714
0.0203745
0.0199902
0.0194298
0.0187041
0.0178234
0.0167982
0.0156407
0.014366
0.0129933
0.0115477
0.0100605
0.00856826
0.00711086
0.00572901
0.00446005
0.00333406
0.00237108
0.00157633
0.000934589
0.000433613
0.000134138
2.2208e-05
9.36376e-07
9.96988e-06
5.44635e-05
0.0708359
0.060443
0.0524338
0.0477146
0.0442584
0.0415484
0.0395559
0.0381356
0.0371462
0.036507
0.0361652
0.0360758
0.0361986
0.0364964
0.0369335
0.0374741
0.0380817
0.0387196
0.0393511
0.0399421
0.0404589
0.0408633
0.0411308
0.0412335
0.0411548
0.0408921
0.0404472
0.0398262
0.0390378
0.0380918
0.0369977
0.035763
0.034393
0.0328911
0.0312613
0.0295054
0.0276212
0.0256032
0.0234386
0.0211179
0.0186181
0.0158861
0.0128077
0.00909332
0.00385389
0.00780437
0.010912
0.013033
0.014585
0.0157309
0.0165529
0.017102
0.0174134
0.0175121
0.0174167
0.0171414
0.0166985
0.016099
0.0153545
0.0144785
0.0134866
0.0123972
0.0112316
0.010015
0.0087751
0.007541
0.00634231
0.00520734
0.00416086
0.00322177
0.00240521
0.00170459
0.00116744
0.000470468
0.0339132
0.0277
0.0225956
0.0194556
0.0171349
0.0152827
0.013895
0.0128762
0.0121318
0.0116176
0.0113112
0.0111966
0.0112637
0.0115074
0.0119251
0.0125152
0.0132754
0.0142019
0.0152872
0.0165199
0.0178827
0.0193555
0.0209088
0.0225075
0.0241075
0.0256653
0.0271248
0.0284411
0.0295794
0.030513
0.0312202
0.0316913
0.0319253
0.0319276
0.0317089
0.0312824
0.0306628
0.0298642
0.0288982
0.0277765
0.0265104
0.0251089
0.0235776
0.0219187
0.0201265
0.0181994
0.016123
0.0138591
0.011325
0.00831803
0.00406655
0.00588357
0.00877219
0.010675
0.0120507
0.0130602
0.0137816
0.0142594
0.0145243
0.014599
0.0145014
0.0142461
0.0138466
0.0133159
0.0126678
0.0119174
0.0110811
0.0101773
0.00922626
0.00824744
0.00726973
0.00627929
0.00544967
0.00412148
0.00918737
0.00663285
0.00448549
0.0032134
0.00236726
0.00174243
0.00131134
0.00101942
0.000814157
0.00066718
0.000563092
0.000491164
0.000444476
0.000419518
0.000415369
0.000433494
0.000478346
0.000558655
0.000689332
0.000893613
0.00120416
0.00165982
0.00229084
0.00309913
0.00405913
0.00514711
0.00637959
0.00776192
0.00928327
0.0109193
0.0126374
0.0143915
0.0161315
0.0178076
0.0193735
0.0207874
0.0220161
0.0230354
0.0238294
0.0243905
0.0247191
0.0248215
0.0247086
0.024394
0.0238911
0.023214
0.0223777
0.0213955
0.0202784
0.0190348
0.0176681
0.0161831
0.0145797
0.0128443
0.0109425
0.00879612
0.00619588
0.00225314
0.00539208
0.00751614
0.00894968
0.00998706
0.0107404
0.0112664
0.0115992
0.0117617
0.0117726
0.0116475
0.011401
0.0110448
0.0106001
0.0100476
0.00953267
0.00855721
0.00176867
0.00143093
0.00112359
0.000969296
0.000894979
0.000808978
0.000725364
0.000657207
0.000603395
0.000562297
0.000532809
0.000513324
0.000502904
0.000499753
0.000501169
0.000504853
0.000509177
0.000512822
0.000514536
0.000512979
0.000506558
0.000493155
0.000469743
0.000431551
0.000370003
0.000266952
0.000228837
0.000427456
0.000633699
0.000882276
0.0012147
0.0016752
0.00229359
0.00306977
0.00399389
0.00506293
0.00626648
0.00758269
0.00897913
0.0104165
0.0118529
0.0132458
0.0145558
0.0157486
0.0167958
0.0176758
0.018374
0.0188828
0.0192004
0.0193303
0.019279
0.019056
0.0186732
0.0181435
0.0174795
0.0166922
0.0157917
0.0147841
0.0136787
0.012481
0.0111891
0.00979049
0.00825546
0.00651418
0.00436114
0.00175042
0.00454715
0.00604507
0.00706812
0.00780518
0.00833334
0.00869984
0.00890121
0.00911599
0.00233495
0.00212679
0.00183457
0.00164475
0.00153856
0.00141306
0.00127761
0.00116293
0.00106783
0.000982523
0.000905476
0.000837388
0.00077714
0.000723301
0.000675003
0.000631582
0.000592383
0.000556823
0.000524414
0.000494729
0.000467381
0.000442016
0.00041831
0.000395947
0.000374649
0.000354288
0.000334974
0.000317166
0.000301989
0.000290988
0.000282815
0.000281449
0.00029343
0.000325401
0.000381234
0.000461537
0.000568646
0.000712839
0.000915755
0.00120822
0.00161604
0.00215035
0.00280184
0.00355988
0.00441657
0.00535929
0.00636814