/*--------------------------------*- C++ -*----------------------------------*\
| =========                 |                                                 |
| \\      /  F ield         | OpenFOAM: The Open Source CFD Toolbox           |
|  \\    /   O peration     | Version:  2312                                  |
|   \\  /    A nd           | Website:  www.openfoam.com                      |
|    \\/     M anipulation  |                                                 |
\*---------------------------------------------------------------------------*/
FoamFile
{
    version     2.0;
    format      ascii;
    arch        "LSB;label=32;scalar=64";
    class       volVectorField;
    location    "249";
    object      U;
}
// * * * * * * * * * * * * * * * * * * * * * * * * * * * * * * * * * * * * * //

dimensions      [0 1 -1 0 0 0 0];

internalField   nonuniform List<vector> 
11040
(
(1.47823 3.39284 7.26239e-19)
(2.81929 5.67741 4.24011e-19)
(4.28494 6.22335 -4.05046e-18)
(5.2859 5.84367 -2.36001e-18)
(5.83523 5.17651 -1.12565e-18)
(6.12611 4.49115 -3.97695e-18)
(6.31713 3.85676 7.16435e-18)
(6.4833 3.28412 5.20876e-18)
(6.64724 2.78128 1.07165e-18)
(6.81282 2.35382 2.1949e-19)
(6.97244 1.99515 -4.65658e-18)
(7.11189 1.68992 6.09637e-19)
(7.21959 1.42329 1.74935e-18)
(7.28674 1.1843 1.42975e-18)
(7.30661 0.964991 -1.32201e-18)
(7.27983 0.761142 2.23147e-18)
(7.21119 0.570416 1.02653e-18)
(7.10753 0.391846 -2.62847e-18)
(6.97429 0.224538 -7.92997e-20)
(6.8153 0.0683171 4.31046e-19)
(6.62597 -0.0780424 -4.92803e-19)
(6.42209 -0.20481 -1.6439e-18)
(6.23488 -0.300595 1.66353e-18)
(6.07314 -0.373373 -1.67486e-18)
(5.9266 -0.433237 1.72005e-18)
(5.78491 -0.484601 3.04508e-18)
(5.644 -0.529119 1.28352e-18)
(5.50328 -0.567679 1.18937e-18)
(5.36189 -0.601056 1.21091e-18)
(5.21842 -0.629726 1.5331e-18)
(5.07098 -0.653979 -2.54663e-18)
(4.91727 -0.673887 -1.80116e-18)
(4.75477 -0.689258 -4.93271e-18)
(4.5796 -0.699721 -2.46695e-18)
(4.38661 -0.704587 2.11386e-19)
(4.17079 -0.702616 -2.25273e-18)
(3.92329 -0.691595 3.77353e-20)
(3.63814 -0.669761 -3.24907e-19)
(3.2729 -0.628754 -5.40959e-19)
(2.89522 -0.569415 -1.66164e-18)
(2.06886 -0.490014 1.27404e-18)
(2.55465 2.89516 -3.80816e-19)
(4.3219 4.36615 7.85865e-19)
(6.37157 4.42568 3.09983e-18)
(7.85445 3.85572 8.26937e-22)
(8.74919 3.29554 -2.69791e-19)
(9.26754 2.86445 1.44078e-18)
(9.56053 2.52055 -4.35302e-19)
(9.70054 2.22812 -3.66494e-18)
(9.72495 1.96947 1.79318e-19)
(9.66551 1.7347 -1.16331e-18)
(9.54886 1.51838 1.63555e-18)
(9.39654 1.31759 -5.64221e-18)
(9.22459 1.12847 -4.54052e-19)
(9.04471 0.948049 -3.80162e-18)
(8.86579 0.774735 1.6753e-18)
(8.69112 0.607164 -6.87246e-19)
(8.51979 0.444317 -1.07289e-18)
(8.34844 0.286208 -1.0798e-18)
(8.17256 0.132839 -1.39812e-19)
(7.98787 -0.0145934 8.92569e-20)
(7.7873 -0.1559 3.03892e-19)
(7.57253 -0.277717 8.50189e-19)
(7.36003 -0.367998 -1.2801e-18)
(7.16367 -0.440026 -2.86311e-19)
(6.98407 -0.50377 -3.37961e-19)
(6.81501 -0.560297 6.97508e-19)
(6.65275 -0.610016 4.10781e-19)
(6.49525 -0.653594 -2.21992e-18)
(6.34068 -0.691801 -1.73147e-19)
(6.18705 -0.725011 1.20853e-18)
(6.03241 -0.753516 1.43608e-18)
(5.87467 -0.777393 2.74956e-18)
(5.71158 -0.796423 2.07932e-18)
(5.5401 -0.810302 8.98951e-19)
(5.35617 -0.818371 -3.47003e-19)
(5.15596 -0.819224 1.06584e-18)
(4.93173 -0.81061 -5.38899e-19)
(4.68136 -0.790702 1.47753e-19)
(4.36242 -0.750787 6.98331e-20)
(4.05738 -0.694675 3.12764e-19)
(3.35203 -0.573289 -1.27657e-18)
(3.4406 2.44736 -1.33772e-20)
(4.39951 3.81015 -1.54978e-18)
(5.63995 4.50019 -5.3987e-20)
(6.71007 4.64131 -2.00707e-18)
(7.46547 4.47328 1.14456e-19)
(7.9635 4.17106 -1.22673e-18)
(8.30521 3.82641 -2.2877e-18)
(8.55549 3.47247 -2.3777e-18)
(8.74568 3.11924 1.80287e-18)
(8.88987 2.77323 5.73513e-20)
(8.99699 2.44073 1.04463e-18)
(9.07387 2.12494 3.57897e-18)
(9.12479 1.82581 -2.68446e-18)
(9.15085 1.54277 2.95651e-18)
(9.15132 1.27488 -1.79128e-18)
(9.12525 1.02136 -7.96158e-19)
(9.07203 0.781406 3.87418e-19)
(8.99159 0.554726 5.41747e-19)
(8.88377 0.340699 1.49657e-20)
(8.7486 0.139783 -3.14631e-20)
(8.58269 -0.0482151 -8.61905e-19)
(8.39364 -0.208783 -6.97034e-19)
(8.20157 -0.331289 1.31663e-19)
(8.0178 -0.429619 -9.36521e-20)
(7.84312 -0.514065 7.9104e-19)
(7.67374 -0.58696 -1.71028e-18)
(7.50743 -0.649893 -1.21041e-18)
(7.34344 -0.704401 1.69415e-18)
(7.1808 -0.751751 3.92074e-19)
(7.01809 -0.792648 -2.40583e-19)
(6.85364 -0.827593 -1.46883e-18)
(6.68552 -0.856804 5.78717e-19)
(6.51169 -0.880163 -1.21161e-18)
(6.32913 -0.897366 -1.44679e-18)
(6.13412 -0.907707 2.75538e-19)
(5.92348 -0.90964 5.45896e-19)
(5.69072 -0.901059 5.43525e-19)
(5.43425 -0.878787 -2.16303e-19)
(5.1188 -0.837331 4.02766e-20)
(4.82047 -0.767952 1.84418e-19)
(4.21764 -0.655162 8.06793e-19)
(4.11013 2.11079 -1.09146e-19)
(4.70264 3.16162 1.90343e-19)
(5.63414 3.81071 -7.1016e-19)
(6.64948 3.95291 1.07914e-18)
(7.51261 3.73797 -1.52822e-19)
(8.1477 3.36957 -1.59214e-18)
(8.59604 2.97518 6.52214e-19)
(8.91679 2.60225 1.20366e-18)
(9.14871 2.26197 -1.03105e-18)
(9.31279 1.95813 1.18454e-18)
(9.42536 1.68875 -2.97479e-18)
(9.49991 1.44818 3.54705e-19)
(9.5454 1.2314 4.66883e-19)
(9.56813 1.03269 -2.63683e-18)
(9.57174 0.846532 -1.25077e-18)
(9.55789 0.668725 8.02772e-19)
(9.5268 0.496336 1.50262e-18)
(9.47773 0.327884 7.05253e-19)
(9.40876 0.162562 -4.13671e-20)
(9.31747 0.00102877 4.25395e-20)
(9.1986 -0.156036 2.56094e-19)
(9.05537 -0.296097 7.46316e-19)
(8.90217 -0.408005 2.45053e-19)
(8.7487 -0.5005 4.28536e-19)
(8.59674 -0.581766 6.30882e-19)
(8.44371 -0.653845 2.77216e-18)
(8.28814 -0.717591 -1.97553e-19)
(8.13008 -0.773879 -3.4294e-19)
(7.96953 -0.823503 -1.12184e-18)
(7.80609 -0.866876 -9.28275e-19)
(7.63896 -0.904264 1.22184e-18)
(7.46701 -0.935721 -9.87348e-19)
(7.28884 -0.961002 2.40266e-18)
(7.10196 -0.979642 5.78475e-19)
(6.90316 -0.990773 3.88923e-19)
(6.68967 -0.99263 6.36064e-20)
(6.45579 -0.983044 -8.63391e-21)
(6.19934 -0.957688 -2.6168e-20)
(5.89051 -0.913498 -3.51442e-20)
(5.59382 -0.832563 2.18838e-19)
(5.04884 -0.727424 -1.33757e-19)
(4.67372 1.84853 4.42924e-19)
(5.04241 2.64036 -5.70458e-19)
(5.64762 3.26551 9.09783e-19)
(6.39974 3.59992 -3.26108e-19)
(7.12647 3.6609 9.44272e-19)
(7.71812 3.54222 -1.11075e-19)
(8.16239 3.33411 3.74166e-19)
(8.4901 3.08955 1.24779e-18)
(8.73196 2.83254 -3.13143e-19)
(8.90862 2.574 -5.93288e-19)
(9.03496 2.31971 -8.48655e-19)
(9.12328 2.07176 -4.64343e-20)
(9.18421 1.82829 -1.83825e-20)
(9.22427 1.58884 1.80402e-18)
(9.24696 1.35357 1.07428e-18)
(9.254 1.12309 3.46949e-20)
(9.24611 0.89797 -7.06251e-19)
(9.2234 0.679013 7.6587e-19)
(9.18551 0.466713 -1.19741e-19)
(9.13172 0.262233 2.64869e-19)
(9.06016 0.0664311 -5.62205e-19)
(8.97233 -0.108298 -5.40875e-20)
(8.87602 -0.25041 6.63924e-19)
(8.77918 -0.368226 -7.23526e-19)
(8.68434 -0.470827 -1.52813e-18)
(8.58905 -0.561752 -7.57871e-19)
(8.49129 -0.642469 1.55288e-19)
(8.39024 -0.714197 -1.1312e-18)
(8.28526 -0.77803 3.40999e-20)
(8.17534 -0.834615 9.51444e-19)
(8.0593 -0.884326 -7.08722e-19)
(7.93577 -0.927274 1.36215e-19)
(7.80322 -0.963216 -1.79405e-18)
(7.65938 -0.991663 -7.61327e-19)
(7.50137 -1.01164 -3.79891e-19)
(7.32675 -1.0212 -2.87688e-19)
(7.13057 -1.01801 1.10629e-19)
(6.91108 -0.996953 -9.06726e-21)
(6.64283 -0.956547 -5.36809e-21)
(6.38066 -0.872737 -3.36179e-19)
(5.91299 -0.781174 3.42407e-19)
(5.12852 1.64319 -3.22803e-19)
(5.37707 2.23173 1.30251e-18)
(5.77265 2.75281 -5.09219e-19)
(6.32018 3.11091 9.99205e-20)
(6.93211 3.25521 -2.24378e-19)
(7.50396 3.20589 1.92484e-19)
(7.98215 3.0265 5.62014e-19)
(8.36102 2.77745 -2.18661e-20)
(8.65409 2.49803 -4.6625e-20)
(8.87614 2.21151 1.37375e-18)
(9.04041 1.93184 1.26048e-18)
(9.15967 1.66518 -6.91605e-19)
(9.24393 1.41428 -4.57592e-19)
(9.29977 1.18047 2.20483e-18)
(9.33191 0.962302 -1.86129e-18)
(9.3435 0.757378 8.09407e-19)
(9.33646 0.563387 7.3991e-20)
(9.31189 0.378595 2.119e-19)
(9.27013 0.201789 2.43226e-19)
(9.21109 0.0327175 -1.54727e-19)
(9.13341 -0.128108 -2.92193e-19)
(9.04085 -0.271251 1.86232e-19)
(8.94209 -0.38908 -3.05595e-19)
(8.84386 -0.487345 -2.10434e-19)
(8.74901 -0.573094 1.49089e-18)
(8.6561 -0.649654 -9.78437e-19)
(8.56343 -0.718162 -2.11614e-19)
(8.47039 -0.779507 1.44927e-18)
(8.37664 -0.834543 1.08968e-18)
(8.28155 -0.88377 -5.12852e-19)
(8.18433 -0.927399 -3.90838e-19)
(8.08405 -0.965399 -1.18809e-19)
(7.97964 -0.997423 8.64371e-19)
(7.86953 -1.02287 8.18624e-19)
(7.75169 -1.04064 2.00145e-19)
(7.62454 -1.04872 -2.12445e-19)
(7.48412 -1.0448 -1.92976e-20)
(7.33032 -1.02316 -6.24052e-20)
(7.14286 -0.983955 4.14177e-20)
(6.96324 -0.898728 4.68571e-21)
(6.64775 -0.820636 -3.12078e-19)
(5.50519 1.47536 -5.09955e-20)
(5.68664 1.91631 8.91107e-20)
(5.94941 2.32916 -3.45716e-19)
(6.32625 2.66797 -1.21073e-19)
(6.79048 2.8822 1.63182e-19)
(7.27362 2.95211 -4.97038e-19)
(7.71723 2.90015 1.90415e-19)
(8.09384 2.76518 -1.96386e-19)
(8.39917 2.5813 -1.49102e-18)
(8.6385 2.37272 -4.47809e-20)
(8.82035 2.15543 -2.61193e-18)
(8.95508 1.93789 2.22451e-18)
(9.05227 1.72387 -1.6441e-18)
(9.11939 1.51411 -1.92555e-19)
(9.16218 1.30752 9.72188e-19)
(9.18426 1.10377 -3.75786e-19)
(9.1877 0.902902 1.35335e-18)
(9.17362 0.705335 -5.80649e-19)
(9.14239 0.51161 1.41333e-19)
(9.09388 0.322825 -1.0076e-19)
(9.02741 0.140315 1.0614e-19)
(8.94613 -0.0254634 -1.44507e-19)
(8.85648 -0.165289 6.99136e-19)
(8.76431 -0.283462 -2.32257e-19)
(8.67336 -0.386304 -5.77108e-19)
(8.58337 -0.477685 2.4981e-19)
(8.49321 -0.559285 8.14163e-19)
(8.40242 -0.632217 -4.077e-19)
(8.31089 -0.697502 1.25449e-21)
(8.21828 -0.755834 -2.85795e-19)
(8.12413 -0.807592 1.6343e-20)
(8.02793 -0.852902 -4.27083e-19)
(7.92916 -0.891589 -8.35373e-21)
(7.82713 -0.923238 1.66848e-19)
(7.72103 -0.946978 4.74889e-19)
(7.61096 -0.961012 -3.01577e-19)
(7.49552 -0.963466 -2.46927e-19)
(7.37735 -0.949023 9.30575e-20)
(7.24649 -0.918687 -7.00573e-21)
(7.13047 -0.846618 -7.79435e-21)
(6.96853 -0.780588 5.28806e-21)
(5.81816 1.33425 -5.95468e-21)
(5.95948 1.66871 -2.46012e-19)
(6.14374 1.98583 2.04938e-19)
(6.40288 2.27095 3.76039e-19)
(6.74123 2.49062 -7.71851e-20)
(7.12704 2.61192 -2.45135e-19)
(7.51716 2.62794 7.69039e-19)
(7.87809 2.55381 2.64418e-19)
(8.19211 2.41289 6.27781e-19)
(8.45299 2.22789 -1.17022e-18)
(8.66149 2.01783 1.03064e-18)
(8.82327 1.79585 1.03027e-18)
(8.94548 1.57036 -1.62998e-18)
(9.03452 1.34691 1.80847e-18)
(9.09563 1.12922 3.59953e-20)
(9.13259 0.919189 -4.10682e-19)
(9.14808 0.717167 -1.54562e-18)
(9.14381 0.523123 -1.36199e-19)
(9.12067 0.337036 -4.86558e-19)
(9.0791 0.159236 1.91079e-18)
(9.01858 -0.00908981 -1.21238e-18)
(8.9428 -0.160114 2.10623e-19)
(8.85833 -0.28804 3.71167e-19)
(8.77009 -0.396353 6.46026e-20)
(8.68172 -0.489628 1.44913e-19)
(8.5937 -0.571491 6.65274e-20)
(8.50526 -0.643759 3.18037e-19)
(8.41595 -0.707523 -2.01126e-19)
(8.3256 -0.763711 -7.31452e-19)
(8.23392 -0.812992 -1.93428e-19)
(8.14045 -0.855713 5.531e-19)
(8.0447 -0.891942 2.43508e-19)
(7.9462 -0.921477 1.08262e-20)
(7.84425 -0.943835 -3.77452e-19)
(7.73823 -0.958146 -1.8472e-19)
(7.62838 -0.962764 9.82416e-20)
(7.5144 -0.956163 1.66289e-19)
(7.39827 -0.933827 -5.71432e-20)
(7.27759 -0.896421 -5.8791e-21)
(7.16722 -0.82623 4.7959e-20)
(7.0582 -0.75159 3.50884e-20)
(6.08037 1.21248 -2.56241e-20)
(6.19562 1.46954 -2.12292e-19)
(6.33281 1.71148 5.29612e-19)
(6.51519 1.93933 -5.95367e-20)
(6.75621 2.1379 2.60427e-20)
(7.04694 2.28051 -5.52677e-20)
(7.36383 2.3505 -2.25684e-19)
(7.68037 2.34654 -3.22098e-19)
(7.97551 2.27824 2.18017e-20)
(8.23579 2.16032 -9.49661e-19)
(8.45478 2.00843 -3.63989e-19)
(8.63246 1.83553 7.55835e-19)
(8.77213 1.65134 4.08527e-19)
(8.87779 1.46278 -1.11067e-18)
(8.95371 1.27381 2.47899e-18)
(9.00373 1.08608 -9.31992e-19)
(9.03088 0.900371 8.2246e-19)
(9.03723 0.717438 -1.42318e-18)
(9.02406 0.537961 -3.55799e-20)
(8.99208 0.362886 5.1082e-19)
(8.94155 0.193524 -7.10694e-19)
(8.87603 0.0385928 -8.21913e-20)
(8.80071 -0.0952041 1.65045e-19)
(8.71965 -0.210324 -5.90156e-19)
(8.6365 -0.310352 -1.60279e-19)
(8.55251 -0.39861 -4.26845e-19)
(8.46755 -0.477079 -7.49497e-19)
(8.38139 -0.546901 2.53564e-19)
(8.29399 -0.608961 1.82952e-19)
(8.20523 -0.663904 5.83708e-19)
(8.11483 -0.712079 -2.22567e-19)
(8.02247 -0.753561 1.54777e-19)
(7.92782 -0.78815 -1.69971e-19)
(7.83038 -0.815438 3.57292e-19)
(7.72977 -0.834615 -4.18176e-20)
(7.62631 -0.844243 6.69339e-20)
(7.52014 -0.842886 -2.58927e-19)
(7.41235 -0.82733 1.02269e-19)
(7.30307 -0.796986 -7.20229e-21)
(7.20036 -0.742436 -4.27296e-20)
(7.10617 -0.675368 6.14285e-20)
(6.30048 1.10555 -1.25151e-19)
(6.3974 1.30517 4.63033e-19)
(6.50529 1.4898 -1.93231e-19)
(6.63939 1.66648 -4.82981e-19)
(6.81281 1.83103 3.46433e-20)
(7.02672 1.96624 6.82052e-20)
(7.27206 2.056 5.63924e-20)
(7.53334 2.09127 1.15762e-18)
(7.79365 2.07091 -1.52698e-18)
(8.03818 2.00016 -2.61979e-19)
(8.25629 1.88844 8.20561e-20)
(8.44305 1.74596 5.73965e-20)
(8.59734 1.58207 9.35854e-19)
(8.71987 1.4048 -2.77776e-19)
(8.81286 1.22031 1.23876e-18)
(8.87909 1.03306 -1.04515e-18)
(8.92113 0.846362 2.90181e-19)
(8.94099 0.662446 -2.21172e-19)
(8.94011 0.482832 4.35751e-19)
(8.91956 0.308836 3.6109e-19)
(8.8796 0.142179 1.40064e-19)
(8.82369 -0.00968386 -4.573e-19)
(8.75705 -0.14165 3.94979e-19)
(8.68334 -0.256135 2.02367e-19)
(8.60594 -0.355526 -6.42729e-19)
(8.52662 -0.442454 4.52665e-19)
(8.44578 -0.51881 4.89123e-19)
(8.36346 -0.585782 -5.58604e-19)
(8.27972 -0.644234 6.25101e-20)
(8.19456 -0.694814 -4.44142e-19)
(8.10783 -0.737907 2.02843e-19)
(8.01936 -0.773629 -2.66876e-19)
(7.92898 -0.801856 -7.46209e-20)
(7.83635 -0.822226 1.19829e-20)
(7.74135 -0.834064 -1.37169e-19)
(7.64446 -0.836255 3.08321e-20)
(7.54632 -0.827698 6.78788e-20)
(7.44777 -0.806185 -6.93722e-20)
(7.35001 -0.770935 -1.4975e-20)
(7.25859 -0.717596 -1.27207e-20)
(7.17553 -0.651904 -3.57558e-20)
(6.4853 1.01038 -1.11422e-19)
(6.56851 1.16654 -3.50393e-19)
(6.65695 1.30801 -5.03914e-21)
(6.7602 1.44346 3.11652e-20)
(6.88846 1.57416 1.62494e-19)
(7.04568 1.69048 -1.28266e-19)
(7.23022 1.78112 -1.21866e-19)
(7.43542 1.83683 -3.30441e-20)
(7.65104 1.85202 8.82895e-20)
(7.86539 1.82561 1.44093e-18)
(8.06762 1.7609 5.44165e-19)
(8.2504 1.66375 1.557e-19)
(8.4094 1.54102 -1.24617e-18)
(8.5422 1.39976 2.62057e-18)
(8.64837 1.24623 -1.91665e-18)
(8.72876 1.08543 9.34076e-19)
(8.78483 0.921024 -1.02348e-18)
(8.81812 0.755566 -1.94705e-18)
(8.83001 0.590989 1.04866e-19)
(8.82165 0.429005 1.45139e-18)
(8.79383 0.27138 -7.91049e-19)
(8.74978 0.125873 9.11364e-19)
(8.69393 -0.00216383 -4.87953e-19)
(8.62959 -0.114494 6.36401e-20)
(8.55994 -0.212791 -5.96295e-20)
(8.48697 -0.299115 -3.80509e-19)
(8.41159 -0.375205 3.4175e-19)
(8.33418 -0.442255 -2.40612e-19)
(8.25498 -0.501119 2.24551e-19)
(8.17416 -0.552417 1.38628e-19)
(8.09178 -0.596541 8.39156e-21)
(8.00784 -0.633637 1.01555e-19)
(7.92238 -0.66362 5.51631e-20)
(7.83528 -0.686262 -2.34954e-19)
(7.74667 -0.701018 -1.16797e-19)
(7.65724 -0.707036 8.0916e-20)
(7.56785 -0.703443 7.22815e-20)
(7.47931 -0.688967 4.65803e-21)
(7.39317 -0.662886 6.17995e-20)
(7.31344 -0.623294 -3.34963e-21)
(7.242 -0.573893 8.33141e-21)
(6.64018 0.924887 -1.10977e-19)
(6.71256 1.04754 6.89544e-20)
(6.78716 1.15625 3.20218e-19)
(6.86993 1.25954 -3.33283e-19)
(6.96824 1.36074 1.32018e-19)
(7.08589 1.45472 -4.83507e-20)
(7.22401 1.53457 5.56514e-20)
(7.38091 1.59335 -3.39823e-19)
(7.55187 1.62502 -1.2255e-18)
(7.72962 1.62552 1.72325e-18)
(7.90578 1.59385 -1.33229e-18)
(8.07323 1.53162 -3.85845e-19)
(8.2264 1.44222 -7.43691e-19)
(8.36089 1.33027 -4.54561e-19)
(8.47403 1.2008 1.01965e-18)
(8.56469 1.05864 -4.3537e-19)
(8.63282 0.908076 1.75264e-18)
(8.679 0.752703 -1.29782e-18)
(8.70404 0.595595 -4.24909e-19)
(8.70883 0.43929 2.17551e-18)
(8.69385 0.286182 -9.5126e-19)
(8.66179 0.143721 -2.84078e-20)
(8.61685 0.0169826 1.71168e-19)
(8.56224 -0.0955657 5.71508e-19)
(8.50093 -0.194906 -5.22088e-19)
(8.43509 -0.282396 -1.10547e-19)
(8.36598 -0.359359 -1.1724e-19)
(8.29435 -0.426812 6.99923e-19)
(8.22067 -0.485504 -3.09882e-19)
(8.1453 -0.535984 -8.53784e-20)
(8.06849 -0.578619 3.28706e-19)
(7.99042 -0.613581 -2.63173e-19)
(7.91131 -0.640872 -1.13994e-19)
(7.83123 -0.660361 1.44138e-19)
(7.75047 -0.671716 9.70342e-20)
(7.6698 -0.674441 1.83255e-20)
(7.59017 -0.668113 -3.3367e-20)
(7.5123 -0.65209 -1.62406e-20)
(7.43756 -0.626225 -3.39247e-20)
(7.36884 -0.589992 2.22218e-20)
(7.30739 -0.546573 9.518e-21)
(6.7695 0.847576 1.59552e-19)
(6.83295 0.944034 -3.43255e-19)
(6.89703 1.02767 3.29316e-19)
(6.96541 1.10626 9.50621e-20)
(7.04333 1.1836 -1.23895e-19)
(7.13371 1.25699 8.96612e-22)
(7.23823 1.32251 1.51433e-19)
(7.35729 1.3758 1.96303e-19)
(7.48941 1.4122 1.45664e-19)
(7.63097 1.42752 7.94097e-20)
(7.7767 1.41903 -4.28101e-19)
(7.92126 1.38583 7.73895e-19)
(8.05962 1.32859 -8.18298e-20)
(8.18701 1.24943 9.00438e-19)
(8.29963 1.15149 -2.57042e-18)
(8.39488 1.03844 2.69449e-18)
(8.47121 0.914024 -7.82249e-19)
(8.52796 0.781722 -2.08771e-18)
(8.56497 0.644649 1.50621e-18)
(8.58252 0.50551 -1.39805e-18)
(8.58097 0.366827 7.7524e-19)
(8.56226 0.235974 -2.07065e-19)
(8.52985 0.118122 6.3367e-19)
(8.48685 0.0123852 -2.24415e-19)
(8.43601 -0.0816902 -9.15741e-19)
(8.37949 -0.164937 4.98601e-19)
(8.31874 -0.238326 2.02511e-19)
(8.25478 -0.302712 -5.7074e-20)
(8.18829 -0.358785 3.70561e-20)
(8.11981 -0.407078 -1.30294e-19)
(8.04975 -0.447983 -5.71426e-19)
(7.97846 -0.481747 5.94412e-19)
(7.90632 -0.508472 -4.76435e-20)
(7.83355 -0.528218 -1.47259e-19)
(7.76058 -0.54085 1.52439e-19)
(7.68822 -0.546139 -2.33428e-20)
(7.61739 -0.543918 -2.36551e-20)
(7.54868 -0.534075 5.2523e-20)
(7.48326 -0.516691 1.34578e-20)
(7.42316 -0.491672 -2.34039e-20)
(7.36918 -0.461855 -3.10195e-21)
(6.87692 0.777423 5.5434e-23)
(6.93277 0.853146 1.57976e-19)
(6.98841 0.917405 3.02712e-19)
(7.04607 0.97701 -3.59703e-19)
(7.10952 1.03553 -1.16195e-20)
(7.18082 1.09153 6.11718e-20)
(7.26146 1.1428 -1.21363e-19)
(7.3524 1.18678 -1.89138e-19)
(7.45363 1.2204 2.4836e-19)
(7.56374 1.24034 9.70774e-19)
(7.6799 1.24371 -3.12351e-19)
(7.79881 1.22862 7.85475e-19)
(7.91682 1.19413 1.40135e-20)
(8.02991 1.14039 -1.62167e-18)
(8.1343 1.06864 -6.8482e-19)
(8.22682 0.980926 1.61884e-18)
(8.30507 0.879847 -8.99241e-19)
(8.36736 0.768244 1.20273e-18)
(8.41266 0.648994 -1.67881e-18)
(8.44052 0.524891 1.16621e-19)
(8.4506 0.398617 -8.88358e-20)
(8.44386 0.277288 2.14811e-18)
(8.42306 0.166135 -1.08954e-19)
(8.39109 0.0648481 -8.42381e-19)
(8.35049 -0.0264918 -1.45959e-19)
(8.30334 -0.108172 -1.7637e-19)
(8.25121 -0.180705 -4.83681e-19)
(8.19531 -0.244621 5.76588e-19)
(8.13654 -0.300397 -4.43396e-19)
(8.07561 -0.348434 6.23044e-21)
(8.01313 -0.389048 1.39314e-19)
(7.94961 -0.422468 -4.82067e-20)
(7.88557 -0.448844 5.89433e-20)
(7.82137 -0.46831 -8.01806e-21)
(7.75748 -0.480899 2.16261e-19)
(7.69467 -0.486606 -1.88033e-19)
(7.63376 -0.485546 1.75854e-20)
(7.57518 -0.477861 5.80446e-21)
(7.51969 -0.463924 3.02563e-21)
(7.46871 -0.443948 -1.82599e-21)
(7.4225 -0.42031 1.75983e-20)
(6.96557 0.713684 -2.22336e-19)
(7.01479 0.772867 1.11741e-19)
(7.06336 0.822036 -3.73823e-19)
(7.11263 0.867022 1.78261e-19)
(7.1653 0.910926 -9.61448e-20)
(7.22284 0.952957 2.15847e-20)
(7.28636 0.99185 -4.84279e-20)
(7.35681 1.02618 3.92682e-20)
(7.43467 1.05408 -5.90377e-19)
(7.51957 1.07325 3.34748e-19)
(7.61024 1.08143 5.08364e-20)
(7.70489 1.07673 -2.53083e-18)
(7.80131 1.05772 1.63486e-18)
(7.89664 1.02361 1.12972e-19)
(7.98786 0.97439 1.59535e-18)
(8.07207 0.91081 -1.48046e-18)
(8.14668 0.834272 2.56343e-19)
(8.20958 0.746653 1.19694e-18)
(8.25912 0.650126 -1.30243e-18)
(8.29418 0.547019 4.85435e-19)
(8.31394 0.43972 1.41234e-19)
(8.31834 0.33464 -2.78244e-19)
(8.30915 0.236739 9.06085e-20)
(8.28887 0.146287 -1.94149e-19)
(8.2597 0.0637991 1.06593e-18)
(8.22351 -0.0105955 -1.22945e-18)
(8.18184 -0.077041 8.7514e-19)
(8.13591 -0.135817 1.77833e-19)
(8.08672 -0.187245 -2.93933e-19)
(8.03508 -0.231638 -1.06184e-19)
(7.98168 -0.269294 -5.573e-20)
(7.92712 -0.300484 3.29335e-19)
(7.87196 -0.325432 -6.17419e-20)
(7.81663 -0.344413 -3.77244e-19)
(7.76162 -0.357597 8.93258e-20)
(7.70764 -0.365144 9.3752e-20)
(7.65535 -0.367281 -7.81027e-20)
(7.60507 -0.364377 6.70216e-20)
(7.5574 -0.356814 2.08103e-20)
(7.51328 -0.344805 1.00458e-20)
(7.47291 -0.330345 -3.84336e-20)
(7.03801 0.655803 1.52944e-19)
(7.08134 0.701739 -1.60052e-19)
(7.12383 0.739108 3.45564e-19)
(7.16624 0.772818 -2.13029e-20)
(7.21055 0.805428 2.84838e-20)
(7.25778 0.836475 1.56978e-19)
(7.30876 0.865225 -5.19172e-20)
(7.36424 0.890885 2.92938e-20)
(7.42475 0.912335 1.58723e-19)
(7.49034 0.928105 -3.36253e-20)
(7.56049 0.936585 8.38799e-19)
(7.63437 0.936298 -1.1965e-18)
(7.71076 0.92589 2.14557e-18)
(7.78788 0.904306 -1.67445e-18)
(7.86362 0.870943 -7.93421e-19)
(7.93574 0.825723 -3.11627e-19)
(8.00201 0.76911 -5.24244e-19)
(8.06039 0.702049 5.71772e-19)
(8.10905 0.625883 8.22466e-20)
(8.14657 0.542262 4.08277e-19)
(8.17168 0.453022 -2.05327e-19)
(8.18353 0.363565 2.08044e-19)
(8.18305 0.278418 7.42339e-19)
(8.17219 0.198259 -9.00754e-19)
(8.15273 0.123927 3.87014e-19)
(8.12625 0.0558907 3.41975e-19)
(8.09414 -0.00566911 -5.85498e-21)
(8.05758 -0.0607476 -1.24896e-18)
(8.0176 -0.109447 2.77445e-19)
(7.97504 -0.151929 4.57364e-19)
(7.93068 -0.18838 -2.88162e-19)
(7.88517 -0.218993 5.2583e-19)
(7.83911 -0.243977 -4.69718e-19)
(7.79298 -0.26359 5.59467e-20)
(7.74724 -0.278042 1.19408e-19)
(7.70251 -0.287541 -1.16714e-19)
(7.65932 -0.292372 5.25208e-20)
(7.61788 -0.29292 -8.0586e-21)
(7.57855 -0.289583 -7.32954e-20)
(7.54198 -0.282604 -1.32438e-22)
(7.50818 -0.273453 -1.20641e-21)
(7.09656 0.603263 8.23589e-21)
(7.13458 0.638587 -8.93804e-20)
(7.17168 0.666716 -3.16491e-20)
(7.20828 0.691766 1.09705e-19)
(7.24582 0.715735 -2.80496e-20)
(7.28503 0.738335 -1.36806e-20)
(7.32651 0.759131 -2.26473e-19)
(7.37084 0.777683 1.29475e-19)
(7.41846 0.793321 -5.77431e-20)
(7.46953 0.805121 5.29769e-19)
(7.52387 0.812018 -1.18091e-19)
(7.58113 0.812974 -1.10165e-19)
(7.64068 0.806947 7.95205e-19)
(7.70149 0.793003 -3.14577e-19)
(7.76223 0.770426 -4.46008e-19)
(7.82136 0.738816 -3.8233e-19)
(7.8772 0.698129 -2.63762e-19)
(7.9281 0.648701 2.02716e-18)
(7.97244 0.59122 -2.10875e-18)
(8.00881 0.526707 2.60299e-20)
(8.0359 0.456416 1.24552e-18)
(8.05241 0.38459 -1.05471e-18)
(8.05854 0.314979 1.00213e-18)
(8.05567 0.248411 -4.29232e-19)
(8.0451 0.185836 -4.44692e-19)
(8.02805 0.12789 1.12861e-18)
(8.00568 0.0749375 -4.31686e-19)
(7.979 0.0271574 4.54961e-19)
(7.94891 -0.0154105 -1.20625e-18)
(7.91622 -0.0528201 1.58277e-19)
(7.88162 -0.0851897 4.07392e-19)
(7.84574 -0.112685 -5.37988e-20)
(7.80913 -0.135493 -7.23442e-20)
(7.77222 -0.153907 2.11701e-20)
(7.73545 -0.168161 -1.04993e-20)
(7.6993 -0.178484 3.7471e-20)
(7.6642 -0.185152 -1.04708e-19)
(7.63032 -0.188585 7.36086e-20)
(7.59794 -0.189091 -3.65643e-20)
(7.56749 -0.186875 3.00412e-20)
(7.53906 -0.183004 2.57455e-22)
(7.14163 0.557918 2.78927e-21)
(7.17507 0.585075 -1.56609e-19)
(7.20754 0.606241 1.3274e-19)
(7.2393 0.624917 -1.22149e-19)
(7.2714 0.642567 -7.99124e-22)
(7.3044 0.658985 2.36714e-19)
(7.33874 0.673922 6.43093e-20)
(7.37487 0.687122 -6.3192e-19)
(7.41311 0.698167 -5.24115e-21)
(7.45363 0.706458 8.71945e-19)
(7.49637 0.711291 -1.16931e-18)
(7.54117 0.711958 3.25028e-19)
(7.58772 0.70771 3.08737e-19)
(7.63542 0.697823 -5.2426e-19)
(7.68344 0.681673 1.27353e-18)
(7.73076 0.658804 -1.79273e-19)
(7.77623 0.628978 -3.68901e-18)
(7.8186 0.592208 3.17555e-18)
(7.8566 0.548773 -1.14596e-18)
(7.88903 0.499223 -7.89573e-19)
(7.9147 0.444317 1.07207e-18)
(7.93221 0.387218 1.01083e-18)
(7.94137 0.330899 -1.46331e-18)
(7.94309 0.276162 1.3088e-18)
(7.93827 0.223921 -3.60171e-19)
(7.92781 0.174847 2.81635e-19)
(7.91259 0.129388 -5.31291e-19)
(7.89344 0.0878191 4.96817e-19)
(7.87114 0.0502827 1.42113e-19)
(7.84637 0.0168193 -8.26979e-19)
(7.81977 -0.0126063 1.04541e-19)
(7.79189 -0.0380873 -2.42529e-20)
(7.76326 -0.0597536 3.53163e-19)
(7.73425 -0.0778274 -2.51298e-21)
(7.70525 -0.0924979 -2.54002e-20)
(7.67668 -0.103948 -3.36497e-20)
(7.64887 -0.112384 -1.42419e-20)
(7.62194 -0.118152 -2.13462e-20)
(7.5961 -0.121495 -5.84491e-20)
(7.57163 -0.122586 6.19867e-21)
(7.54862 -0.122096 7.93293e-21)
(7.1749 0.520534 6.42146e-20)
(7.2046 0.541649 1.01153e-19)
(7.23326 0.557778 -8.29815e-20)
(7.2611 0.571868 -6.53912e-20)
(7.28894 0.584987 2.62594e-20)
(7.31719 0.596992 2.02137e-19)
(7.34621 0.607739 -2.25266e-19)
(7.37634 0.617073 1.60166e-19)
(7.40782 0.624716 3.11807e-19)
(7.44078 0.630267 -6.14487e-19)
(7.47522 0.633246 -7.663e-19)
(7.51105 0.633169 9.5326e-19)
(7.54811 0.62951 8.42898e-19)
(7.58602 0.621742 -1.26907e-18)
(7.62426 0.609383 1.50117e-18)
(7.66215 0.592043 1.00548e-18)
(7.69889 0.569461 -7.9965e-19)
(7.73361 0.54154 -1.28413e-18)
(7.76535 0.508364 -1.48408e-19)
(7.79318 0.470224 9.9671e-19)
(7.81613 0.427574 -1.91782e-18)
(7.83294 0.382754 1.48927e-18)
(7.84325 0.338045 1.70428e-19)
(7.84764 0.294127 3.3902e-19)
(7.84671 0.25179 -6.08181e-19)
(7.8411 0.211642 2.69706e-19)
(7.83146 0.17412 -2.4521e-19)
(7.81843 0.139516 -1.56078e-19)
(7.80264 0.108003 2.84486e-19)
(7.78463 0.0796618 -1.86475e-19)
(7.76493 0.054495 -8.64873e-20)
(7.74401 0.0324475 3.01591e-19)
(7.72226 0.0134229 -3.8015e-19)
(7.70004 -0.00275889 1.85927e-19)
(7.67765 -0.0162547 8.35556e-21)
(7.65539 -0.0272149 -1.88176e-19)
(7.63356 -0.0358119 1.23968e-19)
(7.61223 -0.0423389 2.00915e-20)
(7.59159 -0.0469695 -4.99315e-20)
(7.57184 -0.0498696 -1.37322e-20)
(7.55308 -0.0514394 -9.83414e-21)
(7.19995 0.4893 -3.41503e-20)
(7.22652 0.505853 1.04222e-20)
(7.25201 0.518252 -2.05054e-20)
(7.27663 0.528954 1.06103e-20)
(7.30102 0.538748 -4.12777e-20)
(7.32552 0.547536 4.58886e-20)
(7.35042 0.55524 6.13542e-20)
(7.37599 0.561759 -1.54331e-19)
(7.4024 0.566901 2.87492e-20)
(7.42977 0.570386 7.74338e-20)
(7.45808 0.571878 -2.71319e-19)
(7.4873 0.571039 4.41044e-19)
(7.51732 0.567496 -9.94415e-19)
(7.5479 0.560869 6.24882e-19)
(7.57867 0.550802 3.85239e-19)
(7.60919 0.536989 2.5984e-19)
(7.63889 0.519205 1.10977e-19)
(7.66714 0.49733 -1.87419e-19)
(7.69326 0.471362 -5.44712e-19)
(7.71654 0.441449 1.07041e-18)
(7.73623 0.407853 3.49762e-20)
(7.75126 0.372303 -1.11273e-18)
(7.76124 0.336534 4.92568e-19)
(7.76656 0.301083 5.10678e-19)
(7.76761 0.266592 -1.00994e-18)
(7.76483 0.233575 8.70966e-19)
(7.75873 0.202416 -7.04094e-19)
(7.74978 0.17339 4.74199e-20)
(7.73847 0.146673 2.08241e-19)
(7.72523 0.122362 4.84266e-19)
(7.71049 0.100488 -6.20375e-19)
(7.69462 0.0810313 1.74547e-19)
(7.67797 0.063935 2.87885e-19)
(7.66082 0.0490681 -2.25791e-19)
(7.64342 0.036319 -2.45085e-20)
(7.62603 0.0255831 -6.28319e-21)
(7.60887 0.0167423 3.52542e-20)
(7.59202 0.0095577 -2.44055e-20)
(7.57563 0.00391222 1.47894e-20)
(7.55985 -0.000328314 -2.5368e-20)
(7.54476 -0.00336598 -1.97991e-21)
(7.21917 0.462786 1.04577e-20)
(7.24305 0.475833 9.45496e-20)
(7.26585 0.485421 -3.48636e-20)
(7.28775 0.493577 -9.59243e-21)
(7.30928 0.500886 2.13686e-20)
(7.33073 0.507291 -4.13389e-20)
(7.35233 0.51275 -1.35316e-19)
(7.3743 0.5172 8.51526e-20)
(7.39678 0.520501 2.1149e-19)
(7.41984 0.522452 1.21688e-20)
(7.44349 0.522814 7.03662e-20)
(7.4677 0.521345 2.84846e-19)
(7.49238 0.517781 -2.15164e-19)
(7.51737 0.511848 -4.15345e-19)
(7.54242 0.50329 3.56322e-20)
(7.56721 0.491882 -1.32336e-19)
(7.59133 0.477449 3.29387e-19)
(7.61435 0.459887 -3.07104e-19)
(7.63576 0.439173 -2.01754e-19)
(7.65503 0.415388 -5.73017e-19)
(7.67161 0.388694 7.6109e-19)
(7.68464 0.36039 3.51798e-19)
(7.69378 0.331797 -3.64749e-19)
(7.69929 0.303324 -3.29862e-19)
(7.70143 0.275477 -1.66003e-19)
(7.70053 0.248669 6.48667e-19)
(7.69693 0.223221 3.6372e-19)
(7.69101 0.199365 2.98341e-19)
(7.68314 0.177261 -6.66821e-19)
(7.67365 0.157 1.96795e-19)
(7.66287 0.138622 -2.39857e-19)
(7.65111 0.122122 1.26112e-19)
(7.63863 0.107463 -1.88526e-19)
(7.62565 0.0945488 2.82346e-19)
(7.61237 0.0832947 -1.42818e-19)
(7.599 0.0736231 5.39821e-20)
(7.5857 0.0654458 -1.14381e-19)
(7.57254 0.0585727 8.88655e-20)
(7.55964 0.0529198 -6.70716e-20)
(7.54712 0.0483712 -1.61155e-21)
(7.53504 0.0448493 1.00344e-20)
(7.23416 0.43999 -2.16038e-20)
(7.2557 0.450304 1.39627e-21)
(7.27617 0.457737 -1.66308e-20)
(7.29575 0.463943 -3.91701e-20)
(7.31487 0.469363 -4.85108e-20)
(7.33378 0.473971 8.25464e-21)
(7.35267 0.47775 1.18451e-19)
(7.37173 0.480657 -1.88772e-19)
(7.39106 0.482592 8.53875e-19)
(7.41073 0.483405 -1.1586e-18)
(7.43072 0.482925 5.76215e-19)
(7.45102 0.480975 1.62767e-19)
(7.47157 0.477365 -2.27169e-19)
(7.49223 0.471901 -8.93006e-19)
(7.51283 0.464399 2.34824e-19)
(7.53313 0.454695 -5.11452e-19)
(7.55285 0.442665 1.664e-18)
(7.57165 0.428228 -4.66382e-19)
(7.58916 0.41136 -1.07303e-19)
(7.60502 0.392111 2.99932e-19)
(7.6188 0.370586 -1.46498e-18)
(7.62983 0.347772 8.83718e-19)
(7.63783 0.324682 4.99652e-19)
(7.64298 0.30162 -4.63803e-19)
(7.64548 0.278972 -1.10188e-19)
(7.64555 0.257063 3.80298e-19)
(7.64347 0.236147 -5.93225e-19)
(7.6395 0.216415 4.11096e-19)
(7.63392 0.197998 3.28235e-19)
(7.62701 0.180979 -2.47345e-19)
(7.61901 0.165396 -3.95047e-19)
(7.61016 0.151254 4.10421e-20)
(7.60067 0.138534 1.8684e-19)
(7.59072 0.127165 7.86351e-20)
(7.58046 0.117088 -2.03249e-19)
(7.57007 0.10825 2.03962e-19)
(7.55966 0.100592 -1.26757e-19)
(7.54931 0.0939646 5.37443e-20)
(7.5391 0.0883144 1.33047e-20)
(7.52914 0.0835431 -4.36179e-20)
(7.51946 0.0796688 -5.81991e-21)
(7.24599 0.420195 -5.94894e-20)
(7.26547 0.428354 5.76828e-20)
(7.28392 0.434114 1.72529e-20)
(7.30149 0.43881 -4.97319e-20)
(7.31854 0.442779 1.61941e-19)
(7.3353 0.446018 -2.90992e-19)
(7.35193 0.448528 3.86991e-19)
(7.36858 0.450279 -1.0321e-18)
(7.38535 0.451198 1.19259e-18)
(7.40226 0.451174 -5.68343e-19)
(7.41933 0.45008 -7.97788e-19)
(7.43653 0.447789 2.53685e-19)
(7.4538 0.444164 1.06561e-18)
(7.47106 0.439065 5.48449e-19)
(7.48816 0.432363 -1.00802e-18)
(7.50492 0.423943 7.46741e-19)
(7.52114 0.413719 -5.83434e-19)
(7.53657 0.401636 -1.31906e-19)
(7.55094 0.387679 1.69625e-19)
(7.56398 0.371886 -7.34888e-19)
(7.57537 0.354331 1.82449e-18)
(7.58461 0.335784 -8.28376e-19)
(7.59148 0.317026 6.47659e-20)
(7.59612 0.298282 1.92847e-19)