/*--------------------------------*- C++ -*----------------------------------*\
| =========                 |                                                 |
| \\      /  F ield         | OpenFOAM: The Open Source CFD Toolbox           |
|  \\    /   O peration     | Version:  2312                                  |
|   \\  /    A nd           | Website:  www.openfoam.com                      |
|    \\/     M anipulation  |                                                 |
\*---------------------------------------------------------------------------*/
FoamFile
{
    version     2.0;
    format      ascii;
    arch        "LSB;label=32;scalar=64";
    class       volScalarField;
    location    "200";
    object      div(phi);
}
// * * * * * * * * * * * * * * * * * * * * * * * * * * * * * * * * * * * * * //

dimensions      [0 0 -1 0 0 0 0];

internalField   nonuniform List<scalar> 
11040
(
0.180861
-0.0184377
0.243082
0.400289
0.741856
0.116346
-0.248047
0.0430051
-0.260935
0.434281
0.143071
0.81277
0.697338
0.661553
0.529295
0.213062
0.582283
-0.12707
0.828917
-0.486727
0.88308
0.840274
0.658462
0.643148
-0.222512
0.692114
-0.325351
0.470015
-0.241374
0.534394
-0.564707
0.240249
-0.994065
0.0719026
-1.18204
0.262639
-0.986264
0.24152
-0.832085
0.777064
0.675275
-0.0138986
0.02312
0.135351
0.349911
0.575182
0.740159
0.818895
1.05162
0.976181
1.12853
0.987253
1.19477
1.19382
1.03789
1.02898
0.878921
1.06609
0.74509
0.914149
0.590646
0.764549
0.763233
0.730669
0.759278
0.386242
0.408225
0.0087258
0.175413
0.111211
0.330327
0.301659
0.481807
0.285802
0.545166
0.26966
0.531208
0.0644682
0.208255
-0.318771
0.135167
-0.0148658
0.0882053
-0.0218936
0.0464299
0.03452
-0.0118029
-0.0893827
-0.0875177
0.0116081
-0.0811238
-0.046827
-0.135312
-0.00391593
-0.0980736
-0.0150638
-0.0854871
-0.161884
-0.0345371
-0.157375
0.156837
-0.233201
0.050313
0.00505383
-0.0157986
-0.0549607
-0.192962
0.139126
-0.0588366
0.0592498
-0.0731176
0.055389
-0.190226
-0.048916
-0.28341
-0.123575
-0.315909
-0.113317
-0.322595
-0.0359106
-0.218536
0.230245
0.0856394
-0.0157072
-0.0316583
-0.000421833
-0.0344661
0.00922974
0.0257664
0.122012
0.19731
0.309641
0.413895
0.49808
0.597165
0.604356
0.578554
0.538391
0.492161
0.481703
0.446597
0.465034
0.376907
0.363355
0.327037
0.285473
0.299812
0.210146
0.182016
0.069439
0.105623
0.0913378
0.179509
0.177495
0.249707
0.187822
0.262802
0.160208
0.202336
0.0464554
0.0601074
-0.0932728
0.00924731
-0.121588
-0.0575344
0.0153901
-0.0179603
0.0387593
0.0110253
0.0304023
0.0294742
0.0308763
0.0122515
0.0246516
0.0489764
0.0886422
0.0194389
0.027543
-0.00830629
-0.0237866
0.0286881
0.0433967
0.0879192
-0.0206195
0.0379953
5.24411e-05
-0.00959479
-0.0475551
-0.0722087
0.0312955
0.0184363
0.020655
0.00146991
0.0212077
-0.0241186
-0.0116253
-0.0404744
-0.0510617
-0.0588231
-0.0815925
-0.0782678
-0.0792801
-0.0471316
0.00792682
-8.82817e-06
0.116927
-0.0489209
0.0496749
-0.0719259
-0.0242452
-0.00872446
-0.0211811
-0.00672666
-0.0010448
0.0416111
0.0647984
0.127864
0.182862
0.238468
0.26959
0.294427
0.308954
0.278536
0.284486
0.22431
0.213756
0.166674
0.146702
0.108461
0.119376
0.0735805
0.0783342
0.0630612
0.0802159
0.0808435
0.10986
0.0873869
0.10429
0.0666283
0.0814679
0.0169579
0.0288191
-0.0408974
-0.0181683
-0.0582815
-0.0729055
-0.0632079
0.0218661
-0.124557
-0.0374326
0.00959314
0.00316788
0.0305321
0.0171302
0.0437109
0.0343172
0.0609616
0.0591251
0.0609616
0.0695014
0.0791176
0.0924889
0.106202
0.122331
0.091906
0.0601263
0.0423462
0.0381847
0.0219877
0.00850427
-0.017082
0.0324939
0.0255619
0.039913
0.0218062
0.044289
0.0159242
0.0395575
0.00236082
0.0234731
-0.0253603
-0.00384959
-0.0556733
-0.0281765
-0.0622333
-0.0272564
-0.0668162
0.0360166
-0.0696397
-0.0851963
0.044016
-0.00691788
0.0743537
0.00331696
0.0293502
-0.0181091
0.0188932
-0.0225664
-0.013973
0.0182593
0.0302708
0.0462276
0.0937302
0.11798
0.13307
0.127691
0.129616
0.113059
0.1018
0.0732033
0.0500122
0.0615503
0.0550344
0.0345301
0.0498249
0.0289684
0.0450462
0.0258741
0.0326893
0.00708428
0.00815749
-0.0171392
-0.023275
-0.0402348
-0.0451185
-0.0472599
-0.0507944
-0.0630132
0.0181513
-0.136105
0.0614705
-0.0616598
0.110266
-0.0192495
0.0310276
-0.0571446
0.00621083
-0.051617
-0.0266426
0.0176537
0.0236898
0.0395835
0.06013
0.0643949
0.0876914
0.0791875
0.0731031
0.0604286
0.0641101
0.0481669
0.0466864
0.0359014
0.0328025
0.0185848
0.0465358
0.0191287
0.0450103
0.0151965
0.0386758
0.000566416
0.0199146
-0.0225101
-0.0086151
-0.0469654
-0.0369882
-0.0625838
-0.0530219
-0.0647193
-0.0623256
-0.0766646
0.0327941
-0.0628686
0.0827579
-0.0115995
0.0372189
-0.0422713
0.000744572
-0.0359798
-0.0268574
0.0197874
0.0111052
0.0286859
0.0316446
0.00600429
0.0213993
0.00319097
-0.00334863
0.0227203
0.0295093
0.0447803
0.0472133
0.03945
0.0220967
0.0319119
0.0520545
-0.0196998
0.0456117
-0.019255
0.0419429
-0.0287145
0.0337028
-0.0469562
0.0193443
-0.0662818
0.00122753
-0.0766968
-0.0113069
-0.070348
-0.0165855
-0.0618112
-0.0113732
-0.012689
0.0178963
0.0173467
0.0246302
0.00851968
0.00453141
0.00383769
-0.00638735
0.0199147
0.0116013
0.0178698
0.0261935
-0.018339
-0.00172387
-0.0238126
-0.0278636
0.00949815
0.00294578
0.02902
0.0374879
0.0443099
0.0320815
0.0403668
0.0628812
-0.00510825
0.0451025
-0.0352566
0.0394519
-0.0453859
0.0457304
-0.0632459
0.0490141
-0.0810192
0.0506897
-0.0928574
0.0532014
-0.0867172
0.0569028
-0.0593876
0.0552575
0.000832132
0.00134205
0.0149572
0.0176333
0.0233939
0.0229632
0.0211944
0.0229207
0.0177105
0.0243957
0.013449
0.025982
-0.0159325
-0.00723296
-0.0201603
-0.0272903
0.00380429
-0.0149158
0.00632743
0.00292055
0.00604743
0.00887891
0.017301
0.0172736
0.0514084
0.0219524
0.00269853
0.00836633
-0.0127093
0.0132212
-0.0269264
0.028386
-0.0427269
0.0383176
-0.0573577
0.0518372
-0.0619583
0.0646801
-0.0431638
0.0740882
-0.00613624
0.0074364
0.00253034
0.0140069
0.00949103
0.0203226
0.015916
0.022169
0.019511
0.0212364
0.0198423
0.0178759
0.00631661
-0.0022756
-0.00265263
-0.0146897
0.00259043
-0.0159084
-0.00459803
-0.0101293
-0.0171035
-0.0175385
-0.0117296
-0.0313854
0.0598832
-0.0253297
0.0707137
-0.0303532
0.0459126
-0.0383517
0.0449171
-0.0369652
0.04314
-0.04011
0.0386095
-0.0379921
0.0319098
-0.0313227
0.0336947
-0.0182335
0.0444497
-0.0020149
0.00737274
-0.000631876
0.0123867
0.00262856
0.0165333
0.00598618
0.0183523
0.00947524
0.0180568
0.0131271
0.0156416
0.0108338
0.00869378
0.00536499
0.00356808
-0.00263223
-0.00321322
-0.00674967
-0.0154716
-0.0173902
-0.0105955
-0.0251854
0.0210168
-0.0304711
0.0818085
-0.0311326
0.0711157
-0.0458168
0.0707994
-0.0599237
0.0861864
-0.0835993
0.0966135
-0.103664
0.0998334
-0.116523
0.100075
-0.115525
0.0946843
-0.0765383
0.0501667
0.00577572
-0.00196776
0.0104533
-0.000538728
0.0138917
0.000756643
0.0153398
0.00287559
0.0150886
0.00500235
0.0130566
0.00615674
0.0096895
0.00619451
0.0074909
0.00606812
0.00201062
-0.00173368
-0.00581717
-0.00105625
-0.00452697
0.00356062
-0.00111381
0.0265117
0.00999631
0.0334975
0.00447941
0.0275687
-0.00691122
0.0296108
-0.018294
0.0327088
-0.0369954
0.0308076
-0.0515972
0.0252904
-0.0661459
0.0175411
-0.0533344
-0.000987405
-0.0324234
0.00468516
-0.00258977
0.00879852
-0.00211565
0.0116166
-0.00224995
0.0128116
-0.00214279
0.0119961
-0.00178412
0.00944999
-0.000269249
0.0073576
0.0020329
0.00684606
0.00499889
0.00622987
0.00542318
0.00393057
0.00612601
0.00344242
0.0112655
0.0046775
0.0198097
0.0063055
0.02682
0.00130381
0.0258929
-0.00789556
0.0300342
-0.020012
0.0288756
-0.0358077
0.0262178
-0.0508002
0.0179764
-0.0599055
0.0183389
-0.0572391
0.0242341
-0.0254849
0.00394644
-0.00276758
0.00707473
-0.00308417
0.00893716
-0.00376784
0.0097219
-0.00457709
0.00887008
-0.00507123
0.00692047
-0.00412481
0.00533982
-0.00200421
0.00473686
0.000700847
0.00465154
0.00293083
0.00390145
0.00480611
0.00280301
0.00868284
0.00189256
0.0146317
-1.45455e-05
0.0210828
-0.00368338
0.0263041
-0.00910756
0.0293105
-0.0152983
0.0276227
-0.0240958
0.0241129
-0.0337258
0.0289741
-0.0382159
0.0478918
-0.024337
0.0603133
-0.00628795
0.00247945
-0.00133772
0.00493625
-0.0015937
0.00638753
-0.00226385
0.00709371
-0.00328926
0.00665098
-0.00423002
0.00534583
-0.00421782
0.00388364
-0.00331319
0.00277888
-0.00171723
0.00198129
0.000107358
0.001262
0.00168529
0.000508122
0.00406847
-0.000341455
0.0075912
-0.00155707
0.0119352
-0.0036208
0.0164984
-0.0064206
0.0194027
-0.010233
0.0175377
-0.0163118
0.013557
-0.0245099
0.0138389
-0.0311133
0.023797
-0.0341459
0.0358335
-0.0124439
0.00249771
-0.00119985
0.00330213
-0.00146535
0.00390916
-0.00218575
0.00410773
-0.00319504
0.0037762
-0.0040563
0.00297903
-0.00421472
0.00195067
-0.0038186
0.00102024
-0.00307682
5.88377e-05
-0.00204583
-0.000696847
-0.000868199
-0.00126578
0.000797775
-0.00163847
0.00322304
-0.00148233
0.00629725
-0.000948568
0.00978708
0.000367158
0.0128869
0.00209463
0.0141108
0.00317585
0.0150777
0.00427899
0.0206642
0.00661293
0.0346865
0.0130307
0.0541915
0.0197319
-0.00145096
0.00159938
-0.000246357
0.000864595
0.000606882
-0.000196723
0.0010155
-0.00117962
0.00107679
-0.00209317
0.000755822
-0.00263489
9.77341e-05
-0.0028028
-0.000765959
-0.00273695
-0.00164753
-0.00229145
-0.00217604
-0.00168606
-0.00222174
-0.000698895
-0.001966
0.000425909
-0.00109304
0.00157951
0.000324604
0.00259851
0.00178955
0.00378828
0.00303138
0.00448073
0.0038698
0.00519444
0.00496576
0.00703252
0.00595547
0.0104623
0.00527061
0.0194428
0.00515784
0.00407227
-0.00349926
0.00362718
-0.00374974
0.00429681
-0.00433059
0.00458479
-0.00503881
0.00454158
-0.00578049
0.00421356
-0.00606797
0.00334781
-0.00579687
0.00209548
-0.00510697
0.000759866
-0.00397234
-0.000576798
-0.00268962
-0.0014473
-0.00159832
-0.00231755
-0.000743532
-0.00244823
-0.000330121
-0.00211113
-0.000457388
-0.00102009
-0.000829515
-0.000488148
-0.000474348
0.000231859
0.00231949
-7.78646e-05
0.00742713
-0.00104136
0.0103432
-0.00119368
0.0102822
0.00030974
-0.000867621
0.000250972
-0.001024
0.00104097
-0.000699739
0.00140463
-0.000740516
0.00176518
-0.000911662
0.00188304
-0.00107037
0.00198609
-0.00102743
0.00164458
-0.000824313
0.00138987
-0.000453631
0.000917307
-1.92794e-05
0.000705947
0.000451891
0.000562944
0.00097036
0.000620476
0.0015465
0.000742725
0.00217364
0.00133357
0.00297049
0.00175603
0.00467271
0.00379308
0.00736565
0.00598141
0.0124937
0.00670471
0.017039
0.0115157
0.0142722
0.0122397
0.00814448
0.00234358
-0.00143962
0.000455559
-0.000333047
0.000411885
0.0001798
0.000278663
0.000553052
3.90383e-05
0.000813771
-4.0439e-05
0.000964655
-0.000127383
0.000938924
3.12077e-05
0.000856921
0.000235682
0.000718354
0.000510004
0.000646258
0.000870278
0.000610839
0.00154193
0.000659641
0.00255117
0.000836232
0.00376924
0.00131325
0.00540066
0.00270662
0.00669888
0.00316082
0.00872848
0.00337346
0.00989399
0.00436714
0.00894144
0.002198
0.00515712
0.00239029
0.00099669
-0.00172534
0.00115284
-0.00135123
0.0011012
-0.00114765
0.00137403
-0.00119024
0.00145738
-0.00130539
0.00140385
-0.00142158
0.0011516
-0.00135485
0.000774166
-0.00105171
0.000184286
-0.000545397
-0.000381998
4.18686e-05
-0.00112431
0.000565252
-0.00190347
0.00102266
-0.00289568
0.00145889
-0.00359159
0.00174863
-0.00419436
0.00205575
-0.00465322
0.00258287
-0.00451333
0.00324299
-0.00463815
0.00385962
-0.00485238
0.00365164
-0.00372456
0.00195925
-0.00381435
-0.000528955
0.00156289
-0.00130628
3.70601e-05
-0.0003561
0.000334872
-0.000148182
0.0004658
-0.000121927
0.000556939
-0.000166137
0.000541051
-0.000193038
0.000500022
-9.92958e-05
0.000376699
0.000137449
0.000302691
0.000468788
0.000159392
0.000822436
-2.48562e-05
0.00124542
-0.000381971
0.00171775
-0.000739572
0.00213926
-0.0012075
0.00271408
-0.00136802
0.00307664
-0.00106556
0.00370693
-0.0014481
0.00417482
-0.00118265
0.00470887
-0.00172482
0.00487688
-0.00252643
0.00468867
-0.00261406
-0.00102388
0.000562239
-0.000536181
0.000163901
-1.0095e-05
7.47634e-05
0.000136869
-1.37917e-05
0.000206031
-8.94869e-05
0.000195805
-0.000172973
0.000144211
-6.21733e-05
9.45663e-05
9.81053e-05
8.33542e-05
0.000495091
8.96058e-05
0.000812453
2.81724e-05
0.00141019
-0.000108817
0.00196658
-0.000247519
0.00249801
-5.49373e-06
0.0024567
-0.000525116
0.00241066
-0.000813258
0.00200123
-0.00159831
0.00162344
-0.00300048
0.00116288
-0.00381682
0.000526245
-0.0047524
4.73453e-06
-0.00471279
0.000862576
-0.00118869
0.000504638
-0.000293604
0.00020581
-0.00016818
9.84965e-05
-9.51164e-05
-5.61328e-05
-1.77029e-05
-0.000379587
8.65548e-05
-0.00069953
0.000297651
-0.00113821
0.000635362
-0.00146218
0.0010594
-0.00188547
0.00148353
-0.00221459
0.00178073
-0.00261274
0.00193287
-0.00303545
0.00183636
-0.00362274
0.00170383
-0.00395138
0.00156388
-0.00458356
0.00165565
-0.00494982
0.00175215
-0.0047966
0.00174787
-0.00477909
0.00131478
-0.00435508
0.000476857
-0.00405944
-0.000920287
0.000725173
-0.000544136
5.60686e-05
-9.42162e-05
-1.33072e-05
-5.1038e-05
-1.82529e-05
-8.40579e-06
-6.73971e-05
2.93353e-05
-0.000146274
0.000115326
-0.000279793
0.000273158
-0.000385483
0.000502703
-0.00049712
0.000836378
-0.000644078
0.00110099
-0.000666124
0.00155109
-0.00104078
0.00200577
-0.000923861
0.00236096
-0.000878393
0.0027925
-0.00105646
0.00300696
-0.00093027
0.00317949
-0.00100233
0.00294294
-0.00134355
0.00241083
-0.00167744
0.00157471
-0.002043
0.000749231
0.000306361
-0.00093901
0.000327724
-0.000112561
-4.36332e-05
5.30207e-05
-0.000173046
5.13806e-05
-0.0001993
1.60739e-05
-0.000158932
-6.01215e-05
-6.64441e-05
-0.000171241
6.19339e-05
-0.00027134
0.000343472
-0.000269027
0.000500252
-0.00046863
0.000874716
-0.000636102
0.00119003
-0.00072644
0.0014115
-0.00121361
0.00171913
-0.00115822
0.00192563
-0.00134316
0.0021034
-0.00155636
0.00212851
-0.00164594
0.00193992
-0.00197596
0.00153497
-0.00208333
0.000973107
-0.00245037
0.00043085
-0.000611595
0.000603476
-0.000455485
0.00021099
0.000108249
-0.000163715
0.000161124
-0.000399018
0.000280348
-0.000607061
0.000428199
-0.0009129
0.000609138
-0.00118833
0.000787217
-0.00140709
0.00102343
-0.0016325
0.00125496
-0.00167587
0.00136374
-0.00191557
0.00148952
-0.00225865
0.0015677
-0.00241145
0.00166443
-0.00272094
0.00181532
-0.00286258
0.00190762
-0.00283304
0.00193744
-0.00292145
0.00174396
-0.0028462
0.00149414
-0.00293912
0.00112072
-0.00273933
0.000706651
0.000173828
-0.000704824
0.000401579
-0.000125684
5.20754e-05
5.87355e-05
-7.50543e-05
3.63623e-05
-0.000157071
5.80744e-05
-0.000246401
0.000112107
-0.000400746
0.000161811
-0.00049162
0.000277927
-0.000673018
0.000402975
-0.000689277
0.000460962
-0.000900923
0.000479873
-0.00124304
0.000449239
-0.00164629
0.000511918
-0.00190696
0.000631962
-0.0020824
0.000819754
-0.00217073
0.000901851
-0.00224885
0.000895857
-0.00238296
0.000767229
-0.00242701
0.000685342
-0.00258146
0.000445807
-0.00258368
-0.000392879
0.000349791
-0.000408477
0.000173093
0.000135307
-2.73886e-05
0.000157203
-0.000140094
8.06931e-05
-0.000128822
-1.27835e-05
-0.000112488
-0.000169908
-8.09317e-06
-0.000311504
7.64736e-05
-0.000423584
0.000136778
-0.000612457
0.000216126
-0.00082383
0.000219475
-0.001181
0.000290957
-0.0014608
0.000437244
-0.00161541
0.000676071
-0.00154482
0.000904273
-0.00152332
0.0010112
-0.00160569
0.000975953
-0.00174173
0.000881367
-0.00191305
0.000819507
-0.00199886
0.000686547
-0.00218811
6.33465e-05
-0.00046149
0.000221995
-6.58009e-05
6.89984e-05
0.000284913
-0.000199952
0.000303214
-0.000417806
0.000377678
-0.000621435
0.000476489
-0.000814398
0.000553405
-0.000978902
0.00061068
-0.00113578
0.000628251
-0.00126756
0.000613609
-0.00146549
0.00059401
-0.00178911
0.000638996
-0.00185515
0.000799083
-0.0019244
0.000974016
-0.00173175
0.00116403
-0.00161674
0.00120596
-0.00160646
0.0011622
-0.0016692
0.00103688
-0.00179293
0.000987171
-0.00183291
0.00082362
-0.00191119
-0.000226754
0.000164027
-0.000329005
0.000162238
4.90376e-05
5.13824e-05
5.19704e-05
-7.26425e-05
1.72274e-05
-0.000174665
1.47269e-05
-0.000287657
2.85341e-05
-0.000415538
4.05323e-05
-0.000547289
3.71874e-05
-0.000697239
4.44831e-06
-0.000888164
-4.51576e-05
-0.00114884
-3.36452e-05
-0.00129985
9.5233e-05
-0.00139833
0.00024027
-0.0013588
0.000449243
-0.00126989
0.000564263
-0.00127828
0.000615443
-0.00131188
0.000582471
-0.00140663
0.000529567
-0.00153043
0.000430283
-0.00167693
0.000521092
-4.50994e-07
-0.000291641
8.1339e-05
-0.000164358
8.55227e-05
-7.62564e-06
5.06571e-05
-9.39302e-05
3.70491e-06
-0.000167208
-8.21437e-06
-0.000254996
-8.26705e-06
-0.000360645
7.98954e-06
-0.000473613
-6.78444e-06
-0.000598845
-4.88671e-05
-0.000774667
-5.89736e-05
-0.000948325
2.2237e-05
-0.000972502
0.000168807
-0.000997364
0.000369511
-0.000862276
0.000552527
-0.000793692
0.000643792
-0.000819989
0.000658094
-0.000890652
0.000624008
-0.00100776
0.000576385
-0.00111647
0.000526581
-0.00125927
0.000639594
-0.000125713
4.258e-05
-0.000230512
3.31585e-05
-5.93421e-05
0.000108859
-9.58626e-05
6.17064e-05
-0.000143238
-1.97569e-05
-0.000132494
-0.000119883
-9.83238e-05
-0.000223516
-7.29805e-05
-0.000339865
-6.53368e-05
-0.000475573
-7.84624e-05
-0.00060543
-3.0966e-05
-0.000669955
6.71742e-05
-0.000716019
0.000247388
-0.000630631
0.0003884
-0.000588017
0.000488229
-0.000620961
0.000488113
-0.000705813
0.000483516
-0.000812659
0.000427788
-0.000896604
0.000413195
-0.00102217
0.000405635
-0.00104686
0.000540915
-2.45402e-05
-0.000163488
-9.60295e-06
-0.000134974
6.91536e-05
-7.29895e-05
0.000168681
-0.000205867
0.000173414
-0.000322368
0.000206334
-0.000420348
0.000237961
-0.000520792
0.00025227
-0.000594791
0.000233996
-0.000701761
0.000232759
-0.000752883
0.000264369
-0.00078818
0.00035176
-0.000726885
0.000439758
-0.000690608
0.000500185
-0.000692534
0.000506027
-0.000749853
0.000496988
-0.000813582
0.000459163
-0.000903963
0.000409204
-0.000998583
0.000342529
-0.00112651
0.000274985
-0.00121707
0.000313606
-6.06368e-05
-1.48928e-05
-0.000119104
-4.2602e-05
-2.10647e-05
5.65976e-05
7.2166e-06
2.21e-05
-6.95019e-05
1.74494e-06
-0.000125857
3.69037e-06
-0.000193979
1.18347e-05
-0.000267468
-1.14795e-05
-0.00036949
-1.96507e-05
-0.000450077
1.03036e-05
-0.000482885
5.58403e-05
-0.00051912
0.000142158
-0.000511336
0.000194514
-0.000541318
0.000222782
-0.000582187
0.000221987
-0.000642979
0.000217947
-0.000707103
0.000197364
-0.000785449
0.000180554
-0.000869403
0.000215226
-0.000965967
0.000168593
-0.00102393
-3.15937e-05
-7.02621e-05
-5.79988e-05
-6.52341e-05
-1.10201e-05
4.96147e-05
4.10049e-06
3.46936e-05
-5.12524e-05
8.77804e-06
-9.38752e-05
6.98461e-06
-0.000141503
-5.75489e-06
-0.000216377
3.52197e-06
-0.000290667
7.2137e-06
-0.000308872
5.21134e-05
-0.000350375
0.000124905
-0.000312269
0.000204637
-0.00029763
0.000242147
-0.000322107
0.000251936
-0.000363146
0.000245884
-0.000412785
0.000237588
-0.000466749
0.000229299
-0.000522237
0.000229422
-0.000574644
0.000286789
-0.000626129
0.000302318
-0.000644687
-1.56625e-05
-4.32645e-05
-4.86294e-05
-5.89198e-05
-3.35521e-06
-7.15081e-07
8.28755e-05
-3.20736e-05
3.14633e-05
-4.73426e-05
-2.1672e-05
-3.8674e-05
-8.61934e-05
-1.71176e-05
-0.000146659
-1.66067e-05
-0.000202145
1.84218e-05
-0.000248669
5.56694e-05
-0.000230888
0.000106417
-0.000237409
0.000140038
-0.000253662
0.000147975
-0.000296078
0.000138562
-0.000342523
0.000119572
-0.000409297
0.00010216
-0.0004688
8.6164e-05
-0.000540447
7.80012e-05
-0.00061469
0.000112188
-0.000672412
0.000119655
-0.000734988
-2.61867e-05
-1.416e-05
-7.37782e-05
-1.85858e-05
-3.19212e-05
7.34032e-05
-3.37834e-05
0.000108535
-8.42072e-05
9.44774e-05
-0.000134196
9.66475e-05
-0.000167587
9.6318e-05
-0.000219192
9.71626e-05
-0.000231742
8.69241e-05
-0.00026553
8.02505e-05
-0.000290957
7.51717e-05
-0.000311068
7.40972e-05
-0.000325373
8.03144e-05
-0.000331778
8.99861e-05
-0.00033085
0.000113465
-0.000326205
0.000143019
-0.000319509
0.0001793
-0.000323957
0.000216332
-0.000340479
0.000289544
-0.000336654
0.000330776
-0.000369818
1.47512e-05
-5.05966e-05
9.67811e-06
-5.75952e-05
7.44609e-06
9.02261e-06
7.7298e-05
2.84474e-05
3.73272e-05
-1.49674e-05
1.8007e-05
-4.55246e-05
1.33239e-05
-8.12809e-05
1.86887e-05
-0.000102025
4.30699e-06
-0.000137076
3.32733e-06
-0.000172821
5.22157e-06
-0.000166769
3.6636e-06
-0.000206911
3.17682e-06
-0.000219366
3.52369e-06
-0.000237484
5.56334e-06
-0.000255712
1.10139e-05
-0.00027511
2.29898e-05
-0.000298332
3.09466e-05
-0.000328149
3.85052e-05
-0.000378708
3.955e-05
-0.000422447
0.00012121
-1.84169e-05
3.34845e-05
-8.17345e-05
2.66321e-05
-8.62433e-06
4.45997e-05
3.96454e-05
5.38943e-05
4.557e-05
1.29364e-05
2.84362e-05
-1.82225e-05
2.35831e-05
-3.60625e-05
1.33413e-05
-6.3988e-05
2.6995e-05
-6.55728e-05
3.84503e-05
-4.19183e-05
7.19009e-05
-4.07457e-05
0.000111882
1.47309e-05
0.000153656
4.24683e-05
0.000173619
5.16893e-05
0.000184011
3.98913e-05
0.000192872
2.89697e-05
0.000207532
1.079e-05
0.000221775
-2.27086e-06
0.000238234
-4.05745e-05
0.000260388
-6.72813e-05
0.000314426
4.79135e-05
-6.69003e-05
2.2143e-05
-7.82591e-05
2.01073e-05
1.09873e-05
0.000101661
6.90558e-05
7.72657e-05
5.06121e-05
5.59467e-05
2.1031e-05
3.48146e-05
-1.31653e-05
2.42523e-05
-2.93101e-05
2.18998e-05
-2.98671e-05
4.8702e-05
-1.23898e-05
8.60148e-05
4.57744e-05
0.000125463
7.88004e-05
0.000144152
9.1163e-05
0.000143648
7.34637e-05
0.00013561
5.28451e-05
0.000127781
1.65848e-05
0.000127381
-1.1708e-05
0.000132144
-4.39673e-05
0.000150935
-7.45109e-05
0.000189496
-8.80689e-05
0.000243842
-5.7462e-06
4.60964e-05
-4.23395e-05
7.71811e-05
2.51732e-05
0.000120286
9.45273e-05
0.000138656
0.000131488
0.000118122
0.000119978
9.50987e-05
9.69737e-05
7.29751e-05
7.45951e-05
5.50277e-05
6.17991e-05
5.4968e-05
5.98713e-05
6.91518e-05
6.72177e-05
7.67183e-05
7.28351e-05
7.85996e-05
7.40675e-05
6.40987e-05
7.34084e-05
5.01663e-05
7.3616e-05
2.74273e-05
7.86455e-05
1.03225e-05
8.71994e-05
-1.22029e-05
9.73018e-05
-2.99165e-05
0.000106434
-6.41087e-05
0.000119909
-9.03916e-05
0.000161044
8.34118e-05
5.13351e-05
0.000126818
7.10168e-05
0.000156984
0.000142863
0.000210474
0.000194518
0.000184563
0.000197959
0.000173608
0.000193571
0.000165035
0.000180742
0.000145198
0.000156438
0.000115563
0.000127864
8.58002e-05
0.000107585
6.27894e-05
9.12048e-05
4.5031e-05
7.50513e-05
3.67055e-05
6.39454e-05
3.60677e-05
4.61463e-05
4.51392e-05
3.2416e-05
6.25041e-05
1.03985e-05
8.64925e-05
-1.39475e-05
0.000111603
-4.21121e-05
0.000137147
-8.39857e-05
0.000152918
-0.000109798
0.000152549
8.0766e-05
9.72206e-05
9.12561e-05
0.000136434
0.000152817
0.000191128
0.000187964
0.000174728
0.00019759
0.000166564
0.000221829
0.000177242
0.000245417
0.00019156
0.000256527
0.000203698
0.000239687
0.00020308
0.00020894
0.000201103
0.000170319
0.00019603
0.000129211
0.000193424
8.78166e-05
0.000192926
4.97063e-05
0.000198008
1.62437e-05
0.000210746
-1.00375e-05
0.000221009
-2.90382e-05
0.000248576
-3.70902e-05
0.000259673
-3.33548e-05
0.000296095
1.97598e-05
0.000291212
8.74489e-05
2.39757e-05
2.01802e-05
2.96035e-05
4.02225e-05
5.29102e-05
5.90946e-05
6.36534e-05
7.13534e-05
7.23846e-05
9.38301e-05
8.80452e-05
0.000128384
0.000109018
0.000172188
0.000133444
0.000214272
0.000154803
0.00024736
0.000176857
0.000277826
0.000204088
0.000304886
0.000230071
0.000327389
0.00025517
0.000346186
0.000274591
0.000361945
0.000287094
0.000377161
0.000293173
0.000393358
0.000289923
0.000411807
0.000277
0.000434412
0.000256491
0.000467471
0.000235473
0.000460302
0.000176547
-3.77858
1.67923
-3.30326
-1.23947
-0.767011
-0.644165
-0.612749
0.383845
-1.61063
0.625955
-0.764936
0.702628
0.454867
-0.392355
0.278457
-0.18306
0.205083
-0.0839411
0.179336
-0.0109204
0.0741214
-0.00171216
0.0252597
-0.00406185
0.0177064
0.0359682
-0.0189042
0.0114348
0.0102776
-0.00803969
0.0263033
0.00378921
0.0145152
0.0166997
0.0064668
0.00589556
0.00648133
0.00683947
0.011518
0.0112914
0.00861472
0.0119201
0.0108616
0.0171244
0.00335304
0.0100504
0.0158835
0.00327115
0.00298039
0.0130495
-0.000594827
0.00582659
0.00252054
0.00715732
0.0176604
-0.0104684
0.0092559
-0.00381633
0.008453
-0.0026965
0.00908932
-0.00691721
0.00101471
0.00313773
-0.00246083
0.0031232
-0.00355752
0.000229122
2.29801e-05
0.000594731
-0.00107379
5.64286e-05
-0.000195258
-0.000289356
-0.675023
0.11278
-0.666876
-0.481129
-0.342086
-0.429723
-0.41819
-0.0560789
-0.292596
0.00353939
-0.0548211
0.0673047
0.128268
-0.167562
0.0577373
-0.0983405
0.0340964
-0.0499323
0.0081443
-0.0177723
0.00078034
0.00470557
0.0101661
0.0148633
0.0127461
0.0232686
0.00824032
0.0154027
0.0156313
0.0110919
0.0203965
0.0178854
0.0166072
0.0169567
0.0145634
0.0140402
0.0120913
0.011265
0.0133182
0.0105384
0.00922694
0.00925036
0.00792924
0.00895333
0.00335666
0.00469965
0.00361065
0.00124079
0.000292571
0.00356891
-0.00183059
0.000973705
-0.000710853
0.00122948
0.00164046
-0.00366102
0.00165613
-0.00267839
0.00164363
-0.00191551
0.000952369
-0.00238135
-0.000297893
0.000542535
-0.00129559
0.000267382
-0.00108073
-0.000118153
-4.34599e-05
0.000120964
-0.000462493
9.98765e-05
-0.000125187
-5.66758e-05
-0.381655
-0.0257603
-0.266671
-0.128209
-0.113228
-0.12416
-0.0813376
0.159345
-0.139641
0.0316446
0.0332148
0.0806152
0.188158
-0.0832694
0.16182
-0.0162802
0.121408
0.00237822
0.0628776
0.00188161
0.0276649
0.00290526
0.00957891
-0.00873154
-0.000870012
-0.00921221
-0.00951473
-0.0099285
-0.00653331
-0.0115546
-0.00584407
-0.00822953
-0.00732384
-0.0075204
-0.0100628
-0.00497812
-0.0054145
-0.00431279
-0.00201408
-0.000592378
-0.000449881
0.00130804
0.00175012
0.00280244
0.00164563
0.00368111
0.0036544
0.00353618
0.00286233
0.00649218
0.00217421
0.00456339
0.00334047
0.00509636
0.00484525
0.000310876
0.00500972
0.000191754
0.00444384
0.000243343
0.002815
-0.000640946
0.00115628
0.00173072
-0.00054413
0.000919263
-0.000596882
0.000264673
0.00020394
0.000184686
-0.000349924
-4.414e-05
-7.04867e-05
-0.000195272
-0.228814
-0.141035
-0.297545
-0.325114
-0.34781
-0.33675
-0.276362
-0.134946
-0.182467
-0.0904087
-0.0508825
-0.0368241
0.0122447
-0.101438
0.0163157
-0.0542758
0.0168024
-0.0194783
0.00476349
-0.00451255
0.0041582
0.00811768
0.0108269
0.0146508
0.0112961
0.015991
0.00862076
0.00975873
0.0102564
0.00772541
0.0124824
0.0124816
0.0113662
0.0119101
0.0123884
0.0117336
0.00909469
0.00921005
0.0107862
0.00860147
0.00775986
0.00798352
0.00710172
0.0068468
0.00415943
0.00420624
0.00269976
0.00235566
0.00112724
0.0030535
-0.000429178
0.00164883
0.000400041
0.00160617
0.00060636
-0.00101876
0.00116296
-0.00141072
0.00111653
-0.000964515
0.000391408
-0.000992267
-8.71915e-05
0.000324355
-0.000806213
2.14186e-05
-0.000558037
-9.35468e-05
3.0536e-05
9.91807e-06
-0.000313318
9.4136e-05
-0.000122827
-5.78514e-05
-0.1227
-0.0509862
-0.0841291
-0.0346816
-0.0426402
-0.019623
0.0458394
0.103298
0.0396748
0.0417275
0.0756238
0.0364035
0.101205
-0.0191198
0.0887028
0.00851567
0.0689697
0.0136206
0.0343958
0.00313212
0.0143767
-0.00140276
0.00299357
-0.0115412
-0.00464293
-0.0138932
-0.00472319
-0.00747146
-0.00813094
-0.00996856
-0.00850364
-0.00899715
-0.0092242
-0.0098044
-0.00701701
-0.00469366
-0.00746705
-0.00704348
-0.00287489
-0.00175353
-0.00302511
-0.00158209
0.000723248
0.000825096
0.000871326
0.00163411
0.00140847
0.00234114
0.00158662
0.00342815
0.00145377
0.00317808
0.00252636
0.00359374
0.00277917
0.00142482
0.00289966
0.000258039
0.00263359
0.000322504
0.00173293
0.00014629
0.000884235
0.00103841
-0.000340838
0.000567234
-0.000207839
0.000197502
0.00018085
4.84361e-05
-0.000205075
-6.81074e-05
-2.64997e-05
-0.000184278
-0.112655
-0.104469
-0.135682
-0.174324
-0.189804
-0.216409
-0.140753
-0.136538
-0.12086
-0.107314
-0.0751956
-0.078113
-0.0564583
-0.0828012
-0.0244678
-0.0434757
-0.00482665
-0.0125524
-0.000408273
-0.0016561
0.00445859
0.00714689
0.00893703
0.0108443
0.00931623
0.0112244
0.00795015
0.00690647
0.00656832
0.0054311
0.00792396
0.00816258
0.00837536
0.00957696
0.0105183
0.00886959
0.00676028
0.00789725
0.00864562
0.00692351
0.00640902
0.0071923
0.00624075
0.00531605
0.00424198
0.00364487
0.00256193
0.00268844
0.00151778
0.0027624
0.000370885
0.00187467
0.00113565
0.00168411
0.000706001
9.65281e-05
0.000943619
-0.000541279
0.000874228
-0.000308557
0.000391449
-0.000296386
7.71886e-05
0.000224336
-0.00044343
2.22606e-05
-0.00032116
-7.30515e-05
6.93371e-05
-4.70714e-05
-0.000199247
8.84241e-05
-0.000106105
-6.08615e-05
-0.0694305
-0.0789919
-0.0797036
-0.0652808
-0.0780151
-0.0363087
-0.011901
0.0263254
0.0157266
0.0338542
0.0271944
0.0304668
0.0223891
-0.00103809
0.0333992
0.00880127
0.0277789
0.00836635
0.0156663
0.00202057
0.0055591
-0.00226755
-0.000660212
-0.00919413
-0.00572045
-0.00888482
-0.00263449
-0.00677502
-0.00760485
-0.00957615
-0.00887511
-0.00940269
-0.00998715
-0.00757766
-0.00631534
-0.00624619
-0.00818954
-0.00530616
-0.00311279
-0.00380678
-0.00444182
-0.00143325
-0.0001941
-0.00153499
-0.000465219
-0.000570416
-0.000334967
0.000695113
-1.54326e-05
0.00153724
0.000223143
0.00184591
0.00141334
0.00221212
0.00134974
0.00122401
0.00181213
0.000268028
0.00168029
0.00033788
0.00107815
0.000160182
0.000579739
0.000672622
-0.00018533
0.000365718
-0.000150985
0.000100521
0.00015394
-8.28307e-06
-0.000108638
-8.82575e-05
-2.95886e-06
-0.000171318
-0.0605213
-0.0654421
-0.0634015
-0.0784348
-0.0820166
-0.0909027
-0.0946001
-0.0614836
-0.089262
-0.0677784
-0.0785403
-0.0706195
-0.0748469
-0.0669532
-0.0419092
-0.0376359
-0.0156656
-0.0113951
-0.00453719
-0.00279657
0.00247302
0.00385428
0.00611289
0.00650713
0.00786086
0.00811427
0.00682039
0.00491073
0.00425768
0.00399159
0.00515544
0.00572192
0.0072007
0.00814038
0.00812346
0.00637316
0.00586647
0.00681314
0.00659714
0.00538688
0.00570559
0.00637967
0.00506387
0.00411428
0.00383888
0.00320458
0.00257052
0.00271102
0.00184275
0.00262299
0.000943151
0.00169308
0.00164369
0.0014494
0.00110777
0.000372585
0.00104443
-2.60089e-05
0.000946581
7.2012e-05
0.00050165
7.27426e-05
0.000205313
0.000247871
-0.000172054
8.35088e-05
-0.000203302
-5.33791e-05
8.94897e-05
-6.00586e-05
-0.000118643
8.07562e-05
-8.4983e-05
-6.42123e-05
-0.0699301
-0.0690414
-0.0773531
-0.0761853
-0.0787945
-0.0920947
-0.0520195
-0.0725659
-0.0394466
-0.0380022
-0.0190136
-0.0219393
-0.0157612
-0.0139648