/*--------------------------------*- C++ -*----------------------------------*\
| =========                 |                                                 |
| \\      /  F ield         | OpenFOAM: The Open Source CFD Toolbox           |
|  \\    /   O peration     | Version:  2312                                  |
|   \\  /    A nd           | Website:  www.openfoam.com                      |
|    \\/     M anipulation  |                                                 |
\*---------------------------------------------------------------------------*/
FoamFile
{
    version     2.0;
    format      ascii;
    arch        "LSB;label=32;scalar=64";
    class       volScalarField;
    location    "200";
    object      magR;
}
// * * * * * * * * * * * * * * * * * * * * * * * * * * * * * * * * * * * * * //

dimensions      [0 2 -2 0 0 0 0];

internalField   nonuniform List<scalar> 
11040
(
0.282125
0.514003
0.494917
0.0931936
0.0106641
0.0788224
0.176373
0.204358
0.189172
0.167515
0.136557
0.0995232
0.0560236
0.0428195
0.0403218
0.0559173
0.109873
0.165381
0.185651
0.110154
0.0487359
0.110659
0.257579
0.422055
0.461215
0.377028
0.251998
0.125881
0.0421471
0.339805
0.511377
0.481412
0.356332
0.224208
0.0889934
0.261579
0.56258
1.0158
1.74897
2.57346
2.66237
0.0392793
0.0539286
0.140022
0.354152
0.379897
0.904761
0.790824
0.386902
0.231206
0.137889
0.0929924
0.0627482
0.041367
0.0257696
0.0254086
0.0316084
0.032402
0.0355043
0.0482348
0.0719093
0.108561
0.140009
0.11986
0.0682323
0.0388933
0.0676457
0.0983163
0.133433
0.204132
0.118425
0.129666
0.228861
0.312959
0.397441
0.487804
0.564132
0.603396
0.633185
0.666607
0.63113
0.769714
0.0234889
0.0173406
0.0114305
0.0638288
0.179771
0.669749
1.24589
1.24616
0.771493
0.466182
0.297722
0.181867
0.114218
0.0897183
0.0885459
0.104486
0.117044
0.109888
0.0978762
0.123917
0.194269
0.256556
0.220124
0.120934
0.0718468
0.108947
0.209333
0.46306
0.381047
0.199103
0.237846
0.391909
0.549963
0.693316
0.824075
0.926287
1.00432
1.04016
1.05676
0.933513
1.0858
0.0163749
0.0127985
0.0106829
0.00848148
0.0192017
0.122082
0.570756
1.2957
1.50704
1.14732
0.721019
0.45739
0.290005
0.202131
0.178662
0.199589
0.215127
0.19096
0.139834
0.167399
0.312033
0.446371
0.417245
0.271632
0.199555
0.281507
0.515308
0.871544
0.567264
0.244492
0.274009
0.552864
0.826384
1.07379
1.28873
1.45948
1.58338
1.64136
1.64218
1.46832
1.44917
0.0116979
0.0103677
0.0088239
0.0082805
0.00596733
0.00467031
0.0599509
0.394782
1.0867
1.56349
1.42751
0.995453
0.63478
0.420439
0.326237
0.330662
0.360707
0.33037
0.220095
0.180544
0.407424
0.633205
0.649872
0.459864
0.344409
0.506793
0.880925
1.17132
0.702694
0.241986
0.315518
0.752349
1.17121
1.55332
1.87843
2.14183
2.3277
2.42724
2.42536
2.24344
2.06836
0.00810197
0.00738376
0.0066714
0.00595896
0.00623311
0.00402111
0.000511483
0.0184157
0.224335
0.779386
1.39542
1.5414
1.23561
0.84168
0.58564
0.505777
0.536428
0.540299
0.402078
0.18225
0.425327
0.742181
0.84547
0.641215
0.467052
0.747075
1.23504
1.33481
0.737358
0.19251
0.392974
1.00266
1.58707
2.12426
2.58049
2.95023
3.21035
3.3618
3.3714
3.22896
2.9735
0.00567876
0.00539019
0.00510377
0.00464853
0.00434381
0.00466687
0.00290111
0.000111009
0.00165728
0.0979184
0.480819
1.08664
1.4727
1.38603
1.05714
0.807327
0.752784
0.77592
0.677752
0.344741
0.308345
0.701589
0.917765
0.762663
0.468841
0.950761
1.50347
1.31025
0.634132
0.0960618
0.535002
1.29803
2.0558
2.75906
3.35926
3.84087
4.18287
4.39213
4.42846
4.3612
4.10594
0.00404649
0.00389858
0.00379678
0.00364883
0.00334815
0.00314644
0.00355945
0.00221253
3.61737e-06
0.000226099
0.0324671
0.253664
0.752626
1.26254
1.42192
1.25949
1.08663
1.04735
0.988316
0.707947
0.215132
0.457877
0.782794
0.736309
0.243492
1.0772
1.58685
1.1137
0.381753
0.17305
0.757613
1.62713
2.54394
3.4125
4.15491
4.74861
5.17012
5.43999
5.51715
5.5467
5.35818
0.00291298
0.00283252
0.00279223
0.00274107
0.00264809
0.0024172
0.00230906
0.00260703
0.0019227
6.83388e-05
0.000140245
0.002904
0.111681
0.463663
0.979979
1.34965
1.43131
1.39111
1.32386
1.12333
0.680923
0.183987
0.414465
0.586726
0.352176
1.20915
1.48805
0.829911
0.0457828
0.457027
1.05099
1.96245
3.0026
4.01878
4.88647
5.57878
6.0683
6.38851
6.51146
6.63668
6.56044
0.00211492
0.00206637
0.00204642
0.00203357
0.00200425
0.00193985
0.00176959
0.00169593
0.00189834
0.00160562
0.000163878
2.44852e-05
0.00379846
0.0330263
0.243202
0.683135
1.1877
1.52858
1.63923
1.52886
1.22648
0.814853
0.467897
0.717207
1.22859
1.71073
1.58751
0.957109
0.535889
0.790254
1.33902
2.24173
3.36461
4.48788
5.4501
6.23066
6.76036
7.0978
7.23681
7.41332
7.4595
0.00154268
0.0015121
0.00149886
0.00149611
0.00149217
0.0014733
0.0014237
0.00130962
0.00123119
0.00136758
0.00127352
0.000377915
1.8878e-05
0.000249179
0.00350592
0.0989759
0.414938
0.949152
1.48228
1.74703
1.6795
1.46189
1.27888
1.36172
2.15909
2.70079
2.36076
1.72201
1.09567
1.05478
1.48396
2.30246
3.4056
4.59998
5.69368
6.56769
7.11414
7.44642
7.54277
7.68483
7.77865
0.00112901
0.00111026
0.00109838
0.00109663
0.00109984
0.00109627
0.00108109
0.00104641
0.000970533
0.000901017
0.000966838
0.00101672
0.000505395
2.45681e-08
1.18165e-05
8.36123e-05
0.0274239
0.201063
0.64909
1.24355
1.66768
1.81229
1.88515
2.03628
2.69514
3.62209
3.45531
2.64672
1.61285
1.11103
1.36263
2.09004
3.09102
4.23239
5.36969
6.34332
7.03501
7.38199
7.41046
7.43003
7.4167
0.000828375
0.000816418
0.000805519
0.000803166
0.000806528
0.000808885
0.000805589
0.000794329
0.00077222
0.000723012
0.000667283
0.000683491
0.000759414
0.000572177
2.01e-05
5.41667e-06
0.00012073
2.4387e-05
0.0662432
0.348524
0.857428
1.36874
1.7608
2.18315
2.83579
3.82678
4.25814
3.44039
2.05556
0.919073
0.902956
1.76846
2.73713
3.7726
4.82648
5.77609
6.49648
6.91955
6.97704
6.7983
6.51817
0.000608369
0.000600824
0.000590886
0.000587791
0.000590346
0.000593468
0.000594845
0.000592229
0.000584044
0.000569512
0.000539128
0.000497413
0.00049069
0.000536622
0.00053299
0.000101893
1.10353e-05
8.17296e-08
0.00143931
0.0108604
0.130664
0.44434
0.86118
1.35281
2.11137
3.12075
3.98954
3.72361
2.41675
0.882592
0.615464
1.89148
2.98848
3.95948
4.85537
5.64169
6.22521
6.5457
6.52799
6.13347
5.45989
0.000446694
0.000441916
0.000433184
0.000429808
0.000431499
0.00043398
0.000435862
0.000436402
0.000434162
0.000428339
0.000418722
0.000400815
0.000371306
0.000353278
0.00038024
0.000428037
0.000234821
2.25578e-05
3.74591e-07
1.53958e-05
0.00527226
0.0239497
0.14255
0.352542
0.759629
1.64709
2.68567
3.15934
2.67004
1.71984
1.63452
2.73258
3.99699
5.09406
5.98944
6.65718
7.04615
7.11761
6.82275
6.11327
5.08232
0.000327595
0.000324592
0.000317233
0.000314062
0.000315018
0.000316815
0.00031829
0.000319375
0.000319637
0.000317371
0.000312809
0.000305946
0.00029497
0.000275455
0.000254746
0.000261143
0.000291939
0.00027579
3.18619e-05
4.95007e-06
6.33228e-09
0.000102829
1.62332e-06
0.0124704
0.0452577
0.254993
0.962847
1.9068
2.50798
2.70777
3.02272
3.887
5.14633
6.46076
7.60256
8.44272
8.88006
8.86175
8.37495
7.4634
6.21046
0.000240571
0.00023873
0.000232755
0.000230027
0.000230489
0.000231662
0.000232619
0.000233413
0.000233789
0.000233366
0.000231286
0.00022727
0.000221637
0.000213731
0.000200903
0.000181951
0.000173049
0.00018191
0.000200064
0.000111135
7.78432e-07
5.52771e-07
2.64777e-09
3.96172e-05
0.000598889
0.0141026
0.0335012
0.372391
1.18006
2.20903
3.27638
4.42242
5.72802
7.17131
8.61006
9.82792
10.6302
10.9066
10.6455
9.91133
8.69399
0.000179324
0.00017831
0.000173623
0.000171507
0.000171801
0.000172615
0.000173309
0.000173896
0.000174204
0.000174217
0.000173155
0.000170789
0.00016677
0.00016135
0.000154404
0.000144533
0.000129706
0.000112856
0.000106828
0.000115125
0.000108699
2.68838e-05
3.80955e-06
3.17898e-07
0
0
0.000330104
0.0228095
0.0783572
0.52339
1.53842
2.99638
4.67774
6.4285
8.16164
9.76214
11.0824
11.9474
12.2645
12.0664
11.2845
0.000136907
0.000136473
0.000132888
0.000131347
0.000131644
0.000132294
0.000132885
0.000133402
0.000133729
0.000133747
0.000133362
0.000132076
0.00012959
0.000125692
0.000120402
0.000113862
0.000105347
9.3646e-05
7.65084e-05
5.84148e-05
4.94214e-05
5.06198e-05
3.86718e-05
1.79718e-05
3.87457e-06
2.56476e-07
0
0
0.00138981
0.0294898
0.109084
0.681455
1.91533
3.71742
5.80125
7.88185
9.76305
11.2893
12.3277
12.8057
12.7314
0.000106802
0.000106736
0.000104019
0.000102952
0.000103289
0.000103881
0.000104437
0.000104962
0.000105353
0.00010541
0.000105399
0.000104824
0.00010348
0.000101152
9.7665e-05
9.29079e-05
8.70035e-05
7.98569e-05
7.06857e-05
5.8071e-05
3.90527e-05
1.30699e-05
1.49615e-05
2.07874e-05
8.78463e-06
1.45581e-05
3.37549e-06
9.71794e-08
0
0
0.00200768
0.0334679
0.137179
0.7117
1.94792
3.79841
5.98023
8.15726
10.0729
11.5574
12.5903
8.4726e-05
8.48893e-05
8.28279e-05
8.21525e-05
8.25301e-05
8.31283e-05
8.36934e-05
8.42795e-05
8.47595e-05
8.49677e-05
8.51332e-05
8.51067e-05
8.46174e-05
8.34689e-05
8.15613e-05
7.87554e-05
7.49992e-05
7.02759e-05
6.48852e-05
5.85273e-05
5.14665e-05
4.50238e-05
4.07712e-05
4.19441e-05
4.84295e-05
4.59585e-05
3.66373e-05
8.20571e-06
1.96648e-06
1.80407e-08
0
0
0.00331869
0.000681564
0.0928265
0.462217
1.29165
2.63254
4.37586
6.30845
8.24952
6.8089e-05
6.84058e-05
6.68884e-05
6.64875e-05
6.69266e-05
6.7533e-05
6.81518e-05
6.87912e-05
6.93916e-05
6.97747e-05
7.00559e-05
7.04174e-05
7.05485e-05
7.02848e-05
6.95763e-05
6.8319e-05
6.64887e-05
6.39923e-05
6.1026e-05
5.7521e-05
5.44771e-05
5.35078e-05
5.53338e-05
5.93835e-05
6.5841e-05
7.43483e-05
8.01452e-05
7.9411e-05
4.52982e-05
1.97586e-06
9.01956e-07
3.31801e-10
0
2.98599e-06
0.00348692
0.0158314
0.0245379
0.138016
0.42642
0.972755
1.79655
5.53145e-05
5.56958e-05
5.46094e-05
5.44229e-05
5.49242e-05
5.55552e-05
5.62377e-05
5.69424e-05
5.76608e-05
5.82454e-05
5.86971e-05
5.92942e-05
5.98668e-05
6.02538e-05
6.04022e-05
6.02506e-05
5.97903e-05
5.89983e-05
5.79839e-05
5.65952e-05
5.56654e-05
5.63042e-05
5.86652e-05
6.34368e-05
7.01582e-05
7.82701e-05
8.97288e-05
0.000100627
0.000102196
9.75339e-05
4.39358e-05
4.01912e-08
4.71486e-07
2.77696e-08
0
0
0.0010647
0.00647385
0.017302
0.0175901
0.0624357
4.5291e-05
4.57421e-05
4.49864e-05
4.49656e-05
4.54938e-05
4.61529e-05
4.68661e-05
4.76301e-05
4.8417e-05
4.91465e-05
4.97452e-05
5.05223e-05
5.14116e-05
5.22484e-05
5.29595e-05
5.35409e-05
5.39684e-05
5.42664e-05
5.45032e-05
5.45397e-05
5.50636e-05
5.67194e-05
5.92213e-05
6.31774e-05
6.84868e-05
7.51837e-05
8.34306e-05
9.32695e-05
0.000106868
0.000118137
0.000112956
0.000102116
5.54293e-05
3.66357e-06
1.20158e-06
1.98081e-07
0
0
0
0.000541066
0.00360363
3.73448e-05
3.78137e-05
3.73077e-05
3.74139e-05
3.7956e-05
3.86245e-05
3.93533e-05
4.01488e-05
4.09734e-05
4.17946e-05
4.24983e-05
4.33455e-05
4.44075e-05
4.54896e-05
4.65394e-05
4.75653e-05
4.85357e-05
4.94641e-05
5.04088e-05
5.12239e-05
5.25086e-05
5.46673e-05
5.73284e-05
6.07949e-05
6.50637e-05
7.01235e-05
7.59281e-05
8.27078e-05
9.10673e-05
0.000101229
0.000113024
0.000122936
0.000120977
0.000104038
8.10558e-05
3.19198e-05
3.26115e-06
3.10729e-07
2.15645e-07
4.41784e-08
0
3.09406e-05
3.14267e-05
3.11162e-05
3.13026e-05
3.1848e-05
3.25155e-05
3.32496e-05
3.40574e-05
3.49051e-05
3.5783e-05
3.65864e-05
3.74543e-05
3.85666e-05
3.97578e-05
4.09906e-05
4.22434e-05
4.35118e-05
4.47669e-05
4.6084e-05
4.72816e-05
4.88956e-05
5.11478e-05
5.37399e-05
5.6842e-05
6.04465e-05
6.44492e-05
6.88671e-05
7.3676e-05
7.88881e-05
8.48598e-05
9.20374e-05
0.000100205
0.000109794
0.000117427
0.000120811
0.000114109
9.69896e-05
7.11225e-05
4.58741e-05
8.91932e-06
1.33243e-06
2.57566e-05
2.62162e-05
2.60579e-05
2.63029e-05
2.68439e-05
2.74926e-05
2.82212e-05
2.90169e-05
2.9869e-05
3.07529e-05
3.16199e-05
3.2504e-05
3.36075e-05
3.483e-05
3.61325e-05
3.74759e-05
3.88691e-05
4.02609e-05
4.17319e-05
4.3104e-05
4.48144e-05
4.69834e-05
4.93615e-05
5.20875e-05
5.51447e-05
5.84313e-05
6.19396e-05
6.56362e-05
6.9494e-05
7.34905e-05
7.76827e-05
8.21692e-05
8.73465e-05
9.32573e-05
9.95517e-05
0.000106413
0.000111582
0.000112555
0.000110756
9.85285e-05
8.91923e-05
2.14995e-05
2.1947e-05
2.18948e-05
2.21706e-05
2.26982e-05
2.33234e-05
2.40283e-05
2.47984e-05
2.56273e-05
2.64934e-05
2.73706e-05
2.82515e-05
2.9311e-05
3.05165e-05
3.18024e-05
3.31418e-05
3.45389e-05
3.59557e-05
3.74403e-05
3.88517e-05
4.05207e-05
4.25297e-05
4.46361e-05
4.69826e-05
4.95406e-05
5.22454e-05
5.50689e-05
5.80029e-05
6.10086e-05
6.40529e-05
6.71069e-05
7.01731e-05
7.3243e-05
7.64052e-05
7.97624e-05
8.35004e-05
8.76337e-05
9.16443e-05
9.65951e-05
9.76296e-05
0.000105078
1.79934e-05
1.84025e-05
1.8431e-05
1.87326e-05
1.92347e-05
1.98331e-05
2.05036e-05
2.12422e-05
2.20345e-05
2.28719e-05
2.37315e-05
2.45947e-05
2.55887e-05
2.67415e-05
2.79535e-05
2.9238e-05
3.05743e-05
3.19473e-05
3.33642e-05
3.47381e-05
3.62923e-05
3.80974e-05
3.99302e-05
4.19386e-05
4.40716e-05
4.62993e-05
4.85784e-05
5.09194e-05
5.32854e-05
5.56773e-05
5.80527e-05
6.04119e-05
6.26981e-05
6.49147e-05
6.70823e-05
6.92167e-05
7.13945e-05
7.33509e-05
7.62726e-05
7.60769e-05
8.21025e-05
1.50754e-05
1.54601e-05
1.55373e-05
1.58473e-05
1.63241e-05
1.68912e-05
1.75206e-05
1.82204e-05
1.8967e-05
1.97642e-05
2.05899e-05
2.14216e-05
2.23364e-05
2.34087e-05
2.45352e-05
2.57379e-05
2.69862e-05
2.82728e-05
2.95946e-05
3.08804e-05
3.22998e-05
3.38974e-05
3.54865e-05
3.71907e-05
3.89744e-05
4.08096e-05
4.26593e-05
4.45299e-05
4.64011e-05
4.82704e-05
5.01111e-05
5.19244e-05
5.36792e-05
5.53696e-05
5.70082e-05
5.85757e-05
6.01077e-05
6.13198e-05
6.32646e-05
6.22843e-05
6.66266e-05
1.26477e-05
1.2989e-05
1.31101e-05
1.34204e-05
1.38666e-05
1.43972e-05
1.49846e-05
1.56356e-05
1.63329e-05
1.70763e-05
1.78555e-05
1.8644e-05
1.94857e-05
2.04552e-05
2.14872e-05
2.25827e-05
2.3726e-05
2.48999e-05
2.61092e-05
2.72802e-05
2.85587e-05
2.99485e-05
3.13166e-05
3.27499e-05
3.42385e-05
3.5747e-05
3.72563e-05
3.87535e-05
4.02396e-05
4.17031e-05
4.31377e-05
4.4534e-05
4.58831e-05
4.7172e-05
4.84195e-05
4.95994e-05
5.07617e-05
5.16356e-05
5.3149e-05
5.20115e-05
5.56123e-05
1.06117e-05
1.09225e-05
1.10653e-05
1.13645e-05
1.17854e-05
1.22739e-05
1.28201e-05
1.3417e-05
1.40643e-05
1.47485e-05
1.54728e-05
1.62071e-05
1.69841e-05
1.78474e-05
1.87816e-05
1.97596e-05
2.07889e-05
2.18376e-05
2.29232e-05
2.39634e-05
2.50906e-05
2.62831e-05
2.74494e-05
2.86492e-05
2.98904e-05
3.11244e-05
3.2348e-05
3.35482e-05
3.47358e-05
3.58907e-05
3.70147e-05
3.80926e-05
3.91252e-05
4.01009e-05
4.10424e-05
4.19221e-05
4.27941e-05
4.3419e-05
4.46256e-05
4.34597e-05
4.6568e-05
8.90294e-06
9.17608e-06
9.3373e-06
9.62294e-06
1.00135e-05
1.04626e-05
1.09661e-05
1.15106e-05
1.21054e-05
1.27299e-05
1.33943e-05
1.40706e-05
1.47793e-05
1.55495e-05
1.63869e-05
1.72538e-05
1.81653e-05
1.90923e-05
2.00471e-05
2.09638e-05
2.1947e-05
2.29683e-05
2.3955e-05
2.49585e-05
2.59835e-05
2.69978e-05
2.79946e-05
2.89655e-05
2.99138e-05
3.08276e-05
3.17049e-05
3.25413e-05
3.33366e-05
3.40857e-05
3.48037e-05
3.54712e-05
3.61371e-05
3.6593e-05
3.757e-05
3.64305e-05
3.91837e-05
7.46136e-06
7.70726e-06
7.87116e-06
8.14326e-06
8.50238e-06
8.91508e-06
9.37281e-06
9.87032e-06
1.0408e-05
1.09775e-05
1.15769e-05
1.21963e-05
1.28341e-05
1.35204e-05
1.42598e-05
1.50249e-05
1.58219e-05
1.66382e-05
1.74737e-05
1.82817e-05
1.91284e-05
2.00021e-05
2.08349e-05
2.16773e-05
2.25253e-05
2.33613e-05
2.4169e-05
2.49504e-05
2.57038e-05
2.64296e-05
2.71186e-05
2.77746e-05
2.83926e-05
2.89749e-05
2.95287e-05
3.00437e-05
3.05577e-05
3.08911e-05
3.16869e-05
3.0611e-05
3.30962e-05
6.2448e-06
6.46067e-06
6.62786e-06
6.88345e-06
7.21046e-06
7.58874e-06
8.00297e-06
8.45467e-06
8.9377e-06
9.45257e-06
9.98965e-06
1.0551e-05
1.11189e-05
1.17251e-05
1.23751e-05
1.30446e-05
1.37366e-05
1.44482e-05
1.51692e-05
1.58668e-05
1.65931e-05
1.73381e-05
1.80402e-05
1.87443e-05
1.94435e-05
2.01286e-05
2.07893e-05
2.14277e-05
2.20359e-05
2.26161e-05
2.31634e-05
2.36828e-05
2.41696e-05
2.46272e-05
2.50622e-05
2.54666e-05
2.58742e-05
2.61283e-05
2.67957e-05
2.58017e-05
2.80949e-05
5.21441e-06
5.40647e-06
5.56999e-06
5.80728e-06
6.10669e-06
6.44912e-06
6.82555e-06
7.23038e-06
7.66505e-06
8.12507e-06
8.60659e-06
9.10803e-06
9.6171e-06
1.01501e-05
1.0717e-05
1.12975e-05
1.18962e-05
1.2508e-05
1.31297e-05
1.37321e-05
1.43547e-05
1.49835e-05
1.55732e-05
1.61564e-05
1.67355e-05
1.73003e-05
1.78399e-05
1.83532e-05
1.88401e-05
1.93021e-05
1.9738e-05
2.01508e-05
2.0539e-05
2.09036e-05
2.12518e-05
2.15764e-05
2.19072e-05
2.21069e-05
2.26757e-05
2.17782e-05
2.39113e-05
4.3415e-06
4.51045e-06
4.66962e-06
4.89023e-06
5.16076e-06
5.47245e-06
5.80986e-06
6.17508e-06
6.56123e-06
6.97327e-06
7.40029e-06
7.84767e-06
8.29869e-06
8.76796e-06
9.2588e-06
9.76381e-06
1.02781e-05
1.08051e-05
1.13386e-05
1.1856e-05
1.23866e-05
1.292e-05
1.34185e-05
1.39085e-05
1.43891e-05
1.48548e-05
1.52983e-05
1.57205e-05
1.61204e-05
1.65008e-05
1.68608e-05
1.72027e-05
1.75244e-05
1.7828e-05
1.81201e-05
1.8394e-05
1.86754e-05
1.88456e-05
1.93398e-05
1.85474e-05
2.05471e-05
3.60136e-06
3.75164e-06
3.90487e-06
4.10736e-06
4.35314e-06
4.63392e-06
4.93818e-06
5.26317e-06
5.60804e-06
5.97271e-06
6.35251e-06
6.74619e-06
7.14698e-06
7.55828e-06
7.98556e-06
8.42118e-06
8.86415e-06
9.31442e-06
9.77172e-06
1.02141e-05
1.06676e-05
1.11165e-05
1.15349e-05
1.19416e-05
1.23405e-05
1.27243e-05
1.30902e-05
1.34367e-05
1.3766e-05
1.40776e-05
1.43733e-05
1.46538e-05
1.49196e-05
1.51712e-05
1.54158e-05
1.5646e-05
1.58867e-05
1.60338e-05
1.64652e-05
1.57641e-05
1.76496e-05
2.97377e-06
3.10846e-06
3.25543e-06
3.44244e-06
3.66598e-06
3.91736e-06
4.1904e-06
4.47916e-06
4.78597e-06
5.10703e-06
5.44266e-06
5.7877e-06
6.14078e-06
6.49744e-06
6.8661e-06
7.24088e-06
7.62e-06
8.00251e-06
8.39192e-06
8.76671e-06
9.14878e-06
9.52676e-06
9.88175e-06
1.02238e-05
1.05574e-05
1.08779e-05
1.11846e-05
1.14756e-05
1.17535e-05
1.20183e-05
1.22721e-05
1.2515e-05
1.27478e-05
1.2971e-05
1.31907e-05
1.34004e-05
1.36214e-05
1.37646e-05
1.41562e-05
1.35614e-05
1.53467e-05
2.43936e-06
2.56151e-06
2.70247e-06
2.87617e-06
3.07895e-06
3.30699e-06
3.55146e-06
3.80903e-06
4.07912e-06
4.36221e-06
4.65604e-06
4.95866e-06
5.26794e-06
5.58125e-06
5.90177e-06
6.22715e-06
6.55286e-06
6.88062e-06
7.21144e-06
7.53275e-06
7.85996e-06
8.18237e-06
8.48363e-06
8.77338e-06
9.05498e-06
9.32623e-06
9.58532e-06
9.83197e-06
1.00676e-05
1.02929e-05
1.05092e-05
1.07181e-05
1.09199e-05
1.1115e-05
1.1308e-05
1.14949e-05
1.16921e-05
1.18259e-05
1.2173e-05
1.16751e-05
1.33536e-05
1.98298e-06
2.09437e-06
2.22816e-06
2.3896e-06
2.57621e-06
2.78175e-06
3.00249e-06
3.23236e-06
3.47286e-06
3.72139e-06
3.97912e-06
4.24187e-06
4.51003e-06
4.77719e-06
5.04939e-06
5.32711e-06
5.60493e-06
5.88305e-06
6.16327e-06
6.43376e-06
6.70673e-06
6.97591e-06
7.22988e-06
7.47455e-06
7.71304e-06
7.94443e-06
8.1677e-06
8.38247e-06
8.59012e-06
8.79162e-06
8.98816e-06
9.18081e-06
9.36992e-06
9.55586e-06
9.74211e-06
9.92474e-06
1.01184e-05
1.02594e-05
1.05859e-05
1.0176e-05
1.17629e-05
1.60047e-06
1.70461e-06
1.8324e-06
1.98174e-06
2.14944e-06
2.33451e-06
2.5316e-06
2.73642e-06
2.94886e-06
3.1688e-06
3.39604e-06
3.62929e-06
3.86814e-06
4.10955e-06
4.35429e-06
4.60114e-06
4.84345e-06
5.0852e-06
5.32843e-06
5.56655e-06
5.80778e-06
6.04591e-06
6.27007e-06
6.48522e-06
6.69475e-06
6.89884e-06
7.09574e-06
7.2855e-06
7.46877e-06
7.6473e-06
7.82192e-06
7.99447e-06
8.16483e-06
8.33446e-06
8.50619e-06
8.67834e-06
8.85985e-06
9.00157e-06
9.29823e-06
8.98876e-06
1.04882e-05
1.29043e-06
1.39544e-06
1.52143e-06
1.66232e-06
1.81514e-06
1.97883e-06
2.14943e-06
2.32692e-06
2.5099e-06
2.69986e-06
2.89415e-06
3.0914e-06
3.28867e-06
3.48359e-06
3.68007e-06
3.88341e-06
4.0863e-06
4.28781e-06
4.48736e-06
4.68044e-06
4.87338e-06
5.06505e-06
5.24956e-06
5.42965e-06
5.60644e-06
5.78108e-06
5.95322e-06
6.12344e-06
6.29171e-06
6.45906e-06
6.62602e-06
6.79361e-06
6.96139e-06
7.12982e-06
7.30124e-06
7.47318e-06
7.65492e-06
7.80081e-06
8.0839e-06
7.82254e-06
9.23466e-06
1.02192e-06
1.12983e-06
1.25893e-06
1.39952e-06
1.54711e-06
1.69954e-06
1.85404e-06
2.00959e-06
2.16724e-06
2.33008e-06
2.49994e-06
2.67824e-06
2.86479e-06
3.05774e-06
3.25289e-06
3.44485e-06
3.63272e-06
3.82115e-06
4.01252e-06
4.20271e-06
4.39476e-06
4.58356e-06
4.76428e-06
4.93856e-06
5.10851e-06
5.27532e-06
5.43884e-06
5.59985e-06
5.75961e-06
5.91953e-06
6.08028e-06
6.24325e-06
6.40907e-06
6.57891e-06
6.75476e-06
6.93615e-06
7.12847e-06
7.30041e-06
7.58452e-06
7.44366e-06
8.81323e-06
7.45906e-07
8.40536e-07
9.6178e-07
1.09729e-06
1.24204e-06
1.39278e-06
1.5467e-06
1.70034e-06
1.8528e-06
2.00254e-06
2.14873e-06
2.28923e-06
2.42394e-06
2.55136e-06
2.6772e-06
2.8086e-06
2.9419e-06
3.07246e-06
3.20263e-06
3.33185e-06
3.46521e-06
3.60242e-06
3.73978e-06
3.87717e-06
4.01544e-06
4.15559e-06
4.29775e-06
4.44209e-06
4.5886e-06
4.73784e-06
4.89016e-06
5.04584e-06
5.20456e-06
5.36631e-06
5.53229e-06
5.70023e-06
5.87728e-06
6.03023e-06
6.28542e-06
6.13293e-06
7.38376e-06
5.10836e-07
6.03414e-07
7.24253e-07
8.526e-07
9.82007e-07
1.11161e-06
1.24161e-06
1.37261e-06
1.50702e-06
1.64769e-06
1.7971e-06
1.9573e-06
2.12942e-06
2.3134e-06
2.50784e-06
2.70372e-06
2.896e-06
3.08607e-06
3.27325e-06
3.45508e-06
3.63283e-06
3.80545e-06
3.97133e-06
4.1311e-06
4.28704e-06
4.44073e-06
4.59332e-06
4.74637e-06
4.90185e-06
5.06162e-06
5.22734e-06
5.40094e-06
5.58358e-06
5.7766e-06
5.982e-06
6.20069e-06
6.43508e-06
6.66686e-06
6.98587e-06
7.00583e-06
8.33824e-06
4.9134e-07
6.19966e-07
7.43176e-07
8.58126e-07
9.70434e-07
1.08829e-06
1.21258e-06
1.3407e-06
1.46596e-06
1.58176e-06
1.68135e-06
1.75927e-06
1.81387e-06
1.84595e-06
1.85772e-06
1.86086e-06
1.87219e-06
1.9002e-06
1.94851e-06
2.01364e-06
2.09298e-06
2.18194e-06
2.27871e-06
2.38073e-06
2.48704e-06
2.59712e-06
2.71085e-06
2.82779e-06
2.94813e-06
3.07193e-06
3.19949e-06
3.33078e-06
3.46646e-06
3.60645e-06
3.75129e-06
3.89931e-06
4.05696e-06
4.2019e-06
4.42102e-06
4.35052e-06
5.39082e-06
9.79938e-07
1.431e-06
1.84433e-06
2.18721e-06
2.44889e-06
2.62849e-06
2.73509e-06
2.78291e-06
2.7909e-06
2.77917e-06
2.76687e-06
2.76955e-06
2.79699e-06
2.85161e-06
2.93347e-06
3.04552e-06
3.17792e-06
3.31373e-06
3.44665e-06
3.57444e-06
3.69455e-06
3.8111e-06
3.91908e-06
4.02099e-06
4.11926e-06
4.21556e-06
4.31171e-06
4.41016e-06
4.51354e-06
4.6244e-06
4.74528e-06
4.87862e-06
5.02665e-06
5.19162e-06
5.3764e-06
5.58278e-06
5.81459e-06
6.05702e-06
6.39305e-06
6.45335e-06
7.89029e-06
1.14856
1.41876
1.78104
2.18897
1.5101
0.358133
0.10689
0.0179875
0.00333006
0.00237574
0.00222248
0.00219884
0.00211742
0.00199061
0.00186532
0.00170295
0.0015529
0.00139861
0.00126035
0.00112686
0.00101104
0.000912265
0.000826595
0.000751767
0.000685841
0.000626623
0.000573911
0.000525145
0.000473592
0.000414881
0.000356269
0.000304083
0.000259318
0.000220796
0.000186533
0.000156219
0.000129879
0.000107329
8.78843e-05
7.14603e-05
5.79532e-05
4.68878e-05
3.84306e-05
3.24637e-05
2.9671e-05
2.78952e-05
2.80171e-05
2.86831e-05
2.9331e-05
2.94933e-05
2.99789e-05
2.94355e-05
2.89738e-05
2.80344e-05
2.66503e-05
2.58286e-05
2.40682e-05
2.28379e-05
2.11035e-05
1.98407e-05
1.81964e-05
1.71002e-05
1.57656e-05
1.45984e-05
1.36342e-05
1.26051e-05
1.1866e-05
1.10716e-05
1.0442e-05
9.81012e-06
9.39998e-06
8.81869e-06
8.54149e-06
8.05628e-06
1.32721
1.78585
2.1094
2.53382
2.51892
0.876406
0.223751
0.0524864
0.00627515
0.00254077
0.00225227
0.00212568
0.0020024
0.0018519
0.00172576
0.00157136
0.00143378
0.00129383
0.00116645
0.00104674
0.000945488
0.000851697
0.000762626
0.000689085
0.000618688
0.000564785
0.00050949
0.000465924
0.000425863
0.000383523
0.000336864
0.000288358
0.000243767
0.000206502
0.000175031
0.000147471
0.000123252
0.00010231
8.42077e-05
6.90486e-05
5.64698e-05
4.62024e-05
3.83938e-05
3.25578e-05
2.97154e-05
2.75443e-05
2.71184e-05
2.73568e-05
2.76608e-05
2.74436e-05
2.77863e-05
2.71571e-05
2.66946e-05
2.58087e-05
2.44883e-05
2.37941e-05
2.21907e-05
2.11257e-05
1.95277e-05
1.84454e-05
1.69508e-05
1.5984e-05
1.48183e-05
1.37429e-05
1.29049e-05
1.19687e-05
1.13056e-05
1.05938e-05
1.00246e-05
9.4362e-06
9.08919e-06
8.51494e-06
8.31048e-06
7.78338e-06
1.97644
2.38023
2.50709
2.748
3.22859
1.91112
0.363091
0.154142
0.0217357
0.00314838
0.00239444
0.0021424
0.00194442
0.0017593
0.00160753
0.00145371
0.00131884
0.00118922
0.00107078
0.00096578
0.000873343
0.000777883
0.000690717
0.0006248
0.00056967
0.000519547
0.000473669
0.000416731
0.000367628
0.000332851
0.000302439
0.000268984
0.000231773
0.00019632
0.000165833
0.000140141
0.000118341
9.94411e-05
8.3033e-05
6.9024e-05
5.75553e-05
4.82974e-05
4.07647e-05
3.54544e-05
3.17294e-05
2.92479e-05
2.82151e-05
2.717e-05
2.68339e-05
2.63088e-05
2.60517e-05
2.52811e-05
2.46563e-05
2.37849e-05
2.26322e-05
2.1672e-05
2.03891e-05
1.93527e-05
1.79892e-05
1.69716e-05
1.57193e-05
1.4757e-05
1.38013e-05
1.28462e-05
1.20902e-05
1.12858e-05
1.06622e-05
1.00512e-05
9.54706e-06
9.00769e-06
8.7159e-06
8.15621e-06
8.02516e-06
7.46425e-06
2.41745
2.97426
3.08009
3.0597
3.5258
3.02528
0.784647
0.342628
0.0785385
0.00709442
0.00247589
0.00222422
0.00194364
0.00171188
0.00152721
0.00136621
0.00122791
0.00110335
0.000993384
0.000898051
0.000803371
0.000708506
0.000643793
0.000585613
0.000570164
0.000542838
0.000484377
0.000422835
0.000357724
0.000299142
0.000262439
0.000238465
0.000214992
0.000188422
0.000160847
0.000135769
0.000114922
9.75006e-05
8.2617e-05
6.98123e-05
5.92396e-05
5.05994e-05
4.33243e-05
3.81789e-05
3.38905e-05
3.10036e-05
2.93149e-05
2.73837e-05
2.63859e-05
2.54911e-05
2.46765e-05
2.36981e-05
2.28835e-05
2.19718e-05
2.0925e-05
1.97882e-05
1.87296e-05
1.77233e-05
1.65618e-05
1.56011e-05
1.45494e-05
1.36253e-05
1.28313e-05
1.19952e-05
1.13147e-05
1.06253e-05
1.00514e-05
9.5219e-06
9.08005e-06
8.58628e-06
8.34677e-06
7.79774e-06
7.73494e-06
7.14542e-06
3.10526
3.81181
3.88364
3.53184
3.72658
3.82078
1.81632
0.51782
0.237551
0.0302455
0.00286994
0.00225762
0.00198393
0.00169833
0.00147867
0.0013054
0.00115958
0.0010372
0.000933969
0.000840349
0.000739187
0.000657439
0.000615711
0.000593816
0.000594499
0.000561147
0.000529607
0.000485549
0.000407027
0.000329676
0.000261823
0.000216252
0.000190776
0.000172948
0.000154337
0.000133892
0.000114103
9.68029e-05
8.24316e-05
7.06701e-05
6.08281e-05
5.25919e-05
4.56557e-05
4.03044e-05
3.5853e-05
3.24696e-05
3.01086e-05
2.77618e-05
2.61924e-05
2.48254e-05
2.35995e-05
2.23702e-05
2.1365e-05
2.03677e-05
1.93206e-05
1.81619e-05
1.72177e-05
1.626e-05
1.5247e-05
1.43563e-05
1.34492e-05
1.26041e-05
1.19312e-05
1.12012e-05
1.05969e-05
1.00019e-05
9.4866e-06
9.0231e-06
8.63811e-06
8.18565e-06
7.99584e-06
7.45414e-06
7.45291e-06
6.83814e-06
3.97424
4.77229
4.83344
4.23956
3.99641
4.25787
3.0925
0.745088
0.526129
0.115491
0.00932174
0.00215084
0.00204158
0.00172017
0.00145737
0.00126684
0.00111117
0.000988679
0.000887482
0.000788827
0.000688299
0.0006304
0.000607752
0.000612477
0.000564493
0.000475763
0.000436895
0.000401851
0.000404605
0.000374405
0.000312044
0.000242776
0.000189908
0.000158708
0.000141599
0.000128183
0.000113681
9.83395e-05
8.41388e-05
7.23544e-05
6.26721e-05
5.47489e-05
4.8143e-05
4.26785e-05
3.8062e-05
3.42129e-05
3.12869e-05
2.8536e-05
2.64654e-05
2.45919e-05
2.29955e-05
2.1468e-05
2.02378e-05
1.90986e-05
1.79817e-05
1.68107e-05
1.5908e-05
1.49849e-05
1.40744e-05
1.32476e-05
1.24473e-05
1.16889e-05
1.11118e-05
1.04703e-05
9.93744e-06
9.42203e-06
8.96659e-06
8.56014e-06
8.22631e-06
7.81056e-06
7.66793e-06
7.13226e-06
7.18627e-06
6.55072e-06
4.97954
5.79833
5.83248
5.16153
4.45615
4.55419
4.17285
1.64519
0.80242
0.344038
0.0456346
0.00293839
0.0019986
0.00179728
0.00147225
0.00125021
0.0010823
0.000956086
0.000849724
0.0007442
0.000659042
0.000629635
0.000614121
0.000585043
0.000400901
0.000314129
0.000225761
0.000217208
0.000233687
0.000285275
0.000315543
0.000287224
0.000232089
0.000176155
0.000139359
0.000119294
0.000107842
9.78062e-05
8.69651e-05
7.59599e-05
6.58894e-05
5.75989e-05
5.09027e-05
4.54412e-05
4.06736e-05
3.65048e-05
3.31399e-05
2.99045e-05
2.73336e-05
2.49898e-05
2.29916e-05
2.11328e-05
1.96189e-05
1.82785e-05
1.70376e-05
1.57802e-05
1.48564e-05
1.39296e-05
1.30766e-05
1.22888e-05
1.15663e-05
1.08771e-05
1.0375e-05
9.8061e-06
9.33396e-06
8.88639e-06
8.48636e-06
8.13034e-06
7.84277e-06
7.45918e-06
7.36048e-06
6.8311e-06
6.93431e-06
6.28447e-06
6.05847
6.80484
6.79608
6.1501
5.17677
4.87849
4.92612
3.08088
0.910065
0.735398
0.172931
0.0153574
0.00169674
0.00182524
0.0015407
0.00126204
0.00107355
0.000937899
0.000819397
0.000712675
0.000655047
0.000646763
0.000593617
0.000444636
0.000180959
6.67194e-05
6.60585e-05
8.06199e-05
2.38021e-05
9.76288e-05
0.000157071
0.000223735
0.000251629
0.000225544
0.000176277
0.000132733
0.000106854
9.32444e-05
8.51778e-05
7.80492e-05
7.00291e-05
6.19343e-05
5.46425e-05
4.86602e-05
4.35057e-05
3.91091e-05
3.54567e-05
3.18503e-05
2.87929e-05
2.60258e-05
2.35867e-05
2.13873e-05
1.95364e-05
1.79505e-05
1.65234e-05
1.51137e-05
1.41033e-05
1.31177e-05
1.2278e-05
1.14902e-05
1.08164e-05
1.01696e-05
9.72025e-06
9.21057e-06
8.78517e-06
8.39457e-06
8.04247e-06
7.72999e-06
7.48384e-06
7.12852e-06
7.06957e-06
6.54691e-06
6.69351e-06
6.03561e-06
7.1241
7.7178
7.67401
7.08309
6.06849
5.32333
5.42249
4.49529
1.52119
1.07527
0.482253
0.0747278
0.0046915
0.00159937
0.00159933
0.00131289
0.00108805
0.000932839
0.00079919
0.000700441
0.000669177
0.000647845
0.000501857
0.000227537
4.04824e-05
1.16601e-05
3.05608e-05
1.93085e-05
1.47121e-06
7.98479e-06
1.09098e-05
5.16549e-05
0.000121258
0.000180265
0.000198554
0.000173928
0.000134969
0.000103146
8.48956e-05
7.55409e-05
6.98648e-05
6.48463e-05
5.90639e-05
5.30474e-05
4.71976e-05
4.21479e-05
3.80014e-05
3.40976e-05
3.06882e-05
2.76004e-05
2.47498e-05
2.21951e-05
1.99765e-05
1.81013e-05
1.64391e-05
1.48295e-05
1.36741e-05
1.25749e-05
1.16983e-05
1.08697e-05
1.02088e-05
9.57477e-06
9.15323e-06
8.68766e-06
8.29421e-06
7.94907e-06
7.63562e-06
7.35927e-06
7.14919e-06
6.81869e-06
6.79421e-06
6.27891e-06
6.46288e-06
5.80107e-06
7.97413
8.35736
8.33353
7.84998
6.94297
5.9397
5.75205
5.53083
2.97149
1.01746
0.951958
0.262048
0.0311912
0.00212148
0.00148535
0.00138369
0.00113353
0.000942992
0.00079432
0.000706783
0.000688258
0.000613393
0.000359612
9.07165e-05
1.64872e-05
5.26015e-05
0.000376276