/*--------------------------------*- C++ -*----------------------------------*\
| =========                 |                                                 |
| \\      /  F ield         | OpenFOAM: The Open Source CFD Toolbox           |
|  \\    /   O peration     | Version:  2312                                  |
|   \\  /    A nd           | Website:  www.openfoam.com                      |
|    \\/     M anipulation  |                                                 |
\*---------------------------------------------------------------------------*/
FoamFile
{
    version     2.0;
    format      ascii;
    arch        "LSB;label=32;scalar=64";
    class       volVectorField;
    location    "200";
    object      momentError;
}
// * * * * * * * * * * * * * * * * * * * * * * * * * * * * * * * * * * * * * //

dimensions      [0 1 -2 0 0 0 0];

internalField   nonuniform List<vector> 
11040
(
(27.5015 -55.0818 1.21459e-15)
(-10.3338 -100.531 -1.44119e-15)
(-23.5467 -31.9309 3.61518e-15)
(-2.41682 8.35269 2.16662e-15)
(3.7267 3.76036 2.94505e-15)
(2.93158 0.774332 -1.81744e-15)
(3.77193 1.56746 -4.37882e-15)
(4.10425 0.721416 -5.29581e-16)
(4.66847 0.608597 -2.79602e-16)
(5.07001 0.426965 1.5736e-15)
(5.27884 0.300934 6.00015e-16)
(4.93237 0.194209 -2.40506e-16)
(4.47 0.587181 -6.38305e-16)
(3.44638 1.23376 5.55537e-16)
(1.89424 1.49605 -2.85434e-16)
(0.349017 1.31998 -5.50354e-16)
(-1.24282 0.631868 4.0952e-16)
(-1.37234 -0.245509 4.57354e-16)
(1.55845 -0.929232 -1.31711e-16)
(5.3277 -0.850302 -3.21414e-17)
(5.65224 -0.402119 8.65472e-17)
(6.28757 -0.161522 1.14152e-16)
(10.2841 0.501355 -1.44873e-17)
(8.91153 0.703071 4.66303e-17)
(1.05543 0.356977 1.76377e-16)
(-0.50956 -0.277123 -6.89896e-16)
(1.83619 -0.480696 -4.99683e-16)
(1.39954 0.170072 -9.32965e-17)
(-1.74859 0.566284 -3.22447e-16)
(-1.40519 -0.224011 8.94384e-17)
(4.36507 -1.22689 5.03344e-16)
(10.7302 -2.15586 7.78471e-16)
(12.9721 -2.55406 8.91846e-16)
(12.8458 -2.30677 -9.83525e-18)
(11.7194 -2.11355 3.95402e-17)
(14.1364 -1.83141 2.37821e-16)
(25.4067 -3.1506 2.7674e-16)
(35.5081 -5.37869 6.50344e-17)
(46.4688 -7.67837 -2.90483e-17)
(52.0815 -8.70482 -5.64524e-16)
(57.1441 -14.1359 -1.82803e-16)
(25.7549 -57.828 4.90922e-16)
(-37.2254 -74.5026 1.64777e-15)
(-101.812 -44.337 1.60396e-15)
(-64.18 -29.7128 -1.54652e-15)
(-10.2003 -7.98614 1.17394e-15)
(5.99625 7.50088 4.4468e-16)
(4.52441 3.07392 2.70298e-16)
(3.27237 1.52554 5.22951e-16)
(4.0173 1.1616 -3.60335e-16)
(4.73943 0.77326 -4.38622e-16)
(5.71729 0.280067 9.87654e-16)
(6.12934 -0.283985 4.91885e-16)
(5.8312 -0.568967 8.14107e-16)
(4.26637 0.0360136 -1.47839e-16)
(1.79772 1.37276 -1.53115e-17)
(-1.40816 2.53848 1.44737e-16)
(-3.31098 2.43852 1.13931e-16)
(-1.65996 0.955019 3.17987e-16)
(2.27072 -0.704811 7.18231e-18)
(8.26667 -2.03425 -5.03147e-17)
(15.975 -2.92965 8.62343e-17)
(21.6897 -1.91972 8.35059e-17)
(20.5091 0.284944 1.45798e-17)
(13.6307 1.19368 2.55643e-16)
(9.10518 0.600149 -8.69216e-17)
(3.0695 -0.23623 -2.51522e-16)
(2.54587 -0.485297 -3.24145e-16)
(-1.68422 1.567 -1.56535e-17)
(-8.34417 2.07045 -3.63967e-16)
(3.96398 -2.20853 -7.0414e-16)
(10.7759 -3.07057 1.96907e-17)
(14.8296 -3.97447 -6.30766e-16)
(20.9347 -5.22862 4.25949e-16)
(25.709 -6.13757 5.03273e-16)
(32.2696 -7.39439 -1.76403e-17)
(42.008 -9.05468 -3.7792e-17)
(52.0074 -10.6039 -5.91726e-17)
(62.2918 -12.6867 1.55167e-16)
(73.5543 -14.9722 -1.06282e-16)
(76.6849 -16.1475 7.87038e-17)
(74.9864 -17.6009 -5.11691e-17)
(4.71871 -47.7873 1.11601e-16)
(-24.0816 -49.278 -6.73203e-16)
(-65.3038 -18.6658 -2.88922e-15)
(-83.7963 -47.2855 2.38901e-15)
(-88.2063 -67.2712 8.58793e-16)
(-45.5897 -34.8575 -1.71769e-15)
(-6.09607 -2.30176 1.18775e-15)
(5.22633 4.90247 1.39065e-15)
(3.02428 1.4604 -2.42442e-16)
(3.24923 1.04403 -7.76496e-17)
(3.89914 0.607289 -4.46352e-16)
(5.03527 0.160727 3.94887e-16)
(5.7419 -0.448713 1.15558e-16)
(4.70903 -0.577436 4.90275e-16)
(2.10527 0.374525 3.21149e-16)
(-1.50877 1.93722 3.24176e-17)
(-3.86575 2.70327 -1.15806e-16)
(-2.70137 1.65292 -1.24124e-17)
(2.10156 -0.445896 2.39327e-17)
(10.074 -2.79293 1.49886e-17)
(20.5913 -5.00849 4.94064e-17)
(28.6927 -3.59061 -5.98123e-17)
(26.8541 0.43733 6.24735e-17)
(17.3718 2.45115 -2.35318e-17)
(8.99592 1.82944 -1.68567e-16)
(3.57626 0.387789 -1.22547e-16)
(-0.59576 0.762272 3.70448e-16)
(-11.8055 2.65477 3.34402e-16)
(-12.431 2.17812 1.21273e-16)
(1.61062 -3.5255 7.91759e-17)
(7.3133 -4.02268 -2.70813e-16)
(15.8672 -5.43358 -3.21713e-16)
(24.3799 -7.42913 -5.48341e-16)
(32.2512 -9.32491 4.68835e-18)
(41.937 -11.4043 -7.55343e-17)
(53.9022 -13.5152 -3.02164e-16)
(66.746 -15.7155 -9.84981e-17)
(78.6927 -18.0744 5.8864e-17)
(90.0356 -19.6898 1.10194e-16)
(92.5897 -19.2013 1.22802e-16)
(89.166 -16.1012 8.70638e-17)
(-1.83345 -38.9958 -3.15021e-16)
(-14.0073 -39.8267 2.00987e-16)
(-36.9385 -32.8424 6.77575e-16)
(-44.4668 -15.1416 -8.7026e-16)
(-72.5799 -34.5321 -1.34423e-15)
(-97.6907 -69.0402 2.04946e-15)
(-73.713 -52.8413 1.69693e-15)
(-25.3579 -16.5018 3.74844e-16)
(0.886231 2.31171 -3.98618e-16)
(3.81486 2.6842 -9.16985e-18)
(2.21168 0.992099 4.34132e-16)
(2.97255 0.639314 -5.92879e-16)
(3.85792 -0.0141974 4.12302e-16)
(4.08579 -0.319964 -1.29767e-16)
(2.42605 0.0934027 1.5732e-16)
(-1.28298 1.29591 -8.09014e-17)
(-4.60085 2.26401 -1.89235e-16)
(-4.24003 1.56666 -2.08943e-16)
(0.645799 -0.748509 2.01229e-17)
(9.53557 -3.85106 -4.04948e-17)
(21.0294 -6.73945 8.81351e-17)
(30.9778 -4.93294 -4.02876e-17)
(30.1536 0.985941 -1.4319e-16)
(19.9318 4.18724 5.30069e-17)
(9.81192 3.4108 2.19635e-17)
(2.69352 1.74341 -1.9225e-16)
(-4.64604 3.17378 2.88126e-17)
(-21.7913 4.88641 -2.6686e-16)
(-13.2741 0.13121 1.33828e-16)
(-2.98987 -5.31074 1.39215e-17)
(4.57436 -5.5412 2.64117e-16)
(14.5546 -7.32259 -4.50432e-17)
(24.5486 -9.64277 7.24798e-17)
(34.3227 -12.1137 2.76259e-16)
(45.8376 -14.7355 -3.54176e-17)
(59.3193 -17.1673 -6.49687e-17)
(73.6118 -19.5459 -1.08177e-16)
(86.8253 -21.8914 7.57672e-17)
(98.9162 -23.036 -2.14089e-17)
(102.316 -21.4114 2.33018e-17)
(98.8165 -15.7119 1.26307e-16)
(-7.179 -33.9301 1.92438e-16)
(-12.1871 -30.2046 -1.6265e-16)
(-25.781 -30.5839 1.56474e-16)
(-36.3221 -20.6282 5.69881e-16)
(-38.8336 -1.60107 2.19865e-16)
(-61.0527 -16.2996 -6.13826e-16)
(-93.022 -55.1443 -3.1568e-16)
(-89.4682 -62.444 -1.35863e-15)
(-47.1258 -32.0896 1.93962e-16)
(-11.273 -5.60769 -1.66226e-16)
(1.49473 2.6194 7.75715e-16)
(1.94586 1.63467 1.0476e-16)
(1.86285 0.581527 -1.15075e-16)
(2.69046 0.14504 -2.67297e-16)
(2.20334 0.218174 2.73251e-16)
(-0.805134 1.02588 -1.6118e-16)
(-4.82721 1.93922 -1.12878e-16)
(-5.81768 1.41798 -1.86868e-16)
(-1.87649 -1.29787 -2.34578e-17)
(6.96961 -5.35313 4.23208e-19)
(18.2521 -8.50003 9.23289e-17)
(29.4388 -6.5046 -6.15209e-17)
(30.7024 1.29617 -4.27353e-17)
(21.1809 6.18207 4.09025e-17)
(10.2513 5.6089 -1.14951e-17)
(1.24134 3.95874 -4.86026e-17)
(-9.56576 6.01378 1.47149e-17)
(-27.2677 7.21062 1.8323e-16)
(-14.9314 -2.86318 1.32481e-16)
(-7.00111 -7.46245 1.40499e-16)
(1.51464 -7.6956 -4.12466e-17)
(11.8947 -9.73278 2.44879e-16)
(22.6789 -12.2771 -1.58856e-16)
(33.4623 -15.0862 -6.68986e-17)
(45.9659 -18.0126 3.19834e-17)
(60.2238 -20.6392 7.59735e-17)
(75.1315 -23.0461 -4.20551e-17)
(89.0207 -25.1296 2.33098e-17)
(101.673 -25.6212 -7.12538e-17)
(106.509 -22.7868 -3.8046e-17)
(104.42 -14.6652 2.18173e-17)
(-8.63222 -28.099 5.86709e-17)
(-12.8564 -25.2549 -2.30426e-16)
(-16.9187 -20.7454 -3.61079e-16)
(-28.8567 -23.2712 1.68334e-16)
(-34.4357 -13.128 -4.44203e-16)
(-33.8271 6.68842 2.01863e-16)
(-48.2549 0.584476 -4.23401e-16)
(-80.8355 -37.2074 -5.00178e-16)
(-94.4327 -61.1923 1.04852e-16)
(-68.6949 -45.7591 1.43787e-17)
(-30.6678 -17.2489 -5.31069e-16)
(-7.27587 -0.99048 -7.00409e-17)
(0.0286917 1.89808 2.46834e-16)
(1.16377 0.935749 -4.47762e-16)
(1.38631 0.652462 -7.00091e-17)
(-0.344199 1.00395 -5.61444e-17)
(-4.28599 1.6855 -7.31058e-17)
(-6.76327 1.41651 -3.73381e-17)
(-4.55132 -1.47135 -3.85992e-17)
(2.84548 -6.70068 3.26098e-17)
(13.5536 -10.5864 2.8549e-17)
(24.8467 -8.38095 1.32436e-17)
(28.5989 1.13086 -1.02574e-16)
(21.2829 8.33235 1.06086e-16)
(10.1917 8.31853 4.93455e-17)
(-0.955371 7.08764 1.21966e-16)
(-15.074 9.60526 -1.16917e-17)
(-28.2968 8.08701 -2.16633e-18)
(-16.1322 -6.14177 -2.11974e-16)
(-10.105 -9.71929 -4.24662e-17)
(-1.49929 -10.1962 2.15582e-16)
(8.61333 -12.5228 6.20252e-17)
(19.5861 -15.2278 4.75169e-17)
(30.7721 -18.2612 -1.28587e-16)
(43.6674 -21.4189 -1.05194e-16)
(58.1533 -24.1808 1.6069e-16)
(73.1838 -26.5181 4.6717e-17)
(87.3801 -28.154 6.9103e-17)
(100.509 -27.8262 9.07596e-17)
(107.112 -23.5998 -1.23931e-16)
(107.305 -13.3141 -8.53749e-17)
(-9.05318 -22.7295 6.35535e-17)
(-12.5492 -20.832 -1.83302e-17)
(-14.2734 -16.4878 1.06108e-18)
(-20.0455 -16.5276 2.38937e-17)
(-28.3414 -17.2665 -2.23668e-16)
(-32.2199 -8.72837 1.74e-16)
(-29.824 10.308 2.64123e-16)
(-36.9826 13.205 -1.74032e-16)
(-64.8186 -16.9915 5.82515e-16)
(-90.539 -51.0598 -7.84649e-17)
(-84.9059 -53.3496 3.18545e-16)
(-52.7705 -29.7237 2.74701e-16)
(-21.5303 -8.21344 -1.28709e-16)
(-5.20619 0.368143 -2.90679e-17)
(-0.376824 1.44756 9.9246e-17)
(-0.41208 1.54487 -8.27082e-17)
(-3.48585 1.75604 -5.09045e-17)
(-6.68381 1.44054 1.77222e-17)
(-6.12539 -1.11428 7.70026e-18)
(-1.78025 -7.02392 -2.34277e-16)
(7.49158 -12.6027 1.83451e-16)
(18.2503 -10.5208 -4.46366e-17)
(23.9564 0.524921 -1.29446e-16)
(19.6352 9.98185 2.04038e-17)
(9.17364 11.2105 -8.20103e-17)
(-3.77018 11.1784 8.11655e-17)
(-19.8155 13.5763 -1.06191e-16)
(-25.8913 7.24513 -2.32744e-16)
(-16.9318 -8.86547 -1.17381e-16)
(-12.362 -11.9974 1.70235e-16)
(-4.31368 -12.932 -1.74104e-17)
(5.06402 -15.6099 8.01745e-17)
(15.7475 -18.4421 -1.29951e-16)
(26.8754 -21.6617 -1.00039e-16)
(39.7607 -25.0509 -1.22098e-16)
(54.0473 -27.9432 1.19451e-16)
(68.8387 -30.1985 3.0793e-17)
(82.996 -31.3615 2.30593e-17)
(96.4668 -30.1227 8.59358e-17)
(104.838 -24.4224 4.7025e-17)
(107.838 -12.1167 -6.90117e-17)
(-8.71381 -18.0805 -3.02683e-17)
(-11.6549 -16.8255 1.48617e-16)
(-13.0664 -13.8451 -2.08735e-17)
(-15.0738 -12.1985 -1.42373e-16)
(-20.5004 -12.4181 -7.80429e-17)
(-26.4872 -12.7941 3.67531e-16)
(-29.674 -6.60625 -1.98005e-16)
(-26.945 10.7433 -5.10975e-16)
(-28.1965 21.3082 -3.03336e-17)
(-48.1172 2.26483 2.15976e-16)
(-78.1242 -33.8086 8.38038e-16)
(-89.3887 -51.1965 -1.16252e-15)
(-70.1466 -39.0542 5.19933e-16)
(-37.9675 -17.4416 1.63571e-16)
(-14.0939 -3.4324 -5.23277e-16)
(-4.11356 1.6765 1.59555e-16)
(-3.56952 2.63237 5.85003e-17)
(-6.40308 1.96156 2.56095e-16)
(-6.56247 -0.705631 3.06447e-18)
(-4.67434 -5.80383 -2.41255e-16)
(0.97955 -13.1311 2.34441e-16)
(9.70909 -12.7899 -1.99951e-17)
(16.9581 -1.4962 -1.03983e-16)
(15.8574 10.3264 8.56552e-17)
(7.25179 14.0068 5.13009e-17)
(-6.47704 15.8886 -1.25399e-17)
(-22.4884 17.6937 -1.33253e-16)
(-21.9512 4.33364 1.17966e-16)
(-17.4182 -10.6727 1.39673e-16)
(-13.993 -14.1778 -2.95727e-17)
(-6.957 -15.7903 -8.42944e-17)
(1.35589 -18.9022 -5.4443e-17)
(11.349 -21.9382 4.31568e-17)
(22.0099 -25.3293 -1.09886e-19)
(34.5472 -28.9955 -3.90621e-17)
(48.2762 -32.0166 9.45219e-18)
(62.5126 -34.2472 7.53132e-17)
(76.3409 -35.054 -6.9901e-17)
(89.9376 -33.0819 7.96317e-17)
(99.8632 -26.1245 7.6172e-17)
(105.908 -11.9401 2.26713e-17)
(-7.96692 -14.0519 -3.50558e-17)
(-10.5051 -13.3134 -1.47325e-17)
(-11.7411 -11.1376 -6.05388e-17)
(-12.8304 -9.83175 -2.31978e-16)
(-15.4785 -9.04188 5.26794e-17)
(-19.8343 -8.86054 -1.33106e-17)
(-24.2873 -9.03047 2.56659e-18)
(-27.0831 -5.03506 2.42605e-16)
(-24.8251 9.43754 -9.92577e-17)
(-22.1605 24.6407 3.52609e-16)
(-33.0463 17.7424 2.1846e-16)
(-59.7513 -13.2147 -1.70334e-16)
(-81.9218 -40.54 -1.53251e-16)
(-78.0512 -42.3719 -6.42626e-17)
(-52.3651 -26.0581 -1.61207e-16)
(-25.5209 -8.91727 -2.66038e-16)
(-10.7937 0.796109 2.54099e-16)
(-7.54288 3.01356 9.38752e-17)
(-7.48972 0.57181 1.84601e-16)
(-5.16099 -4.28964 -2.29053e-16)
(-3.04214 -11.6303 1.0946e-16)
(1.57359 -14.9603 1.16636e-16)
(7.33309 -5.30916 -1.15933e-16)
(10.1396 8.98555 4.24164e-17)
(4.72319 16.2205 1.17904e-16)
(-8.51564 20.8042 2.93149e-17)
(-21.1979 19.8786 5.31907e-17)
(-18.9007 2.09002 3.1548e-17)
(-17.6745 -11.545 3.41293e-17)
(-15.1994 -16.0013 8.2011e-18)
(-9.46562 -18.5742 -1.15915e-16)
(-2.50921 -22.4053 7.80164e-18)
(6.39028 -25.8225 7.56983e-18)
(16.3063 -29.475 -3.33942e-17)
(28.097 -33.4073 2.71079e-17)
(40.9065 -36.4496 2.87177e-17)
(54.2284 -38.6314 7.85584e-18)
(67.3479 -39.2168 1.01583e-17)
(80.7304 -36.8698 -5.19477e-17)
(91.8478 -29.2478 1.20217e-16)
(100.827 -13.7642 7.4004e-17)
(-7.0856 -10.6853 1.6994e-16)
(-9.22676 -10.2234 -4.40343e-17)
(-10.3128 -8.74043 -1.72836e-16)
(-11.3376 -7.77242 2.63277e-16)
(-12.4944 -6.84003 2.06343e-16)
(-15.3576 -6.28057 -9.31755e-17)
(-18.6587 -5.56959 1.19611e-16)
(-22.0131 -5.57147 -4.37768e-16)
(-24.49 -3.44123 -1.04812e-16)
(-23.1201 7.37731 8.67246e-16)
(-18.6507 23.7246 1.78754e-17)
(-21.5218 26.8304 -6.77309e-17)
(-40.8182 5.73567 -3.63959e-16)
(-66.3264 -24.1393 1.75684e-16)
(-75.6683 -38.554 -5.73895e-16)
(-61.3539 -31.647 5.08016e-17)
(-37.3786 -15.2 1.8779e-17)
(-19.4801 -2.22082 1.25379e-16)
(-11.0681 1.1667 -2.11066e-17)
(-6.62501 -2.67288 -1.78597e-16)
(-4.49522 -8.76468 5.15449e-17)
(-3.00764 -14.9876 -6.7936e-17)
(-0.926151 -9.66714 3.96148e-17)
(2.47699 6.53907 1.11565e-17)
(1.5727 17.0919 6.30307e-17)
(-9.52257 25.301 3.19602e-17)
(-17.7116 20.236 1.56155e-17)
(-16.7486 1.48145 6.69292e-17)
(-17.3146 -11.3984 -4.21423e-17)
(-15.7426 -17.002 -4.5601e-17)
(-11.5912 -20.7585 2.18938e-17)
(-6.45219 -25.6352 1.93509e-17)
(0.71631 -30.0168 6.41176e-17)
(9.75299 -34.4976 -7.11613e-18)
(20.29 -38.4693 5.95759e-17)
(31.8389 -41.3941 -5.899e-17)
(43.8876 -43.3148 1.03e-16)
(55.7849 -43.3837 -8.82386e-18)
(68.3867 -40.7521 6.50518e-17)
(80.0064 -32.8844 1.44884e-17)
(91.0438 -16.9086 -1.1924e-17)
(-6.13927 -7.92011 4.68206e-17)
(-7.93037 -7.63877 1.32454e-16)
(-8.8507 -6.59363 8.19296e-17)
(-9.82786 -5.92917 2.38571e-17)
(-10.6665 -5.16596 -9.2087e-17)
(-11.8885 -4.45309 -9.303e-17)
(-14.5352 -3.8362 9.56674e-17)
(-17.1079 -2.86621 7.27022e-18)
(-19.6761 -2.654 2.07545e-16)
(-21.8665 -1.71777 -3.00752e-16)
(-21.3694 5.42666 -6.26947e-16)
(-16.7572 19.8397 -1.76507e-16)
(-14.5564 29.532 2.76581e-16)
(-25.2331 19.8215 -2.59135e-16)
(-47.4998 -5.95771 -3.72909e-16)
(-64.5225 -28.2733 4.38323e-16)
(-62.731 -32.4619 -1.70372e-16)
(-46.3764 -21.0945 4.83785e-16)
(-27.8732 -8.10516 2.54873e-16)
(-14.1861 -3.75779 -3.02217e-16)
(-6.24853 -6.64511 -8.76488e-17)
(-5.70811 -12.9196 1.14603e-17)
(-5.76937 -13.0211 -4.26167e-17)
(-4.5892 1.89132 -7.65311e-17)
(-2.12954 17.2263 1.10249e-16)
(-9.32869 28.4033 1.72977e-17)
(-14.6952 21.096 -9.10018e-17)
(-15.5863 2.53652 2.82984e-17)
(-16.626 -10.7174 4.0007e-18)
(-15.9311 -17.4315 2.08308e-17)
(-13.4123 -22.1855 -1.17105e-16)
(-10.4838 -28.427 6.37857e-17)
(-5.19001 -34.1415 4.20484e-17)
(2.08309 -39.3941 5.70586e-17)
(10.8577 -43.8114 9.26792e-17)
(20.775 -47.0862 -6.11003e-17)
(31.2734 -48.5516 -9.31141e-17)
(41.7041 -47.6252 -2.05521e-17)
(52.9074 -44.2615 -1.28011e-16)
(63.8572 -35.8038 -7.52626e-17)
(76.0542 -19.4967 -7.41191e-17)
(-5.19731 -5.70348 6.30048e-17)
(-6.67797 -5.50566 1.31183e-16)
(-7.46231 -4.77237 -2.31761e-16)
(-8.32506 -4.29897 -4.86931e-17)
(-9.11085 -3.74398 1.82453e-16)
(-9.77246 -3.13011 -9.27191e-17)
(-11.2905 -2.59635 2.93101e-17)
(-13.4058 -1.82929 -3.87349e-17)
(-15.3935 -0.735134 4.03002e-16)
(-17.3661 -0.224025 -1.24006e-16)
(-19.1989 0.12054 -3.8637e-16)
(-19.233 4.11094 5.08162e-16)
(-15.6542 14.9905 2.64881e-16)
(-11.1913 27.1384 9.34336e-17)
(-14.4472 27.4023 4.74479e-17)
(-29.5138 10.0402 -1.85436e-16)
(-47.6403 -13.912 -9.17664e-17)
(-55.761 -27.5366 -4.81457e-18)
(-49.5401 -24.989 4.79712e-16)
(-34.3562 -15.6987 -4.65906e-16)
(-18.3248 -10.5203 -1.59931e-16)
(-10.0493 -11.3223 1.65046e-16)
(-9.39709 -13.6403 -6.15133e-17)
(-10.4645 -5.65956 -5.58042e-17)
(-8.15408 14.1083 8.98792e-17)
(-9.07846 29.7603 8.23072e-17)
(-12.231 23.407 -4.44163e-17)
(-14.5746 4.53756 -6.34753e-17)
(-16.5961 -9.66811 -8.89954e-18)
(-16.9565 -17.704 1.15334e-17)
(-15.7703 -23.5174 4.09076e-17)
(-14.6761 -30.6744 -6.45908e-17)
(-11.5034 -37.1353 5.80142e-17)
(-6.43498 -43.0251 1.41052e-17)
(0.177348 -48.3347 -4.17169e-17)
(7.82927 -52.4 -3.61106e-17)
(16.1751 -54.2387 -2.08204e-19)
(25.1339 -53.224 5.22547e-17)
(35.0801 -48.997 -5.04473e-17)
(44.3927 -39.7778 -6.33599e-17)
(56.5813 -22.6158 -2.05632e-17)
(-4.31694 -3.96896 -8.52589e-17)
(-5.51944 -3.80643 5.92775e-17)
(-6.17194 -3.28113 -6.06277e-17)
(-6.92126 -2.92765 -1.83089e-16)
(-7.61421 -2.51474 2.68287e-17)
(-8.23987 -2.05021 1.19327e-16)
(-8.93994 -1.53302 5.94856e-17)
(-10.4262 -1.00627 4.25352e-17)
(-12.0696 -0.182131 -5.60376e-17)
(-13.6215 0.935692 -1.31337e-16)
(-15.114 1.69599 1.57462e-16)
(-16.4762 1.85504 -1.01858e-17)
(-16.8756 3.63263 -1.19616e-16)
(-14.5866 10.5407 -1.68081e-16)
(-10.0223 21.7076 2.13213e-16)
(-8.46609 28.2707 2.54709e-16)
(-15.6435 20.5848 -8.92965e-16)
(-29.8692 0.581617 7.64576e-16)
(-42.8746 -18.1252 1.42602e-16)
(-46.3986 -24.7247 -3.25619e-16)
(-38.5638 -21.4425 2.72082e-16)
(-26.9232 -17.4647 -1.10501e-16)
(-18.448 -15.7155 -2.38505e-17)
(-16.9678 -13.3088 -8.08577e-17)
(-16.129 4.02935 1.64049e-16)
(-11.5754 28.3833 5.33912e-17)
(-10.3461 27.1016 -6.51114e-17)
(-13.2408 8.16171 -1.04836e-16)
(-16.6352 -7.54306 7.66645e-17)
(-18.2962 -17.054 1.42544e-16)
(-18.3975 -23.6941 -7.74518e-18)
(-19.161 -31.5722 -4.66872e-17)
(-18.3247 -38.6702 -4.30335e-17)
(-15.8554 -45.1168 -1.51561e-17)
(-11.9378 -51.1467 -9.77525e-17)
(-6.73649 -56.2498 2.89339e-17)
(-0.65276 -59.5536 5.96002e-18)
(6.23767 -59.5316 -2.51265e-17)
(14.723 -56.4292 3.28741e-17)
(23.5465 -48.0307 3.69e-17)
(34.8769 -31.463 6.61212e-18)
(-3.51691 -2.64035 1.03047e-16)
(-4.47869 -2.4878 -7.94107e-17)
(-5.01046 -2.10096 -9.01922e-17)
(-5.64404 -1.82422 -6.29506e-17)
(-6.23893 -1.50206 3.33442e-16)
(-6.79677 -1.14027 -1.61438e-16)
(-7.29122 -0.73985 -2.17464e-16)
(-8.07375 -0.26173 6.14563e-17)
(-9.39089 0.307868 7.05492e-17)
(-10.6782 1.11975 -8.21727e-17)
(-11.8732 2.17573 -1.17172e-16)
(-12.9193 3.06598 -1.03992e-16)
(-13.9426 3.31119 -2.60345e-16)
(-14.487 3.826 1.60962e-16)
(-13.3337 7.36487 7.0925e-16)
(-9.88413 15.5034 -3.81002e-16)
(-6.43189 24.001 -1.22849e-16)
(-7.653 24.017 1.55451e-16)
(-16.1044 11.5923 -1.88039e-16)
(-29.0753 -6.2688 5.48767e-16)
(-39.165 -18.5229 -6.92815e-17)
(-42.956 -22.4444 -2.71453e-16)
(-37.3415 -21.4441 -4.80078e-16)
(-29.9961 -20.0034 2.20492e-16)
(-28.3531 -9.76162 2.15757e-16)
(-21.8777 15.6468 3.61008e-17)
(-12.8309 27.1465 1.95269e-17)
(-12.5414 13.8455 1.19519e-17)
(-16.6723 -3.13467 2.30945e-17)
(-19.8792 -14.6151 6.57629e-17)
(-21.3672 -22.2649 4.1122e-17)
(-23.9531 -30.3762 -9.64369e-17)
(-25.5609 -37.9708 1.73994e-17)
(-25.9771 -44.9145 -8.11638e-18)
(-25.2087 -51.501 -7.64007e-17)
(-23.16 -57.5094 2.62765e-17)
(-19.7497 -62.0877 8.98684e-17)
(-14.8837 -63.7278 -7.39433e-17)
(-8.51831 -62.5595 -4.48834e-17)
(-0.180316 -56.8302 -1.0316e-17)
(9.73568 -44.6828 3.66866e-17)
(-2.81471 -1.65181 -2.39135e-17)
(-3.56606 -1.49752 5.23596e-17)
(-3.9885 -1.20278 3.86241e-17)
(-4.50782 -0.973108 9.32162e-17)
(-5.00687 -0.709068 -8.67914e-17)
(-5.48062 -0.415914 8.60505e-17)
(-5.92451 -0.0900635 -1.26856e-16)
(-6.37234 0.275548 5.76864e-17)
(-7.24263 0.755138 1.03364e-17)
(-8.26861 1.35935 -2.27188e-17)
(-9.26471 2.11597 -8.31766e-17)
(-10.1268 3.05301 2.91827e-16)
(-10.9002 3.97752 2.88777e-16)
(-11.6539 4.40036 -2.22851e-16)
(-12.2196 4.43943 -2.14153e-16)
(-11.8862 5.75364 -1.63126e-16)
(-9.88749 10.4508 4.09025e-16)
(-6.73276 17.6949 -4.06856e-16)
(-5.14631 21.9925 9.01838e-17)
(-8.6118 17.6107 2.10702e-16)
(-18.0741 5.69645 -1.44703e-16)
(-32.0157 -6.76301 -1.39217e-16)
(-40.5719 -14.2154 7.0452e-17)
(-42.3564 -20.2923 8.65472e-17)
(-43.2051 -23.1913 -1.172e-16)
(-39.5715 -9.78288 -4.19443e-17)
(-26.4722 11.1701 1.33275e-16)
(-18.019 14.359 -2.08868e-16)
(-18.7077 2.813 6.08086e-17)
(-22.1054 -9.49975 6.66522e-17)
(-24.8976 -18.5341 -6.16047e-17)
(-28.5915 -26.2058 -1.12605e-16)
(-32.6058 -33.9513 1.19796e-16)
(-35.8844 -40.9655 1.43838e-16)
(-38.3808 -47.6412 -5.63999e-17)
(-39.735 -53.8137 2.96981e-17)
(-39.5355 -58.8154 -4.14467e-17)
(-37.1228 -61.1378 -3.92736e-17)
(-33.0883 -60.8784 -4.75387e-17)
(-27.0784 -57.0089 2.9888e-17)
(-20.7056 -49.304 6.50563e-17)
(-2.21089 -0.942659 -5.01271e-17)
(-2.78745 -0.783626 7.72383e-17)
(-3.11213 -0.551526 -6.04195e-17)
(-3.5232 -0.351757 -2.38907e-16)
(-3.92676 -0.125594 8.24836e-17)
(-4.31737 0.123564 1.10028e-16)
(-4.6972 0.399329 -8.27394e-17)
(-5.05221 0.696734 -1.84825e-16)
(-5.51037 1.06993 5.71455e-17)
(-6.32425 1.57362 2.63962e-17)
(-7.1174 2.17589 -8.90789e-17)
(-7.84323 2.85666 1.0032e-16)
(-8.49014 3.6728 -1.3436e-16)
(-9.05932 4.54887 -2.13978e-16)
(-9.61012 5.13492 3.00229e-16)
(-10.1252 5.20317 1.59639e-16)
(-10.2745 5.46675 9.70749e-17)
(-9.47409 7.5591 -3.8112e-18)
(-7.55405 12.3107 -8.07967e-17)
(-5.49794 17.6351 -7.46221e-17)
(-5.74129 19.1997 -3.45533e-17)
(-11.547 15.9955 9.49372e-17)
(-21.1184 9.56441 -1.82117e-16)
(-30.3375 0.889148 -8.24646e-18)
(-38.1465 -11.9472 9.13232e-17)
(-44.5766 -20.6913 -8.2779e-17)
(-42.6717 -14.7508 -1.05334e-16)
(-33.5761 -3.11347 1.98491e-16)
(-27.8634 -0.181036 1.61565e-16)
(-27.8194 -5.65107 -1.45199e-16)
(-30.0372 -13.2165 -1.58406e-16)
(-33.2348 -19.9231 4.91626e-17)
(-38.2491 -26.3592 -4.67422e-18)
(-43.5706 -32.7243 8.93781e-17)
(-48.6971 -38.6618 -3.64277e-17)
(-52.8294 -44.0014 -3.33177e-17)
(-55.2497 -48.3042 4.23989e-17)
(-54.9861 -50.2901 -6.22397e-18)
(-53.4339 -50.0707 7.02663e-17)
(-50.9429 -46.3829 2.89893e-17)
(-49.3026 -39.4727 -1.03909e-17)
(-1.68927 -0.425551 3.4426e-18)
(-2.12494 -0.271046 9.08844e-17)
(-2.36783 -0.0876351 3.28594e-17)
(-2.68354 0.0874258 -3.6336e-17)
(-2.99881 0.283691 -1.52125e-16)
(-3.31016 0.500005 5.19613e-17)
(-3.6163 0.737356 -1.17658e-16)
(-3.91697 0.996528 -1.32784e-16)
(-4.21459 1.27771 1.23143e-16)
(-4.73777 1.69493 5.7264e-18)
(-5.35112 2.20586 1.87656e-17)
(-5.92967 2.76925 -1.80926e-17)
(-6.46894 3.38978 -7.95304e-17)
(-6.94606 4.09817 -6.65875e-17)
(-7.35951 4.8855 6.82648e-17)
(-7.75232 5.56634 6.10671e-17)
(-8.16705 5.86204 1.43659e-16)
(-8.48733 5.90902 -2.30132e-16)
(-8.39811 6.61579 -1.26006e-16)
(-7.54414 9.16161 4.19227e-16)
(-5.93308 13.411 -2.14395e-16)
(-5.14903 18.4703 -5.19612e-17)
(-6.56696 21.6528 4.74014e-17)
(-10.7477 22.4426 -1.36517e-16)
(-17.0557 16.4374 2.22287e-16)
(-25.6317 2.2339 -1.43766e-16)
(-34.6035 -10.5704 -1.86407e-16)
(-38.9611 -14.6302 1.31433e-16)
(-37.8558 -12.7879 6.69909e-17)
(-36.2174 -11.113 1.92664e-16)
(-36.6471 -12.3246 -1.51212e-16)
(-38.6985 -15.4501 -6.05203e-17)
(-42.1544 -19.1524 4.02571e-17)
(-46.8208 -22.7898 5.26324e-18)
(-52.772 -26.8311 -3.78796e-17)
(-58.4865 -30.6024 6.05776e-17)
(-62.564 -33.5772 -1.76529e-17)
(-63.7498 -35.002 1.10487e-17)
(-63.9621 -34.9608 -3.02062e-18)
(-64.1233 -31.9866 -8.47296e-18)
(-66.5769 -26.1949 -1.60824e-17)
(-1.35357 -0.100388 -3.7287e-17)
(-1.67331 0.0543155 2.29384e-17)
(-1.84953 0.208923 -2.01155e-17)
(-2.07999 0.368716 2.95126e-17)
(-2.31122 0.543941 1.59311e-16)
(-2.54141 0.735325 2.14494e-16)
(-2.76944 0.942839 1.54953e-16)
(-2.99859 1.16943 -3.24761e-16)
(-3.21921 1.41028 -2.50746e-16)
(-3.50561 1.72161 2.07175e-16)
(-3.98285 2.17051 6.76377e-17)
(-4.43127 2.66908 -8.87183e-17)
(-4.86095 3.20914 2.59251e-17)
(-5.25427 3.7889 2.2491e-17)
(-5.59806 4.42481 -3.17077e-17)
(-5.88876 5.13622 -2.07979e-16)
(-6.15414 5.8484 3.80158e-16)
(-6.43869 6.35643 1.07558e-16)
(-6.73337 6.54102 -3.33952e-16)
(-6.90013 6.79647 3.34574e-16)
(-6.59776 7.95779 -2.84882e-17)
(-5.88045 11.2017 -2.79335e-16)
(-4.61558 15.7306 4.41116e-17)
(-3.54339 21.9459 1.18282e-16)
(-3.44727 27.6286 -2.02284e-16)
(-6.04648 27.1133 -9.3772e-19)
(-12.2601 17.8353 4.55238e-17)
(-20.3867 5.19579 1.77467e-18)
(-28.4034 -4.51066 -1.00827e-16)
(-34.1473 -10.1937 1.204e-16)
(-37.433 -12.7881 1.54658e-16)
(-40.1359 -14.115 -1.19997e-16)
(-43.1091 -15.1967 -5.06541e-17)
(-46.2872 -16.3918 -2.61597e-17)
(-50.8334 -17.7274 3.14932e-17)
(-55.3633 -18.942 1.19362e-17)
(-59.8401 -20.3497 1.41735e-17)
(-62.5819 -21.4867 1.37646e-17)
(-64.0407 -21.8943 2.57341e-17)
(-64.6885 -20.2145 -3.89549e-18)
(-69.182 -16.3438 -1.34224e-17)
(-1.0977 0.0996663 -2.7793e-17)
(-1.33028 0.247293 -6.81872e-17)
(-1.45858 0.379958 -1.53386e-17)
(-1.62426 0.524649 1.42442e-16)
(-1.79198 0.681493 8.33129e-17)
(-1.95822 0.850923 1.50495e-16)
(-2.12442 1.03431 1.56224e-17)
(-2.29088 1.23235 -2.0486e-16)
(-2.45683 1.44762 1.52155e-16)
(-2.63011 1.68391 -2.59214e-17)
(-2.95074 2.06353 -1.91412e-16)
(-3.2922 2.50528 1.28107e-17)
(-3.62113 2.98747 7.43014e-17)
(-3.92546 3.50383 1.79129e-17)
(-4.19568 4.0503 -1.23241e-17)
(-4.42308 4.63457 -1.44173e-16)
(-4.60158 5.27883 -1.2505e-17)
(-4.74244 5.97124 8.47985e-17)
(-4.87876 6.59373 1.53936e-16)
(-5.04188 6.99755 -9.56049e-17)
(-5.20049 7.24794 4.59571e-17)
(-5.41149 8.21618 9.09066e-17)
(-5.03804 9.67486 -1.80596e-16)
(-3.97836 12.7276 -8.19885e-17)
(-2.13073 18.4833 2.82243e-17)
(-0.0794648 25.5839 6.8354e-17)
(0.522232 29.6994 -2.61799e-17)
(-1.87489 27.7157 5.95653e-17)
(-6.8964 20.3687 -4.59108e-17)
(-13.7781 11.2077 7.45858e-18)
(-21.6811 2.61999 4.7332e-17)
(-28.5189 -4.0207 1.47788e-17)
(-34.065 -8.14874 -4.32294e-17)
(-38.6502 -10.2514 4.86124e-18)
(-42.9558 -11.1631 6.7527e-17)
(-47.0212 -11.615 -2.73057e-17)
(-50.9768 -11.8762 -6.21302e-17)
(-53.7346 -11.9724 4.52989e-17)
(-55.5913 -11.9908 2.33077e-17)
(-56.2149 -11.3553 -3.17593e-18)
(-58.7472 -9.45484 -5.86771e-18)
(-0.889875 0.221488 -5.75793e-18)
(-1.05813 0.358306 -4.66761e-17)
(-1.14948 0.47278 -4.12197e-17)
(-1.2682 0.601965 1.22594e-16)
(-1.38776 0.740786 -2.02284e-17)
(-1.50673 0.890142 -7.57221e-17)
(-1.62496 1.05136 9.57612e-17)
(-1.74417 1.22486 -7.06473e-18)
(-1.86373 1.41471 -5.05899e-17)
(-1.9827 1.61713 4.91191e-17)
(-2.17078 1.9116 -2.08366e-17)
(-2.42719 2.30279 -8.80859e-18)
(-2.66829 2.72657 3.23701e-17)
(-2.89085 3.18196 -1.95511e-17)
(-3.08481 3.66634 2.69595e-17)
(-3.24571 4.17636 -2.11047e-17)
(-3.36556 4.71185 -1.61049e-17)
(-3.43745 5.29167 1.87475e-17)
(-3.46198 5.92336 4.88243e-17)
(-3.45138 6.56376 -4.0818e-17)
(-3.45821 7.11028 -7.41241e-17)
(-3.67808 7.97604 6.59691e-17)
(-3.78603 8.52404 7.67448e-17)
(-3.6631 9.12298 -1.3708e-16)
(-2.96432 10.6987 6.55627e-17)
(-1.31313 14.4613 4.00809e-17)
(1.12524 20.2929 -6.76745e-17)
(3.40364 26.0301 1.25701e-16)
(4.33997 29.1052 -4.22879e-17)
(3.1512 28.3253 -8.77141e-17)
(0.0584196 23.8279 9.56033e-19)
(-4.98942 17.5187 6.56262e-17)
(-11.5244 10.7181 -3.02725e-17)
(-17.8139 4.87946 3.04917e-18)
(-23.5984 0.856608 8.69199e-18)
(-28.863 -1.27413 -2.06857e-17)
(-33.8356 -2.10531 1.31342e-17)
(-38.1365 -2.34669 -4.1631e-18)
(-42.0706 -2.32191 1.00996e-17)
(-44.944 -2.11351 9.96084e-18)
(-47.9156 -1.44783 -5.94866e-18)
(-0.718705 0.293414 2.19515e-17)
(-0.841094 0.415238 -3.46299e-17)
(-0.903164 0.514298 1.91024e-18)
(-0.987028 0.628518 -5.73176e-17)
(-1.06998 0.749788 5.70599e-17)
(-1.15302 0.88041 -1.48217e-17)
(-1.2347 1.02086 -6.5049e-17)
(-1.31706 1.17221 -2.35961e-17)
(-1.39966 1.33749 1.02038e-16)
(-1.48021 1.5158 2.94158e-17)
(-1.57923 1.73554 -2.08313e-17)
(-1.7651 2.07871 2.30441e-17)
(-1.93349 2.4506 9.81335e-18)
(-2.08634 2.8468 -4.39415e-17)
(-2.21467 3.26898 -1.50491e-17)
(-2.31395 3.71237 1.48925e-17)
(-2.37864 4.1755 -2.89366e-18)
(-2.40225 4.65566 -7.23197e-18)
(-2.37872 5.16388 1.28237e-17)
(-2.29641 5.7097 3.14755e-17)
(-2.17177 6.2875 3.15782e-18)
(-2.13516 7.27899 -4.63828e-17)
(-2.08191 8.07563 -1.06504e-17)
(-2.04349 8.63912 3.90641e-17)
(-1.9331 8.96986 6.18854e-17)
(-1.48861 9.61677 -3.85541e-17)
(-0.345111 11.4753 -6.54312e-17)
(1.65392 14.9864 -5.23677e-17)
(4.21875 19.6258 2.11608e-17)
(6.73307 24.0487 4.06701e-17)
(8.5357 26.9213 -1.71013e-18)
(9.08229 27.4348 1.40328e-17)
(8.18553 25.3554 -1.08806e-17)
(5.82321 21.4861 9.61573e-18)
(2.32407 17.066 -1.60954e-17)
(-1.52675 13.0663 2.63777e-17)
(-4.93285 10.3157 -2.2406e-17)
(-7.79075 8.96466 7.01654e-18)
(-10.1997 8.96521 3.10041e-17)
(-12.2616 9.72801 -4.02241e-17)
(-14.8176 11.1008 -5.82339e-18)
(-0.578682 0.330143 5.28738e-17)
(-0.66611 0.43776 -3.01162e-17)
(-0.706953 0.522447 8.67634e-17)
(-0.763471 0.622175 -1.13465e-16)
(-0.819438 0.727283 -1.26535e-16)
(-0.874582 0.840107 -1.00028e-17)
(-0.928868 0.961526 8.90661e-17)
(-0.982348 1.09243 -8.16945e-17)
(-1.0364 1.23499 1.47108e-16)
(-1.08879 1.39117 4.79438e-17)
(-1.14346 1.56226 -2.57501e-16)
(-1.25381 1.84528 1.74237e-16)
(-1.36581 2.16937 -2.31814e-17)
(-1.4623 2.51213 -7.87376e-17)
(-1.53864 2.87486 -3.77983e-17)
(-1.58778 3.25356 3.03591e-17)
(-1.60717 3.64847 2.83714e-19)
(-1.59002 4.05399 8.26154e-18)
(-1.53397 4.47083 -8.36283e-18)
(-1.42682 4.89819 -1.24826e-17)
(-1.27123 5.34254 2.29025e-17)
(-1.11044 6.15578 3.13566e-17)
(-0.892809 6.92224 -6.08022e-17)
(-0.646827 7.69252 3.06604e-18)
(-0.406512 8.29689 3.65916e-17)
(-0.168556 8.62729 -2.7064e-17)
(0.19523 8.88743 -3.69675e-18)
(0.931555 9.55276 2.35597e-17)
(2.26323 11.0774 -3.7134e-17)
(4.24799 13.5676 -8.30967e-18)
(6.72453 16.6927 3.36754e-17)
(9.36116 19.7482 1.4984e-17)
(11.7794 21.9867 -9.79709e-18)
(13.6039 22.8338 -9.83609e-18)
(14.6577 22.0668 1.4313e-19)
(14.9853 20.1908 6.22825e-18)
(14.7442 17.6571 -6.47479e-18)
(14.2605 15.0028 7.99672e-19)
(14.0884 13.0767 1.32174e-17)
(14.3742 12.0155 3.07647e-18)
(14.7465 12.1008 -1.1916e-17)
(-0.464045 0.343574 8.69169e-18)
(-0.524614 0.436808 9.66781e-19)
(-0.54982 0.508923 -1.05303e-16)
(-0.585868 0.594907 5.79665e-18)
(-0.621339 0.685334 5.23434e-17)
(-0.655655 0.781774 -4.95253e-17)
(-0.688827 0.88574 1.19323e-17)
(-0.720787 0.997969 -8.77313e-17)
(-0.752437 1.11981 -1.53747e-16)
(-0.782322 1.25501 3.35853e-16)
(-0.810835 1.40058 -2.88403e-16)
(-0.864669 1.61951 -8.07638e-17)
(-0.932676 1.89848 1.57742e-16)
(-0.985171 2.19049 1.44694e-16)
(-1.01959 2.49694 -3.68284e-17)
(-1.03055 2.81626 -5.37062e-17)
(-1.01479 3.14602 3.6181e-17)
(-0.967575 3.48341 -2.75976e-17)