/*--------------------------------*- C++ -*----------------------------------*\
| =========                 |                                                 |
| \\      /  F ield         | OpenFOAM: The Open Source CFD Toolbox           |
|  \\    /   O peration     | Version:  2312                                  |
|   \\  /    A nd           | Website:  www.openfoam.com                      |
|    \\/     M anipulation  |                                                 |
\*---------------------------------------------------------------------------*/
FoamFile
{
    version     2.0;
    format      ascii;
    arch        "LSB;label=32;scalar=64";
    class       volScalarField;
    location    "200";
    object      nuTilda;
}
// * * * * * * * * * * * * * * * * * * * * * * * * * * * * * * * * * * * * * //

dimensions      [0 2 -1 0 0 0 0];

internalField   nonuniform List<scalar> 
11040
(
5.85025e-05
7.82639e-05
9.40804e-05
5.68588e-05
3.95047e-05
0.000102511
0.00014909
0.000159756
0.00015176
0.000140901
0.000126974
0.000107541
7.87769e-05
7.22532e-05
7.13984e-05
8.02788e-05
0.000110377
0.000135111
0.000150987
0.000123329
0.000137213
0.000159572
0.000178948
0.000218026
0.000221916
0.000201197
0.000175291
0.000135361
9.83914e-05
0.000220763
0.000281917
0.00028713
0.000273791
0.000287323
0.000298042
0.000317532
0.000334123
0.000392949
0.000506658
0.000602299
0.000579342
3.77052e-05
4.83475e-05
8.5083e-05
0.000105745
0.000119887
0.000421058
0.000657298
0.000680436
0.000617498
0.00054313
0.000506767
0.000450106
0.000404319
0.000378916
0.000370159
0.000379218
0.000403085
0.000446413
0.000507114
0.000587388
0.000681967
0.000782441
0.00077612
0.000686582
0.000572945
0.000494797
0.000494136
0.000529449
0.000520814
0.000808895
0.00107156
0.00124116
0.0013635
0.00145409
0.00153445
0.00159123
0.00162323
0.00163601
0.00164556
0.00161962
0.0014117
4.13445e-05
3.85317e-05
4.83882e-05
7.73274e-05
9.34243e-05
0.000254576
0.000628013
0.00100082
0.00114461
0.00118581
0.00114459
0.00103043
0.000918294
0.00086599
0.000844098
0.00087231
0.000928342
0.00100863
0.00112149
0.00127075
0.0014513
0.00167257
0.00173712
0.00160159
0.00138148
0.00121101
0.00122238
0.00131995
0.00125662
0.00196275
0.00251485
0.00287271
0.00312827
0.0033161
0.0034717
0.00357867
0.00365485
0.00369217
0.003712
0.00366699
0.00337326
4.02502e-05
4.08473e-05
3.81742e-05
4.77176e-05
5.79257e-05
0.000100027
0.00030283
0.000739949
0.00124068
0.00154353
0.00167708
0.00170138
0.00165305
0.00157285
0.00152003
0.00156923
0.00167322
0.00180459
0.0019741
0.00218549
0.00244222
0.00281171
0.00303212
0.00289955
0.00257079
0.0023219
0.00240131
0.00250713
0.00247637
0.00369967
0.0045993
0.00520132
0.00562379
0.00592682
0.00616039
0.00631223
0.00641188
0.00645405
0.00647029
0.00640558
0.00604191
4.02756e-05
4.05997e-05
3.97479e-05
3.91736e-05
4.24252e-05
4.1554e-05
8.49911e-05
0.000297984
0.000763492
0.00137209
0.00186009
0.00211624
0.00223608
0.00228951
0.00234028
0.00246843
0.00268363
0.00289848
0.00313478
0.00337496
0.00367037
0.00415012
0.00463249
0.00462884
0.00424748
0.00397293
0.00394903
0.00394614
0.00435417
0.00616386
0.00747138
0.0083639
0.00897843
0.00940243
0.00970187
0.00987705
0.00997157
0.00999297
0.00998591
0.00990498
0.00950729
4.02999e-05
4.02538e-05
4.05171e-05
3.96041e-05
4.00732e-05
3.69527e-05
2.58723e-05
5.66326e-05
0.00025022
0.000710479
0.00138756
0.00205376
0.00250573
0.00277359
0.00297556
0.00324274
0.00366927
0.0041952
0.00466802
0.00491761
0.00516772
0.00564283
0.00641912
0.00682386
0.00656673
0.00601708
0.00576982
0.00580807
0.00711304
0.00955738
0.0113234
0.0125393
0.0133571
0.0138889
0.0142196
0.0143684
0.0144008
0.0143487
0.0142774
0.0141794
0.0137933
4.02585e-05
4.0271e-05
4.03073e-05
4.02988e-05
3.99876e-05
4.05601e-05
3.39657e-05
1.40254e-05
2.21869e-05
0.000171319
0.00059419
0.00129871
0.00211729
0.0028067
0.00330484
0.00377251
0.00439641
0.0052209
0.00612757
0.00684579
0.00700734
0.00728635
0.00821665
0.00942544
0.00920173
0.00836123
0.00800306
0.00827352
0.0110005
0.0141499
0.01641
0.0179571
0.0189678
0.0195671
0.0198574
0.0198861
0.0197549
0.0195318
0.0193157
0.0191684
0.0188268
4.02487e-05
4.02639e-05
4.02548e-05
4.03057e-05
4.02686e-05
4.01908e-05
4.17742e-05
3.29559e-05
1.86214e-06
1.24673e-05
0.000101472
0.000442949
0.00113204
0.00205642
0.00299337
0.0038312
0.00472337
0.00583951
0.0071326
0.00838032
0.00916191
0.00919104
0.00988518
0.0118359
0.0119488
0.0110631
0.0108302
0.0119413
0.0162568
0.0202959
0.0230873
0.0249373
0.0260801
0.0266601
0.0267858
0.0265451
0.026078
0.0255144
0.0250021
0.0246987
0.0243989
4.02355e-05
4.02398e-05
4.02553e-05
4.02318e-05
4.03485e-05
4.01178e-05
4.05979e-05
4.22784e-05
3.50043e-05
7.62594e-06
2.11863e-05
3.34446e-05
0.000288837
0.000912338
0.0018837
0.00306213
0.00434929
0.00581108
0.0074841
0.00920063
0.010632
0.0113338
0.0116233
0.0136735
0.0146895
0.0141816
0.014304
0.0170986
0.023147
0.028352
0.0317832
0.0338748
0.0350539
0.0354924
0.0352431
0.0344958
0.0334239
0.0322464
0.0311754
0.0304945
0.0301275
4.02206e-05
4.02281e-05
4.02373e-05
4.02434e-05
4.02421e-05
4.03363e-05
4.00026e-05
4.08228e-05
4.28242e-05
3.72061e-05
1.22481e-05
8.67431e-06
5.78668e-05
0.000139831
0.000653415
0.00161202
0.00301276
0.00480556
0.00688237
0.00904679
0.0110349
0.0124831
0.0133989
0.0148306
0.0171696
0.0176502
0.0182639
0.0235367
0.0312884
0.0374039
0.0418583
0.0447985
0.0462858
0.0464671
0.0455881
0.0440789
0.0419888
0.039763
0.0377198
0.0362616
0.0355626
4.02061e-05
4.02175e-05
4.02252e-05
4.02342e-05
4.02345e-05
4.02577e-05
4.02754e-05
4.00418e-05
4.06838e-05
4.32344e-05
3.92028e-05
2.04135e-05
5.66841e-06
2.47104e-05
4.45105e-05
0.000387027
0.00126447
0.00281731
0.00503871
0.00760901
0.0100882
0.0121647
0.013882
0.01576
0.0187102
0.0210166
0.0233017
0.0309151
0.0391675
0.0460336
0.0513939
0.0552748
0.0575891
0.0583684
0.0576309
0.0553831
0.0518728
0.0481719
0.0445629
0.0417054
0.0401173
4.0193e-05
4.02059e-05
4.02163e-05
4.0224e-05
4.02322e-05
4.02317e-05
4.02609e-05
4.02507e-05
4.00407e-05
4.05305e-05
4.29995e-05
4.18281e-05
2.68964e-05
1.94927e-07
7.7525e-06
9.76515e-06
0.000177313
0.000854422
0.00240131
0.00479453
0.00757584
0.0101104
0.0124114
0.0151002
0.0183783
0.0230905
0.0280546
0.0370618
0.0458192
0.0533394
0.0594339
0.0640495
0.0670266
0.0683463
0.0680196
0.0660537
0.0624609
0.057344
0.0516672
0.0467504
0.0434469
4.01808e-05
4.01954e-05
4.02067e-05
4.0216e-05
4.02231e-05
4.02315e-05
4.02315e-05
4.02507e-05
4.02517e-05
4.00594e-05
4.03536e-05
4.23785e-05
4.31529e-05
3.35845e-05
5.85788e-06
3.57506e-06
2.31856e-05
4.79488e-06
0.00044246
0.00174348
0.00392778
0.00645291
0.00890087
0.0119491
0.016559
0.0227547
0.0309118
0.0407349
0.0501363
0.0583637
0.0651782
0.0704826
0.0740802
0.0758913
0.0759034
0.0741411
0.070672
0.0655536
0.0588676
0.0516637
0.0459718
4.01698e-05
4.01856e-05
4.01976e-05
4.02073e-05
4.02156e-05
4.02226e-05
4.02297e-05
4.02329e-05
4.02501e-05
4.02553e-05
4.00956e-05
4.01892e-05
4.18026e-05
4.31628e-05
3.88588e-05
1.4831e-05
4.81071e-06
5.7447e-07
7.31622e-05
0.000140807
0.000964362
0.00255157
0.00445438
0.0067727
0.0110627
0.0188176
0.0290815
0.0400946
0.0505539
0.0597908
0.0675532
0.0737489
0.078186
0.0807288
0.081317
0.0799459
0.0766825
0.0716302
0.0648606
0.0567009
0.0484935
4.01597e-05
4.01764e-05
4.01888e-05
4.01986e-05
4.0207e-05
4.02145e-05
4.02212e-05
4.02281e-05
4.02327e-05
4.02484e-05
4.02575e-05
4.0154e-05
4.00785e-05
4.11049e-05
4.31624e-05
4.23861e-05
2.70045e-05
7.52775e-06
1.04071e-06
1.62145e-05
0.000155705
0.000291888
0.00114033
0.00224732
0.00436059
0.0100874
0.0204095
0.0328281
0.0449709
0.055832
0.0650908
0.0726723
0.0784618
0.0822832
0.084017
0.0836015
0.0810549
0.0764599
0.0698934
0.0615275
0.0517926
4.01505e-05
4.01675e-05
4.01798e-05
4.01894e-05
4.01976e-05
4.02051e-05
4.0212e-05
4.02185e-05
4.02255e-05
4.0231e-05
4.02453e-05
4.026e-05
4.02023e-05
4.00538e-05
4.05283e-05
4.26555e-05
4.32174e-05
3.71917e-05
1.09345e-05
4.13043e-06
1.87504e-07
3.10038e-05
1.75947e-06
0.000172798
0.000425591
0.00201014
0.00779684
0.0184955
0.0315629
0.0444279
0.0559175
0.0656732
0.0736097
0.0795493
0.0832996
0.0847216
0.0837609
0.0804363
0.0747679
0.0668774
0.056854
4.01418e-05
4.01584e-05
4.01701e-05
4.01792e-05
4.01871e-05
4.01943e-05
4.02012e-05
4.02078e-05
4.02143e-05
4.02217e-05
4.02286e-05
4.02396e-05
4.02646e-05
4.02292e-05
4.00986e-05
4.01366e-05
4.17963e-05
4.31926e-05
4.18755e-05
2.73293e-05
2.05943e-06
1.78418e-06
1.65751e-07
1.60288e-05
3.88599e-05
0.000252866
0.00042784
0.00414529
0.0130153
0.0253422
0.038597
0.0510619
0.0619517
0.0709545
0.0777777
0.082156
0.0839207
0.0830139
0.0793724
0.0730377
0.0640445
4.01333e-05
4.01489e-05
4.01597e-05
4.01682e-05
4.01756e-05
4.01826e-05
4.01894e-05
4.01961e-05
4.02026e-05
4.02095e-05
4.02174e-05
4.02256e-05
4.02354e-05
4.02631e-05
4.02506e-05
4.01289e-05
4.00659e-05
4.08383e-05
4.31255e-05
4.32759e-05
3.85887e-05
1.70201e-05
5.58093e-06
1.43074e-06
0
0
3.48222e-05
0.000554161
0.00127448
0.0066882
0.016933
0.0298469
0.0432136
0.0555301
0.0660232
0.0741953
0.0797162
0.0824008
0.0820901
0.0787607
0.0724101
4.01248e-05
4.01393e-05
4.01493e-05
4.01572e-05
4.01643e-05
4.0171e-05
4.01776e-05
4.01843e-05
4.01909e-05
4.01976e-05
4.02051e-05
4.02139e-05
4.0223e-05
4.02342e-05
4.0257e-05
4.02736e-05
4.01671e-05
4.00711e-05
4.02908e-05
4.21273e-05
4.38955e-05
4.13891e-05
3.39231e-05
1.76215e-05
5.64538e-06
1.17843e-06
0
0
9.67444e-05
0.000844938
0.00193231
0.00879195
0.0199444
0.0334281
0.0470433
0.0591633
0.0688939
0.0758626
0.0798904
0.080954
0.0790807
4.01167e-05
4.01302e-05
4.01396e-05
4.01471e-05
4.0154e-05
4.01606e-05
4.01671e-05
4.01737e-05
4.01803e-05
4.0187e-05
4.01942e-05
4.02025e-05
4.02123e-05
4.0222e-05
4.02342e-05
4.02545e-05
4.02784e-05
4.02318e-05
4.00708e-05
4.01589e-05
4.10965e-05
4.31388e-05
4.3642e-05
4.14608e-05
3.44311e-05
1.5366e-05
4.97569e-06
7.06627e-07
0
0
0.000137635
0.00112024
0.00274998
0.00995195
0.0211135
0.0343767
0.0476002
0.0592461
0.068441
0.0747898
0.0782305
4.0109e-05
4.01216e-05
4.01305e-05
4.01379e-05
4.01446e-05
4.01512e-05
4.01577e-05
4.01642e-05
4.01709e-05
4.01775e-05
4.01845e-05
4.01925e-05
4.02017e-05
4.02123e-05
4.02231e-05
4.02351e-05
4.02554e-05
4.02806e-05
4.02739e-05
4.01328e-05
4.00767e-05
4.05019e-05
4.17165e-05
4.34393e-05
4.41295e-05
4.21641e-05
3.16603e-05
9.79832e-06
3.57879e-06
2.90407e-07
0
0
0.000192329
4.91371e-05
0.00254114
0.0085641
0.0177553
0.028897
0.0404475
0.0510395
0.0598087
4.01017e-05
4.01136e-05
4.01223e-05
4.01295e-05
4.01363e-05
4.01428e-05
4.01494e-05
4.01559e-05
4.01625e-05
4.01692e-05
4.01761e-05
4.01838e-05
4.01925e-05
4.02025e-05
4.02136e-05
4.02254e-05
4.02377e-05
4.0256e-05
4.0283e-05
4.02912e-05
4.02185e-05
4.0097e-05
4.0188e-05
4.06319e-05
4.20804e-05
4.41071e-05
4.46352e-05
4.22147e-05
2.67573e-05
4.29794e-06
2.31415e-06
3.7779e-08
0
3.12436e-06
0.000158286
0.000723357
0.00104196
0.00451759
0.0101501
0.017381
0.0253735
4.00948e-05
4.01062e-05
4.01147e-05
4.0122e-05
4.01288e-05
4.01354e-05
4.01419e-05
4.01485e-05
4.01551e-05
4.01618e-05
4.01686e-05
4.0176e-05
4.01844e-05
4.01939e-05
4.02044e-05
4.0216e-05
4.02283e-05
4.02412e-05
4.02575e-05
4.02833e-05
4.03011e-05
4.0285e-05
4.01956e-05
4.00931e-05
4.01606e-05
4.07609e-05
4.26836e-05
4.46359e-05
4.40046e-05
4.06525e-05
2.37888e-05
5.98603e-07
1.70781e-06
3.56013e-07
0
0
6.02616e-05
0.000257341
0.000725245
0.000809974
0.00289649
4.00884e-05
4.00994e-05
4.01079e-05
4.01152e-05
4.01221e-05
4.01287e-05
4.01353e-05
4.01418e-05
4.01484e-05
4.0155e-05
4.01618e-05
4.0169e-05
4.0177e-05
4.01861e-05
4.01961e-05
4.0207e-05
4.0219e-05
4.02316e-05
4.02449e-05
4.02599e-05
4.02813e-05
4.03074e-05
4.03197e-05
4.02964e-05
4.01587e-05
4.00244e-05
4.02241e-05
4.10308e-05
4.30407e-05
4.47565e-05
4.29616e-05
3.92725e-05
2.6547e-05
6.0424e-06
3.01722e-06
1.07285e-06
0
0
0
4.28086e-05
0.000149422
4.00825e-05
4.00933e-05
4.01017e-05
4.01091e-05
4.01161e-05
4.01227e-05
4.01293e-05
4.01358e-05
4.01423e-05
4.01489e-05
4.01555e-05
4.01625e-05
4.01702e-05
4.01788e-05
4.01883e-05
4.01987e-05
4.02099e-05
4.0222e-05
4.02349e-05
4.02482e-05
4.02627e-05
4.02804e-05
4.03059e-05
4.03359e-05
4.03431e-05
4.02775e-05
4.01238e-05
4.00515e-05
4.03761e-05
4.12782e-05
4.27737e-05
4.4119e-05
4.32711e-05
3.92788e-05
3.33437e-05
1.95802e-05
5.76865e-06
1.62599e-06
1.22866e-06
5.15735e-07
0
4.0077e-05
4.00876e-05
4.00961e-05
4.01036e-05
4.01106e-05
4.01172e-05
4.01238e-05
4.01302e-05
4.01366e-05
4.01431e-05
4.01497e-05
4.01565e-05
4.01639e-05
4.0172e-05
4.0181e-05
4.01908e-05
4.02013e-05
4.02126e-05
4.02246e-05
4.02374e-05
4.02509e-05
4.02649e-05
4.02806e-05
4.03016e-05
4.0333e-05
4.03576e-05
4.03434e-05
4.02694e-05
4.01473e-05
4.01492e-05
4.04628e-05
4.11092e-05
4.22322e-05
4.316e-05
4.34289e-05
4.18118e-05
3.79853e-05
3.18368e-05
2.46531e-05
1.05729e-05
3.81303e-06
4.0072e-05
4.00825e-05
4.0091e-05
4.00986e-05
4.01055e-05
4.01122e-05
4.01186e-05
4.0125e-05
4.01313e-05
4.01377e-05
4.01441e-05
4.01508e-05
4.01578e-05
4.01656e-05
4.01741e-05
4.01832e-05
4.01931e-05
4.02036e-05
4.02147e-05
4.02265e-05
4.02392e-05
4.02526e-05
4.02661e-05
4.02801e-05
4.02975e-05
4.03215e-05
4.03486e-05
4.03642e-05
4.03436e-05
4.02877e-05
4.0225e-05
4.0213e-05
4.03974e-05
4.08228e-05
4.14223e-05
4.22619e-05
4.28701e-05
4.28214e-05
4.20656e-05
3.99706e-05
3.68621e-05
4.00673e-05
4.00778e-05
4.00864e-05
4.00939e-05
4.01008e-05
4.01074e-05
4.01137e-05
4.012e-05
4.01262e-05
4.01324e-05
4.01387e-05
4.01452e-05
4.0152e-05
4.01594e-05
4.01674e-05
4.0176e-05
4.01852e-05
4.0195e-05
4.02053e-05
4.02161e-05
4.02276e-05
4.02399e-05
4.02526e-05
4.02655e-05
4.02784e-05
4.02927e-05
4.03102e-05
4.03315e-05
4.03522e-05
4.03622e-05
4.03533e-05
4.0322e-05
4.02812e-05
4.02679e-05
4.03171e-05
4.04949e-05
4.08084e-05
4.12242e-05
4.16808e-05
4.21828e-05
4.25018e-05
4.00631e-05
4.00735e-05
4.0082e-05
4.00895e-05
4.00963e-05
4.01028e-05
4.0109e-05
4.01151e-05
4.01212e-05
4.01273e-05
4.01334e-05
4.01397e-05
4.01462e-05
4.01533e-05
4.01608e-05
4.01689e-05
4.01776e-05
4.01866e-05
4.01962e-05
4.02062e-05
4.02166e-05
4.02277e-05
4.02391e-05
4.02509e-05
4.02627e-05
4.02745e-05
4.02866e-05
4.02998e-05
4.03149e-05
4.03312e-05
4.03467e-05
4.03571e-05
4.0357e-05
4.03451e-05
4.03247e-05
4.03047e-05
4.0302e-05
4.03345e-05
4.04114e-05
4.05539e-05
4.07279e-05
4.00592e-05
4.00695e-05
4.0078e-05
4.00853e-05
4.0092e-05
4.00983e-05
4.01044e-05
4.01104e-05
4.01163e-05
4.01222e-05
4.01282e-05
4.01342e-05
4.01405e-05
4.01472e-05
4.01543e-05
4.0162e-05
4.017e-05
4.01785e-05
4.01873e-05
4.01965e-05
4.02061e-05
4.02161e-05
4.02263e-05
4.02367e-05
4.02473e-05
4.02579e-05
4.02683e-05
4.02787e-05
4.02891e-05
4.02999e-05
4.03114e-05
4.03233e-05
4.03347e-05
4.03439e-05
4.0349e-05
4.03486e-05
4.03426e-05
4.03327e-05
4.03216e-05
4.03136e-05
4.03118e-05
4.00556e-05
4.00658e-05
4.00741e-05
4.00813e-05
4.00878e-05
4.00939e-05
4.00998e-05
4.01056e-05
4.01113e-05
4.01171e-05
4.01229e-05
4.01288e-05
4.01348e-05
4.01411e-05
4.01479e-05
4.01551e-05
4.01626e-05
4.01705e-05
4.01786e-05
4.01871e-05
4.01959e-05
4.02049e-05
4.0214e-05
4.02233e-05
4.02326e-05
4.02418e-05
4.0251e-05
4.026e-05
4.02688e-05
4.02772e-05
4.02855e-05
4.02935e-05
4.03016e-05
4.03094e-05
4.0317e-05
4.03237e-05
4.03289e-05
4.03323e-05
4.03333e-05
4.03315e-05
4.03297e-05
4.00523e-05
4.00623e-05
4.00704e-05
4.00774e-05
4.00837e-05
4.00896e-05
4.00953e-05
4.01009e-05
4.01064e-05
4.01119e-05
4.01175e-05
4.01232e-05
4.01291e-05
4.01351e-05
4.01415e-05
4.01483e-05
4.01553e-05
4.01626e-05
4.01702e-05
4.01779e-05
4.01859e-05
4.01941e-05
4.02023e-05
4.02106e-05
4.02187e-05
4.02268e-05
4.02347e-05
4.02425e-05
4.025e-05
4.02571e-05
4.02639e-05
4.02702e-05
4.02762e-05
4.02817e-05
4.02868e-05
4.02914e-05
4.02956e-05
4.02993e-05
4.03022e-05
4.03044e-05
4.03064e-05
4.00492e-05
4.00589e-05
4.00668e-05
4.00735e-05
4.00795e-05
4.00852e-05
4.00907e-05
4.00961e-05
4.01014e-05
4.01068e-05
4.01122e-05
4.01177e-05
4.01233e-05
4.01291e-05
4.01352e-05
4.01415e-05
4.01481e-05
4.01549e-05
4.01619e-05
4.01691e-05
4.01764e-05
4.01838e-05
4.01912e-05
4.01985e-05
4.02057e-05
4.02128e-05
4.02197e-05
4.02263e-05
4.02326e-05
4.02387e-05
4.02443e-05
4.02495e-05
4.02543e-05
4.02586e-05
4.02624e-05
4.02657e-05
4.02685e-05
4.02708e-05
4.02724e-05
4.02738e-05
4.02745e-05
4.00462e-05
4.00556e-05
4.00632e-05
4.00696e-05
4.00754e-05
4.00808e-05
4.00861e-05
4.00913e-05
4.00964e-05
4.01016e-05
4.01068e-05
4.01121e-05
4.01175e-05
4.0123e-05
4.01288e-05
4.01348e-05
4.0141e-05
4.01474e-05
4.01539e-05
4.01605e-05
4.01672e-05
4.0174e-05
4.01806e-05
4.01872e-05
4.01936e-05
4.01998e-05
4.02058e-05
4.02115e-05
4.02169e-05
4.0222e-05
4.02267e-05
4.0231e-05
4.02349e-05
4.02383e-05
4.02413e-05
4.02439e-05
4.02459e-05
4.02475e-05
4.02485e-05
4.02494e-05
4.02491e-05
4.00433e-05
4.00524e-05
4.00596e-05
4.00657e-05
4.00712e-05
4.00764e-05
4.00815e-05
4.00865e-05
4.00914e-05
4.00964e-05
4.01014e-05
4.01065e-05
4.01117e-05
4.0117e-05
4.01225e-05
4.01281e-05
4.0134e-05
4.01399e-05
4.0146e-05
4.01521e-05
4.01583e-05
4.01645e-05
4.01705e-05
4.01764e-05
4.01821e-05
4.01876e-05
4.01929e-05
4.01979e-05
4.02025e-05
4.02069e-05
4.02108e-05
4.02144e-05
4.02176e-05
4.02204e-05
4.02228e-05
4.02248e-05
4.02263e-05
4.02275e-05
4.02281e-05
4.02287e-05
4.02279e-05
4.00406e-05
4.00492e-05
4.0056e-05
4.00618e-05
4.0067e-05
4.0072e-05
4.00768e-05
4.00816e-05
4.00864e-05
4.00912e-05
4.00961e-05
4.0101e-05
4.0106e-05
4.0111e-05
4.01162e-05
4.01216e-05
4.0127e-05
4.01326e-05
4.01383e-05
4.01439e-05
4.01496e-05
4.01553e-05
4.01608e-05
4.01661e-05
4.01713e-05
4.01762e-05
4.01808e-05
4.01852e-05
4.01892e-05
4.0193e-05
4.01964e-05
4.01994e-05
4.02021e-05
4.02044e-05
4.02063e-05
4.02079e-05
4.02091e-05
4.02099e-05
4.02103e-05
4.02108e-05
4.02097e-05
4.00379e-05
4.00459e-05
4.00523e-05
4.00578e-05
4.00627e-05
4.00675e-05
4.00722e-05
4.00768e-05
4.00815e-05
4.00861e-05
4.00908e-05
4.00955e-05
4.01003e-05
4.01052e-05
4.01101e-05
4.01152e-05
4.01203e-05
4.01255e-05
4.01307e-05
4.0136e-05
4.01413e-05
4.01464e-05
4.01515e-05
4.01563e-05
4.01609e-05
4.01653e-05
4.01695e-05
4.01733e-05
4.01769e-05
4.01801e-05
4.01831e-05
4.01857e-05
4.0188e-05
4.01899e-05
4.01915e-05
4.01928e-05
4.01938e-05
4.01945e-05
4.01948e-05
4.0195e-05
4.01944e-05
4.00352e-05
4.00427e-05
4.00486e-05
4.00537e-05
4.00585e-05
4.0063e-05
4.00676e-05
4.00721e-05
4.00766e-05
4.00811e-05
4.00856e-05
4.00902e-05
4.00948e-05
4.00994e-05
4.01041e-05
4.01089e-05
4.01137e-05
4.01186e-05
4.01235e-05
4.01284e-05
4.01332e-05
4.0138e-05
4.01426e-05
4.0147e-05
4.01511e-05
4.01551e-05
4.01588e-05
4.01623e-05
4.01654e-05
4.01683e-05
4.01708e-05
4.01731e-05
4.01751e-05
4.01767e-05
4.01781e-05
4.01792e-05
4.018e-05
4.01806e-05
4.01808e-05
4.01809e-05
4.01808e-05
4.00324e-05
4.00393e-05
4.00448e-05
4.00496e-05
4.00542e-05
4.00586e-05
4.0063e-05
4.00674e-05
4.00717e-05
4.00761e-05
4.00805e-05
4.0085e-05
4.00894e-05
4.00939e-05
4.00983e-05
4.01028e-05
4.01074e-05
4.01119e-05
4.01165e-05
4.0121e-05
4.01255e-05
4.01298e-05
4.0134e-05
4.0138e-05
4.01418e-05
4.01454e-05
4.01487e-05
4.01518e-05
4.01546e-05
4.01572e-05
4.01594e-05
4.01614e-05
4.01632e-05
4.01646e-05
4.01658e-05
4.01668e-05
4.01675e-05
4.01679e-05
4.01682e-05
4.01683e-05
4.01688e-05
4.00296e-05
4.00359e-05
4.0041e-05
4.00455e-05
4.00499e-05
4.00542e-05
4.00584e-05
4.00627e-05
4.0067e-05
4.00713e-05
4.00756e-05
4.00799e-05
4.00842e-05
4.00885e-05
4.00927e-05
4.0097e-05
4.01013e-05
4.01055e-05
4.01098e-05
4.01139e-05
4.01181e-05
4.0122e-05
4.01259e-05
4.01295e-05
4.01329e-05
4.01362e-05
4.01391e-05
4.01419e-05
4.01444e-05
4.01467e-05
4.01487e-05
4.01505e-05
4.0152e-05
4.01532e-05
4.01543e-05
4.01551e-05
4.01557e-05
4.01561e-05
4.01567e-05
4.01573e-05
4.01582e-05
4.00268e-05
4.00324e-05
4.00371e-05
4.00414e-05
4.00456e-05
4.00498e-05
4.0054e-05
4.00582e-05
4.00624e-05
4.00666e-05
4.00708e-05
4.0075e-05
4.00791e-05
4.00833e-05
4.00874e-05
4.00914e-05
4.00955e-05
4.00994e-05
4.01033e-05
4.01072e-05
4.0111e-05
4.01146e-05
4.0118e-05
4.01213e-05
4.01244e-05
4.01273e-05
4.013e-05
4.01324e-05
4.01346e-05
4.01366e-05
4.01384e-05
4.014e-05
4.01413e-05
4.01424e-05
4.01434e-05
4.0144e-05
4.01447e-05
4.01454e-05
4.01463e-05
4.0147e-05
4.01481e-05
4.00238e-05
4.00288e-05
4.00331e-05
4.00372e-05
4.00413e-05
4.00453e-05
4.00495e-05
4.00536e-05
4.00578e-05
4.00619e-05
4.00661e-05
4.00702e-05
4.00742e-05
4.00782e-05
4.00822e-05
4.0086e-05
4.00899e-05
4.00936e-05
4.00972e-05
4.01008e-05
4.01042e-05
4.01075e-05
4.01107e-05
4.01136e-05
4.01164e-05
4.0119e-05
4.01213e-05
4.01235e-05
4.01254e-05
4.01272e-05
4.01287e-05
4.01301e-05
4.01312e-05
4.01321e-05
4.01328e-05
4.01336e-05
4.01345e-05
4.01355e-05
4.01366e-05
4.01376e-05
4.01389e-05
4.00206e-05
4.00251e-05
4.0029e-05
4.00329e-05
4.00368e-05
4.00408e-05
4.00449e-05
4.0049e-05
4.00531e-05
4.00572e-05
4.00613e-05
4.00654e-05
4.00694e-05
4.00733e-05
4.00771e-05
4.00808e-05
4.00845e-05
4.0088e-05
4.00914e-05
4.00946e-05
4.00978e-05
4.01007e-05
4.01035e-05
4.01061e-05
4.01086e-05
4.01108e-05
4.01129e-05
4.01147e-05
4.01164e-05
4.01179e-05
4.01192e-05
4.01204e-05
4.01213e-05
4.01221e-05
4.01228e-05
4.01237e-05
4.01246e-05
4.01255e-05
4.01266e-05
4.01276e-05
4.01288e-05
4.00173e-05
4.00212e-05
4.00247e-05
4.00284e-05
4.00321e-05
4.00359e-05
4.00399e-05
4.0044e-05
4.00481e-05
4.00523e-05
4.00564e-05
4.00604e-05
4.00644e-05
4.00682e-05
4.00719e-05
4.00755e-05
4.00789e-05
4.00823e-05
4.00854e-05
4.00885e-05
4.00913e-05
4.00941e-05
4.00966e-05
4.00989e-05
4.01011e-05
4.0103e-05
4.01048e-05
4.01064e-05
4.01078e-05
4.0109e-05
4.01101e-05
4.01109e-05
4.01117e-05
4.01125e-05
4.01134e-05
4.01143e-05
4.01154e-05
4.01165e-05
4.01178e-05
4.01189e-05
4.01203e-05
4.00138e-05
4.00171e-05
4.00202e-05
4.00235e-05
4.00269e-05
4.00306e-05
4.00345e-05
4.00385e-05
4.00426e-05
4.00467e-05
4.00508e-05
4.00549e-05
4.00588e-05
4.00627e-05
4.00664e-05
4.00699e-05
4.00733e-05
4.00765e-05
4.00794e-05
4.00822e-05
4.00849e-05
4.00873e-05
4.00895e-05
4.00915e-05
4.00933e-05
4.0095e-05
4.00964e-05
4.00977e-05
4.00988e-05
4.00998e-05
4.01006e-05
4.01012e-05
4.01018e-05
4.01025e-05
4.01032e-05
4.0104e-05
4.01049e-05
4.01058e-05
4.01068e-05
4.01076e-05
4.01087e-05
4.00101e-05
4.00127e-05
4.00152e-05
4.0018e-05
4.0021e-05
4.00244e-05
4.0028e-05
4.00318e-05
4.00359e-05
4.004e-05
4.00441e-05
4.00482e-05
4.00521e-05
4.00559e-05
4.00595e-05
4.00629e-05
4.0066e-05
4.00689e-05
4.00717e-05
4.00742e-05
4.00766e-05
4.00787e-05
4.00806e-05
4.00823e-05
4.00838e-05
4.00852e-05
4.00863e-05
4.00873e-05
4.0088e-05
4.00886e-05
4.00891e-05
4.00897e-05
4.00904e-05
4.00912e-05
4.0092e-05
4.0093e-05
4.0094e-05
4.00951e-05
4.00963e-05
4.00973e-05
4.00988e-05
4.00062e-05
4.00079e-05
4.00096e-05
4.00116e-05
4.00139e-05
4.00166e-05
4.00196e-05
4.0023e-05
4.00267e-05
4.00307e-05
4.00348e-05
4.0039e-05
4.00432e-05
4.00472e-05
4.0051e-05
4.00544e-05
4.00577e-05
4.00607e-05
4.00635e-05
4.00661e-05
4.00683e-05
4.00703e-05
4.00721e-05
4.00736e-05
4.00749e-05
4.00759e-05
4.00768e-05
4.00773e-05
4.00777e-05
4.00781e-05
4.00787e-05
4.00793e-05
4.008e-05
4.00808e-05
4.00817e-05
4.00826e-05
4.00835e-05
4.00845e-05
4.00855e-05
4.00863e-05
4.00875e-05
4.0002e-05
4.00026e-05
4.00032e-05
4.0004e-05
4.0005e-05
4.00062e-05
4.00077e-05
4.00095e-05
4.00117e-05
4.00142e-05
4.00172e-05
4.00206e-05
4.00244e-05
4.00286e-05
4.00331e-05
4.00379e-05
4.00419e-05
4.0045e-05
4.00473e-05
4.00488e-05
4.00497e-05
4.00501e-05
4.00499e-05
4.00492e-05
4.0049e-05
4.00492e-05
4.00498e-05
4.00507e-05
4.00518e-05
4.00531e-05
4.00546e-05
4.00562e-05
4.00579e-05
4.00597e-05
4.00616e-05
4.00636e-05
4.00656e-05
4.00676e-05
4.00697e-05
4.00716e-05
4.0074e-05
0.00190433
0.00363873
0.00560964
0.00708805
0.00615331
0.00294904
0.000751135
0.000135275
4.77605e-05
4.13732e-05
4.11969e-05
4.12294e-05
4.12536e-05
4.12603e-05
4.12548e-05
4.12397e-05
4.12159e-05
4.11986e-05
4.11699e-05
4.1097e-05
4.10866e-05
4.12188e-05
4.12677e-05
4.11878e-05
4.10258e-05
4.08801e-05
4.0949e-05
4.1216e-05
4.14573e-05
4.13482e-05
4.10284e-05
4.07865e-05
4.0733e-05
4.07768e-05
4.07935e-05
4.07567e-05
4.07036e-05
4.06603e-05
4.06261e-05
4.05939e-05
4.05628e-05
4.0537e-05
4.05207e-05
4.05107e-05
4.05045e-05
4.05001e-05
4.04967e-05
4.04933e-05
4.04891e-05
4.04835e-05
4.04764e-05
4.04677e-05
4.04573e-05
4.04455e-05
4.04323e-05
4.0418e-05
4.04028e-05
4.03871e-05
4.0371e-05
4.03547e-05
4.03385e-05
4.03224e-05
4.03068e-05
4.02918e-05
4.02773e-05
4.02638e-05
4.02514e-05
4.02404e-05
4.02311e-05
4.02241e-05
4.02193e-05
4.0219e-05
4.02186e-05
4.02383e-05
0.0033134
0.00547654
0.00781076
0.00971885
0.00953393
0.00594941
0.00195975
0.000355821
6.51304e-05
4.16135e-05
4.12725e-05
4.13177e-05
4.13303e-05
4.13328e-05
4.13229e-05
4.13016e-05
4.12771e-05
4.12572e-05
4.11952e-05
4.11482e-05
4.12471e-05
4.12837e-05
4.09979e-05
4.0741e-05
4.0254e-05
4.01395e-05
3.99418e-05
4.02368e-05
4.07839e-05
4.12855e-05
4.14295e-05
4.11672e-05
4.08421e-05
4.07031e-05
4.07126e-05
4.0736e-05
4.07131e-05
4.06628e-05
4.06148e-05
4.0579e-05
4.05524e-05
4.05328e-05
4.05216e-05
4.05152e-05
4.05118e-05
4.05098e-05
4.05082e-05
4.05061e-05
4.05026e-05
4.04973e-05
4.04903e-05
4.04814e-05
4.04707e-05
4.04584e-05
4.04446e-05
4.04297e-05
4.04139e-05
4.03975e-05
4.03808e-05
4.03641e-05
4.03474e-05
4.0331e-05
4.03151e-05
4.02999e-05
4.02854e-05
4.0272e-05
4.02598e-05
4.02492e-05
4.02406e-05
4.02343e-05
4.02306e-05
4.02314e-05
4.02322e-05
4.02538e-05
0.0052336
0.00777773
0.0105624
0.0127595
0.0132448
0.0101239
0.00452591
0.00106251
0.000150536
4.42285e-05
4.11419e-05
4.13989e-05
4.14028e-05
4.14014e-05
4.13878e-05
4.13626e-05
4.13401e-05
4.13002e-05
4.12264e-05
4.12622e-05
4.13695e-05
4.10969e-05
4.05636e-05
4.03056e-05
4.01902e-05
4.01136e-05
4.01884e-05
3.96676e-05
3.94251e-05
3.99888e-05
4.08129e-05
4.12889e-05
4.12441e-05
4.0939e-05
4.07076e-05
4.06448e-05
4.0658e-05
4.06557e-05
4.06205e-05
4.05768e-05
4.05447e-05
4.05278e-05
4.05231e-05
4.05217e-05
4.05211e-05
4.05208e-05
4.05204e-05
4.05193e-05
4.05164e-05
4.05114e-05
4.05042e-05
4.0495e-05
4.04839e-05
4.04711e-05
4.04568e-05
4.04412e-05
4.04248e-05
4.04078e-05
4.03906e-05
4.03734e-05
4.03564e-05
4.03397e-05
4.03236e-05
4.03082e-05
4.02938e-05
4.02805e-05
4.02687e-05
4.02586e-05
4.02506e-05
4.02453e-05
4.02426e-05
4.02446e-05
4.02467e-05
4.02701e-05
0.00784611
0.0107333
0.0140008
0.0163576
0.0172433
0.0149964
0.00873793
0.00282711
0.000486913
6.67206e-05
4.02007e-05
4.14867e-05
4.15089e-05
4.1466e-05
4.14484e-05
4.14236e-05
4.13966e-05
4.13313e-05
4.13041e-05
4.14022e-05
4.12825e-05
4.07477e-05
4.06863e-05
4.05653e-05
4.1986e-05
4.29757e-05
4.25917e-05
4.18286e-05
4.05415e-05
3.92976e-05
3.9271e-05
4.01048e-05
4.09396e-05
4.12269e-05
4.10407e-05
4.07498e-05
4.05948e-05
4.05737e-05
4.05884e-05
4.05823e-05
4.05563e-05
4.05321e-05
4.05243e-05
4.05258e-05
4.05299e-05
4.05327e-05
4.05334e-05
4.05326e-05
4.05299e-05
4.0525e-05
4.05178e-05
4.05083e-05
4.04967e-05
4.04833e-05
4.04684e-05
4.04523e-05
4.04353e-05
4.04179e-05
4.04002e-05
4.03826e-05
4.03652e-05
4.03483e-05
4.03321e-05
4.03167e-05
4.03024e-05
4.02894e-05
4.0278e-05
4.02685e-05
4.02613e-05
4.02569e-05
4.02553e-05
4.02586e-05
4.02621e-05
4.0287e-05
0.0112221
0.0144194
0.018094
0.0205548
0.0215987
0.0202218
0.0143908
0.00629922
0.00150647
0.000196502
4.17668e-05
4.07659e-05
4.16433e-05
4.15325e-05
4.15019e-05
4.14829e-05
4.14403e-05
4.13769e-05
4.1427e-05
4.1452e-05
4.09954e-05
4.06469e-05
4.12929e-05
4.25982e-05
4.49213e-05
4.5887e-05
4.69356e-05
4.73085e-05
4.54228e-05
4.30049e-05
4.05005e-05
3.91497e-05
3.93964e-05
4.03122e-05
4.09814e-05
4.10924e-05
4.08543e-05
4.06037e-05
4.05048e-05
4.05162e-05
4.0545e-05
4.05508e-05
4.0543e-05
4.0536e-05
4.05362e-05
4.0541e-05
4.05451e-05
4.0546e-05
4.05435e-05
4.05382e-05
4.05305e-05
4.05206e-05
4.05087e-05
4.04948e-05
4.04795e-05
4.04628e-05
4.04454e-05
4.04275e-05
4.04094e-05
4.03915e-05
4.03739e-05
4.03569e-05
4.03406e-05
4.03254e-05
4.03113e-05
4.02987e-05
4.02877e-05
4.02789e-05
4.02726e-05
4.02692e-05
4.02688e-05
4.02733e-05
4.02782e-05
4.03046e-05
0.0154315
0.0189137
0.0227906
0.0252818
0.0263553
0.0256289
0.0209392
0.0118159
0.00391931
0.000705113
8.04687e-05
3.85002e-05
4.1611e-05
4.16827e-05
4.15472e-05
4.1528e-05
4.14768e-05
4.14572e-05
4.15336e-05
4.13263e-05
4.07385e-05
4.10984e-05
4.25563e-05
4.51699e-05
4.56718e-05
4.39045e-05
4.42315e-05
4.46557e-05
4.73721e-05
4.80368e-05
4.60521e-05
4.27062e-05
4.00055e-05
3.90466e-05
3.96092e-05
4.05266e-05
4.09985e-05
4.09586e-05
4.07011e-05
4.05057e-05
4.04597e-05
4.04993e-05
4.05437e-05
4.05611e-05
4.05587e-05
4.05536e-05
4.05529e-05
4.05548e-05
4.05548e-05
4.05508e-05
4.05429e-05
4.05323e-05
4.05197e-05
4.05054e-05
4.04897e-05
4.04727e-05
4.04549e-05
4.04366e-05
4.04183e-05
4.04002e-05
4.03825e-05
4.03655e-05
4.03493e-05
4.03342e-05
4.03205e-05
4.03083e-05
4.02979e-05
4.02898e-05
4.02844e-05
4.02821e-05
4.0283e-05
4.02887e-05
4.0295e-05
4.03229e-05
0.0204525
0.024169
0.0279381
0.0303621
0.0314542
0.0311631
0.0278204
0.0191235
0.00847512
0.00217155
0.000301116
4.38308e-05
4.01288e-05
4.21478e-05
4.17259e-05
4.15628e-05
4.15184e-05
4.15603e-05
4.15491e-05
4.10677e-05
4.08498e-05
4.22784e-05
4.4268e-05
4.57569e-05
3.94372e-05
3.64701e-05
3.22334e-05
3.32655e-05
3.64638e-05
4.28923e-05
4.79798e-05
4.81989e-05
4.54416e-05
4.16628e-05
3.93509e-05
3.89487e-05
3.97454e-05
4.06294e-05
4.09934e-05
4.08799e-05
4.06259e-05
4.04734e-05
4.04611e-05
4.05158e-05
4.05648e-05
4.05816e-05
4.05769e-05
4.05678e-05
4.05619e-05
4.0558e-05
4.05523e-05
4.0543e-05
4.05302e-05
4.05152e-05
4.04989e-05
4.04816e-05
4.04636e-05
4.04453e-05
4.04269e-05
4.04087e-05
4.0391e-05
4.0374e-05
4.0358e-05
4.03432e-05
4.03299e-05
4.03182e-05
4.03086e-05
4.03013e-05
4.02969e-05
4.02957e-05
4.02979e-05
4.03048e-05
4.03126e-05
4.03418e-05
0.0260665
0.0297989
0.0331957
0.0355003
0.0367139
0.0367959
0.034662
0.0274902
0.0155008
0.0054516
0.0011016
0.000123734
3.55826e-05
4.15873e-05
4.22846e-05
4.17008e-05
4.1579e-05
4.16454e-05
4.1443e-05
4.0908e-05
4.15669e-05
4.39319e-05
4.46767e-05
4.06076e-05
2.67794e-05
1.69004e-05
1.75468e-05
2.03032e-05
1.15539e-05
2.48391e-05
3.36146e-05
4.30206e-05
4.86516e-05
4.84575e-05
4.48314e-05
4.09443e-05
3.90434e-05
3.90198e-05