/*--------------------------------*- C++ -*----------------------------------*\
| =========                 |                                                 |
| \\      /  F ield         | OpenFOAM: The Open Source CFD Toolbox           |
|  \\    /   O peration     | Version:  2312                                  |
|   \\  /    A nd           | Website:  www.openfoam.com                      |
|    \\/     M anipulation  |                                                 |
\*---------------------------------------------------------------------------*/
FoamFile
{
    version     2.0;
    format      ascii;
    arch        "LSB;label=32;scalar=64";
    class       volScalarField;
    location    "200";
    object      p;
}
// * * * * * * * * * * * * * * * * * * * * * * * * * * * * * * * * * * * * * //

dimensions      [0 2 -2 0 0 0 0];

internalField   nonuniform List<scalar> 
11040
(
-6.15208
-19.0168
-16.7694
-15.0807
-15.0452
-14.8468
-14.5096
-14.1382
-13.8104
-13.485
-13.1713
-12.863
-12.5798
-12.3537
-12.2289
-12.2386
-12.362
-12.4806
-12.3702
-11.8949
-11.1099
-10.4805
-10.3633
-10.5635
-10.6849
-10.5146
-10.1495
-9.76816
-10.0018
-10.5466
-10.4962
-9.62784
-8.24669
-6.63389
-5.09532
-3.76697
-2.8809
-2.45658
-2.64473
-2.99997
-3.33214
0.806074
-8.79237
-12.3262
-14.6146
-14.945
-14.8707
-14.5722
-14.2015
-13.8693
-13.5417
-13.2243
-12.9073
-12.608
-12.3597
-12.2131
-12.211
-12.3413
-12.4855
-12.4074
-11.953
-11.1685
-10.5218
-10.3814
-10.5673
-10.6883
-10.524
-10.156
-9.74729
-9.96307
-10.5429
-10.5391
-9.70652
-8.34769
-6.74205
-5.2034
-3.86988
-2.97149
-2.52561
-2.69261
-3.03524
-3.66958
5.19364
-2.94625
-8.32021
-12.21
-14.1386
-14.7072
-14.5402
-14.2422
-13.9151
-13.5905
-13.277
-12.9628
-12.6565
-12.3862
-12.2068
-12.1751
-12.2988
-12.4687
-12.438
-12.0295
-11.2672
-10.6024
-10.4242
-10.5843
-10.6985
-10.5383
-10.1643
-9.72975
-9.92483
-10.5502
-10.5923
-9.81215
-8.49845
-6.92495
-5.4041
-4.07345
-3.16611
-2.70518
-2.85312
-3.20201
-3.97978
7.52574
0.785706
-4.98707
-9.14957
-11.9446
-13.6185
-14.2266
-14.166
-13.9217
-13.6233
-13.3159
-13.0103
-12.7074
-12.4257
-12.2163
-12.1464
-12.2494
-12.4369
-12.4605
-12.1149
-11.3937
-10.7138
-10.486
-10.6095
-10.7115
-10.5538
-10.1716
-9.73857
-9.9288
-10.5907
-10.669
-9.9514
-8.69629
-7.17088
-5.67872
-4.36017
-3.44849
-2.98005
-3.10953
-3.46956
-4.34986
8.74692
3.64211
-1.4672
-5.87859
-9.22658
-11.5425
-13.0008
-13.6721
-13.7725
-13.5892
-13.3302
-13.041
-12.7474
-12.4654
-12.2357
-12.1284
-12.2012
-12.3989
-12.4828
-12.2187
-11.5562
-10.8643
-10.5732
-10.6463
-10.7284
-10.569
-10.1816
-9.77943
-9.99396
-10.6835
-10.7938
-10.1505
-8.96861
-7.50749
-6.05538
-4.75931
-3.84598
-3.37413
-3.48377
-3.8723
-4.83095
9.283
5.33638
1.20596
-2.83041
-6.38306
-9.12177
-11.0418
-12.331
-13.0735
-13.3116
-13.2337
-13.0223
-12.7606
-12.4876
-12.2487
-12.1114
-12.15
-12.3494
-12.4987
-12.3376
-11.7553
-11.0551
-10.6847
-10.6897
-10.7405
-10.5762
-10.1977
-9.85493
-10.1336
-10.8362
-10.98
-10.4236
-9.33335
-7.95537
-6.55981
-5.30017
-4.39491
-3.92669
-4.02103
-4.45884
-5.46571
9.37625
6.28765
3.02417
-0.341013
-3.62556
-6.53239
-8.82549
-10.4788
-11.6459
-12.4151
-12.7846
-12.8307
-12.6915
-12.4729
-12.2453
-12.0897
-12.0969
-12.289
-12.5009
-12.4608
-11.9872
-11.2854
-10.8201
-10.7353
-10.7403
-10.5673
-10.2211
-9.97735
-10.3616
-11.0632
-11.2488
-10.7925
-9.81708
-8.54425
-7.22812
-6.02174
-5.13971
-4.68039
-4.76302
-5.25874
-6.28325
9.21121
6.74235
4.17388
1.47381
-1.31233
-4.02184
-6.45439
-8.42819
-9.8953
-10.9559
-11.7181
-12.1911
-12.371
-12.3308
-12.1847
-12.0464
-12.0344
-12.2142
-12.4763
-12.5573
-12.2188
-11.5359
-10.966
-10.7639
-10.7025
-10.5204
-10.2395
-10.1523
-10.6687
-11.3707
-11.6099
-11.2711
-10.4335
-9.29461
-8.08309
-6.95878
-6.12143
-5.69267
-5.7743
-6.33674
-7.35635
8.87928
6.8696
4.83167
2.68165
0.413002
-1.91967
-4.18151
-6.24036
-7.96493
-9.29398
-10.2657
-11.0045
-11.5494
-11.8576
-11.9445
-11.9201
-11.9381
-12.1155
-12.4135
-12.6
-12.4037
-11.7789
-11.1111
-10.7523
-10.5926
-10.406
-10.237
-10.3725
-11.0326
-11.7572
-12.0696
-11.8689
-11.1976
-10.2242
-9.14975
-8.13964
-7.38185
-7.01617
-7.13416
-7.78085
-8.80273
8.4413
6.78924
5.13958
3.43074
1.60617
-0.311245
-2.26997
-4.16999
-5.92875
-7.45525
-8.67343
-9.59517
-10.3128
-10.8948
-11.3175
-11.5626
-11.7243
-11.9515
-12.2847
-12.5542
-12.4835
-11.9485
-11.2094
-10.6548
-10.3588
-10.1842
-10.1895
-10.5915
-11.408
-12.1894
-12.6058
-12.5656
-12.0991
-11.3271
-10.4322
-9.56864
-8.93015
-8.66227
-8.86873
-9.63849
-10.7391
7.94632
6.56466
5.21868
3.84401
2.38481
0.837034
-0.785175
-2.43586
-4.04823
-5.56004
-6.91716
-8.05589
-8.94931
-9.65534
-10.259
-10.7866
-11.2157
-11.5998
-12.0131
-12.361
-12.3884
-11.944
-11.17
-10.4161
-9.96383
-9.82843
-10.0481
-10.7312
-11.7093
-12.5976
-13.1407
-13.2982
-13.0617
-12.5469
-11.8658
-11.2076
-10.7142
-10.5831
-10.892
-11.8199
-13.0946
7.41635
6.25308
5.14065
4.02615
2.85335
1.60908
0.29448
-1.08144
-2.48159
-3.85446
-5.15957
-6.36382
-7.4285
-8.30368
-9.01495
-9.64876
-10.2637
-10.8602
-11.4197
-11.8797
-12.0192
-11.6653
-10.9048
-10.0292
-9.4426
-9.34038
-9.7718
-10.697
-11.8516
-12.8725
-13.5841
-13.9438
-13.9789
-13.7348
-13.3448
-12.924
-12.662
-12.6802
-13.1306
-14.1621
-15.6069
6.87161
5.88717
4.96068
4.04898
3.10088
2.09741
1.03927
-0.0777766
-1.24561
-2.43402
-3.60411
-4.73061
-5.79627
-6.77414
-7.63007
-8.35489
-9.01119
-9.66182
-10.3151
-10.8893
-11.1862
-11.0034
-10.367
-9.52216
-8.88807
-8.78479
-9.35541
-10.4494
-11.7508
-12.9118
-13.7958
-14.3679
-14.6671
-14.728
-14.6624
-14.573
-14.6195
-14.9175
-15.5968
-16.7621
-18.2726
6.3252
5.4905
4.71594
3.96578
3.19499
2.38386
1.5319
0.633537
-0.314155
-1.30381
-2.30951
-3.30749
-4.27871
-5.21204
-6.09465
-6.90389
-7.61818
-8.24971
-8.83476
-9.37547
-9.7652
-9.82158
-9.46607
-8.83767
-8.28408
-8.22491
-8.84535
-10.0049
-11.3444
-12.6005
-13.596
-14.3608
-14.8799
-15.259
-15.5221
-15.8445
-16.2839
-17.026
-18.107
-19.6276
-21.4397
5.78661
5.07959
4.43168
3.81318
3.18474
2.52769
1.84153
1.12041
0.361215
-0.441438
-1.27397
-2.12351
-2.97157
-3.80385
-4.60946
-5.3826
-6.10992
-6.76675
-7.32621
-7.77575
-8.1052
-8.25371
-8.17675
-7.89532
-7.60831
-7.64989
-8.25888
-9.33121
-10.5886
-11.7866
-12.8043
-13.6241
-14.306
-14.8885
-15.4697
-16.125
-16.9821
-18.1185
-19.6439
-21.6209
-24.1131
5.26419
4.66699
4.12609
3.61654
3.10422
2.57202
2.02062
1.44243
0.837668
0.197142
-0.473721
-1.1707
-1.88126
-2.59521
-3.29764
-3.98044
-4.63632
-5.25759
-5.82523
-6.3016
-6.64843
-6.83738
-6.89571
-6.87173
-6.83551
-6.94263
-7.40457
-8.24169
-9.27846
-10.2978
-11.1948
-11.9326
-12.5836
-13.2022
-13.8865
-14.6908
-15.713
-16.9913
-18.6269
-20.7343
-23.5143
4.76724
4.2652
3.81553
3.39693
2.98016
2.55021
2.10852
1.64734
1.16763
0.66139
0.13021
-0.426837
-1.00144
-1.58914
-2.17806
-2.75978
-3.32304
-3.86106
-4.36712
-4.83029
-5.22863
-5.52211
-5.70916
-5.82354
-5.91604
-6.03264
-6.27002
-6.69687
-7.30769
-7.98205
-8.62128
-9.1583
-9.62421
-10.0595
-10.5616
-11.1928
-12.017
-13.0447
-14.3568
-16.0665
-18.3459
4.32202
3.89881
3.52382
3.17832
2.83657
2.48673
2.12998
1.75991
1.37652
0.97465
0.554567
0.112808
-0.345199
-0.817574
-1.29616
-1.77538
-2.24541
-2.69816
-3.12545
-3.52028
-3.87723
-4.17607
-4.41431
-4.59277
-4.72777
-4.8297
-4.93029
-5.05033
-5.22102
-5.43695
-5.68583
-5.92314
-6.13627
-6.3222
-6.53219
-6.81016
-7.20535
-7.73795
-8.45187
-9.42582
-10.8038
3.93798
3.57847
3.26317
2.97508
2.69154
2.40343
2.11168
1.8111
1.50117
1.17815
0.842635
0.490754
0.125702
-0.251635
-0.635764
-1.02291
-1.40607
-1.77867
-2.13295
-2.45968
-2.75229
-2.99364
-3.18721
-3.33926
-3.45838
-3.54104
-3.59009
-3.5955
-3.55859
-3.47547
-3.36902
-3.26521
-3.19204
-3.15529
-3.15857
-3.20721
-3.31776
-3.49639
-3.73578
-4.05927
-4.57827
3.60442
3.29792
3.03061
2.78874
2.55099
2.31153
2.07025
1.82366
1.5705
1.3081
1.03745
0.755596
0.463749
0.162537
-0.144482
-0.454265
-0.762032
-1.06253
-1.35046
-1.6182
-1.86007
-2.05862
-2.21188
-2.32545
-2.4059
-2.45187
-2.46553
-2.43926
-2.36587
-2.23206
-2.02999
-1.76064
-1.44916
-1.14355
-0.889216
-0.718613
-0.644473
-0.672418
-0.784799
-0.982995
-1.28327
3.31289
3.04836
2.82169
2.6161
2.41626
2.21475
2.01422
1.8095
1.60145
1.38613
1.16641
0.938804
0.704848
0.464003
0.219351
-0.0271107
-0.272262
-0.511223
-0.741232
-0.954403
-1.14956
-1.30899
-1.43242
-1.51945
-1.57756
-1.60004
-1.59408
-1.55575
-1.48973
-1.38701
-1.24541
-1.05605
-0.820702
-0.546123
-0.25474
0.0208869
0.246129
0.398382
0.494016
0.559812
0.611826
3.05249
2.8256
2.63082
2.4566
2.28609
2.11676
1.94761
1.77758
1.60424
1.42737
1.24641
1.06182
0.872777
0.680311
0.485269
0.289482
0.0955213
-0.0940298
-0.275035
-0.444377
-0.597147
-0.723731
-0.817094
-0.884135
-0.92365
-0.937821
-0.923604
-0.886062
-0.824624
-0.745266
-0.645918
-0.530589
-0.396434
-0.247723
-0.0840887
0.0887607
0.274225
0.458697
0.640694
0.817364
0.970013
2.82079
2.62387
2.4564
2.30681
2.16108
2.01692
1.87378
1.73067
1.58568
1.43857
1.28882
1.13746
0.984185
0.829351
0.673475
0.517686
0.364104
0.21436
0.0717073
-0.061734
-0.182112
-0.281612
-0.353203
-0.403561
-0.4316
-0.44065
-0.426891
-0.395454
-0.343912
-0.27898
-0.199357
-0.112494
-0.0175171
0.079553
0.181152
0.284527
0.394329
0.505668
0.615426
0.731096
0.838202
2.61046
2.44064
2.29512
2.16603
2.04029
1.91667
1.79441
1.67289
1.5506
1.4271
1.30241
1.17707
1.05182
0.926001
0.801097
0.676327
0.555053
0.436135
0.324363
0.218389
0.124139
0.0445875
-0.0103221
-0.0499474
-0.07001
-0.0772142
-0.0651277
-0.0414852
-0.00111981
0.0480614
0.110906
0.179747
0.258307
0.338829
0.423789
0.507425
0.59337
0.678069
0.760903
0.850513
0.933547
2.42115
2.27204
2.14566
2.03292
1.92379
1.81658
1.7113
1.607
1.50275
1.39811
1.29305
1.18819
1.08394
0.98126
0.879734
0.780255
0.682786
0.589344
0.499805
0.417228
0.340923
0.279365
0.234517
0.205896
0.188723
0.185838
0.193677
0.214846
0.244726
0.285692
0.333204
0.38972
0.451341
0.520167
0.592156
0.669723
0.749933
0.835172
0.920335
1.01572
1.10578
2.2474
2.11773
2.00638
1.90708
1.81123
1.71726
1.62546
1.53477
1.44474
1.35474
1.26502
1.1757
1.08783
1.00254
0.919242
0.83837
0.759585
0.684469
0.612546
0.546281
0.484555
0.434658
0.398351
0.375495
0.361594
0.359151
0.365035
0.381588
0.404999
0.437321
0.475002
0.520181
0.569971
0.62627
0.686334
0.752622
0.823426
0.900583
0.980493
1.07039
1.15792
2.08951
1.97464
1.87643
1.78799
1.70254
1.61944
1.53794
1.45834
1.37896
1.30076
1.22243
1.14569
1.06979
0.997974
0.927592
0.861091
0.795344
0.7343
0.674498
0.620705
0.568529
0.527221
0.495602
0.476372
0.462948
0.45981
0.462145
0.474207
0.490867
0.515785
0.544486
0.580498
0.619795
0.665468
0.713862
0.768075
0.825406
0.888189
0.952263
1.02407
1.09249
1.94379
1.84309
1.75467
1.67511
1.59823
1.52331
1.45036
1.37879
1.30831
1.23847
1.1697
1.10164
1.03573
0.97243
0.912705
0.85509
0.800486
0.747792
0.698536
0.651505
0.608172
0.570461
0.54387
0.524406
0.512994
0.506706
0.508033
0.514052
0.526863
0.54355
0.566266
0.592151
0.623223
0.656774
0.694616
0.73469
0.778892
0.825102
0.873344
0.925986
0.975681
1.81073
1.72032
1.64111
1.56849
1.49812
1.42983
1.36308
1.29801
1.23384
1.17069
1.10852
1.04742
0.988094
0.931337
0.878348
0.827816
0.780108
0.734073
0.690909
0.649371
0.610568
0.576075
0.551008
0.531791
0.519245
0.510678
0.508472
0.509947
0.517117
0.527235
0.542353
0.559822
0.581698
0.605517
0.633015
0.662215
0.69489
0.729099
0.764931
0.804503
0.841092
1.68789
1.60746
1.53474
1.46776
1.40281
1.33903
1.27752
1.21668
1.15778
1.0989
1.0421
0.985373
0.931258
0.878429
0.830591
0.784143
0.741531
0.699203
0.660458
0.621733
0.58607
0.552642
0.528107
0.507564
0.493487
0.481902
0.476298
0.473087
0.47536
0.479591
0.488639
0.499383
0.514395
0.5308
0.550786
0.571969
0.596411
0.622022
0.649393
0.679982
0.708051
1.57548
1.50214
1.43569
1.37294
1.31181
1.25205
1.19369
1.13672
1.08071
1.02584
0.971808
0.919223
0.867565
0.818662
0.772747
0.730241
0.689335
0.65083
0.613224
0.577718
0.542239
0.510859
0.48468
0.464443
0.447333
0.434898
0.425069
0.419761
0.416868
0.418066
0.421246
0.42806
0.436568
0.448251
0.461237
0.477079
0.494216
0.514028
0.534033
0.55849
0.579514
1.47183
1.40536
1.34292
1.28383
1.22581
1.16857
1.11289
1.05814
1.00466
0.951994
0.900376
0.849974
0.800615
0.75357
0.70934
0.668382
0.629094
0.591969
0.555588
0.520986
0.486349
0.455196
0.428512
0.407161
0.388491
0.373954
0.361791
0.353729
0.347741
0.345366
0.344722
0.347335
0.35153
0.358663
0.367084
0.37817
0.390537
0.405467
0.420686
0.440016
0.456308
1.37703
1.31538
1.25688
1.20034
1.14433
1.08942
1.03495
0.982321
0.929875
0.879236
0.828623
0.780153
0.731773
0.686297
0.642369
0.602507
0.563562
0.527459
0.491351
0.457602
0.42306
0.392186
0.364679
0.342476
0.322302
0.306304
0.292036
0.281764
0.273141
0.268043
0.264461
0.264086
0.265153
0.269074
0.274195
0.28189
0.290763
0.302077
0.313681
0.329082
0.341762
1.28997
1.23277
1.17674
1.12219
1.06792
1.01407
0.961066
0.909042
0.858027
0.807792
0.758672
0.71044
0.663611
0.617976
0.57508
0.534622
0.496769
0.460036
0.425011
0.390426
0.356854
0.324927
0.297776
0.273648
0.253222
0.234881
0.219942
0.207108
0.197528
0.189775
0.184939
0.181783
0.181332
0.182358
0.185739
0.190446
0.197369
0.205567
0.215175
0.227321
0.238064
1.21051
1.15646
1.10267
1.04937
0.996244
0.943235
0.890972
0.839468
0.789017
0.739268
0.690689
0.642926
0.596619
0.551313
0.508501
0.468002
0.430193
0.39355
0.358582
0.324221
0.291023
0.259279
0.231905
0.207365
0.1863
0.167339
0.151616
0.137879
0.127116
0.118211
0.112046
0.10759
0.105639
0.105202
0.106961
0.110051
0.115178
0.121556
0.129251
0.139264
0.148037
1.13802
1.08662
1.03424
0.981838
0.929346
0.877028
0.824911
0.773849
0.723474
0.674121
0.625676
0.578288
0.532194
0.48716
0.444279
0.40378
0.365845
0.329267
0.294373
0.260172
0.227086
0.195528
0.167911
0.143023
0.121435
0.10192
0.0853616
0.0708812
0.0592475
0.0495638
0.0424854
0.037179
0.0342444
0.0328461
0.0335225
0.0355466
0.0394601
0.044605
0.0510098
0.0595349
0.0669991
1.0722
1.02272
0.971341
0.919402
0.867392
0.815019
0.7634
0.712007
0.662096
0.612489
0.564538
0.517003
0.471412
0.426402
0.383967
0.343273
0.305635
0.269118
0.23476
0.200929
0.168718
0.137818
0.110875
0.0863866
0.065225
0.0460778
0.0299384
0.0157688
0.00440434
-0.00514413
-0.0121643
-0.0175802
-0.0207345
-0.022491
-0.0222711
-0.0208576
-0.0176706
-0.0133869
-0.00789111
-0.000530453
0.00596635
1.01269
0.964558
0.913825
0.861976
0.809933
0.757811
0.705839
0.654673
0.604445
0.555273
0.507073
0.460162
0.414403
0.370203
0.327537
0.287438
0.249458
0.2137
0.179179
0.146333
0.114191
0.0843733
0.0573424
0.033629
0.0122591
-0.00627945
-0.0226976
-0.0364285
-0.0481725
-0.0574535
-0.0649467
-0.0702178
-0.0739073
-0.0756211
-0.0760045
-0.0746453
-0.0721448
-0.0680339
-0.0633225
-0.0563505
-0.0506026
0.958988
0.91183
0.861183
0.809353
0.757148
0.704797
0.652691
0.601442
0.551149
0.502087
0.45409
0.407547
0.362238
0.318628
0.276612
0.237152
0.199891
0.165083
0.131786
0.100351
0.0699632
0.0420428
0.0167743
-0.00537071
-0.025177
-0.0422756
-0.0572848
-0.0698015
-0.0804058
-0.0887704
-0.0954588
-0.100175
-0.103439
-0.104977
-0.105317
-0.104158
-0.101994
-0.0984588
-0.0943935
-0.0884021
-0.083502
0.910903
0.863951
0.813364
0.761
0.708469
0.655873
0.603692
0.552239
0.502085
0.453112
0.405521
0.359396
0.314755
0.271844
0.230524
0.191556
0.154813
0.120449
0.0876943
0.0568658
0.0272129
-0.000145255
-0.0249679
-0.0468749
-0.0664567
-0.0834542
-0.0983401
-0.110818
-0.121337
-0.129674
-0.136272
-0.140931
-0.144088
-0.145556
-0.145774
-0.144521
-0.14223
-0.138611
-0.134392
-0.12842
-0.123259
0.868203
0.821323
0.769978
0.717119
0.663824
0.61083
0.558192
0.506942
0.45674
0.408369
0.361208
0.316018
0.272215
0.230618
0.190694
0.153477
0.118558
0.0863613
0.0560334
0.0279442
0.00137531
-0.0226669
-0.0442335
-0.0629922
-0.0795414
-0.0936766
-0.105901
-0.115985
-0.124369
-0.130883
-0.135948
-0.139418
-0.141681
-0.142596
-0.142536
-0.141331
-0.139345
-0.136333
-0.132902
-0.128069
-0.124037
0.831107
0.783694
0.731948
0.677911
0.623804
0.569929
0.516951
0.465206
0.41523
0.36712
0.320949
0.276588
0.234096
0.193299
0.154379
0.117425
0.0829873
0.0508104
0.0208605
-0.00726766
-0.0335174
-0.0577574
-0.0794271
-0.098743
-0.115647
-0.130485
-0.143187
-0.153991
-0.162822
-0.16993
-0.175274
-0.179113
-0.181408
-0.182425
-0.182129
-0.180775
-0.178309
-0.174946
-0.170791
-0.165521
-0.160472
0.798005
0.750035
0.697146
0.642683
0.587756
0.533405
0.47996
0.428065
0.378083
0.330215
0.284677
0.241474
0.200867
0.162756
0.127214
0.0941117
0.0637182
0.0357547
0.0102379
-0.0131199
-0.0343626
-0.0533556
-0.0698609
-0.0841614
-0.0963384
-0.106667
-0.115245
-0.122277
-0.127843
-0.132118
-0.135172
-0.137174
-0.138173
-0.138326
-0.137658
-0.136329
-0.134343
-0.13181
-0.128853
-0.125127
-0.121845
0.767276
0.716708
0.66242
0.606471
0.551287
0.497006
0.444307
0.393268
0.344405
0.297713
0.253228
0.210788
0.170406
0.131984
0.0957492
0.0618308
0.0305412
0.00164965
-0.0250532
-0.0498901
-0.0729057
-0.0939979
-0.112956
-0.129826
-0.144667
-0.15758
-0.168669
-0.177994
-0.185651
-0.191726
-0.196323
-0.199535
-0.201444
-0.202174
-0.201794
-0.200433
-0.198132
-0.195022
-0.191225
-0.186567
-0.181887
0.74155
0.687884
0.629764
0.571033
0.513272
0.457871
0.404903
0.35495
0.307949
0.263902
0.222763
0.184481
0.149111
0.116575
0.0866634
0.0592088
0.034315
0.0121533
-0.00734725
-0.0243099
-0.0390698
-0.0515447
-0.0619911
-0.0704874
-0.0773172
-0.0826125
-0.0866496
-0.0895405
-0.0914918
-0.0925979
-0.0930101
-0.0928223
-0.0921309
-0.0910159
-0.089526
-0.0877451
-0.0856975
-0.0834278
-0.0810235
-0.078242
-0.0758777
0.73115
0.677346
0.617531
0.554854
0.492693
0.432345
0.375301
0.322076
0.273179
0.22848
0.187482
0.149686
0.11442
0.0813463
0.0502272
0.0211642
-0.00605574
-0.0315545
-0.0556167
-0.0781201
-0.0992016
-0.118617
-0.136431
-0.152462
-0.166871
-0.179577
-0.190754
-0.200341
-0.208487
-0.215197
-0.220602
-0.224752
-0.227741
-0.229664
-0.230579
-0.230609
-0.22977
-0.228204
-0.225935
-0.223007
-0.219716
0.730204
0.681049
0.625107
0.565053
0.503307
0.441666
0.381538
0.32428
0.270931
0.222035
0.178191
0.139479
0.106163
0.0778418
0.05415
0.0343189
0.0182505
0.00570098
-0.00380873
-0.0107648
-0.0156802
-0.0186366
-0.0201343
-0.0202172
-0.0193203
-0.0174098
-0.0149422
-0.0118061
-0.00842411
-0.004625
-0.000804321
0.00325562
0.00719938
0.0112654
0.0151311
0.0190538
0.0227408
0.0264538
0.0298801
0.0334231
0.0364527
0.693455
0.634294
0.574461
0.515894
0.459746
0.406368
0.355869
0.308295
0.263546
0.221435
0.181628
0.143895
0.107853
0.0734692
0.0405689
0.00950145
-0.0198955
-0.0473694
-0.0732918
-0.097665
-0.120797
-0.142585
-0.163153
-0.182342
-0.200318
-0.216993
-0.232461
-0.246657
-0.259677
-0.271499
-0.282228
-0.291863
-0.300518
-0.3082
-0.315041
-0.321039
-0.326337
-0.330922
-0.334959
-0.338388
-0.341401
-0.459487
-8.05758
-12.593
-15.2776
-18.4412
-21.2454
-22.7014
-23.1916
-23.2867
-22.5514
-21.875
-20.6896
-19.535
-18.2343
-16.6949
-15.3186
-13.8528
-12.5331
-11.2332
-10.0766
-8.97395
-8.01291
-7.1508
-6.37907
-5.70543
-5.12991
-4.65771
-4.23203
-3.85252
-3.52018
-3.21691
-2.94864
-2.69048
-2.45532
-2.24169
-2.04192
-1.85967
-1.69185
-1.53559
-1.39208
-1.25655
-1.12857
-1.0057
-0.890078
-0.779987
-0.666975
-0.569168
-0.468923
-0.373728
-0.286176
-0.209062
-0.126169
-0.0601791
0.00260125
0.0568814
0.0977191
0.151057
0.173487
0.209459
0.221105
0.242308
0.242448
0.252255
0.247847
0.236305
0.229333
0.208295
0.194241
0.166558
0.145862
0.0984357
0.099326
-0.0141682
0.109444
-1.39809
-8.09964
-12.5926
-15.3348
-18.5582
-21.4209
-22.9036
-23.3366
-23.2802
-22.5189
-21.7712
-20.6309
-19.4828
-18.193
-16.6883
-15.3218
-13.8744
-12.5605
-11.2693
-10.1073
-9.00881
-8.04938
-7.18345
-6.40752
-5.73312
-5.15924
-4.68699
-4.26488
-3.89052
-3.56206
-3.26287
-2.99625
-2.73942
-2.50478
-2.29095
-2.09048
-1.90762
-1.73877
-1.58176
-1.43676
-1.30007
-1.17098
-1.04652
-0.929889
-0.817254
-0.703254
-0.603474
-0.500701
-0.403562
-0.314185
-0.234252
-0.149478
-0.0811984
-0.0165711
0.0393113
0.0835423
0.137485
0.162388
0.199223
0.212809
0.234588
0.23676
0.246914
0.243248
0.232668
0.225939
0.205768
0.191758
0.16443
0.143801
0.0967442
0.0974657
-0.0155034
0.107787
-2.28064
-8.09453
-12.6358
-15.4751
-18.7194
-21.674
-23.2828
-23.7025
-23.4932
-22.6443
-21.7941
-20.6485
-19.4809
-18.1849
-16.7007
-15.3329
-13.8973
-12.5843
-11.2983
-10.1297
-9.03652
-8.07798
-7.20844
-6.43014
-5.75461
-5.18254
-4.7092
-4.29074
-3.92142
-3.59688
-3.30191
-3.0371
-2.78235
-2.54864
-2.33496
-2.13451
-1.95124
-1.78169
-1.624
-1.47817
-1.34035
-1.21007
-1.08471
-0.966699
-0.852377
-0.737165
-0.635291
-0.530803
-0.431884
-0.3405
-0.258197
-0.171647
-0.101204
-0.0348255
0.022914
0.06977
0.124493
0.151686
0.1894
0.204758
0.227231
0.231124
0.241641
0.238765
0.229062
0.22261
0.203203
0.189258
0.162308
0.141745
0.0950892
0.0955988
-0.0167264
0.106172
-3.33946
-8.29201
-12.7739
-15.7404
-18.998
-22.0527
-23.8503
-24.3308
-23.9883
-22.9974
-22.0034
-20.7929
-19.57
-18.2413
-16.756
-15.3686
-13.9336
-12.6115
-11.3249
-10.146
-9.05709
-8.09642
-7.22428
-6.44472
-5.76863
-5.19799
-4.72296
-4.30795
-3.94338
-3.62264
-3.33189
-3.06897
-2.81717
-2.58478
-2.37168
-2.1722
-1.98889
-1.81914
-1.66103
-1.51515
-1.37635
-1.24507
-1.11948
-0.999843
-0.884747
-0.768274
-0.664407
-0.558914
-0.458407
-0.364967
-0.280763
-0.192557
-0.120142
-0.0521268
0.00759186
0.0564484
0.112049
0.14138
0.179934
0.196954
0.220158
0.225553
0.236414
0.23437
0.225496
0.219328
0.200623
0.186745
0.160197
0.139713
0.0934622
0.0937537
-0.0178507
0.104604
-4.54952
-8.6966
-13.0138
-16.1334
-19.4276
-22.577
-24.5756
-25.1927
-24.7662
-23.6077
-22.4176
-21.0851
-19.7613
-18.369
-16.8555
-15.4316
-13.9831
-12.644
-11.3501
-10.1603
-9.07129
-8.10647
-7.23288
-6.45456
-5.77881
-5.21014
-4.73371
-4.32201
-3.96122
-3.64431
-3.357
-3.09635
-2.84731
-2.61647
-2.40452
-2.20607
-2.02295
-1.85327
-1.69518
-1.54908
-1.40964
-1.2777
-1.15175
-1.0308
-0.914895
-0.797281
-0.691663
-0.585123
-0.483122
-0.38777
-0.30186
-0.212158
-0.13788
-0.0683637
-0.00672602
0.0438371
0.100329
0.131607
0.170973
0.1895
0.213434
0.220157
0.231331
0.230127
0.221991
0.216113
0.198041
0.184217
0.158068
0.137663
0.0918358
0.0918466
-0.0189025
0.102988
-5.88207
-9.36
-13.4557
-16.752
-20.1217
-23.3651
-25.5558
-26.3416
-25.8796
-24.5339
-23.0843
-21.5617
-20.0849
-18.5844
-17.0117
-15.5283
-14.0499
-12.6819
-11.374
-10.1708
-9.07645
-8.10324
-7.2283
-6.45176
-5.77831
-5.21195
-4.73648
-4.32873
-3.97161
-3.65878
-3.37482
-3.117
-2.87085
-2.64192
-2.43179
-2.23474
-2.05221
-1.883
-1.72558
-1.57941
-1.43968
-1.30755
-1.18132
-1.05948
-0.942738
-0.824309
-0.717274
-0.609599
-0.506233
-0.40921
-0.321721
-0.230698
-0.154663
-0.0838044
-0.0204166
0.0318161
0.0890954
0.122269
0.162307
0.182328
0.206862
0.214911
0.226334
0.225958
0.218557
0.212912
0.195472
0.181683
0.155941
0.135622
0.0902268
0.0899399
-0.0198758
0.101348
-7.31266
-10.3089
-14.1711
-17.6487
-21.1395
-24.4849
-26.885
-27.8455
-27.3864
-25.8396
-24.0542
-22.2534
-20.554
-18.8934
-17.2223
-15.655
-14.1282
-12.7197
-11.3913
-10.1742
-9.06983
-8.08574
-7.2077
-6.43318
-5.76283
-5.20015
-4.72798
-4.32549
-3.97315
-3.66488
-3.38498
-3.13041
-2.88764
-2.66132
-2.4533
-2.258
-2.07664
-1.90848
-1.75196
-1.60604
-1.46648
-1.33443
-1.20802
-1.08562
-0.968087
-0.849113
-0.740793
-0.632112
-0.527509
-0.429076
-0.340063
-0.247944
-0.170258
-0.0982144
-0.0332278
0.0205643
0.0785189
0.113456
0.154077
0.175499
0.200554
0.209876
0.221499
0.221913
0.215196
0.209754
0.192929
0.179165
0.153819
0.133585
0.0886544
0.0880037
-0.020731
0.099675
-8.85791
-11.5665
-15.2389
-18.917
-22.585
-26.0632
-28.6974
-29.8581
-29.4164
-27.6503
-25.4385
-23.2418
-21.222
-19.3292
-17.5074
-15.8216
-14.2215
-12.7561
-11.3984
-10.1645
-9.04831
-8.05224
-7.16948
-6.39528
-5.72822
-5.16966
-4.70287
-4.30678
-3.96062
-3.65741
-3.3826
-3.13181
-2.8932
-2.67056
-2.46533
-2.27273
-2.09331
-1.9271
-1.77201
-1.62701
-1.48811
-1.35665
-1.23059
-1.10788
-0.989995
-0.870829
-0.761467
-0.652158
-0.546577
-0.447017
-0.35666
-0.263739
-0.184531
-0.11153
-0.0450798
0.0100658
0.0685707
0.105178
0.146237
0.169008
0.194469
0.205047
0.216795
0.217956
0.211909
0.20661
0.19041
0.176653
0.151707
0.131557
0.0871128
0.08609
-0.0214788
0.0980056
-10.6197
-13.193
-16.7542
-20.6441
-24.5555
-28.2069
-31.0835
-32.4851
-32.075
-30.0638
-27.3304
-24.5913
-22.125
-19.9087
-17.8716
-16.027
-14.3259
-12.7862
-11.3884
-10.1334
-9.00617
-8.00127
-7.11468
-6.34093
-5.67714
-5.12304
-4.6621
-4.27319
-3.93412
-3.63679
-3.36785
-3.12168
-2.8883
-2.67014
-2.46843
-2.27929
-2.10277
-1.93913
-1.78599
-1.64249
-1.50491
-1.37435
-1.24896
-1.12632
-1.00841
-0.889346
-0.779184
-0.669506
-0.563297
-0.46283
-0.371337
-0.277851
-0.197349
-0.123539
-0.0558453
0.000501277
0.0593815
0.0975039
0.138884
0.162893
0.188686
0.200432
0.212248
0.214111
0.208675
0.203496
0.187901
0.174139
0.149578
0.12951
0.08559
0.0841263
-0.0221142
0.0962941
-12.7917
-15.3708
-18.9098
-22.9998
-27.1915
-31.0572
-34.17
-35.8226
-35.4912
-33.2092
-29.8571
-26.4029
-23.3271
-20.6666
-18.3296
-16.2744
-14.4377
-12.804
-11.3514
-10.0675
-8.92883
-7.91974
-7.03326
-6.26252
-5.60378
-5.05524
-4.60085
-4.21958
-3.88811
-3.59734
-3.33515
-3.09472
-2.86812
-2.65573
-2.45879
-2.27429
-2.1018
-1.94174
-1.7915
-1.6503
-1.51479
-1.38577
-1.2616
-1.1395
-1.02211
-0.903587
-0.793054
-0.683404
-0.576956
-0.475942
-0.383593
-0.289921
-0.208344
-0.13401
-0.0652799
-0.0080194
0.0510974
0.0905297
0.132121
0.157208
0.183244
0.196081
0.207882
0.210398
0.205528
0.200422
0.185419
0.171628
0.147451
0.12746
0.0840829
0.0821675
-0.0226596
0.0945581
-15.4467
-18.2442
-21.9247
-26.2298
-30.6774
-34.7909
-38.066
-39.9551
-39.7149
-37.1651
-33.1055
-28.752
-24.8716
-21.616
-18.8775
-16.5512
-14.5419
-12.7958
-11.2754
-9.95421
-8.80183
-7.79275
-6.91258
-6.15081
-5.5015
-4.96164
-4.5157
-4.14328
-3.82091
-3.53804
-3.28374
-3.05076
-2.83235
-2.6273
-2.4366
-2.25803
-2.09071
-1.93519
-1.78879
-1.65081
-1.51813
-1.39122
-1.26869
-1.14774
-1.03123
-0.913672
-0.803166
-0.693865
-0.587576
-0.486326
-0.393429
-0.299873
-0.217558
-0.142863
-0.0734359
-0.0153758
0.0437161
0.0843253
0.125927
0.152001
0.178163
0.191973
0.2037
0.206807
0.202445
0.197392
0.18295
0.169121
0.145315
0.125405
0.082602
0.0801665
-0.0230864
0.0927711
-18.2425
-21.4529
-25.5358
-30.1864
-34.9927
-39.3672
-42.8128
-44.8141
-44.6481
-41.8568
-37.0524
-31.6506
-26.7631
-22.7442
-19.4905
-16.8274
-14.6087
-12.734
-11.1381
-9.77542
-8.60802
-7.60219
-6.73487
-5.98959
-5.35669
-4.83074
-4.39719
-4.03615
-3.72521
-3.45234
-3.2075
-2.98385
-2.7752
-2.57935
-2.39681
-2.22591
-2.06538
-1.91574
-1.77448
-1.64091
-1.51211
-1.38826
-1.26814
-1.14907
-1.03399
-0.918
-0.808082
-0.699688
-0.594079
-0.493041
-0.400051
-0.307016
-0.224403
-0.149582
-0.0799002
-0.0212354
0.0374974
0.0791256
0.120483
0.147424
0.17353
0.188226
0.199764
0.203393
0.19948
0.194427
0.180526
0.166634
0.143198
0.123362
0.0811564
0.0781931
-0.0234017
0.0909714
-20.9477
-24.4305
-28.9349
-34.0852
-39.4109
-44.2323
-47.9433
-50.0453
-49.9
-46.9001
-41.427
-34.9323
-28.9014
-23.9688
-20.0949
-17.0378
-14.5803
-12.5691
-10.9001
-9.50237
-8.32605
-7.32989
-6.48347
-5.76374
-5.15626
-4.65204
-4.23688
-3.89199
-3.59651
-3.33728
-3.105
-2.89305
-2.69604
-2.51122
-2.33881
-2.1774
-2.02555
-1.88332
-1.74863
-1.6206
-1.49673
-1.37684
-1.26002
-1.14372
-1.03066
-0.916829
-0.808036
-0.701006
-0.59654
-0.496237
-0.403537
-0.31149
-0.228948
-0.154305
-0.0847171
-0.0256952
0.0324144
0.074826
0.115754
0.14341
0.169351
0.184758
0.196062
0.200107
0.196583
0.191504
0.178105
0.164147
0.141071
0.121312
0.0797409
0.0761899
-0.023594
0.0891373
-24.1614
-27.6644
-32.2608
-37.6671
-43.3109
-48.5253
-52.4823
-54.6863
-54.5231
-51.3873
-45.4283
-38.0288
-30.9113
-25.0429
-20.5143
-17.0494
-14.3561
-12.2209
-10.4973
-9.08597
-7.91964
-6.94866
-6.13626
-5.4542
-4.88336
-4.41082
-4.02231
-3.70022
-3.42558
-3.18485
-2.96929
-2.77248
-2.5897
-2.41822
-2.25794
-2.1079
-1.96666
-1.83386
-1.70754
-1.58659
-1.46886
-1.35401
-1.24148
-1.12894
-1.01884
-0.908009
-0.801199
-0.696216
-0.593459
-0.494542
-0.402643
-0.31219
-0.230269
-0.156224
-0.0872202
-0.0281948
0.0289047
0.0718274
0.112039
0.140226
0.165786
0.181758
0.192693
0.197058
0.193819
0.188672
0.175736
0.161683
0.138959
0.119268
0.0783583
0.0742151
-0.0236844
0.0872994
-27.3413
-31.1101
-35.857
-41.2247
-46.7822
-51.8176
-55.5414
-57.4132
-56.976
-53.686
-47.5555
-39.7255
-31.9479
-25.4132
-20.3868
-16.6157
-13.762
-11.5627
-9.83364
-8.45193
-7.33185
-6.41588
-5.66053
-5.03513
-4.51649
-4.08959
-3.739
-3.44883
-3.20254
-2.98715
-2.79406
-2.61741
-2.45298
-2.29848
-2.15326
-2.01702
-1.88838
-1.76697
-1.65082
-1.53872
-1.42867
-1.32008
-1.21269
-1.10477
-0.998348
-0.891371
-0.787473
-0.685323
-0.585074
-0.488206
-0.397674
-0.309304
-0.228528
-0.155508
-0.0875626
-0.0289289
0.0268663
0.0699544
0.109263
0.137736
0.162784
0.179081
0.18962
0.194157
0.191149
0.185899
0.173366
0.15922
0.136837
0.117217
0.077
0.0722143
-0.0236749
0.0854385
-26.9795
-30.9004
-35.7396
-41.115
-46.5332
-51.2452
-54.5166
-55.8522
-54.9031
-51.4182
-45.518
-38.11
-30.5993
-24.1377
-19.1068
-15.3436
-12.5376
-10.4154
-8.78338
-7.50604
-6.49201
-5.67662
-5.01487
-4.47401
-4.03108
-3.66801
-3.37067
-3.12499
-2.91684
-2.7349
-2.5713
-2.42072
-2.27988
-2.1467
-2.02051
-1.90122
-1.78787
-1.67993
-1.57576
-1.47414
-1.37328
-1.27241
-1.17148
-1.0692
-0.967295
-0.864833
-0.764577
-0.665986
-0.569158
-0.475341
-0.387091
-0.30156
-0.222615
-0.151145
-0.0847864
-0.027097
0.0270002
0.069726
0.107898
0.136269
0.160636
0.176939
0.18702
0.191523
0.188674
0.183235
0.171066
0.156784
0.13474
0.115184
0.0756845
0.0702545
-0.0235737
0.0835964
-21.1236
-24.2152
-28.0176
-32.3529
-36.8839
-41.0164
-44.1169
-45.626
-45.1291
-42.2706
-37.3351
-31.3786
-25.4204
-20.185
-15.9863
-12.7864
-10.3881
-8.58431
-7.21272
-6.15575
-5.3309
-4.67931
-4.15895
-3.74046
-3.4013
-3.12529
-2.89987
-2.71333
-2.55544
-2.41723
-2.29177
-2.17488
-2.06419
-1.95797
-1.85585
-1.75783
-1.66355
-1.57222
-1.48253
-1.3931
-1.30267
-1.2106
-1.11723
-1.02175
-0.925701
-0.828761
-0.733059
-0.638636
-0.545838
-0.455769
-0.370649
-0.288757
-0.212589
-0.143378
-0.0792041
-0.022948