/*--------------------------------*- C++ -*----------------------------------*\
| =========                 |                                                 |
| \\      /  F ield         | OpenFOAM: The Open Source CFD Toolbox           |
|  \\    /   O peration     | Version:  2312                                  |
|   \\  /    A nd           | Website:  www.openfoam.com                      |
|    \\/     M anipulation  |                                                 |
\*---------------------------------------------------------------------------*/
FoamFile
{
    version     2.0;
    format      ascii;
    arch        "LSB;label=32;scalar=64";
    class       surfaceScalarField;
    location    "200";
    object      phi;
}
// * * * * * * * * * * * * * * * * * * * * * * * * * * * * * * * * * * * * * //

dimensions      [0 3 -1 0 0 0 0];

oriented        oriented;

internalField   nonuniform List<scalar> 
21876
(
0.00874878
-0.00119246
-0.00755431
0.00600783
0.00274075
0.00181078
0.00419966
-0.000514016
0.00232925
-0.00120948
0.000704173
-0.00119188
-1.61458e-05
-0.00121788
2.26692e-05
-0.00116254
-5.47204e-05
-0.0011197
-4.68589e-05
-0.00105106
-6.14927e-05
-0.000981545
-6.70154e-05
-0.000905149
-6.11837e-05
-0.000831026
-6.01702e-05
-0.000774494
-4.23939e-05
-0.000746145
-1.6275e-05
-0.000757001
1.60433e-05
-0.000809554
6.76839e-05
-0.000870341
5.72604e-05
-0.000834519
-1.12395e-05
-0.000665347
-0.000184615
-0.000198252
-0.000437076
0.00058007
-0.000750271
0.00129853
-0.000696471
0.00168846
-0.000368422
0.00166872
1.2293e-05
0.00134081
0.000351122
0.000835383
0.000494496
0.000286543
0.000564659
-0.000622404
0.000900809
-0.00151702
0.000912663
-0.00181407
0.00027795
-0.00169071
-0.000115221
-0.00135607
-0.000368343
-0.000834154
-0.000519468
-0.000136076
-0.000738455
0.000784495
-0.000911604
0.00181419
-0.00106325
0.00290921
-0.0010867
0.00397626
-0.00109557
0.00481979
-0.000816856
-0.000667271
0.00551009
0.00999508
-0.00322632
-0.00796141
0.010601
0.00213512
0.00897267
0.00582986
0.00511225
0.00619457
0.00142053
0.00440436
-0.000492843
0.0019088
-0.000916269
0.000459749
-0.00103034
7.80978e-05
-0.00106721
8.60707e-06
-0.00105182
-5.39843e-05
-0.00101077
-8.68248e-05
-0.000956404
-8.80795e-05
-0.000906155
-8.11234e-05
-0.000876817
-4.45631e-05
-0.000884252
1.98812e-05
-0.000934063
9.20116e-05
-0.000994021
0.000161481
-0.00102286
0.000111343
-0.000926078
-7.49517e-05
-0.000602277
-0.000485564
8.26386e-05
-0.00109031
0.000952473
-0.00158906
0.00171838
-0.00143265
0.00218597
-0.000805082
0.00229652
-8.24978e-05
0.00207081
0.0005935
0.00149258
0.00107309
0.000326861
0.00173756
-0.00110177
0.002334
-0.00186661
0.00169108
-0.00196038
0.000384137
-0.00169296
-0.000362778
-0.00117541
-0.000874113
-0.000416977
-0.00125529
0.000546278
-0.00169051
0.00167775
-0.00202102
0.00290826
-0.00229109
0.00422564
-0.00239537
0.00552859
-0.00241181
0.00667355
-0.00195618
-0.00151149
0.00751716
0.0111321
-0.00553372
-0.00882305
0.012644
0.00062274
0.0134852
0.00498951
0.0120034
0.00767694
0.00836531
0.00804227
0.00403888
0.00623347
0.000964127
0.00353268
-0.000346633
0.00138911
-0.000733907
0.000393964
-0.000901542
0.000112476
-0.000950681
-4.12785e-05
-0.00093535
-0.000103521
-0.000899659
-0.000119772
-0.000879354
-6.53527e-05
-0.000904387
4.19905e-05
-0.000983751
0.000165477
-0.00108007
0.000256458
-0.00114106
0.000165813
-0.00104545
-0.00016363
-0.000659834
-0.000882189
0.000140555
-0.00188816
0.00114264
-0.00259089
0.00203303
-0.00232383
0.00258077
-0.00135556
0.00271836
-0.000229672
0.00246426
0.000854523
0.00170829
0.00182612
0.000166893
0.00328192
-0.00138865
0.00388589
-0.0020576
0.0023628
-0.00211812
0.000435118
-0.00176364
-0.000719708
-0.0010957
-0.00155628
-0.00014294
-0.00221429
0.00104268
-0.0028921
0.00241757
-0.00340163
0.00391517
-0.00380493
0.00551854
-0.00400057
0.00711483
-0.00401917
0.00857682
-0.00340648
-0.00264714
0.00971679
0.0125206
-0.00819201
-0.00986266
0.0144107
-0.00126812
0.0159704
0.00342982
0.0167526
0.00689391
0.0155736
0.00922149
0.0120667
0.00974106
0.00736271
0.00823986
0.00324946
0.00550783
0.000836701
0.00281584
-0.00015489
0.00111696
-0.000553539
0.000373736
-0.000725916
8.97236e-05
-0.000777919
-4.53131e-05
-0.00078207
-3.83452e-05
-0.000814864
9.74013e-05
-0.000922247
0.000294852
-0.00107844
0.00043556
-0.00121485
0.000324849
-0.0011831
-0.000170248
-0.00081606
-0.00122748
3.99616e-05
-0.00272175
0.00117797
-0.00370908
0.00223592
-0.0033645
0.00290382
-0.0020053
0.00306764
-0.000380745
0.00271549
0.00121772
0.00168964
0.00285619
-0.000107398
0.00508538
-0.0016499
0.00543396
-0.00226664
0.00299048
-0.00231281
0.000492127
-0.00187746
-0.00113981
-0.00106615
-0.0023561
8.09692e-05
-0.00334526
0.00150047
-0.00430174
0.00314534
-0.00503405
0.00494434
-0.00560109
0.00687696
-0.00592946
0.0088151
-0.00596307
0.0106546
-0.00524537
-0.00418397
0.0121839
0.0139974
-0.0110359
-0.0111553
0.0162973
-0.00356752
0.0180507
0.00167592
0.0196174
0.00532834
0.0205615
0.00827766
0.0197349
0.0105686
0.0165034
0.0114724
0.0115696
0.0104426
0.00654923
0.0078367
0.00291584
0.0047513
0.000973643
0.00231793
9.98935e-05
0.00096731
-0.000302724
0.000358197
-0.000469432
0.000129704
-0.000556402
0.000183942
-0.000694171
0.000431315
-0.00091974
0.000662803
-0.00117448
0.000582282
-0.0012869
-5.20073e-05
-0.00104121
-0.00147463
-0.000220746
-0.00353935
0.00102106
-0.00495089
0.00227762
-0.00462176
0.00311249
-0.00284369
0.0033238
-0.0005974
0.00283246
0.00171137
0.00148132
0.0042087
-0.000471561
0.00703979
-0.0019002
0.00686271
-0.00248299
0.00357484
-0.00251379
0.000521133
-0.00200446
-0.00165
-0.00105356
-0.00331002
0.000292179
-0.00469482
0.00196061
-0.00597458
0.00390045
-0.00698
0.00603466
-0.00774114
0.00834163
-0.00824241
0.0106793
-0.00830432
0.0129752
-0.00754059
-0.00620038
0.0149916
0.0158045
-0.014121
-0.0127147
0.0185318
-0.00629669
0.0206605
-0.000450939
0.0223572
0.00362891
0.0238946
0.0067393
0.0249909
0.009472
0.0245832
0.0118792
0.0217694
0.0132561
0.0167923
0.0128138
0.011051
0.0104946
0.00616971
0.00720249
0.0029747
0.00416921
0.00128126
0.00206205
0.000466739
0.000958589
8.18819e-05
0.000586003
-0.000164563
0.000697679
-0.00047507
0.000995493
-0.000883255
0.00101172
-0.00123086
0.000318693
-0.00124626
-0.00143981
-0.000613436
-0.00415242
0.000634208
-0.00618343
0.00208905
-0.00606332
0.00314227
-0.00388709
0.00343409
-0.000878426
0.00277315
0.00237897
0.00109892
0.00589003
-0.000877788
0.00902221
-0.00211199
0.00810419
-0.00266177
0.00413195
-0.00267419
0.000543532
-0.00210123
-0.00221503
-0.0010191
-0.00438268
0.000524412
-0.00623225
0.00245133
-0.00789406
0.00470646
-0.00923358
0.0072072
-0.0102393
0.00993387
-0.0109728
0.0127331
-0.0111053
0.0155644
-0.0103772
-0.00881888
0.0181762
0.0180462
-0.0175791
-0.0145916
0.0211548
-0.00940416
0.0237571
-0.0030594
0.0258071
0.00157702
0.0274136
0.00513327
0.028882
0.00800382
0.0301111
0.0106517
0.0301615
0.0132067
0.0279085
0.0150692
0.0231426
0.0152626
0.0169092
0.0134398
0.0108089
0.0102735
0.00615142
0.00672387
0.00329182
0.00382339
0.00180589
0.00207818
0.00105296
0.00145834
0.000512805
0.00154505
-9.86092e-05
0.00163462
-0.000771264
0.00100052
-0.00122163
-0.000983062
-0.00101324
-0.00435601
3.18375e-05
-0.00722426
0.00160408
-0.00763313
0.00291002
-0.00519208
0.00332268
-0.00129298
0.00249709
0.00320816
0.000597897
0.00779206
-0.00122493
0.0108495
-0.0022216
0.00910328
-0.00272619
0.00464145
-0.00271862
0.000537727
-0.00209708
-0.00283218
-0.000902288
-0.00557721
0.000826664
-0.00795858
0.00300811
-0.0100783
0.00558701
-0.0118129
0.00847472
-0.0131331
0.0116594
-0.0141606
0.0149787
-0.0144315
0.0184206
-0.0138221
-0.0121419
0.0217362
0.020813
-0.0215474
-0.0168421
0.0243547
-0.0129507
0.0274006
-0.00611099
0.029927
-0.000946451
0.0318907
0.00316916
0.0333892
0.0065103
0.0347471
0.00929405
0.03605
0.0119059
0.036546
0.014572
0.0349865
0.0168235
0.0307032
0.0177214
0.0242231
0.0167524
0.0170611
0.0138875
0.0108425
0.0100448
0.00650195
0.00642328
0.0040064
0.0039636
0.00263532
0.00292906
0.00160058
0.00268479
0.000514786
0.00210203
-0.000547003
9.56825e-05
-0.00109228
-0.00379497
-0.000619473
-0.00768317
0.00082261
-0.00906524
0.00234723
-0.0067099
0.00293578
-0.00187317
0.00203457
0.00411685
0.000136219
0.00969509
-0.00134534
0.0123378
-0.0021062
0.00986807
-0.00255076
0.00509211
-0.00252502
0.000515496
-0.00187902
-0.00347374
-0.000603928
-0.00685135
0.00127673
-0.00983813
0.00368759
-0.0124915
0.00657358
-0.0147021
0.0098492
-0.0164142
0.0135082
-0.0178258
0.0173928
-0.0183226
0.0215047
-0.0179409
-0.0162612
0.0256155
0.024196
-0.0261932
-0.0195484
0.0282906
-0.0170581
0.0318232
-0.00963812
0.0348063
-0.00393494
0.0372509
0.000734203
0.0391188
0.00464068
0.0404954
0.00792029
0.0417008
0.0106952
0.0429903
0.013283
0.0438632
0.0159455
0.0430778
0.018504
0.0395231
0.0203089
0.033168
0.0202452
0.0252193
0.0179982
0.0174654
0.0141846
0.0113973
0.01004
0.00750272
0.00683561
0.00513612
0.00506277
0.00330952
0.00393976
0.00147757
0.00193739
-0.000168412
-0.00213798
-0.000804749
-0.00703873
-1.61218e-05
-0.00984605
0.00151374
-0.00823376
0.00233504
-0.00268899
0.00158285
0.00487214
1.36544e-05
0.011272
-0.000997563
0.0133522
-0.0015471
0.0104251
-0.00192528
0.00547282
-0.00189428
0.000490922
-0.00126189
-0.00410603
3.92194e-05
-0.00814916
0.00200789
-0.0118106
0.00458536
-0.0150704
0.00772243
-0.0178469
0.0113451
-0.020043
0.0154547
-0.0219459
0.0199102
-0.022787
0.0247177
-0.0227591
-0.0212339
0.0296802
0.0283079
-0.0317113
-0.0228001
0.0331227
-0.0218687
0.0372306
-0.0137537
0.0407198
-0.00741431
0.0436122
-0.00215959
0.0459501
0.00230714
0.0477149
0.00615055
0.0489679
0.00944227
0.0499968
0.0122497
0.0511726
0.0147663
0.0523063
0.0173729
0.0522992
0.0203175
0.0497291
0.0228194
0.0439437
0.0237882
0.0356398
0.0224894
0.0265607
0.0191225
0.0186345
0.0147624
0.0129181
0.0107785
0.00905392
0.00780825
0.00594583
0.00505137
0.00290282
0.000914536
0.000571511
-0.00469762
-0.000121872
-0.0091445
0.000829991
-0.00918106
0.00184124
-0.00369367
0.00157602
0.00514804
0.000680612
0.0121634
0.000185166
0.0138569
-0.00018442
0.0107907
-0.000506411
0.00580337
-0.000507302
0.000485959
5.37285e-05
-0.0046602
0.00129101
-0.00939598
0.00324435
-0.0137599
0.0058678
-0.0177074
0.00914213
-0.021121
0.0130014
-0.0239177
0.0174704
-0.0264173
0.0224275
-0.0277584
0.0278918
-0.0282267
-0.0270607
0.0337061
0.0333094
-0.038315
-0.0267079
0.0390185
-0.0275801
0.0438614
-0.0185936
0.0479381
-0.0114883
0.0513276
-0.00554516
0.0541004
-0.000464353
0.0563112
0.00394048
0.0579702
0.00778392
0.0591028
0.011116
0.0599477
0.0139246
0.060932
0.0163906
0.0621732
0.0190794
0.0628621
0.0221353
0.0614618
0.0251851
0.0567455
0.0272053
0.0487212
0.027142
0.0388014
0.0246763
0.029098
0.020484
0.0211669
0.0157401
0.015113
0.0111125
0.00991894
0.00611845
0.00536561
-0.000132885
0.00221065
-0.00598134
0.00148464
-0.00844476
0.00226285
-0.0044559
0.00272595
0.00468365
0.00274894
0.0121518
0.00273463
0.0138624
0.00252375
0.0110115
0.00220883
0.00610689
0.00212163
0.000584622
0.00250839
-0.00506278
0.00356523
-0.0104406
0.00532695
-0.015542
0.00782599
-0.0201938
0.0110251
-0.0243432
0.0149324
-0.0278118
0.0195492
-0.0310558
0.0248352
-0.0330302
0.0307914
-0.0341976
-0.0336273
0.0373716
0.0393737
-0.0462754
-0.0314131
0.0462087
-0.0344147
0.0519682
-0.0243497
0.0567774
-0.0162935
0.0607546
-0.00951736
0.064006
-0.00371085
0.0666281
0.00132277
0.0686952
0.0057217
0.070234
0.00958096
0.0712568
0.0129071
0.0719246
0.0157257
0.0726741
0.0183358
0.0738481
0.0209576
0.0750509
0.0239806
0.0748934
0.0273578
0.0717337
0.0302947
0.0648168
0.0315942
0.0548845
0.0304122
0.0438164
0.02681
0.0334136
0.0215163
0.0243015
0.0152325
0.0165638
0.00760764
0.00995582
0.00063215
0.00594502
-0.00442849
0.00523431
-0.003729
0.00614318
0.00378167
0.00704576
0.0112501
0.00746815
0.0134426
0.00734795
0.0111278
0.00697016
0.00648878
0.00666552
0.000880939
0.00674468
-0.0051332
0.0073941
-0.0111031
0.00875402
-0.0168901
0.0108364
-0.0222937
0.0137007
-0.0271917
0.0173075
-0.0314374
0.0217663
-0.0354948
0.0270018
-0.0382788
0.0331291
-0.0403023
-0.0406276
0.0401275
0.0467293
-0.0559152
-0.0370868
0.0549641
-0.0426485
0.0618687
-0.0312499
0.0675931
-0.0220151
0.0722946
-0.0142128
0.0761148
-0.00752642
0.0791897
-0.00174591
0.0816306
0.00328638
0.0835292
0.00768829
0.0849309
0.0115111
0.085843
0.0148186
0.0863669
0.0178137
0.0868606
0.0204632
0.0878215
0.0230188
0.0892756
0.0258992
0.0902398
0.0293313
0.0889577
0.0328709
0.083978
0.0353902
0.0751025
0.0356818
0.0634763
0.0331358
0.0507247
0.0279769
0.0388452
0.0194825
0.0278618
0.0116031
0.0188721
0.00458483
0.0141817
0.000951498
0.0138525
0.00413845
0.0149693
0.0101215
0.0156339
0.0127957
0.0154844
0.0112625
0.0148781
0.00711237
0.0141491
0.00159583
0.0136429
-0.00461063
0.0135732
-0.0110486
0.0141414
-0.0174436
0.0154114
-0.0235782
0.0174804
-0.0292487
0.0203486
-0.0343174
0.0241183
-0.0392518
0.0287732
-0.0429406
0.0344208
-0.0459332
-0.0473214
0.0411138
0.0556527
-0.0676254
-0.0439387
0.0656182
-0.0526143
0.0739454
-0.0395715
0.0808106
-0.0288791
0.0864138
-0.0198092
0.0909319
-0.0120421
0.0945461
-0.00535301
0.0974018
0.000434306
0.0996312
0.00546573
0.101332
0.00981524
0.102574
0.0135823
0.103379
0.0170135
0.103788
0.0200574
0.104054
0.0227548
0.104692
0.0252622
0.106079
0.0279432
0.107771
0.0311773
0.108275
0.0348838
0.105708
0.0382416
0.0988678
0.0399671
0.0878074
0.0390319
0.07459
0.0326872
0.0604979
0.0257056
0.0466499
0.0184178
0.0356557
0.0119858
0.0303429
0.00943611
0.0293262
0.0111726
0.0292323
0.0128675
0.0286592
0.0118695
0.0274467
0.00829629
0.0259826
0.00310085
0.0244333
-0.00310081
0.0232046
-0.00977459
0.0223672
-0.0166549
0.0222278
-0.023392
0.0227501
-0.0298253
0.0241746
-0.0356956
0.0264205
-0.0415516
0.0296904
-0.0461666
0.0338774
-0.0501556
-0.0525872
0.0391662
0.066484
-0.0818799
-0.0522253
0.0785822
-0.0647138
0.0886676
-0.0496503
0.0969488
-0.0371607
0.103675
-0.026527
0.109061
-0.0174279
0.113338
-0.00962179
0.116686
-0.00291264
0.119288
0.00287154
0.121266
0.00783973
0.122744
0.0121109
0.123808
0.0159527
0.124495
0.0193756
0.12481
0.0224433
0.124893
0.0251831
0.125164
0.0276756
0.126167
0.030175
0.127978
0.0330714
0.129644
0.0365725
0.129311
0.0402992
0.125074
0.0432661
0.116581
0.0411823
0.104519
0.0377668
0.0899774
0.0329761
0.0748138
0.0271556
0.0627089
0.0215614
0.0557424
0.0181418
0.0521797
0.0164468
0.0496159
0.0144292
0.0469747
0.0109551
0.0440255
0.00603918
0.0408888
5.51718e-05
0.0377145
-0.00662189
0.0347738
-0.0136963
0.0322104
-0.0208585
0.0302593
-0.0278596
0.0289857
-0.0344599
0.0285546
-0.0411103
0.0290159
-0.0466585
0.0304504
-0.0515907
-0.0550532
0.0328981
0.07964
-0.0992543
-0.0622607
0.0943591
-0.0794354
0.106611
-0.0618939
0.116643
-0.0471951
0.124762
-0.0346366
0.131229
-0.0238962
0.136332
-0.014715
0.140288
-0.0068707
0.143335
-0.000167087
0.145628
0.00554546
0.14733
0.0104159
0.148557
0.0147255
0.14942
0.0185169
0.149962
0.0219026
0.150189
0.024961
0.150139
0.0277293
0.150075
0.0302438
0.150507
0.0326436
0.151844
0.0352386
0.153774
0.0383733
0.154952
0.0420912
0.153508
0.0426357
0.148497
0.0427813
0.139647
0.0418413
0.12731
0.0394977
0.113327
0.0355657
0.100698
0.0307714
0.091023
0.0261414
0.0836513
0.021795
0.0774317
0.017197
0.0715056
0.0119505
0.0655843
0.00599766
0.0594865
-0.000550124
0.0533479
-0.00753861
0.0472481
-0.0147956
0.0414665
-0.022065
0.036065
-0.0291011
0.0312123
-0.0362445
0.0270148
-0.0425016
0.0236476
-0.0482063
-0.0526268
0.0212033
0.0956256
-0.12045
-0.0744239
0.113562
-0.0973754
0.128478
-0.0768013
0.140673
-0.0593933
0.150517
-0.0444708
0.158329
-0.0317118
0.164461
-0.020837
0.169179
-0.0115941
0.172775
-0.0037542
0.175449
0.00286671
0.17741
0.0084617
0.178797
0.0133344
0.179759
0.0175597
0.180388
0.021272
0.180764
0.0245891
0.180886
0.0276076
0.180749
0.030386
0.180445
0.0329496
0.180328
0.0353597
0.180901
0.0378058
0.182378
0.0406174
0.183975
0.0410476
0.184676
0.0420822
0.183343
0.0431888
0.17887
0.043971
0.170775
0.0436805
0.159783
0.0417607
0.14766
0.0382892
0.135717
0.033729
0.124472
0.0284699
0.113715
0.0226928
0.10325
0.0164884
0.0927437
0.00993403
0.0820813
0.0031458
0.0711653
-0.00391014
0.0601846
-0.0110583
0.0491731
-0.0181236
0.0382476
-0.0252763
0.0275849
-0.0318605
0.0174335
-0.0380019
-0.0431433
0.00794459
0.104224
-0.143878
-0.0807912
0.12404
-0.117194
0.140511
-0.0932633
0.153967
-0.0728519
0.164812
-0.0553064
0.173401
-0.0403042
0.180118
-0.027545
0.185264
-0.0167443
0.189153
-0.0076345
0.192014
7.69889e-07
0.194081
0.0064002
0.195516
0.0118955
0.196481
0.0165982
0.197082
0.0206682
0.19743
0.0242436
0.197588
0.0274477
0.197588
0.0303887
0.197395
0.0331428
0.197004
0.0357513
0.196569
0.0382435
0.196468
0.0407186
0.196953
0.0405677
0.198136
0.0408988
0.199747
0.0415859
0.20096
0.0427566
0.200511
0.0441428
0.197217
0.0450508
0.190733
0.0447916
0.181393
0.0430618
0.169996
0.0398874
0.157204
0.0354743
0.143604
0.0301065
0.129448
0.0240739
0.114864
0.0177431
0.0998473
0.0110817
0.084498
0.00430509
0.0687993
-0.00245626
0.0526987
-0.00915159
0.0364298
-0.0156257
0.0201976
-0.0217341
-0.0271807
0.00422268
0.111464
-0.169226
-0.0861102
0.1329
-0.138633
0.150714
-0.11107
0.165265
-0.0874058
0.176981
-0.0670158
0.186253
-0.0495792
0.193486
-0.0347715
0.199012
-0.0222755
0.203165
-0.011782
0.206196
-0.00303623
0.208361
0.00423922
0.209839
0.0104126
0.210807
0.0156327
0.211381
0.0200887
0.211682
0.0239439
0.211786
0.0273397
0.211772
0.0304031
0.211667
0.033245
0.211457
0.0359604
0.21109
0.0386091
0.210584
0.041223
0.210016
0.0411372
0.209743
0.0411692
0.210164
0.0411695
0.211493
0.0414256
0.213451
0.0421923
0.215063
0.0434383
0.215098
0.0447686
0.21253
0.0456304
0.206857
0.0455756
0.197992
0.0443412
0.18628
0.0418357
0.17223
0.0381278
0.156384
0.0336058
0.139245
0.0282263
0.121204
0.0223695
0.102464
0.0162905
0.0829311
0.0104207
0.0629561
0.00436379
0.0427008
-0.00141922
-0.00691264
0.0224543
0.119404
-0.196653
-0.0919814
0.142598
-0.161822
0.161864
-0.130337
0.177611
-0.10315
0.190279
-0.0796833
0.200306
-0.0596062
0.208115
-0.0425781
0.214076
-0.0282386
0.218538
-0.016242
0.22178
-0.0062825
0.224074
0.00194638
0.225622
0.00886121
0.226611
0.0146438
0.227177
0.0195184
0.227446
0.0236728
0.227507
0.0272747
0.227441
0.0304666
0.227308
0.0333751
0.227149
0.0361156
0.226964
0.0387912
0.226704
0.0414793
0.226192
0.0416488
0.22551
0.041848
0.224859
0.0418206
0.224606
0.0416777
0.225174
0.0416268
0.226688
0.041924
0.228753
0.0427072
0.230496
0.0438902
0.230886
0.0451903
0.228996
0.046236
0.224151
0.0466863
0.216013
0.0462711
0.204563
0.0450622
0.190141
0.0426544
0.173274
0.0392452
0.154535
0.0350369
0.134131
0.0308381
0.112713
0.0257879
0.0905415
0.0207763
0.0156061
0.068029
0.128072
-0.226307
-0.0984026
0.153149
-0.186912
0.174004
-0.15118
0.191035
-0.120193
0.204755
-0.0933913
0.215599
-0.0704618
0.224055
-0.051023
0.230494
-0.0346886
0.235317
-0.0210556
0.238803
-0.00978002
0.241265
-0.000507135
0.242901
0.00721297
0.243939
0.0136122
0.244507
0.0189398
0.244764
0.02342
0.24479
0.0272393
0.244691
0.0305672
0.244516
0.0335423
0.244335
0.0362955
0.244182
0.0389398
0.244077
0.0415815
0.243833
0.0418897
0.243449
0.0422285
0.2429
0.0423678
0.242238
0.0423354
0.241694
0.0421701
0.241633
0.0419819
0.242392
0.0419474
0.244036
0.0422451
0.246265
0.0429595
0.248458
0.044043
0.249817
0.0453266
0.249534
0.046554
0.246889
0.0477106
0.24136
0.0481831
0.232742
0.0478735
0.221094
0.0466839
0.206486
0.0454607
0.189409
0.0428634
0.170172
0.0400267
0.0365546
0.149224
0.137478
-0.258388
-0.105401
0.164612
-0.214045
0.187166
-0.173738
0.205612
-0.138635
0.220456
-0.108237
0.232214
-0.0822154
0.241362
-0.0601733
0.24835
-0.0416719
0.253561
-0.026269
0.257346
-0.0135601
0.259988
-0.00315251
0.261758
0.00544842
0.262851
0.0125166
0.263453
0.0183417
0.263697
0.0231735
0.26371
0.0272294
0.263579
0.0306977
0.263383
0.0337395
0.263181
0.0364984
0.263022
0.0390996
0.262948
0.0416568
0.262806
0.042033
0.262644
0.0423922
0.262442
0.0425707
0.262158
0.0426233
0.261765
0.0425643
0.261349
0.0424019
0.261125
0.042173
0.261408
0.0419678
0.262465
0.0419053
0.264417
0.0420993
0.267139
0.0426108
0.270286
0.0434187
0.273335
0.0446711
0.275674
0.0458644
0.276672
0.0468864
0.275844
0.0475375
0.272758
0.0485648
0.267271
0.0483725
0.259329
0.0479864
0.0467793
0.249116
0.14768
-0.293066
-0.112989
0.177025
-0.243398
0.201433
-0.198143
0.221399
-0.158603
0.237478
-0.124314
0.250218
-0.0949552
0.26014
-0.0700937
0.26772
-0.0492503
0.273378
-0.0319265
0.277487
-0.0176667
0.280356
-0.00602238
0.282272
0.00353498
0.283454
0.0113345
0.284097
0.0177008
0.284354
0.0229174
0.284356
0.0272288
0.284207
0.0308478
0.283993
0.0339553
0.283781
0.0367117
0.283626
0.0392557
0.283574
0.0417109
0.283466
0.0421421
0.283378
0.0424842
0.283331
0.0426195
0.283335
0.0426244
0.283355
0.0425458
0.283363
0.0424017
0.283345
0.0421942
0.283393
0.0419306
0.283666
0.0416372
0.284414
0.0413643
0.285853
0.0411773
0.288157
0.0411306
0.291348
0.0414865
0.295318
0.0419115
0.299778
0.0424347
0.30438
0.0429501
0.308751
0.0441984
0.312456
0.0446759
0.315152
0.0452942
0.0453504
0.316583
0.158711
-0.330579
-0.121209
0.190461
-0.275141
0.216866
-0.224556
0.238489
-0.18022
0.255903
-0.141734
0.269719
-0.108766
0.28048
-0.0808598
0.288716
-0.0574802
0.294864
-0.0380793
0.299339
-0.0221369
0.302465
-0.00915269
0.304557
0.00144657
0.305846
0.0100408
0.306551
0.0169979
0.306832
0.0226335
0.306837
0.027224
0.306678
0.0310059
0.30645
0.0341818
0.306233
0.0369295
0.306084
0.0394007
0.306064
0.041733
0.305993
0.0422077
0.305957
0.0425234
0.30597
0.0425985
0.306083
0.0425153
0.306292
0.0423282
0.306618
0.0420801
0.307013
0.0417896
0.307478
0.0414697
0.307988
0.0411177
0.308619
0.0407385
0.309449
0.0403382
0.310654
0.0399317
0.312375
0.039756
0.314784
0.0395108
0.317929
0.0392803
0.321843
0.0390423
0.326478
0.039557
0.33166
0.0394969
0.337196
0.0397514
0.0396893
0.342856
0.170644
-0.371128
-0.130083
0.204979
-0.309485
0.233561
-0.253138
0.256968
-0.203629
0.275843
-0.160607
0.290821
-0.123744
0.302508
-0.092545
0.311454
-0.066426
0.318151
-0.0447745
0.323025
-0.0270116
0.326448
-0.0125727
0.328735
-0.00084123
0.330158
0.00861928
0.330937
0.0162191
0.331258
0.0223132
0.331274
0.0272083
0.331113
0.0311687
0.330877
0.0344188
0.330652
0.0371549
0.330512
0.0395433
0.330512
0.0417335
0.330482
0.0422415
0.330487
0.0425166
0.330566
0.0425244
0.330733
0.0423468
0.331026
0.042041
0.331451
0.0416516
0.332037
0.0412104
0.332761
0.0407421
0.333627
0.0402591
0.334597
0.0397662
0.335682
0.0392617
0.336874
0.0387364
0.338242
0.0383976
0.339825
0.0379256
0.341724
0.0373911
0.34399
0.0367723
0.346748
0.0368096
0.349982
0.0362575
0.353746
0.035997
0.0354707
0.35796
0.183522
-0.414993
-0.139667
0.22067
-0.346628
0.251602
-0.284073
0.276953
-0.228979
0.297408
-0.181062
0.313657
-0.139992
0.326349
-0.105237
0.336078
-0.076155
0.343374
-0.0520699
0.348698
-0.0323351
0.352447
-0.016321
0.354961
-0.00335673
0.356536
0.00704575
0.357408
0.0153467
0.357779
0.021942
0.357817
0.0271711
0.357657
0.0313287
0.357417
0.0346612
0.357186
0.0373864
0.357048
0.0396841
0.357062
0.0417192
0.357056
0.0422525
0.357096
0.0424765
0.357222
0.0424045
0.357443
0.0421255
0.357794
0.0416979
0.358276
0.0411693
0.358922
0.0405716
0.359727
0.0399355
0.360714
0.0392789
0.361861
0.0386172
0.363173
0.0379551
0.364616
0.0372894
0.366199
0.0368186
0.367888
0.0362286
0.369705
0.0355774
0.371633
0.0348347
0.373738
0.0347063
0.375999
0.0339849
0.378479
0.0335175
0.0327828
0.381156
0.197431
-0.462418
-0.149995
0.237614
-0.386824
0.271101
-0.317555
0.298556
-0.256437
0.320731
-0.203235
0.338361
-0.157623
0.35215
-0.119025
0.362736
-0.0867418
0.37069
-0.0600245
0.37651
-0.0381547
0.380621
-0.0204346
0.383395
-0.00613049
0.385141
0.0052962
0.386127
0.0143629
0.386558
0.0215055
0.386628
0.0271033
0.386473
0.0314781
0.386232
0.0349061
0.385989
0.0376214
0.385854
0.0398259
0.385871
0.0416928
0.385881
0.0422496
0.385934
0.0424128
0.386093
0.0422534
0.386345
0.0418617
0.386743
0.0413063
0.387266
0.0406342
0.387959
0.0398845
0.388796
0.0390855
0.389819
0.0382611
0.390996
0.0374261
0.392363
0.0365931
0.393877
0.0357604
0.395574
0.0351273
0.397398
0.034391
0.399368
0.0336119
0.401432
0.0327577
0.403633
0.0325086
0.40591
0.0316971
0.408293
0.0311356
0.0303239
0.410742
0.212429
-0.513731
-0.161128
0.255918
-0.430304
0.292165
-0.353809
0.321911
-0.286182
0.345952
-0.227277
0.365087
-0.176759
0.380072
-0.134011
0.391596
-0.0982657
0.400272
-0.0687008
0.406637
-0.0445198
0.411152
-0.0249497
0.414213
-0.00919209
0.416159
0.00335082
0.417268
0.0132522
0.417779
0.0209961
0.417881
0.0269989
0.417744
0.0316184
0.417492
0.0351553
0.417248
0.0378698
0.417092
0.039978
0.417118
0.0416727
0.417114
0.04225
0.417183
0.0423509
0.417335
0.0420968
0.417616
0.0415895
0.418019
0.0408991
0.418582
0.0400811
0.419287
0.0391754
0.420167
0.0382166
0.421196
0.0372279
0.422404
0.0362288
0.423763
0.0352309
0.425297
0.034237
0.426982
0.0334391
0.428832
0.0325496
0.430813
0.0316268
0.432935
0.0306436
0.435185
0.0302529
0.437552
0.0293352
0.440013
0.0286683
0.027777
0.442562
0.228618
-0.569231
-0.173114
0.275676
-0.477376
0.31493
-0.393058
0.347159
-0.318413
0.373231
-0.253349
0.394006
-0.197533
0.410295
-0.150302
0.422844
-0.110815
0.432312
-0.0781704
0.439278
-0.0514858
0.444239
-0.0299116
0.447621
-0.0125745
0.449788
0.0011828
0.451042
0.0119971
0.45164
0.0203992
0.451785
0.0268514
0.451662
0.031744
0.451405
0.0354104
0.451146
0.0381322
0.450973
0.0401484
0.450985
0.0416655
0.450965
0.0422666
0.45102
0.0423018
0.451162
0.0419511
0.451436
0.0413224
0.451836
0.0404938
0.4524
0.0395247
0.45311
0.0384605
0.453996
0.0373383
0.455033
0.0361853
0.456248
0.0350224
0.457609
0.0338639
0.45914
0.0327136
0.460815
0.0317584
0.462649
0.0307218
0.464608
0.0296615
0.466705
0.028552
0.46893
0.0280209
0.471274
0.0269939
0.473718
0.0262173
0.0252396
0.476256
0.246071
-0.629296
-0.186017
0.297019
-0.528313
0.339527
-0.435573
0.374459
-0.353342
0.402741
-0.28163
0.4253
-0.220094
0.443017
-0.168016
0.456683
-0.124486
0.467024
-0.0885078
0.474647
-0.0591147
0.480104
-0.035365
0.483838
-0.0163158
0.486257
-0.001232
0.487668
0.0105768
0.488369
0.0197044
0.488559
0.0266515
0.488456
0.0318539
0.488185
0.0356702
0.48791
0.0384157
0.487704
0.0403436
0.487693
0.0416849
0.487637
0.0423109
0.487666
0.0422818
0.487773
0.041831
0.488024
0.04108
0.488397
0.0401088
0.488943
0.038987
0.489629
0.0377606
0.490502
0.0364742
0.49152
0.0351546
0.492722
0.0338287
0.494064
0.0325096
0.49558
0.0312057
0.497231
0.0300956
0.499043
0.0289169
0.50097
0.0277238
0.503033
0.0264941
0.505215
0.0258285
0.507514
0.0246986
0.509904
0.0238176
0.0227584
0.512388
0.264906
-0.694294
-0.199904
0.320059
-0.583481
0.366116
-0.481623
0.403983
-0.391211
0.434672
-0.312318
0.459178
-0.2446
0.478448
-0.187287
0.493345
-0.139382
0.504633
-0.0997987
0.512988
-0.0674684
0.518982
-0.0413621
0.523117
-0.0204494
0.525804
-0.00392281
0.527405
0.00897745
0.528205
0.0188996
0.52846
0.0263991
0.52836
0.0319482
0.528088
0.0359456
0.527769
0.0387296
0.527534
0.0405821
0.527464
0.0417479
0.527371
0.042407
0.527332
0.0423126
0.527402
0.0417639
0.527585
0.0408871
0.527923
0.0397735
0.528404
0.038495
0.529062
0.0371061
0.529873
0.0356521
0.530866
0.0341664
0.532008
0.0326751
0.533326
0.0311964
0.534783
0.0297379
0.536408
0.0284746
0.538161
0.0271541
0.540057
0.025831
0.542058
0.024483
0.544202
0.0236866
0.546434
0.0224566
0.548777
0.0214758
0.0203384
0.551188
0.285211
-0.764674
-0.214843
0.344954
-0.643214
0.394856
-0.531534
0.435923
-0.432275
0.469234
-0.345625
0.495863
-0.27123
0.516834
-0.208255
0.533071
-0.155621
0.545406
-0.112132
0.554558
-0.0766222
0.561151
-0.0479557
0.565721
-0.0250201
0.568713
-0.00691756
0.570516
0.00717514
0.571437
0.0179749
0.57175
0.0260866
0.571664
0.0320309
0.57137
0.0362405
0.571006
0.0390879
0.570713
0.0408777
0.570575
0.0418781
0.570408
0.0425757
0.57029
0.0424216
0.570281
0.0417751
0.570384
0.0407739
0.570645
0.0395159
0.571048
0.0380806
0.571632
0.0365269
0.57237
0.034905
0.573291
0.0332508
0.574363
0.0315939
0.575611
0.0299542
0.576999
0.0283415
0.578554
0.0269243
0.580237
0.025463
0.582061
0.0240103
0.58399
0.0225455
0.586061
0.0216192
0.588218
0.020291
0.590485
0.0192117
0.0179975
0.592817
0.307123
-0.840882
-0.230913
0.37184
-0.707945
0.425941
-0.585629
0.470488
-0.476824
0.506656
-0.381792
0.535608
-0.300176
0.558432
-0.231084
0.576144
-0.173327
0.589619
-0.125614
0.599655
-0.0866524
0.6069
-0.0552106
0.611957
-0.0300699
0.61528
-0.0102521
0.617312
0.0051511
0.618359
0.0169154
0.618741
0.0257121
0.618657
0.032102
0.618338
0.0365664
0.617909
0.039504
0.617539
0.0412536
0.617303
0.0420993
0.617038
0.0428466
0.616807
0.0426367
0.61669
0.0418975
0.616677
0.040772
0.616828
0.039371
0.617117
0.0377769
0.617593
0.0360579
0.618221
0.0342657
0.619037
0.0324424
0.620003
0.030618
0.621147
0.0288166
0.622431
0.0270483
0.623885
0.0254771
0.625465
0.0238741
0.627189
0.0222916
0.629015
0.0207096
0.630986
0.0196535
0.633041
0.0182268
0.635207
0.0170496
0.0157579
0.637438
0.330753
-0.923449
-0.248195
0.4009
-0.778086
0.459561
-0.644301
0.507909
-0.525167
0.547196
-0.421077
0.578678
-0.331657
0.603539
-0.255943
0.622857
-0.192647
0.637596
-0.140352
0.648591
-0.0976507
0.656569
-0.0631892
0.662147
-0.0356521
0.665852
-0.0139571
0.668118
0.00287967
0.669321
0.015713
0.669755
0.0252703
0.669687
0.0321706
0.669311
0.0369334
0.668816
0.0399991
0.668328
0.0417311
0.667984
0.0424433
0.66757
0.0432484
0.667213
0.0429929
0.666934
0.0421634
0.666789
0.0409182
0.666774
0.0393733
0.666931
0.0376222
0.667242
0.0357359
0.667738
0.0337736
0.668392
0.0317787
0.669228
0.0297864
0.670215
0.027821
0.671371
0.0258965
0.67267
0.0241689
0.674124
0.0224235
0.675698
0.0207098
0.6774
0.0190102
0.679223
0.0178226
0.681155
0.0162972
0.683174
0.0150208
0.0136511
0.685284
0.356255
-1.01293
-0.26678
0.432304
-0.854147
0.49595
-0.707943
0.548435
-0.577658
0.591131
-0.46377
0.625383
-0.36591
0.652471
-0.28303
0.673555
-0.213733
0.689676
-0.156473
0.701733
-0.109711
0.710512
-0.0719681
0.716673
-0.0418182
0.720788
-0.0180727
0.723321
0.000340644
0.72468
0.0143546
0.725179
0.0247636
0.725106