/*--------------------------------*- C++ -*----------------------------------*\
| =========                 |                                                 |
| \\      /  F ield         | OpenFOAM: The Open Source CFD Toolbox           |
|  \\    /   O peration     | Version:  2312                                  |
|   \\  /    A nd           | Website:  www.openfoam.com                      |
|    \\/     M anipulation  |                                                 |
\*---------------------------------------------------------------------------*/
FoamFile
{
    version     2.0;
    format      ascii;
    arch        "LSB;label=32;scalar=64";
    class       volSymmTensorField;
    location    "200";
    object      turbulenceProperties:devReff;
}
// * * * * * * * * * * * * * * * * * * * * * * * * * * * * * * * * * * * * * //

dimensions      [0 2 -2 0 0 0 0];

internalField   nonuniform List<symmTensor> 
11040
(
(0.0196982 0.0484016 6.87677e-22 -0.0246005 1.87825e-22 0.00490224)
(0.0806233 0.0612042 9.95898e-21 -0.0951101 7.25974e-20 0.0144867)
(0.101112 0.0341775 5.28407e-20 -0.110616 2.35974e-19 0.0095036)
(0.0179345 0.00229673 -2.40549e-20 -0.0168172 1.60737e-20 -0.00111726)
(0.00183168 0.000881265 -2.9675e-21 -0.00194313 2.14804e-20 0.000111448)
(-0.0130244 0.0125556 -1.41617e-19 0.0135301 7.33303e-20 -0.000505709)
(-0.0281885 0.0321207 1.12059e-19 0.0301613 -8.21155e-19 -0.00197283)
(-0.0300533 0.0400875 1.77366e-19 0.0316749 -8.02442e-20 -0.00162161)
(-0.0252283 0.0388494 8.09426e-20 0.0265071 -2.19985e-20 -0.00127881)
(-0.0203945 0.0352213 7.03804e-20 0.0217253 1.14568e-19 -0.00133076)
(-0.0153005 0.0288515 -5.9401e-20 0.0167192 2.54753e-19 -0.00141873)
(-0.0102705 0.0204783 -8.01231e-20 0.0117799 1.61475e-19 -0.00150937)
(-0.0049913 0.0104345 6.43411e-21 0.00610329 -6.49012e-20 -0.00111199)
(-0.00325848 0.00785643 9.94762e-21 0.00421321 4.73688e-20 -0.000954732)
(-0.00214798 0.00782917 -4.40108e-21 0.00277533 1.12277e-20 -0.000627357)
(-0.0014169 0.0119038 -3.28183e-21 0.00149975 -9.41349e-20 -8.28554e-05)
(-0.000820029 0.0258987 3.84258e-20 -0.000160463 -7.76482e-21 0.000980492)
(-0.00045229 0.0402816 -3.65476e-21 -0.00135543 2.82378e-19 0.00180772)
(-0.00141285 0.0457751 -2.72801e-20 7.62891e-05 3.19357e-22 0.00133656)
(-0.00285648 0.0263727 3.11491e-21 0.00318764 -3.15866e-20 -0.000331165)
(-0.00624567 0.0091659 1.29593e-20 0.00805697 3.25758e-20 -0.0018113)
(-0.0114605 -0.0237903 -6.89377e-21 0.0144317 8.8868e-20 -0.00297121)
(-0.0150015 -0.0620542 -1.03489e-20 0.0173003 -6.37717e-20 -0.00229875)
(-0.0184578 -0.103949 9.43568e-21 0.0194781 1.49166e-19 -0.00102027)
(-0.017101 -0.114207 -6.31256e-20 0.0173302 -1.45267e-19 -0.000229197)
(-0.0127081 -0.0934135 -2.54775e-20 0.0130069 -3.1572e-19 -0.000298766)
(-0.0087108 -0.0620964 -8.58911e-21 0.00942539 -1.38541e-19 -0.000714594)
(-0.00196638 -0.0306213 -1.40021e-20 0.00276399 -1.77323e-20 -0.000797604)
(0.00713915 0.00636686 -7.90852e-21 -0.00740333 -7.14077e-20 0.000264173)
(0.0318626 0.0785797 1.20235e-20 -0.0332939 -2.55163e-19 0.0014313)
(0.0355502 0.123016 7.88983e-20 -0.0352104 2.45708e-19 -0.000339712)
(0.027789 0.117402 -2.67028e-20 -0.0261504 3.8948e-20 -0.00163853)
(0.0159743 0.0879233 2.08872e-20 -0.0132318 4.92415e-19 -0.00274245)
(0.00257142 0.0558312 -4.46279e-20 0.00129798 2.71236e-19 -0.0038694)
(-0.0161799 0.0100069 -1.16341e-20 0.0210458 -9.64063e-21 -0.00486591)
(-0.0404627 -0.0488559 6.29417e-20 0.0453324 2.13976e-19 -0.00486967)
(-0.0702087 -0.120182 -3.60968e-20 0.074906 3.19931e-20 -0.00469734)
(-0.115892 -0.223811 1.57281e-20 0.120482 5.17922e-20 -0.00459006)
(-0.19285 -0.387822 -2.07929e-19 0.197658 -8.25821e-20 -0.00480777)
(-0.270822 -0.575769 -4.59609e-20 0.275896 -9.98617e-20 -0.00507413)
(-0.290573 -0.59228 4.95189e-20 0.290851 -1.25494e-20 -0.000277797)
(0.00539307 -0.00605212 -1.0637e-22 -0.00418642 -5.76798e-22 -0.00120665)
(0.00549739 -0.00764925 1.19197e-20 -0.00202027 2.00709e-21 -0.00347712)
(0.0324014 -0.000305231 -7.55021e-20 -0.0262442 -2.60468e-19 -0.00615713)
(0.081035 0.00848044 4.06446e-21 -0.0835404 -8.03868e-20 0.00250535)
(0.0900569 -0.00871311 1.80209e-20 -0.0913401 -1.11886e-19 0.0012832)
(0.211371 -0.0725728 3.71012e-19 -0.215026 -1.02925e-18 0.003655)
(0.155436 -0.11087 -8.32446e-19 -0.165631 3.20067e-18 0.0101948)
(0.0659656 -0.0678473 -9.4343e-19 -0.0687211 2.50255e-18 0.0027555)
(0.0342278 -0.0435887 -7.48355e-20 -0.038812 -3.09271e-19 0.00458416)
(0.0181811 -0.0261322 -1.14036e-19 -0.023358 3.95273e-20 0.00517697)
(0.0103279 -0.0167928 5.16358e-19 -0.0162987 -1.29856e-18 0.00597079)
(0.0056558 -0.0099241 2.6821e-20 -0.0115227 -6.24806e-20 0.00586691)
(0.00285995 -0.00656597 -1.78721e-19 -0.00714596 7.56753e-19 0.00428602)
(0.00140542 -0.0056954 -9.98094e-20 -0.00285113 9.75941e-20 0.00144571)
(0.00103801 -0.00584256 -6.06768e-20 0.0006644 -2.61514e-19 -0.00170241)
(0.00153005 -0.00577649 6.4859e-21 0.0021881 7.277e-19 -0.00371815)
(0.00221048 -0.00637344 -1.86547e-20 0.00121383 2.46479e-19 -0.00342431)
(0.00205417 -0.00860383 -7.84882e-21 -0.0013063 -6.79653e-19 -0.000747867)
(-0.000371754 -0.0106426 -3.02539e-20 -0.00330504 -3.23106e-20 0.0036768)
(-0.00704408 -0.0134735 -7.25533e-21 -0.000754778 1.23924e-19 0.00779886)
(-0.0183514 -0.0188373 -1.16562e-20 0.00909532 -9.3102e-20 0.00925605)
(-0.0286222 -0.0215331 2.64385e-21 0.022298 -4.50297e-19 0.00632414)
(-0.0254326 -0.0164327 8.09147e-20 0.023464 4.15357e-19 0.00196864)
(-0.0138821 -0.00962986 -2.24954e-20 0.0138235 -3.39377e-19 5.85852e-05)
(-0.00318866 -0.00911848 1.35647e-20 0.00305422 2.52395e-19 0.000134444)
(0.00390806 -0.0162146 2.3654e-20 -0.00464129 7.04147e-19 0.000733225)
(0.0110391 -0.0211441 7.81169e-20 -0.0128401 3.94695e-19 0.00180103)
(0.0328793 -0.00422775 8.4453e-20 -0.0327965 2.75788e-19 -8.27949e-05)
(0.0436638 0.0277969 -2.90555e-20 -0.0405878 3.59255e-19 -0.00307599)
(0.0290055 0.00570945 7.8922e-20 -0.0282818 5.25788e-19 -0.000723671)
(-0.00312888 -0.0309928 -5.31003e-20 -0.00214034 -9.22332e-19 0.00526922)
(-0.0253936 -0.050559 1.23575e-19 0.0161509 -1.21087e-18 0.00924273)
(-0.0458819 -0.0633454 -1.5558e-20 0.033175 -2.44159e-18 0.0127069)
(-0.0661596 -0.0749145 5.93487e-21 0.0505153 -1.14063e-18 0.0156443)
(-0.0883692 -0.0857236 4.78344e-20 0.0721234 7.82021e-20 0.0162458)
(-0.108519 -0.092018 -3.85925e-19 0.094134 -1.24461e-18 0.0143853)
(-0.122724 -0.0889697 3.27359e-19 0.11187 -1.63131e-19 0.010854)
(-0.131243 -0.0879367 -4.0773e-19 0.124048 -9.12894e-20 0.00719585)
(-0.137515 -0.0916186 2.55097e-19 0.133135 3.40561e-19 0.00438007)
(-0.119371 -0.0980625 3.90078e-19 0.120312 2.45894e-19 -0.000941009)
(-0.112176 -0.156269 -8.57719e-19 0.0939446 1.34532e-19 0.0182313)
(0.00257595 -0.00369044 -2.99225e-22 -0.00257194 -5.91545e-22 -4.00991e-06)
(-0.00116066 -0.00326836 -1.01567e-20 0.000957959 -1.64229e-20 0.000202702)
(-0.000625727 -0.0019952 2.03185e-20 0.000734128 4.72449e-20 -0.000108401)
(0.0137172 0.000828649 7.26218e-20 -0.0131731 7.72235e-20 -0.000544081)
(0.040546 0.000591468 -7.29297e-21 -0.0407122 -1.05537e-20 0.000166201)
(0.164545 -0.0241441 -4.59476e-20 -0.167369 2.46829e-19 0.00282439)
(0.292907 -0.097138 2.07203e-19 -0.29253 1.73194e-19 -0.000376454)
(0.257595 -0.163653 2.63883e-19 -0.261468 -1.62357e-18 0.00387362)
(0.129752 -0.138543 -2.62343e-19 -0.129591 -1.22654e-19 -0.000160987)
(0.0650603 -0.0952229 2.97008e-19 -0.0623374 -7.89251e-19 -0.00272298)
(0.0328875 -0.0653753 -5.72105e-19 -0.0330955 1.34183e-18 0.000208003)
(0.0153359 -0.0411944 7.80361e-19 -0.0185237 -2.35598e-18 0.00318781)
(0.00759111 -0.0252323 1.3632e-20 -0.0126597 -7.61923e-20 0.00506856)
(0.00662752 -0.0189622 1.15929e-19 -0.0114524 -1.02105e-18 0.00482489)
(0.00854726 -0.0195062 5.1262e-20 -0.0103831 1.03046e-18 0.00183588)
(0.010443 -0.0238002 -7.64889e-20 -0.00802719 -3.90953e-19 -0.00241578)
(0.00937878 -0.0270363 -1.54209e-21 -0.00424696 -6.44255e-19 -0.00513181)
(0.00366893 -0.026217 5.30688e-20 0.000880579 -4.97127e-19 -0.0045495)
(-0.00811291 -0.0223649 2.20782e-20 0.00936125 -2.90934e-20 -0.00124834)
(-0.0266198 -0.0166068 1.96163e-20 0.0237739 3.36722e-20 0.00284587)
(-0.0491271 -0.00732102 1.13444e-20 0.0439597 8.92569e-20 0.00516745)
(-0.0643896 0.00350806 -8.80526e-21 0.0608822 1.36409e-19 0.00350745)
(-0.0534097 0.010058 -5.20365e-20 0.0526536 -4.08951e-19 0.000756118)
(-0.0259841 0.0142577 -3.13102e-20 0.026065 -1.59938e-19 -8.09139e-05)
(-0.000907173 0.0176257 -2.4191e-20 0.000704072 -2.29335e-19 0.0002031)
(0.0184052 0.0191742 1.84859e-19 -0.018965 -1.63596e-19 0.000559798)
(0.0445504 0.0232376 -9.21868e-21 -0.0470087 1.74661e-19 0.00245836)
(0.100503 0.0528177 -2.08186e-19 -0.101026 -8.06518e-19 0.000523248)
(0.0890451 0.0322864 9.65193e-20 -0.0866461 9.58976e-20 -0.00239901)
(0.0363285 -0.0331454 1.72851e-19 -0.0352376 8.26797e-19 -0.00109095)
(-0.0201796 -0.0547745 -2.81952e-19 0.0192724 6.25237e-19 0.00090724)
(-0.0686741 -0.0677031 3.56563e-19 0.0671069 2.0832e-18 0.00156715)
(-0.114008 -0.0740716 4.02904e-20 0.110394 6.17011e-19 0.00361396)
(-0.154601 -0.0757133 -1.85475e-19 0.148359 4.58057e-19 0.00624174)
(-0.191685 -0.0721336 -2.25863e-19 0.184059 -3.72874e-19 0.00762564)
(-0.220743 -0.0644737 -2.6943e-19 0.212987 6.63714e-19 0.00775559)
(-0.242338 -0.0561827 -7.78852e-19 0.235402 -4.91183e-20 0.00693599)
(-0.251996 -0.0503021 1.36585e-18 0.246387 -1.80251e-19 0.00560881)
(-0.255254 -0.0536151 2.97288e-19 0.250085 -1.93055e-19 0.00516971)
(-0.218966 -0.063628 6.61635e-19 0.219484 -2.09489e-19 -0.00051837)
(-0.222143 -0.148059 1.55256e-18 0.218694 -7.09493e-20 0.00344863)
(0.00192513 -0.00252321 -8.33856e-23 -0.00193466 -7.0473e-22 9.52858e-06)
(-0.000181703 -0.00245522 -5.18384e-23 5.86018e-05 2.53733e-21 0.000123101)
(-0.00138652 -0.00167406 -1.23185e-20 0.00123178 -1.99845e-20 0.000154737)
(-0.00113089 -0.00110743 -2.61579e-20 0.00109035 -3.40173e-20 4.05411e-05)
(0.00370261 -1.38838e-05 7.38268e-21 -0.00358015 6.7539e-21 -0.00012246)
(0.0281866 -0.000714097 5.50853e-20 -0.0280824 3.85709e-20 -0.000104148)
(0.140259 -0.0221529 1.25633e-20 -0.14178 -1.94585e-19 0.00152057)
(0.303194 -0.0993878 2.60313e-19 -0.305309 -5.71511e-19 0.00211547)
(0.323069 -0.179057 -2.59022e-19 -0.325476 7.45619e-19 0.00240737)
(0.207853 -0.188412 1.35825e-19 -0.210611 2.33077e-19 0.00275782)
(0.106712 -0.141595 -1.53568e-19 -0.105238 1.12728e-18 -0.00147391)
(0.0540296 -0.0983241 -6.72645e-19 -0.0540389 1.15715e-18 9.30053e-06)
(0.0258543 -0.0653399 4.79343e-19 -0.0294786 -9.41556e-19 0.00362428)
(0.014755 -0.0457303 -3.294e-21 -0.0202602 8.77376e-19 0.00550517)
(0.0156194 -0.0398104 -1.58917e-19 -0.019463 -1.08039e-18 0.00384358)
(0.0213487 -0.0442137 -1.31524e-19 -0.0207742 -4.44272e-19 -0.000574487)
(0.0228824 -0.0481396 3.51391e-20 -0.018383 2.26062e-19 -0.00449938)
(0.0144296 -0.0447438 1.21535e-19 -0.00988277 1.53039e-20 -0.00454679)
(-0.00663169 -0.0334802 3.48515e-20 0.00769949 5.7966e-20 -0.0010678)
(-0.0394242 -0.0147328 -1.12087e-20 0.036722 -7.39745e-20 0.00270229)
(-0.0773185 0.0115987 -2.31639e-20 0.0732705 -1.56644e-19 0.00404795)
(-0.103246 0.0381085 -3.83583e-20 0.101447 -1.96759e-19 0.00179918)
(-0.0892762 0.0485483 -2.47421e-20 0.0903089 -9.39631e-20 -0.00103273)
(-0.043354 0.0498067 -8.4855e-20 0.0446075 1.03825e-19 -0.00125349)
(0.00291052 0.0487688 -1.83648e-19 -0.00284718 6.06052e-19 -6.33462e-05)
(0.043228 0.0532947 -3.89045e-19 -0.0442041 -5.64715e-19 0.000976016)
(0.102512 0.0712485 1.44018e-19 -0.105598 -4.04188e-19 0.00308544)
(0.183457 0.108348 1.84935e-19 -0.184201 8.8477e-19 0.000744007)
(0.136281 0.0305172 -3.31676e-20 -0.13468 2.96308e-19 -0.00160142)
(0.0478311 -0.0354865 -4.66198e-19 -0.0483827 -3.32945e-19 0.000551627)
(-0.0321382 -0.0591642 3.018e-19 0.0304064 -9.17055e-19 0.00173179)
(-0.114372 -0.0729277 -4.42273e-19 0.113009 4.96326e-19 0.00136251)
(-0.190493 -0.0697995 4.89413e-19 0.188329 -2.00852e-19 0.00216448)
(-0.257729 -0.0558538 2.82198e-19 0.25478 -6.46985e-19 0.00294929)
(-0.314796 -0.034394 8.29823e-21 0.310911 4.25565e-19 0.00388566)
(-0.358226 -0.0101107 4.32457e-21 0.354369 6.02576e-19 0.00385676)
(-0.38844 0.011883 8.60722e-20 0.384587 3.20663e-19 0.00385294)
(-0.400858 0.029309 1.69006e-19 0.39876 -4.44941e-19 0.00209798)
(-0.401309 0.0290448 -8.13395e-19 0.398736 1.97391e-19 0.00257319)
(-0.354954 0.016479 1.50739e-18 0.361322 -7.91994e-19 -0.00636798)
(-0.342239 -0.104019 -6.45874e-19 0.334081 3.87664e-20 0.00815817)
(0.00148787 -0.0017181 1.66653e-21 -0.00147483 2.82876e-21 -1.30495e-05)
(0.000285272 -0.00198426 -2.46129e-21 -0.000219082 -4.08637e-21 -6.61895e-05)
(-0.000603403 -0.00160296 1.23459e-20 0.000652729 1.75723e-20 -4.93261e-05)
(-0.00118385 -0.00112824 1.66878e-20 0.00116992 2.05976e-20 1.3927e-05)
(-0.000942969 -0.000637028 -1.91713e-20 0.00092638 -2.06427e-20 1.65884e-05)
(0.000902147 -8.92501e-05 2.38327e-21 -0.000872003 3.95905e-23 -3.01441e-05)
(0.0131706 -0.000533507 -7.86914e-21 -0.0130685 -6.33843e-21 -0.000102067)
(0.0972402 -0.015748 -1.05042e-19 -0.0977581 -3.81605e-20 0.000517808)
(0.254991 -0.0795174 1.24806e-19 -0.257566 -4.87162e-20 0.00257499)
(0.342455 -0.171237 -1.45807e-21 -0.344991 3.68609e-19 0.00253566)
(0.275467 -0.21357 4.48528e-19 -0.27897 -1.34456e-18 0.00350294)
(0.159701 -0.183619 -2.18646e-19 -0.161334 2.3422e-19 0.00163337)
(0.0820488 -0.131555 -2.64643e-19 -0.083669 1.8079e-19 0.00162021)
(0.0419307 -0.0927614 2.24941e-19 -0.0465231 -2.31548e-18 0.00459233)
(0.0287906 -0.0733127 2.13287e-19 -0.033358 2.95367e-19 0.00456736)
(0.0339442 -0.0734717 1.70889e-19 -0.034083 1.16162e-19 0.000138875)
(0.0412924 -0.0789795 -1.20556e-19 -0.0363462 5.87975e-19 -0.00494622)
(0.0343492 -0.0739659 -3.41118e-20 -0.029221 1.24672e-19 -0.00512816)
(0.00578169 -0.0535431 4.86425e-20 -0.0055912 -6.62388e-20 -0.000190493)
(-0.0421805 -0.0176532 2.82651e-20 0.0377729 5.19395e-20 0.00440766)
(-0.0980593 0.0268827 1.13094e-20 0.0933195 1.75596e-19 0.00473981)
(-0.138676 0.070254 -6.98809e-20 0.137146 1.42121e-19 0.00153047)
(-0.130567 0.0884359 -4.96872e-20 0.133177 1.76378e-19 -0.00260961)
(-0.0674203 0.0887152 3.36262e-19 0.070322 2.79908e-19 -0.00290173)
(0.00845654 0.083783 3.54676e-19 -0.00797377 -1.3204e-19 -0.000482766)
(0.0846908 0.0893592 1.63457e-19 -0.0868521 1.46954e-18 0.0021613)
(0.181947 0.112066 -1.53255e-20 -0.185732 -1.75766e-20 0.00378503)
(0.252291 0.134653 5.79642e-21 -0.253179 -3.29964e-19 0.000888417)
(0.171047 0.0287695 -2.65823e-19 -0.167457 -8.37314e-19 -0.0035894)
(0.0525653 -0.0241725 3.77925e-19 -0.0550721 -5.81397e-19 0.00250684)
(-0.0511882 -0.0588448 -6.06933e-20 0.0478043 1.42742e-18 0.00338393)
(-0.170412 -0.0717643 1.53675e-19 0.167685 -7.49893e-19 0.00272686)
(-0.281698 -0.0576093 -3.47778e-19 0.278371 1.49842e-18 0.00332754)
(-0.379807 -0.0249496 -3.2049e-19 0.376919 -3.17424e-19 0.00288754)
(-0.460169 0.0167772 1.20096e-19 0.45627 -6.41201e-20 0.00389936)
(-0.521043 0.0604637 4.07664e-19 0.517598 1.02185e-20 0.00344428)
(-0.561585 0.0988161 -5.13965e-19 0.557475 3.37855e-19 0.00410971)
(-0.579026 0.129501 3.33697e-20 0.577348 -1.08231e-19 0.00167876)
(-0.578693 0.131602 -7.25293e-19 0.575771 6.4177e-19 0.00292201)
(-0.531684 0.114877 -3.47158e-18 0.539048 9.2864e-19 -0.00736412)
(-0.50912 -0.0282812 2.74421e-18 0.498722 -9.50287e-19 0.0103984)
(0.00110139 -0.00112283 -1.77813e-21 -0.00109541 -2.21612e-21 -5.98419e-06)
(0.000364076 -0.00138655 8.26118e-21 -0.000353948 9.17512e-21 -1.01277e-05)
(-0.000239493 -0.00126607 -4.56157e-21 0.000252949 -5.71931e-21 -1.34563e-05)
(-0.000669423 -0.000952283 -3.79493e-21 0.000676219 -6.36793e-21 -6.79559e-06)
(-0.000995538 -0.000701325 3.42966e-21 0.00098082 5.46943e-21 1.47184e-05)
(-0.000749979 -0.000356519 -2.43826e-21 0.000733587 -1.85685e-21 1.63924e-05)
(0.000148162 -6.80935e-05 -2.48382e-21 -0.000140816 -2.09679e-21 -7.34596e-06)
(0.00349314 -0.000165995 -1.62243e-21 -0.0034483 1.54929e-21 -4.48378e-05)
(0.0555457 -0.0084225 -6.32343e-21 -0.0555695 1.90758e-21 2.38092e-05)
(0.184497 -0.0527968 -2.27252e-19 -0.185988 -2.27657e-19 0.00149078)
(0.311511 -0.139702 -1.09211e-19 -0.314351 -1.10659e-19 0.00284027)
(0.312997 -0.208924 2.1147e-19 -0.316287 -1.09317e-19 0.00328948)
(0.215306 -0.210367 -4.11597e-19 -0.219357 6.86531e-20 0.00405131)
(0.119795 -0.165782 2.4433e-20 -0.124394 8.2003e-19 0.00459839)
(0.0668049 -0.12513 2.78361e-19 -0.0720439 4.99726e-19 0.00523908)
(0.0538317 -0.110964 -3.46226e-19 -0.0555012 -1.22655e-19 0.00166953)
(0.0624863 -0.116479 1.57832e-19 -0.057199 -8.22916e-19 -0.00528725)
(0.0636228 -0.117236 -4.847e-20 -0.0560584 5.65272e-19 -0.00756441)
(0.0343336 -0.0922618 6.75151e-20 -0.0332212 -1.06391e-19 -0.00111246)
(-0.0275642 -0.0361213 3.53822e-20 0.0210927 1.91164e-19 0.00647149)
(-0.102872 0.0284561 -5.57894e-20 0.0960719 -2.12206e-19 0.00680009)
(-0.160924 0.0861662 -1.68623e-20 0.158031 3.01114e-20 0.00289296)
(-0.16945 0.115196 9.53216e-20 0.173158 4.06317e-21 -0.00370875)
(-0.0989733 0.119148 -1.92997e-19 0.1038 -2.82549e-19 -0.00482671)
(0.0148733 0.113165 -3.54566e-19 -0.0136089 -5.88385e-19 -0.00126443)
(0.140715 0.113878 4.31269e-19 -0.144297 -3.03986e-19 0.00358229)
(0.268396 0.132387 -2.87978e-19 -0.27362 -2.16387e-19 0.00522491)
(0.299077 0.128249 -1.61924e-19 -0.300502 -7.64636e-19 0.00142555)
(0.180755 0.0282818 5.26002e-19 -0.174453 -3.53239e-19 -0.00630227)
(0.0438742 -0.0074594 1.40656e-19 -0.0481184 1.09955e-18 0.00424418)
(-0.0816904 -0.0535933 -3.84447e-19 0.0767785 -5.64606e-19 0.00491186)
(-0.237907 -0.0656312 -3.67726e-19 0.23341 4.54988e-19 0.00449679)
(-0.387812 -0.0401218 -6.50564e-20 0.382522 -1.62149e-18 0.00529043)
(-0.520374 0.0125329 1.38075e-19 0.51607 -5.05401e-19 0.00430393)
(-0.627629 0.0761001 1.63431e-20 0.622533 -5.32134e-19 0.00509619)
(-0.708206 0.140562 6.05542e-19 0.703962 -3.18472e-19 0.00424422)
(-0.760963 0.196374 1.92627e-19 0.755831 4.22766e-19 0.00513143)
(-0.785747 0.240303 9.03712e-19 0.783078 -9.05487e-19 0.00266838)
(-0.787517 0.245151 3.11652e-18 0.783189 -1.256e-18 0.00432791)
(-0.752154 0.225043 5.69564e-20 0.7581 1.48645e-19 -0.00594584)
(-0.725782 0.079946 -4.05502e-18 0.716463 1.11702e-18 0.00931952)
(0.000810987 -0.000746048 -3.16691e-22 -0.000809882 -5.16875e-22 -1.10502e-06)
(0.000402659 -0.000966767 4.81738e-22 -0.000392282 1.05982e-21 -1.03767e-05)
(-1.57245e-05 -0.000989138 -3.76735e-21 2.34508e-05 -3.98922e-21 -7.72628e-06)
(-0.00034883 -0.0008294 -5.71838e-21 0.000356062 -5.75912e-21 -7.23219e-06)
(-0.000589418 -0.000603264 -2.14366e-21 0.000595406 -1.84331e-21 -5.98806e-06)
(-0.00079136 -0.000437419 8.11807e-21 0.000785995 8.22701e-21 5.36576e-06)
(-0.000604924 -0.000221886 -1.94373e-21 0.000593495 -2.12935e-21 1.14298e-05)
(-8.77556e-05 -5.84336e-05 1.42869e-21 8.78568e-05 1.20569e-21 -1.01144e-07)
(0.000672806 -3.17804e-05 5.68776e-21 -0.000661409 4.23064e-21 -1.13976e-05)
(0.0242182 -0.00308475 -1.28494e-20 -0.0241139 9.54682e-21 -0.000104231)
(0.115408 -0.0285405 2.55802e-19 -0.115875 2.0347e-19 0.000467445)
(0.247736 -0.0971535 -3.01284e-19 -0.24965 -3.41649e-19 0.00191399)
(0.311659 -0.179135 3.94812e-19 -0.314729 3.08929e-19 0.00306931)
(0.259744 -0.214778 -3.08466e-19 -0.265128 4.58328e-19 0.00538373)
(0.165473 -0.195422 1.06829e-19 -0.172576 -9.52643e-19 0.00710288)
(0.105073 -0.165585 -1.15185e-19 -0.109484 5.25125e-19 0.00441093)
(0.0925931 -0.159909 -1.26244e-19 -0.0891724 4.75664e-19 -0.0034207)
(0.0970767 -0.165043 2.37115e-19 -0.08742 3.57401e-19 -0.00965664)
(0.0782697 -0.147146 -1.0681e-19 -0.0725656 3.3913e-19 -0.00570415)
(0.0148109 -0.0815245 2.66856e-20 -0.0219281 -1.07452e-18 0.00711723)
(-0.0787972 0.00717249 4.08809e-22 0.0676465 3.81421e-19 0.0111507)
(-0.1565 0.0761834 -6.04127e-20 0.149815 -4.11786e-20 0.00668533)
(-0.1909 0.113557 -8.97049e-20 0.195259 -1.8609e-19 -0.00435872)
(-0.134277 0.124197 2.2533e-19 0.142202 -1.02254e-19 -0.007925)
(0.0203123 0.112822 1.91499e-19 -0.0172347 7.81557e-19 -0.00307762)
(0.20338 0.107101 -3.38519e-19 -0.208285 -6.44437e-19 0.00490465)
(0.344025 0.11671 -1.62264e-20 -0.351738 -4.65777e-19 0.00771288)
(0.307732 0.0870679 2.07157e-19 -0.307941 8.93367e-19 0.000208259)
(0.155583 0.0281157 7.71577e-20 -0.148066 1.00926e-18 -0.00751691)
(0.0162947 0.0109499 -1.62313e-19 -0.021897 -9.20357e-20 0.00560229)
(-0.126545 -0.0414733 1.72248e-20 0.120394 -9.45446e-19 0.00615033)
(-0.315408 -0.0521698 -3.2868e-19 0.309124 -3.86542e-19 0.00628394)
(-0.504847 -0.0157019 -1.73238e-19 0.497662 9.36187e-19 0.00718493)
(-0.673816 0.0569396 -4.48333e-20 0.667617 1.44748e-18 0.00619951)
(-0.810201 0.142891 -3.66064e-19 0.803845 1.43344e-18 0.00635565)
(-0.911474 0.228023 1.28484e-18 0.906407 -1.37025e-18 0.00506752)
(-0.977818 0.301001 1.70779e-18 0.972491 -1.77329e-18 0.00532702)
(-1.01222 0.356617 -2.54298e-18 1.0089 1.37932e-18 0.0033241)
(-1.01915 0.365461 1.15408e-18 1.01448 -1.11974e-18 0.00467387)
(-1.00607 0.342316 -1.04387e-19 1.00901 1.53352e-19 -0.00293878)
(-0.981925 0.21439 -1.20898e-19 0.975237 5.33366e-19 0.00668765)
(0.000603585 -0.000501943 -6.28094e-23 -0.00060357 5.62068e-23 -1.44792e-08)
(0.000361963 -0.000665361 -1.61963e-21 -0.000356454 -1.56256e-21 -5.50958e-06)
(0.000103254 -0.000729603 1.65361e-21 -9.73571e-05 1.04966e-21 -5.89728e-06)
(-0.000147774 -0.000691254 6.84815e-21 0.000152145 6.75913e-21 -4.37083e-06)
(-0.000341227 -0.000551402 1.31074e-21 0.000344685 1.40587e-21 -3.458e-06)
(-0.000475118 -0.000381563 1.04508e-21 0.000478878 3.09045e-22 -3.75945e-06)
(-0.000620984 -0.000275675 -1.28943e-20 0.00061978 -1.07719e-20 1.20479e-06)
(-0.000485309 -0.000143693 -7.35936e-22 0.000477993 -4.79757e-22 7.31548e-06)
(-0.000187015 -5.15324e-05 -2.19103e-21 0.000183659 -2.10781e-21 3.35619e-06)
(0.000272562 -1.56448e-05 4.19898e-21 -0.000267513 3.46945e-21 -5.04935e-06)
(0.00751384 -0.000700439 -2.58094e-20 -0.00744592 -2.73342e-20 -6.79184e-05)
(0.061913 -0.0123973 -8.44173e-20 -0.0618477 -8.42515e-21 -6.53433e-05)
(0.175387 -0.0580932 3.02688e-19 -0.176176 3.95339e-20 0.000789644)
(0.276786 -0.135633 -3.73711e-19 -0.279302 -1.93748e-19 0.00251525)
(0.282896 -0.198423 2.14945e-19 -0.288454 1.38696e-19 0.00555712)
(0.215813 -0.215935 2.86839e-19 -0.222836 2.25472e-19 0.00702306)
(0.158604 -0.212671 9.60891e-20 -0.159448 5.13373e-19 0.000843714)
(0.141092 -0.215931 -2.41954e-19 -0.132185 1.77514e-19 -0.0089066)
(0.129681 -0.206406 -4.29551e-19 -0.118393 -2.23746e-20 -0.0112885)
(0.0840481 -0.150387 7.86345e-20 -0.0862585 -5.90602e-19 0.00221042)
(-0.0108019 -0.0469503 3.95414e-19 -0.00544706 6.33265e-19 0.016249)
(-0.110593 0.0360166 -2.57251e-19 0.0978429 -1.20939e-19 0.0127503)
(-0.174366 0.0733754 1.44423e-20 0.178334 2.86904e-19 -0.00396783)
(-0.153982 0.0786521 1.25765e-20 0.167011 2.2039e-19 -0.0130291)
(0.0228971 0.0553369 -5.7659e-20 -0.0170697 -2.49424e-19 -0.00582734)
(0.256384 0.0426403 -1.32267e-20 -0.262242 3.74102e-19 0.00585833)
(0.380007 0.0433256 1.12997e-19 -0.389338 6.42025e-19 0.00933114)
(0.273453 0.0154146 2.05905e-19 -0.269179 -2.02718e-19 -0.0042742)
(0.0936708 0.0212718 -3.06699e-19 -0.0865551 5.74478e-19 -0.00711572)
(-0.0347841 0.0264439 -6.88358e-19 0.0285685 -7.43346e-19 0.00621562)
(-0.18699 -0.0208353 2.46131e-19 0.179734 1.0405e-20 0.0072564)
(-0.399761 -0.0267003 4.46024e-19 0.392058 -6.48509e-19 0.0077026)
(-0.624538 0.0208917 3.36307e-19 0.615744 3.50011e-19 0.00879451)
(-0.828785 0.112488 2.02847e-19 0.820806 -9.55727e-19 0.00797912)
(-0.993247 0.22025 1.01411e-19 0.985438 1.51308e-19 0.00780824)
(-1.11486 0.324708 -7.45152e-19 1.10914 -8.06025e-20 0.00572575)
(-1.19428 0.412674 -1.48918e-18 1.18946 1.72171e-18 0.0048245)
(-1.23982 0.476963 1.32105e-18 1.23714 -1.23591e-18 0.00268503)
(-1.25448 0.490427 -1.25562e-18 1.25244 6.08363e-19 0.00203959)
(-1.27053 0.46358 3.16191e-18 1.27211 -2.26844e-18 -0.00157864)
(-1.25509 0.365019 5.62112e-19 1.25536 3.1177e-20 -0.000278227)
(0.000450534 -0.000341232 -2.48187e-22 -0.000450633 1.48481e-23 9.8978e-08)
(0.000303493 -0.000458995 -1.23342e-21 -0.000300946 -1.69534e-21 -2.54716e-06)
(0.000144039 -0.000522572 5.26426e-21 -0.000140751 4.54416e-21 -3.28723e-06)
(-2.40148e-05 -0.000531261 -9.49559e-22 2.67133e-05 -3.071e-22 -2.69854e-06)
(-0.000179417 -0.000480545 1.81932e-21 0.000180204 1.33732e-21 -7.8647e-07)
(-0.000292389 -0.000367631 -1.47165e-21 0.000292375 -1.22963e-21 1.43634e-08)
(-0.000371963 -0.000244753 4.19022e-21 0.000373783 4.16944e-21 -1.82013e-06)
(-0.000465489 -0.000165638 5.1124e-21 0.000467241 3.49555e-21 -1.75165e-06)
(-0.000401861 -9.71251e-05 1.42516e-22 0.000398369 9.50796e-22 3.49184e-06)
(-0.000214261 -4.54683e-05 3.97104e-21 0.000210036 2.74386e-21 4.22487e-06)
(5.9593e-05 -1.54529e-05 5.63846e-22 -5.90299e-05 5.34719e-22 -5.63077e-07)
(0.000652367 -4.106e-05 -3.63077e-21 -0.000644489 -2.2577e-21 -7.87826e-06)
(0.0277057 -0.00421408 -8.29208e-21 -0.0275513 -2.69306e-20 -0.000154367)
(0.110299 -0.0296845 1.14921e-19 -0.110417 1.47519e-19 0.000118085)
(0.221505 -0.0908524 -6.16686e-19 -0.223276 -4.10899e-19 0.00177099)
(0.282202 -0.167541 3.68752e-19 -0.286744 2.20671e-19 0.00454228)
(0.265088 -0.225795 -4.74997e-20 -0.26924 -6.03127e-19 0.00415187)
(0.222639 -0.258487 3.95883e-19 -0.218414 2.9072e-19 -0.00422557)
(0.192903 -0.263408 -4.35372e-19 -0.180113 -6.46171e-19 -0.0127899)
(0.161015 -0.224245 9.26645e-20 -0.154088 9.02495e-19 -0.00692678)
(0.0966596 -0.128157 2.38235e-19 -0.110971 -5.76724e-19 0.0143116)
(-0.0059738 -0.0348103 -2.23264e-19 -0.0135616 2.7674e-19 0.0195354)
(-0.100692 -0.00385444 9.73288e-20 0.101471 2.06343e-20 -0.000779404)
(-0.130018 -0.026253 1.84397e-19 0.14715 -2.26538e-19 -0.0171328)
(0.023299 -0.0829071 4.67182e-20 -0.0147968 6.01437e-19 -0.00850221)
(0.27207 -0.106313 2.92352e-19 -0.278178 -1.55312e-19 0.00610783)
(0.344982 -0.102857 -1.65305e-19 -0.351316 3.19432e-19 0.00633447)
(0.186375 -0.0888038 -2.46996e-19 -0.176509 -1.39157e-19 -0.00986577)
(0.00126385 -0.00595936 -1.27361e-19 0.0051589 -9.57566e-19 -0.00642275)
(-0.109605 0.0319091 6.99305e-19 0.103276 -2.94242e-19 0.00632956)
(-0.260152 0.00810723 1.33724e-19 0.251794 6.55142e-19 0.00835784)
(-0.482885 0.0160506 1.31625e-19 0.473645 8.03437e-19 0.00924079)
(-0.733477 0.0771717 -2.59062e-19 0.722945 -5.66922e-20 0.010532)
(-0.96739 0.186364 -5.98874e-19 0.957287 6.24152e-19 0.0101024)
(-1.15466 0.314308 2.97322e-19 1.14477 -4.78075e-20 0.00988734)
(-1.29305 0.435446 -9.27795e-20 1.28552 6.17578e-19 0.00752866)
(-1.38282 0.535014 2.8762e-18 1.37762 -3.57422e-18 0.00520227)
(-1.43783 0.604116 -2.93711e-18 1.43532 2.63417e-18 0.00251264)
(-1.46078 0.62107 3.07677e-19 1.46319 -2.28595e-19 -0.00241018)
(-1.50707 0.587771 -2.35327e-18 1.51 1.46909e-18 -0.00293083)
(-1.50732 0.517153 2.99951e-18 1.5215 -2.05719e-18 -0.014181)
(0.000337414 -0.000233846 -9.54826e-22 -0.000337206 -9.18866e-22 -2.08044e-07)
(0.000245221 -0.000317507 3.76779e-21 -0.000244567 2.98249e-21 -6.54195e-07)
(0.000145237 -0.000369846 -9.52345e-22 -0.00014367 -2.2355e-22 -1.56635e-06)
(3.64109e-05 -0.000392923 -6.80793e-21 -3.4745e-05 -5.5087e-21 -1.66597e-06)
(-7.32216e-05 -0.00038179 -7.23197e-22 7.43254e-05 -9.87919e-22 -1.10381e-06)
(-0.000170664 -0.000334865 6.6907e-21 0.000170965 5.44251e-21 -3.00977e-07)
(-0.000237308 -0.000249692 -1.33799e-21 0.000237085 -1.28035e-21 2.22687e-07)
(-0.00028438 -0.00015981 -1.59029e-20 0.000285575 -1.21784e-20 -1.19468e-06)
(-0.00034376 -9.77063e-05 1.66497e-20 0.000346557 1.25503e-20 -2.79681e-06)
(-0.000321322 -6.25428e-05 7.32042e-22 0.000320817 -5.16187e-22 5.05458e-07)
(-0.000201123 -3.88978e-05 -4.18555e-22 0.000197408 -5.19772e-22 3.71531e-06)
(-5.7226e-05 -2.18262e-05 -4.7593e-22 5.46157e-05 -2.1771e-22 2.61035e-06)
(0.000723243 -4.7572e-05 -8.37117e-21 -0.00071548 -4.71673e-21 -7.76328e-06)
(0.00807667 -0.000909139 1.19164e-20 -0.00800577 -1.54589e-21 -7.08947e-05)
(0.0589164 -0.0124806 -1.67914e-19 -0.0588111 -2.41278e-20 -0.000105334)
(0.158368 -0.0535041 2.88226e-19 -0.159322 7.1923e-20 0.000954461)
(0.258687 -0.12987 -2.16165e-19 -0.261196 7.58633e-20 0.00250869)
(0.301942 -0.219894 2.74297e-20 -0.301992 -1.07289e-19 4.99009e-05)
(0.285696 -0.284239 -2.21018e-19 -0.277659 -1.62082e-19 -0.00803705)
(0.247841 -0.283657 4.36105e-20 -0.236203 -2.71834e-19 -0.011638)
(0.207407 -0.213826 2.74257e-19 -0.211478 2.53412e-19 0.00407175)
(0.144912 -0.120264 4.51894e-20 -0.166001 -6.47247e-19 0.0210889)
(0.047573 -0.101378 -2.76804e-19 -0.0552083 4.65959e-19 0.00763537)
(-0.033881 -0.168909 3.55822e-19 0.048133 -2.53735e-19 -0.0142521)
(0.0355119 -0.297885 2.83363e-20 -0.0256739 -1.59502e-19 -0.009838)
(0.227885 -0.34858 -6.38295e-19 -0.231304 -2.53297e-19 0.0034193)
(0.23277 -0.310338 3.55769e-19 -0.230805 -1.05157e-18 -0.0019652)
(0.0549091 -0.227588 1.55176e-19 -0.0389835 1.33449e-18 -0.0159256)
(-0.107565 -0.0674051 -1.9155e-20 0.115335 -9.73845e-20 -0.00776996)
(-0.193935 0.020753 -1.9214e-19 0.189111 1.3112e-18 0.00482426)
(-0.327438 0.0444961 -3.01918e-19 0.319287 -4.47159e-19 0.00815048)
(-0.545054 0.0831481 4.41146e-19 0.535493 -7.91817e-20 0.00956167)
(-0.80996 0.163989 -3.08819e-19 0.797958 -7.67764e-19 0.0120027)
(-1.06177 0.290598 9.52066e-20 1.04871 1.29415e-18 0.0130639)
(-1.26321 0.434214 5.45555e-19 1.24944 -8.92489e-19 0.0137788)
(-1.41542 0.568274 -5.73924e-19 1.40349 3.45066e-19 0.0119259)
(-1.50973 0.673701 -9.92327e-19 1.50041 5.13216e-19 0.00931956)
(-1.56784 0.742092 2.00025e-18 1.56061 -1.98346e-18 0.00723326)
(-1.5939 0.758557 2.36538e-19 1.5941 -9.54619e-19 -0.00019886)
(-1.66213 0.715132 2.9623e-18 1.65978 -3.66235e-18 0.00235309)
(-1.68395 0.659486 -3.30479e-18 1.70725 2.08387e-18 -0.0233013)
(0.000252825 -0.000160534 -8.1891e-22 -0.000252721 -4.4108e-22 -1.04646e-07)
(0.000193736 -0.000220307 -3.44884e-21 -0.000194006 -2.34126e-21 2.69613e-07)
(0.000129592 -0.000260529 -1.19984e-22 -0.000129072 -5.15356e-22 -5.19529e-07)
(5.96244e-05 -0.000284219 -5.40572e-22 -5.85315e-05 -4.95695e-22 -1.09294e-06)
(-1.44407e-05 -0.00028915 4.74336e-21 1.52211e-05 3.5287e-21 -7.80393e-07)
(-8.5807e-05 -0.000272512 2.46532e-21 8.6364e-05 1.88742e-21 -5.5697e-07)