/*--------------------------------*- C++ -*----------------------------------*\
| =========                 |                                                 |
| \\      /  F ield         | OpenFOAM: The Open Source CFD Toolbox           |
|  \\    /   O peration     | Version:  2312                                  |
|   \\  /    A nd           | Website:  www.openfoam.com                      |
|    \\/     M anipulation  |                                                 |
\*---------------------------------------------------------------------------*/
FoamFile
{
    version     2.0;
    format      ascii;
    arch        "LSB;label=32;scalar=64";
    class       volScalarField;
    location    "200";
    object      turbulenceProperties:epsilon;
}
// * * * * * * * * * * * * * * * * * * * * * * * * * * * * * * * * * * * * * //

dimensions      [0 2 -3 0 0 0 0];

internalField   nonuniform List<scalar> 
11040
(
39.152
103.193
79.863
4.34631
0.0642734
1.85409
6.29388
7.86703
7.10745
6.01843
4.45662
2.81431
1.21751
0.769002
0.688605
1.19063
3.33753
6.12796
6.88165
2.98838
0.525392
2.31349
11.1248
24.42
28.6431
21.1442
10.8734
3.5428
0.552929
15.631
27.6508
24.0581
13.8294
5.21893
0.798459
6.42502
28.2147
78.1601
179.607
327.053
363.92
0.874458
1.57813
7.08918
36.2485
36.6072
57.8564
28.3121
6.54386
2.57775
1.04557
0.513674
0.266807
0.129822
0.0526346
0.0525822
0.0815118
0.0799896
0.0841261
0.138771
0.270778
0.524862
0.749502
0.550928
0.201671
0.0785344
0.27522
0.582513
1.00034
2.38165
0.515664
0.468861
1.26094
2.14645
3.2451
4.62644
5.95867
6.67614
7.28995
8.03088
7.31323
12.5003
0.310214
0.170236
0.0706284
1.60679
10.6031
52.5703
73.5137
46.1433
15.4632
5.45045
2.30285
0.955391
0.424914
0.278761
0.276573
0.37277
0.441312
0.357811
0.254134
0.359885
0.774895
1.17085
0.829475
0.271537
0.111114
0.291478
1.06645
4.83068
3.43633
0.600631
0.668929
1.58994
2.87539
4.3114
5.8181
7.1308
8.20764
8.71427
8.94649
7.06659
10.3931
0.151269
0.0922528
0.0646407
0.0390751
0.182424
4.56099
32.052
67.4763
54.4358
25.3597
9.21783
3.6564
1.51359
0.774137
0.625305
0.754888
0.823538
0.601891
0.294588
0.381567
1.18608
2.10727
1.70735
0.756722
0.460617
1.01491
3.28861
9.00913
3.86406
0.480453
0.485475
1.74747
3.61095
5.78505
8.01683
10.0346
11.627
12.4123
12.3936
10.0089
10.3368
0.0771932
0.0605819
0.0439803
0.0387762
0.0199394
0.0122551
1.2956
15.5851
45.9993
52.9784
32.5771
13.9239
5.35856
2.29667
1.35311
1.31713
1.44248
1.12053
0.459509
0.287704
1.34536
2.87285
2.71107
1.35868
0.830422
1.92244
5.84373
10.3386
3.3724
0.282582
0.396346
2.01245
4.54319
7.63072
10.8148
13.811
16.1574
17.5311
17.5164
15.1101
13.3815
0.0370266
0.0307568
0.0250902
0.0200638
0.0219281
0.00916439
0.000139853
0.170086
6.00143
25.4275
41.7302
34.4008
18.1186
7.59572
3.42828
2.34584
2.33264
2.07037
1.02985
0.201601
1.04173
2.90283
3.31149
1.79196
0.9878
2.75836
7.86147
9.12189
2.27339
0.115472
0.405726
2.3842
5.60759
9.66115
13.9251
18.0129
21.2813
23.4211
23.6729
21.865
19.0615
0.0181923
0.0163898
0.0146929
0.0121889
0.0106519
0.0122763
0.00475303
5.14663e-06
0.00139482
1.68072
11.5727
27.0365
30.4602
20.3538
10.0566
5.1379
3.83308
3.43058
2.22958
0.516885
0.405035
2.00933
3.04843
1.83562
0.71042
3.21503
8.39932
6.17013
1.08744
0.0195898
0.518863
2.79023
6.62583
11.5686
16.8985
22.0592
26.3362
29.3689
30.1908
29.5057
26.6274
0.00923736
0.00857406
0.00813236
0.00750988
0.0063238
0.00558595
0.00711269
0.00275602
2.01464e-09
2.01994e-05
0.317865
4.32237
14.8796
23.0498
20.0858
12.3133
7.43351
5.58704
4.07372
1.77841
0.152776
0.679856
1.84341
1.36334
0.147797
3.1191
6.91442
3.08877
0.266845
0.0440443
0.739467
3.1572
7.37899
12.9888
19.1646
25.2597
30.4793
34.4897
36.2019
37.0402
34.99
0.00478721
0.00452635
0.00439834
0.0042389
0.00395495
0.00329735
0.00300495
0.00380806
0.0020922
1.45239e-06
9.81693e-06
0.00475552
1.28701
7.00745
15.1603
17.6894
14.0067
9.90277
6.96531
4.0787
1.29847
0.0918114
0.439468
0.750546
0.251506
3.06583
4.60337
1.1983
0.00285154
0.219194
1.03362
3.38086
7.64809
13.5313
20.1465
26.8283
32.7609
37.6353
40.441
42.9496
42.4802
0.00252356
0.00240896
0.00236262
0.00233301
0.00226622
0.00212239
0.00176772
0.00161991
0.00201445
0.00146107
1.05225e-05
1.98674e-07
0.00714279
0.235757
2.69222
8.60852
13.923
14.4582
11.6105
7.68412
4.05363
1.58483
0.486246
1.03258
2.61464
4.93055
4.10316
1.15828
0.273098
0.496528
1.27384
3.33584
7.27302
12.8892
19.3751
26.189
32.3658
37.6745
41.286
45.0667
46.5282
0.00134274
0.00129001
0.00126748
0.00126281
0.00125616
0.00122451
0.0011434
0.000968096
0.000854094
0.00104352
0.000917154
7.02599e-05
9.56586e-08
3.27248e-05
0.00681377
0.753384
4.049
9.5086
12.9665
11.9281
8.31435
5.22572
3.50627
3.49863
7.40924
10.3206
7.11288
2.85387
0.911759
0.718669
1.27416
2.85198
5.98883
10.7802
16.7271
23.1598
29.0128
34.2282
37.9638
42.1078
44.8494
0.000719204
0.000695491
0.00068067
0.000678485
0.000682444
0.000678021
0.000659324
0.000617723
0.000531676
0.000457634
0.000522123
0.000580208
0.000138062
3.00675e-14
4.37781e-08
2.45519e-06
0.127269
1.40705
5.21726
9.591
10.9164
9.66044
8.51955
8.16809
11.7528
16.8967
12.6571
5.62289
1.68887
0.688177
0.928973
2.02807
4.23887
7.79386
12.6054
18.1145
23.5616
28.2582
31.605
35.1154
37.648
0.000387189
0.000376078
0.000366093
0.000363949
0.000366995
0.000369135
0.000366133
0.000355951
0.000336411
0.000295051
0.000251124
0.000261637
0.000321897
0.000184692
1.10233e-07
6.25804e-09
7.51993e-06
1.46866e-07
0.295103
2.07175
5.56585
8.63308
10.3599
11.866
14.4422
19.1381
17.445
8.64283
2.50693
0.430439
0.371972
1.31947
3.00734
5.57677
9.12622
13.3812
17.7578
21.7189
24.5892
26.6012
27.4813
0.000208842
0.000203685
0.000196996
0.000194933
0.000196627
0.000198709
0.000199628
0.000197875
0.000192434
0.000182974
0.00016404
0.000139603
0.000135156
0.000160722
0.000160742
4.44944e-06
3.0122e-08
5.71226e-13
0.000858665
0.0253114
0.526495
2.30095
4.95098
8.03666
11.9846
15.3897
16.276
10.2844
3.43617
0.38751
0.166739
1.44256
3.39673
5.77478
8.62086
11.8388
15.0278
17.7867
19.537
19.7289
18.2809
0.000112593
0.000110193
0.000105878
0.000104232
0.000105051
0.00010626
0.000107182
0.000107446
0.000106344
0.000103507
9.89082e-05
9.06543e-05
7.78124e-05
7.02296e-05
8.06969e-05
0.000102609
2.98373e-05
1.57239e-07
1.61508e-11
1.05769e-07
0.00537597
0.058565
0.529904
1.64457
3.93519
7.99717
10.509
9.04137
4.71403
1.57534
1.22052
3.05539
6.05477
9.37786
12.6967
15.7635
18.2144
19.703
19.806
18.0645
14.8299
6.05588e-05
5.94512e-05
5.67842e-05
5.56532e-05
5.59914e-05
5.66308e-05
5.71586e-05
5.75479e-05
5.7641e-05
5.68258e-05
5.5202e-05
5.28041e-05
4.90909e-05
4.28266e-05
3.65824e-05
3.81491e-05
4.75568e-05
4.31069e-05
3.76668e-07
5.61705e-09
1.95903e-15
5.90086e-06
3.94372e-10
0.0270213
0.143221
0.961879
3.5357
5.84566
5.92588
4.90735
4.85885
6.8412
10.6992
15.6034
20.633
25.0184
27.9957
29.035
27.9031
24.7773
20.1754
3.26588e-05
3.21595e-05
3.0569e-05
2.98559e-05
2.99754e-05
3.02805e-05
3.05307e-05
3.0739e-05
3.08376e-05
3.07255e-05
3.01796e-05
2.91399e-05
2.77114e-05
2.57722e-05
2.27791e-05
1.86823e-05
1.68101e-05
1.84669e-05
2.24615e-05
6.70462e-06
9.81104e-11
4.60486e-11
3.22037e-16
6.96768e-07
0.000202948
0.023468
0.0780614
0.99477
3.18158
5.72586
8.27017
11.3895
15.7484
21.5525
28.3425
34.9595
40.0408
42.6133
42.4643
40.0018
35.0957
1.81468e-05
1.79415e-05
1.70101e-05
1.65977e-05
1.66543e-05
1.68121e-05
1.69474e-05
1.70621e-05
1.71223e-05
1.71246e-05
1.69161e-05
1.64566e-05
1.56908e-05
1.46863e-05
1.34496e-05
1.17886e-05
9.49551e-06
7.17308e-06
6.37068e-06
7.39342e-06
6.68836e-06
3.29502e-07
3.86543e-09
1.36385e-11
0
0
6.16523e-05
0.0279273
0.143257
1.21793
4.15622
8.94486
15.0567
22.1294
30.0011
38.1937
45.8139
51.5105
54.4889
54.9725
52.2934
1.05776e-05
1.05102e-05
9.96503e-06
9.73509e-06
9.77885e-06
9.87558e-06
9.96388e-06
1.00413e-05
1.00905e-05
1.00929e-05
1.00347e-05
9.84193e-06
9.47465e-06
8.91296e-06
8.17801e-06
7.31349e-06
6.26219e-06
4.94961e-06
3.30188e-06
1.91304e-06
1.35839e-06
1.44049e-06
8.44466e-07
1.49492e-07
4.02142e-09
8.0567e-12
0
0
0.000611669
0.0306089
0.183116
1.57061
5.46949
12.2928
21.2728
31.2235
41.1404
49.9553
56.5654
60.2352
60.9481
6.43729e-06
6.42909e-06
6.10579e-06
5.98108e-06
6.02022e-06
6.08927e-06
6.15447e-06
6.2165e-06
6.26273e-06
6.26939e-06
6.268e-06
6.19968e-06
6.04155e-06
5.7726e-06
5.38129e-06
4.86957e-06
4.27003e-06
3.59779e-06
2.82005e-06
1.90289e-06
8.58227e-07
9.53581e-08
1.24658e-07
2.42873e-07
4.36292e-08
9.23113e-08
2.8661e-09
8.95693e-13
0
0
0.000885685
0.0297337
0.203481
1.51344
5.34399
12.4802
22.3412
33.397
44.0827
53.1072
60.2527
4.0512e-06
4.06671e-06
3.87151e-06
3.80855e-06
3.84357e-06
3.89943e-06
3.95256e-06
4.00804e-06
4.05376e-06
4.07363e-06
4.08943e-06
4.0868e-06
4.03985e-06
3.93082e-06
3.75309e-06
3.4992e-06
3.1732e-06
2.78591e-06
2.37495e-06
1.93304e-06
1.49498e-06
1.14281e-06
9.33397e-07
9.80653e-07
1.30283e-06
1.18399e-06
7.51629e-07
2.36862e-08
8.25243e-10
1.97892e-14
0
0
0.00171525
0.000249652
0.100831
0.741804
2.79408
7.13141
14.0772
23.1858
33.8362
2.61645e-06
2.64078e-06
2.52486e-06
2.49464e-06
2.52765e-06
2.57362e-06
2.62096e-06
2.67032e-06
2.71709e-06
2.74712e-06
2.76927e-06
2.79786e-06
2.80823e-06
2.7872e-06
2.73121e-06
2.63331e-06
2.49402e-06
2.31015e-06
2.10079e-06
1.86636e-06
1.67438e-06
1.61584e-06
1.7276e-06
1.98727e-06
2.43081e-06
3.07086e-06
3.55828e-06
3.53417e-06
1.10752e-06
9.12883e-10
1.39624e-10
2.41432e-18
0
1.77795e-09
0.00231193
0.0103047
0.017184
0.12538
0.532703
1.61888
3.78254
1.72681e-06
1.75065e-06
1.68298e-06
1.67147e-06
1.70238e-06
1.74169e-06
1.78471e-06
1.82969e-06
1.87612e-06
1.91432e-06
1.94409e-06
1.98381e-06
2.02226e-06
2.04844e-06
2.05849e-06
2.0481e-06
2.01687e-06
1.96372e-06
1.89669e-06
1.80681e-06
1.74784e-06
1.78826e-06
1.94184e-06
2.27118e-06
2.77747e-06
3.45104e-06
4.50336e-06
5.60931e-06
5.80513e-06
5.36056e-06
1.00474e-06
1.41009e-13
3.27766e-11
5.19146e-14
0
0
0.000546725
0.00485832
0.0122758
0.0113603
0.0400198
1.1577e-06
1.18085e-06
1.14213e-06
1.14105e-06
1.16799e-06
1.20206e-06
1.23948e-06
1.2802e-06
1.32282e-06
1.36297e-06
1.39635e-06
1.44029e-06
1.49141e-06
1.54032e-06
1.58249e-06
1.61738e-06
1.64326e-06
1.6614e-06
1.67587e-06
1.67805e-06
1.71034e-06
1.81463e-06
1.97818e-06
2.25143e-06
2.64672e-06
3.19074e-06
3.92709e-06
4.89633e-06
6.37788e-06
7.7261e-06
7.12784e-06
5.89605e-06
1.65468e-06
3.719e-09
2.82925e-10
4.58533e-12
0
0
0
0.000163658
0.00262056
7.87119e-07
8.06986e-07
7.85517e-07
7.89979e-07
8.13025e-07
8.41901e-07
8.73957e-07
9.09631e-07
9.47365e-07
9.85705e-07
1.01916e-06
1.06018e-06
1.11274e-06
1.16761e-06
1.22209e-06
1.27653e-06
1.3291e-06
1.3804e-06
1.43358e-06
1.48026e-06
1.55538e-06
1.68582e-06
1.85381e-06
2.0846e-06
2.38759e-06
2.77387e-06
3.25341e-06
3.86107e-06
4.677e-06
5.76291e-06
7.14233e-06
8.39555e-06
8.16448e-06
6.11996e-06
3.7037e-06
4.92919e-07
2.87968e-09
1.38909e-11
5.81576e-12
1.58143e-13
0
5.4031e-07
5.57408e-07
5.46436e-07
5.52991e-07
5.72418e-07
5.96654e-07
6.23888e-07
6.54559e-07
6.87538e-07
7.22546e-07
7.55344e-07
7.91591e-07
8.39289e-07
8.91918e-07
9.48066e-07
1.00688e-06
1.06822e-06
1.1307e-06
1.19817e-06
1.26121e-06
1.34874e-06
1.4758e-06
1.6291e-06
1.82251e-06
2.0608e-06
2.34261e-06
2.67488e-06
3.06211e-06
3.51181e-06
4.06358e-06
4.77602e-06
5.65019e-06
6.7554e-06
7.69625e-06
8.13587e-06
7.30882e-06
5.32878e-06
2.83487e-06
1.10832e-06
2.90406e-08
3.91058e-10
3.74429e-07
3.87899e-07
3.83221e-07
3.90455e-07
4.06674e-07
4.2656e-07
4.49458e-07
4.75155e-07
5.03462e-07
5.33692e-07
5.642e-07
5.96178e-07
6.37337e-07
6.84534e-07
7.36671e-07
7.92449e-07
8.52444e-07
9.14558e-07
9.82576e-07
1.04822e-06
1.13302e-06
1.24531e-06
1.37451e-06
1.53046e-06
1.71531e-06
1.92574e-06
2.16377e-06
2.42965e-06
2.7238e-06
3.04655e-06
3.40461e-06
3.80935e-06
4.30236e-06
4.89825e-06
5.5708e-06
6.34494e-06
6.9584e-06
7.08173e-06
6.87889e-06
5.48061e-06
4.50886e-06
2.60888e-07
2.71855e-07
2.70557e-07
2.7741e-07
2.90765e-07
3.06999e-07
3.2583e-07
3.47046e-07
3.70628e-07
3.96095e-07
4.22752e-07
4.50396e-07
4.84803e-07
5.25488e-07
5.70697e-07
6.19767e-07
6.73102e-07
7.29437e-07
7.90896e-07
8.51629e-07
9.26341e-07
1.02044e-06
1.12398e-06
1.24522e-06
1.38446e-06
1.5397e-06
1.71054e-06
1.89755e-06
2.0992e-06
2.31386e-06
2.53982e-06
2.77746e-06
3.02612e-06
3.29318e-06
3.58846e-06
3.93074e-06
4.32551e-06
4.72417e-06
5.23996e-06
5.34253e-06
6.18067e-06
1.82738e-07
1.91137e-07
1.91725e-07
1.98047e-07
2.08802e-07
2.21994e-07
2.37253e-07
2.54651e-07
2.73996e-07
2.95212e-07
3.17813e-07
3.41349e-07
3.69493e-07
4.03527e-07
4.40924e-07
4.82369e-07
5.27455e-07
5.75878e-07
6.2808e-07
6.80852e-07
7.43117e-07
8.18855e-07
8.99509e-07
9.9224e-07
1.09571e-06
1.20924e-06
1.33117e-06
1.46251e-06
1.60152e-06
1.74844e-06
1.90073e-06
2.0583e-06
2.21704e-06
2.37665e-06
2.53816e-06
2.70239e-06
2.87514e-06
3.03461e-06
3.28047e-06
3.26237e-06
3.79764e-06
1.28275e-07
1.34902e-07
1.3625e-07
1.41739e-07
1.50394e-07
1.61022e-07
1.73241e-07
1.87355e-07
2.03021e-07
2.20441e-07
2.39243e-07
2.58955e-07
2.81541e-07
3.09216e-07
3.39688e-07
3.738e-07
4.10929e-07
4.51035e-07
4.94183e-07
5.38043e-07
5.88628e-07
6.48279e-07
7.10469e-07
7.80323e-07
8.56943e-07
9.39519e-07
1.02659e-06
1.11856e-06
1.21451e-06
1.3143e-06
1.4164e-06
1.52072e-06
1.62519e-06
1.72911e-06
1.83294e-06
1.93513e-06
2.0377e-06
2.12078e-06
2.2575e-06
2.18815e-06
2.50389e-06
9.02883e-08
9.52254e-08
9.70067e-08
1.01652e-07
1.08522e-07
1.16983e-07
1.26722e-07
1.3797e-07
1.50547e-07
1.64563e-07
1.79919e-07
1.96158e-07
2.14267e-07
2.36115e-07
2.60534e-07
2.87775e-07
3.17643e-07
3.49846e-07
3.84645e-07
4.19912e-07
4.60181e-07
5.06049e-07
5.53326e-07
6.05121e-07
6.61364e-07
7.20907e-07
7.83047e-07
8.47231e-07
9.13431e-07
9.81059e-07
1.04969e-06
1.11873e-06
1.1875e-06
1.25513e-06
1.32237e-06
1.38758e-06
1.45335e-06
1.50381e-06
1.59325e-06
1.5258e-06
1.74437e-06
6.356e-08
6.73363e-08
6.9107e-08
7.28931e-08
7.83912e-08
8.50238e-08
9.27567e-08
1.01594e-07
1.11632e-07
1.22756e-07
1.35108e-07
1.48233e-07
1.62784e-07
1.7975e-07
1.99057e-07
2.20324e-07
2.43871e-07
2.69092e-07
2.96506e-07
3.24019e-07
3.5521e-07
3.8977e-07
4.2512e-07
4.63085e-07
5.0407e-07
5.46538e-07
5.90342e-07
6.34948e-07
6.80682e-07
7.26687e-07
7.729e-07
8.18555e-07
8.63521e-07
9.07113e-07
9.50195e-07
9.91353e-07
1.03301e-06
1.06339e-06
1.12331e-06
1.06538e-06
1.22321e-06
4.47387e-08
4.75248e-08
4.92085e-08
5.22644e-08
5.65922e-08
6.17815e-08
6.7869e-08
7.47757e-08
8.27023e-08
9.14544e-08
1.01248e-07
1.11728e-07
1.23266e-07
1.36446e-07
1.51535e-07
1.67991e-07
1.86205e-07
2.0569e-07
2.26774e-07
2.47985e-07
2.71784e-07
2.97663e-07
3.2378e-07
3.51468e-07
3.80922e-07
4.11236e-07
4.42154e-07
4.73349e-07
5.04839e-07
5.36145e-07
5.67085e-07
5.97393e-07
6.26941e-07
6.55429e-07
6.83323e-07
7.09781e-07
7.36673e-07
7.55373e-07
7.96247e-07
7.48685e-07
8.66114e-07
3.14236e-08
3.35282e-08
3.49687e-08
3.74275e-08
4.08009e-08
4.48573e-08
4.9581e-08
5.49836e-08
6.11367e-08
6.80089e-08
7.56374e-08
8.39471e-08
9.29554e-08
1.03161e-07
1.14751e-07
1.27392e-07
1.41265e-07
1.56214e-07
1.72295e-07
1.88593e-07
2.06463e-07
2.2575e-07
2.44935e-07
2.65139e-07
2.86282e-07
3.07923e-07
3.29577e-07
3.5123e-07
3.72756e-07
3.94096e-07
4.14909e-07
4.35218e-07
4.54797e-07
4.73641e-07
4.91915e-07
5.09218e-07
5.26788e-07
5.38345e-07
5.66439e-07
5.28632e-07
6.17946e-07
2.20121e-08
2.35596e-08
2.47943e-08
2.6743e-08
2.93439e-08
3.25032e-08
3.6148e-08
4.0343e-08
4.5084e-08
5.04271e-08
5.63196e-08
6.28265e-08
6.97709e-08
7.75843e-08
8.64232e-08
9.60265e-08
1.06483e-07
1.178e-07
1.29848e-07
1.42063e-07
1.55364e-07
1.69625e-07
1.8364e-07
1.98251e-07
2.13313e-07
2.28608e-07
2.43858e-07
2.5906e-07
2.73973e-07
2.88586e-07
3.02718e-07
3.16444e-07
3.29584e-07
3.42179e-07
3.54372e-07
3.65899e-07
3.77705e-07
3.85157e-07
4.05085e-07
3.75595e-07
4.45321e-07
1.53475e-08
1.64985e-08
1.75113e-08
1.90348e-08
2.10479e-08
2.34743e-08
2.62943e-08
2.95055e-08
3.31593e-08
3.72584e-08
4.18049e-08
4.68175e-08
5.21966e-08
5.81419e-08
6.48166e-08
7.20282e-08
7.98632e-08
8.82871e-08
9.72816e-08
1.06411e-07
1.16276e-07
1.26684e-07
1.3685e-07
1.47291e-07
1.58037e-07
1.68882e-07
1.79578e-07
1.90059e-07
2.00274e-07
2.10215e-07
2.19816e-07
2.29104e-07
2.38014e-07
2.46538e-07
2.5482e-07
2.62661e-07
2.70777e-07
2.75735e-07
2.90108e-07
2.676e-07
3.22585e-07
1.06392e-08
1.14831e-08
1.23077e-08
1.34979e-08
1.50324e-08
1.69029e-08
1.90512e-08
2.15215e-08
2.42969e-08
2.74441e-08
3.09078e-08
3.47574e-08
3.88668e-08
4.33862e-08
4.83792e-08
5.38e-08
5.96163e-08
6.58853e-08
7.25517e-08
7.93231e-08
8.65802e-08
9.41957e-08
1.01604e-07
1.09159e-07
1.16832e-07
1.24515e-07
1.32059e-07
1.39447e-07
1.46631e-07
1.53631e-07
1.60406e-07
1.66978e-07
1.73281e-07
1.79336e-07
1.85259e-07
1.90901e-07
1.96787e-07
2.0039e-07
2.11037e-07
1.941e-07
2.38209e-07
7.32089e-09
7.94448e-09
8.60659e-09
9.52222e-09
1.06957e-08
1.21199e-08
1.37636e-08
1.56346e-08
1.77504e-08
2.01338e-08
2.27755e-08
2.56855e-08
2.88278e-08
3.22409e-08
3.59888e-08
4.00218e-08
4.43424e-08
4.89611e-08
5.38861e-08
5.88751e-08
6.42185e-08
6.9735e-08
7.50834e-08
8.047e-08
8.59341e-08
9.13616e-08
9.66911e-08
1.01878e-07
1.0693e-07
1.11825e-07
1.16572e-07
1.21166e-07
1.256e-07
1.29871e-07
1.34092e-07
1.38127e-07
1.42409e-07
1.45059e-07
1.5297e-07
1.40221e-07
1.75769e-07
4.99172e-09
5.45405e-09
5.98187e-09
6.6888e-09
7.5856e-09
8.6615e-09
9.91086e-09
1.13237e-08
1.2928e-08
1.47206e-08
1.67188e-08
1.89055e-08
2.12823e-08
2.3826e-08
2.66062e-08
2.95896e-08
3.27689e-08
3.6141e-08
3.97434e-08
4.33721e-08
4.72345e-08
5.12175e-08
5.5105e-08
5.89853e-08
6.28971e-08
6.67735e-08
7.05904e-08
7.43114e-08
7.79535e-08
8.15052e-08
8.49832e-08
8.83795e-08
9.16983e-08
9.49371e-08
9.81797e-08
1.01326e-07
1.04696e-07
1.06908e-07
1.13078e-07
1.03777e-07
1.32898e-07
3.35885e-09
3.7036e-09
4.12236e-09
4.66929e-09
5.35084e-09
6.17272e-09
7.11902e-09
8.18901e-09
9.39137e-09
1.074e-08
1.22355e-08
1.38775e-08
1.56625e-08
1.75807e-08
1.96577e-08
2.18848e-08
2.42338e-08
2.67184e-08
2.9349e-08
3.20223e-08
3.48643e-08
3.77828e-08
4.06159e-08
4.34372e-08
4.62699e-08
4.90832e-08
5.18477e-08
5.45501e-08
5.71955e-08
5.97836e-08
6.23224e-08
6.48247e-08
6.7288e-08
6.97135e-08
7.21564e-08
7.45609e-08
7.71401e-08
7.89156e-08
8.36162e-08
7.69173e-08
1.00622e-07
2.21961e-09
2.47596e-09
2.80235e-09
3.2231e-09
3.74613e-09
4.36768e-09
5.08831e-09
5.89721e-09
6.80734e-09
7.81641e-09
8.93649e-09
1.01555e-08
1.148e-08
1.28803e-08
1.43898e-08
1.6016e-08
1.77299e-08
1.95329e-08
2.14378e-08
2.33606e-08
2.53847e-08
2.74629e-08
2.94987e-08
3.15288e-08
3.35727e-08
3.5617e-08
3.76468e-08
3.96524e-08
4.1641e-08
4.36173e-08
4.5589e-08
4.7564e-08
4.95435e-08
5.15292e-08
5.35572e-08
5.5584e-08
5.77738e-08
5.93954e-08
6.32357e-08
5.84344e-08
7.80799e-08
1.4459e-09
1.64018e-09
1.89529e-09
2.21678e-09
2.60782e-09
3.07619e-09
3.61749e-09
4.22647e-09
4.90811e-09
5.6675e-09
6.50945e-09
7.43423e-09
8.4449e-09
9.53179e-09
1.07008e-08
1.19483e-08
1.32398e-08
1.45943e-08
1.60237e-08
1.74877e-08
1.90361e-08
2.06289e-08
2.21868e-08
2.37354e-08
2.52937e-08
2.68592e-08
2.84141e-08
2.9954e-08
3.14798e-08
3.30026e-08
3.45268e-08
3.60668e-08
3.76202e-08
3.91995e-08
4.08315e-08
4.25008e-08
4.42971e-08
4.57255e-08
4.8789e-08
4.55953e-08
6.20757e-08
9.39977e-10
1.09917e-09
1.3066e-09
1.55977e-09
1.85973e-09
2.21025e-09
2.60776e-09
3.05619e-09
3.5557e-09
4.11423e-09
4.72764e-09
5.39398e-09
6.10431e-09
6.84929e-09
7.64364e-09
8.51158e-09
9.42412e-09
1.03764e-08
1.13646e-08
1.23636e-08
1.34038e-08
1.44787e-08
1.55527e-08
1.6638e-08
1.7739e-08
1.88612e-08
2.00011e-08
2.11612e-08
2.234e-08
2.35441e-08
2.47769e-08
2.6046e-08
2.73483e-08
2.86877e-08
3.00837e-08
3.15171e-08
3.30686e-08
3.4341e-08
3.68785e-08
3.4533e-08
4.81251e-08
5.89508e-10
7.20569e-10
8.94645e-10
1.1056e-09
1.35108e-09
1.63041e-09
1.94029e-09
2.2795e-09
2.65114e-09
3.06447e-09
3.5275e-09
4.0486e-09
4.63218e-09
5.27715e-09
5.97219e-09
6.69781e-09
7.4482e-09
8.24085e-09
9.08692e-09
9.96871e-09
1.09005e-08
1.18571e-08
1.28106e-08
1.37648e-08
1.47285e-08
1.57059e-08
1.66946e-08
1.76976e-08
1.87217e-08
1.97758e-08
2.08643e-08
2.19977e-08
2.31816e-08
2.44264e-08
2.57495e-08
2.7151e-08
2.86774e-08
3.00773e-08
3.24639e-08
3.12689e-08
4.38345e-08
3.14076e-10
3.9882e-10
5.22167e-10
6.79666e-10
8.70796e-10
1.09497e-09
1.35034e-09
1.63194e-09
1.9377e-09
2.26353e-09
2.60604e-09
2.95796e-09
3.31629e-09
3.67411e-09
4.04544e-09
4.45227e-09
4.88488e-09
5.32806e-09
5.78907e-09
6.26563e-09
6.77722e-09
7.32454e-09
7.89374e-09
8.48439e-09
9.10028e-09
9.74658e-09
1.04248e-08
1.11367e-08
1.18834e-08
1.26689e-08
1.34965e-08
1.43695e-08
1.52876e-08
1.62525e-08
1.72734e-08
1.83379e-08
1.94946e-08
2.05225e-08
2.22959e-08
2.12277e-08
3.07685e-08
1.4735e-10
2.0563e-10
2.96263e-10
4.10566e-10
5.44616e-10
6.9778e-10
8.70422e-10
1.06367e-09
1.28208e-09
1.53249e-09
1.82296e-09
2.16241e-09
2.55939e-09
3.02073e-09
3.54983e-09
4.12601e-09
4.73369e-09
5.37546e-09
6.04733e-09
6.73789e-09
7.44902e-09
8.17379e-09
8.90191e-09
9.63257e-09
1.03735e-08
1.11305e-08
1.19085e-08
1.27153e-08
1.35619e-08
1.44603e-08
1.54225e-08
1.64638e-08
1.7596e-08
1.88335e-08
2.01965e-08
2.17e-08
2.33714e-08
2.50852e-08
2.75432e-08
2.77004e-08
3.9239e-08
1.36321e-10
2.17039e-10
3.11841e-10
4.15715e-10
5.31608e-10
6.68567e-10
8.30026e-10
1.01475e-09
1.21328e-09
1.41258e-09
1.59604e-09
1.74735e-09
1.85737e-09
1.92353e-09
1.94802e-09
1.95453e-09
1.97837e-09
2.03804e-09
2.14305e-09
2.28882e-09
2.47284e-09
2.68761e-09
2.93133e-09
3.19975e-09
3.49189e-09
3.80783e-09
4.1486e-09
4.51415e-09
4.90646e-09
5.32709e-09
5.77854e-09
6.26239e-09
6.78283e-09
7.34162e-09
7.94299e-09
8.58205e-09
9.2899e-09
9.96541e-09
1.10316e-08
1.0683e-08
1.64017e-08
5.43513e-10
1.15923e-09
1.92569e-09
2.70817e-09
3.3947e-09
3.91046e-09
4.23338e-09
4.38181e-09
4.40582e-09
4.36743e-09
4.32727e-09
4.33397e-09
4.4187e-09
4.59164e-09
4.85805e-09
5.23564e-09
5.70049e-09
6.19809e-09
6.70543e-09
7.21205e-09
7.70505e-09
8.19907e-09
8.67043e-09
9.12734e-09
9.57902e-09
1.00321e-08
1.0495e-08
1.09796e-08
1.15003e-08
1.2072e-08
1.27112e-08
1.34354e-08
1.42628e-08
1.52141e-08
1.63162e-08
1.75925e-08
1.90836e-08
2.07078e-08
2.30689e-08
2.35058e-08
3.51386e-08
20.6109
16.4537
16.8184
20.1039
11.0202
1.29393
0.45241
0.0723786
0.0060218
0.00317317
0.00277864
0.00271954
0.00252165
0.00222862
0.00195693
0.00163116
0.00135649
0.00110039
0.000893672
0.000714556
0.000575236
0.000468128
0.00038427
0.000317932
0.000264755
0.000221111
0.000185436
0.000155126
0.000126059
9.67783e-05
7.14414e-05
5.20846e-05
3.78842e-05
2.74611e-05
1.95986e-05
1.37477e-05
9.50407e-06
6.49115e-06
4.35268e-06
2.87809e-06
1.89308e-06
1.23928e-06
8.32575e-07
5.94129e-07
4.96308e-07
4.38686e-07
4.42531e-07
4.63821e-07
4.8502e-07
4.9041e-07
5.06702e-07
4.88509e-07
4.73321e-07
4.4314e-07
4.0048e-07
3.76178e-07
3.26661e-07
2.9413e-07
2.51163e-07
2.22015e-07
1.86749e-07
1.64934e-07
1.40198e-07
1.20213e-07
1.04862e-07
8.96332e-08
7.94328e-08
6.91546e-08
6.15146e-08
5.42961e-08
4.98516e-08
4.38768e-08
4.11619e-08
3.66167e-08
15.8158
17.3198
16.942
19.6456
19.7897
3.83907
0.759747
0.230505
0.0179625
0.00362625
0.00285293
0.00254082
0.00225456
0.00192837
0.00167468
0.00138852
0.00115612
0.000941503
0.000765406
0.000616454
0.000502797
0.000407941
0.000327386
0.000267504
0.000215938
0.000180004
0.000146556
0.000122471
0.000102157
8.27196e-05
6.3785e-05
4.67802e-05
3.34656e-05
2.40261e-05
1.72605e-05
1.22519e-05
8.55875e-06
5.89827e-06
3.99627e-06
2.68724e-06
1.79748e-06
1.20334e-06
8.30993e-07
5.97589e-07
4.97793e-07
4.2772e-07
4.14594e-07
4.2191e-07
4.31343e-07
4.24607e-07
4.35278e-07
4.15801e-07
4.01769e-07
3.75559e-07
3.38129e-07
3.19239e-07
2.77678e-07
2.51674e-07
2.15051e-07
1.91882e-07
1.62053e-07
1.44102e-07
1.23855e-07
1.06534e-07
9.39424e-08
8.08093e-08
7.21051e-08
6.33127e-08
5.66935e-08
5.02346e-08
4.66083e-08
4.0905e-08
3.89642e-08
3.41767e-08
22.2127
21.6604
17.6955
17.5997
23.4033
10.7277
0.866616
0.665052
0.0946075
0.00550322
0.00322584
0.00258022
0.00212535
0.00173994
0.00145275
0.00118813
0.000977983
0.000795292
0.000644934
0.000524585
0.000428815
0.000340507
0.000268913
0.000220195
0.000183108
0.000152333
0.000126593
9.81124e-05
7.63933e-05
6.25434e-05
5.15187e-05
4.06885e-05
3.02141e-05
2.16994e-05
1.54942e-05
1.10673e-05
7.89153e-06
5.5722e-06
3.88545e-06
2.68532e-06
1.86727e-06
1.31494e-06
9.36768e-07
7.0861e-07
5.67532e-07
4.82235e-07
4.48778e-07
4.16151e-07
4.0592e-07
3.90198e-07
3.82613e-07
3.60322e-07
3.42743e-07
3.18956e-07
2.88803e-07
2.64826e-07
2.34414e-07
2.11196e-07
1.82494e-07
1.6244e-07
1.39359e-07
1.22824e-07
1.07434e-07
9.30829e-08
8.24534e-08
7.18489e-08
6.41299e-08
5.69918e-08
5.14197e-08
4.57744e-08
4.28571e-08
3.75297e-08
3.63333e-08
3.14303e-08
22.1541
24.5093
20.149
17.019
21.4381
18.148
2.09539
1.23509
0.376891
0.0225315
0.00345868
0.00278022
0.00212285
0.00164702
0.00131093
0.00104919
0.000847607
0.00068452
0.000554922
0.00045337
0.000362963
0.000282789
0.000233533
0.0001933
0.000182355
0.000164608
0.000131284
0.000100351
7.21335e-05
5.05945e-05
3.89427e-05
3.20925e-05
2.60232e-05
1.99698e-05
1.45613e-05
1.03842e-05
7.44348e-06
5.35814e-06
3.84697e-06
2.74696e-06
1.97808e-06
1.44325e-06
1.05809e-06
8.21686e-07
6.47457e-07
5.41846e-07
4.84424e-07
4.22703e-07
3.92462e-07
3.663e-07
3.43271e-07
3.16598e-07
2.95216e-07
2.72172e-07
2.46865e-07
2.20781e-07
1.978e-07
1.77125e-07
1.54678e-07
1.37259e-07
1.19383e-07
1.04705e-07
9.28609e-08
8.11573e-08
7.22133e-08
6.36831e-08
5.69918e-08
5.11465e-08
4.65108e-08
4.15904e-08
3.93026e-08
3.4302e-08
3.37515e-08
2.88015e-08
25.5543
29.9639
24.7869
18.046
19.1199
21.4668
6.81674
1.26606
1.11393
0.139382
0.00462407
0.00287114
0.00221069
0.00162067
0.00122869
0.000957669
0.000755775
0.000604801
0.000490318
0.000396912
0.000307573
0.000243566
0.000213191
0.000197304
0.000195474
0.000173156
0.000153188
0.000128432
9.13613e-05
6.07057e-05
3.86461e-05
2.6448e-05
2.05737e-05
1.68714e-05
1.34091e-05
1.00882e-05
7.33209e-06
5.28127e-06
3.83065e-06
2.81541e-06
2.08566e-06
1.55907e-06
1.17497e-06
9.15695e-07
7.246e-07
5.94284e-07
5.10995e-07
4.34439e-07
3.86712e-07
3.47407e-07
3.13949e-07
2.82102e-07
2.57329e-07
2.33874e-07
2.10453e-07
1.85978e-07
1.67152e-07
1.49081e-07
1.31091e-07
1.16228e-07
1.02009e-07
8.95961e-08
8.0289e-08
7.07675e-08
6.33393e-08
5.64284e-08
5.07654e-08
4.5927e-08
4.20922e-08
3.77985e-08
3.60659e-08
3.13444e-08
3.13339e-08
2.63764e-08
30.4374
35.806
30.4813
21.1407
18.0202
21.0347
13.5812
1.39717
2.10027
0.562584
0.0330148
0.00261902
0.00234132
0.00166171
0.00119334
0.000901781
0.000693898
0.000549386
0.000442556
0.000349887
0.000266896
0.000223629
0.000206711
0.000207178
0.00017546
0.000125879
0.000105971
8.9447e-05
8.91404e-05
7.59672e-05
5.34893e-05
3.29643e-05
2.03588e-05
1.42478e-05
1.13289e-05
9.26226e-06
7.27459e-06
5.44437e-06
3.98867e-06
2.9513e-06
2.21457e-06
1.68983e-06
1.30648e-06
1.02667e-06
8.16585e-07
6.59788e-07
5.5176e-07
4.58995e-07
3.94802e-07
3.40888e-07
2.98075e-07
2.59797e-07
2.30883e-07
2.0563e-07
1.82291e-07
1.59329e-07
1.42684e-07
1.26612e-07
1.117e-07
9.89668e-08
8.7375e-08
7.7055e-08
6.96374e-08
6.1831e-08
5.57002e-08
5.00739e-08
4.53513e-08
4.13338e-08
3.81734e-08
3.44126e-08
3.31672e-08
2.86947e-08
2.91306e-08
2.42046e-08
36.0508
41.3643
36.2065
26.092
18.7726
19.7909
18.6115
4.20867
2.25923
1.62078
0.206071
0.00480344
0.00225414
0.00181081
0.00121706
0.000878154
0.000658215
0.000513572
0.000405677
0.000311687
0.000244605
0.000222122
0.000209343
0.000188369
9.0845e-05
5.59246e-05
2.86143e-05
2.65895e-05
3.09496e-05
4.54779e-05
5.39812e-05
4.46546e-05
2.97012e-05
1.74276e-05
1.09792e-05
8.05118e-06
6.56914e-06
5.3909e-06
4.25729e-06
3.24914e-06
2.4466e-06
1.87048e-06
1.4609e-06
1.16405e-06
9.32471e-07
7.51084e-07
6.19011e-07
5.04056e-07
4.21122e-07
3.52002e-07
2.97964e-07
2.51741e-07
2.16972e-07
1.88345e-07
1.63647e-07
1.40392e-07
1.24441e-07
1.09405e-07
9.64215e-08
8.51573e-08
7.54426e-08
6.67223e-08
6.07071e-08
5.42343e-08
4.91393e-08
4.45412e-08
4.06224e-08
3.72862e-08
3.46957e-08
3.13848e-08
3.05596e-08
2.63215e-08
2.71225e-08
2.22761e-08
41.8717
46.2077
41.3726
31.682
21.7054
19.2336
20.8179
10.2671
1.58891
2.94986
0.80727
0.0578872
0.0016306
0.00187157
0.00132996
0.000894398
0.000647479
0.000494068
0.000377379
0.000285985
0.000241069
0.000232595
0.000195163
0.000111421
1.76787e-05
2.02317e-06
2.01602e-06
3.1906e-06
2.15861e-07
5.03187e-06
1.39192e-05
2.7957e-05
3.41562e-05
2.7482e-05
1.71949e-05
9.91904e-06
6.45861e-06
4.91833e-06
4.09683e-06
3.43226e-06
2.7606e-06
2.16019e-06
1.68268e-06
1.33492e-06
1.06711e-06
8.622e-07
7.08582e-07
5.7174e-07
4.67253e-07
3.81779e-07
3.13583e-07
2.57837e-07
2.15146e-07
1.81642e-07
1.53914e-07
1.28779e-07
1.12142e-07
9.70208e-08
8.5001e-08
7.44475e-08
6.59745e-08
5.83228e-08
5.32853e-08
4.78458e-08
4.35297e-08
3.97462e-08
3.64828e-08
3.37034e-08
3.15914e-08
2.86628e-08
2.81905e-08
2.41759e-08
2.52704e-08
2.05458e-08
47.3313
50.3187
46.0074
36.987
26.1415
19.8429
21.1496
16.6367
2.79725
3.03336
2.13981
0.314959
0.0106517
0.00144948
0.00143324
0.000966377
0.000664711
0.0004887
0.000359193
0.000276088
0.000250411
0.000232271
0.000141458
2.85544e-05
6.55936e-07
4.09733e-08
3.62808e-07
1.32005e-07
4.1275e-10
1.8985e-08
3.93448e-08
1.30281e-06
8.28111e-06
1.8112e-05
2.12865e-05
1.64453e-05
1.01352e-05
6.00085e-06
4.07853e-06
3.22839e-06
2.75626e-06
2.36928e-06
1.96377e-06
1.58465e-06
1.25527e-06
1.00144e-06
8.14145e-07
6.55394e-07
5.30811e-07
4.29346e-07
3.45249e-07
2.77669e-07
2.24945e-07
1.84705e-07
1.52346e-07
1.2398e-07
1.05418e-07
8.91561e-08
7.71623e-08
6.66226e-08
5.87696e-08
5.16989e-08
4.72488e-08
4.25662e-08
3.87993e-08
3.56384e-08
3.2884e-08
3.05472e-08
2.88282e-08
2.62243e-08
2.60361e-08
2.2236e-08
2.35578e-08
1.89792e-08
50.7192
52.4902
49.1583
41.1076
30.6161
21.784
20.5198
20.4302
7.53899
1.5384
3.52817
1.12353
0.113259
0.00252426
0.0012471
0.00107196
0.000720347
0.000499365
0.000354932
0.000280632
0.000263452
0.000209002
7.32343e-05
3.89626e-06
8.81417e-08
1.20827e-06
7.8647e-05
1.4368e-05
0.000382121
6.31051e-05
4.48387e-10
1.64972e-09
2.13956e-08
1.02216e-06
6.45466e-06
1.30973e-05
1.42093e-05
1.06179e-05
6.64632e-06
4.08655e-06
2.84346e-06
2.29445e-06