/*--------------------------------*- C++ -*----------------------------------*\
| =========                 |                                                 |
| \\      /  F ield         | OpenFOAM: The Open Source CFD Toolbox           |
|  \\    /   O peration     | Version:  2312                                  |
|   \\  /    A nd           | Website:  www.openfoam.com                      |
|    \\/     M anipulation  |                                                 |
\*---------------------------------------------------------------------------*/
FoamFile
{
    version     2.0;
    format      ascii;
    arch        "LSB;label=32;scalar=64";
    class       volScalarField;
    location    "200";
    object      turbulenceProperties:nut;
}
// * * * * * * * * * * * * * * * * * * * * * * * * * * * * * * * * * * * * * //

dimensions      [0 2 -1 0 0 0 0];

internalField   nonuniform List<scalar> 
11040
(
2.09872e-05
4.48092e-05
6.57992e-05
1.92933e-05
5.80494e-06
7.69464e-05
0.000134558
0.000146864
0.000137663
0.000124918
0.000108079
8.35092e-05
4.54802e-05
3.70745e-05
3.59988e-05
4.7452e-05
8.71747e-05
0.000117989
0.000136766
0.000103569
0.000120516
0.000146653
0.000168428
0.000210748
0.000214878
0.000192728
0.000164369
0.000118291
7.15182e-05
0.000213656
0.000277485
0.000282853
0.000269099
0.000283052
0.000294066
0.000314022
0.000330948
0.000390645
0.000505268
0.000601314
0.000578278
4.91153e-06
1.16024e-05
5.38128e-05
8.11747e-05
9.92681e-05
0.000419049
0.00065647
0.000679664
0.000616561
0.00054192
0.000505377
0.000448346
0.000402141
0.00037644
0.000367565
0.000376746
0.000400894
0.000444624
0.000505726
0.000586353
0.000681198
0.000781857
0.000775526
0.000685824
0.000571856
0.00049334
0.000492675
0.000528175
0.000519498
0.000808348
0.00107124
0.00124093
0.00136331
0.00145392
0.0015343
0.00159108
0.00162309
0.00163588
0.00164543
0.00161949
0.00141152
6.81764e-06
5.31006e-06
1.16344e-05
4.35879e-05
6.49263e-05
0.000249171
0.000627107
0.00100046
0.00114434
0.00118556
0.00114432
0.00103009
0.00091787
0.000865513
0.000843596
0.00087184
0.000927927
0.00100828
0.0011212
0.00127053
0.00145113
0.00167244
0.001737
0.00160145
0.00138129
0.00121077
0.00122214
0.00131974
0.00125639
0.00196266
0.00251479
0.00287266
0.00312824
0.00331607
0.00347167
0.00357864
0.00365483
0.00369214
0.00371198
0.00366696
0.00337323
6.20312e-06
6.534e-06
5.13525e-06
1.11123e-05
2.03859e-05
7.36785e-05
0.000298977
0.000739296
0.00124045
0.00154338
0.00167695
0.00170126
0.00165292
0.0015727
0.00151987
0.00156909
0.00167309
0.00180448
0.001974
0.00218542
0.00244216
0.00281167
0.00303208
0.00289951
0.00257073
0.00232183
0.00240124
0.00250707
0.00247632
0.00369964
0.00459928
0.0052013
0.00562378
0.00592681
0.00616038
0.00631222
0.00641188
0.00645404
0.00647028
0.00640558
0.0060419
6.21695e-06
6.3955e-06
5.93303e-06
5.63341e-06
7.45993e-06
6.93943e-06
5.36905e-05
0.000294007
0.000762878
0.0013719
0.00185999
0.00211616
0.00223601
0.00228944
0.00234021
0.00246837
0.00268358
0.00289843
0.00313475
0.00337493
0.00367034
0.0041501
0.00463247
0.00462883
0.00424746
0.00397291
0.00394901
0.00394612
0.00435415
0.00616385
0.00747137
0.0083639
0.00897843
0.00940242
0.00970186
0.00987705
0.00997157
0.00999296
0.0099859
0.00990498
0.00950728
6.23023e-06
6.20508e-06
6.34969e-06
5.85709e-06
6.10705e-06
4.56595e-06
1.19411e-06
1.9065e-05
0.000244632
0.000709771
0.00138737
0.00205367
0.00250568
0.00277355
0.00297552
0.00324271
0.00366924
0.00419518
0.004668
0.00491759
0.00516771
0.00564282
0.00641912
0.00682385
0.00656673
0.00601707
0.00576981
0.00580806
0.00711303
0.00955738
0.0113234
0.0125393
0.0133571
0.0138889
0.0142196
0.0143684
0.0144008
0.0143487
0.0142774
0.0141794
0.0137933
6.20764e-06
6.21444e-06
6.23426e-06
6.22965e-06
6.06095e-06
6.37349e-06
3.35173e-06
1.07288e-07
6.56989e-07
0.000159935
0.000593178
0.0012985
0.00211721
0.00280665
0.00330481
0.00377249
0.00439639
0.00522089
0.00612756
0.00684579
0.00700733
0.00728634
0.00821664
0.00942543
0.00920173
0.00836123
0.00800305
0.00827351
0.0110005
0.0141499
0.01641
0.0179571
0.0189678
0.0195671
0.0198574
0.0198861
0.0197549
0.0195318
0.0193157
0.0191684
0.0188268
6.2023e-06
6.21056e-06
6.20559e-06
6.23341e-06
6.21315e-06
6.17076e-06
7.0688e-06
2.99614e-06
3.35946e-11
6.71387e-08
7.55804e-05
0.000441132
0.00113176
0.00205633
0.00299333
0.00383118
0.00472336
0.0058395
0.00713259
0.00838031
0.00916191
0.00919104
0.00988518
0.0118359
0.0119488
0.0110631
0.0108302
0.0119412
0.0162568
0.0202959
0.0230873
0.0249373
0.0260801
0.0266601
0.0267858
0.0265451
0.026078
0.0255144
0.0250021
0.0246987
0.0243989
6.19511e-06
6.19744e-06
6.20589e-06
6.19307e-06
6.25683e-06
6.13117e-06
6.3945e-06
7.37063e-06
3.74592e-06
9.43756e-09
5.48352e-07
3.16486e-06
0.00028461
0.000911909
0.00188359
0.00306209
0.00434927
0.00581107
0.0074841
0.00920062
0.010632
0.0113338
0.0116233
0.0136735
0.0146895
0.0141816
0.014304
0.0170986
0.023147
0.028352
0.0317832
0.0338748
0.0350539
0.0354924
0.0352431
0.0344958
0.0334239
0.0322464
0.0311754
0.0304945
0.0301275
6.18696e-06
6.19108e-06
6.19606e-06
6.19939e-06
6.1987e-06
6.25015e-06
6.06901e-06
6.52018e-06
7.70591e-06
4.68051e-06
6.25577e-08
1.57897e-08
2.03249e-05
0.000123645
0.000652578
0.00161188
0.00301272
0.00480554
0.00688236
0.00904679
0.0110349
0.0124831
0.0133989
0.0148306
0.0171696
0.0176502
0.0182639
0.0235367
0.0312884
0.0374039
0.0418583
0.0447985
0.0462858
0.0464671
0.0455881
0.0440789
0.0419888
0.039763
0.0377198
0.0362616
0.0355626
6.17911e-06
6.18529e-06
6.18948e-06
6.19441e-06
6.19455e-06
6.20717e-06
6.21684e-06
6.09012e-06
6.44232e-06
7.96388e-06
5.6484e-06
4.73904e-07
2.88304e-09
9.99559e-07
8.79878e-06
0.000384652
0.00126425
0.00281726
0.00503869
0.00760901
0.0100882
0.0121647
0.013882
0.01576
0.0187102
0.0210166
0.0233017
0.0309151
0.0391675
0.0460336
0.0513939
0.0552748
0.0575891
0.0583684
0.0576309
0.0553831
0.0518728
0.0481719
0.0445629
0.0417054
0.0401173
6.17197e-06
6.17898e-06
6.18465e-06
6.18882e-06
6.19328e-06
6.193e-06
6.20895e-06
6.20339e-06
6.08957e-06
6.3571e-06
7.81554e-06
7.10069e-06
1.3868e-06
4.03379e-15
1.00792e-08
2.53403e-08
0.000166616
0.000853932
0.00240125
0.00479452
0.00757583
0.0101104
0.0124114
0.0151002
0.0183783
0.0230905
0.0280546
0.0370618
0.0458192
0.0533394
0.0594339
0.0640495
0.0670266
0.0683463
0.0680196
0.0660537
0.0624609
0.057344
0.0516672
0.0467504
0.0434469
6.16536e-06
6.17326e-06
6.1794e-06
6.18447e-06
6.18837e-06
6.19291e-06
6.19293e-06
6.20338e-06
6.2039e-06
6.09962e-06
6.25966e-06
7.43145e-06
7.91224e-06
3.21432e-06
3.28807e-09
4.56354e-10
7.80248e-07
1.4764e-09
0.000440639
0.00174337
0.00392776
0.00645291
0.00890087
0.0119491
0.016559
0.0227547
0.0309118
0.0407349
0.0501363
0.0583637
0.0651782
0.0704826
0.0740802
0.0758913
0.0759034
0.0741411
0.070672
0.0655536
0.0588676
0.0516637
0.0459718
6.15937e-06
6.16795e-06
6.17449e-06
6.17975e-06
6.18428e-06
6.18805e-06
6.19196e-06
6.19369e-06
6.20307e-06
6.20589e-06
6.11915e-06
6.16992e-06
7.08562e-06
7.91851e-06
5.47331e-06
1.33958e-07
1.49598e-09
3.04294e-13
3.82261e-05
0.000124807
0.000963977
0.00255151
0.00445436
0.00677269
0.0110626
0.0188176
0.0290815
0.0400946
0.0505539
0.0597908
0.0675532
0.0737489
0.078186
0.0807288
0.081317
0.0799459
0.0766825
0.0716302
0.0648606
0.0567009
0.0484935
6.15389e-06
6.16294e-06
6.16968e-06
6.17502e-06
6.17959e-06
6.18368e-06
6.18729e-06
6.19106e-06
6.19357e-06
6.20213e-06
6.20709e-06
6.15078e-06
6.10996e-06
6.68002e-06
7.91822e-06
7.43606e-06
1.40833e-06
8.96124e-09
3.27755e-12
1.90851e-07
0.00014222
0.000287747
0.00114006
0.00224725
0.00436057
0.0100874
0.0204095
0.0328281
0.0449709
0.055832
0.0650908
0.0726723
0.0784618
0.0822832
0.084017
0.0836015
0.0810549
0.0764599
0.0698934
0.0615275
0.0517926
6.14889e-06
6.15812e-06
6.16478e-06
6.17e-06
6.17447e-06
6.17854e-06
6.18231e-06
6.18583e-06
6.18965e-06
6.19262e-06
6.20041e-06
6.20848e-06
6.17701e-06
6.0966e-06
6.3559e-06
7.60132e-06
7.95308e-06
4.67392e-06
3.97964e-08
8.1306e-10
3.45354e-15
2.38314e-06
2.6776e-11
0.000161588
0.000423624
0.00201005
0.00779683
0.0184955
0.0315629
0.0444279
0.0559175
0.0656732
0.0736097
0.0795493
0.0832996
0.0847216
0.0837609
0.0804363
0.0747679
0.0668774
0.056854
6.14416e-06
6.15319e-06
6.15953e-06
6.16446e-06
6.16874e-06
6.17266e-06
6.17644e-06
6.18004e-06
6.18356e-06
6.18759e-06
6.19135e-06
6.19734e-06
6.21096e-06
6.19164e-06
6.12081e-06
6.14134e-06
7.08189e-06
7.93738e-06
7.12883e-06
1.47453e-06
5.02579e-11
2.83122e-11
2.10888e-15
1.8233e-07
5.47389e-06
0.000247389
0.000425894
0.00414527
0.0130153
0.0253422
0.038597
0.0510619
0.0619517
0.0709545
0.0777777
0.082156
0.0839207
0.0830139
0.0793724
0.0730377
0.0640445
6.13958e-06
6.14803e-06
6.15391e-06
6.1585e-06
6.16253e-06
6.16631e-06
6.16999e-06
6.17363e-06
6.1772e-06
6.18092e-06
6.18521e-06
6.18972e-06
6.19506e-06
6.21016e-06
6.20332e-06
6.13721e-06
6.10311e-06
6.52893e-06
7.89489e-06
7.99027e-06
5.33831e-06
2.31279e-07
2.70919e-09
1.17074e-11
0
0
3.67466e-06
0.000552997
0.00127426
0.00668819
0.016933
0.0298469
0.0432136
0.0555301
0.0660232
0.0741953
0.0797162
0.0824008
0.0820901
0.0787607
0.0724101
6.13499e-06
6.14281e-06
6.14825e-06
6.15255e-06
6.15638e-06
6.16004e-06
6.16363e-06
6.16723e-06
6.17082e-06
6.17446e-06
6.17854e-06
6.18333e-06
6.18828e-06
6.19441e-06
6.2068e-06
6.21587e-06
6.15789e-06
6.10594e-06
6.22527e-06
7.27934e-06
8.39026e-06
6.84346e-06
3.33616e-06
2.65341e-07
2.83647e-09
5.38807e-12
0
0
6.93372e-05
0.000844437
0.00193222
0.00879195
0.0199444
0.0334281
0.0470433
0.0591633
0.0688939
0.0758626
0.0798904
0.080954
0.0790807
6.13061e-06
6.13787e-06
6.14297e-06
6.14707e-06
6.15078e-06
6.15435e-06
6.1579e-06
6.16146e-06
6.16505e-06
6.16869e-06
6.1726e-06
6.17713e-06
6.18247e-06
6.18777e-06
6.19441e-06
6.20543e-06
6.21852e-06
6.19307e-06
6.10576e-06
6.15347e-06
6.67522e-06
7.90333e-06
8.22526e-06
6.88508e-06
3.52472e-06
1.54199e-07
1.71194e-09
6.96605e-13
0
0
0.000121021
0.00111996
0.00274993
0.00995195
0.0211135
0.0343767
0.0476002
0.0592461
0.068441
0.0747898
0.0782305
6.12643e-06
6.13322e-06
6.13808e-06
6.14206e-06
6.14572e-06
6.14927e-06
6.1528e-06
6.15634e-06
6.15994e-06
6.16356e-06
6.16737e-06
6.1717e-06
6.17671e-06
6.18246e-06
6.18833e-06
6.19487e-06
6.20596e-06
6.21972e-06
6.21603e-06
6.13932e-06
6.10895e-06
6.3413e-06
7.03476e-06
8.09462e-06
8.54435e-06
7.30153e-06
2.57864e-06
2.56857e-08
4.58261e-10
1.98726e-14
0
0
0.000183117
1.22329e-05
0.00254108
0.00856409
0.0177553
0.028897
0.0404475
0.0510395
0.0598087
6.12247e-06
6.1289e-06
6.1336e-06
6.13753e-06
6.14119e-06
6.14474e-06
6.14827e-06
6.15182e-06
6.15541e-06
6.15904e-06
6.16278e-06
6.16695e-06
6.1717e-06
6.17714e-06
6.18318e-06
6.18957e-06
6.19627e-06
6.20626e-06
6.22099e-06
6.22546e-06
6.18584e-06
6.11995e-06
6.16923e-06
6.41341e-06
7.25117e-06
8.52957e-06
8.883e-06
7.33204e-06
1.35941e-06
9.53172e-10
8.01271e-11
5.6915e-18
0
2.66216e-10
0.000145183
0.000722673
0.00104163
0.00451757
0.0101501
0.017381
0.0253735
6.11876e-06
6.12491e-06
6.12952e-06
6.13346e-06
6.13713e-06
6.14071e-06
6.14425e-06
6.14779e-06
6.15138e-06
6.15501e-06
6.15872e-06
6.16275e-06
6.1673e-06
6.17244e-06
6.17818e-06
6.18447e-06
6.19117e-06
6.19819e-06
6.20711e-06
6.22114e-06
6.23088e-06
6.22211e-06
6.17338e-06
6.1178e-06
6.15435e-06
6.48545e-06
7.61871e-06
8.88348e-06
8.46191e-06
6.42484e-06
8.62345e-07
3.5874e-13
2.37674e-11
4.48839e-14
0
0
2.28652e-05
0.000252047
0.000724565
0.000809429
0.00289645
6.11529e-06
6.12125e-06
6.12583e-06
6.1298e-06
6.13351e-06
6.1371e-06
6.14065e-06
6.14418e-06
6.14774e-06
6.15135e-06
6.15502e-06
6.15892e-06
6.1633e-06
6.1682e-06
6.17363e-06
6.17959e-06
6.18608e-06
6.19296e-06
6.20022e-06
6.20841e-06
6.22006e-06
6.23434e-06
6.24105e-06
6.22834e-06
6.15332e-06
6.08076e-06
6.18887e-06
6.63779e-06
7.84145e-06
8.96539e-06
7.79179e-06
5.68432e-06
1.31873e-06
3.72217e-09
2.31536e-10
3.70149e-12
0
0
0
7.6962e-06
0.000134945
6.11208e-06
6.11791e-06
6.12249e-06
6.1265e-06
6.13024e-06
6.13385e-06
6.13739e-06
6.14091e-06
6.14443e-06
6.14801e-06
6.15163e-06
6.1554e-06
6.15959e-06
6.16426e-06
6.16942e-06
6.17505e-06
6.18115e-06
6.18772e-06
6.19474e-06
6.20199e-06
6.20993e-06
6.21958e-06
6.23352e-06
6.24991e-06
6.2539e-06
6.218e-06
6.1344e-06
6.09537e-06
6.27197e-06
6.77939e-06
7.67451e-06
8.53746e-06
7.98719e-06
5.68757e-06
3.12952e-06
4.02236e-07
3.09236e-09
1.95296e-11
6.36719e-12
1.97666e-13
0
6.10912e-06
6.11487e-06
6.11947e-06
6.12351e-06
6.12727e-06
6.13088e-06
6.1344e-06
6.13789e-06
6.14137e-06
6.1449e-06
6.14847e-06
6.15214e-06
6.15615e-06
6.16058e-06
6.16545e-06
6.17075e-06
6.17647e-06
6.1826e-06
6.18917e-06
6.19613e-06
6.20348e-06
6.21114e-06
6.21968e-06
6.23114e-06
6.24835e-06
6.26185e-06
6.25405e-06
6.21355e-06
6.14715e-06
6.14817e-06
6.31966e-06
6.68249e-06
7.34263e-06
7.9167e-06
8.08797e-06
7.09103e-06
5.04436e-06
2.63301e-06
9.90603e-07
3.47993e-08
5.90527e-10
6.1064e-06
6.1121e-06
6.11671e-06
6.12077e-06
6.12453e-06
6.12813e-06
6.13162e-06
6.13506e-06
6.13849e-06
6.14195e-06
6.14545e-06
6.14904e-06
6.15288e-06
6.15709e-06
6.16169e-06
6.16666e-06
6.17201e-06
6.17772e-06
6.1838e-06
6.19021e-06
6.19709e-06
6.20442e-06
6.21178e-06
6.2194e-06
6.22894e-06
6.24204e-06
6.25691e-06
6.26545e-06
6.25416e-06
6.22356e-06
6.18938e-06
6.18283e-06
6.2837e-06
6.52018e-06
6.86274e-06
7.36062e-06
7.73454e-06
7.70417e-06
7.24232e-06
6.05184e-06
4.52542e-06
6.10391e-06
6.10956e-06
6.11419e-06
6.11824e-06
6.12198e-06
6.12554e-06
6.12898e-06
6.13236e-06
6.13572e-06
6.1391e-06
6.14253e-06
6.14602e-06
6.14971e-06
6.15371e-06
6.15806e-06
6.16274e-06
6.16773e-06
6.17304e-06
6.17866e-06
6.18454e-06
6.1908e-06
6.19749e-06
6.20443e-06
6.21144e-06
6.21847e-06
6.22628e-06
6.23589e-06
6.24752e-06
6.25885e-06
6.26437e-06
6.2595e-06
6.24233e-06
6.22e-06
6.21279e-06
6.23966e-06
6.33743e-06
6.5121e-06
6.74835e-06
7.01372e-06
7.31279e-06
7.5068e-06
6.10162e-06
6.10724e-06
6.11184e-06
6.11587e-06
6.11957e-06
6.12306e-06
6.12643e-06
6.12973e-06
6.13302e-06
6.13631e-06
6.13965e-06
6.14304e-06
6.14658e-06
6.15039e-06
6.1545e-06
6.1589e-06
6.16358e-06
6.16851e-06
6.17371e-06
6.17912e-06
6.18483e-06
6.19084e-06
6.19706e-06
6.20346e-06
6.20993e-06
6.21638e-06
6.22297e-06
6.23016e-06
6.23842e-06
6.24738e-06
6.25586e-06
6.26158e-06
6.26152e-06
6.25495e-06
6.24382e-06
6.23285e-06
6.2314e-06
6.24919e-06
6.29137e-06
6.37004e-06
6.46697e-06
6.09952e-06
6.10509e-06
6.10965e-06
6.11362e-06
6.11724e-06
6.12065e-06
6.12394e-06
6.12715e-06
6.13034e-06
6.13354e-06
6.13679e-06
6.14008e-06
6.14347e-06
6.1471e-06
6.15098e-06
6.15512e-06
6.15949e-06
6.16408e-06
6.16889e-06
6.17387e-06
6.17909e-06
6.18452e-06
6.19007e-06
6.19574e-06
6.2015e-06
6.20728e-06
6.213e-06
6.21866e-06
6.22435e-06
6.23026e-06
6.23652e-06
6.24305e-06
6.24928e-06
6.25431e-06
6.25714e-06
6.25688e-06
6.25359e-06
6.24816e-06
6.2421e-06
6.23772e-06
6.23677e-06
6.09758e-06
6.10307e-06
6.10756e-06
6.11144e-06
6.11497e-06
6.11828e-06
6.12146e-06
6.12458e-06
6.12768e-06
6.13078e-06
6.13392e-06
6.13711e-06
6.14038e-06
6.14383e-06
6.1475e-06
6.15138e-06
6.15546e-06
6.15973e-06
6.16417e-06
6.16875e-06
6.17352e-06
6.17844e-06
6.18341e-06
6.18844e-06
6.19349e-06
6.19855e-06
6.20356e-06
6.20847e-06
6.21324e-06
6.21786e-06
6.22235e-06
6.22676e-06
6.23114e-06
6.23546e-06
6.23958e-06
6.24323e-06
6.24611e-06
6.24795e-06
6.24852e-06
6.24753e-06
6.24653e-06
6.09578e-06
6.10117e-06
6.10555e-06
6.10932e-06
6.11273e-06
6.11592e-06
6.119e-06
6.12201e-06
6.12501e-06
6.12801e-06
6.13104e-06
6.13413e-06
6.13727e-06
6.14056e-06
6.14403e-06
6.14768e-06
6.1515e-06
6.15546e-06
6.15957e-06
6.16378e-06
6.16813e-06
6.17258e-06
6.17704e-06
6.18151e-06
6.18596e-06
6.19036e-06
6.19468e-06
6.1989e-06
6.20298e-06
6.20688e-06
6.21057e-06
6.21404e-06
6.21727e-06
6.22027e-06
6.22305e-06
6.2256e-06
6.22788e-06
6.22989e-06
6.23149e-06
6.23271e-06
6.23378e-06
6.0941e-06
6.09935e-06
6.10359e-06
6.10722e-06
6.11049e-06
6.11357e-06
6.11653e-06
6.11943e-06
6.12232e-06
6.12522e-06
6.12815e-06
6.13112e-06
6.13415e-06
6.13729e-06
6.14058e-06
6.14402e-06
6.1476e-06
6.1513e-06
6.1551e-06
6.15898e-06
6.16295e-06
6.16698e-06
6.17099e-06
6.17497e-06
6.17889e-06
6.18274e-06
6.18648e-06
6.19008e-06
6.19354e-06
6.19682e-06
6.19989e-06
6.20274e-06
6.20535e-06
6.2077e-06
6.20978e-06
6.21158e-06
6.21309e-06
6.21435e-06
6.21524e-06
6.216e-06
6.21638e-06
6.0925e-06
6.09758e-06
6.10165e-06
6.10513e-06
6.10826e-06
6.1112e-06
6.11404e-06
6.11683e-06
6.11962e-06
6.12241e-06
6.12524e-06
6.12811e-06
6.13102e-06
6.13402e-06
6.13714e-06
6.14039e-06
6.14375e-06
6.1472e-06
6.15073e-06
6.15431e-06
6.15796e-06
6.16163e-06
6.16525e-06
6.16881e-06
6.17229e-06
6.17567e-06
6.17892e-06
6.18203e-06
6.18497e-06
6.18773e-06
6.1903e-06
6.19264e-06
6.19476e-06
6.19664e-06
6.19828e-06
6.19966e-06
6.20076e-06
6.20164e-06
6.20216e-06
6.20265e-06
6.20252e-06
6.09097e-06
6.09584e-06
6.09972e-06
6.10302e-06
6.106e-06
6.10882e-06
6.11154e-06
6.11423e-06
6.11691e-06
6.11961e-06
6.12233e-06
6.12509e-06
6.12789e-06
6.13075e-06
6.13371e-06
6.13678e-06
6.13994e-06
6.14316e-06
6.14645e-06
6.14976e-06
6.15312e-06
6.15647e-06
6.15975e-06
6.16296e-06
6.16606e-06
6.16905e-06
6.17191e-06
6.17461e-06
6.17715e-06
6.1795e-06
6.18166e-06
6.18361e-06
6.18535e-06
6.18688e-06
6.18818e-06
6.18925e-06
6.19008e-06
6.19071e-06
6.19104e-06
6.19139e-06
6.19093e-06
6.08948e-06
6.09411e-06
6.09777e-06
6.10089e-06
6.10373e-06
6.10642e-06
6.10903e-06
6.11162e-06
6.11421e-06
6.11681e-06
6.11944e-06
6.12209e-06
6.12479e-06
6.12752e-06
6.13033e-06
6.13323e-06
6.13619e-06
6.1392e-06
6.14226e-06
6.14533e-06
6.14842e-06
6.15149e-06
6.15447e-06
6.15737e-06
6.16015e-06
6.16282e-06
6.16534e-06
6.16771e-06
6.16992e-06
6.17195e-06
6.17379e-06
6.17544e-06
6.1769e-06
6.17816e-06
6.17921e-06
6.18006e-06
6.18071e-06
6.18118e-06
6.1814e-06
6.18162e-06
6.18103e-06
6.08802e-06
6.09236e-06
6.0958e-06
6.09874e-06
6.10143e-06
6.104e-06
6.10653e-06
6.10903e-06
6.11153e-06
6.11405e-06
6.11658e-06
6.11914e-06
6.12173e-06
6.12435e-06
6.12702e-06
6.12975e-06
6.13253e-06
6.13535e-06
6.13819e-06
6.14104e-06
6.14389e-06
6.1467e-06
6.14942e-06
6.15204e-06
6.15455e-06
6.15694e-06
6.15918e-06
6.16128e-06
6.16321e-06
6.16498e-06
6.16658e-06
6.16799e-06
6.16923e-06
6.17029e-06
6.17117e-06
6.17187e-06
6.17239e-06
6.17276e-06
6.17293e-06
6.17304e-06
6.17272e-06
6.08656e-06
6.09059e-06
6.09379e-06
6.09655e-06
6.09911e-06
6.10159e-06
6.10403e-06
6.10645e-06
6.10889e-06
6.11132e-06
6.11378e-06
6.11625e-06
6.11874e-06
6.12124e-06
6.12378e-06
6.12637e-06
6.12898e-06
6.13162e-06
6.13426e-06
6.1369e-06
6.13953e-06
6.14211e-06
6.14459e-06
6.14697e-06
6.14925e-06
6.15139e-06
6.1534e-06
6.15527e-06
6.15698e-06
6.15854e-06
6.15993e-06
6.16117e-06
6.16223e-06
6.16314e-06
6.16389e-06
6.16447e-06
6.16491e-06
6.16522e-06
6.16534e-06
6.16538e-06
6.16533e-06
6.08508e-06
6.0888e-06
6.09175e-06
6.09435e-06
6.0968e-06
6.09918e-06
6.10155e-06
6.10391e-06
6.10628e-06
6.10866e-06
6.11104e-06
6.11343e-06
6.11583e-06
6.11823e-06
6.12065e-06
6.12309e-06
6.12555e-06
6.12801e-06
6.13047e-06
6.13292e-06
6.13534e-06
6.1377e-06
6.13996e-06
6.14213e-06
6.14419e-06
6.14612e-06
6.14793e-06
6.1496e-06
6.15113e-06
6.15251e-06
6.15374e-06
6.15482e-06
6.15576e-06
6.15655e-06
6.1572e-06
6.15772e-06
6.15811e-06
6.15835e-06
6.15848e-06
6.15856e-06
6.15881e-06
6.08358e-06
6.08696e-06
6.08969e-06
6.09214e-06
6.09448e-06
6.0968e-06
6.09911e-06
6.10142e-06
6.10373e-06
6.10605e-06
6.10837e-06
6.11069e-06
6.11301e-06
6.11532e-06
6.11762e-06
6.11994e-06
6.12225e-06
6.12455e-06
6.12684e-06
6.12909e-06
6.13132e-06
6.13348e-06
6.13555e-06
6.13752e-06
6.13938e-06
6.14112e-06
6.14274e-06
6.14424e-06
6.1456e-06
6.14683e-06
6.14792e-06
6.14887e-06
6.14969e-06
6.15038e-06
6.15095e-06
6.1514e-06
6.15169e-06
6.15193e-06
6.15228e-06
6.15259e-06
6.15308e-06
6.08203e-06
6.08507e-06
6.08759e-06
6.08991e-06
6.09218e-06
6.09443e-06
6.09669e-06
6.09896e-06
6.10123e-06
6.1035e-06
6.10577e-06
6.10803e-06
6.11028e-06
6.11251e-06
6.11472e-06
6.11692e-06
6.11909e-06
6.12124e-06
6.12336e-06
6.12544e-06
6.12748e-06
6.12944e-06
6.13132e-06
6.13309e-06
6.13476e-06
6.13632e-06
6.13777e-06
6.13909e-06
6.1403e-06
6.14139e-06
6.14235e-06
6.14319e-06
6.14392e-06
6.14453e-06
6.14503e-06
6.1454e-06
6.14574e-06
6.14611e-06
6.1466e-06
6.14702e-06
6.1476e-06
6.08041e-06
6.08313e-06
6.08545e-06
6.08766e-06
6.08984e-06
6.09205e-06
6.09427e-06
6.0965e-06
6.09875e-06
6.10099e-06
6.10322e-06
6.10544e-06
6.10763e-06
6.10979e-06
6.11192e-06
6.11401e-06
6.11607e-06
6.11808e-06
6.12005e-06
6.12197e-06
6.12384e-06
6.12563e-06
6.12732e-06
6.12892e-06
6.13042e-06
6.13181e-06
6.13309e-06
6.13426e-06
6.13532e-06
6.13627e-06
6.1371e-06
6.13782e-06
6.13843e-06
6.13893e-06
6.13933e-06
6.13976e-06
6.14024e-06
6.14076e-06
6.14137e-06
6.14191e-06
6.14262e-06
6.07872e-06
6.08111e-06
6.08325e-06
6.08533e-06
6.08744e-06
6.08959e-06
6.09178e-06
6.094e-06
6.09623e-06
6.09846e-06
6.10067e-06
6.10286e-06
6.10501e-06
6.10712e-06
6.10918e-06
6.1112e-06
6.11315e-06
6.11505e-06
6.11688e-06
6.11864e-06
6.12034e-06
6.12195e-06
6.12346e-06
6.12488e-06
6.12619e-06
6.12741e-06
6.12852e-06
6.12953e-06
6.13044e-06
6.13125e-06
6.13195e-06
6.13257e-06
6.13309e-06
6.1335e-06
6.13391e-06
6.13436e-06
6.13485e-06
6.13537e-06
6.13596e-06
6.13647e-06
6.13714e-06
6.07694e-06
6.07902e-06
6.08095e-06
6.08289e-06
6.08489e-06
6.08698e-06
6.08913e-06
6.09133e-06
6.09355e-06
6.09578e-06
6.09799e-06
6.10017e-06
6.1023e-06
6.10437e-06
6.10638e-06
6.10831e-06
6.11018e-06
6.11197e-06
6.11368e-06
6.11532e-06
6.11688e-06
6.11834e-06
6.11971e-06
6.12097e-06
6.12213e-06
6.12319e-06
6.12415e-06
6.12501e-06
6.12577e-06
6.12643e-06
6.12699e-06
6.12745e-06
6.12786e-06
6.12829e-06
6.12878e-06
6.12931e-06
6.12989e-06
6.13049e-06
6.13117e-06
6.13176e-06
6.13255e-06
6.07507e-06
6.07681e-06
6.0785e-06
6.08025e-06
6.08211e-06
6.08409e-06
6.08617e-06
6.08834e-06
6.09055e-06
6.09278e-06
6.095e-06
6.09718e-06
6.09931e-06
6.10138e-06
6.10338e-06
6.1053e-06
6.10711e-06
6.10883e-06
6.11044e-06
6.11196e-06
6.11337e-06
6.11468e-06
6.11588e-06
6.11697e-06
6.11796e-06
6.11884e-06
6.11963e-06
6.12032e-06
6.12092e-06
6.12143e-06
6.12187e-06
6.1222e-06
6.12252e-06
6.12288e-06
6.12328e-06
6.12372e-06
6.12419e-06
6.12467e-06
6.12521e-06
6.12565e-06
6.12628e-06
6.07309e-06
6.07445e-06
6.07583e-06
6.07731e-06
6.07895e-06
6.08075e-06
6.0827e-06
6.08477e-06
6.08694e-06
6.08916e-06
6.09139e-06
6.09358e-06
6.09571e-06
6.09775e-06
6.09968e-06
6.10149e-06
6.10319e-06
6.10477e-06
6.10625e-06
6.10762e-06
6.10888e-06
6.11003e-06
6.11107e-06
6.112e-06
6.11282e-06
6.11354e-06
6.11415e-06
6.11467e-06
6.11509e-06
6.11541e-06
6.11569e-06
6.116e-06
6.11637e-06
6.11678e-06
6.11725e-06
6.11776e-06
6.11831e-06
6.11888e-06
6.11953e-06
6.12009e-06
6.12088e-06
6.07096e-06
6.07186e-06
6.07281e-06
6.07389e-06
6.07513e-06
6.07656e-06
6.07819e-06
6.08001e-06
6.082e-06
6.08413e-06
6.08636e-06
6.08863e-06
6.09088e-06
6.09304e-06
6.09507e-06
6.09695e-06
6.09871e-06
6.10034e-06
6.10185e-06
6.10321e-06
6.10444e-06
6.10553e-06
6.10647e-06
6.10729e-06
6.10798e-06
6.10855e-06
6.10899e-06
6.10931e-06
6.10951e-06
6.10974e-06
6.11003e-06
6.11038e-06
6.11077e-06
6.1112e-06
6.11166e-06
6.11214e-06
6.11265e-06
6.11315e-06
6.11371e-06
6.11416e-06
6.11482e-06
6.06869e-06
6.06901e-06
6.06937e-06
6.0698e-06
6.07033e-06
6.07098e-06
6.07177e-06
6.07274e-06
6.0739e-06
6.07527e-06
6.07687e-06
6.0787e-06
6.08075e-06
6.08302e-06
6.08547e-06
6.08804e-06
6.09018e-06
6.09185e-06
6.09309e-06
6.09392e-06
6.09441e-06
6.09462e-06
6.0945e-06
6.09414e-06
6.094e-06
6.09411e-06
6.09443e-06
6.09491e-06
6.09552e-06
6.09624e-06
6.09704e-06
6.09791e-06
6.09884e-06
6.09981e-06
6.10083e-06
6.10187e-06
6.10295e-06
6.10403e-06
6.10518e-06
6.10621e-06
6.10748e-06
0.00190424
0.0036387
0.00560963
0.00708805
0.0061533
0.002949
0.000750502
0.000118187
1.11453e-05
6.83424e-06
6.73264e-06
6.75132e-06
6.76522e-06
6.76912e-06
6.76595e-06
6.75722e-06
6.74356e-06
6.73366e-06
6.71719e-06
6.67551e-06
6.66956e-06
6.74521e-06
6.77337e-06
6.72746e-06
6.63499e-06
6.55245e-06
6.59141e-06
6.7436e-06
6.88304e-06
6.81982e-06
6.63646e-06
6.49978e-06
6.46982e-06
6.49434e-06
6.50371e-06
6.48308e-06
6.45335e-06
6.4292e-06
6.41017e-06
6.39224e-06
6.37501e-06
6.3607e-06
6.35166e-06
6.34615e-06
6.34271e-06
6.34029e-06
6.33841e-06
6.33655e-06
6.33419e-06
6.3311e-06
6.32718e-06
6.32237e-06
6.31667e-06
6.31014e-06
6.3029e-06
6.29502e-06
6.28667e-06
6.278e-06
6.26916e-06
6.26023e-06
6.25135e-06
6.24257e-06
6.23403e-06
6.22579e-06
6.21792e-06
6.21054e-06
6.20376e-06
6.19778e-06
6.19272e-06
6.18889e-06
6.18628e-06
6.18609e-06
6.18587e-06
6.19661e-06
0.00331336
0.00547653
0.00781076
0.00971885
0.00953393
0.0059494
0.00195966
0.000353016
2.83736e-05
6.97426e-06
6.77611e-06
6.80216e-06
6.80947e-06
6.81088e-06
6.80519e-06
6.79289e-06
6.77879e-06
6.76731e-06
6.73169e-06
6.70477e-06
6.76151e-06
6.78255e-06
6.61914e-06
6.47429e-06
6.20516e-06
6.14291e-06
6.0364e-06
6.1958e-06
6.49832e-06
6.78361e-06
6.86687e-06
6.71567e-06
6.53103e-06
6.45309e-06
6.4584e-06
6.47147e-06
6.45871e-06
6.43061e-06
6.40389e-06
6.38397e-06
6.36923e-06
6.35835e-06
6.35218e-06
6.34861e-06
6.34674e-06
6.34565e-06
6.34478e-06
6.3436e-06
6.34165e-06
6.33876e-06
6.33486e-06
6.32995e-06
6.32404e-06
6.31724e-06
6.30968e-06
6.30145e-06
6.29276e-06
6.28375e-06
6.27459e-06
6.26538e-06
6.25624e-06
6.24726e-06
6.23856e-06
6.23023e-06
6.22233e-06
6.21499e-06
6.20835e-06
6.20258e-06
6.19786e-06
6.19447e-06
6.1924e-06
6.19285e-06
6.1933e-06
6.20506e-06
0.00523359
0.00777772
0.0105624
0.0127595
0.0132448
0.0101239
0.00452589
0.00106219
0.000136242
8.61006e-06
6.70115e-06
6.84912e-06
6.85139e-06
6.85061e-06
6.84269e-06
6.82812e-06
6.81511e-06
6.7921e-06
6.74962e-06
6.77019e-06
6.83214e-06
6.67548e-06
6.37545e-06
6.23335e-06
6.17046e-06
6.12893e-06
6.16947e-06
5.89053e-06
5.76339e-06
6.06159e-06
6.5146e-06
6.78556e-06
6.75979e-06
6.58573e-06
6.45563e-06
6.42054e-06
6.42793e-06
6.42667e-06
6.40706e-06
6.38278e-06
6.36495e-06
6.35558e-06
6.35302e-06
6.35223e-06
6.35188e-06
6.35171e-06
6.35151e-06
6.35088e-06
6.34929e-06
6.34652e-06
6.34257e-06
6.33749e-06
6.33134e-06
6.32425e-06
6.31636e-06
6.30779e-06
6.29875e-06
6.28942e-06
6.27997e-06
6.2705e-06
6.26115e-06
6.252e-06
6.24318e-06
6.23479e-06
6.22691e-06
6.21966e-06
6.21319e-06
6.20769e-06
6.20335e-06
6.20043e-06
6.19895e-06
6.20005e-06
6.20122e-06
6.21394e-06
0.00784611
0.0107333
0.0140008
0.0163576
0.0172433
0.0149964
0.00873793
0.00282707
0.000485408
3.02585e-05
6.17617e-06
6.90016e-06
6.91309e-06
6.88811e-06
6.8779e-06
6.86349e-06
6.84778e-06
6.81001e-06
6.79431e-06
6.85104e-06
6.78186e-06
6.47804e-06
6.44373e-06
6.37636e-06
7.19464e-06
7.80059e-06
7.562e-06
7.101e-06
6.36322e-06
5.69729e-06
5.68352e-06
6.12415e-06
6.58606e-06
6.74987e-06
6.64342e-06
6.47923e-06
6.39274e-06
6.38104e-06
6.38923e-06
6.38583e-06
6.37141e-06
6.358e-06
6.35365e-06
6.35452e-06
6.35677e-06
6.3583e-06
6.35873e-06
6.35825e-06
6.35677e-06
6.35407e-06
6.35006e-06
6.3448e-06
6.33839e-06
6.331e-06
6.32278e-06
6.31389e-06
6.30455e-06
6.29493e-06
6.28522e-06
6.27553e-06
6.26601e-06
6.25673e-06
6.24784e-06
6.23945e-06
6.23163e-06
6.22452e-06
6.21827e-06
6.21309e-06
6.20916e-06
6.20676e-06
6.20591e-06
6.20767e-06
6.20958e-06
6.2232e-06
0.0112221
0.0144194
0.018094
0.0205548
0.0215987
0.0202218
0.0143908
0.00629921
0.00150631
0.00018765
7.06446e-06
6.48823e-06
6.99173e-06
6.92684e-06
6.90899e-06
6.89796e-06
6.87317e-06
6.8364e-06
6.86544e-06
6.87997e-06
6.61769e-06
6.42175e-06
6.78784e-06
7.56601e-06
9.07797e-06
9.75425e-06
1.05201e-05
1.08003e-05
9.42568e-06
7.81896e-06
6.34051e-06
5.62115e-06
5.7485e-06
6.23697e-06
6.60978e-06
6.67287e-06
6.5379e-06
6.39769e-06
6.34286e-06
6.3492e-06
6.36513e-06
6.36837e-06
6.36404e-06
6.36016e-06
6.36028e-06
6.3629e-06
6.36517e-06
6.36567e-06
6.36428e-06
6.36134e-06
6.35709e-06
6.35165e-06
6.34504e-06
6.33738e-06
6.32888e-06
6.3197e-06
6.31008e-06
6.30022e-06
6.2903e-06
6.28045e-06
6.2708e-06
6.26146e-06
6.25254e-06
6.24419e-06
6.23649e-06
6.22956e-06
6.22359e-06
6.21877e-06
6.2153e-06
6.21345e-06
6.21326e-06
6.21568e-06
6.21836e-06
6.23282e-06
0.0154314
0.0189137
0.0227906
0.0252818
0.0263553
0.0256289
0.0209392
0.0118159
0.00391929
0.000704394
4.7702e-05
5.29453e-06
6.97278e-06
7.01485e-06
6.93542e-06
6.92423e-06
6.89438e-06
6.88299e-06
6.92749e-06
6.80716e-06
6.47291e-06
6.67629e-06
7.54023e-06
9.24939e-06
9.60115e-06
8.3962e-06
8.61207e-06
8.89691e-06
1.08484e-05
1.13592e-05
9.87265e-06
7.63269e-06
6.07058e-06
5.56846e-06
5.85977e-06
6.35492e-06
6.61945e-06
6.59684e-06
6.45199e-06
6.34341e-06
6.31799e-06
6.33987e-06
6.3644e-06
6.37408e-06
6.37274e-06
6.36989e-06
6.36953e-06
6.37056e-06
6.37057e-06
6.36834e-06
6.36396e-06
6.35808e-06
6.3511e-06
6.34322e-06
6.33453e-06
6.32515e-06
6.31531e-06
6.30527e-06
6.2952e-06
6.28524e-06
6.27552e-06
6.26616e-06
6.25728e-06
6.24902e-06
6.24149e-06
6.23481e-06
6.22916e-06
6.22474e-06
6.22177e-06
6.22051e-06
6.221e-06
6.2241e-06
6.22757e-06
6.2428e-06
0.0204525
0.024169
0.0279381
0.0303621
0.0314542
0.0311631
0.0278204
0.0191235
0.00847511
0.00217148
0.000297219
8.34795e-06
6.13716e-06
7.29171e-06
7.04032e-06
6.94458e-06
6.91863e-06
6.94311e-06
6.93653e-06
6.65879e-06
6.53541e-06
7.3706e-06
8.63636e-06
9.66155e-06
5.76973e-06
4.35285e-06
2.75805e-06
3.10231e-06
4.35013e-06
7.74844e-06
1.13149e-05
1.14857e-05
9.43887e-06
7.00315e-06
5.72486e-06
5.51872e-06
5.93169e-06
6.41201e-06
6.61658e-06
6.55232e-06
6.41006e-06
6.32556e-06
6.31876e-06
6.34896e-06
6.37611e-06
6.38545e-06
6.38284e-06
6.37777e-06
6.37449e-06
6.37231e-06
6.36917e-06
6.364e-06
6.35695e-06
6.34865e-06
6.33963e-06
6.33009e-06
6.32015e-06
6.31003e-06
6.29988e-06
6.28988e-06
6.28016e-06
6.27085e-06
6.26206e-06
6.25396e-06
6.24665e-06
6.24026e-06
6.23498e-06
6.23101e-06
6.22858e-06
6.22794e-06
6.22913e-06
6.2329e-06
6.23718e-06
6.25314e-06
0.0260665
0.0297989
0.0331957
0.0355003
0.0367139
0.0367959
0.034662
0.0274902
0.0155008
0.00545159
0.0011013
0.000104072
3.97819e-06
6.9589e-06
7.37437e-06
7.0255e-06
6.95401e-06
6.99292e-06
6.87472e-06
6.56822e-06
6.94696e-06
8.41415e-06
8.91114e-06
6.39989e-06
1.36372e-06
2.24902e-07
2.60922e-07
4.63918e-07
4.95756e-08
1.0199e-06
3.22501e-06
7.82883e-06
1.18431e-05
1.16892e-05
9.01645e-06
6.58873e-06