/*--------------------------------*- C++ -*----------------------------------*\
| =========                 |                                                 |
| \\      /  F ield         | OpenFOAM: The Open Source CFD Toolbox           |
|  \\    /   O peration     | Version:  2312                                  |
|   \\  /    A nd           | Website:  www.openfoam.com                      |
|    \\/     M anipulation  |                                                 |
\*---------------------------------------------------------------------------*/
FoamFile
{
    version     2.0;
    format      ascii;
    arch        "LSB;label=32;scalar=64";
    class       volScalarField;
    location    "200";
    object      turbulenceProperties:nuEff;
}
// * * * * * * * * * * * * * * * * * * * * * * * * * * * * * * * * * * * * * //

dimensions      [0 2 -1 0 0 0 0];

internalField   nonuniform List<scalar> 
11040
(
3.09872e-05
5.48092e-05
7.57992e-05
2.92933e-05
1.58049e-05
8.69464e-05
0.000144558
0.000156864
0.000147663
0.000134918
0.000118079
9.35092e-05
5.54802e-05
4.70745e-05
4.59988e-05
5.7452e-05
9.71747e-05
0.000127989
0.000146766
0.000113569
0.000130516
0.000156653
0.000178428
0.000220748
0.000224878
0.000202728
0.000174369
0.000128291
8.15182e-05
0.000223656
0.000287485
0.000292853
0.000279099
0.000293052
0.000304066
0.000324022
0.000340948
0.000400645
0.000515268
0.000611314
0.000588278
1.49115e-05
2.16024e-05
6.38128e-05
9.11747e-05
0.000109268
0.000429049
0.00066647
0.000689664
0.000626561
0.00055192
0.000515377
0.000458346
0.000412141
0.00038644
0.000377565
0.000386746
0.000410894
0.000454624
0.000515726
0.000596353
0.000691198
0.000791857
0.000785526
0.000695824
0.000581856
0.00050334
0.000502675
0.000538175
0.000529498
0.000818348
0.00108124
0.00125093
0.00137331
0.00146392
0.0015443
0.00160108
0.00163309
0.00164588
0.00165543
0.00162949
0.00142152
1.68176e-05
1.53101e-05
2.16344e-05
5.35879e-05
7.49263e-05
0.000259171
0.000637107
0.00101046
0.00115434
0.00119556
0.00115432
0.00104009
0.00092787
0.000875513
0.000853596
0.00088184
0.000937927
0.00101828
0.0011312
0.00128053
0.00146113
0.00168244
0.001747
0.00161145
0.00139129
0.00122077
0.00123214
0.00132974
0.00126639
0.00197266
0.00252479
0.00288266
0.00313824
0.00332607
0.00348167
0.00358864
0.00366483
0.00370214
0.00372198
0.00367696
0.00338323
1.62031e-05
1.6534e-05
1.51352e-05
2.11123e-05
3.03859e-05
8.36785e-05
0.000308977
0.000749296
0.00125045
0.00155338
0.00168695
0.00171126
0.00166292
0.0015827
0.00152987
0.00157909
0.00168309
0.00181448
0.001984
0.00219542
0.00245216
0.00282167
0.00304208
0.00290951
0.00258073
0.00233183
0.00241124
0.00251707
0.00248632
0.00370964
0.00460928
0.0052113
0.00563378
0.00593681
0.00617038
0.00632222
0.00642188
0.00646404
0.00648028
0.00641558
0.0060519
1.62169e-05
1.63955e-05
1.5933e-05
1.56334e-05
1.74599e-05
1.69394e-05
6.36905e-05
0.000304007
0.000772878
0.0013819
0.00186999
0.00212616
0.00224601
0.00229944
0.00235021
0.00247837
0.00269358
0.00290843
0.00314475
0.00338493
0.00368034
0.0041601
0.00464247
0.00463883
0.00425746
0.00398291
0.00395901
0.00395612
0.00436415
0.00617385
0.00748137
0.0083739
0.00898843
0.00941242
0.00971186
0.00988705
0.00998157
0.010003
0.0099959
0.00991498
0.00951728
1.62302e-05
1.62051e-05
1.63497e-05
1.58571e-05
1.6107e-05
1.4566e-05
1.11941e-05
2.9065e-05
0.000254632
0.000719771
0.00139737
0.00206367
0.00251568
0.00278355
0.00298552
0.00325271
0.00367924
0.00420518
0.004678
0.00492759
0.00517771
0.00565282
0.00642912
0.00683385
0.00657673
0.00602707
0.00577981
0.00581806
0.00712303
0.00956738
0.0113334
0.0125493
0.0133671
0.0138989
0.0142296
0.0143784
0.0144108
0.0143587
0.0142874
0.0141894
0.0138033
1.62076e-05
1.62144e-05
1.62343e-05
1.62297e-05
1.6061e-05
1.63735e-05
1.33517e-05
1.01073e-05
1.0657e-05
0.000169935
0.000603178
0.0013085
0.00212721
0.00281665
0.00331481
0.00378249
0.00440639
0.00523089
0.00613756
0.00685579
0.00701733
0.00729634
0.00822664
0.00943543
0.00921173
0.00837123
0.00801305
0.00828351
0.0110105
0.0141599
0.01642
0.0179671
0.0189778
0.0195771
0.0198674
0.0198961
0.0197649
0.0195418
0.0193257
0.0191784
0.0188368
1.62023e-05
1.62106e-05
1.62056e-05
1.62334e-05
1.62132e-05
1.61708e-05
1.70688e-05
1.29961e-05
1e-05
1.00671e-05
8.55804e-05
0.000451132
0.00114176
0.00206633
0.00300333
0.00384118
0.00473336
0.0058495
0.00714259
0.00839031
0.00917191
0.00920104
0.00989518
0.0118459
0.0119588
0.0110731
0.0108402
0.0119512
0.0162668
0.0203059
0.0230973
0.0249473
0.0260901
0.0266701
0.0267958
0.0265551
0.026088
0.0255244
0.0250121
0.0247087
0.0244089
1.61951e-05
1.61974e-05
1.62059e-05
1.61931e-05
1.62568e-05
1.61312e-05
1.63945e-05
1.73706e-05
1.37459e-05
1.00094e-05
1.05484e-05
1.31649e-05
0.00029461
0.000921909
0.00189359
0.00307209
0.00435927
0.00582107
0.0074941
0.00921062
0.010642
0.0113438
0.0116333
0.0136835
0.0146995
0.0141916
0.014314
0.0171086
0.023157
0.028362
0.0317932
0.0338848
0.0350639
0.0355024
0.0352531
0.0345058
0.0334339
0.0322564
0.0311854
0.0305045
0.0301375
1.6187e-05
1.61911e-05
1.61961e-05
1.61994e-05
1.61987e-05
1.62502e-05
1.6069e-05
1.65202e-05
1.77059e-05
1.46805e-05
1.00626e-05
1.00158e-05
3.03249e-05
0.000133645
0.000662578
0.00162188
0.00302272
0.00481554
0.00689236
0.00905679
0.0110449
0.0124931
0.0134089
0.0148406
0.0171796
0.0176602
0.0182739
0.0235467
0.0312984
0.0374139
0.0418683
0.0448085
0.0462958
0.0464771
0.0455981
0.0440889
0.0419988
0.039773
0.0377298
0.0362716
0.0355726
1.61791e-05
1.61853e-05
1.61895e-05
1.61944e-05
1.61945e-05
1.62072e-05
1.62168e-05
1.60901e-05
1.64423e-05
1.79639e-05
1.56484e-05
1.04739e-05
1.00029e-05
1.09996e-05
1.87988e-05
0.000394652
0.00127425
0.00282726
0.00504869
0.00761901
0.0100982
0.0121747
0.013892
0.01577
0.0187202
0.0210266
0.0233117
0.0309251
0.0391775
0.0460436
0.0514039
0.0552848
0.0575991
0.0583784
0.0576409
0.0553931
0.0518828
0.0481819
0.0445729
0.0417154
0.0401273
1.6172e-05
1.6179e-05
1.61846e-05
1.61888e-05
1.61933e-05
1.6193e-05
1.62089e-05
1.62034e-05
1.60896e-05
1.63571e-05
1.78155e-05
1.71007e-05
1.13868e-05
1e-05
1.00101e-05
1.00253e-05
0.000176616
0.000863932
0.00241125
0.00480452
0.00758583
0.0101204
0.0124214
0.0151102
0.0183883
0.0231005
0.0280646
0.0370718
0.0458292
0.0533494
0.0594439
0.0640595
0.0670366
0.0683563
0.0680296
0.0660637
0.0624709
0.057354
0.0516772
0.0467604
0.0434569
1.61654e-05
1.61733e-05
1.61794e-05
1.61845e-05
1.61884e-05
1.61929e-05
1.61929e-05
1.62034e-05
1.62039e-05
1.60996e-05
1.62597e-05
1.74315e-05
1.79122e-05
1.32143e-05
1.00033e-05
1.00005e-05
1.07802e-05
1.00015e-05
0.000450639
0.00175337
0.00393776
0.00646291
0.00891087
0.0119591
0.016569
0.0227647
0.0309218
0.0407449
0.0501463
0.0583737
0.0651882
0.0704926
0.0740902
0.0759013
0.0759134
0.0741511
0.070682
0.0655636
0.0588776
0.0516737
0.0459818
1.61594e-05
1.61679e-05
1.61745e-05
1.61798e-05
1.61843e-05
1.6188e-05
1.6192e-05
1.61937e-05
1.62031e-05
1.62059e-05
1.61192e-05
1.61699e-05
1.70856e-05
1.79185e-05
1.54733e-05
1.0134e-05
1.00015e-05
1e-05
4.82261e-05
0.000134807
0.000973977
0.00256151
0.00446436
0.00678269
0.0110726
0.0188276
0.0290915
0.0401046
0.0505639
0.0598008
0.0675632
0.0737589
0.078196
0.0807388
0.081327
0.0799559
0.0766925
0.0716402
0.0648706
0.0567109
0.0485035
1.61539e-05
1.61629e-05
1.61697e-05
1.6175e-05
1.61796e-05
1.61837e-05
1.61873e-05
1.61911e-05
1.61936e-05
1.62021e-05
1.62071e-05
1.61508e-05
1.611e-05
1.668e-05
1.79182e-05
1.74361e-05
1.14083e-05
1.0009e-05
1e-05
1.01909e-05
0.00015222
0.000297747
0.00115006
0.00225725
0.00437057
0.0100974
0.0204195
0.0328381
0.0449809
0.055842
0.0651008
0.0726823
0.0784718
0.0822932
0.084027
0.0836115
0.0810649
0.0764699
0.0699034
0.0615375
0.0518026
1.61489e-05
1.61581e-05
1.61648e-05
1.617e-05
1.61745e-05
1.61785e-05
1.61823e-05
1.61858e-05
1.61896e-05
1.61926e-05
1.62004e-05
1.62085e-05
1.6177e-05
1.60966e-05
1.63559e-05
1.76013e-05
1.79531e-05
1.46739e-05
1.00398e-05
1.00008e-05
1e-05
1.23831e-05
1e-05
0.000171588
0.000433624
0.00202005
0.00780683
0.0185055
0.0315729
0.0444379
0.0559275
0.0656832
0.0736197
0.0795593
0.0833096
0.0847316
0.0837709
0.0804463
0.0747779
0.0668874
0.056864
1.61442e-05
1.61532e-05
1.61595e-05
1.61645e-05
1.61687e-05
1.61727e-05
1.61764e-05
1.618e-05
1.61836e-05
1.61876e-05
1.61914e-05
1.61973e-05
1.6211e-05
1.61916e-05
1.61208e-05
1.61413e-05
1.70819e-05
1.79374e-05
1.71288e-05
1.14745e-05
1.00001e-05
1e-05
1e-05
1.01823e-05
1.54739e-05
0.000257389
0.000435894
0.00415527
0.0130253
0.0253522
0.038607
0.0510719
0.0619617
0.0709645
0.0777877
0.082166
0.0839307
0.0830239
0.0793824
0.0730477
0.0640545
1.61396e-05
1.6148e-05
1.61539e-05
1.61585e-05
1.61625e-05
1.61663e-05
1.617e-05
1.61736e-05
1.61772e-05
1.61809e-05
1.61852e-05
1.61897e-05
1.61951e-05
1.62102e-05
1.62033e-05
1.61372e-05
1.61031e-05
1.65289e-05
1.78949e-05
1.79903e-05
1.53383e-05
1.02313e-05
1.00027e-05
1e-05
1e-05
1e-05
1.36747e-05
0.000562997
0.00128426
0.00669819
0.016943
0.0298569
0.0432236
0.0555401
0.0660332
0.0742053
0.0797262
0.0824108
0.0821001
0.0787707
0.0724201
1.6135e-05
1.61428e-05
1.61483e-05
1.61526e-05
1.61564e-05
1.616e-05
1.61636e-05
1.61672e-05
1.61708e-05
1.61745e-05
1.61785e-05
1.61833e-05
1.61883e-05
1.61944e-05
1.62068e-05
1.62159e-05
1.61579e-05
1.61059e-05
1.62253e-05
1.72793e-05
1.83903e-05
1.68435e-05
1.33362e-05
1.02653e-05
1.00028e-05
1e-05
1e-05
1e-05
7.93372e-05
0.000854437
0.00194222
0.00880195
0.0199544
0.0334381
0.0470533
0.0591733
0.0689039
0.0758726
0.0799004
0.080964
0.0790907
1.61306e-05
1.61379e-05
1.6143e-05
1.61471e-05
1.61508e-05
1.61544e-05
1.61579e-05
1.61615e-05
1.61651e-05
1.61687e-05
1.61726e-05
1.61771e-05
1.61825e-05
1.61878e-05
1.61944e-05
1.62054e-05
1.62185e-05
1.61931e-05
1.61058e-05
1.61535e-05
1.66752e-05
1.79033e-05
1.82253e-05
1.68851e-05
1.35247e-05
1.01542e-05
1.00017e-05
1e-05
1e-05
1e-05
0.000131021
0.00112996
0.00275993
0.00996195
0.0211235
0.0343867
0.0476102
0.0592561
0.068451
0.0747998
0.0782405
1.61264e-05
1.61332e-05
1.61381e-05
1.61421e-05
1.61457e-05
1.61493e-05
1.61528e-05
1.61563e-05
1.61599e-05
1.61636e-05
1.61674e-05
1.61717e-05
1.61767e-05
1.61825e-05
1.61883e-05
1.61949e-05
1.6206e-05
1.62197e-05
1.6216e-05
1.61393e-05
1.61089e-05
1.63413e-05
1.70348e-05
1.80946e-05
1.85443e-05
1.73015e-05
1.25786e-05
1.00257e-05
1.00005e-05
1e-05
1e-05
1e-05
0.000193117
2.22329e-05
0.00255108
0.00857409
0.0177653
0.028907
0.0404575
0.0510495
0.0598187
1.61225e-05
1.61289e-05
1.61336e-05
1.61375e-05
1.61412e-05
1.61447e-05
1.61483e-05
1.61518e-05
1.61554e-05
1.6159e-05
1.61628e-05
1.61669e-05
1.61717e-05
1.61771e-05
1.61832e-05
1.61896e-05
1.61963e-05
1.62063e-05
1.6221e-05
1.62255e-05
1.61858e-05
1.61199e-05
1.61692e-05
1.64134e-05
1.72512e-05
1.85296e-05
1.8883e-05
1.7332e-05
1.13594e-05
1.0001e-05
1.00001e-05
1e-05
1e-05
1.00003e-05
0.000155183
0.000732673
0.00105163
0.00452757
0.0101601
0.017391
0.0253835
1.61188e-05
1.61249e-05
1.61295e-05
1.61335e-05
1.61371e-05
1.61407e-05
1.61443e-05
1.61478e-05
1.61514e-05
1.6155e-05
1.61587e-05
1.61627e-05
1.61673e-05
1.61724e-05
1.61782e-05
1.61845e-05
1.61912e-05
1.61982e-05
1.62071e-05
1.62211e-05
1.62309e-05
1.62221e-05
1.61734e-05
1.61178e-05
1.61544e-05
1.64854e-05
1.76187e-05
1.88835e-05
1.84619e-05
1.64248e-05
1.08623e-05
1e-05
1e-05
1e-05
1e-05
1e-05
3.28652e-05
0.000262047
0.000734565
0.000819429
0.00290645
1.61153e-05
1.61212e-05
1.61258e-05
1.61298e-05
1.61335e-05
1.61371e-05
1.61406e-05
1.61442e-05
1.61477e-05
1.61514e-05
1.6155e-05
1.61589e-05
1.61633e-05
1.61682e-05
1.61736e-05
1.61796e-05
1.61861e-05
1.6193e-05
1.62002e-05
1.62084e-05
1.62201e-05
1.62343e-05
1.6241e-05
1.62283e-05
1.61533e-05
1.60808e-05
1.61889e-05
1.66378e-05
1.78415e-05
1.89654e-05
1.77918e-05
1.56843e-05
1.13187e-05
1.00037e-05
1.00002e-05
1e-05
1e-05
1e-05
1e-05
1.76962e-05
0.000144945
1.61121e-05
1.61179e-05
1.61225e-05
1.61265e-05
1.61302e-05
1.61338e-05
1.61374e-05
1.61409e-05
1.61444e-05
1.6148e-05
1.61516e-05
1.61554e-05
1.61596e-05
1.61643e-05
1.61694e-05
1.61751e-05
1.61812e-05
1.61877e-05
1.61947e-05
1.6202e-05
1.62099e-05
1.62196e-05
1.62335e-05
1.62499e-05
1.62539e-05
1.6218e-05
1.61344e-05
1.60954e-05
1.6272e-05
1.67794e-05
1.76745e-05
1.85375e-05
1.79872e-05
1.56876e-05
1.31295e-05
1.04022e-05
1.00031e-05
1e-05
1e-05
1e-05
1e-05
1.61091e-05
1.61149e-05
1.61195e-05
1.61235e-05
1.61273e-05
1.61309e-05
1.61344e-05
1.61379e-05
1.61414e-05
1.61449e-05
1.61485e-05
1.61521e-05
1.61561e-05
1.61606e-05
1.61654e-05
1.61708e-05
1.61765e-05
1.61826e-05
1.61892e-05
1.61961e-05
1.62035e-05
1.62111e-05
1.62197e-05
1.62311e-05
1.62484e-05
1.62619e-05
1.6254e-05
1.62136e-05
1.61471e-05
1.61482e-05
1.63197e-05
1.66825e-05
1.73426e-05
1.79167e-05
1.8088e-05
1.7091e-05
1.50444e-05
1.2633e-05
1.09906e-05
1.00348e-05
1.00006e-05
1.61064e-05
1.61121e-05
1.61167e-05
1.61208e-05
1.61245e-05
1.61281e-05
1.61316e-05
1.61351e-05
1.61385e-05
1.61419e-05
1.61455e-05
1.6149e-05
1.61529e-05
1.61571e-05
1.61617e-05
1.61667e-05
1.6172e-05
1.61777e-05
1.61838e-05
1.61902e-05
1.61971e-05
1.62044e-05
1.62118e-05
1.62194e-05
1.62289e-05
1.6242e-05
1.62569e-05
1.62655e-05
1.62542e-05
1.62236e-05
1.61894e-05
1.61828e-05
1.62837e-05
1.65202e-05
1.68627e-05
1.73606e-05
1.77345e-05
1.77042e-05
1.72423e-05
1.60518e-05
1.45254e-05
1.61039e-05
1.61096e-05
1.61142e-05
1.61182e-05
1.6122e-05
1.61255e-05
1.6129e-05
1.61324e-05
1.61357e-05
1.61391e-05
1.61425e-05
1.6146e-05
1.61497e-05
1.61537e-05
1.61581e-05
1.61627e-05
1.61677e-05
1.6173e-05
1.61787e-05
1.61845e-05
1.61908e-05
1.61975e-05
1.62044e-05
1.62114e-05
1.62185e-05
1.62263e-05
1.62359e-05
1.62475e-05
1.62589e-05
1.62644e-05
1.62595e-05
1.62423e-05
1.622e-05
1.62128e-05
1.62397e-05
1.63374e-05
1.65121e-05
1.67483e-05
1.70137e-05
1.73128e-05
1.75068e-05
1.61016e-05
1.61072e-05
1.61118e-05
1.61159e-05
1.61196e-05
1.61231e-05
1.61264e-05
1.61297e-05
1.6133e-05
1.61363e-05
1.61396e-05
1.6143e-05
1.61466e-05
1.61504e-05
1.61545e-05
1.61589e-05
1.61636e-05
1.61685e-05
1.61737e-05
1.61791e-05
1.61848e-05
1.61908e-05
1.61971e-05
1.62035e-05
1.62099e-05
1.62164e-05
1.6223e-05
1.62302e-05
1.62384e-05
1.62474e-05
1.62559e-05
1.62616e-05
1.62615e-05
1.6255e-05
1.62438e-05
1.62329e-05
1.62314e-05
1.62492e-05
1.62914e-05
1.637e-05
1.6467e-05
1.60995e-05
1.61051e-05
1.61096e-05
1.61136e-05
1.61172e-05
1.61207e-05
1.61239e-05
1.61272e-05
1.61303e-05
1.61335e-05
1.61368e-05
1.61401e-05
1.61435e-05
1.61471e-05
1.6151e-05
1.61551e-05
1.61595e-05
1.61641e-05
1.61689e-05
1.61739e-05
1.61791e-05
1.61845e-05
1.61901e-05
1.61957e-05
1.62015e-05
1.62073e-05
1.6213e-05
1.62187e-05
1.62244e-05
1.62303e-05
1.62365e-05
1.6243e-05
1.62493e-05
1.62543e-05
1.62571e-05
1.62569e-05
1.62536e-05
1.62482e-05
1.62421e-05
1.62377e-05
1.62368e-05
1.60976e-05
1.61031e-05
1.61076e-05
1.61114e-05
1.6115e-05
1.61183e-05
1.61215e-05
1.61246e-05
1.61277e-05
1.61308e-05
1.61339e-05
1.61371e-05
1.61404e-05
1.61438e-05
1.61475e-05
1.61514e-05
1.61555e-05
1.61597e-05
1.61642e-05
1.61688e-05
1.61735e-05
1.61784e-05
1.61834e-05
1.61884e-05
1.61935e-05
1.61985e-05
1.62036e-05
1.62085e-05
1.62132e-05
1.62179e-05
1.62223e-05
1.62268e-05
1.62311e-05
1.62355e-05
1.62396e-05
1.62432e-05
1.62461e-05
1.6248e-05
1.62485e-05
1.62475e-05
1.62465e-05
1.60958e-05
1.61012e-05
1.61056e-05
1.61093e-05
1.61127e-05
1.61159e-05
1.6119e-05
1.6122e-05
1.6125e-05
1.6128e-05
1.6131e-05
1.61341e-05
1.61373e-05
1.61406e-05
1.6144e-05
1.61477e-05
1.61515e-05
1.61555e-05
1.61596e-05
1.61638e-05
1.61681e-05
1.61726e-05
1.6177e-05
1.61815e-05
1.6186e-05
1.61904e-05
1.61947e-05
1.61989e-05
1.6203e-05
1.62069e-05
1.62106e-05
1.6214e-05
1.62173e-05
1.62203e-05
1.62231e-05
1.62256e-05
1.62279e-05
1.62299e-05
1.62315e-05
1.62327e-05
1.62338e-05
1.60941e-05
1.60994e-05
1.61036e-05
1.61072e-05
1.61105e-05
1.61136e-05
1.61165e-05
1.61194e-05
1.61223e-05
1.61252e-05
1.61281e-05
1.61311e-05
1.61342e-05
1.61373e-05
1.61406e-05
1.6144e-05
1.61476e-05
1.61513e-05
1.61551e-05
1.6159e-05
1.6163e-05
1.6167e-05
1.6171e-05
1.6175e-05
1.61789e-05
1.61827e-05
1.61865e-05
1.61901e-05
1.61935e-05
1.61968e-05
1.61999e-05
1.62027e-05
1.62053e-05
1.62077e-05
1.62098e-05
1.62116e-05
1.62131e-05
1.62144e-05
1.62152e-05
1.6216e-05
1.62164e-05
1.60925e-05
1.60976e-05
1.61017e-05
1.61051e-05
1.61083e-05
1.61112e-05
1.6114e-05
1.61168e-05
1.61196e-05
1.61224e-05
1.61252e-05
1.61281e-05
1.6131e-05
1.6134e-05
1.61371e-05
1.61404e-05
1.61437e-05
1.61472e-05
1.61507e-05
1.61543e-05
1.6158e-05
1.61616e-05
1.61652e-05
1.61688e-05
1.61723e-05
1.61757e-05
1.61789e-05
1.6182e-05
1.6185e-05
1.61877e-05
1.61903e-05
1.61926e-05
1.61948e-05
1.61966e-05
1.61983e-05
1.61997e-05
1.62008e-05
1.62016e-05
1.62022e-05
1.62026e-05
1.62025e-05
1.6091e-05
1.60958e-05
1.60997e-05
1.6103e-05
1.6106e-05
1.61088e-05
1.61115e-05
1.61142e-05
1.61169e-05
1.61196e-05
1.61223e-05
1.61251e-05
1.61279e-05
1.61308e-05
1.61337e-05
1.61368e-05
1.61399e-05
1.61432e-05
1.61464e-05
1.61498e-05
1.61531e-05
1.61565e-05
1.61598e-05
1.6163e-05
1.61661e-05
1.61691e-05
1.61719e-05
1.61746e-05
1.61771e-05
1.61795e-05
1.61817e-05
1.61836e-05
1.61854e-05
1.61869e-05
1.61882e-05
1.61892e-05
1.61901e-05
1.61907e-05
1.6191e-05
1.61914e-05
1.61909e-05
1.60895e-05
1.60941e-05
1.60978e-05
1.61009e-05
1.61037e-05
1.61064e-05
1.6109e-05
1.61116e-05
1.61142e-05
1.61168e-05
1.61194e-05
1.61221e-05
1.61248e-05
1.61275e-05
1.61303e-05
1.61332e-05
1.61362e-05
1.61392e-05
1.61423e-05
1.61453e-05
1.61484e-05
1.61515e-05
1.61545e-05
1.61574e-05
1.61602e-05
1.61628e-05
1.61653e-05
1.61677e-05
1.61699e-05
1.61719e-05
1.61738e-05
1.61754e-05
1.61769e-05
1.61782e-05
1.61792e-05
1.61801e-05
1.61807e-05
1.61812e-05
1.61814e-05
1.61816e-05
1.6181e-05
1.6088e-05
1.60924e-05
1.60958e-05
1.60987e-05
1.61014e-05
1.6104e-05
1.61065e-05
1.6109e-05
1.61115e-05
1.6114e-05
1.61166e-05
1.61191e-05
1.61217e-05
1.61243e-05
1.6127e-05
1.61297e-05
1.61325e-05
1.61354e-05
1.61382e-05
1.6141e-05
1.61439e-05
1.61467e-05
1.61494e-05
1.6152e-05
1.61546e-05
1.61569e-05
1.61592e-05
1.61613e-05
1.61632e-05
1.6165e-05
1.61666e-05
1.6168e-05
1.61692e-05
1.61703e-05
1.61712e-05
1.61719e-05
1.61724e-05
1.61728e-05
1.61729e-05
1.6173e-05
1.61727e-05
1.60866e-05
1.60906e-05
1.60938e-05
1.60966e-05
1.60991e-05
1.61016e-05
1.6104e-05
1.61065e-05
1.61089e-05
1.61113e-05
1.61138e-05
1.61162e-05
1.61187e-05
1.61212e-05
1.61238e-05
1.61264e-05
1.6129e-05
1.61316e-05
1.61343e-05
1.61369e-05
1.61395e-05
1.61421e-05
1.61446e-05
1.6147e-05
1.61492e-05
1.61514e-05
1.61534e-05
1.61553e-05
1.6157e-05
1.61585e-05
1.61599e-05
1.61612e-05
1.61622e-05
1.61631e-05
1.61639e-05
1.61645e-05
1.61649e-05
1.61652e-05
1.61653e-05
1.61654e-05
1.61653e-05
1.60851e-05
1.60888e-05
1.60918e-05
1.60943e-05
1.60968e-05
1.60992e-05
1.61016e-05
1.61039e-05
1.61063e-05
1.61087e-05
1.6111e-05
1.61134e-05
1.61158e-05
1.61182e-05
1.61206e-05
1.61231e-05
1.61255e-05
1.6128e-05
1.61305e-05
1.61329e-05
1.61353e-05
1.61377e-05
1.614e-05
1.61421e-05
1.61442e-05
1.61461e-05
1.61479e-05
1.61496e-05
1.61511e-05
1.61525e-05
1.61537e-05
1.61548e-05
1.61558e-05
1.61566e-05
1.61572e-05
1.61577e-05
1.61581e-05
1.61583e-05
1.61585e-05
1.61586e-05
1.61588e-05
1.60836e-05
1.6087e-05
1.60897e-05
1.60921e-05
1.60945e-05
1.60968e-05
1.60991e-05
1.61014e-05
1.61037e-05
1.6106e-05
1.61084e-05
1.61107e-05
1.6113e-05
1.61153e-05
1.61176e-05
1.61199e-05
1.61222e-05
1.61246e-05
1.61268e-05
1.61291e-05
1.61313e-05
1.61335e-05
1.61355e-05
1.61375e-05
1.61394e-05
1.61411e-05
1.61427e-05
1.61442e-05
1.61456e-05
1.61468e-05
1.61479e-05
1.61489e-05
1.61497e-05
1.61504e-05
1.6151e-05
1.61514e-05
1.61517e-05
1.61519e-05
1.61523e-05
1.61526e-05
1.61531e-05
1.6082e-05
1.60851e-05
1.60876e-05
1.60899e-05
1.60922e-05
1.60944e-05
1.60967e-05
1.6099e-05
1.61012e-05
1.61035e-05
1.61058e-05
1.6108e-05
1.61103e-05
1.61125e-05
1.61147e-05
1.61169e-05
1.61191e-05
1.61212e-05
1.61234e-05
1.61254e-05
1.61275e-05
1.61294e-05
1.61313e-05
1.61331e-05
1.61348e-05
1.61363e-05
1.61378e-05
1.61391e-05
1.61403e-05
1.61414e-05
1.61423e-05
1.61432e-05
1.61439e-05
1.61445e-05
1.6145e-05
1.61454e-05
1.61457e-05
1.61461e-05
1.61466e-05
1.6147e-05
1.61476e-05
1.60804e-05
1.60831e-05
1.60855e-05
1.60877e-05
1.60898e-05
1.6092e-05
1.60943e-05
1.60965e-05
1.60987e-05
1.6101e-05
1.61032e-05
1.61054e-05
1.61076e-05
1.61098e-05
1.61119e-05
1.6114e-05
1.61161e-05
1.61181e-05
1.61201e-05
1.6122e-05
1.61238e-05
1.61256e-05
1.61273e-05
1.61289e-05
1.61304e-05
1.61318e-05
1.61331e-05
1.61343e-05
1.61353e-05
1.61363e-05
1.61371e-05
1.61378e-05
1.61384e-05
1.61389e-05
1.61393e-05
1.61398e-05
1.61402e-05
1.61408e-05
1.61414e-05
1.61419e-05
1.61426e-05
1.60787e-05
1.60811e-05
1.60833e-05
1.60853e-05
1.60874e-05
1.60896e-05
1.60918e-05
1.6094e-05
1.60962e-05
1.60985e-05
1.61007e-05
1.61029e-05
1.6105e-05
1.61071e-05
1.61092e-05
1.61112e-05
1.61132e-05
1.6115e-05
1.61169e-05
1.61186e-05
1.61203e-05
1.6122e-05
1.61235e-05
1.61249e-05
1.61262e-05
1.61274e-05
1.61285e-05
1.61295e-05
1.61304e-05
1.61312e-05
1.6132e-05
1.61326e-05
1.61331e-05
1.61335e-05
1.61339e-05
1.61344e-05
1.61349e-05
1.61354e-05
1.6136e-05
1.61365e-05
1.61371e-05
1.60769e-05
1.6079e-05
1.60809e-05
1.60829e-05
1.60849e-05
1.6087e-05
1.60891e-05
1.60913e-05
1.60936e-05
1.60958e-05
1.6098e-05
1.61002e-05
1.61023e-05
1.61044e-05
1.61064e-05
1.61083e-05
1.61102e-05
1.6112e-05
1.61137e-05
1.61153e-05
1.61169e-05
1.61183e-05
1.61197e-05
1.6121e-05
1.61221e-05
1.61232e-05
1.61242e-05
1.6125e-05
1.61258e-05
1.61264e-05
1.6127e-05
1.61275e-05
1.61279e-05
1.61283e-05
1.61288e-05
1.61293e-05
1.61299e-05
1.61305e-05
1.61312e-05
1.61318e-05
1.61325e-05
1.60751e-05
1.60768e-05
1.60785e-05
1.60803e-05
1.60821e-05
1.60841e-05
1.60862e-05
1.60883e-05
1.60906e-05
1.60928e-05
1.6095e-05
1.60972e-05
1.60993e-05
1.61014e-05
1.61034e-05
1.61053e-05
1.61071e-05
1.61088e-05
1.61104e-05
1.6112e-05
1.61134e-05
1.61147e-05
1.61159e-05
1.6117e-05
1.6118e-05
1.61188e-05
1.61196e-05
1.61203e-05
1.61209e-05
1.61214e-05
1.61219e-05
1.61222e-05
1.61225e-05
1.61229e-05
1.61233e-05
1.61237e-05
1.61242e-05
1.61247e-05
1.61252e-05
1.61257e-05
1.61263e-05
1.60731e-05
1.60745e-05
1.60758e-05
1.60773e-05
1.6079e-05
1.60807e-05
1.60827e-05
1.60848e-05
1.60869e-05
1.60892e-05
1.60914e-05
1.60936e-05
1.60957e-05
1.60977e-05
1.60997e-05
1.61015e-05
1.61032e-05
1.61048e-05
1.61062e-05
1.61076e-05
1.61089e-05
1.611e-05
1.61111e-05
1.6112e-05
1.61128e-05
1.61135e-05
1.61142e-05
1.61147e-05
1.61151e-05
1.61154e-05
1.61157e-05
1.6116e-05
1.61164e-05
1.61168e-05
1.61172e-05
1.61178e-05
1.61183e-05
1.61189e-05
1.61195e-05
1.61201e-05
1.61209e-05
1.6071e-05
1.60719e-05
1.60728e-05
1.60739e-05
1.60751e-05
1.60766e-05
1.60782e-05
1.608e-05
1.6082e-05
1.60841e-05
1.60864e-05
1.60886e-05
1.60909e-05
1.6093e-05
1.60951e-05
1.60969e-05
1.60987e-05
1.61003e-05
1.61018e-05
1.61032e-05
1.61044e-05
1.61055e-05
1.61065e-05
1.61073e-05
1.6108e-05
1.61085e-05
1.6109e-05
1.61093e-05
1.61095e-05
1.61097e-05
1.611e-05
1.61104e-05
1.61108e-05
1.61112e-05
1.61117e-05
1.61121e-05
1.61126e-05
1.61132e-05
1.61137e-05
1.61142e-05
1.61148e-05
1.60687e-05
1.6069e-05
1.60694e-05
1.60698e-05
1.60703e-05
1.6071e-05
1.60718e-05
1.60727e-05
1.60739e-05
1.60753e-05
1.60769e-05
1.60787e-05
1.60808e-05
1.6083e-05
1.60855e-05
1.6088e-05
1.60902e-05
1.60919e-05
1.60931e-05
1.60939e-05
1.60944e-05
1.60946e-05
1.60945e-05
1.60941e-05
1.6094e-05
1.60941e-05
1.60944e-05
1.60949e-05
1.60955e-05
1.60962e-05
1.6097e-05
1.60979e-05
1.60988e-05
1.60998e-05
1.61008e-05
1.61019e-05
1.61029e-05
1.6104e-05
1.61052e-05
1.61062e-05
1.61075e-05
0.00191424
0.0036487
0.00561963
0.00709805
0.0061633
0.002959
0.000760502
0.000128187
2.11453e-05
1.68342e-05
1.67326e-05
1.67513e-05
1.67652e-05
1.67691e-05
1.6766e-05
1.67572e-05
1.67436e-05
1.67337e-05
1.67172e-05
1.66755e-05
1.66696e-05
1.67452e-05
1.67734e-05
1.67275e-05
1.6635e-05
1.65524e-05
1.65914e-05
1.67436e-05
1.6883e-05
1.68198e-05
1.66365e-05
1.64998e-05
1.64698e-05
1.64943e-05
1.65037e-05
1.64831e-05
1.64533e-05
1.64292e-05
1.64102e-05
1.63922e-05
1.6375e-05
1.63607e-05
1.63517e-05
1.63462e-05
1.63427e-05
1.63403e-05
1.63384e-05
1.63365e-05
1.63342e-05
1.63311e-05
1.63272e-05
1.63224e-05
1.63167e-05
1.63101e-05
1.63029e-05
1.6295e-05
1.62867e-05
1.6278e-05
1.62692e-05
1.62602e-05
1.62513e-05
1.62426e-05
1.6234e-05
1.62258e-05
1.62179e-05
1.62105e-05
1.62038e-05
1.61978e-05
1.61927e-05
1.61889e-05
1.61863e-05
1.61861e-05
1.61859e-05
1.61966e-05
0.00332336
0.00548653
0.00782076
0.00972885
0.00954393
0.0059594
0.00196966
0.000363016
3.83736e-05
1.69743e-05
1.67761e-05
1.68022e-05
1.68095e-05
1.68109e-05
1.68052e-05
1.67929e-05
1.67788e-05
1.67673e-05
1.67317e-05
1.67048e-05
1.67615e-05
1.67826e-05
1.66191e-05
1.64743e-05
1.62052e-05
1.61429e-05
1.60364e-05
1.61958e-05
1.64983e-05
1.67836e-05
1.68669e-05
1.67157e-05
1.6531e-05
1.64531e-05
1.64584e-05
1.64715e-05
1.64587e-05
1.64306e-05
1.64039e-05
1.6384e-05
1.63692e-05
1.63583e-05
1.63522e-05
1.63486e-05
1.63467e-05
1.63457e-05
1.63448e-05
1.63436e-05
1.63417e-05
1.63388e-05
1.63349e-05
1.63299e-05
1.6324e-05
1.63172e-05
1.63097e-05
1.63015e-05
1.62928e-05
1.62837e-05
1.62746e-05
1.62654e-05
1.62562e-05
1.62473e-05
1.62386e-05
1.62302e-05
1.62223e-05
1.6215e-05
1.62083e-05
1.62026e-05
1.61979e-05
1.61945e-05
1.61924e-05
1.61928e-05
1.61933e-05
1.62051e-05
0.00524359
0.00778772
0.0105724
0.0127695
0.0132548
0.0101339
0.00453589
0.00107219
0.000146242
1.86101e-05
1.67012e-05
1.68491e-05
1.68514e-05
1.68506e-05
1.68427e-05
1.68281e-05
1.68151e-05
1.67921e-05
1.67496e-05
1.67702e-05
1.68321e-05
1.66755e-05
1.63755e-05
1.62334e-05
1.61705e-05
1.61289e-05
1.61695e-05
1.58905e-05
1.57634e-05
1.60616e-05
1.65146e-05
1.67856e-05
1.67598e-05
1.65857e-05
1.64556e-05
1.64205e-05
1.64279e-05
1.64267e-05
1.64071e-05
1.63828e-05
1.63649e-05
1.63556e-05
1.6353e-05
1.63522e-05
1.63519e-05
1.63517e-05
1.63515e-05
1.63509e-05
1.63493e-05
1.63465e-05
1.63426e-05
1.63375e-05
1.63313e-05
1.63243e-05
1.63164e-05
1.63078e-05
1.62988e-05
1.62894e-05
1.628e-05
1.62705e-05
1.62611e-05
1.6252e-05
1.62432e-05
1.62348e-05
1.62269e-05
1.62197e-05
1.62132e-05
1.62077e-05
1.62033e-05
1.62004e-05
1.6199e-05
1.62001e-05
1.62012e-05
1.62139e-05
0.00785611
0.0107433
0.0140108
0.0163676
0.0172533
0.0150064
0.00874793
0.00283707
0.000495408
4.02585e-05
1.61762e-05
1.69002e-05
1.69131e-05
1.68881e-05
1.68779e-05
1.68635e-05
1.68478e-05
1.681e-05
1.67943e-05
1.6851e-05
1.67819e-05
1.6478e-05
1.64437e-05
1.63764e-05
1.71946e-05
1.78006e-05
1.7562e-05
1.7101e-05
1.63632e-05
1.56973e-05
1.56835e-05
1.61241e-05
1.65861e-05
1.67499e-05
1.66434e-05
1.64792e-05
1.63927e-05
1.6381e-05
1.63892e-05
1.63858e-05
1.63714e-05
1.6358e-05
1.63537e-05
1.63545e-05
1.63568e-05
1.63583e-05
1.63587e-05
1.63583e-05
1.63568e-05
1.63541e-05
1.63501e-05
1.63448e-05
1.63384e-05
1.6331e-05
1.63228e-05
1.63139e-05
1.63045e-05
1.62949e-05
1.62852e-05
1.62755e-05
1.6266e-05
1.62567e-05
1.62478e-05
1.62394e-05
1.62316e-05
1.62245e-05
1.62183e-05
1.62131e-05
1.62092e-05
1.62068e-05
1.62059e-05
1.62077e-05
1.62096e-05
1.62232e-05
0.0112321
0.0144294
0.018104
0.0205648
0.0216087
0.0202318
0.0144008
0.00630921
0.00151631
0.00019765
1.70645e-05
1.64882e-05
1.69917e-05
1.69268e-05
1.6909e-05
1.6898e-05
1.68732e-05
1.68364e-05
1.68654e-05
1.688e-05
1.66177e-05
1.64218e-05
1.67878e-05
1.7566e-05
1.9078e-05
1.97543e-05
2.05201e-05
2.08003e-05
1.94257e-05
1.7819e-05
1.63405e-05
1.56212e-05
1.57485e-05
1.6237e-05
1.66098e-05
1.66729e-05
1.65379e-05
1.63977e-05
1.63429e-05
1.63492e-05
1.63651e-05
1.63684e-05
1.6364e-05
1.63602e-05
1.63603e-05
1.63629e-05
1.63652e-05
1.63657e-05
1.63643e-05
1.63613e-05
1.63571e-05
1.63516e-05
1.6345e-05
1.63374e-05
1.63289e-05
1.63197e-05
1.63101e-05
1.63002e-05
1.62903e-05
1.62805e-05
1.62708e-05
1.62615e-05
1.62525e-05
1.62442e-05
1.62365e-05
1.62296e-05
1.62236e-05
1.62188e-05
1.62153e-05
1.62135e-05
1.62133e-05
1.62157e-05
1.62184e-05
1.62328e-05
0.0154414
0.0189237
0.0228006
0.0252918
0.0263653
0.0256389
0.0209492
0.0118259
0.00392929
0.000714394
5.7702e-05
1.52945e-05
1.69728e-05
1.70148e-05
1.69354e-05
1.69242e-05
1.68944e-05
1.6883e-05
1.69275e-05
1.68072e-05
1.64729e-05
1.66763e-05
1.75402e-05
1.92494e-05
1.96012e-05
1.83962e-05
1.86121e-05
1.88969e-05
2.08484e-05
2.13592e-05
1.98727e-05
1.76327e-05
1.60706e-05
1.55685e-05
1.58598e-05
1.63549e-05
1.66194e-05
1.65968e-05
1.6452e-05
1.63434e-05
1.6318e-05
1.63399e-05
1.63644e-05
1.63741e-05
1.63727e-05
1.63699e-05
1.63695e-05
1.63706e-05
1.63706e-05
1.63683e-05
1.6364e-05
1.63581e-05
1.63511e-05
1.63432e-05
1.63345e-05
1.63252e-05
1.63153e-05
1.63053e-05
1.62952e-05
1.62852e-05
1.62755e-05
1.62662e-05
1.62573e-05
1.6249e-05
1.62415e-05
1.62348e-05
1.62292e-05
1.62247e-05
1.62218e-05
1.62205e-05
1.6221e-05
1.62241e-05
1.62276e-05
1.62428e-05
0.0204625
0.024179
0.0279481
0.0303721
0.0314642
0.0311731
0.0278304
0.0191335
0.00848511
0.00218148
0.000307219
1.83479e-05
1.61372e-05
1.72917e-05
1.70403e-05
1.69446e-05
1.69186e-05
1.69431e-05
1.69365e-05
1.66588e-05
1.65354e-05
1.73706e-05
1.86364e-05
1.96616e-05
1.57697e-05
1.43528e-05
1.27581e-05
1.31023e-05
1.43501e-05
1.77484e-05
2.13149e-05
2.14857e-05
1.94389e-05
1.70031e-05
1.57249e-05
1.55187e-05
1.59317e-05
1.6412e-05
1.66166e-05
1.65523e-05
1.64101e-05
1.63256e-05
1.63188e-05
1.6349e-05
1.63761e-05
1.63854e-05
1.63828e-05
1.63778e-05
1.63745e-05
1.63723e-05
1.63692e-05
1.6364e-05
1.63569e-05
1.63487e-05
1.63396e-05
1.63301e-05
1.63202e-05
1.631e-05
1.62999e-05
1.62899e-05
1.62802e-05
1.62709e-05
1.62621e-05
1.6254e-05
1.62466e-05
1.62403e-05
1.6235e-05
1.6231e-05
1.62286e-05
1.62279e-05
1.62291e-05
1.62329e-05
1.62372e-05
1.62531e-05
0.0260765
0.0298089
0.0332057
0.0355103
0.0367239
0.0368059
0.034672
0.0275002
0.0155108
0.00546159
0.0011113
0.000114072
1.39782e-05
1.69589e-05
1.73744e-05
1.70255e-05
1.6954e-05
1.69929e-05
1.68747e-05
1.65682e-05
1.6947e-05
1.84141e-05
1.89111e-05
1.63999e-05
1.13637e-05
1.02249e-05
1.02609e-05
1.04639e-05
1.00496e-05
1.10199e-05
1.3225e-05
1.78288e-05
2.18431e-05
2.16892e-05
1.90165e-05
1.65887e-05
1.55668e-05
1.55549e-05
1.60045e-05
1.64486e-05
1.66149e-05
1.6539e-05
1.64065e-05
1.63324e-05