/*--------------------------------*- C++ -*----------------------------------*\
| =========                 |                                                 |
| \\      /  F ield         | OpenFOAM: The Open Source CFD Toolbox           |
|  \\    /   O peration     | Version:  2312                                  |
|   \\  /    A nd           | Website:  www.openfoam.com                      |
|    \\/     M anipulation  |                                                 |
\*---------------------------------------------------------------------------*/
FoamFile
{
    version     2.0;
    format      ascii;
    arch        "LSB;label=32;scalar=64";
    class       volSymmTensorField;
    location    "200";
    object      turbulenceProperties:R;
}
// * * * * * * * * * * * * * * * * * * * * * * * * * * * * * * * * * * * * * //

dimensions      [0 2 -2 0 0 0 0];

internalField   nonuniform List<symmTensor> 
11040
(
(0.173527 0.0327818 4.65754e-22 0.143524 1.27211e-22 0.163506)
(0.353814 0.0500374 8.14196e-21 0.210144 5.93519e-20 0.299744)
(0.362357 0.0296685 4.58696e-20 0.178562 2.04842e-19 0.282835)
(0.0647829 0.00151269 -1.58432e-20 0.0418946 1.05866e-20 0.052235)
(0.00679782 0.000323677 -1.08992e-21 0.00541139 7.88945e-21 0.006166)
(0.0320229 0.0111116 -1.25329e-19 0.0555232 6.48963e-20 0.0431017)
(0.0700937 0.0298987 1.04307e-19 0.124407 -7.6435e-19 0.0944958)
(0.0833249 0.0375319 1.66059e-19 0.141118 -7.51287e-20 0.109944)
(0.0797555 0.0362185 7.5461e-20 0.127987 -2.05087e-20 0.102083)
(0.0727168 0.0326107 6.51639e-20 0.111715 1.06076e-19 0.0903675)
(0.0608756 0.0264081 -5.43704e-20 0.0901835 2.33179e-19 0.0735817)
(0.0457196 0.0182884 -7.15547e-20 0.0654119 1.44207e-19 0.0535438)
(0.0272649 0.00855373 5.2744e-21 0.0363598 -5.32031e-20 0.030445)
(0.0215085 0.00618749 7.83445e-21 0.0273929 3.73063e-20 0.0233228)
(0.0209977 0.00612713 -3.4443e-21 0.0248507 8.78679e-21 0.0221878)
(0.0300841 0.00983183 -2.7106e-21 0.0324931 -7.775e-20 0.0311859)
(0.0597932 0.0232336 3.44715e-20 0.0603849 -6.96576e-21 0.0614085)
(0.0901154 0.0371343 -3.3692e-21 0.0892828 2.60315e-19 0.0921988)
(0.100047 0.0426561 -2.54213e-20 0.101435 2.97597e-22 0.10261)
(0.0578428 0.0240506 2.84064e-21 0.0633547 -2.88053e-20 0.0601458)
(0.0209444 0.00846363 1.19664e-20 0.0341512 3.00799e-20 0.025039)
(0.0496808 -0.0222716 -6.4537e-21 0.0739202 8.31951e-20 0.0576282)
(0.126092 -0.0585764 -9.76893e-21 0.156583 -6.01976e-20 0.138083)
(0.211708 -0.0992396 9.00824e-21 0.247926 1.42409e-19 0.228356)
(0.234233 -0.109128 -6.03185e-20 0.267133 -1.38807e-19 0.250354)
(0.192922 -0.0888056 -2.42207e-20 0.217368 -3.00146e-19 0.204719)
(0.129028 -0.0585352 -8.09653e-21 0.146124 -1.30596e-19 0.136565)
(0.0670864 -0.0282344 -1.29107e-20 0.071448 -1.63501e-20 0.0681641)
(0.0295908 0.00558582 -6.93837e-21 0.0168323 -6.2648e-20 0.0235592)
(0.215062 0.0750663 1.14859e-20 0.152818 -2.43754e-19 0.185991)
(0.311789 0.118737 7.61538e-20 0.243489 2.37162e-19 0.277147)
(0.288043 0.113393 -2.5791e-20 0.235945 3.76181e-20 0.25962)
(0.208787 0.0847731 2.01388e-20 0.180627 4.74772e-19 0.19074)
(0.124182 0.0539261 -4.3105e-20 0.122952 2.6198e-19 0.117961)
(0.0328333 0.00967777 -1.12515e-20 0.0688348 -9.32357e-21 0.0437752)
(0.102737 -0.0473481 6.09992e-20 0.185884 2.07373e-19 0.137231)
(0.236988 -0.116657 -3.50381e-20 0.377847 3.10547e-20 0.300578)
(0.437764 -0.218224 1.53356e-20 0.668237 5.04995e-20 0.546287)
(0.758923 -0.380296 -2.03894e-19 1.14185 -8.09794e-20 0.943316)
(1.12843 -0.56635 -4.5209e-20 1.6662 -9.82282e-20 1.38983)
(1.15739 -0.582212 4.86771e-20 1.72893 -1.2336e-20 1.44275)
(0.0243573 -0.00199343 -3.50359e-23 0.0212021 -1.89985e-22 0.0221835)
(0.0338349 -0.00410832 6.40192e-21 0.0297973 1.07798e-21 0.0290148)
(0.105517 -0.000257399 -6.36703e-20 0.0560618 -2.1965e-19 0.073001)
(0.267568 0.00755031 3.61867e-21 0.121043 -7.157e-20 0.197651)
(0.290474 -0.0079157 1.63716e-20 0.125678 -1.01647e-19 0.209825)
(0.696956 -0.0708814 3.62364e-19 0.280498 -1.00526e-18 0.494082)
(0.58182 -0.109207 -8.19955e-19 0.26557 3.15265e-18 0.438758)
(0.274716 -0.0668635 -9.29751e-19 0.141982 2.46627e-18 0.212423)
(0.159065 -0.042893 -7.36411e-20 0.087191 -3.04335e-19 0.129895)
(0.0927431 -0.0256587 -1.1197e-19 0.0519566 3.88111e-20 0.0799746)
(0.0608325 -0.0164669 5.06339e-19 0.0347225 -1.27337e-18 0.0565599)
(0.0399721 -0.00970758 2.62358e-20 0.0231684 -6.11174e-20 0.0401786)
(0.0255593 -0.00640665 -1.74385e-19 0.0157961 7.38392e-19 0.0269507)
(0.015404 -0.00554802 -9.72266e-20 0.0112576 9.50686e-20 0.0154432)
(0.0148754 -0.00568782 -5.90697e-20 0.0145117 -2.54587e-19 0.0122076)
(0.0189631 -0.00562713 6.3182e-21 0.0196042 7.08884e-19 0.0138506)
(0.0200018 -0.00621833 -1.82007e-20 0.0190294 2.4048e-19 0.0145041)
(0.0212681 -0.00841457 -7.67618e-21 0.0179816 -6.64704e-19 0.0185277)
(0.0259991 -0.0104362 -2.96673e-20 0.0231227 -3.16841e-20 0.0299691)
(0.0327084 -0.0132475 -7.13366e-21 0.0388922 1.21846e-19 0.0473024)
(0.0413716 -0.0185648 -1.14875e-20 0.0684212 -9.17551e-20 0.0685796)
(0.0478445 -0.0212611 2.61047e-21 0.0981217 -4.4461e-19 0.0823495)
(0.0398763 -0.0162235 7.98846e-20 0.0881505 4.1007e-19 0.0669287)
(0.0232977 -0.00949146 -2.21721e-20 0.0506051 -3.345e-19 0.037038)
(0.017947 -0.00896177 1.33315e-20 0.0240826 2.48057e-19 0.021213)
(0.0405043 -0.0158925 2.3184e-20 0.0321248 6.90158e-19 0.0373925)
(0.0641381 -0.0207235 7.65629e-20 0.0407339 3.86843e-19 0.0550838)
(0.104593 -0.00414919 8.28838e-20 0.0401378 2.70664e-19 0.0722437)
(0.153523 0.0272719 -2.85068e-20 0.0708622 3.52471e-19 0.107666)
(0.0928358 0.00563968 7.79576e-20 0.0362486 5.19363e-19 0.0634699)
(0.0673421 -0.0307062 -5.26092e-20 0.0683215 -9.13802e-19 0.0756625)
(0.0991359 -0.0501549 1.22588e-19 0.140348 -1.20119e-18 0.133495)
(0.124468 -0.0628841 -1.54447e-20 0.20295 -2.42381e-18 0.18263)
(0.150172 -0.0744027 5.89433e-21 0.26605 -1.13284e-18 0.231417)
(0.176993 -0.0851685 4.75247e-20 0.336447 7.76957e-20 0.280931)
(0.198174 -0.0914433 -3.83515e-19 0.399561 -1.23683e-18 0.320311)
(0.205184 -0.0884249 3.25355e-19 0.438341 -1.62132e-19 0.337943)
(0.212762 -0.0874024 -4.05253e-19 0.466502 -9.07348e-20 0.35036)
(0.224593 -0.0910651 2.53556e-19 0.493609 3.38503e-19 0.365632)
(0.223392 -0.0974607 3.87684e-19 0.461603 2.44385e-19 0.341095)
(0.306093 -0.15517 -8.51685e-19 0.510763 1.33586e-19 0.435582)
(0.0145235 -0.00149606 -1.21301e-22 0.0124367 -2.39804e-22 0.0134777)
(0.00956152 -0.00113358 -3.5227e-21 0.0102963 -5.69602e-21 0.0100344)
(0.00619756 -0.00107297 1.09268e-20 0.00692885 2.54071e-20 0.00647576)
(0.0469052 0.000674016 5.90699e-20 0.0250329 6.28129e-20 0.0353052)
(0.134864 0.000512528 -6.31962e-21 0.0644512 -9.14515e-21 0.0998737)
(0.521771 -0.0232125 -4.41747e-20 0.202664 2.37305e-19 0.36629)
(0.963569 -0.0956133 2.03951e-19 0.387322 1.70476e-19 0.67489)
(0.930403 -0.162033 2.61272e-19 0.416477 -1.60751e-18 0.679193)
(0.546729 -0.137342 -2.6007e-19 0.289633 -1.21591e-19 0.417942)
(0.31717 -0.0944264 2.94524e-19 0.190838 -7.82649e-19 0.249954)
(0.193949 -0.0648089 -5.67149e-19 0.128538 1.33021e-18 0.161553)
(0.113794 -0.0407984 7.72859e-19 0.0802601 -2.33333e-18 0.101763)
(0.0695882 -0.0249604 1.3485e-20 0.0495557 -7.53712e-20 0.0670928)
(0.0553805 -0.0187457 1.14604e-19 0.0375071 -1.00938e-18 0.0535984)
(0.0564651 -0.0192777 5.06615e-20 0.0377565 1.01838e-18 0.0498323)
(0.0669952 -0.0235303 -7.56215e-20 0.0487345 -3.8652e-19 0.0542823)
(0.0728894 -0.0267481 -1.52565e-21 0.0594089 -6.37387e-19 0.0585335)
(0.0633358 -0.0259595 5.25476e-20 0.0605748 -4.92245e-19 0.0551981)
(0.0450144 -0.0221672 2.18831e-20 0.0623341 -2.88362e-20 0.0518183)
(0.0407952 -0.0164771 1.94631e-20 0.0907953 3.34092e-20 0.0700307)
(0.0566 -0.00727092 1.12667e-20 0.14905 8.8646e-20 0.110523)
(0.0750671 0.00348721 -8.75292e-21 0.199594 1.35598e-19 0.142561)
(0.0661901 0.0100004 -5.17387e-20 0.171646 -4.0661e-19 0.120046)
(0.039715 0.0141692 -3.11159e-20 0.0914411 -1.58945e-19 0.0654574)
(0.038036 0.017499 -2.40171e-20 0.0396357 -2.27687e-19 0.0391383)
(0.077299 0.0190171 1.83345e-19 0.040235 -1.62256e-19 0.0595998)
(0.157657 0.023049 -9.14386e-21 0.0668411 1.73243e-19 0.115907)
(0.350696 0.0524205 -2.0662e-19 0.150682 -8.00453e-19 0.251468)
(0.294857 0.0320315 9.57571e-20 0.120553 9.51403e-20 0.204135)
(0.144049 -0.0329773 1.71975e-19 0.0728455 8.22606e-19 0.106819)
(0.108799 -0.0545576 -2.80835e-19 0.148095 6.22761e-19 0.129802)
(0.143956 -0.0674682 3.55326e-19 0.279266 2.07598e-18 0.213954)
(0.184416 -0.0738356 4.0162e-20 0.408102 6.15045e-19 0.301662)
(0.221637 -0.0754857 -1.84917e-19 0.523686 4.56679e-19 0.381996)
(0.255512 -0.0719264 -2.25214e-19 0.630177 -3.71804e-19 0.45425)
(0.281905 -0.0642941 -2.68679e-19 0.714427 6.61865e-19 0.509767)
(0.302634 -0.0560294 -7.76726e-19 0.77907 -4.89842e-20 0.551228)
(0.312399 -0.0501663 1.36216e-18 0.809436 -1.79764e-19 0.569308)
(0.318139 -0.053471 2.96489e-19 0.82212 -1.92536e-19 0.577864)
(0.287527 -0.063455 6.59835e-19 0.724784 -2.08919e-19 0.50538)
(0.36695 -0.147621 1.54797e-18 0.806484 -7.07396e-20 0.591875)
(0.0101388 -0.000965971 -3.19229e-23 0.00866113 -2.69795e-22 0.00940544)
(0.00727464 -0.000970268 -2.04858e-23 0.0073696 1.00272e-21 0.00739509)
(0.00566908 -0.000567994 -4.17956e-21 0.00655744 -6.78057e-21 0.00619201)
(0.00425492 -0.000582889 -1.3768e-20 0.00542405 -1.79048e-20 0.00487149)
(0.0133891 -9.31465e-06 4.95304e-21 0.00850311 4.5312e-21 0.0108229)
(0.092336 -0.000628759 4.85023e-20 0.0427914 3.39615e-20 0.0674261)
(0.445343 -0.0214359 1.21567e-20 0.172433 -1.88287e-19 0.311095)
(1.00138 -0.0980614 2.56839e-19 0.400995 -5.63884e-19 0.704317)
(1.13721 -0.177625 -2.5695e-19 0.493849 7.39656e-19 0.819111)
(0.828288 -0.187199 1.34951e-19 0.412517 2.31577e-19 0.624513)
(0.496824 -0.140756 -1.52657e-19 0.286131 1.1206e-18 0.38928)
(0.301587 -0.0977496 -6.68715e-19 0.19415 1.15039e-18 0.247883)
(0.182898 -0.0649469 4.76461e-19 0.127898 -9.35894e-19 0.160802)
(0.124323 -0.0454414 -3.27319e-21 0.0895295 8.71832e-19 0.115132)
(0.112406 -0.0395501 -1.57878e-19 0.0775532 -1.07332e-18 0.100707)
(0.129379 -0.0439337 -1.30691e-19 0.0875224 -4.41459e-19 0.107594)
(0.139406 -0.0478536 3.49303e-20 0.098386 2.24719e-19 0.112187)
(0.117924 -0.0444972 1.20865e-19 0.0937456 1.52195e-20 0.0990522)
(0.0691887 -0.0333114 3.46759e-20 0.0834476 5.76739e-20 0.0747245)
(0.0515087 -0.0146657 -1.11576e-20 0.127308 -7.36375e-20 0.0934433)
(0.0921386 0.0115514 -2.30695e-20 0.242114 -1.56005e-19 0.173173)
(0.139027 0.0379734 -3.82223e-20 0.342994 -1.96062e-19 0.2437)
(0.137136 0.0483887 -2.46607e-20 0.316131 -9.36542e-20 0.22509)
(0.104005 0.0496356 -8.45634e-20 0.191664 1.03468e-19 0.145961)
(0.111044 0.0485798 -1.82937e-19 0.105309 6.03703e-19 0.108082)
(0.195602 0.0530661 -3.87377e-19 0.108545 -5.62293e-19 0.153531)
(0.381362 0.070953 1.43421e-19 0.174116 -4.02512e-19 0.282348)
(0.655044 0.107918 1.84201e-19 0.288846 8.81255e-19 0.473056)
(0.443153 0.0303944 -3.30342e-20 0.173282 2.95117e-19 0.305825)
(0.1802 -0.0353908 -4.64941e-19 0.0842458 -3.32047e-19 0.133048)
(0.116433 -0.0590358 3.01145e-19 0.178842 -9.15066e-19 0.15023)
(0.185463 -0.0727878 -4.41425e-19 0.412407 4.95374e-19 0.300975)
(0.25769 -0.0696756 4.88544e-19 0.63584 -2.00496e-19 0.450006)
(0.32463 -0.0557597 2.81723e-19 0.836276 -6.45896e-19 0.584869)
(0.38412 -0.0343382 8.28478e-21 1.00881 4.24876e-19 0.702285)
(0.433283 -0.0100947 4.31773e-21 1.14475 6.01623e-19 0.794793)
(0.470249 0.0118645 8.59382e-20 1.24207 3.20164e-19 0.861931)
(0.489261 0.0292637 1.68744e-19 1.28764 -4.44252e-19 0.891593)
(0.489255 0.0289999 -8.1214e-19 1.28807 1.97086e-19 0.892514)
(0.441345 0.0164533 1.50504e-18 1.15651 -7.90759e-19 0.789388)
(0.443712 -0.103847 -6.44807e-19 1.11891 3.87023e-20 0.79353)
(0.00728677 -0.000658655 6.38883e-22 0.00615098 1.08444e-21 0.00671137)
(0.00606307 -0.000774012 -9.60093e-22 0.00586634 -1.594e-21 0.00592598)
(0.00484281 -0.000596899 4.59728e-21 0.00531056 6.54347e-21 0.00504913)
(0.00433003 -0.000406556 6.01334e-21 0.0051782 7.42223e-21 0.00476164)
(0.00301967 -0.000272177 -8.19115e-21 0.00381837 -8.81981e-21 0.00342965)
(0.00304942 -3.65623e-05 9.76333e-22 0.00232262 1.62187e-23 0.0026675)
(0.0445146 -0.000449742 -6.63361e-21 0.0223953 -5.34324e-21 0.0333258)
(0.308212 -0.01523 -1.01587e-19 0.119627 -3.69052e-20 0.214671)
(0.840644 -0.0784885 1.23192e-19 0.334719 -4.80859e-20 0.591494)
(1.18729 -0.169998 -1.44752e-21 0.504817 3.65941e-19 0.849829)
(1.04761 -0.212428 4.46129e-19 0.496138 -1.33737e-18 0.777101)
(0.698417 -0.182755 -2.17618e-19 0.378892 2.33118e-19 0.541093)
(0.425693 -0.130969 -2.63465e-19 0.260713 1.79985e-19 0.345622)
(0.269637 -0.092358 2.23962e-19 0.181568 -2.30541e-18 0.232461)
(0.205517 -0.0730007 2.12379e-19 0.143633 2.9411e-19 0.181397)
(0.213003 -0.0731752 1.702e-19 0.14525 1.15693e-19 0.179334)
(0.236671 -0.0786863 -1.20108e-19 0.159321 5.85792e-19 0.190604)
(0.213332 -0.0737115 -3.39945e-20 0.149981 1.24244e-19 0.173991)
(0.125039 -0.0533729 4.84878e-20 0.113703 -6.60281e-20 0.119086)
(0.0558728 -0.0176011 2.81816e-20 0.13559 5.17861e-20 0.102323)
(0.123046 0.0268096 1.12787e-20 0.313905 1.75119e-19 0.225566)
(0.204812 0.0700851 -6.97129e-20 0.479971 1.41779e-19 0.344681)
(0.221906 0.0882454 -4.95802e-20 0.485082 1.75998e-19 0.349588)
(0.181953 0.088524 3.35537e-19 0.319399 2.79305e-19 0.246333)
(0.195082 0.0835863 3.53842e-19 0.17869 -1.31729e-19 0.186164)
(0.359131 0.0891348 1.63046e-19 0.188019 1.46585e-18 0.276809)
(0.658898 0.111783 -1.52868e-20 0.292149 -1.75322e-20 0.481187)
(0.886426 0.134313 5.78177e-21 0.382234 -3.2913e-19 0.635659)
(0.551479 0.0287035 -2.65214e-19 0.213751 -8.35396e-19 0.377243)
(0.18364 -0.0241333 3.77313e-19 0.076177 -5.80455e-19 0.133663)
(0.119897 -0.0587661 -6.06122e-20 0.218758 1.42551e-18 0.174397)
(0.237518 -0.0716786 1.53491e-19 0.575212 -7.48998e-19 0.41045)
(0.353336 -0.0575452 -3.47391e-19 0.912783 1.49675e-18 0.638045)
(0.46239 -0.0249231 -3.20149e-19 1.21831 -3.17086e-19 0.844678)
(0.558286 0.01676 1.19973e-19 1.47378 -6.40541e-20 1.02188)
(0.640207 0.0604025 4.07252e-19 1.6778 1.02082e-20 1.16416)
(0.700429 0.0987171 -5.1345e-19 1.81837 3.37516e-19 1.26556)
(0.736942 0.129371 3.33363e-20 1.89216 -1.08122e-19 1.31707)
(0.736259 0.131471 -7.24568e-19 1.88957 6.41127e-19 1.31729)
(0.684655 0.114762 -3.46808e-18 1.75431 9.27703e-19 1.20845)
(0.612358 -0.0282515 2.74133e-18 1.61914 -9.49289e-19 1.13133)
(0.00507448 -0.000431015 -6.82562e-22 0.00423121 -8.50693e-22 0.0046494)
(0.00437884 -0.000530923 3.16328e-21 0.0041039 3.51324e-21 0.00423555)
(0.00373695 -0.000491702 -1.77157e-21 0.0039282 -2.22119e-21 0.00382473)
(0.00317513 -0.000351742 -1.40172e-21 0.00367216 -2.35211e-21 0.00341988)
(0.00320162 -0.00026591 1.30037e-21 0.00395096 2.07376e-21 0.00358466)
(0.00207692 -0.000111757 -7.64316e-22 0.00254196 -5.82063e-22 0.00231715)
(0.000310781 -7.26374e-06 -2.64957e-22 0.000279955 -2.2367e-22 0.000294193)
(0.0127595 -0.000108883 -1.06422e-21 0.00820627 1.01625e-21 0.0104388)
(0.175152 -0.00809173 -6.07509e-21 0.0684011 1.83267e-21 0.121811)
(0.604341 -0.0520632 -2.24094e-19 0.239002 -2.24494e-19 0.423876)
(1.06551 -0.138702 -1.0843e-19 0.444127 -1.09868e-19 0.759049)
(1.14682 -0.207912 2.10445e-19 0.520582 -1.08787e-19 0.838609)
(0.884075 -0.20953 -4.09961e-19 0.45114 6.83802e-20 0.67366)
(0.575516 -0.165186 2.43453e-20 0.332204 8.17084e-19 0.460732)
(0.383994 -0.124711 2.77428e-19 0.24561 4.98052e-19 0.322634)
(0.327766 -0.110623 -3.45162e-19 0.218769 -1.22278e-19 0.275764)
(0.353064 -0.116163 1.57403e-19 0.233704 -8.20679e-19 0.285475)
(0.35636 -0.116958 -4.83547e-20 0.236964 5.63928e-19 0.285342)
(0.25216 -0.0920646 6.73708e-20 0.184749 -1.06164e-19 0.21679)
(0.0714439 -0.0360479 3.53104e-20 0.120002 1.90776e-19 0.105411)
(0.127911 0.0284011 -5.56817e-20 0.326471 -2.11796e-19 0.237372)
(0.241579 0.0860138 -1.68325e-20 0.559969 3.00581e-20 0.405106)
(0.289011 0.115017 9.51734e-20 0.631086 4.05685e-21 0.454494)
(0.248693 0.118974 -1.92715e-19 0.45117 -2.82135e-19 0.342702)
(0.267962 0.112993 -3.54027e-19 0.239523 -5.8749e-19 0.251849)
(0.545356 0.113689 4.30554e-19 0.260817 -3.03482e-19 0.408451)
(0.937254 0.132158 -2.87479e-19 0.396176 -2.16012e-19 0.674539)
(1.02193 0.128029 -1.61646e-19 0.423385 -7.63322e-19 0.724794)
(0.58014 0.0282421 5.25264e-19 0.22543 -3.52743e-19 0.393345)
(0.14823 -0.0074516 1.40509e-19 0.0563341 1.0984e-18 0.108642)
(0.131395 -0.053546 -3.84108e-19 0.289724 -5.64108e-19 0.217921)
(0.305671 -0.0655789 -3.67433e-19 0.776612 4.54625e-19 0.547881)
(0.472572 -0.0400918 -6.50077e-20 1.24233 -1.62028e-18 0.865381)
(0.631202 0.0125239 1.37975e-19 1.6669 -5.05037e-19 1.1555)
(0.771257 0.0760466 1.63317e-20 2.02054 -5.3176e-19 1.40354)
(0.891101 0.140464 6.05121e-19 2.30229 -3.18251e-19 1.60306)
(0.979349 0.196237 1.92494e-19 2.49509 4.22473e-19 1.74491)
(1.03665 0.240135 9.03083e-19 2.60439 -9.04856e-19 1.82452)
(1.04009 0.244979 3.11434e-18 2.6097 -1.25512e-18 1.83138)
(0.998249 0.224885 5.69163e-20 2.50744 1.4854e-19 1.74393)
(0.886187 0.0798881 -4.05208e-18 2.32739 1.11621e-18 1.62076)
(0.0035711 -0.000285742 -1.21295e-22 0.0029503 -1.97967e-22 0.00326007)
(0.00324911 -0.000370529 1.84634e-22 0.00294444 4.06194e-22 0.00309081)
(0.00292425 -0.000379848 -1.44673e-21 0.0029393 -1.53193e-21 0.00292732)
(0.00253503 -0.00031836 -2.19496e-21 0.0028056 -2.2106e-21 0.00266615)
(0.0022719 -0.000227655 -8.08959e-22 0.00271902 -6.95612e-22 0.00249207)
(0.00237108 -0.000170268 3.16001e-21 0.00298508 3.20242e-21 0.00268122)
(0.00151797 -5.57008e-05 -4.87942e-22 0.00181882 -5.34537e-22 0.0016727)
(6.31529e-05 -6.20268e-07 1.51655e-23 6.5017e-05 1.27983e-23 6.40834e-05)
(0.000997718 -1.95922e-06 3.50643e-22 0.000915466 2.60814e-22 0.000955538)
(0.0761365 -0.00290322 -1.20933e-20 0.0306485 8.98502e-21 0.0532453)
(0.374099 -0.0280674 2.51561e-19 0.14665 2.00097e-19 0.261064)
(0.834732 -0.096411 -2.98982e-19 0.341147 -3.39038e-19 0.590788)
(1.1083 -0.178293 3.92956e-19 0.484854 3.07477e-19 0.801158)
(1.00997 -0.214015 -3.07371e-19 0.486958 4.56701e-19 0.756509)
(0.737905 -0.194832 1.06507e-19 0.400875 -9.4977e-19 0.580012)
(0.542328 -0.165148 -1.1488e-19 0.328338 5.23737e-19 0.441932)
(0.50035 -0.159546 -1.25957e-19 0.318997 4.74585e-19 0.404554)
(0.517481 -0.164727 2.36662e-19 0.333337 3.56717e-19 0.410952)
(0.445474 -0.146906 -1.06636e-19 0.294884 3.38577e-19 0.361637)
(0.201733 -0.0814055 2.66467e-20 0.165048 -1.07295e-18 0.194051)
(0.0887421 0.00716227 4.08226e-22 0.234977 3.80877e-19 0.178562)
(0.223976 0.076079 -6.03299e-20 0.529872 -4.11222e-20 0.386939)
(0.306711 0.113419 -8.95959e-20 0.692401 -1.85864e-19 0.493026)
(0.27924 0.124065 2.25091e-19 0.555427 -1.02145e-19 0.405459)
(0.274385 0.1127 1.91291e-19 0.236878 7.80709e-19 0.25102)
(0.718402 0.106973 -3.38114e-19 0.307228 -6.43668e-19 0.520163)
(1.1584 0.116564 -1.62061e-20 0.463504 -4.65196e-19 0.822506)
(1.01742 0.0869627 2.06907e-19 0.40249 8.92288e-19 0.710267)
(0.499168 0.0280901 7.70876e-20 0.195794 1.00834e-18 0.336216)
(0.0686063 0.0109421 -1.62198e-19 0.0304416 -9.19707e-20 0.0579214)
(0.163522 -0.041448 1.72143e-20 0.410311 -9.4487e-19 0.296137)
(0.388229 -0.0521407 -3.28497e-19 1.01241 -3.86327e-19 0.709742)
(0.609535 -0.0156936 -1.73147e-19 1.61152 9.35693e-19 1.1213)
(0.821749 0.0569106 -4.48104e-20 2.1625 1.44674e-18 1.50142)
(1.01069 0.142819 -3.6588e-19 2.62393 1.43272e-18 1.82684)
(1.17046 0.227909 1.2842e-18 2.98743 -1.36956e-18 2.08654)
(1.28949 0.300849 1.70693e-18 3.23882 -1.77239e-18 2.27214)
(1.36852 0.356435 -2.54168e-18 3.3886 1.37862e-18 2.38354)
(1.38129 0.365272 1.15349e-18 3.41386 -1.11916e-18 2.40458)
(1.35791 0.342138 -1.04333e-19 3.37194 1.53272e-19 2.36052)
(1.24373 0.214277 -1.20834e-19 3.19985 5.33083e-19 2.23182)
(0.00255437 -0.000192145 -2.40437e-23 0.00209227 2.15162e-23 0.00232331)
(0.00237706 -0.000254912 -6.20508e-22 0.00210182 -5.98646e-22 0.00223627)
(0.00221948 -0.000279386 6.33215e-22 0.00214266 4.01946e-22 0.00217769)
(0.0020382 -0.000265432 2.6296e-21 0.00215337 2.59542e-21 0.00209327)
(0.00179158 -0.000211306 5.02296e-22 0.00205444 5.38752e-22 0.00192102)
(0.00162529 -0.000145604 3.98802e-22 0.00198934 1.17932e-22 0.00180517)
(0.00178502 -0.000114167 -5.33997e-21 0.00229886 -4.46102e-21 0.00204269)
(0.00116201 -3.31272e-05 -1.69663e-22 0.00138409 -1.10604e-22 0.00127558)
(2.08786e-06 -1.7312e-10 -7.36064e-27 2.08911e-06 -7.08108e-27 2.0885e-06)
(0.000132348 -1.04337e-07 2.80034e-23 0.000128746 2.31381e-23 0.000130496)
(0.0245808 -0.000618593 -2.27936e-20 0.0113691 -2.41402e-20 0.017885)
(0.198053 -0.0121225 -8.25461e-20 0.0770353 -8.23839e-21 0.137448)
(0.581728 -0.0575844 3.00037e-19 0.233244 3.91877e-20 0.40866)
(0.959661 -0.134977 -3.71902e-19 0.406264 -1.9281e-19 0.686717)
(1.05255 -0.197762 2.14229e-19 0.483104 1.38234e-19 0.776136)
(0.897837 -0.215372 2.86092e-19 0.46033 2.24885e-19 0.689591)
(0.747147 -0.212221 9.58861e-20 0.429767 5.12288e-19 0.58972)
(0.708501 -0.215562 -2.41541e-19 0.435692 1.7721e-19 0.55876)
(0.6652 -0.206117 -4.28949e-19 0.417474 -2.23433e-20 0.524428)
(0.46761 -0.150208 7.85408e-20 0.297506 -5.89898e-19 0.385869)
(0.106787 -0.0468991 3.94983e-19 0.112136 6.32574e-19 0.133809)
(0.137951 0.0359775 -2.56971e-19 0.34616 -1.20808e-19 0.26116)
(0.250045 0.0733013 1.44277e-20 0.602388 2.86614e-19 0.42027)
(0.245362 0.0785857 1.25659e-20 0.566084 2.20204e-19 0.386196)
(0.154946 0.0552906 -5.76108e-20 0.115013 -2.49216e-19 0.126246)
(0.839941 0.0426018 -1.32147e-20 0.321783 3.73764e-19 0.589642)
(1.23966 0.0432856 1.12892e-19 0.471022 6.41433e-19 0.869323)
(0.876784 0.0154017 2.05732e-19 0.334606 -2.02549e-19 0.599289)
(0.300603 0.0212588 -3.0651e-19 0.120488 5.74125e-19 0.199879)
(0.0591947 0.0264309 -6.88019e-19 0.122516 -7.4298e-19 0.100174)
(0.223719 -0.0208263 2.46025e-19 0.590284 1.04005e-20 0.417881)
(0.482217 -0.0266896 4.45845e-19 1.27372 -6.4825e-19 0.889516)
(0.754357 0.0208837 3.36179e-19 1.99416 3.49877e-19 1.38745)
(1.02087 0.112446 2.02771e-19 2.66984 -9.55369e-19 1.85732)
(1.25879 0.220168 1.01373e-19 3.23674 1.51252e-19 2.25948)
(1.45897 0.324585 -7.44871e-19 3.68213 -8.05721e-20 2.57913)
(1.60801 0.412515 -1.48861e-18 3.99084 1.72105e-18 2.80666)
(1.70874 0.476776 1.32053e-18 4.18474 -1.23542e-18 2.95077)
(1.73592 0.490231 -1.25512e-18 4.24184 6.0812e-19 2.99194)
(1.73589 0.463393 3.16063e-18 4.27751 -2.26752e-18 3.00433)
(1.64918 0.36487 5.61882e-19 4.1586 3.11642e-20 2.90347)
(0.00184486 -0.000130531 -9.49389e-23 0.00150014 5.67985e-24 0.00167256)
(0.00174244 -0.00017562 -4.71928e-22 0.00151117 -6.48668e-22 0.00162534)
(0.00165834 -0.000200114 2.0159e-21 0.00154928 1.74014e-21 0.00160192)
(0.00156464 -0.000203182 -3.6316e-22 0.00158404 -1.17451e-22 0.00157279)
(0.0014513 -0.000184949 7.0021e-22 0.00158971 5.14698e-22 0.00152005)
(0.0012768 -0.00013973 -5.59348e-22 0.00149906 -4.67358e-22 0.00138794)
(0.00118047 -9.54632e-05 1.63435e-21 0.00147134 1.62625e-21 0.00132484)
(0.00129786 -7.02828e-05 2.16927e-21 0.00169363 1.48322e-21 0.00149463)
(0.000996774 -2.64677e-05 3.88373e-23 0.00121485 2.59103e-22 0.00110724)
(3.92531e-05 -4.28706e-08 3.74416e-24 3.96531e-05 2.5871e-24 3.94591e-05)
(8.40263e-05 -8.03314e-07 2.93114e-23 7.78598e-05 2.77972e-23 8.08991e-05)
(0.0018286 -9.87091e-06 -8.72844e-22 0.00151683 -5.42755e-22 0.00166987)
(0.0873587 -0.00407104 -8.01062e-21 0.0339773 -2.60165e-20 0.0604443)
(0.360384 -0.0293625 1.13674e-19 0.142062 1.45919e-19 0.251398)
(0.751418 -0.0903727 -6.1343e-19 0.308986 -4.08729e-19 0.532844)
(1.01271 -0.166996 3.67552e-19 0.445616 2.19952e-19 0.735954)
(1.04016 -0.225277 -4.73907e-20 0.507053 -6.01743e-19 0.779818)
(0.976149 -0.258043 3.95203e-19 0.535854 2.9022e-19 0.749674)
(0.91018 -0.263056 -4.34791e-19 0.537661 -6.45308e-19 0.704762)
(0.769637 -0.224002 9.25639e-20 0.454875 9.01515e-19 0.601877)
(0.465824 -0.128036 2.38011e-19 0.258388 -5.76183e-19 0.383553)
(0.0954084 -0.0347796 -2.23067e-19 0.0878273 2.76496e-19 0.120895)
(0.124006 -0.00385113 9.72451e-20 0.325995 2.06166e-20 0.223832)
(0.188447 -0.0262339 1.84262e-19 0.465412 -2.26373e-19 0.301249)
(0.214304 -0.0828507 4.66864e-20 0.176234 6.01028e-19 0.182524)
(0.927177 -0.106238 2.92146e-19 0.377317 -1.55202e-19 0.661402)
(1.15118 -0.102785 -1.6519e-19 0.455364 3.19209e-19 0.812765)
(0.636113 -0.0887519 -2.46852e-19 0.273441 -1.39076e-19 0.439987)
(0.0267956 -0.00595679 -1.27306e-19 0.030689 -9.57153e-19 0.0191123)
(0.13818 0.0318979 6.99058e-19 0.350986 -2.94138e-19 0.254074)
(0.309546 0.00810468 1.33682e-19 0.821331 6.54936e-19 0.577971)
(0.580799 0.0160459 1.31586e-19 1.53705 8.032e-19 1.07278)
(0.893955 0.0771497 -2.58988e-19 2.34996 -5.6676e-20 1.63775)
(1.21079 0.186311 -5.98705e-19 3.13493 6.23977e-19 2.18801)
(1.4938 0.314219 2.97238e-19 3.79258 -4.77939e-20 2.65802)
(1.73063 0.435319 -9.27527e-20 4.30845 6.17399e-19 3.03083)
(1.90618 0.534854 2.87534e-18 4.66579 -3.57315e-18 3.29378)
(2.02473 0.603929 -2.9362e-18 4.89699 2.63335e-18 3.46463)
(2.06843 0.620871 3.07578e-19 4.99146 -2.28522e-19 3.52633)
(2.09003 0.587578 -2.3525e-18 5.10611 1.46861e-18 3.59367)
(2.04849 0.516981 2.99852e-18 5.07631 -2.0565e-18 3.54113)
(0.00134328 -8.93803e-05 -3.64953e-22 0.00108543 -3.51208e-22 0.00121424)
(0.0012802 -0.000121407 1.44071e-21 0.00109291 1.14043e-21 0.00118618)
(0.00123053 -0.00014149 -3.64335e-22 0.00112001 -8.55228e-23 0.00117437)
(0.00118153 -0.000150369 -2.60535e-21 0.0011543 -2.10814e-21 0.00116695)
(0.00112274 -0.000146098 -2.76743e-22 0.0011792 -3.78044e-22 0.00115033)
(0.00104809 -0.000128796 2.57338e-21 0.00117949 2.0933e-21 0.00111362)
(0.000926513 -9.43045e-05 -5.05338e-22 0.00110568 -4.83566e-22 0.00101622)
(0.000861228 -6.30737e-05 -6.27654e-21 0.00108618 -4.80658e-21 0.000972995)
(0.00093896 -4.25234e-05 7.24623e-21 0.0012394 5.4621e-21 0.00108735)
(0.000820638 -1.99402e-05 2.33393e-22 0.00102537 -1.64573e-22 0.000923245)
(9.33593e-05 -2.41823e-07 -2.6021e-24 9.58369e-05 -3.23136e-24 9.46327e-05)
(1.40461e-05 -3.44085e-08 -7.50296e-25 1.42224e-05 -3.43215e-25 1.41404e-05)
(0.002642 -3.18846e-05 -5.61068e-21 0.00167771 -3.16133e-21 0.00215205)
(0.0255335 -0.000841113 1.10248e-20 0.0106545 -1.43022e-21 0.0179956)
(0.189838 -0.0122922 -1.6538e-19 0.0738877 -2.37636e-20 0.131707)
(0.527605 -0.0531742 2.86449e-19 0.211874 7.14796e-20 0.371162)
(0.901484 -0.12944 -2.1545e-19 0.383321 7.56123e-20 0.646153)
(1.1297 -0.219437 2.73727e-20 0.527018 -1.07066e-19 0.828433)
(1.17366 -0.283827 -2.20697e-19 0.611119 -1.61847e-19 0.88035)
(1.07617 -0.283344 4.35623e-20 0.592661 -2.71534e-19 0.816979)
(0.871894 -0.213633 2.74008e-19 0.453388 2.53182e-19 0.668743)
(0.58683 -0.120168 4.51532e-20 0.276166 -6.46729e-19 0.463106)
(0.301205 -0.101303 -2.76598e-19 0.1985 4.65612e-19 0.261297)
(0.355046 -0.168795 3.55583e-19 0.437005 -2.53564e-19 0.374662)
(0.70136 -0.297712 2.83198e-20 0.64021 -1.59409e-19 0.656037)
(1.15485 -0.348382 -6.37934e-19 0.695924 -2.53153e-19 0.930515)
(1.09296 -0.310168 3.55574e-19 0.629639 -1.05099e-18 0.858353)
(0.573785 -0.227491 1.5511e-19 0.479932 1.33393e-18 0.50298)
(0.182973 -0.0673836 -1.91489e-20 0.405803 -9.73534e-20 0.282737)
(0.234402 0.0207475 -1.92088e-19 0.617345 1.31085e-18 0.433108)
(0.398331 0.0444855 -3.01846e-19 1.0449 -4.47052e-19 0.733839)
(0.669957 0.0831295 4.41048e-19 1.75026 -7.91641e-20 1.22445)
(1.01362 0.163954 -3.08752e-19 2.62119 -7.67598e-19 1.83541)
(1.37059 0.290536 9.51862e-20 3.48062 1.29387e-18 2.4452)
(1.69065 0.434119 5.45435e-19 4.20275 -8.92294e-19 2.96737)
(1.96149 0.568146 -5.73794e-19 4.77976 3.44988e-19 3.38851)
(2.15427 0.673541 -9.92091e-19 5.16369 5.13094e-19 3.67296)
(2.27906 0.741905 1.99975e-18 5.40671 -1.98296e-18 3.85373)
(2.32835 0.758356 2.36476e-19 5.51551 -9.54366e-19 3.92163)
(2.35581 0.714935 2.96148e-18 5.6768 -3.66134e-18 4.01984)
(2.3591 0.6593 -3.30386e-18 5.74934 2.08329e-18 4.01927)
(0.000982317 -6.13108e-05 -3.12757e-22 0.000789239 -1.68457e-22 0.000885718)
(0.000942236 -8.41914e-05 -1.31799e-21 0.000794058 -8.94724e-22 0.000868301)
(0.000910136 -9.96041e-05 -4.58718e-23 0.000811245 -1.97028e-22 0.000860393)
(0.000881816 -0.000108715 -2.06771e-22 0.000836621 -1.89605e-22 0.000858592)
(0.000851221 -0.000110602 1.81437e-21 0.000862567 1.34976e-21 0.000856447)
(0.000813038 -0.000104369 9.44192e-22 0.000878978 7.2286e-22 0.000845688)
(0.000761148 -8.96291e-05 -1.30859e-21 0.000873756 -9.71983e-22 0.000817351)
(0.000681207 -6.55699e-05 -7.83833e-22 0.000822594 -3.52698e-22 0.000752206)
(0.000623555 -4.17144e-05 -6.1064e-22 0.000789991 -5.55382e-22 0.000706704)
(0.000673125 -2.5433e-05 -6.09602e-21 0.00089582 -4.62645e-21 0.00078319)
(0.000642204 -1.32532e-05 -1.16715e-21 0.0008212 -6.43164e-22 0.000731244)
(0.000210183 -1.43215e-06 -1.77287e-23 0.000225894 -6.02818e-24 0.000218199)
(1.08686e-05 -8.26097e-09 1.01565e-24 1.09288e-05 7.61189e-25 1.09002e-05)
(0.000151102 -1.91524e-06 -7.577e-22 0.000136348 -5.02728e-22 0.000143736)
(0.00231532 -3.11258e-05 4.71691e-21 0.00170512 3.208e-21 0.00200535)
(0.0774258 -0.00401151 -6.86606e-20 0.0300008 -4.67724e-20 0.0535652)
(0.322244 -0.0270269 3.24479e-19 0.127239 1.74714e-19 0.225126)
(0.72735 -0.0900726 6.78777e-19 0.300911 4.02773e-19 0.514858)
(1.11283 -0.188975 -4.84443e-19 0.496587 -9.41733e-20 0.800459)
(1.2811 -0.268353 -4.97369e-19 0.619605 -5.52078e-19 0.939652)
(1.22234 -0.266687 4.03666e-19 0.60068 5.91044e-19 0.907492)
(1.07992 -0.198787 -4.66816e-19 0.489648 -2.81415e-19 0.807534)
(0.933642 -0.182664 6.00388e-19 0.431788 1.95434e-19 0.714612)
(0.879366 -0.300354 -2.26227e-19 0.596071 -3.28201e-19 0.738428)
(1.2654 -0.518572 2.20907e-19 1.08566 -7.1103e-20 1.15928)
(1.6062 -0.643642 -9.41364e-20 1.3273 7.08424e-19 1.45744)
(1.36414 -0.570097 -1.70114e-19 1.20921 1.47798e-19 1.26495)
(0.847959 -0.406965 1.63776e-19 1.04314 -6.03675e-19 0.90934)
(0.391663 -0.1662 -3.81812e-19 0.808564 -1.56586e-19 0.58144)
(0.314405 -0.00820317 1.72457e-19 0.828597 -7.15689e-19 0.571846)
(0.450422 0.0862541 -1.9719e-19 1.15321 -1.04803e-19 0.809004)
(0.710861 0.175131 -2.08001e-19 1.77764 3.02419e-19 1.25485)
(1.05972 0.285233 5.14182e-19 2.61933 4.91242e-19 1.85783)