/*--------------------------------*- C++ -*----------------------------------*\
| =========                 |                                                 |
| \\      /  F ield         | OpenFOAM: The Open Source CFD Toolbox           |
|  \\    /   O peration     | Version:  2312                                  |
|   \\  /    A nd           | Website:  www.openfoam.com                      |
|    \\/     M anipulation  |                                                 |
\*---------------------------------------------------------------------------*/
FoamFile
{
    version     2.0;
    format      ascii;
    arch        "LSB;label=32;scalar=64";
    class       volScalarField;
    location    "200";
    object      turbulenceProperties:I;
}
// * * * * * * * * * * * * * * * * * * * * * * * * * * * * * * * * * * * * * //

dimensions      [0 0 0 0 0 0 0];

internalField   nonuniform List<scalar> 
11040
(
0.0546145
0.0746019
0.130902
1
0.0624495
0.179908
0.258394
0.28212
0.286033
0.287222
0.286498
0.277612
0.245372
0.248773
0.252837
0.259294
0.284562
0.289514
0.302268
0.299631
0.475881
0.538027
0.335778
0.30619
0.294712
0.302555
0.333364
0.338285
0.776767
0.340488
0.316965
0.31767
0.336189
0.409583
0.755314
0.706216
0.406528
0.332493
0.316363
0.301551
0.291457
0.0231129
0.0216683
0.0355971
0.0823682
0.204476
1
1
0.534487
0.395278
0.303
0.263614
0.239399
0.223977
0.198896
0.202006
0.194747
0.156063
0.139044
0.164512
0.274371
1
0.45382
0.203395
0.115012
0.0786765
0.107465
0.15679
0.280808
0.642155
0.178186
0.171716
0.252008
0.393397
0.855424
1
0.591925
0.321692
0.219539
0.169713
0.132924
0.13437
0.0185419
0.0135847
0.00972805
0.0231605
0.0492297
0.162362
0.655529
1
1
0.852951
0.623537
0.495916
0.436292
0.438284
0.452028
0.422623
0.34674
0.277652
0.257536
0.39202
1
0.584308
0.275796
0.155298
0.10962
0.140246
0.236832
0.625009
0.600062
0.247513
0.258279
0.375543
0.631032
1
1
0.601985
0.365403
0.257992
0.199568
0.152905
0.148103
0.016216
0.0123807
0.0102075
0.00832655
0.0125152
0.0365538
0.114034
0.335478
1
1
1
1
0.999711
0.900173
0.902097
0.811788
0.603517
0.433282
0.343804
0.480485
1
0.799093
0.404021
0.247816
0.19528
0.24537
0.425697
1
0.589999
0.293608
0.305667
0.503621
0.906015
1
1
0.657356
0.425397
0.30879
0.240002
0.186578
0.164438
0.0140856
0.0116624
0.00984219
0.00885267
0.00701367
0.00612745
0.0239969
0.0792401
0.209616
0.510914
1
1
1
1
1
1
1
0.743518
0.504284
0.524392
1
0.989208
0.558636
0.358074
0.285404
0.374614
0.677197
1
0.572194
0.310546
0.363901
0.664628
1
1
1
0.715777
0.488411
0.364134
0.285926
0.227692
0.192096
0.0118411
0.0102213
0.00892501
0.00791629
0.00765073
0.00581136
0.00202669
0.0128231
0.0526605
0.137613
0.305818
0.627073
1
1
1
1
1
1
0.90491
0.592504
1
1
0.712714
0.488073
0.386847
0.544052
0.985931
0.978546
0.538609
0.296053
0.460571
0.881826
1
1
1
0.760134
0.545578
0.417865
0.332706
0.271656
0.227584
0.00990574
0.00892015
0.00808845
0.00725951
0.00668576
0.00663623
0.0050003
0.000949508
0.00376877
0.0318883
0.0902227
0.198727
0.386318
0.678499
1
1
1
1
1
1
0.861173
0.894853
0.789736
0.629311
0.477807
0.778316
1
0.745561
0.47916
0.228085
0.636721
1
1
1
1
0.780499
0.588783
0.464318
0.376358
0.314608
0.265907
0.00829235
0.00765535
0.00714052
0.00663997
0.00606748
0.00566267
0.00582439
0.00443008
0.000173373
0.00137454
0.0174078
0.057567
0.132845
0.258168
0.445096
0.673797
0.938489
1
1
1
0.866058
0.664157
0.703442
0.706679
0.454244
1
1
0.586379
0.370743
0.343779
0.976422
1
1
1
1
0.773918
0.611543
0.497592
0.412284
0.352589
0.302819
0.00694544
0.00652848
0.0061989
0.00588374
0.00554965
0.00510838
0.00484286
0.00501419
0.00418816
0.000765316
0.00108118
0.00511527
0.0348221
0.0885218
0.177684
0.311364
0.486694
0.708348
1
1
1
0.430351
0.471818
0.63432
0.738817
1
0.817254
0.472338
0.134333
0.656588
1
1
1
1
0.924944
0.743212
0.611038
0.512422
0.43498
0.380347
0.333424
0.0058271
0.00554634
0.00532836
0.00513295
0.00492582
0.00469023
0.00434803
0.00415203
0.00430388
0.00387683
0.00120579
0.000455399
0.00569412
0.0178038
0.0565682
0.122012
0.223512
0.365837
0.548476
0.793059
1
0.910768
0.481882
0.633398
1
1
0.763971
0.504517
0.476169
1
1
1
1
1
0.835148
0.695602
0.589408
0.50685
0.439708
0.391898
0.351289
0.00489411
0.00470221
0.00455257
0.00442677
0.00430243
0.00416063
0.0039843
0.00373003
0.00354305
0.00367254
0.00349028
0.00186166
0.000405241
0.00146015
0.00568214
0.0327924
0.0811407
0.159652
0.27337
0.41795
0.593884
0.786943
0.753159
0.784762
1
1
0.918345
0.690892
0.692313
1
1
1
1
0.890369
0.74264
0.636842
0.551637
0.483572
0.426102
0.384632
0.350806
0.00411627
0.00398487
0.00387607
0.00379063
0.0037152
0.00362883
0.00352585
0.00339626
0.00320682
0.00303722
0.00310289
0.00314468
0.00218396
1.48571e-05
0.0003194
0.000858637
0.016112
0.0496867
0.109204
0.19635
0.308889
0.449292
0.622319
0.784674
1
1
1
0.834709
0.756474
0.868716
1
1
0.881225
0.736738
0.640104
0.565832
0.503707
0.448572
0.399138
0.362022
0.332182
0.00346727
0.00337584
0.00329358
0.00323298
0.00318472
0.00313438
0.00307312
0.00299829
0.00290598
0.00276671
0.00261996
0.00262043
0.00273598
0.00235029
0.000432069
0.000218825
0.00102214
0.000472256
0.0258932
0.0686721
0.132571
0.216276
0.326444
0.491249
0.755415
1
1
0.811022
0.662676
0.511886
0.557083
0.701938
0.678927
0.612961
0.551533
0.498491
0.451101
0.40802
0.366805
0.330713
0.300603
0.00292374
0.00285996
0.00279528
0.00274999
0.00271865
0.00268842
0.00265387
0.00261039
0.0025556
0.00248868
0.00238954
0.00226768
0.00222932
0.00231285
0.00228793
0.000987834
0.000317719
2.6776e-05
0.00350652
0.00990998
0.0376754
0.0807367
0.136459
0.215552
0.350277
0.539926
0.660918
0.62772
0.519435
0.338735
0.302877
0.526651
0.588864
0.566094
0.518297
0.468991
0.422962
0.380762
0.34076
0.302033
0.265716
0.00246717
0.00242245
0.0023702
0.00233501
0.00231426
0.00229551
0.0022749
0.00225044
0.00221887
0.00217865
0.00212987
0.00206137
0.00196413
0.00189897
0.00195631
0.00206413
0.00151876
0.000463156
5.84014e-05
0.000369327
0.00673126
0.0150819
0.0404023
0.072558
0.12649
0.226741
0.339024
0.400372
0.390392
0.335967
0.352645
0.478675
0.571417
0.591684
0.560651
0.508268
0.452025
0.398151
0.347552
0.298988
0.252916
0.00208269
0.00205133
0.00200844
0.00198058
0.0019663
0.00195466
0.00194186
0.00192764
0.00191066
0.0018862
0.00185528
0.00181813
0.00176953
0.00169582
0.00161865
0.00162869
0.00171476
0.00166097
0.000560391
0.000217396
7.64595e-06
0.000968642
0.000124046
0.0110533
0.0226852
0.0601505
0.133325
0.212115
0.269378
0.307153
0.356107
0.440843
0.541445
0.616853
0.638439
0.608881
0.55022
0.481904
0.414126
0.351208
0.293599
0.00176121
0.00173933
0.00170387
0.00168155
0.00167136
0.00166383
0.00165546
0.00164641
0.00163568
0.00162207
0.00160277
0.00157695
0.00154586
0.00150725
0.00145145
0.00137276
0.00133163
0.00136041
0.00142401
0.00105998
8.80179e-05
7.32192e-05
5.00682e-06
0.000609541
0.00238769
0.0116353
0.0190281
0.068937
0.135129
0.204754
0.277475
0.360491
0.459613
0.570883
0.673272
0.730186
0.719388
0.655567
0.570308
0.486062
0.408474
0.00150303
0.00148807
0.00145876
0.00144112
0.00143397
0.00142909
0.00142372
0.00141786
0.00141076
0.00140235
0.00138962
0.00137172
0.00134729
0.00131734
0.00128127
0.00123288
0.00116206
0.0010792
0.0010465
0.00108513
0.00105489
0.000524322
0.000196005
5.59662e-05
0
0
0.00176424
0.0145819
0.02832
0.0783758
0.146657
0.227181
0.319984
0.428953
0.559351
0.708024
0.848678
0.920944
0.884814
0.779551
0.658104
0.00130051
0.0012906
0.00126647
0.0012527
0.00124797
0.00124502
0.00124182
0.00123825
0.00123375
0.00122775
0.00121988
0.00120791
0.00119048
0.0011666
0.00113621
0.00109973
0.00105311
0.000988822
0.000890545
0.000775858
0.000712664
0.000721998
0.000632164
0.000430609
0.000198528
5.04033e-05
0
0
0.00353732
0.0164119
0.0328071
0.0871515
0.158879
0.246264
0.350393
0.476789
0.636258
0.842399
1
1
1
0.00113912
0.00113287
0.00111302
0.00110245
0.0010996
0.00109819
0.00109663
0.00109492
0.00109247
0.00108824
0.00108364
0.00107615
0.00106472
0.00104823
0.0010257
0.000996315
0.00096034
0.00091663
0.000859423
0.000776523
0.000635117
0.000366773
0.00039238
0.000463175
0.000301638
0.000387824
0.000185196
3.0985e-05
0
0
0.00419584
0.0172268
0.0358684
0.0857909
0.152471
0.234246
0.331563
0.449591
0.600616
0.80818
1
0.00100734
0.00100376
0.000987367
0.000979566
0.000978203
0.000978214
0.000978063
0.000978035
0.000977366
0.000975099
0.000972562
0.000968926
0.000962654
0.000952635
0.00093828
0.000918688
0.000893357
0.000861819
0.000825424
0.000781555
0.000730827
0.000681804
0.000647427
0.000655726
0.000704465
0.000686965
0.00061426
0.000289884
0.000140618
1.32785e-05
0
0
0.00528975
0.00245271
0.0281893
0.0645977
0.112784
0.171284
0.239493
0.318394
0.412852
0.000897414
0.000895932
0.00088268
0.000877044
0.000877072
0.000878238
0.000879506
0.000880896
0.000882007
0.000881702
0.00088073
0.000880244
0.000878296
0.00087388
0.000866696
0.00085609
0.000841859
0.000823305
0.000801524
0.000775841
0.000752891
0.000744151
0.000754793
0.000779953
0.000819254
0.00086883
0.000901221
0.000896991
0.000677822
0.000140924
9.43078e-05
1.78321e-06
0
0.000162962
0.00531581
0.011137
0.013771
0.0327351
0.0582792
0.0901474
0.126911
0.000804437
0.000804364
0.000793865
0.000790102
0.000791418
0.000793689
0.000796327
0.000799095
0.000801915
0.000803751
0.000804633
0.000806475
0.000808101
0.000808428
0.000807117
0.00080378
0.000798375
0.000790748
0.000781624
0.000769944
0.000761394
0.000763598
0.000777339
0.000806118
0.000845288
0.000890065
0.000949882
0.00100294
0.00100876
0.000984023
0.000659784
1.98489e-05
6.7372e-05
1.61419e-05
0
0
0.00296262
0.00701069
0.011259
0.0112017
0.0209382
0.000724394
0.0007257
0.000717553
0.000715418
0.000717708
0.000721029
0.000724747
0.000728811
0.000732984
0.000736649
0.000739273
0.000743162
0.000747786
0.000751924
0.000755059
0.000757186
0.000758153
0.000758155
0.000757681
0.000755769
0.000757201
0.000766277
0.000780771
0.000804117
0.000834733
0.000871808
0.00091517
0.00096396
0.00102759
0.00107614
0.00104921
0.000994941
0.00073137
0.000187119
0.000106377
4.27743e-05
0
0
0
0.00209752
0.00519528
0.000654958
0.000657187
0.000651026
0.000650322
0.000653438
0.000657616
0.00066226
0.000667394
0.00067268
0.000677841
0.00068196
0.000687144
0.000693901
0.000700655
0.000706996
0.000712989
0.000718407
0.000723359
0.000728278
0.000732103
0.00073912
0.000751967
0.000767818
0.000788357
0.000813079
0.000841417
0.000872601
0.000907415
0.000948379
0.000995579
0.00104717
0.00108716
0.00107423
0.000993001
0.000873659
0.000546324
0.000173707
5.32765e-05
4.40507e-05
1.97612e-05
0
0.000593876
0.000596985
0.000592575
0.000592983
0.0005968
0.000601713
0.000607169
0.000613202
0.000619478
0.000625894
0.000631534
0.000637617
0.00064562
0.000654079
0.000662653
0.00067115
0.000679526
0.00068755
0.000695797
0.000702885
0.000712797
0.000726935
0.000742978
0.000761866
0.000783254
0.000806213
0.000830646
0.000856203
0.000882761
0.000912027
0.000945883
0.00098264
0.00102384
0.00105397
0.00106435
0.00103044
0.000946841
0.000808275
0.000646897
0.000284086
0.000109355
0.000539987
0.000543508
0.000540651
0.000542036
0.000546456
0.000551903
0.000558055
0.00056475
0.000571851
0.000579099
0.000586031
0.00059297
0.000601727
0.000611305
0.00062131
0.000631368
0.000641536
0.000651374
0.000661529
0.000670571
0.000681905
0.000696256
0.000711645
0.00072892
0.000747775
0.000767368
0.000787559
0.000808058
0.000828648
0.000849155
0.000869866
0.000891256
0.000915286
0.000941883
0.00096907
0.000997629
0.0010173
0.00101768
0.00100583
0.000945494
0.000897278
0.000491831
0.000495862
0.000494249
0.000496375
0.000501283
0.000507181
0.000513826
0.000521023
0.000528671
0.00053652
0.000544295
0.000551926
0.000561092
0.000571384
0.000582117
0.000593004
0.000604056
0.00061492
0.000625997
0.000636094
0.000647925
0.000661995
0.000676339
0.000691956
0.000708513
0.000725463
0.000742565
0.000759735
0.000776707
0.000793278
0.000809296
0.000824806
0.000839785
0.000854751
0.000870254
0.000887229
0.000905642
0.000922771
0.000943982
0.000945548
0.000977984
0.0004487
0.000452886
0.000452373
0.000455224
0.000460456
0.000466734
0.000473719
0.000481326
0.000489349
0.000497668
0.000506014
0.00051419
0.000523504
0.000534151
0.000545058
0.00055632
0.000567701
0.00057904
0.000590392
0.000600978
0.00061274
0.000626163
0.00063937
0.000653509
0.000668103
0.000682883
0.000697513
0.000712069
0.000726297
0.000740222
0.000753585
0.000766426
0.000778427
0.000789661
0.000800299
0.00081047
0.000820645
0.000829319
0.000843188
0.000839554
0.000869985
0.00040969
0.000414141
0.000414442
0.000417842
0.000423366
0.000429934
0.000437135
0.00044503
0.000453285
0.000461918
0.000470647
0.000479209
0.000488459
0.000499132
0.000510041
0.00052138
0.000532799
0.000544207
0.000555561
0.000566195
0.000577677
0.000590323
0.000602496
0.000615236
0.000628203
0.000641153
0.000653797
0.000666204
0.000678236
0.0006899
0.000701033
0.000711678
0.000721655
0.000730969
0.000739739
0.000747877
0.000755644
0.00076129
0.000771373
0.000763457
0.000788037
0.000374419
0.000378815
0.000379956
0.000383812
0.000389521
0.000396271
0.000403628
0.000411638
0.00042003
0.000428773
0.000437709
0.000446504
0.000455682
0.000466054
0.000476799
0.000487888
0.000499116
0.000510282
0.000521429
0.000531821
0.0005429
0.000554645
0.000565834
0.000577263
0.000588821
0.000600198
0.000611248
0.00062189
0.000632156
0.000641984
0.000651352
0.000660221
0.000668552
0.000676288
0.000683589
0.000690301
0.0006968
0.000701252
0.00070998
0.000700862
0.000723527
0.000342277
0.00034673
0.000348463
0.000352614
0.000358546
0.000365349
0.000372818
0.000380809
0.000389276
0.000397995
0.000406989
0.000415845
0.000424981
0.0004349
0.000445354
0.000455977
0.000466829
0.000477532
0.000488275
0.000498185
0.000508666
0.000519458
0.00052968
0.00053993
0.000550272
0.000560262
0.000569894
0.00057908
0.000587939
0.000596327
0.000604283
0.000611713
0.000618652
0.000625035
0.000631064
0.000636548
0.00064192
0.000645402
0.000653168
0.000643439
0.000665159
0.00031295
0.000317276
0.000319604
0.000324002
0.000330045
0.00033688
0.000344386
0.000352308
0.00036075
0.000369368
0.000378289
0.000387099
0.000396083
0.000405597
0.000415668
0.000425778
0.000436095
0.000446255
0.000456403
0.000465796
0.000475623
0.000485549
0.000494841
0.000504056
0.000513243
0.000522093
0.000530561
0.000538596
0.000546253
0.000553449
0.000560191
0.000566466
0.000572297
0.000577662
0.000582706
0.000587285
0.00059182
0.000594618
0.000601624
0.000591555
0.000612833
0.000286039
0.000290347
0.000293039
0.000297672
0.000303759
0.000310619
0.000318048
0.000325915
0.000334186
0.000342696
0.000351392
0.000360112
0.000368825
0.00037795
0.00038751
0.000397102
0.000406799
0.000416423
0.000425976
0.000434896
0.000444002
0.000453145
0.000461591
0.000469931
0.000478127
0.000486007
0.000493424
0.000500427
0.000507023
0.000513237
0.000519004
0.00052438
0.000529338
0.000533917
0.000538197
0.000542099
0.000545975
0.000548231
0.000554574
0.00054441
0.000565584
0.000261311
0.000265484
0.000268577
0.000273374
0.000279441
0.000286306
0.000293623
0.000301382
0.000309437
0.000317768
0.000326191
0.00033473
0.000343096
0.00035178
0.000360828
0.000369865
0.000378927
0.000387966
0.000396846
0.000405155
0.000413586
0.000422005
0.000429701
0.000437238
0.000444549
0.000451546
0.000458133
0.000464358
0.000470158
0.000475577
0.000480582
0.000485245
0.000489533
0.000493494
0.000497206
0.000500599
0.000504015
0.000505934
0.000511842
0.000501754
0.000523213
0.000238482
0.000242582
0.000245954
0.000250854
0.000256936
0.000263718
0.00027096
0.000278514
0.000286376
0.000294437
0.000302608
0.00031085
0.00031895
0.000327183
0.000335687
0.000344131
0.000352581
0.000360961
0.000369228
0.000376983
0.000384795
0.000392478
0.000399474
0.000406234
0.000412803
0.000419068
0.000424919
0.000430366
0.000435428
0.000440141
0.000444509
0.000448578
0.000452344
0.00045583
0.000459123
0.00046215
0.00046524
0.000466938
0.00047252
0.000462696
0.000484563
0.000217367
0.000221349
0.000224996
0.000230008
0.000236024
0.000242765
0.000249834
0.000257245
0.000264823
0.00027265
0.000280493
0.000288449
0.000296205
0.000304032
0.000311976
0.000319905
0.00032774
0.000335537
0.000343205
0.000350415
0.000357624
0.000364686
0.000371104
0.000377273
0.000383196
0.000388816
0.000394056
0.000398949
0.000403499
0.000407755
0.000411721
0.000415436
0.000418883
0.000422097
0.000425162
0.000428005
0.000430932
0.000432575
0.000437919
0.000428571
0.000450896
0.000197783
0.000201699
0.000205591
0.00021065
0.000216638
0.000223272
0.000230222
0.000237393
0.000244746
0.000252258
0.000259818
0.000267395
0.000274855
0.000282271
0.000289744
0.000297132
0.000304426
0.000311628
0.000318741
0.00032542
0.000332101
0.000338545
0.000344394
0.000349956
0.000355305
0.00036035
0.00036507
0.00036946
0.000373563
0.000377387
0.000380969
0.000384323
0.000387467
0.000390413
0.000393259
0.000395915
0.000398697
0.000400305
0.000405443
0.000396511
0.000419426
0.000179576
0.000183463
0.000187597
0.00019274
0.00019871
0.000205201
0.000212002
0.000218938
0.000226048
0.000233226
0.000240472
0.000247667
0.000254786
0.000261746
0.000268725
0.000275606
0.000282366
0.000288996
0.000295565
0.000301708
0.000307825
0.00031373
0.000319139
0.000324242
0.000329126
0.000333731
0.000338062
0.000342104
0.000345909
0.000349485
0.000352873
0.000356081
0.000359127
0.000362022
0.000364856
0.000367541
0.000370372
0.000372139
0.000377241
0.00036908
0.000392534
0.000162526
0.000166441
0.000170835
0.000176099
0.000182042
0.000188484
0.00019513
0.000201867
0.000208671
0.000215546
0.000222429
0.000229273
0.000236033
0.00024266
0.000249231
0.000255702
0.000261991
0.000268145
0.000274193
0.000279909
0.000285598
0.000291071
0.000296063
0.000300768
0.000305259
0.00030951
0.000313505
0.000317252
0.000320782
0.000324118
0.000327287
0.000330319
0.000333223
0.00033601
0.000338754
0.000341394
0.000344174
0.000346015
0.000350949
0.000343595
0.000367411
0.00014645
0.000150427
0.000155059
0.000160463
0.000166478
0.000172841
0.000179399
0.000185956
0.000192551
0.00019911
0.000205666
0.000212114
0.000218473
0.000224601
0.000230657
0.000236655
0.000242485
0.000248164
0.000253741
0.000258983
0.000264156
0.000269145
0.000273748
0.000278099
0.000282267
0.000286247
0.000290029
0.000293616
0.000297041
0.000300327
0.000303499
0.00030658
0.000309579
0.000312504
0.000315415
0.000318248
0.000321238
0.00032338
0.000328407
0.000321912
0.000346068
0.000131506
0.000135659
0.000140577
0.0001461
0.000152048
0.000158332
0.000164738
0.000171115
0.000177463
0.00018378
0.000190065
0.000196283
0.000202431
0.000208438
0.000214336
0.000220104
0.000225599
0.000230935
0.000236167
0.000241162
0.00024611
0.000250887
0.000255287
0.000259429
0.000263395
0.000267199
0.000270815
0.000274252
0.000277532
0.000280691
0.000283751
0.000286749
0.000289683
0.000292582
0.000295497
0.000298397
0.000301437
0.000303782
0.000308701
0.000303477
0.0003278
0.000118039
0.000122707
0.000128071
0.000133798
0.000139725
0.000145785
0.00015182
0.000157832
0.000163776
0.000169706
0.000175543
0.000181258
0.000186779
0.000192058
0.000197222
0.00020242
0.000207462
0.000212339
0.000217049
0.000221497
0.000225849
0.000230085
0.000234083
0.000237917
0.000241619
0.000245221
0.000248722
0.000252137
0.00025547
0.000258746
0.000261978
0.000265186
0.000268365
0.000271524
0.000274708
0.000277869
0.00028118
0.000283805
0.000288875
0.000284135
0.000308706
0.000105012
0.000110391
0.000116488
0.000122766
0.000129008
0.000135131
0.000141042
0.00014673
0.000152257
0.000157744
0.000163256
0.000168834
0.000174465
0.000180091
0.000185591
0.00019083
0.000195806
0.000200663
0.000205472
0.000210134
0.000214735
0.000219156
0.0002233
0.000227219
0.000230976
0.000234605
0.000238111
0.000241515
0.000244851
0.000248149
0.000251427
0.000254714
0.000258022
0.000261373
0.000264805
0.000268306
0.000271976
0.000275218
0.000280511
0.000277884
0.000302379
8.97013e-05
9.52078e-05
0.000101818
0.000108715
0.000115612
0.000122362
0.000128869
0.000135031
0.000140858
0.000146336
0.000151473
0.000156234
0.00016065
0.000164703
0.000168602
0.000172578
0.000176515
0.000180283
0.000183959
0.000187534
0.000191156
0.000194814
0.000198409
0.000201942
0.000205437
0.000208922
0.000212402
0.000215881
0.000219358
0.000222847
0.000226357
0.000229891
0.000233443
0.000237012
0.000240622
0.000244223
0.000247966
0.000251156
0.000256402
0.000253262
0.000277889
7.42399e-05
8.06901e-05
8.83914e-05
9.58789e-05
0.000102858
0.000109382
0.000115536
0.000121404
0.000127129
0.000132844
0.000138646
0.000144599
0.000150723
0.000156996
0.000163352
0.000169501
0.000175312
0.000180862
0.000186156
0.00019115
0.000195903
0.000200405
0.000204635
0.000208626
0.000212449
0.000216153
0.000219771
0.000223346
0.000226926
0.000230551
0.000234259
0.000238087
0.000242056
0.000246186
0.000250512
0.000255043
0.000259816
0.000264456
0.000270717
0.000271113
0.000295791
7.28189e-05
8.18115e-05
8.95743e-05
9.62404e-05
0.00010232
0.000108317
0.000114286
0.000120113
0.000125531
0.000130319
0.00013428
0.000137277
0.000139313
0.000140468
0.000140851
0.000140914
0.000141294
0.000142304
0.000144064
0.000146418
0.000149243
0.000152353
0.000155666
0.000159087
0.000162575
0.00016611
0.000169686
0.000173287
0.000176917
0.000180576
0.000184271
0.000188
0.000191778
0.000195602
0.000199482
0.000203373
0.000207438
0.000211107
0.000216538
0.000214806
0.000239112
0.000102869
0.000124339
0.00014118
0.000153756
0.000162692
0.000168535
0.000171885
0.000173331
0.000173514
0.00017307
0.000172594
0.000172576
0.000173318
0.000174887
0.000177261
0.000180494
0.000184256
0.000188035
0.000191657
0.000195069
0.000198217
0.000201223
0.000203965
0.000206518
0.000208952
0.000211313
0.00021365
0.000216022
0.000218492
0.000221119
0.000223956
0.000227051
0.000230446
0.000234178
0.000238294
0.000242813
0.000247795
0.000252904
0.000259823
0.000261047
0.000288652
0.147648
0.125619
0.120483
0.118382
0.0872477
0.0390463
0.0206623
0.00852349
0.00381673
0.00332142
0.00332379
0.00343172
0.00349828
0.00352491
0.00354316
0.00350811
0.00346491
0.00339265
0.00331505
0.00321864
0.00312383
0.00303306
0.00294457
0.00285922
0.00277653
0.00269471
0.00261487
0.00253274
0.00243186
0.0022979
0.00214632
0.00199547
0.00185177
0.00171484
0.00158005
0.00144814
0.00132129
0.00120105
0.00108604
0.000978038
0.000879221
0.000789055
0.000712474
0.000652821
0.000621995
0.000600906
0.000599795
0.000604347
0.000608499
0.000607422
0.00060958
0.000601265
0.000593761
0.000581377
0.000564219
0.000552996
0.000531513
0.000515551
0.000493565
0.000476675
0.000454759
0.000439235
0.000420279
0.000403039
0.000388229
0.000372113
0.000359941
0.000346648
0.000335693
0.000324407
0.000316766
0.000305771
0.000300499
0.000290339
0.150224
0.139854
0.131799
0.129898
0.115408
0.0616301
0.0297604
0.0144038
0.00518978
0.0034313
0.00334999
0.00338289
0.0034148
0.00341591
0.00342554
0.00338848
0.00334811
0.00328177
0.00320725
0.00311963
0.00303741
0.00294631
0.00284343
0.00275197
0.00265111
0.00257159
0.00247641
0.00239741
0.00231661
0.00221844
0.00209464
0.00194959
0.00180076
0.00166285
0.00153415
0.00140985
0.00128934
0.00117431
0.00106433
0.000962292
0.000868513
0.000783656
0.000712351
0.000653849
0.000622445
0.00059701
0.000589921
0.000589973
0.000590629
0.000585604
0.000586505
0.000577148
0.00056954
0.000557432
0.000540467
0.000530405
0.000510009
0.000495519
0.00047447
0.00045932
0.000438649
0.000424411
0.000407227
0.000390836
0.000377504
0.00036241
0.000351162
0.000338918
0.000328755
0.000318011
0.000311337
0.000300312
0.000296268
0.000285238
0.174529
0.158861
0.143205
0.137016
0.134463
0.0929836
0.037955
0.0244922
0.00943814
0.00380535
0.00345231
0.00340065
0.00337449
0.00334276
0.00332162
0.00327631
0.00322886
0.0031643
0.00309064
0.00301389
0.00293574
0.00283151
0.00272117
0.00263493
0.00255755
0.00247936
0.00239979
0.00227865
0.00216292
0.0020761
0.00199272
0.00188952
0.00176126
0.00162577
0.00149695
0.0013773
0.00126569
0.00115949
0.00105819
0.000963082
0.000877497
0.000801673
0.000734279
0.000682434
0.000643209
0.000615118
0.000601585
0.000587753
0.000581481
0.000573077
0.000567589
0.000556522
0.000547022
0.000534783
0.000519241
0.000505874
0.000488552
0.000473972
0.000455114
0.000440326
0.000422169
0.000407569
0.000392789
0.000377669
0.000365206
0.000351741
0.000340855
0.000329963
0.000320674
0.000310556
0.000304731
0.000293775
0.000291
0.000279192
0.187312
0.176098
0.158504
0.145536
0.14412
0.120625
0.0564078
0.0362756
0.017712
0.00563451
0.00350115
0.0034634
0.00337881
0.00330732
0.00325067
0.0031916
0.00313219
0.00306522
0.0029942
0.00292348
0.00283227
0.00271813
0.00264206
0.0025652
0.00257177
0.00254627
0.00243814
0.00230573
0.00214323
0.00197721
0.00186447
0.00178617
0.00170205
0.00159732
0.00147799
0.00135867
0.00124971
0.00115004
0.001057
0.000969645
0.000891027
0.000821105
0.000757333
0.000708375
0.000664837
0.000633298
0.000613113
0.000589911
0.000576408
0.000563865
0.000552145
0.000538537
0.0005267
0.000513701
0.000498982
0.000483106
0.000467971
0.000453319
0.000436435
0.000421937
0.000405933
0.000391421
0.000378537
0.00036476
0.000353123
0.000341125
0.000330789
0.000321004
0.000312584
0.00030306
0.000298067
0.000287108
0.000285554
0.00027303
0.208549
0.199259
0.178934
0.157459
0.151129
0.140318
0.0878589
0.0445544
0.0304482
0.011312
0.00374629
0.00348081
0.00341317
0.0033002
0.00320909
0.00313344
0.0030594
0.00298862
0.00292043
0.00284521
0.00273354
0.00263425
0.00259888
0.00259698
0.0026391
0.0026012
0.00256015
0.00247996
0.0022946
0.00208349
0.00186976
0.00170797
0.00160954
0.00153546
0.00145182
0.00135242
0.0012478
0.00114797
0.00105743
0.00097682
0.000903813
0.000837779
0.0007779
0.000728125
0.000683986
0.000648163
0.000621346
0.00059389
0.000574158
0.000556284
0.000539763
0.000523012
0.000508692
0.000494352
0.000479231
0.000462591
0.000448453
0.000433977
0.000418537
0.000404548
0.000390088
0.00037628
0.000364841
0.000352311
0.000341575
0.000330811
0.00032121
0.000312337
0.000304739
0.000295766
0.000291596
0.000280576
0.000280167
0.000266965
0.233691
0.224193
0.202084
0.174631
0.159189
0.153151
0.11869
0.0539928
0.0448393
0.0217676
0.0066011
0.00338147
0.0034555
0.00332288
0.00319365
0.00309887
0.00300967
0.00293431
0.00286411
0.00277415
0.00265488
0.00259584
0.0025976
0.00265191
0.00258642
0.00241026
0.00234001
0.00226995
0.00229824
0.00222799
0.0020476
0.00181577
0.00161178
0.00147631
0.00139524
0.00132696
0.00124834
0.00115927
0.0010701
0.000989811
0.000918513
0.000855615
0.000799408
0.000749683
0.000705021
0.000665499
0.000633465
0.000602117
0.000577087
0.00055356
0.000532679
0.000512198
0.000494915
0.000478515
0.000462138
0.000444855
0.000430865
0.000416424
0.000401935
0.000388434
0.000375104
0.000362195
0.000351927
0.000340466
0.000330626
0.000320933
0.00031214
0.000304079
0.00029725
0.000288776
0.000285421
0.00027432
0.000274979
0.000261169
0.260695
0.249684
0.226058
0.19643
0.171354
0.163264
0.14375
0.0822623
0.0551656
0.0369646
0.0141915
0.00391372
0.00340564
0.00339265
0.00321466
0.00308902
0.00298465
0.00290214
0.00282041
0.00271275
0.00261565
0.00261149
0.0026278
0.00260846
0.00219693
0.00197379
0.00169619
0.0016824
0.00176078
0.00195763
0.00206787
0.00198093
0.00178682
0.00156032
0.00138891
0.00128438
0.00121937
0.00115883
0.00108998
0.00101579
0.00094309
0.00087864
0.000822807
0.00077417
0.000729241
0.000687725
0.000652149
0.000616495
0.000586516
0.000558007
0.000532577
0.000508096
0.000487176
0.000467997
0.000449701
0.000430857
0.000416228
0.000401339
0.000387272
0.000373961
0.000361437
0.000349245
0.000339915
0.000329351
0.000320292
0.000311541
0.000303533
0.000296216
0.000290107
0.000282077
0.000279511
0.00026834
0.000269987
0.000255684
0.287867
0.274347
0.249701
0.220113
0.189488
0.174086
0.16326
0.117161
0.0593215
0.0532709
0.0271124
0.00864394
0.00311898
0.00340989
0.00328968
0.00311271
0.00298678
0.00289172
0.00278864
0.00267403
0.00262677
0.00266557
0.0026024
0.00229334
0.00148904
0.00091741
0.000924486
0.00103258
0.000566368
0.00115498
0.00147154
0.0017595
0.00186729
0.00176972
0.00156599
0.00135885
0.00121763
0.00113486
0.00108146
0.00103176
0.000973851
0.000912361
0.00085352
0.000801955
0.000754857
0.000712323
0.000674917
0.000636482
0.000602129
0.000569547
0.000539463
0.000511138
0.000486108
0.00046371
0.000442778
0.000421558
0.000405429
0.00038935
0.000375137
0.000361481
0.000349397
0.00033757
0.000328888
0.000319068
0.000310608
0.000302673
0.000295364
0.000288706
0.000283267
0.00027563
0.000273807
0.000262576
0.000265133
0.000250452
0.313021
0.296924
0.272501
0.244055
0.212436
0.188375
0.1793
0.149133
0.0789088
0.0640908
0.044381
0.018625
0.00509617
0.0031796
0.00334973
0.0031826
0.0030215
0.00290267
0.00277489
0.00267225
0.00267625
0.0026894
0.00241427
0.00165676
0.000710086
0.000386431
0.000633503
0.000509085
0.00014179
0.000332617
0.000390724
0.000852823
0.00130756
0.00159183
0.00166743
0.00155891
0.00137182
0.00119702
0.0010829
0.00101787
0.000974993
0.000935306
0.000888713
0.0008384
0.000787119
0.000740204
0.000699298
0.000658998
0.000621954
0.00058675
0.000552755
0.000520791
0.000491596
0.000465658
0.000441623
0.000417528
0.000399147
0.000381131
0.000366085
0.000351489
0.00033934
0.000327444
0.000319042
0.000309768
0.000301692
0.000294418
0.000287681
0.000281582
0.000276743
0.000269456
0.000268301
0.000257028
0.000260403
0.000245422
0.330893
0.313243
0.291989
0.267145
0.238048
0.208819
0.194576
0.176116
0.115894
0.0631541
0.0614193
0.0341605
0.0126745
0.00363268
0.00322512
0.00327463
0.00309993
0.00293969
0.00279023
0.00270889
0.0027392
0.00264226
0.00206529
0.00105618
0.00045708
0.000827684
0.00223339
0.00148289
0.00377525
0.00217718
0.000145963
0.00019433
0.000341483
0.000805787
0.00123311
0.00147396
0.00150887
0.00139512
0.00123097
0.00108333
0.000984876
0.000929356
0.00089452
0.000862674
0.000822516
0.000776749
0.000731174
0.000685918
0.000644513
0.000606778
0.000570045
0.000535588
0.000502789
0.000473481
0.000445847
0.000418913
0.000397449
0.000377252
0.000360388
0.000344527
0.000331573
0.000319179
0.000310583
0.000301573
0.000293671
0.000286856
0.00028056
0.000274902
0.000270585
0.000263605
0.000263035
0.000251739
0.000255849
0.000240605
0.330891
0.315151
0.301848
0.286348
0.26509
0.237525