/*--------------------------------*- C++ -*----------------------------------*\
| =========                 |                                                 |
| \\      /  F ield         | OpenFOAM: The Open Source CFD Toolbox           |
|  \\    /   O peration     | Version:  2312                                  |
|   \\  /    A nd           | Website:  www.openfoam.com                      |
|    \\/     M anipulation  |                                                 |
\*---------------------------------------------------------------------------*/
FoamFile
{
    version     2.0;
    format      ascii;
    arch        "LSB;label=32;scalar=64";
    class       volScalarField;
    location    "200";
    object      turbulenceProperties:L;
}
// * * * * * * * * * * * * * * * * * * * * * * * * * * * * * * * * * * * * * //

dimensions      [0 1 0 0 0 0 0];

internalField   nonuniform List<scalar> 
11040
(
0.000494313
0.00045189
0.000543861
0.000846745
0.00225141
0.00147965
0.00143403
0.00142791
0.00140961
0.00139052
0.00138792
0.00137945
0.0013767
0.00146634
0.00149719
0.0014009
0.00134691
0.00134186
0.00141564
0.00150125
0.00250832
0.00193737
0.00142526
0.00135757
0.00132191
0.00132515
0.00141146
0.00154098
0.00194513
0.00153202
0.00159568
0.00167504
0.0018563
0.00245564
0.00403575
0.00251275
0.00180338
0.00157863
0.00155142
0.00152047
0.00143788
0.00117137
0.0010381
0.000931059
0.000719422
0.000785974
0.00179243
0.00299296
0.00443001
0.00519924
0.00591714
0.00670976
0.00723119
0.00798876
0.00953595
0.0093725
0.00855335
0.00899628
0.00959054
0.00931166
0.00879657
0.00833841
0.00845606
0.00907707
0.0106446
0.011765
0.00770324
0.00638016
0.00586954
0.00466729
0.00951919
0.0120371
0.0104947
0.00985901
0.00933057
0.00889047
0.00857599
0.00846108
0.0083259
0.0081624
0.00825669
0.00651403
0.00152285
0.00176369
0.00225743
0.0012698
0.000896646
0.00125884
0.00227854
0.00363087
0.00527766
0.00703358
0.0084956
0.00978343
0.0109884
0.0116842
0.0114846
0.0109249
0.0109741
0.0123072
0.0145162
0.0146143
0.0133285
0.0133717
0.0149949
0.0186521
0.0208732
0.0148588
0.0108191
0.00785576
0.00824424
0.0178143
0.0208839
0.0185843
0.0170835
0.0161283
0.0154876
0.0150584
0.0147697
0.0146614
0.014624
0.015371
0.0131106
0.00181922
0.00206042
0.00224654
0.00260946
0.00188442
0.00116115
0.00162261
0.00263261
0.00409304
0.00583609
0.0079989
0.0101885
0.0124304
0.0141607
0.0145592
0.0142255
0.0146055
0.0167177
0.0213794
0.0216293
0.0177045
0.017044
0.0190108
0.0225313
0.023307
0.0177234
0.0135474
0.0108764
0.013316
0.0303027
0.0355836
0.0283306
0.0250547
0.0231639
0.0219775
0.0211609
0.0206369
0.0204025
0.0204487
0.0214089
0.0203262
0.00215249
0.00228796
0.002476
0.00255389
0.00303134
0.00341717
0.00142298
0.00191976
0.00296611
0.00444411
0.00630514
0.00859026
0.0113665
0.014299
0.0165917
0.0173853
0.0180941
0.0204195
0.0270617
0.0321542
0.023286
0.0211222
0.0232728
0.0276438
0.029312
0.0226018
0.0170399
0.0147668
0.0210362
0.050743
0.0538647
0.0390524
0.0335995
0.0305535
0.0286688
0.027333
0.0264699
0.0259771
0.0259688
0.0267822
0.0267725
0.00258656
0.00270919
0.00285171
0.00301231
0.00294764
0.00366184
0.0109352
0.00190088
0.00213782
0.00325919
0.00475716
0.0066995
0.00912941
0.0122437
0.0157463
0.0184664
0.0202883
0.0231114
0.0298145
0.0466085
0.0320854
0.0265271
0.0282731
0.0345114
0.038915
0.0281935
0.0210266
0.0203599
0.0335463
0.0881877
0.073147
0.0507155
0.04294
0.0385938
0.03585
0.0338792
0.032551
0.0316942
0.0314917
0.031958
0.0323955
0.00308926
0.00317096
0.00325895
0.00341475
0.0035304
0.0034099
0.00433367
0.0300901
0.00639956
0.00221281
0.00347023
0.00504567
0.00706601
0.00965512
0.0130174
0.0170039
0.0205215
0.0240016
0.0301428
0.0472054
0.0510581
0.0352283
0.0347356
0.0437072
0.0544247
0.0347279
0.0264334
0.029273
0.0559411
0.184429
0.0908532
0.063832
0.0535765
0.0477086
0.0438786
0.0410949
0.0391192
0.0377448
0.0371738
0.0371736
0.037629
0.0036596
0.00372849
0.00377807
0.0038543
0.00402335
0.00414968
0.00391678
0.00498008
0.452241
0.0222866
0.00228292
0.00356129
0.00528471
0.00741207
0.0101665
0.0138255
0.0183511
0.0231078
0.0290543
0.0403376
0.0796614
0.0549784
0.0452487
0.0558499
0.0980281
0.0431691
0.0348186
0.0458262
0.106533
0.197404
0.107417
0.0791743
0.0662225
0.0584488
0.0532201
0.0493348
0.0464491
0.0443036
0.0431094
0.0424727
0.0426888
0.00431314
0.004374
0.00440558
0.0044463
0.00452474
0.00473378
0.00484812
0.00458393
0.00530905
0.0515097
0.0223869
0.00433895
0.00349845
0.00542624
0.00770643
0.0106748
0.0147232
0.0199538
0.0263416
0.0351565
0.0521645
0.106128
0.0731204
0.07225
0.100205
0.0522312
0.0474895
0.0760066
0.43189
0.169826
0.125554
0.0979318
0.0819288
0.0717033
0.0645696
0.0591492
0.0549511
0.0516696
0.0494796
0.0479401
0.0476374
0.00506176
0.00512097
0.00514596
0.00516225
0.00519986
0.00528646
0.0055314
0.00565992
0.00538205
0.00579441
0.0263999
0.0807572
0.00423452
0.00310796
0.00536583
0.00789893
0.011196
0.0157417
0.0217703
0.0296309
0.0403542
0.0559783
0.0793158
0.0709024
0.0627322
0.0546527
0.0587068
0.0974156
0.173073
0.170402
0.146497
0.121177
0.102195
0.0888332
0.079086
0.071518
0.0654035
0.0604463
0.056787
0.0539379
0.0527337
0.00592651
0.00598626
0.00601274
0.00601837
0.00602632
0.00606507
0.00617002
0.00643027
0.00664067
0.00635084
0.00651241
0.0138379
0.113549
0.0158949
0.00398814
0.00498111
0.00795
0.0117117
0.0167612
0.0233145
0.0315264
0.0407438
0.0497049
0.0546973
0.051569
0.0517927
0.0614188
0.0953986
0.151529
0.181529
0.170864
0.14753
0.126384
0.110217
0.0978157
0.087523
0.0787643
0.0714944
0.0657143
0.0609293
0.0582548
0.00692751
0.00698593
0.00702375
0.00702946
0.00701932
0.00703074
0.00708033
0.00719654
0.00746959
0.00775997
0.0075464
0.00732976
0.010877
16.4146
0.12287
0.0412365
0.00432817
0.00771701
0.0120711
0.0174127
0.0237589
0.0304159
0.0366044
0.0428529
0.0453384
0.0491358
0.0611213
0.0922524
0.146103
0.204943
0.206204
0.179427
0.154399
0.134546
0.11888
0.106216
0.0953734
0.0854776
0.0768679
0.0694604
0.064611
0.00808728
0.00814651
0.00820162
0.00821377
0.00819675
0.00818493
0.00820166
0.0082599
0.00837732
0.00865454
0.00901384
0.00895549
0.00851982
0.00977029
0.108258
0.26677
0.0233352
0.108591
0.00696121
0.0119606
0.0171791
0.0223382
0.0271649
0.0327489
0.0398235
0.0471087
0.0606664
0.0889372
0.141612
0.246548
0.277793
0.214652
0.181344
0.158242
0.139925
0.124937
0.112295
0.100928
0.0902597
0.0802483
0.0729258
0.00943676
0.00949612
0.00957586
0.00960123
0.00958058
0.00955547
0.00954454
0.00956566
0.00963278
0.00975501
0.010023
0.0104367
0.01055
0.0101357
0.0100629
0.030606
0.161164
5.40728
0.00807972
0.00545763
0.0108045
0.0155025
0.0194397
0.0235817
0.0308327
0.0431408
0.0589655
0.0841477
0.131695
0.257737
0.348737
0.217173
0.18317
0.164309
0.149459
0.136315
0.124472
0.113389
0.102812
0.0927235
0.0840496
0.0110127
0.0110724
0.0111837
0.0112278
0.0112059
0.011174
0.01115
0.0111433
0.0111721
0.0112481
0.0113767
0.0116258
0.0120772
0.0124096
0.0120408
0.0113169
0.0159393
0.0902313
1.87972
0.0756139
0.00866401
0.00763455
0.012232
0.0153288
0.0202624
0.0318328
0.0504378
0.0747994
0.111461
0.172421
0.206194
0.178046
0.158943
0.147649
0.139035
0.131226
0.123667
0.116069
0.108368
0.100779
0.0930441
0.0128594
0.0129192
0.0130685
0.0131346
0.0131148
0.0130778
0.0130476
0.0130256
0.0130204
0.013067
0.0131623
0.0133095
0.0135533
0.0140212
0.0145939
0.0145021
0.0137446
0.0139811
0.063227
0.259649
22.5511
0.023324
0.694508
0.00625435
0.00810057
0.0161217
0.0321805
0.0542455
0.0807173
0.109346
0.130257
0.134906
0.131412
0.126749
0.122353
0.118087
0.113836
0.109429
0.104627
0.099133
0.0923927
0.0150059
0.0150641
0.0152566
0.0153471
0.0153319
0.0152933
0.015262
0.0152362
0.0152241
0.0152381
0.0153067
0.0154417
0.0156374
0.0159229
0.0164193
0.0172545
0.017765
0.0174104
0.0165261
0.0230933
0.92702
1.18187
13.6476
0.0473809
0.00949309
0.00861669
0.0094651
0.0275111
0.0485234
0.0690551
0.0863593
0.0983376
0.104834
0.107308
0.107351
0.106135
0.104243
0.1018
0.0985187
0.0939535
0.0879672
0.0173803
0.0174301
0.0176642
0.0177731
0.0177582
0.0177165
0.0176812
0.0176516
0.0176362
0.0176358
0.01769
0.0178124
0.0180261
0.0183274
0.0187346
0.0193593
0.0204335
0.0219415
0.0227134
0.0218924
0.0222774
0.0560034
0.254735
1.74025
0
0
0.012818
0.0148591
0.0184392
0.0374412
0.0552901
0.0698319
0.08092
0.0887006
0.0935967
0.0961738
0.0969802
0.0965488
0.0949323
0.0918266
0.0872992
0.019891
0.0199231
0.0201905
0.0203089
0.0202863
0.0202366
0.0201918
0.0201529
0.0201285
0.0201274
0.0201567
0.020255
0.0204487
0.0207638
0.021216
0.0218175
0.0226774
0.0240481
0.0266167
0.030608
0.0334983
0.0328081
0.0375403
0.0674659
0.251149
2.1347
0
0
0.0105405
0.0199264
0.0236946
0.043134
0.0583649
0.0702173
0.0791024
0.0853476
0.0892978
0.0914424
0.0921522
0.0916197
0.0897605
0.0225202
0.0225278
0.0228205
0.0229388
0.0229016
0.0228366
0.022776
0.0227192
0.0226773
0.0226715
0.022673
0.0227354
0.022883
0.0231453
0.0235555
0.0241519
0.0249592
0.0260497
0.0276796
0.0305434
0.0373233
0.0649388
0.0608168
0.0512063
0.0786501
0.0796686
0.286544
4.47399
0
0
0.0124071
0.0247996
0.0300704
0.0477763
0.0612669
0.0714356
0.0788321
0.0840119
0.0873359
0.0890976
0.0892916
0.0252841
0.0252604
0.0255732
0.0256785
0.02562
0.025528
0.025442
0.0253537
0.0252821
0.0252514
0.0252272
0.0252315
0.0253048
0.0254789
0.0257756
0.0262314
0.0268813
0.0277714
0.0289016
0.0304226
0.032439
0.0347119
0.0365906
0.036293
0.0338741
0.0345115
0.0389324
0.131414
0.442518
15.4355
0
0
0.0134997
0.00929155
0.0337788
0.0510166
0.0632717
0.0721305
0.0783091
0.0822994
0.0843336
0.0282041
0.0281393
0.0284572
0.0285433
0.0284498
0.0283222
0.0281936
0.0280627
0.0279413
0.0278649
0.0278093
0.0277382
0.0277129
0.0277654
0.027907
0.0281632
0.0285489
0.0291015
0.029802
0.0306971
0.0315385
0.0318155
0.0312915
0.0302336
0.0288259
0.0273366
0.0263928
0.026259
0.0363848
0.4029
0.812441
0.798447
0
0.384319
0.0108309
0.0232824
0.0269389
0.0492488
0.0629511
0.0713717
0.0766675
0.0312914
0.0311848
0.031494
0.0315483
0.0314044
0.031226
0.0310363
0.030844
0.0306517
0.0304978
0.0303807
0.0302277
0.0300833
0.0299871
0.0299508
0.0299892
0.0301051
0.0303073
0.0305722
0.0309466
0.0312051
0.0310266
0.0303905
0.0292195
0.0277882
0.0263423
0.0247428
0.0235542
0.0233061
0.023592
0.0383375
7.51378
1.30799
11.5813
0
0
0.00818819
0.0129435
0.0223292
0.0247331
0.046947
0.0345807
0.0344105
0.0346988
0.0347074
0.0345057
0.0342589
0.0339976
0.0337243
0.0334495
0.0332007
0.0330008
0.0327465
0.0324625
0.0322021
0.0319858
0.0318123
0.0316868
0.0316004
0.0315325
0.0315229
0.0313739
0.0309142
0.0302549
0.029291
0.0281251
0.0268366
0.0254853
0.024147
0.0227018
0.0217511
0.022075
0.0230004
0.0329663
0.249693
0.616497
2.54553
0
0
0
0.0100806
0.0100556
0.038082
0.0378459
0.0381023
0.0380487
0.0377765
0.0374487
0.0371007
0.0367318
0.0363608
0.0360022
0.0357033
0.0353532
0.0349284
0.034511
0.0341202
0.0337509
0.0334126
0.0330983
0.0327875
0.0325264
0.032127
0.0314874
0.0307495
0.0298618
0.028866
0.0278014
0.0267096
0.025588
0.0244008
0.0231931
0.0220532
0.02126
0.0213559
0.0227872
0.0259805
0.0484221
0.270825
1.65116
2.27984
7.72691
0
0.0418376
0.0415135
0.0417208
0.041597
0.0412398
0.0408148
0.0403623
0.0398812
0.0393944
0.0389087
0.0384795
0.0380316
0.0374797
0.0369145
0.0363558
0.0358133
0.0352882
0.0347908
0.0342908
0.0338546
0.033292
0.0325517
0.0317579
0.0308805
0.0299475
0.0290041
0.0280575
0.0271224
0.0262049
0.0252661
0.0242762
0.023301
0.0223334
0.021667
0.021384
0.0218781
0.0235761
0.0279174
0.037073
0.121464
0.520839
0.0458545
0.0454517
0.0455903
0.0453781
0.0449191
0.0443865
0.0438104
0.043206
0.0425858
0.0419698
0.0413909
0.0408247
0.0401493
0.039439
0.0387223
0.0380226
0.0373356
0.0366854
0.0360338
0.0354565
0.0347741
0.0339629
0.0331355
0.0322577
0.0313519
0.0304589
0.0295853
0.028741
0.0279307
0.0271576
0.0264114
0.0256796
0.0249162
0.0241364
0.0233968
0.0226877
0.0222029
0.0221029
0.0222242
0.0234404
0.0245884
0.050189
0.0496756
0.0497356
0.049426
0.0488488
0.0481903
0.0474787
0.0467362
0.0459747
0.0452175
0.0444876
0.043789
0.0429909
0.0421338
0.0412738
0.0404318
0.0396064
0.038819
0.0380423
0.0373457
0.0365693
0.035696
0.0348444
0.033964
0.0330764
0.0322097
0.0313742
0.0305718
0.0298104
0.029094
0.0284237
0.027794
0.0272031
0.0266335
0.0260695
0.0254888
0.0248979
0.0243723
0.0237697
0.0236801
0.0228498
0.0548609
0.0542487
0.0542076
0.0537702
0.0530644
0.0522584
0.0513974
0.0504965
0.0495809
0.0486654
0.0477765
0.0469311
0.0460111
0.0450091
0.0440232
0.0430459
0.0420954
0.0411817
0.0402984
0.0394943
0.0386401
0.0377144
0.0368396
0.0359475
0.0350676
0.0342143
0.0334029
0.0326269
0.0318953
0.0312037
0.0305596
0.0299576
0.0294063
0.0288992
0.0284273
0.0279844
0.0275541
0.027186
0.0266644
0.0267067
0.0257181
0.0599352
0.0591859
0.0590397
0.0584601
0.0576007
0.0566262
0.0556005
0.0545229
0.0534395
0.0523514
0.0512914
0.0502865
0.0492466
0.048106
0.0469893
0.0458789
0.044806
0.0437753
0.0427873
0.0418878
0.0409578
0.0399818
0.0390771
0.0381721
0.0372891
0.0364418
0.0356438
0.0348878
0.0341778
0.0335102
0.0328898
0.0323111
0.0317793
0.0312911
0.0308384
0.030423
0.0300324
0.0297335
0.0292722
0.0295012
0.0285236
0.0654347
0.0645703
0.0642725
0.0635259
0.0624962
0.0613346
0.060121
0.0588568
0.0575874
0.0563204
0.0550786
0.0539018
0.0527253
0.0514613
0.050211
0.0489786
0.0477846
0.0466454
0.045553
0.0445653
0.0435571
0.0425352
0.0415965
0.0406768
0.0397834
0.0389357
0.0381396
0.0373962
0.0366998
0.0360507
0.0354467
0.0348872
0.034371
0.0338988
0.0334597
0.0330598
0.0326795
0.032402
0.0319374
0.0322845
0.0312218
0.0714362
0.0704137
0.0699589
0.0690329
0.0677897
0.0664276
0.0649981
0.0635364
0.0620577
0.0606017
0.0591669
0.0578116
0.0564745
0.0550923
0.0537053
0.05236
0.0510481
0.0498079
0.0486148
0.0475488
0.0464692
0.0454034
0.0444291
0.0434895
0.0425776
0.0417257
0.0409296
0.0401914
0.039499
0.0388588
0.0382648
0.03772
0.0372193
0.0367642
0.0363404
0.0359574
0.0355895
0.0353327
0.034852
0.0353164
0.0341177
0.0779905
0.0768224
0.0761574
0.0750195
0.0735427
0.0719477
0.0702775
0.0685958
0.0668899
0.0652292
0.0635915
0.0620452
0.0605398
0.0590221
0.057495
0.0560326
0.0546094
0.0532679
0.0519846
0.0508359
0.0496849
0.0485684
0.0475583
0.0465931
0.0456655
0.0448
0.0439958
0.0432527
0.0425622
0.0419271
0.0413434
0.0408091
0.0403197
0.0398745
0.0394614
0.0390886
0.038727
0.0384852
0.0379816
0.038571
0.0371914
0.0851916
0.0838231
0.0829469
0.0815503
0.0798103
0.0779419
0.0760157
0.0740758
0.0721376
0.0702423
0.0684004
0.0666415
0.0649651
0.0632956
0.0616334
0.0600444
0.0585131
0.0570604
0.0556802
0.0544366
0.0532188
0.0520443
0.0509941
0.0499941
0.0490447
0.0481596
0.0473487
0.0466018
0.0459142
0.0452799
0.0447014
0.0441707
0.0436877
0.0432467
0.0428395
0.042471
0.0421125
0.0418847
0.0413555
0.0420759
0.0404654
0.0931203
0.091553
0.0903921
0.088699
0.0866652
0.0844783
0.0822638
0.0800369
0.0778448
0.0756958
0.0736335
0.0716485
0.0697954
0.0679681
0.0661598
0.0644402
0.0627967
0.0612314
0.0597593
0.0584316
0.057139
0.0558987
0.0548007
0.0537622
0.0527873
0.0518817
0.0510512
0.0502855
0.0495871
0.0489473
0.048366
0.047833
0.0473492
0.0469075
0.0464988
0.0461283
0.0457636
0.0455407
0.04497
0.0458279
0.0439179
0.101906
0.100081
0.0986022
0.0965678
0.0941715
0.0916382
0.0890762
0.0865474
0.0840583
0.0816448
0.0793287
0.0771148
0.0750468
0.0730505
0.071093
0.0692429
0.0674788
0.0658086
0.0642321
0.0628082
0.0614318
0.0601296
0.0589808
0.057907
0.0568969
0.0559609
0.0551087
0.054333
0.0536268
0.0529814
0.0523935
0.0518543
0.0513623
0.0509126
0.0504939
0.0501129
0.0497332
0.0495081
0.0488832
0.0498802
0.0476034
0.111681
0.109571
0.107689
0.105233
0.102438
0.0994792
0.0965482
0.0936503
0.0908535
0.0881292
0.0855495
0.0830759
0.0807876
0.0785967
0.0764857
0.0744821
0.0725954
0.0708037
0.0691185
0.0675941
0.0661313
0.0647525
0.0635389
0.0624101
0.0613595
0.0603906
0.0595093
0.0587053
0.0579728
0.0573012
0.0566864
0.0561204
0.0556032
0.0551279
0.054682
0.0542735
0.0538631
0.0536194
0.0529299
0.0540486
0.0513513
0.122621
0.120141
0.117762
0.114823
0.111536
0.108105
0.104722
0.101439
0.0982709
0.0952244
0.0923347
0.0896008
0.087053
0.084652
0.0823569
0.0801992
0.0781703
0.0762582
0.0744531
0.0728235
0.0712594
0.0698067
0.0685293
0.0673529
0.0662561
0.0652497
0.0643316
0.063497
0.0627335
0.0620357
0.0613944
0.0608043
0.0602604
0.059759
0.0592831
0.0588454
0.0583981
0.0581296
0.057363
0.0586246
0.0554048
0.13494
0.131986
0.128974
0.125423
0.12154
0.117576
0.113682
0.109957
0.106375
0.102978
0.0997534
0.0967351
0.0939137
0.0913005
0.0888163
0.086488
0.0843098
0.0822708
0.08034
0.0786046
0.0769464
0.0754051
0.0740389
0.0727904
0.0716315
0.0705688
0.0695952
0.0687074
0.0678906
0.0671389
0.0664413
0.0657938
0.0651903
0.0646272
0.0640869
0.0635837
0.0630658
0.062737
0.0618631
0.063205
0.0594152
0.148989
0.145395
0.141554
0.137214
0.132619
0.127966
0.123484
0.119237
0.115223
0.111422
0.10785
0.104508
0.101395
0.0985086
0.0957971
0.0932615
0.0909149
0.0887238
0.0866655
0.0847977
0.0830145
0.0813631
0.079906
0.078576
0.077345
0.0762124
0.0751758
0.0742272
0.0733538
0.0725469
0.0717967
0.0710938
0.0704341
0.0698134
0.069215
0.0686501
0.068069
0.0676829
0.066711
0.0681184
0.0636938
0.165246
0.160793
0.155893
0.150536
0.144982
0.139524
0.134299
0.129436
0.124875
0.120634
0.116663
0.112993
0.109583
0.106475
0.103567
0.100832
0.0983016
0.0959505
0.0937446
0.0917535
0.0898675
0.0881172
0.0865562
0.0851283
0.0838023
0.0825733
0.0814373
0.0803877
0.0794105
0.0784954
0.0776328
0.0768142
0.0760352
0.075292
0.074569
0.0738798
0.0731696
0.0726651
0.0715359
0.0729622
0.0678626
0.183935
0.178229
0.171904
0.165301
0.158723
0.152303
0.146255
0.140676
0.135515
0.130729
0.12628
0.122156
0.118325
0.114798
0.111526
0.108494
0.105746
0.103202
0.10082
0.0986408
0.0965712
0.0946508
0.092944
0.0913898
0.0899488
0.0886087
0.087371
0.086226
0.0851618
0.0841622
0.0832177
0.0823149
0.0814518
0.0806188
0.079801
0.0790057
0.0781923
0.0775745
0.0763271
0.07763
0.0718671
0.204842
0.196985
0.188654
0.180484
0.17272
0.165424
0.158724
0.152552
0.146887
0.141627
0.136791
0.132356
0.128326
0.124685
0.121312
0.118094
0.115125
0.112388
0.109862
0.107572
0.105422
0.103409
0.101576
0.0998774
0.0982905
0.0967949
0.0953856
0.0940508
0.0927849
0.0915753
0.0904144
0.0892925
0.0882101
0.087162
0.0861329
0.0851364
0.0841199
0.0833297
0.0818579
0.0832138
0.0765882
0.230183
0.218917
0.20739
0.196699
0.187083
0.178497
0.1709
0.164153
0.158072
0.152449
0.14718
0.142198
0.137491
0.133083
0.12903
0.125384
0.1221
0.119052
0.116179
0.11352
0.111013
0.108703
0.106622
0.104724
0.102968
0.101327
0.0997925
0.0983477
0.0969744
0.0956557
0.094383
0.0931432
0.0919305
0.0907363
0.0895476
0.0883692
0.0871692
0.0861367
0.0845082
0.0853044
0.0783965
0.269423
0.253805
0.237271
0.222139
0.208796
0.197175
0.187109
0.178456
0.170957
0.164443
0.158752
0.153804
0.14947
0.145691
0.142226
0.13886
0.135679
0.132765
0.13004
0.127494
0.125017
0.122613
0.120341
0.11819
0.116137
0.114163
0.112259
0.11042
0.108644
0.106919
0.105241
0.103605
0.102013
0.100464
0.0989457
0.0974775
0.0959982
0.0947731
0.0928297
0.0939762
0.0856481
0.325538
0.299516
0.273385
0.25197
0.234787
0.220683
0.208818
0.19861
0.189551
0.181283
0.173586
0.166333
0.15947
0.152999
0.146949
0.141526
0.136748
0.13247
0.128627
0.125197
0.122096
0.119295
0.116777
0.114497
0.112396
0.110434
0.108584
0.10682
0.105112
0.10344
0.101788
0.100139
0.0984874
0.0968283
0.0951516
0.0934589
0.0917413
0.0901327
0.0880509
0.0879258
0.0805952
0.33193
0.295498
0.269903
0.251185
0.236209
0.223053
0.211312
0.20096
0.192181
0.185012
0.17945
0.175433
0.172777
0.171272
0.170732
0.17059
0.170075
0.168817
0.16671
0.16399
0.160851
0.157537
0.154155
0.150816
0.147557
0.144397
0.141336
0.138383
0.13553
0.132772
0.130099
0.12751
0.12499
0.122541
0.120153
0.117851
0.115539
0.113529
0.110681
0.111573
0.100233
0.234901
0.194377
0.171215
0.157225
0.14859
0.143428
0.140611
0.139405
0.139215
0.13952
0.139844
0.13979
0.139116
0.137788
0.135859
0.133341
0.130536
0.127834
0.125344
0.123083
0.121065
0.119199
0.117545
0.116045
0.114652
0.113335
0.112064
0.110807
0.109531
0.108211
0.106824
0.105355
0.103792
0.102131
0.100361
0.0984891
0.0965064
0.0945559
0.0920379
0.0916075
0.0828475
0.00719541
0.0123714
0.0170227
0.0194021
0.0202795
0.0199552
0.00930418
0.00407404
0.00416561
0.00478876
0.00494878
0.00497574
0.00507084
0.00522995
0.00540266
0.00565413
0.00592062
0.00623838
0.00657115
0.00694819
0.00733519
0.00772472
0.0081162
0.00850876
0.00890464
0.00931258
0.00973247
0.0101812
0.0107281
0.0114586
0.012355
0.0133653
0.0144713
0.0156845
0.017065
0.0186457
0.0204468
0.0224902
0.024852
0.0275584
0.0305997
0.0340175
0.0375732
0.0408796
0.0427598
0.0440993
0.044003
0.0434889
0.0430055
0.0428865
0.0425371
0.0429272
0.0432668
0.0439847
0.0451111
0.0458218
0.0474664
0.0487267
0.0506878
0.0522742
0.0545831
0.0563036
0.0586366
0.0609338
0.0630497
0.0655711
0.0675807
0.0699618
0.0720388
0.0743216
0.075925
0.0783873
0.079649
0.0820154
0.0116468
0.0165965
0.0217797
0.0247268
0.0243286
0.0257378
0.0167786
0.00628823
0.00354697
0.00463375
0.00491692
0.00506184
0.0052155
0.00542333
0.00561788
0.00588709
0.00616267
0.00648706
0.00683097
0.00721015
0.00758835
0.00799604
0.00844388
0.00887757
0.00935927
0.00979355
0.0103076
0.0107846
0.0112938
0.0119158
0.0127193
0.0137378
0.0149295
0.0162155
0.0176135
0.0191899
0.0209897
0.0230353
0.0253881
0.0280346
0.0309983
0.0342684
0.0375911
0.0408206
0.0427283
0.04438
0.044727
0.0445317
0.044286
0.0444603
0.0441848
0.0446928
0.0450774
0.0458432
0.0470615
0.0477417
0.0494347
0.0506639
0.0526941
0.0542162
0.0565541
0.0582373
0.0604827
0.0628027
0.0648077
0.0672929
0.0692366
0.0715235
0.0735247
0.0757814
0.0772138
0.0797751
0.0807506
0.0834433
0.0150738
0.0204172
0.0270164
0.0311724
0.0298529
0.0296591
0.0304155
0.01096
0.00412502
0.0042031
0.00476709
0.00504316
0.00529374
0.00556526
0.00582184
0.00612169
0.00642668
0.00676715
0.00713018
0.00750851
0.00789816
0.00836274
0.00886355
0.00931433
0.00975241
0.0102105
0.0106951
0.011392
0.0121246
0.0127537
0.0134025
0.0142286
0.0153264
0.01664
0.0180951
0.0196812
0.0214181
0.0233649
0.0255674
0.0280395
0.0307041
0.0335167
0.0364819
0.0391185
0.041351
0.0430694
0.0438506
0.0446858
0.0449646
0.0454105
0.0456335
0.0463228
0.0469049
0.0477551
0.0489546
0.0500258
0.0515738
0.052935
0.0549025
0.0565224
0.0587286
0.0606112
0.0626727
0.0649588
0.0669568
0.0693002
0.0712964
0.07343
0.0753425
0.0775646
0.0788519
0.0815127
0.0821758
0.0852111
0.0204362
0.0252051
0.0323089
0.0378728
0.0371913
0.0349185
0.0399496
0.0195594
0.00703571
0.00339305
0.00467807
0.00495074
0.00529637
0.00564284
0.00597397
0.00631574
0.00666141
0.00702612
0.00740428
0.00778944
0.008233
0.00875519
0.00918339
0.00962618
0.00979269
0.0100703
0.0106459
0.011366
0.0123158
0.0134387
0.0143472
0.015071
0.015901
0.0169976
0.0183882
0.0200004
0.0217313
0.0235919
0.0256299
0.0278811
0.0302653
0.0327458
0.0353879
0.0376973
0.0400117
0.0418333
0.0430214
0.0445125
0.0453461
0.0461346
0.0468892
0.0478463
0.0486893
0.0496878
0.0509139
0.0523541
0.0538114
0.055316
0.0572206
0.058954
0.0610454
0.0630794
0.0649996
0.0672246
0.0692146
0.071423
0.0734319
0.0754446
0.0772574
0.079447
0.0805786
0.0833675
0.0837058
0.0870942
0.0257906
0.0299112
0.0371849
0.0442957
0.0453128
0.0418982
0.0432456
0.0354506
0.0125178
0.00456912
0.00436189
0.0049049
0.00524433
0.00566636
0.00607214
0.00646223
0.00685571
0.00724763
0.00763872
0.00805354
0.00857666
0.00908678
0.00940459
0.0096152
0.0097038
0.0100375
0.0103932
0.0108787
0.0117569
0.0129236
0.0143944
0.0158029
0.0168303
0.0177039
0.0187692
0.0201569
0.0218222
0.0236784
0.025654
0.0277074
0.0298667
0.0321208
0.0344739
0.0366907
0.0389017
0.0408788
0.0424517
0.0442097
0.0455146
0.0467504
0.0479485
0.0492473
0.0503911
0.0516086
0.0529869
0.054649
0.0561254
0.0577525
0.0596379
0.0614578
0.0634942
0.0655861
0.0674078
0.0695676
0.0715219
0.0736165
0.0755878
0.0775035
0.0792108
0.08137
0.0823301
0.0852698
0.0852775
0.0890327
0.0313492
0.0350644
0.0419838
0.0497277
0.0533928
0.0503021
0.0482235
0.0554382
0.0218832
0.00840272
0.00343814
0.00500778
0.00516927
0.00563271
0.00611714
0.00656068
0.00700418
0.00742498
0.00783857
0.00830953
0.00888259
0.00928965
0.00950292
0.00957203
0.00999624
0.010797
0.0112832
0.0117878
0.0119219
0.012445
0.0134723
0.0150434
0.016885
0.0184445
0.0195415
0.0205735
0.0218703
0.0235121
0.0254035
0.0273823
0.0294187
0.0314782
0.0335716
0.0356575
0.0377578
0.0398248
0.0416453
0.0436067
0.0452804
0.0469731
0.0485754
0.0502727
0.0517767
0.0532969
0.0549253
0.0568041
0.0583913
0.0601607
0.0620737
0.063979
0.0660013
0.0681065
0.0698504
0.0719563
0.0738581
0.0758494
0.0777503
0.0795735
0.0811711
0.0833031
0.0840744
0.0871753
0.0868481
0.0909681
0.0371196
0.04065
0.0468515
0.0541246
0.0603463
0.0591407
0.0551568
0.0603827
0.038317
0.0149941
0.00570592
0.00434317
0.00520607
0.00551845
0.00608929
0.00660482
0.0070978
0.00755268
0.00801118
0.00854927
0.00907999
0.00932751
0.0095184
0.00982352
0.0116108
0.0131058
0.0156392
0.0158755
0.0151951
0.0138871
0.0135512
0.0142236
0.0155711
0.0176007
0.0196907
0.0212722
0.0223969
0.023558
0.0250046
0.0267473
0.0287018
0.0306878
0.0326431
0.0345532
0.036526
0.0385567
0.0404664
0.0425984
0.0445561
0.0465984
0.0485806
0.0506709
0.0525882
0.0544805
0.0564278
0.0586305
0.0604236
0.062399
0.0643994
0.0664292
0.0684699
0.0706035
0.0722894
0.0743545
0.0762098
0.0781035
0.0799216
0.0816515
0.0831342
0.0852449
0.0858149
0.0890791
0.0884149
0.0928785
0.0428899
0.0462641
0.0515711
0.0579753
0.0653513
0.0674694
0.0632489
0.0634299
0.0658056
0.0257463
0.0107284
0.00403378
0.00564538
0.00546667
0.00596294
0.00657642
0.00712788
0.00762742
0.00815565
0.00873286
0.00912476
0.00926139
0.00969965
0.0110483
0.0181999
0.0356602
0.0352546
0.0300251
0.0712351
0.0253509
0.0186458
0.0156886
0.0152417
0.0160782
0.0178128
0.0202372
0.0224785
0.0240626
0.0252067
0.0263755
0.0278645
0.0296198
0.0315171
0.0333886
0.0353105
0.0372467
0.0391222
0.0412792
0.0434148
0.0456628
0.0479644
0.0503691
0.0527
0.054977
0.0573001
0.0599105
0.062017
0.0643021
0.0664622
0.0687
0.0708052
0.0730196
0.0746857
0.0767221
0.0785556
0.0803606
0.0820994
0.0837413
0.0851068
0.087202
0.0875654
0.090995
0.0899944
0.0947776
0.0483813
0.0513148
0.0556463
0.0613788
0.0688691
0.0745441
0.0719011
0.0689924
0.080777
0.0442678
0.0188482
0.00781321
0.00388877
0.0058054
0.00585217
0.00645613
0.00708342
0.00764872
0.00825453
0.00881283
0.00906208
0.00929086
0.0104273
0.0158759
0.0519959
0.128685
0.0616612
0.0851124
0.572535
0.157383
0.121284
0.0377132
0.0212637
0.0175076
0.0171445
0.0182094
0.0202638
0.0229251
0.0252123
0.026732
0.027832
0.0289361
0.030341
0.0320064
0.0339144
0.0358776
0.0377823
0.0398899
0.0420516
0.0443431
0.0468263
0.0494456
0.0521169
0.0547479
0.0574474
0.0604827
0.0629838
0.0656763
0.0680901
0.0706348
0.0728829
0.0752547
0.0769657
0.0789988
0.0808488
0.0825836
0.0842602
0.0858268
0.0870783
0.0891638
0.0893252
0.0929199
0.0915896
0.0966783
0.0534669
0.0554326
0.0589364
0.0644349
0.0719625
0.0800299
0.0809673
0.0766735
0.0818248
0.0803466
0.0317036
0.0143788
0.00587195
0.00507728
0.00603189
0.00629574
0.00694835
0.0076078
0.00827791
0.00878498
0.00897633
0.00951803
0.0122656
0.0293534
0.100579
0.0418036
0.0121526
0.018844
0.0113854
0.0129624
0.542446
0.345267
0.143986
0.0396057
0.0225413
0.0190696
0.0189939
0.0202778
0.022494
0.0252325
0.0275915
0.0291141
0.0301398
0.0311471
0.0325306
0.0342665
0.0361945
0.0383643
0.0406069
0.0429019
0.0454275
0.0480999
0.0509738
0.0538555
0.0569102
0.0602846
0.0632508
0.0663459
0.0691573
0.0720493
0.0745745
0.0771845
0.0790402
0.0811215
0.0830307
0.0847321
0.0863685
0.0878801
0.089026
0.0911072
0.0910766
0.0948328
0.0931803
0.0985723
0.0579608
0.0591513
0.0623674
0.06806
0.0757512
0.0845868
0.0895912
0.0860554
0.0860368
0.120555
0.0537022
0.0243046
0.0112486
0.00472122
0.00586555
0.00625424
0.00675203
0.00748916
0.00821338
0.00867086
0.00889749
0.00995813
0.0184969
0.131249
0.0267805
0.0139164
0.0213802
0.0254574
0.0248024
0.0181131
0.0442459
0.012294
0
0.361904
0.149215
0.0430867
0.0243351
0.0209461
0.0208172
0.0220241
0.0242087
0.0270561
0.0295815
0.0312236
0.0323331
0.0334061
0.0347591
0.0366037
0.0388099
0.0411968
0.0438484
0.0465792
0.0495252
0.0525048
0.0557721
0.0593729
0.0627793
0.0662664
0.0695438
0.0728245
0.0757309
0.0786749
0.0807907
0.0830042
0.0850318
0.086759
0.088389
0.089873
0.0909282
0.0930133
0.0928052
0.0967135
0.0947482
0.100442
0.0628909
0.0638462
0.0675575
0.0738666
0.0816845
0.0900694
0.0967979
0.0961891
0.0932525
0.111399
0.103213
0.0391405
0.0192828
0.00901394
0.00441266
0.00605739
0.00657122
0.00727436
0.00804767
0.00847582
0.00882859
0.0108871
0.0337699
0.0722288
0.0111969
0.0234718
0.0349231
0.0432337
0.0470527
0.0453873
0.0376647
0.023938
0.019743
0.0133014
0
0.394905
0.161652
0.0539056
0.0279402
0.0233081
0.0226225
0.0235584
0.0255535
0.0284341
0.0312689
0.0333297
0.0346704
0.0358859
0.0374044
0.0393434
0.0418415
0.0446628
0.0477613
0.0509197
0.0542881
0.0579973
0.0616574
0.0654835
0.069187
0.0729051
0.0762398
0.0796105
0.0820983
0.0845455
0.0867805
0.088607
0.090284
0.0917786
0.0927704
0.0948696
0.0945055
0.0985534
0.0962854
0.102281
0.0698189
0.0708261
0.0754638
0.082339
0.089782
0.0969417
0.102894
0.104947
0.101502
0.107439
0.225817
0.0616993
0.0302968
0.0156311
0.00752387
0.00467994
0.00623897
0.00702006
0.0077763
0.00819573
0.00876672
0.0125309
0.060965
0.0256468
0.0155813
0.0317408
0.0472222
0.0599611
0.0687368
0.0725973
0.0706611
0.0623028
0.0473081
0.0290604
0.0233188
0.0147269
0
0.501991
0.19717
0.0931267
0.0352862
0.0265284
0.0245597
0.0247707
0.026395
0.0291656
0.0323898
0.0353065
0.0374136
0.0389363
0.0406458
0.0428179
0.045569
0.0487703
0.0523211
0.0562491
0.0601308
0.0641827
0.0681663
0.0722537
0.0760232
0.0798723
0.0828491
0.0856322
0.088173
0.0901881
0.0919869
0.0935485
0.0945224
0.0966534
0.0961673
0.100343
0.0977842
0.104091
0.0807785
0.0825673
0.0876784
0.093353
0.0984367
0.102563
0.106026
0.1086
0.106687
0.106235
0.125311
0.0904692
0.0442307
0.0241492
0.0129443
0.00667973
0.0050867
0.00654409
0.00743729
0.00786846
0.00865108
0.0144853
0.0979905
0.0160949
0.0179877