/*--------------------------------*- C++ -*----------------------------------*\
| =========                 |                                                 |
| \\      /  F ield         | OpenFOAM: The Open Source CFD Toolbox           |
|  \\    /   O peration     | Version:  2312                                  |
|   \\  /    A nd           | Website:  www.openfoam.com                      |
|    \\/     M anipulation  |                                                 |
\*---------------------------------------------------------------------------*/
FoamFile
{
    version     2.0;
    format      ascii;
    arch        "LSB;label=32;scalar=64";
    class       volScalarField;
    location    "200";
    object      turbulenceProperties:k;
}
// * * * * * * * * * * * * * * * * * * * * * * * * * * * * * * * * * * * * * //

dimensions      [0 2 -2 0 0 0 0];

internalField   nonuniform List<scalar> 
11040
(
0.240279
0.431851
0.411877
0.0794562
0.00918761
0.0653238
0.144498
0.167194
0.154913
0.1374
0.11232
0.0823377
0.0470348
0.0361121
0.0340181
0.0468815
0.0907933
0.135798
0.152046
0.0906717
0.0400673
0.0906146
0.210379
0.343995
0.37586
0.307504
0.205858
0.103349
0.0349911
0.276936
0.416213
0.391804
0.290077
0.182547
0.0727216
0.212926
0.457706
0.826144
1.42204
2.09223
2.16453
0.0338715
0.0463235
0.11729
0.293131
0.312989
0.735768
0.643074
0.314561
0.188075
0.112337
0.0760574
0.0516595
0.0341531
0.0210524
0.0207974
0.026209
0.0267676
0.0288887
0.0395455
0.0594515
0.0891863
0.114158
0.0974777
0.0554704
0.0316213
0.0550108
0.0799779
0.108487
0.166025
0.0962772
0.105663
0.18649
0.255024
0.32382
0.397185
0.459023
0.490734
0.514813
0.541917
0.513045
0.626219
0.0202189
0.0149461
0.00980109
0.0536217
0.149595
0.545362
1.01289
1.01304
0.627152
0.378981
0.24202
0.147909
0.0931183
0.073243
0.0720269
0.085006
0.0954159
0.0895544
0.0795834
0.100811
0.158086
0.208611
0.178941
0.0983068
0.058405
0.0885669
0.170203
0.376423
0.309772
0.161857
0.193348
0.318588
0.44709
0.563659
0.66997
0.75305
0.816466
0.845571
0.859062
0.758845
0.882654
0.0141027
0.0110197
0.00920927
0.00727523
0.0163576
0.101277
0.464435
1.05334
1.22508
0.932659
0.586118
0.37181
0.235799
0.164493
0.145333
0.162248
0.17499
0.155361
0.11368
0.13613
0.253713
0.36286
0.339179
0.220815
0.162217
0.228839
0.418913
0.708473
0.461131
0.198747
0.222753
0.449422
0.671768
0.872888
1.04761
1.18641
1.28713
1.33425
1.33492
1.19362
1.17808
0.0100746
0.00892769
0.00760125
0.00713494
0.00513384
0.00401978
0.0501178
0.321255
0.883429
1.27097
1.16042
0.809201
0.516014
0.341833
0.265273
0.268793
0.293298
0.268652
0.178914
0.146893
0.331259
0.514732
0.528288
0.373842
0.279968
0.411979
0.716117
0.95216
0.571237
0.19674
0.256526
0.61159
0.952082
1.26269
1.52697
1.74108
1.89218
1.97308
1.97156
1.8237
1.68141
0.00697754
0.00635915
0.00574494
0.00513358
0.00536862
0.00346801
0.000442464
0.0157022
0.182682
0.63361
1.13434
1.253
1.00444
0.684226
0.476119
0.411149
0.436121
0.439333
0.326849
0.148428
0.345877
0.603327
0.687295
0.521283
0.379667
0.607312
1.00398
1.08506
0.599458
0.156603
0.31952
0.815082
1.29014
1.7268
2.09767
2.39822
2.60968
2.73278
2.74059
2.62481
2.41717
0.00489073
0.00464218
0.00439544
0.00400339
0.0037415
0.00401869
0.00250474
9.61267e-05
0.00143436
0.0800152
0.390907
0.883333
1.19715
1.12672
0.859396
0.656299
0.611951
0.630885
0.550997
0.280416
0.251141
0.570394
0.746069
0.620063
0.381141
0.772897
1.2222
1.06509
0.515589
0.0784847
0.434985
1.05519
1.67117
2.24283
2.73073
3.12222
3.40023
3.57033
3.59987
3.54519
3.3377
0.00348498
0.00335757
0.00326992
0.00314242
0.00288352
0.0027099
0.00306328
0.00191084
3.13274e-06
0.000195795
0.0269175
0.206268
0.611816
1.02632
1.1559
1.02388
0.883317
0.851477
0.803551
0.575493
0.176366
0.372636
0.636351
0.59882
0.198102
0.875683
1.29
0.90534
0.310485
0.140943
0.615942
1.32273
2.06798
2.77402
3.37751
3.86011
4.20275
4.42212
4.48485
4.50887
4.35562
0.00250878
0.00243948
0.00240477
0.00236073
0.00228053
0.0020819
0.00198832
0.00224306
0.00165943
5.91826e-05
0.000121393
0.00250765
0.0908901
0.376922
0.796624
1.09714
1.16351
1.13084
1.0763
0.913194
0.553882
0.152065
0.336917
0.477554
0.286531
0.982948
1.20965
0.674771
0.0382984
0.371621
0.854424
1.59531
2.44084
3.26686
3.9722
4.53496
4.93288
5.19317
5.29311
5.3949
5.33297
0.00182147
0.00177965
0.00176246
0.00175139
0.00172614
0.0016706
0.00152421
0.0014602
0.00163286
0.00138463
0.000141914
2.12045e-05
0.00323589
0.0270918
0.197717
0.55532
0.965479
1.24257
1.33256
1.24291
0.997012
0.663051
0.380501
0.583357
0.998804
1.39065
1.29048
0.778348
0.435757
0.642427
1.08854
1.82234
2.73511
3.6482
4.43038
5.06488
5.49546
5.76975
5.88274
6.02622
6.06385
0.00132864
0.0013023
0.00129089
0.00128851
0.00128512
0.00126885
0.00122613
0.001128
0.00106013
0.00117607
0.00109732
0.000327138
1.63488e-05
0.000215593
0.00301289
0.0804959
0.337304
0.771559
1.20494
1.42018
1.36525
1.18855
1.04002
1.10693
1.75517
2.19547
1.91915
1.40022
0.890833
0.857424
1.20632
1.87168
2.76844
3.73935
4.62842
5.33887
5.78307
6.05317
6.13148
6.247
6.32321
0.00097237
0.000956216
0.000945981
0.000944467
0.000947225
0.000944151
0.000931066
0.000901206
0.000835938
0.000775886
0.000831548
0.000874973
0.000437119
2.12766e-08
1.02333e-05
7.24087e-05
0.0223991
0.16345
0.527642
1.01088
1.35565
1.47325
1.53289
1.65556
2.19087
2.9445
2.80907
2.15197
1.31134
0.903167
1.10767
1.699
2.51271
3.44055
4.36506
5.1565
5.71874
6.00081
6.02392
6.03998
6.02899
0.000713448
0.000703146
0.000693755
0.000691726
0.000694619
0.000696647
0.000693808
0.000684104
0.000665063
0.000622739
0.00057466
0.000588037
0.000653096
0.000494062
1.74071e-05
4.69097e-06
0.000104479
2.11198e-05
0.0538664
0.283316
0.697001
1.11264
1.43149
1.77506
2.3053
3.11085
3.46172
2.79708
1.67125
0.747173
0.734007
1.43759
2.22503
3.06677
3.92347
4.69538
5.28095
5.62485
5.67158
5.52634
5.29856
0.000523969
0.000517467
0.000508905
0.000506236
0.000508435
0.000511122
0.000512306
0.000510053
0.000502999
0.000490482
0.000464349
0.000428402
0.000422285
0.000461492
0.000459317
8.82307e-05
9.55683e-06
7.07799e-08
0.00121253
0.00890757
0.106221
0.361202
0.700056
1.0998
1.71646
2.53683
3.24321
3.0271
1.96476
0.71755
0.500305
1.53758
2.42934
3.21866
3.94693
4.58612
5.06045
5.32095
5.30656
4.98586
4.43848
0.000384724
0.000380607
0.000373084
0.000370175
0.000371629
0.000373765
0.000375385
0.000375849
0.000373919
0.000368901
0.000360617
0.000345212
0.000319807
0.000304133
0.000327005
0.000368258
0.000203094
1.95355e-05
3.24406e-07
1.33307e-05
0.00431515
0.0194907
0.11588
0.286584
0.617517
1.33891
2.18318
2.56823
2.17048
1.39805
1.3287
2.22132
3.24916
4.14096
4.86881
5.41162
5.72783
5.78598
5.54638
4.96983
4.13139
0.000282149
0.000279561
0.000273221
0.000270489
0.000271311
0.000272858
0.000274128
0.000275061
0.000275286
0.000273333
0.000269403
0.00026349
0.000254044
0.000237253
0.000219368
0.000224641
0.000251059
0.000237833
2.75922e-05
4.28688e-06
5.48391e-09
8.88569e-05
1.40584e-06
0.0101891
0.0368039
0.207284
0.782692
1.55004
2.03872
2.20113
2.45716
3.15976
4.18347
5.25195
6.18011
6.8631
7.21872
7.20412
6.80891
6.06821
5.04876
0.000207198
0.000205612
0.000200465
0.000198114
0.000198511
0.00019952
0.000200344
0.000201028
0.000201351
0.000200986
0.000199194
0.000195734
0.00019088
0.000184075
0.000173037
0.000156711
0.000148925
0.00015644
0.000172168
9.61137e-05
6.74142e-07
4.78714e-07
2.29304e-09
3.43036e-05
0.000516107
0.0114839
0.0272429
0.302714
0.959272
1.79571
2.66335
3.59496
4.65627
5.82951
6.99907
7.98907
8.64131
8.86629
8.65447
8.05762
7.06743
0.000154448
0.000153575
0.000149536
0.000147714
0.000147966
0.000148666
0.000149264
0.000149769
0.000150034
0.000150045
0.00014913
0.000147092
0.00014363
0.00013896
0.000132979
0.000124484
0.000111717
9.71689e-05
9.18735e-05
9.90007e-05
9.36847e-05
2.3277e-05
3.29916e-06
2.75308e-07
0
0
0.000284922
0.018545
0.0636969
0.42546
1.25057
2.43574
3.80249
5.22567
6.63453
7.93556
9.00877
9.71196
9.96995
9.80892
9.17312
0.000117916
0.000117542
0.000114453
0.000113126
0.000113381
0.000113941
0.00011445
0.000114894
0.000115175
0.00011519
0.000114858
0.00011375
0.000111609
0.000108251
0.000103694
9.80613e-05
9.07317e-05
8.06579e-05
6.58905e-05
5.02633e-05
4.24858e-05
4.35719e-05
3.33887e-05
1.55601e-05
3.35547e-06
2.22115e-07
0
0
0.00115468
0.0239734
0.0886738
0.553949
1.55696
3.02186
4.71579
6.40709
7.93631
9.17695
10.0211
10.4097
10.3493
9.19876e-05
9.193e-05
8.95895e-05
8.86703e-05
8.89605e-05
8.94698e-05
8.99479e-05
9.04006e-05
9.07366e-05
9.07854e-05
9.07759e-05
9.02804e-05
8.91224e-05
8.71168e-05
8.41132e-05
8.00155e-05
7.49295e-05
6.87762e-05
6.08821e-05
5.0015e-05
3.36202e-05
1.12405e-05
1.2864e-05
1.78929e-05
7.58338e-06
1.26059e-05
2.92326e-06
8.41598e-08
0
0
0.00164758
0.0272066
0.111512
0.578536
1.58346
3.08771
4.86128
6.63097
8.18816
9.39489
10.2346
7.29738e-05
7.31141e-05
7.13383e-05
7.07563e-05
7.10813e-05
7.15963e-05
7.20828e-05
7.25873e-05
7.30006e-05
7.31797e-05
7.33219e-05
7.32988e-05
7.28771e-05
7.18876e-05
7.02443e-05
6.78274e-05
6.45918e-05
6.05233e-05
5.58808e-05
5.04085e-05
4.43283e-05
3.87715e-05
3.50889e-05
3.60665e-05
4.16277e-05
3.95446e-05
3.16535e-05
7.10618e-06
1.70303e-06
1.56237e-08
0
0
0.00270798
0.00058411
0.0754581
0.375733
1.04997
2.13997
3.55711
5.12811
6.70604
5.86447e-05
5.89172e-05
5.761e-05
5.72646e-05
5.76426e-05
5.81647e-05
5.86975e-05
5.9248e-05
5.97649e-05
6.00947e-05
6.03367e-05
6.06478e-05
6.07605e-05
6.05331e-05
5.99226e-05
5.88394e-05
5.72628e-05
5.51123e-05
5.25569e-05
4.95382e-05
4.69183e-05
4.60861e-05
4.76568e-05
5.1134e-05
5.66545e-05
6.3907e-05
6.88698e-05
6.83266e-05
3.91797e-05
1.71115e-06
7.81117e-07
2.87348e-10
0
2.58595e-06
0.00285302
0.0128703
0.0199471
0.112192
0.346634
0.790749
1.46041
4.76422e-05
4.79705e-05
4.70345e-05
4.68737e-05
4.73053e-05
4.78486e-05
4.84363e-05
4.90431e-05
4.96617e-05
5.01651e-05
5.05539e-05
5.1068e-05
5.1561e-05
5.18941e-05
5.20216e-05
5.18907e-05
5.14941e-05
5.08116e-05
4.99377e-05
4.87411e-05
4.79399e-05
4.84904e-05
5.05258e-05
5.4638e-05
6.04252e-05
6.73928e-05
7.71856e-05
8.64698e-05
8.78483e-05
8.39838e-05
3.80187e-05
3.48066e-08
4.08318e-07
2.40492e-08
0
0
0.00090542
0.00527112
0.0140657
0.0142996
0.0507536
3.90092e-05
3.93975e-05
3.87465e-05
3.87284e-05
3.91832e-05
3.97508e-05
4.03649e-05
4.10228e-05
4.17004e-05
4.23286e-05
4.28441e-05
4.35132e-05
4.4279e-05
4.49995e-05
4.56117e-05
4.61122e-05
4.64802e-05
4.67365e-05
4.69402e-05
4.69713e-05
4.7422e-05
4.88475e-05
5.10018e-05
5.44094e-05
5.89857e-05
6.47576e-05
7.18542e-05
8.02974e-05
9.19116e-05
0.000101509
9.71519e-05
8.79853e-05
4.79441e-05
3.17273e-06
1.04059e-06
1.71544e-07
0
0
0
0.000465401
0.00295175
3.21652e-05
3.25688e-05
3.21329e-05
3.22243e-05
3.26911e-05
3.32667e-05
3.38943e-05
3.45794e-05
3.52895e-05
3.59967e-05
3.66027e-05
3.73322e-05
3.82467e-05
3.91786e-05
4.00826e-05
4.09659e-05
4.18014e-05
4.26008e-05
4.34142e-05
4.41159e-05
4.5222e-05
4.70808e-05
4.93719e-05
5.23566e-05
5.60328e-05
6.03921e-05
6.53958e-05
7.12374e-05
7.84258e-05
8.71391e-05
9.72194e-05
0.000105671
0.000104034
8.96406e-05
6.99951e-05
2.76328e-05
2.82423e-06
2.69099e-07
1.86754e-07
3.82596e-08
0
2.66493e-05
2.70679e-05
2.68003e-05
2.69607e-05
2.74304e-05
2.80052e-05
2.86374e-05
2.9333e-05
3.00631e-05
3.08191e-05
3.1511e-05
3.22584e-05
3.32162e-05
3.42421e-05
3.53037e-05
3.63825e-05
3.74748e-05
3.85555e-05
3.96896e-05
4.07208e-05
4.21106e-05
4.405e-05
4.6282e-05
4.89532e-05
5.20567e-05
5.55032e-05
5.93082e-05
6.34518e-05
6.79445e-05
7.30876e-05
7.92581e-05
8.62654e-05
9.44676e-05
0.000100987
0.000103882
9.82011e-05
8.3614e-05
6.14446e-05
3.96913e-05
7.7241e-06
1.15392e-06
2.21844e-05
2.258e-05
2.24436e-05
2.26546e-05
2.31205e-05
2.36791e-05
2.43065e-05
2.49918e-05
2.57257e-05
2.64869e-05
2.72335e-05
2.79948e-05
2.89452e-05
2.9998e-05
3.11197e-05
3.22766e-05
3.34764e-05
3.46749e-05
3.59415e-05
3.71231e-05
3.8596e-05
4.04638e-05
4.25115e-05
4.4859e-05
4.74916e-05
5.03214e-05
5.33422e-05
5.65252e-05
5.98481e-05
6.32915e-05
6.69038e-05
7.07682e-05
7.52207e-05
8.02949e-05
8.56896e-05
9.15568e-05
9.59751e-05
9.68138e-05
9.53035e-05
8.48675e-05
7.69267e-05
1.85177e-05
1.89031e-05
1.8858e-05
1.90955e-05
1.95498e-05
2.00883e-05
2.06953e-05
2.13586e-05
2.20724e-05
2.28183e-05
2.35737e-05
2.43324e-05
2.52449e-05
2.6283e-05
2.73904e-05
2.85439e-05
2.9747e-05
3.09671e-05
3.22455e-05
3.3461e-05
3.48983e-05
3.66282e-05
3.84422e-05
4.04628e-05
4.26655e-05
4.49947e-05
4.7426e-05
4.99522e-05
5.25403e-05
5.51618e-05
5.7792e-05
6.04335e-05
6.30785e-05
6.58023e-05
6.8692e-05
7.19053e-05
7.54534e-05
7.88908e-05
8.31342e-05
8.40038e-05
9.03977e-05
1.54979e-05
1.58502e-05
1.58747e-05
1.61344e-05
1.65668e-05
1.70822e-05
1.76596e-05
1.82957e-05
1.8978e-05
1.96992e-05
2.04395e-05
2.11829e-05
2.2039e-05
2.30318e-05
2.40755e-05
2.51818e-05
2.63325e-05
2.75149e-05
2.87352e-05
2.99183e-05
3.12567e-05
3.28112e-05
3.43895e-05
3.6119e-05
3.79558e-05
3.98742e-05
4.18367e-05
4.38526e-05
4.58899e-05
4.79494e-05
4.99948e-05
5.20262e-05
5.39952e-05
5.59043e-05
5.77717e-05
5.96103e-05
6.1486e-05
6.317e-05
6.56837e-05
6.55111e-05
7.06937e-05
1.29846e-05
1.33159e-05
1.33823e-05
1.36493e-05
1.40599e-05
1.45483e-05
1.50903e-05
1.56931e-05
1.63361e-05
1.70226e-05
1.77338e-05
1.845e-05
1.92379e-05
2.01614e-05
2.11315e-05
2.21673e-05
2.32424e-05
2.43504e-05
2.54887e-05
2.65959e-05
2.78183e-05
2.91941e-05
3.05626e-05
3.20302e-05
3.35661e-05
3.51465e-05
3.67393e-05
3.83502e-05
3.99616e-05
4.15712e-05
4.31562e-05
4.47177e-05
4.62286e-05
4.76842e-05
4.90952e-05
5.04452e-05
5.17646e-05
5.28088e-05
5.44839e-05
5.36401e-05
5.73796e-05
1.08936e-05
1.11876e-05
1.12918e-05
1.15591e-05
1.19433e-05
1.24003e-05
1.29062e-05
1.34668e-05
1.40673e-05
1.47076e-05
1.53787e-05
1.60577e-05
1.67827e-05
1.76176e-05
1.85064e-05
1.94499e-05
2.04345e-05
2.14455e-05
2.24869e-05
2.34954e-05
2.45964e-05
2.57933e-05
2.69714e-05
2.82058e-05
2.94877e-05
3.07867e-05
3.20864e-05
3.33758e-05
3.46555e-05
3.59157e-05
3.71511e-05
3.83535e-05
3.95152e-05
4.06251e-05
4.16993e-05
4.27153e-05
4.37162e-05
4.44687e-05
4.5772e-05
4.47927e-05
4.78935e-05
9.14002e-06
9.40769e-06
9.53065e-06
9.78829e-06
1.01508e-05
1.05715e-05
1.10419e-05
1.1556e-05
1.21135e-05
1.27027e-05
1.33266e-05
1.3959e-05
1.46281e-05
1.53716e-05
1.61762e-05
1.70185e-05
1.79049e-05
1.88081e-05
1.9743e-05
2.06388e-05
2.16095e-05
2.26365e-05
2.36409e-05
2.46742e-05
2.57431e-05
2.68058e-05
2.78595e-05
2.8893e-05
2.99157e-05
3.09103e-05
3.18782e-05
3.28064e-05
3.36956e-05
3.45358e-05
3.53466e-05
3.61041e-05
3.6855e-05
3.73931e-05
3.84322e-05
3.74283e-05
4.0105e-05
7.66824e-06
7.90346e-06
8.04229e-06
8.28829e-06
8.62467e-06
9.01147e-06
9.44505e-06
9.91404e-06
1.04263e-05
1.09642e-05
1.15364e-05
1.21188e-05
1.27292e-05
1.33925e-05
1.41137e-05
1.48604e-05
1.56453e-05
1.64437e-05
1.7266e-05
1.80555e-05
1.89022e-05
1.97818e-05
2.06314e-05
2.14956e-05
2.23784e-05
2.32519e-05
2.41103e-05
2.49464e-05
2.5763e-05
2.65499e-05
2.73054e-05
2.80257e-05
2.87106e-05
2.93557e-05
2.9974e-05
3.05488e-05
3.11223e-05
3.15149e-05
3.23563e-05
3.13751e-05
3.37461e-05
6.4266e-06
6.63836e-06
6.77951e-06
7.01385e-06
7.32315e-06
7.67859e-06
8.07281e-06
8.50129e-06
8.96441e-06
9.45486e-06
9.97108e-06
1.05046e-05
1.10539e-05
1.16449e-05
1.22817e-05
1.29406e-05
1.36271e-05
1.43301e-05
1.50497e-05
1.57455e-05
1.64747e-05
1.72271e-05
1.79443e-05
1.86698e-05
1.94001e-05
2.012e-05
2.08156e-05
2.14886e-05
2.21374e-05
2.27624e-05
2.33558e-05
2.39207e-05
2.44529e-05
2.49544e-05
2.54313e-05
2.58748e-05
2.63174e-05
2.66046e-05
2.72899e-05
2.63635e-05
2.85037e-05
5.37876e-06
5.56466e-06
5.70865e-06
5.92877e-06
6.21041e-06
6.53622e-06
6.89298e-06
7.28201e-06
7.69803e-06
8.14146e-06
8.60403e-06
9.08752e-06
9.57664e-06
1.00987e-05
1.06585e-05
1.12351e-05
1.18311e-05
1.2444e-05
1.30649e-05
1.36657e-05
1.42912e-05
1.49327e-05
1.55375e-05
1.61438e-05
1.6746e-05
1.7336e-05
1.7905e-05
1.84547e-05
1.89785e-05
1.94782e-05
1.99495e-05
2.03968e-05
2.0816e-05
2.12101e-05
2.15847e-05
2.1933e-05
2.2284e-05
2.25028e-05
2.30776e-05
2.22218e-05
2.41966e-05
4.49127e-06
4.65668e-06
4.7975e-06
5.00187e-06
5.25975e-06
5.55467e-06
5.87887e-06
6.22754e-06
6.60191e-06
6.99811e-06
7.41283e-06
7.8447e-06
8.28314e-06
8.74219e-06
9.2304e-06
9.7304e-06
1.0246e-05
1.07729e-05
1.13084e-05
1.18272e-05
1.23633e-05
1.29049e-05
1.34127e-05
1.3915e-05
1.44137e-05
1.49002e-05
1.53648e-05
1.58069e-05
1.62262e-05
1.66241e-05
1.69995e-05
1.7355e-05
1.76893e-05
1.80033e-05
1.83032e-05
1.85827e-05
1.88676e-05
1.90396e-05
1.95295e-05
1.87567e-05
2.05937e-05
3.73942e-06
3.88492e-06
4.02201e-06
4.21201e-06
4.44502e-06
4.71347e-06
5.00407e-06
5.31862e-06
5.6512e-06
6.00608e-06
6.37386e-06
6.75918e-06
7.14762e-06
7.55178e-06
7.97452e-06
8.40946e-06
8.85241e-06
9.30626e-06
9.76577e-06
1.02114e-05
1.06683e-05
1.11277e-05
1.1557e-05
1.1979e-05
1.23929e-05
1.2794e-05
1.31759e-05
1.35395e-05
1.38839e-05
1.42115e-05
1.45215e-05
1.4816e-05
1.50931e-05
1.53546e-05
1.56061e-05
1.5842e-05
1.60844e-05
1.6231e-05
1.66566e-05
1.59742e-05
1.76964e-05
3.10192e-06
3.23135e-06
3.36333e-06
3.53773e-06
3.74941e-06
3.99124e-06
4.25329e-06
4.5332e-06
4.83023e-06
5.14431e-06
5.47142e-06
5.81049e-06
6.15568e-06
6.50991e-06
6.87791e-06
7.25309e-06
7.6346e-06
8.02239e-06
8.41624e-06
8.79727e-06
9.18785e-06
9.57438e-06
9.9348e-06
1.0285e-05
1.06285e-05
1.09591e-05
1.12742e-05
1.15727e-05
1.18562e-05
1.21245e-05
1.23793e-05
1.26208e-05
1.28497e-05
1.30664e-05
1.3277e-05
1.34753e-05
1.36826e-05
1.38093e-05
1.41809e-05
1.35771e-05
1.5201e-05
2.56138e-06
2.67738e-06
2.80395e-06
2.96502e-06
3.15755e-06
3.37407e-06
3.60923e-06
3.85794e-06
4.12219e-06
4.39871e-06
4.68778e-06
4.98495e-06
5.28905e-06
5.59623e-06
5.91375e-06
6.23652e-06
6.56304e-06
6.89249e-06
7.22787e-06
7.55065e-06
7.87971e-06
8.20524e-06
8.51098e-06
8.80556e-06
9.09289e-06
9.36893e-06
9.63301e-06
9.88367e-06
1.0123e-05
1.03511e-05
1.05696e-05
1.07788e-05
1.09793e-05
1.11715e-05
1.13607e-05
1.15413e-05
1.17317e-05
1.1855e-05
1.21923e-05
1.16801e-05
1.32177e-05
2.10108e-06
2.20628e-06
2.32768e-06
2.4773e-06
2.65195e-06
2.84835e-06
3.05891e-06
3.28076e-06
3.51338e-06
3.7572e-06
4.01027e-06
4.27091e-06
4.53728e-06
4.80713e-06
5.08318e-06
5.36342e-06
5.64394e-06
5.92623e-06
6.21115e-06
6.48788e-06
6.76969e-06
7.04736e-06
7.30683e-06
7.55637e-06
7.79889e-06
8.0325e-06
8.25564e-06
8.46807e-06
8.67099e-06
8.86501e-06
9.05131e-06
9.23124e-06
9.40501e-06
9.57302e-06
9.73932e-06
9.90027e-06
1.00701e-05
1.01853e-05
1.04843e-05
1.00555e-05
1.15011e-05
1.70799e-06
1.80393e-06
1.91916e-06
2.0582e-06
2.21893e-06
2.39596e-06
2.58608e-06
2.78407e-06
2.99121e-06
3.20526e-06
3.42724e-06
3.65354e-06
3.88451e-06
4.11461e-06
4.34904e-06
4.58824e-06
4.82751e-06
5.06705e-06
5.30839e-06
5.54135e-06
5.77645e-06
6.00828e-06
6.22701e-06
6.43774e-06
6.64314e-06
6.84242e-06
7.03471e-06
7.21968e-06
7.39852e-06
7.57206e-06
7.74133e-06
7.90724e-06
8.07012e-06
8.23026e-06
8.39066e-06
8.54796e-06
8.71471e-06
8.83618e-06
9.11737e-06
8.76441e-06
1.01311e-05
1.37853e-06
1.46822e-06
1.57829e-06
1.70691e-06
1.85135e-06
2.01076e-06
2.18051e-06
2.35692e-06
2.53988e-06
2.72932e-06
2.92504e-06
3.12593e-06
3.33165e-06
3.53958e-06
3.75036e-06
3.96297e-06
4.17166e-06
4.37987e-06
4.58936e-06
4.79444e-06
5.00221e-06
5.2073e-06
5.40036e-06
5.58567e-06
5.76612e-06
5.9419e-06
6.11148e-06
6.27491e-06
6.43275e-06
6.58651e-06
6.7369e-06
6.88552e-06
7.03224e-06
7.17833e-06
7.32624e-06
7.4745e-06
7.63083e-06
7.75289e-06
8.0084e-06
7.74186e-06
9.0333e-06
1.11148e-06
1.20193e-06
1.31044e-06
1.43179e-06
1.56342e-06
1.7044e-06
1.85134e-06
2.00421e-06
2.16181e-06
2.32542e-06
2.49276e-06
2.66265e-06
2.83256e-06
3.00044e-06
3.16967e-06
3.3448e-06
3.51955e-06
3.6931e-06
3.86497e-06
4.03127e-06
4.19744e-06
4.36252e-06
4.52144e-06
4.67654e-06
4.82881e-06
4.97921e-06
5.12747e-06
5.27408e-06
5.419e-06
5.56313e-06
5.70693e-06
5.85126e-06
5.99577e-06
6.14084e-06
6.28847e-06
6.43655e-06
6.59308e-06
6.71874e-06
6.96254e-06
6.7375e-06
7.95367e-06
8.80213e-07
9.73155e-07
1.08435e-06
1.20544e-06
1.33256e-06
1.46385e-06
1.59692e-06
1.7309e-06
1.86668e-06
2.00693e-06
2.15323e-06
2.3068e-06
2.46747e-06
2.63366e-06
2.80174e-06
2.96708e-06
3.12889e-06
3.29118e-06
3.45601e-06
3.61982e-06
3.78523e-06
3.94784e-06
4.1035e-06
4.2536e-06
4.39998e-06
4.54364e-06
4.68449e-06
4.82316e-06
4.96075e-06
5.09849e-06
5.23693e-06
5.3773e-06
5.52011e-06
5.66639e-06
5.81783e-06
5.97406e-06
6.1397e-06
6.28778e-06
6.53248e-06
6.41114e-06
7.59079e-06
6.42479e-07
7.23987e-07
8.28416e-07
9.45132e-07
1.0698e-06
1.19963e-06
1.3322e-06
1.46454e-06
1.59586e-06
1.72483e-06
1.85074e-06
1.97175e-06
2.08778e-06
2.19753e-06
2.30591e-06
2.41909e-06
2.5339e-06
2.64635e-06
2.75847e-06
2.86978e-06
2.98464e-06
3.10283e-06
3.22114e-06
3.33948e-06
3.45857e-06
3.57928e-06
3.70172e-06
3.82604e-06
3.95222e-06
4.08076e-06
4.21194e-06
4.34603e-06
4.48272e-06
4.62203e-06
4.76498e-06
4.90962e-06
5.0621e-06
5.19384e-06
5.41361e-06
5.28233e-06
6.35957e-06
4.40064e-07
5.19857e-07
6.23994e-07
7.34573e-07
8.46037e-07
9.57645e-07
1.06958e-06
1.18236e-06
1.29809e-06
1.41922e-06
1.54789e-06
1.68586e-06
1.8341e-06
1.99256e-06
2.16004e-06
2.32875e-06
2.49436e-06
2.65808e-06
2.81931e-06
2.97594e-06
3.12905e-06
3.27775e-06
3.42063e-06
3.55825e-06
3.69256e-06
3.82493e-06
3.95636e-06
4.08818e-06
4.22209e-06
4.3597e-06
4.50242e-06
4.65193e-06
4.80923e-06
4.97546e-06
5.15237e-06
5.34071e-06
5.54258e-06
5.7422e-06
6.01696e-06
6.03412e-06
7.18175e-06
4.23273e-07
5.34083e-07
6.40186e-07
7.3916e-07
8.35868e-07
9.37379e-07
1.04445e-06
1.15485e-06
1.26278e-06
1.36255e-06
1.44834e-06
1.51544e-06
1.56243e-06
1.59002e-06
1.60011e-06
1.60279e-06
1.61254e-06
1.63668e-06
1.67832e-06
1.73446e-06
1.80284e-06
1.87951e-06
1.96288e-06
2.05079e-06
2.14236e-06
2.23719e-06
2.33515e-06
2.43586e-06
2.5395e-06
2.64612e-06
2.75596e-06
2.86902e-06
2.98587e-06
3.10643e-06
3.23115e-06
3.35862e-06
3.49439e-06
3.61921e-06
3.80791e-06
3.74725e-06
4.64314e-06
8.45167e-07
1.23431e-06
1.59086e-06
1.88658e-06
2.11222e-06
2.26701e-06
2.35876e-06
2.39975e-06
2.40633e-06
2.39582e-06
2.38479e-06
2.38664e-06
2.40986e-06
2.45658e-06
2.52685e-06
2.62322e-06
2.7372e-06
2.85418e-06
2.9687e-06
3.07881e-06
3.18231e-06
3.28274e-06
3.37578e-06
3.46359e-06
3.54825e-06
3.6312e-06
3.71402e-06
3.79881e-06
3.88785e-06
3.98332e-06
4.08742e-06
4.20224e-06
4.32972e-06
4.47179e-06
4.63092e-06
4.80865e-06
5.00829e-06
5.21708e-06
5.50648e-06
5.55839e-06
6.79602e-06
0.933929
1.15346
1.44795
1.7795
1.22756
0.291199
0.0868999
0.0147673
0.00285637
0.00204498
0.00191323
0.00189284
0.00182273
0.00171356
0.00160571
0.00146595
0.0013368
0.00120399
0.00108499
0.000970102
0.000870396
0.000785314
0.000711549
0.000647161
0.000590454
0.00053951
0.00049411
0.000452067
0.000407639
0.000357123
0.000306719
0.000261821
0.000223283
0.00019011
0.000160608
0.000134509
0.000111832
9.24177e-05
7.56759e-05
6.15343e-05
4.99041e-05
4.03762e-05
3.30938e-05
2.79557e-05
2.55507e-05
2.40216e-05
2.41266e-05
2.47001e-05
2.52581e-05
2.5398e-05
2.58162e-05
2.53483e-05
2.49509e-05
2.4142e-05
2.29503e-05
2.22428e-05
2.07269e-05
1.96675e-05
1.8174e-05
1.70867e-05
1.56708e-05
1.47268e-05
1.35775e-05
1.25724e-05
1.17421e-05
1.08559e-05
1.02194e-05
9.53528e-06
8.99309e-06
8.44892e-06
8.09571e-06
7.59509e-06
7.35636e-06
6.93844e-06
1.07914
1.45184
1.71483
2.05984
2.04762
0.712433
0.181898
0.0426925
0.00531734
0.00218678
0.00193881
0.00182978
0.00172366
0.0015941
0.00148553
0.00135264
0.00123422
0.00111376
0.00100414
0.000901104
0.000813902
0.000733152
0.000656569
0.000593328
0.000532835
0.000486437
0.000438853
0.000401272
0.000366676
0.000330142
0.000289956
0.000248237
0.000209882
0.000177809
0.000150711
0.000126978
0.000106126
8.80963e-05
7.25107e-05
5.94583e-05
4.86273e-05
3.97864e-05
3.30623e-05
2.80371e-05
2.55891e-05
2.37197e-05
2.33529e-05
2.3558e-05
2.38198e-05
2.3633e-05
2.39279e-05
2.33863e-05
2.2988e-05
2.22253e-05
2.10884e-05
2.04906e-05
1.911e-05
1.81929e-05
1.6817e-05
1.5885e-05
1.4598e-05
1.37655e-05
1.27617e-05
1.18356e-05
1.1114e-05
1.03078e-05
9.73673e-06
9.12372e-06
8.63356e-06
8.12685e-06
7.82801e-06
7.33344e-06
7.15736e-06
6.70337e-06
1.60729
1.93488
2.03801
2.2339
2.62455
1.55353
0.29523
0.125311
0.0178011
0.00270606
0.00206131
0.0018441
0.00167369
0.00151435
0.00138371
0.00125132
0.00113525
0.00102369
0.000921771
0.000831365
0.000751754
0.000669672
0.000594783
0.000538086
0.000490634
0.000447481
0.000407952
0.000359
0.000316733
0.000286698
0.000260402
0.000231544
0.000199517
0.000169023
0.000142791
0.000120673
0.0001019
8.5626e-05
7.14986e-05
5.94368e-05
4.95619e-05
4.15901e-05
3.51036e-05
3.05308e-05
2.73231e-05
2.51863e-05
2.42969e-05
2.33969e-05
2.31075e-05
2.26555e-05
2.2434e-05
2.17705e-05
2.12326e-05
2.04823e-05
1.94898e-05
1.8663e-05
1.75585e-05
1.6666e-05
1.54919e-05
1.46157e-05
1.35374e-05
1.27087e-05
1.18857e-05
1.10633e-05
1.04123e-05
9.7196e-06
9.18257e-06
8.65638e-06
8.22227e-06
7.75776e-06
7.50646e-06
7.02445e-06
6.91159e-06
6.42849e-06
1.96539
2.41783
2.50378
2.48726
2.86614
2.45924
0.637868
0.278557
0.0638598
0.00600436
0.00213237
0.00191445
0.00167293
0.00147348
0.00131454
0.00117597
0.00105695
0.000949759
0.000855109
0.00077301
0.000691553
0.000610048
0.000554344
0.000504276
0.000490635
0.000466884
0.000416686
0.000363884
0.000308043
0.000257743
0.000226122
0.000205388
0.000185098
0.0001622
0.000138475
0.000116902
9.89587e-05
8.39583e-05
7.11414e-05
6.01155e-05
5.10119e-05
4.35723e-05
3.73076e-05
3.28768e-05
2.91839e-05
2.66979e-05
2.52437e-05
2.35807e-05
2.27215e-05
2.1951e-05
2.12496e-05
2.04072e-05
1.97058e-05
1.89208e-05
1.80195e-05
1.70407e-05
1.61292e-05
1.52627e-05
1.42626e-05
1.34354e-05
1.25298e-05
1.1734e-05
1.10503e-05
1.03304e-05
9.74441e-06
9.15069e-06
8.65652e-06
8.20053e-06
7.82002e-06
7.39479e-06
7.18851e-06
6.71567e-06
6.66159e-06
6.15387e-06
2.52443
3.09861
3.15698
2.87105
3.02936
3.1059
1.47647
0.420982
0.193109
0.0246739
0.00246989
0.00194387
0.00170749
0.00146176
0.00127272
0.0011236
0.000998104
0.000892793
0.000803917
0.000723324
0.00063639
0.000566104
0.00053001
0.000510828
0.000510779
0.000481858
0.000454495
0.000416593
0.000349609
0.000283544
0.000225465
0.000186337
0.000164367
0.000148945
0.000132875
0.000115267
9.82417e-05
8.33563e-05
7.09846e-05
6.0856e-05
5.23801e-05
4.52876e-05
3.9315e-05
3.47069e-05
3.08738e-05
2.79602e-05
2.5927e-05
2.39061e-05
2.25547e-05
2.13777e-05
2.03221e-05
1.92636e-05
1.83981e-05
1.75394e-05
1.66378e-05
1.56402e-05
1.48272e-05
1.40025e-05
1.31303e-05
1.23634e-05
1.15823e-05
1.08546e-05
1.02752e-05
9.64656e-06
9.12613e-06
8.61379e-06
8.17005e-06
7.77091e-06
7.43937e-06
7.04971e-06
6.88624e-06
6.41972e-06
6.41866e-06
5.88919e-06
3.23073
3.87936
3.92906
3.44633
3.24868
3.4612
2.51387
0.605692
0.427697
0.0938895
0.00781447
0.00185382
0.00175714
0.00148045
0.00125436
0.00109038
0.000956417
0.000850996
0.000763862
0.000679019
0.000592652
0.000542705
0.000522829
0.000526152
0.000484792
0.000408992
0.000375512
0.000345312
0.000347131
0.00032109
0.000267928
0.000208836
0.000163574
0.000136759
0.000121986
0.000110381
9.78711e-05
8.46652e-05
7.2448e-05
6.23067e-05
5.39702e-05
4.71462e-05
4.14568e-05
3.67509e-05
3.27756e-05
2.94612e-05
2.69416e-05
2.45727e-05
2.27897e-05
2.11764e-05
1.98019e-05
1.84866e-05
1.74273e-05
1.64464e-05
1.54848e-05
1.44764e-05
1.36992e-05
1.29044e-05
1.21204e-05
1.14085e-05
1.07194e-05
1.00663e-05
9.56943e-06
9.017e-06
8.5582e-06
8.11437e-06
7.72217e-06
7.37216e-06
7.08468e-06
6.72663e-06
6.6038e-06
6.14246e-06
6.18898e-06
5.64162e-06
4.04785
4.71342
4.74117
4.19578
3.62239
3.70209
3.39208
1.33737
0.652299
0.279666
0.0371341
0.0025261
0.00172136
0.00154646
0.00126706
0.00107605
0.000931551
0.0008229
0.000731358
0.000640684
0.00056743
0.000541731
0.000527829
0.000502416
0.000345398
0.000270971
0.000195019
0.000187573
0.000201582
0.00024537
0.00027062
0.000246299
0.000199346
0.000151608
0.00012007
0.0001028
9.28986e-05
8.42192e-05
7.48711e-05
6.54e-05
5.67363e-05
4.96011e-05
4.38349e-05
3.91307e-05
3.50244e-05
3.14343e-05
2.85369e-05
2.5751e-05
2.35372e-05
2.1519e-05
1.97984e-05
1.81979e-05
1.68943e-05
1.57402e-05
1.46717e-05
1.3589e-05
1.27936e-05
1.19956e-05
1.12612e-05
1.05828e-05
9.9607e-06
9.36721e-06
8.93487e-06
8.445e-06
8.03844e-06
7.65303e-06
7.30856e-06
7.00197e-06
6.75433e-06
6.42398e-06
6.33897e-06
5.88305e-06
5.97194e-06
5.41229e-06
4.92488
5.5316
5.52448
4.99938
4.20817
3.96574
4.00441
2.50442
0.739811
0.597801
0.140577
0.0126399
0.00146411
0.00157096
0.0013256
0.00108616
0.000923995
0.000807213
0.000705293
0.000613591
0.000563795
0.000555986
0.000510091
0.000382873
0.000156516
5.77684e-05
5.71942e-05
6.97884e-05
2.06122e-05
8.44683e-05
0.000135626
0.000192425
0.000215715
0.000193376
0.00015146
0.000114277
9.20768e-05
8.03498e-05
7.33706e-05
6.72047e-05
6.02904e-05
5.33248e-05
4.70519e-05
4.19033e-05
3.74647e-05
3.36777e-05
3.05319e-05
2.74262e-05
2.47935e-05
2.2411e-05
2.03108e-05
1.8417e-05
1.68232e-05
1.54577e-05
1.42288e-05
1.3015e-05
1.2145e-05
1.12964e-05
1.05733e-05
9.89503e-06
9.31478e-06
8.75785e-06
8.37097e-06
7.9321e-06
7.56579e-06
7.22944e-06
6.92624e-06
6.65714e-06
6.44517e-06
6.13916e-06
6.08839e-06
5.63826e-06
5.76453e-06
5.19794e-06
5.79113
6.27374
6.23814
5.75781
4.93305
4.32738
4.40795
3.65419
1.23659
0.874086
0.39202
0.0607576
0.00399057
0.00137903
0.00137605
0.00112969
0.000936402
0.000802847
0.000687953
0.000603004
0.000575617
0.000556646
0.000431928
0.000196707
3.50563e-05
1.00979e-05
2.6465e-05
1.67212e-05
1.27411e-06
6.91499e-06
9.44798e-06
4.47159e-05
0.00010472
0.000155004
0.000170229
0.000149201
0.000116033
8.88302e-05
7.31627e-05
6.50964e-05
6.01804e-05
5.58364e-05
5.08501e-05
4.56728e-05
4.06406e-05
3.62948e-05
3.27245e-05
2.93623e-05
2.64257e-05
2.37667e-05
2.13121e-05
1.91124e-05
1.72021e-05
1.55875e-05
1.41562e-05
1.27703e-05
1.17754e-05
1.08289e-05
1.00741e-05
9.36064e-06
8.79153e-06
8.2456e-06
7.88262e-06
7.48173e-06
7.14294e-06
6.84574e-06
6.57582e-06
6.33784e-06
6.15692e-06
5.87229e-06
5.8512e-06
5.40741e-06
5.56586e-06
4.99593e-06
6.48212
6.79371
6.77432
6.38128
5.64394
4.82843
4.67592
4.49598
2.41552
0.827124
0.77384
0.213018
0.025397
0.00182553
0.00127972
0.00119041
0.000975351
0.000811578
0.00068379