/*--------------------------------*- C++ -*----------------------------------*\
| =========                 |                                                 |
| \\      /  F ield         | OpenFOAM: The Open Source CFD Toolbox           |
|  \\    /   O peration     | Version:  2312                                  |
|   \\  /    A nd           | Website:  www.openfoam.com                      |
|    \\/     M anipulation  |                                                 |
\*---------------------------------------------------------------------------*/
FoamFile
{
    version     2.0;
    format      ascii;
    arch        "LSB;label=32;scalar=64";
    class       volVectorField;
    location    "200";
    object      U;
}
// * * * * * * * * * * * * * * * * * * * * * * * * * * * * * * * * * * * * * //

dimensions      [0 1 -1 0 0 0 0];

internalField   nonuniform List<vector> 
11040
(
(0.227596 7.32479 -6.4709e-20)
(1.594 7.0135 -1.43666e-18)
(1.62128 3.66005 -9.80787e-18)
(0.0933068 -0.0893667 -6.88304e-18)
(-1.00691 -0.74611 -5.56441e-18)
(-1.0458 -0.501794 -1.76729e-17)
(-1.09637 -0.490692 2.72554e-17)
(-1.09979 -0.436907 1.83503e-17)
(-1.057 -0.380852 3.52972e-18)
(-0.996639 -0.342136 1.00904e-18)
(-0.904042 -0.308187 -1.72955e-17)
(-0.795442 -0.281995 2.7285e-18)
(-0.678912 -0.244715 7.85761e-18)
(-0.595469 -0.185526 6.91678e-18)
(-0.586416 -0.104301 -6.67417e-18)
(-0.681475 -0.0213503 1.07886e-17)
(-0.863993 0.0318416 4.40837e-18)
(-1.03879 0.0320362 -1.02824e-17)
(-1.05319 -0.0151479 -2.84361e-19)
(-0.816045 -0.0858301 1.55634e-18)
(-0.311214 -0.145248 -1.76086e-18)
(0.420088 -0.179485 -4.73915e-18)
(1.10313 -0.164522 3.74361e-18)
(1.55782 -0.139035 -3.81144e-18)
(1.69376 -0.126943 4.33098e-18)
(1.49165 -0.120314 8.66626e-18)
(1.10465 -0.121085 4.4242e-18)
(0.77055 -0.0912643 5.39187e-18)
(-0.166604 0.104428 6.11247e-18)
(-1.23925 0.238279 5.56291e-18)
(-1.6494 0.203335 -8.36742e-18)
(-1.60231 0.144802 -5.80431e-18)
(-1.30633 0.0673624 -1.56189e-17)
(-0.851283 -0.0274902 -8.13121e-18)
(-0.254678 -0.141842 6.86321e-19)
(0.466224 -0.259331 -6.24328e-18)
(1.29897 -0.398806 9.1637e-20)
(2.16457 -0.544608 -1.43524e-18)
(2.99685 -0.700768 1.86746e-18)
(3.82467 -0.843154 1.61871e-18)
(4.00367 -0.978693 -7.05218e-19)
(1.8205 6.24146 2.55773e-20)
(3.94964 7.08346 7.43616e-21)
(4.51268 6.42991 4.72042e-18)
(3.46367 4.09961 3.79442e-19)
(1.61077 1.5479 -2.15499e-19)
(-0.110207 -0.0797882 5.5269e-18)
(-0.602689 -0.243449 -1.04632e-18)
(-0.811753 -0.274098 -1.22044e-17)
(-0.861822 -0.24443 5.08894e-19)
(-0.876009 -0.219857 -3.43676e-18)
(-0.832033 -0.193316 5.18717e-18)
(-0.753643 -0.181498 -1.91567e-17)
(-0.647778 -0.185081 -1.49545e-18)
(-0.565749 -0.186297 -1.39998e-17)
(-0.561692 -0.1558 6.09341e-18)
(-0.673427 -0.0848343 -2.24986e-18)
(-0.85597 -0.000276939 -3.24021e-18)
(-0.996657 0.0533597 -3.10729e-18)
(-0.985387 0.0558765 -3.65433e-19)
(-0.725595 -0.00282196 2.04968e-19)
(-0.174916 -0.0975184 5.75143e-19)
(0.576555 -0.192647 1.28848e-18)
(1.23524 -0.212224 -1.8836e-18)
(1.66197 -0.183003 -4.8809e-19)
(1.83979 -0.144296 -6.94302e-19)
(1.77879 -0.107134 1.48109e-18)
(1.47053 -0.0803735 9.33103e-19)
(0.957702 -0.00398389 -5.44624e-18)
(-0.459083 0.240116 -4.70074e-19)
(-1.38218 0.333376 2.78357e-18)
(-1.52554 0.248379 3.42845e-18)
(-1.38871 0.170746 6.23366e-18)
(-1.0453 0.0769922 4.41119e-18)
(-0.541809 -0.0382307 1.86216e-18)
(0.106681 -0.187746 -6.58629e-19)
(0.866925 -0.349049 1.63314e-18)
(1.69759 -0.528722 -8.63869e-19)
(2.57255 -0.709145 4.95012e-19)
(3.42698 -0.893938 -1.85876e-19)
(4.27502 -1.04029 -3.15657e-19)
(4.69047 -1.05905 9.30435e-19)
(2.33447 5.81007 -1.63572e-20)
(3.75992 6.31317 7.38936e-19)
(4.96451 6.66323 -1.53443e-18)
(5.32976 6.18355 -2.10681e-18)
(4.51531 4.55653 1.29268e-19)
(2.81498 2.42237 -1.44197e-18)
(1.03434 0.708196 -4.93814e-18)
(-0.0608089 -0.00875956 -8.2331e-18)
(-0.396611 -0.116795 6.17385e-18)
(-0.569552 -0.151291 2.50813e-19)
(-0.626464 -0.150105 2.99373e-18)
(-0.617899 -0.138373 9.6294e-18)
(-0.554851 -0.135166 -7.33707e-18)
(-0.484225 -0.140423 8.13119e-18)
(-0.466365 -0.132312 -4.77799e-18)
(-0.555987 -0.0903593 -1.93058e-18)
(-0.72701 -0.0231574 8.41282e-19)
(-0.87957 0.0283566 1.1246e-18)
(-0.893784 0.0329815 4.82391e-20)
(-0.660572 -0.0310686 -5.43272e-20)
(-0.139221 -0.144467 -1.10252e-18)
(0.582144 -0.261635 -7.56848e-19)
(1.22093 -0.278722 1.47558e-19)
(1.63331 -0.223017 -1.2206e-19)
(1.79387 -0.149351 1.29958e-18)
(1.73096 -0.0754778 -2.91769e-18)
(1.42231 0.00457496 -2.04106e-18)
(0.783008 0.171198 2.8481e-18)
(-0.637825 0.408306 7.35019e-19)
(-1.271 0.381981 -4.04921e-19)
(-1.37071 0.231131 -2.7118e-18)
(-1.22178 0.115061 1.01614e-18)
(-0.865144 -0.00629236 -1.96924e-18)
(-0.348669 -0.142772 -2.18083e-18)
(0.306752 -0.3147 3.38858e-19)
(1.06726 -0.496299 6.85279e-19)
(1.89601 -0.694099 7.02081e-19)
(2.7722 -0.885529 -5.96079e-19)
(3.63587 -1.07711 -1.16066e-19)
(4.49264 -1.20592 -2.04566e-19)
(5.02517 -1.2548 -5.63033e-19)
(2.77768 5.29513 -8.05753e-20)
(3.65811 5.87756 -1.52309e-19)
(4.54133 6.18874 7.10927e-19)
(5.41701 6.37276 1.5793e-18)
(5.78639 6.01168 -1.75012e-19)
(5.23424 4.80969 -1.28461e-18)
(3.81127 3.04706 6.06956e-19)
(2.07466 1.39116 1.599e-18)
(0.715314 0.378235 -2.32331e-18)
(0.0552416 0.0428566 3.82063e-18)
(-0.227476 -0.0509426 -8.89447e-18)
(-0.357239 -0.0823626 1.09114e-18)
(-0.385405 -0.093558 1.06674e-18)
(-0.354737 -0.0974398 -6.71047e-18)
(-0.332728 -0.0913916 -3.01048e-18)
(-0.400211 -0.0629802 1.68329e-18)
(-0.565786 -0.0132373 2.86449e-18)
(-0.74236 0.0246885 1.26293e-18)
(-0.800589 0.0149829 -7.32368e-20)
(-0.622781 -0.0724134 5.67448e-20)
(-0.165963 -0.216779 2.83399e-19)
(0.502073 -0.356036 6.90594e-19)
(1.11942 -0.363531 2.25378e-19)
(1.52432 -0.2711 4.72229e-19)
(1.67714 -0.152024 9.02388e-19)
(1.59156 -0.0295992 4.03575e-18)
(1.23536 0.122412 -2.81518e-19)
(0.487709 0.387324 -4.55783e-19)
(-0.733836 0.58705 -1.62935e-18)
(-1.16257 0.430611 -1.36678e-18)
(-1.24215 0.215544 1.96784e-18)
(-1.0857 0.0504409 -1.45365e-18)
(-0.730643 -0.10835 3.36111e-18)
(-0.218734 -0.275053 7.23253e-19)
(0.426062 -0.472538 4.51474e-19)
(1.17262 -0.674802 1.27622e-19)
(1.98811 -0.88836 7.04805e-21)
(2.85344 -1.08927 -8.34155e-20)
(3.71525 -1.2834 1.59685e-19)
(4.57156 -1.39991 -2.86913e-19)
(5.19275 -1.44249 1.18696e-19)
(3.21276 4.8508 2.46141e-19)
(3.84696 5.38148 -3.54984e-19)
(4.47928 5.67883 -4.53647e-19)
(5.12811 5.8649 -1.18198e-18)
(5.78327 6.01083 1.16231e-18)
(6.1334 5.81009 -6.96684e-20)
(5.78355 4.95705 2.65066e-19)
(4.64623 3.53857 1.0592e-18)
(3.06242 2.00635 -3.70709e-19)
(1.58959 0.84805 -9.94303e-19)
(0.636337 0.266168 -2.25486e-18)
(0.167751 0.0658142 -2.29581e-20)
(-0.0554823 -0.0115905 -9.57231e-20)
(-0.13412 -0.0444675 4.83826e-18)
(-0.149744 -0.0480119 2.55224e-18)
(-0.206157 -0.0247362 8.50332e-20)
(-0.364717 0.0167423 -1.27693e-18)
(-0.567436 0.0446575 1.30887e-18)
(-0.684648 0.0170265 -1.75899e-19)
(-0.587599 -0.104162 3.3623e-19)
(-0.222147 -0.293292 -5.78379e-19)
(0.366574 -0.465087 -5.30487e-20)
(0.9543 -0.46676 5.85829e-19)
(1.35412 -0.331895 -7.09372e-19)
(1.50579 -0.15482 -1.95708e-18)
(1.39855 0.0343637 -9.70619e-19)
(0.982773 0.274201 1.8959e-19)
(0.169603 0.622587 -1.36415e-18)
(-0.776038 0.748947 3.2067e-20)
(-1.06302 0.479606 1.27348e-18)
(-1.11843 0.201374 -1.03493e-18)
(-0.960541 -0.0195648 1.88799e-19)
(-0.616943 -0.222164 -2.33307e-18)
(-0.121962 -0.425648 -9.81586e-19)
(0.500664 -0.651864 -4.40991e-19)
(1.22267 -0.87785 -2.68441e-19)
(2.01502 -1.10805 1.64834e-19)
(2.85963 -1.32022 -4.03084e-20)
(3.71189 -1.51628 1.14919e-19)
(4.56231 -1.6238 3.58731e-19)
(5.25826 -1.65161 -3.47765e-19)
(3.60027 4.49601 -2.3181e-19)
(4.0204 4.9411 7.55217e-19)
(4.4927 5.28176 -8.15208e-20)
(4.98139 5.45871 4.38241e-19)
(5.49159 5.56669 -3.49442e-19)
(6.01879 5.67748 1.58418e-19)
(6.36444 5.59537 3.814e-19)
(6.19608 5.02708 -5.55283e-21)
(5.34262 3.92094 -4.87651e-20)
(3.97052 2.55741 1.33655e-18)
(2.50156 1.35206 1.66501e-18)
(1.33843 0.577005 -1.24554e-18)
(0.641247 0.217958 -1.11831e-18)
(0.293648 0.0750293 6.13498e-18)
(0.141551 0.0226872 -5.1367e-18)
(0.051884 0.0262905 1.957e-18)
(-0.105374 0.0612861 1.46982e-19)
(-0.331838 0.0852057 3.77389e-19)
(-0.513891 0.0449008 4.14762e-19)
(-0.518826 -0.112629 -1.89826e-19)
(-0.269797 -0.359964 -3.13624e-19)
(0.208337 -0.580396 1.71062e-19)
(0.744816 -0.589304 -2.70395e-19)
(1.13604 -0.410202 -2.10259e-19)
(1.29047 -0.161342 1.90679e-18)
(1.16362 0.117619 -1.23731e-18)
(0.689157 0.462195 -2.716e-19)
(-0.115098 0.861504 1.68644e-18)
(-0.773085 0.883136 1.26712e-18)
(-0.956786 0.525096 -6.45593e-19)
(-0.984788 0.185415 -5.65934e-19)
(-0.830397 -0.0960518 -1.56486e-19)
(-0.506064 -0.348156 1.11488e-18)
(-0.0379435 -0.594499 9.83908e-19)
(0.552831 -0.854045 2.20683e-19)
(1.24061 -1.10813 -2.27725e-19)
(2.00044 -1.35765 5.81635e-21)
(2.81512 -1.58394 -1.73428e-19)
(3.65034 -1.78344 -3.00799e-19)
(4.48847 -1.88828 -2.44814e-20)
(5.24313 -1.90309 3.74502e-19)
(3.94021 4.2075 -4.48002e-20)
(4.23918 4.57424 1.72965e-19)
(4.56892 4.89029 -2.09494e-19)
(4.94368 5.11893 2.23033e-19)
(5.33704 5.2267 1.72338e-19)
(5.74183 5.27883 -6.09393e-19)
(6.16867 5.3603 1.7751e-19)
(6.50475 5.36373 -1.46464e-19)
(6.48592 5.02561 -9.71938e-19)
(5.89678 4.20555 -8.21707e-21)
(4.77039 3.04272 -2.16924e-18)
(3.38418 1.85977 2.43932e-18)
(2.10731 0.95235 -2.52262e-18)
(1.20321 0.428855 -4.07668e-19)
(0.698917 0.197112 2.26808e-18)
(0.445305 0.1248 -8.37096e-19)
(0.246005 0.1313 3.00025e-18)
(-0.00549964 0.148591 -1.12425e-18)
(-0.251085 0.10401 2.40777e-19)
(-0.371277 -0.0818257 -1.53892e-19)
(-0.26363 -0.395295 1.23475e-19)
(0.0709418 -0.685451 -1.45547e-19)
(0.51743 -0.727842 6.98275e-19)
(0.884734 -0.51092 -2.40515e-19)
(1.04002 -0.177037 -7.57204e-19)
(0.895613 0.220145 3.38075e-19)
(0.383554 0.679626 1.02753e-18)
(-0.320982 1.08369 -4.52665e-19)
(-0.723824 0.986498 2.64207e-20)
(-0.829206 0.564087 -3.69917e-19)
(-0.82936 0.165698 1.15115e-20)
(-0.682035 -0.179003 -5.98139e-19)
(-0.383485 -0.486599 1.01872e-20)
(0.0490791 -0.781835 2.30637e-19)
(0.598702 -1.08108 6.27794e-19)
(1.24251 -1.36858 -4.04191e-19)
(1.95983 -1.64256 -3.76392e-19)
(2.73487 -1.88704 2.49487e-19)
(3.54381 -2.09391 -1.3265e-19)
(4.36165 -2.20331 -4.84902e-21)
(5.15603 -2.21029 4.22937e-20)
(4.24495 3.97086 -9.43571e-21)
(4.46454 4.27348 -1.55944e-19)
(4.69943 4.54645 1.34641e-19)
(4.97185 4.7746 1.36382e-19)
(5.28032 4.93311 -1.07954e-19)
(5.59989 4.99816 -2.45342e-19)
(5.92135 5.01373 7.85487e-19)
(6.26373 5.0671 1.75321e-19)
(6.57714 5.1208 4.06731e-19)
(6.66752 4.96292 -7.5135e-19)
(6.31178 4.40226 6.7628e-19)
(5.4364 3.45549 7.7265e-19)
(4.19426 2.34951 -1.5567e-18)
(2.89551 1.37175 2.27278e-18)
(1.84136 0.706492 3.49936e-20)
(1.1679 0.373506 -8.14568e-19)
(0.772551 0.267893 -3.17994e-18)
(0.45168 0.249684 -2.55153e-19)
(0.143802 0.197368 -1.03905e-18)
(-0.0911968 0.00332934 3.49123e-18)
(-0.145975 -0.368034 -1.65009e-18)
(0.0126389 -0.750351 2.6259e-19)
(0.316908 -0.870001 4.41659e-19)
(0.625246 -0.639111 7.36215e-20)
(0.771991 -0.209972 2.1403e-19)
(0.618616 0.334271 9.11991e-20)
(0.115149 0.905232 4.18081e-19)
(-0.411974 1.25922 -2.11494e-19)
(-0.620586 1.05868 -8.61318e-19)
(-0.665896 0.592981 -2.82575e-19)
(-0.641027 0.140653 8.38907e-19)
(-0.503657 -0.267818 3.52611e-19)
(-0.236502 -0.63632 3.8943e-20)
(0.152467 -0.986692 -5.43035e-19)
(0.651426 -1.33266 -2.24435e-19)
(1.24092 -1.66032 1.16177e-19)
(1.90473 -1.96566 3.00962e-19)
(2.62927 -2.23465 -1.83277e-19)
(3.40016 -2.45536 8.37718e-20)
(4.18753 -2.57752 -2.93803e-19)
(4.9991 -2.58359 -2.4599e-20)
(4.51891 3.77503 -2.80102e-20)
(4.68546 4.02542 -2.07084e-19)
(4.85722 4.25772 5.55195e-19)
(5.05393 4.46314 -2.00445e-20)
(5.2827 4.63221 2.39737e-20)
(5.53675 4.74669 -6.07681e-20)
(5.79691 4.78689 -2.74076e-19)
(6.05298 4.77893 -2.87251e-19)
(6.32448 4.8032 9.30112e-21)
(6.60207 4.87604 -6.33923e-19)
(6.76116 4.84957 -2.07846e-19)
(6.5962 4.51453 4.90434e-19)
(5.9653 3.79286 2.81967e-19)
(4.91448 2.81337 -9.35247e-19)
(3.67312 1.82475 2.72887e-18)
(2.53594 1.05526 -1.34954e-18)
(1.70148 0.616154 1.46107e-18)
(1.14326 0.442113 -2.72218e-18)
(0.71662 0.34589 -1.0962e-19)
(0.375969 0.149197 1.12903e-18)
(0.15281 -0.248222 -1.24371e-18)
(0.111472 -0.73141 -1.22028e-19)
(0.219386 -0.98023 2.36922e-19)
(0.408598 -0.790126 -8.0232e-19)
(0.526793 -0.269147 -2.7278e-19)
(0.380534 0.439951 -6.28589e-19)
(-0.0462323 1.09785 -9.9088e-19)
(-0.371761 1.37044 3.48772e-19)
(-0.450475 1.1009 2.44313e-19)
(-0.450809 0.609465 8.37658e-19)
(-0.407207 0.110895 -3.41336e-19)
(-0.283093 -0.359877 2.3795e-19)
(-0.0526068 -0.792904 -2.58981e-19)
(0.285227 -1.20443 5.8706e-19)
(0.723294 -1.6038 -3.80371e-20)
(1.24703 -1.97947 1.05965e-19)
(1.84478 -2.3248 -5.7358e-19)
(2.50585 -2.62791 3.27997e-19)
(3.22371 -2.87363 -4.77998e-20)
(3.96723 -3.02041 1.56487e-19)
(4.77065 -3.03665 -2.38697e-19)
(4.76729 3.61044 -1.46628e-19)
(4.89629 3.82027 5.75126e-19)
(5.02527 4.01639 -1.91791e-19)
(5.1688 4.19513 -5.72563e-19)
(5.33664 4.35286 9.25448e-20)
(5.52788 4.48005 1.96693e-20)
(5.73643 4.5653 5.47194e-20)
(5.94811 4.59215 1.02255e-18)
(6.15294 4.5726 -1.2169e-18)
(6.36532 4.57159 -1.5801e-19)
(6.59877 4.63984 6.46927e-20)
(6.78985 4.69697 4.08546e-20)
(6.77038 4.54936 5.84429e-19)
(6.36697 4.05482 -1.89907e-19)
(5.53771 3.24426 9.73253e-19)
(4.42243 2.30448 -1.01386e-18)
(3.27296 1.47365 3.80903e-19)
(2.31136 0.920405 -3.47499e-19)
(1.60187 0.622209 7.87662e-19)
(1.08523 0.373809 7.9591e-19)
(0.698677 -0.0218751 3.36671e-19)
(0.450673 -0.57427 -8.85353e-19)
(0.332439 -0.990903 6.66983e-19)
(0.328481 -0.928154 3.45012e-19)
(0.37444 -0.360827 -1.27063e-18)
(0.250906 0.501254 7.18896e-19)
(-0.0420328 1.21337 7.06084e-19)
(-0.194972 1.41442 -7.40525e-19)
(-0.196354 1.11476 1.13023e-19)
(-0.166505 0.613374 -6.95946e-19)
(-0.113061 0.0781933 3.99125e-19)
(-0.00678613 -0.449335 -4.70709e-19)
(0.181581 -0.948392 -1.46143e-19)
(0.460818 -1.42524 4.94982e-20)
(0.827254 -1.88424 -2.49159e-19)
(1.27274 -2.31485 6.09353e-20)
(1.78994 -2.70961 1.49198e-19)
(2.37192 -3.05728 -2.61682e-19)
(3.01819 -3.34288 -7.15089e-20)
(3.70077 -3.53022 -4.13363e-19)
(4.46871 -3.57623 2.83683e-19)
(4.99265 3.47182 -1.47898e-19)
(5.09379 3.64953 -4.88004e-19)
(5.19305 3.81508 1.99455e-21)
(5.3 3.96804 3.13096e-20)
(5.42297 4.10787 2.57537e-19)
(5.56541 4.22986 -1.0154e-19)
(5.72425 4.32725 -1.65965e-19)
(5.89476 4.39338 -7.54376e-20)
(6.06688 4.41512 6.10468e-20)
(6.23134 4.39335 1.09686e-18)
(6.39627 4.37481 3.89771e-19)
(6.5851 4.42306 1.01454e-19)
(6.77863 4.51876 -7.95341e-19)
(6.85872 4.51352 1.64734e-18)
(6.65423 4.23469 -1.25562e-18)
(6.0626 3.62617 7.00162e-19)
(5.13361 2.79302 -8.86492e-19)
(4.04913 1.94546 -2.19792e-18)
(3.02221 1.27098 1.01289e-19)
(2.19091 0.787365 2.62449e-18)
(1.5718 0.331704 -1.8093e-18)
(1.10516 -0.241091 2.15572e-18)
(0.757909 -0.804906 -1.0349e-18)
(0.519478 -0.963541 1.28392e-19)
(0.417512 -0.466936 -1.29783e-19)
(0.305794 0.478326 -6.91586e-19)
(0.155758 1.22181 4.80413e-19)
(0.118807 1.39338 -4.05215e-19)
(0.157373 1.10196 3.16092e-19)
(0.202188 0.606162 2.38941e-19)
(0.25492 0.0471906 4.59825e-20)
(0.337146 -0.529167 2.13079e-19)
(0.47895 -1.0905 1.13662e-19)
(0.69182 -1.63278 -4.72788e-19)
(0.977126 -2.15407 -2.79147e-19)
(1.33187 -2.64615 1.82038e-19)
(1.75299 -3.09783 2.15827e-19)
(2.23788 -3.49987 1.96171e-20)
(2.7907 -3.83741 4.72642e-19)
(3.3895 -4.0819 3.10881e-19)
(4.0927 -4.18376 1.26761e-19)
(5.19687 3.35432 -1.67971e-19)
(5.27743 3.50629 7.09192e-20)
(5.35499 3.64702 5.28009e-19)
(5.43627 3.77717 -5.65347e-19)
(5.5274 3.89853 2.28804e-19)
(5.63255 4.00914 -9.53721e-20)
(5.75162 4.10474 4.83824e-20)
(5.88243 4.18141 -2.10542e-19)
(6.02139 4.23494 -9.30816e-19)
(6.16134 4.25571 1.22118e-18)
(6.29407 4.23833 -9.42936e-19)
(6.42365 4.20984 -2.71371e-19)
(6.57232 4.23104 -5.12906e-19)
(6.74801 4.32719 -3.01456e-19)
(6.88519 4.41217 6.54221e-19)
(6.84245 4.31932 -2.94072e-19)
(6.48849 3.92708 1.26681e-18)
(5.79395 3.25088 -1.10535e-18)
(4.85397 2.43625 -4.91729e-19)
(3.83982 1.65407 2.91511e-18)
(2.92202 0.966459 -1.67116e-18)
(2.18254 0.319402 -5.51428e-20)
(1.59183 -0.323733 4.48737e-19)
(1.10954 -0.749322 1.32365e-18)
(0.780386 -0.517796 -1.25762e-18)
(0.614916 0.3607 -2.24023e-19)
(0.553209 1.11764 -2.27952e-19)
(0.574251 1.31504 1.06706e-18)
(0.62487 1.06641 -5.00497e-19)
(0.667585 0.593448 -2.0491e-19)
(0.707088 0.0260036 6.89093e-19)
(0.757832 -0.586044 -5.64333e-19)
(0.845671 -1.20082 -2.69484e-19)
(0.984776 -1.80445 3.13298e-19)
(1.18105 -2.38902 2.30029e-19)
(1.43568 -2.9455 4.25073e-20)
(1.74759 -3.4601 -1.20164e-19)
(2.11791 -3.9238 -1.01856e-19)
(2.55416 -4.32256 -2.77839e-19)
(3.04031 -4.63468 2.91326e-19)
(3.64258 -4.81214 -2.17559e-20)
(5.38242 3.25473 2.70061e-19)
(5.4469 3.38589 -6.56855e-19)
(5.50836 3.50629 6.35552e-19)
(5.57098 3.61724 2.57539e-19)
(5.63968 3.72176 -3.70505e-19)
(5.71723 3.81927 -1.10863e-19)
(5.80581 3.9076 -1.85187e-19)
(5.90433 3.98384 1.48736e-19)
(6.01144 4.04547 1.55211e-19)
(6.12426 4.09014 5.77531e-20)
(6.23771 4.11137 -2.34786e-19)
(6.34597 4.10121 5.37581e-19)
(6.44951 4.07047 -5.96633e-20)
(6.56489 4.06573 6.30754e-19)
(6.71254 4.13574 -1.76033e-18)
(6.87061 4.25494 1.80994e-18)
(6.94383 4.29547 -5.13097e-19)
(6.80335 4.10433 -1.52674e-18)
(6.36313 3.6156 1.22313e-18)
(5.62925 2.89191 -1.39163e-18)
(4.7079 2.06747 9.46921e-19)
(3.7753 1.2669 -3.34757e-19)
(2.94489 0.531885 1.29714e-18)
(2.21168 -0.110073 -5.5394e-19)
(1.60994 -0.318252 -2.23411e-18)
(1.2593 0.235444 8.90346e-19)
(1.16719 0.935691 3.19006e-19)
(1.18653 1.19462 -6.32547e-20)
(1.22291 1.02061 8.51821e-20)
(1.24438 0.593727 -2.28645e-19)
(1.25517 0.0364543 -1.3369e-18)
(1.26209 -0.593511 1.39078e-18)
(1.28618 -1.25053 -8.49904e-20)
(1.34207 -1.90799 -3.9967e-19)
(1.4391 -2.55494 4.54535e-19)
(1.58314 -3.17658 -5.73348e-20)
(1.77603 -3.76122 -1.26867e-19)
(2.01979 -4.29478 2.16287e-19)
(2.31963 -4.76672 1.09297e-19)
(2.66819 -5.15424 -2.57237e-19)
(3.12692 -5.41421 -1.42677e-19)
(5.55084 3.17043 4.32718e-21)
(5.6026 3.28441 3.28704e-19)
(5.65164 3.38814 8.01106e-19)
(5.70045 3.48314 -9.06769e-19)
(5.75275 3.57297 -9.79404e-20)
(5.81077 3.65791 7.22943e-19)
(5.87628 3.73661 -8.81713e-21)
(5.94998 3.8078 -1.18597e-19)
(6.03083 3.86954 -5.36958e-20)
(6.11784 3.92013 4.85497e-19)
(6.20878 3.95813 -5.28674e-20)
(6.30076 3.97987 5.23106e-19)
(6.3895 3.97747 6.6514e-20)
(6.47335 3.951 -1.10278e-18)
(6.56259 3.92806 -4.93391e-19)
(6.67874 3.95886 1.14753e-18)
(6.82768 4.06179 -6.23439e-19)
(6.96177 4.16525 8.59083e-19)
(6.97902 4.12749 -1.23808e-18)
(6.76653 3.83166 6.86098e-20)
(6.26298 3.26559 -1.01674e-19)
(5.52111 2.54148 2.39638e-18)
(4.6765 1.78708 -1.93187e-19)
(3.83061 1.05204 -1.45888e-18)
(3.0174 0.470974 -2.72356e-19)
(2.37172 0.419923 -2.87303e-19)
(2.06911 0.817669 -8.35594e-19)
(1.98811 1.0812 9.50282e-19)
(1.96676 0.993215 -8.07156e-19)
(1.94096 0.633833 -6.38759e-20)
(1.90361 0.110276 2.40529e-19)
(1.85199 -0.51564 -1.88496e-19)
(1.80082 -1.19482 1.29949e-19)
(1.76254 -1.89455 -6.70204e-20)
(1.74834 -2.59585 7.27339e-19)
(1.76712 -3.28292 -6.83349e-19)
(1.82541 -3.94029 5.19098e-20)
(1.92818 -4.55519 2.96785e-20)
(2.07857 -5.11333 5.41808e-20)
(2.27766 -5.59008 -9.39082e-21)
(2.56381 -5.94441 2.71419e-19)
(5.70359 3.09931 -4.90135e-19)
(5.74504 3.19897 2.43881e-19)
(5.78422 3.28887 -1.07172e-18)
(5.82247 3.37067 7.10633e-19)
(5.86259 3.44805 -4.51007e-19)
(5.90639 3.52173 3.91447e-19)
(5.95498 3.591 -7.90002e-20)
(6.00965 3.65502 -8.03099e-20)
(6.07001 3.71307 4.59866e-20)
(6.13566 3.76396 -2.66795e-20)
(6.20563 3.80616 3.50161e-20)
(6.27874 3.83898 -1.46708e-18)
(6.35312 3.86055 8.65189e-19)
(6.42559 3.8649 1.59142e-20)
(6.49371 3.84634 1.08152e-18)
(6.56217 3.81569 -1.04887e-18)
(6.64711 3.80975 1.67748e-19)
(6.76505 3.8661 8.77051e-19)
(6.90403 3.96777 -9.4729e-19)
(7.00006 4.01908 3.60158e-19)
(6.94935 3.89839 1.13572e-19)
(6.66524 3.56357 -2.37964e-19)
(6.15645 3.06997 8.81761e-20)
(5.49302 2.47328 -2.18485e-19)
(4.73489 1.81963 1.43042e-18)
(3.9607 1.29415 -1.8365e-18)
(3.37507 1.12782 1.37764e-18)
(3.05759 1.15422 4.30862e-19)
(2.89076 1.06668 -4.45445e-19)
(2.76918 0.767438 -1.96841e-19)
(2.65249 0.29537 -1.25779e-19)
(2.5246 -0.299062 9.3362e-19)
(2.3848 -0.972993 -8.57068e-20)
(2.2414 -1.69165 -1.18371e-18)
(2.10358 -2.42926 2.45294e-19)
(1.98168 -3.16832 3.81451e-19)
(1.88547 -3.89018 -3.53765e-19)
(1.82446 -4.58301 4.22285e-19)
(1.80763 -5.22911 1.77476e-19)
(1.84316 -5.80223 1.17264e-19)
(1.94092 -6.26823 -6.27719e-19)
(5.84169 3.03968 3.72964e-19)
(5.87463 3.12724 -5.12098e-19)
(5.90586 3.20559 1.14483e-18)
(5.93591 3.27643 -1.91394e-19)
(5.96686 3.34338 -2.9411e-19)
(6.00006 3.4073 -2.41436e-19)
(6.03643 3.46789 7.75233e-19)
(6.07672 3.52468 -2.11586e-20)
(6.12171 3.57724 -8.20148e-20)
(6.17056 3.62525 6.78414e-20)
(6.22307 3.66773 2.78832e-19)
(6.27882 3.7036 -3.97051e-19)
(6.33705 3.73225 1.09866e-18)
(6.39647 3.75302 -8.53037e-19)
(6.45481 3.76213 -4.69588e-19)
(6.50944 3.75293 -2.1561e-19)
(6.56093 3.72501 -3.80945e-19)
(6.61813 3.69765 3.92671e-19)
(6.69612 3.70636 5.68191e-20)
(6.80117 3.7703 3.0359e-19)
(6.90709 3.85085 -1.56716e-19)
(6.93915 3.87086 1.66263e-19)
(6.82969 3.77672 6.28893e-19)
(6.55556 3.55285 -8.17565e-19)
(6.12913 3.17992 4.06629e-19)
(5.57175 2.6739 4.62924e-19)
(4.96551 2.16755 1.22022e-19)
(4.44641 1.78794 -1.98234e-18)
(4.06447 1.48673 3.75682e-19)
(3.77526 1.14084 9.22221e-19)
(3.52717 0.690463 -6.54758e-19)
(3.28947 0.136078 1.42275e-18)
(3.0431 -0.502925 -1.27518e-18)
(2.78394 -1.20471 1.72195e-19)
(2.5145 -1.94558 4.60193e-19)
(2.24312 -2.70366 -4.51985e-19)
(1.98052 -3.46033 2.64727e-19)
(1.73941 -4.20183 -1.8093e-20)
(1.53228 -4.91123 -5.86559e-19)
(1.36968 -5.56071 -5.51303e-20)
(1.24248 -6.12397 3.06498e-20)
(5.96599 2.98985 1.58926e-20)
(5.99187 3.06715 -3.55925e-19)
(6.01664 3.13583 -1.9056e-19)
(6.04023 3.19763 8.72346e-19)
(6.06417 3.25594 2.37033e-19)
(6.08944 3.31165 2.54149e-20)
(6.11675 3.36466 8.07451e-19)
(6.14657 3.41481 -4.32611e-19)
(6.17974 3.4617 2.0884e-21)
(6.21591 3.50543 -1.57641e-19)
(6.2548 3.5457 1.13088e-19)
(6.29634 3.5818 2.2545e-20)
(6.34023 3.61284 3.67511e-19)
(6.38593 3.63831 -3.76356e-20)
(6.43251 3.65796 -1.62332e-19)
(6.4784 3.67007 -2.17859e-19)
(6.5211 3.66951 -2.05419e-19)
(6.55899 3.65137 1.37924e-18)
(6.59477 3.62093 -1.49508e-18)
(6.63754 3.60177 -2.27877e-20)
(6.69991 3.62259 9.53732e-19)
(6.7748 3.69215 -8.45444e-19)
(6.83225 3.78174 8.17069e-19)
(6.83323 3.85475 -3.59789e-19)
(6.74474 3.85497 -4.07189e-19)
(6.54292 3.70695 1.1473e-18)
(6.22004 3.38715 -4.39489e-19)
(5.80841 2.95432 6.98874e-19)
(5.37192 2.48302 -1.81636e-18)
(4.95502 2.00063 1.84963e-19)
(4.56478 1.49143 7.68512e-19)
(4.19115 0.936222 -9.03973e-20)
(3.81929 0.328299 -1.65395e-19)
(3.43742 -0.329872 6.11485e-20)
(3.03783 -1.03209 -2.59831e-20)
(2.62306 -1.76322 1.52565e-19)
(2.20218 -2.50642 -4.12916e-19)
(1.78751 -3.24937 3.80173e-19)
(1.38955 -3.97595 -2.25257e-19)
(1.01256 -4.65958 2.56867e-19)
(0.635677 -5.27583 9.1796e-20)
(6.07248 2.95009 2.47318e-20)
(6.09276 3.01905 -6.9494e-19)
(6.11243 3.07995 8.74842e-19)
(6.1311 3.13463 -9.02528e-19)
(6.14983 3.18619 -3.64646e-19)
(6.16937 3.23542 -1.29162e-18)
(6.19018 3.28238 6.2869e-19)
(6.21269 3.32703 1.50796e-18)
(6.23736 3.36923 -3.11063e-19)
(6.26456 3.40885 -6.26264e-19)
(6.29359 3.44614 3.70904e-19)
(6.32451 3.48083 -1.30821e-19)
(6.35725 3.51234 6.49495e-20)
(6.39155 3.53996 -1.66138e-19)
(6.42694 3.56318 5.48054e-19)
(6.4628 3.58198 -7.13378e-21)
(6.49793 3.59585 -2.00238e-18)
(6.53035 3.60197 1.79329e-18)
(6.55766 3.59501 -7.23044e-19)
(6.57892 3.57337 -5.76701e-19)
(6.59891 3.54683 7.38917e-19)
(6.62541 3.54269 7.6618e-19)
(6.66559 3.58053 -1.13003e-18)
(6.71689 3.67154 1.05442e-18)
(6.7651 3.80674 -2.89456e-19)
(6.78287 3.93196 2.56703e-19)
(6.73281 3.96178 -4.94027e-19)
(6.58869 3.83842 5.26879e-19)
(6.34465 3.56264 2.0136e-19)
(6.01283 3.16551 -1.04987e-18)
(5.61889 2.68151 1.15385e-19)
(5.18574 2.13792 -6.86276e-20)
(4.7273 1.55272 5.93862e-19)
(4.24946 0.935749 2.09137e-20)
(3.74852 0.292116 -2.63816e-20)
(3.22712 -0.372875 -5.1988e-20)
(2.68803 -1.05499 -1.16114e-20)
(2.13833 -1.74971 -4.97714e-20)
(1.58866 -2.44253 -2.36943e-19)
(1.04636 -3.10899 1.21338e-20)
(0.488353 -3.7258 6.29067e-20)
(6.16056 2.92003 2.64426e-19)
(6.17669 2.98227 6.30708e-19)
(6.19258 3.03699 -3.13875e-19)
(6.20766 3.08609 -1.09734e-18)
(6.22266 3.13235 -2.91728e-19)
(6.23814 3.1765 -1.01567e-18)
(6.25442 3.21866 1.26979e-18)
(6.27186 3.25885 -3.51523e-19)
(6.29073 3.29714 -2.75856e-19)
(6.31151 3.33324 7.29603e-19)
(6.33366 3.36763 2.90727e-19)
(6.3571 3.40036 -3.51126e-19)
(6.38182 3.43115 1.10322e-20)
(6.40772 3.45952 -1.36838e-19)
(6.43453 3.48495 3.61998e-19)
(6.46189 3.50701 4.41849e-19)
(6.48923 3.52569 -2.23872e-19)
(6.51574 3.54114 -5.9552e-19)
(6.53991 3.5522 -9.06292e-20)
(6.55935 3.55551 5.74486e-19)
(6.57204 3.54626 -1.16978e-18)
(6.57717 3.53058 9.42201e-19)
(6.58148 3.51898 1.25549e-19)
(6.59436 3.52969 2.51954e-19)
(6.62422 3.58837 -4.49253e-19)
(6.67269 3.70969 2.08738e-19)
(6.72535 3.86843 -1.85869e-19)
(6.75145 4.00266 -1.22356e-19)
(6.71793 4.04847 2.37415e-19)
(6.60171 3.96911 -1.57969e-19)
(6.38896 3.75578 -7.94293e-20)
(6.07826 3.41707 2.84277e-19)
(5.68111 2.97405 -3.63009e-19)
(5.21494 2.45419 1.81044e-19)
(4.69624 1.88466 1.63464e-20)
(4.13901 1.28769 -2.18635e-19)
(3.55096 0.678434 1.60149e-19)
(2.93553 0.0625893 4.37507e-20)
(2.30086 -0.552182 -8.11616e-20)
(1.66409 -1.15496 -2.89985e-20)
(1.025 -1.73578 -2.97536e-20)
(6.23443 2.89691 -1.61011e-19)
(6.24738 2.95357 9.2367e-20)
(6.26044 3.00324 -1.7977e-19)
(6.27282 3.04783 -5.54869e-19)
(6.28511 3.08985 6.99316e-19)
(6.29766 3.12994 -4.43541e-19)
(6.31071 3.16824 -2.43898e-19)
(6.32451 3.20487 3.5403e-19)
(6.33934 3.23993 -1.29194e-19)
(6.35547 3.27326 -9.05116e-20)
(6.37275 3.30506 2.29946e-19)
(6.39085 3.33579 -2.57389e-19)
(6.40982 3.36536 1.56395e-19)
(6.42965 3.39349 -1.42567e-19)
(6.45019 3.41987 1.49985e-20)
(6.47124 3.44413 3.64088e-20)
(6.49239 3.46597 3.32904e-20)
(6.51326 3.48541 -4.63627e-20)
(6.5332 3.50276 -2.058e-19)
(6.55124 3.51823 4.8606e-19)
(6.56568 3.52943 4.07649e-20)
(6.57252 3.53664 -6.01071e-19)
(6.57157 3.53783 2.7262e-19)
(6.56586 3.53446 3.09377e-19)
(6.56177 3.53665 -6.30699e-19)
(6.56916 3.5666 5.55652e-19)
(6.59659 3.64776 -4.54625e-19)
(6.6426 3.78364 3.04105e-20)
(6.69186 3.94832 1.38524e-19)
(6.71894 4.09814 2.98651e-19)
(6.69721 4.1878 -3.66158e-19)
(6.60392 4.18412 1.05491e-19)
(6.42079 4.06904 1.29747e-19)
(6.13827 3.83728 -1.02654e-19)
(5.75905 3.49886 -9.11983e-21)
(5.29624 3.07643 -3.89951e-21)
(4.76809 2.59719 1.1737e-20)
(4.18826 2.08052 -6.06204e-21)
(3.57012 1.54479 6.02753e-21)
(2.92983 1.00267 -1.27569e-20)
(2.27219 0.460024 1.66803e-21)
(6.2973 2.87875 2.08654e-20)
(6.30788 2.93064 8.24233e-19)
(6.31876 2.97605 2.67675e-19)
(6.32912 3.01688 -6.96226e-19)
(6.33935 3.0554 5.71096e-20)
(6.34974 3.09216 2.6513e-19)
(6.36042 3.12732 4.26041e-19)
(6.37162 3.16102 -3.37435e-19)
(6.38353 3.1934 -3.95249e-19)
(6.39633 3.22442 5.66061e-20)
(6.41013 3.254 -1.83908e-20)
(6.42442 3.28287 -1.40643e-19)
(6.43925 3.31113 1.64394e-19)
(6.45469 3.33859 1.36667e-19)
(6.47066 3.36507 -2.72696e-20)
(6.48709 3.39036 -3.20333e-20)
(6.50373 3.41425 3.91744e-20)
(6.52031 3.43664 -4.09889e-20)
(6.5364 3.45746 -6.63721e-20)
(6.55169 3.47735 -2.20783e-19)
(6.56566 3.49602 2.49614e-19)
(6.5758 3.51601 1.42178e-19)
(6.58077 3.53576 -1.54959e-19)
(6.57996 3.55306 -1.61942e-19)
(6.57344 3.56518 -8.28561e-20)
(6.56393 3.57465 3.18172e-19)
(6.55832 3.59391 1.72306e-19)
(6.56572 3.64244 1.43652e-19)
(6.5924 3.73609 -3.1838e-19)
(6.63669 3.87663 8.48807e-20)
(6.68814 4.04853 -9.88264e-20)
(6.72912 4.22427 4.68393e-20)
(6.73901 4.37084 -5.26326e-20)
(6.69727 4.45838 5.52855e-20)
(6.58538 4.46533 -2.4815e-20)
(6.39085 4.38008 -7.03625e-21)
(6.11193 4.204 1.09601e-20)
(5.7504 3.94469 -1.6955e-20)
(5.3145 3.61949 1.44756e-20)
(4.81561 3.24556 5.28729e-22)
(4.26125 2.84095 1.82059e-22)
(6.35157 2.86415 -1.76663e-19)
(6.36035 2.91187 -1.38475e-19)
(6.36952 2.95363 -1.31136e-18)
(6.37833 2.99128 2.10472e-18)
(6.38698 3.02684 2.9252e-20)
(6.39575 3.06079 -1.56732e-19)
(6.40466 3.09333 -5.06421e-19)
(6.41395 3.12458 4.54026e-19)
(6.42373 3.15473 -1.72038e-18)
(6.43416 3.18378 1.99727e-18)
(6.44534 3.21159 -7.57573e-19)
(6.45692 3.23881 -6.03768e-20)
(6.46882 3.26575 2.31064e-19)
(6.48112 3.29232 3.87312e-19)
(6.49385 3.31844 -1.40594e-19)
(6.50696 3.34399 1.84088e-20)
(6.52037 3.36888 -6.66513e-20)
(6.53388 3.39306 4.47383e-20)
(6.54727 3.41643 2.04116e-20)
(6.56027 3.43932 7.75076e-20)
(6.57268 3.46129 -3.37032e-19)
(6.58309 3.48505 2.14848e-19)
(6.5911 3.51063 1.50847e-19)
(6.59664 3.53867 -1.45519e-19)
(6.59898 3.56754 -3.16099e-20)
(6.59706 3.59428 1.29352e-19)
(6.59126 3.61728 -1.97586e-19)
(6.58481 3.64061 1.37708e-19)
(6.58397 3.67456 9.81133e-20)
(6.596 3.73281 -8.00312e-20)
(6.62634 3.82648 -1.00081e-19)
(6.6759 3.95926 1.7667e-20)
(6.74007 4.12456 3.63376e-20)
(6.80908 4.30731 1.68919e-21)
(6.86906 4.48613 -6.48241e-21)
(6.90393 4.63821 -1.10776e-20)
(6.8998 4.74508 1.26937e-20)
(6.84334 4.79236 -1.23281e-20)
(6.72636 4.77434 -7.13271e-21)
(6.54674 4.69146 1.55692e-20)
(6.3027 4.55244 2.97423e-21)
(6.39892 2.85222 -4.49656e-19)
(6.40626 2.89625 5.57281e-19)
(6.41415 2.93481 6.59198e-19)
(6.42173 2.96971 8.09639e-19)
(6.42921 3.00269 -1.44291e-18)
(6.43672 3.03424 1.75272e-18)
(6.44436 3.06451 -1.39819e-18)
(6.45223 3.0937 3.13661e-18)
(6.46049 3.12192 -2.76734e-18)
(6.46921 3.14928 1.15292e-18)
(6.4785 3.17565 9.65659e-19)
(6.48813 3.20144 -5.12212e-19)
(6.49797 3.22711 -9.21875e-19)
(6.50807 3.25272 -2.48004e-19)
(6.51852 3.27821 4.73211e-19)
(6.52933 3.30357 -2.21309e-19)
(6.54048 3.32872 1.34374e-19)
(6.5519 3.35369 -5.25894e-21)
(6.56347 3.37843 -2.54546e-20)
(6.57505 3.40324 -6.1652e-20)
(6.58645 3.42761 1.38974e-19)
(6.59664 3.45338 -7.82033e-20)
(6.60543 3.48035 8.49627e-21)
(6.61331 3.5097 3.75259e-20)
(6.6206 3.54214 -3.50839e-20)
(6.62689 3.57728 1.95119e-20)