/*--------------------------------*- C++ -*----------------------------------*\
| =========                 |                                                 |
| \\      /  F ield         | OpenFOAM: The Open Source CFD Toolbox           |
|  \\    /   O peration     | Version:  2312                                  |
|   \\  /    A nd           | Website:  www.openfoam.com                      |
|    \\/     M anipulation  |                                                 |
\*---------------------------------------------------------------------------*/
FoamFile
{
    version     2.0;
    format      ascii;
    arch        "LSB;label=32;scalar=64";
    class       volScalarField;
    location    "500";
    object      div(phi);
}
// * * * * * * * * * * * * * * * * * * * * * * * * * * * * * * * * * * * * * //

dimensions      [0 0 -1 0 0 0 0];

internalField   nonuniform List<scalar> 
11040
(
0.00939883
0.00670115
0.0227824
0.021723
0.0239894
0.0185579
0.015273
0.0241471
0.0217654
0.0400963
0.0112795
0.0378235
0.0185639
0.0422248
0.0276472
0.0323428
0.0214058
0.0248613
0.0351246
0.0367701
0.0489598
0.0511874
0.0421176
0.0412645
0.0106363
0.0264555
-0.00201506
0.0162022
-0.00280635
0.00423475
-0.00317205
-0.003289
-0.000192439
-0.00635871
0.000843923
-0.00124726
0.015709
-0.00697246
-0.0107188
0.155547
0.149935
0.00331342
0.00413551
0.00921176
0.0185408
0.0296139
0.0340714
0.0349234
0.0351909
0.0293503
0.0319139
0.0259311
0.0385862
0.0341431
0.047728
0.040336
0.0441354
0.0460946
0.0470825
0.0559446
0.0429859
0.045421
0.0497278
0.0467403
0.0487177
0.028923
0.0285958
0.0110014
0.0131321
0.00329882
0.00268921
0.00172616
-0.000379269
0.00758307
0.00514066
0.018157
0.0176448
0.0349463
0.0339532
0.0560271
0.08984
0.10138
0.00358144
0.00117678
0.00218852
0.00106086
0.00250406
0.00778068
0.00979916
0.00788738
0.0064013
0.00698812
0.00246555
0.007911
0.00351258
0.00678409
0.00377936
0.00444616
-0.00127517
0.000565983
0.00523355
0.00583274
0.00753215
0.00788913
0.00413719
0.00337377
-0.00289593
0.0032286
-0.00367026
0.00264036
-0.00244616
0.000371219
-0.00187037
-0.00162944
-0.00131265
-0.00371132
-0.00282046
-0.00444629
0.000807643
-0.011227
-0.0134665
0.0158542
0.0197867
0.000432241
-0.000246075
0.000248178
-0.00022739
0.00271328
0.00509755
0.0105725
0.0139206
0.0170517
0.0170177
0.0164882
0.0155977
0.0155723
0.0176346
0.0186472
0.0202978
0.0216036
0.025051
0.0258655
0.0222632
0.0217196
0.0232799
0.021583
0.0209626
0.0139577
0.0125172
0.00699082
0.00643758
0.00348207
0.0032341
0.00319381
0.003716
0.00620368
0.00744603
0.0111465
0.0141676
0.0183241
0.0209777
0.0276523
0.0412564
0.0437189
-0.00218274
0.000934002
-0.000105251
0.00165512
0.00107947
0.0019751
0.00219266
0.0040442
0.00675376
0.00771644
0.00531601
0.00465629
0.00250662
0.00329984
0.00379571
0.00457321
0.0026939
0.00470281
0.0039669
0.00403094
0.00282961
0.00149295
0.000866399
-0.000247497
-0.000814562
2.77699e-05
-0.00063019
0.000193991
-0.000642064
-9.69405e-05
-0.000823705
-6.31232e-05
-0.00061979
-4.15973e-06
-0.000750151
0.00119144
0.00211656
-0.000530174
-0.000702968
0.00734382
0.00963875
0.00435609
-0.0015068
0.00177897
-0.00193363
-7.99672e-05
0.000302845
0.000101597
0.00134759
0.00251456
0.00501576
0.00554671
0.00754361
0.00854298
0.00957586
0.0102004
0.0105998
0.012121
0.0132853
0.0138195
0.0121214
0.0118965
0.0112856
0.0110615
0.00943225
0.00756685
0.00598504
0.0049294
0.00375928
0.00335972
0.00280597
0.0033141
0.00360903
0.00473683
0.00543495
0.00716688
0.00850862
0.0103459
0.0100893
0.013669
0.0151691
0.0172878
-0.00199614
0.00117815
-0.00398118
-0.000528481
0.00060527
0.000565671
0.00138974
0.00109446
0.00217321
0.0020012
0.00409319
0.00505931
0.00566418
0.0050654
0.00540249
0.00536263
0.00560741
0.00632983
0.00523367
0.00488265
0.00286472
0.00244655
0.00198894
0.0016772
0.00101875
0.00152045
0.00104319
0.00136942
0.000957224
0.00118301
0.00114105
0.00154354
0.00181359
0.0022786
0.00272425
0.00409685
0.00455846
0.00483971
0.00406284
0.00682076
0.00555437
0.00128416
-0.00243076
-0.00267327
0.00155602
0.000171523
0.00262569
0.000257283
0.00123008
-0.000443141
0.00119513
-0.000528103
0.000526182
0.00220384
0.00337595
0.00438573
0.00627044
0.00672622
0.00745979
0.00708798
0.00629139
0.00560401
0.00564233
0.00497121
0.00453292
0.00378544
0.00325729
0.00251828
0.00234387
0.0018981
0.00190093
0.00180109
0.00209891
0.00210186
0.00259667
0.00282143
0.00365994
0.00326126
0.00310819
0.00305633
0.00292353
0.00242039
0.000901208
-0.00483995
0.00239855
-0.00183673
0.00389416
-0.000510163
0.0013553
-0.00182606
0.000633123
-0.00171525
-0.000491274
0.000977416
0.00145561
0.0025742
0.00445233
0.00518486
0.00645036
0.00566987
0.0049222
0.0034336
0.00304165
0.00285137
0.00321302
0.0027118
0.00255019
0.00200755
0.00219382
0.00180767
0.00199324
0.00181457
0.00210656
0.00210925
0.00259863
0.00253888
0.00333547
0.00317222
0.00385603
0.00283707
0.00313164
0.00190479
0.0018994
-0.00273743
0.0013008
-0.00226385
0.00324792
-0.000254541
0.00153824
-0.00140268
0.000277071
-0.00121233
-0.000684985
0.000839016
0.000642829
0.00126026
0.00162
0.000663497
0.00196779
0.00123544
0.00175963
0.00263724
0.00242703
0.00251801
0.00279447
0.00253573
0.00241064
0.00215351
0.00235558
0.000628199
0.00191037
0.00076793
0.00175752
0.00107687
0.00186195
0.0013256
0.00214991
0.00162255
0.00262883
0.00132801
0.00213511
0.00040172
0.00132882
-0.000749915
-0.000327984
-0.000469886
0.000738948
0.000780346
0.0010346
0.00037845
0.000195435
0.000180221
-0.00016336
0.000779267
0.000611688
0.000709669
0.00116006
-0.000674341
0.000227082
-0.000804669
-0.000398603
0.00125338
0.00140997
0.00236468
0.00262172
0.0026132
0.00277173
0.00260585
0.00277185
0.001016
0.00209574
7.26959e-05
0.00150783
0.000204932
0.00127932
0.000325344
0.00126939
0.000299871
0.00136977
-0.000185782
0.0013056
-0.00124329
0.001099
-0.00238693
0.000746432
7.85427e-05
7.51337e-05
0.000640595
0.000738175
0.000940859
0.000816431
0.000746542
0.000824625
0.000610228
0.000974023
0.000489885
0.00109355
-0.000609554
-0.000107675
-0.000695113
-0.00068843
0.000454143
1.47986e-05
0.00072154
0.000726074
0.00064051
0.00137702
0.00148557
0.00185222
0.00210294
0.00192968
0.000898943
0.00116451
0.000531652
0.000787928
0.000471261
0.000729755
0.00037766
0.00069365
-4.38443e-05
0.000869441
-0.000941227
0.000939886
-0.00199094
0.00133811
-0.00280983
0.000349276
0.000152202
0.000620258
0.000411628
0.000852563
0.000616836
0.000855198
0.000717329
0.000780822
0.000750906
0.000703534
0.00025664
-1.73229e-05
-4.92504e-05
-0.00039801
0.000253293
-0.000221272
4.88565e-05
-2.80332e-05
-0.000561168
-0.000229172
-0.000276797
-6.87494e-06
0.00166119
0.000870043
0.00241083
0.000812135
0.00196375
0.000426314
0.00159972
0.000392518
0.00152713
0.000247837
0.00149128
0.000274251
0.0012712
1.44027e-05
0.000968745
-5.96109e-06
0.000526736
-1.71379e-05
0.000358354
4.74318e-05
0.000563592
0.000160891
0.000745287
0.000283366
0.000791917
0.000376587
0.000724882
0.000498142
0.000616235
0.000444768
0.000345514
0.000256468
0.000187804
0.000103329
-2.50456e-07
2.20273e-05
-0.000483142
-0.000342265
-0.000335917
-0.000329384
0.000448719
2.96122e-05
0.00199184
0.000609544
0.002476
0.000521536
0.00232467
0.00044863
0.00232271
0.000184078
0.00257574
-9.91921e-05
0.00295222
-0.000854361
0.00346381
-0.00174067
0.00370273
-0.00247347
0.00335652
0.000303765
-1.19636e-05
0.000489493
4.30715e-05
0.000656893
8.80937e-05
0.000712982
0.000129625
0.000660723
0.000209205
0.00055891
0.000256291
0.00040708
0.000274385
0.000327426
0.00030191
0.000213083
4.57529e-05
-4.48662e-05
6.54851e-05
1.9715e-05
0.000243844
0.000151984
0.000799831
0.000564834
0.00124029
0.000785228
0.00139296
0.000824745
0.00141
0.000722657
0.0014467
0.000552445
0.0015477
0.000210979
0.00170163
-0.000403559
0.00159575
-0.000878698
0.00116501
-0.00174068
0.000259024
-4.49071e-05
0.00042575
-1.61845e-05
0.000566763
-2.97357e-05
0.00062662
-4.27074e-05
0.000588703
-4.10212e-05
0.000475875
9.29512e-06
0.000369624
0.000100513
0.000337561
0.000254463
0.000341268
0.000309422
0.000316035
0.000330643
0.000334779
0.000400171
0.000387776
0.000534016
0.000457034
0.000683162
0.000465604
0.000788646
0.000456872
0.000921247
0.000393344
0.000978381
0.000191841
0.00111544
-0.000213884
0.00114601
-0.000768414
0.00133638
-0.00153951
0.00138761
-0.00171221
0.000231801
-6.14862e-05
0.000361705
-6.06752e-05
0.000463058
-9.38321e-05
0.000515616
-0.000131492
0.000495705
-0.000162469
0.00041422
-0.000137745
0.000343493
-4.93576e-05
0.00031479
9.10359e-05
0.000330479
0.000224267
0.000357692
0.000291839
0.000381617
0.000337645
0.000419446
0.000369893
0.00044116
0.000387923
0.000446397
0.000411785
0.000424999
0.000501715
0.000378583
0.000637896
0.000253888
0.00082489
-1.00449e-05
0.00115836
-0.000403962
0.00150745
-0.000626296
0.00147408
-0.00118139
0.000167564
-1.79156e-05
0.000273855
-1.86655e-05
0.000352538
-4.383e-05
0.000402586
-7.90205e-05
0.000402388
-0.000117726
0.000353844
-0.000113841
0.000301887
-6.22424e-05
0.000269412
3.41821e-05
0.000265351
0.000144598
0.000288687
0.00021513
0.000323657
0.000263242
0.000389103
0.00029254
0.000453921
0.000304694
0.000516356
0.000307035
0.00056618
0.00031852
0.000569407
0.000357495
0.000479757
0.000440683
0.000274059
0.000529212
-1.91399e-05
0.000665669
-0.000554504
0.000979213
-0.000620292
0.000163842
-2.13836e-05
0.000204357
-1.71711e-05
0.000251113
-3.71329e-05
0.000283302
-6.98914e-05
0.000291427
-9.84535e-05
0.000268785
-9.83529e-05
0.00023614
-6.51453e-05
0.000211599
-5.45922e-06
0.000200767
6.96082e-05
0.000211961
0.000119323
0.000243312
0.000159237
0.000311484
0.000183994
0.000396058
0.000193861
0.000490924
0.000189051
0.00059639
0.000185144
0.000688167
0.000208218
0.000753575
0.000293239
0.00077568
0.000510401
0.000733005
0.000853954
0.000769837
0.00119575
0.000461479
-5.01748e-05
0.000125241
1.78536e-06
0.000112515
6.79263e-05
7.36252e-05
0.000112773
4.23517e-05
0.000139487
1.01796e-05
0.000142089
-2.40997e-06
0.000125383
1.13067e-06
0.000103732
3.1476e-05
8.90261e-05
7.00147e-05
9.12535e-05
0.000101404
0.000130069
0.000100264
0.000206842
9.11124e-05
0.000301415
5.32169e-05
0.000408258
4.96458e-06
0.000521228
-5.78781e-05
0.000628872
-9.68539e-05
0.000716046
-8.2161e-05
0.000766263
-2.38202e-05
0.000748226
0.000110284
0.000491303
0.00047689
0.000359413
0.000231728
-0.000197493
0.000252791
-0.00020382
0.000323732
-0.000229007
0.00038079
-0.00026404
0.000417242
-0.000301868
0.000445016
-0.000320444
0.000429839
-0.000315106
0.00041849
-0.000292738
0.000394634
-0.000258521
0.000399532
-0.000234349
0.000412238
-0.000244997
0.000496527
-0.000285093
0.000575993
-0.00035154
0.000700493
-0.000434016
0.000806076
-0.000508192
0.000918594
-0.00055739
0.00108481
-0.000567777
0.0011806
-0.000512324
0.00115048
-0.000288885
0.00102573
0.000215908
0.000747639
-2.46145e-05
2.29669e-05
-4.7703e-05
8.99696e-05
-1.74627e-05
0.000129135
-9.91499e-06
0.0001684
-1.44532e-05
0.000196148
-1.92049e-05
0.000218855
-2.02059e-05
0.000220387
-1.13221e-05
0.000226653
3.85627e-06
0.000228305
2.40735e-05
0.000244487
3.0027e-05
0.000293143
2.85879e-05
0.000360159
2.34802e-05
0.000455544
2.53552e-05
0.000569619
5.4669e-05
0.000703294
0.000127802
0.000997092
0.000200731
0.00118312
0.000253523
0.00132603
0.000418166
0.00143955
0.000583389
0.0014602
0.000782633
0.000141098
-9.37473e-05
5.31705e-05
-2.75416e-05
7.16001e-05
1.9656e-05
7.15791e-05
5.92002e-05
6.22614e-05
9.40517e-05
5.88038e-05
0.000119486
4.96177e-05
0.000135119
5.56256e-05
0.000146482
6.43988e-05
0.000157292
8.39172e-05
0.000178689
8.22425e-05
0.000226938
9.50288e-05
0.000295532
0.000107937
0.000388358
0.00015042
0.000524543
0.000192591
0.000718229
0.000226502
0.000930706
0.000156073
0.001008
1.38583e-05
0.00105918
-0.000157356
0.000902677
-0.000193552
0.000824568
-1.83494e-05
-9.1343e-05
7.60079e-05
-0.000115839
0.000121789
-0.000104634
0.000176442
-0.00011308
0.000223668
-0.000132478
0.000258622
-0.000154731
0.000292871
-0.000169509
0.000301852
-0.000169909
0.000317106
-0.00016179
0.000318165
-0.000147984
0.000329565
-0.000139335
0.000339639
-0.000141703
0.000360682
-0.000138539
0.000382227
-0.00011488
0.000410541
-9.48742e-05
0.000493588
-0.000109616
0.000512171
-0.000197075
0.000549113
-0.000353327
0.000483099
-0.000468851
0.00046221
-0.000501227
0.000457224
-0.000448142
9.1145e-05
-7.9876e-05
5.40332e-06
-2.60109e-05
5.02726e-05
-1.52231e-06
7.63501e-05
5.94205e-06
0.000103666
4.31084e-06
0.000124812
1.0969e-06
0.000146787
1.55421e-06
0.000162199
9.58871e-06
0.000180795
2.16162e-05
0.000193876
3.39079e-05
0.000214571
3.8371e-05
0.000245631
4.45118e-05
0.000281981
6.835e-05
0.000295875
0.000137809
0.000410141
0.000180539
0.000453887
0.000177872
0.000479162
0.00010557
0.000507567
-3.19811e-05
0.000404136
-0.00013717
0.000407588
-9.01482e-05
0.00030358
-4.57016e-05
3.13793e-05
-5.37135e-05
3.31314e-05
-1.37207e-05
4.21058e-05
1.3044e-05
4.75525e-05
3.63717e-05
3.67203e-05
5.78911e-05
3.5801e-05
7.87516e-05
2.79248e-05
9.86012e-05
3.72653e-05
0.000117885
4.50935e-05
0.000137838
5.46724e-05
0.000162849
6.69645e-05
0.000202423
9.62659e-05
0.000240361
0.000138544
0.000306228
0.000165244
0.00031565
0.000164621
0.000279188
8.70534e-05
0.000217196
-2.63448e-05
4.9131e-05
-0.000144588
-3.59659e-05
-0.000194749
-7.80899e-05
-0.000224548
-4.16072e-05
6.5058e-05
-8.23973e-05
4.53814e-05
-5.89581e-05
6.06912e-05
-5.44211e-05
9.1842e-05
-6.00809e-05
0.000114346
-7.22183e-05
0.000136139
-8.53368e-05
0.000151409
-9.12732e-05
0.000161784
-8.73789e-05
0.000170834
-7.33225e-05
0.000167384
-5.03313e-05
0.000178913
-2.98304e-05
0.000180777
4.89604e-06
0.00016566
3.54147e-05
0.000135711
6.44518e-05
8.38055e-05
6.3235e-05
1.00245e-05
4.02188e-05
-6.96662e-05
1.76213e-05
-0.000109172
1.86272e-05
-0.000126349
4.25656e-05
-0.000115955
5.84305e-05
-0.00014041
-4.36003e-05
4.23205e-05
-4.71356e-05
5.48372e-06
-1.73342e-05
1.79741e-05
-7.21592e-06
3.34002e-05
-4.16269e-06
4.52321e-05
-5.17896e-06
6.11658e-05
-4.91586e-06
7.31128e-05
3.21357e-08
9.45412e-05
1.6408e-05
0.000106893
5.33492e-05
0.000143111
7.38514e-05
0.000177078
0.000131852
0.000201564
0.000212946
0.00028227
0.000277633
0.000294026
0.000335044
0.000291219
0.000353392
0.000287783
0.000337718
0.000228477
0.000300031
0.000174979
0.000265615
9.89915e-05
0.000211655
4.36096e-05
0.000168215
2.97758e-05
-5.50681e-05
2.74002e-05
-2.63986e-05
1.10637e-05
-1.07393e-05
1.00369e-05
-3.56065e-07
6.47124e-06
9.81893e-06
3.52101e-06
2.1615e-05
-2.24771e-06
3.47808e-05
8.79677e-06
5.25395e-05
2.50076e-05
8.36249e-05
3.5334e-05
9.16479e-05
7.7762e-05
0.000120397
0.000119325
0.000171884
0.000163373
0.000157659
0.000205928
0.000170124
0.000214171
0.000145356
0.000197907
7.9183e-05
0.000171789
2.96173e-05
0.000167652
-3.50962e-06
0.000173305
-3.73828e-05
0.000165463
-7.8937e-05
0.00015192
-3.03265e-05
5.31885e-05
-4.3147e-05
3.23926e-05
-2.42633e-05
2.3355e-05
-2.75041e-05
3.00201e-05
-3.27772e-05
3.53722e-05
-3.76074e-05
3.61091e-05
-3.74403e-05
4.69502e-05
-3.30051e-05
5.08077e-05
-1.27268e-05
4.5024e-05
1.86166e-05
7.11065e-05
4.38135e-05
6.63584e-05
7.5062e-05
4.51873e-05
9.02356e-05
3.55971e-05
8.73506e-05
-2.46032e-05
7.15716e-05
-8.56064e-05
5.87935e-05
-0.000114317
6.87054e-05
-0.000126802
9.77675e-05
-0.000126157
0.000134248
-0.000127468
0.000150723
-0.00013998
0.00015536
2.25447e-05
-4.1237e-05
3.89879e-05
-1.80355e-05
1.01557e-05
-3.19765e-06
8.08114e-06
-3.39551e-06
1.15178e-05
-3.71723e-06
1.38186e-05
8.04892e-07
2.40316e-05
-9.75672e-07
3.38334e-05
1.81483e-05
3.90485e-05
4.68771e-05
7.46521e-05
5.57095e-05
7.12654e-05
7.44369e-05
6.19887e-05
8.05057e-05
5.4975e-05
6.6021e-05
-1.99278e-06
4.95086e-05
-4.5618e-05
4.38371e-05
-6.991e-05
4.32415e-05
-8.93413e-05
5.09472e-05
-9.87911e-05
6.39433e-05
-0.000110791
7.58725e-05
-0.000115775
7.59746e-05
-0.000146195
-2.20702e-05
3.84192e-05
-2.97841e-05
2.83089e-05
1.95279e-06
1.12747e-05
6.71721e-06
4.46776e-06
8.10261e-06
1.32222e-06
1.29529e-05
-2.85445e-06
1.33162e-05
9.80017e-06
2.20582e-05
1.53914e-05
4.1075e-05
2.23403e-05
2.83797e-05
4.66425e-05
3.69834e-05
5.37331e-05
4.21474e-05
6.52246e-05
1.1432e-05
7.88023e-05
1.075e-05
9.34222e-05
1.24804e-05
0.000102241
-3.62485e-06
0.000103186
-1.98484e-05
0.000102336
-4.20252e-05
0.000101477
-5.6655e-05
9.93201e-05
-7.646e-05
9.20254e-05
-9.85681e-05
1.38174e-05
-3.12338e-05
3.97734e-05
-1.323e-05
2.77659e-05
5.99885e-06
1.18522e-05
2.1919e-06
6.20696e-06
2.37281e-06
5.02527e-07
6.43435e-06
1.81437e-06
9.21452e-06
-5.36371e-06
2.09049e-05
-1.4586e-05
3.04138e-05
-7.00496e-06
3.70881e-05
-3.01901e-05
4.23624e-05
-5.98717e-05
4.26341e-05
-6.60815e-05
4.49956e-05
-9.9841e-05
4.23097e-05
-0.000118092
4.68618e-05
-0.000121516
5.20255e-05
-0.000125398
5.8796e-05
-0.000129898
6.34381e-05
-0.000134471
6.50512e-05
-0.000145808
4.80126e-05
-0.000152298
-1.67862e-05
2.67619e-05
-2.57801e-05
3.22199e-05
7.46484e-07
9.51155e-06
2.95508e-06
3.87809e-06
1.33322e-06
1.65514e-06
1.18011e-06
1.47709e-06
1.72348e-07
-3.08474e-06
7.62604e-06
-6.99482e-06
7.63822e-06
-3.36131e-06
5.36304e-06
-3.15108e-05
1.26748e-05
-4.01791e-05
1.27282e-05
-4.73847e-05
2.06176e-05
-7.77125e-05
3.0477e-05
-6.95083e-05
4.91752e-05
-6.67895e-05
5.85971e-05
-6.85499e-05
6.34086e-05
-7.33755e-05
6.48241e-05
-8.01965e-05
6.46617e-05
-9.02032e-05
5.16973e-05
-9.51648e-05
4.88107e-05
6.61777e-06
-2.48592e-05
2.56525e-05
-1.57766e-05
1.15214e-05
3.32665e-06
3.96321e-06
-9.96519e-07
9.12327e-07
-2.30245e-06
3.14005e-07
-5.76464e-06
3.49563e-06
-7.26147e-06
-1.92714e-06
-1.44079e-05
2.16634e-06
-3.0962e-05
5.17813e-06
-3.11898e-05
-3.34342e-06
-6.07979e-05
-1.23654e-06
-8.39351e-05
-4.14452e-06
-9.61234e-05
-1.23185e-06
-0.00011429
1.68893e-06
-0.000119798
7.46521e-06
-0.000126327
1.20985e-05
-0.000125071
1.69918e-05
-0.000129247
1.87052e-05
-0.000131735
7.30681e-06
-0.000135069
3.90328e-06
-1.38529e-05
1.51389e-05
-2.31699e-05
1.61947e-05
-9.06961e-08
7.94307e-06
-2.4931e-06
6.31332e-06
-7.28024e-06
3.46733e-06
-7.39058e-06
5.27954e-07
-8.38427e-06
-7.88061e-06
-2.04974e-06
-1.5178e-05
-1.64568e-06
-1.91095e-05
-2.85779e-06
-4.25223e-05
9.32119e-08
-5.35196e-05
-4.79806e-06
-7.32621e-05
-5.88694e-06
-9.80259e-05
-1.00107e-05
-0.000111402
-5.80088e-06
-0.000121888
-3.91572e-06
-0.000124274
9.42646e-07
-0.000130166
4.34279e-06
-0.000128684
7.4754e-06
-0.000132118
-1.5081e-06
-0.000129754
-2.78165e-06
2.6571e-06
-1.92116e-05
1.3523e-05
-1.00287e-05
6.24724e-06
4.99824e-06
1.05225e-05
-8.85755e-06
1.04642e-05
-1.79424e-05
1.37316e-05
-2.80463e-05
1.85668e-05
-3.62287e-05
2.10204e-05
-4.83947e-05
2.42433e-05
-6.30659e-05
2.48167e-05
-7.0842e-05
2.43223e-05
-8.9327e-05
2.49531e-05
-0.000100477
2.60232e-05
-0.000105522
3.02514e-05
-0.000108724
3.2289e-05
-0.000108553
3.4472e-05
-0.000108303
3.37871e-05
-0.000104111
3.37971e-05
-0.000102345
3.14438e-05
-0.000101245
2.25745e-05
-9.63258e-05
1.9803e-05
-1.06941e-05
7.60559e-06
-1.54889e-05
5.73535e-06
5.99211e-06
3.54837e-06
3.56792e-06
1.60961e-06
-3.61016e-06
-4.04791e-07
-8.78551e-06
-7.1452e-07
-1.46359e-05
-1.13527e-06
-2.42028e-05
5.67126e-07
-3.42884e-05
-4.33448e-07
-4.17037e-05
4.04432e-06
-5.42686e-05
9.34332e-06
-5.64082e-05
2.03632e-05
-5.82974e-05
2.67342e-05
-6.31548e-05
3.11255e-05
-6.85294e-05
3.16875e-05
-7.58628e-05
3.13144e-05
-7.99858e-05
2.96328e-05
-8.47621e-05
2.80326e-05
-8.57559e-05
2.85703e-05
-8.63774e-05
1.81977e-05
-8.76933e-05
4.2903e-07
-1.37467e-05
6.07507e-06
-5.94532e-06
4.85544e-07
8.15512e-06
1.76791e-06
3.41098e-06
-4.36565e-06
-2.11723e-07
-9.16404e-06
-1.59496e-06
-1.61105e-05
-1.45903e-06
-2.38902e-05
-3.24513e-06
-3.56308e-05
-4.43375e-07
-4.24435e-05
2.95932e-06
-4.87598e-05
9.8072e-06
-5.35262e-05
1.69812e-05
-5.72899e-05
2.21837e-05
-6.4752e-05
2.44621e-05
-7.1406e-05
2.51235e-05
-8.08585e-05
2.40864e-05
-8.64634e-05
2.25239e-05
-9.43212e-05
1.99745e-05
-9.72492e-05
2.10559e-05
-0.00010146
9.43225e-06
-0.000102015
-7.95414e-06
3.3146e-06
-1.07744e-05
2.07192e-06
3.54336e-06
1.43651e-06
8.90442e-06
-3.10804e-06
4.17317e-06
-7.09128e-06
-1.88225e-06
-7.34955e-06
-9.30638e-06
-6.94583e-06
-1.95364e-05
-4.97389e-06
-2.81312e-05
-1.48023e-06
-3.57078e-05
3.33024e-06
-4.15403e-05
1.05426e-05
-4.75406e-05
1.69333e-05
-5.38457e-05
2.10912e-05
-6.16872e-05
2.37442e-05
-6.97466e-05
2.50042e-05
-7.64686e-05
2.54909e-05
-8.32501e-05
2.49607e-05
-8.75625e-05
2.37292e-05
-9.2919e-05
2.52527e-05
-9.39313e-05
1.74576e-05
-9.80102e-05
-5.51642e-07
-9.81693e-06
2.18736e-06
-4.43942e-06
-3.2904e-07
7.8827e-06
-1.49288e-07
1.16279e-05
-1.05268e-05
1.11958e-05
-1.98253e-05
1.29079e-05
-2.93226e-05
1.52092e-05
-3.99459e-05
1.75027e-05
-4.66822e-05
2.08562e-05
-5.50771e-05
2.44772e-05
-5.57283e-05
2.98734e-05
-5.90434e-05
3.26031e-05
-6.25958e-05
3.45587e-05
-6.71747e-05
3.43653e-05
-7.31406e-05
3.40014e-05
-7.8412e-05
3.26625e-05
-8.44748e-05
3.14304e-05
-8.84728e-05
2.94245e-05
-9.46886e-05
3.13376e-05
-9.63765e-05
2.19311e-05
-9.9249e-05
-5.69988e-06
9.10027e-07
-7.56259e-06
4.36518e-07
-2.84521e-08
3.41415e-06
5.72494e-06
2.54248e-06
2.58273e-06
-3.70156e-06
5.27338e-07
-9.26772e-06
1.15226e-07
-1.61176e-05
7.3834e-07
-2.3911e-05
1.51158e-06
-3.21611e-05
3.54737e-06
-3.78382e-05
8.97479e-06
-4.30625e-05
1.42504e-05
-4.59245e-05
2.10003e-05
-4.80708e-05
2.45696e-05
-5.34279e-05
2.64039e-05
-5.86476e-05
2.64619e-05
-6.5083e-05
2.58764e-05
-6.91556e-05
2.37896e-05
-7.53223e-05
2.03184e-05
-8.35871e-05
1.18739e-05
-8.94056e-05
1.73926e-05
-1.23377e-06
-7.16803e-06
3.78369e-07
-3.73503e-06
3.80689e-07
1.85656e-06
5.08707e-06
2.66503e-06
2.3486e-06
-2.43382e-06
5.32994e-07
-7.46719e-06
3.35465e-07
-1.3264e-05
4.50607e-07
-2.04383e-05
2.02092e-06
-2.71779e-05
6.5363e-06
-2.87581e-05
1.29319e-05
-3.21621e-05
2.14583e-05
-2.98246e-05
2.95059e-05
-2.92935e-05
3.4277e-05
-3.30339e-05
3.64711e-05
-3.7825e-05
3.75673e-05
-4.40868e-05
3.79534e-05
-4.83693e-05
3.74819e-05
-5.47753e-05
3.57508e-05
-6.32292e-05
3.01615e-05
-6.95127e-05
3.49198e-05
-3.63001e-06
9.77447e-08
-3.90503e-06
-6.09524e-08
-1.00263e-06
1.81737e-06
4.60412e-06
3.2083e-06
2.64767e-06
-1.06054e-06
1.20311e-06
-5.55006e-06
7.36478e-07
-1.13394e-05
1.37667e-06
-1.70659e-05
4.98982e-06
-1.95063e-05
1.03987e-05
-2.14261e-05
1.86334e-05
-1.86899e-05
2.57867e-05
-1.78446e-05
3.10843e-05
-2.04553e-05
3.24432e-05
-2.54744e-05
3.30494e-05
-3.22057e-05
3.21556e-05
-3.90597e-05
3.19919e-05
-4.69192e-05
3.11876e-05
-5.27224e-05
3.20453e-05
-6.15231e-05
3.17461e-05
-6.27303e-05
3.80474e-05
-4.46878e-06
-4.75121e-06
-1.50199e-06
-2.10675e-06
1.49111e-06
2.06227e-06
5.61604e-06
3.53155e-06
5.03343e-06
7.99989e-07
3.90223e-06
-2.37103e-06
3.32698e-06
-6.38445e-06
4.71569e-06
-8.93147e-06
7.42988e-06
-1.06562e-05
1.22826e-05
-9.67893e-06
1.65593e-05
-1.01428e-05
2.03358e-05
-1.29873e-05
2.14973e-05
-1.79156e-05
2.23307e-05
-2.4012e-05
2.21471e-05
-3.02732e-05
2.27429e-05
-3.65639e-05
2.27925e-05
-4.1721e-05
2.27452e-05
-4.76851e-05
2.15001e-05
-5.5428e-05
1.875e-05
-6.05257e-05
2.61681e-05
-4.38865e-06
-4.64107e-06
-3.61104e-06
8.1902e-07
-7.64855e-08
5.2458e-06
4.07357e-06
8.17724e-06
3.7029e-06
6.7517e-06
3.90588e-06
4.48256e-06
5.4006e-06
1.74934e-06
7.34499e-06
-1.60006e-06
9.8159e-06
-4.00653e-06
1.23264e-05
-6.10102e-06
1.4394e-05
-8.90021e-06
1.55953e-05
-1.27678e-05
1.65367e-05
-1.68424e-05
1.73036e-05
-2.1596e-05
1.8497e-05
-2.65229e-05
2.00191e-05
-3.16918e-05
2.19701e-05
-3.80127e-05
2.34659e-05
-4.34633e-05
2.52815e-05
-5.22761e-05
2.5097e-05
-5.54786e-05
2.78532e-05
-5.69696e-06
-4.50499e-06
-1.83972e-06
-7.44515e-07
2.82255e-06
2.26914e-06
7.61529e-06
2.46533e-06
9.45849e-06
1.23664e-06
1.228e-05
9.3941e-07
1.55044e-05
8.94589e-07
1.85706e-05
1.40503e-06
1.98082e-05
2.10809e-06
1.9925e-05
1.84801e-06
1.85123e-05
3.90563e-07
1.70302e-05
-1.66744e-06
1.55969e-05
-3.95182e-06
1.53326e-05
-5.47574e-06
1.60064e-05
-6.67016e-06
1.79445e-05
-7.40689e-06
2.05829e-05
-7.75823e-06
2.38298e-05
-7.58086e-06
2.79492e-05
-7.91418e-06
3.47424e-05
-4.45948e-06
4.37342e-05
-2.92208e-07
-5.70527e-07
-1.97289e-07
4.47229e-07
5.91025e-07
1.92429e-06
1.25316e-06
3.01747e-06
1.29628e-06
4.92345e-06
1.69318e-06
8.24533e-06
2.32654e-06
1.31023e-05
3.73681e-06
1.87515e-05
5.30365e-06
2.40407e-05
7.38485e-06
2.90505e-05
9.77715e-06
3.34517e-05
1.20874e-05
3.70582e-05
1.41789e-05
4.00026e-05
1.56952e-05
4.25414e-05
1.62308e-05
4.52898e-05
1.61218e-05
4.87834e-05
1.39832e-05
5.34439e-05
1.10101e-05
5.98863e-05
4.86259e-06
7.08934e-05
-1.00609e-06
7.92886e-05
-1.56818e-05
0.363056
0.213305
-0.184031
0.123377
-0.13167
-0.0107598
0.01147
-0.0117661
-0.0522803
-0.0251994
-0.20252
0.0785363
0.0309353
-0.0884731
0.0605984
-0.0542542
0.0591968
-0.0490413
0.0627024
-0.0214522
0.0337323
0.00386266
0.00500591
0.00360943
0.00327278
0.00823993
-0.00154012
0.00416342
0.00234983
0.0112485
-0.00533571
0.00588544
-0.00638618
-0.00223877
0.000719006
-0.00306778
-0.00103603
-0.000974101
-0.00196803
0.00120724
-0.00103461
-0.00305516
0.00206959
-0.00394007
0.00221799
-0.00129297
-0.00219012
0.00163341
0.00117385
-0.000655935
0.0010159
0.0001511
0.000451224
5.21869e-05
-0.000312746
0.00108521
0.000183832
0.000559617
0.000323062
0.000379254
0.000581839
4.15611e-05
0.000292687
0.000542889
3.22175e-05
0.000975042
-0.000569995
0.000209673
4.95593e-05
0.000397163
-0.000418517
0.000219903
-9.03574e-05
-1.02272e-05
0.101741
0.0447424
-0.042213
0.0103849
-0.0505012
-0.0274263
-0.0194868
-0.0295938
-0.0398296
-0.0347803
-0.0659586
-0.0193251
-0.00984438
-0.0552544
0.00673263
-0.0343167
0.0158321
-0.0174085
0.0112727
-0.00956001
0.00546103
0.000650375
0.00171844
0.00252626
0.00151981
0.00339868
0.000743633
0.00294474
0.00295188
0.00515933
0.0016509
0.00352226
0.000768381
0.000485017
0.00132288
0.000450171
0.000961557
0.000800249
0.0010453
0.00157465
0.000596618
0.000474703
0.00157748
-3.40293e-05
0.00153753
0.00024671
0.000508497
0.000872789
0.000999394
0.000257753
0.000839911
0.000454548
0.000554624
0.000330117
0.000331048
0.000557753
0.000280751
0.000365551
0.000254907
0.000231119
0.000236621
6.25367e-05
0.000135073
0.000217096
-1.25763e-05
0.000214786
-0.000180764
1.56036e-05
-2.14221e-05
7.82495e-05
-0.000221805
4.32139e-05
-7.26863e-05
-1.53782e-05
0.0509724
0.0158981
-0.00189932
0.0148081
0.00483354
0.0115007
0.0157906
0.0121597
0.018235
0.0173709
0.00918463
0.0184227
0.0196907
-0.00132426
0.030097
-0.000817346
0.0256838
0.000316656
0.0126148
0.00190149
0.00743071
0.00455184
0.00281336
0.00259246
0.000677546
0.00235196
-0.00149213
-0.000690777
-0.00101461
-5.12346e-05
-0.00193938
-0.000776605
-0.00192341
-0.00180033
-0.00156005
-0.00219368
-0.00176376
-0.00158134
-0.00126189
-0.00111298
-0.00138454
-0.00120013
-0.000517845
-0.00151588
-7.69462e-05
-0.0010499
-0.000537575
-0.000383999
-9.75687e-05
-0.000637536
-2.79916e-05
-0.000317676
-0.00014312
-0.000248138
-0.000160275
8.55521e-05
-7.52155e-05
0.000114497
3.70534e-05
0.000115998
0.000108122
6.57812e-05
0.000148257
0.000226783
6.49505e-05
0.000246635
-1.7122e-05
0.00017652
0.000178046
0.000185247
-8.24454e-05
0.0001725
-3.44539e-06
1.06746e-05
0.0496796
0.0247958
0.000700653
0.00144395
-0.015404
-0.0163856
-0.0164053
-0.0204704
-0.0224621
-0.0219643
-0.0293245
-0.0233369
-0.0179204
-0.0308673
-0.00343773
-0.0187751
0.00611226
-0.00635382
0.0040628
-0.0023276
0.00280116
0.00199937
0.00211813
0.00256578
0.00121265
0.00235492
0.000399333
0.00157714
0.00191315
0.0022305
0.00114867
0.00135764
0.000368311
6.09072e-05
0.000451902
0.000406081
0.0004527
0.000409795
0.000807645
0.00075811
0.000264476
0.000528246
0.000812332
0.000145647
0.000926107
0.000240313
0.000632614
0.000408014
0.000728032
0.000246497
0.000624603
0.000361987
0.000432892
0.00028649
0.00033122
0.000382022
0.000261981
0.000309667
0.000232327
0.000215732
0.00019178
0.000113399
0.000148834
0.000179789
2.45884e-05
0.00012797
-4.57267e-05
3.95582e-05
4.13415e-05
3.89137e-05
-0.000138722
5.73404e-05
-4.94297e-05
-6.16502e-06
0.0123997
0.00569172
0.00298873
0.00367498
0.00395861
0.00592249
0.00579357
0.00811444
0.0114553
0.0127504
0.0105312
0.00902585
0.0107533
0.00794707
0.0176431
0.00650512
0.0149414
0.00586496
0.00606164
0.00346398
0.00390094
0.0030473
0.00230652
0.00165873
0.000884475
0.00119912
-0.000861876
-0.00061848
-0.000236536
-0.000554932
-0.000897904
-0.0009262
-0.000883436
-0.00112249
-0.00126926
-0.00134601
-0.00134565
-0.00129782
-0.00104967
-0.00101754
-0.00118954
-0.000860137
-0.000704355
-0.000903697
-0.000287086
-0.000645575
-0.000292878
-0.000446975
-0.000170617
-0.000407399
-0.000111054
-0.000264391
-0.000157232
-0.000209912
-0.000126733
-2.65808e-05
-7.49884e-05
4.14062e-05
-9.66967e-06
5.10111e-05
4.1647e-05
5.93329e-05
0.000104442
0.000123375
3.21439e-05
0.000138343
4.59689e-05
0.000136399
0.000132414
9.09494e-05
-5.64512e-05
0.000146855
-1.20396e-05
6.1965e-06
0.0160216
0.0127852
0.0051589
0.00277197
-0.00406223
-0.00686724
-0.00996247
-0.0115892
-0.0121389
-0.0143928
-0.0168158
-0.0176125
-0.0155418
-0.0159765
-0.00738201
-0.0101913
-0.000908106
-0.00338816
0.000210081
-0.000845746
0.000871497
0.00135248
0.00119204
0.00158688
0.00064089
0.00133438
6.51141e-05
0.000862153
0.00102196
0.000787724
0.000225711
0.000174192
-0.000195579
-0.000116086
-1.98995e-05
0.000211245
0.000125672
0.000222555
0.000493944
0.000287894
6.18976e-05
0.000448291
0.000400396
0.000117208
0.000597653
0.000181712
0.000553058
0.000195663
0.000546634
0.000191682
0.000481198
0.000307905
0.000335093
0.000260053
0.000289773
0.000296198
0.000238912
0.000262673
0.000209211
0.000199479
0.000179876
0.000144194
0.00015591
0.000154232
5.48601e-05
0.000109778
2.18453e-05
5.60562e-05
6.93426e-05
1.88294e-05
-7.77416e-05
6.54966e-05
-3.37946e-05
-4.36954e-07
0.0065186
0.00223339
0.00256041
-0.000604308
0.000218804
-0.000860261
-0.000618346
0.000294786
0.00265809
0.00284137
0.00268141
0.00284816
0.00283525
0.0057332
0.00810738
0.00628809
0.00750357
0.00492364
0.00349783
0.00278909
0.0021946
0.00213135
0.00152651
0.00127362
0.00056312
0.000677065
-0.000579106
-0.000105669
0.000108224
-8.58407e-05
-0.000548111
-0.000502931
-0.000638671
-0.000729582
-0.00101507
-0.000873963
-0.000924278
-0.000871642
-0.000728773
-0.000930326
-0.000866975
-0.000549657