/*--------------------------------*- C++ -*----------------------------------*\
| =========                 |                                                 |
| \\      /  F ield         | OpenFOAM: The Open Source CFD Toolbox           |
|  \\    /   O peration     | Version:  2312                                  |
|   \\  /    A nd           | Website:  www.openfoam.com                      |
|    \\/     M anipulation  |                                                 |
\*---------------------------------------------------------------------------*/
FoamFile
{
    version     2.0;
    format      ascii;
    arch        "LSB;label=32;scalar=64";
    class       volScalarField;
    location    "500";
    object      magR;
}
// * * * * * * * * * * * * * * * * * * * * * * * * * * * * * * * * * * * * * //

dimensions      [0 2 -2 0 0 0 0];

internalField   nonuniform List<scalar> 
11040
(
0.47472
0.533963
0.0888149
0.0537486
0.337387
0.358204
0.341449
0.314302
0.284257
0.265576
0.246418
0.229516
0.215187
0.202908
0.192762
0.185852
0.18229
0.182923
0.187697
0.196179
0.208465
0.22428
0.243864
0.267739
0.296529
0.331369
0.370739
0.410658
0.448257
0.479978
0.501997
0.510698
0.504309
0.489018
0.474725
0.425313
0.297184
0.158714
0.0870154
0.058571
0.244027
0.0390436
0.0810179
0.281558
0.508886
1.02903
0.365835
0.114767
0.0434688
0.0151589
0.0025198
0.0123499
0.0183022
0.0223367
0.0249452
0.0266868
0.0281067
0.0296003
0.0316519
0.0341369
0.0368329
0.0398074
0.0431059
0.0459957
0.047643
0.047878
0.047591
0.0465659
0.0438697
0.0392049
0.0328988
0.025951
0.0205182
0.0191153
0.0216245
0.0296527
0.0425038
0.0597625
0.0837732
0.134397
0.130102
0.755181
0.0242042
0.0216447
0.0467622
0.202874
1.14466
1.59341
0.868793
0.332218
0.160321
0.0979126
0.0576827
0.0352494
0.0193793
0.00889834
0.00198539
0.0037345
0.00736428
0.00997103
0.0118821
0.0132807
0.0142718
0.0148933
0.0147238
0.013705
0.0123511
0.011444
0.0114808
0.0124054
0.0135949
0.0148581
0.017658
0.0254208
0.0400558
0.0599942
0.0858412
0.118786
0.159774
0.211829
0.320167
0.413044
0.675315
0.0174493
0.0147433
0.0126057
0.0179937
0.258271
1.30584
2.0356
1.43525
0.611406
0.331857
0.196788
0.133185
0.0932542
0.0665304
0.0495602
0.0374725
0.0300991
0.0253197
0.0227451
0.0218811
0.0223177
0.0239669
0.0270861
0.0314869
0.036489
0.0414215
0.0457428
0.0488513
0.0503351
0.0505609
0.0515392
0.0577693
0.0740769
0.102721
0.144978
0.20229
0.275504
0.365824
0.534535
0.734817
0.661498
0.0129642
0.0116708
0.0123272
0.00653126
0.00743601
0.225273
1.21916
2.26955
2.03655
1.06322
0.554301
0.338806
0.232107
0.165416
0.127206
0.0998825
0.0835381
0.0727133
0.066577
0.0638392
0.0634218
0.0647634
0.0680051
0.0729958
0.0788663
0.0847017
0.089689
0.0928708
0.0935425
0.0917636
0.0894642
0.092521
0.110434
0.150281
0.213783
0.301534
0.413532
0.548334
0.765555
1.07811
0.817634
0.00934617
0.00859194
0.00828936
0.00919048
0.00308661
0.00170047
0.14705
0.955431
2.25764
2.54356
1.72097
0.88851
0.547367
0.364019
0.267191
0.203002
0.166072
0.141996
0.127663
0.120275
0.117396
0.117628
0.120702
0.126367
0.133494
0.140863
0.147229
0.151012
0.150767
0.145786
0.137455
0.132892
0.147966
0.198021
0.285839
0.409315
0.566299
0.751746
1.00678
1.40475
1.10163
0.0067411
0.00644356
0.00605044
0.00637551
0.00666267
0.00149271
4.1886e-05
0.064593
0.623846
1.91359
2.79962
2.44425
1.47402
0.832635
0.555556
0.400511
0.310084
0.252117
0.217528
0.198611
0.189493
0.186962
0.189543
0.196389
0.205764
0.215894
0.224892
0.230308
0.229532
0.220622
0.203568
0.18495
0.186263
0.238059
0.348898
0.510644
0.716033
0.954915
1.24291
1.68176
1.439
0.00491733
0.00480717
0.00473783
0.00454659
0.00486722
0.00517082
0.000395097
1.71355e-06
0.0169823
0.323606
1.33853
2.64696
2.9805
2.26218
1.339
0.82755
0.585619
0.449269
0.366876
0.31749
0.290984
0.280612
0.280581
0.288395
0.300974
0.315518
0.32918
0.338283
0.338439
0.32601
0.2986
0.259418
0.22933
0.259461
0.382426
0.580398
0.833696
1.12411
1.44357
1.88174
1.7509
0.00363077
0.00357889
0.00358525
0.00355812
0.00341525
0.00380688
0.00372556
0.000700229
0.000363017
0.000271917
0.115412
0.739584
2.02493
3.08077
2.99524
2.12886
1.29578
0.856743
0.63927
0.516853
0.447586
0.414903
0.405052
0.410719
0.426215
0.44624
0.466268
0.48134
0.485474
0.472185
0.435743
0.373627
0.296136
0.258093
0.356974
0.580977
0.877402
1.21315
1.56214
1.97336
1.96507
0.0026956
0.00267067
0.00268986
0.0027187
0.00269836
0.00261195
0.00289574
0.00268155
0.00105059
9.4842e-05
0.00154591
0.0266169
0.308938
1.21848
2.56416
3.32012
2.98029
2.08583
1.32476
0.921841
0.725262
0.628361
0.586627
0.578117
0.591031
0.616345
0.646057
0.671284
0.683063
0.672681
0.631633
0.551722
0.429251
0.282702
0.245236
0.463316
0.796117
1.16969
1.54382
1.92055
2.02286
0.00200979
0.00199775
0.00201728
0.00204876
0.00207755
0.00206038
0.00202814
0.00213953
0.00218655
0.00116671
7.82699e-05
0.000326654
4.98394e-05
0.077699
0.534696
1.62475
2.91642
3.45945
3.01284
2.14398
1.42727
1.05635
0.898115
0.834526
0.820823
0.838022
0.871967
0.909057
0.936565
0.941051
0.908387
0.825138
0.681082
0.471405
0.201433
0.170749
0.545024
0.949834
1.3391
1.68457
1.86527
0.00150149
0.00149621
0.00151009
0.00153845
0.00156859
0.00159226
0.00158869
0.00156753
0.00160939
0.00169325
0.0011998
9.32391e-05
1.82642e-05
0.00117149
0.00736931
0.149317
0.73218
1.89416
3.11472
3.57137
3.13175
2.35297
1.72165
1.36392
1.2097
1.16893
1.18174
1.21537
1.25119
1.27237
1.26142
1.20184
1.08054
0.890586
0.637959
0.372139
0.349533
0.655562
1.00378
1.29137
1.48407
0.00112238
0.00112073
0.00112995
0.00115146
0.00117868
0.00120459
0.00122487
0.00123066
0.00121744
0.00123173
0.00128852
0.00114198
0.000360209
3.5329e-05
8.95526e-05
0.0026072
0.0217346
0.21048
0.848735
2.01095
3.19967
3.70072
3.45829
2.89951
2.35048
1.95859
1.74724
1.67331
1.67804
1.70698
1.72114
1.69735
1.62459
1.50066
1.33661
1.16337
1.03775
1.01997
1.10164
1.18088
1.19359
0.000838286
0.000838631
0.000844497
0.000859964
0.00088187
0.000905319
0.000927027
0.000945293
0.000954896
0.000951617
0.000950792
0.000995841
0.000962634
0.00068416
1.85602e-06
2.75991e-06
0.000354025
0.00393543
0.0264853
0.228083
0.851381
1.91923
3.03125
3.74125
3.9061
3.69843
3.34444
2.98411
2.69225
2.49594
2.3868
2.33595
2.30769
2.27418
2.22573
2.17125
2.12927
2.10974
2.1098
2.09146
1.92197
0.000624694
0.000626101
0.000629784
0.000640713
0.000657412
0.000676655
0.000696277
0.00071473
0.000730974
0.000742437
0.000744909
0.000745634
0.000760199
0.000788769
0.000686618
0.000164931
2.0962e-05
6.91469e-07
0.000481048
0.00412949
0.0242315
0.185801
0.631656
1.41779
2.40544
3.33337
3.99089
4.32327
4.40187
4.31822
4.1335
3.89631
3.65629
3.45754
3.3299
3.28167
3.30585
3.37841
3.47255
3.56085
3.45718
0.00046394
0.000465708
0.000468024
0.000475692
0.000488154
0.000503135
0.000519225
0.000535598
0.000551335
0.00056551
0.000577025
0.000583243
0.00058612
0.000588808
0.000625955
0.000580568
0.000454608
5.89587e-05
1.08233e-05
1.20492e-07
0.000522872
0.00282465
0.00779857
0.0745901
0.284441
0.716671
1.38819
2.23166
3.12357
3.94264
4.60825
5.08414
5.36886
5.48253
5.46282
5.35915
5.23029
5.12087
5.07074
5.1167
5.07359
0.000343976
0.000345675
0.000347213
0.000352649
0.000361831
0.000373144
0.000385685
0.000398958
0.000412442
0.000425488
0.00043753
0.000447957
0.00045609
0.000459573
0.000465872
0.000476546
0.000490484
0.000435766
0.000319262
1.0999e-05
4.97317e-06
4.80599e-08
0.0001271
0.00135324
0.00390066
0.00916207
0.057077
0.19098
0.464037
0.910792
1.53733
2.31397
3.18339
4.07643
4.92118
5.65038
6.22743
6.64415
6.92337
7.13404
7.16561
0.000257465
0.000259001
0.000260172
0.000264237
0.000271165
0.000279806
0.000289537
0.000300072
0.000311048
0.000322074
0.000332761
0.000342768
0.000351836
0.000359513
0.000364917
0.000369815
0.000375632
0.000386434
0.000396613
0.00034034
0.000213535
4.5132e-06
3.35953e-06
3.08427e-07
0
0.00016174
0.00112859
0.00206967
0.000384522
0.0104542
0.0521549
0.156044
0.357058
0.68851
1.17255
1.80877
2.57507
3.43528
4.33361
5.23585
5.99864
0.000196306
0.000197685
0.000198659
0.000201828
0.000207195
0.000213923
0.000221593
0.000230029
0.000239005
0.000248221
0.000257397
0.000266298
0.000274692
0.000282449
0.000289275
0.000295133
0.000299437
0.000303989
0.000310097
0.000322779
0.000322254
0.000267382
0.000184848
2.95438e-05
5.58008e-06
1.19241e-06
1.3561e-07
0
3.6354e-06
0.000170225
0.00101466
0.0016094
0.00234431
0.000845579
0.0145123
0.0559076
0.146997
0.311256
0.569989
0.940196
1.41431
0.000152424
0.000153606
0.000154428
0.000156942
0.000161153
0.000166442
0.000172519
0.000179261
0.000186531
0.000194113
0.000201819
0.000209497
0.000216975
0.000224096
0.000230731
0.000236813
0.000242208
0.000246763
0.000250284
0.000255322
0.000262484
0.000270127
0.000268615
0.000240944
0.000184669
0.000118438
1.47275e-05
3.58046e-06
9.65218e-07
5.12657e-07
1.49831e-08
0
0
6.59446e-06
0.000297038
0.00116783
0.00166091
0.000893682
5.82749e-05
0.00299016
0.017665
0.000119958
0.000120944
0.000121642
0.000123663
0.000127002
0.000131202
0.000136049
0.000141464
0.000147334
0.000153522
0.000159889
0.000166329
0.000172734
0.000178988
0.000184986
0.000190645
0.000195918
0.000200752
0.000205011
0.000208755
0.000212216
0.000216795
0.00022179
0.000228765
0.000229256
0.000223588
0.00020001
0.000158979
0.000111941
6.26961e-05
1.99805e-06
1.58386e-06
7.22989e-07
4.67044e-07
2.00592e-07
2.30944e-10
0
0
9.40315e-07
4.80367e-05
0.000469798
9.54274e-05
9.62405e-05
9.68436e-05
9.84854e-05
0.000101157
0.000104516
0.00010841
0.000112774
0.000117524
0.000122564
0.000127787
0.000133113
0.000138475
0.000143788
0.000148976
0.000153977
0.000158735
0.000163216
0.000167386
0.000171259
0.000174625
0.000177641
0.000180492
0.000184052
0.000188534
0.000192917
0.000198286
0.000199641
0.000195614
0.000187157
0.000166345
0.00013703
0.000103721
6.95459e-05
3.17079e-05
3.95172e-08
7.30663e-07
5.29972e-07
3.87743e-07
2.49752e-07
1.32957e-07
7.65654e-05
7.72299e-05
7.77552e-05
7.90977e-05
8.12494e-05
8.39515e-05
8.70935e-05
9.06207e-05
9.44708e-05
9.85666e-05
0.000102832
0.000107207
0.000111642
0.000116073
0.000120446
0.00012471
0.000128828
0.000132761
0.00013648
0.000140009
0.000143208
0.000146043
0.000148633
0.000150915
0.000153202
0.000155585
0.00015852
0.00016206
0.000165764
0.00016927
0.000173117
0.000174208
0.000172073
0.000167069
0.000158282
0.000142387
0.000122624
9.93341e-05
7.57624e-05
5.1046e-05
2.88223e-05
6.18596e-05
6.24023e-05
6.28622e-05
6.39665e-05
6.57075e-05
6.78919e-05
7.04365e-05
7.32954e-05
7.64195e-05
7.97462e-05
8.32222e-05
8.67991e-05
9.04326e-05
9.40809e-05
9.77022e-05
0.000101256
0.000104713
0.000108043
0.000111218
0.000114254
0.000117027
0.00011951
0.000121815
0.000123861
0.000125672
0.000127312
0.000128818
0.000130306
0.000131897
0.00013363
0.000135704
0.000138041
0.000140471
0.000142716
0.000144917
0.000147025
0.000147688
0.000146802
0.00014435
0.000140007
0.000134633
5.02633e-05
5.07057e-05
5.11084e-05
5.20213e-05
5.34354e-05
5.52085e-05
5.72748e-05
5.95969e-05
6.21328e-05
6.48344e-05
6.76606e-05
7.05706e-05
7.35284e-05
7.65051e-05
7.94663e-05
8.23813e-05
8.52236e-05
8.79697e-05
9.05949e-05
9.31109e-05
9.54054e-05
9.74526e-05
9.93443e-05
0.000101023
0.000102497
0.000103794
0.000104925
0.000105896
0.000106725
0.000107434
0.00010805
0.000108622
0.000109201
0.000109809
0.000110465
0.00011119
0.000111972
0.0001128
0.000113549
0.000114381
0.000114191
4.10316e-05
4.13936e-05
4.17473e-05
4.25049e-05
4.3658e-05
4.51027e-05
4.67851e-05
4.86748e-05
5.07348e-05
5.29286e-05
5.52213e-05
5.75811e-05
5.99788e-05
6.23894e-05
6.47864e-05
6.71469e-05
6.94466e-05
7.16673e-05
7.37857e-05
7.58114e-05
7.76449e-05
7.92647e-05
8.0749e-05
8.20458e-05
8.31592e-05
8.411e-05
8.49106e-05
8.55666e-05
8.60837e-05
8.6467e-05
8.67196e-05
8.68461e-05
8.68579e-05
8.67681e-05
8.65834e-05
8.63006e-05
8.59541e-05
8.55721e-05
8.50984e-05
8.4827e-05
8.34714e-05
3.36261e-05
3.39212e-05
3.42336e-05
3.48657e-05
3.58102e-05
3.69909e-05
3.83645e-05
3.99042e-05
4.15791e-05
4.33596e-05
4.52165e-05
4.71255e-05
4.90626e-05
5.10025e-05
5.29275e-05
5.48189e-05
5.66568e-05
5.84245e-05
6.01027e-05
6.16976e-05
6.31241e-05
6.43644e-05
6.54882e-05
6.64501e-05
6.72506e-05
6.7904e-05
6.8421e-05
6.88082e-05
6.90706e-05
6.92149e-05
6.9247e-05
6.91713e-05
6.89953e-05
6.87266e-05
6.83663e-05
6.79085e-05
6.73761e-05
6.67815e-05
6.60629e-05
6.54994e-05
6.38798e-05
2.76441e-05
2.78869e-05
2.81646e-05
2.8694e-05
2.94713e-05
3.04396e-05
3.15644e-05
3.2821e-05
3.41842e-05
3.56287e-05
3.7131e-05
3.8672e-05
4.02306e-05
4.17827e-05
4.33175e-05
4.48192e-05
4.62715e-05
4.76593e-05
4.8967e-05
5.01981e-05
5.12805e-05
5.2201e-05
5.30215e-05
5.37039e-05
5.42473e-05
5.46645e-05
5.49622e-05
5.51462e-05
5.52215e-05
5.51947e-05
5.50717e-05
5.48587e-05
5.45633e-05
5.41933e-05
5.37517e-05
5.32364e-05
5.2668e-05
5.20572e-05
5.13467e-05
5.08006e-05
4.92431e-05
2.27854e-05
2.29861e-05
2.32348e-05
2.36817e-05
2.43249e-05
2.51225e-05
2.60465e-05
2.70742e-05
2.8185e-05
2.93573e-05
3.05722e-05
3.18136e-05
3.30627e-05
3.43004e-05
3.5517e-05
3.66999e-05
3.78369e-05
3.8914e-05
3.9918e-05
4.08512e-05
4.16537e-05
4.23156e-05
4.28929e-05
4.3354e-05
4.36971e-05
4.39329e-05
4.4069e-05
4.41103e-05
4.40612e-05
4.39276e-05
4.37151e-05
4.34294e-05
4.30781e-05
4.26673e-05
4.22003e-05
4.16758e-05
4.11123e-05
4.05183e-05
3.98436e-05
3.93372e-05
3.78667e-05
1.88193e-05
1.89886e-05
1.92122e-05
1.95927e-05
2.01286e-05
2.07889e-05
2.15503e-05
2.23932e-05
2.32997e-05
2.4252e-05
2.5234e-05
2.62326e-05
2.72317e-05
2.82166e-05
2.91759e-05
3.01019e-05
3.09842e-05
3.18118e-05
3.25734e-05
3.32703e-05
3.38527e-05
3.43146e-05
3.47052e-05
3.49992e-05
3.51957e-05
3.53026e-05
3.53267e-05
3.52728e-05
3.51457e-05
3.49502e-05
3.46918e-05
3.43752e-05
3.40075e-05
3.35942e-05
3.31389e-05
3.26411e-05
3.21164e-05
3.15717e-05
3.09646e-05
3.05198e-05
2.91837e-05
1.55694e-05
1.5714e-05
1.59177e-05
1.62447e-05
1.6694e-05
1.72438e-05
1.78738e-05
1.85672e-05
1.93085e-05
2.00831e-05
2.08771e-05
2.16795e-05
2.24776e-05
2.3259e-05
2.40122e-05
2.47323e-05
2.54116e-05
2.60412e-05
2.66119e-05
2.71241e-05
2.75376e-05
2.78486e-05
2.81003e-05
2.82723e-05
2.83643e-05
2.83828e-05
2.83342e-05
2.82223e-05
2.80517e-05
2.7827e-05
2.75532e-05
2.72351e-05
2.6879e-05
2.64896e-05
2.60704e-05
2.56213e-05
2.5155e-05
2.46766e-05
2.41527e-05
2.37755e-05
2.26034e-05
1.28971e-05
1.30237e-05
1.321e-05
1.34938e-05
1.38741e-05
1.43347e-05
1.48589e-05
1.54318e-05
1.604e-05
1.66715e-05
1.73145e-05
1.79594e-05
1.85967e-05
1.92156e-05
1.98052e-05
2.03626e-05
2.08826e-05
2.13571e-05
2.17793e-05
2.21495e-05
2.24355e-05
2.26348e-05
2.27855e-05
2.28713e-05
2.28919e-05
2.28537e-05
2.27623e-05
2.26212e-05
2.24346e-05
2.22065e-05
2.19412e-05
2.16432e-05
2.13173e-05
2.09679e-05
2.05977e-05
2.02073e-05
1.98067e-05
1.93988e-05
1.89608e-05
1.86462e-05
1.7648e-05
1.06931e-05
1.08062e-05
1.09789e-05
1.12276e-05
1.15524e-05
1.19416e-05
1.23806e-05
1.28563e-05
1.33576e-05
1.3874e-05
1.43963e-05
1.49156e-05
1.54251e-05
1.59147e-05
1.63759e-05
1.6806e-05
1.72019e-05
1.75574e-05
1.78668e-05
1.813e-05
1.83219e-05
1.84414e-05
1.85211e-05
1.85487e-05
1.8524e-05
1.84525e-05
1.83391e-05
1.81877e-05
1.80016e-05
1.77846e-05
1.75403e-05
1.72725e-05
1.69851e-05
1.66818e-05
1.63651e-05
1.60356e-05
1.57016e-05
1.53633e-05
1.50092e-05
1.47493e-05
1.3929e-05
8.87118e-06
8.97508e-06
9.13573e-06
9.35642e-06
9.63685e-06
9.96841e-06
1.03385e-05
1.0736e-05
1.11513e-05
1.15758e-05
1.20014e-05
1.24211e-05
1.28289e-05
1.32166e-05
1.35777e-05
1.39094e-05
1.42098e-05
1.44748e-05
1.46995e-05
1.48841e-05
1.50089e-05
1.50745e-05
1.51078e-05
1.50995e-05
1.50498e-05
1.49637e-05
1.48453e-05
1.46982e-05
1.4525e-05
1.4329e-05
1.41135e-05
1.38814e-05
1.36364e-05
1.33812e-05
1.31183e-05
1.2848e-05
1.25774e-05
1.23037e-05
1.2027e-05
1.18123e-05
1.11646e-05
7.36187e-06
7.4594e-06
7.61047e-06
7.80805e-06
8.0526e-06
8.3376e-06
8.65224e-06
8.98673e-06
9.33314e-06
9.6842e-06
1.0033e-05
1.03738e-05
1.07016e-05
1.10099e-05
1.12935e-05
1.15496e-05
1.17772e-05
1.19737e-05
1.21359e-05
1.22635e-05
1.23411e-05
1.237e-05
1.23731e-05
1.23434e-05
1.22813e-05
1.21911e-05
1.20764e-05
1.19403e-05
1.17855e-05
1.16147e-05
1.14307e-05
1.12359e-05
1.10332e-05
1.08247e-05
1.06128e-05
1.03975e-05
1.01849e-05
9.96967e-06
9.76266e-06
9.58327e-06
9.10187e-06
6.10968e-06
6.2031e-06
6.34552e-06
6.52442e-06
6.73981e-06
6.98722e-06
7.25713e-06
7.54112e-06
7.83241e-06
8.12493e-06
8.41292e-06
8.69151e-06
8.95652e-06
9.2033e-06
9.42754e-06
9.62651e-06
9.80021e-06
9.94726e-06
1.0065e-05
1.01534e-05
1.02016e-05
1.02106e-05
1.01993e-05
1.01621e-05
1.00999e-05
1.00161e-05
9.91416e-06
9.79646e-06
9.66531e-06
9.52297e-06
9.37177e-06
9.21391e-06
9.05153e-06
8.88639e-06
8.72072e-06
8.55445e-06
8.39275e-06
8.22797e-06
8.08062e-06
7.92913e-06
7.59371e-06
5.06939e-06
5.16021e-06
5.2953e-06
5.45853e-06
5.65032e-06
5.86737e-06
6.10116e-06
6.34457e-06
6.59163e-06
6.83757e-06
7.07728e-06
7.30701e-06
7.52309e-06
7.72218e-06
7.90068e-06
8.05641e-06
8.18945e-06
8.29943e-06
8.38472e-06
8.44501e-06
8.4723e-06
8.46816e-06
8.44829e-06
8.40827e-06
8.34898e-06
8.27377e-06
8.18538e-06
8.08589e-06
7.97735e-06
7.86177e-06
7.74102e-06
7.61693e-06
7.49117e-06
7.36516e-06
7.24073e-06
7.11763e-06
7.00058e-06
6.8798e-06
6.78431e-06
6.65325e-06
6.45625e-06
4.2048e-06
4.29397e-06
4.42235e-06
4.57273e-06
4.7453e-06
4.93738e-06
5.14197e-06
5.35241e-06
5.56407e-06
5.7726e-06
5.97428e-06
6.16554e-06
6.34397e-06
6.50671e-06
6.65157e-06
6.77619e-06
6.88153e-06
6.96733e-06
7.03304e-06
7.07809e-06
7.09732e-06
7.09154e-06
7.07385e-06
7.04056e-06
6.99256e-06
6.93256e-06
6.86301e-06
6.78558e-06
6.70189e-06
6.61359e-06
6.52224e-06
6.42941e-06
6.33626e-06
6.24396e-06
6.15414e-06
6.06654e-06
5.98529e-06
5.89936e-06
5.84322e-06
5.72908e-06
5.63452e-06
3.48605e-06
3.57407e-06
3.69647e-06
3.83591e-06
3.99261e-06
4.16432e-06
4.34474e-06
4.52832e-06
4.71117e-06
4.88976e-06
5.06104e-06
5.22202e-06
5.37078e-06
5.50502e-06
5.62298e-06
5.72281e-06
5.80531e-06
5.87076e-06
5.91917e-06
5.9501e-06
5.96031e-06
5.95104e-06
5.93293e-06
5.90317e-06
5.86278e-06
5.81413e-06
5.75927e-06
5.69958e-06
5.63646e-06
5.57118e-06
5.50498e-06
5.43905e-06
5.37435e-06
5.31163e-06
5.25226e-06
5.19571e-06
5.14608e-06
5.09094e-06
5.06999e-06
4.96753e-06
4.97718e-06
2.88874e-06
2.97578e-06
3.09237e-06
3.22257e-06
3.36583e-06
3.52025e-06
3.68061e-06
3.84198e-06
4.00123e-06
4.15566e-06
4.30278e-06
4.44035e-06
4.5669e-06
4.68115e-06
4.78202e-06
4.86849e-06
4.94084e-06
4.99957e-06
5.04482e-06
5.07629e-06
5.09178e-06
5.09172e-06
5.08474e-06
5.06846e-06
5.04374e-06
5.01262e-06
4.97666e-06
4.937e-06
4.89475e-06
4.85103e-06
4.80682e-06
4.76313e-06
4.72066e-06
4.68008e-06
4.64266e-06
4.60784e-06
4.57912e-06
4.54462e-06
4.54371e-06
4.45669e-06
4.5141e-06
2.39228e-06
2.47871e-06
2.59019e-06
2.71198e-06
2.84325e-06
2.98242e-06
3.12539e-06
3.268e-06
3.40774e-06
3.5423e-06
3.66983e-06
3.78836e-06
3.8964e-06
3.99207e-06
4.07421e-06
4.1426e-06
4.19807e-06
4.24176e-06
4.27437e-06
4.2957e-06
4.30486e-06
4.30308e-06
4.29681e-06
4.28422e-06
4.26615e-06
4.2444e-06
4.22029e-06
4.19469e-06
4.16846e-06
4.14244e-06
4.11735e-06
4.09382e-06
4.07235e-06
4.05328e-06
4.03761e-06
4.02449e-06
4.01751e-06
4.00399e-06
4.02637e-06
3.94464e-06
4.08493e-06
1.98109e-06
2.06723e-06
2.17424e-06
2.28872e-06
2.40871e-06
2.53349e-06
2.66011e-06
2.78603e-06
2.90912e-06
3.02765e-06
3.13971e-06
3.24434e-06
3.34124e-06
3.43094e-06
3.51287e-06
3.58565e-06
3.6479e-06
3.70007e-06
3.74249e-06
3.77552e-06
3.79847e-06
3.81128e-06
3.81961e-06
3.82184e-06
3.81879e-06
3.81205e-06
3.80264e-06
3.79137e-06
3.779e-06
3.76634e-06
3.75404e-06
3.74278e-06
3.73298e-06
3.72502e-06
3.71986e-06
3.71707e-06
3.71912e-06
3.71588e-06
3.74269e-06
3.68404e-06
3.81496e-06
1.64459e-06
1.72934e-06
1.83108e-06
1.93799e-06
2.04753e-06
2.15897e-06
2.27037e-06
2.38025e-06
2.48773e-06
2.59204e-06
2.69132e-06
2.783e-06
2.86398e-06
2.93195e-06
2.9869e-06
3.03246e-06
3.07142e-06
3.10484e-06
3.13277e-06
3.15459e-06
3.17014e-06
3.1808e-06
3.1898e-06
3.19571e-06
3.19897e-06
3.20088e-06
3.2022e-06
3.20344e-06
3.20501e-06
3.20744e-06
3.21108e-06
3.21626e-06
3.22318e-06
3.23198e-06
3.24319e-06
3.25602e-06
3.27347e-06
3.28399e-06
3.32729e-06
3.26219e-06
3.47721e-06
1.37116e-06
1.45224e-06
1.54545e-06
1.64159e-06
1.73898e-06
1.83793e-06
1.93701e-06
2.03422e-06
2.12815e-06
2.21855e-06
2.30634e-06
2.3935e-06
2.48187e-06
2.5721e-06
2.66107e-06
2.74128e-06
2.80825e-06
2.86382e-06
2.91037e-06
2.94949e-06
2.98131e-06
3.00513e-06
3.02534e-06
3.04098e-06
3.05286e-06
3.06221e-06
3.06978e-06
3.07616e-06
3.08196e-06
3.08782e-06
3.0943e-06
3.102e-06
3.11123e-06
3.12235e-06
3.13614e-06
3.15258e-06
3.17285e-06
3.19065e-06
3.23007e-06
3.20812e-06
3.35229e-06
1.14228e-06
1.22114e-06
1.30576e-06
1.3883e-06
1.46928e-06
1.55162e-06
1.6366e-06
1.72374e-06
1.81107e-06
1.89487e-06
1.97011e-06
2.03193e-06
2.07782e-06
2.10845e-06
2.13027e-06
2.15606e-06
2.19061e-06
2.22835e-06
2.26579e-06
2.30057e-06
2.33284e-06
2.36365e-06
2.39352e-06
2.42132e-06
2.44725e-06
2.47211e-06
2.49633e-06
2.52012e-06
2.54368e-06
2.56728e-06
2.59112e-06
2.61532e-06
2.64003e-06
2.66524e-06
2.6913e-06
2.7175e-06
2.74646e-06
2.76831e-06
2.81775e-06
2.76285e-06
3.01469e-06
9.49168e-07
1.03475e-06
1.12066e-06
1.19735e-06
1.26459e-06
1.32664e-06
1.38725e-06
1.44987e-06
1.51805e-06
1.59542e-06
1.68493e-06
1.78805e-06
1.90333e-06
2.02665e-06
2.14814e-06
2.24773e-06
2.31989e-06
2.37776e-06
2.42679e-06
2.46915e-06
2.50439e-06
2.53287e-06
2.55766e-06
2.57837e-06
2.59601e-06
2.61163e-06
2.62599e-06
2.63969e-06
2.65339e-06
2.6678e-06
2.68353e-06
2.70123e-06
2.7213e-06
2.74424e-06
2.77073e-06
2.80136e-06
2.83591e-06
2.87317e-06
2.92165e-06
2.9491e-06
3.06707e-06
8.09251e-07
8.93388e-07
9.77109e-07
1.05502e-06
1.12515e-06
1.18734e-06
1.24046e-06
1.2833e-06
1.31574e-06
1.339e-06
1.35528e-06
1.36711e-06
1.37734e-06
1.38666e-06
1.39796e-06
1.42786e-06
1.47736e-06
1.53261e-06
1.58929e-06
1.64455e-06
1.69788e-06
1.74952e-06
1.79971e-06
1.84805e-06
1.8943e-06
1.9387e-06
1.98144e-06
2.02251e-06
2.0619e-06
2.09958e-06
2.13552e-06
2.16963e-06
2.2019e-06
2.23211e-06
2.26041e-06
2.28613e-06
2.31137e-06
2.32826e-06
2.36432e-06
2.30862e-06
2.54385e-06
8.82485e-07
9.97819e-07
1.06311e-06
1.08016e-06
1.0692e-06
1.05921e-06
1.07668e-06
1.1353e-06
1.2325e-06
1.35485e-06
1.48663e-06
1.615e-06
1.73137e-06
1.83286e-06
1.91685e-06
1.96698e-06
1.98547e-06
1.98915e-06
1.9866e-06
1.98135e-06
1.9719e-06
1.96542e-06
1.95692e-06
1.94831e-06
1.94074e-06
1.93459e-06
1.93008e-06
1.92755e-06
1.92735e-06
1.92972e-06
1.93486e-06
1.94294e-06
1.95389e-06
1.96775e-06
1.98471e-06
2.00524e-06
2.02783e-06
2.05374e-06
2.08308e-06
2.10573e-06
2.19917e-06
8.01649
8.91519
8.90303
8.5161
7.52723
6.00063
4.10619
2.13527
0.560867
0.155926
0.0744385
0.00087222
4.0353e-06
0.000226349
0.000517234
0.000479324
0.000439146
0.000408514
0.000388332
0.000361829
0.000336429
0.000306255
0.000274713
0.000242427
0.000210598
0.000180655
0.000153065
0.000128787
0.000107597
8.98201e-05
7.48452e-05
6.26933e-05
5.27978e-05
4.47764e-05
3.83398e-05
3.30892e-05
2.876e-05
2.51458e-05
2.20316e-05
1.93103e-05
1.69222e-05
1.47025e-05
1.26494e-05
1.07989e-05
8.99469e-06
7.40628e-06
5.91002e-06
4.55784e-06
3.49942e-06
2.80725e-06
2.50871e-06
2.74897e-06
3.19732e-06
3.73911e-06
4.26398e-06
4.69766e-06
5.07817e-06
5.35838e-06
5.55539e-06
5.67117e-06
5.70193e-06
5.67547e-06
5.57662e-06
5.42471e-06
5.2395e-06
4.99508e-06
4.75634e-06
4.46821e-06
4.18629e-06
3.87202e-06
3.60273e-06
3.25628e-06
3.08867e-06
2.74441e-06
8.22686
12.4221
12.4587
11.5988
10.3534
8.67935
6.57174
4.17326
1.89728
0.31878
0.148015
0.0287125
0.00139131
1.84993e-05
0.000386402
0.000509463
0.000451406
0.000406266
0.000379165
0.000349397
0.000321669
0.000291457
0.00026065
0.000229904
0.00019987
0.000171966
0.000146107
0.00012327
0.000103335
8.65533e-05
7.22642e-05
6.05372e-05
5.09808e-05
4.31126e-05
3.68313e-05
3.16794e-05
2.74143e-05
2.38762e-05
2.08181e-05
1.81772e-05
1.58927e-05
1.37358e-05
1.17891e-05
1.0042e-05
8.33231e-06
6.87601e-06
5.47274e-06
4.24652e-06
3.32372e-06
2.77606e-06
2.57377e-06
2.8422e-06
3.26229e-06
3.75851e-06
4.23202e-06
4.62335e-06
4.96162e-06
5.20832e-06
5.37727e-06
5.47228e-06
5.48469e-06
5.44884e-06
5.3466e-06
5.1886e-06
5.00805e-06
4.76531e-06
4.53417e-06
4.25877e-06
3.98672e-06
3.6827e-06
3.43014e-06
3.09649e-06
2.94407e-06
2.62881e-06
5.74725
12.2303
14.3388
14.113
13.0476
11.4692
9.37378
6.78463
3.99273
1.56619
0.129848
0.111439
0.00813336
0.000277354
4.80454e-06
0.000432392
0.000481665
0.00041761
0.000375941
0.000341393
0.000309186
0.000277785
0.000246949
0.00021732
0.000188976
0.000162888
0.000139008
0.000117626
9.89702e-05
8.31197e-05
6.96016e-05
5.83015e-05
4.90855e-05
4.13886e-05
3.52394e-05
3.01852e-05
2.59932e-05
2.25342e-05
1.95528e-05
1.7014e-05
1.48366e-05
1.27734e-05
1.09652e-05
9.32853e-06
7.76629e-06
6.44603e-06
5.16462e-06
4.13014e-06
3.35809e-06
2.92149e-06
2.79571e-06
3.02471e-06
3.37619e-06
3.79186e-06
4.19356e-06
4.53031e-06
4.81468e-06
5.02035e-06
5.15898e-06
5.22782e-06
5.22911e-06
5.17392e-06
5.07285e-06
4.91627e-06
4.73694e-06
4.50885e-06
4.27665e-06
4.02151e-06
3.76303e-06
3.47555e-06
3.2381e-06
2.92327e-06
2.78902e-06
2.50331e-06
3.9097
10.5456
14.4937
15.5778
15.1537
13.9291
12.0826
9.6068
6.63943
3.62325
1.20204
0.0724167
0.0734158
0.00313884
3.35082e-05
1.73349e-05
0.000404543
0.000435773
0.00037893
0.000337366
0.000301068
0.000267879
0.000236516
0.000207436
0.00018036
0.000155688
0.000133332
0.000113215
9.55789e-05
8.04287e-05
6.74491e-05
5.64853e-05
4.74824e-05
3.99121e-05
3.38402e-05
2.88461e-05
2.47093e-05
2.13109e-05
1.84074e-05
1.59638e-05
1.38755e-05
1.19187e-05
1.02432e-05
8.71211e-06
7.29869e-06
6.09683e-06
4.94304e-06
4.07354e-06
3.42128e-06
3.05012e-06
2.96413e-06
3.14345e-06
3.42944e-06
3.77044e-06
4.10515e-06
4.39541e-06
4.63048e-06
4.80199e-06
4.91341e-06
4.96238e-06
4.95418e-06
4.88889e-06
4.78902e-06
4.63779e-06
4.4633e-06
4.2504e-06
4.02455e-06
3.78754e-06
3.54529e-06
3.27526e-06
3.05512e-06
2.75755e-06
2.64395e-06
2.38399e-06
2.87348
8.62713
13.4325
15.8243
16.3495
15.7573
14.4083
12.3421
9.57357
6.34977
3.21814
0.897015
0.10259
0.049226
0.000257601
3.55508e-06
6.61169e-05
0.000392306
0.000391477
0.000336964
0.00029546
0.000260833
0.000229065
0.000200344
0.000174178
0.000150576
0.000129245
0.000110083
9.32006e-05
7.85432e-05
6.58912e-05
5.51387e-05
4.62345e-05
3.8723e-05
3.26732e-05
2.77009e-05
2.35958e-05
2.02393e-05
1.74039e-05
1.50398e-05
1.30345e-05
1.1184e-05
9.62261e-06
8.19935e-06
6.91515e-06
5.82164e-06
4.79133e-06
4.03822e-06
3.47276e-06
3.14078e-06
3.063e-06
3.19157e-06
3.41716e-06
3.69261e-06
3.96714e-06
4.21783e-06
4.41052e-06
4.55578e-06
4.64379e-06
4.68071e-06
4.66326e-06
4.59852e-06
4.50125e-06
4.35702e-06
4.19275e-06
3.99306e-06
3.78192e-06
3.56152e-06
3.33716e-06
3.08439e-06
2.88422e-06
2.602e-06
2.5105e-06
2.27299e-06
2.33145
6.94797
11.7712
15.0272
16.4999
16.6982
16.035
14.6167
12.3931
9.41258
6.01539
2.84416
0.680396
0.11495
0.0324079
0.00528267
5.49707e-06
0.000102335
0.000365901
0.000349785
0.000294589
0.000255824
0.000223536
0.000195123
0.00016981
0.000147224
0.00012674
0.000108241
9.18346e-05
7.74455e-05
6.49282e-05
5.42432e-05
4.53404e-05
3.7824e-05
3.17498e-05
2.67649e-05
2.26659e-05
1.93335e-05
1.65517e-05
1.42559e-05
1.23289e-05
1.05785e-05
9.12178e-06
7.80735e-06
6.6381e-06
5.65142e-06
4.73364e-06
4.072e-06
3.56801e-06
3.26293e-06
3.16599e-06
3.23782e-06
3.39794e-06
3.60787e-06
3.82433e-06
4.02992e-06
4.18386e-06
4.30311e-06
4.37054e-06
4.39665e-06
4.37284e-06
4.30973e-06
4.21704e-06
4.08085e-06
3.92858e-06
3.74287e-06
3.54837e-06
3.34482e-06
3.13859e-06
2.90296e-06
2.72369e-06
2.45619e-06
2.38715e-06
2.16942e-06
2.12021
5.60592
9.96164
13.5274
15.6939
16.6539
16.7438
16.1035
14.6669
12.3365
9.20353
5.70498
2.54379
0.552211
0.112837
0.0223071
0.00391961
7.77117e-06
9.59258e-05
0.000323665
0.000307132
0.000255584
0.00022019
0.000191834
0.000166803
0.000144831
0.000125151
0.000107313
9.13557e-05
7.7162e-05
6.46535e-05
5.38847e-05
4.48572e-05
3.72388e-05
3.1074e-05
2.60371e-05
2.19199e-05
1.8595e-05
1.58537e-05
1.36164e-05
1.17575e-05
1.00989e-05
8.74243e-06
7.53128e-06
6.46853e-06
5.58288e-06
4.76352e-06
4.17853e-06
3.72035e-06
3.42891e-06
3.30037e-06
3.31113e-06
3.40212e-06
3.54348e-06
3.70108e-06
3.85527e-06
3.97076e-06
4.06113e-06
4.10881e-06
4.1222e-06
4.09411e-06
4.03045e-06
3.94301e-06
3.81566e-06
3.67477e-06
3.5044e-06
3.32559e-06
3.13919e-06
2.95092e-06
2.7322e-06
2.5735e-06
2.32026e-06
2.27375e-06
2.07278e-06
2.09554
4.56739
8.24965
11.6713
14.1735
15.707
16.4747
16.6054
16.0433
14.6202
12.2238
9.01116
5.46698
2.34134
0.502645
0.10793
0.0174428
0.00354527
6.66207e-06
5.59932e-05
0.000269443
0.000271763
0.00022325
0.000191058
0.000166956
0.000145176
0.000125253
0.000107284
9.1371e-05
7.72471e-05
6.47525e-05
5.39256e-05
4.47748e-05
3.70206e-05
3.07054e-05
2.55562e-05
2.1373e-05
1.80238e-05
1.53042e-05
1.31119e-05
1.13106e-05
9.73643e-06
8.47298e-06
7.35255e-06
6.38846e-06
5.59047e-06
4.85612e-06
4.33031e-06
3.90893e-06
3.61726e-06
3.45624e-06
3.40797e-06
3.43226e-06
3.50381e-06
3.60101e-06
3.70224e-06
3.77711e-06
3.83665e-06
3.86346e-06
3.86302e-06
3.8298e-06
3.76477e-06
3.68197e-06
3.56396e-06
3.43394e-06
3.27879e-06
3.11502e-06
2.94547e-06
2.77511e-06
2.57303e-06
2.43429e-06
2.19438e-06
2.17037e-06
1.98295e-06
2.15513
3.77933
6.71458
9.72019
12.2281
14.0695
15.3284
16.0974
16.3373
15.8761
14.4935
12.1014
8.87915
5.332
2.26082
0.516832
0.10699
0.0163964
0.00397745
3.23582e-06
1.03211e-05
0.000204033
0.000240876
0.000197576
0.000166037
0.000146068
0.000128327
0.000110724
9.41759e-05
7.91759e-05
6.58915e-05
5.44759e-05
4.49368e-05
3.69705e-05
3.05153e-05
2.52787e-05
2.10362e-05
1.76462e-05
1.49199e-05
1.27449e-05
1.09837e-05
9.48297e-06
8.30067e-06
7.26006e-06
6.38459e-06
5.66e-06
4.99744e-06
4.51465e-06
4.12084e-06
3.82136e-06
3.6288e-06
3.5262e-06
3.48767e-06
3.49124e-06
3.52669e-06
3.57533e-06
3.60681e-06
3.6335e-06
3.63719e-06
3.62178e-06
3.58139e-06
3.51469e-06
3.43531e-06
3.32604e-06
3.20666e-06
3.06585e-06
2.91691e-06
2.76358e-06
2.61093e-06
2.4251e-06
2.30589e-06
2.07827e-06
2.07661e-06
1.89979e-06
2.15719
3.15054
5.33421
7.80387
10.0925
11.9922
13.5113
14.7069