/*--------------------------------*- C++ -*----------------------------------*\
| =========                 |                                                 |
| \\      /  F ield         | OpenFOAM: The Open Source CFD Toolbox           |
|  \\    /   O peration     | Version:  2312                                  |
|   \\  /    A nd           | Website:  www.openfoam.com                      |
|    \\/     M anipulation  |                                                 |
\*---------------------------------------------------------------------------*/
FoamFile
{
    version     2.0;
    format      ascii;
    arch        "LSB;label=32;scalar=64";
    class       volVectorField;
    location    "500";
    object      momentError;
}
// * * * * * * * * * * * * * * * * * * * * * * * * * * * * * * * * * * * * * //

dimensions      [0 1 -2 0 0 0 0];

internalField   nonuniform List<vector> 
11040
(
(1.44624 -2.5613 -6.83231e-16)
(-1.05487 7.31776 -3.26839e-16)
(1.27662 5.7301 4.85056e-15)
(0.300658 -0.417555 6.99979e-16)
(0.315338 0.159108 3.882e-15)
(0.287165 0.0126273 -2.57289e-15)
(0.354408 0.0361286 -6.11521e-15)
(0.376538 0.0291097 -1.13677e-15)
(0.39323 0.0246035 -4.06758e-16)
(0.411366 0.0240513 2.1975e-15)
(0.429325 0.0246355 1.05273e-15)
(0.443408 0.02516 -5.90755e-16)
(0.450657 0.0242776 -9.94712e-16)
(0.455298 0.0225652 7.16735e-16)
(0.454848 0.0202805 -4.22605e-16)
(0.451993 0.0170612 -1.01501e-15)
(0.444213 0.0124215 7.88844e-16)
(0.428368 0.00641555 7.08092e-16)
(0.426506 0.00106035 -2.65421e-16)
(0.419161 -0.00524808 -5.41247e-17)
(0.40922 -0.0115247 5.93721e-16)
(0.41855 -0.0162927 -3.23462e-16)
(0.415995 -0.0199725 2.668e-16)
(0.404976 -0.0232892 1.30062e-16)
(0.385367 -0.0257845 -1.34987e-15)
(0.35749 -0.027025 -1.01377e-15)
(0.322314 -0.027814 -4.82911e-16)
(0.287882 -0.028652 -3.46143e-16)
(0.259303 -0.0298208 -1.131e-15)
(0.235098 -0.030841 4.92996e-16)
(0.243724 -0.0396397 1.14769e-15)
(0.284006 -0.0491942 2.4798e-15)
(0.335441 -0.00229829 3.03935e-15)
(0.475227 0.197104 -2.67006e-16)
(0.562595 0.342236 1.83381e-15)
(0.34081 0.0499971 6.50483e-16)
(0.0906115 -0.388708 1.40229e-15)
(0.132824 -0.373139 -4.27466e-16)
(0.069343 -0.0766435 -1.59255e-15)
(0.0191641 -0.0286739 -7.1117e-16)
(-0.243984 0.523646 -1.09299e-15)
(2.71405 -8.75347 8.02722e-16)
(0.036425 -3.05718 2.94776e-15)
(1.77437 6.83544 6.28831e-15)
(2.7322 4.1955 -1.16938e-15)
(0.954881 0.312854 -4.15024e-16)
(0.381919 0.109771 -3.67136e-17)
(0.439579 0.108641 1.81449e-15)
(0.522439 0.127823 9.28488e-16)
(0.550148 0.105959 -1.69253e-16)
(0.578137 0.0857118 -8.14968e-16)
(0.602939 0.0740792 1.77415e-15)
(0.622021 0.0631616 1.23014e-15)
(0.632131 0.0528473 1.36693e-15)
(0.639722 0.0425058 -5.03262e-17)
(0.638966 0.0336852 -2.31735e-16)
(0.633819 0.0261602 4.41125e-16)
(0.629333 0.0179176 3.98762e-16)
(0.631902 0.0098865 3.69548e-16)
(0.623621 0.00132437 -2.11243e-17)
(0.613842 -0.00839063 -8.73813e-17)
(0.59565 -0.0171889 -2.31491e-16)
(0.599685 -0.0233626 3.69011e-16)
(0.591103 -0.0272146 2.33709e-16)
(0.572873 -0.0303853 3.22596e-16)
(0.546101 -0.0321298 -3.71466e-16)
(0.519977 -0.0329585 -6.72701e-16)
(0.49807 -0.034575 6.94413e-16)
(0.483565 -0.0366277 5.28717e-16)
(0.483689 -0.0409296 -6.88571e-16)
(0.50253 -0.0498747 -1.00058e-15)
(0.525093 -0.061555 -9.76431e-16)
(0.555531 -0.0760212 -1.90823e-15)
(0.635375 -0.0985318 -1.40362e-16)
(0.716471 -0.118125 1.10672e-15)
(0.773651 -0.148136 -8.14916e-16)
(0.801131 -0.187677 2.36605e-16)
(0.847646 -0.19164 -1.46636e-16)
(0.911242 -0.129922 7.35063e-16)
(0.604363 -0.125393 -5.29814e-16)
(0.371316 -0.0286728 -6.58027e-16)
(0.357264 0.881193 1.23384e-16)
(0.848345 -3.09718 1.59718e-16)
(-0.73952 -6.91272 -1.37257e-15)
(-0.0841666 -4.68898 -7.70042e-15)
(2.26106 3.70101 2.90554e-15)
(3.36254 4.25252 1.08289e-15)
(1.42443 0.968325 4.14849e-16)
(0.529486 0.122598 1.68449e-15)
(0.578502 0.1242 3.92369e-16)
(0.604709 0.094879 -4.62987e-16)
(0.658023 0.0895375 -9.27218e-17)
(0.681906 0.0755247 -1.38558e-15)
(0.699782 0.0658615 5.78272e-16)
(0.709725 0.0542045 -3.91093e-17)
(0.718352 0.0432349 3.1647e-16)
(0.716732 0.0336951 7.71211e-16)
(0.710571 0.0259171 -2.40175e-17)
(0.706128 0.0177816 -2.95444e-16)
(0.696139 0.0103014 -6.1181e-17)
(0.68336 0.0027662 8.64649e-18)
(0.6673 -0.00626888 1.48061e-16)
(0.645333 -0.014215 2.67746e-16)
(0.646352 -0.0196186 -9.8427e-17)
(0.637389 -0.0226297 1.27673e-16)
(0.623561 -0.0254223 -2.91144e-16)
(0.606494 -0.0281283 1.84011e-16)
(0.591105 -0.031141 5.52328e-16)
(0.579867 -0.036516 -2.8042e-16)
(0.576668 -0.0435803 -3.45845e-16)
(0.585819 -0.0536152 1.84554e-16)
(0.61224 -0.067098 7.06928e-16)
(0.663632 -0.0867462 -3.2898e-16)
(0.759667 -0.114167 -2.56004e-16)
(0.90355 -0.150832 6.59664e-17)
(1.07478 -0.193039 1.4592e-16)
(1.25425 -0.240042 -6.04742e-16)
(1.39629 -0.259637 -1.52518e-15)
(1.53741 -0.230219 1.09649e-16)
(1.72411 -0.209364 5.62893e-16)
(1.41602 -0.22092 8.38168e-17)
(1.1345 0.0532763 8.10875e-16)
(1.47868 0.948041 8.32568e-17)
(0.962804 -2.77211 -2.69861e-16)
(0.107057 -4.40509 2.842e-17)
(-1.24276 -6.1984 1.74795e-15)
(-0.924275 -3.56256 -8.70857e-16)
(1.45567 1.60026 -1.62582e-15)
(3.04076 3.19416 2.64982e-15)
(1.97858 1.45143 1.05918e-15)
(0.625286 0.208449 4.17191e-16)
(0.643515 0.102045 -2.76342e-16)
(0.652006 0.0612046 5.16736e-16)
(0.695235 0.0540397 8.01912e-16)
(0.715962 0.054951 -9.18155e-16)
(0.721036 0.0407219 7.86037e-16)
(0.724959 0.0324468 4.22652e-16)
(0.723736 0.0246953 1.07807e-16)
(0.716504 0.0190367 -4.10984e-16)
(0.708485 0.0128102 -3.79954e-16)
(0.694378 0.00766576 -2.14195e-16)
(0.677732 0.00243164 4.09475e-17)
(0.658961 -0.00398958 -5.43476e-17)
(0.63597 -0.0091146 -3.25954e-17)
(0.635372 -0.0121313 -8.26417e-17)
(0.628642 -0.0134584 -1.82622e-16)
(0.620064 -0.0150528 -3.89083e-18)
(0.609899 -0.0176662 -7.63658e-16)
(0.600558 -0.0213743 -3.15625e-16)
(0.594716 -0.0288525 4.0357e-16)
(0.597693 -0.0399316 2.49857e-16)
(0.615722 -0.056718 6.26522e-16)
(0.656741 -0.079113 -3.78719e-16)
(0.729722 -0.109568 5.2087e-16)
(0.857979 -0.150217 -5.77208e-16)
(1.04175 -0.200998 -4.87419e-16)
(1.26695 -0.257362 4.29084e-16)
(1.51728 -0.316003 -1.33175e-16)
(1.75555 -0.347715 -9.06198e-17)
(2.01564 -0.326565 -5.28298e-16)
(2.35932 -0.290921 4.25481e-16)
(2.19718 -0.311525 -1.83095e-16)
(1.93234 0.0822708 -8.20997e-17)
(2.76037 0.998581 6.71203e-16)
(0.624545 -2.58674 2.19866e-16)
(0.423729 -2.69376 -1.47852e-16)
(-0.919651 -3.75313 -1.42102e-16)
(-1.64289 -4.65415 9.34858e-16)
(-1.38532 -3.41804 2.08941e-16)
(0.193391 -0.461337 -4.93752e-16)
(2.21883 1.88184 -6.18732e-16)
(2.2408 1.75872 -1.40698e-15)
(0.986165 0.361058 2.72441e-16)
(0.634171 0.0865518 -9.32102e-17)
(0.65851 0.0430869 4.47887e-16)
(0.67235 0.0226287 2.03079e-16)
(0.694967 0.0183074 -3.82397e-16)
(0.700808 0.0187487 -6.3512e-16)
(0.6947 0.0105982 2.12889e-16)
(0.683171 0.00880657 4.40286e-18)
(0.672256 0.00565647 -1.6912e-16)
(0.65576 0.00371944 -2.42726e-16)
(0.637403 0.00146862 -4.64497e-17)
(0.618281 -0.00183053 4.89516e-17)
(0.596132 -0.00409591 1.34488e-16)
(0.594534 -0.00458887 -2.6224e-16)
(0.588767 -0.0041492 -5.62332e-17)
(0.581909 -0.00411615 4.15293e-16)
(0.573763 -0.00564381 2.39168e-16)
(0.566372 -0.0090634 -2.6304e-16)
(0.562796 -0.0174854 2.42867e-16)
(0.568795 -0.0315952 1.95792e-16)
(0.591525 -0.0542179 -3.51318e-16)
(0.639334 -0.0855268 2.26991e-16)
(0.721054 -0.12707 -4.91356e-17)
(0.861957 -0.18138 7.74285e-16)
(1.06616 -0.248434 1.8448e-16)
(1.32357 -0.321958 -5.24156e-17)
(1.62369 -0.395711 1.47328e-16)
(1.93647 -0.442644 2.86422e-16)
(2.29269 -0.430237 -1.24069e-16)
(2.76627 -0.373825 2.0028e-16)
(2.81982 -0.397413 3.26145e-17)
(2.71059 0.0415986 -2.06926e-16)
(3.87908 0.850211 -1.85487e-16)
(0.458147 -2.24878 -4.50928e-17)
(0.226775 -2.1198 3.99013e-17)
(-0.437901 -2.33132 9.55121e-17)
(-1.05955 -3.28648 2.28969e-16)
(-1.64511 -3.7469 -9.28152e-16)
(-1.82403 -3.22231 1.28943e-16)
(-1.01544 -1.73775 -5.67673e-16)
(0.858083 0.387709 -8.82653e-16)
(1.94516 1.27484 1.70352e-16)
(1.46184 0.794416 -3.05892e-16)
(0.635418 0.0722637 -9.5123e-18)
(0.619664 0.0354132 1.07487e-17)
(0.631041 0.00630504 -1.48216e-17)
(0.639652 -0.0114057 -3.29735e-16)
(0.647185 -0.00572426 8.07895e-18)
(0.639453 -0.000685762 -1.84276e-16)
(0.623163 -0.00180031 -1.15156e-16)
(0.604649 -0.000507243 -8.44296e-17)
(0.584933 0.00012136 -3.96702e-17)
(0.566065 8.46427e-05 5.69709e-17)
(0.545219 0.000782874 5.19599e-17)
(0.542621 0.00300113 3.18808e-17)
(0.536717 0.00539851 -9.06108e-18)
(0.529881 0.00729693 -1.66469e-16)
(0.52179 0.00716831 1.29015e-16)
(0.514167 0.00430296 4.8566e-16)
(0.510099 -0.00476532 -3.99981e-16)
(0.515267 -0.0216423 -4.49823e-16)
(0.53674 -0.0495332 -1.74983e-16)
(0.582903 -0.0891793 1.70009e-16)
(0.662757 -0.141738 3.65807e-16)
(0.800218 -0.20983 -1.25139e-16)
(1.00739 -0.294207 -2.4145e-16)
(1.27698 -0.38651 -3.64636e-16)
(1.60531 -0.478213 -1.28239e-16)
(1.97035 -0.544242 5.7824e-16)
(2.39978 -0.546953 2.77804e-16)
(2.96588 -0.486513 -1.84926e-17)
(3.25153 -0.499303 4.25103e-16)
(3.47396 0.0588833 -2.95822e-16)
(4.79965 0.284193 -1.75773e-16)
(0.304852 -1.89742 6.69625e-17)
(0.0967125 -1.84554 -3.4047e-17)
(-0.262228 -1.68368 -9.75402e-17)
(-0.629789 -2.16322 -4.29661e-16)
(-1.12391 -2.72043 -3.64051e-16)
(-1.63306 -2.8527 3.14945e-16)
(-2.04759 -2.69567 3.97845e-16)
(-1.91576 -2.31124 -1.28324e-16)
(-0.694921 -1.13249 8.47245e-16)
(0.945659 0.260293 -4.60154e-16)
(1.48488 0.750819 2.58907e-16)
(0.92451 0.308023 -5.34699e-17)
(0.575712 0.0701078 5.89996e-16)
(0.565959 0.0033291 -6.57755e-16)
(0.568626 -0.0169041 1.36728e-16)
(0.568859 -0.0230181 -1.65027e-16)
(0.566452 -0.0108314 -1.53197e-18)
(0.55469 -0.00365205 8.47646e-17)
(0.534831 -0.000461794 -7.92296e-19)
(0.516732 0.00236597 -1.96445e-16)
(0.497215 0.005439 1.91194e-16)
(0.493717 0.0101679 -1.46658e-16)
(0.487018 0.0146376 -1.25335e-16)
(0.479091 0.0186337 1.99101e-16)
(0.469669 0.0202463 -1.41964e-16)
(0.460055 0.0183201 -1.3848e-16)
(0.452907 0.00901454 -1.11765e-16)
(0.453433 -0.0101818 -9.62587e-17)
(0.468217 -0.0428094 -1.57266e-17)
(0.505607 -0.0903628 1.83119e-16)
(0.574972 -0.153884 7.17554e-17)
(0.695965 -0.236015 1.66388e-16)
(0.891112 -0.339482 -2.27769e-16)
(1.15548 -0.453798 -3.99343e-16)
(1.49261 -0.568729 -1.956e-16)
(1.89001 -0.660913 4.43215e-16)
(2.37315 -0.689779 1.39188e-17)
(3.0013 -0.647568 -1.05948e-17)
(3.50071 -0.670441 1.79119e-16)
(4.03822 -0.278026 2.34933e-16)
(5.64149 -0.232326 -1.73883e-16)
(0.180112 -1.57707 -2.18252e-17)
(0.000120622 -1.55245 6.61066e-17)
(-0.217589 -1.31204 -2.52792e-17)
(-0.480583 -1.5227 2.16176e-17)
(-0.771573 -1.85722 1.48707e-16)
(-1.15122 -2.16241 6.23258e-16)
(-1.56051 -2.12269 -5.07826e-16)
(-1.98937 -2.00791 -8.42744e-16)
(-2.34922 -2.15185 1.52171e-16)
(-2.04849 -2.08545 4.46608e-16)
(-0.626519 -1.04186 1.49455e-15)
(0.719837 0.0334086 -1.71088e-15)
(1.07652 0.454582 7.14062e-16)
(0.670194 0.168302 -1.37179e-16)
(0.488641 0.0327721 -3.95684e-16)
(0.484574 -0.00873009 4.62181e-16)
(0.481907 -0.0201012 2.69175e-17)
(0.4798 -0.0186232 3.79101e-16)
(0.477548 -0.00362456 -2.25001e-16)
(0.46901 0.00410288 -2.12049e-16)
(0.454138 0.0095273 2.72617e-16)
(0.453008 0.0167583 -7.69516e-17)
(0.447569 0.0233771 -1.84546e-16)
(0.439321 0.02992 5.93101e-17)
(0.427955 0.0337477 7.89537e-17)
(0.414648 0.0332318 -5.94689e-17)
(0.402058 0.0243678 -1.07695e-16)
(0.394839 0.00374498 2.33587e-16)
(0.398655 -0.0327482 2.66288e-16)
(0.421607 -0.0875966 -1.41639e-16)
(0.473525 -0.162132 -2.31814e-16)
(0.56812 -0.258392 -8.36462e-17)
(0.738122 -0.383043 1.73203e-16)
(0.981311 -0.524002 1.08835e-16)
(1.30859 -0.669933 -4.37265e-17)
(1.71853 -0.798773 -1.22694e-16)
(2.23584 -0.871243 2.67456e-16)
(2.90428 -0.877614 -2.68327e-16)
(3.58288 -0.929693 5.8764e-17)
(4.39046 -0.743349 6.68728e-17)
(6.04956 -0.83112 1.72007e-16)
(0.0866631 -1.2847 -4.51333e-17)
(-0.0670556 -1.2836 1.05631e-17)
(-0.214955 -1.08233 -9.61103e-18)
(-0.375804 -1.13316 -1.56472e-16)
(-0.601191 -1.32027 5.97218e-17)
(-0.843529 -1.54907 -6.43111e-18)
(-1.14052 -1.71318 -1.36084e-16)
(-1.44309 -1.55037 5.19206e-16)
(-1.80291 -1.2973 -2.26686e-16)
(-2.36466 -1.55345 6.68709e-16)
(-2.76494 -2.16335 6.57035e-17)
(-2.22167 -2.10126 -2.9272e-16)
(-0.786337 -1.11073 6.50768e-17)
(0.440952 -0.0768004 -3.04552e-16)
(0.788486 0.311694 -4.26968e-16)
(0.50878 0.118289 2.60843e-17)
(0.393349 0.0215446 1.87994e-16)
(0.391978 -0.00620845 3.04378e-16)
(0.391463 -0.0116677 -3.79097e-17)
(0.392476 -0.00738864 -2.57282e-16)
(0.397897 0.008892 2.41138e-16)
(0.409962 0.0217013 1.53551e-17)
(0.412411 0.0311878 -4.72115e-17)
(0.40904 0.0408408 1.03374e-16)
(0.399766 0.047533 1.41227e-16)
(0.38511 0.0498644 1.73433e-16)
(0.366945 0.0430226 3.32492e-17)
(0.349682 0.0223844 1.89248e-17)
(0.339061 -0.0169865 -1.03027e-16)
(0.343148 -0.0781749 3.91219e-18)
(0.371932 -0.163646 -1.40917e-16)
(0.436291 -0.274217 3.73827e-17)
(0.565822 -0.421634 -6.76038e-17)
(0.771795 -0.594581 -7.95016e-17)
(1.06905 -0.781365 5.61028e-17)
(1.46772 -0.961135 8.96049e-17)
(1.99352 -1.10005 2.79327e-17)
(2.67922 -1.18753 1.61081e-17)
(3.47971 -1.30731 -9.33551e-17)
(4.46831 -1.33665 1.58594e-16)
(6.10945 -1.57762 2.88888e-17)
(0.0193908 -1.02619 1.49359e-16)
(-0.111274 -1.04056 -4.29472e-17)
(-0.22861 -0.899185 -1.37785e-16)
(-0.314934 -0.879197 1.57212e-16)
(-0.483081 -0.981882 -9.20171e-18)
(-0.672678 -1.10724 2.9647e-17)
(-0.878153 -1.25271 4.78143e-16)
(-1.10922 -1.34528 -9.13282e-16)
(-1.31929 -1.15859 -2.18404e-16)
(-1.55237 -0.754433 1.58695e-15)
(-2.02664 -0.741112 3.28514e-17)
(-2.76208 -1.48494 -1.27565e-16)
(-3.15463 -2.3092 -6.8785e-16)
(-2.46536 -2.13554 4.61259e-16)
(-1.00668 -1.11943 -1.09752e-15)
(0.197037 -0.11567 2.39674e-16)
(0.569277 0.239488 -4.80374e-17)
(0.387168 0.103682 2.66758e-16)
(0.301505 0.0229528 -1.10198e-16)
(0.306528 0.00186881 -2.95863e-16)
(0.314903 0.0011573 1.89577e-16)
(0.337016 0.0116858 -6.46419e-17)
(0.357787 0.0304183 -7.99851e-17)
(0.370962 0.0483189 1.14912e-16)
(0.373148 0.0607821 1.11552e-16)
(0.36539 0.0680357 -9.31586e-17)
(0.34829 0.0653251 5.41112e-17)
(0.325218 0.047225 1.12456e-16)
(0.301588 0.00817266 3.8826e-17)
(0.284773 -0.0570606 -6.54794e-17)
(0.2853 -0.15274 5.6467e-17)
(0.314695 -0.280585 6.89072e-17)
(0.391748 -0.448838 7.15214e-17)
(0.544024 -0.658756 6.01287e-17)
(0.787878 -0.896777 1.28155e-16)
(1.14356 -1.145 -1.44733e-16)
(1.63994 -1.37493 5.6305e-17)
(2.30537 -1.57393 6.06298e-18)
(3.14779 -1.80694 1.7116e-17)
(4.21394 -2.04063 -1.94873e-17)
(5.77501 -2.43258 -2.51884e-17)
(-0.026428 -0.804307 2.91557e-17)
(-0.136907 -0.825088 1.02182e-16)
(-0.230368 -0.72907 8.38658e-17)
(-0.298531 -0.70905 -4.37806e-17)
(-0.387809 -0.719258 -4.388e-17)
(-0.543968 -0.812426 1.30508e-16)
(-0.708634 -0.891748 9.18378e-17)
(-0.883255 -0.980001 -2.91441e-16)
(-1.06537 -1.04238 3.76459e-16)
(-1.21937 -0.893958 -5.67562e-16)
(-1.33635 -0.44633 -1.15196e-15)
(-1.5851 -0.100805 -2.72106e-16)
(-2.23742 -0.480225 4.10016e-16)
(-3.12194 -1.55781 -4.80505e-16)
(-3.47838 -2.3784 -4.6686e-16)
(-2.69117 -2.10572 6.35378e-16)
(-1.23288 -1.10356 -1.30942e-16)
(-0.0262095 -0.144803 6.90238e-16)
(0.398229 0.204143 7.81589e-17)
(0.305073 0.112768 -3.75508e-16)
(0.225967 0.029257 3.99869e-17)
(0.247817 0.0139358 -3.38737e-17)
(0.274916 0.0203479 -2.19671e-17)
(0.300644 0.037724 -1.05599e-16)
(0.321648 0.0602426 2.36477e-16)
(0.332361 0.0799634 -1.25455e-17)
(0.328465 0.0883107 -9.31147e-17)
(0.311354 0.0789155 2.97885e-18)
(0.284276 0.0452418 -2.98762e-17)
(0.252949 -0.0196609 3.07828e-17)
(0.226865 -0.121936 -1.46565e-16)
(0.218604 -0.265056 3.14486e-17)
(0.241727 -0.451439 8.68988e-17)
(0.320699 -0.698392 1.29172e-16)
(0.483765 -0.997118 9.48745e-17)
(0.756339 -1.32982 -9.01947e-17)
(1.17082 -1.67242 -1.09306e-16)
(1.755 -2.00777 -7.41736e-17)
(2.53729 -2.3923 -1.87432e-16)
(3.56161 -2.81569 -1.82163e-16)
(4.96826 -3.35029 -1.11538e-16)
(-0.0550743 -0.618082 7.82035e-17)
(-0.147804 -0.639861 7.96515e-17)
(-0.223286 -0.574984 -1.4399e-16)
(-0.282825 -0.565196 -4.36264e-17)
(-0.338871 -0.555898 1.19522e-16)
(-0.437741 -0.58885 -2.97582e-17)
(-0.57196 -0.648759 -1.13513e-16)
(-0.713837 -0.690863 3.90522e-17)
(-0.861574 -0.737137 1.05575e-15)
(-1.01215 -0.782274 -3.56495e-16)
(-1.13415 -0.695993 -8.78801e-16)
(-1.17913 -0.319839 1.06226e-15)
(-1.23524 0.207858 4.93112e-16)
(-1.5748 0.333747 7.48433e-17)
(-2.39543 -0.379943 1.31376e-16)
(-3.35492 -1.59246 -3.52956e-16)
(-3.67708 -2.3286 -1.2081e-16)
(-2.88644 -2.02737 2.0327e-16)
(-1.46706 -1.09417 5.53045e-16)
(-0.251265 -0.202073 -7.49738e-16)
(0.250756 0.166795 1.2668e-17)
(0.245982 0.133993 -1.03378e-17)
(0.196136 0.058844 -5.74903e-17)
(0.204355 0.0367092 -4.17872e-17)
(0.236107 0.0452356 1.61972e-16)
(0.263854 0.0687397 8.6271e-17)
(0.28027 0.0916886 -1.45181e-16)
(0.282132 0.101633 -7.60229e-17)
(0.266919 0.0864147 2.15798e-17)
(0.235993 0.0360388 -2.65518e-17)
(0.195177 -0.0594938 5.69134e-17)
(0.155902 -0.206942 -3.79652e-17)
(0.130678 -0.410264 5.27478e-17)
(0.131646 -0.679723 -1.10131e-17)
(0.192777 -1.03561 -1.12585e-16)
(0.340411 -1.45695 -2.42027e-17)
(0.608607 -1.92482 2.09935e-17)
(1.0308 -2.41492 6.45707e-17)
(1.63998 -2.97506 -2.11343e-17)
(2.48378 -3.57923 -4.53327e-17)
(3.63066 -4.25683 -1.92084e-17)
(-0.0702894 -0.465123 -6.34349e-17)
(-0.147644 -0.484669 4.02946e-17)
(-0.20875 -0.441204 -6.92632e-18)
(-0.260447 -0.437145 -1.36436e-16)
(-0.309832 -0.432397 1.47185e-17)
(-0.364087 -0.430905 6.42046e-17)
(-0.460042 -0.46282 -1.33399e-16)
(-0.574134 -0.495056 -2.35592e-16)
(-0.693878 -0.510011 2.3047e-17)
(-0.81859 -0.524886 -2.82996e-16)
(-0.945197 -0.550431 4.07432e-16)
(-1.04424 -0.515665 5.65003e-17)
(-1.07361 -0.273998 -2.66879e-16)
(-1.03025 0.221703 -2.90567e-16)
(-1.07792 0.68455 3.3938e-16)
(-1.51025 0.59221 4.59122e-16)
(-2.42293 -0.289123 -1.54026e-15)
(-3.41746 -1.50244 1.25581e-15)
(-3.72164 -2.16602 2.03483e-16)
(-3.03471 -1.93873 -5.30659e-16)
(-1.71489 -1.12412 3.58436e-16)
(-0.560088 -0.344275 -1.11261e-16)
(0.0469921 0.0938716 -9.89169e-17)
(0.172115 0.182573 -7.3263e-17)
(0.175308 0.140496 2.79816e-16)
(0.186331 0.09954 2.00877e-17)
(0.198211 0.0860572 -4.09075e-17)
(0.212477 0.0919359 -1.85097e-16)
(0.219177 0.0981726 1.12204e-16)
(0.205692 0.0807911 1.95084e-16)
(0.171349 0.0193376 -9.75037e-18)
(0.119645 -0.103076 -6.65354e-17)
(0.0599783 -0.295134 -3.03632e-17)
(0.00498444 -0.561116 -7.29752e-18)
(-0.0431252 -0.926829 -1.11949e-16)
(-0.0425402 -1.41366 3.67055e-17)
(0.0324387 -1.99731 -3.76692e-19)
(0.222228 -2.64116 -5.00681e-17)
(0.54906 -3.37783 2.96723e-18)
(1.06469 -4.16322 3.66337e-17)
(1.83139 -5.0099 4.56898e-17)
(-0.0757401 -0.341959 7.42321e-17)
(-0.139665 -0.357734 -5.65137e-17)
(-0.189036 -0.328738 -6.41712e-17)
(-0.233617 -0.327273 -1.99867e-17)
(-0.276287 -0.324845 1.5091e-16)
(-0.317404 -0.320285 -1.03759e-17)
(-0.370445 -0.320065 8.06202e-17)
(-0.460008 -0.343923 1.81527e-16)
(-0.555512 -0.356312 7.32958e-17)
(-0.655131 -0.353868 -5.59359e-16)
(-0.758033 -0.345969 -2.99511e-16)
(-0.858242 -0.347955 -8.45939e-17)
(-0.945903 -0.33917 -5.43131e-16)
(-0.982448 -0.221188 4.08619e-16)
(-0.928948 0.118243 1.43231e-15)
(-0.83085 0.628387 -7.67482e-16)
(-0.888335 0.973974 -2.13358e-16)
(-1.33049 0.798908 3.07958e-16)
(-2.28546 -0.135354 -3.41585e-16)
(-3.26366 -1.2682 9.70968e-16)
(-3.65328 -1.92432 -1.72665e-16)
(-3.35275 -1.95929 -4.86866e-16)
(-2.3803 -1.42835 -7.26761e-16)
(-1.29022 -0.743742 3.62717e-16)
(-0.468257 -0.165688 4.01442e-16)
(-0.0756133 0.152875 3.27054e-17)
(0.0614335 0.258717 4.24618e-17)
(0.126558 0.252786 1.69805e-17)
(0.15931 0.204746 5.00322e-18)
(0.158632 0.147042 1.13443e-16)
(0.129215 0.0786946 8.21653e-17)
(0.0770976 -0.0168249 -1.52823e-16)
(0.0103297 -0.151928 1.5859e-17)
(-0.0768374 -0.364639 -1.38547e-17)
(-0.177745 -0.673653 -7.21159e-17)
(-0.302456 -1.10962 4.91319e-18)
(-0.422098 -1.70357 1.13976e-16)
(-0.490808 -2.42679 -5.83523e-17)
(-0.50553 -3.29993 -3.35729e-17)
(-0.404977 -4.26344 -2.06524e-17)
(-0.124842 -5.32061 1.34264e-17)
(-0.0745812 -0.245148 -2.55596e-17)
(-0.126758 -0.256482 4.37346e-17)
(-0.166407 -0.236976 1.51978e-17)
(-0.204205 -0.236276 8.33802e-17)
(-0.240671 -0.234593 -7.53737e-17)
(-0.275982 -0.231014 3.22164e-17)
(-0.310301 -0.225911 1.04586e-17)
(-0.368314 -0.22963 -5.34108e-17)
(-0.442969 -0.237669 1.90365e-16)
(-0.521741 -0.236396 1.8137e-16)
(-0.602429 -0.222764 -4.88894e-16)
(-0.680999 -0.199714 8.67824e-16)
(-0.760293 -0.181833 7.71346e-16)
(-0.834609 -0.17297 -7.68255e-16)
(-0.880516 -0.128917 -4.74916e-16)
(-0.857945 0.0432764 -3.63741e-16)
(-0.747393 0.407532 8.42629e-16)
(-0.626963 0.861026 -8.13958e-16)
(-0.669701 1.14029 1.76887e-16)
(-1.09431 0.947821 4.07369e-16)
(-1.99116 0.116975 -2.74727e-16)
(-3.09263 -0.911814 -2.76392e-16)
(-3.76102 -1.66139 1.2777e-16)
(-3.8172 -1.9561 1.87035e-16)
(-3.33733 -1.80732 -3.10747e-16)
(-2.53646 -1.36886 6.42019e-17)
(-1.64557 -0.795381 3.01953e-16)
(-0.916976 -0.257926 -5.18711e-16)
(-0.478697 0.127183 1.36358e-16)
(-0.251788 0.336212 1.48658e-16)
(-0.130615 0.381326 -3.94117e-17)
(-0.0827774 0.295158 -1.37832e-16)
(-0.105153 0.121999 3.18451e-17)
(-0.186739 -0.108862 1.86433e-16)
(-0.31288 -0.393673 2.91831e-17)
(-0.463751 -0.742496 -9.70048e-18)
(-0.643411 -1.18066 -5.2328e-17)
(-0.862263 -1.72574 -3.1874e-17)
(-1.16931 -2.54595 -7.32245e-17)
(-1.4486 -3.51361 1.7505e-17)
(-1.66511 -4.66081 5.26349e-17)
(-0.0690523 -0.170922 -3.42701e-17)
(-0.111274 -0.178209 4.13666e-17)
(-0.142797 -0.164764 -3.42432e-17)
(-0.174188 -0.163749 -1.40311e-16)
(-0.204781 -0.161795 2.89348e-17)
(-0.23458 -0.15842 -6.32595e-17)
(-0.263945 -0.153578 -4.11295e-17)
(-0.297158 -0.148163 4.23407e-17)
(-0.351339 -0.148644 -5.61203e-17)
(-0.412989 -0.145782 7.28115e-18)
(-0.476402 -0.135332 -3.2206e-16)
(-0.537472 -0.11503 2.91676e-16)
(-0.59741 -0.0856581 -2.12837e-16)
(-0.65677 -0.0551756 -7.14095e-16)
(-0.714616 -0.03429 9.67909e-16)
(-0.760775 -0.0149438 3.76191e-16)
(-0.769655 0.0500271 2.08515e-16)
(-0.706826 0.234695 -6.5874e-18)
(-0.568122 0.572132 -1.91441e-16)
(-0.425792 0.970582 -1.53706e-16)
(-0.440242 1.21831 -7.2774e-17)
(-0.84247 1.15607 1.94814e-16)
(-1.61421 0.608712 -3.99384e-16)
(-2.53725 -0.174656 -1.45781e-17)
(-3.4015 -0.96424 1.66213e-16)
(-3.93086 -1.53955 -1.57878e-16)
(-4.09851 -1.82882 -4.07829e-16)
(-3.89573 -1.82277 5.03971e-16)
(-3.39408 -1.57029 5.27452e-16)
(-2.71323 -1.14097 -4.06517e-16)
(-2.04036 -0.659709 -1.19886e-16)
(-1.52793 -0.243989 -6.00621e-17)
(-1.20732 0.038191 -8.8519e-17)
(-1.02657 0.151642 2.89204e-16)
(-0.956593 0.0790802 -1.07036e-16)
(-0.985297 -0.173011 -4.86e-17)
(-1.10285 -0.573758 7.1652e-17)
(-1.26855 -1.077 -5.9218e-18)
(-1.52976 -1.69079 7.70845e-17)
(-1.85295 -2.37712 6.46043e-17)
(-2.25972 -3.23508 -1.02497e-18)
(-0.0609135 -0.113488 3.13684e-18)
(-0.094728 -0.117948 5.19435e-17)
(-0.119531 -0.108707 1.86001e-17)
(-0.145086 -0.10722 -2.04667e-17)
(-0.170219 -0.104837 -5.44472e-17)
(-0.194913 -0.10131 -2.33521e-18)
(-0.219397 -0.0966324 5.37181e-17)
(-0.243873 -0.0908292 5.30996e-17)
(-0.276212 -0.0843286 -9.46302e-18)
(-0.323873 -0.0796466 -1.01684e-16)
(-0.37331 -0.0695426 -2.49765e-16)
(-0.421244 -0.0535749 2.2465e-16)
(-0.467675 -0.0308317 -2.85915e-16)
(-0.511752 -0.000630252 -2.13875e-16)
(-0.553759 0.0341712 3.69214e-16)
(-0.594416 0.0655116 2.41776e-16)
(-0.631687 0.0871605 3.4319e-16)
(-0.654145 0.111027 -5.93425e-16)
(-0.638429 0.17704 -3.25036e-16)
(-0.555342 0.342228 1.02894e-15)
(-0.40312 0.624868 -5.24178e-16)
(-0.275179 1.0067 -1.15571e-16)
(-0.248062 1.30622 1.13777e-16)
(-0.442209 1.39265 -3.42596e-16)
(-0.867995 1.23733 5.5448e-16)
(-1.55706 0.789079 -3.55847e-16)
(-2.35142 0.186988 -4.44146e-16)
(-3.14117 -0.456804 2.21638e-16)
(-3.77889 -1.02221 1.61e-16)
(-4.21592 -1.43397 7.0036e-16)
(-4.40903 -1.65954 -4.01461e-16)
(-4.34775 -1.68421 -3.24521e-16)
(-4.07374 -1.54036 2.08542e-16)
(-3.67159 -1.29681 1.45462e-17)
(-3.2796 -1.05292 -5.29127e-17)
(-2.98038 -0.884393 3.74449e-17)
(-2.81061 -0.842185 2.22709e-18)
(-2.72138 -0.940469 5.0983e-17)
(-2.7779 -1.21304 -5.50815e-17)
(-2.9321 -1.63296 1.51618e-17)
(-3.19326 -2.18992 -2.15029e-17)
(-0.0551859 -0.0772393 -2.21676e-17)
(-0.0824628 -0.0783999 1.86359e-17)
(-0.102153 -0.0712943 6.23091e-18)
(-0.122624 -0.0686398 -1.10038e-18)
(-0.142698 -0.0652365 7.61311e-17)
(-0.162404 -0.060964 -2.86498e-17)
(-0.181925 -0.0558775 -1.0439e-16)
(-0.201463 -0.0498275 7.42356e-17)
(-0.221815 -0.0428793 2.79237e-16)
(-0.255062 -0.0352107 -3.18757e-16)
(-0.293973 -0.0250712 -4.92879e-17)
(-0.332252 -0.0107088 4.88751e-16)
(-0.369516 0.00793595 -3.47654e-16)
(-0.404685 0.0313088 1.22549e-16)
(-0.437001 0.0601058 -6.31452e-17)
(-0.466194 0.09395 -7.70795e-16)
(-0.492971 0.128934 1.34225e-15)
(-0.518193 0.157871 4.16472e-16)
(-0.539411 0.1768 -1.14945e-15)
(-0.545848 0.197083 9.88143e-16)
(-0.514308 0.251352 -8.24607e-17)
(-0.45056 0.404194 -7.85869e-16)
(-0.322603 0.638062 1.31853e-16)
(-0.165864 0.942719 3.39298e-16)
(-0.0413339 1.25213 -5.89672e-16)
(-0.00334173 1.5074 3.01242e-17)
(-0.121513 1.62194 1.07685e-16)
(-0.419037 1.5557 5.66908e-17)
(-0.895542 1.30123 -4.26674e-16)
(-1.51038 0.887902 3.62139e-16)
(-2.19083 0.376663 5.28138e-16)
(-2.86205 -0.160863 -7.94375e-17)
(-3.4732 -0.663428 -1.94528e-16)
(-3.94234 -1.07329 -3.47179e-16)
(-4.29966 -1.38633 7.65579e-17)
(-4.5017 -1.58502 2.21189e-17)
(-4.58643 -1.71027 5.78977e-17)
(-4.55345 -1.78287 2.15886e-17)
(-4.55682 -1.89448 7.76017e-17)
(-4.60333 -2.06427 4.76208e-17)
(-4.76005 -2.3498 -3.42639e-17)
(-0.0496183 -0.0523822 -2.69406e-17)
(-0.0717831 -0.0513899 -3.78375e-17)
(-0.0876457 -0.0455348 -2.68355e-18)
(-0.10411 -0.0421115 6.1766e-17)
(-0.120187 -0.0380604 4.07631e-17)
(-0.135924 -0.0333649 -3.23032e-17)
(-0.151497 -0.0280489 -3.53713e-18)
(-0.167064 -0.0220413 3.43836e-17)
(-0.182737 -0.0152496 -1.53068e-16)
(-0.202541 -0.00696125 -3.93735e-17)
(-0.233745 0.00279928 4.91642e-16)
(-0.264665 0.0160163 9.6046e-17)
(-0.294951 0.0323885 -7.13898e-16)
(-0.323658 0.0519814 1.7795e-16)
(-0.350056 0.0748697 2.2332e-16)
(-0.373427 0.101372 -9.72726e-16)
(-0.393168 0.131784 1.48927e-17)
(-0.409347 0.164991 5.07719e-16)
(-0.423126 0.196894 5.87788e-16)
(-0.435784 0.221371 -3.61939e-16)
(-0.445099 0.235002 1.52764e-16)
(-0.467517 0.266481 3.592e-16)
(-0.45487 0.31379 -6.61044e-16)
(-0.399022 0.405255 -2.2949e-16)
(-0.29207 0.556996 7.34544e-17)
(-0.140591 0.768126 2.24978e-16)
(0.0347387 1.02207 -1.17189e-16)
(0.200047 1.28524 2.34028e-16)
(0.317933 1.51607 -1.29175e-16)
(0.351648 1.67158 -3.95932e-17)
(0.270481 1.71332 2.65122e-16)
(0.0587938 1.6142 -1.98283e-16)
(-0.260261 1.40335 -7.94209e-17)
(-0.719298 1.03721 2.97405e-16)
(-1.21108 0.610101 -3.31645e-16)
(-1.7547 0.145289 2.0429e-16)
(-2.29168 -0.322076 1.36922e-16)
(-2.78649 -0.754083 -2.37495e-16)
(-3.27196 -1.15912 5.29648e-17)
(-3.69728 -1.51677 9.07814e-17)
(-4.11658 -1.84867 1.36484e-17)
(-0.0441717 -0.0344072 -6.88904e-18)
(-0.0622477 -0.0321543 -1.75318e-17)
(-0.0751109 -0.02713 -7.7626e-18)
(-0.0884358 -0.0233325 3.15607e-17)
(-0.101383 -0.0190059 6.20869e-19)
(-0.114043 -0.014184 -7.90871e-18)
(-0.126559 -0.00888245 -6.38019e-18)
(-0.13909 -0.00305999 1.09985e-17)
(-0.15172 0.00343907 4.24487e-17)
(-0.164976 0.0106281 -4.68227e-17)
(-0.187604 0.0204001 6.3922e-17)
(-0.21267 0.0325323 -7.45484e-17)
(-0.237455 0.0471518 5.76717e-17)
(-0.261065 0.0641868 3.25036e-16)
(-0.282853 0.0835564 -4.12818e-16)
(-0.3023 0.105139 -1.95961e-16)
(-0.318812 0.12889 -1.02894e-16)
(-0.33172 0.154999 7.57296e-17)
(-0.340752 0.183312 2.86863e-16)
(-0.346287 0.212658 -1.36244e-16)
(-0.34994 0.23846 -4.02394e-16)
(-0.374541 0.274049 3.22579e-16)
(-0.39283 0.297721 3.48e-16)
(-0.403872 0.319086 -5.84985e-16)
(-0.397783 0.347002 2.51554e-16)
(-0.364112 0.392947 1.80954e-16)
(-0.294883 0.467276 -3.04569e-16)
(-0.186176 0.576613 5.61041e-16)
(-0.040745 0.720949 -1.52172e-16)
(0.130627 0.891704 -4.51304e-16)
(0.310387 1.07249 2.62546e-21)
(0.476429 1.2418 5.03852e-16)
(0.602121 1.37292 -4.07278e-16)
(0.67898 1.45135 -1.36992e-16)
(0.670319 1.44826 2.89681e-16)
(0.575576 1.36186 2.50805e-17)
(0.392102 1.19523 -5.47745e-17)
(0.125016 0.944503 -2.7679e-17)
(-0.22039 0.639542 2.43761e-17)
(-0.612189 0.306785 -3.66112e-18)
(-1.0781 -0.0471673 4.60396e-17)
(-0.0389905 -0.0212748 1.35496e-17)
(-0.0537737 -0.0183545 -2.28626e-17)
(-0.0642179 -0.0139275 -4.60096e-18)
(-0.0750308 -0.0100069 -1.11538e-18)
(-0.0854979 -0.00564084 1.79009e-17)
(-0.0957263 -0.000875131 -1.36169e-17)
(-0.105843 0.00427266 2.13565e-17)
(-0.115984 0.00984689 2.35059e-17)
(-0.126235 0.0159599 -6.1172e-17)
(-0.136781 0.0226721 -4.04842e-17)
(-0.151301 0.0312797 9.66631e-18)
(-0.171856 0.0424548 -9.46064e-17)
(-0.192254 0.0557534 -5.81606e-17)
(-0.211834 0.0708105 1.49735e-16)
(-0.229986 0.0876002 1.10163e-16)
(-0.246274 0.105972 4.9741e-18)
(-0.260313 0.125706 -4.52862e-17)
(-0.271621 0.146595 -8.02187e-17)
(-0.279752 0.168494 1.67958e-16)
(-0.284193 0.191566 2.06593e-16)
(-0.284948 0.214821 1.54078e-17)
(-0.300193 0.252427 -3.68559e-16)
(-0.311093 0.284313 -3.96021e-17)
(-0.322697 0.312679 2.3762e-16)
(-0.334211 0.335698 3.1833e-16)
(-0.343311 0.353425 -1.63129e-16)
(-0.345981 0.368377 -4.15658e-16)
(-0.336801 0.384989 -3.54588e-16)
(-0.309936 0.40885 1.31521e-16)
(-0.260592 0.445316 3.03321e-16)
(-0.186418 0.498136 -5.39518e-17)
(-0.0883976 0.568352 1.07179e-16)
(0.0290744 0.65413 -2.14078e-17)
(0.157061 0.747148 2.97115e-17)
(0.285998 0.84343 -2.08924e-16)
(0.402389 0.93249 1.32142e-16)
(0.494251 1.00555 6.28646e-18)
(0.548071 1.04459 6.65684e-17)
(0.55746 1.06015 -9.08906e-17)
(0.513976 1.04104 1.16121e-16)
(0.408921 0.988767 -2.25326e-17)
(-0.0341836 -0.0116701 3.22601e-17)
(-0.0462729 -0.00842643 -1.54588e-17)
(-0.0547637 -0.0044793 2.1812e-17)
(-0.0635429 -0.000580749 -1.85489e-17)
(-0.0720231 0.0036908 -3.59239e-17)
(-0.0803079 0.00829559 2.57257e-17)
(-0.0885126 0.0132169 -2.69025e-17)
(-0.0967459 0.0185085 7.33849e-17)
(-0.105106 0.0242369 -1.57015e-16)
(-0.113731 0.0305477 3.76511e-18)
(-0.123314 0.0377754 2.68825e-16)
(-0.13941 0.0480936 -2.81606e-16)