/*--------------------------------*- C++ -*----------------------------------*\
| =========                 |                                                 |
| \\      /  F ield         | OpenFOAM: The Open Source CFD Toolbox           |
|  \\    /   O peration     | Version:  2312                                  |
|   \\  /    A nd           | Website:  www.openfoam.com                      |
|    \\/     M anipulation  |                                                 |
\*---------------------------------------------------------------------------*/
FoamFile
{
    version     2.0;
    format      ascii;
    arch        "LSB;label=32;scalar=64";
    class       volScalarField;
    location    "500";
    object      nut;
}
// * * * * * * * * * * * * * * * * * * * * * * * * * * * * * * * * * * * * * //

dimensions      [0 2 -1 0 0 0 0];

internalField   nonuniform List<scalar> 
11040
(
3.72569e-05
5.47988e-05
1.63724e-05
4.70091e-05
0.00018838
0.000184065
0.000174667
0.000165471
0.000153
0.000145623
0.00013714
0.000129567
0.000122687
0.000116684
0.000111462
0.000107771
0.00010586
0.000106198
0.000108698
0.000112874
0.00011863
0.000125754
0.000134002
0.000143241
0.000153759
0.000166367
0.000180468
0.000194596
0.000208213
0.000220745
0.000231666
0.00024053
0.000247454
0.00025629
0.000274878
0.000284777
0.000246771
0.000184386
0.000198423
0.000216549
0.000312552
4.12769e-06
3.60816e-05
5.63642e-05
0.00013703
0.000596251
0.000634677
0.000554845
0.000515589
0.000448046
0.000415081
0.00037684
0.000345877
0.000318197
0.000295543
0.000275298
0.00025942
0.00024852
0.000244037
0.000245491
0.000250052
0.000257075
0.000266262
0.000275983
0.000285271
0.000295855
0.000315181
0.000344225
0.00037754
0.000414547
0.000455225
0.000499769
0.000548605
0.00060206
0.000660505
0.000726305
0.000797001
0.000870483
0.000952858
0.00104557
0.00114936
0.00166186
5.60633e-06
9.16952e-06
3.01432e-05
6.14446e-05
0.00040034
0.000950511
0.0011895
0.00116266
0.00101679
0.000950335
0.000866141
0.000798866
0.000737632
0.000687671
0.000643509
0.000606986
0.000579063
0.000557968
0.000545785
0.000541787
0.00054672
0.00056163
0.000587033
0.000623788
0.000671861
0.00073102
0.000801441
0.000883155
0.000974212
0.00107392
0.00118168
0.00129684
0.00141901
0.00154867
0.00168694
0.00183482
0.00199683
0.00218503
0.00240102
0.00265897
0.00354222
6.50375e-06
5.14633e-06
1.05831e-05
1.10299e-05
0.000131196
0.000572852
0.00127681
0.00170793
0.00179223
0.00172102
0.00158116
0.0014684
0.00136303
0.00127604
0.00119699
0.00112829
0.00107747
0.00103779
0.00101415
0.00100548
0.00101239
0.00103784
0.00108397
0.00115198
0.00124118
0.00135046
0.00147899
0.00162542
0.00178863
0.00196726
0.00215979
0.00236479
0.00258114
0.00280904
0.00304953
0.00330524
0.00358491
0.00390813
0.00428918
0.00475504
0.00597014
6.20766e-06
5.80816e-06
6.35915e-06
5.58317e-06
4.55208e-06
0.000164859
0.00067496
0.00151678
0.00223751
0.00246869
0.00249894
0.00240873
0.00225001
0.00211348
0.00199456
0.00188122
0.00180048
0.00173497
0.00169431
0.00167826
0.00168531
0.00172072
0.00178993
0.0018949
0.00203453
0.00220754
0.00241231
0.00264614
0.00290681
0.0031919
0.00349822
0.00382277
0.00416323
0.0045193
0.00489169
0.00528377
0.00570767
0.0061925
0.00677196
0.00748795
0.00897542
6.10477e-06
6.20354e-06
5.89214e-06
6.60682e-06
1.90286e-06
7.92084e-07
0.000156435
0.000688485
0.0016494
0.00267835
0.003193
0.00337944
0.00338366
0.00328781
0.00311298
0.00293523
0.0028148
0.00271368
0.00264639
0.00261834
0.00262227
0.00266517
0.00275896
0.00290738
0.00310867
0.00336186
0.00366455
0.00401195
0.00439925
0.00482268
0.0052763
0.00575433
0.00625224
0.00676861
0.00730318
0.00785907
0.00845141
0.00911952
0.0099192
0.0109152
0.0126609
6.11108e-06
6.14018e-06
6.03018e-06
6.32259e-06
6.02293e-06
5.70575e-07
2.60276e-09
0.000102051
0.000612406
0.00162191
0.00291593
0.00389909
0.00430602
0.00447315
0.00447643
0.00438272
0.0042315
0.00406836
0.00396039
0.00391424
0.00391181
0.00395728
0.00407414
0.00427056
0.0045433
0.00489265
0.00531622
0.00580659
0.00635361
0.00695187
0.00759133
0.00826136
0.00895333
0.00966372
0.0103903
0.0111344
0.0119132
0.0127763
0.0138011
0.0150899
0.017109
6.11788e-06
6.11633e-06
6.13741e-06
6.05792e-06
6.52144e-06
6.18983e-06
5.1169e-08
9.89219e-12
3.52933e-05
0.000465176
0.00142204
0.00288353
0.00436561
0.00524097
0.00563259
0.00579915
0.00583384
0.00578757
0.00571553
0.00565281
0.00564484
0.00570193
0.00584463
0.006095
0.00644751
0.00690629
0.00747225
0.00813721
0.00887983
0.00969313
0.0105616
0.0114668
0.012392
0.0133303
0.0142764
0.0152271
0.0161995
0.0172532
0.0184832
0.0200441
0.0223266
6.11724e-06
6.12175e-06
6.11777e-06
6.13948e-06
6.00763e-06
7.07048e-06
5.61746e-06
2.18025e-07
1.9278e-07
6.49412e-08
0.000270345
0.00107795
0.00254259
0.00439861
0.00597137
0.00679848
0.00722623
0.00744937
0.0075809
0.00766948
0.00777016
0.00791214
0.00814106
0.00849221
0.00896701
0.00956464
0.0102896
0.011146
0.0121205
0.0131903
0.0143338
0.0155214
0.0167214
0.0179199
0.0191089
0.0202764
0.0214334
0.022651
0.0240354
0.0257929
0.0282796
6.11696e-06
6.11907e-06
6.11971e-06
6.1247e-06
6.10981e-06
6.05018e-06
7.23748e-06
5.21199e-06
7.31461e-07
9.74007e-09
1.6309e-05
0.000113918
0.000692846
0.00197305
0.00394259
0.00613419
0.00778389
0.00866118
0.00920483
0.00959096
0.00994073
0.0103039
0.0107427
0.0113095
0.0120288
0.0129062
0.0139347
0.0150968
0.0163693
0.0177376
0.0191961
0.0207118
0.022224
0.0237036
0.0251455
0.0265282
0.0278378
0.0291598
0.0306248
0.0324249
0.0349604
6.11571e-06
6.11732e-06
6.11913e-06
6.11564e-06
6.13264e-06
6.06928e-06
6.17272e-06
6.92318e-06
6.24489e-06
1.48327e-06
7.26354e-09
3.70276e-07
6.82136e-09
0.000315047
0.00127165
0.00306453
0.00553117
0.00806439
0.00989306
0.0109688
0.0117762
0.0124847
0.0132241
0.0140894
0.0151396
0.0164015
0.0178777
0.0195538
0.0213961
0.0233561
0.025371
0.0273614
0.0292508
0.0310186
0.0327088
0.0343043
0.0357086
0.0370181
0.03844
0.0400871
0.0423776
6.1144e-06
6.11587e-06
6.11613e-06
6.11696e-06
6.11514e-06
6.12319e-06
6.07898e-06
6.1494e-06
6.69955e-06
6.78328e-06
2.77913e-06
1.46536e-08
7.66565e-10
1.46928e-05
5.65246e-05
0.000619793
0.00196916
0.00426426
0.00724021
0.010219
0.0124434
0.0138996
0.0151179
0.0163591
0.0177715
0.0194336
0.0213715
0.0235879
0.0260523
0.0287092
0.0314867
0.0343001
0.0370543
0.0396532
0.0419931
0.0439389
0.0453917
0.0465064
0.0477614
0.0490434
0.0507038
6.11314e-06
6.11415e-06
6.1144e-06
6.11448e-06
6.11465e-06
6.11477e-06
6.11615e-06
6.09388e-06
6.1058e-06
6.52666e-06
6.95997e-06
4.62911e-06
3.69171e-07
3.3052e-09
3.65784e-08
8.06132e-05
0.000205649
0.000977222
0.00269638
0.00547617
0.00902285
0.0125477
0.015301
0.0173566
0.0192741
0.021368
0.0237345
0.0264316
0.0294528
0.0327409
0.0362191
0.0397959
0.0433666
0.0468292
0.0500758
0.0529911
0.0554685
0.057445
0.0588522
0.0596419
0.06037
6.11191e-06
6.1126e-06
6.11295e-06
6.1131e-06
6.11309e-06
6.11299e-06
6.11254e-06
6.11438e-06
6.09512e-06
6.09071e-06
6.31678e-06
7.05569e-06
6.03112e-06
2.45005e-06
1.4384e-11
3.18347e-11
1.0353e-06
0.000143471
0.000286463
0.00126953
0.00330995
0.00640504
0.0101508
0.0141072
0.017791
0.0209852
0.0239714
0.0271484
0.0306632
0.0344897
0.0385647
0.0428061
0.0471
0.0513353
0.0553986
0.0591753
0.0625692
0.0655199
0.0679635
0.0698648
0.0712878
6.1107e-06
6.11183e-06
6.1121e-06
6.11196e-06
6.11151e-06
6.1112e-06
6.11088e-06
6.11087e-06
6.11185e-06
6.10183e-06
6.07591e-06
6.21437e-06
6.69426e-06
7.07184e-06
4.65979e-06
2.12585e-07
2.7042e-09
3.05303e-12
2.90203e-06
0.000184862
0.000335986
0.00135697
0.00324483
0.00607205
0.00970951
0.0139469
0.0185498
0.0232504
0.0278575
0.0324139
0.0370861
0.0419432
0.0469105
0.0518678
0.0566973
0.0612843
0.0655307
0.0693851
0.0727796
0.075655
0.0780137
6.10955e-06
6.11105e-06
6.11102e-06
6.11079e-06
6.11061e-06
6.11049e-06
6.11044e-06
6.11029e-06
6.11052e-06
6.11098e-06
6.10719e-06
6.08019e-06
6.13245e-06
6.35645e-06
7.31953e-06
6.02678e-06
3.10556e-06
4.02902e-08
1.06578e-09
1.34003e-13
4.36789e-06
0.000160716
0.000179156
0.000884658
0.00224389
0.00440922
0.00743056
0.0113039
0.0159957
0.0214409
0.0274695
0.0337629
0.0399939
0.0460056
0.0517731
0.0572818
0.0624791
0.0673211
0.0717258
0.0756251
0.079002
6.10834e-06
6.10989e-06
6.11006e-06
6.10998e-06
6.1099e-06
6.10989e-06
6.10988e-06
6.10985e-06
6.10987e-06
6.10982e-06
6.11104e-06
6.1078e-06
6.09805e-06
6.06453e-06
6.2525e-06
6.70143e-06
7.15374e-06
5.29462e-06
2.35201e-06
2.11901e-09
3.34291e-10
2.95568e-14
2.74689e-07
4.98601e-05
0.000242573
0.00025373
0.000902728
0.00209134
0.00398351
0.00668375
0.0102974
0.0148892
0.0204557
0.0269111
0.0340115
0.0413486
0.0484853
0.0551567
0.0612071
0.0665852
0.0713213
6.10696e-06
6.10831e-06
6.10835e-06
6.10816e-06
6.10804e-06
6.10801e-06
6.10808e-06
6.10821e-06
6.10838e-06
6.10856e-06
6.10871e-06
6.10951e-06
6.10952e-06
6.10043e-06
6.07459e-06
6.13236e-06
6.36587e-06
6.87889e-06
7.23728e-06
4.95927e-06
1.61323e-06
5.47525e-10
2.30854e-10
1.6441e-12
0
5.75363e-07
3.86679e-05
0.000163679
7.39325e-06
0.000314754
0.00101551
0.00224089
0.00413309
0.00684043
0.0104769
0.0150726
0.020561
0.0268378
0.0336512
0.0406755
0.0475973
6.10539e-06
6.1064e-06
6.10629e-06
6.10605e-06
6.10592e-06
6.10592e-06
6.10602e-06
6.10619e-06
6.10641e-06
6.10667e-06
6.10694e-06
6.10734e-06
6.10774e-06
6.10925e-06
6.10278e-06
6.09294e-06
6.07947e-06
6.17552e-06
6.47286e-06
7.14473e-06
7.11827e-06
4.60354e-06
1.86963e-06
3.76996e-08
1.02041e-09
3.65717e-11
4.00681e-13
0
2.97417e-10
8.51682e-07
3.96804e-05
0.000148167
0.000300051
3.28952e-05
0.00051457
0.00137631
0.00278116
0.00482935
0.00760292
0.0111062
0.015332
6.10375e-06
6.10449e-06
6.10433e-06
6.10413e-06
6.10408e-06
6.10416e-06
6.10433e-06
6.10457e-06
6.10484e-06
6.10512e-06
6.10543e-06
6.10578e-06
6.1061e-06
6.10672e-06
6.10728e-06
6.10706e-06
6.09968e-06
6.08413e-06
6.07532e-06
6.23186e-06
6.63302e-06
7.16085e-06
7.12287e-06
5.53561e-06
2.93881e-06
1.01403e-06
1.25174e-08
5.75587e-10
3.31449e-11
7.73198e-12
5.80713e-15
0
0
1.29408e-09
3.39966e-06
5.92911e-05
0.000165645
0.000304857
2.31515e-06
0.000227191
0.000826532
6.10207e-06
6.10266e-06
6.10257e-06
6.10252e-06
6.10263e-06
6.10286e-06
6.10316e-06
6.1035e-06
6.10384e-06
6.10418e-06
6.10451e-06
6.10486e-06
6.10522e-06
6.10557e-06
6.10601e-06
6.10661e-06
6.10767e-06
6.10551e-06
6.09205e-06
6.0737e-06
6.09683e-06
6.27057e-06
6.5651e-06
7.05491e-06
7.15342e-06
6.72536e-06
5.13541e-06
2.95297e-06
1.26709e-06
3.31163e-07
2.74699e-10
1.4043e-10
2.42143e-11
8.6006e-12
1.40126e-12
1.71601e-18
0
0
3.10585e-11
9.51381e-08
1.06425e-05
6.10043e-06
6.101e-06
6.10111e-06
6.1013e-06
6.10164e-06
6.10206e-06
6.10251e-06
6.10296e-06
6.10339e-06
6.10379e-06
6.10417e-06
6.10453e-06
6.1049e-06
6.10526e-06
6.10563e-06
6.10596e-06
6.10654e-06
6.10759e-06
6.10774e-06
6.10234e-06
6.08605e-06
6.07651e-06
6.09039e-06
6.2068e-06
6.45044e-06
6.75173e-06
7.15251e-06
7.24777e-06
6.86331e-06
6.05231e-06
4.49177e-06
2.78516e-06
1.42189e-06
5.59064e-07
1.00665e-07
1.35056e-13
4.01379e-11
1.85894e-11
8.9177e-12
3.38814e-12
9.03418e-13
6.09889e-06
6.0996e-06
6.10001e-06
6.10051e-06
6.1011e-06
6.10171e-06
6.1023e-06
6.10286e-06
6.10337e-06
6.10384e-06
6.10426e-06
6.10467e-06
6.10506e-06
6.10544e-06
6.10582e-06
6.10619e-06
6.10653e-06
6.10698e-06
6.10771e-06
6.10862e-06
6.10775e-06
6.10182e-06
6.08885e-06
6.07233e-06
6.08111e-06
6.12849e-06
6.25557e-06
6.47099e-06
6.73817e-06
7.01352e-06
7.30963e-06
7.34e-06
7.0356e-06
6.4316e-06
5.52229e-06
4.22937e-06
2.93921e-06
1.79274e-06
9.65297e-07
4.04333e-07
1.19877e-07
6.09752e-06
6.09851e-06
6.09928e-06
6.10008e-06
6.10088e-06
6.10165e-06
6.10236e-06
6.103e-06
6.10358e-06
6.10411e-06
6.10459e-06
6.10504e-06
6.10546e-06
6.10588e-06
6.10629e-06
6.1067e-06
6.10709e-06
6.10746e-06
6.10786e-06
6.10835e-06
6.10923e-06
6.10998e-06
6.10957e-06
6.10448e-06
6.09412e-06
6.08198e-06
6.07244e-06
6.07998e-06
6.11976e-06
6.19913e-06
6.33794e-06
6.52916e-06
6.75299e-06
6.97391e-06
7.19018e-06
7.38112e-06
7.39834e-06
7.22071e-06
6.8588e-06
6.29651e-06
5.68705e-06
6.09637e-06
6.09773e-06
6.09886e-06
6.0999e-06
6.10086e-06
6.10174e-06
6.10252e-06
6.10323e-06
6.10387e-06
6.10445e-06
6.10498e-06
6.10547e-06
6.10594e-06
6.1064e-06
6.10685e-06
6.1073e-06
6.10774e-06
6.10818e-06
6.1086e-06
6.10899e-06
6.10944e-06
6.11006e-06
6.11099e-06
6.11195e-06
6.11173e-06
6.1096e-06
6.10422e-06
6.09498e-06
6.08387e-06
6.07452e-06
6.07189e-06
6.08343e-06
6.11681e-06
6.17532e-06
6.2622e-06
6.38101e-06
6.5256e-06
6.69117e-06
6.86345e-06
7.03161e-06
7.17063e-06
6.09548e-06
6.09723e-06
6.09864e-06
6.09985e-06
6.10091e-06
6.10185e-06
6.10269e-06
6.10345e-06
6.10414e-06
6.10476e-06
6.10534e-06
6.10588e-06
6.10639e-06
6.1069e-06
6.1074e-06
6.10789e-06
6.10838e-06
6.10886e-06
6.10935e-06
6.10981e-06
6.11028e-06
6.11075e-06
6.11127e-06
6.11196e-06
6.11282e-06
6.11373e-06
6.11447e-06
6.11441e-06
6.11276e-06
6.10904e-06
6.10286e-06
6.09465e-06
6.0857e-06
6.07808e-06
6.07372e-06
6.07497e-06
6.08442e-06
6.10569e-06
6.1398e-06
6.19126e-06
6.24603e-06
6.09484e-06
6.09691e-06
6.09851e-06
6.09982e-06
6.10094e-06
6.10193e-06
6.10282e-06
6.10362e-06
6.10435e-06
6.10503e-06
6.10565e-06
6.10624e-06
6.10679e-06
6.10734e-06
6.10788e-06
6.10842e-06
6.10895e-06
6.10948e-06
6.11002e-06
6.11053e-06
6.11107e-06
6.11161e-06
6.11214e-06
6.11267e-06
6.11325e-06
6.1139e-06
6.11467e-06
6.11559e-06
6.11656e-06
6.11741e-06
6.11786e-06
6.11761e-06
6.11633e-06
6.11382e-06
6.11005e-06
6.10505e-06
6.0991e-06
6.0926e-06
6.08626e-06
6.08119e-06
6.07772e-06
6.09441e-06
6.0967e-06
6.09839e-06
6.09975e-06
6.10092e-06
6.10195e-06
6.10288e-06
6.10373e-06
6.10451e-06
6.10523e-06
6.1059e-06
6.10653e-06
6.10713e-06
6.10772e-06
6.1083e-06
6.10888e-06
6.10946e-06
6.11004e-06
6.11061e-06
6.11118e-06
6.11176e-06
6.11235e-06
6.11294e-06
6.11353e-06
6.11411e-06
6.1147e-06
6.11531e-06
6.11594e-06
6.11664e-06
6.11741e-06
6.11828e-06
6.1192e-06
6.12014e-06
6.121e-06
6.12168e-06
6.12207e-06
6.12205e-06
6.12146e-06
6.12031e-06
6.11822e-06
6.11633e-06
6.09412e-06
6.09649e-06
6.09823e-06
6.09963e-06
6.10083e-06
6.1019e-06
6.10288e-06
6.10377e-06
6.10459e-06
6.10536e-06
6.10608e-06
6.10676e-06
6.1074e-06
6.10803e-06
6.10866e-06
6.10928e-06
6.1099e-06
6.11052e-06
6.11114e-06
6.11174e-06
6.11237e-06
6.113e-06
6.11363e-06
6.11426e-06
6.11489e-06
6.11552e-06
6.11615e-06
6.11677e-06
6.1174e-06
6.11804e-06
6.11869e-06
6.11936e-06
6.12007e-06
6.12082e-06
6.1216e-06
6.12242e-06
6.12326e-06
6.12408e-06
6.12491e-06
6.12556e-06
6.12631e-06
6.09387e-06
6.09626e-06
6.09802e-06
6.09944e-06
6.10068e-06
6.10178e-06
6.10279e-06
6.10372e-06
6.10459e-06
6.1054e-06
6.10617e-06
6.10689e-06
6.10759e-06
6.10826e-06
6.10893e-06
6.10959e-06
6.11025e-06
6.11091e-06
6.11157e-06
6.11222e-06
6.11288e-06
6.11355e-06
6.11421e-06
6.11487e-06
6.11553e-06
6.11619e-06
6.11685e-06
6.11751e-06
6.11816e-06
6.11881e-06
6.11945e-06
6.12008e-06
6.12071e-06
6.12134e-06
6.12196e-06
6.12257e-06
6.12319e-06
6.1238e-06
6.12443e-06
6.12499e-06
6.12567e-06
6.09359e-06
6.09597e-06
6.09774e-06
6.09918e-06
6.10043e-06
6.10157e-06
6.10261e-06
6.10358e-06
6.10449e-06
6.10535e-06
6.10616e-06
6.10694e-06
6.10768e-06
6.1084e-06
6.10911e-06
6.10982e-06
6.11052e-06
6.11121e-06
6.11191e-06
6.1126e-06
6.1133e-06
6.114e-06
6.1147e-06
6.11538e-06
6.11607e-06
6.11675e-06
6.11742e-06
6.11809e-06
6.11876e-06
6.11941e-06
6.12006e-06
6.1207e-06
6.12133e-06
6.12194e-06
6.12253e-06
6.12311e-06
6.12367e-06
6.12419e-06
6.12472e-06
6.12514e-06
6.12569e-06
6.09326e-06
6.09561e-06
6.09737e-06
6.09882e-06
6.10009e-06
6.10125e-06
6.10233e-06
6.10334e-06
6.1043e-06
6.1052e-06
6.10606e-06
6.10689e-06
6.10768e-06
6.10845e-06
6.1092e-06
6.10995e-06
6.11069e-06
6.11143e-06
6.11216e-06
6.11289e-06
6.11362e-06
6.11435e-06
6.11507e-06
6.11579e-06
6.11649e-06
6.11719e-06
6.11788e-06
6.11856e-06
6.11922e-06
6.11988e-06
6.12053e-06
6.12116e-06
6.12177e-06
6.12237e-06
6.12295e-06
6.1235e-06
6.12402e-06
6.12452e-06
6.125e-06
6.12538e-06
6.12588e-06
6.09286e-06
6.09517e-06
6.09691e-06
6.09836e-06
6.09964e-06
6.10083e-06
6.10194e-06
6.10299e-06
6.104e-06
6.10495e-06
6.10586e-06
6.10674e-06
6.10758e-06
6.1084e-06
6.1092e-06
6.10999e-06
6.11077e-06
6.11155e-06
6.11232e-06
6.11308e-06
6.11385e-06
6.11461e-06
6.11536e-06
6.11609e-06
6.11681e-06
6.11752e-06
6.11822e-06
6.1189e-06
6.11957e-06
6.12023e-06
6.12087e-06
6.12149e-06
6.12208e-06
6.12266e-06
6.12321e-06
6.12373e-06
6.12423e-06
6.12468e-06
6.12512e-06
6.12546e-06
6.12591e-06
6.09238e-06
6.09464e-06
6.09634e-06
6.09778e-06
6.09908e-06
6.10029e-06
6.10144e-06
6.10254e-06
6.10359e-06
6.1046e-06
6.10557e-06
6.1065e-06
6.10739e-06
6.10826e-06
6.10911e-06
6.10995e-06
6.11077e-06
6.11159e-06
6.1124e-06
6.11319e-06
6.11399e-06
6.11478e-06
6.11555e-06
6.1163e-06
6.11704e-06
6.11776e-06
6.11846e-06
6.11915e-06
6.11982e-06
6.12047e-06
6.1211e-06
6.1217e-06
6.12228e-06
6.12283e-06
6.12336e-06
6.12385e-06
6.12431e-06
6.12473e-06
6.12513e-06
6.12543e-06
6.12584e-06
6.09181e-06
6.09399e-06
6.09566e-06
6.09708e-06
6.09839e-06
6.09963e-06
6.10082e-06
6.10197e-06
6.10307e-06
6.10414e-06
6.10516e-06
6.10615e-06
6.1071e-06
6.10802e-06
6.10892e-06
6.10981e-06
6.11068e-06
6.11153e-06
6.11238e-06
6.11321e-06
6.11404e-06
6.11486e-06
6.11565e-06
6.11642e-06
6.11717e-06
6.1179e-06
6.11861e-06
6.1193e-06
6.11997e-06
6.12061e-06
6.12123e-06
6.12182e-06
6.12238e-06
6.12291e-06
6.12341e-06
6.12388e-06
6.1243e-06
6.12469e-06
6.12505e-06
6.12532e-06
6.12568e-06
6.09113e-06
6.09322e-06
6.09484e-06
6.09626e-06
6.09758e-06
6.09885e-06
6.10008e-06
6.10127e-06
6.10243e-06
6.10355e-06
6.10463e-06
6.10568e-06
6.10669e-06
6.10767e-06
6.10862e-06
6.10955e-06
6.11047e-06
6.11137e-06
6.11226e-06
6.11313e-06
6.11399e-06
6.11483e-06
6.11565e-06
6.11644e-06
6.1172e-06
6.11795e-06
6.11866e-06
6.11935e-06
6.12002e-06
6.12065e-06
6.12126e-06
6.12184e-06
6.12238e-06
6.1229e-06
6.12337e-06
6.12381e-06
6.12421e-06
6.12457e-06
6.1249e-06
6.12514e-06
6.12547e-06
6.09033e-06
6.09232e-06
6.09389e-06
6.09529e-06
6.09663e-06
6.09792e-06
6.09919e-06
6.10043e-06
6.10164e-06
6.10281e-06
6.10395e-06
6.10505e-06
6.10612e-06
6.10716e-06
6.10817e-06
6.10915e-06
6.11012e-06
6.11107e-06
6.11199e-06
6.1129e-06
6.1138e-06
6.11467e-06
6.11551e-06
6.11632e-06
6.1171e-06
6.11786e-06
6.11858e-06
6.11928e-06
6.11994e-06
6.12057e-06
6.12117e-06
6.12174e-06
6.12227e-06
6.12276e-06
6.12322e-06
6.12364e-06
6.12402e-06
6.12436e-06
6.12466e-06
6.12488e-06
6.12518e-06
6.08939e-06
6.09127e-06
6.09279e-06
6.09418e-06
6.09552e-06
6.09684e-06
6.09814e-06
6.09941e-06
6.10066e-06
6.10189e-06
6.10308e-06
6.10424e-06
6.10536e-06
6.10646e-06
6.10752e-06
6.10856e-06
6.10958e-06
6.11057e-06
6.11154e-06
6.11249e-06
6.11342e-06
6.11432e-06
6.11519e-06
6.11602e-06
6.11682e-06
6.11759e-06
6.11832e-06
6.11902e-06
6.11968e-06
6.12031e-06
6.12091e-06
6.12146e-06
6.12198e-06
6.12246e-06
6.12291e-06
6.12331e-06
6.12367e-06
6.12398e-06
6.12427e-06
6.12447e-06
6.12474e-06
6.0883e-06
6.09006e-06
6.09153e-06
6.0929e-06
6.09424e-06
6.09557e-06
6.09688e-06
6.09818e-06
6.09947e-06
6.10073e-06
6.10197e-06
6.10318e-06
6.10436e-06
6.10551e-06
6.10662e-06
6.10772e-06
6.10878e-06
6.10982e-06
6.11084e-06
6.11182e-06
6.11279e-06
6.11372e-06
6.11461e-06
6.11547e-06
6.11629e-06
6.11707e-06
6.11781e-06
6.11851e-06
6.11918e-06
6.11981e-06
6.1204e-06
6.12095e-06
6.12146e-06
6.12193e-06
6.12236e-06
6.12274e-06
6.12309e-06
6.1234e-06
6.12366e-06
6.12386e-06
6.12411e-06
6.08704e-06
6.08869e-06
6.0901e-06
6.09143e-06
6.09275e-06
6.09407e-06
6.09538e-06
6.09669e-06
6.098e-06
6.09929e-06
6.10057e-06
6.10182e-06
6.10305e-06
6.10425e-06
6.10542e-06
6.10656e-06
6.10768e-06
6.10876e-06
6.10982e-06
6.11085e-06
6.11185e-06
6.11281e-06
6.11373e-06
6.11461e-06
6.11544e-06
6.11624e-06
6.11699e-06
6.1177e-06
6.11837e-06
6.11899e-06
6.11958e-06
6.12012e-06
6.12062e-06
6.12108e-06
6.1215e-06
6.12187e-06
6.1222e-06
6.12249e-06
6.12274e-06
6.12293e-06
6.12315e-06
6.08561e-06
6.08713e-06
6.08847e-06
6.08975e-06
6.09103e-06
6.09231e-06
6.0936e-06
6.09491e-06
6.09622e-06
6.09754e-06
6.09884e-06
6.10014e-06
6.10141e-06
6.10266e-06
6.10387e-06
6.10506e-06
6.10622e-06
6.10735e-06
6.10845e-06
6.10951e-06
6.11054e-06
6.11153e-06
6.11247e-06
6.11336e-06
6.11421e-06
6.11502e-06
6.11578e-06
6.11649e-06
6.11716e-06
6.11779e-06
6.11837e-06
6.11891e-06
6.1194e-06
6.11985e-06
6.12026e-06
6.12063e-06
6.12096e-06
6.12124e-06
6.12148e-06
6.12168e-06
6.12189e-06
6.08399e-06
6.08538e-06
6.08662e-06
6.08782e-06
6.08903e-06
6.09026e-06
6.09151e-06
6.0928e-06
6.09411e-06
6.09543e-06
6.09676e-06
6.09808e-06
6.09939e-06
6.10067e-06
6.10193e-06
6.10317e-06
6.10437e-06
6.10553e-06
6.10667e-06
6.10776e-06
6.10882e-06
6.10984e-06
6.1108e-06
6.11172e-06
6.11259e-06
6.1134e-06
6.11417e-06
6.11489e-06
6.11557e-06
6.11619e-06
6.11677e-06
6.1173e-06
6.11778e-06
6.11822e-06
6.11862e-06
6.11897e-06
6.11927e-06
6.11954e-06
6.11977e-06
6.11995e-06
6.12012e-06
6.08216e-06
6.0834e-06
6.08452e-06
6.08562e-06
6.08673e-06
6.08788e-06
6.08908e-06
6.09033e-06
6.09162e-06
6.09294e-06
6.09427e-06
6.09561e-06
6.09694e-06
6.09826e-06
6.09956e-06
6.10083e-06
6.10206e-06
6.10326e-06
6.10443e-06
6.10555e-06
6.10663e-06
6.10766e-06
6.10864e-06
6.10956e-06
6.11044e-06
6.11126e-06
6.11203e-06
6.11275e-06
6.11342e-06
6.11404e-06
6.11461e-06
6.11514e-06
6.11562e-06
6.11605e-06
6.11645e-06
6.1168e-06
6.11711e-06
6.11738e-06
6.11761e-06
6.11782e-06
6.11799e-06
6.0801e-06
6.08118e-06
6.08215e-06
6.08311e-06
6.08411e-06
6.08517e-06
6.0863e-06
6.08749e-06
6.08874e-06
6.09002e-06
6.09133e-06
6.09266e-06
6.094e-06
6.09532e-06
6.09663e-06
6.09792e-06
6.09918e-06
6.10041e-06
6.1016e-06
6.10275e-06
6.10386e-06
6.10493e-06
6.10593e-06
6.10689e-06
6.10779e-06
6.10863e-06
6.10942e-06
6.11015e-06
6.11083e-06
6.11145e-06
6.11203e-06
6.11255e-06
6.11302e-06
6.11345e-06
6.11383e-06
6.11416e-06
6.11445e-06
6.1147e-06
6.1149e-06
6.11508e-06
6.11522e-06
6.07781e-06
6.07869e-06
6.07949e-06
6.08029e-06
6.08116e-06
6.08211e-06
6.08313e-06
6.08423e-06
6.08539e-06
6.08661e-06
6.08786e-06
6.08914e-06
6.09044e-06
6.09174e-06
6.09305e-06
6.09435e-06
6.09562e-06
6.09686e-06
6.09806e-06
6.09921e-06
6.10032e-06
6.10138e-06
6.10237e-06
6.10331e-06
6.1042e-06
6.10503e-06
6.1058e-06
6.10652e-06
6.10719e-06
6.1078e-06
6.10837e-06
6.10889e-06
6.10936e-06
6.10978e-06
6.11017e-06
6.11051e-06
6.11081e-06
6.11108e-06
6.1113e-06
6.11152e-06
6.11165e-06
6.07525e-06
6.07591e-06
6.07651e-06
6.07715e-06
6.07787e-06
6.07866e-06
6.07954e-06
6.08049e-06
6.08151e-06
6.0826e-06
6.08373e-06
6.08491e-06
6.08611e-06
6.08734e-06
6.08855e-06
6.08976e-06
6.09096e-06
6.09215e-06
6.09334e-06
6.0945e-06
6.09562e-06
6.09671e-06
6.09775e-06
6.09874e-06
6.09967e-06
6.10055e-06
6.10137e-06
6.10213e-06
6.10284e-06
6.10348e-06
6.10407e-06
6.10461e-06
6.10509e-06
6.10552e-06
6.1059e-06
6.10624e-06
6.10653e-06
6.10678e-06
6.10699e-06
6.10716e-06
6.1073e-06
6.07241e-06
6.07281e-06
6.07321e-06
6.07365e-06
6.07417e-06
6.07475e-06
6.07541e-06
6.07613e-06
6.07691e-06
6.07776e-06
6.07867e-06
6.07964e-06
6.08069e-06
6.08181e-06
6.08301e-06
6.08428e-06
6.08556e-06
6.08681e-06
6.08802e-06
6.08919e-06
6.0903e-06
6.09136e-06
6.09236e-06
6.0933e-06
6.09419e-06
6.09502e-06
6.09579e-06
6.09651e-06
6.09718e-06
6.09779e-06
6.09835e-06
6.09886e-06
6.09932e-06
6.09974e-06
6.10011e-06
6.10044e-06
6.10073e-06
6.10099e-06
6.1012e-06
6.1014e-06
6.10156e-06
6.06925e-06
6.06939e-06
6.06954e-06
6.06972e-06
6.06994e-06
6.07019e-06
6.07049e-06
6.07082e-06
6.07119e-06
6.0716e-06
6.07204e-06
6.0725e-06
6.07299e-06
6.07349e-06
6.07398e-06
6.07453e-06
6.075e-06
6.07544e-06
6.07586e-06
6.07628e-06
6.0767e-06
6.07713e-06
6.07757e-06
6.07801e-06
6.07845e-06
6.07888e-06
6.07931e-06
6.07974e-06
6.08017e-06
6.08059e-06
6.081e-06
6.08141e-06
6.08179e-06
6.08216e-06
6.08251e-06
6.08285e-06
6.08317e-06
6.08347e-06
6.08375e-06
6.084e-06
6.08427e-06
0.003493
0.00669658
0.0104525
0.0143899
0.0175343
0.0190217
0.0184569
0.0159015
0.0116612
0.00614566
0.00140767
6.05454e-06
2.36378e-10
9.90634e-07
6.04766e-06
6.39339e-06
6.17425e-06
6.17845e-06
6.20271e-06
6.21467e-06
6.22082e-06
6.22307e-06
6.22174e-06
6.2172e-06
6.21002e-06
6.20094e-06
6.19086e-06
6.18067e-06
6.17108e-06
6.16262e-06
6.15561e-06
6.15014e-06
6.1461e-06
6.14327e-06
6.14134e-06
6.14005e-06
6.13913e-06
6.1384e-06
6.13768e-06
6.13686e-06
6.13584e-06
6.13453e-06
6.13285e-06
6.13076e-06
6.12822e-06
6.12524e-06
6.12192e-06
6.11844e-06
6.11515e-06
6.11244e-06
6.1106e-06
6.1093e-06
6.10835e-06
6.10762e-06
6.10703e-06
6.10655e-06
6.10618e-06
6.10594e-06
6.10591e-06
6.10615e-06
6.10674e-06
6.10776e-06
6.10925e-06
6.11124e-06
6.11371e-06
6.11662e-06
6.11989e-06
6.12343e-06
6.12713e-06
6.13094e-06
6.1347e-06
6.13876e-06
6.14168e-06
6.14857e-06
0.0061575
0.010448
0.0146604
0.0186905
0.0218589
0.0234148
0.0229709
0.0205485
0.0164334
0.0108588
0.00444723
0.000602533
1.89552e-05
6.05214e-09
3.21404e-06
6.80641e-06
6.37416e-06
6.20494e-06
6.21638e-06
6.23004e-06
6.23562e-06
6.23673e-06
6.23392e-06
6.22772e-06
6.2189e-06
6.2083e-06
6.1969e-06
6.18562e-06
6.17519e-06
6.16608e-06
6.15857e-06
6.15271e-06
6.14839e-06
6.14534e-06
6.14327e-06
6.14186e-06
6.14083e-06
6.13997e-06
6.13909e-06
6.13808e-06
6.13682e-06
6.13523e-06
6.13323e-06
6.1308e-06
6.12791e-06
6.12465e-06
6.12116e-06
6.11773e-06
6.11474e-06
6.11257e-06
6.11121e-06
6.11033e-06
6.10973e-06
6.1093e-06
6.10896e-06
6.1087e-06
6.10851e-06
6.10845e-06
6.10857e-06
6.10894e-06
6.10966e-06
6.11077e-06
6.11232e-06
6.11432e-06
6.11677e-06
6.1196e-06
6.12273e-06
6.1261e-06
6.12959e-06
6.13316e-06
6.13666e-06
6.14044e-06
6.1431e-06
6.14954e-06
0.00869212
0.0143544
0.0192215
0.023442
0.0266961
0.0283988
0.028177
0.0259909
0.0220622
0.0166279
0.00970903
0.0030046
0.000187063
1.0685e-06
4.55778e-10
4.48632e-06
6.76269e-06
6.32873e-06
6.23047e-06
6.24523e-06
6.25086e-06
6.24963e-06
6.24516e-06
6.23783e-06
6.22802e-06
6.21639e-06
6.2038e-06
6.19127e-06
6.1797e-06
6.16969e-06
6.16154e-06
6.15527e-06
6.15068e-06
6.14744e-06
6.1452e-06
6.14364e-06
6.14246e-06
6.14143e-06
6.14037e-06
6.13914e-06
6.13761e-06
6.13572e-06
6.13339e-06
6.13062e-06
6.12745e-06
6.12399e-06
6.12047e-06
6.1172e-06
6.1146e-06
6.11301e-06
6.11212e-06
6.11163e-06
6.11136e-06
6.11121e-06
6.11112e-06
6.11106e-06
6.11105e-06
6.11114e-06
6.1114e-06
6.1119e-06
6.11271e-06
6.11389e-06
6.11547e-06
6.11747e-06
6.11986e-06
6.12259e-06
6.12558e-06
6.12875e-06
6.13202e-06
6.13534e-06
6.13857e-06
6.14207e-06
6.14445e-06
6.15043e-06
0.0111546
0.01843
0.0241108
0.0286367
0.032045
0.03395
0.0340188
0.032154
0.0284866
0.0232389
0.0164282
0.00830303
0.00194639
6.61993e-05
1.85828e-08
6.78303e-09
4.49781e-06
6.52702e-06
6.2714e-06
6.2378e-06
6.2611e-06
6.26399e-06
6.25704e-06
6.24659e-06
6.23472e-06
6.22225e-06
6.20949e-06
6.19684e-06
6.1849e-06
6.17424e-06
6.1653e-06
6.15826e-06
6.15308e-06
6.14947e-06
6.14702e-06
6.14532e-06
6.144e-06
6.1428e-06
6.14152e-06
6.14002e-06
6.13821e-06
6.136e-06
6.13335e-06
6.13029e-06
6.1269e-06
6.12335e-06
6.11992e-06
6.11695e-06
6.1148e-06
6.11374e-06
6.11329e-06
6.11318e-06
6.11323e-06
6.11335e-06
6.11348e-06
6.11361e-06
6.11377e-06
6.114e-06
6.11438e-06
6.11498e-06
6.11586e-06
6.11709e-06
6.11869e-06
6.12065e-06
6.12296e-06
6.12557e-06
6.12839e-06
6.13136e-06
6.13439e-06
6.13745e-06
6.14041e-06
6.14362e-06
6.14573e-06
6.15123e-06
0.0136843
0.0227033
0.0292753
0.0342193
0.0378629
0.040023
0.0404373
0.0389735
0.0356717
0.0306886
0.0241291
0.0158715
0.00693785
0.00133635
8.58456e-07
2.47433e-10
1.16329e-07
5.07032e-06
6.52398e-06
6.26153e-06
6.24227e-06
6.26884e-06
6.27204e-06
6.26357e-06
6.24916e-06
6.23211e-06
6.21534e-06
6.20035e-06
6.18757e-06
6.17696e-06
6.16835e-06
6.1615e-06
6.15617e-06
6.15213e-06
6.14916e-06
6.14701e-06
6.14538e-06
6.14395e-06
6.14247e-06
6.14073e-06
6.13864e-06
6.13612e-06
6.13317e-06
6.12987e-06
6.12634e-06
6.12281e-06
6.11958e-06
6.11697e-06
6.11531e-06
6.11474e-06
6.11471e-06
6.11495e-06
6.1153e-06
6.11568e-06
6.11602e-06
6.11633e-06
6.11664e-06
6.117e-06
6.11749e-06
6.11816e-06
6.1191e-06
6.12035e-06
6.12194e-06
6.12385e-06
6.12606e-06
6.12853e-06
6.13117e-06
6.13392e-06
6.1367e-06
6.1395e-06
6.14218e-06
6.1451e-06
6.14693e-06
6.15196e-06
0.0168912
0.0271931
0.0346411
0.0400998
0.0440634
0.046534
0.0473429
0.0463527
0.043532
0.0389488
0.032714
0.0247814
0.0151482
0.00584624
0.000926196
0.000159331
7.1451e-10
3.39737e-07
5.53937e-06
6.66858e-06
6.3099e-06
6.25573e-06
6.26907e-06
6.26651e-06
6.25945e-06
6.24941e-06
6.2348e-06
6.21722e-06
6.19941e-06
6.18367e-06
6.17134e-06
6.16262e-06
6.15696e-06
6.1534e-06
6.15099e-06
6.14903e-06
6.14718e-06
6.14531e-06
6.14335e-06
6.14123e-06
6.13882e-06
6.13606e-06
6.13291e-06
6.12945e-06
6.12587e-06
6.12244e-06
6.11947e-06
6.11728e-06
6.11611e-06
6.11598e-06
6.11634e-06
6.11692e-06
6.11756e-06
6.11818e-06
6.11872e-06
6.1192e-06
6.11965e-06
6.12013e-06
6.1207e-06
6.12144e-06
6.12242e-06
6.12367e-06
6.12522e-06
6.12705e-06
6.12915e-06
6.13145e-06
6.1339e-06
6.13642e-06
6.13895e-06
6.14148e-06
6.14387e-06
6.14651e-06
6.14806e-06
6.1526e-06
0.0214106
0.0318824
0.0401315
0.0461593
0.0505139
0.053349
0.0545974
0.0541441
0.0519139
0.0478929
0.0421293
0.0346464
0.0253148
0.0145046
0.00510101
0.000685384
0.000127234
1.76557e-09
3.78848e-07
5.59762e-06
6.80127e-06
6.34145e-06
6.25885e-06
6.26608e-06
6.24531e-06
6.22577e-06
6.21755e-06
6.21342e-06
6.20794e-06
6.19945e-06
6.18827e-06
6.17613e-06
6.16515e-06
6.15679e-06
6.15144e-06
6.14856e-06
6.14707e-06
6.14588e-06
6.14427e-06
6.14203e-06
6.13922e-06
6.13603e-06
6.13259e-06
6.12903e-06
6.12551e-06
6.12228e-06
6.11964e-06
6.11788e-06
6.11715e-06
6.11744e-06
6.11816e-06
6.11906e-06
6.11998e-06
6.12083e-06
6.12156e-06
6.1222e-06
6.12279e-06
6.12336e-06
6.12401e-06
6.12479e-06
6.12578e-06
6.12701e-06
6.12851e-06
6.13025e-06
6.13221e-06
6.13434e-06
6.13658e-06
6.13887e-06
6.14114e-06
6.1434e-06
6.1455e-06
6.14785e-06
6.14912e-06
6.15316e-06
0.0268018
0.0367234
0.0456701
0.0522493
0.0570326
0.0602759
0.0620018
0.0621365
0.0605892
0.0572866
0.0521955
0.0453139
0.0365891
0.0259127
0.0141492
0.00472775
0.000589897
0.000128902
1.65596e-09
1.6782e-07
5.1469e-06
7.06163e-06
6.45293e-06
6.27885e-06
6.31772e-06
6.29837e-06
6.23998e-06
6.19207e-06
6.16652e-06
6.15818e-06
6.15999e-06
6.16544e-06
6.16928e-06
6.16889e-06