/*--------------------------------*- C++ -*----------------------------------*\
| =========                 |                                                 |
| \\      /  F ield         | OpenFOAM: The Open Source CFD Toolbox           |
|  \\    /   O peration     | Version:  2312                                  |
|   \\  /    A nd           | Website:  www.openfoam.com                      |
|    \\/     M anipulation  |                                                 |
\*---------------------------------------------------------------------------*/
FoamFile
{
    version     2.0;
    format      ascii;
    arch        "LSB;label=32;scalar=64";
    class       volScalarField;
    location    "500";
    object      nuTilda;
}
// * * * * * * * * * * * * * * * * * * * * * * * * * * * * * * * * * * * * * //

dimensions      [0 2 -1 0 0 0 0];

internalField   nonuniform List<scalar> 
11040
(
7.23976e-05
8.58242e-05
5.38656e-05
7.99421e-05
0.000197175
0.0001932
0.000184604
0.000176283
0.000165156
0.00015867
0.000151309
0.000144832
0.000139027
0.00013403
0.000129733
0.000126725
0.000125177
0.00012545
0.000127478
0.00013089
0.000135643
0.000141605
0.000148614
0.000156593
0.000165827
0.000177089
0.0001899
0.00020293
0.000215644
0.000227459
0.000237829
0.000246292
0.000252928
0.000261424
0.000279389
0.000289
0.000252272
0.000193495
0.000206489
0.000223492
0.000316094
3.59431e-05
7.14644e-05
8.69997e-05
0.000151215
0.000597253
0.000635562
0.000556
0.000516925
0.000449808
0.000417128
0.000379311
0.000348795
0.00032162
0.000299481
0.000279796
0.000264441
0.000253951
0.000249651
0.000251044
0.000255422
0.00026218
0.000271048
0.000280461
0.00028948
0.000299785
0.000318667
0.000347169
0.000380003
0.000416599
0.000456933
0.00050119
0.000549787
0.000603043
0.000661323
0.000726982
0.000797564
0.000870955
0.000953251
0.0010459
0.00114963
0.00166199
3.91208e-05
4.50544e-05
6.66243e-05
9.08107e-05
0.000402536
0.000950907
0.00118975
0.00116292
0.00101713
0.00095073
0.000866618
0.000799426
0.000738288
0.000688425
0.000644369
0.000607953
0.000580124
0.000559111
0.000546979
0.000542999
0.000547909
0.000562758
0.000588066
0.000624704
0.000672651
0.000731687
0.000801997
0.000883613
0.000974588
0.00107423
0.00118194
0.00129705
0.00141919
0.00154882
0.00168707
0.00183493
0.00199692
0.0021851
0.00240108
0.00265902
0.00354225
4.07935e-05
3.81971e-05
4.70199e-05
4.76101e-05
0.000146217
0.000573936
0.00127703
0.00170805
0.00179235
0.00172114
0.0015813
0.00146857
0.00136322
0.00127626
0.00119724
0.00112857
0.00107778
0.00103812
0.0010145
0.00100583
0.00101274
0.00103817
0.00108427
0.00115225
0.00124141
0.00135065
0.00147916
0.00162555
0.00178874
0.00196735
0.00215987
0.00236485
0.0025812
0.00280909
0.00304957
0.00330528
0.00358494
0.00390815
0.0042892
0.00475506
0.00597015
4.02586e-05
3.95109e-05
4.05342e-05
3.90754e-05
3.69217e-05
0.000175732
0.000675743
0.00151693
0.00223759
0.00246875
0.002499
0.00240879
0.00225008
0.00211356
0.00199465
0.00188132
0.00180059
0.00173509
0.00169443
0.00167839
0.00168543
0.00172084
0.00179004
0.001895
0.00203461
0.00220761
0.00241237
0.00264619
0.00290685
0.00319193
0.00349825
0.00382279
0.00416325
0.00451932
0.00489171
0.00528378
0.00570768
0.00619251
0.00677197
0.00748795
0.00897542
4.00689e-05
4.0251e-05
3.96706e-05
4.09762e-05
2.92151e-05
2.32753e-05
0.000168201
0.000689237
0.00164953
0.0026784
0.00319303
0.00337947
0.00338369
0.00328785
0.00311302
0.00293527
0.00281485
0.00271373
0.00264644
0.00261839
0.00262233
0.00266522
0.00275901
0.00290743
0.0031087
0.00336189
0.00366457
0.00401197
0.00439927
0.0048227
0.00527631
0.00575434
0.00625225
0.00676862
0.00730318
0.00785908
0.00845141
0.00911953
0.0099192
0.0109152
0.0126609
4.00806e-05
4.01344e-05
3.99302e-05
4.04681e-05
3.99167e-05
2.14021e-05
5.52527e-06
0.000122111
0.000613356
0.00162205
0.00291597
0.00389912
0.00430604
0.00447316
0.00447644
0.00438274
0.00423152
0.00406838
0.00396042
0.00391426
0.00391183
0.0039573
0.00407417
0.00427058
0.00454332
0.00489266
0.00531623
0.0058066
0.00635362
0.00695188
0.00759133
0.00826137
0.00895333
0.00966372
0.0103903
0.0111344
0.0119132
0.0127763
0.0138011
0.0150899
0.017109
4.00932e-05
4.00903e-05
4.01293e-05
3.99819e-05
4.0825e-05
4.02258e-05
1.16459e-05
1.37173e-06
7.08346e-05
0.000466813
0.00142222
0.00288357
0.00436563
0.00524098
0.0056326
0.00579916
0.00583385
0.00578758
0.00571554
0.00565282
0.00564485
0.00570194
0.00584464
0.00609501
0.00644752
0.0069063
0.00747226
0.00813722
0.00887984
0.00969313
0.0105616
0.0114668
0.012392
0.0133303
0.0142764
0.0152271
0.0161995
0.0172532
0.0184832
0.0200441
0.0223266
4.0092e-05
4.01004e-05
4.0093e-05
4.01331e-05
3.98881e-05
4.1777e-05
3.91425e-05
1.67684e-05
1.62557e-05
1.23636e-05
0.000274997
0.00107825
0.00254264
0.00439863
0.00597138
0.00679849
0.00722623
0.00744938
0.00758091
0.00766949
0.00777017
0.00791214
0.00814106
0.00849221
0.00896701
0.00956464
0.0102896
0.011146
0.0121205
0.0131903
0.0143338
0.0155214
0.0167214
0.0179199
0.0191089
0.0202764
0.0214334
0.022651
0.0240354
0.0257929
0.0282796
4.00915e-05
4.00954e-05
4.00966e-05
4.01058e-05
4.00783e-05
3.99675e-05
4.20576e-05
3.83321e-05
2.28051e-05
7.68638e-06
5.3798e-05
0.000131748
0.000693589
0.00197315
0.00394261
0.0061342
0.00778389
0.00866118
0.00920483
0.00959097
0.00994074
0.0103039
0.0107427
0.0113095
0.0120288
0.0129062
0.0139347
0.0150968
0.0163693
0.0177376
0.0191961
0.0207118
0.022224
0.0237036
0.0251455
0.0265282
0.0278378
0.0291598
0.0306248
0.0324249
0.0349604
4.00892e-05
4.00922e-05
4.00955e-05
4.00891e-05
4.01205e-05
4.00031e-05
4.01944e-05
4.15262e-05
4.03267e-05
2.73715e-05
7.14235e-06
1.91731e-05
7.031e-06
0.000318536
0.00127188
0.00306457
0.00553118
0.0080644
0.00989306
0.0109688
0.0117762
0.0124847
0.0132241
0.0140894
0.0151396
0.0164015
0.0178777
0.0195538
0.0213961
0.0233561
0.025371
0.0273614
0.0292508
0.0310186
0.0327089
0.0343043
0.0357086
0.0370181
0.03844
0.0400871
0.0423776
4.00868e-05
4.00895e-05
4.009e-05
4.00915e-05
4.00881e-05
4.0103e-05
4.00211e-05
4.01514e-05
4.11391e-05
4.12849e-05
3.2299e-05
8.51367e-06
4.07007e-06
5.20294e-05
8.71201e-05
0.000620721
0.00196925
0.00426428
0.00724022
0.010219
0.0124434
0.0138996
0.0151179
0.0163591
0.0177715
0.0194336
0.0213715
0.0235879
0.0260523
0.0287092
0.0314867
0.0343001
0.0370543
0.0396532
0.0419931
0.0439389
0.0453917
0.0465064
0.0477614
0.0490434
0.0507038
4.00844e-05
4.00863e-05
4.00868e-05
4.00869e-05
4.00872e-05
4.00874e-05
4.009e-05
4.00487e-05
4.00708e-05
4.08343e-05
4.15892e-05
3.70929e-05
1.91586e-05
5.86549e-06
1.07059e-05
0.000105314
0.00021324
0.000977597
0.00269643
0.00547618
0.00902285
0.0125477
0.015301
0.0173566
0.0192741
0.021368
0.0237345
0.0264316
0.0294528
0.0327409
0.0362191
0.0397959
0.0433666
0.0468292
0.0500758
0.0529911
0.0554685
0.057445
0.0588522
0.0596419
0.06037
4.00822e-05
4.00834e-05
4.00841e-05
4.00844e-05
4.00843e-05
4.00842e-05
4.00833e-05
4.00867e-05
4.00511e-05
4.00429e-05
4.04575e-05
4.1752e-05
3.9932e-05
3.12325e-05
1.50631e-06
1.83726e-06
2.49353e-05
0.000156792
0.000290639
0.00126975
0.00330999
0.00640505
0.0101508
0.0141072
0.017791
0.0209852
0.0239714
0.0271484
0.0306632
0.0344897
0.0385647
0.0428061
0.0471
0.0513353
0.0553986
0.0591753
0.0625692
0.0655199
0.0679635
0.0698648
0.0712878
4.00799e-05
4.0082e-05
4.00825e-05
4.00823e-05
4.00814e-05
4.00809e-05
4.00803e-05
4.00802e-05
4.0082e-05
4.00635e-05
4.00154e-05
4.02708e-05
4.11298e-05
4.17793e-05
3.71606e-05
1.66618e-05
5.57835e-06
1.02241e-06
3.26751e-05
0.000193934
0.000339071
0.00135717
0.00324486
0.00607206
0.00970951
0.0139469
0.0185498
0.0232504
0.0278575
0.0324139
0.0370861
0.0419432
0.0469105
0.0518678
0.0566973
0.0612843
0.0655307
0.0693851
0.0727796
0.075655
0.0780137
4.00778e-05
4.00806e-05
4.00805e-05
4.00801e-05
4.00798e-05
4.00795e-05
4.00794e-05
4.00792e-05
4.00796e-05
4.00804e-05
4.00734e-05
4.00233e-05
4.01201e-05
4.05293e-05
4.2194e-05
3.99239e-05
3.32749e-05
1.09684e-05
4.41963e-06
4.67975e-07
3.65047e-05
0.000172017
0.000188699
0.000885114
0.00224397
0.00440923
0.00743056
0.0113039
0.0159957
0.0214409
0.0274695
0.0337629
0.0399939
0.0460056
0.0517731
0.0572818
0.0624791
0.0673211
0.0717258
0.0756251
0.079002
4.00756e-05
4.00784e-05
4.00787e-05
4.00786e-05
4.00784e-05
4.00784e-05
4.00784e-05
4.00783e-05
4.00784e-05
4.00783e-05
4.00805e-05
4.00745e-05
4.00565e-05
3.99942e-05
4.03406e-05
4.11424e-05
4.19174e-05
3.85004e-05
3.08959e-05
5.24832e-06
3.30739e-06
3.20707e-07
1.77764e-05
8.21036e-05
0.000248248
0.000258959
0.000903167
0.00209142
0.00398353
0.00668376
0.0102974
0.0148892
0.0204557
0.0269111
0.0340115
0.0413486
0.0484853
0.0551567
0.0612071
0.0665852
0.0713213
4.0073e-05
4.00755e-05
4.00756e-05
4.00752e-05
4.0075e-05
4.00749e-05
4.00751e-05
4.00753e-05
4.00756e-05
4.00759e-05
4.00762e-05
4.00777e-05
4.00777e-05
4.00609e-05
4.00129e-05
4.012e-05
4.05463e-05
4.14502e-05
4.20572e-05
3.78064e-05
2.7978e-05
3.74163e-06
3.015e-06
8.75843e-07
0
2.14477e-05
7.35094e-05
0.000174671
4.23157e-05
0.000318249
0.00101586
0.00224096
0.00413312
0.00684043
0.0104769
0.0150726
0.020561
0.0268378
0.0336512
0.0406755
0.0475973
4.00701e-05
4.0072e-05
4.00718e-05
4.00713e-05
4.00711e-05
4.00711e-05
4.00712e-05
4.00716e-05
4.0072e-05
4.00725e-05
4.0073e-05
4.00737e-05
4.00744e-05
4.00772e-05
4.00652e-05
4.0047e-05
4.0022e-05
4.01995e-05
4.07384e-05
4.19022e-05
4.18577e-05
3.70363e-05
2.90802e-05
1.07872e-05
4.37182e-06
1.90209e-06
6.1538e-07
0
3.21214e-06
2.37129e-05
7.43021e-05
0.000160898
0.000303878
6.88964e-05
0.000515912
0.0013765
0.00278121
0.00482937
0.00760292
0.0111063
0.015332
4.0067e-05
4.00684e-05
4.00681e-05
4.00678e-05
4.00677e-05
4.00678e-05
4.00681e-05
4.00686e-05
4.00691e-05
4.00696e-05
4.00702e-05
4.00708e-05
4.00714e-05
4.00726e-05
4.00736e-05
4.00732e-05
4.00595e-05
4.00307e-05
4.00143e-05
4.03029e-05
4.10224e-05
4.19293e-05
4.18655e-05
3.8982e-05
3.27856e-05
2.48021e-05
8.18443e-06
3.78868e-06
1.85588e-06
1.28978e-06
2.13518e-07
0
0
4.63943e-06
3.40962e-05
8.91955e-05
0.000176439
0.00030857
3.07668e-05
0.000233572
0.000827055
4.00639e-05
4.0065e-05
4.00649e-05
4.00648e-05
4.0065e-05
4.00654e-05
4.0066e-05
4.00666e-05
4.00672e-05
4.00678e-05
4.00685e-05
4.00691e-05
4.00698e-05
4.00704e-05
4.00712e-05
4.00723e-05
4.00743e-05
4.00703e-05
4.00454e-05
4.00113e-05
4.00542e-05
4.03735e-05
4.09025e-05
4.17507e-05
4.19169e-05
4.11842e-05
3.81745e-05
3.28279e-05
2.62732e-05
1.86381e-05
3.14896e-06
2.66265e-06
1.71579e-06
1.32458e-06
8.41538e-07
2.79946e-08
0
0
1.82596e-06
1.3608e-05
4.70992e-05
4.00609e-05
4.00619e-05
4.00621e-05
4.00625e-05
4.00631e-05
4.00639e-05
4.00648e-05
4.00656e-05
4.00664e-05
4.00671e-05
4.00678e-05
4.00685e-05
4.00692e-05
4.00699e-05
4.00705e-05
4.00711e-05
4.00722e-05
4.00742e-05
4.00744e-05
4.00644e-05
4.00342e-05
4.00165e-05
4.00423e-05
4.0257e-05
4.06983e-05
4.12301e-05
4.19153e-05
4.20747e-05
4.14233e-05
3.99715e-05
3.67864e-05
3.23177e-05
2.70719e-05
2.12911e-05
1.38025e-05
4.68891e-07
1.94686e-06
1.60606e-06
1.33662e-06
1.04938e-06
7.54078e-07
4.0058e-05
4.00594e-05
4.00601e-05
4.0061e-05
4.00621e-05
4.00633e-05
4.00644e-05
4.00654e-05
4.00663e-05
4.00672e-05
4.0068e-05
4.00687e-05
4.00695e-05
4.00702e-05
4.00709e-05
4.00716e-05
4.00722e-05
4.0073e-05
4.00744e-05
4.00761e-05
4.00745e-05
4.00635e-05
4.00394e-05
4.00087e-05
4.00251e-05
4.01128e-05
4.03462e-05
4.07351e-05
4.12065e-05
4.16804e-05
4.21776e-05
4.22279e-05
4.17179e-05
4.06646e-05
3.89557e-05
3.61833e-05
3.27868e-05
2.87614e-05
2.44892e-05
1.96061e-05
1.44223e-05
4.00555e-05
4.00573e-05
4.00588e-05
4.00602e-05
4.00617e-05
4.00632e-05
4.00645e-05
4.00657e-05
4.00667e-05
4.00677e-05
4.00686e-05
4.00694e-05
4.00702e-05
4.0071e-05
4.00718e-05
4.00725e-05
4.00732e-05
4.00739e-05
4.00747e-05
4.00756e-05
4.00772e-05
4.00786e-05
4.00778e-05
4.00684e-05
4.00492e-05
4.00267e-05
4.00089e-05
4.00229e-05
4.00967e-05
4.02429e-05
4.04959e-05
4.08387e-05
4.12323e-05
4.16129e-05
4.19785e-05
4.22957e-05
4.23241e-05
4.20296e-05
4.14155e-05
4.04207e-05
3.92778e-05
4.00534e-05
4.00559e-05
4.0058e-05
4.00599e-05
4.00617e-05
4.00633e-05
4.00648e-05
4.00661e-05
4.00673e-05
4.00683e-05
4.00693e-05
4.00702e-05
4.00711e-05
4.0072e-05
4.00728e-05
4.00736e-05
4.00744e-05
4.00752e-05
4.0076e-05
4.00768e-05
4.00776e-05
4.00787e-05
4.00805e-05
4.00822e-05
4.00818e-05
4.00779e-05
4.00679e-05
4.00508e-05
4.00302e-05
4.00128e-05
4.00079e-05
4.00294e-05
4.00912e-05
4.01992e-05
4.03583e-05
4.05736e-05
4.08324e-05
4.11244e-05
4.14236e-05
4.17111e-05
4.19458e-05
4.00517e-05
4.0055e-05
4.00576e-05
4.00598e-05
4.00618e-05
4.00635e-05
4.00651e-05
4.00665e-05
4.00678e-05
4.00689e-05
4.007e-05
4.0071e-05
4.00719e-05
4.00729e-05
4.00738e-05
4.00747e-05
4.00756e-05
4.00765e-05
4.00774e-05
4.00783e-05
4.00791e-05
4.008e-05
4.0081e-05
4.00822e-05
4.00838e-05
4.00855e-05
4.00869e-05
4.00868e-05
4.00837e-05
4.00768e-05
4.00654e-05
4.00502e-05
4.00336e-05
4.00194e-05
4.00113e-05
4.00137e-05
4.00312e-05
4.00706e-05
4.01337e-05
4.02285e-05
4.03288e-05
4.00505e-05
4.00544e-05
4.00573e-05
4.00598e-05
4.00618e-05
4.00637e-05
4.00653e-05
4.00668e-05
4.00682e-05
4.00694e-05
4.00706e-05
4.00717e-05
4.00727e-05
4.00737e-05
4.00747e-05
4.00757e-05
4.00767e-05
4.00777e-05
4.00787e-05
4.00796e-05
4.00806e-05
4.00816e-05
4.00826e-05
4.00836e-05
4.00846e-05
4.00858e-05
4.00873e-05
4.0089e-05
4.00908e-05
4.00923e-05
4.00932e-05
4.00927e-05
4.00903e-05
4.00857e-05
4.00787e-05
4.00695e-05
4.00584e-05
4.00464e-05
4.00346e-05
4.00252e-05
4.00188e-05
4.00497e-05
4.0054e-05
4.00571e-05
4.00596e-05
4.00618e-05
4.00637e-05
4.00654e-05
4.0067e-05
4.00684e-05
4.00698e-05
4.0071e-05
4.00722e-05
4.00733e-05
4.00744e-05
4.00755e-05
4.00766e-05
4.00776e-05
4.00787e-05
4.00798e-05
4.00808e-05
4.00819e-05
4.0083e-05
4.00841e-05
4.00852e-05
4.00862e-05
4.00873e-05
4.00884e-05
4.00896e-05
4.00909e-05
4.00923e-05
4.00939e-05
4.00957e-05
4.00974e-05
4.0099e-05
4.01002e-05
4.01009e-05
4.01009e-05
4.00998e-05
4.00977e-05
4.00938e-05
4.00903e-05
4.00492e-05
4.00536e-05
4.00568e-05
4.00594e-05
4.00616e-05
4.00636e-05
4.00654e-05
4.00671e-05
4.00686e-05
4.007e-05
4.00714e-05
4.00726e-05
4.00738e-05
4.0075e-05
4.00761e-05
4.00773e-05
4.00784e-05
4.00796e-05
4.00807e-05
4.00818e-05
4.0083e-05
4.00842e-05
4.00853e-05
4.00865e-05
4.00877e-05
4.00888e-05
4.009e-05
4.00912e-05
4.00923e-05
4.00935e-05
4.00947e-05
4.0096e-05
4.00973e-05
4.00986e-05
4.01001e-05
4.01016e-05
4.01032e-05
4.01047e-05
4.01062e-05
4.01074e-05
4.01088e-05
4.00487e-05
4.00532e-05
4.00564e-05
4.00591e-05
4.00613e-05
4.00634e-05
4.00653e-05
4.0067e-05
4.00686e-05
4.00701e-05
4.00715e-05
4.00729e-05
4.00742e-05
4.00754e-05
4.00766e-05
4.00779e-05
4.00791e-05
4.00803e-05
4.00815e-05
4.00827e-05
4.0084e-05
4.00852e-05
4.00864e-05
4.00876e-05
4.00889e-05
4.00901e-05
4.00913e-05
4.00925e-05
4.00937e-05
4.00949e-05
4.00961e-05
4.00973e-05
4.00984e-05
4.00996e-05
4.01007e-05
4.01019e-05
4.0103e-05
4.01041e-05
4.01053e-05
4.01064e-05
4.01076e-05
4.00482e-05
4.00526e-05
4.00559e-05
4.00586e-05
4.00609e-05
4.0063e-05
4.00649e-05
4.00667e-05
4.00684e-05
4.007e-05
4.00715e-05
4.0073e-05
4.00743e-05
4.00757e-05
4.0077e-05
4.00783e-05
4.00796e-05
4.00809e-05
4.00822e-05
4.00834e-05
4.00847e-05
4.0086e-05
4.00873e-05
4.00886e-05
4.00899e-05
4.00911e-05
4.00924e-05
4.00936e-05
4.00948e-05
4.0096e-05
4.00972e-05
4.00984e-05
4.00996e-05
4.01007e-05
4.01018e-05
4.01029e-05
4.01039e-05
4.01049e-05
4.01058e-05
4.01066e-05
4.01076e-05
4.00476e-05
4.0052e-05
4.00552e-05
4.00579e-05
4.00603e-05
4.00624e-05
4.00644e-05
4.00663e-05
4.00681e-05
4.00697e-05
4.00713e-05
4.00729e-05
4.00743e-05
4.00757e-05
4.00771e-05
4.00785e-05
4.00799e-05
4.00813e-05
4.00826e-05
4.0084e-05
4.00853e-05
4.00867e-05
4.0088e-05
4.00893e-05
4.00906e-05
4.00919e-05
4.00932e-05
4.00945e-05
4.00957e-05
4.00969e-05
4.00981e-05
4.00993e-05
4.01004e-05
4.01015e-05
4.01026e-05
4.01036e-05
4.01046e-05
4.01055e-05
4.01064e-05
4.01071e-05
4.0108e-05
4.00469e-05
4.00511e-05
4.00544e-05
4.00571e-05
4.00594e-05
4.00616e-05
4.00637e-05
4.00656e-05
4.00675e-05
4.00693e-05
4.0071e-05
4.00726e-05
4.00741e-05
4.00757e-05
4.00771e-05
4.00786e-05
4.00801e-05
4.00815e-05
4.00829e-05
4.00843e-05
4.00857e-05
4.00872e-05
4.00885e-05
4.00899e-05
4.00912e-05
4.00925e-05
4.00938e-05
4.00951e-05
4.00963e-05
4.00976e-05
4.00987e-05
4.00999e-05
4.0101e-05
4.0102e-05
4.01031e-05
4.0104e-05
4.01049e-05
4.01058e-05
4.01066e-05
4.01072e-05
4.01081e-05
4.0046e-05
4.00502e-05
4.00533e-05
4.0056e-05
4.00584e-05
4.00606e-05
4.00628e-05
4.00648e-05
4.00667e-05
4.00686e-05
4.00704e-05
4.00721e-05
4.00738e-05
4.00754e-05
4.0077e-05
4.00785e-05
4.00801e-05
4.00816e-05
4.00831e-05
4.00845e-05
4.0086e-05
4.00875e-05
4.00889e-05
4.00903e-05
4.00916e-05
4.0093e-05
4.00943e-05
4.00956e-05
4.00968e-05
4.0098e-05
4.00992e-05
4.01003e-05
4.01013e-05
4.01024e-05
4.01033e-05
4.01043e-05
4.01051e-05
4.01059e-05
4.01066e-05
4.01072e-05
4.01079e-05
4.00449e-05
4.0049e-05
4.0052e-05
4.00547e-05
4.00571e-05
4.00594e-05
4.00616e-05
4.00637e-05
4.00658e-05
4.00678e-05
4.00697e-05
4.00715e-05
4.00733e-05
4.0075e-05
4.00766e-05
4.00783e-05
4.00799e-05
4.00815e-05
4.0083e-05
4.00846e-05
4.00861e-05
4.00876e-05
4.00891e-05
4.00905e-05
4.00919e-05
4.00932e-05
4.00946e-05
4.00958e-05
4.00971e-05
4.00983e-05
4.00994e-05
4.01005e-05
4.01015e-05
4.01025e-05
4.01034e-05
4.01043e-05
4.01051e-05
4.01058e-05
4.01065e-05
4.0107e-05
4.01076e-05
4.00437e-05
4.00475e-05
4.00505e-05
4.00532e-05
4.00556e-05
4.0058e-05
4.00602e-05
4.00625e-05
4.00646e-05
4.00667e-05
4.00687e-05
4.00706e-05
4.00725e-05
4.00743e-05
4.00761e-05
4.00778e-05
4.00795e-05
4.00812e-05
4.00828e-05
4.00844e-05
4.0086e-05
4.00876e-05
4.00891e-05
4.00905e-05
4.0092e-05
4.00933e-05
4.00947e-05
4.00959e-05
4.00972e-05
4.00983e-05
4.00995e-05
4.01005e-05
4.01015e-05
4.01025e-05
4.01034e-05
4.01042e-05
4.01049e-05
4.01056e-05
4.01062e-05
4.01066e-05
4.01072e-05
4.00422e-05
4.00458e-05
4.00488e-05
4.00514e-05
4.00538e-05
4.00562e-05
4.00586e-05
4.00609e-05
4.00631e-05
4.00653e-05
4.00674e-05
4.00695e-05
4.00714e-05
4.00734e-05
4.00752e-05
4.00771e-05
4.00788e-05
4.00806e-05
4.00823e-05
4.0084e-05
4.00856e-05
4.00873e-05
4.00888e-05
4.00903e-05
4.00918e-05
4.00932e-05
4.00945e-05
4.00958e-05
4.0097e-05
4.00982e-05
4.00993e-05
4.01003e-05
4.01013e-05
4.01022e-05
4.01031e-05
4.01039e-05
4.01046e-05
4.01052e-05
4.01057e-05
4.01062e-05
4.01067e-05
4.00404e-05
4.00439e-05
4.00467e-05
4.00493e-05
4.00518e-05
4.00542e-05
4.00566e-05
4.0059e-05
4.00613e-05
4.00636e-05
4.00658e-05
4.00679e-05
4.007e-05
4.00721e-05
4.0074e-05
4.0076e-05
4.00778e-05
4.00797e-05
4.00815e-05
4.00832e-05
4.00849e-05
4.00866e-05
4.00882e-05
4.00898e-05
4.00912e-05
4.00927e-05
4.0094e-05
4.00953e-05
4.00965e-05
4.00977e-05
4.00988e-05
4.00998e-05
4.01008e-05
4.01017e-05
4.01025e-05
4.01032e-05
4.01039e-05
4.01045e-05
4.0105e-05
4.01054e-05
4.01059e-05
4.00384e-05
4.00417e-05
4.00444e-05
4.00469e-05
4.00494e-05
4.00519e-05
4.00543e-05
4.00567e-05
4.00591e-05
4.00614e-05
4.00637e-05
4.0066e-05
4.00682e-05
4.00703e-05
4.00724e-05
4.00744e-05
4.00764e-05
4.00783e-05
4.00802e-05
4.0082e-05
4.00838e-05
4.00855e-05
4.00872e-05
4.00887e-05
4.00903e-05
4.00917e-05
4.00931e-05
4.00944e-05
4.00956e-05
4.00968e-05
4.00979e-05
4.00989e-05
4.00998e-05
4.01007e-05
4.01015e-05
4.01022e-05
4.01028e-05
4.01034e-05
4.01039e-05
4.01043e-05
4.01047e-05
4.00361e-05
4.00391e-05
4.00417e-05
4.00442e-05
4.00467e-05
4.00491e-05
4.00515e-05
4.0054e-05
4.00564e-05
4.00588e-05
4.00611e-05
4.00635e-05
4.00658e-05
4.0068e-05
4.00701e-05
4.00723e-05
4.00743e-05
4.00763e-05
4.00783e-05
4.00802e-05
4.0082e-05
4.00838e-05
4.00855e-05
4.00871e-05
4.00887e-05
4.00902e-05
4.00916e-05
4.00929e-05
4.00941e-05
4.00953e-05
4.00964e-05
4.00974e-05
4.00983e-05
4.00991e-05
4.00999e-05
4.01006e-05
4.01012e-05
4.01017e-05
4.01022e-05
4.01026e-05
4.01029e-05
4.00334e-05
4.00362e-05
4.00387e-05
4.00411e-05
4.00435e-05
4.00458e-05
4.00482e-05
4.00507e-05
4.00531e-05
4.00555e-05
4.0058e-05
4.00603e-05
4.00627e-05
4.0065e-05
4.00673e-05
4.00695e-05
4.00716e-05
4.00737e-05
4.00757e-05
4.00777e-05
4.00796e-05
4.00814e-05
4.00832e-05
4.00848e-05
4.00864e-05
4.00879e-05
4.00893e-05
4.00906e-05
4.00919e-05
4.0093e-05
4.00941e-05
4.00951e-05
4.0096e-05
4.00969e-05
4.00976e-05
4.00983e-05
4.00989e-05
4.00994e-05
4.00999e-05
4.01002e-05
4.01006e-05
4.00304e-05
4.0033e-05
4.00353e-05
4.00375e-05
4.00397e-05
4.0042e-05
4.00444e-05
4.00467e-05
4.00492e-05
4.00516e-05
4.00541e-05
4.00565e-05
4.0059e-05
4.00613e-05
4.00637e-05
4.0066e-05
4.00682e-05
4.00704e-05
4.00724e-05
4.00745e-05
4.00764e-05
4.00783e-05
4.00801e-05
4.00818e-05
4.00834e-05
4.00849e-05
4.00863e-05
4.00877e-05
4.00889e-05
4.00901e-05
4.00911e-05
4.00921e-05
4.0093e-05
4.00938e-05
4.00946e-05
4.00952e-05
4.00958e-05
4.00963e-05
4.00967e-05
4.0097e-05
4.00974e-05
4.0027e-05
4.00293e-05
4.00314e-05
4.00334e-05
4.00355e-05
4.00376e-05
4.00398e-05
4.00422e-05
4.00446e-05
4.0047e-05
4.00495e-05
4.0052e-05
4.00544e-05
4.00569e-05
4.00593e-05
4.00616e-05
4.00639e-05
4.00661e-05
4.00683e-05
4.00704e-05
4.00724e-05
4.00743e-05
4.00761e-05
4.00778e-05
4.00794e-05
4.00809e-05
4.00824e-05
4.00837e-05
4.00849e-05
4.00861e-05
4.00872e-05
4.00881e-05
4.0089e-05
4.00898e-05
4.00906e-05
4.00912e-05
4.00918e-05
4.00923e-05
4.00927e-05
4.00931e-05
4.00934e-05
4.00232e-05
4.00252e-05
4.0027e-05
4.00288e-05
4.00306e-05
4.00326e-05
4.00347e-05
4.00369e-05
4.00392e-05
4.00416e-05
4.0044e-05
4.00465e-05
4.0049e-05
4.00514e-05
4.00539e-05
4.00562e-05
4.00586e-05
4.00609e-05
4.00631e-05
4.00652e-05
4.00673e-05
4.00692e-05
4.00711e-05
4.00729e-05
4.00745e-05
4.00761e-05
4.00775e-05
4.00789e-05
4.00802e-05
4.00813e-05
4.00824e-05
4.00833e-05
4.00842e-05
4.0085e-05
4.00857e-05
4.00863e-05
4.00869e-05
4.00873e-05
4.00877e-05
4.0088e-05
4.00883e-05
4.00189e-05
4.00206e-05
4.0022e-05
4.00235e-05
4.00251e-05
4.00269e-05
4.00288e-05
4.00308e-05
4.0033e-05
4.00353e-05
4.00376e-05
4.004e-05
4.00424e-05
4.00448e-05
4.00472e-05
4.00496e-05
4.0052e-05
4.00543e-05
4.00565e-05
4.00586e-05
4.00607e-05
4.00626e-05
4.00645e-05
4.00662e-05
4.00679e-05
4.00694e-05
4.00708e-05
4.00722e-05
4.00734e-05
4.00746e-05
4.00756e-05
4.00766e-05
4.00774e-05
4.00782e-05
4.00789e-05
4.00796e-05
4.00801e-05
4.00806e-05
4.0081e-05
4.00814e-05
4.00817e-05
4.00142e-05
4.00154e-05
4.00165e-05
4.00177e-05
4.0019e-05
4.00205e-05
4.00221e-05
4.00239e-05
4.00258e-05
4.00278e-05
4.00299e-05
4.00321e-05
4.00343e-05
4.00366e-05
4.00389e-05
4.00411e-05
4.00433e-05
4.00455e-05
4.00477e-05
4.00499e-05
4.0052e-05
4.0054e-05
4.00559e-05
4.00578e-05
4.00595e-05
4.00611e-05
4.00626e-05
4.0064e-05
4.00654e-05
4.00665e-05
4.00676e-05
4.00686e-05
4.00695e-05
4.00703e-05
4.0071e-05
4.00717e-05
4.00722e-05
4.00727e-05
4.0073e-05
4.00734e-05
4.00736e-05
4.00089e-05
4.00096e-05
4.00104e-05
4.00112e-05
4.00122e-05
4.00132e-05
4.00145e-05
4.00158e-05
4.00172e-05
4.00188e-05
4.00205e-05
4.00223e-05
4.00243e-05
4.00263e-05
4.00286e-05
4.00309e-05
4.00333e-05
4.00356e-05
4.00379e-05
4.004e-05
4.00421e-05
4.00441e-05
4.00459e-05
4.00477e-05
4.00493e-05
4.00509e-05
4.00523e-05
4.00536e-05
4.00549e-05
4.0056e-05
4.0057e-05
4.0058e-05
4.00588e-05
4.00596e-05
4.00603e-05
4.00609e-05
4.00614e-05
4.00619e-05
4.00623e-05
4.00627e-05
4.0063e-05
4.0003e-05
4.00033e-05
4.00035e-05
4.00039e-05
4.00043e-05
4.00048e-05
4.00053e-05
4.00059e-05
4.00066e-05
4.00074e-05
4.00082e-05
4.00091e-05
4.001e-05
4.00109e-05
4.00118e-05
4.00128e-05
4.00137e-05
4.00145e-05
4.00153e-05
4.00161e-05
4.00169e-05
4.00177e-05
4.00185e-05
4.00193e-05
4.00201e-05
4.00209e-05
4.00217e-05
4.00225e-05
4.00233e-05
4.00241e-05
4.00249e-05
4.00256e-05
4.00263e-05
4.0027e-05
4.00277e-05
4.00283e-05
4.00289e-05
4.00294e-05
4.003e-05
4.00304e-05
4.00309e-05
0.00349303
0.00669658
0.0104525
0.0143899
0.0175343
0.0190217
0.0184569
0.0159015
0.0116612
0.00614567
0.00140785
3.99756e-05
3.03287e-06
2.46533e-05
3.99628e-05
4.05959e-05
4.01972e-05
4.02049e-05
4.02495e-05
4.02714e-05
4.02827e-05
4.02868e-05
4.02843e-05
4.0276e-05
4.02629e-05
4.02462e-05
4.02277e-05
4.0209e-05
4.01914e-05
4.01758e-05
4.01629e-05
4.01528e-05
4.01453e-05
4.01401e-05
4.01366e-05
4.01342e-05
4.01325e-05
4.01311e-05
4.01298e-05
4.01283e-05
4.01264e-05
4.0124e-05
4.01209e-05
4.0117e-05
4.01123e-05
4.01068e-05
4.01007e-05
4.00942e-05
4.00881e-05
4.00831e-05
4.00797e-05
4.00773e-05
4.00756e-05
4.00742e-05
4.00731e-05
4.00722e-05
4.00715e-05
4.00711e-05
4.0071e-05
4.00715e-05
4.00726e-05
4.00745e-05
4.00772e-05
4.00809e-05
4.00855e-05
4.00909e-05
4.00969e-05
4.01035e-05
4.01103e-05
4.01174e-05
4.01243e-05
4.01318e-05
4.01372e-05
4.01499e-05
0.00615751
0.010448
0.0146604
0.0186905
0.0218589
0.0234148
0.0229709
0.0205485
0.0164334
0.0108588
0.00444725
0.000603514
5.65233e-05
6.82366e-06
3.35837e-05
4.1325e-05
4.05613e-05
4.02536e-05
4.02745e-05
4.02995e-05
4.03097e-05
4.03118e-05
4.03066e-05
4.02953e-05
4.02791e-05
4.02597e-05
4.02388e-05
4.02181e-05
4.01989e-05
4.01822e-05
4.01683e-05
4.01575e-05
4.01496e-05
4.01439e-05
4.01401e-05
4.01375e-05
4.01356e-05
4.0134e-05
4.01324e-05
4.01305e-05
4.01282e-05
4.01253e-05
4.01216e-05
4.01171e-05
4.01118e-05
4.01057e-05
4.00993e-05
4.00929e-05
4.00874e-05
4.00834e-05
4.00809e-05
4.00792e-05
4.00781e-05
4.00773e-05
4.00767e-05
4.00762e-05
4.00759e-05
4.00757e-05
4.0076e-05
4.00767e-05
4.0078e-05
4.008e-05
4.00829e-05
4.00866e-05
4.00911e-05
4.00964e-05
4.01022e-05
4.01084e-05
4.01149e-05
4.01215e-05
4.01279e-05
4.01349e-05
4.01398e-05
4.01517e-05
0.00869212
0.0143544
0.0192215
0.023442
0.0266961
0.0283989
0.028177
0.0259909
0.0220622
0.0166279
0.00970904
0.00300464
0.00019596
2.51393e-05
3.57393e-06
3.67741e-05
4.12492e-05
4.04792e-05
4.03003e-05
4.03273e-05
4.03376e-05
4.03353e-05
4.03272e-05
4.03138e-05
4.02958e-05
4.02745e-05
4.02515e-05
4.02285e-05
4.02072e-05
4.01888e-05
4.01738e-05
4.01623e-05
4.01538e-05
4.01478e-05
4.01437e-05
4.01408e-05
4.01386e-05
4.01367e-05
4.01348e-05
4.01325e-05
4.01297e-05
4.01262e-05
4.01219e-05
4.01168e-05
4.01109e-05
4.01045e-05
4.0098e-05
4.0092e-05
4.00871e-05
4.00842e-05
4.00825e-05
4.00816e-05
4.00811e-05
4.00809e-05
4.00807e-05
4.00806e-05
4.00806e-05
4.00807e-05
4.00812e-05
4.00821e-05
4.00836e-05
4.00858e-05
4.00888e-05
4.00924e-05
4.00969e-05
4.01019e-05
4.01074e-05
4.01133e-05
4.01193e-05
4.01255e-05
4.01314e-05
4.01379e-05
4.01423e-05
4.01533e-05
0.0111547
0.0184301
0.0241108
0.0286367
0.032045
0.03395
0.0340188
0.032154
0.0284866
0.0232389
0.0164282
0.00830303
0.00194648
9.43813e-05
9.03535e-06
7.02109e-06
3.68e-05
4.08349e-05
4.0375e-05
4.03137e-05
4.03563e-05
4.03615e-05
4.03489e-05
4.03298e-05
4.03081e-05
4.02853e-05
4.02619e-05
4.02387e-05
4.02168e-05
4.01972e-05
4.01807e-05
4.01678e-05
4.01582e-05
4.01516e-05
4.0147e-05
4.01439e-05
4.01415e-05
4.01392e-05
4.01369e-05
4.01341e-05
4.01308e-05
4.01267e-05
4.01218e-05
4.01161e-05
4.01099e-05
4.01033e-05
4.0097e-05
4.00915e-05
4.00875e-05
4.00855e-05
4.00847e-05
4.00845e-05
4.00846e-05
4.00848e-05
4.00851e-05
4.00853e-05
4.00856e-05
4.0086e-05
4.00867e-05
4.00878e-05
4.00895e-05
4.00917e-05
4.00947e-05
4.00983e-05
4.01026e-05
4.01074e-05
4.01126e-05
4.01181e-05
4.01237e-05
4.01294e-05
4.01348e-05
4.01408e-05
4.01446e-05
4.01548e-05
0.0136843
0.0227033
0.0292753
0.0342193
0.0378629
0.040023
0.0404373
0.0389735
0.0356717
0.0306886
0.0241291
0.0158715
0.00693786
0.00133655
2.37612e-05
3.06773e-06
1.43137e-05
3.80394e-05
4.08295e-05
4.0357e-05
4.03219e-05
4.03704e-05
4.03762e-05
4.03608e-05
4.03345e-05
4.03033e-05
4.02726e-05
4.02452e-05
4.02217e-05
4.02022e-05
4.01863e-05
4.01737e-05
4.01639e-05
4.01565e-05
4.0151e-05
4.0147e-05
4.0144e-05
4.01414e-05
4.01386e-05
4.01354e-05
4.01316e-05
4.01269e-05
4.01215e-05
4.01154e-05
4.01088e-05
4.01023e-05
4.00964e-05
4.00915e-05
4.00885e-05
4.00874e-05
4.00873e-05
4.00878e-05
4.00884e-05
4.00891e-05
4.00898e-05
4.00903e-05
4.00909e-05
4.00916e-05
4.00925e-05
4.00937e-05
4.00955e-05
4.00978e-05
4.01007e-05
4.01042e-05
4.01083e-05
4.01129e-05
4.01178e-05
4.01228e-05
4.0128e-05
4.01332e-05
4.01381e-05
4.01435e-05
4.01469e-05
4.01561e-05
0.0168912
0.0271931
0.0346411
0.0400998
0.0440634
0.046534
0.0473429
0.0463527
0.043532
0.0389488
0.032714
0.0247814
0.0151482
0.00584625
0.000926613
0.00017078
3.99913e-06
1.87592e-05
3.89894e-05
4.10848e-05
4.0445e-05
4.03465e-05
4.03708e-05
4.03661e-05
4.03533e-05
4.03349e-05
4.03082e-05
4.02761e-05
4.02434e-05
4.02145e-05
4.01918e-05
4.01758e-05
4.01654e-05
4.01588e-05
4.01544e-05
4.01508e-05
4.01473e-05
4.01439e-05
4.01403e-05
4.01363e-05
4.01319e-05
4.01268e-05
4.0121e-05
4.01146e-05
4.0108e-05
4.01016e-05
4.00962e-05
4.00921e-05
4.00899e-05
4.00897e-05
4.00904e-05
4.00914e-05
4.00926e-05
4.00938e-05
4.00948e-05
4.00957e-05
4.00965e-05
4.00974e-05
4.00984e-05
4.00998e-05
4.01016e-05
4.01039e-05
4.01068e-05
4.01102e-05
4.0114e-05
4.01183e-05
4.01228e-05
4.01275e-05
4.01322e-05
4.01368e-05
4.01412e-05
4.01461e-05
4.01489e-05
4.01573e-05
0.0214106
0.0318824
0.0401315
0.0461593
0.0505139
0.053349
0.0545974
0.0541441
0.0519139
0.0478929
0.0421293
0.0346464
0.0253148
0.0145046
0.00510102
0.000686143
0.000142855
5.01422e-06
1.92848e-05
3.91037e-05
4.13161e-05
4.05022e-05
4.03522e-05
4.03653e-05
4.03275e-05
4.02917e-05
4.02767e-05
4.02691e-05
4.02591e-05
4.02435e-05
4.0223e-05
4.02007e-05
4.01804e-05
4.0165e-05
4.01552e-05
4.01499e-05
4.01471e-05
4.01449e-05
4.0142e-05
4.01378e-05
4.01327e-05
4.01268e-05
4.01204e-05
4.01138e-05
4.01073e-05
4.01013e-05
4.00965e-05
4.00932e-05
4.00918e-05
4.00924e-05
4.00937e-05
4.00954e-05
4.00971e-05
4.00987e-05
4.01e-05
4.01012e-05
4.01023e-05
4.01034e-05
4.01045e-05
4.0106e-05
4.01078e-05
4.01101e-05
4.01129e-05
4.01161e-05
4.01197e-05
4.01236e-05
4.01278e-05
4.0132e-05
4.01362e-05
4.01404e-05
4.01442e-05
4.01486e-05
4.01509e-05
4.01584e-05
0.0268018
0.0367234
0.0456701
0.0522493
0.0570326
0.0602759
0.0620018
0.0621365
0.0605892
0.0572866
0.0521955
0.0453139
0.0365891
0.0259127
0.0141492
0.00472776
0.00059092
0.000144267
4.93449e-06
1.56972e-05
3.81983e-05
4.17621e-05
4.07028e-05
4.03886e-05
4.04592e-05
4.04241e-05
4.03177e-05
4.023e-05
4.0183e-05
4.01676e-05
4.01709e-05
4.0181e-05