/*--------------------------------*- C++ -*----------------------------------*\
| =========                 |                                                 |
| \\      /  F ield         | OpenFOAM: The Open Source CFD Toolbox           |
|  \\    /   O peration     | Version:  2312                                  |
|   \\  /    A nd           | Website:  www.openfoam.com                      |
|    \\/     M anipulation  |                                                 |
\*---------------------------------------------------------------------------*/
FoamFile
{
    version     2.0;
    format      ascii;
    arch        "LSB;label=32;scalar=64";
    class       volScalarField;
    location    "500";
    object      p;
}
// * * * * * * * * * * * * * * * * * * * * * * * * * * * * * * * * * * * * * //

dimensions      [0 2 -2 0 0 0 0];

internalField   nonuniform List<scalar> 
11040
(
-19.5851
-25.2453
-20.3787
-19.7185
-19.6054
-19.4008
-19.1909
-19.014
-18.8747
-18.7703
-18.6735
-18.5912
-18.519
-18.4508
-18.3935
-18.342
-18.2998
-18.2661
-18.241
-18.2255
-18.2179
-18.2205
-18.2376
-18.2682
-18.3086
-18.3529
-18.3954
-18.4257
-18.4337
-18.406
-18.3305
-18.1957
-17.9928
-17.7185
-17.379
-16.9909
-16.5745
-16.2026
-15.9765
-15.6902
-15.9976
-8.56557
-15.1904
-19.0093
-19.5374
-19.5612
-19.4126
-19.2037
-19.023
-18.8787
-18.7731
-18.6754
-18.5917
-18.5191
-18.45
-18.3919
-18.3398
-18.2969
-18.2626
-18.2368
-18.2208
-18.2129
-18.2152
-18.2316
-18.2615
-18.3015
-18.3459
-18.3889
-18.4205
-18.4305
-18.4058
-18.3339
-18.2031
-18.0049
-17.7358
-17.4018
-17.019
-16.6078
-16.2373
-16.0141
-15.7179
-16.419
-1.83126
-8.83693
-15.0496
-18.4309
-19.3012
-19.3603
-19.2112
-19.0315
-18.8786
-18.7727
-18.675
-18.5902
-18.5177
-18.4477
-18.3892
-18.3364
-18.2928
-18.2578
-18.2314
-18.2147
-18.2064
-18.2086
-18.2245
-18.2537
-18.2933
-18.3377
-18.3812
-18.4139
-18.4257
-18.4038
-18.3359
-18.21
-18.0179
-17.7559
-17.4298
-17.0558
-16.6547
-16.2914
-16.0809
-15.7706
-16.646
2.14882
-4.97939
-10.9789
-15.345
-18.0402
-19.0578
-19.125
-19.032
-18.8789
-18.771
-18.6729
-18.5865
-18.5151
-18.4441
-18.385
-18.3314
-18.2869
-18.2512
-18.2241
-18.2066
-18.1977
-18.1998
-18.2153
-18.2439
-18.2831
-18.3277
-18.372
-18.4064
-18.421
-18.4031
-18.3404
-18.2212
-18.0371
-17.7845
-17.4688
-17.1062
-16.7179
-16.365
-16.1681
-15.8602
-16.7307
4.68998
-1.13461
-6.86201
-11.6334
-15.2396
-17.638
-18.724
-18.8632
-18.8713
-18.7739
-18.673
-18.5802
-18.5112
-18.4388
-18.3797
-18.3252
-18.2798
-18.2432
-18.2152
-18.1967
-18.1871
-18.1888
-18.2037
-18.2318
-18.2706
-18.3155
-18.3609
-18.3977
-18.416
-18.4034
-18.3478
-18.2376
-18.0643
-17.8242
-17.5224
-17.1747
-16.8028
-16.4646
-16.2769
-15.9902
-16.7565
6.1461
1.59088
-3.32782
-8.0517
-11.9897
-14.9765
-17.1101
-18.2585
-18.6259
-18.7122
-18.6775
-18.577
-18.5069
-18.4307
-18.3726
-18.3175
-18.2711
-18.2337
-18.2047
-18.1852
-18.1744
-18.1755
-18.1895
-18.2167
-18.2552
-18.3006
-18.3475
-18.3874
-18.4104
-18.4048
-18.3585
-18.26
-18.1009
-17.8771
-17.5933
-17.2649
-16.914
-16.5948
-16.4109
-16.1625
-16.7736
6.93583
3.28601
-0.698161
-4.82934
-8.73482
-12.0296
-14.5872
-16.5044
-17.7523
-18.3544
-18.5027
-18.5691
-18.5094
-18.4247
-18.3629
-18.3069
-18.2605
-18.2226
-18.1927
-18.172
-18.1599
-18.1597
-18.1725
-18.1986
-18.2365
-18.2824
-18.3312
-18.375
-18.4042
-18.4075
-18.3731
-18.2896
-18.1485
-17.9457
-17.6849
-17.3808
-17.0556
-16.7591
-16.5761
-16.3759
-16.8063
7.25521
4.29366
1.12093
-2.27282
-5.74093
-9.03489
-11.8845
-14.1425
-15.8861
-17.1794
-17.9454
-18.2812
-18.4088
-18.4323
-18.3598
-18.2969
-18.2459
-18.2083
-18.1782
-18.157
-18.1434
-18.1415
-18.1525
-18.1769
-18.2138
-18.2601
-18.3112
-18.3598
-18.3967
-18.4111
-18.3916
-18.3268
-18.2083
-18.0316
-17.7995
-17.5251
-17.2303
-16.9591
-16.7768
-16.6206
-16.8689
7.26637
4.82526
2.27479
-0.46509
-3.3596
-6.28999
-9.10728
-11.6167
-13.6651
-15.272
-16.5287
-17.4352
-17.9654
-18.1915
-18.3089
-18.3042
-18.2362
-18.1927
-18.1591
-18.1386
-18.1243
-18.1206
-18.1294
-18.1516
-18.187
-18.2333
-18.2867
-18.3407
-18.3867
-18.4146
-18.413
-18.3711
-18.2802
-18.1353
-17.9378
-17.6988
-17.4385
-17.1938
-17.0141
-16.8835
-16.9722
7.0629
5.01642
2.93414
0.725274
-1.63913
-4.10884
-6.60568
-9.03549
-11.2669
-13.1595
-14.6588
-15.8602
-16.8318
-17.5185
-17.9097
-18.1017
-18.2088
-18.1959
-18.1437
-18.1178
-18.0996
-18.0945
-18.1019
-18.1218
-18.1555
-18.2015
-18.2571
-18.3167
-18.3729
-18.4159
-18.4351
-18.4199
-18.3614
-18.2538
-18.0968
-17.8985
-17.6762
-17.4583
-17.2829
-17.1545
-17.1197
6.71327
4.97188
3.24347
1.4452
-0.475374
-2.51338
-4.63102
-6.77276
-8.87701
-10.8615
-12.6129
-14.0533
-15.2125
-16.1756
-16.9523
-17.5018
-17.8237
-18.015
-18.1234
-18.117
-18.0776
-18.0637
-18.0663
-18.0837
-18.1168
-18.163
-18.2208
-18.2865
-18.3533
-18.4128
-18.4548
-18.4692
-18.4464
-18.3801
-18.2675
-18.1138
-17.9312
-17.7403
-17.5692
-17.4259
-17.3047
6.26577
4.76483
3.30626
1.8211
0.252928
-1.41478
-3.17441
-4.99748
-6.84304
-8.66735
-10.4197
-12.0333
-13.4304
-14.5737
-15.5111
-16.3084
-16.9588
-17.4317
-17.7284
-17.9326
-18.0496
-18.0581
-18.037
-18.0401
-18.0668
-18.1114
-18.1725
-18.2456
-18.3245
-18.4014
-18.4676
-18.5129
-18.5275
-18.5036
-18.4366
-18.3274
-18.1834
-18.0178
-17.85
-17.6853
-17.5108
5.75723
4.45004
3.20147
1.95621
0.660602
-0.708146
-2.15611
-3.6774
-5.25128
-6.8453
-8.42504
-9.96505
-11.4328
-12.769
-13.9113
-14.8487
-15.6359
-16.3206
-16.8923
-17.3235
-17.6047
-17.8175
-17.9801
-18.0415
-18.0437
-18.0588
-18.1087
-18.1841
-18.2742
-18.3698
-18.4614
-18.5387
-18.5913
-18.6099
-18.5878
-18.5218
-18.4141
-18.2712
-18.1031
-17.9186
-17.7149
5.21534
4.06799
2.98683
1.92814
0.843487
-0.290288
-1.48366
-2.74071
-4.05727
-5.4169
-6.79333
-8.16471
-9.5163
-10.8295
-12.0726
-13.1961
-14.1559
-14.954
-15.6403
-16.2504
-16.7805
-17.1567
-17.3984
-17.6282
-17.8633
-18.0327
-18.1152
-18.1611
-18.219
-18.3043
-18.4081
-18.5141
-18.6043
-18.6664
-18.6896
-18.6679
-18.5978
-18.4812
-18.3192
-18.1271
-17.9117
4.66099
3.64878
2.70469
1.79442
0.875116
-0.0745608
-1.06535
-2.10481
-3.19612
-4.33485
-5.50721
-6.69785
-7.89199
-9.07496
-10.2354
-11.3602
-12.4249
-13.3912
-14.2287
-14.9408
-15.5871
-16.1169
-16.5036
-16.8257
-17.0935
-17.3351
-17.6084
-17.903
-18.1529
-18.3231
-18.4316
-18.5103
-18.5778
-18.6369
-18.6789
-18.6904
-18.659
-18.5779
-18.4444
-18.27
-18.0696
4.11389
3.21816
2.38869
1.5987
0.8109
0.00654047
-0.824121
-1.68912
-2.5939
-3.54005
-4.52206
-5.53281
-6.56336
-7.60107
-8.63328
-9.65076
-10.6475
-11.6155
-12.5392
-13.3885
-14.1483
-14.7795
-15.2795
-15.7057
-16.0808
-16.4079
-16.6884
-16.9343
-17.1873
-17.4907
-17.8381
-18.173
-18.4385
-18.6128
-18.7007
-18.7176
-18.6765
-18.5853
-18.4415
-18.255
-18.0508
3.59592
2.80249
2.07112
1.38069
0.69925
0.0108065
-0.692841
-1.41914
-2.17383
-2.96044
-3.77798
-4.62414
-5.49511
-6.38396
-7.2813
-8.17729
-9.06308
-9.93264
-10.7827
-11.6092
-12.4034
-13.1282
-13.7566
-14.2948
-14.7616
-15.175
-15.545
-15.8773
-16.1762
-16.4431
-16.6837
-16.917
-17.1671
-17.4437
-17.7244
-17.9713
-18.1475
-18.2354
-18.2211
-18.1197
-17.9706
3.13758
2.43015
1.78039
1.17043
0.572815
-0.0257953
-0.632204
-1.25289
-1.89298
-2.55613
-3.24338
-3.95489
-4.6894
-5.44347
-6.21171
-6.98773
-7.76409
-8.53377
-9.29071
-10.0312
-10.7521
-11.4292
-12.049
-12.6132
-13.1211
-13.5766
-13.9863
-14.3598
-14.7051
-15.0265
-15.3263
-15.604
-15.8547
-16.0767
-16.2665
-16.4269
-16.5601
-16.6746
-16.7518
-16.7822
-16.791
2.74689
2.11071
1.52809
0.983228
0.452334
-0.0757766
-0.606884
-1.14665
-1.69969
-2.26934
-2.85692
-3.4637
-4.0896
-4.73294
-5.39056
-6.05862
-6.7323
-7.40646
-8.07533
-8.73318
-9.37428
-9.97265
-10.5149
-11.0089
-11.46
-11.8745
-12.2574
-12.6125
-12.9428
-13.2517
-13.5415
-13.8133
-14.065
-14.2942
-14.4944
-14.6602
-14.7843
-14.871
-14.913
-14.9042
-14.8786
2.4158
1.84044
1.31451
0.823863
0.347731
-0.123218
-0.594056
-1.06963
-1.55404
-2.05014
-2.55925
-3.08287
-3.62158
-4.17451
-4.7397
-5.31463
-5.89592
-6.47988
-7.06232
-7.63888
-8.20502
-8.73788
-9.22334
-9.66521
-10.0647
-10.4252
-10.7505
-11.0452
-11.313
-11.557
-11.7786
-11.9789
-12.1577
-12.3151
-12.4497
-12.56
-12.6428
-12.6974
-12.7196
-12.7002
-12.6501
2.13369
1.61106
1.13419
0.689719
0.260038
-0.163161
-0.583954
-1.00691
-1.43524
-1.87175
-2.31725
-2.7734
-3.24074
-3.71915
-4.20697
-4.70277
-5.20377
-5.70748
-6.21025
-6.70893
-7.19943
-7.66319
-8.0879
-8.47608
-8.82709
-9.14236
-9.42293
-9.67117
-9.88835
-10.077
-10.2383
-10.3745
-10.486
-10.5738
-10.6377
-10.6776
-10.6926
-10.6808
-10.6433
-10.578
-10.4865
1.89218
1.41634
0.982343
0.57832
0.18866
-0.193371
-0.571766
-0.950118
-1.33161
-1.71819
-2.11102
-2.51096
-2.91907
-3.33494
-3.75775
-4.18598
-4.61791
-5.05113
-5.4831
-5.91066
-6.33071
-6.72719
-7.09044
-7.42175
-7.72086
-7.988
-8.22427
-8.43038
-8.60754
-8.75641
-8.87818
-8.97336
-9.04312
-9.08786
-9.10911
-9.10684
-9.08233
-9.03486
-8.96757
-8.87913
-8.77283
1.68485
1.25062
0.854799
0.486382
0.132023
-0.21418
-0.555695
-0.895744
-1.23699
-1.58114
-1.92912
-2.28159
-2.6394
-3.00231
-3.36962
-3.7401
-4.11231
-4.48426
-4.85383
-5.21834
-5.57506
-5.91061
-6.21709
-6.49533
-6.74484
-6.96561
-7.15841
-7.32378
-7.46269
-7.57577
-7.66407
-7.72815
-7.76913
-7.7875
-7.78464
-7.76071
-7.71692
-7.65338
-7.57266
-7.47441
-7.36147
1.50617
1.10951
0.747742
0.411209
0.0881598
-0.226258
-0.535404
-0.84186
-1.14814
-1.45545
-1.76476
-2.07634
-2.39102
-2.70839
-3.02808
-3.34875
-3.66941
-3.98812
-4.30325
-4.61229
-4.91305
-5.19427
-5.44987
-5.68027
-5.8851
-6.06414
-6.21812
-6.34741
-6.45295
-6.53532
-6.59559
-6.63445
-6.653
-6.652
-6.63279
-6.59592
-6.54254
-6.4732
-6.38985
-6.29287
-6.18393
1.35201
0.989079
0.658121
0.350131
0.0552839
-0.23088
-0.511132
-0.787993
-1.06335
-1.33846
-1.61385
-1.88997
-2.16708
-2.44512
-2.72341
-3.00112
-3.27697
-3.54964
-3.81734
-4.07822
-4.33004
-4.56387
-4.77473
-4.96332
-5.129
-5.27197
-5.39257
-5.4915
-5.56942
-5.62722
-5.6657
-5.68589
-5.68871
-5.67522
-5.64653
-5.60365
-5.54748
-5.47888
-5.39942
-5.30989
-5.2118
1.21858
0.886377
0.583166
0.301032
0.0315343
-0.229168
-0.483631
-0.734021
-0.981979
-1.22852
-1.47408
-1.71897
-1.9633
-2.20695
-2.44931
-2.68959
-2.92669
-3.15939
-3.38616
-3.60537
-3.8151
-4.00806
-4.18055
-4.33324
-4.46569
-4.57813
-4.67103
-4.7451
-4.80102
-4.83965
-4.86191
-4.86873
-4.86112
-4.84008
-4.80673
-4.76199
-4.70688
-4.64212
-4.56926
-4.48876
-4.40244
1.10309
0.798635
0.520678
0.261908
0.0154064
-0.222374
-0.453592
-0.680294
-0.903728
-1.12488
-1.34394
-1.56126
-1.77673
-1.99027
-2.20121
-2.40895
-2.61238
-2.81057
-3.00205
-3.18552
-3.35927
-3.5175
-3.65749
-3.77996
-3.88465
-3.97187
-4.04219
-4.09627
-4.13492
-4.15891
-4.16924
-4.16671
-4.15243
-4.12719
-4.09217
-4.04812
-3.99608
-3.93653
-3.87098
-3.79959
-3.7242
1.00286
0.723805
0.468634
0.231173
0.00545432
-0.211518
-0.421834
-0.627145
-0.828658
-1.02704
-1.22259
-1.41538
-1.60544
-1.79245
-1.97597
-2.15527
-2.32959
-2.49791
-2.65916
-2.81208
-2.95539
-3.0843
-3.19711
-3.29444
-3.37628
-3.44301
-3.49524
-3.5337
-3.55911
-3.57237
-3.57426
-3.56575
-3.54764
-3.52087
-3.48627
-3.44471
-3.39689
-3.34345
-3.2854
-3.2231
-3.15794
0.915954
0.659853
0.425524
0.207364
0.000550154
-0.197613
-0.388999
-0.57507
-0.756839
-0.93487
-1.10939
-1.28044
-1.44799
-1.61171
-1.77118
-1.92578
-2.07485
-2.21753
-2.35293
-2.47998
-2.59766
-2.7022
-2.79252
-2.86933
-2.93272
-2.98316
-3.02122
-3.04772
-3.06333
-3.0689
-3.06516
-3.053
-3.03312
-3.00638
-2.97348
-2.93523
-2.89217
-2.84488
-2.79419
-2.74035
-2.68461
0.840467
0.605387
0.389861
0.189325
-0.000352539
-0.181449
-0.355729
-0.524423
-0.688441
-0.848216
-1.00397
-1.15567
-1.30329
-1.44651
-1.58496
-1.71809
-1.84534
-1.96604
-2.07941
-2.18465
-2.28092
-2.36531
-2.43721
-2.49739
-2.54598
-2.58357
-2.61069
-2.62818
-2.6366
-2.63683
-2.62946
-2.61537
-2.59511
-2.5695
-2.53907
-2.50456
-2.46637
-2.42504
-2.38118
-2.33499
-2.28758
0.774991
0.558873
0.360583
0.175974
0.00190616
-0.163748
-0.322528
-0.47556
-0.623576
-0.766998
-0.905957
-1.04047
-1.17045
-1.29566
-1.41572
-1.53022
-1.63867
-1.74055
-1.83529
-1.92222
-2.00073
-2.06853
-2.12549
-2.17228
-2.20924
-2.23682
-2.2557
-2.26649
-2.26993
-2.26661
-2.25728
-2.24248
-2.22291
-2.19904
-2.17156
-2.14082
-2.10741
-2.07151
-2.0339
-1.99439
-1.95429
0.718123
0.519351
0.336557
0.166519
0.00657985
-0.145075
-0.289849
-0.428739
-0.56237
-0.69112
-0.815097
-0.934329
-1.04873
-1.1581
-1.26215
-1.36051
-1.45282
-1.5387
-1.6177
-1.68932
-1.75317
-1.80747
-1.85239
-1.88858
-1.91642
-1.93635
-1.94907
-1.9551
-1.95515
-1.94972
-1.93948
-1.92487
-1.90652
-1.88479
-1.86028
-1.83326
-1.80423
-1.77331
-1.74116
-1.70754
-1.67368
0.668843
0.485674
0.317068
0.160155
0.0130646
-0.125916
-0.258041
-0.384166
-0.504873
-0.620461
-0.731088
-0.836731
-0.937397
-1.03287
-1.123
-1.20739
-1.28589
-1.35814
-1.42394
-1.48285
-1.53469
-1.57805
-1.61339
-1.64121
-1.66205
-1.67623
-1.68447
-1.68717
-1.68505
-1.67845
-1.66805
-1.65415
-1.63734
-1.61786
-1.59627
-1.57273
-1.5477
-1.52121
-1.49386
-1.46533
-1.4368
0.626106
0.457151
0.301242
0.156329
0.0208204
-0.106688
-0.227376
-0.342006
-0.451078
-0.554898
-0.653594
-0.747215
-0.835738
-0.919075
-0.997046
-1.06945
-1.13611
-1.1969
-1.2516
-1.30004
-1.34201
-1.37665
-1.40432
-1.42572
-1.44114
-1.45113
-1.45608
-1.45664
-1.45316
-1.44622
-1.43611
-1.42335
-1.40818
-1.39104
-1.37215
-1.35187
-1.33033
-1.30779
-1.28452
-1.2604
-1.23633
0.589152
0.432919
0.288594
0.154421
0.0294464
-0.0877078
-0.198074
-0.302345
-0.400966
-0.494243
-0.582315
-0.665266
-0.7431
-0.815804
-0.883251
-0.94533
-1.00192
-1.05301
-1.09846
-1.13825
-1.17225
-1.19987
-1.22153
-1.23792
-1.24927
-1.25613
-1.25884
-1.25798
-1.25383
-1.24691
-1.23745
-1.2259
-1.21245
-1.19747
-1.18112
-1.16371
-1.14534
-1.1262
-1.10652
-1.08616
-1.06595
0.557203
0.41248
0.278465
0.154084
0.0385636
-0.0692288
-0.170298
-0.265225
-0.354469
-0.438298
-0.516911
-0.590399
-0.658834
-0.722233
-0.780558
-0.833774
-0.881814
-0.924754
-0.962559
-0.99527
-1.02285
-1.04493
-1.06196
-1.07456
-1.08295
-1.08764
-1.08891
-1.08728
-1.08297
-1.07644
-1.06786
-1.05763
-1.04588
-1.03294
-1.0189
-1.00404
-0.988417
-0.972202
-0.955569
-0.938363
-0.921374
0.529698
0.395198
0.270522
0.154858
0.0478982
-0.0514765
-0.144136
-0.230685
-0.311465
-0.38687
-0.457014
-0.52215
-0.58227
-0.637574
-0.687967
-0.733597
-0.774335
-0.810433
-0.84181
-0.868697
-0.891017
-0.908642
-0.921938
-0.931567
-0.937649
-0.94071
-0.940939
-0.938843
-0.934557
-0.928519
-0.920827
-0.911852
-0.901656
-0.890546
-0.878567
-0.865969
-0.852764
-0.839112
-0.825144
-0.810697
-0.796512
0.506045
0.380699
0.264276
0.156494
0.057189
-0.0345997
-0.119708
-0.198667
-0.271883
-0.339682
-0.402326
-0.459987
-0.512851
-0.561012
-0.604614
-0.643681
-0.678337
-0.708664
-0.734887
-0.757035
-0.775342
-0.789516
-0.800201
-0.807701
-0.812399
-0.814478
-0.814365
-0.812225
-0.808424
-0.803074
-0.796494
-0.788755
-0.78013
-0.770654
-0.760566
-0.749871
-0.738768
-0.727204
-0.715469
-0.703222
-0.691314
0.485761
0.368446
0.259428
0.158642
0.0662198
-0.0187385
-0.0970359
-0.169164
-0.235551
-0.296542
-0.352452
-0.403492
-0.449906
-0.491825
-0.529461
-0.562877
-0.592233
-0.617643
-0.639384
-0.657508
-0.672289
-0.68352
-0.691835
-0.697479
-0.70081
-0.70198
-0.701378
-0.699128
-0.695563
-0.690757
-0.684995
-0.678317
-0.670963
-0.662943
-0.654466
-0.645516
-0.63627
-0.626662
-0.61695
-0.606797
-0.597004
0.46836
0.358075
0.255517
0.161005
0.0747514
-0.00405988
-0.0761796
-0.14214
-0.202336
-0.257199
-0.307052
-0.352197
-0.3929
-0.429374
-0.46187
-0.490524
-0.515533
-0.537052
-0.555374
-0.570582
-0.582959
-0.592364
-0.599361
-0.604141
-0.607015
-0.608093
-0.607713
-0.605955
-0.603104
-0.5992
-0.59449
-0.588986
-0.582901
-0.576221
-0.569138
-0.56162
-0.553831
-0.545698
-0.537461
-0.528806
-0.520462
0.453666
0.349338
0.252386
0.163324
0.0825491
0.00928994
-0.0572474
-0.117554
-0.172159
-0.221418
-0.265824
-0.305614
-0.341215
-0.372758
-0.400617
-0.424848
-0.445771
-0.46347
-0.478345
-0.490428
-0.50009
-0.507178
-0.5123
-0.515563
-0.517301
-0.51757
-0.516713
-0.514762
-0.511998
-0.508421
-0.50427
-0.499524
-0.494383
-0.488807
-0.482972
-0.476825
-0.470516
-0.463959
-0.45737
-0.450441
-0.44385
0.441537
0.342299
0.250081
0.165706
0.0896632
0.0212816
-0.0402052
-0.0953974
-0.144834
-0.189032
-0.228436
-0.263461
-0.294463
-0.32183
-0.34585
-0.366832
-0.384902
-0.40034
-0.413296
-0.424041
-0.432678
-0.43933
-0.444259
-0.447764
-0.449878
-0.450861
-0.450759
-0.4498
-0.447994
-0.445537
-0.442422
-0.438819
-0.434707
-0.430234
-0.425373
-0.420252
-0.414837
-0.40922
-0.403429
-0.397372
-0.39147
0.431137
0.336168
0.248157
0.16794
0.0960974
0.0320212
-0.0249889
-0.0755427
-0.120238
-0.159707
-0.194497
-0.225086
-0.251792
-0.274927
-0.294721
-0.311524
-0.325561
-0.337195
-0.346618
-0.354122
-0.359819
-0.363856
-0.366517
-0.368085
-0.368589
-0.368267
-0.367168
-0.3655
-0.363271
-0.360654
-0.357638
-0.354368
-0.350815
-0.347102
-0.343189
-0.339183
-0.335037
-0.330825
-0.326554
-0.322126
-0.317929
0.420898
0.329047
0.244569
0.168316
0.100641
0.0408376
-0.0118796
-0.0581354
-0.0984903
-0.133556
-0.163954
-0.190367
-0.213413
-0.233677
-0.251485
-0.26706
-0.280427
-0.291801
-0.301329
-0.309285
-0.315768
-0.320929
-0.324947
-0.328014
-0.330132
-0.331473
-0.332054
-0.332023
-0.331369
-0.330224
-0.328569
-0.326523
-0.32406
-0.321292
-0.318188
-0.314851
-0.311246
-0.307455
-0.303481
-0.299296
-0.295144
0.412102
0.32174
0.23933
0.165957
0.101986
0.0464969
-0.00159809
-0.0432677
-0.0793004
-0.110349
-0.136852
-0.159138
-0.177449
-0.192162
-0.203779
-0.213001
-0.220319
-0.226089
-0.230443
-0.23358
-0.235596
-0.236609
-0.236865
-0.236532
-0.235631
-0.23432
-0.232638
-0.23072
-0.228568
-0.226292
-0.223875
-0.22141
-0.218867
-0.216322
-0.213736
-0.211175
-0.2086
-0.206054
-0.203527
-0.200952
-0.198588
0.410827
0.321812
0.240096
0.167376
0.104586
0.0513225
0.00660835
-0.030664
-0.0617583
-0.0879331
-0.1104
-0.130165
-0.147952
-0.164138
-0.178665
-0.191264
-0.201803
-0.210608
-0.218028
-0.224369
-0.22976
-0.234355
-0.238266
-0.241585
-0.244301
-0.246509
-0.248203
-0.249458
-0.250254
-0.25066
-0.250657
-0.250315
-0.249614
-0.248624
-0.247327
-0.245791
-0.243996
-0.242007
-0.239809
-0.237446
-0.234955
0.414576
0.328366
0.248732
0.176962
0.114165
0.0604612
0.0155645
-0.021051
-0.0500082
-0.0721353
-0.0882345
-0.0992362
-0.106014
-0.109621
-0.111122
-0.111588
-0.111361
-0.110501
-0.108974
-0.106899
-0.104351
-0.101391
-0.0982174
-0.0949332
-0.0915687
-0.0881986
-0.0848619
-0.0816141
-0.0784666
-0.0754531
-0.0725683
-0.0698335
-0.067231
-0.0647741
-0.0624367
-0.0602302
-0.0581302
-0.0561366
-0.0542385
-0.0523803
-0.0506974
0.39633
0.308513
0.231837
0.165714
0.109378
0.0616306
0.0212525
-0.0128016
-0.0414614
-0.0655474
-0.0858318
-0.102976
-0.117602
-0.130176
-0.141086
-0.150603
-0.159024
-0.166187
-0.172486
-0.178268
-0.183781
-0.189095
-0.194185
-0.198975
-0.203519
-0.207801
-0.211843
-0.215621
-0.219157
-0.222441
-0.225501
-0.228339
-0.230982
-0.233439
-0.23574
-0.237892
-0.239925
-0.24185
-0.243684
-0.24547
-0.247128
-14.8528
-12.7148
-10.9958
-10.3869
-10.4358
-10.6441
-10.8674
-10.9855
-10.9896
-10.886
-10.6446
-10.2026
-9.67611
-9.03476
-8.30573
-7.57316
-6.79931
-6.06196
-5.32894
-4.65714
-4.01681
-3.44242
-2.91871
-2.45078
-2.03866
-1.67774
-1.36583
-1.09521
-0.870257
-0.67914
-0.521772
-0.388725
-0.285293
-0.19906
-0.131879
-0.0796596
-0.038308
-0.00677965
0.017114
0.0353899
0.0482661
0.0590494
0.0672487
0.0715476
0.0782186
0.0801756
0.0842392
0.0874091
0.0894126
0.0915178
0.0949141
0.0967128
0.0993737
0.101768
0.104296
0.107113
0.108718
0.110963
0.112449
0.113692
0.114345
0.114123
0.11361
0.111465
0.108205
0.104606
0.097797
0.0920151
0.0812398
0.0722628
0.0535847
0.0503881
0.00383997
0.0469505
-15.5161
-13.472
-11.6315
-10.862
-10.7921
-10.916
-11.0607
-11.1166
-11.0811
-10.9705
-10.7414
-10.3038
-9.75694
-9.09349
-8.34833
-7.59812
-6.81388
-6.06551
-5.32782
-4.65025
-4.00881
-3.43293
-2.90943
-2.44228
-2.03114
-1.67139
-1.36015
-1.0907
-0.866313
-0.676013
-0.518698
-0.386426
-0.283016
-0.197324
-0.130534
-0.0786142
-0.0377195
-0.00662811
0.0168624
0.0345613
0.0471149
0.0575129
0.0651069
0.0692556
0.0753389
0.077108
0.0809044
0.0836551
0.085512
0.0874797
0.0906866
0.0924139
0.0950039
0.0973964
0.0999473
0.102764
0.104492
0.106843
0.108467
0.109899
0.110715
0.110775
0.110458
0.108548
0.105603
0.102195
0.0958132
0.090221
0.0797724
0.0710223
0.0527564
0.0497183
0.00356281
0.0469596
-15.9489
-14.267
-12.3843
-11.4428
-11.2264
-11.2494
-11.3101
-11.2989
-11.2134
-11.0729
-10.8497
-10.43
-9.86887
-9.18046
-8.41368
-7.64064
-6.84126
-6.0778
-5.33174
-4.64571
-4.00112
-3.42215
-2.89788
-2.43084
-2.0203
-1.66148
-1.35134
-1.08319
-0.859635
-0.670369
-0.513662
-0.382376
-0.279336
-0.194364
-0.128153
-0.07672
-0.0364224
-0.00586365
0.0170829
0.0342199
0.0463748
0.0562815
0.0633199
0.0672242
0.0727539
0.0743102
0.0777778
0.0801641
0.0818633
0.0836651
0.086677
0.088325
0.0908289
0.0932118
0.0957736
0.0985765
0.100427
0.102859
0.104626
0.106217
0.107217
0.107498
0.107382
0.105714
0.103047
0.0998643
0.0938324
0.0884451
0.0783157
0.0697923
0.0519096
0.0490237
0.0032711
0.0468953
-16.3119
-14.9631
-13.1661
-12.0953
-11.7276
-11.6441
-11.626
-11.5532
-11.4157
-11.2254
-10.979
-10.5732
-10.0121
-9.30238
-8.50805
-7.70654
-6.88588
-6.1027
-5.34359
-4.64594
-3.99531
-3.4111
-2.88454
-2.41652
-2.00597
-1.64764
-1.33886
-1.07198
-0.849513
-0.66151
-0.505983
-0.375976
-0.273736
-0.189787
-0.124377
-0.0736567
-0.0341453
-0.00426529
0.0179923
0.0345579
0.0461851
0.0554954
0.062021
0.0655737
0.0705729
0.0718729
0.0749537
0.077022
0.0785509
0.0801491
0.082961
0.0845202
0.0869209
0.0892793
0.0918346
0.0946117
0.096575
0.0990587
0.100967
0.102685
0.103878
0.104321
0.104406
0.102982
0.100555
0.0976204
0.0918646
0.0866865
0.0768643
0.068575
0.0510449
0.0483
0.00297511
0.046771
-16.5868
-15.5256
-13.921
-12.7941
-12.2883
-12.094
-11.9965
-11.8658
-11.6776
-11.435
-11.142
-10.7262
-10.1733
-9.45493
-8.63247
-7.79635
-6.94848
-6.14057
-5.36406
-4.65147
-3.99173
-3.40015
-2.86971
-2.39961
-1.98831
-1.63021
-1.32259
-1.05716
-0.836039
-0.649612
-0.495641
-0.367252
-0.266181
-0.183604
-0.119288
-0.069545
-0.0310234
-0.00199373
0.0194422
0.0353221
0.0463425
0.0549812
0.0609582
0.0641053
0.0685668
0.0695819
0.0722477
0.0740139
0.0753593
0.0767382
0.0793536
0.0808207
0.083114
0.0854455
0.0879774
0.0907538
0.0928151
0.0953548
0.0973933
0.0992419
0.100613
0.101225
0.101505
0.100318
0.0981252
0.0954324
0.0899457
0.0849759
0.0754571
0.0673943
0.0502055
0.0475861
0.00270758
0.0466045
-16.7846
-15.9645
-14.6032
-13.5008
-12.8946
-12.5965
-12.4203
-12.2348
-12.0002
-11.7086
-11.3619
-10.9093
-10.347
-9.6312
-8.78915
-7.91404
-7.0312
-6.19181
-5.39255
-4.66108
-3.98898
-3.38782
-2.85192
-2.37868
-1.9661
-1.60808
-1.30151
-1.03776
-0.81835
-0.633971
-0.481976
-0.355659
-0.256191
-0.175387
-0.112487
-0.0640138
-0.0267277
0.00124532
0.0217183
0.036745
0.0470575
0.0549537
0.0602992
0.0629935
0.0668666
0.0675618
0.0697929
0.071227
0.0723707
0.0735124
0.0759203
0.0772849
0.0794563
0.0817504
0.0842414
0.0870181
0.089158
0.0917469
0.0939015
0.0958755
0.0974035
0.09819
0.0986507
0.0976911
0.09573
0.0932555
0.0880477
0.0832688
0.0740538
0.0662093
0.0493676
0.0468409
0.00245216
0.0463824
-16.9246
-16.2979
-15.1891
-14.1717
-13.5144
-13.1317
-12.8826
-12.6464
-12.3712
-12.0373
-11.6414
-11.1428
-10.5442
-9.82025
-8.9705
-8.06116
-7.13725
-6.2579
-5.42921
-4.6737
-3.9855
-3.37235
-2.8292
-2.35191
-1.93755
-1.57967
-1.27427
-1.01272
-0.795517
-0.613797
-0.464316
-0.34066
-0.2433
-0.164755
-0.103711
-0.056874
-0.0211207
0.00554078
0.0248641
0.0388792
0.0483665
0.0554179
0.0600534
0.0622551
0.065473
0.065828
0.0675907
0.0686685
0.0695747
0.0704798
0.0726512
0.0739027
0.0759373
0.078184
0.0806251
0.0833901
0.0855958
0.0882273
0.0904867
0.09258
0.0942538
0.0952118
0.0958416
0.0951006
0.0933657
0.0910992
0.0861734
0.0815772
0.0726602
0.0650233
0.0485288
0.0460772
0.00220536
0.0460944
-17.0225
-16.5464
-15.6751
-14.7773
-14.1141
-13.6738
-13.3637
-13.0831
-12.7746
-12.4079
-11.9725
-11.4331
-10.7871
-10.0296
-9.16587
-8.23227
-7.2687
-6.3421
-5.4751
-4.68884
-3.9797
-3.35146
-2.79902
-2.31671
-1.90024
-1.54262
-1.23886
-0.980214
-0.765988
-0.587775
-0.441617
-0.321406
-0.226831
-0.151123
-0.0924494
-0.047685
-0.0138262
0.0112321
0.0291736
0.0420014
0.0505001
0.0565893
0.0604227
0.0620758
0.0645637
0.0645492
0.0657912
0.0664937
0.0671236
0.0677821
0.0696799
0.0708025
0.0726734
0.0748572
0.0772289
0.0799595
0.0822122
0.0848654
0.0872156
0.0894061
0.0912173
0.0923223
0.0931048
0.0925719
0.0910462
0.0889781
0.0843214
0.0798908
0.0712667
0.0638268
0.0476794
0.045271
0.00196366
0.0457347
-17.1006
-16.7366
-16.0643
-15.3016
-14.6661
-14.1925
-13.8341
-13.5151
-13.1789
-12.7887
-12.3255
-11.7572
-11.0721
-10.2699
-9.37058
-8.41025
-7.41476
-6.44194
-5.52986
-4.70527
-3.96941
-3.32253
-2.75861
-2.27024
-1.8515
-1.4945
-1.19313
-0.938415
-0.728206
-0.554531
-0.41275
-0.296961
-0.206061
-0.133943
-0.0783157
-0.0361742
-0.00465087
0.0184361
0.0347124
0.0461238
0.0534546
0.0584384
0.0613832
0.0623901
0.0640874
0.0636562
0.0643344
0.0646333
0.0649574
0.0653521
0.0669502
0.0679292
0.0696241
0.071724
0.0740124
0.0766919
0.0789787
0.0816406
0.0840658
0.086342
0.0882723
0.0895122
0.090436
0.0901026
0.0887743
0.0868936
0.082497
0.0782244
0.0698863
0.0626345
0.0468281
0.0444479
0.00173258
0.0453057
-17.1813
-16.8912
-16.368
-15.7323
-15.1472
-14.6623
-14.2653
-13.9108
-13.55
-13.1422
-12.6621
-12.0777
-11.3702
-10.5335
-9.58882
-8.58506
-7.55596
-6.54318
-5.58652
-4.71924
-3.95058
-3.28091
-2.70324
-2.20814
-1.78731
-1.43169
-1.1339
-0.884514
-0.67982
-0.512146
-0.376141
-0.266039
-0.17993
-0.112349
-0.0605845
-0.0217507
0.00690194
0.0275787
0.0418478
0.0515524
0.0574915
0.0612079
0.0631406
0.0633914
0.0642199
0.0633146
0.063368
0.0632346
0.0632083
0.0633174
0.0645767
0.0653968
0.0668862
0.0688807
0.0710576
0.0736692
0.0759579
0.0786109
0.0810891
0.0834317
0.0854627
0.086817
0.0878628
0.0877163
0.0865683
0.0848585
0.080709
0.076576
0.0685214
0.0614445
0.0459775
0.0435876
0.00151546
0.0448055
-17.2783
-17.0253
-16.6051
-16.0708
-15.5383
-15.0575
-14.6335
-14.2433
-13.8533
-13.4271
-12.9344
-12.3427
-11.6277
-10.776
-9.79956
-8.7469
-7.67249
-6.62081
-5.62448
-4.71682
-3.91442
-3.21972
-2.62644
-2.12412
-1.70211
-1.34953
-1.05727
-0.81529
-0.618167
-0.458395
-0.329971
-0.227153
-0.147258
-0.0853932
-0.0385215
-0.0038473
0.0212514
0.0389543
0.0507823
0.0584378
0.0627213
0.064977
0.0657395
0.0650987
0.0649704
0.0635061
0.0628837
0.0622626
0.0618426
0.0616305
0.0625211
0.0631495
0.0644168
0.0662707
0.0683203
0.0708383
0.0731153
0.0757411
0.0782503
0.0806433
0.0827497
0.0842072
0.085362
0.085386
0.0844059
0.0828525
0.0789433
0.0749427
0.0671616
0.060249
0.0451169
0.042706
0.00130747
0.0442324
-17.3905
-17.1476
-16.7893
-16.3323
-15.8413
-15.363
-14.9141
-14.4867
-14.06
-13.6051
-13.0946
-12.4954
-11.7802
-10.9301
-9.94609
-8.86316
-7.74203
-6.64622
-5.6147
-4.67297
-3.84013
-3.12341
-2.51725
-2.00968
-1.58835
-1.24111
-0.957243
-0.725681
-0.539173
-0.390031
-0.271684
-0.178285
-0.106497
-0.0518638
-0.0111615
0.0183348
0.039075
0.0531489
0.0619983
0.0671786
0.0694729
0.0700356
0.0694363
0.0677613
0.066575
0.0644515
0.0630885
0.0619106
0.061049
0.0604646
0.0609515
0.061337
0.0623583
0.0640246
0.0659245
0.0683096
0.0705458
0.0731125
0.0756291
0.0780416
0.0801993
0.0817358
0.0829752
0.0831502
0.0823183
0.0809053
0.0772226
0.0733329
0.0658182
0.0590535
0.0442564
0.0417838
0.00111382
0.0435835
-17.5065
-17.2571
-16.9278
-16.5217
-16.0637
-15.5841
-15.1031
-14.627
-14.1473
-13.6485
-13.1054
-12.4865
-11.7671
-10.9232
-9.95064
-8.86749
-7.72313
-6.58629
-5.5183
-4.55213
-3.70024
-2.96762
-2.35373
-1.84797
-1.43438
-1.09827
-0.82755
-0.610449
-0.438407
-0.303351
-0.198203
-0.116889
-0.0555899
-0.0101688
0.0226552
0.0455785
0.0608893
0.0705198
0.0757924
0.0780382
0.0779757
0.0765537
0.0743497
0.0714392
0.0690627
0.0661567
0.0639806
0.0621747
0.0608031
0.0597956
0.0598275
0.0599295
0.06067
0.0621048
0.0638238
0.0660402
0.0682083
0.070688
0.0731805
0.075588
0.0777691
0.0793664
0.0806719
0.0809764
0.0802769
0.0789855
0.0755171
0.0717306
0.0644716
0.0578441
0.0433766
0.0408352
0.000924597
0.0428602
-17.6256
-17.3606
-17.0288
-16.639
-16.198
-15.7147
-15.202
-14.6687
-14.1187
-13.5493
-12.9447
-12.2853
-11.5443
-10.6981
-9.74074
-8.68012
-7.54863
-6.40103
-5.30399
-4.31265
-3.45218
-2.72211
-2.1139
-1.61721
-1.21935
-0.904121
-0.655955
-0.461168
-0.309997
-0.194215
-0.106498
-0.040717
0.00727598
0.0412909
0.0644587
0.0792921
0.0878729
0.0919364
0.0927264
0.0913713
0.0884918
0.084794
0.0807598
0.0764291
0.0727119
0.0688776
0.065779
0.0632654
0.0613045
0.0598204
0.0593377
0.059102
0.0595181
0.0606657
0.062164
0.0641656
0.0662182
0.0685704
0.0710055
0.0733684
0.0755459
0.0771721
0.078512
0.0789181
0.0783282
0.0771383
0.0738652
0.0701582
0.063147
0.0566405
0.0425007
0.0398458
0.000749199
0.0420624
-17.74
-17.4684
-17.1184
-16.7111
-16.2534
-15.7488
-15.2004
-14.6096
-13.9801
-13.3181
-12.6248
-11.891
-11.0977
-10.2304
-9.27863
-8.24453
-7.15237
-6.037
-4.94927
-3.94715
-3.07528
-2.35083
-1.76446
-1.29706
-0.929408
-0.644764
-0.427839
-0.264575
-0.143253
-0.0545019
0.00937135
0.0543375
0.0845899
0.103692
0.114583
0.119539
0.120249
0.117956
0.113572
0.107937
0.101576
0.0950574
0.0887872
0.0827674
0.0775711
0.072668
0.0685659
0.06523
0.0625788
0.0605277
0.0594668
0.0588292
0.0588673
0.0596691
0.0608941
0.0626337
0.0645277
0.0667166
0.0690488
0.0713333
0.0734683
0.0750964
0.0764469
0.0769289
0.0764304
0.0753187
0.0722233
0.0685893
0.0618116
0.055414
0.0415956
0.0388266
0.000573177
0.0411952
-17.7087
-17.4513
-17.1113
-16.7041
-16.2343
-15.6989
-15.0976
-14.4347
-13.7192
-12.9598
-12.1618
-11.3273
-10.4561
-9.54129
-8.57272
-7.5571
-6.51115
-5.45687
-4.4266
-3.46108
-2.60395
-1.88522
-1.31334
-0.876248
-0.55086
-0.312337
-0.140335
-0.0188395
0.0645788
0.119695
0.153929
0.173103
0.181336
0.181763
0.17688
0.168751
0.158872
0.148295
0.137668
0.127334
0.117345
0.10785
0.0990482
0.0909519
0.0839577
0.0777235
0.0725012
0.0682611
0.0648441
0.0621469
0.0604259