/*--------------------------------*- C++ -*----------------------------------*\
| =========                 |                                                 |
| \\      /  F ield         | OpenFOAM: The Open Source CFD Toolbox           |
|  \\    /   O peration     | Version:  2312                                  |
|   \\  /    A nd           | Website:  www.openfoam.com                      |
|    \\/     M anipulation  |                                                 |
\*---------------------------------------------------------------------------*/
FoamFile
{
    version     2.0;
    format      ascii;
    arch        "LSB;label=32;scalar=64";
    class       surfaceScalarField;
    location    "500";
    object      phi;
}
// * * * * * * * * * * * * * * * * * * * * * * * * * * * * * * * * * * * * * //

dimensions      [0 3 -1 0 0 0 0];

oriented        oriented;

internalField   nonuniform List<scalar> 
21876
(
0.00831671
0.000865889
-0.00918249
0.00246236
0.00585442
-0.000846907
0.00330952
-0.00159502
0.000748351
-0.00146578
-0.000128955
-0.00143233
-3.32171e-05
-0.00138204
-5.0083e-05
-0.00132855
-5.31457e-05
-0.00128449
-4.37272e-05
-0.00125673
-2.70943e-05
-0.00122609
-3.04477e-05
-0.00119942
-2.5957e-05
-0.00117856
-2.04878e-05
-0.00115737
-2.02915e-05
-0.00114421
-1.25262e-05
-0.00113522
-8.20383e-06
-0.00113371
-9.57279e-07
-0.00114043
7.40716e-06
-0.00115692
1.75371e-05
-0.00118519
2.9432e-05
-0.00122507
4.15475e-05
-0.00127464
5.1282e-05
-0.00133906
6.58277e-05
-0.00141907
8.13874e-05
-0.00151267
9.39523e-05
-0.00161537
0.000103591
-0.0017219
0.000106457
-0.00182482
0.000103472
-0.00191681
9.1889e-05
-0.00198764
7.09799e-05
-0.00202542
3.76655e-05
-0.00201862
-6.909e-06
-0.00196349
-5.51338e-05
-0.00185636
-0.000107351
-0.00168785
-0.000168482
-0.00145036
-0.000237525
-0.00112696
-0.000322872
-0.000673577
-0.00045362
-0.00018434
-0.000489605
0.000176046
-0.000355046
-0.00233755
0.00251871
0.0115808
-0.000707629
-0.0100073
0.0103821
0.00705317
0.00516387
0.00852791
0.000319847
0.00559264
-0.00157662
0.00176795
-0.00165151
4.22021e-05
-0.00167584
-2.51693e-05
-0.00166306
-6.52997e-05
-0.00164183
-6.43937e-05
-0.00163269
-3.55917e-05
-0.00161782
-4.47619e-05
-0.00160263
-4.02577e-05
-0.00159247
-2.98141e-05
-0.00158155
-2.99588e-05
-0.00157864
-1.43136e-05
-0.00158162
-3.90275e-06
-0.00159468
1.35637e-05
-0.00161877
3.30866e-05
-0.00165457
5.53613e-05
-0.00170447
8.10008e-05
-0.00177019
0.000109147
-0.00184879
0.000131906
-0.00194305
0.000161993
-0.00204926
0.000189575
-0.00216165
0.000207524
-0.00227362
0.000216728
-0.00237922
0.000212508
-0.00247057
0.000195366
-0.00254012
0.000161571
-0.00258031
0.000111281
-0.00258559
4.30179e-05
-0.00255106
-4.14605e-05
-0.0024659
-0.000139982
-0.00231705
-0.000255983
-0.00209525
-0.000389525
-0.00179214
-0.000539905
-0.00139723
-0.000716342
-0.000880497
-0.000968926
-0.000209228
-0.00115854
0.000523643
-0.00108417
-0.0038908
0.0020811
0.0133015
-0.00296853
-0.0110405
0.0150321
0.00532254
0.013145
0.0104151
0.00775351
0.0109842
0.00192714
0.00759437
-0.00109266
0.00306215
-0.0017044
0.000586778
-0.00185239
8.2866e-05
-0.00189039
-2.62413e-05
-0.00192659
7.83033e-07
-0.00194466
-2.66266e-05
-0.00195045
-3.42485e-05
-0.00195746
-2.26995e-05
-0.00195958
-2.76131e-05
-0.00196823
-5.5363e-06
-0.00198237
1.03988e-05
-0.00200646
3.75996e-05
-0.0020422
6.88547e-05
-0.00209082
0.000104217
-0.00215471
0.000145162
-0.00223523
0.000190045
-0.00232761
0.000224681
-0.00243388
0.000268465
-0.00255023
0.000306089
-0.00267144
0.000328596
-0.00279158
0.000337029
-0.00290495
0.000325692
-0.00300393
0.000294474
-0.00308096
0.000238478
-0.00312743
0.000157769
-0.00313445
4.99438e-05
-0.00309163
-8.43639e-05
-0.00298698
-0.000244697
-0.0028079
-0.00043525
-0.00254357
-0.000653998
-0.00218401
-0.000899682
-0.00172044
-0.00117988
-0.00112593
-0.001564
-0.000344186
-0.00194097
0.000560205
-0.00198775
-0.00494963
0.00162003
0.0150992
-0.00559245
-0.0124752
0.0174958
0.0029259
0.0187356
0.00917529
0.0166706
0.0130491
0.0110239
0.0132412
0.00424938
0.00983679
-0.000100027
0.00493646
-0.00156875
0.00155197
-0.00192157
0.000327082
-0.0020875
0.000167239
-0.00218919
7.56042e-05
-0.00224623
2.33448e-05
-0.00229116
2.28051e-05
-0.00231853
4.52067e-07
-0.00234599
2.27078e-05
-0.00237522
4.05373e-05
-0.00241227
7.56716e-05
-0.00246062
0.00011848
-0.00252205
0.000167043
-0.00259927
0.000223671
-0.00269367
0.000285782
-0.00279958
0.000332004
-0.00291944
0.000389628
-0.00305035
0.000438267
-0.00318788
0.000466979
-0.00332627
0.000476178
-0.00345926
0.000459102
-0.00357827
0.000413883
-0.00367407
0.000334483
-0.0037356
0.000219501
-0.00375102
6.55532e-05
-0.00370727
-0.000127885
-0.00359099
-0.000360601
-0.0033879
-0.000637876
-0.00308529
-0.00095592
-0.0026714
-0.00131271
-0.00213777
-0.00171238
-0.00146064
-0.00223983
-0.000595798
-0.00280411
0.000433697
-0.0030147
-0.00574711
0.00123386
0.017038
-0.00844251
-0.014188
0.0195129
0.00045101
0.0219017
0.00678651
0.0231443
0.0118065
0.021193
0.0151925
0.0154291
0.0156008
0.00779857
0.012567
0.00177078
0.0075799
-0.00104087
0.00313898
-0.0018385
0.000965169
-0.00220741
0.000444729
-0.00240178
0.000217921
-0.0025404
0.000161533
-0.00262786
8.80743e-05
-0.00269644
9.14873e-05
-0.00275478
9.9127e-05
-0.00281322
0.000134267
-0.00287947
0.000185021
-0.00295695
0.000244788
-0.00305003
0.000317032
-0.00316111
0.000397074
-0.00328436
0.000455372
-0.00342314
0.000528468
-0.00357553
0.000590636
-0.00373762
0.00062901
-0.00390344
0.000642003
-0.00406582
0.000621429
-0.00421478
0.000562865
-0.00433903
0.000458683
-0.00442508
0.000305541
-0.0044584
9.88131e-05
-0.00442344
-0.000162851
-0.00430464
-0.000479445
-0.00408531
-0.00085721
-0.00375059
-0.0012907
-0.00328708
-0.00177612
-0.00268645
-0.00231286
-0.00192915
-0.00299718
-0.000999045
-0.00373426
0.000131863
-0.00414506
-0.00645105
0.000836519
0.0193364
-0.0115959
-0.0161829
0.0221129
-0.0023255
0.0245951
0.00430441
0.0270266
0.00937492
0.0284277
0.0137915
0.0268531
0.0171754
0.0212693
0.0181507
0.0129936
0.0158557
0.00509755
0.0110352
0.000365223
0.00569774
-0.00144176
0.00225199
-0.00213498
0.000911548
-0.00253555
0.000562588
-0.00277911
0.000332214
-0.00294779
0.000260817
-0.00307263
0.000224684
-0.00317636
0.000238868
-0.0032758
0.000285474
-0.00337894
0.000349045
-0.00349444
0.000433584
-0.0036275
0.000531235
-0.0037733
0.000602197
-0.00393695
0.000693118
-0.00411779
0.000772335
-0.00431257
0.000824467
-0.00451506
0.000845035
-0.00471711
0.000823926
-0.0049073
0.000753393
-0.00507217
0.000623861
-0.00519579
0.000429413
-0.00526086
0.000164184
-0.00524898
-0.0001744
-0.00514177
-0.000586221
-0.00491978
-0.00107871
-0.0045658
-0.00164402
-0.00406517
-0.00227597
-0.00340979
-0.0029673
-0.00258534
-0.00382069
-0.00160572
-0.00471263
-0.000402864
-0.00534653
-0.00717263
0.000320288
0.0220951
-0.0151387
-0.0185524
0.0253315
-0.00556186
0.0280545
0.0015812
0.0305161
0.00691337
0.0329569
0.0113507
0.0346259
0.0155064
0.0336926
0.0190841
0.0287206
0.0208277
0.0201948
0.0195611
0.0106469
0.0152457
0.00340057
0.00949861
-0.000309143
0.00462161
-0.00173363
0.00198747
-0.00246445
0.00106341
-0.00290564
0.000702442
-0.00320189
0.000521381
-0.00341444
0.000451913
-0.00358666
0.000458285
-0.00374048
0.000503391
-0.00389419
0.000587811
-0.00405905
0.000696422
-0.00423404
0.00077746
-0.00442861
0.00088791
-0.00464455
0.000988455
-0.00487999
0.00106002
-0.00512885
0.00109407
-0.00538223
0.00107742
-0.0056273
0.000998623
-0.00584858
0.000845247
-0.00602759
0.000608552
-0.00614413
0.000280849
-0.00617662
-0.000141745
-0.00610339
-0.000659242
-0.00590207
-0.00127978
-0.00555299
-0.0019928
-0.00504043
-0.00278808
-0.00435685
-0.00365037
-0.00349372
-0.00468328
-0.00248658
-0.00571932
-0.00125968
-0.00657267
-0.00797659
-0.000455096
0.0254379
-0.0192101
-0.0213664
0.0291401
-0.00926424
0.0323349
-0.00161375
0.0350217
0.00422666
0.037415
0.00895736
0.0398249
0.0130967
0.0417895
0.0171195
0.0417
0.0209173
0.0377925
0.0234686
0.029678
0.0233604
0.0191048
0.0200717
0.00912294
0.0146036
0.00250356
0.00860705
-0.000635003
0.00420229
-0.001992
0.00205987
-0.00279208
0.00132211
-0.00329913
0.000959699
-0.00365988
0.000819902
-0.00393431
0.000778684
-0.00416824
0.000822568
-0.00438874
0.000917708
-0.00460492
0.000994403
-0.00483736
0.00112103
-0.00509396
0.00124567
-0.00537668
0.00134326
-0.00568102
0.00139886
-0.00599803
0.00139477
-0.00631384
0.00131475
-0.00661106
0.00114273
-0.00686882
0.000866571
-0.00706397
0.000476237
-0.00717164
-3.37882e-05
-0.00716664
-0.000663958
-0.00702369
-0.00142237
-0.00672052
-0.00229559
-0.00624034
-0.00326776
-0.00557629
-0.00431398
-0.00472536
-0.00553377
-0.00373211
-0.00671216
-0.00254437
-0.00776001
-0.00887053
-0.00165011
0.0294733
-0.023979
-0.0247043
0.0337425
-0.0135339
0.0374562
-0.00532724
0.0406213
0.00106135
0.0432445
0.0063345
0.045526
0.0108152
0.0478329
0.0148127
0.050021
0.0187291
0.0508343
0.0226553
0.0483812
0.0258132
0.0414975
0.0269554
0.0307546
0.0253466
0.018619
0.0207428
0.00843184
0.0143898
0.00220156
0.00829069
-0.000729484
0.00425383
-0.00216711
0.0023982
-0.00307597
0.00172958
-0.00368062
0.00138408
-0.00412524
0.00126774
-0.00447674
0.00126974
-0.0047715
0.00128964
-0.00505968
0.00140975
-0.00536487
0.00155132
-0.00569939
0.0016782
-0.00606477
0.00176457
-0.00645497
0.00178533
-0.00685671
0.00171679
-0.00725147
0.00153782
-0.00761628
0.00123168
-0.00792521
0.000785515
-0.00815032
0.000191678
-0.00826297
-0.000550877
-0.00823528
-0.00144964
-0.00804202
-0.00248829
-0.00766508
-0.00364418
-0.00709768
-0.00488073
-0.00634055
-0.00629043
-0.00543498
-0.00761722
-0.00436218
-0.00883249
-0.00980427
-0.00342812
0.0343256
-0.0296379
-0.0286671
0.0393233
-0.0185314
0.0436342
-0.00963845
0.0473282
-0.00263232
0.0504358
0.00322696
0.0529788
0.00827233
0.0551252
0.0126662
0.0572581
0.0165963
0.0595173
0.020396
0.0611051
0.0242253
0.0602909
0.0277697
0.0553149
0.0303227
0.0456119
0.0304459
0.032569
0.0274329
0.0191611
0.0216987
0.0086688
0.0147464
0.00246186
0.00860535
-0.000557204
0.00474896
-0.00217823
0.0030056
-0.00324337
0.00233338
-0.0039685
0.00199539
-0.00447588
0.0017976
-0.00489133
0.00182572
-0.00527958
0.00194007
-0.0056811
0.00208016
-0.00611415
0.0021981
-0.00658324
0.00225455
-0.00708081
0.00221475
-0.00759083
0.002048
-0.00809047
0.00173167
-0.00855266
0.00124793
-0.00894713
0.000586525
-0.00924242
-0.000255322
-0.00940831
-0.00128332
-0.00941638
-0.00247989
-0.00924609
-0.00381393
-0.00888921
-0.00523734
-0.0083464
-0.00683281
-0.00764633
-0.00831721
-0.00679045
-0.0096881
-0.0106705
-0.00592434
0.0401444
-0.036414
-0.0333684
0.0460622
-0.0244493
0.0511215
-0.0146975
0.055427
-0.00693777
0.0590591
-0.000404959
0.0620859
0.00524562
0.0645411
0.010211
0.0665506
0.0145868
0.0684607
0.0184859
0.0705981
0.022088
0.0726656
0.0257024
0.0733647
0.0296236
0.0707398
0.0330711
0.0632844
0.0348881
0.0510286
0.0339545
0.035909
0.029866
0.021196
0.0233182
0.010031
0.0159142
0.00340522
0.0096317
2.86489e-05
0.00571054
-0.00186396
0.00388869
-0.00303084
0.00296515
-0.00382795
0.00262355
-0.00444385
0.00255663
-0.00499155
0.00262856
-0.00553173
0.00273854
-0.00609885
0.0028222
-0.00670537
0.00282129
-0.0073458
0.00268881
-0.00800394
0.00238987
-0.0086556
0.00189991
-0.00927216
0.00120316
-0.00982186
0.000294699
-0.0102751
-0.000830005
-0.0105997
-0.00215492
-0.0107718
-0.00364189
-0.0107773
-0.00523149
-0.0106141
-0.00699639
-0.0102887
-0.00864233
-0.00980091
-0.0101765
-0.0112917
-0.00917952
0.0471125
-0.0445805
-0.038946
0.0541852
-0.0315219
0.0601856
-0.0206977
0.0652468
-0.0119989
0.0694889
-0.00464682
0.0730256
0.00170908
0.0759501
0.00728657
0.0783122
0.0122249
0.0801994
0.0165988
0.0818744
0.0204133
0.0837374
0.0238395
0.0859272
0.027434
0.0877198
0.0312783
0.0874276
0.0351803
0.0830521
0.0383299
0.0733693
0.0395486
0.058824
0.0378637
0.0416742
0.033064
0.0253493
0.0259568
0.0129341
0.018126
0.00535317
0.0114698
0.00158514
0.00673363
-0.000477239
0.0046864
-0.00183221
0.00391219
-0.00283267
0.00362968
-0.00365649
0.00356297
-0.00442229
0.00358828
-0.00519545
0.00359481
-0.00600414
0.00349767
-0.00685335
0.00323933
-0.00773356
0.00278025
-0.00862446
0.0020943
-0.00949999
0.00117034
-0.0103361
6.33759e-06
-0.0111015
-0.00138954
-0.0117683
-0.00297488
-0.0123151
-0.00468494
-0.0127337
-0.00657752
-0.0130024
-0.00837423
-0.013099
-0.0100795
-0.0114099
-0.0129817
0.0554516
-0.0544663
-0.0455657
0.0639612
-0.0400314
0.0711399
-0.0278762
0.0771475
-0.0180064
0.0821419
-0.00964095
0.0862741
-0.00242292
0.0896843
0.0038766
0.0924863
0.00942309
0.0947494
0.014336
0.0965317
0.0186312
0.0980065
0.0223649
0.0995536
0.025887
0.101539
0.0292928
0.103828
0.032891
0.105348
0.0368098
0.104196
0.0407006
0.0983898
0.0436702
0.0868799
0.0445739
0.0702987
0.042538
0.0510126
0.0374119
0.0324817
0.0300006
0.0188989
0.0203163
0.010414
0.0131713
0.00566532
0.00866151
0.00295703
0.00633832
0.00118049
0.00534045
-0.000187015
0.0049561
-0.00137381
0.00478236
-0.00250194
0.00462596
-0.00364086
0.00437886
-0.00482577
0.00396531
-0.00606424
0.00333336
-0.00734803
0.00245422
-0.00866657
0.00132544
-0.00999573
-6.02826e-05
-0.0113088
-0.00166135
-0.0125763
-0.00341744
-0.0137901
-0.00536334
-0.0148951
-0.00726923
-0.0158474
-0.00912701
-0.0106971
-0.0165601
0.0654306
-0.0664687
-0.053428
0.0757173
-0.0503181
0.0843614
-0.0365201
0.0915522
-0.0251971
0.0974851
-0.0155736
0.102354
-0.00729148
0.106336
-0.000105173
0.109591
0.00616799
0.112252
0.0116759
0.114402
0.0164809
0.116096
0.0206707
0.117451
0.024533
0.118727
0.0280164
0.120339
0.0312794
0.12256
0.0345892
0.125035
0.0382252
0.126471
0.0422347
0.124849
0.046195
0.118176
0.0492117
0.1054
0.0501876
0.0871123
0.0482878
0.0671305
0.040298
0.0482803
0.0320216
0.0329064
0.0240355
0.0219349
0.0173107
0.014871
0.0124047
0.0105111
0.00931715
0.00768533
0.00760841
0.00559776
0.00671464
0.00380012
0.00617671
0.00207013
0.00569639
0.000306424
0.00509715
-0.00152818
0.00429004
-0.00346132
0.00325854
-0.00548695
0.00196673
-0.00759595
0.000447252
-0.00975678
-0.001255
-0.0119736
-0.00314736
-0.0141523
-0.00508877
-0.0162402
-0.00704031
-0.00881447
-0.0181212
0.0773758
-0.0810681
-0.0627762
0.0898502
-0.0627924
0.100306
-0.0469754
0.108967
-0.0338582
0.116072
-0.0226777
0.121857
-0.0130774
0.126549
-0.00479643
0.130345
0.00237219
0.133421
0.00860013
0.135918
0.0139836
0.137943
0.0186462
0.139576
0.0229007
0.140878
0.0267142
0.142
0.0301574
0.143263
0.0333261
0.145087
0.0364021
0.147663
0.0396587
0.150514
0.0433437
0.152254
0.0474714
0.150813
0.0516286
0.144145
0.0549564
0.132114
0.0523289
0.115771
0.0483644
0.0969595
0.0428479
0.0778204
0.0364502
0.0603493
0.0298765
0.045927
0.0237399
0.035014
0.0185223
0.0272343
0.0144949
0.0217729
0.0116389
0.0177742
0.00969551
0.0145631
0.0083091
0.0116877
0.00716577
0.00886039
0.00608677
0.00594448
0.00488276
0.00288276
0.00350996
-0.000328852
0.00195638
-0.00372729
0.000252006
-0.0072026
-0.00161397
-0.010693
-0.00354922
-0.00544027
-0.0140682
0.0916825
-0.0988466
-0.0739038
0.106841
-0.0779514
0.119527
-0.0596605
0.130006
-0.044337
0.138566
-0.0312374
0.145496
-0.0200077
0.151072
-0.0103714
0.155539
-0.00209535
0.159118
0.00502207
0.161989
0.0111119
0.164308
0.0163274
0.166212
0.0209967
0.167789
0.0251382
0.16909
0.028856
0.17019
0.0322264
0.171273
0.0353194
0.17269
0.038242
0.174856
0.0411783
0.177937
0.0443899
0.181454
0.0481119
0.184042
0.0523691
0.183721
0.05265
0.179456
0.0526294
0.170845
0.0514595
0.158243
0.0490527
0.142588
0.0455317
0.125155
0.0411735
0.107352
0.0363263
0.0905035
0.0313434
0.0756046
0.0265385
0.0631307
0.0221697
0.0530399
0.0184006
0.0449382
0.0152676
0.0382605
0.0127653
0.0325308
0.0106123
0.0273517
0.00868989
0.0224414
0.00686608
0.0175236
0.0051708
0.0125802
0.00332827
0.00754604
0.00148597
-0.000386105
0.00249068
0.108825
-0.120509
-0.0871617
0.12727
-0.096397
0.142692
-0.075082
0.15541
-0.0570548
0.165771
-0.0415982
0.174125
-0.0283615
0.180805
-0.0170506
0.186112
-0.00740312
0.190317
0.000817482
0.193647
0.0077816
0.196297
0.0136777
0.198444
0.0188497
0.200227
0.0233555
0.20175
0.0273331
0.203079
0.0308977
0.204257
0.0341413
0.205364
0.0371357
0.206596
0.0399461
0.208311
0.0426753
0.210935
0.0454886
0.214667
0.0486378
0.218666
0.0486505
0.222134
0.0491623
0.224029
0.0495645
0.223426
0.0496568
0.219719
0.0492389
0.212716
0.0481767
0.202622
0.0464205
0.189952
0.0440141
0.175427
0.0410638
0.15988
0.0377175
0.144148
0.0341333
0.128954
0.0304611
0.11473
0.0269899
0.101788
0.0235546
0.0901744
0.0203048
0.0797668
0.0172733
0.0701634
0.0147756
0.0613062
0.0121849
0.0529253
0.00986823
0.00759242
0.0449457
0.11728
-0.144416
-0.0933734
0.13762
-0.116736
0.154617
-0.0920792
0.168622
-0.0710591
0.180014
-0.0529896
0.189175
-0.0375234
0.196472
-0.0243469
0.202235
-0.0131664
0.206762
-0.00370874
0.210305
0.00423829
0.213084
0.0108997
0.215293
0.0166406
0.217091
0.0215577
0.218609
0.0258151
0.219953
0.0295537
0.221198
0.032896
0.222388
0.0359457
0.223554
0.0387808
0.224763
0.0414662
0.226196
0.0440564
0.22818
0.0466536
0.230716
0.0461149
0.233977
0.0459024
0.237824
0.0457171
0.241861
0.0456208
0.245514
0.0455861
0.248163
0.0455286
0.249249
0.0453342
0.248366
0.0448984
0.245292
0.0441376
0.240005
0.0430057
0.232647
0.041491
0.223497
0.0396115
0.212855
0.0376325
0.201155
0.0352548
0.188827
0.0326337
0.176268
0.0298324
0.163537
0.0275068
0.151067
0.0246543
0.138889
0.022047
0.0192978
0.127183
0.124116
-0.170237
-0.0982945
0.146071
-0.138691
0.164414
-0.110422
0.17952
-0.0861643
0.191796
-0.0652652
0.201653
-0.0473807
0.209483
-0.0321766
0.215643
-0.0193261
0.220451
-0.008517
0.224183
0.000506272
0.227075
0.00800803
0.229337
0.0143783
0.231142
0.0197535
0.232631
0.024326
0.233925
0.0282603
0.235121
0.0316994
0.236299
0.0347681
0.237509
0.0375705
0.238778
0.0401976
0.240121
0.0427141
0.241591
0.0451839
0.243039
0.044667
0.244709
0.044233
0.246806
0.04362
0.249483
0.0429449
0.252777
0.0422918
0.256593
0.0417137
0.260703
0.0412243
0.264793
0.0408096
0.268503
0.0404274
0.271485
0.040025
0.273433
0.0395432
0.274122
0.0389234
0.273397
0.0383574
0.271196
0.0374571
0.267541
0.0362888
0.262538
0.0348367
0.256188
0.0338573
0.248759
0.0320842
0.24036
0.0304473
0.0284209
0.231238
0.131673
-0.198118
-0.103792
0.155371
-0.162389
0.175168
-0.130219
0.191465
-0.102461
0.204702
-0.0785023
0.215321
-0.0579994
0.223741
-0.0405965
0.230346
-0.0259309
0.235479
-0.0136493
0.239435
-0.00345024
0.242472
0.0049721
0.244813
0.0120367
0.246647
0.0179203
0.248126
0.0228462
0.249382
0.027005
0.25052
0.0305616
0.251629
0.0336586
0.252784
0.0364157
0.254041
0.038941
0.255434
0.0413212
0.256977
0.0436414
0.258387
0.0432564
0.259745
0.0428754
0.261115
0.0422504
0.262601
0.0414593
0.264329
0.0405633
0.266425
0.0396187
0.268978
0.0386715
0.272026
0.0377619
0.27554
0.0369136
0.279427
0.0361383
0.283539
0.0354312
0.287693
0.0347702
0.291703
0.0343478
0.295357
0.0338037
0.298467
0.0331789
0.300883
0.0324215
0.302491
0.03225
0.303189
0.0313868
0.302922
0.030714
0.0296742
0.30167
0.139963
-0.228219
-0.109861
0.165539
-0.187965
0.186905
-0.151585
0.20449
-0.120047
0.21877
-0.0927813
0.230217
-0.0694467
0.239284
-0.0496623
0.24638
-0.0330279
0.251876
-0.0191448
0.25609
-0.00766421
0.259298
0.00176493
0.26174
0.00959366
0.26362
0.0160414
0.265102
0.0213633
0.266329
0.0257787
0.267414
0.0294762
0.268455
0.0326188
0.269528
0.0353421
0.270702
0.0377674
0.27203
0.0399928
0.273555
0.0421174
0.275004
0.0418072
0.27643
0.04145
0.277828
0.040852
0.279204
0.0400841
0.280576
0.0391905
0.281988
0.038208
0.283494
0.0371647
0.285166
0.0360914
0.287067
0.0350114
0.289259
0.0339479
0.291773
0.0329163
0.294622
0.0319225
0.297796
0.031173
0.301245
0.0303568
0.304887
0.0295361
0.308631
0.0286791
0.31242
0.0284602
0.316106
0.0277027
0.319602
0.0272182
0.026489
0.322788
0.149007
-0.260713
-0.116513
0.176612
-0.21557
0.199672
-0.174644
0.218651
-0.139026
0.234058
-0.108188
0.246404
-0.0817928
0.256174
-0.059432
0.26381
-0.0406638
0.269708
-0.0250423
0.274211
-0.0121667
0.277615
-0.00163894
0.280179
0.00702935
0.28212
0.014101
0.283617
0.0198664
0.284821
0.0245746
0.285858
0.0284402
0.286829
0.0316479
0.287819
0.0343518
0.288899
0.0366879
0.290126
0.0387662
0.291549
0.0406946
0.292916
0.0404412
0.294291
0.0400744
0.295683
0.0394609
0.297088
0.0386791
0.298502
0.0377776
0.299916
0.0367936
0.30133
0.0357519
0.302746
0.0346759
0.304177
0.0335812
0.305642
0.032483
0.307169
0.0313911
0.308783
0.0303087
0.310522
0.0294359
0.312404
0.028476
0.314445
0.027497
0.316646
0.0264785
0.319038
0.0260699
0.32158
0.025162
0.324266
0.0245347
0.0237075
0.327048
0.158845
-0.29579
-0.123767
0.18864
-0.245365
0.21353
-0.199534
0.234015
-0.159511
0.250643
-0.124817
0.263965
-0.0951141
0.274499
-0.0699667
0.282724
-0.0488884
0.289063
-0.031381
0.293886
-0.0169893
0.297511
-0.0052637
0.300216
0.00432443
0.302233
0.0120848
0.303754
0.0183447
0.304943
0.0233859
0.305934
0.0274503
0.306835
0.0307462
0.30774
0.0334474
0.308722
0.0357062
0.309842
0.0376464
0.31115
0.0393866
0.312399
0.0391927
0.313658
0.0388162
0.31494
0.0381796
0.316252
0.037367
0.317599
0.0364318
0.318976
0.0354163
0.32038
0.0343491
0.3218
0.0332566
0.323227
0.0321553
0.324651
0.0310595
0.326067
0.0299773
0.327467
0.0289088
0.328859
0.0280455
0.330239
0.0270959
0.331615
0.0261226
0.33299
0.0251038
0.33439
0.024671
0.33581
0.0237425
0.337267
0.0230783
0.0222132
0.338762
0.169519
-0.333659
-0.131651
0.201683
-0.277528
0.228552
-0.226404
0.250667
-0.181625
0.268618
-0.142768
0.282997
-0.109492
0.294362
-0.0813329
0.303229
-0.0577539
0.31005
-0.0382027
0.315226
-0.0221643
0.319096
-0.00913457
0.321961
0.00146025
0.324067
0.0099787
0.325624
0.0167888
0.326803
0.0222063
0.327751
0.0265035
0.328583
0.0299134
0.3294
0.0326313
0.330279
0.0348271
0.331287
0.0366396
0.332474
0.0381991
0.333599
0.0380686
0.334729
0.037686
0.335879
0.0370298
0.337058
0.0361883
0.338272
0.0352185
0.339522
0.0341655
0.340811
0.0330612
0.342133
0.0319345
0.343485
0.0308047
0.344856
0.0296878
0.346241
0.0285934
0.347627
0.0275226
0.349012
0.0266618
0.35038
0.0257273
0.351724
0.0247788
0.353034
0.0237928
0.354321
0.0233854
0.355565
0.0224972
0.356775
0.0218695
0.0210439
0.357943
0.181087
-0.374544
-0.1402
0.215811
-0.312254
0.244823
-0.255416
0.268703
-0.205505
0.288087
-0.162152
0.303613
-0.125018
0.315882
-0.0936021
0.325447
-0.067318
0.332796
-0.0455518
0.338358
-0.0277264
0.342502
-0.0132774
0.345545
-0.00158274
0.347755
0.00776915
0.349355
0.0151889
0.350531
0.0210302
0.351438
0.0255969
0.352202
0.0291494
0.352928
0.0319056
0.353701
0.0340548
0.354589
0.0357514
0.35565
0.0371393
0.356643
0.0370759
0.35764
0.0366899
0.358654
0.0360158
0.359696
0.0351468
0.360771
0.0341434
0.361884
0.0330536
0.363034
0.0319118
0.364221
0.0307486
0.365441
0.0295845
0.366693
0.0284373
0.36797
0.0273172
0.369267
0.0262265
0.370582
0.0253469
0.371906
0.0244038
0.373231
0.0234546
0.374548
0.0224761
0.375864
0.0220696
0.377161
0.0212007
0.378438
0.0205922
0.0197935
0.379689
0.193606
-0.418697
-0.149454
0.231105
-0.349752
0.262437
-0.286749
0.28823
-0.231298
0.309169
-0.183091
0.32594
-0.141789
0.339192
-0.106854
0.349517
-0.0776429
0.357443
-0.0534777
0.36343
-0.0337129
0.367873
-0.0177209
0.371116
-0.00482505
0.373444
0.00544119
0.375098
0.0135356
0.376277
0.0198517
0.377146
0.024728
0.377842
0.0284539
0.378475
0.0312721
0.379138
0.0333922
0.379904
0.0349863
0.380832
0.0362118
0.381687
0.0362205
0.382544
0.0358339
0.383418
0.0351425
0.38432
0.0342452
0.385258
0.0332063
0.386235
0.032077
0.387253
0.0308943
0.388312
0.0296906
0.389409
0.0284879
0.390543
0.0273047
0.391708
0.0261522
0.392902
0.0250331
0.394124
0.0241245
0.395368
0.0231597
0.396628
0.0221943
0.397899
0.0212054
0.399189
0.0207795
0.400482
0.0199071
0.40178
0.0192933
0.0184967
0.403077
0.207147
-0.466385
-0.159458
0.24765
-0.390256
0.281499
-0.320597
0.309366
-0.259166
0.331994
-0.205718
0.350118
-0.159914
0.36444
-0.121175
0.375594
-0.0887977
0.384151
-0.0620336
0.390603
-0.0401655
0.395378
-0.0224957
0.398842
-0.00828956
0.401305
0.00297919
0.403022
0.0118181
0.40421
0.0186646
0.405044
0.0238938
0.405672
0.0278267
0.406211
0.0307324
0.406761
0.0328428
0.407399
0.034348
0.408191
0.0354212
0.408904
0.0355071
0.409616
0.0351224
0.410345
0.034414
0.411104
0.0334865
0.411902
0.0324084
0.412745
0.0312348
0.413634
0.0300051
0.414571
0.0287539
0.415554
0.0275048
0.416582
0.0262774
0.41765
0.0250834
0.418757
0.0239263
0.419903
0.0229787
0.421081
0.0219816
0.422286
0.0209888
0.423514
0.0199775
0.424773
0.0195198
0.426049
0.0186308
0.427345
0.0179978
0.0171892
0.428652
0.221784
-0.517907
-0.170262
0.265547
-0.434018
0.302124
-0.357175
0.332245
-0.289286
0.356706
-0.230179
0.376304
-0.179511
0.39179
-0.136661
0.40385
-0.100858
0.413096
-0.0712794
0.42006
-0.0471292
0.4252
-0.0276361
0.428912
-0.0120009
0.431525
0.000365647
0.433318
0.0100256
0.43452
0.0174626
0.435323
0.0230919
0.435881
0.0272683
0.436325
0.0302893
0.436758
0.0324104
0.437265
0.0338418
0.437914
0.0347726
0.43848
0.0349413
0.439042
0.0345609
0.439622
0.0338352
0.440235
0.0328748
0.440891
0.0317532
0.441598
0.030529
0.442359
0.029245
0.443176
0.0279377
0.44405
0.0266327
0.444978
0.0253505
0.445958
0.0241041
0.446988
0.0228974
0.448068
0.021899
0.449193
0.0208575
0.450358
0.019825
0.451557
0.0187791
0.4528
0.0182774
0.454071
0.0173598
0.455373
0.0166959
0.0158642
0.456699
0.237601
-0.573585
-0.181922
0.284899
-0.481317
0.32444
-0.396716
0.357009
-0.321855
0.383466
-0.256636
0.404667
-0.200713
0.421423
-0.153417
0.434473
-0.113908
0.444474
-0.0812805
0.452
-0.054655
0.457544
-0.0331801
0.461531
-0.0159872
0.464315
-0.00241871
0.466196
0.00814503
0.46742
0.0162383
0.468193
0.0223192
0.468683
0.0267787
0.469028
0.0299451
0.469339
0.0320992
0.469709
0.0334726
0.47021
0.0342716
0.470624
0.0345286
0.471031
0.0341544
0.471456
0.0334105
0.471918
0.0324138
0.472429
0.0312431
0.472998
0.0299612
0.473629
0.0286142
0.474327
0.0272412
0.47509
0.0258697
0.47592
0.0245216
0.476813
0.023211
0.477769
0.0219427
0.478787
0.0208812
0.479862
0.0197828
0.480989
0.0186981
0.482163
0.0176054
0.483393
0.0170474
0.484664
0.0160895
0.485976
0.0153831
0.0145177
0.487323
0.254687
-0.633777
-0.194496
0.305826
-0.532455
0.348587
-0.439477
0.383819
-0.357086
0.412447
-0.285265
0.435397
-0.223662
0.45354
-0.17156
0.467672
-0.12804
0.478502
-0.09211
0.486646
-0.0627991
0.492636
-0.0391703
0.496928
-0.0202794
0.499905
-0.00539576
0.501888
0.00616244
0.503142
0.0149836
0.50389
0.0215723
0.50431
0.0263584
0.504552
0.0297031
0.504737
0.0319146
0.504962
0.0332473
0.505309
0.0339258
0.505561
0.0342764
0.505806
0.0339104
0.506069
0.033147
0.506374
0.0321099
0.506733
0.030884
0.507158
0.0295365
0.507655
0.0281173
0.508228
0.0266684
0.508878
0.0252192
0.509606
0.0237937
0.51041
0.0224068
0.511288
0.0210648
0.512241
0.0199277
0.513264
0.0187602
0.51435
0.0176114
0.515496
0.0164602
0.516709
0.015834
0.517974
0.0148249
0.519291
0.0140654
0.0131566
0.520653
0.273144
-0.698869
-0.208051
0.328455
-0.587768
0.374718
-0.48574
0.412847
-0.395216
0.443843
-0.31626
0.4687
-0.24852
0.488359
-0.191219
0.503676
-0.143357
0.515415
-0.103849
0.52424
-0.0716239
0.530723
-0.0456536
0.535356
-0.024912
0.53855
-0.00858954
0.54065
0.00406206
0.541944
0.01369
0.542668
0.0208482
0.543018
0.0260088
0.543153
0.0295683
0.543204
0.0318641
0.543277
0.0331751
0.543458
0.0337457
0.543539
0.0341958
0.54361
0.03384
0.543702
0.0330554
0.543838
0.0319738
0.544037
0.030686
0.544308
0.0292647
0.544662
0.0277637
0.545102
0.0262282
0.545632
0.0246901
0.54625
0.0231752
0.546957
0.0217
0.547749
0.020272
0.54863
0.0190473
0.549591
0.0177986
0.550629
0.016574
0.551735
0.0153533
0.552922
0.0146476
0.554169
0.0135771
0.55548
0.0127546
0.0117934
0.556843
0.293076
-0.769288
-0.222658
0.352927
-0.647617
0.403001
-0.535814
0.444287
-0.436501
0.477864
-0.349837
0.504804
-0.27546
0.526121
-0.212535
0.542737
-0.159974
0.555475
-0.116586
0.56505
-0.0811993
0.57208
-0.0526831
0.577092
-0.0299239
0.58053
-0.0120275
0.582766
0.00182618
0.584109
0.0123473
0.584814
0.0201432
0.585092
0.0257313
0.585115
0.0295459
0.585023
0.0319564
0.584931
0.0332674
0.584932
0.0337446
0.584828
0.0343003
0.584711
0.0339571
0.584617
0.0331502
0.584571
0.0320197
0.584594
0.0306635
0.584699
0.02916
0.584896
0.0275674
0.585189
0.0259345
0.585584
0.0242961
0.586079
0.02268
0.586675
0.0211046
0.587368
0.0195787
0.588162
0.0182542
0.589048
0.0169128
0.590021
0.0156013
0.591073
0.0143003
0.592217
0.0135043
0.593431
0.0123628
0.594718
0.011468
0.0104462
0.596065
0.314604
-0.845501
-0.238391
0.379393
-0.712408
0.43362
-0.59004
0.478348
-0.48123
0.514742
-0.386231
0.543959
-0.304677
0.567091
-0.235667
0.585133
-0.178015
0.59897
-0.130423
0.609374
-0.091603
0.617008
-0.0603179
0.622443
-0.0353586
0.626156
-0.0157403
0.628547
-0.000565061
0.62995
0.0109445
0.63064
0.0194536
0.630843
0.0255281
0.630746
0.0296436
0.630499
0.0322028
0.630228
0.0335387
0.630033
0.0339398
0.629726
0.0346078
0.629402
0.03428
0.629103
0.0334498
0.628856
0.0322663
0.628684
0.0308354
0.628602
0.0292412
0.628623
0.0275474
0.62875
0.0258065
0.62899
0.0240565
0.629341
0.0223276
0.629806
0.0206402
0.63038
0.0190046
0.631066
0.0175686
0.631854
0.0161231
0.632742
0.0147139
0.633719
0.0133226
0.634798
0.0124256
0.635956
0.0112041
0.637196
0.0102281
0.00913788
0.638504
0.337853
-0.928021
-0.255333
0.408024
-0.782578
0.466775
-0.648792
0.515259
-0.529713
0.554732
-0.425703
0.586441
-0.336385
0.611562
-0.260788
0.63117
-0.197623
0.646217
-0.14547
0.657535
-0.102921
0.665841
-0.0686238
0.671747
-0.0412647
0.675769
-0.019762
0.678337
-0.00313368
0.679812
0.00946982
0.68049
0.018776
0.680615
0.0254031
0.680388
0.0298705
0.679973
0.0326176
0.679504
0.0340077
0.67909
0.0343535
0.678556
0.0351413
0.678004
0.0348328
0.677474
0.0339791
0.677001
0.0327391
0.676609
0.0312272
0.676316
0.0295344
0.676133
0.0277299
0.676069
0.0258706
0.676127
0.0239979
0.67631
0.0221448
0.676616
0.0203338
0.677044
0.0185772
0.677594
0.0170182
0.67826
0.0154578
0.679033
0.0139403
0.679907
0.0124489
0.680891
0.0114408
0.681965
0.0101304
0.683128
0.00906455
0.00789851
0.684368
0.362963
-1.01741
-0.273572
0.439
-0.858615
0.502689
-0.71248
0.555275
-0.5823
0.598114
-0.468542
0.632551