/*--------------------------------*- C++ -*----------------------------------*\
| =========                 |                                                 |
| \\      /  F ield         | OpenFOAM: The Open Source CFD Toolbox           |
|  \\    /   O peration     | Version:  2312                                  |
|   \\  /    A nd           | Website:  www.openfoam.com                      |
|    \\/     M anipulation  |                                                 |
\*---------------------------------------------------------------------------*/
FoamFile
{
    version     2.0;
    format      ascii;
    arch        "LSB;label=32;scalar=64";
    class       volScalarField;
    location    "500";
    object      turbulenceProperties:L;
}
// * * * * * * * * * * * * * * * * * * * * * * * * * * * * * * * * * * * * * //

dimensions      [0 1 0 0 0 0 0];

internalField   nonuniform List<scalar> 
11040
(
0.000441097
0.000480869
0.000844349
0.00142362
0.00137274
0.0013053
0.00127725
0.00127103
0.00125184
0.00124408
0.00123143
0.0012212
0.00121058
0.00120183
0.00119358
0.00118745
0.00118441
0.00118492
0.0011886
0.00119367
0.00119998
0.0012078
0.00121575
0.00122277
0.00123067
0.00124355
0.00126105
0.00128071
0.00130288
0.00132827
0.00135819
0.0013946
0.0014413
0.00151293
0.00164126
0.00179372
0.00187266
0.00196394
0.00283117
0.00373172
0.00258835
0.00117611
0.00105376
0.00067066
0.000856369
0.00238434
0.00425544
0.00664599
0.0100401
0.0147905
0.0333566
0.013819
0.0104382
0.0087118
0.0076756
0.00693242
0.00638366
0.00597326
0.00567837
0.00549836
0.00538581
0.00531804
0.00528369
0.00529295
0.00536815
0.00554587
0.0059134
0.00651344
0.00734587
0.00851954
0.0102012
0.0125981
0.0155388
0.0176507
0.0181915
0.0170762
0.0156477
0.0144141
0.013332
0.0115452
0.012908
0.0077182
0.00149366
0.00160924
0.00132017
0.000821926
0.00152344
0.00305084
0.00516948
0.00817037
0.0102879
0.0123051
0.0146133
0.0172442
0.0214781
0.0295549
0.0585636
0.0402883
0.0273764
0.0226749
0.0203207
0.0190811
0.0185731
0.0186743
0.0196263
0.0216103
0.0245115
0.0276996
0.0303129
0.032129
0.0338505
0.0356889
0.0360192
0.0329447
0.0287174
0.0256088
0.0233203
0.021562
0.020233
0.0192279
0.0171839
0.0167524
0.017457
0.00176438
0.00191235
0.00213137
0.00179034
0.00116225
0.00203393
0.00362497
0.00577412
0.00928279
0.0120999
0.0144367
0.0162974
0.0180793
0.0200391
0.0217804
0.0236113
0.0251595
0.0264221
0.0272431
0.0275383
0.027455
0.0271588
0.0266816
0.0262984
0.02632
0.0268771
0.0280094
0.0297861
0.0322897
0.0354345
0.0385311
0.0398482
0.0384089
0.0354968
0.0324369
0.0297628
0.0276612
0.026169
0.0237585
0.0224627
0.029727
0.0020446
0.00215215
0.00209796
0.00287529
0.00269283
0.00149662
0.00247846
0.004078
0.00635012
0.00969653
0.0135931
0.01676
0.018915
0.0210464
0.0226498
0.0241085
0.0252304
0.0260595
0.0265959
0.026903
0.0271047
0.027386
0.0278
0.0284061
0.0293419
0.0307206
0.0326232
0.035167
0.038492
0.0426748
0.0473673
0.0508995
0.0507381
0.0472142
0.0428476
0.0389699
0.0359466
0.0338685
0.0313447
0.0292039
0.0401972
0.00240717
0.00251148
0.00255428
0.00243223
0.00430952
0.00620929
0.00177271
0.00285563
0.00444616
0.00680153
0.00985744
0.0145194
0.0185223
0.02207
0.0243906
0.0263846
0.0279743
0.0291662
0.0299973
0.0305774
0.0309966
0.0314724
0.0321624
0.0331241
0.0344589
0.0362776
0.0386794
0.0418123
0.045886
0.0511547
0.0576372
0.0639292
0.0658277
0.0616024
0.0553229
0.0497503
0.0454841
0.042598
0.040036
0.0372954
0.048852
0.00283445
0.00289944
0.00299104
0.00291683
0.00285024
0.0068353
0.0772072
0.00194123
0.00314485
0.00474887
0.00705807
0.0101005
0.0143641
0.0198523
0.0243231
0.0280473
0.0307758
0.0328151
0.0343904
0.0355714
0.0363946
0.037066
0.0378998
0.0390285
0.0405641
0.0426459
0.0454015
0.0490028
0.0537096
0.0599419
0.0681422
0.0777997
0.0840185
0.0802149
0.0712412
0.0631043
0.0570184
0.0529512
0.0501349
0.047124
0.0577621
0.00331878
0.00335658
0.0033813
0.00345074
0.00334099
0.00323723
0.0174178
0.765566
0.00229309
0.00332298
0.00497855
0.0071781
0.0102413
0.0141122
0.0197138
0.0258166
0.0308745
0.0349701
0.0382165
0.0406306
0.042381
0.0435936
0.044687
0.0459656
0.0475972
0.0497951
0.0527458
0.0566616
0.0618184
0.0687546
0.0782779
0.091179
0.104801
0.105988
0.0934972
0.0809481
0.071854
0.0659052
0.0623027
0.0591771
0.0683352
0.00386228
0.00389023
0.00388673
0.00390181
0.00398083
0.00378739
0.00380731
0.0110457
0.0155541
0.0204034
0.00327628
0.0050778
0.00723656
0.0101494
0.0139736
0.0188706
0.0257093
0.0325935
0.0384
0.0432051
0.0470376
0.0497478
0.0518058
0.0536663
0.0556271
0.0579879
0.0610284
0.0650651
0.0704515
0.0777412
0.0879427
0.102841
0.124446
0.142857
0.12953
0.107737
0.0926713
0.0832884
0.077883
0.0743617
0.0817029
0.00448244
0.00450335
0.00448727
0.00446348
0.00448004
0.00455262
0.00434631
0.00448445
0.00795737
0.0435539
0.00639671
0.00326184
0.00505361
0.0072394
0.00997158
0.0136343
0.0182607
0.0242877
0.0323885
0.0404552
0.0472742
0.0526441
0.0568047
0.0602406
0.0633678
0.0665794
0.0702126
0.074625
0.0802144
0.0875876
0.0978216
0.11293
0.137379
0.180552
0.205646
0.157842
0.126357
0.109195
0.0998226
0.0947586
0.0995508
0.00519117
0.00520682
0.00518159
0.00514156
0.00510611
0.00512624
0.00516867
0.00504833
0.00497922
0.0071244
0.0497173
0.0152682
0.0627914
0.00462617
0.00704436
0.00973709
0.0131173
0.0175599
0.0230829
0.0303389
0.0399205
0.0491941
0.0565134
0.0624632
0.0676772
0.072562
0.0775381
0.0830593
0.0895403
0.0975095
0.107809
0.121991
0.143546
0.182969
0.295157
0.336219
0.195893
0.153831
0.134533
0.125087
0.125665
0.00600589
0.0060165
0.00598881
0.00593336
0.00587605
0.00583236
0.00583804
0.00587873
0.00581463
0.00567098
0.00678192
0.0417665
0.136171
0.00724152
0.00415074
0.00650533
0.00932059
0.0125485
0.0166148
0.0219001
0.028477
0.0366979
0.0466625
0.0567284
0.0654386
0.0727967
0.0796206
0.0866537
0.0943274
0.103078
0.113541
0.126714
0.144368
0.170174
0.212929
0.291709
0.310947
0.232626
0.193068
0.174787
0.168564
0.00694651
0.00695166
0.00692323
0.00685825
0.00677863
0.00670532
0.00664961
0.00663343
0.00666964
0.00664153
0.00650638
0.00687097
0.0145443
0.0816041
0.0381017
0.00835177
0.00585068
0.00862981
0.0118538
0.0156398
0.0204288
0.0264165
0.0333225
0.0412808
0.0509154
0.0618356
0.0727185
0.0827528
0.0920827
0.101491
0.111811
0.12371
0.137796
0.154821
0.17542
0.198974
0.220523
0.230362
0.227089
0.222281
0.223793
0.00803783
0.00803619
0.00800824
0.0079359
0.00783672
0.00773456
0.00764345
0.00756929
0.00753064
0.00754349
0.00755293
0.00740452
0.00749871
0.00903042
0.701969
0.521242
0.0132961
0.0100985
0.00722884
0.0107677
0.0145284
0.0187246
0.0236125
0.0295383
0.036457
0.0441928
0.0530858
0.0636486
0.0756851
0.0884131
0.101095
0.113429
0.12557
0.137866
0.150389
0.162644
0.173659
0.182688
0.1895
0.195653
0.208253
0.00931107
0.00930063
0.00927341
0.00919398
0.00907644
0.00894644
0.00881947
0.00870487
0.00860763
0.00854064
0.0085257
0.00852569
0.00846017
0.00832056
0.00886091
0.0228238
0.10862
1.39591
0.0106927
0.0122034
0.00881863
0.0127515
0.0165352
0.020653
0.0253544
0.0309377
0.037606
0.0452873
0.0537741
0.0631724
0.0738758
0.0860574
0.0993578
0.11297
0.125833
0.13701
0.145967
0.152884
0.158175
0.162373
0.169925
0.0108044
0.0107839
0.0107572
0.0106701
0.0105331
0.0103751
0.010213
0.0100557
0.00991118
0.00978618
0.00968792
0.00963525
0.0096133
0.00959927
0.0093523
0.00965572
0.0109731
0.0464105
0.169764
4.93837
0.010158
0.0130818
0.00863962
0.0131251
0.0170401
0.0210939
0.0255418
0.0306455
0.0366547
0.0437322
0.0518246
0.0606434
0.0699044
0.079574
0.0897113
0.100212
0.110643
0.120485
0.129001
0.135401
0.142047
0.0125477
0.0125169
0.0124892
0.0123926
0.0122343
0.0120474
0.0118499
0.0116511
0.0114591
0.011282
0.0111258
0.0109954
0.0108965
0.0108539
0.0107875
0.0106857
0.0105559
0.0111256
0.0132455
0.154575
0.289446
9.39038
0.0252734
0.00918401
0.0160844
0.0109487
0.0153102
0.0193821
0.0236835
0.0283638
0.0336356
0.039641
0.0464325
0.0539813
0.0620932
0.0704491
0.078688
0.0866626
0.0942097
0.100963
0.107905
0.0145034
0.0144603
0.0144278
0.0143164
0.0141323
0.0139124
0.0136766
0.0134344
0.0131952
0.0129674
0.0127574
0.0125699
0.0124068
0.0122733
0.012181
0.0121024
0.0120188
0.0118762
0.011744
0.0125852
0.0165572
0.285683
0.368832
2.25803
0
0.0207482
0.00915924
0.0155194
0.0119372
0.0126006
0.018015
0.0229754
0.0280131
0.0333873
0.0391852
0.0453889
0.0518923
0.0586435
0.065468
0.0719934
0.0787059
0.0166096
0.0165516
0.0165109
0.0163808
0.0161672
0.015911
0.0156332
0.0153439
0.015053
0.0147709
0.0145053
0.0142608
0.0140412
0.0138472
0.0136825
0.0135456
0.0134473
0.0133507
0.0132337
0.0130118
0.0130206
0.0142001
0.0176288
0.0660933
0.237718
0.77937
4.06048
0
0.343517
0.0194984
0.00974397
0.0162064
0.025406
0.0100618
0.0173426
0.0235772
0.0293787
0.0350578
0.040785
0.0463886
0.0522132
0.0188494
0.0187767
0.0187267
0.0185761
0.0183317
0.0180381
0.0177176
0.0173812
0.0170392
0.0167031
0.0163812
0.0160782
0.0157987
0.0155457
0.0153206
0.0151225
0.0149528
0.0148134
0.0147084
0.0145705
0.0143937
0.0142247
0.0142618
0.0149685
0.0172498
0.0230274
0.107152
0.318748
0.876965
1.44338
19.1178
0
0
0.212286
0.0135383
0.0106545
0.0175001
0.0417837
0.0310271
0.0172822
0.025201
0.0212474
0.0211606
0.0210999
0.0209267
0.0206498
0.0203166
0.0199514
0.0195659
0.0191721
0.0187818
0.0184041
0.0180443
0.0177066
0.0173946
0.0171103
0.0168544
0.0166261
0.0164246
0.0162524
0.016105
0.0159744
0.0158146
0.015654
0.0154488
0.0154401
0.015602
0.0164188
0.0185881
0.0232679
0.0352655
0.467984
0.571583
1.05382
1.49222
2.85605
0.464302
0
0
0.895751
0.0463924
0.0110457
0.0238222
0.0237214
0.0236474
0.0234495
0.0231378
0.0227629
0.0223505
0.0219138
0.0214664
0.0210204
0.0205864
0.0201703
0.019776
0.0194072
0.0190663
0.0187542
0.018471
0.0182157
0.0179874
0.0177825
0.0176093
0.0174586
0.0173211
0.0171597
0.0169705
0.0167985
0.016602
0.0165538
0.016691
0.0170077
0.0180057
0.020066
0.0239665
0.0317304
0.0567238
8.55161
0.984111
1.27219
1.6303
2.29236
3.70466
0.026595
0.0264804
0.0263908
0.0261659
0.0258172
0.0253984
0.0249361
0.024446
0.0239427
0.02344
0.0229488
0.0224756
0.0220247
0.0216003
0.0212046
0.0208389
0.0205032
0.0201973
0.0199202
0.0196676
0.0194467
0.0192566
0.0190872
0.0189413
0.0187999
0.0186584
0.0184934
0.0183057
0.0181211
0.017956
0.0177826
0.0177298
0.0178111
0.0180263
0.0184675
0.0194719
0.0211685
0.0241104
0.0289112
0.03827
0.0582924
0.0295876
0.0294588
0.0293509
0.0290965
0.0287085
0.028243
0.0277282
0.0271821
0.0266208
0.0260596
0.0255096
0.0249785
0.0244716
0.0239925
0.0235437
0.0231268
0.0227419
0.0223888
0.0220669
0.0217718
0.0215123
0.0212878
0.0210853
0.0209101
0.0207582
0.0206232
0.0205017
0.0203848
0.0202642
0.020138
0.0199939
0.0198393
0.0196863
0.0195514
0.0194237
0.0193037
0.0192621
0.0193017
0.0194296
0.0196811
0.0200314
0.0328236
0.0326803
0.0325514
0.0322646
0.0318349
0.0313196
0.0307496
0.0301447
0.0295231
0.0289015
0.0282915
0.0277021
0.0271393
0.0266061
0.0261057
0.0256397
0.0252086
0.0248121
0.02445
0.0241174
0.0238256
0.0235741
0.0233487
0.0231539
0.0229868
0.0228426
0.0227187
0.0226136
0.0225248
0.0224497
0.0223853
0.0223272
0.0222705
0.0222133
0.0221542
0.0220919
0.0220277
0.0219626
0.0219074
0.0218456
0.0218792
0.0363288
0.0361698
0.0360164
0.0356942
0.0352198
0.0346512
0.0340226
0.0333557
0.0326716
0.0319874
0.0313164
0.030668
0.0300488
0.0294627
0.0289125
0.0283998
0.0279257
0.0274897
0.0270922
0.0267279
0.0264105
0.0261393
0.025898
0.0256925
0.02552
0.0253754
0.0252556
0.0251586
0.0250828
0.0250268
0.0249898
0.0249709
0.0249684
0.0249807
0.025007
0.025048
0.0250993
0.025157
0.0252299
0.0252749
0.0254844
0.0401302
0.0399556
0.039773
0.039411
0.038888
0.0382624
0.0375713
0.0368394
0.0360899
0.0353412
0.034608
0.0338999
0.033224
0.0325861
0.0319881
0.0314315
0.0309175
0.0304462
0.0300182
0.0296278
0.0292911
0.0290076
0.0287577
0.0285488
0.0283785
0.0282417
0.0281348
0.0280556
0.0280024
0.0279733
0.0279668
0.0279821
0.0280177
0.0280721
0.0281456
0.0282399
0.0283507
0.0284759
0.0286298
0.0287522
0.029114
0.0442596
0.0440669
0.0438493
0.0434431
0.0428666
0.0421794
0.0414212
0.0406206
0.0398026
0.0389875
0.0381907
0.0374221
0.0366902
0.0360023
0.0353588
0.0347615
0.0342117
0.03371
0.0332568
0.0328466
0.0324981
0.0322104
0.0319603
0.0317566
0.0315972
0.0314765
0.0313912
0.0313389
0.0313176
0.0313252
0.0313603
0.0314212
0.0315063
0.0316137
0.0317434
0.0318967
0.0320683
0.0322559
0.0324781
0.032652
0.0331641
0.0487506
0.0485377
0.0482776
0.0478201
0.0471838
0.046429
0.0455981
0.0447245
0.0438344
0.0429504
0.0420885
0.0412592
0.0404724
0.0397356
0.0390492
0.0384148
0.0378333
0.0373061
0.036834
0.036411
0.0360586
0.0357755
0.0355341
0.0353447
0.0352057
0.0351112
0.035057
0.0350407
0.0350602
0.0351136
0.0351989
0.0353146
0.0354584
0.0356287
0.0358254
0.0360503
0.0362966
0.0365618
0.0368702
0.0371068
0.0378205
0.0536422
0.0534029
0.0530915
0.0525738
0.0518694
0.0510392
0.0501296
0.0491773
0.0482113
0.0472554
0.0463269
0.0454367
0.0445955
0.0438104
0.0430842
0.0424164
0.0418083
0.0412609
0.0407758
0.0403466
0.0399981
0.0397281
0.039504
0.0393378
0.0392279
0.0391686
0.0391553
0.0391853
0.0392562
0.0393659
0.0395123
0.0396939
0.039908
0.0401529
0.0404279
0.0407351
0.0410666
0.0414194
0.0418236
0.0421273
0.0430809
0.0589755
0.0587039
0.0583276
0.0577378
0.0569557
0.0560407
0.0550443
0.0540068
0.0529602
0.051929
0.0509321
0.0499807
0.0490855
0.0482541
0.0474914
0.046795
0.0461654
0.045604
0.0451125
0.0446847
0.044348
0.0440998
0.0439019
0.0437682
0.0436973
0.0436832
0.0437208
0.0438075
0.0439405
0.0441177
0.0443364
0.0445947
0.0448893
0.0452181
0.0455803
0.0459781
0.0464023
0.0468501
0.0473556
0.0477298
0.0489518
0.0647979
0.0644828
0.0640268
0.0633502
0.0624763
0.0614645
0.0603709
0.0592399
0.0581061
0.0569951
0.055927
0.0549138
0.0539649
0.0530888
0.0522927
0.0515721
0.0509262
0.0503574
0.049867
0.0494486
0.0491326
0.0489159
0.048754
0.0486626
0.0486408
0.0486815
0.0487794
0.0489313
0.0491345
0.0493864
0.0496841
0.0500251
0.0504061
0.0508245
0.0512793
0.0517724
0.0522934
0.0528404
0.0534474
0.0538965
0.0553997
0.071163
0.0707902
0.0702317
0.0694499
0.0684669
0.067342
0.0661376
0.0649029
0.0636735
0.0624774
0.061334
0.0602569
0.0592536
0.0583352
0.057508
0.0567675
0.0561107
0.0555398
0.0550569
0.0546561
0.0543692
0.0541928
0.0540763
0.0540362
0.0540723
0.0541771
0.0543444
0.0545704
0.0548518
0.0551855
0.0555686
0.0559979
0.0564698
0.0569809
0.0575297
0.0581178
0.0587328
0.059376
0.0600726
0.0605995
0.0623586
0.0781295
0.0776766
0.076991
0.076078
0.0749632
0.0737063
0.0723752
0.0710231
0.0696884
0.0683988
0.0671754
0.0660309
0.0649732
0.0640131
0.0631564
0.0623989
0.0617361
0.0611685
0.0606994
0.060322
0.0600709
0.0599401
0.0598743
0.0598907
0.0599898
0.0601623
0.0604018
0.0607035
0.0610645
0.0614807
0.0619487
0.0624643
0.0630231
0.0636214
0.0642559
0.0649284
0.0656233
0.0663492
0.0671082
0.0677153
0.0696519
0.0857652
0.0852033
0.0843539
0.0832802
0.0820062
0.0805928
0.0791141
0.0776282
0.0761742
0.074781
0.0734698
0.0722532
0.0711382
0.0701353
0.0692494
0.0684777
0.0678129
0.0672542
0.0668035
0.0664554
0.0662463
0.066169
0.0661607
0.0662405
0.066408
0.0666534
0.0669693
0.0673501
0.0677913
0.0682878
0.0688355
0.0694297
0.0700649
0.0707364
0.0714392
0.0721751
0.0729247
0.0737078
0.0744853
0.0751792
0.0771418
0.0941444
0.0934336
0.0923796
0.0911046
0.0896375
0.0880366
0.0863843
0.0847425
0.0831521
0.0816418
0.0802325
0.0789365
0.0777602
0.0767109
0.0757933
0.0750062
0.0743387
0.0737874
0.0733549
0.0730349
0.0728624
0.0728306
0.0728712
0.0730044
0.0732293
0.0735351
0.0739124
0.0743552
0.0748581
0.0754157
0.0760218
0.0766704
0.0773552
0.0780708
0.078809
0.0795714
0.0803343
0.0811349
0.0818713
0.0826498
0.0844555
0.103353
0.102441
0.101126
0.099603
0.0978984
0.096071
0.0942127
0.0923882
0.0906407
0.088996
0.0874762
0.0860904
0.0848454
0.0837448
0.0827937
0.0819898
0.0813214
0.0807811
0.0803694
0.0800823
0.0799534
0.0799732
0.0800674
0.080258
0.0805427
0.0809081
0.081344
0.0818431
0.0823982
0.0830018
0.0836468
0.0843256
0.0850307
0.0857551
0.086489
0.0872338
0.0879601
0.088729
0.0893514
0.0902271
0.0915934
0.113482
0.112299
0.110657
0.108823
0.106826
0.104728
0.102624
0.100587
0.0986556
0.0968577
0.0952092
0.0937212
0.0923942
0.0912317
0.0902332
0.0893999
0.0887133
0.0881657
0.0877532
0.0874737
0.0873554
0.0873913
0.0875008
0.0877076
0.0880084
0.0883886
0.0888356
0.0893413
0.0898975
0.0904959
0.0911276
0.0917833
0.0924556
0.0931367
0.093814
0.094489
0.0951283
0.0958188
0.096278
0.0972324
0.0980449
0.124633
0.123089
0.121035
0.118815
0.116461
0.114035
0.111643
0.109357
0.107214
0.105238
0.103443
0.101836
0.100416
0.099185
0.0981395
0.0972801
0.0965867
0.0960472
0.0956539
0.0954053
0.0953239
0.0953984
0.0955442
0.095785
0.0961147
0.0965162
0.096975
0.0974817
0.0980262
0.0985991
0.0991904
0.09979
0.100389
0.10098
0.101549
0.102101
0.102592
0.103146
0.103359
0.10442
0.104318
0.136913
0.134896
0.132329
0.129629
0.126841
0.124028
0.121297
0.118723
0.116337
0.114155
0.112187
0.110436
0.108896
0.107559
0.106419
0.10547
0.104696
0.104079
0.103612
0.10329
0.103134
0.103135
0.103206
0.103371
0.103625
0.103946
0.104321
0.10474
0.105191
0.105664
0.106149
0.106635
0.107114
0.107578
0.10801
0.108418
0.108757
0.10917
0.109181
0.110241
0.109538
0.150449
0.147804
0.144589
0.141305
0.138005
0.134748
0.13163
0.128727
0.12606
0.123643
0.121476
0.119562
0.117893
0.116472
0.115293
0.114337
0.11358
0.112994
0.112562
0.112283
0.112164
0.112188
0.11227
0.112435
0.112673
0.112962
0.113284
0.11363
0.113987
0.114344
0.114693
0.115022
0.115325
0.115596
0.11582
0.116009
0.11611
0.116306
0.115982
0.117178
0.115148
0.165326
0.161846
0.157813
0.153816
0.149937
0.146199
0.142677
0.139416
0.136435
0.133739
0.131331
0.129197
0.12731
0.125635
0.124162
0.122896
0.121843
0.120982
0.120295
0.119768
0.119406
0.119206
0.119076
0.119041
0.119089
0.119195
0.119342
0.11952
0.119716
0.119917
0.120114
0.120294
0.120452
0.120581
0.120665
0.12071
0.120677
0.12073
0.120297
0.121251
0.119152
0.181452
0.176951
0.171965
0.167155
0.162623
0.158371
0.154438
0.150831
0.147538
0.144539
0.141849
0.139493
0.137508
0.135905
0.13465
0.133635
0.132785
0.132069
0.13148
0.131025
0.130703
0.130485
0.130301
0.130181
0.130115
0.130076
0.13005
0.130025
0.129993
0.129944
0.129871
0.129767
0.129627
0.129451
0.129227
0.128973
0.128629
0.128423
0.127585
0.128851
0.124804
0.198721
0.193095
0.187181
0.181618
0.17646
0.171645
0.167198
0.163155
0.159514
0.156231
0.153229
0.150414
0.147713
0.1451
0.142654
0.140552
0.138866
0.137513
0.136409
0.135502
0.134777
0.134243
0.133794
0.13345
0.13319
0.132987
0.132824
0.132686
0.132561
0.132436
0.132297
0.132133
0.131938
0.131703
0.131413
0.13107
0.130651
0.130286
0.129489
0.129931
0.127106
0.217719
0.210573
0.203636
0.19749
0.191972
0.186809
0.181895
0.177238
0.172913
0.169047
0.165788
0.163248
0.161436
0.160259
0.159436
0.15848
0.157225
0.155889
0.154596
0.153423
0.152359
0.151363
0.150416
0.14955
0.148757
0.148007
0.147288
0.146592
0.145912
0.14524
0.144571
0.143901
0.143226
0.142547
0.141856
0.141171
0.140425
0.139869
0.138638
0.140007
0.134033
0.238839
0.228749
0.219807
0.212652
0.206922
0.202027
0.197565
0.193252
0.188863
0.184227
0.179268
0.174022
0.16867
0.163457
0.158767
0.155209
0.152776
0.150906
0.149374
0.148088
0.147043
0.146214
0.145505
0.14492
0.144427
0.143995
0.143602
0.143229
0.142859
0.142474
0.142056
0.14159
0.141068
0.140477
0.139805
0.139039
0.13819
0.137291
0.136147
0.135513
0.132881
0.258661
0.24618
0.235399
0.226541
0.219368
0.213546
0.208924
0.205408
0.20286
0.20109
0.199877
0.199006
0.19826
0.197584
0.196776
0.1947
0.191411
0.187931
0.184552
0.181428
0.178558
0.175906
0.173438
0.171158
0.169058
0.167113
0.165303
0.163618
0.162049
0.16059
0.159234
0.157979
0.156818
0.155755
0.154778
0.153905
0.153063
0.152508
0.151341
0.153155
0.145904
0.247632
0.232864
0.2256
0.223825
0.224989
0.226071
0.224246
0.218382
0.209586
0.199887
0.190811
0.183061
0.176795
0.171826
0.168016
0.165861
0.165088
0.164938
0.165046
0.165267
0.165664
0.165939
0.166302
0.166671
0.166998
0.167266
0.167464
0.167576
0.167588
0.167487
0.167267
0.166921
0.166455
0.16587
0.165162
0.164316
0.163399
0.162367
0.161221
0.160352
0.156911
0.00499618
0.00908324
0.0141874
0.0199706
0.0258835
0.0314489
0.0368887
0.0440722
0.0630612
0.063032
0.0208981
0.00787839
0.335542
0.0166898
0.0102305
0.0106408
0.0111077
0.0115168
0.0118133
0.0122389
0.0126927
0.0133035
0.0140464
0.0149522
0.016042
0.0173199
0.0188156
0.0205117
0.0224401
0.0245598
0.0269041
0.0293956
0.0320316
0.0347822
0.0375884
0.0404608
0.0433992
0.0464132
0.049585
0.0529636
0.0565773
0.0606979
0.0654382
0.0708229
0.0776008
0.0855174
0.0957316
0.10901
0.124406
0.138898
0.146929
0.140361
0.130148
0.120349
0.112699
0.107371
0.10327
0.100533
0.0987344
0.0977215
0.0974577
0.097685
0.0985474
0.0999184
0.10167
0.104129
0.106711
0.1101
0.113748
0.118275
0.122618
0.128978
0.132432
0.140496
0.0086944
0.0120058
0.0168214
0.0222264
0.0275131
0.0321884
0.0362903
0.0407376
0.0483188
0.0778887
0.0468156
0.0144237
0.00690872
0.104605
0.0118892
0.0103397
0.0109641
0.0115497
0.0119559
0.0124554
0.0129814
0.0136377
0.014421
0.0153546
0.0164674
0.0177526
0.0192588
0.0209662
0.0228985
0.0250193
0.0273806
0.0299147
0.0325977
0.0354473
0.0383507
0.0413515
0.0444518
0.0476315
0.05101
0.0545896
0.0583812
0.0627976
0.0677838
0.0734434
0.0806261
0.0887536
0.0994824
0.112934
0.127651
0.139676
0.14506
0.13804
0.128846
0.120039
0.113124
0.108231
0.104476
0.101972
0.100357
0.0994824
0.09937
0.0996967
0.100646
0.102168
0.103994
0.106611
0.109295
0.112775
0.116561
0.121278
0.125666
0.132264
0.135646
0.143552
0.0146841
0.0166234
0.0205581
0.0252719
0.0299319
0.0339616
0.0372727
0.040412
0.0447164
0.0538105
0.109114
0.0364521
0.00878665
0.0149828
0.2833
0.0111681
0.0106318
0.0113971
0.0120076
0.0126013
0.0132416
0.0139699
0.0148162
0.0157936
0.016936
0.0182411
0.0197449
0.0214637
0.0233984
0.0255312
0.0278998
0.0304832
0.0332213
0.0361783
0.0392076
0.0423629
0.0456511
0.0490295
0.0526348
0.0564252
0.0604235
0.0651205
0.0702842
0.0762002
0.0835125
0.0916657
0.102407
0.114514
0.126997
0.136155
0.139184
0.133811
0.126654
0.119511
0.113643
0.109338
0.10606
0.103864
0.102459
0.101783
0.101771
0.102312
0.103327
0.10496
0.10693
0.109602
0.112539
0.116055
0.119976
0.124841
0.129339
0.136127
0.139366
0.147107
0.0228474
0.0229849
0.0256493
0.0293848
0.033339
0.036841
0.0396362
0.0420144
0.0447743
0.0494447
0.0606852
0.124959
0.029094
0.00685123
0.0676638
0.106544
0.0115459
0.011166
0.011962
0.0126759
0.0134195
0.0142266
0.0151401
0.016166
0.0173362
0.0186585
0.0201613
0.0218783
0.0238103
0.0259552
0.0283418
0.0309697
0.0337778
0.0368417
0.0400102
0.0433353
0.0468223
0.0504174
0.0542479
0.0582518
0.0624813
0.0674149
0.0727191
0.0788498
0.0861459
0.094254
0.104677
0.115307
0.125819
0.133254
0.135172
0.13126
0.125668
0.119851
0.114861
0.111004
0.10815
0.106201
0.10499
0.104471
0.104557
0.105254
0.106346
0.108067
0.11016
0.112886
0.116011
0.119587
0.123607
0.128603
0.133157
0.140159
0.143139
0.150743
0.0326941
0.0313047
0.03235
0.0348387
0.0379241
0.040834
0.0431449
0.0449292
0.0466918
0.0493231
0.0544744
0.0678687
0.0877254
0.0243971
0.0158392
0.355452
0.0386225
0.0117228
0.0117806
0.0126846
0.0135453
0.0144178
0.0153853
0.0164507
0.0176421
0.0189733
0.0204779
0.0221876
0.0241124
0.0262651
0.0286752
0.031346
0.0342309
0.0374034
0.0407188
0.0442222
0.0479146
0.0517351
0.0557901
0.0600146
0.0644655
0.0695941
0.0750275
0.0812778
0.0885025
0.0964558
0.106321
0.11581
0.124883
0.131317
0.132974
0.130268
0.125895
0.121108
0.116843
0.113318
0.110815
0.109034
0.107996
0.107569
0.107771
0.108527
0.109694
0.111496
0.11366
0.116468
0.119676
0.123325
0.127404
0.132523
0.137046
0.144288
0.146894
0.15438
0.0448021
0.0417814
0.0408916
0.0418944
0.043933
0.0461199
0.0478821
0.0491025
0.0500807
0.0514153
0.0540201
0.0595116
0.0743756
0.0698351
0.0208457
0.0094968
0.250397
0.027528
0.0121467
0.0124707
0.0135687
0.0145575
0.0155742
0.0166695
0.0178683
0.0191893
0.0206808
0.022377
0.0242921
0.0264512
0.0288874
0.0316038
0.0345669
0.0378455
0.041307
0.0449892
0.0488879
0.0529334
0.0572086
0.0616426
0.0662846
0.0715582
0.0770596
0.0832932
0.0903304
0.0978975
0.106967
0.115329
0.123205
0.128836
0.130794
0.129335
0.126251
0.122523
0.119006
0.11593
0.113778
0.11219
0.111322
0.110991
0.111293
0.112106
0.113332
0.115208
0.11742
0.120299
0.123553
0.127258
0.131374
0.136603
0.141028
0.14851
0.150642
0.158022
0.0595504
0.0545356
0.051496
0.0508283
0.0516415
0.0529447
0.0540377
0.0546442
0.0548994
0.0552239
0.0562418
0.0587467
0.0642816
0.0790509
0.061501
0.0186049
0.00921701
0.188125
0.0281075
0.0129165
0.0133166
0.0145691
0.0156915
0.0168117
0.0180277
0.0193455
0.0208104
0.0224732
0.0243565
0.0265013
0.0289504
0.0317103
0.0347536
0.0381421
0.0417538
0.0456135
0.0497129
0.0539744
0.0584545
0.0630738
0.0678765
0.0732374
0.0787136
0.0848059
0.0915066
0.0984966
0.106631
0.11385
0.120657
0.12568
0.128104
0.127896
0.126175
0.123633
0.120972
0.118529
0.116792
0.115486
0.114814
0.114628
0.115021
0.115926
0.117205
0.119145
0.121409
0.124326
0.127626
0.131361
0.135488
0.140808
0.145085
0.152799
0.154353
0.161664
0.074982
0.0695924
0.0643972
0.0619403
0.0613533
0.0615956
0.0618655
0.0617555
0.0612635
0.0606777
0.060462
0.0611355
0.0633768
0.0685856
0.0808264
0.0582823
0.0181194
0.00978742
0.204812
0.0402319
0.0141462
0.0141746
0.0155954
0.0168466
0.0180243
0.0193277
0.0208036
0.0224745
0.0243508
0.0264828
0.0289254
0.031697
0.034786
0.038256
0.0420056
0.0460422
0.0503456
0.0548231
0.0594944
0.0642755
0.069204
0.0745884
0.0799554
0.0858305
0.0920783
0.0984298
0.105609
0.111837
0.117711
0.122365
0.125183
0.126067
0.125621
0.124332
0.122643
0.120955
0.11975
0.118818
0.118405
0.118412
0.118925
0.119948
0.12129
0.123282
0.125595
0.128533
0.13187
0.135613
0.139715
0.145098
0.149177
0.157121
0.157987
0.165285
0.0905811
0.0869909
0.0799512
0.0755779
0.0734108
0.0724031
0.0716713
0.0707031
0.0693843
0.0678896
0.0665708
0.0658114
0.0660498
0.0678408
0.0721533
0.0804374
0.0589089
0.0197258
0.0115085
0.340563
0.136268
0.0162827
0.0150746
0.0165894
0.0180648
0.0192662
0.0205647
0.0221403
0.0240014
0.0261687
0.0286783
0.0315349
0.0347182
0.038276
0.0421318
0.0462924
0.0507476
0.0554084
0.0602575
0.0651953
0.0702266
0.0755783
0.0807806
0.0863753
0.0921062
0.0978236
0.104106
0.10953
0.114645
0.119053
0.122171
0.123936
0.12462
0.124557
0.123929
0.123084
0.122546
0.122095
0.122034
0.122294
0.122982
0.124144
0.12557
0.127617
0.129971
0.132923
0.136276
0.140006
0.144042
0.149459
0.153275
0.161451
0.161515
0.168863
0.108517
0.107362
0.0989019
0.0923585
0.0883086
0.0857973
0.0838431
0.0818355
0.0795587
0.0770863
0.0746795
0.0726322
0.0712766
0.0709685
0.0720559
0.0750087
0.0793157
0.0621421
0.0240894
0.0149323
0.0438269
0.108547
0.0249761
0.0162491
0.0172499
0.0191876
0.0208329
0.0222553
0.0238186
0.0257225
0.0280573
0.0308496
0.0340941
0.0378141
0.0419129
0.0463278
0.0509978
0.0558239
0.0607815
0.0657946
0.0708594
0.0761265
0.0811565
0.0864346
0.0916371
0.0967449
0.102191
0.106975
0.111462
0.115669
0.118962
0.12145
0.12307
0.124165
0.124613
0.124729
0.124957
0.125141
0.125548
0.126167
0.127113
0.128461
0.130009
0.132136
0.134535
0.137492
0.140837
0.144535
0.148472
0.153894
0.157376
0.165779
0.164927
0.172388
0.133586
0.13408
0.123265
0.113798
0.107174
0.102602
0.0990154
0.0956699
0.0922232
0.0886288
0.085051
0.0817245
0.0789093
0.0768857
0.0758941
0.0760899
0.0774305
0.0785111
0.066398
0.0320815
0.00986192
0.0167646
0.200365
0.0566768
0.019456
0.0176921
0.0192999
0.0216835
0.0240561
0.0262575
0.0284971
0.0309827
0.0338572
0.0372361
0.0411309
0.0455477
0.0504379
0.0556226
0.0609272
0.0661612
0.0712604
0.0763465
0.0811074
0.0859908
0.0906814
0.0952397
0.0999577
0.10421
0.108174
0.112151
0.115509
0.118514
0.120876
0.122969
0.124448
0.125603
0.126696
0.127676
0.128702
0.129828
0.131152
0.13278
0.134517
0.136773
0.139243
0.142206
0.145531
0.149179
0.152986
0.158387
0.161467
0.170087
0.168213
0.175843
0.17626
0.17919
0.161011
0.144848
0.133333
0.125153
0.118829
0.113377
0.108254
0.103196
0.0982204
0.0934622
0.0891461
0.0854945
0.0827206
0.0809579
0.0801555
0.0799174
0.0787281
0.0700521
0.044055
0.0135015
0.013449
0.378804
0.140365
0.0376718
0.0203495
0.0191478
0.0206165
0.0231242
0.0263523
0.0300332
0.0339545
0.037998
0.0420731
0.0462078
0.050512
0.055132
0.0601565
0.0654456
0.0707832
0.0760286
0.0807702
0.0853289
0.0894976
0.0934647
0.0975157
0.101278
0.10484
0.108542
0.111908
0.115167
0.118085
0.120916
0.123328
0.125472
0.12751
0.129403
0.131214
0.133015
0.134862
0.136908
0.138946
0.141412
0.144013
0.14701
0.150323
0.153911
0.157556
0.162905
0.165526
0.174354
0.171364
0.179208
0.241208
0.282275
0.258153
0.210137
0.180754
0.161891
0.148783
0.13868
0.13018
0.122557
0.115469
0.108777
0.102625
0.097166
0.0925857
0.0890095
0.0864364
0.0846496
0.0830878
0.0804761
0.0734951
0.0564742
0.0279473
0.124147
0.0198881
0.46903
0.163978
0.0761232
0.0274035
0.0227122
0.0230168
0.0249115
0.0279623
0.0321476
0.037491
0.0437743
0.0504351
0.0565605
0.0617238
0.0661804
0.0704462
0.0748542
0.0792367
0.0836929
0.0878048
0.0915502
0.0951366
0.0984172
0.10156
0.10491
0.108184
0.111513
0.114787
0.118112
0.121266
0.124257
0.127212
0.130053
0.132771
0.13541
0.137952
0.140586
0.143083
0.145884
0.148714
0.151804
0.15514
0.158678
0.16214
0.167409
0.169519
0.178543
0.174366
0.182458
0.218386
0.249678
0.311171
0.536212
0.402207
0.268998
0.217092
0.187491
0.167748
0.152907
0.140797
0.130406
0.121233
0.113152
0.106264
0.100625
0.0962042
0.0928372
0.0901828
0.0876639
0.0843171
0.0784131
0.0675503
0.049553
0.0174831
0.030508
0.0162953
0.251567
0.302193
0.221031
0.160354
0.0831228
0.0411823
0.034188
0.034073
0.0368775
0.0412021
0.0477641
0.055992
0.0644874
0.0717384
0.0768723
0.0802544
0.0830516
0.0857919
0.0887748
0.0920299
0.0952362
0.0982993
0.10145
0.104553
0.107776
0.111167
0.114749
0.118411
0.122057
0.125794
0.129506
0.133164
0.136734
0.140148
0.143552
0.146694
0.149986
0.153186
0.156478
0.1599
0.163422
0.1667
0.171869
0.173428
0.182628
0.177217
0.185576
0.173161
0.181897
0.192279
0.211029
0.242562
0.302084
0.440179
0.416002
0.285361
0.225819
0.191397
0.168495
0.151293
0.137568
0.126429