/*--------------------------------*- C++ -*----------------------------------*\
| =========                 |                                                 |
| \\      /  F ield         | OpenFOAM: The Open Source CFD Toolbox           |
|  \\    /   O peration     | Version:  2312                                  |
|   \\  /    A nd           | Website:  www.openfoam.com                      |
|    \\/     M anipulation  |                                                 |
\*---------------------------------------------------------------------------*/
FoamFile
{
    version     2.0;
    format      ascii;
    arch        "LSB;label=32;scalar=64";
    class       volScalarField;
    location    "500";
    object      turbulenceProperties:epsilon;
}
// * * * * * * * * * * * * * * * * * * * * * * * * * * * * * * * * * * * * * //

dimensions      [0 2 -3 0 0 0 0];

internalField   nonuniform List<scalar> 
11040
(
94.345
101.934
4.06844
1.10465
17.2834
19.8908
18.9326
16.8169
14.707
13.3776
12.0956
10.9788
10.0685
9.29906
8.68139
8.26955
8.05797
8.09571
8.38271
8.90929
9.69416
10.7311
12.0682
13.7824
15.9377
18.6057
21.6847
24.8664
27.8544
30.2549
31.6344
31.6033
30.001
27.2843
24.0464
18.655
10.4458
3.89914
1.09693
0.460679
5.62949
0.864082
2.81205
27.9306
51.6186
52.734
6.26306
0.70482
0.108749
0.0152139
0.000469003
0.0119725
0.0285962
0.0462071
0.0619124
0.0758789
0.0890961
0.102938
0.119751
0.138513
0.158466
0.18028
0.204424
0.224884
0.233713
0.227861
0.211725
0.185988
0.15076
0.109795
0.0704768
0.0399829
0.0228038
0.0180755
0.0211281
0.0361489
0.0676987
0.122439
0.219346
0.515177
0.437854
10.3492
0.331356
0.258922
0.98023
13.8953
96.8733
79.4006
18.8655
2.8234
0.751485
0.299867
0.114177
0.0462226
0.0151282
0.00342091
0.000181964
0.000682314
0.00278067
0.00528937
0.00767794
0.00966216
0.0110581
0.0117241
0.0109652
0.00894268
0.00674502
0.00532318
0.00488764
0.00517949
0.00564019
0.00611296
0.00784764
0.014819
0.0336227
0.0691086
0.129883
0.228663
0.380132
0.610632
1.27006
1.90961
3.8287
0.171505
0.123111
0.0867374
0.176009
13.7659
88.3761
96.4882
35.8633
6.20356
1.90286
0.728229
0.359171
0.189697
0.103132
0.0610065
0.0369994
0.0249962
0.018364
0.0151644
0.0141552
0.0146252
0.0164533
0.0201212
0.0255863
0.0318932
0.0377742
0.0420646
0.0436552
0.0421189
0.0386393
0.0365702
0.0419633
0.0632155
0.111694
0.204949
0.368146
0.629583
1.01826
1.98126
3.37839
2.17994
0.094814
0.0769776
0.0856595
0.0241282
0.0313396
8.66686
65.4195
100.972
55.1191
13.6162
3.65692
1.41706
0.711968
0.384967
0.241231
0.157688
0.115249
0.0906126
0.077787
0.0722047
0.0709657
0.0724772
0.0768248
0.0836119
0.0909038
0.0966366
0.099155
0.0969206
0.0895106
0.0784451
0.068034
0.0665853
0.0871065
0.148599
0.277821
0.511691
0.890918
1.4438
2.57383
4.61761
2.2155
0.0493018
0.0416459
0.0388195
0.0475492
0.00525558
0.00149385
3.86261
39.3901
91.8823
71.8274
27.5831
6.94772
2.63321
1.19844
0.681935
0.417475
0.291351
0.220936
0.183125
0.164283
0.156278
0.154372
0.157021
0.16332
0.17046
0.175504
0.175889
0.169023
0.153643
0.131044
0.106481
0.0912597
0.104127
0.172266
0.332665
0.633902
1.12834
1.84268
3.0389
5.37728
2.85074
0.0256474
0.0234301
0.0206689
0.0229171
0.0250643
0.00111643
4.64966e-07
1.03821
18.8724
67.1307
79.9272
45.5642
15.004
4.60987
2.05029
1.08833
0.67568
0.464582
0.355276
0.299664
0.272951
0.262655
0.262214
0.268549
0.277105
0.283279
0.282893
0.271627
0.246572
0.208197
0.162323
0.123121
0.115225
0.174382
0.348376
0.696386
1.27972
2.12228
3.32867
5.57419
3.5991
0.0136467
0.0130422
0.0126674
0.0116697
0.0133424
0.0150847
5.97047e-05
3.88007e-10
0.122924
6.67434
37.461
72.2507
60.5076
29.0369
9.46539
3.51227
1.74807
1.03704
0.700261
0.530239
0.44603
0.410646
0.400532
0.40577
0.417775
0.428629
0.431215
0.41818
0.383561
0.326043
0.251031
0.174516
0.1262
0.150169
0.304617
0.65783
1.27583
2.17782
3.35268
5.25334
4.08299
0.00743989
0.00722865
0.0072545
0.00714438
0.00658617
0.00813583
0.00784983
0.000222081
5.88714e-05
2.90997e-05
1.44411
15.0852
47.953
64.1622
44.676
19.8236
6.90977
2.93038
1.60298
1.03573
0.766656
0.646959
0.599265
0.590673
0.602405
0.619078
0.62828
0.618103
0.578215
0.50263
0.393891
0.267438
0.15595
0.110534
0.198297
0.495001
1.06803
1.93204
3.01907
4.48946
4.06034
0.00410092
0.00402538
0.0040834
0.00417136
0.00410945
0.00385155
0.00470234
0.00407182
0.00056612
2.80831e-06
0.00123301
0.162895
4.09253
22.3747
49.5891
53.4353
33.9324
14.9374
5.66992
2.63501
1.57344
1.13945
0.952555
0.87875
0.86353
0.875239
0.890681
0.887576
0.847559
0.758581
0.618007
0.437019
0.246534
0.100259
0.0711194
0.240616
0.677014
1.39519
2.31418
3.3826
3.48049
0.00227967
0.00225242
0.00229666
0.00236895
0.0024358
0.00239641
0.00232086
0.00257216
0.00269662
0.000739222
1.84441e-06
5.11792e-05
7.42049e-07
0.564545
6.68434
25.6144
45.7258
44.1285
27.2847
12.4615
5.14421
2.65809
1.81376
1.46983
1.32332
1.27323
1.26464
1.25669
1.21904
1.12747
0.967124
0.739934
0.471562
0.213032
0.0368871
0.0252726
0.247364
0.724701
1.38715
2.10499
2.44138
0.00127239
0.00126345
0.00128699
0.00133578
0.00138864
0.00143082
0.0014247
0.00138655
0.00145734
0.00161239
0.00080839
2.85455e-06
7.59094e-08
0.000719792
0.0191068
1.06832
8.095
25.0188
39.8443
37.114
23.4386
11.8447
5.8303
3.38194
2.44866
2.09074
1.94309
1.86212
1.78682
1.67681
1.50268
1.2522
0.936952
0.594774
0.288194
0.0937213
0.0800343
0.274785
0.627303
1.01112
1.29167
0.000710983
0.000708882
0.000720602
0.0007483
0.000784086
0.000818941
0.000846742
0.000854862
0.000836539
0.000854456
0.000932709
0.00073912
6.22143e-05
3.40769e-07
2.94529e-06
0.00197261
0.0662349
1.34761
7.9439
21.9584
33.7401
32.4552
23.2433
14.4043
8.52346
5.33865
3.82518
3.15012
2.84287
2.64635
2.43205
2.15271
1.80971
1.42996
1.06087
0.759471
0.577319
0.538523
0.613189
0.695244
0.701728
0.000396611
0.000396936
0.000402508
0.000417387
0.000438921
0.000462575
0.000485025
0.000504322
0.000514668
0.00051115
0.0005097
0.00055678
0.000523197
0.000261537
4.77017e-10
1.16488e-09
6.6248e-05
0.00297382
0.0719305
1.21831
6.51179
17.1005
26.9167
29.5033
25.5016
19.3831
13.8757
9.75359
7.02913
5.37143
4.39287
3.79062
3.36213
2.99579
2.65905
2.36897
2.15467
2.02006
1.94752
1.86175
1.54088
0.000220251
0.000221243
0.000223853
0.00023169
0.000243925
0.000258414
0.000273619
0.000288315
0.000301567
0.000311114
0.000313227
0.00031363
0.000325166
0.000349268
0.000267192
1.22861e-05
1.17008e-07
5.45472e-11
0.000130147
0.00263331
0.0515668
0.756399
3.65631
9.84392
17.7202
23.6902
25.5316
23.9042
20.6835
17.1071
13.6998
10.7627
8.47407
6.85369
5.81558
5.2255
4.95912
4.89146
4.92681
4.98366
4.55592
0.000121481
0.000122408
0.000123629
0.000127713
0.000134492
0.000142874
0.000152158
0.000161906
0.000171559
0.000180494
0.000187923
0.000192019
0.00019387
0.000195435
0.000219608
0.000190308
0.000116479
1.29169e-06
2.77763e-08
1.12059e-12
0.000154946
0.00139278
0.00965737
0.186929
1.07214
3.46381
7.71174
13.1011
18.1376
21.5582
22.9879
22.7654
21.4316
19.4284
17.1402
14.9093
13.0195
11.5828
10.6597
10.2944
9.68894
6.67798e-05
6.74404e-05
6.80419e-05
7.01889e-05
7.38917e-05
7.85846e-05
8.39556e-05
8.98337e-05
9.60087e-05
0.000102179
0.000108043
0.000113256
0.000117411
0.00011923
0.00012241
0.000127774
0.000134984
0.000107505
5.68481e-05
3.12512e-08
5.07411e-09
1.47583e-13
7.50525e-06
0.00068257
0.001829
0.00966941
0.107267
0.518577
1.60737
3.69059
6.82466
10.6936
14.7315
18.3615
21.1735
22.96
23.784
23.799
23.287
22.7285
21.4082
3.74132e-05
3.78609e-05
3.82039e-05
3.94071e-05
4.15007e-05
4.41877e-05
4.73146e-05
5.08204e-05
5.46064e-05
5.85462e-05
6.2496e-05
6.63109e-05
6.9866e-05
7.29513e-05
7.51698e-05
7.71806e-05
7.9535e-05
8.39323e-05
8.82124e-05
6.56253e-05
2.49009e-05
4.44448e-09
2.21089e-09
1.00446e-11
0
1.31181e-05
0.000525734
0.000736107
8.28303e-05
0.0102293
0.0796265
0.323101
0.917231
2.0607
3.90216
6.4544
9.58984
13.0754
16.595
20.041
22.4805
2.17501e-05
2.20567e-05
2.22746e-05
2.29909e-05
2.423e-05
2.58289e-05
2.77143e-05
2.98646e-05
3.22407e-05
3.4775e-05
3.73937e-05
4.00246e-05
4.25875e-05
4.50263e-05
4.72302e-05
4.91648e-05
5.06125e-05
5.21391e-05
5.41728e-05
5.84613e-05
5.82809e-05
4.05199e-05
1.88299e-05
3.21734e-07
7.34302e-09
2.21243e-10
1.62769e-12
0
2.67213e-09
1.50658e-05
0.000420928
0.000484284
0.000538848
0.000311905
0.0121438
0.067523
0.231026
0.59652
1.27066
2.36673
3.87944
1.3113e-05
1.33172e-05
1.34601e-05
1.39019e-05
1.4658e-05
1.56359e-05
1.67985e-05
1.81372e-05
1.9638e-05
2.12668e-05
2.29888e-05
2.47713e-05
2.65712e-05
2.83438e-05
3.0047e-05
3.1652e-05
3.31119e-05
3.43713e-05
3.53608e-05
3.67711e-05
3.87799e-05
4.09399e-05
4.0493e-05
3.28422e-05
1.91878e-05
7.40208e-06
6.98492e-08
2.81474e-09
1.43196e-10
3.36764e-11
1.1704e-14
0
0
1.05639e-08
4.98432e-05
0.000468763
0.000469197
7.71163e-05
1.89263e-06
0.0011431
0.0112207
8.12188e-06
8.25596e-06
8.35151e-06
8.63142e-06
9.1037e-06
9.71576e-06
1.0447e-05
1.12951e-05
1.2252e-05
1.33026e-05
1.44289e-05
1.56147e-05
1.68403e-05
1.80818e-05
1.93139e-05
2.05137e-05
2.16639e-05
2.27464e-05
2.37233e-05
2.45998e-05
2.54195e-05
2.65059e-05
2.76982e-05
2.93822e-05
2.94899e-05
2.81234e-05
2.26568e-05
1.42228e-05
6.72872e-06
1.86331e-06
7.99201e-10
4.6182e-10
7.72506e-11
2.83247e-11
4.16464e-12
1.00685e-18
0
0
1.34802e-10
9.50237e-07
0.000120408
5.13984e-06
5.22779e-06
5.29352e-06
5.47452e-06
5.77553e-06
6.16549e-06
6.6334e-06
7.17822e-06
7.79565e-06
8.47857e-06
9.21654e-06
1.00009e-05
1.08228e-05
1.16691e-05
1.25264e-05
1.33814e-05
1.42212e-05
1.50354e-05
1.58136e-05
1.65542e-05
1.72126e-05
1.78132e-05
1.83882e-05
1.91102e-05
2.00271e-05
2.09337e-05
2.20607e-05
2.23495e-05
2.1509e-05
1.97748e-05
1.5683e-05
1.05456e-05
5.82519e-06
2.41861e-06
4.16774e-07
1.20649e-13
8.40435e-11
4.01602e-11
1.96111e-11
7.20939e-12
1.73198e-12
3.30881e-06
3.36648e-06
3.41243e-06
3.53127e-06
3.726e-06
3.97794e-06
4.28126e-06
4.63505e-06
5.03724e-06
5.48349e-06
5.96828e-06
6.48699e-06
7.03478e-06
7.60424e-06
8.18797e-06
8.77802e-06
9.36717e-06
9.94786e-06
1.0513e-05
1.10637e-05
1.1575e-05
1.20382e-05
1.24698e-05
1.28566e-05
1.32487e-05
1.3661e-05
1.41724e-05
1.47959e-05
1.54569e-05
1.60907e-05
1.67985e-05
1.70074e-05
1.66259e-05
1.57281e-05
1.41737e-05
1.14887e-05
8.46043e-06
5.42421e-06
3.0165e-06
1.26129e-06
3.51467e-07
2.15985e-06
2.1979e-06
2.23041e-06
2.30946e-06
2.43687e-06
2.60158e-06
2.80024e-06
3.03216e-06
3.29614e-06
3.58936e-06
3.90907e-06
4.25231e-06
4.61576e-06
4.9957e-06
5.38767e-06
5.78676e-06
6.18861e-06
6.58839e-06
6.98138e-06
7.36766e-06
7.72966e-06
8.06108e-06
8.37507e-06
8.65895e-06
8.91447e-06
9.1492e-06
9.36722e-06
9.58458e-06
9.81826e-06
1.00741e-05
1.0382e-05
1.07318e-05
1.10988e-05
1.14412e-05
1.17806e-05
1.21106e-05
1.22187e-05
1.20867e-05
1.17129e-05
1.10533e-05
1.02487e-05
1.42598e-06
1.45119e-06
1.47432e-06
1.52745e-06
1.61161e-06
1.72034e-06
1.85151e-06
2.00468e-06
2.17891e-06
2.3725e-06
2.58384e-06
2.81088e-06
3.05143e-06
3.30348e-06
3.56415e-06
3.83042e-06
4.09929e-06
4.36771e-06
4.63228e-06
4.89313e-06
5.13726e-06
5.36007e-06
5.57016e-06
5.76002e-06
5.9293e-06
6.08033e-06
6.21374e-06
6.3296e-06
6.42937e-06
6.51534e-06
6.59038e-06
6.65994e-06
6.73011e-06
6.80332e-06
6.88201e-06
6.9684e-06
7.0612e-06
7.15935e-06
7.24744e-06
7.34638e-06
7.31556e-06
9.50279e-07
9.67113e-07
9.83704e-07
1.01972e-06
1.0758e-06
1.14817e-06
1.23542e-06
1.33723e-06
1.45281e-06
1.58116e-06
1.7211e-06
1.87134e-06
2.03043e-06
2.19691e-06
2.36896e-06
2.54473e-06
2.72201e-06
2.89887e-06
3.07277e-06
3.24379e-06
3.40259e-06
3.54603e-06
3.68006e-06
3.7992e-06
3.90301e-06
3.99275e-06
4.0691e-06
4.13222e-06
4.18235e-06
4.21975e-06
4.24457e-06
4.25713e-06
4.25846e-06
4.24981e-06
4.23182e-06
4.2042e-06
4.17032e-06
4.13293e-06
4.08664e-06
4.0596e-06
3.92983e-06
6.38218e-07
6.4946e-07
6.61474e-07
6.86121e-07
7.23794e-07
7.72307e-07
8.30726e-07
8.98742e-07
9.75769e-07
1.06112e-06
1.15395e-06
1.25344e-06
1.3586e-06
1.46816e-06
1.58107e-06
1.69609e-06
1.81171e-06
1.92653e-06
2.03879e-06
2.14842e-06
2.24891e-06
2.33815e-06
2.4205e-06
2.49213e-06
2.55252e-06
2.60236e-06
2.64213e-06
2.6721e-06
2.69251e-06
2.70376e-06
2.70626e-06
2.70035e-06
2.68664e-06
2.66579e-06
2.63796e-06
2.60281e-06
2.56223e-06
2.51729e-06
2.46347e-06
2.42168e-06
2.30344e-06
4.31341e-07
4.38947e-07
4.47728e-07
4.64716e-07
4.90233e-07
5.22974e-07
5.62335e-07
6.07997e-07
6.59548e-07
7.16462e-07
7.78153e-07
8.44083e-07
9.13488e-07
9.8533e-07
1.05905e-06
1.13374e-06
1.20841e-06
1.28198e-06
1.35329e-06
1.42219e-06
1.48418e-06
1.53793e-06
1.58665e-06
1.62775e-06
1.66086e-06
1.6865e-06
1.70491e-06
1.71634e-06
1.72103e-06
1.71935e-06
1.71169e-06
1.69846e-06
1.68021e-06
1.6575e-06
1.63059e-06
1.59947e-06
1.5655e-06
1.5294e-06
1.48795e-06
1.45648e-06
1.36856e-06
2.93042e-07
2.98224e-07
3.04708e-07
3.16541e-07
3.33967e-07
3.56226e-07
3.8291e-07
4.1372e-07
4.48365e-07
4.86436e-07
5.27526e-07
5.71236e-07
6.16972e-07
6.64028e-07
7.11965e-07
7.6018e-07
8.08006e-07
8.54663e-07
8.99332e-07
9.4187e-07
9.79235e-07
1.0106e-06
1.03836e-06
1.0608e-06
1.07766e-06
1.08931e-06
1.09607e-06
1.09812e-06
1.09568e-06
1.08904e-06
1.07852e-06
1.06447e-06
1.04731e-06
1.02743e-06
1.00506e-06
9.80227e-07
9.53893e-07
9.26526e-07
8.95924e-07
8.7329e-07
8.09218e-07
1.99904e-07
2.03516e-07
2.08336e-07
2.16667e-07
2.28681e-07
2.43929e-07
2.62124e-07
2.83028e-07
3.06404e-07
3.31962e-07
3.5939e-07
3.88396e-07
4.18541e-07
4.49363e-07
4.80436e-07
5.11415e-07
5.41831e-07
5.71162e-07
5.98835e-07
6.2473e-07
6.46792e-07
6.64561e-07
6.79773e-07
6.91338e-07
6.99122e-07
7.03373e-07
7.04329e-07
7.0218e-07
6.97128e-07
6.89391e-07
6.79233e-07
6.66891e-07
6.52699e-07
6.36928e-07
6.19778e-07
6.01294e-07
5.82117e-07
5.62538e-07
5.4111e-07
5.25676e-07
4.80656e-07
1.36824e-07
1.39376e-07
1.4301e-07
1.48946e-07
1.57299e-07
1.67829e-07
1.80316e-07
1.94577e-07
2.10422e-07
2.27642e-07
2.45998e-07
2.65271e-07
2.8516e-07
3.0533e-07
3.25424e-07
3.45234e-07
3.64458e-07
3.82741e-07
3.997e-07
4.1523e-07
4.27987e-07
4.37705e-07
4.45654e-07
4.51125e-07
4.54064e-07
4.54655e-07
4.53097e-07
4.49523e-07
4.44105e-07
4.37015e-07
4.28459e-07
4.18621e-07
4.07744e-07
3.96014e-07
3.83577e-07
3.70475e-07
3.57114e-07
3.43659e-07
3.2922e-07
3.19017e-07
2.88337e-07
9.38863e-08
9.57375e-08
9.84951e-08
1.02772e-07
1.08646e-07
1.15979e-07
1.24616e-07
1.3441e-07
1.45213e-07
1.56871e-07
1.69204e-07
1.82043e-07
1.95191e-07
2.08399e-07
2.21383e-07
2.3402e-07
2.46122e-07
2.57434e-07
2.67713e-07
2.7689e-07
2.84084e-07
2.89153e-07
2.93017e-07
2.95225e-07
2.95757e-07
2.94771e-07
2.92414e-07
2.88802e-07
2.84055e-07
2.78306e-07
2.71697e-07
2.64365e-07
2.56464e-07
2.48125e-07
2.39439e-07
2.30448e-07
2.21401e-07
2.12376e-07
2.02892e-07
1.96215e-07
1.7577e-07
6.45398e-08
6.59115e-08
6.80345e-08
7.11511e-08
7.53267e-08
8.0488e-08
8.65142e-08
9.32888e-08
1.00706e-07
1.08643e-07
1.16975e-07
1.25566e-07
1.3429e-07
1.4295e-07
1.51355e-07
1.59409e-07
1.67006e-07
1.73981e-07
1.80167e-07
1.85512e-07
1.89459e-07
1.91939e-07
1.936e-07
1.94177e-07
1.9366e-07
1.92167e-07
1.89813e-07
1.8669e-07
1.82888e-07
1.78506e-07
1.73635e-07
1.68372e-07
1.62816e-07
1.57053e-07
1.51146e-07
1.45121e-07
1.39138e-07
1.33207e-07
1.27135e-07
1.22772e-07
1.09494e-07
4.44204e-08
4.54665e-08
4.71085e-08
4.94116e-08
5.24176e-08
5.60862e-08
6.03281e-08
6.50556e-08
7.01851e-08
7.56305e-08
8.12933e-08
8.70784e-08
9.28892e-08
9.85892e-08
1.04049e-07
1.09195e-07
1.13961e-07
1.18252e-07
1.2195e-07
1.25032e-07
1.27137e-07
1.28251e-07
1.28817e-07
1.28676e-07
1.27829e-07
1.2637e-07
1.24379e-07
1.21925e-07
1.19069e-07
1.15877e-07
1.12416e-07
1.0875e-07
1.04945e-07
1.01053e-07
9.71208e-08
9.31597e-08
8.92761e-08
8.54334e-08
8.16338e-08
7.87453e-08
7.03465e-08
3.05913e-08
3.14069e-08
3.26916e-08
3.44109e-08
3.66e-08
3.92362e-08
4.22533e-08
4.55831e-08
4.91648e-08
5.29327e-08
5.68144e-08
6.07391e-08
6.46381e-08
6.8416e-08
7.19853e-08
7.52863e-08
7.82826e-08
8.09172e-08
8.31237e-08
8.48797e-08
8.59571e-08
8.636e-08
8.64038e-08
8.59889e-08
8.51255e-08
8.38793e-08
8.23081e-08
8.04628e-08
7.83893e-08
7.61344e-08
7.37407e-08
7.12488e-08
6.87004e-08
6.61289e-08
6.35651e-08
6.10121e-08
5.85423e-08
5.60939e-08
5.37885e-08
5.183e-08
4.67536e-08
2.10698e-08
2.17188e-08
2.27274e-08
2.40268e-08
2.56392e-08
2.7556e-08
2.97259e-08
3.20977e-08
3.46251e-08
3.72595e-08
3.99475e-08
4.26367e-08
4.52762e-08
4.78053e-08
5.0163e-08
5.23025e-08
5.42069e-08
5.58455e-08
5.71749e-08
5.81838e-08
5.87375e-08
5.88404e-08
5.87098e-08
5.8283e-08
5.75705e-08
5.66195e-08
5.54725e-08
5.41631e-08
5.27224e-08
5.11808e-08
4.95684e-08
4.79124e-08
4.62384e-08
4.45665e-08
4.29202e-08
4.1299e-08
3.97524e-08
3.82067e-08
3.68505e-08
3.54818e-08
3.25434e-08
1.45056e-08
1.50299e-08
1.5827e-08
1.68177e-08
1.80201e-08
1.9431e-08
2.10103e-08
2.272e-08
2.45237e-08
2.63878e-08
2.82702e-08
3.01352e-08
3.19437e-08
3.36566e-08
3.52303e-08
3.66327e-08
3.78524e-08
3.88757e-08
3.96786e-08
4.02511e-08
4.05115e-08
4.04719e-08
4.0282e-08
3.99011e-08
3.93402e-08
3.86344e-08
3.78133e-08
3.68995e-08
3.59154e-08
3.48822e-08
3.38188e-08
3.27431e-08
3.16707e-08
3.06142e-08
2.95884e-08
2.85908e-08
2.76582e-08
2.6712e-08
2.59756e-08
2.49818e-08
2.35242e-08
9.97968e-09
1.04074e-08
1.10389e-08
1.18023e-08
1.27099e-08
1.37595e-08
1.49234e-08
1.61698e-08
1.74738e-08
1.88081e-08
2.01451e-08
2.14555e-08
2.27152e-08
2.38954e-08
2.49711e-08
2.59154e-08
2.67273e-08
2.73978e-08
2.79169e-08
2.82756e-08
2.84293e-08
2.83829e-08
2.82414e-08
2.7976e-08
2.75958e-08
2.71242e-08
2.65825e-08
2.5986e-08
2.53489e-08
2.46853e-08
2.4008e-08
2.33294e-08
2.26582e-08
2.20028e-08
2.13743e-08
2.07702e-08
2.02174e-08
1.96411e-08
1.9269e-08
1.85236e-08
1.79172e-08
6.85954e-09
7.21028e-09
7.71251e-09
8.30533e-09
8.99765e-09
9.78817e-09
1.06546e-08
1.1574e-08
1.25275e-08
1.34952e-08
1.44571e-08
1.53913e-08
1.62806e-08
1.71045e-08
1.78453e-08
1.84845e-08
1.90212e-08
1.94524e-08
1.97745e-08
1.99816e-08
2.00501e-08
1.99877e-08
1.98662e-08
1.96672e-08
1.9399e-08
1.90783e-08
1.87199e-08
1.83338e-08
1.79299e-08
1.7517e-08
1.71031e-08
1.66958e-08
1.63009e-08
1.59226e-08
1.55687e-08
1.52352e-08
1.49455e-08
1.46269e-08
1.45068e-08
1.39264e-08
1.39805e-08
4.71031e-09
4.99838e-09
5.3977e-09
5.86173e-09
6.39447e-09
6.99462e-09
7.64633e-09
8.33148e-09
9.03641e-09
9.74732e-09
1.04497e-08
1.11285e-08
1.17718e-08
1.2368e-08
1.29067e-08
1.33776e-08
1.37781e-08
1.41076e-08
1.4364e-08
1.45437e-08
1.46325e-08
1.46321e-08
1.4592e-08
1.44986e-08
1.43575e-08
1.41808e-08
1.3978e-08
1.37561e-08
1.35216e-08
1.32811e-08
1.30401e-08
1.28041e-08
1.25767e-08
1.23614e-08
1.21645e-08
1.19827e-08
1.18338e-08
1.16561e-08
1.16514e-08
1.12095e-08
1.15001e-08
3.23042e-09
3.46802e-09
3.78697e-09
4.15143e-09
4.56303e-09
5.02061e-09
5.51347e-09
6.02809e-09
6.55459e-09
7.0824e-09
7.60151e-09
8.10041e-09
8.56897e-09
8.99488e-09
9.36878e-09
9.68589e-09
9.94699e-09
1.01551e-08
1.03117e-08
1.04149e-08
1.04593e-08
1.04506e-08
1.04201e-08
1.03591e-08
1.02719e-08
1.01674e-08
1.00521e-08
9.93049e-09
9.80667e-09
9.6846e-09
9.56759e-09
9.45856e-09
9.35955e-09
9.27211e-09
9.20052e-09
9.14079e-09
9.10909e-09
9.04789e-09
9.14931e-09
8.78175e-09
9.41738e-09
2.21537e-09
2.4122e-09
2.66839e-09
2.95675e-09
3.27487e-09
3.62296e-09
3.99413e-09
4.38119e-09
4.77684e-09
5.17399e-09
5.56402e-09
5.94103e-09
6.30117e-09
6.644e-09
6.96506e-09
7.25663e-09
7.51074e-09
7.72706e-09
7.90518e-09
8.04531e-09
8.14338e-09
8.19834e-09
8.23419e-09
8.24381e-09
8.23059e-09
8.20154e-09
8.1611e-09
8.11277e-09
8.05988e-09
8.00593e-09
7.9537e-09
7.90602e-09
7.86466e-09
7.83114e-09
7.80945e-09
7.79773e-09
7.80632e-09
7.79269e-09
7.90558e-09
7.65974e-09
8.21388e-09
1.5267e-09
1.6881e-09
1.89257e-09
2.12e-09
2.36641e-09
2.63101e-09
2.9095e-09
3.19794e-09
3.49323e-09
3.79229e-09
4.08833e-09
4.37161e-09
4.62969e-09
4.85202e-09
5.03555e-09
5.19032e-09
5.32453e-09
5.44098e-09
5.53931e-09
5.6167e-09
5.67219e-09
5.71039e-09
5.74271e-09
5.76401e-09
5.77574e-09
5.78264e-09
5.78737e-09
5.79182e-09
5.79749e-09
5.80628e-09
5.81943e-09
5.83821e-09
5.86335e-09
5.89539e-09
5.93634e-09
5.9834e-09
6.0477e-09
6.08661e-09
6.24813e-09
6.00613e-09
6.82384e-09
1.06125e-09
1.19047e-09
1.3482e-09
1.52114e-09
1.70698e-09
1.90675e-09
2.11784e-09
2.33575e-09
2.55643e-09
2.77821e-09
3.00241e-09
3.2336e-09
3.47677e-09
3.73414e-09
3.99693e-09
4.24149e-09
4.45125e-09
4.62915e-09
4.78082e-09
4.9102e-09
5.01672e-09
5.09716e-09
5.16596e-09
5.21947e-09
5.26032e-09
5.29256e-09
5.31875e-09
5.34087e-09
5.36101e-09
5.38139e-09
5.40399e-09
5.43089e-09
5.46322e-09
5.50234e-09
5.55103e-09
5.60937e-09
5.68171e-09
5.74562e-09
5.88846e-09
5.80867e-09
6.34256e-09
7.36542e-10
8.41743e-10
9.62435e-10
1.08796e-09
1.21857e-09
1.35898e-09
1.51189e-09
1.67718e-09
1.85142e-09
2.0267e-09
2.19083e-09
2.33047e-09
2.43691e-09
2.50931e-09
2.56151e-09
2.62394e-09
2.70872e-09
2.80287e-09
2.89784e-09
2.98751e-09
3.0719e-09
3.15356e-09
3.23377e-09
3.30929e-09
3.38053e-09
3.44953e-09
3.51745e-09
3.58478e-09
3.6521e-09
3.72015e-09
3.78952e-09
3.86062e-09
3.93389e-09
4.00935e-09
4.08812e-09
4.16809e-09
4.25736e-09
4.32538e-09
4.48119e-09
4.3084e-09
5.12942e-09
5.08577e-10
6.04424e-10
7.08948e-10
8.09295e-10
9.02726e-10
9.93469e-10
1.08631e-09
1.18659e-09
1.30082e-09
1.43678e-09
1.60252e-09
1.80467e-09
2.04489e-09
2.31852e-09
2.60489e-09
2.85207e-09
3.03817e-09
3.19163e-09
3.32462e-09
3.44171e-09
3.54062e-09
3.6216e-09
3.69282e-09
3.75282e-09
3.8043e-09
3.85019e-09
3.89259e-09
3.93327e-09
3.97419e-09
4.01741e-09
4.06488e-09
4.11866e-09
4.18004e-09
4.25077e-09
4.33318e-09
4.42949e-09
4.53937e-09
4.65941e-09
4.81796e-09
4.90887e-09
5.30949e-09
3.69691e-10
4.50561e-10
5.38953e-10
6.28324e-10
7.14619e-10
7.95803e-10
8.68607e-10
9.29625e-10
9.77224e-10
1.01209e-09
1.0369e-09
1.05517e-09
1.07117e-09
1.0859e-09
1.10387e-09
1.15172e-09
1.23296e-09
1.32685e-09
1.42675e-09
1.52762e-09
1.62822e-09
1.72867e-09
1.8292e-09
1.92868e-09
2.02632e-09
2.12234e-09
2.21684e-09
2.30961e-09
2.40035e-09
2.4888e-09
2.57466e-09
2.65747e-09
2.73704e-09
2.81259e-09
2.88431e-09
2.95028e-09
3.01572e-09
3.05992e-09
3.15539e-09
3.00856e-09
3.65263e-09
4.40075e-10
5.62781e-10
6.38845e-10
6.59358e-10
6.45813e-10
6.33547e-10
6.54428e-10
7.27601e-10
8.57654e-10
1.03663e-09
1.24839e-09
1.47361e-09
1.69389e-09
1.89851e-09
2.07666e-09
2.18672e-09
2.22798e-09
2.23612e-09
2.23029e-09
2.21841e-09
2.19718e-09
2.18268e-09
2.16372e-09
2.1446e-09
2.12785e-09
2.11426e-09
2.1043e-09
2.09867e-09
2.0981e-09
2.10316e-09
2.11426e-09
2.13183e-09
2.15583e-09
2.18642e-09
2.22418e-09
2.27034e-09
2.3217e-09
2.38133e-09
2.44978e-09
2.50332e-09
2.73021e-09
547.199
352.929
225.494
149.865
96.0861
56.2888
27.1642
8.526
0.802181
0.11764
0.117038
0.000429486
3.19922e-09
2.69829e-05
0.000151037
0.000129488
0.00010881
9.41579e-05
8.50739e-05
7.38536e-05
6.38469e-05
5.29072e-05
4.25705e-05
3.31529e-05
2.50199e-05
1.84117e-05
1.3218e-05
9.35804e-06
6.53217e-06
4.55221e-06
3.16095e-06
2.21791e-06
1.57305e-06
1.13139e-06
8.29506e-07
6.17866e-07
4.66769e-07
3.56827e-07
2.73918e-07
2.1043e-07
1.61601e-07
1.21987e-07
9.02978e-08
6.58113e-08
4.56583e-08
3.09566e-08
1.97123e-08
1.17243e-08
6.91144e-09
4.44775e-09
3.55212e-09
4.26508e-09
5.76981e-09
7.8909e-09
1.02618e-08
1.24553e-08
1.45548e-08
1.62054e-08
1.7419e-08
1.81525e-08
1.835e-08
1.818e-08
1.75521e-08
1.66087e-08
1.54938e-08
1.40817e-08
1.27676e-08
1.12674e-08
9.89027e-09
8.46091e-09
7.32482e-09
5.9837e-09
5.38351e-09
4.25025e-09
326.849
439.17
314.833
214.033
145.819
95.667
55.9062
25.2028
6.51346
0.278316
0.146488
0.0406302
0.000971918
1.00729e-07
8.42295e-05
0.000145946
0.000114855
9.31125e-05
8.10996e-05
6.88606e-05
5.83633e-05
4.79145e-05
3.83214e-05
2.98148e-05
2.25347e-05
1.66826e-05
1.20432e-05
8.57314e-06
6.02488e-06
4.22704e-06
2.94667e-06
2.06796e-06
1.46663e-06
1.04887e-06
7.65507e-07
5.66333e-07
4.24107e-07
3.21702e-07
2.44572e-07
1.86459e-07
1.42536e-07
1.06473e-07
7.84331e-08
5.69093e-08
3.91814e-08
2.66825e-08
1.69033e-08
1.01774e-08
6.23492e-09
4.34949e-09
3.73878e-09
4.55929e-09
6.00666e-09
7.97297e-09
1.01084e-08
1.20643e-08
1.38943e-08
1.53103e-08
1.63197e-08
1.69014e-08
1.69781e-08
1.67568e-08
1.61338e-08
1.51941e-08
1.41549e-08
1.28158e-08
1.16025e-08
1.02357e-08
8.96964e-09
7.65366e-09
6.63977e-09
5.4108e-09
4.89122e-09
3.89972e-09
112.999
309.859
318.068
252.651
189.624
137.734
92.7283
52.6636
21.4867
4.38664
0.0516531
0.122907
0.0101077
4.07648e-05
4.92276e-09
0.000105966
0.000130487
9.83239e-05
7.97208e-05
6.5737e-05
5.39171e-05
4.35218e-05
3.43967e-05
2.66388e-05
2.01443e-05
1.49671e-05
1.09011e-05
7.80589e-06
5.52647e-06
3.89824e-06
2.73348e-06
1.91801e-06
1.35959e-06
9.66649e-07
7.0076e-07
5.14165e-07
3.81272e-07
2.86553e-07
2.15744e-07
1.63356e-07
1.24222e-07
9.20754e-08
6.78536e-08
4.91099e-08
3.40389e-08
2.34499e-08
1.50536e-08
9.62718e-09
6.36443e-09
4.81713e-09
4.41127e-09
5.16356e-09
6.43332e-09
8.11496e-09
9.92538e-09
1.15835e-08
1.30833e-08
1.42249e-08
1.50214e-08
1.54249e-08
1.54324e-08
1.51083e-08
1.45237e-08
1.36408e-08
1.26637e-08
1.14733e-08
1.03219e-08
9.1269e-09
7.99126e-09
6.81679e-09
5.91708e-09
4.82233e-09
4.38958e-09
3.53625e-09
40.7485
179.43
259.075
251.982
213.087
169.935
127.608
85.3495
46.0149
16.798
2.61534
0.0187814
0.0823434
0.0031993
3.79609e-07
8.97071e-08
9.27556e-05
0.00010695
8.09769e-05
6.41975e-05
5.11204e-05
4.04703e-05
3.15498e-05
2.42697e-05
1.83487e-05
1.36729e-05
1.00287e-05
7.2312e-06
5.1541e-06
3.64983e-06
2.56698e-06
1.80034e-06
1.27222e-06
8.98902e-07
6.46211e-07
4.69555e-07
3.44537e-07
2.56283e-07
1.91207e-07
1.43811e-07
1.08648e-07
8.01661e-08
5.92121e-08
4.28341e-08
3.00635e-08
2.09781e-08
1.37896e-08
9.36514e-09
6.60619e-09
5.25062e-09
4.95875e-09
5.57689e-09
6.63782e-09
8.02346e-09
9.51118e-09
1.09038e-08
1.21012e-08
1.30142e-08
1.36251e-08
1.38981e-08
1.38521e-08
1.34893e-08
1.29437e-08
1.21391e-08
1.12427e-08
1.01956e-08
9.14076e-09
8.09573e-09
7.09313e-09
6.05369e-09
5.26718e-09
4.29104e-09
3.94481e-09
3.20719e-09
17.9423
97.4812
183.271
217.598
209.928
184.473
152.658
116.221
76.4014
39.0677
12.7628
1.50753
0.0451093
0.0539136
3.45256e-05
2.4973e-09
1.84304e-06
8.71774e-05
8.63135e-05
6.40369e-05
4.92385e-05
3.83685e-05
2.9591e-05
2.26366e-05
1.71111e-05
1.27891e-05
9.4231e-06
6.83655e-06
4.90073e-06
3.48067e-06
2.44973e-06
1.7155e-06
1.2062e-06
8.46126e-07
6.02403e-07
4.33008e-07
3.14181e-07
2.31157e-07
1.70928e-07
1.27645e-07
9.58773e-08
7.0587e-08
5.22544e-08
3.79405e-08
2.6987e-08
1.91271e-08
1.29562e-08
9.20343e-09
6.80647e-09
5.56737e-09
5.29504e-09
5.74887e-09
6.59029e-09
7.69553e-09
8.88232e-09
1.00403e-08
1.09787e-08
1.17137e-08
1.21706e-08
1.23649e-08
1.22728e-08
1.19344e-08
1.14347e-08
1.07136e-08
9.92087e-09
8.99825e-09
8.0717e-09
7.15824e-09
6.28469e-09
5.36861e-09
4.69434e-09
3.82058e-09
3.55661e-09
2.91551e-09
9.56933
52.788
118.941
167.452
183.723
178.176
161.496
137.056
104.914
67.6397
32.8906
9.70645
0.908756
0.0672087
0.0337066
0.00490768
6.81623e-09
4.97773e-06
7.57396e-05
6.88523e-05
4.89317e-05
3.69114e-05
2.81801e-05
2.14719e-05
1.62629e-05
1.2225e-05
9.06051e-06
6.60911e-06
4.75785e-06
3.38395e-06
2.37861e-06
1.66022e-06
1.16e-06
8.0729e-07
5.6883e-07
4.04235e-07
2.89903e-07
2.10927e-07
1.54596e-07
1.14686e-07
8.5778e-08
6.31507e-08
4.69565e-08
3.43995e-08
2.48679e-08
1.8025e-08
1.26461e-08
9.35805e-09
7.18494e-09
6.00879e-09
5.65706e-09
5.91665e-09
6.51627e-09
7.34631e-09
8.25424e-09
9.16553e-09
9.87912e-09
1.04503e-08
1.07804e-08
1.09095e-08
1.07916e-08
1.04823e-08
1.00362e-08
9.39833e-09
8.70996e-09
7.90586e-09
7.10549e-09
6.31359e-09
5.55897e-09
4.75554e-09
4.1863e-09
3.40436e-09
3.21571e-09
2.65588e-09
6.24367
29.3104
73.5282
117.881
144.987
154.59
152.692
142.418
123.218
94.4916
59.7865
27.9337
7.60091
0.625149
0.0742222
0.021569
0.00324784
1.52496e-08
4.42411e-06
5.92513e-05
5.3043e-05
3.6826e-05
2.73443e-05
2.07541e-05
1.5693e-05
1.18322e-05
8.83537e-06
6.49635e-06
4.70816e-06
3.35896e-06
2.35834e-06
1.63824e-06
1.13536e-06
7.8249e-07
5.44872e-07
3.82552e-07
2.71134e-07
1.95121e-07
1.41833e-07
1.04627e-07
7.80101e-08
5.7555e-08
4.31323e-08
3.20098e-08
2.36137e-08
1.75904e-08
1.28062e-08
9.85407e-09
7.81155e-09
6.6356e-09
6.14742e-09
6.18756e-09
6.53224e-09
7.08633e-09
7.73069e-09
8.3882e-09
8.89827e-09
9.30788e-09
9.5277e-09
9.58985e-09
9.45957e-09
9.16762e-09
8.77409e-09
8.21641e-09
7.62076e-09
6.93045e-09
6.24117e-09
5.5611e-09
4.91399e-09
4.2125e-09
3.73731e-09
3.03796e-09
2.91744e-09
2.42456e-09
4.87255
16.8916
44.3116
77.5243
104.739
121.709
130.169
131.956
126.319
110.951
85.1251
53.2855
24.2897
6.29066
0.530971
0.0732672
0.0153144
0.00263017
1.11182e-08
1.37882e-06
4.11165e-05
4.14638e-05
2.80813e-05
2.05854e-05
1.57161e-05
1.18844e-05
8.84885e-06
6.4936e-06
4.71069e-06
3.36704e-06
2.36589e-06
1.64082e-06
1.13117e-06
7.73304e-07
5.31986e-07
3.68535e-07
2.57768e-07
1.83317e-07
1.32172e-07
9.70181e-08
7.21938e-08
5.34971e-08
4.05144e-08
3.05085e-08
2.30327e-08
1.76382e-08
1.33089e-08
1.05829e-08
8.62348e-09
7.38458e-09
6.74171e-09
6.55471e-09
6.64843e-09
6.92847e-09
7.31819e-09
7.73538e-09
8.05138e-09
8.30718e-09
8.42369e-09
8.42173e-09
8.27748e-09
7.99871e-09
7.65067e-09
7.16806e-09
6.65454e-09
6.06676e-09
5.47577e-09
4.89587e-09
4.34587e-09
3.73595e-09
3.34391e-09
2.71724e-09
2.65819e-09
2.21899e-09
4.20672
10.1714
26.208
48.289
70.1474
87.7796
100.839
110.009
114.615
112.214
99.8173
77.0345
48.241
21.8562
5.6738
0.556285
0.0715426
0.0128202
0.0026431
2.26337e-09
3.22231e-08
2.35758e-05
3.25241e-05
2.19739e-05
1.55543e-05
1.20329e-05
9.2815e-06
6.90926e-06
4.99988e-06
3.53538e-06
2.44938e-06
1.67459e-06
1.1396e-06
7.71372e-07
5.25496e-07
3.60593e-07
2.49705e-07
1.75708e-07
1.25613e-07
9.16614e-08
6.80805e-08
5.07484e-08
3.88836e-08
2.97459e-08
2.30048e-08
1.80796e-08
1.40948e-08
1.1503e-08
9.58376e-09
8.24134e-09
7.43164e-09
7.01729e-09
6.86472e-09
6.87875e-09
7.01912e-09
7.21403e-09
7.34161e-09
7.45064e-09
7.46574e-09
7.40258e-09
7.23838e-09
6.97122e-09
6.65984e-09
6.24288e-09
5.80272e-09
5.30427e-09
4.80137e-09
4.30981e-09
3.84681e-09
3.31871e-09
3.00044e-09
2.4373e-09
2.43348e-09
2.03682e-09
3.51641
6.27273
15.0014
28.4262
43.7247
58.2913
71.3362
82.9989
92.8941
99.3262
99.2281
89.7108
70.1889
44.5354
20.5831
5.65923
0.692312
0.0779371
0.0128533
0.00311624
1.01819e-06