/*--------------------------------*- C++ -*----------------------------------*\
| =========                 |                                                 |
| \\      /  F ield         | OpenFOAM: The Open Source CFD Toolbox           |
|  \\    /   O peration     | Version:  2312                                  |
|   \\  /    A nd           | Website:  www.openfoam.com                      |
|    \\/     M anipulation  |                                                 |
\*---------------------------------------------------------------------------*/
FoamFile
{
    version     2.0;
    format      ascii;
    arch        "LSB;label=32;scalar=64";
    class       volScalarField;
    location    "500";
    object      turbulenceProperties:I;
}
// * * * * * * * * * * * * * * * * * * * * * * * * * * * * * * * * * * * * * //

dimensions      [0 0 0 0 0 0 0];

internalField   nonuniform List<scalar> 
11040
(
0.0586101
0.0915169
1
0.0952385
0.270636
0.287302
0.289184
0.290758
0.287446
0.286596
0.283912
0.281462
0.278825
0.276497
0.274242
0.272612
0.272012
0.272792
0.274532
0.276519
0.27863
0.280758
0.282225
0.282548
0.28208
0.281831
0.281777
0.281542
0.281319
0.281473
0.282551
0.285428
0.291175
0.301705
0.323317
0.348873
0.358981
0.370614
0.555581
0.658721
0.62953
0.0186339
0.0237501
0.0662117
0.335246
0.60786
0.321232
0.171324
0.106289
0.0637329
0.0265083
0.0588282
0.0725333
0.0809479
0.0863577
0.0899238
0.0925126
0.0947394
0.0971254
0.0994021
0.101091
0.102224
0.102894
0.102225
0.0996174
0.0954781
0.0911701
0.0867416
0.081514
0.0752857
0.0681419
0.060596
0.054751
0.0546299
0.0615879
0.0789545
0.108376
0.158502
0.262581
0.632121
0.950013
1
0.0161431
0.0126527
0.0181506
0.0517132
0.300786
1
0.619827
0.330167
0.222456
0.170901
0.129766
0.101235
0.0749303
0.0507784
0.0239614
0.0327312
0.0456287
0.0524457
0.056281
0.0581795
0.0586633
0.0580612
0.0557446
0.0518069
0.0473581
0.0439758
0.0426456
0.0431577
0.0443168
0.0458771
0.0501049
0.0610979
0.0793863
0.103033
0.13493
0.1817
0.258583
0.41009
0.879586
1
0.902649
0.0142836
0.0115266
0.00936883
0.0112491
0.0537835
0.23422
1
1
0.540003
0.35998
0.261978
0.20951
0.171804
0.14324
0.122402
0.105308
0.0932672
0.0842296
0.0783219
0.0750448
0.0737292
0.0741137
0.0762511
0.0794205
0.082553
0.0850294
0.0866289
0.087202
0.0868012
0.0860682
0.0869544
0.0934569
0.109408
0.13635
0.176769
0.23769
0.336554
0.519735
0.984403
1
0.817084
0.0128511
0.0109033
0.010115
0.00669256
0.00715065
0.0463553
0.175963
0.703407
1
0.968099
0.544704
0.384761
0.300137
0.243679
0.208201
0.180517
0.161999
0.14813
0.138665
0.13244
0.128327
0.125771
0.124762
0.124916
0.125381
0.12556
0.125142
0.123861
0.121673
0.11897
0.117267
0.120739
0.135934
0.167111
0.21621
0.289552
0.404277
0.600323
0.996872
1
0.872873
0.0112809
0.00975901
0.00883678
0.00856317
0.00459354
0.00337063
0.0347464
0.125881
0.39425
1
1
0.889667
0.573667
0.419621
0.337872
0.28149
0.246257
0.221098
0.203915
0.192372
0.184352
0.178685
0.174985
0.172795
0.17122
0.169613
0.167549
0.164594
0.160485
0.155274
0.14996
0.148665
0.160852
0.194857
0.251739
0.335164
0.45906
0.650944
0.961717
1
0.963594
0.00975023
0.00875247
0.00786349
0.00756871
0.00723554
0.00320513
0.000523117
0.0216644
0.0853947
0.244376
0.735574
1
1
0.896201
0.60999
0.464693
0.381985
0.327402
0.291971
0.268955
0.253532
0.242996
0.235842
0.23104
0.227306
0.223779
0.219867
0.214956
0.208506
0.200205
0.190305
0.181836
0.185835
0.218096
0.280573
0.371064
0.49702
0.671564
0.90362
1
1
0.00839277
0.00773287
0.00719526
0.00664482
0.00652383
0.00636761
0.0016621
0.00010541
0.0107139
0.0536599
0.152174
0.387081
1
1
1
0.951283
0.666636
0.522691
0.438376
0.385291
0.35173
0.330847
0.317249
0.308186
0.301281
0.295078
0.288668
0.281181
0.271701
0.25957
0.244183
0.226425
0.214856
0.234562
0.298029
0.392691
0.514929
0.665051
0.833558
1
0.96525
0.00721351
0.00675494
0.00640604
0.00606189
0.00566151
0.00572284
0.0054194
0.00223749
0.00154172
0.00133393
0.0290315
0.0910331
0.22381
0.534553
1
1
1
1
0.753668
0.602808
0.5173
0.468186
0.438623
0.419877
0.406613
0.395443
0.384572
0.372808
0.359014
0.341921
0.32008
0.291987
0.259323
0.244898
0.295731
0.393137
0.509705
0.635138
0.756069
0.881379
0.873435
0.00618395
0.00586313
0.00562617
0.00541773
0.00517535
0.00489394
0.0049681
0.00461591
0.00277518
0.000797997
0.00312737
0.0131529
0.0505445
0.129696
0.290338
0.655107
1
1
1
1
0.893809
0.736156
0.652557
0.603624
0.572304
0.549493
0.530078
0.510723
0.489345
0.464323
0.433744
0.394484
0.342076
0.275766
0.257642
0.358008
0.476313
0.584495
0.673245
0.748011
0.761283
0.0052939
0.00506749
0.0049055
0.0047692
0.00463539
0.00445813
0.00427783
0.00425995
0.00418246
0.00296017
0.00073746
0.00145577
0.000566893
0.0230135
0.070276
0.161834
0.338149
0.715978
1
1
1
1
1
0.99741
0.890904
0.823894
0.776297
0.737306
0.701015
0.663155
0.619737
0.566259
0.49683
0.401538
0.255951
0.230005
0.400144
0.511462
0.584111
0.630242
0.645237
0.0045267
0.00436628
0.00425112
0.00416427
0.00408203
0.00399301
0.00387354
0.00374003
0.00369022
0.00369275
0.00303272
0.000819588
0.000350029
0.00272009
0.0068232
0.0326801
0.0853253
0.181864
0.358488
0.708678
1
1
1
1
1
1
1
1
1
1
0.959948
0.881539
0.789613
0.677246
0.539432
0.385257
0.346706
0.43828
0.499717
0.525981
0.532698
0.00386726
0.00375336
0.00367018
0.00361303
0.00356605
0.00351673
0.00345914
0.0033825
0.00328366
0.00322758
0.0032316
0.00298188
0.00163669
0.000497077
0.000767076
0.00398322
0.0116611
0.0393204
0.0930012
0.187187
0.351016
0.6367
1
1
1
1
1
1
1
1
1
1
1
1
1
0.891424
0.730432
0.627269
0.568879
0.522432
0.476865
0.003301
0.00322039
0.00315942
0.00312122
0.00309566
0.00307203
0.00304426
0.00301003
0.00296218
0.0028962
0.00283758
0.00284992
0.00275451
0.00228221
0.00011622
0.000137688
0.00151676
0.00486439
0.0128919
0.0408984
0.0919354
0.173835
0.296598
0.479093
0.74026
1
1
1
1
1
1
1
1
1
1
1
1
1
1
0.838862
0.686037
0.00281469
0.00275812
0.00271308
0.00268743
0.00267477
0.0026666
0.00265782
0.00264539
0.00262771
0.00260099
0.00255925
0.00251626
0.00249882
0.0025064
0.00230601
0.00111311
0.000388177
6.86473e-05
0.00176429
0.00497398
0.012287
0.0362564
0.0746835
0.131204
0.210066
0.317099
0.458428
0.63461
0.834691
1
1
1
1
1
1
1
1
1
1
1
1
0.00239707
0.00235762
0.00232423
0.00230707
0.00230231
0.00230301
0.00230511
0.00230639
0.00230483
0.00229878
0.00228663
0.00226396
0.00223542
0.00220792
0.00224474
0.00213558
0.00186774
0.000663196
0.000278481
2.86725e-05
0.00184197
0.0041196
0.00690391
0.0220704
0.0459482
0.0801175
0.126121
0.185811
0.261235
0.354
0.463701
0.586944
0.719125
0.858599
1
1
1
1
1
1
1
0.00204134
0.00201387
0.00198927
0.00197805
0.001978
0.00198345
0.00199128
0.00199978
0.00200743
0.00201267
0.00201441
0.00201161
0.00200321
0.00198472
0.00197268
0.00197052
0.00197612
0.00184424
0.00156317
0.000286573
0.000189304
1.82224e-05
0.000918107
0.00290256
0.00483644
0.0074801
0.0191401
0.0365602
0.0605819
0.0917862
0.131004
0.17898
0.236255
0.303161
0.37944
0.464165
0.557073
0.660503
0.779269
0.923345
1
0.0017491
0.00172999
0.00171205
0.00170528
0.00170825
0.00171636
0.00172712
0.00173928
0.00175153
0.00176269
0.00177176
0.00177802
0.00178102
0.00177998
0.00177312
0.0017651
0.00175956
0.00176608
0.00177201
0.00162855
0.00128
0.000184217
0.000156832
4.67678e-05
0
0.00103507
0.00266226
0.00352608
0.00156151
0.00800241
0.0182455
0.0325722
0.0513829
0.0751604
0.10429
0.138873
0.178894
0.224596
0.275849
0.333139
0.395018
0.00151511
0.0015018
0.00148871
0.00148507
0.00148989
0.0014994
0.00151163
0.00152564
0.00154041
0.00155484
0.00156806
0.00157941
0.00158835
0.00159472
0.00159794
0.0015982
0.00159419
0.00159093
0.00159193
0.00160977
0.0015959
0.00144507
0.00119498
0.000474672
0.000204495
9.35209e-05
3.1142e-05
0
0.000156819
0.00105922
0.00252555
0.00311717
0.003749
0.00230554
0.00947222
0.0189139
0.0313955
0.0470621
0.066007
0.088326
0.113638
0.00132618
0.00131678
0.00130715
0.00130561
0.00131141
0.00132142
0.00133407
0.0013486
0.00136422
0.00138002
0.00139527
0.00140946
0.00142207
0.00143272
0.00144117
0.00144741
0.00145125
0.00145244
0.00145062
0.00145323
0.0014619
0.00147248
0.00145974
0.00137647
0.00120097
0.000958313
0.000336395
0.000164869
8.49748e-05
6.13913e-05
1.03924e-05
0
0
0.0002114
0.00140469
0.00272017
0.00319845
0.00233998
0.000617439
0.00432044
0.0105976
0.00116993
0.00116322
0.00115613
0.00115604
0.00116231
0.00117237
0.00118491
0.00119932
0.00121492
0.00123098
0.0012469
0.00126223
0.00127658
0.00128961
0.00130105
0.00131075
0.0013187
0.00132489
0.00132905
0.00133151
0.00133313
0.0013386
0.00134592
0.0013597
0.00135522
0.00133378
0.00125857
0.00112025
0.000938449
0.000700815
0.000124753
0.000110669
7.44444e-05
5.95258e-05
3.87835e-05
1.30767e-06
0
0
8.18771e-05
0.0005821
0.00180457
0.00103855
0.00103376
0.00102861
0.00102953
0.00103598
0.00104581
0.00105796
0.00107189
0.00108702
0.00110276
0.00111857
0.00113407
0.00114897
0.00116297
0.00117583
0.00118741
0.0011976
0.00120641
0.00121384
0.00122007
0.00122449
0.00122797
0.00123138
0.0012376
0.00124726
0.00125697
0.00127027
0.00127143
0.00125636
0.00122763
0.00115704
0.00105028
0.000913918
0.000748368
0.000505189
1.78237e-05
7.65718e-05
6.51321e-05
5.56231e-05
4.45559e-05
3.24412e-05
0.000926539
0.000923125
0.000919474
0.000921082
0.000927513
0.000936953
0.000948544
0.00096179
0.000976199
0.000991258
0.00100651
0.00102165
0.00103641
0.00105054
0.00106383
0.00107614
0.00108739
0.00109752
0.00110652
0.00111458
0.00112126
0.00112672
0.00113161
0.00113569
0.00114018
0.00114537
0.00115292
0.00116294
0.00117383
0.00118435
0.00119642
0.00119952
0.00119218
0.00117537
0.00114526
0.00108793
0.00101147
0.000912181
0.000798227
0.000656481
0.000494208
0.000829978
0.00082758
0.000825099
0.00082718
0.000833456
0.000842424
0.000853362
0.000865822
0.000879376
0.000893563
0.000908026
0.000922468
0.000936646
0.000950364
0.00096345
0.000975761
0.000987225
0.000997777
0.00100738
0.00101619
0.00102375
0.00103018
0.00103611
0.00104123
0.00104569
0.00104977
0.00105362
0.00105773
0.00106255
0.00106824
0.00107555
0.00108415
0.00109337
0.00110215
0.00111105
0.00111992
0.00112368
0.00112197
0.00111462
0.00110013
0.00108143
0.000745968
0.000744323
0.000742752
0.000745147
0.000751187
0.000759642
0.000769881
0.000781511
0.000794136
0.000807363
0.000820886
0.000834429
0.000847774
0.00086077
0.000873257
0.000885112
0.000896251
0.000906618
0.000916157
0.000925003
0.00093268
0.000939247
0.000945276
0.000950523
0.000955062
0.000959052
0.000962563
0.000965627
0.000968323
0.00097075
0.000973023
0.000975345
0.000977936
0.000980877
0.000984246
0.000988118
0.000992433
0.000997143
0.00100169
0.00100678
0.00100756
0.00067231
0.000671238
0.000670387
0.00067298
0.000678741
0.000686671
0.000696206
0.000706997
0.000718677
0.000730913
0.000743423
0.00075597
0.000768359
0.000780447
0.000792096
0.000803206
0.000813684
0.00082348
0.000832522
0.00084093
0.000848224
0.000854433
0.000860083
0.000864922
0.000869007
0.000872469
0.000875387
0.000877795
0.000879725
0.000881199
0.000882227
0.000882822
0.000883028
0.000882896
0.000882445
0.00088164
0.00088064
0.000879573
0.000878134
0.000877814
0.000871954
0.000607323
0.00060667
0.0006064
0.000609117
0.000614586
0.000621991
0.00063084
0.000640806
0.000651557
0.000662802
0.000674283
0.000685801
0.000697184
0.000708266
0.000718953
0.000729155
0.000738784
0.000747782
0.00075608
0.000763772
0.000770396
0.000775959
0.000780963
0.000785158
0.000788575
0.000791319
0.000793459
0.000795038
0.000796084
0.000796629
0.0007967
0.000796309
0.000795486
0.000794261
0.000792622
0.000790517
0.000788061
0.000785309
0.000781878
0.000779393
0.000770621
0.000549651
0.000549334
0.000549539
0.00055232
0.000557499
0.0005644
0.000572595
0.00058177
0.00059163
0.000601909
0.000612381
0.000622879
0.000633233
0.000643273
0.000652943
0.000662157
0.000670836
0.000678915
0.000686331
0.000693156
0.000698947
0.000703707
0.000707915
0.000711334
0.000713979
0.000715948
0.00071729
0.000718043
0.000718235
0.000717902
0.000717071
0.000715769
0.000714032
0.000711894
0.000709361
0.000706398
0.000703129
0.000699606
0.000695429
0.000692365
0.000682361
0.000498235
0.000498178
0.000498781
0.000501602
0.000506504
0.000512936
0.000520519
0.00052895
0.000537969
0.000547331
0.000556841
0.000566345
0.000575683
0.000584707
0.00059336
0.000601571
0.000609274
0.000616397
0.000622877
0.000628775
0.000633674
0.000637573
0.000640941
0.000643552
0.00064541
0.0006466
0.000647182
0.000647187
0.000646641
0.000645578
0.000644027
0.000642017
0.000639589
0.000636773
0.000633578
0.000629976
0.000626093
0.00062198
0.000617235
0.00061377
0.000602694
0.000452196
0.000452373
0.000453306
0.000456154
0.000460807
0.000466811
0.000473825
0.000481568
0.000489802
0.00049831
0.000506912
0.000515475
0.000523848
0.00053191
0.000539581
0.000546818
0.000553559
0.000559743
0.000565305
0.000570294
0.00057432
0.000577389
0.000579949
0.000581796
0.000582933
0.000583429
0.000583337
0.000582694
0.000581529
0.000579872
0.000577756
0.000575206
0.000572268
0.000568972
0.000565334
0.000561336
0.000557098
0.000552668
0.00054766
0.000544051
0.000532374
0.000410836
0.000411212
0.000412442
0.000415318
0.000419743
0.000425362
0.000431857
0.000438972
0.000446483
0.000454202
0.000461962
0.000469643
0.000477119
0.000484276
0.000491021
0.000497333
0.000503163
0.000508454
0.000513147
0.000517276
0.00052049
0.000522794
0.000524621
0.000525781
0.000526278
0.000526173
0.000525521
0.000524349
0.000522692
0.000520579
0.000518047
0.000515127
0.000511863
0.00050829
0.000504426
0.000500258
0.000495899
0.000491388
0.000486383
0.00048281
0.000471021
0.000373561
0.000374131
0.000375619
0.000378523
0.000382759
0.000388037
0.000394071
0.00040062
0.000407479
0.000414481
0.000421474
0.000428348
0.000435
0.000441324
0.000447219
0.00045268
0.000457673
0.000462139
0.000466029
0.000469372
0.000471852
0.000473474
0.000474653
0.000475219
0.000475174
0.000474579
0.000473486
0.000471927
0.000469931
0.000467531
0.000464762
0.000461656
0.000458256
0.000454594
0.000450691
0.000446542
0.000442247
0.000437832
0.00043303
0.000429591
0.000418123
0.000339874
0.000340631
0.000342369
0.000345306
0.000349387
0.000354376
0.000360006
0.00036605
0.00037233
0.000378686
0.000384992
0.00039114
0.000397051
0.000402616
0.00040775
0.000412445
0.000416684
0.000420418
0.0004236
0.000426246
0.000428086
0.000429127
0.000429758
0.000429837
0.00042936
0.000428386
0.000426966
0.000425135
0.000422924
0.000420367
0.000417495
0.00041434
0.000410944
0.000407337
0.000403544
0.000399562
0.000395488
0.000391319
0.000386901
0.000383654
0.000372967
0.000309362
0.000310317
0.00031228
0.00031527
0.000319233
0.000323977
0.000329254
0.000334858
0.000340623
0.000346412
0.000352105
0.000357611
0.000362857
0.000367748
0.000372211
0.000376235
0.00037981
0.000382906
0.000385472
0.00038753
0.000388839
0.000389421
0.000389628
0.000389341
0.000388557
0.000387337
0.000385726
0.000383763
0.000381473
0.000378889
0.000376045
0.000372973
0.000369712
0.000366292
0.00036274
0.000359054
0.000355328
0.000351521
0.000347629
0.000344593
0.000335109
0.000281665
0.000282828
0.000285018
0.000288067
0.000291943
0.000296484
0.000301463
0.000306686
0.000312006
0.0003173
0.00032246
0.000327404
0.000332069
0.000336374
0.000340258
0.000343699
0.000346702
0.000349246
0.000351297
0.000352864
0.000353739
0.000353949
0.000353825
0.000353263
0.000352266
0.000350888
0.000349176
0.000347166
0.000344889
0.000342378
0.000339665
0.00033678
0.000333758
0.000330627
0.000327419
0.00032413
0.000320851
0.000317497
0.000314241
0.000311395
0.000303543
0.000256483
0.000257868
0.00026027
0.000263398
0.000267216
0.000271597
0.000276328
0.000281231
0.000286171
0.000291039
0.00029574
0.000300201
0.000304366
0.000308172
0.000311566
0.000314522
0.000317057
0.000319161
0.000320804
0.000321998
0.000322575
0.00032256
0.000322251
0.000321558
0.000320487
0.000319092
0.000317418
0.000315498
0.000313362
0.00031104
0.000308565
0.000305968
0.000303279
0.000300524
0.000297739
0.000294919
0.000292154
0.000289309
0.000286747
0.000284084
0.000278061
0.00023355
0.000235171
0.000237788
0.000241003
0.000244793
0.000249057
0.000253588
0.000258224
0.000262843
0.000267352
0.000271661
0.000275713
0.000279454
0.000282838
0.000285818
0.00028837
0.000290511
0.000292245
0.000293555
0.000294442
0.000294772
0.000294578
0.000294131
0.000293351
0.000292249
0.000290879
0.000289284
0.000287494
0.000285542
0.000283459
0.000281273
0.000279016
0.000276713
0.000274391
0.000272082
0.00026978
0.000267576
0.000265283
0.000263462
0.00026093
0.000257076
0.000212651
0.000214521
0.000217346
0.000220666
0.000224459
0.000228633
0.000233008
0.000237423
0.000241776
0.000245979
0.000249964
0.000253672
0.000257068
0.000260112
0.000262774
0.000265023
0.000266891
0.000268383
0.000269496
0.000270226
0.000270479
0.000270272
0.000269854
0.000269152
0.000268179
0.000266984
0.000265609
0.000264084
0.000262434
0.000260691
0.00025888
0.000257032
0.000255169
0.000253312
0.000251494
0.000249711
0.000248049
0.000246278
0.000245123
0.000242734
0.000240751
0.000193592
0.000195724
0.000198758
0.000202193
0.00020601
0.00021013
0.000214377
0.00021861
0.000222738
0.000226687
0.0002304
0.000233823
0.000236929
0.000239684
0.000242063
0.000244042
0.000245648
0.000246897
0.000247795
0.000248337
0.00024846
0.00024819
0.000247748
0.000247073
0.000246183
0.000245125
0.000243938
0.00024265
0.000241288
0.000239877
0.000238442
0.000237008
0.000235595
0.000234219
0.000232912
0.000231663
0.000230563
0.000229334
0.000228874
0.000226561
0.000226802
0.000176212
0.000178611
0.000181847
0.000185411
0.000189269
0.000193348
0.000197494
0.000201574
0.000205513
0.000209251
0.000212742
0.000215944
0.000218838
0.000221406
0.000223639
0.000225522
0.000227074
0.000228313
0.000229249
0.000229878
0.000230155
0.000230091
0.00022988
0.000229467
0.00022887
0.000228132
0.000227288
0.000226361
0.000225375
0.000224356
0.000223324
0.000222303
0.000221308
0.000220355
0.000219475
0.000218655
0.000217978
0.000217163
0.00021715
0.000215068
0.000216466
0.000160353
0.00016304
0.000166485
0.000170176
0.000174071
0.000178108
0.000182159
0.000186105
0.000189883
0.000193443
0.000196748
0.000199762
0.00020246
0.000204809
0.000206793
0.000208419
0.000209717
0.000210721
0.000211455
0.000211916
0.000212085
0.000211991
0.000211795
0.000211449
0.000210972
0.000210409
0.00020979
0.000209135
0.000208467
0.000207805
0.000207167
0.000206569
0.000206023
0.000205538
0.00020514
0.000204807
0.000204632
0.000204291
0.000204866
0.00020278
0.000206366
0.000145929
0.000148928
0.000152594
0.000156419
0.000160329
0.000164293
0.000168214
0.000172018
0.000175649
0.00017907
0.000182236
0.000185137
0.000187778
0.000190184
0.000192351
0.00019425
0.000195853
0.000197179
0.000198243
0.000199061
0.000199616
0.000199909
0.00020009
0.000200117
0.000200009
0.00019981
0.000199543
0.000199231
0.000198893
0.000198549
0.000198216
0.000197913
0.000197649
0.000197436
0.000197299
0.000197225
0.000197282
0.000197199
0.000197914
0.000196361
0.000199831
0.000132972
0.000136252
0.000140097
0.000144021
0.000147927
0.000151792
0.000155553
0.000159169
0.000162622
0.0001659
0.000168955
0.000171722
0.000174121
0.0001761
0.000177673
0.00017896
0.00018005
0.000180975
0.000181742
0.000182333
0.000182746
0.000183022
0.000183253
0.000183399
0.000183472
0.000183508
0.00018353
0.000183552
0.000183586
0.000183646
0.000183742
0.000183883
0.000184075
0.000184322
0.000184638
0.000185001
0.000185495
0.000185792
0.000187014
0.000185176
0.000191187
0.000121434
0.000124899
0.000128768
0.000132632
0.000136428
0.000140174
0.00014382
0.000147305
0.000150589
0.00015368
0.00015662
0.000159484
0.000162338
0.000165202
0.000167977
0.000170435
0.000172453
0.000174105
0.000175472
0.000176609
0.000177526
0.000178204
0.000178775
0.000179213
0.000179543
0.000179799
0.000180006
0.00018018
0.000180339
0.000180501
0.000180684
0.000180903
0.000181167
0.000181488
0.000181887
0.000182364
0.00018295
0.000183464
0.000184597
0.000183972
0.000188069
0.000110859
0.000114572
0.000118421
0.000122048
0.000125497
0.000128905
0.000132327
0.000135745
0.000139082
0.000142207
0.000144949
0.000147157
0.000148764
0.000149817
0.000150556
0.000151435
0.000152616
0.0001539
0.000155164
0.000156328
0.000157401
0.000158419
0.000159401
0.000160308
0.00016115
0.000161953
0.000162733
0.000163496
0.000164248
0.000164999
0.000165755
0.00016652
0.000167298
0.000168089
0.000168904
0.00016972
0.000170618
0.000171293
0.000172813
0.00017112
0.000178748
0.000101088
0.000105518
0.000109773
0.000113425
0.000116521
0.000119299
0.000121949
0.000124628
0.000127484
0.000130652
0.000134229
0.000138237
0.000142585
0.000147093
0.000151399
0.000154831
0.000157261
0.000159179
0.000160784
0.000162156
0.000163287
0.000164193
0.000164976
0.000165627
0.000166178
0.000166666
0.000167112
0.000167539
0.000167966
0.000168414
0.000168905
0.000169458
0.000170084
0.000170797
0.000171619
0.000172566
0.000173627
0.000174767
0.000176238
0.000177067
0.00018058
9.33757e-05
9.80989e-05
0.000102572
0.000106554
0.000110005
0.000112968
0.000115432
0.000117373
0.000118817
0.000119836
0.000120542
0.000121052
0.000121496
0.000121904
0.0001224
0.000123703
0.000125825
0.00012815
0.000130491
0.000132731
0.000134858
0.000136884
0.000138824
0.000140665
0.000142404
0.000144054
0.000145623
0.000147114
0.00014853
0.000149872
0.00015114
0.000152334
0.000153454
0.000154496
0.000155465
0.00015634
0.000157195
0.000157762
0.000158974
0.000157087
0.00016489
9.75485e-05
0.000103735
0.00010707
0.000107909
0.000107336
0.000106804
0.000107652
0.000110519
0.000115131
0.000120691
0.000126404
0.000131726
0.000136366
0.000140282
0.000143434
0.000145271
0.000145927
0.00014604
0.000145927
0.000145717
0.000145354
0.000145102
0.000144776
0.000144446
0.000144155
0.000143918
0.000143742
0.00014364
0.000143626
0.000143709
0.000143895
0.00014419
0.000144591
0.0001451
0.00014572
0.000146469
0.000147289
0.000148225
0.000149278
0.000150086
0.000153376
0.447128
0.343867
0.31367
0.291977
0.26287
0.224232
0.177127
0.122714
0.0612121
0.0319426
0.0221553
0.00248941
0.000171356
0.00129761
0.001984
0.00193864
0.00188563
0.00184837
0.00183115
0.00179486
0.00175583
0.00169745
0.0016268
0.00154418
0.00145219
0.0013552
0.00125531
0.00115745
0.00106239
0.000973923
0.000891429
0.000817604
0.000751574
0.000693066
0.000642004
0.000596933
0.000556899
0.000521021
0.00048791
0.000456942
0.000427865
0.000398896
0.000370037
0.000341914
0.000312039
0.000283117
0.000252865
0.000222007
0.000194466
0.000174108
0.000164516
0.000172124
0.000185524
0.0002005
0.000213965
0.000224419
0.000233151
0.000239306
0.000243463
0.000245778
0.00024623
0.000245443
0.000243084
0.000239539
0.000235211
0.000229463
0.000223725
0.000216666
0.000209556
0.000201374
0.00019412
0.000184382
0.000179537
0.000168958
0.793655
0.537098
0.434497
0.377587
0.331634
0.284624
0.233076
0.176114
0.114117
0.0457658
0.0310893
0.0138145
0.00314896
0.000370487
0.00171497
0.00199729
0.00191168
0.00184424
0.00181103
0.00176586
0.00171924
0.00165838
0.001587
0.00150597
0.00141668
0.00132389
0.00122787
0.00113355
0.00104209
0.000956808
0.000876538
0.000803915
0.000738934
0.000680401
0.000629525
0.000584314
0.000543916
0.00050787
0.000474432
0.000443462
0.000414757
0.000385653
0.00035731
0.000329778
0.000300379
0.000272831
0.000243357
0.000214308
0.000189531
0.000173142
0.000166635
0.000175013
0.000187387
0.000201002
0.000213138
0.000222607
0.000230425
0.00023589
0.000239483
0.000241381
0.000241442
0.00024044
0.000237964
0.000234214
0.000229904
0.000224071
0.000218388
0.000211479
0.000204455
0.000196347
0.000189375
0.000179767
0.000175253
0.000165331
1
0.749919
0.574888
0.478994
0.412092
0.353698
0.295663
0.234761
0.170375
0.102805
0.0291297
0.0270669
0.00741672
0.00143035
0.000191211
0.00184021
0.00197388
0.00187031
0.0018047
0.00174747
0.00168782
0.00162143
0.0015471
0.0014664
0.00137953
0.00129021
0.00119914
0.00110851
0.00102083
0.000938438
0.000860884
0.00078945
0.000725491
0.000667004
0.000616058
0.000570609
0.000529834
0.000493566
0.000459937
0.000429164
0.000400848
0.000371989
0.000344674
0.000317908
0.000290044
0.000264199
0.000236433
0.000211367
0.000190517
0.000177622
0.000173668
0.000180537
0.000190618
0.000201874
0.000212143
0.000220325
0.000226951
0.000231554
0.000234527
0.00023588
0.000235699
0.000234243
0.000231739
0.000227932
0.000223543
0.000217907
0.000212047
0.000205458
0.000198594
0.000190705
0.000183961
0.000174632
0.000170545
0.000161307
1
1
0.751223
0.604183
0.50881
0.433627
0.365513
0.29856
0.230541
0.161075
0.0897001
0.0217866
0.022119
0.0047
0.000503815
0.000368693
0.00180953
0.0019104
0.00181284
0.00173886
0.00166765
0.0015946
0.00151644
0.00143494
0.00134979
0.0012632
0.00117596
0.00108882
0.00100425
0.000923982
0.00084816
0.000777612
0.000713996
0.000655364
0.000604004
0.000558059
0.000516793
0.000480158
0.000446411
0.000415835
0.000387755
0.000359418
0.000333207
0.000307285
0.000281224
0.000256979
0.00023133
0.00020993
0.00019231
0.000181494
0.000178821
0.00018404
0.000192103
0.000201284
0.000209871
0.000216991
0.000222533
0.000226423
0.000228834
0.000229767
0.000229371
0.00022765
0.000225112
0.000221332
0.00021694
0.000211522
0.000205656
0.000199348
0.000192721
0.00018509
0.000178652
0.000169578
0.000166021
0.000157388
1
1
0.995931
0.76835
0.631117
0.531319
0.448025
0.371627
0.297703
0.224489
0.151275
0.077496
0.026072
0.0182972
0.00139132
0.00016662
0.000732149
0.00181306
0.00184295
0.00173923
0.00165406
0.0015758
0.00149476
0.00141253
0.00132861
0.00124422
0.00115946
0.00107506
0.000992828
0.000914027
0.000839062
0.000768891
0.000705035
0.000645918
0.000593815
0.000547129
0.00050523
0.000468111
0.000434224
0.000403749
0.000375927
0.000348252
0.000323027
0.000298164
0.000273781
0.000251147
0.000227777
0.000209034
0.000193761
0.000184175
0.000181777
0.000185436
0.000191746
0.000199178
0.000206289
0.000212533
0.000217149
0.000220504
0.000222425
0.000223106
0.000222488
0.000220738
0.000218195
0.000214479
0.000210215
0.000204972
0.000199316
0.000193266
0.000186939
0.000179579
0.000173549
0.000164694
0.000161749
0.000153653
1
1
1
1
0.796635
0.657871
0.550777
0.459243
0.375532
0.295861
0.218497
0.142323
0.0677731
0.0278522
0.01504
0.0062178
0.000210737
0.000927193
0.00178241
0.0017728
0.00165342
0.00156289
0.00147909
0.00139647
0.00131418
0.00123239
0.00115
0.00106757
0.000986807
0.000908662
0.000833746
0.000763291
0.000698718
0.0006388
0.000585705
0.000538082
0.0004954
0.000457701
0.000423613
0.000393215
0.000365719
0.000338782
0.000314582
0.000291008
0.000268287
0.000247483
0.000226427
0.000209924
0.000196411
0.000187726
0.000184807
0.000186768
0.000191194
0.000196862
0.00020252
0.000207718
0.000211464
0.000214266
0.000215742
0.000216188
0.000215404
0.000213648
0.000211148
0.000207524
0.000203439
0.000198403
0.000193021
0.000187254
0.000181254
0.000174182
0.000168618
0.000159983
0.000157698
0.000150085
1
1
1
1
1
0.835117
0.687694
0.57078
0.470459
0.379669
0.294773
0.213844
0.135309
0.0615676
0.027939
0.0126721
0.00545784
0.000255168
0.00091434
0.00170674
0.00168962
0.00156441
0.00147059
0.00138733
0.00130507
0.0012247
0.00114485
0.00106476
0.000985697
0.000908186
0.00083293
0.000761517
0.000695578
0.000634308
0.000579811
0.000531014
0.000487419
0.000449071
0.000414746
0.000384427
0.000357252
0.000331105
0.000308046
0.000285877
0.000264885
0.000246015
0.000227167
0.000212671
0.000200572
0.000192447
0.000188688
0.000188865
0.000191301
0.000195082
0.000199209
0.000203141
0.000205978
0.00020812
0.000209146
0.000209292
0.000208384
0.000206567
0.000204128
0.000200624
0.000196714
0.000191936
0.000186823
0.000181368
0.000175715
0.000168948
0.000163871
0.000155464
0.000153881
0.000146679
1
1
1
1
1
1
0.88789
0.724708
0.594684
0.484119
0.385801
0.295827
0.211592
0.131168
0.0594748
0.0277464
0.011402
0.0052872
0.00024076
0.000711681
0.0015851
0.00161512
0.0014835
0.00138749
0.00130855
0.00122884
0.00114772
0.00106669
0.000987514
0.000910099
0.00083469
0.000762684
0.000695622
0.000632975
0.000576774
0.000526413
0.00048156
0.000442329
0.000407665
0.000377378
0.000350514
0.000325203
0.000303339
0.000282528
0.000263292
0.000246222
0.000229395
0.000216521
0.000205607
0.00019767
0.000193094
0.000191604
0.000192138
0.000193974
0.000196479
0.000199046
0.000200866
0.000202255
0.000202771
0.000202569
0.000201506
0.000199602
0.000197215
0.000193853
0.000190119
0.000185616
0.000180774
0.000175646
0.000170366
0.00016392
0.000159348
0.00015116
0.000150317
0.000143441
0.960742
1
1
1
1
1
1
0.962768
0.774047
0.625776
0.502449
0.395637
0.30027
0.212697
0.130984
0.0613255
0.0281248
0.0112649
0.00569873
0.000171034
0.000311194
0.00140352
0.00154366
0.00141422
0.00130842
0.00123583
0.00116453
0.00108605
0.00100455
0.00092303
0.000843315
0.000767606
0.00069769
0.000633172
0.000575467
0.000523917
0.000478038
0.000437897
0.000402696
0.000372208
0.000345534
0.000321043
0.000300323
0.000280814
0.000263268
0.000247793
0.000232743
0.000221107
0.000211125
0.000203182
0.000197861
0.000194899
0.000193677
0.000193614
0.000194425
0.000195584
0.000196261
0.0001968
0.000196712
0.000196108
0.000194826
0.000192822
0.000190456
0.000187233
0.000183681
0.00017945
0.000174895
0.000170102
0.000165216
0.000159108
0.000155059
0.00014708
0.000147009
0.000140377
0.80164
1
1
1
1
1
1
1
1
0.8429
0.668216
0.528186
0.410995
0.309394
0.218385
0.135655
0.0670745
0.0300667
0.0122936
0.00669705
0.00067437
0.000360469
0.000988727
0.00144978
0.00138081
0.00124447
0.00115107
0.00108194
0.00101424
0.000941302
0.00086418
0.000786532
0.000711892
0.000641898
0.000579112
0.000523919
0.00047596
0.000434843
0.000399402
0.000368977
0.000342588
0.000318848
0.000299028
0.000280698
0.000264677
0.000250607
0.000237144
0.000226422
0.000217178
0.000209143
0.000203211
0.000198894
0.000196116
0.000194219
0.000193349
0.00019299
0.000192456
0.000191988
0.000191181
0.00019006
0.000188464
0.000186309
0.000183921
0.000180796
0.000177417
0.000173454
0.000169198
0.00016474
0.000160256
0.000154494
0.000150991
0.000143215
0.000143943
0.000137482
0.658242
0.775625
1
1
1
1
1
1
1
1
0.943819
0.728597
0.565025
0.434186
0.324899
0.229961
0.146104
0.0773337
0.0350384
0.0147289
0.00324405
0.00137633
0.000237951
0.000550409
0.00122202
0.00136763
0.00125612
0.00111542