/*--------------------------------*- C++ -*----------------------------------*\
| =========                 |                                                 |
| \\      /  F ield         | OpenFOAM: The Open Source CFD Toolbox           |
|  \\    /   O peration     | Version:  2312                                  |
|   \\  /    A nd           | Website:  www.openfoam.com                      |
|    \\/     M anipulation  |                                                 |
\*---------------------------------------------------------------------------*/
FoamFile
{
    version     2.0;
    format      ascii;
    arch        "LSB;label=32;scalar=64";
    class       volSymmTensorField;
    location    "500";
    object      turbulenceProperties:devReff;
}
// * * * * * * * * * * * * * * * * * * * * * * * * * * * * * * * * * * * * * //

dimensions      [0 2 -2 0 0 0 0];

internalField   nonuniform List<symmTensor> 
11040
(
(0.0181688 0.0938678 -1.65286e-22 -0.0280991 1.16971e-20 0.00993031)
(0.0683984 0.0881977 9.47019e-21 -0.0815657 1.3629e-19 0.0131673)
(0.0135099 0.010343 -2.99322e-20 -0.0120068 9.6887e-20 -0.0015031)
(-0.00424723 0.0105601 -7.03736e-20 0.00477648 4.15261e-20 -0.000529254)
(-0.0687356 0.0489082 -2.37321e-20 0.0687006 2.04136e-19 3.50319e-05)
(-0.0643778 0.061819 -3.15952e-19 0.0650666 1.1574e-19 -0.000688861)
(-0.0548497 0.0651168 1.81407e-19 0.0550625 -1.19111e-18 -0.000212866)
(-0.0451529 0.0639357 2.53411e-19 0.0452474 -1.71697e-19 -9.44069e-05)
(-0.0361509 0.0606123 1.08933e-19 0.0362121 -3.13928e-20 -6.11895e-05)
(-0.0297917 0.0586604 1.01846e-19 0.0297782 1.62107e-19 1.34924e-05)
(-0.0243096 0.055759 -8.99541e-20 0.0243245 3.82495e-19 -1.48988e-05)
(-0.0196756 0.0529038 -1.34704e-19 0.0196641 2.93043e-19 1.15016e-05)
(-0.0158049 0.0502764 2.24707e-20 0.0157822 -1.65332e-19 2.26805e-05)
(-0.0125362 0.0478693 2.75389e-20 0.012517 1.64219e-19 1.91774e-05)
(-0.00970756 0.0457949 -1.25776e-20 0.00966847 1.09186e-20 3.90904e-05)
(-0.00732721 0.0443837 -4.89874e-21 0.00728467 -2.06474e-19 4.25403e-05)
(-0.00524382 0.0437278 5.6885e-20 0.00518529 1.55081e-22 5.85305e-05)
(-0.003361 0.0440801 -5.49552e-21 0.00328901 3.73922e-19 7.19835e-05)
(-0.00152412 0.0454424 -3.20798e-20 0.00143574 3.34649e-21 8.83807e-05)
(0.000391286 0.0476929 5.13521e-21 -0.000497522 -5.41776e-20 0.000106236)
(0.00250782 0.0508449 2.44426e-20 -0.00262466 4.13788e-20 0.000116844)
(0.00471664 0.0548242 -2.64672e-20 -0.00483732 1.25221e-19 0.00012068)
(0.0068949 0.059705 6.16173e-22 -0.00703442 -1.03444e-19 0.000139525)
(0.00927011 0.0656017 1.40836e-20 -0.00942855 2.65121e-19 0.000158442)
(0.0119905 0.0726578 -8.06244e-20 -0.0121541 -2.39036e-19 0.000163642)
(0.015141 0.0811513 -4.26585e-20 -0.015304 -5.58163e-19 0.000162963)
(0.0186878 0.0906759 1.21213e-20 -0.0188374 -2.59692e-19 0.000149654)
(0.0224298 0.100229 3.49682e-20 -0.0225558 7.23967e-20 0.000125977)
(0.026164 0.109121 -2.28643e-20 -0.0262453 -2.12423e-19 8.12423e-05)
(0.0295954 0.116512 1.3516e-20 -0.0296148 -4.94582e-19 1.94445e-05)
(0.0323721 0.121516 1.25399e-19 -0.0323143 3.53776e-19 -5.77964e-05)
(0.0341605 0.123298 1.28387e-20 -0.0340322 -3.71393e-20 -0.000128244)
(0.0347993 0.121458 9.76058e-20 -0.0346006 9.97949e-19 -0.000198706)
(0.0345771 0.117532 -9.93829e-20 -0.0342799 6.04463e-19 -0.000297261)
(0.0339534 0.113952 3.84133e-20 -0.0334852 1.48932e-20 -0.000468184)
(0.0301005 0.102187 1.24117e-19 -0.0294202 9.58757e-19 -0.000680371)
(0.0199446 0.0718147 9.08871e-21 -0.0191705 2.44341e-19 -0.000774095)
(0.00879595 0.0387416 -5.10359e-20 -0.00803914 4.68258e-19 -0.000756812)
(0.000255762 0.0217689 -4.27841e-19 3.99245e-07 -1.08625e-18 -0.000256161)
(-0.00840015 -0.0105683 -3.01795e-20 0.0107657 -1.07672e-18 -0.00236556)
(-0.0554017 0.00671965 2.38278e-19 0.0635696 6.65077e-20 -0.00816791)
(0.00575787 -0.0060332 5.99122e-22 -0.00412686 -1.72444e-21 -0.00163102)
(0.0166255 0.00101899 2.62508e-20 -0.0098771 4.50394e-21 -0.00674842)
(0.0526922 0.031821 5.54627e-20 -0.0540672 -3.07224e-19 0.00137496)
(0.121147 0.0315593 7.71781e-20 -0.122016 -1.76105e-19 0.000868455)
(0.254534 -0.0216453 8.36749e-20 -0.253423 -5.04374e-19 -0.00111084)
(0.0739727 -0.0523572 5.85693e-19 -0.0737754 -1.24989e-18 -0.000197258)
(0.0198351 -0.0208332 -8.47161e-19 -0.0188282 3.31994e-18 -0.00100692)
(0.00563684 -0.00911631 -8.56914e-19 -0.00588462 2.20883e-18 0.000247777)
(0.0013003 -0.00346596 -7.65291e-20 -0.00156759 -1.63948e-19 0.000267295)
(-0.000571676 0.000211523 -1.07714e-19 0.000291459 4.10236e-20 0.000280218)
(-0.00170714 0.00259769 4.74056e-19 0.00158214 -1.18508e-18 0.000125002)
(-0.00203171 0.00411038 -2.13314e-21 0.00195599 -7.92529e-20 7.57221e-05)
(-0.00199673 0.00522556 -1.70357e-19 0.00193062 6.96947e-19 6.61077e-05)
(-0.00185813 0.00595808 -1.15088e-19 0.00185333 3.0727e-20 4.80181e-06)
(-0.00154813 0.00649689 -4.59228e-20 0.00156221 -1.72367e-19 -1.40821e-05)
(-0.00121914 0.00692713 1.12486e-20 0.00127272 5.96586e-19 -5.35722e-05)
(-0.000856356 0.00735857 -1.37963e-20 0.000939295 1.97433e-19 -8.29393e-05)
(-0.000482635 0.0079083 -8.44947e-21 0.000596277 -5.48119e-19 -0.000113642)
(-8.23718e-05 0.00854682 -2.36828e-20 0.000225611 -2.54031e-20 -0.00014324)
(0.000371655 0.00921782 -7.44803e-21 -0.00020279 8.22611e-20 -0.000168865)
(0.000898342 0.00993315 -1.12179e-20 -0.000712213 -1.5711e-20 -0.000186129)
(0.00147576 0.0107015 3.06878e-20 -0.00126805 -2.79157e-19 -0.000207702)
(0.00202097 0.0113506 2.51209e-20 -0.00178007 3.93257e-19 -0.000240894)
(0.00249532 0.01168 -4.72278e-20 -0.00223147 -3.59604e-19 -0.000263847)
(0.0028653 0.0116553 -6.13449e-21 -0.00259694 2.93597e-19 -0.00026836)
(0.00315737 0.011499 7.60875e-20 -0.0029003 9.48347e-19 -0.00025707)
(0.00333696 0.0111676 1.41472e-19 -0.00310369 5.21882e-19 -0.000233274)
(0.00329632 0.0104561 -3.47361e-20 -0.00311754 1.46266e-19 -0.000178786)
(0.00295755 0.00931708 -9.24221e-20 -0.00287131 2.86773e-19 -8.62389e-05)
(0.00229202 0.00784528 4.68504e-20 -0.00234578 5.04611e-19 5.37561e-05)
(0.00131677 0.00627491 -1.06961e-19 -0.00154553 -7.55938e-19 0.000228758)
(8.43727e-05 0.005046 -4.45644e-20 -0.000493632 -1.24834e-18 0.000409259)
(-0.00151796 0.00449128 -1.04483e-19 0.000906814 -2.54547e-18 0.000611142)
(-0.00379486 0.00397 8.8138e-20 0.00292941 -1.22452e-18 0.000865456)
(-0.00670673 0.00366496 -9.56801e-20 0.00548426 1.08876e-19 0.00122247)
(-0.0103419 0.00375592 -3.72873e-19 0.00858599 -3.71755e-18 0.00175594)
(-0.0146592 0.00483299 -9.16648e-20 0.0124451 -3.48264e-19 0.00221408)
(-0.0200486 0.00749342 -4.12296e-19 0.0179223 -2.01988e-18 0.00212632)
(-0.031852 0.0132311 1.15563e-18 0.0274555 5.02575e-18 0.0043965)
(-0.024646 0.0200716 8.9748e-19 0.0251742 5.32339e-18 -0.000528209)
(-0.13593 -0.128823 -3.5278e-19 0.0835442 -7.15703e-19 0.0523862)
(0.00214261 -0.0041735 -5.43346e-22 -0.00240727 -8.02776e-22 0.000264666)
(-0.000456693 -0.0039962 -1.01767e-20 0.000589408 -2.57934e-20 -0.000132716)
(0.00840599 0.00445247 2.13025e-20 -0.00789958 1.04204e-19 -0.000506417)
(0.0415871 0.0175615 5.94733e-20 -0.042227 9.03236e-20 0.000639908)
(0.280023 0.0470957 -8.48368e-21 -0.2825 -3.83406e-20 0.00247703)
(0.391932 -0.036114 -3.01947e-19 -0.38986 1.20712e-18 -0.00207186)
(0.187153 -0.103331 3.13889e-20 -0.186789 2.24813e-20 -0.000364174)
(0.0588005 -0.0584388 9.95047e-20 -0.0548213 -2.56128e-18 -0.0039792)
(0.0237426 -0.031753 -1.76465e-19 -0.0231239 2.76734e-20 -0.000618712)
(0.0132193 -0.0201366 2.51259e-19 -0.0133441 -7.29648e-19 0.000124806)
(0.00663173 -0.0125858 -4.61606e-19 -0.00662576 1.08661e-18 -5.96795e-06)
(0.00330297 -0.00806 7.96108e-19 -0.00324636 -2.16999e-18 -5.66126e-05)
(0.00159338 -0.00451322 -4.0617e-20 -0.00160115 -7.19882e-20 7.76703e-06)
(0.000593492 -0.00212343 1.5983e-19 -0.000552303 -9.42962e-19 -4.11893e-05)
(0.000304276 -0.000379772 2.63666e-20 -0.000317894 9.91745e-19 1.36177e-05)
(0.000239223 0.000893003 -8.14127e-20 -0.000242033 -3.79882e-19 2.81075e-06)
(0.000386982 0.00178165 -3.7531e-21 -0.000402252 -6.42477e-19 1.52698e-05)
(0.000631181 0.00238784 4.34616e-20 -0.000648597 -4.6066e-19 1.7416e-05)
(0.000919783 0.00279679 2.03846e-20 -0.000936997 -2.61937e-20 1.7214e-05)
(0.00124581 0.00304588 2.71862e-20 -0.00126308 2.91736e-20 1.727e-05)
(0.00159874 0.00315296 3.95835e-21 -0.00161787 8.82905e-20 1.91346e-05)
(0.00199943 0.0030948 -4.51157e-20 -0.00202733 1.41005e-19 2.79027e-05)
(0.00239265 0.00273875 -3.91886e-20 -0.00242615 -4.60912e-19 3.35002e-05)
(0.00269718 0.0020362 -4.07077e-20 -0.00272984 -1.83921e-19 3.26648e-05)
(0.00285155 0.00106392 8.37286e-20 -0.00287502 -2.87949e-19 2.34697e-05)
(0.00282099 -6.28551e-05 -1.26694e-20 -0.00283247 -2.66835e-19 1.14838e-05)
(0.00255115 -0.00124311 -2.30982e-19 -0.00254146 2.71201e-19 -9.69266e-06)
(0.00196329 -0.00236167 -7.97826e-20 -0.00192206 -1.09105e-18 -4.12306e-05)
(0.000979973 -0.00321284 1.95035e-19 -0.000890088 2.68893e-19 -8.98859e-05)
(-0.000465166 -0.00361059 2.63066e-19 0.000611256 1.12018e-18 -0.00014609)
(-0.00248399 -0.00347946 -1.96544e-19 0.00268027 6.2268e-19 -0.000196277)
(-0.00532985 -0.00303857 4.40209e-19 0.0055645 2.62502e-18 -0.000234653)
(-0.00936015 -0.00254781 1.67786e-19 0.00962589 7.89994e-19 -0.000265742)
(-0.0145269 -0.00121809 -4.29472e-19 0.0148094 8.99122e-19 -0.000282536)
(-0.0209112 0.00109363 -4.69241e-19 0.0211409 -9.47959e-19 -0.000229711)
(-0.0287181 0.00478457 3.42868e-19 0.0287405 1.9343e-18 -2.23638e-05)
(-0.0378003 0.0105364 3.54845e-19 0.0376253 -2.03711e-18 0.000175026)
(-0.0484108 0.0185612 4.4315e-19 0.0485098 1.83189e-18 -9.90644e-05)
(-0.0732059 0.0322774 -4.28801e-19 0.0692363 -9.20615e-19 0.00396959)
(-0.0624885 0.0757937 -8.98723e-21 0.0697155 -5.19733e-19 -0.00722698)
(-0.166892 -0.00230168 3.39143e-19 0.163209 1.6757e-18 0.00368269)
(0.00198117 -0.00267776 -1.61225e-22 -0.00207733 -7.06275e-22 9.61589e-05)
(-0.000292897 -0.00292841 -4.29851e-22 0.000100579 2.8319e-21 0.000192318)
(-0.000924111 -0.00215115 -1.50316e-20 0.000891714 -3.42584e-20 3.23978e-05)
(0.00309546 0.00133362 -2.01436e-20 -0.00300141 -3.90437e-20 -9.40502e-05)
(0.0603124 0.0194136 3.8259e-20 -0.0607468 4.46422e-20 0.00043441)
(0.319209 0.040221 2.42388e-19 -0.322984 1.44428e-20 0.00377441)
(0.499238 -0.0462247 2.59148e-19 -0.496966 -1.41042e-18 -0.00227176)
(0.319025 -0.143487 9.21205e-19 -0.323781 -1.43925e-18 0.00475596)
(0.112684 -0.10182 -4.19022e-19 -0.106757 1.27014e-18 -0.00592678)
(0.0523126 -0.0630636 2.35839e-19 -0.0504746 4.16932e-19 -0.00183799)
(0.0279163 -0.0394499 -3.66379e-19 -0.0277867 1.17611e-18 -0.000129579)
(0.0162298 -0.0283644 -6.02832e-19 -0.0163054 1.30815e-18 7.56206e-05)
(0.00995713 -0.0206041 4.84132e-19 -0.0100591 -9.85408e-19 0.000101946)
(0.00597 -0.0152348 -1.17333e-19 -0.00589865 9.66031e-19 -7.13563e-05)
(0.00404188 -0.0114956 -2.05553e-19 -0.0040429 -1.09701e-18 1.01814e-06)
(0.00291635 -0.00874995 -1.18314e-19 -0.0028827 -4.75327e-19 -3.36492e-05)
(0.00243416 -0.00699847 5.22216e-20 -0.00241791 2.34191e-19 -1.62538e-05)
(0.00226587 -0.00580871 1.17599e-19 -0.00225457 1.4056e-20 -1.13072e-05)
(0.0022501 -0.00513045 3.24692e-20 -0.0022409 5.56007e-20 -9.20327e-06)
(0.00233482 -0.00485609 -1.26905e-20 -0.00233397 -7.99864e-20 -8.47051e-07)
(0.0024479 -0.00491994 -2.88703e-20 -0.00244764 -2.03922e-19 -2.68954e-07)
(0.00265307 -0.00526953 2.55459e-20 -0.00265409 -2.89562e-19 1.0248e-06)
(0.00294635 -0.00597695 2.34904e-20 -0.0029534 -1.305e-19 7.04407e-06)
(0.00320427 -0.00704747 7.91924e-21 -0.00321629 1.21131e-19 1.20161e-05)
(0.00333228 -0.00832498 -7.10535e-20 -0.0033433 7.26367e-19 1.1023e-05)
(0.00326227 -0.00963658 2.50384e-19 -0.00327154 -8.24276e-19 9.2701e-06)
(0.00289647 -0.0108485 1.85569e-19 -0.002907 -6.32121e-19 1.05247e-05)
(0.00208459 -0.0118022 2.00479e-19 -0.00209687 1.53981e-18 1.22742e-05)
(0.000649304 -0.0123258 -6.55112e-20 -0.000661812 4.09391e-19 1.25084e-05)
(-0.00164023 -0.0122841 -5.64623e-19 0.00163057 -5.95509e-19 9.66477e-06)
(-0.00506115 -0.0115705 1.89424e-19 0.00504939 -1.08477e-18 1.17662e-05)
(-0.00992492 -0.0100908 -4.6661e-19 0.00990685 6.68488e-19 1.80712e-05)
(-0.0164972 -0.00755926 4.39656e-19 0.0164709 -5.67575e-19 2.62383e-05)
(-0.024915 -0.0034536 4.78306e-19 0.0248867 -1.4236e-18 2.83193e-05)
(-0.0353977 0.00254024 4.66821e-19 0.0353623 8.24716e-19 3.53847e-05)
(-0.0483045 0.0110116 4.75008e-19 0.0481749 1.77819e-18 0.000129656)
(-0.0633556 0.0230459 3.76502e-19 0.0632631 1.84121e-18 9.25478e-05)
(-0.0800522 0.0390575 -5.68296e-19 0.0808553 -2.26391e-18 -0.000803056)
(-0.117019 0.0620397 6.39595e-20 0.112613 -7.99947e-19 0.00440559)
(-0.103043 0.142826 -2.58314e-19 0.112824 -1.64767e-18 -0.00978185)
(-0.144501 0.0772641 -4.40898e-19 0.138874 -7.85915e-19 0.00562722)
(0.00155412 -0.00198074 1.40174e-21 -0.00154451 3.34405e-21 -9.60759e-06)
(0.000423028 -0.00225077 -2.30799e-21 -0.000367585 -4.47544e-21 -5.54433e-05)
(-0.00070517 -0.00227541 1.15769e-20 0.000710809 2.34276e-20 -5.63982e-06)
(-0.000587326 -0.00114155 1.49026e-20 0.000604327 2.60057e-20 -1.70012e-05)
(0.00148678 0.000406091 -1.47682e-20 -0.00144785 -2.17558e-20 -3.89247e-05)
(0.0543597 0.0136893 3.2707e-20 -0.0544753 -1.03043e-20 0.000115546)
(0.298528 0.0271735 -7.12516e-20 -0.301963 -9.50049e-21 0.00343506)
(0.556053 -0.0492409 -2.64516e-19 -0.553737 3.19068e-19 -0.0023168)
(0.465016 -0.172504 4.11294e-19 -0.470994 -1.9233e-19 0.00597799)
(0.203942 -0.162959 6.61585e-21 -0.202062 2.13471e-19 -0.00187962)
(0.0911418 -0.102566 3.72936e-19 -0.0859889 -2.40699e-18 -0.00515292)
(0.0490211 -0.0672006 -2.7059e-19 -0.0482656 4.16559e-19 -0.000755442)
(0.0296864 -0.0483906 -3.04862e-19 -0.0299965 2.42788e-19 0.000310036)
(0.0181004 -0.0362479 3.45808e-19 -0.0181616 -2.41521e-18 6.11879e-05)
(0.0119023 -0.0288024 2.7465e-19 -0.0119615 1.39737e-19 5.92843e-05)
(0.00815753 -0.0230928 1.75236e-19 -0.00813031 1.85304e-19 -2.72215e-05)
(0.0061341 -0.019546 -1.60839e-19 -0.0061253 6.54777e-19 -8.8015e-06)
(0.00502657 -0.0171115 -1.35677e-20 -0.00502194 1.43959e-19 -4.63393e-06)
(0.00437754 -0.0157346 3.86198e-20 -0.00436958 -6.91365e-20 -7.95809e-06)
(0.00402979 -0.0151328 4.8025e-20 -0.0040316 5.18487e-20 1.81358e-06)
(0.00380314 -0.0150858 -8.10944e-21 -0.00380153 2.39499e-19 -1.61028e-06)
(0.00379596 -0.0154253 -9.19474e-20 -0.0037904 2.36558e-19 -5.56603e-06)
(0.00403069 -0.0161826 1.22744e-19 -0.00402467 1.80861e-19 -6.02134e-06)
(0.00432762 -0.0173641 1.58618e-19 -0.00432276 4.12614e-19 -4.8609e-06)
(0.00454133 -0.0187863 -1.75745e-19 -0.0045373 -1.02016e-19 -4.03522e-06)
(0.00453209 -0.020249 -1.34122e-19 -0.00452465 2.08412e-18 -7.43807e-06)
(0.00412861 -0.0215715 8.23405e-20 -0.00412365 -3.20667e-20 -4.95937e-06)
(0.00307043 -0.0225256 -2.9629e-19 -0.00306519 -8.42436e-19 -5.24524e-06)
(0.00105897 -0.0228658 -5.07204e-19 -0.00105805 -1.62081e-18 -9.19208e-07)
(-0.00228385 -0.0223316 3.72532e-19 0.00228378 -6.67155e-19 6.87759e-08)
(-0.00735811 -0.0206069 1.17037e-19 0.00734898 1.78421e-18 9.13033e-06)
(-0.0145507 -0.0173314 2.71529e-19 0.0145263 -1.08814e-18 2.44002e-05)
(-0.0241863 -0.0120404 -2.73481e-19 0.0241376 3.03268e-18 4.87732e-05)
(-0.0365264 -0.00417998 -9.41037e-19 0.0364557 1.56926e-19 7.06819e-05)
(-0.0518472 0.00676596 -3.66045e-19 0.051755 6.34332e-19 9.21824e-05)
(-0.070539 0.0216248 -4.99171e-19 0.0703163 7.5645e-19 0.000222736)
(-0.0919732 0.0420299 -4.74933e-20 0.0917568 -4.42754e-20 0.000216438)
(-0.114329 0.0689577 2.92629e-20 0.115296 7.67264e-20 -0.000967333)
(-0.158981 0.102335 -8.40408e-21 0.153588 1.56903e-18 0.00539317)
(-0.148447 0.212276 1.13411e-19 0.160917 -1.12738e-18 -0.0124701)
(-0.130429 0.154106 4.81786e-19 0.122225 -7.18414e-19 0.00820417)
(0.00118614 -0.00137324 -1.38421e-21 -0.00119449 -2.34276e-21 8.34855e-06)
(0.000446378 -0.00160796 7.12768e-21 -0.000430037 1.16164e-20 -1.63411e-05)
(-0.000197339 -0.00160773 -3.59674e-21 0.000208041 -7.93874e-21 -1.07024e-05)
(-0.000801897 -0.00157715 -3.28241e-21 0.000793886 -8.83718e-21 8.0117e-06)
(-0.000450185 -0.00067341 2.12078e-21 0.000452241 5.10037e-21 -2.05624e-06)
(0.000638813 5.15468e-05 -1.84956e-21 -0.000618873 -1.7993e-21 -1.99396e-05)
(0.035964 0.00679246 -2.33233e-20 -0.0358688 -2.38911e-20 -9.51512e-05)
(0.234814 0.0152757 -7.56937e-20 -0.23663 9.23377e-20 0.00181596)
(0.551586 -0.0477628 -1.59015e-19 -0.55204 -1.51066e-19 0.000454295)
(0.594604 -0.180939 -3.84019e-19 -0.596839 -9.74816e-19 0.0022352)
(0.347899 -0.231637 3.69981e-19 -0.354906 5.1972e-19 0.00700658)
(0.152 -0.158458 6.14352e-19 -0.144703 -8.32537e-19 -0.00729728)
(0.0807506 -0.107832 -8.37455e-19 -0.0776974 6.62053e-19 -0.00305324)
(0.0481378 -0.074975 3.5564e-19 -0.047927 1.12055e-18 -0.000210839)
(0.0300482 -0.0579541 2.84008e-20 -0.0304176 4.92879e-19 0.000369409)
(0.0194955 -0.0456615 -2.40207e-19 -0.0196184 -8.79302e-20 0.000122907)
(0.0134704 -0.0383459 1.65437e-19 -0.01347 -9.29547e-19 -3.96938e-07)
(0.010055 -0.0332705 -3.64638e-20 -0.0100462 6.03945e-19 -8.86212e-06)
(0.00795592 -0.0302223 7.10051e-20 -0.00794214 -1.1457e-19 -1.37842e-05)
(0.00673376 -0.0286614 4.86935e-20 -0.00674262 2.09477e-19 8.85529e-06)
(0.00593952 -0.0281169 -6.33376e-20 -0.00594386 -3.01648e-19 4.33336e-06)
(0.00564741 -0.0282333 2.89797e-20 -0.0056514 1.22767e-20 3.98248e-06)
(0.00583775 -0.0289589 1.68072e-20 -0.00584086 1.03208e-19 3.10415e-06)
(0.00623325 -0.0302877 -3.00278e-19 -0.00623477 -3.48321e-19 1.52182e-06)
(0.00661776 -0.0319819 3.14961e-19 -0.00661769 -8.17513e-19 -7.05838e-08)
(0.00676523 -0.033784 5.4615e-20 -0.00675687 -4.3701e-19 -8.36559e-06)
(0.00641235 -0.0354273 -5.41745e-19 -0.00640298 -4.37438e-19 -9.37187e-06)
(0.00517308 -0.0365556 4.58482e-20 -0.00515672 -9.84017e-19 -1.63592e-05)
(0.00260989 -0.0367588 8.52617e-19 -0.00259404 -1.22426e-19 -1.58489e-05)
(-0.00180618 -0.0355798 3.39242e-19 0.00182276 1.43195e-18 -1.65798e-05)
(-0.00861977 -0.0324589 -4.16855e-19 0.00862306 -7.84578e-19 -3.28417e-06)
(-0.0183447 -0.0267903 -5.05418e-19 0.0183272 6.54026e-19 1.74966e-05)
(-0.0314028 -0.0179347 -1.99173e-19 0.0313527 -3.23924e-18 5.01638e-05)
(-0.0481281 -0.00515881 8.32325e-19 0.0480441 -2.02322e-18 8.39487e-05)
(-0.0687716 0.0122834 6.5369e-19 0.0686537 -1.82738e-18 0.000117907)
(-0.0935923 0.0354353 -1.69529e-19 0.0933118 -4.92389e-20 0.000280511)
(-0.121409 0.0664217 1.24655e-19 0.121121 1.4468e-18 0.000287744)
(-0.148842 0.106659 6.46124e-21 0.149848 -7.94565e-19 -0.00100577)
(-0.195846 0.152105 -3.70588e-19 0.189857 7.71395e-19 0.00598942)
(-0.192644 0.278281 -5.41495e-19 0.206124 1.74335e-18 -0.0134808)
(-0.134347 0.234969 -3.31005e-19 0.125869 -8.98855e-19 0.0084787)
(0.000915126 -0.000935537 -3.39994e-22 -0.000920497 -6.14673e-22 5.37109e-06)
(0.000451327 -0.00116772 8.06019e-22 -0.000451208 8.9346e-22 -1.1882e-07)
(1.99458e-05 -0.0011785 -3.73536e-21 -1.81241e-05 -4.93301e-21 -1.82177e-06)
(-0.000391166 -0.00116915 -5.71236e-21 0.000395009 -7.05386e-21 -3.84348e-06)
(-0.000732376 -0.00107313 -2.03727e-21 0.00072854 -2.34978e-21 3.83595e-06)
(-0.000417843 -0.000486623 5.09572e-21 0.000416107 6.99592e-21 1.73636e-06)
(0.000239602 -9.41022e-05 -1.39943e-21 -0.000229541 -2.11985e-21 -1.00615e-05)
(0.0154766 0.0018992 1.74282e-20 -0.0153759 1.90301e-20 -0.000100753)
(0.1541 0.0061792 2.3152e-19 -0.154608 2.20414e-19 0.000508014)
(0.466664 -0.0404894 -1.66564e-19 -0.468851 3.60099e-19 0.00218723)
(0.666063 -0.164699 -2.29586e-19 -0.66388 6.52936e-19 -0.00218306)
(0.523711 -0.278591 2.77786e-19 -0.533309 -1.05666e-18 0.00959793)
(0.263777 -0.244761 4.59214e-19 -0.265011 1.31177e-18 0.00123397)
(0.128274 -0.160707 -8.19052e-19 -0.120397 -2.93955e-19 -0.00787663)
(0.074021 -0.114395 3.36756e-19 -0.0721877 -1.3848e-18 -0.00183334)
(0.0469946 -0.0858177 -2.28615e-19 -0.0472077 8.0068e-19 0.000213097)
(0.0303722 -0.0693786 1.32674e-19 -0.0306765 7.89689e-19 0.000304242)
(0.020688 -0.0580325 1.68124e-19 -0.020831 4.0304e-19 0.000143001)
(0.0148357 -0.0510729 -8.62631e-20 -0.0148191 3.54771e-19 -1.66225e-05)
(0.0114899 -0.0471797 1.05487e-20 -0.011487 -1.02813e-18 -2.94485e-06)
(0.00942749 -0.0453617 2.1205e-20 -0.00940964 4.37661e-19 -1.78559e-05)
(0.00854443 -0.044904 -1.32732e-19 -0.00853769 -9.13421e-21 -6.7382e-06)
(0.00860195 -0.0455316 1.18154e-19 -0.00859943 -4.90303e-19 -2.51219e-06)
(0.00912218 -0.0471301 2.11656e-19 -0.00912191 -7.25634e-20 -2.75609e-07)
(0.00977574 -0.0493302 -1.7546e-19 -0.00977555 1.05336e-18 -1.91743e-07)
(0.010225 -0.0517576 -3.32312e-19 -0.0102164 -9.23479e-19 -8.59279e-06)
(0.0100947 -0.0540128 4.07499e-19 -0.0100827 -5.51073e-19 -1.19879e-05)
(0.00886902 -0.0555596 2.15916e-19 -0.00884652 1.65667e-18 -2.24987e-05)
(0.00594781 -0.0557485 1.42879e-19 -0.00592147 1.80801e-18 -2.63375e-05)
(0.000638678 -0.0538763 -2.03729e-19 -0.000609249 -3.25058e-19 -2.94288e-05)
(-0.00777671 -0.0490957 -1.37972e-20 0.0077929 -1.19135e-18 -1.61909e-05)
(-0.019964 -0.040508 -4.159e-19 0.0199523 -3.57193e-19 1.16974e-05)
(-0.036445 -0.0272308 -2.00064e-19 0.036394 1.52279e-18 5.10445e-05)
(-0.0575683 -0.00828652 1.04142e-19 0.0574735 2.32763e-18 9.47973e-05)
(-0.0834616 0.0172977 1.41016e-18 0.0833215 7.41053e-19 0.000140109)
(-0.114037 0.0506723 1.74679e-19 0.113713 -8.26766e-19 0.000323677)
(-0.147404 0.094123 -1.66653e-18 0.147099 -7.0787e-19 0.000304316)
(-0.178859 0.148882 1.27377e-19 0.179735 -2.45478e-19 -0.000876357)
(-0.223475 0.207998 -5.64806e-20 0.217773 -1.81406e-18 0.00570177)
(-0.227213 0.337347 -1.27732e-19 0.238988 5.78335e-19 -0.011775)
(-0.153201 0.317151 4.1965e-19 0.147781 1.54051e-18 0.00541954)
(0.000693891 -0.000654338 -7.02326e-23 -0.000699597 -1.76966e-23 5.70617e-06)
(0.000419711 -0.000835284 -1.41975e-21 -0.000418296 -1.93153e-21 -1.41514e-06)
(0.000129275 -0.000911543 1.36867e-21 -0.000127508 1.8928e-21 -1.76703e-06)
(-0.000146559 -0.000872584 6.37238e-21 0.000149827 8.5054e-21 -3.26811e-06)
(-0.000420516 -0.000836776 1.19158e-21 0.00042564 1.65294e-21 -5.12381e-06)
(-0.000647178 -0.00076714 1.09372e-21 0.000646446 5.20371e-22 7.32078e-07)
(-0.00039282 -0.000373376 -7.71659e-21 0.00038979 -8.41731e-21 3.03005e-06)
(-1.59707e-05 -0.000166954 -3.61661e-22 1.95938e-05 -2.39753e-22 -3.62303e-06)
(0.00348516 8.97441e-05 -8.11914e-21 -0.00344645 -1.15597e-20 -3.87157e-05)
(0.0804692 0.000844123 1.61941e-19 -0.0804163 1.80627e-19 -5.29079e-05)
(0.326812 -0.0282864 -2.73004e-19 -0.328131 -6.43012e-19 0.00131954)
(0.633295 -0.136506 -1.23484e-19 -0.63309 8.05965e-19 -0.000205254)
(0.672279 -0.278146 1.80713e-19 -0.67435 -1.03678e-18 0.00207137)
(0.437799 -0.329819 -3.58462e-19 -0.448713 -4.00665e-19 0.0109143)
(0.215274 -0.247932 9.37293e-19 -0.211357 -2.12197e-19 -0.00391666)
(0.11394 -0.168975 4.02504e-19 -0.107159 8.47619e-19 -0.00678114)
(0.0699908 -0.125078 -3.45605e-19 -0.0688378 5.18865e-19 -0.00115299)
(0.0458845 -0.0995879 -3.94396e-19 -0.0463572 4.61929e-19 0.0004727)
(0.030579 -0.0841902 -6.26115e-19 -0.0308879 -3.85347e-20 0.000308945)
(0.0213767 -0.0745371 4.70969e-19 -0.0215219 -6.25161e-19 0.000145203)
(0.0158347 -0.0693046 2.14623e-19 -0.0158049 8.66187e-19 -2.98155e-05)
(0.0132836 -0.0672563 -3.63626e-19 -0.0132474 -2.1047e-19 -3.61464e-05)
(0.0127454 -0.0673493 1.20761e-19 -0.0127123 3.62302e-19 -3.31084e-05)
(0.0132624 -0.0691885 9.41011e-20 -0.0132349 2.41928e-19 -2.74977e-05)
(0.0142678 -0.0721155 1.53593e-20 -0.0142484 -3.8264e-19 -1.94162e-05)
(0.0152365 -0.0755371 -2.44931e-20 -0.015212 5.40087e-19 -2.45468e-05)
(0.0156424 -0.0788493 3.35434e-19 -0.0156204 1.39655e-18 -2.20188e-05)
(0.0148212 -0.0812594 3.12856e-19 -0.0147954 -5.51527e-19 -2.58473e-05)
(0.0119912 -0.0817546 -4.48761e-19 -0.0119625 4.4666e-20 -2.87533e-05)
(0.0062934 -0.0793374 -9.89757e-19 -0.00625628 -1.14558e-18 -3.71244e-05)
(-0.00317356 -0.0728181 2.5203e-19 0.00320233 5.96809e-20 -2.87641e-05)
(-0.0172376 -0.0609278 5.72829e-19 0.017233 -1.08947e-18 4.58143e-06)
(-0.0364989 -0.0424555 6.45079e-19 0.0364481 3.35211e-19 5.07379e-05)
(-0.0612701 -0.0161838 -4.52544e-19 0.0611665 -1.54567e-19 0.000103598)
(-0.0914488 0.0190247 -8.09353e-19 0.0912845 1.56455e-18 0.000164376)
(-0.126406 0.0642334 -5.91678e-19 0.126052 -1.4644e-18 0.000354722)
(-0.163466 0.121308 1.04038e-18 0.163157 -2.59713e-19 0.00030863)
(-0.19711 0.190444 -9.86037e-21 0.197689 3.89051e-19 -0.000578068)
(-0.235899 0.263478 2.47322e-19 0.231455 -3.66663e-19 0.00444439)
(-0.244362 0.385877 -2.59064e-19 0.252638 -7.60574e-19 -0.00827619)
(-0.176049 0.389439 -4.69864e-19 0.175046 5.14928e-19 0.00100304)
(0.000528887 -0.000465037 -2.22513e-22 -0.000532884 -7.93322e-23 3.99668e-06)
(0.000356124 -0.000597806 -1.20434e-21 -0.00035528 -1.84233e-21 -8.44108e-07)
(0.000173466 -0.000675064 5.01184e-21 -0.000172942 5.67856e-21 -5.23542e-07)
(-2.01949e-05 -0.000691001 -6.56944e-22 2.02163e-05 -8.81681e-22 -2.14226e-08)
(-0.000200926 -0.00063439 1.79232e-21 0.000202454 1.65083e-21 -1.52859e-06)
(-0.000395799 -0.00060727 -1.60747e-21 0.000400011 -1.44403e-21 -4.21107e-06)
(-0.00052067 -0.000516555 3.99341e-21 0.000522037 5.33735e-21 -1.36705e-06)
(-0.00036909 -0.000294566 3.14277e-21 0.000366809 2.58618e-21 2.28023e-06)
(-0.000175972 -0.000190503 4.37394e-23 0.000175791 9.57459e-22 1.80612e-07)
(0.000326425 -6.68909e-05 4.0726e-21 -0.000321388 3.56527e-21 -5.03666e-06)
(0.0289442 -0.000972874 -3.49676e-21 -0.0288114 5.35214e-21 -0.000132777)
(0.181104 -0.0169342 -2.9881e-19 -0.181323 -2.00244e-19 0.000219386)
(0.485967 -0.0950997 1.79119e-19 -0.487116 -3.68757e-19 0.00114881)
(0.714547 -0.239944 -4.30404e-19 -0.712953 9.2116e-19 -0.00159439)
(0.63032 -0.364999 -3.10173e-19 -0.637739 -9.23902e-19 0.00741904)
(0.372492 -0.35782 5.29584e-19 -0.381476 7.01656e-19 0.00898479)
(0.187778 -0.256895 3.4644e-19 -0.181271 -1.57152e-18 -0.00650652)
(0.105189 -0.182362 1.95654e-19 -0.0991464 5.90374e-19 -0.00604254)
(0.0673723 -0.140996 -7.59978e-19 -0.0665957 -1.16455e-18 -0.000776607)
(0.0447055 -0.117904 2.98855e-19 -0.0453256 1.2233e-18 0.000620107)
(0.030178 -0.104993 8.80244e-20 -0.0305166 -9.01903e-19 0.000338568)
(0.0225337 -0.0987574 -3.35353e-19 -0.0226544 4.44105e-19 0.000120711)
(0.0195646 -0.0969487 2.47373e-19 -0.0195366 4.12873e-21 -2.79316e-05)
(0.0192355 -0.0984233 -2.92424e-20 -0.0191682 2.54362e-20 -6.73021e-05)
(0.0203716 -0.102048 -8.94033e-20 -0.0203172 7.53968e-19 -5.43525e-05)
(0.022028 -0.106693 1.20552e-19 -0.0219667 -1.82339e-19 -6.12688e-05)
(0.0234069 -0.111392 -7.55301e-19 -0.0233463 4.62702e-21 -6.06059e-05)
(0.0236497 -0.11509 -3.8986e-19 -0.0235882 1.92516e-19 -6.1507e-05)
(0.0217824 -0.116475 -1.95767e-19 -0.0217232 -1.23118e-18 -5.91163e-05)
(0.0167481 -0.114018 9.44959e-19 -0.0166955 8.94797e-20 -5.25983e-05)
(0.00746916 -0.106076 1.57829e-19 -0.00744019 8.26749e-19 -2.89698e-05)
(-0.00703423 -0.0909029 2.98874e-19 0.00701899 9.14066e-19 1.52398e-05)
(-0.0274265 -0.0668674 -6.18478e-19 0.0273607 2.86677e-19 6.58465e-05)
(-0.0539547 -0.0325788 5.1985e-19 0.0538328 -1.26704e-18 0.000121877)
(-0.0862025 0.013114 2.82301e-19 0.0860105 -1.42333e-19 0.000192014)
(-0.122926 0.0709052 1.04917e-18 0.122558 3.07874e-19 0.000367984)
(-0.160766 0.141534 -1.60515e-18 0.160442 5.56234e-19 0.000324796)
(-0.193934 0.22348 -4.17237e-20 0.194185 4.88713e-20 -0.000250919)
(-0.225429 0.308246 2.94213e-19 0.222758 4.59654e-19 0.0026702)
(-0.237547 0.417486 5.51183e-19 0.241775 -1.36585e-20 -0.00422856)
(-0.188239 0.44024 -1.98489e-20 0.191136 -1.10221e-18 -0.002897)
(0.000401964 -0.00033441 -8.77247e-22 -0.000404832 -1.01353e-21 2.86869e-06)
(0.000289555 -0.000430883 3.56155e-21 -0.000289536 3.70931e-21 -1.85974e-08)
(0.000172169 -0.000493706 -8.32162e-22 -0.000172089 -7.62094e-22 -7.98712e-08)
(4.45875e-05 -0.000526508 -6.5552e-21 -4.46419e-05 -6.89119e-21 5.4432e-08)
(-8.63271e-05 -0.000517493 -6.12071e-22 8.61517e-05 -7.95229e-22 1.75402e-07)
(-0.000205642 -0.000464977 6.48309e-21 0.000206371 6.91083e-21 -7.28885e-07)
(-0.000339916 -0.000432274 -1.66611e-21 0.000342775 -2.21028e-21 -2.85895e-06)
(-0.000407394 -0.000345693 -1.48119e-20 0.0004096 -1.46233e-20 -2.20648e-06)
(-0.000334846 -0.000226635 1.06919e-20 0.000333988 1.02448e-20 8.58411e-07)
(-0.000243035 -0.000171143 5.2485e-22 0.000241252 -5.33598e-22 1.78213e-06)
(8.74654e-05 -0.000275429 -1.15991e-21 -8.34671e-05 -1.91771e-21 -3.9983e-06)
(0.00645015 -0.000828824 -8.41831e-21 -0.00639578 -4.67735e-21 -5.43725e-05)
(0.075957 -0.00868026 -1.74741e-19 -0.075811 -1.13679e-19 -0.000146014)
(0.293353 -0.0546846 1.64338e-19 -0.293836 -1.21826e-19 0.000482855)
(0.601736 -0.17574 -6.37833e-19 -0.60179 6.02007e-19 5.36808e-05)
(0.739918 -0.33294 6.12746e-19 -0.739072 -3.7548e-19 -0.000845243)
(0.583258 -0.427732 -5.03194e-19 -0.593861 7.63688e-19 0.0106025)
(0.332354 -0.382719 -1.1307e-19 -0.339262 -2.55011e-19 0.00690771)
(0.172711 -0.275555 -2.53008e-19 -0.165235 -3.61565e-19 -0.00747663)
(0.0996808 -0.203024 2.92184e-19 -0.0937237 -1.03599e-18 -0.00595715)
(0.0647338 -0.164928 4.63486e-19 -0.0639981 3.52569e-19 -0.000735671)
(0.0447507 -0.146597 -2.39495e-19 -0.0454799 -1.03656e-18 0.000729269)
(0.0341491 -0.138995 -2.46141e-19 -0.0346651 4.66464e-19 0.000515981)
(0.02968 -0.13793 7.10253e-19 -0.0298835 -5.969e-19 0.000203489)
(0.0291304 -0.141281 -3.95204e-19 -0.0291322 4.91601e-20 1.74597e-06)
(0.0308745 -0.147232 -5.94884e-19 -0.0307591 -3.70637e-19 -0.000115406)
(0.0335326 -0.154073 9.9492e-19 -0.0333971 -1.4403e-18 -0.000135504)
(0.0357305 -0.159883 8.57444e-21 -0.0355995 1.08997e-18 -0.000131009)
(0.0361184 -0.162732 -1.08339e-20 -0.0359934 -7.14904e-20 -0.000124947)
(0.0334483 -0.160706 -5.83092e-19 -0.0333278 1.07523e-18 -0.000120427)
(0.0265175 -0.151826 5.39821e-20 -0.0264106 -6.52888e-19 -0.000106906)
(0.0142104 -0.133863 -3.57916e-21 -0.0141454 3.57758e-19 -6.49789e-05)
(-0.00424845 -0.104642 -6.92856e-19 0.00422914 -5.82018e-19 1.93049e-05)
(-0.0290777 -0.0625722 3.68842e-19 0.0289459 1.76036e-18 0.000131761)
(-0.0595709 -0.00669716 -5.46283e-19 0.0593329 3.18379e-19 0.000238059)
(-0.0940351 0.0630082 -4.9001e-19 0.0936399 -8.31678e-21 0.000395165)
(-0.128785 0.145548 7.48992e-19 0.128398 -1.90285e-18 0.000387261)
(-0.158343 0.237372 -1.23266e-19 0.158371 8.22587e-19 -2.79637e-05)