/*--------------------------------*- C++ -*----------------------------------*\
| =========                 |                                                 |
| \\      /  F ield         | OpenFOAM: The Open Source CFD Toolbox           |
|  \\    /   O peration     | Version:  2312                                  |
|   \\  /    A nd           | Website:  www.openfoam.com                      |
|    \\/     M anipulation  |                                                 |
\*---------------------------------------------------------------------------*/
FoamFile
{
    version     2.0;
    format      ascii;
    arch        "LSB;label=32;scalar=64";
    class       volScalarField;
    location    "500";
    object      turbulenceProperties:k;
}
// * * * * * * * * * * * * * * * * * * * * * * * * * * * * * * * * * * * * * //

dimensions      [0 2 -2 0 0 0 0];

internalField   nonuniform List<scalar> 
11040
(
0.400295
0.446454
0.0758889
0.0450774
0.275227
0.292272
0.278743
0.256732
0.232414
0.217286
0.201791
0.188122
0.176543
0.166623
0.15843
0.152854
0.149979
0.15049
0.154345
0.161199
0.171133
0.183923
0.199772
0.219108
0.242432
0.270656
0.302555
0.334905
0.365378
0.391082
0.408907
0.415912
0.410652
0.398137
0.386394
0.346135
0.241998
0.129502
0.0709536
0.0478355
0.198857
0.0336936
0.0687683
0.235108
0.416732
0.836601
0.297417
0.0933191
0.0353444
0.0123319
0.00208505
0.0100458
0.0148879
0.0181728
0.0202989
0.0217211
0.0228822
0.0241029
0.0257759
0.0277989
0.0299919
0.03241
0.0350906
0.0374383
0.0387749
0.0389617
0.0387214
0.0378799
0.0356805
0.031882
0.0267512
0.0211024
0.0166915
0.0155637
0.017621
0.0241659
0.0346391
0.0486802
0.0681652
0.109425
0.105764
0.618247
0.0208566
0.0185954
0.0395839
0.169049
0.930892
1.29531
0.706246
0.270119
0.13033
0.0795951
0.0468918
0.0286556
0.0157544
0.00723424
0.00161419
0.00303613
0.00598727
0.00810671
0.00966054
0.0107977
0.0116035
0.0121086
0.0119706
0.011142
0.0100411
0.00930341
0.00933318
0.0100848
0.0110523
0.01208
0.0143569
0.0206672
0.0325634
0.0487708
0.0697808
0.0965609
0.12988
0.172194
0.260321
0.335914
0.548983
0.0150242
0.0127093
0.0108174
0.0154357
0.211648
1.06168
1.65474
1.16673
0.497079
0.269778
0.159969
0.108266
0.0758066
0.0540829
0.0402878
0.0304618
0.0244679
0.0205827
0.0184898
0.0177874
0.0181424
0.019483
0.0220186
0.0255959
0.0296621
0.0336716
0.0371843
0.0397111
0.0409172
0.0411007
0.0418959
0.0469603
0.0602166
0.083501
0.117852
0.16444
0.223955
0.297378
0.434563
0.597485
0.537785
0.0111652
0.0100547
0.0106152
0.00562794
0.00641329
0.184018
0.991147
1.84492
1.65552
0.86429
0.450645
0.275415
0.188679
0.134466
0.103405
0.081194
0.0679078
0.0591084
0.0541202
0.0518947
0.0515554
0.0526459
0.0552811
0.0593379
0.06411
0.0688535
0.0729076
0.075494
0.07604
0.0745939
0.0727247
0.0752096
0.0897708
0.122163
0.173783
0.245115
0.336157
0.445738
0.622359
0.876564
0.664748
0.00804993
0.00739968
0.00714098
0.00791246
0.00266837
0.00147156
0.120196
0.776733
1.83523
2.06765
1.399
0.722336
0.444971
0.295908
0.217198
0.165019
0.134999
0.115428
0.103777
0.0977705
0.0954301
0.095619
0.0981181
0.102723
0.108516
0.114506
0.119681
0.122757
0.122558
0.118508
0.111736
0.108027
0.12028
0.16097
0.232356
0.332729
0.46034
0.61109
0.818446
1.14206
0.895583
0.00580613
0.00554972
0.00521162
0.00549026
0.00573901
0.00129203
3.62742e-05
0.0531847
0.507182
1.55556
2.27579
1.98696
1.19822
0.676933
0.451614
0.325573
0.252065
0.204944
0.176826
0.161449
0.154037
0.15198
0.154078
0.159643
0.167264
0.175499
0.182813
0.187215
0.186585
0.179342
0.165479
0.150344
0.151411
0.193516
0.283617
0.415099
0.582057
0.776244
1.01038
1.36719
1.16978
0.00423529
0.00414041
0.00408062
0.00391617
0.00419069
0.00445334
0.000342148
1.48398e-06
0.0143301
0.26313
1.0881
2.15169
2.42282
1.83897
1.08847
0.672776
0.476047
0.365208
0.298231
0.258085
0.236539
0.228107
0.228082
0.234434
0.244659
0.256482
0.267588
0.274988
0.275114
0.265011
0.24273
0.210878
0.186421
0.210914
0.310871
0.471801
0.677704
0.913778
1.17349
1.52969
1.42329
0.00312718
0.00308248
0.00308797
0.00306454
0.00294182
0.00327622
0.00321019
0.000606291
0.000314325
0.000235472
0.0939433
0.601216
1.64605
2.50433
2.43483
1.73058
1.05337
0.696491
0.519659
0.420146
0.363839
0.337271
0.329263
0.33387
0.346467
0.362745
0.379026
0.391277
0.394638
0.383835
0.354212
0.303718
0.240726
0.209802
0.290181
0.472272
0.713233
0.986156
1.26986
1.60413
1.59739
0.00232172
0.00230024
0.00231676
0.0023416
0.00232411
0.0022498
0.00249173
0.00231141
0.00090921
8.21349e-05
0.00132077
0.0218672
0.251154
0.990494
2.08439
2.6989
2.4227
1.69558
1.07694
0.749404
0.58956
0.51079
0.476864
0.469947
0.480444
0.501022
0.525174
0.545681
0.555256
0.546817
0.513449
0.44849
0.348934
0.229806
0.199351
0.376626
0.647157
0.950828
1.25496
1.5612
1.64438
0.00173103
0.00172065
0.00173748
0.0017646
0.00178937
0.00177467
0.00174675
0.00184152
0.00188307
0.00100901
6.77832e-05
0.000282792
4.31619e-05
0.0632158
0.434656
1.32075
2.37074
2.81215
2.44917
1.74285
1.16026
0.858753
0.730073
0.678381
0.667242
0.681222
0.708815
0.738965
0.761326
0.764973
0.73842
0.670748
0.553646
0.383201
0.163743
0.138801
0.443046
0.772113
1.08855
1.36937
1.51628
0.00129323
0.00128869
0.00130064
0.00132506
0.00135102
0.00137141
0.00136838
0.00135007
0.00138548
0.00145757
0.0010364
8.07463e-05
1.58173e-05
0.00100208
0.006153
0.121393
0.595185
1.53975
2.53193
2.90314
2.54583
1.91275
1.39954
1.10881
0.983378
0.95021
0.960632
0.987966
1.01708
1.0343
1.02539
0.976963
0.878359
0.72395
0.518592
0.302508
0.284132
0.532901
0.815964
1.04975
1.2064
0.000966709
0.000965281
0.000973229
0.000991756
0.00101519
0.00103751
0.00105498
0.00105999
0.00104859
0.00106052
0.00110901
0.000984844
0.000311842
3.05957e-05
7.75521e-05
0.0021582
0.0177177
0.171102
0.68993
1.63468
2.60099
3.00828
2.81127
2.35707
1.91069
1.59218
1.4204
1.36025
1.36407
1.38759
1.3991
1.37977
1.32061
1.21987
1.08652
0.945694
0.843578
0.829129
0.895514
0.959927
0.970261
0.000722018
0.000722314
0.000727367
0.000740688
0.000759555
0.000779753
0.00079845
0.000814181
0.000822466
0.000819645
0.000818777
0.000857036
0.000829176
0.000591161
1.60736e-06
2.39015e-06
0.000306297
0.00322053
0.0215543
0.185409
0.692081
1.56012
2.46408
3.04123
3.17525
3.00651
2.71874
2.42576
2.18853
2.029
1.94027
1.8989
1.87591
1.84866
1.80928
1.765
1.73087
1.71499
1.71504
1.70013
1.56238
0.000538051
0.000539262
0.000542434
0.000551847
0.000566231
0.000582805
0.000599705
0.000615599
0.00062959
0.000639468
0.000641611
0.00064216
0.000654438
0.000678817
0.000592125
0.000142806
1.81536e-05
5.98829e-07
0.00041549
0.00336925
0.0197118
0.151038
0.513468
1.15251
1.95536
2.70967
3.24417
3.51436
3.5783
3.51033
3.36013
3.16728
2.97218
2.81064
2.70689
2.66767
2.68731
2.74629
2.82281
2.89459
2.81039
0.000399594
0.000401116
0.000403111
0.000409715
0.000420448
0.000433352
0.00044721
0.000461313
0.000474866
0.000487076
0.000496995
0.000502362
0.000504817
0.000507036
0.000538587
0.000500081
0.000392582
5.10578e-05
9.37328e-06
1.04349e-07
0.000451029
0.00230806
0.00636475
0.0606362
0.231221
0.582576
1.12845
1.8141
2.53913
3.20495
3.74601
4.13286
4.36433
4.45675
4.44072
4.35642
4.25166
4.16271
4.12197
4.15936
4.12431
0.000296269
0.000297731
0.000299056
0.000303738
0.000311646
0.00032139
0.000332192
0.000343624
0.000355238
0.000366475
0.000376846
0.000385827
0.000392836
0.000395848
0.000401209
0.000410245
0.000422083
0.000375589
0.000275889
9.52537e-06
4.30689e-06
4.16211e-08
0.000110044
0.00113327
0.00317656
0.00745969
0.0463992
0.155246
0.377212
0.740376
1.24968
1.88101
2.58776
3.3137
4.00039
4.59314
5.06223
5.40098
5.62796
5.7992
5.82497
0.000221756
0.000223079
0.000224087
0.000227588
0.000233556
0.000240998
0.000249379
0.000258453
0.000267907
0.000277404
0.000286609
0.000295227
0.000303038
0.000309652
0.000314314
0.000318517
0.000323463
0.000332621
0.000341279
0.000293426
0.000184649
3.90855e-06
2.90944e-06
2.67105e-07
0
0.000139995
0.000950523
0.00169079
0.000330832
0.00850555
0.0423975
0.126847
0.29025
0.559684
0.953154
1.47033
2.09325
2.79251
3.52276
4.25619
4.87627
0.00016908
0.000170268
0.000171107
0.000173836
0.000178459
0.000184253
0.00019086
0.000198125
0.000205856
0.000213794
0.000221698
0.000229364
0.000236594
0.000243275
0.000249155
0.000254203
0.000257913
0.000261812
0.000267005
0.000277768
0.000277322
0.000230596
0.000159806
2.55848e-05
4.83248e-06
1.03266e-06
1.17442e-07
0
3.14835e-06
0.000147301
0.000854098
0.00131645
0.00190757
0.000714516
0.0117994
0.0454473
0.119493
0.253018
0.46334
0.764278
1.14968
0.000131284
0.000132302
0.00013301
0.000135175
0.000138803
0.000143358
0.000148592
0.000154399
0.000160661
0.000167191
0.000173828
0.000180441
0.000186882
0.000193015
0.00019873
0.000203968
0.000208617
0.000212542
0.000215577
0.000219887
0.000225978
0.000232454
0.000231161
0.000207628
0.000159497
0.000102473
1.27542e-05
3.10077e-06
8.35903e-07
4.43974e-07
1.29757e-08
0
0
5.71096e-06
0.000256443
0.000973952
0.00135668
0.00072719
5.03597e-05
0.00243595
0.0143605
0.000103321
0.00010417
0.000104771
0.000106512
0.000109388
0.000113005
0.000117181
0.000121844
0.0001269
0.00013223
0.000137714
0.000143261
0.000148777
0.000154164
0.000159329
0.000164204
0.000168745
0.000172909
0.000176579
0.000179807
0.000182784
0.000186701
0.000190955
0.000196879
0.000197285
0.000192476
0.000172414
0.000137307
9.68289e-05
5.42795e-05
1.73036e-06
1.37166e-06
6.26127e-07
4.04472e-07
1.73717e-07
2.00003e-10
0
0
8.14337e-07
4.15972e-05
0.000403129
8.21926e-05
8.28929e-05
8.34124e-05
8.48265e-05
8.71274e-05
9.00208e-05
9.33743e-05
9.71332e-05
0.000101225
0.000105565
0.000110064
0.000114651
0.00011927
0.000123846
0.000128314
0.000132621
0.000136719
0.000140579
0.000144171
0.000147507
0.000150408
0.000153008
0.000155461
0.000158512
0.000162338
0.00016607
0.000170634
0.000171787
0.000168376
0.000161207
0.000143473
0.000118368
8.97061e-05
6.01968e-05
2.74572e-05
3.42229e-08
6.32773e-07
4.58969e-07
3.35795e-07
2.16291e-07
1.15144e-07
6.59467e-05
6.6519e-05
6.69714e-05
6.81277e-05
6.99809e-05
7.23082e-05
7.50145e-05
7.80524e-05
8.13685e-05
8.48962e-05
8.85697e-05
9.23384e-05
9.61581e-05
9.99745e-05
0.000103741
0.000107414
0.00011096
0.000114348
0.000117551
0.00012059
0.000123346
0.000125788
0.000128021
0.000129988
0.000131957
0.000134004
0.000136517
0.00013954
0.000142697
0.000145681
0.000148956
0.00014989
0.000148091
0.000143858
0.000136397
0.000122838
0.000105909
8.58827e-05
6.55528e-05
4.41903e-05
2.4958e-05
5.32805e-05
5.37478e-05
5.41439e-05
5.5095e-05
5.65945e-05
5.84759e-05
6.06676e-05
6.313e-05
6.58207e-05
6.86861e-05
7.16799e-05
7.47607e-05
7.78902e-05
8.10325e-05
8.41515e-05
8.72127e-05
9.01901e-05
9.30576e-05
9.57929e-05
9.84074e-05
0.000100796
0.000102934
0.00010492
0.000106682
0.000108243
0.000109657
0.000110955
0.000112236
0.000113602
0.000115087
0.00011686
0.000118853
0.000120922
0.000122832
0.000124703
0.000126497
0.000127066
0.000126322
0.00012425
0.00012057
0.000116002
4.32924e-05
4.36735e-05
4.40203e-05
4.48065e-05
4.60245e-05
4.75516e-05
4.93313e-05
5.13313e-05
5.35155e-05
5.58424e-05
5.82765e-05
6.0783e-05
6.33305e-05
6.58943e-05
6.84448e-05
7.09555e-05
7.34035e-05
7.57687e-05
7.80298e-05
8.01968e-05
8.21731e-05
8.39362e-05
8.55655e-05
8.70117e-05
8.82809e-05
8.93979e-05
9.03726e-05
9.121e-05
9.19245e-05
9.25358e-05
9.30668e-05
9.35583e-05
9.40545e-05
9.45732e-05
9.51319e-05
9.57466e-05
9.64075e-05
9.71068e-05
9.77378e-05
9.84396e-05
9.82649e-05
3.53411e-05
3.56529e-05
3.59575e-05
3.66099e-05
3.76031e-05
3.88474e-05
4.02964e-05
4.1924e-05
4.36983e-05
4.55878e-05
4.75625e-05
4.95949e-05
5.16601e-05
5.37364e-05
5.58009e-05
5.7834e-05
5.98147e-05
6.17273e-05
6.35519e-05
6.52966e-05
6.68758e-05
6.82709e-05
6.95493e-05
7.06662e-05
7.16252e-05
7.24441e-05
7.31335e-05
7.36986e-05
7.4144e-05
7.44744e-05
7.46924e-05
7.48019e-05
7.48126e-05
7.47357e-05
7.45769e-05
7.43333e-05
7.40342e-05
7.37038e-05
7.32937e-05
7.30567e-05
7.18859e-05
2.89627e-05
2.92168e-05
2.94858e-05
3.00302e-05
3.08437e-05
3.18606e-05
3.30437e-05
3.43698e-05
3.58124e-05
3.7346e-05
3.89453e-05
4.05895e-05
4.22579e-05
4.39287e-05
4.55867e-05
4.72158e-05
4.87987e-05
5.03213e-05
5.17667e-05
5.31403e-05
5.4369e-05
5.54373e-05
5.64051e-05
5.72336e-05
5.7923e-05
5.84858e-05
5.8931e-05
5.92645e-05
5.94905e-05
5.96147e-05
5.96423e-05
5.95771e-05
5.94256e-05
5.91942e-05
5.88841e-05
5.84901e-05
5.80318e-05
5.752e-05
5.69014e-05
5.64162e-05
5.50214e-05
2.38103e-05
2.40194e-05
2.42585e-05
2.47145e-05
2.5384e-05
2.6218e-05
2.71867e-05
2.8269e-05
2.94431e-05
3.06872e-05
3.19811e-05
3.33084e-05
3.46508e-05
3.59876e-05
3.73096e-05
3.8603e-05
3.98538e-05
4.10491e-05
4.21755e-05
4.32358e-05
4.4168e-05
4.49608e-05
4.56675e-05
4.62552e-05
4.67232e-05
4.70826e-05
4.73389e-05
4.74974e-05
4.75622e-05
4.75391e-05
4.74331e-05
4.72496e-05
4.69951e-05
4.66764e-05
4.62961e-05
4.58522e-05
4.53627e-05
4.48366e-05
4.42247e-05
4.37544e-05
4.2413e-05
1.96254e-05
1.97982e-05
2.00124e-05
2.03973e-05
2.09513e-05
2.16382e-05
2.2434e-05
2.33192e-05
2.4276e-05
2.52856e-05
2.6332e-05
2.74012e-05
2.84771e-05
2.95431e-05
3.05909e-05
3.16098e-05
3.2589e-05
3.35168e-05
3.43815e-05
3.51853e-05
3.58764e-05
3.64465e-05
3.69437e-05
3.73408e-05
3.76363e-05
3.78394e-05
3.79566e-05
3.79921e-05
3.79498e-05
3.78348e-05
3.76517e-05
3.74056e-05
3.7103e-05
3.67492e-05
3.63469e-05
3.58951e-05
3.54097e-05
3.48981e-05
3.4317e-05
3.38808e-05
3.26143e-05
1.62093e-05
1.63552e-05
1.65477e-05
1.68754e-05
1.7337e-05
1.79057e-05
1.85615e-05
1.92874e-05
2.00682e-05
2.08884e-05
2.17342e-05
2.25943e-05
2.34548e-05
2.43031e-05
2.51294e-05
2.59269e-05
2.66868e-05
2.73996e-05
2.80555e-05
2.86557e-05
2.91574e-05
2.95552e-05
2.98916e-05
3.01448e-05
3.03141e-05
3.04061e-05
3.04268e-05
3.03804e-05
3.02709e-05
3.01025e-05
2.98799e-05
2.96073e-05
2.92906e-05
2.89345e-05
2.85424e-05
2.81136e-05
2.76617e-05
2.71925e-05
2.66696e-05
2.62865e-05
2.51357e-05
1.34102e-05
1.35347e-05
1.37101e-05
1.39917e-05
1.43787e-05
1.48522e-05
1.53949e-05
1.59921e-05
1.66306e-05
1.72977e-05
1.79816e-05
1.86727e-05
1.93601e-05
2.00331e-05
2.06818e-05
2.1302e-05
2.18871e-05
2.24294e-05
2.29209e-05
2.3362e-05
2.37182e-05
2.3986e-05
2.42028e-05
2.4351e-05
2.44302e-05
2.44461e-05
2.44042e-05
2.43078e-05
2.41609e-05
2.39673e-05
2.37315e-05
2.34575e-05
2.31508e-05
2.28154e-05
2.24543e-05
2.20675e-05
2.16659e-05
2.12538e-05
2.08026e-05
2.04777e-05
1.94681e-05
1.11085e-05
1.12175e-05
1.13779e-05
1.16224e-05
1.19499e-05
1.23466e-05
1.27981e-05
1.32915e-05
1.38154e-05
1.43593e-05
1.49131e-05
1.54685e-05
1.60174e-05
1.65505e-05
1.70583e-05
1.75384e-05
1.79862e-05
1.83949e-05
1.87586e-05
1.90774e-05
1.93237e-05
1.94953e-05
1.96252e-05
1.9699e-05
1.97168e-05
1.96839e-05
1.96051e-05
1.94836e-05
1.93229e-05
1.91264e-05
1.88979e-05
1.86412e-05
1.83605e-05
1.80596e-05
1.77407e-05
1.74044e-05
1.70594e-05
1.67081e-05
1.63308e-05
1.60598e-05
1.52001e-05
9.21015e-06
9.30755e-06
9.45628e-06
9.67046e-06
9.9502e-06
1.02855e-05
1.06636e-05
1.10732e-05
1.1505e-05
1.19498e-05
1.23996e-05
1.28469e-05
1.32857e-05
1.37074e-05
1.41046e-05
1.44751e-05
1.4816e-05
1.51222e-05
1.53887e-05
1.56154e-05
1.57806e-05
1.58836e-05
1.59522e-05
1.5976e-05
1.59547e-05
1.58931e-05
1.57955e-05
1.5665e-05
1.55047e-05
1.53178e-05
1.51074e-05
1.48767e-05
1.46292e-05
1.4368e-05
1.40952e-05
1.38114e-05
1.35237e-05
1.32323e-05
1.29273e-05
1.27035e-05
1.19969e-05
7.64089e-06
7.73037e-06
7.86873e-06
8.0588e-06
8.30033e-06
8.5859e-06
8.90468e-06
9.24701e-06
9.60467e-06
9.97032e-06
1.03369e-05
1.06984e-05
1.10496e-05
1.13836e-05
1.16945e-05
1.19803e-05
1.22389e-05
1.24672e-05
1.26607e-05
1.28197e-05
1.29271e-05
1.29837e-05
1.30123e-05
1.30052e-05
1.29624e-05
1.28882e-05
1.27862e-05
1.26595e-05
1.25103e-05
1.23415e-05
1.21559e-05
1.1956e-05
1.1745e-05
1.15252e-05
1.12987e-05
1.10659e-05
1.08328e-05
1.05971e-05
1.03588e-05
1.01739e-05
9.61603e-06
6.34091e-06
6.4249e-06
6.555e-06
6.72518e-06
6.93581e-06
7.18127e-06
7.45226e-06
7.74035e-06
8.03872e-06
8.34108e-06
8.64152e-06
8.93503e-06
9.21736e-06
9.48291e-06
9.72715e-06
9.94769e-06
1.01437e-05
1.0313e-05
1.04527e-05
1.05625e-05
1.06294e-05
1.06543e-05
1.0657e-05
1.06314e-05
1.05779e-05
1.05002e-05
1.04014e-05
1.02841e-05
1.01508e-05
1.00037e-05
9.84521e-06
9.67745e-06
9.50281e-06
9.32327e-06
9.14076e-06
8.95533e-06
8.7722e-06
8.58681e-06
8.40851e-06
8.254e-06
7.83938e-06
5.26238e-06
5.34283e-06
5.46549e-06
5.61958e-06
5.80508e-06
6.01817e-06
6.25065e-06
6.49524e-06
6.74613e-06
6.99807e-06
7.24611e-06
7.48606e-06
7.71431e-06
7.92685e-06
8.11998e-06
8.29135e-06
8.44096e-06
8.5676e-06
8.66898e-06
8.74515e-06
8.78667e-06
8.79438e-06
8.78462e-06
8.75264e-06
8.69899e-06
8.62685e-06
8.53904e-06
8.43766e-06
8.3247e-06
8.20209e-06
8.07186e-06
7.9359e-06
7.79603e-06
7.65379e-06
7.5111e-06
7.36789e-06
7.22861e-06
7.08669e-06
6.95978e-06
6.82931e-06
6.54042e-06
4.36635e-06
4.44458e-06
4.56093e-06
4.70151e-06
4.8667e-06
5.05364e-06
5.255e-06
5.46465e-06
5.67743e-06
5.88926e-06
6.09572e-06
6.29358e-06
6.47969e-06
6.65116e-06
6.80489e-06
6.93902e-06
7.0536e-06
7.14832e-06
7.22177e-06
7.2737e-06
7.2972e-06
7.29363e-06
7.27651e-06
7.24204e-06
7.19096e-06
7.12618e-06
7.05004e-06
6.96435e-06
6.87086e-06
6.77131e-06
6.66731e-06
6.56042e-06
6.4521e-06
6.34357e-06
6.23639e-06
6.13037e-06
6.02956e-06
5.92553e-06
5.84328e-06
5.73041e-06
5.56073e-06
3.62167e-06
3.69847e-06
3.80904e-06
3.93856e-06
4.0872e-06
4.25263e-06
4.42884e-06
4.61009e-06
4.79239e-06
4.972e-06
5.1457e-06
5.31043e-06
5.4641e-06
5.60427e-06
5.72903e-06
5.83636e-06
5.92709e-06
6.00098e-06
6.05757e-06
6.09637e-06
6.11293e-06
6.10795e-06
6.09271e-06
6.06403e-06
6.02268e-06
5.971e-06
5.91109e-06
5.8444e-06
5.77232e-06
5.69626e-06
5.61757e-06
5.53762e-06
5.45739e-06
5.37788e-06
5.30053e-06
5.22508e-06
5.15509e-06
5.08108e-06
5.03273e-06
4.93442e-06
4.85299e-06
3.0026e-06
3.07842e-06
3.18383e-06
3.30393e-06
3.43889e-06
3.58679e-06
3.74218e-06
3.90029e-06
4.05778e-06
4.2116e-06
4.35912e-06
4.49777e-06
4.62589e-06
4.74151e-06
4.84311e-06
4.92909e-06
5.00014e-06
5.05651e-06
5.0982e-06
5.12484e-06
5.13362e-06
5.12564e-06
5.11004e-06
5.0844e-06
5.04961e-06
5.00771e-06
4.96045e-06
4.90904e-06
4.85467e-06
4.79844e-06
4.74141e-06
4.68463e-06
4.6289e-06
4.57488e-06
4.52375e-06
4.47504e-06
4.43229e-06
4.3848e-06
4.36675e-06
4.27852e-06
4.28682e-06
2.48813e-06
2.5631e-06
2.66352e-06
2.77565e-06
2.89905e-06
3.03205e-06
3.17016e-06
3.30915e-06
3.44631e-06
3.57931e-06
3.70603e-06
3.82452e-06
3.93351e-06
4.03191e-06
4.11879e-06
4.19326e-06
4.25557e-06
4.30616e-06
4.34512e-06
4.37223e-06
4.38556e-06
4.3855e-06
4.37949e-06
4.36547e-06
4.34417e-06
4.31736e-06
4.28639e-06
4.25223e-06
4.21584e-06
4.17818e-06
4.1401e-06
4.10247e-06
4.06589e-06
4.03093e-06
3.9987e-06
3.96871e-06
3.94397e-06
3.91425e-06
3.91347e-06
3.83853e-06
3.88798e-06
2.06053e-06
2.13496e-06
2.23098e-06
2.33588e-06
2.44894e-06
2.5688e-06
2.69194e-06
2.81478e-06
2.93513e-06
3.05103e-06
3.16087e-06
3.26296e-06
3.35601e-06
3.43841e-06
3.50915e-06
3.56805e-06
3.61583e-06
3.65345e-06
3.68153e-06
3.69991e-06
3.70779e-06
3.70625e-06
3.70085e-06
3.69001e-06
3.67444e-06
3.65571e-06
3.63493e-06
3.61288e-06
3.59029e-06
3.56788e-06
3.54626e-06
3.526e-06
3.5075e-06
3.49108e-06
3.47758e-06
3.46628e-06
3.46026e-06
3.44862e-06
3.46789e-06
3.39752e-06
3.51833e-06
1.70636e-06
1.78055e-06
1.87272e-06
1.97132e-06
2.07466e-06
2.18214e-06
2.2912e-06
2.39966e-06
2.50567e-06
2.60776e-06
2.70427e-06
2.79439e-06
2.87785e-06
2.9551e-06
3.02567e-06
3.08836e-06
3.14197e-06
3.1869e-06
3.22343e-06
3.25188e-06
3.27164e-06
3.28267e-06
3.28984e-06
3.29177e-06
3.28913e-06
3.28333e-06
3.27523e-06
3.26552e-06
3.25486e-06
3.24395e-06
3.23335e-06
3.22365e-06
3.21521e-06
3.20835e-06
3.20391e-06
3.2015e-06
3.20327e-06
3.20047e-06
3.22357e-06
3.17305e-06
3.28583e-06
1.41652e-06
1.48952e-06
1.57715e-06
1.66923e-06
1.76358e-06
1.85957e-06
1.95551e-06
2.05015e-06
2.14272e-06
2.23256e-06
2.31807e-06
2.39704e-06
2.46679e-06
2.52533e-06
2.57265e-06
2.61189e-06
2.64545e-06
2.67423e-06
2.69829e-06
2.71708e-06
2.73047e-06
2.73965e-06
2.7474e-06
2.75249e-06
2.7553e-06
2.75694e-06
2.75808e-06
2.75914e-06
2.76049e-06
2.76259e-06
2.76572e-06
2.77018e-06
2.77614e-06
2.78371e-06
2.79337e-06
2.80442e-06
2.81945e-06
2.8285e-06
2.86579e-06
2.80974e-06
2.99491e-06
1.18101e-06
1.25085e-06
1.33114e-06
1.41394e-06
1.49783e-06
1.58305e-06
1.66838e-06
1.75211e-06
1.83302e-06
1.91088e-06
1.98649e-06
2.06156e-06
2.13767e-06
2.21539e-06
2.29202e-06
2.36111e-06
2.41879e-06
2.46665e-06
2.50674e-06
2.54044e-06
2.56785e-06
2.58836e-06
2.60578e-06
2.61924e-06
2.62947e-06
2.63752e-06
2.64404e-06
2.64954e-06
2.65453e-06
2.65958e-06
2.66516e-06
2.67178e-06
2.67973e-06
2.68931e-06
2.70118e-06
2.71534e-06
2.73279e-06
2.74812e-06
2.78207e-06
2.76316e-06
2.88735e-06
9.8388e-07
1.0518e-06
1.12468e-06
1.19578e-06
1.26553e-06
1.33645e-06
1.40964e-06
1.4847e-06
1.55992e-06
1.63209e-06
1.69689e-06
1.75014e-06
1.78966e-06
1.81606e-06
1.83485e-06
1.85708e-06
1.88685e-06
1.91936e-06
1.95161e-06
1.98158e-06
2.00938e-06
2.03591e-06
2.06164e-06
2.08558e-06
2.10791e-06
2.12932e-06
2.15018e-06
2.17067e-06
2.19096e-06
2.21128e-06
2.2318e-06
2.25264e-06
2.27392e-06
2.29562e-06
2.31807e-06
2.34063e-06
2.36556e-06
2.38439e-06
2.42696e-06
2.3797e-06
2.59657e-06
8.17561e-07
8.91277e-07
9.65272e-07
1.03133e-06
1.08923e-06
1.14267e-06
1.19487e-06
1.24881e-06
1.30754e-06
1.37417e-06
1.45127e-06
1.54009e-06
1.63939e-06
1.74564e-06
1.85031e-06
1.93612e-06
1.99829e-06
2.04814e-06
2.09037e-06
2.12687e-06
2.15722e-06
2.18175e-06
2.2031e-06
2.22094e-06
2.23612e-06
2.24957e-06
2.26192e-06
2.27372e-06
2.28551e-06
2.29791e-06
2.31145e-06
2.32669e-06
2.34397e-06
2.36371e-06
2.38652e-06
2.4129e-06
2.44264e-06
2.47473e-06
2.51648e-06
2.54011e-06
2.64173e-06
6.97043e-07
7.69515e-07
8.41619e-07
9.08725e-07
9.69122e-07
1.02269e-06
1.06845e-06
1.10534e-06
1.13329e-06
1.15333e-06
1.16738e-06
1.17762e-06
1.18652e-06
1.19465e-06
1.20449e-06
1.23033e-06
1.27298e-06
1.32057e-06
1.36938e-06
1.41696e-06
1.46288e-06
1.50733e-06
1.55054e-06
1.59215e-06
1.63196e-06
1.67017e-06
1.70695e-06
1.74231e-06
1.77621e-06
1.80864e-06
1.83957e-06
1.86892e-06
1.8967e-06
1.9227e-06
1.94706e-06
1.9692e-06
1.99092e-06
2.00546e-06
2.0365e-06
1.98855e-06
2.1911e-06
7.60504e-07
8.60019e-07
9.16296e-07
9.30891e-07
9.2128e-07
9.12489e-07
9.27405e-07
9.7788e-07
1.06168e-06
1.16722e-06
1.2809e-06
1.39165e-06
1.49205e-06
1.5796e-06
1.65205e-06
1.69527e-06
1.71119e-06
1.71431e-06
1.71207e-06
1.70751e-06
1.69932e-06
1.69371e-06
1.68633e-06
1.67887e-06
1.6723e-06
1.66695e-06
1.66302e-06
1.6608e-06
1.66057e-06
1.66257e-06
1.66696e-06
1.67387e-06
1.68327e-06
1.69517e-06
1.70974e-06
1.7274e-06
1.74683e-06
1.76912e-06
1.79436e-06
1.81387e-06
1.89429e-06
6.5173
7.24709
7.2372
6.92267
6.11882
4.87786
3.33789
1.73574
0.455934
0.126752
0.0605112
0.000751282
3.49467e-06
0.000195842
0.000445519
0.000412744
0.000378218
0.000351834
0.000334445
0.000311617
0.00028974
0.000263753
0.000236589
0.000208784
0.000181374
0.000155587
0.000131826
0.000110918
9.26688e-05
7.73589e-05
6.44619e-05
5.39961e-05
4.54735e-05
3.8565e-05
3.30213e-05
2.84991e-05
2.47705e-05
2.16577e-05
1.89755e-05
1.66317e-05
1.45748e-05
1.2663e-05
1.08948e-05
9.30097e-06
7.74704e-06
6.37898e-06
5.09027e-06
3.92567e-06
3.01406e-06
2.41789e-06
2.16077e-06
2.3677e-06
2.75387e-06
3.22052e-06
3.6726e-06
4.04613e-06
4.37386e-06
4.61521e-06
4.7849e-06
4.88462e-06
4.91111e-06
4.88831e-06
4.80317e-06
4.67232e-06
4.51279e-06
4.30226e-06
4.09662e-06
3.84844e-06
3.60562e-06
3.33493e-06
3.10298e-06
2.80458e-06
2.66022e-06
2.36372e-06
6.68759
10.0978
10.1276
9.42856
8.41618
7.05537
5.34211
3.39241
1.54228
0.259151
0.120321
0.0233433
0.0011864
1.60208e-05
0.00033365
0.000438545
0.000388711
0.00034989
0.000326547
0.000300906
0.000277025
0.000251006
0.000224476
0.000197998
0.000172133
0.000148102
0.000125833
0.000106166
8.89983e-05
7.45452e-05
6.22389e-05
5.21391e-05
4.39086e-05
3.7132e-05
3.1722e-05
2.72848e-05
2.36114e-05
2.05642e-05
1.79303e-05
1.56557e-05
1.36881e-05
1.18304e-05
1.01538e-05
8.64907e-06
7.17655e-06
5.92226e-06
4.71364e-06
3.65753e-06
2.86274e-06
2.39103e-06
2.21682e-06
2.44801e-06
2.80983e-06
3.23723e-06
3.64506e-06
3.98212e-06
4.27348e-06
4.48596e-06
4.63147e-06
4.7133e-06
4.72399e-06
4.69311e-06
4.60504e-06
4.46894e-06
4.31343e-06
4.10435e-06
3.90525e-06
3.66804e-06
3.43372e-06
3.17186e-06
2.95432e-06
2.66695e-06
2.53568e-06
2.26416e-06
4.67191
9.94189
11.6559
11.4723
10.6063
9.32318
7.61987
5.51517
3.24566
1.27315
0.105567
0.0905893
0.00663534
0.000239956
4.16085e-06
0.000372942
0.00041463
0.000359622
0.000323766
0.00029401
0.000266271
0.000239229
0.000212674
0.000187158
0.00016275
0.000140283
0.000119719
0.000101305
8.52383e-05
7.15876e-05
5.99455e-05
5.02134e-05
4.22761e-05
3.5647e-05
3.03509e-05
2.59978e-05
2.23874e-05
1.94083e-05
1.68404e-05
1.46538e-05
1.27785e-05
1.10015e-05
9.44422e-06
8.03456e-06
6.68903e-06
5.55192e-06
4.44826e-06
3.55728e-06
2.89232e-06
2.51629e-06
2.40795e-06
2.60519e-06
2.90792e-06
3.26594e-06
3.61192e-06
3.90197e-06
4.1469e-06
4.32404e-06
4.44345e-06
4.50273e-06
4.50384e-06
4.4563e-06
4.36924e-06
4.23437e-06
4.07991e-06
3.88344e-06
3.68345e-06
3.46368e-06
3.24105e-06
2.99344e-06
2.78892e-06
2.51776e-06
2.40214e-06
2.15607e-06
3.17817
8.57245
11.7818
12.6631
12.3183
11.3228
9.82182
7.80929
5.39714
2.94531
0.977132
0.0588676
0.0596806
0.00261072
2.90185e-05
1.50124e-05
0.000348919
0.0003752
0.000326329
0.000290543
0.000259277
0.000230695
0.000203687
0.000178645
0.000155329
0.000134082
0.00011483
9.75051e-05
8.23172e-05
6.92697e-05
5.80914e-05
4.8649e-05
4.08953e-05
3.43753e-05
2.91458e-05
2.48445e-05
2.12816e-05
1.83546e-05
1.58539e-05
1.37493e-05
1.19507e-05
1.02654e-05
8.82236e-06
7.50364e-06
6.2863e-06
5.25117e-06
4.25743e-06
3.50854e-06
2.94675e-06
2.62707e-06
2.55301e-06
2.70746e-06
2.95378e-06
3.24749e-06
3.53577e-06
3.78577e-06
3.98823e-06
4.13595e-06
4.23192e-06
4.2741e-06
4.26704e-06
4.21079e-06
4.12477e-06
3.99451e-06
3.84421e-06
3.66084e-06
3.46631e-06
3.26217e-06
3.05351e-06
2.82093e-06
2.63132e-06
2.37502e-06
2.2772e-06
2.05331e-06
2.33585
7.01292
10.9192
12.8634
13.2903
12.809
11.7124
10.0328
7.78227
5.16168
2.616
0.729182
0.0833949
0.0400162
0.000222909
3.07879e-06
5.72526e-05
0.000338196
0.000337062
0.000290191
0.000254452
0.000224626
0.000197267
0.000172534
0.000150002
0.000129678
0.00011131
9.48076e-05
8.02687e-05
6.76457e-05
5.67495e-05
4.7489e-05
3.98204e-05
3.3351e-05
2.81406e-05
2.38581e-05
2.03225e-05
1.74317e-05
1.49897e-05
1.29535e-05
1.12264e-05
9.6326e-06
8.28783e-06
7.06201e-06
5.95596e-06
5.01415e-06
4.12676e-06
3.47811e-06
2.99108e-06
2.70516e-06
2.63816e-06
2.7489e-06
2.9432e-06
3.18044e-06
3.41689e-06
3.63281e-06
3.79878e-06
3.92388e-06
3.99969e-06
4.03148e-06
4.01645e-06
3.96069e-06
3.8769e-06
3.75267e-06
3.61118e-06
3.43918e-06
3.25732e-06
3.06749e-06
2.87424e-06
2.65653e-06
2.48412e-06
2.24105e-06
2.16225e-06
1.95771e-06
1.89525
5.64795
9.56874
12.2155
13.4127
13.5739
13.0347
11.8818
10.0743
7.65141
4.88986
2.312
0.553092
0.0934427
0.0263452
0.00431699
4.7606e-06
8.85965e-05
0.000315306
0.000301129
0.000253687
0.000220315
0.000192506
0.000168038
0.00014624
0.00012679
0.00010915
9.32198e-05
7.90914e-05
6.66999e-05
5.592e-05
4.67178e-05
3.90503e-05
3.25767e-05
2.73453e-05
2.30519e-05
1.95216e-05
1.66515e-05
1.42556e-05
1.22784e-05
1.06187e-05
9.11109e-06
7.85647e-06
6.72439e-06
5.71734e-06
4.86754e-06
4.07707e-06
3.50721e-06
3.07312e-06
2.81036e-06
2.72686e-06
2.78873e-06
2.92664e-06
3.10745e-06
3.29388e-06
3.47096e-06
3.60354e-06
3.70625e-06
3.76433e-06
3.78681e-06
3.7663e-06
3.71195e-06
3.63211e-06
3.5148e-06
3.38365e-06
3.22369e-06
3.05616e-06
2.88084e-06
2.70321e-06
2.50026e-06
2.34586e-06
2.11547e-06
2.05602e-06
1.86852e-06
1.72357
4.55701
8.09774
10.9963
12.7574
13.5378
13.6109
13.0904
11.9226
10.0283
7.48148
4.63753
2.06783
0.448889
0.0917253
0.0181349
0.00321368
6.73002e-06
8.30445e-05
0.000278896
0.000264379
0.000220092
0.000189627
0.000165205
0.000143651
0.000124732
0.000107783
9.24206e-05
7.86785e-05
6.64548e-05
5.56826e-05
4.64085e-05
3.86338e-05
3.20726e-05
2.67632e-05
2.24251e-05
1.88791e-05
1.60155e-05
1.36545e-05
1.17276e-05
1.01265e-05
8.69807e-06
7.52974e-06
6.48661e-06
5.57129e-06
4.80851e-06
4.10281e-06
3.59896e-06
3.20433e-06
2.95331e-06
2.8426e-06
2.85187e-06
2.93023e-06
3.05198e-06
3.18772e-06
3.32052e-06
3.41999e-06
3.49783e-06
3.53889e-06
3.55042e-06
3.52623e-06
3.47139e-06
3.39608e-06
3.28639e-06
3.16503e-06
3.01829e-06
2.86428e-06
2.70373e-06
2.54157e-06
2.35318e-06
2.2165e-06
1.99839e-06
1.95835e-06
1.78529e-06
1.70355
3.7128
6.70607
9.48752
11.5215
12.7681
13.3921
13.4984
13.0414
11.8846
9.93663
7.3251
4.44406
1.90326
0.408597
0.0877357
0.014181
0.00290612
5.76951e-06
4.84838e-05
0.000232264
0.000233883
0.00019223
0.000164536
0.000143775
0.000125021
0.000107869
9.23979e-05
7.86944e-05
6.65305e-05
5.57692e-05
4.64441e-05
3.85628e-05
3.18844e-05
2.64454e-05
2.20108e-05
1.8408e-05
1.55235e-05
1.31812e-05
1.1293e-05
9.74166e-06
8.38584e-06
7.29767e-06
6.33268e-06
5.50233e-06
4.81504e-06
4.18256e-06
3.72969e-06
3.36675e-06
3.11554e-06
2.97684e-06
2.93527e-06
2.95619e-06
3.01781e-06
3.10153e-06
3.18871e-06
3.25319e-06
3.30447e-06
3.32757e-06
3.32718e-06
3.29857e-06
3.24256e-06
3.17123e-06
3.06959e-06
2.9576e-06
2.82397e-06
2.68291e-06
2.53688e-06
2.39015e-06
2.21609e-06
2.0966e-06
1.88997e-06
1.86932e-06
1.70793e-06
1.75199
3.07218
5.45823
7.90146
9.94015
11.437
12.4603
13.0855
13.2805
12.9056
11.7816
9.83716
7.21779
4.33434
1.8378
0.420129
0.0869713
0.0133301
0.00324812
2.8023e-06
8.93827e-06
0.000176065
0.000207259
0.0001701
0.000143
0.000125793
0.000110502
9.5343e-05
8.10978e-05
6.81853e-05
5.67483e-05
4.69186e-05
3.87036e-05
3.18424e-05
2.62824e-05
2.17719e-05
1.81179e-05
1.51981e-05
1.28501e-05
1.09769e-05
9.46008e-06
8.16754e-06
7.14927e-06
6.25302e-06
5.499e-06
4.87492e-06
4.30428e-06
3.88845e-06
3.54927e-06
3.29132e-06
3.12546e-06
3.03709e-06
3.0039e-06
3.00697e-06
3.03751e-06
3.07939e-06
3.10651e-06
3.12949e-06
3.13267e-06
3.11939e-06
3.08461e-06
3.02715e-06
2.95878e-06
2.86467e-06
2.76184e-06
2.64056e-06
2.51228e-06
2.38021e-06
2.24873e-06
2.08868e-06
1.98601e-06
1.78997e-06
1.78857e-06