/*--------------------------------*- C++ -*----------------------------------*\
| =========                 |                                                 |
| \\      /  F ield         | OpenFOAM: The Open Source CFD Toolbox           |
|  \\    /   O peration     | Version:  2312                                  |
|   \\  /    A nd           | Website:  www.openfoam.com                      |
|    \\/     M anipulation  |                                                 |
\*---------------------------------------------------------------------------*/
FoamFile
{
    version     2.0;
    format      ascii;
    arch        "LSB;label=32;scalar=64";
    class       volSymmTensorField;
    location    "500";
    object      turbulenceProperties:R;
}
// * * * * * * * * * * * * * * * * * * * * * * * * * * * * * * * * * * * * * //

dimensions      [0 2 -2 0 0 0 0];

internalField   nonuniform List<symmTensor> 
11040
(
(0.281188 0.0740045 -1.3031e-22 0.244711 9.22191e-21 0.274693)
(0.355479 0.0745867 8.00872e-21 0.228658 1.15258e-19 0.308771)
(0.0589798 0.00642107 -1.85824e-20 0.0431386 6.01489e-20 0.0496595)
(0.0265494 0.00870776 -5.80293e-20 0.0339902 3.4242e-20 0.0296152)
(0.118214 0.0464428 -2.25358e-20 0.248722 1.93846e-19 0.183518)
(0.133788 0.0586335 -2.99672e-19 0.256562 1.09776e-19 0.194195)
(0.133949 0.0615906 1.71583e-19 0.237909 -1.12661e-18 0.185627)
(0.128575 0.0602921 2.3897e-19 0.213823 -1.61912e-19 0.171066)
(0.121009 0.0568938 1.0225e-19 0.188933 -2.94669e-20 0.154885)
(0.11698 0.054891 9.53015e-20 0.172722 1.51691e-19 0.14487)
(0.11187 0.0519694 -8.38406e-20 0.157199 3.565e-19 0.134514)
(0.107149 0.0491133 -1.25052e-19 0.14367 2.72047e-19 0.125425)
(0.103082 0.0464873 2.07772e-20 0.132288 -1.52871e-19 0.117716)
(0.0995353 0.0440907 2.5365e-20 0.122611 1.51256e-19 0.1111)
(0.0967119 0.0420246 -1.15421e-20 0.114493 1.00197e-20 0.105656)
(0.0951978 0.0406151 -4.48279e-21 0.108569 -1.88942e-19 0.101942)
(0.0951947 0.0399536 5.19752e-20 0.104724 1.41695e-22 0.100039)
(0.0972552 0.0402865 -5.02257e-21 0.103333 3.41742e-19 0.100393)
(0.101501 0.041614 -2.93771e-20 0.104211 3.06456e-21 0.102978)
(0.107825 0.0438115 4.71729e-21 0.107009 -4.97684e-20 0.107564)
(0.116402 0.0468921 2.25423e-20 0.111668 3.81619e-20 0.114197)
(0.126985 0.0507857 -2.45175e-20 0.118135 1.15997e-19 0.122727)
(0.139598 0.0555589 5.73383e-22 0.126636 -9.62607e-20 0.133311)
(0.154737 0.0613207 1.31645e-20 0.137258 2.4782e-19 0.14622)
(0.172879 0.0682209 -7.5701e-20 0.150209 -2.24439e-19 0.161775)
(0.19472 0.07655 -4.02398e-20 0.166001 -5.26515e-19 0.180591)
(0.21941 0.0859152 1.14849e-20 0.183855 -2.46057e-19 0.201845)
(0.244604 0.0953303 3.32591e-20 0.201817 6.88582e-20 0.22339)
(0.268551 0.10412 -2.18165e-20 0.218543 -2.02688e-19 0.243663)
(0.289034 0.111462 1.29303e-20 0.23239 -4.73148e-19 0.26074)
(0.303637 0.116488 1.2021e-19 0.241628 3.39137e-19 0.272549)
(0.310071 0.118377 1.23262e-20 0.244601 -3.56568e-20 0.277151)
(0.307215 0.11674 9.38146e-20 0.240511 9.59187e-19 0.273577)
(0.298704 0.113118 -9.56508e-20 0.232432 5.81764e-19 0.265139)
(0.290358 0.109952 3.70649e-20 0.225287 1.43704e-20 0.257145)
(0.259836 0.0987204 1.19906e-19 0.202335 9.26233e-19 0.230099)
(0.1805 0.0690179 8.73475e-21 0.142908 2.34825e-19 0.160588)
(0.094678 0.0367486 -4.84104e-20 0.078709 4.44169e-19 0.0856167)
(0.0475459 0.0207245 -4.07314e-19 0.0473028 -1.03413e-18 0.0470586)
(0.023861 -0.0101018 -2.88473e-20 0.0421809 -1.0292e-18 0.0296292)
(0.0788869 0.00651132 2.30891e-19 0.19417 6.44457e-20 0.124656)
(0.0241447 -0.00176272 1.75046e-22 0.0212566 -5.03831e-22 0.0219858)
(0.0588632 0.000797864 2.05542e-20 0.0381118 3.52656e-21 0.0405616)
(0.201491 0.0270261 4.71054e-20 0.110819 -2.6093e-19 0.157907)
(0.390729 0.0294129 7.1929e-20 0.164104 -1.64128e-19 0.278631)
(0.808069 -0.0212882 8.22947e-20 0.308492 -4.96055e-19 0.556642)
(0.271103 -0.051545 5.76608e-19 0.125647 -1.2305e-18 0.198084)
(0.0816966 -0.0204644 -8.32163e-19 0.0437179 3.26117e-18 0.0612236)
(0.0290925 -0.00894286 -8.4061e-19 0.0177902 2.16681e-18 0.023806)
(0.00949315 -0.00339029 -7.48584e-20 0.00668787 -1.60369e-19 0.0084827)
(0.000831807 0.000206547 -1.0518e-19 0.00167464 4.00585e-20 0.00166366)
(0.00503419 0.00253054 4.61801e-19 0.00823844 -1.15445e-18 0.00681897)
(0.00795067 0.00399488 -2.0732e-21 0.0118263 -7.70259e-20 0.00999889)
(0.0101793 0.00506634 -1.65166e-19 0.013987 6.75712e-19 0.0121793)
(0.0117353 0.00576308 -1.11322e-19 0.0153253 2.97213e-20 0.0135372)
(0.0129869 0.00626917 -4.43132e-20 0.0159882 -1.66325e-19 0.0144672)
(0.0140809 0.00667001 1.08311e-20 0.0164803 5.74443e-19 0.0152032)
(0.0152453 0.00707393 -1.32626e-20 0.0169715 1.89796e-19 0.0159888)
(0.0167203 0.007597 -8.11687e-21 0.0177567 -5.26543e-19 0.0170748)
(0.0184534 0.0082123 -2.27559e-20 0.0187494 -2.44089e-20 0.018395)
(0.020352 0.00886335 -7.16162e-21 0.0197996 7.90978e-20 0.0198322)
(0.0224714 0.00956122 -1.07979e-20 0.0209211 -1.51228e-20 0.0214275)
(0.0248161 0.0103142 2.9577e-20 0.0221716 -2.69053e-19 0.0231936)
(0.0269092 0.0109537 2.42424e-20 0.023241 3.79506e-19 0.0247264)
(0.0282608 0.0112844 -4.56283e-20 0.023694 -3.47425e-19 0.025595)
(0.0287461 0.0112742 -5.93392e-21 0.0234625 2.83998e-19 0.0257149)
(0.0288746 0.0111453 7.37476e-20 0.0230032 9.19184e-19 0.0255651)
(0.028496 0.0108523 1.37478e-19 0.0222372 5.07149e-19 0.0250266)
(0.0269983 0.0101863 -3.38397e-20 0.0207499 1.42492e-19 0.0236128)
(0.0241425 0.00909762 -9.02451e-20 0.018451 2.80019e-19 0.0211705)
(0.0200769 0.00767664 4.58434e-20 0.0155388 4.93765e-19 0.0178867)
(0.0153592 0.00615182 -1.04863e-19 0.0125531 -7.41109e-19 0.0142926)
(0.0112105 0.00495567 -4.37666e-20 0.0106429 -1.22599e-18 0.0115296)
(0.00888264 0.0044179 -1.02776e-19 0.0112678 -2.50388e-18 0.010977)
(0.00800908 0.00391079 8.68235e-20 0.0146331 -1.20626e-18 0.0125999)
(0.00949496 0.00361518 -9.43806e-20 0.0215204 1.07397e-19 0.0173165)
(0.012879 0.00370937 -3.68253e-19 0.0315723 -3.67149e-18 0.0248269)
(0.0179607 0.0047781 -9.06237e-20 0.0447572 -3.44309e-19 0.0346424)
(0.025603 0.00741559 -4.08014e-19 0.0631796 -1.9989e-18 0.0475477)
(0.0413997 0.0131057 1.14469e-18 0.100145 4.97813e-18 0.0773048)
(0.0460758 0.0198985 8.89739e-19 0.0954663 5.27747e-18 0.0699855)
(0.277047 -0.128052 -3.5067e-19 0.495209 -7.11422e-19 0.464238)
(0.0146741 -0.00149927 -1.95189e-22 0.0130396 -2.88385e-22 0.0139995)
(0.0121785 -0.00191154 -4.86791e-21 0.0126789 -1.2338e-20 0.0123335)
(0.0327012 0.00334332 1.59959e-20 0.0204575 7.8246e-20 0.026009)
(0.148465 0.0151035 5.11489e-20 0.0763825 7.76811e-20 0.113249)
(0.893793 0.0459479 -8.27693e-21 0.34498 -3.74062e-20 0.623011)
(1.25139 -0.0357381 -2.98803e-19 0.477741 1.19455e-18 0.861492)
(0.656424 -0.102469 3.11273e-20 0.285599 2.22939e-20 0.47047)
(0.238378 -0.0579405 9.86561e-20 0.125725 -2.53944e-18 0.176134)
(0.110398 -0.0314438 -1.74746e-19 0.0639877 2.74039e-20 0.0862737)
(0.0661451 -0.019927 2.48642e-19 0.0398582 -7.2205e-19 0.0531869)
(0.0378173 -0.0124422 -4.56338e-19 0.0247111 1.07421e-18 0.0312553)
(0.0223659 -0.00796035 7.86266e-19 0.0158975 -2.14316e-18 0.0190478)
(0.012075 -0.00445286 -4.00738e-20 0.00892317 -7.10253e-20 0.0105106)
(0.00540781 -0.00209299 1.57539e-19 0.00427844 -9.29446e-19 0.00478223)
(0.00137574 -0.000373961 2.59631e-20 0.000763094 9.76569e-19 0.00108953)
(0.00225943 0.000878529 -8.00931e-20 0.00178598 -3.73725e-19 0.00202685)
(0.00437193 0.0017514 -3.68939e-21 0.00359609 -6.3157e-19 0.00400652)
(0.00602454 0.0023458 4.26964e-20 0.0047673 -4.5255e-19 0.00542159)
(0.0073436 0.00274647 2.00178e-20 0.00552023 -2.57224e-20 0.00645727)
(0.00842168 0.00299068 2.66935e-20 0.00595826 2.86449e-20 0.00721541)
(0.00930567 0.00309633 3.88725e-21 0.00614684 8.67045e-20 0.00775444)
(0.0100369 0.00304066 -4.43265e-20 0.00608054 1.38539e-19 0.00809982)
(0.010333 0.00269287 -3.85322e-20 0.00559489 -4.53192e-19 0.00801334)
(0.0100826 0.00200407 -4.00654e-20 0.00474126 -1.81019e-19 0.00746018)
(0.00950379 0.00104831 8.25006e-20 0.00386119 -2.83726e-19 0.00671718)
(0.00898519 -6.20069e-05 -1.24984e-20 0.00340803 -2.63234e-19 0.0062136)
(0.00874183 -0.00122779 -2.28135e-19 0.00371199 2.67859e-19 0.00621255)
(0.00866453 -0.00233523 -7.88893e-20 0.00482267 -1.07883e-18 0.00668245)
(0.00833819 -0.0031802 1.93054e-19 0.00648713 2.66161e-19 0.0072792)
(0.00759249 -0.00357728 2.60639e-19 0.00865898 1.10984e-18 0.00790862)
(0.00710813 -0.00345026 -1.94895e-19 0.012229 6.17454e-19 0.00937664)
(0.00848906 -0.00301532 4.36841e-19 0.0193 2.60494e-18 0.0135453)
(0.0124143 -0.00252998 1.66612e-19 0.0312675 7.84465e-19 0.0214451)
(0.0180802 -0.00121027 -4.26716e-19 0.0472283 8.93353e-19 0.0322331)
(0.0257326 0.00108719 -4.66476e-19 0.0675368 -9.42373e-19 0.0462922)
(0.0358115 0.00475864 3.4101e-19 0.0929586 1.92382e-18 0.0643517)
(0.0489746 0.0104839 3.53077e-19 0.124024 -2.02696e-18 0.0867607)
(0.0666061 0.0184767 4.41131e-19 0.163085 1.82355e-18 0.114698)
(0.100645 0.0321435 -4.27022e-19 0.242496 -9.16797e-19 0.1775)
(0.161688 0.0755097 -8.95355e-21 0.293397 -5.17785e-19 0.216742)
(0.199567 -0.0022952 3.38188e-19 0.528738 1.67098e-18 0.369661)
(0.0107969 -0.00105525 -6.35352e-23 0.00919752 -2.78327e-22 0.010054)
(0.00837336 -0.000995 -1.46052e-22 0.00850705 9.62207e-22 0.00853822)
(0.00673644 -0.00110604 -7.72872e-21 0.00767007 -1.76144e-20 0.00722824)
(0.011914 0.000699466 -1.05651e-20 0.00871624 -2.04778e-20 0.0102411)
(0.19714 0.0180387 3.55493e-20 0.0846541 4.14805e-20 0.141502)
(1.02152 0.0395309 2.38229e-19 0.390344 1.4195e-20 0.711495)
(1.59852 -0.0458655 2.57134e-19 0.610059 -1.39946e-18 1.10091)
(1.09499 -0.142652 9.15843e-19 0.455921 -1.43088e-18 0.782546)
(0.443444 -0.101255 -4.16697e-19 0.225221 1.26309e-18 0.325492)
(0.231862 -0.0626993 2.34476e-19 0.129669 4.14523e-19 0.178024)
(0.134387 -0.039202 -3.64076e-19 0.0790337 1.16872e-18 0.106517)
(0.0882972 -0.0281725 -5.98754e-19 0.055982 1.2993e-18 0.0722522)
(0.0604223 -0.0204541 4.80606e-19 0.0405519 -9.78231e-19 0.0506389)
(0.0419788 -0.0151163 -1.1642e-19 0.0302025 9.5852e-19 0.0359844)
(0.0308669 -0.0114003 -2.0385e-19 0.0228491 -1.08792e-18 0.0268595)
(0.0231986 -0.00867308 -1.17275e-19 0.0174505 -4.71151e-19 0.0202745)
(0.0187237 -0.00693411 5.17413e-20 0.0139162 2.32037e-19 0.0162958)
(0.015966 -0.00575328 1.16476e-19 0.0114887 1.39218e-20 0.0137106)
(0.0145547 -0.00508036 3.21522e-20 0.0101075 5.50578e-20 0.0123174)
(0.0141701 -0.00480827 -1.25655e-20 0.00954731 -7.91987e-20 0.0118575)
(0.0145189 -0.00487182 -2.8588e-20 0.00967124 -2.01928e-19 0.0120947)
(0.0156164 -0.00521924 2.53021e-20 0.0103599 -2.86799e-19 0.0129897)
(0.0175985 -0.00592231 2.32756e-20 0.0117527 -1.29307e-19 0.014686)
(0.0202406 -0.00698682 7.85108e-21 0.0138753 1.20089e-19 0.0170759)
(0.0230803 -0.00825844 -7.04856e-20 0.0164581 7.20562e-19 0.0197856)
(0.025686 -0.00956575 2.48544e-19 0.0192002 -8.18217e-19 0.0224569)
(0.0276665 -0.0107756 1.84322e-19 0.021902 -6.27875e-19 0.0248)
(0.0285459 -0.01173 1.99253e-19 0.02439 1.5304e-18 0.0264863)
(0.0279238 -0.0122573 -6.5147e-20 0.02662 4.07115e-19 0.0272906)
(0.0257685 -0.012222 -5.61767e-19 0.0290228 -5.92497e-19 0.0274101)
(0.0228928 -0.0115172 1.88551e-19 0.0329567 -1.07977e-18 0.0279423)
(0.0214237 -0.0100483 -4.64645e-19 0.041172 6.65673e-19 0.0313249)
(0.0237109 -0.00753009 4.3796e-19 0.0565517 -5.65385e-19 0.0401705)
(0.0308407 -0.00344135 4.7661e-19 0.0804657 -1.41855e-18 0.0556955)
(0.0432857 0.00253194 4.65295e-19 0.113814 8.2202e-19 0.078603)
(0.0614679 0.0109784 4.73576e-19 0.157656 1.77283e-18 0.109756)
(0.0861241 0.0229818 3.75455e-19 0.212391 1.83609e-18 0.149396)
(0.118404 0.0389578 -5.66845e-19 0.278901 -2.25813e-18 0.197451)
(0.172962 0.0618954 6.38107e-20 0.40206 -7.98086e-19 0.294104)
(0.295497 0.142526 -2.57772e-19 0.510911 -1.64422e-18 0.388562)
(0.214264 0.0771349 -4.40161e-19 0.497165 -7.846e-19 0.364141)
(0.0080387 -0.000758638 5.36879e-22 0.0068519 1.2808e-21 0.00743978)
(0.00685858 -0.000826969 -8.47992e-22 0.0065681 -1.64435e-21 0.00668279)
(0.00680268 -0.000884501 4.50019e-21 0.0073531 9.1068e-21 0.0070746)
(0.00354153 -0.000408998 5.33932e-21 0.00396848 9.31736e-21 0.00374587)
(0.00474061 0.00012703 -4.6197e-21 0.00382262 -6.80548e-21 0.00426335)
(0.17393 0.0129064 3.08365e-20 0.0713187 -9.71496e-21 0.122788)
(0.954934 0.0267768 -7.02113e-20 0.36321 -9.36179e-21 0.66415)
(1.78236 -0.0489184 -2.62784e-19 0.679836 3.16979e-19 1.22764)
(1.56663 -0.171736 4.09464e-19 0.634782 -1.91475e-19 1.10963)
(0.779312 -0.162302 6.58916e-21 0.374946 2.1261e-19 0.574321)
(0.391209 -0.102157 3.71449e-19 0.214784 -2.3974e-18 0.295298)
(0.232428 -0.0669227 -2.69471e-19 0.135544 4.14837e-19 0.182858)
(0.155341 -0.0481765 -3.03513e-19 0.0959222 2.41714e-19 0.126095)
(0.107659 -0.0360772 3.4418e-19 0.071568 -2.40384e-18 0.089705)
(0.0807798 -0.0286587 2.7328e-19 0.057035 1.3904e-19 0.0689959)
(0.0622437 -0.0229707 1.74309e-19 0.046042 1.84324e-19 0.0541023)
(0.0513721 -0.0194381 -1.5995e-19 0.0391804 6.51161e-19 0.0452631)
(0.0444033 -0.0170135 -1.34899e-20 0.0344124 1.43134e-19 0.039401)
(0.040432 -0.0156422 3.83932e-20 0.0317362 -6.87309e-20 0.0360722)
(0.0386024 -0.0150432 4.77405e-20 0.0305887 5.15416e-20 0.0345983)
(0.0381509 -0.0149968 -8.0616e-21 0.0305911 2.38086e-19 0.0343686)
(0.0388713 -0.0153362 -9.14161e-20 0.0313288 2.35191e-19 0.0350918)
(0.0408623 -0.0160927 1.22062e-19 0.0328517 1.79857e-19 0.0368481)
(0.0438635 -0.017273 1.57785e-19 0.0352585 4.10448e-19 0.0395538)
(0.0472591 -0.0186945 -1.74886e-19 0.0382249 -1.01517e-19 0.042736)
(0.050414 -0.0201577 -1.33517e-19 0.0413981 2.07472e-18 0.045895)
(0.0527166 -0.0214825 8.20006e-20 0.0444985 -3.19343e-20 0.0486001)
(0.0533882 -0.0224408 -2.95174e-19 0.0472757 -8.39264e-19 0.0503241)
(0.0517487 -0.0227874 -5.05465e-19 0.0496389 -1.61525e-18 0.0506924)
(0.0474526 -0.0222619 3.71369e-19 0.0520059 -6.65072e-19 0.0497294)
(0.041146 -0.0205482 1.16704e-19 0.0558112 1.77913e-18 0.0484923)
(0.035627 -0.0172861 2.70821e-19 0.0646282 -1.0853e-18 0.0501641)
(0.0357188 -0.0120115 -2.72826e-19 0.083927 3.02542e-18 0.0598959)
(0.044996 -0.00417075 -9.38959e-19 0.117817 1.5658e-19 0.0815123)
(0.0641138 0.00675216 -3.65298e-19 0.167505 6.33037e-19 0.115947)
(0.0930043 0.0215839 -4.98228e-19 0.233594 7.55021e-19 0.163632)
(0.132292 0.0419564 -4.74102e-20 0.315701 -4.4198e-20 0.224321)
(0.183014 0.0688466 2.92157e-20 0.412269 7.66027e-20 0.296193)
(0.256159 0.102184 -8.39169e-21 0.568268 1.56672e-18 0.420291)
(0.436127 0.211993 1.13259e-19 0.745079 -1.12588e-18 0.571923)
(0.312881 0.153935 4.8125e-19 0.565254 -7.17615e-19 0.45136)
(0.00581624 -0.000520547 -5.24705e-22 0.00491383 -8.88061e-22 0.00536978)
(0.00510402 -0.000615611 2.72884e-21 0.00476848 4.44735e-21 0.00492686)
(0.00468749 -0.000596078 -1.33352e-21 0.00483779 -2.94335e-21 0.00475669)
(0.00495595 -0.000627449 -1.30587e-21 0.00559081 -3.51576e-21 0.00527816)
(0.00170694 -0.000107655 3.39041e-22 0.00185121 8.15375e-22 0.00177858)
(0.00102793 3.78327e-06 -1.35748e-22 0.000935618 -1.3206e-22 0.000979577)
(0.113934 0.00638435 -2.1922e-20 0.0464172 -2.24557e-20 0.0800414)
(0.749275 0.015057 -7.46101e-20 0.28458 9.10157e-20 0.519612)
(1.77175 -0.047475 -1.58057e-19 0.674772 -1.50155e-19 1.22394)
(1.97082 -0.180266 -3.8259e-19 0.783813 -9.7119e-19 1.38066)
(1.27948 -0.230914 3.68826e-19 0.578867 5.18098e-19 0.93965)
(0.633109 -0.157991 6.1254e-19 0.337281 -8.30081e-19 0.474281)
(0.37716 -0.107514 -8.34987e-19 0.219179 6.60102e-19 0.293603)
(0.245264 -0.0747476 3.54561e-19 0.149491 1.11715e-18 0.197062)
(0.174751 -0.0577685 2.83098e-20 0.114479 4.91301e-19 0.145167)
(0.129442 -0.0455065 -2.39391e-19 0.0904606 -8.76316e-20 0.110135)
(0.103422 -0.0382102 1.64851e-19 0.0765767 -9.26257e-19 0.0899986)
(0.0869699 -0.0331484 -3.63299e-20 0.0669424 6.01728e-19 0.0769429)
(0.0771103 -0.0301085 7.07378e-20 0.0612721 -1.14139e-19 0.0691706)
(0.0718885 -0.0285523 4.85082e-20 0.0584634 2.0868e-19 0.0651892)
(0.069537 -0.0280101 -6.3097e-20 0.0576988 -3.00502e-19 0.0636244)
(0.0693723 -0.0281278 2.88714e-20 0.0581157 1.22308e-20 0.06375)
(0.0712287 -0.0288543 1.67465e-20 0.0595923 1.02836e-19 0.0654151)
(0.0746939 -0.0301839 -2.99249e-19 0.0622686 -3.47127e-19 0.0684835)
(0.0789408 -0.0318793 3.13951e-19 0.0657478 -8.14892e-19 0.0723442)
(0.0830827 -0.0336838 5.4453e-20 0.0696007 -4.35714e-19 0.0763292)
(0.0861822 -0.0353309 -5.40271e-19 0.0734018 -4.36248e-19 0.079778)
(0.0869981 -0.0364647 4.57342e-20 0.0766939 -9.81571e-19 0.0818215)
(0.0843091 -0.0366754 8.50683e-19 0.0791169 -1.22148e-19 0.0816893)
(0.0772029 -0.0355062 3.3854e-19 0.0808243 1.42899e-18 0.0789888)
(0.0658874 -0.0323975 -4.16067e-19 0.0830976 -7.83093e-19 0.0744876)
(0.0537049 -0.0267439 -5.04541e-19 0.0903132 6.52891e-19 0.0720353)
(0.0488341 -0.0179061 -1.98855e-19 0.111489 -3.23407e-18 0.0802369)
(0.059256 -0.0051512 8.31097e-19 0.155286 -2.02023e-18 0.107397)
(0.0862263 0.0122666 6.52796e-19 0.223464 -1.82488e-18 0.155022)
(0.128346 0.0353903 -1.69314e-19 0.315013 -4.91763e-20 0.222099)
(0.185628 0.0663432 1.24508e-19 0.427872 1.44509e-18 0.307181)
(0.258714 0.106542 6.45417e-21 0.557078 -7.93694e-19 0.406389)
(0.349982 0.151952 -3.70214e-19 0.735296 7.70618e-19 0.551614)
(0.568909 0.278026 -5.41e-19 0.967312 1.74175e-18 0.747908)
(0.462814 0.234784 -3.30744e-19 0.722824 -8.98145e-19 0.605527)
(0.00421787 -0.000354858 -1.28963e-22 0.0035216 -2.33151e-22 0.00387279)
(0.00387151 -0.000444232 3.06632e-22 0.00352816 3.39897e-22 0.00369977)
(0.00348191 -0.000443325 -1.40515e-21 0.00346759 -1.85568e-21 0.00347373)
(0.00350865 -0.000452872 -2.2127e-21 0.00381318 -2.73233e-21 0.00365868)
(0.00355071 -0.000403385 -7.65799e-22 0.00409986 -8.8327e-22 0.00382745)
(0.000838797 -2.62668e-05 2.75055e-22 0.000883812 3.77623e-22 0.000861445)
(2.42452e-05 -2.44861e-08 -3.64144e-25 2.41231e-05 -5.51602e-25 2.41802e-05)
(0.0495519 0.00172971 1.58728e-20 0.0214528 1.73318e-20 0.0353647)
(0.489746 0.00607992 2.278e-19 0.185998 2.16873e-19 0.338621)
(1.50084 -0.0402413 -1.65543e-19 0.57106 3.57892e-19 1.03921)
(2.18098 -0.164136 -2.28802e-19 0.855583 6.50705e-19 1.51502)
(1.84701 -0.277878 2.77076e-19 0.792695 -1.05396e-18 1.33421)
(1.06198 -0.244194 4.5815e-19 0.534416 1.30873e-18 0.800044)
(0.579276 -0.160349 -8.17225e-19 0.331159 -2.93299e-19 0.443429)
(0.374932 -0.11414 3.36005e-19 0.229049 -1.38172e-18 0.299247)
(0.263936 -0.0856224 -2.28095e-19 0.169948 7.98857e-19 0.217261)
(0.198344 -0.069215 1.32361e-19 0.137439 7.87827e-19 0.168347)
(0.157267 -0.0578902 1.67712e-19 0.11585 4.02052e-19 0.136772)
(0.132683 -0.0509442 -8.60459e-20 0.103102 3.53878e-19 0.117868)
(0.119093 -0.0470595 1.05219e-20 0.0961751 -1.02551e-18 0.10763)
(0.112095 -0.045246 2.11509e-20 0.0933059 4.36545e-19 0.102674)
(0.109843 -0.0447908 -1.32398e-19 0.0928038 -9.11118e-21 0.101313)
(0.1113 -0.0454201 1.17864e-19 0.0941404 -4.89102e-19 0.102716)
(0.115529 -0.04702 2.11162e-19 0.0973279 -7.23939e-20 0.106428)
(0.121264 -0.0492219 -1.75074e-19 0.101755 1.05105e-18 0.111509)
(0.127203 -0.051652 -3.31634e-19 0.106803 -9.21595e-19 0.11699)
(0.131951 -0.0539114 4.06734e-19 0.111811 -5.50038e-19 0.121863)
(0.133664 -0.055464 2.15545e-19 0.115979 1.65382e-18 0.124788)
(0.130328 -0.0556609 1.42655e-19 0.118478 1.80517e-18 0.124364)
(0.120199 -0.0537989 -2.03436e-19 0.118953 -3.24591e-19 0.119532)
(0.102553 -0.0490311 -1.3779e-20 0.118102 -1.18979e-18 0.110303)
(0.0802895 -0.040459 -4.15397e-19 0.120158 -3.56762e-19 0.100241)
(0.0645366 -0.0272004 -1.99841e-19 0.137294 1.52109e-18 0.100992)
(0.071502 -0.00827795 1.04034e-19 0.186425 2.32523e-18 0.129105)
(0.105696 0.017281 1.4088e-18 0.272319 7.4034e-19 0.189218)
(0.162798 0.0506269 1.74523e-19 0.390344 -8.26024e-19 0.277056)
(0.240758 0.0940441 -1.66513e-18 0.535014 -7.07276e-19 0.388342)
(0.338777 0.148765 1.27278e-19 0.69709 -2.45286e-19 0.51662)
(0.450274 0.207848 -5.64397e-20 0.891204 -1.81274e-18 0.679285)
(0.684395 0.337124 -1.27647e-19 1.15029 5.77952e-19 0.899691)
(0.626741 0.316966 4.19405e-19 0.927547 1.53961e-18 0.785269)
(0.00308691 -0.000248368 -2.66583e-23 0.00255798 -6.71713e-24 0.00282569)
(0.00291956 -0.000317 -5.38813e-22 0.00260153 -7.3304e-22 0.00275974)
(0.00276958 -0.00034668 5.20536e-22 0.00267192 7.19874e-22 0.00271974)
(0.00255549 -0.000329186 2.40401e-21 0.0026673 3.2087e-21 0.00260955)
(0.0026278 -0.000330297 4.70348e-22 0.0029618 6.5246e-22 0.00279177)
(0.00272146 -0.000293299 4.1816e-22 0.00321605 1.98953e-22 0.00296918)
(0.000226099 -1.9008e-06 -3.9284e-23 0.000230083 -4.28513e-23 0.000228114)
(9.89304e-07 -1.65154e-10 -3.57761e-28 9.89339e-07 -2.37168e-28 9.89316e-07)
(0.0122691 6.99301e-05 -6.32657e-21 0.00686787 -9.0075e-21 0.00952323)
(0.254196 0.000826359 1.58533e-19 0.0966957 1.76826e-19 0.175368)
(1.04993 -0.0280889 -2.71098e-19 0.399557 -6.38522e-19 0.726707)
(2.06557 -0.136034 -1.23057e-19 0.803559 8.0318e-19 1.43426)
(2.28596 -0.27751 1.803e-19 0.942407 -1.03441e-18 1.61728)
(1.66295 -0.329191 -3.57779e-19 0.778122 -3.99902e-19 1.23687)
(0.940541 -0.247492 9.35632e-19 0.514666 -2.11821e-19 0.721739)
(0.562261 -0.168684 4.01811e-19 0.341543 8.4616e-19 0.441748)
(0.387236 -0.124864 -3.45013e-19 0.248645 5.17977e-19 0.316214)
(0.289277 -0.0994161 -3.93716e-19 0.197195 4.61132e-19 0.243944)
(0.229346 -0.0840432 -6.25021e-19 0.167986 -3.84674e-20 0.199129)
(0.193395 -0.0744055 4.70137e-19 0.150573 -6.24058e-19 0.172201)
(0.173499 -0.0691821 2.14243e-19 0.141916 8.64656e-19 0.157663)
(0.165332 -0.0671385 -3.62989e-19 0.138847 -2.10102e-19 0.152035)
(0.164778 -0.0672343 1.20555e-19 0.139364 3.61683e-19 0.152022)
(0.16953 -0.0690752 9.3947e-20 0.143076 2.41532e-19 0.156262)
(0.177352 -0.0720038 1.53355e-20 0.14888 -3.82047e-19 0.163087)
(0.186203 -0.0754279 -2.44577e-20 0.155798 5.39306e-19 0.170964)
(0.194014 -0.0787439 3.34986e-19 0.162793 1.39468e-18 0.17837)
(0.198128 -0.0811596 3.12472e-19 0.168548 -5.5085e-19 0.183299)
(0.195387 -0.0816626 -4.48256e-19 0.171461 4.46157e-20 0.183381)
(0.182961 -0.0792557 -9.88737e-19 0.170424 -1.1444e-18 0.176637)
(0.158649 -0.0727492 2.51791e-19 0.165019 5.96245e-20 0.161791)
(0.123363 -0.0608747 5.7233e-19 0.157804 -1.08852e-18 0.14059)
(0.087811 -0.0424212 6.44559e-19 0.160699 3.34941e-19 0.124331)
(0.0793849 -0.0161717 -4.52204e-19 0.20173 -1.54451e-19 0.140713)
(0.115863 0.0190113 -8.08786e-19 0.298468 1.56345e-18 0.207412)
(0.188211 0.0641913 -5.91289e-19 0.440503 -1.46344e-18 0.314889)
(0.288438 0.121233 1.03974e-18 0.614859 -2.59553e-19 0.452111)
(0.412189 0.190334 -9.85466e-21 0.806759 3.88826e-19 0.608607)
(0.546552 0.263336 2.47188e-19 1.01365 -3.66464e-19 0.786766)
(0.775557 0.385684 -2.58934e-19 1.27231 -7.60195e-19 1.01152)
(0.772891 0.389264 -4.69654e-19 1.12383 5.14698e-19 0.949863)
(0.00228552 -0.000176503 -8.4454e-23 0.00188253 -3.01102e-23 0.0020863)
(0.00219021 -0.000226999 -4.5731e-22 0.00192008 -6.99571e-22 0.00205467)
(0.00212449 -0.000256232 1.90233e-21 0.001993 2.15539e-21 0.00205845)
(0.00203535 -0.000262858 -2.49902e-22 0.00205072 -3.35392e-22 0.00204302)
(0.00188581 -0.000238085 6.72656e-22 0.00203719 6.19555e-22 0.00196064)
(0.00202021 -0.000251527 -6.65802e-22 0.00234983 -5.98108e-22 0.0021824)
(0.00195285 -0.0001858 1.43639e-21 0.0023279 1.91979e-21 0.00213964)
(0.000396319 -6.28522e-06 6.70581e-23 0.000412021 5.51819e-23 0.000404243)
(0.000206222 -3.60307e-06 8.27262e-25 0.000212875 1.81088e-23 0.000209553)
(0.000159088 -4.31595e-07 2.62773e-23 0.000154908 2.30039e-23 0.000156949)
(0.0905406 -0.000938171 -3.37203e-21 0.0348451 5.16122e-21 0.0625008)
(0.580249 -0.0167786 -2.96064e-19 0.221154 -1.98404e-19 0.401028)
(1.58143 -0.0947271 1.78417e-19 0.612162 -3.67312e-19 1.09851)
(2.38248 -0.2394 -4.29428e-19 0.95822 9.1907e-19 1.66796)
(2.25248 -0.364389 -3.09654e-19 0.986545 -9.22357e-19 1.63062)
(1.52566 -0.357294 5.28806e-19 0.772802 7.00625e-19 1.16269)
(0.889766 -0.25654 3.45962e-19 0.521227 -1.56934e-18 0.69575)
(0.569376 -0.182118 1.95392e-19 0.365314 5.89582e-19 0.458293)
(0.413723 -0.140811 -7.58976e-19 0.279931 -1.16302e-18 0.345664)
(0.324745 -0.11775 2.98466e-19 0.234831 1.22171e-18 0.280717)
(0.272698 -0.104858 8.79112e-20 0.212082 -9.00743e-19 0.242897)
(0.247353 -0.0986328 -3.34929e-19 0.202222 4.43545e-19 0.224968)
(0.23905 -0.0968297 2.47069e-19 0.199996 4.12366e-21 0.219481)
(0.241793 -0.0983075 -2.9208e-20 0.203434 2.54063e-20 0.222513)
(0.251327 -0.101934 -8.93037e-20 0.210683 7.53128e-19 0.230924)
(0.263835 -0.106582 1.20426e-19 0.219886 -1.82149e-19 0.241768)
(0.276068 -0.111284 -7.54568e-19 0.22936 4.62252e-21 0.252623)
(0.28448 -0.114987 -3.89511e-19 0.237284 1.92344e-19 0.26079)
(0.284856 -0.116379 -1.95605e-19 0.241386 -1.23016e-18 0.263033)
(0.272626 -0.113932 9.44243e-19 0.239207 8.94119e-20 0.255838)
(0.243605 -0.106002 1.57719e-19 0.228706 8.26172e-19 0.236112)
(0.195449 -0.0908444 2.98682e-19 0.209493 9.13477e-19 0.202494)
(0.133074 -0.0668274 -6.18109e-19 0.187829 2.86506e-19 0.16055)
(0.0859435 -0.0325606 5.1956e-19 0.193671 -1.26633e-18 0.13999)
(0.107297 0.0131072 2.82153e-19 0.27942 -1.42258e-19 0.193646)
(0.191982 0.0708702 1.04865e-18 0.437346 3.07722e-19 0.315216)
(0.314797 0.141468 -1.6044e-18 0.635855 5.55974e-19 0.475813)
(0.463589 0.223382 -4.17053e-20 0.851536 4.88498e-20 0.657186)
(0.621238 0.308118 2.9409e-19 1.06924 4.59463e-19 0.849242)
(0.831969 0.417324 5.50969e-19 1.31111 -1.36533e-20 1.0652)
(0.876755 0.440085 -1.98418e-20 1.256 -1.10182e-18 1.06203)
(0.00170037 -0.000126921 -3.32947e-22 0.00139416 -3.84672e-22 0.0015489)
(0.00164341 -0.00016357 1.35202e-21 0.00142358 1.40811e-21 0.00153349)
(0.00160987 -0.000187431 -3.15923e-22 0.00147918 -2.89322e-22 0.00154448)
(0.001578 -0.000199985 -2.48988e-21 0.00154411 -2.6175e-21 0.00156109)
(0.00151666 -0.000196264 -2.32134e-22 0.00158208 -3.01599e-22 0.00154947)
(0.00142235 -0.000175275 2.44383e-21 0.00157766 2.60506e-21 0.00149959)
(0.00151844 -0.000181498 -6.99548e-22 0.00180508 -9.28029e-22 0.00165996)
(0.00140136 -0.000118443 -5.07489e-21 0.00168128 -5.01031e-21 0.00154018)
(0.000583316 -1.54475e-05 7.28766e-22 0.000628904 6.98291e-22 0.000606198)
(5.45201e-05 -1.66532e-07 5.1071e-25 5.49913e-05 -5.19222e-25 5.47583e-05)
(0.000934732 -0.000170739 -7.19028e-22 0.000828771 -1.18879e-21 0.000878034)
(0.0205077 -0.000761939 -7.73897e-21 0.00869847 -4.2999e-21 0.0145281)
(0.242313 -0.00855676 -1.72255e-19 0.0927039 -1.12061e-19 0.167292)
(0.952203 -0.0544088 1.63509e-19 0.367975 -1.21212e-19 0.66081)
(1.98981 -0.175296 -6.36219e-19 0.789324 6.00484e-19 1.38965)
(2.53798 -0.332398 6.11749e-19 1.0614 -3.74869e-19 1.79842)
(2.19764 -0.427183 -5.02548e-19 1.02203 7.62708e-19 1.62572)
(1.46236 -0.382278 -1.12939e-19 0.791519 -2.54717e-19 1.13729)
(0.890482 -0.275256 -2.52734e-19 0.552902 -3.61172e-19 0.710489)
(0.59918 -0.202813 2.9188e-19 0.405977 -1.03491e-18 0.493652)
(0.457709 -0.164762 4.6302e-19 0.329106 3.52215e-19 0.392305)
(0.385234 -0.146455 -2.39263e-19 0.295091 -1.03556e-18 0.341256)
(0.352027 -0.138866 -2.45912e-19 0.283277 4.6603e-19 0.318425)
(0.342952 -0.137808 7.09626e-19 0.283441 -5.96373e-19 0.313501)
(0.349402 -0.141164 -3.94876e-19 0.291188 4.91192e-20 0.320298)
(0.364865 -0.147118 -5.94423e-19 0.303279 -3.7035e-19 0.333899)
(0.383625 -0.153962 9.94207e-19 0.316743 -1.43927e-18 0.349981)
(0.399494 -0.159777 8.56877e-21 0.328211 1.08924e-18 0.363656)
(0.406267 -0.162633 -1.08273e-20 0.3342 -7.14467e-20 0.370046)
(0.397974 -0.160615 -5.82763e-19 0.331235 1.07463e-18 0.364424)
(0.368803 -0.151747 5.3954e-20 0.315903 -6.52548e-19 0.342193)
(0.313197 -0.133799 -3.57743e-21 0.284855 3.57585e-19 0.298928)
(0.228376 -0.104595 -6.92544e-19 0.23685 -5.81756e-19 0.232642)
(0.124139 -0.0625458 3.68687e-19 0.182138 1.75962e-18 0.153336)
(0.0733532 -0.00669449 -5.46066e-19 0.19221 3.18252e-19 0.133138)
(0.157084 0.0629845 -4.89825e-19 0.344689 -8.31365e-21 0.251479)
(0.302699 0.145495 7.48723e-19 0.55979 -1.90217e-18 0.431825)
(0.475596 0.237291 -1.23223e-19 0.792203 8.22305e-19 0.633858)
(0.653721 0.329371 -1.58109e-19 1.01844 -9.0365e-19 0.837758)
(0.842069 0.423942 -1.42667e-18 1.24023 -5.93268e-19 1.0401)
(0.922266 0.460555 -2.23598e-19 1.27546 -2.15684e-19 1.09103)
(0.00126969 -9.22753e-05 -2.96007e-22 0.0010376 -2.41591e-22 0.00115476)
(0.00123425 -0.000118842 -1.23328e-21 0.00105987 -1.11046e-21 0.00114719)
(0.00121615 -0.000137165 -7.03467e-23 0.00110049 -1.83931e-22 0.00115831)
(0.00120231 -0.000148901 -2.00779e-22 0.00115047 -1.64628e-22 0.00117641)
(0.00118485 -0.000153253 1.76578e-21 0.00120097 1.73614e-21 0.00119292)
(0.00114177 -0.000145703 9.46667e-22 0.00122442 7.56734e-22 0.00118315)
(0.001092 -0.000131608 -1.3103e-21 0.00123709 -1.24807e-21 0.00116441)
(0.00111554 -0.000123933 -9.67039e-22 0.00134044 -3.50251e-22 0.00122707)
(0.00112463 -9.6575e-05 -6.69736e-22 0.00138701 -6.74213e-22 0.0012545)
(0.000635097 -2.15715e-05 -1.1883e-21 0.000710294 -1.16456e-21 0.000672623)
(4.50077e-05 -9.8279e-08 -1.59105e-24 4.53689e-05 -1.06475e-24 4.51898e-05)
(0.000183908 -4.01039e-06 -1.363e-23 0.000193119 -5.77894e-24 0.000188557)
(2.88893e-05 -5.56237e-08 2.36906e-24 2.86612e-05 2.28654e-24 2.87732e-05)
(0.0607473 -0.00317323 -2.36851e-19 0.0236351 -1.92699e-19 0.0420493)
(0.417856 -0.02463 6.6567e-19 0.161788 5.65168e-19 0.289667)
(1.26299 -0.10263 -3.38838e-19 0.49759 -3.86182e-19 0.880922)
(2.24629 -0.251406 1.423e-18 0.915685 8.66766e-19 1.5795)
(2.6127 -0.408393 6.93288e-19 1.13628 7.65368e-19 1.87532)
(2.18413 -0.478459 -1.80494e-18 1.06948 -2.48434e-19 1.64473)
(1.47529 -0.415999 5.70303e-19 0.842105 -1.11494e-18 1.16831)
(0.93894 -0.308041 2.86501e-19 0.615565 1.39593e-18 0.766016)
(0.670368 -0.239486 -9.26208e-20 0.481601 -8.20524e-19 0.565536)
(0.555776 -0.20808 6.1477e-19 0.419123 6.36749e-19 0.485247)
(0.506576 -0.195983 -3.59958e-19 0.396918 -7.14494e-19 0.453268)
(0.491547 -0.194515 4.04039e-19 0.397089 6.36743e-20 0.445848)
(0.498817 -0.199373 -5.41612e-19 0.409029 8.66839e-19 0.454597)
(0.519128 -0.207471 8.23191e-20 0.425889 7.3662e-19 0.472612)
(0.543118 -0.215884 -1.59108e-19 0.442321 -1.90913e-18 0.49249)
(0.561931 -0.221859 -2.92677e-19 0.453417 4.61751e-19 0.507303)