/*--------------------------------*- C++ -*----------------------------------*\
| =========                 |                                                 |
| \\      /  F ield         | OpenFOAM: The Open Source CFD Toolbox           |
|  \\    /   O peration     | Version:  2312                                  |
|   \\  /    A nd           | Website:  www.openfoam.com                      |
|    \\/     M anipulation  |                                                 |
\*---------------------------------------------------------------------------*/
FoamFile
{
    version     2.0;
    format      ascii;
    arch        "LSB;label=32;scalar=64";
    class       volScalarField;
    location    "500";
    object      turbulenceProperties:nuEff;
}
// * * * * * * * * * * * * * * * * * * * * * * * * * * * * * * * * * * * * * //

dimensions      [0 2 -1 0 0 0 0];

internalField   nonuniform List<scalar> 
11040
(
4.72569e-05
6.47988e-05
2.63724e-05
5.70091e-05
0.00019838
0.000194065
0.000184667
0.000175471
0.000163
0.000155623
0.00014714
0.000139567
0.000132687
0.000126684
0.000121462
0.000117771
0.00011586
0.000116198
0.000118698
0.000122874
0.00012863
0.000135754
0.000144002
0.000153241
0.000163759
0.000176367
0.000190468
0.000204596
0.000218213
0.000230745
0.000241666
0.00025053
0.000257454
0.00026629
0.000284878
0.000294777
0.000256771
0.000194386
0.000208423
0.000226549
0.000322552
1.41277e-05
4.60816e-05
6.63642e-05
0.00014703
0.000606251
0.000644677
0.000564845
0.000525589
0.000458046
0.000425081
0.00038684
0.000355877
0.000328197
0.000305543
0.000285298
0.00026942
0.00025852
0.000254037
0.000255491
0.000260052
0.000267075
0.000276262
0.000285983
0.000295271
0.000305855
0.000325181
0.000354225
0.00038754
0.000424547
0.000465225
0.000509769
0.000558605
0.00061206
0.000670505
0.000736305
0.000807001
0.000880483
0.000962858
0.00105557
0.00115936
0.00167186
1.56063e-05
1.91695e-05
4.01432e-05
7.14446e-05
0.00041034
0.000960511
0.0011995
0.00117266
0.00102679
0.000960335
0.000876141
0.000808866
0.000747632
0.000697671
0.000653509
0.000616986
0.000589063
0.000567968
0.000555785
0.000551787
0.00055672
0.00057163
0.000597033
0.000633788
0.000681861
0.00074102
0.000811441
0.000893155
0.000984212
0.00108392
0.00119168
0.00130684
0.00142901
0.00155867
0.00169694
0.00184482
0.00200683
0.00219503
0.00241102
0.00266897
0.00355222
1.65038e-05
1.51463e-05
2.05831e-05
2.10299e-05
0.000141196
0.000582852
0.00128681
0.00171793
0.00180223
0.00173102
0.00159116
0.0014784
0.00137303
0.00128604
0.00120699
0.00113829
0.00108747
0.00104779
0.00102415
0.00101548
0.00102239
0.00104784
0.00109397
0.00116198
0.00125118
0.00136046
0.00148899
0.00163542
0.00179863
0.00197726
0.00216979
0.00237479
0.00259114
0.00281904
0.00305953
0.00331524
0.00359491
0.00391813
0.00429918
0.00476504
0.00598014
1.62077e-05
1.58082e-05
1.63592e-05
1.55832e-05
1.45521e-05
0.000174859
0.00068496
0.00152678
0.00224751
0.00247869
0.00250894
0.00241873
0.00226001
0.00212348
0.00200456
0.00189122
0.00181048
0.00174497
0.00170431
0.00168826
0.00169531
0.00173072
0.00179993
0.0019049
0.00204453
0.00221754
0.00242231
0.00265614
0.00291681
0.0032019
0.00350822
0.00383277
0.00417323
0.0045293
0.00490169
0.00529377
0.00571767
0.0062025
0.00678196
0.00749795
0.00898542
1.61048e-05
1.62035e-05
1.58921e-05
1.66068e-05
1.19029e-05
1.07921e-05
0.000166435
0.000698485
0.0016594
0.00268835
0.003203
0.00338944
0.00339366
0.00329781
0.00312298
0.00294523
0.0028248
0.00272368
0.00265639
0.00262834
0.00263227
0.00267517
0.00276896
0.00291738
0.00311867
0.00337186
0.00367455
0.00402195
0.00440925
0.00483268
0.0052863
0.00576433
0.00626224
0.00677861
0.00731318
0.00786907
0.00846141
0.00912952
0.0099292
0.0109252
0.0126709
1.61111e-05
1.61402e-05
1.60302e-05
1.63226e-05
1.60229e-05
1.05706e-05
1.00026e-05
0.000112051
0.000622406
0.00163191
0.00292593
0.00390909
0.00431602
0.00448315
0.00448643
0.00439272
0.0042415
0.00407836
0.00397039
0.00392424
0.00392181
0.00396728
0.00408414
0.00428056
0.0045533
0.00490265
0.00532622
0.00581659
0.00636361
0.00696187
0.00760133
0.00827136
0.00896333
0.00967372
0.0104003
0.0111444
0.0119232
0.0127863
0.0138111
0.0150999
0.017119
1.61179e-05
1.61163e-05
1.61374e-05
1.60579e-05
1.65214e-05
1.61898e-05
1.00512e-05
1e-05
4.52933e-05
0.000475176
0.00143204
0.00289353
0.00437561
0.00525097
0.00564259
0.00580915
0.00584384
0.00579757
0.00572553
0.00566281
0.00565484
0.00571193
0.00585463
0.006105
0.00645751
0.00691629
0.00748225
0.00814721
0.00888983
0.00970313
0.0105716
0.0114768
0.012402
0.0133403
0.0142864
0.0152371
0.0162095
0.0172632
0.0184932
0.0200541
0.0223366
1.61172e-05
1.61217e-05
1.61178e-05
1.61395e-05
1.60076e-05
1.70705e-05
1.56175e-05
1.0218e-05
1.01928e-05
1.00649e-05
0.000280345
0.00108795
0.00255259
0.00440861
0.00598137
0.00680848
0.00723623
0.00745937
0.0075909
0.00767948
0.00778016
0.00792214
0.00815106
0.00850221
0.00897701
0.00957464
0.0102996
0.011156
0.0121305
0.0132003
0.0143438
0.0155314
0.0167314
0.0179299
0.0191189
0.0202864
0.0214434
0.022661
0.0240454
0.0258029
0.0282896
1.6117e-05
1.61191e-05
1.61197e-05
1.61247e-05
1.61098e-05
1.60502e-05
1.72375e-05
1.5212e-05
1.07315e-05
1.00097e-05
2.6309e-05
0.000123918
0.000702846
0.00198305
0.00395259
0.00614419
0.00779389
0.00867118
0.00921483
0.00960096
0.00995073
0.0103139
0.0107527
0.0113195
0.0120388
0.0129162
0.0139447
0.0151068
0.0163793
0.0177476
0.0192061
0.0207218
0.022234
0.0237136
0.0251555
0.0265382
0.0278478
0.0291698
0.0306348
0.0324349
0.0349704
1.61157e-05
1.61173e-05
1.61191e-05
1.61156e-05
1.61326e-05
1.60693e-05
1.61727e-05
1.69232e-05
1.62449e-05
1.14833e-05
1.00073e-05
1.03703e-05
1.00068e-05
0.000325047
0.00128165
0.00307453
0.00554117
0.00807439
0.00990306
0.0109788
0.0117862
0.0124947
0.0132341
0.0140994
0.0151496
0.0164115
0.0178877
0.0195638
0.0214061
0.0233661
0.025381
0.0273714
0.0292608
0.0310286
0.0327188
0.0343143
0.0357186
0.0370281
0.03845
0.0400971
0.0423876
1.61144e-05
1.61159e-05
1.61161e-05
1.6117e-05
1.61151e-05
1.61232e-05
1.6079e-05
1.61494e-05
1.66996e-05
1.67833e-05
1.27791e-05
1.00147e-05
1.00008e-05
2.46928e-05
6.65246e-05
0.000629793
0.00197916
0.00427426
0.00725021
0.010229
0.0124534
0.0139096
0.0151279
0.0163691
0.0177815
0.0194436
0.0213815
0.0235979
0.0260623
0.0287192
0.0314967
0.0343101
0.0370643
0.0396632
0.0420031
0.0439489
0.0454017
0.0465164
0.0477714
0.0490534
0.0507138
1.61131e-05
1.61142e-05
1.61144e-05
1.61145e-05
1.61147e-05
1.61148e-05
1.61162e-05
1.60939e-05
1.61058e-05
1.65267e-05
1.696e-05
1.46291e-05
1.03692e-05
1.00033e-05
1.00366e-05
9.06132e-05
0.000215649
0.000987222
0.00270638
0.00548617
0.00903285
0.0125577
0.015311
0.0173666
0.0192841
0.021378
0.0237445
0.0264416
0.0294628
0.0327509
0.0362291
0.0398059
0.0433766
0.0468392
0.0500858
0.0530011
0.0554785
0.057455
0.0588622
0.0596519
0.06038
1.61119e-05
1.61126e-05
1.6113e-05
1.61131e-05
1.61131e-05
1.6113e-05
1.61125e-05
1.61144e-05
1.60951e-05
1.60907e-05
1.63168e-05
1.70557e-05
1.60311e-05
1.24501e-05
1e-05
1e-05
1.10353e-05
0.000153471
0.000296463
0.00127953
0.00331995
0.00641504
0.0101608
0.0141172
0.017801
0.0209952
0.0239814
0.0271584
0.0306732
0.0344997
0.0385747
0.0428161
0.04711
0.0513453
0.0554086
0.0591853
0.0625792
0.0655299
0.0679735
0.0698748
0.0712978
1.61107e-05
1.61118e-05
1.61121e-05
1.6112e-05
1.61115e-05
1.61112e-05
1.61109e-05
1.61109e-05
1.61118e-05
1.61018e-05
1.60759e-05
1.62144e-05
1.66943e-05
1.70718e-05
1.46598e-05
1.02126e-05
1.00027e-05
1e-05
1.2902e-05
0.000194862
0.000345986
0.00136697
0.00325483
0.00608205
0.00971951
0.0139569
0.0185598
0.0232604
0.0278675
0.0324239
0.0370961
0.0419532
0.0469205
0.0518778
0.0567073
0.0612943
0.0655407
0.0693951
0.0727896
0.075665
0.0780237
1.61095e-05
1.61111e-05
1.6111e-05
1.61108e-05
1.61106e-05
1.61105e-05
1.61104e-05
1.61103e-05
1.61105e-05
1.6111e-05
1.61072e-05
1.60802e-05
1.61324e-05
1.63565e-05
1.73195e-05
1.60268e-05
1.31056e-05
1.00403e-05
1.00011e-05
1e-05
1.43679e-05
0.000170716
0.000189156
0.000894658
0.00225389
0.00441922
0.00744056
0.0113139
0.0160057
0.0214509
0.0274795
0.0337729
0.0400039
0.0460156
0.0517831
0.0572918
0.0624891
0.0673311
0.0717358
0.0756351
0.079012
1.61083e-05
1.61099e-05
1.61101e-05
1.611e-05
1.61099e-05
1.61099e-05
1.61099e-05
1.61099e-05
1.61099e-05
1.61098e-05
1.6111e-05
1.61078e-05
1.6098e-05
1.60645e-05
1.62525e-05
1.67014e-05
1.71537e-05
1.52946e-05
1.2352e-05
1.00021e-05
1.00003e-05
1e-05
1.02747e-05
5.98601e-05
0.000252573
0.00026373
0.000912728
0.00210134
0.00399351
0.00669375
0.0103074
0.0148992
0.0204657
0.0269211
0.0340215
0.0413586
0.0484953
0.0551667
0.0612171
0.0665952
0.0713313
1.6107e-05
1.61083e-05
1.61083e-05
1.61082e-05
1.6108e-05
1.6108e-05
1.61081e-05
1.61082e-05
1.61084e-05
1.61086e-05
1.61087e-05
1.61095e-05
1.61095e-05
1.61004e-05
1.60746e-05
1.61324e-05
1.63659e-05
1.68789e-05
1.72373e-05
1.49593e-05
1.16132e-05
1.00005e-05
1.00002e-05
1e-05
1e-05
1.05754e-05
4.86679e-05
0.000173679
1.73933e-05
0.000324754
0.00102551
0.00225089
0.00414309
0.00685043
0.0104869
0.0150826
0.020571
0.0268478
0.0336612
0.0406855
0.0476073
1.61054e-05
1.61064e-05
1.61063e-05
1.61061e-05
1.61059e-05
1.61059e-05
1.6106e-05
1.61062e-05
1.61064e-05
1.61067e-05
1.61069e-05
1.61073e-05
1.61077e-05
1.61093e-05
1.61028e-05
1.60929e-05
1.60795e-05
1.61755e-05
1.64729e-05
1.71447e-05
1.71183e-05
1.46035e-05
1.18696e-05
1.00377e-05
1.0001e-05
1e-05
1e-05
1e-05
1.00003e-05
1.08517e-05
4.96804e-05
0.000158167
0.000310051
4.28952e-05
0.00052457
0.00138631
0.00279116
0.00483935
0.00761292
0.0111162
0.015342
1.61037e-05
1.61045e-05
1.61043e-05
1.61041e-05
1.61041e-05
1.61042e-05
1.61043e-05
1.61046e-05
1.61048e-05
1.61051e-05
1.61054e-05
1.61058e-05
1.61061e-05
1.61067e-05
1.61073e-05
1.61071e-05
1.60997e-05
1.60841e-05
1.60753e-05
1.62319e-05
1.6633e-05
1.71609e-05
1.71229e-05
1.55356e-05
1.29388e-05
1.1014e-05
1.00125e-05
1.00006e-05
1e-05
1e-05
1e-05
1e-05
1e-05
1.00013e-05
1.33997e-05
6.92911e-05
0.000175645
0.000314857
1.23151e-05
0.000237191
0.000836532
1.61021e-05
1.61027e-05
1.61026e-05
1.61025e-05
1.61026e-05
1.61029e-05
1.61032e-05
1.61035e-05
1.61038e-05
1.61042e-05
1.61045e-05
1.61049e-05
1.61052e-05
1.61056e-05
1.6106e-05
1.61066e-05
1.61077e-05
1.61055e-05
1.60921e-05
1.60737e-05
1.60968e-05
1.62706e-05
1.65651e-05
1.70549e-05
1.71534e-05
1.67254e-05
1.51354e-05
1.2953e-05
1.12671e-05
1.03312e-05
1.00003e-05
1.00001e-05
1e-05
1e-05
1e-05
1e-05
1e-05
1e-05
1e-05
1.00951e-05
2.06425e-05
1.61004e-05
1.6101e-05
1.61011e-05
1.61013e-05
1.61016e-05
1.61021e-05
1.61025e-05
1.6103e-05
1.61034e-05
1.61038e-05
1.61042e-05
1.61045e-05
1.61049e-05
1.61053e-05
1.61056e-05
1.6106e-05
1.61065e-05
1.61076e-05
1.61077e-05
1.61023e-05
1.6086e-05
1.60765e-05
1.60904e-05
1.62068e-05
1.64504e-05
1.67517e-05
1.71525e-05
1.72478e-05
1.68633e-05
1.60523e-05
1.44918e-05
1.27852e-05
1.14219e-05
1.05591e-05
1.01007e-05
1e-05
1e-05
1e-05
1e-05
1e-05
1e-05
1.60989e-05
1.60996e-05
1.61e-05
1.61005e-05
1.61011e-05
1.61017e-05
1.61023e-05
1.61029e-05
1.61034e-05
1.61038e-05
1.61043e-05
1.61047e-05
1.61051e-05
1.61054e-05
1.61058e-05
1.61062e-05
1.61065e-05
1.6107e-05
1.61077e-05
1.61086e-05
1.61078e-05
1.61018e-05
1.60889e-05
1.60723e-05
1.60811e-05
1.61285e-05
1.62556e-05
1.6471e-05
1.67382e-05
1.70135e-05
1.73096e-05
1.734e-05
1.70356e-05
1.64316e-05
1.55223e-05
1.42294e-05
1.29392e-05
1.17927e-05
1.09653e-05
1.04043e-05
1.01199e-05
1.60975e-05
1.60985e-05
1.60993e-05
1.61001e-05
1.61009e-05
1.61016e-05
1.61024e-05
1.6103e-05
1.61036e-05
1.61041e-05
1.61046e-05
1.6105e-05
1.61055e-05
1.61059e-05
1.61063e-05
1.61067e-05
1.61071e-05
1.61075e-05
1.61079e-05
1.61083e-05
1.61092e-05
1.611e-05
1.61096e-05
1.61045e-05
1.60941e-05
1.6082e-05
1.60724e-05
1.608e-05
1.61198e-05
1.61991e-05
1.63379e-05
1.65292e-05
1.6753e-05
1.69739e-05
1.71902e-05
1.73811e-05
1.73983e-05
1.72207e-05
1.68588e-05
1.62965e-05
1.5687e-05
1.60964e-05
1.60977e-05
1.60989e-05
1.60999e-05
1.61009e-05
1.61017e-05
1.61025e-05
1.61032e-05
1.61039e-05
1.61044e-05
1.6105e-05
1.61055e-05
1.61059e-05
1.61064e-05
1.61069e-05
1.61073e-05
1.61077e-05
1.61082e-05
1.61086e-05
1.6109e-05
1.61094e-05
1.61101e-05
1.6111e-05
1.61119e-05
1.61117e-05
1.61096e-05
1.61042e-05
1.6095e-05
1.60839e-05
1.60745e-05
1.60719e-05
1.60834e-05
1.61168e-05
1.61753e-05
1.62622e-05
1.6381e-05
1.65256e-05
1.66912e-05
1.68634e-05
1.70316e-05
1.71706e-05
1.60955e-05
1.60972e-05
1.60986e-05
1.60998e-05
1.61009e-05
1.61019e-05
1.61027e-05
1.61034e-05
1.61041e-05
1.61048e-05
1.61053e-05
1.61059e-05
1.61064e-05
1.61069e-05
1.61074e-05
1.61079e-05
1.61084e-05
1.61089e-05
1.61093e-05
1.61098e-05
1.61103e-05
1.61107e-05
1.61113e-05
1.6112e-05
1.61128e-05
1.61137e-05
1.61145e-05
1.61144e-05
1.61128e-05
1.6109e-05
1.61029e-05
1.60946e-05
1.60857e-05
1.60781e-05
1.60737e-05
1.6075e-05
1.60844e-05
1.61057e-05
1.61398e-05
1.61913e-05
1.6246e-05
1.60948e-05
1.60969e-05
1.60985e-05
1.60998e-05
1.61009e-05
1.61019e-05
1.61028e-05
1.61036e-05
1.61044e-05
1.6105e-05
1.61057e-05
1.61062e-05
1.61068e-05
1.61073e-05
1.61079e-05
1.61084e-05
1.6109e-05
1.61095e-05
1.611e-05
1.61105e-05
1.61111e-05
1.61116e-05
1.61121e-05
1.61127e-05
1.61133e-05
1.61139e-05
1.61147e-05
1.61156e-05
1.61166e-05
1.61174e-05
1.61179e-05
1.61176e-05
1.61163e-05
1.61138e-05
1.611e-05
1.61051e-05
1.60991e-05
1.60926e-05
1.60863e-05
1.60812e-05
1.60777e-05
1.60944e-05
1.60967e-05
1.60984e-05
1.60997e-05
1.61009e-05
1.61019e-05
1.61029e-05
1.61037e-05
1.61045e-05
1.61052e-05
1.61059e-05
1.61065e-05
1.61071e-05
1.61077e-05
1.61083e-05
1.61089e-05
1.61095e-05
1.611e-05
1.61106e-05
1.61112e-05
1.61118e-05
1.61124e-05
1.61129e-05
1.61135e-05
1.61141e-05
1.61147e-05
1.61153e-05
1.61159e-05
1.61166e-05
1.61174e-05
1.61183e-05
1.61192e-05
1.61201e-05
1.6121e-05
1.61217e-05
1.61221e-05
1.61221e-05
1.61215e-05
1.61203e-05
1.61182e-05
1.61163e-05
1.60941e-05
1.60965e-05
1.60982e-05
1.60996e-05
1.61008e-05
1.61019e-05
1.61029e-05
1.61038e-05
1.61046e-05
1.61054e-05
1.61061e-05
1.61068e-05
1.61074e-05
1.6108e-05
1.61087e-05
1.61093e-05
1.61099e-05
1.61105e-05
1.61111e-05
1.61117e-05
1.61124e-05
1.6113e-05
1.61136e-05
1.61143e-05
1.61149e-05
1.61155e-05
1.61161e-05
1.61168e-05
1.61174e-05
1.6118e-05
1.61187e-05
1.61194e-05
1.61201e-05
1.61208e-05
1.61216e-05
1.61224e-05
1.61233e-05
1.61241e-05
1.61249e-05
1.61256e-05
1.61263e-05
1.60939e-05
1.60963e-05
1.6098e-05
1.60994e-05
1.61007e-05
1.61018e-05
1.61028e-05
1.61037e-05
1.61046e-05
1.61054e-05
1.61062e-05
1.61069e-05
1.61076e-05
1.61083e-05
1.61089e-05
1.61096e-05
1.61103e-05
1.61109e-05
1.61116e-05
1.61122e-05
1.61129e-05
1.61136e-05
1.61142e-05
1.61149e-05
1.61155e-05
1.61162e-05
1.61169e-05
1.61175e-05
1.61182e-05
1.61188e-05
1.61194e-05
1.61201e-05
1.61207e-05
1.61213e-05
1.6122e-05
1.61226e-05
1.61232e-05
1.61238e-05
1.61244e-05
1.6125e-05
1.61257e-05
1.60936e-05
1.6096e-05
1.60977e-05
1.60992e-05
1.61004e-05
1.61016e-05
1.61026e-05
1.61036e-05
1.61045e-05
1.61054e-05
1.61062e-05
1.61069e-05
1.61077e-05
1.61084e-05
1.61091e-05
1.61098e-05
1.61105e-05
1.61112e-05
1.61119e-05
1.61126e-05
1.61133e-05
1.6114e-05
1.61147e-05
1.61154e-05
1.61161e-05
1.61167e-05
1.61174e-05
1.61181e-05
1.61188e-05
1.61194e-05
1.61201e-05
1.61207e-05
1.61213e-05
1.61219e-05
1.61225e-05
1.61231e-05
1.61237e-05
1.61242e-05
1.61247e-05
1.61251e-05
1.61257e-05
1.60933e-05
1.60956e-05
1.60974e-05
1.60988e-05
1.61001e-05
1.61013e-05
1.61023e-05
1.61033e-05
1.61043e-05
1.61052e-05
1.61061e-05
1.61069e-05
1.61077e-05
1.61084e-05
1.61092e-05
1.61099e-05
1.61107e-05
1.61114e-05
1.61122e-05
1.61129e-05
1.61136e-05
1.61144e-05
1.61151e-05
1.61158e-05
1.61165e-05
1.61172e-05
1.61179e-05
1.61186e-05
1.61192e-05
1.61199e-05
1.61205e-05
1.61212e-05
1.61218e-05
1.61224e-05
1.61229e-05
1.61235e-05
1.6124e-05
1.61245e-05
1.6125e-05
1.61254e-05
1.61259e-05
1.60929e-05
1.60952e-05
1.60969e-05
1.60984e-05
1.60996e-05
1.61008e-05
1.61019e-05
1.6103e-05
1.6104e-05
1.6105e-05
1.61059e-05
1.61067e-05
1.61076e-05
1.61084e-05
1.61092e-05
1.611e-05
1.61108e-05
1.61115e-05
1.61123e-05
1.61131e-05
1.61138e-05
1.61146e-05
1.61154e-05
1.61161e-05
1.61168e-05
1.61175e-05
1.61182e-05
1.61189e-05
1.61196e-05
1.61202e-05
1.61209e-05
1.61215e-05
1.61221e-05
1.61227e-05
1.61232e-05
1.61237e-05
1.61242e-05
1.61247e-05
1.61251e-05
1.61255e-05
1.61259e-05
1.60924e-05
1.60946e-05
1.60963e-05
1.60978e-05
1.60991e-05
1.61003e-05
1.61014e-05
1.61025e-05
1.61036e-05
1.61046e-05
1.61056e-05
1.61065e-05
1.61074e-05
1.61083e-05
1.61091e-05
1.61099e-05
1.61108e-05
1.61116e-05
1.61124e-05
1.61132e-05
1.6114e-05
1.61148e-05
1.61155e-05
1.61163e-05
1.6117e-05
1.61178e-05
1.61185e-05
1.61192e-05
1.61198e-05
1.61205e-05
1.61211e-05
1.61217e-05
1.61223e-05
1.61228e-05
1.61234e-05
1.61239e-05
1.61243e-05
1.61247e-05
1.61251e-05
1.61254e-05
1.61258e-05
1.60918e-05
1.6094e-05
1.60957e-05
1.60971e-05
1.60984e-05
1.60996e-05
1.61008e-05
1.6102e-05
1.61031e-05
1.61041e-05
1.61052e-05
1.61061e-05
1.61071e-05
1.6108e-05
1.61089e-05
1.61098e-05
1.61107e-05
1.61115e-05
1.61124e-05
1.61132e-05
1.6114e-05
1.61149e-05
1.61156e-05
1.61164e-05
1.61172e-05
1.61179e-05
1.61186e-05
1.61193e-05
1.612e-05
1.61206e-05
1.61212e-05
1.61218e-05
1.61224e-05
1.61229e-05
1.61234e-05
1.61239e-05
1.61243e-05
1.61247e-05
1.61251e-05
1.61253e-05
1.61257e-05
1.60911e-05
1.60932e-05
1.60948e-05
1.60963e-05
1.60976e-05
1.60988e-05
1.61001e-05
1.61013e-05
1.61024e-05
1.61035e-05
1.61046e-05
1.61057e-05
1.61067e-05
1.61077e-05
1.61086e-05
1.61096e-05
1.61105e-05
1.61114e-05
1.61123e-05
1.61131e-05
1.6114e-05
1.61148e-05
1.61156e-05
1.61164e-05
1.61172e-05
1.61179e-05
1.61187e-05
1.61194e-05
1.612e-05
1.61207e-05
1.61213e-05
1.61218e-05
1.61224e-05
1.61229e-05
1.61234e-05
1.61238e-05
1.61242e-05
1.61246e-05
1.61249e-05
1.61251e-05
1.61255e-05
1.60903e-05
1.60923e-05
1.60939e-05
1.60953e-05
1.60966e-05
1.60979e-05
1.60992e-05
1.61004e-05
1.61016e-05
1.61028e-05
1.61039e-05
1.61051e-05
1.61061e-05
1.61072e-05
1.61082e-05
1.61092e-05
1.61101e-05
1.61111e-05
1.6112e-05
1.61129e-05
1.61138e-05
1.61147e-05
1.61155e-05
1.61163e-05
1.61171e-05
1.61179e-05
1.61186e-05
1.61193e-05
1.61199e-05
1.61206e-05
1.61212e-05
1.61217e-05
1.61223e-05
1.61228e-05
1.61232e-05
1.61236e-05
1.6124e-05
1.61244e-05
1.61247e-05
1.61249e-05
1.61252e-05
1.60894e-05
1.60913e-05
1.60928e-05
1.60942e-05
1.60955e-05
1.60968e-05
1.60981e-05
1.60994e-05
1.61007e-05
1.61019e-05
1.61031e-05
1.61042e-05
1.61054e-05
1.61065e-05
1.61075e-05
1.61086e-05
1.61096e-05
1.61106e-05
1.61115e-05
1.61125e-05
1.61134e-05
1.61143e-05
1.61152e-05
1.6116e-05
1.61168e-05
1.61176e-05
1.61183e-05
1.6119e-05
1.61197e-05
1.61203e-05
1.61209e-05
1.61215e-05
1.6122e-05
1.61225e-05
1.61229e-05
1.61233e-05
1.61237e-05
1.6124e-05
1.61243e-05
1.61245e-05
1.61247e-05
1.60883e-05
1.60901e-05
1.60915e-05
1.60929e-05
1.60942e-05
1.60956e-05
1.60969e-05
1.60982e-05
1.60995e-05
1.61007e-05
1.6102e-05
1.61032e-05
1.61044e-05
1.61055e-05
1.61066e-05
1.61077e-05
1.61088e-05
1.61098e-05
1.61108e-05
1.61118e-05
1.61128e-05
1.61137e-05
1.61146e-05
1.61155e-05
1.61163e-05
1.61171e-05
1.61178e-05
1.61185e-05
1.61192e-05
1.61198e-05
1.61204e-05
1.61209e-05
1.61215e-05
1.61219e-05
1.61224e-05
1.61227e-05
1.61231e-05
1.61234e-05
1.61237e-05
1.61239e-05
1.61241e-05
1.6087e-05
1.60887e-05
1.60901e-05
1.60914e-05
1.60928e-05
1.60941e-05
1.60954e-05
1.60967e-05
1.6098e-05
1.60993e-05
1.61006e-05
1.61018e-05
1.61031e-05
1.61043e-05
1.61054e-05
1.61066e-05
1.61077e-05
1.61088e-05
1.61098e-05
1.61108e-05
1.61118e-05
1.61128e-05
1.61137e-05
1.61146e-05
1.61154e-05
1.61162e-05
1.6117e-05
1.61177e-05
1.61184e-05
1.6119e-05
1.61196e-05
1.61201e-05
1.61206e-05
1.61211e-05
1.61215e-05
1.61219e-05
1.61222e-05
1.61225e-05
1.61227e-05
1.61229e-05
1.61231e-05
1.60856e-05
1.60871e-05
1.60885e-05
1.60898e-05
1.6091e-05
1.60923e-05
1.60936e-05
1.60949e-05
1.60962e-05
1.60975e-05
1.60988e-05
1.61001e-05
1.61014e-05
1.61027e-05
1.61039e-05
1.61051e-05
1.61062e-05
1.61074e-05
1.61084e-05
1.61095e-05
1.61105e-05
1.61115e-05
1.61125e-05
1.61134e-05
1.61142e-05
1.6115e-05
1.61158e-05
1.61165e-05
1.61172e-05
1.61178e-05
1.61184e-05
1.61189e-05
1.61194e-05
1.61199e-05
1.61203e-05
1.61206e-05
1.6121e-05
1.61212e-05
1.61215e-05
1.61217e-05
1.61219e-05
1.6084e-05
1.60854e-05
1.60866e-05
1.60878e-05
1.6089e-05
1.60903e-05
1.60915e-05
1.60928e-05
1.60941e-05
1.60954e-05
1.60968e-05
1.60981e-05
1.60994e-05
1.61007e-05
1.61019e-05
1.61032e-05
1.61044e-05
1.61055e-05
1.61067e-05
1.61078e-05
1.61088e-05
1.61098e-05
1.61108e-05
1.61117e-05
1.61126e-05
1.61134e-05
1.61142e-05
1.61149e-05
1.61156e-05
1.61162e-05
1.61168e-05
1.61173e-05
1.61178e-05
1.61182e-05
1.61186e-05
1.6119e-05
1.61193e-05
1.61195e-05
1.61198e-05
1.61199e-05
1.61201e-05
1.60822e-05
1.60834e-05
1.60845e-05
1.60856e-05
1.60867e-05
1.60879e-05
1.60891e-05
1.60903e-05
1.60916e-05
1.60929e-05
1.60943e-05
1.60956e-05
1.60969e-05
1.60983e-05
1.60996e-05
1.61008e-05
1.61021e-05
1.61033e-05
1.61044e-05
1.61055e-05
1.61066e-05
1.61077e-05
1.61086e-05
1.61096e-05
1.61104e-05
1.61113e-05
1.6112e-05
1.61127e-05
1.61134e-05
1.6114e-05
1.61146e-05
1.61151e-05
1.61156e-05
1.61161e-05
1.61164e-05
1.61168e-05
1.61171e-05
1.61174e-05
1.61176e-05
1.61178e-05
1.6118e-05
1.60801e-05
1.60812e-05
1.60822e-05
1.60831e-05
1.60841e-05
1.60852e-05
1.60863e-05
1.60875e-05
1.60887e-05
1.609e-05
1.60913e-05
1.60927e-05
1.6094e-05
1.60953e-05
1.60966e-05
1.60979e-05
1.60992e-05
1.61004e-05
1.61016e-05
1.61028e-05
1.61039e-05
1.61049e-05
1.61059e-05
1.61069e-05
1.61078e-05
1.61086e-05
1.61094e-05
1.61102e-05
1.61108e-05
1.61115e-05
1.6112e-05
1.61126e-05
1.6113e-05
1.61134e-05
1.61138e-05
1.61142e-05
1.61144e-05
1.61147e-05
1.61149e-05
1.61151e-05
1.61152e-05
1.60778e-05
1.60787e-05
1.60795e-05
1.60803e-05
1.60812e-05
1.60821e-05
1.60831e-05
1.60842e-05
1.60854e-05
1.60866e-05
1.60879e-05
1.60891e-05
1.60904e-05
1.60917e-05
1.60931e-05
1.60943e-05
1.60956e-05
1.60969e-05
1.60981e-05
1.60992e-05
1.61003e-05
1.61014e-05
1.61024e-05
1.61033e-05
1.61042e-05
1.6105e-05
1.61058e-05
1.61065e-05
1.61072e-05
1.61078e-05
1.61084e-05
1.61089e-05
1.61094e-05
1.61098e-05
1.61102e-05
1.61105e-05
1.61108e-05
1.61111e-05
1.61113e-05
1.61115e-05
1.61117e-05
1.60753e-05
1.60759e-05
1.60765e-05
1.60772e-05
1.60779e-05
1.60787e-05
1.60795e-05
1.60805e-05
1.60815e-05
1.60826e-05
1.60837e-05
1.60849e-05
1.60861e-05
1.60873e-05
1.60886e-05
1.60898e-05
1.6091e-05
1.60922e-05
1.60933e-05
1.60945e-05
1.60956e-05
1.60967e-05
1.60977e-05
1.60987e-05
1.60997e-05
1.61006e-05
1.61014e-05
1.61021e-05
1.61028e-05
1.61035e-05
1.61041e-05
1.61046e-05
1.61051e-05
1.61055e-05
1.61059e-05
1.61062e-05
1.61065e-05
1.61068e-05
1.6107e-05
1.61072e-05
1.61073e-05
1.60724e-05
1.60728e-05
1.60732e-05
1.60737e-05
1.60742e-05
1.60748e-05
1.60754e-05
1.60761e-05
1.60769e-05
1.60778e-05
1.60787e-05
1.60796e-05
1.60807e-05
1.60818e-05
1.6083e-05
1.60843e-05
1.60856e-05
1.60868e-05
1.6088e-05
1.60892e-05
1.60903e-05
1.60914e-05
1.60924e-05
1.60933e-05
1.60942e-05
1.6095e-05
1.60958e-05
1.60965e-05
1.60972e-05
1.60978e-05
1.60983e-05
1.60989e-05
1.60993e-05
1.60997e-05
1.61001e-05
1.61004e-05
1.61007e-05
1.6101e-05
1.61012e-05
1.61014e-05
1.61016e-05
1.60693e-05
1.60694e-05
1.60695e-05
1.60697e-05
1.60699e-05
1.60702e-05
1.60705e-05
1.60708e-05
1.60712e-05
1.60716e-05
1.6072e-05
1.60725e-05
1.6073e-05
1.60735e-05
1.6074e-05
1.60745e-05
1.6075e-05
1.60754e-05
1.60759e-05
1.60763e-05
1.60767e-05
1.60771e-05
1.60776e-05
1.6078e-05
1.60784e-05
1.60789e-05
1.60793e-05
1.60797e-05
1.60802e-05
1.60806e-05
1.6081e-05
1.60814e-05
1.60818e-05
1.60822e-05
1.60825e-05
1.60828e-05
1.60832e-05
1.60835e-05
1.60837e-05
1.6084e-05
1.60843e-05
0.003503
0.00670658
0.0104625
0.0143999
0.0175443
0.0190317
0.0184669
0.0159115
0.0116712
0.00615566
0.00141767
1.60545e-05
1.00002e-05
1.09906e-05
1.60477e-05
1.63934e-05
1.61743e-05
1.61785e-05
1.62027e-05
1.62147e-05
1.62208e-05
1.62231e-05
1.62217e-05
1.62172e-05
1.621e-05
1.62009e-05
1.61909e-05
1.61807e-05
1.61711e-05
1.61626e-05
1.61556e-05
1.61501e-05
1.61461e-05
1.61433e-05
1.61413e-05
1.614e-05
1.61391e-05
1.61384e-05
1.61377e-05
1.61369e-05
1.61358e-05
1.61345e-05
1.61329e-05
1.61308e-05
1.61282e-05
1.61252e-05
1.61219e-05
1.61184e-05
1.61151e-05
1.61124e-05
1.61106e-05
1.61093e-05
1.61083e-05
1.61076e-05
1.6107e-05
1.61066e-05
1.61062e-05
1.61059e-05
1.61059e-05
1.61061e-05
1.61067e-05
1.61078e-05
1.61093e-05
1.61112e-05
1.61137e-05
1.61166e-05
1.61199e-05
1.61234e-05
1.61271e-05
1.61309e-05
1.61347e-05
1.61388e-05
1.61417e-05
1.61486e-05
0.0061675
0.010458
0.0146704
0.0187005
0.0218689
0.0234248
0.0229809
0.0205585
0.0164434
0.0108688
0.00445723
0.000612533
2.89552e-05
1.00061e-05
1.3214e-05
1.68064e-05
1.63742e-05
1.62049e-05
1.62164e-05
1.623e-05
1.62356e-05
1.62367e-05
1.62339e-05
1.62277e-05
1.62189e-05
1.62083e-05
1.61969e-05
1.61856e-05
1.61752e-05
1.61661e-05
1.61586e-05
1.61527e-05
1.61484e-05
1.61453e-05
1.61433e-05
1.61419e-05
1.61408e-05
1.614e-05
1.61391e-05
1.61381e-05
1.61368e-05
1.61352e-05
1.61332e-05
1.61308e-05
1.61279e-05
1.61246e-05
1.61212e-05
1.61177e-05
1.61147e-05
1.61126e-05
1.61112e-05
1.61103e-05
1.61097e-05
1.61093e-05
1.6109e-05
1.61087e-05
1.61085e-05
1.61084e-05
1.61086e-05
1.61089e-05
1.61097e-05
1.61108e-05
1.61123e-05
1.61143e-05
1.61168e-05
1.61196e-05
1.61227e-05
1.61261e-05
1.61296e-05
1.61332e-05
1.61367e-05
1.61404e-05
1.61431e-05
1.61495e-05
0.00870212
0.0143644
0.0192315
0.023452
0.0267061
0.0284088
0.028187
0.0260009
0.0220722
0.0166379
0.00971903
0.0030146
0.000197063
1.10685e-05
1.00005e-05
1.44863e-05
1.67627e-05
1.63287e-05
1.62305e-05
1.62452e-05
1.62509e-05
1.62496e-05
1.62452e-05
1.62378e-05
1.6228e-05
1.62164e-05
1.62038e-05
1.61913e-05
1.61797e-05
1.61697e-05
1.61615e-05
1.61553e-05
1.61507e-05
1.61474e-05
1.61452e-05
1.61436e-05
1.61425e-05
1.61414e-05
1.61404e-05
1.61391e-05
1.61376e-05
1.61357e-05
1.61334e-05
1.61306e-05
1.61274e-05
1.6124e-05
1.61205e-05
1.61172e-05
1.61146e-05
1.6113e-05
1.61121e-05
1.61116e-05
1.61114e-05
1.61112e-05
1.61111e-05
1.61111e-05
1.61111e-05
1.61111e-05
1.61114e-05
1.61119e-05
1.61127e-05
1.61139e-05
1.61155e-05
1.61175e-05
1.61199e-05
1.61226e-05
1.61256e-05
1.61287e-05
1.6132e-05
1.61353e-05
1.61386e-05
1.61421e-05
1.61444e-05
1.61504e-05
0.0111646
0.01844
0.0241208
0.0286467
0.032055
0.03396
0.0340288
0.032164
0.0284966
0.0232489
0.0164382
0.00831303
0.00195639
7.61993e-05
1.00186e-05
1.00068e-05
1.44978e-05
1.6527e-05
1.62714e-05
1.62378e-05
1.62611e-05
1.6264e-05
1.6257e-05
1.62466e-05
1.62347e-05
1.62223e-05
1.62095e-05
1.61968e-05
1.61849e-05
1.61742e-05
1.61653e-05
1.61583e-05
1.61531e-05
1.61495e-05
1.6147e-05
1.61453e-05
1.6144e-05
1.61428e-05
1.61415e-05
1.614e-05
1.61382e-05
1.6136e-05
1.61334e-05
1.61303e-05
1.61269e-05
1.61234e-05
1.61199e-05
1.61169e-05
1.61148e-05
1.61137e-05
1.61133e-05
1.61132e-05
1.61132e-05
1.61133e-05
1.61135e-05
1.61136e-05
1.61138e-05
1.6114e-05
1.61144e-05
1.6115e-05
1.61159e-05
1.61171e-05
1.61187e-05
1.61207e-05
1.6123e-05
1.61256e-05
1.61284e-05
1.61314e-05
1.61344e-05
1.61375e-05
1.61404e-05
1.61436e-05
1.61457e-05
1.61512e-05
0.0136943
0.0227133
0.0292853
0.0342293
0.0378729
0.040033
0.0404473
0.0389835
0.0356817
0.0306986
0.0241391
0.0158815
0.00694785
0.00134635
1.08585e-05
1.00002e-05
1.01163e-05
1.50703e-05
1.6524e-05
1.62615e-05
1.62423e-05
1.62688e-05
1.6272e-05
1.62636e-05
1.62492e-05
1.62321e-05
1.62153e-05
1.62004e-05
1.61876e-05
1.6177e-05
1.61683e-05
1.61615e-05
1.61562e-05
1.61521e-05
1.61492e-05
1.6147e-05
1.61454e-05
1.61439e-05
1.61425e-05
1.61407e-05
1.61386e-05
1.61361e-05
1.61332e-05
1.61299e-05
1.61263e-05
1.61228e-05
1.61196e-05
1.6117e-05
1.61153e-05
1.61147e-05
1.61147e-05
1.61149e-05
1.61153e-05
1.61157e-05
1.6116e-05
1.61163e-05
1.61166e-05
1.6117e-05
1.61175e-05
1.61182e-05
1.61191e-05
1.61204e-05
1.61219e-05
1.61238e-05
1.61261e-05
1.61285e-05
1.61312e-05
1.61339e-05
1.61367e-05
1.61395e-05
1.61422e-05
1.61451e-05
1.61469e-05
1.6152e-05
0.0169012
0.0272031
0.0346511
0.0401098
0.0440734
0.046544
0.0473529
0.0463627
0.043542
0.0389588
0.032724
0.0247914
0.0151582
0.00585624
0.000936196
0.000169331
1.00007e-05
1.03397e-05
1.55394e-05
1.66686e-05
1.63099e-05
1.62557e-05
1.62691e-05
1.62665e-05
1.62595e-05
1.62494e-05
1.62348e-05
1.62172e-05
1.61994e-05
1.61837e-05
1.61713e-05
1.61626e-05
1.6157e-05
1.61534e-05
1.6151e-05
1.6149e-05
1.61472e-05
1.61453e-05
1.61434e-05
1.61412e-05
1.61388e-05
1.61361e-05
1.61329e-05
1.61295e-05
1.61259e-05
1.61224e-05
1.61195e-05
1.61173e-05
1.61161e-05
1.6116e-05
1.61163e-05
1.61169e-05
1.61176e-05
1.61182e-05
1.61187e-05
1.61192e-05
1.61197e-05
1.61201e-05
1.61207e-05
1.61214e-05
1.61224e-05
1.61237e-05
1.61252e-05
1.61271e-05
1.61291e-05
1.61315e-05
1.61339e-05
1.61364e-05
1.6139e-05
1.61415e-05
1.61439e-05
1.61465e-05
1.61481e-05
1.61526e-05
0.0214206
0.0318924
0.0401415
0.0461693
0.0505239
0.053359
0.0546074
0.0541541
0.0519239
0.0479029
0.0421393
0.0346564
0.0253248
0.0145146
0.00511101
0.000695384
0.000137234
1.00018e-05
1.03788e-05
1.55976e-05
1.68013e-05
1.63415e-05
1.62588e-05
1.62661e-05
1.62453e-05
1.62258e-05
1.62176e-05
1.62134e-05
1.62079e-05
1.61994e-05
1.61883e-05
1.61761e-05
1.61651e-05
1.61568e-05
1.61514e-05
1.61486e-05
1.61471e-05
1.61459e-05
1.61443e-05
1.6142e-05
1.61392e-05
1.6136e-05
1.61326e-05
1.6129e-05
1.61255e-05
1.61223e-05
1.61196e-05
1.61179e-05
1.61171e-05
1.61174e-05
1.61182e-05
1.61191e-05
1.612e-05
1.61208e-05
1.61216e-05
1.61222e-05
1.61228e-05
1.61234e-05
1.6124e-05
1.61248e-05
1.61258e-05
1.6127e-05
1.61285e-05
1.61303e-05
1.61322e-05
1.61343e-05
1.61366e-05
1.61389e-05
1.61411e-05
1.61434e-05
1.61455e-05
1.61478e-05
1.61491e-05
1.61532e-05
0.0268118
0.0367334
0.0456801
0.0522593
0.0570426
0.0602859
0.0620118
0.0621465
0.0605992
0.0572966
0.0522055
0.0453239
0.0365991
0.0259227
0.0141592
0.00473775
0.000599897
0.000138902
1.00017e-05
1.01678e-05
1.51469e-05
1.70616e-05
1.64529e-05
1.62788e-05
1.63177e-05
1.62984e-05
1.624e-05
1.61921e-05
1.61665e-05
1.61582e-05
1.616e-05
1.61654e-05
1.61693e-05
1.61689e-05
1.61645e-05
1.61579e-05
1.61515e-05
1.61465e-05
1.61432e-05