/*--------------------------------*- C++ -*----------------------------------*\
| =========                 |                                                 |
| \\      /  F ield         | OpenFOAM: The Open Source CFD Toolbox           |
|  \\    /   O peration     | Version:  2312                                  |
|   \\  /    A nd           | Website:  www.openfoam.com                      |
|    \\/     M anipulation  |                                                 |
\*---------------------------------------------------------------------------*/
FoamFile
{
    version     2.0;
    format      ascii;
    arch        "LSB;label=32;scalar=64";
    class       volVectorField;
    location    "500";
    object      U;
}
// * * * * * * * * * * * * * * * * * * * * * * * * * * * * * * * * * * * * * //

dimensions      [0 1 -1 0 0 0 0];

internalField   nonuniform List<vector> 
11040
(
(-0.574804 8.79522 -3.52735e-19)
(0.810784 5.90591 -2.12468e-18)
(0.0208989 -0.0178325 -2.28894e-17)
(-1.37939 -1.18762 -1.19891e-17)
(-1.42035 -0.698381 -4.40944e-18)
(-1.40914 -0.612286 -1.72375e-17)
(-1.3961 -0.522497 3.11349e-17)
(-1.35401 -0.437255 2.25366e-17)
(-1.31908 -0.367808 4.42899e-18)
(-1.29093 -0.311603 1.22973e-18)
(-1.26429 -0.26556 -2.09642e-17)
(-1.23819 -0.223581 3.06108e-18)
(-1.21613 -0.186907 8.55687e-18)
(-1.19558 -0.153584 7.21393e-18)
(-1.17873 -0.12232 -6.91604e-18)
(-1.16721 -0.0938892 1.2029e-17)
(-1.16055 -0.0667257 5.66376e-18)
(-1.1604 -0.0408931 -1.46292e-17)
(-1.16834 -0.015625 -4.42676e-19)
(-1.18549 0.0093725 2.40045e-18)
(-1.21176 0.0344808 -2.69686e-18)
(-1.24586 0.0579909 -9.2915e-18)
(-1.29066 0.0790842 9.43064e-18)
(-1.34898 0.0997699 -9.60226e-18)
(-1.42007 0.120908 9.82826e-18)
(-1.50046 0.142587 1.73873e-17)
(-1.58535 0.164472 7.31248e-18)
(-1.66798 0.185943 6.7902e-18)
(-1.74225 0.206012 7.05297e-18)
(-1.80025 0.223418 9.27048e-18)
(-1.83265 0.236584 -1.62479e-17)
(-1.82861 0.244197 -1.2463e-17)
(-1.78015 0.245181 -3.76334e-17)
(-1.69085 0.238674 -2.16881e-17)
(-1.55413 0.221205 2.32666e-18)
(-1.36371 0.190298 -3.31017e-17)
(-1.10946 0.144989 8.7899e-19)
(-0.788261 0.0848183 -2.33545e-17)
(-0.391213 0.0140704 4.04316e-17)
(0.250574 -0.103475 3.88626e-17)
(-0.322585 -0.480056 -6.19277e-18)
(1.45564 7.91028 2.13478e-19)
(3.0776 8.47381 -2.497e-19)
(2.73095 5.31925 7.20654e-18)
(0.824268 1.33885 1.15014e-18)
(-1.01462 -0.692824 -5.1908e-19)
(-1.25914 -0.579711 6.08e-18)
(-1.36071 -0.517711 -9.53679e-19)
(-1.3716 -0.452124 -1.30571e-17)
(-1.36796 -0.390731 5.79187e-19)
(-1.36589 -0.335419 -4.24879e-18)
(-1.36024 -0.29144 6.44858e-18)
(-1.35072 -0.249225 -2.28907e-17)
(-1.3433 -0.210911 -1.79948e-18)
(-1.33544 -0.17663 -1.63446e-17)
(-1.33052 -0.143198 7.4111e-18)
(-1.33031 -0.112558 -3.02831e-18)
(-1.33545 -0.082731 -4.9579e-18)
(-1.3486 -0.0538617 -5.05918e-18)
(-1.3693 -0.0250629 -6.56798e-19)
(-1.39876 0.00414972 3.93904e-19)
(-1.43753 0.0343597 1.39713e-18)
(-1.48514 0.0630707 3.98625e-18)
(-1.54291 0.0886494 -6.10101e-18)
(-1.60996 0.113625 -1.38023e-18)
(-1.68228 0.138752 -1.65906e-18)
(-1.75468 0.163639 3.37433e-18)
(-1.8224 0.187509 2.02528e-18)
(-1.8804 0.209808 -1.11068e-17)
(-1.92286 0.229363 -8.94023e-19)
(-1.94442 0.245069 6.50143e-18)
(-1.94063 0.255585 8.21857e-18)
(-1.90903 0.260229 1.69355e-17)
(-1.84659 0.258336 1.39156e-17)
(-1.74238 0.247346 6.7748e-18)
(-1.5918 0.224885 -3.10627e-18)
(-1.38939 0.188895 1.23962e-17)
(-1.12838 0.136225 -9.47874e-18)
(-0.809439 0.0624373 7.00472e-18)
(-0.426722 -0.0218122 -3.00121e-18)
(0.245408 -0.133788 -4.32713e-18)
(0.255161 -0.426746 5.6459e-18)
(1.83589 7.07 -1.59907e-20)
(3.35972 8.13325 1.13369e-18)
(4.18638 7.91053 -2.06818e-18)
(3.51425 5.45823 -3.23973e-18)
(1.5585 2.10489 3.07757e-19)
(-0.400311 -0.161261 -4.12595e-18)
(-1.0231 -0.422835 -9.03748e-18)
(-1.21526 -0.418436 -8.24209e-18)
(-1.27098 -0.374647 5.97829e-18)
(-1.30716 -0.328841 2.7049e-19)
(-1.33052 -0.293528 3.60074e-18)
(-1.34123 -0.255209 1.18424e-17)
(-1.35029 -0.217674 -9.1695e-18)
(-1.35519 -0.184109 1.01319e-17)
(-1.36087 -0.149478 -6.33921e-18)
(-1.36949 -0.117585 -2.87565e-18)
(-1.38196 -0.0858463 1.3749e-18)
(-1.40066 -0.0548652 1.95604e-18)
(-1.42571 -0.0238874 9.74478e-20)
(-1.45829 0.00758189 -9.45665e-20)
(-1.49874 0.0402209 -3.22249e-18)
(-1.54579 0.0715473 -2.70536e-18)
(-1.59947 0.0991916 5.54961e-19)
(-1.65888 0.125265 -3.7802e-19)
(-1.72107 0.150423 3.22719e-18)
(-1.78235 0.174394 -7.0705e-18)
(-1.83922 0.196368 -5.06525e-18)
(-1.8876 0.215848 7.28197e-18)
(-1.923 0.231771 1.75935e-18)
(-1.94091 0.24335 -1.09462e-18)
(-1.93657 0.249386 -7.22069e-18)
(-1.90501 0.248797 3.04659e-18)
(-1.84038 0.240163 -6.81996e-18)
(-1.73598 0.221622 -9.03e-18)
(-1.58701 0.191312 1.97907e-18)
(-1.38857 0.147407 5.02927e-18)
(-1.13465 0.0866828 7.47098e-18)
(-0.826193 0.00319887 -7.55357e-18)
(-0.463978 -0.0950857 -1.5526e-18)
(0.163051 -0.216798 -2.07247e-18)
(0.311502 -0.593427 -3.34043e-18)
(2.2381 6.63963 -5.50061e-20)
(3.15222 7.33728 -2.13945e-19)
(4.21454 8.02481 1.12029e-18)
(4.7715 7.65197 2.05919e-18)
(4.11232 5.64507 -2.86403e-19)
(2.30324 2.75626 -2.58288e-18)
(0.279932 0.424828 1.76411e-18)
(-0.713196 -0.238627 4.39812e-18)
(-1.02221 -0.302496 -3.32074e-18)
(-1.14357 -0.283093 3.73475e-18)
(-1.21744 -0.267791 -8.72569e-18)
(-1.25916 -0.242575 1.17775e-18)
(-1.29139 -0.210934 1.2653e-18)
(-1.31307 -0.181966 -8.07709e-18)
(-1.33065 -0.148449 -3.9518e-18)
(-1.34814 -0.117135 2.51349e-18)
(-1.36674 -0.0849869 4.78248e-18)
(-1.38971 -0.0531622 2.22551e-18)
(-1.41739 -0.0211902 -1.37719e-19)
(-1.45103 0.0113772 1.47318e-19)
(-1.49095 0.0450202 8.3919e-19)
(-1.53579 0.0774755 2.51259e-18)
(-1.58537 0.106201 8.50218e-19)
(-1.6394 0.132836 1.51414e-18)
(-1.69609 0.15789 2.28167e-18)
(-1.7527 0.18119 1.017e-17)
(-1.80624 0.20191 -7.37697e-19)
(-1.85293 0.219472 -1.29561e-18)
(-1.88846 0.232721 -4.4333e-18)
(-1.90812 0.240771 -3.84029e-18)
(-1.90664 0.242289 5.39486e-18)
(-1.87849 0.235986 -4.58968e-18)
(-1.81801 0.220358 1.20465e-17)
(-1.71952 0.193727 3.1722e-18)
(-1.57815 0.154313 2.49193e-18)
(-1.38936 0.100372 5.21669e-19)
(-1.14774 0.0288341 -1.16237e-19)
(-0.854091 -0.0667718 -6.04449e-19)
(-0.515584 -0.182029 1.637e-18)
(0.0389376 -0.305314 -2.38336e-18)
(0.245169 -0.690582 6.3506e-19)
(2.69347 6.14946 1.06312e-19)
(3.3847 6.70289 -9.84848e-20)
(4.09727 7.23747 -9.9228e-19)
(4.88338 7.74079 -1.5825e-18)
(5.28606 7.46158 1.57188e-18)
(4.72265 5.89812 -1.16006e-19)
(3.10055 3.42449 4.57888e-19)
(1.10176 1.12781 2.72598e-18)
(-0.290329 -0.00258505 -1.13612e-18)
(-0.766508 -0.165098 -2.04107e-18)
(-0.986848 -0.19671 -2.87416e-18)
(-1.0956 -0.199799 -1.8774e-20)
(-1.16721 -0.184314 -9.70061e-20)
(-1.21728 -0.167101 5.12353e-18)
(-1.25341 -0.138899 3.08377e-18)
(-1.28407 -0.110794 1.222e-19)
(-1.31098 -0.0799502 -2.06884e-18)
(-1.33922 -0.0485007 2.2938e-18)
(-1.36973 -0.0165986 -3.3769e-19)
(-1.40433 0.0161555 8.01209e-19)
(-1.44382 0.0499446 -1.63481e-18)
(-1.48725 0.0828153 -1.7256e-19)
(-1.53463 0.112205 2.14716e-18)
(-1.58611 0.139313 -2.29411e-18)
(-1.64065 0.164441 -5.00366e-18)
(-1.69603 0.187318 -2.5077e-18)
(-1.74951 0.207038 5.16507e-19)
(-1.79749 0.222828 -3.96179e-18)
(-1.83568 0.233395 1.11446e-19)
(-1.8593 0.237649 3.65265e-18)
(-1.86302 0.234143 -2.87448e-18)
(-1.84129 0.221501 6.05154e-19)
(-1.78872 0.198223 -8.37055e-18)
(-1.69996 0.162681 -3.96609e-18)
(-1.57021 0.11314 -2.27935e-18)
(-1.39526 0.0479905 -2.15022e-18)
(-1.17044 -0.0354346 1.17454e-18)
(-0.89663 -0.143559 -5.2507e-20)
(-0.584822 -0.274767 8.58637e-19)
(-0.110303 -0.40272 3.18112e-18)
(0.124291 -0.752466 -1.84305e-18)
(3.09797 5.70734 -1.42345e-19)
(3.6156 6.22295 1.82461e-19)
(4.14352 6.61785 2.22472e-19)
(4.73011 7.04009 5.6645e-19)
(5.37239 7.44603 -4.25919e-19)
(5.73615 7.31075 2.07857e-19)
(5.32871 6.16247 5.09319e-19)
(3.96251 4.1203 1.87583e-20)
(2.04521 1.92056 -9.96255e-20)
(0.360051 0.41491 4.07351e-18)
(-0.429332 -0.0140541 4.70701e-18)
(-0.773657 -0.0992967 -2.20144e-18)
(-0.941917 -0.119159 -1.392e-18)
(-1.05073 -0.127758 6.44598e-18)
(-1.12039 -0.114605 -5.42678e-18)
(-1.17446 -0.0951402 2.38268e-18)
(-1.21627 -0.0690761 2.24789e-19)
(-1.25401 -0.0400309 6.33576e-19)
(-1.28986 -0.00954051 7.45856e-19)
(-1.32695 0.0225157 -3.72394e-19)
(-1.36706 0.0558125 -7.82355e-19)
(-1.4102 0.0887194 5.64317e-19)
(-1.45678 0.118641 -9.47731e-19)
(-1.50737 0.146269 -6.656e-19)
(-1.56149 0.171655 4.80741e-18)
(-1.61733 0.19431 -3.14791e-18)
(-1.67234 0.213187 -7.33359e-19)
(-1.72313 0.227233 4.91156e-18)
(-1.76554 0.234996 3.84421e-18)
(-1.79487 0.235151 -1.87796e-18)
(-1.80592 0.226137 -1.53416e-18)
(-1.79329 0.206481 -4.90433e-19)
(-1.75176 0.1747 3.88899e-18)
(-1.67619 0.129211 4.05063e-18)
(-1.56194 0.0683612 1.14776e-18)
(-1.40518 -0.00923677 -1.53151e-18)
(-1.20214 -0.105597 -2.1663e-19)
(-0.954049 -0.226363 -1.03918e-18)
(-0.672684 -0.370717 -2.50048e-18)
(-0.277168 -0.507847 -1.21841e-19)
(-0.0328362 -0.801214 1.94159e-18)
(3.48135 5.34755 -2.68541e-20)
(3.8554 5.78211 1.61e-19)
(4.25655 6.17015 4.07665e-20)
(4.6946 6.4695 4.72394e-19)
(5.19434 6.78969 2.36435e-19)
(5.7441 7.13111 -8.05014e-19)
(6.11404 7.14069 2.34804e-19)
(5.89599 6.38604 -2.09477e-19)
(4.83692 4.79285 -1.52246e-18)
(3.10001 2.78478 3.86724e-20)
(1.28548 1.07313 -5.49854e-18)
(0.0532752 0.208756 7.38099e-18)
(-0.467318 0.0225317 -6.15603e-18)
(-0.748643 -0.0375974 -6.81554e-19)
(-0.897693 -0.0574431 2.93355e-18)
(-1.00079 -0.059526 -1.04693e-18)
(-1.07214 -0.0467883 4.09406e-18)
(-1.12872 -0.0246032 -1.68853e-18)
(-1.17595 0.00175648 3.89701e-19)
(-1.2194 0.0315517 -3.06644e-19)
(-1.26237 0.0633918 3.18408e-19)
(-1.30642 0.0958973 -4.18657e-19)
(-1.35308 0.12625 2.20248e-18)
(-1.40354 0.154515 -7.20411e-19)
(-1.45796 0.180393 -1.80687e-18)
(-1.51497 0.203096 8.41831e-19)
(-1.5723 0.221356 2.72396e-18)
(-1.62681 0.233788 -1.33761e-18)
(-1.67457 0.238721 3.59836e-20)
(-1.71111 0.234569 -1.04734e-18)
(-1.73145 0.219635 6.79582e-20)
(-1.73042 0.192337 -1.8052e-18)
(-1.70294 0.1512 -3.96547e-20)
(-1.64416 0.0947123 8.08867e-19)
(-1.54965 0.0213794 2.69729e-18)
(-1.41597 -0.0698245 -2.07374e-18)
(-1.24032 -0.180064 -2.40088e-18)
(-1.0243 -0.313473 1.97198e-18)
(-0.778317 -0.468149 -7.30222e-19)
(-0.457526 -0.615773 2.14615e-20)
(-0.221499 -0.851649 9.15704e-20)
(3.82848 5.04259 -7.42087e-21)
(4.11765 5.40421 -5.3678e-20)
(4.41681 5.74787 3.32229e-20)
(4.75498 6.04315 -2.75815e-19)
(5.13079 6.27041 -1.54464e-19)
(5.55529 6.50852 -2.62636e-19)
(6.03115 6.79648 1.13562e-18)
(6.4136 6.92122 1.82233e-19)
(6.38681 6.51425 5.34596e-19)
(5.66113 5.37349 -1.12115e-18)
(4.22029 3.67621 1.1812e-18)
(2.42428 1.92267 1.6618e-18)
(0.849595 0.666548 -4.20035e-18)
(-0.0505658 0.173042 6.45834e-18)
(-0.46693 0.0626074 1.07883e-19)
(-0.703713 0.0204944 -1.34663e-18)
(-0.845059 0.00362396 -4.87432e-18)
(-0.943988 0.00728692 -3.89389e-19)
(-1.01691 0.0221582 -1.52684e-18)
(-1.07561 0.0458479 5.78376e-18)
(-1.12658 0.0740203 -3.64201e-18)
(-1.17398 0.105143 6.14455e-19)
(-1.22163 0.135645 1.21826e-18)
(-1.27217 0.16465 2.10499e-19)
(-1.32676 0.191348 4.71524e-19)
(-1.38483 0.214504 2.14047e-19)
(-1.44456 0.232525 1.10776e-18)
(-1.50312 0.243655 -6.51234e-19)
(-1.55692 0.245936 -2.63299e-18)
(-1.6018 0.237495 -7.5639e-19)
(-1.63312 0.216446 2.23714e-18)
(-1.64602 0.181093 1.07096e-18)
(-1.63564 0.129948 8.69647e-20)
(-1.59745 0.0616221 -1.87216e-18)
(-1.52731 -0.0251321 -1.045e-18)
(-1.42218 -0.130804 6.81654e-19)
(-1.28009 -0.255551 1.57841e-18)
(-1.1028 -0.40144 -8.70271e-19)
(-0.898556 -0.564391 6.00085e-19)
(-0.647986 -0.720712 -1.2708e-18)
(-0.436278 -0.909985 -1.87469e-19)
(4.14931 4.78001 -1.96178e-20)
(4.38121 5.08347 -1.30047e-19)
(4.61216 5.37524 2.69792e-19)
(4.86795 5.64809 4.0418e-20)
(5.16029 5.87866 -6.57487e-20)
(5.483 6.05198 1.48328e-20)
(5.84309 6.22306 -4.41682e-19)
(6.2526 6.45297 -4.51918e-19)
(6.63639 6.6422 -6.85484e-21)
(6.77028 6.51045 -8.39631e-19)
(6.37417 5.80328 -2.75041e-19)
(5.30379 4.49843 8.10924e-19)
(3.69355 2.87494 5.09281e-19)
(1.96895 1.40215 -2.12547e-18)
(0.638753 0.491703 7.30655e-18)
(-0.0665411 0.186602 -3.65031e-18)
(-0.428786 0.110484 3.26252e-18)
(-0.641474 0.0791011 -5.07492e-18)
(-0.77807 0.0672182 -1.5513e-19)
(-0.874837 0.0740181 1.70384e-18)
(-0.947622 0.0918719 -2.27507e-18)
(-1.00586 0.118427 -3.00353e-19)
(-1.05789 0.147771 6.00852e-19)
(-1.10956 0.177208 -1.98846e-18)
(-1.16405 0.205024 -5.48631e-19)
(-1.22226 0.229223 -1.45136e-18)
(-1.28342 0.247723 -2.61581e-18)
(-1.34541 0.25825 9.83332e-19)
(-1.40513 0.25846 7.16238e-19)
(-1.45883 0.246138 2.30446e-18)
(-1.50228 0.219206 -9.13855e-19)
(-1.53102 0.17583 6.68011e-19)
(-1.54056 0.114507 -7.78926e-19)
(-1.52674 0.0339902 1.88112e-18)
(-1.48579 -0.0666 -2.10303e-19)
(-1.41496 -0.187074 4.82089e-19)
(-1.31289 -0.326413 -2.38773e-18)
(-1.18114 -0.484393 1.5226e-18)
(-1.02585 -0.65466 -1.12682e-19)
(-0.841866 -0.817259 7.75812e-19)
(-0.666794 -0.975347 -7.9756e-19)
(4.44482 4.55177 -1.07469e-19)
(4.63613 4.80785 3.98042e-19)
(4.82064 5.05522 -1.40974e-19)
(5.01884 5.29112 -1.7044e-19)
(5.24346 5.50942 1.44542e-19)
(5.49689 5.69276 -3.53674e-19)
(5.77394 5.82786 1.0811e-19)
(6.07849 5.9476 1.72722e-18)
(6.42629 6.11603 -1.80715e-18)
(6.79059 6.31466 -1.80117e-19)
(7.03337 6.36865 9.02182e-20)
(6.92183 6.02956 6.71252e-20)
(6.24578 5.15068 8.87036e-19)
(4.96924 3.81611 -3.30596e-19)
(3.31963 2.33767 1.90426e-18)
(1.71804 1.11392 -2.29786e-18)
(0.577437 0.432133 1.01345e-18)
(-0.0262114 0.220045 -9.14898e-19)
(-0.356766 0.164292 1.81489e-18)
(-0.557353 0.138802 1.42042e-18)
(-0.689026 0.131237 6.09397e-19)
(-0.779653 0.1432 -1.65874e-18)
(-0.847944 0.165997 1.54548e-18)
(-0.906851 0.19359 8.64388e-19)
(-0.963651 0.221998 -2.40111e-18)
(-1.0222 0.24765 1.6385e-18)
(-1.08372 0.267547 1.85329e-18)
(-1.14762 0.278664 -2.12984e-18)
(-1.21184 0.278062 2.85194e-19)
(-1.27344 0.263112 -1.79861e-18)
(-1.32887 0.231397 9.29536e-19)
(-1.37427 0.180906 -1.22029e-18)
(-1.40564 0.11011 -4.01036e-19)
(-1.41925 0.0179434 6.55159e-20)
(-1.41171 -0.0960091 -8.26057e-19)
(-1.38049 -0.230758 2.39557e-19)
(-1.32445 -0.384042 6.80204e-19)
(-1.24464 -0.553463 -9.18711e-19)
(-1.14523 -0.730948 -1.35576e-19)
(-1.02609 -0.898505 -1.10433e-18)
(-0.898127 -1.04159 7.65695e-19)
(4.71692 4.35066 -1.10212e-19)
(4.87862 4.56827 -3.29065e-19)
(5.03096 4.77749 2.26482e-20)
(5.18919 4.97923 7.31571e-20)
(5.36445 5.17118 -5.45161e-20)
(5.56184 5.34734 -2.47976e-19)
(5.78154 5.4962 2.94319e-20)
(6.01937 5.60522 1.937e-20)
(6.27667 5.68932 1.24269e-19)
(6.56727 5.79975 1.68472e-18)
(6.89221 5.96561 5.40564e-19)
(7.18582 6.10926 1.40945e-19)
(7.28397 6.04001 -1.08877e-18)
(6.97324 5.56302 2.40871e-18)
(6.11295 4.61574 -1.99122e-18)
(4.74385 3.33394 1.18348e-18)
(3.12591 2.01267 -1.74425e-18)
(1.64293 0.978762 -4.80683e-18)
(0.621333 0.431572 3.1711e-19)
(0.065293 0.262534 6.57679e-18)
(-0.246998 0.218028 -3.71479e-18)
(-0.432458 0.201979 4.18412e-18)
(-0.550865 0.204811 -2.08072e-18)
(-0.636798 0.221572 3.34337e-19)
(-0.707182 0.245633 -2.1812e-19)
(-0.771759 0.270981 -1.65619e-18)
(-0.835768 0.292604 1.37128e-18)
(-0.901534 0.305718 -1.09923e-18)
(-0.969046 0.306222 8.96203e-19)
(-1.03687 0.290758 5.9289e-19)
(-1.1027 0.256493 7.65868e-20)
(-1.16365 0.201178 5.25758e-19)
(-1.21659 0.123239 3.11378e-19)
(-1.25857 0.0216539 -1.29716e-18)
(-1.2867 -0.10359 -7.60935e-19)
(-1.29857 -0.25071 5.28833e-19)
(-1.29285 -0.416215 6.34781e-19)
(-1.26982 -0.596055 1.23001e-19)
(-1.2316 -0.781122 1.2495e-18)
(-1.17781 -0.954525 8.75083e-19)
(-1.10665 -1.09697 1.97852e-19)
(4.96697 4.17181 -1.25555e-19)
(5.10618 4.35791 6.30541e-20)
(5.23534 4.53552 2.87771e-19)
(5.36533 4.70683 -2.55031e-19)
(5.50564 4.87246 1.87444e-20)
(5.66117 5.02924 6.11975e-20)
(5.83452 5.17278 9.68977e-20)
(6.02521 5.29547 -7.22747e-19)
(6.22989 5.38665 -1.78768e-18)
(6.44764 5.44858 2.3595e-18)
(6.68751 5.51361 -1.63122e-18)
(6.96318 5.62606 -4.22754e-19)
(7.2574 5.77895 -7.27395e-19)
(7.47688 5.8641 -4.16199e-19)
(7.45318 5.70605 9.50259e-19)
(7.00826 5.16342 -4.23715e-19)
(6.05492 4.22362 1.99925e-18)
(4.67261 3.0336 -1.85621e-18)
(3.11533 1.85181 -8.29951e-19)
(1.72083 0.944703 5.90445e-18)
(0.758079 0.460432 -3.55157e-18)
(0.233558 0.309641 -2.17551e-19)
(-0.051037 0.284867 8.71855e-19)
(-0.224713 0.285027 3.18688e-18)
(-0.343258 0.293375 -2.66376e-18)
(-0.434015 0.309135 -5.74882e-19)
(-0.511942 0.327643 -6.34564e-19)
(-0.58553 0.34148 3.34428e-18)
(-0.658768 0.344257 -1.46103e-18)
(-0.733055 0.330936 -4.72381e-19)
(-0.808233 0.297638 1.57856e-18)
(-0.883078 0.241434 -1.32641e-18)
(-0.955734 0.160498 -6.60937e-19)
(-1.02439 0.0537983 7.95068e-19)
(-1.08719 -0.078399 5.85552e-19)
(-1.14201 -0.233655 1.03606e-19)
(-1.18727 -0.407682 -2.99514e-19)
(-1.22257 -0.595653 -1.78087e-19)
(-1.2478 -0.788259 -6.21997e-19)
(-1.26064 -0.969739 5.4728e-19)
(-1.25481 -1.12236 -9.40673e-20)
(5.19616 4.0115 2.00354e-19)
(5.31773 4.1715 -4.44578e-19)
(5.42953 4.32286 4.12991e-19)
(5.53933 4.4682 9.88249e-20)
(5.65446 4.60957 -8.26565e-20)
(5.77959 4.74592 6.77947e-20)
(5.91754 4.87451 5.44106e-19)
(6.06976 4.99217 3.06583e-19)
(6.23568 5.09404 1.64728e-19)
(6.41245 5.17202 8.09042e-20)
(6.59759 5.22186 -5.94011e-19)
(6.79622 5.25851 9.34883e-19)
(7.02264 5.31893 -9.2756e-20)
(7.28362 5.43136 9.58811e-19)
(7.54394 5.56381 -2.60461e-18)
(7.69986 5.60326 2.67285e-18)
(7.59566 5.4009 -7.81954e-19)
(7.08642 4.85396 -2.28527e-18)
(6.11631 3.97107 1.89424e-18)
(4.77212 2.88601 -2.19146e-18)
(3.28204 1.81699 1.61401e-18)
(1.98519 1.0031 -6.38005e-19)
(1.10135 0.553783 2.57551e-18)
(0.581624 0.391494 -1.03142e-18)
(0.278789 0.368216 -5.21439e-18)
(0.0896296 0.38108 2.83467e-18)
(-0.0418534 0.394378 1.21755e-18)
(-0.145972 0.402032 -3.00305e-19)
(-0.23778 0.401791 2.32085e-19)
(-0.325247 0.389208 -6.86089e-19)
(-0.412706 0.358858 -3.25308e-18)
(-0.501977 0.306058 3.37225e-18)
(-0.593311 0.227757 -2.10981e-19)
(-0.686482 0.122525 -9.45938e-19)
(-0.780783 -0.00962672 1.03449e-18)
(-0.875059 -0.166344 -1.37691e-19)
(-0.967666 -0.343081 -2.52851e-19)
(-1.05781 -0.534658 4.54182e-19)
(-1.14382 -0.73242 2.04362e-19)
(-1.22214 -0.922545 -4.15271e-19)
(-1.28632 -1.09082 -2.08179e-19)
(5.40554 3.86703 6.16652e-21)
(5.51281 4.00512 2.16271e-19)
(5.61109 4.13456 4.00747e-19)
(5.70585 4.25797 -4.73574e-19)
(5.80279 4.37806 -1.57566e-20)
(5.90582 4.4949 -1.67292e-19)
(6.01755 4.60719 -2.93691e-19)
(6.13986 4.7128 -3.39046e-19)
(6.27367 4.80939 4.82596e-19)
(6.41835 4.89378 1.47783e-18)
(6.57149 4.9606 -5.09704e-19)
(6.73078 5.00429 1.01607e-18)
(6.89774 5.02765 -1.77441e-20)
(7.08152 5.05159 -1.95647e-18)
(7.29583 5.10934 -7.8852e-19)
(7.53999 5.21528 1.80259e-18)
(7.77031 5.32757 -9.77649e-19)
(7.886 5.34292 1.3065e-18)
(7.7496 5.13832 -1.88226e-18)
(7.24057 4.63373 1.24786e-19)
(6.31183 3.84047 -1.59065e-19)
(5.09641 2.90605 3.83545e-18)
(3.82454 2.01158 -1.21776e-19)
(2.68142 1.28188 -2.44173e-18)
(1.7972 0.79562 -4.96602e-19)
(1.19633 0.551584 -7.84359e-19)
(0.813159 0.475723 -2.68975e-18)
(0.56693 0.475834 3.34647e-18)
(0.398139 0.488316 -2.71005e-18)
(0.267513 0.485776 -9.0999e-20)
(0.152002 0.460891 7.38914e-19)
(0.0400922 0.412052 -4.57619e-19)
(-0.0732584 0.338365 3.55477e-19)
(-0.190886 0.23899 -1.469e-19)
(-0.314117 0.113745 1.68664e-18)
(-0.443005 -0.0359382 -1.49108e-18)
(-0.576944 -0.206853 1.07726e-19)
(-0.715241 -0.395032 6.92459e-20)
(-0.855433 -0.593157 8.92418e-20)
(-0.993525 -0.789681 -2.93025e-20)
(-1.12536 -0.972966 2.5547e-19)
(5.59607 3.73633 -3.57603e-19)
(5.69138 3.85577 1.67549e-19)
(5.77872 3.96668 -6.12632e-19)
(5.86187 4.07156 2.73135e-19)
(5.94528 4.17333 -1.24166e-19)
(6.03204 4.27263 6.31353e-21)
(6.1245 4.36895 -7.86883e-20)
(6.22434 4.46119 9.31439e-20)
(6.33286 4.54774 -1.04944e-18)
(6.45058 4.62667 5.64306e-19)
(6.57686 4.69586 7.64638e-20)
(6.71035 4.75245 -3.56363e-18)
(6.84914 4.79184 2.26282e-18)
(6.99217 4.81114 1.66509e-19)
(7.14331 4.81731 2.04453e-18)
(7.3135 4.83226 -1.85777e-18)
(7.51466 4.8834 3.02007e-19)
(7.74216 4.97745 1.46275e-18)
(7.95233 5.07426 -1.56484e-18)
(8.05669 5.08714 5.91361e-19)
(7.93195 4.91217 1.90164e-19)
(7.50126 4.50894 -3.95608e-19)
(6.78436 3.91725 1.40478e-19)
(5.85873 3.21074 -3.98559e-19)
(4.83586 2.48103 2.57241e-18)
(3.83074 1.81405 -3.64165e-18)
(2.94294 1.27685 3.19959e-18)
(2.2354 0.905828 9.19623e-19)
(1.71497 0.694907 -1.39121e-18)
(1.34552 0.60062 -5.69103e-19)
(1.08023 0.565017 -3.30801e-19)
(0.878933 0.539062 2.22415e-18)
(0.711502 0.494158 -2.59414e-19)
(0.556811 0.419564 -2.78997e-18)
(0.402248 0.314286 5.91087e-19)
(0.241821 0.181171 8.25559e-19)
(0.0737411 0.0241982 -7.26946e-19)
(-0.103621 -0.153012 7.36681e-19)
(-0.289102 -0.345182 2.53238e-19)
(-0.478185 -0.54295 1.14322e-19)
(-0.670783 -0.736612 -5.52961e-19)
(5.76833 3.61782 2.63022e-19)
(5.85341 3.72117 -3.12655e-19)
(5.9316 3.81626 6.61459e-19)
(6.00548 3.90541 -2.05808e-20)
(6.0785 3.99148 8.57276e-20)
(6.15313 4.0754 2.85538e-19)
(6.23126 4.15704 -9.74551e-20)
(6.3144 4.23591 6.81931e-20)
(6.40376 4.31113 2.81865e-19)
(6.50014 4.38137 -5.67055e-20)
(6.60372 4.44507 1.31613e-18)
(6.71433 4.501 -1.81877e-18)
(6.83133 4.54761 3.13303e-18)
(6.95308 4.58195 -2.39227e-18)
(7.0778 4.60027 -1.1169e-18)
(7.20576 4.60188 -4.30006e-19)
(7.3423 4.59519 -7.3392e-19)
(7.49868 4.60001 7.66632e-19)
(7.68517 4.63842 9.41837e-20)
(7.89805 4.71594 5.57678e-19)
(8.09915 4.79869 -2.78755e-19)
(8.21087 4.82161 3.05899e-19)
(8.16391 4.73002 1.16887e-18)
(7.92228 4.49734 -1.45126e-18)
(7.48169 4.12761 7.34882e-19)
(6.86883 3.65052 7.91579e-19)
(6.13357 3.11037 9.29407e-20)
(5.33805 2.55619 -3.6772e-18)
(4.54593 2.03448 8.67787e-19)
(3.81355 1.58329 1.88807e-18)
(3.17992 1.22581 -1.38168e-18)
(2.65838 0.964747 2.9775e-18)
(2.23882 0.783515 -2.77393e-18)
(1.89793 0.654394 3.82557e-19)
(1.61202 0.548711 9.45095e-19)
(1.36135 0.443392 -9.12423e-19)
(1.1306 0.323899 4.72456e-19)
(0.906282 0.183221 -5.2408e-20)
(0.682352 0.0209982 -8.08026e-19)
(0.456002 -0.157796 -3.15303e-20)
(0.21757 -0.345586 4.0155e-21)
(5.92272 3.50998 1.54985e-20)
(5.99877 3.59936 -1.92171e-19)
(6.06901 3.68087 -5.7311e-20)
(6.13515 3.75665 3.27761e-19)
(6.19987 3.8294 -7.99783e-21)
(6.26515 3.90009 -2.68987e-20)
(6.33245 3.96882 -3.44213e-19)
(6.40307 4.03536 2.06609e-19)
(6.47804 4.09927 -1.07367e-19)
(6.55813 4.15977 8.99295e-19)
(6.64378 4.21576 -1.91951e-19)
(6.73522 4.26627 -1.72865e-19)
(6.83253 4.31037 1.23827e-18)
(6.93525 4.34704 -4.80435e-19)
(7.04235 4.37476 -6.8555e-19)
(7.15224 4.39097 -5.78709e-19)
(7.26363 4.39286 -4.00285e-19)
(7.37756 4.38069 3.05832e-18)
(7.49966 4.36197 -3.19956e-18)
(7.64039 4.35309 4.66162e-21)
(7.81059 4.37234 1.91594e-18)
(8.00021 4.42261 -1.69882e-18)
(8.18032 4.48508 1.64712e-18)
(8.3167 4.52865 -7.19922e-19)
(8.37264 4.52036 -8.27166e-19)
(8.31903 4.43577 2.2421e-18)
(8.13981 4.26384 -8.55427e-19)
(7.8341 4.00718 1.17158e-18)
(7.41498 3.67922 -3.20616e-18)
(6.9062 3.30032 4.02877e-19)
(6.33781 2.89417 1.40414e-18)
(5.74206 2.48498 -1.83164e-19)
(5.14989 2.09442 -3.17824e-19)
(4.58445 1.7377 1.18128e-19)
(4.06175 1.4233 -4.58539e-20)
(3.58955 1.15227 2.8387e-19)
(3.16714 0.918764 -7.54119e-19)
(2.78329 0.71183 6.07787e-19)
(2.43019 0.522236 -3.2213e-19)
(2.10177 0.34243 2.98764e-19)
(1.77768 0.167716 2.85499e-20)
(6.0541 3.41626 9.06947e-21)
(6.12238 3.49394 -4.02374e-19)
(6.1858 3.56417 3.967e-19)
(6.2455 3.62898 -3.61626e-19)
(6.3036 3.69087 -5.10732e-20)
(6.36165 3.75074 2.45054e-19)
(6.42085 3.80881 2.21331e-19)
(6.48221 3.86501 -9.73528e-19)
(6.54664 3.91912 -5.12689e-20)
(6.6148 3.97059 1.51523e-18)
(6.68713 4.01871 -1.99903e-18)
(6.76399 4.06279 5.34234e-19)
(6.84563 4.10203 5.01731e-19)
(6.932 4.1356 -8.53376e-19)
(7.02284 4.1628 2.05349e-18)
(7.11755 4.18285 -2.71164e-19)
(7.21505 4.19444 -5.9684e-18)
(7.31393 4.19539 5.13393e-18)
(7.41324 4.18346 -1.88416e-18)
(7.51407 4.15883 -1.35667e-18)
(7.62211 4.12769 1.77972e-18)
(7.74245 4.10336 1.81051e-18)
(7.87828 4.09767 -2.67434e-18)
(8.02997 4.11499 2.49476e-18)
(8.18886 4.15063 -6.76494e-19)
(8.33915 4.19174 6.20785e-19)
(8.46102 4.22115 -1.14538e-18)
(8.53451 4.22155 1.17982e-18)
(8.54331 4.17923 4.36158e-19)
(8.47657 4.08583 -2.2318e-18)
(8.33008 3.93892 2.64837e-19)
(8.10602 3.74151 -1.29058e-19)
(7.81236 3.50097 1.29954e-18)
(7.45929 3.22632 3.6673e-20)
(7.0602 2.92864 -7.0325e-20)
(6.63037 2.61999 -1.33935e-19)
(6.1857 2.31136 -4.85682e-20)
(5.73354 2.00812 -1.09343e-19)
(5.28369 1.71648 -4.09691e-19)
(4.84715 1.43945 4.06558e-20)
(4.41025 1.17612 6.8093e-20)
(6.16106 3.33836 1.66575e-19)
(6.22291 3.40644 3.1021e-19)
(6.28069 3.46745 -2.19471e-19)
(6.33513 3.52337 -3.54861e-19)
(6.38792 3.57645 -4.59949e-21)
(6.44037 3.62753 1.93945e-19)
(6.49342 3.67686 -1.93173e-19)
(6.54792 3.72449 2.50088e-19)
(6.60461 3.77032 5.70735e-19)
(6.66408 3.814 -1.08969e-18)
(6.72671 3.85503 -1.39069e-18)
(6.79287 3.8929 1.66094e-18)
(6.86285 3.92703 1.47334e-18)
(6.93671 3.9567 -2.19567e-18)
(7.01438 3.9812 2.5747e-18)
(7.09568 3.99992 1.75436e-18)
(7.18026 4.01236 -1.34829e-18)
(7.26749 4.01792 -2.2218e-18)
(7.35636 4.01543 -2.8311e-19)
(7.44552 4.00301 1.79365e-18)
(7.53404 3.97859 -3.54065e-18)
(7.61991 3.94401 2.79261e-18)
(7.70466 3.90449 3.46538e-19)
(7.79425 3.86663 7.37335e-19)
(7.89381 3.83761 -1.27017e-18)
(8.00631 3.82258 6.23347e-19)
(8.1311 3.82306 -5.49961e-19)
(8.26348 3.83628 -3.82424e-19)
(8.39526 3.85588 7.55665e-19)
(8.51612 3.87331 -4.8418e-19)
(8.61511 3.87943 -2.47077e-19)
(8.68199 3.86583 9.77557e-19)
(8.70873 3.8261 -1.25153e-18)
(8.68947 3.75595 6.82759e-19)
(8.62108 3.65372 6.63712e-20)
(8.50305 3.52036 -8.09709e-19)
(8.33871 3.35932 5.8336e-19)
(8.12965 3.17286 1.27839e-19)
(7.88029 2.96615 -2.63688e-19)
(7.60095 2.74517 -7.88223e-20)
(7.28326 2.51122 -6.42854e-20)
(6.24923 3.27273 -1.02396e-19)
(6.30563 3.33275 3.83893e-20)
(6.35858 3.38609 -7.96246e-20)
(6.40854 3.43465 -1.16724e-19)
(6.45692 3.48047 7.78055e-20)
(6.50477 3.52432 -5.74668e-21)
(6.5529 3.56646 7.02279e-20)
(6.602 3.60698 -2.41611e-19)
(6.65268 3.64583 3.28452e-20)
(6.70546 3.6828 1.42849e-19)
(6.76067 3.71751 -5.08026e-19)
(6.81863 3.74962 8.10736e-19)
(6.87962 3.77868 -1.8326e-18)
(6.94376 3.80413 1.11819e-18)
(7.01106 3.82539 6.93429e-19)
(7.08143 3.84185 4.76348e-19)
(7.15469 3.85296 2.04686e-19)
(7.2306 3.85827 -3.46483e-19)
(7.30878 3.85738 -1.03719e-18)
(7.38864 3.8498 2.05471e-18)
(7.46923 3.83441 9.54385e-20)
(7.54655 3.811 -2.24972e-18)
(7.61807 3.77988 1.01398e-18)
(7.68488 3.74164 1.13699e-18)
(7.74886 3.6983 -2.30825e-18)
(7.81306 3.65301 2.08335e-18)
(7.88099 3.60952 -1.76958e-18)
(7.95584 3.5714 7.77195e-20)
(8.03966 3.54123 5.45439e-19)
(8.13278 3.5201 1.43434e-18)
(8.23368 3.50736 -1.8919e-18)
(8.33908 3.50081 5.37515e-19)
(8.44426 3.49696 9.99742e-19)
(8.54407 3.49182 -7.87686e-19)
(8.63281 3.48114 -9.34954e-20)
(8.70477 3.46101 -2.90138e-20)
(8.75535 3.42849 1.57045e-19)
(8.78103 3.38108 -1.07735e-19)
(8.77847 3.31717 7.52515e-20)
(8.74762 3.23717 -1.30708e-19)
(8.6827 3.13929 -9.29234e-21)
(6.32284 3.21652 2.23989e-20)
(6.37448 3.26967 3.94165e-19)
(6.42318 3.3165 -9.91265e-22)
(6.46922 3.35888 -2.03559e-19)
(6.51376 3.39862 5.92978e-20)
(6.55769 3.43642 -2.08139e-20)
(6.60168 3.47253 -1.84803e-19)
(6.64631 3.50708 1.03073e-19)
(6.69211 3.54005 3.66582e-19)
(6.73949 3.5713 3.69219e-20)
(6.78874 3.60053 1.45112e-19)
(6.84014 3.62748 5.717e-19)
(6.89393 3.65183 -3.89988e-19)
(6.95023 3.67313 -7.90336e-19)
(7.0091 3.69091 6.72554e-20)
(7.0705 3.70467 -2.5336e-19)
(7.13431 3.71391 6.41446e-19)
(7.20035 3.71815 -6.10581e-19)
(7.2684 3.71693 -4.27319e-19)
(7.3382 3.70992 -1.20407e-18)
(7.40942 3.69669 1.55203e-18)
(7.47909 3.67783 7.54277e-19)
(7.54479 3.65391 -8.10462e-19)
(7.60622 3.6248 -7.89444e-19)
(7.66293 3.59047 -4.55459e-19)
(7.71493 3.55113 1.59452e-18)
(7.76291 3.5074 9.78368e-19)
(7.80813 3.46037 8.84832e-19)
(7.85235 3.41155 -1.88026e-18)
(7.89749 3.36266 6.12641e-19)
(7.94541 3.31543 -7.54547e-19)
(7.99755 3.27133 4.18926e-19)
(8.05467 3.23136 -6.63474e-19)
(8.11704 3.19596 1.04e-18)
(8.18397 3.16497 -5.28631e-19)
(8.25396 3.13778 2.28571e-19)
(8.32464 3.11319 -4.73848e-19)
(8.39446 3.09003 3.90544e-19)
(8.46041 3.06649 -2.97357e-19)
(8.52005 3.04156 -8.45891e-21)
(8.57021 3.01331 5.22195e-20)
(6.38499 3.16775 -8.92135e-20)
(6.43239 3.21494 -3.62114e-20)
(6.47728 3.2562 -3.8865e-19)
(6.51982 3.29329 4.83085e-19)
(6.56094 3.32786 -9.56116e-20)
(6.60142 3.36052 -2.3696e-20)
(6.64182 3.39152 1.30949e-19)
(6.68263 3.421 -3.05131e-19)
(6.72429 3.44896 1.49851e-18)
(6.76715 3.4753 -2.16266e-18)
(6.81146 3.4998 1.14089e-18)
(6.85742 3.52224 3.50626e-19)
(6.90524 3.54237 -4.25712e-19)
(6.95505 3.55985 -1.78569e-18)
(7.00688 3.57428 4.53964e-19)
(7.06073 3.58525 -1.0513e-18)
(7.11652 3.59236 3.3856e-18)
(7.17411 3.59516 -9.28845e-19)
(7.23332 3.59324 -2.01842e-19)
(7.29391 3.5862 6.65263e-19)
(7.35566 3.57357 -3.22845e-18)
(7.41626 3.55602 1.9594e-18)
(7.47396 3.53434 1.17726e-18)
(7.52876 3.50882 -1.10162e-18)
(7.58026 3.47979 -2.84827e-19)
(7.62808 3.44742 9.93636e-19)
(7.67192 3.41179 -1.61701e-18)
(7.71162 3.37295 1.15717e-18)
(7.7472 3.33102 1.00483e-18)
(7.77895 3.28627 -7.29695e-19)
(7.80739 3.23914 -1.27872e-18)
(7.83325 3.19024 1.16229e-19)
(7.8574 3.14034 6.54239e-19)
(7.88078 3.09018 3.01536e-19)
(7.90428 3.04057 -7.74833e-19)
(7.92861 2.99237 8.15397e-19)
(7.95409 2.94626 -5.21653e-19)
(7.98138 2.90264 2.32765e-19)
(8.01037 2.86177 7.06922e-20)
(8.04102 2.82412 -2.01832e-19)
(8.07208 2.78926 -2.58724e-20)
(6.43791 3.125 -2.45742e-19)
(6.48149 3.16699 2.76412e-19)
(6.52292 3.20342 2.20682e-19)
(6.56226 3.23596 1.22856e-19)
(6.60029 3.26608 -4.04103e-20)
(6.63767 3.29433 -1.71599e-19)
(6.67487 3.32096 5.02538e-19)
(6.71232 3.34611 -1.54446e-18)
(6.75037 3.36979 2.06184e-18)
(6.78933 3.39193 -1.04813e-18)
(6.82938 3.41234 -1.67762e-18)
(6.87071 3.43087 4.57271e-19)
(6.91348 3.4473 2.1841e-18)
(6.95777 3.46137 1.16174e-18)
(7.00362 3.47274 -2.07783e-18)
(7.05102 3.48109 1.56729e-18)
(7.09991 3.48607 -1.22979e-18)
(7.15019 3.48731 -2.98758e-19)
(7.20169 3.48447 3.54633e-19)
(7.2542 3.47718 -1.67111e-18)
(7.30752 3.46499 4.18416e-18)