/*--------------------------------*- C++ -*----------------------------------*\
| =========                 |                                                 |
| \\      /  F ield         | OpenFOAM: The Open Source CFD Toolbox           |
|  \\    /   O peration     | Version:  2312                                  |
|   \\  /    A nd           | Website:  www.openfoam.com                      |
|    \\/     M anipulation  |                                                 |
\*---------------------------------------------------------------------------*/
FoamFile
{
    version     2.0;
    format      ascii;
    arch        "LSB;label=32;scalar=64";
    class       volScalarField;
    location    "300";
    object      div(phi);
}
// * * * * * * * * * * * * * * * * * * * * * * * * * * * * * * * * * * * * * //

dimensions      [0 0 -1 0 0 0 0];

internalField   nonuniform List<scalar> 
11040
(
0.0979503
0.00677771
0.173308
0.24342
0.402437
0.116181
-0.133646
0.0447694
-0.158947
0.252969
-0.00223596
0.397327
0.098126
0.216621
0.172109
0.0873099
0.186064
-0.0866941
0.403587
-0.364991
0.60901
0.850902
0.7881
0.256323
-0.178414
0.345385
-0.391754
0.430025
-0.324112
0.389756
-0.236176
0.175699
-0.378546
-0.0465009
-0.564657
-0.112881
-0.663635
-0.292416
-0.577928
0.888712
1.71445
0.000909044
0.0329301
0.0961962
0.225492
0.38073
0.459383
0.487665
0.599781
0.515757
0.574682
0.464374
0.594729
0.534891
0.577264
0.59852
0.56957
0.706763
0.571559
0.819354
0.463413
0.67311
0.707926
0.686456
0.690675
0.411342
0.49226
0.18821
0.247905
0.0292815
0.173832
0.100082
0.178091
0.169348
0.268495
0.229351
0.342606
0.244201
0.349357
0.337603
0.812171
0.942799
0.0457501
-0.0063455
0.0330466
0.0213582
-0.00413652
-0.0244218
0.0058067
0.0435752
-0.0418173
-0.0427718
-0.103412
-0.0127948
-0.0931668
-0.038453
-0.055367
-0.0762005
-0.0890171
-0.172629
0.00118773
-0.261964
0.0707857
0.0709439
0.0281751
-0.149173
-0.19315
-0.0761897
-0.205785
0.0281862
-0.0929127
-0.00672392
-0.102642
-0.0112259
-0.161389
-0.111175
-0.223743
-0.148446
-0.239664
-0.192948
-0.220629
0.00325017
0.0208087
-0.0119379
-0.0148339
0.00367059
-0.0193645
0.0140635
0.0271162
0.091573
0.132264
0.193833
0.238931
0.280954
0.318506
0.302518
0.296529
0.298348
0.311123
0.330754
0.339641
0.364397
0.283915
0.323968
0.323315
0.277729
0.266792
0.179744
0.189037
0.111664
0.105188
0.0409396
0.0842482
0.0688014
0.116238
0.110743
0.159059
0.135277
0.178361
0.139979
0.176037
0.150916
0.238829
0.191454
-0.0437593
0.0116967
-0.00955546
0.0266602
0.00739971
0.0230092
0.0209329
0.0197643
0.0106314
0.0299578
0.0471011
0.0542015
-0.0060588
-0.00697044
-0.0210985
-0.0159574
-0.00940977
0.00312691
0.0195837
-0.0603012
0.0379973
0.0268163
0.00632901
-0.0677542
-0.0738522
-0.0584631
-0.0711888
-0.0132145
-0.0239886
-0.0201788
-0.0331374
-0.0141265
-0.0475504
-0.0475142
-0.0627031
-0.0602604
-0.0626117
-0.0773335
-0.0511717
-0.0451694
-0.0485466
0.0719943
-0.028152
0.0375413
-0.0417135
-0.00823454
-0.00330438
-0.0120387
-0.00321084
0.00196307
0.0312683
0.0441723
0.0799574
0.105356
0.137153
0.165453
0.192229
0.216153
0.212665
0.207439
0.168964
0.191238
0.165973
0.147348
0.110225
0.0954988
0.0698367
0.0778209
0.0493325
0.0495255
0.0403062
0.0527195
0.0534519
0.067115
0.062212
0.0693775
0.0549545
0.0643035
0.0435729
0.0588463
0.0271587
0.0445204
-0.0377865
0.0210214
-0.073831
-0.0124338
0.00679047
0.00417992
0.018488
0.0100132
0.02757
0.0211548
0.0375861
0.0336552
0.0351585
0.0443829
0.0589588
0.0730356
0.0714028
0.0809197
0.0416151
0.0280095
0.0324795
0.0415322
0.0285183
0.00801274
-0.0125677
0.0023585
-0.01078
0.0162115
0.00596827
0.012655
0.00263092
0.0178221
0.00279147
0.0121715
-0.00340456
0.0105492
-0.00733777
0.00520132
-0.0168467
-0.0049228
-0.0365312
0.0224421
-0.0405909
-0.045537
0.0287449
0.000501005
0.0465069
0.00220151
0.0191776
-0.0109894
0.0133506
-0.0150446
-0.00915499
0.00992582
0.0177383
0.0302828
0.0595821
0.0794349
0.0965024
0.0905102
0.0926983
0.0980635
0.0970134
0.0714715
0.0565981
0.0455398
0.0391793
0.0338435
0.0401515
0.019656
0.0289982
0.0143432
0.0260493
0.0115928
0.0215092
0.00601244
0.0108255
-0.00397838
-0.00134629
-0.0142968
-0.0198327
-0.0196289
0.0154818
-0.0836122
0.0405888
-0.0347962
0.0701095
-0.0102176
0.0219897
-0.0346005
0.00683081
-0.0323635
-0.0156024
0.0108073
0.0142857
0.0243232
0.0364127
0.039074
0.0556775
0.0524381
0.0471203
0.0345675
0.0508309
0.0446337
0.0466932
0.0301034
0.0276517
0.0168192
0.0349729
0.0159882
0.0354158
0.0124019
0.0311544
0.0117781
0.0302568
0.00722768
0.022127
-0.000519439
0.0130204
-0.0111086
-0.00317609
-0.0229341
-0.0176127
-0.0492386
0.0213073
-0.0394755
0.0532494
-0.0060164
0.025465
-0.0257302
0.00268805
-0.0222144
-0.0156664
0.0128107
0.00726251
0.0185763
0.0198127
0.00391729
0.0112491
-0.00208911
-0.00920818
0.00593069
0.0125492
0.0270265
0.0373841
0.0324856
0.0229706
0.0213181
0.0346108
-0.0206783
0.0350698
-0.0174411
0.0306184
-0.013593
0.0272172
-0.0151352
0.0229482
-0.0189798
0.0165604
-0.0269012
0.0060634
-0.0365479
-0.00848668
-0.0410986
-0.00747242
-0.0092616
0.0101564
0.0102619
0.0151834
0.00453836
0.00247623
0.00196163
-0.00424638
0.0124477
0.00710913
0.0117961
0.0165703
-0.0111045
-0.00159396
-0.0164819
-0.0205109
0.00148073
-0.00347273
0.0142956
0.0200943
0.0295209
0.026305
0.0309317
0.039726
-0.00676132
0.0373389
-0.0376303
0.0243582
-0.0340584
0.0207059
-0.0344001
0.0205417
-0.0395322
0.0190497
-0.0462456
0.0166472
-0.0552901
0.0109717
-0.0617597
0.00907061
-0.00077794
-0.000390336
0.00796886
0.00949026
0.0129366
0.0123758
0.0115608
0.0127072
0.0100925
0.0142917
0.00822028
0.0160819
-0.00999122
-0.00451199
-0.0137001
-0.0186559
0.00048805
-0.0119782
0.00180754
-0.000916177
0.00205177
0.00219682
0.00952577
0.00971075
0.0271903
0.0153188
-0.0005162
-0.00128079
-0.0130003
-0.0055274
-0.0167653
-0.00171459
-0.0234077
0.000783163
-0.0323963
0.00615736
-0.0426059
0.00714691
-0.0538999
0.0142572
-0.0589073
0.00395954
0.000709356
0.00788787
0.00464691
0.0113719
0.00833522
0.0122712
0.0107965
0.0120701
0.0115699
0.0107762
0.00354093
-0.00118792
-0.00214857
-0.00953676
0.00108894
-0.0118135
-0.00359443
-0.00820738
-0.0111994
-0.0131617
-0.00913173
-0.0191483
0.0242036
-0.0142404
0.0507203
-0.028452
0.0419307
-0.0373681
0.0290446
-0.0341642
0.0237968
-0.0360215
0.0201805
-0.0333994
0.0127033
-0.034647
0.00246624
-0.0293734
-0.00895927
-0.0219162
0.00438665
-0.000883002
0.00743946
0.000902506
0.00969025
0.00275156
0.0104925
0.00489165
0.0103644
0.00758773
0.00922763
0.00667925
0.00543983
0.00342411
0.00259275
-0.00246124
-0.00192998
-0.00554578
-0.0104296
-0.012065
-0.00829735
-0.016046
0.00559776
-0.015979
0.0406077
-0.0173363
0.0603208
-0.033159
0.0543251
-0.0380134
0.0482247
-0.0450043
0.0504161
-0.0526893
0.0532546
-0.0628821
0.0515535
-0.0705251
0.0442739
-0.0728351
0.03368
0.00366437
-0.00152386
0.00656916
-0.000716488
0.00850394
-6.38586e-05
0.00910306
0.00119706
0.00882924
0.00270114
0.0075995
0.0037927
0.00568693
0.00401236
0.00467387
0.00391862
0.00139143
-0.00159009
-0.0036137
-0.00165285
-0.00357854
-9.36591e-06
-0.00260641
0.0112964
0.00535087
0.0217513
0.00748157
0.0244296
0.0023551
0.0201336
-0.00331291
0.0181987
-0.00967013
0.0189731
-0.016114
0.017922
-0.0271636
0.0123326
-0.0353352
0.00527847
-0.048185
0.00309034
-0.00179691
0.00569167
-0.00150014
0.00733101
-0.0016369
0.00786738
-0.00159173
0.00718976
-0.00131249
0.00552045
-0.000261177
0.00413461
0.00139827
0.0038751
0.00362978
0.00391402
0.00388581
0.00295759
0.00358161
0.00227702
0.00488494
0.0017438
0.00883738
0.0030587
0.0155681
0.00261426
0.019908
-0.000424984
0.0226715
-0.00551556
0.0221618
-0.0105663
0.0239235
-0.0157828
0.0201338
-0.0220478
0.0149659
-0.0314728
0.0108781
-0.0305005
0.00268015
-0.0018623
0.00466556
-0.00201901
0.0057635
-0.00243636
0.00611971
-0.00292479
0.00545634
-0.00320645
0.00411654
-0.00254905
0.00297077
-0.00105546
0.00249942
0.00102385
0.002582
0.00266713
0.00236299
0.00336575
0.00141336
0.00430582
-9.42455e-05
0.00675095
-0.00169941
0.0112273
-0.00360448
0.0166155
-0.00688141
0.021879
-0.0107215
0.0252236
-0.0145698
0.0273683
-0.0175553
0.0275917
-0.0194685
0.0213171
-0.014751
0.00648538
-0.0189115
0.00173554
-0.000932946
0.00331555
-0.00106329
0.00418365
-0.00144653
0.00454115
-0.00203288
0.00418438
-0.00255052
0.003275
-0.00247121
0.00223402
-0.00176235
0.00144894
-0.00052515
0.00095972
0.000773866
0.000488537
0.00166586
-0.000430332
0.00263919
-0.00187342
0.00428239
-0.00339584
0.00703091
-0.00497363
0.0106931
-0.00704266
0.0151837
-0.00972273
0.0195602
-0.0121589
0.0220768
-0.0134282
0.0192842
-0.0127805
0.0111629
-0.0159941
0.00238273
-0.00663465
0.00171159
-0.00081354
0.00227456
-0.000912457
0.00265973
-0.00131518
0.00275862
-0.00187634
0.00252296
-0.00232376
0.00196791
-0.00235434
0.00123791
-0.00197495
0.00059128
-0.00133184
-3.51802e-05
-0.000576199
-0.000618646
0.000136762
-0.00143707
0.0011012
-0.00267811
0.0026988
-0.00383486
0.00497805
-0.00467346
0.00783908
-0.00495119
0.0114017
-0.00464429
0.0156526
-0.00300574
0.0195861
0.000696126
0.0218181
0.0049354
0.0196913
0.013922
0.010985
0.0122756
-0.0010647
0.00119682
-0.00027369
0.000792628
0.000404837
0.000118561
0.000734026
-0.000454758
0.000831917
-0.000970283
0.000640218
-0.00124736
0.000223069
-0.00124341
-0.000312324
-0.00104064
-0.000852417
-0.000670708
-0.0012747
-0.000269888
-0.00163327
0.000336358
-0.00222735
0.00137118
-0.00275981
0.00262236
-0.00303261
0.00360739
-0.00287849
0.0038086
-0.00230502
0.00343595
-0.00116312
0.00251046
0.000596154
-0.000695796
0.00214831
-0.00486389
-0.00149538
-0.00372853
0.000439536
0.00275878
-0.00271406
0.00273296
-0.00277411
0.00328937
-0.00305825
0.00351976
-0.00338422
0.0034854
-0.00369607
0.00327235
-0.00373786
0.00269165
-0.00340965
0.00192491
-0.00280948
0.00107947
-0.00194986
0.000228012
-0.000989592
-0.000508189
-6.78298e-05
-0.00114887
0.000905756
-0.00142563
0.00176859
-0.000821847
0.00221529
0.000448495
0.00195251
0.00308852
0.000949846
0.00744211
-0.000591707
0.0122027
-0.00211176
0.0162255
-0.00227366
0.0191654
0.00130588
0.0165443
-0.00064819
7.31114e-05
-0.000810283
0.000775428
-0.00050118
0.00107285
-0.000477654
0.00133979
-0.000538192
0.00143632
-0.00057767
0.00152622
-0.000506487
0.00133341
-0.000303513
0.00120093
1.39166e-05
0.000950183
0.000388244
0.000805261
0.00074414
0.000753051
0.00113718
0.000731988
0.00147078
0.00110167
0.00163629
0.00152382
0.00156796
0.00267991
0.00134795
0.0053532
0.000701588
0.00768482
-0.000631139
0.0101378
-0.0011458
0.0112556
-0.000549146
0.0140947
0.00206181
0.00156859
-0.00123045
0.000366456
-0.000420559
0.000441279
2.37238e-05
0.000350751
0.000336574
0.000195086
0.000574754
0.00014396
0.000726955
0.000109389
0.000771595
0.000233415
0.000786359
0.000435659
0.000792366
0.000654188
0.000851137
0.000834771
0.00103326
0.00105159
0.00132619
0.00122839
0.00184202
0.00138095
0.00265732
0.00135095
0.00395174
0.00119293
0.00574291
0.000287908
0.00647409
-0.00121084
0.0075329
-0.00332893
0.00755975
-0.00467904
0.00877977
-0.00373021
-0.00135741
0.00076234
-0.00131294
0.00101131
-0.00112904
0.00136082
-0.00115761
0.00153942
-0.00124272
0.00159117
-0.00132366
0.00157844
-0.00129239
0.00142892
-0.00110505
0.00128101
-0.000812812
0.00111856
-0.000508587
0.00102389
-0.000310573
0.000974337
-0.000273532
0.00105195
-0.000337309
0.00132462
-0.000457751
0.00176612
-0.000723841
0.00287356
-0.00128812
0.00344436
-0.00224224
0.0042903
-0.00358011
0.0041175
-0.00477063
0.00448487
-0.00576422
0.00520898
-0.00616085
0.00102115
-0.00104863
-5.20154e-05
-0.000375463
0.000316559
-0.000154197
0.000476996
-0.000109122
0.000607878
-0.000127952
0.000666819
-0.000140987
0.000728258
-8.79526e-05
0.000747819
5.119e-05
0.000806527
0.000230531
0.000860983
0.000394
0.00094119
0.000505287
0.0011022
0.000592988
0.00133543
0.000720905
0.00148415
0.00118938
0.00259344
0.00137651
0.00326163
0.00130872
0.00368876
0.00083879
0.00422674
9.97395e-06
0.00336466
-0.000727491
0.00337006
-0.000501063
0.00244655
-0.000741378
0.000293619
-0.000600092
0.000174325
-0.000162419
0.00018958
3.36831e-05
0.000160076
0.000160647
6.28638e-05
0.000239599
1.08091e-05
0.000301149
7.95984e-06
0.000368697
9.95231e-05
0.000457637
0.000255285
0.000580416
0.000382843
0.000726252
0.000613907
0.000969832
0.000948763
0.00125754
0.00134717
0.00193953
0.00147611
0.00206013
0.00142974
0.00190553
0.000778284
0.0014193
2.35303e-05
-3.40006e-05
-0.000702323
-0.000751077
-0.00094532
-0.00127841
-0.00131146
-0.000876074
0.000626183
-0.000976749
0.000370466
-0.000517857
0.000353218
-0.000413516
0.000451835
-0.000400097
0.000464303
-0.000421036
0.000402028
-0.000443836
0.000321414
-0.00039968
0.00019561
-0.000275123
0.000127719
-8.55124e-05
-1.96025e-05
0.000149164
1.04521e-05
0.000311767
-1.18649e-05
0.000493731
-5.69791e-05
0.000551902
-0.000169654
0.000583896
-0.000359644
0.000430424
-0.000833929
0.000283153
-0.00135539
0.000252395
-0.00157955
0.00044162
-0.00166119
0.000746492
-0.00154538
0.000830076
-0.00186135
-0.000642693
0.000439916
-0.000531958
-8.8971e-06
-0.000182359
4.72453e-05
-0.000100741
0.000113903
-7.30021e-05
0.000131851
-7.34197e-05
0.000155757
-5.21695e-05
0.000146383
1.81041e-05
0.000199319
0.000165017
0.000216859
0.000466854
0.000383008
0.000636243
0.000586414
0.00107358
0.000638723
0.00165605
0.00129911
0.00208232
0.00148616
0.00248145
0.00153552
0.00259833
0.001643
0.00249802
0.00124616
0.00217328
0.000861153
0.00180834
0.000248051
0.00130927
-0.000284035
0.000972044
0.000233211
-0.000687965
0.000207904
-0.000246528
1.4098e-06
-7.57631e-05
-4.66054e-05
-1.79574e-05
-8.7124e-05
9.95617e-06
-9.93176e-05
2.10184e-05
-0.000107379
2.6101e-05
-1.51642e-05
6.03525e-05
0.000162571
0.000222186
0.000247709
0.000183027
0.000612973
0.000290251
0.00092203
0.000612088
0.00119256
0.000414228
0.00146893
0.000574306
0.00149665
0.000447301
0.00138711
-3.52241e-05
0.00117155
-0.000338971
0.00103399
-0.00058503
0.000896858
-0.000758708
0.000655411
-0.00102753
0.000437619
-0.000412742
0.000472211
-0.000449066
0.000199671
-0.000132633
2.461e-05
-0.000100991
-4.6049e-05
-6.74569e-05
-0.000127891
-2.6389e-05
-0.000280761
5.13329e-05
-0.000373189
0.00014575
-0.000464307
0.000335017
-0.000605495
0.000574161
-0.000467176
0.000709389
-0.000548526
0.000852051
-0.000760619
0.000877578
-0.000826758
0.000824367
-0.00125271
0.000755269
-0.00164621
0.000721067
-0.00174135
0.000798943
-0.00178025
0.000884058
-0.0016267
0.000966846
-0.0015485
0.000868188
-0.00141928
0.000641555
0.000163206
-0.000494663
0.000310686
-0.000189123
3.06804e-05
-2.64467e-05
-1.58353e-05
-2.64375e-05
-3.79131e-05
-2.10313e-05
-7.70092e-05
1.90696e-05
-0.000111182
2.63063e-05
-0.000118877
0.000163436
-0.000188524
0.000352581
-1.98689e-05
0.000414493
-0.000123485
0.00048706
-0.00031565
0.00046143
-0.000519797
0.000381973
-0.000921391
0.000339257
-0.00119769
0.000412953
-0.00132967
0.000480482
-0.00140338
0.000537747
-0.0014794
0.000543034
-0.00149094
0.000540077
-0.00153847
0.000340208
-0.00161261
-0.000262175
0.000313767
-0.000333061
0.000165383
1.87376e-05
1.4281e-05
6.88101e-05
-6.08379e-05
4.75195e-05
-7.591e-05
2.48359e-05
-9.50824e-05
-5.36039e-05
5.55602e-06
-8.89552e-05
7.11199e-05
-5.95229e-05
0.00013057
-0.00021114
0.000276248
-0.000271558
0.000294966
-0.000417604
0.000360462
-0.000696524
0.000478099
-0.000766499
0.00066672
-0.00070438
0.000843483
-0.00074331
0.000926888
-0.000836083
0.00091841
-0.000965764
0.000864477
-0.00109389
0.000801327
-0.00117476
0.000617768
-0.00132153
9.19365e-05
-0.000333223
0.000257569
-0.000125501
0.000125733
0.000112935
-5.32662e-05
0.000122061
-0.000180015
0.000165906
-0.000312857
0.00023844
-0.000415793
0.000297464
-0.000541186
0.000384882
-0.000669072
0.000438024
-0.000700486
0.000447687
-0.000892482
0.000435991
-0.00118465
0.000430151
-0.00124382
0.000503588
-0.00143351
0.000583597
-0.00142372
0.000716189
-0.00136285
0.000777288
-0.00135951
0.0007794
-0.00136151
0.000712022
-0.00140968
0.000650159
-0.00142023
0.000433413
-0.0014538
-0.000159909
0.000190429
-0.000261848
0.000187951
-7.13197e-06
3.85837e-05
1.65443e-05
-3.06737e-05
8.82074e-07
-8.8322e-05
6.17701e-07
-0.000148002
5.89581e-06
-0.000235655
4.62785e-05
-0.000322513
4.84977e-05
-0.000385908
2.16354e-05
-0.000601039
1.71784e-05
-0.000771729
9.5012e-06
-0.0008793
9.26198e-05
-0.00106043
0.000198057
-0.00100955
0.000380354
-0.000946114
0.000482089
-0.000952495
0.000523546
-0.000971189
0.000496096
-0.00103161
0.000432907
-0.0010976
0.000299137
-0.00116894
0.000277709
3.6518e-05
-0.000224199
0.000138885
-0.000155765
6.10871e-05
-1.04302e-05
2.3947e-05
-5.77706e-05
-3.19219e-06
-9.75479e-05
-9.10794e-06
-0.000157429
6.60493e-06
-0.000219727
-2.23201e-06
-0.000309043
8.98765e-06
-0.000440692
-2.1729e-06
-0.00053086
-4.77815e-05
-0.000737019
-8.00477e-06
-0.000841406
4.46503e-05
-0.000901778
0.000151526
-0.000909289
0.000251996
-0.000889885
0.000314525
-0.000927796
0.000326621
-0.000941451
0.000303444
-0.000999765
0.000251534
-0.00102944
0.000162544
-0.00109008
0.000189392
-0.000100494
8.79132e-05
-0.000197522
6.77655e-05
-4.6017e-05
6.2464e-05
-6.44145e-05
4.42938e-05
-0.000100782
-2.68205e-06
-9.49644e-05
-6.3714e-05
-7.93639e-05
-0.000149178
-3.95817e-05
-0.000238368
-3.22969e-05
-0.000323738
-4.49385e-05
-0.000481751
-1.1898e-05
-0.000557759
1.60893e-05
-0.000658431
0.000103733
-0.000712571
0.000159896
-0.000739067
0.000225083
-0.000794814
0.000225817
-0.00083237
0.000227289
-0.000895944
0.000185259
-0.000904112
0.000154644
-0.000950999
9.38911e-05
-0.000925413
0.000142393
1.04111e-05
-0.000141391
4.84746e-05
-0.000110006
3.92154e-05
-2.57192e-05
0.000108655
-0.000136694
0.000120106
-0.000228377
0.000154582
-0.000318853
0.000194774
-0.000404697
0.000217036
-0.000491222
0.000223558
-0.000604621
0.000226983
-0.000661238
0.000241183
-0.00075048
0.000289504
-0.000761148
0.000339634
-0.000761399
0.000387513
-0.000774158
0.000398714
-0.000799775
0.000402094
-0.000830185
0.000377416
-0.000847845
0.000340675
-0.000878944
0.000277988
-0.000908282
0.000192077
-0.00091704
0.00016964
-5.69297e-05
2.97382e-05
-0.000112564
-6.26866e-06
2.35239e-06
2.80687e-05
1.05296e-05
1.29316e-05
-4.86614e-05
3.02594e-09
-9.52787e-05
2.38477e-06
-0.00015198
8.10637e-06
-0.000225332
4.72016e-06
-0.000316605
-6.67152e-07
-0.00038674
3.28365e-05
-0.000451382
7.77312e-05
-0.000479867
0.000165097
-0.000482314
0.00021766
-0.000515906
0.000248313
-0.000553948
0.000248732
-0.000610973
0.000240134
-0.000654113
0.000214371
-0.000709795
0.000184314
-0.000748681
0.000187048
-0.000796747
0.000103209
-0.000815558
-2.41052e-06
-7.55381e-05
-5.80305e-06
-5.88424e-05
-1.44372e-05
4.70313e-05
1.92121e-06
2.86724e-05
-4.16623e-05
5.6934e-06
-7.8986e-05
1.57652e-06
-0.000128054
-2.33504e-06
-0.000194879
-1.05313e-06
-0.000276049
1.36315e-05
-0.000310488
5.19704e-05
-0.000355139
0.000116021
-0.000351914
0.000184136
-0.000354844
0.000220242
-0.000392154
0.000229865
-0.000432164
0.000223407
-0.000487802
0.000207831
-0.000528276
0.000187713
-0.000578888
0.000165966
-0.00060656
0.000184231
-0.00063839
0.000145415
-0.000637134
-2.42563e-05
-3.8917e-06
-5.91335e-05
-2.86915e-05
5.42821e-06
-3.91829e-06
7.24916e-05
-2.89437e-05
3.33692e-05
-4.70051e-05
-1.4114e-05
-4.1594e-05
-7.30369e-05
-2.70426e-05
-0.0001399
-1.72663e-05
-0.000198834
1.52849e-05
-0.000250033
5.38509e-05
-0.000261128
0.000105509
-0.000284187
0.000144538
-0.0003132
0.000160026
-0.000359342
0.000160633
-0.00040861
0.000150202
-0.000462599
0.000137906
-0.000513736
0.000121024
-0.000561024
0.000104452
-0.000613593
0.000117661
-0.000644987
8.62645e-05
-0.000684778
-5.45062e-06
-2.92153e-05
-3.22166e-05
-2.41786e-05
-2.43118e-05
6.30945e-05
-2.1301e-05
9.88908e-05
-7.68975e-05
9.25401e-05
-0.000133369
0.000100623
-0.000183385
0.000109693
-0.000246446
0.000119243
-0.00027606
0.00012608
-0.000320354
0.000133674
-0.000335063
0.000145893
-0.000353992
0.000149771
-0.000371202
0.000153771
-0.000384876
0.000153067
-0.000399454
0.000159647
-0.000406549
0.000167425
-0.000416264
0.000178446
-0.00042246
0.000187197
-0.000441327
0.000224815
-0.000435542
0.000216438
-0.000451028
2.94005e-06
-2.02204e-05
-7.48341e-06
-3.49811e-05
4.39984e-06
1.19716e-05
6.36198e-05
2.7345e-05
3.4746e-05
-1.34659e-05
1.82106e-05
-4.86304e-05
1.38754e-05
-9.10098e-05
1.82879e-05
-0.00012833
1.38863e-05
-0.000173168
1.97097e-05
-0.000210133
3.4857e-05
-0.000223482
4.61647e-05
-0.000253463
5.90815e-05
-0.000264589
6.27542e-05
-0.000287735
6.11041e-05
-0.000308809
5.74524e-05
-0.000334719
5.55581e-05
-0.000354709
4.86421e-05
-0.000383192
3.7512e-05
-0.000423666
1.29188e-05
-0.000455229
6.96389e-05
-5.69056e-06
1.62707e-05
-5.1817e-05
1.33175e-05
-8.90103e-06
3.35313e-05
3.62623e-05
4.57908e-05
4.14431e-05
9.29195e-06
2.64974e-05
-2.5681e-05
2.13145e-05
-5.69379e-05
1.54458e-05
-9.69398e-05
2.64915e-05
-0.000120799
4.44232e-05
-0.000116423
7.81039e-05
-0.000125543
0.000117767
-9.01868e-05
0.000155583
-6.96045e-05
0.000171805
-6.9826e-05
0.000176123
-8.09656e-05
0.000176801
-9.62966e-05
0.000179438
-0.000109154
0.000180901
-0.00012393
0.000181567
-0.000153417
0.000179255
-0.000173073
0.000216524
3.49498e-05
-4.46901e-05
1.09811e-05
-6.13441e-05
1.35229e-05
7.17895e-06
8.23508e-05
5.67922e-05
6.56312e-05
3.87578e-05
4.92024e-05
5.88505e-06
3.4121e-05
-3.52059e-05
2.83662e-05
-6.63668e-05
3.56691e-05
-7.86098e-05
6.18673e-05
-7.6234e-05
9.77617e-05
-3.97766e-05
0.000129591
-1.7147e-05
0.000143531
-1.43832e-05
0.000137643
-3.0852e-05
0.000126109
-5.30123e-05
0.000112634
-8.25285e-05
0.000105716
-0.000109562
0.000102023
-0.000133632
0.000110519
-0.000159648
0.000130312
-0.000163163
0.000174576
4.19001e-07
3.51953e-05
-3.09581e-05
5.95737e-05
1.57459e-05
9.45817e-05
7.57577e-05
0.000110324
0.000107476
9.07002e-05
0.00010011
6.39132e-05
8.49298e-05
3.27869e-05
7.58116e-05
8.01906e-06
7.40742e-05
-2.48231e-06
8.18342e-05
4.02225e-06
9.06496e-05
7.94948e-06
9.43923e-05
2.03663e-06
8.81174e-05
-1.39648e-05
7.96768e-05
-3.27485e-05
6.9702e-05
-5.35448e-05
6.39691e-05
-7.16871e-05
5.9271e-05
-8.90938e-05
5.63232e-05
-0.000104864
5.22224e-05
-0.00013023
5.09719e-05
-0.000147902
8.57051e-05
6.87885e-05
4.44419e-05
0.000102201
5.47748e-05
0.000124846
0.000111777
0.000167404
0.000155005
0.000147392
0.000156516
0.000140372
0.000147077
0.000140861
0.000129568
0.000138126
0.000102808
0.000128298
7.65066e-05
0.000115227
5.80894e-05
0.000100033
3.82824e-05
8.19721e-05
1.70859e-05
6.73105e-05
-1.982e-06
5.68354e-05
-2.37624e-05
5.45636e-05
-4.27609e-05
5.93809e-05
-6.40434e-05
7.04921e-05
-8.82477e-05
8.26151e-05
-0.000111252
9.59906e-05
-0.000146662
9.90423e-05
-0.000162715
0.000100128
6.61504e-05
8.00379e-05
7.362e-05
0.000109047
0.000120383
0.000150975
0.000151173
0.000135946
0.000163905
0.000123496
0.000191354
0.000124509
0.00022336
0.000129898
0.000250443
0.000136907
0.000254801
0.000140029
0.00024667
0.000141661
0.000226228
0.000135692
0.000199626
0.000131325
0.000167946
0.000124086
0.000135214
0.000124307
0.000103516
0.000127016
7.48836e-05
0.000132592
5.03655e-05
0.000148583
3.2557e-05
0.00015681
2.39029e-05
0.000178892
4.91818e-05
0.00017947
8.89795e-05
2.00718e-05
1.63972e-05
2.37018e-05
3.17732e-05
4.18489e-05
4.71714e-05
5.02484e-05
5.80169e-05
5.60913e-05
7.77181e-05
6.67631e-05
0.000108515
8.07031e-05
0.000148695
9.84232e-05
0.000188194
0.00011275
0.000220238
0.000128701
0.000250155
0.000146148
0.000277508
0.000162509
0.000302319
0.000176802
0.000325194
0.000185893
0.000346798
0.000189843
0.000368694
0.000186794
0.000391323
0.000179086
0.000415457
0.000160967
0.000440407
0.000141322
0.000475975
0.000121276
0.000469089
6.82922e-05
1.2117
1.55654
-1.68011
0.226802
-0.547983
-0.182961
-0.0469931
-0.0379836
-1.41208
0.300798
-0.995514
0.440935
0.242419
-0.495906
0.290612
-0.294601
0.297592
-0.247616
0.328755
-0.112387
0.178472
0.0150936
0.026905
0.00656776
0.0190499
0.0292176
0.0039613
0.0144457
0.0130766
0.0476039
-0.000508146
0.0284528
-0.00409438
-0.000550701
0.0132206
-0.00364078
0.0053814
0.00278274
0.00862904
0.000514043
0.00498824
0.00639095
0.00248077
0.00357583
0.00120986
0.00318462
0.0020825
0.00243792
0.0030955
0.00261363
0.00251637
0.00237019
0.0021688
0.00264321
0.00601603
-0.00118429
0.00411696
-0.000225954
0.00447697
-0.000478024
0.00664272
-0.00386762
0.00109226
0.00329173
-0.00157304
0.00487653
-0.00404458
0.00053166
0.000105896
0.00145571
-0.0016938
0.000333318
-0.000272577
-0.000226437
0.104114
0.0860389
-0.482118
-0.125793
-0.246451
-0.201634
-0.162445
-0.157661
-0.361318
-0.0900424
-0.208063
-0.0382014
0.0718914
-0.181257
0.106602
-0.110683
0.115003
-0.0587636
0.0796791
-0.0348388
0.0400846
0.00709701
0.0162194
0.0110977
0.0130727
0.0135588
0.0060861
0.0115086
0.0108881
0.0164035
0.00744716
0.0116987
0.00729213
0.00695471
0.00979383
0.00636206
0.00854338
0.00689951
0.00903828
0.00698048
0.00709241
0.00731169
0.00667906
0.00599494
0.00477702
0.00412165
0.00349004
0.00318805
0.00280668
0.00221383
0.00178731
0.00162156
0.00125748
0.00116431
0.00134291
-0.000427508
0.00108283
-0.000722843
0.000956591
-0.000922254
0.000699699
-0.0017903
-0.000351169
0.000438146
-0.00133629
0.000381767
-0.00158943
-0.00030792
-0.000246297
0.00017083
-0.000934252
5.01622e-05
-0.000256704
-6.69064e-05
0.242253
0.104221
-0.0551446
0.0614014
-0.013727
-0.0283974
0.00331654
-0.00534968
-0.0475784
0.0430575
-0.0205065
0.00176003
0.0615813
-0.158698
0.118329
-0.0936086
0.128583
-0.0397235
0.0632055
-0.00844696
0.0341193
0.0133822
0.0148177
0.00415152
0.00583716
0.000664439
-0.00339915
0.00240871
0.00167466
0.00491312
-0.00185764
0.000858596
-0.00347611
-0.00423324
-0.00254043
-0.0054338
-0.0032495
-0.00364327
-0.0017827
-0.00413417
-0.00212076
-0.000710066
-0.00175056
-0.000963287
-0.0012362
-0.00092322
-0.000485125
-0.000321898
2.77725e-05
0.000260293
0.000518905
0.00064795
0.000858895
0.00125991
0.00157525
0.000637487
0.00197751
0.000756696
0.00228683
0.000764285
0.00197972
0.000226308
0.00131223
0.00193698
0.00013703
0.00148691
-0.000212877
0.000726358
0.000717971
0.000686352
-0.000341184
0.000263649
-1.87781e-05
-0.000134063
0.0797766
-0.0127571
-0.125656
-0.104573
-0.145569
-0.158882
-0.166035
-0.153527
-0.186049
-0.118738
-0.100992
-0.0761713
-0.0169376
-0.111257
0.0305928
-0.0548063
0.060483
-0.0110161
0.0392276
-0.00252882
0.0228876
0.0120939
0.01735
0.0134685
0.0137274
0.0126524
0.00832118
0.0102852
0.0100603
0.0106494
0.0072818
0.00762258
0.00626623
0.00611084
0.00643016
0.00594023
0.00640328
0.00493252
0.00639596
0.00513332
0.00534024
0.00526188
0.00527615
0.00467889
0.00402102
0.00335003
0.00295069
0.00255142
0.00240748
0.00191346
0.00164587
0.00159099
0.0013123
0.00121779
0.000950792
0.000251169
0.000844593
-0.000258484
0.000691057
-0.000419539
0.000308797
-0.00073526
-0.000104679
0.000249801
-0.000860447
3.60331e-05
-0.000792293
-0.000192842
-2.58189e-05
-1.45656e-05
-0.000637074
8.2861e-05
-0.000225036
-6.39426e-05
0.0134629
-0.00377869
-0.020462
0.00466508
-0.018615
-0.0124062
-0.00584588
0.012897
0.0234193
0.0389689
0.0261989
-0.00885764
0.0221265
-0.0537585
0.0525643
-0.0270753
0.0705172
-0.000749576
0.0244928
0.006651
0.0148822
0.0102672
0.00936252
0.000958583
0.0017213
-0.00374613
-0.00231854
3.52929e-05
-0.000474587
-0.00111626
-0.00243736
-0.00264386
-0.00302161
-0.0040094
-0.00308909
-0.00372599
-0.00297591
-0.00450295
-0.00229923
-0.00335315
-0.00216854
-0.00222551
-0.0016412
-0.000925701
-0.00106947
-0.000763312
-0.000659791
-0.000436716
-0.000289222
5.55594e-07
7.81726e-05
0.000331424
0.000515691
0.000818138
0.00087236
0.000762508
0.00108673
0.00051917
0.00128033
0.000559479
0.00118494
0.000649013
0.00101063
0.0011631
0.000132006
0.000929989
0.000227305
0.000567956
0.000574389
0.000343654
-0.000151121
0.000187288
9.4859e-06
-0.000123602
0.005575
0.0012108
-0.0430641
-0.0475588
-0.083889
-0.0892149
-0.106235
-0.0981421
-0.0908331
-0.0764227
-0.0522424
-0.0551733
-0.0459527
-0.0684659
-0.0150644
-0.0373814
0.0116683
-0.0085643
0.0121802
0.00137363
0.0106247
0.00924022
0.0117895
0.0105867
0.0108309
0.0104664
0.00817856
0.00883028
0.00832294
0.00796502
0.00571719
0.00560506
0.00455934
0.00513545
0.00438447
0.00495176
0.00469559
0.00361101
0.00460512
0.00382724
0.00396778
0.00386731
0.00403074
0.00351051
0.00319638
0.00259796
0.00245409
0.00198377
0.00205877
0.00158085
0.00151609
0.00151296
0.00129467
0.00120636
0.000884886
0.000563008
0.000712883
7.09783e-05
0.000553746
-5.98977e-05
0.000317238
-0.000181405
7.22519e-05
0.000165311
-0.000488546
3.15509e-05
-0.000410456
-0.000110224
7.78551e-05
-0.000107752
-0.000410718
0.000102879
-0.000189001
-6.11872e-05
-0.00667117
-0.0308884
-0.0206687
-0.032746
-0.0307425
-0.0333024
-0.0260797
-0.0116614
0.00329189
0.0119427
0.00921785
0.00445817
-5.69343e-05
-0.00842363
0.0246265
0.00177017
0.0296327
0.00372797
0.0113516
0.00708101
0.00842535
0.00785577
0.00624572
0.00106337
-0.000237752
-0.0017201
-0.00182541
-0.000870317
-0.00177486
-0.00277284
-0.00371172
-0.00303264
-0.00391071
-0.00302391
-0.00364717
-0.00278552
-0.00296651
-0.00332409
-0.00214973
-0.0027712
-0.00223099
-0.00185567
-0.00133366
-0.00138929
-0.00133283
-0.00125647
-0.00101568
-0.00104735
-0.000652131
-0.000643819
-0.000306224
1.08444e-05
0.000207778
0.000393353
0.000390118
0.000489299
0.000635015
0.000393464
0.000755582
0.000456457
0.000657118
0.00049831
0.000663714
0.00075588
0.00016788
0.000576757
0.000192754
0.000362479
0.000449583
0.000181584
-2.1605e-05
0.000104598
1.65581e-05
-0.000115544
-0.0183497
-0.0173209
-0.0207851
-0.0269552
-0.0348259
-0.0421197
-0.0424026
-0.0369833
-0.0462397
-0.0362641
-0.0424662
-0.0328814
-0.0484189
-0.0318705
-0.0350623
-0.0306846
-0.0207669
-0.0182992
-0.00825321
-0.00614726
0.000121224
0.00138831
0.00464438
0.00470243
0.0073211
0.00725783
0.00683018
0.00662916
0.0066204
0.00571569
0.00449253
0.00414209
0.00377219
0.0039628
0.00326805
0.00371292
0.00359876
0.00277559
0.00331242
0.00279333
0.00304796
0.00292165
0.00292616
0.00249537
0.00234461
0.00192482
0.00192151
0.0015631
0.00169181
0.00132055
0.00136356
0.00138862
0.0011802
0.00111543
0.000861763
0.000649334
0.000689715
0.000291325
0.000563882
0.000181726
0.000403026
0.000107932
0.000203177
0.00020333
-0.000185059