/*--------------------------------*- C++ -*----------------------------------*\
| =========                 |                                                 |
| \\      /  F ield         | OpenFOAM: The Open Source CFD Toolbox           |
|  \\    /   O peration     | Version:  2312                                  |
|   \\  /    A nd           | Website:  www.openfoam.com                      |
|    \\/     M anipulation  |                                                 |
\*---------------------------------------------------------------------------*/
FoamFile
{
    version     2.0;
    format      ascii;
    arch        "LSB;label=32;scalar=64";
    class       volScalarField;
    location    "300";
    object      magR;
}
// * * * * * * * * * * * * * * * * * * * * * * * * * * * * * * * * * * * * * //

dimensions      [0 2 -2 0 0 0 0];

internalField   nonuniform List<scalar> 
11040
(
0.314567
0.53595
0.407027
0.0290438
0.0276006
0.267598
0.308104
0.32877
0.308496
0.297142
0.277006
0.253415
0.231934
0.209391
0.189269
0.175368
0.169291
0.171598
0.176273
0.170717
0.132613
0.068572
0.0372933
0.0208773
0.0560616
0.0759888
0.080797
0.046749
0.014117
0.0129128
0.162933
0.378609
0.54589
0.589338
0.517877
0.382584
0.23957
0.136505
0.0664287
0.209648
0.301529
0.0401464
0.0604378
0.17929
0.37127
0.522375
1.2233
0.638901
0.305712
0.173776
0.119568
0.0802834
0.0566624
0.0416438
0.0317191
0.0248422
0.0205412
0.0185053
0.0183406
0.0189583
0.0223161
0.0294026
0.0386491
0.0487943
0.0548554
0.0475402
0.029389
0.0177069
0.042064
0.0622932
0.0511324
0.0844469
0.0466887
0.0892337
0.14302
0.186603
0.235691
0.287034
0.354943
0.43663
0.423787
0.903777
0.0241345
0.0183005
0.00951326
0.0918235
0.255706
1.08792
1.66619
1.29885
0.677337
0.425722
0.276295
0.193704
0.141827
0.109126
0.0866274
0.0739672
0.0670405
0.0631937
0.059228
0.0555401
0.0577212
0.0728572
0.0930319
0.100886
0.0835174
0.0493218
0.0394227
0.0692129
0.119237
0.127017
0.137017
0.149855
0.182023
0.232392
0.304511
0.381646
0.463318
0.548737
0.653213
0.629698
0.983072
0.0171139
0.0133975
0.0115084
0.00695605
0.0300699
0.226552
1.00246
1.84431
1.82928
1.15035
0.675548
0.455824
0.319325
0.233322
0.176048
0.143696
0.126107
0.114508
0.0998146
0.0806074
0.077464
0.112486
0.159416
0.185891
0.168892
0.126223
0.115904
0.165522
0.252561
0.232445
0.225365
0.183382
0.196862
0.271394
0.387923
0.521106
0.664911
0.805638
0.96052
0.997444
1.18615
0.0123756
0.0111101
0.00952922
0.00918756
0.00493212
0.00864793
0.131232
0.718962
1.72168
2.11321
1.66941
1.03081
0.664257
0.464691
0.340203
0.263079
0.219483
0.194244
0.167149
0.124111
0.0930684
0.144859
0.225346
0.277887
0.26796
0.213969
0.197243
0.277627
0.413788
0.345897
0.300198
0.21295
0.194381
0.297329
0.484738
0.700756
0.93028
1.15895
1.38598
1.54402
1.64686
0.00865533
0.00792115
0.0072111
0.00664327
0.00682187
0.00324202
0.00120062
0.0505301
0.428247
1.31994
2.10243
2.06453
1.49096
0.959259
0.653497
0.477074
0.379996
0.329167
0.285595
0.216299
0.128335
0.15165
0.265626
0.347672
0.351045
0.28299
0.254831
0.382859
0.538448
0.439947
0.355828
0.252786
0.188473
0.329169
0.608953
0.926574
1.25762
1.59429
1.91302
2.22851
2.36049
0.00610211
0.00582727
0.00553792
0.00508827
0.00493684
0.00503984
0.00228557
4.40939e-05
0.00811562
0.199647
0.837442
1.74805
2.19009
1.91269
1.35377
0.916984
0.670823
0.545282
0.476523
0.393642
0.246513
0.133815
0.249217
0.363995
0.387211
0.302258
0.245288
0.450655
0.594724
0.479358
0.37762
0.289069
0.191343
0.369485
0.746392
1.1747
1.61758
2.07141
2.4978
2.98344
3.23499
0.00437642
0.00424711
0.00416882
0.0040188
0.00372799
0.00363619
0.00386803
0.00185746
1.51603e-08
1.18164e-06
0.0615759
0.42428
1.19706
1.95485
2.12579
1.75508
1.26959
0.942319
0.775768
0.664564
0.496511
0.251346
0.15804
0.294752
0.350531
0.246913
0.135596
0.480006
0.580852
0.452337
0.355143
0.308941
0.218078
0.410601
0.867206
1.40554
1.96437
2.53805
3.07911
3.7206
4.13434
0.0031713
0.00310518
0.00308436
0.00305396
0.0029565
0.00274494
0.00272122
0.00290734
0.00172838
8.52205e-05
0.000329638
0.00871508
0.16231
0.668473
1.4494
2.01336
2.0187
1.6622
1.30059
1.07143
0.875308
0.607692
0.298684
0.167116
0.253729
0.23056
0.259108
0.574038
0.614016
0.481203
0.353142
0.346482
0.293245
0.442193
0.933515
1.56531
2.23719
2.92493
3.57581
4.33079
4.89761
0.00231603
0.00227815
0.0022733
0.00227739
0.00226267
0.00219805
0.00205258
0.00202191
0.00216563
0.00166295
9.49923e-05
0.000103906
0.00055703
0.0453576
0.291962
0.88141
1.60008
2.01447
1.97587
1.70751
1.41595
1.12634
0.809899
0.505904
0.3819
0.497079
0.710203
0.932871
0.950508
0.806905
0.592135
0.518902
0.450304
0.464477
0.899342
1.58702
2.35838
3.15345
3.89611
4.70445
5.36971
0.00169866
0.00167503
0.00167263
0.00168383
0.00169416
0.00168601
0.00164139
0.00154798
0.00149202
0.00160844
0.00134604
0.000352903
5.50671e-05
0.000154658
0.0026899
0.0905635
0.424937
1.04856
1.70554
2.06277
2.04465
1.79593
1.485
1.17942
0.955555
0.972485
1.25149
1.52484
1.58894
1.41902
1.08704
0.862289
0.686791
0.488066
0.684525
1.37354
2.22653
3.11585
3.92383
4.73731
5.43021
0.00124861
0.00123413
0.00123048
0.0012393
0.00125412
0.00126261
0.00125728
0.00123014
0.00116983
0.0011132
0.00116026
0.00113552
0.000558538
8.7879e-06
2.35328e-05
0.0016391
0.0136422
0.14676
0.541154
1.18508
1.82027
2.14543
2.13303
1.94128
1.71709
1.61706
1.84607
2.20219
2.3566
2.16676
1.71216
1.31254
0.981364
0.59027
0.259597
0.852171
1.72576
2.66604
3.56314
4.37298
5.04365
0.000918803
0.00090958
0.000904817
0.000910288
0.000922869
0.000935425
0.000942223
0.000939767
0.000925134
0.000886774
0.000840785
0.000844034
0.000866199
0.00072028
0.000121218
1.13175e-05
5.22535e-05
0.00041205
0.0309035
0.198139
0.638945
1.2748
1.84221
2.17221
2.26985
2.2591
2.37667
2.76215
3.07373
2.91526
2.39417
1.83311
1.3448
0.873167
0.429823
0.550181
1.23989
2.06981
2.91325
3.65921
4.33413
0.000675721
0.000669932
0.000664635
0.000667333
0.000676772
0.000687944
0.000697795
0.000703344
0.000703101
0.000695298
0.00067315
0.000638529
0.000624585
0.000651605
0.000627186
0.000295729
2.60762e-05
6.60265e-06
8.10965e-05
0.00866888
0.0380239
0.228647
0.631918
1.17536
1.70283
2.11996
2.47765
2.88191
3.32492
3.43644
3.04984
2.43677
1.84911
1.39683
1.22197
1.38568
1.78197
2.30668
2.89125
3.39507
3.81491
0.000495936
0.00049225
0.000487072
0.000487926
0.000494696
0.000503286
0.000512067
0.000519762
0.000524519
0.000525466
0.000521628
0.000509585
0.000487782
0.000466506
0.000479131
0.000486244
0.000415455
4.97208e-05
7.77713e-06
6.61153e-08
0.000171276
0.0102924
0.0358134
0.185378
0.492515
0.921592
1.43956
2.09114
2.80279
3.34155
3.45682
3.12781
2.61073
2.19821
2.12957
2.44451
2.94654
3.47853
3.97833
4.35599
4.50418
0.00036275
0.000360328
0.00035565
0.00035552
0.000360163
0.000366547
0.000373382
0.000380394
0.000386526
0.000390347
0.000391663
0.000390028
0.000383783
0.000370949
0.000353448
0.000350295
0.000361334
0.000357847
0.000216043
8.16396e-06
2.20505e-06
0
0.000172885
0.00667645
0.0179223
0.101435
0.281438
0.605734
1.19871
2.05027
2.84892
3.31345
3.40568
3.3102
3.30617
3.58863
4.13391
4.79991
5.45552
6.00154
6.23839
0.000264973
0.000263303
0.000259301
0.00025871
0.000261791
0.000266322
0.000271309
0.000276746
0.000282117
0.00028664
0.000289757
0.000291046
0.000290332
0.00028723
0.000279903
0.000268618
0.000255779
0.000260958
0.0002683
0.000260299
9.09108e-05
9.77552e-06
4.34347e-07
0
4.40571e-05
0.00198094
0.00147584
0.0196028
0.0974345
0.354841
0.948776
1.83568
2.75867
3.5167
4.09897
4.62277
5.21321
5.91198
6.69494
7.48048
8.04754
0.000195648
0.000194542
0.00019126
0.000190606
0.000192724
0.000195948
0.000199625
0.000203672
0.000207967
0.000212016
0.000215154
0.000217352
0.000218227
0.000217684
0.000215729
0.000211498
0.000204057
0.000193378
0.000187719
0.000193597
0.000191192
0.000170251
4.0811e-05
5.38622e-06
4.01225e-07
0
2.38296e-06
7.92527e-05
0.00166026
0.0133967
0.0230799
0.186975
0.690662
1.58167
2.72303
3.9116
5.02537
6.05438
7.04427
8.01384
8.91955
0.000147454
0.000146771
0.000144136
0.000143546
0.000145071
0.00014741
0.000150153
0.000153216
0.000156584
0.000159843
0.00016272
0.000164994
0.000166457
0.000166919
0.000166308
0.000164654
0.000161852
0.000156718
0.000149205
0.000140464
0.000136283
0.000136201
0.000127107
0.000107575
3.57281e-05
4.63277e-06
6.09159e-07
8.25527e-08
0
0
0.000107813
0.00362064
0.0309592
0.0818545
0.458761
1.26621
2.47706
3.91363
5.39197
6.79472
8.11705
0.000113404
0.000112976
0.000110847
0.000110338
0.00011144
0.00011315
0.000115185
0.000117516
0.00012007
0.000122633
0.00012509
0.000127114
0.000128679
0.0001296
0.000129764
0.000129092
0.000127606
0.000125363
0.000121837
0.00011677
0.000108974
9.83252e-05
9.17499e-05
8.92572e-05
8.24091e-05
7.25028e-05
4.54262e-05
7.95759e-06
2.06763e-06
2.53039e-07
0
0
0
0.000804801
0.0109145
0.0219687
0.232788
0.797078
1.79653
3.15296
4.7433
8.85951e-05
8.8315e-05
8.6558e-05
8.61378e-05
8.69231e-05
8.81946e-05
8.97023e-05
9.14869e-05
9.34203e-05
9.54475e-05
9.73919e-05
9.91063e-05
0.000100528
0.000101552
0.00010208
0.000102043
0.000101371
0.000100074
9.81323e-05
9.58357e-05
9.16831e-05
8.52276e-05
7.79129e-05
6.94409e-05
6.15907e-05
5.66046e-05
5.39168e-05
5.14598e-05
4.61951e-05
2.05156e-05
3.36152e-06
4.25831e-07
6.09085e-08
0
0
0.000213416
0.00262845
0.00122417
0.0612208
0.297869
0.82814
7.00758e-05
6.98901e-05
6.84535e-05
6.80854e-05
6.86626e-05
6.96e-05
7.07374e-05
7.20894e-05
7.35762e-05
7.5137e-05
7.66248e-05
7.80302e-05
7.92271e-05
8.01758e-05
8.07968e-05
8.10406e-05
8.08531e-05
8.02023e-05
7.90348e-05
7.75831e-05
7.5127e-05
7.16079e-05
6.76759e-05
6.31005e-05
5.78971e-05
5.13433e-05
4.38328e-05
3.72052e-05
3.4483e-05
3.55228e-05
3.87823e-05
3.00253e-05
6.14472e-06
1.60929e-06
1.81555e-07
0
0
5.83315e-06
0.0015638
0.00481858
0.00424379
5.60056e-05
5.58588e-05
5.46897e-05
5.4369e-05
5.48067e-05
5.55029e-05
5.63747e-05
5.74004e-05
5.8552e-05
5.97396e-05
6.08915e-05
6.20157e-05
6.29887e-05
6.37954e-05
6.43833e-05
6.47023e-05
6.47266e-05
6.44282e-05
6.37647e-05
6.28409e-05
6.11146e-05
5.86143e-05
5.61407e-05
5.3643e-05
5.09526e-05
4.79985e-05
4.47817e-05
4.05998e-05
3.49137e-05
2.85631e-05
2.34558e-05
2.25441e-05
2.65001e-05
3.0136e-05
1.51441e-05
2.38648e-06
3.26953e-07
6.27141e-08
0
0
9.97399e-05
4.51209e-05
4.50263e-05
4.40748e-05
4.38022e-05
4.41273e-05
4.46561e-05
4.53232e-05
4.61134e-05
4.70013e-05
4.79121e-05
4.88088e-05
4.96698e-05
5.04306e-05
5.10861e-05
5.15933e-05
5.19118e-05
5.20155e-05
5.18796e-05
5.14827e-05
5.08806e-05
4.96769e-05
4.78504e-05
4.6005e-05
4.41676e-05
4.2333e-05
4.05643e-05
3.89391e-05
3.74128e-05
3.58676e-05
3.39062e-05
3.08544e-05
2.65394e-05
2.13766e-05
1.68114e-05
1.5989e-05
2.00216e-05
2.19692e-05
5.52503e-06
1.09337e-06
2.04215e-07
8.06287e-08
3.66093e-05
3.65459e-05
3.57657e-05
3.55424e-05
3.57866e-05
3.61958e-05
3.67108e-05
3.73267e-05
3.80116e-05
3.87178e-05
3.9405e-05
4.00287e-05
4.06144e-05
4.11241e-05
4.15313e-05
4.18038e-05
4.1912e-05
4.18328e-05
4.15534e-05
4.1094e-05
4.0192e-05
3.88378e-05
3.74418e-05
3.60241e-05
3.45654e-05
3.31023e-05
3.17366e-05
3.06124e-05
2.97855e-05
2.92375e-05
2.88723e-05
2.84722e-05
2.76269e-05
2.59525e-05
2.30731e-05
1.91414e-05
1.46909e-05
1.08079e-05
1.14152e-05
1.14385e-05
5.93848e-06
2.98638e-05
2.98396e-05
2.92037e-05
2.90214e-05
2.92084e-05
2.9536e-05
2.99417e-05
3.04314e-05
3.09666e-05
3.15206e-05
3.20512e-05
3.25187e-05
3.2969e-05
3.33598e-05
3.36733e-05
3.38842e-05
3.39669e-05
3.38979e-05
3.36716e-05
3.32737e-05
3.25484e-05
3.14999e-05
3.04172e-05
2.93324e-05
2.82234e-05
2.70916e-05
2.59927e-05
2.5006e-05
2.42151e-05
2.37035e-05
2.35387e-05
2.37476e-05
2.42621e-05
2.50048e-05
2.57864e-05
2.64041e-05
2.68489e-05
2.63764e-05
2.59649e-05
2.17837e-05
2.61248e-05
2.4492e-05
2.44757e-05
2.39667e-05
2.38268e-05
2.39791e-05
2.42442e-05
2.45745e-05
2.49673e-05
2.5396e-05
2.58326e-05
2.6249e-05
2.6609e-05
2.6962e-05
2.72647e-05
2.75109e-05
2.76778e-05
2.77494e-05
2.76933e-05
2.7514e-05
2.71758e-05
2.66032e-05
2.58108e-05
2.49958e-05
2.42093e-05
2.34416e-05
2.26834e-05
2.19841e-05
2.13918e-05
2.09566e-05
2.07127e-05
2.0715e-05
2.10209e-05
2.16533e-05
2.26211e-05
2.39532e-05
2.56043e-05
2.75558e-05
2.95065e-05
3.23773e-05
3.26445e-05
4.14215e-05
2.01585e-05
2.01634e-05
1.976e-05
1.96515e-05
1.9783e-05
2.00044e-05
2.02808e-05
2.06042e-05
2.09557e-05
2.13083e-05
2.16448e-05
2.19295e-05
2.22001e-05
2.2441e-05
2.26405e-05
2.2784e-05
2.28565e-05
2.2829e-05
2.27053e-05
2.24394e-05
2.2012e-05
2.14591e-05
2.0894e-05
2.0385e-05
1.99374e-05
1.95482e-05
1.92492e-05
1.90876e-05
1.90993e-05
1.9303e-05
1.97172e-05
2.03597e-05
2.12121e-05
2.22659e-05
2.35625e-05
2.50959e-05
2.68354e-05
2.85319e-05
3.11417e-05
3.14645e-05
3.87978e-05
1.66487e-05
1.66571e-05
1.63464e-05
1.62727e-05
1.63905e-05
1.65834e-05
1.68237e-05
1.71004e-05
1.73998e-05
1.76981e-05
1.79838e-05
1.82261e-05
1.84392e-05
1.86466e-05
1.88227e-05
1.89657e-05
1.90592e-05
1.90804e-05
1.90237e-05
1.88542e-05
1.85872e-05
1.82698e-05
1.79601e-05
1.77392e-05
1.75935e-05
1.75297e-05
1.75737e-05
1.77618e-05
1.81051e-05
1.86188e-05
1.92923e-05
2.01323e-05
2.11104e-05
2.22149e-05
2.34579e-05
2.48267e-05
2.63003e-05
2.76414e-05
2.9694e-05
2.9544e-05
3.52231e-05
1.37783e-05
1.38033e-05
1.35617e-05
1.35179e-05
1.36311e-05
1.38066e-05
1.40196e-05
1.42655e-05
1.45274e-05
1.47917e-05
1.50431e-05
1.52654e-05
1.54513e-05
1.56447e-05
1.58187e-05
1.59778e-05
1.61022e-05
1.61794e-05
1.62077e-05
1.61523e-05
1.60476e-05
1.59474e-05
1.58664e-05
1.58809e-05
1.5984e-05
1.61771e-05
1.64608e-05
1.68616e-05
1.73821e-05
1.80281e-05
1.87883e-05
1.96659e-05
2.06312e-05
2.16712e-05
2.27941e-05
2.39819e-05
2.52257e-05
2.63052e-05
2.79703e-05
2.75814e-05
3.21094e-05
1.14288e-05
1.1455e-05
1.12796e-05
1.12638e-05
1.13723e-05
1.1536e-05
1.17303e-05
1.19526e-05
1.21887e-05
1.2428e-05
1.26579e-05
1.2867e-05
1.30454e-05
1.32335e-05
1.34176e-05
1.35934e-05
1.37529e-05
1.38867e-05
1.39946e-05
1.40359e-05
1.4069e-05
1.41316e-05
1.42224e-05
1.44028e-05
1.46692e-05
1.50085e-05
1.54245e-05
1.59272e-05
1.65208e-05
1.72011e-05
1.79576e-05
1.87835e-05
1.96601e-05
2.05713e-05
2.15268e-05
2.25058e-05
2.35208e-05
2.43673e-05
2.57204e-05
2.51806e-05
2.88169e-05
9.49106e-06
9.52583e-06
9.3977e-06
9.40383e-06
9.51416e-06
9.66818e-06
9.85057e-06
1.00557e-05
1.02755e-05
1.0498e-05
1.07164e-05
1.09182e-05
1.10997e-05
1.12896e-05
1.14877e-05
1.1681e-05
1.18764e-05
1.20544e-05
1.22251e-05
1.23461e-05
1.24842e-05
1.26595e-05
1.28659e-05
1.31445e-05
1.34985e-05
1.39085e-05
1.43804e-05
1.49121e-05
1.55089e-05
1.61557e-05
1.68485e-05
1.75757e-05
1.83283e-05
1.90912e-05
1.98769e-05
2.06628e-05
2.14727e-05
2.21194e-05
2.32163e-05
2.25792e-05
2.55104e-05
7.88867e-06
7.92336e-06
7.84146e-06
7.86548e-06
7.9766e-06
8.12558e-06
8.30016e-06
8.49207e-06
8.70047e-06
8.91025e-06
9.12127e-06
9.32146e-06
9.50855e-06
9.70162e-06
9.91276e-06
1.01218e-05
1.03413e-05
1.05562e-05
1.07759e-05
1.09582e-05
1.11685e-05
1.14168e-05
1.16894e-05
1.20221e-05
1.24172e-05
1.28517e-05
1.33265e-05
1.38392e-05
1.43913e-05
1.49724e-05
1.55776e-05
1.61991e-05
1.68295e-05
1.74589e-05
1.80955e-05
1.87205e-05
1.93618e-05
1.98506e-05
2.0739e-05
2.00485e-05
2.24314e-05
6.55692e-06
6.59705e-06
6.54652e-06
6.58768e-06
6.70028e-06
6.84538e-06
7.0118e-06
7.19506e-06
7.39105e-06
7.59283e-06
7.79531e-06
7.99571e-06
8.18363e-06
8.37907e-06
8.59493e-06
8.81563e-06
9.04956e-06
9.28951e-06
9.53467e-06
9.75726e-06
1.00062e-05
1.02934e-05
1.05957e-05
1.09468e-05
1.13386e-05
1.17588e-05
1.2203e-05
1.26724e-05
1.31625e-05
1.36688e-05
1.41822e-05
1.47014e-05
1.52178e-05
1.57273e-05
1.62334e-05
1.67236e-05
1.72249e-05
1.75861e-05
1.83054e-05
1.75976e-05
1.95654e-05
5.44756e-06
5.48799e-06
5.46779e-06
5.52064e-06
5.63284e-06
5.77536e-06
5.93462e-06
6.10935e-06
6.29491e-06
6.48851e-06
6.68333e-06
6.881e-06
7.07015e-06
7.26471e-06
7.47852e-06
7.70271e-06
7.93983e-06
8.18765e-06
8.44346e-06
8.68579e-06
8.95193e-06
9.25098e-06
9.55759e-06
9.90005e-06
1.02707e-05
1.06623e-05
1.10669e-05
1.14849e-05
1.19104e-05
1.23419e-05
1.27725e-05
1.32021e-05
1.36241e-05
1.40363e-05
1.44415e-05
1.48291e-05
1.5227e-05
1.54991e-05
1.60942e-05
1.53986e-05
1.70592e-05
4.51958e-06
4.56252e-06
4.56264e-06
4.62522e-06
4.73737e-06
4.87485e-06
5.0288e-06
5.19457e-06
5.37155e-06
5.55556e-06
5.74368e-06
5.93485e-06
6.12316e-06
6.31472e-06
6.5235e-06
6.74373e-06
6.97709e-06
7.22197e-06
7.47643e-06
7.72134e-06
7.98859e-06
8.27992e-06
8.57293e-06
8.89044e-06
9.22842e-06
9.57799e-06
9.93209e-06
1.02904e-05
1.06502e-05
1.10095e-05
1.13648e-05
1.17158e-05
1.20575e-05
1.23872e-05
1.27099e-05
1.30158e-05
1.33316e-05
1.35342e-05
1.40305e-05
1.33623e-05
1.47996e-05
3.74165e-06
3.78459e-06
3.80332e-06
3.87233e-06
3.98198e-06
4.11683e-06
4.26326e-06
4.42215e-06
4.5883e-06
4.76429e-06
4.94235e-06
5.12666e-06
5.30846e-06
5.49544e-06
5.69432e-06
5.90708e-06
6.12867e-06
6.36307e-06
6.60673e-06
6.84558e-06
7.10059e-06
7.37371e-06
7.64507e-06
7.9336e-06
8.23404e-06
8.54136e-06
8.84883e-06
9.15672e-06
9.4622e-06
9.76531e-06
1.00624e-05
1.03533e-05
1.06347e-05
1.09057e-05
1.11698e-05
1.14184e-05
1.16775e-05
1.18378e-05
1.22616e-05
1.16447e-05
1.29265e-05
3.08838e-06
3.13281e-06
3.16455e-06
3.23832e-06
3.3464e-06
3.47533e-06
3.61597e-06
3.76562e-06
3.92318e-06
4.08803e-06
4.25743e-06
4.43098e-06
4.60623e-06
4.78401e-06
4.97306e-06
5.17243e-06
5.38064e-06
5.59873e-06
5.82728e-06
6.05024e-06
6.28759e-06
6.53446e-06
6.77819e-06
7.03108e-06
7.29231e-06
7.55456e-06
7.81516e-06
8.07229e-06
8.32611e-06
8.57445e-06
8.81682e-06
9.05217e-06
9.27961e-06
9.49723e-06
9.70987e-06
9.90927e-06
1.01211e-05
1.0247e-05
1.06099e-05
1.0039e-05
1.12101e-05
2.53894e-06
2.58437e-06
2.62803e-06
2.70471e-06
2.81031e-06
2.93362e-06
3.06755e-06
3.20791e-06
3.35594e-06
3.50925e-06
3.66827e-06
3.83002e-06
3.99529e-06
4.16062e-06
4.33561e-06
4.51894e-06
4.70999e-06
4.90882e-06
5.11796e-06
5.3216e-06
5.53712e-06
5.75894e-06
5.97773e-06
6.20054e-06
6.42832e-06
6.65523e-06
6.88009e-06
7.10083e-06
7.31843e-06
7.53094e-06
7.73855e-06
7.9402e-06
8.13582e-06
8.32375e-06
8.50836e-06
8.68254e-06
8.86949e-06
8.98324e-06
9.30809e-06
8.80684e-06
9.9094e-06
2.07456e-06
2.12189e-06
2.17392e-06
2.25383e-06
2.35698e-06
2.47571e-06
2.60269e-06
2.73513e-06
2.87224e-06
3.01473e-06
3.16146e-06
3.31185e-06
3.46574e-06
3.62099e-06
3.78288e-06
3.95201e-06
4.12591e-06
4.30619e-06
4.4939e-06
4.67871e-06
4.87251e-06
5.06877e-06
5.25914e-06
5.45055e-06
5.64369e-06
5.83513e-06
6.02314e-06
6.20678e-06
6.3864e-06
6.5615e-06
6.73207e-06
6.89803e-06
7.05897e-06
7.21438e-06
7.36778e-06
7.51348e-06
7.67098e-06
7.76719e-06
8.05081e-06
7.60944e-06
8.65952e-06
1.68054e-06
1.72875e-06
1.78722e-06
1.86862e-06
1.97024e-06
2.08418e-06
2.20622e-06
2.33106e-06
2.46006e-06
2.59121e-06
2.72659e-06
2.86308e-06
3.00306e-06
3.14129e-06
3.2851e-06
3.43569e-06
3.59089e-06
3.75046e-06
3.91634e-06
4.07889e-06
4.24803e-06
4.4186e-06
4.58501e-06
4.75128e-06
4.91871e-06
5.08494e-06
5.24899e-06
5.40983e-06
5.56822e-06
5.724e-06
5.87742e-06
6.02822e-06
6.17639e-06
6.3215e-06
6.46643e-06
6.60612e-06
6.7576e-06
6.85787e-06
7.12214e-06
6.75251e-06
7.76667e-06
1.35162e-06
1.40223e-06
1.46534e-06
1.54684e-06
1.64346e-06
1.75155e-06
1.86621e-06
1.98365e-06
2.10359e-06
2.22607e-06
2.35154e-06
2.47952e-06
2.61058e-06
2.74298e-06
2.87825e-06
3.01725e-06
3.15676e-06
3.30003e-06
3.44814e-06
3.59562e-06
3.74793e-06
3.90035e-06
4.04685e-06
4.19169e-06
4.33589e-06
4.47853e-06
4.6177e-06
4.75351e-06
4.88634e-06
5.01721e-06
5.14611e-06
5.27397e-06
5.40061e-06
5.52655e-06
5.65386e-06
5.77948e-06
5.91562e-06
6.0113e-06
6.24823e-06
5.95075e-06
6.94976e-06
1.08677e-06
1.14557e-06
1.21611e-06
1.29866e-06
1.39073e-06
1.48982e-06
1.59206e-06
1.69713e-06
1.80367e-06
1.9133e-06
2.0243e-06
2.13679e-06
2.24901e-06
2.36035e-06
2.47283e-06
2.59115e-06
2.71063e-06
2.83184e-06
2.95443e-06
3.07535e-06
3.1987e-06
3.32346e-06
3.44626e-06
3.5697e-06
3.69343e-06
3.81755e-06
3.94087e-06
4.06384e-06
4.18629e-06
4.3091e-06
4.43228e-06
4.55651e-06
4.68156e-06
4.80764e-06
4.93638e-06
5.06471e-06
5.20344e-06
5.30778e-06
5.53439e-06
5.29177e-06
6.25075e-06
8.60041e-07
9.29818e-07
1.01206e-06
1.10268e-06
1.19763e-06
1.29399e-06
1.38939e-06
1.48336e-06
1.57678e-06
1.67225e-06
1.77104e-06
1.87419e-06
1.98167e-06
2.0928e-06
2.20634e-06
2.32123e-06
2.4374e-06
2.55724e-06
2.68125e-06
2.80526e-06
2.93147e-06
3.05565e-06
3.17526e-06
3.29186e-06
3.40656e-06
3.5196e-06
3.63076e-06
3.74056e-06
3.84989e-06
3.95976e-06
4.07083e-06
4.18426e-06
4.30065e-06
4.42079e-06
4.54652e-06
4.6766e-06
4.81826e-06
4.93878e-06
5.16239e-06
5.00863e-06
6.00231e-06
6.26049e-07
6.92477e-07
7.76835e-07
8.70871e-07
9.70875e-07
1.07346e-06
1.17636e-06
1.27661e-06
1.37364e-06
1.46667e-06
1.55609e-06
1.64122e-06
1.72246e-06
1.79845e-06
1.87042e-06
1.94141e-06
2.01159e-06
2.08147e-06
2.15493e-06
2.23146e-06
2.31434e-06
2.40197e-06
2.49227e-06
2.58495e-06
2.68025e-06
2.77822e-06
2.87852e-06
2.98097e-06
3.08554e-06
3.19258e-06
3.30231e-06
3.41497e-06
3.53062e-06
3.64937e-06
3.77244e-06
3.89766e-06
4.03256e-06
4.14657e-06
4.34918e-06
4.21442e-06
5.1098e-06
4.25277e-07
4.97993e-07
5.90152e-07
6.84516e-07
7.75448e-07
8.62155e-07
9.45566e-07
1.02739e-06
1.11038e-06
1.19761e-06
1.29097e-06
1.39195e-06
1.50136e-06
1.61939e-06
1.74829e-06
1.88416e-06
2.01862e-06
2.14865e-06
2.27366e-06
2.39283e-06
2.50858e-06
2.62072e-06
2.72874e-06
2.83365e-06
2.93698e-06
3.0397e-06
3.14241e-06
3.24609e-06
3.35203e-06
3.46156e-06
3.5759e-06
3.69653e-06
3.82442e-06
3.96079e-06
4.10752e-06
4.26495e-06
4.43682e-06
4.60421e-06
4.85009e-06
4.83275e-06
5.86825e-06
3.98143e-07
4.93325e-07
5.82282e-07
6.63906e-07
7.43606e-07
8.28512e-07
9.19426e-07
1.0143e-06
1.10738e-06
1.19306e-06
1.26545e-06
1.31956e-06
1.35308e-06
1.36701e-06
1.35919e-06
1.3304e-06
1.29866e-06
1.28153e-06
1.28498e-06
1.30686e-06
1.34416e-06
1.3922e-06
1.44942e-06
1.51342e-06
1.58291e-06
1.65704e-06
1.7353e-06
1.81708e-06
1.9022e-06
1.99057e-06
2.0824e-06
2.17773e-06
2.27712e-06
2.38064e-06
2.48898e-06
2.60101e-06
2.72231e-06
2.83455e-06
3.00705e-06
2.95829e-06
3.71276e-06
8.06689e-07
1.17168e-06
1.5072e-06
1.78872e-06
2.00843e-06
2.16525e-06
2.26522e-06
2.31744e-06
2.33435e-06
2.32906e-06
2.31464e-06
2.30215e-06
2.29997e-06
2.31146e-06
2.33784e-06
2.38707e-06
2.45933e-06
2.54209e-06
2.62829e-06
2.71435e-06
2.79823e-06
2.88261e-06
2.96323e-06
3.04084e-06
3.1165e-06
3.19105e-06
3.26569e-06
3.34202e-06
3.42179e-06
3.50668e-06
3.59852e-06
3.69926e-06
3.81078e-06
3.9349e-06
4.07413e-06
4.22992e-06
4.40687e-06
4.59076e-06
4.85525e-06
4.88171e-06
6.03379e-06
4.53424
6.06741
6.79165
7.30915
7.25136
5.74068
2.85129
1.03262
0.682706
0.178087
0.0259993
0.00394488
0.00163417
0.00146235
0.00149888
0.00147621
0.00145391
0.00137014
0.00128961
0.00117871
0.00107466
0.000966107
0.00086454
0.000770072
0.000684146
0.000607028
0.000538187
0.000477118
0.000423279
0.000376169
0.000334104
0.000296631
0.000263028
0.000232553
0.000204921
0.000179807
0.000156948
0.00013625
0.000117447
0.000100497
8.53822e-05
7.18085e-05
5.98446e-05
4.93629e-05
4.03118e-05
3.26597e-05
2.64397e-05
2.15169e-05
1.80511e-05
1.58788e-05
1.48898e-05
1.46434e-05
1.48685e-05
1.52169e-05
1.54235e-05
1.57502e-05
1.55669e-05
1.54993e-05
1.49635e-05
1.4569e-05
1.3704e-05
1.31224e-05
1.21813e-05
1.12371e-05
1.04099e-05
9.33096e-06
8.59498e-06
7.65226e-06
6.89713e-06
6.11098e-06
5.58159e-06
4.90587e-06
4.61219e-06
4.01802e-06
2.68231
5.79325
7.72254
8.87553
9.35736
8.47712
5.4356
1.72816
0.796541
0.356062
0.0567871
0.00681682
0.0018189
0.00147585
0.00144182
0.00137831
0.00134159
0.0012551
0.00117952
0.00107991
0.000985972
0.000889615
0.000798084
0.000712856
0.000634927
0.000564929
0.000501969
0.000445749
0.000396042
0.00035246
0.000313283
0.000278152
0.000246734
0.000218038
0.000192174
0.000168644
0.000147221
0.00012788
0.000110325
9.45249e-05
8.0424e-05
6.78062e-05
5.66833e-05
4.69452e-05
3.85836e-05
3.14983e-05
2.57588e-05
2.12465e-05
1.79878e-05
1.58933e-05
1.48332e-05
1.44225e-05
1.44526e-05
1.46266e-05
1.46617e-05
1.49009e-05
1.46265e-05
1.45149e-05
1.39426e-05
1.35678e-05
1.27112e-05
1.21708e-05
1.13057e-05
1.03861e-05
9.65417e-06
8.63783e-06
7.97635e-06
7.12553e-06
6.4405e-06
5.71514e-06
5.28034e-06
4.64196e-06
4.43685e-06
3.86142e-06
2.2569
5.28246
8.11101
9.91708
10.9146
10.8693
8.62727
4.16095
0.719846
0.628193
0.157896
0.0182269
0.00233946
0.00157924
0.00145918
0.0013399
0.00125885
0.00116226
0.00107664
0.000985552
0.000896978
0.000811484
0.000729156
0.000652883
0.000582889
0.000519893
0.00046315
0.000411991
0.000366626
0.000326659
0.000290729
0.000258266
0.000229302
0.000202725
0.000178854
0.000157144
0.000137408
0.000119626
0.000103524
8.90294e-05
7.61148e-05
6.46028e-05
5.44092e-05
4.55706e-05
3.78997e-05
3.14978e-05
2.62978e-05
2.20783e-05
1.89935e-05
1.69307e-05
1.55935e-05
1.4895e-05
1.45694e-05
1.44553e-05
1.43281e-05
1.41759e-05
1.3879e-05
1.35976e-05
1.30437e-05
1.25756e-05
1.18268e-05
1.11629e-05
1.04197e-05
9.56961e-06
8.86044e-06
7.98266e-06
7.30204e-06
6.58155e-06
5.96982e-06
5.32087e-06
4.94754e-06
4.36383e-06
4.24152e-06
3.68793e-06
2.62052
5.31224
8.29406
10.3134
11.5326
12.1041
11.2208
7.35744
2.20616
0.690397
0.399319
0.0626583
0.0054817
0.00164881
0.00150603
0.00134308
0.00121295
0.00109873
0.000999268
0.000909889
0.00082386
0.000745444
0.00067025
0.000601105
0.000537665
0.000480474
0.000428877
0.000382154
0.000340489
0.000303585
0.000270397
0.000240377
0.000213589
0.000189028
0.000166998
0.000146978
0.000128822
0.000112483
9.77089e-05
8.44351e-05
7.26029e-05
6.20847e-05
5.27625e-05
4.46838e-05
3.76525e-05
3.1793e-05
2.69839e-05
2.30182e-05
2.00296e-05
1.78983e-05
1.63369e-05
1.53527e-05
1.47061e-05
1.43063e-05
1.39856e-05
1.35454e-05
1.31839e-05
1.27614e-05
1.2208e-05
1.16631e-05
1.09889e-05
1.02551e-05
9.5958e-06
8.82336e-06
8.13844e-06
7.37782e-06
6.70393e-06
6.08384e-06
5.54415e-06
4.9654e-06
4.64776e-06
4.1085e-06
4.06029e-06
3.52167e-06
3.1628
5.65476
8.54655
10.5095
11.7236
12.5754
12.8513
10.5625
5.22652
0.636655
0.718929
0.204996
0.0231258
0.00216184
0.00152183
0.00136748
0.0011946
0.0010585
0.000944611
0.000852069
0.000766445
0.000692058
0.000622056
0.00055828
0.00049992
0.000447345
0.000399806
0.000356781
0.000318202
0.000283865
0.000252927
0.000224956
0.000199996
0.000177175
0.000156771
0.000138288
0.000121552
0.000106491
9.28797e-05
8.06967e-05
6.979e-05
6.01212e-05
5.1564e-05
4.40839e-05
3.76273e-05
3.21483e-05
2.76021e-05
2.38588e-05
2.09028e-05
1.86377e-05
1.69262e-05
1.56806e-05
1.4769e-05
1.41082e-05
1.35568e-05
1.2983e-05
1.25031e-05
1.19929e-05
1.14048e-05
1.0829e-05
1.01718e-05
9.45231e-06
8.84285e-06
8.13529e-06
7.49637e-06
6.81684e-06
6.18867e-06
5.64231e-06
5.16967e-06
4.6518e-06
4.39081e-06
3.88575e-06
3.90232e-06
3.37321e-06
3.86513
6.20086
8.86638
10.6482
11.7224
12.5485
13.3753
12.9165
8.83938
2.77289
0.694502
0.515091
0.0926851
0.00828163
0.00155812
0.00139588
0.00120156
0.0010382
0.000908899
0.000809706
0.000722565
0.000649813
0.000583252
0.000523355
0.000468815
0.000419803
0.000375371
0.000335271
0.000299254
0.000267134
0.000238185
0.000212027
0.000188656
0.000167302
0.000148282
0.000131122
0.000115632
0.000101695
8.91362e-05
7.79054e-05
6.78068e-05
5.88715e-05
5.09512e-05
4.39946e-05
3.79836e-05
3.28016e-05
2.84602e-05
2.48388e-05
2.18607e-05
1.94676e-05
1.75968e-05
1.61104e-05
1.49521e-05
1.4043e-05
1.32698e-05
1.25624e-05
1.19425e-05
1.13443e-05
1.07039e-05
1.00996e-05
9.44099e-06
8.75073e-06
8.17323e-06
7.51326e-06
6.92318e-06
6.30705e-06
5.73801e-06
5.25198e-06
4.83899e-06
4.37324e-06
4.16904e-06
3.69329e-06
3.76612e-06
3.24656e-06
4.63997
6.76239
9.15238
10.7434
11.6797
12.3517
13.1954
13.9454
12.0307
6.30097
0.751999
0.859948
0.298087
0.0397213
0.00319695
0.00140375
0.00123239
0.00103991
0.000890849
0.00078195
0.000691159
0.00061778
0.000552912
0.000495576
0.000443798
0.000397411
0.000355346
0.000317429
0.000283366
0.000252966
0.000225662
0.000201134
0.000179269
0.000159325
0.000141577
0.000125552
0.000111108
9.81138e-05
8.64636e-05
7.6039e-05
6.66501e-05
5.83429e-05
5.0955e-05
4.44589e-05
3.87728e-05
3.38313e-05
2.96429e-05
2.60621e-05
2.30313e-05
2.05278e-05
1.84778e-05
1.67722e-05
1.53772e-05
1.42305e-05
1.32559e-05
1.23653e-05
1.15977e-05
1.08848e-05
1.01793e-05
9.52108e-06
8.85654e-06
8.16834e-06
7.60557e-06
6.97913e-06
6.42215e-06
5.86077e-06
5.34295e-06
4.90757e-06
4.54606e-06
4.12435e-06
3.972e-06
3.52363e-06
3.64429e-06
3.13653e-06
5.3727
7.20602
9.28279
10.72
11.6027
12.1723
12.8003
13.8256
13.9574
10.1804
3.48379
0.664203
0.682567
0.154701
0.0171558
0.00186012
0.001263
0.00106779
0.000892008
0.000768732
0.000671894
0.000595661
0.000530728
0.000474595
0.000424555
0.000380035
0.000339793
0.000303492
0.000270848
0.000241669
0.000215477
0.000192064
0.000171349
0.00015269
0.000136194
0.000121312
0.000107869
9.57265e-05
8.48283e-05
7.50506e-05
6.62302e-05
5.84246e-05
5.14735e-05
4.53439e-05
3.99061e-05
3.51496e-05
3.10543e-05
2.74835e-05
2.43935e-05
2.17803e-05
1.95552e-05
1.7658e-05
1.60458e-05
1.46776e-05
1.3508e-05
1.24226e-05
1.15006e-05
1.06512e-05
9.86498e-06
9.1266e-06
8.43891e-06
7.72471e-06
7.15523e-06
6.55121e-06
6.00704e-06
5.48794e-06
5.00566e-06
4.60935e-06
4.29056e-06
3.90566e-06
3.79607e-06
3.3725e-06
3.53247e-06
3.03694e-06
5.92862
7.42029
9.16229
10.4939
11.4156
12.0148
12.4692
13.2143
14.3675
13.2134
7.49979
1.16134
0.96668
0.444636
0.0769269
0.00798246
0.00144385
0.00111404
0.00091718
0.00077123
0.000664499
0.000583266
0.000516563
0.00046017
0.000410818
0.000367491
0.000328542
0.000293421
0.000261871
0.0002337
0.000208405
0.000185755
0.00016566
0.000147673
0.000131918
0.000117905
0.000105396
9.41432e-05
8.4005e-05
7.48396e-05
6.65096e-05
5.90911e-05
5.24619e-05
4.65773e-05
4.13153e-05
3.668e-05
3.26261e-05
2.90512e-05
2.59066e-05
2.31808e-05
2.07952e-05
1.87273e-05
1.69215e-05
1.53498e-05
1.39883e-05
1.27218e-05
1.16425e-05
1.06474e-05
9.76257e-06
8.92738e-06
8.19166e-06
7.43245e-06
6.83443e-06
6.2372e-06
5.68809e-06
5.19476e-06
4.73211e-06
4.36203e-06
4.07612e-06
3.72097e-06
3.6433e-06
3.24153e-06
3.4318e-06
2.94635e-06
6.16809
7.3084
8.70916
9.979
11.0046
11.7564
12.2244
12.6545
13.7509
14.6219
11.4934
4.53716
0.387909
0.862587
0.263111
0.0393286
0.00425241