/*--------------------------------*- C++ -*----------------------------------*\
| =========                 |                                                 |
| \\      /  F ield         | OpenFOAM: The Open Source CFD Toolbox           |
|  \\    /   O peration     | Version:  2312                                  |
|   \\  /    A nd           | Website:  www.openfoam.com                      |
|    \\/     M anipulation  |                                                 |
\*---------------------------------------------------------------------------*/
FoamFile
{
    version     2.0;
    format      ascii;
    arch        "LSB;label=32;scalar=64";
    class       volVectorField;
    location    "300";
    object      momentError;
}
// * * * * * * * * * * * * * * * * * * * * * * * * * * * * * * * * * * * * * //

dimensions      [0 1 -2 0 0 0 0];

internalField   nonuniform List<vector> 
11040
(
(28.0498 -71.0061 6.27979e-16)
(-3.08071 -35.677 -1.21036e-15)
(-4.26799 44.2031 4.33898e-15)
(10.4806 16.4069 1.91505e-15)
(3.2992 -0.610814 3.55346e-15)
(4.43926 1.38812 -2.40001e-15)
(4.3719 1.39306 -5.42445e-15)
(4.67036 1.31814 -8.3463e-16)
(4.47465 1.06041 -3.2922e-16)
(4.29471 0.784703 1.948e-15)
(4.15555 0.545183 8.32917e-16)
(4.03269 0.359389 -4.14362e-16)
(3.97673 0.237933 -8.25936e-16)
(3.8399 0.178107 6.83499e-16)
(3.57702 0.212856 -3.9512e-16)
(3.14645 0.295733 -7.94469e-16)
(2.56172 0.340398 6.56476e-16)
(1.96643 0.254314 5.63259e-16)
(1.70316 0.037041 -2.01253e-16)
(2.03301 -0.278188 -4.8611e-17)
(2.83971 -0.471692 4.08034e-16)
(3.51812 -0.370307 -2.10338e-16)
(2.88529 -0.220603 8.94614e-17)
(2.62169 -0.208434 2.63706e-16)
(3.39056 -0.0978271 -1.10795e-16)
(3.91498 -0.070955 -8.01164e-16)
(3.38203 -0.206642 -6.15169e-16)
(3.67372 -0.479284 -1.46709e-16)
(2.96341 -0.43456 -3.22136e-16)
(2.24204 -0.271806 -2.51796e-17)
(2.61126 -0.116862 5.51971e-16)
(4.06573 -0.314039 1.3436e-15)
(5.22198 -0.790644 1.76097e-15)
(7.52303 -1.62935 -2.17647e-16)
(9.12576 -2.30625 9.86772e-16)
(10.2427 -2.71883 3.55888e-16)
(11.2791 -2.73996 5.83096e-16)
(10.563 -2.15992 -1.57966e-16)
(9.17972 -2.13156 -5.2503e-16)
(11.9776 -2.15392 -4.27371e-16)
(31.44 -1.25598 -2.03283e-16)
(21.4623 -53.4658 5.64913e-16)
(-23.1027 -86.2661 2.12394e-15)
(-38.1842 2.5821 2.99615e-15)
(5.14936 23.9537 -1.52238e-15)
(17.7269 17.4778 8.7031e-16)
(8.56808 3.25053 3.23297e-16)
(5.12637 1.79862 1.00314e-15)
(5.20125 1.82346 7.46657e-16)
(4.95195 1.35945 -3.27183e-16)
(5.13709 1.19485 -6.29895e-16)
(5.16563 1.00077 1.40129e-15)
(5.052 0.741277 8.52627e-16)
(5.08693 0.484384 1.10674e-15)
(5.01709 0.187138 -1.45669e-16)
(4.7836 0.0132859 -9.29328e-17)
(4.30674 0.0554825 3.05834e-16)
(3.60396 0.28159 2.42244e-16)
(2.9188 0.466348 2.95711e-16)
(2.63275 0.398173 -6.94635e-18)
(3.31116 -0.0277081 -6.23611e-17)
(4.66809 -0.577974 -3.30796e-17)
(6.32656 -0.931635 2.15721e-16)
(7.40699 -0.922147 1.86306e-17)
(8.48772 -0.799275 2.52571e-16)
(8.52048 -0.577277 -1.94946e-16)
(7.04796 -0.404928 -1.17192e-16)
(5.77877 -0.578039 -2.07045e-16)
(6.01984 -1.01818 4.79643e-17)
(7.23574 -0.965776 -1.90926e-16)
(8.77953 -1.04144 -1.00117e-15)
(6.36707 -0.603137 2.16618e-16)
(8.16361 -1.07863 -8.24868e-16)
(9.96485 -1.72897 4.40758e-16)
(11.7252 -2.45775 8.23867e-16)
(15.3212 -3.4937 -3.62316e-16)
(18.3727 -4.43572 7.03925e-17)
(20.7731 -5.30902 -6.5176e-17)
(24.1 -6.09617 4.37157e-16)
(29.723 -7.46116 -2.79709e-16)
(33.9054 -8.83105 -8.29398e-17)
(49.1294 -5.74251 1.99797e-18)
(9.72348 -45.3785 1.73187e-16)
(-23.5583 -52.7189 -1.04618e-15)
(-43.4294 -44.359 -4.30615e-15)
(-35.9357 -37.2711 2.99539e-15)
(-13.7413 -6.53957 1.12116e-15)
(11.385 9.53236 -1.62123e-15)
(11.8804 7.52663 1.355e-15)
(4.86263 2.27631 1.08612e-15)
(4.43645 1.45384 -3.3532e-16)
(4.81862 1.11995 -1.09861e-16)
(4.88776 0.756655 -8.60799e-16)
(5.10682 0.74192 4.9479e-16)
(5.3023 0.683355 4.89679e-17)
(5.31149 0.424715 4.64011e-16)
(5.18263 0.147326 5.38717e-16)
(4.79505 -0.00726894 -2.02077e-17)
(4.08881 0.0964361 -2.20015e-16)
(3.33021 0.327459 -3.44864e-17)
(3.0218 0.42275 2.0011e-17)
(3.8761 0.0633774 5.98693e-17)
(5.74042 -0.64413 1.09901e-16)
(8.23011 -1.37041 -1.17946e-16)
(10.1959 -1.59135 8.49828e-17)
(11.73 -1.29767 -3.65713e-17)
(11.4166 -0.740414 -2.34089e-16)
(9.17403 -0.397107 -2.96054e-16)
(6.81855 -0.52165 3.60724e-16)
(5.76976 -1.00381 2.41324e-16)
(5.51993 -0.649513 3.12429e-17)
(8.69457 -0.635374 -6.28017e-17)
(6.12691 -0.363792 -4.96243e-16)
(7.43362 -1.04357 -6.41517e-16)
(9.4797 -2.00125 -4.10155e-16)
(13.0225 -3.17408 3.537e-17)
(17.8283 -4.58362 -2.9524e-16)
(22.6122 -6.01711 -8.11698e-16)
(26.9612 -7.64084 -6.36664e-18)
(32.621 -9.26825 2.07701e-16)
(40.9247 -11.1554 7.87701e-17)
(46.4691 -12.438 2.54744e-16)
(61.7164 -9.29548 4.22124e-17)
(4.5738 -39.0464 -3.05979e-16)
(-6.04459 -37.4721 2.1658e-16)
(-27.2907 -42.1639 9.40817e-16)
(-35.9108 -41.3318 -1.27206e-15)
(-41.0964 -34.6888 -1.68592e-15)
(-31.5469 -23.5755 2.60037e-15)
(-7.81317 -6.17504 2.19195e-15)
(5.85779 4.46827 4.73569e-16)
(6.29843 3.7711 -3.41949e-16)
(3.72101 1.34446 1.48234e-16)
(4.1197 0.689317 6.25914e-16)
(4.34216 0.372232 -7.91485e-16)
(4.60903 0.402935 6.00654e-16)
(4.97496 0.489021 7.04402e-17)
(5.0874 0.359271 1.16138e-16)
(4.82504 0.139456 -2.15322e-16)
(4.17964 0.0832183 -2.3665e-16)
(3.36374 0.210257 -2.15559e-16)
(2.97104 0.310805 2.79025e-17)
(3.8087 -0.0284434 -4.7936e-17)
(5.91481 -0.838992 6.79759e-17)
(8.79611 -1.78955 -3.73684e-17)
(11.1564 -2.07181 -1.65733e-16)
(12.9726 -1.57447 7.43964e-17)
(12.6859 -0.671012 9.21693e-17)
(10.1147 -0.102185 -1.94792e-16)
(7.09349 -0.208158 3.50525e-17)
(5.08571 -0.58824 -1.01733e-16)
(3.1182 -0.375728 1.40708e-16)
(4.96402 -0.0344223 2.44845e-16)
(4.33688 -0.0611216 4.7949e-16)
(5.88793 -1.11559 -1.84454e-16)
(8.66502 -2.42576 -7.11558e-17)
(12.9777 -4.02211 3.9708e-16)
(18.5547 -5.79579 -7.51556e-17)
(24.3303 -7.61153 -8.28488e-17)
(29.7897 -9.66959 -3.52623e-16)
(36.6958 -11.7614 2.59972e-16)
(46.2274 -13.9298 -9.56089e-17)
(53.3346 -15.3941 -2.08772e-18)
(67.8624 -12.3623 1.94027e-16)
(0.874575 -33.6456 2.09192e-16)
(-4.17414 -30.3153 -1.9232e-16)
(-16.7153 -30.9345 9.25095e-17)
(-27.1559 -31.4307 1.03419e-15)
(-33.7102 -26.5885 3.04722e-16)
(-40.8768 -27.1935 -8.43204e-16)
(-43.6783 -30.7704 -4.77607e-16)
(-29.8927 -20.9445 -1.68063e-15)
(-7.96686 -5.12122 2.71227e-16)
(4.16631 2.98743 -1.50976e-16)
(4.51158 1.91235 7.63467e-16)
(3.25105 0.450302 1.26948e-16)
(3.60164 0.201064 -2.27079e-16)
(3.85965 0.188576 -4.90137e-16)
(4.2071 0.276663 3.14468e-16)
(4.37867 0.271496 -1.11044e-16)
(4.01554 0.196803 -1.37484e-16)
(3.20666 0.206992 -2.08594e-16)
(2.605 0.225077 -3.32384e-17)
(3.2171 -0.168007 1.62654e-17)
(5.29438 -1.14112 1.0192e-16)
(8.35017 -2.30971 -1.24211e-16)
(10.9594 -2.58897 -4.10869e-17)
(12.9172 -1.81511 1.19097e-16)
(12.7664 -0.497819 -7.96254e-17)
(10.1968 0.362672 3.43628e-17)
(6.77331 0.390855 3.58106e-17)
(4.09369 0.134085 8.55865e-17)
(1.02221 0.0569527 2.22234e-16)
(1.16936 0.39738 1.63463e-16)
(1.95093 0.00174042 -2.55117e-16)
(3.86085 -1.35734 4.90223e-16)
(7.02139 -3.00723 -1.92748e-16)
(11.6212 -4.98145 -1.00232e-16)
(17.5663 -7.13493 3.12781e-17)
(23.8635 -9.33075 2.00275e-16)
(29.9021 -11.6648 -6.62815e-17)
(37.2629 -13.9712 1.14003e-16)
(47.2436 -16.1957 1.85374e-17)
(55.5791 -17.7994 -9.57949e-17)
(69.349 -15.1187 -3.82509e-17)
(-1.01591 -28.1982 7.62351e-18)
(-4.95057 -25.8965 -1.00225e-16)
(-10.5201 -21.7353 -1.91898e-16)
(-19.189 -24.6899 8.06341e-17)
(-25.7588 -23.3245 -6.29438e-16)
(-29.6331 -16.4673 2.58048e-16)
(-36.6712 -16.7763 -5.41204e-16)
(-46.7453 -27.2789 -6.27911e-16)
(-44.9704 -29.6022 1.09728e-16)
(-24.6178 -16.2374 -1.9626e-17)
(-3.8593 -2.71306 -5.1574e-16)
(4.25409 1.95319 -3.02167e-17)
(3.56176 0.909599 1.95842e-16)
(2.70784 0.212395 -4.3574e-16)
(3.01917 0.188584 -6.71836e-17)
(3.29688 0.190341 -9.51514e-17)
(3.35047 0.22476 -1.42427e-16)
(2.8744 0.261271 -3.6228e-17)
(2.17395 0.23542 -3.95573e-17)
(2.32203 -0.236403 2.97419e-17)
(4.05721 -1.41134 4.38655e-17)
(7.03619 -2.85797 1.74714e-17)
(9.84202 -3.20164 -1.07205e-16)
(11.6843 -2.06684 9.51442e-17)
(11.8864 -0.325229 1.58503e-17)
(9.6355 0.931471 1.55638e-16)
(6.15623 1.23202 -8.89252e-17)
(2.83518 1.12256 -1.73308e-17)
(-1.12404 1.14606 -2.86625e-16)
(-1.70573 0.723755 -1.83833e-16)
(-0.53373 -0.255939 3.64396e-16)
(1.56152 -1.77838 -3.82753e-17)
(4.82217 -3.69505 8.5159e-17)
(9.37905 -6.00259 -1.87603e-16)
(15.345 -8.52088 -1.42174e-16)
(21.7927 -11.0698 3.72184e-16)
(28.0323 -13.5903 1.63494e-16)
(35.3184 -15.9872 -4.17698e-17)
(45.1872 -18.2013 1.94215e-16)
(54.3249 -19.8091 -8.83017e-17)
(67.2746 -17.7136 -6.92366e-17)
(-2.10602 -23.2428 6.24327e-17)
(-5.23753 -21.732 -2.48862e-17)
(-7.98685 -17.5557 -1.98211e-17)
(-13.1848 -18.7589 -1.76092e-16)
(-19.0104 -20.21 -3.53482e-16)
(-23.6306 -17.6308 2.56139e-16)
(-25.4241 -9.43129 3.84918e-16)
(-29.9099 -6.85834 -2.30943e-16)
(-42.0632 -17.9602 7.50378e-16)
(-50.1909 -29.5961 -1.27806e-16)
(-39.3905 -25.5998 3.71359e-16)
(-16.9894 -11.6099 2.87393e-16)
(-1.10994 -1.25962 -1.34587e-17)
(3.33864 1.39917 -1.94325e-16)
(2.58001 0.692202 1.16161e-16)
(2.13939 0.292574 -6.3833e-17)
(2.36856 0.262589 1.54467e-17)
(2.19041 0.245663 4.52598e-17)
(1.61983 0.237234 1.29898e-17)
(1.38787 -0.179325 -2.33174e-16)
(2.54902 -1.496 2.02369e-16)
(5.08373 -3.32088 -7.84661e-17)
(7.93958 -3.90124 -1.42101e-16)
(9.94978 -2.48422 5.76515e-17)
(10.4302 -0.179729 -7.1309e-17)
(8.58883 1.51477 1.76157e-17)
(5.24444 2.19184 -1.45932e-16)
(1.43926 2.38553 -1.8884e-16)
(-2.69591 2.44451 -1.90052e-16)
(-3.64547 0.896996 2.49357e-16)
(-2.78163 -0.718903 3.58428e-17)
(-0.815385 -2.39071 1.19552e-16)
(2.30621 -4.51253 -2.14248e-16)
(6.56431 -7.11041 -2.2518e-16)
(12.2596 -9.97177 -1.7076e-16)
(18.5715 -12.8353 1.97303e-16)
(24.7792 -15.5095 4.33972e-17)
(31.6751 -17.9364 2.36307e-17)
(41.0193 -20.1319 8.7763e-17)
(50.465 -21.6431 9.82498e-17)
(62.6262 -20.1368 -8.00745e-17)
(-2.62688 -18.8543 -2.60181e-17)
(-5.22412 -17.9761 1.08638e-16)
(-7.18253 -14.8443 -2.82815e-17)
(-9.44551 -14.0205 -4.38513e-17)
(-13.9164 -15.2822 6.24185e-17)
(-18.2366 -16.1073 4.84866e-16)
(-21.5122 -13.5508 -3.43964e-16)
(-21.9046 -5.42855 -7.32694e-16)
(-23.5531 0.33722 -5.02444e-18)
(-33.6716 -7.05175 2.73179e-16)
(-47.3519 -22.7273 1.0783e-15)
(-48.5811 -29.4155 -1.49173e-15)
(-32.7012 -20.9782 7.02047e-16)
(-12.8883 -8.02025 1.54774e-16)
(-1.09159 -0.256196 -6.19684e-16)
(1.94633 1.25519 2.16811e-16)
(1.74561 0.705209 4.17577e-17)
(1.48349 0.390931 2.66804e-16)
(1.07771 0.286364 -3.94501e-17)
(0.64855 -0.0697299 -2.24977e-16)
(1.03996 -1.28475 2.2978e-16)
(2.76507 -3.40698 -2.72514e-17)
(5.31042 -4.53694 -1.28172e-16)
(7.63771 -3.1248 1.0582e-16)
(8.42777 -0.216551 3.56233e-17)
(7.20564 2.04578 5.55746e-17)
(4.11341 3.10852 -3.21958e-17)
(0.364484 3.93809 9.04098e-17)
(-3.62149 3.68968 1.79053e-16)
(-4.7891 0.951863 1.83387e-17)
(-4.6568 -1.21136 -1.3971e-16)
(-3.12377 -3.13454 -2.29344e-17)
(-0.363245 -5.45354 8.64634e-17)
(3.38684 -8.32092 2.01504e-17)
(8.5423 -11.5159 -3.17551e-17)
(14.4681 -14.6764 -1.15097e-17)
(20.4753 -17.5204 1.75343e-16)
(26.8578 -19.9707 -1.55752e-16)
(35.3487 -22.1708 3.60127e-17)
(44.6042 -23.5789 4.34994e-17)
(56.0225 -22.5072 5.73669e-17)
(-2.80938 -15.0247 -3.7477e-17)
(-4.99353 -14.5992 -8.16283e-18)
(-6.56662 -12.3507 -3.01092e-17)
(-7.74305 -11.2773 -1.93855e-16)
(-10.5424 -11.5132 4.97757e-17)
(-13.8627 -12.0196 -1.04638e-17)
(-17.1826 -12.2857 -4.97838e-17)
(-19.5779 -10.3322 3.95409e-16)
(-19.4386 -3.65484 -1.10066e-16)
(-19.0302 3.94423 4.68713e-16)
(-25.0975 2.36541 2.89553e-16)
(-38.9199 -11.3956 -2.27092e-16)
(-49.813 -25.6612 -2.0298e-16)
(-45.7121 -27.0392 -9.2019e-17)
(-28.6474 -16.5127 -2.31005e-16)
(-11.3144 -5.24337 -2.80908e-16)
(-1.6724 0.408504 3.31284e-16)
(0.887258 1.22542 1.3748e-16)
(0.727899 0.694114 1.65405e-16)
(0.298223 0.119522 -2.8386e-16)
(0.181298 -0.747296 1.57487e-16)
(0.734293 -2.85587 8.31067e-17)
(2.27563 -4.78251 -1.05859e-16)
(4.43116 -3.98556 6.33464e-17)
(5.91514 -0.667326 1.65886e-16)
(5.51428 2.50715 9.38807e-18)
(3.17041 3.97361 1.44314e-18)
(-0.455093 5.58741 5.26396e-17)
(-3.85095 4.75929 6.97788e-17)
(-5.39578 1.1933 -2.94642e-17)
(-6.10686 -1.54193 -1.37791e-16)
(-5.2361 -3.8716 -1.89271e-17)
(-3.03736 -6.46524 -8.80544e-18)
(0.0319391 -9.61429 -3.89653e-17)
(4.39027 -13.172 6.10789e-17)
(9.67495 -16.6465 -2.39824e-18)
(15.2911 -19.7112 2.80431e-17)
(21.1605 -22.2247 3.64936e-17)
(28.5961 -24.4837 -3.93277e-17)
(37.1529 -25.8751 9.78006e-17)
(47.7689 -25.1004 2.99126e-17)
(-2.78449 -11.7717 1.54911e-16)
(-4.60067 -11.6022 -3.9932e-17)
(-5.89086 -10.0462 -1.44226e-16)
(-6.91637 -9.29118 1.96798e-16)
(-8.18662 -8.74082 8.23478e-17)
(-10.6765 -8.96165 -2.34711e-17)
(-13.3076 -8.9974 3.17573e-16)
(-15.8647 -8.93367 -7.06398e-16)
(-17.7366 -7.80639 -2.0752e-16)
(-17.7405 -3.14416 1.25615e-15)
(-16.3733 4.73685 -1.82972e-18)
(-18.2259 8.55525 -9.3176e-17)
(-28.2782 0.51184 -4.75258e-16)
(-42.7891 -15.4052 2.19667e-16)
(-49.9851 -25.8239 -7.40251e-16)
(-42.1115 -22.9383 7.82966e-17)
(-25.0086 -12.3512 -1.41269e-17)
(-9.82219 -3.20383 1.8278e-16)
(-2.15943 0.796389 -2.58438e-17)
(-0.386035 0.956294 -2.05379e-16)
(-0.223161 -0.241312 7.30983e-17)
(-0.150413 -1.83296 -2.66956e-17)
(0.13192 -3.89583 7.02306e-18)
(1.12479 -4.64318 1.96159e-17)
(2.58609 -1.71696 8.91904e-17)
(3.13197 2.5445 -3.25314e-18)
(2.10976 4.79339 -2.52314e-17)
(-0.848589 6.98003 7.82962e-17)
(-3.67482 5.77374 -4.47815e-17)
(-5.59758 1.81493 -6.4486e-17)
(-7.02084 -1.52633 4.18172e-17)
(-6.92067 -4.3962 2.34511e-17)
(-5.46837 -7.3614 7.19191e-17)
(-3.23702 -10.8346 1.66224e-17)
(0.050607 -14.8589 9.49263e-17)
(4.39271 -18.7373 -7.61811e-17)
(9.34731 -22.1148 5.00321e-17)
(14.6469 -24.8055 -1.4395e-17)
(21.0078 -27.2067 7.99302e-18)
(28.4388 -28.6838 1.21228e-17)
(37.9746 -28.1725 8.72848e-18)
(-2.62156 -9.05366 3.82008e-17)
(-4.1233 -9.03289 1.11184e-16)
(-5.17643 -7.95444 7.6182e-17)
(-6.07885 -7.45907 -1.08809e-17)
(-6.89691 -6.91095 -6.07796e-17)
(-8.19556 -6.63248 2.33548e-17)
(-10.323 -6.71521 9.89559e-17)
(-12.4005 -6.45573 -1.25728e-16)
(-14.384 -6.17782 2.76844e-16)
(-15.9696 -5.63332 -4.40453e-16)
(-16.3243 -2.83738 -9.06733e-16)
(-14.8152 3.84281 -2.33941e-16)
(-13.7939 10.8502 3.66514e-16)
(-18.5542 9.80708 -3.33276e-16)
(-31.0315 -2.49322 -5.02453e-16)
(-44.2828 -17.5312 5.86524e-16)
(-47.3232 -23.7148 -2.13316e-16)
(-37.0123 -18.6562 6.10289e-16)
(-21.1009 -9.0841 3.09301e-16)
(-8.67337 -1.94023 -3.6188e-16)
(-2.68002 0.220213 -1.02708e-16)
(-0.920487 -0.938071 4.44994e-17)
(-1.07857 -2.78921 -8.10456e-17)
(-0.912531 -3.99937 -5.00356e-17)
(-0.323617 -2.86451 1.45952e-16)
(0.48029 1.57894 4.55299e-17)
(0.400501 5.12884 -5.41048e-17)
(-1.01025 7.80662 3.08092e-17)
(-3.2694 6.8955 -1.06611e-17)
(-5.42512 2.85048 5.34307e-17)
(-7.18074 -1.10933 -1.16574e-16)
(-7.81034 -4.44822 6.20902e-17)
(-7.20338 -7.77994 4.52714e-17)
(-5.9164 -11.5422 6.40661e-17)
(-3.98902 -16.0909 8.92036e-17)
(-0.99791 -20.5348 -4.89508e-17)
(2.83263 -24.4629 -8.92945e-17)
(7.25566 -27.6899 -1.77657e-17)
(12.5674 -30.4444 -1.03042e-16)
(18.6586 -32.0623 -7.6445e-17)
(26.7468 -31.8239 -8.35076e-17)
(-2.37546 -6.8309 6.61663e-17)
(-3.60457 -6.87451 1.01963e-16)
(-4.46594 -6.13028 -1.79209e-16)
(-5.24766 -5.80667 -4.42231e-17)
(-5.96533 -5.42874 1.40645e-16)
(-6.66169 -5.0238 -5.86716e-17)
(-8.02796 -4.92477 -5.296e-17)
(-9.69089 -4.78379 -6.61609e-18)
(-11.3258 -4.33783 7.64922e-16)
(-12.8861 -3.88948 -2.04149e-16)
(-14.2403 -3.60202 -6.70051e-16)
(-14.7924 -2.21936 8.08757e-16)
(-13.7861 2.47833 3.52765e-16)
(-11.6189 9.94592 1.41274e-16)
(-11.91 14.1381 4.65238e-17)
(-19.1289 8.51782 -2.48576e-16)
(-32.2249 -5.34194 -1.22663e-16)
(-42.6849 -17.7349 -3.157e-17)
(-42.3144 -20.7894 6.16513e-16)
(-31.5326 -14.9892 -6.02538e-16)
(-17.847 -7.1084 -1.60137e-16)
(-8.23865 -2.83596 1.26456e-16)
(-3.61315 -2.3853 -1.82223e-17)
(-3.05343 -3.46198 -9.16168e-17)
(-2.88943 -3.64289 7.43107e-17)
(-2.11774 -0.517343 5.11358e-17)
(-1.5294 4.64818 -5.82564e-17)
(-1.48974 9.41159 -8.1431e-17)
(-2.97433 8.9671 -3.90749e-17)
(-5.28402 4.5246 1.86664e-17)
(-7.32614 -0.248132 2.23747e-17)
(-8.43817 -4.26175 -6.36818e-17)
(-8.43726 -7.89928 5.28177e-17)
(-7.8371 -11.637 1.59233e-17)
(-7.19785 -16.4135 -8.08748e-17)
(-5.76797 -21.3199 -2.93812e-17)
(-3.53628 -26.1248 6.60026e-18)
(-0.49156 -30.2993 3.26062e-17)
(3.32521 -33.7111 -3.83824e-17)
(7.8562 -35.8405 -5.15892e-17)
(14.3347 -35.983 -2.61582e-17)
(-2.08723 -5.04817 -7.22419e-17)
(-3.08315 -5.10805 4.68943e-17)
(-3.78097 -4.59287 -3.52465e-17)
(-4.44963 -4.37558 -1.46952e-16)
(-5.07045 -4.11312 1.93052e-17)
(-5.64338 -3.80455 8.99348e-17)
(-6.3278 -3.50328 -4.23803e-17)
(-7.57752 -3.39691 -1.19844e-16)
(-8.89471 -3.12588 -3.28186e-17)
(-10.1876 -2.59907 -1.91745e-16)
(-11.4118 -2.03307 2.70662e-16)
(-12.4697 -1.75335 2.63166e-17)
(-13.1603 -1.20143 -2.04846e-16)
(-12.7422 1.48435 -2.34998e-16)
(-10.7026 7.43792 2.87577e-16)
(-8.62541 13.857 3.63147e-16)
(-10.6114 14.5909 -1.19021e-15)
(-19.3263 6.16524 1.00425e-15)
(-31.2951 -7.1216 1.81919e-16)
(-38.8963 -16.8686 -4.10709e-16)
(-36.7246 -17.8307 3.3684e-16)
(-28.787 -13.5899 -1.02142e-16)
(-18.6056 -8.57604 -6.93423e-17)
(-10.8576 -5.70703 -1.74457e-16)
(-7.53185 -4.52936 2.54385e-16)
(-6.14589 -2.84538 1.04257e-16)
(-4.64602 2.44548 -1.17509e-16)
(-3.25218 9.57025 -1.0484e-16)
(-3.00117 11.2713 7.33134e-17)
(-4.83318 6.86437 1.08948e-16)
(-7.25401 1.25849 3.3983e-17)
(-9.0549 -3.58449 -3.34037e-17)
(-9.87123 -7.83747 -5.773e-17)
(-9.95485 -11.8887 6.1205e-18)
(-10.3544 -16.86 -8.5139e-17)
(-10.2663 -22.0618 1.83619e-17)
(-9.56008 -27.2124 7.48262e-18)
(-8.04094 -31.7989 -2.56105e-17)
(-5.91709 -36.0089 1.91603e-17)
(-3.17461 -38.9189 1.18246e-17)
(1.22215 -39.8879 2.56697e-17)
(-1.78532 -3.64375 8.72831e-17)
(-2.58305 -3.694 -6.69354e-17)
(-3.14263 -3.33379 -6.79258e-17)
(-3.70402 -3.18107 -3.86659e-17)
(-4.23249 -2.99112 2.25442e-16)
(-4.72884 -2.76424 -7.50003e-17)
(-5.18931 -2.50203 -5.17956e-17)
(-5.91929 -2.277 1.26793e-16)
(-6.96926 -2.09186 8.04762e-17)
(-8.01831 -1.75067 -3.36987e-16)
(-9.03316 -1.20858 -2.20802e-16)
(-9.93227 -0.579629 -6.93049e-17)
(-10.771 -0.184775 -4.08923e-16)
(-11.4465 0.0425582 2.90918e-16)
(-11.4758 1.22997 1.03459e-15)
(-10.15 4.92535 -5.22909e-16)
(-7.64797 10.8554 -1.93245e-16)
(-6.35016 15.3324 2.12133e-16)
(-9.74556 13.3675 -2.42477e-16)
(-18.5786 3.95167 7.04943e-16)
(-28.9244 -7.8496 -8.26652e-17)
(-36.4957 -15.9493 -3.64723e-16)
(-35.9348 -17.0156 -6.57074e-16)
(-30.3751 -14.3266 3.06448e-16)
(-23.0209 -11.0108 3.33015e-16)
(-16.7335 -7.98334 -4.25933e-18)
(-13.0263 -2.83481 9.5306e-17)
(-9.36802 5.88561 2.55751e-17)
(-5.78927 11.6058 -4.45304e-17)
(-5.35778 9.61531 1.20652e-16)
(-7.35885 3.83963 4.23225e-17)
(-9.67071 -1.91178 -1.05228e-16)
(-11.3158 -6.90244 1.82618e-17)
(-12.2129 -11.4125 -2.04841e-17)
(-13.3532 -16.2724 -5.86796e-17)
(-14.4785 -21.6426 6.03278e-18)
(-15.2308 -26.9444 1.00201e-16)
(-15.2859 -31.7707 -5.16498e-17)
(-14.9342 -36.4973 -3.18148e-17)
(-13.8953 -40.3107 -6.5228e-18)
(-11.5354 -42.8181 1.2063e-17)
(-1.49256 -2.56261 -2.40592e-17)
(-2.12114 -2.589 4.72748e-17)
(-2.56308 -2.33155 2.30754e-17)
(-3.0241 -2.21589 8.43516e-17)
(-3.46567 -2.07037 -7.82926e-17)
(-3.88557 -1.89667 5.31808e-17)
(-4.28486 -1.69359 -5.22874e-17)
(-4.70305 -1.46622 -5.58788e-18)
(-5.43261 -1.26441 1.04329e-16)
(-6.2687 -1.00492 9.82244e-17)
(-7.0963 -0.630418 -3.00312e-16)
(-7.84439 -0.107606 5.81527e-16)
(-8.52606 0.522586 5.41587e-16)
(-9.15696 1.03468 -5.1729e-16)
(-9.72827 1.25774 -3.34648e-16)
(-10.0013 1.64167 -2.60249e-16)
(-9.41564 3.37554 6.09028e-16)
(-7.57497 7.37368 -5.70239e-16)
(-5.26827 12.5111 9.63073e-17)
(-4.94434 15.0813 3.11103e-16)
(-9.02808 11.5166 -2.11699e-16)
(-18.2178 2.95377 -1.66902e-16)
(-27.7344 -6.49857 9.13006e-17)
(-34.2997 -12.9333 1.30891e-16)
(-36.0382 -15.2692 -2.267e-16)
(-33.5478 -15.1928 3.29177e-19)
(-29.77 -13.46 2.91689e-16)
(-25.0034 -7.36534 -4.10388e-16)
(-17.7365 2.53398 8.06731e-17)
(-11.9184 8.13992 1.11805e-16)
(-10.4495 6.3639 -3.70269e-17)
(-11.6023 1.09408 -1.14665e-16)
(-13.4079 -4.50129 5.92164e-17)
(-14.9582 -9.55838 1.5074e-16)
(-16.5424 -14.3127 8.69389e-18)
(-18.6527 -19.5509 -1.22472e-17)
(-20.6807 -24.8931 -3.9729e-17)
(-22.1811 -29.8277 -3.33601e-17)
(-23.5733 -34.9122 -6.10363e-17)
(-24.316 -39.4248 2.87534e-17)
(-24.0903 -43.3881 3.85378e-17)
(-1.21992 -1.7511 -4.12479e-17)
(-1.7091 -1.75221 5.77117e-17)
(-2.05131 -1.56192 -4.56699e-17)
(-2.42022 -1.46542 -1.83736e-16)
(-2.77963 -1.34574 5.15426e-17)
(-3.12672 -1.20407 1.96182e-17)
(-3.46398 -1.04062 -5.60318e-17)
(-3.78769 -0.854565 -6.69064e-17)
(-4.19285 -0.640047 -6.74315e-18)
(-4.85633 -0.418655 1.61015e-17)
(-5.51476 -0.116776 -2.01762e-16)
(-6.12892 0.264232 1.73198e-16)
(-6.69506 0.748011 -1.5081e-16)
(-7.19851 1.33166 -4.66075e-16)
(-7.65376 1.8968 6.37527e-16)
(-8.08708 2.23945 2.50718e-16)
(-8.42336 2.38452 1.47393e-16)
(-8.34 2.94566 -6.84215e-19)
(-7.38885 4.93887 -1.3517e-16)
(-5.48412 8.76106 -1.03685e-16)
(-3.71268 12.7985 -5.2102e-17)
(-4.57722 14.8421 1.2658e-16)
(-8.7599 12.0675 -2.68893e-16)
(-15.795 5.88497 -1.11296e-17)
(-23.8992 -1.20189 1.4518e-16)
(-30.4133 -7.40156 -1.21909e-16)
(-34.2293 -12.6927 -2.75175e-16)
(-35.8755 -15.8552 3.13479e-16)
(-34.3134 -14.1851 3.73469e-16)
(-28.6356 -7.90384 -2.68999e-16)
(-22.5912 -1.93496 -1.2055e-16)
(-19.595 -0.387761 9.34125e-18)
(-19.2053 -2.77472 -5.04443e-17)
(-19.9459 -6.8504 1.43699e-16)
(-21.2378 -11.2859 -5.62427e-17)
(-23.389 -15.7771 -3.01391e-17)
(-26.1756 -20.6964 4.37641e-17)
(-28.7555 -25.495 1.01545e-17)
(-31.6413 -30.6123 6.44388e-17)
(-34.0778 -35.4836 3.35459e-17)
(-36.1024 -40.4711 3.10752e-18)
(-0.968528 -1.13293 3.44951e-18)
(-1.34427 -1.11926 7.09357e-17)
(-1.60481 -0.97803 2.33388e-17)
(-1.89344 -0.89476 -2.7667e-17)
(-2.17867 -0.792752 -1.00813e-16)
(-2.45842 -0.673001 2.34754e-17)
(-2.73327 -0.53626 -3.15585e-17)
(-3.00402 -0.380869 -3.71306e-17)
(-3.27266 -0.206904 5.79422e-17)
(-3.7082 0.00682057 -4.73341e-17)
(-4.22087 0.265362 -1.10103e-16)
(-4.70993 0.579948 9.77022e-17)
(-5.1726 0.951412 -1.66978e-16)
(-5.59113 1.38839 -1.44482e-16)
(-5.955 1.90091 2.06016e-16)
(-6.27096 2.44887 1.44908e-16)
(-6.56926 2.89262 2.33991e-16)
(-6.85377 3.09982 -3.88908e-16)
(-7.00261 3.22754 -2.2055e-16)
(-6.69883 3.92935 6.87322e-16)
(-5.61879 5.95157 -3.46608e-16)
(-4.30278 9.79078 -8.24324e-17)
(-3.30996 13.4359 8.50333e-17)
(-3.79795 15.4154 -2.28069e-16)
(-6.54081 14.687 3.50402e-16)
(-11.4424 11.4577 -2.11003e-16)
(-17.5581 6.00665 -2.75395e-16)
(-24.0335 -1.6712 1.2774e-16)
(-29.9514 -9.50771 8.48516e-17)
(-33.8162 -14.2466 4.50824e-16)
(-34.347 -14.9081 -2.48051e-16)
(-32.2523 -12.8695 -1.80599e-16)
(-30.0449 -10.606 1.02652e-16)
(-29.0714 -9.76234 1.09807e-17)
(-29.3735 -10.7526 -3.92717e-17)
(-30.4798 -13.0812 5.29253e-17)
(-32.6688 -16.1959 -1.36871e-17)
(-35.1083 -19.61 2.59939e-17)
(-38.6223 -23.8897 -2.70686e-17)
(-42.2916 -28.4131 -1.46817e-18)
(-46.3788 -33.4948 -5.0398e-18)
(-0.804795 -0.748805 -2.96444e-17)
(-1.0924 -0.711356 1.96891e-17)
(-1.29048 -0.596599 -7.00826e-18)
(-1.51082 -0.514625 1.53251e-17)
(-1.72893 -0.418703 1.15097e-16)
(-1.94371 -0.309416 9.32535e-17)
(-2.15552 -0.187388 2.87519e-17)
(-2.36683 -0.0515159 -1.28401e-16)
(-2.57373 0.0989982 2.62639e-18)
(-2.81709 0.279666 -4.2596e-17)
(-3.22131 0.508903 6.6258e-18)
(-3.60857 0.783535 1.88008e-16)
(-3.98255 1.10025 -1.51087e-16)
(-4.32904 1.45771 6.82093e-17)
(-4.63706 1.85724 -4.45313e-17)
(-4.89838 2.30874 -4.68744e-16)
(-5.1133 2.80938 8.07957e-16)
(-5.30219 3.29277 2.65495e-16)
(-5.49684 3.61956 -7.12233e-16)
(-5.68082 3.72893 6.17184e-16)
(-5.6887 3.87935 -4.47538e-17)
(-5.55902 5.00359 -4.96583e-16)
(-4.75626 7.14867 8.04052e-17)
(-3.53135 10.3408 2.11609e-16)
(-2.39458 13.8346 -3.62708e-16)
(-2.0611 16.7412 2.18703e-17)
(-3.13405 18.2475 6.61279e-17)
(-6.04564 17.1131 3.33077e-17)
(-10.8989 12.1578 -2.42231e-16)
(-17.0698 4.1708 2.09511e-16)
(-23.6295 -3.97845 3.07513e-16)
(-29.375 -10.2087 -6.37734e-17)
(-33.2101 -14.0278 -1.10881e-16)
(-35.0571 -15.4425 -1.87422e-16)
(-36.1273 -15.5572 4.87803e-17)
(-37.3613 -15.2676 2.03689e-17)
(-39.0623 -15.4544 2.29562e-17)
(-40.6389 -16.3368 4.23621e-17)
(-43.7187 -18.3547 4.0305e-17)
(-47.1005 -21.0011 1.85119e-18)
(-51.9107 -24.6374 -2.11384e-17)
(-0.674111 -0.493263 -2.6081e-17)
(-0.895562 -0.442293 -5.22292e-17)
(-1.04842 -0.345358 -8.63919e-18)
(-1.217 -0.265867 1.02112e-16)
(-1.38401 -0.175538 6.11662e-17)
(-1.54794 -0.0751646 6.32328e-17)
(-1.71033 0.0353573 6.58435e-18)
(-1.87207 0.156341 -9.09007e-17)
(-2.03327 0.290079 9.83493e-18)
(-2.1958 0.435563 -2.87901e-17)
(-2.4712 0.638508 1.21165e-16)
(-2.7767 0.880611 5.27311e-17)
(-3.07448 1.15786 -2.87373e-16)
(-3.35436 1.46792 8.67646e-17)
(-3.60739 1.80879 1.0171e-16)
(-3.82682 2.17791 -5.17363e-16)
(-4.00567 2.57991 -1.07682e-17)
(-4.13985 3.02388 2.8046e-16)
(-4.23906 3.49114 3.42262e-16)
(-4.33199 3.89731 -2.13109e-16)
(-4.45126 4.11792 8.93676e-17)
(-4.81501 4.47943 2.13728e-16)
(-4.9285 4.892 -3.90018e-16)
(-4.67121 5.85519 -1.37104e-16)
(-3.91631 7.6482 4.54458e-17)
(-2.72095 10.3154 1.32364e-16)
(-1.33289 13.752 -6.57357e-17)
(-0.193623 17.4657 1.32706e-16)
(0.0266586 20.1806 -7.83648e-17)
(-1.47404 20.3556 -1.15359e-17)
(-5.02389 17.0761 1.48561e-16)
(-9.96965 10.8681 -1.08983e-16)
(-16.0982 3.74243 -4.84994e-17)
(-22.7385 -3.15611 1.59489e-16)
(-28.5684 -8.81368 -1.45588e-16)
(-33.3923 -12.649 6.99912e-17)
(-37.1848 -14.775 2.9992e-17)
(-40.0806 -15.5357 -5.67447e-17)
(-43.3107 -16.0196 4.0922e-17)
(-46.4137 -16.7126 2.93503e-17)
(-51.0348 -18.2632 -9.46379e-18)
(-0.563663 -0.314125 -5.88054e-18)
(-0.73487 -0.257495 -3.33858e-17)
(-0.853176 -0.174343 -2.60618e-17)
(-0.983098 -0.0995559 8.05793e-17)
(-1.11115 -0.0161863 -1.00085e-17)
(-1.2368 0.0752558 -4.40353e-17)
(-1.36102 0.174851 4.79491e-17)
(-1.48508 0.283091 1.89003e-18)
(-1.60973 0.401738 -8.60683e-18)
(-1.73464 0.530948 4.46654e-18)
(-1.90056 0.693868 1.55032e-17)
(-2.14322 0.909396 -3.61026e-17)
(-2.37701 1.15435 4.43628e-17)
(-2.59877 1.42572 1.33022e-16)
(-2.79987 1.72273 -1.66419e-16)
(-2.97543 2.04313 -9.5713e-17)
(-3.12058 2.38249 -5.39357e-17)
(-3.22992 2.74185 3.96487e-17)
(-3.2989 3.12835 1.51277e-16)
(-3.32585 3.54866 -7.74326e-17)
(-3.33473 3.95783 -2.19837e-16)
(-3.56323 4.55266 1.76759e-16)
(-3.77382 4.93464 1.93427e-16)
(-3.95888 5.25629 -3.25582e-16)
(-3.98678 5.68605 1.42232e-16)
(-3.71461 6.44261 9.93133e-17)
(-3.02554 7.78238 -1.67017e-16)
(-1.85428 9.99796 3.0999e-16)
(-0.282974 13.2122 -8.71896e-17)
(1.32344 16.9846 -2.48785e-16)
(2.36396 20.203 6.18146e-18)
(2.18895 21.6985 2.63105e-16)
(0.38359 20.7509 -2.1104e-16)
(-2.81455 17.0807 -7.28723e-17)
(-7.39237 11.8347 1.51727e-16)
(-13.2487 5.83211 1.15011e-17)
(-19.3888 0.096713 -2.28029e-17)
(-25.0872 -4.67849 -1.65726e-17)
(-30.4242 -8.19161 1.96481e-17)
(-35.0318 -10.4161 5.50421e-18)
(-40.2944 -11.9558 1.92417e-17)
(-0.469674 -0.186935 1.75988e-17)
(-0.602987 -0.130423 -2.83185e-17)
(-0.694003 -0.0583632 3.72472e-19)
(-0.794301 0.0105495 -3.2893e-17)
(-0.892256 0.0862226 3.84384e-17)
(-0.988375 0.168728 -1.34249e-17)
(-1.08301 0.257934 -2.59848e-17)
(-1.17772 0.354568 -2.21444e-18)
(-1.27279 0.459794 2.87753e-17)
(-1.36938 0.575636 -3.05088e-19)
(-1.47272 0.705967 -8.17218e-18)
(-1.65113 0.894117 -2.76355e-17)
(-1.83307 1.11176 -2.04413e-17)
(-2.0058 1.35058 4.17038e-17)
(-2.16237 1.61003 3.91734e-17)
(-2.29805 1.88826 1.10795e-17)
(-2.40891 2.18353 -2.07829e-17)
(-2.49133 2.49165 -3.87421e-17)
(-2.54246 2.81075 7.79581e-17)
(-2.55526 3.14569 1.06136e-16)
(-2.53024 3.49998 9.58993e-18)
(-2.62266 4.11111 -1.84388e-16)
(-2.68118 4.64612 -2.26223e-17)
(-2.76214 5.13729 1.22908e-16)
(-2.85554 5.55304 1.70207e-16)
(-2.92276 5.90153 -9.03164e-17)
(-2.88978 6.2483 -2.13646e-16)
(-2.64122 6.75586 -1.84006e-16)
(-2.03157 7.71898 6.90558e-17)
(-0.942471 9.45303 1.50379e-16)
(0.602554 12.08 -2.01503e-17)
(2.36899 15.336 5.26553e-17)
(3.96596 18.5539 -1.62382e-17)
(4.9526 20.8818 1.76716e-17)
(4.94757 21.7931 -1.02767e-16)
(3.75033 20.7752 6.51541e-17)
(1.43238 18.0013 4.66368e-18)
(-2.01596 14.0098 3.34091e-17)
(-6.43639 9.66861 -4.1766e-17)
(-11.0285 5.52995 4.80071e-17)
(-15.8777 2.10296 -1.50622e-17)
(-0.390224 -0.0971157 4.301e-17)
(-0.493825 -0.0430762 -2.35474e-17)
(-0.563877 0.0191636 5.71376e-17)
(-0.640732 0.0817294 -7.21507e-17)
(-0.715553 0.14966 -8.4632e-17)
(-0.788428 0.223313 4.17491e-18)
(-0.86015 0.302724 3.89055e-17)
(-0.931497 0.388608 -1.51874e-17)
(-1.0034 0.481808 1.69038e-17)
(-1.07633 0.584756 2.86489e-17)
(-1.14956 0.695897 -3.25467e-17)
(-1.26675 0.852222 -1.95706e-17)
(-1.40705 1.04503 -2.79473e-17)
(-1.5384 1.25469 7.34403e-17)
(-1.65733 1.481 6.21994e-17)
(-1.7584 1.72216 5.77584e-17)
(-1.83906 1.9773 -8.4565e-17)
(-1.89556 2.24307 -2.13396e-16)
(-1.92662 2.51715 1.31564e-16)
(-1.92739 2.79642 -6.78112e-17)
(-1.89853 3.07807 1.24129e-16)
(-1.9411 3.57594 1.75248e-16)
(-1.93252 4.04294 -2.9251e-16)
(-1.90532 4.54102 2.03417e-18)
(-1.86649 5.04627 1.58071e-16)
(-1.82979 5.52248 -1.02578e-16)
(-1.80326 5.93241 1.68273e-18)
(-1.77397 6.24775 1.16428e-16)
(-1.69131 6.49994 -2.02855e-16)
(-1.45617 6.82271 -6.79853e-17)
(-0.941609 7.44534 1.92409e-16)
(-0.0403669 8.59756 1.26695e-16)
(1.27297 10.394 -6.64951e-17)
(2.90352 12.7191 -1.27445e-16)
(4.67795 15.3331 6.03981e-17)
(6.31087 17.7284 2.10416e-17)
(7.53921 19.4541 -5.8733e-17)
(8.07821 20.0245 5.69268e-17)
(7.87492 19.4981 -4.43107e-17)
(6.91496 17.7537 1.07423e-17)
(5.11669 15.564 2.64836e-17)
(-0.323136 -0.0341287 5.06372e-18)
(-0.403239 0.0157221 1.84268e-18)
(-0.456902 0.0696204 -7.57427e-17)
(-0.51543 0.125561 4.81808e-18)
(-0.572075 0.186008 2.44527e-17)
(-0.626825 0.251117 -1.65625e-17)
(-0.680419 0.321311 -1.64468e-17)
(-0.733483 0.397128 -1.30574e-17)
(-0.786732 0.479362 -8.11015e-17)
(-0.840629 0.569933 8.76357e-17)
(-0.894197 0.66849 -3.40167e-17)
(-0.965097 0.792962 4.34376e-17)
(-1.0712 0.962826 -1.32574e-17)