/*--------------------------------*- C++ -*----------------------------------*\
| =========                 |                                                 |
| \\      /  F ield         | OpenFOAM: The Open Source CFD Toolbox           |
|  \\    /   O peration     | Version:  2312                                  |
|   \\  /    A nd           | Website:  www.openfoam.com                      |
|    \\/     M anipulation  |                                                 |
\*---------------------------------------------------------------------------*/
FoamFile
{
    version     2.0;
    format      ascii;
    arch        "LSB;label=32;scalar=64";
    class       volScalarField;
    location    "300";
    object      nuTilda;
}
// * * * * * * * * * * * * * * * * * * * * * * * * * * * * * * * * * * * * * //

dimensions      [0 2 -1 0 0 0 0];

internalField   nonuniform List<scalar> 
11040
(
5.97541e-05
7.93904e-05
8.75188e-05
3.74614e-05
7.46257e-05
0.000177841
0.000188751
0.000191487
0.00018279
0.000178801
0.000170621
0.000161054
0.000152912
0.000144282
0.000136757
0.000131922
0.000130106
0.000131647
0.000134724
0.000135606
0.000123646
9.59391e-05
0.000102838
0.000108552
0.00011104
0.000104605
0.00010211
8.05008e-05
6.38115e-05
5.34859e-05
0.000148651
0.00023177
0.00029447
0.000321186
0.000312168
0.000280769
0.000246696
0.000259281
0.00027269
0.000285165
0.000297178
3.67795e-05
5.23071e-05
8.9263e-05
9.9343e-05
0.000167003
0.000627251
0.000711545
0.000673018
0.000591893
0.00056549
0.000515734
0.000461789
0.000424508
0.000390045
0.000362735
0.00034807
0.000342085
0.000346549
0.000361575
0.000389144
0.000421451
0.000465683
0.000513271
0.000549885
0.000556811
0.000518224
0.000462555
0.000406217
0.000346507
0.000264353
0.00043258
0.000641252
0.000810426
0.000938673
0.00104596
0.00113999
0.00122465
0.00130782
0.00139499
0.00143189
0.00154698
4.11064e-05
3.8568e-05
5.28423e-05
7.96905e-05
0.000106429
0.000388444
0.000876351
0.00117763
0.0012776
0.00126384
0.00118018
0.00106562
0.000984857
0.000912918
0.000847514
0.000810537
0.000793947
0.000800611
0.000830134
0.000879488
0.000936967
0.0010181
0.00111462
0.00120149
0.00124403
0.00119427
0.0010972
0.000988419
0.000843834
0.000648332
0.00104351
0.0015338
0.00189298
0.00217071
0.00240207
0.0026028
0.00278824
0.00296039
0.00313878
0.00324396
0.0034452
4.0251e-05
4.02415e-05
3.85856e-05
5.06709e-05
5.86345e-05
0.000138287
0.000460138
0.00103245
0.00157057
0.00178263
0.00186622
0.00185671
0.00179191
0.0016804
0.00155738
0.00148245
0.00144644
0.00145
0.00149445
0.00156391
0.00164581
0.00175945
0.00190739
0.00206966
0.00218055
0.00214753
0.00201683
0.0018662
0.00163934
0.00128724
0.00202409
0.00284639
0.00345817
0.0039393
0.00433605
0.00467492
0.00498128
0.00526197
0.00554658
0.00575233
0.00606276
4.01694e-05
4.06209e-05
3.92566e-05
3.98507e-05
4.2113e-05
4.29059e-05
0.000127854
0.000452579
0.0010876
0.00181215
0.00225996
0.00244518
0.00252254
0.00253314
0.00249524
0.00242409
0.0023625
0.00235238
0.00241152
0.00249349
0.00259405
0.00272226
0.00289688
0.00313699
0.00335119
0.00341205
0.00327958
0.00312349
0.00281497
0.00229683
0.00347785
0.00469472
0.00562733
0.00636564
0.00696569
0.00746807
0.00790961
0.00830859
0.00870493
0.00903676
0.00948904
4.02116e-05
4.01942e-05
4.03796e-05
3.94595e-05
4.01267e-05
3.40368e-05
2.53965e-05
9.08908e-05
0.000386731
0.00102419
0.00188617
0.00261995
0.00301412
0.00321416
0.00331689
0.00337689
0.00344658
0.00354625
0.00364764
0.0037359
0.00386364
0.00396483
0.00410552
0.00438576
0.00472253
0.00500125
0.00496881
0.00474222
0.00424086
0.00384028
0.00555874
0.00723696
0.00855905
0.00960812
0.0104463
0.0111304
0.0117104
0.0122216
0.0127175
0.013179
0.0137973
4.01688e-05
4.01818e-05
4.02519e-05
4.0152e-05
4.00689e-05
3.98938e-05
2.96516e-05
9.94658e-06
4.36115e-05
0.000277275
0.000858237
0.00177457
0.0027676
0.00348768
0.00389574
0.00415763
0.00438491
0.00465585
0.00499758
0.00534771
0.00553873
0.00559156
0.00559952
0.00580353
0.00624102
0.00688377
0.007004
0.00658748
0.00602123
0.0061207
0.00846024
0.0106786
0.0124615
0.013874
0.0149795
0.0158513
0.0165554
0.0171462
0.0177005
0.0182566
0.0190298
4.01539e-05
4.01778e-05
4.0187e-05
4.02373e-05
4.01745e-05
4.03865e-05
4.07978e-05
2.88923e-05
1.22836e-07
7.86939e-07
0.000149232
0.000620683
0.00149839
0.00264795
0.00373202
0.00448938
0.00501865
0.00551568
0.00609704
0.00676952
0.007383
0.00767643
0.00749909
0.00744002
0.00784628
0.00875729
0.00912245
0.00868194
0.00826575
0.00932738
0.0124181
0.0152915
0.017613
0.0194369
0.020827
0.021874
0.022666
0.0232698
0.023792
0.0243419
0.0251767
4.01458e-05
4.0164e-05
4.01823e-05
4.01819e-05
4.02388e-05
4.00973e-05
4.0919e-05
4.14479e-05
3.11594e-05
8.08674e-06
2.97106e-05
5.83141e-05
0.000370915
0.00112197
0.00229156
0.00365043
0.00486365
0.00582235
0.00672691
0.00772737
0.00877837
0.00960637
0.00989431
0.00950493
0.00956192
0.0103618
0.0112088
0.0110655
0.0110213
0.0136298
0.0176943
0.0214192
0.0243759
0.0266659
0.0283576
0.0295365
0.0303448
0.0308449
0.0311705
0.0315299
0.0322204
4.01399e-05
4.01565e-05
4.01663e-05
4.01767e-05
4.01813e-05
4.02079e-05
4.00921e-05
4.10545e-05
4.20614e-05
3.51876e-05
8.6645e-06
1.41095e-05
2.22738e-05
0.000184756
0.000716665
0.00177128
0.00324476
0.00487795
0.00642522
0.00789631
0.00939874
0.0107693
0.0117212
0.0120043
0.0116211
0.0120054
0.0131676
0.0137603
0.0149536
0.0190771
0.0245924
0.0293689
0.0331978
0.0361138
0.0381144
0.0393434
0.0400898
0.0403546
0.0402104
0.0400637
0.0402513
4.0137e-05
4.01484e-05
4.01547e-05
4.01623e-05
4.01652e-05
4.01832e-05
4.01705e-05
4.01409e-05
4.08143e-05
4.26184e-05
3.70995e-05
1.83024e-05
8.35948e-06
3.10582e-05
4.24502e-05
0.000361887
0.00118587
0.0025893
0.00447156
0.00660947
0.00877172
0.0107482
0.012364
0.013466
0.0139665
0.0140775
0.0149297
0.0165178
0.0196315
0.0254514
0.0319278
0.0376301
0.0424673
0.0464145
0.0493955
0.0513453
0.0522902
0.0522333
0.0512947
0.0503211
0.0494585
4.01316e-05
4.01396e-05
4.01447e-05
4.0149e-05
4.0156e-05
4.01586e-05
4.01752e-05
4.0161e-05
4.01162e-05
4.05563e-05
4.22365e-05
4.04008e-05
2.64746e-05
3.36061e-06
7.54481e-06
6.26211e-05
0.000112848
0.000633164
0.00178764
0.0036683
0.00617772
0.00887382
0.011266
0.0131992
0.0146818
0.0159089
0.0173002
0.0196507
0.0242399
0.0313329
0.0384405
0.0449425
0.0506582
0.0555075
0.0594085
0.0622368
0.0639579
0.0645716
0.0640621
0.062479
0.0600345
4.01253e-05
4.01315e-05
4.01355e-05
4.01398e-05
4.01444e-05
4.01501e-05
4.01547e-05
4.0165e-05
4.01689e-05
4.00844e-05
4.03304e-05
4.16553e-05
4.17214e-05
3.57035e-05
1.37743e-05
4.53002e-06
1.75944e-05
2.49326e-05
0.000243297
0.00098355
0.00258227
0.0049707
0.00775116
0.0104788
0.0129075
0.0152499
0.0180829
0.022095
0.0278682
0.0352837
0.0430134
0.0503154
0.0568792
0.0625668
0.0672827
0.0708869
0.0733046
0.0745438
0.0746094
0.073541
0.0714399
4.01182e-05
4.01244e-05
4.0128e-05
4.01325e-05
4.01368e-05
4.01415e-05
4.01468e-05
4.0151e-05
4.01609e-05
4.01677e-05
4.00925e-05
4.01339e-05
4.11184e-05
4.24842e-05
3.98579e-05
2.51099e-05
7.17422e-06
4.1339e-06
2.98692e-05
0.000167516
0.000333995
0.00136795
0.00316154
0.00555894
0.00825218
0.0111296
0.0147359
0.0199962
0.0271157
0.0354529
0.0441066
0.0524034
0.0599602
0.066598
0.0722147
0.0766857
0.0798997
0.0818442
0.0825165
0.081965
0.0802869
4.01104e-05
4.01174e-05
4.01225e-05
4.01273e-05
4.01319e-05
4.0136e-05
4.01405e-05
4.0145e-05
4.01488e-05
4.01584e-05
4.01656e-05
4.01066e-05
4.00857e-05
4.0543e-05
4.22478e-05
4.18024e-05
3.5928e-05
1.13225e-05
4.4101e-06
4.98705e-07
3.94037e-05
0.000213733
0.000383723
0.00138946
0.00303258
0.00517327
0.00799651
0.0126145
0.0199859
0.0293911
0.0394342
0.0491772
0.0581394
0.0661015
0.0729587
0.0786221
0.082976
0.0859787
0.0876003
0.0878549
0.0868085
4.01023e-05
4.01104e-05
4.01167e-05
4.01224e-05
4.01277e-05
4.01326e-05
4.01371e-05
4.01408e-05
4.01449e-05
4.01491e-05
4.01559e-05
4.01676e-05
4.01292e-05
4.00653e-05
4.02295e-05
4.14886e-05
4.2558e-05
4.04983e-05
2.86981e-05
5.12886e-06
2.70699e-06
0
3.98569e-05
0.000182855
0.000257695
0.001002
0.00222745
0.00428562
0.00848829
0.0161178
0.0265316
0.0378831
0.0488305
0.0587962
0.0675692
0.0750475
0.0811551
0.085844
0.0890517
0.0907415
0.0909303
4.00944e-05
4.01036e-05
4.01108e-05
4.0117e-05
4.01227e-05
4.01279e-05
4.01328e-05
4.01373e-05
4.01416e-05
4.01459e-05
4.01506e-05
4.01563e-05
4.01669e-05
4.01593e-05
4.00762e-05
4.01197e-05
4.0518e-05
4.2258e-05
4.24845e-05
3.93571e-05
2.11211e-05
6.52255e-06
1.40711e-06
0
2.35297e-05
9.89144e-05
5.25193e-05
0.000290988
0.00110687
0.00350402
0.0090296
0.0181666
0.0296569
0.0417022
0.0531153
0.063324
0.0720919
0.0793652
0.0850713
0.0891247
0.0914975
4.00871e-05
4.00969e-05
4.01044e-05
4.01108e-05
4.01165e-05
4.01217e-05
4.01267e-05
4.01314e-05
4.01359e-05
4.01404e-05
4.01454e-05
4.01505e-05
4.01573e-05
4.01664e-05
4.01733e-05
4.01214e-05
4.00593e-05
4.01692e-05
4.12708e-05
4.2992e-05
4.17592e-05
3.7171e-05
1.66972e-05
5.63307e-06
1.47987e-06
0
4.27458e-06
2.32743e-05
8.70038e-05
0.00034297
0.000407627
0.00259433
0.00830021
0.0176203
0.0293777
0.0418308
0.0536635
0.0642343
0.0732732
0.0806062
0.0861772
4.00803e-05
4.00903e-05
4.00979e-05
4.01042e-05
4.01098e-05
4.01149e-05
4.01197e-05
4.01245e-05
4.01291e-05
4.01336e-05
4.01385e-05
4.0144e-05
4.01498e-05
4.01569e-05
4.01665e-05
4.01767e-05
4.01691e-05
4.00574e-05
4.00568e-05
4.04763e-05
4.21414e-05
4.34656e-05
4.08951e-05
3.55181e-05
1.85674e-05
5.91236e-06
1.90516e-06
6.52993e-07
0
0
2.98146e-05
0.00018627
0.000871477
0.00156556
0.00674728
0.0155994
0.0271548
0.0397742
0.0520243
0.0629903
0.0723434
4.00743e-05
4.00844e-05
4.0092e-05
4.00981e-05
4.01035e-05
4.01085e-05
4.01133e-05
4.0118e-05
4.01227e-05
4.01272e-05
4.0132e-05
4.01374e-05
4.01434e-05
4.01501e-05
4.01569e-05
4.01666e-05
4.01803e-05
4.01874e-05
4.01195e-05
4.00151e-05
4.02158e-05
4.0893e-05
4.26022e-05
4.37194e-05
4.10701e-05
3.61564e-05
2.53382e-05
8.85703e-06
3.78043e-06
1.16577e-06
0
0
0
0.000105423
0.000566466
0.000641938
0.00462299
0.0120835
0.0224726
0.0344434
0.0466707
4.0069e-05
4.00791e-05
4.00865e-05
4.00925e-05
4.00978e-05
4.01027e-05
4.01075e-05
4.01122e-05
4.01168e-05
4.01215e-05
4.01262e-05
4.01314e-05
4.01373e-05
4.01439e-05
4.01512e-05
4.01586e-05
4.01676e-05
4.01833e-05
4.01932e-05
4.01743e-05
4.00732e-05
4.00237e-05
4.03547e-05
4.12019e-05
4.26915e-05
4.37693e-05
4.22213e-05
3.83266e-05
3.15538e-05
1.6846e-05
5.46809e-06
1.6432e-06
5.60323e-07
0
0
4.0336e-05
0.000301363
8.97306e-05
0.00216635
0.00707299
0.0145978
4.00643e-05
4.00742e-05
4.00814e-05
4.00873e-05
4.00925e-05
4.00974e-05
4.01022e-05
4.01069e-05
4.01116e-05
4.01163e-05
4.0121e-05
4.01261e-05
4.01319e-05
4.01383e-05
4.01455e-05
4.01533e-05
4.01615e-05
4.01702e-05
4.01837e-05
4.02008e-05
4.01985e-05
4.01576e-05
4.00499e-05
4.00352e-05
4.04342e-05
4.12282e-05
4.24509e-05
4.36259e-05
4.32589e-05
4.09307e-05
3.69075e-05
2.53816e-05
8.84084e-06
3.66138e-06
1.05398e-06
0
0
5.27328e-06
0.000124463
0.000477211
0.000397483
4.006e-05
4.00697e-05
4.00767e-05
4.00825e-05
4.00877e-05
4.00927e-05
4.00975e-05
4.01022e-05
4.01069e-05
4.01116e-05
4.01164e-05
4.01214e-05
4.0127e-05
4.01333e-05
4.01403e-05
4.0148e-05
4.01563e-05
4.01649e-05
4.01743e-05
4.01854e-05
4.02025e-05
4.02189e-05
4.02049e-05
4.01451e-05
4.00605e-05
4.00673e-05
4.03993e-05
4.10401e-05
4.1956e-05
4.3346e-05
4.41129e-05
4.26563e-05
4.00205e-05
3.337e-05
1.77838e-05
5.52965e-06
1.68774e-06
6.40456e-07
0
0
2.11771e-05
4.00562e-05
4.00655e-05
4.00724e-05
4.00782e-05
4.00834e-05
4.00884e-05
4.00932e-05
4.00979e-05
4.01026e-05
4.01074e-05
4.01122e-05
4.01171e-05
4.01226e-05
4.01287e-05
4.01355e-05
4.0143e-05
4.01511e-05
4.01597e-05
4.01689e-05
4.01783e-05
4.01891e-05
4.02041e-05
4.0224e-05
4.02364e-05
4.02159e-05
4.01621e-05
4.01029e-05
4.00882e-05
4.02541e-05
4.07154e-05
4.14632e-05
4.26074e-05
4.39546e-05
4.39579e-05
4.14929e-05
3.8297e-05
3.06642e-05
1.18215e-05
4.18368e-06
1.52993e-06
8.22228e-07
4.00526e-05
4.00616e-05
4.00685e-05
4.00743e-05
4.00795e-05
4.00845e-05
4.00894e-05
4.00941e-05
4.00988e-05
4.01035e-05
4.01083e-05
4.01132e-05
4.01185e-05
4.01245e-05
4.0131e-05
4.01383e-05
4.01461e-05
4.01545e-05
4.01635e-05
4.0173e-05
4.01828e-05
4.01935e-05
4.02071e-05
4.02249e-05
4.0244e-05
4.02542e-05
4.02417e-05
4.02048e-05
4.01482e-05
4.00979e-05
4.01564e-05
4.04299e-05
4.09868e-05
4.18923e-05
4.29627e-05
4.38938e-05
4.36698e-05
4.07619e-05
3.66937e-05
3.04246e-05
1.67527e-05
4.00493e-05
4.00581e-05
4.0065e-05
4.00708e-05
4.0076e-05
4.0081e-05
4.00858e-05
4.00906e-05
4.00952e-05
4.00999e-05
4.01047e-05
4.01095e-05
4.01147e-05
4.01205e-05
4.01268e-05
4.01338e-05
4.01413e-05
4.01494e-05
4.0158e-05
4.01672e-05
4.01769e-05
4.01873e-05
4.01982e-05
4.02105e-05
4.02258e-05
4.02438e-05
4.0262e-05
4.02763e-05
4.02751e-05
4.02494e-05
4.02072e-05
4.01526e-05
4.01277e-05
4.02609e-05
4.05844e-05
4.10963e-05
4.19744e-05
4.29148e-05
4.34496e-05
4.3212e-05
4.17304e-05
4.00463e-05
4.0055e-05
4.00618e-05
4.00676e-05
4.00728e-05
4.00778e-05
4.00826e-05
4.00873e-05
4.00919e-05
4.00965e-05
4.01012e-05
4.0106e-05
4.01111e-05
4.01166e-05
4.01228e-05
4.01295e-05
4.01367e-05
4.01444e-05
4.01527e-05
4.01614e-05
4.01706e-05
4.01807e-05
4.01913e-05
4.02023e-05
4.02141e-05
4.02272e-05
4.02423e-05
4.02596e-05
4.02783e-05
4.02944e-05
4.03024e-05
4.02942e-05
4.02637e-05
4.02237e-05
4.01908e-05
4.01904e-05
4.03163e-05
4.06226e-05
4.10457e-05
4.16231e-05
4.23647e-05
4.00436e-05
4.00521e-05
4.00588e-05
4.00646e-05
4.00699e-05
4.00748e-05
4.00795e-05
4.00841e-05
4.00887e-05
4.00932e-05
4.00979e-05
4.01026e-05
4.01075e-05
4.01129e-05
4.01188e-05
4.01252e-05
4.01321e-05
4.01395e-05
4.01474e-05
4.01556e-05
4.01644e-05
4.01738e-05
4.01838e-05
4.01943e-05
4.02053e-05
4.02166e-05
4.02286e-05
4.02413e-05
4.02555e-05
4.02714e-05
4.02885e-05
4.03055e-05
4.03183e-05
4.03216e-05
4.03131e-05
4.02901e-05
4.02579e-05
4.02399e-05
4.02495e-05
4.03284e-05
4.04738e-05
4.00411e-05
4.00494e-05
4.00561e-05
4.00619e-05
4.00671e-05
4.00719e-05
4.00765e-05
4.00811e-05
4.00855e-05
4.009e-05
4.00946e-05
4.00992e-05
4.0104e-05
4.01091e-05
4.01148e-05
4.01209e-05
4.01275e-05
4.01345e-05
4.0142e-05
4.01498e-05
4.01581e-05
4.01669e-05
4.01762e-05
4.01859e-05
4.01961e-05
4.02066e-05
4.02174e-05
4.02285e-05
4.02398e-05
4.02517e-05
4.02642e-05
4.02778e-05
4.02925e-05
4.03072e-05
4.03209e-05
4.03312e-05
4.03344e-05
4.03293e-05
4.03168e-05
4.03001e-05
4.02833e-05
4.00388e-05
4.0047e-05
4.00536e-05
4.00593e-05
4.00644e-05
4.00691e-05
4.00737e-05
4.00781e-05
4.00825e-05
4.00868e-05
4.00913e-05
4.00958e-05
4.01004e-05
4.01054e-05
4.01108e-05
4.01167e-05
4.01229e-05
4.01296e-05
4.01366e-05
4.0144e-05
4.01517e-05
4.016e-05
4.01686e-05
4.01775e-05
4.01868e-05
4.01964e-05
4.02062e-05
4.02162e-05
4.02264e-05
4.02366e-05
4.02468e-05
4.02572e-05
4.02677e-05
4.02787e-05
4.02901e-05
4.03018e-05
4.03132e-05
4.03235e-05
4.03318e-05
4.03357e-05
4.03389e-05
4.00367e-05
4.00448e-05
4.00513e-05
4.00568e-05
4.00618e-05
4.00664e-05
4.00708e-05
4.00751e-05
4.00794e-05
4.00836e-05
4.0088e-05
4.00924e-05
4.00969e-05
4.01017e-05
4.01068e-05
4.01124e-05
4.01183e-05
4.01246e-05
4.01312e-05
4.01381e-05
4.01454e-05
4.01531e-05
4.0161e-05
4.01692e-05
4.01777e-05
4.01863e-05
4.01951e-05
4.02041e-05
4.02131e-05
4.02221e-05
4.02311e-05
4.024e-05
4.02488e-05
4.02574e-05
4.02658e-05
4.02742e-05
4.02826e-05
4.02908e-05
4.0299e-05
4.03064e-05
4.03144e-05
4.00348e-05
4.00427e-05
4.0049e-05
4.00544e-05
4.00592e-05
4.00637e-05
4.0068e-05
4.00722e-05
4.00763e-05
4.00804e-05
4.00846e-05
4.00889e-05
4.00933e-05
4.00979e-05
4.01028e-05
4.01081e-05
4.01137e-05
4.01196e-05
4.01259e-05
4.01323e-05
4.01391e-05
4.01462e-05
4.01535e-05
4.0161e-05
4.01687e-05
4.01765e-05
4.01844e-05
4.01923e-05
4.02002e-05
4.02082e-05
4.0216e-05
4.02237e-05
4.02312e-05
4.02385e-05
4.02456e-05
4.02523e-05
4.02588e-05
4.02649e-05
4.02707e-05
4.02759e-05
4.02816e-05
4.0033e-05
4.00407e-05
4.00469e-05
4.00521e-05
4.00567e-05
4.0061e-05
4.00652e-05
4.00692e-05
4.00732e-05
4.00772e-05
4.00813e-05
4.00854e-05
4.00897e-05
4.00941e-05
4.00988e-05
4.01038e-05
4.01091e-05
4.01147e-05
4.01205e-05
4.01266e-05
4.01329e-05
4.01394e-05
4.01461e-05
4.0153e-05
4.01599e-05
4.0167e-05
4.0174e-05
4.01811e-05
4.01881e-05
4.0195e-05
4.02018e-05
4.02084e-05
4.02148e-05
4.0221e-05
4.02269e-05
4.02326e-05
4.02379e-05
4.02428e-05
4.02474e-05
4.02513e-05
4.02556e-05
4.00314e-05
4.00388e-05
4.00447e-05
4.00497e-05
4.00542e-05
4.00584e-05
4.00624e-05
4.00663e-05
4.00701e-05
4.0074e-05
4.0078e-05
4.0082e-05
4.0086e-05
4.00903e-05
4.00947e-05
4.00995e-05
4.01045e-05
4.01097e-05
4.01152e-05
4.01208e-05
4.01267e-05
4.01327e-05
4.01389e-05
4.01451e-05
4.01514e-05
4.01578e-05
4.01641e-05
4.01703e-05
4.01765e-05
4.01826e-05
4.01885e-05
4.01942e-05
4.01997e-05
4.02049e-05
4.02099e-05
4.02146e-05
4.0219e-05
4.0223e-05
4.02267e-05
4.02298e-05
4.02332e-05
4.00298e-05
4.00369e-05
4.00426e-05
4.00474e-05
4.00517e-05
4.00557e-05
4.00595e-05
4.00633e-05
4.00671e-05
4.00708e-05
4.00746e-05
4.00785e-05
4.00825e-05
4.00865e-05
4.00908e-05
4.00952e-05
4.00999e-05
4.01049e-05
4.011e-05
4.01152e-05
4.01206e-05
4.01262e-05
4.01318e-05
4.01375e-05
4.01432e-05
4.01489e-05
4.01545e-05
4.01601e-05
4.01655e-05
4.01709e-05
4.0176e-05
4.01809e-05
4.01857e-05
4.01901e-05
4.01943e-05
4.01983e-05
4.02019e-05
4.02052e-05
4.02082e-05
4.02107e-05
4.02134e-05
4.00282e-05
4.0035e-05
4.00404e-05
4.0045e-05
4.00491e-05
4.0053e-05
4.00567e-05
4.00604e-05
4.00641e-05
4.00677e-05
4.00714e-05
4.00751e-05
4.00789e-05
4.00828e-05
4.00869e-05
4.00911e-05
4.00955e-05
4.01001e-05
4.01049e-05
4.01097e-05
4.01147e-05
4.01198e-05
4.0125e-05
4.01301e-05
4.01353e-05
4.01404e-05
4.01454e-05
4.01504e-05
4.01552e-05
4.01598e-05
4.01643e-05
4.01686e-05
4.01726e-05
4.01765e-05
4.01801e-05
4.01834e-05
4.01864e-05
4.01891e-05
4.01916e-05
4.01937e-05
4.01958e-05
4.00267e-05
4.0033e-05
4.00381e-05
4.00425e-05
4.00465e-05
4.00503e-05
4.00539e-05
4.00575e-05
4.00611e-05
4.00647e-05
4.00682e-05
4.00719e-05
4.00755e-05
4.00793e-05
4.00831e-05
4.00871e-05
4.00913e-05
4.00956e-05
4.01e-05
4.01045e-05
4.01091e-05
4.01138e-05
4.01184e-05
4.01231e-05
4.01277e-05
4.01323e-05
4.01368e-05
4.01412e-05
4.01454e-05
4.01495e-05
4.01534e-05
4.01571e-05
4.01606e-05
4.01639e-05
4.0167e-05
4.01698e-05
4.01723e-05
4.01746e-05
4.01766e-05
4.01785e-05
4.018e-05
4.00251e-05
4.0031e-05
4.00358e-05
4.004e-05
4.00438e-05
4.00475e-05
4.00511e-05
4.00547e-05
4.00582e-05
4.00617e-05
4.00652e-05
4.00687e-05
4.00722e-05
4.00758e-05
4.00795e-05
4.00833e-05
4.00872e-05
4.00912e-05
4.00953e-05
4.00995e-05
4.01037e-05
4.0108e-05
4.01122e-05
4.01164e-05
4.01206e-05
4.01247e-05
4.01287e-05
4.01326e-05
4.01363e-05
4.01399e-05
4.01433e-05
4.01465e-05
4.01495e-05
4.01524e-05
4.0155e-05
4.01574e-05
4.01595e-05
4.01615e-05
4.01631e-05
4.01647e-05
4.01658e-05
4.00235e-05
4.0029e-05
4.00334e-05
4.00374e-05
4.00411e-05
4.00447e-05
4.00483e-05
4.00518e-05
4.00553e-05
4.00587e-05
4.00622e-05
4.00656e-05
4.00691e-05
4.00725e-05
4.00761e-05
4.00797e-05
4.00833e-05
4.00871e-05
4.00909e-05
4.00947e-05
4.00986e-05
4.01025e-05
4.01063e-05
4.01101e-05
4.01138e-05
4.01175e-05
4.0121e-05
4.01245e-05
4.01277e-05
4.01309e-05
4.01338e-05
4.01366e-05
4.01393e-05
4.01417e-05
4.01439e-05
4.0146e-05
4.01478e-05
4.01495e-05
4.01509e-05
4.01523e-05
4.0153e-05
4.00218e-05
4.00268e-05
4.00309e-05
4.00347e-05
4.00383e-05
4.00419e-05
4.00454e-05
4.00489e-05
4.00523e-05
4.00558e-05
4.00592e-05
4.00626e-05
4.0066e-05
4.00693e-05
4.00727e-05
4.00762e-05
4.00796e-05
4.00831e-05
4.00867e-05
4.00902e-05
4.00938e-05
4.00973e-05
4.01008e-05
4.01042e-05
4.01075e-05
4.01107e-05
4.01139e-05
4.01169e-05
4.01198e-05
4.01225e-05
4.01251e-05
4.01275e-05
4.01297e-05
4.01318e-05
4.01337e-05
4.01354e-05
4.0137e-05
4.01384e-05
4.01395e-05
4.01407e-05
4.01411e-05
4.002e-05
4.00246e-05
4.00284e-05
4.0032e-05
4.00355e-05
4.0039e-05
4.00425e-05
4.00459e-05
4.00494e-05
4.00528e-05
4.00562e-05
4.00596e-05
4.00629e-05
4.00662e-05
4.00695e-05
4.00728e-05
4.00761e-05
4.00794e-05
4.00827e-05
4.00859e-05
4.00892e-05
4.00924e-05
4.00955e-05
4.00986e-05
4.01015e-05
4.01044e-05
4.01071e-05
4.01097e-05
4.01122e-05
4.01146e-05
4.01168e-05
4.01189e-05
4.01208e-05
4.01226e-05
4.01242e-05
4.01257e-05
4.0127e-05
4.01282e-05
4.01292e-05
4.01302e-05
4.01307e-05
4.00181e-05
4.00222e-05
4.00258e-05
4.00292e-05
4.00326e-05
4.0036e-05
4.00394e-05
4.00428e-05
4.00463e-05
4.00497e-05
4.00531e-05
4.00565e-05
4.00598e-05
4.00631e-05
4.00663e-05
4.00695e-05
4.00726e-05
4.00758e-05
4.00788e-05
4.00819e-05
4.00849e-05
4.00878e-05
4.00906e-05
4.00933e-05
4.0096e-05
4.00985e-05
4.01009e-05
4.01031e-05
4.01053e-05
4.01073e-05
4.01091e-05
4.01109e-05
4.01125e-05
4.01139e-05
4.01152e-05
4.01164e-05
4.01175e-05
4.01184e-05
4.01192e-05
4.01199e-05
4.01206e-05
4.0016e-05
4.00197e-05
4.0023e-05
4.00262e-05
4.00295e-05
4.00328e-05
4.00362e-05
4.00396e-05
4.0043e-05
4.00465e-05
4.00499e-05
4.00533e-05
4.00566e-05
4.00598e-05
4.0063e-05
4.00662e-05
4.00692e-05
4.00722e-05
4.00751e-05
4.0078e-05
4.00807e-05
4.00834e-05
4.00859e-05
4.00883e-05
4.00906e-05
4.00928e-05
4.00949e-05
4.00968e-05
4.00986e-05
4.01003e-05
4.01019e-05
4.01034e-05
4.01047e-05
4.01059e-05
4.0107e-05
4.0108e-05
4.01088e-05
4.01096e-05
4.01103e-05
4.0111e-05
4.01118e-05
4.00137e-05
4.00169e-05
4.00199e-05
4.00229e-05
4.0026e-05
4.00292e-05
4.00325e-05
4.00359e-05
4.00393e-05
4.00428e-05
4.00463e-05
4.00497e-05
4.00531e-05
4.00564e-05
4.00595e-05
4.00626e-05
4.00656e-05
4.00685e-05
4.00713e-05
4.0074e-05
4.00765e-05
4.0079e-05
4.00813e-05
4.00834e-05
4.00855e-05
4.00874e-05
4.00891e-05
4.00908e-05
4.00923e-05
4.00937e-05
4.00949e-05
4.00961e-05
4.00971e-05
4.0098e-05
4.00987e-05
4.00994e-05
4.01002e-05
4.0101e-05
4.0102e-05
4.01029e-05
4.0104e-05
4.00112e-05
4.00139e-05
4.00165e-05
4.00192e-05
4.0022e-05
4.0025e-05
4.00282e-05
4.00315e-05
4.0035e-05
4.00385e-05
4.0042e-05
4.00455e-05
4.0049e-05
4.00523e-05
4.00556e-05
4.00587e-05
4.00617e-05
4.00645e-05
4.00672e-05
4.00698e-05
4.00722e-05
4.00745e-05
4.00766e-05
4.00785e-05
4.00803e-05
4.0082e-05
4.00835e-05
4.00848e-05
4.00861e-05
4.00872e-05
4.00882e-05
4.00891e-05
4.00899e-05
4.00906e-05
4.00911e-05
4.00916e-05
4.00922e-05
4.00929e-05
4.00937e-05
4.00944e-05
4.00953e-05
4.00083e-05
4.00104e-05
4.00125e-05
4.00148e-05
4.00172e-05
4.00199e-05
4.00229e-05
4.00261e-05
4.00295e-05
4.0033e-05
4.00366e-05
4.00402e-05
4.00437e-05
4.00471e-05
4.00503e-05
4.00535e-05
4.00564e-05
4.00592e-05
4.00618e-05
4.00642e-05
4.00665e-05
4.00685e-05
4.00704e-05
4.00721e-05
4.00736e-05
4.0075e-05
4.00762e-05
4.00773e-05
4.00782e-05
4.0079e-05
4.00797e-05
4.00802e-05
4.00806e-05
4.00812e-05
4.00818e-05
4.00825e-05
4.00833e-05
4.00842e-05
4.00852e-05
4.00861e-05
4.00873e-05
4.00051e-05
4.00065e-05
4.00079e-05
4.00095e-05
4.00114e-05
4.00135e-05
4.0016e-05
4.00188e-05
4.00219e-05
4.00253e-05
4.00289e-05
4.00326e-05
4.00363e-05
4.00399e-05
4.00432e-05
4.00464e-05
4.00493e-05
4.00522e-05
4.00548e-05
4.00573e-05
4.00596e-05
4.00616e-05
4.00635e-05
4.00651e-05
4.00666e-05
4.00678e-05
4.00689e-05
4.00698e-05
4.00705e-05
4.00711e-05
4.00715e-05
4.00718e-05
4.00722e-05
4.00727e-05
4.00733e-05
4.0074e-05
4.00747e-05
4.00755e-05
4.00764e-05
4.00772e-05
4.00783e-05
4.00017e-05
4.00021e-05
4.00026e-05
4.00033e-05
4.0004e-05
4.0005e-05
4.00062e-05
4.00077e-05
4.00095e-05
4.00116e-05
4.00142e-05
4.00172e-05
4.00207e-05
4.00247e-05
4.0029e-05
4.00338e-05
4.0038e-05
4.00416e-05
4.00445e-05
4.00467e-05
4.00485e-05
4.00497e-05
4.00504e-05
4.00508e-05
4.00508e-05
4.00504e-05
4.005e-05
4.00498e-05
4.005e-05
4.00504e-05
4.0051e-05
4.00518e-05
4.00527e-05
4.00537e-05
4.00549e-05
4.00561e-05
4.00573e-05
4.00587e-05
4.00601e-05
4.00614e-05
4.00631e-05
0.00260635
0.00652859
0.0119735
0.0168305
0.0195544
0.0194348
0.0163172
0.0108016
0.00489417
0.0013974
0.000280334
6.89368e-05
4.3318e-05
4.11845e-05
4.11216e-05
4.11737e-05
4.11986e-05
4.12006e-05
4.11887e-05
4.11672e-05
4.1139e-05
4.11061e-05
4.10706e-05
4.1034e-05
4.09985e-05
4.09652e-05
4.09351e-05
4.09085e-05
4.08845e-05
4.08621e-05
4.08408e-05
4.08206e-05
4.08011e-05
4.07816e-05
4.07614e-05
4.07399e-05
4.07174e-05
4.06938e-05
4.06691e-05
4.06433e-05
4.06164e-05
4.05882e-05
4.05589e-05
4.05286e-05
4.04981e-05
4.04688e-05
4.04424e-05
4.04208e-05
4.04052e-05
4.03931e-05
4.03834e-05
4.03752e-05
4.03677e-05
4.03602e-05
4.03527e-05
4.03448e-05
4.03363e-05
4.03271e-05
4.03171e-05
4.03064e-05
4.02949e-05
4.02828e-05
4.02701e-05
4.0257e-05
4.02436e-05
4.023e-05
4.02163e-05
4.02028e-05
4.01893e-05
4.01763e-05
4.01634e-05
4.01518e-05
4.01402e-05
4.01326e-05
0.00431803
0.00900065
0.0151055
0.0203858
0.0234515
0.0237769
0.0211226
0.0156234
0.00836512
0.00272165
0.000534453
9.33299e-05
4.45792e-05
4.14338e-05
4.1248e-05
4.12607e-05
4.12766e-05
4.1273e-05
4.12554e-05
4.12284e-05
4.1195e-05
4.11574e-05
4.11174e-05
4.10769e-05
4.10377e-05
4.10011e-05
4.0968e-05
4.09393e-05
4.09143e-05
4.08915e-05
4.08692e-05
4.08466e-05
4.08239e-05
4.0801e-05
4.07777e-05
4.07535e-05
4.07281e-05
4.07016e-05
4.06739e-05
4.0645e-05
4.06149e-05
4.05838e-05
4.05517e-05
4.05196e-05
4.04883e-05
4.04596e-05
4.04354e-05
4.04172e-05
4.04047e-05
4.03952e-05
4.03875e-05
4.03808e-05
4.03744e-05
4.03678e-05
4.03609e-05
4.03533e-05
4.03448e-05
4.03355e-05
4.03252e-05
4.03141e-05
4.03021e-05
4.02894e-05
4.02761e-05
4.02623e-05
4.02483e-05
4.02341e-05
4.02198e-05
4.02056e-05
4.01917e-05
4.01783e-05
4.01653e-05
4.01539e-05
4.01426e-05
4.01366e-05
0.00617027
0.0117118
0.018635
0.0244364
0.0279019
0.0287295
0.0267071
0.0216099
0.013714
0.00562017
0.00130913
0.00018985
4.82284e-05
4.14299e-05
4.14128e-05
4.13602e-05
4.13527e-05
4.13422e-05
4.13194e-05
4.12875e-05
4.12494e-05
4.12073e-05
4.11633e-05
4.11198e-05
4.10779e-05
4.10383e-05
4.10019e-05
4.09695e-05
4.09414e-05
4.09169e-05
4.08942e-05
4.08713e-05
4.08469e-05
4.08211e-05
4.07941e-05
4.07662e-05
4.07374e-05
4.07077e-05
4.06768e-05
4.06448e-05
4.06117e-05
4.05778e-05
4.05438e-05
4.05105e-05
4.04794e-05
4.0452e-05
4.04304e-05
4.04154e-05
4.04058e-05
4.03986e-05
4.03927e-05
4.03873e-05
4.03819e-05
4.0376e-05
4.03694e-05
4.0362e-05
4.03535e-05
4.03439e-05
4.03333e-05
4.03217e-05
4.03091e-05
4.02958e-05
4.02818e-05
4.02674e-05
4.02527e-05
4.02378e-05
4.02229e-05
4.02083e-05
4.01939e-05
4.01803e-05
4.01672e-05
4.01561e-05
4.01451e-05
4.01408e-05
0.00881714
0.0147721
0.0225836
0.0289398
0.0328041
0.03412
0.0328025
0.0283783
0.0205687
0.0106319
0.00326885
0.000559074
7.51627e-05
4.06088e-05
4.13977e-05
4.14712e-05
4.14281e-05
4.14075e-05
4.13796e-05
4.13435e-05
4.13012e-05
4.12552e-05
4.12084e-05
4.11629e-05
4.11191e-05
4.1078e-05
4.10404e-05
4.10055e-05
4.0973e-05
4.0943e-05
4.09158e-05
4.08903e-05
4.0865e-05
4.08384e-05
4.08098e-05
4.0779e-05
4.07466e-05
4.07129e-05
4.06782e-05
4.06428e-05
4.06069e-05
4.05709e-05
4.05356e-05
4.05022e-05
4.0472e-05
4.04464e-05
4.04274e-05
4.04152e-05
4.04081e-05
4.0403e-05
4.03986e-05
4.03945e-05
4.03899e-05
4.03845e-05
4.03782e-05
4.03707e-05
4.03621e-05
4.03522e-05
4.03412e-05
4.0329e-05
4.03158e-05
4.03018e-05
4.02872e-05
4.02721e-05
4.02567e-05
4.02412e-05
4.02258e-05
4.02106e-05
4.0196e-05
4.01822e-05
4.01692e-05
4.01584e-05
4.0148e-05
4.01455e-05
0.0122684
0.0183159
0.0270103
0.0338711
0.038093
0.0398534
0.0392302
0.0357042
0.028549
0.0178255
0.00726761
0.00169682
0.00022674
4.50589e-05
4.06588e-05
4.15465e-05
4.14991e-05
4.1466e-05
4.14356e-05
4.1396e-05
4.13504e-05
4.1302e-05
4.12536e-05
4.12055e-05
4.11589e-05
4.11166e-05
4.10791e-05
4.1045e-05
4.10127e-05
4.09803e-05
4.09473e-05
4.09141e-05
4.08817e-05
4.08504e-05
4.08194e-05
4.07875e-05
4.07537e-05
4.07177e-05
4.06799e-05
4.06409e-05
4.0602e-05
4.05638e-05
4.05277e-05
4.04949e-05
4.04662e-05
4.04427e-05
4.04263e-05
4.04163e-05
4.04115e-05
4.04081e-05
4.04051e-05
4.04019e-05
4.0398e-05
4.0393e-05
4.03868e-05
4.03794e-05
4.03705e-05
4.03602e-05
4.03487e-05
4.03359e-05
4.03221e-05
4.03074e-05
4.02921e-05
4.02763e-05
4.02603e-05
4.02442e-05
4.02283e-05
4.02128e-05
4.01979e-05
4.0184e-05
4.01712e-05
4.01608e-05
4.01512e-05
4.01506e-05
0.0166238
0.0227719
0.0319661
0.0391755
0.0436846
0.0458342
0.0458445
0.0433384
0.0372754
0.0268372
0.0139372
0.00447113
0.000819464
9.97299e-05
3.9974e-05
4.13568e-05
4.16055e-05
4.15164e-05
4.14838e-05
4.14448e-05
4.13976e-05
4.13487e-05
4.12983e-05
4.12459e-05
4.11951e-05
4.11487e-05
4.1107e-05
4.10713e-05
4.10412e-05
4.10138e-05
4.09853e-05
4.09527e-05
4.09152e-05
4.08742e-05
4.08326e-05
4.07926e-05
4.07542e-05
4.07164e-05
4.0678e-05
4.06385e-05
4.05984e-05
4.0559e-05
4.05221e-05
4.04896e-05
4.04621e-05
4.04409e-05
4.04266e-05
4.04183e-05
4.04154e-05
4.04136e-05
4.04118e-05
4.04095e-05
4.04061e-05
4.04014e-05
4.03953e-05
4.03876e-05
4.03785e-05
4.03678e-05
4.03557e-05
4.03423e-05
4.03279e-05
4.03125e-05
4.02965e-05
4.02801e-05
4.02635e-05
4.02469e-05
4.02306e-05
4.02147e-05
4.01996e-05
4.01858e-05
4.01733e-05
4.01635e-05
4.01546e-05
4.01561e-05
0.0219169
0.0280343
0.0373782
0.0447395
0.0494439
0.0519277
0.0525019
0.0509886
0.0463293
0.0370677
0.0233055
0.00991279
0.00256121
0.000387969
5.74373e-05
4.05016e-05
4.1725e-05
4.16058e-05
4.15218e-05
4.14871e-05
4.14436e-05
4.13941e-05
4.13399e-05
4.12841e-05
4.12303e-05
4.11777e-05
4.11291e-05
4.10871e-05
4.10504e-05
4.10182e-05
4.09911e-05
4.09676e-05
4.09418e-05
4.09086e-05
4.08664e-05
4.08176e-05
4.07668e-05
4.07178e-05
4.06722e-05
4.063e-05
4.05905e-05
4.0553e-05
4.05183e-05
4.04876e-05
4.04617e-05
4.04419e-05
4.04287e-05
4.04216e-05
4.04194e-05
4.04191e-05
4.04184e-05
4.04168e-05
4.04139e-05
4.04094e-05
4.04032e-05
4.03954e-05
4.03859e-05
4.03748e-05
4.03622e-05
4.03482e-05
4.03331e-05
4.03171e-05
4.03004e-05
4.02834e-05
4.02663e-05
4.02492e-05
4.02325e-05
4.02164e-05
4.02012e-05
4.01875e-05
4.01755e-05
4.01663e-05
4.01584e-05
4.01621e-05
0.0280779
0.0339664
0.0430701
0.0503641
0.0551584
0.0579271
0.059012
0.0583858
0.0552491
0.0478045
0.0347566
0.0186746
0.00657353
0.00141908
0.000194071
4.56774e-05
4.14246e-05
4.18175e-05
4.15943e-05
4.15208e-05
4.14848e-05
4.14361e-05
4.13789e-05
4.13228e-05
4.1268e-05
4.12159e-05
4.11698e-05
4.11254e-05
4.10793e-05
4.10316e-05
4.09845e-05
4.09415e-05
4.09083e-05
4.08853e-05
4.08646e-05
4.08365e-05