/*--------------------------------*- C++ -*----------------------------------*\
| =========                 |                                                 |
| \\      /  F ield         | OpenFOAM: The Open Source CFD Toolbox           |
|  \\    /   O peration     | Version:  2312                                  |
|   \\  /    A nd           | Website:  www.openfoam.com                      |
|    \\/     M anipulation  |                                                 |
\*---------------------------------------------------------------------------*/
FoamFile
{
    version     2.0;
    format      ascii;
    arch        "LSB;label=32;scalar=64";
    class       volScalarField;
    location    "300";
    object      p;
}
// * * * * * * * * * * * * * * * * * * * * * * * * * * * * * * * * * * * * * //

dimensions      [0 2 -2 0 0 0 0];

internalField   nonuniform List<scalar> 
11040
(
-11.5894
-23.8945
-19.7239
-18.2291
-18.2808
-17.9927
-17.6691
-17.3159
-16.9914
-16.7059
-16.4364
-16.1838
-15.9354
-15.6866
-15.4444
-15.2223
-15.0346
-14.891
-14.7525
-14.5648
-14.2183
-13.7443
-13.2908
-12.9717
-12.8128
-12.7497
-12.6889
-12.5241
-12.2675
-12.1532
-12.3706
-12.6033
-12.4836
-11.9668
-11.0942
-9.94875
-8.69454
-7.42705
-6.26493
-5.18579
-4.43994
-3.12646
-12.558
-15.6627
-17.9709
-18.1494
-18.0237
-17.7236
-17.367
-17.0316
-16.7414
-16.4681
-16.2134
-15.9629
-15.7111
-15.4635
-15.2342
-15.0402
-14.8946
-14.7617
-14.5849
-14.2491
-13.7776
-13.3184
-12.9913
-12.8252
-12.7572
-12.6958
-12.5341
-12.2704
-12.1428
-12.3545
-12.6056
-12.5068
-12.011
-11.1569
-10.0248
-8.77766
-7.51126
-6.35305
-5.25753
-4.69352
2.27436
-6.09195
-11.674
-15.7522
-17.5524
-17.8652
-17.7142
-17.406
-17.0672
-16.7736
-16.4961
-16.24
-15.9893
-15.7376
-15.4877
-15.2518
-15.0488
-14.8961
-14.7657
-14.6014
-14.2839
-13.824
-13.3639
-13.0273
-12.849
-12.7713
-12.7064
-12.548
-12.2752
-12.1327
-12.339
-12.6056
-12.5275
-12.0602
-11.2354
-10.1301
-8.90522
-7.65392
-6.50844
-5.39891
-4.8669
5.27917
-1.95801
-8.13395
-12.5053
-15.3945
-16.9564
-17.4903
-17.3291
-17.0912
-16.806
-16.5264
-16.2679
-16.0159
-15.7647
-15.5141
-15.2735
-15.062
-14.9
-14.7697
-14.6168
-14.322
-13.8794
-13.4216
-13.0737
-12.8794
-12.789
-12.718
-12.5625
-12.2843
-12.1355
-12.338
-12.6125
-12.5561
-12.1238
-11.3357
-10.2662
-9.07286
-7.84556
-6.71779
-5.60708
-5.04887
6.96352
1.40833
-4.15906
-8.90525
-12.467
-14.8714
-16.3417
-16.9278
-16.9634
-16.7847
-16.556
-16.2985
-16.0462
-15.794
-15.543
-15.2992
-15.0802
-14.9084
-14.777
-14.6365
-14.3689
-13.9497
-13.4959
-13.1345
-12.9191
-12.8113
-12.7298
-12.5753
-12.3009
-12.1533
-12.3571
-12.6357
-12.6054
-12.2168
-11.4761
-10.4536
-9.30115
-8.10803
-7.0027
-5.91078
-5.30744
7.82726
3.49899
-1.05899
-5.49139
-9.34109
-12.2658
-14.2892
-15.6072
-16.3293
-16.5506
-16.4772
-16.3035
-16.072
-15.8196
-15.5691
-15.3235
-15.0984
-14.9173
-14.7837
-14.6568
-14.4232
-14.0357
-13.5884
-13.209
-12.9659
-12.8345
-12.7363
-12.5808
-12.3225
-12.1863
-12.3989
-12.6794
-12.6807
-12.3456
-11.6658
-10.7047
-9.60551
-8.45847
-7.38311
-6.33308
-5.67592
8.15111
4.73018
1.10207
-2.63956
-6.26043
-9.42251
-11.8947
-13.6567
-14.8779
-15.6777
-16.0702
-16.1398
-16.0262
-15.8288
-15.5875
-15.3418
-15.1141
-14.9257
-14.7893
-14.6759
-14.4832
-14.1387
-13.7034
-13.3007
-13.0204
-12.8551
-12.7321
-12.5731
-12.3429
-12.2387
-12.4695
-12.7525
-12.7929
-12.5217
-11.9198
-11.0374
-10.0074
-8.92016
-7.88562
-6.89766
-6.19056
8.14735
5.39098
2.51556
-0.512061
-3.62469
-6.62191
-9.28446
-11.4324
-13.0205
-14.1596
-14.9811
-15.5079
-15.7255
-15.7025
-15.5529
-15.342
-15.1178
-14.9257
-14.7866
-14.6858
-14.5371
-14.2487
-13.8361
-13.4069
-13.0753
-12.8622
-12.7049
-12.5413
-12.3531
-12.3094
-12.5674
-12.8606
-12.948
-12.753
-12.2462
-11.4639
-10.5212
-9.51181
-8.5316
-7.62327
-6.88301
7.93026
5.66769
3.36613
0.942216
-1.61585
-4.22991
-6.74169
-9.00831
-10.9041
-12.3711
-13.4454
-14.2573
-14.8596
-15.208
-15.3045
-15.2315
-15.0787
-14.9077
-14.7702
-14.6803
-14.5715
-14.3477
-13.9752
-13.5248
-13.1263
-12.8443
-12.6412
-12.4733
-12.3439
-12.388
-12.6851
-13.0051
-13.1513
-13.047
-12.6544
-11.9959
-11.1628
-10.2513
-9.34527
-8.52578
-7.78595
7.57397
5.69383
3.81702
1.87427
-0.194977
-2.36558
-4.56839
-6.68999
-8.63925
-10.3308
-11.6968
-12.7378
-13.5303
-14.1498
-14.589
-14.815
-14.8567
-14.797
-14.7129
-14.6451
-14.5688
-14.4028
-14.0861
-13.6355
-13.1646
-12.7877
-12.5263
-12.3573
-12.3018
-12.4485
-12.8059
-13.175
-13.3999
-13.4016
-13.1459
-12.6344
-11.9399
-11.1464
-10.3403
-9.61362
-8.91508
7.13483
5.54613
3.99784
2.42107
0.753568
-1.0128
-2.85778
-4.72378
-6.53374
-8.21887
-9.72701
-11.0063
-12.0231
-12.8003
-13.4083
-13.8939
-14.2349
-14.4168
-14.4868
-14.511
-14.4943
-14.3822
-14.1182
-13.6883
-13.1659
-12.6886
-12.3555
-12.1889
-12.2054
-12.4616
-12.896
-13.3456
-13.6648
-13.7954
-13.6898
-13.3557
-12.8227
-12.1804
-11.4935
-10.8736
-10.2475
6.64345
5.28916
3.99333
2.69968
1.34546
-0.0866141
-1.59615
-3.16812
-4.75809
-6.30729
-7.76698
-9.10497
-10.2915
-11.2784
-12.0517
-12.6549
-13.1561
-13.5793
-13.8968
-14.1065
-14.2159
-14.2049
-14.0164
-13.6268
-13.0938
-12.5485
-12.1464
-11.9637
-12.043
-12.3941
-12.923
-13.4644
-13.9
-14.1618
-14.2266
-14.0761
-13.7447
-13.2719
-12.7443
-12.2327
-11.7256
6.12553
4.96294
3.86728
2.79329
1.68375
0.516364
-0.711068
-2.00124
-3.34202
-4.69815
-6.02495
-7.29002
-8.47274
-9.55137
-10.4952
-11.2697
-11.8841
-12.3914
-12.846
-13.2432
-13.535
-13.6741
-13.6249
-13.348
-12.882
-12.3396
-11.8982
-11.693
-11.8164
-12.2384
-12.8486
-13.482
-14.0344
-14.4326
-14.6629
-14.705
-14.5812
-14.3124
-13.9618
-13.5936
-13.2199
5.59857
4.59661
3.66403
2.76422
1.84684
0.889245
-0.111797
-1.1625
-2.2648
-3.40751
-4.5616
-5.69901
-6.79543
-7.83303
-8.79899
-9.67616
-10.4353
-11.0574
-11.5618
-11.9961
-12.3766
-12.6409
-12.7362
-12.6447
-12.3492
-11.9315
-11.5428
-11.3763
-11.5312
-12.0006
-12.6467
-13.3545
-13.9926
-14.5227
-14.8905
-15.1197
-15.1824
-15.1344
-14.9731
-14.7888
-14.5757
5.07567
4.21103
3.41438
2.65606
1.89219
1.10176
0.281363
-0.575401
-1.47259
-2.41324
-3.38241
-4.36387
-5.3375
-6.28375
-7.18624
-8.03604
-8.82462
-9.53508
-10.1421
-10.63
-11.0158
-11.2866
-11.4325
-11.4674
-11.3775
-11.1691
-10.947
-10.8831
-11.1127
-11.617
-12.2867
-13.0059
-13.6964
-14.2919
-14.7721
-15.1234
-15.3624
-15.4899
-15.5418
-15.5433
-15.5507
4.56884
3.82309
3.14168
2.50036
1.86129
1.20554
0.530835
-0.170469
-0.90006
-1.66551
-2.46175
-3.28188
-4.11263
-4.94093
-5.7501
-6.52716
-7.26262
-7.9509
-8.58447
-9.14418
-9.60505
-9.93238
-10.1246
-10.217
-10.2401
-10.2066
-10.1578
-10.1749
-10.3902
-10.8611
-11.5303
-12.2608
-12.9664
-13.5852
-14.107
-14.5198
-14.854
-15.1109
-15.3214
-15.5014
-15.7172
4.09097
3.44922
2.86694
2.32389
1.78774
1.24198
0.685363
0.110198
-0.484426
-1.10547
-1.75233
-2.42447
-3.11352
-3.81257
-4.50965
-5.19434
-5.8545
-6.48096
-7.0674
-7.60858
-8.09637
-8.50482
-8.82066
-9.04101
-9.18407
-9.27394
-9.35091
-9.43954
-9.59572
-9.86831
-10.3047
-10.8664
-11.4885
-12.0786
-12.6017
-13.0299
-13.3922
-13.6945
-13.9721
-14.2487
-14.5877
3.66729
3.11236
2.61228
2.14917
1.69476
1.23569
0.770953
0.293959
-0.196689
-0.705675
-1.2336
-1.78363
-2.3508
-2.93149
-3.51751
-4.10223
-4.67627
-5.23105
-5.75831
-6.25122
-6.70551
-7.10448
-7.44912
-7.7405
-7.98185
-8.17396
-8.33726
-8.4849
-8.64322
-8.81712
-9.03079
-9.29077
-9.61801
-9.98814
-10.3776
-10.741
-11.0718
-11.3584
-11.6205
-11.8821
-12.2072
3.30524
2.82144
2.38823
1.98919
1.59944
1.20833
0.814924
0.413689
0.00301062
-0.420817
-0.857877
-1.31228
-1.78164
-2.26404
-2.75392
-3.24683
-3.73613
-4.21563
-4.67853
-5.11753
-5.52661
-5.88765
-6.2002
-6.47198
-6.71258
-6.92395
-7.11612
-7.28963
-7.45546
-7.60982
-7.75938
-7.89275
-8.01486
-8.12746
-8.25554
-8.41071
-8.60334
-8.81889
-9.03985
-9.26469
-9.52863
2.99483
2.57149
2.19344
1.84734
1.50981
1.17353
0.836758
0.495557
0.147715
-0.209475
-0.575773
-0.954562
-1.34567
-1.74784
-2.15741
-2.57107
-2.98422
-3.39203
-3.78971
-4.17154
-4.53309
-4.8584
-5.14386
-5.39373
-5.6134
-5.80426
-5.97481
-6.12756
-6.26948
-6.39834
-6.51501
-6.61218
-6.68548
-6.72769
-6.73638
-6.71905
-6.69761
-6.70542
-6.75716
-6.86717
-7.04361
2.72753
2.35378
2.02384
1.7208
1.42784
1.13577
0.846165
0.552944
0.256569
-0.0474623
-0.356681
-0.67539
-1.00255
-1.33921
-1.68133
-2.02784
-2.37434
-2.71791
-3.05433
-3.37919
-3.68923
-3.97071
-4.22072
-4.44151
-4.63672
-4.80476
-4.95076
-5.07532
-5.18384
-5.27683
-5.35677
-5.42284
-5.473
-5.50629
-5.51644
-5.50307
-5.45885
-5.3939
-5.30963
-5.22851
-5.16062
2.4929
2.16427
1.87368
1.60911
1.35219
1.09893
0.84721
0.595261
0.340088
0.0811372
-0.182671
-0.451328
-0.726927
-1.00842
-1.29492
-1.58396
-1.87341
-2.16025
-2.44138
-2.71356
-2.9731
-3.20975
-3.41863
-3.60413
-3.76618
-3.90614
-4.02408
-4.1224
-4.20158
-4.26347
-4.30884
-4.33918
-4.35637
-4.36008
-4.35164
-4.32733
-4.28709
-4.22589
-4.14473
-4.03467
-3.90112
2.28778
1.99681
1.7412
1.50843
1.28337
1.06204
0.843262
0.625077
0.405306
0.183205
-0.0419374
-0.269832
-0.502034
-0.738212
-0.977603
-1.21841
-1.4588
-1.69655
-1.92909
-2.15382
-2.36768
-2.56194
-2.73217
-2.88182
-3.01076
-3.11972
-3.20846
-3.27863
-3.33069
-3.36563
-3.38399
-3.38597
-3.373
-3.34466
-3.30352
-3.24795
-3.18064
-3.09793
-3.0052
-2.89203
-2.77239
2.10494
1.84866
1.62241
1.41782
1.21955
1.02613
0.834987
0.645884
0.455748
0.265035
0.0722523
-0.121404
-0.317628
-0.515613
-0.715372
-0.915111
-1.11373
-1.30921
-1.49956
-1.68261
-1.85569
-2.01169
-2.14646
-2.26306
-2.36108
-2.4411
-2.50258
-2.5468
-2.57416
-2.58539
-2.58117
-2.56123
-2.52669
-2.4768
-2.41356
-2.33527
-2.24443
-2.13934
-2.02561
-1.89464
-1.76104
1.94339
1.71543
1.51595
1.33487
1.16064
0.990457
0.823759
0.658825
0.494545
0.329918
0.165071
-0.000263265
-0.165859
-0.331982
-0.497994
-0.663227
-0.826337
-0.985825
-1.14007
-1.28697
-1.42483
-1.54696
-1.65073
-1.73771
-1.80868
-1.863
-1.9011
-1.92304
-1.92986
-1.92186
-1.8995
-1.8632
-1.81302
-1.74977
-1.67328
-1.58432
-1.48198
-1.36713
-1.24053
-1.09881
-0.949172
1.79769
1.59637
1.41925
1.25904
1.10508
0.95539
0.809248
0.665388
0.522788
0.380724
0.239286
0.0983031
-0.0417335
-0.180922
-0.318891
-0.455079
-0.588445
-0.717659
-0.841467
-0.958042
-1.06608
-1.15996
-1.23758
-1.30018
-1.34873
-1.3826
-1.40233
-1.40795
-1.40029
-1.37964
-1.34656
-1.30139
-1.24446
-1.17644
-1.09754
-1.00813
-0.908355
-0.798752
-0.680805
-0.551981
-0.418622
1.66754
1.48808
1.33137
1.1888
1.05263
0.920415
0.792073
0.66616
0.542131
0.419254
0.297698
0.177403
0.0587535
-0.0579836
-0.172659
-0.284497
-0.393181
-0.497106
-0.595851
-0.687249
-0.771084
-0.84193
-0.8988
-0.942102
-0.973564
-0.99207
-0.998726
-0.992923
-0.976167
-0.948096
-0.910015
-0.861632
-0.804253
-0.737699
-0.663408
-0.581155
-0.492197
-0.396397
-0.296204
-0.188764
-0.0810518
1.54911
1.39051
1.25034
1.12366
1.00254
0.885609
0.772332
0.661933
0.553625
0.447109
0.342351
0.239453
0.138726
0.0405171
-0.0546112
-0.146507
-0.23451
-0.318048
-0.395914
-0.467441
-0.531292
-0.584349
-0.624389
-0.65338
-0.67129
-0.679101
-0.676228
-0.663777
-0.641596
-0.610982
-0.571779
-0.525268
-0.471419
-0.411404
-0.345308
-0.274146
-0.198
-0.11774
-0.0345789
0.0535078
0.140545
1.4425
1.30071
1.17619
1.06276
0.954714
0.850748
0.7504
0.653115
0.558155
0.465398
0.374741
0.286394
0.200503
0.117645
0.0384552
-0.0370856
-0.108543
-0.175601
-0.237241
-0.292943
-0.341677
-0.381116
-0.409184
-0.427873
-0.437294
-0.438373
-0.430471
-0.414921
-0.391471
-0.361465
-0.324684
-0.282403
-0.23434
-0.18184
-0.124754
-0.0642178
-1.0211e-05
0.0669267
0.135787
0.208438
0.279553
1.34513
1.21945
1.10735
1.00583
0.908909
0.815924
0.726645
0.640313
0.55675
0.475347
0.396628
0.320155
0.246745
0.176247
0.11012
0.0474147
-0.0106945
-0.0650077
-0.113669
-0.157514
-0.194772
-0.224509
-0.244074
-0.256095
-0.259873
-0.257189
-0.246867
-0.230687
-0.207755
-0.180022
-0.146564
-0.109285
-0.0673222
-0.0224699
0.0260347
0.0766516
0.130136
0.185303
0.241938
0.301445
0.359237
1.25701
1.14414
1.04407
0.952164
0.864913
0.781331
0.701275
0.624335
0.550085
0.478419
0.409287
0.342963
0.279372
0.219314
0.163055
0.11102
0.062783
0.0190563
-0.0204375
-0.0547352
-0.0842243
-0.106348
-0.120784
-0.127818
-0.129047
-0.124006
-0.11379
-0.0978433
-0.0775968
-0.0525814
-0.024258
0.00794205
0.0426447
0.0804144
0.119954
0.161919
0.205203
0.250498
0.296071
0.344764
0.391002
1.17629
1.07573
0.984848
0.901887
0.822722
0.746988
0.674766
0.605513
0.539142
0.475319
0.414216
0.355893
0.300463
0.248428
0.200104
0.156007
0.115649
0.0794294
0.047068
0.0193907
-0.00424023
-0.0215818
-0.0324881
-0.0370903
-0.0370197
-0.0316777
-0.0223094
-0.00826199
0.00898813
0.0300299
0.0535076
0.0800856
0.10851
0.139418
0.171599
0.205756
0.240864
0.277678
0.314552
0.354226
0.391448
1.10303
1.01222
0.930318
0.854363
0.78217
0.713188
0.647239
0.584621
0.52443
0.467293
0.412408
0.360822
0.311592
0.266081
0.223629
0.185813
0.151102
0.120743
0.0933398
0.0704432
0.0505388
0.0363303
0.0271412
0.0236677
0.0236811
0.0282606
0.0357551
0.04732
0.0611859
0.0783682
0.0972669
0.118863
0.141737
0.166774
0.192666
0.220294
0.248578
0.2784
0.308151
0.340496
0.37048
1.03595
0.954345
0.879163
0.809753
0.74324
0.679751
0.619303
0.561789
0.507041
0.454881
0.405469
0.358705
0.314898
0.273888
0.236509
0.20276
0.172841
0.145982
0.122634
0.102281
0.0854197
0.072366
0.0645692
0.0605238
0.0603999
0.063021
0.0691106
0.0775005
0.0887804
0.101766
0.117096
0.133733
0.15232
0.171868
0.192967
0.214802
0.23797
0.261816
0.286318
0.312594
0.337304
0.975041
0.900706
0.832016
0.767473
0.705988
0.647054
0.59103
0.537769
0.487273
0.43928
0.394013
0.351274
0.311434
0.274164
0.240314
0.209846
0.183009
0.158925
0.138045
0.119722
0.104389
0.0921895
0.0845211
0.0799847
0.0788385
0.0799596
0.0839929
0.0898803
0.0982211
0.107999
0.119802
0.132715
0.147327
0.162781
0.179607
0.197098
0.215788
0.235111
0.255042
0.276616
0.296754
0.919448
0.851813
0.787941
0.727984
0.670365
0.615302
0.562724
0.513012
0.465789
0.42121
0.379114
0.339595
0.302727
0.268384
0.237131
0.209028
0.184258
0.162049
0.142645
0.125457
0.110821
0.0988034
0.0906402
0.0851698
0.0826215
0.0819767
0.0838331
0.0873156
0.0929568
0.099875
0.108609
0.118356
0.129636
0.141713
0.155077
0.169099
0.184239
0.200023
0.216425
0.234378
0.25105
0.869105
0.806769
0.747403
0.690791
0.636596
0.584437
0.534919
0.487684
0.443383
0.401154
0.361838
0.324514
0.290199
0.257841
0.22874
0.202111
0.17898
0.157878
0.139693
0.123133
0.109107
0.0970716
0.0886864
0.0824142
0.0789317
0.0769573
0.0773527
0.079021
0.0827315
0.0874552
0.0939022
0.101151
0.109883
0.119264
0.129894
0.141062
0.153331
0.166143
0.179595
0.194417
0.208141
0.823475
0.765824
0.709801
0.656161
0.604498
0.554857
0.50745
0.462536
0.420108
0.380148
0.34252
0.307364
0.274485
0.244099
0.216027
0.190888
0.16827
0.148284
0.130136
0.114198
0.0996615
0.0876559
0.0780134
0.0710524
0.0657604
0.0625985
0.0608088
0.0609321
0.0622161
0.0651615
0.0690734
0.0744427
0.0806291
0.0880891
0.096221
0.10548
0.115316
0.126215
0.137301
0.150133
0.161639
0.782374
0.728391
0.675236
0.623787
0.574174
0.526442
0.48078
0.437557
0.396706
0.358328
0.322202
0.288518
0.257002
0.227919
0.200993
0.176828
0.155037
0.135803
0.11829
0.102863
0.0887506
0.076988
0.0673019
0.0600499
0.0543455
0.050602
0.0481277
0.0473876
0.0477204
0.0495458
0.0522604
0.0562736
0.0610405
0.0669384
0.0734611
0.0809839
0.089041
0.0980373
0.107225
0.117952
0.127497
0.745471
0.694428
0.643369
0.59357
0.545471
0.499146
0.454942
0.412921
0.373416
0.33619
0.301315
0.26871
0.238287
0.210116
0.183951
0.160248
0.138756
0.119564
0.101945
0.0862055
0.0716305
0.0590912
0.0484164
0.0399512
0.032966
0.0278245
0.0239388
0.0217183
0.0206013
0.0209568
0.0222597
0.0248646
0.0282875
0.0328648
0.0381344
0.0444305
0.0513173
0.0591673
0.0672826
0.0768432
0.085448
0.712792
0.664009
0.614377
0.565661
0.51841
0.473072
0.429652
0.3888
0.350113
0.314117
0.28011
0.24867
0.219079
0.192018
0.16674
0.144124
0.123516
0.105393
0.0887504
0.0741364
0.0606503
0.0492642
0.0395287
0.0319143
0.025628
0.0210844
0.0176342
0.0156928
0.0146895
0.0149773
0.0160412
0.0182054
0.0210226
0.0247937
0.0291071
0.0342559
0.0398594
0.046248
0.0528234
0.0606083
0.0675088
0.684366
0.637312
0.588882
0.540642
0.493822
0.448718
0.405771
0.365176
0.327203
0.291794
0.258862
0.228137
0.199566
0.172854
0.148096
0.12518
0.104518
0.0856689
0.0686763
0.0530295
0.0389042
0.0261542
0.0153441
0.0060393
-0.00154607
-0.00787482
-0.0126881
-0.0163512
-0.0186247
-0.0198705
-0.0198875
-0.0190079
-0.0170429
-0.014304
-0.0106246
-0.00628086
-0.0011151
0.00465293
0.0109904
0.0182474
0.0251412
0.658952
0.61322
0.565456
0.518024
0.471555
0.426783
0.383952
0.34347
0.305573
0.270323
0.23779
0.207793
0.180397
0.155287
0.132455
0.111608
0.0930019
0.0762107
0.0613539
0.0479959
0.0362777
0.0260588
0.0177055
0.0107645
0.00536258
0.00110158
-0.00188648
-0.00391775
-0.00487444
-0.00504176
-0.00431949
-0.00296267
-0.000869263
0.00173483
0.00494894
0.00857581
0.0127106
0.0172198
0.0220521
0.0275555
0.0325933
0.634931
0.588575
0.540856
0.493355
0.44767
0.403787
0.362121
0.322589
0.285509
0.250803
0.218491
0.188395
0.160555
0.134756
0.111129
0.0894932
0.0700416
0.0522879
0.0361667
0.0212252
0.00760878
-0.0048116
-0.0156767
-0.0252255
-0.033321
-0.0401994
-0.0457497
-0.0501577
-0.053339
-0.0554829
-0.0565317
-0.0566652
-0.0558333
-0.0542198
-0.0517797
-0.0486832
-0.0448822
-0.040519
-0.0356473
-0.0300626
-0.0245959
0.61466
0.566628
0.516447
0.467225
0.420003
0.375808
0.334522
0.296424
0.261268
0.228849
0.198963
0.17137
0.14607
0.122898
0.101868
0.0828444
0.0661006
0.0515333
0.039136
0.0285414
0.0196243
0.0122306
0.00634733
0.00173859
-0.00164928
-0.00404877
-0.00550527
-0.00620891
-0.00617309
-0.00556378
-0.00437961
-0.00277187
-0.000720157
0.0016428
0.00434767
0.00727425
0.010454
0.0138141
0.0173012
0.0211481
0.0246081
0.607471
0.560178
0.50905
0.4567
0.405759
0.357172
0.312094
0.270837
0.23375
0.200668
0.171144
0.14469
0.120697
0.0986521
0.0781869
0.0590145
0.0410249
0.0240407
0.00810622
-0.00682279
-0.020668
-0.0334162
-0.0449504
-0.0553167
-0.0644907
-0.0725551
-0.0794905
-0.0853667
-0.0901609
-0.0939713
-0.0967762
-0.0986958
-0.0997005
-0.0999369
-0.0993663
-0.0981511
-0.0962413
-0.0937979
-0.0908092
-0.0872815
-0.0835751
0.608815
0.566806
0.520125
0.470938
0.420992
0.371569
0.323652
0.278158
0.235843
0.196976
0.162089
0.131089
0.104402
0.0815875
0.0627592
0.0471574
0.0349089
0.0253637
0.0183079
0.0130448
0.00944842
0.00718379
0.00614298
0.00605293
0.0067929
0.00818973
0.0100949
0.0124335
0.0150557
0.0179697
0.0210176
0.0242641
0.0275462
0.0309648
0.0343503
0.0378306
0.0412305
0.0446978
0.048016
0.0514803
0.0545594
0.579401
0.530148
0.481419
0.434729
0.390759
0.349573
0.311067
0.275124
0.241526
0.210054
0.180356
0.152269
0.125426
0.0998862
0.0754066
0.0524258
0.0307054
0.0104856
-0.00861643
-0.0263772
-0.0431686
-0.0587507
-0.0734467
-0.0869956
-0.0996933
-0.111312
-0.122091
-0.131817
-0.140718
-0.148611
-0.155717
-0.161876
-0.167308
-0.171872
-0.175795
-0.17894
-0.181544
-0.183472
-0.184981
-0.185872
-0.186504
-1.25757
-2.24148
-3.12098
-4.71138
-7.27147
-9.4632
-11.5383
-13.569
-15.1489
-15.7831
-16.1968
-15.9945
-15.7562
-15.2901
-14.5208
-13.8612
-12.9155
-12.0654
-11.0299
-10.1167
-9.1208
-8.23451
-7.37584
-6.59473
-5.87758
-5.23812
-4.66586
-4.15804
-3.71786
-3.32795
-2.9973
-2.70104
-2.45445
-2.23221
-2.03832
-1.86953
-1.71653
-1.58077
-1.45538
-1.34426
-1.23834
-1.14062
-1.05034
-0.965063
-0.884478
-0.807226
-0.735926
-0.665439
-0.598667
-0.536342
-0.475035
-0.416536
-0.361811
-0.308517
-0.257471
-0.209877
-0.160746
-0.122167
-0.0788766
-0.0468452
-0.0103745
0.0135281
0.0435835
0.0614953
0.0743405
0.0907102
0.0907055
0.0996311
0.0906791
0.0868387
0.060674
0.0679181
-0.00550407
0.0711895
-1.84714
-2.64559
-3.48165
-4.88368
-7.14801
-9.12101
-11.0912
-13.2374
-15.0288
-15.8117
-16.1765
-15.9493
-15.6514
-15.1528
-14.4054
-13.7509
-12.841
-12.0041
-11.0023
-10.0965
-9.12062
-8.24004
-7.38924
-6.61222
-5.8983
-5.26069
-4.68905
-4.18232
-3.74182
-3.35267
-3.0208
-2.72576
-2.47837
-2.25672
-2.06341
-1.89462
-1.74214
-1.60657
-1.48143
-1.37022
-1.26445
-1.16679
-1.0761
-0.990676
-0.909518
-0.831993
-0.760127
-0.688965
-0.621524
-0.558584
-0.496385
-0.437085
-0.381396
-0.327129
-0.27519
-0.226003
-0.176205
-0.136047
-0.0919497
-0.0582959
-0.0211239
0.004779
0.0355223
0.0544626
0.0687841
0.0856769
0.0873423
0.0966485
0.0885706
0.0851274
0.0598467
0.0670768
-0.00576515
0.0704823
-2.34677
-3.0423
-3.90917
-5.13613
-7.12294
-8.91117
-10.7371
-12.8917
-14.9027
-15.914
-16.2889
-16.0231
-15.6457
-15.0981
-14.3486
-13.6818
-12.7926
-11.9592
-10.9807
-10.0779
-9.1179
-8.24131
-7.39698
-6.62346
-5.91214
-5.2761
-4.70597
-4.20031
-3.75989
-3.37143
-3.03938
-2.74548
-2.498
-2.27719
-2.08463
-1.91622
-1.76443
-1.62926
-1.50453
-1.39352
-1.28802
-1.19049
-1.09974
-1.01413
-0.932747
-0.854902
-0.782507
-0.710986
-0.642985
-0.579374
-0.51651
-0.456446
-0.399892
-0.344701
-0.291753
-0.24144
-0.190828
-0.149299
-0.104319
-0.0692613
-0.0312026
-0.00371875
0.0277364
0.0477752
0.0633681
0.0809172
0.0839561
0.0936749
0.0864711
0.0834193
0.0589847
0.066151
-0.00602125
0.0697496
-2.94305
-3.5088
-4.39187
-5.48482
-7.24337
-8.91228
-10.6181
-12.6819
-14.8177
-16.0896
-16.5518
-16.2518
-15.7777
-15.1604
-14.3812
-13.6784
-12.79
-11.9446
-10.9755
-10.0681
-9.11711
-8.24055
-7.40001
-6.62788
-5.91838
-5.28304
-4.71524
-4.21068
-3.77082
-3.38323
-3.0519
-2.75925
-2.51227
-2.29254
-2.101
-1.93333
-1.78243
-1.64795
-1.52382
-1.41325
-1.30822
-1.21103
-1.12047
-1.03477
-0.953507
-0.875424
-0.802646
-0.731045
-0.662621
-0.598406
-0.535124
-0.474361
-0.417103
-0.361079
-0.307117
-0.256084
-0.204567
-0.161894
-0.115994
-0.0797447
-0.0406851
-0.0120073
0.0201765
0.0413659
0.0580485
0.076349
0.0805082
0.0906605
0.0843292
0.0816999
0.0580332
0.0651416
-0.00631847
0.0689777
-3.66496
-4.06531
-4.91953
-5.89479
-7.44293
-9.02677
-10.6741
-12.6307
-14.7772
-16.2891
-16.9201
-16.6344
-16.0596
-15.3505
-14.5122
-13.7504
-12.8397
-11.9674
-10.9928
-10.072
-9.12199
-8.24106
-7.40091
-6.62838
-5.91934
-5.28461
-4.71844
-4.21508
-3.77618
-3.39003
-3.05976
-2.76879
-2.52266
-2.3044
-2.11425
-1.94752
-1.79774
-1.66415
-1.54094
-1.4308
-1.32643
-1.2298
-1.13947
-1.05387
-0.972705
-0.894506
-0.8215
-0.749771
-0.680989
-0.616277
-0.552602
-0.491208
-0.433293
-0.376505
-0.321631
-0.269887
-0.217498
-0.173755
-0.126976
-0.0896139
-0.0496021
-0.0198302
0.0130433
0.035383
0.0530344
0.0720851
0.0772242
0.0877793
0.0822827
0.0800622
0.0570924
0.0640733
-0.00660412
0.0681204
-4.49255
-4.7412
-5.52841
-6.3991
-7.74999
-9.25676
-10.9018
-12.7913
-14.8843
-16.5525
-17.3888
-17.1825
-16.517
-15.6866
-14.7581
-13.9068
-12.9497
-12.0295
-11.0341
-10.0892
-9.13151
-8.24079
-7.39731
-6.62183
-5.91235
-5.27768
-4.71304
-4.21123
-3.7738
-3.3898
-3.06112
-2.77242
-2.52762
-2.3113
-2.12308
-1.95759
-1.80928
-1.67686
-1.55498
-1.4454
-1.34196
-1.24612
-1.15616
-1.07097
-0.989932
-0.911858
-0.838801
-0.766992
-0.697983
-0.632952
-0.568932
-0.507014
-0.448541
-0.391095
-0.335475
-0.282976
-0.229828
-0.185058
-0.137511
-0.0990518
-0.0582331
-0.0273505
0.00614282
0.0295939
0.0481977
0.0679033
0.0740226
0.084939
0.0802706
0.0784542
0.0561481
0.0629917
-0.00687964
0.0672359
-5.41058
-5.55131
-6.23422
-7.00536
-8.17505
-9.59896
-11.2602
-13.1494
-15.2055
-16.9575
-17.9805
-17.9137
-17.1823
-16.202
-15.1412
-14.1628
-13.1271
-12.1355
-11.1009
-10.119
-9.14416
-8.23793
-7.38695
-6.60676
-5.89564
-5.26103
-4.69737
-4.19754
-3.76225
-3.38119
-3.05474
-2.769
-2.5262
-2.31252
-2.12666
-1.96296
-1.8166
-1.68579
-1.56554
-1.4569
-1.35464
-1.25981
-1.17048
-1.08584
-1.00513
-0.927345
-0.854352
-0.782623
-0.713553
-0.6483
-0.584014
-0.521687
-0.462727
-0.404719
-0.348438
-0.295217
-0.241427
-0.195681
-0.147461
-0.10795
-0.0664226
-0.0344292
-0.000397092
0.0241089
0.0436094
0.0638977
0.070997
0.0822202
0.0783435
0.0769023
0.0552566
0.0618834
-0.00708918
0.0663213
-6.41612
-6.49331
-7.05471
-7.73144
-8.74892
-10.089
-11.755
-13.7013
-15.782
-17.6109
-18.7778
-18.8714
-18.1084
-16.9531
-15.706
-14.5484
-13.3904
-12.2947
-11.1968
-10.1616
-9.15768
-8.22859
-7.36529
-6.57777
-5.86415
-5.2294
-4.66727
-4.17017
-3.73795
-3.36079
-3.03765
-2.75579
-2.51587
-2.30565
-2.12277
-1.9616
-1.81774
-1.68914
-1.57096
-1.46373
-1.36299
-1.26951
-1.1812
-1.09732
-1.01729
-0.940046
-0.867323
-0.795951
-0.727062
-0.661738
-0.597391
-0.534821
-0.475532
-0.417105
-0.360281
-0.3065
-0.252186
-0.205577
-0.156786
-0.116313
-0.0741595
-0.0411351
-0.0066594
0.0188371
0.0391812
0.0599735
0.0680418
0.0795201
0.0764184
0.0753282
0.0543324
0.0607434
-0.00730186
0.0653876
-7.52186
-7.5679
-8.00601
-8.59196
-9.48559
-10.7438
-12.3922
-14.4073
-16.575
-18.5342
-19.8495
-20.0995
-19.3325
-17.9901
-16.4931
-15.0927
-13.7556
-12.517
-11.3254
-10.2177
-9.17049
-8.21022
-7.3293
-6.53223
-5.81539
-5.18065
-4.62064
-4.12747
-3.69965
-3.32771
-3.00907
-2.73217
-2.49625
-2.29029
-2.11117
-1.95332
-1.81268
-1.68682
-1.57121
-1.46593
-1.36716
-1.27533
-1.18838
-1.10555
-1.02651
-0.95004
-0.877832
-0.807023
-0.738528
-0.673277
-0.609041
-0.546376
-0.486885
-0.428169
-0.370923
-0.316685
-0.261973
-0.214596
-0.16535
-0.124002
-0.0813185
-0.0473411
-0.0125159
0.0139157
0.0350151
0.0562512
0.0652473
0.0769135
0.07454
0.0737758
0.0534185
0.0595303
-0.00748425
0.0643926
-8.75165
-8.7815
-9.11093
-9.61414
-10.4089
-11.5919
-13.208
-15.2619
-17.5595
-19.7051
-21.238
-21.6637
-20.9114
-19.3723
-17.5613
-15.8373
-14.2485
-12.8149
-11.491
-10.2864
-9.17858
-8.17717
-7.27247
-6.46288
-5.74202
-5.10772
-4.55128
-4.06384
-3.64219
-3.27732
-2.96498
-2.69468
-2.46422
-2.26372
-2.08942
-1.93591
-1.79932
-1.67692
-1.5646
-1.4619
-1.36563
-1.2759
-1.19074
-1.1094
-1.03173
-0.956396
-0.885043
-0.815077
-0.74725
-0.682307
-0.618442
-0.55589
-0.496398
-0.437586
-0.380104
-0.325586
-0.270623
-0.222633
-0.173042
-0.130961
-0.0878487
-0.0530375
-0.0179647
0.00933641
0.0311066
0.0527053
0.06257
0.0743644
0.072696
0.0722248
0.0524706
0.0582838
-0.00768517
0.0633555
-10.1203
-10.1378
-10.3987
-10.8344
-11.5631
-12.6798
-14.2503
-16.3113
-18.7149
-21.0753
-22.8961
-23.579
-22.8812
-21.1396
-18.9535
-16.8145
-14.8863
-13.1939
-11.6916
-10.3612
-9.17403
-8.12097
-7.18693
-6.36261
-5.63759
-5.00494
-4.45402
-3.97481
-3.562
-3.20664
-2.90289
-2.64127
-2.41808
-2.22457
-2.05642
-1.90852
-1.77698
-1.65898
-1.55073
-1.45142
-1.35827
-1.27114
-1.18826
-1.10889
-1.03299
-0.959172
-0.88903
-0.820206
-0.753303
-0.688922
-0.625648
-0.563431
-0.504111
-0.445383
-0.387857
-0.333159
-0.278122
-0.229608
-0.179861
-0.137119
-0.093728
-0.0581649
-0.0229368
0.00513925
0.0274996
0.0493894
0.0600755
0.0719359
0.0709216
0.0707225
0.0515537
0.0569866
-0.00783739
0.062268
-11.5918
-11.6245
-11.8439
-12.2501
-12.9361
-14.0055
-15.5387
-17.5721
-20.0424
-22.6027
-24.7236
-25.7552
-25.2126
-23.3012
-20.6925
-18.0493
-15.6796
-13.6528
-11.9178
-10.4291
-9.14171
-8.02688
-7.05868
-6.21854
-5.49028
-4.86157
-4.31936
-3.85172
-3.45128
-3.10868
-2.81677
-2.5666
-2.35321
-2.16877
-2.00859
-1.86786
-1.74271
-1.63029
-1.52716
-1.43223
-1.34299
-1.25915
-1.17919
-1.10242
-1.0288
-0.957032
-0.888536
-0.821304
-0.755684
-0.692232
-0.629862
-0.56832
-0.50942
-0.45104
-0.393721
-0.339053
-0.284171
-0.235304
-0.185585
-0.142329
-0.0988318
-0.0626333
-0.0273865
0.00135596
0.0242128
0.0463005
0.057744
0.069603
0.069211
0.0692335
0.0506222
0.0556832
-0.00798725
0.061159
-13.103
-13.1584
-13.3729
-13.7624
-14.4134
-15.4435
-16.9357
-18.9594
-21.4807
-24.2104
-26.6103
-28.0003
-27.7412
-25.7544
-22.7373
-19.5167
-16.6123
-14.1665
-12.1423
-10.4616
-9.05538
-7.87078
-6.86698
-6.01312
-5.28563
-4.66579
-4.13751
-3.68659
-3.30351
-2.97809
-2.70217
-2.46687
-2.26646
-2.09369
-1.94382
-1.81218
-1.6951
-1.58972
-1.493
-1.40357
-1.31924
-1.23952
-1.16326
-1.08976
-1.01904
-0.94991
-0.883593
-0.818399
-0.75446
-0.692315
-0.63116
-0.570614
-0.512374
-0.454619
-0.397731
-0.343304
-0.288775
-0.239733
-0.190234
-0.146606
-0.10315
-0.0664578
-0.0312822
-0.00201343
0.0212512
0.0434481
0.0555847
0.0673848
0.0675568
0.0677795
0.0497126
0.0543284
-0.00809566
0.0600117
-14.5229
-14.6205
-14.8658
-15.2511
-15.8683
-16.8281
-18.2526
-20.2507
-22.8132
-25.7045
-28.3329
-30.0221
-30.0714
-28.1773
-24.8542
-21.079
-17.5843
-14.6612
-12.3015
-10.4052
-8.86967
-7.61491
-6.58006
-5.72019
-5.002
-4.39986
-3.89371
-3.46709
-3.10813
-2.80585
-2.55124
-2.33538
-2.15194
-1.99426
-1.85756
-1.73746
-1.63052
-1.53401
-1.44528
-1.36274
-1.28449
-1.20992
-1.1383
-1.06891
-1.00187
-0.936087
-0.872639
-0.810052
-0.748334
-0.687989
-0.628483
-0.569367
-0.512128
-0.455357
-0.399223
-0.345345
-0.291466
-0.242494
-0.193436
-0.149647
-0.106439
-0.0694215
-0.0344928
-0.00483502
0.0186939
0.0409009
0.0536284
0.065291
0.0659795
0.0663459
0.0487886
0.0529678
-0.00821336
0.0588476
-15.6064
-15.8041
-16.1012
-16.5235
-17.1481
-18.0729
-19.4238
-21.3308
-23.849
-26.7653
-29.4993
-31.3184
-31.5854
-29.8876
-26.4938
-22.3378
-18.337
-14.9548
-12.2644
-10.1597
-8.5083
-7.19981
-6.15125
-5.30269
-4.60982
-4.04037
-3.56954
-3.17858
-2.85349
-2.58265
-2.35631
-2.16584
-2.00443
-1.86616
-1.74618
-1.64073
-1.5465
-1.4612
-1.38235
-1.30842
-1.23767
-1.16958
-1.10365
-1.03937
-0.976878
-0.915321
-0.855478
-0.796158
-0.737271
-0.679274
-0.621886
-0.564632
-0.508781
-0.453345
-0.398309
-0.345267
-0.292301
-0.243655
-0.195268
-0.151537
-0.108757
-0.0716224
-0.0370297
-0.00717402
0.0165355
0.0386458
0.0518613
0.0633315
0.0644677
0.0649547
0.0478856
0.0515604
-0.00830361
0.0576567
-15.9387
-16.2664
-16.64
-17.0977
-17.7259
-18.6345
-19.9672
-21.8138
-24.1856
-26.8896
-29.4354
-31.0984
-31.3467
-29.846
-26.6662
-22.5198
-18.3236
-14.6845
-11.783
-9.5516
-7.84636
-6.53442
-5.51372
-4.7105
-4.07166
-3.55836
-3.14266
-2.80356
-2.52582
-2.29722
-2.10821
-1.95048
-1.81746
-1.70368
-1.60479
-1.51752
-1.43913
-1.36765
-1.30096
-1.23759
-1.17604
-1.11592
-1.057
-0.998996
-0.942083
-0.885727
-0.830351
-0.775064
-0.719749
-0.664764
-0.610101
-0.555259
-0.501304
-0.447638
-0.394139
-0.342323
-0.290627
-0.242663
-0.1952
-0.151853
-0.109729
-0.0727583
-0.0386483
-0.00883504
0.0149291
0.0367777
0.0503743
0.0615406
0.0630711
0.0636107