/*--------------------------------*- C++ -*----------------------------------*\
| =========                 |                                                 |
| \\      /  F ield         | OpenFOAM: The Open Source CFD Toolbox           |
|  \\    /   O peration     | Version:  2312                                  |
|   \\  /    A nd           | Website:  www.openfoam.com                      |
|    \\/     M anipulation  |                                                 |
\*---------------------------------------------------------------------------*/
FoamFile
{
    version     2.0;
    format      ascii;
    arch        "LSB;label=32;scalar=64";
    class       surfaceScalarField;
    location    "300";
    object      phi;
}
// * * * * * * * * * * * * * * * * * * * * * * * * * * * * * * * * * * * * * //

dimensions      [0 3 -1 0 0 0 0];

oriented        oriented;

internalField   nonuniform List<scalar> 
21876
(
0.00905504
-0.000832356
-0.0082216
0.00544381
0.0036113
0.000961922
0.00448375
-0.00104982
0.00201445
-0.00145943
0.000414331
-0.00143263
-2.53496e-05
-0.00145021
1.57906e-05
-0.00143111
-1.84542e-05
-0.00138759
-4.59694e-05
-0.00135509
-2.83361e-05
-0.00131543
-3.97076e-05
-0.00127834
-2.96534e-05
-0.00124147
-3.49009e-05
-0.00120454
-3.22996e-05
-0.00117147
-2.91475e-05
-0.00114534
-2.40003e-05
-0.00112425
-1.62562e-05
-0.00110849
-1.81707e-05
-0.00107314
-2.33785e-05
-0.00101112
-7.35985e-05
-0.000871362
-0.000119059
-0.000639409
-0.000203547
-0.000300787
-0.000312304
0.00010776
-0.000399974
0.000470427
-0.000368642
0.000685973
-0.000203962
0.000647461
2.5351e-05
0.000320611
0.000341323
-7.77978e-05
0.000387481
-0.000490572
0.000425938
-0.00120068
0.000702115
-0.00172551
0.00053079
-0.00194051
0.000202159
-0.00193084
-1.12511e-05
-0.0017762
-0.00017393
-0.00149533
-0.000284728
-0.00111693
-0.000400975
-0.000623642
-0.00050336
7.56969e-06
-0.000651025
0.000566653
-0.000528574
-0.00135784
0.00198296
0.0106058
-0.00276747
-0.00867069
0.0109855
0.00323206
0.00863371
0.00683687
0.00404972
0.0066016
0.000333375
0.00413629
-0.00116854
0.00148375
-0.00136275
0.000218127
-0.0014653
9.47879e-05
-0.00148509
-1.63549e-05
-0.00149716
-4.60514e-06
-0.00148642
-4.04496e-05
-0.0014654
-3.70068e-05
-0.00143795
-4.92276e-05
-0.00140729
-4.78437e-05
-0.00137875
-4.09831e-05
-0.00135543
-3.03632e-05
-0.00133464
-1.46198e-05
-0.00131304
-2.04082e-05
-0.00126382
-4.29568e-05
-0.00116755
-0.000151935
-0.000958942
-0.000299779
-0.00062629
-0.0005074
-0.000178841
-0.000731824
0.000303203
-0.000853881
0.000703498
-0.000752159
0.000945968
-0.000426327
0.000976326
2.691e-06
0.000718561
0.000609244
5.62219e-05
0.00105102
-0.000874125
0.00136343
-0.00167917
0.00151128
-0.00207236
0.000931318
-0.0021667
0.00030349
-0.00207041
-9.64092e-05
-0.00181535
-0.000419463
-0.00139906
-0.000686792
-0.000841565
-0.000948367
-0.000136197
-0.0011941
0.00070335
-0.0014765
0.00154063
-0.00133196
-0.00226151
0.00248339
0.0119215
-0.00504533
-0.00964277
0.0135563
0.00159708
0.014111
0.00628274
0.0118679
0.00884516
0.00738371
0.00862036
0.00265276
0.00621421
-0.000173708
0.00304472
-0.00106738
0.000989427
-0.00134257
0.000257851
-0.00148559
0.00013734
-0.00155158
2.27874e-05
-0.00157476
-1.41814e-05
-0.00157266
-5.41405e-05
-0.00155389
-6.78461e-05
-0.00153128
-6.54888e-05
-0.00151417
-5.02538e-05
-0.00150409
-2.81568e-05
-0.00149503
-3.66112e-05
-0.00145575
-8.21817e-05
-0.00135413
-0.000265924
-0.00111297
-0.000537366
-0.000719606
-0.000897244
-0.000194044
-0.00125599
0.000367028
-0.00142236
0.00083295
-0.00122768
0.00111109
-0.000708256
0.00114771
-4.41896e-05
0.000887801
0.000870563
0.000104314
0.00182987
-0.0010344
0.0025018
-0.00188032
0.00235206
-0.00226838
0.00131882
-0.00237965
0.000406661
-0.00225431
-0.000227363
-0.00192302
-0.000762066
-0.00139598
-0.00122132
-0.000690877
-0.00166554
0.000191626
-0.00208643
0.00121786
-0.00251392
0.00229326
-0.00240719
-0.00320804
0.00324084
0.0134758
-0.00772363
-0.0107977
0.0154523
-0.000379778
0.0170921
0.00464301
0.0176132
0.00832361
0.0157219
0.010512
0.0113539
0.0105828
0.00595546
0.00844558
0.00174916
0.00519939
-0.000314758
0.00232747
-0.00101133
0.000841353
-0.00134743
0.000368117
-0.00152093
0.000170453
-0.00160749
4.36602e-05
-0.00163537
-2.82515e-05
-0.00163677
-5.15603e-05
-0.00163497
-3.81503e-05
-0.00164358
-3.81854e-06
-0.00166064
-2.33784e-06
-0.0016536
-6.95339e-05
-0.00157744
-0.000325701
-0.00134053
-0.000754285
-0.000918406
-0.00129978
-0.000331667
-0.00182591
0.000313134
-0.002051
0.000862009
-0.00176566
0.00119052
-0.0010253
0.00122187
-6.87574e-05
0.000909796
0.00118904
3.11173e-05
0.00271104
-0.00119364
0.0037317
-0.00206997
0.00323258
-0.00250772
0.00176367
-0.00265049
0.000556196
-0.00250615
-0.000361922
-0.0021104
-0.00114949
-0.00148028
-0.00184048
-0.000635091
-0.00250215
0.000423505
-0.00313411
0.00164616
-0.00372727
0.00298179
-0.00372807
-0.00437695
0.00416243
0.0151138
-0.0106191
-0.0122196
0.0174521
-0.00271771
0.0193193
0.00277555
0.0209716
0.00667209
0.0217092
0.00977459
0.0203013
0.0119915
0.0162088
0.0125388
0.0104257
0.0109832
0.00490619
0.00784733
0.00134108
0.00440763
-0.000275187
0.00198631
-0.000967308
0.00086492
-0.0013456
0.000421676
-0.00153817
0.000163975
-0.00162887
3.80493e-05
-0.00167261
4.71537e-06
-0.00171426
3.72875e-05
-0.00177339
5.69852e-05
-0.00182521
-1.64202e-05
-0.00181505
-0.000340119
-0.00163244
-0.000934024
-0.00122635
-0.00170389
-0.000606849
-0.00244495
0.000115165
-0.00277803
0.000759577
-0.00241554
0.00115459
-0.00142464
0.00118386
-0.000103309
0.000792216
0.0015797
-0.000172817
0.00367429
-0.00140765
0.00496503
-0.0022905
0.00411298
-0.00279146
0.00226358
-0.00297285
0.000734046
-0.00282409
-0.000514239
-0.00237703
-0.00160125
-0.00165238
-0.00256964
-0.0006729
-0.00348631
0.000562833
-0.00437568
0.00199418
-0.00516246
0.00361837
-0.00535566
-0.00589721
0.00513501
0.0170657
-0.0137638
-0.0139181
0.0198496
-0.00550277
0.0220458
0.000580795
0.0238656
0.00485075
0.025498
0.00814186
0.0264765
0.0110128
0.0256242
0.0133906
0.0220701
0.0145372
0.0161962
0.0137213
0.00965619
0.0109492
0.00440642
0.00723833
0.00131054
0.00396511
-0.0001549
0.00189311
-0.000886278
0.000903616
-0.00128351
0.000445836
-0.00149166
0.000225875
-0.00162249
0.000183632
-0.00175178
0.000202503
-0.00189285
0.00014149
-0.00199873
-0.000219613
-0.00194311
-0.000971973
-0.00162766
-0.0020043
-0.00103397
-0.0030253
-0.00026244
-0.00353958
0.000482548
-0.00315188
0.000964736
-0.00190051
0.00100572
-0.000137243
0.000522227
0.00206766
-0.000504174
0.00470518
-0.00167357
0.00613808
-0.00253398
0.00497817
-0.00309461
0.00282906
-0.00332362
0.000969153
-0.00319011
-0.000642068
-0.00271146
-0.00207356
-0.00190802
-0.00336807
-0.000806204
-0.00458228
0.000601238
-0.00577912
0.0022481
-0.00680394
0.00417759
-0.00728266
-0.00779966
0.00608409
0.0194675
-0.0172849
-0.0159484
0.0226586
-0.00869286
0.0253334
-0.00209769
0.0274632
0.00272037
0.029185
0.0064204
0.0307597
0.00943835
0.0319472
0.0122041
0.0317206
0.0147643
0.0289406
0.0165029
0.0234085
0.0164826
0.0162778
0.0143714
0.00940096
0.0108442
0.00437887
0.0069177
0.00151905
0.00376676
8.09822e-05
0.00188856
-0.000681412
0.000994375
-0.0011141
0.00062264
-0.00141639
0.000512393
-0.00170306
0.000432318
-0.00198579
6.60979e-05
-0.00215161
-0.00080247
-0.00204241
-0.00210889
-0.00158173
-0.00348281
-0.000830223
-0.0042902
-5.08851e-06
-0.00397841
0.000582259
-0.00248759
0.000659877
-0.000216055
0.000104064
0.00262527
-0.00091879
0.00572869
-0.00194541
0.0071661
-0.00275678
0.00578983
-0.00336345
0.0034377
-0.00365032
0.00125633
-0.00355729
-0.000733736
-0.0030775
-0.00255373
-0.00222324
-0.00422116
-0.00102334
-0.00578299
0.000536629
-0.0073385
0.0023917
-0.00866089
0.0046193
-0.00951081
-0.0101197
0.00693526
0.0224085
-0.0213247
-0.018367
0.0260427
-0.0123299
0.0291866
-0.00524458
0.0317996
0.000109231
0.0338484
0.00437164
0.0354586
0.00783131
0.036925
0.0107378
0.0382428
0.0134479
0.0386208
0.016124
0.0368074
0.018297
0.0320687
0.0191089
0.0248432
0.0180689
0.016725
0.0150368
0.00963655
0.0108568
0.0047597
0.00676838
0.00199766
0.00376259
0.000537777
0.00209122
-0.000308776
0.00137014
-0.000923025
0.0010577
-0.00149418
0.000649384
-0.00200284
-0.000280148
-0.00225986
-0.00183862
-0.00211546
-0.00361748
-0.00153421
-0.00486375
-0.000702727
-0.00480371
-9.31398e-06
-0.00317569
0.000153464
-0.000374241
-0.000391589
0.00317577
-0.00130066
0.00664043
-0.00212156
0.00799094
-0.00286168
0.00653189
-0.0034966
0.00407616
-0.00385151
0.00161281
-0.00383117
-0.000751145
-0.00339404
-0.00299004
-0.00253624
-0.00507749
-0.00128191
-0.00703786
0.000387225
-0.00900782
0.00241803
-0.0106936
0.00489836
-0.0119938
-0.0128231
0.00759917
0.0259817
-0.0260503
-0.0212546
0.0301794
-0.0165354
0.0338188
-0.0088804
0.0369108
-0.00298583
0.0394517
0.00183691
0.0414137
0.00586846
0.0429018
0.00925173
0.0442145
0.0121319
0.0455444
0.0147948
0.0464067
0.0174314
0.045625
0.0198891
0.0420225
0.0216726
0.0353355
0.0217254
0.0265968
0.0195984
0.0176925
0.0156772
0.0104272
0.0110329
0.0056126
0.00691335
0.00286098
0.0041293
0.00125421
0.00267164
7.57356e-05
0.00183344
-0.000979947
0.000784265
-0.00181941
-0.00099165
-0.00226329
-0.00316577
-0.00213166
-0.00499035
-0.00148246
-0.00544829
-0.000728548
-0.00392679
-0.000407223
-0.000689741
-0.000777276
0.00354848
-0.00142811
0.00729716
-0.00200958
0.00857446
-0.00266184
0.00718933
-0.00331016
0.00472643
-0.00374451
0.00205218
-0.0038367
-0.000657753
-0.00350279
-0.00332027
-0.00271437
-0.00586599
-0.00148007
-0.00827001
0.000219525
-0.0107093
0.00235013
-0.0128248
0.00498813
-0.0146357
-0.0158197
0.00798178
0.0302999
-0.0316559
-0.0247009
0.0352236
-0.0214565
0.0394509
-0.0131125
0.0430607
-0.00658928
0.0460743
-0.00117744
0.0485216
0.00342419
0.0503932
0.00737706
0.0517655
0.01076
0.052901
0.0136565
0.0541115
0.016219
0.0552565
0.0187457
0.0554064
0.0215237
0.053177
0.0239573
0.0476442
0.0251341
0.0390827
0.0242393
0.0289845
0.021133
0.0193945
0.016503
0.0119529
0.0115692
0.00710042
0.00752525
0.00410184
0.00483453
0.00194939
0.00294246
0.000202986
0.000762517
-0.00119781
-0.00175825
-0.00195998
-0.00422345
-0.00189666
-0.00550723
-0.00126997
-0.00454638
-0.000730448
-0.00123349
-0.000706312
0.00353152
-0.000951388
0.00753867
-0.00127784
0.00890716
-0.00183652
0.00774524
-0.00249129
0.00538674
-0.003024
0.00258181
-0.00327302
-0.000404055
-0.0031228
-0.00347435
-0.00250436
-0.00648107
-0.00140893
-0.00937087
0.00019538
-0.0123124
0.0022867
-0.0149235
0.0049253
-0.017276
-0.0189391
0.00803637
0.0355163
-0.0383598
-0.0288138
0.0413471
-0.0272889
0.046319
-0.0180827
0.0505303
-0.0107989
0.0540574
-0.00470216
0.0569653
0.000517043
0.0593021
0.00504064
0.061084
0.00897833
0.0623526
0.0123873
0.0633098
0.0152638
0.0643062
0.0177505
0.0655032
0.0203287
0.0663461
0.0231174
0.0655197
0.0259585
0.0616331
0.0281255
0.0541307
0.028632
0.0437855
0.0268439
0.0324467
0.0229084
0.0222331
0.017738
0.0144932
0.012578
0.00917215
0.00826881
0.00556677
0.00437549
0.00267785
0.00113741
0.000427823
-0.00196553
-0.000785126
-0.00428418
-0.000829805
-0.00450342
-0.000208685
-0.00184518
0.000340365
0.00297299
0.000621752
0.00726341
0.000569931
0.00895043
0.000123618
0.00819674
-0.000548121
0.00604987
-0.00119703
0.00323585
-0.00166324
5.22537e-05
-0.001783
-0.00334982
-0.00147323
-0.00680237
-0.000671893
-0.0101681
0.000641886
-0.01364
0.0024889
-0.0167678
0.00489003
-0.0196925
-0.0219106
0.00786386
0.0418024
-0.0464332
-0.0337292
0.048772
-0.0342586
0.0546741
-0.023983
0.0596321
-0.0157547
0.0637623
-0.0088296
0.0671693
-0.00288735
0.0699441
0.00226831
0.0721556
0.0067695
0.0738383
0.0107067
0.0750172
0.014088
0.0758172
0.0169523
0.0765693
0.0195802
0.0776083
0.0220762
0.0788074
0.0247583
0.0791878
0.0277418
0.0771997
0.0306153
0.071579
0.0324647
0.0621649
0.0323191
0.0501631
0.0297403
0.0376596
0.0250812
0.026606
0.0193231
0.0184802
0.012502
0.012451
0.00716966
0.00773348
0.00275502
0.0042579
-0.000800033
0.00247843
-0.00271914
0.00241166
-0.00177857
0.00322904
0.0021552
0.00399309
0.00649532
0.00424854
0.00869328
0.00393064
0.00850946
0.00325386
0.00672612
0.00245299
0.00402952
0.00172132
0.000784165
0.00121252
-0.00285099
0.00107321
-0.00666117
0.00136659
-0.0104744
0.00216031
-0.0144315
0.00346147
-0.0180854
0.0053381
-0.0215648
-0.0244045
0.0078141
0.0493791
-0.0562002
-0.0396106
0.0577639
-0.0426432
0.0648271
-0.0310437
0.0707173
-0.0216435
0.0755884
-0.0136974
0.079584
-0.00688046
0.0828352
-0.000979461
0.0854496
0.00415814
0.0875152
0.00864456
0.0890831
0.0125233
0.0901757
0.0158629
0.0908659
0.0188911
0.0913897
0.0215519
0.0921479
0.0239994
0.0933574
0.0265293
0.0945449
0.0294282
0.0943712
0.0326344
0.0911767
0.0355124
0.0838814
0.0370326
0.0726861
0.0362721
0.0590555
0.0329482
0.0460195
0.0255343
0.0346769
0.0185047
0.0253094
0.012132
0.017778
0.00672574
0.0124415
0.00263713
0.0098286
0.000823335
0.00964679
0.00235321
0.0103915
0.00573626
0.010868
0.00822783
0.010676
0.00868845
0.00997296
0.00743822
0.00897123
0.00501758
0.00789204
0.00187103
0.00687673
-0.00184835
0.00610276
-0.0058824
0.005658
-0.0100427
0.00562504
-0.0143976
0.00605955
-0.018531
0.00703127
-0.0225398
-0.0260014
0.00862002
0.058514
-0.0680528
-0.0466591
0.0686472
-0.0527768
0.0771515
-0.0395446
0.0842027
-0.0286943
0.0899955
-0.0194862
0.0947101
-0.011594
0.0985241
-0.00478939
0.101582
0.00110257
0.10401
0.00622005
0.105905
0.0106313
0.107339
0.0144323
0.108352
0.0178807
0.108971
0.0209344
0.109336
0.0236367
0.10979
0.0260761
0.110744
0.0284726
0.112222
0.0311557
0.113405
0.0343275
0.112684
0.0377481
0.108351
0.0405999
0.0995053
0.0417892
0.0875047
0.0375268
0.0739233
0.0320889
0.060244
0.0258035
0.0475224
0.0194672
0.0365139
0.0136372
0.0283853
0.00898108
0.0240585
0.00666411
0.0227774
0.00704341
0.0225448
0.00844231
0.0221714
0.00908466
0.0212623
0.00832614
0.0199698
0.00633377
0.0183791
0.0034369
0.0167149
-0.000159094
0.0150491
-0.00424603
0.0136032
-0.00857283
0.0123641
-0.0131914
0.0115456
-0.017692
0.0111448
-0.0221727
-0.026217
0.0113759
0.0695355
-0.0824656
-0.05512
0.0818206
-0.065063
0.0921039
-0.0498238
0.100595
-0.0371854
0.107533
-0.0264201
0.113141
-0.0172017
0.117643
-0.00928655
0.121224
-0.00247759
0.124057
0.00339172
0.126267
0.00842241
0.127971
0.0127322
0.129261
0.0165928
0.130188
0.0200103
0.130764
0.0230621
0.131049
0.0257937
0.131268
0.0282554
0.131845
0.0305796
0.13314
0.0330322
0.134949
0.0359368
0.13615
0.0393977
0.134932
0.043005
0.129997
0.0424616
0.12127
0.0408142
0.109483
0.0375977
0.0957631
0.0331906
0.0813065
0.028107
0.0674733
0.0228188
0.0561939
0.0179582
0.0487813
0.0144574
0.0446474
0.0125881
0.0421723
0.0115579
0.0401373
0.0103718
0.037974
0.00849143
0.0355601
0.00586185
0.0328936
0.00249809
0.0300851
-0.00142716
0.0272255
-0.00572881
0.0244169
-0.0103757
0.0217957
-0.0150911
0.0195081
-0.019882
-0.0244265
0.0176903
0.0828451
-0.100014
-0.0652933
0.0977709
-0.0799905
0.110243
-0.0622904
0.12051
-0.0474542
0.128869
-0.0347728
0.135586
-0.0239205
0.140943
-0.0146373
0.145165
-0.006701
0.148478
8.38264e-05
0.151043
0.00585641
0.153015
0.0107643
0.154514
0.0150931
0.155647
0.0188802
0.156474
0.0222361
0.157021
0.0252499
0.157295
0.0279833
0.157402
0.0304762
0.157644
0.0327924
0.158483
0.0351003
0.160188
0.0376954
0.162324
0.0408707
0.163405
0.0413848
0.162191
0.0420293
0.157827
0.0419685
0.150088
0.0409327
0.139338
0.0388683
0.126303
0.0358562
0.112242
0.0320343
0.0989595
0.0277394
0.0880365
0.0235281
0.0797563
0.019834
0.0735093
0.016635
0.0683818
0.0136112
0.0637417
0.0105194
0.0591696
0.00705874
0.054533
0.00322393
0.0497324
-0.000943921
0.0447686
-0.00540118
0.0397601
-0.010105
0.0348613
-0.0149755
-0.0198119
0.0302254
0.0989282
-0.121398
-0.0775408
0.117089
-0.0981543
0.132248
-0.0774427
0.144704
-0.0599125
0.154816
-0.0448788
0.162911
-0.0320178
0.16933
-0.0210503
0.174351
-0.0117248
0.178253
-0.00381228
0.181242
0.00286392
0.183519
0.00849147
0.185232
0.0133771
0.186522
0.0175931
0.187485
0.0212725
0.188206
0.024531
0.188721
0.0274697
0.189031
0.0301683
0.189151
0.0326751
0.189224
0.035029
0.189617
0.0373064
0.190786
0.0397034
0.192609
0.0395655
0.194635
0.0400033
0.195987
0.0406236
0.195673
0.0412455
0.192945
0.0416074
0.187336
0.0414611
0.178826
0.0405606
0.167848
0.0387111
0.155503
0.0358927
0.143021
0.0323062
0.131411
0.0282686
0.120956
0.0240525
0.111575
0.0199256
0.102919
0.0156989
0.0947448
0.011423
0.0867046
0.0070789
0.0785514
0.00277109
0.0702693
-0.00183596
0.0618646
-0.00656514
-0.0114244
0.0534606
0.107266
-0.145006
-0.0836543
0.127299
-0.11819
0.144008
-0.0941455
0.157723
-0.0736299
0.168838
-0.0559876
0.177714
-0.0408958
0.184725
-0.0280552
0.19018
-0.0171825
0.194384
-0.00801139
0.197574
-0.000328137
0.199972
0.00609652
0.201751
0.0115954
0.203069
0.0162779
0.204035
0.020304
0.204757
0.0238106
0.205308
0.0269183
0.205743
0.0297351
0.206069
0.0323497
0.206268
0.0348305
0.206363
0.037214
0.206524
0.0395408
0.206935
0.0391584
0.20792
0.0390162
0.209575
0.038973
0.211642
0.0391752
0.21361
0.0396468
0.214759
0.0403071
0.214361
0.0409704
0.21172
0.0413444
0.206534
0.041095
0.198839
0.0399902
0.189176
0.0379522
0.178175
0.0350409
0.166523
0.0316008
0.154681
0.0275268
0.143007
0.0231164
0.131533
0.0185403
0.120071
0.0142448
0.108626
0.00959329
0.0970523
0.00501053
0.000271092
0.0853503
0.114198
-0.17052
-0.0886788
0.135838
-0.139832
0.153877
-0.11218
0.168678
-0.088432
0.180657
-0.067962
0.190209
-0.0504502
0.197733
-0.0355746
0.203567
-0.023019
0.208036
-0.0124769
0.211398
-0.0036938
0.2139
0.00359776
0.215728
0.00976366
0.217057
0.0149508
0.21801
0.0193481
0.218704
0.0231176
0.219221
0.0263996
0.219638
0.0293179
0.220008
0.0319789
0.220356
0.0344815
0.220667
0.0369031
0.220906
0.0393
0.220948
0.0391179
0.220992
0.0389691
0.221314
0.0386542
0.222163
0.0383213
0.223708
0.0381076
0.225885
0.0381246
0.22843
0.0384347
0.230757
0.0390121
0.232157
0.0397082
0.23187
0.040272
0.229417
0.0404231
0.224514
0.0399408
0.217221
0.0389163
0.207798
0.0369504
0.196767
0.0341729
0.18461
0.0307026
0.171583
0.0272937
0.158126
0.0230661
0.144289
0.0188593
0.0143715
0.130202
0.121851
-0.198097
-0.0942765
0.145231
-0.163209
0.164711
-0.131661
0.180694
-0.104412
0.193616
-0.0808837
0.203915
-0.0607485
0.212009
-0.0436672
0.218272
-0.0292828
0.223047
-0.0172512
0.22662
-0.00726838
0.229252
0.000966872
0.231153
0.00786122
0.232506
0.0135974
0.233455
0.0183976
0.234123
0.0224487
0.234606
0.0259158
0.234982
0.0289397
0.235318
0.0316421
0.235666
0.0341321
0.236062
0.0365067
0.236504
0.0388547
0.236778
0.0388448
0.236904
0.0388399
0.236939
0.038621
0.237002
0.0382545
0.237307
0.0378065
0.23807
0.0373567
0.239511
0.0369989
0.241683
0.0368359
0.244452
0.0369444
0.24739
0.0373312
0.249908
0.0379095
0.251336
0.0385112
0.2511
0.0391554
0.248744
0.0393077
0.244031
0.0388847
0.236978
0.0377582
0.227637
0.0366291
0.216466
0.0342353
0.203763
0.031557
0.0281888
0.189947
0.130244
-0.227889
-0.100442
0.155495
-0.188469
0.176545
-0.152703
0.1938
-0.121675
0.207758
-0.0948332
0.218865
-0.071863
0.227595
-0.0523888
0.234329
-0.0360245
0.239458
-0.0223725
0.24327
-0.0110881
0.246064
-0.00182105
0.248053
0.00586575
0.249451
0.0122039
0.2504
0.0174426
0.25105
0.021802
0.251493
0.0254674
0.251831
0.028604
0.252122
0.0313476
0.252432
0.0338227
0.252804
0.0361328
0.25328
0.0383779
0.253672
0.0384522
0.254012
0.0384983
0.254286
0.0383482
0.254479
0.0380593
0.254625
0.0376637
0.254793
0.0371871
0.255136
0.036659
0.255845
0.0361281
0.25713
0.0356627
0.259119
0.0353462
0.261783
0.0352476
0.264912
0.0353929
0.268106
0.03596
0.27088
0.0365515
0.272665
0.0370968
0.273026
0.0374196
0.271504
0.038148
0.267906
0.0378591
0.262074
0.037391
0.0361314
0.254154
0.139392
-0.260088
-0.107195
0.166679
-0.215756
0.189414
-0.17544
0.208063
-0.140322
0.223133
-0.109904
0.235136
-0.0838623
0.244548
-0.0618024
0.251816
-0.0432887
0.257324
-0.0278823
0.261421
-0.0151812
0.264391
-0.00479276
0.266499
0.00376117
0.267947
0.0107552
0.268915
0.0164767
0.269544
0.0211729
0.269956
0.025058
0.270243
0.0283165
0.270488
0.0311049
0.27075
0.0335616
0.271081
0.0358031
0.271524
0.0379365
0.271903
0.0380753
0.27228
0.0381233
0.272665
0.0379641
0.273056
0.0376712
0.273435
0.0372865
0.273788
0.0368374
0.274114
0.0363361
0.27445
0.0357944
0.274894
0.0352238
0.27559
0.0346519
0.276727
0.0341198
0.278445
0.0336764
0.280845
0.0335718
0.283857
0.0335382
0.287327
0.0336432
0.290918
0.033827
0.294332
0.0347511
0.297087
0.0351027
0.298843
0.0356565
0.0357346
0.299243
0.149344
-0.294872
-0.114552
0.178824
-0.245243
0.203393
-0.200007
0.223544
-0.160476
0.239831
-0.126189
0.252798
-0.09683
0.262967
-0.0719694
0.270811
-0.0511314
0.276749
-0.0338205
0.281154
-0.0195842
0.284336
-0.00797395
0.286575
0.00152372
0.288094
0.00923641
0.289087
0.0154863
0.289705
0.020555
0.290082
0.0246826
0.290321
0.0280788
0.29051
0.0309184
0.290716
0.0333572
0.290996
0.0355244
0.291396
0.037539
0.291733
0.0377408
0.292073
0.0377858
0.292439
0.0376007
0.292847
0.0372655
0.293307
0.0368309
0.293811
0.0363357
0.294349
0.0358036
0.294894
0.0352524
0.295438
0.0346871
0.295982
0.0341108
0.296588
0.0335246
0.297332
0.0329323
0.29837
0.0325455
0.299815
0.0320911
0.30181
0.0316621
0.304371
0.0312596
0.307556
0.0315792
0.31119
0.0314608
0.315147
0.0317142
0.031738
0.319138
0.160137
-0.332468
-0.12255
0.192
-0.277101
0.218547
-0.226561
0.240334
-0.182257
0.257936
-0.143796
0.271959
-0.110848
0.282947
-0.0829619
0.291427
-0.0596053
0.297836
-0.0402338
0.302587
-0.0243298
0.306003
-0.0113947
0.308398
-0.00086552
0.309999
0.00763057
0.311028
0.0144616
0.311641
0.0199397
0.311988
0.0243385
0.312175
0.0278897
0.312305
0.0307917
0.312445
0.0332156
0.312665
0.0353071
0.313008
0.0371953
0.313294
0.037457
0.313584
0.0374955
0.313904
0.0372839
0.314264
0.0369038
0.314689
0.0364099
0.31518
0.0358435
0.315752
0.0352356
0.316391
0.0346115
0.317097
0.0339875
0.317833
0.0333722
0.318597
0.0327681
0.319359
0.0321656
0.32016
0.0317526
0.321013
0.0312308
0.322018
0.0306657
0.323229
0.0300398
0.32479
0.0300263
0.326733
0.0295069
0.329157
0.0292996
0.0288751
0.332009
0.171839
-0.373086
-0.131213
0.20627
-0.31154
0.234971
-0.255263
0.258521
-0.20581
0.277561
-0.162834
0.292724
-0.126012
0.304615
-0.0948509
0.313782
-0.0687724
0.320717
-0.047166
0.325843
-0.0294562
0.329531
-0.0150801
0.332093
-0.00342799
0.3338
0.00592564
0.334869
0.0133922
0.335488
0.0193239
0.335803
0.0240237
0.335943
0.0277524
0.336006
0.0307294
0.336078
0.0331461
0.336224
0.0351622
0.336501
0.0369213
0.33672
0.0372401
0.33695
0.0372684
0.33721
0.0370257
0.337518
0.0365993
0.337884
0.0360458
0.338322
0.03541
0.338836
0.0347238
0.339439
0.0340152
0.340127
0.0333033
0.340903
0.0326039
0.341749
0.0319248
0.342659
0.0312645
0.343605
0.0308079
0.344583
0.0302629
0.345566
0.0296823
0.346575
0.0290378
0.347627
0.0289733
0.348761
0.0283795
0.350017
0.0280426
0.0274582
0.351439
0.184498
-0.416998
-0.140594
0.221721
-0.34876
0.252751
-0.286297
0.278222
-0.23128
0.298818
-0.183431
0.315227
-0.14242
0.328098
-0.107721
0.338023
-0.078696
0.345529
-0.0546715
0.351075
-0.0350023
0.35506
-0.0190634
0.357819
-0.00618693
0.359644
0.00410191
0.36077
0.0122665
0.361397
0.0186978
0.361687
0.0237338
0.361777
0.0276641
0.361775
0.0307326
0.361772
0.033151
0.361841
0.0350954
0.362041
0.0367238
0.362183
0.0371
0.36234
0.037115
0.362532
0.0368369
0.362777
0.0363586
0.363086
0.0357409
0.363469
0.0350322
0.363931
0.0342662
0.364479
0.0334733
0.365113
0.032673
0.36584
0.0318828
0.366655
0.031112
0.36756
0.0303628
0.368549
0.0298194
0.36961
0.0292012
0.370728
0.0285624
0.371889
0.0278758
0.37309
0.0277699
0.37431
0.0271561
0.375555
0.0267947
0.0261919
0.376819
0.198197
-0.464457
-0.150731
0.238436
-0.389009
0.271998
-0.319856
0.29955
-0.258836
0.321842
-0.20572
0.339605
-0.160186
0.353548
-0.121661
0.364299
-0.0894496
0.372436
-0.0628052
0.378444
-0.0410134
0.38276
-0.0233768
0.38574
-0.00916928
0.387702
0.00214131
0.388897
0.0110701
0.389543
0.0180527
0.389812
0.0234629
0.389855
0.0276223
0.389786
0.0308006
0.389706
0.0332313
0.389693
0.0351088
0.389812
0.0366055
0.389873
0.0370401
0.389949
0.0370387
0.390067
0.0367205
0.390242
0.0361836
0.39049
0.0354946
0.390817
0.0347048
0.391233
0.0338521
0.391737
0.0329682
0.392336
0.0320755
0.393025
0.0311913
0.393811
0.0303267
0.394686
0.0294835
0.395663
0.0288433
0.396728
0.0281324
0.397885
0.0274064
0.399117
0.0266391
0.400443
0.0264463
0.401828
0.0257668
0.403283
0.0253422
0.0246926
0.404777
0.212998
-0.515781
-0.161682
0.256522
-0.432526
0.292823
-0.356164
0.322642
-0.288655
0.346774
-0.229854
0.366018
-0.179429
0.381126
-0.13677
0.392787
-0.10111
0.401611
-0.0716302
0.408135
-0.0475359
0.412815
-0.0280575
0.416047
-0.0124008
0.418163
2.48483e-05
0.419443
0.00979179
0.420114
0.0173815
0.420369
0.0232085
0.420365
0.0276273
0.42023
0.0309365
0.420071
0.0333928
0.419972
0.0352094
0.420006
0.0365754
0.419978
0.03707
0.419971
0.0370505
0.420007
0.036688
0.42011
0.0360874
0.42029
0.0353196
0.420562
0.0344406
0.420929
0.0334914
0.421399
0.0325069
0.421969
0.031511
0.422646
0.0305232
0.423423
0.0295552
0.424305
0.0286099
0.425287
0.0278645
0.426373
0.0270533
0.427552
0.0262301
0.428827
0.0253701
0.430201
0.0250727
0.431665
0.0243063
0.433215
0.0237917
0.0230668
0.434844
0.229
-0.571279
-0.173498
0.276075
-0.479611
0.315361
-0.395448
0.34764
-0.320937
0.373778
-0.255992
0.394633
-0.200285
0.411017
-0.153154
0.423671
-0.113765
0.433255
-0.0812146
0.440344
-0.054625
0.445433
-0.0331468
0.448946
-0.0159143
0.451241
-0.00227057
0.452619
0.00841417
0.453328
0.0166727
0.453573
0.0229631
0.453526
0.0276753
0.453325
0.031139
0.453085
0.0336347
0.452897
0.0353982
0.452841
0.0366343
0.452722
0.0371908
0.452627
0.0371505
0.452579
0.0367387
0.452606
0.0360663
0.452717
0.0352109
0.452931
0.0342327
0.453248
0.0331765
0.453682
0.0320796
0.454226
0.0309688
0.45489
0.029865
0.455663
0.0287818
0.456554
0.027723
0.457555
0.0268622
0.458671
0.0259414
0.459885
0.0250135
0.461204
0.0240542
0.462628
0.0236462
0.464149
0.0227876
0.46576
0.0221775
0.0213716
0.467456
0.24628
-0.631324
-0.186244
0.297225
-0.530547
0.339745
-0.437976
0.374705
-0.355893
0.403026
-0.284315
0.42564
-0.222899
0.443419
-0.170934
0.457163
-0.127509
0.467581
-0.091634
0.475295
-0.0623397
0.480838
-0.0386901
0.484665
-0.0197441
0.487165
-0.00477036
0.488658
0.00691876
0.489417
0.0159145
0.489658
0.0227189
0.489573
0.0277628
0.489302
0.0314062
0.488981
0.0339597
0.488698
0.0356779
0.48855
0.0367869
0.488331
0.0374058
0.488144
0.0373427
0.488003
0.0368753
0.48795
0.0361247
0.487984
0.0351722
0.488136
0.034085
0.488396
0.0329103
0.488789
0.0316905
0.489297
0.0304532
0.489942
0.029223
0.490703
0.0280134
0.491598
0.0268312
0.492609
0.0258443
0.493749
0.024805
0.494992
0.0237637
0.496351
0.0226985
0.497819
0.022173
0.499392
0.0212182
0.501055
0.0205091
0.0196207
0.502808
0.264953
-0.696289
-0.199984
0.320088
-0.585692
0.366137
-0.484019
0.404009
-0.393768
0.434713
-0.315019
0.459246
-0.247432
0.478551
-0.19024
0.493489
-0.142448
0.504826
-0.102971
0.51323
-0.0707438
0.519276
-0.0447366
0.523457
-0.0239255
0.526187
-0.00750139
0.527818
0.00528892
0.528635
0.0150958
0.528883
0.0224721
0.528755
0.0278891
0.528421
0.0317438
0.528007
0.0343734
0.527629
0.0360586
0.527372
0.0370434
0.527052
0.0377284
0.526753
0.0376397
0.526518
0.0371131
0.526364
0.0362761
0.52632
0.0352186
0.526388
0.0340118
0.526591
0.0327092
0.52692
0.031355
0.527394
0.0299811
0.527997
0.028613
0.528746
0.0272673
0.529619
0.0259512
0.530637
0.0248294
0.531773
0.0236624
0.533038
0.0225007
0.534408
0.0213227
0.535909
0.0206739
0.537503
0.0196179
0.539207
0.0188067
0.017833
0.540988
0.285113
-0.766619
-0.214791
0.344819
-0.64539
0.394697
-0.533904
0.435748
-0.434816
0.469049
-0.34832
0.495679
-0.274062
0.516656
-0.211215
0.532904
-0.158697
0.545252
-0.115319
0.554418
-0.0799109
0.561024
-0.0513419
0.565599
-0.028502
0.568591
-0.010494
0.570378
0.00350212
0.57127
0.0142035
0.571528
0.0222143
0.571364
0.0280528
0.570957
0.0321516
0.570447
0.0348818
0.56996
0.0365478
0.569585
0.037416
0.569146
0.0381702
0.568726
0.0380561
0.568376
0.037466
0.56811
0.0365374
0.567965
0.035367
0.567939
0.0340327
0.56806
0.0325922
0.568317
0.0310942
0.568729
0.0295734
0.56928
0.028058
0.569986
0.0265665
0.570824
0.0251081
0.571816
0.0238428
0.572932
0.0225411
0.574185
0.0212524
0.575546
0.0199564
0.577045
0.0191786
0.578639
0.0180181
0.580347
0.0171013
0.0160402
0.582135
0.306893
-0.842766
-0.230742
0.37156
-0.710067
0.425618
-0.587955
0.470128
-0.47933
0.506267
-0.384456
0.535191
-0.302984
0.557997
-0.234021
0.575687
-0.176385
0.589145
-0.12878
0.599157
-0.0899199
0.60638
-0.0585697
0.6114
-0.0335183
0.614683
-0.0137835
0.616653
0.00153641
0.617628
0.0132218
0.617907
0.0219394
0.617701
0.0282514
0.617222
0.032636
0.616603
0.0354932
0.615996
0.0371594
0.615483
0.0379197
0.614909
0.0387488
0.614346
0.0386087
0.613862
0.0379537
0.613461
0.0369276
0.613194
0.0356382
0.613049
0.0341674
0.613064
0.0325809
0.613219
0.0309295
0.613544
0.0292534
0.614012
0.0275817
0.614646
0.0259367
0.615419
0.0243279
0.616354
0.0229121
0.617418
0.021469
0.618627
0.0200479
0.619947
0.0186291
0.621411
0.0177176
0.622973
0.016449
0.624652
0.015424
0.0142732
0.626413
0.330408
-0.925261
-0.24792
0.400491
-0.780143
0.459094
-0.646567
0.507387
-0.527617
0.546622
-0.423691
0.578056
-0.334417
0.602869
-0.258834
0.622139
-0.195656
0.636826
-0.143467
0.647766
-0.100862
0.655682
-0.0664859
0.661189
-0.0390277
0.66481
-0.0174042
0.666977
-0.000634023
0.66806
0.0121389
0.668355
0.0216406
0.668118
0.0284891
0.667546
0.0332034
0.666816
0.0362226
0.666058
0.0379105
0.665399
0.0385796
0.664651
0.0394882
0.663934
0.0393262
0.663275
0.0386037
0.662726
0.0374777
0.662292
0.0360626
0.662011
0.0344499
0.661875
0.0327089
0.66191
0.0308973
0.6621
0.029057
0.662463
0.0272218
0.662978
0.025415
0.66366
0.0236496
0.66449
0.0220759
0.665476
0.020486
0.666591
0.0189269
0.667841
0.0173813
0.669221
0.0163312
0.67072
0.0149518
0.672322
0.0138155
0.012573
0.674024
0.355811
-1.01465
-0.266416
0.431784
-0.856125
0.495357
-0.710135
0.547772
-0.580037
0.590397
-0.466314
0.624578
-0.368599
0.651593
-0.285848
0.672602
-0.216666
0.688641
-0.159507
0.700611
-0.112834