/*--------------------------------*- C++ -*----------------------------------*\
| =========                 |                                                 |
| \\      /  F ield         | OpenFOAM: The Open Source CFD Toolbox           |
|  \\    /   O peration     | Version:  2312                                  |
|   \\  /    A nd           | Website:  www.openfoam.com                      |
|    \\/     M anipulation  |                                                 |
\*---------------------------------------------------------------------------*/
FoamFile
{
    version     2.0;
    format      ascii;
    arch        "LSB;label=32;scalar=64";
    class       volScalarField;
    location    "300";
    object      turbulenceProperties:L;
}
// * * * * * * * * * * * * * * * * * * * * * * * * * * * * * * * * * * * * * //

dimensions      [0 1 0 0 0 0 0];

internalField   nonuniform List<scalar> 
11040
(
0.000473906
0.00044799
0.000560797
0.00136222
0.00187386
0.00138962
0.00137488
0.00135034
0.00133047
0.00132596
0.00131024
0.00129278
0.00128277
0.00127367
0.00126969
0.00127243
0.00127727
0.00128367
0.00129612
0.00132567
0.00137174
0.00148865
0.00215696
0.00303509
0.00189655
0.00153683
0.00145594
0.0015358
0.00233213
0.00220743
0.0014877
0.00152398
0.00161329
0.00169375
0.00175604
0.00183726
0.0020394
0.00283915
0.00427581
0.00252032
0.00219048
0.00115893
0.00100913
0.000860086
0.000661425
0.000933817
0.00229664
0.00360502
0.00492949
0.00574947
0.00662082
0.00736727
0.00784774
0.00840748
0.00884161
0.00928832
0.00981466
0.0101778
0.01036
0.010626
0.0105054
0.00986701
0.00951252
0.00936103
0.00948559
0.0103315
0.0122329
0.0140602
0.00801734
0.00562079
0.00473049
0.00602733
0.0120175
0.0109825
0.010046
0.00979832
0.00950112
0.00924937
0.00888413
0.00854543
0.00890691
0.00658198
0.0015014
0.00171686
0.00255786
0.00108627
0.000852012
0.00150792
0.00274954
0.00418478
0.00628678
0.00784462
0.00909297
0.00980567
0.010591
0.0111921
0.0116609
0.0120684
0.0124182
0.0128971
0.0138102
0.0151109
0.0157939
0.0152717
0.014796
0.0153176
0.0174328
0.0217779
0.02238
0.0152154
0.00989675
0.00736698
0.0114171
0.0160467
0.0179692
0.0182365
0.0176293
0.0170631
0.0165895
0.0161848
0.0157276
0.0165562
0.014072
0.00177951
0.00201117
0.00216502
0.0029407
0.0015162
0.00117353
0.00186099
0.00307892
0.00470291
0.00673128
0.00919558
0.0111377
0.0128426
0.0140892
0.0150324
0.0158378
0.0164957
0.0173541
0.0191563
0.0223077
0.0239484
0.0212451
0.0193471
0.0194411
0.0214889
0.0244805
0.0239922
0.0185772
0.013211
0.0108131
0.0172677
0.0269192
0.0315659
0.0306247
0.0281951
0.0262279
0.0247407
0.0237428
0.0229204
0.0233261
0.0225436
0.0020923
0.0022103
0.00238092
0.00242693
0.00333089
0.00252237
0.00142567
0.00216136
0.00335692
0.00504864
0.00708382
0.00975384
0.0125348
0.0150497
0.0173259
0.0191406
0.0204231
0.0216165
0.0238882
0.028665
0.0344355
0.0289659
0.0247147
0.0241008
0.026219
0.0298736
0.0299067
0.0240081
0.017723
0.0158164
0.0257074
0.0412008
0.0516924
0.0472795
0.0405191
0.0361307
0.0332124
0.031257
0.0299459
0.0294534
0.029945
0.00250207
0.00261537
0.00274212
0.00285234
0.00281786
0.00409862
0.00717821
0.00164827
0.00239282
0.00361037
0.00526833
0.00738469
0.0099972
0.0132908
0.0166173
0.0198005
0.0226439
0.0250331
0.0276428
0.0325325
0.0436771
0.0412292
0.0322612
0.0301241
0.0322808
0.0380747
0.0398636
0.0310392
0.0234064
0.0234484
0.0377406
0.0582925
0.0798446
0.0678223
0.0542148
0.0468298
0.0422912
0.039201
0.0372384
0.0357542
0.0363693
0.00297965
0.00304919
0.00312826
0.00326292
0.00331207
0.00327703
0.00499161
0.0562764
0.00261097
0.00251168
0.00379816
0.00543586
0.007574
0.0102133
0.0135603
0.017584
0.0216825
0.0255353
0.0293202
0.0345195
0.0451793
0.0618878
0.0454253
0.0389581
0.0406191
0.050708
0.0572736
0.0397414
0.0316213
0.0358029
0.0557581
0.0804358
0.115373
0.0924362
0.0702197
0.0592315
0.052718
0.048249
0.0453584
0.042807
0.0428497
0.00351831
0.00357163
0.00360508
0.00367211
0.00381218
0.00386163
0.00374751
0.00556963
24.5025
1.21716
0.00242951
0.00385896
0.0055465
0.00767018
0.0103666
0.0137242
0.0180388
0.0230119
0.0280352
0.0336308
0.0424347
0.0620041
0.0763715
0.0555005
0.0536711
0.071369
0.100323
0.0507503
0.043924
0.0561651
0.0843929
0.111417
0.152744
0.122843
0.0905754
0.0747232
0.0654959
0.0591556
0.0549124
0.0511093
0.0501474
0.00413302
0.00417694
0.00419116
0.00421197
0.0042813
0.00444203
0.00446922
0.00432976
0.00568393
0.0448091
0.0131381
0.00280763
0.00372766
0.00555762
0.00770884
0.0104192
0.0138637
0.0182897
0.023889
0.0302341
0.038
0.0499073
0.0733028
0.094149
0.0768749
0.0873776
0.089177
0.0591496
0.0569633
0.0795713
0.12059
0.14737
0.182301
0.162399
0.118864
0.0956108
0.0821646
0.0730427
0.0667588
0.0613607
0.0589647
0.00483627
0.00487646
0.00488174
0.00487746
0.00489335
0.00496501
0.0051368
0.00518655
0.00502589
0.0057065
0.0410233
0.0310151
0.0110225
0.00350729
0.00537142
0.00764099
0.0103888
0.0139191
0.0185123
0.0244734
0.0319886
0.0410967
0.0527468
0.0683437
0.0761597
0.0689591
0.0632789
0.0576992
0.062118
0.0860076
0.129431
0.165119
0.200359
0.2146
0.162768
0.126482
0.105725
0.0920346
0.082504
0.074808
0.0703489
0.00564712
0.00568693
0.00569107
0.00567219
0.00565491
0.00566876
0.00574514
0.00591561
0.00603417
0.00584269
0.00632872
0.0149791
0.054839
0.0190124
0.00451537
0.00486881
0.00736757
0.0102409
0.0138669
0.0186378
0.0248444
0.032482
0.0410911
0.0502157
0.0578614
0.0578147
0.0540492
0.0541741
0.0630736
0.0865282
0.12402
0.164119
0.207537
0.26907
0.241788
0.177429
0.141923
0.119842
0.104875
0.093634
0.0859579
0.00658661
0.00662524
0.00663511
0.00661153
0.00657243
0.00655032
0.0065644
0.00663623
0.00680457
0.00698175
0.00687025
0.00691051
0.0103934
0.216013
0.0882436
0.00675991
0.00390678
0.00669331
0.00984175
0.0136472
0.0185444
0.0245361
0.0312408
0.038366
0.0453744
0.0506659
0.0515679
0.0536291
0.0639489
0.0862058
0.118976
0.158872
0.207101
0.2926
0.472227
0.273043
0.197175
0.160161
0.137447
0.121002
0.108263
0.00767819
0.00771711
0.00773745
0.00771423
0.00766153
0.00761002
0.00758258
0.00759264
0.0076525
0.00781502
0.00802975
0.0080406
0.00793859
0.00866299
0.0290389
0.163986
0.0395924
0.0123248
0.00560018
0.00894865
0.0130834
0.0178299
0.0231287
0.0287947
0.0346967
0.0410898
0.0475038
0.0538423
0.0643759
0.0836916
0.112583
0.150506
0.198642
0.271169
0.415618
0.387049
0.266618
0.209843
0.177033
0.155698
0.138977
0.00895324
0.00899195
0.00902777
0.00900958
0.00894661
0.00887374
0.00881097
0.00877621
0.0087779
0.00882713
0.00896989
0.00921057
0.00933328
0.00917529
0.00928889
0.0145153
0.0859458
0.224725
0.026458
0.00727126
0.00693435
0.0115861
0.0161072
0.0207664
0.0256115
0.0309575
0.0379145
0.0477045
0.0602259
0.0774549
0.102286
0.135957
0.17858
0.228213
0.264575
0.263837
0.242408
0.218245
0.196539
0.180158
0.166477
0.0104507
0.0104899
0.0105456
0.0105365
0.0104642
0.0103746
0.0102853
0.010209
0.0101627
0.0101537
0.0101911
0.0103097
0.0105372
0.0107847
0.0106915
0.0105982
0.011403
0.0497691
0.200486
6.44531
0.0177628
0.00852176
0.00820997
0.0130698
0.0175007
0.0218247
0.0269922
0.0353289
0.0483483
0.065117
0.0858988
0.112615
0.145727
0.180563
0.202481
0.203658
0.195771
0.1867
0.177872
0.170481
0.165655
0.0122193
0.0122605
0.012341
0.0123434
0.0122637
0.0121566
0.0120449
0.0119334
0.0118385
0.0117805
0.0117609
0.0117857
0.0118804
0.0120827
0.0123821
0.0124751
0.0123245
0.0123125
0.0163573
0.181487
0.480445
0
0.0176922
0.0090472
0.00778994
0.0127415
0.0170047
0.0223011
0.031399
0.0455881
0.0636614
0.0842866
0.107162
0.13088
0.1505
0.160444
0.161655
0.158689
0.15441
0.150013
0.147443
0.014297
0.0143425
0.0144529
0.0144696
0.0143843
0.0142616
0.01413
0.0139907
0.013857
0.0137473
0.0136733
0.0136432
0.0136602
0.0137335
0.01391
0.0142003
0.014564
0.0144876
0.0142989
0.0144077
0.0278387
0.14716
1.5013
0
0.0384297
0.00901803
0.0064773
0.00841263
0.0143611
0.0238233
0.0375438
0.0543033
0.0723149
0.0900625
0.106251
0.119281
0.127875
0.132195
0.133157
0.131973
0.130626
0.016638
0.0166855
0.0168283
0.0168574
0.0167647
0.0166263
0.0164726
0.0163083
0.0161392
0.0159845
0.0158676
0.0157873
0.0157559
0.0157758
0.0158473
0.0160035
0.0162907
0.016738
0.0170313
0.0168638
0.0168992
0.0177947
0.0458397
0.213242
1.52315
0
0.367873
0.0287625
0.00873414
0.0119967
0.0108645
0.0242989
0.0404491
0.0567426
0.0721015
0.0856588
0.0969501
0.105727
0.11181
0.115319
0.116862
0.0191648
0.0192097
0.0193848
0.0194248
0.0193227
0.019169
0.0189932
0.0188026
0.0185994
0.018409
0.0182457
0.0181197
0.0180401
0.0180154
0.0180487
0.0181396
0.0182956
0.018589
0.0190512
0.0196514
0.0200399
0.0201426
0.0206778
0.0224229
0.0467909
0.224459
1.08952
5.04712
0
0
0.0229558
0.0125158
0.0200587
0.0221615
0.0403449
0.0561446
0.0698764
0.0814262
0.0907373
0.0978681
0.102838
0.0218531
0.0218949
0.0221045
0.0221557
0.0220461
0.0218791
0.0216851
0.0214692
0.0212398
0.0210169
0.0208096
0.0206435
0.0205178
0.020445
0.0204324
0.0204858
0.0206053
0.0207891
0.0210851
0.0215336
0.0222989
0.0235101
0.0244617
0.0249078
0.0256914
0.0272884
0.0369299
0.140214
0.419906
2.16077
0
0
0
0.0150471
0.0219577
0.0175396
0.0388057
0.0548145
0.0679032
0.0785598
0.0867875
0.024724
0.0247637
0.0250141
0.0250753
0.024962
0.0247817
0.0245727
0.0243321
0.0240792
0.0238223
0.0235836
0.0233789
0.0232132
0.0230962
0.0230368
0.0230412
0.0231179
0.0232679
0.0234974
0.0237764
0.0243043
0.0252057
0.0263792
0.0279973
0.0298655
0.031284
0.0318689
0.0323718
0.0346912
0.0643999
0.273952
1.4031
6.33315
0
0
0.0159381
0.0237942
0.0104641
0.0354594
0.052486
0.0649661
0.0277995
0.0278369
0.0281278
0.0282041
0.0280856
0.027896
0.0276711
0.0274106
0.0271325
0.0268495
0.0265878
0.0263475
0.026148
0.0259932
0.0258934
0.0258548
0.0258852
0.0259904
0.0261824
0.0264271
0.0268555
0.0275053
0.0282873
0.0292942
0.0306062
0.0325621
0.0353723
0.0385644
0.0399987
0.0391176
0.0372878
0.0454
0.159706
0.483627
2.68244
0
0
0.211756
0.0127151
0.0278386
0.0247058
0.0310958
0.0311372
0.0314686
0.0315616
0.0314357
0.0312382
0.030996
0.0307181
0.0304147
0.0301112
0.0298253
0.029554
0.0293251
0.0291395
0.0290065
0.0289353
0.0289304
0.0289978
0.0291488
0.0293629
0.0297757
0.0304051
0.0310669
0.0317782
0.0326012
0.0335899
0.0347981
0.0366001
0.0395697
0.0439637
0.0486705
0.0493579
0.0452025
0.0426045
0.0732043
0.323327
1.57996
5.84001
0
0
0.0265507
0.0346438
0.0346807
0.0350535
0.0351628
0.0350334
0.0348257
0.0345687
0.0342716
0.0339466
0.0336227
0.0333127
0.033023
0.0327733
0.0325628
0.0324027
0.0323036
0.0322719
0.0323147
0.0324396
0.0326315
0.0330252
0.0336506
0.0343202
0.0350277
0.0357771
0.036545
0.0372957
0.0380478
0.0388711
0.0400189
0.0420312
0.0454834
0.0509474
0.0574507
0.0583924
0.0518972
0.050565
0.146238
0.548948
2.09949
4.55165
0.0384605
0.0384945
0.0389126
0.0390351
0.0389021
0.0386819
0.0384099
0.0380921
0.0377477
0.0374022
0.0370749
0.0367853
0.0365195
0.0362928
0.0361149
0.0359975
0.0359516
0.0359861
0.0361075
0.0363095
0.0367153
0.0373507
0.0380417
0.0387843
0.0395958
0.0404622
0.0413226
0.0420714
0.0426468
0.0430405
0.0433166
0.0436438
0.0443629
0.0458867
0.0488432
0.0538259
0.0613824
0.0708891
0.0687383
0.0701831
0.119993
0.042583
0.0426009
0.0430628
0.0431983
0.0430602
0.0428211
0.0425304
0.0421872
0.0418214
0.0414526
0.0411084
0.0408123
0.040533
0.0402953
0.0401078
0.0399833
0.0399351
0.0399764
0.0401111
0.040351
0.0407988
0.0414731
0.0422057
0.04298
0.0438177
0.0447252
0.0456624
0.046556
0.04731
0.0478153
0.0479785
0.047762
0.0472506
0.0465556
0.0458756
0.045391
0.0451256
0.0456743
0.0461301
0.0503147
0.0457128
0.0470213
0.0470377
0.0475351
0.047675
0.0475238
0.0472637
0.0469454
0.046575
0.0461807
0.0457891
0.0454249
0.0451169
0.0448211
0.044572
0.0443727
0.0442392
0.0441827
0.0442281
0.0443727
0.0446486
0.0451274
0.0458158
0.0465577
0.0473089
0.0480784
0.0488766
0.0496493
0.0503337
0.0508555
0.0511557
0.0511537
0.0507793
0.0500293
0.0489435
0.0475601
0.046001
0.0443533
0.0428899
0.0409855
0.0408809
0.0363767
0.0518292
0.0518237
0.0523507
0.0524956
0.0523213
0.0520315
0.0516762
0.0512695
0.0508381
0.0504161
0.0500231
0.0496978
0.0493945
0.0491291
0.0489127
0.048759
0.0486822
0.0487122
0.0488454
0.0491348
0.0496103
0.0502464
0.0509222
0.0515551
0.0521318
0.0526492
0.0530578
0.0532833
0.0532685
0.0529883
0.0524306
0.0515984
0.0505524
0.0493419
0.0479643
0.0464738
0.0449394
0.0435813
0.041716
0.0415078
0.0373913
0.0570312
0.0570176
0.0575577
0.0576885
0.0574813
0.0571465
0.0567375
0.056277
0.0557912
0.0553195
0.0548788
0.0545131
0.0541978
0.053896
0.0536439
0.053442
0.0533114
0.0532823
0.0533625
0.0536027
0.0539872
0.054455
0.0549234
0.0552654
0.0554948
0.0555968
0.0555283
0.0552348
0.0547099
0.053951
0.0530022
0.0518862
0.0506714
0.0493971
0.0480719
0.0467289
0.0454012
0.0442857
0.0427266
0.0428333
0.0392274
0.0626905
0.0626348
0.0631909
0.063294
0.0630311
0.0626298
0.0621526
0.0616153
0.0610579
0.0605103
0.0600031
0.0595651
0.0592062
0.0588396
0.0585158
0.0582243
0.0579997
0.0578618
0.057812
0.057912
0.0581014
0.0582846
0.058434
0.0584084
0.0582209
0.0578733
0.0573736
0.0566887
0.0558345
0.0548262
0.0537067
0.0524957
0.051254
0.0500101
0.0487638
0.047542
0.0463562
0.045396
0.0440248
0.0443342
0.0410899
0.0688332
0.0687555
0.0692889
0.0693382
0.0690071
0.0685164
0.067947
0.0673128
0.0666583
0.066014
0.0654122
0.064879
0.0644343
0.0639755
0.0635355
0.0631241
0.0627578
0.0624554
0.0622148
0.062124
0.0620518
0.0619152
0.0617182
0.0613315
0.060773
0.060083
0.0592684
0.0583264
0.0572701
0.0561271
0.0549332
0.0537127
0.0525025
0.0513274
0.0501763
0.0490736
0.0480039
0.0471635
0.0459069
0.0463968
0.0433717
0.0755335
0.0753966
0.0759098
0.0758857
0.0754451
0.0748424
0.0741469
0.0733872
0.0725988
0.0718256
0.0710907
0.070431
0.0698536
0.0692642
0.0686649
0.068095
0.0675333
0.0670335
0.0665647
0.0662387
0.065872
0.0654153
0.0648893
0.0641989
0.0633525
0.0624126
0.0613809
0.0602775
0.0591073
0.057913
0.0567107
0.0555258
0.0543747
0.053278
0.0522151
0.0512132
0.0502387
0.0494994
0.0483166
0.0489936
0.0460938
0.0828503
0.0826698
0.0831013
0.0829752
0.0823959
0.0816377
0.0807752
0.0798578
0.0788962
0.0779626
0.077056
0.0762247
0.0754716
0.0747175
0.0739181
0.0731516
0.0723717
0.071632
0.0708989
0.0703074
0.0696431
0.0688824
0.0680754
0.0671277
0.0660522
0.0649269
0.0637605
0.0625692
0.0613581
0.0601564
0.058977
0.0578353
0.0567426
0.0557111
0.0547229
0.0538023
0.0529043
0.0522494
0.0511186
0.0519915
0.0491531
0.090875
0.0905994
0.0909494
0.0906656
0.0899013
0.0889441
0.0878829
0.0867571
0.0855997
0.0844552
0.0833518
0.0823012
0.0813514
0.0803977
0.0793823
0.0783831
0.077364
0.0763591
0.0753718
0.0745079
0.0735759
0.0725432
0.0715017
0.0703465
0.0691214
0.0678757
0.0666299
0.065385
0.064157
0.0629581
0.0618088
0.0607083
0.05967
0.0586961
0.0577744
0.056922
0.0560879
0.0555094
0.0544083
0.0554917
0.0526278
0.0996993
0.0993326
0.099517
0.0990404
0.0980498
0.0968331
0.0955257
0.0941504
0.092753
0.0913594
0.0900186
0.0887169
0.0875227
0.0863434
0.0851009
0.083854
0.0825931
0.0813343
0.0800935
0.0789691
0.0777871
0.0765203
0.0752837
0.0739709
0.0726246
0.0712792
0.0699649
0.0686808
0.0674435
0.0662546
0.065129
0.0640612
0.0630617
0.0621294
0.061252
0.0604468
0.0596521
0.0591267
0.0580235
0.0593195
0.056359
0.109457
0.108942
0.108942
0.108203
0.106915
0.105398
0.103773
0.102104
0.100408
0.0987323
0.0971026
0.0955266
0.0940469
0.0926101
0.0911167
0.0896174
0.0881066
0.0866007
0.085115
0.083755
0.0823429
0.0808821
0.0794886
0.0780571
0.0766151
0.0752047
0.0738526
0.0725562
0.0713208
0.0701479
0.0690431
0.0680017
0.0670318
0.0661342
0.0652897
0.0645183
0.0637498
0.0632712
0.0621424
0.0636769
0.0605066
0.120298
0.119615
0.119321
0.118254
0.116616
0.114691
0.112705
0.110662
0.108641
0.106616
0.104678
0.10278
0.101006
0.099273
0.0975247
0.095753
0.0940067
0.0922597
0.0905432
0.0889504
0.0873392
0.0857072
0.0841731
0.0826291
0.0811083
0.0796365
0.0782414
0.0769153
0.0756642
0.0744812
0.0733739
0.0723362
0.0713735
0.0704816
0.0696437
0.0688818
0.0681136
0.0676512
0.0664721
0.0682096
0.0647403
0.132411
0.13147
0.13081
0.129313
0.127208
0.124827
0.122376
0.119921
0.117489
0.115096
0.112784
0.110554
0.108431
0.106398
0.104357
0.102327
0.100328
0.0983552
0.0964078
0.0946156
0.0928133
0.0910439
0.0893928
0.0877711
0.0861853
0.0846769
0.0832537
0.0819177
0.0806599
0.0794838
0.0783842
0.077359
0.0764055
0.0755255
0.0746943
0.0739393
0.0731619
0.0727111
0.071457
0.0734605
0.0695182
0.146037
0.144749
0.143543
0.141494
0.138811
0.135864
0.132865
0.129927
0.12703
0.124225
0.121503
0.118911
0.116426
0.11409
0.111765
0.109475
0.107232
0.105039
0.102871
0.100884
0.0989023
0.0969795
0.0951889
0.0934636
0.0917934
0.0902156
0.0887298
0.0873403
0.0860326
0.0848105
0.0836656
0.0825969
0.0815982
0.0806722
0.0797925
0.0789884
0.0781518
0.0776557
0.0762888
0.0784293
0.0739381
0.161556
0.159746
0.157824
0.155002
0.151573
0.147895
0.144243
0.140708
0.137309
0.134026
0.13088
0.127875
0.125004
0.122296
0.119651
0.117063
0.114571
0.112147
0.109781
0.107592
0.105431
0.10337
0.101483
0.0996856
0.0979657
0.0963458
0.0948307
0.0934179
0.0920953
0.0908586
0.0897006
0.0886154
0.0875998
0.0866514
0.0857449
0.0849098
0.0840338
0.083512
0.0820279
0.084373
0.0790924
0.179499
0.176979
0.174062
0.170229
0.165782
0.161188
0.156667
0.152415
0.148366
0.144564
0.14093
0.137531
0.134288
0.131301
0.128396
0.125551
0.122809
0.120168
0.117597
0.11523
0.112914
0.110714
0.108686
0.106768
0.104936
0.103207
0.101582
0.100061
0.0986281
0.0972772
0.0959996
0.0947916
0.0936481
0.0925673
0.0915243
0.0905517
0.0895313
0.0888746
0.0872103
0.0895647
0.0835134
0.20015
0.196506
0.19223
0.187098
0.181516
0.175827
0.170341
0.165223
0.160445
0.155969
0.151752
0.147785
0.144028
0.14051
0.13717
0.133973
0.13098
0.128106
0.125326
0.122729
0.12021
0.117839
0.115687
0.113671
0.111765
0.109971
0.108302
0.106744
0.105284
0.103902
0.102593
0.101342
0.100147
0.0989996
0.0978789
0.0968096
0.0956893
0.0949249
0.0931078
0.0954065
0.0882835
0.223209
0.217408
0.211009
0.204193
0.19732
0.190646
0.184424
0.178625
0.17327
0.168234
0.163558
0.159195
0.155174
0.151471
0.147986
0.144569
0.141348
0.13829
0.135392
0.132704
0.130121
0.127656
0.125361
0.123175
0.121095
0.119111
0.117233
0.115446
0.113745
0.112113
0.110544
0.109027
0.107562
0.106142
0.104749
0.103414
0.102026
0.101018
0.0989288
0.10117
0.0930877
0.250911
0.241314
0.231302
0.221595
0.212631
0.204562
0.197416
0.191062
0.185317
0.17995
0.17486
0.169981
0.165309
0.160861
0.156668
0.152742
0.149059
0.145525
0.14212
0.138944
0.135921
0.133131
0.1306
0.128267
0.126089
0.124048
0.122135
0.120329
0.118609
0.116952
0.115346
0.113772
0.112222
0.110687
0.109146
0.107617
0.106024
0.104722
0.102429
0.10399
0.0949929
0.294083
0.279623
0.264007
0.249348
0.236159
0.224593
0.214546
0.205951
0.198545
0.192146
0.186545
0.181644
0.17731
0.173524
0.170155
0.167016
0.164077
0.1613
0.158527
0.155786
0.152972
0.150156
0.147411
0.144744
0.142148
0.13962
0.137166
0.134789
0.132486
0.130246
0.128064
0.125934
0.123855
0.121823
0.11982
0.11788
0.115891
0.114287
0.111594
0.113363
0.102954
0.356778
0.329689
0.302847
0.281199
0.264204
0.250575
0.239278
0.22956
0.220823
0.212634
0.204804
0.197237
0.189915
0.182865
0.175996
0.169532
0.16379
0.158757
0.154332
0.15044
0.146929
0.143751
0.140877
0.138245
0.135792
0.133478
0.131279
0.129165
0.127108
0.125081
0.123065
0.121041
0.119
0.116934
0.114826
0.112688
0.110484
0.108457
0.105672
0.105862
0.0960689
0.368739
0.331265
0.304923
0.285573
0.26984
0.255638
0.242664
0.23103
0.221102
0.213012
0.206829
0.202546
0.200025
0.199008
0.199586
0.201741
0.204198
0.205562
0.205289
0.203563
0.200719
0.197224
0.193292
0.189159
0.18496
0.180776
0.176653
0.172632
0.168726
0.164939
0.161262
0.157693
0.154214
0.150825
0.147506
0.144295
0.141044
0.138224
0.134201
0.135302
0.120777
0.258899
0.214812
0.189397
0.173856
0.164073
0.158024
0.154503
0.152759
0.152213
0.152396
0.152882
0.15331
0.153397
0.153028
0.152174
0.150605
0.148382
0.14595
0.143538
0.141245
0.139112
0.137061
0.135183
0.133447
0.131817
0.130267
0.12877
0.127291
0.125798
0.124267
0.122671
0.120989
0.119206
0.117311
0.11529
0.113147
0.110853
0.10861
0.105611
0.105325
0.0947377
0.00495673
0.0107342
0.0186073
0.0252124
0.0294093
0.0328506
0.0391334
0.0430492
0.023988
0.0134101
0.00703699
0.00466045
0.00581167
0.00610068
0.00602491
0.0060718
0.0061186
0.00630289
0.00649651
0.00679488
0.00711569
0.00750418
0.00793203
0.00840372
0.00891506
0.00946364
0.01005
0.0106731
0.0113309
0.0120188
0.0127524
0.0135333
0.0143711
0.0152831
0.0162801
0.0173791
0.0186007
0.0199625
0.0215
0.0232411
0.025213
0.0274912
0.0301121
0.0331531
0.0366843
0.0407533
0.0452915
0.0502036
0.0548098
0.0584374
0.0603457
0.0608504
0.060387
0.0596908
0.0592886
0.0586697
0.0590131
0.0591405
0.0601889
0.0609971
0.0628912
0.0642682
0.0667029
0.0694468
0.0721516
0.0762068
0.0794005
0.0841472
0.0886316
0.0941579
0.0985195
0.105083
0.108375
0.116109
0.0106779
0.0151449
0.0220144
0.027713
0.0310489
0.0330737
0.0366917
0.0481256
0.0379595
0.0184717
0.00908233
0.00460016
0.00553866
0.00607674
0.00614497
0.00628517
0.00637087
0.00658666
0.00679409
0.00710003
0.00742991
0.00782118
0.00825666
0.0087354
0.00925506
0.0098108
0.010407
0.0110431
0.0117149
0.0124174
0.0131702
0.0139765
0.0148388
0.0157843
0.016812
0.0179456
0.0192058
0.0206058
0.0221833
0.0239642
0.0259785
0.0282906
0.0309399
0.0339954
0.037496
0.041497
0.0458854
0.0505216
0.054906
0.0584108
0.0604611
0.0613149
0.0612503
0.0608842
0.0608103
0.0603196
0.0608816
0.061114
0.0623544
0.0632084
0.0653017
0.0667342
0.0692384
0.0722368
0.074923
0.0792059
0.0824226
0.0872023
0.0917202
0.0973644
0.101291
0.108029
0.110496
0.118441
0.0166325
0.0206376
0.0265
0.0314267
0.0342045
0.0352923
0.0368249
0.0429029
0.0654564
0.0287168
0.0133425
0.00568585
0.00498477
0.00587442
0.00611104
0.00637632
0.00657826
0.00684596
0.00711252
0.00743331
0.00779089
0.00819011
0.00863913
0.0091288
0.00966033
0.0102279
0.0108353
0.0114875
0.0121766
0.0128993
0.0136724
0.0145054
0.0153934
0.0163704
0.0174275
0.0185912
0.0198802
0.0213052
0.0229006
0.0246927
0.0267036
0.0289831
0.0315793
0.0345036
0.0378321
0.0414967
0.0454123
0.0495606
0.053433
0.0565935
0.0589694
0.0603358
0.0610054
0.0612451
0.0615154
0.0618439
0.0625007
0.063143
0.0644682
0.0656557
0.0677004
0.0696828
0.072123
0.0752561
0.0782076
0.0823929
0.0861448
0.090735
0.0952678
0.100908
0.104643
0.111419
0.113012
0.121196
0.0220581
0.0259571
0.0317587
0.0364961
0.0391216
0.0397186
0.0396595
0.0423714
0.0560821
0.0518197
0.020949
0.00904473
0.00423185
0.0057374
0.00601498
0.00637071
0.00670297
0.00704234
0.00738395
0.00773737
0.00813039
0.00854628
0.00901182
0.0095149
0.0100595
0.0106402
0.011261
0.0119285
0.0126363
0.0133813
0.0141778
0.0150362
0.0159503
0.0169538
0.0180362
0.0192239
0.0205324
0.0219714
0.0235723
0.0253555
0.0273415
0.0295646
0.0320678
0.0348437
0.0379555
0.0413031
0.044831
0.0485383
0.0520328
0.0550431
0.057613
0.0594304
0.0607222
0.0615642
0.0622652
0.063268
0.0641284
0.0651799
0.0666396
0.0681766
0.0702352
0.0727023
0.0751563
0.0783747
0.0816036
0.0857043
0.089906
0.0943739
0.0988578
0.104458
0.107965
0.11483
0.115507
0.124025
0.0279381
0.0311942
0.0374186
0.0423147
0.0450577
0.0455154
0.04432
0.0444926
0.0505746
0.0904766
0.0347121
0.0151779
0.00603213
0.00509211
0.00597264
0.00631498
0.00675559
0.00717611
0.00759575
0.00799673
0.00843053
0.0088709
0.00935552
0.0098742
0.0104334
0.0110282
0.0116644
0.0123466
0.0130726
0.0138396
0.0146604
0.0155439
0.0164841
0.0175122
0.0186156
0.0198192
0.021138
0.0225814
0.0241774
0.0259361
0.0278867
0.030043
0.0324377
0.0350795
0.0379678
0.0410739
0.044326
0.0476757
0.0509348
0.0539408
0.0566019
0.0588068
0.0605938
0.0619962
0.0632434
0.0646249
0.0658524
0.0672371
0.0689473
0.0707546
0.0730027
0.0757277
0.0782915
0.0816226
0.0850272
0.0891616
0.0935744
0.0979973
0.102376
0.107922
0.11108
0.118076
0.117822
0.126725
0.034245
0.0370362
0.043478
0.0486218
0.0516742
0.0524019
0.0507678
0.0488376
0.0507766
0.0652704
0.0677293
0.0252303
0.010901
0.00444542
0.00589452
0.00624712
0.00673803
0.00724695
0.00774457
0.00820435
0.00868387
0.00915587
0.00966288
0.0101994
0.010775
0.0113852
0.0120389
0.0127374
0.0134811
0.0142676
0.0151087
0.0160123
0.0169736
0.0180226
0.0191417
0.0203538
0.0216723
0.0231077
0.0246798
0.0263965
0.0282914
0.0303599
0.0326318
0.0351147
0.0377889
0.0406627
0.0436527
0.0467259
0.0498067
0.0527791
0.0555136
0.0580178
0.0602228
0.0621408
0.0639249
0.0656989
0.0673812
0.0691336
0.0711699
0.0732661
0.0757762
0.0787057
0.0814362
0.0849349
0.0884776
0.0926955
0.09718
0.101574
0.105817
0.111306
0.113996
0.121114
0.119935
0.129175
0.0412071
0.043661
0.0500385
0.0552808
0.0585936
0.0598395
0.0585352
0.055298
0.0540957
0.0598058
0.108844
0.0432919
0.0189988
0.00788198
0.00459688
0.00621662
0.00665554
0.00724281
0.00782348
0.00834968
0.0088801
0.00939141
0.00992556
0.0104824
0.0110755
0.0117024
0.0123742
0.013091
0.0138542
0.0146618
0.0155225
0.0164408
0.0174135
0.0184697
0.0195912
0.0208016
0.0221098
0.0235257
0.025058
0.0267179
0.0285353
0.0304968
0.0326303
0.0349307
0.0374023
0.0400392
0.0427732
0.0456164
0.0485249
0.0513987
0.0541748
0.0568626
0.0593854
0.0617312
0.0639594
0.0662217
0.0683766
0.0705788
0.0729814
0.07546
0.0782374
0.081464
0.0844213
0.0881256
0.0918646
0.0961604
0.100709
0.105078
0.109173
0.114616
0.11679
0.123996
0.121924
0.131422
0.0490593
0.0512454
0.0572519
0.0622983
0.065582
0.0672432
0.066801
0.0635944
0.059893
0.0606791
0.075416
0.0927986
0.0322238
0.0146121
0.00599143
0.00550692
0.00656874
0.00715211
0.00782
0.00842196
0.00900754
0.00956529
0.010132
0.0107128
0.0113248
0.0119682
0.0126555
0.0133895
0.0141718
0.0150011
0.0158848
0.0168234
0.0178099
0.0188657
0.0199746
0.021163
0.0224408
0.0238187
0.0252994
0.0268937
0.0286254
0.0304749
0.032465
0.0345878
0.0368674
0.0392814
0.0417903
0.0444216
0.047151
0.0498995
0.0526619
0.0554187
0.0581359
0.0607847
0.0633607
0.0660696
0.0686655
0.0713492
0.074136
0.0770743
0.0801507
0.0837712
0.087038
0.0909587
0.0949861
0.0993735
0.104047
0.108424
0.112377
0.117781
0.119466
0.126745
0.123839
0.133561
0.058142
0.0599886
0.0652416
0.0697043
0.0725464
0.0742268
0.0746619
0.0727193
0.0679096
0.0649466
0.0698844
0.114801
0.0576756
0.0254714
0.01158
0.00507541
0.00618056
0.00700541
0.00771708
0.00840974
0.00905831
0.00966735
0.0102711
0.0108806
0.011514
0.0121725
0.0128727
0.0136201
0.0144157
0.0152581
0.0161554
0.0171092
0.0181139
0.0191821
0.0202928
0.0214631
0.0227001
0.0240173
0.0254237
0.0269331
0.0285669
0.0303038
0.0321585
0.0341269
0.0362331
0.0384531
0.0407714
0.0432069
0.045754
0.0483693
0.0510684
0.0538141
0.0566124
0.0594396
0.0622642
0.0652888
0.0682466
0.0713629
0.0745246
0.0779302
0.0813519
0.0854029
0.0890578
0.0932207
0.0976132
0.10214
0.107012
0.111456
0.115295
0.120669
0.121946
0.129281
0.125644
0.1356
0.0691336
0.0702486
0.0741626
0.0775868
0.0795221
0.0807014
0.0815094
0.0811841
0.0773847
0.0718169
0.0712036
0.0844587
0.16439
0.0438163
0.0209685
0.00953645
0.00500614
0.0066605
0.00752135
0.00829482
0.00902421
0.00969098
0.0103358
0.010978
0.0116343
0.0123108
0.0130281
0.0137881
0.0145892
0.0154339
0.0163277
0.0172729
0.0182678
0.0193279
0.0204425
0.02162
0.0228495
0.0241347
0.0254801
0.0269008
0.0284193
0.0300282
0.0317411
0.0335622
0.035508
0.0375634
0.0397201
0.041991
0.0443674
0.0468498
0.0494489
0.0521398
0.0549349
0.0578341
0.060806
0.0640051
0.0672285
0.0706566
0.0741732
0.0779658
0.0817727
0.0862211
0.0903235
0.094795
0.0995955
0.104332
0.109449
0.114037
0.117827
0.123191
0.12415
0.131516
0.127265
0.137485
0.083363
0.0828675
0.0845175
0.0863488
0.0868067
0.086894
0.0873281
0.0879876
0.0865662
0.0806195
0.0760512
0.0797256
0.114422
0.0844012
0.0359935
0.0178476
0.0082935
0.0053875
0.00711146
0.00805981
0.00888773
0.00963019
0.0103218
0.0109974
0.0116799
0.0123826
0.0131265
0.0139135
0.0147376
0.0155931
0.0164884
0.0174249
0.0183881
0.0193872
0.020428
0.0215406
0.0227324
0.0240024
0.0253353
0.0267279
0.0281854
0.029702
0.0312921
0.0329677
0.0347487
0.0366375
0.0386341
0.0407549
0.0429782
0.0453327
0.0478215
0.0504342
0.053173
0.0560661
0.0590869
0.0623565
0.0657348
0.0693595
0.0731475
0.0772351
0.0813952
0.0861868
0.0907442
0.0955849
0.100819
0.10585
0.111256
0.116078
0.11991
0.12531
0.126055
0.133426
0.128683
0.139191
0.103215
0.0998036
0.0981219
0.0973012
0.0954745
0.0936777
0.0928891
0.093441
0.093936
0.0901271
0.0833239
0.0815156
0.0925113
0.224749
0.0625506
0.0308667
0.015749
0.00767823
0.00585463
0.0075519
0.0086093
0.00946901
0.0102278
0.0109399
0.0116543
0.0123919
0.0131663
0.0139841
0.0148571
0.0157737
0.0167093
0.0176577
0.0186283
0.0196173
0.0206045
0.0215947
0.0226153
0.0237181
0.0249276
0.0262388
0.0276411
0.0291212
0.0306775
0.032296
0.0339862
0.0357515
0.0376051
0.0395693
0.0416326
0.0438373
0.0461976
0.0487074
0.0513644
0.0542112
0.0572099
0.0604851
0.0639126
0.0676415
0.0715785
0.0758717
0.080285
0.0853558
0.0903221
0.0955366
0.101224
0.10662
0.112379
0.117524
0.121511
0.126995
0.127664
0.13503
0.129913
0.140745
0.131235
0.124378
0.118678
0.113438
0.108062
0.103038
0.0997973
0.0989731
0.0998351
0.0987655
0.0920825
0.0865441
0.0890619
0.112534
0.122459
0.0512802
0.0273714
0.0144564
0.00755891
0.00627947
0.0079671
0.00913253
0.0100297
0.0108145
0.0115716
0.0123417
0.01314
0.013964
0.0148045
0.0156841
0.0166664
0.017715
0.0187428
0.019786
0.0208795
0.0219748
0.0230189
0.0240056
0.0249714
0.0260016
0.0271407
0.0284007
0.0297947
0.0313096
0.0329431
0.0346732
0.0364918
0.0383958
0.0403691
0.0424473
0.0446651
0.0470298
0.0495577
0.0523058
0.0552338
0.0584668
0.0618826
0.0656373
0.0696262
0.0740212
0.078586
0.0838325
0.0891273
0.0946655
0.100773
0.106563
0.112734
0.118284
0.122555
0.128182
0.128942
0.136322
0.130951
0.142173
0.159627
0.155281
0.148581
0.139724
0.129831
0.119455
0.111327
0.107055
0.106248
0.106022
0.101074
0.0933357
0.0907708
0.0985865
0.129567
0.0838398
0.0442176
0.0250275
0.0138483
0.0078157
0.00666789
0.00832235
0.0096074
0.0105684
0.011414
0.0122211
0.0130188
0.0138112
0.0145649
0.0153035
0.0160438
0.0168485
0.0178237
0.0189761
0.0200977
0.0212368
0.0225425
0.0239152
0.0252486
0.0264467
0.0275098
0.0285372
0.0295869
0.030728
0.0320249
0.033489
0.0351241
0.0369261
0.0388627