/*--------------------------------*- C++ -*----------------------------------*\
| =========                 |                                                 |
| \\      /  F ield         | OpenFOAM: The Open Source CFD Toolbox           |
|  \\    /   O peration     | Version:  2312                                  |
|   \\  /    A nd           | Website:  www.openfoam.com                      |
|    \\/     M anipulation  |                                                 |
\*---------------------------------------------------------------------------*/
FoamFile
{
    version     2.0;
    format      ascii;
    arch        "LSB;label=32;scalar=64";
    class       volScalarField;
    location    "300";
    object      turbulenceProperties:epsilon;
}
// * * * * * * * * * * * * * * * * * * * * * * * * * * * * * * * * * * * * * //

dimensions      [0 2 -3 0 0 0 0];

internalField   nonuniform List<scalar> 
11040
(
48.0177
110.706
58.0438
0.478176
0.310935
12.0843
15.0709
16.9097
15.6119
14.8143
13.5074
11.9951
10.5998
9.17419
7.92384
7.06181
6.67627
6.77583
6.98037
6.50311
4.3196
1.502
0.414309
0.123368
0.863849
1.68758
1.95592
0.830047
0.0923176
0.0862836
5.38606
18.4705
30.1571
32.2093
25.5944
15.5415
6.94479
2.14641
0.485371
4.59826
9.12028
0.913786
1.92094
11.0614
42.4901
49.103
70.9645
17.0635
4.13011
1.51813
0.75287
0.372515
0.207703
0.122486
0.0776814
0.0513001
0.036358
0.0298463
0.0289039
0.0296634
0.0387061
0.063182
0.0986691
0.140876
0.164304
0.121218
0.0497198
0.020259
0.129792
0.333464
0.295174
0.490673
0.10114
0.2927
0.649631
0.993182
1.45444
2.00762
2.87258
4.07257
3.73172
15.7803
0.327766
0.189593
0.0471255
3.23305
18.7698
90.6908
94.2071
42.6016
10.6796
4.26464
1.92358
1.04709
0.607374
0.387921
0.263394
0.200822
0.168356
0.148384
0.125814
0.104379
0.105756
0.155208
0.231152
0.252055
0.166771
0.0605799
0.0421224
0.144138
0.50106
0.74016
0.534999
0.435367
0.520496
0.739825
1.14789
1.66409
2.28953
3.02488
4.04311
3.63477
8.34291
0.16523
0.101269
0.0749773
0.025681
0.443955
11.2222
64.9808
97.9713
63.3575
22.0741
7.27217
3.32767
1.69214
0.963351
0.591783
0.414235
0.326968
0.268899
0.198281
0.123569
0.108423
0.213886
0.396224
0.496485
0.388984
0.22061
0.198069
0.436565
1.15705
1.24816
0.746168
0.351337
0.333242
0.55598
1.032
1.72726
2.63916
3.66784
4.9463
5.14339
6.90248
0.08642
0.0695635
0.0513455
0.0476681
0.0136385
0.0417902
4.08527
33.9832
81.0463
73.278
36.6708
12.9218
5.20153
2.53485
1.37925
0.849007
0.606348
0.476945
0.344534
0.183699
0.0993109
0.229262
0.521266
0.731986
0.637123
0.399013
0.352753
0.733804
1.80868
1.54898
0.770532
0.287274
0.19966
0.412975
1.00309
1.95528
3.25352
4.80707
6.56199
7.84493
8.50083
0.0422671
0.0354023
0.0293252
0.0249442
0.0262626
0.00593678
0.000766292
0.861235
14.1149
50.5862
69.6855
48.3768
21.931
8.51309
3.82859
2.00417
1.24581
0.908535
0.664962
0.372398
0.126784
0.172562
0.511058
0.819544
0.775959
0.476187
0.388633
0.919167
2.03289
1.49873
0.677307
0.262608
0.12342
0.335363
1.05562
2.2937
4.01614
6.18425
8.55706
11.2055
12.0096
0.0210108
0.0191602
0.0173014
0.0146098
0.013756
0.0143422
0.00289078
6.88972e-07
0.036682
4.2856
24.3008
51.203
51.5347
31.1918
13.9889
6.0139
3.05164
1.89899
1.35115
0.861657
0.326259
0.0953388
0.329877
0.678855
0.714392
0.394696
0.255454
0.916796
1.74673
1.1164
0.501195
0.23272
0.0873751
0.292637
1.10598
2.58867
4.69975
7.44121
10.4813
14.4975
16.3531
0.0108078
0.010178
0.00980592
0.00911166
0.00784198
0.0074563
0.00842732
0.00189858
9.08853e-15
1.39751e-10
0.766139
8.62614
28.4374
42.9139
36.0064
20.4032
9.55035
4.78713
2.93517
1.94007
0.992893
0.244841
0.0991723
0.347236
0.465714
0.207091
0.0599554
0.7892
1.21375
0.652384
0.302016
0.185623
0.0803033
0.257966
1.07382
2.68566
5.06241
8.23166
11.8495
16.9103
20.188
0.00567525
0.00544081
0.00536784
0.00526253
0.00493126
0.00425234
0.0041694
0.00475088
0.0016685
2.32499e-06
6.01556e-05
0.0374211
2.11434
11.8435
27.2601
33.0202
24.9153
14.111
7.4773
4.41771
2.59537
1.14317
0.26839
0.0874327
0.200256
0.152684
0.178136
0.885524
1.0172
0.505281
0.209577
0.166671
0.10491
0.218083
0.913884
2.46683
4.90463
8.24766
12.1979
17.6886
22.1368
0.00302693
0.00292861
0.00291609
0.0029265
0.00288875
0.00272592
0.00237776
0.0023008
0.00263001
0.00156553
2.98862e-06
4.52166e-06
0.0001578
0.333808
3.53738
13.0422
23.4628
24.7379
18.0682
10.9795
6.34333
3.50291
1.66429
0.634319
0.373191
0.612136
1.13912
1.88059
1.79662
1.01502
0.423966
0.272622
0.18163
0.17766
0.631074
1.9037
4.12559
7.32764
11.2255
16.4268
21.3011
0.00162828
0.00158326
0.0015787
0.00159988
0.00161955
0.00160393
0.00152022
0.00135222
0.00125383
0.00144745
0.00102687
5.8585e-05
9.86775e-07
1.33524e-05
0.00405113
0.674725
4.52799
12.6264
19.344
19.1432
14.172
8.92321
5.30369
3.07221
1.94445
1.99764
3.11955
4.18583
3.82438
2.35285
1.10061
0.587576
0.330274
0.152613
0.282109
1.09269
2.81927
5.52707
8.92541
13.2619
17.7285
0.000879788
0.000859484
0.000854399
0.000866673
0.000887512
0.000899566
0.00089195
0.000853891
0.000772304
0.000698501
0.000754394
0.000727109
0.000167883
1.59708e-08
1.71316e-07
0.00126168
0.0502731
1.01175
4.87128
11.3843
15.9486
15.424
12.009
8.49068
5.97289
4.88814
5.85766
7.33873
6.81321
4.45598
2.26787
1.13992
0.565344
0.186658
0.0337312
0.346982
1.38473
3.27332
5.89315
9.10159
12.5999
0.000476405
0.000466882
0.000462
0.000467599
0.000480608
0.000493768
0.000500964
0.000498342
0.00048294
0.000443816
0.000398718
0.000400109
0.000421297
0.000293883
6.08534e-06
3.07466e-08
1.26292e-06
8.97411e-05
0.117163
1.187
4.70117
9.7218
13.0193
13.3898
11.8705
9.95302
9.28915
10.2679
10.0814
7.16286
3.96289
1.98602
0.945509
0.362381
0.0816628
0.126977
0.623627
1.70903
3.3826
5.41431
7.81882
0.000257677
0.000253277
0.000249285
0.00025131
0.000258466
0.000267067
0.000274767
0.000279151
0.000278951
0.000272789
0.000255736
0.000230083
0.000219508
0.00023769
0.000222133
4.63281e-05
2.05171e-07
9.99777e-09
3.64482e-06
0.0134803
0.128915
1.13645
3.7558
7.38968
10.4485
12.008
12.388
12.3508
12.1233
9.90494
6.27105
3.36948
1.69571
0.871189
0.614857
0.744543
1.18178
1.93318
3.01243
4.18177
5.39023
0.000138803
0.000136745
0.000133882
0.00013435
0.000138103
0.000142939
0.000147968
0.000152447
0.000155249
0.000155806
0.000153536
0.00014655
0.000134285
0.000122674
0.00012864
0.000132718
9.77923e-05
9.3282e-07
1.43259e-08
3.48291e-13
1.65825e-05
0.0148183
0.099491
0.735459
2.37852
4.88193
7.7062
10.308
11.6879
11.2969
9.01072
5.91554
3.48606
2.17373
1.84836
2.26004
3.11136
4.18486
5.37248
6.42225
6.94951
7.42632e-05
7.32734e-05
7.13818e-05
7.13284e-05
7.32028e-05
7.58199e-05
7.86731e-05
8.16551e-05
8.43077e-05
8.59821e-05
8.65611e-05
8.58374e-05
8.31188e-05
7.76656e-05
7.04801e-05
6.89582e-05
7.30676e-05
7.21918e-05
2.56448e-05
1.70208e-08
9.02531e-10
0
1.68788e-05
0.00730933
0.0371828
0.305358
1.0574
2.54583
5.03371
7.75539
9.09657
8.61774
7.06311
5.54166
4.81044
5.10272
6.26162
7.98063
9.93826
11.8031
12.7268
3.96251e-05
3.91263e-05
3.79452e-05
3.7772e-05
3.86764e-05
4.0026e-05
4.15388e-05
4.32198e-05
4.49131e-05
4.63641e-05
4.73776e-05
4.77991e-05
4.75637e-05
4.65538e-05
4.42184e-05
4.07202e-05
3.68808e-05
3.81585e-05
4.0298e-05
3.83038e-05
4.12022e-06
2.7504e-08
2.52493e-11
0
1.00654e-06
0.00121474
0.00113731
0.0393569
0.255052
1.06851
2.96442
5.51573
7.63051
8.81839
9.40607
10.0349
11.21
13.0953
15.6671
18.6698
21.0473
2.16037e-05
2.13596e-05
2.06444e-05
2.05032e-05
2.0961e-05
2.1668e-05
2.24886e-05
2.34093e-05
2.44067e-05
2.53661e-05
2.61222e-05
2.66583e-05
2.68728e-05
2.67386e-05
2.62601e-05
2.52434e-05
2.35022e-05
2.11006e-05
1.98181e-05
2.09353e-05
2.05226e-05
1.64275e-05
7.52956e-07
7.763e-09
2.20953e-11
0
1.3242e-09
3.2448e-06
0.000971102
0.0155823
0.038891
0.400701
1.70892
4.22178
7.50528
10.8765
13.9938
16.9688
20.1375
23.6914
27.4519
1.22715e-05
1.21577e-05
1.17249e-05
1.16289e-05
1.18771e-05
1.2263e-05
1.27234e-05
1.32477e-05
1.38364e-05
1.44181e-05
1.49416e-05
1.5362e-05
1.56355e-05
1.5722e-05
1.56068e-05
1.52974e-05
1.47814e-05
1.38627e-05
1.25654e-05
1.11237e-05
1.0412e-05
1.03389e-05
9.09735e-06
6.554e-06
6.0413e-07
5.88302e-09
5.77871e-11
6.21344e-13
0
0
6.43947e-06
0.0021094
0.0327076
0.127263
0.927519
3.0562
6.71902
11.4508
16.6175
21.7945
27.0817
7.25853e-06
7.20359e-06
6.93454e-06
6.87089e-06
7.00874e-06
7.22533e-06
7.48755e-06
7.79349e-06
8.13583e-06
8.48681e-06
8.83019e-06
9.11811e-06
9.34395e-06
9.47802e-06
9.50178e-06
9.40344e-06
9.18789e-06
8.86754e-06
8.37715e-06
7.69692e-06
6.70002e-06
5.44391e-06
4.71017e-06
4.43469e-06
3.82197e-06
2.97875e-06
1.09619e-06
2.12006e-08
9.37633e-10
7.79997e-12
0
0
0
0.000187769
0.00625548
0.0223611
0.34856
1.56346
4.27063
8.58239
14.3349
4.43011e-06
4.40203e-06
4.22854e-06
4.18752e-06
4.26416e-06
4.38977e-06
4.54108e-06
4.72351e-06
4.92521e-06
5.14122e-06
5.35275e-06
5.54279e-06
5.70292e-06
5.81956e-06
5.88007e-06
5.87574e-06
5.79841e-06
5.65084e-06
5.4335e-06
5.18241e-06
4.74426e-06
4.1002e-06
3.42362e-06
2.71255e-06
2.12172e-06
1.78308e-06
1.62915e-06
1.49953e-06
1.19433e-06
1.91021e-07
2.97924e-09
2.62258e-11
3.13322e-13
0
0
2.56888e-05
0.000683132
0.000512037
0.0514461
0.373014
1.39702
2.77164e-06
2.7569e-06
2.64468e-06
2.61627e-06
2.66079e-06
2.73389e-06
2.82395e-06
2.93289e-06
3.05508e-06
3.18603e-06
3.31342e-06
3.43603e-06
3.54219e-06
3.62747e-06
3.68382e-06
3.70601e-06
3.6888e-06
3.62957e-06
3.52455e-06
3.3961e-06
3.18451e-06
2.89347e-06
2.58514e-06
2.24749e-06
1.8901e-06
1.48278e-06
1.07573e-06
7.70877e-07
6.63369e-07
7.10469e-07
8.52469e-07
4.79155e-07
1.26299e-08
5.59007e-10
3.8181e-12
0
0
8.81039e-09
0.000596552
0.00144755
0.00134851
1.77038e-06
1.76107e-06
1.6881e-06
1.66833e-06
1.69528e-06
1.7386e-06
1.79363e-06
1.85946e-06
1.9348e-06
2.01406e-06
2.09246e-06
2.1704e-06
2.23901e-06
2.29669e-06
2.33917e-06
2.36236e-06
2.36409e-06
2.34229e-06
2.29423e-06
2.22818e-06
2.10734e-06
1.93836e-06
1.77827e-06
1.62382e-06
1.46534e-06
1.30033e-06
1.13087e-06
9.27737e-07
6.83849e-07
4.54964e-07
3.05636e-07
2.84309e-07
3.96408e-07
5.12007e-07
1.06571e-07
1.50998e-09
1.56686e-11
3.55133e-13
0
0
4.96442e-06
1.14912e-06
1.14428e-06
1.09641e-06
1.08287e-06
1.09899e-06
1.12547e-06
1.15933e-06
1.2001e-06
1.24674e-06
1.29552e-06
1.34445e-06
1.39228e-06
1.43523e-06
1.47277e-06
1.50213e-06
1.5207e-06
1.52676e-06
1.51875e-06
1.49557e-06
1.46075e-06
1.39241e-06
1.29186e-06
1.19407e-06
1.10056e-06
1.01109e-06
9.28496e-07
8.55714e-07
7.89977e-07
7.25756e-07
6.47704e-07
5.35045e-07
3.94092e-07
2.54061e-07
1.57131e-07
1.43665e-07
2.27004e-07
2.68827e-07
1.17594e-08
2.758e-10
5.81996e-12
6.65106e-13
7.56478e-07
7.53842e-07
7.21986e-07
7.12988e-07
7.22808e-07
7.39425e-07
7.60607e-07
7.86333e-07
8.15445e-07
8.46013e-07
8.76301e-07
9.04252e-07
9.30891e-07
9.54392e-07
9.73368e-07
9.86164e-07
9.91256e-07
9.87493e-07
9.74323e-07
9.52873e-07
9.1148e-07
8.51069e-07
7.90956e-07
7.32159e-07
6.74031e-07
6.1816e-07
5.68224e-07
5.28735e-07
5.0063e-07
4.82439e-07
4.70393e-07
4.57108e-07
4.29651e-07
3.77947e-07
2.97405e-07
2.0377e-07
1.20165e-07
6.5803e-08
7.38542e-08
7.27734e-08
1.59662e-08
5.03391e-07
5.02565e-07
4.81366e-07
4.75368e-07
4.81507e-07
4.92363e-07
5.05975e-07
5.22655e-07
5.41194e-07
5.60725e-07
5.79754e-07
5.96782e-07
6.13415e-07
6.28035e-07
6.39884e-07
6.47915e-07
6.51068e-07
6.48411e-07
6.39769e-07
6.24721e-07
5.97769e-07
5.59861e-07
5.2202e-07
4.85436e-07
4.49403e-07
4.14062e-07
3.81135e-07
3.52734e-07
3.30776e-07
3.16969e-07
3.12611e-07
3.1823e-07
3.3219e-07
3.52716e-07
3.74773e-07
3.92322e-07
4.04379e-07
3.88744e-07
3.7577e-07
2.64811e-07
3.83217e-07
3.38585e-07
3.38127e-07
3.24204e-07
3.20425e-07
3.24531e-07
3.31742e-07
3.40839e-07
3.51819e-07
3.63999e-07
3.76618e-07
3.88852e-07
3.99588e-07
4.10254e-07
4.19511e-07
4.27114e-07
4.32306e-07
4.34537e-07
4.32773e-07
4.27177e-07
4.16732e-07
3.99344e-07
3.759e-07
3.52527e-07
3.30682e-07
3.10033e-07
2.9029e-07
2.72657e-07
2.58151e-07
2.47743e-07
2.41999e-07
2.42046e-07
2.49254e-07
2.64498e-07
2.88701e-07
3.23731e-07
3.69902e-07
4.2829e-07
4.90652e-07
5.89998e-07
5.98601e-07
9.60971e-07
2.29372e-07
2.29479e-07
2.20384e-07
2.17967e-07
2.20892e-07
2.2586e-07
2.32141e-07
2.39601e-07
2.47842e-07
2.56252e-07
2.64405e-07
2.71404e-07
2.78138e-07
2.84205e-07
2.89274e-07
2.92948e-07
2.94812e-07
2.94098e-07
2.90913e-07
2.84133e-07
2.73406e-07
2.59836e-07
2.46327e-07
2.34464e-07
2.24273e-07
2.15598e-07
2.09046e-07
2.05544e-07
2.05787e-07
2.10192e-07
2.193e-07
2.33814e-07
2.53792e-07
2.79633e-07
3.13155e-07
3.55261e-07
4.06254e-07
4.59266e-07
5.4711e-07
5.58403e-07
8.48666e-07
1.56453e-07
1.56608e-07
1.50818e-07
1.49458e-07
1.51629e-07
1.55218e-07
1.59745e-07
1.65042e-07
1.7087e-07
1.76776e-07
1.82528e-07
1.87478e-07
1.91884e-07
1.96223e-07
1.99944e-07
2.02989e-07
2.04992e-07
2.05446e-07
2.04222e-07
2.00594e-07
1.94949e-07
1.88344e-07
1.8201e-07
1.77555e-07
1.74645e-07
1.73377e-07
1.74243e-07
1.77986e-07
1.84928e-07
1.95565e-07
2.09964e-07
2.28635e-07
2.51382e-07
2.78364e-07
3.10373e-07
3.47642e-07
3.90134e-07
4.30941e-07
4.97336e-07
4.92355e-07
6.99854e-07
1.07157e-07
1.07543e-07
1.03811e-07
1.03139e-07
1.04873e-07
1.07589e-07
1.10934e-07
1.14857e-07
1.19111e-07
1.23485e-07
1.27716e-07
1.31517e-07
1.34738e-07
1.38131e-07
1.41217e-07
1.44071e-07
1.46321e-07
1.47725e-07
1.4824e-07
1.47224e-07
1.45319e-07
1.43507e-07
1.42051e-07
1.42307e-07
1.44156e-07
1.47657e-07
1.52876e-07
1.60408e-07
1.7046e-07
1.8336e-07
1.99144e-07
2.18178e-07
2.40115e-07
2.64925e-07
2.93082e-07
3.24413e-07
3.58925e-07
3.9029e-07
4.41253e-07
4.29073e-07
5.81501e-07
7.37281e-08
7.40646e-08
7.18126e-08
7.16105e-08
7.29964e-08
7.5112e-08
7.7663e-08
8.06333e-08
8.38491e-08
8.71722e-08
9.04269e-08
9.34385e-08
9.60466e-08
9.8834e-08
1.01603e-07
1.0428e-07
1.0674e-07
1.08826e-07
1.10522e-07
1.11173e-07
1.11696e-07
1.1269e-07
1.1414e-07
1.17051e-07
1.21418e-07
1.27098e-07
1.34237e-07
1.43127e-07
1.53991e-07
1.6693e-07
1.81931e-07
1.99048e-07
2.18054e-07
2.3873e-07
2.61414e-07
2.85728e-07
3.12073e-07
3.34933e-07
3.73154e-07
3.57656e-07
4.68392e-07
5.08465e-08
5.12188e-08
4.98494e-08
4.99138e-08
5.10913e-08
5.27582e-08
5.47669e-08
5.70714e-08
5.95921e-08
6.22013e-08
6.48147e-08
6.72789e-08
6.95326e-08
7.19311e-08
7.44774e-08
7.70041e-08
7.96003e-08
8.20033e-08
8.43407e-08
8.60164e-08
8.79508e-08
9.04355e-08
9.34074e-08
9.74944e-08
1.02814e-07
1.09153e-07
1.16683e-07
1.25469e-07
1.3571e-07
1.47262e-07
1.60159e-07
1.7428e-07
1.89521e-07
2.05622e-07
2.22892e-07
2.40861e-07
2.60107e-07
2.76008e-07
3.04054e-07
2.876e-07
3.67104e-07
3.5127e-08
3.5436e-08
3.47067e-08
3.49192e-08
3.59123e-08
3.72659e-08
3.88841e-08
4.07026e-08
4.27244e-08
4.4809e-08
4.69561e-08
4.90394e-08
5.10271e-08
5.31197e-08
5.54564e-08
5.78191e-08
6.03535e-08
6.28871e-08
6.55304e-08
6.77658e-08
7.03909e-08
7.35544e-08
7.71073e-08
8.15578e-08
8.70038e-08
9.31974e-08
1.0021e-07
1.08067e-07
1.16859e-07
1.26485e-07
1.36914e-07
1.48054e-07
1.59798e-07
1.71971e-07
1.84739e-07
1.97718e-07
2.11493e-07
2.22304e-07
2.42643e-07
2.26758e-07
2.83855e-07
2.42681e-08
2.45656e-08
2.41904e-08
2.44952e-08
2.53394e-08
2.64485e-08
2.77499e-08
2.92191e-08
3.08323e-08
3.25384e-08
3.42966e-08
3.60823e-08
3.77979e-08
3.96245e-08
4.16919e-08
4.38599e-08
4.6218e-08
4.87007e-08
5.13045e-08
5.37271e-08
5.65032e-08
5.97918e-08
6.33542e-08
6.76215e-08
7.25469e-08
7.80233e-08
8.40271e-08
9.06145e-08
9.77572e-08
1.05422e-07
1.13488e-07
1.21947e-07
1.30662e-07
1.39557e-07
1.48681e-07
1.57793e-07
1.67394e-07
1.74486e-07
1.89049e-07
1.74715e-07
2.15967e-07
1.6751e-08
1.70003e-08
1.68751e-08
1.72027e-08
1.79089e-08
1.88264e-08
1.98789e-08
2.10664e-08
2.23653e-08
2.3762e-08
2.52101e-08
2.67231e-08
2.82122e-08
2.9786e-08
3.15647e-08
3.34852e-08
3.55782e-08
3.78332e-08
4.02337e-08
4.25758e-08
4.52242e-08
4.82956e-08
5.15492e-08
5.53088e-08
5.95273e-08
6.41521e-08
6.91122e-08
7.44295e-08
8.00457e-08
8.59504e-08
9.20504e-08
9.83454e-08
1.04732e-07
1.11164e-07
1.17674e-07
1.24073e-07
1.3082e-07
1.35536e-07
1.46143e-07
1.33786e-07
1.64192e-07
1.15302e-08
1.17501e-08
1.17505e-08
1.20749e-08
1.26675e-08
1.34133e-08
1.42737e-08
1.52302e-08
1.62855e-08
1.74201e-08
1.86197e-08
1.98796e-08
2.11609e-08
2.25054e-08
2.4018e-08
2.56667e-08
2.74735e-08
2.94355e-08
3.1546e-08
3.36462e-08
3.60151e-08
3.86893e-08
4.14754e-08
4.46039e-08
4.80592e-08
5.17683e-08
5.56662e-08
5.97543e-08
6.40046e-08
6.83958e-08
7.28812e-08
7.7451e-08
8.20336e-08
8.65803e-08
9.11489e-08
9.55887e-08
1.00284e-07
1.03354e-07
1.11072e-07
1.00747e-07
1.23582e-07
7.90257e-09
8.08484e-09
8.16495e-09
8.46387e-09
8.94988e-09
9.56623e-09
1.02588e-08
1.10376e-08
1.18825e-08
1.28114e-08
1.37868e-08
1.48341e-08
1.59046e-08
1.70447e-08
1.83005e-08
1.96934e-08
2.11984e-08
2.28507e-08
2.4634e-08
2.6447e-08
2.84537e-08
3.06844e-08
3.2984e-08
3.55202e-08
3.82609e-08
4.11698e-08
4.41866e-08
4.73145e-08
5.05236e-08
5.38118e-08
5.71357e-08
6.04863e-08
6.38176e-08
6.71109e-08
7.04005e-08
7.35681e-08
7.69449e-08
7.90709e-08
8.48335e-08
7.6515e-08
9.42829e-08
5.384e-09
5.53993e-09
5.65268e-09
5.91924e-09
6.3209e-09
6.81728e-09
7.38014e-09
8.00357e-09
8.68725e-09
9.43259e-09
1.02304e-08
1.10814e-08
1.19752e-08
1.29173e-08
1.39582e-08
1.50997e-08
1.63397e-08
1.76909e-08
1.91645e-08
2.06589e-08
2.23113e-08
2.40975e-08
2.59283e-08
2.78989e-08
3.00102e-08
3.22071e-08
3.44671e-08
3.6772e-08
3.91205e-08
4.14886e-08
4.38668e-08
4.62396e-08
4.8592e-08
5.08974e-08
5.32017e-08
5.54089e-08
5.78024e-08
5.925e-08
6.35207e-08
5.68699e-08
7.09098e-08
3.63873e-09
3.77006e-09
3.89846e-09
4.12925e-09
4.45793e-09
4.85767e-09
5.31129e-09
5.80842e-09
6.35681e-09
6.9508e-09
7.59494e-09
8.27943e-09
9.00929e-09
9.7703e-09
1.06093e-08
1.15254e-08
1.25204e-08
1.35997e-08
1.47831e-08
1.59827e-08
1.73033e-08
1.87173e-08
2.01663e-08
2.16974e-08
2.33207e-08
2.49958e-08
2.67132e-08
2.84546e-08
3.0225e-08
3.20055e-08
3.37942e-08
3.55781e-08
3.73525e-08
3.90978e-08
4.08511e-08
4.25405e-08
4.4392e-08
4.55378e-08
4.88906e-08
4.37681e-08
5.54114e-08
2.42939e-09
2.54148e-09
2.66763e-09
2.86732e-09
3.13574e-09
3.45958e-09
3.82353e-09
4.22254e-09
4.65646e-09
5.12986e-09
5.64132e-09
6.19073e-09
6.77939e-09
7.40029e-09
8.07675e-09
8.81502e-09
9.60778e-09
1.04656e-08
1.13978e-08
1.23545e-08
1.3399e-08
1.45e-08
1.56095e-08
1.67663e-08
1.79754e-08
1.92154e-08
2.04734e-08
2.17407e-08
2.30171e-08
2.42964e-08
2.55759e-08
2.68522e-08
2.81196e-08
2.93713e-08
3.06335e-08
3.18569e-08
3.32064e-08
3.40444e-08
3.6576e-08
3.26762e-08
4.23163e-08
1.59421e-09
1.68698e-09
1.803e-09
1.97096e-09
2.19113e-09
2.45188e-09
2.74741e-09
3.0671e-09
3.41593e-09
3.78983e-09
4.19614e-09
4.62672e-09
5.09014e-09
5.56946e-09
6.09104e-09
6.66223e-09
7.27767e-09
7.93876e-09
8.65648e-09
9.38993e-09
1.01847e-08
1.10189e-08
1.18645e-08
1.27405e-08
1.36541e-08
1.45925e-08
1.55491e-08
1.65165e-08
1.74977e-08
1.84903e-08
1.94947e-08
2.05078e-08
2.15282e-08
2.25515e-08
2.35974e-08
2.46278e-08
2.57701e-08
2.65404e-08
2.86253e-08
2.5732e-08
3.40408e-08
1.03125e-09
1.10991e-09
1.21204e-09
1.35061e-09
1.5246e-09
1.73172e-09
1.96584e-09
2.22102e-09
2.4977e-09
2.79702e-09
3.12116e-09
3.47012e-09
3.84663e-09
4.24665e-09
4.67579e-09
5.13828e-09
5.62438e-09
6.14645e-09
6.71049e-09
7.29672e-09
7.92796e-09
8.58583e-09
9.24287e-09
9.91625e-09
1.06102e-08
1.13197e-08
1.2034e-08
1.27523e-08
1.34748e-08
1.42062e-08
1.49455e-08
1.56973e-08
1.64601e-08
1.72367e-08
1.80399e-08
1.88504e-08
1.97489e-08
2.03928e-08
2.2032e-08
1.99843e-08
2.72574e-08
6.66697e-10
7.40779e-10
8.3482e-10
9.51994e-10
1.09175e-09
1.25286e-09
1.43071e-09
1.62577e-09
1.83628e-09
2.06625e-09
2.31294e-09
2.57712e-09
2.8549e-09
3.14456e-09
3.45138e-09
3.78953e-09
4.14702e-09
4.52618e-09
4.9265e-09
5.33798e-09
5.77473e-09
6.23394e-09
6.70311e-09
7.19186e-09
7.699e-09
8.2251e-09
8.76505e-09
9.32052e-09
9.89062e-09
1.04794e-08
1.1087e-08
1.17172e-08
1.23691e-08
1.30443e-08
1.37522e-08
1.44765e-08
1.52803e-08
1.58993e-08
1.72858e-08
1.5804e-08
2.20503e-08
4.17536e-10
4.88035e-10
5.78189e-10
6.86362e-10
8.0964e-10
9.45165e-10
1.08965e-09
1.24202e-09
1.40336e-09
1.57844e-09
1.77043e-09
1.98264e-09
2.21654e-09
2.47209e-09
2.74759e-09
3.04116e-09
3.35315e-09
3.69098e-09
4.05761e-09
4.44159e-09
4.85021e-09
5.26983e-09
5.69044e-09
6.11599e-09
6.54961e-09
6.99146e-09
7.44003e-09
7.89681e-09
8.36513e-09
8.84933e-09
9.35269e-09
9.88114e-09
1.04385e-08
1.10298e-08
1.16661e-08
1.23431e-08
1.31022e-08
1.37658e-08
1.50406e-08
1.41578e-08
2.0333e-08
2.21252e-10
2.70694e-10
3.40658e-10
4.28114e-10
5.32075e-10
6.50453e-10
7.81124e-10
9.19941e-10
1.06509e-09
1.21423e-09
1.36678e-09
1.52041e-09
1.67463e-09
1.82564e-09
1.97464e-09
2.12736e-09
2.28393e-09
2.44537e-09
2.62102e-09
2.81048e-09
3.02312e-09
3.25639e-09
3.50582e-09
3.77142e-09
4.05459e-09
4.3564e-09
4.67662e-09
5.01542e-09
5.37344e-09
5.75269e-09
6.15489e-09
6.58199e-09
7.0353e-09
7.51652e-09
8.03198e-09
8.574e-09
9.17773e-09
9.70402e-09
1.06754e-08
1.00245e-08
1.47358e-08
1.0213e-10
1.40069e-10
1.96732e-10
2.64676e-10
3.39643e-10
4.19793e-10
5.04875e-10
5.95952e-10
6.96036e-10
8.09622e-10
9.40739e-10
1.09364e-09
1.27232e-09
1.48021e-09
1.72522e-09
2.00377e-09
2.29994e-09
2.60577e-09
2.9178e-09
3.23166e-09
3.55189e-09
3.87655e-09
4.20272e-09
4.5321e-09
4.86866e-09
5.21516e-09
5.57352e-09
5.94737e-09
6.34187e-09
6.76307e-09
7.21721e-09
7.71231e-09
8.25518e-09
8.85434e-09
9.52249e-09
1.02664e-08
1.11104e-08
1.19645e-08
1.32765e-08
1.31815e-08
1.94356e-08
8.95084e-11
1.3742e-10
1.91425e-10
2.48824e-10
3.12136e-10
3.87501e-10
4.7726e-10
5.80911e-10
6.92497e-10
8.03856e-10
9.04405e-10
9.83378e-10
1.03392e-09
1.05523e-09
1.04308e-09
9.99234e-10
9.52021e-10
9.27001e-10
9.31967e-10
9.63987e-10
1.01981e-09
1.09405e-09
1.18585e-09
1.29292e-09
1.4144e-09
1.54998e-09
1.69985e-09
1.86381e-09
2.04252e-09
2.23667e-09
2.44776e-09
2.67698e-09
2.92685e-09
3.19897e-09
3.49672e-09
3.81856e-09
4.18295e-09
4.53498e-09
5.10362e-09
4.93964e-09
7.78e-09
3.68321e-10
7.77172e-10
1.28606e-09
1.81134e-09
2.28353e-09
2.65382e-09
2.90414e-09
3.03908e-09
3.08295e-09
3.06819e-09
3.02938e-09
2.99573e-09
2.98901e-09
3.01794e-09
3.08637e-09
3.21704e-09
3.4143e-09
3.6477e-09
3.89916e-09
4.15864e-09
4.41966e-09
4.69026e-09
4.95636e-09
5.21944e-09
5.48244e-09
5.74791e-09
6.01997e-09
6.30469e-09
6.60926e-09
6.94121e-09
7.30952e-09
7.72445e-09
8.19716e-09
8.73975e-09
9.36909e-09
1.00992e-08
1.09618e-08
1.18956e-08
1.33057e-08
1.34509e-08
2.05489e-08
234.642
167.675
114.557
94.3886
79.9615
50.4261
14.8197
2.93556
2.83236
0.675031
0.0718807
0.00678536
0.00148942
0.00120303
0.00126414
0.00122599
0.00118912
0.00105603
0.000935578
0.000781643
0.000649802
0.000525213
0.000420635
0.000333772
0.000263472
0.000207444
0.000163076
0.000128178
0.000100889
7.96873e-05
6.28659e-05
4.95577e-05
3.8968e-05
3.0463e-05
2.36554e-05
1.82137e-05
1.38781e-05
1.04597e-05
7.77256e-06
5.69142e-06
4.10847e-06
2.90625e-06
2.01868e-06
1.37359e-06
9.16131e-07
6.01388e-07
3.94162e-07
2.61065e-07
1.83745e-07
1.42186e-07
1.25029e-07
1.20928e-07
1.24677e-07
1.30591e-07
1.34165e-07
1.39911e-07
1.36676e-07
1.35496e-07
1.26292e-07
1.19724e-07
1.05933e-07
9.71353e-08
8.37058e-08
7.12352e-08
6.11348e-08
4.9121e-08
4.16792e-08
3.30388e-08
2.68409e-08
2.10715e-08
1.75795e-08
1.35811e-08
1.20042e-08
9.11088e-09
49.5462
110.879
117.399
114.905
111.023
89.8715
41.5971
5.68738
2.25539
1.38536
0.179486
0.0152622
0.00183332
0.00122433
0.00116924
0.00106846
0.00101223
0.000885937
0.000782496
0.000655969
0.000546873
0.000445262
0.000358399
0.000285976
0.000226897
0.000179647
0.000141851
0.000111866
8.83152e-05
6.99527e-05
5.52699e-05
4.3572e-05
3.42873e-05
2.67774e-05
2.08029e-05
1.60218e-05
1.22107e-05
9.21382e-06
6.85836e-06
5.03503e-06
3.64518e-06
2.59135e-06
1.81108e-06
1.24237e-06
8.3929e-07
5.59394e-07
3.74133e-07
2.54548e-07
1.82461e-07
1.42447e-07
1.24081e-07
1.17308e-07
1.17799e-07
1.20654e-07
1.21237e-07
1.25226e-07
1.2066e-07
1.18829e-07
1.09646e-07
1.03833e-07
9.114e-08
8.3557e-08
7.21038e-08
6.08531e-08
5.25802e-08
4.2094e-08
3.5895e-08
2.86468e-08
2.34044e-08
1.843e-08
1.5733e-08
1.21592e-08
1.11087e-08
8.4145e-09
24.5566
70.8476
104.978
119.676
126.957
122.279
82.8714
23.8287
1.12403
2.08829
0.566356
0.0524277
0.00296184
0.00140188
0.00119689
0.00100939
0.000890992
0.000759534
0.000651803
0.000546237
0.000452524
0.000370424
0.000299119
0.000239848
0.000191204
0.000152128
0.000120747
9.55544e-05
7.56767e-05
6.0081e-05
4.75943e-05
3.75616e-05
2.96114e-05
2.31469e-05
1.80182e-05
1.39106e-05
1.06368e-05
8.06267e-06
6.0388e-06
4.46659e-06
3.26504e-06
2.35232e-06
1.66871e-06
1.17071e-06
8.09821e-07
5.59384e-07
3.89957e-07
2.7487e-07
2.0343e-07
1.61647e-07
1.37124e-07
1.25115e-07
1.19708e-07
1.17841e-07
1.15779e-07
1.13334e-07
1.08639e-07
1.04281e-07
9.59617e-08
8.91995e-08
7.88968e-08
7.02895e-08
6.12443e-08
5.16607e-08
4.42892e-08
3.59502e-08
3.00822e-08
2.44397e-08
2.01084e-08
1.59748e-08
1.38123e-08
1.07457e-08
1.01521e-08
7.67534e-09
23.1632
56.8058
90.5772
109.292
120.561
127.685
114.136
56.7227
7.0374
1.33336
1.45083
0.208889
0.0121596
0.00153214
0.00127505
0.0010138
0.000826981
0.000678623
0.00056137
0.000465495
0.000381688
0.000312536
0.000252704
0.000203284
0.000162664
0.000129916
0.000103524
8.22061e-05
6.52645e-05
5.18888e-05
4.11673e-05
3.25364e-05
2.56907e-05
2.01236e-05
1.57078e-05
1.21686e-05
9.34889e-06
7.12848e-06
5.3794e-06
4.01751e-06
2.97074e-06
2.17256e-06
1.56927e-06
1.12561e-06
7.99308e-07
5.6993e-07
4.10572e-07
2.98769e-07
2.26229e-07
1.80649e-07
1.50505e-07
1.3292e-07
1.21962e-07
1.15422e-07
1.10307e-07
1.03474e-07
9.80273e-08
9.18481e-08
8.40561e-08
7.67234e-08
6.81112e-08
5.93216e-08
5.1941e-08
4.39171e-08
3.7365e-08
3.07084e-08
2.53558e-08
2.0883e-08
1.7343e-08
1.39116e-08
1.21891e-08
9.52494e-09
9.30306e-09
6.99882e-09
24.2476
51.9133
80.4136
96.9638
107.288
117.992
125.185
92.9174
28.4535
0.676196
2.11515
0.736472
0.0704598
0.00258281
0.00130504
0.00105068
0.000801949
0.000629698
0.000501541
0.00040814
0.000330287
0.00026933
0.000217636
0.000175326
0.000140608
0.000112604
8.99541e-05
7.16431e-05
5.69932e-05
4.53613e-05
3.6016e-05
2.84935e-05
2.25236e-05
1.76783e-05
1.38424e-05
1.07719e-05
8.32318e-06
6.38907e-06
4.86077e-06
3.66966e-06
2.74505e-06
2.03736e-06
1.49882e-06
1.09561e-06
7.9825e-07
5.82743e-07
4.29601e-07
3.20988e-07
2.46381e-07
1.95879e-07
1.61557e-07
1.38654e-07
1.23004e-07
1.12244e-07
1.03644e-07
9.50583e-08
8.81619e-08
8.11162e-08
7.3358e-08
6.61405e-08
5.83577e-08
5.03964e-08
4.41089e-08
3.73341e-08
3.17015e-08
2.62158e-08
2.16078e-08
1.79617e-08
1.50791e-08
1.22098e-08
1.08786e-08
8.52009e-09
8.59324e-09
6.42114e-09
26.7236
50.2091
73.1275
86.0621
93.5363
102.158
116.037
114.47
62.3309
8.5199
1.02923
1.76461
0.311755
0.0210529
0.00137057
0.0010955
0.000811014
0.000605668
0.000464256
0.000368503
0.000293502
0.000237414
0.000191301
0.000154055
0.00012364
9.91549e-05
7.92876e-05
6.32597e-05
5.04031e-05
4.01674e-05
3.19362e-05
2.53093e-05
2.00398e-05
1.57618e-05
1.23834e-05
9.68432e-06
7.5322e-06
5.8266e-06
4.47687e-06
3.4202e-06
2.59128e-06
1.95356e-06
1.46343e-06
1.0912e-06
8.13448e-07
6.0667e-07
4.56728e-07
3.47899e-07
2.69478e-07
2.13709e-07
1.7461e-07
1.46357e-07
1.26069e-07
1.11207e-07
9.92993e-08
8.89971e-08
8.04327e-08
7.2578e-08
6.46172e-08
5.75293e-08
5.0273e-08
4.31923e-08
3.76811e-08
3.18429e-08
2.70387e-08
2.24412e-08
1.85753e-08
1.55624e-08
1.32117e-08
1.07912e-08
9.80734e-09
7.69693e-09
8.00381e-09
5.948e-09
29.2104
48.5051
66.6388
76.7128
82.0402
87.3643
98.6159
113.415
92.8982
31.8496
0.72153
2.21846
1.03163
0.121045
0.00508282
0.00111089
0.000852791
0.000607479
0.000445939
0.000343621
0.0002685
0.000214551
0.000171892
0.000138117
0.000110784
8.8851e-05
7.10486e-05
5.67028e-05
4.51917e-05
3.60191e-05
2.86656e-05
2.27746e-05
1.80937e-05
1.42931e-05
1.12877e-05
8.87833e-06
6.9541e-06
5.42343e-06
4.2125e-06
3.25837e-06
2.50369e-06
1.91867e-06
1.46367e-06
1.11435e-06
8.47604e-07
6.45355e-07
4.95474e-07
3.83007e-07
2.99106e-07
2.37615e-07
1.92527e-07
1.58625e-07
1.33337e-07
1.14194e-07
9.90895e-08
8.62236e-08
7.5853e-08
6.6816e-08
5.84383e-08
5.11267e-08
4.42407e-08
3.76339e-08
3.26284e-08
2.74761e-08
2.32666e-08
1.93777e-08
1.61054e-08
1.35882e-08
1.16605e-08
9.59785e-09
8.90213e-09
7.00601e-09
7.49428e-09
5.55164e-09
30.5703
45.4589
59.4921
67.8497
72.5749
76.0575
82.5617
97.3503
104.848
64.4673
10.3836
0.702552
2.10755
0.50149
0.0454172
0.00190514
0.00089665
0.000639984
0.000446985
0.000332062
0.000253704
0.000199433
0.000158354
0.000126653
0.000101372
8.12406e-05
6.49566e-05
5.18265e-05
4.12831e-05
3.28725e-05
2.61371e-05
2.07687e-05
1.6532e-05
1.31284e-05
1.04457e-05
8.28827e-06
6.55396e-06
5.1623e-06
4.05445e-06
3.17416e-06
2.47226e-06
1.92409e-06
1.49364e-06
1.15918e-06
8.97876e-07
6.96626e-07
5.4377e-07
4.25917e-07
3.35531e-07
2.67493e-07
2.1563e-07
1.7582e-07
1.45181e-07
1.21479e-07
1.02892e-07
8.70236e-08
7.45875e-08
6.39787e-08
5.48839e-08
4.69773e-08
4.01662e-08
3.36568e-08
2.88786e-08
2.42099e-08
2.03559e-08
1.69906e-08
1.41362e-08
1.19869e-08
1.03866e-08
8.60694e-09
8.13098e-09
6.41787e-09
7.04136e-09
5.20465e-09
29.9001
40.5783
51.1933
58.7322
64.0269
67.569
71.0216
79.5518
96.5769
89.0628
35.3935
1.3129
1.9846
1.40179
0.221911
0.0173267
0.00116322
0.000696216
0.000472175
0.000334152
0.000248122
0.000191195
0.000149993
0.000119054
9.49041e-05
7.59519e-05
6.07122e-05
4.84313e-05
3.85813e-05
3.07317e-05
2.44432e-05
1.94229e-05
1.54516e-05
1.2281e-05
9.80188e-06
7.83089e-06
6.25782e-06
4.99317e-06
3.976e-06
3.1561e-06
2.49297e-06
1.96813e-06
1.5515e-06
1.22309e-06
9.62413e-07
7.58611e-07
6.00205e-07
4.75884e-07
3.78439e-07
3.02993e-07
2.43839e-07
1.97754e-07
1.61457e-07
1.32859e-07
1.10338e-07
9.12648e-08
7.6438e-08
6.39317e-08
5.37495e-08
4.49483e-08
3.78466e-08
3.11579e-08
2.63469e-08
2.19445e-08
1.82516e-08
1.52236e-08
1.26333e-08
1.0735e-08
9.37429e-09
7.81213e-09
7.48965e-09
5.92901e-09
6.6457e-09
4.89875e-09
26.685
33.8709
41.736
48.9298
55.2844
60.1535
63.1487
66.778
79.3551
93.7591
65.9029
13.7804
0.177057
2.20192
0.775129
0.0985349
0.00699656
0.000863193
0.000525097
0.000353654
0.000251995
0.000189384
0.000146315
0.000114927
9.108e-05
7.26316e-05
5.78964e-05
4.61389e-05
3.68055e-05
2.9382e-05
2.34538e-05
1.8722e-05
1.49585e-05
1.19296e-05