/*--------------------------------*- C++ -*----------------------------------*\
| =========                 |                                                 |
| \\      /  F ield         | OpenFOAM: The Open Source CFD Toolbox           |
|  \\    /   O peration     | Version:  2312                                  |
|   \\  /    A nd           | Website:  www.openfoam.com                      |
|    \\/     M anipulation  |                                                 |
\*---------------------------------------------------------------------------*/
FoamFile
{
    version     2.0;
    format      ascii;
    arch        "LSB;label=32;scalar=64";
    class       volScalarField;
    location    "300";
    object      turbulenceProperties:I;
}
// * * * * * * * * * * * * * * * * * * * * * * * * * * * * * * * * * * * * * //

dimensions      [0 0 0 0 0 0 0];

internalField   nonuniform List<scalar> 
11040
(
0.0529065
0.0750308
0.142841
0.127247
0.0873935
0.256887
0.277748
0.286161
0.285987
0.28842
0.286789
0.283399
0.280992
0.277877
0.275302
0.274195
0.274116
0.275166
0.277491
0.281415
0.282216
0.277585
0.388671
0.994624
0.43919
0.320922
0.292781
0.300317
0.556622
0.322467
0.341093
0.317194
0.315559
0.320195
0.323447
0.326281
0.34185
0.421198
0.930174
0.633258
0.743448
0.0217571
0.0215923
0.0402362
0.0948748
0.421525
0.958586
0.547258
0.330562
0.242912
0.199471
0.163762
0.139533
0.122428
0.110262
0.101131
0.0948281
0.0914796
0.0909976
0.092437
0.10455
0.139416
0.22884
0.577529
1
0.324917
0.17525
0.121901
0.208686
0.455238
0.471476
0.189231
0.105532
0.134888
0.17503
0.222545
0.311241
0.512785
1
1
0.514994
0.576892
0.0175441
0.0130442
0.00839207
0.0273245
0.0624334
0.265194
1
1
0.688367
0.478579
0.361234
0.296142
0.25263
0.224726
0.205357
0.194983
0.1884
0.182111
0.174911
0.17451
0.204163
0.327046
0.816105
1
0.428773
0.231378
0.18858
0.279197
0.585232
0.630503
0.245581
0.208472
0.212908
0.247457
0.321614
0.46597
0.838436
1
1
0.510569
0.463286
0.0155188
0.0119492
0.00994881
0.007126
0.015238
0.0508255
0.172434
0.599895
1
1
0.839775
0.593241
0.460644
0.384182
0.334439
0.3064
0.288952
0.271325
0.247254
0.224069
0.245529
0.40354
0.912197
1
0.674229
0.411131
0.36365
0.50603
0.964198
0.663113
0.328748
0.251214
0.241124
0.292257
0.40072
0.612779
1
1
1
0.582796
0.452358
0.0136651
0.0114064
0.00966848
0.00877442
0.00602634
0.00802392
0.0350603
0.11339
0.320615
1
1
1
1
0.728137
0.579249
0.497416
0.448541
0.408469
0.360013
0.301776
0.279196
0.441702
0.872487
1
0.997563
0.644148
0.581183
0.846735
1
0.634105
0.388771
0.289984
0.259015
0.33118
0.484922
0.764516
1
1
1
0.687014
0.501082
0.0116302
0.0100412
0.00879915
0.00791211
0.00754628
0.00492928
0.00296322
0.020446
0.0734318
0.194829
0.480363
1
1
1
1
0.950068
0.776175
0.669718
0.567286
0.45486
0.350398
0.439781
0.777113
1
1
0.965141
0.908535
1
1
0.58937
0.426457
0.335969
0.276397
0.377599
0.582925
0.911231
1
1
1
0.789399
0.578309
0.00982245
0.00884236
0.0080117
0.00721318
0.00675467
0.00651379
0.00419187
0.000567863
0.00796811
0.0443423
0.1205
0.275961
0.608782
1
1
1
1
1
1
0.78562
0.563299
0.42608
0.658794
0.961664
1
1
1
1
0.959171
0.537801
0.441224
0.383678
0.306411
0.440252
0.695346
1
1
1
1
0.861547
0.656611
0.00829759
0.00765521
0.00714416
0.00663595
0.00608645
0.00577463
0.00574344
0.00383524
1.06202e-05
9.43611e-05
0.0227331
0.0718246
0.166761
0.344782
0.686319
1
1
1
1
1
1
0.692251
0.513346
0.714798
0.924926
1
1
1
0.75929
0.485437
0.435306
0.431444
0.37214
0.530001
0.826381
1
1
1
1
0.884815
0.71336
0.0070069
0.0065786
0.00624685
0.00593584
0.00559045
0.00517971
0.00499171
0.00501494
0.00375551
0.000808287
0.00156699
0.00829904
0.0393934
0.0999697
0.208321
0.396198
0.714259
1
1
1
1
1
0.851176
0.5118
0.650954
0.920498
1
1
0.697287
0.494226
0.453512
0.51442
0.522898
0.677537
0.994
1
1
1
0.984179
0.858307
0.731997
0.00591997
0.00562759
0.00540609
0.00521163
0.00500706
0.00476446
0.00445943
0.0043081
0.00435797
0.0037345
0.000869102
0.00088798
0.00206811
0.0193317
0.0567026
0.126119
0.242507
0.429087
0.708363
1
1
1
1
1
0.758877
1
1
1
0.866064
0.667477
0.631851
0.738786
0.879715
1
1
1
1
1
0.891196
0.796439
0.708391
0.0050027
0.0047994
0.00464629
0.0045223
0.00440141
0.00426187
0.00408645
0.00386527
0.00370969
0.00377942
0.00340036
0.00170585
0.000657139
0.00108632
0.0046353
0.0285356
0.0730755
0.148655
0.268553
0.447911
0.698546
1
1
1
1
1
1
1
1
0.94662
0.91152
1
1
1
1
1
1
0.896774
0.791475
0.715531
0.651871
0.00422875
0.00408683
0.00397646
0.00389346
0.00382203
0.00374183
0.00364424
0.00352097
0.00335919
0.00321441
0.00322954
0.00315282
0.00218005
0.000267681
0.000428998
0.00354003
0.0104959
0.037891
0.0869874
0.166566
0.286901
0.450075
0.653412
0.91856
1
1
1
1
1
1
1
1
1
1
0.990661
0.900461
0.830169
0.755161
0.685829
0.627432
0.578052
0.00357581
0.00347555
0.0033933
0.00333576
0.0032926
0.0032493
0.00319604
0.00312881
0.00304475
0.00292706
0.00280392
0.00277078
0.00277605
0.00250561
0.00101297
0.000303037
0.000640863
0.00181448
0.016076
0.0455234
0.0979305
0.175757
0.278934
0.410417
0.578778
0.791406
1
1
1
1
0.971751
0.943501
0.979256
0.967508
0.681567
0.586793
0.635129
0.618449
0.580973
0.538773
0.503189
0.00302367
0.00295269
0.00288946
0.00284788
0.00282181
0.00279909
0.00277308
0.00273838
0.00269328
0.00263572
0.00255434
0.00245348
0.0023974
0.0024249
0.00236068
0.00160681
0.000469398
0.000231547
0.000801989
0.00819525
0.0181869
0.0498151
0.0968403
0.160731
0.24344
0.350388
0.492745
0.665171
0.793341
0.803783
0.754491
0.70601
0.673198
0.650916
0.652615
0.669574
0.653651
0.608493
0.556853
0.503692
0.45776
0.00255565
0.00250513
0.0024555
0.00242433
0.00240884
0.00239761
0.00238631
0.00237181
0.0023504
0.00232087
0.00228201
0.0022272
0.00215352
0.00208406
0.00209355
0.00209537
0.00192585
0.000660188
0.000256761
2.32549e-05
0.00117349
0.00903224
0.0177704
0.0442424
0.0817154
0.130698
0.196299
0.288741
0.398703
0.488371
0.530308
0.532802
0.520217
0.516619
0.549726
0.619334
0.673601
0.675688
0.634449
0.571723
0.50236
0.00215814
0.00212192
0.00208232
0.00205847
0.00204928
0.00204498
0.00204154
0.00203802
0.00203154
0.00201878
0.00199978
0.00197395
0.00193763
0.0018862
0.00182463
0.00180228
0.0018195
0.00180318
0.00139542
0.000268604
0.000137421
0
0.00119246
0.00732787
0.0124727
0.0316479
0.0577315
0.0950718
0.152969
0.22923
0.304307
0.36183
0.399664
0.42832
0.465711
0.52605
0.602348
0.668563
0.69754
0.679842
0.622345
0.00182301
0.00179674
0.00176476
0.00174617
0.00174064
0.00173996
0.00174052
0.00174212
0.00174297
0.00174079
0.00173417
0.00172216
0.00170464
0.00168082
0.00164561
0.00159978
0.00155054
0.0015573
0.00157316
0.00154584
0.000910972
0.00029605
6.16328e-05
0
0.00060965
0.00402627
0.00360213
0.0133181
0.0314843
0.0649726
0.116531
0.178934
0.242144
0.301208
0.357972
0.418522
0.489052
0.570232
0.654139
0.720817
0.742981
0.00155059
0.00153148
0.00150536
0.00149086
0.00148772
0.00148891
0.00149167
0.00149552
0.00149988
0.00150292
0.00150247
0.00149862
0.00149027
0.00147736
0.00146015
0.00143588
0.00140138
0.00135632
0.00132961
0.00134519
0.00133456
0.00125832
0.000615047
0.000221886
5.99305e-05
0
0.000142849
0.000819727
0.00370565
0.0105931
0.0144043
0.0431696
0.0886799
0.145182
0.207974
0.273941
0.343056
0.418212
0.503636
0.600036
0.701669
0.00133467
0.00132072
0.0012991
0.00128763
0.00128603
0.00128812
0.00129188
0.00129681
0.00130273
0.00130784
0.00131112
0.00131178
0.00130914
0.00130263
0.00129217
0.001278
0.00125984
0.00123309
0.00119726
0.00115661
0.00113519
0.0011325
0.00109401
0.00100679
0.000579764
0.000207676
7.46315e-05
2.71437e-05
0
0
0.000952812
0.00539913
0.0160577
0.0269939
0.0670587
0.118586
0.17881
0.24511
0.317149
0.396313
0.487311
0.00116203
0.00115166
0.00113341
0.00112413
0.00112337
0.00112574
0.00112969
0.00113494
0.00114104
0.00114692
0.00115204
0.00115499
0.00115574
0.00115356
0.0011481
0.00113912
0.00112682
0.0011115
0.00109083
0.00106348
0.00102349
0.000969184
0.000934045
0.000920197
0.000884629
0.000830407
0.000657264
0.000274157
0.000138723
4.79993e-05
0
0
0
0.00254348
0.00933972
0.0134838
0.0452339
0.0874471
0.139049
0.19762
0.263243
0.00102076
0.00101287
0.000997092
0.000989526
0.000989127
0.000991564
0.000995308
0.00100049
0.00100631
0.00101244
0.00101792
0.00102203
0.00102452
0.00102491
0.0010228
0.00101795
0.00101008
0.000999299
0.00098553
0.000970219
0.000945629
0.00090888
0.000866642
0.000816299
0.000767409
0.000734976
0.000717502
0.000701562
0.000664979
0.000442494
0.000178171
6.28609e-05
2.34955e-05
0
0
0.00133712
0.00453979
0.00314443
0.0222191
0.0501161
0.086379
0.000902998
0.000896912
0.000883239
0.00087684
0.000876724
0.000878969
0.000882474
0.000887246
0.000892725
0.000898498
0.000903676
0.000908233
0.000911468
0.000913206
0.000913055
0.000910803
0.000906206
0.000899135
0.000889318
0.000878065
0.000861259
0.000838399
0.000812968
0.000783182
0.000748584
0.000703592
0.000649053
0.000597307
0.000574904
0.000583794
0.000610287
0.000537014
0.000242219
0.000123197
4.10031e-05
0
0
0.000223698
0.00352904
0.00610785
0.00571542
0.000803525
0.000798626
0.000786747
0.00078126
0.000781375
0.000783389
0.000786647
0.00079093
0.00079599
0.000801177
0.000806009
0.000810545
0.000814006
0.000816329
0.000817221
0.000816413
0.000813787
0.000809208
0.000802434
0.000794131
0.000780846
0.000762658
0.000744613
0.000726292
0.000706441
0.000684376
0.000659845
0.000627192
0.000580704
0.00052452
0.000474917
0.000465615
0.00050497
0.000538755
0.000381692
0.00015099
5.55642e-05
2.41372e-05
0
0
0.00092977
0.000718295
0.000714491
0.00070413
0.000699415
0.000699594
0.000701438
0.000704375
0.000708237
0.000712781
0.000717412
0.00072185
0.000725937
0.000729227
0.000731707
0.000733094
0.000733139
0.00073169
0.000728601
0.000723746
0.000717523
0.000707121
0.000692313
0.000677345
0.000662355
0.000647267
0.000632526
0.00061873
0.000605534
0.000591966
0.000574635
0.000547309
0.000506846
0.000454295
0.000402605
0.000392688
0.000439509
0.00046056
0.000230816
0.000102398
4.40573e-05
2.75374e-05
0.000644688
0.00064169
0.00063258
0.000628566
0.000628782
0.000630492
0.000633131
0.000636618
0.000640643
0.000644782
0.000648698
0.000652032
0.000655012
0.000657344
0.000658835
0.000659253
0.000658389
0.000656085
0.000652258
0.000647067
0.000638435
0.000626223
0.000613648
0.000600821
0.000587538
0.000574069
0.00056128
0.000550486
0.000542268
0.000536534
0.000532437
0.000527976
0.000519308
0.000502574
0.000473205
0.000430485
0.000376862
0.000323273
0.00033233
0.000332716
0.000239792
0.000580425
0.000578226
0.000570236
0.000566805
0.000567058
0.000568712
0.000571126
0.000574324
0.000577912
0.000581626
0.000585074
0.000587906
0.000590551
0.000592641
0.000594029
0.00059451
0.000593877
0.000591942
0.000588667
0.000583925
0.000576336
0.000565878
0.00055508
0.000544193
0.000532983
0.000521433
0.000510053
0.000499631
0.000491057
0.000485257
0.000482989
0.000484544
0.000489157
0.00049594
0.000502938
0.000508204
0.000511704
0.000506452
0.000501871
0.000459229
0.000502783
0.000524152
0.00052239
0.000515472
0.000512624
0.000512981
0.000514573
0.000516863
0.000519796
0.00052307
0.000526387
0.000529461
0.000531937
0.00053432
0.000536189
0.000537494
0.000538023
0.000537635
0.000536028
0.000533253
0.000528961
0.0005224
0.000513669
0.000504685
0.000495937
0.000487321
0.000478734
0.000470697
0.000463747
0.000458463
0.000455262
0.00045477
0.000457599
0.000463903
0.000473608
0.000486769
0.000502636
0.000520743
0.000538091
0.000562833
0.000564228
0.000634737
0.000474329
0.000473099
0.000467153
0.000464771
0.000465277
0.00046686
0.000469087
0.000471845
0.000474897
0.000477929
0.00048075
0.000482972
0.000485023
0.000486741
0.000488003
0.000488661
0.000488565
0.000487413
0.000485253
0.000481586
0.000476197
0.000469442
0.000462547
0.000456251
0.000450624
0.000445647
0.000441694
0.000439324
0.000438957
0.000440796
0.000445001
0.000451686
0.000460521
0.00047128
0.000484238
0.000499142
0.000515508
0.000530859
0.000553866
0.000555888
0.000616542
0.000430091
0.000429152
0.000424159
0.000422299
0.000422964
0.000424611
0.000426862
0.00042956
0.000432516
0.000435428
0.000438156
0.000440335
0.000442148
0.000443885
0.000445244
0.000446208
0.000446592
0.000446137
0.000444783
0.000442121
0.000438329
0.00043395
0.000429681
0.000426484
0.000424207
0.000422936
0.000422977
0.000424754
0.000428362
0.000433915
0.000441204
0.000450202
0.000460487
0.000471837
0.000484288
0.000497619
0.000511545
0.000523761
0.000542171
0.000540041
0.000589037
0.000390475
0.000389974
0.000385749
0.000384382
0.000385276
0.000387056
0.000389355
0.000392091
0.000395018
0.000397948
0.000400674
0.00040299
0.000404811
0.000406721
0.000408368
0.000409817
0.000410815
0.000411212
0.000410993
0.000409719
0.000407834
0.000406022
0.000404484
0.000404182
0.000405017
0.000406994
0.000410088
0.000414595
0.000420487
0.000427762
0.000436211
0.000445792
0.000456092
0.000466917
0.000478309
0.000490037
0.000501983
0.000511985
0.000527299
0.000522928
0.000563662
0.000354986
0.000354695
0.000351314
0.000350453
0.000351546
0.00035349
0.000355891
0.000358693
0.000361669
0.000364658
0.000367479
0.00036997
0.000372002
0.000374156
0.00037624
0.00037819
0.000379901
0.000381247
0.000382231
0.000382304
0.000382272
0.000382649
0.000383424
0.000385408
0.000388522
0.00039256
0.000397533
0.000403527
0.00041054
0.00041846
0.000427105
0.000436346
0.000445925
0.00045564
0.000465581
0.000475515
0.000485565
0.000493655
0.000506598
0.000500638
0.000535084
0.000322973
0.000322994
0.000320275
0.000319871
0.000321249
0.000323357
0.000325919
0.000328828
0.000331939
0.000335056
0.000338067
0.000340785
0.00034316
0.000345643
0.000348227
0.000350713
0.000353203
0.000355411
0.00035749
0.000358825
0.000360403
0.000362502
0.000365038
0.000368567
0.000373097
0.000378321
0.000384283
0.000390917
0.000398249
0.000406047
0.00041423
0.000422634
0.000431135
0.000439552
0.000448031
0.000456317
0.000464678
0.00047112
0.000482154
0.000474961
0.000504442
0.000294023
0.000294205
0.000292237
0.000292261
0.000293907
0.000296234
0.000299
0.000302041
0.000305332
0.000308599
0.000311844
0.000314861
0.000317623
0.000320453
0.000323545
0.000326565
0.000329713
0.000332746
0.000335814
0.000338263
0.000341116
0.000344507
0.000348225
0.000352778
0.000358158
0.000363999
0.000370289
0.000376966
0.000384028
0.000391314
0.000398747
0.000406219
0.000413636
0.000420882
0.000428063
0.000434963
0.000441917
0.000447024
0.000456485
0.00044837
0.000473932
0.000267712
0.000268152
0.000266758
0.000267245
0.000269174
0.000271732
0.000274677
0.000277906
0.00028133
0.000284809
0.000288247
0.000291595
0.000294671
0.00029784
0.000301324
0.000304841
0.000308531
0.000312264
0.000316024
0.000319353
0.000323063
0.000327323
0.000331757
0.000336873
0.00034251
0.00034846
0.000354636
0.000361046
0.000367611
0.000374261
0.000380865
0.000387412
0.000393791
0.000399962
0.000405976
0.000411688
0.000417444
0.000421427
0.000429597
0.000420836
0.00044347
0.000243735
0.000244331
0.000243581
0.000244465
0.000246648
0.000249461
0.000252589
0.000255992
0.000259562
0.000263234
0.000266867
0.000270495
0.000273899
0.000277354
0.000281118
0.000285013
0.000289076
0.00029326
0.000297509
0.000301446
0.000305725
0.000310481
0.00031528
0.000320573
0.000326214
0.000332066
0.000337998
0.000344008
0.000350008
0.000355977
0.000361815
0.000367531
0.000373041
0.000378324
0.000383429
0.000388224
0.000393088
0.000396274
0.000403512
0.00039439
0.000414895
0.000221781
0.000222583
0.000222341
0.000223619
0.000226072
0.000229086
0.000232429
0.000235982
0.00023972
0.000243541
0.000247378
0.000251208
0.000254908
0.000258612
0.000262598
0.000266739
0.000271057
0.000275512
0.000280059
0.000284339
0.000288945
0.000293889
0.000298769
0.000303977
0.000309426
0.000314955
0.000320447
0.000325899
0.00033127
0.000336535
0.000341647
0.000346607
0.000351353
0.000355855
0.000360194
0.000364241
0.000368378
0.000370914
0.000377412
0.00036807
0.000387192
0.000201611
0.000202565
0.000202866
0.000204499
0.000207172
0.000210445
0.000213945
0.000217683
0.00022152
0.00022551
0.000229466
0.000233484
0.000237364
0.000241285
0.000245388
0.000249703
0.000254115
0.000258697
0.000263368
0.000267847
0.000272547
0.000277493
0.000282309
0.000287343
0.00029249
0.000297655
0.000302722
0.000307702
0.000312553
0.000317281
0.000321836
0.000326223
0.000330396
0.000334354
0.000338159
0.000341685
0.000345332
0.00034749
0.000353462
0.000344262
0.000362584
0.000183023
0.000184176
0.000184945
0.000186924
0.000189849
0.000193298
0.000196992
0.000200844
0.000204817
0.000208886
0.000212978
0.000217081
0.000221136
0.000225165
0.000229372
0.000233723
0.000238178
0.00024275
0.000247446
0.000251922
0.0002566
0.000261371
0.000265985
0.000270686
0.000275455
0.000280152
0.000284732
0.00028917
0.000293476
0.000297618
0.000301597
0.000305402
0.000309025
0.000312444
0.000315744
0.000318797
0.00032202
0.000323858
0.000329392
0.000320257
0.000338325
0.000165832
0.000167185
0.000168461
0.000170767
0.000173928
0.000177557
0.000181413
0.00018536
0.000189428
0.000193541
0.00019771
0.000201851
0.000205987
0.000210031
0.000214227
0.000218532
0.000222924
0.0002274
0.00023201
0.000236394
0.000240946
0.000245535
0.000249969
0.0002544
0.000258847
0.000263195
0.000267425
0.000271506
0.000275463
0.000279265
0.000282925
0.000286428
0.000289781
0.00029296
0.000296047
0.000298924
0.000301994
0.000303798
0.000309125
0.000300571
0.000318759
0.000149814
0.000151417
0.000153159
0.00015584
0.00015925
0.00016309
0.000167091
0.000171155
0.000175254
0.000179405
0.000183572
0.000187738
0.000191898
0.000195995
0.000200174
0.000204443
0.000208733
0.000213084
0.000217517
0.00022178
0.000226162
0.000230506
0.000234631
0.000238702
0.000242737
0.000246664
0.000250455
0.000254097
0.000257604
0.000260973
0.00026421
0.000267319
0.000270297
0.000273139
0.000275916
0.000278525
0.00028133
0.000282994
0.000288029
0.000279937
0.00029858
0.000134772
0.000136619
0.00013883
0.000141869
0.000145581
0.00014963
0.00015384
0.000158018
0.000162212
0.000166356
0.000170519
0.000174604
0.000178689
0.000182621
0.000186619
0.000190713
0.000194836
0.00019898
0.000203195
0.00020723
0.000211344
0.000215407
0.00021929
0.000223098
0.000226866
0.000230541
0.000234107
0.000237548
0.000240885
0.000244121
0.000247265
0.000250315
0.000253276
0.000256142
0.000258975
0.000261675
0.000264581
0.000266464
0.000271484
0.000264282
0.000283398
0.000120819
0.000123007
0.000125684
0.000129063
0.000132957
0.000137175
0.000141502
0.000145789
0.000150029
0.000154229
0.000158406
0.000162546
0.000166671
0.000170727
0.000174767
0.000178817
0.000182782
0.000186762
0.000190785
0.0001947
0.000198659
0.000202537
0.000206188
0.000209731
0.000213197
0.000216568
0.000219804
0.000222914
0.000225913
0.000228829
0.000231665
0.000234446
0.00023717
0.00023985
0.000242533
0.000245153
0.000247969
0.000249916
0.00025475
0.000248569
0.000268606
0.000108302
0.000111157
0.000114485
0.000118254
0.000122314
0.000126527
0.000130721
0.000134883
0.000138965
0.000143034
0.000147029
0.000150962
0.000154777
0.000158463
0.000162096
0.000165829
0.00016951
0.000173159
0.000176769
0.000180253
0.000183736
0.000187191
0.000190527
0.000193821
0.000197066
0.000200269
0.000203399
0.000206474
0.00020949
0.000212474
0.000215425
0.000218364
0.000221284
0.000224192
0.000227125
0.000230014
0.000233102
0.000235389
0.000240328
0.00023497
0.000255358
9.63211e-05
0.000100129
0.000104433
0.00010897
0.000113518
0.000117942
0.000122151
0.000126145
0.000129983
0.000133782
0.000137595
0.000141461
0.000145373
0.000149305
0.000153211
0.000157059
0.000160851
0.000164667
0.000168523
0.000172287
0.000176032
0.000179636
0.000183034
0.000186285
0.000189426
0.000192471
0.000195419
0.000198288
0.000201106
0.0002039
0.00020669
0.000209504
0.000212356
0.000215264
0.000218271
0.000221342
0.000224643
0.000227413
0.000232487
0.000228982
0.000250668
8.21684e-05
8.64052e-05
9.14971e-05
9.68494e-05
0.000102224
0.000107448
0.000112431
0.00011707
0.000121378
0.000125358
0.000129056
0.00013247
0.000135639
0.000138528
0.000141202
0.000143787
0.000146295
0.000148749
0.000151288
0.00015389
0.000156663
0.000159545
0.000162463
0.000165405
0.000168377
0.00017138
0.000174403
0.000177438
0.000180484
0.000183552
0.000186646
0.000189772
0.000192929
0.000196121
0.000199376
0.000202637
0.000206094
0.00020897
0.000214
0.000210646
0.000231938
6.77304e-05
7.32946e-05
7.97821e-05
8.59067e-05
9.14074e-05
9.63462e-05
0.000100856
0.000105081
0.000109191
0.000113345
0.000117625
0.000122083
0.000126731
0.000131557
0.000136629
0.000141771
0.000146674
0.000151254
0.000155521
0.000159475
0.000163219
0.000166762
0.000170102
0.000173282
0.000176359
0.000179366
0.000182324
0.000185265
0.000188225
0.000191241
0.000194344
0.000197568
0.000200934
0.000204466
0.000208203
0.000212143
0.000216366
0.000220404
0.00022621
0.000225803
0.000248828
6.55409e-05
7.29659e-05
7.92731e-05
8.46393e-05
8.95601e-05
9.45123e-05
9.95332e-05
0.000104506
0.000109153
0.000113248
0.000116582
0.000118993
0.000120441
0.000121008
0.000120614
0.000119287
0.000117819
0.000117007
0.000117137
0.000118106
0.000119757
0.000121858
0.000124317
0.000127014
0.000129879
0.000132868
0.000135953
0.000139104
0.00014231
0.000145564
0.00014887
0.000152228
0.000155652
0.000159141
0.000162713
0.000166327
0.000170155
0.000173622
0.000178822
0.000177365
0.000198696
9.3327e-05
0.000112499
0.000127611
0.00013903
0.000147324
0.000152959
0.000156431
0.000158193
0.000158728
0.000158496
0.000157943
0.000157446
0.000157294
0.000157604
0.000158415
0.000159988
0.000162305
0.000164928
0.000167618
0.000170261
0.000172795
0.000175309
0.000177675
0.000179924
0.000182089
0.000184201
0.000186293
0.000188413
0.000190609
0.000192923
0.000195401
0.00019809
0.00020103
0.000204257
0.000207822
0.000211744
0.000216117
0.000220571
0.00022683
0.000227443
0.000252858
0.456677
0.36429
0.314095
0.276011
0.238871
0.188656
0.121239
0.0690607
0.0552115
0.0282857
0.0109226
0.0044076
0.0029264
0.00284795
0.00297383
0.00304713
0.00312397
0.00313043
0.00313152
0.00308133
0.00302258
0.00293738
0.00284184
0.00273677
0.00262651
0.00251369
0.00240033
0.00228795
0.00217812
0.00207237
0.00196879
0.00186795
0.00176938
0.00167212
0.00157623
0.00148158
0.00138802
0.001296
0.00120511
0.00111585
0.00102903
0.000943716
0.000861182
0.000781526
0.000705459
0.000634074
0.000569521
0.000512759
0.000468618
0.000438458
0.000423488
0.000418826
0.000420823
0.000424471
0.000426034
0.000429198
0.00042536
0.000423102
0.000414421
0.000407648
0.000394143
0.000384524
0.000369405
0.000353771
0.00033956
0.000320622
0.000306933
0.000288905
0.00027365
0.000256977
0.000245126
0.000229247
0.000222031
0.000206542
0.48128
0.41676
0.362521
0.321314
0.2842
0.238133
0.171323
0.0897945
0.0591481
0.0396289
0.0160534
0.00573852
0.00308678
0.00286627
0.00292544
0.00295627
0.00301472
0.00301151
0.00301069
0.0029655
0.00291083
0.00283381
0.00274466
0.00264638
0.00254245
0.00243607
0.00232824
0.00222054
0.00211505
0.0020133
0.001913
0.00181463
0.00171884
0.00162361
0.00153033
0.00143824
0.0013472
0.001258
0.00117002
0.00108385
0.00100005
0.000918105
0.000838956
0.000762772
0.000690629
0.000623018
0.000562352
0.000509652
0.000467857
0.000438669
0.000422653
0.000415592
0.000414803
0.000416036
0.000415237
0.000417307
0.000412141
0.000409268
0.000399854
0.000393215
0.000379427
0.000370158
0.000355729
0.000339971
0.000326877
0.000308371
0.000295583
0.000278699
0.000264362
0.00024845
0.000238363
0.000222945
0.000217725
0.000202436
0.467602
0.4376
0.40112
0.363095
0.326793
0.285698
0.22558
0.142448
0.0562535
0.0521267
0.0265601
0.00925554
0.00349228
0.00296669
0.00294876
0.00292417
0.002932
0.00291158
0.00289089
0.00284806
0.0027913
0.00272109
0.00263733
0.00254564
0.00244809
0.00234803
0.00224649
0.0021439
0.00204318
0.00194556
0.00184943
0.00175439
0.00166216
0.00157007
0.00148027
0.00139172
0.00130442
0.00121916
0.00113542
0.00105354
0.00097424
0.000897232
0.000822793
0.00075216
0.000684953
0.000623347
0.000568431
0.000519673
0.000480829
0.000452779
0.000433327
0.000422286
0.000416389
0.000413482
0.000410355
0.000406884
0.000401316
0.000395964
0.000386587
0.000378403
0.000365834
0.000354354
0.000341368
0.000326209
0.000313039
0.000296345
0.000282725
0.000267772
0.000254451
0.000239668
0.000230678
0.000216116
0.000212836
0.000197796
0.491898
0.462732
0.434093
0.397384
0.360823
0.323636
0.273897
0.197519
0.0999583
0.0543353
0.041798
0.0170104
0.00527638
0.00302827
0.0029974
0.0029336
0.00288712
0.00284236
0.00279802
0.00275043
0.00268926
0.00262205
0.00254211
0.00245547
0.00236321
0.00226835
0.00217189
0.00207399
0.00197728
0.00188303
0.00179022
0.00169843
0.0016094
0.00152065
0.00143432
0.00134936
0.00126592
0.00118466
0.00110512
0.0010277
0.000952882
0.00088068
0.000811117
0.000745478
0.000683219
0.000626629
0.000576054
0.000530784
0.000493866
0.000465578
0.000443532
0.000428686
0.00041827
0.000411254
0.000405312
0.000397609
0.000391002
0.000383456
0.000373854
0.000364277
0.0003525
0.000339513
0.000327474
0.000313122
0.000299914
0.000284808
0.000270821
0.000257379
0.00024515
0.00023147
0.000223533
0.000209654
0.000208199
0.000193248
0.52677
0.495888
0.469047
0.431271
0.392906
0.357265
0.317031
0.252108
0.159374
0.0524785
0.0555131
0.0304455
0.0105975
0.00345171
0.00301002
0.00296202
0.00287126
0.00279901
0.00273176
0.00267433
0.00260727
0.00254001
0.00246234
0.00237918
0.0022908
0.00219995
0.00210725
0.00201328
0.00191989
0.00182841
0.00173817
0.00164903
0.00156262
0.00147682
0.00139373
0.00131232
0.00123263
0.00115518
0.00107957
0.00100643
0.000935666
0.000867793
0.000802766
0.000741169
0.000683533
0.000630523
0.000582906
0.000540587
0.00050464
0.000475164
0.000451481
0.000433222
0.000419117
0.000408325
0.000398962
0.000389164
0.00038066
0.000371612
0.000361226
0.00035089
0.000339026
0.000325843
0.00031426
0.00030057
0.000287755
0.00027369
0.000260137
0.000247802
0.000236672
0.000223993
0.000217223
0.000203852
0.000204071
0.000189095
0.573294
0.537928
0.507826
0.467492
0.425917
0.388681
0.353615
0.302988
0.219951
0.112307
0.0543827
0.047643
0.0209761
0.00659777
0.0030361
0.00298979
0.00288219
0.0027788
0.00268936
0.00261871
0.00254439
0.00247462
0.00239763
0.00231651
0.00223068
0.00214265
0.00205242
0.00196128
0.00187055
0.00178151
0.00169371
0.00160711
0.00152311
0.00143983
0.00135959
0.00128143
0.0012053
0.00113147
0.00105977
0.00099069
0.000923773
0.000859945
0.00079896
0.000741191
0.000687362
0.000637353
0.000592235
0.00055182
0.000516236
0.000485729
0.00046039
0.000439131
0.000421685
0.000407336
0.000394651
0.00038273
0.00037194
0.000361328
0.000349852
0.000338767
0.000326525
0.000313426
0.00030204
0.000288771
0.000276462
0.000263191
0.000250428
0.000239024
0.00022893
0.00021714
0.000211626
0.000198702
0.000200442
0.000185477
0.620738
0.580627
0.54787
0.506219
0.462154
0.421475
0.386267
0.3475
0.279231
0.17816
0.0573227
0.0609148
0.0370899
0.0141634
0.0042998
0.00298992
0.00291735
0.00278513
0.00267064
0.00258425
0.00250099
0.00242625
0.00234806
0.00226759
0.00218317
0.00209676
0.00200804
0.00191852
0.00182938
0.00174185
0.0016559
0.00157176
0.00149043
0.00141006
0.00133283
0.00125767
0.0011847
0.00111411
0.00104608
0.0009807
0.000917477
0.000857404
0.000800068
0.000745956
0.000695151
0.000647811
0.000604821
0.000565547
0.000530094
0.000498927
0.000471866
0.000448107
0.000427652
0.000410032
0.00039441
0.000379664
0.000366468
0.000353864
0.000341098
0.000328846
0.000316181
0.000302744
0.000291292
0.000278252
0.000266211
0.000253655
0.000241604
0.000231009
0.000221852
0.000210833
0.000206529
0.000194051
0.000197138
0.000182274
0.656391
0.614306
0.582569
0.543744
0.500939
0.458227
0.419569
0.38517
0.334512
0.245545
0.128235
0.0535872
0.0552792
0.0275437
0.00965402
0.00341854
0.00294706
0.00282306
0.00267876
0.0025724
0.00247834
0.00239619
0.00231475
0.00223327
0.002149
0.0020633
0.00197554
0.00188682
0.00179835
0.00171133
0.00162595
0.00154286
0.00146326
0.00138573
0.00131191
0.00124028
0.00117078
0.00110344
0.00103867
0.000976439
0.000916368
0.000859488
0.000805349
0.000754338
0.000706036
0.000660947
0.00061955
0.000581148
0.000545835
0.000514134
0.000485577
0.000459887
0.000436907
0.000416448
0.000398143
0.000380524
0.000364898
0.000350004
0.000335739
0.000321907
0.000308581
0.000294353
0.000282483
0.000269537
0.000257416
0.00024541
0.000233813
0.000223843
0.000215492
0.000205135
0.000201871
0.000189813
0.000194057
0.000179326
0.667774
0.627851
0.602034
0.572316
0.537308
0.497909
0.456975
0.42019
0.383004
0.312442
0.202177
0.0725862
0.0652289
0.0458847
0.0201252
0.00688535
0.00313621
0.0028807
0.00272074
0.00258605
0.00247736
0.00238566
0.00229902
0.0022145
0.00212891
0.00204311
0.00195566
0.00186721
0.00177908
0.00169252
0.0016076
0.00152487
0.00144542
0.00136862
0.00129625
0.00122717
0.00116111
0.00109757
0.00103643
0.000977455
0.000920314
0.000866068
0.000814453
0.000765695
0.000719349
0.000675957
0.000635657
0.000597986
0.000562893
0.000530702
0.000500959
0.000473769
0.000448785
0.000425952
0.000405206
0.000385101
0.000367144
0.000349929
0.00033397
0.000318346
0.000303994
0.000288696
0.000276041
0.000262962
0.000250454
0.000238732
0.000227303
0.000217724
0.000210008
0.000200197
0.000197738
0.000186063
0.000191241
0.000176602
0.646975
0.612064
0.594918
0.580219
0.560853
0.533606
0.497644
0.458469
0.425109
0.375983
0.279148
0.152115
0.0417622
0.0629836
0.0365667
0.01498
0.00528105
0.00303573
0.00279743
0.00263256
0.00250047
0.00239596
0.00230195
0.00221245
0.00212408
0.00203647
0.00194746
0.00185829
0.0017705
0.00168461
0.00160085
0.00151957
0.00144137
0.00136538
0.00129279
0.0012233
0.0011577
0.00109575
0.00103714
0.000981235
0.000927373
0.000875999
0.000826867
0.000780019
0.000735236
0.000692948
0.000653278
0.000615943
0.000580999
0.000548324
0.00051769
0.000489235
0.000462682
0.000437922
0.000415029
0.000392898
0.000372753
0.000353455
0.000335565
0.000318202
0.000302423
0.000285943
0.000272155
0.000258575
0.000245448
0.000233694
0.000222221
0.000212773
0.000205472
0.000196076
0.000194203
0.000182876
0.000188776
0.000174154
0.596007
0.565574
0.554799
0.556142
0.557098
0.551201
0.532473
0.500538
0.466885
0.43411
0.358373
0.2355
0.098262
0.0649917
0.0557484
0.0290291
0.0116539
0.00448996
0.00297673
0.00272299
0.00255504
0.00242952