/*--------------------------------*- C++ -*----------------------------------*\
| =========                 |                                                 |
| \\      /  F ield         | OpenFOAM: The Open Source CFD Toolbox           |
|  \\    /   O peration     | Version:  2312                                  |
|   \\  /    A nd           | Website:  www.openfoam.com                      |
|    \\/     M anipulation  |                                                 |
\*---------------------------------------------------------------------------*/
FoamFile
{
    version     2.0;
    format      ascii;
    arch        "LSB;label=32;scalar=64";
    class       volScalarField;
    location    "300";
    object      turbulenceProperties:nut;
}
// * * * * * * * * * * * * * * * * * * * * * * * * * * * * * * * * * * * * * //

dimensions      [0 2 -1 0 0 0 0];

internalField   nonuniform List<scalar> 
11040
(
2.23168e-05
4.62844e-05
5.7056e-05
4.7978e-06
4.00952e-05
0.000167201
0.000179212
0.000182199
0.000172671
0.000168265
0.000159152
0.000148345
0.000138998
0.00012892
0.000119969
0.00011413
0.000111918
0.000113796
0.000117522
0.000118586
0.000103963
6.8269e-05
7.73753e-05
8.48184e-05
8.80277e-05
7.9687e-05
7.64199e-05
4.77444e-05
2.68402e-05
1.60178e-05
0.000134046
0.000225294
0.000290399
0.000317754
0.000308538
0.000276301
0.000240952
0.000254064
0.00026796
0.00028083
0.00029318
4.48872e-06
1.49411e-05
5.93811e-05
7.27757e-05
0.000155086
0.000626342
0.000710839
0.000672228
0.000590873
0.000564373
0.000514392
0.000460116
0.000422532
0.000387707
0.000360035
0.00034514
0.000339054
0.000343594
0.000358858
0.000386795
0.000419446
0.000464038
0.000511916
0.000548704
0.000555659
0.000516895
0.000460888
0.000404059
0.000343552
0.000259329
0.000430676
0.000640382
0.000809882
0.000938267
0.00104563
0.00113972
0.00122441
0.00130761
0.00139481
0.00143171
0.00154683
6.68089e-06
5.32802e-06
1.54254e-05
4.66784e-05
8.20645e-05
0.000386086
0.000875885
0.00117737
0.00127738
0.00126362
0.00117992
0.0010653
0.000984488
0.000912489
0.000847016
0.000809992
0.000793379
0.000800053
0.000829615
0.000879026
0.000936559
0.00101775
0.00111434
0.00120124
0.0012438
0.00119402
0.00109691
0.000988053
0.000843331
0.000647482
0.00104318
0.00153365
0.00189288
0.00217064
0.002402
0.00260275
0.00278819
0.00296035
0.00313874
0.00324392
0.00344517
6.20352e-06
6.19835e-06
5.33677e-06
1.35084e-05
2.11259e-05
0.000121802
0.000458454
0.00103211
0.00157043
0.00178252
0.00186612
0.00185661
0.0017918
0.00168027
0.00155723
0.00148228
0.00144627
0.00144983
0.00149429
0.00156377
0.00164567
0.00175933
0.00190729
0.00206957
0.00218048
0.00214746
0.00201674
0.0018661
0.0016392
0.00128703
0.002024
0.00284635
0.00345814
0.00393928
0.00433603
0.00467491
0.00498127
0.00526196
0.00554657
0.00575232
0.00606275
6.15917e-06
6.40726e-06
5.67609e-06
5.98766e-06
7.27076e-06
7.75693e-06
0.00010916
0.000450838
0.0010873
0.00181204
0.00225989
0.00244512
0.00252248
0.00253308
0.00249518
0.00242403
0.00236243
0.00235231
0.00241146
0.00249343
0.00259399
0.00272221
0.00289683
0.00313696
0.00335116
0.00341202
0.00327955
0.00312346
0.00281492
0.00229676
0.00347782
0.00469471
0.00562732
0.00636563
0.00696568
0.00746807
0.0079096
0.00830858
0.00870492
0.00903676
0.00948903
6.18208e-06
6.17262e-06
6.27392e-06
5.78135e-06
6.13601e-06
3.37777e-06
1.11144e-06
6.15514e-05
0.000384352
0.00102385
0.00188607
0.00261989
0.00301408
0.00321413
0.00331686
0.00337686
0.00344655
0.00354622
0.00364762
0.00373587
0.00386361
0.00396481
0.0041055
0.00438575
0.00472251
0.00500123
0.0049688
0.00474221
0.00424084
0.00384025
0.00555873
0.00723696
0.00855904
0.00960812
0.0104463
0.0111304
0.0117104
0.0122216
0.0127175
0.013179
0.0137973
6.15881e-06
6.16588e-06
6.20403e-06
6.14972e-06
6.10476e-06
6.01068e-06
2.01318e-06
2.72726e-08
8.20551e-06
0.000272697
0.000857751
0.00177446
0.00276755
0.00348765
0.00389572
0.00415761
0.00438489
0.00465583
0.00499757
0.0053477
0.00553871
0.00559155
0.00559951
0.00580352
0.00624102
0.00688377
0.00700399
0.00658747
0.00602122
0.00612069
0.00846024
0.0106786
0.0124615
0.013874
0.0149795
0.0158513
0.0165554
0.0171462
0.0177005
0.0182566
0.0190298
6.15076e-06
6.16368e-06
6.16873e-06
6.19609e-06
6.16194e-06
6.27768e-06
6.50615e-06
1.82403e-06
6.36111e-16
1.07149e-12
0.000134724
0.000619755
0.00149823
0.0026479
0.003732
0.00448936
0.00501863
0.00551567
0.00609703
0.00676952
0.00738299
0.00767642
0.00749908
0.00744001
0.00784627
0.00875728
0.00912244
0.00868194
0.00826574
0.00932737
0.0124181
0.0152915
0.017613
0.0194369
0.020827
0.021874
0.022666
0.0232698
0.023792
0.0243419
0.0251767
6.14633e-06
6.1562e-06
6.16614e-06
6.16592e-06
6.19687e-06
6.12011e-06
6.57446e-06
6.8776e-06
2.42852e-06
1.1931e-08
2.02844e-06
2.079e-05
0.000368331
0.00112169
0.00229149
0.0036504
0.00486364
0.00582234
0.0067269
0.00772736
0.00877837
0.00960637
0.00989431
0.00950493
0.00956191
0.0103618
0.0112088
0.0110655
0.0110213
0.0136298
0.0176943
0.0214192
0.0243759
0.0266659
0.0283576
0.0295365
0.0303448
0.0308449
0.0311705
0.0315299
0.0322204
6.14315e-06
6.15217e-06
6.15744e-06
6.1631e-06
6.16562e-06
6.18006e-06
6.11726e-06
6.65129e-06
7.23976e-06
3.81853e-06
1.57185e-08
1.0987e-07
6.6711e-07
0.000174834
0.000715969
0.00177116
0.00324473
0.00487794
0.00642521
0.0078963
0.00939874
0.0107693
0.0117212
0.0120043
0.0116211
0.0120054
0.0131676
0.0137603
0.0149536
0.019077
0.0245924
0.0293689
0.0331978
0.0361138
0.0381144
0.0393434
0.0400898
0.0403546
0.0402104
0.0400637
0.0402513
6.14159e-06
6.14777e-06
6.15119e-06
6.15528e-06
6.15688e-06
6.16666e-06
6.15975e-06
6.14367e-06
6.51544e-06
7.57842e-06
4.63207e-06
3.08233e-07
1.36217e-08
2.39894e-06
7.47521e-06
0.000359174
0.00118562
0.00258925
0.00447155
0.00660947
0.00877172
0.0107482
0.012364
0.013466
0.0139665
0.0140775
0.0149297
0.0165178
0.0196315
0.0254514
0.0319278
0.0376301
0.0424673
0.0464145
0.0493955
0.0513453
0.0522902
0.0522333
0.0512947
0.0503211
0.0494585
6.13868e-06
6.14301e-06
6.14578e-06
6.1481e-06
6.15185e-06
6.15327e-06
6.16231e-06
6.15457e-06
6.1303e-06
6.37139e-06
7.34524e-06
6.28555e-06
1.30494e-06
3.56329e-10
9.04268e-09
2.54815e-05
9.03472e-05
0.000632272
0.00178753
0.00366827
0.00617771
0.00887381
0.011266
0.0131992
0.0146818
0.0159089
0.0173002
0.0196507
0.0242399
0.0313329
0.0384405
0.0449425
0.0506582
0.0555075
0.0594085
0.0622368
0.0639579
0.0645716
0.0640621
0.062479
0.0600345
6.13526e-06
6.1386e-06
6.14077e-06
6.14308e-06
6.14557e-06
6.14869e-06
6.15115e-06
6.15678e-06
6.15889e-06
6.11314e-06
6.24695e-06
6.99877e-06
7.03764e-06
4.02794e-06
9.98489e-08
1.17628e-09
2.63731e-07
1.03487e-06
0.000237397
0.00098318
0.00258221
0.00497068
0.00775115
0.0104788
0.0129075
0.0152499
0.0180829
0.022095
0.0278682
0.0352837
0.0430134
0.0503154
0.0568792
0.0625668
0.0672827
0.0708869
0.0733046
0.0745438
0.0746094
0.073541
0.0714399
6.13139e-06
6.13478e-06
6.13672e-06
6.13913e-06
6.14148e-06
6.14402e-06
6.14691e-06
6.14916e-06
6.15452e-06
6.15823e-06
6.11749e-06
6.13992e-06
6.68771e-06
7.49602e-06
5.99154e-06
1.06368e-06
7.39393e-09
8.1579e-10
2.0698e-06
0.000155664
0.000330817
0.00136776
0.00316151
0.00555893
0.00825218
0.0111296
0.0147359
0.0199961
0.0271157
0.0354529
0.0441066
0.0524034
0.0599602
0.066598
0.0722147
0.0766857
0.0798997
0.0818442
0.0825165
0.081965
0.0802869
6.12719e-06
6.13096e-06
6.13374e-06
6.13635e-06
6.13882e-06
6.14103e-06
6.14347e-06
6.14591e-06
6.14797e-06
6.1532e-06
6.15708e-06
6.12514e-06
6.11383e-06
6.36404e-06
7.35208e-06
7.08549e-06
4.12137e-06
4.57342e-08
1.05661e-09
1.72823e-13
5.75228e-06
0.000206175
0.000381308
0.00138928
0.00303254
0.00517326
0.0079965
0.0126144
0.0199859
0.0293911
0.0394342
0.0491772
0.0581394
0.0661015
0.0729587
0.0786221
0.082976
0.0859787
0.0876003
0.0878549
0.0868085
6.12282e-06
6.12717e-06
6.13057e-06
6.13365e-06
6.13652e-06
6.13918e-06
6.14162e-06
6.14366e-06
6.14585e-06
6.14816e-06
6.15182e-06
6.15817e-06
6.13735e-06
6.10279e-06
6.19184e-06
6.90125e-06
7.54128e-06
6.3393e-06
1.77773e-06
1.93261e-09
1.5002e-10
0
5.99097e-06
0.000172742
0.000252416
0.00100164
0.00222738
0.0042856
0.00848829
0.0161178
0.0265316
0.0378831
0.0488305
0.0587962
0.0675692
0.0750475
0.0811551
0.085844
0.0890517
0.0907415
0.0909303
6.11855e-06
6.12351e-06
6.12738e-06
6.13075e-06
6.13382e-06
6.13664e-06
6.13928e-06
6.14174e-06
6.14406e-06
6.14642e-06
6.14896e-06
6.15204e-06
6.15781e-06
6.15366e-06
6.10871e-06
6.1322e-06
6.35019e-06
7.35824e-06
7.49617e-06
5.72806e-06
5.41755e-07
5.05311e-09
1.09532e-11
0
8.26353e-07
7.22095e-05
1.51322e-05
0.000286821
0.00110658
0.00350399
0.00902959
0.0181666
0.0296569
0.0417022
0.0531153
0.063324
0.0720919
0.0793652
0.0850713
0.0891247
0.0914975
6.11456e-06
6.11986e-06
6.12394e-06
6.12739e-06
6.13047e-06
6.13331e-06
6.13598e-06
6.13855e-06
6.14101e-06
6.14345e-06
6.14616e-06
6.14889e-06
6.15258e-06
6.15751e-06
6.16128e-06
6.13314e-06
6.09956e-06
6.15906e-06
6.77516e-06
7.81082e-06
7.05995e-06
4.66453e-06
2.14382e-07
2.81183e-09
1.34005e-11
0
9.32618e-10
7.91952e-07
5.63697e-05
0.000339954
0.000405484
0.00259427
0.0083002
0.0176203
0.0293777
0.0418308
0.0536635
0.0642343
0.0732732
0.0806062
0.0861772
6.1109e-06
6.11631e-06
6.12043e-06
6.12383e-06
6.12683e-06
6.1296e-06
6.13223e-06
6.13479e-06
6.13728e-06
6.13974e-06
6.14239e-06
6.14539e-06
6.14854e-06
6.15235e-06
6.1576e-06
6.16313e-06
6.159e-06
6.09857e-06
6.09821e-06
6.32714e-06
7.28782e-06
8.11151e-06
6.56094e-06
3.95181e-06
3.26235e-07
3.41207e-09
3.68077e-11
5.07995e-13
0
0
2.0555e-06
0.000176495
0.000871006
0.00156541
0.00674727
0.0155994
0.0271548
0.0397742
0.0520243
0.0629903
0.0723434
6.10767e-06
6.11314e-06
6.11723e-06
6.12055e-06
6.12346e-06
6.12617e-06
6.12877e-06
6.13131e-06
6.13381e-06
6.1363e-06
6.13888e-06
6.14178e-06
6.14504e-06
6.1487e-06
6.15238e-06
6.15763e-06
6.16508e-06
6.16891e-06
6.13211e-06
6.07575e-06
6.18439e-06
6.55975e-06
7.56847e-06
8.27542e-06
6.66016e-06
4.21787e-06
1.1016e-06
1.71607e-08
5.70592e-10
5.16026e-12
0
0
0
8.0755e-05
0.000565353
0.000641071
0.00462297
0.0120835
0.0224726
0.0344434
0.0466707
6.10481e-06
6.11025e-06
6.11425e-06
6.11748e-06
6.12034e-06
6.12301e-06
6.1256e-06
6.12813e-06
6.13066e-06
6.13317e-06
6.13572e-06
6.13855e-06
6.14174e-06
6.14531e-06
6.1493e-06
6.15331e-06
6.15818e-06
6.1667e-06
6.17209e-06
6.16182e-06
6.10705e-06
6.0804e-06
6.26023e-06
6.73552e-06
7.6236e-06
8.3079e-06
7.33604e-06
5.20931e-06
2.54621e-06
2.22047e-07
2.49671e-09
2.03696e-11
2.7541e-13
0
0
6.24999e-06
0.000297473
6.00046e-05
0.00216628
0.00707299
0.0145978
6.10226e-06
6.1076e-06
6.1115e-06
6.11466e-06
6.11749e-06
6.12015e-06
6.12274e-06
6.12528e-06
6.12782e-06
6.13035e-06
6.13292e-06
6.13569e-06
6.13881e-06
6.1423e-06
6.14621e-06
6.15041e-06
6.15484e-06
6.15961e-06
6.16692e-06
6.1762e-06
6.17497e-06
6.15274e-06
6.09451e-06
6.08659e-06
6.30393e-06
6.75066e-06
7.4756e-06
8.21481e-06
7.97948e-06
6.58106e-06
4.54572e-06
1.10892e-06
1.70358e-08
5.02046e-10
3.44786e-12
0
0
2.15958e-09
0.000104977
0.000475645
0.000395231
6.09997e-06
6.10516e-06
6.10896e-06
6.11209e-06
6.11491e-06
6.11758e-06
6.12018e-06
6.12273e-06
6.12527e-06
6.12783e-06
6.13041e-06
6.13313e-06
6.13617e-06
6.13959e-06
6.14338e-06
6.14754e-06
6.15202e-06
6.15669e-06
6.16179e-06
6.16782e-06
6.17712e-06
6.18604e-06
6.17843e-06
6.14596e-06
6.10019e-06
6.10388e-06
6.28473e-06
6.6431e-06
7.17673e-06
8.03492e-06
8.53339e-06
7.60185e-06
6.07867e-06
3.13869e-06
2.75141e-07
2.61103e-09
2.26696e-11
4.70092e-13
0
0
5.47412e-07
6.09788e-06
6.1029e-06
6.10664e-06
6.10976e-06
6.11259e-06
6.11527e-06
6.11787e-06
6.12043e-06
6.12298e-06
6.12555e-06
6.12813e-06
6.1308e-06
6.13376e-06
6.13708e-06
6.14077e-06
6.14482e-06
6.1492e-06
6.15391e-06
6.1589e-06
6.16397e-06
6.16986e-06
6.178e-06
6.18883e-06
6.19559e-06
6.18444e-06
6.15521e-06
6.12312e-06
6.1152e-06
6.20524e-06
6.45995e-06
6.88648e-06
7.57168e-06
8.42904e-06
8.43122e-06
6.90377e-06
5.19489e-06
2.28613e-06
5.43148e-08
8.55793e-10
1.53077e-11
1.27701e-12
6.09596e-06
6.10083e-06
6.10453e-06
6.10766e-06
6.1105e-06
6.11319e-06
6.1158e-06
6.11836e-06
6.1209e-06
6.12346e-06
6.12604e-06
6.12869e-06
6.13157e-06
6.13479e-06
6.13835e-06
6.14226e-06
6.1465e-06
6.15105e-06
6.15595e-06
6.1611e-06
6.16642e-06
6.17225e-06
6.17963e-06
6.18931e-06
6.19973e-06
6.2053e-06
6.19848e-06
6.17841e-06
6.14767e-06
6.12041e-06
6.15208e-06
6.30158e-06
6.61284e-06
7.1388e-06
7.79249e-06
8.38915e-06
8.24323e-06
6.48601e-06
4.45074e-06
2.21935e-06
2.17216e-07
6.09419e-06
6.09895e-06
6.10262e-06
6.10575e-06
6.1086e-06
6.1113e-06
6.1139e-06
6.11645e-06
6.11897e-06
6.12151e-06
6.12409e-06
6.12671e-06
6.12952e-06
6.13264e-06
6.13608e-06
6.13984e-06
6.14392e-06
6.14829e-06
6.15298e-06
6.15794e-06
6.16323e-06
6.16889e-06
6.17482e-06
6.18149e-06
6.1898e-06
6.19961e-06
6.20953e-06
6.21734e-06
6.2167e-06
6.2027e-06
6.17967e-06
6.15006e-06
6.13656e-06
6.20892e-06
6.38699e-06
6.67509e-06
7.18771e-06
7.76249e-06
8.10126e-06
7.94967e-06
7.04295e-06
6.09257e-06
6.09723e-06
6.10089e-06
6.10402e-06
6.10687e-06
6.10955e-06
6.11214e-06
6.11466e-06
6.11716e-06
6.11967e-06
6.12222e-06
6.12481e-06
6.12755e-06
6.13056e-06
6.13388e-06
6.1375e-06
6.14141e-06
6.1456e-06
6.15008e-06
6.15479e-06
6.15983e-06
6.1653e-06
6.17104e-06
6.17705e-06
6.18345e-06
6.19058e-06
6.19878e-06
6.20825e-06
6.21845e-06
6.22724e-06
6.23162e-06
6.22711e-06
6.21046e-06
6.18869e-06
6.17075e-06
6.17054e-06
6.23921e-06
6.40823e-06
6.64631e-06
6.97988e-06
7.42303e-06
6.09109e-06
6.09568e-06
6.09932e-06
6.10244e-06
6.10527e-06
6.10792e-06
6.11047e-06
6.11296e-06
6.11543e-06
6.1179e-06
6.12041e-06
6.12296e-06
6.12561e-06
6.12851e-06
6.1317e-06
6.13518e-06
6.13892e-06
6.14292e-06
6.14719e-06
6.15167e-06
6.15643e-06
6.16156e-06
6.16698e-06
6.17269e-06
6.17863e-06
6.18482e-06
6.19132e-06
6.19826e-06
6.20601e-06
6.21469e-06
6.22401e-06
6.2333e-06
6.2403e-06
6.24209e-06
6.23747e-06
6.22489e-06
6.20731e-06
6.19747e-06
6.2027e-06
6.24585e-06
6.32578e-06
6.08974e-06
6.09426e-06
6.09787e-06
6.10096e-06
6.10376e-06
6.10638e-06
6.10888e-06
6.11132e-06
6.11374e-06
6.11616e-06
6.11862e-06
6.12112e-06
6.1237e-06
6.1265e-06
6.12955e-06
6.13287e-06
6.13643e-06
6.14024e-06
6.14428e-06
6.14852e-06
6.15301e-06
6.15781e-06
6.16285e-06
6.16813e-06
6.17365e-06
6.17937e-06
6.18525e-06
6.19128e-06
6.19746e-06
6.20391e-06
6.21074e-06
6.21817e-06
6.22617e-06
6.23425e-06
6.24175e-06
6.24737e-06
6.24912e-06
6.24631e-06
6.23946e-06
6.23035e-06
6.22118e-06
6.08851e-06
6.09296e-06
6.09652e-06
6.09957e-06
6.10232e-06
6.10488e-06
6.10733e-06
6.10971e-06
6.11207e-06
6.11444e-06
6.11683e-06
6.11928e-06
6.12179e-06
6.12448e-06
6.1274e-06
6.13056e-06
6.13395e-06
6.13755e-06
6.14137e-06
6.14536e-06
6.14957e-06
6.15405e-06
6.15871e-06
6.16357e-06
6.16861e-06
6.17382e-06
6.17915e-06
6.1846e-06
6.19012e-06
6.19568e-06
6.20126e-06
6.20691e-06
6.21268e-06
6.21865e-06
6.22486e-06
6.23126e-06
6.23753e-06
6.24314e-06
6.2477e-06
6.24982e-06
6.25157e-06
6.08739e-06
6.09175e-06
6.09525e-06
6.09824e-06
6.10092e-06
6.10341e-06
6.10579e-06
6.10811e-06
6.11041e-06
6.11271e-06
6.11504e-06
6.11742e-06
6.11987e-06
6.12245e-06
6.12524e-06
6.12825e-06
6.13146e-06
6.13486e-06
6.13845e-06
6.1422e-06
6.14614e-06
6.15029e-06
6.15459e-06
6.15905e-06
6.16363e-06
6.16833e-06
6.17312e-06
6.17798e-06
6.18288e-06
6.1878e-06
6.1927e-06
6.19755e-06
6.20232e-06
6.20701e-06
6.21164e-06
6.21622e-06
6.22077e-06
6.22527e-06
6.22977e-06
6.23377e-06
6.23818e-06
6.08636e-06
6.09062e-06
6.09404e-06
6.09694e-06
6.09954e-06
6.10196e-06
6.10427e-06
6.10652e-06
6.10875e-06
6.11098e-06
6.11325e-06
6.11555e-06
6.11792e-06
6.1204e-06
6.12307e-06
6.12593e-06
6.12896e-06
6.13217e-06
6.13554e-06
6.13905e-06
6.14272e-06
6.14657e-06
6.15052e-06
6.15459e-06
6.15876e-06
6.16299e-06
6.16728e-06
6.17159e-06
6.17591e-06
6.18021e-06
6.18447e-06
6.18866e-06
6.19276e-06
6.19674e-06
6.20058e-06
6.20427e-06
6.20777e-06
6.2111e-06
6.21429e-06
6.21712e-06
6.22026e-06
6.08541e-06
6.08955e-06
6.09286e-06
6.09567e-06
6.09818e-06
6.10051e-06
6.10274e-06
6.10492e-06
6.10708e-06
6.10925e-06
6.11144e-06
6.11368e-06
6.11597e-06
6.11834e-06
6.12088e-06
6.12359e-06
6.12647e-06
6.12948e-06
6.13265e-06
6.13593e-06
6.13934e-06
6.14289e-06
6.14653e-06
6.15024e-06
6.15401e-06
6.15783e-06
6.16166e-06
6.16548e-06
6.16928e-06
6.17304e-06
6.17673e-06
6.18034e-06
6.18383e-06
6.18721e-06
6.19044e-06
6.1935e-06
6.19638e-06
6.19906e-06
6.20157e-06
6.20372e-06
6.20607e-06
6.08451e-06
6.08851e-06
6.0917e-06
6.0944e-06
6.09681e-06
6.09906e-06
6.10122e-06
6.10333e-06
6.10542e-06
6.10752e-06
6.10964e-06
6.1118e-06
6.11401e-06
6.11629e-06
6.1187e-06
6.12127e-06
6.12397e-06
6.12681e-06
6.12977e-06
6.13283e-06
6.13599e-06
6.13927e-06
6.1426e-06
6.14599e-06
6.14941e-06
6.15284e-06
6.15626e-06
6.15966e-06
6.16301e-06
6.1663e-06
6.16951e-06
6.17261e-06
6.1756e-06
6.17846e-06
6.18117e-06
6.18372e-06
6.18609e-06
6.18828e-06
6.1903e-06
6.19201e-06
6.19385e-06
6.08365e-06
6.08749e-06
6.09054e-06
6.09313e-06
6.09545e-06
6.09761e-06
6.0997e-06
6.10174e-06
6.10377e-06
6.1058e-06
6.10785e-06
6.10994e-06
6.11207e-06
6.11426e-06
6.11655e-06
6.11898e-06
6.12152e-06
6.12418e-06
6.12694e-06
6.12978e-06
6.13271e-06
6.13572e-06
6.13877e-06
6.14185e-06
6.14494e-06
6.14802e-06
6.15108e-06
6.1541e-06
6.15706e-06
6.15994e-06
6.16273e-06
6.16541e-06
6.16798e-06
6.17041e-06
6.1727e-06
6.17483e-06
6.17679e-06
6.1786e-06
6.18022e-06
6.18161e-06
6.18307e-06
6.08282e-06
6.08646e-06
6.08937e-06
6.09184e-06
6.09407e-06
6.09616e-06
6.09818e-06
6.10017e-06
6.10214e-06
6.10411e-06
6.1061e-06
6.10812e-06
6.11017e-06
6.11227e-06
6.11446e-06
6.11675e-06
6.11914e-06
6.12162e-06
6.12419e-06
6.12682e-06
6.12952e-06
6.13228e-06
6.13507e-06
6.13786e-06
6.14064e-06
6.14341e-06
6.14614e-06
6.14882e-06
6.15142e-06
6.15395e-06
6.15638e-06
6.15871e-06
6.16091e-06
6.16299e-06
6.16493e-06
6.16673e-06
6.16837e-06
6.16987e-06
6.17119e-06
6.17235e-06
6.17349e-06
6.08199e-06
6.08542e-06
6.08816e-06
6.09051e-06
6.09266e-06
6.0947e-06
6.09667e-06
6.09861e-06
6.10054e-06
6.10246e-06
6.1044e-06
6.10635e-06
6.10833e-06
6.11035e-06
6.11243e-06
6.11459e-06
6.11684e-06
6.11916e-06
6.12154e-06
6.12398e-06
6.12647e-06
6.12899e-06
6.13152e-06
6.13405e-06
6.13656e-06
6.13904e-06
6.14147e-06
6.14384e-06
6.14614e-06
6.14835e-06
6.15048e-06
6.15249e-06
6.15439e-06
6.15618e-06
6.15783e-06
6.15936e-06
6.16074e-06
6.162e-06
6.16308e-06
6.16409e-06
6.16491e-06
6.08115e-06
6.08434e-06
6.08691e-06
6.08915e-06
6.09123e-06
6.09322e-06
6.09516e-06
6.09707e-06
6.09896e-06
6.10085e-06
6.10274e-06
6.10464e-06
6.10656e-06
6.1085e-06
6.11048e-06
6.11253e-06
6.11464e-06
6.1168e-06
6.11902e-06
6.12127e-06
6.12355e-06
6.12586e-06
6.12816e-06
6.13044e-06
6.1327e-06
6.13491e-06
6.13707e-06
6.13917e-06
6.1412e-06
6.14314e-06
6.14499e-06
6.14674e-06
6.14838e-06
6.14991e-06
6.15133e-06
6.15262e-06
6.15379e-06
6.15485e-06
6.15575e-06
6.15662e-06
6.15719e-06
6.08028e-06
6.08322e-06
6.08562e-06
6.08775e-06
6.08976e-06
6.09171e-06
6.09363e-06
6.09552e-06
6.09739e-06
6.09926e-06
6.10112e-06
6.10298e-06
6.10484e-06
6.10672e-06
6.10861e-06
6.11056e-06
6.11254e-06
6.11456e-06
6.11661e-06
6.11869e-06
6.12079e-06
6.12289e-06
6.12497e-06
6.12702e-06
6.12904e-06
6.13102e-06
6.13293e-06
6.13478e-06
6.13656e-06
6.13826e-06
6.13987e-06
6.14139e-06
6.14281e-06
6.14413e-06
6.14534e-06
6.14645e-06
6.14745e-06
6.14835e-06
6.1491e-06
6.1499e-06
6.15025e-06
6.07937e-06
6.08206e-06
6.08429e-06
6.08632e-06
6.08827e-06
6.09018e-06
6.09207e-06
6.09395e-06
6.09582e-06
6.09767e-06
6.09951e-06
6.10134e-06
6.10317e-06
6.10499e-06
6.10682e-06
6.10867e-06
6.11054e-06
6.11243e-06
6.11434e-06
6.11625e-06
6.11817e-06
6.12009e-06
6.12197e-06
6.12381e-06
6.12561e-06
6.12736e-06
6.12906e-06
6.13068e-06
6.13224e-06
6.13371e-06
6.13511e-06
6.13641e-06
6.13763e-06
6.13875e-06
6.13978e-06
6.14072e-06
6.14156e-06
6.14232e-06
6.14294e-06
6.1436e-06
6.14378e-06
6.07841e-06
6.08085e-06
6.08292e-06
6.08486e-06
6.08675e-06
6.08862e-06
6.09049e-06
6.09235e-06
6.09421e-06
6.09606e-06
6.09789e-06
6.09971e-06
6.10151e-06
6.1033e-06
6.10507e-06
6.10685e-06
6.10863e-06
6.11041e-06
6.11218e-06
6.11395e-06
6.11571e-06
6.11744e-06
6.11913e-06
6.12078e-06
6.12238e-06
6.12392e-06
6.1254e-06
6.12682e-06
6.12817e-06
6.12945e-06
6.13064e-06
6.13176e-06
6.1328e-06
6.13376e-06
6.13464e-06
6.13543e-06
6.13615e-06
6.13679e-06
6.13733e-06
6.13788e-06
6.13814e-06
6.07738e-06
6.07958e-06
6.08151e-06
6.08335e-06
6.08518e-06
6.08701e-06
6.08885e-06
6.0907e-06
6.09255e-06
6.0944e-06
6.09623e-06
6.09805e-06
6.09984e-06
6.1016e-06
6.10334e-06
6.10507e-06
6.10677e-06
6.10846e-06
6.11012e-06
6.11176e-06
6.11338e-06
6.11495e-06
6.11648e-06
6.11795e-06
6.11937e-06
6.12072e-06
6.12202e-06
6.12325e-06
6.1244e-06
6.12549e-06
6.1265e-06
6.12744e-06
6.1283e-06
6.12909e-06
6.1298e-06
6.13044e-06
6.13101e-06
6.13151e-06
6.13192e-06
6.13231e-06
6.1327e-06
6.07625e-06
6.07823e-06
6.08001e-06
6.08175e-06
6.0835e-06
6.08528e-06
6.08709e-06
6.08893e-06
6.09079e-06
6.09264e-06
6.09449e-06
6.09631e-06
6.0981e-06
6.09987e-06
6.10159e-06
6.10328e-06
6.10493e-06
6.10655e-06
6.10812e-06
6.10965e-06
6.11113e-06
6.11257e-06
6.11393e-06
6.11524e-06
6.11649e-06
6.11767e-06
6.11878e-06
6.11983e-06
6.12082e-06
6.12173e-06
6.12258e-06
6.12337e-06
6.12408e-06
6.12473e-06
6.12532e-06
6.12585e-06
6.12633e-06
6.12672e-06
6.12712e-06
6.1275e-06
6.12794e-06
6.07501e-06
6.07675e-06
6.07836e-06
6.07997e-06
6.08162e-06
6.08334e-06
6.08512e-06
6.08695e-06
6.08881e-06
6.09068e-06
6.09255e-06
6.0944e-06
6.09621e-06
6.09798e-06
6.0997e-06
6.10136e-06
6.10298e-06
6.10453e-06
6.10604e-06
6.10748e-06
6.10887e-06
6.11018e-06
6.11143e-06
6.1126e-06
6.1137e-06
6.11473e-06
6.11569e-06
6.11657e-06
6.11739e-06
6.11814e-06
6.11881e-06
6.11943e-06
6.11997e-06
6.12046e-06
6.12087e-06
6.12123e-06
6.12164e-06
6.12208e-06
6.12261e-06
6.12311e-06
6.12371e-06
6.07363e-06
6.0751e-06
6.0765e-06
6.07794e-06
6.07946e-06
6.08108e-06
6.0828e-06
6.08461e-06
6.08647e-06
6.08836e-06
6.09026e-06
6.09214e-06
6.09399e-06
6.0958e-06
6.09755e-06
6.09924e-06
6.10085e-06
6.10239e-06
6.10386e-06
6.10524e-06
6.10655e-06
6.10777e-06
6.1089e-06
6.10995e-06
6.11092e-06
6.11181e-06
6.11262e-06
6.11336e-06
6.11403e-06
6.11464e-06
6.11518e-06
6.11566e-06
6.11608e-06
6.11645e-06
6.11675e-06
6.11704e-06
6.11736e-06
6.11772e-06
6.11815e-06
6.11853e-06
6.11903e-06
6.0721e-06
6.07323e-06
6.07436e-06
6.07557e-06
6.07689e-06
6.07836e-06
6.07997e-06
6.0817e-06
6.08352e-06
6.08542e-06
6.08734e-06
6.08926e-06
6.09115e-06
6.09298e-06
6.09474e-06
6.09642e-06
6.09801e-06
6.09951e-06
6.10091e-06
6.10222e-06
6.10343e-06
6.10454e-06
6.10556e-06
6.10648e-06
6.10731e-06
6.10805e-06
6.10871e-06
6.10928e-06
6.10978e-06
6.11021e-06
6.11057e-06
6.11086e-06
6.11109e-06
6.11137e-06
6.11171e-06
6.1121e-06
6.11254e-06
6.11301e-06
6.11356e-06
6.11405e-06
6.11471e-06
6.07039e-06
6.07112e-06
6.07189e-06
6.07275e-06
6.07374e-06
6.0749e-06
6.07624e-06
6.07775e-06
6.07942e-06
6.08124e-06
6.08317e-06
6.08517e-06
6.08716e-06
6.0891e-06
6.09091e-06
6.09259e-06
6.0942e-06
6.09573e-06
6.09717e-06
6.0985e-06
6.09973e-06
6.10084e-06
6.10183e-06
6.10272e-06
6.10349e-06
6.10417e-06
6.10475e-06
6.10523e-06
6.10562e-06
6.10593e-06
6.10614e-06
6.10631e-06
6.10653e-06
6.1068e-06
6.10713e-06
6.1075e-06
6.10791e-06
6.10834e-06
6.10882e-06
6.10925e-06
6.10983e-06
6.06852e-06
6.06877e-06
6.06905e-06
6.06938e-06
6.0698e-06
6.07031e-06
6.07096e-06
6.07175e-06
6.07272e-06
6.07389e-06
6.07528e-06
6.0769e-06
6.07878e-06
6.0809e-06
6.08326e-06
6.08583e-06
6.0881e-06
6.09001e-06
6.09157e-06
6.0928e-06
6.09372e-06
6.09437e-06
6.09477e-06
6.09498e-06
6.09499e-06
6.09477e-06
6.09453e-06
6.09447e-06
6.09456e-06
6.09479e-06
6.09512e-06
6.09553e-06
6.09602e-06
6.09657e-06
6.09718e-06
6.09782e-06
6.09851e-06
6.09922e-06
6.1e-06
6.1007e-06
6.1016e-06
0.00260629
0.00652859
0.0119735
0.0168305
0.0195544
0.0194348
0.0163172
0.0108016
0.00489415
0.00139722
0.000275852
3.29446e-05
8.01707e-06
6.72559e-06
6.68954e-06
6.71939e-06
6.73366e-06
6.73478e-06
6.72795e-06
6.71567e-06
6.69948e-06
6.68073e-06
6.66044e-06
6.63966e-06
6.61944e-06
6.60056e-06
6.58354e-06
6.5685e-06
6.55495e-06
6.54229e-06
6.53031e-06
6.51895e-06
6.50801e-06
6.49707e-06
6.4857e-06
6.4737e-06
6.46108e-06
6.44788e-06
6.43411e-06
6.41974e-06
6.40477e-06
6.38912e-06
6.37281e-06
6.35603e-06
6.33918e-06
6.32297e-06
6.30842e-06
6.29655e-06
6.28795e-06
6.28132e-06
6.27602e-06
6.2715e-06
6.26735e-06
6.26328e-06
6.25917e-06
6.25483e-06
6.25016e-06
6.2451e-06
6.23965e-06
6.23377e-06
6.22751e-06
6.22088e-06
6.21396e-06
6.20682e-06
6.19951e-06
6.19212e-06
6.18466e-06
6.17727e-06
6.16995e-06
6.16288e-06
6.15587e-06
6.1496e-06
6.14332e-06
6.13922e-06
0.00431801
0.00900065
0.0151055
0.0203858
0.0234515
0.0237769
0.0211226
0.0156234
0.00836511
0.0027216
0.000533203
6.48006e-05
8.84515e-06
6.86937e-06
6.76203e-06
6.76935e-06
6.77848e-06
6.77641e-06
6.76625e-06
6.75078e-06
6.73156e-06
6.71004e-06
6.68718e-06
6.66404e-06
6.64174e-06
6.62093e-06
6.60217e-06
6.58591e-06
6.5718e-06
6.5589e-06
6.54631e-06
6.5336e-06
6.5208e-06
6.50795e-06
6.49485e-06
6.48127e-06
6.4671e-06
6.45228e-06
6.4368e-06
6.42067e-06
6.40395e-06
6.38663e-06
6.36887e-06
6.35105e-06
6.33378e-06
6.31794e-06
6.3046e-06
6.29455e-06
6.28768e-06
6.28245e-06
6.27825e-06
6.27458e-06
6.27106e-06
6.26745e-06
6.26363e-06
6.25945e-06
6.25482e-06
6.24969e-06
6.24408e-06
6.23798e-06
6.23144e-06
6.22449e-06
6.21722e-06
6.20972e-06
6.20206e-06
6.19431e-06
6.18652e-06
6.17883e-06
6.17126e-06
6.16401e-06
6.15692e-06
6.15073e-06
6.14459e-06
6.14134e-06
0.00617026
0.0117118
0.018635
0.0244364
0.0279019
0.0287295
0.0267071
0.0216099
0.013714
0.00562016
0.00130892
0.000180413
1.15088e-05
6.86714e-06
6.85718e-06
6.82674e-06
6.82239e-06
6.8163e-06
6.80314e-06
6.78478e-06
6.76281e-06
6.73862e-06
6.71343e-06
6.68851e-06
6.6646e-06
6.64206e-06
6.6214e-06
6.60302e-06
6.5871e-06
6.57323e-06
6.56042e-06
6.54748e-06
6.53376e-06
6.51923e-06
6.50406e-06
6.4884e-06
6.47228e-06
6.45565e-06
6.43843e-06
6.42056e-06
6.40216e-06
6.38334e-06
6.36444e-06
6.34604e-06
6.32885e-06
6.31375e-06
6.30185e-06
6.29359e-06
6.28829e-06
6.28432e-06
6.28109e-06
6.27816e-06
6.27519e-06
6.27195e-06
6.26833e-06
6.26423e-06
6.25957e-06
6.25433e-06
6.24851e-06
6.24214e-06
6.23528e-06
6.22798e-06
6.22035e-06
6.21248e-06
6.20445e-06
6.19635e-06
6.18824e-06
6.18027e-06
6.17248e-06
6.16509e-06
6.15798e-06
6.15192e-06
6.146e-06
6.14366e-06
0.00881713
0.0147721
0.0225836
0.0289398
0.0328041
0.03412
0.0328025
0.0283783
0.0205687
0.0106319
0.00326881
0.000557932
4.07853e-05
6.40053e-06
6.84844e-06
6.89111e-06
6.86607e-06
6.85411e-06
6.83796e-06
6.81705e-06
6.79268e-06
6.76614e-06
6.73924e-06
6.71316e-06
6.68813e-06
6.6647e-06
6.64325e-06
6.62344e-06
6.60499e-06
6.58803e-06
6.57262e-06
6.55823e-06
6.54397e-06
6.52899e-06
6.51287e-06
6.49561e-06
6.47742e-06
6.45856e-06
6.43921e-06
6.41945e-06
6.39949e-06
6.3795e-06
6.35992e-06
6.34143e-06
6.32475e-06
6.31062e-06
6.30019e-06
6.29349e-06
6.28959e-06
6.28675e-06
6.28437e-06
6.28208e-06
6.27955e-06
6.2766e-06
6.27312e-06
6.26904e-06
6.2643e-06
6.25888e-06
6.25282e-06
6.24615e-06
6.23895e-06
6.23129e-06
6.22328e-06
6.21503e-06
6.20663e-06
6.1982e-06
6.1898e-06
6.18156e-06
6.1736e-06
6.16611e-06
6.15904e-06
6.15317e-06
6.14754e-06
6.14619e-06
0.0122684
0.0183159
0.0270103
0.0338711
0.038093
0.0398534
0.0392302
0.0357042
0.028549
0.0178255
0.00726761
0.0016967
0.000219986
9.17262e-06
6.42838e-06
6.93501e-06
6.90739e-06
6.88809e-06
6.87042e-06
6.84745e-06
6.82108e-06
6.79311e-06
6.76522e-06
6.73758e-06
6.71089e-06
6.68669e-06
6.6653e-06
6.64588e-06
6.6275e-06
6.60915e-06
6.59045e-06
6.57167e-06
6.55337e-06
6.53572e-06
6.51827e-06
6.50034e-06
6.48139e-06
6.46126e-06
6.44013e-06
6.41842e-06
6.39674e-06
6.37557e-06
6.35555e-06
6.33739e-06
6.32154e-06
6.30862e-06
6.29958e-06
6.2941e-06
6.29141e-06
6.28956e-06
6.28792e-06
6.28618e-06
6.28402e-06
6.28129e-06
6.27788e-06
6.27377e-06
6.2689e-06
6.26327e-06
6.25694e-06
6.24994e-06
6.24239e-06
6.23435e-06
6.22596e-06
6.21735e-06
6.20861e-06
6.19986e-06
6.19118e-06
6.18273e-06
6.17462e-06
6.16709e-06
6.16013e-06
6.1545e-06
6.14925e-06
6.14894e-06
0.0166238
0.0227719
0.0319661
0.0391755
0.0436846
0.0458342
0.0458445
0.0433384
0.0372754
0.0268372
0.0139372
0.00447111
0.000818932
7.32863e-05
6.05365e-06
6.82477e-06
6.96956e-06
6.91748e-06
6.89846e-06
6.87578e-06
6.84841e-06
6.82007e-06
6.791e-06
6.76081e-06
6.73165e-06
6.70505e-06
6.68125e-06
6.66087e-06
6.64372e-06
6.62815e-06
6.61197e-06
6.5935e-06
6.57227e-06
6.54913e-06
6.52571e-06
6.5032e-06
6.48167e-06
6.46052e-06
6.43909e-06
6.41706e-06
6.39477e-06
6.37287e-06
6.35245e-06
6.33446e-06
6.31931e-06
6.30759e-06
6.29976e-06
6.2952e-06
6.29358e-06
6.29262e-06
6.29162e-06
6.29032e-06
6.28846e-06
6.28588e-06
6.28251e-06
6.27832e-06
6.27329e-06
6.26743e-06
6.2608e-06
6.25347e-06
6.24555e-06
6.23715e-06
6.22839e-06
6.21942e-06
6.21035e-06
6.20131e-06
6.1924e-06
6.18376e-06
6.17556e-06
6.16805e-06
6.16126e-06
6.15593e-06
6.15114e-06
6.15193e-06
0.0219169
0.0280343
0.0373782
0.0447395
0.0494439
0.0519277
0.0525019
0.0509886
0.0463293
0.0370677
0.0233055
0.00991279
0.00256115
0.000385606
1.98825e-05
6.34113e-06
7.03979e-06
6.96969e-06
6.92063e-06
6.90041e-06
6.87508e-06
6.84639e-06
6.81498e-06
6.78278e-06
6.75183e-06
6.72166e-06
6.69386e-06
6.66989e-06
6.64899e-06
6.63063e-06
6.61526e-06
6.60191e-06
6.58733e-06
6.56855e-06
6.54471e-06
6.51726e-06
6.48875e-06
6.46131e-06
6.43585e-06
6.41234e-06
6.39035e-06
6.36957e-06
6.35036e-06
6.33339e-06
6.31911e-06
6.30817e-06
6.30093e-06
6.29699e-06
6.29576e-06
6.29559e-06
6.29523e-06
6.29435e-06
6.29273e-06
6.29026e-06
6.28687e-06
6.28257e-06
6.27737e-06
6.27126e-06
6.26433e-06
6.25667e-06
6.2484e-06
6.23964e-06
6.23053e-06
6.22122e-06
6.21186e-06
6.20257e-06
6.19346e-06
6.18468e-06
6.17645e-06
6.169e-06
6.16246e-06
6.15749e-06
6.15321e-06
6.15518e-06
0.0280779
0.0339664
0.0430701
0.0503641
0.0551584
0.0579271
0.059012
0.0583858
0.0552491
0.0478045
0.0347566
0.0186746
0.00657352
0.00141891
0.000185011
9.60513e-06
6.86407e-06
7.09445e-06
6.96296e-06
6.92003e-06
6.89903e-06
6.87075e-06
6.83758e-06
6.80512e-06
6.7735e-06
6.74358e-06
6.71711e-06
6.69176e-06
6.6654e-06
6.63828e-06
6.61153e-06
6.58713e-06
6.5684e-06