/*--------------------------------*- C++ -*----------------------------------*\
| =========                 |                                                 |
| \\      /  F ield         | OpenFOAM: The Open Source CFD Toolbox           |
|  \\    /   O peration     | Version:  2312                                  |
|   \\  /    A nd           | Website:  www.openfoam.com                      |
|    \\/     M anipulation  |                                                 |
\*---------------------------------------------------------------------------*/
FoamFile
{
    version     2.0;
    format      ascii;
    arch        "LSB;label=32;scalar=64";
    class       volScalarField;
    location    "300";
    object      turbulenceProperties:nuEff;
}
// * * * * * * * * * * * * * * * * * * * * * * * * * * * * * * * * * * * * * //

dimensions      [0 2 -1 0 0 0 0];

internalField   nonuniform List<scalar> 
11040
(
3.23168e-05
5.62844e-05
6.7056e-05
1.47978e-05
5.00952e-05
0.000177201
0.000189212
0.000192199
0.000182671
0.000178265
0.000169152
0.000158345
0.000148998
0.00013892
0.000129969
0.00012413
0.000121918
0.000123796
0.000127522
0.000128586
0.000113963
7.8269e-05
8.73753e-05
9.48184e-05
9.80277e-05
8.9687e-05
8.64199e-05
5.77444e-05
3.68402e-05
2.60178e-05
0.000144046
0.000235294
0.000300399
0.000327754
0.000318538
0.000286301
0.000250952
0.000264064
0.00027796
0.00029083
0.00030318
1.44887e-05
2.49411e-05
6.93811e-05
8.27757e-05
0.000165086
0.000636342
0.000720839
0.000682228
0.000600873
0.000574373
0.000524392
0.000470116
0.000432532
0.000397707
0.000370035
0.00035514
0.000349054
0.000353594
0.000368858
0.000396795
0.000429446
0.000474038
0.000521916
0.000558704
0.000565659
0.000526895
0.000470888
0.000414059
0.000353552
0.000269329
0.000440676
0.000650382
0.000819882
0.000948267
0.00105563
0.00114972
0.00123441
0.00131761
0.00140481
0.00144171
0.00155683
1.66809e-05
1.5328e-05
2.54254e-05
5.66784e-05
9.20645e-05
0.000396086
0.000885885
0.00118737
0.00128738
0.00127362
0.00118992
0.0010753
0.000994488
0.000922489
0.000857016
0.000819992
0.000803379
0.000810053
0.000839615
0.000889026
0.000946559
0.00102775
0.00112434
0.00121124
0.0012538
0.00120402
0.00110691
0.000998053
0.000853331
0.000657482
0.00105318
0.00154365
0.00190288
0.00218064
0.002412
0.00261275
0.00279819
0.00297035
0.00314874
0.00325392
0.00345517
1.62035e-05
1.61983e-05
1.53368e-05
2.35084e-05
3.11259e-05
0.000131802
0.000468454
0.00104211
0.00158043
0.00179252
0.00187612
0.00186661
0.0018018
0.00169027
0.00156723
0.00149228
0.00145627
0.00145983
0.00150429
0.00157377
0.00165567
0.00176933
0.00191729
0.00207957
0.00219048
0.00215746
0.00202674
0.0018761
0.0016492
0.00129703
0.002034
0.00285635
0.00346814
0.00394928
0.00434603
0.00468491
0.00499127
0.00527196
0.00555657
0.00576232
0.00607275
1.61592e-05
1.64073e-05
1.56761e-05
1.59877e-05
1.72708e-05
1.77569e-05
0.00011916
0.000460838
0.0010973
0.00182204
0.00226989
0.00245512
0.00253248
0.00254308
0.00250518
0.00243403
0.00237243
0.00236231
0.00242146
0.00250343
0.00260399
0.00273221
0.00290683
0.00314696
0.00336116
0.00342202
0.00328955
0.00313346
0.00282492
0.00230676
0.00348782
0.00470471
0.00563732
0.00637563
0.00697568
0.00747807
0.0079196
0.00831858
0.00871492
0.00904676
0.00949903
1.61821e-05
1.61726e-05
1.62739e-05
1.57813e-05
1.6136e-05
1.33778e-05
1.11114e-05
7.15514e-05
0.000394352
0.00103385
0.00189607
0.00262989
0.00302408
0.00322413
0.00332686
0.00338686
0.00345655
0.00355622
0.00365762
0.00374587
0.00387361
0.00397481
0.0041155
0.00439575
0.00473251
0.00501123
0.0049788
0.00475221
0.00425084
0.00385025
0.00556873
0.00724696
0.00856904
0.00961812
0.0104563
0.0111404
0.0117204
0.0122316
0.0127275
0.013189
0.0138073
1.61588e-05
1.61659e-05
1.6204e-05
1.61497e-05
1.61048e-05
1.60107e-05
1.20132e-05
1.00273e-05
1.82055e-05
0.000282697
0.000867751
0.00178446
0.00277755
0.00349765
0.00390572
0.00416761
0.00439489
0.00466583
0.00500757
0.0053577
0.00554871
0.00560155
0.00560951
0.00581352
0.00625102
0.00689377
0.00701399
0.00659747
0.00603122
0.00613069
0.00847024
0.0106886
0.0124715
0.013884
0.0149895
0.0158613
0.0165654
0.0171562
0.0177105
0.0182666
0.0190398
1.61508e-05
1.61637e-05
1.61687e-05
1.61961e-05
1.61619e-05
1.62777e-05
1.65061e-05
1.1824e-05
1e-05
1e-05
0.000144724
0.000629755
0.00150823
0.0026579
0.003742
0.00449936
0.00502863
0.00552567
0.00610703
0.00677952
0.00739299
0.00768642
0.00750908
0.00745001
0.00785627
0.00876728
0.00913244
0.00869194
0.00827574
0.00933737
0.0124281
0.0153015
0.017623
0.0194469
0.020837
0.021884
0.022676
0.0232798
0.023802
0.0243519
0.0251867
1.61463e-05
1.61562e-05
1.61661e-05
1.61659e-05
1.61969e-05
1.61201e-05
1.65745e-05
1.68776e-05
1.24285e-05
1.00119e-05
1.20284e-05
3.079e-05
0.000378331
0.00113169
0.00230149
0.0036604
0.00487364
0.00583234
0.0067369
0.00773736
0.00878837
0.00961637
0.00990431
0.00951493
0.00957191
0.0103718
0.0112188
0.0110755
0.0110313
0.0136398
0.0177043
0.0214292
0.0243859
0.0266759
0.0283676
0.0295465
0.0303548
0.0308549
0.0311805
0.0315399
0.0322304
1.61432e-05
1.61522e-05
1.61574e-05
1.61631e-05
1.61656e-05
1.61801e-05
1.61173e-05
1.66513e-05
1.72398e-05
1.38185e-05
1.00157e-05
1.01099e-05
1.06671e-05
0.000184834
0.000725969
0.00178116
0.00325473
0.00488794
0.00643521
0.0079063
0.00940874
0.0107793
0.0117312
0.0120143
0.0116311
0.0120154
0.0131776
0.0137703
0.0149636
0.019087
0.0246024
0.0293789
0.0332078
0.0361238
0.0381244
0.0393534
0.0400998
0.0403646
0.0402204
0.0400737
0.0402613
1.61416e-05
1.61478e-05
1.61512e-05
1.61553e-05
1.61569e-05
1.61667e-05
1.61597e-05
1.61437e-05
1.65154e-05
1.75784e-05
1.46321e-05
1.03082e-05
1.00136e-05
1.23989e-05
1.74752e-05
0.000369174
0.00119562
0.00259925
0.00448155
0.00661947
0.00878172
0.0107582
0.012374
0.013476
0.0139765
0.0140875
0.0149397
0.0165278
0.0196415
0.0254614
0.0319378
0.0376401
0.0424773
0.0464245
0.0494055
0.0513553
0.0523002
0.0522433
0.0513047
0.0503311
0.0494685
1.61387e-05
1.6143e-05
1.61458e-05
1.61481e-05
1.61519e-05
1.61533e-05
1.61623e-05
1.61546e-05
1.61303e-05
1.63714e-05
1.73452e-05
1.62856e-05
1.13049e-05
1.00004e-05
1.0009e-05
3.54815e-05
0.000100347
0.000642272
0.00179753
0.00367827
0.00618771
0.00888381
0.011276
0.0132092
0.0146918
0.0159189
0.0173102
0.0196607
0.0242499
0.0313429
0.0384505
0.0449525
0.0506682
0.0555175
0.0594185
0.0622468
0.0639679
0.0645816
0.0640721
0.062489
0.0600445
1.61353e-05
1.61386e-05
1.61408e-05
1.61431e-05
1.61456e-05
1.61487e-05
1.61512e-05
1.61568e-05
1.61589e-05
1.61131e-05
1.6247e-05
1.69988e-05
1.70376e-05
1.40279e-05
1.00998e-05
1.00012e-05
1.02637e-05
1.10349e-05
0.000247397
0.00099318
0.00259221
0.00498068
0.00776115
0.0104888
0.0129175
0.0152599
0.0180929
0.022105
0.0278782
0.0352937
0.0430234
0.0503254
0.0568892
0.0625768
0.0672927
0.0708969
0.0733146
0.0745538
0.0746194
0.073551
0.0714499
1.61314e-05
1.61348e-05
1.61367e-05
1.61391e-05
1.61415e-05
1.6144e-05
1.61469e-05
1.61492e-05
1.61545e-05
1.61582e-05
1.61175e-05
1.61399e-05
1.66877e-05
1.7496e-05
1.59915e-05
1.10637e-05
1.00074e-05
1.00008e-05
1.20698e-05
0.000165664
0.000340817
0.00137776
0.00317151
0.00556893
0.00826218
0.0111396
0.0147459
0.0200061
0.0271257
0.0354629
0.0441166
0.0524134
0.0599702
0.066608
0.0722247
0.0766957
0.0799097
0.0818542
0.0825265
0.081975
0.0802969
1.61272e-05
1.6131e-05
1.61337e-05
1.61363e-05
1.61388e-05
1.6141e-05
1.61435e-05
1.61459e-05
1.6148e-05
1.61532e-05
1.61571e-05
1.61251e-05
1.61138e-05
1.6364e-05
1.73521e-05
1.70855e-05
1.41214e-05
1.00457e-05
1.00011e-05
1e-05
1.57523e-05
0.000216175
0.000391308
0.00139928
0.00304254
0.00518326
0.0080065
0.0126244
0.0199959
0.0294011
0.0394442
0.0491872
0.0581494
0.0661115
0.0729687
0.0786321
0.082986
0.0859887
0.0876103
0.0878649
0.0868185
1.61228e-05
1.61272e-05
1.61306e-05
1.61337e-05
1.61365e-05
1.61392e-05
1.61416e-05
1.61437e-05
1.61458e-05
1.61482e-05
1.61518e-05
1.61582e-05
1.61373e-05
1.61028e-05
1.61918e-05
1.69012e-05
1.75413e-05
1.63393e-05
1.17777e-05
1.00019e-05
1.00002e-05
1e-05
1.5991e-05
0.000182742
0.000262416
0.00101164
0.00223738
0.0042956
0.00849829
0.0161278
0.0265416
0.0378931
0.0488405
0.0588062
0.0675792
0.0750575
0.0811651
0.085854
0.0890617
0.0907515
0.0909403
1.61185e-05
1.61235e-05
1.61274e-05
1.61308e-05
1.61338e-05
1.61366e-05
1.61393e-05
1.61417e-05
1.61441e-05
1.61464e-05
1.6149e-05
1.6152e-05
1.61578e-05
1.61537e-05
1.61087e-05
1.61322e-05
1.63502e-05
1.73582e-05
1.74962e-05
1.57281e-05
1.05418e-05
1.00051e-05
1e-05
1e-05
1.08264e-05
8.22095e-05
2.51322e-05
0.000296821
0.00111658
0.00351399
0.00903959
0.0181766
0.0296669
0.0417122
0.0531253
0.063334
0.0721019
0.0793752
0.0850813
0.0891347
0.0915075
1.61146e-05
1.61199e-05
1.61239e-05
1.61274e-05
1.61305e-05
1.61333e-05
1.6136e-05
1.61386e-05
1.6141e-05
1.61434e-05
1.61462e-05
1.61489e-05
1.61526e-05
1.61575e-05
1.61613e-05
1.61331e-05
1.60996e-05
1.61591e-05
1.67752e-05
1.78108e-05
1.706e-05
1.46645e-05
1.02144e-05
1.00028e-05
1e-05
1e-05
1.00009e-05
1.0792e-05
6.63697e-05
0.000349954
0.000415484
0.00260427
0.0083102
0.0176303
0.0293877
0.0418408
0.0536735
0.0642443
0.0732832
0.0806162
0.0861872
1.61109e-05
1.61163e-05
1.61204e-05
1.61238e-05
1.61268e-05
1.61296e-05
1.61322e-05
1.61348e-05
1.61373e-05
1.61397e-05
1.61424e-05
1.61454e-05
1.61485e-05
1.61523e-05
1.61576e-05
1.61631e-05
1.6159e-05
1.60986e-05
1.60982e-05
1.63271e-05
1.72878e-05
1.81115e-05
1.65609e-05
1.39518e-05
1.03262e-05
1.00034e-05
1e-05
1e-05
1e-05
1e-05
1.20555e-05
0.000186495
0.000881006
0.00157541
0.00675727
0.0156094
0.0271648
0.0397842
0.0520343
0.0630003
0.0723534
1.61077e-05
1.61131e-05
1.61172e-05
1.61205e-05
1.61235e-05
1.61262e-05
1.61288e-05
1.61313e-05
1.61338e-05
1.61363e-05
1.61389e-05
1.61418e-05
1.6145e-05
1.61487e-05
1.61524e-05
1.61576e-05
1.61651e-05
1.61689e-05
1.61321e-05
1.60758e-05
1.61844e-05
1.65597e-05
1.75685e-05
1.82754e-05
1.66602e-05
1.42179e-05
1.11016e-05
1.00172e-05
1.00006e-05
1e-05
1e-05
1e-05
1e-05
9.0755e-05
0.000575353
0.000651071
0.00463297
0.0120935
0.0224826
0.0344534
0.0466807
1.61048e-05
1.61103e-05
1.61143e-05
1.61175e-05
1.61203e-05
1.6123e-05
1.61256e-05
1.61281e-05
1.61307e-05
1.61332e-05
1.61357e-05
1.61385e-05
1.61417e-05
1.61453e-05
1.61493e-05
1.61533e-05
1.61582e-05
1.61667e-05
1.61721e-05
1.61618e-05
1.6107e-05
1.60804e-05
1.62602e-05
1.67355e-05
1.76236e-05
1.83079e-05
1.7336e-05
1.52093e-05
1.25462e-05
1.0222e-05
1.00025e-05
1e-05
1e-05
1e-05
1e-05
1.625e-05
0.000307473
7.00046e-05
0.00217628
0.00708299
0.0146078
1.61023e-05
1.61076e-05
1.61115e-05
1.61147e-05
1.61175e-05
1.61202e-05
1.61227e-05
1.61253e-05
1.61278e-05
1.61304e-05
1.61329e-05
1.61357e-05
1.61388e-05
1.61423e-05
1.61462e-05
1.61504e-05
1.61548e-05
1.61596e-05
1.61669e-05
1.61762e-05
1.6175e-05
1.61527e-05
1.60945e-05
1.60866e-05
1.63039e-05
1.67507e-05
1.74756e-05
1.82148e-05
1.79795e-05
1.65811e-05
1.45457e-05
1.11089e-05
1.0017e-05
1.00005e-05
1e-05
1e-05
1e-05
1.00022e-05
0.000114977
0.000485645
0.000405231
1.61e-05
1.61052e-05
1.6109e-05
1.61121e-05
1.61149e-05
1.61176e-05
1.61202e-05
1.61227e-05
1.61253e-05
1.61278e-05
1.61304e-05
1.61331e-05
1.61362e-05
1.61396e-05
1.61434e-05
1.61475e-05
1.6152e-05
1.61567e-05
1.61618e-05
1.61678e-05
1.61771e-05
1.6186e-05
1.61784e-05
1.6146e-05
1.61002e-05
1.61039e-05
1.62847e-05
1.66431e-05
1.71767e-05
1.80349e-05
1.85334e-05
1.76019e-05
1.60787e-05
1.31387e-05
1.02751e-05
1.00026e-05
1e-05
1e-05
1e-05
1e-05
1.05474e-05
1.60979e-05
1.61029e-05
1.61066e-05
1.61098e-05
1.61126e-05
1.61153e-05
1.61179e-05
1.61204e-05
1.6123e-05
1.61255e-05
1.61281e-05
1.61308e-05
1.61338e-05
1.61371e-05
1.61408e-05
1.61448e-05
1.61492e-05
1.61539e-05
1.61589e-05
1.6164e-05
1.61699e-05
1.6178e-05
1.61888e-05
1.61956e-05
1.61844e-05
1.61552e-05
1.61231e-05
1.61152e-05
1.62052e-05
1.64599e-05
1.68865e-05
1.75717e-05
1.8429e-05
1.84312e-05
1.69038e-05
1.51949e-05
1.22861e-05
1.00543e-05
1.00009e-05
1e-05
1e-05
1.6096e-05
1.61008e-05
1.61045e-05
1.61077e-05
1.61105e-05
1.61132e-05
1.61158e-05
1.61184e-05
1.61209e-05
1.61235e-05
1.6126e-05
1.61287e-05
1.61316e-05
1.61348e-05
1.61384e-05
1.61423e-05
1.61465e-05
1.61511e-05
1.61559e-05
1.61611e-05
1.61664e-05
1.61722e-05
1.61796e-05
1.61893e-05
1.61997e-05
1.62053e-05
1.61985e-05
1.61784e-05
1.61477e-05
1.61204e-05
1.61521e-05
1.63016e-05
1.66128e-05
1.71388e-05
1.77925e-05
1.83892e-05
1.82432e-05
1.6486e-05
1.44507e-05
1.22194e-05
1.02172e-05
1.60942e-05
1.60989e-05
1.61026e-05
1.61058e-05
1.61086e-05
1.61113e-05
1.61139e-05
1.61164e-05
1.6119e-05
1.61215e-05
1.61241e-05
1.61267e-05
1.61295e-05
1.61326e-05
1.61361e-05
1.61398e-05
1.61439e-05
1.61483e-05
1.6153e-05
1.61579e-05
1.61632e-05
1.61689e-05
1.61748e-05
1.61815e-05
1.61898e-05
1.61996e-05
1.62095e-05
1.62173e-05
1.62167e-05
1.62027e-05
1.61797e-05
1.61501e-05
1.61366e-05
1.62089e-05
1.6387e-05
1.66751e-05
1.71877e-05
1.77625e-05
1.81013e-05
1.79497e-05
1.70429e-05
1.60926e-05
1.60972e-05
1.61009e-05
1.6104e-05
1.61069e-05
1.61096e-05
1.61121e-05
1.61147e-05
1.61172e-05
1.61197e-05
1.61222e-05
1.61248e-05
1.61275e-05
1.61306e-05
1.61339e-05
1.61375e-05
1.61414e-05
1.61456e-05
1.61501e-05
1.61548e-05
1.61598e-05
1.61653e-05
1.6171e-05
1.6177e-05
1.61835e-05
1.61906e-05
1.61988e-05
1.62083e-05
1.62184e-05
1.62272e-05
1.62316e-05
1.62271e-05
1.62105e-05
1.61887e-05
1.61707e-05
1.61705e-05
1.62392e-05
1.64082e-05
1.66463e-05
1.69799e-05
1.7423e-05
1.60911e-05
1.60957e-05
1.60993e-05
1.61024e-05
1.61053e-05
1.61079e-05
1.61105e-05
1.6113e-05
1.61154e-05
1.61179e-05
1.61204e-05
1.6123e-05
1.61256e-05
1.61285e-05
1.61317e-05
1.61352e-05
1.61389e-05
1.61429e-05
1.61472e-05
1.61517e-05
1.61564e-05
1.61616e-05
1.6167e-05
1.61727e-05
1.61786e-05
1.61848e-05
1.61913e-05
1.61983e-05
1.6206e-05
1.62147e-05
1.6224e-05
1.62333e-05
1.62403e-05
1.62421e-05
1.62375e-05
1.62249e-05
1.62073e-05
1.61975e-05
1.62027e-05
1.62459e-05
1.63258e-05
1.60897e-05
1.60943e-05
1.60979e-05
1.6101e-05
1.61038e-05
1.61064e-05
1.61089e-05
1.61113e-05
1.61137e-05
1.61162e-05
1.61186e-05
1.61211e-05
1.61237e-05
1.61265e-05
1.61296e-05
1.61329e-05
1.61364e-05
1.61402e-05
1.61443e-05
1.61485e-05
1.6153e-05
1.61578e-05
1.61628e-05
1.61681e-05
1.61737e-05
1.61794e-05
1.61853e-05
1.61913e-05
1.61975e-05
1.62039e-05
1.62107e-05
1.62182e-05
1.62262e-05
1.62342e-05
1.62417e-05
1.62474e-05
1.62491e-05
1.62463e-05
1.62395e-05
1.62304e-05
1.62212e-05
1.60885e-05
1.6093e-05
1.60965e-05
1.60996e-05
1.61023e-05
1.61049e-05
1.61073e-05
1.61097e-05
1.61121e-05
1.61144e-05
1.61168e-05
1.61193e-05
1.61218e-05
1.61245e-05
1.61274e-05
1.61306e-05
1.6134e-05
1.61376e-05
1.61414e-05
1.61454e-05
1.61496e-05
1.6154e-05
1.61587e-05
1.61636e-05
1.61686e-05
1.61738e-05
1.61792e-05
1.61846e-05
1.61901e-05
1.61957e-05
1.62013e-05
1.62069e-05
1.62127e-05
1.62186e-05
1.62249e-05
1.62313e-05
1.62375e-05
1.62431e-05
1.62477e-05
1.62498e-05
1.62516e-05
1.60874e-05
1.60918e-05
1.60953e-05
1.60982e-05
1.61009e-05
1.61034e-05
1.61058e-05
1.61081e-05
1.61104e-05
1.61127e-05
1.6115e-05
1.61174e-05
1.61199e-05
1.61225e-05
1.61252e-05
1.61283e-05
1.61315e-05
1.61349e-05
1.61385e-05
1.61422e-05
1.61461e-05
1.61503e-05
1.61546e-05
1.6159e-05
1.61636e-05
1.61683e-05
1.61731e-05
1.6178e-05
1.61829e-05
1.61878e-05
1.61927e-05
1.61975e-05
1.62023e-05
1.6207e-05
1.62116e-05
1.62162e-05
1.62208e-05
1.62253e-05
1.62298e-05
1.62338e-05
1.62382e-05
1.60864e-05
1.60906e-05
1.6094e-05
1.60969e-05
1.60995e-05
1.6102e-05
1.61043e-05
1.61065e-05
1.61087e-05
1.6111e-05
1.61132e-05
1.61156e-05
1.61179e-05
1.61204e-05
1.61231e-05
1.61259e-05
1.6129e-05
1.61322e-05
1.61355e-05
1.61391e-05
1.61427e-05
1.61466e-05
1.61505e-05
1.61546e-05
1.61588e-05
1.6163e-05
1.61673e-05
1.61716e-05
1.61759e-05
1.61802e-05
1.61845e-05
1.61887e-05
1.61928e-05
1.61967e-05
1.62006e-05
1.62043e-05
1.62078e-05
1.62111e-05
1.62143e-05
1.62171e-05
1.62203e-05
1.60854e-05
1.60896e-05
1.60929e-05
1.60957e-05
1.60982e-05
1.61005e-05
1.61027e-05
1.61049e-05
1.61071e-05
1.61092e-05
1.61114e-05
1.61137e-05
1.6116e-05
1.61183e-05
1.61209e-05
1.61236e-05
1.61265e-05
1.61295e-05
1.61326e-05
1.61359e-05
1.61393e-05
1.61429e-05
1.61465e-05
1.61502e-05
1.6154e-05
1.61578e-05
1.61617e-05
1.61655e-05
1.61693e-05
1.6173e-05
1.61767e-05
1.61803e-05
1.61838e-05
1.61872e-05
1.61904e-05
1.61935e-05
1.61964e-05
1.61991e-05
1.62016e-05
1.62037e-05
1.62061e-05
1.60845e-05
1.60885e-05
1.60917e-05
1.60944e-05
1.60968e-05
1.60991e-05
1.61012e-05
1.61033e-05
1.61054e-05
1.61075e-05
1.61096e-05
1.61118e-05
1.6114e-05
1.61163e-05
1.61187e-05
1.61213e-05
1.6124e-05
1.61268e-05
1.61298e-05
1.61328e-05
1.6136e-05
1.61393e-05
1.61426e-05
1.6146e-05
1.61494e-05
1.61528e-05
1.61563e-05
1.61597e-05
1.6163e-05
1.61663e-05
1.61695e-05
1.61726e-05
1.61756e-05
1.61785e-05
1.61812e-05
1.61837e-05
1.61861e-05
1.61883e-05
1.61903e-05
1.6192e-05
1.61939e-05
1.60837e-05
1.60875e-05
1.60905e-05
1.60931e-05
1.60954e-05
1.60976e-05
1.60997e-05
1.61017e-05
1.61038e-05
1.61058e-05
1.61079e-05
1.61099e-05
1.61121e-05
1.61143e-05
1.61166e-05
1.6119e-05
1.61215e-05
1.61242e-05
1.61269e-05
1.61298e-05
1.61327e-05
1.61357e-05
1.61388e-05
1.61418e-05
1.61449e-05
1.6148e-05
1.61511e-05
1.61541e-05
1.61571e-05
1.61599e-05
1.61627e-05
1.61654e-05
1.6168e-05
1.61704e-05
1.61727e-05
1.61748e-05
1.61768e-05
1.61786e-05
1.61802e-05
1.61816e-05
1.61831e-05
1.60828e-05
1.60865e-05
1.60894e-05
1.60918e-05
1.60941e-05
1.60962e-05
1.60982e-05
1.61002e-05
1.61021e-05
1.61041e-05
1.61061e-05
1.61081e-05
1.61102e-05
1.61123e-05
1.61145e-05
1.61167e-05
1.61191e-05
1.61216e-05
1.61242e-05
1.61268e-05
1.61295e-05
1.61323e-05
1.61351e-05
1.61379e-05
1.61406e-05
1.61434e-05
1.61461e-05
1.61488e-05
1.61514e-05
1.6154e-05
1.61564e-05
1.61587e-05
1.61609e-05
1.6163e-05
1.61649e-05
1.61667e-05
1.61684e-05
1.61699e-05
1.61712e-05
1.61724e-05
1.61735e-05
1.6082e-05
1.60854e-05
1.60882e-05
1.60905e-05
1.60927e-05
1.60947e-05
1.60967e-05
1.60986e-05
1.61005e-05
1.61025e-05
1.61044e-05
1.61064e-05
1.61083e-05
1.61103e-05
1.61124e-05
1.61146e-05
1.61168e-05
1.61192e-05
1.61215e-05
1.6124e-05
1.61265e-05
1.6129e-05
1.61315e-05
1.61341e-05
1.61366e-05
1.6139e-05
1.61415e-05
1.61438e-05
1.61461e-05
1.61484e-05
1.61505e-05
1.61525e-05
1.61544e-05
1.61562e-05
1.61578e-05
1.61594e-05
1.61607e-05
1.6162e-05
1.61631e-05
1.61641e-05
1.61649e-05
1.60811e-05
1.60843e-05
1.60869e-05
1.60892e-05
1.60912e-05
1.60932e-05
1.60952e-05
1.60971e-05
1.6099e-05
1.61008e-05
1.61027e-05
1.61046e-05
1.61066e-05
1.61085e-05
1.61105e-05
1.61125e-05
1.61146e-05
1.61168e-05
1.6119e-05
1.61213e-05
1.61236e-05
1.61259e-05
1.61282e-05
1.61304e-05
1.61327e-05
1.61349e-05
1.61371e-05
1.61392e-05
1.61412e-05
1.61431e-05
1.6145e-05
1.61467e-05
1.61484e-05
1.61499e-05
1.61513e-05
1.61526e-05
1.61538e-05
1.61549e-05
1.61557e-05
1.61566e-05
1.61572e-05
1.60803e-05
1.60832e-05
1.60856e-05
1.60878e-05
1.60898e-05
1.60917e-05
1.60936e-05
1.60955e-05
1.60974e-05
1.60993e-05
1.61011e-05
1.6103e-05
1.61048e-05
1.61067e-05
1.61086e-05
1.61106e-05
1.61125e-05
1.61146e-05
1.61166e-05
1.61187e-05
1.61208e-05
1.61229e-05
1.6125e-05
1.6127e-05
1.6129e-05
1.6131e-05
1.61329e-05
1.61348e-05
1.61366e-05
1.61383e-05
1.61399e-05
1.61414e-05
1.61428e-05
1.61441e-05
1.61453e-05
1.61464e-05
1.61474e-05
1.61484e-05
1.61491e-05
1.61499e-05
1.61502e-05
1.60794e-05
1.60821e-05
1.60843e-05
1.60863e-05
1.60883e-05
1.60902e-05
1.60921e-05
1.6094e-05
1.60958e-05
1.60977e-05
1.60995e-05
1.61013e-05
1.61032e-05
1.6105e-05
1.61068e-05
1.61087e-05
1.61105e-05
1.61124e-05
1.61143e-05
1.61163e-05
1.61182e-05
1.61201e-05
1.6122e-05
1.61238e-05
1.61256e-05
1.61274e-05
1.61291e-05
1.61307e-05
1.61322e-05
1.61337e-05
1.61351e-05
1.61364e-05
1.61376e-05
1.61388e-05
1.61398e-05
1.61407e-05
1.61416e-05
1.61423e-05
1.61429e-05
1.61436e-05
1.61438e-05
1.60784e-05
1.60808e-05
1.60829e-05
1.60849e-05
1.60867e-05
1.60886e-05
1.60905e-05
1.60924e-05
1.60942e-05
1.60961e-05
1.60979e-05
1.60997e-05
1.61015e-05
1.61033e-05
1.61051e-05
1.61069e-05
1.61086e-05
1.61104e-05
1.61122e-05
1.6114e-05
1.61157e-05
1.61174e-05
1.61191e-05
1.61208e-05
1.61224e-05
1.61239e-05
1.61254e-05
1.61268e-05
1.61282e-05
1.61294e-05
1.61306e-05
1.61318e-05
1.61328e-05
1.61338e-05
1.61346e-05
1.61354e-05
1.61361e-05
1.61368e-05
1.61373e-05
1.61379e-05
1.61381e-05
1.60774e-05
1.60796e-05
1.60815e-05
1.60834e-05
1.60852e-05
1.6087e-05
1.60888e-05
1.60907e-05
1.60926e-05
1.60944e-05
1.60962e-05
1.6098e-05
1.60998e-05
1.61016e-05
1.61033e-05
1.61051e-05
1.61068e-05
1.61085e-05
1.61101e-05
1.61118e-05
1.61134e-05
1.6115e-05
1.61165e-05
1.6118e-05
1.61194e-05
1.61207e-05
1.6122e-05
1.61232e-05
1.61244e-05
1.61255e-05
1.61265e-05
1.61274e-05
1.61283e-05
1.61291e-05
1.61298e-05
1.61304e-05
1.6131e-05
1.61315e-05
1.61319e-05
1.61323e-05
1.61327e-05
1.60763e-05
1.60782e-05
1.608e-05
1.60817e-05
1.60835e-05
1.60853e-05
1.60871e-05
1.60889e-05
1.60908e-05
1.60926e-05
1.60945e-05
1.60963e-05
1.60981e-05
1.60999e-05
1.61016e-05
1.61033e-05
1.61049e-05
1.61065e-05
1.61081e-05
1.61096e-05
1.61111e-05
1.61126e-05
1.61139e-05
1.61152e-05
1.61165e-05
1.61177e-05
1.61188e-05
1.61198e-05
1.61208e-05
1.61217e-05
1.61226e-05
1.61234e-05
1.61241e-05
1.61247e-05
1.61253e-05
1.61259e-05
1.61263e-05
1.61267e-05
1.61271e-05
1.61275e-05
1.61279e-05
1.6075e-05
1.60767e-05
1.60784e-05
1.608e-05
1.60816e-05
1.60833e-05
1.60851e-05
1.60869e-05
1.60888e-05
1.60907e-05
1.60926e-05
1.60944e-05
1.60962e-05
1.6098e-05
1.60997e-05
1.61014e-05
1.6103e-05
1.61045e-05
1.6106e-05
1.61075e-05
1.61089e-05
1.61102e-05
1.61114e-05
1.61126e-05
1.61137e-05
1.61147e-05
1.61157e-05
1.61166e-05
1.61174e-05
1.61181e-05
1.61188e-05
1.61194e-05
1.612e-05
1.61205e-05
1.61209e-05
1.61212e-05
1.61216e-05
1.61221e-05
1.61226e-05
1.61231e-05
1.61237e-05
1.60736e-05
1.60751e-05
1.60765e-05
1.60779e-05
1.60795e-05
1.60811e-05
1.60828e-05
1.60846e-05
1.60865e-05
1.60884e-05
1.60903e-05
1.60921e-05
1.6094e-05
1.60958e-05
1.60975e-05
1.60992e-05
1.61009e-05
1.61024e-05
1.61039e-05
1.61052e-05
1.61065e-05
1.61078e-05
1.61089e-05
1.61099e-05
1.61109e-05
1.61118e-05
1.61126e-05
1.61134e-05
1.6114e-05
1.61146e-05
1.61152e-05
1.61157e-05
1.61161e-05
1.61164e-05
1.61168e-05
1.6117e-05
1.61174e-05
1.61177e-05
1.61181e-05
1.61185e-05
1.6119e-05
1.60721e-05
1.60732e-05
1.60744e-05
1.60756e-05
1.60769e-05
1.60784e-05
1.608e-05
1.60817e-05
1.60835e-05
1.60854e-05
1.60873e-05
1.60893e-05
1.60912e-05
1.6093e-05
1.60947e-05
1.60964e-05
1.6098e-05
1.60995e-05
1.61009e-05
1.61022e-05
1.61034e-05
1.61045e-05
1.61056e-05
1.61065e-05
1.61073e-05
1.6108e-05
1.61087e-05
1.61093e-05
1.61098e-05
1.61102e-05
1.61106e-05
1.61109e-05
1.61111e-05
1.61114e-05
1.61117e-05
1.61121e-05
1.61125e-05
1.6113e-05
1.61136e-05
1.61141e-05
1.61147e-05
1.60704e-05
1.60711e-05
1.60719e-05
1.60727e-05
1.60737e-05
1.60749e-05
1.60762e-05
1.60777e-05
1.60794e-05
1.60812e-05
1.60832e-05
1.60852e-05
1.60872e-05
1.60891e-05
1.60909e-05
1.60926e-05
1.60942e-05
1.60957e-05
1.60972e-05
1.60985e-05
1.60997e-05
1.61008e-05
1.61018e-05
1.61027e-05
1.61035e-05
1.61042e-05
1.61047e-05
1.61052e-05
1.61056e-05
1.61059e-05
1.61061e-05
1.61063e-05
1.61065e-05
1.61068e-05
1.61071e-05
1.61075e-05
1.61079e-05
1.61083e-05
1.61088e-05
1.61093e-05
1.61098e-05
1.60685e-05
1.60688e-05
1.60691e-05
1.60694e-05
1.60698e-05
1.60703e-05
1.6071e-05
1.60718e-05
1.60727e-05
1.60739e-05
1.60753e-05
1.60769e-05
1.60788e-05
1.60809e-05
1.60833e-05
1.60858e-05
1.60881e-05
1.609e-05
1.60916e-05
1.60928e-05
1.60937e-05
1.60944e-05
1.60948e-05
1.6095e-05
1.6095e-05
1.60948e-05
1.60945e-05
1.60945e-05
1.60946e-05
1.60948e-05
1.60951e-05
1.60955e-05
1.6096e-05
1.60966e-05
1.60972e-05
1.60978e-05
1.60985e-05
1.60992e-05
1.61e-05
1.61007e-05
1.61016e-05
0.00261629
0.00653859
0.0119835
0.0168405
0.0195644
0.0194448
0.0163272
0.0108116
0.00490415
0.00140722
0.000285852
4.29446e-05
1.80171e-05
1.67256e-05
1.66895e-05
1.67194e-05
1.67337e-05
1.67348e-05
1.67279e-05
1.67157e-05
1.66995e-05
1.66807e-05
1.66604e-05
1.66397e-05
1.66194e-05
1.66006e-05
1.65835e-05
1.65685e-05
1.65549e-05
1.65423e-05
1.65303e-05
1.65189e-05
1.6508e-05
1.64971e-05
1.64857e-05
1.64737e-05
1.64611e-05
1.64479e-05
1.64341e-05
1.64197e-05
1.64048e-05
1.63891e-05
1.63728e-05
1.6356e-05
1.63392e-05
1.6323e-05
1.63084e-05
1.62966e-05
1.62879e-05
1.62813e-05
1.6276e-05
1.62715e-05
1.62673e-05
1.62633e-05
1.62592e-05
1.62548e-05
1.62502e-05
1.62451e-05
1.62396e-05
1.62338e-05
1.62275e-05
1.62209e-05
1.6214e-05
1.62068e-05
1.61995e-05
1.61921e-05
1.61847e-05
1.61773e-05
1.617e-05
1.61629e-05
1.61559e-05
1.61496e-05
1.61433e-05
1.61392e-05
0.00432801
0.00901065
0.0151155
0.0203958
0.0234615
0.0237869
0.0211326
0.0156334
0.00837511
0.0027316
0.000543203
7.48006e-05
1.88451e-05
1.68694e-05
1.6762e-05
1.67693e-05
1.67785e-05
1.67764e-05
1.67663e-05
1.67508e-05
1.67316e-05
1.671e-05
1.66872e-05
1.6664e-05
1.66417e-05
1.66209e-05
1.66022e-05
1.65859e-05
1.65718e-05
1.65589e-05
1.65463e-05
1.65336e-05
1.65208e-05
1.65079e-05
1.64948e-05
1.64813e-05
1.64671e-05
1.64523e-05
1.64368e-05
1.64207e-05
1.64039e-05
1.63866e-05
1.63689e-05
1.63511e-05
1.63338e-05
1.63179e-05
1.63046e-05
1.62945e-05
1.62877e-05
1.62825e-05
1.62782e-05
1.62746e-05
1.62711e-05
1.62675e-05
1.62636e-05
1.62594e-05
1.62548e-05
1.62497e-05
1.62441e-05
1.6238e-05
1.62314e-05
1.62245e-05
1.62172e-05
1.62097e-05
1.62021e-05
1.61943e-05
1.61865e-05
1.61788e-05
1.61713e-05
1.6164e-05
1.61569e-05
1.61507e-05
1.61446e-05
1.61413e-05
0.00618026
0.0117218
0.018645
0.0244464
0.0279119
0.0287395
0.0267171
0.0216199
0.013724
0.00563016
0.00131892
0.000190413
2.15088e-05
1.68671e-05
1.68572e-05
1.68267e-05
1.68224e-05
1.68163e-05
1.68031e-05
1.67848e-05
1.67628e-05
1.67386e-05
1.67134e-05
1.66885e-05
1.66646e-05
1.66421e-05
1.66214e-05
1.6603e-05
1.65871e-05
1.65732e-05
1.65604e-05
1.65475e-05
1.65338e-05
1.65192e-05
1.65041e-05
1.64884e-05
1.64723e-05
1.64557e-05
1.64384e-05
1.64206e-05
1.64022e-05
1.63833e-05
1.63644e-05
1.6346e-05
1.63288e-05
1.63138e-05
1.63019e-05
1.62936e-05
1.62883e-05
1.62843e-05
1.62811e-05
1.62782e-05
1.62752e-05
1.62719e-05
1.62683e-05
1.62642e-05
1.62596e-05
1.62543e-05
1.62485e-05
1.62421e-05
1.62353e-05
1.6228e-05
1.62204e-05
1.62125e-05
1.62044e-05
1.61963e-05
1.61882e-05
1.61803e-05
1.61725e-05
1.61651e-05
1.6158e-05
1.61519e-05
1.6146e-05
1.61437e-05
0.00882713
0.0147821
0.0225936
0.0289498
0.0328141
0.03413
0.0328125
0.0283883
0.0205787
0.0106419
0.00327881
0.000567932
5.07853e-05
1.64005e-05
1.68484e-05
1.68911e-05
1.68661e-05
1.68541e-05
1.6838e-05
1.68171e-05
1.67927e-05
1.67661e-05
1.67392e-05
1.67132e-05
1.66881e-05
1.66647e-05
1.66433e-05
1.66234e-05
1.6605e-05
1.6588e-05
1.65726e-05
1.65582e-05
1.6544e-05
1.6529e-05
1.65129e-05
1.64956e-05
1.64774e-05
1.64586e-05
1.64392e-05
1.64195e-05
1.63995e-05
1.63795e-05
1.63599e-05
1.63414e-05
1.63248e-05
1.63106e-05
1.63002e-05
1.62935e-05
1.62896e-05
1.62867e-05
1.62844e-05
1.62821e-05
1.62796e-05
1.62766e-05
1.62731e-05
1.6269e-05
1.62643e-05
1.62589e-05
1.62528e-05
1.62461e-05
1.62389e-05
1.62313e-05
1.62233e-05
1.6215e-05
1.62066e-05
1.61982e-05
1.61898e-05
1.61816e-05
1.61736e-05
1.61661e-05
1.6159e-05
1.61532e-05
1.61475e-05
1.61462e-05
0.0122784
0.0183259
0.0270203
0.0338811
0.038103
0.0398634
0.0392402
0.0357142
0.028559
0.0178355
0.00727761
0.0017067
0.000229986
1.91726e-05
1.64284e-05
1.6935e-05
1.69074e-05
1.68881e-05
1.68704e-05
1.68475e-05
1.68211e-05
1.67931e-05
1.67652e-05
1.67376e-05
1.67109e-05
1.66867e-05
1.66653e-05
1.66459e-05
1.66275e-05
1.66092e-05
1.65904e-05
1.65717e-05
1.65534e-05
1.65357e-05
1.65183e-05
1.65003e-05
1.64814e-05
1.64613e-05
1.64401e-05
1.64184e-05
1.63967e-05
1.63756e-05
1.63556e-05
1.63374e-05
1.63215e-05
1.63086e-05
1.62996e-05
1.62941e-05
1.62914e-05
1.62896e-05
1.62879e-05
1.62862e-05
1.6284e-05
1.62813e-05
1.62779e-05
1.62738e-05
1.62689e-05
1.62633e-05
1.62569e-05
1.62499e-05
1.62424e-05
1.62344e-05
1.6226e-05
1.62173e-05
1.62086e-05
1.61999e-05
1.61912e-05
1.61827e-05
1.61746e-05
1.61671e-05
1.61601e-05
1.61545e-05
1.61493e-05
1.61489e-05
0.0166338
0.0227819
0.0319761
0.0391855
0.0436946
0.0458442
0.0458545
0.0433484
0.0372854
0.0268472
0.0139472
0.00448111
0.000828932
8.32863e-05
1.60536e-05
1.68248e-05
1.69696e-05
1.69175e-05
1.68985e-05
1.68758e-05
1.68484e-05
1.68201e-05
1.6791e-05
1.67608e-05
1.67317e-05
1.67051e-05
1.66813e-05
1.66609e-05
1.66437e-05
1.66281e-05
1.6612e-05
1.65935e-05
1.65723e-05
1.65491e-05
1.65257e-05
1.65032e-05
1.64817e-05
1.64605e-05
1.64391e-05
1.64171e-05
1.63948e-05
1.63729e-05
1.63524e-05
1.63345e-05
1.63193e-05
1.63076e-05
1.62998e-05
1.62952e-05
1.62936e-05
1.62926e-05
1.62916e-05
1.62903e-05
1.62885e-05
1.62859e-05
1.62825e-05
1.62783e-05
1.62733e-05
1.62674e-05
1.62608e-05
1.62535e-05
1.62455e-05
1.62371e-05
1.62284e-05
1.62194e-05
1.62104e-05
1.62013e-05
1.61924e-05
1.61838e-05
1.61756e-05
1.6168e-05
1.61613e-05
1.61559e-05
1.61511e-05
1.61519e-05
0.0219269
0.0280443
0.0373882
0.0447495
0.0494539
0.0519377
0.0525119
0.0509986
0.0463393
0.0370777
0.0233155
0.00992279
0.00257115
0.000395606
2.98825e-05
1.63411e-05
1.70398e-05
1.69697e-05
1.69206e-05
1.69004e-05
1.68751e-05
1.68464e-05
1.6815e-05
1.67828e-05
1.67518e-05
1.67217e-05
1.66939e-05
1.66699e-05
1.6649e-05
1.66306e-05
1.66153e-05
1.66019e-05
1.65873e-05
1.65685e-05
1.65447e-05
1.65173e-05
1.64887e-05
1.64613e-05
1.64358e-05
1.64123e-05
1.63903e-05
1.63696e-05
1.63504e-05
1.63334e-05
1.63191e-05
1.63082e-05
1.63009e-05
1.6297e-05
1.62958e-05
1.62956e-05
1.62952e-05
1.62943e-05
1.62927e-05
1.62903e-05
1.62869e-05
1.62826e-05
1.62774e-05
1.62713e-05
1.62643e-05
1.62567e-05
1.62484e-05
1.62396e-05
1.62305e-05
1.62212e-05
1.62119e-05
1.62026e-05
1.61935e-05
1.61847e-05
1.61764e-05
1.6169e-05
1.61625e-05
1.61575e-05
1.61532e-05
1.61552e-05
0.0280879
0.0339764
0.0430801
0.0503741
0.0551684
0.0579371
0.059022
0.0583958
0.0552591
0.0478145
0.0347666
0.0186846
0.00658352
0.00142891
0.000195011
1.96051e-05
1.68641e-05
1.70944e-05
1.6963e-05
1.692e-05
1.6899e-05
1.68707e-05
1.68376e-05
1.68051e-05
1.67735e-05
1.67436e-05
1.67171e-05
1.66918e-05
1.66654e-05
1.66383e-05
1.66115e-05
1.65871e-05
1.65684e-05
1.65554e-05
1.65437e-05