/*--------------------------------*- C++ -*----------------------------------*\
| =========                 |                                                 |
| \\      /  F ield         | OpenFOAM: The Open Source CFD Toolbox           |
|  \\    /   O peration     | Version:  2312                                  |
|   \\  /    A nd           | Website:  www.openfoam.com                      |
|    \\/     M anipulation  |                                                 |
\*---------------------------------------------------------------------------*/
FoamFile
{
    version     2.0;
    format      ascii;
    arch        "LSB;label=32;scalar=64";
    class       volScalarField;
    location    "300";
    object      turbulenceProperties:k;
}
// * * * * * * * * * * * * * * * * * * * * * * * * * * * * * * * * * * * * * //

dimensions      [0 2 -2 0 0 0 0];

internalField   nonuniform List<scalar> 
11040
(
0.267675
0.449957
0.339823
0.0250478
0.0232532
0.218586
0.251467
0.268286
0.251875
0.242672
0.226374
0.207284
0.189893
0.171644
0.155346
0.144072
0.139131
0.14098
0.144731
0.140146
0.109149
0.0569972
0.030926
0.0173165
0.0463247
0.0629224
0.0669694
0.0391895
0.0119739
0.0110346
0.133476
0.30845
0.444236
0.479475
0.42137
0.311403
0.195128
0.111211
0.0542342
0.170704
0.245421
0.0346322
0.0518227
0.149663
0.308123
0.42703
0.994569
0.519432
0.248535
0.141309
0.0972672
0.06534
0.0461676
0.0339924
0.0259484
0.0203352
0.0167698
0.0150629
0.0149196
0.0154385
0.0182953
0.0243257
0.0319543
0.0400853
0.0448078
0.0387286
0.0239286
0.0144306
0.0342292
0.050673
0.0416423
0.0686789
0.0379637
0.0726042
0.116408
0.151938
0.191952
0.233744
0.288937
0.355315
0.34459
0.736534
0.0207771
0.0157731
0.00813393
0.0770154
0.211584
0.88479
1.35449
1.05587
0.550642
0.346084
0.224607
0.157466
0.115294
0.0887117
0.070432
0.0601431
0.054501
0.0513805
0.0481762
0.0451665
0.0469254
0.0592579
0.075667
0.0820356
0.0679
0.0400967
0.0320475
0.056267
0.096932
0.103265
0.111383
0.121817
0.147971
0.188912
0.247535
0.310244
0.376645
0.44609
0.531046
0.511881
0.799208
0.0147391
0.0115388
0.00991913
0.00595554
0.0256022
0.185892
0.815137
1.49926
1.48704
0.935117
0.549171
0.370541
0.259579
0.189667
0.143111
0.116817
0.102517
0.0930835
0.0811474
0.0655321
0.0629716
0.0914477
0.129594
0.151111
0.137291
0.102607
0.0942185
0.134554
0.205307
0.188955
0.183201
0.149074
0.160028
0.220614
0.31534
0.423604
0.540502
0.654897
0.780813
0.810849
0.964342
0.0106587
0.00956682
0.00821063
0.0079141
0.00424389
0.0074382
0.107904
0.58462
1.39957
1.71782
1.35707
0.837936
0.53998
0.377745
0.276548
0.213857
0.178419
0.1579
0.13588
0.100891
0.0756626
0.117767
0.183184
0.225893
0.217823
0.173938
0.160339
0.225686
0.336366
0.281178
0.244031
0.17312
0.158012
0.2417
0.394046
0.569642
0.756219
0.942101
1.12666
1.25515
1.33886
0.00745441
0.00682216
0.00621008
0.00572347
0.00587558
0.00279901
0.00103869
0.042103
0.348288
1.073
1.70905
1.67826
1.212
0.779778
0.531225
0.38781
0.308897
0.267577
0.232166
0.175831
0.104333
0.123304
0.21593
0.28262
0.285365
0.23005
0.207153
0.31123
0.437701
0.357633
0.289251
0.205506
0.153214
0.26759
0.495028
0.753213
1.02231
1.29599
1.55509
1.81155
1.91891
0.00525555
0.00501881
0.00476945
0.0043824
0.00425213
0.0043412
0.00197568
3.81854e-05
0.00697775
0.162503
0.680781
1.42098
1.78031
1.55483
1.10048
0.74541
0.545307
0.443256
0.38737
0.319996
0.200392
0.108842
0.202603
0.295889
0.314768
0.245719
0.199399
0.366344
0.483447
0.389677
0.306965
0.235
0.155551
0.300372
0.606758
0.954915
1.31493
1.68384
2.03046
2.42521
2.62973
0.0037693
0.00365789
0.00359044
0.00346115
0.00321079
0.00313142
0.00333043
0.00160589
1.31292e-08
1.02333e-06
0.0504386
0.344935
0.973087
1.58909
1.72805
1.42671
1.03204
0.766004
0.630623
0.540234
0.403609
0.204369
0.128556
0.239603
0.284961
0.200752
0.110246
0.390208
0.47217
0.367727
0.288693
0.251151
0.177287
0.333801
0.704974
1.14257
1.59683
2.06317
2.50299
3.02445
3.36078
0.00273137
0.0026744
0.00265645
0.00263026
0.00254625
0.0023642
0.00234288
0.00250248
0.00149347
7.38023e-05
0.000284939
0.00742192
0.132014
0.543407
1.17821
1.63665
1.641
1.35121
1.05724
0.87098
0.711542
0.494002
0.242923
0.135895
0.206281
0.187503
0.210644
0.466638
0.499129
0.391206
0.287066
0.28166
0.238387
0.359486
0.758881
1.27246
1.81861
2.37766
2.90675
3.52048
3.98123
0.00199475
0.00196211
0.00195793
0.00196143
0.00194875
0.00189307
0.00176788
0.00174068
0.00186348
0.00143515
8.22645e-05
8.9976e-05
0.0004821
0.0370275
0.237352
0.716494
1.3007
1.63755
1.60618
1.38802
1.15103
0.915592
0.658408
0.411355
0.310444
0.404115
0.577339
0.758323
0.772672
0.655975
0.481348
0.421811
0.366051
0.377594
0.731102
1.29012
1.91714
2.56343
3.16712
3.82424
4.365
0.00146302
0.00144266
0.00144059
0.00145023
0.00145913
0.00145209
0.00141368
0.00133325
0.00128464
0.00138364
0.00116083
0.000305534
4.76889e-05
0.000133642
0.00231415
0.0736622
0.345434
0.852365
1.38642
1.67681
1.66208
1.45989
1.20715
0.958823
0.776849
0.790525
1.01734
1.23954
1.29167
1.15358
0.883678
0.70096
0.558288
0.396749
0.556476
1.11659
1.80997
2.53288
3.18966
3.85098
4.41418
0.00107541
0.00106293
0.00105979
0.00106738
0.00108014
0.00108745
0.00108285
0.00105949
0.00100756
0.00095859
0.000998296
0.000977879
0.000483119
7.61054e-06
2.03798e-05
0.00139146
0.0112629
0.119313
0.439902
0.963341
1.47968
1.744
1.73393
1.57811
1.39597
1.31457
1.50066
1.79017
1.91573
1.76143
1.39186
1.06699
0.797765
0.479836
0.211025
0.692741
1.40289
2.16725
2.89646
3.55483
4.09994
0.000791351
0.000783406
0.000779301
0.000784012
0.000794846
0.000805659
0.000811512
0.000809392
0.000796788
0.000763779
0.000724087
0.000726423
0.000745475
0.000621498
0.000104968
9.80124e-06
4.52416e-05
0.0003565
0.0251695
0.161071
0.519395
1.03628
1.49752
1.76578
1.84523
1.83656
1.93204
2.24534
2.49867
2.36987
1.94627
1.49017
1.09321
0.70982
0.349428
0.447238
1.00791
1.68258
2.36819
2.97461
3.52318
0.00058199
0.000577003
0.000572439
0.000574762
0.00058289
0.000592511
0.000600995
0.000605773
0.00060556
0.000598838
0.000579783
0.000549953
0.000537694
0.000560574
0.000540252
0.000255854
2.25825e-05
5.71805e-06
7.00972e-05
0.00708628
0.0309327
0.185868
0.513682
0.955438
1.38422
1.72333
2.01411
2.34268
2.7028
2.79348
2.47923
1.98087
1.50315
1.13548
0.99333
1.12641
1.44855
1.8751
2.3503
2.75987
3.10113
0.000427145
0.000423969
0.000419509
0.000420243
0.000426073
0.000433471
0.000441033
0.000447659
0.000451756
0.00045257
0.000449262
0.000438902
0.000420127
0.000401717
0.000412245
0.000418458
0.000358449
4.30576e-05
6.73518e-06
5.72575e-08
0.000147566
0.00839004
0.029127
0.150694
0.400362
0.749156
1.17021
1.69987
2.27837
2.71632
2.81002
2.54257
2.12225
1.78691
1.73111
1.98712
2.39522
2.82768
3.23395
3.54095
3.66144
0.000312435
0.000310348
0.000306317
0.000306204
0.000310203
0.0003157
0.000321587
0.000327626
0.000332906
0.000336197
0.000337329
0.000335919
0.000330546
0.000319502
0.000304405
0.000301508
0.000310843
0.000308155
0.00018679
7.07018e-06
1.90963e-06
0
0.000148922
0.00545096
0.0145925
0.0824578
0.22878
0.492397
0.974424
1.66667
2.31587
2.69348
2.76846
2.69084
2.68757
2.91718
3.36043
3.90182
4.43476
4.8786
5.07116
0.000228221
0.000226781
0.000223334
0.000222824
0.000225477
0.000229379
0.000233674
0.000238356
0.000242981
0.000246876
0.000249561
0.00025067
0.000250054
0.000247383
0.000241082
0.000231358
0.000220259
0.000224528
0.000230818
0.000224269
7.86909e-05
8.46581e-06
3.76156e-07
0
3.81251e-05
0.00164415
0.00126201
0.0159532
0.0792058
0.288448
0.771255
1.49222
2.2425
2.85869
3.33202
3.75782
4.23779
4.80582
5.44227
6.08082
6.54179
0.000168512
0.000167559
0.000164731
0.000164167
0.000165991
0.000168768
0.000171934
0.000175419
0.000179118
0.000182605
0.000185308
0.0001872
0.000187953
0.000187484
0.0001858
0.00018216
0.000175757
0.00016655
0.000161592
0.000166508
0.000164542
0.00014682
3.53362e-05
4.66459e-06
3.47471e-07
0
2.0637e-06
6.85838e-05
0.00138634
0.0108978
0.0187694
0.15199
0.561434
1.28573
2.21353
3.17971
4.08508
4.92156
5.72623
6.51439
7.25063
0.000127003
0.000126414
0.000124144
0.000123636
0.000124948
0.000126962
0.000129324
0.000131963
0.000134863
0.00013767
0.000140147
0.000142106
0.000143366
0.000143763
0.000143236
0.00014181
0.000139397
0.000134983
0.000128512
0.00012096
0.000117264
0.000117113
0.000109436
9.28279e-05
3.09319e-05
4.01209e-06
5.27547e-07
7.14927e-08
0
0
9.31909e-05
0.00295544
0.0251678
0.0665394
0.372923
1.02929
2.01358
3.18136
4.38309
5.52337
6.59828
9.76758e-05
9.73062e-05
9.54724e-05
9.50337e-05
9.59827e-05
9.74549e-05
9.92079e-05
0.000101215
0.000103414
0.000105622
0.000107738
0.000109481
0.000110829
0.000111622
0.000111762
0.000111183
0.000109903
0.00010797
0.000104937
0.000100577
9.38538e-05
8.46556e-05
7.89275e-05
7.67382e-05
7.09462e-05
6.25491e-05
3.92997e-05
6.89137e-06
1.79062e-06
2.19138e-07
0
0
0
0.000666188
0.00887383
0.0178602
0.189232
0.647938
1.46038
2.56301
3.85579
7.63076e-05
7.6066e-05
7.45524e-05
7.41903e-05
7.48665e-05
7.59615e-05
7.72599e-05
7.87968e-05
8.04618e-05
8.22077e-05
8.38822e-05
8.53586e-05
8.65832e-05
8.74646e-05
8.79187e-05
8.78869e-05
8.73073e-05
8.61903e-05
8.45172e-05
8.254e-05
7.89672e-05
7.34087e-05
6.70981e-05
5.9778e-05
5.29807e-05
4.86641e-05
4.63907e-05
4.43567e-05
3.99123e-05
1.77633e-05
2.91115e-06
3.6878e-07
5.27483e-08
0
0
0.000183794
0.00213892
0.00102066
0.0497662
0.242135
0.673189
6.0357e-05
6.01967e-05
5.89592e-05
5.8642e-05
5.9139e-05
5.99462e-05
6.09258e-05
6.209e-05
6.33705e-05
6.47146e-05
6.59959e-05
6.72062e-05
6.82369e-05
6.90538e-05
6.95884e-05
6.97981e-05
6.96364e-05
6.90756e-05
6.80697e-05
6.68188e-05
6.47036e-05
6.16739e-05
5.82903e-05
5.43497e-05
4.98588e-05
4.41981e-05
3.77099e-05
3.19885e-05
2.96537e-05
3.05837e-05
3.34484e-05
2.59757e-05
5.3214e-06
1.39368e-06
1.57231e-07
0
0
5.05165e-06
0.00128684
0.00391801
0.00345129
4.82382e-05
4.81116e-05
4.71045e-05
4.68281e-05
4.7205e-05
4.78045e-05
4.85553e-05
4.94386e-05
5.04304e-05
5.14531e-05
5.24452e-05
5.34133e-05
5.42512e-05
5.49458e-05
5.5452e-05
5.57266e-05
5.57473e-05
5.54901e-05
5.49183e-05
5.41224e-05
5.26352e-05
5.04815e-05
4.83513e-05
4.62015e-05
4.3886e-05
4.13415e-05
3.85649e-05
3.49529e-05
3.00442e-05
2.45618e-05
2.01616e-05
1.9393e-05
2.28252e-05
2.60236e-05
1.31118e-05
2.06675e-06
2.8315e-07
5.4312e-08
0
0
8.63328e-05
3.88632e-05
3.87815e-05
3.79619e-05
3.7727e-05
3.80069e-05
3.84623e-05
3.90367e-05
3.97173e-05
4.04819e-05
4.12663e-05
4.20386e-05
4.278e-05
4.34351e-05
4.39996e-05
4.44363e-05
4.47105e-05
4.47997e-05
4.46824e-05
4.43404e-05
4.38216e-05
4.27847e-05
4.12113e-05
3.96216e-05
3.80389e-05
3.64593e-05
3.49369e-05
3.3538e-05
3.22237e-05
3.08904e-05
2.91949e-05
2.65575e-05
2.28303e-05
1.8376e-05
1.44516e-05
1.37621e-05
1.72582e-05
1.89857e-05
4.78457e-06
9.46884e-07
1.76855e-07
6.98265e-08
3.15321e-05
3.14774e-05
3.08053e-05
3.06129e-05
3.08231e-05
3.11755e-05
3.1619e-05
3.21494e-05
3.27392e-05
3.33474e-05
3.39392e-05
3.44763e-05
3.49806e-05
3.54196e-05
3.57702e-05
3.60048e-05
3.60978e-05
3.60295e-05
3.57887e-05
3.53929e-05
3.46159e-05
3.34494e-05
3.22468e-05
3.10256e-05
2.9769e-05
2.85088e-05
2.73328e-05
2.63651e-05
2.56535e-05
2.51821e-05
2.48669e-05
2.45192e-05
2.3785e-05
2.23335e-05
1.98448e-05
1.64551e-05
1.26307e-05
9.30598e-06
9.84603e-06
9.88588e-06
5.14182e-06
2.57221e-05
2.57012e-05
2.51534e-05
2.49963e-05
2.51573e-05
2.54394e-05
2.57888e-05
2.62105e-05
2.66714e-05
2.71485e-05
2.76055e-05
2.8008e-05
2.83958e-05
2.87323e-05
2.90023e-05
2.91839e-05
2.9255e-05
2.91954e-05
2.90004e-05
2.86576e-05
2.80328e-05
2.71296e-05
2.6197e-05
2.52626e-05
2.43072e-05
2.33323e-05
2.23857e-05
2.15358e-05
2.08547e-05
2.04143e-05
2.02727e-05
2.04532e-05
2.08966e-05
2.15349e-05
2.22047e-05
2.27311e-05
2.3104e-05
2.26866e-05
2.23263e-05
1.87341e-05
2.24837e-05
2.10953e-05
2.10812e-05
2.06428e-05
2.05222e-05
2.06533e-05
2.08816e-05
2.11661e-05
2.15044e-05
2.18735e-05
2.22495e-05
2.26081e-05
2.29182e-05
2.32221e-05
2.34828e-05
2.36947e-05
2.38385e-05
2.39e-05
2.38516e-05
2.36971e-05
2.34057e-05
2.29124e-05
2.22299e-05
2.15279e-05
2.08504e-05
2.01891e-05
1.95359e-05
1.89335e-05
1.84233e-05
1.80484e-05
1.78382e-05
1.784e-05
1.81036e-05
1.86485e-05
1.94823e-05
2.06299e-05
2.2052e-05
2.37313e-05
2.54077e-05
2.7874e-05
2.80964e-05
3.5637e-05
1.73629e-05
1.73671e-05
1.70195e-05
1.6926e-05
1.70393e-05
1.72299e-05
1.74679e-05
1.77464e-05
1.80491e-05
1.83528e-05
1.86426e-05
1.88878e-05
1.91207e-05
1.93282e-05
1.94999e-05
1.96235e-05
1.96859e-05
1.96622e-05
1.95556e-05
1.93265e-05
1.89583e-05
1.84819e-05
1.79952e-05
1.75568e-05
1.71711e-05
1.68359e-05
1.65783e-05
1.6439e-05
1.64489e-05
1.66243e-05
1.69809e-05
1.75341e-05
1.8268e-05
1.91756e-05
2.02923e-05
2.1613e-05
2.31115e-05
2.45728e-05
2.68203e-05
2.70976e-05
3.34105e-05
1.43398e-05
1.4347e-05
1.40793e-05
1.40158e-05
1.41173e-05
1.42834e-05
1.44903e-05
1.47286e-05
1.49865e-05
1.52433e-05
1.54894e-05
1.56981e-05
1.58815e-05
1.60602e-05
1.62118e-05
1.63349e-05
1.64154e-05
1.64336e-05
1.63847e-05
1.62386e-05
1.60086e-05
1.57352e-05
1.54684e-05
1.52781e-05
1.51525e-05
1.50975e-05
1.51353e-05
1.52972e-05
1.55928e-05
1.60352e-05
1.66151e-05
1.73384e-05
1.81807e-05
1.91318e-05
2.02021e-05
2.13808e-05
2.26499e-05
2.38049e-05
2.55727e-05
2.5444e-05
3.03349e-05
1.18675e-05
1.1889e-05
1.16809e-05
1.16431e-05
1.17406e-05
1.18917e-05
1.20752e-05
1.22869e-05
1.25124e-05
1.27401e-05
1.29566e-05
1.3148e-05
1.33081e-05
1.34747e-05
1.36245e-05
1.37615e-05
1.38686e-05
1.39351e-05
1.39594e-05
1.39116e-05
1.38214e-05
1.3735e-05
1.36653e-05
1.36777e-05
1.37664e-05
1.39326e-05
1.41769e-05
1.4522e-05
1.49703e-05
1.55265e-05
1.61811e-05
1.69369e-05
1.77682e-05
1.86638e-05
1.96307e-05
2.06536e-05
2.17246e-05
2.26542e-05
2.40881e-05
2.37534e-05
2.76526e-05
9.84387e-06
9.86637e-06
9.71527e-06
9.70164e-06
9.7951e-06
9.93607e-06
1.01034e-05
1.02949e-05
1.04982e-05
1.07042e-05
1.09023e-05
1.10824e-05
1.1236e-05
1.13979e-05
1.15565e-05
1.17079e-05
1.18452e-05
1.19604e-05
1.20533e-05
1.20889e-05
1.21173e-05
1.21712e-05
1.22493e-05
1.24046e-05
1.2634e-05
1.29262e-05
1.32844e-05
1.37174e-05
1.42285e-05
1.48144e-05
1.54658e-05
1.61771e-05
1.6932e-05
1.77167e-05
1.85395e-05
1.93826e-05
2.02566e-05
2.09856e-05
2.21508e-05
2.16861e-05
2.48174e-05
8.17485e-06
8.20477e-06
8.09438e-06
8.09965e-06
8.19466e-06
8.32729e-06
8.48437e-06
8.66106e-06
8.85029e-06
9.042e-06
9.23003e-06
9.40388e-06
9.56012e-06
9.72365e-06
9.8943e-06
1.00608e-05
1.0229e-05
1.03823e-05
1.05293e-05
1.06334e-05
1.07524e-05
1.09033e-05
1.10811e-05
1.1321e-05
1.16258e-05
1.19789e-05
1.23853e-05
1.28432e-05
1.33572e-05
1.39141e-05
1.45107e-05
1.5137e-05
1.57851e-05
1.64421e-05
1.71188e-05
1.77955e-05
1.8493e-05
1.90499e-05
1.99945e-05
1.9446e-05
2.19702e-05
6.79468e-06
6.82454e-06
6.75398e-06
6.77465e-06
6.87034e-06
6.99865e-06
7.149e-06
7.31429e-06
7.49377e-06
7.67443e-06
7.85617e-06
8.02858e-06
8.18971e-06
8.35598e-06
8.53782e-06
8.71784e-06
8.90689e-06
9.09196e-06
9.28112e-06
9.43814e-06
9.61926e-06
9.8331e-06
1.00678e-05
1.03544e-05
1.06945e-05
1.10687e-05
1.14777e-05
1.19192e-05
1.23947e-05
1.28951e-05
1.34163e-05
1.39515e-05
1.44944e-05
1.50364e-05
1.55847e-05
1.61229e-05
1.66751e-05
1.70961e-05
1.78612e-05
1.72667e-05
1.93186e-05
5.64762e-06
5.68217e-06
5.63863e-06
5.67407e-06
5.77104e-06
5.896e-06
6.03933e-06
6.19717e-06
6.36597e-06
6.53974e-06
6.71413e-06
6.88672e-06
7.04856e-06
7.21689e-06
7.40279e-06
7.59286e-06
7.79433e-06
8.00097e-06
8.21211e-06
8.4038e-06
8.61822e-06
8.86552e-06
9.12585e-06
9.42824e-06
9.76562e-06
1.01276e-05
1.051e-05
1.09143e-05
1.13364e-05
1.17724e-05
1.22146e-05
1.26617e-05
1.31064e-05
1.35452e-05
1.3981e-05
1.44032e-05
1.48349e-05
1.5146e-05
1.57654e-05
1.5156e-05
1.68506e-05
4.69211e-06
4.72692e-06
4.7095e-06
4.75501e-06
4.85164e-06
4.97439e-06
5.11156e-06
5.26204e-06
5.42185e-06
5.58859e-06
5.75639e-06
5.92663e-06
6.08953e-06
6.2571e-06
6.44124e-06
6.63432e-06
6.83854e-06
7.05197e-06
7.27227e-06
7.48098e-06
7.71018e-06
7.96773e-06
8.23179e-06
8.52672e-06
8.84597e-06
9.18321e-06
9.53166e-06
9.89159e-06
1.0258e-05
1.06297e-05
1.10005e-05
1.13705e-05
1.17339e-05
1.20889e-05
1.24379e-05
1.27716e-05
1.31143e-05
1.33486e-05
1.38612e-05
1.32623e-05
1.46923e-05
3.89282e-06
3.92979e-06
3.92989e-06
3.98378e-06
4.08037e-06
4.19877e-06
4.33136e-06
4.47414e-06
4.62657e-06
4.78505e-06
4.94707e-06
5.11171e-06
5.2739e-06
5.43888e-06
5.6187e-06
5.80836e-06
6.00935e-06
6.22025e-06
6.4394e-06
6.65033e-06
6.88049e-06
7.13139e-06
7.38374e-06
7.65718e-06
7.94827e-06
8.24932e-06
8.55429e-06
8.86287e-06
9.1727e-06
9.48217e-06
9.78819e-06
1.00904e-05
1.03847e-05
1.06686e-05
1.09465e-05
1.121e-05
1.1482e-05
1.16565e-05
1.20839e-05
1.15086e-05
1.27463e-05
3.22278e-06
3.25975e-06
3.27587e-06
3.33531e-06
3.42974e-06
3.54589e-06
3.672e-06
3.80885e-06
3.95195e-06
4.10353e-06
4.25689e-06
4.41562e-06
4.5722e-06
4.73324e-06
4.90453e-06
5.08777e-06
5.27862e-06
5.48049e-06
5.69035e-06
5.89605e-06
6.11568e-06
6.3509e-06
6.58461e-06
6.8331e-06
7.09185e-06
7.35653e-06
7.62132e-06
7.88649e-06
8.14958e-06
8.41063e-06
8.66652e-06
8.91704e-06
9.15933e-06
9.39272e-06
9.62019e-06
9.83426e-06
1.00574e-05
1.01955e-05
1.05605e-05
1.00294e-05
1.11331e-05
2.6601e-06
2.69836e-06
2.72569e-06
2.78923e-06
2.88232e-06
2.99336e-06
3.11449e-06
3.24338e-06
3.37908e-06
3.52106e-06
3.66696e-06
3.81644e-06
3.96737e-06
4.12049e-06
4.28331e-06
4.45502e-06
4.63435e-06
4.82218e-06
5.01902e-06
5.21104e-06
5.41546e-06
5.62808e-06
5.83799e-06
6.05579e-06
6.28077e-06
6.50663e-06
6.73107e-06
6.95252e-06
7.17112e-06
7.385e-06
7.59373e-06
7.79642e-06
7.9923e-06
8.17972e-06
8.36285e-06
8.53458e-06
8.71698e-06
8.82547e-06
9.13802e-06
8.64642e-06
9.65492e-06
2.18685e-06
2.22598e-06
2.26358e-06
2.32962e-06
2.42057e-06
2.52677e-06
2.64213e-06
2.76302e-06
2.89052e-06
3.02256e-06
3.15951e-06
3.29883e-06
3.44117e-06
3.58357e-06
3.73428e-06
3.89218e-06
4.05672e-06
4.22797e-06
4.40809e-06
4.58348e-06
4.7691e-06
4.96014e-06
5.14858e-06
5.34047e-06
5.53665e-06
5.73207e-06
5.92573e-06
6.11585e-06
6.30325e-06
6.48627e-06
6.66507e-06
6.83874e-06
7.00722e-06
7.16907e-06
7.32807e-06
7.47807e-06
7.63908e-06
7.73705e-06
8.01683e-06
7.58524e-06
8.53474e-06
1.78687e-06
1.82764e-06
1.87245e-06
1.94127e-06
2.03011e-06
2.13237e-06
2.24174e-06
2.35581e-06
2.4739e-06
2.59662e-06
2.723e-06
2.85253e-06
2.98507e-06
3.11878e-06
3.25822e-06
3.40389e-06
3.55366e-06
3.70893e-06
3.87059e-06
4.02977e-06
4.19668e-06
4.36571e-06
4.52967e-06
4.69452e-06
4.86086e-06
5.02575e-06
5.18767e-06
5.34582e-06
5.50052e-06
5.65133e-06
5.79823e-06
5.94116e-06
6.07977e-06
6.21362e-06
6.34574e-06
6.47122e-06
6.60687e-06
6.68972e-06
6.93401e-06
6.55394e-06
7.4583e-06
1.44749e-06
1.48902e-06
1.53937e-06
1.60948e-06
1.69701e-06
1.79515e-06
1.90026e-06
2.00778e-06
2.11889e-06
2.23185e-06
2.34845e-06
2.46601e-06
2.58657e-06
2.70562e-06
2.82948e-06
2.95918e-06
3.09285e-06
3.23028e-06
3.37315e-06
3.51316e-06
3.65883e-06
3.80573e-06
3.94906e-06
4.09226e-06
4.23646e-06
4.37963e-06
4.52092e-06
4.65945e-06
4.79586e-06
4.93003e-06
5.06216e-06
5.19203e-06
5.31964e-06
5.44462e-06
5.56945e-06
5.68976e-06
5.82022e-06
5.90658e-06
6.13418e-06
5.81593e-06
6.68933e-06
1.16419e-06
1.20778e-06
1.26213e-06
1.33233e-06
1.41555e-06
1.50865e-06
1.6074e-06
1.70855e-06
1.81185e-06
1.91735e-06
2.02541e-06
2.13564e-06
2.24853e-06
2.36256e-06
2.47906e-06
2.59878e-06
2.71894e-06
2.84234e-06
2.9699e-06
3.09691e-06
3.2281e-06
3.35937e-06
3.48555e-06
3.6103e-06
3.73449e-06
3.85735e-06
3.9772e-06
4.09418e-06
4.20858e-06
4.32129e-06
4.4323e-06
4.54243e-06
4.6515e-06
4.75996e-06
4.86961e-06
4.9778e-06
5.09506e-06
5.17746e-06
5.38153e-06
5.12534e-06
5.98578e-06
9.36066e-07
9.86707e-07
1.04747e-06
1.11857e-06
1.19787e-06
1.28321e-06
1.37128e-06
1.46177e-06
1.55353e-06
1.64795e-06
1.74356e-06
1.84045e-06
1.9371e-06
2.033e-06
2.12988e-06
2.23178e-06
2.33469e-06
2.43909e-06
2.54467e-06
2.64882e-06
2.75506e-06
2.86251e-06
2.96828e-06
3.0746e-06
3.18116e-06
3.28806e-06
3.39427e-06
3.50018e-06
3.60564e-06
3.71142e-06
3.81751e-06
3.92451e-06
4.03221e-06
4.1408e-06
4.25168e-06
4.3622e-06
4.48168e-06
4.57155e-06
4.76673e-06
4.55783e-06
5.38372e-06
7.40779e-07
8.00881e-07
8.71723e-07
9.49776e-07
1.03155e-06
1.11455e-06
1.19672e-06
1.27765e-06
1.35811e-06
1.44034e-06
1.52543e-06
1.61427e-06
1.70684e-06
1.80256e-06
1.90035e-06
1.9993e-06
2.09936e-06
2.20258e-06
2.30939e-06
2.41619e-06
2.5249e-06
2.63186e-06
2.73488e-06
2.8353e-06
2.93409e-06
3.03145e-06
3.1272e-06
3.22177e-06
3.31593e-06
3.41055e-06
3.50621e-06
3.60391e-06
3.70415e-06
3.80762e-06
3.91592e-06
4.02795e-06
4.14996e-06
4.25375e-06
4.44636e-06
4.31391e-06
5.1698e-06
5.39243e-07
5.9646e-07
6.69116e-07
7.50107e-07
8.3624e-07
9.24599e-07
1.01323e-06
1.09958e-06
1.18315e-06
1.26328e-06
1.34029e-06
1.41362e-06
1.48359e-06
1.54904e-06
1.61102e-06
1.67216e-06
1.73261e-06
1.7928e-06
1.85607e-06
1.92199e-06
1.99338e-06
2.06886e-06
2.14664e-06
2.22647e-06
2.30854e-06
2.39293e-06
2.47932e-06
2.56756e-06
2.65762e-06
2.74981e-06
2.84431e-06
2.94135e-06
3.04095e-06
3.14323e-06
3.24923e-06
3.35707e-06
3.47325e-06
3.57145e-06
3.74595e-06
3.62995e-06
4.40105e-06
3.66368e-07
4.29053e-07
5.08485e-07
5.89793e-07
6.6812e-07
7.42782e-07
8.14586e-07
8.85017e-07
9.56451e-07
1.03155e-06
1.11195e-06
1.19892e-06
1.29315e-06
1.39481e-06
1.50583e-06
1.62285e-06
1.73866e-06
1.85065e-06
1.95833e-06
2.06097e-06
2.16067e-06
2.25727e-06
2.35032e-06
2.44068e-06
2.52969e-06
2.61816e-06
2.70662e-06
2.79593e-06
2.88717e-06
2.98151e-06
3.07999e-06
3.18388e-06
3.29403e-06
3.41148e-06
3.53786e-06
3.67345e-06
3.82147e-06
3.96564e-06
4.17742e-06
4.16245e-06
5.05437e-06
3.42981e-07
4.24976e-07
5.01578e-07
5.71856e-07
6.4049e-07
7.13638e-07
7.9199e-07
8.73772e-07
9.54011e-07
1.02786e-06
1.09026e-06
1.13686e-06
1.16572e-06
1.17767e-06
1.17087e-06
1.146e-06
1.11861e-06
1.10381e-06
1.10677e-06
1.12562e-06
1.15776e-06
1.19916e-06
1.24845e-06
1.3036e-06
1.36347e-06
1.42733e-06
1.49474e-06
1.56517e-06
1.63849e-06
1.7146e-06
1.79368e-06
1.87579e-06
1.96138e-06
2.05054e-06
2.14384e-06
2.24033e-06
2.34479e-06
2.44147e-06
2.59002e-06
2.54807e-06
3.19782e-06
6.95746e-07
1.01064e-06
1.30008e-06
1.5429e-06
1.73237e-06
1.86756e-06
1.95365e-06
1.99853e-06
2.01291e-06
2.00809e-06
1.99535e-06
1.98424e-06
1.98202e-06
1.99159e-06
2.01405e-06
2.05625e-06
2.11837e-06
2.18958e-06
2.2638e-06
2.33792e-06
2.41017e-06
2.48286e-06
2.55232e-06
2.61919e-06
2.68436e-06
2.74859e-06
2.81288e-06
2.87863e-06
2.94734e-06
3.02045e-06
3.09955e-06
3.18631e-06
3.28236e-06
3.38926e-06
3.50917e-06
3.64334e-06
3.79575e-06
3.95412e-06
4.18192e-06
4.20469e-06
5.197e-06
3.68649
4.93217
5.52097
5.94158
5.89462
4.66671
2.31813
0.839427
0.555018
0.144782
0.0211614
0.00333334
0.00140526
0.00125887
0.00129035
0.00127081
0.00125159
0.00117948
0.00111016
0.0010147
0.000925147
0.000831709
0.000744284
0.000662968
0.000589003
0.000522618
0.000463356
0.000410784
0.000364434
0.000323877
0.000287662
0.0002554
0.00022647
0.000200232
0.000176443
0.000154821
0.00013514
0.000117319
0.00010113
8.65361e-05
7.35216e-05
6.18343e-05
5.15328e-05
4.25076e-05
3.47139e-05
2.81249e-05
2.27688e-05
1.85297e-05
1.55452e-05
1.36745e-05
1.28229e-05
1.26107e-05
1.28046e-05
1.31047e-05
1.32827e-05
1.3564e-05
1.34062e-05
1.33481e-05
1.28867e-05
1.2547e-05
1.18021e-05
1.13013e-05
1.04909e-05
9.6778e-06
8.96538e-06
8.03624e-06
7.40242e-06
6.59054e-06
5.94022e-06
5.26317e-06
4.80726e-06
4.22531e-06
3.9724e-06
3.4607e-06
2.18043
4.70929
6.27761
7.21485
7.60652
6.891
4.41875
1.4052
0.647502
0.289461
0.0461704
0.00567291
0.00156306
0.00127035
0.00124116
0.00118648
0.00115487
0.00108042
0.00101536
0.000929625
0.000848774
0.000765839
0.000687057
0.000613697
0.000546618
0.000486364
0.000432167
0.00038377
0.000340979
0.00030346
0.000269732
0.000239487
0.000212439
0.000187733
0.000165466
0.000145208
0.000126763
0.000110111
9.4997e-05
8.13932e-05
6.92522e-05
5.83881e-05
4.88109e-05
4.04259e-05
3.32259e-05
2.71249e-05
2.21826e-05
1.82969e-05
1.54907e-05
1.3687e-05
1.27742e-05
1.24206e-05
1.24465e-05
1.25963e-05
1.26266e-05
1.28325e-05
1.25963e-05
1.25003e-05
1.20075e-05
1.16847e-05
1.09472e-05
1.04817e-05
9.73679e-06
8.94485e-06
8.31452e-06
7.43928e-06
6.86962e-06
6.13688e-06
5.54694e-06
4.92224e-06
4.54779e-06
3.99801e-06
3.82137e-06
3.32582e-06
1.83497
4.29407
6.59337
8.06151
8.87236
8.83557
7.01309
3.38275
0.585281
0.510698
0.12836
0.0148748
0.00200609
0.00135934
0.001256
0.00115336
0.0010836
0.00100046
0.00092677
0.000848375
0.000772143
0.000698562
0.000627703
0.000562055
0.000501808
0.000447584
0.00039874
0.000354701
0.000315649
0.000281242
0.00025031
0.000222363
0.000197428
0.000174547
0.000153996
0.000135305
0.000118313
0.000103004
8.91409e-05
7.66611e-05
6.55417e-05
5.56297e-05
4.68527e-05
3.92423e-05
3.26371e-05
2.71245e-05
2.26467e-05
1.90132e-05
1.63567e-05
1.45804e-05
1.34288e-05
1.28273e-05
1.2547e-05
1.24487e-05
1.23392e-05
1.22081e-05
1.19525e-05
1.17102e-05
1.12333e-05
1.08302e-05
1.01854e-05
9.61368e-06
8.9737e-06
8.24164e-06
7.63092e-06
6.875e-06
6.28886e-06
5.66838e-06
5.14156e-06
4.58267e-06
4.26116e-06
3.75845e-06
3.65314e-06
3.1764e-06
2.13038
4.31829
6.74217
8.38371
9.37479
9.83938
9.12133
5.98088
1.79351
0.561271
0.324638
0.0509433
0.00461152
0.00141978
0.00129634
0.00115604
0.00104405
0.000945748
0.000860143
0.000783221
0.000709183
0.000641697
0.000576981
0.000517469
0.000462866
0.000413639
0.000369226
0.000329008
0.000293141
0.000261373
0.000232802
0.000206959
0.000183897
0.000162753
0.000143787
0.000126552
0.000110921
9.68536e-05
8.41335e-05
7.27051e-05
6.25178e-05
5.34615e-05
4.54348e-05
3.84788e-05
3.24244e-05
2.73788e-05
2.32376e-05
1.98225e-05
1.72489e-05
1.54136e-05
1.40689e-05
1.32214e-05
1.26646e-05
1.23203e-05
1.20442e-05
1.16651e-05
1.13539e-05
1.09901e-05
1.05135e-05
1.00443e-05
9.4637e-06
8.83187e-06
8.26411e-06
7.59892e-06
7.00909e-06
6.35407e-06
5.77373e-06
5.23972e-06
4.77494e-06
4.27651e-06
4.00296e-06
3.53854e-06
3.49705e-06
3.0332e-06
2.57112
4.59671
6.94742
8.54305
9.52999
10.2224
10.4467
8.58622
4.24871
0.517549
0.584468
0.166644
0.0188431
0.00185726
0.0013104
0.00117699
0.00102822
0.000911087
0.000813074
0.000733432
0.000659745
0.000595727
0.000535482
0.000480593
0.000430364
0.000385112
0.000344192
0.000307157
0.000273949
0.000244391
0.000217758
0.000193679
0.000172192
0.000152546
0.000134981
0.000119068
0.00010466
9.16935e-05
7.99752e-05
6.94862e-05
6.00957e-05
5.17709e-05
4.4403e-05
3.79623e-05
3.24027e-05
2.76848e-05
2.377e-05
2.05464e-05
1.80009e-05
1.60503e-05
1.45764e-05
1.35037e-05
1.27187e-05
1.21496e-05
1.16749e-05
1.11808e-05
1.07675e-05
1.03282e-05
9.82174e-06
9.32596e-06
8.75998e-06
8.14045e-06
7.61563e-06
7.00631e-06
6.45611e-06
5.87092e-06
5.32996e-06
4.85944e-06
4.45241e-06
4.00641e-06
3.78166e-06
3.34669e-06
3.361e-06
2.90533e-06
3.142
5.04063
7.20741
8.6558
9.52902
10.2006
10.8726
10.4997
7.1855
2.25413
0.564594
0.418723
0.0753469
0.00687115
0.00134208
0.00120155
0.00103416
0.000893591
0.000782316
0.000696951
0.000621959
0.000559349
0.000502067
0.000450519
0.000403579
0.000361395
0.000323152
0.000288635
0.000257632
0.000229982
0.000205062
0.000182544
0.000162427
0.000144044
0.000127671
0.000112898
9.95627e-05
8.75642e-05
7.67519e-05
6.70827e-05
5.83881e-05
5.06949e-05
4.38754e-05
3.78855e-05
3.27096e-05
2.82474e-05
2.45089e-05
2.13904e-05
1.88258e-05
1.67649e-05
1.51539e-05
1.38738e-05
1.28763e-05
1.20935e-05
1.14276e-05
1.08185e-05
1.02847e-05
9.76955e-06
9.2181e-06
8.69774e-06
8.13062e-06
7.53623e-06
7.03893e-06
6.4706e-06
5.96245e-06
5.43186e-06
4.94183e-06
4.52327e-06
4.16761e-06
3.7665e-06
3.59066e-06
3.18092e-06
3.24369e-06
2.79626e-06
3.77183
5.49709
7.43989
8.7332
9.49431
10.0406
10.7264
11.3361
9.7797
5.12205
0.611294
0.699065
0.242313
0.0323047
0.00272431
0.00120882
0.00106063
0.00089503
0.000766765
0.000673046
0.000594912
0.000531764
0.000475941
0.000426598
0.000382036
0.000342114
0.00030591
0.000273273
0.000243952
0.000217784
0.00019428
0.000173165
0.000154343
0.000137174
0.000121896
0.000108101
9.5667e-05
8.44805e-05
7.44508e-05
6.54759e-05
5.73923e-05
5.02398e-05
4.38788e-05
3.82853e-05
3.33892e-05
2.91341e-05
2.55274e-05
2.24438e-05
1.98338e-05
1.76779e-05
1.59125e-05
1.44437e-05
1.32424e-05
1.22549e-05
1.14156e-05
1.06487e-05
9.98771e-06
9.37379e-06
8.76635e-06
8.19952e-06
7.62728e-06
7.03464e-06
6.55004e-06
6.01058e-06
5.53094e-06
5.04751e-06
4.60157e-06
4.22664e-06
3.91532e-06
3.55214e-06
3.42094e-06
3.03481e-06
3.13876e-06
2.7015e-06
4.36743
5.85772
7.54591
8.71422
9.43176
9.89476
10.4053
11.2387
11.3459
8.27556
2.83195
0.539957
0.554858
0.125756
0.0139974
0.00159748
0.00108713
0.000918927
0.000767736
0.000661658
0.000578319
0.000512715
0.000456836
0.00040853
0.000365465
0.000327149
0.000292515
0.00026127
0.000233172
0.000208057
0.000185512
0.000165359
0.000147526
0.000131463
0.000117261
0.000104449
9.28767e-05
8.24239e-05
7.30421e-05
6.46246e-05
5.70308e-05
5.03104e-05
4.43254e-05
3.90475e-05
3.43651e-05
3.02693e-05
2.67428e-05
2.36678e-05
2.10069e-05
1.87565e-05
1.68403e-05
1.52065e-05
1.38181e-05
1.26399e-05
1.16327e-05
1.0698e-05
9.9041e-06
9.17266e-06
8.49561e-06
7.85978e-06
7.2676e-06
6.65258e-06
6.16219e-06
5.64205e-06
5.17343e-06
4.72641e-06
4.31108e-06
3.9698e-06
3.69527e-06
3.36379e-06
3.26942e-06
2.90464e-06
3.04244e-06
2.61573e-06
4.81933
6.0319
7.44796
8.5304
9.27964
9.76677
10.1361
10.7418
11.6793
10.7411
6.09652
0.944054
0.785819
0.361441
0.062537
0.00659178
0.00124167
0.000958658
0.000789313
0.000663788
0.000571945
0.000502036
0.000444635
0.000396105
0.000353633
0.000316343
0.00028282
0.00025259
0.000225435
0.000201188
0.000179416
0.000159922
0.000142627
0.000127145
0.000113583
0.000101519
9.07497e-05
8.10612e-05
7.23328e-05
6.44421e-05
5.72707e-05
5.08839e-05
4.51763e-05
4.01096e-05
3.55787e-05
3.15873e-05
2.80963e-05
2.50178e-05
2.23098e-05
1.99625e-05
1.79081e-05
1.61272e-05
1.45722e-05
1.32187e-05
1.20463e-05
1.09557e-05
1.00263e-05
9.16933e-06
8.40739e-06
7.6882e-06
7.05465e-06
6.40087e-06
5.8859e-06
5.3716e-06
4.89874e-06
4.47391e-06
4.07549e-06
3.75679e-06
3.51058e-06
3.20472e-06
3.13785e-06
2.79183e-06
2.95574e-06
2.53771e-06
5.01399
5.94094
7.07961
8.11184
8.94552
9.55667
9.9371
10.2868
11.178
11.8861
9.34293
3.68822
0.315406
0.701192
0.213881