/*--------------------------------*- C++ -*----------------------------------*\
| =========                 |                                                 |
| \\      /  F ield         | OpenFOAM: The Open Source CFD Toolbox           |
|  \\    /   O peration     | Version:  2312                                  |
|   \\  /    A nd           | Website:  www.openfoam.com                      |
|    \\/     M anipulation  |                                                 |
\*---------------------------------------------------------------------------*/
FoamFile
{
    version     2.0;
    format      ascii;
    arch        "LSB;label=32;scalar=64";
    class       volSymmTensorField;
    location    "300";
    object      turbulenceProperties:R;
}
// * * * * * * * * * * * * * * * * * * * * * * * * * * * * * * * * * * * * * //

dimensions      [0 2 -2 0 0 0 0];

internalField   nonuniform List<symmTensor> 
11040
(
(0.191849 0.0381913 3.31101e-22 0.160972 2.13916e-21 0.182529)
(0.36684 0.0565689 6.94606e-21 0.220785 7.19262e-20 0.312289)
(0.295539 0.0279949 2.22735e-20 0.153382 1.92679e-19 0.230725)
(0.0186196 0.000553276 -4.86102e-21 0.0150776 3.85648e-21 0.0163983)
(0.0150288 0.00447158 -8.81018e-21 0.0152299 4.88446e-20 0.0162478)
(0.100816 0.0426038 -2.51944e-19 0.193148 8.53945e-20 0.143209)
(0.120861 0.0551248 1.54183e-19 0.21607 -1.03651e-18 0.166002)
(0.133931 0.0630914 2.26947e-19 0.225102 -1.14057e-19 0.177539)
(0.130148 0.0618703 9.7345e-20 0.206627 -2.54446e-20 0.166976)
(0.129565 0.0618514 9.28286e-20 0.194712 1.46005e-19 0.161066)
(0.12436 0.0589806 -7.98512e-20 0.178162 3.31418e-19 0.150227)
(0.116952 0.0547796 -1.12945e-19 0.160031 2.63558e-19 0.137585)
(0.10969 0.0505938 2.09232e-20 0.144158 -1.39263e-19 0.125938)
(0.101356 0.0458301 2.27215e-20 0.128218 1.4044e-19 0.113713)
(0.0936818 0.0414384 -9.89239e-21 0.114218 6.52663e-21 0.102793)
(0.0887468 0.0384687 -2.8918e-21 0.104093 -1.61219e-19 0.0953036)
(0.0876317 0.0373534 4.41136e-20 0.0984477 6.93045e-22 0.0921823)
(0.0907314 0.0382242 -4.70942e-21 0.0975456 2.91672e-19 0.0936822)
(0.0948526 0.0396051 -2.51967e-20 0.0981758 2.32693e-21 0.0964335)
(0.0928211 0.0384416 4.29274e-21 0.0941597 -4.11901e-20 0.093312)
(0.0723982 0.0291582 1.76138e-20 0.0735417 3.04939e-20 0.0723588)
(0.0372688 0.0135651 -1.20837e-20 0.0392902 6.50381e-20 0.0374354)
(0.0187889 0.00721916 -6.2921e-22 0.0233096 -8.08763e-20 0.0197534)
(0.00837236 -0.00199055 1.03964e-20 0.0156826 1.60316e-19 0.0105782)
(0.0267972 -0.0109695 -4.91669e-20 0.0357458 -1.36405e-19 0.0301065)
(0.0380873 -0.0151997 -1.77593e-20 0.0462144 -2.4077e-19 0.0415431)
(0.0414647 -0.0162177 -1.14631e-21 0.0481182 -1.07859e-19 0.0443559)
(0.0251187 -0.00822765 -6.78097e-21 0.0272609 -3.15111e-21 0.0259995)
(0.0081644 -0.00200892 -1.13778e-20 0.00785851 -5.13903e-20 0.00792498)
(0.00821129 0.00120686 1.35795e-22 0.006492 -6.40489e-20 0.00736586)
(0.103892 0.0341202 9.85937e-20 0.0734421 2.61135e-19 0.0896184)
(0.236582 0.0852866 -1.40666e-20 0.174262 3.07762e-20 0.206056)
(0.33666 0.125724 4.78482e-20 0.255969 8.14533e-19 0.295844)
(0.360963 0.136819 -9.06805e-20 0.279091 4.74143e-19 0.318896)
(0.315441 0.120762 -2.35419e-21 0.247773 7.12025e-21 0.279527)
(0.231022 0.0896054 4.69802e-20 0.186038 4.82212e-19 0.205745)
(0.141759 0.0565515 -5.64939e-21 0.120592 1.02928e-19 0.127905)
(0.0751867 0.0326428 -7.13768e-21 0.0758961 2.69517e-19 0.0713386)
(0.0223509 0.002299 -1.69071e-19 0.0529207 -4.37326e-19 0.0331969)
(0.0866174 -0.0411989 1.41539e-20 0.144653 -2.68951e-19 0.110139)
(0.108951 -0.0459883 4.83912e-20 0.221761 1.68061e-20 0.160129)
(0.0247946 -0.00197488 5.04409e-23 0.0217972 -2.964e-22 0.0226726)
(0.0388765 -0.00466907 9.23265e-21 0.0327364 8.27955e-22 0.0320324)
(0.135076 0.00577478 -4.99665e-20 0.0690201 -2.5882e-19 0.0952298)
(0.278041 0.0105804 1.46249e-20 0.129609 -8.15872e-20 0.208597)
(0.406647 -0.0100229 2.21821e-20 0.163607 -1.61793e-19 0.283806)
(0.939133 -0.103249 5.34576e-19 0.380237 -1.39081e-18 0.669768)
(0.464062 -0.0991871 -9.42104e-19 0.224291 3.69826e-18 0.350511)
(0.215945 -0.0547214 -1.02127e-18 0.114844 2.62768e-18 0.166281)
(0.118936 -0.0334813 -7.82871e-20 0.0674478 -2.63384e-19 0.0962342)
(0.0802684 -0.0236965 -1.27922e-19 0.0470795 4.05096e-20 0.0671865)
(0.0526067 -0.0164831 5.23247e-19 0.0324469 -1.28107e-18 0.0456265)
(0.0363745 -0.0117032 -1.41058e-20 0.0230919 -9.85311e-20 0.0328688)
(0.0262535 -0.00848442 -1.83623e-19 0.0169773 7.28036e-19 0.024754)
(0.0196694 -0.00631447 -1.23032e-19 0.012938 2.94718e-20 0.0192894)
(0.0151238 -0.00502453 -4.84517e-20 0.010365 -1.76412e-19 0.0151817)
(0.0122142 -0.00451022 1.06184e-20 0.00913229 6.18762e-19 0.0121932)
(0.0107429 -0.00436569 -1.43286e-20 0.00896049 2.08434e-19 0.0104224)
(0.0104413 -0.0044151 -8.18129e-21 0.00935818 -5.89252e-19 0.0100397)
(0.0105591 -0.00450692 -2.71715e-20 0.00949233 -2.80706e-20 0.0108256)
(0.0116649 -0.00487493 -8.22453e-21 0.0110911 9.7453e-20 0.0138347)
(0.0139536 -0.00545272 -1.43669e-20 0.0153021 -4.57586e-20 0.0193957)
(0.0160655 -0.00658547 2.99218e-20 0.0224328 -4.7184e-19 0.0254104)
(0.0180622 -0.00793018 6.218e-20 0.0313116 7.50104e-19 0.0307968)
(0.0191419 -0.0086277 -7.668e-20 0.0375344 -7.75461e-19 0.0329394)
(0.0164684 -0.00747545 1.89675e-20 0.0334341 6.18571e-19 0.0275546)
(0.0108724 -0.00530067 8.30445e-20 0.0201311 1.36973e-18 0.0168537)
(0.00950162 -0.00418691 1.44639e-19 0.00904943 6.54576e-19 0.0103102)
(0.0271383 -0.00897174 7.19864e-20 0.0176413 2.87476e-19 0.0236789)
(0.0432666 -0.0116655 -3.87079e-20 0.0240563 5.04991e-19 0.0340231)
(0.0403145 0.00168636 5.1489e-20 0.0159915 6.4268e-19 0.0269785)
(0.0641872 0.00981201 -9.24303e-20 0.0281666 -8.02746e-19 0.045004)
(0.0355728 -0.00427219 -1.52402e-20 0.0145356 -1.07333e-18 0.025819)
(0.0467275 -0.0215235 -5.26243e-20 0.0479305 -2.3871e-18 0.0505504)
(0.0653108 -0.0328017 9.87874e-20 0.0857827 -1.15474e-18 0.0817233)
(0.0785709 -0.0400729 -6.28188e-20 0.117876 9.7942e-20 0.107428)
(0.0937654 -0.0475051 -2.11177e-19 0.153853 -2.72932e-18 0.136286)
(0.109285 -0.0544563 -6.61221e-20 0.192511 -2.10466e-19 0.165692)
(0.13188 -0.0647054 -2.70762e-19 0.242533 -1.2043e-18 0.203461)
(0.157466 -0.0750996 4.7077e-19 0.304647 2.07604e-18 0.248517)
(0.154819 -0.0736212 2.69673e-19 0.298927 1.34031e-18 0.235435)
(0.364402 -0.184502 -3.10097e-19 0.580541 -1.42844e-19 0.528124)
(0.0148448 -0.00155966 -1.74165e-22 0.0128328 -3.57971e-22 0.0138767)
(0.0101018 -0.00120169 -3.47424e-21 0.0108668 -6.17344e-21 0.0105776)
(0.00562956 -0.00105405 1.3861e-20 0.00529442 3.67615e-20 0.00534388)
(0.0674507 0.00244485 6.14902e-20 0.0354813 6.81674e-20 0.0510988)
(0.193898 0.00249823 -7.73519e-21 0.0873013 -1.27324e-20 0.141968)
(0.851121 -0.0353535 -9.49577e-20 0.327164 4.48188e-19 0.591296)
(1.28666 -0.133428 2.24603e-19 0.519336 2.60426e-19 0.902975)
(0.958767 -0.184077 1.88969e-19 0.443573 -2.0436e-18 0.709402)
(0.477282 -0.124758 -3.10591e-19 0.26116 -6.38182e-20 0.362842)
(0.289452 -0.0862743 3.20534e-19 0.174155 -8.97504e-19 0.228561)
(0.181767 -0.0595277 -5.6416e-19 0.118741 1.34115e-18 0.148705)
(0.122738 -0.043874 8.69865e-19 0.0878096 -2.39039e-18 0.104384)
(0.0867607 -0.0331751 -3.25907e-20 0.0672718 -7.58968e-20 0.0765564)
(0.0647507 -0.0259691 1.71977e-19 0.0532223 -1.01091e-18 0.0594504)
(0.0504198 -0.0207221 2.85552e-20 0.0426468 1.06044e-18 0.0477974)
(0.0426813 -0.0177315 -8.55958e-20 0.0366365 -4.08958e-19 0.0409685)
(0.0383937 -0.0161906 -1.62978e-21 0.0340156 -6.98855e-19 0.0365927)
(0.0353226 -0.0153583 5.06939e-20 0.0338324 -5.13198e-19 0.0336062)
(0.031049 -0.0142458 2.24944e-20 0.034349 -3.04766e-20 0.0309543)
(0.0250852 -0.0123279 2.83265e-20 0.0360036 3.46602e-20 0.0292441)
(0.0205182 -0.0092573 5.6532e-21 0.0416917 1.09891e-19 0.0316408)
(0.0219779 -0.00528975 -4.27551e-20 0.0556647 2.10526e-19 0.0408732)
(0.0270602 -0.00130852 -5.63141e-20 0.072068 -6.30017e-19 0.052206)
(0.02965 0.0030239 -4.24717e-20 0.0783035 -2.26952e-19 0.0561176)
(0.0254728 0.00605102 4.67288e-20 0.0643019 -3.1366e-19 0.0460254)
(0.0175606 0.00795826 1.41961e-19 0.0355687 -2.2819e-19 0.0270641)
(0.0237003 0.00930836 -1.0626e-19 0.0189149 2.9443e-19 0.0214797)
(0.0514368 0.00921634 -2.38079e-19 0.0231879 -1.05109e-18 0.0379094)
(0.0936934 0.00275636 9.94508e-20 0.0358252 1.48816e-19 0.0643454)
(0.100082 0.000868589 1.4836e-19 0.0382293 6.9638e-19 0.0682199)
(0.105346 -0.0123829 -8.22632e-20 0.0432906 4.96397e-19 0.0741296)
(0.0913379 -0.0351096 3.20523e-19 0.0710721 2.00296e-18 0.0812231)
(0.0897305 -0.0433713 9.81381e-20 0.10845 7.38127e-19 0.097761)
(0.0948903 -0.0471984 -4.54381e-19 0.157603 7.93707e-19 0.125331)
(0.110247 -0.0502684 -3.22696e-19 0.219561 -7.36101e-19 0.165262)
(0.128272 -0.0509719 2.91473e-19 0.283959 1.36931e-18 0.208256)
(0.148372 -0.0495591 2.46017e-19 0.351321 -1.26258e-18 0.253595)
(0.1712 -0.0488121 3.14175e-19 0.420206 9.1904e-19 0.300774)
(0.200167 -0.0495899 -1.74899e-19 0.502535 -3.69797e-19 0.35939)
(0.193076 -0.0371302 1.49571e-19 0.49105 -1.78971e-19 0.339637)
(0.326838 -0.128548 4.85173e-19 0.730929 3.80243e-19 0.54065)
(0.0105631 -0.00103323 -5.23497e-23 0.00908261 -2.53236e-22 0.00983259)
(0.00757302 -0.000985961 -1.62665e-22 0.00774615 1.01826e-21 0.00775848)
(0.00611492 -0.000636589 -4.42055e-21 0.00705607 -7.71809e-21 0.00666726)
(0.00358974 -0.000635243 -1.6711e-20 0.00434911 -2.32395e-20 0.00397223)
(0.0209744 0.000264663 5.68817e-21 0.0132161 5.1803e-21 0.0170138)
(0.175026 -0.000548905 7.84897e-20 0.0725497 5.1954e-20 0.124208)
(0.782746 -0.0380287 5.76501e-20 0.300917 -3.87216e-19 0.546611)
(1.42714 -0.140425 4.72447e-19 0.572758 -9.01292e-19 0.998623)
(1.37193 -0.228508 -3.56907e-19 0.605851 9.30004e-19 0.996292)
(0.821498 -0.197785 1.54697e-19 0.423662 2.72368e-19 0.625074)
(0.464921 -0.132981 -2.8462e-19 0.270692 1.34631e-18 0.362728)
(0.302305 -0.0967302 -7.09601e-19 0.192819 1.33218e-18 0.245957)
(0.204091 -0.0715495 5.37977e-19 0.142656 -1.04495e-18 0.172411)
(0.143048 -0.0544488 -8.27963e-20 0.11003 9.72608e-19 0.126257)
(0.104478 -0.0419062 -2.02977e-19 0.0858834 -1.18381e-18 0.0958601)
(0.0839236 -0.0344066 -1.32268e-19 0.070918 -5.03181e-19 0.0787926)
(0.0735266 -0.0302354 4.52809e-20 0.0624808 2.55158e-19 0.0690266)
(0.0663366 -0.0276001 1.27103e-19 0.0578757 1.18622e-20 0.0619547)
(0.0552888 -0.0242987 3.7081e-20 0.0537298 6.19092e-20 0.0532763)
(0.0382117 -0.0187559 -1.29509e-20 0.0498217 -8.62999e-20 0.0430307)
(0.0260553 -0.0103743 -2.90899e-20 0.057617 -2.16134e-19 0.0422709)
(0.0331319 0.000275316 1.4409e-20 0.0879341 -3.02453e-19 0.0618294)
(0.048652 0.0107288 1.57061e-20 0.123348 -1.2798e-19 0.0871868)
(0.0600963 0.0205453 -1.84392e-20 0.140901 1.30609e-19 0.101225)
(0.0593514 0.0257173 -1.45351e-19 0.123692 7.4506e-19 0.0915388)
(0.0545771 0.0274268 -1.41934e-19 0.0825116 -7.87702e-19 0.0681249)
(0.0704587 0.0272378 1.73438e-19 0.0553719 -6.71613e-19 0.0626065)
(0.11876 0.0277405 2.36044e-19 0.0601358 1.31749e-18 0.090213)
(0.194171 0.0232284 1.14239e-19 0.0801008 3.01481e-19 0.136343)
(0.182406 0.00621535 -1.99168e-19 0.0697303 -2.83037e-19 0.125775)
(0.17231 -0.0215996 4.3895e-20 0.0712595 -7.72375e-19 0.122832)
(0.121531 -0.0386003 -3.50889e-19 0.0764271 5.37126e-19 0.100191)
(0.100657 -0.0476072 4.97736e-19 0.113009 -5.63602e-19 0.106391)
(0.103204 -0.0495328 4.99903e-19 0.190995 -1.18711e-18 0.147029)
(0.126966 -0.0452853 4.20775e-19 0.293079 6.1922e-19 0.210635)
(0.160114 -0.0357379 2.97946e-19 0.40401 1.25308e-18 0.283085)
(0.199215 -0.02174 2.17233e-19 0.520577 1.13301e-18 0.361212)
(0.239806 -0.00454992 -2.35862e-19 0.632631 -1.20129e-18 0.437357)
(0.2848 0.00697757 -1.18493e-19 0.752973 -2.31676e-19 0.523853)
(0.302483 0.0337203 2.85839e-19 0.784025 -7.14228e-19 0.53519)
(0.354711 -0.0598189 -3.02202e-19 0.9198 -1.63264e-19 0.654174)
(0.00767821 -0.000716887 6.24368e-22 0.00653779 1.13652e-21 0.00710137)
(0.00648463 -0.000831661 -9.9822e-22 0.00629849 -1.61084e-21 0.00635052)
(0.00522777 -0.000628667 4.43235e-21 0.00573617 6.95737e-21 0.00545732)
(0.00480247 -0.000476517 6.40924e-21 0.00574734 8.50568e-21 0.00527839)
(0.00253808 -0.000266181 -8.23457e-21 0.0031211 -9.41075e-21 0.0028286)
(0.00567796 -2.46574e-05 1.25597e-21 0.00425241 -1.42558e-23 0.00494603)
(0.101034 -0.00141078 -1.32555e-20 0.0428357 -1.0576e-20 0.0719383)
(0.561494 -0.029086 -1.50715e-19 0.21652 -3.52541e-20 0.391226)
(1.33186 -0.12813 2.01925e-19 0.532353 -1.18832e-19 0.934931)
(1.60135 -0.238713 -4.20672e-21 0.687959 5.13328e-19 1.14632)
(1.21344 -0.262006 4.63328e-19 0.590465 -1.63997e-18 0.91024)
(0.716815 -0.195723 -2.95072e-19 0.401341 2.99265e-19 0.557716)
(0.445243 -0.13842 -3.06247e-19 0.277092 2.68847e-19 0.357625)
(0.299349 -0.103043 3.50503e-19 0.205057 -2.74961e-18 0.251085)
(0.210368 -0.0787797 2.67645e-19 0.158342 3.29722e-19 0.184387)
(0.157549 -0.0623007 1.9499e-19 0.126971 1.52751e-19 0.143194)
(0.130045 -0.0522863 -1.54808e-19 0.107227 6.87945e-19 0.119566)
(0.115187 -0.0463274 -3.25533e-20 0.0954299 1.44083e-19 0.105182)
(0.0971376 -0.0402808 4.83405e-20 0.0849077 -7.27001e-20 0.0897145)
(0.0649219 -0.0301512 4.26695e-20 0.0700382 5.64871e-20 0.0668209)
(0.0327363 -0.0146282 -1.47619e-21 0.0673703 2.38943e-19 0.0512185)
(0.0429223 0.00463534 -8.87518e-20 0.112874 2.23974e-19 0.0797378)
(0.0716864 0.0225329 7.55388e-20 0.171913 1.88222e-19 0.122769)
(0.0944363 0.0380111 2.12202e-19 0.206642 3.69796e-19 0.150707)
(0.0991505 0.0461072 6.07397e-20 0.191753 -1.81543e-19 0.144744)
(0.0961849 0.0480825 4.97583e-20 0.136638 1.99812e-18 0.115054)
(0.122153 0.0456855 4.70989e-20 0.092079 -2.57163e-20 0.106445)
(0.201707 0.0435931 9.38422e-21 0.0981477 -7.36093e-19 0.151517)
(0.316492 0.0413096 -3.75997e-19 0.132365 -1.13267e-18 0.223874)
(0.271044 0.012848 7.44861e-20 0.104314 -4.44739e-19 0.186998)
(0.232721 -0.0200214 1.32428e-19 0.0919029 1.18118e-18 0.163438)
(0.153641 -0.0341837 2.00903e-19 0.0755881 -8.31321e-19 0.117011)
(0.103901 -0.047383 -3.47879e-19 0.106315 2.61826e-18 0.105807)
(0.104307 -0.0455878 -8.73683e-19 0.217047 1.40985e-19 0.162046)
(0.14816 -0.0320716 -3.74017e-19 0.375672 4.59732e-19 0.264259)
(0.208407 -0.00922404 -4.21464e-19 0.549666 5.23048e-19 0.381212)
(0.277525 0.0202877 -6.24366e-20 0.72942 4.40743e-20 0.505494)
(0.350902 0.0567269 5.49137e-20 0.904657 2.13954e-21 0.628644)
(0.421461 0.0826333 -9.48821e-20 1.07684 7.97051e-19 0.755025)
(0.485251 0.126317 -7.36044e-19 1.19446 2.24457e-20 0.830587)
(0.486914 0.0429778 9.51991e-19 1.28457 -5.89291e-19 0.906243)
(0.00539922 -0.000477677 -6.34396e-22 0.00454201 -8.4174e-22 0.00496759)
(0.0046787 -0.000572568 3.08546e-21 0.00442089 3.80202e-21 0.00454472)
(0.00403006 -0.000526622 -1.64458e-21 0.0042541 -2.62085e-21 0.004136)
(0.00353822 -0.000387951 -1.28767e-21 0.00409396 -2.59318e-21 0.00381476)
(0.00350984 -0.000300379 1.29658e-21 0.00431924 2.33925e-21 0.00392207)
(0.00170953 -9.03361e-05 -6.05572e-22 0.00202085 -4.59339e-22 0.00186764)
(0.000730656 -8.65374e-06 -2.46e-22 0.000655283 -2.16852e-22 0.000691442)
(0.0378067 -0.000752193 -4.20926e-21 0.0183847 4.00563e-21 0.0280145)
(0.334483 -0.0182139 -1.32e-20 0.129583 1.2204e-21 0.232511)
(1.022 -0.0948078 -3.11309e-19 0.406926 -3.59207e-19 0.717081)
(1.60231 -0.219366 -6.43629e-20 0.675516 -1.62414e-19 1.14028)
(1.52537 -0.293954 2.93946e-19 0.70798 -1.64259e-19 1.12316)
(1.0538 -0.266102 -6.37049e-19 0.558377 1.22804e-19 0.811834)
(0.6506 -0.194549 1.69114e-19 0.390846 9.26233e-19 0.518111)
(0.426032 -0.142535 2.64986e-19 0.283511 4.75227e-19 0.352908)
(0.299078 -0.108995 -3.49246e-19 0.217704 -8.39311e-20 0.258838)
(0.231793 -0.0888939 1.87861e-19 0.179467 -1.07946e-18 0.206535)
(0.199463 -0.0774878 -4.76213e-20 0.157548 6.66078e-19 0.178143)
(0.172042 -0.0676141 7.20738e-20 0.138858 -1.24216e-19 0.153432)
(0.124196 -0.0523219 5.31432e-20 0.110983 2.1716e-19 0.116483)
(0.0564421 -0.0286182 -6.04141e-20 0.0815846 -2.89362e-19 0.07064)
(0.0443976 0.00149186 1.51366e-20 0.118097 1.55411e-20 0.084114)
(0.085207 0.0282955 3.66644e-20 0.201714 6.31653e-20 0.144939)
(0.119131 0.048848 -2.50353e-19 0.257731 -3.07524e-19 0.188378)
(0.129803 0.0601466 3.95379e-20 0.251612 -5.86883e-19 0.189314)
(0.125538 0.0627906 2.87918e-19 0.182655 -4.70345e-19 0.151907)
(0.16196 0.0575132 -4.65501e-19 0.114916 -4.68533e-19 0.137429)
(0.285956 0.0493395 -3.94754e-19 0.127487 -8.19549e-19 0.209017)
(0.414611 0.0460822 3.17398e-19 0.168696 -1.39943e-19 0.292094)
(0.345293 0.0144008 2.61197e-19 0.132683 8.46833e-19 0.23729)
(0.278219 -0.0139066 -2.42237e-19 0.106919 -4.49689e-19 0.193364)
(0.190685 -0.0283584 -3.80209e-19 0.0813587 4.96895e-19 0.138969)
(0.105128 -0.0458117 -1.05299e-19 0.0982082 -2.77291e-18 0.103092)
(0.10806 -0.0401699 8.31573e-19 0.246968 -1.68223e-18 0.180152)
(0.181109 -0.0163879 5.5835e-19 0.476198 -1.38602e-18 0.332748)
(0.275966 0.021795 -1.43396e-19 0.725719 -4.66103e-20 0.504741)
(0.381555 0.068909 5.99972e-20 0.97922 9.65591e-19 0.683854)
(0.495482 0.125704 7.28245e-20 1.2313 -6.68753e-19 0.865193)
(0.599477 0.168861 3.46642e-19 1.46915 -1.02047e-19 1.04156)
(0.718487 0.231271 -1.79348e-19 1.70197 4.96309e-19 1.20264)
(0.725932 0.178838 -1.31438e-18 1.81962 4.05934e-19 1.29227)
(0.00382074 -0.000321707 -1.31911e-22 0.0031867 -2.06114e-22 0.00350366)
(0.00349592 -0.00040519 2.58775e-22 0.00319904 3.5445e-22 0.00334266)
(0.00316219 -0.0004109 -1.51838e-21 0.00319898 -1.65368e-21 0.00317774)
(0.00276892 -0.000343635 -2.27347e-21 0.00307586 -2.27298e-21 0.00292002)
(0.00257859 -0.00025805 -8.02859e-22 0.00309172 -7.07314e-22 0.00283396)
(0.00257318 -0.000183492 3.06867e-21 0.00321288 3.29756e-21 0.00289634)
(0.00122534 -3.77248e-05 -2.99987e-22 0.00140759 -3.70197e-22 0.00131842)
(2.54623e-05 -2.24319e-07 4.11233e-24 2.54554e-05 3.62387e-24 2.54532e-05)
(0.00533811 -7.82108e-05 4.47743e-21 0.00397252 3.41985e-21 0.00464487)
(0.155812 -0.00862029 -2.46833e-20 0.0609405 2.00024e-20 0.108254)
(0.64939 -0.0575311 3.30939e-19 0.257628 3.01013e-19 0.454544)
(1.3376 -0.169566 -3.24097e-19 0.555417 -4.99236e-19 0.948944)
(1.63882 -0.282616 4.6823e-19 0.732481 4.09718e-19 1.18932)
(1.37889 -0.313724 -5.09899e-19 0.688731 6.39753e-19 1.04203)
(0.933721 -0.26169 2.23427e-19 0.531231 -1.23205e-18 0.736)
(0.606802 -0.194981 -1.88135e-19 0.387823 7.0761e-19 0.496194)
(0.4279 -0.150393 -5.32924e-20 0.299149 8.0952e-19 0.363564)
(0.340233 -0.125273 2.63136e-19 0.251031 4.45204e-19 0.295247)
(0.29503 -0.110497 -1.14822e-19 0.223244 3.99481e-19 0.256467)
(0.239671 -0.0925077 2.45541e-20 0.188589 -1.23443e-18 0.211733)
(0.136467 -0.0600141 1.24621e-20 0.129883 5.0565e-19 0.134434)
(0.0436343 -0.0169895 -1.07931e-19 0.0988301 -2.52026e-20 0.0752188)
(0.0772192 0.0211095 5.267e-20 0.19108 -3.63855e-19 0.136906)
(0.121706 0.046605 1.89358e-19 0.272802 -7.75119e-20 0.197269)
(0.137725 0.0600096 -3.54709e-20 0.283475 8.07023e-19 0.208336)
(0.125927 0.0625616 -4.19395e-19 0.203676 -8.26498e-19 0.161835)
(0.163413 0.0517766 7.55958e-20 0.103591 -5.40411e-19 0.131794)
(0.347597 0.0343062 3.76107e-19 0.13886 1.37563e-18 0.246231)
(0.464098 0.0286216 1.05417e-19 0.179744 1.17264e-18 0.323053)
(0.377622 0.00350726 -6.8008e-20 0.144003 -1.43298e-19 0.25773)
(0.295882 -0.0109343 -9.75483e-21 0.11301 -7.61835e-19 0.205038)
(0.221076 -0.0260201 -2.80658e-19 0.0901795 -1.58126e-19 0.158744)
(0.109646 -0.0461596 -1.79144e-19 0.0964837 1.26914e-18 0.104973)
(0.116938 -0.0370294 1.09892e-19 0.281073 1.92151e-18 0.202732)
(0.220733 -0.0026553 1.11765e-18 0.58458 6.68688e-19 0.408202)
(0.353057 0.0520235 1.5049e-19 0.916364 -7.55917e-19 0.640409)
(0.498735 0.118322 -9.41923e-19 1.2513 -8.16304e-19 0.879817)
(0.655793 0.195602 -2.68278e-19 1.58726 2.60766e-19 1.12462)
(0.800027 0.259532 2.11563e-19 1.90208 -1.09913e-18 1.3588)
(0.975005 0.340793 -8.62322e-20 2.26062 2.47589e-19 1.6148)
(1.0358 0.338472 7.3499e-20 2.46074 5.80457e-19 1.76291)
(0.00274941 -0.00022082 -2.65387e-23 0.00227596 7.98836e-24 0.00251323)
(0.00257556 -0.000283531 -6.02268e-22 0.00230355 -6.40404e-22 0.00243667)
(0.00242554 -0.000307225 5.96663e-22 0.00236351 5.53925e-22 0.00239183)
(0.00223774 -0.000289895 2.63256e-21 0.00237839 2.81735e-21 0.00230617)
(0.00199101 -0.000231711 4.8042e-22 0.00229091 5.46871e-22 0.00213965)
(0.00187504 -0.000168549 4.22051e-22 0.00230094 4.72109e-23 0.00208685)
(0.00195216 -0.000121265 -5.11102e-21 0.00248741 -4.4273e-21 0.00222129)
(0.000997212 -2.27538e-05 -1.0347e-22 0.00114302 -5.8019e-23 0.00107155)
(8.75277e-09 -4.46111e-15 -1.42512e-31 8.7528e-09 -1.45084e-31 8.75278e-09)
(6.82257e-07 -7.2289e-12 4.62695e-28 6.82183e-07 3.99384e-28 6.8222e-07)
(0.0475706 -0.00255538 -4.19654e-20 0.0197693 -4.76886e-20 0.0335372)
(0.329643 -0.0273497 -1.14061e-19 0.130255 4.78646e-23 0.229972)
(0.919712 -0.107089 3.95297e-19 0.376618 1.4598e-20 0.649845)
(1.47645 -0.229052 -4.36719e-19 0.6403 -2.61882e-19 1.06142)
(1.56135 -0.315521 3.19674e-19 0.738763 2.95459e-19 1.15598)
(1.23752 -0.315563 4.57272e-19 0.659418 3.36161e-19 0.956487)
(0.856534 -0.25908 -4.76316e-20 0.517546 7.58914e-19 0.690001)
(0.612987 -0.205922 -3.77515e-19 0.408989 2.62856e-19 0.510032)
(0.494453 -0.174541 -5.52632e-19 0.348635 -4.07058e-20 0.418159)
(0.419276 -0.151397 2.25478e-19 0.303916 -7.04504e-19 0.357276)
(0.30529 -0.115553 3.95716e-19 0.232945 9.70131e-19 0.268984)
(0.135969 -0.0610984 -3.78654e-19 0.133248 -1.9488e-19 0.139522)
(0.0466025 -0.00783584 7.68099e-20 0.121456 3.09351e-19 0.0890545)
(0.0921367 0.0252696 5.90161e-20 0.226709 2.17363e-19 0.160361)
(0.114832 0.0385105 -1.06493e-20 0.267333 -2.62546e-19 0.187757)
(0.087041 0.035881 -3.38967e-20 0.183418 5.20762e-19 0.131044)
(0.103648 0.0150172 2.10773e-19 0.0448954 1.46662e-18 0.0719489)
(0.375402 -0.0114091 3.49058e-19 0.142501 -4.69691e-19 0.262513)
(0.454837 -0.0192825 -7.57662e-20 0.174177 1.58644e-19 0.315326)
(0.353133 -0.0286026 -5.62075e-19 0.140242 -6.00957e-19 0.242079)
(0.276093 -0.0219707 6.72787e-20 0.108545 -1.93631e-19 0.192748)
(0.233637 -0.0340064 4.14547e-19 0.0992935 -9.12282e-19 0.169371)
(0.124525 -0.052659 5.05946e-19 0.110318 2.77517e-19 0.119731)
(0.128978 -0.0391891 -3.72374e-19 0.313061 -1.19802e-19 0.225563)
(0.256419 0.00608685 -6.96628e-19 0.679008 1.18467e-18 0.474521)
(0.425506 0.0778673 -4.22598e-19 1.09296 -1.00598e-18 0.766678)
(0.612626 0.16469 5.45426e-19 1.51224 2.96422e-19 1.0688)
(0.813423 0.262557 2.25371e-19 1.93439 -2.33592e-19 1.37852)
(1.00211 0.350344 -1.58405e-19 2.33035 7.40906e-20 1.67353)
(1.22664 0.449108 6.31765e-19 2.8034 -1.30262e-18 2.01885)
(1.36619 0.506066 3.85739e-20 3.11019 1.41245e-19 2.24518)
(0.00199792 -0.000153607 -9.16717e-23 0.00164354 -1.09029e-23 0.00182128)
(0.00189827 -0.000199004 -4.87919e-22 0.00166849 -6.43929e-22 0.00178204)
(0.00182083 -0.000223021 2.03257e-21 0.00172209 1.86533e-21 0.00176998)
(0.00173458 -0.000225333 -3.08e-22 0.00177331 -2.26588e-22 0.00175263)
(0.00161483 -0.000203244 7.16426e-22 0.00178047 5.39842e-22 0.0016972)
(0.00144697 -0.000156028 -5.8492e-22 0.00170534 -4.62731e-22 0.00157609)
(0.00138804 -0.000113236 1.7305e-21 0.00173633 1.87926e-21 0.00156138)
(0.00145502 -7.6451e-05 2.12417e-21 0.00188185 1.40463e-21 0.00166808)
(0.000915713 -1.85199e-05 1.37975e-23 0.00107495 2.09875e-22 0.000996269)
(4.89192e-05 -6.16859e-08 4.98771e-24 4.94795e-05 3.47585e-24 4.92059e-05)
(0.000201068 -9.05301e-06 1.04838e-22 0.000178987 1.06534e-22 0.000189822)
(0.0060523 -0.000212928 -6.09765e-21 0.0038544 -3.76786e-21 0.00493713)
(0.126307 -0.00960184 -7.61069e-21 0.0498424 -3.82604e-20 0.0878782)
(0.515889 -0.054093 1.3886e-19 0.208376 2.04243e-19 0.36255)
(1.10334 -0.153126 -7.66254e-19 0.466226 -5.41929e-19 0.786856)
(1.50102 -0.268308 4.40959e-19 0.678658 2.52632e-19 1.09362)
(1.4564 -0.33043 9.42175e-20 0.726685 -9.58275e-19 1.09892)
(1.14888 -0.318756 3.47547e-19 0.648216 3.06943e-19 0.905313)
(0.864805 -0.274074 -5.7177e-19 0.545553 -8.26852e-19 0.704123)
(0.696966 -0.234921 1.9552e-19 0.468514 1.14189e-18 0.576481)
(0.563274 -0.194665 2.29319e-19 0.388305 -7.69431e-19 0.471505)
(0.385027 -0.13673 -3.44055e-19 0.270968 4.60307e-19 0.33201)
(0.172883 -0.0710915 1.73681e-19 0.14547 -3.41613e-20 0.167494)
(0.0567674 -0.0242487 5.3319e-20 0.12186 -8.22837e-20 0.0931634)
(0.0778203 -0.0104735 -9.51978e-21 0.199595 5.54544e-19 0.135146)
(0.0762816 -0.0236365 2.9059e-19 0.177678 -2.77034e-19 0.121047)
(0.158985 -0.0606244 -3.45939e-19 0.123776 -1.64529e-19 0.138527)
(0.411956 -0.0961013 -4.39161e-19 0.208438 1.09871e-19 0.312881)
(0.442888 -0.101701 -1.37646e-19 0.223087 -8.32645e-19 0.332283)
(0.335499 -0.0919321 4.22838e-19 0.190079 -2.51262e-19 0.256833)
(0.252092 -0.0611359 1.86169e-19 0.130782 7.1212e-19 0.191258)
(0.244394 -0.0620082 1.8608e-19 0.129677 6.1e-19 0.18925)
(0.162924 -0.0713145 -4.91739e-19 0.153326 3.25371e-19 0.160524)
(0.142433 -0.0497662 2.9138e-19 0.33352 -1.09437e-18 0.24302)
(0.275958 0.00790291 2.38616e-19 0.730752 -8.53004e-20 0.511052)
(0.476189 0.0971742 7.58394e-19 1.21428 3.21169e-19 0.854441)
(0.704319 0.205717 -6.29727e-19 1.7148 -5.75602e-19 1.2181)
(0.947744 0.324755 -5.49478e-19 2.21783 8.91296e-19 1.58975)
(1.18144 0.437575 2.95414e-19 2.68997 9.975e-20 1.94209)
(1.44231 0.55115 -3.81123e-19 3.24402 7.45589e-19 2.35463)
(1.66046 0.661678 9.02905e-19 3.64912 -1.4717e-18 2.65286)
(0.00146254 -0.000108055 -3.58047e-22 0.00119691 -3.52124e-22 0.00133004)
(0.00140132 -0.000140478 1.44189e-21 0.00121509 1.21981e-21 0.00130781)
(0.00135692 -0.000160206 -3.53339e-22 0.00125416 -1.86549e-22 0.00130477)
(0.00131429 -0.000168498 -2.62913e-21 0.00130149 -2.25917e-21 0.00130708)
(0.00126057 -0.000163009 -2.5966e-22 0.00133816 -3.09209e-22 0.00129877)
(0.00118313 -0.000142534 2.596e-21 0.00134111 2.25219e-21 0.0012619)
(0.00107177 -0.000107335 -5.76617e-22 0.00128543 -6.52375e-22 0.00117857)
(0.0010249 -7.52205e-05 -6.58316e-21 0.00129639 -5.25515e-21 0.00116006)
(0.00107617 -4.68611e-05 7.1627e-21 0.00140919 5.58579e-21 0.00124161)
(0.000859964 -1.55382e-05 1.9398e-22 0.00105339 -2.19937e-22 0.000956953)
(5.44771e-05 -4.97031e-08 -6.7508e-25 5.52044e-05 -9.30353e-25 5.48474e-05)
(5.89608e-05 -3.12938e-07 -5.69642e-24 6.09863e-05 -2.46724e-24 6.00048e-05)
(0.000334982 -3.44458e-06 -1.96266e-22 0.000307953 -1.0689e-22 0.000321264)
(0.0351514 -0.00240906 1.70408e-20 0.0142878 -3.89929e-21 0.0246158)
(0.226295 -0.0209523 -1.99127e-19 0.0902854 -2.19044e-20 0.158124)
(0.675823 -0.0827288 3.43815e-19 0.279064 7.92204e-20 0.478102)
(1.20712 -0.190182 -2.65556e-19 0.52569 1.19234e-19 0.868581)
(1.48229 -0.29603 1.52869e-20 0.698231 -2.79134e-19 1.09457)
(1.40194 -0.348164 -2.13439e-19 0.735813 -1.7429e-19 1.07461)
(1.16517 -0.340339 7.63643e-20 0.685322 -2.16954e-19 0.925554)
(0.941981 -0.29908 3.71734e-19 0.597028 1.41808e-20 0.763054)
(0.746271 -0.23904 -6.03843e-20 0.47568 -7.65662e-19 0.609234)
(0.537466 -0.169331 -3.24798e-19 0.334778 4.93781e-19 0.444572)
(0.319451 -0.112991 5.28717e-19 0.222287 -3.31619e-19 0.280971)
(0.19823 -0.0927401 -1.72085e-19 0.215279 -1.32855e-19 0.207379)
(0.236714 -0.115957 -6.16214e-19 0.306332 -1.17922e-19 0.265185)
(0.382325 -0.173072 5.49517e-19 0.390888 -1.23768e-18 0.381464)
(0.559668 -0.22102 3.4126e-19 0.451879 8.37964e-19 0.5051)
(0.570355 -0.225444 -1.29594e-19 0.462909 -1.11109e-19 0.512079)
(0.459375 -0.195667 -1.51715e-19 0.420913 1.01752e-18 0.431662)
(0.345472 -0.142425 -1.44723e-19 0.298117 -6.73801e-19 0.319107)
(0.318346 -0.120952 2.09401e-19 0.243947 5.28647e-19 0.281328)
(0.245471 -0.109789 -5.10972e-19 0.24163 -4.83667e-19 0.245001)
(0.163044 -0.0721861 2.24477e-19 0.337409 1.58705e-18 0.254733)
(0.265673 0.00210764 -3.05811e-19 0.704049 1.73715e-19 0.492483)
(0.485611 0.109841 -4.35323e-19 1.22756 5.61779e-20 0.867063)
(0.752113 0.240807 3.88429e-19 1.79647 -1.09015e-18 1.2857)
(1.03841 0.382498 3.82538e-19 2.37257 -2.25181e-19 1.71589)
(1.31328 0.518736 -3.29174e-20 2.90531 -8.57499e-19 2.11566)
(1.59338 0.642742 2.09957e-19 3.49369 -2.13758e-18 2.56142)
(1.86617 0.786744 -1.18054e-18 3.95972 1.25808e-18 2.90411)
(0.00107484 -7.64932e-05 -3.12965e-22 0.000875692 -1.96829e-22 0.000975507)
(0.00103533 -9.96511e-05 -1.30609e-21 0.000888164 -9.59243e-22 0.000961827)
(0.00100683 -0.000114723 -6.38375e-23 0.000914143 -1.81404e-22 0.000960214)
(0.000983992 -0.000123434 -2.06998e-22 0.000950018 -1.62604e-22 0.00096646)
(0.000959181 -0.000124625 1.83627e-21 0.000986606 1.4742e-21 0.000972466)
(0.000924657 -0.000117044 9.71406e-22 0.00101167 6.8638e-22 0.000967861)
(0.000873559 -0.000100057 -1.33922e-21 0.00101141 -1.05504e-21 0.000942386)
(0.00080249 -7.51808e-05 -8.51527e-22 0.000975061 -2.8099e-22 0.000888941)
(0.000754547 -4.9772e-05 -6.79487e-22 0.000958359 -6.2758e-22 0.000856377)
(0.000794528 -2.83752e-05 -6.03517e-21 0.00105084 -4.82263e-21 0.000921915)
(0.000687348 -7.85746e-06 -9.91683e-22 0.000860626 -5.0048e-22 0.000773681)
(0.000197663 -4.18311e-07 -1.09732e-23 0.000209678 -2.14314e-24 0.000203727)
(3.15943e-05 -2.24024e-08 5.01003e-24 3.19878e-05 3.7906e-24 3.17958e-05)
(9.25676e-05 -6.35028e-06 -1.93962e-21 8.54931e-05 -1.26554e-21 8.92226e-05)
(0.00175591 -5.00673e-05 4.31872e-21 0.00133137 2.88219e-21 0.00154103)
(0.0703837 -0.00575152 -7.29501e-20 0.0279398 -4.95436e-20 0.049001)
(0.327866 -0.0349806 3.36192e-19 0.132802 1.77578e-19 0.230199)
(0.798815 -0.110011 6.96231e-19 0.337155 4.13387e-19 0.568759)
(1.27502 -0.222635 -4.98179e-19 0.572378 -8.76166e-20 0.925455)
(1.49971 -0.326663 -4.14397e-19 0.734618 -4.79746e-19 1.1193)
(1.4371 -0.374375 2.73668e-19 0.778411 5.82223e-19 1.10865)
(1.23317 -0.352736 -2.83777e-19 0.713975 -5.74596e-19 0.972637)
(1.01792 -0.291661 6.34423e-19 0.588671 5.06968e-19 0.807713)
(0.807449 -0.229598 -3.21155e-19 0.461952 -4.47402e-19 0.648246)
(0.618764 -0.207712 3.25973e-19 0.408826 6.1699e-20 0.526107)
(0.555424 -0.235449 -3.05953e-19 0.498591 4.73277e-19 0.527034)
(0.671043 -0.304996 -7.65307e-20 0.689611 7.22088e-19 0.674026)
(0.819774 -0.371722 1.35287e-19 0.836737 -1.17511e-18 0.822571)
(0.841917 -0.3867 -3.39931e-19 0.887214 1.89695e-19 0.854209)