/*--------------------------------*- C++ -*----------------------------------*\
| =========                 |                                                 |
| \\      /  F ield         | OpenFOAM: The Open Source CFD Toolbox           |
|  \\    /   O peration     | Version:  2312                                  |
|   \\  /    A nd           | Website:  www.openfoam.com                      |
|    \\/     M anipulation  |                                                 |
\*---------------------------------------------------------------------------*/
FoamFile
{
    version     2.0;
    format      ascii;
    arch        "LSB;label=32;scalar=64";
    class       volSymmTensorField;
    location    "300";
    object      turbulenceProperties:devReff;
}
// * * * * * * * * * * * * * * * * * * * * * * * * * * * * * * * * * * * * * //

dimensions      [0 2 -2 0 0 0 0];

internalField   nonuniform List<symmTensor> 
11040
(
(0.0194032 0.0553046 4.79465e-22 -0.0253105 3.0977e-21 0.00590736)
(0.081316 0.0687909 8.4468e-21 -0.096295 8.74663e-20 0.0149791)
(0.0810818 0.0329015 2.61773e-20 -0.0859902 2.26449e-19 0.00490842)
(0.00592513 0.00170646 -1.49928e-20 -0.00499926 1.18945e-20 -0.000925876)
(-0.000591403 0.00558681 -1.10075e-20 -0.000340197 6.10267e-20 0.000931601)
(-0.0475945 0.0451519 -2.67012e-19 0.0502603 9.05018e-20 -0.00266576)
(-0.0493936 0.0582008 1.62787e-19 0.0511278 -1.09435e-18 -0.00173418)
(-0.047392 0.0665542 2.39403e-19 0.0487824 -1.20317e-19 -0.00139042)
(-0.0399564 0.0654534 1.02983e-19 0.0409521 -2.69182e-20 -0.000995698)
(-0.0341309 0.0655272 9.83454e-20 0.0348885 1.54682e-19 -0.00075755)
(-0.028225 0.0626866 -8.48685e-20 0.0289575 3.52242e-19 -0.000732519)
(-0.0226688 0.0584723 -1.20559e-19 0.0233138 2.81324e-19 -0.00064509)
(-0.0181213 0.0542337 2.24285e-20 0.0188257 -1.49282e-19 -0.000704378)
(-0.0140876 0.0493851 2.4484e-20 0.0148588 1.51334e-19 -0.000771206)
(-0.0107062 0.0448925 -1.0717e-20 0.0115418 7.07066e-21 -0.000835537)
(-0.00794086 0.0418393 -3.14518e-21 0.00875043 -1.75345e-19 -0.000809569)
(-0.00557987 0.0406909 4.80552e-20 0.00620253 7.54969e-22 -0.000622669)
(-0.00354101 0.0415832 -5.12327e-21 0.00387196 3.17304e-19 -0.000330942)
(-0.00177379 0.0429751 -2.73407e-20 0.00183216 2.52493e-21 -5.83755e-05)
(-0.000661248 0.0416833 4.65474e-21 0.000790216 -4.46636e-20 -0.000128968)
(-0.000403401 0.0319629 1.93081e-20 0.000850082 3.3427e-20 -0.000446681)
(-0.000836211 0.0155521 -1.38537e-20 0.00148135 7.45648e-20 -0.000645141)
(-0.0020647 0.00815217 -7.10529e-22 0.00304029 -9.13287e-20 -0.000975592)
(-0.00354598 -0.00222523 1.16222e-20 0.00462608 1.79217e-19 -0.0010801)
(-0.00455013 -0.0122156 -5.47523e-20 0.00541502 -1.51901e-19 -0.00086489)
(-0.0043455 -0.0171072 -1.9988e-20 0.00480151 -2.70984e-19 -0.000456013)
(-0.0035979 -0.0183398 -1.29631e-21 0.00392627 -1.21973e-19 -0.000328369)
(-0.00121871 -0.00995092 -8.20123e-21 0.00137215 -3.81111e-21 -0.000153444)
(0.000249488 -0.00275739 -1.5617e-20 -0.000170365 -7.05371e-20 -7.91228e-05)
(0.00138863 0.00196031 2.20573e-22 -0.00140402 -1.04035e-19 1.5393e-05)
(0.0160199 0.0366656 1.05949e-19 -0.0167015 2.80617e-19 0.000681595)
(0.0323224 0.0890722 -1.46909e-20 -0.0327641 3.21423e-20 0.000441702)
(0.0418973 0.130053 4.94959e-20 -0.0415728 8.42581e-19 -0.000324529)
(0.0426128 0.141124 -9.35343e-20 -0.0418355 4.89064e-19 -0.000777244)
(0.0356463 0.124676 -2.43049e-21 -0.0342144 7.35102e-21 -0.00143198)
(0.0242677 0.0928484 4.86805e-20 -0.0223441 4.99665e-19 -0.00192361)
(0.0121581 0.0588985 -5.88386e-21 -0.0098874 1.072e-19 -0.0022707)
(0.00108741 0.0339277 -7.41862e-21 0.00182474 2.80125e-19 -0.00291215)
(-0.0143205 0.00238479 -1.75381e-19 0.0173902 -4.53647e-19 -0.00306966)
(-0.0281536 -0.042666 1.46579e-20 0.0319483 -2.78528e-19 -0.00379463)
(-0.0565271 -0.0475569 5.00417e-20 0.060131 1.73794e-20 -0.00360391)
(0.00550806 -0.00637453 1.62814e-22 -0.0041667 -9.56723e-22 -0.00134135)
(0.00722481 -0.00779406 1.5412e-20 -0.00302485 1.3821e-21 -0.00419996)
(0.0412455 0.00674727 -5.8381e-20 -0.0359345 -3.02406e-19 -0.00531102)
(0.0826048 0.0120342 1.66345e-20 -0.0862231 -9.27979e-20 0.00361834)
(0.129824 -0.0106692 2.36124e-20 -0.128887 -1.72225e-19 -0.000937593)
(0.280495 -0.104898 5.43111e-19 -0.287324 -1.41301e-18 0.00682921)
(0.119431 -0.100582 -9.55358e-19 -0.123713 3.75029e-18 0.00428239)
(0.0510025 -0.0555354 -1.03646e-18 -0.0516026 2.66677e-18 0.000600028)
(0.0251484 -0.034048 -7.96121e-20 -0.027211 -2.67842e-19 0.00206257)
(0.0156969 -0.0241164 -1.30188e-19 -0.0180801 4.12274e-20 0.00238318)
(0.00922255 -0.0168036 5.33419e-19 -0.0113292 -1.30598e-18 0.00210664)
(0.00571767 -0.0119576 -1.44123e-20 -0.00785354 -1.00672e-19 0.00213587)
(0.00367694 -0.00868522 -1.87969e-19 -0.00581883 7.45266e-19 0.0021419)
(0.0024316 -0.00647734 -1.26206e-19 -0.0044734 3.02319e-20 0.00204181)
(0.00161051 -0.00516409 -4.97974e-20 -0.00328051 -1.81312e-19 0.00167001)
(0.00106426 -0.0046409 1.0926e-20 -0.00210692 6.3669e-19 0.00104266)
(0.000721635 -0.00449445 -1.47513e-20 -0.00111333 2.14581e-19 0.000391697)
(0.000509299 -0.0045436 -8.4194e-21 -0.000605314 -6.06401e-19 9.60153e-05)
(0.000274215 -0.00463251 -2.79287e-20 -0.000822301 -2.88528e-20 0.000548087)
(-0.000545773 -0.00500096 -8.43716e-21 -0.00113435 9.99725e-20 0.00168012)
(-0.00231746 -0.00558272 -1.47095e-20 -0.000936868 -4.68496e-20 0.00325432)
(-0.00535024 -0.00672738 3.05666e-20 0.00115423 -4.82008e-19 0.00419601)
(-0.00883058 -0.00808509 6.33947e-20 0.00467772 7.64757e-19 0.00415285)
(-0.0109255 -0.00878494 -7.80775e-20 0.00780214 -7.89593e-19 0.00312339)
(-0.00951893 -0.00760998 1.93089e-20 0.00775213 6.29703e-19 0.0017668)
(-0.0051783 -0.00540321 8.46511e-20 0.00425955 1.39623e-18 0.000918754)
(-0.000121381 -0.00427775 1.47777e-19 -0.000583376 6.68779e-19 0.000704757)
(0.00442564 -0.00919378 7.3768e-20 -0.00530631 2.9459e-19 0.000880667)
(0.00976073 -0.012005 -3.98346e-20 -0.0100088 5.19691e-19 0.00024808)
(0.013037 0.00175139 5.34745e-20 -0.0122238 6.67463e-19 -0.000813191)
(0.0188285 0.0100398 -9.45764e-20 -0.0180284 -8.21385e-19 -0.000800094)
(0.0104239 -0.0043389 -1.54782e-20 -0.0109418 -1.09009e-18 0.000517859)
(-0.00169601 -0.0217892 -5.32741e-20 -0.000478089 -2.41657e-18 0.0021741)
(-0.0124259 -0.0331513 9.98403e-20 0.00826426 -1.16705e-18 0.0041616)
(-0.0229382 -0.0404561 -6.34196e-20 0.0167431 9.88787e-20 0.00619512)
(-0.0345029 -0.0479219 -2.1303e-19 0.0261118 -2.75327e-18 0.00839111)
(-0.0469244 -0.0549011 -6.66622e-20 0.0369814 -2.12184e-19 0.009943)
(-0.0612091 -0.0652002 -2.72833e-19 0.0502899 -1.21351e-18 0.0109192)
(-0.0799801 -0.075638 4.74145e-19 0.068256 2.09092e-18 0.0117241)
(-0.0754307 -0.0741354 2.71557e-19 0.0696829 1.34968e-18 0.0057477)
(-0.127439 -0.185695 -3.12101e-19 0.0900973 -1.43768e-19 0.0373414)
(0.00248018 -0.00389417 -4.34855e-22 -0.00254332 -8.93784e-22 6.31336e-05)
(-0.00118985 -0.00345709 -9.99494e-21 0.00101087 -1.77602e-20 0.00017898)
(0.000341097 -0.00173738 2.28469e-20 -0.00021131 6.05934e-20 -0.000129787)
(0.0195578 0.00296862 7.46634e-20 -0.0192605 8.2771e-20 -0.000297262)
(0.0592816 0.00280265 -8.67777e-21 -0.060305 -1.42839e-20 0.00102339)
(0.268028 -0.0362692 -9.74172e-20 -0.269501 4.59796e-19 0.00147297)
(0.388051 -0.134951 2.27167e-19 -0.388035 2.63399e-19 -1.59536e-05)
(0.257018 -0.185641 1.90574e-19 -0.262552 -2.06096e-18 0.00553427)
(0.11105 -0.125734 -3.13022e-19 -0.106764 -6.43178e-20 -0.00428577)
(0.0591939 -0.086957 3.23071e-19 -0.0570156 -9.04607e-19 -0.00217825)
(0.0323006 -0.0600322 -5.68941e-19 -0.0312595 1.35252e-18 -0.00104108)
(0.0179277 -0.0442858 8.7803e-19 -0.017329 -2.41283e-18 -0.000598622)
(0.00999827 -0.0335121 -3.29218e-20 -0.00968859 -7.66677e-20 -0.000309684)
(0.00567105 -0.0262537 1.73862e-19 -0.00598373 -1.02199e-18 0.000312675)
(0.00350603 -0.0209668 2.88923e-20 -0.00435868 1.07296e-18 0.000852658)
(0.00261781 -0.0179504 -8.66526e-20 -0.00350167 -4.14007e-19 0.000883857)
(0.00208566 -0.0163946 -1.65032e-21 -0.00234763 -7.07663e-19 0.000261971)
(0.00108223 -0.0155503 5.13275e-20 -0.000426595 -5.19612e-19 -0.000655631)
(-0.00108133 -0.0144176 2.27655e-20 0.00225851 -3.0844e-20 -0.00117718)
(-0.005083 -0.0124682 2.86487e-20 0.00595969 3.50545e-20 -0.000876697)
(-0.0108803 -0.00935615 5.71356e-21 0.0105193 1.11064e-19 0.000361074)
(-0.0176996 -0.00534172 -4.31752e-20 0.0163182 2.12595e-19 0.00138137)
(-0.0235944 -0.00132026 -5.68195e-20 0.0218173 -6.35671e-19 0.00177708)
(-0.0252488 0.00304908 -4.28253e-20 0.0238097 -2.28842e-19 0.00143907)
(-0.019953 0.00609967 4.71045e-20 0.0191882 -3.16182e-19 0.00076479)
(-0.00924734 0.00802491 1.4315e-19 0.00891163 -2.30101e-19 0.000335711)
(0.00235663 0.00939322 -1.07228e-19 -0.00247243 2.97115e-19 0.000115805)
(0.0140664 0.00930962 -2.40489e-19 -0.0144684 -1.06173e-18 0.000402094)
(0.0294168 0.00278904 1.0063e-19 -0.0291376 1.5058e-19 -0.000279239)
(0.0317205 0.000882004 1.50651e-19 -0.0310872 7.07135e-19 -0.000633352)
(0.0313886 -0.0125016 -8.30518e-20 -0.0312616 5.01156e-19 -0.000127008)
(0.0101929 -0.0353385 3.22613e-19 -0.0102051 2.01602e-18 1.21909e-05)
(-0.0089638 -0.0436004 9.86565e-20 0.00985468 7.42026e-19 -0.000890879)
(-0.031194 -0.0474158 -4.56475e-19 0.0318074 7.97364e-19 -0.000613453)
(-0.0550043 -0.0504776 -3.24039e-19 0.054765 -7.39165e-19 0.000239274)
(-0.0788591 -0.0511677 2.92593e-19 0.0774265 1.37458e-18 0.00143256)
(-0.103092 -0.0497369 2.469e-19 0.100584 -1.2671e-18 0.00250797)
(-0.126619 -0.048977 3.15237e-19 0.123228 9.22145e-19 0.00339191)
(-0.154354 -0.0497479 -1.75457e-19 0.148978 -3.70975e-19 0.00537615)
(-0.148635 -0.0372447 1.50032e-19 0.150258 -1.79522e-19 -0.00162242)
(-0.206566 -0.128921 4.86581e-19 0.198699 3.81347e-19 0.00786703)
(0.001925 -0.00269878 -1.36737e-22 -0.00194197 -6.61448e-22 1.69733e-05)
(-0.000312362 -0.00257665 -4.25097e-22 0.000140074 2.66105e-21 0.000172288)
(-0.00143067 -0.00182942 -1.27037e-20 0.00127401 -2.21802e-20 0.000156659)
(-0.000662389 -0.0011055 -2.90817e-20 0.000659139 -4.04433e-20 3.2509e-06)
(0.00575533 0.000389941 8.38068e-21 -0.00567535 7.63241e-21 -7.99763e-05)
(0.0552927 -0.00059397 8.49338e-20 -0.0555963 5.62194e-20 0.000303593)
(0.244541 -0.0388582 5.89076e-20 -0.247797 -3.95662e-19 0.00325583)
(0.431775 -0.141785 4.77025e-19 -0.430883 -9.10024e-19 -0.000892148)
(0.382997 -0.229964 -3.5918e-19 -0.387962 9.35926e-19 0.004965)
(0.199198 -0.198894 1.55565e-19 -0.20087 2.73896e-19 0.00167167)
(0.0993367 -0.133694 -2.86145e-19 -0.095933 1.35352e-18 -0.00340371)
(0.0555758 -0.0972512 -7.13423e-19 -0.0544999 1.33936e-18 -0.00107596)
(0.0312117 -0.0719488 5.4098e-19 -0.0305663 -1.05078e-18 -0.00064542)
(0.0167016 -0.0547729 -8.3289e-20 -0.0165127 9.78397e-19 -0.000188942)
(0.00912897 -0.0421753 -2.0428e-19 -0.00958487 -1.19141e-18 0.000455901)
(0.00608633 -0.0346387 -1.3316e-19 -0.00700703 -5.06575e-19 0.000920695)
(0.00521775 -0.0304444 4.5594e-20 -0.00590436 2.56922e-19 0.000686615)
(0.00431046 -0.0277905 1.2798e-19 -0.00420881 1.19441e-20 -0.000101654)
(0.00119845 -0.0244613 3.73292e-20 -0.000370976 6.23235e-20 -0.000827478)
(-0.00551134 -0.0188758 -1.30337e-20 0.00617288 -8.68518e-20 -0.000661536)
(-0.0160226 -0.0104373 -2.92667e-20 0.0157309 -2.17447e-19 0.000291618)
(-0.0279914 0.000276881 1.44909e-20 0.0271222 -3.04173e-19 0.000869198)
(-0.0379416 0.0107851 1.57884e-20 0.0371464 -1.28651e-19 0.000795218)
(-0.0408408 0.0206446 -1.85283e-20 0.0403547 1.3124e-19 0.000486143)
(-0.0323237 0.0258353 -1.46018e-19 0.0323124 7.48477e-19 1.12713e-05)
(-0.0138918 0.0275545 -1.42595e-19 0.0141727 -7.9137e-19 -0.000280927)
(0.00768422 0.0273729 1.74298e-19 -0.00747737 -6.74943e-19 -0.000206852)
(0.0292126 0.0278892 2.37309e-19 -0.0297255 1.32455e-18 0.000512892)
(0.0576489 0.0233701 1.14936e-19 -0.057117 3.0332e-19 -0.000531961)
(0.056874 0.00626364 -2.00716e-19 -0.0566769 -2.85237e-19 -0.000197105)
(0.0504243 -0.0217064 4.41119e-20 -0.0511256 -7.76191e-19 0.000701256)
(0.0222259 -0.038736 -3.52122e-19 -0.0230365 5.39013e-19 0.000810676)
(-0.00604632 -0.0477449 4.99175e-19 0.00634199 -5.65232e-19 -0.000295673)
(-0.0439835 -0.0496585 5.01172e-19 0.0440303 -1.19012e-18 -4.67713e-05)
(-0.0834526 -0.0453897 4.21745e-19 0.0830434 6.20648e-19 0.000409143)
(-0.122551 -0.0358143 2.98583e-19 0.121867 1.25576e-18 0.000683605)
(-0.161443 -0.0217836 2.17669e-19 0.160564 1.13529e-18 0.000879452)
(-0.197166 -0.00455857 -2.3631e-19 0.196406 -1.20358e-18 0.000760559)
(-0.236167 0.00699015 -1.18707e-19 0.23285 -2.32094e-19 0.0033169)
(-0.238497 0.0337789 2.86336e-19 0.243882 -7.1547e-19 -0.00538554)
(-0.288659 -0.0599175 -3.02701e-19 0.277362 -1.63533e-19 0.0112973)
(0.0015018 -0.00188082 1.63809e-21 -0.0014902 2.98177e-21 -1.16007e-05)
(0.000273358 -0.00212966 -2.55617e-21 -0.000203297 -4.12494e-21 -7.00613e-05)
(-0.000679349 -0.00173624 1.22412e-20 0.000724727 1.92147e-20 -4.53784e-05)
(-0.00126454 -0.00127235 1.71133e-20 0.00125833 2.2711e-20 6.21004e-06)
(-0.000691661 -0.000632279 -1.95602e-20 0.000693228 -2.2354e-20 -1.56675e-06)
(0.00164629 -5.64451e-05 2.87513e-21 -0.00161705 -3.26339e-23 -2.92407e-05)
(0.0317639 -0.00154002 -1.44699e-20 -0.0317663 -1.15449e-20 2.40594e-06)
(0.175557 -0.0297312 -1.54058e-19 -0.177069 -3.6036e-20 0.00151198)
(0.402477 -0.129308 2.03782e-19 -0.404379 -1.19924e-19 0.00190156)
(0.45866 -0.240031 -4.22994e-21 -0.459777 5.16161e-19 0.00111756)
(0.310094 -0.263166 4.65378e-19 -0.315642 -1.64722e-18 0.00554843)
(0.158838 -0.196523 -2.96279e-19 -0.157926 3.00489e-19 -0.000911342)
(0.0855946 -0.138968 -3.07461e-19 -0.0832235 2.69913e-19 -0.00237111)
(0.0477065 -0.10345 3.51886e-19 -0.0469582 -2.76046e-18 -0.000748318)
(0.0261062 -0.0790955 2.68718e-19 -0.0261276 3.31043e-19 2.1406e-05)
(0.0150394 -0.0625577 1.95794e-19 -0.0156642 1.53381e-19 0.000624765)
(0.0111462 -0.0525076 -1.55463e-19 -0.0117688 6.90857e-19 0.000622561)
(0.00996277 -0.0465243 -3.26917e-20 -0.00987841 1.44696e-19 -8.43562e-05)
(0.00657817 -0.0404478 4.8541e-20 -0.00570241 -7.30016e-20 -0.000875754)
(-0.00234784 -0.0302721 4.28407e-20 0.00278902 5.67137e-20 -0.000441172)
(-0.0177737 -0.0146846 -1.48188e-21 0.0169939 2.39864e-19 0.000779779)
(-0.0357199 0.00465237 -8.90778e-20 0.0344891 2.24797e-19 0.00123085)
(-0.0506107 0.0226107 7.57996e-20 0.0499622 1.88872e-19 0.000648444)
(-0.0563378 0.0381323 2.12878e-19 0.0562256 3.70975e-19 0.000112214)
(-0.0462026 0.0462448 6.0921e-20 0.0466762 -1.82085e-19 -0.000473557)
(-0.0198318 0.0482234 4.99041e-20 0.0207394 2.00397e-18 -0.000907548)
(0.0153072 0.0458248 4.72426e-20 -0.0148586 -2.57948e-20 -0.000448575)
(0.0514135 0.0437327 9.41426e-21 -0.0524769 -7.3845e-19 0.00106343)
(0.0925764 0.0414564 -3.77332e-19 -0.0922056 -1.1367e-18 -0.000370779)
(0.0839557 0.012904 7.48104e-20 -0.0834996 -4.46675e-19 -0.000456171)
(0.0702348 -0.0200789 1.32808e-19 -0.0709878 1.18458e-18 0.000752925)
(0.0383092 -0.0342565 2.01331e-19 -0.0399099 -8.33091e-19 0.00160072)
(-0.00144254 -0.0474672 -3.48497e-19 0.000975814 2.62292e-18 0.000466727)
(-0.0569154 -0.0456594 -8.75056e-19 0.0560015 1.41207e-19 0.000913908)
(-0.114701 -0.0321176 -3.74554e-19 0.113137 4.60392e-19 0.0015645)
(-0.171584 -0.00923639 -4.22029e-19 0.170132 5.23749e-19 0.00145262)
(-0.226908 0.0203134 -6.25155e-20 0.225559 4.413e-20 0.00134947)
(-0.277499 0.0567952 5.49797e-20 0.276922 2.14211e-21 0.000576896)
(-0.330026 0.0827282 -9.49911e-20 0.326106 7.97967e-19 0.00392092)
(-0.351903 0.126457 -7.36858e-19 0.358088 2.24705e-20 -0.0061853)
(-0.406088 0.0430231 9.52994e-19 0.392404 -5.89912e-19 0.0136833)
(0.00112456 -0.00125036 -1.66058e-21 -0.00111927 -2.20332e-21 -5.28694e-06)
(0.000342178 -0.00150016 8.08408e-21 -0.000333315 9.96151e-21 -8.86359e-06)
(-0.000285307 -0.00136601 -4.26589e-21 0.000295828 -6.79822e-21 -1.05205e-05)
(-0.000757287 -0.00105899 -3.51494e-21 0.000759708 -7.07859e-21 -2.42093e-06)
(-0.00107085 -0.000789913 3.40965e-21 0.00105765 6.15158e-21 1.32038e-05)
(-0.000619727 -0.000357779 -2.39839e-21 0.000613253 -1.81923e-21 6.47396e-06)
(0.000381855 -8.65144e-05 -2.45934e-21 -0.000371674 -2.16795e-21 -1.01807e-05)
(0.0113202 -0.000874399 -4.89312e-21 -0.0112573 4.65641e-21 -6.291e-05)
(0.104952 -0.0186878 -1.35434e-20 -0.105279 1.25215e-21 0.000327111)
(0.309659 -0.0957338 -3.1435e-19 -0.311422 -3.62715e-19 0.00176298)
(0.465393 -0.220529 -6.47042e-20 -0.466312 -1.63275e-19 0.000918517)
(0.408083 -0.295076 2.95068e-19 -0.412425 -1.64886e-19 0.0043423)
(0.246608 -0.266985 -6.39163e-19 -0.250454 1.23211e-19 0.00384517)
(0.131155 -0.195154 1.6964e-19 -0.129408 9.29114e-19 -0.00174679)
(0.0720982 -0.142965 2.65785e-19 -0.0708526 4.7666e-19 -0.00124556)
(0.0406583 -0.109318 -3.5028e-19 -0.0409571 -8.41797e-20 0.000298787)
(0.0259369 -0.0891519 1.88406e-19 -0.0265417 -1.08259e-18 0.00060484)
(0.021138 -0.0777064 -4.77556e-20 -0.0208951 6.67956e-19 -0.000242837)
(0.0173121 -0.0677995 7.22714e-20 -0.015963 -1.24556e-19 -0.00134914)
(0.00699372 -0.052462 5.32855e-20 -0.00625436 2.17741e-19 -0.000739364)
(-0.0131474 -0.0286922 -6.05705e-20 0.0120602 -2.90111e-19 0.00108726)
(-0.0379006 0.00149562 1.51748e-20 0.0359847 1.55803e-20 0.00191598)
(-0.0588894 0.0283644 3.67537e-20 0.0579014 6.33191e-20 0.000988008)
(-0.0694404 0.0489594 -2.50924e-19 0.0694755 -3.08225e-19 -3.50456e-05)
(-0.0605683 0.060274 3.96216e-20 0.0614991 -5.88126e-19 -0.000930773)
(-0.0278842 0.0629161 2.88494e-19 0.0293471 -4.71285e-19 -0.00146292)
(0.0239066 0.057629 -4.66438e-19 -0.0232322 -4.69476e-19 -0.000674348)
(0.0786347 0.0494436 -3.95587e-19 -0.0801683 -8.21277e-19 0.00153353)
(0.1231 0.0461908 3.18147e-19 -0.123395 -1.40273e-19 0.000294765)
(0.107149 0.0144383 2.61877e-19 -0.106014 8.49038e-19 -0.0011352)
(0.0855384 -0.0139316 -2.42673e-19 -0.0860696 -4.50498e-19 0.000531206)
(0.0537552 -0.0283975 -3.80735e-19 -0.0557225 4.97582e-19 0.00196736)
(0.00298864 -0.0458652 -1.05422e-19 -0.00393916 -2.77615e-18 0.000950517)
(-0.0704062 -0.0402117 8.32438e-19 0.0686458 -1.68398e-18 0.0017604)
(-0.149052 -0.0164035 5.58884e-19 0.14632 -1.38735e-18 0.00273209)
(-0.226379 0.0218145 -1.43525e-19 0.223778 -4.66522e-20 0.00260131)
(-0.300244 0.0689679 6.00484e-20 0.297931 9.66416e-19 0.00231319)
(-0.368812 0.125807 7.28841e-20 0.36761 -6.693e-19 0.00120188)
(-0.437595 0.168994 3.46914e-19 0.432759 -1.02127e-19 0.00483617)
(-0.489585 0.231446 -1.79484e-19 0.494647 4.96685e-19 -0.00506181)
(-0.553742 0.178967 -1.31533e-18 0.540734 4.06228e-19 0.0130079)
(0.000831821 -0.000844059 -3.46093e-22 -0.000831702 -5.40779e-22 -1.18609e-07)
(0.000393401 -0.00106234 6.78464e-22 -0.00038497 9.29306e-22 -8.43168e-06)
(-4.55616e-05 -0.00107321 -3.96578e-21 5.05229e-05 -4.31918e-21 -4.9613e-06)
(-0.000400952 -0.000902416 -5.97034e-21 0.000405103 -5.96905e-21 -4.1514e-06)
(-0.000675773 -0.000680753 -2.118e-21 0.000677881 -1.86594e-21 -2.10786e-06)
(-0.000854921 -0.000488768 8.17404e-21 0.000849047 8.78372e-21 5.87407e-06)
(-0.000547633 -0.000225113 -1.7901e-21 0.000539863 -2.20906e-21 7.76975e-06)
(1.95956e-06 -8.24749e-05 1.51197e-21 -5.76353e-07 1.33238e-21 -1.38321e-06)
(0.00152265 -0.000173526 9.93403e-21 -0.00150719 7.5876e-21 -1.54526e-05)
(0.0492175 -0.0089364 -2.55884e-20 -0.0491332 2.07359e-20 -8.42793e-05)
(0.197816 -0.0582019 3.34797e-19 -0.198513 3.04523e-19 0.000697599)
(0.392479 -0.170521 -3.25923e-19 -0.394112 -5.02049e-19 0.00163321)
(0.453582 -0.283637 4.69922e-19 -0.456034 4.11198e-19 0.00245129)
(0.343324 -0.314623 -5.11361e-19 -0.348818 6.41587e-19 0.00549368)
(0.200584 -0.262362 2.24001e-19 -0.202939 -1.23521e-18 0.00235522)
(0.110127 -0.19545 -1.88588e-19 -0.109379 7.09312e-19 -0.000747796)
(0.0645093 -0.150736 -5.34139e-20 -0.064536 8.11366e-19 2.66758e-05)
(0.0448258 -0.125542 2.63701e-19 -0.0445685 4.4616e-19 -0.000257315)
(0.0368563 -0.110718 -1.15052e-19 -0.035073 4.00281e-19 -0.00178337)
(0.0263891 -0.0926807 2.46e-20 -0.024788 -1.23674e-18 -0.00160104)
(0.00287779 -0.0601224 1.24846e-20 -0.0037188 5.06563e-19 0.00084101)
(-0.0289785 -0.0170199 -1.08124e-19 0.026316 -2.52477e-20 0.0026625)
(-0.0579526 0.0211472 5.27641e-20 0.056112 -3.64505e-19 0.0018406)
(-0.0756829 0.0466853 1.89685e-19 0.075673 -7.76454e-20 9.96141e-06)
(-0.0722359 0.0601058 -3.55278e-20 0.0737478 8.08316e-19 -0.00151193)
(-0.0379406 0.0626525 -4.20005e-19 0.0399215 -8.27699e-19 -0.00198098)
(0.0305239 0.0518505 7.57038e-20 -0.0293831 -5.41183e-19 -0.00114075)
(0.103525 0.0343583 3.76678e-19 -0.105529 1.37771e-18 0.00200447)
(0.142035 0.0286691 1.05592e-19 -0.142791 1.17458e-18 0.000755823)
(0.11803 0.00351299 -6.81191e-20 -0.115971 -1.43532e-19 -0.00205858)
(0.0913466 -0.0109472 -9.76636e-21 -0.0917417 -7.62736e-19 0.000395127)
(0.0644699 -0.0260445 -2.80921e-19 -0.0665494 -1.58274e-19 0.00207956)
(0.00595008 -0.0461966 -1.79288e-19 -0.00722294 1.27016e-18 0.00127286)
(-0.0833695 -0.0370561 1.09971e-19 0.0808832 1.92289e-18 0.00248637)
(-0.183895 -0.00265708 1.11839e-18 0.180195 6.69134e-19 0.00369949)
(-0.283732 0.0520563 1.50584e-19 0.279931 -7.56394e-19 0.00380111)
(-0.378112 0.118394 -9.42492e-19 0.374911 -8.16797e-19 0.00320055)
(-0.467036 0.195716 -2.68435e-19 0.464974 2.60918e-19 0.0020627)
(-0.553923 0.259678 2.11683e-19 0.548753 -1.09975e-18 0.00517023)
(-0.642155 0.34098 -8.62794e-20 0.644162 2.47724e-19 -0.00200761)
(-0.717728 0.33865 7.35376e-20 0.707963 5.80762e-19 0.00976506)
(0.000621124 -0.000579832 -6.96858e-23 -0.000622071 2.0976e-23 9.46769e-07)
(0.000359186 -0.000743533 -1.57939e-21 -0.000354136 -1.6794e-21 -5.0496e-06)
(8.36558e-05 -0.000805261 1.5639e-21 -7.89392e-05 1.45188e-21 -4.71658e-06)
(-0.000182181 -0.000757763 6.88131e-21 0.000185478 7.36433e-21 -3.29673e-06)
(-0.000392152 -0.000607746 1.26008e-21 0.000394445 1.43437e-21 -2.29366e-06)
(-0.00055118 -0.000437039 1.09436e-21 0.000553158 1.22415e-22 -1.97776e-06)
(-0.000680235 -0.00030765 -1.29667e-20 0.000677688 -1.12321e-20 2.5468e-06)
(-0.000475677 -0.000147499 -6.70732e-22 0.000469482 -3.76101e-22 6.19482e-06)
(-0.000172888 -7.0131e-05 -2.24036e-21 0.000170125 -2.2808e-21 2.76336e-06)
(0.000347629 -6.7466e-05 4.31825e-21 -0.000343141 3.72737e-21 -4.48756e-06)
(0.01498 -0.00274506 -4.50803e-20 -0.0148849 -5.12283e-20 -9.50689e-05)
(0.101295 -0.027791 -1.15902e-19 -0.10131 4.8637e-23 1.54939e-05)
(0.272796 -0.107804 3.97935e-19 -0.273923 1.46955e-20 0.00112731)
(0.418637 -0.229917 -4.38368e-19 -0.420674 -2.62871e-19 0.00203764)
(0.410415 -0.316367 3.20531e-19 -0.414377 2.9625e-19 0.00396234)
(0.287016 -0.316266 4.58291e-19 -0.292373 3.3691e-19 0.00535696)
(0.168843 -0.259596 -4.77265e-20 -0.17082 7.60426e-19 0.00197784)
(0.102503 -0.206295 -3.782e-19 -0.101865 2.63333e-19 -0.000638197)
(0.0741585 -0.174827 -5.53538e-19 -0.0718982 -4.07726e-20 -0.00226032)
(0.0592072 -0.151621 2.25811e-19 -0.0563231 -7.05545e-19 -0.00288411)
(0.0362663 -0.11571 3.96252e-19 -0.0361771 9.71445e-19 -8.92904e-05)
(-0.000277618 -0.061178 -3.79147e-19 -0.00300205 -1.95134e-19 0.00327967)
(-0.0391538 -0.00784629 7.69123e-20 0.0357991 3.09763e-19 0.00335478)
(-0.0676898 0.0253036 5.90954e-20 0.0670637 2.17656e-19 0.000626136)
(-0.0752375 0.0385596 -1.06629e-20 0.0774576 -2.62881e-19 -0.00222011)
(-0.0468469 0.035922 -3.39354e-20 0.0496404 5.21357e-19 -0.00279352)
(0.0301836 0.0150337 2.11004e-19 -0.0286334 1.46823e-18 -0.00155023)
(0.115396 -0.0114222 3.4946e-19 -0.117773 -4.70232e-19 0.00237683)
(0.140227 -0.0193058 -7.58578e-20 -0.140773 1.58836e-19 0.000546686)
(0.108098 -0.0286333 -5.62678e-19 -0.105022 -6.01601e-19 -0.00307574)
(0.0836979 -0.0219884 6.73329e-20 -0.0839845 -1.93787e-19 0.000286585)
(0.0662461 -0.0340287 4.14818e-19 -0.0681849 -9.12879e-19 0.00193885)
(0.00633738 -0.0526889 5.06234e-19 -0.0078781 2.77675e-19 0.00154072)
(-0.0936044 -0.0392092 -3.72565e-19 0.0905737 -1.19864e-19 0.00303072)
(-0.213667 0.00608978 -6.96963e-19 0.209126 1.18524e-18 0.00454043)
(-0.336362 0.0779029 -4.22791e-19 0.331397 -1.00644e-18 0.00496538)
(-0.452129 0.164763 5.45667e-19 0.44788 2.96553e-19 0.00424874)
(-0.562263 0.262669 2.25468e-19 0.559186 -2.33692e-19 0.00307733)
(-0.666833 0.350491 -1.58472e-19 0.661962 7.41217e-20 0.00487098)
(-0.789981 0.449293 6.32025e-19 0.787424 -1.30316e-18 0.0025573)
(-0.874676 0.506267 3.85892e-20 0.870014 1.41301e-19 0.00466207)
(0.000464997 -0.000403523 -2.4082e-22 -0.00046597 -2.86416e-23 9.72756e-07)
(0.000302679 -0.000522261 -1.28049e-21 -0.000300341 -1.68991e-21 -2.33777e-06)
(0.000130724 -0.000584706 5.3289e-21 -0.000128137 4.89046e-21 -2.58732e-06)
(-4.96314e-05 -0.000590783 -8.07519e-22 5.19302e-05 -5.94073e-22 -2.29883e-06)
(-0.000216071 -0.000531223 1.87254e-21 0.000216849 1.41099e-21 -7.77495e-07)
(-0.000340204 -0.000410971 -1.54065e-21 0.000340328 -1.21881e-21 -1.23828e-07)
(-0.000438361 -0.000285473 4.36267e-21 0.000439705 4.73769e-21 -1.34368e-06)
(-0.000523438 -0.00018761 5.21271e-21 0.000524014 3.44696e-21 -5.75255e-07)
(-0.000409066 -9.47803e-05 7.0612e-23 0.000405867 1.07409e-21 3.19905e-06)
(-0.000236935 -5.17637e-05 4.18543e-21 0.00023325 2.91676e-21 3.68485e-06)
(6.58757e-05 -5.36835e-05 6.21682e-22 -6.50656e-05 6.31737e-22 -8.10098e-07)
(0.00163554 -0.000315346 -9.03063e-21 -0.00161954 -5.5802e-21 -1.60092e-05)
(0.0393374 -0.00986253 -7.81732e-21 -0.039203 -3.92992e-20 -0.000134478)
(0.154987 -0.0545753 1.40098e-19 -0.155268 2.06064e-19 0.000280737)
(0.319256 -0.153795 -7.69598e-19 -0.320642 -5.44294e-19 0.00138652)
(0.411044 -0.269043 4.42167e-19 -0.413571 2.53324e-19 0.00252771)
(0.363142 -0.331109 9.44112e-20 -0.36807 -9.60245e-19 0.00492795)
(0.248504 -0.319304 3.48144e-19 -0.253021 3.0747e-19 0.00451674)
(0.160216 -0.274481 -5.7262e-19 -0.159511 -8.28081e-19 -0.000704991)
(0.116463 -0.235225 1.95773e-19 -0.112285 1.14337e-18 -0.00417762)
(0.089014 -0.194886 2.29581e-19 -0.0861545 -7.70307e-19 -0.00285947)
(0.0557497 -0.136872 -3.44413e-19 -0.0584272 4.60786e-19 0.00267752)
(0.0109448 -0.0711634 1.73857e-19 -0.0164958 -3.41958e-20 0.00555102)
(-0.0338651 -0.0242742 5.33751e-20 0.031296 -8.23703e-20 0.00256914)
(-0.0597628 -0.0104845 -9.52974e-21 0.0621395 5.55124e-19 -0.00237672)
(-0.0487675 -0.0236594 2.9087e-19 0.0527263 -2.77302e-19 -0.00395889)
(0.0185719 -0.0606785 -3.46248e-19 -0.0166682 -1.64675e-19 -0.00190375)
(0.100956 -0.0961881 -4.39558e-19 -0.102747 1.0997e-19 0.00179111)
(0.110235 -0.101793 -1.37771e-19 -0.109765 -8.334e-19 -0.000470074)
(0.0747505 -0.0919995 4.23148e-19 -0.0707769 -2.51446e-19 -0.00397359)
(0.0607488 -0.0611705 1.86274e-19 -0.0606295 7.12522e-19 -0.000119305)
(0.0566469 -0.0620372 1.86167e-19 -0.0581237 6.10285e-19 0.00147673)
(0.0040007 -0.0713437 -4.9194e-19 -0.00560118 3.25505e-19 0.00160049)
(-0.0972613 -0.0497848 2.91489e-19 0.0938981 -1.09478e-18 0.00336327)
(-0.230044 0.00790569 2.387e-19 0.224911 -8.53305e-20 0.00513291)
(-0.372241 0.0972071 7.58651e-19 0.366102 3.21277e-19 0.00613882)
(-0.508253 0.205785 -6.29935e-19 0.50256 -5.75792e-19 0.00569267)
(-0.637572 0.32486 -5.49656e-19 0.632929 8.91585e-19 0.00464341)
(-0.756637 0.437716 2.95509e-19 0.752375 9.9782e-20 0.00426254)
(-0.904965 0.551325 -3.81244e-19 0.897317 7.45825e-19 0.00764791)
(-0.993996 0.661883 9.03185e-19 0.995283 -1.47216e-18 -0.00128685)
(0.000348748 -0.000283949 -9.40887e-22 -0.000349288 -9.2532e-22 5.4004e-07)
(0.00024481 -0.000368818 3.78561e-21 -0.000244115 3.20255e-21 -6.94773e-07)
(0.000135505 -0.000420388 -9.27178e-22 -0.000134153 -4.89515e-22 -1.35237e-06)
(1.74853e-05 -0.000441895 -6.89504e-21 -1.60731e-05 -5.9248e-21 -1.41216e-06)
(-0.000101196 -0.000427394 -6.80802e-22 0.000102238 -8.10715e-22 -1.04209e-06)
(-0.000206609 -0.000373169 6.79661e-21 0.000206999 5.89646e-21 -3.89934e-07)
(-0.000281447 -0.000282798 -1.51922e-21 0.000281499 -1.71882e-21 -5.20594e-08)
(-0.000339336 -0.000188312 -1.64807e-20 0.000340319 -1.31561e-20 -9.83567e-07)
(-0.000395658 -0.000111589 1.70563e-20 0.000397363 1.33012e-20 -1.70476e-06)
(-0.000350321 -5.62297e-05 7.01975e-22 0.000349657 -7.95911e-22 6.64157e-07)
(-0.000233126 -3.16705e-05 -4.30157e-22 0.00023031 -5.92815e-22 2.81563e-06)
(-9.41475e-05 -2.87955e-05 -5.24165e-22 9.22319e-05 -2.27027e-22 1.91553e-06)
(0.000217187 -5.5079e-05 -3.1383e-21 -0.000215022 -1.70917e-21 -2.1644e-06)
(0.0110651 -0.00254685 1.80155e-20 -0.0109919 -4.12232e-21 -7.31576e-05)
(0.0690108 -0.0212449 -2.01908e-19 -0.0688983 -2.22103e-20 -0.000112516)
(0.199278 -0.0831959 3.45756e-19 -0.19972 7.96677e-20 0.000441769)
(0.341037 -0.190769 -2.66374e-19 -0.342492 1.19601e-19 0.00145536)
(0.391392 -0.296637 1.53182e-20 -0.394274 -2.79706e-19 0.0028818)
(0.331671 -0.348706 -2.13771e-19 -0.335496 -1.74561e-19 0.00382528)
(0.240127 -0.34077 7.6461e-20 -0.240331 -2.17229e-19 0.000204795)
(0.174812 -0.299398 3.72129e-19 -0.170508 1.41958e-20 -0.00430481)
(0.136002 -0.239261 -6.04404e-20 -0.13484 -7.66373e-19 -0.00116215)
(0.0986116 -0.169475 -3.25075e-19 -0.10425 4.94203e-19 0.00563823)
(0.0452521 -0.113085 5.29157e-19 -0.0519925 -3.31895e-19 0.0067404)
(-0.00874016 -0.0928199 -1.72233e-19 0.00832365 -1.32969e-19 0.000416502)
(-0.0327236 -0.116053 -6.16727e-19 0.0369527 -1.1802e-19 -0.00422908)
(-0.00256958 -0.173204 5.49934e-19 0.00600021 -1.23862e-18 -0.00343063)
(0.0541586 -0.22118 3.41508e-19 -0.0537093 8.38573e-19 -0.000449278)
(0.0552775 -0.225595 -1.2968e-19 -0.0522402 -1.11183e-19 -0.00303726)
(0.0220698 -0.195769 -1.51794e-19 -0.0164124 1.01805e-18 -0.00565737)
(0.0245833 -0.142483 -1.44782e-19 -0.0227906 -6.74075e-19 -0.00179268)
(0.0371518 -0.120993 2.09472e-19 -0.0372731 5.28827e-19 0.000121338)
(0.00143751 -0.109822 -5.11126e-19 -0.002405 -4.83813e-19 0.000967487)
(-0.0887091 -0.0722061 2.24539e-19 0.0857041 1.58749e-18 0.00300501)
(-0.221787 0.0021082 -3.05891e-19 0.216704 1.7376e-19 0.00508265)
(-0.374561 0.109869 -4.35434e-19 0.367574 5.61922e-20 0.00698765)
(-0.526111 0.240867 3.88526e-19 0.518506 -1.09042e-18 0.00760548)
(-0.670715 0.382592 3.82632e-19 0.663775 -2.25237e-19 0.00693971)
(-0.798331 0.518865 -3.29255e-20 0.794087 -8.57712e-19 0.00424473)
(-0.956356 0.642902 2.1001e-19 0.944433 -2.13812e-18 0.0119229)
(-1.04409 0.786939 -1.18083e-18 1.04998 1.2584e-18 -0.00589189)
(0.00026149 -0.000201043 -8.22547e-22 -0.000261914 -5.17314e-22 4.24498e-07)