/*--------------------------------*- C++ -*----------------------------------*\
| =========                 |                                                 |
| \\      /  F ield         | OpenFOAM: The Open Source CFD Toolbox           |
|  \\    /   O peration     | Version:  2312                                  |
|   \\  /    A nd           | Website:  www.openfoam.com                      |
|    \\/     M anipulation  |                                                 |
\*---------------------------------------------------------------------------*/
FoamFile
{
    version     2.0;
    format      ascii;
    arch        "LSB;label=32;scalar=64";
    class       volVectorField;
    location    "300";
    object      U;
}
// * * * * * * * * * * * * * * * * * * * * * * * * * * * * * * * * * * * * * //

dimensions      [0 1 -1 0 0 0 0];

internalField   nonuniform List<vector> 
11040
(
(0.0351048 7.98446 -1.80648e-19)
(1.46506 7.15109 -1.79361e-18)
(1.3455 3.04844 -1.27767e-17)
(-0.5408 -0.859548 -9.2778e-18)
(-1.22731 -0.723477 -5.44932e-18)
(-1.34925 -0.62272 -1.66891e-17)
(-1.36693 -0.55194 2.79291e-17)
(-1.39227 -0.495726 1.93172e-17)
(-1.36786 -0.426624 3.66548e-18)
(-1.3454 -0.367029 1.0103e-18)
(-1.31655 -0.31875 -1.69556e-17)
(-1.28238 -0.275845 2.50054e-18)
(-1.24323 -0.24027 6.92057e-18)
(-1.19962 -0.207022 5.86272e-18)
(-1.15597 -0.173739 -5.60116e-18)
(-1.12189 -0.137407 9.73864e-18)
(-1.10672 -0.0979702 4.55173e-18)
(-1.11243 -0.0615174 -1.1657e-17)
(-1.11883 -0.0357954 -3.49704e-19)
(-1.08573 -0.0308768 1.9071e-18)
(-0.954841 -0.0436205 -2.26415e-18)
(-0.699029 -0.0670831 -8.65507e-18)
(-0.358423 -0.0895137 1.02854e-17)
(0.031694 -0.103271 -1.09029e-17)
(0.386214 -0.104633 9.96568e-18)
(0.630722 -0.0974252 1.71521e-17)
(0.716041 -0.0901112 7.83147e-18)
(0.534737 -0.0611272 8.44996e-18)
(0.159412 -0.0187794 1.31216e-17)
(-0.258382 0.0631146 2.07107e-17)
(-0.856225 0.178087 -1.79415e-17)
(-1.41028 0.234385 -9.82897e-18)
(-1.70718 0.244309 -2.62535e-17)
(-1.75066 0.23017 -1.39943e-17)
(-1.62716 0.193615 1.32496e-18)
(-1.3895 0.139102 -1.73329e-17)
(-1.05291 0.0673678 4.21221e-19)
(-0.64623 -0.0172583 -1.00303e-17)
(-0.169401 -0.114418 1.26931e-17)
(0.490331 -0.208236 7.96467e-18)
(0.337223 -0.426965 -1.8779e-18)
(1.79005 6.75054 1.01837e-19)
(3.95025 7.64838 -1.31044e-19)
(4.33958 6.54199 5.60576e-18)
(3.00492 3.71366 5.43775e-19)
(0.906816 0.883119 -3.10165e-19)
(-0.740068 -0.416982 6.65606e-18)
(-0.999484 -0.396592 -9.81672e-19)
(-1.16984 -0.384441 -1.2309e-17)
(-1.21508 -0.346575 5.19585e-19)
(-1.24051 -0.301429 -3.56396e-18)
(-1.24671 -0.264564 5.33591e-18)
(-1.23717 -0.224229 -1.90438e-17)
(-1.2147 -0.190839 -1.46849e-18)
(-1.18175 -0.162317 -1.35353e-17)
(-1.14283 -0.139504 6.13401e-18)
(-1.1088 -0.11758 -2.47489e-18)
(-1.09181 -0.0889751 -4.02284e-18)
(-1.09473 -0.0523369 -4.02727e-18)
(-1.09745 -0.0122806 -5.07707e-19)
(-1.05627 0.0115885 2.99615e-19)
(-0.913344 0.0125447 1.03518e-18)
(-0.637564 -0.0174733 2.94802e-18)
(-0.276217 -0.0618466 -4.59916e-18)
(0.129497 -0.101309 -9.93695e-19)
(0.480378 -0.117484 -1.13652e-18)
(0.71255 -0.108088 2.53533e-18)
(0.800287 -0.083363 1.75645e-18)
(0.723177 -0.0316099 -9.80117e-18)
(0.402636 0.0298713 -9.27447e-19)
(-0.324935 0.138945 7.66653e-18)
(-1.09766 0.271637 6.50597e-18)
(-1.47835 0.294958 1.12138e-17)
(-1.60773 0.27468 8.96627e-18)
(-1.57214 0.248116 4.13939e-18)
(-1.41555 0.203593 -1.71715e-18)
(-1.14093 0.138941 6.16665e-18)
(-0.76811 0.0512993 -4.30921e-18)
(-0.30793 -0.0568583 2.78891e-18)
(0.217347 -0.18735 -8.53889e-19)
(0.881495 -0.298572 -9.76615e-19)
(1.13371 -0.43603 1.71852e-18)
(2.26951 6.31279 -1.57297e-20)
(3.82981 6.86536 1.1346e-18)
(5.02331 7.19465 -1.90938e-18)
(5.23612 6.43043 -2.56874e-18)
(4.13816 4.36613 1.69261e-19)
(2.15072 1.93952 -1.8908e-18)
(0.238825 0.203193 -7.14739e-18)
(-0.557481 -0.192446 -9.65725e-18)
(-0.844314 -0.248681 5.90801e-18)
(-0.974035 -0.242101 2.47583e-19)
(-1.04566 -0.232608 3.09759e-18)
(-1.07446 -0.206253 9.97243e-18)
(-1.08265 -0.179458 -7.52472e-18)
(-1.07148 -0.151616 8.3011e-18)
(-1.04744 -0.127656 -5.1816e-18)
(-1.02127 -0.10788 -2.32272e-18)
(-1.00803 -0.0867085 1.09222e-18)
(-1.01448 -0.060642 1.5115e-18)
(-1.02419 -0.0287625 6.9239e-20)
(-0.994304 -0.0100006 -7.3237e-20)
(-0.866261 -0.0106105 -2.12533e-18)
(-0.606055 -0.0452521 -1.71921e-18)
(-0.257853 -0.0961856 3.24951e-19)
(0.133737 -0.139673 -2.26953e-19)
(0.472823 -0.150526 1.88502e-18)
(0.695303 -0.125957 -4.59097e-18)
(0.770848 -0.0810416 -3.90076e-18)
(0.693697 0.000626636 5.59912e-18)
(0.421136 0.106404 1.44019e-18)
(-0.334237 0.247916 -9.83517e-19)
(-1.05377 0.347568 -5.03574e-18)
(-1.33152 0.309305 1.91647e-18)
(-1.45299 0.254972 -4.25324e-18)
(-1.41934 0.205338 -5.30524e-18)
(-1.25517 0.141351 1.04621e-18)
(-0.974125 0.0603958 2.47057e-18)
(-0.596107 -0.0429859 3.30725e-18)
(-0.124175 -0.166496 -2.8897e-18)
(0.409814 -0.314543 -4.53831e-19)
(1.06033 -0.429871 -5.16389e-19)
(1.45212 -0.611331 -9.44458e-19)
(2.70983 5.78422 -6.83076e-20)
(3.65409 6.3658 -2.21456e-19)
(4.62542 6.73908 1.05635e-18)
(5.52939 6.90025 1.95854e-18)
(5.78721 6.32573 -2.23044e-19)
(4.99336 4.80004 -1.5762e-18)
(3.27909 2.743 7.66464e-19)
(1.35908 0.964512 2.16336e-18)
(0.0305782 0.0787419 -3.14736e-18)
(-0.456022 -0.0868182 4.1168e-18)
(-0.706061 -0.143612 -8.49486e-18)
(-0.823155 -0.155969 1.07162e-18)
(-0.890037 -0.1529 1.0823e-18)
(-0.915453 -0.136533 -6.78191e-18)
(-0.916289 -0.115806 -3.26724e-18)
(-0.905698 -0.0961811 2.06546e-18)
(-0.901448 -0.0771754 3.85453e-18)
(-0.916324 -0.0574534 1.73871e-18)
(-0.940046 -0.0348764 -1.0052e-19)
(-0.932445 -0.026565 9.91589e-20)
(-0.833608 -0.0385041 5.40977e-19)
(-0.605799 -0.0859239 1.52418e-18)
(-0.286448 -0.147565 4.95919e-19)
(0.0794972 -0.19306 8.63667e-19)
(0.404823 -0.19355 1.29719e-18)
(0.61879 -0.147617 6.36893e-18)
(0.685064 -0.0752998 -5.524e-19)
(0.590427 0.0413042 -9.47269e-19)
(0.325052 0.203876 -3.32454e-18)
(-0.373765 0.383116 -3.05761e-18)
(-0.97186 0.430778 3.52194e-18)
(-1.2096 0.334147 -2.82026e-18)
(-1.332 0.246443 7.41725e-18)
(-1.30152 0.167179 1.83314e-18)
(-1.14157 0.0775245 1.3181e-18)
(-0.86683 -0.026088 2.87156e-19)
(-0.497424 -0.150572 -3.65293e-20)
(-0.0338317 -0.292364 -2.5945e-19)
(0.492717 -0.457004 5.17634e-19)
(1.12121 -0.578282 -6.39014e-19)
(1.59775 -0.767439 1.76821e-19)
(3.14974 5.30397 1.79941e-19)
(3.85437 5.84505 -2.35696e-19)
(4.54281 6.1578 -8.64372e-19)
(5.26327 6.3896 -1.57382e-18)
(5.95025 6.51916 1.47966e-18)
(6.2296 6.18159 -8.90677e-20)
(5.70518 5.09632 3.1405e-19)
(4.31271 3.42253 1.30846e-18)
(2.47798 1.71361 -4.78265e-19)
(0.885006 0.53827 -1.3384e-18)
(0.0136846 0.0904385 -2.97502e-18)
(-0.36533 -0.0283733 -2.08781e-20)
(-0.573478 -0.0815236 -9.32911e-20)
(-0.681993 -0.0993595 4.74483e-18)
(-0.735088 -0.0955105 2.72529e-18)
(-0.754687 -0.0816825 1.08124e-19)
(-0.766202 -0.0644098 -1.70705e-18)
(-0.792862 -0.047808 1.81922e-18)
(-0.83538 -0.0325659 -2.58992e-19)
(-0.858698 -0.0346866 5.58021e-19)
(-0.802059 -0.0616563 -1.06155e-18)
(-0.621441 -0.127382 -1.09705e-19)
(-0.344053 -0.205073 1.24112e-18)
(-0.0136164 -0.254938 -1.31485e-18)
(0.293586 -0.244405 -2.86202e-18)
(0.499356 -0.173526 -1.56493e-18)
(0.558658 -0.0660486 3.79322e-19)
(0.448439 0.0935784 -2.85276e-18)
(0.17337 0.316582 7.58294e-20)
(-0.437436 0.524256 2.65825e-18)
(-0.899756 0.516546 -1.77888e-18)
(-1.11134 0.370671 3.65963e-19)
(-1.22853 0.246745 -5.09875e-18)
(-1.20473 0.133207 -2.29787e-18)
(-1.05686 0.0139898 -1.21021e-18)
(-0.797609 -0.116435 -1.02277e-18)
(-0.446547 -0.26528 5.4948e-19)
(-0.00443289 -0.428201 -5.03603e-20)
(0.504324 -0.610136 3.02871e-19)
(1.10406 -0.744252 8.23437e-19)
(1.63841 -0.933005 -4.93343e-19)
(3.54779 4.91468 -1.86501e-19)
(4.02691 5.37522 4.64032e-19)
(4.55011 5.72435 1.06632e-19)
(5.09211 5.91793 5.70153e-19)
(5.66602 6.05649 -4.3756e-19)
(6.2311 6.16205 1.99654e-19)
(6.55067 5.99588 4.51198e-19)
(6.27089 5.27443 -8.57065e-24)
(5.2191 3.97763 -5.76302e-20)
(3.59422 2.43453 1.65564e-18)
(1.91471 1.12765 2.13227e-18)
(0.692547 0.375252 -1.65984e-18)
(0.0617068 0.102861 -1.49242e-18)
(-0.261434 0.00208265 7.30953e-18)
(-0.439275 -0.0414915 -5.59479e-18)
(-0.53265 -0.0520922 2.26533e-18)
(-0.582998 -0.0440234 1.9924e-19)
(-0.629879 -0.0311328 5.28421e-19)
(-0.693181 -0.0212977 5.76653e-19)
(-0.75201 -0.032294 -2.85241e-19)
(-0.748914 -0.0750939 -5.35238e-19)
(-0.631193 -0.163158 3.44857e-19)
(-0.411241 -0.263157 -5.55272e-19)
(-0.128215 -0.323217 -3.95842e-19)
(0.152833 -0.304308 2.89064e-18)
(0.349585 -0.205999 -2.02167e-18)
(0.40529 -0.0552024 -5.48349e-19)
(0.284983 0.156654 3.58656e-18)
(-0.00226386 0.440613 2.69543e-18)
(-0.502466 0.658724 -1.26262e-18)
(-0.836931 0.599881 -9.15108e-19)
(-1.02077 0.414483 -2.88084e-19)
(-1.12834 0.252766 2.3505e-18)
(-1.11393 0.101642 2.32855e-18)
(-0.98418 -0.0509637 6.05659e-19)
(-0.748178 -0.212062 -7.44847e-19)
(-0.423561 -0.388419 -7.56833e-20)
(-0.0127999 -0.576146 -4.65669e-19)
(0.469013 -0.777979 -8.496e-19)
(1.03261 -0.933682 -4.16459e-20)
(1.60044 -1.12415 5.13206e-19)
(3.89875 4.59509 -3.40499e-20)
(4.24715 4.97542 1.58365e-19)
(4.62241 5.30755 -6.93677e-20)
(5.0411 5.54432 4.02364e-19)
(5.48354 5.6623 2.30699e-19)
(5.94486 5.73316 -7.99141e-19)
(6.41656 5.81242 2.27418e-19)
(6.7587 5.7675 -1.84609e-19)
(6.68945 5.34033 -1.16672e-18)
(5.97728 4.40114 1.5752e-21)
(4.65339 3.0988 -2.60508e-18)
(3.04189 1.78502 2.98194e-18)
(1.59782 0.805868 -3.19204e-18)
(0.644215 0.298786 -5.46289e-19)
(0.136482 0.106607 3.18629e-18)
(-0.141178 0.0292416 -1.19243e-18)
(-0.295037 0.00256831 4.22339e-18)
(-0.395314 0.00059852 -1.56911e-18)
(-0.490283 0.00341711 3.33024e-19)
(-0.587733 -0.014617 -2.4008e-19)
(-0.644832 -0.072243 2.19601e-19)
(-0.60461 -0.184755 -2.67527e-19)
(-0.461018 -0.314123 1.34088e-18)
(-0.240498 -0.394285 -4.52029e-19)
(0.000569424 -0.373758 -1.14493e-18)
(0.18359 -0.247558 5.64272e-19)
(0.238215 -0.0463684 2.14137e-18)
(0.114994 0.228022 -1.0197e-18)
(-0.169643 0.567047 2.63766e-20)
(-0.544211 0.775906 -6.66627e-19)
(-0.770214 0.676722 3.81185e-20)
(-0.922322 0.462137 -1.04624e-18)
(-1.01748 0.263172 -1.94039e-20)
(-1.01385 0.0724766 4.74582e-19)
(-0.907077 -0.11756 1.46445e-18)
(-0.701241 -0.313316 -1.06011e-18)
(-0.410538 -0.521179 -1.13457e-18)
(-0.0393068 -0.737926 8.11892e-19)
(0.405918 -0.964067 -2.90528e-19)
(0.925118 -1.14994 -9.25756e-22)
(1.49942 -1.34836 4.50031e-20)
(4.21445 4.32852 -7.9943e-21)
(4.4783 4.64299 -1.01391e-19)
(4.75335 4.92987 8.09751e-20)
(5.06512 5.17142 -1.21652e-19)
(5.41371 5.33607 -1.45996e-19)
(5.77681 5.40671 -2.7685e-19)
(6.14815 5.43212 1.08507e-18)
(6.53703 5.48195 1.9522e-19)
(6.87767 5.50464 4.96276e-19)
(6.96665 5.29954 -9.1417e-19)
(6.56682 4.68431 8.09043e-19)
(5.58332 3.66093 9.14773e-19)
(4.16479 2.44587 -1.85059e-18)
(2.66063 1.35385 2.74683e-18)
(1.43661 0.617975 4.62125e-20)
(0.663667 0.260812 -1.15383e-18)
(0.237149 0.123713 -5.03634e-18)
(-0.00806778 0.0727346 -4.21071e-19)
(-0.178061 0.0535408 -1.49008e-18)
(-0.33004 0.0255947 5.14399e-18)
(-0.454234 -0.0439578 -2.83695e-18)
(-0.502063 -0.179571 4.37803e-19)
(-0.454394 -0.3446 7.84269e-19)
(-0.318925 -0.45926 1.27537e-19)
(-0.137246 -0.450809 3.18443e-19)
(0.0206136 -0.301384 1.60721e-19)
(0.0749815 -0.045643 9.48057e-19)
(-0.0380817 0.3013 -5.14646e-19)
(-0.290455 0.679437 -1.81278e-18)
(-0.53938 0.865674 -4.68309e-19)
(-0.681394 0.74255 1.2764e-18)
(-0.799843 0.509645 6.09417e-19)
(-0.881371 0.276814 5.66562e-20)
(-0.888854 0.0464168 -1.09269e-18)
(-0.808833 -0.184385 -5.56379e-19)
(-0.63945 -0.418899 3.36929e-19)
(-0.390018 -0.662688 7.76077e-19)
(-0.0658684 -0.913303 -4.15052e-19)
(0.332151 -1.16919 2.18511e-19)
(0.797429 -1.39267 -4.71686e-19)
(1.34867 -1.60746 -3.93692e-20)
(4.49947 4.10405 -2.29299e-20)
(4.70609 4.36462 -1.61584e-19)
(4.91373 4.60844 3.83264e-19)
(5.1457 4.82586 1.49977e-20)
(5.41028 5.00434 -3.4088e-20)
(5.70142 5.12253 -1.46862e-20)
(6.00065 5.16494 -4.01589e-19)
(6.30076 5.16103 -4.15526e-19)
(6.61699 5.17777 3.69484e-22)
(6.93126 5.22176 -7.94375e-19)
(7.11902 5.16545 -2.44241e-19)
(6.97257 4.81911 6.00924e-19)
(6.32619 4.08561 3.29831e-19)
(5.18848 3.05431 -1.09216e-18)
(3.77416 1.96347 3.18655e-18)
(2.40997 1.06908 -1.64202e-18)
(1.37103 0.514463 1.94115e-18)
(0.729145 0.261866 -4.07582e-18)
(0.351622 0.164467 -1.33427e-19)
(0.0894175 0.1063 1.66197e-18)
(-0.12352 0.0237852 -2.14223e-18)
(-0.271049 -0.130419 -2.29996e-19)
(-0.336092 -0.332527 4.04732e-19)
(-0.3128 -0.498022 -1.34108e-18)
(-0.218381 -0.526164 -3.81931e-19)
(-0.105959 -0.369188 -1.12467e-18)
(-0.0536882 -0.0607234 -2.42128e-18)
(-0.138917 0.359028 7.68157e-19)
(-0.325271 0.760645 4.86275e-19)
(-0.466413 0.922058 1.38633e-18)
(-0.5482 0.793708 -5.15073e-19)
(-0.635081 0.553396 3.7148e-19)
(-0.703633 0.293499 -4.54445e-19)
(-0.722085 0.0256887 1.10452e-18)
(-0.671506 -0.247238 -1.07592e-19)
(-0.544106 -0.524183 2.485e-19)
(-0.343402 -0.808083 -1.23791e-18)
(-0.0740642 -1.09772 7.30453e-19)
(0.265383 -1.38932 -6.51906e-20)
(0.665811 -1.65606 2.71806e-19)
(1.16396 -1.897 -2.82599e-19)
(4.75835 3.91195 -1.23055e-19)
(4.92416 4.12991 4.65466e-19)
(5.086 4.33529 -1.60751e-19)
(5.26108 4.52374 -3.34466e-19)
(5.46061 4.69062 1.28956e-19)
(5.6853 4.82432 -2.20355e-19)
(5.92843 4.91115 9.14627e-20)
(6.17583 4.93806 1.52547e-18)
(6.42003 4.91899 -1.66992e-18)
(6.67344 4.90592 -1.83387e-19)
(6.94367 4.9389 8.55597e-20)
(7.1729 4.96208 5.68262e-20)
(7.20634 4.81803 7.19699e-19)
(6.85968 4.35861 -2.299e-19)
(6.04207 3.56485 1.13169e-18)
(4.83651 2.57652 -1.15914e-18)
(3.48141 1.62002 4.45591e-19)
(2.26493 0.89415 -4.23417e-19)
(1.38095 0.476399 1.06e-18)
(0.81774 0.280943 1.05151e-18)
(0.43761 0.151508 5.13089e-19)
(0.164199 -0.0162522 -1.59024e-18)
(-0.0307405 -0.247625 1.24284e-18)
(-0.14425 -0.475251 5.84634e-19)
(-0.173112 -0.57394 -1.77351e-18)
(-0.138806 -0.446233 1.33983e-18)
(-0.101483 -0.104028 1.80053e-18)
(-0.143229 0.375745 -1.72762e-18)
(-0.243782 0.792041 1.97518e-19)
(-0.304697 0.942727 -1.08581e-18)
(-0.346615 0.826825 5.38439e-19)
(-0.408061 0.59051 -6.8719e-19)
(-0.466425 0.312696 -2.37559e-19)
(-0.495653 0.0133907 4.84472e-20)
(-0.475896 -0.300432 -4.66185e-19)
(-0.394618 -0.621323 1.25791e-19)
(-0.249751 -0.94882 3.3819e-19)
(-0.0434225 -1.28148 -4.78516e-19)
(0.226068 -1.61473 -9.12253e-20)
(0.549875 -1.92793 -5.36553e-19)
(0.967641 -2.20513 3.15532e-19)
(4.99361 3.74641 -1.24941e-19)
(5.12892 3.93043 -3.89004e-19)
(5.25841 4.10324 1.39268e-20)
(5.39395 4.26379 5.42123e-20)
(5.5457 4.41118 7.33923e-20)
(5.71725 4.53982 -2.00202e-19)
(5.90724 4.64133 -4.75831e-20)
(6.1101 4.7073 -1.81314e-20)
(6.31544 4.72732 1.03484e-19)
(6.51561 4.70363 1.52011e-18)
(6.71718 4.67015 5.08505e-19)
(6.93771 4.67614 1.3163e-19)
(7.16418 4.72199 -1.00858e-18)
(7.30284 4.70809 2.06821e-18)
(7.19206 4.48082 -1.54056e-18)
(6.68932 3.94484 8.04807e-19)
(5.76868 3.13807 -1.02014e-18)
(4.55934 2.21967 -2.43946e-18)
(3.29873 1.39075 1.50042e-19)
(2.22215 0.796261 3.08292e-18)
(1.44147 0.439236 -2.08711e-18)
(0.924014 0.193928 3.05372e-18)
(0.561382 -0.058767 -1.78762e-18)
(0.28801 -0.336616 2.56676e-19)
(0.103095 -0.534664 -1.93548e-19)
(0.014699 -0.500467 -1.4013e-18)
(-0.00200883 -0.183618 1.41871e-18)
(-0.00847091 0.326211 -9.1183e-19)
(-0.0319207 0.760576 6.27981e-19)
(-0.0390929 0.925582 3.66952e-19)
(-0.0553091 0.840226 5.1388e-20)
(-0.0990253 0.619964 3.16024e-19)
(-0.151341 0.335904 1.88867e-19)
(-0.191618 0.0138059 -7.97003e-19)
(-0.202499 -0.335136 -4.56497e-19)
(-0.169259 -0.698323 3.06357e-19)
(-0.0854637 -1.06981 3.59332e-19)
(0.0500913 -1.44817 5.12439e-20)
(0.239276 -1.82682 6.66871e-19)
(0.475221 -2.18829 4.0503e-19)
(0.791643 -2.50969 1.20413e-19)
(5.20706 3.60256 -1.42123e-19)
(5.31933 3.75919 6.60957e-20)
(5.42499 3.90533 3.80035e-19)
(5.53259 4.04123 -3.75551e-19)
(5.64972 4.16839 1.04053e-19)
(5.78111 4.28455 -1.31168e-21)
(5.92742 4.38451 8.04266e-20)
(6.08738 4.46296 -5.37071e-19)
(6.25666 4.51452 -1.48583e-18)
(6.42759 4.53168 1.95778e-18)
(6.59276 4.51055 -1.39941e-18)
(6.75461 4.46755 -3.7742e-19)
(6.92889 4.44516 -6.73725e-19)
(7.12549 4.47621 -3.85446e-19)
(7.30514 4.52319 8.43099e-19)
(7.35406 4.46552 -3.51307e-19)
(7.12381 4.17249 1.49906e-18)
(6.51703 3.59588 -1.24014e-18)
(5.55692 2.80675 -4.99534e-19)
(4.39242 1.96338 3.10444e-18)
(3.2364 1.22883 -1.75543e-18)
(2.29412 0.690425 -1.00533e-19)
(1.61762 0.301304 5.22333e-19)
(1.11612 -0.0343911 2.13325e-18)
(0.736089 -0.323248 -2.04012e-18)
(0.473236 -0.443175 -4.57581e-19)
(0.334976 -0.254792 -5.53694e-19)
(0.303163 0.215181 2.54414e-18)
(0.3172 0.66506 -9.07065e-19)
(0.339009 0.86976 -2.85171e-19)
(0.339027 0.832622 8.73273e-19)
(0.307137 0.641957 -7.62903e-19)
(0.257236 0.365271 -4.05506e-19)
(0.205729 0.0328976 5.02092e-19)
(0.165171 -0.340685 3.67057e-19)
(0.150905 -0.73946 6.47451e-20)
(0.171702 -1.15221 -1.7901e-19)
(0.231927 -1.57474 -1.16287e-19)
(0.333499 -1.99852 -3.45499e-19)
(0.473241 -2.40749 3.13298e-19)
(0.675826 -2.77907 -2.7825e-20)
(5.4009 3.47711 2.28031e-19)
(5.49488 3.61146 -5.2714e-19)
(5.58253 3.73571 4.98493e-19)
(5.66957 3.85075 1.62885e-19)
(5.76205 3.95938 -2.00361e-19)
(5.86358 4.06088 -8.3697e-21)
(5.97649 4.15277 2.55015e-19)
(6.1006 4.23115 2.47256e-19)
(6.23488 4.29246 1.63266e-19)
(6.37592 4.33343 7.05992e-20)
(6.51806 4.34913 -4.53897e-19)
(6.65573 4.3338 7.85422e-19)
(6.78778 4.29128 -8.22963e-20)
(6.92385 4.24932 8.46972e-19)
(7.08089 4.24959 -2.33486e-18)
(7.25606 4.30157 2.36854e-18)
(7.38955 4.33955 -6.69208e-19)
(7.36225 4.24088 -1.83089e-18)
(7.04959 3.90264 1.40322e-18)
(6.39274 3.30876 -1.49282e-18)
(5.44271 2.54601 9.86945e-19)
(4.3823 1.77765 -3.49978e-19)
(3.40214 1.12116 1.36266e-18)
(2.57725 0.588579 -6.02214e-19)
(1.9095 0.161464 -3.09278e-18)
(1.39143 -0.137006 1.89428e-18)
(1.037 -0.183687 8.18745e-19)
(0.862442 0.110788 -1.78696e-19)
(0.831776 0.524589 1.25981e-19)
(0.849078 0.777344 -3.21967e-19)
(0.853018 0.803993 -1.61063e-18)
(0.824701 0.660196 1.74967e-18)
(0.771628 0.405712 -1.07849e-19)
(0.706737 0.0778042 -5.66365e-19)
(0.638084 -0.307121 6.28079e-19)
(0.578512 -0.728864 -8.19649e-20)
(0.537397 -1.17343 -1.56415e-19)
(0.520954 -1.63137 2.78028e-19)
(0.532755 -2.09611 1.20771e-19)
(0.573806 -2.54999 -2.52639e-19)
(0.659738 -2.97341 -1.2098e-19)
(5.57659 3.36746 5.58016e-21)
(5.65577 3.48338 2.61184e-19)
(5.72924 3.58958 5.64402e-19)
(5.80079 3.68722 -6.4794e-19)
(5.87509 3.77965 -5.10967e-20)
(5.955 3.86709 2.14339e-19)
(6.04269 3.94814 -1.70425e-19)
(6.13902 4.02096 -2.51252e-19)
(6.24383 4.08282 2.62579e-19)
(6.35611 4.13121 1.07312e-18)
(6.47315 4.16396 -3.20984e-19)
(6.59154 4.17842 8.11079e-19)
(6.707 4.16942 9.86074e-21)
(6.81641 4.13429 -1.61508e-18)
(6.92376 4.08549 -6.70232e-19)
(7.04343 4.05646 1.55434e-18)
(7.18923 4.0796 -8.4381e-19)
(7.34462 4.14224 1.11424e-18)
(7.43777 4.16362 -1.5537e-18)
(7.35595 4.02865 9.66528e-20)
(6.99723 3.65849 -1.1742e-19)
(6.35691 3.08595 2.64818e-18)
(5.53733 2.41963 -1.05737e-19)
(4.64611 1.75187 -1.50329e-18)
(3.7765 1.14437 -3.1809e-19)
(2.99333 0.630803 -4.81476e-19)
(2.33506 0.278831 -1.57632e-18)
(1.86509 0.226481 1.85264e-18)
(1.63209 0.446283 -1.32527e-18)
(1.55401 0.68381 -6.3968e-20)
(1.52082 0.76849 2.9196e-19)
(1.47666 0.684731 -2.29163e-19)
(1.41027 0.471503 1.54968e-19)
(1.32632 0.16591 -8.5447e-20)
(1.22906 -0.210364 9.20884e-19)
(1.12583 -0.638332 -8.37518e-19)
(1.02543 -1.09941 6.31833e-20)
(0.934242 -1.5822 3.847e-20)
(0.857183 -2.07804 5.11576e-20)
(0.799659 -2.57151 -1.58895e-20)
(0.771829 -3.04476 1.83401e-19)
(5.73552 3.27161 -4.13923e-19)
(5.80238 3.37208 1.98577e-19)
(5.86432 3.46326 -8.05874e-19)
(5.92377 3.5464 4.60746e-19)
(5.9843 3.62502 -2.63529e-19)
(6.04825 3.69986 1.75661e-19)
(6.11712 3.77013 -7.5793e-20)
(6.19232 3.83491 1.9015e-20)
(6.274 3.89275 -5.80088e-19)
(6.36204 3.94184 3.09763e-19)
(6.45538 3.98018 6.02366e-20)
(6.55249 4.00653 -2.65927e-18)
(6.65113 4.01947 1.66479e-18)
(6.74799 4.01563 1.05504e-19)
(6.83968 3.99034 1.62053e-18)
(6.92626 3.94536 -1.50091e-18)
(7.01614 3.89923 2.49175e-19)
(7.12518 3.88485 1.20915e-18)
(7.26084 3.92282 -1.29505e-18)
(7.39633 3.98485 4.81859e-19)
(7.45463 3.98345 1.47959e-19)
(7.33971 3.83281 -2.997e-19)
(7.01236 3.50966 1.03071e-19)
(6.48485 3.04492 -2.71437e-19)
(5.80697 2.50019 1.68776e-18)
(5.04956 1.9338 -2.29872e-18)
(4.27796 1.39462 1.94714e-18)
(3.55803 0.966 5.25441e-19)
(2.99527 0.763822 -7.28292e-19)
(2.64745 0.763921 -2.73595e-19)
(2.45356 0.800871 -1.53691e-19)
(2.32521 0.75128 1.07669e-18)
(2.20991 0.586755 -9.47293e-20)
(2.08821 0.320675 -1.40331e-18)
(1.95403 -0.0260253 2.93766e-19)
(1.80618 -0.437498 4.25371e-19)
(1.64904 -0.894368 -3.72395e-19)
(1.48763 -1.38419 3.94653e-19)
(1.32651 -1.89644 1.46117e-19)
(1.17341 -2.41767 7.51587e-20)
(1.03473 -2.93285 -3.74395e-19)
(5.87858 3.18797 3.11075e-19)
(5.93498 3.2753 -4.00928e-19)
(5.98732 3.35383 8.73257e-19)
(6.03707 3.42486 -9.59589e-20)
(6.08696 3.49184 -8.50034e-20)
(6.13879 3.55568 3.79895e-20)
(6.19379 3.61605 2.98969e-19)
(6.25294 3.67241 2.92296e-20)
(6.31712 3.72412 1.18102e-19)
(6.38603 3.77011 1.58054e-21)
(6.45947 3.80905 8.45761e-19)
(6.53689 3.83964 -1.17585e-18)
(6.61728 3.86085 2.20337e-18)
(6.69907 3.87201 -1.69174e-18)
(6.77995 3.87142 -8.16433e-19)
(6.85702 3.85525 -3.27608e-19)
(6.92833 3.82026 -5.61884e-19)
(6.99677 3.77205 5.94669e-19)
(7.07304 3.73151 7.95186e-20)
(7.17148 3.72831 4.37924e-19)
(7.29332 3.77124 -2.19996e-19)
(7.3978 3.8262 2.33948e-19)
(7.42635 3.83015 8.69657e-19)
(7.33057 3.73329 -1.07904e-18)
(7.08217 3.51814 5.18232e-19)
(6.68313 3.19696 5.29967e-19)
(6.16186 2.79161 4.24038e-20)
(5.55776 2.33008 -2.44047e-18)
(4.9254 1.87145 5.45983e-19)
(4.34785 1.49719 1.16502e-18)
(3.89014 1.24069 -8.02842e-19)
(3.55122 1.05092 1.67279e-18)
(3.29036 0.853326 -1.47795e-18)
(3.0683 0.603118 2.04068e-19)
(2.85974 0.288077 5.2592e-19)
(2.64954 -0.087889 -5.00864e-19)
(2.43069 -0.516076 2.6385e-19)
(2.20093 -0.987672 -2.62703e-20)
(1.96105 -1.49351 -4.52697e-19)
(1.7182 -2.02108 -2.17515e-20)
(1.47442 -2.56025 6.19636e-21)
(6.00652 3.11495 1.56703e-20)
(6.05389 3.19106 -2.6735e-19)
(6.09807 3.25891 -1.17799e-19)
(6.13984 3.31984 5.85665e-19)
(6.18127 3.3771 1.11354e-19)
(6.22374 3.43161 -1.33688e-21)
(6.26819 3.48328 2.04955e-19)
(6.31534 3.53186 -9.66654e-20)
(6.36607 3.57696 -5.70322e-20)
(6.42037 3.61812 4.02874e-19)
(6.47815 3.65462 -4.71072e-20)
(6.53931 3.68557 -8.29949e-20)
(6.60342 3.70998 8.22337e-19)
(6.66975 3.72705 -2.72756e-19)
(6.7372 3.73633 -4.3361e-19)
(6.80429 3.73728 -4.03162e-19)
(6.86881 3.72774 -3.00911e-19)
(6.92831 3.70397 2.22311e-18)
(6.98216 3.66425 -2.34741e-18)
(7.0347 3.61674 1.71845e-22)
(7.09803 3.58238 1.43335e-18)
(7.17821 3.58716 -1.26386e-18)
(7.2677 3.63277 1.21945e-18)
(7.34467 3.69581 -5.30729e-19)
(7.3759 3.73907 -5.90154e-19)
(7.32892 3.72855 1.57882e-18)
(7.18251 3.64044 -6.09409e-19)
(6.92949 3.45587 8.10931e-19)
(6.57544 3.16748 -2.25059e-18)
(6.14264 2.79656 2.68724e-19)
(5.67093 2.38837 9.81694e-19)
(5.20774 1.98754 -1.15114e-19)
(4.78471 1.61367 -2.07093e-19)
(4.40717 1.25813 7.68996e-20)
(4.06495 0.90051 -2.81228e-20)
(3.74539 0.523842 1.76669e-19)
(3.43485 0.119154 -4.56863e-19)
(3.12272 -0.31894 3.69593e-19)
(2.80183 -0.79298 -1.93012e-19)
(2.47324 -1.29821 1.80169e-19)
(2.13319 -1.83028 2.63811e-20)
(6.11533 3.05407 1.65797e-20)
(6.15518 3.12102 -5.42302e-19)
(6.19261 3.1802 6.27496e-19)
(6.22796 3.23304 -6.1901e-19)
(6.26278 3.28255 -2.01168e-19)
(6.29814 3.32958 -5.09471e-19)
(6.33474 3.37418 4.16335e-19)
(6.37317 3.41625 2.6252e-19)
(6.41397 3.45561 -1.79086e-19)
(6.45768 3.49195 4.65468e-19)
(6.50386 3.52493 -8.31003e-19)
(6.55263 3.55412 2.08228e-19)
(6.60387 3.57883 2.89541e-19)
(6.65721 3.59831 -5.13223e-19)
(6.71207 3.61192 1.30591e-18)
(6.76772 3.61935 -1.43741e-19)
(6.82315 3.6205 -3.96964e-18)
(6.87687 3.61469 3.44674e-18)
(6.9268 3.59942 -1.29015e-18)
(6.9707 3.5712 -9.46372e-19)
(7.00941 3.52956 1.24565e-18)
(7.04631 3.4881 1.26294e-18)
(7.08989 3.46529 -1.86852e-18)
(7.14691 3.47629 1.73991e-18)
(7.21588 3.52519 -4.75085e-19)
(7.28567 3.60194 4.22968e-19)
(7.3373 3.68588 -7.87143e-19)
(7.34842 3.74768 8.05243e-19)
(7.29654 3.75041 2.95656e-19)
(7.16561 3.66046 -1.55188e-18)
(6.94995 3.465 1.84339e-19)
(6.65521 3.1748 -1.00104e-19)
(6.29883 2.81412 9.35309e-19)
(5.90401 2.4101 3.62042e-20)
(5.49309 1.98582 -3.91601e-20)
(5.08175 1.55672 -8.24427e-20)
(4.67645 1.12766 -2.64407e-20)
(4.27542 0.692959 -6.88615e-20)
(3.87174 0.244621 -2.64547e-19)
(3.4659 -0.223111 2.33906e-20)
(3.05 -0.717939 4.56514e-20)
(6.20432 3.00615 2.14354e-19)
(6.23827 3.06573 4.67885e-19)
(6.27041 3.11795 -2.6333e-19)
(6.30078 3.16438 -7.27248e-19)
(6.33057 3.20774 -1.49355e-19)
(6.36062 3.24879 -4.20051e-19)
(6.39143 3.28766 5.50472e-19)
(6.42351 3.32434 -5.97021e-20)
(6.45724 3.35882 1.28854e-19)
(6.49313 3.39081 -1.58283e-19)
(6.53094 3.42025 -5.3135e-19)
(6.57069 3.44694 6.36807e-19)
(6.61236 3.47048 7.26416e-19)
(6.6558 3.49032 -1.1417e-18)
(6.70067 3.5059 1.44264e-18)
(6.74653 3.51675 1.07648e-18)
(6.79279 3.52256 -7.73425e-19)
(6.83881 3.5234 -1.38187e-18)
(6.88362 3.51928 -1.8049e-19)
(6.92564 3.50933 1.15608e-18)
(6.96297 3.49021 -2.29431e-18)
(6.99189 3.46243 1.81989e-18)
(7.01416 3.42913 2.28768e-19)
(7.03581 3.39867 4.80428e-19)
(7.06417 3.38338 -8.39053e-19)
(7.10562 3.39512 4.06913e-19)
(7.16244 3.4413 -3.596e-19)
(7.23091 3.52184 -2.481e-19)
(7.29969 3.62392 4.89517e-19)
(7.3502 3.72052 -3.15238e-19)
(7.36003 3.77667 -1.62196e-19)
(7.31067 3.76088 6.49959e-19)
(7.19056 3.65607 -8.49564e-19)
(6.99368 3.45921 4.66079e-19)
(6.72208 3.17805 4.62752e-20)
(6.38664 2.82956 -5.41202e-19)
(6.00457 2.43523 3.80282e-19)
(5.5903 2.01265 8.63279e-20)
(5.1545 1.57552 -1.63333e-19)
(4.70811 1.13048 -4.89971e-20)
(4.25088 0.673586 -4.05587e-20)
(6.27814 2.96789 -1.32185e-19)
(6.30729 3.02134 6.54245e-20)
(6.3352 3.06786 -1.29837e-19)
(6.36159 3.10908 -3.48029e-19)
(6.38744 3.14745 4.00929e-19)
(6.41334 3.18368 -2.31878e-19)
(6.43973 3.21788 -9.87972e-20)
(6.46699 3.25016 7.38443e-20)
(6.49546 3.28055 -5.156e-20)
(6.52544 3.3089 1.99305e-20)
(6.55705 3.33507 -1.17251e-19)
(6.59005 3.35914 2.46038e-19)
(6.62452 3.38091 -7.86661e-19)
(6.6604 3.40001 4.54826e-19)
(6.69751 3.41602 3.36909e-19)
(6.73559 3.42855 2.43131e-19)
(6.77423 3.43723 1.14068e-19)
(6.81302 3.44184 -1.87067e-19)
(6.85146 3.44236 -5.95334e-19)
(6.88894 3.4392 1.2217e-18)
(6.92479 3.43185 6.47493e-20)
(6.95531 3.42152 -1.37197e-18)
(6.97885 3.40695 6.19878e-19)
(6.99586 3.38746 6.98378e-19)
(7.00832 3.36485 -1.4235e-18)
(7.02051 3.34416 1.28474e-18)
(7.03831 3.33324 -1.09023e-18)
(7.0679 3.34209 4.89685e-20)
(7.11376 3.38026 3.35728e-19)
(7.17577 3.45228 8.74323e-19)
(7.24695 3.55158 -1.14715e-18)
(7.31358 3.65984 3.26632e-19)
(7.35782 3.75183 6.06679e-19)
(7.3623 3.80104 -4.84289e-19)
(7.31292 3.78685 -5.81224e-20)
(7.19843 3.69755 -1.82302e-20)
(7.01371 3.53043 9.67043e-20)
(6.7583 3.28828 -6.45676e-20)
(6.43871 2.98294 4.44689e-20)
(6.06905 2.63032 -7.55901e-20)
(5.66262 2.24261 -4.4572e-21)
(6.34022 2.9368 2.0927e-20)
(6.36551 2.98505 6.18288e-19)
(6.38988 3.02678 1.44428e-19)
(6.41301 3.06366 -4.67312e-19)
(6.43562 3.09792 5.71665e-20)
(6.45821 3.13015 1.32894e-19)
(6.48108 3.16052 1.42969e-19)
(6.50456 3.18915 -1.34796e-19)
(6.52894 3.21612 -4.68698e-20)
(6.5544 3.24134 4.84256e-20)
(6.58118 3.26466 5.82534e-20)
(6.60901 3.28627 1.8062e-19)
(6.63792 3.30613 -9.20864e-20)
(6.66793 3.32401 -2.86634e-19)
(6.69892 3.33958 1.44176e-20)
(6.73078 3.35257 -1.35337e-19)
(6.76324 3.3627 3.15289e-19)
(6.79601 3.36973 -3.00756e-19)
(6.82873 3.37343 -2.30474e-19)
(6.861 3.37391 -6.7044e-19)
(6.8927 3.37095 8.48206e-19)
(6.92152 3.36697 4.23407e-19)
(6.94644 3.36229 -4.56775e-19)
(6.96711 3.35653 -4.54248e-19)
(6.98293 3.34871 -2.59193e-19)
(6.99392 3.33814 9.16842e-19)
(7.00134 3.32508 5.5812e-19)
(7.00802 3.31188 5.0851e-19)
(7.01843 3.30371 -1.07802e-18)
(7.03791 3.30887 3.50076e-19)
(7.07138 3.3365 -4.28993e-19)
(7.12078 3.39299 2.37915e-19)
(7.1836 3.47811 -3.71522e-19)
(7.25243 3.58329 5.7821e-19)
(7.31594 3.69365 -2.9155e-19)
(7.36003 3.78984 1.2355e-19)
(7.37191 3.85268 -2.59844e-19)
(7.33974 3.86612 2.13243e-19)
(7.25318 3.82029 -1.60814e-19)
(7.10643 3.71067 -4.84189e-21)
(6.90116 3.53881 2.83415e-20)
(6.39316 2.91112 -1.35647e-19)
(6.41522 2.95488 -9.22956e-20)
(6.43661 2.99254 -8.89931e-19)
(6.45702 3.02577 1.36712e-18)
(6.47691 3.05656 -2.25683e-20)
(6.49675 3.08544 -9.69948e-20)
(6.51674 3.11261 -2.25332e-19)
(6.53717 3.13817 1.15848e-19)
(6.55824 3.16225 -2.947e-19)
(6.58014 3.18481 1.61367e-19)
(6.60302 3.20573 8.44974e-20)
(6.62677 3.22511 1.20465e-19)
(6.65129 3.24314 -6.15291e-20)
(6.67663 3.25962 -5.73633e-19)
(6.70274 3.27438 1.20392e-19)
(6.72955 3.28717 -4.56789e-19)
(6.75693 3.2978 1.46929e-18)
(6.78467 3.30607 -3.8804e-19)
(6.81252 3.31179 -7.86084e-20)
(6.84018 3.31496 3.39184e-19)
(6.86754 3.31507 -1.62927e-18)
(6.89279 3.31406 9.96072e-19)
(6.91552 3.31255 6.12503e-19)
(6.93596 3.31123 -5.76786e-19)
(6.95395 3.31032 -1.46948e-19)
(6.96905 3.3096 5.26178e-19)
(6.98084 3.30824 -8.54756e-19)
(6.98917 3.30526 6.14823e-19)
(6.99452 3.29998 5.31753e-19)
(6.99851 3.29325 -3.87743e-19)
(7.00415 3.28829 -6.72786e-19)
(7.01563 3.29084 6.32461e-20)
(7.03731 3.30808 3.43302e-19)
(7.0725 3.34622 1.52487e-19)
(7.12222 3.40892 -3.88185e-19)
(7.18404 3.49456 4.02809e-19)
(7.25243 3.5966 -2.56309e-19)
(7.31967 3.70442 1.12071e-19)
(7.37586 3.80538 3.55759e-20)
(7.4108 3.88537 -9.62303e-20)
(7.41481 3.93148 -1.04468e-20)
(6.43877 2.88971 -3.55884e-19)
(6.45807 2.92954 4.28365e-19)
(6.47695 2.96368 4.61771e-19)
(6.49499 2.99377 5.11599e-19)
(6.5126 3.02159 -8.25354e-19)
(6.53011 3.04763 9.15581e-19)
(6.5477 3.07207 -5.76744e-19)
(6.56559 3.09506 1.11786e-18)
(6.58396 3.11669 -6.92854e-19)
(6.60296 3.13697 2.08501e-19)
(6.62266 3.15584 -1.5718e-19)
(6.6431 3.1733 -9.55224e-20)
(6.66408 3.18962 4.07084e-19)
(6.68565 3.20476 3.54167e-19)
(6.7078 3.21857 -6.20495e-19)
(6.73049 3.23086 5.45429e-19)
(6.75365 3.24149 -4.50847e-19)
(6.77715 3.25029 -1.3128e-19)
(6.80083 3.25713 1.38511e-19)