/*--------------------------------*- C++ -*----------------------------------*\
| =========                 |                                                 |
| \\      /  F ield         | OpenFOAM: The Open Source CFD Toolbox           |
|  \\    /   O peration     | Version:  2312                                  |
|   \\  /    A nd           | Website:  www.openfoam.com                      |
|    \\/     M anipulation  |                                                 |
\*---------------------------------------------------------------------------*/
FoamFile
{
    version     2.0;
    format      ascii;
    arch        "LSB;label=32;scalar=64";
    class       volScalarField;
    location    "750";
    object      div(phi);
}
// * * * * * * * * * * * * * * * * * * * * * * * * * * * * * * * * * * * * * //

dimensions      [0 0 -1 0 0 0 0];

internalField   nonuniform List<scalar> 
11040
(
-0.000748715
-0.000376007
-0.0026498
-0.00330589
-0.00206717
-0.00133975
-0.00233669
-0.00344359
-0.00229334
-0.00402537
-0.00258498
-0.00243348
-0.00659345
-0.00299691
-0.00330522
-0.000804531
-0.00470117
4.26141e-06
-0.00432206
0.000206613
-0.00361448
-0.00491116
-0.00490329
-0.00469195
0.000675733
-0.00130832
0.00117608
-0.000264294
4.08542e-05
-0.00043815
-0.00102159
-0.00123354
-0.00109924
-0.00215473
0.000398824
-0.00340947
0.000205972
-0.00115237
0.00170734
-0.0137893
-0.0098689
-0.000135255
-0.000384131
-0.000996222
-0.00195012
-0.00278619
-0.00343348
-0.00423908
-0.00422024
-0.00368417
-0.00408623
-0.00401276
-0.00480128
-0.00591788
-0.00455422
-0.00516669
-0.00379236
-0.00561233
-0.00253647
-0.00513871
-0.000668806
-0.00291135
-0.00390892
-0.00411048
-0.00333268
2.32425e-05
-0.000250412
0.00109534
0.000455089
0.000190505
-0.000460841
-0.00157454
-0.00213971
-0.00299549
-0.00383711
-0.00330454
-0.00437608
-0.00223315
-0.00298611
-0.00245388
-0.0077689
-0.00520631
-0.000282168
4.21066e-05
-0.000252669
-0.000236197
-0.000246286
-0.000729232
-0.00119262
-0.00113821
-0.000549882
-0.000784438
-0.000441722
-0.000467802
-0.00154754
-0.00072824
-0.00036383
0.000408194
-0.000441321
0.00039473
-0.000454515
0.000340949
-0.000790828
-0.00106768
-0.000917927
-0.00101295
0.000295837
-0.000349955
0.000265907
-0.000108618
-7.92266e-05
-6.04178e-05
-0.000218523
-6.416e-05
-6.7547e-05
3.87579e-05
0.000557715
-0.000293939
3.46285e-05
0.000177605
0.00108514
-0.00171215
7.59261e-05
2.54928e-05
1.24936e-05
-7.9512e-05
-4.1186e-05
-0.000243948
-0.000526238
-0.00112359
-0.00149042
-0.00175671
-0.00196835
-0.00188994
-0.00219474
-0.00250559
-0.00239268
-0.00231304
-0.002239
-0.00240512
-0.00192435
-0.00201379
-0.000993146
-0.00149193
-0.00189335
-0.00175159
-0.00129498
-0.000151794
-5.71405e-05
0.000314423
9.25825e-05
-5.34426e-05
-0.000431805
-0.000810948
-0.00120826
-0.00144647
-0.00174359
-0.00151916
-0.00172193
-0.00101611
-0.000932115
-0.000570752
-0.00113334
7.88043e-05
0.00017359
-2.84834e-05
-4.84316e-05
-0.000196959
-0.000155771
-0.000208233
-0.000260197
-0.000465974
-0.000716404
-0.00076873
-0.000582641
-0.000493726
-0.000753263
-0.000663698
-0.000504711
-0.000273705
-0.000345142
-0.00023554
-7.43219e-05
-4.37565e-05
-0.000281752
-0.000372917
-0.000312927
-0.000179572
3.97664e-05
1.03081e-05
4.45351e-05
-1.68411e-05
-7.76837e-05
-0.000114395
-0.000178671
-0.000187341
-0.000248614
-8.5143e-05
-9.45242e-05
-0.000138224
-0.000360716
0.000124632
0.00013027
4.36388e-05
0.000535856
-0.000338317
9.25511e-05
-0.000151815
9.80646e-05
9.1673e-06
-4.51288e-05
-5.04757e-05
-0.000138203
-0.000252738
-0.000437767
-0.000489125
-0.000845281
-0.00119164
-0.00121248
-0.00119522
-0.00120055
-0.00132846
-0.00114579
-0.00108924
-0.000828404
-0.00103112
-0.000988823
-0.000917533
-0.000545649
-0.000242075
-7.107e-05
-3.82586e-05
-8.8535e-05
-0.000185688
-0.000329057
-0.000475627
-0.000594474
-0.000664016
-0.000618065
-0.000589765
-0.000472884
-0.000300249
6.71916e-05
0.000248239
0.00054763
0.000860144
0.000195667
-6.1168e-05
0.00027891
6.45493e-05
-7.18157e-05
-7.23358e-05
-0.000147602
-0.000143114
-0.000205008
-0.000201445
-0.00036986
-0.000608285
-0.000700049
-0.000714888
-0.000557549
-0.000550808
-0.000460813
-0.000486063
-0.000272939
-0.000313256
-0.00027586
-0.000321419
-0.000187005
-0.000122494
-2.35097e-06
-3.87433e-05
-2.64465e-05
-8.86201e-05
-0.000131419
-0.000197017
-0.000231775
-0.000295862
-0.000262252
-0.000253908
-0.000135638
-0.000199704
-6.19679e-05
7.06147e-05
0.000365201
0.000471887
0.000821144
-0.000149925
0.000182677
0.00019845
-0.000134376
-2.76448e-05
-0.00022202
-7.08904e-05
-0.000113397
3.70386e-06
-7.27955e-05
7.87459e-06
-3.4953e-05
-0.000278357
-0.000346884
-0.000408289
-0.000513771
-0.000557962
-0.000537569
-0.000475821
-0.000526904
-0.00053943
-0.000535477
-0.000393786
-0.000273647
-0.000171099
-0.000137404
-7.15041e-05
-0.000151491
-0.000128878
-0.000229101
-0.000214508
-0.000283739
-0.000219592
-0.000205794
-0.000137739
-0.000116416
1.10817e-05
0.000170022
0.000308079
0.000456757
0.000489775
-3.14856e-05
0.0003203
-0.000176384
0.000117529
-0.000282717
7.08876e-06
-9.71897e-05
0.00011077
-2.23837e-05
0.000109443
7.66173e-05
-8.64788e-05
-0.000116581
-0.000240357
-0.000374511
-0.000410572
-0.000438192
-0.000343624
-0.000328907
-0.000257263
-0.000308606
-0.000255423
-0.000226339
-0.000141004
-0.000119212
-5.36648e-05
-0.000128631
-9.11683e-05
-0.000192641
-0.000153758
-0.000243262
-0.000174867
-0.000211779
-9.08542e-05
-9.24685e-05
3.04482e-05
8.39253e-05
0.000266394
0.000369213
0.00049155
0.000547922
0.000156419
-9.94879e-05
0.00013175
-0.00023955
-1.36202e-06
-0.000108955
8.53702e-05
-1.46783e-05
7.22758e-05
6.77337e-05
-6.71476e-05
-2.42939e-05
-0.000106133
-0.000105273
-5.91535e-05
-7.82216e-05
-5.96168e-05
-4.54531e-06
-0.000118378
-0.000179291
-0.000224238
-0.000211313
-0.000170562
-0.000118711
-9.70623e-05
-0.000164454
2.24175e-05
-0.000146393
-3.34787e-05
-0.000162668
-6.65094e-05
-0.000158477
-2.5033e-05
-9.44588e-05
5.65254e-05
-1.64126e-05
0.000183146
0.000156197
0.000349402
0.00033426
0.000445912
9.29483e-06
5.88416e-06
-8.13052e-05
-7.94647e-05
-9.79806e-05
-4.52197e-05
-3.92877e-05
-3.4863e-05
-4.30344e-06
-8.06951e-05
-2.13981e-05
-6.73938e-05
-4.81264e-05
3.09633e-05
3.78393e-05
5.66809e-05
0.000112523
-2.97307e-05
-2.54994e-05
-0.000156304
-0.000165275
-0.000176695
-0.000133024
-0.000134678
-0.000191758
-2.84764e-05
-0.000131235
3.10113e-05
-8.87958e-05
8.28969e-06
-9.07232e-05
2.18788e-05
-9.70248e-05
7.19659e-05
-0.000103952
0.000123958
-8.0478e-05
0.000181868
-1.24395e-05
0.000180393
3.00152e-05
-2.73766e-05
-2.65605e-05
-6.98456e-05
-8.08816e-05
-9.79123e-05
-9.20226e-05
-8.96484e-05
-8.9117e-05
-8.84721e-05
-7.41115e-05
-6.58434e-05
-5.37775e-05
2.27123e-05
3.70207e-05
4.75301e-05
8.26109e-05
6.61814e-07
5.9378e-05
-1.3909e-05
-4.31171e-06
-3.939e-05
-3.36877e-05
-7.40073e-05
-8.50986e-05
-0.000167422
-9.52926e-05
-6.7802e-05
-2.54898e-06
-3.30002e-05
4.18872e-06
-1.62703e-05
-3.24301e-05
1.96792e-05
-7.66929e-05
5.22977e-05
-0.000119482
6.99169e-05
-0.000121812
4.39208e-05
-8.93823e-05
-2.69186e-05
-3.66836e-05
-2.53096e-05
-5.73129e-05
-5.07063e-05
-7.95536e-05
-7.10043e-05
-8.54393e-05
-8.30893e-05
-8.61998e-05
-8.04276e-05
-6.55847e-05
-3.16179e-05
-5.3365e-06
2.26458e-06
2.9404e-05
-4.72822e-06
5.34129e-05
1.79154e-05
4.70966e-05
3.71849e-05
5.86049e-05
1.48271e-05
6.76784e-05
-0.000174681
5.38026e-07
-0.000247101
6.00153e-05
-0.000174507
8.1731e-05
-0.000136884
5.68242e-05
-0.000110287
3.77548e-05
-8.51043e-05
2.71394e-05
-6.22061e-05
2.80469e-05
-4.00827e-05
4.97246e-05
-9.39671e-06
6.61574e-05
-3.09073e-05
-1.12973e-05
-4.40422e-05
-2.35504e-05
-5.8127e-05
-3.76462e-05
-6.50701e-05
-4.83314e-05
-6.47766e-05
-6.166e-05
-5.82831e-05
-5.03507e-05
-3.89528e-05
-2.81254e-05
-2.34012e-05
9.45252e-06
1.2159e-06
3.22911e-05
2.9939e-05
4.74863e-05
1.54737e-05
5.58359e-05
-5.41631e-05
3.30482e-05
-0.000203116
1.60207e-05
-0.000224537
3.99476e-05
-0.000211627
4.9002e-05
-0.000205383
7.5056e-05
-0.000194201
0.00012116
-0.000175582
0.0001547
-0.000125941
0.000166743
-2.24795e-05
0.000125241
0.000156025
-2.21762e-05
-4.22832e-06
-3.26283e-05
-1.04168e-05
-4.33831e-05
-1.7404e-05
-4.79039e-05
-2.43359e-05
-4.70521e-05
-3.24313e-05
-4.29501e-05
-3.64383e-05
-3.46067e-05
-3.20392e-05
-2.89356e-05
-2.52344e-05
-7.55993e-06
-4.89104e-07
8.49718e-06
-3.23058e-06
3.13231e-06
-1.46302e-05
-1.01071e-05
-6.55921e-05
-4.84257e-05
-9.94092e-05
-6.6736e-05
-0.000115734
-7.03457e-05
-0.000122435
-5.75257e-05
-0.000120629
-1.69499e-05
-0.00010871
2.57109e-05
-7.98591e-05
6.69504e-05
-2.24493e-05
7.48108e-05
6.33626e-05
5.52844e-05
-1.65202e-05
-9.09274e-09
-2.42542e-05
-3.42532e-06
-3.16694e-05
-5.32764e-06
-3.44654e-05
-6.93866e-06
-3.18759e-05
-1.01735e-05
-2.65286e-05
-1.48485e-05
-2.17835e-05
-2.01975e-05
-2.04575e-05
-2.58977e-05
-1.97579e-05
-2.41617e-05
-1.76319e-05
-2.49533e-05
-1.8907e-05
-3.34711e-05
-2.49939e-05
-5.10906e-05
-3.74626e-05
-6.96691e-05
-4.73098e-05
-8.45515e-05
-5.53188e-05
-0.000100722
-5.58385e-05
-0.000103843
-4.14137e-05
-9.57587e-05
-2.10883e-05
-7.19625e-05
-7.85402e-06
-2.31109e-05
-9.4827e-06
4.91079e-05
-2.04611e-05
-1.16222e-05
2.01739e-06
-1.66582e-05
1.40555e-06
-2.06511e-05
1.64258e-06
-2.19456e-05
2.31204e-06
-1.9516e-05
2.17966e-06
-1.50774e-05
-1.20583e-06
-1.18209e-05
-6.9254e-06
-1.10128e-05
-1.41232e-05
-1.23659e-05
-1.9561e-05
-1.39308e-05
-2.35407e-05
-1.49747e-05
-2.91633e-05
-1.81324e-05
-3.80942e-05
-2.19568e-05
-4.91147e-05
-2.58652e-05
-6.04269e-05
-2.99676e-05
-6.98655e-05
-3.4234e-05
-7.39625e-05
-3.62699e-05
-7.10526e-05
-3.80157e-05
-5.75603e-05
-4.36481e-05
-2.63698e-05
-4.67654e-05
1.48359e-05
-7.24982e-05
-7.08735e-06
4.77289e-07
-1.05119e-05
2.77167e-07
-1.32345e-05
1.10599e-06
-1.43089e-05
3.05146e-06
-1.26519e-05
5.20553e-06
-9.42325e-06
5.05171e-06
-6.55765e-06
2.58167e-06
-4.812e-06
-1.73622e-06
-4.52339e-06
-6.33191e-06
-5.24955e-06
-1.00621e-05
-6.24144e-06
-1.44169e-05
-8.2696e-06
-2.01504e-05
-1.01885e-05
-2.63292e-05
-1.10695e-05
-3.21629e-05
-1.02696e-05
-3.7881e-05
-8.699e-06
-4.26958e-05
-8.63913e-06
-4.44286e-05
-1.29433e-05
-3.89944e-05
-2.04289e-05
-1.6904e-05
-3.68109e-05
1.91844e-05
-3.09203e-05
-4.9755e-06
4.74222e-07
-5.35185e-06
1.68035e-06
-6.0369e-06
3.32073e-06
-5.91881e-06
5.81291e-06
-4.64265e-06
8.27692e-06
-2.85266e-06
8.82366e-06
-1.24721e-06
8.01238e-06
-1.26379e-07
6.13972e-06
6.29361e-07
3.89239e-06
5.60748e-07
1.47427e-06
-3.36268e-07
-1.71727e-06
-2.50293e-06
-6.37813e-06
-4.875e-06
-1.17764e-05
-6.75169e-06
-1.75683e-05
-6.9222e-06
-2.34145e-05
-6.1582e-06
-2.95598e-05
-5.28305e-06
-3.34157e-05
-5.70146e-06
-2.68133e-05
-7.70592e-06
-1.01309e-05
6.16201e-06
-2.09602e-06
-8.76074e-06
-4.10376e-07
-1.21806e-06
-1.66435e-06
1.068e-06
-1.34338e-06
3.19148e-06
-7.96891e-07
5.56963e-06
2.35291e-07
8.00649e-06
1.42982e-06
9.40859e-06
2.76047e-06
9.9045e-06
4.22445e-06
9.84433e-06
5.39558e-06
8.7819e-06
5.61499e-06
7.30923e-06
4.65911e-06
3.87958e-06
3.09752e-06
-1.34437e-06
1.00132e-06
-9.32589e-06
-1.66385e-06
-1.74562e-05
-4.08804e-06
-2.58532e-05
-7.09278e-06
-3.00716e-05
-9.23153e-06
-3.14376e-05
-9.54455e-06
-3.3209e-05
-8.50485e-06
-2.96853e-05
-1.95642e-05
-1.96826e-05
-3.33936e-07
-7.34771e-06
1.1917e-06
-2.55011e-06
3.09138e-06
-1.67564e-06
5.03061e-06
-8.38827e-07
7.35132e-06
6.03551e-08
1.00979e-05
9.69303e-07
1.18654e-05
1.92941e-06
1.22854e-05
3.85185e-06
1.11894e-05
5.86677e-06
8.54693e-06
8.74674e-06
4.65015e-06
1.1042e-05
-3.67797e-07
1.61656e-05
-6.81872e-06
2.00461e-05
-1.4719e-05
2.71014e-05
-2.23375e-05
3.2388e-05
-3.04307e-05
4.50694e-05
-3.87271e-05
5.82805e-05
-4.4371e-05
7.09375e-05
-4.46693e-05
8.39744e-05
-3.04514e-05
9.81e-05
-9.43441e-06
9.35611e-05
1.76983e-07
-1.96572e-06
-1.41423e-07
-5.1614e-07
1.01495e-06
7.2023e-09
1.93237e-06
1.6104e-07
2.90036e-06
4.32261e-07
3.80282e-06
3.21782e-07
3.81904e-06
5.6924e-07
3.22504e-06
4.66922e-07
1.92561e-06
9.25014e-07
2.54878e-07
1.00345e-06
-2.31494e-06
1.84338e-06
-5.73175e-06
2.20822e-06
-9.90597e-06
4.78803e-06
-1.35097e-05
5.31656e-06
-1.78577e-05
1.23496e-05
-2.74849e-05
1.80471e-05
-3.60374e-05
1.9221e-05
-5.4082e-05
3.4047e-05
-6.63653e-05
2.13665e-05
-6.00733e-05
4.20401e-05
-4.4153e-05
-4.61882e-06
-1.936e-06
-1.24334e-07
-1.97361e-06
2.05457e-06
-8.81843e-07
2.80258e-06
-2.04025e-07
3.51416e-06
3.36708e-07
3.76079e-06
5.81268e-07
3.69103e-06
6.76251e-07
2.84736e-06
5.71788e-07
1.98823e-06
4.94949e-07
9.27045e-07
5.31428e-07
-5.99979e-07
1.49518e-06
-3.0665e-06
2.92464e-06
-6.21492e-06
5.86274e-06
-1.10488e-05
1.05763e-05
-2.02619e-05
1.20749e-05
-2.77598e-05
2.54663e-05
-4.4243e-05
3.21134e-05
-5.41726e-05
3.73711e-05
-5.21465e-05
6.41479e-05
-3.6087e-05
8.26298e-05
-1.02692e-05
1.58342e-07
-3.63468e-06
-3.39142e-06
1.34717e-06
-1.92614e-06
3.78844e-06
-1.22439e-06
5.76122e-06
-9.13512e-07
7.38465e-06
-7.42701e-07
9.44442e-06
-1.18127e-06
1.06366e-05
-2.32312e-06
1.29301e-05
-4.16782e-06
1.45888e-05
-6.23864e-06
1.81169e-05
-8.03283e-06
2.22652e-05
-9.9723e-06
3.0139e-05
-1.16495e-05
3.8144e-05
-1.35566e-05
5.00339e-05
-1.71598e-05
6.75718e-05
-2.47752e-05
7.59323e-05
-3.66668e-05
8.73083e-05
-5.32046e-05
9.17721e-05
-6.48443e-05
8.86764e-05
-5.68065e-05
0.000101147
-2.57279e-05
-4.08266e-06
-8.81529e-07
-1.9339e-06
-1.5241e-06
8.48091e-07
1.80487e-07
2.1753e-06
1.07808e-06
3.32772e-06
1.61682e-06
4.35536e-06
1.85022e-06
5.32991e-06
1.49029e-06
6.10217e-06
6.67439e-07
6.75452e-06
-4.55489e-07
7.72985e-06
-1.75253e-06
9.18673e-06
-3.67513e-06
1.30687e-05
-5.52818e-06
1.70507e-05
-7.37031e-06
2.43684e-05
-1.02252e-05
3.57118e-05
-1.2864e-05
4.13984e-05
-2.13321e-05
5.14663e-05
-2.91343e-05
5.23369e-05
-3.92279e-05
5.36282e-05
-4.0204e-05
6.20177e-05
-2.98527e-05
7.04806e-05
7.35804e-07
-3.59613e-06
-3.62318e-06
3.62603e-07
-2.36026e-06
2.59313e-06
-5.08487e-07
3.82107e-06
1.00452e-06
3.85308e-06
2.49468e-06
4.3926e-06
3.90788e-06
3.49399e-06
5.00728e-06
3.18233e-06
5.91695e-06
1.62219e-06
6.79569e-06
6.62416e-07
8.40227e-06
-2.0493e-06
1.18959e-05
-4.79812e-06
1.657e-05
-8.61979e-06
2.12667e-05
-1.00377e-05
3.1835e-05
-1.43958e-05
3.56688e-05
-1.799e-05
4.23984e-05
-2.27749e-05
4.47908e-05
-2.7008e-05
4.67795e-05
-2.87146e-05
5.46443e-05
-2.47007e-05
5.90378e-05
-1.55147e-06
-1.10312e-06
-1.72139e-06
-4.66583e-06
2.58778e-06
-3.55054e-06
6.02298e-06
-3.43947e-06
8.4986e-06
-3.89704e-06
1.15064e-05
-4.52794e-06
1.38237e-05
-5.32852e-06
1.64155e-05
-6.26088e-06
1.83178e-05
-7.38414e-06
2.10454e-05
-8.78248e-06
2.4342e-05
-1.03066e-05
2.88594e-05
-1.1708e-05
3.43555e-05
-1.27004e-05
4.15696e-05
-1.39206e-05
4.44736e-05
-1.54683e-05
4.91065e-05
-1.85275e-05
4.78833e-05
-2.12568e-05
4.76569e-05
-2.39157e-05
4.91704e-05
-2.36957e-05
5.25985e-05
-2.10466e-05
5.67115e-05
1.17654e-06
-3.35677e-06
-2.22287e-06
-1.46036e-06
-1.8209e-06
1.14271e-06
-2.47121e-07
2.7306e-06
3.12911e-07
3.9717e-06
4.77685e-07
5.42538e-06
3.57911e-07
6.82101e-06
3.48898e-08
8.35413e-06
-1.86443e-07
9.81295e-06
-5.87644e-07
1.25016e-05
-1.12279e-06
1.43819e-05
-2.05456e-06
1.94378e-05
-2.68903e-06
2.3904e-05
-3.21693e-06
2.62039e-05
-5.23087e-06
3.06281e-05
-6.67607e-06
3.10494e-05
-9.84998e-06
3.10633e-05
-1.0935e-05
3.25821e-05
-1.07925e-05
3.4548e-05
-8.88142e-06
3.88507e-05
-1.05861e-05
-3.71961e-07
6.48692e-07
-1.60376e-06
-3.32739e-06
7.93035e-07
-2.06496e-06
2.49285e-06
-5.22329e-07
2.90156e-06
8.67999e-07
2.6747e-06
2.4202e-06
2.12127e-06
4.11351e-06
2.03899e-06
5.90407e-06
1.25637e-06
7.36688e-06
1.31763e-06
9.65104e-06
3.70072e-07
1.26197e-05
-2.89931e-07
1.59828e-05
-5.25948e-07
2.07015e-05
-2.04671e-06
2.15873e-05
-3.93037e-06
2.33971e-05
-6.07784e-06
2.27985e-05
-7.66396e-06
2.31131e-05
-7.23692e-06
2.48265e-05
-5.53854e-06
2.65895e-05
-3.43558e-06
2.94723e-05
-4.48627e-06
1.10624e-06
-7.57331e-07
-1.82342e-06
7.67549e-08
-4.03184e-06
3.1234e-06
-3.59939e-06
5.95509e-06
-4.17225e-06
8.09708e-06
-4.99174e-06
1.0625e-05
-5.7764e-06
1.33717e-05
-6.28214e-06
1.53095e-05
-6.6502e-06
1.74079e-05
-6.87591e-06
1.93726e-05
-6.60969e-06
2.20491e-05
-6.44897e-06
2.50605e-05
-6.59411e-06
2.65581e-05
-7.31886e-06
2.72052e-05
-8.92686e-06
2.60744e-05
-9.87821e-06
2.5018e-05
-9.87026e-06
2.57178e-05
-7.77551e-06
2.65203e-05
-5.52463e-06
2.78018e-05
-2.90332e-06
2.7758e-05
-1.4835e-06
4.36092e-07
1.28548e-06
-7.78346e-07
-1.79758e-06
-2.87254e-07
-1.19445e-06
1.36787e-06
-2.47471e-07
2.65957e-06
7.56106e-08
3.82141e-06
3.04671e-07
5.87659e-06
3.225e-07
7.3111e-06
6.11532e-07
9.41171e-06
1.06384e-06
1.15201e-05
1.16557e-06
1.37553e-05
1.92104e-06
1.70696e-05
2.57761e-06
2.09053e-05
1.59802e-06
2.10588e-05
-1.71427e-08
2.10645e-05
-2.03155e-06
2.09433e-05
-2.9509e-06
2.13394e-05
-2.95253e-06
2.25072e-05
-1.71299e-06
2.34665e-05
-8.02471e-07
2.48746e-05
1.61676e-06
2.48907e-05
9.92336e-07
4.03156e-07
-7.70209e-08
2.71462e-07
-2.17404e-06
1.24558e-06
-1.19297e-06
2.24537e-06
9.51304e-08
2.29032e-06
1.59602e-06
2.27781e-06
3.40888e-06
2.31692e-06
5.44222e-06
2.04633e-06
7.58504e-06
2.16373e-06
9.12751e-06
2.68985e-06
1.18779e-05
3.27417e-06
1.57882e-05
3.43077e-06
1.73811e-05
2.6402e-06
1.89877e-05
7.78129e-07
1.84856e-05
-1.40974e-06
1.80959e-05
-2.63392e-06
1.87401e-05
-2.53118e-06
1.98604e-05
-1.71606e-06
2.1355e-05
-1.05491e-06
2.2186e-05
2.79907e-07
2.3054e-05
9.5414e-07
9.66856e-07
1.28482e-06
-1.62084e-06
1.43497e-06
-2.82806e-06
3.1801e-06
-2.71752e-06
5.21602e-06
-3.02799e-06
7.14499e-06
-3.40977e-06
9.42036e-06
-3.73764e-06
1.10446e-05
-3.54744e-06
1.26066e-05
-3.10892e-06
1.45937e-05
-2.29633e-06
1.57576e-05
-1.46975e-06
1.8005e-05
-1.53235e-06
1.83704e-05
-2.9272e-06
1.78185e-05
-5.09997e-06
1.52411e-05
-7.42201e-06
1.42256e-05
-8.16423e-06
1.43442e-05
-7.84969e-06
1.5295e-05
-6.52901e-06
1.67202e-05
-5.94315e-06
1.71476e-05
-4.2513e-06
1.74247e-05
6.85414e-07
1.14474e-06
3.67331e-07
8.4687e-07
-1.16709e-06
-1.99834e-08
-3.69371e-07
1.2613e-06
2.92602e-07
2.46596e-06
6.57513e-07
3.9062e-06
7.85554e-07
5.32652e-06
1.30654e-06
6.84539e-06
1.55673e-06
8.92479e-06
2.1164e-06
9.92417e-06
3.23624e-06
1.25308e-05
3.45801e-06
1.3812e-05
2.47768e-06
1.35031e-05
1.16034e-06
1.32593e-05
-7.57961e-07
1.25067e-05
-1.96245e-06
1.2787e-05
-2.5501e-06
1.32527e-05
-2.09268e-06
1.42333e-05
-1.15955e-06
1.53138e-05
-6.55676e-08
1.67245e-05
-1.05996e-06
1.01917e-06
6.01948e-07
1.42292e-06
-3.84317e-07
-4.20505e-07
-2.77958e-08
-3.05062e-07
1.0389e-06
3.49809e-07
2.06529e-06
7.50155e-07
3.13701e-06
1.19165e-06
4.54208e-06
9.60544e-07
5.75083e-06
1.56451e-06
6.66957e-06
2.38317e-06
8.85907e-06
2.33871e-06
9.5908e-06
1.5765e-06
8.74464e-06
-2.46166e-07
8.42671e-06
-2.73549e-06
6.09574e-06
-5.06665e-06
5.09283e-06
-6.20985e-06
5.32695e-06
-6.30661e-06
6.29619e-06
-5.58193e-06
7.60154e-06
-4.49282e-06
8.72876e-06
-3.84553e-06
1.02097e-05
-5.04446e-06
3.7807e-07
1.23343e-06
8.52468e-08
6.80839e-07
1.35979e-07
-9.89039e-07
8.89339e-07
-2.04706e-07
1.40682e-06
7.94327e-07
1.56517e-06
2.02319e-06
1.3685e-06
3.0433e-06
1.66349e-06
4.34332e-06
1.75279e-06
5.97908e-06
2.02937e-06
6.56259e-06
1.56254e-06
6.81824e-06
8.8008e-08
6.47642e-06
-2.48106e-06
4.23337e-06
-4.75761e-06
3.06988e-06
-6.20836e-06
3.06694e-06
-6.35657e-06
4.04232e-06
-6.14795e-06
5.26884e-06
-5.06428e-06
6.35671e-06
-4.29151e-06
7.78205e-06
-4.00533e-06
8.29049e-06
-5.22759e-06
9.32191e-07
1.76445e-07
1.19506e-06
2.16008e-07
-7.72802e-07
1.11453e-06
-1.31475e-06
1.95658e-06
-1.18843e-06
3.01103e-06
-1.24196e-06
3.8795e-06
-1.22325e-06
4.98815e-06
-1.14254e-06
5.56626e-06
-6.48298e-07
6.39278e-06
-5.77602e-07
6.7149e-06
-1.0925e-06
6.2871e-06
-2.4002e-06
4.93966e-06
-3.7689e-06
4.38948e-06
-4.62876e-06
4.45318e-06
-4.82762e-06
5.5218e-06
-4.76223e-06
6.74349e-06
-4.33245e-06
8.46172e-06
-3.45064e-06
1.00641e-05
-2.18575e-06
1.19941e-05
-1.19248e-06
1.35996e-05
-1.61057e-06
2.07959e-07
1.01987e-06
-8.76103e-08
5.83998e-07
4.1793e-07
-6.50265e-07
2.21497e-07
-7.97509e-08
8.11575e-07
1.85536e-07
1.33913e-06
2.91762e-07
2.04928e-06
3.30218e-07
2.69589e-06
8.65111e-07
3.64289e-06
1.0408e-06
4.38414e-06
8.37963e-07
4.15262e-06
4.12587e-07
4.49282e-06
-4.25394e-07
4.43896e-06
-9.79783e-07
4.82728e-06
-1.34292e-06
5.45493e-06
-1.40477e-06
6.2804e-06
-1.45787e-06
7.26942e-06
-1.2068e-06
8.42548e-06
-9.33122e-07
9.70615e-06
-1.1907e-06
1.11508e-05
-4.52314e-07
1.1806e-05
7.40424e-07
-6.92224e-08
9.26912e-07
1.48862e-08
-2.12402e-07
-4.42228e-08
2.82181e-08
5.02962e-09
4.89081e-07
1.51183e-07
8.74088e-07
1.81822e-07
1.25456e-06
4.83577e-07
1.97583e-06
3.67084e-07
2.48574e-06
4.78922e-07
2.36557e-06
-3.92938e-08
2.65475e-06
-9.40617e-07
1.88157e-06
-1.96896e-06
1.66162e-06
-2.50426e-06
1.84873e-06
-2.71728e-06
2.40846e-06
-2.72119e-06
2.98182e-06
-2.67473e-06
3.74545e-06
-2.54255e-06
4.45515e-06
-2.46579e-06
5.2634e-06
-3.07553e-06
6.03399e-06
-3.36085e-06
6.48294e-06
9.65578e-08
7.40844e-07
-1.89473e-07
3.91638e-07
1.26921e-07
-5.58245e-08
-1.81208e-07
2.69542e-07
1.74236e-07
3.19719e-07
5.23112e-07
3.11012e-07
1.03454e-06
1.70284e-07
1.38808e-06
3.70454e-07
1.73178e-06
4.88792e-08
2.01494e-06
-3.42176e-07
1.44833e-06
-9.55118e-07
1.32082e-06
-1.39158e-06
1.34093e-06
-1.58644e-06
1.80486e-06
-1.54739e-06
2.3241e-06
-1.42897e-06
3.26265e-06
-1.32503e-06
4.09748e-06
-1.20184e-06
5.21259e-06
-1.13956e-06
6.40269e-06
-1.59804e-06
7.40878e-06
-1.5217e-06
8.52847e-06
4.9498e-07
-3.69107e-08
5.71195e-07
-6.96289e-08
1.05134e-07
-2.69142e-07
4.24718e-07
-2.98267e-07
6.25919e-07
-2.03373e-07
7.89976e-07
-1.38812e-07
7.70535e-07
1.81703e-08
1.00276e-06
1.08966e-07
8.51536e-07
3.07078e-07
1.00389e-06
3.41273e-07
1.35303e-06
3.10614e-07
1.62905e-06
9.42988e-08
1.78909e-06
-2.61376e-07
1.91559e-06
-6.71909e-07
1.83571e-06
-1.28612e-06
1.78882e-06
-1.99e-06
1.65673e-06
-2.71547e-06
1.76076e-06
-3.40111e-06
2.01532e-06
-4.53896e-06
2.04287e-06
-5.19212e-06
2.80567e-06
1.24043e-07
3.98753e-07
-4.60656e-08
1.93416e-07
-2.82341e-08
8.42222e-08
-1.81173e-07
1.31347e-07
5.92432e-08
3.08619e-07
1.20624e-07
3.65787e-07
1.26038e-07
4.72927e-07
6.46448e-08
3.34513e-07
2.69284e-07
3.74843e-07
3.05839e-07
5.30802e-07
3.71071e-07
1.56561e-07
4.34709e-07
5.90252e-07
4.91191e-07
7.90999e-07
4.59974e-07
9.91123e-07
3.2461e-07
1.2899e-06
8.60823e-08
1.57746e-06
-2.86486e-07
2.03259e-06
-4.47336e-07
2.43222e-06
-4.05179e-07
3.16455e-06
-4.89798e-07
3.95577e-06
-1.66901e-06
2.4896e-07
1.51845e-07
1.40526e-07
-2.92286e-09
-6.16732e-08
-1.26698e-07
-5.6499e-08
4.93164e-08
9.18481e-08
2.04539e-07
9.45921e-08
1.97635e-07
1.65633e-08
-4.4766e-09
7.58913e-08
-1.26935e-07
-1.17252e-07
-5.80358e-07
-1.63967e-07
-1.17048e-06
-5.16302e-07
-1.45992e-06
-9.75632e-07
-2.26708e-06
-1.55479e-06
-2.57579e-06
-1.95921e-06
-2.82595e-06
-2.3523e-06
-2.72431e-06
-2.78693e-06
-2.70339e-06
-3.33839e-06
-2.46491e-06
-3.72548e-06
-2.4053e-06
-3.93078e-06
-1.96383e-06
-4.3776e-06
-1.50673e-06
-4.98497e-06
1.60431e-07
2.84723e-08
2.14028e-08
-1.27787e-07
-4.55249e-08
-7.04152e-08
-8.66222e-08
5.03579e-08
8.18254e-08
1.45998e-07
1.38679e-07
5.31221e-08
1.7191e-07
-1.24739e-07
1.48589e-07
-5.48595e-07
2.14733e-07
-9.86315e-07
-2.37116e-08
-1.56699e-06
-3.23033e-07
-2.40404e-06
-7.44956e-07
-2.82199e-06
-9.9624e-07
-3.09442e-06
-1.14725e-06
-2.93466e-06
-1.21997e-06
-2.82548e-06
-1.33427e-06
-2.42052e-06
-1.49944e-06
-2.21822e-06
-1.61933e-06
-1.91136e-06
-1.80021e-06
-1.79652e-06
-2.50273e-06
-1.60543e-06
-3.19389e-06
3.37773e-07
2.29073e-07
3.98516e-09
7.37669e-08
-1.48279e-07
-3.88805e-08
-5.62587e-08
1.17429e-08
1.0814e-07
6.79097e-08
1.55356e-07
-3.56738e-08
1.40035e-07
-3.13796e-07
1.53046e-07
-6.45732e-07
5.63642e-08
-1.15961e-06
-4.01186e-08
-1.6501e-06
-2.63132e-07
-2.05133e-06
-4.29344e-07
-2.46648e-06
-6.0354e-07
-2.68119e-06
-7.04217e-07
-2.95416e-06
-8.60856e-07
-3.01545e-06
-1.07373e-06
-3.13553e-06
-1.38997e-06
-3.00827e-06
-1.61953e-06
-3.03684e-06
-1.73758e-06
-2.76054e-06
-2.10797e-06
-2.33699e-06
-2.33369e-06
3.34208e-07
3.29527e-07
2.77593e-07
-3.82196e-08
1.07344e-07
-5.56847e-08
2.61543e-08
6.68004e-08
5.7692e-08
1.76031e-07
8.16371e-08
1.07236e-07
2.11872e-07
-8.87379e-08
4.57923e-07
-3.78812e-07
7.15303e-07
-6.11801e-07
9.2744e-07
-9.08467e-07
1.03942e-06
-1.25073e-06
1.0876e-06
-1.65084e-06
1.10677e-06
-2.06202e-06
1.11287e-06
-2.41836e-06
1.12759e-06
-2.78606e-06
1.12571e-06
-3.02167e-06
1.12915e-06
-3.37999e-06
1.18509e-06
-3.54e-06
1.28569e-06
-3.97428e-06
8.7404e-07
-3.75457e-06
5.12071e-07
4.30405e-07
3.60642e-07
1.73352e-07
1.48678e-07
2.13161e-08
6.65027e-08
4.69183e-08
1.3884e-08
2.52159e-07
-1.40473e-07
5.27137e-07
-3.78719e-07
8.89675e-07
-6.59048e-07
1.3106e-06
-8.96138e-07
1.68364e-06
-1.03455e-06
2.01425e-06
-1.15994e-06
2.21765e-06
-1.46361e-06
2.32824e-06
-1.76991e-06
2.28795e-06
-2.27669e-06
2.09568e-06
-2.6509e-06
1.75487e-06
-3.15962e-06
1.26851e-06
-3.43796e-06
7.02269e-07
-3.79547e-06
1.53706e-07
-4.00201e-06
-2.9497e-07
-4.30411e-06
-8.46666e-07
-4.26338e-06
-7.94277e-07
3.83934e-08
4.94827e-08
3.55428e-08
1.51559e-08
2.35118e-08
1.03412e-08
1.92561e-08
5.95879e-08
-9.43265e-10
1.52681e-07
-5.36947e-08
3.14653e-07
-1.78756e-07
5.81518e-07
-2.79037e-07
9.31318e-07
-4.51802e-07
1.33291e-06
-5.48952e-07
1.80974e-06
-7.5563e-07
2.34955e-06
-9.51694e-07
2.97238e-06
-1.31281e-06
3.65389e-06
-1.75339e-06
4.40434e-06
-2.39865e-06
5.20071e-06
-3.23252e-06
6.0422e-06
-4.32937e-06
6.93789e-06
-5.7167e-06
7.82443e-06
-7.38549e-06
9.19808e-06
-9.17367e-06
9.60292e-06
-1.19069e-05
0.00667943
-0.017659
0.0245264
0.0124558
-0.00445693
0.000613508
0.0020053
-0.00319175
0.0130046
-0.0141622
-0.000378421
-0.0115445
-0.0030952
-0.0050018
0.00111215
-0.00477719
0.00326114
-0.00725809
0.00590788
-0.00511743
0.00447931
-5.48223e-05
0.000267035
-2.5697e-05
0.000203985
0.000124143
0.000396287
-2.60615e-05
6.63142e-05
0.000850946
-0.000310325
0.000493411
-0.00056576
-0.000356961
7.97071e-05
-0.0003244
-9.70171e-05
-0.000144756
-9.24738e-05
-0.000251011
-0.000146714
-0.000238501
-0.000109486
-0.000376906
-1.04492e-05
-0.000196638
-0.000287825
1.57224e-05
1.35313e-05
-0.00016143
2.7557e-05
-5.9193e-05
-1.60057e-05
-7.22524e-05
-0.000185037
0.000127607
-8.73747e-05
4.84485e-05
-7.61355e-05
3.53462e-05
-9.63759e-05
8.87068e-05
-8.78282e-07
-2.40921e-05
3.25094e-05
-2.23326e-05
4.15696e-05
8.35222e-06
7.77216e-06
1.47306e-05
-1.9365e-06
8.50443e-06
-5.41612e-06
-3.82939e-06
0.00359593
-0.00036319
0.00854164
0.00648744
0.0021088
0.00205946
0.00188535
-0.00111331
0.00209786
-0.00284944
-0.00158482
-0.00389079
-0.0026599
-0.00305813
-0.000394016
-0.00268842
0.000930371
-0.00246725
0.00091386
-0.00217912
0.000460163
-0.00070588
-0.000281916
-0.000430777
-0.000226295
-0.000310474
-0.000202669
-0.000269252
-0.000263279
-2.13386e-05
-0.000241435
-7.75721e-05
-0.000208359
-0.000149527
-4.82335e-05
-0.0001617
-5.15276e-05
-6.93322e-05
-3.11372e-05
-4.69289e-05
-4.19326e-05
-5.02572e-05
-4.44889e-06
-8.5795e-05
2.19574e-05
-4.39783e-05
-2.80971e-05
9.85311e-06
2.87109e-05
-3.92947e-05
3.07361e-05
-9.07441e-06
1.00061e-05
-1.44366e-05
-2.32697e-05
4.37836e-05
-1.8336e-05
3.18223e-05
-1.58903e-05
2.57068e-05
-8.87964e-06
3.53421e-05
1.1074e-05
3.64644e-07
2.09511e-05
5.37607e-06
1.9452e-05
1.03768e-05
7.52104e-06
9.8363e-06
3.11916e-06
7.2639e-06
-1.03303e-06
-9.47933e-07
-0.000557163
-0.00134495
-0.000222559
-0.00077445
-0.00160821
-0.00116671
-0.000703991
-0.00109252
0.000755855
-0.000515198
0.000402174
-0.000510658
-4.20526e-05
-0.000470177
0.000922421
-0.000405721
0.0015035
-0.000245902
0.00112084
-4.13003e-05
0.00108375
0.000687315
0.000796651
0.000620497
0.000575323
0.000452434
0.00037499
0.000427445
0.000297554
0.000461234
0.000132789
0.000187995
1.50422e-05
3.93689e-06
5.11798e-05
-9.48412e-05
-4.57382e-05
-6.61748e-05
-6.1759e-05
-0.000116115
-9.27959e-05
-8.98088e-05
-8.46241e-05
-0.000120901
-5.0644e-05
-0.000106862
-7.33083e-05
-6.17599e-05
-3.06056e-05
-8.64288e-05
-1.94894e-05
-5.05505e-05
-3.1938e-05
-5.17685e-05
-4.86874e-05
2.06583e-06
-4.69213e-05
4.47234e-07
-4.08154e-05
-2.51137e-06
-2.93178e-05
6.59477e-06
-1.33161e-05
-1.77927e-05
3.83343e-06
-9.19032e-06
4.23408e-06
-3.54458e-06
-3.40751e-06
1.54084e-06
-2.8971e-06
3.63052e-07
-3.24084e-06
-2.32898e-06
0.00195934
0.00165076
0.0035957
0.00349965
0.00248822
0.00187033
0.00125513
-0.000196069
0.000210802
-0.000946934
-0.00129113
-0.00190304
-0.00185569
-0.00190388
-0.000824828
-0.00156618
0.000236979
-0.000952436
0.000159769
-0.000829448
0.000127487
-0.000272196
4.6719e-06
-8.56009e-05
5.95159e-06
-5.65761e-05
-0.000123435
-0.000147411
-0.00013108
4.24059e-06
-0.000120207
-7.11076e-05
-0.000109451
-9.49358e-05
-0.000100481
-0.000122506
-5.59974e-05
-7.90869e-05
-4.71206e-05
-5.04272e-05
-5.06296e-05
-4.74158e-05
-2.21464e-05
-5.5639e-05
-2.25107e-06
-3.56747e-05
-5.38049e-06
-1.68501e-05
1.29778e-05
-3.16158e-05
1.46963e-05
-1.51423e-05
-1.84897e-06
-1.72531e-05
-9.68001e-06
1.39416e-05
-1.26935e-05
1.81984e-05
-1.0617e-05
1.49346e-05
-1.96341e-06
1.71197e-05
6.76154e-06
1.37287e-06
1.45851e-05
5.88465e-06
1.22075e-05
8.13748e-06
5.60701e-06
7.3873e-06
3.59566e-06
6.71258e-06
-5.0321e-07
-7.33013e-07
0.000265628
0.000207443
-0.000196646
-0.000346136
-0.000471756
-0.000458731
-0.000613224
-0.000491953
-0.000178796
9.98379e-05
7.47499e-05
0.000109967
0.000214718
0.000243743
0.000611647
0.000324658
0.000941084
0.000498947
0.000516026
0.000433295
0.000554587
0.000549662
0.000581785
0.000477109
0.000435611
0.000413715
0.000304393
0.000325389
0.000328699
0.000326277
0.000176018
0.000135842
8.88331e-05
6.23648e-05
1.65029e-05
-3.80817e-05
1.41934e-05
-2.77641e-05
-4.94196e-05
-7.49665e-05
-5.19955e-05
-5.98411e-05
-7.44962e-05
-7.06387e-05
-4.62779e-05
-6.51592e-05
-4.09329e-05
-5.33318e-05
-2.66496e-05
-5.31726e-05
-1.86401e-05
-3.73217e-05
-2.63215e-05
-3.75509e-05
-2.80111e-05
-1.14715e-05
-2.86993e-05
-1.97356e-06
-2.57091e-05
-4.22054e-06
-1.82967e-05
-3.70739e-06
-1.10923e-05
-1.15976e-05
1.21094e-06
-6.70996e-06
-5.19071e-07
-3.60472e-06
-3.5674e-06
8.57106e-08
-1.47972e-06
-1.27842e-06
-2.65747e-06
-2.4824e-06
0.00119564
0.00119901
0.00155107
0.0018136
0.00162461
0.00139066
0.0008515
0.000329778
6.18648e-05
-0.000384133
-0.000770922
-0.00105532