/*--------------------------------*- C++ -*----------------------------------*\
| =========                 |                                                 |
| \\      /  F ield         | OpenFOAM: The Open Source CFD Toolbox           |
|  \\    /   O peration     | Version:  2312                                  |
|   \\  /    A nd           | Website:  www.openfoam.com                      |
|    \\/     M anipulation  |                                                 |
\*---------------------------------------------------------------------------*/
FoamFile
{
    version     2.0;
    format      ascii;
    arch        "LSB;label=32;scalar=64";
    class       volScalarField;
    location    "750";
    object      magR;
}
// * * * * * * * * * * * * * * * * * * * * * * * * * * * * * * * * * * * * * //

dimensions      [0 2 -2 0 0 0 0];

internalField   nonuniform List<scalar> 
11040
(
0.479707
0.528071
0.0818071
0.0562013
0.34056
0.349342
0.331321
0.302511
0.272697
0.253968
0.236495
0.221339
0.208907
0.199405
0.191803
0.188035
0.187932
0.191703
0.198768
0.208998
0.222758
0.23963
0.259621
0.283042
0.309939
0.341472
0.376769
0.410854
0.440648
0.462615
0.473002
0.468497
0.449796
0.422649
0.399274
0.320228
0.169595
0.104133
0.0443281
0.135483
0.271939
0.0391114
0.0823889
0.282787
0.520159
1.00292
0.33267
0.10346
0.0353431
0.00904789
0.00723933
0.0170897
0.0226674
0.0263384
0.0289556
0.0306664
0.0323176
0.0343769
0.036805
0.0392833
0.0418163
0.0444728
0.0473971
0.049805
0.0508351
0.0502308
0.0489097
0.0473712
0.0444135
0.0400673
0.0350206
0.030855
0.0297285
0.0301149
0.0336617
0.0413209
0.0533126
0.0703293
0.0930041
0.148457
0.173056
0.67119
0.0241168
0.021642
0.0489006
0.21514
1.16758
1.56638
0.808983
0.306297
0.144404
0.0865892
0.0489797
0.0281262
0.0138331
0.00432124
0.00385045
0.00819612
0.0113835
0.013774
0.0155183
0.0167152
0.017508
0.017908
0.0174668
0.0160119
0.0138726
0.0114986
0.00906076
0.00629678
0.0028161
0.00412607
0.0126752
0.0254209
0.0427927
0.0652729
0.0937642
0.130048
0.175883
0.229051
0.343064
0.454087
0.655566
0.0173377
0.0148432
0.0123128
0.019322
0.278163
1.355
2.0224
1.35554
0.565897
0.304718
0.181396
0.122371
0.0864242
0.0617763
0.046271
0.0353452
0.028629
0.0242632
0.0218368
0.0209486
0.0210912
0.022234
0.0245542
0.0278623
0.0313721
0.0344302
0.036503
0.0371755
0.0364516
0.0357413
0.0391119
0.0517652
0.0757723
0.111746
0.160405
0.224379
0.306469
0.401982
0.5735
0.796866
0.71757
0.0129141
0.0116462
0.0124193
0.00618011
0.00835317
0.248672
1.28949
2.28659
1.96491
0.985237
0.521727
0.315992
0.219347
0.158953
0.123816
0.0990016
0.0838622
0.073798
0.0678255
0.0648878
0.0638088
0.0641693
0.0660756
0.0694382
0.0732625
0.0767195
0.0790525
0.0795632
0.0779916
0.0753603
0.0756005
0.0866754
0.116416
0.167479
0.240037
0.336649
0.460873
0.607735
0.824845
1.16509
0.949578
0.00931862
0.00855926
0.00833259
0.00922027
0.00280775
0.00204941
0.168127
1.03271
2.32343
2.50928
1.62711
0.830971
0.516111
0.347944
0.258555
0.200829
0.166685
0.144538
0.130839
0.123464
0.119737
0.11858
0.119756
0.123174
0.127559
0.131816
0.134769
0.135139
0.132001
0.125757
0.120227
0.126136
0.158677
0.225146
0.324864
0.458883
0.630515
0.834594
1.09021
1.52324
1.29632
0.00673147
0.00643425
0.00604234
0.00644095
0.00664489
0.00125656
5.86024e-05
0.0784666
0.692508
2.02596
2.82634
2.37319
1.38372
0.788076
0.530341
0.390242
0.306225
0.253492
0.221024
0.203161
0.193467
0.189399
0.189557
0.193424
0.199081
0.204913
0.209123
0.209592
0.204345
0.192727
0.17759
0.171021
0.197476
0.27499
0.402344
0.576163
0.79718
1.05852
1.35113
1.83514
1.68135
0.00491334
0.00480495
0.00473292
0.00454839
0.0049263
0.00515096
0.000232575
3.14336e-06
0.023982
0.372499
1.46064
2.75524
2.97919
2.17621
1.26042
0.790935
0.566412
0.443168
0.36654
0.321177
0.295529
0.284276
0.281539
0.285573
0.293096
0.301549
0.308188
0.309689
0.302407
0.284108
0.255352
0.226108
0.228036
0.302025
0.451977
0.664197
0.932222
1.24429
1.57241
2.05513
2.0179
0.00362965
0.00357892
0.00358624
0.00355697
0.00341894
0.00386808
0.00368622
0.000493684
0.000458177
0.000964293
0.142693
0.838399
2.18638
3.17814
2.97434
2.04372
1.22878
0.82575
0.624788
0.513915
0.449495
0.418546
0.406784
0.408437
0.417424
0.428846
0.438595
0.442138
0.434143
0.409571
0.365326
0.304876
0.25477
0.287651
0.443463
0.687681
0.995602
1.34653
1.70184
2.14419
2.21392
0.00269608
0.00267251
0.00269233
0.00272191
0.00269952
0.00261819
0.00294778
0.00263281
0.000842113
0.000116424
0.00215173
0.0316999
0.362816
1.36049
2.7431
3.40765
2.95572
2.01092
1.26795
0.895698
0.714868
0.627115
0.587078
0.576235
0.582373
0.596966
0.612443
0.620542
0.613385
0.583983
0.525998
0.434704
0.316464
0.231235
0.337687
0.6026
0.941109
1.31657
1.68389
2.06593
2.20457
0.00201126
0.00200033
0.0020207
0.00205274
0.00208205
0.0020632
0.00203652
0.00217872
0.00215552
0.00112593
7.73196e-05
0.000396865
0.000333795
0.0974811
0.619421
1.79951
3.10524
3.55079
3.00151
2.0858
1.38062
1.03391
0.888622
0.829272
0.811881
0.818566
0.835943
0.851119
0.852374
0.827932
0.766093
0.656576
0.493533
0.278216
0.0997749
0.366396
0.731851
1.11909
1.48042
1.79479
1.95472
0.00150342
0.00149903
0.0015137
0.00154274
0.00157332
0.0015977
0.00159287
0.00157775
0.00163181
0.00169593
0.00125292
3.8355e-05
2.33201e-05
0.00162261
0.0121765
0.184466
0.842805
2.09155
3.31858
3.68477
3.14946
2.3217
1.68636
1.33971
1.19116
1.14712
1.1466
1.15759
1.16317
1.14827
1.09857
1.00085
0.846136
0.633437
0.381798
0.243038
0.480246
0.828916
1.15098
1.38816
1.51098
0.00112442
0.00112353
0.00113337
0.00115559
0.00118331
0.0012097
0.0012307
0.00123617
0.0012278
0.00124371
0.00131582
0.00113297
0.000270895
2.74156e-05
0.000168148
0.00340871
0.0252972
0.250121
0.964344
2.21201
3.41849
3.85376
3.53101
2.91906
2.34147
1.93494
1.70974
1.61742
1.5962
1.59082
1.56503
1.49955
1.38749
1.23458
1.06402
0.924773
0.888933
0.983832
1.13822
1.24209
1.23273
0.000840276
0.000841243
0.000847598
0.000863637
0.000886078
0.000909978
0.0009323
0.000951198
0.00096165
0.00096005
0.000961807
0.00101296
0.000977256
0.000560918
8.86663e-06
4.11852e-06
0.000404007
0.00513919
0.0341713
0.268016
0.960485
2.10909
3.26118
3.95257
4.06707
3.80662
3.40436
2.99943
2.66326
2.42189
2.26876
2.17636
2.11048
2.04713
1.98308
1.93061
1.90891
1.92629
1.97522
2.01134
1.89195
0.000626541
0.000628458
0.00063253
0.00064391
0.000661072
0.000680755
0.000700842
0.000719897
0.000736779
0.000749221
0.000752467
0.000754311
0.000779573
0.000787726
0.000688059
0.000199366
2.2921e-05
4.25529e-07
0.000687994
0.00523662
0.0310111
0.215924
0.708244
1.55676
2.60078
3.55888
4.2165
4.52646
4.56693
4.43553
4.20117
3.91502
3.62559
3.37818
3.20677
3.12598
3.1337
3.20205
3.29672
3.39386
3.31685
0.000465613
0.000467801
0.000470413
0.0004784
0.000491186
0.000506518
0.000522976
0.000539771
0.000556028
0.000570842
0.000583153
0.000589968
0.000594637
0.000601161
0.000629747
0.000592106
0.00045853
3.68306e-05
8.19068e-06
1.05338e-07
0.000760325
0.00346562
0.010485
0.086056
0.315522
0.777704
1.4854
2.3638
3.28118
4.11286
4.77991
5.25013
5.52549
5.63031
5.60683
5.5037
5.37158
5.24489
5.15725
5.15318
5.0637
0.000345472
0.000347507
0.000349241
0.000354882
0.000364282
0.000375842
0.00038866
0.000402232
0.000416074
0.000429565
0.000442145
0.000453209
0.000461926
0.00046709
0.00047395
0.000485211
0.000502628
0.000443549
0.000273934
9.71928e-06
4.45299e-06
7.62224e-08
0.000213569
0.00166499
0.00424351
0.00901017
0.0602297
0.198529
0.474883
0.92194
1.54188
2.30429
3.15481
4.03142
4.87388
5.62607
6.25307
6.73718
7.0885
7.36932
7.45437
0.000258802
0.000260598
0.000261908
0.000266112
0.000273192
0.000282005
0.000291934
0.000302676
0.000313887
0.000325202
0.000336234
0.000346663
0.000356228
0.000364518
0.0003707
0.000376044
0.000383215
0.000397591
0.000400188
0.000346867
0.000193472
7.19205e-06
3.73321e-06
2.7383e-07
0
0.000166416
0.00130946
0.0022443
0.000445927
0.00960266
0.0473517
0.140636
0.318498
0.610053
1.0343
1.59431
2.27765
3.06415
3.91464
4.81026
5.61864
0.000197503
0.000199081
0.000200149
0.000203407
0.000208877
0.000215724
0.000223529
0.000232117
0.000241256
0.000250662
0.000260071
0.000269238
0.000277955
0.000286093
0.000293387
0.00029969
0.000304435
0.000310111
0.000317647
0.00032845
0.000326158
0.000275127
0.000185873
2.62538e-05
5.37539e-06
1.17997e-06
1.29017e-07
0
5.04002e-06
0.000179757
0.00103697
0.00166922
0.00161976
0.00146128
0.0094167
0.0374008
0.100661
0.217736
0.405906
0.682496
1.05184
0.000153492
0.000154827
0.00015571
0.000158281
0.000162564
0.000167938
0.000174109
0.00018096
0.000188342
0.000196056
0.000203919
0.000211774
0.000219453
0.000226807
0.000233715
0.000240099
0.00024577
0.000250705
0.000254856
0.000260048
0.000267587
0.000274539
0.000273717
0.000243907
0.000188683
0.000117293
1.39545e-05
3.51962e-06
9.72107e-07
5.34933e-07
4.50602e-08
0
0
2.28944e-05
0.000187965
0.000836059
0.00143835
0.00120705
0.000640892
3.42288e-05
0.00556745
0.000120907
0.000122011
0.00012275
0.000124808
0.0001282
0.000132461
0.000137381
0.000142872
0.000148827
0.000155105
0.000161574
0.000168132
0.000174666
0.00018106
0.000187215
0.000193041
0.000198481
0.000203475
0.00020791
0.000211782
0.000215433
0.000220285
0.000225823
0.000232924
0.00023331
0.00022657
0.00020202
0.000160865
0.000112839
6.51467e-05
5.93686e-06
2.12636e-06
7.4473e-07
4.9183e-07
2.67336e-07
4.25612e-08
0
0
0
2.40369e-07
7.76395e-05
9.6269e-05
9.71742e-05
9.78048e-05
9.94732e-05
0.000102186
0.000105596
0.000109545
0.000113969
0.000118784
0.000123889
0.000129183
0.000134593
0.00014004
0.00014544
0.000150717
0.000155804
0.000160643
0.000165188
0.000169409
0.000173282
0.000176641
0.000179661
0.000182551
0.000186123
0.000190441
0.000194638
0.000199349
0.000200191
0.000195348
0.000186356
0.000167265
0.000139844
0.00010717
7.31099e-05
4.18482e-05
7.1483e-06
1.79765e-06
5.58945e-07
4.33511e-07
3.16453e-07
2.07632e-07
7.73096e-05
7.80482e-05
7.85923e-05
7.99565e-05
8.21427e-05
8.48886e-05
8.80769e-05
9.16549e-05
9.55579e-05
9.97074e-05
0.000104029
0.000108466
0.000112962
0.000117452
0.000121879
0.00012619
0.000130341
0.000134289
0.000138
0.000141472
0.000144608
0.000147378
0.00014984
0.000151972
0.00015403
0.000156119
0.000158655
0.00016165
0.000164709
0.000167248
0.000169891
0.00017035
0.000167966
0.000162431
0.000154536
0.000142036
0.000125441
0.000105705
8.50989e-05
6.4563e-05
4.47245e-05
6.25174e-05
6.31189e-05
6.35929e-05
6.47169e-05
6.64897e-05
6.87141e-05
7.13007e-05
7.42058e-05
7.73769e-05
8.0753e-05
8.4277e-05
8.79032e-05
9.15899e-05
9.52871e-05
9.89486e-05
0.000102534
0.000106008
0.000109336
0.000112486
0.000115452
0.000118153
0.000120571
0.000122755
0.000124638
0.000126244
0.000127626
0.000128831
0.00012996
0.000131133
0.000132346
0.000133745
0.000135301
0.000136865
0.00013828
0.000139336
0.000140328
0.000140528
0.000139535
0.000137278
0.000133533
0.000129509
5.08432e-05
5.13334e-05
5.17489e-05
5.26805e-05
5.41256e-05
5.59363e-05
5.8043e-05
6.04088e-05
6.29906e-05
6.57399e-05
6.86116e-05
7.15694e-05
7.458e-05
7.76049e-05
8.06068e-05
8.35533e-05
8.6415e-05
8.91636e-05
9.17724e-05
9.42346e-05
9.6477e-05
9.84853e-05
0.0001003
0.000101872
0.000103211
0.000104343
0.00010528
0.000106028
0.000106607
0.000107046
0.000107364
0.000107604
0.0001078
0.000107994
0.000108182
0.000108395
0.000108622
0.000108859
0.000109091
0.000109147
0.000109334
4.15427e-05
4.19429e-05
4.2309e-05
4.30855e-05
4.42693e-05
4.57497e-05
4.74718e-05
4.94039e-05
5.15099e-05
5.37511e-05
5.60911e-05
5.85008e-05
6.09525e-05
6.34157e-05
6.58605e-05
6.82606e-05
7.05915e-05
7.28301e-05
7.49533e-05
7.6955e-05
7.87716e-05
8.03928e-05
8.18538e-05
8.31092e-05
8.4167e-05
8.50485e-05
8.57658e-05
8.63256e-05
8.67345e-05
8.70018e-05
8.71346e-05
8.71419e-05
8.70309e-05
8.68177e-05
8.65194e-05
8.6141e-05
8.56909e-05
8.51935e-05
8.46831e-05
8.41221e-05
8.36393e-05
3.40743e-05
3.44023e-05
3.47266e-05
3.53772e-05
3.63516e-05
3.75669e-05
3.89794e-05
4.05612e-05
4.22823e-05
4.4111e-05
4.60178e-05
4.7979e-05
4.99715e-05
5.19706e-05
5.39521e-05
5.58943e-05
5.77771e-05
5.95814e-05
6.12876e-05
6.28903e-05
6.43356e-05
6.56172e-05
6.67673e-05
6.7746e-05
6.85577e-05
6.92197e-05
6.97422e-05
7.01318e-05
7.03959e-05
7.0543e-05
7.05812e-05
7.05185e-05
7.036e-05
7.01153e-05
6.97939e-05
6.93985e-05
6.89315e-05
6.84037e-05
6.78374e-05
6.71989e-05
6.66222e-05
2.80371e-05
2.83074e-05
2.85962e-05
2.91446e-05
2.99506e-05
3.09527e-05
3.21151e-05
3.34135e-05
3.48225e-05
3.63164e-05
3.78706e-05
3.94659e-05
4.1083e-05
4.27011e-05
4.43009e-05
4.58646e-05
4.73756e-05
4.88178e-05
5.01754e-05
5.14435e-05
5.2577e-05
5.3573e-05
5.44617e-05
5.52087e-05
5.58168e-05
5.63002e-05
5.66676e-05
5.69245e-05
5.70774e-05
5.71338e-05
5.71011e-05
5.69871e-05
5.67969e-05
5.65394e-05
5.6223e-05
5.58506e-05
5.54251e-05
5.4955e-05
5.44572e-05
5.39073e-05
5.33958e-05
2.31292e-05
2.33538e-05
2.36125e-05
2.40778e-05
2.47483e-05
2.55782e-05
2.65382e-05
2.76067e-05
2.87625e-05
2.99842e-05
3.12517e-05
3.25488e-05
3.38596e-05
3.51668e-05
3.64546e-05
3.77085e-05
3.89148e-05
4.00603e-05
4.11318e-05
4.21256e-05
4.30042e-05
4.37675e-05
4.44434e-05
4.5003e-05
4.54483e-05
4.5791e-05
4.60388e-05
4.61964e-05
4.62694e-05
4.62643e-05
4.61874e-05
4.60453e-05
4.58427e-05
4.55868e-05
4.52849e-05
4.49396e-05
4.45536e-05
4.4134e-05
4.36929e-05
4.32199e-05
4.27509e-05
1.912e-05
1.93089e-05
1.95424e-05
1.99401e-05
2.05013e-05
2.11919e-05
2.19876e-05
2.28695e-05
2.38196e-05
2.482e-05
2.58544e-05
2.69089e-05
2.79707e-05
2.90253e-05
3.00594e-05
3.10613e-05
3.20203e-05
3.29252e-05
3.37654e-05
3.45379e-05
3.52122e-05
3.57898e-05
3.62968e-05
3.67088e-05
3.70273e-05
3.72624e-05
3.74207e-05
3.75064e-05
3.75241e-05
3.74793e-05
3.73776e-05
3.72245e-05
3.70239e-05
3.67818e-05
3.65042e-05
3.61933e-05
3.58515e-05
3.54846e-05
3.51007e-05
3.47e-05
3.42752e-05
1.58315e-05
1.5993e-05
1.62053e-05
1.65481e-05
1.70209e-05
1.75987e-05
1.8261e-05
1.89911e-05
1.97739e-05
2.05947e-05
2.14397e-05
2.22972e-05
2.31569e-05
2.40068e-05
2.48356e-05
2.56341e-05
2.63935e-05
2.71051e-05
2.776e-05
2.83564e-05
2.88691e-05
2.9301e-05
2.9676e-05
2.99738e-05
3.01957e-05
3.03502e-05
3.04431e-05
3.0478e-05
3.0459e-05
3.03907e-05
3.02776e-05
3.01243e-05
2.99343e-05
2.97124e-05
2.94633e-05
2.9189e-05
2.88916e-05
2.85756e-05
2.82462e-05
2.79116e-05
2.7531e-05
1.31247e-05
1.32656e-05
1.34602e-05
1.37583e-05
1.41596e-05
1.46458e-05
1.51995e-05
1.58063e-05
1.64532e-05
1.7128e-05
1.78193e-05
1.85172e-05
1.92133e-05
1.98978e-05
2.05611e-05
2.11961e-05
2.17957e-05
2.23531e-05
2.28612e-05
2.33186e-05
2.37053e-05
2.40247e-05
2.42984e-05
2.45097e-05
2.46596e-05
2.47556e-05
2.48026e-05
2.48037e-05
2.47623e-05
2.46822e-05
2.45672e-05
2.44211e-05
2.42467e-05
2.4048e-05
2.38286e-05
2.35901e-05
2.33345e-05
2.30653e-05
2.27853e-05
2.25087e-05
2.21687e-05
1.08904e-05
1.10159e-05
1.11958e-05
1.14574e-05
1.18008e-05
1.22125e-05
1.26779e-05
1.31843e-05
1.37207e-05
1.42771e-05
1.48438e-05
1.54126e-05
1.59765e-05
1.65277e-05
1.70583e-05
1.75624e-05
1.80347e-05
1.84697e-05
1.88621e-05
1.92109e-05
1.94999e-05
1.97331e-05
1.99297e-05
2.00759e-05
2.01728e-05
2.02266e-05
2.02417e-05
2.02207e-05
2.01663e-05
2.00819e-05
1.99706e-05
1.98354e-05
1.96786e-05
1.95034e-05
1.93127e-05
1.91078e-05
1.88903e-05
1.86631e-05
1.84271e-05
1.82003e-05
1.78986e-05
9.04157e-06
9.15602e-06
9.32352e-06
9.55521e-06
9.85152e-06
1.02026e-05
1.05961e-05
1.10208e-05
1.14676e-05
1.19278e-05
1.23937e-05
1.28582e-05
1.33157e-05
1.37598e-05
1.41842e-05
1.45841e-05
1.49556e-05
1.52944e-05
1.55965e-05
1.58613e-05
1.60762e-05
1.62448e-05
1.63842e-05
1.64833e-05
1.65428e-05
1.65681e-05
1.6563e-05
1.65296e-05
1.64703e-05
1.63876e-05
1.62841e-05
1.61623e-05
1.60242e-05
1.58721e-05
1.57084e-05
1.55342e-05
1.53506e-05
1.51601e-05
1.49624e-05
1.47778e-05
1.451e-05
7.50876e-06
7.61539e-06
7.77226e-06
7.97939e-06
8.23738e-06
8.53908e-06
8.87392e-06
9.23226e-06
9.60622e-06
9.98867e-06
1.03731e-05
1.07536e-05
1.11255e-05
1.14838e-05
1.18235e-05
1.21407e-05
1.24323e-05
1.26955e-05
1.2927e-05
1.31266e-05
1.32845e-05
1.3404e-05
1.35002e-05
1.35641e-05
1.35963e-05
1.36014e-05
1.35828e-05
1.35421e-05
1.34814e-05
1.34029e-05
1.33085e-05
1.32003e-05
1.30798e-05
1.29489e-05
1.28096e-05
1.26625e-05
1.25088e-05
1.23501e-05
1.21859e-05
1.20364e-05
1.18019e-05
6.23601e-06
6.33724e-06
6.48487e-06
6.67167e-06
6.89838e-06
7.15981e-06
7.44688e-06
7.75125e-06
8.06614e-06
8.38563e-06
8.70422e-06
9.01716e-06
9.32046e-06
9.6104e-06
9.883e-06
1.0135e-05
1.03645e-05
1.05692e-05
1.07471e-05
1.0898e-05
1.10145e-05
1.10994e-05
1.11659e-05
1.12065e-05
1.12219e-05
1.12159e-05
1.11912e-05
1.11494e-05
1.1092e-05
1.10208e-05
1.09374e-05
1.08435e-05
1.07403e-05
1.06292e-05
1.05119e-05
1.03889e-05
1.0261e-05
1.01296e-05
9.99357e-06
9.87353e-06
9.66609e-06
5.17807e-06
5.27561e-06
5.41507e-06
5.58495e-06
5.78605e-06
6.01454e-06
6.26263e-06
6.52302e-06
6.78997e-06
7.05846e-06
7.32394e-06
7.5825e-06
7.83085e-06
8.0661e-06
8.28515e-06
8.48539e-06
8.66546e-06
8.82393e-06
8.95922e-06
9.07148e-06
9.15498e-06
9.21237e-06
9.25512e-06
9.27711e-06
9.27904e-06
9.26424e-06
9.235e-06
9.19264e-06
9.13846e-06
9.07389e-06
9.00029e-06
8.91894e-06
8.83084e-06
8.7371e-06
8.63893e-06
8.5367e-06
8.43123e-06
8.32333e-06
8.21224e-06
8.11553e-06
7.93908e-06
4.29822e-06
4.39317e-06
4.52528e-06
4.68103e-06
4.86107e-06
5.0625e-06
5.27856e-06
5.50298e-06
5.73082e-06
5.95791e-06
6.18047e-06
6.39534e-06
6.5999e-06
6.79203e-06
6.96946e-06
7.13017e-06
7.27333e-06
7.39812e-06
7.50353e-06
7.58985e-06
7.65276e-06
7.69423e-06
7.72418e-06
7.73747e-06
7.73467e-06
7.71859e-06
7.69109e-06
7.65326e-06
7.60612e-06
7.55084e-06
7.48852e-06
7.4202e-06
7.34669e-06
7.26885e-06
7.18771e-06
7.10357e-06
7.01708e-06
6.92877e-06
6.8379e-06
6.76166e-06
6.60464e-06
3.56649e-06
3.65942e-06
3.7848e-06
3.92864e-06
4.09129e-06
4.27031e-06
4.45982e-06
4.65448e-06
4.85016e-06
5.04343e-06
5.23112e-06
5.41064e-06
5.57979e-06
5.73688e-06
5.88012e-06
6.00796e-06
6.11986e-06
6.21541e-06
6.29408e-06
6.35622e-06
6.39886e-06
6.42389e-06
6.43986e-06
6.44265e-06
6.43287e-06
6.41295e-06
6.38449e-06
6.3484e-06
6.30552e-06
6.25679e-06
6.20308e-06
6.14518e-06
6.08373e-06
6.01936e-06
5.95284e-06
5.8843e-06
5.81446e-06
5.74322e-06
5.67106e-06
5.60863e-06
5.48449e-06
2.95807e-06
3.04923e-06
3.16831e-06
3.30191e-06
3.44987e-06
3.61002e-06
3.77729e-06
3.94709e-06
4.11606e-06
4.28144e-06
4.4408e-06
4.5921e-06
4.73373e-06
4.86465e-06
4.98381e-06
5.09006e-06
5.18308e-06
5.26268e-06
5.32851e-06
5.38087e-06
5.41748e-06
5.43928e-06
5.45368e-06
5.45713e-06
5.45016e-06
5.43476e-06
5.41228e-06
5.38345e-06
5.34898e-06
5.30965e-06
5.26623e-06
5.21938e-06
5.16966e-06
5.11759e-06
5.06388e-06
5.0087e-06
4.95253e-06
4.89534e-06
4.8371e-06
4.79066e-06
4.67428e-06
2.45229e-06
2.54215e-06
2.65562e-06
2.78013e-06
2.91494e-06
3.05836e-06
3.20632e-06
3.35507e-06
3.50173e-06
3.64398e-06
3.77986e-06
3.90768e-06
4.02592e-06
4.13312e-06
4.22811e-06
4.31026e-06
4.37978e-06
4.43711e-06
4.48252e-06
4.51638e-06
4.53742e-06
4.54709e-06
4.55136e-06
4.54745e-06
4.53587e-06
4.5183e-06
4.49588e-06
4.46917e-06
4.43872e-06
4.4051e-06
4.36887e-06
4.33048e-06
4.29033e-06
4.24877e-06
4.20626e-06
4.16275e-06
4.11902e-06
4.07408e-06
4.0305e-06
3.98848e-06
3.91471e-06
2.03333e-06
2.12229e-06
2.23098e-06
2.34748e-06
2.47012e-06
2.59769e-06
2.72758e-06
2.85734e-06
2.98492e-06
3.10828e-06
3.22555e-06
3.33551e-06
3.43782e-06
3.53285e-06
3.62044e-06
3.6991e-06
3.76765e-06
3.82572e-06
3.87326e-06
3.91079e-06
3.93725e-06
3.95274e-06
3.96292e-06
3.96545e-06
3.96087e-06
3.95065e-06
3.93577e-06
3.9168e-06
3.89426e-06
3.86874e-06
3.84079e-06
3.8109e-06
3.77946e-06
3.74682e-06
3.71352e-06
3.67971e-06
3.64567e-06
3.61125e-06
3.57639e-06
3.55231e-06
3.46422e-06
1.69009e-06
1.77698e-06
1.88002e-06
1.98847e-06
2.09983e-06
2.21302e-06
2.32618e-06
2.43793e-06
2.54744e-06
2.65383e-06
2.75546e-06
2.84984e-06
2.93405e-06
3.00565e-06
3.06433e-06
3.1126e-06
3.15315e-06
3.18685e-06
3.21377e-06
3.23363e-06
3.24587e-06
3.25165e-06
3.2544e-06
3.25225e-06
3.24548e-06
3.23522e-06
3.22218e-06
3.20671e-06
3.18912e-06
3.16977e-06
3.14896e-06
3.12695e-06
3.10398e-06
3.0802e-06
3.05591e-06
3.03088e-06
3.00609e-06
2.97959e-06
2.95687e-06
2.92381e-06
2.9024e-06
1.41077e-06
1.49335e-06
1.58735e-06
1.68432e-06
1.78274e-06
1.8826e-06
1.98246e-06
2.08033e-06
2.17466e-06
2.26488e-06
2.3517e-06
2.43694e-06
2.52246e-06
2.60903e-06
2.69415e-06
2.77089e-06
2.83462e-06
2.88628e-06
2.92755e-06
2.96015e-06
2.98384e-06
2.99826e-06
3.00812e-06
3.01209e-06
3.01083e-06
3.00552e-06
2.99694e-06
2.9856e-06
2.97196e-06
2.95653e-06
2.93979e-06
2.92217e-06
2.90396e-06
2.88547e-06
2.86715e-06
2.84926e-06
2.83171e-06
2.81502e-06
2.79701e-06
2.79506e-06
2.71724e-06
1.17783e-06
1.25809e-06
1.34309e-06
1.42572e-06
1.50654e-06
1.58845e-06
1.67284e-06
1.7594e-06
1.84616e-06
1.92929e-06
2.00367e-06
2.0644e-06
2.10877e-06
2.13728e-06
2.15561e-06
2.17547e-06
2.20205e-06
2.23069e-06
2.25786e-06
2.2814e-06
2.30083e-06
2.31693e-06
2.33069e-06
2.3409e-06
2.34766e-06
2.35168e-06
2.35339e-06
2.35303e-06
2.35079e-06
2.34688e-06
2.3415e-06
2.33477e-06
2.32689e-06
2.31787e-06
2.3079e-06
2.29666e-06
2.28537e-06
2.2709e-06
2.26282e-06
2.22767e-06
2.26343e-06
9.81675e-07
1.0688e-06
1.15508e-06
1.23136e-06
1.29754e-06
1.3578e-06
1.41604e-06
1.47585e-06
1.54085e-06
1.61455e-06
1.69967e-06
1.79737e-06
1.90593e-06
2.02115e-06
2.13353e-06
2.22385e-06
2.28616e-06
2.33264e-06
2.36851e-06
2.39629e-06
2.41557e-06
2.42691e-06
2.43372e-06
2.4356e-06
2.43345e-06
2.42825e-06
2.42074e-06
2.41146e-06
2.40095e-06
2.38976e-06
2.37836e-06
2.36723e-06
2.35667e-06
2.34702e-06
2.33874e-06
2.33236e-06
2.32717e-06
2.32539e-06
2.3198e-06
2.34492e-06
2.25472e-06
8.3919e-07
9.24465e-07
1.00814e-06
1.08502e-06
1.15322e-06
1.21255e-06
1.26189e-06
1.30022e-06
1.32768e-06
1.3457e-06
1.35664e-06
1.36321e-06
1.36822e-06
1.37225e-06
1.37786e-06
1.4011e-06
1.44268e-06
1.48886e-06
1.53512e-06
1.57861e-06
1.61868e-06
1.65541e-06
1.68931e-06
1.72e-06
1.74728e-06
1.77138e-06
1.79254e-06
1.81082e-06
1.82626e-06
1.83888e-06
1.84872e-06
1.85571e-06
1.85992e-06
1.86116e-06
1.85952e-06
1.85458e-06
1.84759e-06
1.8344e-06
1.82782e-06
1.77801e-06
1.8488e-06
9.09175e-07
1.02048e-06
1.0796e-06
1.09014e-06
1.07435e-06
1.06294e-06
1.08268e-06
1.14572e-06
1.24682e-06
1.37059e-06
1.50044e-06
1.62351e-06
1.73154e-06
1.82201e-06
1.89255e-06
1.92679e-06
1.92833e-06
1.91493e-06
1.89488e-06
1.87148e-06
1.84343e-06
1.8179e-06
1.79019e-06
1.76189e-06
1.73388e-06
1.70641e-06
1.67957e-06
1.65352e-06
1.62837e-06
1.60417e-06
1.58087e-06
1.55848e-06
1.53678e-06
1.5156e-06
1.49502e-06
1.47536e-06
1.4551e-06
1.43681e-06
1.41181e-06
1.41601e-06
1.30981e-06
8.28149
9.34448
8.34274
6.76141
5.03826
3.47689
2.18383
1.16707
0.451297
0.0879239
0.0364602
0.00109478
0.000185166
1.69674e-05
0.000313432
0.000284876
0.000230476
0.000204529
0.000181469
0.000158596
0.00013903
0.000121378
0.0001059
9.21786e-05
8.00596e-05
6.93435e-05
5.98738e-05
5.14987e-05
4.41132e-05
3.76531e-05
3.1975e-05
2.70835e-05
2.28378e-05
1.92068e-05
1.61151e-05
1.34798e-05
1.12552e-05
9.3788e-06
7.80456e-06
6.48541e-06
5.38628e-06
4.47131e-06
3.71318e-06
3.08341e-06
2.56158e-06
2.13078e-06
1.77092e-06
1.47229e-06
1.22456e-06
1.0169e-06
8.4065e-07
6.93915e-07
5.69847e-07
4.67919e-07
3.8662e-07
3.16343e-07
2.80373e-07
2.54936e-07
2.59967e-07
2.71304e-07
3.00603e-07
3.24884e-07
3.576e-07
3.87743e-07
4.15237e-07
4.41341e-07
4.64905e-07
4.8096e-07
5.04642e-07
5.02057e-07
5.40592e-07
4.99125e-07
5.91461e-07
5.08915e-07
7.99128
12.6966
12.1707
10.1473
7.87071
5.75557
3.94566
2.45457
1.28759
0.478509
0.0878961
0.0313329
0.00200477
0.000130254
1.98035e-07
0.000277863
0.000260845
0.00020626
0.000181149
0.000159984
0.000140141
0.000122124
0.000106398
9.249e-05
8.02233e-05
6.94027e-05
5.98594e-05
5.14405e-05
4.40205e-05
3.75457e-05
3.18569e-05
2.69568e-05
2.27129e-05
1.90777e-05
1.59901e-05
1.33595e-05
1.11383e-05
9.26688e-06
7.69678e-06
6.38187e-06
5.28702e-06
4.37491e-06
3.62172e-06
2.99549e-06
2.47719e-06
2.05262e-06
1.69546e-06
1.40124e-06
1.15997e-06
9.57354e-07
7.86015e-07
6.46107e-07
5.28412e-07
4.34612e-07
3.61171e-07
3.00264e-07
2.75545e-07
2.59006e-07
2.71099e-07
2.85324e-07
3.15268e-07
3.38824e-07
3.69359e-07
3.97639e-07
4.22529e-07
4.46073e-07
4.67581e-07
4.81035e-07
5.03339e-07
4.97428e-07
5.36886e-07
4.88928e-07
5.86938e-07
4.97547e-07
5.54139
12.4157
14.2976
13.0376
10.7592
8.35833
6.15583
4.23787
2.62816
1.36009
0.491007
0.0896348
0.0276656
0.00149621
1.86233e-06
2.06022e-05
0.000205408
0.00024015
0.000186753
0.000160064
0.000141415
0.000123439
0.000107252
9.30771e-05
8.06061e-05
6.96104e-05
5.99505e-05
5.14532e-05
4.39732e-05
3.74494e-05
3.17515e-05
2.68246e-05
2.25836e-05
1.89404e-05
1.58494e-05
1.32238e-05
1.10041e-05
9.13709e-06
7.57148e-06
6.2606e-06
5.1702e-06
4.26244e-06
3.51375e-06
2.89222e-06
2.37864e-06
1.95983e-06
1.607e-06
1.3196e-06
1.08513e-06
8.8809e-07
7.2457e-07
5.92322e-07
4.83358e-07
3.98928e-07
3.33969e-07
2.90607e-07
2.73922e-07
2.69064e-07
2.84606e-07
3.02983e-07
3.30584e-07
3.55468e-07
3.82323e-07
4.07849e-07
4.30462e-07
4.50899e-07
4.70227e-07
4.80811e-07
5.0151e-07
4.92331e-07
5.3218e-07
4.7786e-07
5.81137e-07
4.85237e-07
3.87819
10.693
14.5679
14.8578
13.2691
11.0124
8.6651
6.4558
4.47364
2.77526
1.42856
0.51362
0.0966989
0.0254688
0.00675746
0
1.51142e-05
0.000160535
0.000213662
0.000169738
0.000141481
0.000124486
0.000108563
9.38736e-05
8.10919e-05
6.99453e-05
6.0152e-05
5.15498e-05
4.39989e-05
3.74187e-05
3.16927e-05
2.67344e-05
2.24804e-05
1.8826e-05
1.57269e-05
1.31008e-05
1.08804e-05
9.01505e-06
7.45183e-06
6.14417e-06
5.05659e-06
4.15273e-06
3.40805e-06
2.79093e-06
2.28238e-06
1.86834e-06
1.52113e-06
1.24034e-06
1.0121e-06
8.21428e-07
6.66048e-07
5.41859e-07
4.42271e-07
3.67829e-07
3.13293e-07
2.85265e-07
2.76183e-07
2.80302e-07
2.97963e-07
3.18775e-07
3.44211e-07
3.69152e-07
3.92878e-07
4.15634e-07
4.36152e-07
4.53682e-07
4.71157e-07
4.79079e-07
4.98363e-07
4.86125e-07
5.26682e-07
4.66186e-07
5.74845e-07
4.73091e-07
2.96952
8.75177
13.4945
15.3514
14.941
13.3105
11.1786
8.92356
6.73136
4.70639
2.93871
1.52562
0.563298
0.11351
0.0246977
0.00747633
2.68309e-05
1.13507e-05
9.64683e-05
0.000186151
0.000153849
0.000123555
0.000108037
9.4817e-05
8.18469e-05
7.03171e-05
6.03734e-05
5.17039e-05
4.40851e-05
3.7439e-05
3.16693e-05
2.66803e-05
2.24042e-05
1.87354e-05
1.56255e-05
1.29941e-05
1.07711e-05
8.90547e-06
7.34248e-06
6.03671e-06
4.95107e-06
4.04996e-06
3.30865e-06
2.69543e-06
2.19153e-06
1.78217e-06
1.44082e-06
1.16595e-06
9.43926e-07
7.60339e-07
6.12913e-07
4.97285e-07
4.07463e-07
3.4359e-07
3.00821e-07
2.83936e-07
2.82149e-07
2.92001e-07
3.11013e-07
3.32419e-07
3.56126e-07
3.79697e-07
4.0084e-07
4.21038e-07
4.39481e-07
4.5437e-07
4.70236e-07
4.75774e-07
4.93873e-07
4.78774e-07
5.20371e-07
4.53974e-07
5.68061e-07
4.61253e-07
2.50378
7.03981
11.7327
14.6608
15.518
14.8604
13.319
11.3373
9.1851
7.02435
4.97476
3.15263
1.67641
0.653558
0.147097
0.0277357
0.000628191
0.000229328
6.36321e-06
3.68667e-05
0.000153286
0.000149826
0.00011236
9.34195e-05
8.19841e-05
7.10792e-05
6.07829e-05
5.18515e-05
4.41792e-05
3.75145e-05
3.17037e-05
2.66707e-05
2.23606e-05
1.86719e-05
1.55486e-05
1.29078e-05
1.0679e-05
8.81056e-06
7.24609e-06
5.94015e-06
4.85549e-06
3.95605e-06
3.21711e-06
2.60709e-06
2.10724e-06
1.70247e-06
1.36665e-06
1.09757e-06
8.81853e-07
7.05762e-07
5.66394e-07
4.59945e-07
3.8038e-07
3.27426e-07
2.96122e-07
2.88007e-07
2.9199e-07
3.05229e-07
3.24579e-07
3.45406e-07
3.67305e-07
3.88739e-07
4.0748e-07
4.2531e-07
4.4159e-07
4.54143e-07
4.6825e-07
4.7168e-07
4.88704e-07
4.70988e-07
5.13572e-07
4.41702e-07
5.6094e-07
4.49902e-07
2.33384
5.64531
9.78608
13.1559
15.0156
15.4151
14.7252
13.3257
11.5076
9.47077
7.36072
5.30714
3.44379
1.90276
0.800383
0.209025
0.0372388
0.00222974
0.00122198
1.86656e-06
1.08114e-05
8.9193e-05
0.000132023
0.000105984
8.17372e-05
6.9925e-05
6.12261e-05
5.25528e-05
4.45069e-05
3.76126e-05
3.17551e-05
2.67119e-05
2.23732e-05
1.86506e-05
1.55011e-05
1.28445e-05
1.06072e-05
8.73334e-06
7.16503e-06
5.85655e-06
4.77105e-06
3.87203e-06
3.13433e-06
2.52665e-06
2.03027e-06
1.62953e-06
1.29891e-06
1.03565e-06
8.2621e-07
6.57707e-07
5.26759e-07
4.29879e-07
3.60915e-07
3.18583e-07
2.97353e-07
2.96368e-07
3.04234e-07
3.19274e-07
3.38072e-07
3.57743e-07
3.77603e-07
3.96786e-07
4.13196e-07
4.28783e-07
4.42943e-07
4.53394e-07
4.65686e-07
4.6722e-07
4.83239e-07
4.63179e-07
5.06568e-07
4.29699e-07
5.53699e-07
4.39136e-07
2.32065
4.53901
7.93795
11.2376
13.6643
14.9443
15.164
14.5453
13.3218
11.685
9.78537
7.75319
5.72146
3.83236
2.22563
1.02496
0.319904
0.0595427
0.00640803
0.00329618
0.000124323
5.34192e-06
1.81654e-05
9.28481e-05
0.000100274
7.57477e-05
5.95157e-05
5.12699e-05
4.47427e-05
3.81558e-05
3.20395e-05
2.67961e-05
2.23986e-05
1.86659e-05
1.54987e-05
1.28175e-05
1.05603e-05
8.67438e-06
7.0995e-06
5.78721e-06
4.69922e-06
3.79908e-06
3.06112e-06
2.45464e-06
1.96107e-06
1.56366e-06
1.23804e-06
9.80371e-07
7.77163e-07
6.16156e-07
4.93997e-07
4.06725e-07
3.48352e-07
3.1565e-07
3.02776e-07
3.06982e-07
3.17145e-07
3.32905e-07
3.50537e-07
3.68809e-07
3.86484e-07
4.0356e-07
4.17761e-07
4.31199e-07
4.43422e-07
4.51923e-07
4.62573e-07
4.62396e-07
4.77488e-07
4.55356e-07
4.99426e-07
4.1803e-07
5.46412e-07
4.28919e-07
2.33858
3.66987
6.29153
9.21231
11.7815
13.6138
14.5969
14.7837
14.2995
13.2803
11.8493
10.1177
8.19935
6.22298
4.33087
2.66456
1.35511
0.506462
0.117136
0.0171873
0.00156663
0.000667965
8.22576e-07
6.04267e-06
3.86013e-05
8.53342e-05
7.6496e-05
5.60467e-05
4.36929e-05
3.71434e-05
3.213e-05
2.72162e-05
2.26538e-05
1.87386e-05
1.54975e-05
1.28035e-05
1.05423e-05
8.64458e-06
7.05556e-06
5.73307e-06
4.63946e-06
3.73708e-06
2.9982e-06
2.3921e-06
1.90038e-06
1.50545e-06
1.1845e-06
9.32075e-07
7.35052e-07
5.81526e-07
4.68274e-07
3.90447e-07
3.42038e-07
3.17603e-07
3.11203e-07
3.18655e-07
3.29886e-07
3.45526e-07
3.61644e-07
3.78328e-07
3.93828e-07
4.08905e-07
4.21051e-07
4.32464e-07
4.42942e-07
4.49646e-07
4.58865e-07
4.57168e-07
4.71398e-07
4.47471e-07
4.92103e-07
4.06708e-07
5.3907e-07
4.19161e-07
2.23897
2.93832
4.83528
7.24138
9.65004
11.6891
13.1654
14.0153
14.2572
13.9483
13.1595
11.9633
10.4379
8.67793
6.80051
4.9397