/*--------------------------------*- C++ -*----------------------------------*\
| =========                 |                                                 |
| \\      /  F ield         | OpenFOAM: The Open Source CFD Toolbox           |
|  \\    /   O peration     | Version:  2312                                  |
|   \\  /    A nd           | Website:  www.openfoam.com                      |
|    \\/     M anipulation  |                                                 |
\*---------------------------------------------------------------------------*/
FoamFile
{
    version     2.0;
    format      ascii;
    arch        "LSB;label=32;scalar=64";
    class       volVectorField;
    location    "750";
    object      momentError;
}
// * * * * * * * * * * * * * * * * * * * * * * * * * * * * * * * * * * * * * //

dimensions      [0 1 -2 0 0 0 0];

internalField   nonuniform List<vector> 
11040
(
(-0.133244 0.600585 -6.61344e-16)
(-0.00594377 1.65629 -2.96807e-16)
(0.220081 0.561173 4.74831e-15)
(-0.00433563 -0.0792582 6.66555e-16)
(-0.0342617 0.0207724 3.8014e-15)
(-0.0418493 -0.0152975 -2.50305e-15)
(-0.0407683 -0.0105245 -5.97129e-15)
(-0.0423365 -0.0102819 -1.12124e-15)
(-0.0421702 -0.00944423 -3.9957e-16)
(-0.0398154 -0.00849527 2.1393e-15)
(-0.037749 -0.00699614 1.03992e-15)
(-0.0362987 -0.00642718 -5.77759e-16)
(-0.0329436 -0.00590771 -9.7338e-16)
(-0.0288714 -0.00472453 6.89557e-16)
(-0.0248576 -0.00400067 -4.04042e-16)
(-0.0204848 -0.00322052 -9.94395e-16)
(-0.0171993 -0.00273474 7.58487e-16)
(-0.0128632 -0.00243905 7.02321e-16)
(-0.00840454 -0.00211517 -2.57628e-16)
(-0.00456923 -0.00199628 -5.50521e-17)
(-0.000206209 -0.00191971 5.85386e-16)
(0.00345571 -0.00204031 -3.16372e-16)
(0.0068077 -0.00205197 2.63851e-16)
(0.00936889 -0.00201404 1.32607e-16)
(0.0105222 -0.00185034 -1.35422e-15)
(0.0103438 -0.00135403 -1.01991e-15)
(0.00861147 -0.000899947 -4.86741e-16)
(0.00372934 0.000210874 -3.48682e-16)
(-0.00453325 0.00265647 -1.14063e-15)
(-0.013794 0.00846425 4.95628e-16)
(-0.027133 0.00792279 1.13688e-15)
(-0.0645716 0.0143311 2.42622e-15)
(-0.0469402 0.0788954 2.98846e-15)
(0.0538066 0.311312 -2.53446e-16)
(0.114188 0.360797 1.7692e-15)
(-0.0847282 -0.110101 6.55205e-16)
(-0.23124 -0.310775 1.24634e-15)
(-0.147863 -0.0165389 -1.50495e-16)
(-0.0678835 0.0134953 -1.12875e-15)
(-0.0816071 -0.00361627 -1.34411e-15)
(-0.502983 0.0481289 -1.32806e-15)
(0.0817596 -0.445019 8.01574e-16)
(0.942352 0.607658 2.90646e-15)
(0.996114 1.07508 6.24427e-15)
(0.233113 0.420629 -1.1447e-15)
(0.00625821 -0.060289 -4.23869e-16)
(-0.0370382 -0.0112344 -4.89468e-17)
(-0.0385179 -0.01039 1.77496e-15)
(-0.0351825 -0.00378449 9.14563e-16)
(-0.0407317 -0.00569147 -1.63152e-16)
(-0.039711 -0.00603534 -7.95644e-16)
(-0.0378723 -0.00450503 1.73438e-15)
(-0.0371272 -0.00259929 1.22121e-15)
(-0.0334149 -0.00283116 1.33381e-15)
(-0.0283724 -0.00158446 -3.60196e-17)
(-0.02362 -0.000925614 -2.34284e-16)
(-0.0184445 -0.000576427 4.28305e-16)
(-0.0125443 -0.000218474 3.88478e-16)
(-0.00779086 -0.00031044 3.76098e-16)
(-0.00275323 -0.000278798 -1.92589e-17)
(0.00220282 -0.000575358 -8.71045e-17)
(0.00717257 -0.000973854 -2.30707e-16)
(0.0119275 -0.00139734 3.66303e-16)
(0.0154649 -0.00164431 2.36078e-16)
(0.017617 -0.00180286 3.21378e-16)
(0.0176389 -0.00169021 -3.68482e-16)
(0.0145967 -0.00103753 -6.68192e-16)
(0.0073394 0.000241618 7.10068e-16)
(-0.00439741 0.00232662 5.37342e-16)
(-0.0208073 0.00553286 -6.85777e-16)
(-0.0415039 0.0103957 -9.92459e-16)
(-0.0676721 0.0152382 -9.65331e-16)
(-0.0817804 0.0151591 -1.88717e-15)
(-0.123624 0.0206978 -1.03937e-16)
(-0.179357 0.0343574 1.11108e-15)
(-0.279453 0.0236885 -7.67204e-16)
(-0.309688 -0.0132101 1.91532e-16)
(-0.24116 0.0413844 -1.14893e-16)
(-0.282475 0.0579733 8.49888e-16)
(-0.274939 0.0599986 -6.36753e-16)
(-0.288812 0.0614542 -4.85092e-16)
(-0.708959 0.0707468 1.18148e-16)
(0.0229989 0.202098 1.5053e-16)
(0.485725 -0.387891 -1.33615e-15)
(0.876765 0.157386 -7.66417e-15)
(1.02335 1.35664 2.82233e-15)
(0.470741 0.658262 1.05065e-15)
(0.0338593 -0.0096906 4.6986e-16)
(-0.0330757 -0.0282553 1.65705e-15)
(-0.0264195 -0.00985128 3.82441e-16)
(-0.0232725 0.0014187 -4.57225e-16)
(-0.0272171 -0.00219859 -9.13525e-17)
(-0.0280015 -0.00443529 -1.37114e-15)
(-0.0290852 -0.00216682 5.64912e-16)
(-0.0262154 -0.00355742 -3.56005e-17)
(-0.0211306 -0.00252459 2.97576e-16)
(-0.01614 -0.00179045 7.5785e-16)
(-0.0103991 -0.00161765 -1.80177e-17)
(-0.00482658 -0.00106594 -2.8683e-16)
(0.000723977 -0.00105187 -6.03692e-17)
(0.00646747 -0.000891719 8.05382e-18)
(0.0118976 -0.00116998 1.47747e-16)
(0.0172849 -0.00152008 2.69553e-16)
(0.0227538 -0.00196805 -9.49668e-17)
(0.0269008 -0.00211618 1.25169e-16)
(0.0295669 -0.00213594 -2.96218e-16)
(0.0299338 -0.00179976 1.89455e-16)
(0.0274293 -0.000838313 5.66934e-16)
(0.0215306 0.0007545 -2.90555e-16)
(0.0119871 0.00322511 -3.63912e-16)
(-0.00126272 0.00642712 1.84341e-16)
(-0.0183283 0.0108034 7.15965e-16)
(-0.039139 0.016311 -3.19085e-16)
(-0.0660402 0.0223065 -2.50355e-16)
(-0.098052 0.0273472 1.34594e-17)
(-0.136088 0.0311361 1.40064e-16)
(-0.182815 0.0335629 -5.8848e-16)
(-0.230457 0.0462028 -1.49345e-15)
(-0.274134 0.0772113 6.71857e-17)
(-0.343077 0.0819961 5.33652e-16)
(-0.367661 0.0891472 7.94821e-17)
(-0.411238 0.0908318 8.28685e-16)
(-0.843352 0.0747163 1.31132e-16)
(0.118172 0.11318 -2.68488e-16)
(0.251397 -0.00834885 2.26679e-17)
(0.292128 -0.445829 1.74783e-15)
(0.673438 0.264871 -7.96688e-16)
(1.08802 1.25167 -1.57553e-15)
(0.677609 0.796151 2.56156e-15)
(0.122363 0.0853458 9.38436e-16)
(-0.0230713 -0.0293008 3.93501e-16)
(-0.0108356 -0.00200632 -2.68325e-16)
(-0.0165641 -0.00137268 5.09497e-16)
(-0.0135844 0.00115495 7.88605e-16)
(-0.0175434 0.00102258 -9.00276e-16)
(-0.0182471 -0.00272213 7.73027e-16)
(-0.0140303 -0.00294913 4.23099e-16)
(-0.00964639 -0.00229127 1.1353e-16)
(-0.00400796 -0.00267514 -4.06041e-16)
(0.00184374 -0.00216374 -3.80595e-16)
(0.00779335 -0.0023795 -2.1202e-16)
(0.0138561 -0.00221822 4.04562e-17)
(0.0196556 -0.00257814 -5.35531e-17)
(0.0253993 -0.00286623 -3.6623e-17)
(0.0315476 -0.00324858 -8.52085e-17)
(0.0364463 -0.00320053 -1.81524e-16)
(0.0400543 -0.00294485 -5.14788e-18)
(0.0416185 -0.00225752 -7.79248e-16)
(0.0405092 -0.000827558 -3.24967e-16)
(0.0360912 0.00127948 3.99901e-16)
(0.0277737 0.00441101 2.69407e-16)
(0.0149995 0.00840258 6.36001e-16)
(-0.00270087 0.0137793 -3.88983e-16)
(-0.0251359 0.0210091 5.0594e-16)
(-0.053084 0.0300405 -5.59083e-16)
(-0.0869293 0.0390486 -4.6296e-16)
(-0.129055 0.0470022 4.38267e-16)
(-0.180246 0.0569539 -1.23808e-16)
(-0.232743 0.0739212 -8.52266e-17)
(-0.28681 0.0924125 -5.46554e-16)
(-0.36449 0.0995707 4.55163e-16)
(-0.395177 0.123718 -2.18066e-16)
(-0.504025 0.112277 -9.35122e-17)
(-0.876804 0.0956332 7.10032e-16)
(0.115133 0.0480135 2.17751e-16)
(0.188509 0.0847506 -1.3994e-16)
(0.256465 -0.161094 -1.38278e-16)
(0.254371 -0.506002 8.66818e-16)
(0.601198 0.103324 1.95216e-16)
(1.05353 1.02767 -4.44942e-16)
(0.866145 0.914603 -5.93471e-16)
(0.295853 0.287247 -1.32714e-15)
(-0.00497326 -0.0447445 2.7268e-16)
(-0.00415525 -0.0105402 -9.43234e-17)
(-0.00643486 -0.000971007 4.36745e-16)
(-0.00324119 0.00633624 1.97407e-16)
(-0.00765238 0.000668087 -3.77384e-16)
(-0.00680186 -0.00306016 -6.1668e-16)
(-0.00430297 -0.0025282 2.01767e-16)
(0.000214843 -0.00385602 5.42578e-18)
(0.00557512 -0.00335566 -1.66395e-16)
(0.0113776 -0.00376361 -2.40933e-16)
(0.0174967 -0.00355673 -4.57665e-17)
(0.0235617 -0.00394531 4.86756e-17)
(0.029737 -0.00415276 1.34675e-16)
(0.0365741 -0.00445106 -2.62972e-16)
(0.0423191 -0.00419492 -5.54815e-17)
(0.0469588 -0.00365931 4.24108e-16)
(0.0497761 -0.00258677 2.48532e-16)
(0.0500502 -0.000656503 -2.54047e-16)
(0.0470217 0.00211432 2.50658e-16)
(0.0399209 0.00608585 1.93275e-16)
(0.028067 0.0111403 -3.70044e-16)
(0.0109596 0.0176894 2.23841e-16)
(-0.0110353 0.0261608 -3.451e-17)
(-0.0384943 0.0368141 7.59311e-16)
(-0.0724605 0.0479543 1.81832e-16)
(-0.115193 0.0586794 -6.12182e-17)
(-0.166792 0.0723704 1.41985e-16)
(-0.220549 0.0921666 2.97245e-16)
(-0.278308 0.11031 -1.25764e-16)
(-0.359602 0.118531 2.08845e-16)
(-0.415258 0.14828 7.74028e-17)
(-0.519194 0.144643 -2.29452e-16)
(-0.834304 0.123286 -2.11471e-16)
(0.126193 0.0409774 -3.9508e-17)
(0.135714 0.0259242 2.87032e-17)
(0.208709 0.0293285 7.10975e-17)
(0.229549 -0.235515 2.4499e-16)
(0.207742 -0.505887 -9.13121e-16)
(0.479473 -0.0862038 1.15255e-16)
(0.936135 0.737939 -5.54267e-16)
(0.994366 0.959321 -8.84745e-16)
(0.514267 0.484009 1.61242e-16)
(0.087269 0.0391253 -3.11054e-16)
(-0.0104173 -0.0343875 2.37835e-17)
(0.00619543 5.32165e-05 7.2803e-18)
(0.0012892 0.000317429 -2.45542e-17)
(0.00339566 0.000440356 -3.29019e-16)
(0.00248908 -0.00130416 1.44115e-17)
(0.00360732 -0.00501515 -1.84244e-16)
(0.00776726 -0.00458863 -1.08512e-16)
(0.0126869 -0.00536783 -8.60607e-17)
(0.018432 -0.00512629 -3.9475e-17)
(0.0244644 -0.00551588 5.69743e-17)
(0.0309398 -0.00561629 5.10821e-17)
(0.0383227 -0.00582608 3.1889e-17)
(0.0448307 -0.00532638 -3.05165e-18)
(0.0504103 -0.00446609 -1.78361e-16)
(0.0543681 -0.00291742 1.26974e-16)
(0.0559198 -0.000385487 4.86899e-16)
(0.054247 0.00318584 -4.08725e-16)
(0.0485049 0.00811365 -4.66737e-16)
(0.0379664 0.0143368 -1.6712e-16)
(0.0221304 0.0221355 1.83324e-16)
(0.00144057 0.0317979 3.56995e-16)
(-0.0245211 0.0438335 -1.18044e-16)
(-0.057191 0.05681 -2.46535e-16)
(-0.0982502 0.0701711 -3.70151e-16)
(-0.147427 0.0866992 -1.44495e-16)
(-0.199622 0.108394 5.84861e-16)
(-0.257228 0.12828 2.89613e-16)
(-0.335762 0.139941 -4.16643e-17)
(-0.40286 0.172059 4.37134e-16)
(-0.495167 0.172871 -2.89461e-16)
(-0.741309 0.157473 -1.92067e-16)
(0.112131 0.0305641 6.79156e-17)
(0.122218 0.0109224 -3.51532e-17)
(0.132795 0.0110663 -9.53643e-17)
(0.190482 -0.00772848 -4.09277e-16)
(0.190432 -0.223316 -3.4736e-16)
(0.158209 -0.478226 3.05556e-16)
(0.326923 -0.273105 3.81481e-16)
(0.745209 0.390964 -1.13705e-16)
(0.996787 0.827571 8.28004e-16)
(0.743863 0.65199 -4.60815e-16)
(0.274972 0.203923 2.44622e-16)
(0.0118122 -0.0331035 -6.58055e-17)
(0.0130085 -0.00887165 5.99719e-16)
(0.0105969 -0.00218365 -6.55429e-16)
(0.00981246 -0.0010108 1.34364e-16)
(0.010158 -0.00274898 -1.6548e-16)
(0.0110759 -0.00464736 -8.84401e-18)
(0.0132129 -0.00693176 8.53234e-17)
(0.018003 -0.00680014 -2.05506e-18)
(0.0234705 -0.00731569 -1.90272e-16)
(0.0299128 -0.00734388 1.87328e-16)
(0.0376062 -0.00751288 -1.4759e-16)
(0.044731 -0.00676151 -1.25201e-16)
(0.0511341 -0.00555599 2.02546e-16)
(0.0561497 -0.00346714 -1.36196e-16)
(0.0589407 -0.000243347 -1.49471e-16)
(0.0586838 0.00424122 -1.09498e-16)
(0.0545104 0.0102482 -8.58371e-17)
(0.0456532 0.0177447 -5.49361e-18)
(0.0315952 0.0268826 1.76638e-16)
(0.0126581 0.0376852 6.74584e-17)
(-0.0110939 0.0511541 1.64244e-16)
(-0.0414327 0.0659603 -2.22759e-16)
(-0.0794166 0.0818143 -3.8262e-16)
(-0.124469 0.100761 -1.94387e-16)
(-0.172966 0.123861 4.3275e-16)
(-0.227256 0.14565 1.35573e-17)
(-0.297767 0.161965 -9.69782e-18)
(-0.365233 0.193263 1.78773e-16)
(-0.447469 0.188805 2.50994e-16)
(-0.628043 0.20264 -1.80152e-16)
(0.0973359 0.0195225 -2.25452e-17)
(0.107863 0.00773205 6.97214e-17)
(0.102749 -0.0059659 -2.08288e-17)
(0.132601 -0.00719839 1.0271e-17)
(0.17096 -0.0300069 1.34207e-16)
(0.165271 -0.189147 6.11624e-16)
(0.120942 -0.429573 -4.93561e-16)
(0.203298 -0.415985 -8.16085e-16)
(0.545831 0.109896 1.55473e-16)
(0.875008 0.626686 4.45593e-16)
(0.886604 0.704149 1.46974e-15)
(0.514569 0.406801 -1.63799e-15)
(0.142109 0.0695117 6.68331e-16)
(0.00703449 -0.0322324 -1.52337e-16)
(0.0189876 -0.00664271 -3.98532e-16)
(0.0153744 -0.0040368 4.6267e-16)
(0.0159688 -0.0041817 3.08686e-17)
(0.0167099 -0.00572377 3.71001e-16)
(0.0186303 -0.00750138 -2.24219e-16)
(0.0219003 -0.00904765 -2.10046e-16)
(0.0276329 -0.00923169 2.71295e-16)
(0.0352446 -0.00954832 -7.88281e-17)
(0.0427815 -0.00861955 -1.83037e-16)
(0.0499018 -0.00711235 5.70324e-17)
(0.0559957 -0.00448205 7.64555e-17)
(0.0601414 -0.000513453 -6.15638e-17)
(0.0614945 0.00496019 -1.04281e-16)
(0.059192 0.012138 2.3719e-16)
(0.0524601 0.0210181 2.67854e-16)
(0.0407178 0.0316056 -1.50476e-16)
(0.0239616 0.0436434 -2.30296e-16)
(0.00302487 0.058497 -8.78422e-17)
(-0.0240875 0.0751414 1.7348e-16)
(-0.0579934 0.0932514 1.04836e-16)
(-0.0978318 0.114221 -4.00148e-17)
(-0.141064 0.138409 -1.23541e-16)
(-0.189341 0.161932 2.72045e-16)
(-0.248278 0.182382 -2.73238e-16)
(-0.308078 0.212011 5.45448e-17)
(-0.377537 0.219942 6.44723e-17)
(-0.512433 0.224907 1.84558e-16)
(0.0821094 0.0113224 -4.58059e-17)
(0.0918017 0.00207483 1.26026e-17)
(0.0869884 -0.00590992 -1.35204e-17)
(0.0970014 -0.0175709 -1.66845e-16)
(0.123393 -0.0242441 6.10779e-17)
(0.150133 -0.0409223 -6.06764e-18)
(0.145096 -0.149302 -1.31984e-16)
(0.0932934 -0.349738 5.02684e-16)
(0.0905524 -0.4409 -2.29437e-16)
(0.310314 -0.192989 6.60016e-16)
(0.660501 0.310272 4.43491e-17)
(0.891141 0.656166 -2.98387e-16)
(0.709544 0.518173 9.25967e-17)
(0.361104 0.247108 -2.9749e-16)
(0.0819391 0.0146755 -4.26143e-16)
(0.0135292 -0.0256606 4.42989e-17)
(0.0223968 -0.00783061 1.86226e-16)
(0.0199092 -0.00647178 3.05473e-16)
(0.0209587 -0.00726002 -3.84304e-17)
(0.0226991 -0.00853781 -2.54372e-16)
(0.0260395 -0.0102972 2.41649e-16)
(0.0321636 -0.0116256 1.23038e-17)
(0.0395646 -0.0108656 -4.3409e-17)
(0.0472038 -0.00924606 1.04714e-16)
(0.0544083 -0.00619274 1.4096e-16)
(0.0601328 -0.00152909 1.81208e-16)
(0.0634917 0.00493093 3.26025e-17)
(0.0635975 0.0133714 1.54692e-17)
(0.0596211 0.0237529 -1.15243e-16)
(0.0508743 0.0359389 6.03077e-18)
(0.037115 0.0495628 -1.349e-16)
(0.019461 0.0655649 4.15154e-17)
(-0.00350145 0.0840455 -6.58337e-17)
(-0.0324413 0.104145 -8.40205e-17)
(-0.0662597 0.126668 5.73596e-17)
(-0.103037 0.151533 8.66847e-17)
(-0.143277 0.176223 3.152e-17)
(-0.188767 0.19903 1.58953e-17)
(-0.235514 0.225741 -9.0809e-17)
(-0.286944 0.239048 1.64725e-16)
(-0.374531 0.239493 2.95364e-17)
(0.0677739 0.00467502 1.52044e-16)
(0.0763889 -0.002298 -4.46664e-17)
(0.0738491 -0.0081822 -1.43931e-16)
(0.0765119 -0.0156423 1.66896e-16)
(0.0905789 -0.0277585 6.6273e-18)
(0.110585 -0.0367462 2.17868e-17)
(0.130022 -0.0484613 4.5747e-16)
(0.127267 -0.115137 -8.85443e-16)
(0.0833419 -0.268827 -2.05778e-16)
(0.042355 -0.413505 1.54709e-15)
(0.137757 -0.308457 3.73364e-17)
(0.383431 -0.0332538 -1.25072e-16)
(0.715816 0.379594 -6.81792e-16)
(0.780675 0.530574 4.58203e-16)
(0.574617 0.38145 -1.08654e-15)
(0.26454 0.147749 2.36492e-16)
(0.0606688 -0.0055938 -4.6952e-17)
(0.0193723 -0.0226467 2.68154e-16)
(0.0250292 -0.00961038 -1.13731e-16)
(0.0236207 -0.00894603 -2.9466e-16)
(0.0255682 -0.0104533 1.87093e-16)
(0.0303493 -0.0120954 -6.14277e-17)
(0.0364729 -0.0125072 -8.44978e-17)
(0.0435925 -0.0116527 1.18599e-16)
(0.0514921 -0.00869905 1.09676e-16)
(0.0588721 -0.00364053 -1.02303e-16)
(0.0646469 0.0036794 5.73894e-17)
(0.0677966 0.0133296 1.12861e-16)
(0.0674016 0.0252507 4.65422e-17)
(0.0626743 0.0392381 -6.31492e-17)
(0.0531682 0.0548694 5.49027e-17)
(0.0394879 0.0719624 7.14243e-17)
(0.0219153 0.0923358 6.83672e-17)
(-0.00108662 0.114128 6.54204e-17)
(-0.0280576 0.137751 1.30029e-16)
(-0.0573543 0.162674 -1.46139e-16)
(-0.0882685 0.187301 5.12912e-17)
(-0.11981 0.20968 7.84362e-18)
(-0.15038 0.232429 9.94759e-18)
(-0.180614 0.243672 -2.19546e-17)
(-0.225474 0.23863 -2.77744e-17)
(0.0548812 -0.000289393 2.97386e-17)
(0.0620387 -0.00571915 1.05454e-16)
(0.0610323 -0.00980063 8.65681e-17)
(0.0629247 -0.0155098 -4.12325e-17)
(0.0672204 -0.0227645 -4.70039e-17)
(0.0808149 -0.034711 1.17201e-16)
(0.0956159 -0.0455145 9.2153e-17)
(0.109346 -0.0541685 -2.79044e-16)
(0.109712 -0.0906478 3.70218e-16)
(0.079545 -0.192132 -5.53992e-16)
(0.0251103 -0.34235 -1.12441e-15)
(0.0360246 -0.384999 -2.66167e-16)
(0.168767 -0.228502 3.9936e-16)
(0.438459 0.08382 -4.76482e-16)
(0.66814 0.363601 -4.47403e-16)
(0.672873 0.412637 6.19461e-16)
(0.47118 0.282723 -1.18185e-16)
(0.213109 0.0969496 6.71788e-16)
(0.0573077 -0.0104733 5.73746e-17)
(0.023226 -0.0217682 -3.63726e-16)
(0.0270935 -0.011998 4.04006e-17)
(0.0290496 -0.0124924 -3.51316e-17)
(0.0335523 -0.0133777 -1.92389e-17)
(0.0399453 -0.013207 -1.04559e-16)
(0.0477079 -0.0111275 2.36649e-16)
(0.0560326 -0.00666232 -1.46948e-17)
(0.064051 0.000738004 -8.88151e-17)
(0.0706135 0.0111138 4.44609e-19)
(0.0746574 0.0243914 -3.31583e-17)
(0.0752098 0.0403298 2.66876e-17)
(0.0714409 0.0582569 -1.44498e-16)
(0.0629414 0.0770828 2.54291e-17)
(0.0522591 0.0987214 8.82862e-17)
(0.0369454 0.122271 1.29166e-16)
(0.0181365 0.146766 9.18898e-17)
(-0.00254889 0.171085 -9.18751e-17)
(-0.0233966 0.194003 -1.08174e-16)
(-0.0417461 0.212884 -7.44694e-17)
(-0.0561708 0.228893 -1.90176e-16)
(-0.0651794 0.23224 -1.86343e-16)
(-0.075394 0.218595 -1.12594e-16)
(0.0435332 -0.0037995 7.90552e-17)
(0.0493454 -0.00817826 8.23965e-17)
(0.0490572 -0.011016 -1.50113e-16)
(0.0513206 -0.0155466 -4.39909e-17)
(0.0530698 -0.0205478 1.24793e-16)
(0.0594302 -0.0280804 -3.46783e-17)
(0.0697147 -0.0394979 -1.04698e-16)
(0.0802049 -0.0508613 3.61632e-17)
(0.0898092 -0.0589463 1.02119e-15)
(0.0924336 -0.0771889 -3.5099e-16)
(0.0752781 -0.133949 -8.51493e-16)
(0.0305651 -0.239892 1.03423e-15)
(-0.00766364 -0.3379 4.87083e-16)
(0.0278828 -0.327103 6.70518e-17)
(0.189353 -0.155933 1.34036e-16)
(0.410981 0.10661 -3.50972e-16)
(0.604149 0.320556 -1.17202e-16)
(0.568951 0.314317 2.22463e-16)
(0.402212 0.218136 5.24307e-16)
(0.191038 0.0741202 -7.29754e-16)
(0.063106 -0.00919537 2.49235e-17)
(0.0313917 -0.0235933 -2.12706e-17)
(0.0319614 -0.0175798 -6.34015e-17)
(0.0365332 -0.0147696 -3.72801e-17)
(0.0427658 -0.0132052 1.6802e-16)
(0.0509908 -0.00995335 8.49681e-17)
(0.0606396 -0.00350366 -1.5347e-16)
(0.0702547 0.00642288 -7.46163e-17)
(0.0788589 0.0199041 2.86842e-17)
(0.0854031 0.0368505 -3.26612e-17)
(0.0887463 0.056572 5.88752e-17)
(0.0882185 0.0780976 -3.053e-17)
(0.0846315 0.100831 5.18346e-17)
(0.0796468 0.126025 -1.28008e-17)
(0.0712891 0.151257 -1.12348e-16)
(0.0611624 0.174551 -2.33701e-17)
(0.0514755 0.194658 2.20516e-17)
(0.0440175 0.207686 6.51066e-17)
(0.0426741 0.2143 -2.11062e-17)
(0.0507554 0.206321 -4.5876e-17)
(0.0637156 0.180608 -1.67861e-17)
(0.033949 -0.00605941 -6.48729e-17)
(0.0384536 -0.00964448 4.19252e-17)
(0.0384609 -0.011717 -7.75924e-18)
(0.040631 -0.0152475 -1.42527e-16)
(0.042418 -0.019335 1.53649e-17)
(0.0446125 -0.0238987 6.87851e-17)
(0.0507058 -0.0314333 -1.23894e-16)
(0.0580298 -0.0418787 -2.20988e-16)
(0.0650476 -0.052923 2.10327e-17)
(0.0715017 -0.0614799 -2.78281e-16)
(0.0747561 -0.0714293 3.98161e-16)
(0.0663727 -0.0989895 5.35921e-17)
(0.0369087 -0.163246 -2.59213e-16)
(-0.0083934 -0.254085 -2.8507e-16)
(-0.0354497 -0.320512 3.32558e-16)
(0.0421299 -0.235677 4.50082e-16)
(0.159394 -0.128153 -1.51531e-15)
(0.358045 0.0807056 1.2346e-15)
(0.506202 0.248133 1.98193e-16)
(0.480879 0.236887 -5.26151e-16)
(0.354261 0.171662 3.48987e-16)
(0.199716 0.0699204 -1.08891e-16)
(0.0915771 -0.000435049 -9.86979e-17)
(0.0523314 -0.0245428 -5.64854e-17)
(0.0456386 -0.0232646 2.68132e-16)
(0.0467272 -0.0165414 9.83044e-18)
(0.0531164 -0.0094136 -3.08607e-17)
(0.0641619 -0.000618793 -1.84385e-16)
(0.0762489 0.0115608 1.11677e-16)
(0.0883722 0.0276782 2.08193e-16)
(0.0994742 0.0475815 -1.99278e-17)
(0.1085 0.0703228 -7.24477e-17)
(0.114334 0.094293 -2.63886e-17)
(0.1189 0.119056 -7.40264e-18)
(0.123988 0.145401 -1.14219e-16)
(0.127049 0.169074 4.10081e-17)
(0.129833 0.186925 -1.8711e-18)
(0.132516 0.193737 -5.18083e-17)
(0.14128 0.190522 4.09606e-18)
(0.158248 0.170732 3.92459e-17)
(0.180345 0.133145 4.5823e-17)
(0.026011 -0.00731076 7.55874e-17)
(0.0293687 -0.0102948 -5.75226e-17)
(0.029447 -0.0118494 -6.80784e-17)
(0.0312441 -0.014679 -2.19304e-17)
(0.0328795 -0.0178911 1.62114e-16)
(0.0342729 -0.0212918 -1.80871e-17)
(0.036399 -0.0257273 6.49354e-17)
(0.041627 -0.0331407 1.76224e-16)
(0.0465211 -0.0422505 7.24232e-17)
(0.0509528 -0.0522501 -5.38826e-16)
(0.0548209 -0.0609818 -2.90777e-16)
(0.0570973 -0.0676432 -8.84301e-17)
(0.0539824 -0.079929 -5.31642e-16)
(0.03781 -0.112124 3.9808e-16)
(0.00457855 -0.171047 1.41005e-15)
(-0.0411203 -0.252184 -7.5992e-16)
(-0.0476368 -0.284293 -2.0695e-16)
(0.0292186 -0.185591 3.04124e-16)
(0.111735 -0.113336 -3.37416e-16)
(0.277599 0.0422083 9.62512e-16)
(0.399698 0.169805 -1.75753e-16)
(0.418654 0.18 -4.83983e-16)
(0.35464 0.151734 -7.08454e-16)
(0.248737 0.0875301 3.5644e-16)
(0.152138 0.0266014 3.96487e-16)
(0.0963325 -0.0104645 3.53649e-17)
(0.0771826 -0.0202747 3.3488e-17)
(0.0745491 -0.0150301 1.65394e-17)
(0.0792112 -0.00285295 1.37638e-17)
(0.0879514 0.0130354 1.01606e-16)
(0.0983656 0.0311447 8.04575e-17)
(0.111886 0.0511609 -1.47583e-16)
(0.128917 0.0752424 1.85774e-17)
(0.143659 0.0998259 -2.10216e-17)
(0.159745 0.124498 -6.92798e-17)
(0.178758 0.146995 5.68454e-18)
(0.195876 0.165048 1.11755e-16)
(0.209992 0.170126 -5.87309e-17)
(0.227145 0.162007 -3.30584e-17)
(0.248092 0.135198 -1.99373e-17)
(0.270341 0.0881422 1.28647e-17)
(0.0195851 -0.00779416 -2.56461e-17)
(0.0219591 -0.0102871 4.41539e-17)
(0.0219716 -0.0114919 1.71165e-17)
(0.0233269 -0.013785 8.46594e-17)
(0.024633 -0.016337 -7.69238e-17)
(0.0258022 -0.0190578 3.51561e-17)
(0.0268814 -0.0220216 4.54223e-18)
(0.0293354 -0.026893 -4.81746e-17)
(0.0327082 -0.033391 1.83683e-16)
(0.0357836 -0.0409762 1.7209e-16)
(0.0382504 -0.0494789 -4.72652e-16)
(0.0399375 -0.057478 8.4707e-16)
(0.0409628 -0.0636913 7.52416e-16)
(0.0398031 -0.0697751 -7.46006e-16)
(0.0322499 -0.083151 -4.67231e-16)
(0.0134103 -0.112009 -3.57104e-16)
(-0.0192842 -0.159591 8.30254e-16)
(-0.0595241 -0.221085 -8.0538e-16)
(-0.0628683 -0.239251 1.77995e-16)
(-0.00175321 -0.159491 4.01187e-16)
(0.0547047 -0.111988 -2.70528e-16)
(0.192675 -0.00113141 -2.77236e-16)
(0.2967 0.0899302 1.26569e-16)
(0.339007 0.118913 1.85732e-16)
(0.328971 0.119067 -3.08341e-16)
(0.285748 0.0951488 7.03627e-17)
(0.226152 0.0616335 2.91059e-16)
(0.170471 0.0286912 -5.09165e-16)
(0.13698 0.0107566 1.38768e-16)
(0.125132 0.00922296 1.45324e-16)
(0.126793 0.019356 -4.20156e-17)
(0.135979 0.0362935 -1.35893e-16)
(0.149128 0.0565976 4.10027e-17)
(0.163135 0.0774778 1.77447e-16)
(0.177002 0.0966861 2.69905e-17)
(0.191195 0.113373 -6.05296e-18)
(0.215748 0.127856 -5.22855e-17)
(0.247218 0.137121 -3.09063e-17)
(0.276788 0.132838 -6.99045e-17)
(0.305127 0.109553 1.80974e-17)
(0.328488 0.0635471 5.09732e-17)
(0.0144851 -0.00769816 -3.50498e-17)
(0.0160643 -0.0098113 4.28233e-17)
(0.0159463 -0.0107632 -3.55559e-17)
(0.0168567 -0.0126231 -1.44708e-16)
(0.0177722 -0.0146606 3.19485e-17)
(0.0186643 -0.0168195 -5.64453e-17)
(0.0194516 -0.0192007 -4.31671e-17)
(0.0203384 -0.0221138 3.33638e-17)
(0.0223113 -0.0267543 -5.15706e-17)
(0.0243616 -0.0322918 8.09088e-18)
(0.0260419 -0.0384519 -3.14663e-16)
(0.0270131 -0.0451156 2.87352e-16)
(0.0273306 -0.0519746 -2.12669e-16)
(0.0271401 -0.0578777 -6.9747e-16)
(0.0261503 -0.0623199 9.46251e-16)
(0.0226039 -0.067678 3.71305e-16)
(0.0131993 -0.0792448 2.0593e-16)
(-0.00521562 -0.101509 -6.8629e-18)
(-0.0336717 -0.135517 -1.88077e-16)
(-0.0680691 -0.179242 -1.52664e-16)
(-0.0760192 -0.187871 -7.19698e-17)
(-0.0390638 -0.149124 1.9402e-16)
(-0.00716565 -0.125937 -3.9754e-16)
(0.0770117 -0.0628368 -1.43292e-17)
(0.131375 -0.00425626 1.6235e-16)
(0.210764 0.051106 -1.564e-16)
(0.233195 0.0660966 -4.05943e-16)
(0.239453 0.0683737 5.05814e-16)
(0.2304 0.0648519 5.20986e-16)
(0.212078 0.0558377 -4.04461e-16)
(0.194079 0.0495217 -1.15425e-16)
(0.184083 0.0500795 -6.59797e-17)
(0.184991 0.0589816 -8.51494e-17)
(0.194224 0.0738052 2.87195e-16)
(0.209759 0.0908386 -1.04402e-16)
(0.22888 0.105946 -4.7245e-17)
(0.249155 0.115756 6.90567e-17)
(0.263933 0.11637 -4.60066e-18)
(0.28473 0.110997 7.33998e-17)
(0.301829 0.0932769 6.12438e-17)
(0.325004 0.0643273 2.47351e-19)
(0.0104183 -0.00727235 3.11563e-18)
(0.0114033 -0.00907303 5.3177e-17)
(0.0111662 -0.00983281 1.97028e-17)
(0.0116966 -0.0113366 -2.10684e-17)
(0.0122612 -0.0129563 -5.78812e-17)
(0.0128373 -0.014671 -7.00839e-19)
(0.0133791 -0.0165544 4.8416e-17)
(0.0138573 -0.0186301 4.74994e-17)
(0.0145397 -0.0215011 -5.21584e-18)
(0.0158382 -0.0256532 -9.89286e-17)
(0.0168743 -0.0301797 -2.42147e-16)
(0.0175042 -0.0349057 2.18024e-16)
(0.0175923 -0.04002 -2.81466e-16)
(0.0170833 -0.0453727 -2.09429e-16)
(0.0160884 -0.0503898 3.61787e-16)
(0.0147042 -0.0542985 2.3753e-16)
(0.0124931 -0.0571577 3.38575e-16)
(0.00795092 -0.0609887 -5.86036e-16)
(-0.00118931 -0.0690472 -3.2001e-16)
(-0.0168614 -0.0835004 1.01714e-15)
(-0.0394894 -0.105204 -5.1882e-16)
(-0.0679067 -0.138036 -1.13873e-16)
(-0.0783137 -0.144026 1.12134e-16)
(-0.0844 -0.152045 -3.40614e-16)
(-0.0426901 -0.0959644 5.53045e-16)
(-0.0439704 -0.087143 -3.56142e-16)
(0.00803811 -0.0620941 -4.4384e-16)
(0.0447804 -0.0212117 2.21387e-16)
(0.0765848 0.00297216 1.62726e-16)
(0.102219 0.016992 6.99645e-16)
(0.118108 0.0256654 -4.02725e-16)
(0.131124 0.0311838 -3.26235e-16)
(0.143705 0.0371948 2.11989e-16)
(0.157756 0.0454245 1.36541e-17)
(0.176013 0.0567426 -5.22173e-17)
(0.199304 0.0702532 3.52318e-17)
(0.226815 0.0839216 4.16919e-18)
(0.253345 0.093996 4.98341e-17)
(0.282376 0.0988646 -5.3757e-17)
(0.308269 0.0935746 1.54518e-17)
(0.338081 0.0746186 -2.07286e-17)
(0.00782819 -0.00699551 -2.26381e-17)
(0.00829771 -0.0084886 1.9068e-17)
(0.00793888 -0.00911645 5.59329e-18)
(0.00812678 -0.0103115 -6.52017e-19)
(0.00835739 -0.0115701 7.90029e-17)
(0.0086143 -0.0128972 -2.22107e-17)
(0.00887168 -0.0143431 -9.74102e-17)
(0.0090909 -0.0159349 6.38489e-17)
(0.00930153 -0.0177314 2.66462e-16)
(0.00983102 -0.0206682 -3.06584e-16)
(0.0103794 -0.0241588 -4.60262e-17)
(0.0106888 -0.027739 4.75444e-16)
(0.0106739 -0.0314734 -3.39002e-16)
(0.0102247 -0.0353647 1.20569e-16)
(0.00929445 -0.0393796 -6.26676e-17)
(0.00792248 -0.043298 -7.58322e-16)
(0.00623323 -0.0466272 1.32329e-15)
(0.0042862 -0.0488784 4.0825e-16)
(0.0016795 -0.0502437 -1.13213e-15)
(-0.00270924 -0.0520947 9.76748e-16)
(-0.0103956 -0.0565278 -8.19027e-17)
(-0.023645 -0.0680226 -7.77895e-16)
(-0.0407142 -0.0819563 1.30649e-16)
(-0.0579261 -0.0940559 3.36396e-16)
(-0.0778797 -0.109081 -5.85398e-16)
(-0.0815974 -0.103636 2.96698e-17)
(-0.0849909 -0.0970244 1.06769e-16)
(-0.0803128 -0.0819886 5.69559e-17)
(-0.0690792 -0.0637206 -4.25315e-16)
(-0.0536189 -0.0440129 3.60464e-16)
(-0.0362743 -0.0264715 5.25789e-16)
(-0.0191628 -0.0136409 -7.89379e-17)
(-0.00366605 -0.00633559 -1.93412e-16)
(0.0105185 -0.00352621 -3.4429e-16)
(0.0253923 -0.00310677 7.68385e-17)
(0.0433387 -0.00323981 2.21887e-17)
(0.0656207 -0.00290033 5.82557e-17)
(0.0914878 -0.001301 1.82519e-17)
(0.122142 0.000174369 7.60019e-17)
(0.154336 0.000754413 4.77537e-17)
(0.194087 -0.00289159 -3.26711e-17)
(0.00598289 -0.00657401 -2.72838e-17)
(0.00609905 -0.00780367 -3.88655e-17)
(0.00567229 -0.00832408 -3.11121e-18)
(0.0056314 -0.00927396 6.38734e-17)
(0.00564095 -0.0102602 4.21585e-17)
(0.00567666 -0.0112945 -2.84613e-17)
(0.00572457 -0.0124202 -3.06842e-18)
(0.00576131 -0.0136477 2.92571e-17)
(0.00577242 -0.0149945 -1.47212e-16)
(0.00580323 -0.0167964 -3.94488e-17)
(0.00603975 -0.0195836 4.79119e-16)
(0.00606695 -0.0224288 9.45235e-17)
(0.00590839 -0.0253353 -6.99416e-16)
(0.00547359 -0.0282865 1.75416e-16)
(0.00470864 -0.0312617 2.18608e-16)
(0.00358 -0.0342364 -9.57731e-16)
(0.00208712 -0.0371426 1.50994e-17)
(0.000295861 -0.0397608 4.99933e-16)
(-0.0016534 -0.0417225 5.80562e-16)
(-0.00372515 -0.0427 -3.57501e-16)
(-0.00606794 -0.04298 1.51515e-16)
(-0.0102927 -0.0460654 3.5454e-16)
(-0.0160407 -0.0492029 -6.53684e-16)
(-0.0240068 -0.0539509 -2.27682e-16)
(-0.033267 -0.0590738 7.28466e-17)
(-0.0437904 -0.0644031 2.23063e-16)
(-0.053632 -0.0683294 -1.15969e-16)
(-0.0610593 -0.0687154 2.31544e-16)
(-0.0653784 -0.0650331 -1.26879e-16)
(-0.0661131 -0.057758 -4.0233e-17)
(-0.0636899 -0.0479677 2.61228e-16)
(-0.0589361 -0.0375697 -1.93388e-16)
(-0.0527932 -0.0283851 -7.83218e-17)
(-0.0457554 -0.0218851 2.9208e-16)
(-0.0385148 -0.0193456 -3.22206e-16)
(-0.0314243 -0.0213945 1.98593e-16)
(-0.0247988 -0.0279646 1.33446e-16)
(-0.0183111 -0.0382812 -2.29176e-16)
(-0.0160521 -0.0528279 5.05687e-17)
(-0.000235763 -0.0626408 8.68985e-17)
(0.0110791 -0.080703 1.39035e-17)
(0.0045801 -0.00605027 -6.96655e-18)
(0.00447091 -0.00706624 -1.80039e-17)
(0.00400507 -0.00749691 -8.20406e-18)
(0.0038277 -0.00825358 3.30322e-17)
(0.0036953 -0.00903001 1.24643e-19)
(0.0035931 -0.00984462 -9.08044e-18)
(0.0035016 -0.010729 -4.50189e-18)
(0.00341466 -0.0116919 1.05067e-17)
(0.00330367 -0.0127426 4.10814e-17)
(0.00318937 -0.0139352 -4.51881e-17)
(0.00311349 -0.0159801 6.2967e-17)
(0.00294953 -0.0182612 -7.36637e-17)
(0.00265244 -0.0205742 5.71173e-17)
(0.00218135 -0.0229002 3.19877e-16)
(0.00149026 -0.0252078 -4.06489e-16)
(0.000561819 -0.0274675 -1.93505e-16)
(-0.000623432 -0.0296448 -1.01641e-16)
(-0.00207183 -0.0317142 7.50408e-17)
(-0.00374151 -0.0335934 2.83569e-16)
(-0.0055712 -0.0351017 -1.35077e-16)
(-0.00731498 -0.0360479 -3.97456e-16)
(-0.00967274 -0.0384033 3.18924e-16)
(-0.0119456 -0.039559 3.44013e-16)
(-0.0145771 -0.0405905 -5.78389e-16)
(-0.0178689 -0.0418885 2.48585e-16)
(-0.0218917 -0.0436244 1.7927e-16)
(-0.0264612 -0.0457595 -3.01194e-16)
(-0.0311261 -0.0478549 5.53073e-16)
(-0.0352089 -0.0493748 -1.50431e-16)
(-0.0380659 -0.0497847 -4.42571e-16)
(-0.0391862 -0.0487179 -9.79677e-19)
(-0.0382771 -0.0461137 4.9334e-16)
(-0.0353949 -0.0422974 -3.97185e-16)
(-0.030903 -0.0379666 -1.32481e-16)
(-0.0256348 -0.034357 2.80836e-16)
(-0.020424 -0.0325586 2.28822e-17)
(-0.0157961 -0.0334117 -5.16344e-17)
(-0.011228 -0.0370728 -2.63846e-17)
(1.63276e-05 -0.0381104 2.34385e-17)
(-0.0204507 -0.0608226 -3.46407e-18)
(-0.00938428 -0.071831 4.28e-17)
(0.00349472 -0.00549873 1.38076e-17)
(0.00325375 -0.00632881 -2.33032e-17)
(0.00276878 -0.00668399 -4.84107e-18)
(0.00251016 -0.00728766 -1.63107e-18)
(0.00228833 -0.0078981 1.86721e-17)
(0.00209746 -0.0085418 -1.38303e-17)
(0.00191721 -0.00923923 2.01916e-17)
(0.00174299 -0.00999958 2.27846e-17)
(0.00155918 -0.010829 -5.91974e-17)
(0.001359 -0.0117499 -3.97232e-17)