/*--------------------------------*- C++ -*----------------------------------*\
| =========                 |                                                 |
| \\      /  F ield         | OpenFOAM: The Open Source CFD Toolbox           |
|  \\    /   O peration     | Version:  2312                                  |
|   \\  /    A nd           | Website:  www.openfoam.com                      |
|    \\/     M anipulation  |                                                 |
\*---------------------------------------------------------------------------*/
FoamFile
{
    version     2.0;
    format      ascii;
    arch        "LSB;label=32;scalar=64";
    class       volScalarField;
    location    "750";
    object      nut;
}
// * * * * * * * * * * * * * * * * * * * * * * * * * * * * * * * * * * * * * //

dimensions      [0 2 -1 0 0 0 0];

internalField   nonuniform List<scalar> 
11040
(
3.80225e-05
5.48787e-05
1.53324e-05
4.92119e-05
0.000188846
0.000181542
0.00017193
0.000161798
0.000149303
0.000141541
0.000133582
0.000126643
0.000120371
0.000115462
0.000111257
0.000109006
0.000108782
0.000110533
0.000113787
0.000118328
0.000124237
0.00013131
0.000139273
0.000147927
0.000157369
0.000168553
0.000181411
0.000194062
0.000205946
0.000216488
0.000225062
0.000231015
0.000235043
0.000241226
0.000259595
0.000251071
0.000175358
0.000181237
0.000200375
0.000221021
0.000297308
4.21794e-06
3.70374e-05
5.59662e-05
0.000144234
0.000603314
0.000627806
0.000552371
0.000508206
0.000442432
0.000406874
0.000370495
0.000342046
0.00031524
0.000294987
0.000276053
0.000262865
0.000256409
0.000255629
0.000257848
0.000261832
0.00026773
0.000275622
0.000283926
0.000291479
0.000299158
0.000314248
0.000341637
0.000373576
0.00040957
0.000449733
0.000494291
0.000543614
0.000596931
0.000655892
0.000722888
0.000791903
0.000861612
0.000953902
0.00106371
0.00115529
0.00162684
5.51829e-06
9.48975e-06
3.01966e-05
6.57614e-05
0.000415278
0.000968887
0.0011881
0.00114663
0.00100463
0.000929624
0.000847434
0.000786654
0.000727121
0.000683523
0.000641693
0.000608281
0.000582805
0.000563281
0.000551839
0.00054749
0.000551677
0.000565386
0.000589348
0.000624401
0.000670622
0.000727841
0.000795836
0.000874126
0.000962368
0.00106
0.0011661
0.00127994
0.00140109
0.00153023
0.00166859
0.00181679
0.00198079
0.00218313
0.00242944
0.00267672
0.00351831
6.48409e-06
5.17205e-06
1.07019e-05
1.12855e-05
0.000140206
0.000599439
0.00131027
0.00171085
0.00177963
0.00168806
0.00154499
0.00144547
0.00134118
0.0012644
0.00118951
0.00112708
0.00108113
0.00104465
0.00102271
0.00101367
0.00101932
0.00104262
0.0010861
0.00115093
0.00123657
0.00134195
0.00146615
0.00160818
0.00176715
0.00194205
0.00213137
0.00233374
0.00254813
0.00277482
0.00301474
0.00327071
0.00355534
0.00390007
0.00432273
0.00478998
0.00597858
6.20559e-06
5.7667e-06
6.41375e-06
5.41472e-06
4.92334e-06
0.00017878
0.000713302
0.00156825
0.00226093
0.00246902
0.00247959
0.00237283
0.00220984
0.00209268
0.00197916
0.00187639
0.00180413
0.00174465
0.00170784
0.00169208
0.00169746
0.00172954
0.00179449
0.00189421
0.00202797
0.00219446
0.00239201
0.00261841
0.00287169
0.00314997
0.00345023
0.0037697
0.0041063
0.0044598
0.00483076
0.00522326
0.00565414
0.00616978
0.00680343
0.00754673
0.00904425
6.09599e-06
6.18825e-06
5.89579e-06
6.59641e-06
1.69028e-06
9.31352e-07
0.000174272
0.000735667
0.00172376
0.00274142
0.00321338
0.0033819
0.00336924
0.00326037
0.00308456
0.00292262
0.00281561
0.00272432
0.00266455
0.0026387
0.00264126
0.00267974
0.00276736
0.00290788
0.00310017
0.00334318
0.00363437
0.00396951
0.00434434
0.00475584
0.00519854
0.00566709
0.0061576
0.0066688
0.00720018
0.00775627
0.00835836
0.00906553
0.00993736
0.011
0.0128158
6.10526e-06
6.13775e-06
6.01369e-06
6.35541e-06
5.91803e-06
4.24087e-07
3.76537e-09
0.000121465
0.000664392
0.00171822
0.00302583
0.00396394
0.00434143
0.00448462
0.00447639
0.00437555
0.00422785
0.00407685
0.00398153
0.00394132
0.00393911
0.00397959
0.00408822
0.00427335
0.00453294
0.00486709
0.00527305
0.00574389
0.0062704
0.00684842
0.00746879
0.00812164
0.00879979
0.0095003
0.0102204
0.0109633
0.011754
0.0126626
0.0137841
0.0151873
0.017366
6.11449e-06
6.11199e-06
6.13178e-06
6.04944e-06
6.56634e-06
6.03056e-06
1.80969e-08
3.58017e-11
5.36562e-05
0.000516411
0.00153002
0.00303642
0.00450718
0.00532159
0.00568794
0.00583249
0.00585928
0.00580983
0.00574109
0.00568407
0.00568019
0.00573482
0.00586819
0.00610279
0.0064362
0.00687282
0.00741256
0.00804743
0.00875717
0.009537
0.010373
0.0112477
0.0121477
0.0130679
0.0140015
0.0149473
0.0159329
0.0170363
0.0183899
0.0201193
0.0226656
6.1128e-06
6.11639e-06
6.11227e-06
6.13144e-06
5.99839e-06
7.16306e-06
5.3658e-06
1.08244e-07
3.39822e-07
6.37696e-07
0.000317744
0.00118721
0.00272634
0.00461908
0.00614723
0.00691024
0.00731263
0.00751717
0.007641
0.0077237
0.00782132
0.00795997
0.00818207
0.00851679
0.00896531
0.00952763
0.0102113
0.011022
0.0119445
0.0129599
0.01405
0.0151852
0.0163397
0.0175058
0.0186722
0.0198257
0.0209955
0.0222694
0.0237908
0.0257747
0.0286289
6.11198e-06
6.11361e-06
6.11336e-06
6.11918e-06
6.09844e-06
6.04778e-06
7.35584e-06
4.88093e-06
4.61337e-07
1.51704e-08
2.4272e-05
0.00012752
0.000778263
0.00215133
0.00420873
0.00642316
0.00800491
0.00882051
0.00933726
0.00970205
0.0100382
0.010389
0.0108168
0.0113663
0.012058
0.0128929
0.0138612
0.0149456
0.0161278
0.0174048
0.0187774
0.0202041
0.0216341
0.0230555
0.0244601
0.0258081
0.0271233
0.0285093
0.0300968
0.0321787
0.0351693
6.11068e-06
6.11169e-06
6.11311e-06
6.10901e-06
6.12663e-06
6.05505e-06
6.18026e-06
7.0442e-06
5.88273e-06
1.33424e-06
7.0242e-09
5.89485e-07
2.33285e-07
0.000371595
0.00141673
0.00332485
0.00588604
0.00843216
0.0101825
0.011194
0.0119672
0.0126463
0.0133647
0.0142052
0.0152222
0.0164353
0.0178413
0.0194234
0.0211478
0.0229671
0.0248183
0.0266273
0.0283471
0.0300103
0.0316513
0.0331637
0.0345405
0.0359489
0.0374805
0.0393862
0.0421833
6.10922e-06
6.11017e-06
6.11009e-06
6.11069e-06
6.10844e-06
6.11724e-06
6.06211e-06
6.16986e-06
6.76394e-06
6.5882e-06
2.89457e-06
2.39499e-09
1.25741e-09
2.61964e-05
9.80538e-05
0.000724746
0.00218735
0.00461722
0.00769741
0.010689
0.0128287
0.0142109
0.0153857
0.0165853
0.0179528
0.0195548
0.0214086
0.0235131
0.025837
0.0283267
0.0309142
0.0335193
0.0360514
0.0384189
0.0405067
0.0421871
0.0434906
0.0448157
0.0461446
0.0476019
0.0497688
6.10789e-06
6.10845e-06
6.10839e-06
6.10824e-06
6.10817e-06
6.10779e-06
6.10899e-06
6.0783e-06
6.12961e-06
6.53342e-06
7.02563e-06
4.35614e-06
1.99067e-07
1.92583e-09
1.30591e-07
9.98469e-05
0.000221955
0.00110564
0.00296239
0.00590056
0.00957534
0.0131382
0.0158233
0.0177894
0.0196396
0.0216566
0.0239193
0.0264827
0.0293367
0.0324263
0.0356809
0.039018
0.0423417
0.0455564
0.0485593
0.0512363
0.053488
0.0552355
0.0563654
0.0571092
0.0585308
6.10669e-06
6.10698e-06
6.10703e-06
6.10703e-06
6.10699e-06
6.10652e-06
6.10658e-06
6.10645e-06
6.08825e-06
6.09528e-06
6.33167e-06
7.07981e-06
5.94024e-06
1.57004e-06
3.10984e-10
6.85256e-11
1.35445e-06
0.000169863
0.000346909
0.00142771
0.00361581
0.00687772
0.0107671
0.0148068
0.0184788
0.0215757
0.0244244
0.0274404
0.0307602
0.034352
0.0381607
0.0421184
0.0461228
0.050075
0.0538722
0.0574136
0.0606087
0.0633957
0.0657032
0.0674984
0.0688252
6.10563e-06
6.10636e-06
6.10655e-06
6.10658e-06
6.10639e-06
6.1061e-06
6.10567e-06
6.10583e-06
6.10529e-06
6.09764e-06
6.07123e-06
6.20914e-06
6.81894e-06
6.77018e-06
4.42695e-06
2.91066e-07
3.0525e-09
1.11139e-12
5.71268e-06
0.000215109
0.000407945
0.00151867
0.00353063
0.00650168
0.0102783
0.0146204
0.019258
0.0238929
0.0283253
0.0326137
0.0369569
0.0414607
0.0460762
0.0506956
0.0552099
0.0595193
0.0635444
0.0672468
0.0705586
0.0734207
0.0758245
6.10477e-06
6.10603e-06
6.10608e-06
6.10586e-06
6.10559e-06
6.10521e-06
6.10489e-06
6.1046e-06
6.10457e-06
6.10479e-06
6.10143e-06
6.07016e-06
6.13928e-06
6.41008e-06
7.11679e-06
5.93861e-06
2.96274e-06
1.46955e-08
5.7381e-10
9.74638e-14
8.55647e-06
0.000188376
0.00023541
0.000994854
0.00243717
0.00469285
0.00779832
0.0117252
0.0163981
0.0217133
0.0274952
0.0334651
0.039336
0.0449632
0.050332
0.0554632
0.060351
0.0649815
0.0692865
0.0731938
0.0766736
6.10402e-06
6.10534e-06
6.10509e-06
6.10456e-06
6.10408e-06
6.10371e-06
6.10344e-06
6.10323e-06
6.10325e-06
6.10315e-06
6.10442e-06
6.10078e-06
6.08707e-06
6.07594e-06
6.25125e-06
6.6684e-06
7.13587e-06
5.15607e-06
1.62587e-06
1.54134e-09
2.5098e-10
6.99607e-14
7.23489e-07
6.34513e-05
0.000260703
0.000252391
0.000961498
0.00218718
0.00408546
0.00674572
0.0102281
0.0145581
0.0197045
0.0255876
0.0320379
0.0387809
0.0454907
0.05193
0.0579019
0.0633051
0.0681399
6.10308e-06
6.10412e-06
6.10384e-06
6.10335e-06
6.10293e-06
6.10263e-06
6.10244e-06
6.10223e-06
6.10205e-06
6.10198e-06
6.10201e-06
6.10283e-06
6.10218e-06
6.09367e-06
6.07208e-06
6.12036e-06
6.36281e-06
6.93639e-06
6.96707e-06
4.82095e-06
1.23772e-06
1.29581e-09
2.66997e-10
1.21865e-12
0
5.64229e-07
4.48413e-05
0.000173492
1.22712e-05
0.000317321
0.000986905
0.00212717
0.0038318
0.00621877
0.00935692
0.0132667
0.0179088
0.0232508
0.0291499
0.0354182
0.0418509
6.10189e-06
6.10257e-06
6.10211e-06
6.10153e-06
6.10107e-06
6.10076e-06
6.10058e-06
6.10048e-06
6.10047e-06
6.10043e-06
6.10037e-06
6.10043e-06
6.10072e-06
6.10197e-06
6.09656e-06
6.08514e-06
6.06878e-06
6.18297e-06
6.49874e-06
7.03401e-06
6.8766e-06
4.55745e-06
1.768e-06
2.79636e-08
8.96664e-10
3.42012e-11
3.48262e-13
0
5.42805e-10
8.78161e-07
3.70213e-05
0.000138792
0.000289364
0.000109329
0.000399163
0.0010475
0.00210052
0.00363911
0.00571925
0.00836856
0.0116504
6.10062e-06
6.101e-06
6.10044e-06
6.09985e-06
6.09943e-06
6.09917e-06
6.09904e-06
6.099e-06
6.09901e-06
6.09906e-06
6.09913e-06
6.09921e-06
6.0992e-06
6.09948e-06
6.10001e-06
6.09972e-06
6.09001e-06
6.07682e-06
6.08051e-06
6.22324e-06
6.60462e-06
7.04186e-06
6.99558e-06
5.3533e-06
2.9017e-06
9.50207e-07
1.08815e-08
5.47235e-10
3.35941e-11
8.5174e-12
5.35271e-14
0
0
1.53901e-08
1.31481e-06
3.16772e-05
0.000115754
0.000221407
0.00035127
2.17708e-07
0.000322552
6.09929e-06
6.09944e-06
6.09888e-06
6.09838e-06
6.09808e-06
6.09795e-06
6.09793e-06
6.09797e-06
6.09805e-06
6.09814e-06
6.09825e-06
6.09836e-06
6.09846e-06
6.09852e-06
6.09868e-06
6.09911e-06
6.09949e-06
6.09655e-06
6.08363e-06
6.06598e-06
6.09018e-06
6.262e-06
6.56456e-06
7.03292e-06
7.10845e-06
6.6346e-06
5.06546e-06
2.95952e-06
1.28363e-06
3.64316e-07
2.53108e-09
2.70361e-10
2.80212e-11
1.05791e-11
2.79281e-12
6.57431e-14
0
0
0
2.54121e-12
3.25631e-07
6.09793e-06
6.09798e-06
6.09755e-06
6.09724e-06
6.09714e-06
6.09718e-06
6.0973e-06
6.09745e-06
6.09761e-06
6.09777e-06
6.09791e-06
6.09804e-06
6.09816e-06
6.09825e-06
6.09834e-06
6.0984e-06
6.0987e-06
6.09922e-06
6.09909e-06
6.09349e-06
6.07675e-06
6.06696e-06
6.08631e-06
6.20646e-06
6.44178e-06
6.73386e-06
7.09937e-06
7.18808e-06
6.80801e-06
6.04846e-06
4.65923e-06
3.04356e-06
1.6355e-06
6.8465e-07
1.99646e-07
5.17014e-09
2.90962e-10
2.52524e-11
1.38146e-11
6.81322e-12
2.75864e-12
6.09662e-06
6.09671e-06
6.09652e-06
6.09649e-06
6.09663e-06
6.09687e-06
6.09715e-06
6.09742e-06
6.09767e-06
6.09789e-06
6.09808e-06
6.09824e-06
6.09838e-06
6.09849e-06
6.09858e-06
6.09865e-06
6.0987e-06
6.09881e-06
6.09924e-06
6.09982e-06
6.09837e-06
6.09152e-06
6.0786e-06
6.06506e-06
6.07471e-06
6.12109e-06
6.24204e-06
6.44334e-06
6.6939e-06
6.93691e-06
7.19787e-06
7.26175e-06
7.04443e-06
6.51596e-06
5.76971e-06
4.72238e-06
3.53943e-06
2.39674e-06
1.47281e-06
8.01692e-07
3.6211e-07
6.0954e-06
6.09569e-06
6.09583e-06
6.09612e-06
6.09651e-06
6.09694e-06
6.09735e-06
6.09773e-06
6.09805e-06
6.09834e-06
6.09858e-06
6.09878e-06
6.09895e-06
6.09909e-06
6.09921e-06
6.0993e-06
6.09937e-06
6.09941e-06
6.09946e-06
6.09964e-06
6.10018e-06
6.1004e-06
6.09923e-06
6.094e-06
6.0842e-06
6.07239e-06
6.06388e-06
6.07102e-06
6.10834e-06
6.17887e-06
6.2981e-06
6.46387e-06
6.66102e-06
6.8683e-06
7.05464e-06
7.23517e-06
7.3242e-06
7.26765e-06
7.04698e-06
6.66257e-06
6.18331e-06
6.09436e-06
6.09497e-06
6.09548e-06
6.09607e-06
6.09667e-06
6.09724e-06
6.09776e-06
6.09822e-06
6.09861e-06
6.09895e-06
6.09924e-06
6.09948e-06
6.09969e-06
6.09987e-06
6.10002e-06
6.10014e-06
6.10025e-06
6.10033e-06
6.1004e-06
6.10042e-06
6.10053e-06
6.10077e-06
6.10121e-06
6.10159e-06
6.10098e-06
6.09851e-06
6.09301e-06
6.08425e-06
6.07406e-06
6.06573e-06
6.06257e-06
6.07059e-06
6.09537e-06
6.14209e-06
6.21067e-06
6.30505e-06
6.42353e-06
6.56383e-06
6.71585e-06
6.86992e-06
7.00917e-06
6.09352e-06
6.09453e-06
6.0954e-06
6.09622e-06
6.09698e-06
6.09765e-06
6.09824e-06
6.09875e-06
6.09919e-06
6.09957e-06
6.09991e-06
6.1002e-06
6.10045e-06
6.10067e-06
6.10086e-06
6.10103e-06
6.10118e-06
6.1013e-06
6.10142e-06
6.1015e-06
6.10159e-06
6.10167e-06
6.10178e-06
6.102e-06
6.10236e-06
6.10277e-06
6.10293e-06
6.10237e-06
6.10043e-06
6.09681e-06
6.09124e-06
6.08392e-06
6.0757e-06
6.06799e-06
6.06258e-06
6.06098e-06
6.06503e-06
6.07743e-06
6.09943e-06
6.13447e-06
6.17423e-06
6.09293e-06
6.09434e-06
6.09549e-06
6.09647e-06
6.09731e-06
6.09804e-06
6.09868e-06
6.09924e-06
6.09972e-06
6.10015e-06
6.10053e-06
6.10086e-06
6.10116e-06
6.10142e-06
6.10165e-06
6.10187e-06
6.10206e-06
6.10223e-06
6.10239e-06
6.10253e-06
6.10267e-06
6.1028e-06
6.10291e-06
6.103e-06
6.10312e-06
6.10329e-06
6.10354e-06
6.1039e-06
6.10428e-06
6.10455e-06
6.10451e-06
6.10393e-06
6.10257e-06
6.10022e-06
6.09683e-06
6.09242e-06
6.08716e-06
6.08119e-06
6.07501e-06
6.06925e-06
6.06461e-06
6.09257e-06
6.09431e-06
6.09564e-06
6.0967e-06
6.0976e-06
6.09837e-06
6.09905e-06
6.09965e-06
6.10018e-06
6.10065e-06
6.10107e-06
6.10145e-06
6.10179e-06
6.1021e-06
6.10238e-06
6.10263e-06
6.10286e-06
6.10308e-06
6.10328e-06
6.10347e-06
6.10366e-06
6.10384e-06
6.104e-06
6.10415e-06
6.10428e-06
6.1044e-06
6.10452e-06
6.10466e-06
6.10483e-06
6.10506e-06
6.10535e-06
6.10568e-06
6.10603e-06
6.10634e-06
6.10654e-06
6.10653e-06
6.10626e-06
6.10561e-06
6.10455e-06
6.10286e-06
6.10121e-06
6.09241e-06
6.09436e-06
6.09576e-06
6.09687e-06
6.09781e-06
6.09862e-06
6.09934e-06
6.09998e-06
6.10056e-06
6.10107e-06
6.10154e-06
6.10196e-06
6.10235e-06
6.1027e-06
6.10302e-06
6.10332e-06
6.1036e-06
6.10386e-06
6.10411e-06
6.10434e-06
6.10457e-06
6.10479e-06
6.105e-06
6.10519e-06
6.10537e-06
6.10554e-06
6.10569e-06
6.10584e-06
6.10598e-06
6.10612e-06
6.10627e-06
6.10643e-06
6.10661e-06
6.10683e-06
6.10707e-06
6.10735e-06
6.10766e-06
6.10798e-06
6.1083e-06
6.10859e-06
6.10886e-06
6.09236e-06
6.09438e-06
6.09582e-06
6.09696e-06
6.09793e-06
6.09878e-06
6.09954e-06
6.10022e-06
6.10085e-06
6.10141e-06
6.10193e-06
6.1024e-06
6.10283e-06
6.10323e-06
6.1036e-06
6.10394e-06
6.10426e-06
6.10457e-06
6.10486e-06
6.10513e-06
6.10541e-06
6.10567e-06
6.10591e-06
6.10614e-06
6.10636e-06
6.10657e-06
6.10677e-06
6.10696e-06
6.10714e-06
6.10732e-06
6.10749e-06
6.10766e-06
6.10782e-06
6.10799e-06
6.10815e-06
6.10832e-06
6.1085e-06
6.10869e-06
6.1089e-06
6.10912e-06
6.10934e-06
6.09231e-06
6.09433e-06
6.09578e-06
6.09695e-06
6.09795e-06
6.09884e-06
6.09964e-06
6.10038e-06
6.10105e-06
6.10166e-06
6.10223e-06
6.10275e-06
6.10323e-06
6.10368e-06
6.10409e-06
6.10448e-06
6.10485e-06
6.1052e-06
6.10553e-06
6.10585e-06
6.10617e-06
6.10647e-06
6.10675e-06
6.10702e-06
6.10727e-06
6.10752e-06
6.10775e-06
6.10798e-06
6.1082e-06
6.10841e-06
6.10862e-06
6.10882e-06
6.10903e-06
6.10922e-06
6.10942e-06
6.10961e-06
6.1098e-06
6.10999e-06
6.11018e-06
6.11037e-06
6.11057e-06
6.09218e-06
6.09419e-06
6.09566e-06
6.09685e-06
6.09787e-06
6.0988e-06
6.09965e-06
6.10043e-06
6.10115e-06
6.10182e-06
6.10244e-06
6.10301e-06
6.10355e-06
6.10405e-06
6.10451e-06
6.10495e-06
6.10536e-06
6.10576e-06
6.10614e-06
6.10649e-06
6.10685e-06
6.1072e-06
6.10752e-06
6.10782e-06
6.10811e-06
6.10839e-06
6.10866e-06
6.10892e-06
6.10917e-06
6.10941e-06
6.10965e-06
6.10989e-06
6.11012e-06
6.11034e-06
6.11057e-06
6.11079e-06
6.11101e-06
6.11123e-06
6.11145e-06
6.11166e-06
6.11189e-06
6.09198e-06
6.09397e-06
6.09543e-06
6.09663e-06
6.09768e-06
6.09865e-06
6.09954e-06
6.10038e-06
6.10115e-06
6.10188e-06
6.10256e-06
6.10319e-06
6.10378e-06
6.10434e-06
6.10485e-06
6.10534e-06
6.10581e-06
6.10625e-06
6.10667e-06
6.10708e-06
6.10748e-06
6.10786e-06
6.10822e-06
6.10856e-06
6.10889e-06
6.1092e-06
6.1095e-06
6.10979e-06
6.11007e-06
6.11034e-06
6.11061e-06
6.11087e-06
6.11113e-06
6.11138e-06
6.11163e-06
6.11187e-06
6.11211e-06
6.11235e-06
6.11259e-06
6.11282e-06
6.11307e-06
6.09168e-06
6.09363e-06
6.09508e-06
6.09629e-06
6.09737e-06
6.09838e-06
6.09933e-06
6.10022e-06
6.10106e-06
6.10185e-06
6.10259e-06
6.10329e-06
6.10394e-06
6.10455e-06
6.10512e-06
6.10567e-06
6.10618e-06
6.10667e-06
6.10714e-06
6.10759e-06
6.10804e-06
6.10846e-06
6.10886e-06
6.10924e-06
6.1096e-06
6.10994e-06
6.11028e-06
6.1106e-06
6.11091e-06
6.11121e-06
6.1115e-06
6.11179e-06
6.11207e-06
6.11234e-06
6.11261e-06
6.11287e-06
6.11314e-06
6.11339e-06
6.11365e-06
6.1139e-06
6.11416e-06
6.09127e-06
6.09317e-06
6.0946e-06
6.09582e-06
6.09694e-06
6.09799e-06
6.099e-06
6.09995e-06
6.10086e-06
6.10171e-06
6.10252e-06
6.10328e-06
6.104e-06
6.10467e-06
6.10531e-06
6.10591e-06
6.10648e-06
6.10703e-06
6.10755e-06
6.10805e-06
6.10854e-06
6.109e-06
6.10944e-06
6.10986e-06
6.11025e-06
6.11063e-06
6.111e-06
6.11135e-06
6.11169e-06
6.11201e-06
6.11233e-06
6.11264e-06
6.11294e-06
6.11324e-06
6.11353e-06
6.11381e-06
6.11409e-06
6.11436e-06
6.11464e-06
6.11489e-06
6.11517e-06
6.09074e-06
6.09257e-06
6.09398e-06
6.09522e-06
6.09637e-06
6.09748e-06
6.09854e-06
6.09956e-06
6.10053e-06
6.10145e-06
6.10233e-06
6.10316e-06
6.10395e-06
6.10469e-06
6.10539e-06
6.10606e-06
6.10669e-06
6.10729e-06
6.10786e-06
6.10841e-06
6.10895e-06
6.10946e-06
6.10994e-06
6.1104e-06
6.11083e-06
6.11125e-06
6.11165e-06
6.11203e-06
6.11239e-06
6.11275e-06
6.11309e-06
6.11343e-06
6.11375e-06
6.11406e-06
6.11437e-06
6.11467e-06
6.11497e-06
6.11525e-06
6.11554e-06
6.11581e-06
6.1161e-06
6.09007e-06
6.09183e-06
6.09322e-06
6.09447e-06
6.09566e-06
6.09681e-06
6.09793e-06
6.09901e-06
6.10005e-06
6.10104e-06
6.10199e-06
6.10289e-06
6.10375e-06
6.10456e-06
6.10533e-06
6.10606e-06
6.10676e-06
6.10742e-06
6.10805e-06
6.10866e-06
6.10925e-06
6.1098e-06
6.11033e-06
6.11083e-06
6.11131e-06
6.11176e-06
6.11219e-06
6.1126e-06
6.113e-06
6.11338e-06
6.11375e-06
6.11411e-06
6.11445e-06
6.11479e-06
6.11511e-06
6.11543e-06
6.11574e-06
6.11604e-06
6.11634e-06
6.11662e-06
6.11692e-06
6.08925e-06
6.09093e-06
6.0923e-06
6.09356e-06
6.09478e-06
6.09598e-06
6.09714e-06
6.09827e-06
6.09937e-06
6.10043e-06
6.10145e-06
6.10242e-06
6.10335e-06
6.10423e-06
6.10507e-06
6.10587e-06
6.10663e-06
6.10736e-06
6.10805e-06
6.10872e-06
6.10936e-06
6.10997e-06
6.11055e-06
6.11109e-06
6.11161e-06
6.1121e-06
6.11257e-06
6.11302e-06
6.11344e-06
6.11385e-06
6.11425e-06
6.11463e-06
6.11499e-06
6.11535e-06
6.11569e-06
6.11602e-06
6.11634e-06
6.11665e-06
6.11696e-06
6.11725e-06
6.11755e-06
6.08826e-06
6.08986e-06
6.09121e-06
6.09248e-06
6.09371e-06
6.09493e-06
6.09613e-06
6.0973e-06
6.09845e-06
6.09956e-06
6.10064e-06
6.10168e-06
6.10268e-06
6.10363e-06
6.10455e-06
6.10542e-06
6.10625e-06
6.10704e-06
6.1078e-06
6.10853e-06
6.10923e-06
6.10989e-06
6.11052e-06
6.11111e-06
6.11167e-06
6.1122e-06
6.11271e-06
6.11319e-06
6.11365e-06
6.11409e-06
6.11451e-06
6.11491e-06
6.1153e-06
6.11567e-06
6.11603e-06
6.11638e-06
6.11671e-06
6.11703e-06
6.11735e-06
6.11765e-06
6.11796e-06
6.0871e-06
6.08861e-06
6.08993e-06
6.09118e-06
6.09242e-06
6.09364e-06
6.09485e-06
6.09605e-06
6.09723e-06
6.09839e-06
6.09952e-06
6.10062e-06
6.10168e-06
6.1027e-06
6.10369e-06
6.10463e-06
6.10553e-06
6.10639e-06
6.10722e-06
6.108e-06
6.10876e-06
6.10948e-06
6.11016e-06
6.1108e-06
6.11141e-06
6.11199e-06
6.11253e-06
6.11305e-06
6.11354e-06
6.114e-06
6.11445e-06
6.11487e-06
6.11528e-06
6.11567e-06
6.11604e-06
6.1164e-06
6.11674e-06
6.11707e-06
6.11739e-06
6.11768e-06
6.11799e-06
6.08574e-06
6.08717e-06
6.08843e-06
6.08965e-06
6.09085e-06
6.09205e-06
6.09326e-06
6.09446e-06
6.09566e-06
6.09685e-06
6.09803e-06
6.09918e-06
6.10031e-06
6.10139e-06
6.10244e-06
6.10345e-06
6.10442e-06
6.10535e-06
6.10624e-06
6.10709e-06
6.1079e-06
6.10868e-06
6.10941e-06
6.11009e-06
6.11074e-06
6.11136e-06
6.11194e-06
6.11249e-06
6.11301e-06
6.11351e-06
6.11398e-06
6.11442e-06
6.11485e-06
6.11526e-06
6.11564e-06
6.11602e-06
6.11637e-06
6.11671e-06
6.11704e-06
6.11735e-06
6.11766e-06
6.08417e-06
6.0855e-06
6.08669e-06
6.08784e-06
6.08898e-06
6.09014e-06
6.09131e-06
6.0925e-06
6.09371e-06
6.09493e-06
6.09614e-06
6.09733e-06
6.09851e-06
6.09965e-06
6.10077e-06
6.10184e-06
6.10287e-06
6.10386e-06
6.10481e-06
6.10572e-06
6.1066e-06
6.10743e-06
6.10821e-06
6.10894e-06
6.10964e-06
6.1103e-06
6.11092e-06
6.1115e-06
6.11205e-06
6.11258e-06
6.11307e-06
6.11353e-06
6.11397e-06
6.11439e-06
6.11478e-06
6.11516e-06
6.11551e-06
6.11585e-06
6.11617e-06
6.11646e-06
6.11676e-06
6.08238e-06
6.08359e-06
6.08467e-06
6.08572e-06
6.08677e-06
6.08786e-06
6.08899e-06
6.09015e-06
6.09135e-06
6.09257e-06
6.0938e-06
6.09503e-06
6.09624e-06
6.09744e-06
6.0986e-06
6.09973e-06
6.10082e-06
6.10187e-06
6.10288e-06
6.10384e-06
6.10476e-06
6.10564e-06
6.10646e-06
6.10724e-06
6.10797e-06
6.10866e-06
6.10931e-06
6.10992e-06
6.1105e-06
6.11105e-06
6.11156e-06
6.11205e-06
6.11251e-06
6.11294e-06
6.11335e-06
6.11374e-06
6.11411e-06
6.11446e-06
6.11479e-06
6.1151e-06
6.11541e-06
6.08035e-06
6.08141e-06
6.08235e-06
6.08326e-06
6.08421e-06
6.08521e-06
6.08627e-06
6.08739e-06
6.08855e-06
6.08975e-06
6.09097e-06
6.0922e-06
6.09343e-06
6.09465e-06
6.09585e-06
6.09701e-06
6.09815e-06
6.09925e-06
6.10031e-06
6.10133e-06
6.10231e-06
6.10324e-06
6.10412e-06
6.10496e-06
6.10574e-06
6.10648e-06
6.10718e-06
6.10783e-06
6.10844e-06
6.10902e-06
6.10956e-06
6.11006e-06
6.11053e-06
6.11097e-06
6.11138e-06
6.11177e-06
6.11213e-06
6.11246e-06
6.11278e-06
6.11307e-06
6.11335e-06
6.07806e-06
6.07892e-06
6.07969e-06
6.08046e-06
6.08129e-06
6.08218e-06
6.08314e-06
6.08418e-06
6.08526e-06
6.0864e-06
6.08757e-06
6.08876e-06
6.08997e-06
6.09118e-06
6.09239e-06
6.09358e-06
6.09475e-06
6.09588e-06
6.09697e-06
6.09802e-06
6.09902e-06
6.09998e-06
6.10088e-06
6.10173e-06
6.10253e-06
6.10329e-06
6.104e-06
6.10467e-06
6.10529e-06
6.10588e-06
6.10644e-06
6.10696e-06
6.10745e-06
6.1079e-06
6.10833e-06
6.10874e-06
6.10912e-06
6.10947e-06
6.10981e-06
6.11013e-06
6.11042e-06
6.07547e-06
6.07612e-06
6.0767e-06
6.07731e-06
6.07799e-06
6.07874e-06
6.07956e-06
6.08045e-06
6.08141e-06
6.08242e-06
6.08348e-06
6.08458e-06
6.0857e-06
6.08685e-06
6.08798e-06
6.08911e-06
6.09023e-06
6.09135e-06
6.09245e-06
6.09353e-06
6.09458e-06
6.0956e-06
6.09657e-06
6.09749e-06
6.09838e-06
6.09921e-06
6.09999e-06
6.10073e-06
6.10142e-06
6.10206e-06
6.10266e-06
6.10322e-06
6.10374e-06
6.10422e-06
6.10467e-06
6.10508e-06
6.10546e-06
6.10581e-06
6.10613e-06
6.10642e-06
6.1067e-06
6.07256e-06
6.07296e-06
6.07334e-06
6.07377e-06
6.07426e-06
6.07481e-06
6.07542e-06
6.07609e-06
6.07682e-06
6.0776e-06
6.07844e-06
6.07934e-06
6.0803e-06
6.08134e-06
6.08247e-06
6.08367e-06
6.08487e-06
6.08605e-06
6.08719e-06
6.08829e-06
6.08935e-06
6.09036e-06
6.09131e-06
6.09222e-06
6.09308e-06
6.09389e-06
6.09466e-06
6.09537e-06
6.09605e-06
6.09668e-06
6.09727e-06
6.09782e-06
6.09834e-06
6.09882e-06
6.09926e-06
6.09968e-06
6.10006e-06
6.10042e-06
6.10075e-06
6.10106e-06
6.10135e-06
6.06931e-06
6.06945e-06
6.06959e-06
6.06977e-06
6.06998e-06
6.07022e-06
6.0705e-06
6.0708e-06
6.07114e-06
6.07151e-06
6.0719e-06
6.07231e-06
6.07273e-06
6.07316e-06
6.07358e-06
6.07405e-06
6.07446e-06
6.07486e-06
6.07527e-06
6.07569e-06
6.07614e-06
6.07662e-06
6.07712e-06
6.07764e-06
6.07817e-06
6.07871e-06
6.07924e-06
6.07978e-06
6.0803e-06
6.08081e-06
6.0813e-06
6.08177e-06
6.08223e-06
6.08266e-06
6.08307e-06
6.08346e-06
6.08383e-06
6.08417e-06
6.0845e-06
6.08479e-06
6.08509e-06
0.00368941
0.00710493
0.00998278
0.0119618
0.0130215
0.0132199
0.0125694
0.0110231
0.00859348
0.00530886
0.00175261
2.79819e-05
1.46594e-06
1.69772e-08
6.7351e-06
7.02406e-06
5.9283e-06
6.03283e-06
6.11711e-06
6.10208e-06
6.09573e-06
6.09906e-06
6.10128e-06
6.10225e-06
6.10259e-06
6.1023e-06
6.10149e-06
6.10035e-06
6.09905e-06
6.09776e-06
6.09661e-06
6.09569e-06
6.09501e-06
6.09454e-06
6.09421e-06
6.09394e-06
6.09369e-06
6.09343e-06
6.09317e-06
6.09289e-06
6.0926e-06
6.0923e-06
6.09198e-06
6.09163e-06
6.09125e-06
6.09084e-06
6.09037e-06
6.08985e-06
6.08927e-06
6.08862e-06
6.08788e-06
6.08705e-06
6.08612e-06
6.08506e-06
6.08388e-06
6.08257e-06
6.08114e-06
6.07961e-06
6.078e-06
6.07634e-06
6.07465e-06
6.073e-06
6.07163e-06
6.07098e-06
6.0715e-06
6.07323e-06
6.07584e-06
6.07904e-06
6.08261e-06
6.08648e-06
6.09053e-06
6.09517e-06
6.09894e-06
6.10796e-06
0.0063051
0.0108653
0.0142554
0.0163841
0.0174604
0.0176448
0.0169862
0.0154557
0.0130401
0.0097261
0.00555204
0.00161101
8.24998e-05
9.08394e-07
2.8676e-12
6.61832e-06
7.35281e-06
6.01688e-06
5.99379e-06
6.10618e-06
6.10683e-06
6.09964e-06
6.10182e-06
6.10341e-06
6.10359e-06
6.10341e-06
6.10274e-06
6.10158e-06
6.10018e-06
6.09879e-06
6.09753e-06
6.0965e-06
6.09572e-06
6.09516e-06
6.09476e-06
6.09445e-06
6.09417e-06
6.09389e-06
6.09361e-06
6.09331e-06
6.09301e-06
6.09271e-06
6.09238e-06
6.09203e-06
6.09165e-06
6.09123e-06
6.09077e-06
6.09024e-06
6.08966e-06
6.089e-06
6.08826e-06
6.08743e-06
6.08649e-06
6.08542e-06
6.08423e-06
6.08291e-06
6.08147e-06
6.07991e-06
6.07828e-06
6.07659e-06
6.07485e-06
6.07313e-06
6.07169e-06
6.07099e-06
6.07146e-06
6.07312e-06
6.07568e-06
6.07884e-06
6.0824e-06
6.08626e-06
6.0903e-06
6.09492e-06
6.09868e-06
6.10761e-06
0.00880915
0.0147845
0.0188892
0.0212732
0.0224224
0.0226209
0.0219685
0.0204616
0.0180839
0.0148313
0.010668
0.00574271
0.00156444
6.43341e-05
2.32479e-10
3.83902e-08
4.58356e-06
7.811e-06
6.2084e-06
5.96522e-06
6.09171e-06
6.11191e-06
6.1014e-06
6.10289e-06
6.10541e-06
6.10495e-06
6.10385e-06
6.10283e-06
6.10154e-06
6.1e-06
6.09855e-06
6.09736e-06
6.09647e-06
6.09582e-06
6.09534e-06
6.09498e-06
6.09466e-06
6.09436e-06
6.09406e-06
6.09375e-06
6.09344e-06
6.09312e-06
6.0928e-06
6.09245e-06
6.09206e-06
6.09164e-06
6.09117e-06
6.09065e-06
6.09006e-06
6.0894e-06
6.08865e-06
6.08781e-06
6.08686e-06
6.08579e-06
6.08459e-06
6.08326e-06
6.0818e-06
6.08023e-06
6.07857e-06
6.07684e-06
6.07505e-06
6.07328e-06
6.07178e-06
6.07102e-06
6.07143e-06
6.07301e-06
6.07551e-06
6.07863e-06
6.08217e-06
6.08602e-06
6.09005e-06
6.09465e-06
6.09839e-06
6.10723e-06
0.0112807
0.0188934
0.0238561
0.0266166
0.0279281
0.0281984
0.027588
0.0261262
0.023803
0.0206184
0.0165664
0.0116008
0.00603191
0.00160972
0.000402617
0
2.56086e-08
3.53724e-06
7.79287e-06
6.49441e-06
5.95773e-06
6.07925e-06
6.13082e-06
6.10949e-06
6.10191e-06
6.10573e-06
6.10648e-06
6.10433e-06
6.10239e-06
6.10105e-06
6.09976e-06
6.09844e-06
6.09731e-06
6.0965e-06
6.09594e-06
6.09553e-06
6.09518e-06
6.09485e-06
6.09453e-06
6.0942e-06
6.09388e-06
6.09355e-06
6.09322e-06
6.09286e-06
6.09248e-06
6.09205e-06
6.09158e-06
6.09106e-06
6.09046e-06
6.0898e-06
6.08905e-06
6.0882e-06
6.08724e-06
6.08617e-06
6.08496e-06
6.08362e-06
6.08214e-06
6.08055e-06
6.07887e-06
6.0771e-06
6.07527e-06
6.07345e-06
6.0719e-06
6.07107e-06
6.07141e-06
6.0729e-06
6.07533e-06
6.07841e-06
6.08192e-06
6.08575e-06
6.08977e-06
6.09435e-06
6.09808e-06
6.10681e-06
0.0138904
0.0232502
0.0291091
0.0323573
0.033945
0.034375
0.0338695
0.0324977
0.030265
0.0271722
0.0232295
0.0184207
0.0127241
0.00657435
0.00176363
0.000498643
7.2163e-08
1.7989e-08
1.64227e-06
7.5168e-06
6.81254e-06
5.86427e-06
5.95695e-06
6.12438e-06
6.12935e-06
6.10419e-06
6.10246e-06
6.10714e-06
6.10649e-06
6.10304e-06
6.10045e-06
6.09911e-06
6.09823e-06
6.0974e-06
6.09666e-06
6.09609e-06
6.09568e-06
6.09534e-06
6.09501e-06
6.09467e-06
6.09433e-06
6.09399e-06
6.09364e-06
6.09328e-06
6.0929e-06
6.09247e-06
6.092e-06
6.09147e-06
6.09087e-06
6.0902e-06
6.08945e-06
6.0886e-06
6.08763e-06
6.08655e-06
6.08533e-06
6.08398e-06
6.0825e-06
6.08089e-06
6.07918e-06
6.07738e-06
6.07551e-06
6.07364e-06
6.07204e-06
6.07115e-06
6.0714e-06
6.0728e-06
6.07514e-06
6.07816e-06
6.08164e-06
6.08546e-06
6.08946e-06
6.09402e-06
6.09773e-06
6.10635e-06
0.0172866
0.027916
0.0345834
0.0384065
0.0403917
0.0410919
0.0407813
0.0395708
0.0374887
0.0345399
0.0307361
0.0260899
0.020584
0.0142246
0.00750968
0.002224
2.82511e-05
6.05722e-06
7.08227e-09
3.09274e-07
6.56648e-06
8.22287e-06
6.28749e-06
5.84557e-06
6.04992e-06
6.15068e-06
6.12201e-06
6.09576e-06
6.09775e-06
6.10472e-06
6.10507e-06
6.10167e-06
6.09886e-06
6.09766e-06
6.09724e-06
6.09688e-06
6.0964e-06
6.0959e-06
6.09547e-06
6.09511e-06
6.09477e-06
6.09444e-06
6.09409e-06
6.09372e-06
6.09332e-06
6.0929e-06
6.09242e-06
6.09189e-06
6.09129e-06
6.09062e-06
6.08986e-06
6.089e-06
6.08803e-06
6.08694e-06
6.08572e-06
6.08436e-06
6.08286e-06
6.08124e-06
6.0795e-06
6.07767e-06
6.07577e-06
6.07386e-06
6.07221e-06
6.07126e-06
6.07142e-06
6.0727e-06
6.07494e-06
6.0779e-06
6.08134e-06
6.08513e-06
6.08912e-06
6.09365e-06
6.09735e-06
6.10585e-06
0.0219862
0.0329072
0.0402113
0.0446528
0.0471408
0.0482297
0.0482247
0.0472725
0.0454268
0.0427018
0.0391073
0.0346616
0.0293795
0.0232463
0.0162816
0.00898949
0.00314616
0.000185842
0.000107741
7.62534e-10
3.42155e-08
2.95146e-06
8.26661e-06
7.26827e-06
5.91392e-06
5.86488e-06
6.11579e-06
6.18184e-06
6.1315e-06
6.09475e-06
6.09275e-06
6.10062e-06
6.10323e-06
6.1009e-06
6.09804e-06
6.09665e-06
6.0964e-06
6.09639e-06
6.09616e-06
6.09574e-06
6.09527e-06
6.09485e-06
6.09449e-06
6.09414e-06
6.09376e-06
6.09334e-06
6.09285e-06
6.09232e-06
6.09171e-06
6.09104e-06
6.09027e-06
6.08941e-06
6.08844e-06
6.08735e-06
6.08612e-06
6.08475e-06
6.08324e-06
6.0816e-06
6.07985e-06
6.07799e-06
6.07606e-06
6.07412e-06
6.07243e-06
6.0714e-06
6.07145e-06
6.0726e-06
6.07474e-06
6.07762e-06
6.08101e-06
6.08477e-06
6.08873e-06
6.09324e-06
6.09694e-06
6.1053e-06
0.0275811
0.0381752
0.045925
0.0509622
0.0540204
0.0556049
0.0560241
0.0554459
0.0539461
0.0515507
0.0482693
0.0441156
0.039112
0.0332752
0.0265921
0.0190832
0.0112728
0.00452353
0.0006288
0.000354865
4.04476e-06
1.08438e-08
1.64177e-07
5.44087e-06
8.4658e-06
6.71802e-06
5.71192e-06
5.80286e-06
6.09683e-06
6.18625e-06
6.14185e-06
6.09694e-06
6.08766e-06
6.09548e-06
6.10158e-06