/*--------------------------------*- C++ -*----------------------------------*\
| =========                 |                                                 |
| \\      /  F ield         | OpenFOAM: The Open Source CFD Toolbox           |
|  \\    /   O peration     | Version:  2312                                  |
|   \\  /    A nd           | Website:  www.openfoam.com                      |
|    \\/     M anipulation  |                                                 |
\*---------------------------------------------------------------------------*/
FoamFile
{
    version     2.0;
    format      ascii;
    arch        "LSB;label=32;scalar=64";
    class       volScalarField;
    location    "750";
    object      nuTilda;
}
// * * * * * * * * * * * * * * * * * * * * * * * * * * * * * * * * * * * * * //

dimensions      [0 2 -1 0 0 0 0];

internalField   nonuniform List<scalar> 
11040
(
7.30019e-05
8.58842e-05
5.27401e-05
8.16132e-05
0.000197605
0.000190884
0.000182117
0.000172985
0.000161896
0.000155115
0.000148254
0.000142355
0.000137092
0.00013302
0.000129565
0.000127729
0.000127546
0.000128973
0.00013164
0.000135392
0.000140328
0.000146314
0.00015315
0.000160687
0.000169031
0.000179061
0.000190764
0.000202435
0.000213518
0.000223434
0.000231551
0.000237209
0.000241049
0.000246959
0.00026461
0.000256402
0.000185233
0.000190604
0.000208309
0.00022772
0.000301202
3.61565e-05
7.22238e-05
8.67009e-05
0.000157457
0.000604293
0.00062871
0.000553537
0.00050958
0.000444238
0.000409003
0.000373049
0.000345026
0.000318724
0.000298939
0.000280528
0.000267766
0.000261539
0.000260787
0.000262926
0.000266768
0.000272467
0.000280111
0.000288173
0.000295521
0.000303007
0.000317754
0.000344624
0.000376089
0.000411671
0.000451482
0.000495743
0.000544817
0.00059793
0.00065672
0.000723571
0.000792473
0.000862093
0.000954295
0.00106402
0.00115556
0.00162697
3.89478e-05
4.5514e-05
6.66689e-05
9.4052e-05
0.000417323
0.000969268
0.00118835
0.0011469
0.00100499
0.000930037
0.000847932
0.000787231
0.000727796
0.000684287
0.000642558
0.000609244
0.000583853
0.000564402
0.000553007
0.000548677
0.000552846
0.000566499
0.000590373
0.000625315
0.000671415
0.000728515
0.0007964
0.000874594
0.000962754
0.00106032
0.00116636
0.00128016
0.00140127
0.00153038
0.00166872
0.0018169
0.00198088
0.0021832
0.0024295
0.00267677
0.00351833
4.07585e-05
3.82501e-05
4.71783e-05
4.79419e-05
0.000153957
0.00060043
0.00131048
0.00171097
0.00177974
0.00168819
0.00154514
0.00144564
0.00134138
0.00126462
0.00118976
0.00112736
0.00108143
0.00104498
0.00102305
0.00101402
0.00101966
0.00104295
0.00108641
0.0011512
0.0012368
0.00134215
0.00146631
0.00160832
0.00176727
0.00194214
0.00213145
0.00233381
0.00254818
0.00277487
0.00301478
0.00327075
0.00355537
0.0039001
0.00432275
0.00478999
0.00597859
4.02548e-05
3.94314e-05
4.06325e-05
3.87421e-05
3.77303e-05
0.000188355
0.000714003
0.00156839
0.002261
0.00246908
0.00247965
0.00237289
0.00220992
0.00209276
0.00197925
0.00187649
0.00180424
0.00174477
0.00170796
0.0016922
0.00169759
0.00172966
0.0017946
0.00189431
0.00202805
0.00219454
0.00239207
0.00261846
0.00287174
0.00315
0.00345026
0.00376972
0.00410632
0.00445982
0.00483077
0.00522327
0.00565416
0.00616979
0.00680344
0.00754673
0.00904426
4.00527e-05
4.02229e-05
3.96776e-05
4.09578e-05
2.83214e-05
2.42645e-05
0.000184245
0.000736327
0.00172388
0.00274147
0.00321341
0.00338193
0.00336927
0.0032604
0.0030846
0.00292266
0.00281566
0.00272437
0.0026646
0.00263875
0.00264131
0.00267979
0.0027674
0.00290792
0.00310021
0.00334321
0.00363439
0.00396953
0.00434435
0.00475585
0.00519855
0.0056671
0.00615761
0.0066688
0.00720019
0.00775627
0.00835837
0.00906553
0.00993737
0.011
0.0128158
4.00698e-05
4.01299e-05
3.98994e-05
4.05274e-05
3.97196e-05
1.98451e-05
6.05987e-06
0.000138005
0.0006652
0.00171835
0.00302586
0.00396397
0.00434145
0.00448464
0.00447641
0.00437557
0.00422787
0.00407688
0.00398155
0.00394135
0.00393913
0.00397962
0.00408824
0.00427337
0.00453296
0.00486711
0.00527306
0.0057439
0.00627041
0.00684843
0.00746879
0.00812164
0.00879979
0.00950031
0.0102204
0.0109633
0.0117541
0.0126626
0.0137841
0.0151873
0.017366
4.00869e-05
4.00823e-05
4.01189e-05
3.99661e-05
4.09047e-05
3.99309e-05
8.97561e-06
1.892e-06
8.49653e-05
0.000517743
0.00153017
0.00303645
0.0045072
0.0053216
0.00568795
0.0058325
0.00585929
0.00580984
0.0057411
0.00568408
0.0056802
0.00573483
0.0058682
0.0061028
0.00643621
0.00687283
0.00741257
0.00804744
0.00875718
0.00953701
0.0103731
0.0112477
0.0121477
0.0130679
0.0140015
0.0149473
0.0159329
0.0170363
0.0183899
0.0201193
0.0226656
4.00838e-05
4.00905e-05
4.00828e-05
4.01183e-05
3.98708e-05
4.1933e-05
3.86441e-05
1.40567e-05
1.87604e-05
2.20185e-05
0.000321177
0.00118746
0.00272639
0.0046191
0.00614724
0.00691024
0.00731264
0.00751718
0.00764101
0.0077237
0.00782133
0.00795997
0.00818208
0.00851679
0.00896531
0.00952764
0.0102113
0.011022
0.0119445
0.0129599
0.01405
0.0151852
0.0163397
0.0175058
0.0186722
0.0198257
0.0209955
0.0222694
0.0237908
0.0257747
0.0286289
4.00823e-05
4.00853e-05
4.00848e-05
4.00956e-05
4.00572e-05
3.99631e-05
4.2254e-05
3.76399e-05
2.02744e-05
8.58786e-06
6.15422e-05
0.000143096
0.000778853
0.00215141
0.00420875
0.00642317
0.00800492
0.00882051
0.00933726
0.00970205
0.0100382
0.010389
0.0108168
0.0113663
0.012058
0.0128929
0.0138612
0.0149456
0.0161278
0.0174048
0.0187774
0.0202041
0.0216341
0.0230555
0.0244601
0.0258081
0.0271233
0.0285093
0.0300968
0.0321787
0.0351693
4.00799e-05
4.00818e-05
4.00844e-05
4.00768e-05
4.01094e-05
3.99766e-05
4.02083e-05
4.17325e-05
3.96528e-05
2.66277e-05
7.08273e-06
2.15809e-05
1.70573e-05
0.000374134
0.0014169
0.00332488
0.00588605
0.00843216
0.0101825
0.011194
0.0119672
0.0126463
0.0133647
0.0142052
0.0152222
0.0164353
0.0178413
0.0194234
0.0211478
0.0229671
0.0248183
0.0266273
0.0283471
0.0300103
0.0316513
0.0331637
0.0345405
0.0359489
0.0374805
0.0393862
0.0421833
4.00772e-05
4.00789e-05
4.00788e-05
4.00799e-05
4.00757e-05
4.0092e-05
3.99897e-05
4.01891e-05
4.12513e-05
4.09433e-05
3.26526e-05
5.4115e-06
4.6062e-06
6.32501e-05
0.000118921
0.000725425
0.00218743
0.00461724
0.00769741
0.010689
0.0128288
0.0142109
0.0153857
0.0165853
0.0179528
0.0195548
0.0214086
0.0235131
0.025837
0.0283267
0.0309142
0.0335193
0.0360514
0.0384189
0.0405067
0.0421871
0.0434906
0.0448157
0.0461446
0.0476019
0.0497688
4.00747e-05
4.00757e-05
4.00756e-05
4.00754e-05
4.00752e-05
4.00745e-05
4.00768e-05
4.00198e-05
4.01149e-05
4.08463e-05
4.1701e-05
3.64777e-05
1.63878e-05
5.12435e-06
1.47363e-05
0.000120348
0.000228605
0.00110594
0.00296243
0.00590057
0.00957534
0.0131382
0.0158233
0.0177894
0.0196396
0.0216566
0.0239193
0.0264827
0.0293367
0.0324263
0.0356809
0.039018
0.0423417
0.0455564
0.0485593
0.0512363
0.053488
0.0552355
0.0563654
0.0571092
0.0585308
4.00725e-05
4.0073e-05
4.00731e-05
4.00731e-05
4.00731e-05
4.00722e-05
4.00723e-05
4.0072e-05
4.00383e-05
4.00513e-05
4.04845e-05
4.17928e-05
3.97615e-05
2.77803e-05
3.24817e-06
2.22541e-06
2.67319e-05
0.000180245
0.00034981
0.00142788
0.00361583
0.00687773
0.0107671
0.0148068
0.0184788
0.0215757
0.0244244
0.0274404
0.0307602
0.034352
0.0381607
0.0421184
0.0461228
0.050075
0.0538722
0.0574136
0.0606087
0.0633957
0.0657032
0.0674984
0.0688252
4.00705e-05
4.00719e-05
4.00722e-05
4.00723e-05
4.00719e-05
4.00714e-05
4.00706e-05
4.00709e-05
4.00699e-05
4.00557e-05
4.00067e-05
4.02613e-05
4.13467e-05
4.12622e-05
3.66396e-05
1.80388e-05
5.74997e-06
7.94165e-07
3.93274e-05
0.000222133
0.000410063
0.00151883
0.00353065
0.00650169
0.0102783
0.0146204
0.019258
0.0238929
0.0283253
0.0326137
0.0369569
0.0414607
0.0460762
0.0506956
0.0552099
0.0595193
0.0635444
0.0672468
0.0705586
0.0734207
0.0758245
4.00689e-05
4.00713e-05
4.00714e-05
4.0071e-05
4.00705e-05
4.00697e-05
4.00692e-05
4.00686e-05
4.00686e-05
4.0069e-05
4.00627e-05
4.00047e-05
4.01327e-05
4.0626e-05
4.18552e-05
3.97584e-05
3.28569e-05
8.51975e-06
3.78575e-06
4.3217e-07
4.41478e-05
0.000197172
0.0002414
0.000995215
0.00243723
0.00469287
0.00779833
0.0117252
0.0163981
0.0217133
0.0274952
0.0334651
0.039336
0.0449632
0.050332
0.0554632
0.060351
0.0649815
0.0692865
0.0731938
0.0766736
4.00676e-05
4.007e-05
4.00695e-05
4.00685e-05
4.00677e-05
4.0067e-05
4.00665e-05
4.00661e-05
4.00661e-05
4.00659e-05
4.00683e-05
4.00615e-05
4.00361e-05
4.00154e-05
4.03383e-05
4.10845e-05
4.18874e-05
3.82172e-05
2.80351e-05
4.84677e-06
3.07867e-06
3.97793e-07
2.27411e-05
9.23166e-05
0.000265679
0.000257671
0.000961885
0.00218725
0.00408548
0.00674572
0.0102281
0.0145581
0.0197045
0.0255876
0.0320379
0.0387809
0.0454907
0.05193
0.0579019
0.0633051
0.0681399
4.00658e-05
4.00677e-05
4.00672e-05
4.00663e-05
4.00655e-05
4.0065e-05
4.00646e-05
4.00642e-05
4.00639e-05
4.00638e-05
4.00638e-05
4.00653e-05
4.00641e-05
4.00484e-05
4.00083e-05
4.00978e-05
4.05408e-05
4.15488e-05
4.16013e-05
3.75113e-05
2.61139e-05
4.64098e-06
3.12665e-06
8.12669e-07
0
2.13411e-05
7.82885e-05
0.000183536
4.91844e-05
0.000320763
0.000987272
0.00212725
0.00383183
0.00621878
0.00935693
0.0132667
0.0179088
0.0232508
0.0291499
0.0354182
0.0418509
4.00636e-05
4.00649e-05
4.0064e-05
4.00629e-05
4.00621e-05
4.00615e-05
4.00612e-05
4.0061e-05
4.0061e-05
4.00609e-05
4.00608e-05
4.00609e-05
4.00614e-05
4.00637e-05
4.00537e-05
4.00325e-05
4.00021e-05
4.02132e-05
4.07846e-05
4.17152e-05
4.14462e-05
3.69337e-05
2.86569e-05
1.00091e-05
4.23277e-06
1.87049e-06
5.94183e-07
0
3.73354e-06
2.39002e-05
7.2211e-05
0.000152734
0.000293462
0.000127991
0.000401372
0.00104783
0.0021006
0.00363914
0.00571927
0.00836857
0.0116504
4.00612e-05
4.00619e-05
4.00609e-05
4.00598e-05
4.0059e-05
4.00586e-05
4.00583e-05
4.00582e-05
4.00583e-05
4.00584e-05
4.00585e-05
4.00586e-05
4.00586e-05
4.00591e-05
4.00601e-05
4.00596e-05
4.00416e-05
4.00171e-05
4.00239e-05
4.02871e-05
4.09723e-05
4.17285e-05
4.16499e-05
3.86189e-05
3.26741e-05
2.43901e-05
7.90251e-06
3.74113e-06
1.86214e-06
1.32136e-06
3.72038e-07
0
0
8.61883e-06
2.65264e-05
6.78978e-05
0.000133261
0.000228085
0.000354102
1.67622e-05
0.000325888
4.00588e-05
4.00591e-05
4.0058e-05
4.00571e-05
4.00565e-05
4.00563e-05
4.00563e-05
4.00563e-05
4.00565e-05
4.00567e-05
4.00569e-05
4.00571e-05
4.00572e-05
4.00574e-05
4.00577e-05
4.00584e-05
4.00591e-05
4.00537e-05
4.00297e-05
3.99969e-05
4.00419e-05
4.03579e-05
4.09015e-05
4.17134e-05
4.18412e-05
4.10252e-05
3.80293e-05
3.28474e-05
2.63617e-05
1.90943e-05
5.48682e-06
3.13646e-06
1.77958e-06
1.39494e-06
9.99895e-07
3.91657e-07
0
0
0
9.76572e-07
1.85587e-05
4.00563e-05
4.00564e-05
4.00555e-05
4.0055e-05
4.00548e-05
4.00549e-05
4.00551e-05
4.00554e-05
4.00557e-05
4.0056e-05
4.00562e-05
4.00565e-05
4.00567e-05
4.00569e-05
4.0057e-05
4.00571e-05
4.00577e-05
4.00586e-05
4.00584e-05
4.0048e-05
4.0017e-05
3.99987e-05
4.00347e-05
4.02564e-05
4.06828e-05
4.1199e-05
4.18258e-05
4.1975e-05
4.13278e-05
3.99643e-05
3.71593e-05
3.30951e-05
2.80784e-05
2.24222e-05
1.63998e-05
6.56002e-06
3.19457e-06
1.73389e-06
1.49118e-06
1.24963e-06
9.96822e-07
4.00538e-05
4.0054e-05
4.00536e-05
4.00536e-05
4.00539e-05
4.00543e-05
4.00548e-05
4.00553e-05
4.00558e-05
4.00562e-05
4.00565e-05
4.00568e-05
4.00571e-05
4.00573e-05
4.00575e-05
4.00576e-05
4.00577e-05
4.00579e-05
4.00587e-05
4.00598e-05
4.00571e-05
4.00444e-05
4.00204e-05
3.99952e-05
4.00132e-05
4.00991e-05
4.03215e-05
4.06856e-05
4.11292e-05
4.15497e-05
4.19914e-05
4.2098e-05
4.17329e-05
4.08153e-05
3.94372e-05
3.72977e-05
3.44699e-05
3.10506e-05
2.7321e-05
2.33474e-05
1.9065e-05
4.00516e-05
4.00521e-05
4.00524e-05
4.00529e-05
4.00536e-05
4.00544e-05
4.00552e-05
4.00559e-05
4.00565e-05
4.0057e-05
4.00575e-05
4.00578e-05
4.00582e-05
4.00584e-05
4.00586e-05
4.00588e-05
4.00589e-05
4.0059e-05
4.00591e-05
4.00594e-05
4.00604e-05
4.00608e-05
4.00587e-05
4.0049e-05
4.00308e-05
4.00089e-05
3.9993e-05
4.00063e-05
4.00755e-05
4.02057e-05
4.04236e-05
4.07224e-05
4.10716e-05
4.14319e-05
4.17502e-05
4.20537e-05
4.22017e-05
4.21078e-05
4.17372e-05
4.10743e-05
4.02138e-05
4.00496e-05
4.00508e-05
4.00517e-05
4.00528e-05
4.00539e-05
4.0055e-05
4.00559e-05
4.00568e-05
4.00575e-05
4.00581e-05
4.00587e-05
4.00591e-05
4.00595e-05
4.00599e-05
4.00601e-05
4.00604e-05
4.00606e-05
4.00607e-05
4.00608e-05
4.00609e-05
4.00611e-05
4.00615e-05
4.00623e-05
4.0063e-05
4.00619e-05
4.00573e-05
4.00471e-05
4.00309e-05
4.00119e-05
3.99965e-05
3.99906e-05
4.00055e-05
4.00515e-05
4.01379e-05
4.02641e-05
4.04362e-05
4.06501e-05
4.09002e-05
4.11675e-05
4.14347e-05
4.1673e-05
4.00481e-05
4.005e-05
4.00516e-05
4.00531e-05
4.00545e-05
4.00557e-05
4.00568e-05
4.00578e-05
4.00586e-05
4.00593e-05
4.00599e-05
4.00605e-05
4.00609e-05
4.00613e-05
4.00617e-05
4.0062e-05
4.00623e-05
4.00625e-05
4.00627e-05
4.00629e-05
4.0063e-05
4.00632e-05
4.00634e-05
4.00638e-05
4.00645e-05
4.00652e-05
4.00655e-05
4.00645e-05
4.00609e-05
4.00542e-05
4.00438e-05
4.00303e-05
4.0015e-05
4.00007e-05
3.99906e-05
3.99876e-05
3.99952e-05
4.00182e-05
4.0059e-05
4.01239e-05
4.01972e-05
4.0047e-05
4.00496e-05
4.00517e-05
4.00535e-05
4.00551e-05
4.00565e-05
4.00577e-05
4.00587e-05
4.00596e-05
4.00604e-05
4.00611e-05
4.00617e-05
4.00622e-05
4.00627e-05
4.00632e-05
4.00636e-05
4.00639e-05
4.00642e-05
4.00645e-05
4.00648e-05
4.0065e-05
4.00653e-05
4.00655e-05
4.00657e-05
4.00659e-05
4.00662e-05
4.00667e-05
4.00673e-05
4.0068e-05
4.00685e-05
4.00685e-05
4.00674e-05
4.00649e-05
4.00605e-05
4.00542e-05
4.0046e-05
4.00363e-05
4.00252e-05
4.00137e-05
4.0003e-05
3.99944e-05
4.00463e-05
4.00496e-05
4.0052e-05
4.0054e-05
4.00556e-05
4.00571e-05
4.00583e-05
4.00594e-05
4.00604e-05
4.00613e-05
4.00621e-05
4.00628e-05
4.00634e-05
4.0064e-05
4.00645e-05
4.0065e-05
4.00654e-05
4.00658e-05
4.00662e-05
4.00665e-05
4.00669e-05
4.00672e-05
4.00675e-05
4.00678e-05
4.0068e-05
4.00683e-05
4.00685e-05
4.00687e-05
4.0069e-05
4.00695e-05
4.007e-05
4.00706e-05
4.00713e-05
4.00718e-05
4.00722e-05
4.00722e-05
4.00717e-05
4.00705e-05
4.00685e-05
4.00654e-05
4.00623e-05
4.0046e-05
4.00496e-05
4.00522e-05
4.00543e-05
4.0056e-05
4.00575e-05
4.00589e-05
4.00601e-05
4.00611e-05
4.00621e-05
4.0063e-05
4.00637e-05
4.00645e-05
4.00651e-05
4.00657e-05
4.00663e-05
4.00668e-05
4.00672e-05
4.00677e-05
4.00681e-05
4.00686e-05
4.0069e-05
4.00694e-05
4.00697e-05
4.007e-05
4.00704e-05
4.00706e-05
4.00709e-05
4.00712e-05
4.00714e-05
4.00717e-05
4.0072e-05
4.00724e-05
4.00727e-05
4.00732e-05
4.00737e-05
4.00743e-05
4.00749e-05
4.00755e-05
4.0076e-05
4.00765e-05
4.00459e-05
4.00497e-05
4.00523e-05
4.00545e-05
4.00563e-05
4.00578e-05
4.00592e-05
4.00605e-05
4.00617e-05
4.00627e-05
4.00637e-05
4.00645e-05
4.00653e-05
4.00661e-05
4.00668e-05
4.00674e-05
4.0068e-05
4.00686e-05
4.00691e-05
4.00696e-05
4.00701e-05
4.00706e-05
4.00711e-05
4.00715e-05
4.00719e-05
4.00723e-05
4.00726e-05
4.0073e-05
4.00733e-05
4.00737e-05
4.0074e-05
4.00743e-05
4.00746e-05
4.00749e-05
4.00752e-05
4.00755e-05
4.00758e-05
4.00762e-05
4.00766e-05
4.0077e-05
4.00774e-05
4.00458e-05
4.00496e-05
4.00523e-05
4.00544e-05
4.00563e-05
4.00579e-05
4.00594e-05
4.00608e-05
4.0062e-05
4.00632e-05
4.00642e-05
4.00652e-05
4.00661e-05
4.00669e-05
4.00677e-05
4.00684e-05
4.00691e-05
4.00697e-05
4.00703e-05
4.00709e-05
4.00715e-05
4.00721e-05
4.00726e-05
4.00731e-05
4.00736e-05
4.0074e-05
4.00745e-05
4.00749e-05
4.00753e-05
4.00757e-05
4.00761e-05
4.00764e-05
4.00768e-05
4.00772e-05
4.00775e-05
4.00779e-05
4.00783e-05
4.00786e-05
4.0079e-05
4.00793e-05
4.00797e-05
4.00456e-05
4.00493e-05
4.00521e-05
4.00542e-05
4.00562e-05
4.00579e-05
4.00594e-05
4.00609e-05
4.00622e-05
4.00635e-05
4.00646e-05
4.00657e-05
4.00667e-05
4.00676e-05
4.00685e-05
4.00693e-05
4.007e-05
4.00708e-05
4.00715e-05
4.00721e-05
4.00728e-05
4.00734e-05
4.0074e-05
4.00746e-05
4.00751e-05
4.00756e-05
4.00761e-05
4.00766e-05
4.00771e-05
4.00775e-05
4.0078e-05
4.00784e-05
4.00788e-05
4.00793e-05
4.00797e-05
4.00801e-05
4.00805e-05
4.00809e-05
4.00813e-05
4.00817e-05
4.00821e-05
4.00452e-05
4.00489e-05
4.00516e-05
4.00538e-05
4.00558e-05
4.00576e-05
4.00592e-05
4.00608e-05
4.00622e-05
4.00636e-05
4.00648e-05
4.0066e-05
4.00671e-05
4.00681e-05
4.00691e-05
4.007e-05
4.00709e-05
4.00717e-05
4.00725e-05
4.00732e-05
4.00739e-05
4.00747e-05
4.00753e-05
4.0076e-05
4.00766e-05
4.00771e-05
4.00777e-05
4.00782e-05
4.00788e-05
4.00793e-05
4.00797e-05
4.00802e-05
4.00807e-05
4.00812e-05
4.00816e-05
4.00821e-05
4.00825e-05
4.0083e-05
4.00834e-05
4.00838e-05
4.00843e-05
4.00447e-05
4.00483e-05
4.0051e-05
4.00532e-05
4.00552e-05
4.00571e-05
4.00589e-05
4.00605e-05
4.00621e-05
4.00635e-05
4.00649e-05
4.00662e-05
4.00674e-05
4.00685e-05
4.00696e-05
4.00706e-05
4.00716e-05
4.00725e-05
4.00733e-05
4.00742e-05
4.0075e-05
4.00758e-05
4.00765e-05
4.00772e-05
4.00779e-05
4.00785e-05
4.00791e-05
4.00797e-05
4.00803e-05
4.00809e-05
4.00814e-05
4.00819e-05
4.00824e-05
4.0083e-05
4.00835e-05
4.00839e-05
4.00844e-05
4.00849e-05
4.00854e-05
4.00858e-05
4.00863e-05
4.00439e-05
4.00474e-05
4.00501e-05
4.00524e-05
4.00544e-05
4.00564e-05
4.00582e-05
4.006e-05
4.00617e-05
4.00633e-05
4.00648e-05
4.00662e-05
4.00675e-05
4.00688e-05
4.00699e-05
4.00711e-05
4.00721e-05
4.00731e-05
4.00741e-05
4.0075e-05
4.00759e-05
4.00768e-05
4.00776e-05
4.00784e-05
4.00791e-05
4.00798e-05
4.00805e-05
4.00811e-05
4.00817e-05
4.00823e-05
4.00829e-05
4.00835e-05
4.00841e-05
4.00846e-05
4.00852e-05
4.00857e-05
4.00862e-05
4.00867e-05
4.00872e-05
4.00877e-05
4.00882e-05
4.00429e-05
4.00463e-05
4.00489e-05
4.00512e-05
4.00534e-05
4.00554e-05
4.00574e-05
4.00593e-05
4.00611e-05
4.00628e-05
4.00644e-05
4.0066e-05
4.00674e-05
4.00688e-05
4.00701e-05
4.00713e-05
4.00725e-05
4.00736e-05
4.00747e-05
4.00757e-05
4.00767e-05
4.00776e-05
4.00785e-05
4.00794e-05
4.00802e-05
4.00809e-05
4.00817e-05
4.00824e-05
4.00831e-05
4.00837e-05
4.00843e-05
4.0085e-05
4.00856e-05
4.00861e-05
4.00867e-05
4.00873e-05
4.00878e-05
4.00883e-05
4.00889e-05
4.00894e-05
4.00899e-05
4.00417e-05
4.00449e-05
4.00475e-05
4.00498e-05
4.0052e-05
4.00542e-05
4.00563e-05
4.00583e-05
4.00602e-05
4.0062e-05
4.00638e-05
4.00655e-05
4.0067e-05
4.00686e-05
4.007e-05
4.00713e-05
4.00726e-05
4.00738e-05
4.0075e-05
4.00761e-05
4.00772e-05
4.00783e-05
4.00792e-05
4.00802e-05
4.0081e-05
4.00819e-05
4.00827e-05
4.00834e-05
4.00842e-05
4.00849e-05
4.00856e-05
4.00862e-05
4.00869e-05
4.00875e-05
4.00881e-05
4.00887e-05
4.00892e-05
4.00898e-05
4.00904e-05
4.00909e-05
4.00914e-05
4.00402e-05
4.00433e-05
4.00458e-05
4.00482e-05
4.00504e-05
4.00526e-05
4.00548e-05
4.00569e-05
4.00589e-05
4.00609e-05
4.00628e-05
4.00646e-05
4.00663e-05
4.00679e-05
4.00695e-05
4.0071e-05
4.00724e-05
4.00737e-05
4.0075e-05
4.00762e-05
4.00774e-05
4.00786e-05
4.00796e-05
4.00806e-05
4.00816e-05
4.00825e-05
4.00834e-05
4.00842e-05
4.0085e-05
4.00858e-05
4.00865e-05
4.00872e-05
4.00879e-05
4.00885e-05
4.00892e-05
4.00898e-05
4.00904e-05
4.00909e-05
4.00915e-05
4.0092e-05
4.00926e-05
4.00383e-05
4.00413e-05
4.00438e-05
4.00461e-05
4.00484e-05
4.00507e-05
4.00529e-05
4.00551e-05
4.00572e-05
4.00593e-05
4.00613e-05
4.00632e-05
4.00651e-05
4.00668e-05
4.00685e-05
4.00701e-05
4.00717e-05
4.00731e-05
4.00745e-05
4.00759e-05
4.00772e-05
4.00784e-05
4.00796e-05
4.00807e-05
4.00817e-05
4.00827e-05
4.00836e-05
4.00845e-05
4.00854e-05
4.00862e-05
4.0087e-05
4.00877e-05
4.00884e-05
4.00891e-05
4.00898e-05
4.00904e-05
4.0091e-05
4.00916e-05
4.00922e-05
4.00928e-05
4.00934e-05
4.00362e-05
4.0039e-05
4.00414e-05
4.00437e-05
4.0046e-05
4.00483e-05
4.00506e-05
4.00528e-05
4.0055e-05
4.00571e-05
4.00592e-05
4.00612e-05
4.00632e-05
4.00651e-05
4.00669e-05
4.00687e-05
4.00703e-05
4.00719e-05
4.00735e-05
4.00749e-05
4.00763e-05
4.00777e-05
4.00789e-05
4.00801e-05
4.00812e-05
4.00823e-05
4.00833e-05
4.00843e-05
4.00852e-05
4.0086e-05
4.00869e-05
4.00876e-05
4.00884e-05
4.00891e-05
4.00898e-05
4.00905e-05
4.00911e-05
4.00917e-05
4.00923e-05
4.00928e-05
4.00934e-05
4.00336e-05
4.00363e-05
4.00386e-05
4.00409e-05
4.00431e-05
4.00454e-05
4.00476e-05
4.00498e-05
4.00521e-05
4.00543e-05
4.00564e-05
4.00586e-05
4.00607e-05
4.00627e-05
4.00646e-05
4.00665e-05
4.00683e-05
4.007e-05
4.00717e-05
4.00732e-05
4.00747e-05
4.00762e-05
4.00775e-05
4.00788e-05
4.008e-05
4.00811e-05
4.00822e-05
4.00832e-05
4.00842e-05
4.00851e-05
4.0086e-05
4.00868e-05
4.00876e-05
4.00884e-05
4.00891e-05
4.00898e-05
4.00904e-05
4.0091e-05
4.00917e-05
4.00922e-05
4.00928e-05
4.00307e-05
4.00332e-05
4.00354e-05
4.00375e-05
4.00397e-05
4.00418e-05
4.0044e-05
4.00462e-05
4.00484e-05
4.00507e-05
4.00529e-05
4.00552e-05
4.00573e-05
4.00595e-05
4.00615e-05
4.00635e-05
4.00654e-05
4.00673e-05
4.0069e-05
4.00707e-05
4.00723e-05
4.00739e-05
4.00753e-05
4.00767e-05
4.0078e-05
4.00792e-05
4.00803e-05
4.00814e-05
4.00824e-05
4.00834e-05
4.00843e-05
4.00852e-05
4.0086e-05
4.00867e-05
4.00875e-05
4.00882e-05
4.00888e-05
4.00894e-05
4.009e-05
4.00906e-05
4.00911e-05
4.00274e-05
4.00297e-05
4.00317e-05
4.00336e-05
4.00356e-05
4.00376e-05
4.00397e-05
4.00418e-05
4.00441e-05
4.00463e-05
4.00486e-05
4.00509e-05
4.00531e-05
4.00553e-05
4.00575e-05
4.00596e-05
4.00616e-05
4.00636e-05
4.00654e-05
4.00672e-05
4.00689e-05
4.00705e-05
4.00721e-05
4.00735e-05
4.00749e-05
4.00761e-05
4.00773e-05
4.00785e-05
4.00796e-05
4.00806e-05
4.00815e-05
4.00824e-05
4.00833e-05
4.00841e-05
4.00848e-05
4.00855e-05
4.00862e-05
4.00869e-05
4.00875e-05
4.00881e-05
4.00886e-05
4.00236e-05
4.00256e-05
4.00273e-05
4.00291e-05
4.00308e-05
4.00327e-05
4.00346e-05
4.00367e-05
4.00389e-05
4.00411e-05
4.00434e-05
4.00456e-05
4.00479e-05
4.00502e-05
4.00524e-05
4.00546e-05
4.00567e-05
4.00587e-05
4.00607e-05
4.00626e-05
4.00644e-05
4.00661e-05
4.00677e-05
4.00693e-05
4.00707e-05
4.00721e-05
4.00734e-05
4.00746e-05
4.00757e-05
4.00768e-05
4.00778e-05
4.00787e-05
4.00796e-05
4.00804e-05
4.00812e-05
4.00819e-05
4.00826e-05
4.00832e-05
4.00838e-05
4.00843e-05
4.00848e-05
4.00194e-05
4.0021e-05
4.00224e-05
4.00238e-05
4.00254e-05
4.0027e-05
4.00288e-05
4.00307e-05
4.00328e-05
4.00349e-05
4.0037e-05
4.00392e-05
4.00415e-05
4.00437e-05
4.0046e-05
4.00482e-05
4.00504e-05
4.00525e-05
4.00545e-05
4.00564e-05
4.00583e-05
4.00601e-05
4.00617e-05
4.00633e-05
4.00648e-05
4.00662e-05
4.00675e-05
4.00687e-05
4.00699e-05
4.0071e-05
4.0072e-05
4.0073e-05
4.00739e-05
4.00747e-05
4.00755e-05
4.00763e-05
4.0077e-05
4.00776e-05
4.00783e-05
4.00789e-05
4.00794e-05
4.00146e-05
4.00158e-05
4.00169e-05
4.0018e-05
4.00192e-05
4.00206e-05
4.00222e-05
4.00238e-05
4.00256e-05
4.00275e-05
4.00294e-05
4.00315e-05
4.00336e-05
4.00357e-05
4.00378e-05
4.00399e-05
4.0042e-05
4.00441e-05
4.00461e-05
4.00481e-05
4.00501e-05
4.00519e-05
4.00537e-05
4.00555e-05
4.00571e-05
4.00586e-05
4.00601e-05
4.00614e-05
4.00627e-05
4.00639e-05
4.0065e-05
4.00661e-05
4.0067e-05
4.00679e-05
4.00687e-05
4.00695e-05
4.00702e-05
4.00709e-05
4.00715e-05
4.0072e-05
4.00725e-05
4.00092e-05
4.00099e-05
4.00106e-05
4.00114e-05
4.00123e-05
4.00133e-05
4.00145e-05
4.00157e-05
4.00171e-05
4.00185e-05
4.00201e-05
4.00218e-05
4.00236e-05
4.00255e-05
4.00276e-05
4.00298e-05
4.0032e-05
4.00342e-05
4.00363e-05
4.00384e-05
4.00403e-05
4.00422e-05
4.0044e-05
4.00457e-05
4.00473e-05
4.00488e-05
4.00502e-05
4.00515e-05
4.00528e-05
4.00539e-05
4.0055e-05
4.00561e-05
4.0057e-05
4.00579e-05
4.00587e-05
4.00595e-05
4.00602e-05
4.00609e-05
4.00615e-05
4.00621e-05
4.00626e-05
4.00031e-05
4.00034e-05
4.00037e-05
4.0004e-05
4.00044e-05
4.00048e-05
4.00053e-05
4.00059e-05
4.00065e-05
4.00072e-05
4.00079e-05
4.00087e-05
4.00095e-05
4.00103e-05
4.00111e-05
4.00119e-05
4.00127e-05
4.00134e-05
4.00142e-05
4.0015e-05
4.00158e-05
4.00167e-05
4.00176e-05
4.00186e-05
4.00196e-05
4.00206e-05
4.00216e-05
4.00226e-05
4.00235e-05
4.00245e-05
4.00254e-05
4.00263e-05
4.00271e-05
4.00279e-05
4.00287e-05
4.00294e-05
4.00301e-05
4.00307e-05
4.00313e-05
4.00319e-05
4.00324e-05
0.00368944
0.00710493
0.00998278
0.0119618
0.0130215
0.0132199
0.0125694
0.0110231
0.00859348
0.00530887
0.00175272
6.47958e-05
2.72878e-05
8.83322e-06
4.12011e-05
4.16983e-05
3.9739e-05
3.99352e-05
4.00918e-05
4.00639e-05
4.00522e-05
4.00584e-05
4.00625e-05
4.00643e-05
4.00649e-05
4.00644e-05
4.00629e-05
4.00607e-05
4.00583e-05
4.00559e-05
4.00538e-05
4.00521e-05
4.00509e-05
4.005e-05
4.00494e-05
4.00489e-05
4.00484e-05
4.00479e-05
4.00474e-05
4.00469e-05
4.00464e-05
4.00458e-05
4.00452e-05
4.00446e-05
4.00439e-05
4.00431e-05
4.00422e-05
4.00413e-05
4.00402e-05
4.0039e-05
4.00376e-05
4.00361e-05
4.00343e-05
4.00324e-05
4.00302e-05
4.00278e-05
4.00251e-05
4.00223e-05
4.00193e-05
4.00162e-05
4.00131e-05
4.001e-05
4.00074e-05
4.00062e-05
4.00072e-05
4.00104e-05
4.00153e-05
4.00212e-05
4.00278e-05
4.0035e-05
4.00425e-05
4.00511e-05
4.00581e-05
4.00748e-05
0.00630511
0.0108653
0.0142554
0.0163841
0.0174605
0.0176448
0.0169862
0.0154557
0.0130401
0.00972611
0.00555205
0.00161114
0.000106764
2.41092e-05
1.00652e-06
4.09965e-05
4.2249e-05
3.99054e-05
3.98622e-05
4.00715e-05
4.00728e-05
4.00594e-05
4.00635e-05
4.00664e-05
4.00668e-05
4.00664e-05
4.00652e-05
4.0063e-05
4.00604e-05
4.00578e-05
4.00555e-05
4.00536e-05
4.00522e-05
4.00511e-05
4.00504e-05
4.00498e-05
4.00493e-05
4.00488e-05
4.00482e-05
4.00477e-05
4.00471e-05
4.00466e-05
4.0046e-05
4.00453e-05
4.00446e-05
4.00438e-05
4.0043e-05
4.0042e-05
4.00409e-05
4.00397e-05
4.00383e-05
4.00368e-05
4.0035e-05
4.00331e-05
4.00308e-05
4.00284e-05
4.00257e-05
4.00228e-05
4.00198e-05
4.00167e-05
4.00134e-05
4.00102e-05
4.00076e-05
4.00062e-05
4.00071e-05
4.00102e-05
4.0015e-05
4.00208e-05
4.00274e-05
4.00346e-05
4.00421e-05
4.00507e-05
4.00576e-05
4.00742e-05
0.00880916
0.0147845
0.0188892
0.0212732
0.0224224
0.0226209
0.0219685
0.0204616
0.0180839
0.0148313
0.010668
0.00574272
0.00156459
9.29795e-05
3.02028e-06
1.08364e-05
3.69919e-05
4.29923e-05
4.02599e-05
3.98085e-05
4.00447e-05
4.00822e-05
4.00627e-05
4.00655e-05
4.00701e-05
4.00693e-05
4.00672e-05
4.00653e-05
4.00629e-05
4.00601e-05
4.00574e-05
4.00552e-05
4.00535e-05
4.00523e-05
4.00515e-05
4.00508e-05
4.00502e-05
4.00496e-05
4.00491e-05
4.00485e-05
4.00479e-05
4.00473e-05
4.00467e-05
4.00461e-05
4.00454e-05
4.00446e-05
4.00437e-05
4.00428e-05
4.00417e-05
4.00404e-05
4.00391e-05
4.00375e-05
4.00357e-05
4.00337e-05
4.00315e-05
4.0029e-05
4.00263e-05
4.00234e-05
4.00203e-05
4.00171e-05
4.00138e-05
4.00105e-05
4.00077e-05
4.00063e-05
4.00071e-05
4.001e-05
4.00146e-05
4.00205e-05
4.0027e-05
4.00342e-05
4.00416e-05
4.00502e-05
4.00571e-05
4.00735e-05
0.0112807
0.0188934
0.0238561
0.0266166
0.0279281
0.0281984
0.027588
0.0261262
0.023803
0.0206184
0.0165664
0.0116008
0.00603192
0.00160985
0.00040479
0
9.79095e-06
3.44641e-05
4.29633e-05
4.07769e-05
3.97944e-05
4.00216e-05
4.01171e-05
4.00777e-05
4.00636e-05
4.00707e-05
4.00721e-05
4.00681e-05
4.00645e-05
4.0062e-05
4.00597e-05
4.00572e-05
4.00551e-05
4.00536e-05
4.00526e-05
4.00518e-05
4.00512e-05
4.00506e-05
4.00499e-05
4.00493e-05
4.00487e-05
4.00481e-05
4.00475e-05
4.00469e-05
4.00461e-05
4.00454e-05
4.00445e-05
4.00435e-05
4.00424e-05
4.00412e-05
4.00398e-05
4.00382e-05
4.00364e-05
4.00344e-05
4.00322e-05
4.00297e-05
4.0027e-05
4.0024e-05
4.00209e-05
4.00176e-05
4.00142e-05
4.00108e-05
4.00079e-05
4.00064e-05
4.0007e-05
4.00098e-05
4.00143e-05
4.002e-05
4.00265e-05
4.00337e-05
4.00411e-05
4.00496e-05
4.00565e-05
4.00727e-05
0.0138904
0.0232502
0.0291091
0.0323573
0.033945
0.034375
0.0338695
0.0324977
0.030265
0.0271722
0.0232295
0.0184207
0.0127241
0.00657436
0.00176375
0.00050007
1.26953e-05
8.96218e-06
2.81087e-05
4.25182e-05
4.13356e-05
3.96178e-05
3.9793e-05
4.01052e-05
4.01144e-05
4.00679e-05
4.00647e-05
4.00733e-05
4.00721e-05
4.00657e-05
4.00609e-05
4.00585e-05
4.00568e-05
4.00553e-05
4.00539e-05
4.00528e-05
4.00521e-05
4.00515e-05
4.00508e-05
4.00502e-05
4.00496e-05
4.00489e-05
4.00483e-05
4.00476e-05
4.00469e-05
4.00461e-05
4.00453e-05
4.00443e-05
4.00432e-05
4.00419e-05
4.00405e-05
4.00389e-05
4.00372e-05
4.00351e-05
4.00329e-05
4.00304e-05
4.00276e-05
4.00246e-05
4.00215e-05
4.00181e-05
4.00146e-05
4.00112e-05
4.00082e-05
4.00066e-05
4.0007e-05
4.00096e-05
4.0014e-05
4.00196e-05
4.0026e-05
4.00331e-05
4.00406e-05
4.0049e-05
4.00559e-05
4.00719e-05
0.0172866
0.027916
0.0345834
0.0384065
0.0403917
0.0410919
0.0407813
0.0395708
0.0374887
0.0345399
0.0307361
0.0260899
0.020584
0.0142246
0.00750969
0.00222407
6.50259e-05
3.99806e-05
7.09733e-06
1.8318e-05
4.09049e-05
4.36384e-05
4.04043e-05
3.95822e-05
3.9967e-05
4.01538e-05
4.01008e-05
4.00522e-05
4.00559e-05
4.00688e-05
4.00695e-05
4.00632e-05
4.0058e-05
4.00558e-05
4.0055e-05
4.00543e-05
4.00534e-05
4.00525e-05
4.00517e-05
4.0051e-05
4.00504e-05
4.00498e-05
4.00491e-05
4.00485e-05
4.00477e-05
4.00469e-05
4.0046e-05
4.00451e-05
4.00439e-05
4.00427e-05
4.00413e-05
4.00397e-05
4.00379e-05
4.00359e-05
4.00336e-05
4.00311e-05
4.00283e-05
4.00253e-05
4.00221e-05
4.00187e-05
4.00151e-05
4.00116e-05
4.00085e-05
4.00068e-05
4.0007e-05
4.00094e-05
4.00136e-05
4.00191e-05
4.00255e-05
4.00325e-05
4.00399e-05
4.00483e-05
4.00552e-05
4.00709e-05
0.0219862
0.0329072
0.0402113
0.0446528
0.0471408
0.0482297
0.0482247
0.0472725
0.0454268
0.0427018
0.0391073
0.0346616
0.0293795
0.0232463
0.0162816
0.00898949
0.0031462
0.000194836
0.0001267
4.0647e-06
1.05282e-05
3.28234e-05
4.37058e-05
4.21089e-05
3.97118e-05
3.96189e-05
4.00893e-05
4.02112e-05
4.01184e-05
4.00504e-05
4.00467e-05
4.00612e-05
4.00661e-05
4.00618e-05
4.00565e-05
4.00539e-05
4.00534e-05
4.00534e-05
4.0053e-05
4.00522e-05
4.00513e-05
4.00506e-05
4.00499e-05
4.00492e-05
4.00485e-05
4.00477e-05
4.00468e-05
4.00458e-05
4.00447e-05
4.00435e-05
4.00421e-05
4.00405e-05
4.00387e-05
4.00366e-05
4.00344e-05
4.00318e-05
4.0029e-05
4.0026e-05
4.00227e-05
4.00193e-05
4.00157e-05
4.00121e-05
4.00089e-05
4.0007e-05
4.00071e-05
4.00092e-05
4.00132e-05
4.00186e-05
4.00249e-05
4.00318e-05
4.00392e-05
4.00476e-05
4.00544e-05
4.00699e-05
0.0275811
0.0381752
0.045925
0.0509622
0.0540204
0.0556049
0.0560241
0.0554459
0.0539461
0.0515507
0.0482693
0.0441156
0.039112
0.0332752
0.0265921
0.0190832
0.0112728
0.00452355
0.000629701
0.000357641
3.57442e-05
7.89566e-06
1.56106e-05
3.87943e-05
4.40105e-05
4.11713e-05
3.93259e-05
3.95007e-05
4.00542e-05
4.02193e-05
4.01375e-05
4.00544e-05
4.00372e-05
4.00517e-05
4.0063e-05