/*--------------------------------*- C++ -*----------------------------------*\
| =========                 |                                                 |
| \\      /  F ield         | OpenFOAM: The Open Source CFD Toolbox           |
|  \\    /   O peration     | Version:  2312                                  |
|   \\  /    A nd           | Website:  www.openfoam.com                      |
|    \\/     M anipulation  |                                                 |
\*---------------------------------------------------------------------------*/
FoamFile
{
    version     2.0;
    format      ascii;
    arch        "LSB;label=32;scalar=64";
    class       volScalarField;
    location    "750";
    object      p;
}
// * * * * * * * * * * * * * * * * * * * * * * * * * * * * * * * * * * * * * //

dimensions      [0 2 -2 0 0 0 0];

internalField   nonuniform List<scalar> 
11040
(
-19.2571
-24.5883
-19.9038
-19.2827
-19.1566
-18.9548
-18.7551
-18.5902
-18.4649
-18.3786
-18.3011
-18.2382
-18.1898
-18.1467
-18.1154
-18.0912
-18.076
-18.0698
-18.0719
-18.0836
-18.1024
-18.1295
-18.168
-18.2166
-18.2696
-18.3214
-18.3645
-18.3897
-18.3865
-18.3442
-18.253
-18.1055
-17.8978
-17.6326
-17.324
-16.9959
-16.6653
-16.4017
-16.3799
-16.3677
-16.8375
-8.27789
-14.7721
-18.6333
-19.1033
-19.1152
-18.9641
-18.7652
-18.5964
-18.4654
-18.3776
-18.2995
-18.235
-18.1862
-18.1424
-18.1106
-18.086
-18.0704
-18.0638
-18.0655
-18.0768
-18.0955
-18.1226
-18.1607
-18.209
-18.2621
-18.3144
-18.3586
-18.3855
-18.3847
-18.3454
-18.2576
-18.1139
-17.9107
-17.65
-17.3458
-17.0219
-16.6953
-16.4317
-16.4136
-16.3822
-17.2518
-1.58863
-8.51493
-14.7204
-18.0498
-18.8589
-18.9163
-18.7715
-18.6027
-18.4625
-18.3739
-18.2964
-18.2301
-18.1814
-18.137
-18.1046
-18.0797
-18.0636
-18.0566
-18.0578
-18.0686
-18.0871
-18.1144
-18.1524
-18.2003
-18.2534
-18.3062
-18.3513
-18.3798
-18.3814
-18.3454
-18.2617
-18.123
-17.9257
-17.6717
-17.3746
-17.0584
-16.741
-16.4832
-16.4784
-16.4253
-17.4676
2.34639
-4.71699
-10.6464
-14.9933
-17.6514
-18.6242
-18.6923
-18.6029
-18.4593
-18.3674
-18.2908
-18.2222
-18.1744
-18.1292
-18.0964
-18.0711
-18.0544
-18.0471
-18.0478
-18.0582
-18.0764
-18.1039
-18.1418
-18.1896
-18.2429
-18.2964
-18.343
-18.3738
-18.3786
-18.3469
-18.2688
-18.1368
-17.9474
-17.7025
-17.4149
-17.1088
-16.8031
-16.5561
-16.5653
-16.5071
-17.5534
4.8743
-0.907621
-6.5782
-11.3081
-14.8921
-17.2566
-18.3073
-18.442
-18.4514
-18.3649
-18.2867
-18.2104
-18.1648
-18.1189
-18.0861
-18.0605
-18.043
-18.0354
-18.0355
-18.0453
-18.0631
-18.0908
-18.1286
-18.1763
-18.23
-18.2845
-18.333
-18.3668
-18.376
-18.3502
-18.2793
-18.1563
-17.9774
-17.7444
-17.4697
-17.177
-16.8867
-16.656
-16.6732
-16.6297
-17.591
6.31566
1.79567
-3.08786
-7.77131
-11.6713
-14.6321
-16.7425
-17.8687
-18.2082
-18.3109
-18.2862
-18.201
-18.1533
-18.1049
-18.0729
-18.0475
-18.0295
-18.0216
-18.021
-18.0302
-18.0473
-18.075
-18.1126
-18.1602
-18.2143
-18.2701
-18.3211
-18.3589
-18.3737
-18.3553
-18.294
-18.1825
-18.0172
-17.7997
-17.5418
-17.2667
-16.9961
-16.787
-16.8043
-16.7939
-17.6253
7.09478
3.47612
-0.480479
-4.58224
-8.45428
-11.717
-14.2511
-16.1547
-17.3773
-17.9637
-18.1158
-18.1947
-18.1501
-18.0928
-18.0558
-18.0308
-18.0128
-18.0055
-18.0043
-18.0129
-18.0291
-18.0562
-18.0934
-18.1407
-18.1953
-18.2528
-18.3069
-18.3496
-18.3716
-18.3627
-18.3135
-18.2167
-18.0686
-17.8707
-17.6341
-17.3809
-17.1343
-16.9507
-16.9618
-16.9948
-17.6725
7.40455
4.47076
1.32153
-2.04928
-5.49181
-8.75956
-11.5825
-13.8195
-15.5501
-16.8286
-17.5803
-17.9065
-18.0589
-18.0981
-18.046
-18.0145
-17.9913
-17.9855
-17.9845
-17.9932
-18.0083
-18.0346
-18.0708
-18.1175
-18.1726
-18.2318
-18.2897
-18.3385
-18.3693
-18.3723
-18.338
-18.2594
-18.1325
-17.9588
-17.7482
-17.5213
-17.3026
-17.1454
-17.1478
-17.2197
-17.7346
7.40619
4.98966
2.45985
-0.261345
-3.1354
-6.04382
-8.84057
-11.3297
-13.3593
-14.9529
-16.2015
-17.0962
-17.624
-17.8579
-18.004
-18.0188
-17.9757
-17.9641
-17.9591
-17.9696
-17.9843
-18.0097
-18.0448
-18.0905
-18.1457
-18.2068
-18.2688
-18.3247
-18.3659
-18.3831
-18.367
-18.3102
-18.2089
-18.0638
-17.8837
-17.687
-17.4985
-17.3652
-17.3579
-17.447
-17.8076
7.19315
5.16785
3.10452
0.911306
-1.43657
-3.88764
-6.36617
-8.78066
-10.9975
-12.8749
-14.3621
-15.5571
-16.5246
-17.2089
-17.6062
-17.8199
-17.957
-17.9653
-17.9392
-17.9437
-17.954
-17.9792
-18.0139
-18.0589
-18.1143
-18.1772
-18.2436
-18.3073
-18.3603
-18.3936
-18.3983
-18.3668
-18.2948
-18.1823
-18.0363
-17.8724
-17.7136
-17.5987
-17.5786
-17.6538
-17.8797
6.83342
5.11054
3.39876
1.61475
-0.2924
-2.31568
-4.41708
-6.54383
-8.6362
-10.6109
-12.352
-13.7825
-14.9367
-15.9003
-16.6788
-17.2346
-17.5698
-17.7898
-17.9286
-17.9431
-17.9289
-17.9447
-17.9746
-18.0186
-18.0756
-18.1414
-18.2128
-18.285
-18.3507
-18.4015
-18.4288
-18.4248
-18.3843
-18.3062
-18.1951
-18.0635
-17.9307
-17.8258
-17.7852
-17.8179
-17.9283
6.37567
4.89057
3.44643
1.97394
0.417413
-1.23858
-2.98522
-4.79454
-6.62766
-8.44259
-10.1885
-11.7966
-13.1885
-14.3291
-15.2687
-16.0719
-16.7295
-17.2145
-17.5292
-17.7645
-17.9129
-17.9431
-17.945
-17.974
-18.0257
-18.0922
-18.1699
-18.2528
-18.3332
-18.4028
-18.4537
-18.4778
-18.4687
-18.4237
-18.3447
-18.24
-18.1243
-18.0182
-17.9456
-17.9167
-17.9255
5.85682
4.56292
3.32656
2.09229
0.80695
-0.551932
-1.98974
-3.49989
-5.06237
-6.6462
-8.21842
-9.75416
-11.2203
-12.5562
-13.6997
-14.6411
-15.436
-16.1306
-16.7136
-17.1606
-17.4618
-17.7077
-17.9049
-17.9897
-18.011
-18.0464
-18.1131
-18.1995
-18.2936
-18.3836
-18.4598
-18.513
-18.5351
-18.5209
-18.469
-18.3836
-18.274
-18.1531
-18.035
-17.9341
-17.8507
5.30473
4.16825
3.09711
2.04768
0.971841
-0.153348
-1.33851
-2.58691
-3.8942
-5.24454
-6.6128
-7.97818
-9.32691
-10.6405
-11.8868
-13.0154
-13.9824
-14.7903
-15.4892
-16.1134
-16.6602
-17.055
-17.3139
-17.5719
-17.846
-18.0472
-18.1471
-18.2003
-18.2583
-18.3341
-18.4184
-18.4949
-18.5475
-18.5647
-18.5393
-18.4699
-18.361
-18.2193
-18.0531
-17.8812
-17.7127
4.7404
3.73676
2.8006
1.89785
0.985857
0.0434773
-0.940436
-1.97301
-3.05709
-4.18811
-5.35307
-6.53723
-7.72677
-8.90776
-10.0695
-11.1989
-12.2711
-13.2476
-14.0984
-14.8269
-15.4938
-16.0436
-16.4473
-16.7892
-17.0757
-17.3341
-17.6302
-17.9529
-18.2228
-18.3942
-18.4839
-18.5265
-18.5416
-18.5344
-18.5
-18.431
-18.3203
-18.167
-17.9716
-17.7504
-17.5188
4.1837
3.29441
2.47086
1.6867
0.904692
0.106288
-0.718651
-1.57802
-2.47721
-3.4172
-4.39299
-5.39777
-6.42335
-7.45748
-8.48825
-9.50696
-10.5081
-11.4836
-12.4182
-13.2821
-14.0611
-14.7145
-15.2369
-15.6845
-16.0806
-16.4307
-16.7336
-16.9908
-17.2378
-17.5234
-17.8498
-18.1616
-18.3941
-18.5173
-18.5326
-18.4575
-18.3087
-18.0993
-17.8314
-17.5254
-17.2112
3.65676
2.8678
2.14049
1.45426
0.777107
0.0932425
-0.605912
-1.32764
-2.07794
-2.85977
-3.67226
-4.51316
-5.37935
-6.26405
-7.15841
-8.05288
-8.93917
-9.81155
-10.667
-11.5017
-12.3069
-13.0457
-13.6903
-14.246
-14.7312
-15.1634
-15.5504
-15.8968
-16.2073
-16.479
-16.7057
-16.8948
-17.0673
-17.2415
-17.4073
-17.5369
-17.5969
-17.5693
-17.4362
-17.2131
-16.9407
3.19051
2.48581
1.83849
1.23126
0.636585
0.0412553
-0.561827
-1.17899
-1.81565
-2.47511
-3.15837
-3.86544
-4.59556
-5.34539
-6.10996
-6.88298
-7.65738
-8.42629
-9.18392
-9.92663
-10.6511
-11.3325
-11.9562
-12.5239
-13.035
-13.4925
-13.9024
-14.2729
-14.6099
-14.9151
-15.1893
-15.432
-15.6371
-15.798
-15.9031
-15.9488
-15.9367
-15.882
-15.777
-15.6229
-15.4583
2.79296
2.158
1.57646
1.03309
0.503974
-0.0219857
-0.550796
-1.08799
-1.63843
-2.20528
-2.78983
-3.393
-4.01508
-4.6544
-5.30816
-5.97256
-6.64299
-7.31433
-7.98096
-8.63709
-9.27692
-9.87388
-10.4136
-10.9029
-11.3465
-11.7501
-12.1182
-12.4537
-12.7588
-13.0356
-13.2855
-13.5079
-13.6997
-13.8571
-13.9736
-14.0445
-14.0639
-14.0355
-13.9521
-13.8064
-13.6374
2.45596
1.88045
1.35445
0.864183
0.388844
-0.0809743
-0.55042
-1.02431
-1.50686
-2.00091
-2.50775
-3.02857
-3.56408
-4.11342
-4.67489
-5.24596
-5.8234
-6.40347
-6.98204
-7.55457
-8.11639
-8.64421
-9.12334
-9.55692
-9.94588
-10.2927
-10.6008
-10.8736
-11.1143
-11.3251
-11.5071
-11.6604
-11.7849
-11.8801
-11.9453
-11.9788
-11.9787
-11.9441
-11.8734
-11.7598
-11.6153
2.16855
1.64475
1.16666
0.721716
0.291824
-0.131055
-0.551385
-0.97338
-1.40068
-1.83573
-2.27976
-2.7338
-3.19872
-3.67405
-4.15863
-4.6507
-5.1479
-5.64736
-6.14575
-6.63942
-7.1245
-7.58172
-7.99869
-8.3771
-8.71651
-9.01763
-9.28171
-9.51023
-9.70469
-9.86673
-9.99787
-10.0996
-10.173
-10.2187
-10.2375
-10.2291
-10.1941
-10.1309
-10.0422
-9.92701
-9.78823
1.92246
1.44435
1.00832
0.602871
0.212274
-0.170364
-0.548977
-0.92725
-1.30831
-1.69426
-2.08617
-2.48489
-2.89122
-3.30486
-3.72496
-4.15014
-4.57858
-5.008
-5.43568
-5.8585
-6.27308
-6.6633
-7.01902
-7.34139
-7.62985
-7.88475
-8.10687
-8.29708
-8.45632
-8.58558
-8.68591
-8.75827
-8.80373
-8.82333
-8.81858
-8.79036
-8.74018
-8.66834
-8.57813
-8.46952
-8.34591
1.71096
1.27365
0.874971
0.504408
0.148339
-0.199198
-0.541687
-0.882367
-1.22392
-1.56812
-1.91588
-2.26786
-2.62472
-2.98623
-3.35165
-3.71987
-4.08938
-4.4583
-4.82437
-5.18496
-5.53718
-5.86762
-6.16807
-6.43931
-6.68068
-6.89236
-7.07498
-7.22925
-7.35606
-7.45634
-7.53116
-7.58156
-7.60869
-7.61371
-7.59802
-7.56256
-7.50853
-7.43688
-7.35001
-7.24841
-7.13468
1.52868
1.12806
0.762846
0.423442
0.0980734
-0.218419
-0.529163
-0.836994
-1.14423
-1.45233
-1.76207
-2.07397
-2.38848
-2.70541
-3.02409
-3.34353
-3.66245
-3.97924
-4.292
-4.59846
-4.89617
-5.17406
-5.42567
-5.65159
-5.85125
-6.02475
-6.17268
-6.29572
-6.39473
-6.47063
-6.52454
-6.55751
-6.57077
-6.56544
-6.54296
-6.50431
-6.45073
-6.38315
-6.30352
-6.21255
-6.11197
1.3712
1.00378
0.668731
0.357351
0.0595254
-0.22926
-0.511802
-0.790609
-1.06765
-1.34416
-1.62076
-1.89785
-2.17571
-2.45414
-2.73252
-3.00995
-3.28531
-3.5572
-3.82397
-4.08371
-4.3343
-4.5667
-4.77594
-4.96259
-5.12619
-5.26694
-5.38539
-5.48229
-5.55843
-5.61481
-5.65242
-5.67243
-5.67595
-5.66417
-5.63836
-5.59963
-5.54905
-5.48755
-5.4168
-5.33749
-5.25132
1.23493
0.897635
0.589898
0.303874
0.0308992
-0.232973
-0.490271
-0.743197
-0.993437
-1.24203
-1.48947
-1.73603
-1.9819
-2.22683
-2.47025
-2.71133
-2.94908
-3.18228
-3.40949
-3.6291
-3.83932
-4.0328
-4.20583
-4.35899
-4.49199
-4.60512
-4.69897
-4.77432
-4.83195
-4.87284
-4.89797
-4.90843
-4.90527
-4.88961
-4.86261
-4.82528
-4.7786
-4.72338
-4.66107
-4.5922
-4.51847
1.11686
0.806974
0.524045
0.261038
0.0105926
-0.230779
-0.465346
-0.695062
-0.921353
-1.14511
-1.36669
-1.58633
-1.80408
-2.0197
-2.23263
-2.44215
-2.64735
-2.84719
-3.04043
-3.22571
-3.40152
-3.56196
-3.70434
-3.82929
-3.93665
-4.02683
-4.10045
-4.15829
-4.20114
-4.22993
-4.24559
-4.24914
-4.24154
-4.22378
-4.19691
-4.16181
-4.11934
-4.07017
-4.01556
-3.95589
-3.89266
1.01447
0.729567
0.469213
0.227164
-0.00281315
-0.223781
-0.437811
-0.646607
-0.851406
-1.05294
-1.2515
-1.44724
-1.64018
-1.83002
-2.01629
-2.19833
-2.37534
-2.54641
-2.71051
-2.86649
-3.01314
-3.14569
-3.26235
-3.36375
-3.4499
-3.52122
-3.57843
-3.62224
-3.65347
-3.67295
-3.6816
-3.68028
-3.66992
-3.65134
-3.62549
-3.5931
-3.55495
-3.51156
-3.46402
-3.41259
-3.3586
0.925636
0.663526
0.423743
0.200795
-0.0105377
-0.212974
-0.408387
-0.598283
-0.783716
-0.965305
-1.14329
-1.31777
-1.48871
-1.65585
-1.81874
-1.9768
-2.12935
-2.27562
-2.41476
-2.54581
-2.6678
-2.77696
-2.87217
-2.95408
-3.0228
-3.07881
-3.12281
-3.15553
-3.17774
-3.1902
-3.19375
-3.18917
-3.17726
-3.15877
-3.13448
-3.10505
-3.07112
-3.03312
-2.99196
-2.94785
-2.90193
0.848563
0.607245
0.386214
0.180701
-0.0136451
-0.199217
-0.377736
-0.55051
-0.718466
-0.88211
-1.04166
-1.19716
-1.34858
-1.49565
-1.63802
-1.77514
-1.90648
-2.03138
-2.14916
-2.25903
-2.36026
-2.44988
-2.5273
-2.59316
-2.64768
-2.69135
-2.72486
-2.7489
-2.76421
-2.77147
-2.77143
-2.7648
-2.75226
-2.73446
-2.71207
-2.68564
-2.65571
-2.62264
-2.58717
-2.54946
-2.51048
0.78171
0.559353
0.355422
0.165813
-0.0130359
-0.183263
-0.346421
-0.503679
-0.655824
-0.803308
-0.946302
-1.08485
-1.2189
-1.34825
-1.47256
-1.59141
-1.70433
-1.81083
-1.91034
-2.00228
-2.08607
-2.15944
-2.22216
-2.27491
-2.31792
-2.35172
-2.37695
-2.3943
-2.40438
-2.40788
-2.40542
-2.39763
-2.38509
-2.36838
-2.34803
-2.32453
-2.2983
-2.26967
-2.23921
-2.20706
-2.17405
0.723755
0.51868
0.330327
0.155231
-0.00949308
-0.165742
-0.31494
-0.458114
-0.595955
-0.728857
-0.85698
-0.980364
-1.09897
-1.21262
-1.32106
-1.42394
-1.5209
-1.61155
-1.69548
-1.77225
-1.84144
-1.90133
-1.95198
-1.99405
-2.02781
-2.05378
-2.07256
-2.08478
-2.09102
-2.09187
-2.08787
-2.07958
-2.0675
-2.05209
-2.03383
-2.01311
-1.99028
-1.9656
-1.93954
-1.9122
-1.88429
0.673562
0.484212
0.310044
0.148173
-0.00367309
-0.147202
-0.283699
-0.414093
-0.538977
-0.658723
-0.773471
-0.883285
-0.98813
-1.08789
-1.18236
-1.2713
-1.35442
-1.43146
-1.50211
-1.56607
-1.62306
-1.6718
-1.71256
-1.74596
-1.77231
-1.79209
-1.80586
-1.81421
-1.81764
-1.81667
-1.81178
-1.80345
-1.79209
-1.77811
-1.76188
-1.74374
-1.72398
-1.7028
-1.6806
-1.65741
-1.63388
0.630146
0.455084
0.293801
0.14398
0.0038519
-0.128095
-0.253051
-0.371834
-0.484988
-0.592846
-0.695571
-0.793226
-0.885826
-0.973281
-1.05548
-1.13224
-1.20338
-1.26872
-1.32808
-1.38124
-1.42808
-1.46763
-1.50034
-1.52677
-1.54723
-1.56218
-1.57215
-1.57763
-1.57909
-1.57697
-1.57169
-1.56365
-1.5532
-1.54068
-1.52641
-1.51064
-1.49363
-1.47553
-1.45666
-1.43705
-1.41724
0.592653
0.430532
0.280944
0.14207
0.0126055
-0.108812
-0.223274
-0.331517
-0.43404
-0.531163
-0.623063
-0.70983
-0.791516
-0.868084
-0.93949
-1.00562
-1.06638
-1.12168
-1.17142
-1.2155
-1.25387
-1.28585
-1.31197
-1.33277
-1.34854
-1.3597
-1.36673
-1.37008
-1.37014
-1.36731
-1.36195
-1.35438
-1.34492
-1.33382
-1.32136
-1.30775
-1.29319
-1.27779
-1.26184
-1.24531
-1.2287
0.560339
0.409906
0.270888
0.141953
0.0221699
-0.0896796
-0.194602
-0.293275
-0.386161
-0.473581
-0.555735
-0.632747
-0.704706
-0.771635
-0.833545
-0.890409
-0.942196
-0.988892
-1.03049
-1.06697
-1.09834
-1.12415
-1.14499
-1.16133
-1.17347
-1.18176
-1.18666
-1.18853
-1.18774
-1.18461
-1.17945
-1.17253
-1.1641
-1.15438
-1.1436
-1.13192
-1.11951
-1.10646
-1.09299
-1.07908
-1.06516
0.532568
0.392635
0.263147
0.143194
0.0321872
-0.0709737
-0.167233
-0.257208
-0.341356
-0.419998
-0.493371
-0.561631
-0.624917
-0.683301
-0.736857
-0.785622
-0.82963
-0.868929
-0.903579
-0.933618
-0.95913
-0.979812
-0.99628
-1.00897
-1.01814
-1.02413
-1.02734
-1.02808
-1.02668
-1.02341
-1.01852
-1.01224
-1.0048
-0.996349
-0.987084
-0.977138
-0.966644
-0.955671
-0.944401
-0.932794
-0.921235
0.508769
0.378229
0.257285
0.145432
0.0423569
-0.0529347
-0.14132
-0.223395
-0.299605
-0.370302
-0.435748
-0.496155
-0.551697
-0.602515
-0.648725
-0.690446
-0.727756
-0.760772
-0.789601
-0.814342
-0.835115
-0.851755
-0.864857
-0.874812
-0.88185
-0.886276
-0.888413
-0.888556
-0.886955
-0.883848
-0.87944
-0.873928
-0.867476
-0.860235
-0.852341
-0.843914
-0.835053
-0.82582
-0.816354
-0.806622
-0.796953
0.488406
0.366198
0.252894
0.148322
0.0524053
-0.0357576
-0.116997
-0.191886
-0.260881
-0.324367
-0.382649
-0.435986
-0.4846
-0.528679
-0.56839
-0.603902
-0.635338
-0.662854
-0.686602
-0.706715
-0.723348
-0.736431
-0.746545
-0.754042
-0.759131
-0.762086
-0.763192
-0.762704
-0.760839
-0.757795
-0.753747
-0.748854
-0.743254
-0.737065
-0.730398
-0.723344
-0.715984
-0.708362
-0.70059
-0.692622
-0.684759
0.471008
0.356095
0.249544
0.151498
0.0620451
-0.01965
-0.0943839
-0.162725
-0.225146
-0.28207
-0.333857
-0.380819
-0.423233
-0.461347
-0.49538
-0.525557
-0.552051
-0.575058
-0.59476
-0.611321
-0.624911
-0.635521
-0.643686
-0.6497
-0.65374
-0.656035
-0.656821
-0.656308
-0.654672
-0.652072
-0.648648
-0.644529
-0.639824
-0.634631
-0.629037
-0.623116
-0.616935
-0.610528
-0.60399
-0.597278
-0.590653
0.456347
0.347691
0.246993
0.154681
0.0710039
-0.0048287
-0.073616
-0.135958
-0.192362
-0.243294
-0.289162
-0.33033
-0.367123
-0.399824
-0.428686
-0.453951
-0.475823
-0.494522
-0.510264
-0.523233
-0.533625
-0.541483
-0.547327
-0.551417
-0.553921
-0.555043
-0.554994
-0.553956
-0.55208
-0.549501
-0.546337
-0.542689
-0.538647
-0.534285
-0.529669
-0.524856
-0.519893
-0.514802
-0.509656
-0.504401
-0.499278
0.444273
0.340964
0.245273
0.157898
0.0792456
0.00861638
-0.0547842
-0.111613
-0.162468
-0.207895
-0.248364
-0.284288
-0.316058
-0.344042
-0.368578
-0.389966
-0.408438
-0.424213
-0.437494
-0.448465
-0.457306
-0.464083
-0.469225
-0.472939
-0.47535
-0.476621
-0.476913
-0.476368
-0.475099
-0.47321
-0.470793
-0.467927
-0.464684
-0.461123
-0.457302
-0.453266
-0.449058
-0.444699
-0.440252
-0.435679
-0.431174
0.433909
0.335136
0.243879
0.160928
0.086747
0.0207225
-0.0378794
-0.0897145
-0.135444
-0.175725
-0.211148
-0.2422
-0.269265
-0.292645
-0.31263
-0.329544
-0.343697
-0.355388
-0.364876
-0.372372
-0.378069
-0.382066
-0.384789
-0.38643
-0.387104
-0.386963
-0.386153
-0.384801
-0.383004
-0.380852
-0.378415
-0.375759
-0.372933
-0.369981
-0.366939
-0.363835
-0.360695
-0.357526
-0.354372
-0.351172
-0.348124
0.42374
0.328307
0.24084
0.162098
0.092371
0.0309075
-0.0231074
-0.0703415
-0.111418
-0.146969
-0.177642
-0.204111
-0.227036
-0.246992
-0.264383
-0.279441
-0.2923
-0.303125
-0.312114
-0.319466
-0.325354
-0.329883
-0.333361
-0.335923
-0.337647
-0.338643
-0.339009
-0.338832
-0.338179
-0.337112
-0.335683
-0.333943
-0.331931
-0.329688
-0.327246
-0.324637
-0.321886
-0.31901
-0.316047
-0.312981
-0.309921
0.415078
0.321345
0.236149
0.160537
0.0947826
0.0379405
-0.0111349
-0.0534599
-0.0899002
-0.121143
-0.147682
-0.169862
-0.187984
-0.202418
-0.213696
-0.222487
-0.229356
-0.234651
-0.238576
-0.241286
-0.242929
-0.243596
-0.24361
-0.243093
-0.242115
-0.24078
-0.239178
-0.237391
-0.235473
-0.233477
-0.231439
-0.229393
-0.227361
-0.225362
-0.223405
-0.221503
-0.219662
-0.217879
-0.21617
-0.214482
-0.212957
0.413879
0.321596
0.237213
0.162401
0.0980552
0.0436955
-0.00168549
-0.0392874
-0.0704208
-0.0964067
-0.118467
-0.137627
-0.154634
-0.169883
-0.183375
-0.194878
-0.204317
-0.211986
-0.218258
-0.223412
-0.227632
-0.23106
-0.233883
-0.236172
-0.237968
-0.239333
-0.240312
-0.240946
-0.241261
-0.241289
-0.241049
-0.240571
-0.23987
-0.238974
-0.237897
-0.236662
-0.235282
-0.233777
-0.232156
-0.230448
-0.228642
0.417491
0.327995
0.245687
0.171873
0.107607
0.0529703
0.00759158
-0.0291129
-0.0578949
-0.0796234
-0.0952145
-0.105614
-0.111794
-0.11479
-0.115713
-0.115592
-0.114852
-0.113564
-0.11173
-0.109434
-0.106763
-0.103765
-0.100649
-0.097501
-0.0943522
-0.0912589
-0.0882608
-0.0853984
-0.082686
-0.0801423
-0.0777679
-0.0755689
-0.073537
-0.0716688
-0.0699502
-0.0683753
-0.0669322
-0.0656053
-0.0643902
-0.0632418
-0.0622349
0.398988
0.308006
0.228859
0.16093
0.103369
0.0548928
0.0142185
-0.0197759
-0.0480733
-0.0715499
-0.0909939
-0.107109
-0.120511
-0.131717
-0.141111
-0.149034
-0.155779
-0.161259
-0.165842
-0.169911
-0.173691
-0.177302
-0.180715
-0.183901
-0.186896
-0.189714
-0.19237
-0.194859
-0.197195
-0.19938
-0.201434
-0.203359
-0.205179
-0.206896
-0.208535
-0.210097
-0.211604
-0.213062
-0.214478
-0.215887
-0.217207
-15.8199
-14.8526
-14.0496
-13.6136
-13.1557
-12.6288
-12.0717
-11.4846
-10.8642
-10.2228
-9.55992
-8.88119
-8.19074
-7.5018
-6.82236
-6.16189
-5.52353
-4.91678
-4.34192
-3.80729
-3.30973
-2.85495
-2.44024
-2.06644
-1.73198
-1.43517
-1.17381
-0.945397
-0.747375
-0.576809
-0.431264
-0.307423
-0.203404
-0.116132
-0.0437879
0.0157299
0.0644441
0.103726
0.135163
0.159885
0.179054
0.193513
0.204079
0.211359
0.216127
0.218475
0.219224
0.218427
0.216366
0.213324
0.209586
0.204984
0.199931
0.194346
0.188355
0.182059
0.175176
0.16824
0.160748
0.153134
0.145004
0.136708
0.127852
0.118739
0.109192
0.099178
0.0885903
0.0778391
0.0655493
0.0550737
0.0385723
0.0338316
0.000772417
0.0303999
-16.5385
-15.5727
-14.6344
-14.0244
-13.4625
-12.8736
-12.2723
-11.6498
-10.9998
-10.3325
-9.65181
-8.96352
-8.26266
-7.56135
-6.87042
-6.19948
-5.55228
-4.93757
-4.35644
-3.81618
-3.31442
-2.85603
-2.43863
-2.0628
-1.72689
-1.42911
-1.16716
-0.938483
-0.740447
-0.570068
-0.424797
-0.301374
-0.197781
-0.111005
-0.0391647
0.0198753
0.0681118
0.106947
0.137968
0.162305
0.181122
0.195264
0.205533
0.212568
0.217085
0.219238
0.219808
0.218833
0.216634
0.213473
0.209618
0.204924
0.199785
0.19413
0.188082
0.181714
0.1748
0.167816
0.160299
0.152653
0.144511
0.136189
0.127331
0.118216
0.108668
0.0986631
0.0880864
0.077354
0.0650955
0.0546403
0.0382103
0.0334689
0.00057521
0.0301903
-17.0286
-16.3146
-15.3105
-14.5306
-13.8488
-13.1808
-12.522
-11.8548
-11.1681
-10.4681
-9.75987
-9.05435
-8.34382
-7.63094
-6.92698
-6.24366
-5.58592
-4.9619
-4.37325
-3.82644
-3.31971
-2.85712
-2.43661
-2.05843
-1.72086
-1.42198
-1.1594
-0.930443
-0.732425
-0.562282
-0.417376
-0.294451
-0.191384
-0.105195
-0.0339399
0.0245381
0.0722205
0.110542
0.141083
0.164985
0.1834
0.197179
0.207122
0.213873
0.218123
0.220056
0.220422
0.219267
0.216919
0.213625
0.209647
0.204855
0.199626
0.193899
0.187787
0.181354
0.174404
0.167373
0.159831
0.152154
0.143999
0.135654
0.126796
0.117678
0.10813
0.0981371
0.0875719
0.0768605
0.0646355
0.0542017
0.0378462
0.0331
0.000389621
0.0299686
-17.4539
-16.9667
-16.0043
-15.1071
-14.3067
-13.5485
-12.8209
-12.1005
-11.3711
-10.6342
-9.89281
-9.15894
-8.43232
-7.70914
-6.99281
-6.29561
-5.62529
-4.99035
-4.39273
-3.83832
-3.32567
-2.85821
-2.43409
-2.0532
-1.71373
-1.4136
-1.15033
-0.921095
-0.723132
-0.55329
-0.408846
-0.286515
-0.184087
-0.0985901
-0.0280179
0.0298024
0.076843
0.114571
0.14456
0.167967
0.185923
0.199288
0.20887
0.215294
0.219254
0.220941
0.221079
0.219733
0.217222
0.213781
0.209675
0.204778
0.199454
0.19365
0.187468
0.180976
0.173986
0.166909
0.159341
0.151635
0.143465
0.135103
0.126245
0.117125
0.10758
0.0976001
0.087048
0.0763595
0.0641703
0.0537585
0.0374821
0.0327263
0.000218482
0.0297344
-17.7921
-17.4942
-16.6571
-15.7169
-14.8225
-13.9756
-13.1727
-12.3915
-11.613
-10.8339
-10.0553
-9.28629
-8.53186
-7.79285
-7.06548
-6.35522
-5.67096
-5.02309
-4.41488
-3.85161
-3.33202
-2.85891
-2.43063
-2.04665
-1.70504
-1.40353
-1.13953
-0.910049
-0.71222
-0.542788
-0.398931
-0.277331
-0.175681
-0.0910132
-0.0212501
0.0357903
0.0820792
0.119117
0.148469
0.171301
0.188732
0.201628
0.210797
0.216855
0.220489
0.221899
0.221786
0.22023
0.21754
0.213939
0.209696
0.204685
0.199261
0.193376
0.18712
0.180568
0.173536
0.166414
0.158819
0.151086
0.142902
0.134525
0.125668
0.116547
0.107008
0.097043
0.0865081
0.0758439
0.0636941
0.053304
0.037115
0.0323416
6.16097e-05
0.0294813
-18.044
-17.8975
-17.2182
-16.3078
-15.365
-14.4475
-13.5726
-12.7279
-11.896
-11.0704
-10.2501
-9.44217
-8.65187
-7.88511
-7.14164
-6.41963
-5.72225
-5.06067
-4.4398
-3.86605
-3.33839
-2.85875
-2.42568
-2.0382
-1.6942
-1.39123
-1.12648
-0.896823
-0.699253
-0.530387
-0.387287
-0.266601
-0.165909
-0.0822433
-0.0134517
0.0426599
0.0880601
0.124289
0.1529
0.175062
0.191888
0.204249
0.212946
0.218589
0.221853
0.222953
0.222562
0.220769
0.217882
0.214107
0.209714
0.204581
0.19905
0.193078
0.186747
0.180131
0.173056
0.165887
0.158266
0.150506
0.142311
0.133919
0.125066
0.115945
0.106414
0.0964653
0.0859509
0.0753125
0.0632057
0.0528367
0.0367439
0.0319443
-8.10534e-05
0.029206
-18.2159
-18.1762
-17.6547
-16.8269
-15.8895
-14.9342
-14.0031
-13.1002
-12.2153
-11.3418
-10.4776
-9.62775
-8.79772
-7.99447
-7.22327
-6.48475
-5.77526
-5.10122
-4.46738
-3.8813
-3.34408
-2.85694
-2.41843
-2.02702
-1.68041
-1.37589
-1.11045
-0.880754
-0.683631
-0.515554
-0.373451
-0.253927
-0.154428
-0.0719911
-0.00438088
0.050609
0.0949503
0.130219
0.157956
0.179335
0.195457
0.207198
0.215351
0.220522
0.223365
0.224117
0.223413
0.221357
0.21825
0.214285
0.209727
0.204464
0.198816
0.192754
0.186342
0.17966
0.172541
0.165325
0.157679
0.149892
0.141687
0.133282
0.124434
0.115316
0.105795
0.0958656
0.0853742
0.0747634
0.0627038
0.0523558
0.036368
0.0315329
-0.000209218
0.028907
-18.3088
-18.3312
-17.9481
-17.2298
-16.3453
-15.3929
-14.4329
-13.4872
-12.557
-11.6394
-10.7327
-9.84065
-8.96935
-8.12611
-7.31822
-6.55179
-5.82573
-5.13936
-4.49413
-3.896
-3.34829
-2.85249
-2.4077
-2.01199
-1.66262
-1.35654
-1.09053
-0.861025
-0.66463
-0.49766
-0.356878
-0.238838
-0.140841
-0.0599222
0.00624024
0.0598687
0.102939
0.137065
0.163766
0.184221
0.19952
0.210541
0.218066
0.222691
0.225056
0.22541
0.224353
0.222005
0.218651
0.214477
0.209738
0.204333
0.19856
0.192401
0.185904
0.179153
0.171989
0.164726
0.157056
0.149243
0.14103
0.132614
0.123774
0.114661
0.105152
0.095245
0.084779
0.0741982
0.0621897
0.0518626
0.0359885
0.0311092
-0.000321225
0.0285839
-18.3292
-18.373
-18.0904
-17.4869
-16.6849
-15.7744
-14.8193
-13.8552
-12.8954
-11.9437
-11.001
-10.0712
-9.16052
-8.27744
-7.43014
-6.62712
-5.8734
-5.16991
-4.51365
-3.90522
-3.34763
-2.8437
-2.39199
-1.99143
-1.63915
-1.33171
-1.06546
-0.836497
-0.641232
-0.475805
-0.336803
-0.220691
-0.124607
-0.0455823
0.0187905
0.0707509
0.112283
0.14503
0.170491
0.189849
0.204179
0.214355
0.221147
0.225141
0.226955
0.226854
0.225396
0.222718
0.219088
0.214682
0.209743
0.204183
0.198275
0.192011
0.185425
0.178604
0.171393
0.164083
0.15639
0.148552
0.140332
0.131908
0.123079
0.113973
0.104481
0.0945989
0.0841617
0.0736134
0.061661
0.0513549
0.0356043
0.0306703
-0.000416826
0.028235
-18.2836
-18.3113
-18.0868
-17.5824
-16.873
-16.0307
-15.1136
-14.1602
-13.1932
-12.224
-11.2578
-10.2997
-9.3569
-8.4385
-7.55397
-6.71296
-5.92377
-5.19273
-4.52009
-3.90251
-3.33662
-2.82526
-2.36775
-1.96316
-1.60812
-1.29941
-1.03331
-0.805568
-0.612146
-0.448902
-0.312273
-0.198658
-0.105034
-0.0284138
0.0337195
0.0836225
0.123281
0.154359
0.178329
0.196375
0.209555
0.218735
0.224668
0.227924
0.229103
0.228478
0.226563
0.22351
0.219568
0.214903
0.209742
0.204013
0.197957
0.191582
0.184901
0.178006
0.170748
0.16339
0.155675
0.147815
0.139591
0.131162
0.122346
0.113252
0.10378
0.0939259
0.0835217
0.0730087
0.0611175
0.0508322
0.0352156
0.0302174
-0.000495453
0.0278594
-18.1757
-18.1544
-17.947
-17.5138
-16.891
-16.1264
-15.2688
-14.3537
-13.4049
-12.4397
-11.4675
-10.4959
-9.53326
-8.58955
-7.67515
-6.8008
-5.97673
-5.21229
-4.51324
-3.88028
-3.30787
-2.79128
-2.32901
-1.92127
-1.56552
-1.25717
-0.992074
-0.766109
-0.575316
-0.415248
-0.281988
-0.171712
-0.0812517
-0.0076573
0.0516672
0.0989978
0.136335
0.165365
0.187529
0.203998
0.215807
0.223804
0.22872
0.231112
0.231551
0.230316
0.227877
0.224396
0.2201
0.215144
0.209736
0.203819
0.197603
0.191105
0.184325
0.177352
0.170045
0.16264
0.154904
0.147025
0.1388
0.130368
0.121571
0.112491
0.103043
0.0932213
0.0828547
0.0723801
0.0605559
0.050292
0.0348203
0.0297467
-0.000557848
0.0274555
-18.0028
-17.9126
-17.6864
-17.2899
-16.7348
-16.0455
-15.2543
-14.3926
-13.4836
-12.5447
-11.5868
-10.6201
-9.65427
-8.70034
-7.76903
-6.87173
-6.02023
-5.2259
-4.49729
-3.83985
-3.2532
-2.7321
-2.26993
-1.86151
-1.50516
-1.1986
-0.937381
-0.715676
-0.528976
-0.372958
-0.244018
-0.138205
-0.0520492
0.0175482
0.0733056
0.117457
0.15195
0.178464
0.198409
0.212954
0.223108
0.229693
0.233405
0.23478
0.234354
0.232407
0.229365
0.225392
0.220692
0.215406
0.209723
0.203595
0.197206
0.190573
0.183688
0.176633
0.169277
0.161826
0.154072
0.146174
0.137952
0.129522
0.120747
0.111688
0.102268
0.0924838
0.0821599
0.0717274
0.0599763
0.0497341
0.0344186
0.0292602
-0.000603973
0.0270234
-17.7612
-17.5927
-17.3231
-16.9317
-16.4159
-15.7863
-15.0598
-14.2562
-13.396
-12.497
-11.5719
-10.6291
-9.67864
-8.73265
-7.80172
-6.89711
-6.03159
-5.21804
-4.46681
-3.78534
-3.17753
-2.64336
-2.17856
-1.77488
-1.42396
-1.12102
-0.863374
-0.647479
-0.468249
-0.319545
-0.197005
-0.0967747
-0.0158171
0.0487441
0.0998198
0.139781
0.170642
0.19406
0.211336
0.22357
0.231727
0.236599
0.23886
0.239023
0.23758
0.234802
0.23106
0.226518
0.221354
0.215693
0.209701
0.203339
0.196758
0.189979
0.182982
0.17584
0.168434
0.160936
0.153167
0.145254
0.13704
0.128617
0.11987
0.110835
0.10145
0.0917077
0.0814322
0.0710462
0.0593749
0.0491557
0.0340082
0.0287541
-0.00063519
0.0265625
-17.4694
-17.2183
-16.8847
-16.4681
-15.9627
-15.3683
-14.6912
-13.9411
-13.1314
-12.2783
-11.3939
-10.4865
-9.56737
-8.6471
-7.73502
-6.84186
-5.98022
-5.16385
-4.40399
-3.709
-3.08474
-2.5345
-2.05859
-1.65282
-1.30897
-1.01748
-0.770039
-0.561633
-0.388926
-0.248419
-0.135469
-0.0445966
0.0284729
0.0865469
0.132178
0.167221
0.193559
0.212948
0.22675
0.236085
0.24184
0.244698
0.245251
0.243972
0.241315
0.237548
0.23299
0.227792
0.222095
0.216007
0.209665
0.203039
0.196247
0.189307
0.182191
0.174958
0.167502
0.159959
0.152178
0.144255
0.136055
0.127645
0.11893
0.109928
0.100584
0.0908901
0.0806698
0.0703352
0.0587513
0.0485566
0.0335889
0.0282309
-0.000652603
0.0260742
-17.1589
-16.8373
-16.4325
-15.9631
-15.4314
-14.8388
-14.1853
-13.47
-12.6998
-11.8887
-11.0477
-10.1825
-9.30129
-8.41609
-7.53738
-6.67316
-5.83419
-5.03436
-4.28442
-3.59248
-2.9652
-2.40769
-1.92267
-1.50946
-1.16391
-0.878772
-0.644935
-0.45281
-0.294135
-0.16379
-0.0588474
0.0233623
0.0865253
0.134537
0.171452
0.199639
0.220656
0.235661
0.245535
0.251318
0.253968
0.254228
0.252675
0.249698
0.245643
0.240728
0.235214
0.229241
0.222924
0.216347
0.209612
0.202689
0.195663
0.188545
0.181302
0.173974
0.166466
0.158882
0.151092
0.143165
0.134983
0.126595
0.11792
0.108958
0.0996619
0.0900238
0.0798665
0.0695892
0.0581006
0.047933
0.0331573
0.0276863
-0.000659003
0.0255589
-16.7647
-16.3993
-15.9576
-15.4574
-14.9019
-14.2888
-13.6204
-12.9037
-12.1477
-11.3621
-10.5532
-9.72397
-8.88209
-8.0394
-7.20277
-6.37739
-5.57416
-4.80724
-4.08528
-3.41484
-2.80193
-2.25246
-1.77054
-1.35689
-1.00937
-0.723851
-0.494561
-0.313527
-0.171623
-0.0599244
0.0288162
0.099219
0.153937
0.194671
0.223175
0.242114
0.254418
0.262379
0.266998
0.268864
0.268312
0.265711
0.2616
0.256443
0.250625
0.244336
0.237732
0.230883
0.223855
0.216711
0.209525
0.202267
0.194982
0.187672
0.180292
0.172866
0.165306
0.157684
0.149891
0.141967
0.133813
0.125455
0.116829
0.107917
0.098678
0.089104
0.0790187
0.0688057
0.0574214
0.0472841
0.0327122
0.0271231
-0.000657368
0.0250191
-16.4533
-16.0663
-15.577
-15.0116
-14.3958
-13.7351
-13.0348
-12.3015
-11.5418
-10.7613
-9.96494
-9.15799
-8.34642
-7.53745
-6.73983
-5.95945
-5.2026
-4.47939