/*--------------------------------*- C++ -*----------------------------------*\
| =========                 |                                                 |
| \\      /  F ield         | OpenFOAM: The Open Source CFD Toolbox           |
|  \\    /   O peration     | Version:  2312                                  |
|   \\  /    A nd           | Website:  www.openfoam.com                      |
|    \\/     M anipulation  |                                                 |
\*---------------------------------------------------------------------------*/
FoamFile
{
    version     2.0;
    format      ascii;
    arch        "LSB;label=32;scalar=64";
    class       surfaceScalarField;
    location    "750";
    object      phi;
}
// * * * * * * * * * * * * * * * * * * * * * * * * * * * * * * * * * * * * * //

dimensions      [0 3 -1 0 0 0 0];

oriented        oriented;

internalField   nonuniform List<scalar> 
21876
(
0.00821341
0.00093826
-0.00915168
0.00233744
0.00587597
-0.000888891
0.0032263
-0.0015891
0.000700169
-0.00145564
-0.000133481
-0.00140977
-4.58859e-05
-0.00135605
-5.3748e-05
-0.0012997
-5.6406e-05
-0.00125312
-4.66148e-05
-0.00122595
-2.72309e-05
-0.00119744
-2.85551e-05
-0.0011719
-2.55927e-05
-0.00115554
-1.6484e-05
-0.00113999
-1.56173e-05
-0.0011325
-7.57071e-06
-0.00113032
-2.19274e-06
-0.00113555
5.10786e-06
-0.00115014
1.45832e-05
-0.00117386
2.35954e-05
-0.00120874
3.48846e-05
-0.00125419
4.53273e-05
-0.00130771
5.33618e-05
-0.00137385
6.59705e-05
-0.0014534
7.93969e-05
-0.00154348
9.00979e-05
-0.00164001
9.64856e-05
-0.00173629
9.63216e-05
-0.00182476
8.84599e-05
-0.00189655
7.1791e-05
-0.00194058
4.40158e-05
-0.00194447
3.8577e-06
-0.00190321
-4.13013e-05
-0.00181449
-8.87531e-05
-0.00166995
-0.000144618
-0.00146117
-0.000208764
-0.0011841
-0.000277185
-0.000835102
-0.000348995
-0.000356741
-0.000478401
0.000228616
-0.000585299
0.000588247
-0.000360104
-0.00220729
0.0027952
0.0115682
-0.000627648
-0.0100023
0.0102859
0.0071583
0.00498396
0.00852821
0.000211256
0.00547285
-0.00159425
0.00167199
-0.0016459
5.71122e-06
-0.00166272
-3.70017e-05
-0.00164714
-7.20586e-05
-0.00162311
-7.07199e-05
-0.00161414
-3.62762e-05
-0.00160228
-4.05059e-05
-0.00158934
-3.86423e-05
-0.00158491
-2.10584e-05
-0.00158154
-1.91101e-05
-0.00158644
-2.81508e-06
-0.0015988
1.00559e-05
-0.00162045
2.65829e-05
-0.00165271
4.67532e-05
-0.00169576
6.64633e-05
-0.00175203
9.113e-05
-0.00182257
0.000115741
-0.00190376
0.000134393
-0.00199764
0.000159683
-0.00210038
0.000182002
-0.0022051
0.000194814
-0.00230528
0.000196658
-0.00239418
0.00018527
-0.0024648
0.000159096
-0.00250987
0.000116874
-0.00252364
5.77609e-05
-0.00250208
-1.77625e-05
-0.00243583
-0.000107646
-0.00231295
-0.000211752
-0.00212346
-0.000334264
-0.00185817
-0.000474194
-0.00150973
-0.000625804
-0.00107263
-0.000786194
-0.000522546
-0.00102861
0.000203688
-0.00131163
0.00097221
-0.00112895
-0.00368258
0.00244728
0.0132904
-0.00289578
-0.0110222
0.0150071
0.00544158
0.013008
0.0105273
0.00751494
0.0109659
0.00173725
0.00744967
-0.00116614
0.00290908
-0.00171486
0.000511701
-0.00185148
6.45303e-05
-0.00188489
-3.73179e-05
-0.00191846
-2.72682e-06
-0.00193954
-1.94384e-05
-0.00194747
-3.07301e-05
-0.00196082
-7.75138e-06
-0.0019723
-7.6561e-06
-0.00199064
1.55161e-05
-0.00201605
3.54767e-05
-0.0020505
6.1016e-05
-0.00209641
9.26816e-05
-0.00215399
0.000124021
-0.00222556
0.000162714
-0.00231178
0.000201922
-0.00240714
0.000229705
-0.00251299
0.000265483
-0.00262541
0.000294377
-0.00273829
0.000307711
-0.00284601
0.00030436
-0.00294235
0.00028162
-0.00302043
0.000237171
-0.0030726
0.000169039
-0.00309073
7.58878e-05
-0.00306542
-4.30787e-05
-0.00298525
-0.000187821
-0.00283889
-0.000358118
-0.0026145
-0.000558646
-0.0023016
-0.000787068
-0.00189019
-0.00103723
-0.0013732
-0.00130318
-0.000731603
-0.00167019
0.000103759
-0.00214694
0.00106031
-0.00208559
-0.00473743
0.00211516
0.0150842
-0.00551983
-0.0124601
0.0174977
0.00302805
0.0186998
0.00932513
0.0164957
0.0131701
0.0107171
0.0132282
0.00394946
0.0096767
-0.000260407
0.00472154
-0.00161454
0.00141862
-0.00194254
0.000290638
-0.00209508
0.000149749
-0.00219762
8.30402e-05
-0.00225461
2.61816e-05
-0.00230406
4.16074e-05
-0.00234133
2.95206e-05
-0.00237952
5.36044e-05
-0.00242196
7.78177e-05
-0.00247156
0.000110505
-0.00253258
0.000153597
-0.00260526
0.00019659
-0.00269235
0.000249754
-0.00279445
0.000303922
-0.00290505
0.000340192
-0.0030259
0.000386233
-0.00315395
0.000422347
-0.00328388
0.00043763
-0.00341007
0.000430548
-0.00352562
0.000397187
-0.00362234
0.000333895
-0.00369062
0.000237322
-0.00371973
0.000104964
-0.0036976
-6.52562e-05
-0.00361133
-0.000274162
-0.00344817
-0.000521366
-0.00319405
-0.000812874
-0.00283666
-0.00114455
-0.00236365
-0.00151035
-0.00176618
-0.00190072
-0.00102562
-0.00241081
-0.000100314
-0.00307229
0.00099713
-0.0031831
-0.00560388
0.00186359
0.0170182
-0.00836263
-0.0141754
0.0195036
0.000542656
0.0219161
0.00691262
0.023107
0.0119792
0.0209952
0.0153401
0.0150545
0.0156174
0.00736465
0.0124113
0.00147548
0.00730777
-0.00116257
0.00292866
-0.00188919
0.000876347
-0.00224092
0.000434745
-0.0024277
0.000212935
-0.00256461
0.000178481
-0.00266023
0.000125114
-0.00273861
0.000131957
-0.00281133
0.000150524
-0.0028843
0.000183456
-0.00296608
0.000235357
-0.00305784
0.000288351
-0.00316413
0.000356035
-0.00328628
0.000426055
-0.00341742
0.000471297
-0.00356002
0.000528818
-0.00371182
0.000574127
-0.00386787
0.000593682
-0.00402204
0.000584719
-0.00416634
0.000541491
-0.00429094
0.000458496
-0.00438417
0.000330551
-0.00443296
0.000153738
-0.00442298
-7.52417e-05
-0.00433932
-0.000357844
-0.00416701
-0.000693694
-0.00388952
-0.00109037
-0.00349251
-0.00154157
-0.0029618
-0.00204107
-0.00228724
-0.00257531
-0.00144966
-0.00324837
-0.000449912
-0.00407203
0.000762338
-0.00439535
-0.00643114
0.00158963
0.0193203
-0.0115113
-0.0161716
0.0220946
-0.00223167
0.0245977
0.00440955
0.0270548
0.00952209
0.0284036
0.0139912
0.0266561
0.0173649
0.0208463
0.0182212
0.0124264
0.0157276
0.00460801
0.0107471
9.64896e-05
0.00538784
-0.00155176
0.00208297
-0.00220623
0.000867368
-0.00258446
0.000556638
-0.00282771
0.000368288
-0.00300054
0.000304712
-0.00313858
0.000288483
-0.00325738
0.000302162
-0.00337491
0.000352804
-0.00349576
0.000409108
-0.00362885
0.000489052
-0.00377781
0.000574924
-0.00393633
0.000629729
-0.00410825
0.000700649
-0.00429217
0.000758002
-0.00448354
0.000785026
-0.00467558
0.000776752
-0.00485916
0.000725068
-0.00502278
0.000622108
-0.0051527
0.00046045
-0.00523349
0.000234505
-0.00524847
-6.0305e-05
-0.0051802
-0.00042617
-0.00501119
-0.000862768
-0.00472234
-0.00137927
-0.00429724
-0.00196672
-0.00372068
-0.00261767
-0.00298202
-0.003314
-0.00206347
-0.00416691
-0.00100555
-0.00512993
0.000291025
-0.00569188
-0.00730511
0.00116507
0.0220817
-0.0150501
-0.0185429
0.0253139
-0.00546394
0.0280383
0.00168521
0.0305257
0.00703464
0.033
0.011517
0.0346314
0.0157335
0.0335281
0.0193244
0.0282857
0.0209701
0.0195277
0.019505
0.00993554
0.01498
0.00289691
0.00912156
-0.00056751
0.00433175
-0.00186959
0.00185867
-0.00256087
0.00105951
-0.00298441
0.000728205
-0.0032849
0.00058893
-0.00350823
0.000525448
-0.00369895
0.000543476
-0.00387299
0.000583125
-0.00404899
0.000665022
-0.00423571
0.000761608
-0.00443007
0.000824056
-0.00463936
0.000909917
-0.00486408
0.000982709
-0.00510058
0.00102153
-0.00534169
0.00101785
-0.00557723
0.000960614
-0.00579413
0.000838997
-0.00597658
0.000642886
-0.00610674
0.000364636
-0.00616534
-1.72637e-06
-0.00613218
-0.000459359
-0.0059871
-0.00100788
-0.00570858
-0.00165782
-0.00527831
-0.00239699
-0.00468084
-0.00321517
-0.0039061
-0.00408875
-0.00294064
-0.00513236
-0.00185014
-0.00622039
-0.000522156
-0.00701981
-0.00825873
0.000431562
0.0254271
-0.0191173
-0.0213599
0.0291264
-0.00916324
0.0323177
-0.00150606
0.0350078
0.00434451
0.03743
0.0090948
0.0398839
0.0132797
0.041837
0.0173713
0.0415996
0.0212074
0.037406
0.0236986
0.0289724
0.0234137
0.0182083
0.0198856
0.0083098
0.0142303
0.00197755
0.0081909
-0.000907773
0.00394481
-0.00216254
0.00198293
-0.00292664
0.00135298
-0.00342315
0.0010219
-0.00379424
0.000914506
-0.00408652
0.000875345
-0.0043455
0.000923928
-0.00459363
0.00100967
-0.00483735
0.00106771
-0.00509339
0.0011659
-0.00536744
0.00125672
-0.00565882
0.00131289
-0.00596104
0.00132006
-0.00626339
0.00126295
-0.00655134
0.00112692
-0.00680711
0.00089864
-0.00701044
0.00056794
-0.00713942
0.000127222
-0.00717109
-0.000427731
-0.00708262
-0.00109638
-0.00685053
-0.00188994
-0.00645506
-0.00279249
-0.00588111
-0.00378913
-0.00512033
-0.00484953
-0.00416602
-0.00608664
-0.00309041
-0.00729596
-0.0018092
-0.00830096
-0.00927495
-0.000792916
0.0294669
-0.023882
-0.0247022
0.0337328
-0.0134291
0.0374434
-0.00521673
0.0406064
0.00118154
0.0432337
0.00646748
0.0455443
0.0109691
0.0479051
0.0150105
0.0501138
0.0189987
0.0508247
0.0229877
0.0481065
0.0261319
0.0408512
0.0271409
0.0297796
0.0253018
0.0175202
0.0204503
0.00752349
0.0139415
0.00163443
0.00787194
-0.00104805
0.00403541
-0.00239365
0.00236743
-0.00327094
0.00179175
-0.00387218
0.00147653
-0.00433487
0.00138658
-0.00471477
0.00138951
-0.00504467
0.00139756
-0.00536725
0.00148845
-0.00570221
0.00159165
-0.0060577
0.00166835
-0.00643173
0.00169408
-0.00681546
0.00164666
-0.00719418
0.00150562
-0.00754859
0.00125301
-0.0078561
0.000875423
-0.00809216
0.000363248
-0.00823132
-0.000288602
-0.00824831
-0.00107942
-0.00811845
-0.00201982
-0.00782099
-0.00308996
-0.0073417
-0.00426841
-0.00667483
-0.00551639
-0.00582085
-0.00694057
-0.00484357
-0.00827318
-0.00370389
-0.00944056
-0.0102818
-0.00269697
0.0343258
-0.0295365
-0.0286713
0.0393194
-0.0184227
0.0436273
-0.0095246
0.0473189
-0.00251002
0.0504254
0.0033609
0.0529731
0.00842141
0.0551468
0.0128368
0.0573384
0.0168071
0.0596497
0.0206764
0.0611971
0.0245845
0.0601779
0.02816
0.0548356
0.0306442
0.0447048
0.0305811
0.0313384
0.0273079
0.0178756
0.0213347
0.00764858
0.0142624
0.0018143
0.00820171
-0.000959041
0.00456508
-0.00249077
0.00300824
-0.0035287
0.00242447
-0.00426024
0.00212101
-0.00480054
0.00193781
-0.00525838
0.00194626
-0.00569099
0.00202424
-0.00613129
0.00210864
-0.00659124
0.00215399
-0.00707028
0.0021257
-0.00755808
0.00199339
-0.00803679
0.00173172
-0.0084834
0.001322
-0.00887183
0.000751663
-0.00917462
1.41568e-05
-0.00936427
-0.000889773
-0.00941573
-0.00196838
-0.0093076
-0.00319808
-0.00902661
-0.00454941
-0.00856948
-0.00597347
-0.00794192
-0.00756811
-0.00719029
-0.00902474
-0.0063076
-0.0103232
-0.0111574
-0.00543188
0.0401531
-0.0363084
-0.0333812
0.046067
-0.0243366
0.0511226
-0.0145802
0.0554255
-0.00681287
0.0590564
-0.000270053
0.0620839
0.00539386
0.0645444
0.0103763
0.0665775
0.0147741
0.0685451
0.0187088
0.0707568
0.0223728
0.0728472
0.0260696
0.0734312
0.0300601
0.0705082
0.0335041
0.0626098
0.0352063
0.049891
0.0340535
0.0344548
0.0296987
0.0197284
0.0229281
0.00886345
0.0154301
0.0026242
0.00924748
-0.000500447
0.00554908
-0.00230038
0.0039209
-0.00345415
0.00309154
-0.00427788
0.00276995
-0.00494423
0.00269055
-0.00554977
0.00271413
-0.00614253
0.00274674
-0.00674753
0.00273067
-0.0073704
0.00261627
-0.00800224
0.00236354
-0.00862466
0.00194442
-0.00921412
0.0013411
-0.00974414
0.000544187
-0.0101873
-0.000446592
-0.0105198
-0.00163591
-0.0107193
-0.00299858
-0.0107727
-0.00449603
-0.0106769
-0.00606932
-0.0104398
-0.00780516
-0.0100852
-0.00937931
-0.00961116
-0.0107972
-0.0117264
-0.00904214
0.0471327
-0.0444709
-0.0389702
0.0542014
-0.0314053
0.060198
-0.0205769
0.0652565
-0.0118714
0.069497
-0.00451058
0.0730344
0.00185646
0.0759619
0.0074488
0.0783303
0.0124056
0.0802372
0.0168019
0.0819627
0.0206473
0.083908
0.0241243
0.0861706
0.0277974
0.0879462
0.0317286
0.0874719
0.0356806
0.0827305
0.038795
0.0725561
0.0398731
0.0575228
0.0379614
0.0400459
0.032907
0.0236998
0.0255935
0.011572
0.0176769
0.00437772
0.0111152
0.00086128
0.00660797
-0.00111463
0.00474583
-0.00247613
0.00405204
-0.00352849
0.00376644
-0.00442587
0.0036441
-0.00526582
0.0035706
-0.00609843
0.00344888
-0.0069416
0.0032067
-0.00779441
0.00279723
-0.00864505
0.00219173
-0.00947474
0.00137387
-0.010261
0.00033967
-0.0109855
-0.000911378
-0.0116268
-0.00235731
-0.0121712
-0.00395166
-0.0126123
-0.00562823
-0.0129582
-0.0074593
-0.013205
-0.00913249
-0.0133365
-0.0106657
-0.0117569
-0.013306
0.0554863
-0.0543529
-0.0456042
0.0639921
-0.0399112
0.0711672
-0.0277521
0.0771722
-0.0178764
0.082165
-0.00950343
0.0862973
-0.00227582
0.0897102
0.00403584
0.0925178
0.009598
0.0947895
0.0145302
0.0965893
0.0188474
0.0981054
0.0226082
0.0997302
0.0261726
0.101815
0.0296442
0.104167
0.0333281
0.105636
0.0373259
0.104262
0.0412472
0.0980591
0.0441643
0.0860401
0.044926
0.0689522
0.0426815
0.0492991
0.0373299
0.0306782
0.0297361
0.0172911
0.0199951
0.00911298
0.012924
0.00459812
0.00856682
0.00198209
0.00638246
0.000183472
0.00544262
-0.00126523
0.00501932
-0.00255474
0.00473832
-0.00378092
0.00443291
-0.00499415
0.00401041
-0.00621769
0.0034153
-0.00745641
0.00261255
-0.00870131
0.00158458
-0.00994618
0.000333465
-0.0111742
-0.00112925
-0.0123724
-0.00275356
-0.0135289
-0.00447171
-0.0146544
-0.00633375
-0.0157151
-0.00807182
-0.0166774
-0.00970336
-0.0109788
-0.0174556
0.0654834
-0.0663519
-0.0534844
0.0757667
-0.0501945
0.0844076
-0.0363929
0.0915961
-0.0250649
0.0975276
-0.015435
0.102396
-0.00714472
0.10638
5.1785e-05
0.109641
0.00633751
0.11231
0.0118612
0.114472
0.016685
0.116185
0.0208959
0.117573
0.024784
0.118916
0.0283017
0.120628
0.0316155
0.122957
0.0349971
0.125489
0.0387154
0.126862
0.0427908
0.12502
0.0467683
0.117968
0.0497333
0.104707
0.0505915
0.0859131
0.0485297
0.0655358
0.0403724
0.0464747
0.0319851
0.0310965
0.023945
0.0202515
0.0172273
0.0133232
0.0123709
0.00901523
0.00932723
0.00613949
0.00761408
0.00393121
0.0066411
0.00198871
0.00595293
0.000121574
0.00528234
-0.00175028
0.00448443
-0.00365475
0.00348897
-0.00560967
0.00228844
-0.00761028
0.000871279
-0.00965058
-0.000713187
-0.0117152
-0.00240719
-0.0138201
-0.00422877
-0.0159
-0.00599189
-0.0179146
-0.00768869
-0.00912865
-0.0197646
0.0774509
-0.0809483
-0.0628545
0.0899226
-0.0626662
0.100376
-0.046846
0.109035
-0.0337243
0.116139
-0.0225385
0.121925
-0.0129313
0.126619
-0.00464188
0.130419
0.00253703
0.133503
0.00877744
0.136012
0.0141757
0.138053
0.0188556
0.139706
0.0231309
0.14104
0.0269678
0.142216
0.0304389
0.143568
0.0336452
0.145509
0.0367742
0.148202
0.0400986
0.151116
0.0438537
0.152818
0.0480314
0.151211
0.0521983
0.144253
0.0554878
0.131871
0.0527547
0.115162
0.0486939
0.096006
0.043101
0.0765769
0.0366564
0.0588877
0.03006
0.0443053
0.0239096
0.033251
0.0186683
0.0253085
0.0145836
0.0196409
0.0116204
0.015399
0.0095242
0.0119317
0.00795171
0.00881958
0.00660106
0.00580027
0.00530768
0.00275538
0.00391619
-0.000369782
0.00241193
-0.00358208
0.000805138
-0.00692378
-0.000887082
-0.0102875
-0.00262816
-0.0136247
-0.00435144
-0.00593225
-0.0168211
0.0917845
-0.0987247
-0.0740082
0.106942
-0.0778235
0.119626
-0.0595297
0.130104
-0.0442025
0.138664
-0.0310983
0.145595
-0.019863
0.151173
-0.0102197
0.155645
-0.00193517
0.15923
0.00519217
0.162113
0.0112933
0.164447
0.0165218
0.16637
0.021207
0.167971
0.0253669
0.169305
0.0291048
0.170453
0.0324976
0.17161
0.0356175
0.173133
0.0385754
0.175429
0.0415581
0.178637
0.0448229
0.182243
0.0485926
0.184854
0.0528762
0.184494
0.0531149
0.180148
0.0530402
0.171433
0.0518155
0.158722
0.0493676
0.142955
0.0458271
0.125391
0.0414734
0.107411
0.0366487
0.0903037
0.0316904
0.075037
0.0268871
0.0620895
0.0224716
0.0514505
0.0185906
0.0427706
0.0152809
0.035523
0.0125552
0.0292726
0.0101666
0.0236505
0.00803401
0.0184012
0.00605442
0.0132564
0.00425768
0.00822074
0.00240752
0.00322582
0.000643513
-0.00104029
-0.00166615
0.108959
-0.120386
-0.0872973
0.127404
-0.096269
0.142826
-0.0749515
0.155545
-0.056921
0.165907
-0.0414605
0.174263
-0.0282191
0.180946
-0.0169024
0.186258
-0.00724798
0.19047
0.000980678
0.19381
0.0079535
0.196472
0.0138591
0.198637
0.0190424
0.200443
0.0235612
0.201994
0.0275534
0.203358
0.0311337
0.204582
0.0343938
0.205751
0.0374057
0.207073
0.0402367
0.208904
0.0429913
0.211663
0.045834
0.215528
0.0490106
0.219637
0.0490065
0.223195
0.0494821
0.225183
0.0498272
0.224698
0.0498527
0.221153
0.0493719
0.214363
0.0482632
0.204526
0.0464859
0.192129
0.0440872
0.177844
0.0411719
0.162435
0.037881
0.146666
0.0343589
0.131211
0.0307366
0.11648
0.0272856
0.102822
0.0238246
0.0903545
0.0205017
0.079047
0.0173619
0.0685629
0.0147418
0.0589301
0.0120403
0.0499172
0.0096564
0.00739025
0.0414866
0.117437
-0.144294
-0.0935299
0.137778
-0.11661
0.154777
-0.0919506
0.168784
-0.0709276
0.180178
-0.0528547
0.189343
-0.0373843
0.196643
-0.0242028
0.202412
-0.0130166
0.206945
-0.00355221
0.210496
0.00440184
0.213285
0.0110704
0.215508
0.0168195
0.217324
0.0217454
0.218865
0.0260125
0.220237
0.0297614
0.221516
0.0331145
0.222747
0.0361746
0.223965
0.0390194
0.225242
0.041714
0.226762
0.0443136
0.228852
0.046921
0.23149
0.0463685
0.234839
0.0461327
0.238761
0.0459049
0.24287
0.0457436
0.246619
0.0456235
0.249415
0.0454674
0.250729
0.0451721
0.25017
0.0446461
0.247524
0.0438174
0.242756
0.0426487
0.235982
0.0411332
0.227429
0.0392892
0.217336
0.0373788
0.206064
0.0350971
0.193976
0.0325889
0.181432
0.0299065
0.168471
0.0277023
0.155552
0.0249593
0.14275
0.0224584
0.0198074
0.130333
0.124289
-0.170116
-0.0984668
0.146247
-0.138568
0.164594
-0.110297
0.179702
-0.0860363
0.191982
-0.0651341
0.201843
-0.0472458
0.209678
-0.0320373
0.215843
-0.0191818
0.220658
-0.00836715
0.224398
0.000662025
0.227299
0.00816929
0.229573
0.0145456
0.231392
0.0199268
0.232899
0.0245055
0.234214
0.028446
0.235437
0.0318913
0.236646
0.0349658
0.237892
0.0377729
0.239204
0.0404028
0.240598
0.0429196
0.242131
0.0453876
0.243647
0.0448522
0.245382
0.0443981
0.247529
0.0437581
0.250228
0.0430447
0.253514
0.0423374
0.257295
0.0416859
0.261364
0.0411038
0.265429
0.0405806
0.269165
0.0400812
0.272251
0.0395626
0.274407
0.0389773
0.275419
0.0382774
0.275136
0.0376615
0.273481
0.0367522
0.270451
0.0356184
0.266114
0.0342439
0.260438
0.0333782
0.253637
0.0317607
0.245785
0.0303106
0.0284923
0.2371
0.131862
-0.198
-0.103978
0.155563
-0.162269
0.175365
-0.130098
0.191666
-0.102338
0.204908
-0.0783761
0.215532
-0.0578697
0.223958
-0.0404627
0.230569
-0.0257927
0.235708
-0.0135062
0.239672
-0.00330225
0.242717
0.00512471
0.245069
0.0121938
0.246914
0.0180816
0.248408
0.0230112
0.249681
0.0271735
0.250839
0.0307331
0.251972
0.0338325
0.253154
0.0365909
0.254441
0.0391161
0.255867
0.0414936
0.257446
0.0438084
0.258895
0.0434031
0.260292
0.0430008
0.261699
0.0423519
0.263209
0.0415346
0.264937
0.0406088
0.266995
0.0396287
0.269461
0.0386375
0.272368
0.0376732
0.275691
0.0367583
0.279349
0.0359052
0.283214
0.0351122
0.287129
0.0343622
0.290938
0.0338523
0.294458
0.0332328
0.297523
0.0325524
0.300001
0.0317668
0.301788
0.0315905
0.302782
0.0307667
0.302926
0.0301666
0.0292407
0.302178
0.140165
-0.228105
-0.11006
0.165746
-0.18785
0.187117
-0.151469
0.204709
-0.11993
0.218994
-0.0926613
0.230447
-0.0693232
0.23952
-0.0495351
0.246624
-0.0328965
0.252127
-0.0190092
0.256349
-0.00752419
0.259564
0.00190887
0.262017
0.00974132
0.263907
0.0161919
0.265402
0.0215161
0.266642
0.025933
0.267744
0.0296315
0.268802
0.0327743
0.269896
0.0354969
0.271092
0.0379203
0.272443
0.0401422
0.27399
0.0422613
0.27546
0.0419337
0.276903
0.0415574
0.278317
0.0409382
0.279704
0.0401478
0.281081
0.0392316
0.282482
0.038227
0.283957
0.0371625
0.285562
0.0360683
0.287353
0.0349672
0.289378
0.033881
0.291665
0.0328247
0.294224
0.0318031
0.297054
0.0310228
0.300112
0.0301743
0.303342
0.0293222
0.306672
0.0284375
0.310069
0.0281931
0.313412
0.0274239
0.316641
0.0269377
0.0262272
0.319655
0.149221
-0.260603
-0.116723
0.176832
-0.215461
0.199898
-0.174536
0.218884
-0.138916
0.234298
-0.108076
0.246652
-0.081677
0.25643
-0.0593125
0.264074
-0.0405405
0.269979
-0.024915
0.274491
-0.0120356
0.277904
-0.00150417
0.280478
0.00716721
0.282429
0.014241
0.283937
0.0200076
0.285154
0.0247162
0.286204
0.0285815
0.28719
0.0317881
0.288197
0.0344902
0.289294
0.0368235
0.290538
0.0388979
0.291978
0.0408217
0.293357
0.0405544
0.294741
0.040173
0.296136
0.0395433
0.29754
0.0387443
0.298946
0.0378255
0.300348
0.0368248
0.301743
0.0357681
0.303131
0.0346797
0.304522
0.0335761
0.305931
0.0324726
0.307376
0.0313795
0.308879
0.0302995
0.31047
0.0294323
0.312164
0.0284805
0.313974
0.0275114
0.315908
0.0265038
0.317994
0.0261069
0.320207
0.0252111
0.32255
0.0245952
0.0237828
0.324994
0.15907
-0.295686
-0.123987
0.188872
-0.245263
0.21377
-0.199433
0.234263
-0.159409
0.250899
-0.124712
0.264229
-0.0950069
0.274773
-0.0698563
0.283007
-0.0487744
0.289356
-0.0312634
0.294188
-0.0168682
0.297823
-0.00513942
0.300539
0.00445164
0.302566
0.0122136
0.3041
0.0184742
0.305301
0.023515
0.306304
0.0275783
0.30722
0.0308722
0.30814
0.0335707
0.309137
0.0358263
0.310272
0.0377626
0.311595
0.0394988
0.312856
0.0392938
0.314123
0.038906
0.315409
0.0382575
0.31672
0.0374327
0.31806
0.0364856
0.319426
0.0354585
0.320814
0.034381
0.322213
0.0332797
0.323618
0.032172
0.325018
0.0310726
0.326407
0.02999
0.327782
0.0289248
0.329145
0.0280687
0.330496
0.0271299
0.331837
0.0261707
0.333172
0.0251685
0.334523
0.0247557
0.335887
0.0238476
0.337278
0.023204
0.0223609
0.3387
0.169755
-0.333561
-0.131881
0.201926
-0.277434
0.228804
-0.226312
0.250928
-0.181533
0.268889
-0.142673
0.283277
-0.109395
0.294654
-0.081233
0.303531
-0.057651
0.310363
-0.0380963
0.31555
-0.022055
0.319433
-0.00902233
0.32231
0.00157505
0.324428
0.0100949
0.325998
0.016905
0.327191
0.0223216
0.328152
0.0266169
0.329
0.0300242
0.329832
0.0327387
0.330728
0.0349308
0.331752
0.036739
0.332956
0.0382948
0.334095
0.0381548
0.335238
0.0377629
0.336398
0.0370971
0.337585
0.0362462
0.338803
0.0352673
0.340056
0.0342058
0.341343
0.0330939
0.342662
0.0319607
0.344009
0.0308254
0.345377
0.0297044
0.346759
0.0286075
0.348149
0.0275356
0.349542
0.0266755
0.350928
0.0257434
0.3523
0.0247986
0.353651
0.0238173
0.354991
0.0234168
0.356303
0.0225354
0.357592
0.0219145
0.0210976
0.358855
0.181331
-0.374453
-0.140438
0.216064
-0.312167
0.245086
-0.255333
0.268976
-0.205423
0.288371
-0.162068
0.303908
-0.124933
0.31619
-0.0935147
0.325767
-0.0672278
0.333129
-0.0454589
0.338705
-0.0276308
0.342862
-0.0131796
0.34592
-0.00148259
0.348145
0.00787025
0.34976
0.0152896
0.350953
0.0211293
0.351876
0.0256933
0.352658
0.0292423
0.353402
0.0319943
0.354195
0.0341387
0.355103
0.0358302
0.356185
0.0372132
0.357199
0.0371412
0.358215
0.0367466
0.359249
0.0360634
0.360309
0.0351855
0.361403
0.0341734
0.362534
0.0330753
0.363702
0.0319255
0.364908
0.0307549
0.366149
0.0295841
0.367423
0.0284305
0.368726
0.0273046
0.370054
0.0262083
0.371405
0.0253237
0.372774
0.0243754
0.374151
0.0234209
0.375532
0.0224366
0.376924
0.0220246
0.37831
0.0211491
0.379692
0.0205327
0.0197281
0.381062
0.193859
-0.418612
-0.1497
0.231367
-0.349675
0.262709
-0.286676
0.288513
-0.231226
0.309465
-0.18302
0.326249
-0.141717
0.339514
-0.10678
0.349854
-0.0775675
0.357795
-0.0534001
0.363798
-0.0336335
0.368258
-0.0176398
0.371518
-0.00474242
0.373864
0.00552436
0.375536
0.0136176
0.376734
0.0199313
0.377623
0.0248039
0.378341
0.0285251
0.378997
0.0313378
0.379684
0.0334517
0.380476
0.0350388
0.381431
0.0362577
0.382315
0.0362575
0.3832
0.0358615
0.384103
0.0351604
0.385036
0.034253
0.386005
0.033204
0.387016
0.0320647
0.388069
0.0308719
0.389166
0.0296581
0.390305
0.0284454
0.391483
0.0272521
0.392698
0.0260894
0.393947
0.0249597
0.39523
0.0240403
0.396542
0.0230641
0.397876
0.0220866
0.399228
0.0210847
0.400608
0.0206451
0.401999
0.0197581
0.403404
0.0191278
0.018317
0.404815
0.207407
-0.466308
-0.159711
0.24792
-0.390188
0.28178
-0.320535
0.309659
-0.259106
0.3323
-0.20566
0.350439
-0.159856
0.364776
-0.121117
0.375947
-0.0887388
0.384521
-0.0619737
0.390992
-0.0401044
0.395786
-0.022434
0.399271
-0.00822731
0.401754
0.00304113
0.403493
0.0118782
0.404704
0.018721
0.405562
0.0239453
0.406216
0.027872
0.406783
0.0307704
0.407362
0.0328724
0.408033
0.0343684
0.408858
0.0354319
0.409608
0.035508
0.410357
0.0351123
0.411125
0.0343924
0.411925
0.0334529
0.412767
0.0323625
0.413656
0.0311761
0.414594
0.0299333
0.415584
0.0286687
0.416623
0.0274058
0.417711
0.026164
0.418846
0.0249553
0.420023
0.0237828
0.421244
0.0228192
0.422502
0.0218055
0.423794
0.0207953
0.425112
0.0197659
0.426469
0.019289
0.427846
0.0183804
0.429248
0.0177262
0.0168994
0.430666
0.222051
-0.517838
-0.170521
0.265823
-0.43396
0.302412
-0.357124
0.332545
-0.28924
0.357021
-0.230136
0.376635
-0.179469
0.392137
-0.13662
0.404216
-0.100818
0.413482
-0.0712392
0.420466
-0.0470892
0.425629
-0.0275966
0.429364
-0.0119623
0.432002
0.000403001
0.433821
0.0100597
0.43505
0.0174918
0.435881
0.0231146
0.43647
0.0272828
0.436946
0.0302942
0.437414
0.0324044
0.437959
0.0338235
0.43865
0.034741
0.43926
0.0348983
0.439867
0.0345047
0.440495
0.0337651
0.441158
0.0327902
0.441867
0.0316534
0.442629
0.0304136
0.443449
0.0291133
0.444329
0.0277893
0.445268
0.026467
0.446265
0.025167
0.447318
0.0239021
0.448424
0.0226765
0.449585
0.0216584
0.450794
0.0205967
0.452046
0.0195436
0.453335
0.0184766
0.454671
0.0179526
0.456038
0.0170132
0.457439
0.0163261
0.0154747
0.458863
0.237873
-0.573525
-0.182186
0.285182
-0.481269
0.324734
-0.396676
0.357316
-0.321822
0.383788
-0.256607
0.405006
-0.200688
0.421781
-0.153394
0.434851
-0.113887
0.444873
-0.0812619
0.452422
-0.0546382
0.457991
-0.0331654
0.462004
-0.0159749
0.464816
-0.00240927
0.466726
0.00814982
0.467981
0.0162364
0.468787
0.0223088
0.469312
0.026758
0.469694
0.0299123
0.470046
0.0320526
0.470459
0.0334102
0.471008
0.0341919
0.471471
0.0344356
0.47193
0.0340459
0.472409
0.0332857
0.472928
0.0322719
0.473498
0.0310836
0.474128
0.0297834
0.474824
0.0284176
0.475587
0.0270253
0.476421
0.0256339
0.477322
0.0242656
0.47829
0.0229343
0.479321
0.0216449
0.480418
0.0205617
0.481573
0.0194414
0.482782
0.0183349
0.484038
0.0172204
0.485352
0.016639
0.486706
0.0156594
0.488102
0.0149302
0.0140458
0.489531
0.254965
-0.633724
-0.194766
0.306113
-0.532417
0.348886
-0.439449
0.384131
-0.357066
0.412775
-0.285252
0.435742
-0.223655
0.453904
-0.171557
0.468058
-0.128041
0.478911
-0.0921146
0.48708
-0.0628074
0.493097
-0.0391824
0.497418
-0.0202959
0.500426
-0.00541706
0.502441
0.0061347
0.50373
0.0149474
0.504513
0.0215254
0.504973
0.0262988
0.505256
0.0296288
0.505485
0.0318234
0.505759
0.0331368
0.506157
0.033794
0.506463
0.0341296
0.506763
0.033746
0.507085
0.032964
0.507449
0.0319079
0.50787
0.0306623
0.508359
0.0292947
0.508922
0.027855
0.509562
0.0263852
0.510281
0.0249149
0.511078
0.0234679
0.511953
0.0220595
0.512902
0.0206958
0.513928
0.0195367
0.515022
0.0183474
0.516179
0.0171773
0.517394
0.0160052
0.518677
0.0153567
0.520009
0.0143275
0.521392
0.0135473
0.0126218
0.522816
0.273424
-0.698824
-0.208324
0.328746
-0.587739
0.37502
-0.485723
0.413163
-0.395209
0.444174
-0.316263
0.469049
-0.24853
0.488727
-0.191236
0.504067
-0.143381
0.51583
-0.103878
0.524682
-0.071659
0.531194
-0.0456946
0.535858
-0.0249594
0.539085
-0.00864408
0.54122
0.00399917
0.542551
0.0136164
0.543315
0.0207618
0.543707
0.0259072
0.543886
0.0294492
0.543984
0.0317253
0.544108
0.0330137
0.544342
0.0335593
0.544479
0.0339929
0.544607
0.0336178
0.544758
0.0328133
0.544955
0.0317112
0.545215
0.0304027
0.545549
0.0289603
0.545966
0.0274382
0.54647
0.0258814
0.547063
0.024322
0.547745
0.0227859
0.548514
0.0212898
0.549369
0.019841
0.550311
0.0185954
0.551331
0.0173266
0.552426
0.0160826
0.553588
0.0148434
0.554827
0.0141178
0.556124
0.0130303
0.557481
0.0121904
0.0112158
0.558887
0.29336
-0.76925
-0.222933
0.353219
-0.647598
0.403305
-0.535809
0.444604
-0.436508
0.478196
-0.349855
0.505154
-0.275488
0.526491
-0.212573
0.54313
-0.16002
0.555893
-0.116641
0.565496
-0.0812621
0.572556
-0.0527542
0.5776
-0.0300037
0.581073
-0.0121169
0.583346
0.00172638
0.584728
0.0122346
0.585474
0.0200154
0.585795
0.025586
0.585864
0.0293808
0.585821
0.0317687
0.58578
0.0330544
0.585836
0.0335035
0.585787
0.0340418
0.585727
0.0336781
0.58569
0.0328504
0.585702
0.0316989
0.585783
0.0303218
0.585946
0.0287973
0.5862
0.027184
0.586551
0.0255306
0.587001
0.0238721
0.587551
0.0222363
0.588199
0.0206417
0.588943
0.0190972
0.589784
0.0177542
0.590715
0.0163955
0.59173
0.0150677
0.592822
0.0137517
0.594
0.0129392
0.595246
0.0117846
0.59656
0.0108765
0.00984518
0.597931
0.314888
-0.84547
-0.238668
0.379687
-0.712396
0.433923
-0.590045
0.478664
-0.481249
0.515073
-0.386264
0.544308
-0.304723
0.56746
-0.235725
0.585525
-0.178084
0.599387
-0.130503
0.609819
-0.0916937
0.617484
-0.0604194
0.622952
-0.0354713
0.6267
-0.015865
0.629129
-0.000702452
0.630571
0.0107922
0.631302
0.019284
0.63155
0.025339
0.631498
0.0294324
0.6313
0.031967
0.631079
0.0332754
0.630936
0.0336462
0.630681
0.0342964
0.630412
0.0339479
0.630165
0.033097
0.629971
0.031893
0.629851
0.0304418
0.629821
0.0288279
0.62989
0.0271148
0.630065
0.0253553
0.63035
0.0235873
0.630745
0.0218412
0.631249
0.0201374
0.63186
0.0184864
0.632579
0.0170353
0.633399
0.0155761
0.634312
0.0141544
0.635311
0.0127521
0.636408
0.0118428
0.63758
0.0106125
0.638829
0.00962769
0.00853202
0.640142
0.338138
-0.927997
-0.255611
0.408317
-0.782575
0.467078
-0.648806
0.515574
-0.529745
0.55506
-0.425751
0.586786
-0.336448
0.611927
-0.260866
0.631557
-0.197714
0.646628
-0.145575
0.657974
-0.10304
0.66631
-0.0687554
0.672249
-0.04141
0.676306
-0.0199216
0.678912
-0.00330822
0.680425
0.00927838
0.681144
0.0185655
0.681312
0.0251713
0.681129
0.0296151
0.68076
0.0323362
0.680338
0.0336974
0.679973
0.0340117
0.679487
0.034782
0.678982
0.0344534
0.678499
0.0335798
0.678072
0.0323206
0.677723
0.0307902
0.677472
0.0290797
0.677328
0.0272583
0.6773
0.0253831
0.677392
0.0234955
0.677605
0.0216285
0.677938
0.0198048
0.678388
0.0180366
0.678957
0.0164664
0.679636
0.0148964
0.68042
0.0133708
0.681299
0.0118727
0.682286
0.0108567
0.683356
0.00954192
0.684512
0.00847194
0.00730432
0.68574
0.363248
-1.01739
-0.27385
0.439291
-0.858618
0.502989
-0.712504
0.555586
-0.582342
0.598438
-0.468603