/*--------------------------------*- C++ -*----------------------------------*\
| =========                 |                                                 |
| \\      /  F ield         | OpenFOAM: The Open Source CFD Toolbox           |
|  \\    /   O peration     | Version:  2312                                  |
|   \\  /    A nd           | Website:  www.openfoam.com                      |
|    \\/     M anipulation  |                                                 |
\*---------------------------------------------------------------------------*/
FoamFile
{
    version     2.0;
    format      ascii;
    arch        "LSB;label=32;scalar=64";
    class       volScalarField;
    location    "750";
    object      turbulenceProperties:L;
}
// * * * * * * * * * * * * * * * * * * * * * * * * * * * * * * * * * * * * * //

dimensions      [0 1 0 0 0 0 0];

internalField   nonuniform List<scalar> 
11040
(
0.000441711
0.000483854
0.000871489
0.00141757
0.00136932
0.00130585
0.00127909
0.00127124
0.00125278
0.00124359
0.00123154
0.00122224
0.00121152
0.00120322
0.00119501
0.00118986
0.00118849
0.00118988
0.00119265
0.00119623
0.00120097
0.00120741
0.00121434
0.00122046
0.0012271
0.00123871
0.00125663
0.00127727
0.00130108
0.00132897
0.00136217
0.00140223
0.00145431
0.00153716
0.00169479
0.00183362
0.0018185
0.00238819
0.00400155
0.0025028
0.00233701
0.00117477
0.00105374
0.000667103
0.000882125
0.00244365
0.00441439
0.00696871
0.0109764
0.0189101
0.0194623
0.0115541
0.00927792
0.00795034
0.00711117
0.00648377
0.00602809
0.00570857
0.00550115
0.00536854
0.0052796
0.00522907
0.00520754
0.00522655
0.00530546
0.00547268
0.0058164
0.00641049
0.00722556
0.00832764
0.00976926
0.011428
0.0127939
0.0139486
0.0144886
0.0144069
0.0138895
0.0131558
0.0126698
0.0111788
0.0112477
0.008013
0.00149608
0.00161308
0.00129161
0.000824817
0.00156386
0.00313647
0.00535086
0.00839185
0.0107106
0.0128
0.0155165
0.0190102
0.02506
0.0421568
0.0419322
0.0272526
0.0221608
0.0194749
0.0179773
0.017186
0.0169201
0.0171433
0.0180901
0.0200127
0.0230858
0.0275139
0.0338835
0.0446347
0.0734246
0.0668073
0.0419527
0.0325165
0.0274336
0.0242595
0.0220707
0.0204048
0.0191291
0.0184748
0.0167974
0.0160857
0.0175987
0.00176991
0.00190596
0.00215861
0.00173131
0.00117937
0.00208889
0.00373203
0.00595161
0.0095808
0.0123856
0.0146928
0.0167368
0.0184792
0.0206063
0.0224004
0.0242855
0.0258847
0.0271694
0.0280383
0.0283737
0.028435
0.028327
0.0280787
0.0279313
0.0282799
0.0292942
0.0310824
0.0337827
0.0374883
0.0416052
0.0436488
0.0415431
0.0374911
0.0336186
0.0304859
0.0279646
0.0260102
0.0249128
0.0231169
0.0217301
0.0285831
0.00204855
0.00215418
0.00209062
0.00295485
0.00254029
0.00152719
0.00254639
0.0042006
0.00653248
0.0100743
0.0139026
0.0170959
0.01911
0.0212587
0.0227806
0.0241533
0.0252326
0.0260117
0.0265604
0.0269044
0.0272172
0.0276534
0.0282747
0.0291142
0.0303452
0.032088
0.0344563
0.0375961
0.041646
0.0464721
0.0508209
0.0518578
0.0487417
0.0441357
0.0399329
0.0364592
0.033731
0.0320526
0.0303377
0.0283144
0.0375877
0.00241066
0.00251613
0.00254767
0.00242819
0.00455202
0.0055758
0.00181665
0.00293439
0.0045803
0.00700908
0.0102025
0.0150243
0.0189936
0.0223856
0.0245683
0.026413
0.0279309
0.029022
0.0298343
0.0304145
0.0309142
0.0315172
0.0323874
0.0335565
0.0351551
0.0372934
0.040095
0.0437323
0.0484272
0.0543143
0.0607204
0.064624
0.0626049
0.0569205
0.0511618
0.0463719
0.0426311
0.040189
0.0385443
0.0360946
0.0455863
0.00283642
0.00290152
0.00299289
0.00290234
0.00285311
0.00767545
0.0623416
0.00198999
0.00323722
0.0048893
0.00728937
0.010421
0.0149473
0.020458
0.0248944
0.0283674
0.0309424
0.0327943
0.0342993
0.0354142
0.0362702
0.0370344
0.0380295
0.0393521
0.0411452
0.0435451
0.0466998
0.0508128
0.0561781
0.063179
0.0717784
0.0795376
0.0801988
0.0733723
0.0652561
0.0584953
0.0533166
0.0498454
0.0480261
0.0454034
0.0542402
0.00332009
0.0033573
0.00338299
0.00344996
0.00332153
0.0032417
0.025767
0.4813
0.00224924
0.00343527
0.00512766
0.00740867
0.0105757
0.0146096
0.0205184
0.0265592
0.0315305
0.0353454
0.038405
0.0406201
0.0423172
0.0435615
0.0447908
0.0462513
0.0481481
0.0506885
0.0540771
0.0585663
0.0644943
0.0724642
0.0831362
0.0957984
0.103026
0.0963024
0.0843472
0.0742792
0.0668325
0.0618539
0.0593946
0.0568384
0.0646203
0.00386281
0.00389014
0.00388611
0.00390233
0.00397856
0.00375909
0.00382566
0.0142537
0.0130095
0.00841345
0.00344206
0.00525223
0.00746754
0.0104936
0.0144356
0.0195763
0.0267162
0.0335017
0.0391505
0.0436347
0.0472466
0.0498302
0.0519559
0.0539717
0.0561991
0.0589234
0.0624459
0.0671327
0.0734183
0.0820144
0.0941434
0.111381
0.131106
0.132191
0.113558
0.0968252
0.0852189
0.0777236
0.0738588
0.0712877
0.0779245
0.00448197
0.00450171
0.00448511
0.00446076
0.0044789
0.00454716
0.0043105
0.00452478
0.00929538
0.0372179
0.00583486
0.00324651
0.00523663
0.00747013
0.0102917
0.0140921
0.018857
0.0251911
0.0335818
0.0415166
0.0480836
0.0531313
0.0571746
0.0606419
0.0639923
0.0675815
0.0717331
0.0768388
0.0833991
0.0922404
0.104857
0.124107
0.155751
0.194179
0.170473
0.134646
0.113233
0.100628
0.0939328
0.09067
0.095929
0.00518918
0.00520336
0.00517709
0.00513646
0.00510049
0.00512249
0.00515816
0.00500572
0.00500888
0.00730814
0.0502301
0.0132143
0.0158783
0.00485183
0.00729118
0.0100381
0.0135279
0.018123
0.023803
0.0313908
0.0412469
0.0503685
0.0574186
0.0631757
0.0684202
0.0735704
0.07903
0.0852674
0.0927692
0.102226
0.114838
0.133088
0.16342
0.230427
0.405819
0.221891
0.16352
0.137628
0.124757
0.119067
0.122193
0.00600194
0.00601072
0.00598153
0.00592498
0.00586706
0.0058223
0.00583004
0.00586008
0.00577624
0.00566155
0.00662618
0.081523
0.113293
0.0068387
0.0043551
0.00684024
0.00964989
0.0129301
0.0171128
0.0225521
0.029276
0.0377718
0.0479829
0.0580294
0.0666186
0.0739439
0.080972
0.0885081
0.0970228
0.10706
0.119453
0.135695
0.158729
0.195499
0.265499
0.346574
0.254165
0.199356
0.174197
0.163628
0.163975
0.00694007
0.00694286
0.00691263
0.00684586
0.00676519
0.00669097
0.00663367
0.00661829
0.00664197
0.00660964
0.00644063
0.00690089
0.0179407
0.0990806
0.0238953
0.00832922
0.00581499
0.00895579
0.0122176
0.0160677
0.0209744
0.0271047
0.0341031
0.0421683
0.0519807
0.0630519
0.0740829
0.084333
0.0940416
0.104121
0.115512
0.129044
0.145582
0.166052
0.190656
0.215781
0.22976
0.225533
0.213969
0.20753
0.213503
0.00802816
0.00802355
0.00799342
0.00791885
0.00781793
0.00771456
0.00762165
0.00754556
0.00750397
0.0075104
0.00750999
0.0073426
0.00744026
0.0102346
0.218739
0.387709
0.0121866
0.0101642
0.00766153
0.0111702
0.0149423
0.0191801
0.024147
0.0301631
0.0371095
0.0447859
0.053611
0.0641688
0.0763363
0.0893955
0.102604
0.115626
0.128581
0.141743
0.154934
0.167348
0.177662
0.184991
0.189335
0.192754
0.202648
0.00929717
0.009283
0.00925308
0.00917095
0.00905112
0.0089193
0.00879054
0.00867343
0.00857347
0.00850176
0.00848265
0.00847635
0.00835916
0.00831391
0.00885411
0.0200528
0.10232
2.01892
0.0088618
0.0124181
0.00942882
0.0132376
0.0169909
0.0211042
0.0258121
0.0313874
0.0379828
0.0454823
0.0536798
0.0627155
0.073023
0.0848638
0.0980029
0.111706
0.124862
0.136337
0.145378
0.152198
0.157385
0.161408
0.168614
0.0107848
0.0107596
0.0107297
0.0106397
0.0105003
0.0103402
0.0101762
0.0100166
0.00986905
0.00974016
0.00963669
0.00957986
0.00954443
0.00950215
0.00931416
0.00955851
0.0109438
0.0664309
0.210826
5.49432
0.00854985
0.0135442
0.00953923
0.0137396
0.0175725
0.0215518
0.0259139
0.0308864
0.0366632
0.0433616
0.0509331
0.0591507
0.067773
0.0767434
0.0860868
0.0957478
0.10546
0.114914
0.123564
0.130583
0.137995
0.0125204
0.0124837
0.0124527
0.0123533
0.0121928
0.0120038
0.0118042
0.0116034
0.0114087
0.0112281
0.0110673
0.0109312
0.0108271
0.0107667
0.0106951
0.0105883
0.0104267
0.0110257
0.0146108
0.17109
0.317035
6.72423
0.0176667
0.00921322
0.0165061
0.0109856
0.0158732
0.0198811
0.0240106
0.0284531
0.0333597
0.0388409
0.0449295
0.0516123
0.0587733
0.0662168
0.0736765
0.0810274
0.0880781
0.0944448
0.101075
0.0144657
0.0144158
0.0143797
0.0142656
0.0140795
0.0138577
0.01362
0.0133762
0.0131351
0.0129046
0.0126911
0.0124988
0.0123298
0.0121884
0.0120855
0.0120013
0.0118991
0.0117116
0.0116753
0.012466
0.0177306
0.203242
0.343587
2.48776
0
0.0204938
0.00895897
0.0156627
0.0114908
0.0132514
0.0183745
0.0229733
0.0274983
0.0322459
0.0372618
0.042553
0.0480592
0.0537941
0.0596684
0.0654025
0.0715058
0.016559
0.0164932
0.0164492
0.0163169
0.0161018
0.0158442
0.0155651
0.0152744
0.0149823
0.0146985
0.0144302
0.0141824
0.0139583
0.0137584
0.013586
0.0134419
0.013336
0.0132186
0.0130768
0.0128917
0.0129269
0.0139995
0.017641
0.0727097
0.24614
0.790057
4.23622
0
0.270632
0.0189233
0.00942044
0.0151033
0.0295154
0.013525
0.0167478
0.0219431
0.0268141
0.0315854
0.0363564
0.0410255
0.0460063
0.0187834
0.0187023
0.0186492
0.018497
0.0182517
0.0179573
0.0176362
0.0172992
0.0169567
0.0166198
0.0162962
0.0159911
0.0157089
0.0154521
0.0152221
0.0150183
0.0148436
0.0146961
0.0145761
0.0144371
0.014254
0.0141013
0.0141192
0.0148722
0.0170733
0.0232669
0.112001
0.323525
0.872384
1.39603
9.00066
0
0
0.0837797
0.017906
0.0100101
0.0141927
0.02656
0.0566303
0.0499675
0.0176816
0.0211637
0.0210677
0.0210042
0.0208302
0.0205528
0.0202195
0.0198541
0.0194689
0.0190754
0.0186854
0.0183075
0.0179469
0.0176081
0.0172943
0.0170077
0.0167491
0.016518
0.0163138
0.0161382
0.0159891
0.0158543
0.0156883
0.0155136
0.0153086
0.0153018
0.0154927
0.0163359
0.0184773
0.0231523
0.0342475
0.20579
0.454548
1.01955
1.41699
2.26989
9.02027
0
0
0
2.42217
0.0317476
0.0237176
0.0236069
0.0235306
0.0233324
0.0230206
0.0226459
0.022234
0.0217982
0.0213518
0.0209073
0.0204744
0.0200587
0.0196647
0.0192963
0.0189554
0.0186434
0.0183605
0.0181062
0.0178792
0.0176779
0.017508
0.0173597
0.0172228
0.017064
0.0168847
0.0167227
0.0165531
0.0165259
0.016698
0.0170439
0.0179529
0.019798
0.0233501
0.0303508
0.045631
0.171602
0.489848
1.19225
1.45978
1.86632
2.5794
0.0264664
0.0263409
0.0262496
0.0260247
0.025676
0.0252574
0.024796
0.0243072
0.0238057
0.0233051
0.0228159
0.0223444
0.0218952
0.0214726
0.0210791
0.0207158
0.0203833
0.0200815
0.0198097
0.019565
0.0193517
0.0191685
0.0190095
0.0188749
0.018749
0.018626
0.0184846
0.0183268
0.0181754
0.0180574
0.0179401
0.0179219
0.0180284
0.0182882
0.018701
0.0194814
0.0208114
0.0229982
0.0263928
0.0318319
0.04136
0.0294313
0.0292908
0.0291814
0.0289269
0.0285387
0.028073
0.0275592
0.0270144
0.026455
0.0258962
0.025349
0.0248206
0.024316
0.0238396
0.0233944
0.0229817
0.022602
0.0222554
0.0219416
0.0216579
0.0214089
0.0211932
0.0210037
0.0208441
0.0207104
0.0205971
0.0205
0.0204113
0.0203223
0.020234
0.0201367
0.0200337
0.0199357
0.0198524
0.0197951
0.0197434
0.0197388
0.0198028
0.0199422
0.020183
0.0204548
0.0326357
0.0324795
0.0323489
0.0320617
0.0316308
0.0311148
0.0305449
0.0299409
0.0293209
0.0287013
0.0280942
0.0275076
0.0269467
0.0264163
0.0259198
0.0254587
0.0250336
0.0246447
0.0242919
0.0239725
0.0236922
0.0234494
0.0232364
0.0230565
0.0229064
0.0227815
0.0226796
0.0225987
0.0225364
0.0224896
0.022456
0.0224316
0.022413
0.0223965
0.0223825
0.0223684
0.0223553
0.022344
0.0223352
0.0223455
0.0223416
0.0361044
0.0359319
0.0357762
0.0354524
0.0349753
0.0344049
0.0337751
0.0331081
0.0324243
0.0317412
0.0310721
0.0304254
0.0298073
0.0292227
0.0286752
0.0281665
0.0276976
0.0272687
0.0268797
0.0265278
0.0262201
0.0259544
0.0257217
0.0255268
0.0253659
0.0252341
0.0251284
0.0250467
0.0249874
0.0249487
0.0249292
0.0249276
0.0249428
0.0249727
0.0250153
0.02507
0.0251361
0.0252105
0.0252882
0.0253755
0.0254521
0.0398651
0.0396749
0.0394893
0.0391246
0.0385968
0.0379675
0.0372733
0.0365393
0.035788
0.0350384
0.0343048
0.0335964
0.0329198
0.0322805
0.0316822
0.0311269
0.0306156
0.0301485
0.0297259
0.0293447
0.0290132
0.0287285
0.02848
0.0282735
0.0281056
0.0279709
0.027866
0.0277885
0.0277364
0.0277075
0.0277
0.0277122
0.0277433
0.0277915
0.027855
0.0279339
0.0280278
0.0281352
0.0282518
0.0283851
0.0285073
0.043948
0.043738
0.0435168
0.0431056
0.0425217
0.0418279
0.041064
0.0402583
0.0394355
0.038616
0.0378153
0.0370432
0.0363069
0.0356124
0.0349635
0.0343623
0.0338099
0.0333068
0.0328531
0.0324457
0.0320941
0.0317943
0.0315339
0.0313199
0.0311488
0.0310148
0.0309141
0.0308443
0.030803
0.0307878
0.0307966
0.0308274
0.030879
0.0309493
0.0310363
0.0311396
0.0312589
0.0313922
0.0315353
0.0316955
0.0318467
0.0483867
0.0481537
0.0478894
0.0474247
0.0467779
0.046013
0.0451732
0.0442904
0.0433915
0.0424984
0.0416277
0.0407899
0.0399926
0.0392423
0.038543
0.0378968
0.0373048
0.0367677
0.0362856
0.0358551
0.0354869
0.0351762
0.0349077
0.03469
0.0345197
0.0343903
0.0342976
0.0342391
0.034212
0.034214
0.0342424
0.0342952
0.034371
0.0344673
0.0345821
0.0347147
0.0348648
0.0350302
0.0352066
0.0353988
0.0355924
0.0532184
0.0529578
0.0526408
0.0521134
0.0513953
0.0505511
0.0496281
0.0486619
0.0476817
0.0467109
0.045767
0.0448614
0.0440017
0.043195
0.0424456
0.0417554
0.0411255
0.0405564
0.0400487
0.0395983
0.0392174
0.0388997
0.0386271
0.0384097
0.0382442
0.0381234
0.0380427
0.0379993
0.0379903
0.038013
0.0380647
0.0381429
0.0382462
0.0383718
0.0385175
0.0386826
0.0388666
0.039067
0.0392801
0.0395063
0.0397503
0.0584851
0.0581894
0.0578072
0.0572056
0.0564056
0.0554722
0.0544572
0.0534001
0.0523326
0.0512793
0.0502587
0.0492828
0.0483595
0.0474958
0.0466967
0.0459637
0.0452977
0.0446992
0.0441688
0.0437019
0.0433122
0.0429918
0.0427194
0.0425066
0.0423502
0.0422423
0.0421779
0.0421537
0.0421669
0.0422143
0.0422931
0.0424006
0.042535
0.0426935
0.0428736
0.0430747
0.0432959
0.0435345
0.0437877
0.0440494
0.0443528
0.0642333
0.0638919
0.0634285
0.0627379
0.0618426
0.0608077
0.05969
0.0585332
0.0573712
0.0562298
0.0551284
0.0540796
0.0530911
0.05217
0.0513216
0.0505471
0.049847
0.0492217
0.0486718
0.048192
0.0477975
0.0474787
0.0472106
0.0470067
0.0468636
0.0467727
0.0467284
0.0467274
0.0467665
0.0468424
0.046952
0.0470922
0.0472613
0.0474563
0.0476743
0.0479146
0.0481764
0.0484567
0.0487536
0.0490523
0.049427
0.0705153
0.0701129
0.0695476
0.0687494
0.0677421
0.0665906
0.0653572
0.0640898
0.0628247
0.0615886
0.0604017
0.0592767
0.0582213
0.0572424
0.0563452
0.0555308
0.0547989
0.0541497
0.0535836
0.0530951
0.0527001
0.0523879
0.052129
0.0519388
0.051814
0.0517451
0.0517259
0.0517528
0.0518225
0.0519314
0.052076
0.0522532
0.052461
0.0526962
0.0529557
0.0532389
0.0535446
0.0538696
0.0542135
0.0545503
0.0550081
0.0773897
0.076905
0.0762114
0.0752821
0.0741415
0.072855
0.0714898
0.0700988
0.06872
0.0673814
0.0661029
0.064898
0.0637737
0.0627361
0.0617905
0.0609376
0.0601762
0.0595059
0.058927
0.0584331
0.0580414
0.0577394
0.0574933
0.0573203
0.0572172
0.0571735
0.0571825
0.0572402
0.0573433
0.0574879
0.0576703
0.0578872
0.0581362
0.0584142
0.0587178
0.0590462
0.0593983
0.0597704
0.060164
0.0605386
0.0610947
0.084922
0.0843259
0.083471
0.0823808
0.0810808
0.0796359
0.0781192
0.0765884
0.0750831
0.0736319
0.0722549
0.0709652
0.0697693
0.0686722
0.0676786
0.066789
0.066001
0.0653135
0.0647261
0.0642322
0.0638495
0.0635643
0.0633374
0.0631883
0.0631135
0.0631016
0.0631451
0.0632398
0.0633821
0.0635677
0.0637928
0.0640538
0.0643481
0.0646725
0.0650234
0.0654
0.0658008
0.066222
0.0666669
0.0670796
0.0677429
0.0931859
0.0924392
0.0913813
0.0900933
0.0886009
0.0869686
0.0852762
0.0835855
0.0819379
0.0803622
0.078878
0.0774974
0.0762262
0.0750677
0.0740254
0.0730995
0.0722859
0.0715824
0.0709878
0.0704946
0.0701211
0.0698525
0.0696442
0.069518
0.0694705
0.0694892
0.0695658
0.0696962
0.0698763
0.0701019
0.0703687
0.0706728
0.0710117
0.0713817
0.0717791
0.072203
0.0726517
0.0731214
0.0736173
0.0740635
0.0748541
0.102263
0.101314
0.100001
0.098469
0.0967431
0.094888
0.0929899
0.0911153
0.0893065
0.0875919
0.0859899
0.0845114
0.0831607
0.0819393
0.0808491
0.0798896
0.0790554
0.0783425
0.0777488
0.0772665
0.0769134
0.0766736
0.0764965
0.0764059
0.0763981
0.0764592
0.0765803
0.0767566
0.0769839
0.0772574
0.0775728
0.0779259
0.0783137
0.0787328
0.079179
0.0796517
0.0801485
0.0806664
0.0812102
0.0816927
0.0825956
0.112242
0.111023
0.109391
0.107557
0.105546
0.103426
0.101287
0.0992009
0.0972093
0.095339
0.093607
0.0920214
0.0905844
0.0892943
0.0881506
0.0871517
0.08629
0.0855593
0.0849564
0.0844721
0.0841244
0.0838976
0.0837349
0.0836631
0.0836784
0.0837657
0.0839154
0.0841227
0.0843831
0.0846916
0.0850433
0.0854341
0.0858606
0.0863192
0.0868051
0.0873178
0.0878544
0.0884126
0.0889982
0.0894986
0.0905562
0.123219
0.121646
0.119614
0.117405
0.115048
0.112611
0.110193
0.107864
0.105666
0.103622
0.101747
0.100045
0.0985172
0.0971594
0.0959689
0.0949427
0.094071
0.0933454
0.0927604
0.0923061
0.0919983
0.091819
0.0917054
0.0916857
0.0917555
0.0918981
0.0921029
0.0923644
0.0926781
0.0930384
0.0934405
0.0938798
0.0943528
0.0948561
0.0953847
0.0959388
0.0965134
0.0971102
0.0977261
0.0982687
0.0993747
0.135299
0.133262
0.130734
0.128062
0.125287
0.122477
0.119735
0.117131
0.114702
0.112466
0.11043
0.108596
0.106959
0.10551
0.104242
0.103148
0.102219
0.101443
0.100815
0.100324
0.0999842
0.0997839
0.0996524
0.099621
0.0996849
0.0998262
0.100034
0.100301
0.100624
0.100996
0.101412
0.101866
0.102355
0.102875
0.103419
0.103987
0.104575
0.105184
0.105816
0.106328
0.107643
0.148597
0.145948
0.142796
0.139563
0.136298
0.133064
0.129958
0.127045
0.124357
0.121906
0.119695
0.117722
0.11598
0.114467
0.113174
0.112091
0.111198
0.110478
0.109917
0.109505
0.109251
0.109135
0.109084
0.109131
0.10927
0.109483
0.109756
0.110083
0.110461
0.110882
0.111341
0.111833
0.112355
0.112904
0.113473
0.114065
0.114669
0.115299
0.115921
0.11653
0.117623
0.163188
0.159732
0.155793
0.151879
0.148061
0.144381
0.140901
0.137665
0.134692
0.131993
0.129571
0.127418
0.125508
0.123809
0.122303
0.120996
0.119891
0.118978
0.118246
0.117677
0.117282
0.117052
0.116902
0.116865
0.116933
0.117084
0.117305
0.117589
0.117929
0.118318
0.118748
0.119213
0.119708
0.120228
0.120766
0.12132
0.121885
0.122465
0.12306
0.123477
0.125037
0.178993
0.174563
0.169712
0.16502
0.160585
0.156425
0.152573
0.149036
0.145798
0.142846
0.140188
0.137848
0.135856
0.134228
0.132937
0.131903
0.131053
0.130358
0.129812
0.129413
0.129169
0.129055
0.129
0.129043
0.129178
0.129383
0.129645
0.129957
0.130316
0.130713
0.131144
0.131606
0.132092
0.132601
0.133127
0.133676
0.134226
0.134822
0.135339
0.136102
0.136603
0.195912
0.190418
0.184695
0.1793
0.174281
0.169596
0.16527
0.161336
0.157799
0.154625
0.151744
0.149068
0.14652
0.144069
0.141775
0.139799
0.138219
0.136976
0.136008
0.135257
0.13472
0.134396
0.134176
0.134088
0.134116
0.134235
0.134427
0.134683
0.134992
0.135344
0.135729
0.136138
0.136564
0.137001
0.137438
0.137869
0.138296
0.138706
0.139152
0.1392
0.14118
0.214409
0.207458
0.200786
0.194881
0.189583
0.18463
0.179914
0.175433
0.171262
0.167532
0.164394
0.161959
0.160246
0.159174
0.158496
0.157771
0.156816
0.155807
0.154867
0.154066
0.153415
0.152881
0.15243
0.152097
0.151879
0.151749
0.151694
0.151706
0.151779
0.151906
0.152081
0.1523
0.152558
0.152855
0.153185
0.15356
0.153939
0.154429
0.154705
0.15592
0.154685
0.234851
0.225077
0.216508
0.209695
0.204279
0.199695
0.195546
0.191543
0.18746
0.183132
0.178489
0.17357
0.168554
0.163679
0.159309
0.15604
0.153899
0.152359
0.151201
0.150322
0.149722
0.149372
0.149164
0.149106
0.149173
0.149333
0.149565
0.149853
0.150182
0.150533
0.150894
0.151249
0.151588
0.1519
0.152169
0.152378
0.152548
0.152606
0.152791
0.15197
0.15498
0.254005
0.242007
0.231748
0.223387
0.216682
0.211315
0.207143
0.204067
0.201946
0.200589
0.199777
0.19929
0.198919
0.198619
0.198206
0.196551
0.193698
0.190673
0.187781
0.185179
0.182875
0.180838
0.179017
0.177415
0.176027
0.174827
0.173794
0.172917
0.172186
0.171595
0.17114
0.170818
0.170626
0.170571
0.170646
0.170875
0.171198
0.171813
0.172123
0.174517
0.171145
0.243972
0.230267
0.223875
0.222803
0.224454
0.225678
0.223625
0.217385
0.208375
0.198731
0.189926
0.182576
0.176783
0.172333
0.169089
0.167579
0.167514
0.168102
0.168991
0.170047
0.171338
0.172539
0.173872
0.175265
0.176677
0.178096
0.179516
0.180927
0.182321
0.183694
0.185045
0.186372
0.187686
0.188994
0.190293
0.191558
0.192889
0.194115
0.195828
0.195537
0.203315
0.00519207
0.00941316
0.0139975
0.0186308
0.0234948
0.0287136
0.0344475
0.0413244
0.0518073
0.0725105
0.0371754
0.00846195
0.0178982
0.09615
0.0131781
0.0138419
0.0153202
0.0162683
0.0172759
0.0184788
0.0197359
0.0211225
0.0226137
0.0242385
0.0260084
0.0279459
0.0300747
0.032428
0.0350374
0.0379239
0.0411535
0.0447155
0.0486948
0.0530984
0.0579686
0.0633821
0.0693634
0.075986
0.0832977
0.0913772
0.100268
0.11005
0.120762
0.132522
0.145395
0.159417
0.174865
0.191781
0.210286
0.23076
0.253799
0.279347
0.308258
0.340178
0.374236
0.413718
0.439452
0.46085
0.456367
0.446729
0.424399
0.408231
0.389108
0.373678
0.361096
0.350257
0.341268
0.335528
0.327564
0.328411
0.316494
0.329381
0.302581
0.326193
0.00903308
0.0123495
0.0165492
0.0208306
0.0252059
0.0297869
0.0346329
0.0399535
0.0465421
0.0569439
0.075844
0.0368626
0.00965205
0.0221647
2.62834
0.0139888
0.0144903
0.0161991
0.0172841
0.0183988
0.0196583
0.021058
0.0225607
0.0241977
0.025982
0.0279341
0.0300784
0.0324464
0.0350744
0.0379783
0.0412298
0.0448206
0.0488286
0.0532779
0.0581947
0.0636668
0.0697266
0.0764436
0.083879
0.0921156
0.101205
0.111256
0.122278
0.134453
0.147851
0.162424
0.178714
0.196583
0.216061
0.237828
0.262472
0.289497
0.320116
0.352972
0.387196
0.424651
0.443285
0.457215
0.446901
0.435616
0.414412
0.399746
0.382865
0.368999
0.357967
0.348394
0.34029
0.335502
0.327988
0.329935
0.317584
0.332798
0.303743
0.329896
0.0151557
0.0169931
0.0202318
0.0238609
0.027685
0.0316887
0.03586
0.040255
0.0451771
0.0515048
0.0616586
0.0776841
0.0380962
0.00978442
0.494948
0.0789727
0.0162015
0.0151413
0.0170353
0.0183857
0.0195685
0.0209464
0.0224707
0.0241213
0.0259204
0.0278925
0.0300557
0.0324425
0.0350934
0.0380272
0.0412984
0.044931
0.0489683
0.0534707
0.0584526
0.0639929
0.0701508
0.0769848
0.0845703
0.0930036
0.102342
0.112714
0.124143
0.136833
0.150883
0.166225
0.183567
0.202573
0.223389
0.246929
0.273375
0.302356
0.334703
0.368421
0.402656
0.431649
0.444597
0.44859
0.436168
0.422733
0.404699
0.390276
0.376318
0.364351
0.354653
0.346525
0.339331
0.335579
0.328585
0.331638
0.318984
0.336628
0.305254
0.334049
0.0231993
0.0233998
0.0253136
0.0279658
0.0310508
0.0344142
0.0379566
0.0416442
0.045578
0.0501253
0.0561346
0.065557
0.0785593
0.0408539
0.0199388
0
0.0968645
0.0183968
0.0160507
0.0178887
0.0195554
0.0208558
0.0223368
0.0240192
0.0258423
0.0278257
0.0300056
0.0324123
0.0350833
0.038043
0.0413369
0.0450069
0.0490808
0.0536331
0.0586799
0.0642926
0.0705484
0.0775043
0.0852467
0.0938808
0.103485
0.114193
0.126053
0.139294
0.154032
0.170246
0.188678
0.208946
0.231309
0.256753
0.285132
0.316121
0.349905
0.383679
0.415731
0.435671
0.442774
0.439507
0.426281
0.41213
0.396608
0.382974
0.371229
0.360923
0.352332
0.34546
0.338996
0.336185
0.329621
0.333748
0.320645
0.340816
0.306919
0.338304
0.0326456
0.0318296
0.0320925
0.0334465
0.0355663
0.0381592
0.0410269
0.0440591
0.0472435
0.0507263
0.05488
0.0603999
0.0686612
0.0790293
0.0454527
0.0234202
0.0641413
0.116723
0.0246044
0.0171684
0.0188162
0.0209201
0.0223784
0.0239007
0.0257253
0.0277519
0.0299501
0.0323643
0.0350494
0.0380329
0.0413522
0.0450527
0.0491643
0.0537627
0.0588702
0.0645563
0.0709056
0.0779797
0.0858793
0.0947129
0.104583
0.115633
0.127933
0.14174
0.157193
0.174314
0.193865
0.215508
0.239516
0.266869
0.297235
0.329985
0.364544
0.396982
0.424261
0.43669
0.438069
0.430614
0.417243
0.403584
0.389918
0.377619
0.367524
0.3586
0.350995
0.345198
0.339328
0.33735
0.331115
0.3363
0.322583
0.345368
0.308745
0.342612
0.044245
0.0426114
0.0408904
0.0406236
0.0415267
0.0431711
0.0452562
0.0475963
0.050097
0.0527803
0.0558105
0.05951
0.0643864
0.0712611
0.0792998
0.0540855
0.0111982
0.0153648
0.174915
0.0463274
0.0188299
0.0192185
0.0219687
0.0240576
0.0256968
0.0276072
0.029851
0.0323169
0.035011
0.0379948
0.0413304
0.0450612
0.0492124
0.0538542
0.0590157
0.0647718
0.0712109
0.0783988
0.0864488
0.0954797
0.105607
0.116998
0.12974
0.144122
0.160306
0.178348
0.199057
0.22212
0.247802
0.276996
0.309201
0.343119
0.377299
0.406662
0.427614
0.433594
0.430625
0.42118
0.408432
0.395925
0.383939
0.373203
0.364518
0.356794
0.350156
0.345284
0.340046
0.338811
0.332861
0.339068
0.32471
0.350131
0.310696
0.3469
0.0582862
0.0560919
0.0520591
0.0498586
0.0492696
0.0497502
0.050897
0.0524465
0.0542341
0.0561962
0.0583781
0.0609356
0.0641179
0.0682518
0.0737056
0.0796323
0.0660299
0.0166849
0.0146414
0.426234
0.110552
0.0248169
0.020479
0.0227222
0.0257245
0.0278086
0.0297421
0.0321102
0.034886
0.0379439
0.0412952
0.0450263
0.0491992
0.0538855
0.0591063
0.0649311
0.0714517
0.0787447
0.0869366
0.096159
0.106538
0.118261
0.131443
0.146398
0.163317
0.182296
0.204182
0.228664
0.256011
0.286936
0.320623
0.354915
0.387339
0.412268
0.426728
0.427435
0.421871
0.411814
0.400199
0.389039
0.378668
0.369399
0.361988
0.355347
0.349621
0.34557
0.340981
0.340424
0.334738
0.341914
0.326947
0.354986
0.312719
0.351119
0.0733253
0.0725693
0.0660158
0.0615692
0.0591857
0.0582543
0.0582668
0.058879
0.0598594
0.0610764
0.0624935
0.064166
0.0662232
0.0688398
0.0721903
0.0763399
0.0807186
0.0750789
0.0318567
0.0252211
0.0208505
0.181099
0.0708114
0.0241084
0.0235289
0.0268043
0.0301299
0.0324703
0.0347897
0.0376849
0.0411185
0.0449549
0.0491687
0.0538625
0.0591115
0.0650007
0.0716105
0.079012
0.0873368
0.0967333
0.107349
0.119391
0.133005
0.14853
0.166174
0.186096
0.209141
0.235023
0.263966
0.296454
0.331084
0.364877
0.394262
0.414179
0.422891
0.419982
0.413196
0.403296
0.39302
0.383159
0.374293
0.366286
0.360005
0.35435
0.349432
0.346131
0.342126
0.342195
0.336747
0.344838
0.329275
0.359904
0.314796
0.355268
0.0895156
0.0922643
0.0833547
0.0762814
0.0717504
0.0691154
0.0677569
0.0672411
0.0672688
0.0676478
0.0682771
0.06914
0.0702885
0.0718195
0.0738408
0.0764192
0.0794909
0.0825123
0.0807844
0.0551682
0.0199225
0.0169252
0.710777
0.154323
0.0395935
0.0254385
0.0270292
0.0311725
0.0351688
0.0381455
0.0410489
0.0446203
0.0489031
0.0537597
0.05911
0.0650329
0.0716711
0.0791492
0.0876096
0.0971896
0.108038
0.120377
0.134394
0.15046
0.168807
0.18966
0.213816
0.241035
0.271422
0.305154
0.340056
0.372406
0.397885
0.412905
0.417127
0.412219
0.40514
0.395863
0.386939
0.378309
0.370787
0.363885
0.358596
0.353832
0.349622
0.347007
0.343505
0.344145
0.338915
0.347862
0.331716
0.364877
0.31693
0.359369
0.109121
0.11614
0.105208
0.094876
0.0876466
0.08291
0.0798738
0.0779831
0.0768594
0.0762489
0.0759922
0.0760147
0.0763093
0.0769163
0.0778986
0.0793151
0.0811701
0.08337
0.0853772
0.0849696
0.0758027
0.0344731
0.0345938
0.018453
0.17629
0.157946
0.0493133
0.03008
0.0316911
0.0364393
0.0413846
0.0453028
0.0489703
0.0533533
0.0586849
0.064844
0.0717037
0.079288
0.0877934
0.0974579
0.108498
0.121146
0.135583
0.152173
0.171171
0.192879
0.218045
0.24648
0.278056
0.312583
0.346921
0.377013
0.398166
0.409057
0.410093
0.404551
0.397675
0.389409
0.381705
0.374319
0.367958
0.362079
0.357662
0.353702
0.350138
0.348137
0.345096
0.346252
0.34123
0.350966
0.334274
0.369871
0.31912
0.363452
0.136908
0.148541
0.134681
0.119384
0.108249
0.100633
0.0953929
0.0917558
0.0891924
0.0873649
0.0860491
0.0851152
0.0845049
0.0842108
0.0842537
0.0846701
0.0854854
0.086684
0.0881497
0.0894232
0.0895863
0.0851643
0.0663497
0.0364351
0.0501707
3.24775
0.453877
0.324564
0.0460367
0.0349133
0.0369112
0.0423519
0.048845
0.0544013
0.0592205
0.064562
0.071096
0.0788876
0.0878013
0.0977749
0.108962
0.121722
0.136404
0.153453
0.173127
0.195694
0.221766
0.251173
0.283539
0.318294
0.351308
0.378594
0.395664
0.403418
0.402586
0.397202
0.390905
0.383789
0.377226
0.371018
0.365692
0.36075
0.357114
0.353871
0.350906
0.349449
0.346845
0.348465
0.343653
0.354096
0.336934
0.374823
0.321348
0.367539
0.183923
0.208333
0.184152
0.156167
0.137226
0.124656
0.115965
0.109764
0.105217
0.101784
0.0991081
0.0969889
0.0953144
0.0940284
0.0931077
0.0925558
0.0923892
0.0926154
0.0932087
0.0940413
0.0948356
0.0950423
0.0930027
0.0866676
0.0647381
0.0653789
0.0384016
0.0286787
0.174832
0.232042
0.0809631
0.0439375
0.04347
0.0492323
0.0575244
0.0657384
0.0725973
0.0792938
0.0872032
0.0969802
0.108672
0.122141
0.137347
0.154675
0.174617
0.19771
0.224552
0.25483
0.287722
0.322045
0.353158
0.377348
0.391215
0.396731
0.395226
0.39032
0.384922
0.37891
0.373471
0.368304
0.36393
0.359817
0.35688
0.354282
0.351861
0.350897
0.348707
0.350737
0.34615
0.357201
0.339673
0.379671
0.323593
0.371662
0.244511
0.365009
0.359113
0.23604
0.187966
0.162376
0.146235
0.135149
0.127157
0.121143
0.116449
0.112668
0.109573
0.107038
0.10498
0.103359
0.102162
0.101389
0.101029
0.101042
0.101321
0.101706
0.101776
0.100881
0.0975184
0.0894764
0.0659694
0.0372182
0.0404529
0.034505
0.0637298
0.370817
0.423332
0.0655488
0.0532182
0.05734
0.0669623
0.0787856
0.0896028
0.0990816
0.108936
0.121076
0.136342
0.15478
0.175996
0.199871
0.226879
0.257108
0.289888
0.323449
0.352627
0.373936
0.385479
0.389662
0.388275
0.3841
0.379715
0.374756
0.370368
0.366128
0.362611
0.359237
0.356913
0.354897
0.352965
0.35244
0.35064
0.353022
0.348685
0.360233
0.342473
0.384346
0.325834
0.37586
0.212041
0.237682
0.288414
0.367704
0.314132
0.242782
0.20259
0.178144
0.161901
0.150215
0.141441
0.134635
0.129191
0.124737
0.121049
0.118002
0.115529
0.113589
0.112146
0.111161
0.110579
0.110329
0.110275
0.110194
0.109706
0.108238
0.104378
0.0973346
0.0789741
0.0580712
0.039264
0.0462376
2.07706
0.750652
9.73314
0.114103
0.0716773
0.0688594
0.0783144
0.093475
0.110227
0.125375
0.139022
0.154342
0.173949
0.198674
0.227733
0.259249
0.291414
0.322852
0.349568
0.368754
0.379027
0.38264
0.3818
0.37856
0.375259
0.371286
0.367875
0.364434
0.361696
0.35896
0.357184
0.355669
0.354194
0.354047
0.352615
0.35529
0.351237
0.363163
0.345321
0.388806
0.328051
0.380196
0.171889
0.17903
0.188125
0.203268
0.224727
0.250792
0.267927
0.255958
0.229412
0.204496
0.185232
0.170922
0.159963
0.151363
0.144485
0.138913
0.134373
0.130698
0.127754
0.125439
0.123677
0.122405
0.121552
0.121006
0.120618
0.120161
0.119329
0.117565
0.114038
0.107946