/*--------------------------------*- C++ -*----------------------------------*\
| =========                 |                                                 |
| \\      /  F ield         | OpenFOAM: The Open Source CFD Toolbox           |
|  \\    /   O peration     | Version:  2312                                  |
|   \\  /    A nd           | Website:  www.openfoam.com                      |
|    \\/     M anipulation  |                                                 |
\*---------------------------------------------------------------------------*/
FoamFile
{
    version     2.0;
    format      ascii;
    arch        "LSB;label=32;scalar=64";
    class       volScalarField;
    location    "750";
    object      turbulenceProperties:k;
}
// * * * * * * * * * * * * * * * * * * * * * * * * * * * * * * * * * * * * * //

dimensions      [0 2 -2 0 0 0 0];

internalField   nonuniform List<scalar> 
11040
(
0.404328
0.441505
0.0699568
0.0470827
0.27781
0.285078
0.270519
0.247165
0.223035
0.207874
0.193745
0.18149
0.17145
0.163779
0.157648
0.154614
0.154535
0.157586
0.163301
0.171579
0.182714
0.196368
0.212553
0.231525
0.25332
0.278868
0.30746
0.335073
0.359205
0.376981
0.385353
0.381625
0.366357
0.3442
0.325054
0.260741
0.138445
0.0849848
0.0361463
0.110404
0.221488
0.0337497
0.0698847
0.236177
0.425637
0.815371
0.270456
0.0841255
0.0287371
0.0073584
0.00588851
0.0138997
0.0184395
0.0214294
0.0235636
0.0249612
0.0263103
0.0279898
0.0299673
0.0319841
0.0340442
0.0362036
0.0385798
0.0405357
0.0413706
0.0408754
0.0397947
0.0385352
0.0361229
0.0325835
0.0284773
0.0250908
0.0241788
0.0245008
0.0273933
0.0336325
0.0434044
0.0572553
0.0756417
0.120796
0.140734
0.549679
0.0207829
0.0185884
0.0413924
0.178973
0.949493
1.27334
0.657628
0.249043
0.11739
0.0703909
0.0398173
0.0228649
0.011246
0.00351302
0.00313089
0.00666357
0.00925498
0.0111987
0.0126169
0.01359
0.0142345
0.0145595
0.0142007
0.0130175
0.011278
0.00934782
0.00736587
0.00511925
0.00229238
0.00335863
0.0103059
0.0206661
0.0347871
0.0530608
0.0762207
0.105715
0.142976
0.186195
0.278925
0.369218
0.532909
0.0149284
0.0127951
0.010565
0.0165717
0.227712
1.10162
1.64402
1.10193
0.460095
0.247713
0.147456
0.0994753
0.0702545
0.0502183
0.0376139
0.0287324
0.0232728
0.0197238
0.0177514
0.0170294
0.0171453
0.0180743
0.0199604
0.0226495
0.0255025
0.0279883
0.0296732
0.0302198
0.0296313
0.0290539
0.0317939
0.0420796
0.0615948
0.0908374
0.130392
0.182396
0.249127
0.326773
0.46623
0.647869
0.583335
0.0111221
0.0100339
0.0106941
0.00532613
0.00720198
0.202956
1.04831
1.85877
1.59729
0.800905
0.424159
0.256869
0.178307
0.129212
0.100649
0.0804779
0.0681712
0.0599901
0.0551351
0.052747
0.05187
0.052163
0.0537126
0.0564459
0.0595547
0.0623648
0.0642612
0.0646764
0.0633988
0.0612598
0.0614551
0.0704577
0.0946333
0.136142
0.195124
0.27366
0.374641
0.494029
0.670548
0.947201
0.771957
0.00802626
0.00737163
0.0071782
0.00793818
0.00242776
0.00177329
0.137254
0.839544
1.88871
2.03978
1.32269
0.675584
0.41956
0.282841
0.210178
0.163252
0.135497
0.117494
0.106358
0.100363
0.097333
0.0963929
0.0973491
0.100127
0.103692
0.107152
0.109553
0.109853
0.107303
0.102227
0.0977314
0.102535
0.128987
0.18302
0.26408
0.373022
0.512541
0.678441
0.886259
1.23833
1.05381
0.00579786
0.00554171
0.00520471
0.00554646
0.00572421
0.00108778
5.0751e-05
0.0643872
0.562989
1.6469
2.29751
1.9292
1.12482
0.640715
0.431115
0.317225
0.248928
0.206062
0.179669
0.165148
0.157268
0.153961
0.154089
0.157233
0.161832
0.166572
0.169994
0.170375
0.16611
0.156666
0.144362
0.139021
0.160527
0.223537
0.327062
0.468359
0.648022
0.860463
1.09835
1.49184
1.36677
0.00423186
0.00413851
0.00407641
0.00391775
0.0042414
0.00443684
0.000201413
2.72223e-06
0.0200488
0.302863
1.18736
2.23971
2.42177
1.76908
1.02462
0.643011
0.460434
0.360249
0.297957
0.261082
0.240233
0.231086
0.228861
0.23214
0.238255
0.245127
0.250524
0.251743
0.245824
0.230949
0.207573
0.183801
0.185368
0.245513
0.367408
0.539921
0.757796
1.01147
1.27821
1.67063
1.64034
0.00312623
0.00308252
0.00308884
0.00306358
0.00294503
0.00332863
0.00317698
0.000427499
0.000396666
0.000834602
0.116092
0.681539
1.77729
2.58348
2.41786
1.66136
0.998938
0.671296
0.507885
0.417759
0.365391
0.340233
0.330671
0.332015
0.339321
0.348605
0.35653
0.35941
0.352911
0.332937
0.29697
0.247831
0.207101
0.233829
0.360488
0.55901
0.809317
1.09458
1.38342
1.743
1.7997
0.00232214
0.00230184
0.0023189
0.00234438
0.00232513
0.00225518
0.00253627
0.00227004
0.000728974
0.000100824
0.00182811
0.0259898
0.294948
1.10593
2.22985
2.77005
2.40275
1.63467
1.03079
0.728152
0.581111
0.509778
0.477232
0.468417
0.473406
0.485269
0.49785
0.504433
0.498615
0.474715
0.42758
0.353367
0.257251
0.187969
0.274503
0.489849
0.765019
1.07023
1.36882
1.67938
1.79212
0.0017323
0.00172289
0.00174043
0.00176803
0.00179325
0.00177713
0.00175396
0.00187506
0.00185692
0.000973866
6.69603e-05
0.000343504
0.000289011
0.0792844
0.503528
1.46281
2.52422
2.88641
2.43998
1.69554
1.12238
0.840521
0.722355
0.674111
0.659974
0.665406
0.679532
0.691868
0.692888
0.673019
0.62275
0.533725
0.401189
0.22616
0.0811071
0.297841
0.594916
0.909696
1.20342
1.45897
1.58902
0.0012949
0.00129112
0.00130375
0.00132877
0.00135511
0.0013761
0.001372
0.00135885
0.00140471
0.00146012
0.00108218
3.32163e-05
2.01958e-05
0.00137682
0.0100345
0.149962
0.685111
1.7002
2.69765
2.99532
2.56025
1.88732
1.37088
1.08915
0.968308
0.932482
0.932067
0.941003
0.945531
0.933416
0.89302
0.81358
0.687817
0.514916
0.310361
0.197564
0.390388
0.673819
0.935626
1.12842
1.22829
0.000968473
0.000967698
0.000976178
0.000995312
0.00101919
0.00104193
0.00106001
0.00106475
0.00105749
0.00107083
0.00113244
0.000977313
0.000234558
2.37425e-05
0.000145602
0.00280797
0.0206113
0.203325
0.783908
1.79812
2.77887
3.13269
2.87041
2.37297
1.90336
1.57298
1.38995
1.31482
1.29754
1.29317
1.27221
1.21898
1.12788
1.00358
0.864933
0.751741
0.722607
0.79975
0.925252
1.00969
1.00208
0.000723735
0.000724568
0.000730041
0.000743855
0.000763184
0.00078377
0.000802996
0.000819272
0.000828288
0.000826905
0.000828252
0.000871747
0.000841836
0.00048506
7.67873e-06
3.56674e-06
0.000349439
0.00419663
0.0277958
0.21787
0.780771
1.71446
2.65099
3.21302
3.30611
3.09448
2.76745
2.43822
2.16499
1.96884
1.84434
1.76918
1.7156
1.66409
1.61204
1.56938
1.55174
1.56587
1.60564
1.63501
1.53797
0.000539644
0.000541295
0.000544802
0.000554604
0.000569385
0.000586339
0.00060364
0.000620052
0.000634593
0.000645314
0.000648124
0.000649636
0.000671046
0.000678091
0.000593489
0.000172609
1.98501e-05
3.68519e-07
0.000592773
0.00426746
0.025219
0.175524
0.575726
1.26548
2.11415
2.89299
3.42756
3.67953
3.7125
3.6057
3.41515
3.18249
2.94723
2.74614
2.60682
2.54114
2.54739
2.60293
2.67988
2.75885
2.69631
0.000401036
0.00040292
0.00040517
0.000412049
0.000423062
0.000436267
0.000450443
0.000464909
0.000478912
0.000491671
0.000502276
0.000508159
0.00051215
0.00051765
0.000541942
0.000510058
0.00039602
3.18958e-05
7.09333e-06
9.12255e-08
0.000653531
0.00282712
0.00853994
0.0699563
0.256486
0.63219
1.20747
1.92152
2.66726
3.34332
3.88555
4.2678
4.49166
4.57689
4.5578
4.47394
4.36652
4.26353
4.19229
4.18903
4.11626
0.000297558
0.00029931
0.000300804
0.000305662
0.000313759
0.000323716
0.000334756
0.000346446
0.000358368
0.000369988
0.000380823
0.000390354
0.000397866
0.000402318
0.000408166
0.000417716
0.00043254
0.000382343
0.000236875
8.41713e-06
3.85641e-06
6.60105e-08
0.00018483
0.00138628
0.00345463
0.00733618
0.0489618
0.161383
0.386029
0.749438
1.25339
1.87314
2.56452
3.27711
3.96194
4.57338
5.08307
5.47661
5.7622
5.99046
6.05973
0.000222908
0.000224455
0.000225584
0.000229204
0.000235303
0.000242894
0.000251445
0.000260697
0.000270354
0.000280099
0.000289601
0.000298584
0.000306823
0.000313965
0.000319295
0.000323886
0.000329993
0.000342207
0.000344434
0.00029909
0.000167358
6.22849e-06
3.23305e-06
2.37144e-07
0
0.000144044
0.00109928
0.00183227
0.000382154
0.00781256
0.038493
0.114322
0.258904
0.495908
0.840771
1.296
1.85148
2.49082
3.18218
3.91023
4.56736
0.000170111
0.00017147
0.00017239
0.000175197
0.000179908
0.000185805
0.000192528
0.000199924
0.000207797
0.000215897
0.000224002
0.000231897
0.000239405
0.000246414
0.000252698
0.000258129
0.00026222
0.000267083
0.0002735
0.000282674
0.000280739
0.000237285
0.000160706
2.27359e-05
4.65522e-06
1.02188e-06
1.11732e-07
0
4.36479e-06
0.000155546
0.000874159
0.00136667
0.00131816
0.00120149
0.00765809
0.0304036
0.081827
0.176996
0.329957
0.554796
0.855035
0.000132205
0.000133354
0.000134114
0.000136329
0.000140018
0.000144647
0.000149962
0.000155863
0.000162222
0.000168865
0.000175638
0.000182404
0.000189018
0.000195352
0.000201301
0.0002068
0.000211686
0.000215939
0.000219514
0.000223958
0.000230377
0.000236275
0.000235577
0.000210214
0.000162969
0.000101489
1.20848e-05
3.04808e-06
8.4187e-07
4.63266e-07
3.90233e-08
0
0
1.98268e-05
0.000162583
0.000706987
0.00118132
0.000983492
0.000521319
2.96369e-05
0.00452943
0.000104138
0.000105089
0.000105726
0.000107499
0.00011042
0.000114091
0.000118328
0.000123057
0.000128186
0.000133594
0.000139166
0.000144814
0.000150442
0.00015595
0.00016125
0.000166268
0.000170954
0.000175256
0.000179077
0.000182415
0.000185556
0.000189708
0.000194427
0.000200462
0.000200781
0.000195059
0.000174156
0.000138935
9.76044e-05
5.63993e-05
5.14146e-06
1.84148e-06
6.44955e-07
4.25937e-07
2.31519e-07
3.68591e-08
0
0
0
2.08165e-07
6.72171e-05
8.29177e-05
8.36974e-05
8.42405e-05
8.56775e-05
8.80144e-05
9.0951e-05
9.43525e-05
9.81626e-05
0.00010231
0.000106707
0.000111267
0.000115927
0.000120618
0.000125269
0.000129814
0.000134196
0.000138364
0.000142278
0.000145914
0.000149251
0.000152146
0.000154749
0.000157235
0.000160295
0.000163981
0.000167554
0.000171557
0.000172268
0.000168154
0.000160518
0.000144246
0.00012077
9.26709e-05
6.32743e-05
3.62347e-05
6.19058e-06
1.55681e-06
4.8406e-07
3.75431e-07
2.74056e-07
1.79814e-07
6.65878e-05
6.72239e-05
6.76926e-05
6.88676e-05
7.07506e-05
7.31157e-05
7.58617e-05
7.89436e-05
8.23052e-05
8.58792e-05
8.96014e-05
9.34227e-05
9.72954e-05
0.000101163
0.000104976
0.000108689
0.000112264
0.000115664
0.000118861
0.000121852
0.000124553
0.000126939
0.000129062
0.000130899
0.000132671
0.000134465
0.000136635
0.000139191
0.000141794
0.000143951
0.000146193
0.00014658
0.000144555
0.000139854
0.000133141
0.000122483
0.000108284
9.13411e-05
7.35967e-05
5.58712e-05
3.87193e-05
5.38471e-05
5.43652e-05
5.47735e-05
5.57416e-05
5.72685e-05
5.91844e-05
6.14122e-05
6.39144e-05
6.66457e-05
6.95536e-05
7.25888e-05
7.57121e-05
7.88874e-05
8.20719e-05
8.52256e-05
8.83141e-05
9.1306e-05
9.4172e-05
9.68851e-05
9.94401e-05
0.000101767
0.000103849
0.00010573
0.000107353
0.000108737
0.000109929
0.000110967
0.000111939
0.000112946
0.000113984
0.000115177
0.0001165
0.000117828
0.000119025
0.000119914
0.00012075
0.000120913
0.000120065
0.000118144
0.000114959
0.000111539
4.3792e-05
4.42142e-05
4.4572e-05
4.53744e-05
4.66191e-05
4.81786e-05
4.99932e-05
5.20309e-05
5.42545e-05
5.66225e-05
5.90959e-05
6.16435e-05
6.42366e-05
6.6842e-05
6.94275e-05
7.19654e-05
7.44301e-05
7.67976e-05
7.90445e-05
8.11653e-05
8.30967e-05
8.48264e-05
8.63896e-05
8.7743e-05
8.88964e-05
8.98721e-05
9.0679e-05
9.1324e-05
9.18242e-05
9.22028e-05
9.24768e-05
9.26828e-05
9.28498e-05
9.3013e-05
9.31699e-05
9.33456e-05
9.35319e-05
9.37249e-05
9.39122e-05
9.3948e-05
9.40978e-05
3.57814e-05
3.6126e-05
3.64414e-05
3.71102e-05
3.81298e-05
3.94048e-05
4.0888e-05
4.25521e-05
4.43661e-05
4.62964e-05
4.83119e-05
5.03874e-05
5.2499e-05
5.46206e-05
5.67264e-05
5.87936e-05
6.08011e-05
6.27293e-05
6.4558e-05
6.62821e-05
6.78467e-05
6.92431e-05
7.05015e-05
7.15827e-05
7.24938e-05
7.32531e-05
7.38709e-05
7.43531e-05
7.47054e-05
7.49358e-05
7.50505e-05
7.50573e-05
7.49622e-05
7.47791e-05
7.45225e-05
7.41966e-05
7.38087e-05
7.33795e-05
7.29385e-05
7.24531e-05
7.20349e-05
2.93487e-05
2.96312e-05
2.99105e-05
3.04709e-05
3.13101e-05
3.23569e-05
3.35734e-05
3.49359e-05
3.64182e-05
3.79933e-05
3.96356e-05
4.13248e-05
4.3041e-05
4.47628e-05
4.64694e-05
4.81423e-05
4.9764e-05
5.1318e-05
5.27876e-05
5.4168e-05
5.54129e-05
5.65167e-05
5.75073e-05
5.83502e-05
5.90494e-05
5.96196e-05
6.00696e-05
6.04051e-05
6.06326e-05
6.07593e-05
6.07921e-05
6.07382e-05
6.06017e-05
6.0391e-05
6.01144e-05
5.9774e-05
5.93721e-05
5.89178e-05
5.84303e-05
5.78807e-05
5.73842e-05
2.41489e-05
2.43816e-05
2.46303e-05
2.51026e-05
2.57968e-05
2.66599e-05
2.76611e-05
2.87794e-05
2.9993e-05
3.12797e-05
3.26184e-05
3.39924e-05
3.53851e-05
3.67788e-05
3.81567e-05
3.95036e-05
4.0805e-05
4.20472e-05
4.32165e-05
4.43087e-05
4.5285e-05
4.61429e-05
4.69083e-05
4.75517e-05
4.80755e-05
4.84918e-05
4.88082e-05
4.90295e-05
4.91612e-05
4.92097e-05
4.91816e-05
4.90834e-05
4.89195e-05
4.86977e-05
4.84252e-05
4.81045e-05
4.7738e-05
4.73331e-05
4.69044e-05
4.64309e-05
4.59904e-05
1.99216e-05
2.0115e-05
2.03378e-05
2.07385e-05
2.1316e-05
2.20308e-05
2.28576e-05
2.3778e-05
2.47735e-05
2.58257e-05
2.69174e-05
2.80345e-05
2.91636e-05
3.02895e-05
3.13987e-05
3.24786e-05
3.35176e-05
3.45042e-05
3.54272e-05
3.62831e-05
3.70399e-05
3.76972e-05
3.82794e-05
3.87614e-05
3.91449e-05
3.94401e-05
3.96535e-05
3.97893e-05
3.98521e-05
3.98477e-05
3.97815e-05
3.96591e-05
3.94846e-05
3.92642e-05
3.90042e-05
3.87067e-05
3.83742e-05
3.80128e-05
3.76329e-05
3.72255e-05
3.68215e-05
1.64684e-05
1.66311e-05
1.68321e-05
1.71747e-05
1.7658e-05
1.82528e-05
1.89382e-05
1.96978e-05
2.0516e-05
2.13777e-05
2.22687e-05
2.31769e-05
2.40914e-05
2.49997e-05
2.58904e-05
2.67534e-05
2.75793e-05
2.83587e-05
2.90824e-05
2.97478e-05
3.03285e-05
3.0826e-05
3.12627e-05
3.16176e-05
3.18919e-05
3.20943e-05
3.22307e-05
3.23044e-05
3.23197e-05
3.22812e-05
3.21936e-05
3.20617e-05
3.18889e-05
3.16804e-05
3.14412e-05
3.11734e-05
3.08791e-05
3.0563e-05
3.02324e-05
2.98873e-05
2.95214e-05
1.36359e-05
1.3775e-05
1.39579e-05
1.42531e-05
1.46603e-05
1.51579e-05
1.57284e-05
1.63573e-05
1.70315e-05
1.77384e-05
1.84662e-05
1.92048e-05
1.99453e-05
2.06772e-05
2.13911e-05
2.20788e-05
2.27329e-05
2.33458e-05
2.39099e-05
2.44235e-05
2.48651e-05
2.52372e-05
2.55601e-05
2.58166e-05
2.60077e-05
2.61408e-05
2.62208e-05
2.62509e-05
2.62345e-05
2.61756e-05
2.60782e-05
2.59462e-05
2.57825e-05
2.55914e-05
2.53769e-05
2.51406e-05
2.48844e-05
2.46123e-05
2.43286e-05
2.40404e-05
2.37126e-05
1.13046e-05
1.14258e-05
1.15935e-05
1.18502e-05
1.21959e-05
1.26146e-05
1.30915e-05
1.36142e-05
1.41713e-05
1.47525e-05
1.53479e-05
1.59491e-05
1.65486e-05
1.71381e-05
1.77095e-05
1.82564e-05
1.87728e-05
1.92529e-05
1.96905e-05
2.00845e-05
2.04175e-05
2.06926e-05
2.09283e-05
2.11103e-05
2.12395e-05
2.13221e-05
2.13626e-05
2.13636e-05
2.13279e-05
2.12589e-05
2.11598e-05
2.1034e-05
2.08838e-05
2.07126e-05
2.05236e-05
2.03183e-05
2.00981e-05
1.98662e-05
1.96251e-05
1.93868e-05
1.9094e-05
9.38009e-06
9.48817e-06
9.64314e-06
9.86843e-06
1.01642e-05
1.05188e-05
1.09196e-05
1.13558e-05
1.18178e-05
1.2297e-05
1.27851e-05
1.3275e-05
1.37607e-05
1.42354e-05
1.46924e-05
1.51266e-05
1.55334e-05
1.59081e-05
1.6246e-05
1.65464e-05
1.67954e-05
1.69963e-05
1.71655e-05
1.72915e-05
1.73749e-05
1.74212e-05
1.74342e-05
1.74161e-05
1.73693e-05
1.72966e-05
1.72007e-05
1.70843e-05
1.69492e-05
1.67983e-05
1.66341e-05
1.64576e-05
1.62703e-05
1.60745e-05
1.58713e-05
1.56759e-05
1.54161e-05
7.78766e-06
7.88622e-06
8.03048e-06
8.23003e-06
8.48524e-06
8.78763e-06
9.1265e-06
9.49234e-06
9.87712e-06
1.02735e-05
1.06748e-05
1.10749e-05
1.14689e-05
1.18514e-05
1.2217e-05
1.25614e-05
1.28813e-05
1.31732e-05
1.34334e-05
1.36614e-05
1.38465e-05
1.39917e-05
1.41118e-05
1.41972e-05
1.42484e-05
1.42702e-05
1.42658e-05
1.4237e-05
1.41859e-05
1.41147e-05
1.40255e-05
1.39207e-05
1.38017e-05
1.36707e-05
1.35297e-05
1.33796e-05
1.32215e-05
1.30574e-05
1.28871e-05
1.27281e-05
1.24975e-05
6.46742e-06
6.55926e-06
6.69437e-06
6.87276e-06
7.09496e-06
7.35481e-06
7.64321e-06
7.95185e-06
8.27394e-06
8.60333e-06
8.9344e-06
9.26215e-06
9.58245e-06
9.89109e-06
1.01837e-05
1.04568e-05
1.0708e-05
1.09347e-05
1.11341e-05
1.1306e-05
1.1442e-05
1.15449e-05
1.16278e-05
1.16828e-05
1.17105e-05
1.1715e-05
1.16989e-05
1.16639e-05
1.16116e-05
1.15439e-05
1.14626e-05
1.13694e-05
1.12656e-05
1.11529e-05
1.10329e-05
1.09062e-05
1.07738e-05
1.06372e-05
1.04957e-05
1.0367e-05
1.0165e-05
5.37119e-06
5.45837e-06
5.58552e-06
5.74641e-06
5.94167e-06
6.16684e-06
6.41409e-06
6.67624e-06
6.94745e-06
7.22262e-06
7.49702e-06
7.76656e-06
8.02779e-06
8.27751e-06
8.51229e-06
8.72935e-06
8.92698e-06
9.10335e-06
9.25652e-06
9.38652e-06
9.48681e-06
9.55994e-06
9.61724e-06
9.65221e-06
9.66543e-06
9.66027e-06
9.63902e-06
9.60301e-06
9.55358e-06
9.49222e-06
9.42041e-06
9.33952e-06
9.25062e-06
9.15497e-06
9.05391e-06
8.94792e-06
8.83776e-06
8.72458e-06
8.60745e-06
8.50407e-06
8.3254e-06
4.45997e-06
4.54397e-06
4.66408e-06
4.8104e-06
4.9836e-06
5.1804e-06
5.39408e-06
5.61836e-06
5.84828e-06
6.07952e-06
6.30818e-06
6.53087e-06
6.74478e-06
6.94739e-06
7.13606e-06
7.30852e-06
7.46361e-06
7.6001e-06
7.71662e-06
7.81331e-06
7.88522e-06
7.93465e-06
7.97147e-06
7.99041e-06
7.99206e-06
7.97931e-06
7.95412e-06
7.91764e-06
7.87097e-06
7.81535e-06
7.75195e-06
7.68189e-06
7.606e-06
7.52526e-06
7.4407e-06
7.35265e-06
7.26181e-06
7.16888e-06
7.0732e-06
6.9899e-06
6.83793e-06
3.70214e-06
3.78391e-06
3.8977e-06
4.03185e-06
4.18691e-06
4.3604e-06
4.54649e-06
4.73978e-06
4.93602e-06
5.13161e-06
5.3233e-06
5.50837e-06
5.68455e-06
5.85003e-06
6.00284e-06
6.14126e-06
6.26456e-06
6.37204e-06
6.46283e-06
6.53717e-06
6.59135e-06
6.62707e-06
6.65286e-06
6.66431e-06
6.66189e-06
6.64803e-06
6.62435e-06
6.59176e-06
6.55116e-06
6.50354e-06
6.44987e-06
6.39102e-06
6.3277e-06
6.26066e-06
6.19077e-06
6.1183e-06
6.0438e-06
5.96774e-06
5.88947e-06
5.82381e-06
5.68858e-06
3.07189e-06
3.15192e-06
3.25991e-06
3.3838e-06
3.5239e-06
3.67808e-06
3.84131e-06
4.00896e-06
4.1775e-06
4.34396e-06
4.50562e-06
4.66024e-06
4.80592e-06
4.94122e-06
5.06459e-06
5.1747e-06
5.27107e-06
5.35337e-06
5.42112e-06
5.47465e-06
5.51136e-06
5.53292e-06
5.54667e-06
5.54907e-06
5.54065e-06
5.52348e-06
5.49897e-06
5.46788e-06
5.43095e-06
5.38898e-06
5.34271e-06
5.29284e-06
5.23992e-06
5.18448e-06
5.12718e-06
5.06814e-06
5.00798e-06
4.94663e-06
4.88448e-06
4.8307e-06
4.72378e-06
2.54785e-06
2.62636e-06
2.72893e-06
2.844e-06
2.97143e-06
3.10936e-06
3.25343e-06
3.39969e-06
3.54522e-06
3.68766e-06
3.82491e-06
3.95522e-06
4.07721e-06
4.18997e-06
4.2926e-06
4.38411e-06
4.46423e-06
4.53278e-06
4.58947e-06
4.63457e-06
4.6661e-06
4.68488e-06
4.69727e-06
4.70024e-06
4.69424e-06
4.68098e-06
4.66161e-06
4.63677e-06
4.60708e-06
4.57321e-06
4.5358e-06
4.49546e-06
4.45263e-06
4.40777e-06
4.36151e-06
4.31398e-06
4.26561e-06
4.21635e-06
4.16618e-06
4.12618e-06
4.02596e-06
2.11222e-06
2.18961e-06
2.28734e-06
2.39457e-06
2.51069e-06
2.63422e-06
2.76166e-06
2.88977e-06
3.01609e-06
3.13861e-06
3.25564e-06
3.36573e-06
3.46757e-06
3.5599e-06
3.64171e-06
3.71246e-06
3.77234e-06
3.82172e-06
3.86082e-06
3.88998e-06
3.9081e-06
3.91643e-06
3.9201e-06
3.91673e-06
3.90676e-06
3.89163e-06
3.87231e-06
3.84931e-06
3.82307e-06
3.79412e-06
3.76291e-06
3.72984e-06
3.69526e-06
3.65946e-06
3.62285e-06
3.58537e-06
3.54771e-06
3.509e-06
3.47147e-06
3.43527e-06
3.37174e-06
1.75136e-06
1.82798e-06
1.92159e-06
2.02193e-06
2.12756e-06
2.23743e-06
2.34931e-06
2.46108e-06
2.57096e-06
2.67721e-06
2.77821e-06
2.87292e-06
2.96104e-06
3.04289e-06
3.11832e-06
3.18607e-06
3.24511e-06
3.29512e-06
3.33607e-06
3.36839e-06
3.39118e-06
3.40452e-06
3.41328e-06
3.41546e-06
3.41152e-06
3.40271e-06
3.3899e-06
3.37355e-06
3.35414e-06
3.33216e-06
3.30808e-06
3.28234e-06
3.25526e-06
3.22714e-06
3.19846e-06
3.16933e-06
3.14002e-06
3.11037e-06
3.08034e-06
3.0596e-06
2.98374e-06
1.45571e-06
1.53055e-06
1.6193e-06
1.71271e-06
1.80863e-06
1.90611e-06
2.00359e-06
2.09983e-06
2.19416e-06
2.28579e-06
2.37332e-06
2.45461e-06
2.52714e-06
2.58881e-06
2.63935e-06
2.68092e-06
2.71584e-06
2.74487e-06
2.76805e-06
2.78515e-06
2.79569e-06
2.80067e-06
2.80305e-06
2.80119e-06
2.79536e-06
2.78652e-06
2.77529e-06
2.76196e-06
2.74681e-06
2.73014e-06
2.71222e-06
2.69325e-06
2.67347e-06
2.65299e-06
2.63206e-06
2.61051e-06
2.58915e-06
2.56632e-06
2.54676e-06
2.51828e-06
2.49984e-06
1.21513e-06
1.28626e-06
1.36722e-06
1.45074e-06
1.53551e-06
1.62153e-06
1.70753e-06
1.79183e-06
1.87308e-06
1.95079e-06
2.02556e-06
2.09898e-06
2.17263e-06
2.2472e-06
2.32051e-06
2.38661e-06
2.4415e-06
2.486e-06
2.52154e-06
2.54962e-06
2.57003e-06
2.58245e-06
2.59094e-06
2.59435e-06
2.59328e-06
2.5887e-06
2.58131e-06
2.57153e-06
2.55978e-06
2.54649e-06
2.53207e-06
2.51689e-06
2.50121e-06
2.48528e-06
2.4695e-06
2.45409e-06
2.43897e-06
2.42459e-06
2.40908e-06
2.4074e-06
2.34037e-06
1.0145e-06
1.08363e-06
1.15684e-06
1.22801e-06
1.29762e-06
1.36817e-06
1.44086e-06
1.51541e-06
1.59014e-06
1.66174e-06
1.7258e-06
1.7781e-06
1.81632e-06
1.84088e-06
1.85668e-06
1.87379e-06
1.8967e-06
1.92137e-06
1.94478e-06
1.96506e-06
1.98179e-06
1.99566e-06
2.00751e-06
2.0163e-06
2.02213e-06
2.02558e-06
2.02705e-06
2.02674e-06
2.0248e-06
2.02143e-06
2.01679e-06
2.011e-06
2.0042e-06
1.99643e-06
1.98784e-06
1.97815e-06
1.96843e-06
1.95596e-06
1.94899e-06
1.91873e-06
1.9495e-06
8.4556e-07
9.206e-07
9.94916e-07
1.06062e-06
1.11761e-06
1.16951e-06
1.21967e-06
1.27119e-06
1.32718e-06
1.39065e-06
1.46396e-06
1.54812e-06
1.64163e-06
1.74089e-06
1.83772e-06
1.91554e-06
1.96922e-06
2.00926e-06
2.04017e-06
2.0641e-06
2.0807e-06
2.09046e-06
2.09633e-06
2.09795e-06
2.09608e-06
2.0916e-06
2.08512e-06
2.07712e-06
2.06807e-06
2.05842e-06
2.04859e-06
2.039e-06
2.02989e-06
2.02158e-06
2.01444e-06
2.00893e-06
2.00446e-06
2.00292e-06
1.9981e-06
2.01974e-06
1.94204e-06
7.2283e-07
7.96283e-07
8.68349e-07
9.34566e-07
9.93306e-07
1.0444e-06
1.0869e-06
1.11992e-06
1.14357e-06
1.1591e-06
1.16855e-06
1.17427e-06
1.17866e-06
1.18224e-06
1.18717e-06
1.20726e-06
1.24309e-06
1.28286e-06
1.32269e-06
1.36013e-06
1.39462e-06
1.42624e-06
1.4554e-06
1.48182e-06
1.50528e-06
1.52602e-06
1.54422e-06
1.55994e-06
1.57322e-06
1.58407e-06
1.59252e-06
1.59853e-06
1.60213e-06
1.60318e-06
1.60176e-06
1.59749e-06
1.59146e-06
1.58009e-06
1.57441e-06
1.53152e-06
1.59246e-06
7.83489e-07
8.7953e-07
9.30477e-07
9.39453e-07
9.25681e-07
9.15667e-07
9.32563e-07
9.86864e-07
1.07406e-06
1.18083e-06
1.29287e-06
1.39906e-06
1.49226e-06
1.57031e-06
1.63116e-06
1.66068e-06
1.66198e-06
1.65038e-06
1.63306e-06
1.61285e-06
1.58864e-06
1.56661e-06
1.54269e-06
1.51826e-06
1.49409e-06
1.47038e-06
1.44722e-06
1.42474e-06
1.40304e-06
1.38215e-06
1.36205e-06
1.34272e-06
1.32399e-06
1.30572e-06
1.28797e-06
1.27101e-06
1.25353e-06
1.23776e-06
1.2162e-06
1.21982e-06
1.12828e-06
6.73254
7.59606
6.78174
5.49629
4.09556
2.82633
1.77522
0.948706
0.366856
0.0714729
0.0296384
0.000927885
0.000160139
1.4694e-05
0.000269817
0.000245175
0.000198541
0.000176173
0.000156299
0.0001366
0.000119749
0.000104544
9.12124e-05
7.93943e-05
6.8956e-05
5.97262e-05
5.15699e-05
4.43564e-05
3.79952e-05
3.24311e-05
2.75405e-05
2.33274e-05
1.96705e-05
1.65431e-05
1.38802e-05
1.16103e-05
9.69431e-06
8.07811e-06
6.72219e-06
5.58599e-06
4.63929e-06
3.85121e-06
3.19823e-06
2.65579e-06
2.20633e-06
1.83528e-06
1.52533e-06
1.26811e-06
1.05474e-06
8.75873e-07
7.24068e-07
5.97683e-07
4.90822e-07
4.03029e-07
3.33005e-07
2.72474e-07
2.41493e-07
2.19583e-07
2.23917e-07
2.33682e-07
2.58918e-07
2.79832e-07
3.08012e-07
3.33976e-07
3.57657e-07
3.80141e-07
4.00436e-07
4.14264e-07
4.3466e-07
4.32432e-07
4.65623e-07
4.29911e-07
5.09454e-07
4.38388e-07
6.4961
10.321
9.89343
8.24864
6.39804
4.67865
3.2074
1.9953
1.04667
0.388976
0.0714502
0.0254704
0.00165861
0.000112707
1.71504e-07
0.000239221
0.000224431
0.000177667
0.000156039
0.000137795
0.000120704
0.000105187
9.16418e-05
7.96624e-05
6.9097e-05
5.97771e-05
5.15575e-05
4.43062e-05
3.79154e-05
3.23386e-05
2.74388e-05
2.32183e-05
1.95629e-05
1.64319e-05
1.37725e-05
1.15068e-05
9.59362e-06
7.98171e-06
6.62936e-06
5.4968e-06
4.55379e-06
3.76818e-06
3.11944e-06
2.58006e-06
2.13365e-06
1.76796e-06
1.46033e-06
1.20691e-06
9.99107e-07
8.24588e-07
6.7701e-07
5.56505e-07
4.55133e-07
3.74341e-07
3.11086e-07
2.58624e-07
2.37334e-07
2.23089e-07
2.33505e-07
2.45758e-07
2.7155e-07
2.9184e-07
3.1814e-07
3.42499e-07
3.63937e-07
3.84216e-07
4.02741e-07
4.14328e-07
4.33538e-07
4.28445e-07
4.62432e-07
4.21128e-07
5.05561e-07
4.28602e-07
4.5046
10.0927
11.6224
10.5982
8.7461
6.79442
5.00403
3.44493
2.13641
1.10561
0.399136
0.0728634
0.0224893
0.00124534
1.61282e-06
1.78414e-05
0.000177152
0.000206546
0.000160837
0.000137881
0.000121803
0.000106318
9.2377e-05
8.01681e-05
6.94266e-05
5.9956e-05
5.16359e-05
4.43171e-05
3.78745e-05
3.22556e-05
2.73479e-05
2.31044e-05
1.94516e-05
1.63137e-05
1.36513e-05
1.13898e-05
9.47797e-06
7.86992e-06
6.52143e-06
5.39235e-06
4.45317e-06
3.67131e-06
3.02645e-06
2.49112e-06
2.04877e-06
1.68803e-06
1.38414e-06
1.13659e-06
9.3464e-07
7.64928e-07
6.24086e-07
5.10179e-07
4.16326e-07
3.43605e-07
2.87655e-07
2.50307e-07
2.35936e-07
2.31752e-07
2.45139e-07
2.60967e-07
2.84742e-07
3.06175e-07
3.29307e-07
3.51293e-07
3.70771e-07
3.88373e-07
4.0502e-07
4.14135e-07
4.31962e-07
4.24056e-07
4.58379e-07
4.11598e-07
5.00567e-07
4.1801e-07
3.15255
8.69229
11.8422
12.0778
10.7864
8.95186
7.04378
5.24787
3.63658
2.25598
1.16127
0.417518
0.0786058
0.0207035
0.00549543
0
1.3089e-05
0.000138579
0.000183768
0.000146148
0.000121874
0.000107223
9.35043e-05
8.08537e-05
6.98453e-05
6.02444e-05
5.18093e-05
4.44003e-05
3.78966e-05
3.22291e-05
2.72972e-05
2.30267e-05
1.93626e-05
1.62151e-05
1.35458e-05
1.12839e-05
9.37147e-06
7.76479e-06
6.41837e-06
5.29207e-06
4.35532e-06
3.57682e-06
2.93541e-06
2.40388e-06
1.96585e-06
1.60923e-06
1.31017e-06
1.06832e-06
8.71736e-07
7.07512e-07
5.73679e-07
4.66714e-07
3.80937e-07
3.16819e-07
2.69846e-07
2.45706e-07
2.37883e-07
2.41431e-07
2.56643e-07
2.7457e-07
2.96479e-07
3.17962e-07
3.38398e-07
3.57999e-07
3.75672e-07
3.9077e-07
4.05822e-07
4.12643e-07
4.29252e-07
4.1871e-07
4.53643e-07
4.01544e-07
4.95151e-07
4.07559e-07
2.4139
7.11424
10.9696
12.4791
12.1455
10.82
9.08696
7.25389
5.47186
3.82579
2.38886
1.24016
0.4579
0.0922717
0.0200767
0.00607882
2.32346e-05
9.82979e-06
8.34164e-05
0.000160143
0.000132432
0.00010644
9.30645e-05
8.16652e-05
7.04938e-05
6.05647e-05
5.20002e-05
4.45329e-05
3.79708e-05
3.22465e-05
2.72771e-05
2.298e-05
1.9297e-05
1.61371e-05
1.34585e-05
1.1192e-05
9.27731e-06
7.67041e-06
6.32418e-06
5.19951e-06
4.26443e-06
3.48829e-06
2.84979e-06
2.32162e-06
1.8876e-06
1.53501e-06
1.24101e-06
1.00425e-06
8.1302e-07
6.54894e-07
5.27914e-07
4.28321e-07
3.50957e-07
2.95941e-07
2.59104e-07
2.44561e-07
2.43022e-07
2.51508e-07
2.67883e-07
2.86322e-07
3.06742e-07
3.27045e-07
3.45256e-07
3.62653e-07
3.78539e-07
3.91363e-07
4.05028e-07
4.09797e-07
4.25385e-07
4.12379e-07
4.48207e-07
3.91027e-07
4.89311e-07
3.97374e-07
2.0353
5.7226
9.53741
11.9177
12.6145
12.0799
10.8269
9.21599
7.46649
5.71004
4.04394
2.56274
1.36274
0.531272
0.119574
0.0225462
0.000532334
0.00019753
5.51067e-06
3.19181e-05
0.000131975
0.000128817
9.67614e-05
8.04807e-05
7.06168e-05
6.12187e-05
5.2352e-05
4.46604e-05
3.80521e-05
3.23115e-05
2.73066e-05
2.29717e-05
1.92594e-05
1.60824e-05
1.33922e-05
1.11177e-05
9.19797e-06
7.58866e-06
6.24116e-06
5.11634e-06
4.18211e-06
3.4074e-06
2.77095e-06
2.24553e-06
1.815e-06
1.46636e-06
1.17712e-06
9.45355e-07
7.59555e-07
6.07885e-07
4.87846e-07
3.96159e-07
3.27629e-07
2.82019e-07
2.55056e-07
2.48067e-07
2.51498e-07
2.62902e-07
2.79568e-07
2.97507e-07
3.1637e-07
3.34832e-07
3.50975e-07
3.66333e-07
3.80356e-07
3.91167e-07
4.03318e-07
4.06271e-07
4.20933e-07
4.05673e-07
4.42352e-07
3.80459e-07
4.83182e-07
3.87608e-07
1.89718
4.58903
7.95502
10.6944
12.206
12.5308
11.97
10.8323
9.35445
7.69871
5.98347
4.31413
2.79943
1.54674
0.650625
0.169915
0.0302712
0.00181916
0.00100502
1.61649e-06
9.36263e-06
7.70342e-05
0.000113506
9.11951e-05
7.04124e-05
6.02392e-05
5.2734e-05
4.52611e-05
3.83332e-05
3.23963e-05
2.73512e-05
2.30072e-05
1.92702e-05
1.6064e-05
1.33512e-05
1.10632e-05
9.13609e-06
7.52215e-06
6.17134e-06
5.04433e-06
4.10938e-06
3.33504e-06
2.69965e-06
2.17624e-06
1.74871e-06
1.40354e-06
1.11877e-06
8.92024e-07
7.11629e-07
5.66495e-07
4.53707e-07
3.70263e-07
3.10863e-07
2.74402e-07
2.56117e-07
2.55268e-07
2.62044e-07
2.74998e-07
2.9119e-07
3.08133e-07
3.2524e-07
3.41763e-07
3.55898e-07
3.69324e-07
3.81521e-07
3.90522e-07
4.01109e-07
4.02429e-07
4.16226e-07
3.98947e-07
4.36319e-07
3.70123e-07
4.76949e-07
3.78348e-07
1.88648
3.68973
6.45269
9.13497
11.1076
12.1481
12.3267
11.8238
10.8292
9.49864
7.95444
6.3025
4.65093
3.1153
1.8092
0.833179
0.260047
0.0484018
0.00520963
0.00268109
0.000107271
4.62619e-06
1.57292e-05
8.00162e-05
8.61962e-05
6.52082e-05
5.12785e-05
4.41706e-05
3.85375e-05
3.28616e-05
2.7595e-05
2.30798e-05
1.92924e-05
1.60772e-05
1.33492e-05
1.10398e-05
9.09573e-06
7.47136e-06
6.1149e-06
4.98461e-06
4.0475e-06
3.27221e-06
2.63659e-06
2.11422e-06
1.6891e-06
1.3468e-06
1.06635e-06
8.44409e-07
6.69384e-07
5.30706e-07
4.25489e-07
3.5032e-07
3.00042e-07
2.71876e-07
2.60787e-07
2.6441e-07
2.73164e-07
2.86739e-07
3.01927e-07
3.17665e-07
3.3289e-07
3.47598e-07
3.59831e-07
3.71405e-07
3.81934e-07
3.89256e-07
3.98428e-07
3.98274e-07
4.11273e-07
3.92209e-07
4.30169e-07
3.60075e-07
4.70677e-07
3.69562e-07
1.90109
2.98321
5.11433
7.48861
9.57706
11.0665
11.8657
12.0176
11.624
10.7955
9.63222
8.22459
6.66519
5.05861
3.52053
2.166
1.10155
0.411699
0.095219
0.0139715
0.00127814
0.000552359
7.12372e-07
5.23299e-06
3.33898e-05
7.33787e-05
6.57298e-05
4.82451e-05
3.76443e-05
3.20009e-05
2.76749e-05
2.34399e-05
1.9511e-05
1.61397e-05
1.33484e-05
1.10279e-05
9.08023e-06
7.44567e-06
6.07703e-06
4.93797e-06
3.99603e-06
3.2188e-06
2.5824e-06
2.06035e-06
1.63682e-06
1.29667e-06
1.02023e-06
8.02811e-07
6.33112e-07
5.00878e-07
4.03333e-07
3.36299e-07
2.94604e-07
2.73558e-07
2.68046e-07
2.74464e-07
2.84138e-07
2.97609e-07
3.11493e-07
3.25864e-07
3.39215e-07
3.52202e-07
3.62664e-07
3.72495e-07
3.8152e-07
3.87294e-07
3.95234e-07
3.93772e-07
4.06027e-07
3.85418e-07
4.23862e-07
3.50325e-07
4.64358e-07
3.61172e-07
1.82012
2.38854
3.93056
5.88646
7.84444
9.50196