/*--------------------------------*- C++ -*----------------------------------*\
| =========                 |                                                 |
| \\      /  F ield         | OpenFOAM: The Open Source CFD Toolbox           |
|  \\    /   O peration     | Version:  2312                                  |
|   \\  /    A nd           | Website:  www.openfoam.com                      |
|    \\/     M anipulation  |                                                 |
\*---------------------------------------------------------------------------*/
FoamFile
{
    version     2.0;
    format      ascii;
    arch        "LSB;label=32;scalar=64";
    class       volScalarField;
    location    "750";
    object      turbulenceProperties:epsilon;
}
// * * * * * * * * * * * * * * * * * * * * * * * * * * * * * * * * * * * * * //

dimensions      [0 2 -3 0 0 0 0];

internalField   nonuniform List<scalar> 
11040
(
95.6412
99.6255
3.48871
1.18421
17.571
19.1529
18.075
15.8831
13.8155
12.5229
11.3784
10.3945
9.62851
9.05159
8.60688
8.39577
8.39898
8.63886
9.09182
9.76254
10.6858
11.8422
13.2599
14.9988
17.0729
19.5348
22.2924
24.9522
27.1889
28.6186
28.8562
27.626
25.0542
21.5864
17.968
11.9313
4.65464
1.70461
0.282196
2.40844
7.32904
0.867227
2.88085
28.2713
51.7262
49.5081
5.23548
0.575335
0.0729267
0.00548483
0.003815
0.0233054
0.0443461
0.0648354
0.08358
0.0999429
0.11633
0.134789
0.154953
0.175076
0.1955
0.216464
0.239106
0.25658
0.260613
0.248127
0.224267
0.1939
0.156129
0.116053
0.0808292
0.0571457
0.0482872
0.0451775
0.0514186
0.0703475
0.106978
0.171116
0.269807
0.617116
0.771288
8.35701
0.329069
0.258159
1.07135
15.0836
97.2125
75.2758
16.3768
2.43352
0.61704
0.239743
0.0841385
0.0298848
0.00781979
0.000811588
0.000686493
0.00327971
0.00660177
0.009999
0.0129535
0.0151474
0.0164928
0.0168387
0.015371
0.0121946
0.00852479
0.00539753
0.0030657
0.0013484
0.000245623
0.000478742
0.00409782
0.0150129
0.0388621
0.0827867
0.156666
0.276795
0.46439
0.714585
1.44103
2.29174
3.6323
0.169337
0.124777
0.082663
0.202469
15.1394
90.9524
92.8103
31.9359
5.35244
1.63565
0.633243
0.308022
0.165581
0.0897376
0.0535117
0.0329529
0.0225379
0.0167528
0.0138606
0.0128696
0.0129732
0.0140953
0.0165028
0.0200529
0.0236635
0.0262643
0.0270219
0.025552
0.022357
0.0195587
0.0213415
0.0341422
0.0669993
0.133813
0.253782
0.457717
0.785539
1.23205
2.26284
3.94322
2.56124
0.0940837
0.0766664
0.0869204
0.0216155
0.0395345
9.83767
69.2614
99.1307
50.7785
11.6907
3.26497
1.25129
0.6474
0.359005
0.23032
0.155317
0.11591
0.0928183
0.0800921
0.0739872
0.0713202
0.0707907
0.0723432
0.0756878
0.0786983
0.0797534
0.0776848
0.0718881
0.062984
0.0536109
0.0492579
0.0592598
0.0981402
0.187017
0.354663
0.645195
1.11705
1.78011
2.97402
5.3498
2.965
0.0490135
0.0413328
0.0392248
0.0478608
0.00431804
0.00220062
4.59937
43.0754
93.1186
68.2961
24.4999
6.07304
2.35107
1.10415
0.644447
0.410349
0.293421
0.228021
0.191039
0.171775
0.161404
0.156028
0.154101
0.155143
0.156066
0.154544
0.148603
0.136804
0.119264
0.0988819
0.0826797
0.0834828
0.121589
0.226027
0.435851
0.807289
1.41432
2.28477
3.55683
6.27329
3.89932
0.0255749
0.0233627
0.0206152
0.0233861
0.0249423
0.000768051
9.52953e-07
1.34906
21.4417
71.0287
78.5018
42.2512
13.1142
4.11922
1.8684
1.03493
0.659535
0.468683
0.364844
0.311396
0.282547
0.268036
0.261348
0.260334
0.25999
0.256535
0.246615
0.227415
0.198021
0.161277
0.125564
0.107086
0.131776
0.236687
0.470984
0.900385
1.6077
2.63121
3.93836
6.59439
4.84063
0.0136248
0.0130304
0.0126415
0.0116794
0.0136649
0.0149803
1.82284e-05
1.53339e-09
0.207386
7.97241
41.4605
74.3413
58.556
26.4647
8.30581
3.19003
1.62818
1.0052
0.695866
0.539644
0.457209
0.419025
0.401652
0.397358
0.396886
0.393421
0.381014
0.354382
0.310525
0.251671
0.186917
0.13516
0.127289
0.207566
0.433845
0.877626
1.62189
2.70238
3.99796
6.24253
5.3421
0.00743549
0.00722894
0.00725871
0.00714005
0.0066007
0.00839454
0.00769127
0.000101896
9.97836e-05
0.000470898
1.88829
17.6025
52.1366
65.023
42.795
17.974
6.14066
2.69765
1.51912
1.01681
0.768152
0.654414
0.60137
0.582442
0.57792
0.573978
0.560172
0.527392
0.469219
0.384888
0.282463
0.182014
0.118122
0.140549
0.313183
0.709288
1.40386
2.42105
3.62001
5.30412
5.09106
0.00410246
0.00403103
0.00409103
0.00418132
0.00411322
0.00387002
0.00486909
0.00392767
0.000347923
4.4697e-06
0.00220118
0.212066
5.02629
25.5827
53.1629
53.7574
32.4542
13.6327
5.12073
2.4592
1.51382
1.12565
0.947486
0.868676
0.836382
0.821918
0.804656
0.766138
0.693695
0.582654
0.438138
0.278116
0.137653
0.0689622
0.138627
0.418389
0.970992
1.80792
2.80145
3.94404
4.10943
0.00228307
0.00225832
0.00230452
0.00237823
0.00244642
0.00240314
0.00234
0.00266525
0.002625
0.00068332
1.79244e-06
7.91656e-05
5.08451e-05
0.756062
8.05228
28.9608
48.7129
44.4621
26.3106
11.5569
4.73695
2.51389
1.75694
1.43956
1.28762
1.2123
1.16467
1.10901
1.02158
0.887487
0.703184
0.481416
0.255506
0.0766957
0.00935273
0.12037
0.461101
1.0359
1.73878
2.432
2.69358
0.00127569
0.00126826
0.00129319
0.00134329
0.00139709
0.00144066
0.00143232
0.00140455
0.00149767
0.0016193
0.000882806
3.8586e-07
1.31635e-07
0.00122751
0.037925
1.39503
9.65609
28.1729
42.544
37.7712
22.9929
11.2793
5.4966
3.21857
2.35021
2.00097
1.82607
1.69467
1.55712
1.3841
1.16085
0.888624
0.590522
0.310557
0.107009
0.0416339
0.157693
0.455899
0.853681
1.20374
1.36413
0.000713591
0.000712448
0.00072499
0.00075369
0.000790288
0.000825938
0.000854858
0.000862594
0.00085075
0.000871133
0.000972251
0.00072749
3.29017e-05
1.9186e-07
1.20815e-05
0.00293539
0.0836161
1.68215
9.33459
24.6579
36.2905
33.6134
23.4317
14.244
8.30085
5.14126
3.63464
2.93754
2.58251
2.32074
2.04124
1.71371
1.35198
0.994867
0.693273
0.49633
0.4393
0.521077
0.683471
0.803308
0.77202
0.000398506
0.000399423
0.00040548
0.000420971
0.000443133
0.000467362
0.000490572
0.000510661
0.000521991
0.000520238
0.000521538
0.000575994
0.00053943
0.000171516
1.59842e-08
2.85485e-09
8.80756e-05
0.00439503
0.0993885
1.49595
7.58667
19.2319
29.3718
31.3745
26.6178
19.972
14.1106
9.74914
6.85699
5.07787
4.01124
3.34413
2.87163
2.48856
2.17069
1.93044
1.78778
1.74046
1.76572
1.78221
1.54653
0.00022156
0.000222918
0.000225815
0.000234014
0.000246655
0.000261562
0.000277226
0.000292505
0.000306385
0.000316833
0.000319623
0.00032098
0.000341702
0.000348987
0.000268322
1.85823e-05
1.42026e-07
1.82066e-11
0.000267604
0.00368878
0.0697937
0.912804
4.22464
11.0839
19.5687
25.7601
27.4519
25.4993
21.8962
17.9387
14.2016
10.9929
8.48327
6.69403
5.53881
4.88214
4.59542
4.53384
4.58028
4.66499
4.31462
0.000122362
0.000123514
0.000124897
0.000129174
0.000136171
0.000144805
0.000154368
0.000164443
0.000174498
0.000183919
0.000191941
0.000196482
0.000199539
0.000203664
0.00022257
0.000198025
0.000118328
4.45566e-07
1.47242e-08
8.23028e-13
0.000321087
0.00182366
0.0135941
0.221283
1.21463
3.83238
8.41325
14.1703
19.5231
23.1655
24.7093
24.4922
23.08
20.9651
18.5728
16.2401
14.2167
12.5881
11.4148
10.7886
9.94425
6.73632e-05
6.81585e-05
6.88408e-05
7.10825e-05
7.48982e-05
7.97276e-05
8.52583e-05
9.1317e-05
9.77099e-05
0.000104149
0.000110338
0.000115931
0.000120441
0.000123156
0.000126693
0.000132488
0.000141767
0.000111418
4.10003e-05
2.34532e-08
3.92508e-09
4.13438e-13
2.33714e-05
0.00092055
0.00202134
0.00939861
0.112151
0.53583
1.64138
3.74676
6.91173
10.8455
15.0196
18.8871
22.0477
24.27
25.5589
25.9907
25.8045
25.5091
24.2503
3.78036e-05
3.83298e-05
3.87164e-05
3.99692e-05
4.21245e-05
4.48862e-05
4.81026e-05
5.17077e-05
5.56093e-05
5.96906e-05
6.38092e-05
6.78287e-05
7.16236e-05
7.49991e-05
7.7572e-05
7.98071e-05
8.27798e-05
8.88174e-05
8.99648e-05
6.81802e-05
2.00646e-05
1.25673e-08
2.78013e-09
7.62665e-12
0
1.38613e-05
0.000668477
0.000822805
0.000106829
0.00856267
0.0675365
0.276475
0.787201
1.77954
3.39966
5.69715
8.6136
12.0077
15.6324
19.4264
22.4305
2.20165e-05
2.23697e-05
2.26102e-05
2.33525e-05
2.46253e-05
2.62662e-05
2.82014e-05
3.041e-05
3.28519e-05
3.54633e-05
3.81757e-05
4.09144e-05
4.36065e-05
4.61971e-05
4.85841e-05
5.06965e-05
5.23185e-05
5.42583e-05
5.68351e-05
6.05759e-05
5.97915e-05
4.29018e-05
1.89761e-05
2.44994e-07
6.70517e-09
2.14844e-10
1.44766e-12
0
5.53664e-09
1.68451e-05
0.000450813
0.000549677
0.00026643
0.000505966
0.00657514
0.0396983
0.143438
0.387384
0.85662
1.65511
2.82384
1.32977e-05
1.353e-05
1.36847e-05
1.41405e-05
1.4916e-05
1.59185e-05
1.711e-05
1.84829e-05
2.00218e-05
2.16953e-05
2.34705e-05
2.53135e-05
2.71826e-05
2.90349e-05
3.08302e-05
3.25377e-05
3.40943e-05
3.54795e-05
3.66635e-05
3.81464e-05
4.03091e-05
4.23205e-05
4.20795e-05
3.36743e-05
2.00226e-05
7.22053e-06
6.16343e-08
2.70279e-09
1.45492e-10
3.71126e-11
1.39732e-13
0
0
1.7315e-07
1.90237e-05
0.000308575
0.000470076
0.000190814
3.45373e-05
5.3057e-07
0.00283287
8.251e-06
8.40237e-06
8.50447e-06
8.79208e-06
9.27647e-06
9.90347e-06
1.06527e-05
1.15213e-05
1.25017e-05
1.35787e-05
1.4735e-05
1.59554e-05
1.72196e-05
1.85035e-05
1.97827e-05
2.10331e-05
2.22353e-05
2.33687e-05
2.43998e-05
2.53192e-05
2.61968e-05
2.73675e-05
2.87147e-05
3.04646e-05
3.0551e-05
2.88938e-05
2.31178e-05
1.45633e-05
6.84372e-06
2.03218e-06
9.30868e-09
9.03341e-10
8.34761e-11
3.22344e-11
8.06316e-12
1.27908e-13
0
0
0
6.44202e-12
2.85227e-06
5.23096e-06
5.3298e-06
5.39921e-06
5.58499e-06
5.89381e-06
6.29366e-06
6.77322e-06
7.33129e-06
7.96393e-06
8.66315e-06
9.41938e-06
1.02248e-05
1.10691e-05
1.19392e-05
1.28213e-05
1.37014e-05
1.45657e-05
1.54014e-05
1.61987e-05
1.69483e-05
1.76131e-05
1.82213e-05
1.88106e-05
1.95426e-05
2.04353e-05
2.13111e-05
2.23056e-05
2.24814e-05
2.14575e-05
1.96064e-05
1.58563e-05
1.10154e-05
6.27782e-06
2.72491e-06
7.85435e-07
1.47488e-08
6.51586e-10
4.64146e-11
2.58925e-11
1.26305e-11
4.85635e-12
3.37348e-06
3.43824e-06
3.48636e-06
3.60844e-06
3.80846e-06
4.06733e-06
4.37859e-06
4.74156e-06
5.15398e-06
5.6113e-06
6.10825e-06
6.64037e-06
7.20231e-06
7.78629e-06
8.38422e-06
8.98792e-06
9.5889e-06
1.01785e-05
1.07488e-05
1.12966e-05
1.1803e-05
1.22598e-05
1.26738e-05
1.30378e-05
1.33927e-05
1.37554e-05
1.41976e-05
1.47235e-05
1.52647e-05
1.57162e-05
1.61901e-05
1.62708e-05
1.58407e-05
1.48602e-05
1.34986e-05
1.14333e-05
8.89672e-06
6.23718e-06
3.93083e-06
2.15576e-06
9.57176e-07
2.20605e-06
2.24871e-06
2.2826e-06
2.364e-06
2.49529e-06
2.66504e-06
2.86945e-06
3.10803e-06
3.37934e-06
3.68066e-06
4.00891e-06
4.36131e-06
4.7348e-06
5.12478e-06
5.52619e-06
5.93397e-06
6.34285e-06
6.74729e-06
7.14167e-06
7.5233e-06
7.87944e-06
8.20521e-06
8.50522e-06
8.76837e-06
8.99624e-06
9.1948e-06
9.36957e-06
9.53414e-06
9.7054e-06
9.88244e-06
1.00866e-05
1.03136e-05
1.05419e-05
1.0748e-05
1.09001e-05
1.10431e-05
1.1068e-05
1.09163e-05
1.0581e-05
1.00348e-05
9.463e-06
1.45909e-06
1.48735e-06
1.51153e-06
1.56643e-06
1.65355e-06
1.76603e-06
1.90156e-06
2.05972e-06
2.23954e-06
2.4393e-06
2.65706e-06
2.89108e-06
3.13942e-06
3.39925e-06
3.66732e-06
3.94033e-06
4.21485e-06
4.48724e-06
4.75366e-06
5.01216e-06
5.25353e-06
5.47452e-06
5.67814e-06
5.85744e-06
6.01245e-06
6.14521e-06
6.25615e-06
6.34564e-06
6.41553e-06
6.4687e-06
6.50726e-06
6.53613e-06
6.55922e-06
6.58137e-06
6.60218e-06
6.62503e-06
6.64875e-06
6.67273e-06
6.69537e-06
6.6961e-06
6.71332e-06
9.74108e-07
9.9296e-07
1.01037e-06
1.04779e-06
1.10616e-06
1.18137e-06
1.27198e-06
1.37762e-06
1.49757e-06
1.63072e-06
1.77579e-06
1.93165e-06
2.09694e-06
2.26985e-06
2.44824e-06
2.62992e-06
2.81259e-06
2.99381e-06
3.17091e-06
3.34253e-06
3.5022e-06
3.64784e-06
3.78163e-06
3.89851e-06
3.99837e-06
4.08256e-06
4.15171e-06
4.2061e-06
4.24608e-06
4.27236e-06
4.28552e-06
4.28639e-06
4.27563e-06
4.25487e-06
4.22578e-06
4.18893e-06
4.14519e-06
4.09697e-06
4.04762e-06
3.9935e-06
3.94704e-06
6.55349e-07
6.68021e-07
6.80671e-07
7.06414e-07
7.45859e-07
7.96563e-07
8.57585e-07
9.286e-07
1.00907e-06
1.09824e-06
1.19524e-06
1.29929e-06
1.40944e-06
1.52446e-06
1.64292e-06
1.76334e-06
1.88414e-06
2.00365e-06
2.12005e-06
2.23238e-06
2.33616e-06
2.43016e-06
2.51609e-06
2.59039e-06
2.65284e-06
2.70432e-06
2.7453e-06
2.77605e-06
2.79699e-06
2.80869e-06
2.81173e-06
2.80675e-06
2.79416e-06
2.77479e-06
2.74945e-06
2.71844e-06
2.68204e-06
2.6412e-06
2.59773e-06
2.54913e-06
2.50561e-06
4.43698e-07
4.52289e-07
4.61561e-07
4.79432e-07
5.06315e-07
5.40759e-07
5.82136e-07
6.30158e-07
6.84424e-07
7.44404e-07
8.09483e-07
8.79115e-07
9.5263e-07
1.02915e-06
1.10771e-06
1.18728e-06
1.2668e-06
1.3451e-06
1.42095e-06
1.49368e-06
1.56023e-06
1.6199e-06
1.67409e-06
1.72033e-06
1.75843e-06
1.78902e-06
1.81245e-06
1.82891e-06
1.83875e-06
1.84238e-06
1.84028e-06
1.83293e-06
1.82071e-06
1.80424e-06
1.7841e-06
1.76054e-06
1.73382e-06
1.70454e-06
1.67381e-06
1.64019e-06
1.60923e-06
3.01954e-07
3.07845e-07
3.14701e-07
3.27223e-07
3.45701e-07
3.69272e-07
3.9751e-07
4.30164e-07
4.66936e-07
5.07443e-07
5.51251e-07
5.97956e-07
6.47089e-07
6.98017e-07
7.50074e-07
8.02556e-07
8.54725e-07
9.05783e-07
9.54888e-07
1.00158e-06
1.0438e-06
1.08118e-06
1.11483e-06
1.14308e-06
1.16581e-06
1.18346e-06
1.1963e-06
1.20451e-06
1.20832e-06
1.20805e-06
1.20403e-06
1.19664e-06
1.18613e-06
1.17292e-06
1.15744e-06
1.13985e-06
1.12035e-06
1.09935e-06
1.07748e-06
1.05428e-06
1.03152e-06
2.06346e-07
2.10442e-07
2.1556e-07
2.24422e-07
2.37231e-07
2.53481e-07
2.72874e-07
2.95201e-07
3.20236e-07
3.47702e-07
3.77286e-07
4.08688e-07
4.41577e-07
4.75501e-07
5.09985e-07
5.44549e-07
5.7869e-07
6.11859e-07
6.43484e-07
6.73266e-07
6.9981e-07
7.22957e-07
7.43583e-07
7.6056e-07
7.73813e-07
7.83669e-07
7.90341e-07
7.93963e-07
7.94713e-07
7.92819e-07
7.88521e-07
7.82072e-07
7.73664e-07
7.63581e-07
7.52097e-07
7.39338e-07
7.2544e-07
7.10668e-07
6.95373e-07
6.79588e-07
6.63052e-07
1.4147e-07
1.44369e-07
1.48227e-07
1.54564e-07
1.63522e-07
1.7481e-07
1.88214e-07
2.03566e-07
2.20693e-07
2.39394e-07
2.5944e-07
2.80609e-07
3.02663e-07
3.25286e-07
3.48132e-07
3.70877e-07
3.93177e-07
4.14663e-07
4.34944e-07
4.53831e-07
4.70389e-07
4.84571e-07
4.9705e-07
5.07077e-07
5.14611e-07
5.1989e-07
5.23077e-07
5.24279e-07
5.23625e-07
5.21277e-07
5.17403e-07
5.12178e-07
5.05737e-07
4.98266e-07
4.89947e-07
4.80865e-07
4.71114e-07
4.60868e-07
4.50303e-07
4.39697e-07
4.27788e-07
9.72304e-08
9.9327e-08
1.02263e-07
1.06842e-07
1.13165e-07
1.21069e-07
1.30396e-07
1.41015e-07
1.52793e-07
1.65583e-07
1.79218e-07
1.93531e-07
2.08353e-07
2.23463e-07
2.38611e-07
2.53575e-07
2.68125e-07
2.82013e-07
2.94978e-07
3.06901e-07
3.17162e-07
3.25767e-07
3.3323e-07
3.39051e-07
3.43211e-07
3.45887e-07
3.47202e-07
3.47233e-07
3.46073e-07
3.43837e-07
3.4064e-07
3.36601e-07
3.31811e-07
3.26392e-07
3.20464e-07
3.14083e-07
3.07311e-07
3.00263e-07
2.93016e-07
2.85943e-07
2.77372e-07
6.69435e-08
6.84948e-08
7.07502e-08
7.40944e-08
7.86015e-08
8.41815e-08
9.07191e-08
9.81112e-08
1.06257e-07
1.15048e-07
1.24362e-07
1.34075e-07
1.44065e-07
1.54177e-07
1.64235e-07
1.74084e-07
1.83573e-07
1.92537e-07
2.00803e-07
2.08297e-07
2.14613e-07
2.19776e-07
2.24175e-07
2.27478e-07
2.29677e-07
2.30904e-07
2.31248e-07
2.30768e-07
2.29529e-07
2.27612e-07
2.25094e-07
2.22056e-07
2.1856e-07
2.14685e-07
2.10507e-07
2.06065e-07
2.01399e-07
1.96583e-07
1.91642e-07
1.86953e-07
1.80808e-07
4.61434e-08
4.73185e-08
4.90653e-08
5.15338e-08
5.47794e-08
5.8753e-08
6.33715e-08
6.85537e-08
7.42239e-08
8.03011e-08
8.66963e-08
9.33171e-08
1.00075e-07
1.06861e-07
1.13555e-07
1.20048e-07
1.2624e-07
1.32026e-07
1.37292e-07
1.41993e-07
1.45866e-07
1.48942e-07
1.51509e-07
1.53347e-07
1.54456e-07
1.54929e-07
1.54832e-07
1.54209e-07
1.53103e-07
1.51569e-07
1.49661e-07
1.47431e-07
1.44922e-07
1.42183e-07
1.39266e-07
1.36193e-07
1.32993e-07
1.29712e-07
1.26351e-07
1.23253e-07
1.18827e-07
3.18243e-08
3.27343e-08
3.40966e-08
3.59379e-08
3.82991e-08
4.11558e-08
4.44465e-08
4.81084e-08
5.20845e-08
5.6314e-08
6.07313e-08
6.52686e-08
6.98606e-08
7.44332e-08
7.89022e-08
8.31911e-08
8.72362e-08
9.0968e-08
9.43159e-08
9.72509e-08
9.96038e-08
1.01404e-07
1.02865e-07
1.0384e-07
1.04333e-07
1.04413e-07
1.04126e-07
1.03504e-07
1.02578e-07
1.01385e-07
9.9962e-08
9.8343e-08
9.65561e-08
9.46336e-08
9.26077e-08
9.04932e-08
8.83089e-08
8.60834e-08
8.38086e-08
8.17652e-08
7.86099e-08
2.19501e-08
2.26684e-08
2.37367e-08
2.51237e-08
2.686e-08
2.89343e-08
3.13009e-08
3.39116e-08
3.67228e-08
3.96892e-08
4.27621e-08
4.58921e-08
4.90311e-08
5.21288e-08
5.51278e-08
5.79749e-08
6.06296e-08
6.30489e-08
6.51883e-08
6.70321e-08
6.84721e-08
6.95316e-08
7.03675e-08
7.08802e-08
7.10744e-08
7.09984e-08
7.06863e-08
7.01591e-08
6.94386e-08
6.85494e-08
6.75161e-08
6.63615e-08
6.51041e-08
6.37647e-08
6.23646e-08
6.0913e-08
5.94223e-08
5.79101e-08
5.63656e-08
5.50196e-08
5.2732e-08
1.51342e-08
1.57096e-08
1.65511e-08
1.76057e-08
1.88963e-08
2.04181e-08
2.21372e-08
2.40162e-08
2.6022e-08
2.81205e-08
3.02754e-08
3.24507e-08
3.46111e-08
3.67217e-08
3.87431e-08
4.06383e-08
4.23813e-08
4.39454e-08
4.53032e-08
4.64454e-08
4.73043e-08
4.78991e-08
4.83446e-08
4.85745e-08
4.85946e-08
4.84396e-08
4.81341e-08
4.76935e-08
4.71329e-08
4.64691e-08
4.57182e-08
4.48954e-08
4.40128e-08
4.30833e-08
4.21205e-08
4.11294e-08
4.01194e-08
3.9099e-08
3.80623e-08
3.7171e-08
3.55723e-08
1.04281e-08
1.08938e-08
1.15588e-08
1.23681e-08
1.33376e-08
1.44658e-08
1.57269e-08
1.70924e-08
1.8537e-08
2.00351e-08
2.15598e-08
2.30849e-08
2.45851e-08
2.60372e-08
2.74152e-08
2.86941e-08
2.98578e-08
3.0891e-08
3.17775e-08
3.25127e-08
3.30538e-08
3.34129e-08
3.36735e-08
3.37894e-08
3.37649e-08
3.36245e-08
3.33853e-08
3.30576e-08
3.26516e-08
3.21786e-08
3.16496e-08
3.10746e-08
3.04619e-08
2.98198e-08
2.91577e-08
2.8479e-08
2.77897e-08
2.70946e-08
2.63885e-08
2.58033e-08
2.46189e-08
7.17979e-09
7.55873e-09
8.08552e-09
8.71174e-09
9.44798e-09
1.02928e-08
1.12266e-08
1.22279e-08
1.32776e-08
1.43568e-08
1.54452e-08
1.65234e-08
1.75726e-08
1.85758e-08
1.9515e-08
2.03727e-08
2.11385e-08
2.18037e-08
2.2359e-08
2.28027e-08
2.31095e-08
2.32906e-08
2.34064e-08
2.34267e-08
2.33556e-08
2.32111e-08
2.30054e-08
2.2746e-08
2.24398e-08
2.20942e-08
2.17165e-08
2.13129e-08
2.08888e-08
2.04491e-08
1.99996e-08
1.95416e-08
1.90805e-08
1.86158e-08
1.81509e-08
1.77534e-08
1.69762e-08
4.9391e-09
5.24818e-09
5.66606e-09
6.15395e-09
6.71777e-09
7.3559e-09
8.05333e-09
8.79362e-09
9.56255e-09
1.03464e-08
1.11308e-08
1.19022e-08
1.26476e-08
1.33568e-08
1.40191e-08
1.46232e-08
1.51625e-08
1.56317e-08
1.60251e-08
1.63415e-08
1.65646e-08
1.66982e-08
1.67866e-08
1.68078e-08
1.67649e-08
1.66702e-08
1.65326e-08
1.63568e-08
1.6148e-08
1.59114e-08
1.56522e-08
1.53749e-08
1.50833e-08
1.4781e-08
1.44723e-08
1.41586e-08
1.38428e-08
1.3525e-08
1.3205e-08
1.29526e-08
1.2331e-08
3.39453e-09
3.64783e-09
3.98071e-09
4.3627e-09
4.79605e-09
5.27956e-09
5.80274e-09
6.35359e-09
6.92116e-09
7.49486e-09
8.06416e-09
8.61874e-09
9.14818e-09
9.64181e-09
1.009e-08
1.04859e-08
1.08268e-08
1.11121e-08
1.13406e-08
1.15125e-08
1.162e-08
1.16696e-08
1.16914e-08
1.16713e-08
1.16119e-08
1.15221e-08
1.1408e-08
1.12728e-08
1.11197e-08
1.09519e-08
1.07724e-08
1.05839e-08
1.03886e-08
1.01882e-08
9.98538e-09
9.77985e-09
9.57545e-09
9.36765e-09
9.1683e-09
8.97811e-09
8.64906e-09
2.33375e-09
2.5424e-09
2.80947e-09
3.11053e-09
3.444e-09
3.80889e-09
4.1993e-09
4.60834e-09
5.02901e-09
5.45326e-09
5.87246e-09
6.27965e-09
6.67076e-09
7.04461e-09
7.39818e-09
7.72313e-09
8.01197e-09
8.26081e-09
8.46735e-09
8.63221e-09
8.7494e-09
8.81832e-09
8.86376e-09
8.87508e-09
8.85456e-09
8.80889e-09
8.74265e-09
8.65853e-09
8.55916e-09
8.44732e-09
8.32568e-09
8.19659e-09
8.0619e-09
7.92321e-09
7.78301e-09
7.6419e-09
7.50117e-09
7.36016e-09
7.21875e-09
7.12187e-09
6.77306e-09
1.61235e-09
1.78239e-09
1.99509e-09
2.23188e-09
2.48887e-09
2.76438e-09
3.05432e-09
3.35479e-09
3.66295e-09
3.97527e-09
4.28555e-09
4.58412e-09
4.85901e-09
5.09903e-09
5.30004e-09
5.46829e-09
5.61167e-09
5.73225e-09
5.82947e-09
5.90172e-09
5.94645e-09
5.96763e-09
5.97774e-09
5.9698e-09
5.94497e-09
5.90742e-09
5.85988e-09
5.80373e-09
5.74023e-09
5.67074e-09
5.59652e-09
5.51854e-09
5.43774e-09
5.35476e-09
5.2706e-09
5.18462e-09
5.10014e-09
5.01059e-09
4.93447e-09
4.82475e-09
4.75431e-09
1.12345e-09
1.25883e-09
1.42228e-09
1.60135e-09
1.79396e-09
2.00056e-09
2.2184e-09
2.44283e-09
2.66938e-09
2.89546e-09
3.12168e-09
3.35205e-09
3.59141e-09
3.84215e-09
4.09692e-09
4.33362e-09
4.53524e-09
4.70204e-09
4.83746e-09
4.94579e-09
5.02526e-09
5.07393e-09
5.10732e-09
5.12079e-09
5.11652e-09
5.09847e-09
5.06938e-09
5.03104e-09
4.98516e-09
4.93353e-09
4.8778e-09
4.81948e-09
4.7596e-09
4.69915e-09
4.63967e-09
4.58195e-09
4.52566e-09
4.47244e-09
4.41539e-09
4.40924e-09
4.16714e-09
7.83097e-10
8.93456e-10
1.01825e-09
1.1474e-09
1.28116e-09
1.42426e-09
1.57961e-09
1.7473e-09
1.92387e-09
2.101e-09
2.26612e-09
2.40555e-09
2.51006e-09
2.57838e-09
2.62281e-09
2.67138e-09
2.73708e-09
2.80874e-09
2.87759e-09
2.93791e-09
2.98814e-09
3.0301e-09
3.06619e-09
3.09309e-09
3.11098e-09
3.12161e-09
3.12616e-09
3.12517e-09
3.1192e-09
3.10881e-09
3.09456e-09
3.0768e-09
3.05603e-09
3.03239e-09
3.00634e-09
2.9771e-09
2.94789e-09
2.91066e-09
2.88996e-09
2.80092e-09
2.89148e-09
5.44008e-10
6.44848e-10
7.53161e-10
8.55917e-10
9.50371e-10
1.04068e-09
1.13188e-09
1.2295e-09
1.34019e-09
1.47144e-09
1.63067e-09
1.82352e-09
2.05048e-09
2.30593e-09
2.56957e-09
2.79178e-09
2.95045e-09
3.07163e-09
3.16683e-09
3.24155e-09
3.29391e-09
3.32488e-09
3.34355e-09
3.34871e-09
3.34275e-09
3.32846e-09
3.30786e-09
3.28253e-09
3.25396e-09
3.22366e-09
3.19295e-09
3.1631e-09
3.13491e-09
3.10928e-09
3.08736e-09
3.0705e-09
3.05682e-09
3.05214e-09
3.03746e-09
3.1036e-09
2.8694e-09
3.97551e-10
4.82452e-10
5.73729e-10
6.64566e-10
7.5073e-10
8.29951e-10
8.9887e-10
9.54304e-10
9.95041e-10
1.02225e-09
1.03898e-09
1.04917e-09
1.05704e-09
1.06346e-09
1.07235e-09
1.10894e-09
1.17574e-09
1.25217e-09
1.33112e-09
1.40754e-09
1.47983e-09
1.54767e-09
1.61162e-09
1.67064e-09
1.72397e-09
1.77179e-09
1.8143e-09
1.85143e-09
1.88308e-09
1.90914e-09
1.92955e-09
1.94414e-09
1.95291e-09
1.95547e-09
1.95201e-09
1.9416e-09
1.92696e-09
1.89953e-09
1.8859e-09
1.78454e-09
1.92939e-09
4.67078e-10
5.88607e-10
6.58772e-10
6.71542e-10
6.51997e-10
6.37967e-10
6.61728e-10
7.41031e-10
8.77762e-10
1.06096e-09
1.27183e-09
1.48933e-09
1.69438e-09
1.87625e-09
2.02446e-09
2.09841e-09
2.1017e-09
2.07246e-09
2.02919e-09
1.97927e-09
1.92028e-09
1.86739e-09
1.81079e-09
1.75391e-09
1.6985e-09
1.64502e-09
1.59361e-09
1.54448e-09
1.49778e-09
1.45351e-09
1.41154e-09
1.37177e-09
1.33376e-09
1.29721e-09
1.26216e-09
1.22915e-09
1.19558e-09
1.16568e-09
1.12541e-09
1.13213e-09
9.68581e-10
552.853
365.451
207.321
113.646
57.9667
27.1913
11.2824
3.67429
0.704749
0.0433004
0.0225532
0.000548849
1.86046e-05
9.6259e-08
5.5263e-05
4.55725e-05
3.0005e-05
2.36182e-05
1.85855e-05
1.41966e-05
1.09102e-05
8.31549e-06
6.32981e-06
4.7958e-06
3.61764e-06
2.71401e-06
2.02337e-06
1.49691e-06
1.09836e-06
8.00224e-07
5.77076e-07
4.14022e-07
2.9439e-07
2.08222e-07
1.46582e-07
1.02561e-07
7.15034e-08
4.96493e-08
3.43807e-08
2.37407e-08
1.63756e-08
1.12847e-08
7.78241e-09
5.36641e-09
3.70372e-09
2.56271e-09
1.77021e-09
1.22352e-09
8.46424e-10
5.83689e-10
3.98896e-10
2.71796e-10
1.83295e-10
1.23588e-10
8.43736e-11
5.64882e-11
4.43728e-11
3.66867e-11
3.81492e-11
4.15494e-11
5.10085e-11
5.9582e-11
7.21868e-11
8.48696e-11
9.73318e-11
1.09953e-10
1.22006e-10
1.30577e-10
1.4375e-10
1.42278e-10
1.64955e-10
1.4062e-10
1.97467e-10
1.46215e-10
301.179
441.176
308.977
186.876
105.5
55.8262
27.2535
11.5915
3.7805
0.700034
0.0413776
0.0181197
0.00114995
8.87049e-06
4.43928e-12
4.34611e-05
3.81266e-05
2.40215e-05
1.85304e-05
1.44458e-05
1.10846e-05
8.41795e-06
6.38955e-06
4.82822e-06
3.63244e-06
2.71863e-06
2.02239e-06
1.49353e-06
1.09374e-06
7.9566e-07
5.72819e-07
4.10156e-07
2.91178e-07
2.05431e-07
1.44318e-07
1.00739e-07
7.00257e-08
4.84712e-08
3.34377e-08
2.29887e-08
1.57776e-08
1.08033e-08
7.4037e-09
5.06473e-09
3.4637e-09
2.37816e-09
1.62255e-09
1.10828e-09
7.59489e-10
5.17336e-10
3.48731e-10
2.35635e-10
1.57608e-10
1.0662e-10
7.36318e-11
5.08915e-11
4.28576e-11
3.78675e-11
4.14863e-11
4.59546e-11
5.61069e-11
6.4805e-11
7.7012e-11
8.92567e-11
1.0078e-10
1.12324e-10
1.23415e-10
1.30617e-10
1.43009e-10
1.39667e-10
1.62702e-10
1.34934e-10
1.94461e-10
1.3976e-10
103.655
310.04
321.805
237.597
153.518
91.8346
51.2922
26.0996
11.3577
3.70881
0.671999
0.041602
0.0145467
0.000738035
6.79989e-10
1.568e-07
2.39135e-05
3.22139e-05
1.96749e-05
1.44696e-05
1.12878e-05
8.59971e-06
6.49248e-06
4.88973e-06
3.66716e-06
2.73491e-06
2.02853e-06
1.49425e-06
1.09138e-06
7.91581e-07
5.6903e-07
4.06142e-07
2.87872e-07
2.02485e-07
1.41788e-07
9.8702e-08
6.83474e-08
4.71229e-08
3.23578e-08
2.21233e-08
1.5088e-08
1.0255e-08
6.96883e-09
4.72152e-09
3.1936e-09
2.16799e-09
1.45766e-09
9.82897e-10
6.6464e-10
4.45184e-10
2.96339e-10
1.98036e-10
1.31877e-10
8.98302e-11
6.29578e-11
4.76707e-11
4.23541e-11
4.08654e-11
4.57231e-11
5.18188e-11
6.16907e-11
7.1328e-11
8.2513e-11
9.38992e-11
1.046e-10
1.14767e-10
1.24816e-10
1.30496e-10
1.41971e-10
1.3682e-10
1.59862e-10
1.28896e-10
1.90639e-10
1.32938e-10
39.646
179.958
264.529
246.625
187.466
127.883
80.9289
47.4353
25.0016
11.1078
3.6631
0.6762
0.0460963
0.0119816
0.00335725
0
8.03296e-08
1.45708e-05
2.5503e-05
1.62291e-05
1.13052e-05
8.74751e-06
6.65131e-06
4.97362e-06
3.71156e-06
2.76128e-06
2.04217e-06
1.49986e-06
1.09266e-06
7.90278e-07
5.66921e-07
4.03413e-07
2.85244e-07
2.00045e-07
1.39604e-07
9.68752e-08
6.682e-08
4.58723e-08
3.13431e-08
2.1308e-08
1.44322e-08
9.73388e-09
6.55587e-09
4.39661e-09
2.94032e-09
1.9703e-09
1.30603e-09
8.68363e-10
5.78185e-10
3.8086e-10
2.50402e-10
1.6573e-10
1.1041e-10
7.63705e-11
5.54034e-11
4.59341e-11
4.30562e-11
4.43502e-11
5.01154e-11
5.73614e-11
6.68813e-11
7.69254e-11
8.71319e-11
9.7518e-11
1.07384e-10
1.16188e-10
1.2531e-10
1.29557e-10
1.40195e-10
1.33392e-10
1.56576e-10
1.22676e-10
1.86536e-10
1.26374e-10
18.8771
97.9588
186.021
216.573
195.553
153.257
109.709
72.8621
44.5187
24.2399
11.0549
3.75719
0.741527
0.0582769
0.010284
0.00332522
2.86912e-07
4.33854e-08
5.08798e-06
1.9396e-05
1.33088e-05
8.62535e-06
6.59218e-06
5.07373e-06
3.78049e-06
2.79073e-06
2.05727e-06
1.50882e-06
1.09692e-06
7.91127e-07
5.66085e-07
4.01779e-07
2.83313e-07
1.98124e-07
1.3781e-07
9.53021e-08
6.54839e-08
4.47639e-08
3.04299e-08
2.05691e-08
1.38361e-08
9.25802e-09
6.17902e-09
4.10086e-09
2.71089e-09
1.79274e-09
1.17177e-09
7.67327e-10
5.0292e-10
3.26316e-10
2.12043e-10
1.39585e-10
9.37146e-11
6.66365e-11
5.10802e-11
4.55071e-11
4.49363e-11
4.81296e-11
5.46013e-11
6.23769e-11
7.15916e-11
8.13829e-11
9.06993e-11
1.0007e-10
1.09029e-10
1.16541e-10
1.24821e-10
1.27777e-10
1.37681e-10
1.29389e-10
1.52847e-10
1.16334e-10
1.82162e-10
1.20136e-10
10.7835
52.7893
118.36
166.414
177.279
159.803
129.348
96.5877
66.9184
42.4785
23.9427
11.3279
4.05982
0.892904
0.0856775
0.0102852
0.000180223
2.96898e-05
1.21524e-08
6.39588e-07
1.32303e-05
1.25004e-05
7.11919e-06
4.93138e-06
3.79459e-06
2.85092e-06
2.08508e-06
1.51753e-06
1.10165e-06
7.94315e-07
5.67302e-07
4.01486e-07
2.8221e-07
1.96783e-07
1.36456e-07
9.40409e-08
6.43686e-08
4.38148e-08
2.96361e-08
1.99163e-08
1.33071e-08
8.83363e-09
5.84183e-09
3.83645e-09
2.50638e-09
1.63597e-09
1.05423e-09
6.79963e-10
4.3895e-10
2.81151e-10
1.81077e-10
1.19409e-10
8.16703e-11
6.05145e-11
4.94966e-11
4.68211e-11
4.81255e-11
5.25891e-11
5.94686e-11
6.73455e-11
7.61565e-11
8.53047e-11
9.37289e-11
1.02111e-10
1.10078e-10
1.16425e-10
1.23769e-10
1.25587e-10
1.34814e-10
1.25215e-10
1.4888e-10
1.10131e-10
1.77627e-10
1.14304e-10
7.36678
28.798
70.8187
115.259
142.221
146.505
133.7
111.699
86.6836
62.46
41.1966
24.163
12.0035
4.6312
1.16998
0.144524
0.0131064
0.000764126
0.00035757
7.92303e-10
4.25805e-08
4.47671e-06
9.70295e-06
6.2978e-06
3.77405e-06
2.76263e-06
2.11566e-06
1.55821e-06
1.11788e-06
7.98515e-07
5.69176e-07
4.02729e-07
2.82523e-07
1.96331e-07
1.35622e-07
9.31213e-08
6.35053e-08
4.305e-08
2.89767e-08
1.93596e-08
1.28482e-08
8.46238e-09
5.54506e-09
3.60336e-09
2.32662e-09
1.49879e-09
9.52303e-10
6.05407e-10
3.85303e-10
2.44168e-10
1.5662e-10
1.04308e-10
7.35255e-11
5.72897e-11
4.99089e-11
4.9579e-11
5.22462e-11
5.75399e-11
6.45156e-11
7.22421e-11
8.04867e-11
8.88729e-11
9.63767e-11
1.03786e-10
1.10754e-10
1.16041e-10
1.22417e-10
1.23223e-10
1.31816e-10
1.21097e-10
1.44847e-10
1.04228e-10
1.73074e-10
1.08908e-10
5.80641
16.048
40.7986
73.685
102.777
119.431
122.048
113.464
97.8232
78.759
58.9877
40.5179
24.8875
13.1248
5.53901
1.63696
0.269952
0.0233054
0.00193951
0.000904449
8.75573e-06
9.02821e-09
1.44757e-07
4.87844e-06
5.58871e-06
3.22798e-06
2.00257e-06
1.48557e-06
1.12994e-06
8.21386e-07
5.79283e-07
4.05278e-07
2.83186e-07
1.96657e-07
1.35578e-07
9.27274e-08
6.2945e-08
4.24706e-08
2.84491e-08
1.89039e-08
1.24642e-08
8.14651e-09
5.28903e-09
3.40088e-09
2.17071e-09
1.38007e-09
8.65147e-10
5.42501e-10
3.40914e-10
2.14291e-10
1.37744e-10
9.33743e-11
6.84958e-11
5.62395e-11
5.17457e-11
5.31938e-11
5.67745e-11
6.25578e-11
6.93607e-11
7.67807e-11
8.43171e-11
9.19332e-11
9.85182e-11
1.04958e-10
1.10993e-10
1.15289e-10
1.20786e-10
1.20692e-10
1.28697e-10
1.17041e-10
1.40792e-10
9.8646e-11
1.68552e-10
1.03909e-10
4.81157
9.17645
22.8
44.1434
67.8745
87.5232
99.1218
101.806
96.8055
86.157
71.9442
56.0563
40.2268
26.0307
14.6993
6.85437
2.38986
0.526056
0.0597641
0.00491877
0.000376881
0.000126031
1.38997e-10
1.27461e-08
8.00716e-07
4.06017e-06
3.2396e-06
1.76641e-06
1.07913e-06
7.79798e-07
5.82788e-07
4.1791e-07
2.89577e-07
1.98184e-07
1.3557e-07
9.25313e-08
6.27311e-08
4.21785e-08
2.80975e-08
1.85517e-08
1.21492e-08
7.88279e-09
5.07384e-09
3.22979e-09
2.03842e-09
1.27923e-09
7.91929e-10
4.90366e-10
3.04969e-10
1.90879e-10
1.23772e-10
8.60494e-11
6.6035e-11
5.69375e-11
5.46663e-11
5.73159e-11
6.14277e-11
6.73908e-11
7.38254e-11
8.07949e-11
8.75519e-11
9.43846e-11
1.00076e-10
1.05575e-10
1.10753e-10
1.1413e-10
1.18858e-10
1.17979e-10
1.25436e-10
1.13024e-10
1.36694e-10
9.33766e-11
1.64058e-10
9.92447e-11
3.69765
5.22277
12.1707
24.7347
41.1898
58.049
72.0244
81.0276
84.3497
82.2772
75.6523
65.5553
53.2196
40.0255
27.4166
16.6696
8.63074
3.54322
1.02193
0.173259
0.0168705
0.000915722
0.0004997
4.04252e-05
7.87952e-09
1.03124e-08