/*--------------------------------*- C++ -*----------------------------------*\
| =========                 |                                                 |
| \\      /  F ield         | OpenFOAM: The Open Source CFD Toolbox           |
|  \\    /   O peration     | Version:  2312                                  |
|   \\  /    A nd           | Website:  www.openfoam.com                      |
|    \\/     M anipulation  |                                                 |
\*---------------------------------------------------------------------------*/
FoamFile
{
    version     2.0;
    format      ascii;
    arch        "LSB;label=32;scalar=64";
    class       volSymmTensorField;
    location    "750";
    object      turbulenceProperties:devReff;
}
// * * * * * * * * * * * * * * * * * * * * * * * * * * * * * * * * * * * * * //

dimensions      [0 2 -2 0 0 0 0];

internalField   nonuniform List<symmTensor> 
11040
(
(0.0179956 0.0953001 -1.77651e-22 -0.0279886 1.17723e-20 0.009993)
(0.0671178 0.08784 9.64452e-21 -0.0799585 1.361e-19 0.0128407)
(0.0122461 0.00971602 -2.99035e-20 -0.0107321 9.20596e-20 -0.00151399)
(-0.00512778 0.0108693 -7.14783e-20 0.00556233 4.02343e-20 -0.000434551)
(-0.0695696 0.0489103 -2.23741e-20 0.0698151 2.0143e-19 -0.000245501)
(-0.0629771 0.0600393 -3.07648e-19 0.0636645 1.12148e-19 -0.000687424)
(-0.0533037 0.0630512 1.76682e-19 0.0535469 -1.16045e-18 -0.000243276)
(-0.0435091 0.0614156 2.46105e-19 0.0436281 -1.70311e-19 -0.000119025)
(-0.0346809 0.0580514 1.05838e-19 0.034751 -3.0644e-20 -7.01613e-05)
(-0.0284284 0.0560195 9.8731e-20 0.0284016 1.5689e-19 2.6839e-05)
(-0.0232475 0.0534473 -8.7663e-20 0.0232339 3.73638e-19 1.35995e-05)
(-0.0188826 0.0509615 -1.31228e-19 0.0188401 2.82119e-19 4.25167e-05)
(-0.0152179 0.0487729 2.19915e-20 0.0151435 -1.61964e-19 7.43492e-05)
(-0.0121938 0.0470353 2.73494e-20 0.0121206 1.59228e-19 7.31574e-05)
(-0.00953783 0.0455902 -1.22943e-20 0.00944046 1.18527e-20 9.73699e-05)
(-0.00729849 0.0449813 -4.60829e-21 0.00719326 -2.05484e-19 0.000105227)
(-0.00529883 0.0452242 5.67768e-20 0.00517842 -6.52452e-22 0.000120408)
(-0.00341202 0.0463929 -5.63488e-21 0.00327601 3.73513e-19 0.000136005)
(-0.00150821 0.0483393 -3.21233e-20 0.00135798 3.28721e-21 0.000150222)
(0.000519957 0.0510245 5.22301e-21 -0.000689245 -5.42567e-20 0.000169288)
(0.00277551 0.0545316 2.45793e-20 -0.00295248 4.14125e-20 0.000176971)
(0.0051191 0.0587542 -2.69858e-20 -0.00529526 1.25089e-19 0.000176153)
(0.00739298 0.0637118 1.14324e-21 -0.00758136 -1.02791e-19 0.000188384)
(0.00981617 0.0694685 1.37322e-20 -0.010015 2.64879e-19 0.000198808)
(0.0125062 0.0760253 -8.02826e-20 -0.0126996 -2.38115e-19 0.000193334)
(0.0155218 0.083678 -4.29358e-20 -0.0156967 -5.56301e-19 0.000174857)
(0.0188504 0.0921927 1.16183e-20 -0.0189944 -2.58958e-19 0.000143984)
(0.0222237 0.100324 3.48145e-20 -0.0223215 7.42129e-20 9.77994e-05)
(0.0254149 0.107335 -2.33777e-20 -0.0254477 -2.1141e-19 3.28124e-05)
(0.0281128 0.112396 1.42883e-20 -0.0280665 -4.93731e-19 -4.63168e-05)
(0.0299778 0.114637 1.25395e-19 -0.0298519 3.54638e-19 -0.000125917)
(0.0307655 0.113278 2.07275e-20 -0.0305614 -2.92712e-20 -0.000204119)
(0.0304103 0.108529 1.08296e-19 -0.0301275 9.9592e-19 -0.000282788)
(0.0291135 0.10184 -9.38801e-20 -0.0287389 6.07328e-19 -0.000374555)
(0.0275442 0.0961945 4.75114e-20 -0.0270009 1.06391e-20 -0.000543316)
(0.0213981 0.077385 1.33186e-19 -0.020728 9.51458e-19 -0.000670142)
(0.0100806 0.0411676 8.55424e-21 -0.00953279 1.84429e-19 -0.000547847)
(0.0038081 0.0257611 -4.16822e-20 -0.00298918 5.48645e-19 -0.000818912)
(-0.00552483 0.00948823 -4.51353e-19 0.0059141 -1.17142e-18 -0.000389273)
(-0.0163541 -0.0292884 1.10804e-21 0.0176978 -9.84074e-19 -0.00134368)
(-0.0605504 -0.0206105 2.06846e-19 0.0675347 5.55758e-20 -0.00698428)
(0.00578436 -0.00597578 5.93507e-22 -0.0041488 -1.73093e-21 -0.00163556)
(0.0169764 0.00186976 2.62826e-20 -0.0102271 5.09069e-21 -0.00674933)
(0.0524687 0.0323816 5.82072e-20 -0.0540518 -3.02988e-19 0.00158304)
(0.124185 0.0328299 7.92292e-20 -0.124874 -1.78982e-19 0.000688983)
(0.247683 -0.0213863 8.36234e-20 -0.247266 -4.96987e-19 -0.000416829)
(0.0665968 -0.0488355 5.69072e-19 -0.066006 -1.20758e-18 -0.000590756)
(0.0176609 -0.0189958 -8.30419e-19 -0.0167209 3.25517e-18 -0.000940002)
(0.00427193 -0.00761604 -8.35235e-19 -0.00443175 2.15562e-18 0.000159819)
(0.000283912 -0.00222282 -7.55316e-20 -0.000375242 -1.55009e-19 9.13305e-05)
(-0.00127886 0.00130856 -1.04404e-19 0.00118922 4.05381e-20 8.96428e-05)
(-0.00222563 0.00362219 4.63003e-19 0.00226792 -1.16408e-18 -4.22883e-05)
(-0.00246659 0.00506104 -2.12005e-21 0.00259107 -7.55638e-20 -0.000124477)
(-0.00230089 0.00614425 -1.67569e-19 0.00241932 6.85425e-19 -0.00011843)
(-0.00209861 0.00690221 -1.14037e-19 0.00226999 3.23312e-20 -0.000171385)
(-0.00174232 0.00744992 -4.48583e-20 0.00192335 -1.72375e-19 -0.000181027)
(-0.00137002 0.00795215 1.06924e-20 0.00157438 5.92025e-19 -0.000204364)
(-0.000990462 0.00853213 -1.47918e-20 0.00121731 1.97622e-19 -0.000226846)
(-0.000582755 0.00918361 -9.30882e-21 0.000830719 -5.52944e-19 -0.000247964)
(-0.000139149 0.0098261 -2.37912e-20 0.000413713 -2.5594e-20 -0.000274564)
(0.000360067 0.0104609 -7.4106e-21 -7.00857e-05 8.24747e-20 -0.000289981)
(0.000920339 0.0111 -1.09799e-20 -0.000622063 -1.49449e-20 -0.000298276)
(0.00151613 0.0117779 3.14244e-20 -0.00121121 -2.76693e-19 -0.000304921)
(0.00205361 0.012311 2.37423e-20 -0.00173188 3.89869e-19 -0.000321722)
(0.00249805 0.0124939 -4.69165e-20 -0.00217374 -3.55545e-19 -0.000324308)
(0.00280815 0.0122725 -6.64413e-21 -0.00250568 2.88251e-19 -0.000302474)
(0.00300252 0.0118792 7.51834e-20 -0.00273897 9.32142e-19 -0.000263545)
(0.0030926 0.0114424 1.40484e-19 -0.00288112 5.14931e-19 -0.000211483)
(0.00296118 0.0106905 -3.48079e-20 -0.00282914 1.4271e-19 -0.000132036)
(0.00256144 0.00964737 -9.23777e-20 -0.00254567 2.84686e-19 -1.57613e-05)
(0.00189722 0.00848409 4.5018e-20 -0.00202963 5.06579e-19 0.000132402)
(0.00103098 0.00756124 -1.11395e-19 -0.00132109 -7.71988e-19 0.000290105)
(-8.78411e-05 0.00734192 -5.56603e-20 -0.000375842 -1.26148e-18 0.000463684)
(-0.00176225 0.00725854 -1.29103e-19 0.0010965 -2.63185e-18 0.000665754)
(-0.00398574 0.0074282 7.16106e-20 0.00310478 -1.3035e-18 0.000880958)
(-0.00681233 0.00791612 -9.45095e-20 0.00562326 1.21808e-19 0.00118907)
(-0.0103261 0.00879786 -4.39559e-19 0.00862397 -4.00742e-18 0.00170214)
(-0.0145094 0.0105372 -7.00816e-20 0.0122988 -3.49147e-19 0.00221068)
(-0.0192968 0.0133676 -5.10586e-19 0.0175999 -2.40747e-18 0.0016969)
(-0.0337921 0.0169481 1.25675e-18 0.0300386 5.44314e-18 0.00375349)
(-0.0263524 0.0319938 8.20512e-19 0.0291902 4.87306e-18 -0.0028378)
(-0.123223 -0.111933 -4.07101e-19 0.0755043 -6.76206e-19 0.0477184)
(0.00213495 -0.00417239 -5.31096e-22 -0.00239966 -7.64754e-22 0.00026471)
(-0.000388365 -0.00399429 -1.02302e-20 0.000536107 -2.62524e-20 -0.000147742)
(0.00870223 0.00481074 2.07442e-20 -0.00818576 1.03701e-19 -0.000516464)
(0.0444156 0.0191636 6.11014e-20 -0.0451616 9.46531e-20 0.000746037)
(0.285391 0.0494023 -7.52627e-21 -0.287621 -3.83481e-20 0.00222929)
(0.384992 -0.0352857 -3.08352e-19 -0.383446 1.2063e-18 -0.00154583)
(0.173516 -0.0979654 2.49295e-20 -0.172725 8.2502e-21 -0.000791167)
(0.0541135 -0.0539757 9.51062e-20 -0.0504793 -2.47549e-18 -0.00363424)
(0.0214991 -0.0284863 -1.68827e-19 -0.0210462 2.5714e-20 -0.000452885)
(0.0119253 -0.0176114 2.41986e-19 -0.0121603 -7.06746e-19 0.000235002)
(0.0059681 -0.0104734 -4.45616e-19 -0.0060726 1.05183e-18 0.000104499)
(0.00292199 -0.00630261 7.76023e-19 -0.00290398 -2.11082e-18 -1.80066e-05)
(0.00154921 -0.0030296 -4.04538e-20 -0.00161069 -7.00338e-20 6.14865e-05)
(0.000713591 -0.00079293 1.57156e-19 -0.000718828 -9.25363e-19 5.23676e-06)
(0.000484625 0.000805077 2.46887e-20 -0.00052738 9.68588e-19 4.27544e-05)
(0.000466884 0.00197049 -8.05283e-20 -0.000501654 -3.70123e-19 3.47694e-05)
(0.000611079 0.00274937 -3.38936e-21 -0.000645793 -6.23588e-19 3.47138e-05)
(0.000848543 0.00330251 4.28038e-20 -0.000884413 -4.45882e-19 3.58701e-05)
(0.00112017 0.00367736 1.99316e-20 -0.00114643 -2.52774e-20 2.62567e-05)
(0.00142905 0.00388661 2.65278e-20 -0.00145401 2.81892e-20 2.49578e-05)
(0.00175251 0.003968 2.62884e-21 -0.00177114 8.54599e-20 1.86335e-05)
(0.00210997 0.00389907 -4.53111e-20 -0.0021342 1.3587e-19 2.42275e-05)
(0.00243904 0.00356531 -3.79539e-20 -0.00246564 -4.48967e-19 2.66016e-05)
(0.00266321 0.00292486 -4.0375e-20 -0.00268715 -1.80292e-19 2.39397e-05)
(0.00272029 0.00208183 8.45152e-20 -0.00273435 -2.8333e-19 1.40525e-05)
(0.0025839 0.0011805 -1.50995e-20 -0.00258462 -2.65272e-19 7.1502e-07)
(0.00221686 0.000357908 -2.30592e-19 -0.00219807 2.68995e-19 -1.87872e-05)
(0.00155391 -0.000254678 -7.871e-20 -0.00150628 -1.08566e-18 -4.76315e-05)
(0.000533462 -0.000474719 1.9415e-19 -0.000447649 2.68424e-19 -8.58134e-05)
(-0.000921062 -0.000178873 2.64556e-19 0.00104575 1.12519e-18 -0.000124692)
(-0.0029893 0.000519582 -1.8823e-19 0.00314205 6.31807e-19 -0.000152757)
(-0.00602978 0.00125034 4.35242e-19 0.00620168 2.61602e-18 -0.000171891)
(-0.0100684 0.00267824 1.81142e-19 0.0102498 8.07396e-19 -0.000181388)
(-0.015136 0.00499921 -4.03236e-19 0.0153024 9.07047e-19 -0.000166332)
(-0.0213715 0.00837703 -4.81595e-19 0.0214723 -9.57124e-19 -0.000100801)
(-0.0291232 0.0131517 3.28533e-19 0.0289741 2.00554e-18 0.000149041)
(-0.0383987 0.0200901 3.03478e-19 0.0378656 -2.11148e-18 0.000533075)
(-0.0477275 0.0292885 5.34694e-19 0.0479949 1.92496e-18 -0.000267418)
(-0.0754429 0.0402208 -4.34812e-19 0.0716553 -9.60245e-19 0.00378756)
(-0.0649364 0.0875937 2.14766e-20 0.0708464 -5.07279e-19 -0.00591007)
(-0.160765 0.00971207 4.52732e-19 0.159267 1.70854e-18 0.00149744)
(0.00198114 -0.00264939 -1.52686e-22 -0.00208385 -7.12916e-22 0.00010271)
(-0.000273124 -0.00294737 -3.99167e-22 8.35156e-05 2.84486e-21 0.000189608)
(-0.000853891 -0.00211789 -1.49637e-20 0.000836378 -3.44175e-20 1.75136e-05)
(0.00329706 0.00148709 -2.00353e-20 -0.00319781 -3.93856e-20 -9.92542e-05)
(0.065039 0.0215139 4.01323e-20 -0.0655674 4.75981e-20 0.000528394)
(0.330854 0.0437324 2.45606e-19 -0.334588 7.34462e-21 0.00373371)
(0.495785 -0.0453167 2.59625e-19 -0.493891 -1.40681e-18 -0.00189361)
(0.300276 -0.138188 9.10973e-19 -0.304434 -1.42493e-18 0.00415784)
(0.10419 -0.0946205 -4.14264e-19 -0.0980752 1.23406e-18 -0.00611472)
(0.0481905 -0.0577303 2.33667e-19 -0.0466705 4.01847e-19 -0.00152002)
(0.0261676 -0.0360325 -3.56398e-19 -0.0261281 1.13099e-18 -3.95346e-05)
(0.0153404 -0.0258254 -5.84692e-19 -0.0153742 1.27156e-18 3.38246e-05)
(0.00979937 -0.0188079 4.69257e-19 -0.00989949 -9.60109e-19 0.000100117)
(0.00625416 -0.01385 -1.19572e-19 -0.00618527 9.45314e-19 -6.88951e-05)
(0.00446391 -0.0104697 -2.02376e-19 -0.00444224 -1.06599e-18 -2.16686e-05)
(0.00344049 -0.00799181 -1.13099e-19 -0.00340859 -4.60432e-19 -3.18918e-05)
(0.00293387 -0.00641099 5.45559e-20 -0.00290775 2.27421e-19 -2.6123e-05)
(0.00272821 -0.00531568 1.16167e-19 -0.00271769 1.31217e-20 -1.05247e-05)
(0.00264724 -0.00468301 3.14469e-20 -0.00263433 5.41023e-20 -1.2904e-05)
(0.00266454 -0.00441617 -1.22729e-20 -0.0026657 -7.7934e-20 1.15463e-06)
(0.00269841 -0.00443758 -2.7582e-20 -0.00269564 -1.98272e-19 -2.76991e-06)
(0.00281214 -0.00469609 2.71115e-20 -0.00280999 -2.82576e-19 -2.14979e-06)
(0.00299482 -0.0052469 2.34392e-20 -0.00299759 -1.28164e-19 2.77706e-06)
(0.00312566 -0.00609591 8.91798e-21 -0.00313554 1.1892e-19 9.87808e-06)
(0.00309944 -0.00705927 -6.90437e-20 -0.00310903 7.14651e-19 9.59376e-06)
(0.00285495 -0.00796018 2.5552e-19 -0.00286419 -8.14331e-19 9.23884e-06)
(0.00229506 -0.00866172 1.82141e-19 -0.00230581 -6.26924e-19 1.0756e-05)
(0.00127464 -0.00903127 2.0033e-19 -0.00128888 1.5326e-18 1.42378e-05)
(-0.000391692 -0.00893107 -6.4264e-20 0.000374451 4.08248e-19 1.72415e-05)
(-0.00293576 -0.00825785 -5.6131e-19 0.00291512 -5.97862e-19 2.06417e-05)
(-0.00663834 -0.00692251 1.80241e-19 0.00661388 -1.08297e-18 2.446e-05)
(-0.0117823 -0.00471532 -4.52794e-19 0.011754 6.59324e-19 2.82198e-05)
(-0.0185334 -0.00113917 4.03258e-19 0.0184978 -5.59003e-19 3.55183e-05)
(-0.0270519 0.00411831 4.55717e-19 0.0270226 -1.42219e-18 2.93545e-05)
(-0.0375632 0.0113719 4.48988e-19 0.0375638 8.29404e-19 -6.1487e-07)
(-0.0507017 0.0211334 4.79982e-19 0.0506059 1.79663e-18 9.5846e-05)
(-0.0665552 0.0347541 3.90059e-19 0.0662471 1.8884e-18 0.000308071)
(-0.0818991 0.0533286 -5.84098e-19 0.0831696 -2.35458e-18 -0.00127044)
(-0.121455 0.0732378 3.32023e-20 0.117302 -8.20767e-19 0.00415361)
(-0.111102 0.15656 -2.09435e-19 0.119302 -1.70363e-18 -0.00819952)
(-0.150449 0.0930976 -4.85593e-19 0.146353 -8.16569e-19 0.00409588)
(0.00155747 -0.0019661 1.38981e-21 -0.00154734 3.34792e-21 -1.01377e-05)
(0.000436872 -0.00224598 -2.27276e-21 -0.000383119 -4.4944e-21 -5.37534e-05)
(-0.000691345 -0.00229545 1.15316e-20 0.000696199 2.34782e-20 -4.85409e-06)
(-0.000528161 -0.0011002 1.46326e-20 0.000547835 2.57722e-20 -1.96743e-05)
(0.00163219 0.000486644 -1.49716e-20 -0.00159158 -2.22813e-20 -4.06053e-05)
(0.0599999 0.015673 3.50063e-20 -0.0601675 -1.15728e-20 0.000167512)
(0.315383 0.030787 -7.42358e-20 -0.318932 -8.99512e-21 0.0035489)
(0.560205 -0.0477214 -2.54274e-19 -0.558013 3.20817e-19 -0.00219193)
(0.44731 -0.169116 4.06932e-19 -0.453699 -1.82158e-19 0.0063898)
(0.18826 -0.152789 9.83009e-21 -0.184988 1.77362e-19 -0.00327222)
(0.0857772 -0.0964875 3.63727e-19 -0.08112 -2.36166e-18 -0.00465717)
(0.0463667 -0.0621686 -2.5912e-19 -0.0457766 4.00142e-19 -0.000590113)
(0.028657 -0.0453241 -2.9316e-19 -0.0290528 2.34367e-19 0.000395728)
(0.0182772 -0.0343696 3.40272e-19 -0.0183643 -2.33836e-18 8.71009e-05)
(0.0124496 -0.0276707 2.6981e-19 -0.012469 1.34533e-19 1.94144e-05)
(0.0090029 -0.0225444 1.70177e-19 -0.00897913 1.78717e-19 -2.37689e-05)
(0.00699158 -0.0193452 -1.58648e-19 -0.00695603 6.34299e-19 -3.55454e-05)
(0.00584523 -0.0171316 -1.00606e-20 -0.00583307 1.39168e-19 -1.21595e-05)
(0.00508378 -0.0158448 3.71489e-20 -0.00505864 -6.76984e-20 -2.51397e-05)
(0.00461442 -0.0152342 4.82276e-20 -0.00460822 5.03053e-20 -6.20173e-06)
(0.00424852 -0.0150663 -1.04402e-20 -0.0042337 2.33832e-19 -1.482e-05)
(0.00409323 -0.0151991 -9.03609e-20 -0.00407771 2.31375e-19 -1.55145e-05)
(0.00415323 -0.0156638 1.24265e-19 -0.00413635 1.77213e-19 -1.68849e-05)
(0.00425022 -0.0164847 1.52619e-19 -0.00424033 4.05825e-19 -9.8878e-06)
(0.0042108 -0.0174541 -1.80519e-19 -0.00420365 -9.96084e-20 -7.15445e-06)
(0.00389892 -0.0183858 -1.35165e-19 -0.00389514 2.06066e-18 -3.77992e-06)
(0.00312605 -0.0191046 8.33352e-20 -0.00312498 -3.16168e-20 -1.06674e-06)
(0.00164322 -0.0194072 -2.98417e-19 -0.00164612 -8.38757e-19 2.89774e-06)
(-0.000857478 -0.0190666 -5.06876e-19 0.000850362 -1.61786e-18 7.11663e-06)
(-0.00472456 -0.0178222 3.68998e-19 0.00471144 -6.65987e-19 1.31135e-05)
(-0.0103242 -0.0153452 1.22149e-19 0.0103058 1.77306e-18 1.83362e-05)
(-0.0180022 -0.0112024 2.65494e-19 0.0179789 -1.07281e-18 2.3364e-05)
(-0.0280589 -0.00486094 -2.39343e-19 0.0280226 2.98593e-18 3.6376e-05)
(-0.0407357 0.00419503 -9.08634e-19 0.0407014 1.47743e-19 3.43639e-05)
(-0.0562906 0.0164876 -3.41068e-19 0.0562961 6.25296e-19 -5.44207e-06)
(-0.0755148 0.0327542 -4.6385e-19 0.0753891 7.4788e-19 0.000125661)
(-0.098405 0.0550721 -6.4759e-20 0.0979964 -3.72876e-20 0.00040867)
(-0.119932 0.0862391 2.24136e-20 0.121672 7.45276e-20 -0.00174024)
(-0.166065 0.117442 -2.88174e-20 0.160949 1.63328e-18 0.00511568)
(-0.162462 0.229358 -2.13902e-20 0.172871 -1.12601e-18 -0.0104089)
(-0.149256 0.179798 6.26264e-19 0.142849 -7.58459e-19 0.00640752)
(0.00118732 -0.00136513 -1.38496e-21 -0.00119675 -2.35867e-21 9.43025e-06)
(0.000456539 -0.00159911 7.09015e-21 -0.000440865 1.16052e-20 -1.56738e-05)
(-0.000185349 -0.00161761 -3.59706e-21 0.00019513 -7.88254e-21 -9.78125e-06)
(-0.000787572 -0.00159119 -3.29144e-21 0.000779229 -8.82492e-21 8.34302e-06)
(-0.000408304 -0.000650895 2.06143e-21 0.000411734 4.97838e-21 -3.43031e-06)
(0.00071507 8.56892e-05 -1.85113e-21 -0.000694135 -1.83122e-21 -2.09349e-05)
(0.0411909 0.00817949 -2.49527e-20 -0.0411052 -2.56666e-20 -8.57524e-05)
(0.253419 0.0183099 -8.13391e-20 -0.255496 1.0079e-19 0.00207768)
(0.568039 -0.0458774 -1.71093e-19 -0.568009 -1.6481e-19 -2.97166e-05)
(0.585146 -0.180858 -3.70212e-19 -0.58866 -9.7336e-19 0.00351382)
(0.326623 -0.222892 3.78675e-19 -0.332686 5.69451e-19 0.00606272)
(0.142333 -0.148476 6.06366e-19 -0.134284 -8.35003e-19 -0.00804955)
(0.0765255 -0.101341 -8.10343e-19 -0.0738103 6.23251e-19 -0.00271513)
(0.0468859 -0.0710433 3.55114e-19 -0.0468563 1.08513e-18 -2.9565e-05)
(0.030019 -0.0555796 1.74513e-20 -0.0303828 4.78999e-19 0.000363831)
(0.0203675 -0.0446878 -2.28508e-19 -0.0205208 -8.61626e-20 0.00015332)
(0.014592 -0.0381018 1.61067e-19 -0.0145503 -9.00684e-19 -4.17466e-05)
(0.0112676 -0.0335367 -3.42001e-20 -0.0112557 5.85963e-19 -1.191e-05)
(0.00907545 -0.0307195 7.09556e-20 -0.00903785 -1.1147e-19 -3.75978e-05)
(0.00772071 -0.0292195 4.69792e-20 -0.00772298 2.04264e-19 2.27074e-06)
(0.00674337 -0.0285252 -6.34999e-20 -0.00673142 -2.94611e-19 -1.19526e-05)
(0.00624807 -0.0283455 3.01522e-20 -0.00624336 1.19829e-20 -4.70982e-06)
(0.00618318 -0.0286513 1.40629e-20 -0.00617459 1.02032e-19 -8.58456e-06)
(0.00627539 -0.0294809 -2.97907e-19 -0.00627221 -3.42952e-19 -3.17924e-06)
(0.00626419 -0.0305728 3.24359e-19 -0.00626055 -8.06821e-19 -3.63976e-06)
(0.00592144 -0.0316936 4.45442e-20 -0.00591809 -4.32481e-19 -3.34695e-06)
(0.00495942 -0.032581 -5.3941e-19 -0.00495607 -4.33419e-19 -3.34477e-06)
(0.00301105 -0.0329014 5.3499e-20 -0.00300868 -9.7695e-19 -2.36737e-06)
(-0.000363173 -0.0322627 8.52395e-19 0.000363304 -1.19206e-19 -1.30975e-07)
(-0.00563911 -0.0302114 3.38842e-19 0.00563279 1.43001e-18 6.31607e-06)
(-0.0132989 -0.0261961 -4.14774e-19 0.0132867 -7.82038e-19 1.22555e-05)
(-0.0237982 -0.0195847 -4.98565e-19 0.0237829 6.41062e-19 1.52426e-05)
(-0.037547 -0.00967788 -2.12419e-19 0.0375156 -3.1793e-18 3.13707e-05)
(-0.0548347 0.00430452 7.87732e-19 0.0548042 -1.98204e-18 3.05609e-05)
(-0.0758733 0.0231478 6.3176e-19 0.0758902 -1.80575e-18 -1.68445e-05)
(-0.101414 0.0478189 -1.39307e-19 0.101255 -6.29132e-20 0.000159272)
(-0.131078 0.081108 1.38729e-19 0.130612 1.45371e-18 0.000466147)
(-0.158136 0.127209 3.64835e-20 0.160144 -8.2131e-19 -0.00200785)
(-0.205365 0.172477 -2.62873e-19 0.199662 7.55805e-19 0.00570231)
(-0.211515 0.301376 -5.57493e-19 0.222769 1.79114e-18 -0.0112543)
(-0.160609 0.274266 -5.19638e-19 0.154289 -8.98314e-19 0.00631969)
(0.00091814 -0.000929977 -3.34952e-22 -0.000923942 -6.1658e-22 5.80225e-06)
(0.000457114 -0.00116354 7.81768e-22 -0.00045728 9.12515e-22 1.66079e-07)
(2.95516e-05 -0.00117722 -3.69673e-21 -2.74599e-05 -4.92842e-21 -2.09175e-06)
(-0.000383444 -0.00118407 -5.67183e-21 0.0003874 -7.11171e-21 -3.95653e-06)
(-0.000717885 -0.00108286 -2.02618e-21 0.000714062 -2.368e-21 3.82301e-06)
(-0.000389851 -0.000479557 4.98833e-21 0.000388817 6.91308e-21 1.03416e-06)
(0.0002892 -7.73826e-05 -1.38977e-21 -0.000278245 -2.10729e-21 -1.09552e-05)
(0.0190865 0.0025489 2.03088e-20 -0.0189735 2.23729e-20 -0.000112933)
(0.170776 0.00816149 2.42965e-19 -0.171429 2.34131e-19 0.000653582)
(0.494247 -0.0398854 -1.726e-19 -0.496368 3.9548e-19 0.00212122)
(0.672334 -0.165778 -2.78682e-19 -0.670377 6.52528e-19 -0.00195672)
(0.505414 -0.27511 2.76663e-19 -0.515812 -1.07688e-18 0.0103972)
(0.2462 -0.232372 4.39832e-19 -0.245309 1.33034e-18 -0.00089178)
(0.121079 -0.152465 -7.8828e-19 -0.113253 -3.00119e-19 -0.0078259)
(0.071509 -0.108603 3.35441e-19 -0.0699407 -1.34854e-18 -0.0015683)
(0.0468214 -0.0829883 -2.23989e-19 -0.0472176 7.73274e-19 0.000396155)
(0.0312392 -0.0679558 1.39937e-19 -0.0315317 7.59322e-19 0.000292543)
(0.022102 -0.0578626 1.58643e-19 -0.0222656 3.91122e-19 0.000163614)
(0.0163633 -0.0515072 -8.28106e-20 -0.0163095 3.45754e-19 -5.38191e-05)
(0.0129932 -0.0479415 9.16167e-21 -0.0129844 -1.00104e-18 -8.82544e-06)
(0.0107758 -0.0460607 2.18917e-20 -0.0107357 4.27252e-19 -4.01376e-05)
(0.00967162 -0.0452842 -1.31894e-19 -0.00965922 -8.51585e-21 -1.2404e-05)
(0.0093969 -0.0453782 1.24416e-19 -0.00938456 -4.80841e-19 -1.23331e-05)
(0.0094912 -0.0463179 2.04981e-19 -0.0094897 -7.1228e-20 -1.4985e-06)
(0.00957272 -0.0477054 -1.80053e-19 -0.00957372 1.03896e-18 1.0033e-06)
(0.00929034 -0.0492046 -3.25159e-19 -0.00929205 -9.12571e-19 1.70601e-06)
(0.0082476 -0.0504248 4.13948e-19 -0.00824888 -5.44509e-19 1.28484e-06)
(0.00595063 -0.0508545 2.09718e-19 -0.00595048 1.64535e-18 -1.53305e-07)
(0.00181355 -0.0498796 1.44703e-19 -0.0018137 1.80198e-18 1.50785e-07)
(-0.00478395 -0.046825 -2.04872e-19 0.00477799 -3.27289e-19 5.95589e-06)
(-0.0144566 -0.0408881 -1.98114e-20 0.0144441 -1.19064e-18 1.24748e-05)
(-0.027772 -0.0311898 -4.07781e-19 0.0277583 -3.57549e-19 1.37427e-05)
(-0.0452131 -0.0167832 -1.93765e-19 0.0451815 1.49664e-18 3.15766e-05)
(-0.06706 0.00341005 9.61141e-20 0.0670302 2.299e-18 2.97557e-05)
(-0.0933648 0.03045 1.3586e-18 0.0933856 7.60518e-19 -2.08042e-05)
(-0.124564 0.0654661 2.17346e-19 0.124374 -8.4903e-19 0.000189667)
(-0.159554 0.111661 -1.59037e-18 0.159128 -7.447e-19 0.000425908)
(-0.190491 0.173399 3.4594e-20 0.192472 -2.16029e-19 -0.00198118)
(-0.234028 0.234849 -2.55195e-20 0.228621 -1.88127e-18 0.00540711)
(-0.24794 0.369185 -1.35759e-19 0.258156 6.03041e-19 -0.0102159)
(-0.176952 0.370906 4.39151e-19 0.1736 1.60999e-18 0.00335271)
(0.000696603 -0.000650267 -6.91698e-23 -0.000702572 -1.4515e-23 5.96829e-06)
(0.000424246 -0.000832531 -1.41677e-21 -0.000423183 -1.93288e-21 -1.06317e-06)
(0.000135219 -0.000909834 1.37113e-21 -0.000133629 1.86551e-21 -1.59003e-06)
(-0.000139087 -0.000874351 6.3414e-21 0.000142485 8.50336e-21 -3.39858e-06)
(-0.000416049 -0.000850734 1.1963e-21 0.00042127 1.66677e-21 -5.22048e-06)
(-0.000635538 -0.000776881 1.07819e-21 0.000634609 5.67947e-22 9.28831e-07)
(-0.000378618 -0.000377699 -7.64867e-21 0.000375883 -8.43694e-21 2.73461e-06)
(1.95046e-05 -0.000160919 -3.45669e-22 -1.51405e-05 -2.34558e-22 -4.36405e-06)
(0.00527482 0.000213703 -1.11982e-20 -0.00521979 -1.61629e-20 -5.50295e-05)
(0.0924557 0.00167591 1.75479e-19 -0.0924326 1.98012e-19 -2.31412e-05)
(0.356603 -0.0286233 -2.80877e-19 -0.358116 -6.93438e-19 0.0015137)
(0.659986 -0.139133 -1.03543e-19 -0.659225 8.60516e-19 -0.000761672)
(0.66955 -0.281757 1.44564e-19 -0.67324 -1.03062e-18 0.00368944)
(0.416986 -0.322797 -3.53134e-19 -0.427483 -3.93595e-19 0.0104967)
(0.201499 -0.235255 9.40287e-19 -0.195443 -2.78211e-19 -0.00605619)
(0.108763 -0.161602 3.84169e-19 -0.102208 8.35183e-19 -0.00655467)
(0.0688913 -0.120247 -3.53416e-19 -0.0679849 5.16804e-19 -0.000906411)
(0.0465921 -0.0975637 -3.82378e-19 -0.0472319 4.40749e-19 0.00063986)
(0.0321448 -0.0835131 -6.15123e-19 -0.0324542 -3.64886e-20 0.000309402)
(0.0233192 -0.0748908 4.82632e-19 -0.0234846 -6.10529e-19 0.000165386)
(0.017848 -0.069964 1.92628e-19 -0.0177837 8.4549e-19 -6.4344e-05)
(0.0151911 -0.0677695 -3.52405e-19 -0.0151482 -2.05829e-19 -4.28557e-05)
(0.0143044 -0.0672761 1.23914e-19 -0.0142569 3.54793e-19 -4.74561e-05)
(0.0142939 -0.0682786 9.27425e-20 -0.0142663 2.35499e-19 -2.7605e-05)
(0.0145422 -0.0700963 1.76161e-20 -0.0145288 -3.77588e-19 -1.34347e-05)
(0.0144992 -0.072204 -2.35804e-20 -0.0144944 5.31677e-19 -4.77284e-06)
(0.0136263 -0.0740141 3.38703e-19 -0.0136313 1.38162e-18 5.03596e-06)
(0.0112883 -0.0747686 3.08555e-19 -0.0113003 -5.47273e-19 1.19853e-05)
(0.00673672 -0.0735226 -4.55777e-19 -0.00675191 3.89796e-20 1.51918e-05)
(-0.000791359 -0.069353 -9.90694e-19 0.000772345 -1.14627e-18 1.90135e-05)
(-0.0120429 -0.06116 2.52699e-19 0.0120178 7.15695e-20 2.51243e-05)
(-0.0276693 -0.0477596 5.68637e-19 0.0276441 -1.059e-18 2.52632e-05)
(-0.0481682 -0.027918 6.33378e-19 0.0481273 3.30521e-19 4.086e-05)
(-0.0737285 -0.000277267 -4.28766e-19 0.0736911 -1.73367e-19 3.74103e-05)
(-0.10411 0.0364259 -7.75048e-19 0.104116 1.5287e-18 -5.97916e-06)
(-0.139134 0.0833264 -6.09288e-19 0.138917 -1.43974e-18 0.000217223)
(-0.176733 0.143425 9.79253e-19 0.176406 -2.25298e-19 0.000326857)
(-0.208721 0.219716 2.37579e-20 0.210344 3.69854e-19 -0.00162281)
(-0.244654 0.297203 2.0949e-19 0.240463 -3.56665e-19 0.00419028)
(-0.259991 0.426471 -1.74098e-19 0.267074 -8.29349e-19 -0.00708238)
(-0.187001 0.455091 -4.60459e-19 0.188573 5.41244e-19 -0.00157159)
(0.000531222 -0.000462048 -2.22504e-22 -0.000535379 -7.59943e-23 4.15768e-06)
(0.000359762 -0.000595674 -1.19274e-21 -0.000359127 -1.85546e-21 -6.34652e-07)
(0.000177995 -0.000674158 4.9858e-21 -0.000177644 5.68311e-21 -3.51464e-07)
(-1.47903e-05 -0.000691049 -6.66864e-22 1.46978e-05 -8.58914e-22 9.25646e-08)
(-0.000195183 -0.000637081 1.78194e-21 0.000196848 1.65653e-21 -1.66506e-06)
(-0.000394221 -0.000620827 -1.60803e-21 0.000398599 -1.46248e-21 -4.37782e-06)
(-0.000510868 -0.000523473 3.91142e-21 0.000512037 5.24813e-21 -1.16871e-06)
(-0.000359101 -0.000299945 3.09417e-21 0.000356818 2.59304e-21 2.28278e-06)
(-0.000155977 -0.000194923 5.2101e-23 0.000156259 9.54659e-22 -2.81059e-07)
(0.000391231 -6.53065e-05 4.26399e-21 -0.000385473 3.78093e-21 -5.75796e-06)
(0.0357273 -0.000916164 -5.20284e-21 -0.0355826 5.40711e-21 -0.000144705)
(0.205206 -0.0179607 -3.24349e-19 -0.205534 -2.18171e-19 0.000328537)
(0.525144 -0.100141 2.02151e-19 -0.526218 -3.98902e-19 0.00107339)
(0.737379 -0.246891 -4.94543e-19 -0.735486 9.33534e-19 -0.00189311)
(0.621025 -0.368978 -2.54598e-19 -0.630393 -9.36425e-19 0.00936813)
(0.352954 -0.34886 5.49693e-19 -0.36061 7.47608e-19 0.00765618)
(0.176919 -0.245095 3.42131e-19 -0.168463 -1.55136e-18 -0.00845589)
(0.10158 -0.175656 1.63292e-19 -0.0957353 5.77765e-19 -0.00584508)
(0.0673601 -0.137016 -7.37314e-19 -0.0668356 -1.12692e-18 -0.00052453)
(0.046264 -0.116486 2.99533e-19 -0.0470577 1.19321e-18 0.000793745)
(0.032606 -0.104747 7.36401e-20 -0.0329551 -8.78296e-19 0.00034915)
(0.0253273 -0.0989917 -3.28807e-19 -0.0254669 4.31493e-19 0.000139535)
(0.0222268 -0.0968099 2.46932e-19 -0.0221716 5.31093e-21 -5.51819e-05)
(0.0214169 -0.0974032 -4.30316e-20 -0.0213373 2.70185e-20 -7.96187e-05)
(0.0216907 -0.0995807 -8.97171e-20 -0.0216346 7.39104e-19 -5.61571e-05)
(0.022062 -0.102345 1.08998e-19 -0.0220218 -1.76273e-19 -4.02181e-05)
(0.0217558 -0.104832 -7.68062e-19 -0.0217339 5.83835e-21 -2.19534e-05)
(0.0199637 -0.106059 -3.75204e-19 -0.0199594 1.91371e-19 -4.3673e-06)
(0.0157595 -0.104782 -1.94234e-19 -0.015775 -1.22144e-18 1.55305e-05)
(0.00821221 -0.0996185 9.4961e-19 -0.00825286 1.00696e-19 4.06443e-05)
(-0.0035403 -0.0890855 1.59062e-19 0.0034735 8.19142e-19 6.6806e-05)
(-0.0201973 -0.0716149 2.91986e-19 0.0201219 9.05519e-19 7.54155e-05)
(-0.0421987 -0.0456893 -6.04284e-19 0.042119 2.70505e-19 7.96846e-05)
(-0.0695371 -0.00978735 4.98022e-19 0.0694688 -1.20625e-18 6.8301e-05)
(-0.101562 0.0373745 2.81985e-19 0.101528 -1.42367e-19 3.4072e-05)
(-0.137264 0.0966581 1.02288e-18 0.137034 3.15847e-19 0.000229973)
(-0.17361 0.170011 -1.51051e-18 0.173387 4.751e-19 0.000223381)
(-0.202818 0.257997 -1.21603e-19 0.203936 1.02356e-19 -0.00111791)
(-0.228431 0.347505 2.90856e-19 0.225959 4.6168e-19 0.00247236)
(-0.240236 0.463781 4.86556e-19 0.243577 1.07252e-20 -0.00334104)
(-0.178346 0.508617 6.76198e-20 0.184572 -1.18366e-18 -0.00622558)
(0.000403912 -0.000332232 -8.75466e-22 -0.000406875 -1.01906e-21 2.96314e-06)
(0.000292447 -0.0004294 3.54663e-21 -0.000292548 3.712e-21 1.01232e-07)
(0.00017572 -0.00049303 -8.30236e-22 -0.000175741 -7.40431e-22 2.09841e-08)
(4.86827e-05 -0.000526837 -6.52748e-21 -4.88412e-05 -6.89753e-21 1.58511e-07)
(-8.1778e-05 -0.000518608 -6.13874e-22 8.15702e-05 -8.20192e-22 2.07811e-07)
(-0.000201304 -0.000468205 6.4572e-21 0.000202154 6.9191e-21 -8.49674e-07)
(-0.000339818 -0.000443573 -1.65652e-21 0.000342857 -2.18793e-21 -3.03815e-06)
(-0.000399177 -0.000350386 -1.44482e-20 0.000401239 -1.43859e-20 -2.06142e-06)
(-0.000325225 -0.000230471 1.03781e-20 0.000324251 1.00391e-20 9.73892e-07)
(-0.000232693 -0.000177144 5.2414e-22 0.000231042 -5.05231e-22 1.65098e-06)
(0.000207323 -0.000362918 -1.51006e-21 -0.000200788 -2.49745e-21 -6.53511e-06)
(0.00776383 -0.000907898 -9.39376e-21 -0.00770194 -5.31898e-21 -6.18896e-05)
(0.089114 -0.00973413 -1.92162e-19 -0.0889768 -1.26744e-19 -0.000137212)
(0.327627 -0.0596773 1.74918e-19 -0.328226 -1.3505e-19 0.000598919)
(0.644393 -0.186051 -6.45288e-19 -0.644031 6.78635e-19 -0.000362008)
(0.758138 -0.344026 6.004e-19 -0.757622 -4.00218e-19 -0.000516383)
(0.571578 -0.432058 -5.05236e-19 -0.584038 7.56383e-19 0.0124606)
(0.315393 -0.373981 -1.09163e-19 -0.320587 -1.81876e-19 0.00519402)
(0.163931 -0.265081 -2.4001e-19 -0.154622 -3.5825e-19 -0.00930882)
(0.0972875 -0.197073 2.89911e-19 -0.0914072 -1.04144e-18 -0.00588027)
(0.0659189 -0.161677 4.55021e-19 -0.0654223 3.29341e-19 -0.000496547)
(0.0476851 -0.145305 -2.4445e-19 -0.0486113 -9.98892e-19 0.000926251)
(0.0378645 -0.138129 -2.26661e-19 -0.0384256 4.4981e-19 0.000561138)
(0.0334286 -0.136591 7.04898e-19 -0.0336478 -5.86026e-19 0.000219245)
(0.0322608 -0.138431 -4.14519e-19 -0.0322544 4.90883e-20 -6.36324e-06)
(0.0326762 -0.141994 -5.65584e-19 -0.0325697 -3.69334e-19 -0.000106488)
(0.0333267 -0.145711 1.00483e-18 -0.0332269 -1.41905e-18 -9.98084e-05)
(0.0329316 -0.147814 -2.2755e-20 -0.0328703 1.0707e-18 -6.12745e-05)
(0.0302565 -0.146589 -3.31984e-22 -0.0302387 -6.5321e-20 -1.77132e-05)
(0.024236 -0.140419 -6.01068e-19 -0.0242549 1.05523e-18 1.88918e-05)
(0.0139389 -0.12758 6.54043e-20 -0.0139966 -6.36915e-19 5.76943e-05)
(-0.00138832 -0.106054 -1.29248e-20 0.00128865 3.29249e-19 9.96699e-05)
(-0.0221052 -0.0739996 -6.84106e-19 0.0219644 -5.76174e-19 0.000140789)
(-0.0479417 -0.0298737 3.68425e-19 0.0477699 1.71903e-18 0.000171809)
(-0.0777927 0.0273597 -5.24027e-19 0.0776241 2.85917e-19 0.000168621)
(-0.109831 0.0978939 -4.89874e-19 0.109522 5.80384e-22 0.0003093)
(-0.140357 0.18178 7.03316e-19 0.140127 -1.85146e-18 0.000230243)
(-0.162611 0.276782 -8.15039e-20 0.16326 7.7557e-19 -0.000648623)