/*--------------------------------*- C++ -*----------------------------------*\
| =========                 |                                                 |
| \\      /  F ield         | OpenFOAM: The Open Source CFD Toolbox           |
|  \\    /   O peration     | Version:  2312                                  |
|   \\  /    A nd           | Website:  www.openfoam.com                      |
|    \\/     M anipulation  |                                                 |
\*---------------------------------------------------------------------------*/
FoamFile
{
    version     2.0;
    format      ascii;
    arch        "LSB;label=32;scalar=64";
    class       volSymmTensorField;
    location    "750";
    object      turbulenceProperties:R;
}
// * * * * * * * * * * * * * * * * * * * * * * * * * * * * * * * * * * * * * //

dimensions      [0 2 -2 0 0 0 0];

internalField   nonuniform List<symmTensor> 
11040
(
(0.2838 0.0754553 -1.40658e-22 0.247392 9.3209e-21 0.277464)
(0.351109 0.0743009 8.15798e-21 0.226702 1.15123e-19 0.305198)
(0.0540498 0.00588061 -1.8099e-20 0.0401423 5.57189e-20 0.0457215)
(0.0271267 0.00903366 -5.94067e-20 0.0360114 3.34393e-20 0.0310273)
(0.119136 0.0464506 -2.12489e-20 0.251511 1.913e-19 0.184973)
(0.130363 0.0569048 -2.91586e-19 0.250393 1.06293e-19 0.189401)
(0.129973 0.0595855 1.6697e-19 0.23095 -1.09666e-18 0.180116)
(0.1238 0.0578408 2.3178e-19 0.205865 -1.60398e-19 0.164665)
(0.116186 0.0544073 9.91946e-20 0.181259 -2.87204e-20 0.148624)
(0.11203 0.0523228 9.22159e-20 0.16511 1.46537e-19 0.138608)
(0.107535 0.0497249 -8.15576e-20 0.150779 3.47615e-19 0.129176)
(0.103493 0.0472319 -1.21624e-19 0.138455 2.61472e-19 0.121033)
(0.10025 0.0450318 2.03046e-20 0.128282 -1.4954e-19 0.114369)
(0.097964 0.0432863 2.51695e-20 0.12034 1.46537e-19 0.109253)
(0.0963476 0.0418304 -1.12804e-20 0.113761 1.08752e-20 0.105188)
(0.0963909 0.0412016 -4.22106e-21 0.109665 -1.88217e-19 0.103172)
(0.0981707 0.0414169 5.19969e-20 0.107766 -5.97523e-22 0.103134)
(0.101928 0.0425439 -5.16738e-21 0.108062 3.42524e-19 0.105182)
(0.107481 0.0444343 -2.95283e-20 0.110116 3.02166e-21 0.109005)
(0.114865 0.0470484 4.816e-21 0.11375 -5.00287e-20 0.114542)
(0.124378 0.0504692 2.27483e-20 0.119077 3.83275e-20 0.121973)
(0.135669 0.0545963 -2.50761e-20 0.125992 1.16237e-19 0.131076)
(0.1486 0.0594437 1.06665e-21 0.134628 -9.59053e-20 0.141878)
(0.163545 0.0650698 1.28626e-20 0.144969 2.48106e-19 0.154536)
(0.180639 0.0714829 -7.54859e-20 0.156939 -2.23888e-19 0.169062)
(0.200564 0.0789915 -4.05311e-20 0.171094 -5.25145e-19 0.186077)
(0.222839 0.0873762 1.10113e-20 0.186971 -2.45429e-19 0.20511)
(0.244516 0.0954076 3.31084e-20 0.202154 7.05762e-20 0.223475)
(0.263708 0.102364 -2.22951e-20 0.215201 -2.0162e-19 0.239501)
(0.278192 0.107434 1.36575e-20 0.224494 -4.71931e-19 0.251277)
(0.285604 0.10976 1.2006e-19 0.22832 3.39551e-19 0.256781)
(0.283906 0.108578 1.98675e-20 0.225124 -2.80567e-20 0.254221)
(0.273407 0.1041 1.03876e-19 0.21534 9.55277e-19 0.243967)
(0.257421 0.0977864 -9.01432e-20 0.201872 5.83153e-19 0.229107)
(0.243225 0.0926264 4.5749e-20 0.190704 1.02444e-20 0.21618)
(0.194406 0.0744208 1.28085e-19 0.153894 9.15014e-19 0.173183)
(0.101834 0.0389467 8.09274e-21 0.0832783 1.74479e-19 0.0917786)
(0.0602655 0.024414 -3.95026e-20 0.0538236 5.19955e-19 0.0558804)
(0.0188354 0.00903721 -4.29898e-19 0.0297305 -1.11573e-18 0.0237268)
(0.0579567 -0.0280206 1.06008e-21 0.0905346 -9.41477e-19 0.0723174)
(0.0890788 -0.0199398 2.00115e-19 0.212996 5.37673e-20 0.140902)
(0.0242158 -0.00177279 1.76072e-22 0.021269 -5.13504e-22 0.0220146)
(0.0599571 0.00147226 2.0695e-20 0.0385369 4.00843e-21 0.0412753)
(0.201966 0.0274728 4.93834e-20 0.111594 -2.57057e-19 0.158795)
(0.399891 0.0307013 7.40922e-20 0.166981 -1.67377e-19 0.284402)
(0.787225 -0.0210376 8.22599e-20 0.300347 -4.88884e-19 0.543171)
(0.245857 -0.0480698 5.60149e-19 0.115333 -1.18864e-18 0.179723)
(0.0734305 -0.0186581 -8.15653e-19 0.0396601 3.19729e-18 0.0551604)
(0.0233476 -0.00746907 -8.19117e-19 0.0148119 2.11403e-18 0.0193148)
(0.00518324 -0.00217369 -7.38621e-20 0.00453865 -1.51583e-19 0.00499491)
(0.00267749 0.00127717 -1.019e-19 0.00508636 3.95657e-20 0.00401316)
(0.00709934 0.00352699 4.50835e-19 0.0114748 -1.13349e-18 0.0092253)
(0.00989648 0.00491728 -2.05983e-21 0.0148105 -7.34173e-20 0.0121721)
(0.0120561 0.00595533 -1.62417e-19 0.0166312 6.6435e-19 0.0141715)
(0.0136793 0.0066759 -1.10298e-19 0.0179046 3.12711e-20 0.0155433)
(0.0149594 0.00718948 -4.32901e-20 0.0184969 -1.66349e-19 0.0164661)
(0.0162204 0.00766072 1.03006e-20 0.0190569 5.70329e-19 0.0173433)
(0.0177066 0.00821187 -1.42366e-20 0.0198315 1.90204e-19 0.0184415)
(0.0194174 0.00883788 -8.95838e-21 0.0207776 -5.32127e-19 0.0197395)
(0.0211888 0.00945925 -2.29029e-20 0.021721 -2.46385e-20 0.0210584)
(0.023043 0.010076 -7.13798e-21 0.0226286 7.94407e-20 0.0224168)
(0.0250229 0.0107004 -1.05845e-20 0.0235361 -1.44068e-20 0.0238482)
(0.0271829 0.0113655 3.03242e-20 0.0245511 -2.67006e-19 0.0254256)
(0.0290075 0.0118922 2.29345e-20 0.0253508 3.76605e-19 0.026713)
(0.0299956 0.0120794 -4.53603e-20 0.0254788 -3.43752e-19 0.0272668)
(0.0299676 0.0118755 -6.42922e-21 0.0248256 2.78927e-19 0.0269576)
(0.0294397 0.0115128 7.28647e-20 0.0238753 9.03395e-19 0.0262744)
(0.0286948 0.011117 1.36489e-19 0.0228909 5.00287e-19 0.0254846)
(0.0269659 0.0104118 -3.39004e-20 0.0213266 1.3899e-19 0.0239534)
(0.0242228 0.00941744 -9.0176e-20 0.0192374 2.77901e-19 0.021707)
(0.0208408 0.00829954 4.40388e-20 0.0169994 4.9556e-19 0.0191144)
(0.0177377 0.0074113 -1.09186e-19 0.0154323 -7.5668e-19 0.0170115)
(0.016033 0.00720931 -5.46549e-20 0.0157502 -1.23869e-18 0.0165745)
(0.0146006 0.00713895 -1.26976e-19 0.0174123 -2.58849e-18 0.0169886)
(0.0143363 0.00731665 7.05352e-20 0.0213203 -1.28393e-18 0.0191299)
(0.0157023 0.00780811 -9.32199e-20 0.0279682 1.20146e-19 0.0235945)
(0.0187389 0.00868815 -4.34078e-19 0.0374527 -3.95745e-18 0.0306172)
(0.0238273 0.0104163 -6.92776e-20 0.0503279 -3.45142e-19 0.0403555)
(0.0313312 0.0132289 -5.05289e-19 0.0678452 -2.3825e-18 0.0521071)
(0.0470533 0.0167902 1.24505e-18 0.11029 5.39244e-18 0.0842492)
(0.0676962 0.0317193 8.1347e-19 0.122762 4.83124e-18 0.0910091)
(0.243983 -0.11125 -4.04614e-19 0.441496 -6.72075e-19 0.41388)
(0.0146145 -0.0014837 -1.88857e-22 0.013002 -2.71946e-22 0.0139494)
(0.0122031 -0.00194486 -4.98117e-21 0.0126533 -1.27826e-20 0.0123203)
(0.0341323 0.00361394 1.55835e-20 0.0214456 7.79028e-20 0.027207)
(0.157868 0.0166341 5.30364e-20 0.0801146 8.21595e-20 0.119963)
(0.911676 0.0482406 -7.3493e-21 0.352138 -3.74464e-20 0.635172)
(1.22995 -0.0349252 -3.05202e-19 0.469363 1.19398e-18 0.847361)
(0.610486 -0.0971477 2.47214e-20 0.267135 8.18134e-21 0.437634)
(0.219674 -0.053509 9.42839e-20 0.115986 -2.45409e-18 0.162426)
(0.0995472 -0.0282055 -1.67163e-19 0.0574212 2.54605e-20 0.0778115)
(0.0587257 -0.017424 2.39411e-19 0.0348964 -6.99225e-19 0.0471598)
(0.0324433 -0.0103512 -4.40419e-19 0.0205431 1.03956e-18 0.0266481)
(0.0181286 -0.0062235 7.66282e-19 0.0123758 -2.08433e-18 0.0152255)
(0.00902549 -0.0029885 -3.9905e-20 0.00590846 -6.90837e-20 0.00755795)
(0.00304532 -0.000781497 1.5489e-19 0.00163355 -9.1202e-19 0.00234718)
(0.00256445 0.000792723 2.43099e-20 0.00156797 9.53725e-19 0.00212936)
(0.00490171 0.00193862 -7.92258e-20 0.00394884 -3.64136e-19 0.00447659)
(0.00677076 0.00270299 -3.33219e-21 0.00553509 -6.13069e-19 0.00620412)
(0.00829952 0.00324491 4.20571e-20 0.0065968 -4.38104e-19 0.00750103)
(0.0095115 0.00361191 1.95769e-20 0.00728524 -2.48275e-20 0.00843706)
(0.0104634 0.00381689 2.60519e-20 0.0076321 2.76836e-20 0.00908454)
(0.011211 0.00389736 2.58203e-21 0.00775009 8.39384e-20 0.009508)
(0.0117797 0.00383131 -4.45236e-20 0.00760926 1.33508e-19 0.00973017)
(0.0118654 0.00350582 -3.73206e-20 0.00704261 -4.41477e-19 0.00949326)
(0.0112996 0.00287876 -3.97385e-20 0.00603354 -1.7745e-19 0.00870189)
(0.010199 0.00205124 8.32735e-20 0.00482448 -2.79167e-19 0.0075325)
(0.00878077 0.0011645 -1.48949e-20 0.00368229 -2.61676e-19 0.00623259)
(0.00709994 0.000353466 -2.27731e-19 0.00273978 2.65656e-19 0.00489203)
(0.00494917 -0.000251797 -7.78197e-20 0.00192359 -1.07338e-18 0.00336574)
(0.00205623 -0.000469837 1.92153e-19 0.00108521 2.65664e-19 0.00144332)
(0.00132664 -0.000177202 2.62084e-19 0.00327507 1.11467e-18 0.00211556)
(0.00390674 0.000515164 -1.86629e-19 0.00998596 6.26435e-19 0.00671916)
(0.00779436 0.00124064 4.31868e-19 0.019931 2.59574e-18 0.0136068)
(0.0131944 0.00265926 1.79858e-19 0.0333685 8.01674e-19 0.0230113)
(0.0203361 0.00496675 -4.00618e-19 0.0505769 9.01158e-19 0.0352086)
(0.0295696 0.00832713 -4.78726e-19 0.0721582 -9.51422e-19 0.0507136)
(0.0415132 0.0130797 3.26734e-19 0.0992925 1.99456e-18 0.0706252)
(0.0571118 0.0199892 3.01954e-19 0.132993 -2.10087e-18 0.095848)
(0.0766201 0.029155 5.32256e-19 0.171906 1.91618e-18 0.123864)
(0.110816 0.0400559 -4.33029e-19 0.257312 -9.56309e-19 0.189722)
(0.18145 0.0872676 2.13967e-20 0.316728 -5.05391e-19 0.240257)
(0.194963 0.00968454 4.51449e-19 0.514088 1.7037e-18 0.356766)
(0.0107316 -0.00104215 -6.00596e-23 0.00913259 -2.80429e-22 0.00999269)
(0.00843697 -0.00100474 -1.36073e-22 0.00855854 9.69794e-22 0.00859471)
(0.00660191 -0.00109485 -7.73552e-21 0.0074757 -1.77922e-20 0.00705238)
(0.0127959 0.000788452 -1.06227e-20 0.00935236 -2.08821e-20 0.0109952)
(0.212517 0.0200816 3.74605e-20 0.0906055 4.44293e-20 0.152301)
(1.05984 0.0430148 2.41576e-19 0.405316 7.22411e-21 0.738086)
(1.58804 -0.0449734 2.57659e-19 0.605862 -1.39616e-18 1.09413)
(1.03315 -0.137385 9.05679e-19 0.431956 -1.41665e-18 0.738754)
(0.410338 -0.0940918 -4.1195e-19 0.209203 1.22717e-18 0.30065)
(0.213049 -0.0573903 2.32291e-19 0.118746 3.99481e-19 0.163631)
(0.124303 -0.0358008 -3.54107e-19 0.072344 1.12372e-18 0.0982648)
(0.0815519 -0.025648 -5.80674e-19 0.0510483 1.26282e-18 0.0663505)
(0.0565632 -0.0186687 4.65784e-19 0.0370101 -9.53003e-19 0.0469357)
(0.0396839 -0.0137413 -1.18634e-19 0.0273421 9.37896e-19 0.0334105)
(0.0295027 -0.0103824 -2.00689e-19 0.0206708 -1.0571e-18 0.0250545)
(0.0225652 -0.00792153 -1.12105e-19 0.0157763 -4.56383e-19 0.0191233)
(0.0184222 -0.00635224 5.40559e-20 0.0126341 2.25337e-19 0.0154893)
(0.0158516 -0.00526528 1.15066e-19 0.0104573 1.29973e-20 0.0131388)
(0.0144559 -0.00463766 3.11424e-20 0.00922547 5.35784e-20 0.0118215)
(0.0139915 -0.00437303 -1.2153e-20 0.00871329 -7.71726e-20 0.0113541)
(0.0141024 -0.00439447 -2.7314e-20 0.00876076 -1.96346e-19 0.0114275)
(0.0148349 -0.00465147 2.68539e-20 0.00926624 -2.79891e-19 0.0120474)
(0.0162744 -0.00519903 2.32253e-20 0.0103367 -1.26995e-19 0.0133097)
(0.0181984 -0.0060434 8.84116e-21 0.0119911 1.17896e-19 0.0151094)
(0.0200763 -0.00700264 -6.84899e-20 0.0139176 7.08918e-19 0.0170112)
(0.0214927 -0.0079013 2.5363e-19 0.0158159 -8.08307e-19 0.0186681)
(0.0220617 -0.00860304 1.80907e-19 0.017492 -6.22677e-19 0.0197928)
(0.0214133 -0.00897546 1.99092e-19 0.0188656 1.52313e-18 0.0201607)
(0.0193647 -0.00888081 -6.39024e-20 0.0201266 4.05951e-19 0.0197714)
(0.0164486 -0.00821554 -5.58434e-19 0.0222695 -5.94799e-19 0.0193898)
(0.0145886 -0.00689018 1.79399e-19 0.0277789 -1.07791e-18 0.0212203)
(0.0163211 -0.0046952 -4.50862e-19 0.039757 6.56511e-19 0.0280812)
(0.0226023 -0.00113472 4.01682e-19 0.0594887 -5.56818e-19 0.0410986)
(0.0336035 0.00410353 4.54081e-19 0.0874838 -1.41708e-18 0.0605875)
(0.0494892 0.0113343 4.47504e-19 0.124368 8.26662e-19 0.0869275)
(0.0710503 0.021069 4.78519e-19 0.172049 1.79116e-18 0.121693)
(0.0997159 0.0346566 3.88965e-19 0.232146 1.88311e-18 0.166392)
(0.136159 0.0531923 -5.82604e-19 0.300805 -2.34856e-18 0.216581)
(0.189645 0.0730688 3.31256e-20 0.427851 -8.18873e-19 0.314964)
(0.321041 0.156234 -2.08999e-19 0.550966 -1.70008e-18 0.42373)
(0.238693 0.0929422 -4.84782e-19 0.534998 -8.15206e-19 0.392979)
(0.00801112 -0.000752877 5.32199e-22 0.00682219 1.28201e-21 0.00741083)
(0.00684906 -0.000821472 -8.31265e-22 0.00654915 -1.64384e-21 0.00666961)
(0.00685923 -0.000896959 4.50602e-21 0.00740142 9.17422e-21 0.00712748)
(0.00336523 -0.000386467 5.13998e-21 0.00374319 9.05299e-21 0.00354384)
(0.00533979 0.000160548 -4.93925e-21 0.00427625 -7.35079e-21 0.00478793)
(0.192126 0.0148428 3.3152e-20 0.078324 -1.09598e-20 0.135463)
(1.0099 0.0303613 -7.32094e-20 0.38435 -8.87075e-21 0.702373)
(1.79583 -0.047419 -2.52663e-19 0.684702 3.18785e-19 1.237)
(1.5102 -0.168371 4.0514e-19 0.613159 -1.81355e-19 1.07122)
(0.721438 -0.152173 9.79043e-21 0.349695 1.76647e-19 0.530678)
(0.368205 -0.0960999 3.62266e-19 0.201978 -2.35217e-18 0.278134)
(0.217418 -0.0619077 -2.58032e-19 0.125662 3.98463e-19 0.170659)
(0.147399 -0.0451199 -2.91839e-19 0.0899494 2.33311e-19 0.119265)
(0.104332 -0.0342062 3.38653e-19 0.0678645 -2.32724e-18 0.0862282)
(0.0794864 -0.0275315 2.68454e-19 0.054693 1.33856e-19 0.0671187)
(0.0626071 -0.0224249 1.69275e-19 0.0447204 1.77769e-19 0.0536283)
(0.0524005 -0.0192386 -1.57773e-19 0.0385298 6.30802e-19 0.0454121)
(0.0458053 -0.017034 -1.00033e-20 0.0341936 1.38375e-19 0.0399813)
(0.0418109 -0.0157525 3.69327e-20 0.0317275 -6.73043e-20 0.0367317)
(0.039752 -0.0151447 4.79442e-20 0.0305836 5.00097e-20 0.0351585)
(0.0388036 -0.0149781 -1.03791e-20 0.0303711 2.32463e-19 0.0345652)
(0.038845 -0.0151117 -8.98415e-20 0.030721 2.30045e-19 0.0347599)
(0.0399386 -0.015577 1.23576e-19 0.031695 1.76231e-19 0.0357916)
(0.0418585 -0.0163981 1.51818e-19 0.0334126 4.03694e-19 0.0376208)
(0.0438933 -0.0173684 -1.79633e-19 0.0355201 -9.91196e-20 0.039696)
(0.0454578 -0.0183024 -1.34552e-19 0.0376991 2.05131e-18 0.0415728)
(0.0459538 -0.0190251 8.29883e-20 0.0397288 -3.14852e-20 0.0428398)
(0.0447545 -0.0193334 -2.97281e-19 0.0414777 -8.35566e-19 0.0431205)
(0.0414114 -0.0190004 -5.05117e-19 0.0431133 -1.61225e-18 0.042273)
(0.0361303 -0.0177658 3.6783e-19 0.0455364 -6.63879e-19 0.040853)
(0.0306757 -0.0153008 1.21796e-19 0.0512461 1.76794e-18 0.0409883)
(0.0290172 -0.0111728 2.64792e-19 0.0649031 -1.06997e-18 0.0469951)
(0.0350981 -0.00484913 -2.38762e-19 0.0910433 2.97867e-18 0.0631251)
(0.0501168 0.00418565 -9.06601e-19 0.131372 1.47412e-19 0.0907957)
(0.0739082 0.0164535 -3.40363e-19 0.186262 6.24004e-19 0.130077)
(0.107069 0.0326916 -4.62964e-19 0.257685 7.46451e-19 0.182565)
(0.151529 0.0549749 -6.46446e-20 0.347584 -3.72218e-20 0.250168)
(0.209615 0.0860995 2.23774e-20 0.450827 7.4407e-20 0.327615)
(0.281211 0.11727 -2.87751e-20 0.607745 1.63089e-18 0.45214)
(0.46922 0.229055 -2.13619e-20 0.80411 -1.12452e-18 0.621072)
(0.365546 0.1796 6.25572e-19 0.657329 -7.57622e-19 0.521038)
(0.00580051 -0.000517013 -5.24523e-22 0.0048976 -8.93291e-22 0.00535441)
(0.00508894 -0.00061129 2.71034e-21 0.00474589 4.43631e-21 0.00490843)
(0.00471672 -0.000599977 -1.33416e-21 0.00485784 -2.92365e-21 0.00478184)
(0.00497909 -0.000632434 -1.30822e-21 0.00560183 -3.50755e-21 0.00529543)
(0.00155947 -9.41119e-05 2.98059e-22 0.00167804 7.19817e-22 0.00161801)
(0.00124312 7.30073e-06 -1.57716e-22 0.00112306 -1.5602e-22 0.00118041)
(0.130458 0.00773561 -2.35985e-20 0.0526282 -2.42737e-20 0.0914216)
(0.809716 0.0180643 -8.02483e-20 0.307626 9.94381e-20 0.561746)
(1.8239 -0.0456128 -1.70106e-19 0.694408 -1.6386e-19 1.25911)
(1.94287 -0.1802 -3.68866e-19 0.773334 -9.69823e-19 1.36336)
(1.2074 -0.2222 3.775e-19 0.550141 5.67685e-19 0.887839)
(0.592303 -0.148038 6.04578e-19 0.316502 -8.32542e-19 0.442364)
(0.356006 -0.101041 -8.07945e-19 0.206115 6.21407e-19 0.276999)
(0.235303 -0.0708261 3.54028e-19 0.141848 1.08181e-18 0.188531)
(0.17004 -0.0554 1.73949e-20 0.109834 4.77451e-19 0.140481)
(0.129133 -0.0445354 -2.27729e-19 0.0883841 -8.58687e-20 0.108988)
(0.104872 -0.0379669 1.60497e-19 0.0758325 -8.97497e-19 0.0902896)
(0.0895554 -0.033414 -3.40751e-20 0.0671145 5.8382e-19 0.0783171)
(0.079947 -0.0306047 7.06903e-20 0.0619014 -1.11054e-19 0.070868)
(0.0746002 -0.0291092 4.68018e-20 0.0592148 2.03493e-19 0.0669109)
(0.0716066 -0.0284176 -6.32604e-20 0.0581826 -2.935e-19 0.0648768)
(0.0704868 -0.0282401 3.00401e-20 0.0580418 1.19383e-20 0.0642572)
(0.0710603 -0.0285481 1.40123e-20 0.0587471 1.01664e-19 0.0648909)
(0.0730052 -0.0293799 -2.96886e-19 0.0605006 -3.41777e-19 0.0667482)
(0.0753718 -0.0304745 3.23316e-19 0.0628874 -8.04226e-19 0.0691242)
(0.0773387 -0.031599 4.44113e-20 0.0655345 -4.31191e-19 0.0714316)
(0.0779809 -0.0324916 -5.3793e-19 0.0680927 -4.3223e-19 0.0730318)
(0.0762389 -0.0328188 5.33645e-20 0.0702343 -9.74495e-19 0.073233)
(0.0711727 -0.0321886 8.50437e-19 0.0718975 -1.18932e-19 0.0715349)
(0.0625242 -0.030148 3.38131e-19 0.0737724 1.42701e-18 0.0681577)
(0.0518809 -0.0261458 -4.13977e-19 0.0784154 -7.80537e-19 0.0651665)
(0.0446005 -0.0195502 -4.97687e-19 0.0920978 6.39933e-19 0.068372)
(0.0485055 -0.00966219 -2.12075e-19 0.123446 -3.17415e-18 0.086023)
(0.0672605 0.00429807 7.86553e-19 0.176735 -1.97907e-18 0.122044)
(0.100285 0.0231157 6.30884e-19 0.251838 -1.80325e-18 0.176036)
(0.147398 0.0477573 -1.39128e-19 0.349806 -6.28322e-20 0.248841)
(0.210772 0.0810111 1.38563e-19 0.47215 1.45197e-18 0.342159)
(0.294332 0.127069 3.64433e-20 0.612261 -8.20405e-19 0.450288)
(0.385681 0.172304 -2.62609e-19 0.790301 7.55045e-19 0.596536)
(0.614232 0.301102 -5.56987e-19 1.04812 1.78951e-18 0.814311)
(0.542054 0.274052 -5.19233e-19 0.856707 -8.97613e-19 0.708853)
(0.00421329 -0.00035254 -1.26975e-22 0.00351499 -2.33736e-22 0.00386744)
(0.00386833 -0.000442535 2.97334e-22 0.00352055 3.47061e-22 0.00369454)
(0.00348091 -0.000442085 -1.38825e-21 0.0034595 -1.85079e-21 0.00346902)
(0.00354864 -0.000460108 -2.20397e-21 0.00384818 -2.76348e-21 0.0036961)
(0.00354924 -0.000402587 -7.53295e-22 0.00408161 -8.80378e-22 0.00381756)
(0.000709326 -1.951e-05 2.02942e-22 0.000741005 2.81247e-22 0.000725229)
(3.39429e-05 -2.91265e-08 -5.23104e-25 3.37293e-05 -7.93173e-25 3.38299e-05)
(0.0605594 0.00235502 1.8764e-20 0.0253945 2.06711e-20 0.0428205)
(0.543569 0.00804047 2.39362e-19 0.206438 2.3066e-19 0.37597)
(1.58932 -0.0396546 -1.71601e-19 0.604435 3.93191e-19 1.10004)
(2.2018 -0.165232 -2.77764e-19 0.863508 6.50379e-19 1.52973)
(1.79028 -0.274417 2.75967e-19 0.771622 -1.07417e-18 1.29651)
(0.995514 -0.231838 4.38821e-19 0.505134 1.32729e-18 0.74899)
(0.547953 -0.152126 -7.86526e-19 0.314142 -2.99451e-19 0.419335)
(0.35876 -0.108361 3.34693e-19 0.217625 -1.34554e-18 0.285845)
(0.258198 -0.082799 -2.23478e-19 0.164373 7.7151e-19 0.211878)
(0.197117 -0.0677955 1.39607e-19 0.134495 7.5753e-19 0.166244)
(0.159422 -0.057721 1.58254e-19 0.115163 3.90165e-19 0.137538)
(0.136102 -0.0513782 -8.26031e-20 0.103511 3.44888e-19 0.119726)
(0.123059 -0.0478201 9.13848e-21 0.097147 -9.9851e-19 0.11009)
(0.115594 -0.0459441 2.18363e-20 0.0941366 4.2617e-19 0.104805)
(0.112288 -0.0451707 -1.31563e-19 0.0930057 -8.49451e-21 0.102628)
(0.1121 -0.0452674 1.24113e-19 0.0933645 -4.79668e-19 0.102714)
(0.114291 -0.0462098 2.04502e-19 0.0953546 -7.10617e-20 0.104821)
(0.117439 -0.0476004 -1.79656e-19 0.0983351 1.03667e-18 0.107889)
(0.120319 -0.0491038 -3.24492e-19 0.101775 -9.107e-19 0.11105)
(0.121562 -0.0503294 4.13164e-19 0.105096 -5.43478e-19 0.113331)
(0.119524 -0.0507662 2.09354e-19 0.107643 1.64249e-18 0.113583)
(0.112551 -0.0498002 1.44473e-19 0.108929 1.79911e-18 0.11074)
(0.099667 -0.0467567 -2.04573e-19 0.109215 -3.26812e-19 0.10445)
(0.0818039 -0.0408334 -1.97849e-20 0.110666 -1.18905e-18 0.0962536)
(0.064943 -0.0311515 -4.07279e-19 0.120405 -3.5711e-19 0.0926947)
(0.0618562 -0.0167642 -1.93545e-19 0.152148 1.49494e-18 0.107049)
(0.0820354 0.00340646 9.6013e-20 0.215985 2.29659e-18 0.149055)
(0.124768 0.0304202 1.35727e-18 0.311336 7.59774e-19 0.218021)
(0.187789 0.0654065 2.17148e-19 0.4365 -8.48256e-19 0.312429)
(0.272596 0.111567 -1.58902e-18 0.591007 -7.44067e-19 0.43244)
(0.383302 0.173262 3.45667e-20 0.765962 -2.15859e-19 0.571663)
(0.498374 0.234678 -2.5501e-20 0.960688 -1.8799e-18 0.737636)
(0.74678 0.368942 -1.3567e-19 1.25254 6.02644e-19 0.984348)
(0.734327 0.370693 4.38898e-19 1.08468 1.60906e-18 0.914528)
(0.00308556 -0.000246738 -2.62458e-23 0.00255466 -5.50758e-24 0.00282351)
(0.00291994 -0.000315816 -5.37444e-22 0.00259848 -7.33227e-22 0.0027586)
(0.002769 -0.000345833 5.21175e-22 0.00266681 7.09091e-22 0.002717)
(0.00255941 -0.000329565 2.39024e-21 0.00266554 3.20513e-21 0.00261055)
(0.00266269 -0.000337203 4.74173e-22 0.00299458 6.60653e-22 0.00282553)
(0.00271881 -0.000292256 4.05605e-22 0.00319663 2.13657e-22 0.00295825)
(0.000133591 -6.82283e-07 -1.38167e-23 0.000134954 -1.52407e-23 0.00013428)
(1.81489e-06 -5.76117e-10 -1.23755e-27 1.81476e-06 -8.39754e-28 1.8148e-06)
(0.0178121 0.000180132 -9.43902e-21 0.00896609 -1.36238e-20 0.0133195)
(0.292608 0.00164408 1.72145e-19 0.111232 1.9425e-19 0.201886)
(1.14586 -0.0284374 -2.79053e-19 0.43578 -6.88935e-19 0.793075)
(2.15096 -0.138676 -1.03203e-19 0.836081 8.57691e-19 1.49238)
(2.28258 -0.281133 1.44244e-19 0.942763 -1.02833e-18 1.61819)
(1.59559 -0.322192 -3.52471e-19 0.752708 -3.92856e-19 1.18987)
(0.884225 -0.234842 9.38637e-19 0.48798 -2.77723e-19 0.677034)
(0.537251 -0.161326 3.83512e-19 0.32664 8.33753e-19 0.42213)
(0.37573 -0.120042 -3.52814e-19 0.239087 5.15924e-19 0.306051)
(0.286678 -0.097396 -3.81721e-19 0.193015 4.39992e-19 0.240804)
(0.230727 -0.0833679 -6.14054e-19 0.16624 -3.64252e-20 0.198947)
(0.197333 -0.0747593 4.81785e-19 0.150612 -6.09457e-19 0.17422)
(0.177972 -0.069841 1.9229e-19 0.142403 8.44004e-19 0.160091)
(0.169222 -0.0676516 -3.51791e-19 0.138936 -2.05471e-19 0.154015)
(0.166854 -0.0671617 1.23703e-19 0.138341 3.54189e-19 0.152526)
(0.16903 -0.0681669 9.25908e-20 0.140517 2.35114e-19 0.154732)
(0.173356 -0.0699875 1.75888e-20 0.14433 -3.77002e-19 0.158823)
(0.177896 -0.0720991 -2.35461e-20 0.148944 5.30905e-19 0.163413)
(0.180624 -0.0739144 3.38247e-19 0.153403 1.37976e-18 0.167021)
(0.179103 -0.0746758 3.08172e-19 0.156543 -5.46594e-19 0.167841)
(0.170612 -0.0734388 -4.55257e-19 0.157138 3.89352e-20 0.163898)
(0.153176 -0.0692803 -9.89656e-19 0.154738 -1.14507e-18 0.153985)
(0.126351 -0.0611011 2.52456e-19 0.150388 7.15006e-20 0.138407)
(0.0948896 -0.0477172 5.68132e-19 0.150154 -1.05806e-18 0.12256)
(0.0754504 -0.0278951 6.32857e-19 0.171667 3.30249e-19 0.12362)
(0.0900034 -0.000277055 -4.28439e-19 0.23731 -1.73234e-19 0.163713)
(0.140903 0.0363999 -7.74495e-19 0.34898 1.52761e-18 0.244933)
(0.220906 0.0832707 -6.08881e-19 0.498771 -1.43878e-18 0.360164)
(0.328575 0.143335 9.78639e-19 0.681493 -2.25157e-19 0.505524)
(0.465717 0.219588 2.3744e-20 0.884536 3.69638e-19 0.672694)
(0.60762 0.297042 2.09376e-19 1.09247 -3.56471e-19 0.856328)
(0.853891 0.42626 -1.74011e-19 1.38069 -8.28937e-19 1.10667)
(0.906639 0.45489 -4.60256e-19 1.28205 5.41005e-19 1.09199)
(0.00228568 -0.000175289 -8.44125e-23 0.00188104 -2.88303e-23 0.00208573)
(0.00219155 -0.000226066 -4.52661e-22 0.00191872 -7.04172e-22 0.00205477)
(0.00212675 -0.000255745 1.89139e-21 0.00199184 2.15592e-21 0.00205909)
(0.00203676 -0.000262663 -2.5347e-22 0.00204797 -3.26467e-22 0.00204242)
(0.00189017 -0.000238865 6.68117e-22 0.00203716 6.21095e-22 0.00196273)
(0.00205456 -0.000259104 -6.71116e-22 0.00238544 -6.10371e-22 0.00221726)
(0.00193959 -0.000182799 1.36588e-21 0.00229679 1.83267e-21 0.00211758)
(0.000281154 -3.21196e-06 3.31339e-23 0.00028882 2.77675e-23 0.000285024)
(0.000259317 -6.40622e-06 1.71232e-24 0.000269579 3.13753e-23 0.000264435)
(0.000579854 -3.91491e-06 2.55612e-22 0.000533293 2.26655e-22 0.000556056)
(0.112032 -0.00088821 -5.0441e-21 0.0428979 5.24213e-21 0.0772545)
(0.657851 -0.0178106 -3.2164e-19 0.250542 -2.16349e-19 0.454685)
(1.70809 -0.0997752 2.01412e-19 0.660566 -3.97444e-19 1.18593)
(2.45811 -0.246358 -4.93475e-19 0.988426 9.31518e-19 1.72043)
(2.23192 -0.368379 -2.54185e-19 0.982535 -9.34904e-19 1.62126)
(1.46001 -0.348356 5.48898e-19 0.747482 7.46527e-19 1.11522)
(0.842636 -0.24476 3.41664e-19 0.497725 -1.54924e-18 0.657514)
(0.548976 -0.175423 1.63075e-19 0.351922 5.76998e-19 0.441693)
(0.405862 -0.136837 -7.3635e-19 0.271842 -1.12545e-18 0.338066)
(0.32471 -0.116336 2.99146e-19 0.231509 1.19166e-18 0.279299)
(0.276158 -0.104613 7.35461e-20 0.210681 -8.77174e-19 0.243943)
(0.252117 -0.0988675 -3.28395e-19 0.201387 4.30951e-19 0.226961)
(0.242647 -0.0966917 2.46631e-19 0.198303 5.30445e-21 0.220392)
(0.242735 -0.0972889 -4.29811e-20 0.200031 2.69869e-20 0.221264)
(0.24788 -0.0994698 -8.96172e-20 0.204603 7.3828e-19 0.226158)
(0.254442 -0.102237 1.08884e-19 0.210405 -1.76088e-19 0.232363)
(0.259421 -0.10473 -7.6731e-19 0.215974 5.83264e-21 0.237665)
(0.259552 -0.105963 -3.74863e-19 0.219665 1.91198e-19 0.239602)
(0.25102 -0.104695 -1.94071e-19 0.219512 -1.22042e-18 0.235289)
(0.230164 -0.0995417 9.48878e-19 0.213711 1.00618e-19 0.221999)
(0.194442 -0.0890221 1.58949e-19 0.201451 8.18559e-19 0.198047)
(0.145037 -0.0715678 2.91794e-19 0.18533 9.04924e-19 0.165296)
(0.0958943 -0.0456613 -6.03914e-19 0.18016 2.7034e-19 0.138147)
(0.0863886 -0.00978177 4.97738e-19 0.225315 -1.20556e-18 0.155954)
(0.138818 0.0373545 2.81834e-19 0.341798 -1.42291e-19 0.240359)
(0.235479 0.0966094 1.02236e-18 0.509638 3.15687e-19 0.372903)
(0.366017 0.16993 -1.50979e-18 0.712848 4.74874e-19 0.539768)
(0.526997 0.257881 -1.21549e-19 0.933567 1.0231e-19 0.728606)
(0.693944 0.347359 2.90734e-19 1.14814 4.61486e-19 0.92475)
(0.921857 0.463601 4.86367e-19 1.40548 1.0721e-20 1.15866)
(1.02152 0.50844 6.75962e-20 1.38431 -1.18325e-18 1.19358)
(0.00170131 -0.00012603 -3.32102e-22 0.00139375 -3.86576e-22 0.00154922)
(0.00164551 -0.000162917 1.34561e-21 0.00142356 1.40836e-21 0.0015346)
(0.0016126 -0.000187054 -3.14989e-22 0.00147926 -2.80917e-22 0.00154594)
(0.0015814 -0.000199999 -2.47797e-21 0.00154438 -2.61845e-21 0.00156298)
(0.00151911 -0.00019646 -2.32549e-22 0.00158099 -3.10707e-22 0.00155017)
(0.00142759 -0.000176448 2.43347e-21 0.00157964 2.60754e-21 0.00150313)
(0.00154682 -0.000187998 -7.02073e-22 0.00183616 -9.27298e-22 0.00168956)
(0.00138243 -0.000114926 -4.739e-21 0.00164497 -4.71855e-21 0.00151269)
(0.00047164 -1.01636e-05 4.57666e-22 0.000500282 4.42716e-22 0.000486025)
(6.68638e-05 -2.68328e-07 7.93936e-25 6.75662e-05 -7.65294e-25 6.72188e-05)
(0.00136557 -0.000257025 -1.06945e-21 0.00107654 -1.76874e-21 0.00121411)
(0.0245258 -0.000841879 -8.71068e-21 0.0101847 -4.9322e-21 0.0172692)
(0.284615 -0.00961065 -1.89724e-19 0.108784 -1.25136e-19 0.196496)
(1.0634 -0.0594012 1.74109e-19 0.41058 -1.34425e-19 0.737884)
(2.12943 -0.18561 -6.43759e-19 0.844059 6.77027e-19 1.4862)
(2.60366 -0.343491 5.99467e-19 1.09026 -3.99595e-19 1.84618)
(2.1727 -0.431519 -5.04606e-19 1.01852 7.55439e-19 1.61428)
(1.40482 -0.373557 -1.0904e-19 0.769559 -1.8167e-19 1.09497)
(0.850948 -0.264798 -2.39753e-19 0.532735 -3.57866e-19 0.677893)
(0.582622 -0.19687 2.89612e-19 0.394122 -1.04037e-18 0.479561)
(0.453261 -0.161516 4.54568e-19 0.32205 3.29013e-19 0.386911)
(0.387492 -0.145165 -2.44215e-19 0.291288 -9.97932e-19 0.340778)
(0.355984 -0.138002 -2.26452e-19 0.279764 4.49394e-19 0.318715)
(0.345677 -0.136471 7.04279e-19 0.278659 -5.85511e-19 0.312497)
(0.347838 -0.138316 -4.14176e-19 0.283376 4.90477e-20 0.315598)
(0.356164 -0.141884 -5.65146e-19 0.290968 -3.69048e-19 0.323406)
(0.365203 -0.145606 1.00411e-18 0.298697 -1.41803e-18 0.3318)
(0.369198 -0.147715 -2.27398e-20 0.303441 1.06998e-18 0.336228)
(0.362648 -0.146498 -3.31778e-22 0.30219 -6.52805e-20 0.332392)
(0.340699 -0.140338 -6.00723e-19 0.292236 1.05463e-18 0.316496)
(0.298985 -0.127512 6.53695e-20 0.271064 -6.36576e-19 0.285111)
(0.23419 -0.106002 -1.29184e-20 0.236866 3.29086e-19 0.235678)
(0.149406 -0.0739654 -6.8379e-19 0.193455 -5.75908e-19 0.171641)
(0.0773919 -0.0298607 3.68265e-19 0.173062 1.71829e-18 0.125485)
(0.105241 0.0273485 -5.23813e-19 0.260594 2.858e-19 0.18317)
(0.216777 0.097856 -4.89684e-19 0.436045 5.8016e-22 0.326875)
(0.369708 0.181713 7.03057e-19 0.650088 -1.85078e-18 0.510243)
(0.550931 0.276685 -8.14754e-20 0.876688 7.75298e-19 0.712837)
(0.735502 0.370759 -1.59829e-19 1.08857 -9.13077e-19 0.91356)
(0.93569 0.468983 -1.40104e-18 1.30383 -6.49129e-19 1.11923)
(1.05469 0.517726 -2.96893e-19 1.34344 -2.01922e-19 1.18611)
(0.00127109 -9.16518e-05 -2.94692e-22 0.00103789 -2.40264e-22 0.00115563)
(0.00123655 -0.000118391 -1.22995e-21 0.00106053 -1.11031e-21 0.0011487)
(0.00121912 -0.000136932 -6.82635e-23 0.00110143 -1.86268e-22 0.00116031)
(0.00120577 -0.000148908 -2.00368e-22 0.00115157 -1.68629e-22 0.00117872)
(0.00118875 -0.000153578 1.75848e-21 0.00120222 1.73444e-21 0.00119553)
(0.00114485 -0.000146146 9.41299e-22 0.00122461 7.64774e-22 0.0011848)
(0.00109796 -0.000133036 -1.30626e-21 0.00124076 -1.24994e-21 0.00116919)
(0.0011366 -0.000128726 -9.76479e-22 0.00136416 -3.69206e-22 0.00124936)
(0.00111423 -9.46717e-05 -6.25336e-22 0.00136249 -6.31222e-22 0.00123711)
(0.000615242 -2.04852e-05 -1.06607e-21 0.000683276 -1.05195e-21 0.000649215)
(4.44669e-05 -1.00228e-07 -1.53684e-24 4.48125e-05 -1.05334e-24 4.46412e-05)
(0.000222437 -6.66811e-06 -2.19348e-23 0.000235536 -9.91305e-24 0.000229036)
(0.000197249 -1.97155e-06 8.03035e-23 0.000188151 7.83457e-23 0.000192622)
(0.0762682 -0.00387739 -2.75971e-19 0.0295536 -2.27373e-19 0.0527469)
(0.484119 -0.0281596 7.30358e-19 0.187324 6.28955e-19 0.335613)
(1.39909 -0.112722 -3.44293e-19 0.550859 -4.1178e-19 0.975669)
(2.39221 -0.26705 1.48817e-18 0.974987 9.16555e-19 1.68125)
(2.67876 -0.423728 6.36355e-19 1.16843 7.73168e-19 1.92563)
(2.16766 -0.484991 -1.842e-18 1.0719 -2.65991e-19 1.64041)
(1.42947 -0.409647 6.00245e-19 0.826557 -1.17716e-18 1.13505)
(0.906413 -0.299397 2.83392e-19 0.599602 1.42358e-18 0.738737)
(0.657093 -0.234078 -5.55046e-20 0.470842 -8.02097e-19 0.553107)
(0.553515 -0.204614 5.76969e-19 0.410803 6.23109e-19 0.480392)
(0.508456 -0.193205 -3.44367e-19 0.389024 -6.84037e-19 0.450743)
(0.491987 -0.190867 3.94514e-19 0.386778 5.08457e-20 0.441182)
(0.49294 -0.193354 -5.57074e-19 0.393698 8.52287e-19 0.444174)
(0.502486 -0.197749 1.0863e-19 0.403409 7.27096e-19 0.453168)
(0.511821 -0.201314 -1.83403e-19 0.410747 -1.88473e-18 0.461167)