/*--------------------------------*- C++ -*----------------------------------*\
| =========                 |                                                 |
| \\      /  F ield         | OpenFOAM: The Open Source CFD Toolbox           |
|  \\    /   O peration     | Version:  2312                                  |
|   \\  /    A nd           | Website:  www.openfoam.com                      |
|    \\/     M anipulation  |                                                 |
\*---------------------------------------------------------------------------*/
FoamFile
{
    version     2.0;
    format      ascii;
    arch        "LSB;label=32;scalar=64";
    class       volScalarField;
    location    "750";
    object      turbulenceProperties:I;
}
// * * * * * * * * * * * * * * * * * * * * * * * * * * * * * * * * * * * * * //

dimensions      [0 0 0 0 0 0 0];

internalField   nonuniform List<scalar> 
11040
(
0.0591825
0.0927639
1
0.0984697
0.273401
0.288371
0.290411
0.291643
0.288516
0.287334
0.284878
0.282747
0.280228
0.278259
0.276281
0.275297
0.275628
0.276798
0.278159
0.279501
0.280829
0.282191
0.28297
0.282673
0.281557
0.280698
0.280517
0.280344
0.280456
0.281299
0.283581
0.288199
0.295183
0.30837
0.336599
0.360165
0.350747
0.466328
1
0.430808
0.726329
0.0186131
0.0240493
0.0676936
0.371155
0.588175
0.307096
0.164292
0.0969957
0.0499138
0.0451697
0.0700635
0.0815918
0.0885647
0.0932916
0.0961501
0.0983692
0.100628
0.102701
0.104107
0.104797
0.104882
0.104634
0.103251
0.100127
0.0955515
0.0908154
0.0865814
0.0818579
0.0766928
0.0715955
0.0680282
0.0686175
0.0725653
0.082993
0.103486
0.140313
0.213438
0.402481
1
0.528517
0.803006
0.0161538
0.012654
0.0186583
0.0542953
0.322706
1
0.591816
0.31763
0.211984
0.161632
0.120116
0.0907009
0.0633141
0.0352216
0.0330473
0.0477542
0.0555698
0.0600995
0.0624599
0.0631936
0.0627904
0.0614926
0.0587048
0.0542768
0.0488372
0.0431137
0.0372882
0.0304844
0.0201725
0.0243967
0.0432467
0.0629779
0.0858339
0.114505
0.153946
0.214906
0.325742
0.582291
1
0.969069
0.672312
0.0142669
0.0115773
0.00926117
0.0117221
0.0568599
0.250406
1
1
0.512746
0.343612
0.250929
0.200184
0.164625
0.13683
0.116703
0.1004
0.0888349
0.0801568
0.0743102
0.0708885
0.0690626
0.0687341
0.0699584
0.0721402
0.0741645
0.0754553
0.0757521
0.0749617
0.0733446
0.0724738
0.0766095
0.0904866
0.11471
0.149888
0.200231
0.277806
0.414073
0.700346
1
1
0.687393
0.012847
0.0109145
0.0101574
0.00651134
0.00761607
0.049494
0.188335
0.790239
1
0.895752
0.520619
0.367145
0.288908
0.235956
0.202204
0.176144
0.158322
0.144907
0.135354
0.12871
0.123793
0.12026
0.11816
0.117239
0.116622
0.1158
0.11446
0.112406
0.109742
0.1074
0.108415
0.118808
0.143677
0.184372
0.244044
0.334341
0.485254
0.768299
1
1
0.802913
0.0112843
0.00975741
0.00887419
0.0085779
0.00438044
0.00371386
0.037625
0.135103
0.429935
1
1
0.825625
0.544168
0.402407
0.325879
0.273835
0.240355
0.216439
0.199487
0.187679
0.178768
0.17195
0.16698
0.16359
0.160878
0.158312
0.155463
0.151958
0.147639
0.142989
0.140375
0.146498
0.17049
0.215629
0.283225
0.382506
0.537771
0.793232
1
1
0.944406
0.00976075
0.00876061
0.00787107
0.00761733
0.00722564
0.00293872
0.000619972
0.0240652
0.092145
0.264597
0.831151
1
1
0.832022
0.576433
0.445663
0.368435
0.317861
0.28395
0.261523
0.245483
0.233775
0.225171
0.218972
0.213928
0.209326
0.204586
0.199123
0.192468
0.184627
0.177045
0.175971
0.194759
0.241631
0.315107
0.419126
0.568986
0.783341
1
1
1
0.00840396
0.00774384
0.0072024
0.00665572
0.00657028
0.00635485
0.00127371
0.000142801
0.0127457
0.0585248
0.164715
0.424195
1
1
1
0.877928
0.62704
0.498767
0.420689
0.371241
0.338505
0.317053
0.301989
0.291305
0.282783
0.275239
0.267796
0.259586
0.249701
0.237636
0.223569
0.211446
0.21664
0.258864
0.335448
0.440282
0.577504
0.74769
0.916681
1
1
0.00722429
0.00676554
0.00641632
0.00606893
0.00567146
0.00577358
0.00539041
0.00187608
0.00172987
0.00251708
0.0325943
0.0991984
0.243521
0.594057
1
1
1
0.961878
0.702801
0.56989
0.491327
0.444682
0.414748
0.394671
0.379558
0.366651
0.354429
0.341703
0.327206
0.30963
0.287721
0.261573
0.241015
0.261754
0.336991
0.440923
0.562856
0.693651
0.808609
0.925755
0.923164
0.00619388
0.00587365
0.0056364
0.00542767
0.00518217
0.00490454
0.00501577
0.00457369
0.00248119
0.00088226
0.00367755
0.014403
0.0555155
0.141
0.316893
0.734039
1
1
1
1
0.821479
0.684436
0.607798
0.560909
0.529077
0.504901
0.48408
0.463556
0.441228
0.415346
0.383667
0.342778
0.290331
0.24878
0.303902
0.412573
0.524282
0.626049
0.70421
0.770728
0.787284
0.00530308
0.00507737
0.00491568
0.00477918
0.00464505
0.00446502
0.00428966
0.00430054
0.00415254
0.00290413
0.000731124
0.00160074
0.00146737
0.0259275
0.0768247
0.175671
0.369201
0.802253
1
1
1
1
1
0.900307
0.806125
0.744135
0.698593
0.660418
0.624248
0.5859
0.541122
0.484719
0.409384
0.300889
0.176767
0.33185
0.457191
0.546562
0.602773
0.637313
0.648125
0.00453505
0.00437535
0.00426074
0.00417413
0.00409173
0.00400279
0.00388094
0.00375374
0.00371645
0.00369493
0.00309517
0.000524366
0.000394254
0.00318078
0.00871927
0.0365551
0.0929809
0.196919
0.390278
0.788566
1
1
1
1
1
1
1
1
0.968648
0.897732
0.826948
0.748166
0.654071
0.537598
0.39468
0.295717
0.387491
0.471643
0.51415
0.526556
0.522215
0.00387478
0.00376166
0.00367901
0.00362242
0.00357559
0.00352631
0.00346901
0.00339114
0.00329799
0.00324292
0.00326409
0.00296707
0.00141631
0.000436418
0.00104715
0.00453145
0.0125809
0.0430937
0.100456
0.201371
0.379391
0.699315
1
1
1
1
1
1
1
1
1
1
1
1
0.859302
0.708668
0.611084
0.565708
0.539561
0.507468
0.465324
0.0033078
0.00322796
0.00316749
0.00312987
0.00310474
0.00308129
0.00305393
0.00302003
0.00297274
0.00290853
0.00285285
0.00287233
0.00277222
0.00206317
0.000253241
0.000167527
0.0016133
0.00553514
0.0146276
0.0444685
0.0985243
0.185435
0.316862
0.515742
0.806953
1
1
1
1
1
1
1
1
1
1
1
1
1
0.874683
0.751164
0.639762
0.00282088
0.00276505
0.00272048
0.00269539
0.00268322
0.00267543
0.00266701
0.00265511
0.00263794
0.00261224
0.0025711
0.00252921
0.002528
0.00250184
0.00230436
0.00122045
0.000404418
5.36128e-05
0.00209761
0.00557547
0.0138624
0.0390697
0.0792783
0.138347
0.220917
0.33372
0.484562
0.676234
0.900469
1
1
1
1
1
1
1
1
1
1
1
1
0.00240278
0.00236404
0.00233106
0.00231432
0.00230995
0.00231103
0.00231349
0.0023152
0.00231419
0.00230885
0.00229764
0.00227546
0.0022496
0.00222837
0.00224849
0.00215279
0.00187133
0.000522494
0.000241279
2.66834e-05
0.00220629
0.00453738
0.00796123
0.0236091
0.0482131
0.0831722
0.130051
0.190748
0.267498
0.362567
0.476976
0.609685
0.759205
0.927935
1
1
1
1
1
1
1
0.00204668
0.00201988
0.00199555
0.0019846
0.00198481
0.00199055
0.00199871
0.00200754
0.00201562
0.00202143
0.00202388
0.00202196
0.00201424
0.00199873
0.00198713
0.0019853
0.00199673
0.00185653
0.00144438
0.000268462
0.000178402
2.28444e-05
0.00118413
0.0031942
0.0050171
0.00737508
0.0195308
0.0369779
0.0606829
0.0912271
0.129287
0.175631
0.231043
0.296469
0.372783
0.460592
0.561068
0.677778
0.816597
0.989262
1
0.00175422
0.00173569
0.00171794
0.00171133
0.00171448
0.00172281
0.00173382
0.00174622
0.00175875
0.00177029
0.00177986
0.00178675
0.00179052
0.00179047
0.00178495
0.00177741
0.00177436
0.00178803
0.00177638
0.0016401
0.00121505
0.000231772
0.000164718
4.38971e-05
0
0.00104583
0.00285153
0.00365461
0.00166966
0.00762046
0.0172419
0.0305919
0.047865
0.0695402
0.0959286
0.127256
0.163751
0.206066
0.254533
0.310199
0.37219
0.00152009
0.00150727
0.00149428
0.00149072
0.00149565
0.00150529
0.00151769
0.00153188
0.00154685
0.00156152
0.00157508
0.00158684
0.00159631
0.00160332
0.0016074
0.00160839
0.00160509
0.00160423
0.00160825
0.00162066
0.00160211
0.00146223
0.00119508
0.000446171
0.000200123
9.2774e-05
3.03018e-05
0
0.000184386
0.00108741
0.00255311
0.00317318
0.00311166
0.00298163
0.00759728
0.0153664
0.0257349
0.0388657
0.0548082
0.0737754
0.0957297
0.00133105
0.00132206
0.00131246
0.00131094
0.00131679
0.00132688
0.00133963
0.00135428
0.00137002
0.00138598
0.00140146
0.00141592
0.00142885
0.00143989
0.00144882
0.00145562
0.0014599
0.00146183
0.00146145
0.00146407
0.00147332
0.00148159
0.00147053
0.00138197
0.00121123
0.000951567
0.000326771
0.000163183
8.51829e-05
6.26933e-05
1.80359e-05
0
0
0.000395506
0.00112396
0.00233004
0.00300079
0.00273483
0.00199455
0.000477764
0.00595501
0.00117467
0.00116832
0.00116122
0.0011611
0.0011674
0.0011775
0.00119011
0.00120459
0.00122027
0.00123642
0.00125246
0.00126795
0.00128249
0.00129573
0.00130741
0.00131738
0.00132559
0.00133201
0.00133644
0.00133904
0.001341
0.00134704
0.00135574
0.00136961
0.00136477
0.00134036
0.00126279
0.00112512
0.000940939
0.00071367
0.000214949
0.000128268
7.56508e-05
6.12325e-05
4.49401e-05
1.78432e-05
0
0
0
4.15815e-05
0.000744434
0.00104318
0.00103869
0.0010335
0.00103438
0.00104084
0.0010507
0.0010629
0.00107689
0.00109208
0.00110786
0.00112373
0.00113933
0.00115433
0.00116842
0.00118137
0.00119302
0.00120327
0.00121207
0.00121945
0.00122547
0.00122968
0.00123302
0.00123643
0.00124259
0.00125163
0.0012607
0.0012719
0.00127152
0.001254
0.00122366
0.00115907
0.00106012
0.000928496
0.000767214
0.000580594
0.000239966
0.000120313
6.70592e-05
5.90168e-05
5.03738e-05
4.07552e-05
0.00093105
0.000927897
0.000924198
0.000925764
0.000932206
0.000941693
0.000953329
0.00096663
0.000981089
0.000996188
0.00101149
0.00102668
0.00104149
0.00105564
0.00106894
0.00108122
0.00109239
0.00110237
0.00111114
0.0011188
0.00112508
0.00113016
0.00113447
0.00113793
0.00114153
0.00114565
0.00115177
0.00115991
0.00116862
0.00117589
0.00118395
0.00118496
0.0011767
0.00115781
0.00113049
0.00108541
0.00102188
0.00093995
0.000845128
0.00073764
0.000615171
0.000834367
0.000832198
0.000829665
0.000831718
0.000838025
0.000847058
0.000858057
0.000870587
0.000884201
0.000898449
0.000912953
0.000927434
0.000941664
0.000955406
0.00096847
0.000980721
0.000992059
0.00100241
0.00101172
0.00102005
0.00102716
0.00103318
0.0010385
0.00104286
0.00104642
0.00104941
0.00105203
0.00105469
0.00105786
0.0010615
0.0010662
0.00107179
0.0010777
0.00108332
0.00108783
0.0010924
0.00109422
0.00109174
0.00108458
0.00107169
0.00105762
0.000750227
0.000748788
0.000747179
0.000749567
0.000755666
0.000764208
0.000774538
0.000786262
0.000798979
0.000812297
0.000825884
0.000839496
0.00085293
0.000865982
0.00087848
0.000890296
0.000901337
0.000911527
0.000920805
0.000929218
0.000936494
0.000942743
0.000948295
0.00095294
0.000956775
0.000959945
0.000962512
0.000964516
0.000966047
0.00096722
0.000968113
0.000968904
0.00096973
0.000970759
0.000971964
0.000973463
0.000975202
0.000977148
0.000979227
0.000980659
0.000982837
0.000676439
0.000675547
0.000674678
0.000677291
0.000683144
0.000691184
0.000700844
0.000711761
0.000723575
0.00073594
0.000748564
0.000761231
0.000773756
0.000785961
0.000797692
0.000808834
0.000819294
0.000829
0.000837887
0.00084599
0.000853034
0.000859108
0.000864504
0.000869009
0.0008727
0.000875713
0.000878119
0.000879959
0.000881265
0.000882079
0.000882427
0.000882342
0.000881845
0.000881001
0.000879876
0.000878479
0.000876835
0.00087505
0.000873287
0.000871325
0.000869852
0.000611305
0.000610831
0.000610558
0.000613318
0.000618907
0.000626454
0.00063546
0.000645592
0.000656521
0.000667944
0.000679598
0.000691295
0.000702866
0.000714151
0.000725014
0.000735348
0.000745068
0.000754104
0.00076239
0.000769952
0.000776523
0.000782181
0.000787197
0.000791359
0.000794724
0.00079741
0.000799483
0.000800986
0.000801958
0.000802442
0.000802473
0.000802088
0.000801301
0.000800151
0.000798677
0.000796878
0.000794754
0.000792348
0.000789778
0.000786822
0.000784276
0.00055349
0.00055334
0.000553556
0.00055641
0.000561734
0.000568808
0.000577191
0.000586572
0.000596654
0.000607167
0.000617877
0.000628614
0.000639228
0.000649572
0.000659525
0.000668992
0.000677894
0.000686162
0.000693735
0.000700631
0.000706597
0.000711704
0.000716215
0.000719921
0.000722865
0.000725153
0.000726847
0.000727984
0.000728602
0.000728742
0.000728443
0.000727743
0.000726662
0.000725244
0.00072353
0.000721524
0.000719233
0.000716698
0.000714017
0.000711013
0.000708292
0.000501924
0.000502034
0.000502656
0.000505571
0.00051064
0.000517271
0.00052507
0.000533744
0.000543026
0.000552673
0.00056248
0.00057229
0.00058197
0.000591387
0.000600433
0.000609022
0.000617082
0.000624548
0.000631363
0.000637541
0.000642846
0.000647346
0.000651296
0.000654498
0.000656985
0.000658852
0.000660159
0.000660938
0.000661225
0.00066106
0.00066048
0.000659522
0.000658208
0.000656578
0.000654673
0.000652499
0.000650067
0.000647416
0.000644627
0.000641604
0.000638627
0.000455741
0.000456069
0.000457037
0.000459993
0.000464827
0.000471049
0.000478305
0.000486322
0.000494857
0.000503693
0.000512647
0.000521576
0.000530366
0.000538893
0.000547059
0.000554789
0.000562019
0.00056869
0.000574747
0.000580203
0.000584839
0.000588725
0.000592109
0.000594805
0.000596836
0.000598293
0.00059923
0.000599679
0.000599672
0.000599247
0.000598439
0.000597284
0.000595804
0.000594036
0.000592019
0.000589761
0.000587273
0.000584591
0.000581777
0.000578818
0.000575663
0.000414228
0.000414751
0.00041602
0.000419011
0.000423631
0.000429482
0.000436241
0.000443653
0.000451497
0.000459582
0.00046774
0.000475847
0.000483798
0.000491485
0.000498816
0.000505728
0.000512163
0.000518069
0.000523396
0.000528155
0.000532147
0.000535442
0.000538282
0.000540493
0.000542095
0.00054317
0.00054377
0.000543925
0.000543665
0.000543026
0.00054204
0.000540742
0.000539152
0.000537306
0.000535238
0.000532958
0.000530477
0.00052783
0.000525057
0.000522225
0.00051896
0.000376795
0.000377504
0.000379043
0.000382067
0.000386501
0.000392019
0.000398327
0.000405188
0.000412401
0.000419795
0.000427221
0.000434566
0.000441738
0.000448644
0.000455197
0.000461343
0.000467033
0.000472222
0.000476865
0.000480973
0.000484366
0.000487114
0.000489453
0.000491222
0.000492436
0.000493174
0.000493484
0.000493392
0.000492928
0.000492124
0.000491012
0.000489621
0.000487973
0.000486099
0.00048403
0.000481776
0.00047935
0.000476781
0.000474095
0.000471429
0.000468093
0.000342951
0.000343844
0.000345631
0.000348692
0.000352967
0.000358192
0.000364097
0.000370461
0.000377102
0.000383868
0.000390626
0.000397274
0.000403731
0.000409917
0.000415754
0.000421194
0.000426198
0.000430726
0.000434739
0.00043825
0.000441097
0.000443348
0.000445234
0.000446604
0.000447475
0.000447916
0.000447975
0.000447677
0.000447049
0.000446119
0.000444918
0.000443474
0.000441805
0.000439941
0.000437909
0.000435718
0.00043338
0.000430924
0.000428358
0.000425884
0.000422521
0.000312279
0.000313363
0.000315382
0.000318488
0.000322634
0.000327604
0.000333153
0.000339073
0.000345201
0.000351401
0.000357555
0.000363571
0.000369379
0.00037491
0.000380096
0.000384894
0.000389276
0.000393207
0.000396655
0.000399633
0.000401999
0.000403818
0.000405313
0.000406346
0.000406931
0.000407134
0.000406998
0.000406547
0.000405804
0.000404797
0.000403553
0.000402097
0.000400448
0.000398629
0.000396667
0.000394569
0.000392347
0.000390028
0.000387606
0.000385337
0.000381969
0.000284426
0.000285712
0.000287953
0.000291113
0.000295157
0.000299911
0.000305149
0.000310679
0.000316353
0.000322048
0.000327661
0.00033311
0.000338334
0.000343274
0.000347874
0.000352095
0.000355914
0.000359307
0.000362247
0.000364746
0.000366682
0.000368115
0.000369261
0.000369994
0.000370327
0.000370321
0.000370018
0.000369439
0.000368607
0.000367547
0.000366283
0.000364838
0.000363228
0.000361475
0.000359603
0.000357617
0.000355529
0.000353362
0.000351103
0.000349042
0.000345731
0.00025909
0.000260591
0.000263045
0.00026627
0.000270241
0.000274817
0.000279789
0.00028498
0.000290255
0.000295504
0.000300637
0.000305582
0.000310286
0.000314702
0.000318782
0.000322493
0.000325821
0.000328748
0.000331254
0.000333352
0.000334939
0.000336068
0.000336945
0.000337455
0.00033761
0.000337466
0.000337062
0.000336417
0.000335551
0.000334488
0.000333248
0.000331852
0.000330316
0.000328658
0.0003269
0.000325046
0.000323109
0.000321106
0.000319018
0.000317172
0.000313903
0.000236013
0.000237743
0.000240405
0.000243706
0.000247632
0.000252065
0.000256814
0.000261713
0.00026664
0.000271498
0.000276209
0.000280708
0.000284951
0.000288901
0.000292518
0.000295772
0.000298657
0.00030116
0.000303269
0.000304995
0.000306252
0.000307091
0.000307707
0.000307998
0.000307975
0.000307692
0.000307184
0.00030647
0.000305569
0.000304502
0.000303287
0.000301944
0.000300486
0.000298929
0.000297292
0.000295577
0.000293799
0.000291968
0.00029007
0.000288413
0.000285322
0.000214977
0.000216949
0.000219812
0.000223204
0.000227109
0.000231432
0.000235994
0.000240642
0.000245267
0.000249785
0.000254124
0.000258235
0.000262077
0.000265625
0.00026885
0.000271727
0.000274255
0.00027643
0.000278245
0.000279712
0.000280759
0.000281429
0.000281905
0.000282092
0.000282
0.000281679
0.000281162
0.000280464
0.000279603
0.000278597
0.000277463
0.000276218
0.000274875
0.000273448
0.000271953
0.000270395
0.000268784
0.000267129
0.000265415
0.000263974
0.000260939
0.000195794
0.000198016
0.000201078
0.000204572
0.000208482
0.000212722
0.000217125
0.000221556
0.000225916
0.000230134
0.000234148
0.000237915
0.000241401
0.000244585
0.000247443
0.000249957
0.000252129
0.00025396
0.000255448
0.000256608
0.000257384
0.000257821
0.000258088
0.000258103
0.000257878
0.000257459
0.000256876
0.000256146
0.000255283
0.000254304
0.000253225
0.000252058
0.000250817
0.000249511
0.000248155
0.00024675
0.000245312
0.000243835
0.000242331
0.000241024
0.000238377
0.000178297
0.000180777
0.000184032
0.000187638
0.000191569
0.000195744
0.000200013
0.00020425
0.000208375
0.000212327
0.000216058
0.000219534
0.000222731
0.000225638
0.000228245
0.000230539
0.000232522
0.000234199
0.00023557
0.000236649
0.000237389
0.000237814
0.000238088
0.000238132
0.000237957
0.000237605
0.000237105
0.00023647
0.000235714
0.000234852
0.0002339
0.000232871
0.000231776
0.000230624
0.000229431
0.000228199
0.000226939
0.000225648
0.000224326
0.000223271
0.00022057
0.000162338
0.000165093
0.000168547
0.000172267
0.000176213
0.000180319
0.000184457
0.000188519
0.000192434
0.000196149
0.000199625
0.000202834
0.000205751
0.000208353
0.000210624
0.000212562
0.000214182
0.000215502
0.000216535
0.000217294
0.000217753
0.000217947
0.000218019
0.000217903
0.000217609
0.000217176
0.000216631
0.000215985
0.000215249
0.000214437
0.000213561
0.00021263
0.000211654
0.000210639
0.000209596
0.000208524
0.000207442
0.000206324
0.000205234
0.000204178
0.0002023
0.00014783
0.000150881
0.00015455
0.000158388
0.000162329
0.000166328
0.000170298
0.000174168
0.000177886
0.000181402
0.000184676
0.000187688
0.000190443
0.000192964
0.000195255
0.000197288
0.000199038
0.000200504
0.000201692
0.000202621
0.000203268
0.000203636
0.000203873
0.000203919
0.000203787
0.000203514
0.000203124
0.000202631
0.000202048
0.000201387
0.000200664
0.000199888
0.00019907
0.000198218
0.000197346
0.000196457
0.000195559
0.000194646
0.000193719
0.000193079
0.000190686
0.00013479
0.000138103
0.000141939
0.000145864
0.000149782
0.000153655
0.000157427
0.000161059
0.000164536
0.000167841
0.000170934
0.000173752
0.000176223
0.000178289
0.000179957
0.000181312
0.000182439
0.000183368
0.000184103
0.00018464
0.000184963
0.000185107
0.000185169
0.000185094
0.000184892
0.000184593
0.000184216
0.000183771
0.000183266
0.00018271
0.000182111
0.000181477
0.000180814
0.000180125
0.000179419
0.000178689
0.000177964
0.000177184
0.000176515
0.000175533
0.000174898
0.000123169
0.000126644
0.000130488
0.000134332
0.000138117
0.000141848
0.000145478
0.000148945
0.000152208
0.00015526
0.000158139
0.000160915
0.000163655
0.000166384
0.000169025
0.000171367
0.000173284
0.000174818
0.00017603
0.000176979
0.000177662
0.000178071
0.000178348
0.000178452
0.000178405
0.00017824
0.000177981
0.00017764
0.000177232
0.000176772
0.000176272
0.000175745
0.000175201
0.000174646
0.000174096
0.000173558
0.000173029
0.000172525
0.00017198
0.000171928
0.000169526
0.000112566
0.000116285
0.000120092
0.000123671
0.000127066
0.000130413
0.000133771
0.000137129
0.000140412
0.000143484
0.000146173
0.000148325
0.000149869
0.000150843
0.000151459
0.000152131
0.000153036
0.000154008
0.000154927
0.000155718
0.000156367
0.000156902
0.000157359
0.000157695
0.000157916
0.000158046
0.000158099
0.000158083
0.000158005
0.000157871
0.000157689
0.000157461
0.000157194
0.000156889
0.000156551
0.00015617
0.000155786
0.000155293
0.000155017
0.00015381
0.000155041
0.000102801
0.000107234
0.00011144
0.000115017
0.00011802
0.000120683
0.000123199
0.000125732
0.000128431
0.000131429
0.000134813
0.000138599
0.00014269
0.000146906
0.000150902
0.000154032
0.000156147
0.000157702
0.00015889
0.000159802
0.000160429
0.000160793
0.000161009
0.000161063
0.000160985
0.000160808
0.000160555
0.000160244
0.000159893
0.000159519
0.000159138
0.000158765
0.000158412
0.000158089
0.000157812
0.000157599
0.000157427
0.00015737
0.000157185
0.000158038
0.000154972
9.50856e-05
9.97877e-05
0.000104184
0.000108053
0.000111363
0.000114155
0.000116418
0.000118139
0.000119351
0.000120133
0.000120602
0.000120883
0.000121099
0.000121278
0.000121528
0.000122552
0.000124356
0.000126328
0.000128271
0.00013007
0.000131705
0.000133185
0.000134535
0.000135746
0.000136811
0.000137745
0.000138559
0.000139257
0.000139844
0.00014032
0.000140689
0.000140949
0.000141103
0.000141145
0.000141079
0.000140886
0.000140616
0.00014011
0.000139855
0.000137933
0.000140649
9.90111e-05
0.000104904
0.000107894
0.000108402
0.000107589
0.000106986
0.000107947
0.000111022
0.000115798
0.000121391
0.000126994
0.00013208
0.000136384
0.000139881
0.000142543
0.000143806
0.000143844
0.000143327
0.000142563
0.00014167
0.000140595
0.000139612
0.000138537
0.000137433
0.000136331
0.000135243
0.000134171
0.000133123
0.000132104
0.000131115
0.000130157
0.000129229
0.000128324
0.000127434
0.000126563
0.000125726
0.000124858
0.000124069
0.000122982
0.000123164
0.00011845
0.448365
0.34259
0.287098
0.24197
0.200855
0.162893
0.127107
0.0920198
0.0569719
0.0251799
0.016324
0.00291602
0.00122303
0.000373994
0.00161808
0.00155742
0.00141499
0.00134547
0.00127885
0.00120596
0.00113841
0.00107184
0.00100827
0.000946779
0.000887521
0.000830332
0.000775161
0.000721867
0.000670511
0.00062141
0.000574185
0.000529661
0.000487325
0.000447644
0.000410596
0.00037595
0.00034385
0.000314118
0.000286719
0.000261493
0.000238396
0.000217269
0.000198037
0.000180492
0.000164529
0.000150067
0.000136813
0.000124746
0.000113765
0.000103667
9.42505e-05
8.56243e-05
7.75865e-05
7.02991e-05
6.3894e-05
5.77891e-05
5.43977e-05
5.18644e-05
5.23662e-05
5.34878e-05
5.62932e-05
5.85129e-05
6.1378e-05
6.39013e-05
6.6116e-05
6.81496e-05
6.9932e-05
7.11149e-05
7.28313e-05
7.26278e-05
7.53541e-05
7.23815e-05
7.88057e-05
7.30421e-05
0.737392
0.521224
0.403294
0.32652
0.268062
0.219307
0.176273
0.136235
0.0974068
0.0590422
0.0253422
0.015245
0.00392987
0.00103469
4.0758e-05
0.00153721
0.00150351
0.00135053
0.00127736
0.00121095
0.0011428
0.00107509
0.00101067
0.00094845
0.000888532
0.000830806
0.000775192
0.000721581
0.00066992
0.000620626
0.000573215
0.0005285
0.000486059
0.000446194
0.00040905
0.000374311
0.000342094
0.000312266
0.000284755
0.000259416
0.000236205
0.000214927
0.000195594
0.000177909
0.000161803
0.000147295
0.000133872
0.000121703
0.000110728
0.000100589
9.11388e-05
8.26241e-05
7.47141e-05
6.77523e-05
6.17565e-05
5.63021e-05
5.3928e-05
5.22774e-05
5.34761e-05
5.48528e-05
5.76502e-05
5.97552e-05
6.23789e-05
6.47113e-05
6.66935e-05
6.85134e-05
7.01322e-05
7.11194e-05
7.2736e-05
7.22907e-05
7.50938e-05
7.16365e-05
7.8502e-05
7.22198e-05
0.979519
0.708643
0.535011
0.423501
0.34433
0.282688
0.231123
0.185283
0.142428
0.100911
0.0602355
0.0257797
0.0144387
0.00343392
0.000124861
0.000419453
0.00133485
0.00145539
0.00129635
0.00121102
0.00114783
0.0010808
0.00101474
0.000951543
0.000890769
0.000832185
0.000775924
0.000721808
0.000669688
0.000619946
0.000572368
0.000527291
0.00048475
0.00044465
0.000407299
0.000372448
0.000340062
0.000310102
0.000282452
0.000256959
0.000233597
0.00021216
0.000192667
0.000174824
0.000158559
0.000143933
0.000130338
0.000118108
0.0001071
9.68847e-05
8.75063e-05
7.91123e-05
7.14595e-05
6.49125e-05
5.93863e-05
5.53902e-05
5.37696e-05
5.32833e-05
5.47925e-05
5.65251e-05
5.90341e-05
6.12053e-05
6.3464e-05
6.55365e-05
6.73163e-05
6.88823e-05
7.03295e-05
7.11018e-05
7.26024e-05
7.1918e-05
7.47623e-05
7.08193e-05
7.81113e-05
7.13193e-05
1
0.938363
0.695146
0.540394
0.435087
0.356945
0.294443
0.241127
0.193106
0.147972
0.10435
0.0621086
0.0269927
0.0139697
0.00727665
0
0.000362563
0.00119139
0.00138507
0.00124644
0.00114798
0.00108534
0.00102095
0.000955705
0.000893591
0.000834344
0.00077739
0.000722644
0.000670031
0.000619823
0.000571953
0.000526503
0.000483725
0.000443375
0.000405781
0.000370762
0.000338186
0.000308056
0.000280238
0.00025458
0.000231034
0.000209426
0.000189758
0.000171745
0.000155325
0.000140539
0.000126812
0.00011451
0.000103436
9.31804e-05
8.39003e-05
7.56691e-05
6.83564e-05
6.23322e-05
5.75195e-05
5.48796e-05
5.39917e-05
5.43851e-05
5.60639e-05
5.79798e-05
6.02387e-05
6.23723e-05
6.4334e-05
6.61587e-05
6.77592e-05
6.90939e-05
7.03981e-05
7.09725e-05
7.2373e-05
7.14617e-05
7.43734e-05
6.99471e-05
7.76855e-05
7.04196e-05
1
1
0.9093
0.690353
0.548051
0.447109
0.36971
0.306268
0.251247
0.201256
0.154216
0.108983
0.0656545
0.0295041
0.0138771
0.00772198
0.00048262
0.000317099
0.000932703
0.00130431
0.00119645
0.00108131
0.0010186
0.000960609
0.000897895
0.000836745
0.000779011
0.000723906
0.000670855
0.000620142
0.000571874
0.000526082
0.000482999
0.000442387
0.000404536
0.000369302
0.000336527
0.000306214
0.000278203
0.000252367
0.000228629
0.000206833
0.000186983
0.00016879
0.00015221
0.000137266
0.000123425
0.000111027
9.98952e-05
8.96512e-05
8.04862e-05
7.24917e-05
6.56128e-05
6.02446e-05
5.6364e-05
5.47523e-05
5.45724e-05
5.5509e-05
5.72789e-05
5.92079e-05
6.12726e-05
6.32568e-05
6.49825e-05
6.65871e-05
6.80168e-05
6.91456e-05
7.03283e-05
7.07262e-05
7.20449e-05
7.09179e-05
7.39247e-05
6.90231e-05
7.72239e-05
6.95316e-05
1
1
1
0.901714
0.698489
0.562382
0.462925
0.384831
0.31976
0.262796
0.210905
0.162226
0.115718
0.0714979
0.0339145
0.0148403
0.00230597
0.00142027
0.00023961
0.000582088
0.00119413
0.00118949
0.0010387
0.000953763
0.000898874
0.000841471
0.000781867
0.000725158
0.000671771
0.000620943
0.000572336
0.000526117
0.000482638
0.000441727
0.000403613
0.000368134
0.000335134
0.000304617
0.000276403
0.000250366
0.000226431
0.000204436
0.00018439
0.000166011
0.000149262
0.000134168
0.000120211
0.000107727
9.6558e-05
8.63763e-05
7.73737e-05
6.97186e-05
6.3396e-05
5.88116e-05
5.59229e-05
5.51441e-05
5.55165e-05
5.67529e-05
5.85152e-05
6.03536e-05
6.22269e-05
6.40055e-05
6.55182e-05
6.69237e-05
6.81792e-05
6.91275e-05
7.01787e-05
7.042e-05
7.16655e-05
7.03373e-05
7.34385e-05
6.8082e-05
7.67365e-05
6.86694e-05
1
1
1
1
0.920234
0.721379
0.585438
0.484249
0.403746
0.336169
0.276899
0.223065
0.172872
0.125255
0.0801615
0.0408712
0.0173605
0.00430182
0.00323311
0.000130954
0.000318002
0.000919783
0.00112507
0.00101546
0.000897811
0.000834975
0.000784984
0.000730276
0.000674484
0.000621965
0.000572981
0.000526675
0.000482899
0.000441578
0.00040308
0.000367299
0.000334059
0.000303323
0.000274887
0.000248625
0.000224475
0.000202271
0.000182016
0.000163441
0.000146519
0.000131269
0.000117199
0.000104648
9.34652e-05
8.33863e-05
7.46193e-05
6.7403e-05
6.1754e-05
5.8013e-05
5.60399e-05
5.59396e-05
5.66692e-05
5.80444e-05
5.97194e-05
6.14222e-05
6.30933e-05
6.46645e-05
6.59759e-05
6.71959e-05
6.8283e-05
6.90696e-05
6.99853e-05
7.00851e-05
7.12623e-05
6.97502e-05
7.29342e-05
6.71489e-05
7.62378e-05
6.78417e-05
1
1
1
1
1
0.967482
0.761224
0.619154
0.512768
0.427911
0.356764
0.294656
0.238662
0.186908
0.138195
0.0921715
0.0512052
0.0221778
0.00734625
0.0053279
0.00107622
0.000225416
0.000418867
0.000951388
0.000993669
0.000869066
0.000774398
0.00072173
0.00067656
0.000626664
0.000575743
0.000527683
0.000483324
0.000441879
0.000403146
0.00036699
0.000333383
0.000302347
0.000273666
0.00024718
0.000222803
0.000200375
0.000179892
0.000161106
0.000144009
0.000128595
0.000114425
0.000101821
9.06518e-05
8.07118e-05
7.22636e-05
6.55643e-05
6.06709e-05
5.77464e-05
5.65494e-05
5.69333e-05
5.78598e-05
5.9271e-05
6.08108e-05
6.23652e-05
6.3831e-05
6.5214e-05
6.63391e-05
6.73845e-05
6.83193e-05
6.89567e-05
6.975e-05
6.97212e-05
7.08356e-05
6.91571e-05
7.24165e-05
6.62292e-05
7.57326e-05
6.7047e-05
0.993436
1
1
1
1
1
1
0.822359
0.666633
0.550823
0.459163
0.383017
0.317246
0.258631
0.205067
0.155116
0.108131
0.0654233
0.0314673
0.0121424
0.00371008
0.00246268
8.91704e-05
0.000243396
0.000618692
0.000922314
0.000877193
0.000754678
0.000669014
0.000618699
0.000576831
0.000531997
0.00048623
0.000442879
0.000403248
0.000366881
0.00033317
0.000301882
0.000272861
0.000246054
0.000221408
0.000198753
0.000178049
0.000159052
0.000141772
0.000126186
0.000111929
9.92852e-05
8.81647e-05
7.84134e-05
7.03589e-05
6.42404e-05
6.01198e-05
5.79258e-05
5.73319e-05
5.80063e-05
5.90112e-05
6.03846e-05
6.1767e-05
6.3165e-05
6.44347e-05
6.56444e-05
6.65995e-05
6.74828e-05
6.82816e-05
6.87819e-05
6.94689e-05
6.93248e-05
7.0381e-05
6.85542e-05
7.18818e-05
6.53245e-05
7.52202e-05
6.62791e-05
0.812194
1
1
1
1
1
1
1
0.913376
0.733164
0.601982
0.500052
0.416807
0.346076
0.284028
0.228139
0.176656
0.128572
0.0841961
0.0462752
0.0205638
0.00603705
0.00498482
0.00176254
0.00021827
0.000231443
0.000511249
0.00078507
0.000753891
0.000650671
0.000572083
0.000523563
0.000485503
0.000446502
0.000406435
0.000368111
0.000333096
0.000301399
0.000272329
0.000245415
0.000220503
0.000197518
0.000176506
0.000157275
0.000139824
0.000124087
0.000109763
9.70966e-05
8.60646e-05
7.65523e-05
6.89687e-05
6.3457e-05
6.00788e-05
5.84719e-05
5.83164e-05
5.91067e-05
6.01196e-05
6.1386e-05
6.26144e-05
6.38386e-05
6.49302e-05
6.59719e-05
6.67732e-05
6.75072e-05
6.81803e-05
6.85578e-05
6.91476e-05
6.89016e-05
6.9902e-05
6.79461e-05
7.13297e-05
6.44406e-05
7.47015e-05
6.55321e-05
0.642124
0.724465
1
1
1
1
1
1
1
1
0.828064
0.671985
0.554361
0.460738
0.382992
0.316181
0.257093
0.20352
0.154014