/*--------------------------------*- C++ -*----------------------------------*\
| =========                 |                                                 |
| \\      /  F ield         | OpenFOAM: The Open Source CFD Toolbox           |
|  \\    /   O peration     | Version:  2312                                  |
|   \\  /    A nd           | Website:  www.openfoam.com                      |
|    \\/     M anipulation  |                                                 |
\*---------------------------------------------------------------------------*/
FoamFile
{
    version     2.0;
    format      ascii;
    arch        "LSB;label=32;scalar=64";
    class       volScalarField;
    location    "750";
    object      turbulenceProperties:nuEff;
}
// * * * * * * * * * * * * * * * * * * * * * * * * * * * * * * * * * * * * * //

dimensions      [0 2 -1 0 0 0 0];

internalField   nonuniform List<scalar> 
11040
(
4.80225e-05
6.48787e-05
2.53324e-05
5.92119e-05
0.000198846
0.000191542
0.00018193
0.000171798
0.000159303
0.000151541
0.000143582
0.000136643
0.000130371
0.000125462
0.000121257
0.000119006
0.000118782
0.000120533
0.000123787
0.000128328
0.000134237
0.00014131
0.000149273
0.000157927
0.000167369
0.000178553
0.000191411
0.000204062
0.000215946
0.000226488
0.000235062
0.000241015
0.000245043
0.000251226
0.000269595
0.000261071
0.000185358
0.000191237
0.000210375
0.000231021
0.000307308
1.42179e-05
4.70374e-05
6.59662e-05
0.000154234
0.000613314
0.000637806
0.000562371
0.000518206
0.000452432
0.000416874
0.000380495
0.000352046
0.00032524
0.000304987
0.000286053
0.000272865
0.000266409
0.000265629
0.000267848
0.000271832
0.00027773
0.000285622
0.000293926
0.000301479
0.000309158
0.000324248
0.000351637
0.000383576
0.00041957
0.000459733
0.000504291
0.000553614
0.000606931
0.000665892
0.000732888
0.000801903
0.000871612
0.000963902
0.00107371
0.00116529
0.00163684
1.55183e-05
1.94898e-05
4.01966e-05
7.57614e-05
0.000425278
0.000978887
0.0011981
0.00115663
0.00101463
0.000939624
0.000857434
0.000796654
0.000737121
0.000693523
0.000651693
0.000618281
0.000592805
0.000573281
0.000561839
0.00055749
0.000561677
0.000575386
0.000599348
0.000634401
0.000680622
0.000737841
0.000805836
0.000884126
0.000972368
0.00107
0.0011761
0.00128994
0.00141109
0.00154023
0.00167859
0.00182679
0.00199079
0.00219313
0.00243944
0.00268672
0.00352831
1.64841e-05
1.51721e-05
2.07019e-05
2.12855e-05
0.000150206
0.000609439
0.00132027
0.00172085
0.00178963
0.00169806
0.00155499
0.00145547
0.00135118
0.0012744
0.00119951
0.00113708
0.00109113
0.00105465
0.00103271
0.00102367
0.00102932
0.00105262
0.0010961
0.00116093
0.00124657
0.00135195
0.00147615
0.00161818
0.00177715
0.00195205
0.00214137
0.00234374
0.00255813
0.00278482
0.00302474
0.00328071
0.00356534
0.00391007
0.00433273
0.00479998
0.00598858
1.62056e-05
1.57667e-05
1.64137e-05
1.54147e-05
1.49233e-05
0.00018878
0.000723302
0.00157825
0.00227093
0.00247902
0.00248959
0.00238283
0.00221984
0.00210268
0.00198916
0.00188639
0.00181413
0.00175465
0.00171784
0.00170208
0.00170746
0.00173954
0.00180449
0.00190421
0.00203797
0.00220446
0.00240201
0.00262841
0.00288169
0.00315997
0.00346023
0.0037797
0.0041163
0.0044698
0.00484076
0.00523326
0.00566414
0.00617978
0.00681343
0.00755673
0.00905425
1.6096e-05
1.61883e-05
1.58958e-05
1.65964e-05
1.16903e-05
1.09314e-05
0.000184272
0.000745667
0.00173376
0.00275142
0.00322338
0.0033919
0.00337924
0.00327037
0.00309456
0.00293262
0.00282561
0.00273432
0.00267455
0.0026487
0.00265126
0.00268974
0.00277736
0.00291788
0.00311017
0.00335318
0.00364437
0.00397951
0.00435434
0.00476584
0.00520854
0.00567709
0.0061676
0.0066788
0.00721018
0.00776627
0.00836836
0.00907553
0.00994736
0.01101
0.0128258
1.61053e-05
1.61377e-05
1.60137e-05
1.63554e-05
1.5918e-05
1.04241e-05
1.00038e-05
0.000131465
0.000674392
0.00172822
0.00303583
0.00397394
0.00435143
0.00449462
0.00448639
0.00438555
0.00423785
0.00408685
0.00399153
0.00395132
0.00394911
0.00398959
0.00409822
0.00428335
0.00454294
0.00487709
0.00528305
0.00575389
0.0062804
0.00685842
0.00747879
0.00813164
0.00880979
0.0095103
0.0102304
0.0109733
0.011764
0.0126726
0.0137941
0.0151973
0.017376
1.61145e-05
1.6112e-05
1.61318e-05
1.60494e-05
1.65663e-05
1.60306e-05
1.00181e-05
1e-05
6.36562e-05
0.000526411
0.00154002
0.00304642
0.00451718
0.00533159
0.00569794
0.00584249
0.00586928
0.00581983
0.00575109
0.00569407
0.00569019
0.00574482
0.00587819
0.00611279
0.0064462
0.00688282
0.00742256
0.00805743
0.00876717
0.009547
0.010383
0.0112577
0.0121577
0.0130779
0.0140115
0.0149573
0.0159429
0.0170463
0.0183999
0.0201293
0.0226756
1.61128e-05
1.61164e-05
1.61123e-05
1.61314e-05
1.59984e-05
1.71631e-05
1.53658e-05
1.01082e-05
1.03398e-05
1.06377e-05
0.000327744
0.00119721
0.00273634
0.00462908
0.00615723
0.00692024
0.00732263
0.00752717
0.007651
0.0077337
0.00783132
0.00796997
0.00819207
0.00852679
0.00897531
0.00953763
0.0102213
0.011032
0.0119545
0.0129699
0.01406
0.0151952
0.0163497
0.0175158
0.0186822
0.0198357
0.0210055
0.0222794
0.0238008
0.0257847
0.0286389
1.6112e-05
1.61136e-05
1.61134e-05
1.61192e-05
1.60984e-05
1.60478e-05
1.73558e-05
1.48809e-05
1.04613e-05
1.00152e-05
3.4272e-05
0.00013752
0.000788263
0.00216133
0.00421873
0.00643316
0.00801491
0.00883051
0.00934726
0.00971205
0.0100482
0.010399
0.0108268
0.0113763
0.012068
0.0129029
0.0138712
0.0149556
0.0161378
0.0174148
0.0187874
0.0202141
0.0216441
0.0230655
0.0244701
0.0258181
0.0271333
0.0285193
0.0301068
0.0321887
0.0351793
1.61107e-05
1.61117e-05
1.61131e-05
1.6109e-05
1.61266e-05
1.6055e-05
1.61803e-05
1.70442e-05
1.58827e-05
1.13342e-05
1.0007e-05
1.05895e-05
1.02333e-05
0.000381595
0.00142673
0.00333485
0.00589604
0.00844216
0.0101925
0.011204
0.0119772
0.0126563
0.0133747
0.0142152
0.0152322
0.0164453
0.0178513
0.0194334
0.0211578
0.0229771
0.0248283
0.0266373
0.0283571
0.0300203
0.0316613
0.0331737
0.0345505
0.0359589
0.0374905
0.0393962
0.0421933
1.61092e-05
1.61102e-05
1.61101e-05
1.61107e-05
1.61084e-05
1.61172e-05
1.60621e-05
1.61699e-05
1.67639e-05
1.65882e-05
1.28946e-05
1.00024e-05
1.00013e-05
3.61964e-05
0.000108054
0.000734746
0.00219735
0.00462722
0.00770741
0.010699
0.0128387
0.0142209
0.0153957
0.0165953
0.0179628
0.0195648
0.0214186
0.0235231
0.025847
0.0283367
0.0309242
0.0335293
0.0360614
0.0384289
0.0405167
0.0421971
0.0435006
0.0448257
0.0461546
0.0476119
0.0497788
1.61079e-05
1.61084e-05
1.61084e-05
1.61082e-05
1.61082e-05
1.61078e-05
1.6109e-05
1.60783e-05
1.61296e-05
1.65334e-05
1.70256e-05
1.43561e-05
1.01991e-05
1.00019e-05
1.01306e-05
0.000109847
0.000231955
0.00111564
0.00297239
0.00591056
0.00958534
0.0131482
0.0158333
0.0177994
0.0196496
0.0216666
0.0239293
0.0264927
0.0293467
0.0324363
0.0356909
0.039028
0.0423517
0.0455664
0.0485693
0.0512463
0.053498
0.0552455
0.0563754
0.0571192
0.0585408
1.61067e-05
1.6107e-05
1.6107e-05
1.6107e-05
1.6107e-05
1.61065e-05
1.61066e-05
1.61064e-05
1.60882e-05
1.60953e-05
1.63317e-05
1.70798e-05
1.59402e-05
1.157e-05
1.00003e-05
1.00001e-05
1.13545e-05
0.000179863
0.000356909
0.00143771
0.00362581
0.00688772
0.0107771
0.0148168
0.0184888
0.0215857
0.0244344
0.0274504
0.0307702
0.034362
0.0381707
0.0421284
0.0461328
0.050085
0.0538822
0.0574236
0.0606187
0.0634057
0.0657132
0.0675084
0.0688352
1.61056e-05
1.61064e-05
1.61065e-05
1.61066e-05
1.61064e-05
1.61061e-05
1.61057e-05
1.61058e-05
1.61053e-05
1.60976e-05
1.60712e-05
1.62091e-05
1.68189e-05
1.67702e-05
1.4427e-05
1.02911e-05
1.00031e-05
1e-05
1.57127e-05
0.000225109
0.000417945
0.00152867
0.00354063
0.00651168
0.0102883
0.0146304
0.019268
0.0239029
0.0283353
0.0326237
0.0369669
0.0414707
0.0460862
0.0507056
0.0552199
0.0595293
0.0635544
0.0672568
0.0705686
0.0734307
0.0758345
1.61048e-05
1.6106e-05
1.61061e-05
1.61059e-05
1.61056e-05
1.61052e-05
1.61049e-05
1.61046e-05
1.61046e-05
1.61048e-05
1.61014e-05
1.60702e-05
1.61393e-05
1.64101e-05
1.71168e-05
1.59386e-05
1.29627e-05
1.00147e-05
1.00006e-05
1e-05
1.85565e-05
0.000198376
0.00024541
0.00100485
0.00244717
0.00470285
0.00780832
0.0117352
0.0164081
0.0217233
0.0275052
0.0334751
0.039346
0.0449732
0.050342
0.0554732
0.060361
0.0649915
0.0692965
0.0732038
0.0766836
1.6104e-05
1.61053e-05
1.61051e-05
1.61046e-05
1.61041e-05
1.61037e-05
1.61034e-05
1.61032e-05
1.61032e-05
1.61031e-05
1.61044e-05
1.61008e-05
1.60871e-05
1.60759e-05
1.62513e-05
1.66684e-05
1.71359e-05
1.51561e-05
1.16259e-05
1.00015e-05
1.00003e-05
1e-05
1.07235e-05
7.34513e-05
0.000270703
0.000262391
0.000971498
0.00219718
0.00409546
0.00675572
0.0102381
0.0145681
0.0197145
0.0255976
0.0320479
0.0387909
0.0455007
0.05194
0.0579119
0.0633151
0.0681499
1.61031e-05
1.61041e-05
1.61038e-05
1.61033e-05
1.61029e-05
1.61026e-05
1.61024e-05
1.61022e-05
1.61021e-05
1.6102e-05
1.6102e-05
1.61028e-05
1.61022e-05
1.60937e-05
1.60721e-05
1.61204e-05
1.63628e-05
1.69364e-05
1.69671e-05
1.48209e-05
1.12377e-05
1.00013e-05
1.00003e-05
1e-05
1e-05
1.05642e-05
5.48413e-05
0.000183492
2.22712e-05
0.000327321
0.000996905
0.00213717
0.0038418
0.00622877
0.00936692
0.0132767
0.0179188
0.0232608
0.0291599
0.0354282
0.0418609
1.61019e-05
1.61026e-05
1.61021e-05
1.61015e-05
1.61011e-05
1.61008e-05
1.61006e-05
1.61005e-05
1.61005e-05
1.61004e-05
1.61004e-05
1.61004e-05
1.61007e-05
1.6102e-05
1.60966e-05
1.60851e-05
1.60688e-05
1.6183e-05
1.64987e-05
1.7034e-05
1.68766e-05
1.45575e-05
1.1768e-05
1.0028e-05
1.00009e-05
1e-05
1e-05
1e-05
1.00005e-05
1.08782e-05
4.70213e-05
0.000148792
0.000299364
0.000119329
0.000409163
0.0010575
0.00211052
0.00364911
0.00572925
0.00837856
0.0116604
1.61006e-05
1.6101e-05
1.61004e-05
1.60999e-05
1.60994e-05
1.60992e-05
1.6099e-05
1.6099e-05
1.6099e-05
1.60991e-05
1.60991e-05
1.60992e-05
1.60992e-05
1.60995e-05
1.61e-05
1.60997e-05
1.609e-05
1.60768e-05
1.60805e-05
1.62232e-05
1.66046e-05
1.70419e-05
1.69956e-05
1.53533e-05
1.29017e-05
1.09502e-05
1.00109e-05
1.00005e-05
1e-05
1e-05
1e-05
1e-05
1e-05
1.00154e-05
1.13148e-05
4.16772e-05
0.000125754
0.000231407
0.00036127
1.02177e-05
0.000332552
1.60993e-05
1.60994e-05
1.60989e-05
1.60984e-05
1.60981e-05
1.60979e-05
1.60979e-05
1.6098e-05
1.6098e-05
1.60981e-05
1.60982e-05
1.60984e-05
1.60985e-05
1.60985e-05
1.60987e-05
1.60991e-05
1.60995e-05
1.60965e-05
1.60836e-05
1.6066e-05
1.60902e-05
1.6262e-05
1.65646e-05
1.70329e-05
1.71084e-05
1.66346e-05
1.50655e-05
1.29595e-05
1.12836e-05
1.03643e-05
1.00025e-05
1.00003e-05
1e-05
1e-05
1e-05
1e-05
1e-05
1e-05
1e-05
1e-05
1.03256e-05
1.60979e-05
1.6098e-05
1.60975e-05
1.60972e-05
1.60971e-05
1.60972e-05
1.60973e-05
1.60975e-05
1.60976e-05
1.60978e-05
1.60979e-05
1.6098e-05
1.60982e-05
1.60983e-05
1.60983e-05
1.60984e-05
1.60987e-05
1.60992e-05
1.60991e-05
1.60935e-05
1.60767e-05
1.6067e-05
1.60863e-05
1.62065e-05
1.64418e-05
1.67339e-05
1.70994e-05
1.71881e-05
1.6808e-05
1.60485e-05
1.46592e-05
1.30436e-05
1.16355e-05
1.06846e-05
1.01996e-05
1.00052e-05
1.00003e-05
1e-05
1e-05
1e-05
1e-05
1.60966e-05
1.60967e-05
1.60965e-05
1.60965e-05
1.60966e-05
1.60969e-05
1.60971e-05
1.60974e-05
1.60977e-05
1.60979e-05
1.60981e-05
1.60982e-05
1.60984e-05
1.60985e-05
1.60986e-05
1.60986e-05
1.60987e-05
1.60988e-05
1.60992e-05
1.60998e-05
1.60984e-05
1.60915e-05
1.60786e-05
1.60651e-05
1.60747e-05
1.61211e-05
1.6242e-05
1.64433e-05
1.66939e-05
1.69369e-05
1.71979e-05
1.72618e-05
1.70444e-05
1.6516e-05
1.57697e-05
1.47224e-05
1.35394e-05
1.23967e-05
1.14728e-05
1.08017e-05
1.03621e-05
1.60954e-05
1.60957e-05
1.60958e-05
1.60961e-05
1.60965e-05
1.60969e-05
1.60974e-05
1.60977e-05
1.60981e-05
1.60983e-05
1.60986e-05
1.60988e-05
1.6099e-05
1.60991e-05
1.60992e-05
1.60993e-05
1.60994e-05
1.60994e-05
1.60995e-05
1.60996e-05
1.61002e-05
1.61004e-05
1.60992e-05
1.6094e-05
1.60842e-05
1.60724e-05
1.60639e-05
1.6071e-05
1.61083e-05
1.61789e-05
1.62981e-05
1.64639e-05
1.6661e-05
1.68683e-05
1.70546e-05
1.72352e-05
1.73242e-05
1.72677e-05
1.7047e-05
1.66626e-05
1.61833e-05
1.60944e-05
1.6095e-05
1.60955e-05
1.60961e-05
1.60967e-05
1.60972e-05
1.60978e-05
1.60982e-05
1.60986e-05
1.60989e-05
1.60992e-05
1.60995e-05
1.60997e-05
1.60999e-05
1.61e-05
1.61001e-05
1.61002e-05
1.61003e-05
1.61004e-05
1.61004e-05
1.61005e-05
1.61008e-05
1.61012e-05
1.61016e-05
1.6101e-05
1.60985e-05
1.6093e-05
1.60843e-05
1.60741e-05
1.60657e-05
1.60626e-05
1.60706e-05
1.60954e-05
1.61421e-05
1.62107e-05
1.6305e-05
1.64235e-05
1.65638e-05
1.67158e-05
1.68699e-05
1.70092e-05
1.60935e-05
1.60945e-05
1.60954e-05
1.60962e-05
1.6097e-05
1.60976e-05
1.60982e-05
1.60987e-05
1.60992e-05
1.60996e-05
1.60999e-05
1.61002e-05
1.61005e-05
1.61007e-05
1.61009e-05
1.6101e-05
1.61012e-05
1.61013e-05
1.61014e-05
1.61015e-05
1.61016e-05
1.61017e-05
1.61018e-05
1.6102e-05
1.61024e-05
1.61028e-05
1.61029e-05
1.61024e-05
1.61004e-05
1.60968e-05
1.60912e-05
1.60839e-05
1.60757e-05
1.6068e-05
1.60626e-05
1.6061e-05
1.6065e-05
1.60774e-05
1.60994e-05
1.61345e-05
1.61742e-05
1.60929e-05
1.60943e-05
1.60955e-05
1.60965e-05
1.60973e-05
1.6098e-05
1.60987e-05
1.60992e-05
1.60997e-05
1.61002e-05
1.61005e-05
1.61009e-05
1.61012e-05
1.61014e-05
1.61017e-05
1.61019e-05
1.61021e-05
1.61022e-05
1.61024e-05
1.61025e-05
1.61027e-05
1.61028e-05
1.61029e-05
1.6103e-05
1.61031e-05
1.61033e-05
1.61035e-05
1.61039e-05
1.61043e-05
1.61045e-05
1.61045e-05
1.61039e-05
1.61026e-05
1.61002e-05
1.60968e-05
1.60924e-05
1.60872e-05
1.60812e-05
1.6075e-05
1.60692e-05
1.60646e-05
1.60926e-05
1.60943e-05
1.60956e-05
1.60967e-05
1.60976e-05
1.60984e-05
1.60991e-05
1.60996e-05
1.61002e-05
1.61007e-05
1.61011e-05
1.61015e-05
1.61018e-05
1.61021e-05
1.61024e-05
1.61026e-05
1.61029e-05
1.61031e-05
1.61033e-05
1.61035e-05
1.61037e-05
1.61038e-05
1.6104e-05
1.61041e-05
1.61043e-05
1.61044e-05
1.61045e-05
1.61047e-05
1.61048e-05
1.61051e-05
1.61053e-05
1.61057e-05
1.6106e-05
1.61063e-05
1.61065e-05
1.61065e-05
1.61063e-05
1.61056e-05
1.61046e-05
1.61029e-05
1.61012e-05
1.60924e-05
1.60944e-05
1.60958e-05
1.60969e-05
1.60978e-05
1.60986e-05
1.60993e-05
1.61e-05
1.61006e-05
1.61011e-05
1.61015e-05
1.6102e-05
1.61023e-05
1.61027e-05
1.6103e-05
1.61033e-05
1.61036e-05
1.61039e-05
1.61041e-05
1.61043e-05
1.61046e-05
1.61048e-05
1.6105e-05
1.61052e-05
1.61054e-05
1.61055e-05
1.61057e-05
1.61058e-05
1.6106e-05
1.61061e-05
1.61063e-05
1.61064e-05
1.61066e-05
1.61068e-05
1.61071e-05
1.61074e-05
1.61077e-05
1.6108e-05
1.61083e-05
1.61086e-05
1.61089e-05
1.60924e-05
1.60944e-05
1.60958e-05
1.6097e-05
1.60979e-05
1.60988e-05
1.60995e-05
1.61002e-05
1.61008e-05
1.61014e-05
1.61019e-05
1.61024e-05
1.61028e-05
1.61032e-05
1.61036e-05
1.61039e-05
1.61043e-05
1.61046e-05
1.61049e-05
1.61051e-05
1.61054e-05
1.61057e-05
1.61059e-05
1.61061e-05
1.61064e-05
1.61066e-05
1.61068e-05
1.6107e-05
1.61071e-05
1.61073e-05
1.61075e-05
1.61077e-05
1.61078e-05
1.6108e-05
1.61082e-05
1.61083e-05
1.61085e-05
1.61087e-05
1.61089e-05
1.61091e-05
1.61093e-05
1.60923e-05
1.60943e-05
1.60958e-05
1.6097e-05
1.6098e-05
1.60988e-05
1.60996e-05
1.61004e-05
1.6101e-05
1.61017e-05
1.61022e-05
1.61027e-05
1.61032e-05
1.61037e-05
1.61041e-05
1.61045e-05
1.61049e-05
1.61052e-05
1.61055e-05
1.61058e-05
1.61062e-05
1.61065e-05
1.61068e-05
1.6107e-05
1.61073e-05
1.61075e-05
1.61078e-05
1.6108e-05
1.61082e-05
1.61084e-05
1.61086e-05
1.61088e-05
1.6109e-05
1.61092e-05
1.61094e-05
1.61096e-05
1.61098e-05
1.611e-05
1.61102e-05
1.61104e-05
1.61106e-05
1.60922e-05
1.60942e-05
1.60957e-05
1.60968e-05
1.60979e-05
1.60988e-05
1.60996e-05
1.61004e-05
1.61011e-05
1.61018e-05
1.61024e-05
1.6103e-05
1.61035e-05
1.6104e-05
1.61045e-05
1.61049e-05
1.61054e-05
1.61058e-05
1.61061e-05
1.61065e-05
1.61069e-05
1.61072e-05
1.61075e-05
1.61078e-05
1.61081e-05
1.61084e-05
1.61087e-05
1.61089e-05
1.61092e-05
1.61094e-05
1.61097e-05
1.61099e-05
1.61101e-05
1.61103e-05
1.61106e-05
1.61108e-05
1.6111e-05
1.61112e-05
1.61114e-05
1.61117e-05
1.61119e-05
1.6092e-05
1.6094e-05
1.60954e-05
1.60966e-05
1.60977e-05
1.60986e-05
1.60995e-05
1.61004e-05
1.61012e-05
1.61019e-05
1.61026e-05
1.61032e-05
1.61038e-05
1.61043e-05
1.61049e-05
1.61053e-05
1.61058e-05
1.61062e-05
1.61067e-05
1.61071e-05
1.61075e-05
1.61079e-05
1.61082e-05
1.61086e-05
1.61089e-05
1.61092e-05
1.61095e-05
1.61098e-05
1.61101e-05
1.61103e-05
1.61106e-05
1.61109e-05
1.61111e-05
1.61114e-05
1.61116e-05
1.61119e-05
1.61121e-05
1.61124e-05
1.61126e-05
1.61128e-05
1.61131e-05
1.60917e-05
1.60936e-05
1.60951e-05
1.60963e-05
1.60974e-05
1.60984e-05
1.60993e-05
1.61002e-05
1.61011e-05
1.61018e-05
1.61026e-05
1.61033e-05
1.61039e-05
1.61045e-05
1.61051e-05
1.61057e-05
1.61062e-05
1.61067e-05
1.61071e-05
1.61076e-05
1.6108e-05
1.61085e-05
1.61089e-05
1.61092e-05
1.61096e-05
1.61099e-05
1.61103e-05
1.61106e-05
1.61109e-05
1.61112e-05
1.61115e-05
1.61118e-05
1.61121e-05
1.61123e-05
1.61126e-05
1.61129e-05
1.61131e-05
1.61134e-05
1.61137e-05
1.61139e-05
1.61142e-05
1.60913e-05
1.60932e-05
1.60946e-05
1.60958e-05
1.60969e-05
1.6098e-05
1.6099e-05
1.61e-05
1.61009e-05
1.61017e-05
1.61025e-05
1.61033e-05
1.6104e-05
1.61047e-05
1.61053e-05
1.61059e-05
1.61065e-05
1.6107e-05
1.61075e-05
1.6108e-05
1.61085e-05
1.6109e-05
1.61094e-05
1.61099e-05
1.61103e-05
1.61106e-05
1.6111e-05
1.61113e-05
1.61117e-05
1.6112e-05
1.61123e-05
1.61126e-05
1.61129e-05
1.61132e-05
1.61135e-05
1.61138e-05
1.61141e-05
1.61144e-05
1.61146e-05
1.61149e-05
1.61152e-05
1.60907e-05
1.60926e-05
1.6094e-05
1.60952e-05
1.60964e-05
1.60975e-05
1.60985e-05
1.60996e-05
1.61005e-05
1.61015e-05
1.61023e-05
1.61032e-05
1.61039e-05
1.61047e-05
1.61054e-05
1.61061e-05
1.61067e-05
1.61073e-05
1.61079e-05
1.61084e-05
1.6109e-05
1.61095e-05
1.61099e-05
1.61104e-05
1.61108e-05
1.61112e-05
1.61116e-05
1.6112e-05
1.61124e-05
1.61127e-05
1.61131e-05
1.61134e-05
1.61137e-05
1.61141e-05
1.61144e-05
1.61147e-05
1.6115e-05
1.61153e-05
1.61155e-05
1.61158e-05
1.61161e-05
1.60901e-05
1.60918e-05
1.60932e-05
1.60945e-05
1.60957e-05
1.60968e-05
1.60979e-05
1.6099e-05
1.61e-05
1.6101e-05
1.6102e-05
1.61029e-05
1.61038e-05
1.61046e-05
1.61053e-05
1.61061e-05
1.61068e-05
1.61074e-05
1.61081e-05
1.61087e-05
1.61092e-05
1.61098e-05
1.61103e-05
1.61108e-05
1.61113e-05
1.61118e-05
1.61122e-05
1.61126e-05
1.6113e-05
1.61134e-05
1.61137e-05
1.61141e-05
1.61145e-05
1.61148e-05
1.61151e-05
1.61154e-05
1.61157e-05
1.6116e-05
1.61163e-05
1.61166e-05
1.61169e-05
1.60893e-05
1.60909e-05
1.60923e-05
1.60936e-05
1.60948e-05
1.6096e-05
1.60971e-05
1.60983e-05
1.60994e-05
1.61004e-05
1.61014e-05
1.61024e-05
1.61033e-05
1.61042e-05
1.61051e-05
1.61059e-05
1.61066e-05
1.61074e-05
1.61081e-05
1.61087e-05
1.61094e-05
1.611e-05
1.61105e-05
1.61111e-05
1.61116e-05
1.61121e-05
1.61126e-05
1.6113e-05
1.61134e-05
1.61139e-05
1.61142e-05
1.61146e-05
1.6115e-05
1.61153e-05
1.61157e-05
1.6116e-05
1.61163e-05
1.61167e-05
1.6117e-05
1.61172e-05
1.61176e-05
1.60883e-05
1.60899e-05
1.60912e-05
1.60925e-05
1.60937e-05
1.60949e-05
1.60961e-05
1.60973e-05
1.60985e-05
1.60996e-05
1.61006e-05
1.61017e-05
1.61027e-05
1.61036e-05
1.61045e-05
1.61054e-05
1.61062e-05
1.6107e-05
1.61078e-05
1.61085e-05
1.61092e-05
1.61099e-05
1.61105e-05
1.61111e-05
1.61117e-05
1.61122e-05
1.61127e-05
1.61132e-05
1.61136e-05
1.61141e-05
1.61145e-05
1.61149e-05
1.61153e-05
1.61157e-05
1.6116e-05
1.61164e-05
1.61167e-05
1.6117e-05
1.61174e-05
1.61176e-05
1.6118e-05
1.60871e-05
1.60886e-05
1.60899e-05
1.60912e-05
1.60924e-05
1.60936e-05
1.60949e-05
1.6096e-05
1.60972e-05
1.60984e-05
1.60995e-05
1.61006e-05
1.61017e-05
1.61027e-05
1.61037e-05
1.61046e-05
1.61055e-05
1.61064e-05
1.61072e-05
1.6108e-05
1.61088e-05
1.61095e-05
1.61102e-05
1.61108e-05
1.61114e-05
1.6112e-05
1.61125e-05
1.6113e-05
1.61135e-05
1.6114e-05
1.61144e-05
1.61149e-05
1.61153e-05
1.61157e-05
1.6116e-05
1.61164e-05
1.61167e-05
1.61171e-05
1.61174e-05
1.61177e-05
1.6118e-05
1.60857e-05
1.60872e-05
1.60884e-05
1.60896e-05
1.60909e-05
1.60921e-05
1.60933e-05
1.60945e-05
1.60957e-05
1.60969e-05
1.6098e-05
1.60992e-05
1.61003e-05
1.61014e-05
1.61024e-05
1.61035e-05
1.61044e-05
1.61054e-05
1.61062e-05
1.61071e-05
1.61079e-05
1.61087e-05
1.61094e-05
1.61101e-05
1.61107e-05
1.61114e-05
1.61119e-05
1.61125e-05
1.6113e-05
1.61135e-05
1.6114e-05
1.61144e-05
1.61149e-05
1.61153e-05
1.61156e-05
1.6116e-05
1.61164e-05
1.61167e-05
1.6117e-05
1.61173e-05
1.61177e-05
1.60842e-05
1.60855e-05
1.60867e-05
1.60878e-05
1.6089e-05
1.60901e-05
1.60913e-05
1.60925e-05
1.60937e-05
1.60949e-05
1.60961e-05
1.60973e-05
1.60985e-05
1.60997e-05
1.61008e-05
1.61018e-05
1.61029e-05
1.61039e-05
1.61048e-05
1.61057e-05
1.61066e-05
1.61074e-05
1.61082e-05
1.61089e-05
1.61096e-05
1.61103e-05
1.61109e-05
1.61115e-05
1.61121e-05
1.61126e-05
1.61131e-05
1.61135e-05
1.6114e-05
1.61144e-05
1.61148e-05
1.61152e-05
1.61155e-05
1.61158e-05
1.61162e-05
1.61165e-05
1.61168e-05
1.60824e-05
1.60836e-05
1.60847e-05
1.60857e-05
1.60868e-05
1.60879e-05
1.6089e-05
1.60902e-05
1.60914e-05
1.60926e-05
1.60938e-05
1.6095e-05
1.60962e-05
1.60974e-05
1.60986e-05
1.60997e-05
1.61008e-05
1.61019e-05
1.61029e-05
1.61038e-05
1.61048e-05
1.61056e-05
1.61065e-05
1.61072e-05
1.6108e-05
1.61087e-05
1.61093e-05
1.61099e-05
1.61105e-05
1.6111e-05
1.61116e-05
1.6112e-05
1.61125e-05
1.61129e-05
1.61133e-05
1.61137e-05
1.61141e-05
1.61145e-05
1.61148e-05
1.61151e-05
1.61154e-05
1.60804e-05
1.60814e-05
1.60823e-05
1.60833e-05
1.60842e-05
1.60852e-05
1.60863e-05
1.60874e-05
1.60886e-05
1.60898e-05
1.6091e-05
1.60922e-05
1.60934e-05
1.60946e-05
1.60958e-05
1.6097e-05
1.60982e-05
1.60993e-05
1.61003e-05
1.61013e-05
1.61023e-05
1.61032e-05
1.61041e-05
1.6105e-05
1.61057e-05
1.61065e-05
1.61072e-05
1.61078e-05
1.61084e-05
1.6109e-05
1.61096e-05
1.61101e-05
1.61105e-05
1.6111e-05
1.61114e-05
1.61118e-05
1.61121e-05
1.61125e-05
1.61128e-05
1.61131e-05
1.61133e-05
1.60781e-05
1.60789e-05
1.60797e-05
1.60805e-05
1.60813e-05
1.60822e-05
1.60831e-05
1.60842e-05
1.60853e-05
1.60864e-05
1.60876e-05
1.60888e-05
1.609e-05
1.60912e-05
1.60924e-05
1.60936e-05
1.60947e-05
1.60959e-05
1.6097e-05
1.6098e-05
1.6099e-05
1.61e-05
1.61009e-05
1.61017e-05
1.61025e-05
1.61033e-05
1.6104e-05
1.61047e-05
1.61053e-05
1.61059e-05
1.61064e-05
1.6107e-05
1.61074e-05
1.61079e-05
1.61083e-05
1.61087e-05
1.61091e-05
1.61095e-05
1.61098e-05
1.61101e-05
1.61104e-05
1.60755e-05
1.60761e-05
1.60767e-05
1.60773e-05
1.6078e-05
1.60787e-05
1.60796e-05
1.60805e-05
1.60814e-05
1.60824e-05
1.60835e-05
1.60846e-05
1.60857e-05
1.60868e-05
1.6088e-05
1.60891e-05
1.60902e-05
1.60913e-05
1.60925e-05
1.60935e-05
1.60946e-05
1.60956e-05
1.60966e-05
1.60975e-05
1.60984e-05
1.60992e-05
1.61e-05
1.61007e-05
1.61014e-05
1.61021e-05
1.61027e-05
1.61032e-05
1.61037e-05
1.61042e-05
1.61047e-05
1.61051e-05
1.61055e-05
1.61058e-05
1.61061e-05
1.61064e-05
1.61067e-05
1.60726e-05
1.6073e-05
1.60733e-05
1.60738e-05
1.60743e-05
1.60748e-05
1.60754e-05
1.60761e-05
1.60768e-05
1.60776e-05
1.60784e-05
1.60793e-05
1.60803e-05
1.60813e-05
1.60825e-05
1.60837e-05
1.60849e-05
1.6086e-05
1.60872e-05
1.60883e-05
1.60894e-05
1.60904e-05
1.60913e-05
1.60922e-05
1.60931e-05
1.60939e-05
1.60947e-05
1.60954e-05
1.6096e-05
1.60967e-05
1.60973e-05
1.60978e-05
1.60983e-05
1.60988e-05
1.60993e-05
1.60997e-05
1.61001e-05
1.61004e-05
1.61007e-05
1.61011e-05
1.61013e-05
1.60693e-05
1.60694e-05
1.60696e-05
1.60698e-05
1.607e-05
1.60702e-05
1.60705e-05
1.60708e-05
1.60711e-05
1.60715e-05
1.60719e-05
1.60723e-05
1.60727e-05
1.60732e-05
1.60736e-05
1.6074e-05
1.60745e-05
1.60749e-05
1.60753e-05
1.60757e-05
1.60761e-05
1.60766e-05
1.60771e-05
1.60776e-05
1.60782e-05
1.60787e-05
1.60792e-05
1.60798e-05
1.60803e-05
1.60808e-05
1.60813e-05
1.60818e-05
1.60822e-05
1.60827e-05
1.60831e-05
1.60835e-05
1.60838e-05
1.60842e-05
1.60845e-05
1.60848e-05
1.60851e-05
0.00369941
0.00711493
0.00999278
0.0119718
0.0130315
0.0132299
0.0125794
0.0110331
0.00860348
0.00531886
0.00176261
3.79819e-05
1.14659e-05
1.0017e-05
1.67351e-05
1.70241e-05
1.59283e-05
1.60328e-05
1.61171e-05
1.61021e-05
1.60957e-05
1.60991e-05
1.61013e-05
1.61022e-05
1.61026e-05
1.61023e-05
1.61015e-05
1.61003e-05
1.60991e-05
1.60978e-05
1.60966e-05
1.60957e-05
1.6095e-05
1.60945e-05
1.60942e-05
1.60939e-05
1.60937e-05
1.60934e-05
1.60932e-05
1.60929e-05
1.60926e-05
1.60923e-05
1.6092e-05
1.60916e-05
1.60913e-05
1.60908e-05
1.60904e-05
1.60898e-05
1.60893e-05
1.60886e-05
1.60879e-05
1.60871e-05
1.60861e-05
1.60851e-05
1.60839e-05
1.60826e-05
1.60811e-05
1.60796e-05
1.6078e-05
1.60763e-05
1.60747e-05
1.6073e-05
1.60716e-05
1.6071e-05
1.60715e-05
1.60732e-05
1.60758e-05
1.6079e-05
1.60826e-05
1.60865e-05
1.60905e-05
1.60952e-05
1.60989e-05
1.6108e-05
0.0063151
0.0108753
0.0142654
0.0163941
0.0174704
0.0176548
0.0169962
0.0154657
0.0130501
0.0097361
0.00556204
0.00162101
9.24998e-05
1.09084e-05
1e-05
1.66183e-05
1.73528e-05
1.60169e-05
1.59938e-05
1.61062e-05
1.61068e-05
1.60996e-05
1.61018e-05
1.61034e-05
1.61036e-05
1.61034e-05
1.61027e-05
1.61016e-05
1.61002e-05
1.60988e-05
1.60975e-05
1.60965e-05
1.60957e-05
1.60952e-05
1.60948e-05
1.60944e-05
1.60942e-05
1.60939e-05
1.60936e-05
1.60933e-05
1.6093e-05
1.60927e-05
1.60924e-05
1.6092e-05
1.60917e-05
1.60912e-05
1.60908e-05
1.60902e-05
1.60897e-05
1.6089e-05
1.60883e-05
1.60874e-05
1.60865e-05
1.60854e-05
1.60842e-05
1.60829e-05
1.60815e-05
1.60799e-05
1.60783e-05
1.60766e-05
1.60748e-05
1.60731e-05
1.60717e-05
1.6071e-05
1.60715e-05
1.60731e-05
1.60757e-05
1.60788e-05
1.60824e-05
1.60863e-05
1.60903e-05
1.60949e-05
1.60987e-05
1.61076e-05
0.00881915
0.0147945
0.0188992
0.0212832
0.0224324
0.0226309
0.0219785
0.0204716
0.0180939
0.0148413
0.010678
0.00575271
0.00157444
7.43341e-05
1.00002e-05
1.00384e-05
1.45836e-05
1.7811e-05
1.62084e-05
1.59652e-05
1.60917e-05
1.61119e-05
1.61014e-05
1.61029e-05
1.61054e-05
1.61049e-05
1.61038e-05
1.61028e-05
1.61015e-05
1.61e-05
1.60985e-05
1.60974e-05
1.60965e-05
1.60958e-05
1.60953e-05
1.6095e-05
1.60947e-05
1.60944e-05
1.60941e-05
1.60938e-05
1.60934e-05
1.60931e-05
1.60928e-05
1.60924e-05
1.60921e-05
1.60916e-05
1.60912e-05
1.60906e-05
1.60901e-05
1.60894e-05
1.60887e-05
1.60878e-05
1.60869e-05
1.60858e-05
1.60846e-05
1.60833e-05
1.60818e-05
1.60802e-05
1.60786e-05
1.60768e-05
1.60751e-05
1.60733e-05
1.60718e-05
1.6071e-05
1.60714e-05
1.6073e-05
1.60755e-05
1.60786e-05
1.60822e-05
1.6086e-05
1.60901e-05
1.60947e-05
1.60984e-05
1.61072e-05
0.0112907
0.0189034
0.0238661
0.0266266
0.0279381
0.0282084
0.027598
0.0261362
0.023813
0.0206284
0.0165764
0.0116108
0.00604191
0.00161972
0.000412617
1e-05
1.00256e-05
1.35372e-05
1.77929e-05
1.64944e-05
1.59577e-05
1.60792e-05
1.61308e-05
1.61095e-05
1.61019e-05
1.61057e-05
1.61065e-05
1.61043e-05
1.61024e-05
1.61011e-05
1.60998e-05
1.60984e-05
1.60973e-05
1.60965e-05
1.60959e-05
1.60955e-05
1.60952e-05
1.60949e-05
1.60945e-05
1.60942e-05
1.60939e-05
1.60936e-05
1.60932e-05
1.60929e-05
1.60925e-05
1.60921e-05
1.60916e-05
1.60911e-05
1.60905e-05
1.60898e-05
1.6089e-05
1.60882e-05
1.60872e-05
1.60862e-05
1.6085e-05
1.60836e-05
1.60821e-05
1.60806e-05
1.60789e-05
1.60771e-05
1.60753e-05
1.60734e-05
1.60719e-05
1.60711e-05
1.60714e-05
1.60729e-05
1.60753e-05
1.60784e-05
1.60819e-05
1.60858e-05
1.60898e-05
1.60944e-05
1.60981e-05
1.61068e-05
0.0139004
0.0232602
0.0291191
0.0323673
0.033955
0.034385
0.0338795
0.0325077
0.030275
0.0271822
0.0232395
0.0184307
0.0127341
0.00658435
0.00177363
0.000508643
1.00722e-05
1.0018e-05
1.16423e-05
1.75168e-05
1.68125e-05
1.58643e-05
1.59569e-05
1.61244e-05
1.61294e-05
1.61042e-05
1.61025e-05
1.61071e-05
1.61065e-05
1.6103e-05
1.61004e-05
1.60991e-05
1.60982e-05
1.60974e-05
1.60967e-05
1.60961e-05
1.60957e-05
1.60953e-05
1.6095e-05
1.60947e-05
1.60943e-05
1.6094e-05
1.60936e-05
1.60933e-05
1.60929e-05
1.60925e-05
1.6092e-05
1.60915e-05
1.60909e-05
1.60902e-05
1.60894e-05
1.60886e-05
1.60876e-05
1.60865e-05
1.60853e-05
1.6084e-05
1.60825e-05
1.60809e-05
1.60792e-05
1.60774e-05
1.60755e-05
1.60736e-05
1.6072e-05
1.60712e-05
1.60714e-05
1.60728e-05
1.60751e-05
1.60782e-05
1.60816e-05
1.60855e-05
1.60895e-05
1.6094e-05
1.60977e-05
1.61063e-05
0.0172966
0.027926
0.0345934
0.0384165
0.0404017
0.0411019
0.0407913
0.0395808
0.0374987
0.0345499
0.0307461
0.0260999
0.020594
0.0142346
0.00751968
0.002234
3.82511e-05
1.60572e-05
1.00071e-05
1.03093e-05
1.65665e-05
1.82229e-05
1.62875e-05
1.58456e-05
1.60499e-05
1.61507e-05
1.6122e-05
1.60958e-05
1.60978e-05
1.61047e-05
1.61051e-05
1.61017e-05
1.60989e-05
1.60977e-05
1.60972e-05
1.60969e-05
1.60964e-05
1.60959e-05
1.60955e-05
1.60951e-05
1.60948e-05
1.60944e-05
1.60941e-05
1.60937e-05
1.60933e-05
1.60929e-05
1.60924e-05
1.60919e-05
1.60913e-05
1.60906e-05
1.60899e-05
1.6089e-05
1.6088e-05
1.60869e-05
1.60857e-05
1.60844e-05
1.60829e-05
1.60812e-05
1.60795e-05
1.60777e-05
1.60758e-05
1.60739e-05
1.60722e-05
1.60713e-05
1.60714e-05
1.60727e-05
1.60749e-05
1.60779e-05
1.60813e-05
1.60851e-05
1.60891e-05
1.60936e-05
1.60974e-05
1.61058e-05
0.0219962
0.0329172
0.0402213
0.0446628
0.0471508
0.0482397
0.0482347
0.0472825
0.0454368
0.0427118
0.0391173
0.0346716
0.0293895
0.0232563
0.0162916
0.00899949
0.00315616
0.000195842
0.000117741
1.00008e-05
1.00342e-05
1.29515e-05
1.82666e-05
1.72683e-05
1.59139e-05
1.58649e-05
1.61158e-05
1.61818e-05
1.61315e-05
1.60948e-05
1.60928e-05
1.61006e-05
1.61032e-05
1.61009e-05
1.6098e-05
1.60967e-05
1.60964e-05
1.60964e-05
1.60962e-05
1.60957e-05
1.60953e-05
1.60949e-05
1.60945e-05
1.60941e-05
1.60938e-05
1.60933e-05
1.60929e-05
1.60923e-05
1.60917e-05
1.6091e-05
1.60903e-05
1.60894e-05
1.60884e-05
1.60873e-05
1.60861e-05
1.60848e-05
1.60832e-05
1.60816e-05
1.60798e-05
1.6078e-05
1.60761e-05
1.60741e-05
1.60724e-05
1.60714e-05
1.60714e-05
1.60726e-05
1.60747e-05
1.60776e-05
1.6081e-05
1.60848e-05
1.60887e-05
1.60932e-05
1.60969e-05
1.61053e-05
0.0275911
0.0381852
0.045935
0.0509722
0.0540304
0.0556149
0.0560341
0.0554559
0.0539561
0.0515607
0.0482793
0.0441256
0.039122
0.0332852
0.0266021
0.0190932
0.0112828
0.00453353
0.0006388
0.000364865
1.40448e-05
1.00108e-05
1.01642e-05
1.54409e-05
1.84658e-05
1.6718e-05
1.57119e-05
1.58029e-05
1.60968e-05
1.61863e-05
1.61418e-05
1.60969e-05
1.60877e-05
1.60955e-05
1.61016e-05
1.61016e-05
1.60989e-05
1.60966e-05
1.60958e-05
1.60958e-05
1.60958e-05