/*--------------------------------*- C++ -*----------------------------------*\
| =========                 |                                                 |
| \\      /  F ield         | OpenFOAM: The Open Source CFD Toolbox           |
|  \\    /   O peration     | Version:  2312                                  |
|   \\  /    A nd           | Website:  www.openfoam.com                      |
|    \\/     M anipulation  |                                                 |
\*---------------------------------------------------------------------------*/
FoamFile
{
    version     2.0;
    format      ascii;
    arch        "LSB;label=32;scalar=64";
    class       volVectorField;
    location    "750";
    object      U;
}
// * * * * * * * * * * * * * * * * * * * * * * * * * * * * * * * * * * * * * //

dimensions      [0 1 -1 0 0 0 0];

internalField   nonuniform List<vector> 
11040
(
(-0.585793 8.75301 -3.46769e-19)
(0.789524 5.79494 -2.0946e-18)
(-0.0292075 -0.130802 -2.29706e-17)
(-1.3741 -1.16147 -1.17112e-17)
(-1.4084 -0.702962 -4.30358e-18)
(-1.38569 -0.604402 -1.6945e-17)
(-1.36929 -0.513238 3.0786e-17)
(-1.32459 -0.427488 2.23786e-17)
(-1.28781 -0.357475 4.40827e-18)
(-1.26008 -0.301259 1.22702e-18)
(-1.23534 -0.255886 -2.09334e-17)
(-1.21139 -0.21442 3.04821e-18)
(-1.19326 -0.177995 8.52199e-18)
(-1.17852 -0.145732 7.15521e-18)
(-1.16773 -0.115301 -6.83526e-18)
(-1.16291 -0.0876645 1.18194e-17)
(-1.16291 -0.0611808 5.50868e-18)
(-1.17044 -0.0357399 -1.41097e-17)
(-1.18614 -0.0108189 -4.26037e-19)
(-1.20996 0.014157 2.3025e-18)
(-1.24217 0.0393621 -2.5867e-18)
(-1.28063 0.0629343 -8.93183e-18)
(-1.32764 0.0838899 9.09508e-18)
(-1.38594 0.104208 -9.305e-18)
(-1.45423 0.124682 9.58684e-18)
(-1.5292 0.145216 1.7096e-17)
(-1.60544 0.165524 7.24151e-18)
(-1.67575 0.184771 6.77536e-18)
(-1.73314 0.201899 7.09624e-18)
(-1.76908 0.215522 9.41584e-18)
(-1.77322 0.224154 -1.66899e-17)
(-1.73542 0.226758 -1.28052e-17)
(-1.65928 0.223232 -3.91346e-17)
(-1.53898 0.211262 -2.2865e-17)
(-1.37018 0.187806 2.50337e-18)
(-1.14773 0.150846 -3.63289e-17)
(-0.860381 0.099919 9.87418e-19)
(-0.509303 0.033849 -2.70785e-17)
(-0.138145 -0.0389548 4.31348e-17)
(0.613691 -0.141275 3.51932e-17)
(0.0767837 -0.523448 -6.15212e-18)
(1.43522 7.92995 2.08876e-19)
(3.02374 8.4505 -2.40221e-19)
(2.65109 5.22796 7.14514e-18)
(0.741466 1.22886 1.16955e-18)
(-1.03696 -0.704266 -5.20489e-19)
(-1.25384 -0.582885 5.93975e-18)
(-1.34597 -0.515913 -9.33029e-19)
(-1.35405 -0.450421 -1.28615e-17)
(-1.34824 -0.388945 5.70316e-19)
(-1.34649 -0.3332 -4.21392e-18)
(-1.34308 -0.289545 6.39493e-18)
(-1.33598 -0.248449 -2.26195e-17)
(-1.33314 -0.210017 -1.78111e-18)
(-1.33185 -0.176425 -1.60913e-17)
(-1.33395 -0.143495 7.26948e-18)
(-1.3416 -0.112987 -2.94649e-18)
(-1.35493 -0.0833352 -4.77219e-18)
(-1.3752 -0.0541311 -4.84106e-18)
(-1.4024 -0.0250671 -6.29345e-19)
(-1.43755 0.00483645 3.76467e-19)
(-1.48082 0.0357834 1.34098e-18)
(-1.53132 0.0652148 3.84378e-18)
(-1.58951 0.0911825 -5.91369e-18)
(-1.65455 0.116253 -1.346e-18)
(-1.72184 0.141146 -1.63008e-18)
(-1.78591 0.165124 3.34382e-18)
(-1.8417 0.187501 2.02152e-18)
(-1.88438 0.207437 -1.1168e-17)
(-1.90867 0.223951 -9.05013e-19)
(-1.90999 0.235854 6.62595e-18)
(-1.88567 0.242296 8.39767e-18)
(-1.83425 0.242985 1.71237e-17)
(-1.74536 0.235906 1.41496e-17)
(-1.61352 0.218881 6.93324e-18)
(-1.43442 0.190022 -3.20738e-18)
(-1.20326 0.14802 1.29077e-17)
(-0.910892 0.0902796 -9.97923e-18)
(-0.55786 0.00957714 7.46201e-18)
(-0.184204 -0.0851394 -3.07274e-18)
(0.544759 -0.197793 -4.28364e-18)
(0.593148 -0.465273 5.81595e-18)
(1.81872 7.05614 -1.61887e-20)
(3.32239 8.14578 1.09006e-18)
(4.12446 7.89016 -2.02273e-18)
(3.41856 5.36535 -3.21096e-18)
(1.4542 1.9909 3.10508e-19)
(-0.457595 -0.208968 -4.13906e-18)
(-1.03315 -0.429355 -8.76042e-18)
(-1.21231 -0.419475 -8.08132e-18)
(-1.26503 -0.375809 5.86097e-18)
(-1.29941 -0.328334 2.66953e-19)
(-1.32458 -0.292078 3.56877e-18)
(-1.33717 -0.25476 1.16883e-17)
(-1.35037 -0.216288 -9.06531e-18)
(-1.36175 -0.183041 9.97834e-18)
(-1.37442 -0.14885 -6.20173e-18)
(-1.39081 -0.116907 -2.78852e-18)
(-1.41094 -0.0854375 1.32733e-18)
(-1.43667 -0.0541716 1.88303e-18)
(-1.46817 -0.0230865 9.45524e-20)
(-1.5062 0.00899194 -9.02561e-20)
(-1.55086 0.042178 -3.11553e-18)
(-1.60045 0.0740443 -2.62591e-18)
(-1.6543 0.101809 5.42308e-19)
(-1.71159 0.12767 -3.70808e-19)
(-1.76895 0.152281 3.18599e-18)
(-1.82264 0.175039 -7.02756e-18)
(-1.86912 0.195353 -5.06506e-18)
(-1.90456 0.212454 7.32661e-18)
(-1.92476 0.225556 1.77969e-18)
(-1.92544 0.233704 -1.11245e-18)
(-1.90209 0.235904 -7.31263e-18)
(-1.84941 0.230994 3.0576e-18)
(-1.76084 0.217365 -6.86673e-18)
(-1.63113 0.193285 -9.12611e-18)
(-1.45583 0.15703 2.00981e-18)
(-1.23062 0.1075 5.14314e-18)
(-0.946854 0.0421413 7.71221e-18)
(-0.603173 -0.0477541 -7.86345e-18)
(-0.239049 -0.160059 -1.59767e-18)
(0.429897 -0.278023 -2.10004e-18)
(0.625031 -0.628755 -3.44174e-18)
(2.21691 6.63176 -5.62956e-20)
(3.12157 7.34142 -2.06512e-19)
(4.177 8.0419 1.08121e-18)
(4.7084 7.63107 2.01388e-18)
(4.00883 5.55736 -2.8338e-19)
(2.18035 2.63792 -2.59603e-18)
(0.183373 0.343961 1.76345e-18)
(-0.7399 -0.253817 4.24604e-18)
(-1.0349 -0.309294 -3.23351e-18)
(-1.14764 -0.285694 3.67187e-18)
(-1.22049 -0.267692 -8.60585e-18)
(-1.26318 -0.243404 1.15956e-18)
(-1.29778 -0.209647 1.24812e-18)
(-1.32503 -0.180168 -7.92396e-18)
(-1.34891 -0.14693 -3.85526e-18)
(-1.37367 -0.115273 2.43492e-18)
(-1.39967 -0.0834668 4.62311e-18)
(-1.42965 -0.0513658 2.14659e-18)
(-1.46381 -0.0194385 -1.33499e-19)
(-1.50301 0.0136167 1.42803e-19)
(-1.54732 0.0475939 8.13683e-19)
(-1.59501 0.0803558 2.44556e-18)
(-1.64532 0.108932 8.31677e-19)
(-1.69799 0.135075 1.48874e-18)
(-1.7509 0.159283 2.25601e-18)
(-1.80123 0.181078 1.01159e-17)
(-1.84591 0.199887 -7.37939e-19)
(-1.88125 0.214858 -1.30285e-18)
(-1.90303 0.225097 -4.48058e-18)
(-1.90657 0.229518 -3.89827e-18)
(-1.8868 0.226933 5.44128e-18)
(-1.83835 0.21603 -4.59039e-18)
(-1.75572 0.195345 1.20797e-17)
(-1.63366 0.16321 3.19008e-18)
(-1.46775 0.117889 2.51632e-18)
(-1.25387 0.0582361 5.29781e-19)
(-0.984046 -0.0178789 -1.19162e-19)
(-0.655738 -0.118984 -6.23126e-19)
(-0.306849 -0.249838 1.69027e-18)
(0.281982 -0.368268 -2.43325e-18)
(0.540593 -0.728554 6.50145e-19)
(2.67424 6.14603 1.12599e-19)
(3.35698 6.69952 -1.08692e-19)
(4.06437 7.25135 -9.49687e-19)
(4.84475 7.76386 -1.53318e-18)
(5.22196 7.45024 1.53464e-18)
(4.61664 5.82414 -1.14726e-19)
(2.96184 3.30614 4.58525e-19)
(0.972559 1.01906 2.7829e-18)
(-0.350724 -0.0372861 -1.13703e-18)
(-0.79653 -0.176033 -1.97753e-18)
(-1.00174 -0.19947 -2.80008e-18)
(-1.10878 -0.202543 -1.88761e-20)
(-1.17919 -0.183494 -9.53735e-20)
(-1.23295 -0.164504 5.00639e-18)
(-1.27379 -0.1363 3.00779e-18)
(-1.31061 -0.107358 1.18059e-19)
(-1.34432 -0.0769658 -2.00332e-18)
(-1.37934 -0.045308 2.21605e-18)
(-1.41637 -0.013702 -3.25279e-19)
(-1.45681 0.019329 7.75389e-19)
(-1.50122 0.0531847 -1.5854e-18)
(-1.54827 0.0861042 -1.6783e-19)
(-1.59734 0.115047 2.10107e-18)
(-1.64857 0.141367 -2.25561e-18)
(-1.70056 0.165304 -4.94796e-18)
(-1.75094 0.186326 -2.49398e-18)
(-1.79681 0.20373 5.16374e-19)
(-1.83457 0.216523 -3.98304e-18)
(-1.85997 0.223639 1.12183e-19)
(-1.86828 0.223847 3.70548e-18)
(-1.85447 0.21584 -2.89707e-18)
(-1.81339 0.19826 6.0409e-19)
(-1.73994 0.169685 -8.37543e-18)
(-1.62895 0.128478 -3.97941e-18)
(-1.47609 0.0729003 -2.29487e-18)
(-1.27753 0.00177497 -2.17606e-18)
(-1.02625 -0.0865511 1.19642e-18)
(-0.719699 -0.199976 -5.40416e-20)
(-0.391677 -0.346539 8.83889e-19)
(0.111632 -0.470352 3.24824e-18)
(0.399376 -0.799246 -1.87643e-18)
(3.078 5.70504 -1.4707e-19)
(3.59112 6.22271 2.12954e-19)
(4.11295 6.62198 2.06505e-19)
(4.69687 7.06133 5.48878e-19)
(5.33431 7.47623 -4.13931e-19)
(5.67561 7.3143 2.0276e-19)
(5.22652 6.10904 5.01822e-19)
(3.81749 4.0113 1.88748e-20)
(1.8908 1.79911 -1.01085e-19)
(0.247575 0.342 4.18589e-18)
(-0.475817 -0.0282101 4.67707e-18)
(-0.805897 -0.106101 -2.13158e-18)
(-0.964416 -0.120315 -1.3555e-18)
(-1.07183 -0.125031 6.27483e-18)
(-1.14326 -0.111258 -5.28545e-18)
(-1.20137 -0.0900531 2.31452e-18)
(-1.24879 -0.064389 2.17649e-19)
(-1.29261 -0.0350382 6.12396e-19)
(-1.33482 -0.00509174 7.23178e-19)
(-1.37798 0.0270198 -3.57506e-19)
(-1.42366 0.0600671 -7.57105e-19)
(-1.47135 0.0927394 5.49489e-19)
(-1.52078 0.121852 -9.26694e-19)
(-1.57236 0.148319 -6.53959e-19)
(-1.62521 0.172053 4.75013e-18)
(-1.67728 0.192365 -3.12804e-18)
(-1.72583 0.208353 -7.32991e-19)
(-1.76739 0.218824 4.93537e-18)
(-1.79787 0.222515 3.88187e-18)
(-1.81266 0.218044 -1.90482e-18)
(-1.80689 0.203988 -1.55039e-18)
(-1.77568 0.178939 -4.89183e-19)
(-1.71417 0.141498 3.88723e-18)
(-1.61743 0.0900649 4.05867e-18)
(-1.48128 0.0229526 1.15388e-18)
(-1.30229 -0.0609406 -1.54709e-18)
(-1.07473 -0.162712 -2.20278e-19)
(-0.797006 -0.289139 -1.06209e-18)
(-0.496893 -0.447387 -2.57258e-18)
(-0.0762803 -0.580902 -1.25419e-19)
(0.216078 -0.860811 1.98955e-18)
(3.46228 5.34631 -2.81419e-20)
(3.83274 5.78339 1.63761e-19)
(4.23035 6.17337 2.79208e-20)
(4.66426 6.4785 4.53503e-19)
(5.16252 6.81473 2.28905e-19)
(5.70909 7.16786 -7.80236e-19)
(6.06147 7.1613 2.28541e-19)
(5.8049 6.35783 -2.05646e-19)
(4.69706 4.70552 -1.51187e-18)
(2.93 2.66405 3.93103e-20)
(1.13071 0.968868 -5.62135e-18)
(-0.0346559 0.170226 7.3462e-18)
(-0.520824 0.0116111 -5.88535e-18)
(-0.784603 -0.0377378 -6.58259e-19)
(-0.928425 -0.0548033 2.84292e-18)
(-1.0305 -0.0534257 -1.01511e-18)
(-1.10493 -0.0406312 3.96783e-18)
(-1.16591 -0.0176685 -1.63371e-18)
(-1.21882 0.0080579 3.76258e-19)
(-1.2682 0.0378246 -2.97021e-19)
(-1.31721 0.0691385 3.09048e-19)
(-1.36671 0.101145 -4.0695e-19)
(-1.41743 0.130281 2.15081e-18)
(-1.4702 0.156921 -7.06386e-19)
(-1.52474 0.180566 -1.78268e-18)
(-1.57931 0.200276 8.35814e-19)
(-1.6314 0.214894 2.71962e-18)
(-1.67777 0.222976 -1.34281e-18)
(-1.71455 0.223021 3.66373e-20)
(-1.73737 0.213475 -1.06277e-18)
(-1.74161 0.192796 6.8438e-20)
(-1.72266 0.15951 -1.79983e-18)
(-1.67594 0.112247 -3.93181e-20)
(-1.59687 0.0494681 8.10147e-19)
(-1.48157 -0.0303746 2.71045e-18)
(-1.32704 -0.128137 -2.09228e-18)
(-1.12906 -0.244259 -2.4362e-18)
(-0.887425 -0.383823 2.01393e-18)
(-0.623021 -0.550214 -7.49461e-19)
(-0.281045 -0.695988 2.27937e-20)
(-0.00565961 -0.922918 9.53879e-20)
(3.81038 5.04251 -7.61068e-21)
(4.0966 5.40616 -5.96749e-20)
(4.39307 5.7523 3.88176e-20)
(4.72837 6.04998 -2.52437e-19)
(5.10132 6.28314 -1.49881e-19)
(5.52525 6.53572 -2.5684e-19)
(6.00036 6.83827 1.09887e-18)
(6.37133 6.95717 1.78479e-19)
(6.31225 6.51391 5.24136e-19)
(5.53826 5.31755 -1.10824e-18)
(4.05207 3.57165 1.18187e-18)
(2.24367 1.80662 1.6855e-18)
(0.704455 0.58844 -4.30269e-18)
(-0.130819 0.152695 6.39289e-18)
(-0.523605 0.0592013 1.06862e-19)
(-0.745345 0.0251592 -1.29081e-18)
(-0.883514 0.0102216 -4.70154e-18)
(-0.98243 0.0158547 -3.75906e-19)
(-1.05899 0.0303625 -1.47949e-18)
(-1.12248 0.0542535 5.59639e-18)
(-1.17941 0.0817984 -3.52964e-18)
(-1.23287 0.112294 5.95276e-19)
(-1.28572 0.141187 1.18735e-18)
(-1.33996 0.168047 2.06388e-19)
(-1.39625 0.191816 4.642e-19)
(-1.45347 0.211153 2.11966e-19)
(-1.50945 0.22458 1.1044e-18)
(-1.56126 0.230355 -6.53011e-19)
(-1.60531 0.226708 -2.65639e-18)
(-1.63755 0.211879 -7.67634e-19)
(-1.65368 0.184188 2.27931e-18)
(-1.64939 0.14209 1.06692e-18)
(-1.62049 0.0842617 8.70805e-20)
(-1.56283 0.00927209 -1.87508e-18)
(-1.47298 -0.0841694 -1.05002e-18)
(-1.34843 -0.196469 6.87953e-19)
(-1.18645 -0.32728 1.60038e-18)
(-0.988098 -0.479442 -8.86999e-19)
(-0.767875 -0.651502 6.17245e-19)
(-0.501017 -0.80741 -1.3152e-18)
(-0.262147 -0.988644 -1.9689e-19)
(4.13233 4.78096 -2.02079e-20)
(4.36186 5.08628 -1.35408e-19)
(4.59058 5.38008 2.89955e-19)
(4.84424 5.65552 3.69206e-20)
(5.13425 5.88885 -6.04196e-20)
(5.45493 6.0675 1.09859e-20)
(5.81514 6.25108 -4.26633e-19)
(6.22612 6.49684 -4.37073e-19)
(6.60435 6.68973 -6.23988e-21)
(6.71555 6.53617 -8.20823e-19)
(6.27717 5.78334 -2.71223e-19)
(5.15575 4.42622 8.05844e-19)
(3.5091 2.76877 5.12102e-19)
(1.78607 1.30016 -2.16562e-18)
(0.504275 0.437036 7.47038e-18)
(-0.146547 0.17708 -3.59182e-18)
(-0.489334 0.113358 3.11068e-18)
(-0.689978 0.0873954 -4.86778e-18)
(-0.824391 0.0766941 -1.51453e-19)
(-0.922161 0.0845839 1.64595e-18)
(-0.999331 0.102049 -2.20039e-18)
(-1.06331 0.128173 -2.91835e-19)
(-1.1213 0.155663 5.8505e-19)
(-1.17801 0.182486 -1.94141e-18)
(-1.23593 0.206635 -5.38698e-19)
(-1.29525 0.226054 -1.43372e-18)
(-1.35465 0.238797 -2.60147e-18)
(-1.41181 0.242712 9.84761e-19)
(-1.46355 0.235677 7.21465e-19)
(-1.50621 0.215699 2.33521e-18)
(-1.53584 0.180968 -9.30676e-19)
(-1.54852 0.129884 6.69298e-19)
(-1.54049 0.0611871 -7.7811e-19)
(-1.50815 -0.0263691 1.8844e-18)
(-1.44857 -0.13368 -2.11372e-19)
(-1.3598 -0.260498 4.86738e-19)
(-1.24041 -0.405521 -2.41942e-18)
(-1.09217 -0.569013 1.55131e-18)
(-0.924738 -0.74525 -1.14713e-19)
(-0.730499 -0.906768 8.048e-19)
(-0.541889 -1.05555 -8.31006e-19)
(4.42904 4.5537 -1.10144e-19)
(4.61848 4.81143 4.10819e-19)
(4.80125 5.06061 -1.44881e-19)
(4.9977 5.29867 -1.95922e-19)
(5.22059 5.51963 1.40499e-19)
(5.4722 5.70588 -3.30874e-19)
(5.74784 5.84564 1.04256e-19)
(6.05295 5.97553 1.6713e-18)
(6.40349 6.15921 -1.75382e-18)
(6.7675 6.36826 -1.7667e-19)
(6.9978 6.41446 8.76558e-20)
(6.85482 6.04434 6.57782e-20)
(6.13177 5.11881 8.76817e-19)
(4.80634 3.73955 -3.29823e-19)
(3.12889 2.23905 1.92308e-18)
(1.53883 1.02924 -2.34058e-18)
(0.449289 0.394211 1.03294e-18)
(-0.109389 0.21749 -8.98946e-19)
(-0.42256 0.171622 1.72633e-18)
(-0.613421 0.150145 1.36305e-18)
(-0.743935 0.143681 5.90422e-19)
(-0.837315 0.156146 -1.59937e-18)
(-0.91095 0.177206 1.4994e-18)
(-0.97559 0.201949 8.43376e-19)
(-1.03748 0.226058 -2.34793e-18)
(-1.09935 0.245922 1.612e-18)
(-1.16164 0.258748 1.83643e-18)
(-1.2233 0.261743 -2.12587e-18)
(-1.28211 0.252298 2.86625e-19)
(-1.3351 0.228075 -1.8203e-18)
(-1.37895 0.187058 9.46293e-19)
(-1.41021 0.127583 -1.23921e-18)
(-1.42557 0.0484957 -4.00594e-19)
(-1.42201 -0.0511351 6.56461e-20)
(-1.39714 -0.17166 -8.30201e-19)
(-1.34951 -0.312012 2.4221e-19)
(-1.27859 -0.469765 6.90883e-19)
(-1.18632 -0.642695 -9.35014e-19)
(-1.07897 -0.822171 -1.36167e-19)
(-0.955703 -0.985588 -1.13357e-18)
(-0.826177 -1.1158 7.94531e-19)
(4.7024 4.3535 -1.12746e-19)
(4.86269 4.57257 -3.40099e-19)
(5.01367 4.78336 2.14226e-20)
(5.1706 4.98698 7.10358e-20)
(5.34447 5.18112 -3.62455e-20)
(5.5405 5.35998 -2.38746e-19)
(5.75886 5.51185 1.93478e-20)
(5.9958 5.6249 1.4889e-20)
(6.25383 5.71676 1.20046e-19)
(6.5476 5.84023 1.63699e-18)
(6.8758 6.0195 5.26614e-19)
(7.16571 6.16638 1.37795e-19)
(7.2455 6.08163 -1.06627e-18)
(6.89883 5.57079 2.371e-18)
(5.99104 4.58078 -1.97302e-18)
(4.5776 3.26284 1.18532e-18)
(2.93786 1.92732 -1.75972e-18)
(1.47002 0.91041 -4.89485e-18)
(0.495292 0.404291 3.1856e-19)
(-0.0226244 0.264531 6.46644e-18)
(-0.319227 0.229582 -3.53721e-18)
(-0.497764 0.217374 4.00412e-18)
(-0.61681 0.220002 -1.99957e-18)
(-0.706742 0.234438 3.2432e-19)
(-0.78267 0.253954 -2.11571e-19)
(-0.852502 0.272672 -1.62147e-18)
(-0.920077 0.285867 1.35111e-18)
(-0.986868 0.289179 -1.09211e-18)
(-1.05241 0.27895 8.967e-19)
(-1.11508 0.252245 5.97272e-19)
(-1.17265 0.206788 7.79355e-20)
(-1.22253 0.140849 5.36512e-19)
(-1.26215 0.0533339 3.12297e-19)
(-1.28926 -0.0563871 -1.29906e-18)
(-1.30196 -0.188048 -7.64316e-19)
(-1.29912 -0.339634 5.33343e-19)
(-1.28057 -0.507524 6.43117e-19)
(-1.24799 -0.687504 1.26958e-19)
(-1.20505 -0.869451 1.27714e-18)
(-1.15172 -1.03356 9.05456e-19)
(-1.08694 -1.15776 2.00287e-19)
(4.95374 4.17546 -1.2828e-19)
(5.09195 4.36287 6.38648e-20)
(5.22011 4.54184 3.03234e-19)
(5.34912 4.71479 -2.74789e-19)
(5.48844 4.88229 3.15149e-20)
(5.64296 5.04127 5.24008e-20)
(5.81533 5.18749 9.37802e-20)
(6.00515 5.31316 -6.92133e-19)
(6.20936 5.40788 -1.7334e-18)
(6.42788 5.47555 2.28727e-18)
(6.67076 5.55053 -1.58487e-18)
(6.95119 5.67602 -4.11486e-19)
(7.24789 5.83847 -7.09928e-19)
(7.46074 5.9212 -4.07672e-19)
(7.41572 5.74448 9.3228e-19)
(6.93449 5.17 -4.18748e-19)
(5.93648 4.19385 1.98557e-18)
(4.51442 2.97496 -1.85843e-18)
(2.93766 1.7825 -8.408e-19)
(1.55544 0.889867 5.99788e-18)
(0.631473 0.439707 -3.60728e-18)
(0.138228 0.315496 -2.22205e-19)
(-0.132898 0.301261 8.50179e-19)
(-0.302586 0.303069 3.04397e-18)
(-0.422898 0.308214 -2.56277e-18)
(-0.518476 0.317366 -5.57904e-19)
(-0.601833 0.326278 -6.21152e-19)
(-0.679828 0.328492 3.29679e-18)
(-0.755286 0.318376 -1.45234e-18)
(-0.828956 0.291483 -4.72274e-19)
(-0.900409 0.244649 1.59246e-18)
(-0.96856 0.17569 -1.34623e-18)
(-1.03193 0.0833886 -6.68468e-19)
(-1.08936 -0.0325937 7.93191e-19)
(-1.1397 -0.171299 5.86669e-19)
(-1.18209 -0.329855 1.04299e-19)
(-1.21637 -0.503757 -3.03255e-19)
(-1.24359 -0.687671 -1.79257e-19)
(-1.26515 -0.871182 -6.36213e-19)
(-1.27986 -1.03693 5.59799e-19)
(-1.28276 -1.165 -1.02208e-19)
(5.18422 4.01588 2.04554e-19)
(5.30514 4.17703 -4.57288e-19)
(5.41627 4.32958 4.26573e-19)
(5.52539 4.47631 1.07419e-19)
(5.63986 4.6193 -9.81547e-20)
(5.7643 4.75745 5.90429e-20)
(5.90158 4.88818 5.07151e-19)
(6.05322 5.0084 2.97993e-19)
(6.21871 5.11316 1.63558e-19)
(6.39541 5.19431 8.01767e-20)
(6.58136 5.24842 -5.75468e-19)
(6.78254 5.2921 9.11521e-19)
(7.01378 5.36304 -9.02706e-20)
(7.28024 5.48666 9.37968e-19)
(7.54221 5.62476 -2.55045e-18)
(7.69041 5.65881 2.62361e-18)
(7.56544 5.43853 -7.68658e-19)
(7.02321 4.8648 -2.26019e-18)
(6.01349 3.95292 1.8821e-18)
(4.6334 2.84493 -2.19246e-18)
(3.12259 1.7664 1.62414e-18)
(1.82922 0.961503 -6.46663e-19)
(0.969877 0.536055 2.61509e-18)
(0.47369 0.396223 -1.04334e-18)
(0.182006 0.383893 -5.28691e-18)
(-0.00461677 0.397237 2.88375e-18)
(-0.138664 0.403209 1.21007e-18)
(-0.248178 0.39869 -2.92471e-19)
(-0.345668 0.383471 2.28092e-19)
(-0.437573 0.354332 -6.81236e-19)
(-0.527092 0.30722 -3.25213e-18)
(-0.615646 0.238612 3.39288e-18)
(-0.703484 0.14637 -2.14247e-19)
(-0.790538 0.0298346 -9.47856e-19)
(-0.876819 -0.10998 1.02595e-18)
(-0.961852 -0.269723 -1.37924e-19)
(-1.04534 -0.444206 -2.53283e-19)
(-1.12784 -0.627682 4.58066e-19)
(-1.20907 -0.810515 2.08984e-19)
(-1.28702 -0.978485 -4.24323e-19)
(-1.35633 -1.1161 -2.15213e-19)
(5.39487 3.87201 6.02261e-21)
(5.50178 4.01113 2.2255e-19)
(5.59968 4.1416 4.21244e-19)
(5.69405 4.2662 -4.96697e-19)
(5.79059 4.38764 -1.93678e-20)
(5.89322 4.50599 -1.24679e-19)
(6.00454 4.62 -2.80356e-19)
(6.12653 4.72761 -3.28247e-19)
(6.26013 4.82657 4.58245e-19)
(6.4048 4.91363 1.43097e-18)
(6.55826 4.98331 -4.89275e-19)
(6.71847 5.03031 9.92715e-19)
(6.88758 5.05846 -1.28715e-20)
(7.07548 5.08978 -1.91168e-18)
(7.29575 5.15705 -7.73065e-19)
(7.54567 5.27142 1.76764e-18)
(7.77762 5.38653 -9.59384e-19)
(7.88672 5.39601 1.28634e-18)
(7.73325 5.17704 -1.85754e-18)
(7.19755 4.65263 1.225e-19)
(6.23604 3.8385 -1.59435e-19)
(4.98996 2.88787 3.82876e-18)
(3.69631 1.98493 -1.17862e-19)
(2.54463 1.25612 -2.45401e-18)
(1.66615 0.780204 -4.99473e-19)
(1.07697 0.549068 -7.95082e-19)
(0.700813 0.480082 -2.74641e-18)
(0.454355 0.478577 3.44149e-18)
(0.280621 0.481859 -2.8132e-18)
(0.142965 0.464225 -9.4468e-20)
(0.020402 0.420998 7.83449e-19)
(-0.0972419 0.353064 -4.70702e-19)
(-0.214441 0.261279 3.58693e-19)
(-0.333441 0.146379 -1.45711e-19)
(-0.455216 0.00990734 1.67542e-18)
(-0.580308 -0.14506 -1.47406e-18)
(-0.708428 -0.314217 1.06669e-19)
(-0.839868 -0.492725 7.05004e-20)
(-0.973189 -0.672328 9.08998e-20)
(-1.10603 -0.841717 -3.07897e-20)
(-1.2354 -0.989371 2.53118e-19)
(5.58661 3.74181 -3.64163e-19)
(5.68184 3.86215 1.71662e-19)
(5.76906 3.97397 -6.34085e-19)
(5.85206 4.07986 2.92465e-19)
(5.93531 4.18274 -1.39059e-19)
(6.0219 4.28328 2.22999e-20)
(6.11421 4.381 -7.93156e-20)
(6.21393 4.47481 8.56994e-20)
(6.32244 4.56317 -1.0052e-18)
(6.44028 4.64419 5.40743e-19)
(6.56691 4.71572 7.41545e-20)
(6.70107 4.77481 -3.47487e-18)
(6.84097 4.81689 2.20279e-18)
(6.98592 4.83947 1.59855e-19)
(7.14038 4.85036 2.00338e-18)
(7.31572 4.87191 -1.8231e-18)
(7.52341 4.93051 2.95177e-19)
(7.75695 5.03025 1.43926e-18)
(7.96974 5.12814 -1.54106e-18)
(8.0708 5.13637 5.83608e-19)
(7.93525 4.95193 1.88501e-19)
(7.48809 4.53739 -3.92252e-19)
(6.75151 3.93517 1.39235e-19)
(5.80579 3.22042 -3.97111e-19)
(4.76471 2.48532 2.56491e-18)
(3.74457 1.81548 -3.63909e-18)
(2.84614 1.27724 3.21013e-18)
(2.13202 0.904841 9.31038e-19)
(1.60578 0.68836 -1.41681e-18)
(1.2279 0.582591 -5.86285e-19)
(0.951042 0.531726 -3.44309e-19)
(0.736669 0.489427 2.33419e-18)
(0.556617 0.427991 -2.79764e-19)
(0.391342 0.337333 -2.96445e-18)
(0.229268 0.218005 6.33654e-19)
(0.0648636 0.0750867 8.67621e-19)
(-0.104066 -0.0851377 -7.35511e-19)
(-0.279975 -0.257077 7.17519e-19)
(-0.460419 -0.433283 2.46389e-19)
(-0.642158 -0.604602 1.09254e-19)
(-0.825595 -0.761676 -5.40598e-19)
(5.76003 3.62368 2.68015e-19)
(5.84526 3.72783 -3.20787e-19)
(5.92356 3.82371 6.81458e-19)
(5.99752 3.9137 -2.75431e-20)
(6.07059 4.00069 7.09193e-20)
(6.14526 4.08561 2.68145e-19)
(6.22343 4.16837 -6.55626e-20)
(6.30663 4.24848 6.41013e-20)
(6.39612 4.32508 2.69457e-19)
(6.49275 4.39687 -5.32981e-20)
(6.59674 4.4623 1.27991e-18)
(6.70799 4.52017 -1.76842e-18)
(6.82592 4.56885 3.06127e-18)
(6.94899 4.60533 -2.33718e-18)
(7.07556 4.62595 -1.09459e-18)
(7.20627 4.63043 -4.2277e-19)
(7.3469 4.62767 -7.2265e-19)
(7.50891 4.63745 7.53024e-19)
(7.70205 4.68071 9.21632e-20)
(7.92135 4.76118 5.49881e-19)
(8.12682 4.8436 -2.75293e-19)
(8.23998 4.86307 3.03081e-19)
(8.19165 4.76687 1.16011e-18)
(7.94664 4.53013 -1.43913e-18)
(7.50145 4.15792 7.29986e-19)
(6.88335 3.68035 7.87545e-19)
(6.14225 3.14125 9.39598e-20)
(5.33936 2.58818 -3.65147e-18)
(4.53703 2.06533 8.63607e-19)
(3.79065 1.60823 1.88337e-18)
(3.13897 1.23806 -1.38745e-18)
(2.59583 0.957017 3.01655e-18)
(2.15231 0.750132 -2.84321e-18)
(1.78648 0.593373 3.95358e-19)
(1.4764 0.46291 9.81263e-19)
(1.2041 0.339825 -9.56924e-19)
(0.95567 0.211647 4.94614e-19)
(0.718887 0.0717216 -5.61678e-20)
(0.488192 -0.0805291 -8.32179e-19)
(0.260969 -0.239983 -3.21585e-20)
(0.0269073 -0.398407 7.43746e-21)
(5.91551 3.51613 1.55677e-20)
(5.99192 3.60621 -1.98003e-19)
(6.06247 3.68841 -6.20879e-20)
(6.12888 3.7649 3.44057e-19)
(6.19383 3.83839 -1.66134e-21)
(6.25931 3.90988 -2.54794e-20)
(6.32681 3.97948 -3.09811e-19)
(6.39764 4.04698 1.87119e-19)
(6.47285 4.11194 -1.03428e-19)
(6.55329 4.17358 8.68178e-19)
(6.63939 4.23081 -1.83714e-19)
(6.73145 4.28267 -1.66534e-19)
(6.8296 4.32825 1.21231e-18)
(6.93342 4.36648 -4.67196e-19)
(7.04194 4.39579 -6.71047e-19)
(7.15366 4.41355 -5.68376e-19)
(7.26744 4.41708 -3.9498e-19)
(7.38461 4.40693 3.01142e-18)
(7.51105 4.39075 -3.1528e-18)
(7.65729 4.38458 2.30062e-21)
(7.83375 4.40571 1.89193e-18)
(8.02956 4.45563 -1.68084e-18)
(8.21521 4.51541 1.63088e-18)
(8.35668 4.55486 -7.13387e-19)
(8.41794 4.54259 -8.21001e-19)
(8.37052 4.45556 2.22598e-18)
(8.19887 4.28364 -8.47427e-19)
(7.90211 4.02988 1.16204e-18)
(7.49275 3.70751 -3.17245e-18)
(6.9933 3.33582 3.98144e-19)
(6.43169 2.93651 1.38495e-18)
(5.83759 2.53104 -1.81765e-19)
(5.23974 2.13847 -3.13872e-19)
(4.66002 1.7722 1.16065e-19)
(4.11471 1.44073 -4.69411e-20)
(3.61331 1.1471 2.80212e-19)
(3.15825 0.888925 -7.556e-19)
(2.74108 0.658968 6.08777e-19)
(2.35718 0.45221 -3.22714e-19)
(2.00265 0.264937 2.96961e-19)
(1.65733 0.0962551 2.94763e-20)
(6.04788 3.4226 9.5135e-21)
(6.11668 3.50089 -4.11572e-19)
(6.18058 3.57172 4.10296e-19)
(6.2407 3.63713 -3.77813e-19)
(6.29916 3.69962 -6.01511e-20)
(6.35755 3.76012 2.05967e-19)
(6.41708 3.81886 2.32243e-19)
(6.47876 3.8758 -9.15054e-19)
(6.54353 3.93071 -5.68217e-20)
(6.61207 3.98303 1.46455e-18)
(6.68488 4.03204 -1.94372e-18)
(6.76234 4.07705 5.18361e-19)
(6.84473 4.11728 4.90039e-19)
(6.93205 4.15189 -8.36429e-19)
(7.02406 4.18014 2.01589e-18)
(7.12021 4.20121 -2.64447e-19)
(7.21946 4.21372 -5.87305e-18)
(7.32045 4.21546 5.05383e-18)
(7.42239 4.2043 -1.85709e-18)
(7.52653 4.18054 -1.33993e-18)
(7.63862 4.15031 1.75571e-18)
(7.76355 4.12617 1.78893e-18)
(7.90397 4.11912 -2.6433e-18)
(8.05998 4.1329 2.46794e-18)
(8.223 4.16277 -6.69213e-19)
(8.37769 4.19655 6.14708e-19)
(8.50498 4.21823 -1.13418e-18)
(8.58581 4.21194 1.16747e-18)
(8.60459 4.16529 4.29529e-19)
(8.55087 4.07086 -2.19939e-18)
(8.42036 3.92679 2.61061e-19)
(8.21459 3.73606 -1.24836e-19)
(7.94038 3.50541 1.26529e-18)
(7.60602 3.24254 3.30365e-20)
(7.22273 2.95676 -7.12677e-20)
(6.80343 2.65813 -1.32504e-19)
(6.3624 2.35627 -5.00991e-20)
(5.90587 2.05581 -1.08376e-19)
(5.44378 1.76361 -3.92748e-19)
(4.98882 1.48428 3.88928e-20)
(4.52706 1.21927 6.51785e-20)
(6.15568 3.34475 1.69613e-19)
(6.21818 3.41337 3.18832e-19)
(6.27654 3.4749 -2.22987e-19)
(6.3315 3.53132 -3.718e-19)
(6.38477 3.58489 -1.08475e-20)
(6.43764 3.63647 1.68808e-19)
(6.4911 3.68634 -1.63509e-19)
(6.546 3.73454 2.38701e-19)
(6.60309 3.78097 5.55636e-19)
(6.66298 3.8253 -1.05493e-18)
(6.72611 3.86698 -1.35905e-18)
(6.79285 3.90552 1.62188e-18)
(6.86351 3.94032 1.44452e-18)
(6.93819 3.97065 -2.15521e-18)
(7.01685 3.9958 2.52985e-18)
(7.09932 4.01514 1.72771e-18)
(7.18527 4.02813 -1.32562e-18)
(7.27409 4.03407 -2.18872e-18)
(7.36479 4.03178 -2.79658e-19)
(7.45609 4.01933 1.76946e-18)
(7.54709 3.99476 -3.4944e-18)
(7.63581 3.9598 2.75645e-18)
(7.72351 3.91947 3.4232e-19)
(7.81584 3.8799 7.2777e-19)
(7.91756 3.84762 -1.25468e-18)
(8.03139 3.82726 6.14958e-19)
(8.15664 3.82008 -5.43247e-19)
(8.28887 3.82355 -3.76883e-19)
(8.42048 3.83198 7.43446e-19)
(8.54199 3.83796 -4.76785e-19)
(8.64335 3.83366 -2.42625e-19)
(8.71521 3.81207 9.5266e-19)
(8.75 3.76785 -1.2173e-18)
(8.74224 3.69761 6.58835e-19)
(8.68863 3.60012 6.10717e-20)
(8.58811 3.47629 -7.72006e-19)
(8.44307 3.32911 5.52103e-19)
(8.25405 3.16014 1.17569e-19)
(8.02409 2.97351 -2.48261e-19)
(7.76258 2.77433 -7.39636e-20)
(7.4589 2.56244 -5.95853e-20)
(6.24457 3.27908 -1.0401e-19)
(6.30171 3.33958 3.96747e-20)
(6.35533 3.39337 -8.20524e-20)
(6.40588 3.44235 -1.23639e-19)
(6.4548 3.48857 8.87699e-20)
(6.50314 3.53282 -1.37882e-20)
(6.55173 3.57538 6.63612e-20)
(6.60128 3.61633 -2.32683e-19)
(6.65241 3.65566 3.0199e-20)
(6.70564 3.69312 1.39028e-19)
(6.76134 3.72832 -4.97679e-19)
(6.81986 3.76091 7.95278e-19)
(6.88148 3.79042 -1.80104e-18)
(6.94635 3.8163 1.09863e-18)
(7.01449 3.83794 6.82322e-19)
(7.08581 3.85474 4.69515e-19)
(7.16016 3.86611 2.01822e-19)
(7.23728 3.87157 -3.41799e-19)
(7.31682 3.87067 -1.02348e-18)
(7.39818 3.86284 2.02776e-18)
(7.48036 3.84694 9.43979e-20)
(7.55942 3.8227 -2.22059e-18)
(7.63273 3.79049 1.00077e-18)
(7.70128 3.75093 1.12132e-18)
(7.76676 3.7059 -2.27574e-18)
(7.8319 3.6583 2.05242e-18)
(7.89985 3.61149 -1.74153e-18)
(7.97342 3.56861 7.81277e-20)
(8.0544 3.53194 5.37006e-19)
(8.14309 3.50247 1.40499e-18)
(8.23813 3.47978 -1.85154e-18)
(8.33669 3.46216 5.26409e-19)
(8.43477 3.44699 9.71252e-19)
(8.52797 3.43126 -7.6561e-19)
(8.61149 3.41186 -9.0205e-20)
(8.68044 3.38598 -2.76262e-20)
(8.73078 3.35151 1.49153e-19)
(8.75952 3.30673 -1.02241e-19)
(8.76341 3.25034 7.01262e-20)
(8.74239 3.18279 -1.21705e-19)
(8.69064 3.10216 -8.69905e-21)
(6.3188 3.22276 2.26305e-20)
(6.37124 3.27633 4.02917e-19)
(6.42067 3.32356 2.19492e-21)
(6.46736 3.36629 -2.10728e-19)
(6.51248 3.40635 5.95728e-20)
(6.55695 3.44447 -1.71076e-20)
(6.60145 3.48092 -1.76706e-19)
(6.64657 3.5158 9.78026e-20)
(6.69284 3.54913 3.57648e-19)
(6.74069 3.58075 3.66874e-20)
(6.79043 3.61036 1.42631e-19)
(6.84236 3.63767 5.64622e-19)
(6.89674 3.66233 -3.83046e-19)
(6.9537 3.6839 -7.79611e-19)
(7.0133 3.70189 6.66247e-20)
(7.07549 3.71582 -2.49846e-19)
(7.14017 3.72515 6.33482e-19)
(7.20717 3.72938 -6.03348e-19)
(7.27624 3.72804 -4.22309e-19)
(7.34712 3.72075 -1.18943e-18)
(7.41942 3.70705 1.53307e-18)
(7.49018 3.68741 7.44837e-19)
(7.55689 3.66242 -8.00017e-19)
(7.61924 3.63199 -7.78027e-19)
(7.67672 3.59618 -4.47566e-19)
(7.72931 3.55526 1.57087e-18)
(7.77752 3.50986 9.61192e-19)
(7.82243 3.461 8.66161e-19)
(7.86549 3.41007 -1.84512e-18)
(7.90835 3.35859 5.98545e-19)
(7.95256 3.30809 -7.37059e-19)
(7.99936 3.2599 4.08163e-19)
(8.04945 3.21496 -6.44636e-19)
(8.10313 3.1738 1.00793e-18)
(8.16001 3.13653 -5.12864e-19)
(8.21903 3.10293 2.19249e-19)
(8.27841 3.07236 -4.5565e-19)
(8.33725 3.04426 3.73385e-19)
(8.3933 3.01746 -2.84315e-19)
(8.44478 2.99146 -7.87178e-21)
(8.48932 2.96512 4.89842e-20)
(6.3815 3.17383 -9.08942e-20)
(6.42975 3.22141 -3.73846e-20)
(6.47541 3.263 -4.00756e-19)
(6.51862 3.30039 5.02806e-19)
(6.56037 3.33521 -9.55725e-20)
(6.60142 3.36813 -2.50056e-20)
(6.64236 3.39939 1.26164e-19)
(6.68369 3.42913 -2.98458e-19)
(6.72585 3.45737 1.47229e-18)
(6.7692 3.48399 -2.13045e-18)
(6.81399 3.50877 1.12512e-18)
(6.86047 3.53147 3.47377e-19)
(6.90886 3.55183 -4.20082e-19)
(6.95927 3.56947 -1.76734e-18)
(7.01175 3.58402 4.49684e-19)
(7.06629 3.59506 -1.04073e-18)
(7.12281 3.60216 3.35113e-18)
(7.18118 3.60488 -9.19663e-19)
(7.24118 3.60279 -1.99944e-19)
(7.30259 3.59548 6.58155e-19)
(7.36512 3.58248 -3.19329e-18)
(7.42647 3.56435 1.93784e-18)
(7.48481 3.54189 1.16316e-18)
(7.5401 3.51539 -1.08825e-18)
(7.59191 3.48521 -2.80829e-19)
(7.63987 3.45158 9.7911e-19)
(7.68366 3.41466 -1.59149e-18)
(7.7231 3.3746 1.13751e-18)
(7.75817 3.3316 9.84443e-19)
(7.78909 3.28599 -7.16451e-19)
(7.81628 3.23823 -1.24996e-18)
(7.84035 3.18891 1.14703e-19)
(7.862 3.13872 6.36924e-19)
(7.88203 3.08835 2.92111e-19)
(7.90124 3.03851 -7.51489e-19)
(7.92026 2.99 7.88686e-19)
(7.9395 2.94344 -5.03754e-19)
(7.95963 2.89926 2.24024e-19)
(7.9808 2.85778 6.66092e-20)
(8.00322 2.81949 -1.93303e-19)
(8.0261 2.78446 -2.50958e-20)
(6.43489 3.1309 -2.49628e-19)
(6.47936 3.17323 2.81201e-19)
(6.52158 3.20994 2.26014e-19)
(6.56163 3.24272 1.27739e-19)
(6.60031 3.27304 -5.17728e-20)
(6.63829 3.3015 -1.59098e-19)
(6.67606 3.32833 4.91893e-19)
(6.71405 3.35367 -1.51969e-18)
(6.75262 3.37756 2.03812e-18)
(6.79209 3.39991 -1.03768e-18)
(6.83265 3.42054 -1.66641e-18)
(6.8745 3.43926 4.52543e-19)
(6.91781 3.45585 2.1684e-18)
(6.96267 3.47001 1.15416e-18)
(7.00912 3.48144 -2.06336e-18)
(7.05716 3.48979 1.5565e-18)
(7.1067 3.49471 -1.22125e-18)
(7.15764 3.49585 -2.96487e-19)
(7.20982 3.49283 3.52053e-19)
(7.26301 3.4853 -1.65688e-18)
(7.31695 3.47282 4.14919e-18)