/*--------------------------------*- C++ -*----------------------------------*\
| =========                 |                                                 |
| \\      /  F ield         | OpenFOAM: The Open Source CFD Toolbox           |
|  \\    /   O peration     | Version:  2312                                  |
|   \\  /    A nd           | Website:  www.openfoam.com                      |
|    \\/     M anipulation  |                                                 |
\*---------------------------------------------------------------------------*/
FoamFile
{
    version     2.0;
    format      ascii;
    arch        "LSB;label=32;scalar=64";
    class       volScalarField;
    location    "900";
    object      div(phi);
}
// * * * * * * * * * * * * * * * * * * * * * * * * * * * * * * * * * * * * * //

dimensions      [0 0 -1 0 0 0 0];

internalField   nonuniform List<scalar> 
11040
(
0.000266919
0.000138215
0.000882422
0.00104919
0.00074942
0.000492553
0.000723826
0.00108564
0.000703416
0.0013318
0.000686007
0.000930801
0.00173676
0.00120329
0.00104331
0.000519651
0.00131175
0.000255876
0.00139167
0.000456245
0.0014075
0.00187984
0.00180512
0.00168529
-6.70306e-05
0.000694974
-0.00032868
0.000334601
-0.000127744
0.000201791
4.90372e-05
0.000209942
6.80555e-07
0.000589519
0.000160917
0.000778368
0.000158449
0.000732451
-0.000336515
0.00510792
0.00399536
5.63752e-05
0.000130093
0.000338021
0.000672203
0.000988301
0.00118878
0.00140043
0.00138547
0.00116726
0.00129234
0.00120289
0.00154345
0.00175095
0.00161055
0.00164591
0.00138805
0.00182161
0.00118655
0.00191794
0.000719779
0.00131991
0.00163517
0.00164311
0.00145688
0.000351907
0.000444676
-0.000109337
0.000114029
8.6233e-05
0.000312003
0.00049677
0.000733487
0.000878639
0.00114702
0.00098293
0.00121651
0.000695543
0.00095197
0.00101545
0.0027886
0.00224595
9.88343e-05
-1.04085e-05
8.04497e-05
6.93269e-05
8.65252e-05
0.000257168
0.000393569
0.000351862
0.000171333
0.000232009
0.000110741
0.000168363
0.000396779
0.000248464
0.000115874
-5.9814e-05
8.72541e-05
-0.000108651
0.000152857
1.76715e-05
0.000213978
0.000364115
0.000306985
0.000302702
-0.000106148
0.000144364
-0.000104748
8.23815e-05
-4.81766e-05
1.54512e-05
2.43802e-06
-4.86827e-05
-9.95943e-05
2.67948e-05
-5.55808e-05
-8.80074e-05
-2.23753e-05
1.58764e-05
-0.000315028
0.000682937
0.000192573
-1.026e-05
-1.35039e-05
1.91629e-05
7.39046e-06
8.77389e-05
0.000183248
0.000387804
0.000504974
0.000591633
0.000643145
0.000618394
0.000681202
0.000763884
0.000760875
0.000752029
0.000760568
0.000818796
0.000765734
0.000809804
0.000532274
0.000649458
0.00078172
0.000723407
0.000597191
0.00021999
0.000188435
3.05797e-05
9.59296e-05
0.000102981
0.000213683
0.000275561
0.000366585
0.000394299
0.000489451
0.000430349
0.000507919
0.000372163
0.000393347
0.000347703
0.000626371
0.000325051
-7.00636e-05
8.6402e-06
7.49173e-06
6.4386e-05
4.97323e-05
7.22247e-05
8.74377e-05
0.000154646
0.000236417
0.000253836
0.000182867
0.000155961
0.000202719
0.000193227
0.000159157
0.00011298
0.000114039
0.000105762
6.14886e-05
7.17289e-05
6.71605e-05
0.000109831
0.000104217
5.18447e-05
-1.18629e-05
9.0489e-06
-8.14815e-06
1.83054e-05
7.60373e-06
2.35647e-05
4.574e-05
1.6648e-05
1.98361e-05
4.88238e-05
7.19329e-05
-1.16633e-05
9.22613e-05
4.23834e-06
-2.38314e-06
8.61217e-05
-4.03342e-05
0.000124343
-4.41268e-05
5.16001e-05
-4.53283e-05
-4.20727e-06
1.45963e-05
1.33864e-05
4.68247e-05
8.44464e-05
0.000154609
0.000170445
0.00028043
0.00037856
0.000395115
0.000396312
0.000404742
0.000458746
0.000432247
0.000434929
0.000353722
0.000401866
0.000392904
0.000376333
0.000259078
0.000163076
0.000100432
8.57482e-05
8.34609e-05
0.000104922
0.000133147
0.000164009
0.000171913
0.000192604
0.00019504
0.000189521
0.000158047
0.000144382
5.7012e-05
3.72079e-05
-2.72694e-05
-9.68505e-05
-7.23602e-05
2.17473e-05
-0.000113186
-2.44778e-05
2.37582e-05
2.30081e-05
5.08811e-05
4.57566e-05
7.20821e-05
6.81852e-05
0.000132202
0.000199556
0.000229545
0.000225759
0.000192335
0.000191647
0.000176704
0.000191709
0.000130954
0.000139016
8.9179e-05
0.000108701
7.76219e-05
5.7727e-05
1.78962e-05
3.60759e-05
2.51094e-05
4.69688e-05
4.33041e-05
6.56688e-05
7.05126e-05
7.67705e-05
6.36979e-05
9.18074e-05
6.9569e-05
6.79245e-05
3.76814e-05
2.34451e-05
-5.70114e-05
-6.29768e-05
-0.000168546
4.8031e-05
-7.33982e-05
-8.06353e-05
4.81911e-05
6.99683e-06
8.18746e-05
1.92048e-05
4.00199e-05
-7.42815e-06
2.9488e-05
-9.94204e-06
1.32971e-05
9.15563e-05
0.000121476
0.000147493
0.000195185
0.000211583
0.000217953
0.00020006
0.000202283
0.000197835
0.000203242
0.000162387
0.00012585
9.28895e-05
7.84001e-05
5.18328e-05
6.98009e-05
5.52377e-05
8.30773e-05
6.99188e-05
8.3614e-05
7.00539e-05
7.95211e-05
5.42706e-05
4.84333e-05
1.75352e-05
-2.00527e-05
-5.38855e-05
-9.42429e-05
-0.000107972
1.4658e-05
-0.000131638
6.6798e-05
-4.99883e-05
0.000109486
-8.61202e-06
3.72041e-05
-4.84608e-05
1.11033e-05
-4.73139e-05
-2.51622e-05
3.15043e-05
4.48342e-05
8.84092e-05
0.000142824
0.000159515
0.000182039
0.0001498
0.000139436
0.000102984
0.000109188
9.69975e-05
9.65461e-05
7.02325e-05
6.28983e-05
3.81875e-05
6.14208e-05
4.26036e-05
7.24232e-05
5.53004e-05
8.16777e-05
5.52416e-05
7.17395e-05
4.28115e-05
4.93066e-05
9.12163e-06
-4.46493e-09
-5.28428e-05
-7.5899e-05
-0.000117378
-0.000132932
-6.79875e-05
3.68753e-05
-5.7246e-05
9.20038e-05
-3.8635e-06
4.20097e-05
-3.7571e-05
5.29952e-06
-3.26023e-05
-2.53483e-05
2.49936e-05
1.29158e-05
4.00296e-05
4.43308e-05
2.18978e-05
4.30882e-05
2.90233e-05
2.33339e-05
6.01219e-05
7.03677e-05
8.319e-05
8.46981e-05
7.36587e-05
5.78405e-05
4.96029e-05
7.30156e-05
-4.27215e-06
6.15675e-05
9.14081e-06
6.26181e-05
1.85597e-05
5.59541e-05
1.33755e-05
4.52869e-05
-5.42543e-06
2.03689e-05
-4.29705e-05
-2.72425e-05
-9.14805e-05
-8.01919e-05
-0.000127571
-6.48529e-06
-6.77477e-06
2.72637e-05
2.70053e-05
3.43037e-05
1.41459e-05
1.06578e-05
9.27607e-06
-1.99107e-06
2.74296e-05
1.16568e-05
2.37982e-05
2.48256e-05
-1.59883e-05
-6.43195e-06
-2.38269e-05
-3.15091e-05
2.31911e-05
2.36124e-05
6.6193e-05
6.96036e-05
7.44542e-05
6.3723e-05
6.31977e-05
8.45461e-05
1.4597e-05
6.12352e-05
-1.58045e-05
4.17507e-05
-9.20901e-06
3.71471e-05
-1.01045e-05
3.85474e-05
-1.84673e-05
3.93824e-05
-3.65038e-05
3.18585e-05
-5.79652e-05
1.39447e-05
-6.40429e-05
-4.81747e-07
7.31588e-06
7.11204e-06
2.3745e-05
2.73912e-05
3.37496e-05
3.07597e-05
2.9413e-05
3.00615e-05
2.74764e-05
2.84342e-05
2.06275e-05
2.52178e-05
-1.34402e-05
-1.04409e-05
-2.03344e-05
-2.81695e-05
5.48767e-06
-1.3961e-05
1.22852e-05
8.70308e-06
1.68212e-05
2.24369e-05
3.45767e-05
4.31308e-05
6.82951e-05
4.75484e-05
2.61823e-05
1.08266e-05
1.08198e-05
3.34571e-06
4.9319e-06
1.16306e-05
-3.10399e-06
2.51243e-05
-1.44911e-05
3.80232e-05
-2.54876e-05
4.17562e-05
-2.3389e-05
3.65085e-05
-8.41858e-06
1.24962e-05
7.72539e-06
2.05752e-05
1.66832e-05
2.85885e-05
2.37197e-05
2.99613e-05
2.76503e-05
2.92101e-05
2.73458e-05
2.33972e-05
9.80184e-06
5.16556e-07
-1.81857e-06
-1.2235e-05
3.94526e-06
-1.57732e-05
-3.86951e-06
-1.2377e-05
-1.62077e-05
-1.86705e-05
-7.39746e-06
-1.98709e-05
6.89637e-05
6.98784e-06
0.000100431
-1.49169e-05
7.39691e-05
-2.79018e-05
5.67617e-05
-2.22257e-05
4.51387e-05
-1.58804e-05
3.57044e-05
-1.03754e-05
2.62306e-05
-9.20507e-06
1.90248e-05
-1.35309e-05
8.74951e-06
-1.83285e-05
1.11993e-05
3.21017e-06
1.67218e-05
7.43087e-06
2.22481e-05
1.20789e-05
2.44916e-05
1.55168e-05
2.36003e-05
2.00427e-05
2.06267e-05
1.67304e-05
1.28505e-05
9.3016e-06
7.47011e-06
-1.40955e-06
-4.3697e-07
-7.83848e-06
-1.3136e-05
-1.63853e-05
-7.60953e-06
-1.93068e-05
2.13172e-05
-1.02865e-05
8.37144e-05
-2.48439e-06
9.71961e-05
-1.40381e-05
8.97934e-05
-1.96793e-05
8.19943e-05
-2.86248e-05
7.48501e-05
-4.09869e-05
6.92024e-05
-5.21868e-05
5.84952e-05
-5.91483e-05
3.26325e-05
-5.00315e-05
-2.14643e-05
8.49364e-06
8.79795e-07
1.3133e-05
2.97479e-06
1.7687e-05
5.11099e-06
1.95178e-05
7.03785e-06
1.8805e-05
9.67522e-06
1.66468e-05
1.12506e-05
1.29361e-05
1.06986e-05
1.07824e-05
9.67555e-06
4.37589e-06
7.58674e-07
-2.65325e-06
1.85954e-06
-4.75324e-07
6.99643e-06
4.7248e-06
2.81359e-05
1.99389e-05
4.35085e-05
2.69234e-05
4.94583e-05
2.6714e-05
4.92041e-05
2.0798e-05
4.60271e-05
7.13328e-06
4.15163e-05
-6.97658e-06
3.37505e-05
-2.20906e-05
1.76873e-05
-2.60879e-05
-8.86493e-06
-2.47313e-05
6.66768e-06
-4.79618e-07
1.03933e-05
6.77186e-07
1.3797e-05
1.0137e-06
1.52273e-05
1.19053e-06
1.42541e-05
1.84646e-06
1.17494e-05
3.5073e-06
9.51885e-06
6.01297e-06
9.02146e-06
9.3619e-06
9.03242e-06
9.81757e-06
8.26525e-06
1.05371e-05
8.86509e-06
1.40605e-05
1.12186e-05
2.09806e-05
1.56184e-05
2.8441e-05
1.84613e-05
3.39256e-05
2.03186e-05
3.92769e-05
1.97385e-05
3.94056e-05
1.41967e-05
3.64333e-05
5.92595e-06
2.8772e-05
-1.11511e-06
1.55865e-05
-5.1723e-06
-5.12281e-06
-2.70956e-06
5.17973e-06
-1.13012e-06
7.83396e-06
-9.723e-07
9.93038e-06
-1.37583e-06
1.08634e-05
-1.99576e-06
1.00868e-05
-2.40934e-06
8.13052e-06
-1.40784e-06
6.62593e-06
1.04186e-06
6.24556e-06
4.58168e-06
6.83636e-06
7.62172e-06
7.46116e-06
9.61594e-06
7.88225e-06
1.20398e-05
9.03818e-06
1.5423e-05
1.01751e-05
1.92582e-05
1.11624e-05
2.30242e-05
1.20823e-05
2.63793e-05
1.31284e-05
2.79926e-05
1.32107e-05
2.74211e-05
1.24611e-05
2.47458e-05
1.21598e-05
1.74754e-05
1.20959e-05
5.1191e-06
1.6635e-05
3.41331e-06
-3.00381e-07
5.39383e-06
-2.7407e-07
6.91923e-06
-7.77016e-07
7.74328e-06
-1.72323e-06
7.33981e-06
-2.79947e-06
6.0176e-06
-2.82147e-06
4.74451e-06
-1.65183e-06
4.00406e-06
4.9331e-07
3.91136e-06
2.80786e-06
4.24804e-06
4.54872e-06
4.72595e-06
6.44848e-06
5.70527e-06
8.61085e-06
6.5184e-06
1.06662e-05
6.92416e-06
1.25647e-05
6.65392e-06
1.46417e-05
5.88307e-06
1.65606e-05
5.2242e-06
1.75241e-05
5.47362e-06
1.62162e-05
6.45438e-06
1.01367e-05
8.90391e-06
6.77119e-07
7.53033e-06
2.84539e-06
-3.3386e-07
3.36855e-06
-6.38546e-07
4.03474e-06
-1.30066e-06
4.35302e-06
-2.34889e-06
4.1225e-06
-3.37634e-06
3.44163e-06
-3.60428e-06
2.6969e-06
-3.11751e-06
2.16107e-06
-2.09303e-06
1.81749e-06
-8.28372e-07
1.85119e-06
3.02783e-07
2.33074e-06
1.62838e-06
3.47332e-06
3.26526e-06
4.68208e-06
5.16011e-06
5.74953e-06
7.20641e-06
6.39673e-06
9.24149e-06
6.669e-06
1.16116e-05
6.74877e-06
1.3664e-05
7.0905e-06
1.31613e-05
7.65119e-06
1.02767e-05
3.92694e-06
9.75447e-06
7.24876e-06
-3.63998e-07
1.48402e-06
4.90026e-07
7.44024e-07
1.03488e-06
-2.08091e-07
1.33404e-06
-1.17978e-06
1.33224e-06
-2.2064e-06
1.05171e-06
-2.76961e-06
5.36881e-07
-2.9417e-06
-8.09035e-08
-2.72191e-06
-5.95297e-07
-2.11569e-06
-7.0055e-07
-1.40744e-06
-9.2693e-08
-3.19136e-07
1.01133e-06
1.35603e-06
2.33841e-06
3.82919e-06
3.87916e-06
6.49169e-06
5.37011e-06
9.16325e-06
7.0759e-06
1.03559e-05
8.42689e-06
1.06896e-05
8.87208e-06
1.14283e-05
8.40595e-06
1.10727e-05
1.02061e-05
1.02061e-05
3.79998e-06
4.13659e-06
-2.13687e-06
3.05792e-06
-2.74916e-06
3.51884e-06
-3.55303e-06
3.88718e-06
-4.57257e-06
4.04268e-06
-5.75543e-06
4.11446e-06
-6.4957e-06
3.74381e-06
-6.64112e-06
3.10773e-06
-6.18716e-06
2.27493e-06
-5.10734e-06
1.37186e-06
-3.6153e-06
6.57983e-07
-1.91445e-06
-3.59479e-07
1.37063e-07
-1.09767e-06
2.54587e-06
-2.50009e-06
4.76762e-06
-3.47588e-06
7.19144e-06
-6.7235e-06
9.89594e-06
-9.81827e-06
1.19618e-05
-1.30593e-05
1.25481e-05
-1.68692e-05
9.44789e-06
-2.12073e-05
5.73618e-06
-2.06959e-05
-2.72731e-07
7.78137e-07
-3.94643e-07
9.96398e-07
-4.38499e-07
1.23821e-06
-6.2365e-07
1.59294e-06
-9.44279e-07
1.8088e-06
-1.25771e-06
2.08387e-06
-1.29389e-06
2.04019e-06
-1.06386e-06
2.14267e-06
-5.50456e-07
2.00071e-06
1.71437e-07
2.11991e-06
1.08526e-06
2.25929e-06
2.23187e-06
2.6972e-06
3.5893e-06
2.5838e-06
4.78843e-06
3.22946e-06
6.37611e-06
1.88201e-06
9.87462e-06
1.96687e-06
1.30375e-05
2.68493e-06
1.8915e-05
-1.06189e-06
2.36889e-05
3.54938e-06
2.29545e-05
-2.60914e-06
1.95864e-05
2.57713e-06
-3.11871e-07
5.34968e-07
3.12315e-07
1.02548e-07
4.63471e-07
-9.39122e-08
6.66877e-07
-3.78704e-07
8.68334e-07
-4.77742e-07
1.0633e-06
-5.57879e-07
1.19953e-06
-2.64752e-07
1.34935e-06
7.18688e-08
1.47692e-06
5.9499e-07
1.67492e-06
1.07549e-06
1.82322e-06
1.95074e-06
1.9688e-06
3.02102e-06
1.77279e-06
4.81155e-06
1.27968e-06
7.93795e-06
2.08222e-06
1.0519e-05
-7.04486e-07
1.52125e-05
-2.29677e-06
1.74076e-05
-3.66542e-06
1.57733e-05
-1.29436e-05
1.07882e-05
-1.90532e-05
4.25839e-06
-8.40379e-07
1.71951e-06
-1.14213e-07
7.62447e-07
-4.14383e-07
6.08518e-07
-6.79402e-07
5.21186e-07
-9.38186e-07
4.13904e-07
-1.18182e-06
1.62675e-07
-1.18401e-06
-9.25924e-08
-8.43853e-07
-6.22138e-07
-2.03763e-07
-1.10806e-06
5.82905e-07
-2.06365e-06
1.25765e-06
-3.23148e-06
1.89044e-06
-5.44973e-06
2.49387e-06
-7.76937e-06
3.32702e-06
-1.12665e-05
4.67698e-06
-1.61561e-05
7.04572e-06
-1.86465e-05
1.02555e-05
-2.19852e-05
1.44612e-05
-2.38205e-05
1.74732e-05
-2.30718e-05
1.5058e-05
-2.69698e-05
6.17523e-06
1.98695e-06
-4.83801e-07
5.97511e-07
1.87683e-07
2.47601e-07
-4.5075e-08
1.37221e-07
-2.09526e-07
8.82246e-08
-3.59465e-07
1.34048e-08
-4.39935e-07
-4.5197e-08
-3.22681e-07
-1.20339e-07
2.07932e-09
-1.27214e-07
4.64956e-07
-2.90501e-07
9.88565e-07
-5.22294e-07
1.63083e-06
-1.39138e-06
2.26666e-06
-2.25854e-06
3.0327e-06
-4.3583e-06
4.43551e-06
-6.97449e-06
5.60052e-06
-8.43012e-06
8.22169e-06
-1.13555e-05
1.01899e-05
-1.14885e-05
1.24467e-05
-1.26505e-05
1.21869e-05
-1.52447e-05
9.48496e-06
-1.84776e-05
-5.92018e-07
1.30119e-06
5.06778e-07
2.12166e-07
5.39409e-07
-3.10293e-07
2.92899e-07
-5.85041e-07
1.07676e-07
-6.76261e-07
-9.05524e-08
-8.20224e-07
-2.80672e-07
-6.26921e-07
-4.00432e-07
-4.36503e-07
-4.71183e-07
1.08867e-07
-5.3074e-07
5.07256e-07
-7.57561e-07
1.4401e-06
-1.40168e-06
2.52556e-06
-2.42599e-06
4.01806e-06
-3.29445e-06
4.67587e-06
-6.3678e-06
5.97876e-06
-7.80374e-06
6.50029e-06
-1.03335e-05
7.11983e-06
-1.23096e-05
7.60631e-06
-1.35931e-05
7.84589e-06
-1.62407e-05
6.56442e-06
-1.73451e-05
1.05905e-06
-4.51033e-07
8.93648e-07
7.50993e-07
-1.53153e-07
5.05579e-07
-8.05342e-07
4.45586e-07
-1.27251e-06
4.86313e-07
-1.90256e-06
5.69687e-07
-2.40702e-06
7.65184e-07
-3.04319e-06
1.09305e-06
-3.49992e-06
1.57832e-06
-4.2975e-06
2.22812e-06
-5.14161e-06
2.90092e-06
-6.40997e-06
3.64758e-06
-8.09649e-06
4.22918e-06
-1.04028e-05
4.83775e-06
-1.16482e-05
5.28262e-06
-1.35803e-05
6.00673e-06
-1.38483e-05
6.64026e-06
-1.41304e-05
7.46321e-06
-1.47278e-05
7.59799e-06
-1.57033e-05
7.00036e-06
-1.70712e-05
-6.96804e-07
1.33415e-06
1.7394e-07
4.56608e-07
3.44578e-07
-1.34172e-07
2.34869e-08
-4.17921e-07
-8.32996e-08
-6.40365e-07
-1.17569e-07
-8.86856e-07
-6.19112e-08
-1.16016e-06
8.99337e-08
-1.39064e-06
3.17964e-07
-1.67882e-06
7.74397e-07
-2.11513e-06
1.12841e-06
-2.34733e-06
1.90434e-06
-3.54861e-06
2.76547e-06
-4.14922e-06
3.44534e-06
-4.70723e-06
4.46434e-06
-5.99988e-06
5.00962e-06
-6.17718e-06
5.77481e-06
-6.68713e-06
5.79139e-06
-7.56059e-06
5.49959e-06
-8.72212e-06
4.58409e-06
-1.03739e-05
4.81933e-06
4.1269e-07
-6.88141e-07
7.03175e-07
6.63182e-07
-1.03618e-07
4.77237e-07
-5.66432e-07
1.65296e-07
-6.95161e-07
-1.09376e-07
-6.42315e-07
-4.16362e-07
-5.19521e-07
-7.5501e-07
-3.87528e-07
-1.08317e-06
-1.07635e-08
-1.20847e-06
8.49705e-08
-1.75679e-06
7.19598e-07
-2.32592e-06
1.26434e-06
-2.82338e-06
1.69961e-06
-4.23822e-06
2.46484e-06
-4.37482e-06
3.04467e-06
-5.08007e-06
3.48064e-06
-5.45221e-06
3.68384e-06
-5.95399e-06
3.49683e-06
-6.68651e-06
3.04836e-06
-7.42373e-06
2.41382e-06
-8.49079e-06
2.66842e-06
-5.63769e-07
7.21731e-07
1.03233e-07
2.78722e-07
8.88536e-07
-6.31286e-07
7.63099e-07
-1.339e-06
8.93781e-07
-1.87109e-06
1.0967e-06
-2.54882e-06
1.33325e-06
-3.20686e-06
1.52851e-06
-3.69921e-06
1.81997e-06
-4.31243e-06
2.16347e-06
-4.63132e-06
2.3103e-06
-5.39703e-06
2.53071e-06
-6.39111e-06
2.69355e-06
-6.87415e-06
2.86527e-06
-7.53278e-06
3.17199e-06
-7.70726e-06
3.31607e-06
-7.62776e-06
3.37161e-06
-7.89487e-06
2.99616e-06
-8.06887e-06
2.63716e-06
-8.37194e-06
2.02947e-06
-8.38899e-06
1.68617e-06
1.18846e-07
-7.26773e-07
5.8186e-07
3.23521e-07
1.78095e-07
3.03908e-07
-2.80028e-07
6.13326e-08
-5.94445e-07
-1.52588e-08
-8.83476e-07
-2.68279e-08
-1.35308e-06
-3.09919e-08
-1.65868e-06
5.78953e-08
-2.18407e-06
1.81141e-07
-2.46675e-06
2.38998e-07
-3.10554e-06
1.86356e-07
-4.08683e-06
5.28998e-08
-5.20235e-06
2.02545e-07
-5.70568e-06
5.12486e-07
-6.04976e-06
1.02241e-06
-6.19937e-06
1.27111e-06
-6.43272e-06
1.32838e-06
-6.80273e-06
1.08359e-06
-7.11959e-06
9.17236e-07
-7.49417e-06
2.48339e-07
-7.67142e-06
-4.58435e-07
2.69507e-07
-2.50062e-07
1.89725e-07
5.97417e-07
-2.21467e-07
3.88937e-07
-5.42196e-07
6.24435e-08
-5.72452e-07
-2.97216e-07
-5.93756e-07
-7.79796e-07
-4.94789e-07
-1.26056e-06
-3.68535e-07
-1.69137e-06
-3.36914e-07
-2.21015e-06
-2.86419e-07
-2.89732e-06
-3.93242e-07
-3.93269e-06
-3.47906e-07
-4.61384e-06
-2.1096e-08
-5.05877e-06
6.19123e-07
-4.89644e-06
1.3054e-06
-4.89505e-06
1.65732e-06
-5.17895e-06
1.61937e-06
-5.63461e-06
1.38156e-06
-6.1359e-06
1.17092e-06
-6.4769e-06
7.3787e-07
-6.84706e-06
-1.08304e-07
-5.43381e-07
2.73036e-08
3.14036e-07
-1.41966e-07
8.16856e-07
-7.46512e-07
7.69733e-07
-1.3401e-06
8.65762e-07
-1.90613e-06
1.01081e-06
-2.51279e-06
1.12891e-06
-3.00912e-06
1.17103e-06
-3.50886e-06
1.12568e-06
-3.99715e-06
9.49333e-07
-4.50155e-06
7.55935e-07
-5.35776e-06
7.72093e-07
-5.51216e-06
1.18093e-06
-5.62536e-06
1.77474e-06
-5.05391e-06
2.4674e-06
-4.78984e-06
2.72095e-06
-4.84037e-06
2.68524e-06
-5.11734e-06
2.35228e-06
-5.52729e-06
2.19422e-06
-5.69839e-06
1.58857e-06
-5.79708e-06
-3.27876e-07
-4.06775e-08
-3.28761e-07
6.06641e-08
3.13457e-07
8.14273e-08
1.30117e-07
-3.00302e-07
-5.26311e-08
-6.38422e-07
-1.4592e-07
-1.02722e-06
-1.81947e-07
-1.44638e-06
-2.66451e-07
-1.89309e-06
-3.3674e-07
-2.44041e-06
-5.15153e-07
-2.93787e-06
-7.79951e-07
-3.73056e-06
-8.51227e-07
-4.14421e-06
-5.251e-07
-4.29501e-06
-8.24557e-08
-4.16494e-06
6.01589e-07
-3.93121e-06
1.01562e-06
-4.01677e-06
1.21914e-06
-4.17411e-06
1.10368e-06
-4.48606e-06
8.40836e-07
-4.84051e-06
4.39823e-07
-5.2409e-06
6.89873e-07
-1.96631e-07
-3.8507e-07
-1.34953e-07
-4.19896e-08
2.00323e-07
3.35346e-08
1.08573e-07
-2.80479e-07
-8.18488e-08
-5.64127e-07
-1.8805e-07
-8.78378e-07
-2.80277e-07
-1.27195e-06
-2.57072e-07
-1.65962e-06
-3.98555e-07
-2.04364e-06
-6.12813e-07
-2.65834e-06
-6.79521e-07
-3.0954e-06
-4.64965e-07
-3.04582e-06
9.47948e-09
-3.06063e-06
7.21421e-07
-2.56069e-06
1.39349e-06
-2.32953e-06
1.75838e-06
-2.4472e-06
1.82089e-06
-2.70445e-06
1.65514e-06
-3.09341e-06
1.36008e-06
-3.41104e-06
1.09179e-06
-3.82973e-06
1.40161e-06
-2.21023e-07
-1.71331e-07
-2.29011e-07
-3.89973e-08
-3.86029e-08
3.07843e-07
-2.50969e-07
9.53696e-08
-4.22845e-07
-1.90358e-07
-4.63883e-07
-5.43126e-07
-4.15618e-07
-8.81962e-07
-4.53801e-07
-1.29609e-06
-4.8499e-07
-1.78305e-06
-5.84251e-07
-2.12995e-06
-4.46448e-07
-2.29329e-06
-8.6309e-08
-2.36016e-06
6.1497e-07
-1.93549e-06
1.21858e-06
-1.72235e-06
1.6613e-06
-1.80465e-06
1.7231e-06
-2.09213e-06
1.70518e-06
-2.47497e-06
1.42732e-06
-2.758e-06
1.23152e-06
-3.17177e-06
1.07774e-06
-3.2814e-06
1.40085e-06
-2.13135e-07
-2.19681e-07
-1.81397e-07
-1.47376e-07
2.44804e-07
-2.54715e-07
4.21786e-07
-5.90339e-07
3.94316e-07
-9.40158e-07
4.34925e-07
-1.24688e-06
4.62443e-07
-1.60768e-06
4.50232e-07
-1.85505e-06
3.25798e-07
-2.19786e-06
2.99666e-07
-2.35499e-06
4.31185e-07
-2.38872e-06
7.96651e-07
-2.11265e-06
1.18876e-06
-2.01325e-06
1.46858e-06
-2.06405e-06
1.55083e-06
-2.36663e-06
1.56106e-06
-2.70753e-06
1.44607e-06
-3.15391e-06
1.20616e-06
-3.58309e-06
8.37775e-07
-4.09922e-06
4.98746e-07
-4.4962e-06
5.98482e-07
-1.49873e-07
-1.8445e-07
-1.17124e-07
-9.525e-08
-6.31454e-08
1.86143e-07
-4.18342e-08
2.79435e-08
-2.50252e-07
-5.49708e-08
-4.28941e-07
-8.56976e-08
-6.6439e-07
-1.01665e-07
-9.11145e-07
-2.45427e-07
-1.24888e-06
-3.11114e-07
-1.51393e-06
-2.31582e-07
-1.54806e-06
-8.10347e-08
-1.66532e-06
2.33329e-07
-1.6714e-06
4.39341e-07
-1.82034e-06
5.81429e-07
-2.03911e-06
6.10794e-07
-2.32603e-06
6.29404e-07
-2.6321e-06
5.49443e-07
-2.98976e-06
4.61882e-07
-3.34664e-06
5.37314e-07
-3.74464e-06
2.47646e-07
-3.90965e-06
-1.84613e-07
-1.1075e-07
-1.71881e-07
-5.87576e-08
5.39491e-08
6.49845e-08
4.11646e-10
1.06232e-08
-1.67616e-07
-5.22713e-08
-3.06219e-07
-7.01744e-08
-4.59196e-07
-1.56472e-07
-7.14071e-07
-1.42918e-07
-9.42212e-07
-1.62622e-07
-9.62186e-07
-1.10159e-09
-1.09621e-06
2.97407e-07
-9.21001e-07
6.39039e-07
-8.93735e-07
8.32523e-07
-1.00384e-06
9.1593e-07
-1.21156e-06
9.27019e-07
-1.44297e-06
9.08088e-07
-1.69781e-06
8.56437e-07
-1.95472e-06
8.10367e-07
-2.19886e-06
9.82672e-07
-2.44318e-06
9.66345e-07
-2.55409e-06
-1.01486e-07
-1.49474e-07
-5.41215e-08
-7.16592e-08
-1.11868e-08
2.54566e-08
8.97733e-08
-9.25727e-08
-3.72864e-08
-1.36515e-07
-1.74472e-07
-1.38867e-07
-3.66361e-07
-1.01446e-07
-5.3374e-07
-1.53011e-07
-6.90288e-07
-4.82582e-08
-8.27525e-07
8.73574e-08
-7.14638e-07
3.06173e-07
-7.26875e-07
4.75309e-07
-7.7915e-07
5.64612e-07
-9.66331e-07
5.77907e-07
-1.17037e-06
5.57696e-07
-1.48441e-06
5.3389e-07
-1.77002e-06
4.93924e-07
-2.11383e-06
4.64652e-07
-2.4882e-06
6.00309e-07
-2.77034e-06
5.11241e-07
-3.10166e-06
-1.30802e-07
-9.3672e-08
-1.08919e-07
-3.21358e-08
-2.60449e-08
1.12328e-07
-1.06e-07
1.39843e-07
-2.42822e-07
1.06904e-07
-3.47612e-07
9.31355e-08
-3.98859e-07
5.39399e-08
-5.3054e-07
3.27396e-08
-5.31381e-07
-8.35568e-09
-6.37103e-07
4.48247e-09
-7.50343e-07
5.40914e-08
-8.63081e-07
1.42971e-07
-9.41823e-07
2.68844e-07
-1.01675e-06
3.94467e-07
-1.03982e-06
5.75091e-07
-1.06539e-06
7.71511e-07
-1.07277e-06
9.70274e-07
-1.12903e-06
1.14853e-06
-1.24692e-06
1.48024e-06
-1.26116e-06
1.5826e-06
-1.49159e-06
-9.74059e-08
-7.92337e-08
-8.00289e-08
-2.93716e-08
-2.49172e-09
6.53831e-09
6.68922e-08
-2.91541e-08
-1.49474e-08
-1.22167e-07
-4.61149e-08
-1.72637e-07
-5.31538e-08
-2.44885e-07
-3.74195e-08
-2.53271e-07
-9.88408e-08
-3.17916e-07
-1.05054e-07
-4.02552e-07
-9.763e-08
-3.36467e-07
-8.91626e-08
-4.89892e-07
-6.59235e-08
-5.72802e-07
-3.62574e-08
-6.75224e-07
1.334e-08
-8.03411e-07
8.10948e-08
-9.36638e-07
1.82034e-07
-1.10039e-06
2.08155e-07
-1.26022e-06
1.60863e-07
-1.51906e-06
1.20091e-07
-1.78243e-06
5.00048e-07
-7.23218e-08
-1.35344e-07
-4.0817e-09
-5.6479e-08
2.31425e-08
2.93368e-08
4.81441e-08
-1.38324e-08
-2.69651e-08
-8.83051e-08
-4.06277e-08
-1.14823e-07
-2.2013e-08
-9.00936e-08
-4.44739e-08
-9.68545e-08
1.20201e-08
-8.55793e-09
4.26685e-08
1.47596e-07
1.7553e-07
2.02909e-07
3.55021e-07
4.41724e-07
5.71249e-07
5.23961e-07
7.18977e-07
5.6612e-07
8.488e-07
5.01182e-07
9.83556e-07
4.50439e-07
1.14634e-06
3.50402e-07
1.25173e-06
2.8875e-07
1.29063e-06
1.11842e-07
1.37474e-06
-6.18622e-08
1.5795e-06
-9.77621e-08
1.77982e-08
-6.4414e-08
5.99038e-08
-9.8737e-09
3.34598e-08
2.74558e-08
-8.39756e-09
-2.76722e-08
-6.58726e-08
-5.32285e-08
-6.34896e-08
-6.79567e-08
-4.1771e-08
-6.3498e-08
5.10215e-08
-7.19759e-08
1.6368e-07
1.8238e-08
3.17517e-07
1.45151e-07
5.69304e-07
3.04043e-07
6.85752e-07
4.06001e-07
7.42214e-07
4.56953e-07
6.57457e-07
4.80531e-07
5.78393e-07
5.06705e-07
4.11622e-07
5.51222e-07
2.9803e-07
5.76422e-07
1.69886e-07
6.28104e-07
8.45043e-08
8.2689e-07
2.37984e-08
1.07409e-06
-1.36327e-07
-1.31409e-07
-3.75653e-09
-7.24132e-08
4.71859e-08
-1.08081e-08
3.92709e-08
-9.21775e-09
-2.46701e-08
-3.96827e-08
-4.93697e-08
-2.48691e-08
-5.17401e-08
3.69713e-08
-5.48189e-08
1.20633e-07
-1.80541e-08
2.60024e-07
3.22402e-08
4.0498e-07
1.2056e-07
5.15114e-07
1.91941e-07
6.18554e-07
2.52757e-07
6.51861e-07
2.88468e-07
6.96443e-07
3.32791e-07
6.76736e-07
3.95867e-07
6.73395e-07
4.84278e-07
6.02158e-07
5.43547e-07
5.72795e-07
5.60922e-07
4.45659e-07
6.45742e-07
2.84763e-07
7.55507e-07
-1.62211e-07
-1.55386e-07
-1.57418e-07
-5.13259e-09
-8.09445e-08
2.32839e-08
-2.94101e-08
1.12196e-09
-3.04361e-08
-4.27827e-08
-3.52264e-08
-3.69106e-08
-7.07507e-08
4.9653e-09
-1.42752e-07
7.25677e-08
-2.14394e-07
1.27944e-07
-2.71699e-07
2.02774e-07
-2.98019e-07
2.89096e-07
-3.0957e-07
3.88242e-07
-3.13477e-07
4.89387e-07
-3.16688e-07
5.68944e-07
-3.22103e-07
6.49648e-07
-3.22899e-07
6.88016e-07
-3.24376e-07
7.5604e-07
-3.46207e-07
7.68496e-07
-3.80018e-07
8.48939e-07
-2.69147e-07
7.58044e-07
-1.46517e-07
-2.02892e-07
-1.77427e-07
-9.71734e-08
-9.29169e-08
-2.60916e-08
-5.3464e-08
2.3374e-10
-2.35412e-08
-5.032e-08
2.21279e-08
-1.2488e-07
9.43553e-08
-2.29831e-07
1.78378e-07
-3.57488e-07
2.50396e-07
-4.78994e-07
2.92359e-07
-5.92372e-07
3.25606e-07
-6.72688e-07
4.09441e-07
-7.23499e-07
4.92178e-07
-7.25886e-07
6.37833e-07
-6.73853e-07
7.47289e-07
-5.70202e-07
9.02263e-07
-4.13845e-07
9.89106e-07
-2.28673e-07
1.10566e-06
-4.52161e-08
1.17856e-06
1.13614e-07
1.2858e-06
3.24578e-07
1.30352e-06
3.68166e-07
-2.07578e-08
-2.62097e-08
-2.15592e-08
-1.25205e-08
-1.70115e-08
-2.7699e-09
-1.09714e-08
-1.12017e-08
-4.53683e-09
-3.09891e-08
1.22676e-08
-6.63736e-08
5.21345e-08
-1.27845e-07
8.75457e-08
-2.11762e-07
1.48499e-07
-3.14543e-07
1.87942e-07
-4.44867e-07
2.64994e-07
-6.00894e-07
3.37071e-07
-7.90087e-07
4.60612e-07
-1.00293e-06
6.05264e-07
-1.2406e-06
8.08839e-07
-1.49114e-06
1.06768e-06
-1.75106e-06
1.39629e-06
-2.02069e-06
1.81234e-06
-2.27764e-06
2.29744e-06
-2.66398e-06
2.81674e-06
-2.74857e-06
3.5916e-06
0.00103375
0.00660625
-0.0079149
-0.00175079
-0.000344598
-0.000247893
-0.000454991
0.000884331
-0.00559378
0.00498242
-0.00173636
0.00448937
0.00116489
0.000925436
-1.62262e-05
0.00109625
-0.000667666
0.00214752
-0.00162396
0.00164969
-0.00138216
4.07288e-05
-7.95223e-05
3.37072e-05
-5.66501e-05
6.87634e-05
-0.000217028
1.14628e-05
-2.56394e-05
-0.000278103
6.41411e-05
-0.000227923
0.000137585
9.631e-05
-6.84401e-05
8.33819e-05
3.38357e-06
2.948e-05
-3.17839e-05
0.000125264
2.56787e-05
2.21441e-05
6.93225e-05
6.86463e-05
3.19881e-05
4.37043e-05
7.15723e-05
1.18413e-05
6.30096e-06
4.65065e-05
-1.87735e-06
2.01351e-05
8.35232e-06
2.38654e-05
6.01421e-05
-3.66101e-05
2.97727e-05
-1.34684e-05
2.70715e-05
-9.8284e-06
3.45701e-05
-2.8059e-05
1.98779e-06
1.0526e-05
-9.96659e-06
1.1653e-05
-1.50924e-05
-1.2272e-06
-1.86821e-06
-2.327e-06
-1.66522e-06
-9.42816e-07
1.22054e-06
1.30936e-06
-0.000181505
0.000497301
-0.00258437
-0.00155781
-0.00111966
-0.000876646
-0.000762653
6.70018e-05
-0.00119907
0.000684237
-5.62459e-05
0.00117498
0.0007855
0.000601622
0.000161544
0.000637476
-0.000167723
0.000729607
-0.000257679
0.000662011
-0.000178597
0.000205639
5.9779e-05
0.000136843
5.0151e-05
0.000117642
2.86132e-05
8.15518e-05
8.22948e-05
7.49079e-06
7.85782e-05
1.47742e-05
6.49314e-05
5.10296e-05
8.94148e-06
5.88528e-05
1.6999e-05
2.66459e-05
1.06086e-05
3.79132e-05
1.3405e-05
1.26407e-05
1.77179e-05
2.14002e-05
7.05266e-06
1.19447e-05
1.11346e-05
1.6386e-06
-2.85393e-06
1.23171e-05
-6.14355e-06
4.17131e-06
-1.47408e-06
5.14333e-06
8.03239e-06
-1.28647e-05
6.37754e-06
-9.61099e-06
5.93472e-06
-7.74648e-06
3.90796e-06
-1.10198e-05
-2.89412e-06
9.48821e-07
-6.56983e-06
-4.94946e-07
-6.59224e-06
-2.94736e-06
-2.24452e-06
-2.54191e-06
-2.09505e-06
-1.81587e-06
-8.42327e-08
2.63482e-07
0.000599896
0.000538534
8.38472e-05
0.000389083
0.000492506
0.000460766
0.000355298
0.000428924
-0.000133931
0.000318115
-0.000108243
0.000285728
0.000105539
0.000109902
-0.000115346
0.000112112
-0.000319958
0.000102101
-0.00027281
5.62222e-05
-0.000298986
-0.000151727
-0.000217732
-0.000144279
-0.000161422
-9.90386e-05
-0.00011945
-0.000137425
-0.000101038
-0.000144565
-5.36352e-05
-7.71715e-05
-2.23578e-05
-1.78879e-05
-4.18416e-05
9.56802e-06
-1.00605e-05
9.85712e-07
-9.33831e-07
2.67321e-05
1.19799e-05
1.20565e-05
2.26524e-05
1.95879e-05
1.6982e-05
2.31109e-05
1.96695e-05
1.74107e-05
1.11958e-05
2.43293e-05
7.82034e-06
1.58551e-05
1.1266e-05
1.68267e-05
1.61746e-05
6.41664e-07
1.59072e-05
9.4481e-07
1.4259e-05
1.62579e-06
1.04588e-05
-1.67359e-06
5.09806e-06
6.85229e-06
-9.22386e-07
4.12596e-06
-1.37855e-06
2.01733e-06
1.93807e-06
5.47944e-07
3.82479e-07
1.08646e-06
1.03847e-06
9.08615e-07
-0.000143459
-0.000238528
-0.000958444
-0.000928701
-0.000865223
-0.000718184
-0.000549727
-0.000142679
-0.000311239
0.000108346
0.000176411
0.000458654
0.000484414
0.000416276
0.000229402
0.000375705
-2.86199e-05
0.000288113
-3.641e-05
0.00025821
-4.9552e-05
8.55719e-05
-1.3191e-05
3.29519e-05
-1.8075e-05
2.47315e-05
1.38108e-05
3.54201e-05
3.54686e-05
-7.91374e-06
3.14556e-05
1.277e-05
2.74728e-05
2.52208e-05
2.39264e-05
4.07243e-05
1.31766e-05
2.6083e-05
1.81771e-05
2.3939e-05
1.32115e-05
1.65339e-05
1.39831e-05
1.54327e-05
8.71865e-06
1.05707e-05
6.00816e-06
6.47504e-06
4.35731e-07
1.01737e-05
-1.92687e-06
6.0043e-06
1.97594e-06
6.12388e-06
3.72932e-06
-3.67157e-06
4.46741e-06
-5.34775e-06
4.01646e-06
-4.32625e-06
1.3887e-06
-5.03863e-06
-1.57587e-06
3.57153e-07
-4.45658e-06
-1.11508e-06
-3.83901e-06
-2.21799e-06
-1.41435e-06
-2.00041e-06
-1.80715e-06
-1.60802e-06
-1.15415e-07
2.53219e-07
5.22475e-05
1.43716e-05
9.24187e-05
0.000137571
0.000175271
0.00019404
0.000237135
0.000211345
0.000144914
5.35615e-05
3.27389e-05
-2.04435e-06
-3.05376e-05
-4.90751e-05
-0.000105094
-7.04689e-05
-0.000210991
-0.000107972
-0.000101888
-0.000100094
-0.000135011
-0.000122746
-0.000148567
-0.000108266
-0.000111282
-9.73066e-05
-8.76332e-05
-0.000100471
-9.67093e-05
-9.56882e-05
-5.5767e-05
-4.75084e-05
-3.47144e-05
-2.69997e-05
-1.94313e-05
1.59353e-07
-2.12086e-05
-4.49845e-06
1.60523e-06
1.17254e-05
1.83983e-06
8.81369e-06
1.54172e-05
1.10516e-05
1.19403e-05
1.37934e-05
1.09551e-05
1.34955e-05
8.28469e-06
1.46745e-05
6.32096e-06
1.15708e-05
9.0287e-06
1.22313e-05
9.51373e-06
4.60068e-06
9.76825e-06
1.40272e-06
8.97003e-06
1.96633e-06
6.55315e-06
1.6297e-06
4.20662e-06
4.45247e-06
-1.78248e-07
2.87251e-06
3.54602e-07
1.83409e-06
1.80848e-06
5.08508e-07
6.78932e-08
1.45507e-06
7.98005e-07
9.31199e-07
-0.000194715
-0.00022937
-0.000382688
-0.000486703
-0.000503465
-0.000480451
-0.000353795
-0.000216024
-0.000140094
-5.14939e-06
0.000112176
0.000210808
0.000248851
0.000233649
0.000190055
0.000211477
7.55449e-05
0.000140157
4.05902e-05
9.72865e-05
-3.83865e-06
2.70824e-05
-2.74628e-05
-8.23836e-06
-2.67827e-05
3.25276e-06
9.20809e-06
1.10414e-05
3.32102e-06
-1.94261e-05
7.90011e-06