/*--------------------------------*- C++ -*----------------------------------*\
| =========                 |                                                 |
| \\      /  F ield         | OpenFOAM: The Open Source CFD Toolbox           |
|  \\    /   O peration     | Version:  2312                                  |
|   \\  /    A nd           | Website:  www.openfoam.com                      |
|    \\/     M anipulation  |                                                 |
\*---------------------------------------------------------------------------*/
FoamFile
{
    version     2.0;
    format      ascii;
    arch        "LSB;label=32;scalar=64";
    class       volScalarField;
    location    "900";
    object      magR;
}
// * * * * * * * * * * * * * * * * * * * * * * * * * * * * * * * * * * * * * //

dimensions      [0 2 -2 0 0 0 0];

internalField   nonuniform List<scalar> 
11040
(
0.478038
0.528396
0.0827865
0.055256
0.336943
0.347374
0.329268
0.30045
0.270414
0.251506
0.233765
0.218351
0.205673
0.195902
0.188017
0.183972
0.183581
0.187083
0.193916
0.203964
0.217595
0.234409
0.254411
0.277898
0.304942
0.336707
0.372174
0.40631
0.436035
0.457779
0.467805
0.462917
0.44424
0.41832
0.396038
0.311221
0.162503
0.100106
0.0420303
0.13573
0.267653
0.0390137
0.0820684
0.28188
0.516529
1.00189
0.335864
0.104368
0.0358823
0.00935418
0.00700758
0.0168717
0.0224659
0.0261559
0.0287785
0.0304838
0.0321159
0.0341447
0.0365953
0.0391177
0.0417004
0.044415
0.0473797
0.0497935
0.0507871
0.050109
0.0487311
0.0470889
0.0439889
0.0394827
0.034283
0.0300181
0.0288506
0.0290999
0.0326517
0.0403263
0.0522149
0.0690365
0.0909387
0.14548
0.165981
0.670875
0.02408
0.0216137
0.0485024
0.212851
1.15983
1.56233
0.812364
0.307835
0.145015
0.0867175
0.0488927
0.0279448
0.0135514
0.00396769
0.00395655
0.008468
0.0117422
0.0141727
0.0159536
0.0171805
0.0179886
0.0183874
0.0179218
0.0164174
0.0142
0.0117249
0.00916495
0.00626086
0.00265479
0.00439562
0.0131457
0.026128
0.043686
0.0662388
0.0946047
0.130452
0.175532
0.226816
0.33824
0.441263
0.644351
0.0173189
0.0148057
0.0123298
0.0191195
0.274893
1.34389
2.01413
1.35711
0.567895
0.30553
0.181254
0.121923
0.0857095
0.0609786
0.0453863
0.0344041
0.0276465
0.0232752
0.0208678
0.0200252
0.0202292
0.0214359
0.023812
0.0271529
0.0306779
0.0337274
0.0357703
0.0364072
0.0356931
0.0351943
0.0391727
0.0526578
0.0773523
0.113764
0.162488
0.22599
0.307041
0.399764
0.567625
0.779771
0.698822
0.0128942
0.0116234
0.0123885
0.00620571
0.00822125
0.245462
1.27746
2.2743
1.96115
0.987334
0.521884
0.315867
0.2185
0.157865
0.122564
0.0976853
0.0825019
0.0724129
0.0664376
0.0635223
0.0624937
0.0629143
0.0648802
0.0682847
0.0721319
0.0755727
0.0778461
0.0782654
0.0766173
0.0740818
0.0749076
0.0872523
0.118459
0.170625
0.243662
0.339935
0.463028
0.606692
0.818695
1.14701
0.927843
0.00930392
0.00854377
0.00831057
0.00920682
0.00282673
0.00200057
0.165737
1.02246
2.30777
2.49878
1.62534
0.831319
0.515672
0.346918
0.257143
0.199247
0.165074
0.14291
0.129231
0.121899
0.118245
0.117162
0.118396
0.121841
0.126224
0.13042
0.133232
0.133382
0.129985
0.123614
0.118528
0.126089
0.161162
0.229797
0.330724
0.464805
0.635447
0.836645
1.08649
1.50738
1.27806
0.00672018
0.00642286
0.00602988
0.00642249
0.00664158
0.00127077
5.526e-05
0.0771745
0.685507
2.00992
2.81076
2.36425
1.38163
0.786893
0.529097
0.388586
0.304426
0.251617
0.219221
0.201462
0.191911
0.187974
0.188217
0.192111
0.197736
0.203438
0.207382
0.207434
0.201647
0.189532
0.17446
0.169649
0.200033
0.281491
0.411319
0.586011
0.806555
1.06594
1.35323
1.8283
1.67299
0.00490472
0.00479571
0.00472341
0.00453729
0.00491163
0.00515078
0.00024022
2.77674e-06
0.0234562
0.368781
1.44901
2.73715
2.96277
2.16705
1.25709
0.788635
0.564452
0.441083
0.364568
0.319351
0.293958
0.28293
0.280353
0.28445
0.29194
0.300204
0.306429
0.307252
0.299038
0.279696
0.250268
0.222169
0.229338
0.310385
0.46508
0.6796
0.948197
1.25985
1.58489
2.06397
2.02757
0.00362286
0.00357175
0.0035785
0.00354901
0.00340956
0.00385607
0.00368726
0.000501125
0.000448483
0.000909462
0.141344
0.832456
2.17199
3.15866
2.95674
2.03304
1.22379
0.822421
0.622214
0.511645
0.447725
0.41722
0.405849
0.407722
0.416717
0.427897
0.437096
0.439705
0.430321
0.403999
0.357972
0.296945
0.251444
0.296474
0.461647
0.710529
1.02072
1.37329
1.72883
2.17304
2.2504
0.00269081
0.00266697
0.00268637
0.00271547
0.00269286
0.00261025
0.0029385
0.00263289
0.000847336
0.000114465
0.00212051
0.0314098
0.36097
1.35363
2.72761
3.38658
2.93576
1.99762
1.26089
0.891362
0.711987
0.625136
0.585975
0.575771
0.582257
0.596826
0.611737
0.618628
0.609586
0.577677
0.516658
0.422365
0.30383
0.232585
0.361155
0.634774
0.977631
1.35697
1.72816
2.11753
2.27006
0.00200718
0.00199606
0.00201611
0.00204776
0.00207665
0.00205754
0.00202984
0.00217163
0.00215296
0.00112716
7.73878e-05
0.000389431
0.00032448
0.0973511
0.61825
1.7936
3.08987
3.52779
2.97815
2.06884
1.37103
1.02865
0.885791
0.827981
0.811682
0.818995
0.836276
0.850482
0.84973
0.822139
0.755992
0.641255
0.472742
0.253888
0.119122
0.408655
0.77935
1.17215
1.54023
1.86582
2.04471
0.00150028
0.00149575
0.00151018
0.00153893
0.00156918
0.00159327
0.00158816
0.00157232
0.0016264
0.00169154
0.00125257
3.79369e-05
2.28111e-05
0.00161393
0.0122849
0.185178
0.843829
2.08852
3.30476
3.66019
3.12222
2.29995
1.67264
1.33232
1.18797
1.14641
1.14694
1.15783
1.16198
1.14417
1.08994
0.986012
0.823744
0.602525
0.343779
0.236821
0.514548
0.877157
1.20955
1.46034
1.60643
0.00112202
0.00112102
0.0011307
0.0011527
0.00118018
0.0012063
0.00122707
0.00123225
0.00122352
0.0012391
0.00131172
0.00113102
0.000267616
2.71282e-05
0.000168353
0.00344435
0.0257416
0.252378
0.968912
2.21393
3.40862
3.82994
3.50095
2.89106
2.32001
1.92102
1.7022
1.6142
1.59461
1.58814
1.55887
1.48784
1.36856
1.20759
1.02964
0.887675
0.859844
0.971022
1.14017
1.25713
1.27216
0.000838445
0.000839362
0.000845595
0.000861483
0.000883727
0.000907426
0.000929537
0.000948229
0.00095846
0.000956621
0.000958005
0.00100948
0.000974293
0.00055587
8.08353e-06
3.94644e-06
0.000409867
0.00525672
0.0350793
0.272084
0.969316
2.11858
3.26226
3.93937
4.04192
3.77681
3.37543
2.97409
2.64251
2.40562
2.25576
2.16414
2.09597
2.02777
1.95765
1.89876
1.87151
1.88479
1.93027
1.96145
1.84185
0.000625162
0.00062705
0.000631033
0.000642304
0.000659336
0.000678876
0.000698801
0.000717687
0.000734396
0.000746676
0.000749727
0.000751282
0.0007768
0.000784551
0.000685477
0.000193842
2.25399e-05
3.80225e-07
0.000704452
0.00540835
0.0322331
0.221101
0.720183
1.57493
2.61946
3.57039
4.21603
4.51425
4.54628
4.40904
4.17017
3.88067
3.58977
3.34302
3.17345
3.09478
3.10374
3.17026
3.2587
3.34626
3.25823
0.000464585
0.000466757
0.000469307
0.000477219
0.000489914
0.000505146
0.000521489
0.000538157
0.000554281
0.000568957
0.000581147
0.000587795
0.000592343
0.000598722
0.000627551
0.00058886
0.000455105
3.29752e-05
7.77218e-06
8.59781e-08
0.00078989
0.00358086
0.011296
0.0897493
0.325368
0.796614
1.51384
2.39867
3.31701
4.14397
4.80174
5.25952
5.52085
5.6118
5.57622
5.46397
5.32609
5.19715
5.11
5.10823
5.02034
0.000344712
0.000346739
0.000348435
0.000354023
0.000363365
0.000374857
0.000387593
0.000401073
0.000414812
0.000428194
0.000440667
0.000451634
0.000460244
0.000465303
0.000472083
0.000483495
0.00050024
0.000441168
0.00026799
7.95424e-06
4.11755e-06
5.70195e-08
0.000235217
0.00171035
0.00449879
0.0100579
0.0641214
0.20818
0.49367
0.952596
1.58533
2.35898
3.21681
4.09525
4.93333
5.67525
6.28793
6.75631
7.09407
7.36506
7.44229
0.000258243
0.000260037
0.000261317
0.000265484
0.000272524
0.000281288
0.000291158
0.000301836
0.000312976
0.000324214
0.000335163
0.000345511
0.000354992
0.000363212
0.00036929
0.000374676
0.000381431
0.000396703
0.000399196
0.000343624
0.000186131
5.39346e-06
3.44631e-06
2.25842e-07
0
0.00019427
0.00138006
0.00235044
0.000829623
0.0111684
0.051963
0.150825
0.337688
0.641662
1.08014
1.6548
2.35131
3.1478
4.00395
4.90073
5.7042
0.00019709
0.000198669
0.000199714
0.000202945
0.000208385
0.000215195
0.000222956
0.000231494
0.000240578
0.000249928
0.000259278
0.000268384
0.000277036
0.000285116
0.000292348
0.00029861
0.000303271
0.000308912
0.000316736
0.000327401
0.000324105
0.000271786
0.00018224
2.1669e-05
4.93324e-06
1.13462e-06
9.28321e-08
0
1.00019e-05
0.000224866
0.00113463
0.00173387
1.06861e-05
0.00146868
0.0099907
0.0408829
0.108904
0.233222
0.430907
0.718978
1.1004
0.000153184
0.000154522
0.000155387
0.000157938
0.000162197
0.000167542
0.000173679
0.000180491
0.00018783
0.000195497
0.000203313
0.000211119
0.000218751
0.000226058
0.000232919
0.000239258
0.000244901
0.000249734
0.00025394
0.000259328
0.000266856
0.000273307
0.000272245
0.000241216
0.000184338
0.000112597
1.00443e-05
3.09649e-06
9.2969e-07
4.92498e-07
2.22778e-08
0
2.21102e-07
2.07189e-05
0.000193225
0.000898769
0.0014677
0.00112389
0.000959996
0.000406933
0.00719592
0.000120675
0.000121783
0.000122509
0.000124551
0.000127925
0.000132164
0.000137055
0.000142515
0.000148435
0.000154675
0.000161105
0.000167622
0.000174114
0.000180469
0.000186584
0.000192373
0.000197783
0.00020274
0.000207146
0.00021103
0.00021471
0.000219554
0.000225027
0.000232218
0.000232181
0.000225042
0.000199127
0.000156784
0.000107571
5.98873e-05
2.93605e-06
1.70686e-06
7.15656e-07
4.7457e-07
2.537e-07
3.06287e-08
0
0
0
2.92632e-06
0.000112357
9.60956e-05
9.70051e-05
9.76256e-05
9.92815e-05
0.00010198
0.000105371
0.000109298
0.000113696
0.000118483
0.000123556
0.000128817
0.000134192
0.000139603
0.000144966
0.000150208
0.000155261
0.000160068
0.000164583
0.000168773
0.000172624
0.00017597
0.000178985
0.000181859
0.00018546
0.000189819
0.000194006
0.000198765
0.000199292
0.000193826
0.000184268
0.000163897
0.000134978
0.000102498
7.02726e-05
3.9622e-05
5.1418e-06
1.57438e-06
5.44863e-07
4.17385e-07
2.98768e-07
1.88416e-07
7.71804e-05
7.79233e-05
7.84596e-05
7.98141e-05
8.19887e-05
8.47196e-05
8.78895e-05
9.14464e-05
9.53259e-05
9.94493e-05
0.000103742
0.000108149
0.000112613
0.000117071
0.000121466
0.000125745
0.000129864
0.00013378
0.00013746
0.000140904
0.00014401
0.000146751
0.000149188
0.000151295
0.000153344
0.000155428
0.000157994
0.000161016
0.000164068
0.000166524
0.000169152
0.00016923
0.000166393
0.000160548
0.000152489
0.000139515
0.000122427
0.000102352
8.14497e-05
6.06545e-05
4.0422e-05
6.24219e-05
6.30278e-05
6.34959e-05
6.46124e-05
6.6376e-05
6.85883e-05
7.11599e-05
7.40477e-05
7.71993e-05
8.05538e-05
8.40534e-05
8.76539e-05
9.13129e-05
9.49814e-05
9.86135e-05
0.00010217
0.000105613
0.000108909
0.000112028
0.000114962
0.000117628
0.00012001
0.000122157
0.000124004
0.000125574
0.00012692
0.000128091
0.00012919
0.000130345
0.000131535
0.000132924
0.000134461
0.000135956
0.000137255
0.000138155
0.000139031
0.000139011
0.000137742
0.000135186
0.000131145
0.0001267
5.07739e-05
5.12681e-05
5.16793e-05
5.26053e-05
5.40432e-05
5.58442e-05
5.79388e-05
6.02906e-05
6.28562e-05
6.55875e-05
6.84389e-05
7.13744e-05
7.43613e-05
7.73609e-05
8.03365e-05
8.3256e-05
8.60895e-05
8.88088e-05
9.1387e-05
9.38166e-05
9.60238e-05
9.79941e-05
9.97695e-05
0.000101301
0.0001026
0.00010369
0.000104581
0.000105282
0.000105813
0.000106203
0.000106469
0.00010666
0.000106808
0.000106949
0.000107073
0.000107217
0.000107367
0.000107511
0.000107634
0.000107568
0.000107596
4.14934e-05
4.18974e-05
4.22607e-05
4.3033e-05
4.42113e-05
4.5684e-05
4.73966e-05
4.93174e-05
5.14103e-05
5.36367e-05
5.59599e-05
5.83507e-05
6.07822e-05
6.32236e-05
6.56453e-05
6.80213e-05
7.03271e-05
7.25389e-05
7.4634e-05
7.66048e-05
7.83882e-05
7.99734e-05
8.13966e-05
8.26134e-05
8.36319e-05
8.44726e-05
8.51471e-05
8.5662e-05
8.60239e-05
8.6242e-05
8.63234e-05
8.62773e-05
8.61113e-05
8.58422e-05
8.54868e-05
8.50499e-05
8.45412e-05
8.39833e-05
8.34142e-05
8.27872e-05
8.2226e-05
3.40405e-05
3.4372e-05
3.46946e-05
3.53423e-05
3.63126e-05
3.75221e-05
3.89272e-05
4.05001e-05
4.22108e-05
4.40275e-05
4.59207e-05
4.78663e-05
4.9842e-05
5.18226e-05
5.37843e-05
5.57058e-05
5.75668e-05
5.93477e-05
6.1029e-05
6.26043e-05
6.40199e-05
6.52696e-05
6.63861e-05
6.73305e-05
6.81075e-05
6.87336e-05
6.9219e-05
6.95703e-05
6.9795e-05
6.99017e-05
6.98984e-05
6.97935e-05
6.95918e-05
6.93032e-05
6.89374e-05
6.84975e-05
6.79864e-05
6.74134e-05
6.6807e-05
6.612e-05
6.55061e-05
2.80152e-05
2.82888e-05
2.85767e-05
2.91233e-05
2.99265e-05
3.09243e-05
3.20811e-05
3.33727e-05
3.47736e-05
3.6258e-05
3.78014e-05
3.9384e-05
4.09872e-05
4.25902e-05
4.41737e-05
4.57201e-05
4.72127e-05
4.86353e-05
4.99719e-05
5.12166e-05
5.2325e-05
5.32945e-05
5.4155e-05
5.48736e-05
5.5453e-05
5.59071e-05
5.62447e-05
5.64714e-05
5.65938e-05
5.66195e-05
5.65561e-05
5.64116e-05
5.6191e-05
5.59035e-05
5.55577e-05
5.51568e-05
5.47038e-05
5.42055e-05
5.36862e-05
5.31024e-05
5.25906e-05
2.31163e-05
2.3344e-05
2.36025e-05
2.40669e-05
2.47356e-05
2.55625e-05
2.65185e-05
2.7582e-05
2.87317e-05
2.99461e-05
3.12052e-05
3.24924e-05
3.37922e-05
3.50875e-05
3.6362e-05
3.76019e-05
3.87933e-05
3.99229e-05
4.09773e-05
4.19521e-05
4.28104e-05
4.35526e-05
4.42063e-05
4.47437e-05
4.51667e-05
4.54871e-05
4.57126e-05
4.58481e-05
4.58992e-05
4.58727e-05
4.5775e-05
4.5613e-05
4.53912e-05
4.51171e-05
4.47983e-05
4.44376e-05
4.40376e-05
4.36036e-05
4.31563e-05
4.26603e-05
4.22218e-05
1.91138e-05
1.93056e-05
1.95394e-05
1.9937e-05
2.04973e-05
2.11861e-05
2.19791e-05
2.28575e-05
2.38032e-05
2.47984e-05
2.58265e-05
2.68736e-05
2.7927e-05
2.89724e-05
2.99963e-05
3.09873e-05
3.19347e-05
3.28272e-05
3.36542e-05
3.44119e-05
3.50706e-05
3.56325e-05
3.61229e-05
3.65186e-05
3.6821e-05
3.70405e-05
3.71834e-05
3.72543e-05
3.72579e-05
3.72e-05
3.7086e-05
3.69218e-05
3.67112e-05
3.64604e-05
3.61756e-05
3.58593e-05
3.55135e-05
3.51422e-05
3.47627e-05
3.43466e-05
3.39758e-05
1.58304e-05
1.59944e-05
1.62076e-05
1.65508e-05
1.70234e-05
1.76003e-05
1.8261e-05
1.8989e-05
1.97689e-05
2.05861e-05
2.14267e-05
2.2279e-05
2.31326e-05
2.39757e-05
2.47971e-05
2.55875e-05
2.63385e-05
2.70409e-05
2.76863e-05
2.82717e-05
2.87732e-05
2.91942e-05
2.95577e-05
2.98445e-05
3.00559e-05
3.02005e-05
3.02842e-05
3.03107e-05
3.02841e-05
3.02092e-05
3.00907e-05
2.99334e-05
2.97405e-05
2.9517e-05
2.92679e-05
2.89954e-05
2.87011e-05
2.83878e-05
2.80702e-05
2.7725e-05
2.74155e-05
1.31272e-05
1.32704e-05
1.34662e-05
1.37651e-05
1.41669e-05
1.46529e-05
1.5206e-05
1.58117e-05
1.64569e-05
1.71295e-05
1.7818e-05
1.85126e-05
1.92045e-05
1.98844e-05
2.05428e-05
2.11723e-05
2.17661e-05
2.23173e-05
2.2819e-05
2.3269e-05
2.36484e-05
2.39611e-05
2.42277e-05
2.44326e-05
2.45768e-05
2.46677e-05
2.47103e-05
2.4708e-05
2.46642e-05
2.45827e-05
2.44676e-05
2.43226e-05
2.41506e-05
2.39554e-05
2.37412e-05
2.35096e-05
2.3262e-05
2.30002e-05
2.27367e-05
2.24522e-05
2.21952e-05
1.08954e-05
1.10231e-05
1.12044e-05
1.14671e-05
1.18113e-05
1.22235e-05
1.2689e-05
1.31951e-05
1.37309e-05
1.42863e-05
1.48516e-05
1.54185e-05
1.598e-05
1.65284e-05
1.70561e-05
1.75569e-05
1.80258e-05
1.84572e-05
1.88458e-05
1.91901e-05
1.94751e-05
1.9705e-05
1.98982e-05
2.00417e-05
2.01365e-05
2.01891e-05
2.02038e-05
2.01833e-05
2.01305e-05
2.00487e-05
1.99411e-05
1.98108e-05
1.96601e-05
1.94921e-05
1.931e-05
1.91151e-05
1.89087e-05
1.86918e-05
1.84748e-05
1.82418e-05
1.803e-05
9.04824e-06
9.16466e-06
9.33362e-06
9.56666e-06
9.86413e-06
1.02161e-05
1.06103e-05
1.10355e-05
1.14825e-05
1.19427e-05
1.24082e-05
1.28722e-05
1.33286e-05
1.37716e-05
1.41948e-05
1.45933e-05
1.49633e-05
1.53006e-05
1.56011e-05
1.58639e-05
1.60774e-05
1.62455e-05
1.63845e-05
1.64837e-05
1.65441e-05
1.65711e-05
1.65684e-05
1.65384e-05
1.64833e-05
1.6406e-05
1.63089e-05
1.61946e-05
1.60649e-05
1.59222e-05
1.57691e-05
1.56068e-05
1.54359e-05
1.52572e-05
1.50796e-05
1.48897e-05
1.47146e-05
7.51641e-06
7.62483e-06
7.78322e-06
7.99181e-06
8.25118e-06
8.55416e-06
8.89012e-06
9.24948e-06
9.62431e-06
1.00075e-05
1.03924e-05
1.07734e-05
1.11454e-05
1.15039e-05
1.18438e-05
1.2161e-05
1.24528e-05
1.27161e-05
1.29478e-05
1.31475e-05
1.3306e-05
1.34271e-05
1.35252e-05
1.35914e-05
1.36267e-05
1.36357e-05
1.36216e-05
1.35863e-05
1.35319e-05
1.34605e-05
1.33741e-05
1.32749e-05
1.31643e-05
1.30441e-05
1.29165e-05
1.27821e-05
1.26417e-05
1.24955e-05
1.23511e-05
1.21969e-05
1.20545e-05
6.24412e-06
6.34698e-06
6.49614e-06
6.68446e-06
6.91268e-06
7.17561e-06
7.46414e-06
7.76991e-06
8.08618e-06
8.40699e-06
8.72684e-06
9.04099e-06
9.34539e-06
9.63639e-06
9.9102e-06
1.01635e-05
1.03943e-05
1.06006e-05
1.078e-05
1.09325e-05
1.10511e-05
1.11391e-05
1.12091e-05
1.12536e-05
1.12734e-05
1.12727e-05
1.12539e-05
1.12188e-05
1.11688e-05
1.11057e-05
1.10313e-05
1.09472e-05
1.08544e-05
1.07544e-05
1.0649e-05
1.05386e-05
1.04238e-05
1.03047e-05
1.01875e-05
1.0063e-05
9.94419e-06
5.18626e-06
5.28526e-06
5.42622e-06
5.59763e-06
5.8003e-06
6.03044e-06
6.28019e-06
6.54229e-06
6.81096e-06
7.08121e-06
7.34848e-06
7.60884e-06
7.85898e-06
8.09604e-06
8.31711e-06
8.51958e-06
8.70197e-06
8.86289e-06
9.00086e-06
9.11577e-06
9.20258e-06
9.26422e-06
9.31151e-06
9.33848e-06
9.34594e-06
9.33729e-06
9.31484e-06
9.27989e-06
9.23375e-06
9.17784e-06
9.11355e-06
9.04214e-06
8.96449e-06
8.8817e-06
8.79506e-06
8.70496e-06
8.61198e-06
8.51563e-06
8.42184e-06
8.32104e-06
8.2273e-06
4.30621e-06
4.40247e-06
4.53603e-06
4.69326e-06
4.87489e-06
5.07801e-06
5.29588e-06
5.52217e-06
5.752e-06
5.98115e-06
6.20586e-06
6.42295e-06
6.62981e-06
6.82431e-06
7.00433e-06
7.16791e-06
7.31407e-06
7.44201e-06
7.5508e-06
7.64055e-06
7.70751e-06
7.75387e-06
7.78898e-06
7.80781e-06
7.81103e-06
7.80148e-06
7.78104e-06
7.75077e-06
7.71171e-06
7.665e-06
7.61176e-06
7.55301e-06
7.48945e-06
7.42193e-06
7.35152e-06
7.27854e-06
7.20341e-06
7.12561e-06
7.05003e-06
6.97007e-06
6.88812e-06
3.57409e-06
3.66817e-06
3.79491e-06
3.94019e-06
4.10439e-06
4.2851e-06
4.47648e-06
4.67313e-06
4.87094e-06
5.06645e-06
5.25654e-06
5.43856e-06
5.61035e-06
5.77015e-06
5.91639e-06
6.04756e-06
6.16293e-06
6.26212e-06
6.34467e-06
6.41079e-06
6.45795e-06
6.48826e-06
6.50976e-06
6.51839e-06
6.51484e-06
6.50155e-06
6.48015e-06
6.45152e-06
6.4165e-06
6.37601e-06
6.33091e-06
6.28199e-06
6.22978e-06
6.17489e-06
6.11812e-06
6.05959e-06
5.99984e-06
5.93795e-06
5.87893e-06
5.81342e-06
5.75531e-06
2.96512e-06
3.05731e-06
3.17766e-06
3.31262e-06
3.46207e-06
3.62389e-06
3.79302e-06
3.96484e-06
4.13598e-06
4.30372e-06
4.46559e-06
4.61955e-06
4.764e-06
4.89784e-06
5.02016e-06
5.12991e-06
5.22659e-06
5.31001e-06
5.37986e-06
5.43636e-06
5.47758e-06
5.50462e-06
5.52446e-06
5.53361e-06
5.53262e-06
5.52354e-06
5.5077e-06
5.48581e-06
5.45857e-06
5.42674e-06
5.39107e-06
5.35223e-06
5.31066e-06
5.26688e-06
5.22159e-06
5.17499e-06
5.12734e-06
5.07807e-06
5.03056e-06
4.98166e-06
4.92144e-06
2.45871e-06
2.54949e-06
2.66411e-06
2.7899e-06
2.92615e-06
3.07119e-06
3.22097e-06
3.3717e-06
3.52051e-06
3.66511e-06
3.80351e-06
3.93406e-06
4.05521e-06
4.16547e-06
4.26375e-06
4.34949e-06
4.42279e-06
4.48405e-06
4.53359e-06
4.57172e-06
4.59743e-06
4.61229e-06
4.62193e-06
4.62357e-06
4.61775e-06
4.60618e-06
4.58997e-06
4.56969e-06
4.54584e-06
4.51899e-06
4.48968e-06
4.45835e-06
4.42531e-06
4.39089e-06
4.35554e-06
4.31923e-06
4.28252e-06
4.24415e-06
4.20896e-06
4.16538e-06
4.13703e-06
2.0391e-06
2.12888e-06
2.23863e-06
2.35631e-06
2.4803e-06
2.60941e-06
2.74105e-06
2.87274e-06
3.00243e-06
3.12808e-06
3.2478e-06
3.36038e-06
3.4655e-06
3.56351e-06
3.65433e-06
3.73654e-06
3.80879e-06
3.87066e-06
3.92211e-06
3.96362e-06
3.99435e-06
4.01447e-06
4.02941e-06
4.0368e-06
4.03721e-06
4.03214e-06
4.02257e-06
4.00904e-06
3.99205e-06
3.97218e-06
3.94996e-06
3.92587e-06
3.90022e-06
3.87335e-06
3.84578e-06
3.81766e-06
3.78908e-06
3.75979e-06
3.7311e-06
3.70612e-06
3.6535e-06
1.69527e-06
1.7829e-06
1.8869e-06
1.99643e-06
2.10902e-06
2.22362e-06
2.3384e-06
2.45196e-06
2.56351e-06
2.67212e-06
2.77616e-06
2.87309e-06
2.95999e-06
3.03437e-06
3.096e-06
3.1475e-06
3.19154e-06
3.22893e-06
3.2597e-06
3.28352e-06
3.29994e-06
3.31017e-06
3.31747e-06
3.31989e-06
3.31774e-06
3.31216e-06
3.30385e-06
3.29314e-06
3.28032e-06
3.26572e-06
3.24964e-06
3.23232e-06
3.21394e-06
3.19463e-06
3.17465e-06
3.15382e-06
3.13287e-06
3.11001e-06
3.09105e-06
3.05796e-06
3.06106e-06
1.41531e-06
1.49858e-06
1.59347e-06
1.69146e-06
1.79102e-06
1.89217e-06
1.99347e-06
2.09296e-06
2.18908e-06
2.2813e-06
2.37033e-06
2.45802e-06
2.54622e-06
2.63569e-06
2.72389e-06
2.80379e-06
2.87069e-06
2.92548e-06
2.96991e-06
3.00571e-06
3.03275e-06
3.05068e-06
3.0641e-06
3.07165e-06
3.07401e-06
3.07236e-06
3.06746e-06
3.0598e-06
3.04984e-06
3.03807e-06
3.02494e-06
3.01085e-06
2.99608e-06
2.9809e-06
2.96573e-06
2.95084e-06
2.93594e-06
2.92179e-06
2.90601e-06
2.90437e-06
2.84257e-06
1.18159e-06
1.26247e-06
1.3483e-06
1.43192e-06
1.51384e-06
1.597e-06
1.68277e-06
1.77086e-06
1.85927e-06
1.94414e-06
2.02035e-06
2.08295e-06
2.12927e-06
2.1598e-06
2.18037e-06
2.20288e-06
2.2325e-06
2.26435e-06
2.29479e-06
2.32162e-06
2.34438e-06
2.36388e-06
2.38101e-06
2.39451e-06
2.40448e-06
2.4116e-06
2.41633e-06
2.41887e-06
2.41938e-06
2.41807e-06
2.41513e-06
2.41066e-06
2.40481e-06
2.39761e-06
2.38918e-06
2.37925e-06
2.36882e-06
2.35522e-06
2.34696e-06
2.31248e-06
2.35563e-06
9.84753e-07
1.07244e-06
1.1595e-06
1.2367e-06
1.3039e-06
1.36531e-06
1.42482e-06
1.48604e-06
1.55264e-06
1.62814e-06
1.71533e-06
1.81535e-06
1.92647e-06
2.0444e-06
2.15954e-06
2.25241e-06
2.31704e-06
2.36578e-06
2.40392e-06
2.43398e-06
2.45555e-06
2.4692e-06
2.47831e-06
2.48245e-06
2.48251e-06
2.47949e-06
2.47409e-06
2.46687e-06
2.45833e-06
2.44899e-06
2.43932e-06
2.42977e-06
2.42061e-06
2.41216e-06
2.40482e-06
2.39913e-06
2.39422e-06
2.39265e-06
2.3861e-06
2.41187e-06
2.32072e-06
8.42078e-07
9.28059e-07
1.01258e-06
1.09038e-06
1.15955e-06
1.21988e-06
1.27027e-06
1.30967e-06
1.33822e-06
1.35734e-06
1.36941e-06
1.37716e-06
1.3834e-06
1.38871e-06
1.39563e-06
1.4205e-06
1.46409e-06
1.51242e-06
1.56088e-06
1.60659e-06
1.64889e-06
1.68782e-06
1.72387e-06
1.75661e-06
1.78582e-06
1.81172e-06
1.83451e-06
1.85425e-06
1.87094e-06
1.88461e-06
1.89525e-06
1.90281e-06
1.9073e-06
1.90856e-06
1.90663e-06
1.9011e-06
1.89309e-06
1.87886e-06
1.87006e-06
1.8199e-06
1.88991e-06
9.13002e-07
1.02567e-06
1.08594e-06
1.0973e-06
1.08205e-06
1.0711e-06
1.09149e-06
1.1556e-06
1.25825e-06
1.38394e-06
1.51593e-06
1.64123e-06
1.75143e-06
1.84397e-06
1.91647e-06
1.9524e-06
1.95537e-06
1.94323e-06
1.92437e-06
1.90209e-06
1.87507e-06
1.8506e-06
1.82389e-06
1.79654e-06
1.76942e-06
1.74274e-06
1.71661e-06
1.69112e-06
1.66637e-06
1.64236e-06
1.61901e-06
1.59626e-06
1.57382e-06
1.55148e-06
1.52921e-06
1.50732e-06
1.48405e-06
1.46232e-06
1.43174e-06
1.43456e-06
1.31025e-06
8.14359
9.39135
8.54677
6.97353
5.11839
3.37084
1.93778
0.898127
0.274143
0.0603076
0.0165388
0.00318285
8.63391e-06
0.000122005
0.000338821
0.000273521
0.000225538
0.000200308
0.000175465
0.000152487
0.000132195
0.000114454
9.87504e-05
8.49668e-05
7.28985e-05
6.2362e-05
5.31665e-05
4.51746e-05
3.82371e-05
3.22277e-05
2.70624e-05
2.26185e-05
1.88345e-05
1.56124e-05
1.28798e-05
1.0576e-05
8.63277e-06
7.00136e-06
5.63303e-06
4.49259e-06
3.54317e-06
2.75727e-06
2.11133e-06
1.58617e-06
1.16616e-06
8.39814e-07
6.04421e-07
4.62594e-07
4.10417e-07
4.20589e-07
4.60219e-07
4.99925e-07
5.34364e-07
5.58626e-07
5.72648e-07
5.81089e-07
5.79605e-07
5.74901e-07
5.64323e-07
5.52502e-07
5.37027e-07
5.22377e-07
5.0598e-07
4.89724e-07
4.74734e-07
4.58831e-07
4.46488e-07
4.30513e-07
4.24139e-07
4.01278e-07
4.15211e-07
3.70721e-07
4.47461e-07
3.94468e-07
7.81686
12.6295
12.293
10.341
7.98074
5.68076
3.68531
2.1021
0.968455
0.292662
0.0612247
0.0136985
0.00280131
8.73907e-06
7.88975e-05
0.000302208
0.000250634
0.000199006
0.000174747
0.000153585
0.000133054
0.000115045
9.92736e-05
8.54222e-05
7.32823e-05
6.26903e-05
5.34494e-05
4.54139e-05
3.84407e-05
3.23973e-05
2.72032e-05
2.27354e-05
1.89294e-05
1.5693e-05
1.29476e-05
1.06346e-05
8.68507e-06
7.04871e-06
5.67665e-06
4.53343e-06
3.58242e-06
2.79508e-06
2.14791e-06
1.62215e-06
1.20133e-06
8.72999e-07
6.34658e-07
4.85735e-07
4.22452e-07
4.21853e-07
4.54656e-07
4.90419e-07
5.22913e-07
5.46338e-07
5.60012e-07
5.68773e-07
5.67803e-07
5.63766e-07
5.53851e-07
5.4292e-07
5.28222e-07
5.1436e-07
4.98911e-07
4.83275e-07
4.69122e-07
4.53846e-07
4.42232e-07
4.26582e-07
4.21279e-07
3.97725e-07
4.14256e-07
3.66082e-07
4.48369e-07
3.92645e-07
5.37974
12.2697
14.3254
13.1894
10.889
8.32996
5.91599
3.84007
2.19195
1.00928
0.30705
0.0623883
0.0121606
0.00283975
5.29234e-06
2.4511e-05
0.000245591
0.000228607
0.000176728
0.000152214
0.000133866
0.00011593
9.98425e-05
8.59072e-05
7.37283e-05
6.30722e-05
5.37734e-05
4.56885e-05
3.8677e-05
3.26009e-05
2.73683e-05
2.28767e-05
1.90421e-05
1.57881e-05
1.30298e-05
1.07047e-05
8.74806e-06
7.10568e-06
5.72944e-06
4.58258e-06
3.62964e-06
2.8405e-06
2.19203e-06
1.66549e-06
1.24336e-06
9.13453e-07
6.72411e-07
5.14748e-07
4.39665e-07
4.28065e-07
4.5115e-07
4.8224e-07
5.11841e-07
5.34214e-07
5.48017e-07
5.55499e-07
5.55865e-07
5.52032e-07
5.43319e-07
5.32891e-07
5.19521e-07
5.05913e-07
4.91681e-07
4.76876e-07
4.6341e-07
4.48952e-07
4.37964e-07
4.22764e-07
4.18507e-07
3.94399e-07
4.13287e-07
3.61935e-07
4.48707e-07
3.91135e-07
3.75813
10.5299
14.5167
14.9397
13.3832
11.0188
8.46906
6.05882
3.96435
2.28258
1.06446
0.334245
0.0667439
0.0122254
0.00342604
1.38454e-06
1.81962e-05
0.000184411
0.000208422
0.000158839
0.000132295
0.000116365
0.000100996
8.66514e-05
7.42484e-05
6.35521e-05
5.42092e-05
4.60529e-05
3.89776e-05
3.28538e-05
2.75761e-05
2.30496e-05
1.91818e-05
1.59029e-05
1.31266e-05
1.07865e-05
8.81975e-06
7.16957e-06
5.78781e-06
4.63633e-06
3.68043e-06
2.88884e-06
2.23858e-06
1.71063e-06
1.28689e-06
9.55237e-07
7.10769e-07
5.45903e-07
4.60072e-07
4.37315e-07
4.50756e-07
4.76481e-07
5.02812e-07
5.23712e-07
5.37211e-07
5.43884e-07
5.45093e-07
5.41531e-07
5.33826e-07
5.23909e-07
5.11652e-07
4.9847e-07
4.8523e-07
4.71227e-07
4.58393e-07
4.4466e-07
4.3426e-07
4.19423e-07
4.16155e-07
3.91437e-07
4.12564e-07
3.58001e-07
4.49235e-07
3.89693e-07
2.89462
8.61778
13.4017
15.3603
15.0107
13.3299
11.0356
8.57023
6.20693
4.1182
2.41313
1.15667
0.385611
0.0785074
0.0145147
0.00450566
4.09513e-05
1.31409e-05
0.000111914
0.000183752
0.000144606
0.000115026
0.000100172
8.77564e-05
7.53166e-05
6.41586e-05
5.46485e-05
4.64597e-05
3.93368e-05
3.31496e-05
2.78147e-05
2.3244e-05
1.93407e-05
1.60321e-05
1.32332e-05
1.08759e-05
8.8969e-06
7.23767e-06
5.84958e-06
4.69301e-06
3.73328e-06
2.93881e-06
2.28635e-06
1.75647e-06
1.33097e-06
9.97118e-07
7.48761e-07
5.77945e-07
4.82382e-07
4.48526e-07
4.52829e-07
4.72711e-07
4.9553e-07
5.14621e-07
5.2731e-07
5.33772e-07
5.35324e-07
5.32134e-07
5.25183e-07
5.15856e-07
5.04448e-07
4.919e-07
4.79453e-07
4.66165e-07
4.53948e-07
4.40833e-07
4.31005e-07
4.1644e-07
4.14092e-07
3.88724e-07
4.11976e-07
3.54169e-07
4.49881e-07
3.88263e-07
2.47996
6.95803
11.6367
14.6129
15.5278
14.8661
13.2203
11.055
8.70493
6.40898
4.3376
2.61014
1.30589
0.473557
0.105353
0.0189554
0.000861168
0.000566095
7.27669e-06
3.77449e-05
0.000149134
0.000140601
0.000103614
8.51982e-05
7.49419e-05
6.51699e-05
5.54972e-05
4.6944e-05
3.9686e-05
3.34644e-05
2.80879e-05
2.34633e-05
1.95136e-05
1.61704e-05
1.33466e-05
1.09707e-05
8.97797e-06
7.30852e-06
5.91332e-06
4.7515e-06
3.78756e-06
2.98992e-06
2.33501e-06
1.80298e-06
1.37551e-06
1.03925e-06
7.87163e-07
6.1065e-07
5.06205e-07
4.61757e-07
4.57098e-07
4.70784e-07
4.89788e-07
5.06779e-07
5.18401e-07
5.24622e-07
5.26292e-07
5.23436e-07
5.17095e-07
5.08348e-07
4.97655e-07
4.85791e-07
4.7403e-07
4.61368e-07
4.49753e-07
4.37168e-07
4.27927e-07
4.13572e-07
4.1207e-07
3.8606e-07
4.11294e-07
3.50372e-07
4.50328e-07
3.86829e-07
2.34724
5.62115
9.71569
13.0785
14.9687
15.387
14.6507
13.1206
11.1167
8.90289
6.69033
4.64549
2.89559
1.53159
0.616052
0.158982
0.0291234
0.00383648
0.000952791
1.88559e-06
1.04232e-05
8.05709e-05
0.000127969
0.00010327
7.63262e-05
6.33238e-05
5.5363e-05
4.7729e-05
4.0335e-05
3.38397e-05
2.83509e-05
2.36947e-05
1.97132e-05
1.63289e-05
1.34698e-05
1.10699e-05
9.06195e-06
7.38213e-06
5.97936e-06
4.81173e-06
3.84311e-06
3.04201e-06
2.3845e-06
1.85024e-06
1.42062e-06
1.08197e-06
8.26378e-07
6.44395e-07
5.318e-07
4.77528e-07
4.63903e-07
4.71112e-07
4.859e-07
5.00471e-07
5.10814e-07
5.16486e-07
5.18105e-07
5.15457e-07
5.09607e-07
5.01355e-07
4.91295e-07
4.80042e-07
4.68893e-07
4.56787e-07
4.45722e-07
4.33602e-07
4.2492e-07
4.10743e-07
4.10002e-07
3.8338e-07
4.1042e-07
3.46597e-07
4.50458e-07
3.85353e-07
2.36584
4.57192
7.90863
11.1593
13.5795
14.878
15.0935
14.4056
13.0403
11.225
9.16964
7.06002
5.05556
3.28703
1.85574
0.835756
0.261686
0.0533695
0.00492372
0.00280799
0.000115951
4.5552e-06
8.90846e-06
7.63855e-05
9.61377e-05
7.45734e-05
5.60494e-05
4.65294e-05
4.03121e-05
3.44559e-05
2.88635e-05
2.398e-05
1.98928e-05
1.64814e-05
1.36065e-05
1.11837e-05
9.15326e-06
7.45803e-06
6.04651e-06
4.87336e-06
3.9003e-06
3.09545e-06
2.43493e-06
1.8982e-06
1.46635e-06
1.1254e-06
8.6642e-07
6.79421e-07
5.59325e-07
4.95994e-07
4.73491e-07
4.74021e-07
4.84158e-07
4.95957e-07
5.04721e-07
5.09579e-07
5.10946e-07
5.08333e-07
5.02845e-07
4.94968e-07
4.85454e-07
4.74705e-07
4.64087e-07
4.52479e-07
4.4189e-07
4.30184e-07
4.21989e-07
4.07965e-07
4.07895e-07
3.8071e-07
4.09341e-07
3.42858e-07
4.50286e-07
3.83777e-07
2.41415
3.75311
6.30838
9.15459
11.6845
13.5208
14.5205
14.69
14.1228
12.9593
11.3604
9.49134
7.5119
5.57029
3.79696
2.29918
1.16299
0.443667
0.109748
0.0163536
0.00145441
0.000830913
3.96372e-07
4.57935e-06
1.82149e-05
6.373e-05
7.03508e-05
5.39976e-05
4.07169e-05
3.35174e-05
2.87913e-05
2.4463e-05
2.03358e-05
1.67252e-05
1.37347e-05
1.12809e-05
9.24554e-06
7.54302e-06
6.12032e-06
4.93729e-06
3.95794e-06
3.14953e-06
2.48644e-06
1.94725e-06
1.51298e-06
1.1696e-06
9.07265e-07
7.15697e-07
5.88751e-07
5.16969e-07
4.8583e-07
4.79507e-07
4.84651e-07
4.9329e-07
5.00145e-07
5.03951e-07
5.04848e-07
5.02097e-07
4.96816e-07
4.89199e-07
4.8012e-07
4.69784e-07
4.59609e-07
4.4844e-07
4.38255e-07
4.26913e-07
4.19127e-07
4.05238e-07
4.05743e-07
3.78061e-07
4.08044e-07
3.39169e-07
4.49813e-07
3.82047e-07
2.34585
3.06204
4.89489
7.21676
9.5651
11.5901
13.0867
13.9524
14.1658
13.766
12.8354
11.4832
9.83419
8.02119
6.17707