/*--------------------------------*- C++ -*----------------------------------*\
| =========                 |                                                 |
| \\      /  F ield         | OpenFOAM: The Open Source CFD Toolbox           |
|  \\    /   O peration     | Version:  2312                                  |
|   \\  /    A nd           | Website:  www.openfoam.com                      |
|    \\/     M anipulation  |                                                 |
\*---------------------------------------------------------------------------*/
FoamFile
{
    version     2.0;
    format      ascii;
    arch        "LSB;label=32;scalar=64";
    class       volVectorField;
    location    "900";
    object      momentError;
}
// * * * * * * * * * * * * * * * * * * * * * * * * * * * * * * * * * * * * * //

dimensions      [0 1 -2 0 0 0 0];

internalField   nonuniform List<vector> 
11040
(
(0.0469991 -0.17468 -6.44756e-16)
(-0.0195444 -0.374028 -3.0781e-16)
(-0.0487015 -0.10131 4.72211e-15)
(0.00331453 0.0178189 6.67276e-16)
(0.0112253 -0.00359198 3.78258e-15)
(0.0129415 0.00453854 -2.49225e-15)
(0.0128407 0.00333957 -5.94238e-15)
(0.0132799 0.00316933 -1.11379e-15)
(0.0133009 0.00282656 -3.97848e-16)
(0.0127775 0.00244674 2.12913e-15)
(0.0124069 0.0019668 1.03307e-15)
(0.0122367 0.00175308 -5.72535e-16)
(0.0115927 0.00158283 -9.67706e-16)
(0.0107505 0.00124322 6.87113e-16)
(0.00993592 0.00101912 -4.02274e-16)
(0.00895765 0.000773785 -9.88087e-16)
(0.00822342 0.000602452 7.53771e-16)
(0.00726187 0.000487592 6.9812e-16)
(0.00630726 0.000375998 -2.55691e-16)
(0.00533021 0.000310668 -5.47486e-17)
(0.004289 0.000270866 5.8048e-16)
(0.00352343 0.000292783 -3.13078e-16)
(0.002708 0.000280987 2.6105e-16)
(0.00195404 0.000279855 1.32359e-16)
(0.00145262 0.000230504 -1.34425e-15)
(0.00115346 0.000177951 -1.01365e-15)
(0.00141457 -0.000283437 -4.83786e-16)
(0.00194477 -0.000477867 -3.4571e-16)
(0.00544433 -0.000230383 -1.13359e-15)
(0.00983608 0.00282773 4.9177e-16)
(0.0197261 -0.00238871 1.12815e-15)
(0.025661 0.000810712 2.4057e-15)
(0.0719195 0.0707556 2.96239e-15)
(0.204197 0.310283 -2.57192e-16)
(0.266584 0.318665 1.75434e-15)
(0.0532479 -0.17856 6.45618e-16)
(-0.0624489 -0.343024 1.22861e-15)
(0.0282237 -0.0375179 -1.40869e-16)
(0.0194325 -0.00467874 -1.11178e-15)
(0.0228804 0.000307182 -1.35027e-15)
(0.134011 -0.0075115 -1.30885e-15)
(0.00605679 0.0378984 7.97847e-16)
(-0.242915 -0.184308 2.88986e-15)
(-0.243577 -0.223635 6.2084e-15)
(-0.0405754 -0.0765095 -1.13707e-15)
(0.00558826 0.0179235 -4.18278e-16)
(0.0127178 0.00415096 -4.58505e-17)
(0.0130799 0.00378822 1.76503e-15)
(0.0125444 0.00226841 9.10253e-16)
(0.0140046 0.00263057 -1.63959e-16)
(0.013896 0.00252757 -7.90679e-16)
(0.0136491 0.0020108 1.72257e-15)
(0.0137673 0.00137531 1.21153e-15)
(0.0131139 0.00131242 1.32588e-15)
(0.0121527 0.000864483 -3.75413e-17)
(0.0111952 0.000557816 -2.3092e-16)
(0.0101351 0.000328235 4.25232e-16)
(0.00895616 8.86054e-05 3.85308e-16)
(0.00797362 -2.25951e-05 3.7374e-16)
(0.00683184 -0.000140832 -1.89482e-17)
(0.0056595 -0.000175729 -8.65819e-17)
(0.00427185 -0.000129178 -2.27764e-16)
(0.00314016 -4.94777e-05 3.6391e-16)
(0.0021215 1.57512e-05 2.33184e-16)
(0.00131645 5.91766e-05 3.20422e-16)
(0.000947106 4.37566e-05 -3.66977e-16)
(0.00140223 -0.000110101 -6.64848e-16)
(0.00288809 -0.000494136 7.03151e-16)
(0.00564784 -0.00120239 5.31879e-16)
(0.00918997 -0.00187027 -6.81354e-16)
(0.0145666 -0.00257983 -9.85741e-16)
(0.0141821 -0.00372582 -9.51777e-16)
(0.0177319 -0.00871127 -1.87013e-15)
(0.0148693 -0.0110019 -9.21839e-17)
(-0.000544568 -0.00698372 1.10962e-15)
(-0.0560616 -0.0317739 -7.57171e-16)
(-0.0356392 -0.0748781 1.8873e-16)
(0.0633925 -0.0249348 -1.1347e-16)
(0.081714 -0.0164489 8.53974e-16)
(0.0821851 -0.0166552 -6.37865e-16)
(0.0831296 -0.0162541 -4.77951e-16)
(0.195822 -0.0106422 1.15661e-16)
(0.00093366 -0.0810716 1.49504e-16)
(-0.134416 0.0398146 -1.32763e-15)
(-0.23145 -0.0809913 -7.60804e-15)
(-0.249587 -0.324231 2.80604e-15)
(-0.0982449 -0.139124 1.04709e-15)
(0.00126497 0.00927443 4.5706e-16)
(0.0126212 0.0084521 1.646e-15)
(0.0108281 0.00362493 3.82095e-16)
(0.00998745 0.0005786 -4.53553e-16)
(0.0112567 0.00139402 -9.13869e-17)
(0.0116664 0.00190405 -1.35918e-15)
(0.0122952 0.00122315 5.61222e-16)
(0.0118865 0.001479 -3.41564e-17)
(0.0109486 0.00110606 2.99255e-16)
(0.00995159 0.000799033 7.5247e-16)
(0.0087484 0.000635642 -1.81617e-17)
(0.00754933 0.000357441 -2.85055e-16)
(0.00629405 0.000226625 -5.97678e-17)
(0.00491201 7.5969e-05 8.17555e-18)
(0.00350377 3.63037e-05 1.46211e-16)
(0.0019785 7.49665e-05 2.66999e-16)
(0.000605787 0.000168817 -9.4958e-17)
(-0.000578784 0.000212805 1.25279e-16)
(-0.00145976 0.000209699 -2.93173e-16)
(-0.00179935 0.000100195 1.86857e-16)
(-0.00136311 -0.000175273 5.60143e-16)
(4.24586e-05 -0.00065781 -2.86665e-16)
(0.00251288 -0.00143688 -3.58829e-16)
(0.00618437 -0.00244943 1.84267e-16)
(0.0111393 -0.00356318 7.08227e-16)
(0.0179231 -0.00468983 -3.18047e-16)
(0.0274287 -0.00758013 -2.52225e-16)
(0.0399889 -0.0133376 -6.16085e-19)
(0.052906 -0.022254 1.36802e-16)
(0.0631692 -0.0342557 -5.80387e-16)
(0.0727827 -0.0344743 -1.47875e-15)
(0.0894073 -0.016396 6.35922e-17)
(0.109135 -0.0223259 5.22845e-16)
(0.114784 -0.0247919 8.06774e-17)
(0.12328 -0.0236204 8.19955e-16)
(0.241234 -0.0117339 1.32454e-16)
(-0.0230655 -0.0545782 -2.68659e-16)
(-0.0654309 -0.0373511 2.41364e-17)
(-0.088241 0.0618972 1.7356e-15)
(-0.184627 -0.0992661 -7.9328e-16)
(-0.272905 -0.312555 -1.56935e-15)
(-0.154194 -0.182741 2.55302e-15)
(-0.0177559 -0.0116425 9.47558e-16)
(0.0104845 0.00937977 3.92175e-16)
(0.00688779 0.00144485 -2.66341e-16)
(0.00842599 0.00085598 5.05912e-16)
(0.00798592 0.000294967 7.84474e-16)
(0.00936395 0.000252245 -8.9503e-16)
(0.00986822 0.00109885 7.67824e-16)
(0.00914887 0.00107474 4.18469e-16)
(0.00832803 0.00080427 1.12504e-16)
(0.00711319 0.000802892 -4.02659e-16)
(0.00580194 0.000562738 -3.77627e-16)
(0.00440525 0.000518864 -2.11199e-16)
(0.00289856 0.000401006 4.015e-17)
(0.00136712 0.000421342 -5.32444e-17)
(-0.000272217 0.000490121 -3.54487e-17)
(-0.00184741 0.000605745 -8.42213e-17)
(-0.00321508 0.000628139 -1.80597e-16)
(-0.00429893 0.00056711 -4.91895e-18)
(-0.00488963 0.000353335 -7.71916e-16)
(-0.00477665 -6.78943e-05 -3.21935e-16)
(-0.0037298 -0.000708029 3.97748e-16)
(-0.00153601 -0.00166269 2.66326e-16)
(0.00201866 -0.00292707 6.30299e-16)
(0.00714772 -0.00439131 -3.84555e-16)
(0.0144781 -0.0057599 5.01467e-16)
(0.0250346 -0.00776291 -5.50265e-16)
(0.0382778 -0.0120175 -4.52946e-16)
(0.0515506 -0.0194839 4.39286e-16)
(0.0638115 -0.0271289 -1.22066e-16)
(0.0777266 -0.0285868 -8.52715e-17)
(0.0959454 -0.0260426 -5.46358e-16)
(0.119973 -0.0283313 4.56412e-16)
(0.126774 -0.0345346 -2.1822e-16)
(0.155915 -0.0285558 -9.16262e-17)
(0.260904 -0.0172897 7.02437e-16)
(-0.0252139 -0.0359988 2.17353e-16)
(-0.0461274 -0.0463861 -1.39178e-16)
(-0.0757203 0.00812903 -1.34294e-16)
(-0.0818531 0.0906362 8.59759e-16)
(-0.169602 -0.0554458 1.94454e-16)
(-0.273197 -0.269874 -4.44275e-16)
(-0.208528 -0.221987 -5.92722e-16)
(-0.0603241 -0.0588656 -1.32611e-15)
(0.00705942 0.0143338 2.69727e-16)
(0.0053915 0.00365421 -9.42825e-17)
(0.00585922 0.000888646 4.34057e-16)
(0.00533227 -0.00142368 1.96587e-16)
(0.00688322 3.90531e-05 -3.74455e-16)
(0.00702565 0.000941515 -6.14097e-16)
(0.00665021 0.000709172 2.01758e-16)
(0.0057047 0.000977436 4.6913e-18)
(0.00450792 0.000762147 -1.65307e-16)
(0.00313807 0.000795507 -2.39668e-16)
(0.00160757 0.000698616 -4.54345e-17)
(6.26774e-06 0.000766921 4.81169e-17)
(-0.00174385 0.000859643 1.33669e-16)
(-0.00352053 0.000992007 -2.61079e-16)
(-0.00511545 0.000990309 -5.5541e-17)
(-0.00646832 0.000880638 4.20123e-16)
(-0.00737899 0.000576594 2.4585e-16)
(-0.00761865 1.73321e-05 -2.53303e-16)
(-0.00691784 -0.000818667 2.48306e-16)
(-0.00500539 -0.00202551 1.91231e-16)
(-0.00162987 -0.00359986 -3.66554e-16)
(0.00345387 -0.00546328 2.22313e-16)
(0.0107236 -0.00739394 -3.34677e-17)
(0.0210765 -0.00998288 7.51352e-16)
(0.0339034 -0.0145927 1.75194e-16)
(0.0471617 -0.0219288 -6.32672e-17)
(0.0605768 -0.0288045 1.38778e-16)
(0.0764325 -0.0314801 2.96856e-16)
(0.0960021 -0.0326333 -1.24522e-16)
(0.121902 -0.0341386 2.07831e-16)
(0.137591 -0.04151 8.12678e-17)
(0.166538 -0.0375751 -2.28056e-16)
(0.259333 -0.0257092 -2.09405e-16)
(-0.0295058 -0.0311924 -3.81399e-17)
(-0.0339512 -0.0258892 2.57238e-17)
(-0.0586779 -0.0287622 6.3831e-17)
(-0.0697474 0.0315975 2.44939e-16)
(-0.0695633 0.098407 -9.07155e-16)
(-0.141347 -0.00442067 1.15376e-16)
(-0.252674 -0.202843 -5.51405e-16)
(-0.247074 -0.229848 -8.78252e-16)
(-0.122348 -0.120146 1.61176e-16)
(-0.010732 -0.0018821 -3.07583e-16)
(0.00657594 0.00910209 2.0442e-17)
(0.0026938 7.72946e-05 6.25452e-18)
(0.00405128 -2.64911e-05 -2.19353e-17)
(0.00382576 -0.00029733 -3.27372e-16)
(0.004434 0.000213684 1.36594e-17)
(0.00439573 0.00114275 -1.82826e-16)
(0.00349865 0.000966722 -1.08401e-16)
(0.00236485 0.00112652 -8.53105e-17)
(0.000939517 0.00105335 -3.93118e-17)
(-0.000640076 0.00116325 5.6412e-17)
(-0.0024573 0.00127066 5.10622e-17)
(-0.00439616 0.00141799 3.16228e-17)
(-0.00620893 0.00138324 -3.86587e-18)
(-0.00782812 0.00121509 -1.75471e-16)
(-0.00905375 0.000804082 1.26301e-16)
(-0.00964132 8.58337e-05 4.83832e-16)
(-0.00930736 -0.000979096 -4.05521e-16)
(-0.00775626 -0.00247487 -4.62199e-16)
(-0.00471055 -0.00439362 -1.66772e-16)
(0.000102504 -0.0066797 1.81351e-16)
(0.00700217 -0.0092419 3.54885e-16)
(0.0166829 -0.0126822 -1.14795e-16)
(0.0286778 -0.0179091 -2.41873e-16)
(0.0416113 -0.025147 -3.67376e-16)
(0.0555268 -0.0319035 -1.46409e-16)
(0.0718743 -0.0359585 5.81994e-16)
(0.0915406 -0.0390016 2.88338e-16)
(0.117377 -0.0409207 -4.48712e-17)
(0.138253 -0.0487514 4.32493e-16)
(0.165656 -0.0461232 -2.85549e-16)
(0.242539 -0.0378554 -1.91403e-16)
(-0.0271209 -0.0253393 6.80146e-17)
(-0.0315271 -0.0195845 -3.5272e-17)
(-0.0372783 -0.0182023 -9.40488e-17)
(-0.0555032 -0.0176789 -4.03391e-16)
(-0.0600293 0.0334465 -3.44907e-16)
(-0.0565592 0.0990292 3.03523e-16)
(-0.108104 0.0528145 3.78893e-16)
(-0.215923 -0.135117 -1.13672e-16)
(-0.27859 -0.268489 8.23463e-16)
(-0.178856 -0.154062 -4.57499e-16)
(-0.0629891 -0.0549026 2.43243e-16)
(0.00369044 0.00998638 -6.40908e-17)
(0.000421137 0.00240514 5.94904e-16)
(0.00129391 0.000314848 -6.5112e-16)
(0.00177102 -5.21336e-05 1.33486e-16)
(0.00201403 0.000307671 -1.6379e-16)
(0.00211247 0.000845284 -8.29336e-18)
(0.00177983 0.00144379 8.46684e-17)
(0.000636478 0.00143343 -1.96851e-18)
(-0.000761588 0.0016202 -1.89471e-16)
(-0.00254385 0.00175042 1.86324e-16)
(-0.00457406 0.00192504 -1.46329e-16)
(-0.00657053 0.00185724 -1.24483e-16)
(-0.00843932 0.00162757 2.0087e-16)
(-0.00997882 0.00109718 -1.36044e-16)
(-0.0109309 0.000201276 -1.47445e-16)
(-0.0110142 -0.00111842 -1.0928e-16)
(-0.00992423 -0.00293547 -8.58329e-17)
(-0.0073608 -0.00523892 -5.49339e-18)
(-0.00303508 -0.00799538 1.75901e-16)
(0.00324621 -0.011183 6.55508e-17)
(0.011954 -0.0154625 1.63038e-16)
(0.0228374 -0.02127 -2.21396e-16)
(0.035073 -0.0284691 -3.77478e-16)
(0.0487965 -0.0353863 -1.94083e-16)
(0.0647562 -0.0407857 4.26806e-16)
(0.0836939 -0.0452856 1.46017e-17)
(0.107926 -0.0483769 -8.73643e-18)
(0.13073 -0.055922 1.77499e-16)
(0.157046 -0.0512168 2.49833e-16)
(0.217192 -0.0550411 -1.78148e-16)
(-0.0242974 -0.0195837 -2.26955e-17)
(-0.0285815 -0.0161846 7.068e-17)
(-0.0290274 -0.0103881 -2.00937e-17)
(-0.0390701 -0.0119996 7.86606e-18)
(-0.0514079 -0.0090613 1.31188e-16)
(-0.0533431 0.0297953 6.08113e-16)
(-0.0431257 0.0912393 -4.8949e-16)
(-0.0583397 0.068232 -8.10799e-16)
(-0.139228 -0.0081371 1.54126e-16)
(-0.25891 -0.177572 4.42719e-16)
(-0.233739 -0.20588 1.46193e-15)
(-0.126275 -0.0992316 -1.63179e-15)
(-0.0310227 -0.0168838 6.66296e-16)
(0.00262074 0.00949653 -1.49246e-16)
(-0.00135829 0.00184259 -3.96645e-16)
(-0.000206929 0.000696132 4.59162e-16)
(3.97256e-06 0.000531042 3.01952e-17)
(0.000179568 0.000938579 3.69143e-16)
(-2.21664e-05 0.0015263 -2.21877e-16)
(-0.000736251 0.0020454 -2.09452e-16)
(-0.00226467 0.00226159 2.69658e-16)
(-0.00423902 0.00251893 -7.7929e-17)
(-0.00633754 0.0024462 -1.82262e-16)
(-0.00842156 0.00217523 5.68869e-17)
(-0.0102945 0.00153171 7.63082e-17)
(-0.0116703 0.000450586 -6.09556e-17)
(-0.012259 -0.00113821 -1.03843e-16)
(-0.0117547 -0.00329758 2.35219e-16)
(-0.00985101 -0.00602995 2.65962e-16)
(-0.00624273 -0.00931178 -1.49301e-16)
(-0.000763404 -0.0131088 -2.2822e-16)
(0.00669987 -0.0181401 -8.76632e-17)
(0.0162435 -0.0244904 1.71741e-16)
(0.0274288 -0.0318097 1.02746e-16)
(0.0403506 -0.0390951 -3.94565e-17)
(0.0553018 -0.0456652 -1.21235e-16)
(0.0728401 -0.0514615 2.70963e-16)
(0.0944092 -0.0560066 -2.71917e-16)
(0.116637 -0.063319 5.34841e-17)
(0.1418 -0.063399 6.27661e-17)
(0.190534 -0.0655764 1.83893e-16)
(-0.0210891 -0.0148057 -4.58305e-17)
(-0.0249391 -0.0123268 1.27389e-17)
(-0.0248602 -0.0083491 -1.43335e-17)
(-0.028856 -0.0057901 -1.69053e-16)
(-0.0377278 -0.00569173 6.11239e-17)
(-0.0468854 -0.00326016 -6.00693e-18)
(-0.0483104 0.0229459 -1.30262e-16)
(-0.0380966 0.0810394 4.98674e-16)
(-0.04884 0.102644 -2.28398e-16)
(-0.0937938 0.0254977 6.56247e-16)
(-0.198254 -0.0942699 4.45067e-17)
(-0.229226 -0.146005 -2.96072e-16)
(-0.193981 -0.152014 9.06153e-17)
(-0.0874204 -0.057712 -2.96146e-16)
(-0.0153785 -0.00122735 -4.22718e-16)
(0.000196226 0.00727428 4.27402e-17)
(-0.00247834 0.00169011 1.84569e-16)
(-0.00155579 0.001133 3.03374e-16)
(-0.00146556 0.00126304 -3.76013e-17)
(-0.00161277 0.00176103 -2.53642e-16)
(-0.00228536 0.0025037 2.40249e-16)
(-0.00372877 0.00310412 1.26185e-17)
(-0.00571688 0.00313442 -4.37657e-17)
(-0.00791281 0.0028873 1.03981e-16)
(-0.0100961 0.00217586 1.40107e-16)
(-0.0119487 0.000939979 1.79496e-16)
(-0.0131704 -0.000903761 3.24907e-17)
(-0.0134403 -0.00342729 1.58169e-17)
(-0.0124299 -0.00663372 -1.14217e-16)
(-0.00981462 -0.0104967 6.17797e-18)
(-0.00540377 -0.0149609 -1.3411e-16)
(0.000620609 -0.0205814 4.12772e-17)
(0.00857758 -0.0274846 -6.44508e-17)
(0.0183398 -0.0351257 -8.39023e-17)
(0.0299138 -0.0429354 5.76787e-17)
(0.043339 -0.0504857 8.42859e-17)
(0.0588994 -0.0574409 3.198e-17)
(0.077181 -0.0633296 1.66504e-17)
(0.0969459 -0.0704142 -8.9226e-17)
(0.118998 -0.0735396 1.64128e-16)
(0.155672 -0.0752327 2.83778e-17)
(-0.0178907 -0.0107328 1.52506e-16)
(-0.0212623 -0.00901254 -4.48868e-17)
(-0.0215328 -0.00614755 -1.45012e-16)
(-0.0229349 -0.00400726 1.68839e-16)
(-0.028054 -0.0018059 1.01974e-17)
(-0.0348558 -0.000648996 1.99217e-17)
(-0.0415114 0.000954884 4.52405e-16)
(-0.0431441 0.0173629 -8.78588e-16)
(-0.0334846 0.0590478 -2.03654e-16)
(-0.0291731 0.095388 1.53675e-15)
(-0.0462081 0.115603 3.752e-17)
(-0.143856 -0.0360752 -1.24348e-16)
(-0.192449 -0.121424 -6.77747e-16)
(-0.224877 -0.150449 4.55589e-16)
(-0.152091 -0.108018 -1.07928e-15)
(-0.065701 -0.0392588 2.3453e-16)
(-0.0103658 0.00280622 -4.61609e-17)
(-0.00185937 0.00585168 2.66812e-16)
(-0.00340995 0.00200707 -1.12731e-16)
(-0.00273618 0.00186487 -2.93085e-16)
(-0.00293493 0.00238694 1.85847e-16)
(-0.00384618 0.00311829 -6.10039e-17)
(-0.0052811 0.00358877 -8.35512e-17)
(-0.00719314 0.00365786 1.17319e-16)
(-0.00949061 0.00305519 1.09421e-16)
(-0.0117762 0.0017732 -1.00849e-16)
(-0.0137028 -0.000270806 5.66668e-17)
(-0.0149116 -0.00312419 1.12312e-16)
(-0.0150531 -0.00680529 4.61009e-17)
(-0.013783 -0.0112919 -6.2749e-17)
(-0.0108757 -0.0165281 5.4319e-17)
(-0.00650513 -0.0226417 7.07018e-17)
(-0.000484963 -0.0301669 6.80888e-17)
(0.00741174 -0.0383163 6.523e-17)
(0.0170816 -0.0467689 1.29674e-16)
(0.0284445 -0.0551307 -1.44911e-16)
(0.0414911 -0.0629997 5.0301e-17)
(0.0561002 -0.0697658 7.64487e-18)
(0.0719835 -0.0767404 8.23475e-18)
(0.0892557 -0.0808151 -2.1599e-17)
(0.114296 -0.0819415 -2.71408e-17)
(-0.0148842 -0.00742319 2.99176e-17)
(-0.017704 -0.00618044 1.06051e-16)
(-0.0181847 -0.00421039 8.69345e-17)
(-0.0192357 -0.00251765 -4.04785e-17)
(-0.0211175 -0.000722254 -4.7626e-17)
(-0.026046 0.00152116 1.138e-16)
(-0.0314096 0.00367557 9.22509e-17)
(-0.0365872 0.00538926 -2.7511e-16)
(-0.0382959 0.0140262 3.68013e-16)
(-0.0313837 0.0417266 -5.50316e-16)
(-0.0229239 0.0707474 -1.11692e-15)
(-0.0160882 0.0954855 -2.64603e-16)
(-0.0666746 0.0561667 3.9699e-16)
(-0.140436 -0.0390777 -4.73725e-16)
(-0.200616 -0.116247 -4.4519e-16)
(-0.197277 -0.130687 6.15881e-16)
(-0.12763 -0.0800078 -1.17712e-16)
(-0.0546784 -0.027946 6.67757e-16)
(-0.0103849 0.00400419 5.80074e-17)
(-0.00311794 0.00586976 -3.62902e-16)
(-0.00424335 0.00295584 4.08205e-17)
(-0.00438032 0.00320038 -3.50919e-17)
(-0.00523126 0.00371967 -1.93972e-17)
(-0.00675871 0.00403578 -1.04039e-16)
(-0.0088331 0.00381344 2.35176e-16)
(-0.0112382 0.00283628 -1.43234e-17)
(-0.0137153 0.000877503 -8.87109e-17)
(-0.015887 -0.00211817 4.7203e-19)
(-0.0173749 -0.00618424 -3.27109e-17)
(-0.0178019 -0.0113044 2.6431e-17)
(-0.0168291 -0.0173411 -1.43865e-16)
(-0.0143056 -0.024045 2.55269e-17)
(-0.0108418 -0.0321046 8.76023e-17)
(-0.00551559 -0.0410058 1.28002e-16)
(0.00153794 -0.0502391 9.15814e-17)
(0.0101721 -0.0592989 -9.11721e-17)
(0.0201225 -0.0677625 -1.07635e-16)
(0.0308056 -0.0747847 -7.32698e-17)
(0.0420893 -0.0811677 -1.88067e-16)
(0.0535978 -0.0844082 -1.84938e-16)
(0.0683326 -0.0840293 -1.12073e-16)
(-0.0121318 -0.00480987 7.90675e-17)
(-0.0144504 -0.00386012 8.30861e-17)
(-0.014976 -0.00250593 -1.51456e-16)
(-0.0160594 -0.0012232 -4.40562e-17)
(-0.0169783 0.000181011 1.25867e-16)
(-0.0195043 0.00182014 -3.58399e-17)
(-0.0233563 0.0042417 -1.02576e-16)
(-0.0273167 0.00679093 3.51788e-17)
(-0.0310937 0.00847654 1.01199e-15)
(-0.0331386 0.012835 -3.48229e-16)
(-0.0292252 0.0293735 -8.44352e-16)
(-0.0190879 0.0585561 1.02644e-15)
(-0.00916452 0.0877758 4.84356e-16)
(-0.0217382 0.0847103 6.61476e-17)
(-0.0695698 0.0298843 1.33723e-16)
(-0.152226 -0.0488567 -3.49055e-16)
(-0.173699 -0.0842679 -1.16216e-16)
(-0.176528 -0.109586 2.21391e-16)
(-0.111363 -0.060515 5.20664e-16)
(-0.0506333 -0.022049 -7.24218e-16)
(-0.0126599 0.00405268 2.38296e-17)
(-0.00534544 0.00702977 -2.04414e-17)
(-0.00578677 0.00507411 -6.26067e-17)
(-0.00679959 0.00444253 -3.76795e-17)
(-0.00825019 0.00432911 1.66754e-16)
(-0.0104082 0.00378081 8.467e-17)
(-0.0131475 0.0022487 -1.5188e-16)
(-0.0160493 -0.000443641 -7.44304e-17)
(-0.0188018 -0.0044394 2.81516e-17)
(-0.0210375 -0.00979697 -3.21167e-17)
(-0.0223345 -0.0163805 5.87852e-17)
(-0.022415 -0.0239551 -3.08078e-17)
(-0.0214845 -0.0324138 5.20209e-17)
(-0.019705 -0.0421522 -1.23706e-17)
(-0.0162645 -0.0522338 -1.11967e-16)
(-0.01137 -0.0619751 -2.34754e-17)
(-0.00538589 -0.0708898 2.20263e-17)
(0.00135788 -0.077656 6.43822e-17)
(0.00799902 -0.0828528 -2.09099e-17)
(0.0137546 -0.0841495 -4.56398e-17)
(0.0204242 -0.0811899 -1.67912e-17)
(-0.0097247 -0.00281952 -6.52041e-17)
(-0.0115708 -0.00206267 4.22656e-17)
(-0.0120595 -0.00110793 -8.15864e-18)
(-0.0130575 -0.000145063 -1.43714e-16)
(-0.0139352 0.000972725 1.55027e-17)
(-0.0149695 0.00217666 6.99556e-17)
(-0.0174016 0.0038292 -1.2122e-16)
(-0.0203089 0.00622893 -2.17215e-16)
(-0.0231789 0.00890346 2.00787e-17)
(-0.0259303 0.0108797 -2.76371e-16)
(-0.0278869 0.0129941 3.94935e-16)
(-0.0265175 0.0206628 5.27143e-17)
(-0.019425 0.0392882 -2.57122e-16)
(-0.00824631 0.0655426 -2.83192e-16)
(-0.00668058 0.0765078 3.30392e-16)
(0.000960174 0.108411 4.4707e-16)
(-0.0802003 0.00904823 -1.50596e-15)
(-0.13604 -0.0503608 1.22688e-15)
(-0.155041 -0.0640225 1.96962e-16)
(-0.154535 -0.0886065 -5.23083e-16)
(-0.103094 -0.0501684 3.46377e-16)
(-0.0554854 -0.0217536 -1.08731e-16)
(-0.0217432 0.00176769 -9.77186e-17)
(-0.0113121 0.00849302 -5.64248e-17)
(-0.0097709 0.007941 2.67161e-16)
(-0.0101889 0.00590293 1.05597e-17)
(-0.0119462 0.00393323 -3.11585e-17)
(-0.0149708 0.00162543 -1.83717e-16)
(-0.0185242 -0.00178858 1.11253e-16)
(-0.022269 -0.00665169 2.06868e-16)
(-0.0258595 -0.0130781 -1.95552e-17)
(-0.0289088 -0.0208952 -7.20777e-17)
(-0.0309806 -0.0296571 -2.67801e-17)
(-0.0326085 -0.0393467 -6.9999e-18)
(-0.0339304 -0.0503404 -1.14342e-16)
(-0.033946 -0.0611436 4.12559e-17)
(-0.0329014 -0.0707103 -1.85281e-18)
(-0.0306552 -0.0771526 -5.14744e-17)
(-0.0288328 -0.0811135 4.15278e-18)
(-0.0276208 -0.0803574 3.90798e-17)
(-0.0260575 -0.0748791 4.53192e-17)
(-0.00766413 -0.00135939 7.59538e-17)
(-0.00909546 -0.000728575 -5.77885e-17)
(-0.00950937 -4.43343e-05 -6.88321e-17)
(-0.0103528 0.000707249 -2.24972e-17)
(-0.0111381 0.00156885 1.64911e-16)
(-0.0118464 0.0024991 -2.01294e-17)
(-0.0128611 0.00364349 6.06636e-17)
(-0.0150178 0.00532481 1.74676e-16)
(-0.0171374 0.00754035 7.23409e-17)
(-0.0191768 0.0101042 -5.32556e-16)
(-0.0210937 0.0124 -2.883e-16)
(-0.0225829 0.0140779 -8.88811e-17)
(-0.0225742 0.0172984 -5.27827e-16)
(-0.0188943 0.0265325 3.94809e-16)
(-0.0098132 0.0449739 1.40085e-15)
(-0.00526401 0.0539514 -7.55522e-16)
(0.00399697 0.0655118 -2.05125e-16)
(0.0115129 0.105323 3.02421e-16)
(-0.0724522 0.0116386 -3.35562e-16)
(-0.112199 -0.0358084 9.56741e-16)
(-0.131734 -0.0469826 -1.74961e-16)
(-0.142473 -0.0716301 -4.80589e-16)
(-0.112577 -0.0496154 -7.02765e-16)
(-0.0761916 -0.0294113 3.5347e-16)
(-0.0431944 -0.00703286 3.92989e-16)
(-0.0256104 0.00528585 3.61082e-17)
(-0.0195551 0.00885355 3.27507e-17)
(-0.0186122 0.00731475 1.66559e-17)
(-0.019942 0.00342463 1.36499e-17)
(-0.0226966 -0.00171672 1.01268e-16)
(-0.0261251 -0.00767936 8.0131e-17)
(-0.0305238 -0.0144252 -1.46935e-16)
(-0.0360288 -0.022949 1.86327e-17)
(-0.0408694 -0.0322757 -2.09463e-17)
(-0.0462005 -0.0425308 -6.95062e-17)
(-0.0521879 -0.0532376 5.63199e-18)
(-0.0569818 -0.0636645 1.11472e-16)
(-0.0602006 -0.070846 -5.8724e-17)
(-0.0633948 -0.0749038 -3.30994e-17)
(-0.0664052 -0.0736743 -1.9673e-17)
(-0.0683363 -0.0666538 1.27969e-17)
(-0.0059431 -0.000336775 -2.56457e-17)
(-0.00701569 0.000204644 4.42647e-17)
(-0.00733469 0.000708651 1.75605e-17)
(-0.00800726 0.00131053 8.49126e-17)
(-0.00865692 0.00198912 -7.72685e-17)
(-0.00926147 0.00272893 3.59017e-17)
(-0.00983595 0.00354294 2.74767e-18)
(-0.0109951 0.00475374 -4.66805e-17)
(-0.0125407 0.00634177 1.81443e-16)
(-0.0140491 0.00828951 1.69459e-16)
(-0.0154204 0.0105802 -4.67466e-16)
(-0.0165763 0.0128264 8.3978e-16)
(-0.0175824 0.0145663 7.46116e-16)
(-0.0180201 0.0162159 -7.38869e-16)
(-0.0165474 0.0200022 -4.64015e-16)
(-0.0108879 0.0303028 -3.54505e-16)
(-0.0025065 0.0457819 8.24718e-16)
(0.000104659 0.0497189 -8.00578e-16)
(0.00880839 0.0577882 1.77614e-16)
(0.016963 0.091088 3.98166e-16)
(-0.0523604 0.0191877 -2.68414e-16)
(-0.083918 -0.0127563 -2.7656e-16)
(-0.111246 -0.0305709 1.25547e-16)
(-0.126329 -0.0515849 1.8455e-16)
(-0.120984 -0.0490023 -3.05266e-16)
(-0.101128 -0.0385559 6.93502e-17)
(-0.0751554 -0.0217534 2.87885e-16)
(-0.0536932 -0.00814266 -5.041e-16)
(-0.0409214 0.000119262 1.37517e-16)
(-0.0362352 0.00183901 1.44206e-16)
(-0.0361482 -0.00114785 -4.20895e-17)
(-0.0387034 -0.00718054 -1.35516e-16)
(-0.042829 -0.0149651 4.21633e-17)
(-0.0475077 -0.0234275 1.75928e-16)
(-0.0522931 -0.0318201 2.69308e-17)
(-0.0575507 -0.0401713 -5.59414e-18)
(-0.0659677 -0.0486683 -5.20174e-17)
(-0.0766526 -0.0571252 -3.09818e-17)
(-0.0861434 -0.062637 -6.92261e-17)
(-0.0947876 -0.0631569 1.80136e-17)
(-0.10105 -0.0576446 5.08343e-17)
(-0.00453273 0.000330574 -3.52651e-17)
(-0.00531088 0.000809276 4.3268e-17)
(-0.00553023 0.00119061 -3.5907e-17)
(-0.00603311 0.00168132 -1.46013e-16)
(-0.00653236 0.00222632 3.27676e-17)
(-0.00702028 0.00281603 -5.42009e-17)
(-0.0074789 0.003476 -4.36539e-17)
(-0.00800387 0.00427422 3.03779e-17)
(-0.00900777 0.00545577 -5.01664e-17)
(-0.0100989 0.00689788 8.33984e-18)
(-0.0111131 0.00856845 -3.11842e-16)
(-0.0119271 0.0104569 2.85173e-16)
(-0.0125693 0.0124731 -2.11899e-16)
(-0.0130856 0.0142457 -6.91315e-16)
(-0.0134032 0.0155438 9.38055e-16)
(-0.0129943 0.0170128 3.68854e-16)
(-0.0105523 0.0207692 2.04607e-16)
(-0.00456275 0.0297405 -6.89898e-18)
(0.00310206 0.0418962 -1.86691e-16)
(0.00575325 0.0438918 -1.51839e-16)
(0.0118175 0.0530866 -7.14653e-17)
(0.0206271 0.0748735 1.93074e-16)
(-0.0226576 0.0333826 -3.9497e-16)
(-0.0400291 0.0100771 -1.40648e-17)
(-0.0882329 -0.0143715 1.59934e-16)
(-0.0836066 -0.0165063 -1.54376e-16)
(-0.0998733 -0.0299665 -4.02078e-16)
(-0.0999246 -0.0331155 5.01853e-16)
(-0.092573 -0.028258 5.15811e-16)
(-0.0817535 -0.0229429 -4.00557e-16)
(-0.0708323 -0.017432 -1.16253e-16)
(-0.0637846 -0.0148246 -6.44984e-17)
(-0.0615526 -0.0160595 -8.42825e-17)
(-0.0629103 -0.0205032 2.84411e-16)
(-0.0668432 -0.02695 -1.02989e-16)
(-0.0724405 -0.0340937 -4.71503e-17)
(-0.0788763 -0.0406955 6.85775e-17)
(-0.0840225 -0.0452895 -4.29083e-18)
(-0.091564 -0.0488967 7.29401e-17)
(-0.0982086 -0.0490585 6.07277e-17)
(-0.108056 -0.0477117 5.97537e-19)
(-0.00337165 0.000759224 3.11116e-18)
(-0.00392101 0.00118212 5.36123e-17)
(-0.00405481 0.00147407 1.99818e-17)
(-0.00440882 0.0018762 -2.12793e-17)
(-0.00477036 0.00231575 -5.91069e-17)
(-0.00513302 0.00279085 -1.22776e-19)
(-0.0054869 0.00331997 4.64067e-17)
(-0.00582659 0.00390821 4.54104e-17)
(-0.00629825 0.00470364 -3.60297e-18)
(-0.00706861 0.0058105 -9.77569e-17)
(-0.00778808 0.00706212 -2.39058e-16)
(-0.0083917 0.00841969 2.15259e-16)
(-0.00884579 0.00994121 -2.79235e-16)
(-0.00913079 0.0115948 -2.07678e-16)
(-0.00927581 0.0132115 3.58471e-16)
(-0.00930144 0.0145299 2.35557e-16)
(-0.00909436 0.015478 3.36286e-16)
(-0.00817681 0.016605 -5.82086e-16)
(-0.00556618 0.0194395 -3.17605e-16)
(-0.000115662 0.0259747 1.01035e-15)
(0.00671819 0.0340668 -5.1551e-16)
(0.0109649 0.0375452 -1.12942e-16)
(0.0200429 0.050501 1.1092e-16)
(0.0127649 0.0386525 -3.38069e-16)
(0.0303057 0.0703058 5.49743e-16)
(-0.0160626 0.035429 -3.54816e-16)
(-0.0184308 0.00945747 -4.41034e-16)
(-0.0382712 0.00340476 2.21305e-16)
(-0.0536357 -0.00794005 1.62403e-16)
(-0.0616719 -0.0159531 6.9343e-16)
(-0.0679371 -0.0193123 -3.99895e-16)
(-0.070523 -0.0210856 -3.23744e-16)
(-0.0710795 -0.0216372 2.10355e-16)
(-0.072299 -0.0233158 1.35636e-17)
(-0.0741869 -0.0255092 -5.21428e-17)
(-0.0785819 -0.0294401 3.56477e-17)
(-0.0851426 -0.034466 3.83617e-18)
(-0.092083 -0.0393913 4.95874e-17)
(-0.100833 -0.0438192 -5.34877e-17)
(-0.109321 -0.0457394 1.52975e-17)
(-0.119858 -0.0440752 -2.0578e-17)
(-0.00262628 0.00102793 -2.28092e-17)
(-0.00298185 0.00140233 1.91712e-17)
(-0.00304179 0.00163964 5.31306e-18)
(-0.00326185 0.00197273 -4.11846e-19)
(-0.00349198 0.0023282 8.00058e-17)
(-0.00372772 0.00270997 -1.95287e-17)
(-0.00396406 0.00312996 -9.44125e-17)
(-0.00419261 0.00359601 5.93771e-17)
(-0.00442993 0.00412306 2.60639e-16)
(-0.00487022 0.00494744 -3.00895e-16)
(-0.00536581 0.00593617 -4.47347e-17)
(-0.00579507 0.00698667 4.69265e-16)
(-0.00613306 0.0081181 -3.34984e-16)
(-0.00634178 0.00933626 1.19535e-16)
(-0.00640243 0.0106395 -6.23598e-17)
(-0.00632183 0.0119687 -7.52264e-16)
(-0.00613541 0.0131673 1.31334e-15)
(-0.00585692 0.0140508 4.0454e-16)
(-0.00538508 0.0145968 -1.12327e-15)
(-0.00433584 0.0151831 9.70139e-16)
(-0.00196209 0.0169789 -8.15719e-17)
(0.00264211 0.0222361 -7.7284e-16)
(0.00787386 0.0274051 1.2993e-16)
(0.0145854 0.0344815 3.34126e-16)
(0.0150415 0.0327104 -5.81766e-16)
(0.0241991 0.0413877 2.89118e-17)
(0.0230333 0.0394124 1.06536e-16)
(0.0191741 0.0353607 5.57555e-17)
(0.0127531 0.0273486 -4.22296e-16)
(0.00442486 0.018575 3.59078e-16)
(-0.00520314 0.00983538 5.22745e-16)
(-0.0144279 0.00282227 -7.88802e-17)
(-0.0162572 -0.00237696 -1.93091e-16)
(-0.0337072 -0.0107486 -3.42208e-16)
(-0.0354309 -0.0100166 7.65684e-17)
(-0.0432247 -0.0130607 2.21465e-17)
(-0.0499316 -0.014391 5.79974e-17)
(-0.0576531 -0.0162876 1.86662e-17)
(-0.0675978 -0.018589 7.55778e-17)
(-0.0774943 -0.0200576 4.7109e-17)
(-0.0910194 -0.0216097 -3.241e-17)
(-0.00208036 0.00115313 -2.73377e-17)
(-0.00229721 0.00148005 -3.92307e-17)
(-0.00230794 0.00167717 -3.28716e-18)
(-0.00243303 0.00195404 6.47634e-17)
(-0.00257031 0.00224517 4.27001e-17)
(-0.00271326 0.00255527 -2.65418e-17)
(-0.0028599 0.00289483 -2.84948e-18)
(-0.00300533 0.00326673 2.67038e-17)
(-0.00314679 0.00367678 -1.44071e-16)
(-0.00333472 0.00421771 -3.93238e-17)
(-0.00367769 0.00502389 4.72204e-16)
(-0.0039636 0.00587563 9.36967e-17)
(-0.00419681 0.0067731 -6.91474e-16)
(-0.00434501 0.00771359 1.73887e-16)
(-0.00438749 0.00869331 2.16136e-16)
(-0.00430863 0.00970947 -9.49454e-16)
(-0.00410225 0.0107468 1.50341e-17)
(-0.00378465 0.0117371 4.95596e-16)
(-0.00339854 0.0125538 5.76396e-16)
(-0.00296338 0.0130598 -3.54917e-16)
(-0.0024315 0.0132761 1.50698e-16)
(-0.00150592 0.0143254 3.51685e-16)
(0.000256797 0.0157099 -6.49041e-16)
(0.00290224 0.0176444 -2.26736e-16)
(0.00695631 0.0209498 7.25125e-17)
(0.0110075 0.0241193 2.21696e-16)
(0.015084 0.0266415 -1.15172e-16)
(0.0187477 0.0285355 2.30173e-16)
(0.0210263 0.0290241 -1.26664e-16)
(0.0216804 0.027636 -3.94504e-17)
(0.0207925 0.0249776 2.60001e-16)
(0.0196303 0.0233279 -1.94091e-16)
(0.000885729 0.00478391 -7.74997e-17)
(0.0164903 0.0147837 2.91788e-16)
(0.00011101 0.00816105 -3.20806e-16)
(-0.000744671 0.00428808 1.97632e-16)
(-0.00850235 0.00333587 1.32572e-16)
(-0.0133706 0.00227186 -2.27648e-16)
(-0.0254544 0.00139564 5.05292e-17)
(-0.0225648 0.00904547 8.63484e-17)
(-0.0344253 0.00748319 1.36379e-17)
(-0.00165298 0.00118802 -6.97044e-18)
(-0.00177413 0.00147196 -1.82766e-17)
(-0.00175 0.00163732 -8.51583e-18)
(-0.00181202 0.00186766 3.392e-17)
(-0.00188469 0.00210713 -9.05764e-20)
(-0.00196446 0.00236167 -9.76464e-18)
(-0.00204736 0.00263875 -3.44586e-18)
(-0.00213323 0.00294075 1.03003e-17)
(-0.00221489 0.0032717 4.01725e-17)
(-0.00230344 0.00364659 -4.42475e-17)
(-0.00248704 0.00426288 6.21873e-17)
(-0.00266814 0.00496003 -7.30501e-17)
(-0.00281261 0.00568808 5.68756e-17)
(-0.00290187 0.00644269 3.16575e-16)
(-0.00291784 0.00721558 -4.02329e-16)
(-0.00285116 0.0079985 -1.91907e-16)
(-0.00269106 0.00878262 -1.00827e-16)
(-0.00242928 0.00956325 7.46068e-17)
(-0.00207318 0.0103169 2.81436e-16)
(-0.00163956 0.010984 -1.34401e-16)
(-0.00120777 0.0114762 -3.94301e-16)
(-0.000788196 0.0124246 3.16626e-16)
(-0.000326611 0.0129336 3.41558e-16)