/*--------------------------------*- C++ -*----------------------------------*\
| =========                 |                                                 |
| \\      /  F ield         | OpenFOAM: The Open Source CFD Toolbox           |
|  \\    /   O peration     | Version:  2312                                  |
|   \\  /    A nd           | Website:  www.openfoam.com                      |
|    \\/     M anipulation  |                                                 |
\*---------------------------------------------------------------------------*/
FoamFile
{
    version     2.0;
    format      ascii;
    arch        "LSB;label=32;scalar=64";
    class       volScalarField;
    location    "900";
    object      nut;
}
// * * * * * * * * * * * * * * * * * * * * * * * * * * * * * * * * * * * * * //

dimensions      [0 2 -1 0 0 0 0];

internalField   nonuniform List<scalar> 
11040
(
3.7888e-05
5.48779e-05
1.54792e-05
4.84408e-05
0.000187894
0.000181093
0.000171418
0.00016129
0.000148663
0.000140827
0.000132736
0.000125665
0.00011927
0.00011423
0.000109879
0.000107501
0.000107164
0.000108844
0.000112069
0.000116619
0.000122571
0.000129713
0.00013776
0.000146506
0.000156064
0.000167408
0.000180399
0.000193131
0.000205057
0.0002156
0.000224141
0.000230062
0.00023426
0.000241392
0.000261009
0.000248056
0.000171529
0.000180593
0.000199511
0.000219481
0.000294432
4.19645e-06
3.68875e-05
5.59857e-05
0.000142866
0.00060102
0.00062805
0.000551986
0.000508344
0.000442165
0.000406725
0.000370186
0.000341633
0.000314813
0.000294549
0.000275525
0.000262251
0.00025564
0.000254856
0.000257179
0.000261297
0.000267343
0.000275351
0.000283706
0.000291242
0.000298924
0.000314341
0.000342033
0.000374166
0.000410356
0.000450708
0.000495455
0.000544923
0.000598317
0.000657418
0.000724407
0.000792156
0.000860799
0.000952039
0.00106052
0.001148
0.0016109
5.52718e-06
9.43866e-06
3.01616e-05
6.50881e-05
0.000412585
0.000964596
0.00118629
0.00114675
0.00100404
0.000929451
0.00084686
0.000785734
0.000726073
0.000682429
0.000640419
0.000606952
0.000581372
0.000561791
0.00055037
0.000546118
0.000550445
0.000564374
0.000588626
0.000624048
0.000670708
0.000728401
0.000796896
0.000875672
0.000964373
0.0010624
0.00116885
0.0012829
0.00140409
0.00153306
0.00167092
0.00181784
0.00198015
0.00218024
0.00242374
0.00266285
0.0034847
6.48218e-06
5.16474e-06
1.06774e-05
1.12337e-05
0.000138912
0.000595384
0.00130385
0.00170742
0.00177779
0.00168782
0.00154419
0.00144399
0.00133931
0.00126224
0.00118693
0.00112433
0.00107818
0.00104153
0.0010196
0.00101071
0.00101664
0.00104038
0.00108446
0.00115003
0.00123652
0.00134279
0.00146789
0.00161079
0.00177057
0.00194615
0.00213597
0.0023386
0.00255295
0.00277927
0.00301846
0.00327316
0.00355538
0.00389663
0.0043151
0.00477
0.00593013
6.20179e-06
5.7671e-06
6.4045e-06
5.42767e-06
4.8536e-06
0.000177056
0.000708339
0.00156026
0.00225423
0.00246472
0.00247695
0.00237075
0.00220708
0.00208936
0.0019751
0.00187195
0.00179941
0.00173959
0.00170274
0.00168723
0.00169311
0.00172597
0.0017919
0.00189284
0.00202796
0.00219587
0.00239483
0.00262256
0.00287702
0.00315624
0.00345714
0.00377685
0.00411327
0.0044661
0.00483593
0.00522684
0.00565523
0.00616649
0.00679463
0.00752299
0.00898701
6.09395e-06
6.18688e-06
5.89217e-06
6.5989e-06
1.70667e-06
9.04456e-07
0.000172388
0.000730599
0.00171463
0.00273073
0.00320624
0.00337622
0.00336455
0.0032557
0.00307866
0.00291589
0.00280858
0.00271665
0.0026567
0.00263114
0.00263447
0.00267421
0.00276334
0.00290572
0.0031001
0.00334526
0.00363854
0.00397558
0.00435203
0.00476477
0.00520818
0.00567687
0.00616691
0.00667699
0.00720671
0.00776082
0.00836034
0.00906328
0.00992915
0.0109759
0.0127588
6.10467e-06
6.13719e-06
6.01366e-06
6.35148e-06
5.93382e-06
4.33378e-07
3.41987e-09
0.000119727
0.00065985
0.00170898
0.00301301
0.00395223
0.00433211
0.00447697
0.00446904
0.00436769
0.00421847
0.00406589
0.00396991
0.00392987
0.00392864
0.00397101
0.00408186
0.0042697
0.00453238
0.00486971
0.00527871
0.00575224
0.00628092
0.00686051
0.00748162
0.00813428
0.00881145
0.00951018
0.0102278
0.0109683
0.0117567
0.0126621
0.0137786
0.0151677
0.0173138
6.11443e-06
6.11182e-06
6.13182e-06
6.0486e-06
6.56323e-06
6.05546e-06
1.93379e-08
2.80406e-11
5.22527e-05
0.000512903
0.0015223
0.00302371
0.00449144
0.00530819
0.00567628
0.00582204
0.00584859
0.00579836
0.0057285
0.00567081
0.00566718
0.00572322
0.0058588
0.00609662
0.00643423
0.00687546
0.00741962
0.00805833
0.00877097
0.0095528
0.0103896
0.0112634
0.0121616
0.013079
0.014009
0.0149516
0.0159352
0.0170372
0.0183888
0.020108
0.0226269
6.11263e-06
6.11625e-06
6.11193e-06
6.1316e-06
5.99655e-06
7.16022e-06
5.39438e-06
1.11877e-07
3.26026e-07
5.72179e-07
0.000315552
0.00118197
0.0027163
0.00460381
0.00612924
0.00689447
0.00729799
0.00750334
0.00762696
0.00770966
0.00780779
0.00794819
0.00817297
0.00851119
0.0089637
0.00953051
0.0102196
0.0110356
0.011962
0.0129801
0.0140711
0.0152045
0.0163557
0.0175174
0.0186784
0.019827
0.0209952
0.0222702
0.023794
0.0257752
0.0286097
6.11199e-06
6.11359e-06
6.11332e-06
6.11891e-06
6.09865e-06
6.04498e-06
7.35486e-06
4.90697e-06
4.6894e-07
1.47148e-08
2.38127e-05
0.000126354
0.000775697
0.0021458
0.00419833
0.00640669
0.00798479
0.00880187
0.00931944
0.00968555
0.0100231
0.0103766
0.0108085
0.0113635
0.0120616
0.0129028
0.0138768
0.0149654
0.0161505
0.0174303
0.0188045
0.0202284
0.0216525
0.0230673
0.0244635
0.0258028
0.0271154
0.028505
0.0300992
0.0321901
0.0351771
6.11078e-06
6.11175e-06
6.11306e-06
6.10894e-06
6.12628e-06
6.05472e-06
6.17697e-06
7.04457e-06
5.90312e-06
1.34325e-06
7.06551e-09
5.72084e-07
2.19803e-07
0.000371075
0.0014157
0.00332195
0.00587835
0.00841642
0.0101608
0.0111733
0.0119483
0.0126316
0.0133555
0.0142037
0.0152303
0.0164538
0.0178702
0.0194611
0.0211915
0.0230128
0.0248606
0.0266606
0.028369
0.0300225
0.0316517
0.0331473
0.0345171
0.0359311
0.0374708
0.0393965
0.0422112
6.10939e-06
6.11023e-06
6.11004e-06
6.11056e-06
6.10817e-06
6.11704e-06
6.06175e-06
6.167e-06
6.76621e-06
6.59727e-06
2.90745e-06
2.35275e-09
1.21018e-09
2.61933e-05
9.86681e-05
0.000726617
0.0021912
0.00462142
0.00769721
0.0106781
0.0128087
0.0141926
0.0153732
0.016582
0.0179622
0.0195787
0.0214481
0.0235673
0.0259033
0.0284005
0.0309897
0.0335896
0.0361085
0.0384547
0.0405121
0.0421575
0.0434403
0.0447738
0.0461023
0.047582
0.0497844
6.1081e-06
6.10849e-06
6.10837e-06
6.1082e-06
6.10799e-06
6.10746e-06
6.1088e-06
6.07755e-06
6.12822e-06
6.53332e-06
7.03297e-06
4.36612e-06
1.95091e-07
1.89376e-09
1.32159e-07
0.000100554
0.000224604
0.00111264
0.00297562
0.00591814
0.00959068
0.0131426
0.0158165
0.0177852
0.0196482
0.0216817
0.0239643
0.0265488
0.0294214
0.032525
0.0357874
0.0391245
0.0424394
0.0456361
0.0486124
0.0512552
0.0534676
0.0551737
0.0562675
0.0570331
0.0584793
6.10689e-06
6.1072e-06
6.10718e-06
6.10718e-06
6.10678e-06
6.10622e-06
6.10621e-06
6.10614e-06
6.08763e-06
6.0945e-06
6.33043e-06
7.08756e-06
5.94474e-06
1.54937e-06
2.59313e-10
6.32301e-11
1.41256e-06
0.0001717
0.000353065
0.00144283
0.00364355
0.00691745
0.0108138
0.0148528
0.0185169
0.0216125
0.0244767
0.0275177
0.0308617
0.0344738
0.0382976
0.0422625
0.0462641
0.0502028
0.0539768
0.057487
0.0606438
0.0633879
0.0656503
0.067403
0.0686902
6.10585e-06
6.1066e-06
6.10672e-06
6.10671e-06
6.10634e-06
6.10598e-06
6.1055e-06
6.10564e-06
6.10507e-06
6.0974e-06
6.07061e-06
6.20789e-06
6.82753e-06
6.76983e-06
4.41974e-06
2.76104e-07
2.95875e-09
8.92173e-13
6.07227e-06
0.000218536
0.000418667
0.0015435
0.00357545
0.00656997
0.0103703
0.0147344
0.0193894
0.0240332
0.0284716
0.032773
0.0371354
0.041655
0.0462751
0.0508864
0.0553813
0.0596621
0.0636513
0.0673125
0.070578
0.0733937
0.0757554
6.10499e-06
6.10627e-06
6.1063e-06
6.10606e-06
6.10561e-06
6.10519e-06
6.10486e-06
6.10454e-06
6.1045e-06
6.10466e-06
6.10145e-06
6.06935e-06
6.13953e-06
6.41223e-06
7.12874e-06
5.91859e-06
2.93252e-06
1.17999e-08
5.17212e-10
6.52492e-14
9.33345e-06
0.000193335
0.000248777
0.00102365
0.00249049
0.00477935
0.00792592
0.0119003
0.0166249
0.0219911
0.0278118
0.0337974
0.0396618
0.0452698
0.0506145
0.0557173
0.0605704
0.0651578
0.0694142
0.0732703
0.0767006
6.10423e-06
6.10554e-06
6.10542e-06
6.10487e-06
6.10437e-06
6.10398e-06
6.10369e-06
6.10345e-06
6.10332e-06
6.10302e-06
6.10422e-06
6.10065e-06
6.08662e-06
6.07554e-06
6.253e-06
6.6793e-06
7.12977e-06
5.13522e-06
1.56167e-06
1.03197e-09
2.14356e-10
3.92287e-14
8.84834e-07
6.70026e-05
0.000269487
0.000274781
0.00100449
0.00226228
0.0042051
0.00692304
0.010475
0.0148823
0.0201054
0.0260542
0.0325463
0.0392964
0.0459771
0.0523589
0.0582572
0.0635814
0.0683384
6.10327e-06
6.10433e-06
6.10404e-06
6.10355e-06
6.10313e-06
6.10283e-06
6.10263e-06
6.10252e-06
6.10236e-06
6.10225e-06
6.10209e-06
6.10286e-06
6.10196e-06
6.09344e-06
6.07078e-06
6.12323e-06
6.35701e-06
6.96484e-06
6.98797e-06
4.759e-06
1.14783e-06
7.26665e-10
2.26482e-10
8.25816e-13
0
7.73237e-07
4.94388e-05
0.000183909
3.33949e-05
0.000357868
0.00105794
0.00224099
0.00400685
0.0064711
0.00969135
0.0136839
0.0183999
0.023798
0.0297274
0.0359951
0.0423961
6.10208e-06
6.10277e-06
6.10231e-06
6.10173e-06
6.10127e-06
6.10095e-06
6.10077e-06
6.10068e-06
6.10065e-06
6.10069e-06
6.10064e-06
6.1007e-06
6.10084e-06
6.10206e-06
6.09625e-06
6.08502e-06
6.06724e-06
6.18297e-06
6.5143e-06
7.04828e-06
6.84329e-06
4.47018e-06
1.70029e-06
1.89629e-08
7.49192e-10
3.13284e-11
1.78774e-13
0
2.13912e-09
1.38127e-06
4.36864e-05
0.000150652
5.69735e-08
0.00010186
0.00040702
0.00111191
0.00221977
0.00382219
0.00596946
0.00868441
0.0120236
6.1008e-06
6.10119e-06
6.10063e-06
6.10004e-06
6.09961e-06
6.09935e-06
6.09921e-06
6.09917e-06
6.09918e-06
6.09923e-06
6.09931e-06
6.0994e-06
6.09945e-06
6.09974e-06
6.10021e-06
6.09965e-06
6.09014e-06
6.0734e-06
6.08108e-06
6.23546e-06
6.62124e-06
7.03775e-06
6.97369e-06
5.2648e-06
2.77423e-06
8.72558e-07
5.58885e-09
4.18503e-10
3.03104e-11
7.12299e-12
1.29333e-14
0
1.25924e-12
1.269e-08
1.41552e-06
3.68419e-05
0.000124829
0.000233481
0.000375034
2.12822e-05
0.000393999
6.09947e-06
6.09963e-06
6.09907e-06
6.09856e-06
6.09825e-06
6.09811e-06
6.09808e-06
6.09812e-06
6.09819e-06
6.09829e-06
6.09839e-06
6.0985e-06
6.09862e-06
6.09869e-06
6.09889e-06
6.09933e-06
6.09988e-06
6.09634e-06
6.08284e-06
6.06666e-06
6.0938e-06
6.26815e-06
6.57139e-06
7.04862e-06
7.09719e-06
6.5898e-06
4.94334e-06
2.81331e-06
1.16236e-06
3.05403e-07
6.11749e-10
1.7182e-10
2.55061e-11
9.7158e-12
2.48597e-12
3.37623e-14
0
0
0
3.84301e-10
7.02038e-07
6.09811e-06
6.09816e-06
6.09772e-06
6.09741e-06
6.0973e-06
6.09733e-06
6.09744e-06
6.09759e-06
6.09774e-06
6.09789e-06
6.09803e-06
6.09816e-06
6.09828e-06
6.09838e-06
6.09848e-06
6.09856e-06
6.0989e-06
6.0995e-06
6.09908e-06
6.09336e-06
6.07694e-06
6.0681e-06
6.08808e-06
6.21277e-06
6.45459e-06
6.75043e-06
7.1227e-06
7.18847e-06
6.75861e-06
5.95376e-06
4.4948e-06
2.84195e-06
1.49463e-06
6.29971e-07
1.77893e-07
2.65594e-09
2.21545e-10
2.38382e-11
1.27413e-11
6.05624e-12
2.2733e-12
6.09679e-06
6.09689e-06
6.09669e-06
6.09665e-06
6.09678e-06
6.09701e-06
6.09728e-06
6.09754e-06
6.09778e-06
6.098e-06
6.09819e-06
6.09835e-06
6.09848e-06
6.0986e-06
6.09869e-06
6.09877e-06
6.09882e-06
6.09896e-06
6.0994e-06
6.09997e-06
6.09855e-06
6.09172e-06
6.07876e-06
6.0652e-06
6.07639e-06
6.12537e-06
6.25275e-06
6.4617e-06
6.71829e-06
6.9612e-06
7.22641e-06
7.26112e-06
7.00483e-06
6.44744e-06
5.68539e-06
4.60775e-06
3.40738e-06
2.26992e-06
1.3627e-06
7.14695e-07
2.9917e-07
6.09557e-06
6.09586e-06
6.096e-06
6.09627e-06
6.09666e-06
6.09707e-06
6.09748e-06
6.09784e-06
6.09817e-06
6.09844e-06
6.09868e-06
6.09888e-06
6.09905e-06
6.09919e-06
6.0993e-06
6.0994e-06
6.09947e-06
6.09952e-06
6.09958e-06
6.09976e-06
6.10033e-06
6.10056e-06
6.0994e-06
6.094e-06
6.08398e-06
6.0721e-06
6.064e-06
6.07271e-06
6.11346e-06
6.18822e-06
6.31429e-06
6.48767e-06
6.68891e-06
6.8965e-06
7.07889e-06
7.25862e-06
7.33455e-06
7.25639e-06
7.01008e-06
6.59823e-06
6.08735e-06
6.09452e-06
6.09513e-06
6.09564e-06
6.09622e-06
6.09681e-06
6.09738e-06
6.09789e-06
6.09834e-06
6.09873e-06
6.09906e-06
6.09934e-06
6.09959e-06
6.09979e-06
6.09997e-06
6.10011e-06
6.10024e-06
6.10034e-06
6.10043e-06
6.10049e-06
6.10052e-06
6.10063e-06
6.10089e-06
6.10135e-06
6.10174e-06
6.10108e-06
6.09848e-06
6.09275e-06
6.08371e-06
6.07343e-06
6.06542e-06
6.06302e-06
6.07283e-06
6.10041e-06
6.15056e-06
6.22252e-06
6.32099e-06
6.44362e-06
6.58736e-06
6.74163e-06
6.89656e-06
7.03606e-06
6.09369e-06
6.0947e-06
6.09556e-06
6.09638e-06
6.09713e-06
6.09779e-06
6.09837e-06
6.09888e-06
6.09931e-06
6.09969e-06
6.10002e-06
6.10031e-06
6.10056e-06
6.10077e-06
6.10096e-06
6.10113e-06
6.10127e-06
6.10139e-06
6.10151e-06
6.10159e-06
6.10168e-06
6.10176e-06
6.10187e-06
6.10211e-06
6.10248e-06
6.10289e-06
6.10304e-06
6.1024e-06
6.10031e-06
6.09648e-06
6.09066e-06
6.0831e-06
6.07477e-06
6.06719e-06
6.0622e-06
6.06129e-06
6.06643e-06
6.08038e-06
6.10429e-06
6.14152e-06
6.18359e-06
6.0931e-06
6.09451e-06
6.09565e-06
6.09663e-06
6.09746e-06
6.09819e-06
6.09882e-06
6.09937e-06
6.09985e-06
6.10028e-06
6.10065e-06
6.10098e-06
6.10127e-06
6.10153e-06
6.10176e-06
6.10197e-06
6.10215e-06
6.10232e-06
6.10248e-06
6.10261e-06
6.10275e-06
6.10288e-06
6.10298e-06
6.10308e-06
6.10319e-06
6.10336e-06
6.10362e-06
6.10398e-06
6.10435e-06
6.10459e-06
6.10451e-06
6.10383e-06
6.10233e-06
6.0998e-06
6.09621e-06
6.09159e-06
6.08613e-06
6.08003e-06
6.07381e-06
6.06813e-06
6.06363e-06
6.09274e-06
6.09449e-06
6.09581e-06
6.09687e-06
6.09776e-06
6.09852e-06
6.0992e-06
6.09979e-06
6.10031e-06
6.10078e-06
6.1012e-06
6.10157e-06
6.10191e-06
6.10221e-06
6.10248e-06
6.10273e-06
6.10296e-06
6.10317e-06
6.10337e-06
6.10355e-06
6.10374e-06
6.10391e-06
6.10406e-06
6.1042e-06
6.10432e-06
6.10444e-06
6.10455e-06
6.10467e-06
6.10484e-06
6.10506e-06
6.10534e-06
6.10566e-06
6.10599e-06
6.10626e-06
6.1064e-06
6.10632e-06
6.10595e-06
6.10518e-06
6.10398e-06
6.10214e-06
6.10035e-06
6.09258e-06
6.09453e-06
6.09593e-06
6.09704e-06
6.09796e-06
6.09877e-06
6.09949e-06
6.10012e-06
6.10069e-06
6.10121e-06
6.10167e-06
6.10209e-06
6.10247e-06
6.10282e-06
6.10314e-06
6.10343e-06
6.1037e-06
6.10395e-06
6.10419e-06
6.10441e-06
6.10464e-06
6.10485e-06
6.10504e-06
6.10522e-06
6.10539e-06
6.10554e-06
6.10568e-06
6.10581e-06
6.10593e-06
6.10605e-06
6.10617e-06
6.10631e-06
6.10646e-06
6.10664e-06
6.10686e-06
6.1071e-06
6.10736e-06
6.10763e-06
6.10789e-06
6.10812e-06
6.10832e-06
6.09253e-06
6.09455e-06
6.09599e-06
6.09712e-06
6.09809e-06
6.09893e-06
6.09969e-06
6.10037e-06
6.10099e-06
6.10155e-06
6.10206e-06
6.10253e-06
6.10296e-06
6.10335e-06
6.10371e-06
6.10405e-06
6.10436e-06
6.10466e-06
6.10494e-06
6.1052e-06
6.10546e-06
6.10571e-06
6.10594e-06
6.10616e-06
6.10636e-06
6.10655e-06
6.10672e-06
6.10689e-06
6.10705e-06
6.10719e-06
6.10733e-06
6.10746e-06
6.10758e-06
6.1077e-06
6.10782e-06
6.10794e-06
6.10806e-06
6.1082e-06
6.10834e-06
6.10849e-06
6.10864e-06
6.09248e-06
6.0945e-06
6.09595e-06
6.09712e-06
6.09811e-06
6.099e-06
6.0998e-06
6.10053e-06
6.10119e-06
6.1018e-06
6.10237e-06
6.10288e-06
6.10336e-06
6.1038e-06
6.10421e-06
6.10459e-06
6.10495e-06
6.10529e-06
6.10561e-06
6.10591e-06
6.10622e-06
6.1065e-06
6.10677e-06
6.10702e-06
6.10725e-06
6.10747e-06
6.10768e-06
6.10787e-06
6.10806e-06
6.10824e-06
6.1084e-06
6.10856e-06
6.10872e-06
6.10886e-06
6.109e-06
6.10913e-06
6.10926e-06
6.10938e-06
6.1095e-06
6.10961e-06
6.10974e-06
6.09234e-06
6.09436e-06
6.09583e-06
6.09701e-06
6.09804e-06
6.09896e-06
6.0998e-06
6.10058e-06
6.1013e-06
6.10196e-06
6.10258e-06
6.10315e-06
6.10368e-06
6.10417e-06
6.10463e-06
6.10506e-06
6.10547e-06
6.10585e-06
6.10621e-06
6.10656e-06
6.1069e-06
6.10722e-06
6.10753e-06
6.10781e-06
6.10807e-06
6.10832e-06
6.10856e-06
6.10878e-06
6.109e-06
6.1092e-06
6.10939e-06
6.10958e-06
6.10975e-06
6.10992e-06
6.11009e-06
6.11024e-06
6.1104e-06
6.11054e-06
6.11068e-06
6.11081e-06
6.11096e-06
6.09214e-06
6.09413e-06
6.09559e-06
6.09679e-06
6.09785e-06
6.09881e-06
6.0997e-06
6.10053e-06
6.10131e-06
6.10203e-06
6.10271e-06
6.10333e-06
6.10392e-06
6.10447e-06
6.10498e-06
6.10546e-06
6.10591e-06
6.10634e-06
6.10675e-06
6.10714e-06
6.10752e-06
6.10788e-06
6.10822e-06
6.10853e-06
6.10883e-06
6.10911e-06
6.10938e-06
6.10963e-06
6.10987e-06
6.1101e-06
6.11031e-06
6.11052e-06
6.11072e-06
6.11091e-06
6.1111e-06
6.11127e-06
6.11144e-06
6.11161e-06
6.11177e-06
6.11192e-06
6.11208e-06
6.09183e-06
6.09379e-06
6.09524e-06
6.09645e-06
6.09754e-06
6.09854e-06
6.09949e-06
6.10038e-06
6.10122e-06
6.102e-06
6.10274e-06
6.10343e-06
6.10408e-06
6.10468e-06
6.10525e-06
6.10579e-06
6.10629e-06
6.10677e-06
6.10722e-06
6.10766e-06
6.10808e-06
6.10848e-06
6.10886e-06
6.10921e-06
6.10954e-06
6.10985e-06
6.11014e-06
6.11042e-06
6.11069e-06
6.11094e-06
6.11118e-06
6.11141e-06
6.11163e-06
6.11184e-06
6.11205e-06
6.11224e-06
6.11243e-06
6.11261e-06
6.11279e-06
6.11296e-06
6.11314e-06
6.09142e-06
6.09332e-06
6.09476e-06
6.09598e-06
6.0971e-06
6.09815e-06
6.09916e-06
6.10011e-06
6.10101e-06
6.10187e-06
6.10267e-06
6.10343e-06
6.10414e-06
6.10481e-06
6.10544e-06
6.10604e-06
6.10659e-06
6.10712e-06
6.10763e-06
6.10811e-06
6.10858e-06
6.10902e-06
6.10943e-06
6.10982e-06
6.11019e-06
6.11053e-06
6.11086e-06
6.11116e-06
6.11146e-06
6.11173e-06
6.112e-06
6.11225e-06
6.11249e-06
6.11273e-06
6.11295e-06
6.11316e-06
6.11337e-06
6.11357e-06
6.11376e-06
6.11394e-06
6.11414e-06
6.09088e-06
6.09272e-06
6.09414e-06
6.09537e-06
6.09653e-06
6.09763e-06
6.0987e-06
6.09971e-06
6.10069e-06
6.10161e-06
6.10249e-06
6.10332e-06
6.1041e-06
6.10483e-06
6.10553e-06
6.10618e-06
6.1068e-06
6.10739e-06
6.10795e-06
6.10848e-06
6.109e-06
6.10949e-06
6.10994e-06
6.11037e-06
6.11077e-06
6.11115e-06
6.1115e-06
6.11184e-06
6.11216e-06
6.11247e-06
6.11276e-06
6.11303e-06
6.1133e-06
6.11355e-06
6.11379e-06
6.11403e-06
6.11425e-06
6.11447e-06
6.11468e-06
6.11487e-06
6.11508e-06
6.0902e-06
6.09197e-06
6.09337e-06
6.09462e-06
6.09581e-06
6.09697e-06
6.09809e-06
6.09917e-06
6.10021e-06
6.1012e-06
6.10215e-06
6.10305e-06
6.1039e-06
6.10471e-06
6.10547e-06
6.10619e-06
6.10688e-06
6.10753e-06
6.10814e-06
6.10873e-06
6.1093e-06
6.10983e-06
6.11033e-06
6.1108e-06
6.11124e-06
6.11166e-06
6.11205e-06
6.11242e-06
6.11277e-06
6.1131e-06
6.11342e-06
6.11372e-06
6.11401e-06
6.11428e-06
6.11455e-06
6.1148e-06
6.11504e-06
6.11527e-06
6.1155e-06
6.11571e-06
6.11594e-06
6.08937e-06
6.09106e-06
6.09244e-06
6.09371e-06
6.09493e-06
6.09613e-06
6.09729e-06
6.09843e-06
6.09953e-06
6.10059e-06
6.1016e-06
6.10257e-06
6.1035e-06
6.10438e-06
6.10521e-06
6.106e-06
6.10676e-06
6.10747e-06
6.10815e-06
6.1088e-06
6.10942e-06
6.11001e-06
6.11056e-06
6.11107e-06
6.11155e-06
6.11201e-06
6.11244e-06
6.11284e-06
6.11323e-06
6.11359e-06
6.11393e-06
6.11426e-06
6.11457e-06
6.11487e-06
6.11515e-06
6.11542e-06
6.11568e-06
6.11593e-06
6.11617e-06
6.11639e-06
6.11663e-06
6.08838e-06
6.08999e-06
6.09134e-06
6.09261e-06
6.09385e-06
6.09508e-06
6.09628e-06
6.09746e-06
6.0986e-06
6.09972e-06
6.1008e-06
6.10183e-06
6.10283e-06
6.10378e-06
6.10469e-06
6.10555e-06
6.10637e-06
6.10715e-06
6.1079e-06
6.10861e-06
6.10929e-06
6.10993e-06
6.11053e-06
6.11109e-06
6.11162e-06
6.11212e-06
6.11259e-06
6.11303e-06
6.11344e-06
6.11384e-06
6.11421e-06
6.11456e-06
6.1149e-06
6.11522e-06
6.11552e-06
6.11581e-06
6.11609e-06
6.11636e-06
6.11661e-06
6.11686e-06
6.11711e-06
6.0872e-06
6.08873e-06
6.09005e-06
6.09131e-06
6.09255e-06
6.09378e-06
6.09499e-06
6.09619e-06
6.09738e-06
6.09854e-06
6.09967e-06
6.10077e-06
6.10183e-06
6.10285e-06
6.10383e-06
6.10476e-06
6.10565e-06
6.1065e-06
6.10732e-06
6.10809e-06
6.10883e-06
6.10953e-06
6.11018e-06
6.11079e-06
6.11137e-06
6.11191e-06
6.11242e-06
6.1129e-06
6.11335e-06
6.11378e-06
6.11418e-06
6.11456e-06
6.11491e-06
6.11525e-06
6.11557e-06
6.11588e-06
6.11617e-06
6.11645e-06
6.11672e-06
6.11696e-06
6.11722e-06
6.08583e-06
6.08727e-06
6.08854e-06
6.08977e-06
6.09098e-06
6.09218e-06
6.09339e-06
6.0946e-06
6.0958e-06
6.097e-06
6.09817e-06
6.09933e-06
6.10045e-06
6.10153e-06
6.10258e-06
6.10358e-06
6.10454e-06
6.10546e-06
6.10634e-06
6.10717e-06
6.10797e-06
6.10872e-06
6.10943e-06
6.11009e-06
6.11071e-06
6.1113e-06
6.11184e-06
6.11236e-06
6.11284e-06
6.1133e-06
6.11373e-06
6.11413e-06
6.11452e-06
6.11488e-06
6.11522e-06
6.11555e-06
6.11586e-06
6.11615e-06
6.11644e-06
6.1167e-06
6.11697e-06
6.08426e-06
6.08559e-06
6.08679e-06
6.08795e-06
6.08909e-06
6.09025e-06
6.09143e-06
6.09263e-06
6.09384e-06
6.09506e-06
6.09627e-06
6.09747e-06
6.09864e-06
6.09979e-06
6.10089e-06
6.10196e-06
6.10299e-06
6.10397e-06
6.10491e-06
6.1058e-06
6.10666e-06
6.10747e-06
6.10823e-06
6.10894e-06
6.10961e-06
6.11024e-06
6.11083e-06
6.11139e-06
6.1119e-06
6.11239e-06
6.11285e-06
6.11327e-06
6.11368e-06
6.11405e-06
6.11441e-06
6.11474e-06
6.11506e-06
6.11536e-06
6.11564e-06
6.1159e-06
6.11616e-06
6.08246e-06
6.08367e-06
6.08476e-06
6.08581e-06
6.08687e-06
6.08797e-06
6.0891e-06
6.09027e-06
6.09147e-06
6.0927e-06
6.09393e-06
6.09515e-06
6.09637e-06
6.09756e-06
6.09872e-06
6.09985e-06
6.10093e-06
6.10197e-06
6.10297e-06
6.10392e-06
6.10482e-06
6.10568e-06
6.10649e-06
6.10724e-06
6.10795e-06
6.10861e-06
6.10924e-06
6.10982e-06
6.11037e-06
6.11088e-06
6.11136e-06
6.11182e-06
6.11224e-06
6.11264e-06
6.11302e-06
6.11338e-06
6.11371e-06
6.11403e-06
6.11433e-06
6.11462e-06
6.11489e-06
6.08041e-06
6.08147e-06
6.08242e-06
6.08334e-06
6.0843e-06
6.0853e-06
6.08637e-06
6.08749e-06
6.08866e-06
6.08986e-06
6.09108e-06
6.09232e-06
6.09355e-06
6.09476e-06
6.09596e-06
6.09712e-06
6.09825e-06
6.09934e-06
6.10039e-06
6.1014e-06
6.10237e-06
6.10328e-06
6.10414e-06
6.10496e-06
6.10572e-06
6.10644e-06
6.10711e-06
6.10774e-06
6.10833e-06
6.10887e-06
6.10938e-06
6.10986e-06
6.1103e-06
6.11072e-06
6.1111e-06
6.11146e-06
6.11179e-06
6.1121e-06
6.1124e-06
6.11266e-06
6.11292e-06
6.0781e-06
6.07898e-06
6.07975e-06
6.08053e-06
6.08136e-06
6.08226e-06
6.08323e-06
6.08426e-06
6.08536e-06
6.08649e-06
6.08767e-06
6.08886e-06
6.09007e-06
6.09128e-06
6.09249e-06
6.09368e-06
6.09484e-06
6.09596e-06
6.09704e-06
6.09808e-06
6.09907e-06
6.10001e-06
6.10089e-06
6.10173e-06
6.10251e-06
6.10324e-06
6.10393e-06
6.10458e-06
6.10518e-06
6.10575e-06
6.10628e-06
6.10677e-06
6.10724e-06
6.10767e-06
6.10808e-06
6.10846e-06
6.10882e-06
6.10916e-06
6.10948e-06
6.10978e-06
6.11006e-06
6.0755e-06
6.07616e-06
6.07674e-06
6.07736e-06
6.07804e-06
6.0788e-06
6.07963e-06
6.08053e-06
6.08149e-06
6.0825e-06
6.08356e-06
6.08466e-06
6.08579e-06
6.08693e-06
6.08807e-06
6.08919e-06
6.0903e-06
6.09141e-06
6.09251e-06
6.09358e-06
6.09461e-06
6.09561e-06
6.09657e-06
6.09748e-06
6.09835e-06
6.09916e-06
6.09993e-06
6.10065e-06
6.10132e-06
6.10194e-06
6.10252e-06
6.10306e-06
6.10356e-06
6.10403e-06
6.10446e-06
6.10485e-06
6.10522e-06
6.10556e-06
6.10587e-06
6.10615e-06
6.10642e-06
6.07258e-06
6.07298e-06
6.07337e-06
6.0738e-06
6.07429e-06
6.07485e-06
6.07547e-06
6.07614e-06
6.07687e-06
6.07766e-06
6.0785e-06
6.0794e-06
6.08037e-06
6.08141e-06
6.08254e-06
6.08373e-06
6.08493e-06
6.0861e-06
6.08724e-06
6.08833e-06
6.08938e-06
6.09038e-06
6.09132e-06
6.09221e-06
6.09306e-06
6.09385e-06
6.0946e-06
6.0953e-06
6.09596e-06
6.09658e-06
6.09715e-06
6.09769e-06
6.09819e-06
6.09865e-06
6.09909e-06
6.09949e-06
6.09986e-06
6.10021e-06
6.10053e-06
6.10084e-06
6.10112e-06
6.06932e-06
6.06946e-06
6.0696e-06
6.06978e-06
6.06999e-06
6.07024e-06
6.07052e-06
6.07083e-06
6.07117e-06
6.07154e-06
6.07193e-06
6.07234e-06
6.07275e-06
6.07318e-06
6.07359e-06
6.07405e-06
6.07445e-06
6.07484e-06
6.07523e-06
6.07563e-06
6.07607e-06
6.07653e-06
6.07701e-06
6.07751e-06
6.07802e-06
6.07855e-06
6.07907e-06
6.07959e-06
6.0801e-06
6.0806e-06
6.08108e-06
6.08155e-06
6.082e-06
6.08243e-06
6.08284e-06
6.08323e-06
6.0836e-06
6.08395e-06
6.08428e-06
6.08459e-06
6.0849e-06
0.00362317
0.00712453
0.0101846
0.0122505
0.0131657
0.0129665
0.0117394
0.00962613
0.00674479
0.00334196
0.000668552
0.000128957
3.25299e-09
8.40288e-07
7.77181e-06
6.61478e-06
5.89564e-06
6.06581e-06
6.12243e-06
6.10159e-06
6.09892e-06
6.10253e-06
6.10296e-06
6.10219e-06
6.10122e-06
6.09985e-06
6.09817e-06
6.09641e-06
6.09472e-06
6.09328e-06
6.09218e-06
6.09141e-06
6.09092e-06
6.09062e-06
6.09044e-06
6.09029e-06
6.09014e-06
6.08997e-06
6.08976e-06
6.08951e-06
6.08923e-06
6.08891e-06
6.08855e-06
6.08814e-06
6.08769e-06
6.08719e-06
6.08663e-06
6.08602e-06
6.08535e-06
6.08461e-06
6.0838e-06
6.08292e-06
6.08196e-06
6.0809e-06
6.07974e-06
6.07848e-06
6.07712e-06
6.07565e-06
6.07411e-06
6.07261e-06
6.07132e-06
6.07053e-06
6.07047e-06
6.07123e-06
6.07273e-06
6.07481e-06
6.07729e-06
6.08009e-06
6.08317e-06
6.08655e-06
6.09013e-06
6.09432e-06
6.0977e-06
6.10619e-06
0.00620347
0.0108561
0.0144326
0.0166577
0.0176049
0.0174099
0.0161943
0.0140871
0.0111879
0.00754378
0.00350324
0.000616696
0.000127753
4.21059e-09
4.48392e-07
7.87595e-06
7.1031e-06
5.91888e-06
6.00515e-06
6.11887e-06
6.10952e-06
6.1e-06
6.10251e-06
6.10295e-06
6.10131e-06
6.09984e-06
6.09843e-06
6.09675e-06
6.09498e-06
6.09347e-06
6.09234e-06
6.09155e-06
6.09102e-06
6.09069e-06
6.09049e-06
6.09033e-06
6.09018e-06
6.09001e-06
6.0898e-06
6.08955e-06
6.08927e-06
6.08895e-06
6.0886e-06
6.0882e-06
6.08775e-06
6.08726e-06
6.08671e-06
6.0861e-06
6.08544e-06
6.08472e-06
6.08392e-06
6.08305e-06
6.0821e-06
6.08106e-06
6.07991e-06
6.07867e-06
6.07732e-06
6.07586e-06
6.07434e-06
6.07282e-06
6.07149e-06
6.07061e-06
6.07042e-06
6.07106e-06
6.07247e-06
6.07448e-06
6.07693e-06
6.0797e-06
6.08275e-06
6.08611e-06
6.08967e-06
6.09384e-06
6.09719e-06
6.1056e-06
0.00867028
0.0147436
0.0190399
0.021532
0.0225762
0.0224237
0.0212368
0.0191481
0.0162646
0.0126352
0.0082939
0.00370183
0.000616974
0.000148616
1.9519e-09
5.5492e-08
6.73608e-06
7.58683e-06
6.05517e-06
5.94481e-06
6.10495e-06
6.11947e-06
6.10026e-06
6.10019e-06
6.10307e-06
6.10139e-06
6.09864e-06
6.09675e-06
6.09525e-06
6.0938e-06
6.09257e-06
6.09168e-06
6.09112e-06
6.09078e-06
6.09055e-06
6.09038e-06
6.09022e-06
6.09005e-06
6.08984e-06
6.08959e-06
6.08932e-06
6.089e-06
6.08865e-06
6.08826e-06
6.08782e-06
6.08733e-06
6.08679e-06
6.08619e-06
6.08554e-06
6.08482e-06
6.08404e-06
6.08318e-06
6.08224e-06
6.08122e-06
6.08009e-06
6.07886e-06
6.07753e-06
6.07609e-06
6.07458e-06
6.07305e-06
6.07168e-06
6.0707e-06
6.07039e-06
6.07089e-06
6.07219e-06
6.07413e-06
6.07654e-06
6.07928e-06
6.08231e-06
6.08564e-06
6.08918e-06
6.09332e-06
6.09665e-06
6.10499e-06
0.0111049
0.01882
0.023977
0.0268555
0.0280891
0.0280444
0.0269281
0.024885
0.0220296
0.0184367
0.014128
0.00913013
0.00404614
0.000705588
0.000207201
1.68767e-10
3.91079e-08
4.95431e-06
8.10822e-06
6.34129e-06
5.87224e-06
6.06364e-06
6.1376e-06
6.10763e-06
6.09274e-06
6.09796e-06
6.10101e-06
6.09861e-06
6.09554e-06
6.09376e-06
6.09276e-06
6.09196e-06
6.0913e-06
6.09085e-06
6.09059e-06
6.09043e-06
6.09027e-06
6.0901e-06
6.08988e-06
6.08964e-06
6.08936e-06
6.08905e-06
6.08871e-06
6.08832e-06
6.08789e-06
6.08741e-06
6.08688e-06
6.08629e-06
6.08565e-06
6.08494e-06
6.08417e-06
6.08333e-06
6.0824e-06
6.08139e-06
6.08029e-06
6.07908e-06
6.07777e-06
6.07635e-06
6.07484e-06
6.07331e-06
6.07189e-06
6.07083e-06
6.07038e-06
6.07073e-06
6.0719e-06
6.07376e-06
6.07612e-06
6.07883e-06
6.08184e-06
6.08514e-06
6.08865e-06
6.09277e-06
6.09609e-06
6.10433e-06
0.0136868
0.0231464
0.0291972
0.0325697
0.0341056
0.0342614
0.0332873
0.0313455
0.0285581
0.0250163
0.0207739
0.0158272
0.0102327
0.00465933
0.000960837
0.000311432
1.85477e-07
2.60998e-08
2.40606e-06
8.15238e-06
6.8155e-06
5.82276e-06
5.92732e-06
6.13852e-06
6.14821e-06
6.1017e-06
6.08826e-06
6.09451e-06
6.09778e-06
6.09565e-06
6.09294e-06
6.09169e-06
6.09134e-06
6.0911e-06
6.09079e-06
6.0905e-06
6.09029e-06
6.09012e-06
6.08993e-06
6.0897e-06
6.08942e-06
6.08911e-06
6.08877e-06
6.08839e-06
6.08797e-06
6.0875e-06
6.08698e-06
6.0864e-06
6.08577e-06
6.08508e-06
6.08432e-06
6.08349e-06
6.08259e-06
6.0816e-06
6.08052e-06
6.07933e-06
6.07804e-06
6.07664e-06
6.07515e-06
6.07361e-06
6.07215e-06
6.07099e-06
6.07041e-06
6.07059e-06
6.07162e-06
6.07337e-06
6.07567e-06
6.07835e-06
6.08133e-06
6.08461e-06
6.0881e-06
6.09219e-06
6.09549e-06
6.10364e-06
0.0171511
0.0277894
0.0346384
0.0385866
0.0405421
0.0410104
0.0402767
0.0385215
0.0358749
0.0324371
0.028282
0.0234448
0.017917
0.0117705
0.00570601
0.00143073
5.03258e-05
3.41092e-05
1.03372e-08
3.63055e-07
7.02461e-06
8.31037e-06
6.19907e-06
5.68718e-06
5.96188e-06
6.15749e-06
6.14913e-06
6.1001e-06
6.08563e-06
6.09129e-06
6.09526e-06
6.09394e-06
6.09153e-06
6.09048e-06
6.09047e-06
6.0906e-06
6.09051e-06
6.09025e-06
6.08997e-06
6.08972e-06
6.08946e-06
6.08918e-06
6.08885e-06
6.08848e-06
6.08806e-06
6.0876e-06
6.08709e-06
6.08653e-06
6.08591e-06
6.08523e-06
6.08449e-06
6.08369e-06
6.0828e-06
6.08183e-06
6.08077e-06
6.07961e-06
6.07834e-06
6.07696e-06
6.07548e-06
6.07395e-06
6.07246e-06
6.07121e-06
6.07047e-06
6.07048e-06
6.07134e-06
6.07297e-06
6.07519e-06
6.07784e-06
6.08079e-06
6.08405e-06
6.08751e-06
6.09157e-06
6.09486e-06
6.10291e-06
0.021885
0.0327634
0.0402392
0.0447984
0.0472719
0.0481691
0.0477924
0.0463349
0.0439329
0.0406908
0.0366917
0.0319953
0.0266281
0.0205788
0.0139395
0.00730936
0.00236329
0.000344505
8.69861e-05
8.97071e-10
3.62469e-08
2.76806e-06
8.94042e-06
8.00451e-06
6.05534e-06
5.70362e-06
5.97801e-06
6.15451e-06
6.14657e-06
6.09849e-06
6.08199e-06
6.08777e-06
6.09396e-06
6.09417e-06
6.09178e-06
6.09014e-06
6.08983e-06
6.09006e-06
6.09015e-06
6.08995e-06
6.08961e-06
6.08925e-06
6.08892e-06
6.08857e-06
6.08818e-06
6.08774e-06
6.08724e-06
6.08669e-06
6.08608e-06
6.08542e-06
6.0847e-06
6.08391e-06
6.08304e-06
6.0821e-06
6.08106e-06
6.07992e-06
6.07868e-06
6.07732e-06
6.07586e-06
6.07432e-06
6.07281e-06
6.07148e-06
6.0706e-06
6.07042e-06
6.07108e-06
6.07255e-06
6.07469e-06
6.07729e-06
6.08022e-06
6.08345e-06
6.08689e-06
6.09092e-06
6.09419e-06
6.10214e-06
0.027495
0.0380329
0.0459393
0.0510773
0.0541274
0.0555553
0.0556562
0.0546243
0.052596
0.0496753
0.0459465
0.0414787
0.0363228
0.0304994
0.0240061
0.0169091
0.00976013
0.00397485
0.000501525
0.000330047
4.16812e-06
9.1648e-09
4.57263e-08
4.31346e-06
9.04848e-06
7.61753e-06
6.00504e-06
5.7249e-06
5.97756e-06
6.15206e-06
6.15156e-06
6.09976e-06
6.07579e-06
6.08016e-06
6.09012e-06