/*--------------------------------*- C++ -*----------------------------------*\
| =========                 |                                                 |
| \\      /  F ield         | OpenFOAM: The Open Source CFD Toolbox           |
|  \\    /   O peration     | Version:  2312                                  |
|   \\  /    A nd           | Website:  www.openfoam.com                      |
|    \\/     M anipulation  |                                                 |
\*---------------------------------------------------------------------------*/
FoamFile
{
    version     2.0;
    format      ascii;
    arch        "LSB;label=32;scalar=64";
    class       volScalarField;
    location    "900";
    object      nuTilda;
}
// * * * * * * * * * * * * * * * * * * * * * * * * * * * * * * * * * * * * * //

dimensions      [0 2 -1 0 0 0 0];

internalField   nonuniform List<scalar> 
11040
(
7.28959e-05
8.58836e-05
5.29012e-05
8.10292e-05
0.000196727
0.000190472
0.000181653
0.00017253
0.000161334
0.000154495
0.000147531
0.00014153
0.000136175
0.000132004
0.000128439
0.000126505
0.000126232
0.000127597
0.00013023
0.000133976
0.000138931
0.000144956
0.000151843
0.000159442
0.000167871
0.000178027
0.000189837
0.000201571
0.000212685
0.000222596
0.000230677
0.000236303
0.000240302
0.000247117
0.000265974
0.000253506
0.000181754
0.000190014
0.000207503
0.000226263
0.000298398
3.6106e-05
7.2105e-05
8.67156e-05
0.000156266
0.000602006
0.000628953
0.000553153
0.000509718
0.000443973
0.000408855
0.000372745
0.00034462
0.000318307
0.000298512
0.000280017
0.000267172
0.000260798
0.000260043
0.000262281
0.000266252
0.000272093
0.000279847
0.000287959
0.00029529
0.000302779
0.000317845
0.000345014
0.000376672
0.000412449
0.000452449
0.0004969
0.00054612
0.000599312
0.000658243
0.000725087
0.000792725
0.000861281
0.000952433
0.00106084
0.00114827
0.00161103
3.89654e-05
4.54413e-05
6.66397e-05
9.3546e-05
0.000414656
0.00096498
0.00118655
0.00114702
0.0010044
0.000929865
0.000847359
0.000786313
0.00072675
0.000683195
0.000641288
0.000607919
0.000582425
0.000562918
0.000551544
0.00054731
0.000551618
0.000565491
0.000589653
0.000624963
0.000671501
0.000729074
0.000797459
0.000876138
0.000964757
0.00106272
0.00116911
0.00128312
0.00140427
0.00153321
0.00167104
0.00181795
0.00198024
0.00218032
0.0024238
0.0026629
0.00348473
4.07551e-05
3.8235e-05
4.71456e-05
4.7875e-05
0.000152838
0.000596389
0.00130406
0.00170755
0.0017779
0.00168794
0.00154434
0.00144416
0.00133951
0.00126246
0.00118719
0.00112461
0.00107848
0.00104186
0.00101994
0.00101106
0.00101699
0.00104072
0.00108477
0.0011503
0.00123676
0.00134299
0.00146806
0.00161093
0.00177068
0.00194624
0.00213605
0.00233867
0.002553
0.00277931
0.0030185
0.0032732
0.00355541
0.00389666
0.00431512
0.00477002
0.00593014
4.02478e-05
3.94322e-05
4.06159e-05
3.8768e-05
3.75815e-05
0.000186781
0.00070905
0.00156041
0.0022543
0.00246477
0.00247701
0.00237081
0.00220715
0.00208944
0.00197519
0.00187205
0.00179952
0.00173971
0.00170287
0.00168735
0.00169324
0.00172609
0.00179201
0.00189294
0.00202805
0.00219594
0.00239489
0.00262261
0.00287706
0.00315628
0.00345717
0.00377688
0.00411329
0.00446611
0.00483594
0.00522685
0.00565524
0.0061665
0.00679464
0.007523
0.00898701
4.00489e-05
4.02204e-05
3.96707e-05
4.09622e-05
2.8393e-05
2.40822e-05
0.000182533
0.000731267
0.00171475
0.00273078
0.00320627
0.00337625
0.00336458
0.00325574
0.0030787
0.00291594
0.00280863
0.0027167
0.00265675
0.00263119
0.00263453
0.00267426
0.00276339
0.00290576
0.00310014
0.00334529
0.00363857
0.00397561
0.00435205
0.00476478
0.0052082
0.00567688
0.00616692
0.006677
0.00720672
0.00776083
0.00836035
0.00906329
0.00992915
0.0109759
0.0127588
4.00688e-05
4.01289e-05
3.98994e-05
4.05203e-05
3.97494e-05
1.99547e-05
5.91574e-06
0.000136555
0.000660669
0.0017091
0.00301305
0.00395225
0.00433213
0.00447699
0.00446906
0.00436771
0.00421849
0.00406591
0.00396993
0.0039299
0.00392866
0.00397103
0.00408188
0.00426972
0.00453239
0.00486973
0.00527872
0.00575225
0.00628093
0.00686052
0.00748162
0.00813429
0.00881145
0.00951019
0.0102279
0.0109683
0.0117567
0.0126621
0.0137786
0.0151677
0.0173138
4.00868e-05
4.0082e-05
4.0119e-05
3.99646e-05
4.08992e-05
3.99774e-05
9.12591e-06
1.77989e-06
8.39089e-05
0.000514253
0.00152245
0.00302375
0.00449146
0.0053082
0.0056763
0.00582205
0.0058486
0.00579838
0.00572851
0.00567082
0.00566719
0.00572323
0.00585882
0.00609663
0.00643424
0.00687546
0.00741963
0.00805834
0.00877097
0.00955281
0.0103896
0.0112634
0.0121616
0.013079
0.014009
0.0149516
0.0159352
0.0170372
0.0183888
0.020108
0.0226269
4.00835e-05
4.00902e-05
4.00822e-05
4.01186e-05
3.98673e-05
4.19283e-05
3.87014e-05
1.41739e-05
1.85644e-05
2.14174e-05
0.00031903
0.00118223
0.00271635
0.00460383
0.00612925
0.00689448
0.007298
0.00750334
0.00762696
0.00770966
0.0078078
0.0079482
0.00817298
0.0085112
0.0089637
0.00953051
0.0102196
0.0110356
0.011962
0.0129801
0.0140711
0.0152045
0.0163557
0.0175174
0.0186784
0.019827
0.0209952
0.0222702
0.023794
0.0257752
0.0286097
4.00823e-05
4.00853e-05
4.00848e-05
4.00951e-05
4.00576e-05
3.99578e-05
4.22524e-05
3.76955e-05
2.03588e-05
8.52257e-06
6.11273e-05
0.000142111
0.00077629
0.00214588
0.00419835
0.0064067
0.0079848
0.00880188
0.00931944
0.00968555
0.0100231
0.0103766
0.0108085
0.0113635
0.0120616
0.0129028
0.0138768
0.0149654
0.0161505
0.0174303
0.0188045
0.0202284
0.0216525
0.0230673
0.0244635
0.0258028
0.0271154
0.028505
0.0300992
0.0321901
0.0351771
4.00801e-05
4.00819e-05
4.00843e-05
4.00767e-05
4.01087e-05
3.9976e-05
4.02022e-05
4.17331e-05
3.96914e-05
2.66743e-05
7.09313e-06
2.14165e-05
1.68028e-05
0.000373621
0.00141587
0.00332198
0.00587836
0.00841643
0.0101608
0.0111733
0.0119483
0.0126316
0.0133555
0.0142037
0.0152303
0.0164538
0.0178702
0.0194611
0.0211915
0.0230128
0.0248606
0.0266606
0.028369
0.0300225
0.0316517
0.0331473
0.0345171
0.0359311
0.0374708
0.0393965
0.0422112
4.00775e-05
4.00791e-05
4.00787e-05
4.00797e-05
4.00752e-05
4.00917e-05
3.99891e-05
4.01839e-05
4.12553e-05
4.09594e-05
3.26915e-05
5.38747e-06
4.56231e-06
6.32474e-05
0.000119409
0.000727293
0.00219128
0.00462143
0.00769721
0.0106781
0.0128087
0.0141926
0.0153732
0.016582
0.0179622
0.0195787
0.0214481
0.0235673
0.0259033
0.0284005
0.0309897
0.0335896
0.0361085
0.0384547
0.0405121
0.0421575
0.0434403
0.0447738
0.0461023
0.047582
0.0497844
4.00751e-05
4.00758e-05
4.00756e-05
4.00753e-05
4.00749e-05
4.00739e-05
4.00764e-05
4.00184e-05
4.01123e-05
4.08461e-05
4.17135e-05
3.65006e-05
1.63046e-05
5.10288e-06
1.47806e-05
0.000120913
0.000231116
0.00111293
0.00297566
0.00591815
0.00959068
0.0131426
0.0158165
0.0177852
0.0196482
0.0216817
0.0239643
0.0265488
0.0294214
0.032525
0.0357874
0.0391245
0.0424394
0.0456361
0.0486124
0.0512552
0.0534676
0.0551737
0.0562675
0.0570331
0.0584793
4.00729e-05
4.00734e-05
4.00734e-05
4.00734e-05
4.00727e-05
4.00716e-05
4.00716e-05
4.00715e-05
4.00371e-05
4.00499e-05
4.04823e-05
4.18059e-05
3.977e-05
2.76844e-05
3.10391e-06
2.18111e-06
2.70255e-05
0.000181909
0.000355869
0.001443
0.00364358
0.00691746
0.0108138
0.0148528
0.0185169
0.0216125
0.0244767
0.0275177
0.0308617
0.0344738
0.0382976
0.0422625
0.0462641
0.0502028
0.0539768
0.057487
0.0606438
0.0633879
0.0656503
0.067403
0.0686902
4.00709e-05
4.00723e-05
4.00726e-05
4.00725e-05
4.00719e-05
4.00712e-05
4.00703e-05
4.00706e-05
4.00695e-05
4.00553e-05
4.00055e-05
4.0259e-05
4.13616e-05
4.12616e-05
3.66232e-05
1.77996e-05
5.70528e-06
7.5172e-07
4.00086e-05
0.000225369
0.00042068
0.00154365
0.00357548
0.00656998
0.0103703
0.0147344
0.0193894
0.0240332
0.0284716
0.032773
0.0371354
0.041655
0.0462751
0.0508864
0.0553813
0.0596621
0.0636513
0.0673125
0.070578
0.0733937
0.0757554
4.00693e-05
4.00717e-05
4.00718e-05
4.00713e-05
4.00705e-05
4.00697e-05
4.00691e-05
4.00685e-05
4.00684e-05
4.00687e-05
4.00628e-05
4.00032e-05
4.01332e-05
4.06298e-05
4.18753e-05
3.97207e-05
3.27668e-05
8.06441e-06
3.68872e-06
3.9092e-07
4.52908e-05
0.00020176
0.000254198
0.00102399
0.00249054
0.00477937
0.00792592
0.0119003
0.0166249
0.0219911
0.0278118
0.0337974
0.0396618
0.0452698
0.0506145
0.0557173
0.0605704
0.0651578
0.0694142
0.0732703
0.0767006
4.00679e-05
4.00704e-05
4.00701e-05
4.00691e-05
4.00682e-05
4.00675e-05
4.00669e-05
4.00665e-05
4.00662e-05
4.00657e-05
4.00679e-05
4.00613e-05
4.00353e-05
4.00147e-05
4.03415e-05
4.11036e-05
4.18771e-05
3.81742e-05
2.77416e-05
4.38415e-06
2.95962e-06
3.44227e-07
2.39468e-05
9.49856e-05
0.000274167
0.000279295
0.00100484
0.00226235
0.00420512
0.00692305
0.010475
0.0148823
0.0201054
0.0260542
0.0325463
0.0392964
0.0459771
0.0523589
0.0582572
0.0635814
0.0683384
4.00662e-05
4.00681e-05
4.00676e-05
4.00667e-05
4.00659e-05
4.00653e-05
4.0065e-05
4.00648e-05
4.00645e-05
4.00643e-05
4.0064e-05
4.00654e-05
4.00637e-05
4.00479e-05
4.00059e-05
4.01031e-05
4.05303e-05
4.15975e-05
4.16369e-05
3.73774e-05
2.5609e-05
4.01603e-06
3.00062e-06
7.37335e-07
0
2.3132e-05
8.1785e-05
0.000193057
6.93032e-05
0.0003606
0.00105826
0.00224106
0.00400688
0.00647111
0.00969135
0.0136839
0.0183999
0.023798
0.0297274
0.0359951
0.0423961
4.0064e-05
4.00652e-05
4.00644e-05
4.00633e-05
4.00624e-05
4.00619e-05
4.00615e-05
4.00614e-05
4.00613e-05
4.00614e-05
4.00613e-05
4.00614e-05
4.00617e-05
4.00639e-05
4.00531e-05
4.00323e-05
3.99993e-05
4.02132e-05
4.08123e-05
4.17394e-05
4.13888e-05
3.67377e-05
2.83652e-05
9.08127e-06
4.0468e-06
1.82991e-06
5.02945e-07
0
5.26074e-06
2.68685e-05
7.74031e-05
0.000163084
1.19641e-05
0.000121958
0.000409147
0.0011122
0.00221984
0.00382222
0.00596947
0.00868441
0.0120236
4.00616e-05
4.00623e-05
4.00613e-05
4.00602e-05
4.00594e-05
4.00589e-05
4.00586e-05
4.00586e-05
4.00586e-05
4.00587e-05
4.00588e-05
4.0059e-05
4.00591e-05
4.00596e-05
4.00605e-05
4.00595e-05
4.00418e-05
4.00107e-05
4.0025e-05
4.03095e-05
4.10016e-05
4.17216e-05
4.16126e-05
3.84399e-05
3.22838e-05
2.38609e-05
6.68906e-06
3.4985e-06
1.81486e-06
1.2636e-06
2.60838e-07
0
8.19353e-07
8.21254e-06
2.70402e-05
7.20688e-05
0.000140826
0.000239559
0.000377528
5.87829e-05
0.000396265
4.00591e-05
4.00594e-05
4.00584e-05
4.00574e-05
4.00569e-05
4.00566e-05
4.00565e-05
4.00566e-05
4.00567e-05
4.00569e-05
4.00571e-05
4.00573e-05
4.00575e-05
4.00577e-05
4.0058e-05
4.00588e-05
4.00599e-05
4.00533e-05
4.00283e-05
3.99982e-05
4.00486e-05
4.03691e-05
4.09136e-05
4.174e-05
4.18222e-05
4.09462e-05
3.77727e-05
3.24047e-05
2.56925e-05
1.82597e-05
3.84684e-06
2.80039e-06
1.73823e-06
1.36557e-06
9.71221e-07
3.31552e-07
0
0
0
3.42471e-06
2.25666e-05
4.00566e-05
4.00567e-05
4.00559e-05
4.00553e-05
4.00551e-05
4.00551e-05
4.00553e-05
4.00556e-05
4.00559e-05
4.00562e-05
4.00564e-05
4.00567e-05
4.00569e-05
4.00571e-05
4.00573e-05
4.00574e-05
4.00581e-05
4.00592e-05
4.00584e-05
4.00478e-05
4.00173e-05
4.00009e-05
4.0038e-05
4.02679e-05
4.07058e-05
4.12278e-05
4.18652e-05
4.19757e-05
4.12421e-05
3.9787e-05
3.67932e-05
3.24927e-05
2.74259e-05
2.19501e-05
1.59295e-05
5.55329e-06
2.98413e-06
1.70909e-06
1.46133e-06
1.21338e-06
9.49748e-07
4.00541e-05
4.00543e-05
4.0054e-05
4.00539e-05
4.00541e-05
4.00546e-05
4.0055e-05
4.00555e-05
4.0056e-05
4.00564e-05
4.00567e-05
4.0057e-05
4.00573e-05
4.00575e-05
4.00577e-05
4.00578e-05
4.00579e-05
4.00582e-05
4.0059e-05
4.006e-05
4.00574e-05
4.00447e-05
4.00207e-05
3.99955e-05
4.00163e-05
4.01071e-05
4.0341e-05
4.07185e-05
4.11718e-05
4.15913e-05
4.20391e-05
4.2097e-05
4.16656e-05
4.0693e-05
3.92746e-05
3.70457e-05
3.41172e-05
3.06065e-05
2.67741e-05
2.267e-05
1.81646e-05
4.00519e-05
4.00524e-05
4.00527e-05
4.00532e-05
4.00539e-05
4.00547e-05
4.00554e-05
4.00561e-05
4.00567e-05
4.00572e-05
4.00577e-05
4.0058e-05
4.00583e-05
4.00586e-05
4.00588e-05
4.0059e-05
4.00591e-05
4.00592e-05
4.00593e-05
4.00597e-05
4.00607e-05
4.00611e-05
4.0059e-05
4.0049e-05
4.00304e-05
4.00083e-05
3.99933e-05
4.00094e-05
4.0085e-05
4.02229e-05
4.0453e-05
4.07649e-05
4.11205e-05
4.14804e-05
4.17912e-05
4.20928e-05
4.22188e-05
4.20891e-05
4.16746e-05
4.09611e-05
4.00366e-05
4.00499e-05
4.00511e-05
4.0052e-05
4.00531e-05
4.00542e-05
4.00552e-05
4.00562e-05
4.0057e-05
4.00577e-05
4.00583e-05
4.00589e-05
4.00593e-05
4.00597e-05
4.006e-05
4.00603e-05
4.00605e-05
4.00607e-05
4.00609e-05
4.0061e-05
4.00611e-05
4.00613e-05
4.00617e-05
4.00626e-05
4.00633e-05
4.00621e-05
4.00573e-05
4.00466e-05
4.00299e-05
4.00108e-05
3.99959e-05
3.99914e-05
4.00097e-05
4.00609e-05
4.01536e-05
4.02858e-05
4.04652e-05
4.06861e-05
4.09419e-05
4.12125e-05
4.14805e-05
4.17187e-05
4.00484e-05
4.00503e-05
4.00519e-05
4.00534e-05
4.00548e-05
4.0056e-05
4.00571e-05
4.0058e-05
4.00588e-05
4.00595e-05
4.00601e-05
4.00607e-05
4.00611e-05
4.00615e-05
4.00619e-05
4.00622e-05
4.00624e-05
4.00627e-05
4.00629e-05
4.0063e-05
4.00632e-05
4.00634e-05
4.00636e-05
4.0064e-05
4.00647e-05
4.00655e-05
4.00657e-05
4.00645e-05
4.00607e-05
4.00536e-05
4.00428e-05
4.00288e-05
4.00133e-05
3.99992e-05
3.99899e-05
3.99882e-05
3.99978e-05
4.00237e-05
4.0068e-05
4.01369e-05
4.02144e-05
4.00473e-05
4.00499e-05
4.0052e-05
4.00538e-05
4.00554e-05
4.00567e-05
4.00579e-05
4.00589e-05
4.00598e-05
4.00606e-05
4.00613e-05
4.00619e-05
4.00625e-05
4.00629e-05
4.00634e-05
4.00637e-05
4.00641e-05
4.00644e-05
4.00647e-05
4.00649e-05
4.00652e-05
4.00654e-05
4.00656e-05
4.00658e-05
4.0066e-05
4.00663e-05
4.00668e-05
4.00675e-05
4.00682e-05
4.00686e-05
4.00684e-05
4.00672e-05
4.00644e-05
4.00597e-05
4.00531e-05
4.00445e-05
4.00344e-05
4.00231e-05
4.00115e-05
4.00009e-05
3.99926e-05
4.00466e-05
4.00499e-05
4.00523e-05
4.00543e-05
4.00559e-05
4.00574e-05
4.00586e-05
4.00597e-05
4.00607e-05
4.00615e-05
4.00623e-05
4.0063e-05
4.00636e-05
4.00642e-05
4.00647e-05
4.00652e-05
4.00656e-05
4.0066e-05
4.00663e-05
4.00667e-05
4.0067e-05
4.00673e-05
4.00676e-05
4.00679e-05
4.00681e-05
4.00683e-05
4.00685e-05
4.00688e-05
4.00691e-05
4.00695e-05
4.007e-05
4.00706e-05
4.00712e-05
4.00717e-05
4.0072e-05
4.00718e-05
4.00711e-05
4.00697e-05
4.00675e-05
4.00641e-05
4.00607e-05
4.00463e-05
4.005e-05
4.00526e-05
4.00546e-05
4.00563e-05
4.00578e-05
4.00591e-05
4.00603e-05
4.00614e-05
4.00623e-05
4.00632e-05
4.0064e-05
4.00647e-05
4.00653e-05
4.00659e-05
4.00664e-05
4.0067e-05
4.00674e-05
4.00679e-05
4.00683e-05
4.00687e-05
4.00691e-05
4.00694e-05
4.00698e-05
4.00701e-05
4.00704e-05
4.00706e-05
4.00709e-05
4.00711e-05
4.00713e-05
4.00715e-05
4.00718e-05
4.00721e-05
4.00724e-05
4.00728e-05
4.00732e-05
4.00737e-05
4.00742e-05
4.00747e-05
4.00751e-05
4.00755e-05
4.00462e-05
4.005e-05
4.00527e-05
4.00548e-05
4.00565e-05
4.00581e-05
4.00595e-05
4.00608e-05
4.00619e-05
4.0063e-05
4.00639e-05
4.00648e-05
4.00656e-05
4.00663e-05
4.0067e-05
4.00676e-05
4.00682e-05
4.00687e-05
4.00692e-05
4.00697e-05
4.00702e-05
4.00707e-05
4.00711e-05
4.00715e-05
4.00719e-05
4.00722e-05
4.00726e-05
4.00729e-05
4.00732e-05
4.00734e-05
4.00737e-05
4.00739e-05
4.00741e-05
4.00744e-05
4.00746e-05
4.00748e-05
4.0075e-05
4.00753e-05
4.00755e-05
4.00758e-05
4.00761e-05
4.00462e-05
4.00499e-05
4.00526e-05
4.00547e-05
4.00566e-05
4.00582e-05
4.00597e-05
4.00611e-05
4.00623e-05
4.00634e-05
4.00645e-05
4.00654e-05
4.00663e-05
4.00671e-05
4.00679e-05
4.00686e-05
4.00693e-05
4.00699e-05
4.00705e-05
4.00711e-05
4.00716e-05
4.00721e-05
4.00726e-05
4.00731e-05
4.00735e-05
4.00739e-05
4.00743e-05
4.00747e-05
4.0075e-05
4.00754e-05
4.00757e-05
4.0076e-05
4.00762e-05
4.00765e-05
4.00768e-05
4.0077e-05
4.00773e-05
4.00775e-05
4.00777e-05
4.00779e-05
4.00781e-05
4.00459e-05
4.00496e-05
4.00524e-05
4.00546e-05
4.00565e-05
4.00582e-05
4.00597e-05
4.00612e-05
4.00625e-05
4.00637e-05
4.00649e-05
4.00659e-05
4.00669e-05
4.00678e-05
4.00687e-05
4.00695e-05
4.00702e-05
4.00709e-05
4.00716e-05
4.00722e-05
4.00729e-05
4.00735e-05
4.0074e-05
4.00746e-05
4.00751e-05
4.00755e-05
4.0076e-05
4.00764e-05
4.00768e-05
4.00771e-05
4.00775e-05
4.00778e-05
4.00782e-05
4.00785e-05
4.00788e-05
4.00791e-05
4.00794e-05
4.00796e-05
4.00799e-05
4.00801e-05
4.00804e-05
4.00455e-05
4.00492e-05
4.00519e-05
4.00541e-05
4.00561e-05
4.00579e-05
4.00595e-05
4.00611e-05
4.00625e-05
4.00639e-05
4.00651e-05
4.00663e-05
4.00674e-05
4.00684e-05
4.00693e-05
4.00702e-05
4.00711e-05
4.00718e-05
4.00726e-05
4.00733e-05
4.0074e-05
4.00747e-05
4.00753e-05
4.00759e-05
4.00765e-05
4.0077e-05
4.00775e-05
4.00779e-05
4.00784e-05
4.00788e-05
4.00792e-05
4.00796e-05
4.008e-05
4.00803e-05
4.00807e-05
4.0081e-05
4.00813e-05
4.00816e-05
4.00819e-05
4.00822e-05
4.00825e-05
4.0045e-05
4.00486e-05
4.00513e-05
4.00535e-05
4.00555e-05
4.00574e-05
4.00591e-05
4.00608e-05
4.00623e-05
4.00638e-05
4.00652e-05
4.00665e-05
4.00677e-05
4.00688e-05
4.00698e-05
4.00708e-05
4.00718e-05
4.00726e-05
4.00735e-05
4.00743e-05
4.00751e-05
4.00758e-05
4.00765e-05
4.00772e-05
4.00778e-05
4.00783e-05
4.00789e-05
4.00794e-05
4.00799e-05
4.00804e-05
4.00808e-05
4.00812e-05
4.00816e-05
4.0082e-05
4.00824e-05
4.00828e-05
4.00831e-05
4.00835e-05
4.00838e-05
4.00841e-05
4.00844e-05
4.00442e-05
4.00477e-05
4.00504e-05
4.00526e-05
4.00547e-05
4.00567e-05
4.00585e-05
4.00603e-05
4.0062e-05
4.00636e-05
4.00651e-05
4.00665e-05
4.00678e-05
4.0069e-05
4.00702e-05
4.00713e-05
4.00723e-05
4.00733e-05
4.00742e-05
4.00751e-05
4.0076e-05
4.00768e-05
4.00776e-05
4.00783e-05
4.0079e-05
4.00796e-05
4.00802e-05
4.00808e-05
4.00813e-05
4.00818e-05
4.00823e-05
4.00828e-05
4.00832e-05
4.00837e-05
4.00841e-05
4.00845e-05
4.00849e-05
4.00852e-05
4.00856e-05
4.00859e-05
4.00863e-05
4.00432e-05
4.00466e-05
4.00492e-05
4.00515e-05
4.00537e-05
4.00557e-05
4.00577e-05
4.00596e-05
4.00614e-05
4.00631e-05
4.00647e-05
4.00662e-05
4.00677e-05
4.00691e-05
4.00703e-05
4.00716e-05
4.00727e-05
4.00738e-05
4.00748e-05
4.00758e-05
4.00768e-05
4.00777e-05
4.00785e-05
4.00793e-05
4.008e-05
4.00807e-05
4.00814e-05
4.0082e-05
4.00826e-05
4.00832e-05
4.00837e-05
4.00842e-05
4.00847e-05
4.00852e-05
4.00856e-05
4.00861e-05
4.00865e-05
4.00869e-05
4.00873e-05
4.00876e-05
4.0088e-05
4.00419e-05
4.00452e-05
4.00478e-05
4.00501e-05
4.00523e-05
4.00545e-05
4.00565e-05
4.00586e-05
4.00605e-05
4.00623e-05
4.00641e-05
4.00657e-05
4.00673e-05
4.00688e-05
4.00702e-05
4.00716e-05
4.00728e-05
4.0074e-05
4.00752e-05
4.00763e-05
4.00773e-05
4.00783e-05
4.00792e-05
4.00801e-05
4.00809e-05
4.00817e-05
4.00824e-05
4.00831e-05
4.00838e-05
4.00844e-05
4.0085e-05
4.00855e-05
4.0086e-05
4.00865e-05
4.0087e-05
4.00875e-05
4.0088e-05
4.00884e-05
4.00888e-05
4.00892e-05
4.00896e-05
4.00404e-05
4.00435e-05
4.00461e-05
4.00484e-05
4.00507e-05
4.00529e-05
4.00551e-05
4.00572e-05
4.00592e-05
4.00612e-05
4.00631e-05
4.00649e-05
4.00666e-05
4.00682e-05
4.00698e-05
4.00712e-05
4.00726e-05
4.00739e-05
4.00752e-05
4.00764e-05
4.00775e-05
4.00786e-05
4.00797e-05
4.00806e-05
4.00815e-05
4.00823e-05
4.00831e-05
4.00839e-05
4.00846e-05
4.00853e-05
4.00859e-05
4.00865e-05
4.00871e-05
4.00876e-05
4.00882e-05
4.00887e-05
4.00891e-05
4.00896e-05
4.009e-05
4.00905e-05
4.00909e-05
4.00385e-05
4.00415e-05
4.0044e-05
4.00464e-05
4.00487e-05
4.0051e-05
4.00532e-05
4.00554e-05
4.00575e-05
4.00596e-05
4.00616e-05
4.00635e-05
4.00653e-05
4.00671e-05
4.00688e-05
4.00704e-05
4.00719e-05
4.00734e-05
4.00747e-05
4.0076e-05
4.00773e-05
4.00785e-05
4.00796e-05
4.00806e-05
4.00816e-05
4.00825e-05
4.00834e-05
4.00842e-05
4.0085e-05
4.00857e-05
4.00864e-05
4.00871e-05
4.00877e-05
4.00883e-05
4.00888e-05
4.00894e-05
4.00899e-05
4.00904e-05
4.00909e-05
4.00913e-05
4.00918e-05
4.00364e-05
4.00392e-05
4.00416e-05
4.0044e-05
4.00463e-05
4.00486e-05
4.00508e-05
4.0053e-05
4.00552e-05
4.00574e-05
4.00595e-05
4.00615e-05
4.00635e-05
4.00654e-05
4.00672e-05
4.00689e-05
4.00706e-05
4.00721e-05
4.00736e-05
4.00751e-05
4.00765e-05
4.00777e-05
4.0079e-05
4.00801e-05
4.00812e-05
4.00822e-05
4.00831e-05
4.0084e-05
4.00848e-05
4.00856e-05
4.00864e-05
4.00871e-05
4.00877e-05
4.00883e-05
4.00889e-05
4.00895e-05
4.009e-05
4.00906e-05
4.00911e-05
4.00915e-05
4.0092e-05
4.00338e-05
4.00365e-05
4.00388e-05
4.00411e-05
4.00434e-05
4.00456e-05
4.00478e-05
4.00501e-05
4.00523e-05
4.00545e-05
4.00567e-05
4.00588e-05
4.00609e-05
4.00629e-05
4.00649e-05
4.00667e-05
4.00685e-05
4.00702e-05
4.00718e-05
4.00734e-05
4.00749e-05
4.00763e-05
4.00776e-05
4.00788e-05
4.00799e-05
4.0081e-05
4.0082e-05
4.0083e-05
4.00839e-05
4.00847e-05
4.00855e-05
4.00863e-05
4.0087e-05
4.00877e-05
4.00883e-05
4.00889e-05
4.00895e-05
4.009e-05
4.00905e-05
4.0091e-05
4.00915e-05
4.00309e-05
4.00334e-05
4.00356e-05
4.00377e-05
4.00399e-05
4.0042e-05
4.00442e-05
4.00464e-05
4.00487e-05
4.00509e-05
4.00532e-05
4.00554e-05
4.00576e-05
4.00597e-05
4.00618e-05
4.00637e-05
4.00656e-05
4.00675e-05
4.00692e-05
4.00709e-05
4.00724e-05
4.00739e-05
4.00753e-05
4.00767e-05
4.00779e-05
4.00791e-05
4.00802e-05
4.00812e-05
4.00821e-05
4.0083e-05
4.00839e-05
4.00847e-05
4.00854e-05
4.00861e-05
4.00868e-05
4.00874e-05
4.0088e-05
4.00885e-05
4.00891e-05
4.00895e-05
4.009e-05
4.00276e-05
4.00298e-05
4.00318e-05
4.00338e-05
4.00358e-05
4.00378e-05
4.00399e-05
4.00421e-05
4.00443e-05
4.00466e-05
4.00488e-05
4.00511e-05
4.00534e-05
4.00556e-05
4.00577e-05
4.00598e-05
4.00618e-05
4.00638e-05
4.00656e-05
4.00674e-05
4.0069e-05
4.00706e-05
4.00721e-05
4.00735e-05
4.00748e-05
4.00761e-05
4.00772e-05
4.00783e-05
4.00793e-05
4.00803e-05
4.00811e-05
4.0082e-05
4.00828e-05
4.00835e-05
4.00842e-05
4.00849e-05
4.00855e-05
4.00861e-05
4.00866e-05
4.00872e-05
4.00877e-05
4.00238e-05
4.00257e-05
4.00275e-05
4.00292e-05
4.0031e-05
4.00328e-05
4.00348e-05
4.00369e-05
4.00391e-05
4.00413e-05
4.00436e-05
4.00458e-05
4.00481e-05
4.00504e-05
4.00526e-05
4.00548e-05
4.00569e-05
4.00589e-05
4.00608e-05
4.00627e-05
4.00645e-05
4.00662e-05
4.00678e-05
4.00693e-05
4.00707e-05
4.0072e-05
4.00733e-05
4.00744e-05
4.00755e-05
4.00765e-05
4.00775e-05
4.00784e-05
4.00792e-05
4.00799e-05
4.00807e-05
4.00813e-05
4.00819e-05
4.00825e-05
4.00831e-05
4.00836e-05
4.0084e-05
4.00195e-05
4.00211e-05
4.00225e-05
4.0024e-05
4.00255e-05
4.00272e-05
4.0029e-05
4.00309e-05
4.00329e-05
4.0035e-05
4.00372e-05
4.00394e-05
4.00417e-05
4.00439e-05
4.00462e-05
4.00484e-05
4.00505e-05
4.00526e-05
4.00546e-05
4.00565e-05
4.00584e-05
4.00601e-05
4.00618e-05
4.00633e-05
4.00647e-05
4.00661e-05
4.00674e-05
4.00686e-05
4.00697e-05
4.00707e-05
4.00717e-05
4.00726e-05
4.00735e-05
4.00743e-05
4.00751e-05
4.00758e-05
4.00764e-05
4.00771e-05
4.00777e-05
4.00782e-05
4.00787e-05
4.00146e-05
4.00158e-05
4.00169e-05
4.00181e-05
4.00194e-05
4.00208e-05
4.00223e-05
4.0024e-05
4.00257e-05
4.00276e-05
4.00296e-05
4.00316e-05
4.00337e-05
4.00359e-05
4.0038e-05
4.004e-05
4.00421e-05
4.00442e-05
4.00462e-05
4.00482e-05
4.00501e-05
4.0052e-05
4.00537e-05
4.00554e-05
4.0057e-05
4.00585e-05
4.006e-05
4.00613e-05
4.00625e-05
4.00637e-05
4.00648e-05
4.00658e-05
4.00667e-05
4.00676e-05
4.00684e-05
4.00691e-05
4.00698e-05
4.00704e-05
4.0071e-05
4.00715e-05
4.0072e-05
4.00092e-05
4.001e-05
4.00107e-05
4.00115e-05
4.00124e-05
4.00134e-05
4.00146e-05
4.00158e-05
4.00172e-05
4.00186e-05
4.00202e-05
4.00219e-05
4.00237e-05
4.00256e-05
4.00277e-05
4.00299e-05
4.00321e-05
4.00343e-05
4.00364e-05
4.00385e-05
4.00404e-05
4.00422e-05
4.0044e-05
4.00457e-05
4.00472e-05
4.00487e-05
4.00501e-05
4.00514e-05
4.00526e-05
4.00537e-05
4.00548e-05
4.00558e-05
4.00567e-05
4.00576e-05
4.00584e-05
4.00592e-05
4.00598e-05
4.00605e-05
4.00611e-05
4.00617e-05
4.00622e-05
4.00031e-05
4.00034e-05
4.00037e-05
4.0004e-05
4.00044e-05
4.00048e-05
4.00054e-05
4.00059e-05
4.00066e-05
4.00073e-05
4.0008e-05
4.00087e-05
4.00095e-05
4.00103e-05
4.00111e-05
4.00119e-05
4.00127e-05
4.00134e-05
4.00141e-05
4.00149e-05
4.00157e-05
4.00165e-05
4.00174e-05
4.00184e-05
4.00193e-05
4.00203e-05
4.00213e-05
4.00222e-05
4.00232e-05
4.00241e-05
4.0025e-05
4.00259e-05
4.00267e-05
4.00275e-05
4.00283e-05
4.0029e-05
4.00297e-05
4.00303e-05
4.00309e-05
4.00315e-05
4.00321e-05
0.00362319
0.00712454
0.0101846
0.0122505
0.0131657
0.0129665
0.0117394
0.00962613
0.0067448
0.003342
0.00066935
0.000144314
5.84218e-06
2.3631e-05
4.29297e-05
4.09902e-05
3.96773e-05
3.99966e-05
4.01016e-05
4.00631e-05
4.00581e-05
4.00648e-05
4.00656e-05
4.00642e-05
4.00624e-05
4.00598e-05
4.00567e-05
4.00534e-05
4.00503e-05
4.00476e-05
4.00456e-05
4.00442e-05
4.00433e-05
4.00427e-05
4.00424e-05
4.00421e-05
4.00418e-05
4.00415e-05
4.00411e-05
4.00406e-05
4.00401e-05
4.00395e-05
4.00389e-05
4.00381e-05
4.00373e-05
4.00363e-05
4.00353e-05
4.00342e-05
4.00329e-05
4.00315e-05
4.00301e-05
4.00284e-05
4.00266e-05
4.00247e-05
4.00225e-05
4.00202e-05
4.00176e-05
4.00149e-05
4.00121e-05
4.00093e-05
4.00069e-05
4.00054e-05
4.00053e-05
4.00067e-05
4.00095e-05
4.00133e-05
4.0018e-05
4.00232e-05
4.00289e-05
4.00351e-05
4.00418e-05
4.00496e-05
4.00558e-05
4.00716e-05
0.00620348
0.0108561
0.0144326
0.0166577
0.0176049
0.0174099
0.0161943
0.0140871
0.0111879
0.00754379
0.00350327
0.000617633
0.000143294
6.23165e-06
2.01282e-05
4.30955e-05
4.18321e-05
3.97212e-05
3.98834e-05
4.0095e-05
4.00777e-05
4.00601e-05
4.00647e-05
4.00656e-05
4.00625e-05
4.00598e-05
4.00572e-05
4.00541e-05
4.00508e-05
4.0048e-05
4.00459e-05
4.00444e-05
4.00434e-05
4.00428e-05
4.00425e-05
4.00422e-05
4.00419e-05
4.00416e-05
4.00412e-05
4.00407e-05
4.00402e-05
4.00396e-05
4.00389e-05
4.00382e-05
4.00374e-05
4.00365e-05
4.00354e-05
4.00343e-05
4.00331e-05
4.00317e-05
4.00303e-05
4.00287e-05
4.00269e-05
4.0025e-05
4.00228e-05
4.00205e-05
4.0018e-05
4.00153e-05
4.00125e-05
4.00096e-05
4.00072e-05
4.00055e-05
4.00052e-05
4.00064e-05
4.0009e-05
4.00127e-05
4.00173e-05
4.00224e-05
4.00281e-05
4.00343e-05
4.00409e-05
4.00487e-05
4.00549e-05
4.00705e-05
0.00867028
0.0147436
0.0190399
0.021532
0.0225762
0.0224237
0.0212368
0.0191481
0.0162646
0.0126352
0.0082939
0.00370185
0.00061791
0.000161292
5.14161e-06
1.18853e-05
4.12028e-05
4.2632e-05
3.99768e-05
3.97701e-05
4.00693e-05
4.00961e-05
4.00606e-05
4.00604e-05
4.00658e-05
4.00627e-05
4.00576e-05
4.00541e-05
4.00513e-05
4.00486e-05
4.00463e-05
4.00447e-05
4.00436e-05
4.0043e-05
4.00426e-05
4.00423e-05
4.0042e-05
4.00416e-05
4.00413e-05
4.00408e-05
4.00403e-05
4.00397e-05
4.0039e-05
4.00383e-05
4.00375e-05
4.00366e-05
4.00356e-05
4.00345e-05
4.00333e-05
4.00319e-05
4.00305e-05
4.00289e-05
4.00272e-05
4.00252e-05
4.00232e-05
4.00209e-05
4.00184e-05
4.00157e-05
4.00129e-05
4.00101e-05
4.00075e-05
4.00057e-05
4.00051e-05
4.00061e-05
4.00085e-05
4.00121e-05
4.00166e-05
4.00217e-05
4.00273e-05
4.00335e-05
4.004e-05
4.00477e-05
4.00539e-05
4.00693e-05
0.0111049
0.01882
0.023977
0.0268555
0.0280891
0.0280444
0.0269281
0.024885
0.0220296
0.0184367
0.014128
0.00913014
0.00404616
0.000706305
0.000214694
2.78787e-06
1.08868e-05
3.77959e-05
4.34605e-05
4.05019e-05
3.96329e-05
3.99926e-05
4.01297e-05
4.00742e-05
4.00466e-05
4.00563e-05
4.0062e-05
4.00575e-05
4.00518e-05
4.00485e-05
4.00467e-05
4.00452e-05
4.0044e-05
4.00431e-05
4.00427e-05
4.00423e-05
4.00421e-05
4.00417e-05
4.00413e-05
4.00409e-05
4.00404e-05
4.00398e-05
4.00392e-05
4.00384e-05
4.00376e-05
4.00367e-05
4.00358e-05
4.00347e-05
4.00335e-05
4.00322e-05
4.00307e-05
4.00292e-05
4.00275e-05
4.00256e-05
4.00235e-05
4.00213e-05
4.00188e-05
4.00162e-05
4.00134e-05
4.00106e-05
4.00079e-05
4.00059e-05
4.00051e-05
4.00058e-05
4.00079e-05
4.00114e-05
4.00158e-05
4.00208e-05
4.00264e-05
4.00325e-05
4.00391e-05
4.00467e-05
4.00528e-05
4.00681e-05
0.0136868
0.0231464
0.0291972
0.0325697
0.0341056
0.0342614
0.0332873
0.0313455
0.0285581
0.0250163
0.0207739
0.0158272
0.0102327
0.00465935
0.000961224
0.000314998
1.60981e-05
9.83765e-06
3.10826e-05
4.35292e-05
4.13408e-05
3.95387e-05
3.97372e-05
4.01314e-05
4.01492e-05
4.00632e-05
4.00383e-05
4.00499e-05
4.0056e-05
4.0052e-05
4.0047e-05
4.00447e-05
4.0044e-05
4.00436e-05
4.0043e-05
4.00425e-05
4.00421e-05
4.00418e-05
4.00414e-05
4.0041e-05
4.00405e-05
4.00399e-05
4.00393e-05
4.00386e-05
4.00378e-05
4.00369e-05
4.00359e-05
4.00349e-05
4.00337e-05
4.00324e-05
4.0031e-05
4.00295e-05
4.00278e-05
4.0026e-05
4.00239e-05
4.00217e-05
4.00193e-05
4.00167e-05
4.0014e-05
4.00111e-05
4.00084e-05
4.00063e-05
4.00052e-05
4.00055e-05
4.00074e-05
4.00107e-05
4.00149e-05
4.00199e-05
4.00255e-05
4.00316e-05
4.0038e-05
4.00456e-05
4.00517e-05
4.00668e-05
0.0171511
0.0277894
0.0346384
0.0385866
0.0405421
0.0410104
0.0402767
0.0385215
0.0358749
0.0324371
0.028282
0.0234448
0.017917
0.0117705
0.00570602
0.00143091
8.24555e-05
6.98819e-05
7.80169e-06
1.90776e-05
4.16993e-05
4.37731e-05
4.02428e-05
3.92781e-05
3.98023e-05
4.01663e-05
4.01509e-05
4.00603e-05
4.00334e-05
4.0044e-05
4.00513e-05
4.00489e-05
4.00444e-05
4.00424e-05
4.00424e-05
4.00427e-05
4.00425e-05
4.0042e-05
4.00415e-05
4.0041e-05
4.00406e-05
4.004e-05
4.00394e-05
4.00387e-05
4.0038e-05
4.00371e-05
4.00362e-05
4.00351e-05
4.0034e-05
4.00327e-05
4.00313e-05
4.00298e-05
4.00282e-05
4.00264e-05
4.00244e-05
4.00223e-05
4.00199e-05
4.00173e-05
4.00146e-05
4.00117e-05
4.0009e-05
4.00067e-05
4.00053e-05
4.00053e-05
4.00069e-05
4.00099e-05
4.00141e-05
4.0019e-05
4.00245e-05
4.00305e-05
4.00369e-05
4.00445e-05
4.00506e-05
4.00655e-05
0.0218851
0.0327634
0.0402392
0.0447984
0.0472719
0.0481691
0.0477924
0.0463349
0.0439329
0.0406908
0.0366917
0.0319953
0.0266281
0.0205788
0.0139395
0.00730937
0.00236335
0.000347445
0.000110231
4.23325e-06
1.06815e-05
3.22646e-05
4.47198e-05
4.32983e-05
3.99771e-05
3.93099e-05
3.98326e-05
4.01609e-05
4.01462e-05
4.00573e-05
4.00267e-05
4.00374e-05
4.00489e-05
4.00493e-05
4.00448e-05
4.00418e-05
4.00412e-05
4.00417e-05
4.00418e-05
4.00415e-05
4.00408e-05
4.00402e-05
4.00395e-05
4.00389e-05
4.00382e-05
4.00374e-05
4.00364e-05
4.00354e-05
4.00343e-05
4.00331e-05
4.00317e-05
4.00302e-05
4.00286e-05
4.00269e-05
4.0025e-05
4.00228e-05
4.00205e-05
4.0018e-05
4.00153e-05
4.00124e-05
4.00096e-05
4.00072e-05
4.00055e-05
4.00052e-05
4.00064e-05
4.00092e-05
4.00131e-05
4.0018e-05
4.00234e-05
4.00294e-05
4.00358e-05
4.00433e-05
4.00493e-05
4.00641e-05
0.027495
0.0380329
0.0459393
0.0510773
0.0541274
0.0555553
0.0556562
0.0546243
0.052596
0.0496753
0.0459465
0.0414787
0.0363228
0.0304994
0.0240061
0.0169091
0.00976013
0.00397488
0.000502936
0.000333239
3.60391e-05
7.57018e-06
1.1322e-05
3.63792e-05
4.48782e-05
4.26817e-05
3.98832e-05
3.9351e-05
3.98317e-05
4.01563e-05
4.01554e-05
4.00597e-05
4.00152e-05