/*--------------------------------*- C++ -*----------------------------------*\
| =========                 |                                                 |
| \\      /  F ield         | OpenFOAM: The Open Source CFD Toolbox           |
|  \\    /   O peration     | Version:  2312                                  |
|   \\  /    A nd           | Website:  www.openfoam.com                      |
|    \\/     M anipulation  |                                                 |
\*---------------------------------------------------------------------------*/
FoamFile
{
    version     2.0;
    format      ascii;
    arch        "LSB;label=32;scalar=64";
    class       volScalarField;
    location    "900";
    object      p;
}
// * * * * * * * * * * * * * * * * * * * * * * * * * * * * * * * * * * * * * //

dimensions      [0 2 -2 0 0 0 0];

internalField   nonuniform List<scalar> 
11040
(
-19.1321
-24.5053
-19.8223
-19.1977
-19.0723
-18.8695
-18.6683
-18.5019
-18.375
-18.287
-18.2077
-18.1432
-18.0931
-18.0484
-18.0156
-17.9902
-17.974
-17.9671
-17.9688
-17.9805
-17.9998
-18.028
-18.0679
-18.1182
-18.1731
-18.2267
-18.2712
-18.2973
-18.2939
-18.2502
-18.1564
-18.0051
-17.7925
-17.5216
-17.207
-16.8737
-16.5399
-16.2705
-16.2401
-16.225
-16.6686
-8.18661
-14.6908
-18.5429
-19.0194
-19.0315
-18.8796
-18.6792
-18.5087
-18.3761
-18.2865
-18.2066
-18.1404
-18.0899
-18.0445
-18.0111
-17.9853
-17.9686
-17.9612
-17.9625
-17.9738
-17.993
-18.0211
-18.0605
-18.1105
-18.1655
-18.2197
-18.2653
-18.2931
-18.2922
-18.2517
-18.1613
-18.0139
-17.8058
-17.5395
-17.2292
-16.9
-16.5701
-16.3004
-16.2734
-16.2391
-17.0758
-1.51955
-8.44028
-14.6299
-17.9614
-18.7761
-18.8321
-18.6859
-18.5156
-18.3738
-18.2834
-18.204
-18.136
-18.0855
-18.0394
-18.0055
-17.9792
-17.962
-17.9542
-17.955
-17.9657
-17.9846
-18.0129
-18.0522
-18.1018
-18.1568
-18.2114
-18.2581
-18.2875
-18.2891
-18.2519
-18.1657
-18.0233
-17.8213
-17.5617
-17.2586
-16.937
-16.616
-16.3518
-16.3376
-16.2816
-17.2854
2.40412
-4.64789
-10.5663
-14.9069
-17.5655
-18.5399
-18.6068
-18.516
-18.3712
-18.2775
-18.1989
-18.1287
-18.079
-18.032
-17.9976
-17.971
-17.9531
-17.9449
-17.9451
-17.9553
-17.9739
-18.0024
-18.0417
-18.0911
-18.1463
-18.2017
-18.2498
-18.2816
-18.2865
-18.2538
-18.1733
-18.0377
-17.8437
-17.5932
-17.2996
-16.9879
-16.6785
-16.4245
-16.4242
-16.3624
-17.3675
4.92148
-0.849314
-6.50902
-11.2297
-14.8077
-17.1705
-18.2214
-18.3557
-18.3635
-18.2755
-18.1952
-18.1175
-18.0699
-18.0222
-17.9877
-17.9607
-17.942
-17.9335
-17.933
-17.9426
-17.9607
-17.9893
-18.0284
-18.0777
-18.1333
-18.1898
-18.2399
-18.2748
-18.2843
-18.2575
-18.1845
-18.058
-17.8746
-17.6362
-17.3554
-17.0571
-16.7627
-16.5245
-16.5327
-16.4837
-17.4044
6.35536
1.84471
-3.02801
-7.70124
-11.5931
-14.5483
-16.656
-17.7815
-18.1215
-18.2216
-18.195
-18.1085
-18.0589
-18.0087
-17.975
-17.9481
-17.9287
-17.9199
-17.9187
-17.9276
-17.9449
-17.9734
-18.0123
-18.0615
-18.1176
-18.1754
-18.2282
-18.2672
-18.2824
-18.2634
-18.2001
-18.0854
-17.9158
-17.693
-17.4291
-17.1482
-16.873
-16.6561
-16.6648
-16.6476
-17.4416
7.12894
3.51823
-0.428864
-4.52079
-8.38405
-11.6394
-14.1679
-16.0679
-17.2898
-17.8749
-18.0259
-18.1022
-18.0558
-17.9969
-17.9582
-17.9317
-17.9124
-17.904
-17.9021
-17.9103
-17.9266
-17.9546
-17.9929
-18.0419
-18.0985
-18.1581
-18.2141
-18.2583
-18.2809
-18.2717
-18.2209
-18.1211
-17.969
-17.766
-17.5236
-17.2645
-17.0129
-16.8215
-16.8245
-16.8496
-17.4959
7.43454
4.50749
1.36616
-1.99602
-5.43
-8.68986
-11.5058
-13.7369
-15.4637
-16.74
-17.4907
-17.8158
-17.9655
-18.002
-17.9486
-17.9156
-17.8911
-17.8841
-17.8823
-17.8907
-17.9058
-17.9327
-17.9701
-18.0186
-18.0756
-18.1371
-18.1971
-18.2476
-18.2794
-18.2825
-18.2471
-18.1659
-18.0354
-17.8569
-17.6407
-17.4082
-17.1841
-17.0195
-17.0144
-17.0781
-17.5701
7.43303
5.02234
2.4991
-0.21478
-3.08111
-5.98197
-8.77162
-11.2541
-13.2777
-14.8667
-16.1127
-17.006
-17.5317
-17.764
-17.907
-17.9193
-17.8755
-17.8627
-17.8571
-17.8669
-17.8816
-17.9076
-17.9438
-17.9912
-18.0485
-18.112
-18.1764
-18.2343
-18.2771
-18.2949
-18.2782
-18.2195
-18.1151
-17.9658
-17.7806
-17.5786
-17.3848
-17.2449
-17.2314
-17.3139
-17.6597
7.21762
5.19747
3.1397
0.952658
-1.38857
-3.83277
-6.30456
-8.71258
-10.9231
-12.7945
-14.2766
-15.4682
-16.4335
-17.1161
-17.5111
-17.723
-17.8568
-17.8632
-17.8367
-17.8408
-17.8511
-17.8768
-17.9125
-17.9591
-18.0167
-18.0822
-18.1513
-18.2175
-18.2726
-18.3072
-18.3121
-18.2796
-18.2054
-18.0895
-17.9391
-17.7705
-17.607
-17.487
-17.4627
-17.5343
-17.7532
6.85609
5.13782
3.43086
1.65207
-0.249425
-2.26671
-4.36197
-6.48262
-8.56908
-10.5381
-12.2733
-13.6983
-14.8481
-15.809
-16.5854
-17.1391
-17.4723
-17.6905
-17.8261
-17.8391
-17.8253
-17.8415
-17.8725
-17.9182
-17.9774
-18.0459
-18.1204
-18.1957
-18.2642
-18.3172
-18.3458
-18.3418
-18.3002
-18.2198
-18.1057
-17.9706
-17.8342
-17.7261
-17.684
-17.7167
-17.8271
6.39696
4.91603
3.47616
2.00816
0.456449
-1.1944
-2.93564
-4.73944
-6.56703
-8.37655
-10.1172
-11.7201
-13.1064
-14.2419
-15.1776
-15.9783
-16.6342
-17.117
-17.43
-17.6639
-17.8093
-17.8382
-17.8414
-17.8725
-17.9266
-17.9962
-18.0774
-18.164
-18.2479
-18.3208
-18.3741
-18.3997
-18.391
-18.3453
-18.2646
-18.158
-18.0405
-17.9335
-17.8621
-17.8365
-17.8511
5.87697
4.5869
3.35439
2.12408
0.842895
-0.511581
-1.94473
-3.45003
-5.00753
-6.58634
-8.15362
-9.68455
-11.146
-12.4768
-13.6151
-14.5517
-15.3432
-16.0355
-16.6169
-17.0618
-17.3618
-17.6076
-17.8027
-17.8861
-17.9094
-17.9487
-18.0197
-18.1108
-18.2095
-18.3039
-18.384
-18.4403
-18.4644
-18.4512
-18.3994
-18.3139
-18.2043
-18.0842
-17.9693
-17.8741
-17.7996
5.32393
4.19098
3.12334
2.07746
1.00528
-0.116113
-1.29726
-2.54147
-3.84439
-5.19024
-6.55397
-7.91484
-9.25918
-10.5685
-11.8105
-12.9344
-13.8963
-14.6997
-15.3956
-16.0175
-16.5623
-16.9552
-17.2146
-17.4754
-17.7506
-17.9508
-18.0515
-18.1088
-18.1728
-18.2552
-18.3456
-18.4272
-18.4839
-18.504
-18.4804
-18.4125
-18.3048
-18.1649
-18.0023
-17.836
-17.6762
4.75872
3.75836
2.8254
1.92588
1.01714
0.0780887
-0.902361
-1.9313
-3.01159
-4.13869
-5.29966
-6.47977
-7.66523
-8.84222
-10.0001
-11.1258
-12.1942
-13.1664
-14.0127
-14.737
-15.401
-15.9485
-16.3511
-16.6927
-16.9801
-17.2432
-17.5463
-17.8738
-18.145
-18.3177
-18.411
-18.459
-18.4804
-18.4791
-18.4495
-18.3837
-18.2749
-18.1238
-17.9311
-17.7131
-17.4863
4.20115
3.3149
2.4943
1.71308
0.934013
0.138566
-0.683341
-1.53957
-2.43548
-3.37208
-4.34439
-5.34564
-6.36763
-7.39815
-8.42536
-9.44067
-10.4386
-11.4112
-12.3429
-13.2035
-13.9791
-14.6294
-15.1495
-15.5959
-15.9922
-16.3437
-16.6485
-16.9098
-17.165
-17.4621
-17.7986
-18.116
-18.3504
-18.4741
-18.4902
-18.4165
-18.2693
-18.0607
-17.7924
-17.4859
-17.1721
3.67328
2.88713
2.16255
1.479
0.804511
0.123296
-0.573172
-1.29215
-2.03962
-2.81851
-3.62799
-4.46584
-5.32893
-6.2105
-7.10175
-7.99315
-8.87649
-9.74618
-10.5993
-11.432
-12.2356
-12.9729
-13.6161
-14.1707
-14.6559
-15.0889
-15.4776
-15.8271
-16.1418
-16.4182
-16.6506
-16.8474
-17.0298
-17.2143
-17.3879
-17.5212
-17.5807
-17.5491
-17.4102
-17.1805
-16.9006
3.20612
2.50401
1.8592
1.25444
0.662186
0.0692514
-0.531425
-1.14614
-1.78031
-2.43722
-3.11787
-3.82227
-4.5497
-5.29683
-6.05871
-6.82906
-7.60088
-8.36733
-9.12273
-9.86353
-10.5865
-11.267
-11.8905
-12.4582
-12.9697
-13.4282
-13.8397
-14.2126
-14.5529
-14.862
-15.1408
-15.3887
-15.599
-15.7645
-15.8733
-15.9216
-15.9109
-15.8558
-15.7476
-15.5873
-15.4133
2.80771
2.17515
1.59594
1.05483
0.527935
0.00415277
-0.522483
-1.05749
-1.6057
-2.1703
-2.75254
-3.35338
-3.97308
-4.61003
-5.26142
-5.92348
-6.59165
-7.26082
-7.92543
-8.5797
-9.21792
-9.81359
-10.3524
-10.8413
-11.285
-11.6894
-12.0588
-12.3959
-12.7031
-12.9824
-13.2349
-13.4601
-13.6542
-13.813
-13.93
-14.0004
-14.018
-13.9861
-13.8973
-13.7442
-13.566
2.4699
1.89661
1.37275
0.884577
0.411267
-0.0565653
-0.524034
-0.995937
-1.47649
-1.96852
-2.47331
-2.99205
-3.52545
-4.07267
-4.63203
-5.20101
-5.77643
-6.35455
-6.93126
-7.50209
-8.06239
-8.5889
-9.06693
-9.49964
-9.888
-10.2345
-10.5426
-10.8157
-11.0569
-11.2682
-11.4507
-11.6043
-11.7289
-11.8236
-11.8878
-11.9194
-11.9162
-11.8773
-11.8009
-11.6801
-11.5271
2.18171
1.65995
1.18383
0.740816
0.312778
-0.108287
-0.526819
-0.947013
-1.3725
-1.80574
-2.24793
-2.70011
-3.16314
-3.63656
-4.11924
-4.60944
-5.10479
-5.60246
-6.09914
-6.59119
-7.07479
-7.53068
-7.94647
-8.32381
-8.66229
-8.96258
-9.22593
-9.45374
-9.64751
-9.8088
-9.93914
-10.0398
-10.1121
-10.1562
-10.1728
-10.1617
-10.1234
-10.0562
-9.96276
-9.84208
-9.69713
1.93486
1.45863
1.02441
0.620715
0.231811
-0.149178
-0.526156
-0.902797
-1.28223
-1.66653
-2.05679
-2.45384
-2.85847
-3.2704
-3.68877
-4.11224
-4.53901
-4.96678
-5.39286
-5.81414
-6.22727
-6.61614
-6.97057
-7.29174
-7.57906
-7.83288
-8.05392
-8.24302
-8.40108
-8.52906
-8.62794
-8.69868
-8.74226
-8.75974
-8.75255
-8.72162
-8.66841
-8.59323
-8.49932
-8.38671
-8.2588
1.72262
1.28703
0.889995
0.52103
0.166495
-0.179547
-0.520558
-0.859765
-1.19985
-1.54257
-1.88884
-2.23933
-2.59466
-2.95462
-3.31849
-3.68516
-4.05314
-4.42055
-4.78514
-5.14429
-5.49513
-5.82423
-6.12338
-6.39336
-6.6335
-6.84397
-7.02535
-7.17835
-7.3038
-7.40266
-7.47591
-7.52463
-7.5499
-7.55291
-7.535
-7.49718
-7.4406
-7.36626
-7.27653
-7.17194
-7.05518
1.53961
1.14056
0.776836
0.43887
0.114886
-0.200266
-0.50968
-0.816194
-1.1221
-1.42889
-1.7373
-2.04787
-2.36103
-2.67657
-2.99385
-3.3119
-3.62943
-3.94486
-4.25626
-4.5614
-4.85782
-5.13447
-5.38483
-5.60954
-5.80797
-5.98028
-6.12698
-6.24877
-6.34646
-6.421
-6.47345
-6.50492
-6.51654
-6.50954
-6.48524
-6.44474
-6.38918
-6.31962
-6.23791
-6.14483
-6.04215
1.38143
1.01542
0.681711
0.37162
0.075026
-0.212563
-0.493927
-0.77156
-1.04743
-1.32277
-1.5982
-1.87411
-2.15078
-2.42799
-2.70513
-2.98132
-3.25545
-3.52611
-3.79168
-4.05023
-4.29967
-4.53095
-4.73907
-4.9246
-5.08709
-5.22674
-5.3441
-5.43986
-5.51486
-5.57005
-5.60646
-5.62522
-5.62746
-5.61436
-5.58722
-5.54712
-5.49518
-5.4323
-5.36019
-5.27948
-5.19201
1.24448
0.908444
0.6019
0.317015
0.0451274
-0.217695
-0.473958
-0.725857
-0.975074
-1.22265
-1.46906
-1.71461
-1.95945
-2.20332
-2.44566
-2.68566
-2.92234
-3.15447
-3.38064
-3.59922
-3.80845
-4.00096
-4.17303
-4.32524
-4.4573
-4.5695
-4.66244
-4.73686
-4.79358
-4.83354
-4.85775
-4.86727
-4.8632
-4.84661
-4.81871
-4.78047
-4.73292
-4.67682
-4.61371
-4.544
-4.46955
1.12574
0.81698
0.5351
0.273092
0.0235855
-0.216873
-0.450551
-0.679379
-0.904797
-1.12767
-1.34839
-1.56715
-1.78404
-1.99876
-2.21078
-2.41938
-2.62368
-2.82262
-3.01499
-3.19942
-3.37443
-3.53408
-3.67569
-3.79986
-3.9065
-3.99595
-4.06888
-4.12603
-4.16822
-4.19634
-4.21138
-4.21429
-4.20609
-4.18775
-4.16032
-4.12468
-4.08172
-4.03206
-3.97702
-3.91691
-3.85335
1.02271
0.7388
0.47936
0.238167
0.00899588
-0.2112
-0.424475
-0.632528
-0.836591
-1.03739
-1.23524
-1.43026
-1.62247
-1.8116
-1.99712
-2.17841
-2.35468
-2.52503
-2.68843
-2.84375
-2.98977
-3.12174
-3.23782
-3.33867
-3.42428
-3.49511
-3.55183
-3.59519
-3.62598
-3.64507
-3.65332
-3.65165
-3.64095
-3.62207
-3.59593
-3.5633
-3.52492
-3.48134
-3.43362
-3.38203
-3.32795
0.933272
0.672019
0.433019
0.210798
0.000135257
-0.20166
-0.396454
-0.585742
-0.77058
-0.951582
-1.12899
-1.3029
-1.47327
-1.63985
-1.80216
-1.95964
-2.11162
-2.25735
-2.39597
-2.52654
-2.64809
-2.75687
-2.8517
-2.93325
-3.00163
-3.05735
-3.10108
-3.13356
-3.15555
-3.16783
-3.1712
-3.16649
-3.15447
-3.13589
-3.11153
-3.08206
-3.0481
-3.0101
-2.96895
-2.92484
-2.87898
0.855618
0.615033
0.394664
0.189748
-0.00404808
-0.189111
-0.367135
-0.539439
-0.706928
-0.870128
-1.02924
-1.18431
-1.33531
-1.48199
-1.62393
-1.76065
-1.89158
-2.0161
-2.13353
-2.24311
-2.34408
-2.43351
-2.51073
-2.57643
-2.6308
-2.67436
-2.70778
-2.73178
-2.74704
-2.7543
-2.75427
-2.74767
-2.73518
-2.71745
-2.69514
-2.66881
-2.63899
-2.60604
-2.5707
-2.53309
-2.49428
0.788215
0.566477
0.363089
0.173961
-0.00445947
-0.174293
-0.337084
-0.493992
-0.645804
-0.79297
-0.935663
-1.07392
-1.2077
-1.33679
-1.46084
-1.57943
-1.69212
-1.79839
-1.89773
-1.98953
-2.07325
-2.14658
-2.20928
-2.26202
-2.30505
-2.33889
-2.3642
-2.38163
-2.39184
-2.39546
-2.39314
-2.38551
-2.37315
-2.35661
-2.33645
-2.31314
-2.28711
-2.25868
-2.22843
-2.19645
-2.16366
0.729744
0.525177
0.33726
0.162534
-0.00187017
-0.15784
-0.306783
-0.449727
-0.587355
-0.720064
-0.848012
-0.971237
-1.0897
-1.20323
-1.31155
-1.41433
-1.5112
-1.60178
-1.68569
-1.76247
-1.83174
-1.89173
-1.94251
-1.98471
-2.01863
-2.04477
-2.06375
-2.07618
-2.08265
-2.08372
-2.07997
-2.07192
-2.0601
-2.04494
-2.02694
-2.00647
-1.98389
-1.95945
-1.93365
-1.90652
-1.87886
0.679068
0.490127
0.316289
0.154691
0.00305864
-0.14029
-0.276644
-0.406911
-0.531699
-0.651362
-0.766057
-0.875828
-0.980662
-1.08042
-1.17492
-1.26388
-1.34705
-1.42415
-1.49491
-1.55901
-1.6162
-1.66517
-1.70618
-1.73983
-1.76644
-1.78649
-1.80057
-1.80921
-1.81294
-1.81228
-1.8077
-1.79967
-1.78862
-1.77494
-1.75901
-1.74115
-1.72168
-1.70076
-1.67882
-1.65587
-1.6326
0.635205
0.460456
0.299415
0.149768
0.00976591
-0.122099
-0.247004
-0.365764
-0.47892
-0.586804
-0.689576
-0.787304
-0.879996
-0.967571
-1.04991
-1.12681
-1.19811
-1.26364
-1.32321
-1.37664
-1.42378
-1.46366
-1.4967
-1.52348
-1.54429
-1.55959
-1.56992
-1.57576
-1.57757
-1.57581
-1.57088
-1.56318
-1.55307
-1.54088
-1.52692
-1.51146
-1.49474
-1.47691
-1.45831
-1.43894
-1.41939
0.5973
0.435409
0.285973
0.147194
0.017769
-0.10365
-0.218147
-0.326457
-0.429072
-0.526313
-0.618356
-0.705292
-0.787167
-0.863952
-0.93559
-1.00197
-1.06299
-1.11857
-1.16862
-1.21305
-1.2518
-1.28419
-1.31072
-1.33192
-1.34809
-1.35966
-1.36709
-1.37084
-1.3713
-1.36885
-1.36386
-1.35665
-1.34754
-1.33678
-1.32463
-1.31133
-1.29706
-1.28194
-1.26625
-1.24997
-1.23361
0.564612
0.414329
0.275391
0.14647
0.0266537
-0.085271
-0.190307
-0.289122
-0.38218
-0.469799
-0.552176
-0.629438
-0.701669
-0.768896
-0.831122
-0.888317
-0.940446
-0.987503
-1.02948
-1.06637
-1.09818
-1.12446
-1.14575
-1.16254
-1.17511
-1.18385
-1.18917
-1.19146
-1.19108
-1.18835
-1.18356
-1.177
-1.16892
-1.15954
-1.14907
-1.1377
-1.12557
-1.11279
-1.09958
-1.08592
-1.07223
0.536501
0.39665
0.26717
0.147167
0.0360621
-0.0672414
-0.163675
-0.253863
-0.338246
-0.417156
-0.490817
-0.559397
-0.62302
-0.681768
-0.735701
-0.784863
-0.829273
-0.868991
-0.904073
-0.934569
-0.960556
-0.981732
-0.998681
-1.01184
-1.02147
-1.02792
-1.03156
-1.03273
-1.03173
-1.02885
-1.02433
-1.01841
-1.0113
-1.00318
-0.994216
-0.984563
-0.974342
-0.963634
-0.952611
-0.941242
-0.929916
0.512399
0.381875
0.260881
0.148918
0.0456887
-0.0497968
-0.138414
-0.220753
-0.297256
-0.368272
-0.434063
-0.494837
-0.55077
-0.601995
-0.648634
-0.690792
-0.72855
-0.762019
-0.791315
-0.816534
-0.837805
-0.854944
-0.868537
-0.878966
-0.886464
-0.891333
-0.893899
-0.894452
-0.893246
-0.890512
-0.886463
-0.881289
-0.875161
-0.868225
-0.860624
-0.852472
-0.843876
-0.834892
-0.825668
-0.816166
-0.806726
0.491763
0.369518
0.256108
0.151378
0.0552602
-0.0331428
-0.114656
-0.189852
-0.259182
-0.323026
-0.381692
-0.435433
-0.484471
-0.528989
-0.569156
-0.605132
-0.637038
-0.665027
-0.689255
-0.709854
-0.726984
-0.74056
-0.751158
-0.759118
-0.764655
-0.768038
-0.769556
-0.76946
-0.76797
-0.76528
-0.76157
-0.756996
-0.751699
-0.745798
-0.739405
-0.732611
-0.7255
-0.718115
-0.710572
-0.702827
-0.695182
0.474128
0.359126
0.252426
0.154177
0.0644827
-0.0174879
-0.0925299
-0.161208
-0.223991
-0.2813
-0.333494
-0.380881
-0.423737
-0.462304
-0.496803
-0.527451
-0.554419
-0.577899
-0.598076
-0.615112
-0.62918
-0.640262
-0.648885
-0.655336
-0.659796
-0.66249
-0.663659
-0.663509
-0.662219
-0.659945
-0.656833
-0.653008
-0.648584
-0.643657
-0.638319
-0.632642
-0.626695
-0.620514
-0.614196
-0.6077
-0.601284
0.459262
0.350476
0.249586
0.157038
0.0730867
-0.00305039
-0.0721719
-0.134871
-0.191656
-0.242986
-0.28927
-0.330867
-0.368103
-0.401258
-0.43058
-0.456309
-0.478644
-0.497803
-0.514
-0.527422
-0.538263
-0.546561
-0.552829
-0.557325
-0.560215
-0.561705
-0.562005
-0.561299
-0.559739
-0.557458
-0.554576
-0.551197
-0.547411
-0.543293
-0.538912
-0.534324
-0.529579
-0.5247
-0.51976
-0.514711
-0.509787
0.447011
0.343532
0.24762
0.159979
0.0810308
0.0100777
-0.0536712
-0.11087
-0.162114
-0.207943
-0.248825
-0.285171
-0.317369
-0.345786
-0.370758
-0.392583
-0.41149
-0.427693
-0.441395
-0.452777
-0.462021
-0.469189
-0.474707
-0.478777
-0.481527
-0.483118
-0.483715
-0.483459
-0.482465
-0.480838
-0.478669
-0.476042
-0.473027
-0.469687
-0.466079
-0.46225
-0.458244
-0.454084
-0.449832
-0.445459
-0.441142
0.436488
0.337509
0.246001
0.162763
0.0882702
0.0219133
-0.0370396
-0.0892416
-0.135351
-0.176023
-0.211846
-0.243303
-0.270775
-0.29456
-0.314947
-0.332254
-0.346794
-0.358864
-0.368723
-0.37658
-0.382633
-0.386971
-0.390025
-0.391978
-0.392951
-0.393093
-0.392554
-0.391457
-0.389905
-0.387984
-0.38577
-0.383326
-0.380706
-0.377952
-0.375102
-0.372186
-0.369231
-0.366245
-0.363269
-0.360257
-0.357383
0.426183
0.33051
0.242764
0.163713
0.0936579
0.0318542
-0.0225103
-0.0701005
-0.111537
-0.147448
-0.178483
-0.205314
-0.228604
-0.248925
-0.266679
-0.282094
-0.295301
-0.306457
-0.315764
-0.323415
-0.329592
-0.334393
-0.338132
-0.340938
-0.342896
-0.34411
-0.344686
-0.344708
-0.344246
-0.343362
-0.342112
-0.340543
-0.338702
-0.336625
-0.334348
-0.331903
-0.329316
-0.326606
-0.323808
-0.320917
-0.318022
0.417423
0.323426
0.237931
0.161995
0.0959037
0.0387157
-0.0107101
-0.053386
-0.0901744
-0.121758
-0.148626
-0.17112
-0.189541
-0.204255
-0.215802
-0.224851
-0.231976
-0.237521
-0.241692
-0.244637
-0.24651
-0.247396
-0.247623
-0.247308
-0.246527
-0.245376
-0.243954
-0.242337
-0.240586
-0.23875
-0.23687
-0.234977
-0.233096
-0.231245
-0.229438
-0.227684
-0.225992
-0.224358
-0.222799
-0.221271
-0.219895
0.416171
0.32361
0.23892
0.163778
0.0990943
0.0443974
-0.00131573
-0.0392425
-0.0706928
-0.0969892
-0.119354
-0.138815
-0.156118
-0.171652
-0.185416
-0.197164
-0.206825
-0.214688
-0.221136
-0.226447
-0.230813
-0.23437
-0.237318
-0.239719
-0.241625
-0.24309
-0.24417
-0.2449
-0.245314
-0.245437
-0.245298
-0.244918
-0.244323
-0.243533
-0.242569
-0.241449
-0.24019
-0.23881
-0.237321
-0.235754
-0.234084
0.419735
0.329943
0.247307
0.173145
0.108527
0.0535454
0.00784112
-0.0291613
-0.0582095
-0.0801671
-0.095954
-0.106514
-0.112828
-0.115934
-0.11696
-0.116934
-0.116292
-0.115094
-0.113349
-0.111132
-0.10854
-0.105614
-0.102574
-0.0994946
-0.0964192
-0.0933941
-0.0904692
-0.0876764
-0.0850388
-0.0825676
-0.0802712
-0.0781491
-0.0761994
-0.0744134
-0.0727825
-0.0712959
-0.0699462
-0.0687147
-0.0675985
-0.0665556
-0.0656499
0.401091
0.309762
0.230258
0.161968
0.104048
0.0552242
0.0142181
-0.0200883
-0.0486743
-0.0724148
-0.0920953
-0.10842
-0.122004
-0.133366
-0.142886
-0.150911
-0.157734
-0.163271
-0.167884
-0.171971
-0.175752
-0.179361
-0.182761
-0.185935
-0.188911
-0.191716
-0.194356
-0.19684
-0.199171
-0.201365
-0.203431
-0.205384
-0.207236
-0.209003
-0.210696
-0.212332
-0.213918
-0.215473
-0.216989
-0.218522
-0.219961
-15.5866
-14.6497
-13.9693
-13.726
-13.4511
-13.0462
-12.5402
-11.9515
-11.2972
-10.5946
-9.86009
-9.10404
-8.34678
-7.60122
-6.87702
-6.18107
-5.51972
-4.89612
-4.31442
-3.77498
-3.28004
-2.82811
-2.41943
-2.05209
-1.72437
-1.43394
-1.17833
-0.954779
-0.760547
-0.592868
-0.448912
-0.326251
-0.222157
-0.134554
-0.0611632
-5.87154e-05
0.050387
0.0918047
0.12545
0.152542
0.174
0.190777
0.20358
0.213026
0.219679
0.224021
0.226374
0.227108
0.226477
0.224684
0.221881
0.218286
0.213929
0.208945
0.203385
0.197281
0.190764
0.183698
0.176257
0.168306
0.159965
0.151108
0.141832
0.132032
0.121669
0.110867
0.0992616
0.0874992
0.0741037
0.0622688
0.044667
0.0379627
0.00451328
0.0299096
-16.295
-15.3647
-14.5468
-14.1263
-13.7449
-13.2756
-12.7255
-12.1037
-11.4233
-10.7013
-9.95463
-9.18896
-8.41901
-7.6602
-6.92426
-6.2182
-5.54813
-4.91723
-4.3293
-3.78484
-3.28571
-2.83049
-2.41922
-2.04992
-1.72076
-1.42932
-1.17308
-0.949194
-0.754852
-0.58724
-0.443499
-0.321131
-0.217414
-0.130211
-0.0572392
0.00343842
0.0534743
0.094498
0.127775
0.15452
0.175666
0.192158
0.204703
0.213917
0.22037
0.224532
0.226729
0.227332
0.226586
0.224693
0.221811
0.218147
0.213734
0.208705
0.203107
0.196982
0.190441
0.183365
0.175914
0.167962
0.15962
0.150772
0.141502
0.131714
0.121366
0.11058
0.0989967
0.0872534
0.0738889
0.062071
0.0445261
0.037809
0.00448934
0.0298243
-16.7808
-16.0997
-15.2141
-14.6197
-14.116
-13.5667
-12.9596
-12.2946
-11.5795
-10.8287
-10.0598
-9.28146
-8.50082
-7.72851
-6.97871
-6.26061
-5.58025
-4.94076
-4.34559
-3.79531
-3.29139
-2.83244
-2.41826
-2.04678
-1.71606
-1.42357
-1.16667
-0.942477
-0.748079
-0.580607
-0.437159
-0.315176
-0.211919
-0.125204
-0.0527351
0.00743938
0.0569952
0.0975608
0.130412
0.15676
0.177551
0.193718
0.20597
0.214926
0.221151
0.225112
0.227136
0.22759
0.226715
0.224714
0.221742
0.218001
0.213528
0.208448
0.202811
0.196659
0.190093
0.183004
0.175543
0.167589
0.159247
0.150407
0.141144
0.131368
0.121038
0.110267
0.0987086
0.0869854
0.0736545
0.0618537
0.0443718
0.037637
0.00446428
0.0297177
-17.2052
-16.7472
-15.9004
-15.1845
-14.5606
-13.9222
-13.2478
-12.53
-11.7722
-10.9853
-10.1851
-9.38349
-8.58918
-7.80524
-7.04137
-6.30929
-5.61669
-4.96704
-4.36346
-3.80638
-3.29696
-2.83377
-2.4163
-2.04241
-1.70999
-1.41638
-1.15884
-0.934376
-0.739997
-0.572762
-0.429708
-0.308221
-0.205533
-0.119411
-0.0475465
0.0120324
0.0610234
0.101055
0.133412
0.159304
0.179686
0.195484
0.207402
0.216067
0.222034
0.225769
0.227601
0.227886
0.226868
0.224747
0.221675
0.21785
0.213309
0.208174
0.202495
0.19631
0.189718
0.182615
0.175142
0.167186
0.158844
0.150012
0.140757
0.130994
0.120681
0.109929
0.0983959
0.086694
0.0733996
0.0616161
0.0442036
0.0374455
0.00443894
0.0295875
-17.5487
-17.2764
-16.5485
-15.7826
-15.0625
-14.3377
-13.5909
-12.8134
-12.0057
-11.1762
-10.3382
-9.50377
-8.68512
-7.88674
-7.1106
-6.36464
-5.65807
-4.99636
-4.38289
-3.81794
-3.3022
-2.83415
-2.413
-2.03643
-1.70217
-1.4074
-1.14923
-0.92457
-0.730312
-0.563437
-0.420912
-0.30006
-0.198077
-0.11268
-0.0415444
0.0173266
0.0656507
0.105056
0.136837
0.162203
0.182114
0.197487
0.209026
0.217361
0.223036
0.226517
0.228131
0.228229
0.22705
0.224796
0.221612
0.217694
0.213078
0.207882
0.202156
0.195936
0.189315
0.182197
0.174712
0.166753
0.15841
0.149586
0.140339
0.130591
0.120297
0.109565
0.0980587
0.0863798
0.0731249
0.0613588
0.0440226
0.0372343
0.00441647
0.0294302
-17.8133
-17.6892
-17.1108
-16.364
-15.5906
-14.7971
-13.9825
-13.1435
-12.2816
-11.4041
-10.523
-9.64956
-8.79663
-7.97325
-7.18209
-6.42363
-5.70352
-5.02885
-4.40366
-3.82951
-3.30655
-2.833
-2.40772
-2.02822
-1.692
-1.39605
-1.13733
-0.912582
-0.718594
-0.552251
-0.41044
-0.290405
-0.189304
-0.1048
-0.0345498
0.0234709
0.0710009
0.109665
0.140771
0.165524
0.184889
0.199771
0.210875
0.21883
0.224174
0.227367
0.228736
0.228622
0.227265
0.224861
0.221553
0.217531
0.212832
0.207568
0.201791
0.195532
0.18888
0.181744
0.174246
0.166284
0.157942
0.149126
0.139888
0.130157
0.119883
0.109172
0.0976948
0.0860404
0.0728286
0.06108
0.0438278
0.0370016
0.00439758
0.0292439
-18.0042
-17.9862
-17.5567
-16.878
-16.1009
-15.2696
-14.4034
-13.5098
-12.5951
-11.6679
-10.7401
-9.82349
-8.93059
-8.07224
-7.25567
-6.48155
-5.74908
-5.06238
-4.42529
-3.84046
-3.30917
-2.8294
-2.3996
-2.01694
-1.67867
-1.38159
-1.12243
-0.897792
-0.704298
-0.538723
-0.397869
-0.278893
-0.178907
-0.0955114
-0.0263438
0.0306491
0.0772256
0.115009
0.145316
0.16935
0.188076
0.202388
0.212991
0.22051
0.225474
0.228339
0.229428
0.229076
0.227516
0.224944
0.221497
0.217359
0.212568
0.207229
0.201395
0.195093
0.188408
0.181253
0.173741
0.165775
0.157434
0.148627
0.1394
0.129687
0.119435
0.108747
0.0973019
0.0856741
0.072509
0.0607781
0.0436182
0.0367462
0.00438214
0.0290274
-18.121
-18.1683
-17.868
-17.2821
-16.5441
-15.712
-14.8203
-13.8888
-12.9307
-11.9583
-10.9849
-10.0236
-9.08793
-8.18956
-7.3379
-6.53804
-5.78998
-5.09156
-4.44407
-3.84892
-3.30889
-2.82212
-2.38727
-2.0013
-1.66106
-1.36299
-1.10362
-0.879359
-0.686683
-0.522217
-0.382655
-0.265054
-0.166483
-0.0844754
-0.0166439
0.0390949
0.0845176
0.121244
0.150602
0.173784
0.19176
0.205406
0.215425
0.222438
0.226965
0.229453
0.230223
0.229599
0.227811
0.225048
0.221446
0.217178
0.212284
0.206862
0.200965
0.194616
0.187894
0.180718
0.173191
0.165222
0.156882
0.148086
0.138871
0.129177
0.11895
0.108287
0.0968768
0.0852775
0.0721635
0.0604506
0.0433921
0.0364659
0.00436989
0.0287788
-18.1713
-18.2432
-18.0347
-17.5464
-16.8735
-16.0746
-15.1884
-14.2434
-13.2598
-12.2543
-11.243
-10.241
-9.26355
-8.32409
-7.4333
-6.59895
-5.82536
-5.11123
-4.4539
-3.85019
-3.30201
-2.80904
-2.36916
-1.9797
-1.63749
-1.33876
-1.07963
-0.85622
-0.664804
-0.501895
-0.364077
-0.24829
-0.151535
-0.0712754
-0.00510128
0.0490977
0.0931135
0.128563
0.156783
0.178953
0.196039
0.208902
0.218239
0.224663
0.228682
0.230736
0.23114
0.230206
0.228157
0.225179
0.2214
0.216987
0.211978
0.206464
0.200497
0.194095
0.187333
0.180134
0.172591
0.164619
0.156281
0.147497
0.138296
0.128624
0.118424
0.107789
0.096417
0.0848489
0.0717905
0.0600961
0.0431485
0.0361598
0.00436109
0.0284967
-18.1605
-18.2184
-18.0588
-17.6519
-17.0533
-16.3093
-15.4574
-14.5265
-13.5411
-12.5221
-11.4878
-10.4559
-9.44377
-8.46701
-7.53817
-6.66686
-5.86016
-5.12112
-4.44893
-3.83805
-3.28348
-2.78505
-2.34117
-1.94969
-1.60615
-1.30707
-1.04862
-0.826745
-0.637359
-0.476704
-0.341227
-0.227803
-0.133382
-0.0553534
0.00873441
0.061024
0.103315
0.137214
0.16406
0.185016
0.201041
0.212976
0.221509
0.227243
0.230671
0.232221
0.232202
0.230911
0.228565
0.225341
0.221362
0.216784
0.211646
0.206028
0.199984
0.193524
0.186718
0.179494
0.171935
0.16396
0.155625
0.146854
0.13767
0.128023
0.117853
0.107249
0.0959188
0.0843848
0.0713872
0.0597121
0.0428857
0.0358255
0.00435554
0.0281799
-18.0886
-18.0979
-17.9462
-17.5925
-17.061
-16.3796
-15.5795
-14.6873
-13.7255
-12.7166
-11.6804
-10.6362
-9.60355
-8.59991
-7.63988
-6.73515
-5.89506
-5.12572
-4.42992
-3.80567
-3.24616
-2.74501
-2.29856
-1.90568
-1.5626
-1.26531
-1.00875
-0.789127
-0.60248
-0.444995
-0.312829
-0.202628
-0.111235
-0.0360244
0.0254527
0.0753561
0.1155
0.147493
0.172669
0.192164
0.206918
0.217747
0.225328
0.230247
0.232982
0.233945
0.233434
0.231731
0.229043
0.225538
0.221332
0.216567
0.211283
0.20555
0.199419
0.192895
0.186042
0.178791
0.171215
0.163238
0.154907
0.146152
0.136987
0.127368
0.117232
0.106663
0.0953789
0.0838825
0.0709513
0.0592966
0.0426024
0.0354622
0.00435298
0.0278276
-17.9486
-17.8874
-17.7072
-17.3723
-16.8879
-16.2653
-15.5222
-14.6811
-13.7632
-12.7878
-11.7732
-10.7392
-9.7062
-8.69297
-7.71556
-6.78741
-5.92035
-5.12315
-4.40109
-3.75574
-3.18415
-2.67987
-2.2354
-1.84406
-1.50229
-1.20753
-0.955214
-0.740598
-0.558499
-0.405227
-0.277182
-0.171166
-0.0838428
-0.0124035
0.0457116
0.0926476
0.130158
0.159815
0.182938
0.200642
0.213854
0.22336
0.229808
0.233764
0.235682
0.235955
0.23487
0.232688
0.229605
0.225777
0.22131
0.216334
0.210884
0.205022
0.198793
0.192199
0.185294
0.178015
0.17042
0.162443
0.154118
0.145383
0.13624
0.126653
0.116554
0.106025
0.0947923
0.0833377
0.0704793
0.0588467
0.0422963
0.0350674
0.00435251
0.0274392
-17.7318
-17.5884
-17.3545
-17.0074
-16.5413
-15.9597
-15.2701
-14.484
-13.6183
-12.6912
-11.7188
-10.7177
-9.70738
-8.70672
-7.73185
-6.79709
-5.91626
-5.10084
-4.35833
-3.69245
-3.1034
-2.58854
-2.14219
-1.7559
-1.42146
-1.13221
-0.884495
-0.675326
-0.500217
-0.354375
-0.232874
-0.132394
-0.049936
0.0169025
0.07069
0.113708
0.147807
0.174557
0.195202
0.21076
0.222111
0.23001
0.235088
0.237888
0.238839
0.238303
0.236546
0.233807
0.230265
0.226064
0.221298
0.21608
0.210443
0.204435
0.198097
0.191425
0.184463
0.177154
0.169541
0.161564
0.153249
0.144536
0.13542
0.125869
0.115815
0.10533
0.0941544
0.0827464
0.069968
0.0583597
0.0419652
0.0346402
0.00435301
0.0270148
-17.4513
-17.219
-16.9102
-16.5223
-16.0476
-15.4822
-14.8273
-14.0884
-13.2762
-12.4044
-11.4848
-10.5321
-9.56465
-8.5988
-7.64919
-6.7294
-5.85422
-5.03699
-4.287
-3.60963
-3.00727
-2.47999
-2.02528
-1.63776
-1.30947
-1.0313
-0.795171
-0.594721
-0.426412
-0.287459
-0.174349
-0.0827211
-0.00808587
0.0523945
0.101047
0.139585
0.169558
0.192571
0.209965
0.222792
0.231881
0.237881
0.241344
0.242769
0.242559
0.241056
0.238505
0.235114
0.23104
0.226407
0.221296
0.215801
0.20995
0.203778
0.197317
0.190559
0.183536
0.176194
0.168564
0.16059
0.152287
0.143601
0.134518
0.125009
0.115004
0.10457
0.093459
0.0821035
0.0694129
0.0578321
0.0416064
0.0341779
0.0043527
0.0265548
-17.137
-16.8252
-16.4331
-15.9777
-15.4606
-14.8806
-14.2346
-13.521
-12.7476
-11.9267
-11.0651
-10.1695
-9.25445
-8.3377
-7.43258
-6.54923
-5.70162
-4.90365
-4.16497
-3.49168
-2.88778
-2.35562
-1.89504
-1.50302
-1.17404
-0.901249
-0.676529
-0.491229
-0.337548
-0.209481
-0.104192
-0.0195345
0.0468874
0.0983074
0.138552
0.170355
0.195188
0.21413
0.22797
0.23754
0.243726
0.247255
0.248697
0.248481
0.246924
0.244294
0.240805
0.236642
0.231943
0.226808
0.2213
0.215489
0.209393
0.203036
0.196438
0.189584
0.182495
0.175119
0.167472
0.159504
0.151219
0.142565
0.133521
0.124062
0.114114
0.103739
0.0926996
0.0814037
0.0688098
0.0572606
0.0412167
0.0336801
0.00434922
0.0260606
-16.7291
-16.3659
-15.9257
-15.4258
-14.8689
-14.2527
-13.5796
-12.8571
-12.0949
-11.3019
-10.4815
-9.63652
-8.77855
-7.92059
-7.07072
-6.23799
-5.43531
-4.67602
-3.96866
-3.3184
-2.72964
-2.2064
-1.75042
-1.36012
-1.03158
-0.759887
-0.539258
-0.362941
-0.223095
-0.111883
-0.022593
0.0498444
0.108169
0.153618
0.187239
0.211197
0.227986
0.240025
0.248699
0.254495
0.257708
0.258597
0.257632
0.255319
0.252042
0.248046
0.243471
0.238424
0.232999
0.227277
0.221305
0.21513
0.208757
0.202191
0.195439
0.188479
0.181319
0.173907
0.166247
0.158288
0.150026
0.141412
0.132416
0.123015
0.113133
0.102825
0.0918679
0.08064
0.0681527
0.0566407
0.0407923
0.0331439
0.00433923
0.0255338
-16.4077
-16.0129
-15.515
-14.9395
-14.3118
-13.638
-12.924
-12.1772
-11.4044
-10.6117
-9.80561
-8.99245
-8.17766
-7.36888
-6.57534
-5.80181
-5.05516
-4.34731
-3.68636
-3.07599
-2.51936
-2.02109
-1.58398
-1.20722
-0.887724