/*--------------------------------*- C++ -*----------------------------------*\
| =========                 |                                                 |
| \\      /  F ield         | OpenFOAM: The Open Source CFD Toolbox           |
|  \\    /   O peration     | Version:  2312                                  |
|   \\  /    A nd           | Website:  www.openfoam.com                      |
|    \\/     M anipulation  |                                                 |
\*---------------------------------------------------------------------------*/
FoamFile
{
    version     2.0;
    format      ascii;
    arch        "LSB;label=32;scalar=64";
    class       surfaceScalarField;
    location    "900";
    object      phi;
}
// * * * * * * * * * * * * * * * * * * * * * * * * * * * * * * * * * * * * * //

dimensions      [0 3 -1 0 0 0 0];

oriented        oriented;

internalField   nonuniform List<scalar> 
21876
(
0.00821918
0.000922004
-0.00914118
0.00235728
0.0058619
-0.000878542
0.00323583
-0.00158515
0.000706619
-0.0014517
-0.000133439
-0.00140661
-4.50822e-05
-0.00135235
-5.42507e-05
-0.00129534
-5.69962e-05
-0.0012481
-4.7234e-05
-0.00122009
-2.79849e-05
-0.00119055
-2.95277e-05
-0.00116417
-2.6364e-05
-0.00114678
-1.73565e-05
-0.0011302
-1.65459e-05
-0.00112174
-8.4378e-06
-0.00111869
-3.03775e-06
-0.00112298
4.32144e-06
-0.00113668
1.37103e-05
-0.00115958
2.29403e-05
-0.0011939
3.43341e-05
-0.00123902
4.51632e-05
-0.00129257
5.36186e-05
-0.00135909
6.65726e-05
-0.00143928
8.02533e-05
-0.00153026
9.09725e-05
-0.00162763
9.73964e-05
-0.00172462
9.69743e-05
-0.00181342
8.88126e-05
-0.00188509
7.16733e-05
-0.00192839
4.33023e-05
-0.00193093
2.53913e-06
-0.00188819
-4.27305e-05
-0.00179811
-9.00757e-05
-0.00165233
-0.000145769
-0.00144275
-0.000209573
-0.0011653
-0.000277417
-0.000817873
-0.000347424
-0.000344166
-0.000473682
0.000234852
-0.00057903
0.000582257
-0.00034723
-0.002189
0.0027714
0.0115533
-0.00064608
-0.00998517
0.0102866
0.00712859
0.00500539
0.00851702
0.000230904
0.00548111
-0.00158426
0.00168174
-0.00163929
9.9652e-06
-0.00165638
-3.71298e-05
-0.00164017
-7.31881e-05
-0.00161537
-7.20049e-05
-0.00160546
-3.78777e-05
-0.00159237
-4.25849e-05
-0.00157839
-4.03123e-05
-0.00157271
-2.29897e-05
-0.00156807
-2.1148e-05
-0.00157169
-4.76942e-06
-0.00158278
8.09619e-06
-0.00160325
2.48505e-05
-0.0016346
4.50961e-05
-0.00167689
6.52971e-05
-0.00173273
9.02094e-05
-0.00180315
0.000115633
-0.00188455
0.000135082
-0.0019789
0.00016099
-0.00208223
0.000183645
-0.00218758
0.000196341
-0.00228818
0.000198012
-0.00237723
0.000186022
-0.00244757
0.000159155
-0.00249193
0.000116034
-0.00250458
5.59683e-05
-0.00248161
-2.04116e-05
-0.00241338
-0.000110934
-0.00228804
-0.000215377
-0.00209604
-0.000337723
-0.00182854
-0.000477027
-0.00147858
-0.000627327
-0.00104146
-0.00078452
-0.00049454
-0.00102056
0.000224456
-0.00129798
0.000980905
-0.00110356
-0.00364005
0.00243204
0.0132714
-0.00291239
-0.0110051
0.0149893
0.00541065
0.0130089
0.0104975
0.0075367
0.0109533
0.00176331
0.00745512
-0.00114851
0.00292179
-0.00170451
0.000518879
-0.00184216
6.44741e-05
-0.00187524
-3.89211e-05
-0.001908
-5.11278e-06
-0.00192771
-2.28708e-05
-0.00193448
-3.35396e-05
-0.00194643
-1.10277e-05
-0.00195645
-1.11199e-05
-0.00197336
1.21422e-05
-0.00199739
3.2128e-05
-0.00203059
5.80528e-05
-0.00207548
8.99814e-05
-0.00213223
0.000122051
-0.00220332
0.000161299
-0.00228937
0.000201696
-0.00238488
0.00023061
-0.0024911
0.000267223
-0.00260398
0.000296543
-0.00271734
0.000309695
-0.00282531
0.000305993
-0.00292163
0.000282335
-0.00299924
0.000236772
-0.00305042
0.000167212
-0.00306695
7.24999e-05
-0.00303936
-4.80058e-05
-0.00295619
-0.000194107
-0.00280629
-0.000365276
-0.00257814
-0.000565877
-0.00226172
-0.000793446
-0.00184757
-0.00104149
-0.00132931
-0.00130278
-0.000689899
-0.00165997
0.000139256
-0.00212715
0.00108442
-0.00204869
-0.00467341
0.0021178
0.0150617
-0.00553415
-0.0124399
0.0174716
0.00300067
0.0186795
0.00928965
0.0164943
0.0131385
0.0107376
0.0132119
0.00398126
0.00967811
-0.000234637
0.00473478
-0.00159886
0.00142871
-0.00192938
0.000291621
-0.0020825
0.000148032
-0.0021839
7.8547e-05
-0.00223985
2.24358e-05
-0.00228793
3.70726e-05
-0.00232365
2.46324e-05
-0.00236033
4.88586e-05
-0.00240132
7.31465e-05
-0.0024496
0.000106374
-0.00250949
0.000149914
-0.00258126
0.000193864
-0.00266779
0.000247855
-0.00276961
0.00030356
-0.00288024
0.00034129
-0.00300135
0.000388371
-0.00312975
0.000424981
-0.00326006
0.000440018
-0.00338641
0.000432356
-0.0035018
0.000397721
-0.0035978
0.000332782
-0.00366469
0.000234109
-0.00369157
9.93947e-05
-0.00366631
-7.3249e-05
-0.00357603
-0.000284364
-0.00340815
-0.000533139
-0.00314885
-0.000825149
-0.00278639
-0.00115588
-0.00230902
-0.00151882
-0.00170869
-0.0019031
-0.0009689
-0.00239973
-4.73326e-05
-0.0030487
0.00104189
-0.00313788
-0.0055251
0.0018936
0.016993
-0.00837543
-0.0141518
0.0194752
0.000518544
0.0218849
0.00687996
0.023082
0.0119413
0.020988
0.0153059
0.0150703
0.0155959
0.00739859
0.0124065
0.00150933
0.00731797
-0.00113907
0.00294003
-0.0018717
0.000880668
-0.00222421
0.000431065
-0.00241073
0.00020897
-0.00254661
0.000172959
-0.00264069
0.00011872
-0.00271757
0.000125747
-0.00278873
0.000144314
-0.00286029
0.000177944
-0.00294083
0.000230453
-0.00303159
0.000284628
-0.00313718
0.000353453
-0.00325896
0.000425349
-0.00339004
0.000472371
-0.00353282
0.000531167
-0.00368493
0.000577091
-0.00384132
0.000596411
-0.00399561
0.000586638
-0.00413962
0.00054173
-0.00426326
0.000456431
-0.00435469
0.00032554
-0.00440065
0.000145352
-0.00438672
-8.71793e-05
-0.00429797
-0.000373112
-0.00411959
-0.000711515
-0.00383529
-0.00110944
-0.00343132
-0.00155985
-0.00289412
-0.00205601
-0.0022143
-0.00258291
-0.00137422
-0.0032398
-0.000374734
-0.00404819
0.0008337
-0.0043463
-0.00634865
0.00165725
0.0192915
-0.0115224
-0.0161445
0.0220636
-0.0022536
0.0245627
0.00438085
0.0270173
0.00948667
0.0283715
0.0139516
0.0266395
0.0173279
0.0208523
0.0181937
0.0124552
0.015715
0.00464711
0.0107482
0.000129592
0.00539819
-0.00152812
0.00208879
-0.00218485
0.000865715
-0.00256361
0.000551741
-0.00280579
0.000360916
-0.00297729
0.000297281
-0.00311368
0.000280723
-0.00323098
0.000295284
-0.0033471
0.000346606
-0.00346681
0.000404368
-0.00359906
0.000485739
-0.00374756
0.000573886
-0.00390598
0.000630822
-0.00407808
0.000703298
-0.00426237
0.000761406
-0.00445414
0.000788198
-0.00464634
0.000778846
-0.0048296
0.000725004
-0.00499213
0.000618963
-0.00511993
0.000453353
-0.00519738
0.00022281
-0.00520761
-7.69328e-05
-0.00513315
-0.000447559
-0.00495659
-0.00088806
-0.00465905
-0.00140696
-0.00422464
-0.00199424
-0.00363875
-0.00264189
-0.00289143
-0.00333021
-0.00196553
-0.0041657
-0.000902357
-0.00511136
0.000397517
-0.00564618
-0.00723229
0.00128114
0.0220488
-0.0150593
-0.018512
0.0252789
-0.00548365
0.0280005
0.00165928
0.0304839
0.00700323
0.0329555
0.01148
0.0345904
0.015693
0.0334991
0.0192851
0.0282766
0.0209376
0.019542
0.0194828
0.00997013
0.01497
0.00293625
0.00912267
-0.000534258
0.00433624
-0.00184216
0.00185965
-0.00253474
0.00105352
-0.0029581
0.00072066
-0.0032571
0.000579739
-0.00347887
0.000517065
-0.0036679
0.000535651
-0.00384059
0.000577071
-0.00401553
0.000660697
-0.00420167
0.000760034
-0.00439591
0.000825079
-0.00460549
0.000912883
-0.00483077
0.000986695
-0.00506791
0.00102534
-0.00530942
0.00102036
-0.00554485
0.000960436
-0.00576074
0.000834859
-0.00594099
0.000633607
-0.00606746
0.00034929
-0.00612067
-2.37167e-05
-0.00608026
-0.000487961
-0.00592606
-0.00104225
-0.00563669
-0.00169632
-0.00519425
-0.00243667
-0.00458376
-0.00325237
-0.00379574
-0.00411823
-0.00281641
-0.00514504
-0.00171278
-0.00621499
-0.000370223
-0.00698875
-0.00820872
0.000606195
0.0253902
-0.0191244
-0.021325
0.0290869
-0.00918035
0.0322756
-0.00152945
0.0349627
0.00431617
0.0373808
0.00906195
0.0398316
0.0132421
0.0417861
0.0173305
0.0415566
0.0211671
0.0373769
0.0236624
0.0289634
0.0233835
0.0182231
0.019863
0.00834363
0.0142157
0.00201696
0.00818633
-0.000872604
0.0039431
-0.00213065
0.00197872
-0.00289472
0.00134382
-0.00339021
0.00101258
-0.00375936
0.000904835
-0.00404989
0.000867625
-0.00430733
0.000918157
-0.00455457
0.0010073
-0.00479805
0.00106859
-0.00505451
0.00116937
-0.00532948
0.00126168
-0.00562202
0.00131789
-0.00592524
0.00132359
-0.00622806
0.00126326
-0.00651551
0.00112232
-0.00676941
0.000887518
-0.00696912
0.000549011
-0.0070924
9.95695e-05
-0.00711599
-0.000464362
-0.00701692
-0.00114131
-0.00677166
-0.00194157
-0.00636064
-0.00284768
-0.0057691
-0.0038439
-0.00498901
-0.00489832
-0.00401248
-0.00612156
-0.00291303
-0.00731445
-0.0016028
-0.00829899
-0.00926101
-0.000550529
0.0294256
-0.0238869
-0.0246631
0.0336886
-0.0134434
0.0373964
-0.00523719
0.0405564
0.00115614
0.0431804
0.00643797
0.0454869
0.0109356
0.0478443
0.0149731
0.0500528
0.0189587
0.0507673
0.0229479
0.048056
0.0260948
0.0408126
0.0271064
0.0297599
0.0252685
0.0175267
0.0204195
0.00755304
0.0139168
0.00167369
0.00785809
-0.00100959
0.00402712
-0.00235607
0.00235909
-0.00323188
0.00178066
-0.00383117
0.00146693
-0.00429149
0.0013785
-0.00466964
0.00138547
-0.00499869
0.00139766
-0.00532154
0.00149224
-0.00565775
0.0015979
-0.00601511
0.00167526
-0.00639119
0.00169968
-0.00677661
0.00164869
-0.00715607
0.00150178
-0.00750971
0.00124116
-0.0078144
0.000853717
-0.00804515
0.000330334
-0.00817602
-0.000333483
-0.00818136
-0.00113597
-0.00803616
-0.00208676
-0.00771959
-0.00316424
-0.00721747
-0.00434603
-0.00652399
-0.0055918
-0.00563787
-0.00700768
-0.00462386
-0.00832848
-0.00343982
-0.00948305
-0.0103193
-0.00238152
0.0342797
-0.0295389
-0.0286277
0.0392703
-0.0184341
0.043575
-0.00954183
0.0472632
-0.0025321
0.0503665
0.00333468
0.0529106
0.00839158
0.0550801
0.0128035
0.0572682
0.0167706
0.0595783
0.0206378
0.0611265
0.0245466
0.060108
0.0281249
0.0547665
0.0306099
0.0446424
0.0305436
0.0312947
0.0272645
0.0178642
0.0212886
0.00766925
0.0142221
0.00185268
0.00817567
-0.000916482
0.00454983
-0.00244638
0.00299684
-0.00348092
0.00241306
-0.00420935
0.00211391
-0.00474728
0.00193561
-0.00520431
0.00194928
-0.00563787
0.00203148
-0.00608055
0.00211795
-0.00654378
0.00216292
-0.00702631
0.00213122
-0.00751699
0.00199248
-0.00799719
0.00172137
-0.0084431
0.00129963
-0.00882793
0.000715168
-0.00912351
-3.78859e-05
-0.00930165
-0.000957824
-0.00933657
-0.00205184
-0.0092064
-0.00329441
-0.00889753
-0.0046549
-0.00840623
-0.0060831
-0.00773619
-0.00767773
-0.00693445
-0.00913024
-0.00599256
-0.0104249
-0.0112611
-0.00505079
0.0401021
-0.0363081
-0.0333329
0.0460127
-0.0243447
0.0510648
-0.014594
0.055364
-0.00683128
0.0589912
-0.000292544
0.0620151
0.00536777
0.0644716
0.010347
0.0665003
0.0147419
0.0684642
0.0186739
0.0706743
0.0223364
0.0727645
0.0260347
0.0733457
0.0300288
0.0704143
0.033475
0.0625058
0.035173
0.0497861
0.0340083
0.0343693
0.0296388
0.0196852
0.0228597
0.00886721
0.0153679
0.00265871
0.00920535
-0.000453944
0.00552573
-0.00224796
0.00390795
-0.00339619
0.00308386
-0.00421626
0.00276937
-0.00488167
0.0026969
-0.0054888
0.0027251
-0.00608542
0.00275954
-0.00669573
0.00274155
-0.00732434
0.00262109
-0.00796113
0.00235817
-0.00858663
0.00192513
-0.00917619
0.00130474
-0.00970237
0.000488292
-0.0101366
-0.000523555
-0.0104538
-0.00173463
-0.0106308
-0.00311748
-0.0106534
-0.00463229
-0.0105178
-0.00621868
-0.01023
-0.0079655
-0.00981447
-0.0095458
-0.00926939
-0.01097
-0.0119079
-0.00862257
0.0470765
-0.0444675
-0.0389171
0.0541417
-0.0314099
0.0601346
-0.0205869
0.0651891
-0.0118858
0.0694254
-0.00452891
0.0729586
0.00183459
0.0758819
0.00742376
0.0782459
0.0123779
0.0801481
0.0167717
0.0818694
0.0206151
0.0838129
0.0240912
0.0860758
0.0277659
0.0878487
0.0317021
0.0873622
0.0356595
0.0825971
0.0387734
0.0723963
0.0398396
0.057351
0.037905
0.0398935
0.0328253
0.0236027
0.0254962
0.0115434
0.017585
0.00440124
0.0110501
0.000909252
0.00657586
-0.00105536
0.00473399
-0.00241002
0.00405158
-0.00345951
0.00377461
-0.00435857
0.00365862
-0.00520406
0.00358704
-0.00604471
0.00346175
-0.00689688
0.00321034
-0.00775803
0.00278628
-0.00861482
0.00216153
-0.00944695
0.00132042
-0.0102305
0.000259997
-0.0109455
-0.00101964
-0.0115686
-0.00249437
-0.0120848
-0.00411604
-0.0124865
-0.00581701
-0.0127799
-0.00767212
-0.0129619
-0.00936376
-0.0130174
-0.0109145
-0.0120216
-0.0129038
0.0554252
-0.0543462
-0.0455465
0.0639271
-0.0399118
0.0710981
-0.0277578
0.0770987
-0.0178864
0.082087
-0.0095172
0.0862146
-0.002293
0.0896228
0.00401559
0.0924256
0.00957507
0.0946923
0.0145051
0.0964868
0.0188206
0.097998
0.0225801
0.0996202
0.0261437
0.101705
0.0296169
0.104058
0.0333067
0.105518
0.0373133
0.104117
0.0412409
0.0978688
0.0441532
0.0858004
0.0448938
0.0686827
0.0426138
0.0490439
0.0372238
0.0304913
0.0296028
0.017196
0.0198711
0.00909643
0.0128335
0.00462979
0.00851825
0.00203703
0.00636737
0.000247817
0.00544787
-0.0012002
0.00503506
-0.00249562
0.0047572
-0.00373248
0.00444718
-0.00495893
0.00401276
-0.00619622
0.00339881
-0.00744674
0.00257096
-0.0086994
0.00151265
-0.00994607
0.000227042
-0.0111678
-0.00127267
-0.0123492
-0.00293464
-0.0134769
-0.00468929
-0.0145598
-0.00658924
-0.0155644
-0.00835913
-0.0164583
-0.0100206
-0.0113204
-0.0171595
0.0654177
-0.0663414
-0.0534225
0.0756968
-0.0501908
0.0843331
-0.0363941
0.0915168
-0.0250701
0.0974433
-0.0154437
0.102307
-0.00715673
0.106286
3.6825e-05
0.109541
0.00631999
0.112204
0.0118416
0.114361
0.0166639
0.116067
0.0208738
0.11745
0.0247611
0.118788
0.0282786
0.120501
0.031594
0.122833
0.0349811
0.125364
0.03871
0.126719
0.0427983
0.12483
0.0467828
0.117705
0.0497392
0.104361
0.0505675
0.0855066
0.0484573
0.0651212
0.0402566
0.0461145
0.0318402
0.0308381
0.0237947
0.0201058
0.0170996
0.013268
0.0122858
0.0090157
0.00928736
0.00616535
0.00760754
0.00396161
0.00665097
0.00201001
0.00596435
0.000125727
0.00528313
-0.00176709
0.00446376
-0.00369239
0.00343799
-0.0056656
0.00220023
-0.0076794
0.000741163
-0.00972522
-0.000888848
-0.0117845
-0.00263
-0.0138715
-0.00450228
-0.0159206
-0.00630995
-0.0178921
-0.0080492
-0.00952365
-0.0196888
0.0773812
-0.0809338
-0.0627888
0.0898482
-0.0626578
0.100296
-0.0468421
0.10895
-0.0337243
0.116048
-0.0225418
0.121829
-0.0129377
0.126517
-0.00465101
0.130312
0.00252547
0.133389
0.00876389
0.135893
0.0141607
0.137927
0.0188398
0.139573
0.0231147
0.1409
0.0269517
0.142071
0.0304234
0.14342
0.0336315
0.145365
0.0367652
0.148064
0.0400997
0.150975
0.0438708
0.152649
0.0480661
0.150973
0.0522428
0.143907
0.0555231
0.131407
0.0527573
0.114595
0.0486518
0.0953778
0.043012
0.0759489
0.0365286
0.0583261
0.0299086
0.0438574
0.023756
0.0329295
0.0185355
0.0250938
0.0144867
0.0194974
0.0115608
0.0152903
0.00949026
0.0118289
0.00792518
0.00870286
0.006564
0.00565759
0.00524553
0.0025807
0.00381805
-0.000577463
0.00226933
-0.00382017
0.000612699
-0.00718508
-0.00113736
-0.010561
-0.00293405
-0.0138984
-0.00471176
-0.00633877
-0.0170833
0.0917118
-0.0987058
-0.0739398
0.106864
-0.07781
0.119542
-0.0595204
0.130015
-0.0441967
0.138569
-0.0310957
0.145494
-0.0198632
0.151066
-0.0102225
0.155531
-0.00194018
0.15911
0.00518532
0.161985
0.0112851
0.164312
0.0165129
0.166229
0.0211979
0.167823
0.0253582
0.169149
0.0290973
0.170288
0.0324917
0.17144
0.0356139
0.172963
0.038576
0.175267
0.041567
0.178487
0.0448468
0.182091
0.0486384
0.184668
0.0529458
0.184231
0.053195
0.179766
0.0531162
0.170907
0.0518707
0.158048
0.0493881
0.142151
0.0458054
0.124498
0.0414092
0.106486
0.0365478
0.0894098
0.0315628
0.0742245
0.0267461
0.0613834
0.0223313
0.0508477
0.0184609
0.042248
0.0151637
0.0350493
0.0124442
0.0288166
0.0100508
0.023186
0.00789994
0.0179092
0.0058895
0.012723
0.00404883
0.0076384
0.00215058
0.00259169
0.000334944
-0.00139694
-0.00235014
0.108884
-0.120363
-0.0872274
0.127324
-0.09625
0.14274
-0.0749362
0.155453
-0.056909
0.165808
-0.0414514
0.174158
-0.0282126
0.180833
-0.0168982
0.186139
-0.00724585
0.190343
0.000981122
0.193676
0.00795277
0.196331
0.0138578
0.198488
0.019041
0.200286
0.0235603
0.201829
0.0275538
0.203185
0.0311362
0.2044
0.0343991
0.205561
0.0374145
0.206878
0.0402499
0.208714
0.0430112
0.211487
0.0458654
0.215372
0.0490609
0.219489
0.0490779
0.223029
0.0495758
0.224961
0.0499385
0.224378
0.0499717
0.220697
0.0494865
0.213745
0.0483606
0.203738
0.0465554
0.191179
0.0441217
0.176757
0.0411683
0.161248
0.0378396
0.145426
0.0342828
0.12996
0.0306306
0.115249
0.0271543
0.101627
0.023673
0.0891948
0.0203325
0.0779094
0.0171749
0.0674278
0.0145304
0.057775
0.0118034
0.0487214
0.00938853
0.00709255
0.0402319
0.117369
-0.144266
-0.0934662
0.137705
-0.116585
0.154698
-0.0919296
0.168698
-0.0709095
0.180086
-0.0528392
0.189245
-0.0373711
0.196538
-0.0241918
0.2023
-0.0130074
0.206826
-0.00354455
0.21037
0.00440845
0.213151
0.0110765
0.215367
0.0168256
0.217175
0.0217522
0.218708
0.0260206
0.220072
0.0297717
0.221344
0.0331277
0.222566
0.0361917
0.223775
0.0390413
0.225045
0.0417412
0.226563
0.0443472
0.228661
0.0469636
0.231318
0.0464207
0.234694
0.0461994
0.238643
0.04599
0.242765
0.0458491
0.246504
0.0457481
0.249258
0.0456066
0.250495
0.0453186
0.249826
0.0447906
0.247044
0.0439503
0.242122
0.0427612
0.235187
0.041218
0.226476
0.0393414
0.216235
0.0373954
0.204831
0.035077
0.192631
0.0325326
0.17999
0.0298156
0.166945
0.0275762
0.153946
0.0248021
0.141064
0.0222702
0.0195916
0.128565
0.124229
-0.170084
-0.0984102
0.146182
-0.138538
0.164523
-0.110271
0.179626
-0.0860124
0.191899
-0.0651125
0.201754
-0.0472263
0.209582
-0.0320197
0.215741
-0.0191658
0.220549
-0.00835248
0.224281
0.000675769
0.227175
0.00818263
0.229442
0.0145591
0.231253
0.0199411
0.232752
0.0245211
0.23406
0.0284638
0.235276
0.031912
0.236478
0.0349903
0.237717
0.0378021
0.23902
0.0404378
0.240406
0.0429611
0.241933
0.0454363
0.243449
0.0449052
0.245191
0.044457
0.247357
0.0438245
0.250085
0.0431211
0.253407
0.0424262
0.257224
0.0417891
0.261321
0.041222
0.265399
0.0407125
0.269126
0.0402236
0.272176
0.0397107
0.274269
0.0391252
0.275192
0.0384186
0.274796
0.0377906
0.27301
0.0368634
0.269835
0.0357072
0.265344
0.0343075
0.259505
0.0334147
0.252538
0.0317693
0.244517
0.0302913
0.0284464
0.235662
0.131809
-0.197965
-0.103928
0.155505
-0.162235
0.175301
-0.130067
0.191598
-0.102309
0.204834
-0.0783487
0.215452
-0.0578441
0.223871
-0.0404387
0.230475
-0.0257701
0.235608
-0.0134847
0.239565
-0.00328152
0.242602
0.00514513
0.244947
0.0122144
0.246785
0.0181031
0.248272
0.0230341
0.249537
0.0271986
0.250688
0.030761
0.251814
0.0338641
0.252989
0.0366271
0.254269
0.0391578
0.255689
0.0415419
0.257261
0.0438642
0.258703
0.0434628
0.260095
0.0430649
0.2615
0.0424201
0.263014
0.0416068
0.264755
0.0406853
0.266834
0.0397104
0.26933
0.0387255
0.272274
0.0377686
0.275636
0.0368619
0.279329
0.0360173
0.283222
0.0352321
0.287152
0.0344886
0.290959
0.0339835
0.294457
0.033366
0.29748
0.0326846
0.299892
0.0318952
0.301593
0.0317139
0.30248
0.0308817
0.302499
0.0302722
0.0293353
0.30161
0.140118
-0.228066
-0.110016
0.165695
-0.187813
0.187062
-0.151433
0.204648
-0.119895
0.218928
-0.0926283
0.230375
-0.0692917
0.239442
-0.049505
0.246539
-0.0328675
0.252035
-0.0189811
0.25625
-0.00749663
0.259459
0.00193623
0.261905
0.00976903
0.263787
0.0162205
0.265275
0.0215462
0.266508
0.0259653
0.267603
0.0296667
0.268654
0.032813
0.269741
0.03554
0.27093
0.0379687
0.272275
0.0401968
0.273816
0.0423231
0.27528
0.0419991
0.276717
0.0416273
0.278125
0.0410122
0.279507
0.0402254
0.28088
0.0393123
0.28228
0.0383102
0.283757
0.037248
0.28537
0.036156
0.287175
0.0350572
0.289218
0.0339737
0.29153
0.0329206
0.294116
0.0319027
0.296972
0.0311268
0.300055
0.0302829
0.303305
0.0294354
0.306645
0.028555
0.310043
0.0283161
0.313374
0.0275507
0.316577
0.0270688
0.0263614
0.319551
0.149181
-0.260562
-0.116685
0.176788
-0.21542
0.19985
-0.174495
0.218831
-0.138876
0.23424
-0.108038
0.246588
-0.0816399
0.25636
-0.0592765
0.263998
-0.0405053
0.269897
-0.0248804
0.274402
-0.0120014
0.277808
-0.00146999
0.280375
0.00720185
0.282319
0.0142767
0.28382
0.0200449
0.28503
0.0247557
0.286073
0.0286238
0.287052
0.031834
0.288052
0.0345403
0.289141
0.0368788
0.290379
0.0389592
0.291812
0.0408899
0.293186
0.0406256
0.294565
0.0402482
0.295955
0.0396224
0.297353
0.0388272
0.298754
0.0379118
0.30015
0.0369141
0.301538
0.0358599
0.30292
0.0347737
0.304306
0.0336718
0.305709
0.0325698
0.307152
0.031478
0.308655
0.0303993
0.310248
0.029534
0.311947
0.0285843
0.313765
0.0276176
0.315707
0.0266129
0.317802
0.0262205
0.320024
0.0253289
0.322375
0.0247183
0.0239111
0.324825
0.159035
-0.295642
-0.123955
0.188834
-0.245219
0.213728
-0.199389
0.234217
-0.159365
0.250849
-0.12467
0.264174
-0.0949646
0.274712
-0.0698147
0.28294
-0.0487332
0.289282
-0.0312226
0.294108
-0.0168276
0.297737
-0.00509861
0.300446
0.00449306
0.302466
0.0122562
0.303993
0.0185184
0.305187
0.0235614
0.306183
0.0276276
0.307092
0.030925
0.308004
0.0336279
0.308995
0.0358885
0.310123
0.0378307
0.311439
0.0395737
0.312694
0.0393713
0.313955
0.0389871
0.315235
0.0383421
0.316541
0.0375208
0.317876
0.036577
0.319237
0.0355531
0.320619
0.0344786
0.322012
0.0333801
0.323409
0.0322749
0.324801
0.0311779
0.326181
0.0300975
0.327546
0.0290343
0.3289
0.0281805
0.330241
0.0272437
0.331572
0.0262866
0.332898
0.0252865
0.334242
0.024877
0.335599
0.0239715
0.336986
0.0233314
0.0224915
0.338405
0.169727
-0.333514
-0.131854
0.201895
-0.277387
0.22877
-0.226264
0.25089
-0.181485
0.268846
-0.142626
0.28323
-0.109348
0.294601
-0.0811861
0.303472
-0.0576043
0.310299
-0.0380496
0.31548
-0.0220081
0.319356
-0.00897514
0.322226
0.001623
0.324338
0.0101441
0.325901
0.016956
0.327087
0.0223749
0.328042
0.0266731
0.328883
0.0300839
0.329708
0.0328027
0.330597
0.0349998
0.331614
0.0368139
0.332811
0.0383764
0.333944
0.0382387
0.335081
0.0378501
0.336235
0.0371875
0.337416
0.0363398
0.338629
0.0353641
0.339877
0.0343056
0.341158
0.0331966
0.342472
0.0320663
0.343813
0.0309338
0.345176
0.0298156
0.346552
0.0287213
0.347934
0.0276521
0.34932
0.0267949
0.350698
0.0258654
0.352062
0.0249231
0.353404
0.0239442
0.354734
0.0235471
0.356037
0.0226682
0.357318
0.0220502
0.0212357
0.358574
0.181309
-0.374405
-0.140418
0.21604
-0.312118
0.245058
-0.255283
0.268945
-0.205371
0.288336
-0.162017
0.303869
-0.124881
0.316145
-0.0934629
0.325717
-0.0671759
0.333074
-0.0454067
0.338644
-0.0275781
0.342795
-0.0131264
0.345847
-0.00142841
0.348065
0.00792581
0.349674
0.015347
0.35086
0.0211891
0.351777
0.0257561
0.352552
0.0293085
0.35329
0.0320648
0.354076
0.0342142
0.354978
0.0359115
0.356053
0.0373012
0.357061
0.0372312
0.358071
0.0368396
0.359099
0.0361595
0.360155
0.0352845
0.361244
0.0342752
0.362369
0.0331799
0.363533
0.0320329
0.364734
0.0308649
0.365972
0.0296967
0.367241
0.0285457
0.36854
0.0274223
0.369864
0.0263285
0.371212
0.0254465
0.372577
0.0245007
0.373952
0.0235486
0.375329
0.0225664
0.376719
0.0221576
0.378103
0.0212841
0.379483
0.02067
0.0198671
0.380852
0.193842
-0.418563
-0.149684
0.231348
-0.349624
0.262688
-0.286623
0.288489
-0.231172
0.309437
-0.182965
0.326217
-0.141661
0.339479
-0.106724
0.349813
-0.0775108
0.35775
-0.0533428
0.363747
-0.0335755
0.368201
-0.0175809
0.371455
-0.00468243
0.373795
0.00558587
0.375461
0.0136811
0.376653
0.0199972
0.377537
0.0248727
0.378248
0.0285975
0.378898
0.0314143
0.379579
0.0335331
0.380365
0.0351259
0.381315
0.0363513
0.382193
0.0363529
0.383073
0.0359596
0.383971
0.0352612
0.384899
0.0343565
0.385865
0.03331
0.386871
0.0321731
0.387922
0.0309826
0.389015
0.0297711
0.390151
0.0285606
0.391328
0.0273694
0.392541
0.0262087
0.393789
0.0250809
0.395072
0.0241636
0.396383
0.0231892
0.397718
0.0222134
0.399072
0.0212127
0.400454
0.0207754
0.401849
0.0198895
0.403258
0.0192605
0.0184505
0.404675
0.207396
-0.466259
-0.159701
0.247908
-0.390135
0.281765
-0.32048
0.309642
-0.25905
0.33228
-0.205602
0.350416
-0.159797
0.364748
-0.121057
0.375915
-0.0886778
0.384484
-0.0619119
0.390951
-0.0400416
0.39574
-0.0223701
0.399219
-0.00816203
0.401697
0.00310803
0.403431
0.0119471
0.404636
0.0187924
0.405489
0.0240196
0.406137
0.0279498
0.406699
0.0308522
0.407273
0.032959
0.407938
0.0344604
0.408759
0.0355302
0.409504
0.0356078
0.41025
0.0352144
0.411014
0.0344968
0.411811
0.0335594
0.41265
0.0324711
0.413536
0.0312866
0.414473
0.0300457
0.415462
0.0287828
0.416501
0.0275214
0.417589
0.0262811
0.418724
0.0250737
0.419903
0.0239024
0.421126
0.0229401
0.422388
0.0219273
0.423684
0.0209178
0.425008
0.0198887
0.42637
0.019413
0.427755
0.0185045
0.429165
0.0178504
0.0170232
0.430592
0.222045
-0.517788
-0.170516
0.265816
-0.433907
0.302404
-0.357067
0.332535
-0.289181
0.357008
-0.230075
0.376619
-0.179408
0.392119
-0.136557
0.404194
-0.100753
0.413455
-0.0711734
0.420436
-0.0470221
0.425594
-0.0275282
0.429324
-0.0118923
0.431958
0.000474664
0.433771
0.0101335
0.434996
0.017568
0.435822
0.0231936
0.436406
0.0273652
0.436878
0.0303805
0.437342
0.0324952
0.437883
0.0339194
0.43857
0.0348428
0.439177
0.0350011
0.439782
0.0346093
0.440407
0.0338716
0.441068
0.0328982
0.441777
0.031763
0.442539
0.0305244
0.443359
0.0292253
0.44424
0.0279023
0.44518
0.0265808
0.44618
0.0252815
0.447236
0.0240171
0.448347
0.0227918
0.449513
0.021774
0.450728
0.0207124
0.451987
0.019659
0.453284
0.0185914
0.45463
0.0180674
0.456007
0.017127
0.457419
0.0164389
0.0155863
0.458856
0.237872
-0.573475
-0.182185
0.28518
-0.481215
0.324732
-0.396619
0.357313
-0.321762
0.383782
-0.256545
0.404998
-0.200624
0.42177
-0.153329
0.434837
-0.11382
0.444857
-0.0811929
0.452402
-0.0545676
0.457967
-0.0330933
0.461976
-0.0159011
0.464784
-0.00233363
0.46669
0.00822755
0.467942
0.0163166
0.468744
0.0223917
0.469265
0.026844
0.469643
0.0300019
0.469992
0.0321463
0.470403
0.0335087
0.47095
0.0342957
0.471411
0.0345399
0.471869
0.0341516
0.472348
0.0333925
0.472866
0.0323797
0.473437
0.0311922
0.474069
0.0298926
0.474767
0.0285272
0.475534
0.0271351
0.476371
0.0257437
0.477278
0.0243752
0.478251
0.0230435
0.479289
0.0217535
0.480394
0.0206697
0.481558
0.0195485
0.482776
0.0184408
0.484042
0.0173247
0.485367
0.0167424
0.486734
0.0157608
0.488143
0.0150297
0.0141433
0.489586
0.254969
-0.633675
-0.194769
0.306117
-0.532363
0.348889
-0.439391
0.384133
-0.357006
0.412776
-0.285188
0.435742
-0.223589
0.453902
-0.171489
0.468054
-0.127971
0.478904
-0.092043
0.48707
-0.0627341
0.493084
-0.0391074
0.497402
-0.0202191
0.500407
-0.00533835
0.502419
0.00621547
0.503705
0.0150305
0.504486
0.021611
0.504943
0.0263873
0.505224
0.0297205
0.505451
0.0319188
0.505724
0.0332363
0.506121
0.0338982
0.506427
0.0342338
0.506728
0.0338509
0.507051
0.0330695
0.507417
0.0320136
0.507841
0.0307681
0.508334
0.0294003
0.508901
0.0279602
0.509546
0.0264897
0.510271
0.0250186
0.511076
0.0235705
0.511959
0.0221609
0.512916
0.0207957
0.513951
0.0196351
0.515055
0.018444
0.516224
0.0172718
0.517452
0.0160975
0.518747
0.015447
0.520093
0.0144152
0.52149
0.0136323
0.0127041
0.522929
0.273433
-0.698776
-0.208332
0.328754
-0.587685
0.375029
-0.485666
0.413171
-0.395148
0.444182
-0.316199
0.469056
-0.248463
0.488733
-0.191167
0.504072
-0.143309
0.515833
-0.103804
0.524683
-0.0715838
0.531193
-0.0456176
0.535854
-0.0248806
0.539079
-0.00856332
0.541213
0.00408193
0.542542
0.0137013
0.543304
0.0208489
0.543695
0.0259969
0.543873
0.0295417
0.543971
0.0318209
0.544095
0.0331128
0.544331
0.0336623
0.544469
0.0340954
0.5446
0.0337203
0.544754
0.0329155
0.544954
0.031813
0.545219
0.0305037
0.545558
0.0290604
0.545982
0.027537
0.546492
0.0259788
0.547093
0.0244178
0.547784
0.0228798
0.548563
0.0213816
0.549428
0.0199306
0.550381
0.0186827
0.551413
0.0174113
0.552521
0.0161646
0.553696
0.0149224
0.554949
0.0141942
0.55626
0.0131034
0.557632
0.0122602
0.0112825
0.559054
0.293372
-0.769203
-0.222945
0.353232
-0.647545
0.403318
-0.535752
0.444618
-0.436448
0.47821
-0.349791
0.505168
-0.275421
0.526505
-0.212503
0.543143
-0.159948
0.555905
-0.116567
0.565508
-0.0811859
0.572566
-0.0526762
0.577609
-0.0299238
0.581081
-0.0120351
0.583353
0.00180997
0.584734
0.0123201
0.58548
0.0201029
0.585802
0.0256756
0.585871
0.0294726
0.585829
0.0318631
0.58579
0.0331514
0.585849
0.0336035
0.585803
0.0341407
0.585747
0.0337763
0.585715
0.0329477
0.585733
0.031795
0.58582
0.0304164
0.58599
0.0288902
0.586253
0.0272749
0.586612
0.0256194
0.587071
0.0239584
0.587631
0.02232
0.58829
0.0207227
0.589045
0.0191753
0.589899
0.0178294
0.590842
0.0164674
0.591871
0.0151363
0.592976
0.0138168
0.594169
0.0130012
0.59543
0.0118429
0.596759
0.0109311
0.00989642
0.598145
0.314905
-0.845425
-0.238683
0.379704
-0.712345
0.433942
-0.589989
0.478684
-0.481189
0.515093
-0.386201
0.544329
-0.304656
0.567481
-0.235655
0.585546
-0.178013
0.599408
-0.130429
0.60984
-0.0916176
0.617505
-0.0603414
0.622973
-0.0353915
0.626721
-0.0157834
0.62915
-0.00061924
0.630593
0.010877
0.631326
0.0193705
0.631574
0.0254271
0.631525
0.0295222
0.631329
0.0320585
0.631112
0.0333689
0.630974
0.0337417
0.630724
0.0343902
0.63046
0.0340404
0.63022
0.0331878
0.630033
0.0319819
0.629921
0.0305285
0.629899
0.0289121
0.629977
0.0271964
0.630163
0.025434
0.630458
0.023663
0.630864
0.0219138
0.63138
0.0202067
0.632004
0.0185522
0.632735
0.0170976
0.633568
0.0156348
0.634495
0.0142094
0.635508
0.0128033
0.636619
0.0118905
0.637806
0.0106562
0.639069
0.00966755
0.00856838
0.640397
0.338158
-0.927953
-0.255629
0.408338
-0.782526
0.467101
-0.648752
0.515598
-0.529687
0.555086
-0.425689
0.586813
-0.336383
0.611955
-0.260798
0.631585
-0.197643
0.646658
-0.145502
0.658005
-0.102965
0.666342
-0.0686785
0.672282
-0.0413315
0.67634
-0.0198414
0.678948
-0.00322669
0.680463
0.00936121
0.681184
0.0186495
0.681355
0.0252564
0.681176
0.0297013
0.680811
0.0324234
0.680394
0.0337857
0.680035
0.034101
0.679556
0.0348691
0.679058
0.0345385
0.678583
0.0336626
0.678164
0.0324009
0.677825
0.0308676
0.677583
0.0291541
0.67745
0.0273295
0.677433
0.0254509
0.677536
0.0235598
0.677761
0.0216892
0.678106
0.0198617
0.678568
0.0180896
0.67915
0.0165157
0.679843
0.0149418
0.68064
0.0134123
0.681534
0.0119102
0.682534
0.0108905
0.683618
0.00957173
0.684788
0.00849777
0.0073267
0.686029
0.36327
-1.01735
-0.273871
0.439316
-0.858571
0.503016
-0.712452
0.555614
-0.582286