/*--------------------------------*- C++ -*----------------------------------*\
| =========                 |                                                 |
| \\      /  F ield         | OpenFOAM: The Open Source CFD Toolbox           |
|  \\    /   O peration     | Version:  2312                                  |
|   \\  /    A nd           | Website:  www.openfoam.com                      |
|    \\/     M anipulation  |                                                 |
\*---------------------------------------------------------------------------*/
FoamFile
{
    version     2.0;
    format      ascii;
    arch        "LSB;label=32;scalar=64";
    class       volScalarField;
    location    "900";
    object      turbulenceProperties:epsilon;
}
// * * * * * * * * * * * * * * * * * * * * * * * * * * * * * * * * * * * * * //

dimensions      [0 2 -3 0 0 0 0];

internalField   nonuniform List<scalar> 
11040
(
95.0977
99.7496
3.56737
1.15259
17.278
18.9794
17.8984
15.7098
13.6338
12.3321
11.1736
10.1768
9.39794
8.80624
8.34585
8.11774
8.10143
8.3199
8.75079
9.39994
10.3026
11.4418
12.8461
14.5748
16.6441
19.1062
21.8604
24.5098
26.7284
28.1304
28.3338
27.0765
24.516
21.1328
17.5865
11.3995
4.35714
1.58035
0.254715
2.43301
7.16692
0.862868
2.86266
28.0854
51.4076
49.5942
5.33444
0.585875
0.0751503
0.00586724
0.00357743
0.0227328
0.0436113
0.0640231
0.0826781
0.0989366
0.115137
0.133354
0.153633
0.174033
0.194797
0.216201
0.239157
0.256654
0.260327
0.247114
0.222569
0.191379
0.152921
0.112479
0.0772951
0.0539641
0.0453734
0.0420951
0.0482817
0.066885
0.102621
0.165086
0.258499
0.594446
0.714018
8.42859
0.328056
0.257596
1.05435
14.8453
96.5436
75.2198
16.539
2.45775
0.622641
0.240498
0.0838965
0.0295348
0.00751539
0.000685315
0.000726314
0.00350857
0.0070417
0.0106142
0.0137267
0.0160424
0.0174495
0.0177841
0.0162019
0.0128273
0.00893076
0.0056077
0.00313246
0.00133075
0.000217995
0.000542041
0.00439727
0.0158231
0.0404151
0.085097
0.159266
0.278359
0.462687
0.701635
1.40408
2.1754
3.54293
0.168971
0.12415
0.0829107
0.198343
14.8973
90.0742
92.5058
32.0741
5.3958
1.64462
0.632583
0.306086
0.16308
0.0875848
0.051597
0.0312978
0.0210749
0.0154623
0.0126963
0.0117945
0.0119658
0.0131295
0.0155436
0.0190596
0.0226286
0.0251874
0.0259172
0.0244671
0.0213949
0.0189247
0.0213618
0.0352563
0.0696908
0.138469
0.260095
0.463964
0.788465
1.21956
2.22063
3.79167
2.44903
0.0937952
0.076366
0.0864934
0.021794
0.0382995
9.66787
68.45
98.5693
50.7346
11.761
3.27042
1.2514
0.643213
0.354666
0.226151
0.151573
0.112475
0.0896267
0.0770779
0.0711099
0.0685863
0.0681894
0.06985
0.0732473
0.0762882
0.0773372
0.0752432
0.069452
0.0606714
0.0517043
0.0482625
0.0599376
0.101444
0.193837
0.365067
0.657401
1.12731
1.77495
2.93363
5.20148
2.84891
0.0488595
0.0411836
0.0390184
0.0477206
0.00437927
0.00209177
4.51241
42.5174
92.3565
67.9912
24.501
6.0883
2.35033
1.09922
0.63865
0.404843
0.288499
0.223545
0.186923
0.16793
0.157813
0.152633
0.150838
0.151916
0.152821
0.151194
0.145066
0.133066
0.115445
0.0953608
0.0802109
0.083276
0.125238
0.235173
0.451307
0.827774
1.43619
2.29658
3.53549
6.15677
3.80715
0.0254893
0.0232801
0.0205303
0.0232526
0.0249157
0.000787256
8.37266e-07
1.31938
21.1546
70.2865
77.9688
42.0576
13.1028
4.11385
1.86271
1.02801
0.653259
0.463021
0.359965
0.307103
0.278762
0.264587
0.25807
0.25703
0.256521
0.252719
0.242266
0.222433
0.192503
0.155699
0.120969
0.105211
0.135032
0.247752
0.49187
0.931001
1.64536
2.66835
3.95215
6.55377
4.80707
0.013577
0.0129804
0.0125907
0.0116226
0.0135839
0.0149775
1.96054e-05
1.16058e-09
0.200821
7.86718
41.0099
73.6765
58.115
26.3086
8.27898
3.17718
1.61988
0.997734
0.689914
0.534771
0.453401
0.415906
0.398914
0.39464
0.393882
0.38977
0.376318
0.348356
0.303168
0.243512
0.179263
0.130309
0.1286
0.219032
0.459119
0.91854
1.67771
2.77023
4.06193
6.29984
5.40264
0.00740768
0.00720003
0.00722739
0.00710811
0.00656459
0.00834263
0.00769495
0.000105396
9.51858e-05
0.000414544
1.86529
17.4307
51.6425
64.4413
42.4141
17.8273
6.10305
2.68086
1.50941
1.00968
0.763437
0.651239
0.599275
0.580785
0.576066
0.571268
0.555904
0.520962
0.46032
0.373904
0.2708
0.172448
0.114946
0.149204
0.339281
0.757155
1.4756
2.51813
3.73524
5.44772
5.2637
0.00408646
0.00401433
0.00407296
0.00416155
0.00409293
0.00384661
0.00483849
0.00392776
0.000352833
4.3044e-06
0.00214782
0.209698
4.99171
25.3908
52.6945
53.2311
32.0979
13.4814
5.07355
2.43958
1.5039
1.11988
0.944651
0.86749
0.835803
0.820899
0.801898
0.760414
0.684168
0.569304
0.422107
0.262236
0.126774
0.0697342
0.158542
0.464354
1.04812
1.92088
2.95046
4.14203
4.35626
0.00227382
0.00224868
0.00229406
0.0023667
0.00243377
0.00238997
0.0023247
0.00264794
0.00261854
0.000685154
1.79691e-06
7.60074e-05
4.77309e-05
0.755085
8.02768
28.7959
48.2952
43.9699
25.9578
11.3909
4.67872
2.49123
1.74696
1.43523
1.2863
1.2122
1.16371
1.1052
1.01316
0.873372
0.683598
0.458636
0.234252
0.0638436
0.0133313
0.149811
0.52325
1.13704
1.88258
2.6276
2.94535
0.00127036
0.00126271
0.00128718
0.00133666
0.00138974
0.00143267
0.00142387
0.00139491
0.00148772
0.00161086
0.000882442
3.76658e-07
1.2535e-07
0.00121445
0.0384391
1.40221
9.66255
28.066
42.1914
37.3071
22.6323
11.0832
5.4119
3.18376
2.3364
1.99606
1.82381
1.69147
1.54998
1.37068
1.13989
0.860673
0.558796
0.280723
0.0867462
0.0395589
0.181233
0.510986
0.943627
1.33273
1.54142
0.000710541
0.000709278
0.000721577
0.000749935
0.000786111
0.000821301
0.000849811
0.00085713
0.000844826
0.000864681
0.000966164
0.00072499
3.20374e-05
1.87466e-07
1.21278e-05
0.00298253
0.0856275
1.70189
9.3813
24.6275
36.0236
33.188
23.0442
13.9754
8.14579
5.06172
3.59585
2.91856
2.56994
2.3059
2.01918
1.68245
1.31232
0.95019
0.648482
0.457139
0.411175
0.508165
0.687003
0.823965
0.822924
0.000396771
0.000397639
0.000403566
0.000418874
0.000440785
0.000464745
0.000487669
0.00050748
0.000518535
0.00051653
0.000517426
0.000572024
0.000536154
0.000168295
1.29873e-08
2.59505e-09
9.09206e-05
0.00455531
0.102951
1.52554
7.66798
19.294
29.2644
31.0687
26.2355
19.627
13.8422
9.55816
6.72837
4.99217
3.9512
3.29539
2.82362
2.43552
2.11127
1.86489
1.71742
1.66647
1.68762
1.69729
1.46859
0.000220586
0.000221919
0.000224748
0.000232848
0.000245361
0.00026012
0.000275613
0.000290712
0.000304407
0.000314684
0.000317301
0.00031841
0.000339258
0.00034618
0.000266311
1.74666e-05
1.3681e-07
1.41424e-11
0.000280133
0.00387745
0.0734952
0.941716
4.3135
11.2263
19.6749
25.7264
27.2598
25.214
21.5871
17.6389
13.9254
10.7504
8.28071
6.53083
5.40755
4.77371
4.5004
4.43991
4.47402
4.53671
4.16727
0.000121822
0.000122963
0.00012431
0.000128537
0.000135467
0.000144022
0.000153492
0.000163461
0.000173403
0.000182707
0.000190623
0.000195037
0.000198002
0.000202013
0.000221004
0.000195877
0.000116528
3.47627e-07
1.30872e-08
5.21478e-13
0.000344342
0.00190188
0.0149761
0.23392
1.26396
3.94823
8.59781
14.3769
19.6795
23.2202
24.6517
24.3382
22.852
20.6864
18.2681
15.9334
13.9263
12.3266
11.1859
10.5901
9.77121
6.70671e-05
6.78576e-05
6.85229e-05
7.07389e-05
7.45217e-05
7.931e-05
8.47908e-05
9.07913e-05
9.71183e-05
0.000103485
0.000109602
0.000115127
0.000119566
0.000122215
0.000125696
0.000131544
0.000140429
0.000110231
3.91371e-05
1.49418e-08
3.29052e-09
2.15222e-13
2.88618e-05
0.000943777
0.00220096
0.0107976
0.121678
0.569639
1.72335
3.8976
7.1345
11.1188
15.3045
19.1409
22.2361
24.3722
25.5713
25.9243
25.6875
25.3688
24.1016
3.76405e-05
3.81651e-05
3.85417e-05
3.97807e-05
4.19186e-05
4.46581e-05
4.78473e-05
5.14212e-05
5.52868e-05
5.93286e-05
6.34033e-05
6.73787e-05
7.11275e-05
7.44626e-05
7.69836e-05
7.92263e-05
8.20137e-05
8.84056e-05
8.95077e-05
6.69155e-05
1.84636e-05
6.57554e-09
2.32103e-09
4.94148e-12
0
1.94555e-05
0.000712536
0.000857068
0.000298789
0.0102981
0.0758746
0.301837
0.846261
1.89196
3.57978
5.95059
8.93475
12.3809
16.0361
19.8408
22.8215
2.19244e-05
2.22772e-05
2.25121e-05
2.32466e-05
2.45095e-05
2.61376e-05
2.8057e-05
3.0247e-05
3.26675e-05
3.52561e-05
3.79432e-05
4.06551e-05
4.33188e-05
4.58821e-05
4.82407e-05
5.0332e-05
5.19197e-05
5.38396e-05
5.65045e-05
6.01843e-05
5.90529e-05
4.18661e-05
1.81977e-05
1.59144e-07
5.52225e-09
1.96481e-10
6.8956e-13
0
2.58724e-08
2.73234e-05
0.0005072
0.000554342
4.42436e-08
0.000537446
0.00726017
0.0446888
0.158872
0.423159
0.92493
1.76998
2.99468
1.32443e-05
1.34766e-05
1.3628e-05
1.40792e-05
1.48488e-05
1.58436e-05
1.70256e-05
1.83872e-05
1.99131e-05
2.15719e-05
2.33312e-05
2.51572e-05
2.70088e-05
2.88432e-05
3.06206e-05
3.23101e-05
3.38536e-05
3.52056e-05
3.64004e-05
3.79331e-05
4.00853e-05
4.19424e-05
4.16336e-05
3.29434e-05
1.90813e-05
6.60566e-06
2.94026e-08
2.02311e-09
1.31372e-10
3.07628e-11
2.85988e-14
0
4.99272e-12
1.38475e-07
2.02101e-05
0.000339235
0.000462193
0.000157413
7.2666e-05
8.11746e-05
0.0038892
8.21944e-06
8.37105e-06
8.47115e-06
8.75597e-06
9.23675e-06
9.859e-06
1.06023e-05
1.14638e-05
1.24361e-05
1.35036e-05
1.46497e-05
1.58587e-05
1.7111e-05
1.83828e-05
1.96497e-05
2.08879e-05
2.20792e-05
2.32002e-05
2.4221e-05
2.51398e-05
2.60209e-05
2.71851e-05
2.85116e-05
3.0277e-05
3.02582e-05
2.85124e-05
2.24656e-05
1.38101e-05
6.173e-06
1.68545e-06
1.90718e-09
5.50025e-10
7.61848e-11
2.96941e-11
7.15675e-12
6.09466e-14
0
0
0
1.78771e-09
6.45075e-06
5.21214e-06
5.31126e-06
5.37943e-06
5.56348e-06
5.87005e-06
6.26689e-06
6.74268e-06
7.29621e-06
7.92358e-06
8.61666e-06
9.36604e-06
1.01639e-05
1.10001e-05
1.18616e-05
1.27349e-05
1.36061e-05
1.44615e-05
1.52888e-05
1.60773e-05
1.68197e-05
1.74795e-05
1.80844e-05
1.8668e-05
1.9403e-05
2.03006e-05
2.11709e-05
2.21717e-05
2.228e-05
2.11306e-05
1.91775e-05
1.52248e-05
1.02394e-05
5.70825e-06
2.49792e-06
6.94996e-07
7.02438e-09
4.83052e-10
4.37889e-11
2.37606e-11
1.10937e-11
3.90349e-12
3.36221e-06
3.42725e-06
3.47459e-06
3.5956e-06
3.79419e-06
4.05115e-06
4.35997e-06
4.72001e-06
5.12898e-06
5.58229e-06
6.0746e-06
6.60164e-06
7.15794e-06
7.73588e-06
8.32748e-06
8.92461e-06
9.51881e-06
1.01016e-05
1.0665e-05
1.1206e-05
1.17056e-05
1.21558e-05
1.25636e-05
1.29218e-05
1.32735e-05
1.36337e-05
1.40787e-05
1.46067e-05
1.51439e-05
1.5578e-05
1.60465e-05
1.60576e-05
1.55493e-05
1.4523e-05
1.31476e-05
1.10318e-05
8.46763e-06
5.83301e-06
3.58134e-06
1.88299e-06
7.66158e-07
2.19932e-06
2.24222e-06
2.27564e-06
2.35637e-06
2.48676e-06
2.65528e-06
2.85812e-06
3.0948e-06
3.36384e-06
3.66252e-06
3.98766e-06
4.3366e-06
4.70621e-06
5.09194e-06
5.48882e-06
5.89181e-06
6.29562e-06
6.69476e-06
7.08365e-06
7.45953e-06
7.80958e-06
8.12896e-06
8.42253e-06
8.67933e-06
8.90094e-06
9.09335e-06
9.26214e-06
9.42149e-06
9.58881e-06
9.76117e-06
9.96216e-06
1.01846e-05
1.04006e-05
1.05874e-05
1.07145e-05
1.08382e-05
1.08297e-05
1.06383e-05
1.02635e-05
9.68258e-06
9.06115e-06
1.45511e-06
1.48357e-06
1.50747e-06
1.56196e-06
1.64851e-06
1.76021e-06
1.89474e-06
2.05167e-06
2.22999e-06
2.428e-06
2.6437e-06
2.87535e-06
3.12103e-06
3.3779e-06
3.64275e-06
3.91232e-06
4.18316e-06
4.45159e-06
4.71382e-06
4.96779e-06
5.20428e-06
5.42004e-06
5.6182e-06
5.79202e-06
5.94147e-06
6.06847e-06
6.17343e-06
6.25669e-06
6.32029e-06
6.36714e-06
6.39923e-06
6.4219e-06
6.43887e-06
6.45436e-06
6.46714e-06
6.48133e-06
6.4953e-06
6.50757e-06
6.51672e-06
6.50269e-06
6.50049e-06
9.71798e-07
9.90811e-07
1.00806e-06
1.04524e-06
1.10326e-06
1.17798e-06
1.26795e-06
1.3728e-06
1.49179e-06
1.62379e-06
1.76749e-06
1.92175e-06
2.08524e-06
2.25611e-06
2.43226e-06
2.61152e-06
2.79156e-06
2.96991e-06
3.14394e-06
3.31218e-06
3.46818e-06
3.60987e-06
3.73949e-06
3.85214e-06
3.9477e-06
4.02745e-06
4.09202e-06
4.14168e-06
4.17678e-06
4.19807e-06
4.20611e-06
4.20176e-06
4.18577e-06
4.1598e-06
4.12552e-06
4.08348e-06
4.03468e-06
3.98135e-06
3.92713e-06
3.86764e-06
3.81461e-06
6.5405e-07
6.66847e-07
6.79418e-07
7.05021e-07
7.4426e-07
7.94664e-07
8.55292e-07
9.25804e-07
1.00566e-06
1.09409e-06
1.1902e-06
1.29319e-06
1.40214e-06
1.51579e-06
1.63272e-06
1.75147e-06
1.87045e-06
1.98796e-06
2.10219e-06
2.21211e-06
2.31328e-06
2.40448e-06
2.48744e-06
2.55872e-06
2.61811e-06
2.66646e-06
2.70425e-06
2.73177e-06
2.74944e-06
2.75785e-06
2.75759e-06
2.74933e-06
2.73348e-06
2.71088e-06
2.68239e-06
2.64833e-06
2.60902e-06
2.56529e-06
2.51942e-06
2.46794e-06
2.42238e-06
4.43003e-07
4.51695e-07
4.60932e-07
4.78731e-07
5.05499e-07
5.39767e-07
5.80905e-07
6.28619e-07
6.82501e-07
7.4201e-07
8.06524e-07
8.75471e-07
9.48196e-07
1.02381e-06
1.10135e-06
1.17981e-06
1.2581e-06
1.33506e-06
1.40945e-06
1.48053e-06
1.54531e-06
1.6031e-06
1.65529e-06
1.69951e-06
1.73558e-06
1.76413e-06
1.7855e-06
1.79992e-06
1.80772e-06
1.80937e-06
1.80531e-06
1.7961e-06
1.78208e-06
1.76388e-06
1.74213e-06
1.71708e-06
1.68899e-06
1.65837e-06
1.62676e-06
1.59158e-06
1.56106e-06
3.01616e-07
3.07585e-07
3.14434e-07
3.26927e-07
3.45346e-07
3.68821e-07
3.9692e-07
4.29395e-07
4.65935e-07
5.06155e-07
5.49612e-07
5.95888e-07
6.44514e-07
6.94869e-07
7.46268e-07
7.98025e-07
8.49397e-07
8.9958e-07
9.47728e-07
9.9335e-07
1.03441e-06
1.07059e-06
1.10297e-06
1.12995e-06
1.15141e-06
1.16781e-06
1.17941e-06
1.18641e-06
1.18906e-06
1.18768e-06
1.18263e-06
1.17427e-06
1.16288e-06
1.14888e-06
1.1327e-06
1.11453e-06
1.09455e-06
1.07308e-06
1.05118e-06
1.02716e-06
1.00615e-06
2.06213e-07
2.1037e-07
2.15495e-07
2.24352e-07
2.37138e-07
2.53342e-07
2.72662e-07
2.94892e-07
3.19796e-07
3.47095e-07
3.76472e-07
4.07617e-07
4.40196e-07
4.73768e-07
5.07845e-07
5.41957e-07
5.75599e-07
6.08223e-07
6.39252e-07
6.68361e-07
6.94193e-07
7.16615e-07
7.36474e-07
7.52695e-07
7.65216e-07
7.74362e-07
7.80351e-07
7.83327e-07
7.83479e-07
7.81043e-07
7.76264e-07
7.69405e-07
7.60652e-07
7.50295e-07
7.38617e-07
7.25756e-07
7.11826e-07
6.97019e-07
6.82048e-07
6.65819e-07
6.51517e-07
1.4145e-07
1.44395e-07
1.48269e-07
1.54614e-07
1.6357e-07
1.74843e-07
1.88215e-07
2.03521e-07
2.20581e-07
2.39193e-07
2.59126e-07
2.8015e-07
3.02027e-07
3.24444e-07
3.47054e-07
3.69532e-07
3.91539e-07
4.12702e-07
4.32635e-07
4.51123e-07
4.6727e-07
4.81045e-07
4.93098e-07
5.02713e-07
5.09858e-07
5.14776e-07
5.17632e-07
5.18538e-07
5.17628e-07
5.15071e-07
5.11037e-07
5.05707e-07
4.99209e-07
4.91734e-07
4.83469e-07
4.74508e-07
4.64924e-07
4.54831e-07
4.4471e-07
4.33837e-07
4.24208e-07
9.72674e-08
9.93995e-08
1.02354e-07
1.06948e-07
1.13281e-07
1.21187e-07
1.30507e-07
1.4111e-07
1.52862e-07
1.65612e-07
1.79192e-07
1.93433e-07
2.08163e-07
2.23162e-07
2.38185e-07
2.53005e-07
2.67397e-07
2.8111e-07
2.9389e-07
3.05595e-07
3.1564e-07
3.24042e-07
3.31295e-07
3.36921e-07
3.40908e-07
3.43434e-07
3.44623e-07
3.44559e-07
3.43336e-07
3.41072e-07
3.37884e-07
3.33893e-07
3.29186e-07
3.23886e-07
3.18118e-07
3.11941e-07
3.05405e-07
2.98571e-07
2.91768e-07
2.84513e-07
2.78037e-07
6.70052e-08
6.85839e-08
7.08578e-08
7.42191e-08
7.87417e-08
8.43326e-08
9.08777e-08
9.82721e-08
1.06415e-07
1.15196e-07
1.24493e-07
1.34178e-07
1.44128e-07
1.54191e-07
1.64193e-07
1.73977e-07
1.83392e-07
1.92275e-07
2.00456e-07
2.07847e-07
2.14066e-07
2.1915e-07
2.23469e-07
2.26703e-07
2.28853e-07
2.30049e-07
2.30383e-07
2.29916e-07
2.28714e-07
2.26859e-07
2.2443e-07
2.21507e-07
2.1815e-07
2.14437e-07
2.10448e-07
2.06223e-07
2.01792e-07
1.97189e-07
1.92638e-07
1.87809e-07
1.83473e-07
4.62115e-08
4.74078e-08
4.91716e-08
5.16574e-08
5.49195e-08
5.8909e-08
6.35417e-08
6.87365e-08
7.44169e-08
8.05016e-08
8.69e-08
9.35199e-08
1.00269e-07
1.07044e-07
1.13725e-07
1.20199e-07
1.2637e-07
1.32131e-07
1.37373e-07
1.4204e-07
1.45887e-07
1.48954e-07
1.51514e-07
1.53354e-07
1.54479e-07
1.54984e-07
1.54934e-07
1.54372e-07
1.53346e-07
1.5191e-07
1.50117e-07
1.4802e-07
1.45659e-07
1.43083e-07
1.40345e-07
1.37469e-07
1.34476e-07
1.31381e-07
1.28339e-07
1.25127e-07
1.22201e-07
3.18891e-08
3.28155e-08
3.41928e-08
3.60499e-08
3.84275e-08
4.13012e-08
4.46089e-08
4.8288e-08
5.22807e-08
5.65265e-08
6.09586e-08
6.55093e-08
7.01116e-08
7.46934e-08
7.91723e-08
8.34702e-08
8.75233e-08
9.12634e-08
9.46202e-08
9.75601e-08
9.99263e-08
1.01754e-07
1.03246e-07
1.04259e-07
1.04801e-07
1.04939e-07
1.04722e-07
1.04181e-07
1.03347e-07
1.02259e-07
1.00951e-07
9.94593e-08
9.78085e-08
9.60306e-08
9.41596e-08
9.22103e-08
9.01961e-08
8.81219e-08
8.60975e-08
8.396e-08
8.2011e-08
2.20073e-08
2.27381e-08
2.38192e-08
2.52201e-08
2.69715e-08
2.90621e-08
3.14461e-08
3.40751e-08
3.69054e-08
3.98917e-08
4.29847e-08
4.61349e-08
4.92937e-08
5.24112e-08
5.54317e-08
5.83017e-08
6.09796e-08
6.34232e-08
6.55888e-08
6.74569e-08
6.89283e-08
7.00308e-08
7.09125e-08
7.14764e-08
7.1729e-08
7.17191e-08
7.14806e-08
7.10347e-08
7.0403e-08
6.96103e-08
6.86805e-08
6.76366e-08
6.64949e-08
6.52758e-08
6.40016e-08
6.26815e-08
6.13241e-08
5.99296e-08
5.85752e-08
5.7152e-08
5.58102e-08
1.51822e-08
1.57672e-08
1.66193e-08
1.76858e-08
1.89895e-08
2.05262e-08
2.22615e-08
2.41583e-08
2.61831e-08
2.8302e-08
3.04786e-08
3.26764e-08
3.48601e-08
3.69948e-08
3.90425e-08
4.09665e-08
4.27392e-08
4.43344e-08
4.57252e-08
4.69001e-08
4.77975e-08
4.84398e-08
4.89355e-08
4.92193e-08
4.92978e-08
4.92065e-08
4.89701e-08
4.86032e-08
4.8121e-08
4.754e-08
4.68762e-08
4.61444e-08
4.53552e-08
4.45213e-08
4.36568e-08
4.27669e-08
4.18581e-08
4.09267e-08
4.00301e-08
3.90776e-08
3.82022e-08
1.04669e-08
1.09399e-08
1.16137e-08
1.24327e-08
1.34136e-08
1.45546e-08
1.58302e-08
1.72119e-08
1.86742e-08
2.01917e-08
2.17373e-08
2.32846e-08
2.48085e-08
2.62853e-08
2.76903e-08
2.89986e-08
3.01932e-08
3.12586e-08
3.21791e-08
3.29485e-08
3.35285e-08
3.39329e-08
3.42409e-08
3.44065e-08
3.44348e-08
3.43505e-08
3.41708e-08
3.39054e-08
3.35644e-08
3.3159e-08
3.26999e-08
3.2197e-08
3.16574e-08
3.10891e-08
3.0502e-08
2.98993e-08
2.92853e-08
2.8656e-08
2.80513e-08
2.74186e-08
2.67777e-08
7.21041e-09
7.59494e-09
8.12877e-09
8.76302e-09
9.50854e-09
1.03642e-08
1.13106e-08
1.23261e-08
1.33916e-08
1.44882e-08
1.55956e-08
1.66943e-08
1.77656e-08
1.87919e-08
1.97564e-08
2.06421e-08
2.14371e-08
2.21326e-08
2.27199e-08
2.31958e-08
2.35383e-08
2.37597e-08
2.39174e-08
2.39808e-08
2.39545e-08
2.38569e-08
2.37e-08
2.3491e-08
2.32366e-08
2.29442e-08
2.26208e-08
2.22725e-08
2.19038e-08
2.15195e-08
2.11256e-08
2.07233e-08
2.03166e-08
1.98996e-08
1.95059e-08
1.90736e-08
1.86943e-08
4.96267e-09
5.27603e-09
5.69954e-09
6.1939e-09
6.76536e-09
7.41255e-09
8.12053e-09
8.87285e-09
9.65534e-09
1.04543e-08
1.12555e-08
1.20449e-08
1.28099e-08
1.35397e-08
1.42243e-08
1.4853e-08
1.54181e-08
1.59141e-08
1.63355e-08
1.66803e-08
1.69342e-08
1.71017e-08
1.72252e-08
1.72822e-08
1.7276e-08
1.72193e-08
1.71207e-08
1.69848e-08
1.68165e-08
1.66209e-08
1.64031e-08
1.61676e-08
1.59174e-08
1.5656e-08
1.53879e-08
1.51144e-08
1.48374e-08
1.45535e-08
1.42825e-08
1.40061e-08
1.36696e-08
3.41232e-09
3.6689e-09
4.0062e-09
4.39343e-09
4.83301e-09
5.32395e-09
5.85586e-09
6.41671e-09
6.9956e-09
7.58201e-09
8.16542e-09
8.73551e-09
9.28178e-09
9.7933e-09
1.02608e-08
1.06776e-08
1.10405e-08
1.13484e-08
1.16005e-08
1.17964e-08
1.19294e-08
1.20066e-08
1.20568e-08
1.20653e-08
1.20349e-08
1.19747e-08
1.18905e-08
1.17856e-08
1.16629e-08
1.15255e-08
1.13765e-08
1.12182e-08
1.10526e-08
1.08813e-08
1.07068e-08
1.0529e-08
1.03508e-08
1.01661e-08
9.99819e-09
9.7922e-09
9.65935e-09
2.34701e-09
2.55821e-09
2.82875e-09
3.13397e-09
3.47243e-09
3.84336e-09
4.24088e-09
4.65815e-09
5.08819e-09
5.52293e-09
5.95374e-09
6.37362e-09
6.77858e-09
7.16739e-09
7.53736e-09
7.88025e-09
8.18792e-09
8.45604e-09
8.68229e-09
8.867e-09
9.00498e-09
9.09592e-09
9.16371e-09
9.19733e-09
9.19916e-09
9.17606e-09
9.13254e-09
9.07116e-09
8.99442e-09
8.90509e-09
8.80572e-09
8.69861e-09
8.58533e-09
8.46741e-09
8.34728e-09
8.22564e-09
8.10292e-09
7.97811e-09
7.85683e-09
7.75196e-09
7.53342e-09
1.62224e-09
1.79428e-09
2.0097e-09
2.24979e-09
2.5107e-09
2.79094e-09
3.08648e-09
3.39354e-09
3.70929e-09
4.03024e-09
4.35015e-09
4.65922e-09
4.94529e-09
5.19692e-09
5.41015e-09
5.59161e-09
5.74917e-09
5.88462e-09
5.99729e-09
6.08523e-09
6.14622e-09
6.18438e-09
6.21166e-09
6.22071e-09
6.21265e-09
6.19175e-09
6.1607e-09
6.1208e-09
6.07322e-09
6.01926e-09
5.96013e-09
5.89672e-09
5.82984e-09
5.76001e-09
5.68818e-09
5.61376e-09
5.53941e-09
5.45886e-09
5.3925e-09
5.27765e-09
5.28831e-09
1.1307e-09
1.26766e-09
1.43327e-09
1.61496e-09
1.81066e-09
2.02094e-09
2.24312e-09
2.47258e-09
2.70491e-09
2.93758e-09
3.17132e-09
3.41028e-09
3.6594e-09
3.92107e-09
4.18785e-09
4.43715e-09
4.65139e-09
4.83065e-09
4.97847e-09
5.09921e-09
5.19132e-09
5.25289e-09
5.29917e-09
5.32531e-09
5.33348e-09
5.32773e-09
5.31074e-09
5.28423e-09
5.24987e-09
5.20941e-09
5.16446e-09
5.11646e-09
5.06637e-09
5.01514e-09
4.9642e-09
4.91447e-09
4.86495e-09
4.81815e-09
4.76624e-09
4.76086e-09
4.56042e-09
7.88111e-10
8.99682e-10
1.02618e-09
1.1574e-09
1.2936e-09
1.43962e-09
1.59841e-09
1.77012e-09
1.95127e-09
2.13348e-09
2.30401e-09
2.44898e-09
2.55909e-09
2.633e-09
2.68342e-09
2.73914e-09
2.8133e-09
2.89414e-09
2.97249e-09
3.04239e-09
3.10232e-09
3.15414e-09
3.20002e-09
3.23639e-09
3.26337e-09
3.28273e-09
3.2956e-09
3.30249e-09
3.30387e-09
3.30029e-09
3.29224e-09
3.28005e-09
3.26414e-09
3.2446e-09
3.22182e-09
3.19507e-09
3.16711e-09
3.13082e-09
3.10889e-09
3.01823e-09
3.13185e-09
5.47424e-10
6.49248e-10
7.58937e-10
8.63356e-10
9.59721e-10
1.05223e-09
1.14595e-09
1.24654e-09
1.36077e-09
1.49633e-09
1.66086e-09
1.86019e-09
2.09492e-09
2.3593e-09
2.6326e-09
2.86396e-09
3.0307e-09
3.15954e-09
3.26222e-09
3.34431e-09
3.40383e-09
3.44176e-09
3.46717e-09
3.47876e-09
3.4789e-09
3.4704e-09
3.45529e-09
3.4351e-09
3.41132e-09
3.38543e-09
3.35872e-09
3.33244e-09
3.30733e-09
3.28426e-09
3.26428e-09
3.24883e-09
3.23552e-09
3.23126e-09
3.21357e-09
3.28335e-09
3.03984e-09
4.00292e-10
4.86211e-10
5.78789e-10
6.71142e-10
7.58988e-10
8.40025e-10
9.10853e-10
9.68229e-10
1.0109e-09
1.04001e-09
1.05864e-09
1.07075e-09
1.08062e-09
1.08911e-09
1.10019e-09
1.13987e-09
1.21089e-09
1.29209e-09
1.37615e-09
1.45785e-09
1.53556e-09
1.60886e-09
1.67822e-09
1.7425e-09
1.80085e-09
1.85338e-09
1.90023e-09
1.94128e-09
1.97633e-09
2.00525e-09
2.0279e-09
2.04405e-09
2.05366e-09
2.05633e-09
2.05214e-09
2.04022e-09
2.02303e-09
1.99271e-09
1.97405e-09
1.8696e-09
2.01613e-09
4.7102e-10
5.94602e-10
6.66532e-10
6.80395e-10
6.61376e-10
6.47798e-10
6.72541e-10
7.53871e-10
8.93922e-10
1.08173e-09
1.29823e-09
1.522e-09
1.73352e-09
1.92176e-09
2.07597e-09
2.15456e-09
2.16103e-09
2.13416e-09
2.09282e-09
2.04452e-09
1.98675e-09
1.93516e-09
1.87959e-09
1.82356e-09
1.76882e-09
1.7158e-09
1.66463e-09
1.61549e-09
1.56847e-09
1.52352e-09
1.48044e-09
1.43905e-09
1.39882e-09
1.35933e-09
1.32055e-09
1.28297e-09
1.24362e-09
1.20743e-09
1.15741e-09
1.162e-09
9.69228e-10
544.368
368.11
213.275
118.04
59.17
26.0574
9.51134
2.49173
0.331331
0.0323609
0.0121539
0.0021192
2.0312e-08
7.73017e-06
6.41419e-05
4.21143e-05
2.87369e-05
2.26502e-05
1.73755e-05
1.3124e-05
9.8637e-06
7.39372e-06
5.50398e-06
4.07473e-06
2.99943e-06
2.19505e-06
1.59546e-06
1.15186e-06
8.25248e-07
5.86244e-07
4.13384e-07
2.8877e-07
2.00231e-07
1.37582e-07
9.36355e-08
6.31351e-08
4.20654e-08
2.76687e-08
1.79106e-08
1.13925e-08
7.08615e-09
4.29127e-09
2.51617e-09
1.42013e-09
7.67617e-10
3.98105e-10
2.0621e-10
1.2079e-10
9.50793e-11
9.98506e-11
1.19555e-10
1.41074e-10
1.61182e-10
1.76151e-10
1.85107e-10
1.90605e-10
1.89633e-10
1.86569e-10
1.79768e-10
1.72317e-10
1.628e-10
1.5404e-10
1.44521e-10
1.35383e-10
1.27222e-10
1.1884e-10
1.1253e-10
1.04621e-10
1.01544e-10
9.08918e-11
9.73123e-11
7.75779e-11
1.13025e-10
8.78613e-11
292.896
436.896
311.35
190.894
107.58
55.118
24.9381
9.3274
2.49281
0.337615
0.031817
0.00903644
0.00165368
2.14884e-08
3.04521e-06
5.09903e-05
3.52575e-05
2.23714e-05
1.72431e-05
1.33126e-05
9.99176e-06
7.4703e-06
5.56246e-06
4.11851e-06
3.0311e-06
2.21822e-06
1.61248e-06
1.16409e-06
8.34059e-07
5.92426e-07
4.17695e-07
2.91761e-07
2.02254e-07
1.39006e-07
9.46245e-08
6.38364e-08
4.25766e-08
2.80443e-08
1.8189e-08
1.16006e-08
7.24404e-09
4.40977e-09
2.60412e-09
1.48529e-09
8.14615e-10
4.30188e-10
2.27359e-10
1.33178e-10
1.00737e-10
1.00452e-10
1.16682e-10
1.3576e-10
1.54348e-10
1.68487e-10
1.77027e-10
1.82611e-10
1.81989e-10
1.79412e-10
1.73158e-10
1.66391e-10
1.57505e-10
1.49348e-10
1.40511e-10
1.31841e-10
1.24232e-10
1.16272e-10
1.10395e-10
1.02719e-10
1.0018e-10
8.92895e-11
9.68651e-11
7.56492e-11
1.13486e-10
8.70551e-11
99.2608
303.63
320.501
240.239
156.172
92.0144
49.0054
22.8997
8.78405
2.39727
0.338017
0.0312656
0.00711815
0.00150396
7.16165e-09
2.32037e-07
3.39288e-05
2.92382e-05
1.76321e-05
1.30864e-05
1.01143e-05
7.58498e-06
5.62645e-06
4.16546e-06
3.06808e-06
2.24532e-06
1.63208e-06
1.17822e-06
8.44345e-07
5.99897e-07
4.22781e-07
2.95398e-07
2.04669e-07
1.40696e-07
9.58297e-08
6.46803e-08
4.31964e-08
2.84994e-08
1.85289e-08
1.18535e-08
7.43625e-09
4.55424e-09
2.7122e-09
1.56572e-09
8.72622e-10
4.7098e-10
2.55212e-10
1.49563e-10
1.09113e-10
1.03432e-10
1.14889e-10
1.3127e-10
1.4788e-10
1.61092e-10
1.69525e-10
1.74186e-10
1.74417e-10
1.72021e-10
1.66635e-10
1.60301e-10
1.52359e-10
1.44482e-10
1.36468e-10
1.28373e-10
1.21225e-10
1.13778e-10
1.08275e-10
1.00889e-10
9.88657e-11
8.78025e-11
9.64129e-11
7.39458e-11
1.1366e-10
8.63918e-11
37.8187
175.189
261.347
247.133
189.609
128.735
79.2032
43.8649
21.2137
8.40321
2.38481
0.363858
0.0327385
0.00629337
0.00163444
3.61099e-10
1.22591e-07
1.92673e-05
2.42111e-05
1.42235e-05
9.88847e-06
7.64399e-06
5.75621e-06
4.2378e-06
3.11167e-06
2.27965e-06
1.65863e-06
1.19708e-06
8.5752e-07
6.09241e-07
4.29226e-07
2.99879e-07
2.07683e-07
1.42749e-07
9.72585e-08
6.56722e-08
4.39073e-08
2.90142e-08
1.89084e-08
1.21332e-08
7.6458e-09
4.71059e-09
2.82861e-09
1.65174e-09
9.34789e-10
5.15054e-10
2.8516e-10
1.68214e-10
1.19477e-10
1.0795e-10
1.14688e-10
1.28153e-10
1.42709e-10
1.5482e-10
1.62905e-10
1.66978e-10
1.67723e-10
1.65538e-10
1.60862e-10
1.54942e-10
1.47779e-10
1.40262e-10
1.32911e-10
1.2535e-10
1.18615e-10
1.11613e-10
1.06452e-10
9.93006e-11
9.77577e-11
8.64887e-11
9.60765e-11
7.23478e-11
1.13929e-10
8.57617e-11
18.2038
95.4078
182.918
215.408
196.451
154.215
108.79
69.6768
40.1145
20.159
8.3353
2.5136
0.432104
0.0393346
0.00651774
0.00191981
7.45923e-07
6.08643e-08
6.99256e-06
1.88126e-05
1.17575e-05
7.47703e-06
5.66809e-06
4.34593e-06
3.20101e-06
2.32333e-06
1.68572e-06
1.21834e-06
8.73389e-07
6.20255e-07
4.36686e-07
3.04959e-07
2.11137e-07
1.45079e-07
9.88445e-08
6.67653e-08
4.46788e-08
2.95681e-08
1.93141e-08
1.24316e-08
7.86696e-09
4.87494e-09
2.95062e-09
1.74145e-09
9.99921e-10
5.61207e-10
3.16459e-10
1.88541e-10
1.31346e-10
1.13556e-10
1.15746e-10
1.26133e-10
1.38605e-10
1.49492e-10
1.56955e-10
1.60826e-10
1.61764e-10
1.59843e-10
1.55696e-10
1.50215e-10
1.43646e-10
1.36589e-10
1.29765e-10
1.22671e-10
1.16325e-10
1.097e-10
1.04862e-10
9.78933e-11
9.67915e-11
8.52943e-11
9.58031e-11
7.08082e-11
1.1426e-10
8.51389e-11
10.6628
51.8049
116.246
164.557
176.845
160.243
129.036
94.3396
62.8084
37.6543
19.7818
8.64092
2.83027
0.566538
0.0578411
0.00746691
0.000275289
0.000138157
1.66536e-08
6.81926e-07
1.24895e-05
1.10011e-05
6.05672e-06
4.10418e-06
3.17195e-06
2.39651e-06
1.73798e-06
1.24384e-06
8.89012e-07
6.32106e-07
4.45301e-07
3.10738e-07
2.1493e-07
1.47593e-07
1.00546e-07
6.79346e-08
4.54967e-08
3.01498e-08
1.97373e-08
1.27435e-08
8.0974e-09
5.04597e-09
3.07754e-09
1.83488e-09
1.06796e-09
6.09636e-10
3.49752e-10
2.10483e-10
1.44639e-10
1.20354e-10
1.17938e-10
1.25107e-10
1.35412e-10
1.4497e-10
1.51696e-10
1.5536e-10
1.56351e-10
1.5466e-10
1.50937e-10
1.45874e-10
1.39803e-10
1.33217e-10
1.26846e-10
1.2016e-10
1.14185e-10
1.07884e-10
1.0337e-10
9.65501e-11
9.58487e-11
8.41294e-11
9.54865e-11
6.92993e-11
1.14489e-10
8.45173e-11
7.48604
28.6774
69.755
113.536
140.942
146.155
133.548
110.478
83.645
57.9219
36.2749
20.0565
9.3629
3.38955
0.80959
0.102824
0.0106718
0.00126135
0.000251276
8.25106e-10
3.9856e-08
3.64501e-06
9.06752e-06
5.94857e-06
3.28883e-06
2.2671e-06
1.73095e-06
1.28546e-06
9.18065e-07
6.46341e-07
4.53707e-07
3.16906e-07
2.19347e-07
1.50498e-07
1.0241e-07
6.91693e-08
4.63521e-08
3.07601e-08
2.01806e-08
1.30685e-08
8.33667e-09
5.22334e-09
3.20938e-09
1.93233e-09
1.13916e-09
6.60779e-10
3.85468e-10
2.34389e-10
1.59636e-10
1.28716e-10
1.21476e-10
1.25281e-10
1.3327e-10
1.41383e-10
1.47288e-10
1.50578e-10
1.51525e-10
1.4998e-10
1.46597e-10
1.41889e-10
1.36253e-10
1.30083e-10
1.24111e-10
1.17786e-10
1.12148e-10
1.06131e-10
1.01922e-10
9.52337e-11
9.48891e-11
8.29659e-11
9.50816e-11
6.78151e-11
1.14558e-10
8.38801e-11
6.05363
16.3424
40.4852
72.4973
101.304
118.479
121.715
112.968
96.1386
75.4236
54.4164
35.7326
20.9236
10.534
4.26568
1.22834
0.208632
0.0213079
0.00143398
0.000704639
7.618e-06
6.42965e-09
2.99445e-08
3.3067e-06
5.11305e-06
3.1106e-06
1.77393e-06
1.22393e-06
9.17736e-07
6.69924e-07
4.70106e-07
3.24566e-07
2.23381e-07
1.53332e-07
1.045e-07
7.05976e-08
4.72902e-08
3.13959e-08
2.06365e-08
1.34055e-08
8.58661e-09
5.40846e-09
3.34657e-09
2.03382e-09
1.21368e-09
7.14901e-10
4.23728e-10
2.60561e-10
1.76588e-10
1.38863e-10
1.26549e-10
1.26833e-10
1.32316e-10
1.38844e-10
1.43796e-10
1.46578e-10
1.47366e-10
1.45863e-10
1.42732e-10
1.38296e-10
1.33032e-10
1.27207e-10
1.2158e-10
1.15574e-10
1.10228e-10
1.04465e-10
1.00521e-10
9.39503e-11
9.39167e-11
8.18144e-11
9.45827e-11
6.63609e-11
1.14473e-10
8.32024e-11
5.13677
9.61972
22.9125
43.5189
66.6678
86.3909
98.5635
101.639
96.2453
84.3944
68.6943
51.7456
35.7486
22.2764
12.1681
5.54049
1.92364
0.441762
0.0568124
0.00471088
0.000322116
0.000148231
2.74887e-11
6.97401e-09
1.57441e-07
2.29908e-06
2.7415e-06
1.63274e-06
9.36217e-07
6.35183e-07
4.68215e-07
3.37691e-07
2.33325e-07
1.57869e-07
1.06482e-07
7.18357e-08
4.82504e-08
3.21152e-08
2.11429e-08
1.37594e-08
8.84229e-09
5.59911e-09
3.48967e-09
2.14029e-09
1.29209e-09
7.72152e-10
4.6462e-10
2.89127e-10
1.95657e-10
1.50856e-10
1.3323e-10
1.29785e-10
1.32585e-10
1.37355e-10
1.412e-10
1.43357e-10
1.43869e-10
1.42306e-10
1.3933e-10
1.35091e-10
1.30124e-10
1.24583e-10
1.19245e-10
1.1352e-10
1.08422e-10
1.02882e-10
9.91627e-11
9.26988e-11
9.29286e-11
8.06803e-11
9.39849e-11
6.49418e-11
1.14236e-10
8.24616e-11
4.06003
5.67493
12.4608
24.5293
40.4208
57.0942
71.4135
80.9537
84.457
81.8637
74.0898
62.6639
49.377
35.9797
23.9321
14.2214
7.27949
3.01786
0.91441
0.173858
0.0197579
0.00116589
0.000547138