/*--------------------------------*- C++ -*----------------------------------*\
| =========                 |                                                 |
| \\      /  F ield         | OpenFOAM: The Open Source CFD Toolbox           |
|  \\    /   O peration     | Version:  2312                                  |
|   \\  /    A nd           | Website:  www.openfoam.com                      |
|    \\/     M anipulation  |                                                 |
\*---------------------------------------------------------------------------*/
FoamFile
{
    version     2.0;
    format      ascii;
    arch        "LSB;label=32;scalar=64";
    class       volSymmTensorField;
    location    "900";
    object      turbulenceProperties:devReff;
}
// * * * * * * * * * * * * * * * * * * * * * * * * * * * * * * * * * * * * * //

dimensions      [0 2 -2 0 0 0 0];

internalField   nonuniform List<symmTensor> 
11040
(
(0.0180338 0.0948875 -1.68538e-22 -0.0279836 1.16469e-20 0.00994982)
(0.0672555 0.0877851 9.64043e-21 -0.0801421 1.35501e-19 0.0128866)
(0.0124214 0.0098009 -2.96531e-20 -0.0109231 9.23419e-20 -0.0014983)
(-0.00492524 0.0106984 -7.04183e-20 0.00537962 4.00289e-20 -0.000454385)
(-0.068829 0.0483953 -2.23333e-20 0.0690492 1.99964e-19 -0.000220172)
(-0.0626244 0.0596793 -3.06218e-19 0.0633298 1.11547e-19 -0.000705341)
(-0.0529932 0.0626265 1.7571e-19 0.0532525 -1.15458e-18 -0.000259295)
(-0.0432341 0.0609656 2.44798e-19 0.0433672 -1.69661e-19 -0.000133162)
(-0.0344099 0.0575328 1.05228e-19 0.0344936 -3.05301e-20 -8.36863e-05)
(-0.0281725 0.0554423 9.81362e-20 0.0281599 1.55936e-19 1.25522e-05)
(-0.0229973 0.0527927 -8.71061e-20 0.0229974 3.71444e-19 -1.10867e-07)
(-0.0186431 0.0502317 -1.30404e-19 0.0186136 2.79697e-19 2.94773e-05)
(-0.0149962 0.0479706 2.17187e-20 0.0149356 -1.60864e-19 6.06324e-05)
(-0.0119916 0.0461561 2.71407e-20 0.0119315 1.57455e-19 6.00459e-05)
(-0.00935917 0.0446307 -1.22279e-20 0.00927472 1.19635e-20 8.4455e-05)
(-0.00714913 0.0439441 -4.69353e-21 0.0070565 -2.03636e-19 9.26261e-05)
(-0.00518449 0.044108 5.62402e-20 0.00507605 -8.03153e-22 0.000108449)
(-0.00333886 0.0452051 -5.49066e-21 0.00321442 3.69817e-19 0.000124435)
(-0.0014797 0.0470916 -3.1857e-20 0.00134019 3.23223e-21 0.000139508)
(0.000500285 0.0497322 5.15105e-21 -0.000659492 -5.37593e-20 0.000159207)
(0.00270679 0.0532106 2.43521e-20 -0.00287554 4.11324e-20 0.000168754)
(0.00500762 0.0574241 -2.66591e-20 -0.00517793 1.24334e-19 0.000170304)
(0.00724994 0.0623903 1.0191e-21 -0.00743421 -1.02391e-19 0.000184274)
(0.00964818 0.0681697 1.36857e-20 -0.00984413 2.63045e-19 0.000195954)
(0.0123184 0.0747698 -7.98305e-20 -0.0125097 -2.36707e-19 0.000191284)
(0.015321 0.0824878 -4.26291e-20 -0.0154949 -5.52995e-19 0.000173902)
(0.0186352 0.0910525 1.15677e-20 -0.0187787 -2.57513e-19 0.000143522)
(0.0219884 0.0992038 3.44492e-20 -0.0220859 7.34992e-20 9.7527e-05)
(0.0251515 0.106205 -2.33327e-20 -0.0251835 -2.10457e-19 3.2024e-05)
(0.02781 0.111221 1.43542e-20 -0.027762 -4.91421e-19 -4.80276e-05)
(0.0296257 0.113382 1.24987e-19 -0.0294974 3.53745e-19 -0.000128319)
(0.0303679 0.111937 2.13971e-20 -0.030161 -2.80946e-20 -0.000206899)
(0.0299944 0.107201 1.09064e-19 -0.0297075 9.94263e-19 -0.000286921)
(0.0287576 0.100815 -9.36485e-20 -0.0283744 6.09478e-19 -0.000383197)
(0.0272339 0.0954398 4.81778e-20 -0.0266698 1.02699e-20 -0.000564052)
(0.0206886 0.0752447 1.32857e-19 -0.0200041 9.44275e-19 -0.000684582)
(0.00954756 0.0394479 8.36105e-21 -0.00899843 1.80433e-19 -0.000549124)
(0.00347183 0.0247868 -4.03339e-20 -0.00264101 5.50026e-19 -0.000830822)
(-0.00573486 0.00865644 -4.48815e-19 0.00615128 -1.16233e-18 -0.000416422)
(-0.0162415 -0.0294189 1.35054e-21 0.0175978 -9.72686e-19 -0.00135628)
(-0.0595947 -0.0203231 2.03943e-19 0.066464 5.49861e-20 -0.00686923)
(0.00577113 -0.00597263 5.87044e-22 -0.00414052 -1.71985e-21 -0.00163061)
(0.0169038 0.00173817 2.61661e-20 -0.0101655 5.14199e-21 -0.00673835)
(0.0523623 0.0322195 5.70717e-20 -0.0539007 -3.02322e-19 0.00153832)
(0.123226 0.0325577 7.82879e-20 -0.123975 -1.77722e-19 0.000748937)
(0.24747 -0.021196 8.29494e-20 -0.247024 -4.94675e-19 -0.000445255)
(0.0673614 -0.049058 5.68075e-19 -0.0668793 -1.20666e-18 -0.000482139)
(0.0178428 -0.0191222 -8.2836e-19 -0.0169408 3.24632e-18 -0.000902)
(0.00434712 -0.00771578 -8.33454e-19 -0.0045412 2.15168e-18 0.000194083)
(0.000320977 -0.00228832 -7.53162e-20 -0.000445923 -1.54259e-19 0.000124946)
(-0.00126052 0.00125559 -1.04131e-19 0.00113969 4.04923e-20 0.000120827)
(-0.00221545 0.00357357 4.62173e-19 0.00223016 -1.16242e-18 -1.47108e-05)
(-0.00245812 0.00501718 -1.653e-21 0.00255527 -7.46927e-20 -9.71544e-05)
(-0.00229726 0.0061021 -1.67153e-19 0.00239281 6.84585e-19 -9.55478e-05)
(-0.00209751 0.00686026 -1.13572e-19 0.00224921 3.33142e-20 -0.000151706)
(-0.00174223 0.00740582 -4.48743e-20 0.00190662 -1.72811e-19 -0.000164387)
(-0.00137085 0.00790273 1.06992e-20 0.00156108 5.92323e-19 -0.000190222)
(-0.000990802 0.00847495 -1.46431e-20 0.00120572 1.97994e-19 -0.000214916)
(-0.000583839 0.00913181 -9.09477e-21 0.000822447 -5.53719e-19 -0.000238608)
(-0.000140759 0.00978519 -2.37705e-20 0.000408117 -2.56251e-20 -0.000267357)
(0.000358883 0.0104322 -7.42025e-21 -7.29346e-05 8.26887e-20 -0.000285948)
(0.000921613 0.0110856 -1.10207e-20 -0.00062479 -1.53535e-20 -0.000296823)
(0.00152049 0.0117731 3.12384e-20 -0.00121472 -2.77748e-19 -0.000305767)
(0.0020607 0.0123072 2.39798e-20 -0.00173663 3.90672e-19 -0.000324074)
(0.00250541 0.0124805 -4.6902e-20 -0.00217784 -3.56164e-19 -0.00032757)
(0.00281246 0.0122407 -6.50461e-21 -0.00250653 2.88866e-19 -0.000305935)
(0.00300344 0.0118332 7.51108e-20 -0.00273714 9.32409e-19 -0.000266296)
(0.00308564 0.0113713 1.40391e-19 -0.00287285 5.15041e-19 -0.000212791)
(0.00294153 0.0105856 -3.43859e-20 -0.00281126 1.43409e-19 -0.000130274)
(0.00252532 0.00950522 -9.23306e-20 -0.00251577 2.85259e-19 -9.55247e-06)
(0.00184311 0.00830625 4.48578e-20 -0.00198691 5.07478e-19 0.000143797)
(0.000959269 0.00735884 -1.12131e-19 -0.00126511 -7.74949e-19 0.000305841)
(-0.000186143 0.0071215 -5.68464e-20 -0.000297042 -1.26294e-18 0.000483185)
(-0.00190419 0.00696688 -1.31436e-19 0.00121304 -2.64037e-18 0.000691156)
(-0.00416492 0.00705492 6.96902e-20 0.00324873 -1.31169e-18 0.000916191)
(-0.00702088 0.00742544 -9.37936e-20 0.00577932 1.23166e-19 0.00124157)
(-0.0105375 0.00815109 -4.43283e-19 0.00877627 -4.0154e-18 0.00176123)
(-0.0147214 0.00972819 -6.78625e-20 0.0124447 -3.47457e-19 0.00227673)
(-0.019433 0.0123104 -5.14312e-19 0.0176537 -2.41744e-18 0.00177934)
(-0.0336606 0.0155855 1.24913e-18 0.0298929 5.40654e-18 0.0037677)
(-0.0261757 0.0298902 8.11682e-19 0.0288869 4.8183e-18 -0.00271119)
(-0.121635 -0.113501 -4.03689e-19 0.0745523 -6.69082e-19 0.0470827)
(0.00213398 -0.00416277 -5.29138e-22 -0.00239957 -7.61262e-22 0.000265592)
(-0.000395396 -0.00398961 -1.02195e-20 0.000540952 -2.6149e-20 -0.000145557)
(0.00864463 0.00474928 2.08538e-20 -0.00812553 1.03414e-19 -0.000519102)
(0.0438902 0.018899 6.07438e-20 -0.0446143 9.39008e-20 0.000724084)
(0.283493 0.0490229 -7.64576e-21 -0.285784 -3.81405e-20 0.00229081)
(0.384037 -0.0350665 -3.05438e-19 -0.382469 1.19834e-18 -0.0015677)
(0.174391 -0.0980509 2.58701e-20 -0.17367 1.0127e-20 -0.000720331)
(0.0544137 -0.0542083 9.5457e-20 -0.0507921 -2.47088e-18 -0.0036216)
(0.0215462 -0.0286415 -1.68833e-19 -0.0210864 2.58291e-20 -0.000459799)
(0.0118803 -0.0176833 2.41419e-19 -0.0121073 -7.05252e-19 0.000227004)
(0.00588838 -0.0104962 -4.4477e-19 -0.00598633 1.04943e-18 9.79577e-05)
(0.00284314 -0.00628875 7.73417e-19 -0.00282834 -2.10672e-18 -1.47994e-05)
(0.00146752 -0.00299276 -3.98438e-20 -0.00153054 -7.00328e-20 6.30224e-05)
(0.000638284 -0.000741521 1.56405e-19 -0.000646409 -9.2427e-19 8.12493e-06)
(0.000418339 0.000871469 2.49231e-20 -0.000464551 9.67001e-19 4.62119e-05)
(0.000410364 0.00205189 -8.01359e-20 -0.000449008 -3.69698e-19 3.86445e-05)
(0.000565716 0.00284964 -3.47354e-21 -0.000605166 -6.22967e-19 3.94498e-05)
(0.000815734 0.00341219 4.25867e-20 -0.000856719 -4.45564e-19 4.0985e-05)
(0.00110034 0.00379531 1.98965e-20 -0.00113196 -2.52939e-20 3.16189e-05)
(0.00142293 0.00401086 2.64624e-20 -0.00145282 2.81651e-20 2.98945e-05)
(0.00176064 0.00409357 2.82238e-21 -0.00178426 8.53922e-20 2.36242e-05)
(0.00213009 0.00402206 -4.50346e-20 -0.00215889 1.3595e-19 2.88033e-05)
(0.00246793 0.00368074 -3.79458e-20 -0.00249834 -4.48403e-19 3.04126e-05)
(0.00269722 0.0030283 -4.02545e-20 -0.00272373 -1.7996e-19 2.65083e-05)
(0.00275465 0.00216908 8.4128e-20 -0.00276966 -2.82858e-19 1.50082e-05)
(0.00261311 0.00125045 -1.45869e-20 -0.00261335 -2.64145e-19 2.41443e-07)
(0.00223463 0.000411901 -2.29959e-19 -0.00221362 2.68777e-19 -2.10106e-05)
(0.00155267 -0.000215078 -7.928e-20 -0.00150117 -1.08575e-18 -5.15022e-05)
(0.000504649 -0.000446894 1.93846e-19 -0.000413652 2.67986e-19 -9.09977e-05)
(-0.000987563 -0.000167353 2.64498e-19 0.00111724 1.12543e-18 -0.00012968)
(-0.00310927 0.000492954 -1.86928e-19 0.00326499 6.32936e-19 -0.000155717)
(-0.00622508 0.00114907 4.34444e-19 0.00639926 2.61484e-18 -0.000174172)
(-0.0103336 0.00252159 1.82942e-19 0.010516 8.10111e-19 -0.000182414)
(-0.0154644 0.00475859 -3.99314e-19 0.0156241 9.07389e-19 -0.000159664)
(-0.0217375 0.00801644 -4.81454e-19 0.021821 -9.56136e-19 -8.35836e-05)
(-0.0294765 0.0126128 3.25098e-19 0.0293121 2.00512e-18 0.000164367)
(-0.0387264 0.0192943 2.96922e-19 0.0381609 -2.10824e-18 0.000565512)
(-0.0478301 0.0281138 5.40127e-19 0.0480258 1.92185e-18 -0.000195706)
(-0.0750443 0.0384332 -4.31963e-19 0.0712941 -9.54782e-19 0.00375014)
(-0.0645369 0.0839849 2.44397e-20 0.0702912 -5.01299e-19 -0.00575425)
(-0.158253 0.00545496 4.51078e-19 0.1567 1.68996e-18 0.0015528)
(0.00198004 -0.00264644 -1.5138e-22 -0.00208144 -7.13447e-22 0.000101397)
(-0.000273127 -0.00294062 -3.93888e-22 8.36545e-05 2.84037e-21 0.000189472)
(-0.000859341 -0.00211952 -1.4951e-20 0.000840401 -3.43141e-20 1.89403e-05)
(0.00326555 0.00146654 -2.00164e-20 -0.00316616 -3.92522e-20 -9.93947e-05)
(0.0642513 0.0212277 3.96942e-20 -0.0647623 4.70624e-20 0.000511034)
(0.328158 0.0433274 2.4437e-19 -0.331902 8.95105e-21 0.00374387)
(0.493786 -0.0449786 2.57825e-19 -0.491905 -1.39846e-18 -0.00188169)
(0.300829 -0.137868 9.06341e-19 -0.305026 -1.41791e-18 0.00419694)
(0.104623 -0.0948456 -4.11995e-19 -0.0985866 1.23026e-18 -0.00603668)
(0.0483129 -0.0578868 2.32443e-19 -0.0467958 4.01183e-19 -0.00151709)
(0.0260818 -0.0360552 -3.54539e-19 -0.0260333 1.12844e-18 -4.85248e-05)
(0.0152152 -0.0257708 -5.83159e-19 -0.0152532 1.26793e-18 3.79535e-05)
(0.0096506 -0.0186879 4.67828e-19 -0.00974995 -9.57285e-19 9.93491e-05)
(0.00611259 -0.0136981 -1.18119e-19 -0.00604656 9.4249e-19 -6.60299e-05)
(0.00433764 -0.0102865 -2.01249e-19 -0.00431894 -1.06342e-18 -1.87018e-05)
(0.00333245 -0.00778596 -1.13144e-19 -0.00330271 -4.5956e-19 -2.97381e-05)
(0.00284626 -0.00618487 5.37909e-20 -0.00282246 2.26839e-19 -2.38e-05)
(0.00266202 -0.00507569 1.15537e-19 -0.00265373 1.32885e-20 -8.29331e-06)
(0.00260356 -0.00443248 3.13875e-20 -0.0025928 5.39402e-20 -1.07634e-05)
(0.00264497 -0.00416036 -1.22493e-20 -0.00264814 -7.76634e-20 3.16177e-06)
(0.00270321 -0.00418347 -2.7565e-20 -0.00270294 -1.97822e-19 -2.72869e-07)
(0.00283757 -0.00444867 2.67312e-20 -0.00283823 -2.81759e-19 6.58105e-07)
(0.00303585 -0.00501013 2.33003e-20 -0.00304127 -1.2762e-19 5.42294e-06)
(0.00317813 -0.00587046 8.75614e-21 -0.00318987 1.18458e-19 1.17497e-05)
(0.00315792 -0.00684549 -6.89738e-20 -0.00316849 7.12751e-19 1.05727e-05)
(0.00291127 -0.00775546 2.53837e-19 -0.00292073 -8.12934e-19 9.45688e-06)
(0.00233884 -0.00846343 1.81842e-19 -0.00234927 -6.26006e-19 1.0434e-05)
(0.00129123 -0.00883839 2.00236e-19 -0.00130459 1.53048e-18 1.33643e-05)
(-0.000420734 -0.00874345 -6.35069e-20 0.000404796 4.07795e-19 1.5938e-05)
(-0.00303208 -0.00807977 -5.59757e-19 0.00301272 -5.97334e-19 1.93592e-05)
(-0.00682365 -0.00676104 1.78496e-19 0.00679968 -1.08128e-18 2.39622e-05)
(-0.0120708 -0.00457712 -4.50325e-19 0.0120424 6.57826e-19 2.84146e-05)
(-0.0189273 -0.00103096 3.97168e-19 0.0188911 -5.57894e-19 3.62249e-05)
(-0.0275466 0.00416411 4.52157e-19 0.0275129 -1.41941e-18 3.37105e-05)
(-0.0381197 0.0113042 4.4541e-19 0.0381116 8.27466e-19 8.17811e-06)
(-0.0512431 0.0208524 4.77698e-19 0.0511482 1.79196e-18 9.48552e-05)
(-0.0670647 0.0340921 3.89218e-19 0.0667356 1.8843e-18 0.000329088)
(-0.0820778 0.0520848 -5.81059e-19 0.0832951 -2.34972e-18 -0.00121725)
(-0.121136 0.0709356 2.91167e-20 0.117057 -8.15403e-19 0.00407888)
(-0.110876 0.151588 -1.99315e-19 0.118908 -1.68804e-18 -0.00803213)
(-0.149123 0.0865743 -4.83621e-19 0.144873 -8.10976e-19 0.0042497)
(0.0015554 -0.00196304 1.39052e-21 -0.00154541 3.34364e-21 -9.99717e-06)
(0.000436367 -0.0022415 -2.26993e-21 -0.000382546 -4.49294e-21 -5.38217e-05)
(-0.000690209 -0.00229009 1.15265e-20 0.000694904 2.34171e-20 -4.69552e-06)
(-0.000532686 -0.00110317 1.46519e-20 0.000552014 2.5758e-20 -1.9328e-05)
(0.00161176 0.000478141 -1.48998e-20 -0.00157111 -2.21456e-20 -4.06508e-05)
(0.0592156 0.015462 3.45635e-20 -0.0593736 -1.13214e-20 0.000158016)
(0.312457 0.0305188 -7.35614e-20 -0.315989 -9.00743e-21 0.00353145)
(0.557199 -0.047358 -2.54548e-19 -0.555062 3.18658e-19 -0.0021375)
(0.446684 -0.168276 4.0503e-19 -0.453003 -1.82118e-19 0.00631965)
(0.188853 -0.152789 9.6185e-21 -0.185738 1.80362e-19 -0.00311504)
(0.0858637 -0.0964598 3.62966e-19 -0.0812202 -2.35327e-18 -0.00464349)
(0.0462991 -0.0621783 -2.58669e-19 -0.0457161 3.99334e-19 -0.000582983)
(0.0284859 -0.0451893 -2.92503e-19 -0.0288756 2.33702e-19 0.000389683)
(0.0180824 -0.0341717 3.38248e-19 -0.0181686 -2.3324e-18 8.61706e-05)
(0.0122694 -0.027415 2.68424e-19 -0.0122916 1.33646e-19 2.21457e-05)
(0.00884689 -0.022259 1.69667e-19 -0.00882586 1.78509e-19 -2.1029e-05)
(0.00686475 -0.019036 -1.5778e-19 -0.0068327 6.32805e-19 -3.20495e-05)
(0.00574732 -0.0168059 -1.04727e-20 -0.00573764 1.38905e-19 -9.6793e-06)
(0.00501689 -0.0155087 3.70973e-20 -0.00499361 -6.74413e-20 -2.32777e-05)
(0.00458028 -0.0148946 4.78881e-20 -0.0045752 5.0118e-20 -5.0869e-06)
(0.00424731 -0.0147314 -1.01113e-20 -0.0042335 2.32973e-19 -1.38104e-05)
(0.00411992 -0.0148729 -8.9993e-20 -0.00410531 2.30673e-19 -1.46154e-05)
(0.00420186 -0.0153472 1.23454e-19 -0.00418551 1.76584e-19 -1.63409e-05)
(0.00431621 -0.0161752 1.52428e-19 -0.00430594 4.0448e-19 -1.02684e-05)
(0.00428754 -0.0171501 -1.79252e-19 -0.00427958 -9.90326e-20 -7.96369e-06)
(0.00397375 -0.0180824 -1.34385e-19 -0.00396854 2.05546e-18 -5.21146e-06)
(0.00318285 -0.0187957 8.30044e-20 -0.00318051 -3.16044e-20 -2.33601e-06)
(0.00165912 -0.0190869 -2.97166e-19 -0.00166082 -8.3705e-19 1.69847e-06)
(-0.000909831 -0.0187273 -5.06163e-19 0.00090319 -1.61536e-18 6.64088e-06)
(-0.00487578 -0.017457 3.67183e-19 0.00486185 -6.65168e-19 1.39352e-05)
(-0.0106034 -0.0149472 1.22933e-19 0.0105827 1.76816e-18 2.07688e-05)
(-0.0184287 -0.0107719 2.64304e-19 0.0184014 -1.06982e-18 2.73224e-05)
(-0.0286408 -0.00441579 -2.33147e-19 0.0285986 2.97572e-18 4.21618e-05)
(-0.0414696 0.00461367 -9.01553e-19 0.0414245 1.46517e-19 4.51509e-05)
(-0.0571276 0.016807 -3.36451e-19 0.057118 6.22412e-19 9.63123e-06)
(-0.0763575 0.0328275 -4.57698e-19 0.0762321 7.44201e-19 0.000125403)
(-0.0992769 0.0546182 -6.76146e-20 0.0988332 -3.62771e-20 0.000443745)
(-0.120545 0.0849705 2.26703e-20 0.122231 7.37615e-20 -0.00168611)
(-0.166268 0.114502 -3.24784e-20 0.161241 1.62787e-18 0.00502736)
(-0.163009 0.223524 -3.64669e-20 0.173264 -1.11827e-18 -0.0102551)
(-0.150781 0.171682 6.35296e-19 0.144154 -7.46268e-19 0.00662685)
(0.00118615 -0.0013625 -1.38779e-21 -0.00119552 -2.35912e-21 9.3736e-06)
(0.000455792 -0.00159625 7.09547e-21 -0.000440134 1.15845e-20 -1.56588e-05)
(-0.000184707 -0.0016135 -3.60157e-21 0.000194595 -7.8566e-21 -9.88716e-06)
(-0.000786772 -0.0015886 -3.29842e-21 0.000778435 -8.80834e-21 8.33699e-06)
(-0.000410878 -0.000652241 2.067e-21 0.000414206 4.97611e-21 -3.32778e-06)
(0.000706965 8.34763e-05 -1.8443e-21 -0.000686022 -1.82443e-21 -2.09429e-05)
(0.0405929 0.00806952 -2.47477e-20 -0.0405041 -2.54429e-20 -8.88343e-05)
(0.250928 0.018196 -8.0411e-20 -0.252971 9.92987e-20 0.00204319)
(0.564182 -0.0454745 -1.68942e-19 -0.564258 -1.6268e-19 7.6057e-05)
(0.582905 -0.179584 -3.69951e-19 -0.586329 -9.68262e-19 0.00342399)
(0.326657 -0.222081 3.75205e-19 -0.332708 5.61687e-19 0.00605053)
(0.142481 -0.148404 6.03931e-19 -0.134577 -8.3035e-19 -0.007904)
(0.0765035 -0.10121 -8.08127e-19 -0.0738307 6.22576e-19 -0.00267284)
(0.0467002 -0.0708662 3.52306e-19 -0.0466689 1.08271e-18 -3.12717e-05)
(0.0298002 -0.0553057 1.88662e-20 -0.030164 4.77903e-19 0.000363795)
(0.0201576 -0.0443593 -2.2845e-19 -0.0203081 -8.59041e-20 0.00015057)
(0.0144208 -0.0377451 1.60491e-19 -0.0143821 -8.97778e-19 -3.8699e-05)
(0.0111325 -0.0331618 -3.42373e-20 -0.0111231 5.84042e-19 -9.35414e-06)
(0.00898153 -0.0303368 7.04869e-20 -0.00894692 -1.11064e-19 -3.46106e-05)
(0.00766884 -0.0288371 4.68811e-20 -0.00767286 2.03501e-19 4.02132e-06)
(0.00673439 -0.0281522 -6.30547e-20 -0.00672383 -2.93491e-19 -1.05613e-05)
(0.00627533 -0.027984 2.9864e-20 -0.00627127 1.19119e-20 -4.05582e-06)
(0.00623975 -0.0282983 1.42181e-20 -0.00623114 1.01776e-19 -8.61111e-06)
(0.00635571 -0.0291301 -2.9662e-19 -0.00635119 -3.41776e-19 -4.52093e-06)
(0.00635942 -0.0302197 3.22336e-19 -0.00635396 -8.04415e-19 -5.46327e-06)
(0.00601415 -0.0313286 4.50167e-20 -0.00600825 -4.31254e-19 -5.89993e-06)
(0.0050267 -0.0321905 -5.37904e-19 -0.00502115 -4.32167e-19 -5.54939e-06)
(0.00302094 -0.0324691 5.23633e-20 -0.00301658 -9.74902e-19 -4.35327e-06)
(-0.000448321 -0.0317688 8.49771e-19 0.000449206 -1.18808e-19 -8.84912e-07)
(-0.00586126 -0.0296353 3.38785e-19 0.00585364 1.42771e-18 7.61938e-06)
(-0.0136995 -0.0255198 -4.13338e-19 0.0136836 -7.79867e-19 1.58342e-05)
(-0.0244083 -0.0188036 -4.9655e-19 0.0243873 6.38605e-19 2.10213e-05)
(-0.0383857 -0.00881645 -2.14894e-19 0.0383461 -3.1664e-18 3.96104e-05)
(-0.0559062 0.00518991 7.78907e-19 0.0558608 -1.97241e-18 4.53995e-05)
(-0.0771306 0.0239572 6.26579e-19 0.0771289 -1.79761e-18 1.7351e-06)
(-0.10276 0.0483529 -1.34116e-19 0.102603 -6.41404e-20 0.000157689)
(-0.132602 0.0809695 1.39479e-19 0.132086 1.44809e-18 0.000516119)
(-0.159664 0.126116 4.27426e-20 0.161628 -8.19656e-19 -0.00196388)
(-0.206705 0.169404 -2.43932e-19 0.201131 7.50724e-19 0.00557318)
(-0.21386 0.294983 -5.51425e-19 0.224833 1.77889e-18 -0.0109725)
(-0.166305 0.265751 -5.39247e-19 0.159776 -8.86486e-19 0.00652894)
(0.000917143 -0.000927923 -3.34264e-22 -0.000922904 -6.15974e-22 5.76068e-06)
(0.000456696 -0.00116135 7.76449e-22 -0.000456858 9.15488e-22 1.61208e-07)
(2.96618e-05 -0.00117479 -3.69337e-21 -2.75519e-05 -4.92032e-21 -2.10985e-06)
(-0.000382271 -0.0011808 -5.66564e-21 0.00038627 -7.10186e-21 -3.99896e-06)
(-0.000717449 -0.00108174 -2.02867e-21 0.000713603 -2.36864e-21 3.84594e-06)
(-0.000390878 -0.000479723 4.99094e-21 0.000389785 6.90811e-21 1.09274e-06)
(0.000285832 -7.78504e-05 -1.38934e-21 -0.000274886 -2.10241e-21 -1.09454e-05)
(0.0187495 0.00251377 2.00102e-20 -0.0186362 2.2031e-20 -0.000113308)
(0.169064 0.00816876 2.4155e-19 -0.169703 2.3259e-19 0.000638471)
(0.490354 -0.0393372 -1.71337e-19 -0.492485 3.9005e-19 0.00213062)
(0.668688 -0.16451 -2.72004e-19 -0.666815 6.49416e-19 -0.00187264)
(0.503894 -0.273463 2.73972e-19 -0.514157 -1.07005e-18 0.0102629)
(0.246141 -0.231635 4.39993e-19 -0.245361 1.32225e-18 -0.000780046)
(0.121047 -0.152097 -7.86663e-19 -0.113322 -2.96956e-19 -0.00772524)
(0.0713687 -0.10832 3.33403e-19 -0.0698428 -1.3451e-18 -0.00152591)
(0.0465877 -0.0826578 -2.22975e-19 -0.0469773 7.71272e-19 0.000389543)
(0.0310134 -0.0675764 1.38027e-19 -0.0313052 7.56812e-19 0.000291774)
(0.0219073 -0.0574476 1.58659e-19 -0.0220672 3.89711e-19 0.000159885)
(0.0162259 -0.0510884 -8.2639e-20 -0.0161742 3.44334e-19 -5.16654e-05)
(0.012912 -0.0475334 9.23587e-21 -0.0129046 -9.96632e-19 -7.4051e-06)
(0.0107535 -0.0456754 2.16812e-20 -0.0107149 4.25239e-19 -3.85447e-05)
(0.0096991 -0.0449221 -1.31125e-19 -0.00968697 -8.41127e-21 -1.21321e-05)
(0.00946529 -0.0450297 1.23269e-19 -0.0094523 -4.78856e-19 -1.29872e-05)
(0.00959313 -0.0459693 2.04353e-19 -0.0095896 -7.09422e-20 -3.53651e-06)
(0.00969579 -0.0473453 -1.78939e-19 -0.00969407 1.03535e-18 -1.72147e-06)
(0.0094124 -0.0488147 -3.24265e-19 -0.00941058 -9.09673e-19 -1.81817e-06)
(0.00833803 -0.049979 4.12227e-19 -0.00833598 -5.42948e-19 -2.05157e-06)
(0.00596737 -0.0503219 2.09575e-19 -0.00596428 1.64138e-18 -3.09663e-06)
(0.00170581 -0.0492238 1.44557e-19 -0.00170445 1.7983e-18 -1.36295e-06)
(-0.00507333 -0.0460096 -2.04126e-19 0.00506622 -3.26913e-19 7.10995e-06)
(-0.0149864 -0.0398822 -2.03123e-20 0.0149695 -1.18724e-18 1.68856e-05)
(-0.0285936 -0.0299807 -4.05363e-19 0.0285726 -3.56887e-19 2.0982e-05)
(-0.046366 -0.0154004 -1.92655e-19 0.0463243 1.49065e-18 4.17454e-05)
(-0.0685684 0.00489047 9.45208e-20 0.0685204 2.28986e-18 4.79552e-05)
(-0.0952032 0.0318983 1.34583e-18 0.0952041 7.60734e-19 -8.24908e-07)
(-0.126666 0.0666297 2.24363e-19 0.126479 -8.48799e-19 0.000187348)
(-0.162099 0.112054 -1.57005e-18 0.161613 -7.46092e-19 0.000486361)
(-0.193486 0.172793 1.89909e-20 0.195434 -2.12131e-19 -0.00194807)
(-0.237351 0.232203 -1.7779e-20 0.232062 -1.87676e-18 0.00528883)
(-0.253466 0.363396 -1.35016e-19 0.263423 6.0088e-19 -0.00995663)
(-0.187149 0.363695 4.3048e-19 0.183501 1.5932e-18 0.00364823)
(0.000695855 -0.000648629 -6.89945e-23 -0.000701795 -1.36399e-23 5.94002e-06)
(0.000423919 -0.000830688 -1.41794e-21 -0.000422852 -1.93e-21 -1.06662e-06)
(0.000135287 -0.000907953 1.37355e-21 -0.000133709 1.85665e-21 -1.57761e-06)
(-0.000138531 -0.000872271 6.34057e-21 0.000141914 8.48846e-21 -3.38345e-06)
(-0.00041473 -0.000848302 1.19692e-21 0.000419952 1.66491e-21 -5.22222e-06)
(-0.000635157 -0.000776349 1.07913e-21 0.000634219 5.71952e-22 9.37958e-07)
(-0.000378508 -0.000377288 -7.64336e-21 0.000375735 -8.42482e-21 2.77311e-06)
(1.80575e-05 -0.000160769 -3.46631e-22 -1.3714e-05 -2.36436e-22 -4.34347e-06)
(0.00513619 0.000212617 -1.09568e-20 -0.00508198 -1.57837e-20 -5.42169e-05)
(0.0915432 0.00174384 1.74319e-19 -0.0915151 1.96469e-19 -2.80983e-05)
(0.353799 -0.0281229 -2.79811e-19 -0.355296 -6.87577e-19 0.00149653)
(0.655693 -0.13785 -1.04997e-19 -0.655031 8.52782e-19 -0.0006622)
(0.666112 -0.279649 1.47306e-19 -0.669753 -1.02617e-18 0.00364009)
(0.415718 -0.320861 -3.5306e-19 -0.426093 -3.91865e-19 0.0103743)
(0.201254 -0.234346 9.35282e-19 -0.195344 -2.72772e-19 -0.00590974)
(0.10861 -0.161006 3.83777e-19 -0.102161 8.31343e-19 -0.00644965)
(0.0686769 -0.119808 -3.50155e-19 -0.0678112 5.15198e-19 -0.000865692)
(0.0463432 -0.0971208 -3.80988e-19 -0.0469747 4.39081e-19 0.000631496)
(0.0319436 -0.0830755 -6.12153e-19 -0.03225 -3.63316e-20 0.000306445)
(0.0231833 -0.0744671 4.78143e-19 -0.0233428 -6.08051e-19 0.000159521)
(0.0177969 -0.0695814 1.93486e-19 -0.017732 8.41891e-19 -6.49107e-05)
(0.0152137 -0.0674277 -3.51195e-19 -0.0151697 -2.04983e-19 -4.39984e-05)
(0.0143908 -0.0669619 1.22967e-19 -0.0143416 3.53317e-19 -4.91423e-05)
(0.0144341 -0.0679694 9.23434e-20 -0.0144034 2.344e-19 -3.06621e-05)
(0.0147185 -0.0697714 1.74218e-20 -0.014701 -3.76176e-19 -1.74827e-05)
(0.0146835 -0.0718319 -2.35361e-20 -0.0146741 5.297e-19 -9.38702e-06)
(0.0137788 -0.0735491 3.37405e-19 -0.0137796 1.37722e-18 7.51663e-07)
(0.0113548 -0.074157 3.07978e-19 -0.0113628 -5.45792e-19 7.99261e-06)
(0.00664967 -0.0727048 -4.53876e-19 -0.00666199 3.86945e-20 1.23228e-05)
(-0.00110944 -0.0682713 -9.88305e-19 0.00109035 -1.14422e-18 1.90847e-05)
(-0.0126735 -0.059765 2.51017e-19 0.0126441 7.25344e-20 2.93824e-05)
(-0.0286935 -0.046025 5.66144e-19 0.0286606 -1.05379e-18 3.29391e-05)
(-0.0496614 -0.0258739 6.30622e-19 0.0496088 3.29342e-19 5.26789e-05)
(-0.0757537 0.00198272 -4.23489e-19 0.0756958 -1.75184e-19 5.78846e-05)
(-0.106688 0.0387458 -7.67336e-19 0.106674 1.51977e-18 1.40307e-05)
(-0.142267 0.0854101 -6.1026e-19 0.14205 -1.43165e-18 0.000217047)
(-0.180702 0.144753 9.63707e-19 0.180312 -2.19298e-19 0.000390181)
(-0.213756 0.220146 3.19678e-20 0.215361 3.64724e-19 -0.00160551)
(-0.250865 0.295979 2.00736e-19 0.246765 -3.5409e-19 0.00410017)
(-0.269771 0.422898 -1.48589e-19 0.276694 -8.32517e-19 -0.00692289)
(-0.201406 0.451548 -4.53548e-19 0.20261 5.39754e-19 -0.00120442)
(0.000530647 -0.000460712 -2.22675e-22 -0.000534781 -7.49407e-23 4.13387e-06)
(0.00035951 -0.000594202 -1.19166e-21 -0.000358874 -1.85562e-21 -6.36208e-07)
(0.000178041 -0.000672594 4.98438e-21 -0.000177692 5.67445e-21 -3.48836e-07)
(-1.44231e-05 -0.000689506 -6.6988e-22 1.43286e-05 -8.52247e-22 9.44575e-08)
(-0.000194422 -0.000635436 1.78053e-21 0.000196079 1.65428e-21 -1.65682e-06)
(-0.000392871 -0.000619014 -1.60629e-21 0.000397248 -1.46222e-21 -4.37698e-06)
(-0.000510439 -0.000523234 3.91631e-21 0.000511608 5.24635e-21 -1.16918e-06)
(-0.000358614 -0.000299648 3.09195e-21 0.000356312 2.59223e-21 2.30207e-06)
(-0.000155936 -0.00019436 5.29713e-23 0.000156196 9.49306e-22 -2.59567e-07)
(0.000387417 -6.41308e-05 4.23331e-21 -0.000381676 3.7536e-21 -5.74094e-06)
(0.0353951 -0.000858259 -5.0904e-21 -0.0352491 5.37091e-21 -0.000145964)
(0.203782 -0.0175937 -3.22506e-19 -0.204103 -2.17096e-19 0.000321008)
(0.521783 -0.0989871 1.99969e-19 -0.522862 -3.95635e-19 0.00107891)
(0.732971 -0.244889 -4.88501e-19 -0.731205 9.28725e-19 -0.00176623)
(0.617722 -0.366218 -2.57952e-19 -0.62698 -9.31607e-19 0.0092575)
(0.351619 -0.346561 5.46664e-19 -0.359157 7.42025e-19 0.00753793)
(0.176484 -0.243866 3.40186e-19 -0.168183 -1.54532e-18 -0.00830135)
(0.101344 -0.17483 1.65474e-19 -0.0956228 5.75442e-19 -0.00572158)
(0.0671119 -0.136427 -7.34807e-19 -0.0666319 -1.12323e-18 -0.000480036)
(0.0460374 -0.115982 2.97476e-19 -0.0468221 1.18928e-18 0.000784704)
(0.0324792 -0.104335 7.45387e-20 -0.0328221 -8.75133e-19 0.000342838)
(0.0253097 -0.0986636 -3.27407e-19 -0.0254393 4.29703e-19 0.000129556)
(0.022323 -0.0965544 2.45524e-19 -0.0222615 5.31415e-21 -6.15137e-05)
(0.0216148 -0.0971813 -4.19577e-20 -0.0215299 2.70361e-20 -8.48861e-05)
(0.0219617 -0.0993452 -8.93135e-20 -0.0218993 7.35946e-19 -6.23752e-05)
(0.0223686 -0.102042 1.09053e-19 -0.0223216 -1.75293e-19 -4.69941e-05)
(0.0220479 -0.104398 -7.6469e-19 -0.0220192 6.27144e-21 -2.87472e-05)
(0.0201716 -0.105415 -3.74283e-19 -0.0201612 1.90566e-19 -1.04536e-05)
(0.0157934 -0.103834 -1.94139e-19 -0.0158047 -1.21835e-18 1.13101e-05)
(0.00796786 -0.0982739 9.46505e-19 -0.00800802 1.01067e-19 4.01515e-05)
(-0.00417541 -0.0872616 1.59717e-19 0.00410488 8.16228e-19 7.0532e-05)
(-0.0213447 -0.0692606 2.9002e-19 0.021262 9.0219e-19 8.26661e-05)
(-0.0439875 -0.0428224 -6.00774e-19 0.0438955 2.68141e-19 9.20286e-05)
(-0.0720929 -0.00650738 4.92269e-19 0.0720035 -1.19579e-18 8.93692e-05)
(-0.104979 0.0409008 2.81566e-19 0.104926 -1.41852e-19 5.29136e-05)
(-0.141647 0.100119 1.0151e-18 0.141412 3.16031e-19 0.000235237)
(-0.179344 0.172934 -1.4846e-18 0.179062 4.59925e-19 0.000282126)
(-0.210334 0.260349 -1.39292e-19 0.211446 1.10532e-19 -0.0011117)
(-0.23807 0.348977 2.91008e-19 0.235656 4.58309e-19 0.00241415)
(-0.254184 0.464351 4.65682e-19 0.25731 1.36365e-20 -0.00312564)
(-0.196664 0.511318 9.54885e-20 0.202683 -1.18727e-18 -0.00601858)
(0.000403484 -0.000331151 -8.75789e-22 -0.000406428 -1.01891e-21 2.94399e-06)
(0.000292267 -0.000428218 3.54624e-21 -0.00029237 3.70669e-21 1.03024e-07)
(0.000175753 -0.00049179 -8.3092e-22 -0.000175774 -7.33988e-22 2.06173e-08)
(4.89521e-05 -0.000525558 -6.52563e-21 -4.91096e-05 -6.88716e-21 1.57554e-07)
(-8.12515e-05 -0.000517376 -6.14774e-22 8.10415e-05 -8.24035e-22 2.10004e-07)
(-0.000200467 -0.000466921 6.45337e-21 0.000201307 6.90643e-21 -8.40087e-07)
(-0.000338585 -0.00044231 -1.65238e-21 0.000341618 -2.17777e-21 -3.03298e-06)
(-0.000398629 -0.000350201 -1.44642e-20 0.000400697 -1.43902e-20 -2.06841e-06)
(-0.000324653 -0.000230378 1.03739e-20 0.00032367 1.00299e-20 9.82836e-07)
(-0.000232176 -0.000176986 5.23904e-22 0.000230511 -5.00126e-22 1.66531e-06)
(0.00020481 -0.000356293 -1.4888e-21 -0.000198352 -2.45799e-21 -6.45829e-06)
(0.00768963 -0.000882646 -9.29444e-21 -0.00762783 -5.27055e-21 -6.17981e-05)
(0.0886821 -0.00953325 -1.91296e-19 -0.0885422 -1.26249e-19 -0.000139846)
(0.326065 -0.058918 1.74114e-19 -0.326659 -1.33859e-19 0.000593342)
(0.64094 -0.18431 -6.42834e-19 -0.640617 6.72886e-19 -0.000323108)
(0.753626 -0.341379 5.98871e-19 -0.753239 -3.97599e-19 -0.000386491)
(0.568112 -0.428663 -5.02933e-19 -0.580423 7.53881e-19 0.0123111)
(0.313796 -0.371141 -1.08596e-19 -0.318847 -1.82798e-19 0.0050509)
(0.163308 -0.26341 -2.39867e-19 -0.15415 -3.56756e-19 -0.00915794)
(0.0969973 -0.19601 2.88113e-19 -0.0912729 -1.03536e-18 -0.00572447)
(0.0656908 -0.160999 4.52942e-19 -0.065253 3.28014e-19 -0.000437851)
(0.0475454 -0.144845 -2.42401e-19 -0.0484586 -9.95069e-19 0.000913249)
(0.0378908 -0.137845 -2.26695e-19 -0.0384341 4.4789e-19 0.000543263)
(0.0336395 -0.136425 7.01696e-19 -0.0338412 -5.83993e-19 0.000201725)
(0.032636 -0.138316 -4.11474e-19 -0.0326139 4.92231e-20 -2.20373e-05)
(0.0331735 -0.141845 -5.64257e-19 -0.0330549 -3.68484e-19 -0.000118647)
(0.0338758 -0.145409 1.00077e-18 -0.0337651 -1.41441e-18 -0.000110735)
(0.0334346 -0.147223 -2.21732e-20 -0.0333639 1.06742e-18 -7.07085e-05)
(0.0305935 -0.145573 -2.38224e-23 -0.0305678 -6.46326e-20 -2.57187e-05)
(0.0242695 -0.138851 -5.99189e-19 -0.0242839 1.05238e-18 1.43834e-05)
(0.0135133 -0.125334 6.4485e-20 -0.0135717 -6.34789e-19 5.83663e-05)
(-0.0024479 -0.103024 -1.23662e-20 0.00234098 3.25822e-19 0.000106925)
(-0.0240002 -0.070162 -6.80881e-19 0.0238443 -5.74396e-19 0.000155893)
(-0.0508867 -0.0253042 3.67228e-19 0.0506921 1.71043e-18 0.000194627)
(-0.0819845 0.0325144 -5.18356e-19 0.0817969 2.80513e-19 0.000187593)
(-0.115489 0.10335 -4.88735e-19 0.115165 1.9789e-21 0.000323351)
(-0.147936 0.187187 6.91902e-19 0.147653 -1.83776e-18 0.000283461)
(-0.172646 0.282254 -6.93008e-20 0.173289 7.62859e-19 -0.000643363)