/*--------------------------------*- C++ -*----------------------------------*\
| =========                 |                                                 |
| \\      /  F ield         | OpenFOAM: The Open Source CFD Toolbox           |
|  \\    /   O peration     | Version:  2312                                  |
|   \\  /    A nd           | Website:  www.openfoam.com                      |
|    \\/     M anipulation  |                                                 |
\*---------------------------------------------------------------------------*/
FoamFile
{
    version     2.0;
    format      ascii;
    arch        "LSB;label=32;scalar=64";
    class       volScalarField;
    location    "900";
    object      turbulenceProperties:I;
}
// * * * * * * * * * * * * * * * * * * * * * * * * * * * * * * * * * * * * * //

dimensions      [0 0 0 0 0 0 0];

internalField   nonuniform List<scalar> 
11040
(
0.0591337
0.0926406
1
0.097791
0.272856
0.288315
0.290391
0.291713
0.288558
0.287408
0.284941
0.282802
0.280278
0.278302
0.276291
0.275282
0.275599
0.276836
0.278295
0.279739
0.281165
0.282596
0.283397
0.283069
0.281895
0.281007
0.280791
0.280578
0.280668
0.281519
0.283868
0.288634
0.295865
0.309887
0.339344
0.360514
0.350345
0.472415
1
0.430053
0.726627
0.018627
0.0240207
0.0674754
0.364902
0.5928
0.309992
0.165653
0.0981455
0.0509948
0.0446841
0.0700402
0.0817896
0.0889405
0.0938063
0.0967691
0.0990644
0.101385
0.103575
0.105097
0.10587
0.106002
0.105744
0.104277
0.101002
0.0962369
0.0913481
0.0869465
0.0820334
0.0766633
0.0713538
0.0676257
0.0681824
0.0720526
0.082727
0.10376
0.141503
0.216895
0.414878
1
0.509343
0.800833
0.016163
0.0126634
0.0185941
0.0539446
0.319372
1
0.597438
0.32016
0.213576
0.162667
0.12075
0.0910228
0.0631341
0.0340263
0.033797
0.0490004
0.0570028
0.0615935
0.0639954
0.0647382
0.0642959
0.0629181
0.0600103
0.0554303
0.0498037
0.0438612
0.0377696
0.0306099
0.0197282
0.0253668
0.0443978
0.064432
0.0876551
0.11684
0.157118
0.219667
0.334452
0.605113
1
0.930349
0.662066
0.0142776
0.0115789
0.00927977
0.0116679
0.0564829
0.248306
1
1
0.517674
0.346364
0.252473
0.20119
0.165137
0.137007
0.116547
0.0999278
0.0881005
0.0792505
0.0733384
0.069969
0.0682652
0.0680912
0.0694757
0.0717831
0.0738881
0.0752101
0.0754988
0.0746818
0.0730757
0.072441
0.0772858
0.0921045
0.11716
0.153228
0.204839
0.28467
0.426118
0.727977
1
1
0.672144
0.0128534
0.010917
0.0101585
0.00653287
0.00756133
0.0491624
0.186982
0.779072
1
0.907225
0.525016
0.369894
0.290525
0.236976
0.202809
0.176442
0.158398
0.144815
0.135161
0.128481
0.123572
0.120069
0.118014
0.11713
0.116533
0.115698
0.114315
0.112198
0.109485
0.107233
0.108762
0.120279
0.146484
0.188519
0.249874
0.342931
0.499624
0.797083
1
1
0.785836
0.0112885
0.00975985
0.0088731
0.0085829
0.00440061
0.00367259
0.0373669
0.134277
0.426398
1
1
0.83532
0.548938
0.40523
0.327713
0.275059
0.241239
0.217079
0.199975
0.188085
0.179133
0.172284
0.167287
0.163862
0.161107
0.158469
0.155518
0.151881
0.147421
0.142715
0.140423
0.14774
0.173592
0.220579
0.290234
0.392574
0.55355
0.820714
1
1
0.930601
0.00976274
0.00876242
0.00787178
0.00761546
0.00723305
0.00295893
0.000602645
0.0238842
0.0916682
0.263056
0.8223
1
1
0.841259
0.581507
0.448832
0.370658
0.319501
0.285278
0.262678
0.246539
0.23475
0.226059
0.219757
0.214595
0.209847
0.204922
0.199235
0.19232
0.184246
0.176715
0.176695
0.19792
0.247359
0.323261
0.430405
0.585331
0.808203
1
1
1
0.00840444
0.00774412
0.00720276
0.00665491
0.00656817
0.00636261
0.00129608
0.000134365
0.0126207
0.058267
0.164038
0.421899
1
1
1
0.887573
0.632648
0.502522
0.423542
0.373586
0.340584
0.318945
0.303705
0.292825
0.284087
0.276293
0.268552
0.259988
0.249688
0.237174
0.222779
0.211174
0.219197
0.265255
0.344777
0.452577
0.593833
0.769668
0.941497
1
1
0.00722353
0.00676491
0.00641562
0.00606839
0.00566981
0.00577122
0.00539767
0.00189248
0.00171348
0.00244719
0.032473
0.098933
0.2428
0.591179
1
1
1
0.972588
0.709349
0.574598
0.495201
0.448091
0.417828
0.39741
0.381909
0.368567
0.355866
0.342607
0.327491
0.309201
0.286508
0.259895
0.241333
0.268253
0.347754
0.454308
0.579014
0.713153
0.829904
0.946949
0.940986
0.00619242
0.00587237
0.00563518
0.00542641
0.00518101
0.0049023
0.00501348
0.00457912
0.00249187
0.000875834
0.00365551
0.0143553
0.0554489
0.140854
0.316401
0.731329
1
1
1
1
0.829784
0.690882
0.613328
0.565755
0.533267
0.508399
0.486807
0.465429
0.442162
0.41523
0.382295
0.339875
0.286387
0.251452
0.317154
0.427918
0.540732
0.64388
0.72294
0.790243
0.807892
0.0053012
0.0050757
0.00491406
0.00477755
0.00464337
0.0044633
0.00428708
0.00429825
0.00415481
0.00290914
0.00073229
0.00158748
0.00144851
0.0259482
0.076898
0.175806
0.369269
0.800757
1
1
1
1
1
0.909687
0.81387
0.750559
0.703739
0.664267
0.626722
0.58684
0.540231
0.481478
0.402831
0.289111
0.194375
0.352877
0.475261
0.563706
0.619722
0.655023
0.668242
0.00453299
0.00437348
0.0042589
0.0041723
0.00408983
0.00400088
0.00387894
0.00375108
0.00371423
0.00369426
0.00309827
0.000522089
0.000390351
0.00317583
0.00876931
0.0366933
0.0932793
0.197471
0.391157
0.788962
1
1
1
1
1
1
1
1
0.974245
0.901147
0.827876
0.746055
0.648076
0.526244
0.375667
0.292635
0.401893
0.486028
0.527995
0.541179
0.539865
0.00387268
0.00375973
0.00367711
0.00362052
0.00357364
0.00352428
0.00346695
0.00338892
0.00329547
0.00324024
0.00326251
0.0029678
0.00140927
0.000434581
0.00104886
0.00455996
0.0127101
0.0433856
0.101028
0.202398
0.381134
0.701633
1
1
1
1
1
1
1
1
1
1
1
1
0.844454
0.692048
0.598087
0.558818
0.536843
0.507698
0.470433
0.00330576
0.00322609
0.00316564
0.00312801
0.00310281
0.0030793
0.00305186
0.00301789
0.00297049
0.00290608
0.00285003
0.00287036
0.00277097
0.0020561
0.000242048
0.000164145
0.00162645
0.00560421
0.0148455
0.0449213
0.0993645
0.186887
0.319237
0.519292
0.810935
1
1
1
1
1
1
1
1
1
1
1
1
1
0.849637
0.729604
0.621668
0.00281897
0.00276329
0.00271873
0.00269362
0.00268141
0.00267356
0.00266507
0.00265309
0.00263583
0.00261004
0.00256873
0.0025265
0.00252596
0.00249933
0.00230242
0.00120465
0.000401412
5.07204e-05
0.002124
0.00567208
0.0141569
0.0396423
0.0802654
0.139935
0.223356
0.337314
0.489467
0.682033
0.906019
1
1
1
1
1
1
1
1
1
1
1
1
0.00240103
0.00236243
0.00232945
0.00231269
0.00230828
0.00230932
0.00231172
0.00231334
0.00231225
0.00230682
0.00229555
0.00227319
0.00224724
0.00222588
0.00224668
0.00214899
0.00186616
0.000494843
0.000235221
2.41232e-05
0.00224957
0.00461584
0.008274
0.0241642
0.0491221
0.0845686
0.1321
0.193645
0.27146
0.367759
0.483404
0.617205
0.767771
0.938027
1
1
1
1
1
1
1
0.00204512
0.00201843
0.0019941
0.00198313
0.00198332
0.00198903
0.00199713
0.00200589
0.00201388
0.00201959
0.00202196
0.00201997
0.00201215
0.00199652
0.00198487
0.00198349
0.00199376
0.00185323
0.00142992
0.000243058
0.000171662
1.9768e-05
0.00124312
0.00323687
0.00516951
0.00780082
0.0201924
0.037977
0.0621193
0.0932136
0.131945
0.17908
0.2354
0.301842
0.379293
0.468426
0.570622
0.68986
0.832748
1
1
0.00175285
0.00173442
0.00171665
0.00171003
0.00171316
0.00172145
0.00173241
0.00174476
0.00175722
0.00176868
0.00177816
0.00178497
0.00178866
0.00178855
0.00178288
0.00177553
0.00177162
0.00178743
0.0017756
0.00163378
0.00119274
0.000200845
0.000158343
3.98786e-05
0
0.00112995
0.00292444
0.00374008
0.00226254
0.00822674
0.0180943
0.0317616
0.0494537
0.0716281
0.0985538
0.130475
0.167624
0.210677
0.260009
0.316746
0.380088
0.00151891
0.00150617
0.00149317
0.00148959
0.00149449
0.00150409
0.00151644
0.00153057
0.00154547
0.00156008
0.00157357
0.00158526
0.00159465
0.00160161
0.0016056
0.00160657
0.00160312
0.00160225
0.00160706
0.00161921
0.00159823
0.00145441
0.00118417
0.000405582
0.000191801
9.09978e-05
2.57053e-05
0
0.000259682
0.00121557
0.00266518
0.00323186
0.000260769
0.00299307
0.00783364
0.016092
0.0268289
0.0403449
0.0566852
0.0760743
0.0984648
0.00133003
0.00132112
0.0013115
0.00130995
0.00131577
0.00132582
0.00133852
0.00135311
0.00136878
0.00138467
0.00140008
0.00141447
0.00142733
0.00143831
0.00144719
0.00145393
0.0014582
0.00145989
0.00145973
0.00146295
0.00147221
0.00147919
0.00146749
0.00137522
0.00119797
0.00093285
0.000277356
0.000153108
8.33163e-05
6.01538e-05
1.26792e-05
0
3.91933e-05
0.000376062
0.001139
0.00241135
0.00302863
0.00263877
0.00244198
0.00163478
0.00677758
0.0011738
0.00116751
0.00116039
0.00116025
0.00116652
0.00117657
0.00118913
0.00120354
0.00121915
0.00123523
0.00125119
0.00126661
0.00128108
0.00129425
0.00130588
0.00131579
0.00132397
0.00133033
0.00133472
0.0013374
0.00133949
0.00134553
0.00135408
0.00136825
0.00136219
0.00133656
0.00125443
0.00111137
0.000919181
0.000684547
0.000151209
0.000114947
7.41675e-05
6.0148e-05
4.37737e-05
1.51333e-05
0
0
0
0.000145039
0.00089517
0.00104244
0.00103801
0.00103281
0.00103365
0.00104008
0.0010499
0.00106204
0.00107596
0.00109108
0.00110679
0.00112258
0.0011381
0.00115301
0.00116702
0.0011799
0.00119149
0.00120167
0.00121042
0.00121775
0.00122373
0.00122793
0.00123129
0.00123467
0.00124095
0.00125015
0.00125921
0.00127059
0.00126923
0.00124969
0.00121737
0.00114793
0.00104206
0.00090847
0.000752497
0.000565151
0.000203585
0.000112625
6.62232e-05
5.79175e-05
4.89502e-05
3.88246e-05
0.00093043
0.000927334
0.000923615
0.000925154
0.000931564
0.000941005
0.000952582
0.000965816
0.000980203
0.000995222
0.00101044
0.00102554
0.00104026
0.00105433
0.00106754
0.00107974
0.00109084
0.00110074
0.00110943
0.00111702
0.00112323
0.00112823
0.00113246
0.00113585
0.00113944
0.00114356
0.00114981
0.00115806
0.00116676
0.00117376
0.00118179
0.0011815
0.00117164
0.00115156
0.00112345
0.00107621
0.00100999
0.000925343
0.000827172
0.000715258
0.000585057
0.000833856
0.00083174
0.000829188
0.000831216
0.000837491
0.000846479
0.00085742
0.000869885
0.000883426
0.000897594
0.00091201
0.000926402
0.000940538
0.000954184
0.000967154
0.000979312
0.000990555
0.00100081
0.00101002
0.00101825
0.00102524
0.00103114
0.00103633
0.00104057
0.00104399
0.00104685
0.00104934
0.00105189
0.00105499
0.00105855
0.00106321
0.00106875
0.0010744
0.00107957
0.00108348
0.00108761
0.00108857
0.00108498
0.00107658
0.00106234
0.00104638
0.000749816
0.000748425
0.000746801
0.000749165
0.000755235
0.000763733
0.000774007
0.000785668
0.000798313
0.000811552
0.000825052
0.000838571
0.000851908
0.00086486
0.000877255
0.000888969
0.000899903
0.000909982
0.000919144
0.000927432
0.000934569
0.000940665
0.000946055
0.000950537
0.0009542
0.000957189
0.000959559
0.000961353
0.000962665
0.000963613
0.000964269
0.000964829
0.000965424
0.000966202
0.000967102
0.000968274
0.000969645
0.000971148
0.000972715
0.000973564
0.000974998
0.000676118
0.000675271
0.000674391
0.000676983
0.000682809
0.000690808
0.000700417
0.000711273
0.000723019
0.000735308
0.000747847
0.000760421
0.000772849
0.000784951
0.000796576
0.000807608
0.000817955
0.000827541
0.000836302
0.000844265
0.000851156
0.000857061
0.000862278
0.000866599
0.0008701
0.000872911
0.000875104
0.000876717
0.000877781
0.000878338
0.000878414
0.000878042
0.000877244
0.000876088
0.000874639
0.000872904
0.000870915
0.000868768
0.000866647
0.000864281
0.00086234
0.000611065
0.000610633
0.000610354
0.000613098
0.000618663
0.000626173
0.000635133
0.000645209
0.000656075
0.000667425
0.000679
0.000690607
0.000702084
0.000713267
0.000724023
0.000734247
0.000743852
0.000752765
0.000760921
0.000768338
0.000774751
0.000780236
0.00078507
0.000789044
0.000792216
0.0007947
0.000796562
0.000797843
0.000798584
0.000798826
0.000798606
0.00079796
0.0007969
0.000795468
0.000793705
0.000791609
0.000789183
0.000786462
0.000783601
0.000780294
0.000777468
0.000553323
0.000553213
0.000553427
0.00055627
0.000561574
0.000568618
0.000576961
0.000586292
0.000596316
0.000606763
0.000617399
0.000628052
0.000638575
0.000648823
0.000658674
0.000668034
0.000676824
0.000684972
0.000692418
0.000699171
0.000704984
0.000709927
0.000714262
0.00071779
0.000720553
0.000722653
0.000724153
0.00072509
0.000725502
0.000725432
0.000724918
0.000724
0.000722698
0.000721057
0.000719117
0.000716888
0.000714374
0.000711607
0.000708734
0.000705448
0.000702672
0.000501823
0.000501972
0.000502596
0.000505505
0.00051056
0.000517167
0.000524931
0.000533563
0.000542794
0.000552383
0.000562123
0.000571857
0.000581454
0.000590783
0.000599733
0.000608222
0.000616177
0.000623532
0.000630228
0.000636273
0.000641435
0.000645787
0.000649579
0.000652622
0.000654948
0.000656652
0.000657792
0.000658403
0.000658521
0.000658188
0.000657439
0.000656316
0.000654837
0.000653047
0.000650987
0.000648667
0.000646094
0.000643296
0.000640417
0.000637178
0.000634385
0.000455698
0.000456064
0.000457037
0.000459995
0.00046482
0.000471024
0.000478253
0.000486236
0.000494728
0.000503515
0.000512411
0.000521275
0.000529991
0.00053844
0.000546521
0.000554162
0.000561298
0.000567869
0.00057382
0.000579157
0.000583669
0.000587428
0.000590677
0.000593239
0.000595138
0.000596464
0.000597269
0.000597589
0.000597455
0.000596909
0.000595984
0.000594719
0.000593135
0.000591272
0.000589168
0.000586837
0.000584284
0.000581534
0.000578723
0.0005756
0.000572865
0.000414237
0.000414796
0.000416076
0.000419072
0.000423691
0.00042953
0.00043627
0.000443656
0.000451468
0.000459512
0.000467624
0.000475676
0.000483565
0.000491186
0.000498446
0.000505282
0.000511637
0.000517459
0.000522697
0.000527356
0.000531245
0.000534438
0.000537172
0.000539279
0.000540781
0.00054176
0.000542269
0.000542336
0.000541995
0.000541283
0.000540232
0.000538879
0.000537244
0.000535363
0.000533273
0.000530987
0.000528512
0.000525866
0.000523179
0.000520224
0.000517608
0.000376849
0.000377592
0.000379147
0.000382181
0.00038662
0.000392134
0.000398431
0.000405274
0.000412464
0.000419828
0.00042722
0.000434522
0.000441646
0.000448498
0.000454995
0.00046108
0.000466708
0.000471831
0.000476404
0.000480433
0.000483749
0.000486424
0.000488687
0.000490385
0.000491535
0.000492213
0.00049247
0.000492333
0.000491833
0.000491003
0.000489875
0.000488482
0.000486842
0.000484989
0.000482958
0.000480758
0.000478399
0.000475893
0.000473365
0.000470605
0.000468132
0.000343044
0.00034397
0.000345777
0.000348853
0.000353139
0.000358366
0.000364268
0.000370623
0.000377251
0.000383998
0.000390733
0.000397351
0.000403773
0.00040992
0.000415718
0.000421114
0.000426073
0.000430554
0.000434519
0.000437974
0.000440769
0.000442977
0.000444818
0.000446151
0.00044699
0.00044741
0.000447455
0.000447153
0.000446531
0.00044562
0.000444451
0.000443051
0.000441441
0.000439648
0.000437704
0.000435619
0.000433402
0.000431059
0.00042871
0.00042616
0.000423855
0.000312404
0.000313521
0.000315563
0.000318689
0.000322849
0.000327829
0.000333382
0.000339303
0.000345428
0.00035162
0.000357762
0.000363763
0.00036955
0.000375057
0.00038022
0.000384993
0.000389348
0.000393252
0.000396673
0.000399619
0.00040196
0.000403765
0.000405246
0.000406274
0.000406861
0.000407076
0.000406963
0.000406545
0.000405848
0.0004049
0.000403728
0.000402359
0.000400809
0.000399105
0.000397274
0.000395325
0.000393266
0.000391101
0.000388941
0.000386609
0.000384465
0.000284578
0.000285896
0.000288163
0.000291345
0.00029541
0.00030018
0.00030543
0.000310969
0.000316648
0.000322347
0.00032796
0.000333406
0.000338623
0.000343555
0.000348149
0.000352362
0.000356174
0.00035956
0.000362495
0.000364985
0.000366921
0.000368369
0.000369532
0.000370289
0.000370656
0.000370695
0.000370448
0.000369937
0.000369186
0.00036822
0.000367063
0.000365741
0.000364267
0.000362664
0.000360957
0.000359155
0.000357263
0.000355283
0.00035332
0.000351203
0.000349251
0.000259264
0.000260796
0.000263278
0.000266529
0.000270524
0.000275122
0.000280113
0.000285321
0.00029061
0.000295872
0.000301017
0.000305972
0.000310683
0.000315106
0.000319195
0.000322917
0.000326255
0.000329195
0.000331716
0.000333828
0.000335438
0.000336607
0.000337527
0.000338088
0.000338304
0.000338233
0.000337913
0.000337365
0.000336609
0.000335668
0.000334565
0.00033332
0.000331948
0.000330467
0.000328899
0.000327253
0.000325534
0.000323738
0.000321967
0.000320067
0.000318252
0.000236204
0.000237964
0.000240655
0.000243985
0.000247937
0.000252397
0.000257171
0.000262094
0.000267045
0.000271926
0.000276658
0.00028118
0.000285444
0.000289414
0.000293054
0.000296337
0.00029925
0.000301784
0.000303928
0.000305689
0.000306992
0.000307894
0.000308579
0.000308946
0.000309009
0.000308824
0.000308426
0.000307834
0.000307068
0.000306147
0.000305093
0.000303922
0.000302649
0.000301288
0.00029986
0.000298368
0.000296822
0.000295211
0.000293637
0.000291931
0.000290344
0.000215179
0.00021718
0.000220075
0.000223496
0.000227431
0.000231784
0.000236377
0.000241056
0.000245712
0.000250261
0.000254633
0.000258775
0.000262651
0.000266233
0.000269495
0.000272415
0.000274988
0.000277211
0.000279077
0.000280598
0.000281711
0.000282463
0.000283026
0.000283308
0.000283322
0.000283118
0.000282728
0.000282169
0.000281458
0.000280613
0.000279653
0.000278593
0.000277446
0.000276223
0.000274945
0.000273614
0.000272238
0.000270806
0.000269409
0.000267921
0.000266389
0.000196004
0.000198254
0.000201347
0.000204872
0.000208814
0.000213087
0.000217526
0.000221993
0.000226391
0.000230648
0.000234703
0.000238512
0.000242042
0.000245271
0.00024818
0.000250751
0.000252982
0.000254876
0.000256433
0.000257664
0.000258524
0.00025906
0.000259432
0.00025956
0.000259457
0.00025917
0.00025873
0.000258152
0.000257452
0.000256646
0.00025575
0.000254777
0.000253737
0.00025264
0.000251502
0.000250325
0.000249117
0.00024786
0.000246658
0.000245312
0.000244119
0.000178511
0.000181017
0.000184303
0.000187941
0.000191906
0.000196117
0.000200424
0.000204703
0.00020887
0.000212868
0.000216648
0.000220174
0.000223424
0.000226386
0.000229053
0.000231413
0.000233466
0.000235218
0.000236668
0.000237828
0.000238661
0.000239195
0.000239582
0.000239746
0.0002397
0.000239486
0.000239132
0.000238652
0.000238059
0.00023737
0.000236598
0.000235757
0.000234856
0.000233904
0.000232916
0.000231896
0.00023085
0.000229762
0.00022871
0.000227621
0.000226269
0.000162551
0.000165331
0.000168816
0.000172569
0.00017655
0.000180694
0.000184873
0.00018898
0.000192941
0.000196707
0.000200237
0.000203504
0.000206482
0.000209148
0.000211489
0.000213504
0.000215205
0.000216611
0.000217734
0.000218589
0.000219153
0.000219467
0.000219664
0.000219679
0.000219522
0.000219235
0.000218842
0.000218355
0.000217785
0.000217145
0.000216447
0.000215699
0.00021491
0.000214085
0.000213236
0.000212361
0.000211473
0.00021054
0.000209684
0.000208613
0.000207922
0.000148039
0.000151115
0.000154814
0.000158684
0.000162661
0.0001667
0.000170714
0.000174632
0.0001784
0.00018197
0.000185301
0.000188374
0.000191194
0.000193783
0.000196149
0.000198263
0.000200099
0.000201654
0.000202934
0.000203958
0.000204707
0.000205189
0.000205544
0.000205712
0.000205707
0.000205567
0.000205316
0.000204967
0.000204532
0.000204025
0.000203458
0.000202844
0.000202189
0.000201501
0.000200794
0.00020007
0.000199333
0.000198575
0.00019783
0.000197182
0.000195793
0.000134997
0.000138332
0.000142198
0.000146155
0.000150107
0.00015402
0.000157836
0.000161517
0.000165048
0.000168411
0.000171566
0.000174449
0.000176988
0.000179125
0.000180869
0.000182309
0.000183528
0.000184555
0.000185393
0.000186037
0.000186474
0.000186741
0.000186929
0.000186983
0.000186912
0.000186748
0.000186508
0.000186203
0.00018584
0.000185427
0.000184972
0.000184482
0.000183961
0.000183414
0.000182845
0.000182251
0.000181653
0.000180996
0.000180452
0.000179492
0.000179592
0.000123367
0.000126866
0.000130739
0.000134615
0.000138435
0.000142206
0.000145879
0.000149393
0.000152706
0.000155815
0.000158756
0.000161601
0.000164414
0.000167221
0.000169942
0.000172368
0.000174368
0.000175985
0.000177282
0.000178318
0.000179093
0.000179602
0.00017998
0.000180188
0.000180247
0.00018019
0.000180041
0.000179813
0.000179519
0.000179172
0.000178786
0.000178373
0.000177939
0.000177492
0.000177046
0.000176607
0.000176168
0.00017575
0.000175283
0.000175242
0.000173377
0.000112746
0.000116487
0.000120325
0.000123939
0.000127372
0.000130762
0.000134165
0.000137571
0.000140905
0.00014403
0.000146774
0.000148983
0.000150588
0.000151628
0.000152318
0.000153076
0.00015408
0.000155155
0.000156177
0.000157072
0.000157827
0.000158471
0.000159035
0.000159477
0.000159802
0.000160033
0.000160185
0.000160266
0.00016028
0.000160234
0.000160136
0.000159986
0.000159792
0.000159553
0.000159272
0.000158942
0.000158594
0.000158139
0.000157863
0.000156701
0.000158159
0.000102962
0.000107417
0.000111653
0.000115265
0.000118309
0.000121015
0.000123579
0.000126163
0.000128919
0.000131978
0.000135429
0.000139286
0.000143451
0.000147742
0.000151811
0.000155009
0.000157189
0.000158809
0.000160063
0.000161043
0.000161741
0.000162178
0.000162467
0.000162595
0.00016259
0.000162486
0.000162306
0.000162066
0.000161784
0.000161476
0.000161157
0.000160842
0.000160541
0.000160262
0.000160021
0.000159835
0.000159675
0.000159626
0.000159412
0.000160275
0.000157222
9.52492e-05
9.99816e-05
0.000104413
0.00010832
0.000111667
0.000114499
0.000116803
0.000118566
0.000119821
0.000120649
0.000121166
0.000121496
0.000121766
0.000121999
0.000122306
0.000123394
0.000125272
0.000127319
0.000129338
0.000131213
0.000132923
0.000134478
0.0001359
0.000137178
0.000138307
0.0001393
0.000140167
0.000140913
0.00014154
0.00014205
0.000142445
0.000142723
0.000142887
0.000142929
0.000142852
0.000142641
0.000142336
0.000141796
0.00014146
0.000139548
0.000142203
9.92195e-05
0.00010517
0.00010821
0.000108757
0.000107973
0.000107396
0.000108385
0.000111499
0.000116326
0.00012198
0.000127645
0.000132796
0.000137162
0.000140718
0.000143437
0.000144754
0.000144845
0.000144379
0.000143664
0.00014282
0.000141794
0.000140859
0.000139833
0.000138776
0.00013772
0.000136675
0.000135643
0.000134629
0.000133638
0.000132669
0.00013172
0.000130789
0.000129865
0.000128938
0.000128008
0.000127086
0.0001261
0.000125171
0.000123853
0.000123975
0.000118477
0.447337
0.345704
0.29215
0.24606
0.201593
0.158943
0.118354
0.0798161
0.0440139
0.0207435
0.0109691
0.00488629
0.000264447
0.00100442
0.00168658
0.00153193
0.00140553
0.00133725
0.00126296
0.00118746
0.00111443
0.00104457
0.000976783
0.000911569
0.000848981
0.000789079
0.000731752
0.000677102
0.000625037
0.000575502
0.000528703
0.000484398
0.000442841
0.000403815
0.000367255
0.000333153
0.000301261
0.000271501
0.00024367
0.000217709
0.000193409
0.00017066
0.000149366
0.000129479
0.000111028
9.42231e-05
7.99336e-05
6.99263e-05
6.58603e-05
6.66654e-05
6.97279e-05
7.26648e-05
7.51159e-05
7.67913e-05
7.77373e-05
7.82958e-05
7.8183e-05
7.78522e-05
7.71195e-05
7.62944e-05
7.52052e-05
7.41592e-05
7.29731e-05
7.17785e-05
7.0659e-05
6.9453e-05
6.85004e-05
6.72517e-05
6.67413e-05
6.4905e-05
6.60159e-05
6.23608e-05
6.85248e-05
6.4295e-05
0.735122
0.523699
0.407729
0.330259
0.268908
0.215887
0.168252
0.124466
0.08358
0.0458514
0.021084
0.010077
0.00462941
0.000268715
0.000815966
0.00160858
0.00148033
0.0013326
0.0012602
0.00119157
0.00111798
0.00104726
0.000979401
0.000914067
0.000851285
0.000791232
0.000733774
0.000678966
0.000626766
0.000577074
0.000530128
0.000485692
0.000443993
0.000404887
0.000368247
0.000334096
0.000302189
0.000272431
0.000244622
0.000218704
0.000194483
0.000171831
0.000150657
0.000130942
0.000112692
9.60676e-05
8.19093e-05
7.16544e-05
6.68191e-05
6.67655e-05
6.93051e-05
7.19704e-05
7.43065e-05
7.59416e-05
7.68744e-05
7.74612e-05
7.73824e-05
7.7094e-05
7.64e-05
7.56293e-05
7.45855e-05
7.35874e-05
7.2461e-05
7.13037e-05
7.02394e-05
6.90739e-05
6.81724e-05
6.69432e-05
6.65151e-05
6.46161e-05
6.5939e-05
6.19684e-05
6.85934e-05
6.41454e-05
0.968385
0.708651
0.538538
0.426942
0.345302
0.279698
0.223649
0.173868
0.12842
0.0861258
0.0473962
0.0214841
0.00958727
0.00470228
0.000211224
0.000459425
0.00146492
0.00142681
0.00126702
0.00118618
0.00112133
0.00105128
0.000982253
0.000916736
0.000853963
0.000793735
0.00073609
0.000681106
0.000628771
0.000578956
0.000531797
0.000487251
0.000445357
0.000406148
0.000369443
0.000335219
0.000303302
0.000273545
0.000245769
0.000219896
0.000195767
0.000173226
0.000152201
0.000132682
0.000114648
9.82694e-05
8.4311e-05
7.37637e-05
6.8167e-05
6.72554e-05
6.90373e-05
7.13676e-05
7.35153e-05
7.50939e-05
7.60463e-05
7.65514e-05
7.65641e-05
7.62869e-05
7.56695e-05
7.49269e-05
7.3968e-05
7.298e-05
7.19334e-05
7.08294e-05
6.98097e-05
6.86997e-05
6.78419e-05
6.66421e-05
6.62951e-05
6.43444e-05
6.58609e-05
6.16154e-05
6.86185e-05
6.40212e-05
1
0.931425
0.696415
0.542993
0.435792
0.354031
0.287249
0.229975
0.179077
0.132602
0.0893964
0.0499522
0.0224428
0.00970857
0.00520811
0.000109125
0.000399745
0.00128245
0.00137443
0.00121136
0.00111479
0.00105329
0.000987966
0.000920797
0.00085709
0.000796871
0.000739184
0.000683925
0.000631308
0.000581283
0.000533885
0.000489151
0.000447039
0.000407664
0.000370848
0.000336525
0.000304565
0.00027479
0.000247032
0.000221193
0.00019714
0.0001747
0.000153812
0.000134471
0.00011664
0.000100493
8.66833e-05
7.59637e-05
6.97313e-05
6.79783e-05
6.90072e-05
7.09401e-05
7.28638e-05
7.43519e-05
7.52924e-05
7.57465e-05
7.58182e-05
7.55573e-05
7.5005e-05
7.42921e-05
7.34051e-05
7.24405e-05
7.14593e-05
7.0408e-05
6.94301e-05
6.83698e-05
6.75537e-05
6.63774e-05
6.61076e-05
6.41013e-05
6.58023e-05
6.12786e-05
6.86579e-05
6.39025e-05
1
1
0.904804
0.690955
0.547935
0.443866
0.362463
0.295165
0.237148
0.185474
0.138253
0.0943416
0.0542553
0.0245951
0.0106851
0.00602692
0.000599328
0.000342982
0.00100937
0.00130172
0.00116499
0.00104737
0.000984116
0.00092677
0.000863363
0.000800815
0.000742322
0.000687075
0.000634329
0.000583997
0.000536278
0.000491283
0.000448947
0.000409368
0.000372391
0.000337949
0.000305921
0.000276113
0.000248362
0.000222553
0.00019856
0.000176212
0.00015545
0.000136265
0.000118623
0.000102674
8.8971e-05
7.8162e-05
7.14025e-05
6.88443e-05
6.91658e-05
7.06589e-05
7.23341e-05
7.37035e-05
7.4595e-05
7.50386e-05
7.51352e-05
7.48984e-05
7.43948e-05
7.37183e-05
7.28859e-05
7.19609e-05
7.10319e-05
7.00281e-05
6.9092e-05
6.80742e-05
6.72992e-05
6.61401e-05
6.59427e-05
6.38778e-05
6.57543e-05
6.09487e-05
6.87063e-05
6.37844e-05
1
1
1
0.897375
0.696423
0.558139
0.4551
0.373368
0.305341
0.246534
0.194118
0.146219
0.101697
0.0608796
0.0288068
0.0123345
0.00269925
0.0022219
0.000257619
0.000591924
0.00118296
0.00115684
0.00100091
0.000913514
0.000861472
0.000807275
0.000748228
0.000690811
0.000637287
0.00058689
0.000539011
0.000493683
0.000451023
0.000411189
0.000374031
0.000339458
0.000307342
0.000277485
0.00024973
0.00022395
0.000200009
0.000177745
0.000157101
0.000138061
0.000120595
0.000104823
9.12254e-05
8.03441e-05
7.3145e-05
6.98527e-05
6.94913e-05
7.05147e-05
7.19137e-05
7.31395e-05
7.39618e-05
7.43923e-05
7.44982e-05
7.42832e-05
7.38192e-05
7.31793e-05
7.23928e-05
7.1512e-05
7.06284e-05
6.96661e-05
6.87712e-05
6.77898e-05
6.70576e-05
6.59111e-05
6.57805e-05
6.36575e-05
6.56987e-05
6.06201e-05
6.87394e-05
6.36658e-05
1
1
1
1
0.913507
0.714865
0.57615
0.471716
0.388467
0.319091
0.259165
0.205839
0.157205
0.112044
0.0704352
0.0358096
0.0154462
0.00566948
0.0028783
0.000132326
0.000313736
0.000877914
0.00111128
0.00100502
0.00086961
0.000796156
0.000747606
0.000696755
0.000642643
0.000590326
0.000541662
0.00049622
0.000453411
0.00041327
0.000375811
0.000341035
0.000308812
0.000278907
0.000251143
0.000225381
0.000201484
0.000179297
0.000158765
0.000139864
0.00012256
0.000106958
9.34718e-05
8.25353e-05
7.49721e-05
7.10361e-05
7.00069e-05
7.05394e-05
7.16276e-05
7.26827e-05
7.34183e-05
7.38128e-05
7.3916e-05
7.37143e-05
7.32822e-05
7.26737e-05
7.19282e-05
7.10869e-05
7.0244e-05
6.93187e-05
6.84616e-05
6.7512e-05
6.68207e-05
6.56843e-05
6.56142e-05
6.34351e-05
6.56277e-05
6.02916e-05
6.87482e-05
6.35436e-05
1
1
1
1
1
0.95577
0.748778
0.604267
0.495611
0.409257
0.337591
0.275972
0.221396
0.171831
0.125947
0.083434
0.0465584
0.0211335
0.00648114
0.00494646
0.00104463
0.000209081
0.00029444
0.000865988
0.000975102
0.000863627
0.000752514
0.000688328
0.000642733
0.000595856
0.000546681
0.000499328
0.000455582
0.000415283
0.000377781
0.000342837
0.000310406
0.00028037
0.000252575
0.00022684
0.000202992
0.000180876
0.000160443
0.000141672
0.000124521
0.000109087
9.57117e-05
8.47501e-05
7.68888e-05
7.23971e-05
7.0727e-05
7.07569e-05
7.14992e-05
7.2354e-05
7.29789e-05
7.33173e-05
7.34032e-05
7.32027e-05
7.27938e-05
7.22087e-05
7.14986e-05
7.069e-05
6.98823e-05
6.89903e-05
6.81659e-05
6.72445e-05
6.65889e-05
6.54608e-05
6.54443e-05
6.32127e-05
6.55401e-05
5.99643e-05
6.87339e-05
6.3413e-05
1
1
1
1
1
1
1
0.802448
0.645571
0.529049
0.437431
0.362127
0.297948
0.241564
0.190731
0.143918
0.100482
0.0615871
0.0306647
0.0119204
0.00359452
0.00274842
6.21458e-05
0.000212574
0.000426268
0.000799521
0.00084246
0.000741327
0.000646241
0.00058804
0.000546246
0.000504484
0.000460737
0.00041844
0.00037964
0.000344391
0.000312019
0.000282003
0.000254142
0.000228346
0.000204504
0.000182462
0.000162141
0.000143497
0.00012649
0.000111212
9.79443e-05
8.69849e-05
7.88866e-05
7.39128e-05
7.16431e-05
7.11655e-05
7.15356e-05
7.21592e-05
7.26472e-05
7.2911e-05
7.29635e-05
7.27519e-05
7.23556e-05
7.17861e-05
7.11041e-05
7.03219e-05
6.95436e-05
6.86809e-05
6.78841e-05
6.69875e-05
6.63618e-05
6.52407e-05
6.52704e-05
6.29913e-05
6.54349e-05
5.96398e-05
6.86966e-05
6.32694e-05
0.838199
1
1
1
1
1
1
1
0.883642
0.704864
0.575247
0.475243
0.394324
0.326294
0.267253
0.214597
0.166531
0.122082
0.0813599
0.0463559
0.0217518
0.00692998
0.00548658
0.00108506
8.72913e-05
0.000198371
0.000445206
0.000708471
0.000728848
0.000639433
0.000551143
0.000494896
0.000456832
0.000421321
0.000384181
0.00034756
0.00031373
0.000283215
0.000255486
0.00022991
0.000206159
0.000184132
0.000163847
0.000145305
0.000128454
0.000113344
0.000100187
8.92409e-05
8.09496e-05
7.5562e-05
7.27376e-05
7.17577e-05
7.17324e-05
7.20981e-05
7.24201e-05
7.25933e-05
7.2592e-05
7.23598e-05
7.19616e-05
7.14022e-05
7.0739e-05
6.99786e-05
6.92234e-05
6.83855e-05
6.76121e-05
6.67366e-05
6.61362e-05
6.50212e-05
6.50891e-05
6.27695e-05
6.5309e-05
5.93184e-05
6.8634e-05
6.31081e-05
0.668374
0.752729
1
1
1
1
1
1
1
1
0.790258
0.639219
0.525989
0.436446
0.36262
0.299631
0.244286
0.194425
0.148634