/*--------------------------------*- C++ -*----------------------------------*\
| =========                 |                                                 |
| \\      /  F ield         | OpenFOAM: The Open Source CFD Toolbox           |
|  \\    /   O peration     | Version:  2312                                  |
|   \\  /    A nd           | Website:  www.openfoam.com                      |
|    \\/     M anipulation  |                                                 |
\*---------------------------------------------------------------------------*/
FoamFile
{
    version     2.0;
    format      ascii;
    arch        "LSB;label=32;scalar=64";
    class       volScalarField;
    location    "900";
    object      turbulenceProperties:k;
}
// * * * * * * * * * * * * * * * * * * * * * * * * * * * * * * * * * * * * * //

dimensions      [0 2 -2 0 0 0 0];

internalField   nonuniform List<scalar> 
11040
(
0.402951
0.441778
0.070786
0.0463081
0.274872
0.283479
0.268852
0.245491
0.221181
0.205875
0.191529
0.179064
0.168824
0.160935
0.154575
0.151316
0.151003
0.153836
0.159362
0.167491
0.178522
0.192129
0.208322
0.227348
0.249262
0.274997
0.303727
0.331381
0.355455
0.373051
0.381128
0.377089
0.361839
0.340673
0.322413
0.253422
0.132687
0.0817022
0.0342748
0.110611
0.218003
0.0336659
0.0696199
0.235417
0.422725
0.814535
0.273053
0.0848631
0.0291759
0.00760834
0.00570118
0.0137223
0.0182754
0.0212808
0.0234193
0.0248125
0.0261461
0.027801
0.0297968
0.0318495
0.0339501
0.0361568
0.0385658
0.0405265
0.0413316
0.0407764
0.0396494
0.0383055
0.0357775
0.0321081
0.0278776
0.0244107
0.023466
0.0236775
0.0265753
0.0328287
0.0425181
0.0562111
0.0739673
0.118379
0.13498
0.549318
0.0207511
0.0185648
0.0410564
0.177114
0.943192
1.27004
0.660376
0.250292
0.117887
0.0704951
0.0397465
0.0227174
0.011017
0.00322561
0.00321723
0.00688465
0.00954669
0.0115229
0.0129708
0.0139684
0.0146253
0.0149493
0.0145705
0.0133472
0.0115441
0.00953174
0.00745059
0.00509012
0.00216185
0.00357782
0.0106884
0.0212409
0.0355133
0.0538459
0.0769039
0.106044
0.142691
0.184378
0.275004
0.35879
0.523792
0.0149122
0.0127629
0.0105798
0.0163987
0.225066
1.09259
1.63729
1.10321
0.461717
0.248373
0.147341
0.0991112
0.0696735
0.0495698
0.0368948
0.0279674
0.0224742
0.0189207
0.0169637
0.0162788
0.0164446
0.0174255
0.019357
0.0220728
0.0249382
0.0274171
0.0290776
0.0295953
0.0290148
0.0286093
0.0318433
0.0428052
0.0628792
0.092478
0.132086
0.183705
0.249591
0.324969
0.461454
0.63397
0.568098
0.0111049
0.0100142
0.0106676
0.00534813
0.00708867
0.200356
1.03853
1.84878
1.59423
0.802609
0.424286
0.256768
0.177618
0.128327
0.0996316
0.0794079
0.0670655
0.0588642
0.0540069
0.0516371
0.0508009
0.0511428
0.0527408
0.0555083
0.0586356
0.0614326
0.0632806
0.0636214
0.0622816
0.0602205
0.0608918
0.0709267
0.0962944
0.1387
0.198071
0.276331
0.376392
0.493181
0.665548
0.932508
0.754294
0.00801361
0.0073583
0.00715926
0.00792658
0.00244414
0.00173108
0.135319
0.831218
1.87598
2.03125
1.32125
0.675864
0.419203
0.282007
0.20903
0.161967
0.134188
0.116171
0.105051
0.0990909
0.0961206
0.0952402
0.0962431
0.0990433
0.102607
0.106017
0.108303
0.108425
0.105664
0.100485
0.0963505
0.102496
0.131007
0.1868
0.268843
0.377836
0.51655
0.680107
0.883232
1.22544
1.03896
0.00578814
0.00553191
0.00519399
0.00553057
0.00572128
0.00110007
4.78564e-05
0.0633436
0.557299
1.63386
2.28485
1.92193
1.12312
0.639751
0.430104
0.315879
0.247466
0.204538
0.178203
0.163767
0.156003
0.152802
0.153
0.156166
0.160738
0.165373
0.168579
0.168621
0.163917
0.154069
0.141817
0.137906
0.162605
0.228822
0.334358
0.476364
0.655642
0.866498
1.10005
1.48628
1.35997
0.00422444
0.00413056
0.00406821
0.00390819
0.00422878
0.00443659
0.000208033
2.40473e-06
0.0196217
0.299842
1.1779
2.22501
2.40842
1.76164
1.02191
0.641139
0.45884
0.358554
0.296355
0.259598
0.238956
0.229991
0.227897
0.231227
0.237315
0.244033
0.249093
0.249763
0.243086
0.227363
0.203441
0.1806
0.186427
0.25231
0.37806
0.552441
0.770782
1.02412
1.28836
1.67781
1.6482
0.00312038
0.00307635
0.00308217
0.00305672
0.00293695
0.0033183
0.0031778
0.000433941
0.000388278
0.000787193
0.114997
0.676708
1.76559
2.56765
2.40354
1.65267
0.994876
0.668588
0.505793
0.415914
0.363952
0.339155
0.329911
0.331434
0.338746
0.347834
0.355312
0.357433
0.349805
0.328407
0.290993
0.241385
0.204397
0.241001
0.375269
0.577584
0.829733
1.11634
1.40536
1.76645
1.82935
0.0023176
0.00229706
0.00231378
0.00233882
0.00231939
0.00224834
0.00252828
0.00227006
0.00073349
9.91285e-05
0.00180215
0.0257561
0.293448
1.10036
2.21726
2.75292
2.38652
1.62386
1.02505
0.724626
0.578768
0.508169
0.476335
0.468039
0.473312
0.485155
0.497276
0.502878
0.495527
0.469589
0.419987
0.343337
0.246981
0.189067
0.29358
0.516003
0.794708
1.10307
1.4048
1.72132
1.84536
0.00172879
0.00171921
0.00173647
0.00176374
0.00178861
0.00177225
0.00174821
0.00186896
0.00185468
0.000974927
6.70194e-05
0.000337076
0.00028095
0.0791788
0.502575
1.458
2.51173
2.86771
2.42099
1.68175
1.11458
0.836236
0.720054
0.673062
0.659812
0.665755
0.679801
0.69135
0.690738
0.66831
0.61454
0.521271
0.384288
0.206384
0.0968342
0.332193
0.633527
0.952832
1.25204
1.51671
1.66217
0.00129219
0.0012883
0.00130072
0.00132549
0.00135154
0.00137228
0.00136794
0.00135418
0.00140004
0.00145633
0.00108186
3.28543e-05
1.97549e-05
0.00136946
0.0101225
0.150541
0.685944
1.69774
2.68641
2.97534
2.53811
1.86964
1.35972
1.08314
0.965712
0.931907
0.932346
0.941197
0.944569
0.93009
0.886
0.801521
0.669615
0.489787
0.279455
0.19251
0.418272
0.713033
0.98323
1.1871
1.30587
0.000966401
0.000965542
0.000973877
0.000992829
0.00101649
0.001039
0.00105688
0.00106137
0.0010538
0.00106686
0.00112891
0.00097562
0.00023172
2.34937e-05
0.00014578
0.0028369
0.0209719
0.20516
0.787621
1.79969
2.77084
3.11333
2.84597
2.3502
1.88591
1.56167
1.38381
1.3122
1.29625
1.29099
1.2672
1.20946
1.1125
0.981642
0.836982
0.721584
0.698961
0.789336
0.926834
1.02191
1.03413
0.000722158
0.000722947
0.000728315
0.000742
0.000761159
0.000781572
0.000800616
0.000816716
0.000825541
0.000823952
0.000824979
0.000868753
0.000839281
0.000480704
7.00054e-06
3.41771e-06
0.000354488
0.00429211
0.0285336
0.221177
0.787949
1.72218
2.65187
3.20228
3.28566
3.07025
2.74393
2.41761
2.14812
1.95561
1.83377
1.75924
1.7038
1.64836
1.59136
1.54349
1.52134
1.53213
1.5691
1.59445
1.49724
0.000538456
0.000540082
0.000543513
0.000553221
0.00056789
0.00058472
0.000601882
0.000618148
0.000632541
0.000643121
0.000645765
0.000647028
0.000668654
0.000675359
0.000591265
0.000167828
1.952e-05
3.29284e-07
0.000606767
0.00440696
0.026212
0.179733
0.585431
1.28025
2.12934
2.90235
3.42718
3.66961
3.69571
3.58417
3.38994
3.15457
2.91811
2.71756
2.57974
2.51577
2.52304
2.57708
2.64897
2.72016
2.64866
0.00040015
0.000402021
0.000404217
0.000411032
0.000421966
0.000435086
0.000449162
0.000463519
0.000477406
0.000490047
0.000500548
0.000506287
0.000510174
0.000515549
0.000540047
0.00050727
0.000393072
2.8557e-05
6.7309e-06
7.44593e-08
0.000678513
0.00292047
0.00919797
0.0729584
0.264489
0.647561
1.23059
1.94987
2.69638
3.36861
3.90329
4.27543
4.48789
4.56184
4.53291
4.44164
4.32954
4.22472
4.15388
4.15249
4.08101
0.000296903
0.000298649
0.000300109
0.000304923
0.000312969
0.000322867
0.000333837
0.000345447
0.000357281
0.000368807
0.00037955
0.000388997
0.000396418
0.000400779
0.000406557
0.000416235
0.000430487
0.000380298
0.000231749
6.88857e-06
3.5659e-06
4.93804e-08
0.000203535
0.00142215
0.00366198
0.00818647
0.0521253
0.169229
0.401301
0.774357
1.2887
1.9176
2.61492
3.329
4.01027
4.61336
5.11141
5.49215
5.76672
5.987
6.04991
0.000222427
0.000223972
0.000225074
0.000228663
0.000234727
0.000242275
0.000250777
0.000259974
0.000269569
0.000279249
0.000288679
0.000297592
0.000305758
0.00031284
0.000318081
0.000322706
0.000328459
0.000341434
0.000343574
0.000296309
0.000161021
4.67087e-06
2.98459e-06
1.95585e-07
0
0.000168121
0.00115595
0.00191782
0.000700826
0.00908418
0.0422413
0.122605
0.274504
0.521602
0.878039
1.34517
1.91136
2.55882
3.25478
3.98377
4.63692
0.000169755
0.000171116
0.000172015
0.000174799
0.000179484
0.000185349
0.000192034
0.000199388
0.000207213
0.000215266
0.000223319
0.000231162
0.000238614
0.000245573
0.000251804
0.000257199
0.000261218
0.00026605
0.000272712
0.000281768
0.000278979
0.000234421
0.000157575
1.87656e-05
4.27231e-06
9.8261e-07
8.03949e-08
0
8.66186e-06
0.000194489
0.00095307
0.00141794
9.25396e-06
0.00120933
0.0081247
0.0332341
0.0885274
0.189585
0.350281
0.584452
0.894512
0.000131939
0.000133091
0.000133836
0.000136034
0.000139702
0.000144306
0.000149592
0.000155459
0.000161781
0.000168384
0.000175116
0.000181839
0.000188413
0.000194706
0.000200616
0.000206076
0.000210938
0.000215103
0.000218725
0.000223336
0.000229744
0.000235216
0.000234314
0.000207911
0.000159235
9.74322e-05
8.69854e-06
2.68164e-06
8.05135e-07
4.26515e-07
1.92932e-08
0
1.9148e-07
1.79429e-05
0.000167117
0.000757732
0.00120376
0.00091546
0.000780792
0.000346433
0.00585218
0.000103939
0.000104893
0.000105518
0.000107278
0.000110183
0.000113834
0.000118047
0.00012275
0.000127849
0.000133224
0.000138762
0.000144375
0.000149967
0.00015544
0.000160707
0.000165693
0.000170353
0.000174623
0.000178419
0.000181768
0.000184933
0.000189077
0.000193741
0.000199851
0.000199812
0.00019375
0.000171681
0.000135428
9.30581e-05
5.1849e-05
2.54269e-06
1.47819e-06
6.19776e-07
4.1099e-07
2.19711e-07
2.65252e-08
0
0
0
2.53427e-06
9.72401e-05
8.27683e-05
8.35517e-05
8.40861e-05
8.55124e-05
8.78368e-05
9.07574e-05
9.41396e-05
9.79275e-05
0.000102051
0.000106421
0.000110952
0.000115581
0.000120242
0.000124861
0.000129376
0.000133728
0.000137868
0.000141757
0.000145366
0.000148683
0.000151568
0.000154166
0.000156639
0.000159723
0.000163444
0.000167007
0.000171051
0.000171495
0.000166851
0.000158732
0.000141361
0.000116589
8.86422e-05
6.08218e-05
3.43079e-05
4.45292e-06
1.36345e-06
4.71865e-07
3.61466e-07
2.5874e-07
1.63173e-07
6.64765e-05
6.71164e-05
6.75783e-05
6.8745e-05
7.0618e-05
7.29701e-05
7.57003e-05
7.8764e-05
8.21054e-05
8.56569e-05
8.93543e-05
9.31499e-05
9.69953e-05
0.000100835
0.00010462
0.000108306
0.000111853
0.000115226
0.000118396
0.000121362
0.000124038
0.000126399
0.000128499
0.000130316
0.00013208
0.000133869
0.000136064
0.000138643
0.000141239
0.000143324
0.000145554
0.000145616
0.000143206
0.000138241
0.000131387
0.00012032
0.000105695
8.8454e-05
7.04478e-05
5.2493e-05
3.49966e-05
5.37649e-05
5.42867e-05
5.46899e-05
5.56515e-05
5.71705e-05
5.9076e-05
6.1291e-05
6.37782e-05
6.64927e-05
6.93819e-05
7.23962e-05
7.54973e-05
7.86489e-05
8.18085e-05
8.49369e-05
8.79998e-05
9.09655e-05
9.38048e-05
9.64908e-05
9.90178e-05
0.000101315
0.000103365
0.000105215
0.000106806
0.00010816
0.00010932
0.000110329
0.000111276
0.000112266
0.000113284
0.000114468
0.000115774
0.000117042
0.00011814
0.000118896
0.000119632
0.000119607
0.000118523
0.000116348
0.000112909
0.000109129
4.37323e-05
4.4158e-05
4.45121e-05
4.53097e-05
4.65481e-05
4.80993e-05
4.99035e-05
5.1929e-05
5.41388e-05
5.64913e-05
5.89472e-05
6.14756e-05
6.40482e-05
6.66317e-05
6.91947e-05
7.17093e-05
7.41498e-05
7.64919e-05
7.87126e-05
8.08053e-05
8.27063e-05
8.44033e-05
8.59324e-05
8.72517e-05
8.83701e-05
8.93092e-05
9.00775e-05
9.06817e-05
9.114e-05
9.14761e-05
9.1706e-05
9.18696e-05
9.19947e-05
9.21123e-05
9.22139e-05
9.23302e-05
9.24496e-05
9.2562e-05
9.26558e-05
9.25866e-05
9.25999e-05
3.57389e-05
3.60869e-05
3.63998e-05
3.70649e-05
3.80797e-05
3.93482e-05
4.08233e-05
4.24776e-05
4.42803e-05
4.61979e-05
4.81989e-05
5.02581e-05
5.23524e-05
5.44551e-05
5.6541e-05
5.85875e-05
6.05734e-05
6.24785e-05
6.4283e-05
6.59805e-05
6.75165e-05
6.88818e-05
7.01076e-05
7.11557e-05
7.20329e-05
7.2757e-05
7.33379e-05
7.37815e-05
7.40933e-05
7.42814e-05
7.43519e-05
7.43126e-05
7.41702e-05
7.39389e-05
7.36331e-05
7.32568e-05
7.28184e-05
7.2337e-05
7.18453e-05
7.1303e-05
7.08171e-05
2.93196e-05
2.96052e-05
2.98829e-05
3.04408e-05
3.12765e-05
3.23183e-05
3.35285e-05
3.48832e-05
3.63566e-05
3.79214e-05
3.95519e-05
4.12277e-05
4.29294e-05
4.46353e-05
4.6325e-05
4.798e-05
4.95829e-05
5.11167e-05
5.25649e-05
5.39216e-05
5.51409e-05
5.62173e-05
5.71789e-05
5.79923e-05
5.86615e-05
5.92008e-05
5.96189e-05
5.99214e-05
6.0115e-05
6.02069e-05
6.0204e-05
6.01137e-05
5.99401e-05
5.96916e-05
5.93767e-05
5.89981e-05
5.85581e-05
5.80648e-05
5.75428e-05
5.69514e-05
5.64229e-05
2.41299e-05
2.43656e-05
2.46135e-05
2.50843e-05
2.57761e-05
2.66354e-05
2.76318e-05
2.87443e-05
2.99509e-05
3.12293e-05
3.25587e-05
3.39219e-05
3.53027e-05
3.66834e-05
3.80472e-05
3.93791e-05
4.06647e-05
4.189e-05
4.30412e-05
4.41133e-05
4.5068e-05
4.5903e-05
4.66442e-05
4.7263e-05
4.77621e-05
4.81533e-05
4.8444e-05
4.86392e-05
4.87446e-05
4.87668e-05
4.87122e-05
4.85877e-05
4.83977e-05
4.815e-05
4.78522e-05
4.75069e-05
4.71167e-05
4.66876e-05
4.62404e-05
4.57376e-05
4.52969e-05
1.99104e-05
2.01065e-05
2.03292e-05
2.07291e-05
2.13051e-05
2.20173e-05
2.28407e-05
2.37567e-05
2.47469e-05
2.57929e-05
2.68774e-05
2.7986e-05
2.91055e-05
3.02212e-05
3.13189e-05
3.23868e-05
3.3413e-05
3.43859e-05
3.52941e-05
3.61336e-05
3.68729e-05
3.75122e-05
3.80752e-05
3.85381e-05
3.89024e-05
3.91784e-05
3.93726e-05
3.94893e-05
3.95333e-05
3.95105e-05
3.94263e-05
3.92868e-05
3.90957e-05
3.88597e-05
3.8585e-05
3.82744e-05
3.79298e-05
3.7556e-05
3.71707e-05
3.67436e-05
3.63659e-05
1.64631e-05
1.66282e-05
1.68296e-05
1.7172e-05
1.76546e-05
1.82478e-05
1.89308e-05
1.96874e-05
2.05019e-05
2.13591e-05
2.22446e-05
2.31465e-05
2.40537e-05
2.49542e-05
2.5836e-05
2.66896e-05
2.75056e-05
2.82743e-05
2.89866e-05
2.96392e-05
3.02066e-05
3.06905e-05
3.11129e-05
3.14537e-05
3.17142e-05
3.19032e-05
3.20263e-05
3.20873e-05
3.20905e-05
3.20405e-05
3.19424e-05
3.18009e-05
3.16195e-05
3.14035e-05
3.11582e-05
3.08858e-05
3.05879e-05
3.02681e-05
2.99413e-05
2.95829e-05
2.92635e-05
1.3635e-05
1.37762e-05
1.39598e-05
1.42554e-05
1.46625e-05
1.51594e-05
1.57284e-05
1.63554e-05
1.70272e-05
1.7731e-05
1.8455e-05
1.91891e-05
1.99243e-05
2.06505e-05
2.13579e-05
2.20387e-05
2.26855e-05
2.32905e-05
2.38464e-05
2.43506e-05
2.47825e-05
2.51452e-05
2.54583e-05
2.57053e-05
2.58873e-05
2.60119e-05
2.6084e-05
2.61068e-05
2.60839e-05
2.60194e-05
2.59173e-05
2.57818e-05
2.56156e-05
2.54231e-05
2.52086e-05
2.49738e-05
2.47204e-05
2.44506e-05
2.4177e-05
2.38796e-05
2.36131e-05
1.13067e-05
1.143e-05
1.15987e-05
1.18561e-05
1.22021e-05
1.26207e-05
1.30971e-05
1.36188e-05
1.41745e-05
1.47538e-05
1.53468e-05
1.5945e-05
1.6541e-05
1.71266e-05
1.76937e-05
1.82358e-05
1.87473e-05
1.92221e-05
1.96541e-05
2.00417e-05
2.03685e-05
2.06378e-05
2.08675e-05
2.10439e-05
2.11681e-05
2.12464e-05
2.12831e-05
2.12811e-05
2.12434e-05
2.11732e-05
2.1074e-05
2.09492e-05
2.0801e-05
2.06329e-05
2.04483e-05
2.02489e-05
2.00356e-05
1.98102e-05
1.95832e-05
1.93382e-05
1.91168e-05
9.38441e-06
9.49435e-06
9.65048e-06
9.87674e-06
1.01732e-05
1.05282e-05
1.09291e-05
1.13651e-05
1.18266e-05
1.23049e-05
1.27918e-05
1.32801e-05
1.37637e-05
1.42361e-05
1.46906e-05
1.51219e-05
1.55257e-05
1.58973e-05
1.6232e-05
1.65285e-05
1.6774e-05
1.6972e-05
1.71384e-05
1.7262e-05
1.73437e-05
1.7389e-05
1.74016e-05
1.73839e-05
1.73385e-05
1.7268e-05
1.71753e-05
1.70631e-05
1.69333e-05
1.67886e-05
1.66317e-05
1.64639e-05
1.62861e-05
1.60993e-05
1.59124e-05
1.57117e-05
1.55293e-05
7.79341e-06
7.89366e-06
8.03918e-06
8.23989e-06
8.4961e-06
8.79929e-06
9.13875e-06
9.50499e-06
9.88995e-06
1.02863e-05
1.06873e-05
1.10869e-05
1.14801e-05
1.18616e-05
1.22261e-05
1.25693e-05
1.2888e-05
1.31785e-05
1.34373e-05
1.36637e-05
1.38475e-05
1.39923e-05
1.4112e-05
1.41975e-05
1.42495e-05
1.42727e-05
1.42704e-05
1.42446e-05
1.41971e-05
1.41305e-05
1.40469e-05
1.39484e-05
1.38367e-05
1.37138e-05
1.3582e-05
1.34421e-05
1.3295e-05
1.31411e-05
1.29881e-05
1.28245e-05
1.26737e-05
6.47401e-06
6.56739e-06
6.70381e-06
6.88346e-06
7.10685e-06
7.3678e-06
7.65716e-06
7.96668e-06
8.28951e-06
8.61955e-06
8.95111e-06
9.27922e-06
9.59965e-06
9.90836e-06
1.02011e-05
1.04744e-05
1.07257e-05
1.09524e-05
1.1152e-05
1.1324e-05
1.14605e-05
1.15648e-05
1.16493e-05
1.17063e-05
1.17367e-05
1.17444e-05
1.17323e-05
1.17019e-05
1.16551e-05
1.15935e-05
1.15192e-05
1.14337e-05
1.13385e-05
1.12349e-05
1.1125e-05
1.10092e-05
1.08883e-05
1.07624e-05
1.0638e-05
1.05052e-05
1.03825e-05
5.37818e-06
5.46675e-06
5.59522e-06
5.75742e-06
5.95398e-06
6.18045e-06
6.42895e-06
6.69231e-06
6.96471e-06
7.24102e-06
7.51651e-06
7.78708e-06
8.04926e-06
8.2999e-06
8.53573e-06
8.75392e-06
8.95271e-06
9.13033e-06
9.28491e-06
9.41621e-06
9.51837e-06
9.59419e-06
9.65441e-06
9.69272e-06
9.70984e-06
9.70917e-06
9.69303e-06
9.66275e-06
9.61969e-06
9.56539e-06
9.50129e-06
9.42881e-06
9.3489e-06
9.2628e-06
9.17195e-06
9.07687e-06
8.97806e-06
8.8754e-06
8.77453e-06
8.66728e-06
8.56494e-06
4.46703e-06
4.55228e-06
4.67369e-06
4.82132e-06
4.99588e-06
5.1941e-06
5.40921e-06
5.63495e-06
5.86635e-06
6.09912e-06
6.32931e-06
6.55356e-06
6.769e-06
6.97318e-06
7.16358e-06
7.33797e-06
7.49506e-06
7.63366e-06
7.75248e-06
7.85146e-06
7.92622e-06
7.97931e-06
8.02003e-06
8.04326e-06
8.04968e-06
8.04223e-06
8.02289e-06
7.99279e-06
7.95304e-06
7.90489e-06
7.84951e-06
7.788e-06
7.72112e-06
7.64981e-06
7.57518e-06
7.49759e-06
7.4175e-06
7.33451e-06
7.25373e-06
7.1669e-06
7.08618e-06
3.70902e-06
3.79192e-06
3.90695e-06
4.04238e-06
4.19881e-06
4.37376e-06
4.56141e-06
4.75632e-06
4.95426e-06
5.15163e-06
5.34517e-06
5.53215e-06
5.71031e-06
5.87783e-06
6.03288e-06
6.17377e-06
6.29965e-06
6.40984e-06
6.50354e-06
6.58084e-06
6.63851e-06
6.67844e-06
6.70868e-06
6.72489e-06
6.72766e-06
6.71943e-06
6.70182e-06
6.67575e-06
6.6421e-06
6.60187e-06
6.55601e-06
6.50541e-06
6.45066e-06
6.39251e-06
6.33186e-06
6.269e-06
6.2043e-06
6.13728e-06
6.07218e-06
6.00332e-06
5.93274e-06
3.07844e-06
3.15946e-06
3.26862e-06
3.39375e-06
3.53517e-06
3.69082e-06
3.85566e-06
4.02502e-06
4.1954e-06
4.36379e-06
4.52751e-06
4.68428e-06
4.83224e-06
4.96988e-06
5.09583e-06
5.20881e-06
5.30817e-06
5.3936e-06
5.4647e-06
5.52164e-06
5.56225e-06
5.58836e-06
5.60688e-06
5.61431e-06
5.61124e-06
5.5998e-06
5.58136e-06
5.5567e-06
5.52654e-06
5.49166e-06
5.45282e-06
5.41068e-06
5.36571e-06
5.31843e-06
5.26953e-06
5.21912e-06
5.16765e-06
5.11435e-06
5.06351e-06
5.00709e-06
4.95705e-06
2.55392e-06
2.63332e-06
2.73698e-06
2.85321e-06
2.98193e-06
3.12131e-06
3.26698e-06
3.41497e-06
3.56238e-06
3.70684e-06
3.84626e-06
3.97887e-06
4.10328e-06
4.21855e-06
4.32391e-06
4.41843e-06
4.5017e-06
4.57355e-06
4.6337e-06
4.68236e-06
4.71787e-06
4.74115e-06
4.75824e-06
4.76611e-06
4.76526e-06
4.75744e-06
4.74379e-06
4.72494e-06
4.70147e-06
4.67406e-06
4.64333e-06
4.60988e-06
4.57408e-06
4.53636e-06
4.49736e-06
4.45721e-06
4.41618e-06
4.37374e-06
4.33282e-06
4.29069e-06
4.23884e-06
2.11774e-06
2.19592e-06
2.29465e-06
2.403e-06
2.52035e-06
2.64527e-06
2.77427e-06
2.90409e-06
3.03227e-06
3.15681e-06
3.27601e-06
3.38845e-06
3.4928e-06
3.58776e-06
3.67241e-06
3.74626e-06
3.80938e-06
3.86215e-06
3.90481e-06
3.93764e-06
3.95979e-06
3.97259e-06
3.98089e-06
3.9823e-06
3.97728e-06
3.96732e-06
3.95336e-06
3.93588e-06
3.91534e-06
3.89222e-06
3.86697e-06
3.83998e-06
3.81152e-06
3.78187e-06
3.75143e-06
3.72015e-06
3.68854e-06
3.65549e-06
3.62517e-06
3.58764e-06
3.56322e-06
1.75633e-06
1.83365e-06
1.92818e-06
2.02954e-06
2.13633e-06
2.24754e-06
2.36091e-06
2.47434e-06
2.58604e-06
2.69426e-06
2.79737e-06
2.89434e-06
2.98488e-06
3.06929e-06
3.14752e-06
3.21832e-06
3.28055e-06
3.33383e-06
3.37814e-06
3.41389e-06
3.44036e-06
3.45769e-06
3.47055e-06
3.47692e-06
3.47727e-06
3.4729e-06
3.46466e-06
3.453e-06
3.43836e-06
3.42125e-06
3.40211e-06
3.38136e-06
3.35927e-06
3.33612e-06
3.31237e-06
3.28815e-06
3.26353e-06
3.2383e-06
3.2136e-06
3.19208e-06
3.14677e-06
1.46017e-06
1.53565e-06
1.62523e-06
1.71957e-06
1.81655e-06
1.91525e-06
2.01411e-06
2.11192e-06
2.20799e-06
2.30154e-06
2.39115e-06
2.47463e-06
2.54948e-06
2.61354e-06
2.66662e-06
2.71098e-06
2.74891e-06
2.78111e-06
2.80761e-06
2.82813e-06
2.84227e-06
2.85108e-06
2.85736e-06
2.85945e-06
2.8576e-06
2.85279e-06
2.84563e-06
2.8364e-06
2.82536e-06
2.81278e-06
2.79893e-06
2.78401e-06
2.76818e-06
2.75155e-06
2.73434e-06
2.7164e-06
2.69835e-06
2.67866e-06
2.66233e-06
2.63383e-06
2.63649e-06
1.21904e-06
1.29076e-06
1.3725e-06
1.45689e-06
1.54265e-06
1.62977e-06
1.71702e-06
1.80271e-06
1.8855e-06
1.96492e-06
2.04161e-06
2.11713e-06
2.1931e-06
2.27016e-06
2.34612e-06
2.41495e-06
2.47257e-06
2.51976e-06
2.55803e-06
2.58887e-06
2.61215e-06
2.6276e-06
2.63915e-06
2.64566e-06
2.64769e-06
2.64626e-06
2.64204e-06
2.63544e-06
2.62686e-06
2.61672e-06
2.60541e-06
2.59328e-06
2.58055e-06
2.56747e-06
2.5544e-06
2.54158e-06
2.52874e-06
2.51655e-06
2.50296e-06
2.50155e-06
2.44832e-06
1.01774e-06
1.0874e-06
1.16133e-06
1.23335e-06
1.3039e-06
1.37553e-06
1.44941e-06
1.52528e-06
1.60143e-06
1.67453e-06
1.74017e-06
1.79409e-06
1.83398e-06
1.86028e-06
1.87801e-06
1.89741e-06
1.92293e-06
1.95036e-06
1.97659e-06
1.99969e-06
2.0193e-06
2.0361e-06
2.05085e-06
2.06248e-06
2.07106e-06
2.0772e-06
2.08127e-06
2.08344e-06
2.08388e-06
2.08275e-06
2.08021e-06
2.07636e-06
2.07132e-06
2.06511e-06
2.05785e-06
2.04929e-06
2.0403e-06
2.02858e-06
2.02147e-06
1.99177e-06
2.02892e-06
8.48211e-07
9.23736e-07
9.98724e-07
1.06522e-06
1.12309e-06
1.17598e-06
1.22724e-06
1.27997e-06
1.33733e-06
1.40236e-06
1.47745e-06
1.5636e-06
1.65933e-06
1.76093e-06
1.86013e-06
1.94015e-06
1.99583e-06
2.03781e-06
2.07066e-06
2.09656e-06
2.11514e-06
2.12689e-06
2.13473e-06
2.1383e-06
2.13834e-06
2.13573e-06
2.13108e-06
2.12485e-06
2.11748e-06
2.10943e-06
2.1011e-06
2.09286e-06
2.08497e-06
2.07768e-06
2.07135e-06
2.06645e-06
2.06221e-06
2.06085e-06
2.05521e-06
2.0774e-06
1.99888e-06
7.25318e-07
7.99379e-07
8.72169e-07
9.39179e-07
9.98754e-07
1.05072e-06
1.09412e-06
1.12806e-06
1.15265e-06
1.16913e-06
1.17955e-06
1.18628e-06
1.19174e-06
1.19642e-06
1.20249e-06
1.22398e-06
1.26154e-06
1.30315e-06
1.34488e-06
1.38423e-06
1.42064e-06
1.45415e-06
1.48517e-06
1.51335e-06
1.53848e-06
1.56076e-06
1.58037e-06
1.59734e-06
1.6117e-06
1.62345e-06
1.6326e-06
1.63909e-06
1.64294e-06
1.64401e-06
1.64233e-06
1.63755e-06
1.63064e-06
1.61838e-06
1.61078e-06
1.56759e-06
1.62786e-06
7.86788e-07
8.83998e-07
9.35941e-07
9.45625e-07
9.32315e-07
9.22695e-07
9.40152e-07
9.95376e-07
1.0839e-06
1.19233e-06
1.30622e-06
1.41432e-06
1.5094e-06
1.58924e-06
1.65178e-06
1.68275e-06
1.68528e-06
1.67477e-06
1.65847e-06
1.63922e-06
1.6159e-06
1.59478e-06
1.57172e-06
1.54811e-06
1.5247e-06
1.50168e-06
1.47912e-06
1.45712e-06
1.43576e-06
1.41504e-06
1.39489e-06
1.37526e-06
1.3559e-06
1.33662e-06
1.31742e-06
1.29854e-06
1.27847e-06
1.25973e-06
1.23337e-06
1.23581e-06
1.12865e-06
6.62042
7.63416
6.9476
5.66872
4.1607
2.74013
1.57521
0.73008
0.222848
0.0490238
0.0134456
0.00260902
7.47716e-06
0.000105576
0.00029142
0.000235484
0.000194292
0.000172533
0.000151127
0.000131339
0.000113862
9.85805e-05
8.50546e-05
7.31827e-05
6.27882e-05
5.37131e-05
4.5793e-05
3.89095e-05
3.29342e-05
2.77583e-05
2.33093e-05
1.94817e-05
1.62225e-05
1.34472e-05
1.10936e-05
9.10934e-06
7.43556e-06
6.0304e-06
4.85183e-06
3.86955e-06
3.0518e-06
2.37489e-06
1.81853e-06
1.3662e-06
1.00444e-06
7.23349e-07
5.206e-07
3.98442e-07
3.53501e-07
3.62262e-07
3.96397e-07
4.30597e-07
4.60261e-07
4.81159e-07
4.93237e-07
5.00508e-07
4.9923e-07
4.95179e-07
4.86068e-07
4.75887e-07
4.62558e-07
4.4994e-07
4.35817e-07
4.21815e-07
4.08903e-07
3.95205e-07
3.84572e-07
3.70812e-07
3.65321e-07
3.4563e-07
3.57631e-07
3.19318e-07
3.85428e-07
3.39829e-07
6.35431
10.2664
9.99288
8.40615
6.48748
4.61784
2.99575
1.70878
0.787249
0.237903
0.0497691
0.0111367
0.00229663
7.56823e-06
6.82984e-05
0.000259907
0.00021569
0.000171433
0.000150524
0.000132282
0.0001146
9.90893e-05
8.55052e-05
7.35749e-05
6.31188e-05
5.39958e-05
4.60366e-05
3.91156e-05
3.31095e-05
2.79043e-05
2.34305e-05
1.95824e-05
1.63042e-05
1.35166e-05
1.1152e-05
9.15979e-06
7.48061e-06
6.07118e-06
4.8894e-06
3.90473e-06
3.08561e-06
2.40746e-06
1.85004e-06
1.39719e-06
1.03473e-06
7.51932e-07
5.46644e-07
4.18374e-07
3.63867e-07
3.63351e-07
3.91605e-07
4.22409e-07
4.50398e-07
4.70574e-07
4.82353e-07
4.899e-07
4.89064e-07
4.85588e-07
4.77048e-07
4.67634e-07
4.54974e-07
4.43035e-07
4.29728e-07
4.1626e-07
4.0407e-07
3.90911e-07
3.80907e-07
3.67426e-07
3.62857e-07
3.4257e-07
3.56808e-07
3.15323e-07
3.86213e-07
3.38266e-07
4.3732
9.97395
11.645
10.7215
8.85156
6.77135
4.80906
3.12156
1.78182
0.820434
0.249599
0.050715
0.00988644
0.00232274
4.5833e-06
2.1226e-05
0.000211416
0.000196655
0.000152223
0.000131121
0.0001153
9.98499e-05
8.59954e-05
7.39928e-05
6.35028e-05
5.43247e-05
4.63157e-05
3.93521e-05
3.33131e-05
2.80797e-05
2.35728e-05
1.97041e-05
1.64013e-05
1.35985e-05
1.12228e-05
9.22014e-06
7.53486e-06
6.12025e-06
4.93487e-06
3.94706e-06
3.12628e-06
2.44657e-06
1.88804e-06
1.43452e-06
1.07093e-06
7.86775e-07
5.79162e-07
4.43364e-07
3.78693e-07
3.68702e-07
3.88585e-07
4.15365e-07
4.40861e-07
4.60132e-07
4.72021e-07
4.78466e-07
4.78782e-07
4.75481e-07
4.67976e-07
4.58995e-07
4.4748e-07
4.35759e-07
4.23501e-07
4.10749e-07
3.99149e-07
3.86696e-07
3.7723e-07
3.64138e-07
3.6047e-07
3.39705e-07
3.55974e-07
3.11753e-07
3.86508e-07
3.36975e-07
3.05495
8.55967
11.8005
12.1444
10.8791
8.95706
6.88443
4.92517
3.22259
1.85549
0.865289
0.271705
0.0542556
0.00993875
0.00279269
1.19905e-06
1.57578e-05
0.000158992
0.000179214
0.000136782
0.000113969
0.000100229
8.69862e-05
7.46333e-05
6.39514e-05
5.47382e-05
4.66909e-05
3.96659e-05
3.3572e-05
2.82975e-05
2.37518e-05
1.9853e-05
1.65216e-05
1.36974e-05
1.13062e-05
9.29057e-06
7.59661e-06
6.17528e-06
4.98515e-06
3.99336e-06
3.17002e-06
2.48822e-06
1.92813e-06
1.4734e-06
1.10843e-06
8.22765e-07
6.122e-07
4.70198e-07
3.9627e-07
3.76669e-07
3.88246e-07
4.10404e-07
4.33084e-07
4.51086e-07
4.62713e-07
4.68462e-07
4.69504e-07
4.66436e-07
4.598e-07
4.51258e-07
4.40702e-07
4.29348e-07
4.17945e-07
4.05883e-07
3.94829e-07
3.82999e-07
3.74041e-07
3.6126e-07
3.58444e-07
3.37154e-07
3.55352e-07
3.08365e-07
3.86966e-07
3.35743e-07
2.35302
7.00532
10.8941
12.4862
12.2021
10.8358
8.97073
6.96667
5.04556
3.34765
1.96161
0.94025
0.31346
0.0638181
0.0117993
0.0036659
3.54586e-05
1.13801e-05
9.6705e-05
0.000157996
0.000124475
9.9097e-05
8.62921e-05
7.55831e-05
6.48683e-05
5.52604e-05
4.70698e-05
4.00165e-05
3.38813e-05
2.85522e-05
2.39573e-05
2.00204e-05
1.66584e-05
1.38087e-05
1.1398e-05
9.36757e-06
7.66306e-06
6.23394e-06
5.03835e-06
4.04217e-06
3.21554e-06
2.53125e-06
1.96928e-06
1.51288e-06
1.14639e-06
8.58838e-07
6.44923e-07
4.97796e-07
4.15486e-07
3.86325e-07
3.90032e-07
4.07157e-07
4.26812e-07
4.43256e-07
4.54186e-07
4.59751e-07
4.61089e-07
4.58342e-07
4.52356e-07
4.44322e-07
4.34497e-07
4.23689e-07
4.12968e-07
4.01523e-07
3.91e-07
3.79703e-07
3.71237e-07
3.58691e-07
3.56668e-07
3.34817e-07
3.54846e-07
3.05066e-07
3.87527e-07
3.34521e-07
2.01594
5.65613
9.45937
11.8787
12.6224
12.0845
10.7467
8.98653
7.07617
5.20981
3.526
2.12176
1.06155
0.384951
0.0856404
0.0154089
0.000721022
0.000478009
6.30174e-06
3.26768e-05
0.000128351
0.000120877
8.92365e-05
7.3408e-05
6.45559e-05
5.61288e-05
4.77983e-05
4.04334e-05
3.41824e-05
2.88235e-05
2.41925e-05
2.02093e-05
1.68074e-05
1.39278e-05
1.14956e-05
9.44925e-06
7.73288e-06
6.29496e-06
5.09325e-06
4.09256e-06
3.2623e-06
2.57527e-06
2.01119e-06
1.55294e-06
1.18475e-06
8.95127e-07
6.77999e-07
5.25966e-07
4.36006e-07
3.97721e-07
3.93709e-07
4.05497e-07
4.21866e-07
4.36501e-07
4.46512e-07
4.51871e-07
4.53309e-07
4.5085e-07
4.45389e-07
4.37855e-07
4.28645e-07
4.18427e-07
4.08297e-07
3.97391e-07
3.87386e-07
3.76546e-07
3.68586e-07
3.56221e-07
3.54926e-07
3.32523e-07
3.54259e-07
3.01798e-07
3.87915e-07
3.33298e-07
1.90807
4.56939
7.8978
10.6314
12.1679
12.5079
11.9094
10.6656
9.03667
7.23708
5.43851
3.77628
2.3538
1.24502
0.500783
0.129235
0.0236743
0.00312073
0.000787298
1.63297e-06
9.02644e-06
6.95989e-05
0.00010996
8.88054e-05
6.5743e-05
5.45599e-05
4.76897e-05
4.11076e-05
3.47396e-05
2.91466e-05
2.44193e-05
2.04087e-05
1.69793e-05
1.40643e-05
1.16018e-05
9.53472e-06
7.80523e-06
6.35836e-06
5.15013e-06
4.14443e-06
3.31015e-06
2.62014e-06
2.05381e-06
1.59364e-06
1.22361e-06
9.31918e-07
7.11776e-07
5.55031e-07
4.58051e-07
4.11306e-07
3.9957e-07
4.0578e-07
4.18517e-07
4.31068e-07
4.39977e-07
4.44863e-07
4.46258e-07
4.43977e-07
4.38939e-07
4.31832e-07
4.23168e-07
4.13476e-07
4.03873e-07
3.93446e-07
3.83915e-07
3.73475e-07
3.65996e-07
3.53784e-07
3.53145e-07
3.30215e-07
3.53507e-07
2.98549e-07
3.88031e-07
3.32039e-07
1.92322
3.71648
6.42886
9.07129
11.0386
12.0942
12.2694
11.7102
10.6003
9.12468
7.45393
5.73903
4.10962
2.672
1.50851
0.679379
0.212722
0.0433837
0.00400334
0.00228432
0.000100037
3.94488e-06
7.71462e-06
6.58932e-05
8.26011e-05
6.41488e-05
4.82799e-05
4.00891e-05
3.47249e-05
2.9676e-05
2.48593e-05
2.06542e-05
1.71342e-05
1.41958e-05
1.17195e-05
9.63271e-06
7.88385e-06
6.42374e-06
5.20797e-06
4.19751e-06
3.3594e-06
2.66617e-06
2.09725e-06
1.63496e-06
1.263e-06
9.69332e-07
7.46265e-07
5.85199e-07
4.81759e-07
4.2721e-07
4.07828e-07
4.08285e-07
4.17017e-07
4.27179e-07
4.34729e-07
4.38913e-07
4.40092e-07
4.37841e-07
4.33115e-07
4.2633e-07
4.18137e-07
4.08879e-07
3.99733e-07
3.89735e-07
3.80614e-07
3.70531e-07
3.63471e-07
3.51392e-07
3.5133e-07
3.27915e-07
3.52577e-07
2.9533e-07
3.87887e-07
3.30694e-07
1.9625
3.05087
5.12803
7.44169
9.49827
10.991
11.8036
11.9414
11.4803
10.5345
9.23478
7.71543
6.10636
4.52804
3.08652
1.86899
0.945385
0.360653
0.0892134
0.0132938
0.00118649
0.000681499
3.43268e-07
3.96577e-06
1.57695e-05
5.49271e-05
6.04528e-05
4.64556e-05
3.50733e-05
2.8879e-05
2.48017e-05
2.10694e-05
1.75143e-05
1.44053e-05
1.183e-05
9.71653e-06
7.96339e-06
6.49693e-06
5.27153e-06
4.25257e-06
3.40905e-06
2.71275e-06
2.14162e-06
1.67721e-06
1.30315e-06
1.0074e-06
7.81446e-07
6.16444e-07
5.07104e-07
4.45276e-07
4.18456e-07
4.1301e-07
4.17441e-07
4.24882e-07
4.30787e-07
4.34066e-07
4.34839e-07
4.3247e-07
4.27922e-07
4.21361e-07
4.13542e-07
4.0464e-07
3.95876e-07
3.86256e-07
3.77483e-07
3.67714e-07
3.61006e-07
3.49043e-07
3.49477e-07
3.25634e-07
3.51461e-07
2.92155e-07
3.87485e-07
3.29218e-07
1.907
2.48911
3.97901
5.86644
7.77539