/*--------------------------------*- C++ -*----------------------------------*\
| =========                 |                                                 |
| \\      /  F ield         | OpenFOAM: The Open Source CFD Toolbox           |
|  \\    /   O peration     | Version:  2312                                  |
|   \\  /    A nd           | Website:  www.openfoam.com                      |
|    \\/     M anipulation  |                                                 |
\*---------------------------------------------------------------------------*/
FoamFile
{
    version     2.0;
    format      ascii;
    arch        "LSB;label=32;scalar=64";
    class       volScalarField;
    location    "900";
    object      turbulenceProperties:nuEff;
}
// * * * * * * * * * * * * * * * * * * * * * * * * * * * * * * * * * * * * * //

dimensions      [0 2 -1 0 0 0 0];

internalField   nonuniform List<scalar> 
11040
(
4.7888e-05
6.48779e-05
2.54792e-05
5.84408e-05
0.000197894
0.000191093
0.000181418
0.00017129
0.000158663
0.000150827
0.000142736
0.000135665
0.00012927
0.00012423
0.000119879
0.000117501
0.000117164
0.000118844
0.000122069
0.000126619
0.000132571
0.000139713
0.00014776
0.000156506
0.000166064
0.000177408
0.000190399
0.000203131
0.000215057
0.0002256
0.000234141
0.000240062
0.00024426
0.000251392
0.000271009
0.000258056
0.000181529
0.000190593
0.000209511
0.000229481
0.000304432
1.41964e-05
4.68875e-05
6.59857e-05
0.000152866
0.00061102
0.00063805
0.000561986
0.000518344
0.000452165
0.000416725
0.000380186
0.000351633
0.000324813
0.000304549
0.000285525
0.000272251
0.00026564
0.000264856
0.000267179
0.000271297
0.000277343
0.000285351
0.000293706
0.000301242
0.000308924
0.000324341
0.000352033
0.000384166
0.000420356
0.000460708
0.000505455
0.000554923
0.000608317
0.000667418
0.000734407
0.000802156
0.000870799
0.000962039
0.00107052
0.001158
0.0016209
1.55272e-05
1.94387e-05
4.01616e-05
7.50881e-05
0.000422585
0.000974596
0.00119629
0.00115675
0.00101404
0.000939451
0.00085686
0.000795734
0.000736073
0.000692429
0.000650419
0.000616952
0.000591372
0.000571791
0.00056037
0.000556118
0.000560445
0.000574374
0.000598626
0.000634048
0.000680708
0.000738401
0.000806896
0.000885672
0.000974373
0.0010724
0.00117885
0.0012929
0.00141409
0.00154306
0.00168092
0.00182784
0.00199015
0.00219024
0.00243374
0.00267285
0.0034947
1.64822e-05
1.51647e-05
2.06774e-05
2.12337e-05
0.000148912
0.000605384
0.00131385
0.00171742
0.00178779
0.00169782
0.00155419
0.00145399
0.00134931
0.00127224
0.00119693
0.00113433
0.00108818
0.00105153
0.0010296
0.00102071
0.00102664
0.00105038
0.00109446
0.00116003
0.00124652
0.00135279
0.00147789
0.00162079
0.00178057
0.00195615
0.00214597
0.0023486
0.00256295
0.00278927
0.00302846
0.00328316
0.00356538
0.00390663
0.0043251
0.00478
0.00594013
1.62018e-05
1.57671e-05
1.64045e-05
1.54277e-05
1.48536e-05
0.000187056
0.000718339
0.00157026
0.00226423
0.00247472
0.00248695
0.00238075
0.00221708
0.00209936
0.0019851
0.00188195
0.00180941
0.00174959
0.00171274
0.00169723
0.00170311
0.00173597
0.0018019
0.00190284
0.00203796
0.00220587
0.00240483
0.00263256
0.00288702
0.00316624
0.00346714
0.00378685
0.00412327
0.0044761
0.00484593
0.00523684
0.00566523
0.00617649
0.00680463
0.00753299
0.00899701
1.60939e-05
1.61869e-05
1.58922e-05
1.65989e-05
1.17067e-05
1.09045e-05
0.000182388
0.000740599
0.00172463
0.00274073
0.00321624
0.00338622
0.00337455
0.0032657
0.00308866
0.00292589
0.00281858
0.00272665
0.0026667
0.00264114
0.00264447
0.00268421
0.00277334
0.00291572
0.0031101
0.00335526
0.00364854
0.00398558
0.00436203
0.00477477
0.00521818
0.00568687
0.00617691
0.00668699
0.00721671
0.00777082
0.00837034
0.00907328
0.00993915
0.0109859
0.0127688
1.61047e-05
1.61372e-05
1.60137e-05
1.63515e-05
1.59338e-05
1.04334e-05
1.00034e-05
0.000129727
0.00066985
0.00171898
0.00302301
0.00396223
0.00434211
0.00448697
0.00447904
0.00437769
0.00422847
0.00407589
0.00397991
0.00393987
0.00393864
0.00398101
0.00409186
0.0042797
0.00454238
0.00487971
0.00528871
0.00576224
0.00629092
0.00687051
0.00749162
0.00814428
0.00882145
0.00952018
0.0102378
0.0109783
0.0117667
0.0126721
0.0137886
0.0151777
0.0173238
1.61144e-05
1.61118e-05
1.61318e-05
1.60486e-05
1.65632e-05
1.60555e-05
1.00193e-05
1e-05
6.22527e-05
0.000522903
0.0015323
0.00303371
0.00450144
0.00531819
0.00568628
0.00583204
0.00585859
0.00580836
0.0057385
0.00568081
0.00567718
0.00573322
0.0058688
0.00610662
0.00644423
0.00688546
0.00742962
0.00806833
0.00878097
0.0095628
0.0103996
0.0112734
0.0121716
0.013089
0.014019
0.0149616
0.0159452
0.0170472
0.0183988
0.020118
0.0226369
1.61126e-05
1.61163e-05
1.61119e-05
1.61316e-05
1.59965e-05
1.71602e-05
1.53944e-05
1.01119e-05
1.0326e-05
1.05722e-05
0.000325552
0.00119197
0.0027263
0.00461381
0.00613924
0.00690447
0.00730799
0.00751334
0.00763696
0.00771966
0.00781779
0.00795819
0.00818297
0.00852119
0.0089737
0.00954051
0.0102296
0.0110456
0.011972
0.0129901
0.0140811
0.0152145
0.0163657
0.0175274
0.0186884
0.019837
0.0210052
0.0222802
0.023804
0.0257852
0.0286197
1.6112e-05
1.61136e-05
1.61133e-05
1.61189e-05
1.60986e-05
1.6045e-05
1.73549e-05
1.4907e-05
1.04689e-05
1.00147e-05
3.38127e-05
0.000136354
0.000785697
0.0021558
0.00420833
0.00641669
0.00799479
0.00881187
0.00932944
0.00969555
0.0100331
0.0103866
0.0108185
0.0113735
0.0120716
0.0129128
0.0138868
0.0149754
0.0161605
0.0174403
0.0188145
0.0202384
0.0216625
0.0230773
0.0244735
0.0258128
0.0271254
0.028515
0.0301092
0.0322001
0.0351871
1.61108e-05
1.61117e-05
1.61131e-05
1.61089e-05
1.61263e-05
1.60547e-05
1.6177e-05
1.70446e-05
1.59031e-05
1.13432e-05
1.00071e-05
1.05721e-05
1.02198e-05
0.000381075
0.0014257
0.00333195
0.00588835
0.00842642
0.0101708
0.0111833
0.0119583
0.0126416
0.0133655
0.0142137
0.0152403
0.0164638
0.0178802
0.0194711
0.0212015
0.0230228
0.0248706
0.0266706
0.028379
0.0300325
0.0316617
0.0331573
0.0345271
0.0359411
0.0374808
0.0394065
0.0422212
1.61094e-05
1.61102e-05
1.611e-05
1.61106e-05
1.61082e-05
1.6117e-05
1.60618e-05
1.6167e-05
1.67662e-05
1.65973e-05
1.29075e-05
1.00024e-05
1.00012e-05
3.61933e-05
0.000108668
0.000736617
0.0022012
0.00463142
0.00770721
0.0106881
0.0128187
0.0142026
0.0153832
0.016592
0.0179722
0.0195887
0.0214581
0.0235773
0.0259133
0.0284105
0.0309997
0.0335996
0.0361185
0.0384647
0.0405221
0.0421675
0.0434503
0.0447838
0.0461123
0.047592
0.0497944
1.61081e-05
1.61085e-05
1.61084e-05
1.61082e-05
1.6108e-05
1.61075e-05
1.61088e-05
1.60776e-05
1.61282e-05
1.65333e-05
1.7033e-05
1.43661e-05
1.01951e-05
1.00019e-05
1.01322e-05
0.000110554
0.000234604
0.00112264
0.00298562
0.00592814
0.00960068
0.0131526
0.0158265
0.0177952
0.0196582
0.0216917
0.0239743
0.0265588
0.0294314
0.032535
0.0357974
0.0391345
0.0424494
0.0456461
0.0486224
0.0512652
0.0534776
0.0551837
0.0562775
0.0570431
0.0584893
1.61069e-05
1.61072e-05
1.61072e-05
1.61072e-05
1.61068e-05
1.61062e-05
1.61062e-05
1.61061e-05
1.60876e-05
1.60945e-05
1.63304e-05
1.70876e-05
1.59447e-05
1.15494e-05
1.00003e-05
1.00001e-05
1.14126e-05
0.0001817
0.000363065
0.00145283
0.00365355
0.00692745
0.0108238
0.0148628
0.0185269
0.0216225
0.0244867
0.0275277
0.0308717
0.0344838
0.0383076
0.0422725
0.0462741
0.0502128
0.0539868
0.057497
0.0606538
0.0633979
0.0656603
0.067413
0.0687002
1.61058e-05
1.61066e-05
1.61067e-05
1.61067e-05
1.61063e-05
1.6106e-05
1.61055e-05
1.61056e-05
1.61051e-05
1.60974e-05
1.60706e-05
1.62079e-05
1.68275e-05
1.67698e-05
1.44197e-05
1.02761e-05
1.0003e-05
1e-05
1.60723e-05
0.000228536
0.000428667
0.0015535
0.00358545
0.00657997
0.0103803
0.0147444
0.0193994
0.0240432
0.0284816
0.032783
0.0371454
0.041665
0.0462851
0.0508964
0.0553913
0.0596721
0.0636613
0.0673225
0.070588
0.0734037
0.0757654
1.6105e-05
1.61063e-05
1.61063e-05
1.61061e-05
1.61056e-05
1.61052e-05
1.61049e-05
1.61045e-05
1.61045e-05
1.61047e-05
1.61014e-05
1.60693e-05
1.61395e-05
1.64122e-05
1.71287e-05
1.59186e-05
1.29325e-05
1.00118e-05
1.00005e-05
1e-05
1.93335e-05
0.000203335
0.000258777
0.00103365
0.00250049
0.00478935
0.00793592
0.0119103
0.0166349
0.0220011
0.0278218
0.0338074
0.0396718
0.0452798
0.0506245
0.0557273
0.0605804
0.0651678
0.0694242
0.0732803
0.0767106
1.61042e-05
1.61055e-05
1.61054e-05
1.61049e-05
1.61044e-05
1.6104e-05
1.61037e-05
1.61034e-05
1.61033e-05
1.6103e-05
1.61042e-05
1.61006e-05
1.60866e-05
1.60755e-05
1.6253e-05
1.66793e-05
1.71298e-05
1.51352e-05
1.15617e-05
1.0001e-05
1.00002e-05
1e-05
1.08848e-05
7.70026e-05
0.000279487
0.000284781
0.00101449
0.00227228
0.0042151
0.00693304
0.010485
0.0148923
0.0201154
0.0260642
0.0325563
0.0393064
0.0459871
0.0523689
0.0582672
0.0635914
0.0683484
1.61033e-05
1.61043e-05
1.6104e-05
1.61036e-05
1.61031e-05
1.61028e-05
1.61026e-05
1.61025e-05
1.61024e-05
1.61022e-05
1.61021e-05
1.61029e-05
1.6102e-05
1.60934e-05
1.60708e-05
1.61232e-05
1.6357e-05
1.69648e-05
1.6988e-05
1.4759e-05
1.11478e-05
1.00007e-05
1.00002e-05
1e-05
1e-05
1.07732e-05
5.94388e-05
0.000193909
4.33949e-05
0.000367868
0.00106794
0.00225099
0.00401685
0.0064811
0.00970135
0.0136939
0.0184099
0.023808
0.0297374
0.0360051
0.0424061
1.61021e-05
1.61028e-05
1.61023e-05
1.61017e-05
1.61013e-05
1.6101e-05
1.61008e-05
1.61007e-05
1.61006e-05
1.61007e-05
1.61006e-05
1.61007e-05
1.61008e-05
1.61021e-05
1.60962e-05
1.6085e-05
1.60672e-05
1.6183e-05
1.65143e-05
1.70483e-05
1.68433e-05
1.44702e-05
1.17003e-05
1.0019e-05
1.00007e-05
1e-05
1e-05
1e-05
1.00021e-05
1.13813e-05
5.36864e-05
0.000160652
1.0057e-05
0.00011186
0.00041702
0.00112191
0.00222977
0.00383219
0.00597946
0.00869441
0.0120336
1.61008e-05
1.61012e-05
1.61006e-05
1.61e-05
1.60996e-05
1.60993e-05
1.60992e-05
1.60992e-05
1.60992e-05
1.60992e-05
1.60993e-05
1.60994e-05
1.60995e-05
1.60997e-05
1.61002e-05
1.60997e-05
1.60901e-05
1.60734e-05
1.60811e-05
1.62355e-05
1.66212e-05
1.70378e-05
1.69737e-05
1.52648e-05
1.27742e-05
1.08726e-05
1.00056e-05
1.00004e-05
1e-05
1e-05
1e-05
1e-05
1e-05
1.00127e-05
1.14155e-05
4.68419e-05
0.000134829
0.000243481
0.000385034
3.12822e-05
0.000403999
1.60995e-05
1.60996e-05
1.60991e-05
1.60986e-05
1.60983e-05
1.60981e-05
1.60981e-05
1.60981e-05
1.60982e-05
1.60983e-05
1.60984e-05
1.60985e-05
1.60986e-05
1.60987e-05
1.60989e-05
1.60993e-05
1.60999e-05
1.60963e-05
1.60828e-05
1.60667e-05
1.60938e-05
1.62681e-05
1.65714e-05
1.70486e-05
1.70972e-05
1.65898e-05
1.49433e-05
1.28133e-05
1.11624e-05
1.03054e-05
1.00006e-05
1.00002e-05
1e-05
1e-05
1e-05
1e-05
1e-05
1e-05
1e-05
1.00004e-05
1.0702e-05
1.60981e-05
1.60982e-05
1.60977e-05
1.60974e-05
1.60973e-05
1.60973e-05
1.60974e-05
1.60976e-05
1.60977e-05
1.60979e-05
1.6098e-05
1.60982e-05
1.60983e-05
1.60984e-05
1.60985e-05
1.60986e-05
1.60989e-05
1.60995e-05
1.60991e-05
1.60934e-05
1.60769e-05
1.60681e-05
1.60881e-05
1.62128e-05
1.64546e-05
1.67504e-05
1.71227e-05
1.71885e-05
1.67586e-05
1.59538e-05
1.44948e-05
1.28419e-05
1.14946e-05
1.063e-05
1.01779e-05
1.00027e-05
1.00002e-05
1e-05
1e-05
1e-05
1e-05
1.60968e-05
1.60969e-05
1.60967e-05
1.60966e-05
1.60968e-05
1.6097e-05
1.60973e-05
1.60975e-05
1.60978e-05
1.6098e-05
1.60982e-05
1.60983e-05
1.60985e-05
1.60986e-05
1.60987e-05
1.60988e-05
1.60988e-05
1.6099e-05
1.60994e-05
1.61e-05
1.60985e-05
1.60917e-05
1.60788e-05
1.60652e-05
1.60764e-05
1.61254e-05
1.62528e-05
1.64617e-05
1.67183e-05
1.69612e-05
1.72264e-05
1.72611e-05
1.70048e-05
1.64474e-05
1.56854e-05
1.46078e-05
1.34074e-05
1.22699e-05
1.13627e-05
1.07147e-05
1.02992e-05
1.60956e-05
1.60959e-05
1.6096e-05
1.60963e-05
1.60967e-05
1.60971e-05
1.60975e-05
1.60978e-05
1.60982e-05
1.60984e-05
1.60987e-05
1.60989e-05
1.60991e-05
1.60992e-05
1.60993e-05
1.60994e-05
1.60995e-05
1.60995e-05
1.60996e-05
1.60998e-05
1.61003e-05
1.61006e-05
1.60994e-05
1.6094e-05
1.6084e-05
1.60721e-05
1.6064e-05
1.60727e-05
1.61135e-05
1.61882e-05
1.63143e-05
1.64877e-05
1.66889e-05
1.68965e-05
1.70789e-05
1.72586e-05
1.73345e-05
1.72564e-05
1.70101e-05
1.65982e-05
1.60874e-05
1.60945e-05
1.60951e-05
1.60956e-05
1.60962e-05
1.60968e-05
1.60974e-05
1.60979e-05
1.60983e-05
1.60987e-05
1.60991e-05
1.60993e-05
1.60996e-05
1.60998e-05
1.61e-05
1.61001e-05
1.61002e-05
1.61003e-05
1.61004e-05
1.61005e-05
1.61005e-05
1.61006e-05
1.61009e-05
1.61014e-05
1.61017e-05
1.61011e-05
1.60985e-05
1.60927e-05
1.60837e-05
1.60734e-05
1.60654e-05
1.6063e-05
1.60728e-05
1.61004e-05
1.61506e-05
1.62225e-05
1.6321e-05
1.64436e-05
1.65874e-05
1.67416e-05
1.68966e-05
1.70361e-05
1.60937e-05
1.60947e-05
1.60956e-05
1.60964e-05
1.60971e-05
1.60978e-05
1.60984e-05
1.60989e-05
1.60993e-05
1.60997e-05
1.61e-05
1.61003e-05
1.61006e-05
1.61008e-05
1.6101e-05
1.61011e-05
1.61013e-05
1.61014e-05
1.61015e-05
1.61016e-05
1.61017e-05
1.61018e-05
1.61019e-05
1.61021e-05
1.61025e-05
1.61029e-05
1.6103e-05
1.61024e-05
1.61003e-05
1.60965e-05
1.60907e-05
1.60831e-05
1.60748e-05
1.60672e-05
1.60622e-05
1.60613e-05
1.60664e-05
1.60804e-05
1.61043e-05
1.61415e-05
1.61836e-05
1.60931e-05
1.60945e-05
1.60957e-05
1.60966e-05
1.60975e-05
1.60982e-05
1.60988e-05
1.60994e-05
1.60999e-05
1.61003e-05
1.61006e-05
1.6101e-05
1.61013e-05
1.61015e-05
1.61018e-05
1.6102e-05
1.61022e-05
1.61023e-05
1.61025e-05
1.61026e-05
1.61028e-05
1.61029e-05
1.6103e-05
1.61031e-05
1.61032e-05
1.61034e-05
1.61036e-05
1.6104e-05
1.61044e-05
1.61046e-05
1.61045e-05
1.61038e-05
1.61023e-05
1.60998e-05
1.60962e-05
1.60916e-05
1.60861e-05
1.608e-05
1.60738e-05
1.60681e-05
1.60636e-05
1.60927e-05
1.60945e-05
1.60958e-05
1.60969e-05
1.60978e-05
1.60985e-05
1.60992e-05
1.60998e-05
1.61003e-05
1.61008e-05
1.61012e-05
1.61016e-05
1.61019e-05
1.61022e-05
1.61025e-05
1.61027e-05
1.6103e-05
1.61032e-05
1.61034e-05
1.61035e-05
1.61037e-05
1.61039e-05
1.61041e-05
1.61042e-05
1.61043e-05
1.61044e-05
1.61045e-05
1.61047e-05
1.61048e-05
1.61051e-05
1.61053e-05
1.61057e-05
1.6106e-05
1.61063e-05
1.61064e-05
1.61063e-05
1.6106e-05
1.61052e-05
1.6104e-05
1.61021e-05
1.61003e-05
1.60926e-05
1.60945e-05
1.60959e-05
1.6097e-05
1.6098e-05
1.60988e-05
1.60995e-05
1.61001e-05
1.61007e-05
1.61012e-05
1.61017e-05
1.61021e-05
1.61025e-05
1.61028e-05
1.61031e-05
1.61034e-05
1.61037e-05
1.6104e-05
1.61042e-05
1.61044e-05
1.61046e-05
1.61048e-05
1.6105e-05
1.61052e-05
1.61054e-05
1.61055e-05
1.61057e-05
1.61058e-05
1.61059e-05
1.6106e-05
1.61062e-05
1.61063e-05
1.61065e-05
1.61066e-05
1.61069e-05
1.61071e-05
1.61074e-05
1.61076e-05
1.61079e-05
1.61081e-05
1.61083e-05
1.60925e-05
1.60945e-05
1.6096e-05
1.60971e-05
1.60981e-05
1.60989e-05
1.60997e-05
1.61004e-05
1.6101e-05
1.61016e-05
1.61021e-05
1.61025e-05
1.6103e-05
1.61033e-05
1.61037e-05
1.6104e-05
1.61044e-05
1.61047e-05
1.61049e-05
1.61052e-05
1.61055e-05
1.61057e-05
1.61059e-05
1.61062e-05
1.61064e-05
1.61065e-05
1.61067e-05
1.61069e-05
1.6107e-05
1.61072e-05
1.61073e-05
1.61075e-05
1.61076e-05
1.61077e-05
1.61078e-05
1.61079e-05
1.61081e-05
1.61082e-05
1.61083e-05
1.61085e-05
1.61086e-05
1.60925e-05
1.60945e-05
1.6096e-05
1.60971e-05
1.60981e-05
1.6099e-05
1.60998e-05
1.61005e-05
1.61012e-05
1.61018e-05
1.61024e-05
1.61029e-05
1.61034e-05
1.61038e-05
1.61042e-05
1.61046e-05
1.6105e-05
1.61053e-05
1.61056e-05
1.61059e-05
1.61062e-05
1.61065e-05
1.61068e-05
1.6107e-05
1.61073e-05
1.61075e-05
1.61077e-05
1.61079e-05
1.61081e-05
1.61082e-05
1.61084e-05
1.61086e-05
1.61087e-05
1.61089e-05
1.6109e-05
1.61091e-05
1.61093e-05
1.61094e-05
1.61095e-05
1.61096e-05
1.61097e-05
1.60923e-05
1.60944e-05
1.60958e-05
1.6097e-05
1.6098e-05
1.6099e-05
1.60998e-05
1.61006e-05
1.61013e-05
1.6102e-05
1.61026e-05
1.61032e-05
1.61037e-05
1.61042e-05
1.61046e-05
1.61051e-05
1.61055e-05
1.61058e-05
1.61062e-05
1.61066e-05
1.61069e-05
1.61072e-05
1.61075e-05
1.61078e-05
1.61081e-05
1.61083e-05
1.61086e-05
1.61088e-05
1.6109e-05
1.61092e-05
1.61094e-05
1.61096e-05
1.61098e-05
1.61099e-05
1.61101e-05
1.61102e-05
1.61104e-05
1.61105e-05
1.61107e-05
1.61108e-05
1.6111e-05
1.60921e-05
1.60941e-05
1.60956e-05
1.60968e-05
1.60978e-05
1.60988e-05
1.60997e-05
1.61005e-05
1.61013e-05
1.6102e-05
1.61027e-05
1.61033e-05
1.61039e-05
1.61045e-05
1.6105e-05
1.61055e-05
1.61059e-05
1.61063e-05
1.61067e-05
1.61071e-05
1.61075e-05
1.61079e-05
1.61082e-05
1.61085e-05
1.61088e-05
1.61091e-05
1.61094e-05
1.61096e-05
1.61099e-05
1.61101e-05
1.61103e-05
1.61105e-05
1.61107e-05
1.61109e-05
1.61111e-05
1.61113e-05
1.61114e-05
1.61116e-05
1.61118e-05
1.61119e-05
1.61121e-05
1.60918e-05
1.60938e-05
1.60952e-05
1.60964e-05
1.60975e-05
1.60985e-05
1.60995e-05
1.61004e-05
1.61012e-05
1.6102e-05
1.61027e-05
1.61034e-05
1.61041e-05
1.61047e-05
1.61053e-05
1.61058e-05
1.61063e-05
1.61068e-05
1.61072e-05
1.61077e-05
1.61081e-05
1.61085e-05
1.61089e-05
1.61092e-05
1.61095e-05
1.61098e-05
1.61101e-05
1.61104e-05
1.61107e-05
1.61109e-05
1.61112e-05
1.61114e-05
1.61116e-05
1.61118e-05
1.6112e-05
1.61122e-05
1.61124e-05
1.61126e-05
1.61128e-05
1.6113e-05
1.61131e-05
1.60914e-05
1.60933e-05
1.60948e-05
1.6096e-05
1.60971e-05
1.60982e-05
1.60992e-05
1.61001e-05
1.6101e-05
1.61019e-05
1.61027e-05
1.61034e-05
1.61041e-05
1.61048e-05
1.61054e-05
1.6106e-05
1.61066e-05
1.61071e-05
1.61076e-05
1.61081e-05
1.61086e-05
1.6109e-05
1.61094e-05
1.61098e-05
1.61102e-05
1.61105e-05
1.61109e-05
1.61112e-05
1.61115e-05
1.61117e-05
1.6112e-05
1.61123e-05
1.61125e-05
1.61127e-05
1.61129e-05
1.61132e-05
1.61134e-05
1.61136e-05
1.61138e-05
1.61139e-05
1.61141e-05
1.60909e-05
1.60927e-05
1.60941e-05
1.60954e-05
1.60965e-05
1.60976e-05
1.60987e-05
1.60997e-05
1.61007e-05
1.61016e-05
1.61025e-05
1.61033e-05
1.61041e-05
1.61048e-05
1.61055e-05
1.61062e-05
1.61068e-05
1.61074e-05
1.61079e-05
1.61085e-05
1.6109e-05
1.61095e-05
1.61099e-05
1.61104e-05
1.61108e-05
1.61111e-05
1.61115e-05
1.61118e-05
1.61122e-05
1.61125e-05
1.61128e-05
1.6113e-05
1.61133e-05
1.61136e-05
1.61138e-05
1.6114e-05
1.61143e-05
1.61145e-05
1.61147e-05
1.61149e-05
1.61151e-05
1.60902e-05
1.6092e-05
1.60934e-05
1.60946e-05
1.60958e-05
1.6097e-05
1.60981e-05
1.60992e-05
1.61002e-05
1.61012e-05
1.61021e-05
1.6103e-05
1.61039e-05
1.61047e-05
1.61055e-05
1.61062e-05
1.61069e-05
1.61075e-05
1.61081e-05
1.61087e-05
1.61093e-05
1.61098e-05
1.61103e-05
1.61108e-05
1.61112e-05
1.61117e-05
1.6112e-05
1.61124e-05
1.61128e-05
1.61131e-05
1.61134e-05
1.61137e-05
1.6114e-05
1.61143e-05
1.61145e-05
1.61148e-05
1.6115e-05
1.61153e-05
1.61155e-05
1.61157e-05
1.61159e-05
1.60894e-05
1.60911e-05
1.60924e-05
1.60937e-05
1.60949e-05
1.60961e-05
1.60973e-05
1.60984e-05
1.60995e-05
1.61006e-05
1.61016e-05
1.61026e-05
1.61035e-05
1.61044e-05
1.61052e-05
1.6106e-05
1.61068e-05
1.61075e-05
1.61081e-05
1.61088e-05
1.61094e-05
1.611e-05
1.61106e-05
1.61111e-05
1.61116e-05
1.6112e-05
1.61124e-05
1.61128e-05
1.61132e-05
1.61136e-05
1.61139e-05
1.61143e-05
1.61146e-05
1.61149e-05
1.61151e-05
1.61154e-05
1.61157e-05
1.61159e-05
1.61162e-05
1.61164e-05
1.61166e-05
1.60884e-05
1.609e-05
1.60913e-05
1.60926e-05
1.60939e-05
1.60951e-05
1.60963e-05
1.60975e-05
1.60986e-05
1.60997e-05
1.61008e-05
1.61018e-05
1.61028e-05
1.61038e-05
1.61047e-05
1.61056e-05
1.61064e-05
1.61072e-05
1.61079e-05
1.61086e-05
1.61093e-05
1.61099e-05
1.61105e-05
1.61111e-05
1.61116e-05
1.61121e-05
1.61126e-05
1.6113e-05
1.61134e-05
1.61138e-05
1.61142e-05
1.61146e-05
1.61149e-05
1.61152e-05
1.61155e-05
1.61158e-05
1.61161e-05
1.61164e-05
1.61166e-05
1.61169e-05
1.61171e-05
1.60872e-05
1.60887e-05
1.609e-05
1.60913e-05
1.60925e-05
1.60938e-05
1.6095e-05
1.60962e-05
1.60974e-05
1.60985e-05
1.60997e-05
1.61008e-05
1.61018e-05
1.61028e-05
1.61038e-05
1.61048e-05
1.61057e-05
1.61065e-05
1.61073e-05
1.61081e-05
1.61088e-05
1.61095e-05
1.61102e-05
1.61108e-05
1.61114e-05
1.61119e-05
1.61124e-05
1.61129e-05
1.61134e-05
1.61138e-05
1.61142e-05
1.61146e-05
1.61149e-05
1.61153e-05
1.61156e-05
1.61159e-05
1.61162e-05
1.61164e-05
1.61167e-05
1.6117e-05
1.61172e-05
1.60858e-05
1.60873e-05
1.60885e-05
1.60898e-05
1.6091e-05
1.60922e-05
1.60934e-05
1.60946e-05
1.60958e-05
1.6097e-05
1.60982e-05
1.60993e-05
1.61004e-05
1.61015e-05
1.61026e-05
1.61036e-05
1.61045e-05
1.61055e-05
1.61063e-05
1.61072e-05
1.6108e-05
1.61087e-05
1.61094e-05
1.61101e-05
1.61107e-05
1.61113e-05
1.61118e-05
1.61124e-05
1.61128e-05
1.61133e-05
1.61137e-05
1.61141e-05
1.61145e-05
1.61149e-05
1.61152e-05
1.61155e-05
1.61159e-05
1.61162e-05
1.61164e-05
1.61167e-05
1.6117e-05
1.60843e-05
1.60856e-05
1.60868e-05
1.60879e-05
1.60891e-05
1.60903e-05
1.60914e-05
1.60926e-05
1.60938e-05
1.60951e-05
1.60963e-05
1.60975e-05
1.60986e-05
1.60998e-05
1.61009e-05
1.6102e-05
1.6103e-05
1.6104e-05
1.61049e-05
1.61058e-05
1.61067e-05
1.61075e-05
1.61082e-05
1.61089e-05
1.61096e-05
1.61102e-05
1.61108e-05
1.61114e-05
1.61119e-05
1.61124e-05
1.61128e-05
1.61133e-05
1.61137e-05
1.61141e-05
1.61144e-05
1.61147e-05
1.61151e-05
1.61154e-05
1.61156e-05
1.61159e-05
1.61162e-05
1.60825e-05
1.60837e-05
1.60848e-05
1.60858e-05
1.60869e-05
1.6088e-05
1.60891e-05
1.60903e-05
1.60915e-05
1.60927e-05
1.60939e-05
1.60952e-05
1.60964e-05
1.60976e-05
1.60987e-05
1.60998e-05
1.61009e-05
1.6102e-05
1.6103e-05
1.61039e-05
1.61048e-05
1.61057e-05
1.61065e-05
1.61072e-05
1.61079e-05
1.61086e-05
1.61092e-05
1.61098e-05
1.61104e-05
1.61109e-05
1.61114e-05
1.61118e-05
1.61122e-05
1.61126e-05
1.6113e-05
1.61134e-05
1.61137e-05
1.6114e-05
1.61143e-05
1.61146e-05
1.61149e-05
1.60804e-05
1.60815e-05
1.60824e-05
1.60833e-05
1.60843e-05
1.60853e-05
1.60864e-05
1.60875e-05
1.60887e-05
1.60899e-05
1.60911e-05
1.60923e-05
1.60935e-05
1.60948e-05
1.6096e-05
1.60971e-05
1.60983e-05
1.60993e-05
1.61004e-05
1.61014e-05
1.61024e-05
1.61033e-05
1.61041e-05
1.6105e-05
1.61057e-05
1.61064e-05
1.61071e-05
1.61077e-05
1.61083e-05
1.61089e-05
1.61094e-05
1.61099e-05
1.61103e-05
1.61107e-05
1.61111e-05
1.61115e-05
1.61118e-05
1.61121e-05
1.61124e-05
1.61127e-05
1.61129e-05
1.60781e-05
1.6079e-05
1.60798e-05
1.60805e-05
1.60814e-05
1.60823e-05
1.60832e-05
1.60843e-05
1.60854e-05
1.60865e-05
1.60877e-05
1.60889e-05
1.60901e-05
1.60913e-05
1.60925e-05
1.60937e-05
1.60948e-05
1.6096e-05
1.6097e-05
1.60981e-05
1.60991e-05
1.61e-05
1.61009e-05
1.61017e-05
1.61025e-05
1.61032e-05
1.61039e-05
1.61046e-05
1.61052e-05
1.61057e-05
1.61063e-05
1.61068e-05
1.61072e-05
1.61077e-05
1.61081e-05
1.61085e-05
1.61088e-05
1.61092e-05
1.61095e-05
1.61098e-05
1.61101e-05
1.60755e-05
1.60762e-05
1.60767e-05
1.60774e-05
1.6078e-05
1.60788e-05
1.60796e-05
1.60805e-05
1.60815e-05
1.60825e-05
1.60836e-05
1.60847e-05
1.60858e-05
1.60869e-05
1.60881e-05
1.60892e-05
1.60903e-05
1.60914e-05
1.60925e-05
1.60936e-05
1.60946e-05
1.60956e-05
1.60966e-05
1.60975e-05
1.60983e-05
1.60992e-05
1.60999e-05
1.61006e-05
1.61013e-05
1.61019e-05
1.61025e-05
1.61031e-05
1.61036e-05
1.6104e-05
1.61045e-05
1.61049e-05
1.61052e-05
1.61056e-05
1.61059e-05
1.61062e-05
1.61064e-05
1.60726e-05
1.6073e-05
1.60734e-05
1.60738e-05
1.60743e-05
1.60749e-05
1.60755e-05
1.60761e-05
1.60769e-05
1.60777e-05
1.60785e-05
1.60794e-05
1.60804e-05
1.60814e-05
1.60825e-05
1.60837e-05
1.60849e-05
1.60861e-05
1.60872e-05
1.60883e-05
1.60894e-05
1.60904e-05
1.60913e-05
1.60922e-05
1.60931e-05
1.60939e-05
1.60946e-05
1.60953e-05
1.6096e-05
1.60966e-05
1.60972e-05
1.60977e-05
1.60982e-05
1.60987e-05
1.60991e-05
1.60995e-05
1.60999e-05
1.61002e-05
1.61005e-05
1.61008e-05
1.61011e-05
1.60693e-05
1.60695e-05
1.60696e-05
1.60698e-05
1.607e-05
1.60702e-05
1.60705e-05
1.60708e-05
1.60712e-05
1.60715e-05
1.60719e-05
1.60723e-05
1.60728e-05
1.60732e-05
1.60736e-05
1.60741e-05
1.60745e-05
1.60748e-05
1.60752e-05
1.60756e-05
1.60761e-05
1.60765e-05
1.6077e-05
1.60775e-05
1.6078e-05
1.60785e-05
1.60791e-05
1.60796e-05
1.60801e-05
1.60806e-05
1.60811e-05
1.60816e-05
1.6082e-05
1.60824e-05
1.60828e-05
1.60832e-05
1.60836e-05
1.60839e-05
1.60843e-05
1.60846e-05
1.60849e-05
0.00363317
0.00713453
0.0101946
0.0122605
0.0131757
0.0129765
0.0117494
0.00963613
0.00675479
0.00335196
0.000678552
0.000138957
1.00033e-05
1.08403e-05
1.77718e-05
1.66148e-05
1.58956e-05
1.60658e-05
1.61224e-05
1.61016e-05
1.60989e-05
1.61025e-05
1.6103e-05
1.61022e-05
1.61012e-05
1.60999e-05
1.60982e-05
1.60964e-05
1.60947e-05
1.60933e-05
1.60922e-05
1.60914e-05
1.60909e-05
1.60906e-05
1.60904e-05
1.60903e-05
1.60901e-05
1.609e-05
1.60898e-05
1.60895e-05
1.60892e-05
1.60889e-05
1.60885e-05
1.60881e-05
1.60877e-05
1.60872e-05
1.60866e-05
1.6086e-05
1.60853e-05
1.60846e-05
1.60838e-05
1.60829e-05
1.6082e-05
1.60809e-05
1.60797e-05
1.60785e-05
1.60771e-05
1.60756e-05
1.60741e-05
1.60726e-05
1.60713e-05
1.60705e-05
1.60705e-05
1.60712e-05
1.60727e-05
1.60748e-05
1.60773e-05
1.60801e-05
1.60832e-05
1.60865e-05
1.60901e-05
1.60943e-05
1.60977e-05
1.61062e-05
0.00621347
0.0108661
0.0144426
0.0166677
0.0176149
0.0174199
0.0162043
0.0140971
0.0111979
0.00755378
0.00351324
0.000626696
0.000137753
1.00042e-05
1.04484e-05
1.78759e-05
1.71031e-05
1.59189e-05
1.60051e-05
1.61189e-05
1.61095e-05
1.61e-05
1.61025e-05
1.6103e-05
1.61013e-05
1.60998e-05
1.60984e-05
1.60967e-05
1.6095e-05
1.60935e-05
1.60923e-05
1.60915e-05
1.6091e-05
1.60907e-05
1.60905e-05
1.60903e-05
1.60902e-05
1.609e-05
1.60898e-05
1.60896e-05
1.60893e-05
1.6089e-05
1.60886e-05
1.60882e-05
1.60878e-05
1.60873e-05
1.60867e-05
1.60861e-05
1.60854e-05
1.60847e-05
1.60839e-05
1.60831e-05
1.60821e-05
1.60811e-05
1.60799e-05
1.60787e-05
1.60773e-05
1.60759e-05
1.60743e-05
1.60728e-05
1.60715e-05
1.60706e-05
1.60704e-05
1.60711e-05
1.60725e-05
1.60745e-05
1.60769e-05
1.60797e-05
1.60828e-05
1.60861e-05
1.60897e-05
1.60938e-05
1.60972e-05
1.61056e-05
0.00868028
0.0147536
0.0190499
0.021542
0.0225862
0.0224337
0.0212468
0.0191581
0.0162746
0.0126452
0.0083039
0.00371183
0.000626974
0.000158616
1.0002e-05
1.00555e-05
1.67361e-05
1.75868e-05
1.60552e-05
1.59448e-05
1.6105e-05
1.61195e-05
1.61003e-05
1.61002e-05
1.61031e-05
1.61014e-05
1.60986e-05
1.60967e-05
1.60952e-05
1.60938e-05
1.60926e-05
1.60917e-05
1.60911e-05
1.60908e-05
1.60906e-05
1.60904e-05
1.60902e-05
1.609e-05
1.60898e-05
1.60896e-05
1.60893e-05
1.6089e-05
1.60887e-05
1.60883e-05
1.60878e-05
1.60873e-05
1.60868e-05
1.60862e-05
1.60855e-05
1.60848e-05
1.6084e-05
1.60832e-05
1.60822e-05
1.60812e-05
1.60801e-05
1.60789e-05
1.60775e-05
1.60761e-05
1.60746e-05
1.60731e-05
1.60717e-05
1.60707e-05
1.60704e-05
1.60709e-05
1.60722e-05
1.60741e-05
1.60765e-05
1.60793e-05
1.60823e-05
1.60856e-05
1.60892e-05
1.60933e-05
1.60967e-05
1.6105e-05
0.0111149
0.01883
0.023987
0.0268655
0.0280991
0.0280544
0.0269381
0.024895
0.0220396
0.0184467
0.014138
0.00914013
0.00405614
0.000715588
0.000217201
1.00002e-05
1.00391e-05
1.49543e-05
1.81082e-05
1.63413e-05
1.58722e-05
1.60636e-05
1.61376e-05
1.61076e-05
1.60927e-05
1.6098e-05
1.6101e-05
1.60986e-05
1.60955e-05
1.60938e-05
1.60928e-05
1.6092e-05
1.60913e-05
1.60909e-05
1.60906e-05
1.60904e-05
1.60903e-05
1.60901e-05
1.60899e-05
1.60896e-05
1.60894e-05
1.60891e-05
1.60887e-05
1.60883e-05
1.60879e-05
1.60874e-05
1.60869e-05
1.60863e-05
1.60856e-05
1.60849e-05
1.60842e-05
1.60833e-05
1.60824e-05
1.60814e-05
1.60803e-05
1.60791e-05
1.60778e-05
1.60764e-05
1.60748e-05
1.60733e-05
1.60719e-05
1.60708e-05
1.60704e-05
1.60707e-05
1.60719e-05
1.60738e-05
1.60761e-05
1.60788e-05
1.60818e-05
1.60851e-05
1.60887e-05
1.60928e-05
1.60961e-05
1.61043e-05
0.0136968
0.0231564
0.0292072
0.0325797
0.0341156
0.0342714
0.0332973
0.0313555
0.0285681
0.0250263
0.0207839
0.0158372
0.0102427
0.00466933
0.000970837
0.000321432
1.01855e-05
1.00261e-05
1.24061e-05
1.81524e-05
1.68155e-05
1.58228e-05
1.59273e-05
1.61385e-05
1.61482e-05
1.61017e-05
1.60883e-05
1.60945e-05
1.60978e-05
1.60957e-05
1.60929e-05
1.60917e-05
1.60913e-05
1.60911e-05
1.60908e-05
1.60905e-05
1.60903e-05
1.60901e-05
1.60899e-05
1.60897e-05
1.60894e-05
1.60891e-05
1.60888e-05
1.60884e-05
1.6088e-05
1.60875e-05
1.6087e-05
1.60864e-05
1.60858e-05
1.60851e-05
1.60843e-05
1.60835e-05
1.60826e-05
1.60816e-05
1.60805e-05
1.60793e-05
1.6078e-05
1.60766e-05
1.60751e-05
1.60736e-05
1.60722e-05
1.6071e-05
1.60704e-05
1.60706e-05
1.60716e-05
1.60734e-05
1.60757e-05
1.60784e-05
1.60813e-05
1.60846e-05
1.60881e-05
1.60922e-05
1.60955e-05
1.61036e-05
0.0171611
0.0277994
0.0346484
0.0385966
0.0405521
0.0410204
0.0402867
0.0385315
0.0358849
0.0324471
0.028292
0.0234548
0.017927
0.0117805
0.00571601
0.00144073
6.03258e-05
4.41092e-05
1.00103e-05
1.03631e-05
1.70246e-05
1.83104e-05
1.61991e-05
1.56872e-05
1.59619e-05
1.61575e-05
1.61491e-05
1.61001e-05
1.60856e-05
1.60913e-05
1.60953e-05
1.60939e-05
1.60915e-05
1.60905e-05
1.60905e-05
1.60906e-05
1.60905e-05
1.60903e-05
1.609e-05
1.60897e-05
1.60895e-05
1.60892e-05
1.60889e-05
1.60885e-05
1.60881e-05
1.60876e-05
1.60871e-05
1.60865e-05
1.60859e-05
1.60852e-05
1.60845e-05
1.60837e-05
1.60828e-05
1.60818e-05
1.60808e-05
1.60796e-05
1.60783e-05
1.6077e-05
1.60755e-05
1.60739e-05
1.60725e-05
1.60712e-05
1.60705e-05
1.60705e-05
1.60713e-05
1.6073e-05
1.60752e-05
1.60778e-05
1.60808e-05
1.6084e-05
1.60875e-05
1.60916e-05
1.60949e-05
1.61029e-05
0.021895
0.0327734
0.0402492
0.0448084
0.0472819
0.0481791
0.0478024
0.0463449
0.0439429
0.0407008
0.0367017
0.0320053
0.0266381
0.0205888
0.0139495
0.00731936
0.00237329
0.000354505
9.69861e-05
1.00009e-05
1.00362e-05
1.27681e-05
1.89404e-05
1.80045e-05
1.60553e-05
1.57036e-05
1.5978e-05
1.61545e-05
1.61466e-05
1.60985e-05
1.6082e-05
1.60878e-05
1.6094e-05
1.60942e-05
1.60918e-05
1.60901e-05
1.60898e-05
1.60901e-05
1.60901e-05
1.60899e-05
1.60896e-05
1.60893e-05
1.60889e-05
1.60886e-05
1.60882e-05
1.60877e-05
1.60872e-05
1.60867e-05
1.60861e-05
1.60854e-05
1.60847e-05
1.60839e-05
1.6083e-05
1.60821e-05
1.60811e-05
1.60799e-05
1.60787e-05
1.60773e-05
1.60759e-05
1.60743e-05
1.60728e-05
1.60715e-05
1.60706e-05
1.60704e-05
1.60711e-05
1.60726e-05
1.60747e-05
1.60773e-05
1.60802e-05
1.60834e-05
1.60869e-05
1.60909e-05
1.60942e-05
1.61021e-05
0.027505
0.0380429
0.0459493
0.0510873
0.0541374
0.0555653
0.0556662
0.0546343
0.052606
0.0496853
0.0459565
0.0414887
0.0363328
0.0305094
0.0240161
0.0169191
0.00977013
0.00398485
0.000511525
0.000340047
1.41681e-05
1.00092e-05
1.00457e-05
1.43135e-05
1.90485e-05
1.76175e-05
1.6005e-05
1.57249e-05
1.59776e-05
1.61521e-05
1.61516e-05
1.60998e-05
1.60758e-05
1.60802e-05
1.60901e-05
1.6094e-05
1.60928e-05
1.60905e-05