/*--------------------------------*- C++ -*----------------------------------*\
| =========                 |                                                 |
| \\      /  F ield         | OpenFOAM: The Open Source CFD Toolbox           |
|  \\    /   O peration     | Version:  2312                                  |
|   \\  /    A nd           | Website:  www.openfoam.com                      |
|    \\/     M anipulation  |                                                 |
\*---------------------------------------------------------------------------*/
FoamFile
{
    version     2.0;
    format      ascii;
    arch        "LSB;label=32;scalar=64";
    class       volSymmTensorField;
    location    "900";
    object      turbulenceProperties:R;
}
// * * * * * * * * * * * * * * * * * * * * * * * * * * * * * * * * * * * * * //

dimensions      [0 2 -2 0 0 0 0];

internalField   nonuniform List<symmTensor> 
11040
(
(0.282902 0.075073 -1.33344e-22 0.246494 9.21476e-21 0.276506)
(0.351408 0.0742543 8.1545e-21 0.22673 1.14616e-19 0.305419)
(0.054737 0.00595426 -1.80149e-20 0.0405547 5.60998e-20 0.0462804)
(0.0267896 0.0088678 -5.83688e-20 0.0353312 3.31794e-20 0.0304955)
(0.117897 0.0459498 -2.12048e-20 0.248808 1.8986e-19 0.183039)
(0.129639 0.0565563 -2.90193e-19 0.249002 1.0571e-19 0.188317)
(0.129163 0.0591744 1.66025e-19 0.229552 -1.09094e-18 0.17899)
(0.12295 0.0574064 2.30506e-19 0.204496 -1.59756e-19 0.163535)
(0.115213 0.0539067 9.85963e-20 0.179773 -2.86059e-20 0.147375)
(0.110945 0.0517664 9.16297e-20 0.163543 1.45597e-19 0.137261)
(0.1063 0.0490941 -8.10035e-20 0.149072 3.45421e-19 0.127686)
(0.102107 0.0465291 -1.20792e-19 0.136617 2.59081e-19 0.119403)
(0.0987133 0.0442597 2.00386e-20 0.12633 -1.4842e-19 0.112605)
(0.0962635 0.0424407 2.4956e-20 0.118261 1.4478e-19 0.107345)
(0.0944714 0.0409077 -1.12079e-20 0.111551 1.09655e-20 0.103127)
(0.0943364 0.0402042 -4.29408e-21 0.107333 -1.86305e-19 0.100962)
(0.0959269 0.0403434 5.144e-20 0.105312 -7.34603e-22 0.100768)
(0.0994994 0.0414014 -5.02865e-21 0.105501 3.387e-19 0.102671)
(0.104883 0.0432338 -2.92472e-20 0.107472 2.96744e-21 0.106369)
(0.112122 0.0458045 4.74423e-21 0.111053 -4.95136e-20 0.111807)
(0.121517 0.0491969 2.25152e-20 0.116356 3.80297e-20 0.119171)
(0.132735 0.053314 -2.4751e-20 0.123279 1.15435e-19 0.128244)
(0.14564 0.0581679 9.50126e-22 0.13195 -9.54616e-20 0.139053)
(0.160597 0.063814 1.28112e-20 0.14235 2.46238e-19 0.151749)
(0.177751 0.0702674 -7.50233e-20 0.154418 -2.22453e-19 0.166354)
(0.197789 0.0778382 -4.02262e-20 0.16871 -5.21824e-19 0.183495)
(0.220141 0.0862703 1.09602e-20 0.184692 -2.43988e-19 0.202621)
(0.241826 0.0943201 3.27533e-20 0.199922 6.98808e-20 0.221013)
(0.260952 0.101267 -2.22477e-20 0.212958 -2.00671e-19 0.237001)
(0.275278 0.106291 1.3718e-20 0.222169 -4.69638e-19 0.248655)
(0.282446 0.10854 1.19649e-19 0.225848 3.38637e-19 0.253962)
(0.280495 0.107274 2.05058e-20 0.222488 -2.69243e-20 0.251194)
(0.269992 0.102812 1.04599e-19 0.212735 9.53557e-19 0.240951)
(0.254729 0.0968047 -8.99233e-20 0.19987 5.85234e-19 0.226748)
(0.241171 0.0919182 4.64e-20 0.189256 9.89094e-21 0.214399)
(0.188835 0.0723289 1.27709e-19 0.149719 9.07683e-19 0.16829)
(0.0974794 0.0372748 7.90046e-21 0.0799551 1.70493e-19 0.0879389)
(0.0577578 0.0234863 -3.82176e-20 0.0519657 5.21167e-19 0.0536809)
(0.0173887 0.00824327 -4.27393e-19 0.0287076 -1.10685e-18 0.0224533)
(0.0582066 -0.0281369 1.29169e-21 0.0905714 -9.303e-19 0.0724432)
(0.0876982 -0.0196555 1.97244e-19 0.209616 5.31799e-20 0.138692)
(0.0241499 -0.0017655 1.73529e-22 0.02122 -5.08384e-22 0.0219619)
(0.0597119 0.00136746 2.05855e-20 0.0384158 4.04532e-21 0.041112)
(0.201372 0.0273367 4.84226e-20 0.111213 -2.56506e-19 0.15825)
(0.396982 0.0304278 7.31666e-20 0.165952 -1.66096e-19 0.282517)
(0.786443 -0.0208491 8.15918e-20 0.300042 -4.86579e-19 0.542585)
(0.248341 -0.0482892 5.59172e-19 0.116204 -1.18774e-18 0.181561)
(0.0741007 -0.0187819 -8.1362e-19 0.039936 3.18855e-18 0.0556894)
(0.0237138 -0.00756693 -8.17375e-19 0.014997 2.11017e-18 0.0196409)
(0.0053861 -0.00223771 -7.36505e-20 0.00463616 -1.50847e-19 0.00519441)
(0.00257052 0.00122546 -1.01632e-19 0.00491313 3.95206e-20 0.00391871)
(0.00699103 0.00347957 4.50017e-19 0.0113197 -1.13184e-18 0.00913389)
(0.00979536 0.0048745 -1.60599e-21 0.0146662 -7.25686e-20 0.0120892)
(0.0119607 0.00591423 -1.62007e-19 0.0165064 6.63508e-19 0.0140946)
(0.0135843 0.006635 -1.09842e-19 0.0177883 3.22203e-20 0.0154662)
(0.0148605 0.00714645 -4.33027e-20 0.0183815 -1.66759e-19 0.0163831)
(0.0161102 0.00761246 1.03062e-20 0.0189345 5.70566e-19 0.0172475)
(0.0175805 0.00815591 -1.40918e-20 0.0196943 1.90541e-19 0.0183272)
(0.0193027 0.00878703 -8.75138e-21 0.0206559 -5.32813e-19 0.0196349)
(0.0210975 0.00941895 -2.28808e-20 0.0216259 -2.4666e-20 0.0209757)
(0.022979 0.0100476 -7.14674e-21 0.0225631 7.96408e-20 0.022358)
(0.0249929 0.0106859 -1.06233e-20 0.0235023 -1.47999e-20 0.0238184)
(0.0271778 0.0113605 3.01437e-20 0.0245384 -2.68014e-19 0.0254155)
(0.0290082 0.0118882 2.31633e-20 0.0253402 3.77371e-19 0.0267046)
(0.0299767 0.0120662 -4.53451e-20 0.0254489 -3.44341e-19 0.0272377)
(0.0299057 0.0118444 -6.29406e-21 0.0247589 2.79516e-19 0.0268883)
(0.0293438 0.0114683 7.2795e-20 0.0237802 9.03661e-19 0.0261748)
(0.028535 0.0110483 1.36403e-19 0.0227458 5.00411e-19 0.0253303)
(0.0267166 0.0103101 -3.34909e-20 0.0211136 1.39676e-19 0.0237248)
(0.0238706 0.0092791 -9.01341e-20 0.0189495 2.78473e-19 0.0213961)
(0.0203882 0.00812596 4.38841e-20 0.0166413 4.96463e-19 0.0187257)
(0.0172141 0.00721325 -1.09912e-19 0.0150337 -7.59617e-19 0.0165736)
(0.0154612 0.00699316 -5.5822e-20 0.0153523 -1.24018e-18 0.0161185)
(0.0139121 0.00685235 -1.29276e-19 0.0169781 -2.59697e-18 0.0164648)
(0.0136143 0.00694922 6.86461e-20 0.0209169 -1.29203e-18 0.0186193)
(0.0149605 0.00732433 -9.25165e-20 0.0275864 1.21489e-19 0.0231104)
(0.0179393 0.00804947 -4.37757e-19 0.0370123 -3.96534e-18 0.0300847)
(0.0229217 0.00961647 -6.70832e-20 0.0497758 -3.43467e-19 0.0397246)
(0.0300806 0.0121825 -5.08965e-19 0.0667817 -2.39231e-18 0.0510724)
(0.0455733 0.01544 1.23746e-18 0.108533 5.35604e-18 0.082652)
(0.0640372 0.0296321 8.04673e-19 0.118624 4.77669e-18 0.0872991)
(0.245327 -0.112801 -4.01198e-19 0.440304 -6.64954e-19 0.413004)
(0.0145937 -0.00148181 -1.88356e-22 0.0129799 -2.70985e-22 0.0139286)
(0.0121845 -0.0019372 -4.96218e-21 0.0126392 -1.26969e-20 0.0123058)
(0.0338631 0.00356674 1.56614e-20 0.0212686 7.76647e-20 0.0269811)
(0.156121 0.0163821 5.26541e-20 0.0794029 8.13953e-20 0.118703)
(0.905579 0.0478629 -7.46483e-21 0.349773 -3.72379e-20 0.631031)
(1.22679 -0.0347067 -3.02304e-19 0.468152 1.18604e-18 0.845145)
(0.613184 -0.0972312 2.56538e-20 0.268032 1.00424e-20 0.439536)
(0.220805 -0.0537397 9.46318e-20 0.116509 -2.44952e-18 0.163271)
(0.0999249 -0.0283591 -1.67168e-19 0.0577128 2.55744e-20 0.078136)
(0.0587506 -0.017495 2.38849e-19 0.0350183 -6.97745e-19 0.0472213)
(0.0323174 -0.0103737 -4.39579e-19 0.0205812 1.03718e-18 0.0265945)
(0.0179524 -0.00620972 7.63698e-19 0.0123521 -2.08024e-18 0.0151303)
(0.00879222 -0.0029521 -3.93025e-20 0.0058349 -6.90814e-20 0.00740681)
(0.00277947 -0.000730812 1.54146e-19 0.00151333 -9.10922e-19 0.00215841)
(0.00255673 0.00085807 2.45399e-20 0.00168741 9.52134e-19 0.00219032)
(0.00499348 0.00201863 -7.8837e-20 0.00414803 -3.63706e-19 0.00462778)
(0.00692061 0.00280145 -3.41481e-21 0.00576953 -6.12433e-19 0.00640324)
(0.00848339 0.00335251 4.18419e-20 0.00684018 -4.37772e-19 0.00772219)
(0.00972789 0.00372758 1.95415e-20 0.00753544 -2.48426e-20 0.00867825)
(0.0107096 0.00393873 2.59865e-20 0.00788554 2.76586e-20 0.00934159)
(0.0114794 0.00402053 2.77202e-21 0.00799777 8.38686e-20 0.0097734)
(0.0120592 0.00395204 -4.42506e-20 0.00784492 1.33583e-19 0.00999453)
(0.0121404 0.00361925 -3.73119e-20 0.00725708 -4.40912e-19 0.00974359)
(0.0115528 0.00298054 -3.96196e-20 0.00621734 -1.77122e-19 0.00892421)
(0.0104103 0.00213721 8.28922e-20 0.00496712 -2.78702e-19 0.00771088)
(0.00893221 0.00123351 -1.43894e-20 0.00377654 -2.60567e-19 0.00635473)
(0.00717399 0.000406796 -2.27109e-19 0.00278088 2.65446e-19 0.00494631)
(0.00492856 -0.00021265 -7.83849e-20 0.0019092 -1.07349e-18 0.0033425)
(0.0019407 -0.000442307 1.91856e-19 0.00103183 2.65235e-19 0.00135117)
(0.00140686 -0.000165793 2.62032e-19 0.00349204 1.11494e-18 0.00225675)
(0.00404271 0.000488772 -1.85343e-19 0.0103629 6.27567e-19 0.00697121)
(0.00798368 0.00114018 4.31084e-19 0.0205104 2.59461e-18 0.0139878)
(0.013415 0.00250376 1.81648e-19 0.0341172 8.04382e-19 0.0234944)
(0.0205331 0.00472775 -3.96726e-19 0.0514201 9.01508e-19 0.0357386)
(0.0296612 0.00796875 -4.78589e-19 0.0729605 -9.50448e-19 0.0511862)
(0.0413809 0.0125438 3.23319e-19 0.099848 1.99415e-18 0.0708597)
(0.0565955 0.0191974 2.9543e-19 0.133096 -2.09765e-18 0.09569)
(0.0753069 0.0279854 5.37661e-19 0.170725 1.91308e-18 0.122724)
(0.1086 0.0382753 -4.30188e-19 0.254337 -9.50858e-19 0.187071)
(0.174898 0.0836707 2.43483e-20 0.309222 -4.99424e-19 0.233461)
(0.191395 0.00543935 4.49787e-19 0.505446 1.68512e-18 0.350743)
(0.0107202 -0.0010408 -5.95352e-23 0.00912289 -2.80587e-22 0.00998137)
(0.00841558 -0.0010015 -1.34149e-22 0.00853709 9.6736e-22 0.00857313)
(0.00660947 -0.00109448 -7.7204e-21 0.00748719 -1.77191e-20 0.007063)
(0.0126601 0.000775874 -1.05897e-20 0.00925742 -2.07664e-20 0.0108799)
(0.20998 0.0198022 3.70286e-20 0.0896307 4.3902e-20 0.150521)
(1.05113 0.0426117 2.40334e-19 0.401977 8.80319e-21 0.732078)
(1.58156 -0.0446363 2.55863e-19 0.603368 -1.38782e-18 1.08966)
(1.03455 -0.137065 9.01063e-19 0.432222 -1.40966e-18 0.739644)
(0.411849 -0.094315 -4.09691e-19 0.209776 1.22338e-18 0.301808)
(0.213611 -0.0575458 2.31074e-19 0.119062 3.98821e-19 0.164074)
(0.124141 -0.0358232 -3.52257e-19 0.0723616 1.12118e-18 0.0981792)
(0.0811847 -0.0255935 -5.79149e-19 0.0509259 1.25921e-18 0.0661118)
(0.0560281 -0.0185494 4.64361e-19 0.0367713 -9.50191e-19 0.0465476)
(0.0391111 -0.0135905 -1.1719e-19 0.0270475 9.35082e-19 0.032981)
(0.0288979 -0.0102006 -1.99568e-19 0.0203137 -1.05454e-18 0.024578)
(0.021948 -0.00771732 -1.12147e-19 0.0153713 -4.55509e-19 0.0186154)
(0.0178029 -0.00612803 5.32966e-20 0.0121863 2.24754e-19 0.0149592)
(0.0152505 -0.00502742 1.14438e-19 0.00998528 1.31621e-20 0.0126056)
(0.0138874 -0.00438942 3.10827e-20 0.00874151 5.34163e-20 0.0112985)
(0.0134716 -0.0041196 -1.21293e-20 0.00823032 -7.69025e-20 0.0108556)
(0.0136399 -0.00414272 -2.72965e-20 0.00828643 -1.95896e-19 0.0109628)
(0.0144275 -0.00440632 2.64767e-20 0.00880578 -2.79077e-19 0.0116176)
(0.0159128 -0.00496435 2.30874e-20 0.00989117 -1.26454e-19 0.01291)
(0.0178659 -0.00581985 8.68066e-21 0.0115528 1.17437e-19 0.0147268)
(0.0197581 -0.00679057 -6.84205e-20 0.0134824 7.07034e-19 0.016636)
(0.0211678 -0.00769813 2.51961e-19 0.0153789 -8.06925e-19 0.0182874)
(0.0217081 -0.00840617 1.80612e-19 0.0170517 -6.2177e-19 0.0193955)
(0.0210135 -0.00878386 1.99001e-19 0.0184337 1.52104e-18 0.0197435)
(0.0189248 -0.00869434 -6.31502e-20 0.0197457 4.05505e-19 0.019359)
(0.0160563 -0.00803846 -5.56896e-19 0.0220702 -5.9428e-19 0.0190921)
(0.014437 -0.00672953 1.77665e-19 0.0279969 -1.07624e-18 0.0212527)
(0.0165174 -0.00455763 -4.48408e-19 0.0405279 6.55025e-19 0.0285651)
(0.023066 -0.00102693 3.95618e-19 0.0607369 -5.55717e-19 0.0419555)
(0.0342042 0.00414918 4.50536e-19 0.0890663 -1.41432e-18 0.0616856)
(0.0500632 0.0112669 4.43939e-19 0.126043 8.24733e-19 0.0880652)
(0.0713833 0.0207889 4.76243e-19 0.173463 1.7865e-18 0.122565)
(0.0995176 0.0339965 3.88126e-19 0.232943 1.87901e-18 0.166722)
(0.134778 0.0519515 -5.79572e-19 0.299728 -2.34371e-18 0.215432)
(0.186779 0.0707716 2.90493e-20 0.424423 -8.13518e-19 0.311705)
(0.312003 0.151271 -1.98898e-19 0.541306 -1.68451e-18 0.414631)
(0.22986 0.0864286 -4.82807e-19 0.523361 -8.0961e-19 0.382975)
(0.00799868 -0.000751419 5.32269e-22 0.00681174 1.27989e-21 0.00739947)
(0.00683577 -0.000819867 -8.30266e-22 0.00653624 -1.64337e-21 0.00665647)
(0.00684226 -0.000894078 4.50006e-21 0.00738302 9.14228e-21 0.00710989)
(0.00337801 -0.00038811 5.15474e-21 0.00375963 9.06203e-21 0.00355862)
(0.00525245 0.000156239 -4.8687e-21 0.0042124 -7.23634e-21 0.0047125)
(0.189621 0.0146354 3.27157e-20 0.0773713 -1.07161e-20 0.13372)
(1.00046 0.0300939 -7.25374e-20 0.380763 -8.88204e-21 0.695835)
(1.78617 -0.0470564 -2.52927e-19 0.68099 3.16629e-19 1.23039)
(1.50753 -0.167533 4.03241e-19 0.611818 -1.81313e-19 1.06911)
(0.723163 -0.152172 9.57964e-21 0.350085 1.79633e-19 0.53197)
(0.368376 -0.096072 3.61506e-19 0.201964 -2.34381e-18 0.278233)
(0.217283 -0.0619172 -2.57583e-19 0.125654 3.97657e-19 0.170598)
(0.146769 -0.0449855 -2.91184e-19 0.0896667 2.32648e-19 0.1188)
(0.103548 -0.0340089 3.36637e-19 0.0674695 -2.32129e-18 0.0856373)
(0.0786287 -0.0272769 2.67071e-19 0.0541914 1.32973e-19 0.0664431)
(0.0617385 -0.0221407 1.68765e-19 0.0441597 1.7756e-19 0.0529177)
(0.0515371 -0.0189308 -1.56908e-19 0.0379154 6.29308e-19 0.0446784)
(0.0449572 -0.0167099 -1.04128e-20 0.0335379 1.38111e-19 0.0392331)
(0.0409922 -0.0154182 3.68807e-20 0.0310401 -6.70475e-20 0.0359814)
(0.038978 -0.0148068 4.76059e-20 0.0298765 4.98227e-20 0.0344197)
(0.0380897 -0.0146449 -1.00519e-20 0.0296586 2.31605e-19 0.0338536)
(0.0381914 -0.0147872 -8.94746e-20 0.0300135 2.29344e-19 0.0340807)
(0.0393391 -0.015262 1.22769e-19 0.0309983 1.75604e-19 0.0351443)
(0.041299 -0.0160902 1.51627e-19 0.0327222 4.02354e-19 0.0369953)
(0.0433569 -0.0170659 -1.78373e-19 0.0348318 -9.85466e-20 0.0390825)
(0.0449108 -0.0180004 -1.33776e-19 0.0370045 2.04614e-18 0.0409499)
(0.0453567 -0.0187176 8.26593e-20 0.0390198 -3.1473e-20 0.0421847)
(0.0440671 -0.0190144 -2.96038e-19 0.0407597 -8.3387e-19 0.0424159)
(0.0406144 -0.0186625 -5.04409e-19 0.0424212 -1.60977e-18 0.0415277)
(0.0352866 -0.0174019 3.66024e-19 0.0449935 -6.63067e-19 0.0401609)
(0.0300217 -0.0149041 1.22579e-19 0.0511467 1.76306e-18 0.0406153)
(0.0289044 -0.0107435 2.63606e-19 0.0656373 -1.06699e-18 0.0473117)
(0.0356249 -0.00440508 -2.32582e-19 0.0927255 2.9685e-18 0.0642383)
(0.0510898 0.00460336 -8.99539e-19 0.133799 1.4619e-19 0.0925118)
(0.0750375 0.0167723 -3.35757e-19 0.189047 6.21127e-19 0.132057)
(0.108009 0.0327648 -4.56824e-19 0.260307 7.4278e-19 0.184346)
(0.151826 0.0545218 -6.74953e-20 0.349587 -3.6213e-20 0.251371)
(0.208437 0.0848329 2.26336e-20 0.450821 7.3642e-20 0.327104)
(0.277675 0.114334 -3.24307e-20 0.604703 1.62548e-18 0.448719)
(0.45888 0.223228 -3.64185e-20 0.794706 -1.11678e-18 0.61143)
(0.352249 0.171492 6.3459e-19 0.646856 -7.45438e-19 0.509482)
(0.00579154 -0.000515909 -5.25486e-22 0.00488973 -8.93277e-22 0.00534596)
(0.00507975 -0.000610113 2.712e-21 0.00473731 4.42779e-21 0.00489955)
(0.00470436 -0.000598221 -1.33532e-21 0.00484498 -2.91291e-21 0.00476917)
(0.0049716 -0.000631548 -1.31129e-21 0.00559385 -3.50176e-21 0.0052877)
(0.00156953 -9.50877e-05 3.0134e-22 0.00168981 7.25449e-22 0.00162894)
(0.00121269 6.92383e-06 -1.52973e-22 0.00109715 -1.51325e-22 0.00115232)
(0.12858 0.00762708 -2.33908e-20 0.051929 -2.40479e-20 0.0901284)
(0.801685 0.0179503 -7.93252e-20 0.30459 9.79579e-20 0.556161)
(1.81157 -0.0452108 -1.67963e-19 0.689668 -1.61737e-19 1.25073)
(1.93494 -0.178929 -3.68601e-19 0.769977 -9.64729e-19 1.35758)
(1.20648 -0.221391 3.74038e-19 0.549162 5.5994e-19 0.886867)
(0.592636 -0.147966 6.02148e-19 0.316396 -8.27898e-19 0.442695)
(0.355745 -0.100911 -8.05732e-19 0.205856 6.20731e-19 0.276803)
(0.234562 -0.0706492 3.51227e-19 0.141479 1.07939e-18 0.187974)
(0.169057 -0.0551266 1.88052e-20 0.109287 4.76356e-19 0.139716)
(0.128067 -0.0442077 -2.27669e-19 0.0877391 -8.56105e-20 0.108128)
(0.103828 -0.0376112 1.59922e-19 0.0751274 -8.94593e-19 0.0894199)
(0.0885387 -0.0330402 -3.41117e-20 0.0663648 5.81901e-19 0.0774378)
(0.078982 -0.0302231 7.02225e-20 0.0611208 -1.10647e-19 0.0699997)
(0.0737004 -0.0287279 4.67035e-20 0.0584168 2.02731e-19 0.0660646)
(0.0707893 -0.0280457 -6.28163e-20 0.057382 -2.92381e-19 0.0640699)
(0.0697454 -0.0278797 2.97528e-20 0.0572455 1.18675e-20 0.0634894)
(0.0703793 -0.0281962 1.41668e-20 0.0579534 1.01409e-19 0.0641535)
(0.0723628 -0.0290302 -2.95602e-19 0.0596995 -3.40604e-19 0.0660244)
(0.0747435 -0.0301226 3.21299e-19 0.0620709 -8.01829e-19 0.068399)
(0.0766746 -0.0312353 4.48826e-20 0.064688 -4.29969e-19 0.0706725)
(0.0772152 -0.0321023 -5.3643e-19 0.0671949 -4.30982e-19 0.0721968)
(0.0752967 -0.0323877 5.22319e-20 0.0692743 -9.72456e-19 0.072279)
(0.0699955 -0.031696 8.47823e-19 0.0708909 -1.18536e-19 0.0704419)
(0.0611409 -0.0295732 3.38076e-19 0.0728312 1.42472e-18 0.0669975)
(0.0505605 -0.0254708 -4.12546e-19 0.0778911 -7.78372e-19 0.0642495)
(0.0439655 -0.0187705 -4.95677e-19 0.0926753 6.37482e-19 0.0683519)
(0.0490147 -0.00880217 -2.14546e-19 0.125622 -3.16128e-18 0.0873778)
(0.0687111 0.00518215 7.77742e-19 0.180311 -1.96946e-18 0.124579)
(0.102205 0.023924 6.25711e-19 0.256251 -1.79512e-18 0.17923)
(0.149263 0.0482907 -1.33943e-19 0.354361 -6.40578e-20 0.252048)
(0.211923 0.0808728 1.39312e-19 0.476295 1.44636e-18 0.344882)
(0.293917 0.125977 4.26955e-20 0.614854 -8.18753e-19 0.451443)
(0.382325 0.169234 -2.43686e-19 0.78975 7.49969e-19 0.594389)
(0.603293 0.294715 -5.50923e-19 1.04159 1.77727e-18 0.805995)
(0.526466 0.265543 -5.38824e-19 0.852292 -8.85792e-19 0.699165)
(0.00420642 -0.00035174 -1.26707e-22 0.00350892 -2.33492e-22 0.00386095)
(0.00386162 -0.000441676 2.95294e-22 0.00351419 3.48172e-22 0.003688)
(0.0034738 -0.000441171 -1.38698e-21 0.00345231 -1.84774e-21 0.00346187)
(0.00353856 -0.000458665 -2.20073e-21 0.00383709 -2.75861e-21 0.0036855)
(0.003547 -0.000402845 -7.55485e-22 0.00407993 -8.82092e-22 0.00381562)
(0.000717142 -1.99266e-05 2.07312e-22 0.000749569 2.86947e-22 0.000733423)
(3.2002e-05 -2.66147e-08 -4.74975e-25 3.18103e-05 -7.18752e-25 3.19005e-05)
(0.0595332 0.00232 1.84677e-20 0.0250294 2.03327e-20 0.0421245)
(0.538073 0.00804682 2.37944e-19 0.204363 2.29118e-19 0.372161)
(1.57674 -0.0391084 -1.7034e-19 0.599618 3.8778e-19 1.09136)
(2.18971 -0.163966 -2.71104e-19 0.858623 6.47267e-19 1.52137)
(1.78391 -0.272773 2.7328e-19 0.768428 -1.06735e-18 1.29152)
(0.994321 -0.231102 4.38979e-19 0.503951 1.3192e-18 0.747969)
(0.547278 -0.151758 -7.8491e-19 0.313431 -2.96295e-19 0.418793)
(0.357946 -0.108078 3.32658e-19 0.217049 -1.3421e-18 0.285214)
(0.257067 -0.082469 -2.22466e-19 0.163716 7.69511e-19 0.210974)
(0.195917 -0.0674166 1.37701e-19 0.133746 7.55022e-19 0.165268)
(0.158212 -0.0573066 1.5827e-19 0.114345 3.88755e-19 0.136518)
(0.134987 -0.05096 -8.24314e-20 0.102669 3.43469e-19 0.118751)
(0.122057 -0.0474127 9.21242e-21 0.0963061 -9.94102e-19 0.109171)
(0.114728 -0.0455595 2.16262e-20 0.0933143 4.24159e-19 0.103964)
(0.111543 -0.0448092 -1.30795e-19 0.0922055 -8.39015e-21 0.101856)
(0.111442 -0.0449196 1.22968e-19 0.0925711 -4.77685e-19 0.101987)
(0.113681 -0.0458619 2.03876e-19 0.0945432 -7.07765e-20 0.104107)
(0.116833 -0.047241 -1.78545e-19 0.097486 1.03307e-18 0.107157)
(0.119642 -0.0487147 -3.23601e-19 0.100857 -9.07808e-19 0.110247)
(0.120709 -0.0498845 4.11447e-19 0.104066 -5.41921e-19 0.112384)
(0.118371 -0.0502345 2.09211e-19 0.10646 1.63853e-18 0.112411)
(0.110981 -0.0491456 1.44328e-19 0.107576 1.79544e-18 0.109277)
(0.0976468 -0.0459426 -2.03829e-19 0.107772 -3.26437e-19 0.10272)
(0.0795783 -0.0398289 -2.02852e-20 0.109494 -1.18566e-18 0.0945616)
(0.0633789 -0.0299439 -4.04865e-19 0.120475 -3.56449e-19 0.0919584)
(0.0620902 -0.015383 -1.92437e-19 0.154675 1.48896e-18 0.108445)
(0.0840515 0.00488534 9.44215e-20 0.220996 2.28746e-18 0.152596)
(0.127795 0.0318671 1.34452e-18 0.318016 7.59991e-19 0.222904)
(0.191025 0.066569 2.24158e-19 0.44394 -8.48025e-19 0.317763)
(0.275134 0.111958 -1.56871e-18 0.59857 -7.45458e-19 0.437581)
(0.384332 0.172656 1.89759e-20 0.772945 -2.11964e-19 0.575719)
(0.496189 0.232035 -1.77661e-20 0.965261 -1.8754e-18 0.738652)
(0.737551 0.363157 -1.34927e-19 1.2541 6.00484e-19 0.9809)
(0.719607 0.363485 4.30232e-19 1.09004 1.59228e-18 0.910295)
(0.00308033 -0.000246115 -2.61792e-23 0.00255001 -5.17549e-24 0.00281855)
(0.00291451 -0.000315111 -5.37879e-22 0.0025933 -7.32123e-22 0.0027533)
(0.00276356 -0.00034512 5.22096e-22 0.00266132 7.05725e-22 0.00271154)
(0.00255325 -0.000328753 2.38971e-21 0.00265895 3.19924e-21 0.00260419)
(0.00265485 -0.000336142 4.74283e-22 0.0029856 6.59727e-22 0.00281712)
(0.00271817 -0.000292807 4.07003e-22 0.00319693 2.15717e-22 0.00295808)
(0.000137958 -7.28186e-07 -1.47521e-23 0.000139414 -1.62604e-23 0.000138694)
(1.6032e-06 -4.50805e-10 -9.71972e-28 1.60312e-06 -6.62979e-28 1.60314e-06)
(0.0173922 0.000178464 -9.19671e-21 0.00881548 -1.32482e-20 0.0130356)
(0.289687 0.00171049 1.70986e-19 0.11013 1.92712e-19 0.199867)
(1.13676 -0.0279394 -2.77985e-19 0.432292 -6.8309e-19 0.786756)
(2.13687 -0.137396 -1.0465e-19 0.830466 8.49971e-19 1.48268)
(2.27024 -0.279028 1.46979e-19 0.937347 -1.02389e-18 1.60924)
(1.58936 -0.320258 -3.52396e-19 0.749133 -3.91128e-19 1.18478)
(0.882176 -0.233934 9.33637e-19 0.486276 -2.72292e-19 0.675377)
(0.53585 -0.16073 3.83119e-19 0.325441 8.29918e-19 0.420988)
(0.374453 -0.119603 -3.49557e-19 0.238198 5.14319e-19 0.305029)
(0.285299 -0.0969536 -3.80332e-19 0.192142 4.38325e-19 0.239666)
(0.229458 -0.0829307 -6.11086e-19 0.165376 -3.62683e-20 0.197876)
(0.196208 -0.074336 4.77301e-19 0.149763 -6.06981e-19 0.173224)
(0.17707 -0.0694588 1.93145e-19 0.141604 8.40408e-19 0.159239)
(0.168515 -0.0673101 -3.50582e-19 0.138184 -2.04625e-19 0.153284)
(0.166297 -0.0668478 1.22757e-19 0.137614 3.52715e-19 0.151882)
(0.168562 -0.067858 9.21922e-20 0.139772 2.34016e-19 0.154121)
(0.172906 -0.0696632 1.73948e-20 0.143532 -3.75592e-19 0.158193)
(0.177351 -0.0717276 -2.35019e-20 0.148036 5.2893e-19 0.162679)
(0.179823 -0.0734501 3.36951e-19 0.152301 1.37536e-18 0.166063)
(0.177849 -0.0740651 3.07596e-19 0.15516 -5.45115e-19 0.166517)
(0.168699 -0.072622 -4.5336e-19 0.155403 3.86504e-20 0.162069)
(0.150467 -0.0682 -9.87272e-19 0.152664 -1.14302e-18 0.151594)
(0.122966 -0.0597075 2.50775e-19 0.148259 7.24646e-20 0.135656)
(0.0917318 -0.0459842 5.65642e-19 0.149035 -1.05286e-18 0.120433)
(0.0746642 -0.0258526 6.30104e-19 0.173853 3.29072e-19 0.124338)
(0.0925106 0.0019812 -4.23165e-19 0.243844 -1.7505e-19 0.168264)
(0.145428 0.0387181 -7.66789e-19 0.358637 1.51868e-18 0.252054)
(0.226123 0.0853531 -6.09852e-19 0.510249 -1.43069e-18 0.368511)
(0.333266 0.144662 9.63102e-19 0.694054 -2.19161e-19 0.514245)
(0.469118 0.220017 3.1949e-20 0.897983 3.6451e-19 0.681144)
(0.608176 0.295818 2.00627e-19 1.10554 -3.53897e-19 0.863002)
(0.848904 0.422688 -1.48515e-19 1.3951 -8.32104e-19 1.11162)
(0.897481 0.451348 -4.53348e-19 1.30132 5.39516e-19 1.09759)
(0.00228156 -0.00017478 -8.4476e-23 0.00187737 -2.84301e-23 0.00208182)
(0.00218734 -0.000225505 -4.52245e-22 0.0019147 -7.04225e-22 0.00205066)
(0.00212232 -0.000255143 1.89078e-21 0.00198737 2.15256e-21 0.00205465)
(0.00203233 -0.00026208 -2.54621e-22 0.00204326 -3.23938e-22 0.00203785)
(0.00188509 -0.000238203 6.67458e-22 0.00203147 6.20134e-22 0.00195735)
(0.00204827 -0.000258288 -6.70235e-22 0.00237795 -6.10122e-22 0.00221037)
(0.00193967 -0.000183348 1.37232e-21 0.00229781 1.83838e-21 0.00211812)
(0.000285326 -3.31529e-06 3.42092e-23 0.000293236 2.86803e-23 0.000289319)
(0.000253929 -6.13657e-06 1.67248e-24 0.000263784 2.99726e-23 0.000258844)
(0.000545763 -3.47083e-06 2.29112e-22 0.000504138 2.0315e-22 0.000524485)
(0.110972 -0.000831896 -4.93404e-21 0.0424983 5.20593e-21 0.0765231)
(0.653211 -0.0174461 -3.198e-19 0.248748 -2.15275e-19 0.451457)
(1.69693 -0.098624 1.99235e-19 0.656118 -3.94184e-19 1.17814)
(2.44315 -0.244358 -4.87442e-19 0.982145 9.26712e-19 1.71)
(2.21908 -0.365621 -2.57532e-19 0.976405 -9.30089e-19 1.61161)
(1.45289 -0.346059 5.45872e-19 0.743146 7.4095e-19 1.10931)
(0.839493 -0.243532 3.39721e-19 0.495298 -1.5432e-18 0.654961)
(0.546935 -0.174597 1.65254e-19 0.35023 5.74676e-19 0.440011)
(0.404219 -0.136249 -7.33845e-19 0.270651 -1.12175e-18 0.336716)
(0.323254 -0.115832 2.97091e-19 0.230514 1.18774e-18 0.278059)
(0.275073 -0.104201 7.44434e-20 0.209855 -8.74013e-19 0.242977)
(0.251381 -0.0985396 -3.26996e-19 0.200696 4.29163e-19 0.226233)
(0.242236 -0.0964364 2.45223e-19 0.197706 5.30765e-21 0.219879)
(0.242545 -0.0970672 -4.19084e-20 0.199451 2.70044e-20 0.220871)
(0.247768 -0.0992345 -8.9214e-20 0.203956 7.35126e-19 0.225768)
(0.254234 -0.101935 1.08938e-19 0.209591 -1.75109e-19 0.231842)
(0.258901 -0.104296 -7.63943e-19 0.214877 6.26531e-21 0.236846)
(0.258442 -0.10532 -3.73944e-19 0.218146 1.90394e-19 0.238278)
(0.248983 -0.103747 -1.93977e-19 0.217412 -1.21734e-18 0.233214)
(0.2269 -0.0981982 9.45776e-19 0.210936 1.00989e-19 0.218978)
(0.189823 -0.0871997 1.59604e-19 0.198097 8.15648e-19 0.194066)
(0.139592 -0.0692151 2.89829e-19 0.182171 9.01597e-19 0.161006)
(0.0923041 -0.0427963 -6.00407e-19 0.180133 2.67977e-19 0.136357)
(0.0886157 -0.00650367 4.91988e-19 0.23263 -1.19511e-18 0.160757)
(0.145256 0.0408789 2.81415e-19 0.35505 -1.41776e-19 0.250232)
(0.24348 0.100069 1.01459e-18 0.526396 3.15872e-19 0.385291)
(0.373897 0.172852 -1.48389e-18 0.732132 4.59706e-19 0.553437)
(0.533984 0.260233 -1.3923e-19 0.955574 1.10482e-19 0.743112)
(0.698935 0.34883 2.90886e-19 1.17246 4.58116e-19 0.939318)
(0.92355 0.464171 4.65502e-19 1.43485 1.36312e-20 1.17451)
(1.02297 0.511139 9.54552e-20 1.42218 -1.18686e-18 1.21355)
(0.00169813 -0.00012562 -3.32225e-22 0.00139089 -3.86519e-22 0.00154619)
(0.00164226 -0.000162468 1.34547e-21 0.00142045 1.40634e-21 0.00153142)
(0.0016092 -0.000186583 -3.15247e-22 0.00147583 -2.78472e-22 0.00154253)
(0.0015778 -0.000199507 -2.4772e-21 0.00154057 -2.61444e-21 0.00155928)
(0.00151548 -0.000195998 -2.32895e-22 0.00157696 -3.12169e-22 0.00154634)
(0.00142337 -0.000175913 2.43132e-21 0.00157474 2.60201e-21 0.00149858)
(0.00154203 -0.000187448 -7.00266e-22 0.0018303 -9.22921e-22 0.00168424)
(0.00138216 -0.000115277 -4.76122e-21 0.00164527 -4.73687e-21 0.00151269)
(0.000474451 -1.03194e-05 4.64684e-22 0.000503492 4.49274e-22 0.000489037)
(6.57445e-05 -2.60049e-07 7.69785e-25 6.64244e-05 -7.34847e-25 6.60881e-05)
(0.00134567 -0.00025092 -1.04849e-21 0.00106174 -1.73105e-21 0.00119688)
(0.0242964 -0.000817914 -8.6128e-21 0.0101023 -4.88402e-21 0.0171134)
(0.283185 -0.00941192 -1.88861e-19 0.108216 -1.24642e-19 0.195494)
(1.05813 -0.0586447 1.73306e-19 0.408431 -1.33238e-19 0.734165)
(2.11759 -0.183872 -6.41307e-19 0.839076 6.71287e-19 1.47785)
(2.58773 -0.340847 5.97937e-19 1.08321 -3.96979e-19 1.83489)
(2.15841 -0.428126 -5.02303e-19 1.01131 7.52938e-19 1.60331)
(1.39601 -0.37072 -1.08473e-19 0.764089 -1.82591e-19 1.08762)
(0.846498 -0.263128 -2.3961e-19 0.529381 -3.56373e-19 0.674218)
(0.579981 -0.195808 2.87816e-19 0.391905 -1.03429e-18 0.477365)
(0.451471 -0.160839 4.5249e-19 0.320658 3.27687e-19 0.385408)
(0.386279 -0.144705 -2.42168e-19 0.290368 -9.94111e-19 0.339692)
(0.355412 -0.137718 -2.26485e-19 0.279158 4.47476e-19 0.318099)
(0.345636 -0.136305 7.01079e-19 0.278215 -5.8348e-19 0.312228)
(0.34815 -0.138201 -4.11133e-19 0.282954 4.91823e-20 0.315519)
(0.356585 -0.141735 -5.6382e-19 0.290408 -3.68198e-19 0.323318)
(0.365369 -0.145304 1.00005e-18 0.297776 -1.41339e-18 0.331406)
(0.368664 -0.147125 -2.21584e-20 0.30191 1.06671e-18 0.335181)
(0.360926 -0.145483 -2.38076e-23 0.299803 -6.45926e-20 0.330326)
(0.337315 -0.138772 -5.98845e-19 0.288789 1.05177e-18 0.313074)
(0.293498 -0.125267 6.44507e-20 0.266427 -6.34452e-19 0.28005)
(0.226445 -0.102973 -1.23601e-20 0.231231 3.25661e-19 0.228998)
(0.140665 -0.0701296 -6.80567e-19 0.188487 -5.74131e-19 0.16481)
(0.0751799 -0.0252932 3.67069e-19 0.176715 1.70969e-18 0.126239)
(0.113769 0.0325011 -5.18144e-19 0.277483 2.80399e-19 0.195907)
(0.228558 0.10331 -4.88545e-19 0.459123 1.97813e-21 0.344325)
(0.381924 0.187118 6.91647e-19 0.677404 -1.83708e-18 0.530089)
(0.562797 0.282155 -6.92765e-20 0.908611 7.62592e-19 0.734739)
(0.746573 0.376445 -1.57398e-19 1.12552 -9.13059e-19 0.937519)
(0.94619 0.475502 -1.36868e-18 1.34899 -6.66116e-19 1.14746)
(1.06934 0.528213 -3.28099e-19 1.39981 -1.88401e-19 1.22156)
(0.00126863 -9.13201e-05 -2.94656e-22 0.00103567 -2.3958e-22 0.00115328)
(0.00123406 -0.000118031 -1.23012e-21 0.00105812 -1.10868e-21 0.00114625)
(0.0012165 -0.000136555 -6.78417e-23 0.00109878 -1.86601e-22 0.00115767)
(0.00120299 -0.00014852 -2.00318e-22 0.00114863 -1.69215e-22 0.00117586)
(0.00118581 -0.000153182 1.75774e-21 0.00119897 1.7312e-21 0.00119243)
(0.00114183 -0.000145773 9.40533e-22 0.00122113 7.6523e-22 0.00118155)
(0.00109447 -0.000132617 -1.30469e-21 0.00123658 -1.24714e-21 0.00116536)
(0.00113297 -0.000128375 -9.75031e-22 0.00135965 -3.70963e-22 0.0012453)
(0.00111274 -9.47894e-05 -6.26241e-22 0.001361 -6.3201e-22 0.00123562)
(0.000615819 -2.06103e-05 -1.07228e-21 0.000684112 -1.05723e-21 0.000649922)
(4.45057e-05 -1.00861e-07 -1.54459e-24 4.48524e-05 -1.06022e-24 4.46806e-05)
(0.000218386 -6.46297e-06 -2.13049e-23 0.000231016 -9.68885e-24 0.000224749)
(0.000191626 -1.84117e-06 7.55821e-23 0.000183023 7.37184e-23 0.00018725)
(0.0761763 -0.00381435 -2.75148e-19 0.0295056 -2.2674e-19 0.0526757)
(0.48326 -0.0278105 7.2852e-19 0.186915 6.27473e-19 0.334975)
(1.39467 -0.111662 -3.42956e-19 0.548866 -4.09877e-19 0.97246)
(2.38066 -0.264904 1.48268e-18 0.969824 9.12808e-19 1.67299)
(2.66158 -0.420533 6.34963e-19 1.16053 7.69377e-19 1.91331)
(2.15109 -0.480907 -1.83258e-18 1.06331 -2.63677e-19 1.62758)
(1.41826 -0.406077 5.94798e-19 0.819588 -1.1726e-18 1.12566)
(0.900366 -0.297176 2.83306e-19 0.595125 1.41703e-18 0.73366)
(0.653935 -0.232787 -5.81973e-20 0.468086 -7.99378e-19 0.550452)
(0.551878 -0.203902 5.76513e-19 0.40927 6.21353e-19 0.47896)
(0.507849 -0.192848 -3.43475e-19 0.388236 -6.81376e-19 0.450039)
(0.492237 -0.190724 3.9307e-19 0.386352 5.03605e-20 0.441034)
(0.493804 -0.193305 -5.54056e-19 0.393337 8.498e-19 0.444369)
(0.503515 -0.197622 1.07267e-19 0.402772 7.24338e-19 0.453317)
(0.512431 -0.200914 -1.82507e-19 0.40947 -1.87822e-18 0.460798)