/*--------------------------------*- C++ -*----------------------------------*\
| =========                 |                                                 |
| \\      /  F ield         | OpenFOAM: The Open Source CFD Toolbox           |
|  \\    /   O peration     | Version:  2312                                  |
|   \\  /    A nd           | Website:  www.openfoam.com                      |
|    \\/     M anipulation  |                                                 |
\*---------------------------------------------------------------------------*/
FoamFile
{
    version     2.0;
    format      ascii;
    arch        "LSB;label=32;scalar=64";
    class       volScalarField;
    location    "900";
    object      turbulenceProperties:L;
}
// * * * * * * * * * * * * * * * * * * * * * * * * * * * * * * * * * * * * * //

dimensions      [0 1 0 0 0 0 0];

internalField   nonuniform List<scalar> 
11040
(
0.000441968
0.000483702
0.000867472
0.00142067
0.00137051
0.00130671
0.00127979
0.00127222
0.00125367
0.00124465
0.00123265
0.00122344
0.00121283
0.00120466
0.00119652
0.00119144
0.00119015
0.00119165
0.00119457
0.00119824
0.00120302
0.00120942
0.00121622
0.00122213
0.00122859
0.00124022
0.0012582
0.00127889
0.00130283
0.00133094
0.00136453
0.00140526
0.00145883
0.00154608
0.00171049
0.00183891
0.00182273
0.00242817
0.00409346
0.00248447
0.00233369
0.00117631
0.00105442
0.00066828
0.000878499
0.00243565
0.00439505
0.00693355
0.0108965
0.0185858
0.0197723
0.011619
0.00930854
0.00796761
0.00712284
0.00649131
0.00603359
0.0057117
0.00550114
0.00536667
0.00527668
0.00522527
0.00520359
0.00522326
0.0053038
0.00547519
0.00582871
0.00643694
0.0072716
0.00840493
0.00989493
0.0116131
0.0130178
0.0142218
0.014744
0.0146128
0.014038
0.0132649
0.0127874
0.0112585
0.0114124
0.00793711
0.00149725
0.00161353
0.00129649
0.000825034
0.00155904
0.00312664
0.00533161
0.00837175
0.0106818
0.0127882
0.0155198
0.0190496
0.0252827
0.0439247
0.041284
0.0267531
0.0217662
0.0191485
0.0176834
0.0169095
0.0166554
0.0168882
0.0178373
0.0197528
0.022821
0.0272681
0.0337351
0.0448413
0.075766
0.0648752
0.0412922
0.0321477
0.0272097
0.0241266
0.0220031
0.0203848
0.0191421
0.018541
0.0168771
0.0162332
0.0175816
0.00177086
0.00190835
0.0021567
0.00173972
0.00117771
0.00208339
0.00372137
0.00593626
0.0095541
0.0123673
0.014691
0.0167503
0.0185303
0.0207052
0.0225686
0.0245553
0.0262688
0.0276574
0.0285946
0.0289358
0.0289583
0.0287878
0.0284699
0.0282718
0.0285971
0.0296163
0.0314364
0.0341928
0.0379578
0.0420158
0.043709
0.0412752
0.0371764
0.0333724
0.0303272
0.0278856
0.0259863
0.0249598
0.0231952
0.0218753
0.0287292
0.0020501
0.0021563
0.00209314
0.00294882
0.00256057
0.00152425
0.0025406
0.0041905
0.00651936
0.010046
0.0138857
0.0170843
0.0191231
0.0212981
0.0228497
0.024258
0.0253732
0.0261831
0.0267563
0.027114
0.0274316
0.0278703
0.0284928
0.0293378
0.0305821
0.0323513
0.0347633
0.0379666
0.0420957
0.0469648
0.0511576
0.0517842
0.0484015
0.0437886
0.0396771
0.0363074
0.0336589
0.0320631
0.0304121
0.0284468
0.0377846
0.00241254
0.0025184
0.00255102
0.00242999
0.00453388
0.00565776
0.00181263
0.00292879
0.00457148
0.00699639
0.0101854
0.014996
0.0189753
0.0223866
0.0245885
0.0264566
0.0279967
0.0291046
0.0299309
0.0305214
0.0310287
0.0316419
0.0325257
0.0337145
0.0353397
0.0375158
0.0403718
0.0440868
0.0488876
0.0548861
0.0612674
0.0647478
0.0622143
0.0564107
0.0507525
0.0461026
0.0424754
0.0401297
0.0385784
0.0362048
0.0457068
0.00283879
0.00290408
0.00299597
0.00290647
0.00285396
0.00761543
0.0649724
0.00198548
0.00323154
0.00488237
0.00727858
0.0104099
0.0149265
0.0204385
0.0248827
0.0283768
0.0309648
0.0328277
0.0343396
0.0354599
0.0363201
0.0370943
0.0381052
0.0394526
0.0412798
0.0437262
0.0469457
0.0511506
0.0566476
0.0638217
0.0725439
0.0799829
0.0797902
0.0725955
0.0645874
0.0580283
0.0530178
0.0496695
0.0479698
0.0454297
0.0542122
0.00332301
0.00336053
0.00338639
0.00345417
0.00332644
0.00324202
0.025148
0.527968
0.00224893
0.00342926
0.00512222
0.00740201
0.010568
0.0146035
0.0205035
0.0265503
0.0315276
0.0353589
0.0384242
0.040641
0.0423329
0.0435767
0.0448136
0.0462956
0.0482285
0.0508214
0.0542838
0.0588777
0.0649587
0.0731544
0.0841102
0.0967791
0.10285
0.095077
0.0831951
0.0734536
0.0662769
0.0614742
0.0591567
0.0566849
0.064356
0.00386643
0.00389404
0.00389031
0.00390671
0.003984
0.00376489
0.0038253
0.014093
0.0132076
0.00875454
0.00343529
0.00524771
0.00746466
0.0104911
0.0144361
0.0195829
0.0267171
0.0335077
0.0391593
0.0436519
0.047258
0.0498355
0.0519578
0.0539836
0.0562367
0.0590065
0.0626032
0.0674011
0.0738516
0.0827066
0.095248
0.113002
0.1321
0.130296
0.111336
0.095262
0.0841628
0.0769654
0.0732897
0.0708143
0.0772387
0.00448635
0.00450638
0.00449008
0.00446604
0.00448444
0.00455403
0.00431728
0.00452473
0.00925131
0.0376762
0.00585288
0.00323897
0.00523273
0.00746977
0.0102953
0.0140996
0.0188734
0.0252215
0.0336114
0.0415467
0.0481082
0.0531523
0.0571846
0.0606514
0.0640176
0.0676415
0.0718553
0.0770594
0.0837762
0.0928783
0.105953
0.126058
0.159091
0.193713
0.164864
0.131163
0.111066
0.0991033
0.092729
0.0895903
0.0945559
0.00519445
0.00520892
0.00518299
0.0051427
0.0051071
0.00512952
0.00516658
0.00501388
0.00501217
0.00730048
0.0501714
0.0133788
0.0162116
0.00484841
0.00729279
0.0100459
0.0135437
0.018148
0.0238453
0.0314607
0.0413256
0.0504385
0.0574707
0.0632182
0.0684651
0.0736342
0.0791423
0.0854648
0.0931054
0.10279
0.115799
0.134837
0.167103
0.241311
0.371409
0.210002
0.158351
0.13441
0.122279
0.116809
0.119553
0.00600822
0.00601731
0.0059885
0.0059323
0.0058748
0.0058304
0.00583867
0.00587013
0.00578591
0.00566911
0.00662601
0.0821529
0.115098
0.00685688
0.00435349
0.00684464
0.00966102
0.0129512
0.0171481
0.0226045
0.0293575
0.0379012
0.0481403
0.0581789
0.0667431
0.0740571
0.081109
0.0887031
0.0973211
0.107531
0.120218
0.136999
0.161126
0.200639
0.279833
0.350847
0.245263
0.193615
0.169771
0.159466
0.159079
0.00694751
0.0069506
0.00692079
0.00685442
0.00677416
0.00670039
0.00664349
0.0066288
0.00665356
0.00662193
0.00645091
0.0069067
0.0180913
0.0998127
0.0238478
0.0083246
0.00582806
0.00897202
0.0122432
0.0161086
0.0210384
0.0271981
0.0342345
0.042362
0.0522434
0.0633531
0.0743868
0.0846279
0.0943603
0.104526
0.116085
0.129904
0.146923
0.16819
0.194025
0.220325
0.233525
0.226762
0.213416
0.206011
0.209983
0.00803693
0.00803255
0.00800289
0.00792875
0.00782831
0.00772539
0.00763296
0.00755735
0.00751643
0.00752383
0.00752484
0.0073555
0.00745167
0.0102903
0.234348
0.400073
0.0120621
0.0101431
0.00769281
0.0112039
0.0149881
0.0192476
0.0242477
0.0303074
0.0373015
0.0450389
0.0539555
0.0646231
0.0768883
0.0900155
0.103269
0.116349
0.129421
0.142781
0.15624
0.168961
0.179533
0.186994
0.191373
0.194914
0.204984
0.00930743
0.00929343
0.00926405
0.00918241
0.00906302
0.00893163
0.00880336
0.00868677
0.00858736
0.00851623
0.00849811
0.00849338
0.00837441
0.0083307
0.00887088
0.0204536
0.103582
2.19525
0.00876699
0.0123978
0.00948795
0.0132955
0.0170634
0.0212025
0.02595
0.0315812
0.0382441
0.0458111
0.0540796
0.0632109
0.073648
0.085638
0.0989159
0.112715
0.125906
0.137351
0.146324
0.153109
0.158343
0.162492
0.169969
0.0107967
0.0107716
0.0107423
0.0106529
0.0105139
0.0103542
0.0101906
0.0100316
0.00988459
0.00975628
0.00965331
0.00959753
0.0095629
0.00952157
0.00933101
0.00958424
0.010989
0.0721335
0.219252
6.38987
0.00843392
0.0136357
0.00967878
0.0138429
0.0176832
0.021687
0.0260893
0.0311188
0.0369691
0.0437513
0.0514023
0.0596847
0.0683629
0.0773941
0.0868071
0.0965356
0.106294
0.115754
0.124363
0.131294
0.138639
0.0125342
0.0124975
0.0124671
0.0123683
0.0122082
0.0120196
0.0118205
0.0116201
0.0114261
0.0112461
0.0110858
0.0109503
0.0108468
0.0107873
0.0107163
0.0106076
0.0104512
0.0110551
0.0148122
0.198826
0.336257
8.339
0.0165317
0.00933754
0.0165441
0.0112719
0.016071
0.0200814
0.0242389
0.0287274
0.0336936
0.0392428
0.0453996
0.0521423
0.059345
0.0668056
0.0742575
0.0815809
0.0885837
0.0948845
0.101452
0.0144813
0.0144313
0.0143959
0.0142825
0.0140968
0.0138754
0.0136382
0.0133948
0.0131542
0.0129242
0.0127114
0.0125196
0.0123512
0.0122103
0.0121085
0.0120233
0.0119266
0.0117264
0.011691
0.0125248
0.018184
0.252259
0.36503
2.87567
0
0.0184108
0.00906327
0.0161019
0.0102031
0.0138151
0.0188015
0.0233706
0.0279255
0.0327174
0.0377656
0.0430814
0.0485975
0.0543238
0.060168
0.0658514
0.0718921
0.0165763
0.0165103
0.0164671
0.0163354
0.0161208
0.0158636
0.0155851
0.015295
0.0150034
0.0147201
0.0144523
0.014205
0.0139814
0.0137819
0.0136101
0.0134661
0.0133615
0.0132442
0.0130965
0.0129133
0.0129658
0.0140869
0.0178606
0.083933
0.26276
0.814573
5.42405
0
0.161906
0.0163113
0.00953212
0.0158268
0.10455
0.0128577
0.0165747
0.0222771
0.0272428
0.0320541
0.0368296
0.0414797
0.0464206
0.0188023
0.0187208
0.0186686
0.0185171
0.0182724
0.0179785
0.017658
0.0173216
0.0169798
0.0166435
0.0163205
0.0160159
0.0157341
0.0154777
0.0152481
0.0150447
0.0148699
0.0147245
0.0146024
0.0144578
0.0142746
0.0141328
0.0141558
0.014953
0.0173033
0.0239232
0.143372
0.356667
0.903605
1.4878
14.8769
0
2.75704
0.0901879
0.0175649
0.0101031
0.0148481
0.0289134
0.0493348
0.0130524
0.0189146
0.021184
0.0210874
0.0210248
0.0208517
0.0205749
0.0202422
0.0198777
0.0194932
0.0191006
0.0187113
0.0183341
0.0179742
0.0176359
0.0173227
0.0170364
0.0167781
0.0165471
0.0163434
0.0161679
0.0160175
0.0158811
0.0157148
0.0155414
0.0153331
0.015338
0.0155422
0.0164531
0.018752
0.0238955
0.0363979
0.349326
0.536899
1.05235
1.45796
2.36419
11.4592
0
0
0
0.370819
0.0244253
0.023739
0.0236275
0.0235522
0.023355
0.0230439
0.0226701
0.0222591
0.0218244
0.0213789
0.0209354
0.0205035
0.0200887
0.0196955
0.0193278
0.0189875
0.018676
0.0183935
0.0181395
0.0179128
0.0177116
0.0175414
0.0173925
0.0172557
0.0170948
0.0169132
0.0167512
0.0165794
0.0165631
0.0167596
0.017135
0.0181396
0.020202
0.0240237
0.0312027
0.0475106
0.219807
0.541559
1.21628
1.50282
1.94922
2.77389
0.0264886
0.026362
0.0262718
0.0260479
0.0257001
0.0252826
0.0248225
0.0243349
0.0238346
0.0233353
0.0228474
0.0223771
0.0219291
0.0215075
0.0211149
0.0207525
0.0204207
0.0201196
0.0198485
0.0196045
0.0193918
0.0192094
0.0190511
0.0189171
0.018791
0.0186677
0.018524
0.0183643
0.0182129
0.0180988
0.0179819
0.0179811
0.0181098
0.01839
0.018822
0.0196582
0.0210864
0.023435
0.0271293
0.0331884
0.0444019
0.0294539
0.029312
0.0292037
0.0289503
0.0285632
0.0280988
0.0275864
0.0270432
0.0264855
0.0259282
0.0253827
0.0248559
0.0243528
0.0238779
0.0234341
0.0230227
0.0226443
0.0222989
0.0219864
0.021704
0.0214566
0.0212427
0.0210551
0.0208973
0.0207656
0.0206543
0.0205592
0.0204721
0.020384
0.020297
0.0202001
0.0200982
0.0200048
0.0199291
0.019882
0.0198378
0.0198473
0.0199301
0.0200921
0.0203602
0.0206733
0.032658
0.0325002
0.0323707
0.0320846
0.031655
0.0311404
0.0305724
0.0299702
0.0293522
0.0287346
0.0281297
0.0275452
0.0269863
0.026458
0.0259634
0.0255041
0.0250809
0.0246939
0.0243431
0.0240258
0.0237481
0.0235082
0.0232981
0.0231213
0.0229745
0.0228532
0.0227551
0.0226786
0.0226208
0.0225787
0.0225502
0.0225308
0.0225173
0.0225064
0.0224991
0.0224923
0.0224874
0.022486
0.0224886
0.0225118
0.0225243
0.0361259
0.0359514
0.0357966
0.0354741
0.0349983
0.0344296
0.0338019
0.0331372
0.0324557
0.031775
0.0311085
0.0304645
0.029849
0.029267
0.0287221
0.0282161
0.0277497
0.0273233
0.0269371
0.0265884
0.0262842
0.0260224
0.0257939
0.0256032
0.0254469
0.02532
0.0252195
0.0251436
0.0250904
0.0250584
0.025046
0.0250521
0.0250755
0.0251142
0.0251659
0.0252304
0.0253066
0.0253917
0.0254802
0.0255798
0.0256708
0.0398849
0.0396923
0.0395075
0.0391439
0.0386176
0.0379901
0.0372983
0.0365669
0.0358183
0.0350716
0.0343411
0.033636
0.0329626
0.0323266
0.0317316
0.0311795
0.0306714
0.0302078
0.0297888
0.0294116
0.0290846
0.0288049
0.0285616
0.0283606
0.0281984
0.0280697
0.0279711
0.0279004
0.0278555
0.0278343
0.0278349
0.0278558
0.027896
0.0279538
0.0280275
0.0281169
0.0282219
0.028341
0.0284687
0.0286157
0.028749
0.0439653
0.0437524
0.0435316
0.0431214
0.0425389
0.0418471
0.0410858
0.040283
0.0394632
0.0386471
0.0378499
0.0370817
0.0363493
0.0356587
0.0350138
0.0344166
0.0338682
0.0333692
0.03292
0.0325175
0.0321713
0.0318773
0.0316231
0.0314153
0.0312508
0.0311236
0.0310301
0.0309678
0.0309343
0.0309273
0.0309446
0.0309843
0.0310451
0.0311248
0.0312216
0.0313348
0.0314642
0.0316085
0.0317608
0.0319347
0.0320895
0.0484002
0.0481639
0.0478996
0.0474354
0.04679
0.0460271
0.04519
0.0443103
0.0434148
0.0425254
0.0416587
0.0408253
0.0400325
0.0392867
0.038592
0.0379505
0.0373632
0.0368309
0.0363539
0.0359292
0.0355672
0.0352628
0.0350012
0.0347904
0.0346271
0.0345049
0.0344197
0.0343689
0.0343497
0.0343597
0.0343963
0.0344574
0.0345415
0.0346463
0.0347694
0.0349102
0.0350684
0.0352426
0.0354248
0.0356301
0.0358147
0.053227
0.0529624
0.0526448
0.0521174
0.0514004
0.050558
0.0496377
0.0486747
0.0476981
0.0467313
0.0457918
0.0448908
0.0440362
0.0432345
0.0424902
0.0418053
0.0411806
0.0406169
0.0401148
0.0396708
0.0392965
0.0389854
0.03872
0.0385096
0.0383512
0.0382374
0.0381639
0.0381276
0.0381257
0.0381554
0.0382141
0.038299
0.0384087
0.0385405
0.038692
0.0388623
0.039051
0.0392568
0.0394705
0.0397089
0.039925
0.0584872
0.0581868
0.0578032
0.057201
0.0564015
0.0554697
0.0544571
0.0534031
0.0523392
0.05129
0.050274
0.049303
0.0483849
0.0475266
0.0467329
0.0460055
0.045345
0.0447522
0.0442276
0.0437674
0.0433843
0.0430703
0.0428047
0.0425986
0.0424486
0.0423468
0.0422883
0.0422699
0.0422884
0.0423409
0.0424242
0.0425355
0.0426733
0.0428346
0.0430165
0.0432182
0.0434392
0.0436782
0.0439246
0.0441973
0.0444461
0.0642272
0.0638803
0.0634144
0.0627224
0.0618268
0.060793
0.0596773
0.0585234
0.0573647
0.0562273
0.0551304
0.0540865
0.0531032
0.0521876
0.0513445
0.0505756
0.0498809
0.0492612
0.0487168
0.0482434
0.047855
0.0475417
0.0472794
0.0470808
0.0469426
0.046856
0.0468156
0.0468178
0.0468595
0.0469371
0.0470474
0.0471874
0.0473552
0.0475477
0.0477619
0.0479966
0.0482514
0.0485251
0.0488056
0.0491138
0.0493973
0.0704991
0.0700902
0.0695212
0.0687205
0.0677119
0.0665608
0.0653287
0.0640636
0.0628013
0.0615688
0.0603858
0.0592654
0.058215
0.0572411
0.0563488
0.0555394
0.0548124
0.0541681
0.0536068
0.0531238
0.0527338
0.0524253
0.0521702
0.0519831
0.0518606
0.0517931
0.0517744
0.0518007
0.0518686
0.0519744
0.0521145
0.0522855
0.0524856
0.0527114
0.0529594
0.0532286
0.0535184
0.0538281
0.0541433
0.054488
0.0548071
0.0773612
0.0768687
0.0761702
0.0752371
0.0740942
0.0728067
0.0714419
0.0700522
0.0686755
0.0673394
0.0660642
0.0648628
0.0637427
0.0627093
0.0617675
0.0609185
0.0601608
0.0594941
0.0589183
0.0584283
0.0580393
0.0577383
0.0574929
0.0573196
0.057215
0.0571684
0.0571731
0.057225
0.0573206
0.0574556
0.0576265
0.0578294
0.0580625
0.0583221
0.0586045
0.0589086
0.0592338
0.0595796
0.0599296
0.0603106
0.0606684
0.0848788
0.0842737
0.0834122
0.0823168
0.081013
0.0795657
0.0780481
0.0765171
0.0750126
0.0735626
0.0721875
0.0708999
0.0697068
0.0686124
0.0676208
0.0667331
0.0659468
0.0652606
0.064674
0.0641813
0.0637979
0.0635095
0.0632789
0.0631247
0.0630431
0.0630224
0.063055
0.0631368
0.0632637
0.0634315
0.0636359
0.0638732
0.0641411
0.064436
0.0647537
0.0650933
0.0654537
0.0658356
0.0662192
0.0666367
0.0670292
0.0931253
0.0923683
0.0913021
0.0900072
0.0885093
0.0868729
0.0851776
0.083485
0.0818364
0.08026
0.0787757
0.0773952
0.0761245
0.0749665
0.0739238
0.0729968
0.072182
0.0714765
0.0708792
0.0703834
0.0700048
0.0697277
0.06951
0.0693726
0.0693115
0.0693139
0.0693717
0.0694804
0.0696358
0.0698332
0.0700684
0.0703373
0.0706373
0.0709649
0.0713155
0.0716881
0.0720816
0.0724973
0.0729129
0.0733627
0.0737997
0.102182
0.101221
0.0998984
0.0983574
0.0966242
0.0947629
0.0928598
0.0909811
0.0891689
0.0874511
0.0858463
0.0843651
0.0830118
0.0817877
0.0806936
0.0797292
0.0788894
0.0781701
0.0775688
0.0770785
0.0767143
0.0764588
0.0762645
0.0761544
0.0761242
0.0761595
0.0762513
0.0763949
0.0765856
0.0768186
0.0770892
0.0773931
0.0777276
0.0780891
0.0784729
0.078878
0.0793027
0.0797502
0.080193
0.0806774
0.0811357
0.112138
0.110906
0.109262
0.107416
0.105397
0.103268
0.101122
0.0990284
0.0970303
0.0951537
0.0934154
0.0918235
0.0903799
0.0890829
0.0879309
0.086922
0.0860494
0.0853067
0.0846901
0.0841914
0.0838251
0.0835743
0.0833859
0.0832854
0.0832684
0.0833195
0.083429
0.0835918
0.0838034
0.0840584
0.084352
0.0846795
0.0850382
0.0854242
0.0858324
0.0862617
0.0867104
0.0871826
0.0876488
0.0881501
0.088673
0.123088
0.1215
0.119455
0.117232
0.114864
0.112416
0.109987
0.107649
0.105441
0.103387
0.101501
0.0997879
0.0982486
0.0968789
0.0956744
0.0946314
0.0937417
0.0929966
0.0923899
0.0919124
0.0915764
0.0913625
0.0912116
0.0911514
0.0911765
0.0912697
0.0914205
0.0916232
0.0918731
0.0921644
0.0924922
0.0928518
0.0932402
0.0936537
0.0940874
0.0945407
0.0950105
0.0955044
0.0959827
0.096522
0.0970081
0.135138
0.133085
0.130542
0.127855
0.125066
0.122242
0.119486
0.116869
0.114426
0.112174
0.110123
0.108273
0.106619
0.105152
0.103864
0.102747
0.101793
0.10099
0.100333
0.0998102
0.0994342
0.09919
0.0990119
0.0989302
0.0989392
0.0990207
0.0991632
0.099361
0.0996088
0.0999006
0.100231
0.100594
0.100987
0.101406
0.101845
0.102302
0.102777
0.103274
0.103761
0.104269
0.104905
0.148403
0.145738
0.142569
0.139318
0.136036
0.132786
0.129662
0.126732
0.124025
0.121554
0.119322
0.117326
0.115561
0.114022
0.1127
0.111584
0.110656
0.109898
0.109296
0.10884
0.108535
0.108361
0.108248
0.108229
0.108297
0.108433
0.108625
0.108866
0.109151
0.109475
0.109832
0.110218
0.110628
0.111061
0.111511
0.111979
0.112458
0.112965
0.113437
0.114029
0.114419
0.162957
0.159485
0.155527
0.151594
0.147757
0.144056
0.140555
0.137296
0.134299
0.131574
0.129127
0.126946
0.125006
0.123276
0.121735
0.120389
0.119242
0.118285
0.117507
0.116891
0.11644
0.116149
0.115933
0.115827
0.115822
0.115895
0.116033
0.116229
0.116476
0.116767
0.117095
0.117454
0.11784
0.118248
0.118671
0.119108
0.119556
0.120021
0.120482
0.120887
0.121755
0.17872
0.174273
0.169403
0.164691
0.160235
0.156052
0.152174
0.148609
0.145341
0.142357
0.139665
0.137289
0.135259
0.133592
0.132256
0.13117
0.130262
0.129506
0.128894
0.128426
0.128106
0.127909
0.127768
0.127722
0.127763
0.127871
0.128032
0.128241
0.128491
0.128778
0.129097
0.129443
0.129812
0.130204
0.130613
0.131044
0.131482
0.131964
0.132369
0.133083
0.133016
0.195597
0.190086
0.18434
0.178921
0.173878
0.169167
0.164813
0.160849
0.157278
0.154068
0.151147
0.148427
0.145834
0.143338
0.140999
0.138976
0.137348
0.136056
0.135034
0.134228
0.133629
0.133236
0.132944
0.132781
0.132731
0.132767
0.132873
0.133039
0.133257
0.133515
0.133805
0.134118
0.134448
0.13479
0.135135
0.135475
0.135819
0.136148
0.136517
0.136556
0.138032
0.214067
0.207098
0.200398
0.194459
0.189125
0.184136
0.179382
0.174865
0.170657
0.166891
0.163714
0.161236
0.159473
0.158342
0.157594
0.156786
0.155743
0.154644
0.153616
0.152726
0.151983
0.151355
0.15081
0.150385
0.150073
0.149852
0.149706
0.149628
0.149612
0.149653
0.149745
0.149884
0.150066
0.150292
0.150557
0.150871
0.151203
0.15164
0.151906
0.153035
0.151627
0.234484
0.224694
0.216095
0.209242
0.20378
0.199145
0.194942
0.190885
0.186747
0.182366
0.177672
0.172708
0.167653
0.162746
0.158347
0.155048
0.15287
0.151288
0.150083
0.149154
0.148498
0.148088
0.147816
0.147693
0.147692
0.147782
0.147944
0.148161
0.148419
0.148702
0.148997
0.14929
0.149573
0.149835
0.150064
0.150242
0.150396
0.150446
0.150653
0.149846
0.152761
0.253569
0.241538
0.231239
0.222838
0.21609
0.210679
0.206458
0.203329
0.201149
0.199727
0.198843
0.198279
0.197825
0.197438
0.19694
0.195204
0.192277
0.189183
0.186225
0.18356
0.181193
0.179093
0.177214
0.175557
0.174117
0.17287
0.171795
0.17088
0.170118
0.169501
0.169026
0.168691
0.168494
0.168439
0.168525
0.168771
0.169129
0.169769
0.170168
0.172497
0.169274
0.24346
0.229684
0.22322
0.222074
0.223654
0.224817
0.22272
0.216454
0.207427
0.19777
0.188953
0.181588
0.175776
0.171304
0.16803
0.166477
0.166352
0.166873
0.167692
0.168673
0.169887
0.171008
0.172258
0.173567
0.174894
0.17623
0.17757
0.178905
0.180231
0.181546
0.182853
0.184154
0.185464
0.186797
0.188154
0.189517
0.190998
0.192414
0.19446
0.194268
0.203281
0.00514183
0.00941555
0.0141089
0.0187881
0.0235684
0.0286028
0.0341544
0.0411373
0.0521716
0.0551152
0.0210782
0.010333
0.165399
0.023059
0.0127444
0.0140992
0.0154855
0.0164406
0.0175694
0.0188453
0.0202399
0.0217523
0.0234181
0.0252462
0.0272558
0.0294684
0.031915
0.034623
0.0376328
0.0409914
0.0447324
0.0489297
0.05362
0.0588937
0.0648409
0.0715552
0.0792004
0.087945
0.0980463
0.109788
0.123625
0.14014
0.160148
0.184767
0.215486
0.253925
0.299313
0.342132
0.363227
0.358807
0.34301
0.329107
0.318324
0.311334
0.307497
0.305254
0.305644
0.30689
0.309751
0.313046
0.317522
0.321943
0.327118
0.332503
0.337713
0.343518
0.348237
0.354642
0.357301
0.367341
0.361129
0.382184
0.347871
0.370484
0.00898609
0.0123718
0.0166713
0.0209791
0.0252386
0.0295833
0.0341647
0.0393504
0.0460427
0.0564754
0.0573407
0.0213708
0.0109362
0.159209
0.0304565
0.0135027
0.0147631
0.0164866
0.0175985
0.018779
0.0201752
0.0216962
0.0233563
0.0251789
0.0271844
0.0293912
0.0318305
0.0345317
0.0375331
0.040884
0.0446166
0.0488037
0.0534854
0.0587423
0.0646708
0.0713579
0.0789616
0.0876491
0.0976688
0.109292
0.122946
0.139189
0.158779
0.182706
0.212309
0.249052
0.292096
0.333882
0.358016
0.358269
0.345103
0.332281
0.321791
0.314816
0.310947
0.308542
0.308804
0.309906
0.312666
0.315796
0.320158
0.324442
0.329427
0.334714
0.339727
0.345399
0.349908
0.356272
0.358511
0.368978
0.361545
0.384597
0.347517
0.371339
0.0151392
0.0170466
0.0203734
0.0240118
0.0277083
0.0314658
0.0353613
0.0395739
0.044492
0.0509367
0.0606188
0.0600234
0.0226921
0.0122306
0.225131
0.0692511
0.0148874
0.0154985
0.0175025
0.0188526
0.0201136
0.0216147
0.0232895
0.0251075
0.0271022
0.0293022
0.0317345
0.0344278
0.0374183
0.0407561
0.0444818
0.0486529
0.0533269
0.0585651
0.0644665
0.071124
0.0786768
0.0872971
0.0972178
0.108704
0.122143
0.138071
0.157173
0.180313
0.208689
0.243475
0.283778
0.324337
0.350939
0.355661
0.346441
0.335087
0.325253
0.318368
0.314332
0.312207
0.312102
0.313182
0.315682
0.318754
0.322828
0.32714
0.33184
0.336952
0.341814
0.347277
0.351609
0.357877
0.359696
0.37053
0.361967
0.386792
0.347384
0.372049
0.0231997
0.0234888
0.0254867
0.0281394
0.0310965
0.0342162
0.0374749
0.0409446
0.0448099
0.0494224
0.0554588
0.0639584
0.0634294
0.02587
0.014837
0.597462
0.0838432
0.0170971
0.0162826
0.0184808
0.0202177
0.0215702
0.0231591
0.025
0.0270062
0.029191
0.0316069
0.0342915
0.0372737
0.040599
0.0443139
0.0484701
0.0531324
0.0583534
0.0642284
0.0708539
0.0783564
0.0869072
0.0967264
0.108072
0.121298
0.136911
0.15553
0.177919
0.205129
0.238091
0.276015
0.314946
0.343067
0.351879
0.346593
0.337106
0.32816
0.321544
0.317478
0.315523
0.315171
0.316205
0.318477
0.321475
0.325301
0.329573
0.334039
0.338965
0.343679
0.348948
0.353104
0.359299
0.36071
0.371928
0.362283
0.38891
0.347178
0.37273
0.0325805
0.031933
0.0323009
0.0336564
0.0356516
0.0380054
0.040582
0.0433642
0.0464242
0.0499256
0.0541603
0.0596007
0.066737
0.0673477
0.0323122
0.0189974
0.0465126
0.103642
0.022347
0.017346
0.0194085
0.0216792
0.0232382
0.0248448
0.0268191
0.0290531
0.0314783
0.0341406
0.0371034
0.0404177
0.0441234
0.0482669
0.0529138
0.0581177
0.0639692
0.0705621
0.078016
0.0864974
0.0962144
0.107418
0.120436
0.135742
0.153897
0.175582
0.201704
0.233037
0.268921
0.306092
0.335041
0.347454
0.345799
0.338448
0.330562
0.324372
0.320444
0.318498
0.318034
0.318984
0.321087
0.323975
0.327616
0.331767
0.336045
0.340801
0.345357
0.350459
0.354434
0.360583
0.361607
0.373223
0.362541
0.391006
0.346926
0.373409
0.0441086
0.0426667
0.0411241
0.040881
0.0416681
0.0430773
0.0448627
0.046922
0.0492449
0.0518919
0.0549969
0.0587716
0.0634987
0.0692726
0.0711972
0.0420917
0.0115562
0.0124298
0.156086
0.0450096
0.0191309
0.0198501
0.0228696
0.0251809
0.0268695
0.0288324
0.0312432
0.0339647
0.0369384
0.0402265
0.0439087
0.0480412
0.0526788
0.0578686
0.0636969
0.0702565
0.077663
0.0860772
0.0956944
0.106755
0.11957
0.134577
0.152285
0.173303
0.198412
0.228264
0.26228
0.297782
0.327062
0.34244
0.34418
0.33914
0.332494
0.326872
0.323186
0.321263
0.320752
0.321624
0.323589
0.326359
0.329845
0.333847
0.337962
0.342568
0.346964
0.351924
0.355707
0.36183
0.362492
0.374508
0.362841
0.393117
0.346752
0.374093
0.0578522
0.0559666
0.0522837
0.0501691
0.049484
0.0497331
0.0505688
0.0518066
0.0533648
0.0552312
0.0574509
0.0601207
0.063376
0.0673445
0.0719269
0.0742435
0.0560866
0.0227107
0.0144457
0.415565
0.111805
0.026175
0.0208952
0.0231168
0.0266327
0.0292093
0.0312632
0.0336905
0.0366476
0.0400038
0.0437026
0.0478051
0.0524119
0.0575877
0.0634052
0.0699408
0.0773021
0.0856469
0.0951645
0.106084
0.118703
0.13342
0.150696
0.171075
0.195236
0.223713
0.255981
0.289881
0.319095
0.336738
0.341647
0.339022
0.333822
0.328926
0.325578
0.323784
0.323276
0.324104
0.325958
0.328627
0.331973
0.33584
0.339808
0.344281
0.348529
0.353368
0.356962
0.363073
0.363405
0.375813
0.363226
0.39525
0.346699
0.374801
0.072395
0.0720382
0.0661587
0.0619246
0.0594879
0.0583319
0.0580192
0.0582871
0.0589878
0.0600483
0.0614511
0.0632231
0.0654257
0.0681306
0.0713702
0.0749088
0.0772714
0.0696835
0.0290249
0.0254596
0.0215814
0.200237
0.117581
0.0265796
0.0241257
0.0271407
0.0310739
0.0340772
0.0366374
0.0396518
0.0433232
0.0475217
0.0521715
0.057318
0.0630855
0.0695849
0.0769163
0.0852101
0.0946344
0.105411
0.117829
0.132263
0.149128
0.1689
0.192168
0.219354
0.249996
0.28231
0.311145
0.330411
0.33817
0.337981
0.334423
0.33042
0.327537
0.325971
0.325534
0.326368
0.328142
0.330741
0.333965
0.337723
0.341563
0.345916
0.350036
0.354768
0.358199
0.364306
0.364341
0.377128
0.363704
0.397397
0.346762
0.375561
0.0879442
0.0910241
0.0832789
0.0766499
0.0721494
0.0693055
0.0676065
0.0667119
0.0664096
0.0665714
0.0671276
0.0680533
0.0693581
0.0710727
0.0732253
0.075778
0.0785185
0.0805617
0.0770697
0.053463
0.020848
0.0197215
1.20216
0.186076
0.0653572
0.0290943
0.0281721
0.0318656
0.0364561
0.0401473
0.043347
0.0470587
0.0516189
0.0569073
0.0627886
0.0692801
0.0765293
0.0847292
0.0940635
0.104728
0.116968
0.131123
0.147574
0.166759
0.189184
0.215169
0.244304
0.275063
0.30327
0.323639
0.333849
0.336042
0.334253
0.331312
0.329033
0.327787
0.327494
0.328389
0.330128
0.332686
0.335815
0.339487
0.343223
0.347471
0.351485
0.356124
0.359419
0.365529
0.365305
0.378446
0.36428
0.399549
0.346942
0.376401
0.10658
0.113707
0.104664
0.0951831
0.0881373
0.083228
0.0798358
0.0775294
0.0760248
0.0751368
0.0747462
0.0747836
0.0752166
0.0760383
0.0772546
0.0788608
0.0807981
0.0829173
0.084536
0.0833674
0.0751435
0.0403123
0.0415991
0.0217894
0.681874
0.19535
0.0588201
0.0331473
0.0328438
0.0372349
0.0429964
0.0479219
0.0520214
0.0565258
0.0620818
0.0686806
0.0761301
0.0843754
0.0935764
0.104026
0.116042
0.129947
0.146049
0.164694
0.1863
0.21113
0.238842
0.268116
0.295547
0.316581
0.328829
0.333271
0.333337
0.331593
0.330064
0.32922
0.329169
0.330166
0.331933
0.334472
0.337546
0.34115
0.344807
0.348967
0.352894
0.357458
0.360639
0.366756
0.366315
0.379774
0.364974
0.401704
0.347248
0.37735
0.132576
0.14381
0.133167
0.119486
0.108793
0.101077
0.0954752
0.0913808
0.0883836
0.0862192
0.0847099
0.0837404
0.0832387
0.0831612
0.0834834
0.0841919
0.0852655
0.086662
0.0882283
0.0894508
0.0895418
0.0855824
0.07297
0.0280317
0.0439801
0.125998
0.632225
0.226956
0.0742363
0.0398453
0.0381215
0.042996
0.0502465
0.0572709
0.063003
0.0685968
0.0752765
0.083409
0.0928605
0.103473
0.115344
0.128846
0.144439
0.162527
0.183433
0.207261
0.233636
0.261433
0.287943
0.309306
0.323204
0.329722
0.331657
0.331239
0.330591
0.330261
0.33054
0.331702
0.333556
0.336113
0.339166
0.342728
0.346332
0.350427
0.354284
0.358792
0.361881
0.368006
0.367393
0.381126
0.365806
0.403861
0.347696
0.378446
0.175637
0.19654
0.179932
0.15574
0.13773
0.125172
0.116129
0.109438
0.104401
0.10057
0.0976476
0.0954503
0.0938573
0.0927819
0.0921619
0.091958
0.0921466
0.0927052
0.0935889
0.0946466
0.0956317
0.0960162
0.0947579
0.0887627
0.0739495
0.0193307
0.0524454
0.0562263
0.861909
0.316718
0.216227
0.0554039
0.0463843
0.0505684
0.0589078
0.0685836
0.0770167
0.0842876
0.0922248
0.10204
0.113962
0.127763
0.143302
0.160775
0.180658
0.203291
0.228427
0.254964
0.280525
0.301897
0.317011
0.32544
0.329206
0.330236
0.330563
0.330888
0.331581
0.332995
0.334986
0.337614
0.34068
0.344233
0.347812
0.351862
0.355674
0.36014
0.363162
0.369293
0.368558
0.382509
0.366798
0.406021
0.348294
0.379735
0.237136
0.3275
0.329525
0.234116
0.188251
0.162754
0.146256
0.134668
0.126154
0.119713
0.114745
0.110869
0.107854
0.10554
0.103809
0.102579
0.101805
0.101453
0.101492
0.101864
0.102467
0.103148
0.103595
0.103277
0.101141
0.0942519
0.0799194
0.0264429
0.0697257
0.0364072
2.88489
0.590079
0.305224
0.116505
0.0618503
0.0601757
0.068977
0.0814729
0.093938
0.104242
0.114007
0.125666
0.1404
0.158124
0.178215
0.200166
0.223758
0.248572
0.273026
0.294348
0.310396
0.320453
0.325958
0.328536
0.329959
0.331069
0.332271
0.334022
0.336218
0.338974
0.342096
0.345674
0.34926
0.353287
0.357078
0.361517
0.3645
0.370631
0.369824
0.38393
0.367963
0.408184
0.349051
0.381266
0.215109
0.243816
0.303448
0.40874
0.322189
0.242747
0.201396
0.176528
0.159843
0.147876
0.13899
0.132221
0.126955
0.122803
0.119517
0.116936
0.114965
0.113532
0.112579
0.112048
0.111881
0.112008
0.112311
0.112631
0.112662
0.111891
0.109394
0.102786
0.0909965
0.0538441
0.095586
0.0712714
6.61183
1.61399
0.526758
0.356773
0.0944628
0.0743673
0.0820431
0.0972887
0.114847
0.130217
0.143091
0.156598
0.173619
0.194772
0.218624
0.243026
0.266227
0.286748
0.303324
0.314879
0.322031
0.326119
0.328723
0.330755
0.332594
0.334781
0.337247
0.340194
0.343418
0.347065
0.350688
0.35472
0.35851
0.36294
0.36591
0.372035
0.371211
0.385395
0.369319
0.410358
0.349973
0.383107
0.173415
0.180984
0.190604
0.206613
0.22927
0.255826
0.268705
0.251264
0.222545
0.19803
0.179795
0.166365
0.156165
0.148282
0.142105
0.137223
0.133367
0.130349
0.128023
0.126274
0.125024
0.124209
0.12376
0.123592
0.123581
0.123572
0.123276
0.122265