/*--------------------------------*- C++ -*----------------------------------*\
| =========                 |                                                 |
| \\      /  F ield         | OpenFOAM: The Open Source CFD Toolbox           |
|  \\    /   O peration     | Version:  2312                                  |
|   \\  /    A nd           | Website:  www.openfoam.com                      |
|    \\/     M anipulation  |                                                 |
\*---------------------------------------------------------------------------*/
FoamFile
{
    version     2.0;
    format      ascii;
    arch        "LSB;label=32;scalar=64";
    class       volVectorField;
    location    "900";
    object      U;
}
// * * * * * * * * * * * * * * * * * * * * * * * * * * * * * * * * * * * * * //

dimensions      [0 1 -1 0 0 0 0];

internalField   nonuniform List<vector> 
11040
(
(-0.581229 8.74559 -3.4447e-19)
(0.792095 5.80428 -2.08529e-18)
(-0.0204018 -0.108881 -2.28156e-17)
(-1.36963 -1.16292 -1.16945e-17)
(-1.40377 -0.700549 -4.29711e-18)
(-1.38176 -0.603532 -1.69084e-17)
(-1.36485 -0.512518 3.07156e-17)
(-1.31951 -0.42678 2.23321e-17)
(-1.28202 -0.356817 4.4016e-18)
(-1.25346 -0.300638 1.22595e-18)
(-1.2278 -0.255268 -2.09264e-17)
(-1.20287 -0.213824 3.04978e-18)
(-1.18374 -0.177466 8.53216e-18)
(-1.16797 -0.145251 7.16864e-18)
(-1.15617 -0.1149 -6.85342e-18)
(-1.15046 -0.0873776 1.18586e-17)
(-1.14963 -0.0610329 5.53259e-18)
(-1.15626 -0.035759 -1.41751e-17)
(-1.17118 -0.0110086 -4.28045e-19)
(-1.19445 0.0137747 2.31289e-18)
(-1.22637 0.0388015 -2.59725e-18)
(-1.26491 0.0622392 -8.96431e-18)
(-1.31238 0.0831062 9.12243e-18)
(-1.37144 0.103362 -9.32681e-18)
(-1.44078 0.123784 9.60215e-18)
(-1.51686 0.144276 1.71089e-17)
(-1.59409 0.164522 7.24192e-18)
(-1.66509 0.183666 6.77306e-18)
(-1.72278 0.200628 7.09277e-18)
(-1.75848 0.214005 9.41235e-18)
(-1.76174 0.222324 -1.66906e-17)
(-1.72253 0.224619 -1.28032e-17)
(-1.64529 0.220799 -3.91547e-17)
(-1.52369 0.208406 -2.29053e-17)
(-1.35372 0.184398 2.51176e-18)
(-1.1306 0.147084 -3.6422e-17)
(-0.843463 0.0961946 9.90785e-19)
(-0.493101 0.0301745 -2.72054e-17)
(-0.1257 -0.0417766 4.29756e-17)
(0.615296 -0.141864 3.5019e-17)
(0.0712172 -0.5198 -6.14087e-18)
(1.43906 7.91299 2.07398e-19)
(3.02813 8.44215 -2.37402e-19)
(2.65835 5.23492 7.10766e-18)
(0.753312 1.24459 1.15933e-18)
(-1.0278 -0.699201 -5.17569e-19)
(-1.24809 -0.580164 5.93092e-18)
(-1.34066 -0.514167 -9.30926e-19)
(-1.34828 -0.448767 -1.28284e-17)
(-1.34181 -0.387343 5.69227e-19)
(-1.33923 -0.331698 -4.20575e-18)
(-1.33485 -0.288114 6.38583e-18)
(-1.32674 -0.24706 -2.26013e-17)
(-1.32284 -0.208779 -1.78033e-18)
(-1.32043 -0.175325 -1.60927e-17)
(-1.32142 -0.142562 7.27474e-18)
(-1.32799 -0.112257 -2.95184e-18)
(-1.34025 -0.0828305 -4.7839e-18)
(-1.35971 -0.0539037 -4.85328e-18)
(-1.38626 -0.0251055 -6.30764e-19)
(-1.42102 0.00449912 3.77179e-19)
(-1.46424 0.0351934 1.34268e-18)
(-1.51499 0.0644416 3.84664e-18)
(-1.5737 0.0903056 -5.91476e-18)
(-1.63944 0.115309 -1.34559e-18)
(-1.7075 0.140142 -1.62902e-18)
(-1.77223 0.164073 3.33983e-18)
(-1.82847 0.186369 2.01847e-18)
(-1.87132 0.206196 -1.11499e-17)
(-1.8954 0.222541 -9.03569e-19)
(-1.89617 0.234204 6.61643e-18)
(-1.87102 0.24035 8.38095e-18)
(-1.81857 0.240736 1.70824e-17)
(-1.72803 0.233271 1.41188e-17)
(-1.59443 0.215802 6.92245e-18)
(-1.41353 0.186469 -3.20516e-18)
(-1.18104 0.144145 1.28906e-17)
(-0.888323 0.0864176 -9.97351e-18)
(-0.535214 0.00589803 7.46728e-18)
(-0.164934 -0.0878802 -3.05864e-18)
(0.554718 -0.197866 -4.26172e-18)
(0.597645 -0.462424 5.8045e-18)
(1.82095 7.04549 -1.62068e-20)
(3.3241 8.132 1.08433e-18)
(4.12729 7.88237 -2.01349e-18)
(3.42595 5.37014 -3.19463e-18)
(1.4667 2.00338 3.08375e-19)
(-0.445447 -0.200378 -4.11721e-18)
(-1.02551 -0.426341 -8.75403e-18)
(-1.20557 -0.4177 -8.06486e-18)
(-1.25811 -0.374287 5.84715e-18)
(-1.29197 -0.32701 2.66339e-19)
(-1.31633 -0.290874 3.56048e-18)
(-1.32803 -0.25355 1.16669e-17)
(-1.34027 -0.215243 -9.05168e-18)
(-1.35062 -0.182118 9.96595e-18)
(-1.36228 -0.148067 -6.20182e-18)
(-1.3777 -0.116294 -2.79054e-18)
(-1.39696 -0.0850018 1.32846e-18)
(-1.42196 -0.0539606 1.88472e-18)
(-1.45289 -0.0230876 9.4616e-20)
(-1.49059 0.00873783 -9.02819e-20)
(-1.53519 0.0417208 -3.11497e-18)
(-1.58498 0.0734349 -2.62412e-18)
(-1.63924 0.101106 5.41716e-19)
(-1.69704 0.126885 -3.70179e-19)
(-1.75494 0.151395 3.17941e-18)
(-1.80909 0.174052 -7.01064e-18)
(-1.85585 0.194216 -5.0518e-18)
(-1.89133 0.211134 7.30682e-18)
(-1.91125 0.223998 1.77491e-18)
(-1.91128 0.231848 -1.10954e-18)
(-1.88688 0.233683 -7.28459e-18)
(-1.83271 0.228341 3.0456e-18)
(-1.74226 0.214241 -6.83975e-18)
(-1.61045 0.189699 -9.09137e-18)
(-1.43299 0.153001 2.00258e-18)
(-1.20601 0.103174 5.1269e-18)
(-0.921408 0.0379041 7.69376e-18)
(-0.577103 -0.0514456 -7.8533e-18)
(-0.215556 -0.1625 -1.58903e-18)
(0.44638 -0.277658 -2.08762e-18)
(0.637407 -0.624787 -3.43378e-18)
(2.21981 6.62124 -5.6602e-20)
(3.12307 7.32872 -2.05654e-19)
(4.17708 8.02854 1.07498e-18)
(4.70995 7.62364 2.0049e-18)
(4.01511 5.55967 -2.81872e-19)
(2.19199 2.64747 -2.58082e-18)
(0.197509 0.354031 1.75542e-18)
(-0.730882 -0.250157 4.24617e-18)
(-1.02673 -0.307299 -3.22914e-18)
(-1.13988 -0.284405 3.66451e-18)
(-1.21237 -0.266739 -8.58958e-18)
(-1.25443 -0.24241 1.15775e-18)
(-1.28828 -0.208868 1.2464e-18)
(-1.31465 -0.179514 -7.91593e-18)
(-1.33767 -0.146398 -3.85494e-18)
(-1.36161 -0.114885 2.43531e-18)
(-1.38687 -0.083213 4.62414e-18)
(-1.41624 -0.0512824 2.14715e-18)
(-1.44992 -0.0195049 -1.3349e-19)
(-1.48882 0.0133657 1.42773e-19)
(-1.53306 0.0472109 8.13073e-19)
(-1.58089 0.0798762 2.44253e-18)
(-1.63149 0.108391 8.30208e-19)
(-1.68454 0.134463 1.48531e-18)
(-1.73785 0.158559 2.24988e-18)
(-1.78853 0.180226 1.00855e-17)
(-1.83339 0.198844 -7.35578e-19)
(-1.86867 0.213573 -1.29861e-18)
(-1.89006 0.223495 -4.46627e-18)
(-1.89282 0.227522 -3.88634e-18)
(-1.87182 0.224466 5.41674e-18)
(-1.82168 0.213021 -4.569e-18)
(-1.737 0.191771 1.20234e-17)
(-1.61262 0.159106 3.1753e-18)
(-1.44423 0.113326 2.50527e-18)
(-1.22818 0.0533999 5.28045e-19)
(-0.957015 -0.0225507 -1.18652e-19)
(-0.627486 -0.122741 -6.2176e-19)
(-0.280338 -0.252219 1.68727e-18)
(0.304555 -0.367676 -2.4256e-18)
(0.560729 -0.723808 6.47543e-19)
(2.67645 6.13582 1.14205e-19)
(3.35832 6.68872 -1.11623e-19)
(4.06418 7.23862 -9.42792e-19)
(4.84352 7.75125 -1.52564e-18)
(5.22212 7.44218 1.52729e-18)
(4.62081 5.82345 -1.14123e-19)
(2.97161 3.31246 4.56268e-19)
(0.986184 1.02864 2.76404e-18)
(-0.339508 -0.0324728 -1.13215e-18)
(-0.787325 -0.173846 -1.9765e-18)
(-0.993364 -0.198506 -2.79751e-18)
(-1.10019 -0.201701 -1.88173e-20)
(-1.17022 -0.182974 -9.52586e-20)
(-1.22331 -0.164116 5.00223e-18)
(-1.26346 -0.136018 3.0062e-18)
(-1.29961 -0.1072 1.18049e-19)
(-1.3327 -0.0768999 -2.00273e-18)
(-1.36718 -0.0453652 2.2155e-18)
(-1.4038 -0.0138557 -3.25161e-19)
(-1.44397 0.0190513 7.74846e-19)
(-1.48832 0.0528368 -1.58347e-18)
(-1.53546 0.0857118 -1.67528e-19)
(-1.58476 0.114629 2.09645e-18)
(-1.6363 0.140898 -2.24943e-18)
(-1.68862 0.164729 -4.93256e-18)
(-1.73927 0.185606 -2.48551e-18)
(-1.78527 0.202783 5.14534e-19)
(-1.8229 0.215275 -3.96881e-18)
(-1.84785 0.221994 1.11744e-19)
(-1.85531 0.221709 3.69329e-18)
(-1.84019 0.21312 -2.88274e-18)
(-1.79735 0.194887 6.01005e-19)
(-1.72172 0.165647 -8.33277e-18)
(-1.60825 0.123829 -3.95972e-18)
(-1.45268 0.0677621 -2.28386e-18)
(-1.25158 -0.00362255 -2.16593e-18)
(-0.998405 -0.0917254 1.19198e-18)
(-0.689851 -0.20397 -5.40572e-20)
(-0.362009 -0.349075 8.81946e-19)
(0.13932 -0.470011 3.23358e-18)
(0.42732 -0.794796 -1.86482e-18)
(3.07991 5.69549 -1.48176e-19)
(3.59199 6.21263 2.20604e-19)
(4.11283 6.61105 2.03295e-19)
(4.69536 7.04896 5.46463e-19)
(5.3319 7.46407 -4.12205e-19)
(5.67404 7.30531 2.01805e-19)
(5.22803 6.10545 4.99832e-19)
(3.824 4.01388 1.86763e-20)
(1.90202 1.80583 -1.00573e-19)
(0.260635 0.348533 4.15717e-18)
(-0.46634 -0.0261707 4.65994e-18)
(-0.796695 -0.104995 -2.12995e-18)
(-0.955546 -0.119883 -1.35398e-18)
(-1.06268 -0.124895 6.26829e-18)
(-1.13367 -0.111218 -5.28098e-18)
(-1.19125 -0.09012 2.31285e-18)
(-1.23815 -0.0645054 2.17502e-19)
(-1.2815 -0.0352383 6.12061e-19)
(-1.32335 -0.00533662 7.22635e-19)
(-1.36626 0.0267069 -3.57145e-19)
(-1.41188 0.0597415 -7.55947e-19)
(-1.45965 0.0924181 5.48408e-19)
(-1.50929 0.121542 -9.24398e-19)
(-1.56115 0.147983 -6.5199e-19)
(-1.61432 0.171619 4.73407e-18)
(-1.66664 0.191772 -3.11651e-18)
(-1.7153 0.207497 -7.30228e-19)
(-1.75674 0.217602 4.91667e-18)
(-1.78676 0.220809 3.86773e-18)
(-1.8007 0.215737 -1.89833e-18)
(-1.79363 0.200974 -1.5424e-18)
(-1.76065 0.175145 -4.8658e-19)
(-1.69693 0.136917 3.86644e-18)
(-1.5976 0.0847701 4.0371e-18)
(-1.45857 0.0171075 1.14792e-18)
(-1.27669 -0.0670661 -1.53954e-18)
(-1.04662 -0.1686 -2.19114e-19)
(-0.766057 -0.293757 -1.05871e-18)
(-0.464447 -0.450592 -2.56502e-18)
(-0.0437588 -0.581341 -1.24728e-19)
(0.251757 -0.858148 1.97185e-18)
(3.46378 5.33743 -2.84102e-20)
(3.8333 5.77393 1.6415e-19)
(4.23004 6.16342 2.50113e-20)
(4.66295 6.46776 4.50155e-19)
(5.15992 6.80297 2.27746e-19)
(5.70551 7.1562 -7.76399e-19)
(6.0581 7.15166 2.27445e-19)
(5.8035 6.35188 -2.04642e-19)
(4.6995 4.70411 -1.50539e-18)
(2.93738 2.66694 3.89782e-20)
(1.14184 0.974122 -5.59019e-18)
(-0.0238333 0.173433 7.32113e-18)
(-0.511241 0.0129131 -5.88417e-18)
(-0.775392 -0.0375481 -6.57608e-19)
(-0.919205 -0.0549192 2.83983e-18)
(-1.02101 -0.0537368 -1.01402e-18)
(-1.09505 -0.0409405 3.96384e-18)
(-1.15562 -0.0180207 -1.63225e-18)
(-1.20819 0.00771747 3.75899e-19)
(-1.25733 0.0374685 -2.96652e-19)
(-1.30627 0.0688273 3.08542e-19)
(-1.35586 0.100887 -4.0608e-19)
(-1.40679 0.130073 2.14515e-18)
(-1.45987 0.156717 -7.04116e-19)
(-1.51475 0.180278 -1.77632e-18)
(-1.56962 0.199815 8.32646e-19)
(-1.62187 0.214132 2.70885e-18)
(-1.66817 0.221779 -1.33746e-18)
(-1.70457 0.221243 3.65555e-20)
(-1.72661 0.210976 -1.05916e-18)
(-1.72964 0.189448 6.79265e-20)
(-1.70898 0.155228 -1.78997e-18)
(-1.66009 0.10702 -3.89062e-20)
(-1.57838 0.0433823 8.05886e-19)
(-1.46005 -0.0371268 2.69646e-18)
(-1.30232 -0.135258 -2.08214e-18)
(-1.10121 -0.251213 -2.42531e-18)
(-0.855907 -0.389609 2.00575e-18)
(-0.588393 -0.554716 -7.47247e-19)
(-0.24403 -0.697983 2.26806e-20)
(0.0370994 -0.923652 9.51776e-20)
(3.81149 5.03427 -7.64655e-21)
(4.09685 5.39747 -6.10486e-20)
(4.39251 5.7431 4.01573e-20)
(4.72698 6.04035 -2.47533e-19)
(5.09894 6.27289 -1.49125e-19)
(5.52168 6.52475 -2.56146e-19)
(5.99573 6.8273 1.09277e-18)
(6.36635 6.94746 1.77988e-19)
(6.30813 6.50638 5.21933e-19)
(5.53645 5.31282 -1.10358e-18)
(4.05416 3.57024 1.17698e-18)
(2.25026 1.80824 1.67809e-18)
(0.714428 0.591669 -4.2805e-18)
(-0.121279 0.154199 6.37256e-18)
(-0.514307 0.0595631 1.06547e-19)
(-0.736174 0.0247648 -1.28967e-18)
(-0.874171 0.00972219 -4.69587e-18)
(-0.972798 0.0152872 -3.75456e-19)
(-1.04903 0.0298859 -1.47741e-18)
(-1.11226 0.0538244 5.58774e-18)
(-1.16906 0.0814845 -3.52289e-18)
(-1.22258 0.112092 5.93838e-19)
(-1.27565 0.141088 1.18403e-18)
(-1.33024 0.167991 2.05739e-19)
(-1.38694 0.191697 4.62473e-19)
(-1.44455 0.210853 2.11063e-19)
(-1.50081 0.22394 1.0999e-18)
(-1.55268 0.229208 -6.50294e-19)
(-1.5965 0.224875 -2.64613e-18)
(-1.62814 0.209188 -7.65031e-19)
(-1.64321 0.180481 2.26985e-18)
(-1.63739 0.137258 1.06075e-18)
(-1.60642 0.078278 8.66858e-20)
(-1.54617 0.00222165 -1.8647e-18)
(-1.4532 -0.0920863 -1.04408e-18)
(-1.32517 -0.204945 6.84203e-19)
(-1.15949 -0.335789 1.59298e-18)
(-0.956691 -0.48711 -8.83588e-19)
(-0.731912 -0.65823 6.14712e-19)
(-0.460413 -0.812609 -1.31218e-18)
(-0.213654 -0.993736 -1.96007e-19)
(4.13307 4.77336 -2.03316e-20)
(4.36181 5.07832 -1.36537e-19)
(4.5898 5.37171 2.94251e-19)
(4.8427 5.64673 3.61773e-20)
(5.1319 5.8797 -5.9282e-20)
(5.45164 6.0579 1.00784e-20)
(5.81074 6.241 -4.24022e-19)
(6.22062 6.48679 -4.34428e-19)
(6.59813 6.68048 -6.08281e-21)
(6.70923 6.52814 -8.17099e-19)
(6.27164 5.77659 -2.7032e-19)
(5.15234 4.42105 8.02603e-19)
(3.50942 2.76594 5.10278e-19)
(1.79098 1.3001 -2.15707e-18)
(0.512678 0.438555 7.43548e-18)
(-0.137972 0.177607 -3.58094e-18)
(-0.48044 0.113107 3.10747e-18)
(-0.680951 0.0866666 -4.8613e-18)
(-0.81508 0.076018 -1.51155e-19)
(-0.912558 0.0839825 1.64297e-18)
(-0.989497 0.101672 -2.19559e-18)
(-1.05343 0.128 -2.91107e-19)
(-1.11157 0.155676 5.83341e-19)
(-1.16863 0.18261 -1.93458e-18)
(-1.22702 0.206738 -5.36611e-19)
(-1.28685 0.225984 -1.42766e-18)
(-1.34671 0.23836 -2.59029e-18)
(-1.40416 0.241693 9.80676e-19)
(-1.45592 0.233856 7.1859e-19)
(-1.49824 0.212862 2.3266e-18)
(-1.52709 0.176922 -9.27574e-19)
(-1.53849 0.124478 6.65417e-19)
(-1.52862 0.0543585 -7.73565e-19)
(-1.49383 -0.0345604 1.87368e-18)
(-1.43118 -0.143053 -2.10015e-19)
(-1.33877 -0.270762 4.84072e-19)
(-1.2152 -0.416202 -2.4081e-18)
(-1.06188 -0.579426 1.54442e-18)
(-0.888715 -0.755316 -1.14546e-19)
(-0.688074 -0.916425 8.01683e-19)
(-0.49036 -1.06625 -8.28957e-19)
(4.42944 4.54674 -1.10717e-19)
(4.61815 4.80417 4.13505e-19)
(4.80023 5.05302 -1.45652e-19)
(4.99601 5.29072 -2.01774e-19)
(5.21817 5.51134 1.39761e-19)
(5.46899 5.69732 -3.26019e-19)
(5.74376 5.83678 1.03493e-19)
(6.04785 5.96638 1.66072e-18)
(6.39733 6.15016 -1.7441e-18)
(6.76043 6.3599 -1.76031e-19)
(6.99004 6.4069 8.71967e-20)
(6.84663 6.03711 6.53909e-20)
(6.12378 5.11156 8.73369e-19)
(4.80003 3.73287 -3.28666e-19)
(3.12629 2.23425 1.91707e-18)
(1.54134 1.02747 -2.33302e-18)
(0.455886 0.394515 1.02866e-18)
(-0.101783 0.217484 -8.96061e-19)
(-0.414203 0.171071 1.72376e-18)
(-0.604655 0.149335 1.36057e-18)
(-0.734778 0.143117 5.89126e-19)
(-0.827926 0.155871 -1.59501e-18)
(-0.90153 0.17727 1.49475e-18)
(-0.966401 0.202264 8.40462e-19)
(-1.02875 0.226448 -2.3381e-18)
(-1.09121 0.24619 1.60468e-18)
(-1.15413 0.258649 1.82793e-18)
(-1.21635 0.261008 -2.11613e-18)
(-1.2755 0.250645 2.85432e-19)
(-1.32853 0.225235 -1.81312e-18)
(-1.372 0.18278 9.43149e-19)
(-1.40238 0.121658 -1.23259e-18)
(-1.41629 0.0408002 -3.98248e-19)
(-1.41061 -0.060597 6.55604e-20)
(-1.38289 -0.182762 -8.25448e-19)
(-1.33166 -0.324515 2.4082e-19)
(-1.25635 -0.483287 6.87033e-19)
(-1.15864 -0.656763 -9.30854e-19)
(-1.04488 -0.836753 -1.36097e-19)
(-0.914192 -1.00092 -1.13059e-18)
(-0.775128 -1.13316 7.92291e-19)
(4.70249 4.34717 -1.133e-19)
(4.86209 4.566 -3.42477e-19)
(5.01243 4.77654 2.11369e-20)
(5.16874 4.97987 7.04713e-20)
(5.34198 5.17372 -3.19927e-20)
(5.5373 5.35233 -2.36736e-19)
(5.7549 5.504 1.6963e-20)
(5.99101 5.61685 1.37399e-20)
(6.24812 5.70856 1.19159e-19)
(6.54092 5.83221 1.62773e-18)
(6.86819 6.0122 5.23932e-19)
(7.1572 6.15992 1.371e-19)
(7.23588 6.07532 -1.06137e-18)
(6.88797 5.56357 2.36099e-18)
(5.97951 4.5723 -1.96587e-18)
(4.56722 3.25409 1.18196e-18)
(2.93127 1.92031 -1.7556e-18)
(1.46934 0.906969 -4.88236e-18)
(0.49971 0.403725 3.17679e-19)
(-0.0161969 0.264347 6.44461e-18)
(-0.311549 0.229097 -3.52925e-18)
(-0.489396 0.216871 3.99355e-18)
(-0.60805 0.21993 -1.99306e-18)
(-0.697916 0.234815 3.23169e-19)
(-0.774112 0.254612 -2.10609e-19)
(-0.844473 0.273375 -1.61379e-18)
(-0.912762 0.286291 1.34403e-18)
(-0.98032 0.288969 -1.08663e-18)
(-1.04654 0.277736 8.92138e-19)
(-1.10969 0.249674 5.9448e-19)
(-1.16737 0.202536 7.77506e-20)
(-1.21694 0.134629 5.34236e-19)
(-1.25569 0.0449246 3.10322e-19)
(-1.28125 -0.0670871 -1.29125e-18)
(-1.29161 -0.201006 -7.60074e-19)
(-1.28557 -0.354698 5.30527e-19)
(-1.26287 -0.524432 6.39957e-19)
(-1.225 -0.705972 1.26043e-19)
(-1.17566 -0.889482 1.27204e-18)
(-1.11477 -1.05544 9.01407e-19)
(-1.04085 -1.18243 2.00314e-19)
(4.95355 4.16975 -1.28897e-19)
(5.09111 4.35697 6.40046e-20)
(5.21868 4.53575 3.06736e-19)
(5.34711 4.70848 -2.79304e-19)
(5.48585 4.87576 3.45169e-20)
(5.63975 5.03452 5.03627e-20)
(5.81144 5.18055 9.3092e-20)
(6.00054 5.3061 -6.85221e-19)
(6.20397 5.40072 -1.72139e-18)
(6.42163 5.46833 2.27134e-18)
(6.66365 5.54353 -1.57491e-18)
(6.94325 5.66976 -4.09134e-19)
(7.23909 5.83329 -7.06224e-19)
(7.45074 5.91658 -4.05658e-19)
(7.40382 5.73906 9.27915e-19)
(6.92024 5.1624 -4.17178e-19)
(5.92047 4.18385 1.97932e-18)
(4.49889 2.96399 -1.85428e-18)
(2.92594 1.77316 -8.39508e-19)
(1.5505 0.884639 5.98734e-18)
(0.633046 0.438393 -3.59574e-18)
(0.143066 0.315573 -2.21049e-19)
(-0.126342 0.301439 8.45796e-19)
(-0.295089 0.303382 3.03216e-18)
(-0.415095 0.30892 -2.55105e-18)
(-0.510817 0.318404 -5.55185e-19)
(-0.594726 0.327299 -6.17973e-19)
(-0.673528 0.329045 3.27789e-18)
(-0.749895 0.317968 -1.444e-18)
(-0.824423 0.289629 -4.69795e-19)
(-0.896536 0.240903 1.58462e-18)
(-0.96501 0.169646 -1.34058e-18)
(-1.02825 0.0747077 -6.65102e-19)
(-1.08496 -0.0441576 7.87975e-19)
(-1.13383 -0.185851 5.83104e-19)
(-1.17388 -0.347382 1.03744e-19)
(-1.20486 -0.52415 -3.01707e-19)
(-1.22764 -0.710784 -1.78737e-19)
(-1.24365 -0.897004 -6.33409e-19)
(-1.25167 -1.0656 5.57875e-19)
(-1.24666 -1.19703 -1.01355e-19)
(5.18379 4.01077 2.05546e-19)
(5.30409 4.1718 -4.60313e-19)
(5.41467 4.32421 4.29769e-19)
(5.52326 4.47077 1.0959e-19)
(5.63719 4.61359 -1.02084e-19)
(5.76107 4.75158 5.67305e-20)
(5.89776 4.88216 4.9795e-19)
(6.04875 5.00227 2.95886e-19)
(6.21355 5.10697 1.6332e-19)
(6.38951 5.18811 7.98963e-20)
(6.57467 5.24223 -5.70815e-19)
(6.77507 5.28611 9.0599e-19)
(7.00557 5.35772 -8.97504e-20)
(7.27136 5.48257 9.32856e-19)
(7.53239 5.62187 -2.53674e-18)
(7.67889 5.65602 2.61009e-18)
(7.55105 5.43399 -7.65034e-19)
(7.00519 4.85694 -2.25165e-18)
(5.99242 3.94159 1.87693e-18)
(4.61182 2.83184 -2.18898e-18)
(3.10451 1.75455 1.62278e-18)
(1.81833 0.953844 -6.46047e-19)
(0.966545 0.533389 2.60856e-18)
(0.475128 0.396795 -1.03813e-18)
(0.186104 0.385611 -5.24949e-18)
(0.000896557 0.399028 2.85869e-18)
(-0.132789 0.40484 1.20087e-18)
(-0.242624 0.400015 -2.90429e-19)
(-0.340879 0.384074 2.26712e-19)
(-0.433791 0.353641 -6.7677e-19)
(-0.524376 0.304622 -3.23302e-18)
(-0.613883 0.233518 3.37486e-18)
(-0.702389 0.138267 -2.13187e-19)
(-0.789682 0.018303 -9.42809e-19)
(-0.875664 -0.125267 1.01907e-18)
(-0.959668 -0.288922 -1.36947e-19)
(-1.04127 -0.467349 -2.51862e-19)
(-1.12092 -0.65472 4.55571e-19)
(-1.19832 -0.841419 2.07998e-19)
(-1.2714 -1.01322 -4.22625e-19)
(-1.33485 -1.15472 -2.14407e-19)
(5.39423 3.8675 5.99526e-21)
(5.50057 4.00654 2.24106e-19)
(5.59795 4.13691 4.26582e-19)
(5.69182 4.26141 -5.02585e-19)
(5.78787 4.38273 -2.04083e-20)
(5.88999 4.50096 -1.13066e-19)
(6.00078 4.61486 -2.7679e-19)
(6.12221 4.72239 -3.2542e-19)
(6.25519 4.8213 4.51669e-19)
(6.39921 4.90838 1.41842e-18)
(6.55197 4.97812 -4.83716e-19)
(6.71145 5.02521 9.86356e-19)
(6.87984 5.05354 -1.1843e-20)
(7.06708 5.0854 -1.9001e-18)
(7.28682 5.1538 -7.68812e-19)
(7.53617 5.26976 1.7578e-18)
(7.76705 5.38608 -9.54092e-19)
(7.87388 5.39525 1.2797e-18)
(7.71655 5.17379 -1.84904e-18)
(7.17587 4.64515 1.21971e-19)
(6.2098 3.82655 -1.59103e-19)
(4.96161 2.87305 3.82435e-18)
(3.66964 1.97006 -1.17277e-19)
(2.52353 1.24439 -2.45344e-18)
(1.65285 0.773931 -4.98806e-19)
(1.07054 0.548217 -7.92435e-19)
(0.698904 0.482704 -2.73109e-18)
(0.455087 0.482257 3.41639e-18)
(0.282477 0.484836 -2.79125e-18)
(0.144766 0.465613 -9.42562e-20)
(0.0214042 0.4203 7.7756e-19)
(-0.0974248 0.349775 -4.67971e-19)
(-0.215911 0.254822 3.56468e-19)
(-0.336069 0.136208 -1.4513e-19)
(-0.458732 -0.00448752 1.66525e-18)
(-0.584358 -0.164101 -1.46263e-18)
(-0.71238 -0.3382 1.05919e-19)
(-0.843029 -0.521722 6.9893e-20)
(-0.974805 -0.706282 9.02856e-20)
(-1.1053 -0.880432 -3.05701e-20)
(-1.2315 -1.03255 2.52314e-19)
(5.5858 3.73788 -3.65917e-19)
(5.6805 3.85818 1.72709e-19)
(5.76723 3.96994 -6.4001e-19)
(5.84978 4.07577 2.97992e-19)
(5.93257 4.17858 -1.43242e-19)
(6.0187 4.27906 2.70604e-20)
(6.11053 4.3767 -7.93898e-20)
(6.20974 4.47047 8.35992e-20)
(6.31772 4.55881 -9.92208e-19)
(6.43498 4.63984 5.33773e-19)
(6.56101 4.71145 7.35817e-20)
(6.69453 4.77067 -3.44904e-18)
(6.83376 4.81291 2.18564e-18)
(6.97803 4.8357 1.58079e-19)
(7.13187 4.84699 1.99123e-18)
(7.30674 4.86942 -1.8126e-18)
(7.51412 4.92955 2.93356e-19)
(7.74724 5.03117 1.43116e-18)
(7.95888 5.13035 -1.5325e-18)
(8.05724 5.13812 5.80558e-19)
(7.91702 4.9509 1.87666e-19)
(7.46384 4.53183 -3.90842e-19)
(6.72137 3.92467 1.38879e-19)
(5.77135 3.20586 -3.96706e-19)
(4.72871 2.46869 2.56474e-18)
(3.71043 1.79951 -3.64087e-18)
(2.81725 1.26482 3.21109e-18)
(2.11022 0.897856 9.30715e-19)
(1.59055 0.686742 -1.41319e-18)
(1.21745 0.584542 -5.83878e-19)
(0.943511 0.534641 -3.42673e-19)
(0.730435 0.490835 2.32308e-18)
(0.550387 0.426161 -2.77939e-19)
(0.384231 0.331277 -2.95546e-18)
(0.220754 0.207141 6.32427e-19)
(0.0547855 0.0589474 8.63155e-19)
(-0.115741 -0.106884 -7.30335e-19)
(-0.293138 -0.284708 7.11235e-19)
(-0.47449 -0.466763 2.44403e-19)
(-0.65659 -0.643696 1.08522e-19)
(-0.839696 -0.805918 -5.3718e-19)
(5.75909 3.62032 2.6942e-19)
(5.84383 3.72446 -3.23237e-19)
(5.92169 3.82032 6.87424e-19)
(5.99522 3.91028 -2.9638e-20)
(6.06787 3.99725 6.63341e-20)
(6.14212 4.08213 2.62135e-19)
(6.21986 4.16487 -5.52702e-20)
(6.30261 4.24496 6.29599e-20)
(6.39163 4.32157 2.65386e-19)
(6.48776 4.39339 -5.20222e-20)
(6.59123 4.4589 1.26807e-18)
(6.70192 4.51691 -1.75214e-18)
(6.81928 4.56578 3.03784e-18)
(6.94173 4.60249 -2.31943e-18)
(7.06768 4.62337 -1.08718e-18)
(7.1978 4.62819 -4.20282e-19)
(7.33797 4.62605 -7.18584e-19)
(7.49973 4.63699 7.48498e-19)
(7.69283 4.68209 9.15774e-20)
(7.91196 4.76473 5.46776e-19)
(8.11641 4.84869 -2.73773e-19)
(8.22697 4.86814 3.01538e-19)
(8.17429 4.76995 1.15488e-18)
(7.92351 4.52954 -1.43361e-18)
(7.47189 4.15271 7.28056e-19)
(6.8477 3.67044 7.86511e-19)
(6.1018 3.12746 9.43683e-20)
(5.29625 2.57205 -3.65265e-18)
(4.49394 2.04893 8.63487e-19)
(3.75032 1.59369 1.88515e-18)
(3.10333 1.22684 -1.38824e-18)
(2.56535 0.949313 3.01653e-18)
(2.12621 0.744879 -2.84122e-18)
(1.76345 0.588726 3.95084e-19)
(1.45506 0.456778 9.80793e-19)
(1.18317 0.330281 -9.5698e-19)
(0.934077 0.197193 4.95166e-19)
(0.695996 0.0513197 -5.61934e-20)
(0.46336 -0.107539 -8.33154e-19)
(0.233989 -0.273628 -3.22151e-20)
(-0.00235086 -0.438404 7.44698e-21)
(5.91449 3.51332 1.55785e-20)
(5.99044 3.60341 -1.99914e-19)
(6.06059 3.68562 -6.36481e-20)
(6.1266 3.76211 3.50072e-19)
(6.19117 3.83561 9.29348e-22)
(6.25627 3.90711 -2.49229e-20)
(6.32339 3.97671 -2.97118e-19)
(6.39383 4.04424 1.80037e-19)
(6.46862 4.10923 -1.02157e-19)
(6.54862 4.17092 8.5683e-19)
(6.63427 4.22825 -1.80556e-19)
(6.72586 4.28024 -1.64361e-19)
(6.82351 4.32599 1.20286e-18)
(6.92682 4.36446 -4.62456e-19)
(7.03481 4.39406 -6.65616e-19)
(7.14598 4.41215 -5.64528e-19)
(7.25923 4.41604 -3.92856e-19)
(7.37593 4.40635 2.99349e-18)
(7.50209 4.39094 -3.13458e-18)
(7.64834 4.38609 1.86386e-21)
(7.8251 4.40924 1.88141e-18)
(8.02115 4.4615 -1.67178e-18)
(8.20645 4.52325 1.62222e-18)
(8.34648 4.56367 -7.09728e-19)
(8.4049 4.55096 -8.17341e-19)
(8.35325 4.46197 2.2175e-18)
(8.17622 4.28683 -8.44552e-19)
(7.87345 4.02903 1.16006e-18)
(7.45809 3.70236 -3.16885e-18)
(6.95327 3.32663 3.97662e-19)
(6.38742 2.924 1.38559e-18)
(5.79063 2.51627 -1.81754e-19)
(5.19178 2.12254 -3.14246e-19)
(4.61255 1.756 1.1632e-19)
(4.06868 1.42463 -4.6928e-20)
(3.56901 1.13083 2.80838e-19)
(3.11535 0.871711 -7.57263e-19)
(2.69895 0.639748 6.10336e-19)
(2.31495 0.429936 -3.2384e-19)
(1.95943 0.238866 2.9816e-19)
(1.61257 0.0661389 2.95418e-20)
(6.0468 3.42028 9.68343e-21)
(6.1152 3.49861 -4.14847e-19)
(6.17872 3.56947 4.15498e-19)
(6.23848 3.63491 -3.83801e-19)
(6.2966 3.69743 -6.35891e-20)
(6.35466 3.75797 1.89787e-19)
(6.41383 3.81675 2.36599e-19)
(6.47517 3.87373 -8.8961e-19)
(6.53957 3.92869 -5.94003e-20)
(6.60773 3.98109 1.44302e-18)
(6.68015 4.03021 -1.92002e-18)
(6.7572 4.07535 5.11669e-19)
(6.83916 4.11575 4.85463e-19)
(6.92604 4.15058 -8.29469e-19)
(7.01762 4.1791 2.0006e-18)
(7.11331 4.20051 -2.61756e-19)
(7.21211 4.21339 -5.83364e-18)
(7.31265 4.21554 5.02083e-18)
(7.41417 4.20481 -1.8458e-18)
(7.51798 4.18158 -1.33264e-18)
(7.62999 4.15217 1.74555e-18)
(7.75519 4.12933 1.77939e-18)
(7.89623 4.1241 -2.62914e-18)
(8.053 4.14006 2.455e-18)
(8.2166 4.17213 -6.6563e-19)
(8.37132 4.20768 6.11828e-19)
(8.4978 4.23031 -1.1289e-18)
(8.57673 4.22391 1.16281e-18)
(8.59252 4.17596 4.28413e-19)
(8.53481 4.07918 -2.19329e-18)
(8.39958 3.93191 2.60311e-19)
(8.18871 3.73744 -1.2494e-19)
(7.90932 3.50284 1.26476e-18)
(7.56999 3.23605 3.31954e-20)
(7.1822 2.94661 -7.12053e-20)
(6.75899 2.64468 -1.3256e-19)
(6.31468 2.33991 -5.01355e-20)
(5.85537 2.03681 -1.08549e-19)
(5.39084 1.74209 -3.93249e-19)
(4.93351 1.46019 3.89494e-20)
(4.46943 1.19252 6.52623e-20)
(6.15458 3.34285 1.70698e-19)
(6.21672 3.41153 3.22263e-19)
(6.27474 3.47311 -2.24104e-19)
(6.32938 3.52958 -3.79417e-19)
(6.38233 3.5832 -1.37596e-20)
(6.4349 3.63484 1.56712e-19)
(6.48805 3.68477 -1.48995e-19)
(6.54263 3.73303 2.32861e-19)
(6.5994 3.77954 5.47592e-19)
(6.65896 3.82396 -1.03753e-18)
(6.72174 3.86575 -1.34312e-18)
(6.78813 3.90443 1.60268e-18)
(6.85843 3.9394 1.4306e-18)
(6.93273 3.96994 -2.13574e-18)
(7.01101 3.99534 2.50885e-18)
(7.0931 4.01498 1.71544e-18)
(7.17867 4.02832 -1.31503e-18)
(7.26712 4.03467 -2.17364e-18)
(7.35747 4.03281 -2.78046e-19)
(7.44841 4.02082 1.75861e-18)
(7.53912 3.99672 -3.47384e-18)
(7.62765 3.96229 2.74055e-18)
(7.7154 3.92265 3.40538e-19)
(7.80809 3.88406 7.24055e-19)
(7.91053 3.85312 -1.24797e-18)
(8.02536 3.83444 6.11849e-19)
(8.15176 3.82913 -5.40329e-19)
(8.28506 3.83444 -3.7497e-19)
(8.41741 3.84441 7.39946e-19)
(8.5391 3.85138 -4.74489e-19)
(8.63992 3.84734 -2.41584e-19)
(8.71039 3.82516 9.49247e-19)
(8.74298 3.77952 -1.21354e-18)
(8.73226 3.70713 6.57248e-19)
(8.67499 3.60688 6.09493e-20)
(8.57032 3.47986 -7.70531e-19)
(8.42077 3.32928 5.51105e-19)
(8.22698 3.15681 1.17263e-19)
(7.9921 2.96674 -2.47893e-19)
(7.72558 2.76426 -7.38639e-20)
(7.41684 2.54926 -5.94445e-20)
(6.24348 3.27753 -1.04629e-19)
(6.30029 3.3381 4.02372e-20)
(6.3536 3.39196 -8.30964e-20)
(6.40386 3.441 -1.27784e-19)
(6.4525 3.48729 9.47856e-20)
(6.50056 3.53162 -1.80566e-20)
(6.54888 3.57426 6.35346e-20)
(6.59814 3.6153 -2.27168e-19)
(6.64898 3.65471 2.86682e-20)
(6.70192 3.69227 1.3686e-19)
(6.75732 3.7276 -4.91089e-19)
(6.81552 3.76032 7.85703e-19)
(6.87683 3.79001 -1.78302e-18)
(6.94137 3.81609 1.08726e-18)
(7.00918 3.83797 6.76194e-19)
(7.08018 3.85503 4.65648e-19)
(7.1542 3.86672 2.00312e-19)
(7.23102 3.87254 -3.39207e-19)
(7.31027 3.87205 -1.01642e-18)
(7.39135 3.86467 2.0145e-18)
(7.47326 3.84925 9.40775e-20)
(7.55209 3.82548 -2.20726e-18)
(7.62521 3.79372 9.94852e-19)
(7.69365 3.7546 1.1151e-18)
(7.75919 3.71007 -2.26331e-18)
(7.82461 3.66308 2.04139e-18)
(7.8931 3.61706 -1.73229e-18)
(7.9675 3.57518 7.75759e-20)
(8.04955 3.53968 5.34129e-19)
(8.13944 3.51149 1.39765e-18)
(8.23569 3.49007 -1.84166e-18)
(8.33533 3.47359 5.23588e-19)
(8.43416 3.45927 9.66097e-19)
(8.52769 3.44403 -7.61603e-19)
(8.61101 3.42469 -8.97467e-20)
(8.67916 3.39842 -2.74917e-20)
(8.72806 3.36312 1.48363e-19)
(8.75473 3.3171 -1.01707e-19)
(8.75596 3.25916 6.96914e-20)
(8.73174 3.18987 -1.20975e-19)
(8.67627 3.10732 -8.60549e-21)
(6.31774 3.22151 2.26442e-20)
(6.36988 3.27517 4.07184e-19)
(6.41902 3.32248 4.63623e-21)
(6.46545 3.36528 -2.15319e-19)
(6.51032 3.40543 5.95858e-20)
(6.55454 3.44364 -1.44954e-20)
(6.59878 3.48017 -1.71127e-19)
(6.64365 3.51516 9.385e-20)
(6.68966 3.54859 3.50909e-19)
(6.73725 3.58033 3.68202e-20)
(6.78673 3.61006 1.41146e-19)
(6.83839 3.63751 5.58622e-19)
(6.89249 3.66234 -3.78154e-19)
(6.94916 3.68411 -7.71677e-19)
(7.00847 3.70233 6.58642e-20)
(7.07038 3.71651 -2.47895e-19)
(7.13479 3.72613 6.28418e-19)
(7.20151 3.73068 -5.98676e-19)
(7.27034 3.7297 -4.19468e-19)
(7.34098 3.72281 -1.18162e-18)
(7.41307 3.70955 1.52252e-18)
(7.48364 3.69038 7.40053e-19)
(7.55019 3.66585 -7.95017e-19)
(7.6124 3.63585 -7.73468e-19)
(7.66976 3.60044 -4.45074e-19)
(7.72227 3.55989 1.5617e-18)
(7.77048 3.51483 9.55688e-19)
(7.81548 3.46634 8.61357e-19)
(7.85877 3.41579 -1.83462e-18)
(7.90202 3.36478 5.95143e-19)
(7.94678 3.31484 -7.32779e-19)
(7.99428 3.2673 4.05774e-19)
(8.04517 3.2231 -6.40716e-19)
(8.09971 3.18273 1.00159e-18)
(8.15741 3.14625 -5.09554e-19)
(8.21713 3.11342 2.17635e-19)
(8.27704 3.08356 -4.52323e-19)
(8.33615 3.05605 3.70452e-19)
(8.39217 3.02975 -2.82014e-19)
(8.44327 3.00413 -7.80828e-21)
(8.48706 2.97805 4.85625e-20)
(6.38047 3.17284 -9.17454e-20)
(6.42845 3.22051 -3.83046e-20)
(6.47386 3.2622 -4.09226e-19)
(6.51683 3.29967 5.17534e-19)
(6.55836 3.33459 -9.45991e-20)
(6.59918 3.3676 -2.61783e-20)
(6.6399 3.39897 1.20731e-19)
(6.681 3.42882 -2.91931e-19)
(6.72293 3.45717 1.44502e-18)
(6.76604 3.48392 -2.09562e-18)
(6.8106 3.50883 1.10921e-18)
(6.85684 3.53168 3.44003e-19)
(6.90498 3.55221 -4.14538e-19)
(6.95514 3.57005 -1.74941e-18)
(7.00737 3.58481 4.4483e-19)
(7.06166 3.59609 -1.03202e-18)
(7.11794 3.60346 3.32307e-18)
(7.17607 3.60649 -9.11732e-19)
(7.23586 3.60472 -1.98094e-19)
(7.29705 3.59777 6.53607e-19)
(7.35939 3.58516 -3.17086e-18)
(7.42058 3.56744 1.92437e-18)
(7.47878 3.5454 1.15548e-18)
(7.53396 3.51933 -1.08112e-18)
(7.58568 3.48957 -2.79011e-19)
(7.63355 3.45634 9.72934e-19)
(7.67726 3.41979 -1.58151e-18)
(7.71661 3.38006 1.13043e-18)
(7.75161 3.33736 9.78275e-19)
(7.78248 3.29202 -7.12015e-19)
(7.80964 3.24451 -1.24198e-18)
(7.83372 3.19545 1.14075e-19)
(7.85544 3.14556 6.32753e-19)
(7.87561 3.09552 2.89968e-19)
(7.89502 3.04608 -7.45969e-19)
(7.91431 2.99805 7.82594e-19)
(7.93385 2.95205 -4.99763e-19)
(7.95433 2.90852 2.22103e-19)
(7.97586 2.86778 6.59827e-20)
(7.99862 2.8303 -1.91508e-19)
(8.02179 2.79615 -2.48184e-20)
(6.43391 3.13013 -2.51583e-19)
(6.47813 3.17256 2.83859e-19)
(6.52013 3.20937 2.29988e-19)
(6.55996 3.24225 1.33601e-19)
(6.59845 3.27268 -6.39167e-20)
(6.63622 3.30124 -1.4281e-19)
(6.67379 3.32818 4.76063e-19)
(6.71157 3.35364 -1.48102e-18)
(6.74995 3.37765 1.99869e-18)
(6.78921 3.40013 -1.01986e-18)
(6.82956 3.4209 -1.64548e-18)
(6.87119 3.43978 4.44606e-19)
(6.91428 3.45654 2.14339e-18)
(6.95893 3.47089 1.14293e-18)
(7.00516 3.48253 -2.04299e-18)
(7.05298 3.49112 1.54235e-18)
(7.10231 3.4963 -1.21051e-18)
(7.15305 3.49771 -2.94238e-19)
(7.20503 3.495 3.49053e-19)
(7.25803 3.4878 -1.64455e-18)
(7.3118 3.47568 4.11839e-18)