/*--------------------------------*- C++ -*----------------------------------*\
| =========                 |                                                 |
| \\      /  F ield         | OpenFOAM: The Open Source CFD Toolbox           |
|  \\    /   O peration     | Version:  2312                                  |
|   \\  /    A nd           | Website:  www.openfoam.com                      |
|    \\/     M anipulation  |                                                 |
\*---------------------------------------------------------------------------*/
FoamFile
{
    version     2.0;
    format      ascii;
    arch        "LSB;label=32;scalar=64";
    class       volScalarField;
    location    "100";
    object      div(phi);
}
// * * * * * * * * * * * * * * * * * * * * * * * * * * * * * * * * * * * * * //

dimensions      [0 0 -1 0 0 0 0];

internalField   nonuniform List<scalar> 
11040
(
0.174362
-0.0332025
0.206756
0.355394
0.842665
0.334317
0.134988
0.383004
0.135563
0.745469
0.17841
0.933874
0.66631
1.16153
0.593695
0.244811
0.491076
-0.430848
0.553409
-0.46221
0.860519
1.05954
1.04856
1.25544
-0.0738162
0.608809
-0.521508
0.245771
-0.504891
0.213204
-0.797622
0.224515
-1.03305
0.141516
-1.09756
0.231964
-1.00488
-0.0100118
-0.89631
-0.400014
-1.21753
-0.0051285
0.0268496
0.109057
0.276379
0.434085
0.599839
0.771037
1.04904
1.0804
1.23235
0.944051
1.13225
1.04178
1.24275
1.01284
0.99951
1.06143
0.877607
1.0693
0.439126
0.688819
0.747199
0.757667
0.643476
0.11294
0.200161
0.0343209
0.260318
0.0212009
0.302003
0.179603
0.479192
0.231063
0.48674
0.0251875
0.27449
-0.400725
-0.263507
-0.860452
-0.796326
-1.15692
0.0936515
-0.00500552
0.0617596
0.0602649
0.0327098
-0.0468656
-0.101002
-0.0159499
0.0639379
0.155181
-0.0128303
0.107823
0.041307
0.118549
-0.0146682
-0.137634
-0.0256702
-0.339991
-0.0271879
-0.248902
0.0284721
0.113631
0.145704
0.239336
-0.0513105
0.177083
-0.172343
-0.00216637
-0.159567
-0.0209659
-0.23368
-0.0770216
-0.302445
-0.108316
-0.340332
-0.0432931
-0.288469
0.00635264
-0.193601
-0.0142014
-0.254401
-0.00853525
-0.00746639
0.0236116
-0.01076
0.0188389
0.0123546
0.0787204
0.142934
0.265875
0.361596
0.449365
0.556209
0.598923
0.605239
0.542339
0.54812
0.533778
0.521103
0.503361
0.350334
0.353294
0.346277
0.295089
0.24468
0.0713613
0.101119
0.0636037
0.145351
0.0990699
0.198158
0.160857
0.239521
0.154429
0.204505
0.060043
0.078019
-0.126488
-0.145619
-0.330067
-0.336935
-0.47496
-0.0300594
0.0291731
-0.000119941
0.0486631
0.0173205
0.0303799
0.0260784
0.0405332
0.0382043
0.0503029
0.0497169
0.0767687
0.0731755
0.0818937
0.0250563
-0.0145547
0.0278351
-0.0272755
0.00382665
-0.044415
-0.0054102
0.0331692
0.0446175
0.0472992
-0.00982624
0.0411184
-0.0269057
-0.0212246
-0.0260772
-0.0210733
-0.0424082
-0.0425553
-0.0606022
-0.076448
-0.08302
-0.0874604
-0.0865741
-0.0820061
-0.0763726
-0.067729
-0.0876459
0.107303
-0.0309617
0.0590077
-0.0530778
-0.00956056
-0.00154951
-0.0114602
0.00521558
0.0130515
0.0456925
0.0572891
0.112805
0.168037
0.214212
0.246943
0.285538
0.332727
0.303891
0.30878
0.237155
0.252003
0.198885
0.176823
0.102474
0.0739807
0.0441461
0.0628161
0.0694003
0.092537
0.0870545
0.107962
0.0726035
0.0786411
0.0256129
0.0246497
-0.0452911
-0.053725
-0.124108
-0.132733
-0.165218
-0.220197
-0.0414871
0.0297177
-0.0939916
-0.0187045
0.0187997
0.011713
0.03474
0.02357
0.0506093
0.0413305
0.0653885
0.0634244
0.0687667
0.0745988
0.0807826
0.100494
0.108078
0.110793
0.0596912
0.0497123
0.0289745
0.0484183
0.0288646
0.0250242
-0.0082883
0.0305708
0.00215624
0.0247472
0.00767041
0.0300861
-0.00188372
0.0192801
-0.0242355
-0.00868052
-0.0590115
-0.0431465
-0.0898994
-0.0746055
-0.101053
-0.091372
-0.108626
0.0366523
-0.0524075
-0.0628742
0.0475259
0.00399083
0.075338
0.010894
0.0369904
-0.00606587
0.030433
-0.00963796
0.00184083
0.0308994
0.0375588
0.0507674
0.0849179
0.105924
0.127315
0.128757
0.142309
0.13534
0.127371
0.0850894
0.0552075
0.0408299
0.0397113
0.0154541
0.0401368
0.0209843
0.0344555
0.0121492
0.0094366
-0.0131758
-0.0251256
-0.0431967
-0.0606697
-0.0685942
-0.0841471
-0.0826056
-0.0862034
-0.107971
0.0224593
-0.11266
0.0583421
-0.0452931
0.106165
-0.00944574
0.0367417
-0.0438293
0.0168466
-0.0395419
-0.0143257
0.0303869
0.0351117
0.0507928
0.0639645
0.064096
0.0846481
0.0788501
0.0904568
0.0672791
0.0674593
0.0516658
0.0472438
0.0241013
0.0262659
0.00399595
0.0349988
0.00797429
0.0355289
0.00364597
0.0191182
-0.0166303
-0.01073
-0.0446362
-0.047496
-0.0711306
-0.078315
-0.0870338
-0.0874021
-0.0913621
-0.0908166
-0.0635247
0.0321157
-0.0504165
0.0758338
-0.00386985
0.0412951
-0.031585
0.00897252
-0.0250893
-0.016916
0.0306795
0.0222369
0.0414987
0.0398445
0.015452
0.0221349
0.00449207
-0.0125479
0.0205242
0.0293851
0.0488481
0.0453119
0.0328526
0.0176626
0.0114693
0.0474648
-0.0360638
0.0389806
-0.0296028
0.03071
-0.0389349
0.0137233
-0.0574786
-0.00733819
-0.0754702
-0.0279793
-0.080033
-0.0359902
-0.0697138
-0.0371346
-0.0599373
-0.00634974
-0.00848947
0.0183551
0.0191032
0.0265501
0.0134497
0.00958369
0.00987898
-0.00124443
0.0261956
0.0178138
0.026357
0.031399
-0.0101922
-0.000406278
-0.0196039
-0.0384962
0.0053146
-0.00551816
0.0340793
0.03708
0.0403102
0.0249081
0.0229976
0.0628457
-0.0148294
0.0431702
-0.0433964
0.0338189
-0.0515649
0.0344385
-0.0647443
0.0352783
-0.0784062
0.035717
-0.0791109
0.036631
-0.0592556
0.0351473
-0.0195286
0.0177839
0.00348814
0.00340628
0.015932
0.0185619
0.0247725
0.0239962
0.0238668
0.0242256
0.0207391
0.0266898
0.0169139
0.0289593
-0.0100601
-0.00448101
-0.0165435
-0.0316073
0.00181032
-0.0273487
0.00408934
-0.00431333
0.0109137
-0.000150572
0.0125389
0.0197492
0.0448091
0.0235252
0.00065405
0.00470948
-0.0185448
0.0099071
-0.0311433
0.02519
-0.0427531
0.0374026
-0.0476602
0.04735
-0.0357335
0.051193
0.00253185
0.035784
0.0476063
0.00862946
0.00411152
0.014654
0.0110843
0.0213209
0.0171191
0.0240316
0.0212648
0.0237302
0.0209115
0.0211949
0.00955524
0.00204628
0.000969082
-0.0114886
0.00425678
-0.0270546
-0.0061076
-0.0246228
-0.0124234
-0.0340039
-0.00470098
-0.0431658
0.0657923
-0.0208863
0.0674638
-0.0338965
0.0376267
-0.0377988
0.0312843
-0.0299115
0.0267032
-0.0258312
0.0244433
-0.0234128
0.0265827
-0.0140228
0.0358806
-0.00829546
0.0379841
0.00622261
0.00795634
0.000887821
0.0124979
0.00446861
0.0167706
0.00795683
0.0194621
0.0115809
0.0198709
0.0154262
0.0181489
0.0135375
0.0129368
0.0097525
0.00921949
-0.00660922
0.000879566
-0.0186479
-0.0114037
-0.0310023
-0.00524541
-0.044459
0.0318896
-0.0381701
0.0802322
-0.0364509
0.0570923
-0.0469956
0.0535243
-0.0556714
0.0604793
-0.0675526
0.0659466
-0.0807834
0.0687601
-0.0765585
0.0637574
-0.0538881
0.0289766
0.00978625
-0.0652491
0.00600924
-0.000660898
0.010094
0.00106399
0.0134133
0.00285472
0.0151286
0.00534848
0.0156506
0.00717985
0.0139914
0.0091728
0.0115253
0.0100759
0.0103488
0.010153
0.00101332
-0.000351186
-0.00743117
-0.000615249
-0.00763471
0.00187338
-0.00464033
0.0260621
0.00315219
0.0218971
-0.00604562
0.0155119
-0.0162643
0.0161496
-0.0255353
0.0172992
-0.0381357
0.016827
-0.0399003
0.0145942
-0.0357503
0.00147278
-0.0127814
-0.0507834
0.0154977
0.0046595
-0.00149417
0.00799837
-0.000705178
0.0104788
-0.000249438
0.0115294
0.000149468
0.0107505
0.000658963
0.00843072
0.00210177
0.00641217
0.00519441
0.00590927
0.00860443
0.00510164
0.00892419
0.00287137
0.00929977
0.00204793
0.0137904
0.00191174
0.0195056
0.00124746
0.017454
-0.00602819
0.01148
-0.0144535
0.011684
-0.024501
0.0115932
-0.0334735
0.0154311
-0.0354883
0.018643
-0.025291
0.00461236
-0.00297593
-0.041891
0.0284431
0.00360782
-0.00182133
0.00590839
-0.00181125
0.00731186
-0.00195185
0.00766737
-0.00230635
0.00652136
-0.00254028
0.00433523
-0.00149932
0.00228344
0.000777411
0.00115692
0.00379895
0.000692055
0.00618673
-5.36217e-06
0.00918647
-0.000820471
0.013754
-0.00132775
0.0178205
-0.00216477
0.0166964
-0.004433
0.0122059
-0.00731513
0.00892299
-0.0106671
0.00983716
-0.0134158
0.0185946
-0.0100561
0.0308308
0.00461688
0.0296576
0.0257272
0.000722698
0.0498413
0.00219582
-0.000796897
0.00383721
-0.000764671
0.00481016
-0.000963566
0.0050459
-0.0014375
0.00419366
-0.00193709
0.00244784
-0.0018268
0.000405087
-0.000925221
-0.00137506
0.000630058
-0.00260304
0.00239115
-0.00332319
0.00499549
-0.00370101
0.00888024
-0.00352421
0.0126568
-0.00274771
0.0135033
-0.00204226
0.0106078
-0.00182131
0.00638886
-0.00222168
0.00457485
-0.00230547
0.00851682
0.00114126
0.0155317
0.00917086
0.0134469
0.020027
-0.00552937
0.0289449
0.00187764
-0.000670073
0.00224089
-0.000846035
0.00244049
-0.00126718
0.00220733
-0.00180394
0.00138415
-0.00226575
0.000100009
-0.00222085
-0.0014512
-0.00182865
-0.00292548
-0.0010736
-0.00425284
-5.21217e-05
-0.00497952
0.00192993
-0.00532253
0.00480873
-0.00479167
0.00797029
-0.00287143
0.0094635
-9.6534e-05
0.00825507
0.00286886
0.0054996
0.00551598
0.00481891
0.00898532
0.00915206
0.0157856
0.0148705
0.0270106
0.016396
0.0344182
0.0100494
0.0383278
-0.000631969
0.000917724
9.70641e-05
0.000236997
0.000413467
-0.000471384
0.000355344
-0.00115515
-8.24516e-05
-0.00163379
-0.000836933
-0.00198699
-0.00187763
-0.00196514
-0.00303212
-0.00197692
-0.00401581
-0.00154206
-0.00437249
-0.000651792
-0.00445741
0.00126025
-0.0041758
0.00319739
-0.0024677
0.00414554
6.64477e-05
0.0032171
0.00277081
0.00108278
0.00523736
-0.000574898
0.00785162
0.000383786
0.0119332
0.0039447
0.0177511
0.00544338
0.0262162
0.00266527
0.0259712
0.00291721
-0.00177228
0.00184391
-0.00182048
0.00176238
-0.00192354
0.00117192
-0.00194525
0.000337723
-0.00178097
-0.00110748
-0.00120546
-0.00259974
-0.000192081
-0.00479922
0.00124049
-0.00664244
0.00299432
-0.00861627
0.00488538
-0.00965913
0.00663226
-0.010824
0.00776592
-0.0100874
0.00724036
-0.00815217
0.00487115
-0.00555676
0.00146549
-0.00360642
-0.00125342
-0.00192298
-0.00158236
-0.000817213
-0.000676678
0.000659746
-0.00206995
0.0025494
-0.00723061
0.00754923
-0.000400165
0.000261764
-0.00043042
0.000495947
-0.000263736
0.000488579
-0.000241481
0.000441636
-0.00016696
0.000115699
-1.14774e-05
-0.000237968
0.000366792
-0.000913323
0.000869089
-0.00154602
0.00149868
-0.00222587
0.00197346
-0.00289311
0.0025475
-0.00356705
0.00326895
-0.00430237
0.00360315
-0.00415858
0.00338316
-0.00382893
0.00278581
-0.00291798
0.002581
-0.00142447
0.00309497
0.000176131
0.00525587
0.00139434
0.0074837
0.00782745
0.0044975
0.00959699
-0.00291259
0.00169361
-0.000520686
0.000196222
9.89391e-05
-1.10831e-05
0.000223133
-0.000113702
0.000241862
-0.000157951
0.000122732
-6.38706e-05
-6.97256e-05
0.000208264
-0.00038804
0.000539613
-0.000705313
0.000995409
-0.00104591
0.0011886
-0.00155336
0.00183611
-0.00231625
0.00270857
-0.0030794
0.00370531
-0.00345319
0.00428948
-0.00336428
0.0046824
-0.00242616
0.00442843
-0.00157189
0.00431071
-0.00115032
0.00407958
0.000398774
0.00307033
-0.00020345
0.000885377
0.000866845
-0.00310592
-0.000926305
0.000824765
-0.000207558
0.000202598
-3.81415e-05
-8.38324e-05
0.000127213
-0.000584278
0.000423581
-0.00114435
0.000848026
-0.00202423
0.00148812
-0.00275507
0.00229899
-0.00383882
0.00327329
-0.00464332
0.00415286
-0.0057569
0.00491148
-0.0067076
0.00576141
-0.00772035
0.00627617
-0.00806581
0.00623674
-0.00793005
0.00568468
-0.00755068
0.00478496
-0.00670465
0.00366029
-0.00566554
0.00245544
-0.00506315
0.00117716
-0.00315046
-0.000833217
-0.00153887
-0.003706
0.00116749
-0.000576578
0.000152723
3.30099e-05
1.4807e-05
4.55118e-05
-0.000104114
6.60872e-05
-0.000288894
0.000146839
-0.000555726
0.000316445
-0.000877828
0.000605246
-0.00123374
0.00099836
-0.00158156
0.00140745
-0.00192566
0.00173464
-0.00248129
0.00220204
-0.00323489
0.00261064
-0.00410008
0.0027314
-0.0045151
0.00242035
-0.00540112
0.00186026
-0.00538507
0.00128244
-0.00543508
0.000706447
-0.00518277
0.000222996
-0.00427194
-0.000282766
-0.00380024
-0.00152181
-0.00236098
-0.000639222
0.000552301
8.99949e-05
9.61824e-06
0.000261626
-0.000199437
0.000152738
-0.000347779
-3.11351e-06
-0.000262459
-0.000237822
-0.000284721
-0.000527305
4.32107e-05
-0.000809342
0.000214931
-0.00104119
0.00066935
-0.00127576
0.000903047
-0.00170357
0.00140518
-0.00239949
0.00162832
-0.00307951
0.0017356
-0.00364952
0.00145974
-0.00411525
0.00118958
-0.00417433
0.000916118
-0.00402049
0.000558027
-0.00376144
-0.000125621
-0.00329345
-0.00134135
-0.00340462
-0.00273116
-0.00288496
0.000488158
-0.000489037
0.000333808
0.000383781
-0.000243459
0.000454639
-0.000711531
0.000623792
-0.00113795
0.00090829
-0.00175939
0.00125539
-0.00228742
0.00166231
-0.00289403
0.0021146
-0.00332938
0.00253701
-0.0037593
0.0028207
-0.00423942
0.00299537
-0.00471786
0.00300754
-0.00508693
0.00285594
-0.00532656
0.00260883
-0.0051512
0.00238722
-0.0048652
0.0020789
-0.00438555
0.00152099
-0.00377047
0.000523996
-0.00360841
-0.000779395
-0.00322992
-0.0022007
-0.00297634
-0.000625198
0.000604828
-4.37727e-05
0.000141818
0.00018321
-0.000121487
0.000106796
-0.000285287
0.000143789
-0.000449035
0.000235243
-0.000681906
0.000391196
-0.000922375
0.000575205
-0.0012211
0.000729963
-0.00143843
0.000783682
-0.00194171
0.000862217
-0.00227055
0.000900872
-0.00292882
0.000784234
-0.00351362
0.000697628
-0.00359147
0.000637831
-0.00379491
0.000464676
-0.00369481
0.000327955
-0.00329564
-6.43167e-05
-0.00320574
-0.000736195
-0.00301065
-0.00149238
-0.00299356
-0.00224083
9.44166e-05
-0.000530182
0.000276881
0.000275941
-8.41728e-05
0.000260315
-0.000271264
0.000133904
-0.000263002
-8.92836e-06
-0.000167538
-0.00019774
2.41258e-05
-0.000435035
0.000108424
-0.000698103
0.000312436
-0.000947687
0.000389693
-0.00125238
0.000480133
-0.00169282
0.000571295
-0.00223836
0.000571348
-0.00264915
0.000656026
-0.0027312
0.000778898
-0.00273986
0.000905364
-0.00244575
0.00086563
-0.00216305
0.000494859
-0.00228794
-0.000115631
-0.00227516
-0.000788144
-0.00250967
-0.00138298
-0.000428442
0.000318228
-3.79582e-05
7.37382e-05
0.000474584
-0.000379057
0.000511469
-0.000751822
0.000691615
-0.00104671
0.000919859
-0.00141005
0.00114751
-0.00178736
0.00132203
-0.00205364
0.00146731
-0.00226765
0.00153139
-0.00251864
0.00153019
-0.00277332
0.00155754
-0.00298468
0.00161618
-0.00304092
0.00173278
-0.00284965
0.00186497
-0.00248184
0.00183567
-0.00221835
0.00156675
-0.00224754
0.00104846
-0.00226655
0.000481822
-0.00245354
-8.27301e-05
-0.00233175
-0.00058427
-8.29438e-06
-0.000463761
0.000246849
0.000122396
5.60342e-05
0.000177686
-0.00014214
0.000110435
-0.000281554
0.000133887
-0.000404329
0.000173052
-0.00065523
0.000242944
-0.000809053
0.000268207
-0.00104842
0.000250272
-0.00129431
0.000280479
-0.00149953
0.000252436
-0.00182045
0.000255424
-0.00216884
0.000440381
-0.00203216
0.000636387
-0.00189699
0.00076092
-0.00185369
0.000707381
-0.00184854
0.00053496
-0.00197968
0.000260442
-0.00199512
3.8837e-05
-0.00216357
-0.000270451
-0.00205501
-0.000294879
0.000116711
-0.000186414
7.39748e-05
0.000277754
-9.66572e-05
0.000205278
-0.000221208
7.11052e-05
-0.000187019
-8.64601e-05
-0.000138827
-0.000285371
-7.42716e-05
-0.000502439
6.72982e-06
-0.000736403
5.0579e-05
-0.000871273
4.02661e-05
-0.00114322
5.72891e-05
-0.00153925
0.000112185
-0.00163771
0.000220007
-0.00176694
0.00036319
-0.00171005
0.000481025
-0.00162156
0.000491263
-0.00165688
0.000377174
-0.00170457
0.000219653
-0.00181934
9.32646e-05
-0.00182666
-6.98721e-05
-0.0019011
-7.30115e-05
-0.000315414
-8.91937e-07
0.00012257
-6.48572e-05
0.000404846
-0.000343061
0.000410479
-0.000603155
0.00048981
-0.000828401
0.000585355
-0.00107049
0.000668942
-0.00122426
0.000691325
-0.00135287
0.000686556
-0.00153097
0.000669746
-0.00160949
0.000662812
-0.00177237
0.000741954
-0.00176198
0.000898869
-0.0016072
0.00105883
-0.00128343
0.00116445
-0.0011288
0.00109993
-0.0011174
0.000948764
-0.00117101
0.000743516
-0.00129223
0.000608068
-0.00129351
0.000416699
-0.00132563
-0.000175814
-2.49691e-05
-0.00019098
2.78098e-05
0.000139864
5.43391e-05
7.69725e-05
-0.000112458
1.53761e-05
-0.00024411
3.67894e-06
-0.000389696
2.20286e-05
-0.000525527
9.05431e-06
-0.000661981
1.97417e-05
-0.000846527
1.19842e-05
-0.000917786
-4.24151e-05
-0.00114833
5.37318e-06
-0.00125557
0.000138727
-0.00118491
0.000260071
-0.00115314
0.000380156
-0.00106171
0.000412851
-0.00107609
0.000380871
-0.00109846
0.000287401
-0.00117918
0.000179064
-0.00125341
6.15666e-05
-0.00136295
9.04114e-05
-9.38679e-05
-0.000198836
-7.85635e-05
-4.36592e-05
0.00010591
1.30073e-05
7.69984e-05
-0.000113704
3.87925e-06
-0.000215819
-2.03365e-05
-0.000317955
-3.91415e-05
-0.000446619
8.53931e-06
-0.000549339
-1.19903e-05
-0.000620606
-4.80463e-05
-0.000815335
7.55002e-06
-0.000868393
0.00012888
-0.000773272
0.000330497
-0.000722102
0.000550512
-0.000476816
0.000725483
-0.000357328
0.000768987
-0.000367292
0.000721156
-0.000442409
0.000625673
-0.000564635
0.000525954
-0.000657463
0.000442907
-0.00078015
0.000464724
-9.45982e-05
-8.71432e-05
-0.000124402
-2.63926e-05
-3.09496e-05
0.000161663
-0.000108076
7.16226e-05
-0.000167998
-3.82783e-05
-0.000162726
-0.000163952
-0.000119136
-0.000268034
-0.00010641
-0.000385423
-7.95402e-05
-0.000531686
-6.38571e-05
-0.000581231
1.56813e-05
-0.000598304
0.000183131
-0.000552529
0.000412808
-0.000330611
0.00059128
-0.000205014
0.000670793
-0.000199654
0.00063569
-0.00027922
0.000577789
-0.000388308
0.000482033
-0.000476245
0.000424321
-0.000599015
0.00038955
-0.000614821
0.000449685
-8.8917e-05
-9.85269e-05
-0.000107267
-8.30412e-05
0.000112417
-0.000110383
0.000204337
-0.000239084
0.000191527
-0.000366838
0.000213495
-0.000463891
0.00023407
-0.000570007
0.000250702
-0.000621981
0.000232332
-0.000693404
0.00024784
-0.000711315
0.000304631
-0.000654474
0.000415231
-0.000509266
0.000508791
-0.000420702
0.000539881
-0.000403444
0.000501315
-0.000462918
0.000436256
-0.000543555
0.000347821
-0.00065299
0.000252185
-0.000763396
0.000152592
-0.000885851
6.6418e-05
-0.000983435
7.98386e-05
-4.46391e-05
-9.60709e-05
-5.42005e-05
-7.10948e-05
-3.61428e-05
9.43292e-05
6.05903e-06
2.82509e-05
-7.9809e-05
-2.17086e-06
-0.000141307
-4.10381e-06
-0.000213982
5.3218e-06
-0.00027936
-2.39377e-05
-0.000371627
-2.33911e-05
-0.000439892
8.7233e-06
-0.000423746
5.3056e-05
-0.000448679
0.000119476
-0.000426364
0.000149736
-0.000446201
0.000150585
-0.000476839
0.00012736
-0.000527674
0.000101874
-0.000579589
6.60943e-05
-0.000645303
3.20531e-05
-0.000712845
3.62493e-05
-0.000797665
-1.1474e-05
-0.000824606
-7.3131e-05
-2.64422e-05
-0.000115814
-3.48983e-05
1.52609e-05
4.62616e-05
8.0121e-06
3.65843e-05
-5.48054e-05
9.02499e-06
-9.96382e-05
7.54907e-06
-0.000143631
-1.01122e-05
-0.000217704
8.56334e-06
-0.000274402
1.11966e-05
-0.000270049
6.43178e-05
-0.000293354
0.000140578
-0.000224211
0.00021832
-0.000189415
0.000245658
-0.000199075
0.000241604
-0.000229656
0.000222767
-0.000268855
0.000204292
-0.000309827
0.000189489
-0.000352848
0.000183428
-0.000388125
0.0002214
-0.000426093
0.000231265
-0.00042775
-7.71662e-06
-8.97828e-05
-5.66437e-06
-7.34201e-05
-5.26532e-06
3.80005e-06
8.59429e-05
-3.90144e-05
2.96516e-05
-5.04223e-05
-2.25555e-05
-4.04042e-05
-8.74625e-05
-1.50927e-05
-0.000140813
-1.58111e-05
-0.000187969
2.6047e-05
-0.000221408
6.71086e-05
-0.000177766
0.00012027
-0.000164547
0.000148787
-0.000167097
0.000147898
-0.000199345
0.000125984
-0.000238874
9.45693e-05
-0.000297733
6.50737e-05
-0.000351096
3.88305e-05
-0.00041224
1.95096e-05
-0.000476146
3.1795e-05
-0.000525501
2.84285e-05
-0.000569988
-5.12523e-05
1.07645e-05
-0.000102967
2.96863e-06
-3.13178e-05
7.74676e-05
-5.54696e-05
0.000106215
-9.36569e-05
9.41073e-05
-0.000137651
9.70782e-05
-0.000163023
9.53301e-05
-0.000206706
9.54007e-05
-0.000207602
8.03003e-05
-0.000228179
7.03205e-05
-0.000251556
5.89325e-05
-0.000264873
5.58186e-05
-0.000273379
5.96297e-05
-0.000270847
6.84791e-05
-0.000260377
8.95809e-05
-0.000243414
0.000118231
-0.000225641
0.000153005
-0.000216899
0.00019041
-0.000221917
0.000255748
-0.000208513
0.000295724
-0.000234358
1.48084e-05
-7.41463e-05
3.18898e-05
-6.59482e-05
1.12843e-05
-5.78004e-06
7.58205e-05
1.71489e-05
3.11282e-05
-2.06569e-05
1.43851e-05
-4.65477e-05
1.20758e-05
-7.77849e-05
2.04419e-05
-9.0138e-05
6.2959e-06
-0.000117568
7.30242e-06
-0.000147584
1.01019e-05
-0.000127431
9.85366e-06
-0.000163902
8.51123e-06
-0.000171027
8.37724e-06
-0.000182974
8.50812e-06
-0.000194457
1.08535e-05
-0.00020705
1.89933e-05
-0.000224855
2.42886e-05
-0.000248703
3.10248e-05
-0.000291878
3.59059e-05
-0.000333164
0.000105966
-3.31236e-05
3.95554e-05
-8.85955e-05
3.52183e-05
-9.86812e-06
4.55359e-05
2.74359e-05
4.2098e-05
3.41978e-05
3.39322e-06
2.20015e-05
-2.23727e-05
2.29573e-05
-3.22733e-05
1.7384e-05
-5.28544e-05
3.82758e-05
-4.30692e-05
5.4958e-05
-7.86181e-06
9.50194e-05
1.95367e-06
0.00014196
6.84816e-05
0.00018973
0.000103468
0.000213459
0.000118254
0.000225187
0.000108668
0.000234029
0.000100285
0.000247849
8.13273e-05
0.000262134
6.6836e-05
0.000279624
2.46684e-05
0.000304043
-9.41827e-06
0.000345246
3.87031e-05
-6.81329e-05
3.10909e-05
-6.82124e-05
2.06523e-05
4.45434e-06
8.61771e-05
4.96481e-05
5.69455e-05
3.17798e-05
3.97415e-05
8.87957e-06
2.62202e-05
-1.70511e-05
2.52256e-05
-2.22077e-05
3.28478e-05
-1.16764e-05
7.15274e-05
1.79544e-05
0.000119132
9.06064e-05
0.000168183
0.000133493
0.000191829
0.000151525
0.000193732
0.000135083
0.00018568
0.000115262
0.000177478
7.69486e-05
0.000176179
4.79094e-05
0.000180868
1.05022e-05
0.000201389
-2.80722e-05
0.000242816
-5.08485e-05
0.000291147
-1.9963e-05
3.79696e-05
-3.8837e-05
6.77086e-05
2.18456e-05
9.98314e-05
7.08866e-05
0.000104025
9.67115e-05
8.3313e-05
8.831e-05
6.60404e-05
7.44285e-05
5.39458e-05
6.55357e-05
4.9642e-05
6.86648e-05
6.62283e-05
8.14204e-05
9.5894e-05
0.00010114
0.000116449
0.000114872
0.000127492
0.000120502
0.000118504
0.000121075
0.000108307
0.000121959
8.70923e-05
0.000127278
7.22949e-05
0.000137184
4.84942e-05
0.000148942
3.04064e-05
0.000161216
-1.1611e-05
0.000179262
-4.73969e-05
0.000216399
5.94738e-05
3.33267e-05
0.000103015
5.92232e-05
0.000127356
0.000112349
0.000165875
0.000146739
0.000138341
0.000145383
0.000128121
0.00014136
0.000121886
0.000134087
0.000107811
0.000119975
8.83863e-05
0.000103232
7.05489e-05
9.61083e-05
5.83412e-05
9.0632e-05
4.9473e-05
8.51342e-05
4.6512e-05
8.21298e-05
4.81954e-05
7.28151e-05
5.65091e-05
6.6381e-05
7.11073e-05
5.06836e-05
9.05843e-05
3.46038e-05
0.000110975
8.41459e-06
0.000132847
-2.81412e-05
0.000153704
-6.2846e-05
0.000161796
5.6203e-05
7.29642e-05
7.27376e-05
0.000110743
0.000123945
0.000153872
0.000146431
0.000134753
0.000147707
0.000126964
0.000162305
0.000137543
0.000176626
0.00015318
0.000182047
0.000168094
0.000167006
0.000173133
0.000142602
0.000175278
0.000113877
0.000176889
8.5899e-05
0.000180361
6.08767e-05
0.000188545
4.18741e-05
0.000201466
2.92936e-05
0.000223246
2.49012e-05
0.000241386
2.74546e-05
0.000276006
3.9489e-05
0.000294519
6.126e-05
0.000333535
0.000127206
0.00033719
0.000193771
1.85939e-05
1.58952e-05
2.40589e-05
3.28439e-05
4.28493e-05
4.67736e-05
4.96081e-05
5.41807e-05
5.52175e-05
6.98302e-05
6.72414e-05
9.4901e-05
8.47344e-05
0.000126535
0.000104818
0.000156108
0.000123588
0.00017805
0.00014205
0.000196649
0.00016547
0.000211805
0.000188368
0.000223017
0.000212
0.000231951
0.000233131
0.000239846
0.000250126
0.00024937
0.000265142
0.000262392
0.00027337
0.000279543
0.000278054
0.000303138
0.000275189
0.000334475
0.000274866
0.000346482
0.00024159
-6.66632
-0.289548
-2.69898
-3.14888
0.473483
-0.299461
-0.530527
0.617107
-1.04402
0.820253
-0.336552
0.722543
0.391606
-0.126036
0.182103
-0.0202536
0.108533
0.0585935
0.0547917
0.0818461
0.0192776
0.0235072
0.027621
0.0203562
0.0252172
0.0489155
0.00524667
0.0386372
0.0253793
0.113732
-0.0280267
0.0707044
-0.0818151
-0.0161014
-0.0239889
0.0242055
0.00135198
0.0143333
-0.0174297
0.0549718
0.0180742
0.0182558
0.0223147
0.0318209
-0.0044314
0.0357618
0.0358965
-0.0205319
-0.0114476
0.0101746
-0.00422675
0.00280314
0.00400417
0.00336708
0.00711757
0.00346792
0.00810719
-0.000685434
0.0100239
-0.00232601
0.010769
-0.00759525
0.00150218
0.00404304
-0.00274947
0.00491658
-0.00518421
0.000159129
-0.000132558
0.000880374
-0.00142775
0.000257554
-0.000206701
-0.000165085
-1.14466
-0.187785
-0.726648
-0.907761
-0.226555
-0.33258
-0.311592
0.125748
-0.14468
0.098748
0.00197078
0.0894773
0.0745774
-0.108023
-0.00364619
-0.0550267
-0.0130078
-0.0233089
-0.0267799
0.00240483
-0.0156623
0.00828921
0.00855513
0.0203467
0.0177884
0.034289
0.0250148
0.0383127
0.0363351
0.0508802
0.0249758
0.0270514
-0.0087702
-0.0165725
-0.0170071
-0.00303506
-0.0106806
-0.000242206
-0.00474416
0.0130778
0.0120596
0.0136215
0.018331
0.0205706
0.013023
0.0235817
0.0109366
0.0035016
-0.00659668
-0.000743527
-0.00787364
-0.00414629
-0.00184282
-0.000624918
0.00122408
0.00166662
0.00407313
0.000816067
0.00402885
-0.000925748
0.00166234
-0.00275598
-0.000582563
0.000298078
-0.00200142
0.000116212
-0.00205882
-0.000480751
-0.000304569
-3.05918e-05
-0.000866188
-2.63791e-05
-0.000208795
-0.000105563
-0.855522
-0.259369
-0.261451
-0.245557
0.0462435
0.0190865
-0.0394169
0.282756
0.0185392
0.127243
0.111449
0.152741
0.197306
0.0526876
0.141225
0.0697711
0.0865026
0.047512
0.0395016
0.0349197
0.0204121
0.0212795
0.00893796
0.00655241
-0.00389531
-0.00371808
-0.0213909
-0.0151271
-0.0122269
0.000175833
-0.0100361
-0.00154052
-0.00381518
0.00266229
0.00312326
0.0178223
0.00975625
0.0108115
0.00209051
0.0142092
0.00671961
0.00252156
-0.00109416
0.00296037
-0.00747947
0.00442089
-0.000131204
0.0015579
-0.00110262
0.00764476
0.00417912
0.00613779
0.00544307
0.00431277
0.0023212
0.00120042
0.00259996
-0.000435121
0.0036175
-0.000242542
0.00310698
-0.000329711
0.0018114
0.00263001
-5.7334e-05
0.00165068
-0.000458968
0.000662324
0.000600929
0.000544599
-0.000238882
0.000293974
2.18574e-06
-6.23083e-05
-0.475026
-0.279983
-0.418924
-0.456667
-0.320808
-0.272505
-0.205475
-0.0164717
-0.0650557
-0.00172635
-0.000947335
-0.0105101
0.00183207
-0.0675427
-0.00964814
-0.0304217
-0.00628102
-0.00861949
-0.0092512
0.00458386
-0.00152411
0.0116846
0.011801
0.0205985
0.0169604
0.026937
0.0185567
0.0265353
0.0271698
0.0268777
0.0187704
0.0101968
-0.000480912
-0.0135888
-0.010212
-0.00496178
-0.00775293
0.00267761
0.00331235
0.0120267
0.0136813
0.0128014
0.0165863
0.0170955
0.0124454
0.0170288
0.00502408
0.00566162
-0.00475775
-0.00177108
-0.00610953
-0.00278652
-0.00042939
0.000783368
0.00173554
0.00238293
0.00363888
0.00143667
0.00301201
-0.000249195
0.000675984
-0.00124007
-0.000336067
0.000108308
-0.00127255
-9.89518e-05
-0.00104475
-0.000279031
-5.88878e-05
-9.99593e-05
-0.000618734
4.17248e-06
-0.000179491
-9.97273e-05
-0.248305
-0.133198
-0.0849408
-0.0452296
0.027761
0.036462
0.0864283
0.160293
0.117148
0.0928592
0.120144
0.0891167
0.125441
0.0502838
0.0913009
0.0502218
0.0539627
0.0316664
0.0299925
0.0192444
0.0152245
0.00908979
0.00244712
-0.00376951
-0.00870915
-0.0134557
-0.0174722
-0.0144205
-0.0123188
-0.00785556
-0.00641568
-0.00382635
0.00281526
0.00541433
0.0071451
0.0122671
0.00534725
0.00418225
0.00307991
0.00449197
0.000198577
-0.00372801
-0.00374656
-0.000554178
-0.00497687
0.00085053
-0.00262305
0.00359692
0.00100881
0.00569839
0.00392723
0.00524667
0.00402469
0.00287312
0.00124719
0.000576177
0.00103612
-0.000482146
0.00200352
6.28986e-05
0.00194316
0.000608143
0.00150691
0.00168504
2.50074e-05
0.00107933
0.000106619
0.000512323
0.000488523
0.000287146
-0.000110908
0.000255525
2.39131e-06
-5.9658e-05
-0.202629
-0.192364
-0.18414
-0.253729
-0.1883
-0.197929
-0.116185
-0.101698
-0.0819393
-0.0719136
-0.0523691
-0.0589491
-0.0428855
-0.0556739
-0.0236623
-0.0239719
-0.00758055
-0.00295775
-0.00229433
0.00487028
0.00407619
0.0112026
0.0114547
0.0174308
0.0153495
0.0209218
0.0145967
0.0189195
0.0185843
0.015229
0.00989069
0.00295765
-0.000755197
-0.00888679
-0.00485456
-0.00423805
-0.00386367
0.00560494
0.00730819
0.0117608
0.0131244
0.0113695
0.014052
0.0136367
0.00977253
0.0114706
0.00304777
0.00461067
-0.00283274
-0.001569
-0.00409445
-0.00147622
0.000553949
0.00153693
0.00214617
0.00256763
0.00314178
0.00164584
0.00227755
0.00016833
0.000442697
-0.000476935
-9.98786e-05
7.12525e-05
-0.000700131
1.21144e-05
-0.000526469
-0.00015346
4.58105e-05
-0.000132987
-0.000436023
1.76738e-05
-0.000154558
-8.96364e-05
-0.135182
-0.11332
-0.115763
-0.0671444
-0.0614001
-0.0112864
0.00467159
0.0494078
0.0411825
0.0536958
0.0480221
0.0540575
0.0453664
0.0296031
0.0385745
0.0257832
0.0255914
0.0181302
0.0152539
0.0100374
0.00600682
0.00333529
-0.00219812
-0.00547448
-0.0101424
-0.00998529
-0.0124692
-0.0116107
-0.00904653
-0.0081832
-0.00516841
-0.0030651
0.00262692
0.00626184
0.00739001
0.00684272
0.00073103
0.00215352
0.000456061
-0.00184296
-0.0041942
-0.00417999
-0.00444785
-0.00284096
-0.00524992
-0.00127608
-0.00343233
0.00303375
0.00144469
0.00466158
0.00335475
0.00372844
0.00235476
0.00164008
0.000371963
4.61594e-05
0.000154559
-0.000541673
0.00109022
0.000235322
0.00123367
0.000605505
0.00107806
0.00117489
0.000117363
0.000693996
0.000124473
0.000308866
0.00037836
0.000157065
-3.02242e-05
0.000221716
-5.53894e-06
-6.99032e-05
-0.0910843
-0.0905345
-0.0796704
-0.0992224
-0.0952113
-0.0766461
-0.0772826
-0.0472666
-0.0700273
-0.0610507
-0.0595733
-0.0532573
-0.0419025
-0.039431
-0.0179521
-0.0153636
-0.00160582
0.000636799
0.00298947
0.0041782
0.00666757
0.00819571
0.0101381
0.0123993
0.0139073
0.0151437
0.0121258
0.0123723
0.0116734
0.00794715
0.00371045
-6.44847e-05
-0.00146638
-0.00427076
-0.00183287
-0.00189383
0.000340625
0.00739687
0.00856035
0.0106793
0.0117783
0.0097214
0.0109266
0.00982202
0.00657727
0.00708372
0.00218248
0.00332226
-0.00104624
-0.000578805
-0.00198333
-0.000506442
0.00124181
0.0016516
0.00226001
0.00224783
0.00263316
0.00158804
0.0018215
0.000406308
0.000456614
-5.50465e-05
0.000112144
0.000191814
-0.000245819
0.000169114
-0.000254193
-6.9394e-05
9.3143e-05
-0.000120269
-0.000299588
2.45404e-05
-0.000129281
-7.71581e-05
-0.0917976
-0.0930502
-0.0983483
-0.108197
-0.0819965
-0.0902849
-0.0485903
-0.0626293
-0.0353737
-0.0275706
-0.009546
-0.00358639
0.000396232
0.00207415
0.00611715
0.0064617