/*--------------------------------*- C++ -*----------------------------------*\
| =========                 |                                                 |
| \\      /  F ield         | OpenFOAM: The Open Source CFD Toolbox           |
|  \\    /   O peration     | Version:  2312                                  |
|   \\  /    A nd           | Website:  www.openfoam.com                      |
|    \\/     M anipulation  |                                                 |
\*---------------------------------------------------------------------------*/
FoamFile
{
    version     2.0;
    format      ascii;
    arch        "LSB;label=32;scalar=64";
    class       volScalarField;
    location    "100";
    object      magR;
}
// * * * * * * * * * * * * * * * * * * * * * * * * * * * * * * * * * * * * * //

dimensions      [0 2 -2 0 0 0 0];

internalField   nonuniform List<scalar> 
11040
(
0.188199
0.397361
0.532127
0.382015
0.0268133
0.00870504
0.0793263
0.12378
0.15317
0.151048
0.154645
0.159524
0.160179
0.15462
0.135638
0.140835
0.169782
0.195284
0.153848
0.0748268
0.156303
0.413741
0.818629
1.13894
1.25617
1.20376
1.11594
0.993419
0.768709
0.551794
0.269182
0.229567
0.337882
0.589586
1.25584
1.8385
2.65018
3.64145
4.67254
5.62446
5.38209
0.0393472
0.0466
0.0776084
0.265483
0.415031
0.459015
0.949533
0.739484
0.41602
0.280139
0.217225
0.182329
0.143982
0.115244
0.115288
0.14302
0.178002
0.206549
0.226062
0.262244
0.301388
0.286424
0.22166
0.134281
0.0742703
0.0726937
0.0601978
0.0650346
0.158846
0.2403
0.222783
0.0573685
0.18728
0.337566
0.456261
0.539869
0.604829
0.639285
0.654493
0.6059
0.760535
0.0222892
0.0161308
0.0116901
0.0155742
0.120005
0.26658
0.757387
1.20101
1.14128
0.744624
0.523964
0.450294
0.379882
0.288194
0.231707
0.244279
0.295588
0.330321
0.340913
0.361644
0.400973
0.403507
0.312938
0.192786
0.147779
0.191214
0.29609
0.497957
0.714084
0.718259
0.435637
0.167958
0.429731
0.662019
0.838263
0.960085
1.03055
1.02769
0.966096
0.759844
0.93831
0.0155765
0.0122146
0.00952575
0.00794423
0.00297202
0.0380735
0.169437
0.599678
1.19816
1.35866
1.09612
0.827328
0.683924
0.541498
0.405491
0.357352
0.403875
0.446739
0.439341
0.458028
0.570072
0.647267
0.564962
0.418922
0.37129
0.45964
0.663476
0.961459
1.14341
0.93032
0.449844
0.414782
0.819483
1.16825
1.4381
1.62865
1.72863
1.71368
1.57718
1.23787
1.15763
0.0108417
0.00952106
0.00823442
0.00690739
0.00629974
0.00287535
0.00922146
0.0764975
0.387804
0.972373
1.38887
1.3706
1.15326
0.915715
0.692112
0.551673
0.549497
0.592424
0.547062
0.521742
0.711117
0.8977
0.852937
0.667879
0.585647
0.738686
1.07148
1.38693
1.38609
0.947734
0.459456
0.785793
1.32548
1.80876
2.18965
2.46484
2.60358
2.58829
2.38871
1.9639
1.62878
0.00738055
0.00678936
0.00607307
0.00530492
0.00477407
0.00474869
0.00244514
0.00117981
0.0232145
0.208019
0.653657
1.15965
1.40884
1.34865
1.10954
0.872582
0.778524
0.794638
0.726656
0.571852
0.744067
1.03053
1.06111
0.847727
0.729931
1.00379
1.45662
1.72206
1.45903
0.841746
0.667681
1.27284
1.94464
2.56859
3.07281
3.44024
3.62495
3.6183
3.37434
2.92304
2.43318
0.00513218
0.00485205
0.00455718
0.00417002
0.00366438
0.00344379
0.00356954
0.00188662
1.45185e-05
0.00297415
0.0817364
0.346417
0.793532
1.21168
1.35495
1.24386
1.11132
1.07648
0.993658
0.725646
0.652282
0.960738
1.09548
0.88031
0.719813
1.18683
1.76274
1.91222
1.40779
0.747209
1.10008
1.87928
2.67605
3.4343
4.06353
4.52263
4.75622
4.76668
4.50847
4.09217
3.55668
0.00360927
0.00345974
0.00334637
0.00319735
0.00296422
0.00262678
0.00247609
0.00268771
0.00163541
6.98127e-05
3.84714e-07
0.0128484
0.145548
0.48115
0.919922
1.21432
1.33072
1.38405
1.34203
1.06643
0.653788
0.682398
0.891427
0.70684
0.443275
1.2637
1.93127
1.88716
1.19916
0.891398
1.70353
2.61415
3.51881
4.39041
5.12623
5.66448
5.94211
5.98201
5.75139
5.42964
4.92972
0.00256852
0.00248442
0.00242453
0.00236225
0.00226838
0.00212309
0.00187735
0.00178266
0.00202143
0.00156857
3.24433e-05
6.25667e-05
2.0895e-05
0.0529493
0.270817
0.621075
0.996916
1.35744
1.57556
1.48013
1.0717
0.618251
0.576393
0.508044
0.401294
1.38112
1.9482
1.65264
0.89752
1.34166
2.44908
3.48123
4.47146
5.41759
6.22261
6.80556
7.10801
7.17295
6.98808
6.78641
6.42128
0.00184492
0.00178993
0.00174991
0.00172018
0.00168137
0.00161943
0.00152
0.00134489
0.0012779
0.00148616
0.00132113
0.000255501
5.60873e-06
0.00158617
0.0198213
0.126987
0.351374
0.744328
1.25696
1.59342
1.54012
1.22993
0.962132
1.04312
1.44275
1.9506
1.96914
1.25606
0.706575
1.96841
3.31348
4.47608
5.53508
6.5148
7.32815
7.89809
8.17635
8.21781
8.02107
7.92991
7.73658
0.00133341
0.00129585
0.00126455
0.00124276
0.00122453
0.00119333
0.00114788
0.00107862
0.000961345
0.000907082
0.00106917
0.0010511
0.000337473
1.37948e-05
0.000197483
0.00251681
0.028412
0.134873
0.481547
1.03104
1.5022
1.71333
1.75642
1.97503
2.725
3.08115
2.39049
1.02558
0.818625
2.61506
4.19881
5.52827
6.66264
7.63273
8.4011
8.89855
9.08163
9.01551
8.71777
8.64295
8.26728
0.000969286
0.000944209
0.000916031
0.000897459
0.000883274
0.000865585
0.000838965
0.000803901
0.000755996
0.000678298
0.000638665
0.000729454
0.000794847
0.000373071
7.96953e-06
1.21483e-05
0.000460066
0.00054203
0.0392832
0.295011
0.826015
1.48406
2.10496
2.7366
3.72511
4.31313
3.32116
1.42746
0.898499
3.00294
4.83085
6.33982
7.58815
8.62644
9.39836
9.77127
9.79856
9.52679
9.02948
8.67855
7.8688
0.000709045
0.000691901
0.000667276
0.000650175
0.000637897
0.000624066
0.000606076
0.000581533
0.000552403
0.000517216
0.000465212
0.000432375
0.000498483
0.000562792
0.000407618
6.56898e-05
4.6802e-06
2.93369e-06
0.00113995
0.0479355
0.200323
0.743877
1.60634
2.7268
4.038
4.97524
4.23501
2.09227
0.599105
3.07978
5.2091
6.9361
8.28535
9.34707
10.1201
10.5064
10.3814
9.81079
8.99638
8.06445
6.68162
0.000521712
0.000510366
0.000489472
0.00047428
0.000463715
0.000451524
0.0004363
0.000418121
0.000394426
0.000367333
0.000336846
0.000298885
0.000272749
0.000313637
0.000391271
0.000374206
0.000134817
9.04731e-06
2.88638e-08
0
0.0356344
0.170101
0.783745
1.97517
3.56736
4.83637
4.63522
2.69219
0.983415
3.23572
5.63194
7.61926
9.11848
10.2075
10.9151
11.2015
10.9789
10.1444
8.92721
7.29249
5.22709
0.000386157
0.00037907
0.000362138
0.000349674
0.000341152
0.000331269
0.000318641
0.000303255
0.000284789
0.000261104
0.000233528
0.000203496
0.00017004
0.000143862
0.000176266
0.000277518
0.000315719
0.000137108
8.97284e-07
2.24356e-07
0
0.0299202
0.160131
0.981437
2.54203
4.04977
4.40873
3.29515
2.5252
4.13311
6.50174
8.69105
10.3994
11.595
12.2881
12.4444
12.044
11.0518
9.46857
7.40805
4.80026
0.000287477
0.000283567
0.000270578
0.000261241
0.000255198
0.000248217
0.000238881
0.000227177
0.000213225
0.000195562
0.000173094
0.000145442
0.000113721
7.69683e-05
4.14239e-05
8.54644e-05
0.000198138
0.000285759
0.000139447
3.01754e-06
3.47327e-07
0
0.0277284
0.16831
1.19736
2.77781
3.79432
3.83432
3.98611
5.41338
7.6014
9.88236
11.8501
13.3052
14.1838
14.4346
14.0348
13.0156
11.3339
9.04206
6.10935
0.000215706
0.000214083
0.000204626
0.000198238
0.000194598
0.00019041
0.000184598
0.000177141
0.000167895
0.000157102
0.000143287
0.000125465
0.000103123
7.77293e-05
5.14262e-05
3.54463e-05
6.9628e-05
0.000162641
0.000267771
0.000164165
3.80516e-06
4.25601e-07
0
0.0226077
0.135114
1.0702
2.50904
3.69681
4.69699
6.13257
8.13597
10.3856
12.5618
14.3995
15.7114
16.4198
16.4704
15.7849
14.3367
12.0666
9.00233
0.000165153
0.000165027
0.000158408
0.000154449
0.000152767
0.000150849
0.000147989
0.000144222
0.000139291
0.000133812
0.000127356
0.000119226
0.000109093
9.75209e-05
8.76847e-05
8.34039e-05
8.5645e-05
0.000102665
0.000166314
0.000255115
0.000168723
7.26849e-06
9.51304e-07
0
0.0137957
0.0700009
0.640758
1.91765
3.60564
5.5059
7.59036
9.80671
12.0419
14.1373
15.9236
17.2233
17.9184
17.9565
17.2349
15.6761
13.1932
0.000129683
0.000130462
0.000125947
0.000123718
0.000123366
0.000122982
0.000122102
0.000120831
0.000118888
0.00011668
0.000114799
0.000112489
0.000109654
0.000106391
0.000103601
0.000103764
0.000107817
0.000113948
0.000128995
0.000180828
0.00024501
0.000162866
1.75899e-05
1.75331e-06
0
0.00496253
0.00893465
0.218401
0.994169
2.56846
4.79779
7.34906
9.93908
12.3984
14.6311
16.5235
17.9376
18.7512
18.9359
18.3993
16.9975
0.000103865
0.000105124
0.000102098
0.000101023
0.000101498
0.000102065
0.000102415
0.000102677
0.000102685
0.000102502
0.000102941
0.000103703
0.000104484
0.000105427
0.000106649
0.00010897
0.000113894
0.000120803
0.000127888
0.000144242
0.000192701
0.00023717
0.000165897
1.88431e-05
2.00853e-06
0
0.000222761
0.0186152
0.0369921
0.251511
1.00843
2.58008
4.89486
7.62911
10.4484
13.0994
15.4198
17.2731
18.5548
19.1573
19.0525
8.43732e-05
8.58481e-05
8.38648e-05
8.35412e-05
8.44946e-05
8.55961e-05
8.66645e-05
8.77915e-05
8.89198e-05
8.98798e-05
9.1491e-05
9.38476e-05
9.64585e-05
9.92862e-05
0.000102503
0.000106245
0.000111163
0.000117883
0.000125408
0.000132426
0.000151438
0.000191672
0.000229218
0.000180073
2.51149e-05
3.00138e-06
0
0
0.00288315
0.0204422
0.0308117
0.158978
0.623435
1.68824
3.43163
5.69276
8.20593
10.721
13.0605
15.0828
16.6776
6.92282e-05
7.07809e-05
6.95429e-05
6.9686e-05
7.0884e-05
7.22577e-05
7.37061e-05
7.52783e-05
7.69918e-05
7.86006e-05
8.06954e-05
8.366e-05
8.70441e-05
9.06676e-05
9.46861e-05
9.90977e-05
0.000104107
0.00011005
0.000117249
0.000124174
0.000132396
0.000149919
0.000184174
0.000210947
0.000203786
5.91995e-05
5.9997e-06
1.09997e-07
0
0
0.00226473
0.0127035
0.00912175
0.0657288
0.219417
0.612261
1.37501
2.53908
4.03114
5.72482
7.45597
5.72389e-05
5.87597e-05
5.80392e-05
5.84725e-05
5.97717e-05
6.12632e-05
6.28741e-05
6.46502e-05
6.66122e-05
6.8595e-05
7.08523e-05
7.38666e-05
7.73981e-05
8.12387e-05
8.53995e-05
8.99016e-05
9.48008e-05
0.000100163
0.000106337
0.000112906
0.000120105
0.00012919
0.0001419
0.00016703
0.000195641
0.000191992
0.000138186
1.42505e-05
2.43594e-06
1.11797e-07
0
0
0.00019567
0.00482718
0.0171518
0.0150103
0.0608028
0.143551
0.281113
0.529536
0.928074
4.75695e-05
4.90303e-05
4.86658e-05
4.92649e-05
5.0565e-05
5.20694e-05
5.36977e-05
5.55171e-05
5.75099e-05
5.96053e-05
6.18401e-05
6.47019e-05
6.81196e-05
7.18549e-05
7.58292e-05
8.00821e-05
8.46101e-05
8.94545e-05
9.47246e-05
0.000100268
0.000106865
0.000114298
0.000121554
0.00013187
0.000147284
0.000171861
0.000185415
0.000164932
0.000117981
1.74778e-05
2.4632e-06
2.81907e-07
7.37456e-09
0
0
0.000361014
0.00354073
0.0103338
0.00397019
0.0223937
0.0557158
3.97041e-05
4.10523e-05
4.09341e-05
4.16191e-05
4.28713e-05
4.43157e-05
4.58898e-05
4.7651e-05
4.95702e-05
5.16239e-05
5.3743e-05
5.6355e-05
5.95143e-05
6.29494e-05
6.65806e-05
7.04432e-05
7.45013e-05
7.87872e-05
8.33384e-05
8.79627e-05
9.34164e-05
9.97768e-05
0.000106062
0.000112395
0.000119767
0.000130192
0.000144717
0.00016174
0.000171279
0.000154244
0.000118362
5.49046e-05
1.33457e-06
7.38783e-07
2.33915e-07
2.52077e-08
0
0
1.79085e-05
0.000560134
0.00239966
3.32274e-05
3.44587e-05
3.45156e-05
3.522e-05
3.64008e-05
3.77488e-05
3.92344e-05
4.08838e-05
4.26896e-05
4.46357e-05
4.66253e-05
4.89346e-05
5.17528e-05
5.4807e-05
5.80568e-05
6.14754e-05
6.50676e-05
6.87899e-05
7.27149e-05
7.65952e-05
8.10448e-05
8.6139e-05
9.13525e-05
9.665e-05
0.000101998
0.000107428
0.00011392
0.00012235
0.000133053
0.000145399
0.000153504
0.000150555
0.000131448
9.66921e-05
5.51469e-05
5.70251e-06
1.11615e-06
2.44471e-07
1.48553e-07
5.9527e-08
0
2.78738e-05
2.89696e-05
2.9143e-05
2.98398e-05
3.09322e-05
3.21654e-05
3.35416e-05
3.5058e-05
3.67244e-05
3.85118e-05
4.03627e-05
4.24022e-05
4.48511e-05
4.75257e-05
5.0389e-05
5.33869e-05
5.65243e-05
5.97352e-05
6.30916e-05
6.63702e-05
7.00353e-05
7.41052e-05
7.82232e-05
8.25021e-05
8.68631e-05
9.11261e-05
9.53251e-05
9.96292e-05
0.000104461
0.000110457
0.000117463
0.000125441
0.000132991
0.000136611
0.000134772
0.000122636
0.000101614
7.38771e-05
4.47461e-05
1.75928e-05
1.90213e-06
2.34095e-05
2.4391e-05
2.46305e-05
2.52963e-05
2.62925e-05
2.74138e-05
2.86658e-05
3.00419e-05
3.15488e-05
3.31632e-05
3.48511e-05
3.66533e-05
3.87595e-05
4.10936e-05
4.3582e-05
4.61771e-05
4.88772e-05
5.1632e-05
5.44774e-05
5.72532e-05
6.02917e-05
6.35995e-05
6.6863e-05
7.02347e-05
7.36663e-05
7.70796e-05
8.04134e-05
8.36487e-05
8.67681e-05
8.98825e-05
9.31175e-05
9.67165e-05
0.000100846
0.000105451
0.000110239
0.00011536
0.000118908
0.000119434
0.000117967
0.000109281
0.000103137
1.96811e-05
2.05412e-05
2.08176e-05
2.14533e-05
2.23475e-05
2.33633e-05
2.44855e-05
2.57275e-05
2.70725e-05
2.85204e-05
3.00311e-05
3.16239e-05
3.34282e-05
3.54525e-05
3.75766e-05
3.98047e-05
4.21e-05
4.44464e-05
4.68403e-05
4.91814e-05
5.16821e-05
5.43664e-05
5.69588e-05
5.96182e-05
6.22977e-05
6.49687e-05
6.75699e-05
7.01108e-05
7.25511e-05
7.48924e-05
7.71144e-05
7.92519e-05
8.13237e-05
8.3411e-05
8.55839e-05
8.79588e-05
9.05827e-05
9.30507e-05
9.64755e-05
9.65061e-05
0.000102895
1.65467e-05
1.73047e-05
1.75949e-05
1.81871e-05
1.89888e-05
1.99021e-05
2.09026e-05
2.20146e-05
2.32091e-05
2.44969e-05
2.58426e-05
2.72432e-05
2.87854e-05
3.05256e-05
3.23385e-05
3.42401e-05
3.61916e-05
3.8182e-05
4.01958e-05
4.21516e-05
4.42182e-05
4.64e-05
4.84816e-05
5.05945e-05
5.27059e-05
5.47831e-05
5.67981e-05
5.87553e-05
6.06396e-05
6.24467e-05
6.41558e-05
6.57676e-05
6.7265e-05
6.86551e-05
6.99709e-05
7.12098e-05
7.24432e-05
7.34147e-05
7.51925e-05
7.41597e-05
7.86163e-05
1.39144e-05
1.45656e-05
1.48652e-05
1.54116e-05
1.61267e-05
1.69418e-05
1.78331e-05
1.8819e-05
1.98775e-05
2.10121e-05
2.22056e-05
2.34323e-05
2.47559e-05
2.6238e-05
2.77844e-05
2.93982e-05
3.1057e-05
3.27349e-05
3.44346e-05
3.60754e-05
3.77989e-05
3.95778e-05
4.12639e-05
4.29468e-05
4.46245e-05
4.62628e-05
4.7844e-05
4.93533e-05
5.0797e-05
5.21667e-05
5.3464e-05
5.46864e-05
5.58302e-05
5.68879e-05
5.78808e-05
5.87897e-05
5.96667e-05
6.02559e-05
6.1481e-05
6.01107e-05
6.36092e-05
1.16916e-05
1.22556e-05
1.25513e-05
1.30447e-05
1.36875e-05
1.44083e-05
1.52029e-05
1.60687e-05
1.70067e-05
1.79996e-05
1.90526e-05
2.01265e-05
2.12708e-05
2.25179e-05
2.38356e-05
2.51957e-05
2.66002e-05
2.80125e-05
2.94471e-05
3.08128e-05
3.22422e-05
3.36929e-05
3.50614e-05
3.64139e-05
3.7762e-05
3.90564e-05
4.02937e-05
4.1465e-05
4.25827e-05
4.3636e-05
4.46292e-05
4.5554e-05
4.64132e-05
4.72032e-05
4.79462e-05
4.86197e-05
4.92743e-05
4.96864e-05
5.06698e-05
4.93304e-05
5.23907e-05
9.81582e-06
1.02968e-05
1.05841e-05
1.10301e-05
1.16027e-05
1.22401e-05
1.2945e-05
1.37055e-05
1.45324e-05
1.54013e-05
1.63241e-05
1.72638e-05
1.82517e-05
1.93101e-05
2.04332e-05
2.15818e-05
2.27657e-05
2.39506e-05
2.51454e-05
2.62844e-05
2.74689e-05
2.86575e-05
2.9768e-05
3.08564e-05
3.19285e-05
3.29592e-05
3.39407e-05
3.48669e-05
3.57421e-05
3.65598e-05
3.73213e-05
3.80272e-05
3.86794e-05
3.92775e-05
3.9838e-05
4.03447e-05
4.08431e-05
4.11376e-05
4.19442e-05
4.06882e-05
4.34374e-05
8.22716e-06
8.64133e-06
8.91044e-06
9.31289e-06
9.82001e-06
1.03855e-05
1.10053e-05
1.16763e-05
1.23991e-05
1.31619e-05
1.39633e-05
1.47876e-05
1.56394e-05
1.65429e-05
1.74949e-05
1.84672e-05
1.94601e-05
2.04586e-05
2.14625e-05
2.24223e-05
2.34019e-05
2.43813e-05
2.52862e-05
2.61705e-05
2.70353e-05
2.78655e-05
2.8643e-05
2.93715e-05
3.00537e-05
3.0693e-05
3.12843e-05
3.18327e-05
3.23367e-05
3.28003e-05
3.32331e-05
3.36257e-05
3.4015e-05
3.42305e-05
3.49e-05
3.37478e-05
3.62451e-05
6.88291e-06
7.23527e-06
7.48741e-06
7.85054e-06
8.29628e-06
8.7978e-06
9.34228e-06
9.93365e-06
1.05636e-05
1.12316e-05
1.19265e-05
1.26472e-05
1.33782e-05
1.41488e-05
1.49579e-05
1.57796e-05
1.66134e-05
1.74549e-05
1.82916e-05
1.90898e-05
1.99032e-05
2.07139e-05
2.14563e-05
2.21778e-05
2.2875e-05
2.354e-05
2.4165e-05
2.47531e-05
2.52991e-05
2.58067e-05
2.6274e-05
2.67072e-05
2.7104e-05
2.74688e-05
2.78105e-05
2.81218e-05
2.84356e-05
2.86024e-05
2.91752e-05
2.81325e-05
3.04472e-05
5.7424e-06
6.04405e-06
6.27832e-06
6.60155e-06
6.99705e-06
7.43876e-06
7.9198e-06
8.43594e-06
8.98759e-06
9.5683e-06
1.01732e-05
1.07987e-05
1.14316e-05
1.20888e-05
1.27764e-05
1.34691e-05
1.41706e-05
1.48741e-05
1.55765e-05
1.62473e-05
1.6926e-05
1.75941e-05
1.82043e-05
1.87907e-05
1.9359e-05
1.99006e-05
2.04057e-05
2.08745e-05
2.13087e-05
2.17121e-05
2.2085e-05
2.24311e-05
2.27505e-05
2.30455e-05
2.33246e-05
2.35811e-05
2.38437e-05
2.3982e-05
2.44833e-05
2.35567e-05
2.57225e-05
4.77551e-06
5.03256e-06
5.24855e-06
5.53968e-06
5.88711e-06
6.27784e-06
6.69894e-06
7.1532e-06
7.632e-06
8.13946e-06
8.66317e-06
9.20779e-06
9.75352e-06
1.03168e-05
1.0899e-05
1.14871e-05
1.20771e-05
1.26706e-05
1.32607e-05
1.38234e-05
1.43906e-05
1.49478e-05
1.5456e-05
1.59425e-05
1.64091e-05
1.68512e-05
1.72631e-05
1.76472e-05
1.80042e-05
1.83378e-05
1.86487e-05
1.89399e-05
1.92101e-05
1.94619e-05
1.97027e-05
1.9927e-05
2.01594e-05
2.02868e-05
2.07338e-05
1.99246e-05
2.19561e-05
3.9553e-06
4.17544e-06
4.37586e-06
4.63436e-06
4.94128e-06
5.28587e-06
5.65667e-06
6.05221e-06
6.47057e-06
6.91071e-06
7.36652e-06
7.83607e-06
8.31026e-06
8.7939e-06
9.29003e-06
9.78803e-06
1.02872e-05
1.0786e-05
1.12833e-05
1.17573e-05
1.22351e-05
1.26982e-05
1.31199e-05
1.35205e-05
1.39055e-05
1.42691e-05
1.46094e-05
1.49263e-05
1.52227e-05
1.54998e-05
1.576e-05
1.60046e-05
1.62344e-05
1.64504e-05
1.666e-05
1.68569e-05
1.70641e-05
1.71827e-05
1.75842e-05
1.6877e-05
1.87918e-05
3.25966e-06
3.45008e-06
3.63512e-06
3.86767e-06
4.14043e-06
4.44175e-06
4.76749e-06
5.11212e-06
5.4772e-06
5.8578e-06
6.25325e-06
6.65767e-06
7.06799e-06
7.48042e-06
7.90179e-06
8.32439e-06
8.74609e-06
9.16507e-06
9.5841e-06
9.98158e-06
1.038e-05
1.07668e-05
1.1122e-05
1.14574e-05
1.17785e-05
1.20819e-05
1.23674e-05
1.26344e-05
1.28861e-05
1.31238e-05
1.33501e-05
1.35659e-05
1.37721e-05
1.39696e-05
1.41644e-05
1.43508e-05
1.45487e-05
1.46722e-05
1.50454e-05
1.44449e-05
1.62621e-05
2.66634e-06
2.83253e-06
3.00575e-06
3.21658e-06
3.4588e-06
3.72728e-06
4.01352e-06
4.31493e-06
4.63059e-06
4.96025e-06
5.3008e-06
5.64966e-06
6.0033e-06
6.35931e-06
6.71973e-06
7.08095e-06
7.43842e-06
7.79332e-06
8.14611e-06
8.48412e-06
8.82335e-06
9.15186e-06
9.45294e-06
9.73721e-06
1.00091e-05
1.02674e-05
1.05109e-05
1.074e-05
1.09572e-05
1.11637e-05
1.13615e-05
1.15528e-05
1.17381e-05
1.19182e-05
1.20976e-05
1.22723e-05
1.24582e-05
1.25832e-05
1.29239e-05
1.24257e-05
1.41391e-05
2.1581e-06
2.3039e-06
2.46406e-06
2.65632e-06
2.87608e-06
3.11496e-06
3.36987e-06
3.63505e-06
3.91167e-06
4.19643e-06
4.49031e-06
4.78892e-06
5.09202e-06
5.39342e-06
5.69798e-06
6.00495e-06
6.30846e-06
6.60847e-06
6.90662e-06
7.19115e-06
7.47468e-06
7.74977e-06
8.00492e-06
8.24663e-06
8.47867e-06
8.70067e-06
8.91213e-06
9.11336e-06
9.30649e-06
9.49323e-06
9.67542e-06
9.85468e-06
1.00318e-05
1.02076e-05
1.03856e-05
1.05621e-05
1.07509e-05
1.08896e-05
1.12157e-05
1.08097e-05
1.24361e-05
1.73139e-06
1.86111e-06
2.00952e-06
2.18316e-06
2.37769e-06
2.59073e-06
2.81688e-06
3.05153e-06
3.29408e-06
3.54372e-06
3.7998e-06
4.06044e-06
4.32483e-06
4.58954e-06
4.85559e-06
5.1222e-06
5.38235e-06
5.63985e-06
5.89638e-06
6.1449e-06
6.39423e-06
6.63746e-06
6.86375e-06
7.07819e-06
7.2845e-06
7.48307e-06
7.67248e-06
7.85323e-06
8.02669e-06
8.1952e-06
8.36035e-06
8.52453e-06
8.6882e-06
8.8532e-06
9.02261e-06
9.1949e-06
9.37876e-06
9.52496e-06
9.82918e-06
9.52492e-06
1.10659e-05
1.38669e-06
1.51139e-06
1.65359e-06
1.81334e-06
1.98686e-06
2.17233e-06
2.36574e-06
2.56705e-06
2.77442e-06
2.98891e-06
3.20764e-06
3.42925e-06
3.65089e-06
3.86983e-06
4.08884e-06
4.31141e-06
4.52975e-06
4.74389e-06
4.95418e-06
5.15646e-06
5.35742e-06
5.5548e-06
5.74322e-06
5.9255e-06
6.10292e-06
6.27649e-06
6.4459e-06
6.61182e-06
6.77455e-06
6.93561e-06
7.09619e-06
7.25792e-06
7.42103e-06
7.58664e-06
7.75753e-06
7.93187e-06
8.11831e-06
8.27254e-06
8.56548e-06
8.31984e-06
9.77564e-06
1.08724e-06
1.21226e-06
1.35782e-06
1.51686e-06
1.68353e-06
1.85468e-06
2.02742e-06
2.20078e-06
2.37598e-06
2.55583e-06
2.74151e-06
2.93365e-06
3.13161e-06
3.33359e-06
3.53775e-06
3.74097e-06
3.94124e-06
4.1412e-06
4.34193e-06
4.53884e-06
4.73582e-06
4.92808e-06
5.11113e-06
5.28672e-06
5.45719e-06
5.62379e-06
5.78634e-06
5.94553e-06
6.10265e-06
6.25924e-06
6.41618e-06
6.57528e-06
6.73767e-06
6.90502e-06
7.07971e-06
7.26169e-06
7.45659e-06
7.63322e-06
7.92421e-06
7.78963e-06
9.19024e-06
7.70878e-07
8.74962e-07
1.01016e-06
1.16482e-06
1.33174e-06
1.50567e-06
1.6819e-06
1.85619e-06
2.02712e-06
2.19373e-06
2.35604e-06
2.51323e-06
2.66548e-06
2.81103e-06
2.95233e-06
3.09323e-06
3.23146e-06
3.36624e-06
3.50129e-06
3.63613e-06
3.77525e-06
3.91719e-06
4.05867e-06
4.19973e-06
4.34136e-06
4.48463e-06
4.62958e-06
4.77633e-06
4.92482e-06
5.07571e-06
5.22943e-06
5.38651e-06
5.54683e-06
5.71093e-06
5.88049e-06
6.05408e-06
6.23839e-06
6.40239e-06
6.66835e-06
6.54092e-06
7.81979e-06
5.00014e-07
5.9032e-07
7.18176e-07
8.59806e-07
1.00597e-06
1.15398e-06
1.30286e-06
1.45255e-06
1.60487e-06
1.7618e-06
1.92488e-06
2.09532e-06
2.27444e-06
2.46271e-06
2.6631e-06
2.86979e-06
3.07352e-06
3.27122e-06
3.46238e-06
3.64584e-06
3.82442e-06
3.99737e-06
4.16333e-06
4.32297e-06
4.47859e-06
4.63193e-06
4.78417e-06
4.93677e-06
5.0915e-06
5.2501e-06
5.41402e-06
5.58505e-06
5.76438e-06
5.95344e-06
6.1542e-06
6.36785e-06
6.59695e-06
6.82395e-06
7.13682e-06
7.15733e-06
8.47436e-06
5.00239e-07
6.35147e-07
7.64185e-07
8.84959e-07
1.00442e-06
1.13217e-06
1.27033e-06
1.41615e-06
1.56219e-06
1.70023e-06
1.82199e-06
1.92068e-06
1.99338e-06
2.04139e-06
2.06354e-06
2.06489e-06
2.06685e-06
2.08645e-06
2.12909e-06
2.19158e-06
2.27071e-06
2.36103e-06
2.46045e-06
2.56617e-06
2.67711e-06
2.79263e-06
2.91231e-06
3.03566e-06
3.1628e-06
3.29381e-06
3.42893e-06
3.56829e-06
3.71255e-06
3.86182e-06
4.01666e-06
4.17598e-06
4.34529e-06
4.50472e-06
4.73626e-06
4.69354e-06
5.7419e-06
1.0551e-06
1.57568e-06
2.0621e-06
2.47536e-06
2.7994e-06
3.03024e-06
3.17504e-06
3.24744e-06
3.2663e-06
3.25231e-06
3.22586e-06
3.20447e-06
3.20058e-06
3.21924e-06
3.26274e-06
3.34097e-06
3.44888e-06
3.56756e-06
3.68782e-06
3.80582e-06
3.91915e-06
4.03135e-06
4.13724e-06
4.23814e-06
4.33586e-06
4.43202e-06
4.52852e-06
4.62756e-06
4.73158e-06
4.84295e-06
4.96408e-06
5.09723e-06
5.24451e-06
5.40798e-06
5.59016e-06
5.79284e-06
6.0187e-06
6.25612e-06
6.57627e-06
6.6511e-06
8.01352e-06
0.687846
0.811814
1.07767
0.817898
0.134211
0.0364709
0.00582554
0.00288129
0.00274826
0.00268025
0.00252535
0.00241148
0.00224393
0.00205602
0.00187436
0.00168796
0.00151517
0.00135506
0.00120936
0.00107907
0.000959651
0.000853397
0.000757808
0.000672857
0.000596395
0.000529083
0.000470167
0.000417001
0.000369436
0.000326482
0.000287526
0.000252343
0.000220551
0.000191876
0.000164955
0.000140464
0.000117686
9.74618e-05
8.08846e-05
6.56768e-05
5.33475e-05
4.33907e-05
3.40312e-05
2.93045e-05
2.63408e-05
2.57938e-05
2.75631e-05
3.02951e-05
3.21823e-05
3.20262e-05
3.31605e-05
3.26597e-05
3.22843e-05
3.17338e-05
3.07345e-05
2.95585e-05
2.8234e-05
2.69464e-05
2.53502e-05
2.39463e-05
2.21661e-05
2.07822e-05
1.90521e-05
1.74091e-05
1.59568e-05
1.43327e-05
1.30941e-05
1.17205e-05
1.0545e-05
9.39928e-06
8.49507e-06
7.45598e-06
7.0056e-06
5.9495e-06
1.30543
1.39866
1.34053
1.28333
0.443073
0.0814629
0.017411
0.00311285
0.00281725
0.00269405
0.00246055
0.00228978
0.00211224
0.00192257
0.00174877
0.00157469
0.00141421
0.00126678
0.00113193
0.0010124
0.000901895
0.000802384
0.000713025
0.000633226
0.00056102
0.000497352
0.000442232
0.000392528
0.00034814
0.000308295
0.000272086
0.000239819
0.000210549
0.000183974
0.000158863
0.000135903
0.000113757
9.43028e-05
7.84369e-05
6.39798e-05
5.20714e-05
4.27875e-05
3.39851e-05
2.97115e-05
2.67108e-05
2.58745e-05
2.7194e-05
2.91625e-05
3.09494e-05
3.0116e-05
3.11042e-05
3.0446e-05
3.00223e-05
2.95479e-05
2.86455e-05
2.75589e-05
2.63286e-05
2.51316e-05
2.36358e-05
2.2354e-05
2.06676e-05
1.93838e-05
1.78048e-05
1.62303e-05
1.49164e-05
1.33881e-05
1.22473e-05
1.0988e-05
9.89406e-06
8.82511e-06
8.01352e-06
7.03207e-06
6.65934e-06
5.67106e-06
1.7302
1.80756
1.82991
1.55282
1.00568
0.163006
0.0598813
0.00580162
0.00279041
0.00279071
0.00248762
0.00221685
0.00200685
0.00180721
0.0016297
0.00146326
0.00131167
0.00117462
0.00105037
0.000940312
0.000839609
0.000747552
0.000665194
0.000591162
0.000523926
0.000464296
0.00041291
0.000366816
0.000325671
0.000289114
0.000256051
0.000226906
0.000200365
0.000176336
0.000153654
0.000132625
0.000111887
9.35827e-05
7.84345e-05
6.46612e-05
5.33569e-05
4.48121e-05
3.64797e-05
3.25613e-05
2.9214e-05
2.7977e-05
2.86468e-05
2.90968e-05
3.03123e-05
2.91028e-05
2.92852e-05
2.84518e-05
2.78123e-05
2.7307e-05
2.65541e-05
2.54034e-05
2.4331e-05
2.31839e-05
2.18624e-05
2.06336e-05
1.9143e-05
1.78346e-05
1.64597e-05
1.50026e-05
1.37758e-05
1.24124e-05
1.13075e-05
1.01991e-05
9.19571e-06
8.21889e-06
7.48563e-06
6.57808e-06
6.28636e-06
5.36768e-06
2.07481
2.19889
2.14752
2.10802
1.59075
0.423228
0.165286
0.0271256
0.00255625
0.00279328
0.00257666
0.00220686
0.00194621
0.0017273
0.0015397
0.00137489
0.00122814
0.00109816
0.000981433
0.00087849
0.000785385
0.000699814
0.000623595
0.00055476
0.000492226
0.000436187
0.000387803
0.000344891
0.000306444
0.000272677
0.000242335
0.000215817
0.000191578
0.000169374
0.000148812
0.000129561
0.000110542
9.35423e-05
7.89864e-05
6.58845e-05
5.52086e-05
4.70697e-05
3.93932e-05
3.5403e-05
3.20422e-05
3.01812e-05
2.99308e-05
2.93534e-05
2.97883e-05
2.82862e-05
2.76771e-05
2.66419e-05
2.57698e-05
2.51626e-05
2.45057e-05
2.33463e-05
2.23839e-05
2.13076e-05
2.01354e-05
1.89821e-05
1.76584e-05
1.63828e-05
1.51732e-05
1.38432e-05
1.27038e-05
1.14888e-05
1.04402e-05
9.45903e-06
8.54595e-06
7.65546e-06
6.99704e-06
6.15425e-06
5.94114e-06
5.08148e-06
2.65203
2.96211
2.63668
2.64263
2.19313
1.0049
0.324749
0.106263
0.00642764
0.00218832
0.00264642
0.00225528
0.00192506
0.00167864
0.00147695
0.00130925
0.0011638
0.00103808
0.000926133
0.000828193
0.00074054
0.000660071
0.000588801
0.000524393
0.000466048
0.000413177
0.000367219
0.000327044
0.000290908
0.000259401
0.00023129
0.000206819
0.000184418
0.000163273
0.000144251
0.000126596
0.000109244
9.36058e-05
7.96327e-05
6.73858e-05
5.7235e-05
4.92432e-05
4.2304e-05
3.79572e-05
3.46668e-05
3.21736e-05
3.0861e-05
2.94861e-05
2.91011e-05
2.73623e-05
2.61665e-05
2.49432e-05
2.39036e-05
2.31672e-05
2.25122e-05
2.14563e-05
2.05355e-05
1.95387e-05
1.8471e-05
1.74133e-05
1.6217e-05
1.50323e-05
1.39607e-05
1.27551e-05
1.17146e-05
1.06259e-05
9.65592e-06
8.78065e-06
7.95505e-06
7.14225e-06
6.55811e-06
5.76946e-06
5.63024e-06
4.81917e-06
3.42945
3.88193
3.4157
3.0698
2.86025
1.77483
0.538034
0.302158
0.0435237
0.00137619
0.00225838
0.00233692
0.00194621
0.00165763
0.00143757
0.00126316
0.00111608
0.000992008
0.000882892
0.000788097
0.000704296
0.000627671
0.000560162
0.000499372
0.000444644
0.000394703
0.000350818
0.000312973
0.000278983
0.000249413
0.000223111
0.000200225
0.000179246
0.000158759
0.000140764
0.000124352
0.000108465
9.41001e-05
8.08752e-05
6.94496e-05
5.98049e-05
5.18879e-05
4.55155e-05
4.0835e-05
3.74446e-05
3.4396e-05
3.21308e-05
2.98964e-05
2.86355e-05
2.66578e-05
2.49758e-05
2.3547e-05
2.23585e-05
2.14635e-05
2.07402e-05
1.97824e-05
1.88622e-05
1.79183e-05
1.69186e-05
1.59439e-05
1.48594e-05
1.37749e-05
1.2827e-05
1.17384e-05
1.07968e-05
9.82501e-06
8.93937e-06
8.15758e-06
7.41413e-06
6.67168e-06
6.15986e-06
5.41895e-06
5.34839e-06
4.57847e-06
4.41476
4.89226
4.38859
3.64604
3.45072
2.6145
1.02608
0.59952
0.17529
0.0106214
0.00121235
0.00223758
0.00201623
0.001671
0.00142136
0.00123555
0.00108394
0.000958846
0.000850821
0.000757551
0.000676159
0.000602251
0.00053739
0.000479323
0.000427507
0.000380204
0.000338229
0.000302333
0.00027035
0.000242504
0.000217668
0.000195995
0.000176049
0.000156097
0.000138752
0.000123195
0.000108481
9.52287e-05
8.28498e-05
7.21686e-05
6.30288e-05
5.51974e-05
4.91461e-05
4.42171e-05
4.05031e-05
3.70011e-05
3.39756e-05
3.08758e-05
2.8698e-05
2.64331e-05
2.43046e-05
2.26214e-05
2.12582e-05
2.01757e-05
1.93243e-05
1.83909e-05
1.74415e-05
1.65026e-05
1.55364e-05
1.46093e-05
1.3624e-05
1.2621e-05
1.17812e-05
1.08026e-05
9.94983e-06
9.08877e-06
8.2834e-06
7.58576e-06
6.91854e-06
6.24003e-06
5.79611e-06
5.09901e-06
5.09167e-06
4.35655e-06
5.62768
5.96438
5.40763
4.45672
3.909
3.42075
1.8658
0.873694
0.47856
0.0739425
0.0012725
0.0014563
0.00205017
0.00173482
0.00143386
0.00122709
0.00106742
0.000938561
0.000829667
0.000736434
0.000656012
0.00058373
0.000520456
0.000464176
0.000414443
0.00036934
0.000329088
0.000294759
0.000264546
0.000238196
0.00021457
0.000193788
0.000174556
0.000155137
0.000138197
0.000123201
0.000109338
9.70008e-05
8.54135e-05
7.53998e-05
6.67225e-05
5.90196e-05
5.30726e-05
4.79186e-05
4.37369e-05
3.98424e-05
3.62133e-05
3.24316e-05
2.93821e-05
2.67688e-05
2.42309e-05
2.22458e-05
2.06548e-05
1.93534e-05
1.83084e-05
1.73226e-05
1.63119e-05
1.53279e-05
1.43604e-05
1.34415e-05
1.25316e-05
1.15876e-05
1.08336e-05
9.95718e-06
9.17988e-06
8.41811e-06
7.68649e-06
7.0636e-06
6.46707e-06
5.84684e-06
5.46515e-06
4.80835e-06
4.85894e-06
4.15225e-06
6.9418
7.00287
6.35785
5.33889
4.35594
3.97293
2.80512
1.14278
0.903202
0.27412
0.0241555
0.000413986
0.00159129
0.0018021
0.00148499
0.00124
0.00106596
0.000930768
0.000818918
0.000724282
0.00064349
0.000571818
0.000509204
0.000453843
0.000405376
0.000361953
0.00032316
0.000290001
0.000261184
0.000236017
0.000213389
0.000193252
0.000174543
0.000155679
0.000139039
0.000124403
0.00011113
9.9477e-05
8.85386e-05
7.90626e-05
7.07645e-05
6.32045e-05
5.7211e-05
5.18101e-05
4.71109e-05
4.28227e-05
3.87025e-05
3.44433e-05
3.0674e-05
2.76544e-05
2.47498e-05
2.24366e-05
2.0571e-05
1.90127e-05
1.7714e-05
1.65981e-05
1.54934e-05
1.44204e-05
1.34133e-05
1.24642e-05
1.15966e-05
1.069e-05
9.99428e-06
9.20605e-06
8.49106e-06
7.81342e-06
7.14815e-06
6.59045e-06
6.05861e-06
5.49136e-06
5.16601e-06
4.54624e-06
4.64953e-06
3.96535e-06
7.91303
7.72462
7.0683
6.10212
4.92266
4.19116
3.50127
1.62816
1.19171
0.681969
0.127022
0.00486916
0.000690247
0.0016342
0.00155724
0.00128214
0.0010808
0.000935036
0.0008182
0.000720668
0.000638241
0.000566172
0.000503446
0.000448309
0.000400389
0.000358048
0.000320368
0.000287979
0.00026007
0.000235692
0.000213793
0.000194125
0.000175829
0.000157535
0.000141198