/*--------------------------------*- C++ -*----------------------------------*\
| =========                 |                                                 |
| \\      /  F ield         | OpenFOAM: The Open Source CFD Toolbox           |
|  \\    /   O peration     | Version:  2312                                  |
|   \\  /    A nd           | Website:  www.openfoam.com                      |
|    \\/     M anipulation  |                                                 |
\*---------------------------------------------------------------------------*/
FoamFile
{
    version     2.0;
    format      ascii;
    arch        "LSB;label=32;scalar=64";
    class       volVectorField;
    location    "100";
    object      momentError;
}
// * * * * * * * * * * * * * * * * * * * * * * * * * * * * * * * * * * * * * //

dimensions      [0 1 -2 0 0 0 0];

internalField   nonuniform List<vector> 
11040
(
(24.0053 -50.9234 2.1014e-15)
(-8.62874 -95.301 -1.833e-15)
(-34.6646 -51.2459 2.90273e-15)
(-11.6125 0.438805 2.51453e-15)
(0.167374 4.82948 1.63049e-15)
(3.15365 1.70722 -1.16994e-15)
(2.22664 0.445602 -3.15319e-15)
(2.85511 0.591951 -3.01334e-16)
(3.01379 -0.398549 -1.46469e-16)
(3.04727 -0.0807577 9.64041e-16)
(2.47128 0.748176 4.35923e-16)
(1.58667 0.943594 -1.3171e-16)
(1.77327 0.63301 -3.92583e-16)
(2.77938 -0.0608567 3.44547e-16)
(3.7281 -0.354436 -1.73391e-16)
(3.86919 -0.439793 -3.31084e-16)
(4.19393 -0.761218 2.59751e-16)
(5.92529 -1.26366 2.5005e-16)
(9.14158 -0.963208 -5.43962e-17)
(10.8517 -0.228944 -1.80222e-17)
(13.1856 0.051066 8.34802e-18)
(22.6735 0.67212 5.75181e-17)
(26.3196 1.50555 -2.03924e-18)
(20.4388 1.61595 1.8807e-17)
(3.50319 1.21076 6.27924e-17)
(-9.41774 0.39823 -2.55997e-16)
(-6.38864 -0.0645997 -2.34558e-16)
(-5.07911 0.642326 -4.52821e-17)
(-8.70687 1.15121 -1.01167e-16)
(-11.2225 1.79892 -2.23184e-16)
(-8.23207 1.79834 -4.09369e-18)
(0.512942 -1.0797 1.12092e-16)
(7.12955 -2.07687 4.12216e-16)
(13.5052 -3.24228 5.79623e-16)
(21.4993 -2.37323 8.90319e-17)
(33.3517 -3.33374 2.68163e-16)
(45.8238 -5.96473 6.20004e-16)
(57.3541 -8.44041 4.31158e-16)
(67.9443 -10.8938 -2.03242e-17)
(70.9247 -11.3256 -2.3935e-15)
(62.3667 -18.0944 -8.07269e-16)
(20.5839 -52.9997 4.56517e-16)
(-25.2011 -69.9072 1.12262e-15)
(-101.315 -25.0061 -9.7954e-17)
(-88.8503 -22.5263 -1.84731e-15)
(-37.7165 -24.5349 1.22024e-15)
(-0.328035 -2.78883 1.03849e-15)
(5.95301 5.95131 -6.1712e-16)
(1.77237 2.05759 1.53342e-16)
(2.98335 0.0239577 -2.74654e-16)
(4.83944 -1.75061 -2.10379e-16)
(4.13859 -1.13164 5.50659e-16)
(2.24481 1.07843 3.55816e-16)
(1.28517 2.31843 4.91204e-16)
(2.87146 1.63087 -1.25593e-16)
(5.48245 0.568526 3.87909e-17)
(7.00788 0.117572 6.60551e-17)
(7.01743 -0.135914 3.08605e-17)
(10.2051 -1.14197 1.63957e-16)
(15.9168 -2.58221 7.71589e-18)
(27.4144 -3.91999 -2.08381e-17)
(41.9654 -4.04014 2.70885e-17)
(48.8112 -1.44107 7.00708e-18)
(42.3574 1.38133 3.98612e-18)
(27.2476 3.00243 7.31576e-17)
(14.3629 2.90484 -2.17895e-17)
(2.48405 1.39962 -4.1346e-17)
(-8.04164 0.726389 -9.85791e-17)
(-13.9202 2.07438 3.69001e-17)
(-22.5935 4.25121 8.92452e-17)
(-31.633 5.37127 -1.77648e-16)
(-22.7889 1.27034 1.24493e-16)
(-1.92205 -3.96009 -1.95802e-16)
(13.919 -6.29993 9.12904e-17)
(26.3599 -7.44369 9.80036e-17)
(40.4402 -9.83348 -1.11063e-17)
(54.4375 -11.8822 -1.54346e-16)
(69.5574 -14.5108 -1.00793e-16)
(82.5346 -17.0197 3.83596e-16)
(93.1755 -18.7902 -3.96545e-16)
(89.9788 -17.6071 4.54725e-16)
(76.1617 -18.7734 -1.53857e-16)
(2.15288 -42.2672 1.71046e-17)
(-18.856 -50.2332 -1.6079e-16)
(-54.809 -25.6695 -1.06424e-15)
(-66.7885 -24.4377 1.52161e-15)
(-84.554 -53.4751 6.19969e-16)
(-70.2274 -46.2242 -1.43749e-15)
(-31.6595 -18.5959 1.18665e-15)
(-7.02232 0.902714 1.75847e-15)
(1.67338 3.36907 -7.70347e-17)
(3.77356 -0.952293 2.33701e-17)
(5.82913 -2.86093 -2.85672e-16)
(3.39295 -1.29237 2.38974e-16)
(0.471013 1.6875 1.209e-16)
(1.64706 2.32257 3.85226e-16)
(4.94726 1.04483 1.71763e-16)
(7.34163 0.0395703 5.65709e-18)
(7.80769 -0.180095 -7.27363e-17)
(11.1877 -1.30935 -6.34832e-18)
(19.1931 -3.52417 1.27216e-17)
(34.2582 -6.48516 1.05496e-18)
(52.5236 -7.27081 1.97481e-17)
(60.5427 -3.02999 -2.64279e-18)
(50.397 2.58524 1.76657e-17)
(30.5372 5.70327 -5.99747e-18)
(13.2255 5.947 -5.51036e-17)
(0.37516 4.00512 -4.60666e-17)
(-12.6493 3.17078 1.59256e-16)
(-25.1511 5.39917 4.1805e-17)
(-35.3494 7.19993 -3.39846e-17)
(-38.624 5.2134 -2.11987e-17)
(-20.6334 -3.02118 -9.96005e-17)
(-0.222263 -8.61535 -1.67979e-16)
(15.2798 -10.5296 -2.82858e-16)
(30.829 -11.7618 1.14209e-16)
(47.446 -13.8718 -4.21633e-18)
(64.4277 -16.5662 -3.51559e-16)
(81.7194 -19.4415 -2.89567e-16)
(95.9436 -21.634 1.70636e-16)
(106.308 -21.894 4.3575e-16)
(102.785 -18.2789 3.8286e-16)
(86.888 -13.594 4.23766e-16)
(-5.48091 -37.2801 -3.36847e-16)
(-13.8366 -36.8454 1.43569e-16)
(-33.8188 -35.6495 3.80505e-16)
(-39.6716 -22.5349 -2.97596e-16)
(-49.3746 -16.8627 -8.73321e-16)
(-75.5885 -38.2412 1.20521e-15)
(-89.4127 -54.3722 1.01932e-15)
(-69.1618 -35.3066 -7.96016e-17)
(-32.7554 -10.4515 -4.35676e-16)
(-1.72012 0.0122535 -7.47079e-17)
(7.99943 -1.26354 1.7555e-16)
(5.75825 -2.00503 -3.69593e-16)
(1.1815 0.341984 2.37892e-16)
(-0.155298 2.01145 -1.29494e-16)
(2.59355 1.11274 1.03831e-16)
(5.92042 -0.108097 -1.34071e-17)
(7.46052 -0.39781 -7.47428e-17)
(10.4177 -1.70122 -1.35066e-16)
(18.5156 -4.69847 1.08812e-17)
(33.8872 -8.81206 -1.45114e-17)
(53.0868 -9.67162 2.85063e-17)
(62.8358 -3.56897 -1.41699e-17)
(52.9201 4.85145 -3.61483e-17)
(31.4244 9.59868 9.8025e-18)
(11.6633 10.039 1.92663e-18)
(-3.23519 7.92019 -8.81363e-17)
(-18.8811 7.00581 -3.2799e-17)
(-34.8963 9.35313 1.1912e-18)
(-43.6782 9.45359 4.87314e-17)
(-37.6783 2.70251 5.73598e-17)
(-17.2013 -8.28843 1.03567e-16)
(-1.05246 -13.4811 -9.35136e-19)
(14.18 -14.9968 1.18977e-17)
(31.2251 -16.127 3.69212e-17)
(49.6744 -18.2557 -3.71857e-17)
(68.5306 -21.1057 -6.56115e-17)
(87.3057 -23.9639 -1.72936e-16)
(102.753 -25.6887 1.86208e-16)
(113.525 -24.6019 -1.4904e-16)
(110.742 -18.6627 4.63768e-18)
(95.5891 -9.97151 4.7453e-16)
(-9.877 -31.5334 1.69968e-16)
(-14.4795 -29.5532 -1.48529e-16)
(-21.5382 -25.8132 1.7616e-16)
(-36.4647 -23.5354 -1.17783e-16)
(-37.7904 -10.3137 1.08684e-16)
(-39.2989 -3.97098 -3.13685e-16)
(-62.1723 -23.0295 -1.35721e-16)
(-93.6618 -48.0151 -8.30586e-16)
(-92.8403 -44.7646 9.54354e-17)
(-46.5319 -21.375 -6.08823e-17)
(-0.84396 -6.40773 7.15217e-16)
(10.7368 -2.10573 8.97268e-17)
(3.22791 -0.00651996 -7.49004e-17)
(-1.0788 1.77735 -7.92342e-17)
(0.583766 1.2038 1.39226e-16)
(3.47069 -0.319624 -1.20901e-16)
(5.63641 -0.859121 -5.99328e-17)
(8.58711 -2.23399 -1.1031e-16)
(15.4346 -6.069 -6.33047e-18)
(28.7988 -11.1584 5.14398e-18)
(46.7022 -12.0482 3.76854e-17)
(58.0959 -4.24153 -1.33034e-17)
(50.7142 7.14568 -1.29382e-17)
(30.1403 13.9529 1.80067e-17)
(9.61475 14.9154 9.34427e-18)
(-6.65683 12.8179 1.18889e-17)
(-24.4105 11.5589 1.19428e-17)
(-41.2815 12.7656 1.78598e-17)
(-46.5928 10.5571 3.31433e-17)
(-32.7238 -1.84295 3.77324e-17)
(-15.1155 -13.2786 -2.97614e-17)
(-2.71473 -18.2719 1.07733e-16)
(11.6355 -19.6977 -4.25414e-17)
(28.9198 -20.8841 4.94908e-17)
(47.8868 -23.0135 5.58583e-17)
(67.3807 -25.7291 9.14821e-17)
(86.6629 -28.2205 -6.14812e-17)
(102.816 -29.046 4.54982e-17)
(114.344 -26.3869 -2.0854e-17)
(113.41 -18.2281 -3.40099e-16)
(101.28 -5.97322 -1.42212e-16)
(-11.1448 -25.841 1.27081e-16)
(-15.0103 -23.998 -4.18017e-16)
(-16.9294 -19.8527 -4.78023e-16)
(-25.4529 -19.8955 3.21036e-16)
(-33.801 -18.271 -2.1629e-16)
(-33.8782 -8.22231 1.26365e-16)
(-30.2588 3.51159 -2.56017e-16)
(-47.1115 -6.70878 -3.0593e-16)
(-84.4284 -33.7791 9.01404e-17)
(-91.9317 -44.2366 -6.37449e-18)
(-48.9089 -31.4087 -4.96215e-16)
(-7.79485 -14.6848 -5.25798e-17)
(-0.217784 -3.17958 2.12449e-16)
(-3.46849 2.29819 -3.61222e-16)
(-1.9036 2.11382 -1.03565e-16)
(1.4745 -0.016028 3.01372e-17)
(3.66191 -1.01657 -7.80375e-17)
(6.06566 -2.57496 -7.72425e-18)
(11.2552 -7.04712 -2.56727e-17)
(21.1455 -13.0999 2.22866e-17)
(36.2069 -14.5248 1.88973e-17)
(48.2662 -5.62042 9.26081e-18)
(44.7893 8.78812 -2.2255e-17)
(27.2806 18.237 1.76954e-17)
(7.67106 20.3007 1.05693e-17)
(-9.86963 18.3067 3.52583e-17)
(-29.306 16.6168 -1.28511e-17)
(-44.538 15.5093 -1.75676e-17)
(-43.9282 8.77019 -8.71745e-17)
(-27.49 -6.94473 -1.90405e-17)
(-14.4291 -17.4994 9.10201e-17)
(-4.92283 -22.7264 2.15535e-17)
(8.19475 -24.4197 1.04964e-18)
(24.8225 -25.8439 -9.79407e-17)
(43.3624 -27.9968 -4.1172e-17)
(62.6187 -30.4803 1.78402e-16)
(81.7452 -32.4119 9.30418e-17)
(98.2308 -32.0632 5.53403e-17)
(110.743 -27.6904 3.33783e-16)
(112.475 -17.3776 -6.59052e-17)
(104.589 -1.94913 -2.95437e-16)
(-11.3807 -20.7216 6.19284e-17)
(-14.4251 -19.2683 4.12014e-18)
(-15.8572 -16.4379 1.86292e-17)
(-18.4319 -14.749 2.45801e-16)
(-25.1446 -15.3125 -2.699e-17)
(-31.4795 -14.8488 5.96104e-17)
(-30.8914 -5.9076 1.04279e-16)
(-23.8761 8.3431 -9.88102e-17)
(-35.0858 5.23775 3.52435e-16)
(-68.8826 -19.4713 1.92847e-17)
(-82.7751 -40.4121 2.66349e-16)
(-60.5914 -40.5578 2.13601e-16)
(-37.1982 -24.9777 -1.83899e-16)
(-23.9117 -7.22161 1.02048e-16)
(-10.8642 1.01699 5.55135e-17)
(-1.98613 0.64607 -8.22983e-17)
(1.3862 -0.673595 -2.76554e-17)
(3.55607 -2.14579 -2.35998e-17)
(7.06947 -6.82222 2.30255e-17)
(12.8966 -13.9842 -1.11269e-16)
(23.593 -16.857 7.06964e-17)
(35.1401 -7.63886 -1.94985e-17)
(35.7008 9.34378 -2.64809e-17)
(22.8586 22.0754 1.23156e-17)
(5.10972 25.6554 -2.1915e-17)
(-13.5733 24.4338 1.01374e-17)
(-33.144 21.9687 -4.27283e-17)
(-44.5953 17.341 -4.34988e-17)
(-38.6514 4.59594 -1.20034e-17)
(-24.0634 -11.6942 6.28882e-17)
(-14.9439 -21.1458 -7.98031e-18)
(-7.60662 -26.8778 4.25758e-17)
(4.0738 -29.0743 -7.43416e-17)
(19.4394 -30.8825 -1.19595e-16)
(36.8661 -33.1459 -8.67386e-17)
(55.191 -35.4924 1.7387e-16)
(73.6547 -36.8726 4.80859e-17)
(90.1272 -35.3968 -9.33438e-18)
(103.645 -29.4341 8.51031e-17)
(108.476 -17.1063 1.95785e-16)
(105.614 1.27571 -1.35235e-16)
(-10.7624 -16.2209 -3.44774e-17)
(-13.4629 -15.2817 2.05985e-16)
(-14.4951 -13.1133 -3.55269e-17)
(-15.6997 -11.7027 -2.75472e-16)
(-19.1968 -10.904 -2.61327e-16)
(-24.3226 -10.9526 2.1497e-16)
(-29.4256 -10.7038 -3.11331e-18)
(-28.0899 -3.98739 -2.08823e-16)
(-21.2156 8.73577 -7.69852e-17)
(-28.4359 11.7418 1.24962e-16)
(-54.0988 -5.21447 4.71997e-16)
(-73.716 -30.5718 -7.12241e-16)
(-76.6852 -42.7569 3.00326e-16)
(-66.1554 -32.2948 1.38838e-16)
(-42.1642 -14.2654 -3.90641e-16)
(-17.4844 -4.57768 8.94113e-17)
(-4.75126 -1.6678 8.003e-17)
(0.545388 -1.51989 1.76865e-16)
(3.2902 -5.31562 5.67128e-18)
(6.76268 -12.6222 -1.27568e-16)
(11.5069 -17.9089 7.13433e-17)
(19.4332 -10.6866 3.341e-18)
(23.4675 8.27153 -4.07436e-17)
(16.2332 24.7025 1.13013e-17)
(1.29105 30.5 1.47502e-17)
(-17.3856 31.0225 -1.74372e-18)
(-35.5328 26.9377 -1.49245e-17)
(-42.2761 17.6988 2.39146e-17)
(-33.7556 -0.0324902 4.34864e-17)
(-22.7413 -15.5917 -2.38316e-17)
(-16.5598 -24.6305 -4.09538e-17)
(-10.8713 -30.8493 -2.22631e-17)
(-0.771349 -33.6939 3.35536e-17)
(12.9536 -35.9483 3.99381e-17)
(28.7879 -38.3991 -6.37019e-17)
(45.6861 -40.7243 -2.44622e-17)
(63.0751 -41.7555 9.36965e-17)
(79.2004 -39.577 -1.20487e-16)
(93.571 -32.6771 9.44553e-17)
(101.606 -18.8302 1.12989e-16)
(104.168 2.66123 2.17291e-16)
(-9.78402 -12.3937 -2.7663e-17)
(-12.1617 -11.7882 -3.59862e-17)
(-13.0716 -10.2344 -9.95288e-17)
(-14.0593 -9.23624 -2.44133e-16)
(-15.4601 -8.22579 5.46615e-17)
(-18.8341 -7.6464 -2.14945e-17)
(-22.9725 -7.23709 6.68145e-17)
(-26.655 -7.04289 3.91517e-17)
(-25.5568 -3.48051 -8.3323e-17)
(-21.4631 6.51643 1.80942e-16)
(-24.5107 16.1696 1.55529e-16)
(-38.7051 9.78269 -8.73328e-17)
(-59.6021 -15.0525 -1.20277e-16)
(-77.4387 -35.8157 -1.03114e-17)
(-74.4761 -34.8149 -8.32952e-17)
(-49.6669 -22.2114 -2.18166e-16)
(-24.8511 -11.4783 1.79877e-16)
(-9.53681 -4.80226 2.47683e-17)
(-1.70292 -4.14041 1.35446e-16)
(1.2661 -9.89923 -1.03123e-16)
(3.59506 -16.1098 5.23387e-17)
(5.38758 -13.4464 4.46344e-17)
(8.35238 4.812 -2.42052e-17)
(6.69955 25.2098 1.56079e-17)
(-3.80675 34.4587 2.7465e-17)
(-21.2252 37.6743 1.62145e-17)
(-36.5666 31.2181 5.79582e-18)
(-38.9253 16.1782 1.74406e-17)
(-30.8977 -4.24335 -9.1349e-18)
(-23.3252 -18.8783 1.18596e-17)
(-19.2869 -28.1572 -4.40489e-17)
(-14.9403 -34.9179 1.6565e-19)
(-6.46855 -38.464 -2.69822e-17)
(5.40972 -41.1045 -1.4207e-17)
(19.3487 -43.7012 1.27472e-17)
(34.4728 -45.9823 6.27889e-17)
(50.3859 -46.7924 1.81877e-17)
(65.6561 -44.3819 -4.34607e-18)
(80.5222 -37.4237 -9.71877e-17)
(91.6161 -22.757 1.68085e-16)
(99.1832 2.33054 6.50497e-17)
(-8.65577 -9.23956 1.85815e-16)
(-10.6989 -8.82575 -4.53482e-17)
(-11.5277 -7.72543 -1.93212e-16)
(-12.431 -7.04028 3.41999e-16)
(-13.2334 -6.2457 3.46965e-16)
(-14.7394 -5.55349 -1.83593e-16)
(-17.8764 -4.9911 -1.46842e-16)
(-21.181 -4.14255 -6.94509e-17)
(-23.638 -4.2621 3.16339e-17)
(-23.773 -3.55884 3.33596e-16)
(-22.3499 4.56181 3.84602e-17)
(-20.6769 18.8446 -2.90207e-17)
(-24.426 20.701 -1.9189e-16)
(-41.9107 -0.317472 7.02221e-17)
(-63.9748 -24.8657 -3.05207e-16)
(-67.4655 -33.3354 9.33423e-18)
(-51.8138 -28.0107 3.61149e-17)
(-32.3335 -17.6146 4.15402e-17)
(-15.6957 -9.28199 -3.52645e-18)
(-7.33816 -8.56556 -9.22432e-17)
(-4.2214 -13.5426 2.61937e-17)
(-4.06259 -14.2159 -2.32743e-18)
(-5.23217 -0.0280952 7.48207e-18)
(-5.1897 23.0494 1.42984e-17)
(-10.4024 37.0168 1.22384e-17)
(-25.2313 43.8121 -2.70366e-19)
(-36.6592 34.8422 -2.64728e-18)
(-36.371 13.9722 3.97613e-17)
(-30.636 -7.7168 -1.17486e-17)
(-25.6147 -21.8827 -1.94584e-17)
(-23.281 -31.8725 1.30612e-17)
(-20.1792 -39.4062 1.91641e-17)
(-13.2877 -43.6662 4.28901e-17)
(-3.27497 -46.6302 -2.91473e-17)
(8.69023 -49.2389 3.33684e-17)
(21.8395 -51.2585 -8.32775e-17)
(35.8574 -51.8071 1.13624e-16)
(49.6764 -49.025 1.4182e-17)
(64.2685 -41.7246 5.32588e-17)
(76.9862 -25.9986 5.56466e-17)
(89.834 -0.233129 -2.37845e-17)
(-7.47837 -6.68361 5.96408e-17)
(-9.21894 -6.38972 1.56931e-16)
(-9.96227 -5.5954 7.8456e-17)
(-10.797 -5.10825 7.43313e-17)
(-11.5493 -4.56146 -1.38367e-16)
(-12.2348 -3.93498 -2.26849e-16)
(-14.1335 -3.53522 8.56125e-17)
(-16.6721 -2.77393 1.75978e-16)
(-19.1589 -1.66008 1.15416e-16)
(-20.9524 -2.06587 -1.04347e-16)
(-22.377 -2.80892 -2.38913e-16)
(-22.1946 3.71906 -9.88484e-17)
(-17.5877 18.3551 1.56256e-16)
(-15.3766 24.3707 -1.27907e-16)
(-27.6575 9.93665 -2.1731e-16)
(-47.3181 -13.1615 2.48595e-16)
(-56.776 -28.0971 -1.12198e-16)
(-52.6708 -29.8317 2.77483e-16)
(-39.5641 -22.4519 1.70312e-16)
(-23.7543 -14.5629 -1.48732e-16)
(-16.2563 -13.5184 -6.60528e-17)
(-13.9787 -15.2387 2.94225e-17)
(-15.7867 -5.56885 -2.222e-17)
(-16.9641 17.7494 1.67992e-18)
(-18.2071 37.7891 2.63391e-17)
(-29.4737 48.8053 2.57383e-18)
(-36.5416 37.0146 -7.7684e-18)
(-35.4402 12.0604 -2.40185e-17)
(-32.1417 -10.2337 4.89865e-18)
(-29.0569 -24.4465 6.72356e-19)
(-28.3028 -35.4857 -6.38343e-17)
(-26.749 -44.0677 2.24893e-17)
(-21.7232 -49.4068 4.64394e-17)
(-13.603 -52.9397 7.14406e-17)
(-3.44291 -55.4463 7.3839e-17)
(7.80243 -57.2139 -7.95787e-17)
(19.7671 -57.5262 -1.10997e-16)
(31.7815 -54.1101 -4.04444e-17)
(44.6664 -45.2691 -2.03446e-16)
(57.3357 -28.9475 -2.69128e-16)
(74.1069 -3.50679 -1.54439e-16)
(-6.32455 -4.66006 5.45088e-17)
(-7.78943 -4.41588 1.68532e-16)
(-8.44868 -3.83774 -2.97853e-16)
(-9.21849 -3.46634 -5.34552e-17)
(-9.92039 -3.06062 2.32235e-16)
(-10.5476 -2.60399 -1.23449e-16)
(-11.3293 -2.0931 1.35476e-16)
(-13.2112 -1.71648 -7.76392e-17)
(-15.3155 -0.815268 -9.37819e-17)
(-17.161 0.370819 -1.48841e-17)
(-18.7228 -0.0386136 6.19513e-19)
(-20.6752 -1.0787 9.00795e-17)
(-20.9109 3.48518 1.28187e-16)
(-16.1133 15.012 4.91253e-17)
(-12.3328 22.7443 2.53061e-17)
(-19.4021 16.485 -9.54751e-17)
(-34.6126 -1.42494 -3.73603e-17)
(-47.5997 -19.9559 -2.62131e-17)
(-52.0417 -28.1332 2.26081e-16)
(-45.5439 -25.1449 -1.72339e-16)
(-31.924 -18.989 -1.11765e-16)
(-26.8338 -18.5585 7.14343e-17)
(-25.6376 -12.62 -3.14372e-17)
(-27.2006 9.00888 2.89152e-18)
(-27.0441 36.1036 2.20879e-17)
(-33.5866 51.1445 7.04253e-18)
(-37.0366 37.768 -3.29304e-17)
(-36.071 10.7067 -1.57406e-17)
(-34.4103 -11.5404 3.26923e-17)
(-32.5589 -26.0871 -1.4964e-17)
(-33.2703 -37.9432 2.6128e-17)
(-33.5783 -47.619 1.06915e-17)
(-31.1051 -54.3022 1.89112e-18)
(-25.7414 -58.7956 -8.40426e-18)
(-18.0029 -62.0561 8.61088e-18)
(-8.58548 -64.2546 -2.55817e-17)
(1.71436 -64.7708 1.48256e-17)
(12.2601 -61.5046 7.48226e-17)
(23.2157 -52.1231 -2.17828e-17)
(33.631 -36.1669 -5.13696e-17)
(49.2278 -6.98695 -4.49845e-17)
(-5.25016 -3.09442 -1.00751e-16)
(-6.45925 -2.8672 7.33472e-17)
(-7.02737 -2.42698 -1.02135e-16)
(-7.72322 -2.12607 -2.14493e-16)
(-8.35897 -1.791 3.90407e-17)
(-8.94786 -1.42557 1.40029e-16)
(-9.45028 -1.02378 1.86254e-16)
(-10.5474 -0.567341 2.57621e-16)
(-12.2116 -0.0579013 -7.67691e-17)
(-13.9073 0.892414 -4.90774e-17)
(-15.3137 2.00021 4.94848e-19)
(-16.6863 1.87809 -5.78997e-17)
(-18.6074 1.12817 -1.04259e-18)
(-18.9711 3.51056 -6.10747e-17)
(-15.7637 10.949 8.68926e-17)
(-12.6268 19.4788 1.00323e-16)
(-15.4 20.6394 -3.5703e-16)
(-25.2887 8.99726 2.97048e-16)
(-38.6472 -9.67194 6.43713e-17)
(-48.6278 -22.4756 -1.31052e-16)
(-47.8729 -24.8269 9.85189e-17)
(-39.4863 -23.3413 -6.16912e-17)
(-35.4621 -20.0955 1.15139e-17)
(-36.0255 -2.22367 2.88019e-17)
(-37.3213 29.7035 -7.34276e-18)
(-38.2195 49.1512 -3.00105e-17)
(-37.9063 36.4339 3.68171e-17)
(-37.3228 9.84217 -3.14839e-17)
(-36.7689 -12.0484 4.07743e-17)
(-36.04 -26.6027 1.11277e-16)
(-37.9788 -38.5079 -6.74483e-17)
(-40.2317 -48.7116 -6.08338e-17)
(-40.4631 -56.4105 5.03497e-17)
(-38.3144 -62.1556 -5.63014e-17)
(-34.2112 -66.5478 -7.68534e-17)
(-28.1577 -69.5117 2.95466e-17)
(-20.0577 -71.2477 6.9761e-18)
(-10.5015 -69.3249 -3.4549e-17)
(-1.20731 -61.8037 1.48562e-17)
(7.20357 -49.0494 7.83806e-17)
(17.1839 -17.8591 1.47978e-17)
(-4.27583 -1.91014 1.22673e-16)
(-5.25395 -1.68471 -9.64076e-17)
(-5.73044 -1.33603 -1.0872e-16)
(-6.33417 -1.07447 -9.13932e-17)
(-6.89876 -0.784609 4.58983e-16)
(-7.4262 -0.468172 -2.74057e-16)
(-7.91767 -0.130925 -4.1825e-16)
(-8.46525 0.265713 -2.83981e-17)
(-9.67352 0.751632 5.032e-17)
(-11.0597 1.37519 2.66863e-16)
(-12.4146 2.30241 2.94945e-17)
(-13.4986 3.32377 -1.42234e-16)
(-14.7438 3.68124 -3.55434e-17)
(-16.2844 3.34677 -2.18079e-17)
(-16.8397 3.94475 1.90057e-16)
(-15.4897 8.1466 -1.16635e-16)
(-13.4015 16.5747 -3.34992e-17)
(-13.1921 22.7796 5.46497e-17)
(-18.3985 17.416 -6.14362e-17)
(-30.1777 1.4012 1.46405e-16)
(-42.0129 -14.3553 -5.25824e-17)
(-47.8647 -24.4421 -2.73748e-17)
(-44.6276 -25.9274 7.36305e-18)
(-44.2596 -13.2705 3.00414e-17)
(-46.0522 16.5508 -3.16301e-17)
(-42.757 39.9826 5.16914e-17)
(-39.15 32.1632 -8.35119e-17)
(-38.3046 8.71232 -3.87342e-18)
(-38.9013 -11.8407 8.58982e-17)
(-39.4355 -25.9322 -2.42958e-17)
(-42.204 -36.9225 5.04741e-17)
(-46.4752 -46.8885 -5.86298e-17)
(-49.4513 -54.6835 1.64431e-17)
(-50.659 -60.772 -3.86705e-17)
(-50.2811 -65.5726 -4.79307e-17)
(-48.4148 -68.8335 4.70633e-17)
(-44.4377 -70.6234 8.23385e-17)
(-37.4397 -69.588 -1.04678e-16)
(-30.3332 -64.3681 -7.78236e-17)
(-23.6248 -55.8265 -3.51611e-17)
(-18.9608 -32.4707 1.0154e-16)
(-3.41973 -1.0433 -2.30968e-17)
(-4.18824 -0.815459 5.82124e-17)
(-4.57262 -0.528067 5.5132e-17)
(-5.07696 -0.288727 9.88665e-17)
(-5.5617 -0.0253705 -8.906e-17)
(-6.02013 0.261211 1.26608e-16)
(-6.46367 0.5722 -2.1967e-16)
(-6.8682 0.889318 1.3933e-16)
(-7.59437 1.33374 -1.18754e-16)
(-8.69569 1.91192 -1.87697e-16)
(-9.81128 2.60998 2.17698e-16)
(-10.8178 3.47166 -1.24423e-16)
(-11.7239 4.47333 -7.26375e-17)
(-12.7528 5.26451 1.78198e-16)
(-13.8778 5.31078 -2.09278e-17)
(-14.5867 4.99598 -1.62835e-17)
(-14.506 7.14308 6.77085e-17)
(-13.2673 14.5189 -8.16649e-17)
(-11.5127 23.1448 2.37969e-17)
(-13.3149 23.4255 3.15722e-17)
(-22.0348 12.0485 -1.69817e-17)
(-35.1776 -5.84774 -8.91294e-18)
(-43.5101 -21.9717 6.23387e-18)
(-48.5168 -22.5803 -5.02539e-17)
(-49.798 -0.475751 8.39711e-17)
(-44.684 23.3294 -3.49686e-17)
(-39.3936 23.9039 -1.43701e-16)
(-38.3334 7.08078 1.74629e-16)
(-39.9698 -10.7522 5.8709e-18)
(-41.9696 -23.7139 -2.5591e-17)
(-44.952 -32.8505 -8.09516e-17)
(-50.9834 -41.5247 -5.72731e-17)
(-56.4169 -48.3374 1.54278e-16)
(-60.5237 -53.4913 9.07637e-17)
(-63.5528 -57.3773 -1.08429e-16)
(-65.4535 -59.608 6.96395e-17)
(-66.0394 -59.6507 -5.85872e-17)
(-64.3388 -57.5453 -5.77662e-17)
(-61.4641 -51.8394 -4.17248e-17)
(-59.188 -42.7903 4.16964e-17)
(-58.9937 -28.0419 1.1212e-16)
(-2.68126 -0.437271 -6.04014e-17)
(-3.27248 -0.207921 1.00502e-16)
(-3.56747 0.0354152 -7.86787e-17)
(-3.9693 0.25969 -2.99725e-16)
(-4.3648 0.505587 1.17671e-16)
(-4.74768 0.774212 2.19576e-16)
(-5.12375 1.06463 -1.19645e-16)
(-5.4891 1.37107 -3.21896e-16)
(-5.88793 1.72605 1.39797e-16)
(-6.69969 2.26583 3.65974e-17)
(-7.57677 2.91685 6.94233e-17)
(-8.40881 3.633 -8.62719e-18)
(-9.17646 4.45201 -9.19806e-17)
(-9.90046 5.45291 1.42903e-16)
(-10.6641 6.50881 -1.77993e-16)
(-11.4275 6.90742 8.97115e-18)
(-12.1256 6.44223 6.20171e-18)
(-12.5694 7.40757 -6.11893e-18)
(-11.8456 13.0955 1.28983e-18)
(-9.70139 22.2253 -7.41413e-18)
(-9.38106 27.3062 -1.8574e-18)
(-15.0471 22.3791 1.24502e-18)
(-25.0839 4.63916 2.67468e-17)
(-37.2914 -14.6677 -7.91695e-18)
(-44.9644 -14.4617 -2.83436e-17)
(-43.4958 2.48484 -1.68505e-17)
(-38.3156 11.283 2.24975e-16)
(-36.7523 4.15884 -4.4977e-17)
(-38.7975 -8.64908 -1.88753e-16)
(-42.1039 -19.5181 5.59814e-17)
(-45.6299 -27.0706 -1.24244e-16)
(-51.4394 -32.7567 3.28832e-17)
(-58.4365 -37.691 6.36414e-17)
(-64.4596 -40.98 1.25916e-17)
(-69.6323 -42.9951 -9.67377e-18)
(-74.2058 -43.5027 -5.15648e-17)
(-78.4921 -41.9065 3.81521e-17)
(-81.7947 -37.8579 2.98353e-18)
(-85.603 -32.4726 1.00788e-16)
(-89.5943 -23.8286 3.45962e-17)
(-93.0846 -7.63139 -4.06522e-17)
(-2.04149 -0.0112308 3.67894e-18)
(-2.48825 0.208888 1.13631e-16)
(-2.70503 0.414227 4.22266e-17)
(-3.01083 0.621673 -4.48418e-17)
(-3.31717 0.848637 -2.07526e-16)
(-3.6201 1.09853 8.84921e-17)
(-3.91984 1.36875 -2.21473e-16)
(-4.22165 1.66075 -2.49175e-16)
(-4.51043 1.96334 1.97167e-16)
(-5.0053 2.42595 7.55234e-17)
(-5.66948 3.02899 1.85457e-16)
(-6.30215 3.69163 -1.67601e-16)
(-6.90719 4.41154 4.726e-17)
(-7.46185 5.19678 4.25347e-17)
(-7.98322 6.17398 -1.20671e-16)
(-8.47562 7.32004 -5.6051e-17)
(-8.92946 8.00782 -7.96204e-18)
(-9.4409 7.79165 3.34779e-17)
(-9.88353 8.12479 1.67679e-17)
(-9.31647 11.996 -3.82268e-17)
(-7.23714 20.3449 1.99037e-17)
(-5.82478 30.0959 -5.23025e-18)
(-7.22559 29.9466 6.47292e-18)
(-14.2275 15.914 1.24089e-17)
(-25.8205 -1.88848 -6.96345e-17)
(-32.985 -6.99489 4.67109e-17)
(-33.1243 -2.62711 -1.28731e-17)
(-32.455 -2.01884 1.22184e-16)
(-34.4805 -7.36851 7.08395e-17)
(-38.3145 -14.2427 -2.43279e-16)
(-42.8113 -19.7508 -1.60842e-18)
(-47.6055 -23.2642 6.06883e-17)
(-53.3218 -25.0837 4.26896e-18)
(-59.7384 -26.1378 -8.77836e-18)
(-65.6187 -26.2151 -4.66224e-17)
(-70.8127 -25.0773 6.69338e-17)
(-76.845 -22.7213 -2.72255e-17)
(-84.5847 -18.3779 -3.8332e-19)
(-93.6696 -11.6287 4.86447e-18)
(-100.686 -2.33832 -3.53955e-17)
(-103.78 11.4626 -1.32781e-17)
(-1.62972 0.25614 -4.56226e-17)
(-1.95179 0.467346 2.54037e-17)
(-2.1016 0.646921 -3.54753e-17)
(-2.31674 0.839073 4.87793e-17)
(-2.53308 1.04631 2.07549e-16)
(-2.7483 1.27322 3.55229e-16)
(-2.96239 1.51718 2.99333e-16)
(-3.18015 1.78093 -5.49382e-16)
(-3.38918 2.05881 -5.48394e-16)
(-3.6463 2.40984 5.03328e-16)
(-4.13837 2.96678 1.39271e-16)
(-4.60026 3.5751 -4.30239e-16)
(-5.04584 4.24443 2.49601e-16)
(-5.45369 4.95708 -3.89409e-17)
(-5.81512 5.72058 -8.17229e-18)
(-6.13112 6.66062 1.54885e-16)
(-6.37598 7.80577 -2.3501e-16)
(-6.55288 8.68401 -8.70253e-17)
(-6.79032 8.74628 1.82219e-16)
(-6.96551 8.71675 -9.69634e-17)
(-6.35304 11.074 1.09887e-17)
(-4.51283 19.1295 5.33435e-17)
(-1.66549 29.3118 -1.02132e-17)
(-0.0855873 33.5053 -1.91844e-17)
(-3.12955 25.3687 3.0268e-17)
(-11.0511 11.5855 2.61795e-17)
(-18.3841 1.76154 -6.57047e-17)
(-22.1777 -3.04259 -6.3016e-17)
(-25.2634 -6.41149 2.06377e-16)
(-29.3689 -9.75113 4.46636e-17)
(-34.2645 -12.4874 -1.48506e-16)
(-39.4297 -14.0947 -1.46783e-16)
(-44.4092 -14.4952 8.72063e-18)
(-49.4101 -13.6787 6.86373e-17)
(-53.7905 -11.9686 1.48851e-17)
(-58.24 -9.92338 -4.85197e-18)
(-62.4302 -7.21476 1.96269e-17)
(-67.3716 -3.71383 -7.66461e-18)
(-76.1271 2.42457 3.96336e-17)
(-83.2572 10.8151 8.51708e-18)
(-86.3326 21.6916 -2.44189e-17)
(-1.31449 0.410102 -2.87409e-17)
(-1.54236 0.605203 -8.52077e-17)
(-1.64348 0.761688 -2.12754e-17)
(-1.78932 0.935234 1.84779e-16)
(-1.93686 1.12084 1.04968e-16)
(-2.08241 1.32196 2.4708e-16)
(-2.2279 1.5381 2.47267e-17)
(-2.37432 1.77005 -3.28648e-16)
(-2.52021 2.02066 3.13456e-16)
(-2.66773 2.29123 -2.14814e-17)
(-2.9685 2.76044 -5.56711e-16)
(-3.29408 3.30585 -3.41075e-17)
(-3.60178 3.90342 5.09199e-16)
(-3.87796 4.55177 -7.20894e-17)
(-4.10989 5.23452 -1.40312e-16)
(-4.29138 5.95752 3.29145e-16)
(-4.40912 6.82265 -2.95187e-17)
(-4.42884 7.87698 -1.5203e-16)
(-4.3695 8.80267 -9.99601e-17)
(-4.33625 9.05059 5.7315e-17)
(-4.2766 8.82778 -1.35861e-17)
(-3.77602 10.684 -4.67515e-17)
(-1.87571 16.1293 7.538e-17)
(1.50899 24.6559 1.17894e-17)
(4.64853 30.5972 -6.25752e-18)
(4.76729 28.8189 -1.75329e-17)
(1.22596 21.0357 4.78365e-18)
(-4.28475 11.9206 -2.47883e-17)
(-9.64481 4.13714 2.2473e-17)
(-14.5041 -1.33522 7.23889e-18)
(-19.4074 -4.439 -1.10001e-16)
(-24.4879 -5.42646 1.27387e-16)
(-29.5929 -4.83372 -6.42941e-18)
(-34.3804 -3.30787 -1.27876e-16)
(-38.7885 -1.41543 1.54883e-16)
(-42.662 0.808951 -4.16562e-17)
(-45.6052 3.12512 -7.85074e-17)
(-46.8278 5.34892 4.25156e-17)
(-48.4866 8.28839 1.70697e-17)
(-53.2173 13.3291 3.37646e-18)
(-59.3158 21.826 2.44371e-18)
(-1.05835 0.490965 -5.19531e-18)
(-1.21741 0.667062 -6.06886e-17)
(-1.28168 0.802302 -5.65522e-17)
(-1.37793 0.955685 1.65252e-16)
(-1.47427 1.1185 -3.23534e-17)
(-1.56917 1.29387 -1.08224e-16)
(-1.66279 1.48195 1.46186e-16)
(-1.75696 1.68282 -1.80404e-17)
(-1.85043 1.90239 -9.55182e-17)
(-1.94077 2.13515 9.78133e-17)
(-2.09857 2.49062 -6.08891e-17)
(-2.31971 2.96924 2.52932e-17)
(-2.51722 3.48332 1.45991e-17)
(-2.68589 4.03857 -1.95684e-16)
(-2.81375 4.63416 2.5198e-16)
(-2.89284 5.25522 7.12102e-17)
(-2.91423 5.90327 2.84152e-17)
(-2.85935 6.64873 -1.82067e-17)
(-2.69898 7.54476 -7.00499e-17)
(-2.44765 8.38969 1.85428e-17)
(-2.22434 8.705 7.50818e-17)
(-2.08959 8.98819 -5.49565e-17)
(-1.56009 9.69821 -4.61975e-17)
(0.0392277 12.7744 6.88046e-17)
(2.9635 18.3083 -2.32153e-17)
(6.28522 23.7114 -2.22894e-17)
(8.34148 25.8172 2.48015e-17)
(8.26922 23.804 -3.25782e-17)
(6.11513 18.9684 -4.72633e-18)
(2.46512 13.0774 8.23844e-17)
(-1.66648 7.9836 -2.20131e-17)
(-5.77496 4.9268 -1.85402e-16)
(-9.71284 4.20376 1.37758e-16)
(-13.4454 5.40857 1.13652e-16)
(-17.0387 7.78601 -9.23805e-17)
(-20.4438 10.544 -4.04859e-17)
(-23.5547 13.1186 2.77261e-17)
(-26.0557 15.003 -1.10589e-17)
(-28.1754 16.6709 1.65924e-17)
(-29.3944 18.1477 1.09952e-17)
(-30.4613 20.1563 -5.07943e-18)
(-0.848503 0.526116 2.59167e-17)
(-0.958923 0.68021 -4.09384e-17)
(-0.994902 0.796283 4.15909e-18)
(-1.0553 0.929807 -8.25137e-17)
(-1.11396 1.07005 7.54189e-17)
(-1.17167 1.22076 -1.61702e-17)
(-1.22723 1.38183 -1.05369e-16)
(-1.28249 1.55382 -4.64824e-17)
(-1.33641 1.74147 1.77732e-16)
(-1.38539 1.94231 6.15408e-17)
(-1.45372 2.20354 -3.31198e-17)
(-1.59416 2.61467 7.71775e-17)
(-1.71063 3.05325 3.65483e-17)
(-1.79997 3.51856 -1.31997e-16)
(-1.85293 4.01501 -7.18637e-17)
(-1.86186 4.53566 1.66106e-17)
(-1.81914 5.07069 1.62569e-17)
(-1.71579 5.61418 2.73345e-17)
(-1.53508 6.21372 -5.72369e-17)
(-1.24653 6.91367 -3.98409e-17)
(-0.883865 7.5934 5.52366e-18)
(-0.550894 8.36347 8.01579e-17)
(-0.27819 8.5016 2.82921e-18)
(0.186939 8.72735 -3.6005e-17)
(1.30855 10.0517 -3.34679e-17)
(3.3662 12.8964 2.48605e-17)
(6.0374 16.5019 4.5545e-17)
(8.61688 19.4834 2.13191e-17)
(10.3197 20.6507 -1.44116e-17)
(10.8576 19.7348 -1.44421e-17)
(10.2294 17.3429 -1.97678e-17)
(8.69478 14.3757 3.05292e-17)
(6.9211 12.04 -4.87406e-17)
(5.3831 11.167 1.22717e-17)
(4.34558 12.016 5.11541e-17)
(3.77807 14.2809 8.97263e-18)
(3.56377 17.3352 -2.79157e-17)
(3.44363 20.2809 -3.07171e-17)
(3.49402 23.0871 7.29858e-17)
(3.42167 25.2287 -6.46431e-17)
(3.3224 27.692 -7.15676e-18)
(-0.677841 0.530068 6.2161e-17)
(-0.751877 0.663798 -3.62833e-17)
(-0.768168 0.76186 1.15148e-16)
(-0.801578 0.876368 -1.5432e-16)
(-0.833553 0.99572 -1.65753e-16)
(-0.863714 1.12323 -2.4005e-17)
(-0.892102 1.25936 1.38127e-16)
(-0.918581 1.40465 -1.48077e-16)
(-0.94395 1.56266 2.76195e-16)
(-0.964614 1.73418 6.75286e-17)
(-0.98532 1.92571 -4.79761e-16)
(-1.05327 2.26111 3.68427e-16)
(-1.11189 2.63469 -2.01337e-17)
(-1.14457 3.02495 -2.32399e-16)
(-1.1465 3.43386 -1.35905e-16)
(-1.11021 3.85754 9.276e-19)
(-1.03089 4.29366 8.85724e-17)
(-0.900787 4.72875 2.21209e-16)
(-0.715436 5.15948 -1.44115e-16)
(-0.455373 5.6082 3.17801e-17)
(-0.110407 6.11249 -6.65639e-17)
(0.335801 6.97223 -8.64558e-17)
(0.761551 7.52237 1.35515e-16)
(1.15136 7.75547 -4.2211e-18)
(1.60306 7.85429 -5.37403e-17)
(2.35929 8.27506 2.88948e-17)
(3.62589 9.38279 1.13616e-18)
(5.40787 11.1381 -2.77183e-17)
(7.46773 13.1279 3.94412e-17)
(9.49989 14.7696 7.03914e-18)
(11.1783 15.612 -3.00674e-17)
(12.3276 15.4211 -1.27734e-17)
(12.9746 14.3638 4.38849e-19)
(13.3328 12.9901 4.62925e-17)
(13.8294 11.9711 -5.97503e-17)
(14.8166 11.7657 3.16703e-17)
(16.5255 12.5544 1.27374e-18)
(18.736 14.0969 -4.35329e-17)
(21.6463 16.3077 5.87901e-17)
(24.8564 18.6908 1.62159e-17)
(28.8079 21.4538 -3.34293e-17)
(-0.539148 0.514366 1.25007e-17)
(-0.585963 0.628631 -2.17851e-19)
(-0.588545 0.710837 -1.33141e-16)
(-0.602701 0.807684 7.6027e-18)
(-0.615478 0.908201 7.98648e-17)
(-0.626203 1.0147 -8.10688e-17)
(-0.634933 1.12832 3.94625e-17)
(-0.641353 1.24965 -1.59948e-16)
(-0.64582 1.38075 -2.22221e-16)
(-0.645965 1.52548 5.71732e-16)
(-0.642746 1.67952 -5.30034e-16)
(-0.658119 1.93541 -1.97418e-16)
(-0.673025 2.24773 3.19934e-16)
(-0.665968 2.57036 3.74308e-16)
(-0.632484 2.90396 -9.96605e-17)
(-0.56754 3.24601 -1.48344e-16)
(-0.466889 3.59296 1.51588e-16)
(-0.325299 3.93988 -1.48173e-16)
(-0.139873 4.27673 3.3593e-17)