/*--------------------------------*- C++ -*----------------------------------*\
| =========                 |                                                 |
| \\      /  F ield         | OpenFOAM: The Open Source CFD Toolbox           |
|  \\    /   O peration     | Version:  2312                                  |
|   \\  /    A nd           | Website:  www.openfoam.com                      |
|    \\/     M anipulation  |                                                 |
\*---------------------------------------------------------------------------*/
FoamFile
{
    version     2.0;
    format      ascii;
    arch        "LSB;label=32;scalar=64";
    class       volScalarField;
    location    "100";
    object      nut;
}
// * * * * * * * * * * * * * * * * * * * * * * * * * * * * * * * * * * * * * //

dimensions      [0 2 -1 0 0 0 0];

internalField   nonuniform List<scalar> 
11040
(
1.24941e-05
3.10334e-05
5.88676e-05
7.38605e-05
4.81383e-06
1.176e-05
8.10509e-05
0.000114829
0.000127954
0.000125043
0.00012543
0.000125347
0.000121209
0.000117756
0.000106268
0.000112316
0.000132353
0.000155303
0.000150669
0.000169515
0.00019674
0.000220463
0.000296615
0.00033999
0.000348843
0.000339259
0.000332949
0.000323915
0.000291924
0.000278433
0.000210195
0.000236608
0.000280994
0.000331491
0.000494917
0.000539202
0.000611965
0.000694054
0.000769893
0.000833963
0.000787293
6.07106e-06
7.7103e-06
2.9295e-05
8.14623e-05
9.84662e-05
0.000151311
0.000489229
0.000660963
0.000687862
0.000653571
0.000615791
0.000584455
0.000559385
0.000524686
0.000511359
0.000542716
0.000610982
0.000706315
0.000796779
0.000891108
0.000991957
0.00104312
0.00100596
0.00090117
0.00077252
0.00067824
0.000680261
0.000742137
0.000801658
0.000833202
0.0010073
0.00122293
0.00142129
0.00154974
0.0016405
0.0016755
0.0016981
0.00169965
0.00168145
0.00162634
0.00135864
6.38608e-06
6.27418e-06
6.69161e-06
2.30586e-05
6.38978e-05
0.000103187
0.000309861
0.000670699
0.00097815
0.00111423
0.00120921
0.00126452
0.00125914
0.0012043
0.00116812
0.00121805
0.00135031
0.00152469
0.00171005
0.00188179
0.00207298
0.0022318
0.00222671
0.00206503
0.00182769
0.00164494
0.00165862
0.00180715
0.00194778
0.00199911
0.00239817
0.00287926
0.00328018
0.00353456
0.00369673
0.00378237
0.00383034
0.0038319
0.00378891
0.00367026
0.00324402
6.24073e-06
6.51365e-06
5.86283e-06
5.67576e-06
1.59195e-05
3.3648e-05
0.000107809
0.000337031
0.000749337
0.00119751
0.00150578
0.00170639
0.00183999
0.00192011
0.00197785
0.00208674
0.00233605
0.00263985
0.00292665
0.00316637
0.00342583
0.00373183
0.0038356
0.00366236
0.00333331
0.00307243
0.00311224
0.00339232
0.00356139
0.00369047
0.00446113
0.00528371
0.00590681
0.00629327
0.00652421
0.00663569
0.00668006
0.00665749
0.0065716
0.00638283
0.0058075
6.25179e-06
6.21751e-06
6.44941e-06
5.53426e-06
5.7092e-06
8.51989e-06
1.13509e-05
7.44914e-05
0.00030998
0.00074924
0.00131195
0.00179708
0.00213367
0.00239072
0.00262175
0.00291922
0.00342355
0.00404458
0.00449782
0.00478122
0.00505487
0.00549939
0.00579953
0.00573949
0.00538229
0.00508892
0.00519187
0.00542276
0.00551194
0.00610775
0.00736383
0.00856583
0.00941849
0.00993385
0.0102146
0.0103189
0.0103184
0.0102378
0.0100888
0.00983325
0.009147
6.22231e-06
6.23008e-06
6.25491e-06
6.28757e-06
5.66179e-06
5.85488e-06
4.32974e-06
1.64993e-06
2.81867e-05
0.000247042
0.000665851
0.00126683
0.0019102
0.00246124
0.00292062
0.00342675
0.00422688
0.00534939
0.00637297
0.00678492
0.00698825
0.00745585
0.00803302
0.00828034
0.00808996
0.00781759
0.00775645
0.00786336
0.00802126
0.00947711
0.0113221
0.012896
0.0139668
0.0145842
0.01487
0.0149076
0.0147927
0.0145973
0.0143415
0.014003
0.0132572
6.2193e-06
6.23266e-06
6.22216e-06
6.27988e-06
6.20901e-06
6.02667e-06
6.08012e-06
2.7934e-06
1.41785e-07
2.13483e-06
0.000151381
0.000502779
0.00109074
0.00186258
0.00265745
0.0034311
0.00447814
0.00602935
0.00777446
0.00904799
0.00928079
0.00955738
0.0103938
0.0111743
0.0114589
0.0110684
0.0108017
0.0108639
0.011752
0.0141092
0.0165579
0.0184942
0.0197444
0.0204014
0.0206096
0.0204817
0.0201416
0.0197229
0.0192749
0.0188253
0.0180954
6.21236e-06
6.21745e-06
6.23054e-06
6.22284e-06
6.26445e-06
6.23172e-06
6.25029e-06
6.54381e-06
2.87027e-06
3.58908e-08
2.0947e-13
2.43623e-05
0.000313165
0.000878437
0.00172129
0.00271232
0.00397053
0.00583248
0.00819159
0.010414
0.0117097
0.0118898
0.0127352
0.0141249
0.0150953
0.0147774
0.0144521
0.014648
0.0169299
0.0203242
0.0233834
0.0256524
0.0270061
0.0275863
0.0275753
0.0271242
0.0263906
0.025572
0.0247925
0.0241736
0.0235129
6.20428e-06
6.21344e-06
6.21982e-06
6.22596e-06
6.21391e-06
6.28457e-06
6.18124e-06
6.41403e-06
7.20211e-06
4.21805e-06
4.36958e-09
7.40211e-08
2.6159e-10
0.000168211
0.00068019
0.00147963
0.00264207
0.00454436
0.00727541
0.0103131
0.0128715
0.0142572
0.015066
0.0169101
0.0188393
0.0189842
0.0188911
0.0199563
0.0239413
0.0284525
0.0322101
0.0347776
0.036101
0.0364071
0.0359555
0.0349385
0.0335627
0.0320827
0.0307466
0.0297952
0.0292841
6.19596e-06
6.20778e-06
6.21314e-06
6.21981e-06
6.21674e-06
6.22203e-06
6.28164e-06
6.11489e-06
6.44881e-06
7.81208e-06
5.49293e-06
3.02541e-07
2.39984e-09
5.62894e-06
9.13581e-05
0.000457721
0.00111164
0.00245193
0.00496209
0.00839093
0.0120023
0.0150209
0.017098
0.0192983
0.022469
0.0237163
0.0242727
0.0273073
0.0331869
0.0390848
0.043767
0.0465868
0.0476923
0.0474116
0.0461303
0.0441549
0.0417657
0.0392497
0.0369889
0.0354981
0.0350172
6.18842e-06
6.2002e-06
6.20746e-06
6.21128e-06
6.21775e-06
6.20827e-06
6.23294e-06
6.26185e-06
6.06605e-06
6.38525e-06
8.33568e-06
6.86686e-06
7.49251e-07
3.75841e-09
5.99461e-07
7.85366e-06
0.000148895
0.000594094
0.00206893
0.00496463
0.00892622
0.0132459
0.0172544
0.0207134
0.0253303
0.0286048
0.0307134
0.0365367
0.0447594
0.0525894
0.0582092
0.0614595
0.0623218
0.0610741
0.0585164
0.0550442
0.0510911
0.0470473
0.0433935
0.0409265
0.0392894
6.18084e-06
6.19253e-06
6.20022e-06
6.2051e-06
6.20886e-06
6.21355e-06
6.2041e-06
6.23841e-06
6.23925e-06
6.01866e-06
6.33694e-06
8.03401e-06
7.88019e-06
1.4948e-06
9.98714e-10
1.0874e-08
9.77027e-07
3.44737e-07
0.000240566
0.00164277
0.00468455
0.00915427
0.0146295
0.0205065
0.0264988
0.0328417
0.0382278
0.0469511
0.0574531
0.0660171
0.0722974
0.0761732
0.0775468
0.0764902
0.0731053
0.0676526
0.0615438
0.0554125
0.0497986
0.0453266
0.041986
6.17351e-06
6.18511e-06
6.19279e-06
6.19845e-06
6.20235e-06
6.20638e-06
6.20877e-06
6.20344e-06
6.23695e-06
6.22497e-06
6.00756e-06
6.22095e-06
7.91814e-06
8.02176e-06
3.39223e-06
9.49476e-08
1.04156e-09
1.01646e-10
2.98653e-06
0.000381926
0.00131587
0.00455528
0.0098374
0.0173292
0.0258314
0.035209
0.045126
0.0572484
0.0685667
0.0777476
0.0845959
0.0889777
0.0907624
0.0899835
0.0867011
0.0809479
0.0729049
0.0641875
0.0561729
0.0490076
0.0433317
6.16651e-06
6.17786e-06
6.18562e-06
6.19137e-06
6.19599e-06
6.19958e-06
6.20366e-06
6.20433e-06
6.20478e-06
6.23609e-06
6.2025e-06
6.03662e-06
6.22235e-06
7.304e-06
7.9793e-06
6.14498e-06
8.705e-07
5.21352e-09
1.53759e-14
0
0.000330042
0.00122483
0.00502619
0.0123629
0.0232583
0.0359605
0.0500012
0.06431
0.0767432
0.0867951
0.0943625
0.0993623
0.101631
0.101168
0.0980186
0.092271
0.083939
0.0732289
0.062677
0.0526534
0.0437701
6.15989e-06
6.17088e-06
6.17852e-06
6.18428e-06
6.18898e-06
6.19304e-06
6.19672e-06
6.19996e-06
6.20098e-06
6.20854e-06
6.22278e-06
6.19556e-06
6.12422e-06
6.16635e-06
6.59265e-06
8.23389e-06
8.79048e-06
2.5551e-06
1.33879e-10
1.51596e-12
0
0.000324545
0.00128586
0.00686614
0.0181624
0.0337486
0.0506716
0.0667452
0.0806975
0.0920602
0.100747
0.106742
0.109909
0.110196
0.107595
0.102158
0.094
0.0830437
0.070222
0.0575448
0.0447937
6.15364e-06
6.16413e-06
6.17144e-06
6.17697e-06
6.18158e-06
6.18565e-06
6.18946e-06
6.1931e-06
6.19568e-06
6.19977e-06
6.20772e-06
6.20632e-06
6.21138e-06
6.21771e-06
6.0278e-06
6.07697e-06
8.28748e-06
1.08302e-05
3.67826e-06
1.57837e-09
5.00056e-12
0
0.000386933
0.0016426
0.0102484
0.0257344
0.0443581
0.0625773
0.0786606
0.0920103
0.102503
0.110167
0.114965
0.116795
0.115593
0.111341
0.10409
0.0938555
0.0805994
0.065709
0.0492855
6.14763e-06
6.15745e-06
6.16425e-06
6.16941e-06
6.17378e-06
6.17775e-06
6.18148e-06
6.18521e-06
6.18863e-06
6.19143e-06
6.19886e-06
6.2019e-06
6.19312e-06
6.244e-06
6.27383e-06
5.85602e-06
5.88314e-06
8.33697e-06
1.1371e-05
3.76516e-06
1.16389e-09
5.96056e-12
0
0.000456331
0.00184073
0.012354
0.0298485
0.049626
0.0682624
0.0843865
0.0976245
0.107926
0.115315
0.119761
0.121161
0.119421
0.114496
0.10629
0.0946162
0.0794529
0.0614812
6.14188e-06
6.15095e-06
6.1572e-06
6.16198e-06
6.16607e-06
6.16987e-06
6.17354e-06
6.17714e-06
6.18083e-06
6.18401e-06
6.18823e-06
6.19686e-06
6.19369e-06
6.19034e-06
6.2787e-06
6.26449e-06
5.77365e-06
5.78461e-06
8.45877e-06
1.15511e-05
3.52551e-06
3.10203e-09
2.35931e-11
0
0.000412979
0.00152477
0.010577
0.0273144
0.0471437
0.0663175
0.083148
0.0971589
0.108259
0.11645
0.121686
0.123884
0.122942
0.118739
0.11108
0.0997976
0.0847505
6.13643e-06
6.1448e-06
6.1506e-06
6.15508e-06
6.15898e-06
6.16264e-06
6.16622e-06
6.16979e-06
6.17333e-06
6.17702e-06
6.18049e-06
6.18632e-06
6.19437e-06
6.18679e-06
6.1982e-06
6.29858e-06
6.22643e-06
5.74767e-06
5.8103e-06
8.72133e-06
1.13115e-05
3.52339e-06
2.02244e-08
8.68035e-11
0
0.000166802
0.000313366
0.00581968
0.0186024
0.0364957
0.0559003
0.0741474
0.0899915
0.103059
0.113234
0.120422
0.124552
0.125616
0.123602
0.118567
0.110509
6.1314e-06
6.13918e-06
6.14463e-06
6.14891e-06
6.15269e-06
6.15629e-06
6.15982e-06
6.16336e-06
6.16689e-06
6.17051e-06
6.17438e-06
6.17852e-06
6.1857e-06
6.19165e-06
6.18435e-06
6.20876e-06
6.30327e-06
6.20043e-06
5.71619e-06
5.97743e-06
8.74097e-06
1.07884e-05
4.28365e-06
3.25232e-08
1.65461e-10
0
9.57243e-07
0.000726901
0.00161244
0.00802555
0.0204977
0.0372839
0.0558454
0.0738268
0.0897619
0.102966
0.11321
0.120515
0.124884
0.126362
0.125072
6.12674e-06
6.13404e-06
6.13925e-06
6.14342e-06
6.14715e-06
6.15072e-06
6.15424e-06
6.15775e-06
6.1613e-06
6.16485e-06
6.16868e-06
6.17294e-06
6.17791e-06
6.18573e-06
6.18943e-06
6.18621e-06
6.21945e-06
6.29477e-06
6.16558e-06
5.76801e-06
6.14071e-06
8.17459e-06
1.03741e-05
5.83833e-06
8.60183e-08
6.54238e-10
0
0
9.52453e-05
0.000839475
0.0014809
0.00647904
0.0164005
0.0304937
0.0471658
0.0643032
0.080162
0.0938276
0.104851
0.113103
0.118688
6.12242e-06
6.12935e-06
6.13441e-06
6.13855e-06
6.14228e-06
6.14586e-06
6.14938e-06
6.15288e-06
6.15643e-06
6.15997e-06
6.16365e-06
6.16787e-06
6.17252e-06
6.17835e-06
6.18579e-06
6.18922e-06
6.18929e-06
6.22716e-06
6.27594e-06
6.16129e-06
5.85356e-06
6.10295e-06
7.78466e-06
9.2758e-06
8.25011e-06
6.50055e-07
4.70583e-09
9.12614e-13
0
0
7.39483e-05
0.00050327
0.00040047
0.00318408
0.00929262
0.0188501
0.0311183
0.0449006
0.0587609
0.071508
0.0823437
6.11844e-06
6.1251e-06
6.13008e-06
6.13423e-06
6.13799e-06
6.14159e-06
6.14512e-06
6.14862e-06
6.15214e-06
6.15569e-06
6.15931e-06
6.16333e-06
6.16791e-06
6.17297e-06
6.17923e-06
6.18626e-06
6.1897e-06
6.19475e-06
6.22645e-06
6.26393e-06
6.15874e-06
5.98122e-06
6.04062e-06
7.12358e-06
8.74394e-06
8.06238e-06
4.11182e-06
3.98598e-08
8.61422e-10
1.16574e-12
0
0
1.11296e-06
0.0001881
0.000684672
0.000634737
0.0028365
0.00723318
0.0136695
0.0217134
0.0305353
6.11477e-06
6.12125e-06
6.12622e-06
6.1304e-06
6.1342e-06
6.13783e-06
6.14136e-06
6.14485e-06
6.14835e-06
6.15187e-06
6.15545e-06
6.1593e-06
6.16367e-06
6.16853e-06
6.17395e-06
6.18031e-06
6.18708e-06
6.19117e-06
6.19855e-06
6.22401e-06
6.24927e-06
6.19454e-06
6.04429e-06
6.08188e-06
6.53124e-06
7.83796e-06
8.4313e-06
6.48821e-06
3.25836e-06
6.69388e-08
1.08322e-09
1.03603e-11
4.88108e-15
0
0
4.39111e-06
0.000146312
0.000431693
0.000159349
0.000983828
0.00256798
6.11142e-06
6.11778e-06
6.12276e-06
6.12699e-06
6.13083e-06
6.13448e-06
6.13802e-06
6.14149e-06
6.14495e-06
6.14844e-06
6.15196e-06
6.15566e-06
6.1598e-06
6.16443e-06
6.16951e-06
6.17511e-06
6.18149e-06
6.18793e-06
6.19307e-06
6.20065e-06
6.22127e-06
6.23926e-06
6.2168e-06
6.13018e-06
6.08764e-06
6.29443e-06
6.87139e-06
7.74497e-06
8.09166e-06
6.3613e-06
3.68502e-06
7.69664e-07
4.12994e-10
1.06338e-10
8.4206e-12
7.46673e-14
0
0
1.779e-08
1.3294e-05
0.000109774
6.10835e-06
6.11465e-06
6.11966e-06
6.12393e-06
6.12781e-06
6.13147e-06
6.135e-06
6.13845e-06
6.14186e-06
6.1453e-06
6.14876e-06
6.15233e-06
6.15625e-06
6.16061e-06
6.1654e-06
6.17059e-06
6.17625e-06
6.18249e-06
6.18882e-06
6.19444e-06
6.20226e-06
6.21673e-06
6.23319e-06
6.22745e-06
6.1919e-06
6.14069e-06
6.17375e-06
6.38531e-06
6.81852e-06
7.45357e-06
7.7655e-06
7.16141e-06
5.35361e-06
2.86954e-06
9.12134e-07
9.24393e-09
3.20949e-10
1.35906e-11
4.24315e-12
5.98832e-13
0
6.10556e-06
6.11182e-06
6.11685e-06
6.12116e-06
6.12506e-06
6.12872e-06
6.13222e-06
6.13563e-06
6.139e-06
6.14238e-06
6.14577e-06
6.14925e-06
6.15298e-06
6.15707e-06
6.16154e-06
6.16638e-06
6.17157e-06
6.17716e-06
6.18321e-06
6.18933e-06
6.19534e-06
6.20267e-06
6.21338e-06
6.22578e-06
6.23205e-06
6.22171e-06
6.19648e-06
6.17564e-06
6.20526e-06
6.35955e-06
6.62809e-06
7.02286e-06
7.42029e-06
7.47598e-06
7.05454e-06
5.75775e-06
3.93542e-06
2.08645e-06
7.4854e-07
1.18304e-07
1.24468e-09
6.10302e-06
6.10925e-06
6.1143e-06
6.11863e-06
6.12253e-06
6.12616e-06
6.12963e-06
6.13299e-06
6.1363e-06
6.1396e-06
6.14293e-06
6.14631e-06
6.14988e-06
6.15375e-06
6.15793e-06
6.16243e-06
6.16723e-06
6.17232e-06
6.17775e-06
6.18349e-06
6.18944e-06
6.1955e-06
6.20207e-06
6.21018e-06
6.21957e-06
6.2282e-06
6.23156e-06
6.22573e-06
6.21101e-06
6.20024e-06
6.21124e-06
6.27202e-06
6.4077e-06
6.61557e-06
6.86673e-06
7.18936e-06
7.36126e-06
7.2658e-06
6.87023e-06
6.13381e-06
5.07886e-06
6.1007e-06
6.10691e-06
6.11196e-06
6.11627e-06
6.12015e-06
6.12374e-06
6.12715e-06
6.13046e-06
6.1337e-06
6.13693e-06
6.14018e-06
6.14347e-06
6.14689e-06
6.15056e-06
6.1545e-06
6.15869e-06
6.16314e-06
6.16782e-06
6.17275e-06
6.17791e-06
6.18336e-06
6.18901e-06
6.19469e-06
6.20058e-06
6.20696e-06
6.21408e-06
6.22158e-06
6.22829e-06
6.23196e-06
6.23071e-06
6.22496e-06
6.21719e-06
6.21444e-06
6.22716e-06
6.26274e-06
6.33927e-06
6.45637e-06
6.60536e-06
6.77268e-06
6.95263e-06
7.13313e-06
6.09859e-06
6.10474e-06
6.10977e-06
6.11405e-06
6.11787e-06
6.12141e-06
6.12476e-06
6.128e-06
6.13117e-06
6.13433e-06
6.13749e-06
6.14068e-06
6.14397e-06
6.14746e-06
6.15117e-06
6.1551e-06
6.15923e-06
6.16356e-06
6.16807e-06
6.17275e-06
6.17765e-06
6.18272e-06
6.18784e-06
6.19299e-06
6.19817e-06
6.20343e-06
6.20889e-06
6.2146e-06
6.2204e-06
6.22569e-06
6.22976e-06
6.23172e-06
6.23099e-06
6.22792e-06
6.22374e-06
6.22036e-06
6.22167e-06
6.23164e-06
6.25258e-06
6.29048e-06
6.336e-06
6.09664e-06
6.10273e-06
6.10769e-06
6.11191e-06
6.11567e-06
6.11914e-06
6.12242e-06
6.12558e-06
6.12868e-06
6.13176e-06
6.13484e-06
6.13794e-06
6.1411e-06
6.14442e-06
6.14793e-06
6.15161e-06
6.15546e-06
6.15946e-06
6.16361e-06
6.16788e-06
6.17232e-06
6.17685e-06
6.1814e-06
6.18595e-06
6.19047e-06
6.19492e-06
6.1993e-06
6.20361e-06
6.20788e-06
6.21213e-06
6.21628e-06
6.2202e-06
6.22363e-06
6.22626e-06
6.22783e-06
6.22802e-06
6.22683e-06
6.22454e-06
6.22143e-06
6.21831e-06
6.21614e-06
6.09485e-06
6.10082e-06
6.10568e-06
6.10981e-06
6.11349e-06
6.11688e-06
6.12009e-06
6.12318e-06
6.12621e-06
6.12921e-06
6.13221e-06
6.13523e-06
6.13828e-06
6.14145e-06
6.14477e-06
6.14823e-06
6.15182e-06
6.15552e-06
6.15934e-06
6.16325e-06
6.16727e-06
6.17134e-06
6.17538e-06
6.17939e-06
6.18333e-06
6.18719e-06
6.19092e-06
6.1945e-06
6.19792e-06
6.20116e-06
6.20422e-06
6.2071e-06
6.20977e-06
6.21223e-06
6.21441e-06
6.21623e-06
6.21762e-06
6.21853e-06
6.21878e-06
6.21843e-06
6.21775e-06
6.09317e-06
6.099e-06
6.10372e-06
6.10773e-06
6.1113e-06
6.11461e-06
6.11774e-06
6.12077e-06
6.12373e-06
6.12667e-06
6.12959e-06
6.13253e-06
6.13549e-06
6.13853e-06
6.14169e-06
6.14495e-06
6.14832e-06
6.15177e-06
6.15529e-06
6.15887e-06
6.16253e-06
6.16619e-06
6.1698e-06
6.17333e-06
6.17678e-06
6.18011e-06
6.18331e-06
6.18634e-06
6.18919e-06
6.19184e-06
6.19426e-06
6.19645e-06
6.1984e-06
6.20011e-06
6.20156e-06
6.20276e-06
6.20369e-06
6.2044e-06
6.20473e-06
6.20504e-06
6.2047e-06
6.0916e-06
6.09723e-06
6.10177e-06
6.10563e-06
6.10909e-06
6.1123e-06
6.11536e-06
6.11832e-06
6.12122e-06
6.1241e-06
6.12696e-06
6.12983e-06
6.1327e-06
6.13563e-06
6.13865e-06
6.14175e-06
6.14493e-06
6.14816e-06
6.15144e-06
6.15474e-06
6.15809e-06
6.16141e-06
6.16465e-06
6.1678e-06
6.17083e-06
6.17373e-06
6.17648e-06
6.17906e-06
6.18145e-06
6.18363e-06
6.1856e-06
6.18734e-06
6.18884e-06
6.1901e-06
6.19112e-06
6.19188e-06
6.19238e-06
6.19267e-06
6.19263e-06
6.19264e-06
6.1918e-06
6.0901e-06
6.0955e-06
6.09983e-06
6.10351e-06
6.10682e-06
6.10993e-06
6.1129e-06
6.1158e-06
6.11866e-06
6.12148e-06
6.12429e-06
6.1271e-06
6.12991e-06
6.13275e-06
6.13565e-06
6.13861e-06
6.14162e-06
6.14467e-06
6.14774e-06
6.15081e-06
6.1539e-06
6.15694e-06
6.15987e-06
6.1627e-06
6.1654e-06
6.16795e-06
6.17035e-06
6.17256e-06
6.17459e-06
6.17642e-06
6.17804e-06
6.17944e-06
6.18061e-06
6.18157e-06
6.18229e-06
6.18278e-06
6.18304e-06
6.18311e-06
6.1829e-06
6.18269e-06
6.1816e-06
6.08866e-06
6.09378e-06
6.09787e-06
6.10135e-06
6.10451e-06
6.1075e-06
6.11039e-06
6.11323e-06
6.11603e-06
6.11881e-06
6.12158e-06
6.12434e-06
6.1271e-06
6.12986e-06
6.13267e-06
6.13551e-06
6.13838e-06
6.14126e-06
6.14415e-06
6.14702e-06
6.14989e-06
6.15269e-06
6.15537e-06
6.15794e-06
6.16036e-06
6.16264e-06
6.16476e-06
6.16669e-06
6.16845e-06
6.17e-06
6.17136e-06
6.17251e-06
6.17345e-06
6.17419e-06
6.17471e-06
6.17502e-06
6.17514e-06
6.17508e-06
6.17479e-06
6.17439e-06
6.17352e-06
6.08725e-06
6.09207e-06
6.09589e-06
6.09916e-06
6.10217e-06
6.10504e-06
6.10784e-06
6.11061e-06
6.11336e-06
6.1161e-06
6.11883e-06
6.12155e-06
6.12426e-06
6.12697e-06
6.12969e-06
6.13243e-06
6.13518e-06
6.13793e-06
6.14066e-06
6.14336e-06
6.14604e-06
6.14863e-06
6.15111e-06
6.15346e-06
6.15566e-06
6.15772e-06
6.15961e-06
6.16132e-06
6.16286e-06
6.16421e-06
6.16537e-06
6.16634e-06
6.16712e-06
6.1677e-06
6.1681e-06
6.1683e-06
6.16834e-06
6.16821e-06
6.16783e-06
6.16734e-06
6.16682e-06
6.08584e-06
6.09034e-06
6.09389e-06
6.09697e-06
6.09983e-06
6.10258e-06
6.1053e-06
6.108e-06
6.11069e-06
6.11338e-06
6.11606e-06
6.11873e-06
6.1214e-06
6.12406e-06
6.12671e-06
6.12937e-06
6.13203e-06
6.13466e-06
6.13726e-06
6.13982e-06
6.14234e-06
6.14476e-06
6.14706e-06
6.14923e-06
6.15126e-06
6.15313e-06
6.15484e-06
6.15639e-06
6.15776e-06
6.15896e-06
6.15997e-06
6.16081e-06
6.16147e-06
6.16195e-06
6.16226e-06
6.16241e-06
6.16239e-06
6.16216e-06
6.16179e-06
6.16143e-06
6.16133e-06
6.08442e-06
6.08857e-06
6.09188e-06
6.09478e-06
6.0975e-06
6.10016e-06
6.1028e-06
6.10543e-06
6.10806e-06
6.11069e-06
6.11332e-06
6.11594e-06
6.11856e-06
6.12116e-06
6.12375e-06
6.12633e-06
6.1289e-06
6.13143e-06
6.13392e-06
6.13636e-06
6.13874e-06
6.14102e-06
6.14317e-06
6.14519e-06
6.14707e-06
6.14879e-06
6.15036e-06
6.15177e-06
6.15302e-06
6.15409e-06
6.155e-06
6.15575e-06
6.15633e-06
6.15674e-06
6.15702e-06
6.15713e-06
6.15705e-06
6.15683e-06
6.15676e-06
6.15666e-06
6.15684e-06
6.08297e-06
6.08676e-06
6.08982e-06
6.09257e-06
6.0952e-06
6.09778e-06
6.10036e-06
6.10293e-06
6.10551e-06
6.10808e-06
6.11065e-06
6.11322e-06
6.11578e-06
6.11831e-06
6.12083e-06
6.12333e-06
6.12581e-06
6.12825e-06
6.13063e-06
6.13296e-06
6.13522e-06
6.13738e-06
6.1394e-06
6.14129e-06
6.14304e-06
6.14465e-06
6.1461e-06
6.1474e-06
6.14854e-06
6.14952e-06
6.15035e-06
6.15102e-06
6.15154e-06
6.15191e-06
6.15215e-06
6.15219e-06
6.15215e-06
6.15217e-06
6.15235e-06
6.15247e-06
6.15286e-06
6.08145e-06
6.08488e-06
6.08772e-06
6.09033e-06
6.09288e-06
6.09541e-06
6.09794e-06
6.10048e-06
6.10301e-06
6.10555e-06
6.10807e-06
6.11059e-06
6.11308e-06
6.11556e-06
6.118e-06
6.12042e-06
6.1228e-06
6.12514e-06
6.12742e-06
6.12964e-06
6.13178e-06
6.13381e-06
6.13571e-06
6.13749e-06
6.13912e-06
6.14061e-06
6.14196e-06
6.14315e-06
6.14421e-06
6.14511e-06
6.14587e-06
6.14648e-06
6.14696e-06
6.14731e-06
6.1475e-06
6.14756e-06
6.14768e-06
6.14786e-06
6.14817e-06
6.14841e-06
6.1489e-06
6.07987e-06
6.08293e-06
6.08556e-06
6.08805e-06
6.09052e-06
6.09301e-06
6.09551e-06
6.09803e-06
6.10054e-06
6.10306e-06
6.10556e-06
6.10803e-06
6.11048e-06
6.1129e-06
6.11527e-06
6.11761e-06
6.1199e-06
6.12214e-06
6.12432e-06
6.12642e-06
6.12845e-06
6.13037e-06
6.13216e-06
6.13382e-06
6.13535e-06
6.13674e-06
6.13799e-06
6.1391e-06
6.14006e-06
6.14089e-06
6.14158e-06
6.14213e-06
6.14256e-06
6.14284e-06
6.14301e-06
6.14321e-06
6.14349e-06
6.14381e-06
6.14425e-06
6.14461e-06
6.1452e-06
6.07822e-06
6.08091e-06
6.08332e-06
6.08568e-06
6.08807e-06
6.09051e-06
6.09299e-06
6.0955e-06
6.09802e-06
6.10054e-06
6.10303e-06
6.1055e-06
6.10792e-06
6.1103e-06
6.11263e-06
6.1149e-06
6.11711e-06
6.11925e-06
6.12132e-06
6.12331e-06
6.12522e-06
6.12701e-06
6.12868e-06
6.13022e-06
6.13163e-06
6.13291e-06
6.13406e-06
6.13507e-06
6.13595e-06
6.1367e-06
6.13732e-06
6.13782e-06
6.13821e-06
6.13845e-06
6.13867e-06
6.13893e-06
6.13924e-06
6.13959e-06
6.14003e-06
6.14038e-06
6.14096e-06
6.07649e-06
6.07882e-06
6.081e-06
6.0832e-06
6.08548e-06
6.08785e-06
6.09029e-06
6.0928e-06
6.09533e-06
6.09786e-06
6.10038e-06
6.10285e-06
6.10528e-06
6.10764e-06
6.10993e-06
6.11214e-06
6.11428e-06
6.11634e-06
6.11832e-06
6.12021e-06
6.12201e-06
6.12369e-06
6.12525e-06
6.12669e-06
6.128e-06
6.12917e-06
6.13022e-06
6.13114e-06
6.13192e-06
6.13259e-06
6.13312e-06
6.13355e-06
6.13382e-06
6.13408e-06
6.13438e-06
6.13473e-06
6.13514e-06
6.13557e-06
6.1361e-06
6.13655e-06
6.13721e-06
6.07468e-06
6.07664e-06
6.07855e-06
6.08054e-06
6.08266e-06
6.08491e-06
6.08728e-06
6.08974e-06
6.09227e-06
6.09482e-06
6.09737e-06
6.09988e-06
6.10233e-06
6.10472e-06
6.10702e-06
6.10924e-06
6.11135e-06
6.11337e-06
6.11527e-06
6.11707e-06
6.11877e-06
6.12034e-06
6.12178e-06
6.1231e-06
6.12429e-06
6.12535e-06
6.12629e-06
6.1271e-06
6.12779e-06
6.12837e-06
6.12882e-06
6.12918e-06
6.12941e-06
6.12961e-06
6.12985e-06
6.13012e-06
6.13044e-06
6.13078e-06
6.1312e-06
6.13152e-06
6.13205e-06
6.07278e-06
6.07432e-06
6.07588e-06
6.07757e-06
6.07944e-06
6.08148e-06
6.0837e-06
6.08607e-06
6.08855e-06
6.0911e-06
6.09367e-06
6.09621e-06
6.09869e-06
6.10108e-06
6.10337e-06
6.10554e-06
6.10759e-06
6.10952e-06
6.11133e-06
6.11302e-06
6.1146e-06
6.11604e-06
6.11736e-06
6.11854e-06
6.1196e-06
6.12054e-06
6.12134e-06
6.12203e-06
6.12259e-06
6.12303e-06
6.12335e-06
6.12357e-06
6.1238e-06
6.12407e-06
6.12439e-06
6.12476e-06
6.12516e-06
6.12559e-06
6.1261e-06
6.12651e-06
6.12717e-06
6.07075e-06
6.07177e-06
6.07286e-06
6.07409e-06
6.0755e-06
6.07713e-06
6.07899e-06
6.08107e-06
6.08335e-06
6.08581e-06
6.08839e-06
6.09102e-06
6.09364e-06
6.09616e-06
6.09851e-06
6.10069e-06
6.10276e-06
6.10471e-06
6.10654e-06
6.10824e-06
6.1098e-06
6.11122e-06
6.11249e-06
6.11362e-06
6.11462e-06
6.11548e-06
6.11622e-06
6.11682e-06
6.11729e-06
6.11764e-06
6.11786e-06
6.11809e-06
6.11836e-06
6.11866e-06
6.119e-06
6.11937e-06
6.11977e-06
6.12017e-06
6.12062e-06
6.12097e-06
6.12155e-06
6.06861e-06
6.06897e-06
6.06938e-06
6.06987e-06
6.07047e-06
6.07121e-06
6.07212e-06
6.07323e-06
6.07456e-06
6.07616e-06
6.07803e-06
6.08019e-06
6.08265e-06
6.08541e-06
6.08843e-06
6.09167e-06
6.09445e-06
6.09675e-06
6.09859e-06
6.10001e-06
6.10104e-06
6.10175e-06
6.10218e-06
6.10239e-06
6.10237e-06
6.10213e-06
6.10202e-06
6.10208e-06
6.10229e-06
6.10262e-06
6.10305e-06
6.10355e-06
6.10411e-06
6.10473e-06
6.10539e-06
6.10608e-06
6.10681e-06
6.10755e-06
6.10835e-06
6.10904e-06
6.11e-06
0.00143391
0.00251999
0.00331457
0.0026187
0.00105297
0.000231866
1.71497e-05
5.86377e-06
6.5808e-06
6.73605e-06
6.74115e-06
6.75036e-06
6.75542e-06
6.75496e-06
6.75036e-06
6.74266e-06
6.73242e-06
6.72009e-06
6.70598e-06
6.69081e-06
6.67506e-06
6.65925e-06
6.64396e-06
6.62964e-06
6.61634e-06
6.6038e-06
6.5921e-06
6.58116e-06
6.57035e-06
6.55933e-06
6.54807e-06
6.53676e-06
6.52501e-06
6.5124e-06
6.49926e-06
6.48546e-06
6.4705e-06
6.45458e-06
6.43794e-06
6.42131e-06
6.40589e-06
6.39315e-06
6.38457e-06
6.37872e-06
6.37457e-06
6.37103e-06
6.368e-06
6.36509e-06
6.36167e-06
6.35752e-06
6.3527e-06
6.3472e-06
6.34076e-06
6.33335e-06
6.32504e-06
6.31581e-06
6.30588e-06
6.29534e-06
6.28426e-06
6.27278e-06
6.26105e-06
6.24921e-06
6.23739e-06
6.22575e-06
6.21437e-06
6.20334e-06
6.19269e-06
6.18251e-06
6.17275e-06
6.16343e-06
6.15438e-06
6.14639e-06
6.13818e-06
6.13379e-06
0.0027408
0.00416685
0.00528254
0.00498224
0.00261158
0.000693492
8.80539e-05
5.72515e-06
6.2247e-06
6.77243e-06
6.78843e-06
6.79187e-06
6.79572e-06
6.79361e-06
6.78692e-06
6.77707e-06
6.76478e-06
6.75053e-06
6.73463e-06
6.71779e-06
6.70041e-06
6.68297e-06
6.66606e-06
6.65012e-06
6.63519e-06
6.62107e-06
6.60786e-06
6.59537e-06
6.58302e-06
6.57038e-06
6.55752e-06
6.5446e-06
6.53117e-06
6.5169e-06
6.50194e-06
6.48604e-06
6.46893e-06
6.45109e-06
6.43321e-06
6.41639e-06
6.40199e-06
6.39123e-06
6.38496e-06
6.38113e-06
6.37858e-06
6.37634e-06
6.37441e-06
6.37238e-06
6.36954e-06
6.36578e-06
6.36125e-06
6.3559e-06
6.3495e-06
6.34203e-06
6.33351e-06
6.32399e-06
6.31372e-06
6.30276e-06
6.29122e-06
6.27927e-06
6.26706e-06
6.25474e-06
6.24245e-06
6.23035e-06
6.21854e-06
6.20709e-06
6.19606e-06
6.1855e-06
6.17541e-06
6.1658e-06
6.15652e-06
6.14836e-06
6.14003e-06
6.13547e-06
0.00459679
0.00627042
0.00765659
0.00796359
0.00545761
0.00197085
0.000357446
1.49757e-05
5.05125e-06
6.69609e-06
6.8472e-06
6.83246e-06
6.8341e-06
6.83132e-06
6.82314e-06
6.81147e-06
6.79735e-06
6.7813e-06
6.76373e-06
6.74528e-06
6.72631e-06
6.70727e-06
6.68872e-06
6.67108e-06
6.65435e-06
6.63848e-06
6.6236e-06
6.60933e-06
6.59527e-06
6.58094e-06
6.56642e-06
6.55179e-06
6.53654e-06
6.52057e-06
6.50382e-06
6.48593e-06
6.46692e-06
6.44752e-06
6.42892e-06
6.41245e-06
6.39933e-06
6.39041e-06
6.38632e-06
6.38441e-06
6.38337e-06
6.38242e-06
6.38152e-06
6.38028e-06
6.37793e-06
6.37448e-06
6.37014e-06
6.36483e-06
6.35837e-06
6.35079e-06
6.34203e-06
6.3322e-06
6.32157e-06
6.31018e-06
6.29817e-06
6.28572e-06
6.273e-06
6.26018e-06
6.2474e-06
6.23484e-06
6.22259e-06
6.21072e-06
6.19929e-06
6.18837e-06
6.17795e-06
6.16807e-06
6.15857e-06
6.15025e-06
6.14182e-06
6.1371e-06
0.00710425
0.00901189
0.0107012
0.0114149
0.009411
0.00464784
0.00118326
0.000136142
3.53749e-06
5.96526e-06
6.94872e-06
6.88567e-06
6.86927e-06
6.8672e-06
6.85839e-06
6.8454e-06
6.82976e-06
6.81211e-06
6.79301e-06
6.77302e-06
6.75251e-06
6.73195e-06
6.71184e-06
6.6925e-06
6.6739e-06
6.65617e-06
6.63947e-06
6.62325e-06
6.60724e-06
6.59108e-06
6.57479e-06
6.55832e-06
6.54108e-06
6.52329e-06
6.50486e-06
6.48534e-06
6.46491e-06
6.44448e-06
6.42563e-06
6.40972e-06
6.39776e-06
6.39048e-06
6.38827e-06
6.38816e-06
6.38859e-06
6.38891e-06
6.38903e-06
6.38849e-06
6.38662e-06
6.38345e-06
6.37923e-06
6.37386e-06
6.36725e-06
6.35946e-06
6.35043e-06
6.34028e-06
6.32926e-06
6.31743e-06
6.30495e-06
6.29201e-06
6.27879e-06
6.26547e-06
6.2522e-06
6.23917e-06
6.22647e-06
6.21419e-06
6.20237e-06
6.19109e-06
6.18035e-06
6.17022e-06
6.16053e-06
6.15207e-06
6.14356e-06
6.13867e-06
0.0103386
0.012651
0.0145911
0.0154242
0.0140614
0.00896573
0.00322081
0.000577897
1.70737e-05
3.25783e-06
6.7866e-06
7.02715e-06
6.91069e-06
6.89921e-06
6.89216e-06
6.87879e-06
6.8621e-06
6.84312e-06
6.82264e-06
6.80118e-06
6.77915e-06
6.7571e-06
6.7355e-06
6.71452e-06
6.69408e-06
6.67446e-06
6.65584e-06
6.63755e-06
6.61941e-06
6.60121e-06
6.58297e-06
6.56447e-06
6.54511e-06
6.52534e-06
6.50528e-06
6.48455e-06
6.46329e-06
6.44244e-06
6.4237e-06
6.40842e-06
6.39753e-06
6.39165e-06
6.39056e-06
6.39207e-06
6.39388e-06
6.39546e-06
6.39657e-06
6.39671e-06
6.39534e-06
6.39249e-06
6.38838e-06
6.3829e-06
6.37607e-06
6.36799e-06
6.35863e-06
6.34814e-06
6.33672e-06
6.32444e-06
6.3115e-06
6.29808e-06
6.28437e-06
6.27055e-06
6.2568e-06
6.24331e-06
6.23018e-06
6.21748e-06
6.2053e-06
6.19366e-06
6.18263e-06
6.17225e-06
6.16239e-06
6.15381e-06
6.14524e-06
6.14019e-06
0.014408
0.0170209
0.0191575
0.0200565
0.0191622
0.0146206
0.00710128
0.00187642
0.000224814
1.13121e-06
4.54933e-06
7.15319e-06
7.02013e-06
6.93219e-06
6.92279e-06
6.91138e-06
6.89449e-06
6.87465e-06
6.853e-06
6.83015e-06
6.80661e-06
6.78303e-06
6.7599e-06
6.73732e-06
6.71513e-06
6.69367e-06
6.67309e-06
6.6527e-06
6.63232e-06
6.6119e-06
6.5915e-06
6.57077e-06
6.54919e-06
6.52734e-06
6.50564e-06
6.48395e-06
6.4624e-06
6.44174e-06
6.42343e-06
6.40887e-06
6.39887e-06
6.39385e-06
6.39331e-06
6.39588e-06
6.39896e-06
6.40172e-06
6.4038e-06
6.40462e-06
6.40377e-06
6.4013e-06
6.39736e-06
6.39182e-06
6.38476e-06
6.37634e-06
6.36661e-06
6.35574e-06
6.34389e-06
6.33116e-06
6.31776e-06
6.30387e-06
6.28969e-06
6.2754e-06
6.26118e-06
6.24726e-06
6.23371e-06
6.22061e-06
6.20807e-06
6.1961e-06
6.18478e-06
6.17419e-06
6.16418e-06
6.15548e-06
6.14687e-06
6.14165e-06
0.019353
0.0221208
0.0243179
0.025295
0.0246872
0.021072
0.013007
0.00482047
0.000938838
4.26633e-05
1.18644e-06
6.07857e-06
7.23208e-06
7.01934e-06
6.95192e-06
6.94226e-06
6.92716e-06
6.90707e-06
6.88463e-06
6.86057e-06
6.83553e-06
6.81033e-06
6.78555e-06
6.76126e-06
6.73733e-06
6.71409e-06
6.69159e-06
6.66916e-06
6.64656e-06
6.62384e-06
6.6011e-06
6.57799e-06
6.55413e-06
6.53015e-06
6.50673e-06
6.48413e-06
6.46263e-06
6.44263e-06
6.42513e-06
6.41133e-06
6.40195e-06
6.39741e-06
6.39713e-06
6.39971e-06
6.40361e-06
6.40742e-06
6.4104e-06
6.4119e-06
6.41159e-06
6.40956e-06
6.40588e-06
6.40037e-06
6.39315e-06
6.38442e-06
6.3743e-06
6.36304e-06
6.35076e-06
6.33757e-06
6.32371e-06
6.30936e-06
6.29473e-06
6.27999e-06
6.26533e-06
6.25098e-06
6.23704e-06
6.22357e-06
6.21068e-06
6.19841e-06
6.18684e-06
6.17604e-06
6.1659e-06
6.15711e-06
6.14848e-06
6.14307e-06
0.0251076
0.0277275
0.0298541
0.0310135
0.0306951
0.027949
0.0205233
0.0100654
0.00287823
0.000406122
1.11941e-06
2.36215e-06
6.96022e-06
7.27678e-06
7.02416e-06
6.97266e-06
6.95994e-06
6.94106e-06
6.91822e-06
6.89322e-06
6.86682e-06
6.83994e-06
6.81331e-06
6.7871e-06
6.76129e-06
6.7362e-06
6.71179e-06
6.68736e-06
6.66265e-06
6.6377e-06
6.61264e-06
6.5871e-06
6.56094e-06
6.53486e-06
6.50964e-06
6.48598e-06
6.46449e-06
6.44535e-06
6.42898e-06
6.41603e-06
6.40716e-06
6.40282e-06
6.40241e-06
6.40471e-06
6.40828e-06
6.41233e-06
6.41614e-06
6.41826e-06
6.41848e-06
6.41693e-06
6.41359e-06