/*--------------------------------*- C++ -*----------------------------------*\
| =========                 |                                                 |
| \\      /  F ield         | OpenFOAM: The Open Source CFD Toolbox           |
|  \\    /   O peration     | Version:  2312                                  |
|   \\  /    A nd           | Website:  www.openfoam.com                      |
|    \\/     M anipulation  |                                                 |
\*---------------------------------------------------------------------------*/
FoamFile
{
    version     2.0;
    format      ascii;
    arch        "LSB;label=32;scalar=64";
    class       volScalarField;
    location    "100";
    object      nuTilda;
}
// * * * * * * * * * * * * * * * * * * * * * * * * * * * * * * * * * * * * * //

dimensions      [0 2 -1 0 0 0 0];

internalField   nonuniform List<scalar> 
11040
(
4.94578e-05
6.73655e-05
8.88779e-05
0.000100165
3.7496e-05
4.8547e-05
0.00010565
0.000132498
0.000143464
0.000141006
0.000141332
0.000141263
0.000137791
0.000134917
0.000125507
0.000130432
0.000147203
0.000167196
0.000163099
0.00017993
0.000204923
0.000227192
0.000300526
0.000343005
0.000351712
0.000342287
0.000336088
0.000327224
0.000295955
0.000282838
0.000217506
0.000242543
0.000285324
0.000334657
0.000496366
0.000540425
0.000612916
0.000694794
0.000770495
0.000834477
0.00078787
4.00064e-05
4.28312e-05
6.59118e-05
0.000105966
0.000119249
0.000163664
0.00049071
0.000661779
0.000688616
0.000654405
0.00061673
0.000585497
0.000560522
0.000525976
0.000512717
0.000543923
0.000611936
0.000707031
0.000797342
0.000891558
0.000992321
0.00104345
0.00100632
0.00090161
0.000773118
0.000679015
0.000681032
0.000742785
0.000802213
0.000833717
0.00100765
0.00122317
0.00142147
0.00154989
0.00164063
0.00167563
0.00169823
0.00169977
0.00168157
0.00162647
0.00135884
4.05828e-05
4.03801e-05
4.11252e-05
6.04394e-05
9.26518e-05
0.000123023
0.000313462
0.000671492
0.000978523
0.00111452
0.00120946
0.00126475
0.00125937
0.00120454
0.00116838
0.00121829
0.0013505
0.00152485
0.00171017
0.00188189
0.00207307
0.00223188
0.00222679
0.00206511
0.0018278
0.00164507
0.00165875
0.00180726
0.00194788
0.0019992
0.00239824
0.0028793
0.00328022
0.00353459
0.00369675
0.0037824
0.00383037
0.00383193
0.00378893
0.00367029
0.00324405
4.03191e-05
4.08112e-05
3.9615e-05
3.92559e-05
5.33799e-05
6.95086e-05
0.000126755
0.000340097
0.000749973
0.00119776
0.00150594
0.00170652
0.00184009
0.00192021
0.00197794
0.00208682
0.00233611
0.0026399
0.00292669
0.00316641
0.00342586
0.00373186
0.00383562
0.00366239
0.00333334
0.00307247
0.00311228
0.00339235
0.00356142
0.0036905
0.00446115
0.00528372
0.00590682
0.00629328
0.00652421
0.0066357
0.00668006
0.0066575
0.0065716
0.00638283
0.00580751
4.03393e-05
4.02766e-05
4.06965e-05
3.89793e-05
3.93207e-05
4.40925e-05
4.80261e-05
0.000100644
0.000313578
0.000749876
0.00131216
0.00179719
0.00213375
0.00239078
0.00262181
0.00291927
0.00342358
0.00404461
0.00449784
0.00478123
0.00505488
0.0054994
0.00579954
0.0057395
0.0053823
0.00508893
0.00519189
0.00542277
0.00551195
0.00610776
0.00736384
0.00856583
0.0094185
0.00993385
0.0102146
0.0103189
0.0103185
0.0102378
0.0100888
0.00983325
0.009147
4.02854e-05
4.02996e-05
4.0345e-05
4.04045e-05
3.92288e-05
3.95999e-05
3.64168e-05
2.81429e-05
6.4971e-05
0.000252532
0.000666656
0.00126706
0.0019103
0.0024613
0.00292066
0.00342678
0.0042269
0.0053494
0.00637298
0.00678493
0.00698825
0.00745585
0.00803303
0.00828035
0.00808997
0.00781759
0.00775645
0.00786337
0.00802126
0.00947711
0.0113221
0.012896
0.0139668
0.0145842
0.01487
0.0149076
0.0147927
0.0145974
0.0143415
0.014003
0.0132572
4.02799e-05
4.03043e-05
4.02851e-05
4.03905e-05
4.0261e-05
3.99237e-05
4.00232e-05
3.23433e-05
1.50446e-05
3.0114e-05
0.000163726
0.000504183
0.00109104
0.00186268
0.0026575
0.00343113
0.00447816
0.00602936
0.00777446
0.00904799
0.00928079
0.00955739
0.0103938
0.0111743
0.0114589
0.0110684
0.0108017
0.0108639
0.011752
0.0141092
0.0165579
0.0184942
0.0197444
0.0204014
0.0206096
0.0204817
0.0201416
0.0197229
0.0192749
0.0188253
0.0180955
4.02672e-05
4.02765e-05
4.03005e-05
4.02864e-05
4.03624e-05
4.03026e-05
4.03365e-05
4.08647e-05
3.2579e-05
1.06551e-05
5.23268e-07
6.16234e-05
0.000316694
0.0008789
0.00172141
0.00271237
0.00397055
0.00583249
0.0081916
0.010414
0.0117097
0.0118898
0.0127352
0.0141249
0.0150953
0.0147774
0.0144521
0.014648
0.0169299
0.0203242
0.0233834
0.0256524
0.0270061
0.0275863
0.0275753
0.0271242
0.0263906
0.025572
0.0247925
0.0241736
0.0235129
4.02524e-05
4.02692e-05
4.02808e-05
4.02921e-05
4.027e-05
4.0399e-05
4.02101e-05
4.0633e-05
4.19985e-05
3.61568e-05
6.28969e-06
1.27765e-05
3.1107e-06
0.000178752
0.000680961
0.00147979
0.00264212
0.00454438
0.00727542
0.0103131
0.0128715
0.0142572
0.015066
0.0169101
0.0188393
0.0189842
0.0188911
0.0199563
0.0239413
0.0284525
0.0322101
0.0347776
0.036101
0.0364071
0.0359555
0.0349385
0.0335627
0.0320827
0.0307466
0.0297952
0.0292841
4.02371e-05
4.02588e-05
4.02686e-05
4.02808e-05
4.02752e-05
4.02849e-05
4.03937e-05
4.00877e-05
4.06954e-05
4.2994e-05
3.88977e-05
1.82162e-05
5.41424e-06
3.91649e-05
0.000113639
0.00045941
0.00111193
0.00245199
0.0049621
0.00839093
0.0120023
0.0150209
0.017098
0.0192983
0.022469
0.0237163
0.0242727
0.0273073
0.0331869
0.0390848
0.043767
0.0465868
0.0476923
0.0474116
0.0461303
0.0441549
0.0417657
0.0392497
0.0369889
0.0354981
0.0350172
4.02232e-05
4.02449e-05
4.02582e-05
4.02652e-05
4.0277e-05
4.02597e-05
4.03048e-05
4.03576e-05
3.99971e-05
4.05813e-05
4.3812e-05
4.14294e-05
2.29459e-05
6.05706e-06
2.16735e-05
4.30601e-05
0.000161538
0.000595103
0.00206902
0.00496465
0.00892623
0.0132459
0.0172544
0.0207134
0.0253303
0.0286048
0.0307134
0.0365367
0.0447594
0.0525894
0.0582092
0.0614595
0.0623218
0.0610741
0.0585164
0.0550442
0.0510911
0.0470473
0.0433935
0.0409265
0.0392894
4.02093e-05
4.02308e-05
4.02449e-05
4.02539e-05
4.02608e-05
4.02694e-05
4.0252e-05
4.03148e-05
4.03164e-05
3.99087e-05
4.04941e-05
4.33445e-05
4.31022e-05
2.74268e-05
4.34839e-06
7.90115e-06
2.45656e-05
1.88288e-05
0.000246327
0.0016429
0.00468457
0.00915427
0.0146295
0.0205065
0.0264988
0.0328417
0.0382278
0.0469511
0.0574531
0.0660171
0.0722974
0.0761732
0.0775468
0.0764902
0.0731053
0.0676526
0.0615438
0.0554125
0.0497986
0.0453266
0.041986
4.01958e-05
4.02172e-05
4.02313e-05
4.02417e-05
4.02488e-05
4.02562e-05
4.02606e-05
4.02508e-05
4.03122e-05
4.02903e-05
3.98879e-05
4.02829e-05
4.31622e-05
4.33253e-05
3.40761e-05
1.36011e-05
4.39431e-06
2.45596e-06
3.29275e-05
0.000384334
0.00131607
0.0045553
0.00983741
0.0173292
0.0258314
0.035209
0.045126
0.0572484
0.0685667
0.0777476
0.0845959
0.0889777
0.0907624
0.0899835
0.0867011
0.0809479
0.0729049
0.0641875
0.0561729
0.0490076
0.0433317
4.0183e-05
4.02038e-05
4.02181e-05
4.02287e-05
4.02371e-05
4.02437e-05
4.02512e-05
4.02524e-05
4.02533e-05
4.03106e-05
4.02491e-05
3.99422e-05
4.02855e-05
4.21682e-05
4.32587e-05
4.01433e-05
2.38464e-05
6.57374e-06
2.72367e-07
0
0.000333234
0.00122507
0.0050262
0.0123629
0.0232583
0.0359605
0.0500012
0.06431
0.0767432
0.0867951
0.0943625
0.0993623
0.101631
0.101168
0.0980186
0.092271
0.083939
0.0732289
0.062677
0.0526534
0.0437701
4.01708e-05
4.0191e-05
4.0205e-05
4.02156e-05
4.02243e-05
4.02317e-05
4.02385e-05
4.02444e-05
4.02463e-05
4.02602e-05
4.02863e-05
4.02363e-05
4.01049e-05
4.01827e-05
4.09512e-05
4.36554e-05
4.44982e-05
3.15831e-05
2.63104e-06
8.58254e-07
0
0.000327841
0.00128608
0.00686615
0.0181624
0.0337486
0.0506716
0.0667452
0.0806975
0.0920602
0.100747
0.106742
0.109909
0.110196
0.107595
0.102158
0.094
0.0830437
0.070222
0.0575448
0.0447937
4.01592e-05
4.01786e-05
4.0192e-05
4.02022e-05
4.02107e-05
4.02182e-05
4.02252e-05
4.02318e-05
4.02366e-05
4.02441e-05
4.02587e-05
4.02561e-05
4.02654e-05
4.0277e-05
3.99258e-05
4.00174e-05
4.3738e-05
4.73481e-05
3.48315e-05
4.87563e-06
1.15664e-06
0
0.000389281
0.00164274
0.0102484
0.0257344
0.0443581
0.0625773
0.0786606
0.0920103
0.102503
0.110167
0.114965
0.116795
0.115593
0.111341
0.10409
0.0938555
0.0805994
0.065709
0.0492855
4.01482e-05
4.01663e-05
4.01788e-05
4.01883e-05
4.01963e-05
4.02036e-05
4.02105e-05
4.02173e-05
4.02236e-05
4.02288e-05
4.02424e-05
4.0248e-05
4.02319e-05
4.0325e-05
4.03795e-05
3.96021e-05
3.96536e-05
4.38139e-05
4.8052e-05
3.50531e-05
4.51804e-06
1.20855e-06
0
0.00045803
0.00184084
0.012354
0.0298485
0.049626
0.0682624
0.0843865
0.0976245
0.107926
0.115315
0.119761
0.121161
0.119421
0.114496
0.10629
0.0946162
0.0794529
0.0614812
4.01376e-05
4.01543e-05
4.01658e-05
4.01746e-05
4.01821e-05
4.01891e-05
4.01959e-05
4.02025e-05
4.02093e-05
4.02151e-05
4.02229e-05
4.02387e-05
4.02329e-05
4.02268e-05
4.03883e-05
4.03624e-05
3.94448e-05
3.94658e-05
4.39998e-05
4.82822e-05
3.44332e-05
5.77316e-06
1.70467e-06
0
0.000415046
0.00152492
0.010577
0.0273144
0.0471437
0.0663175
0.083148
0.0971589
0.108259
0.11645
0.121686
0.123884
0.122942
0.118739
0.11108
0.0997976
0.0847505
4.01275e-05
4.01429e-05
4.01536e-05
4.01619e-05
4.01691e-05
4.01758e-05
4.01824e-05
4.0189e-05
4.01955e-05
4.02023e-05
4.02087e-05
4.02194e-05
4.02342e-05
4.02203e-05
4.02412e-05
4.04245e-05
4.02929e-05
3.93949e-05
3.95149e-05
4.43952e-05
4.79754e-05
3.44276e-05
9.22891e-06
2.36092e-06
0
0.000177481
0.00031689
0.00581969
0.0186024
0.0364957
0.0559003
0.0741474
0.0899915
0.103059
0.113234
0.120422
0.124552
0.125616
0.123602
0.118567
0.110509
4.01182e-05
4.01326e-05
4.01426e-05
4.01505e-05
4.01575e-05
4.01641e-05
4.01706e-05
4.01772e-05
4.01836e-05
4.01903e-05
4.01974e-05
4.02051e-05
4.02182e-05
4.02292e-05
4.02158e-05
4.02606e-05
4.0433e-05
4.02453e-05
3.93342e-05
3.98315e-05
4.44245e-05
4.72928e-05
3.63101e-05
1.03952e-05
2.77411e-06
0
2.44364e-05
0.000727576
0.00161257
0.00802556
0.0204977
0.0372839
0.0558454
0.0738268
0.0897619
0.102966
0.11321
0.120515
0.124884
0.126362
0.125072
4.01096e-05
4.01231e-05
4.01327e-05
4.01404e-05
4.01473e-05
4.01539e-05
4.01603e-05
4.01668e-05
4.01734e-05
4.01799e-05
4.0187e-05
4.01948e-05
4.02039e-05
4.02183e-05
4.02251e-05
4.02192e-05
4.02802e-05
4.04176e-05
4.01812e-05
3.94339e-05
4.01354e-05
4.35636e-05
4.67391e-05
3.95684e-05
1.32678e-05
3.91197e-06
0
0
0.000116696
0.000839982
0.00148106
0.00647905
0.0164005
0.0304937
0.0471658
0.0643032
0.080162
0.0938276
0.104851
0.113103
0.118688
4.01016e-05
4.01144e-05
4.01238e-05
4.01314e-05
4.01383e-05
4.01449e-05
4.01514e-05
4.01578e-05
4.01644e-05
4.01709e-05
4.01777e-05
4.01855e-05
4.0194e-05
4.02047e-05
4.02184e-05
4.02247e-05
4.02248e-05
4.02943e-05
4.03833e-05
4.01733e-05
3.95974e-05
4.00656e-05
4.29502e-05
4.52079e-05
4.36804e-05
2.21268e-05
6.40741e-06
7.55989e-07
0
0
0.000100232
0.000504671
0.000402665
0.00318411
0.00929262
0.0188501
0.0311183
0.0449006
0.0587609
0.071508
0.0823437
4.00942e-05
4.01066e-05
4.01158e-05
4.01234e-05
4.01304e-05
4.0137e-05
4.01435e-05
4.015e-05
4.01565e-05
4.0163e-05
4.01697e-05
4.01771e-05
4.01855e-05
4.01948e-05
4.02064e-05
4.02193e-05
4.02256e-05
4.02349e-05
4.0293e-05
4.03614e-05
4.01686e-05
3.98386e-05
3.99497e-05
4.18667e-05
4.44289e-05
4.33889e-05
3.59052e-05
1.09389e-05
4.19054e-06
8.037e-07
0
0
2.54055e-05
0.000196917
0.000685433
0.000635622
0.00283655
0.00723318
0.0136695
0.0217134
0.0305353
4.00875e-05
4.00994e-05
4.01086e-05
4.01164e-05
4.01234e-05
4.01301e-05
4.01366e-05
4.0143e-05
4.01495e-05
4.0156e-05
4.01626e-05
4.01697e-05
4.01777e-05
4.01867e-05
4.01966e-05
4.02083e-05
4.02208e-05
4.02283e-05
4.02418e-05
4.02885e-05
4.03347e-05
4.02345e-05
3.99565e-05
4.00265e-05
4.08424e-05
4.30351e-05
4.3958e-05
4.07658e-05
3.37079e-05
1.2458e-05
4.43761e-06
1.38768e-06
2.04443e-07
0
0
3.65579e-05
0.000159273
0.000433589
0.000170796
0.000984198
0.00256803
4.00812e-05
4.0093e-05
4.01022e-05
4.011e-05
4.01172e-05
4.01239e-05
4.01304e-05
4.01368e-05
4.01432e-05
4.01497e-05
4.01561e-05
4.0163e-05
4.01706e-05
4.01791e-05
4.01885e-05
4.01988e-05
4.02105e-05
4.02224e-05
4.02318e-05
4.02457e-05
4.02835e-05
4.03164e-05
4.02753e-05
4.0116e-05
4.00372e-05
4.04169e-05
4.14372e-05
4.28868e-05
4.34347e-05
4.05381e-05
3.48488e-05
2.31045e-05
3.48692e-06
2.48382e-06
1.31759e-06
4.04321e-07
0
0
8.93725e-06
5.04186e-05
0.000128354
4.00756e-05
4.00872e-05
4.00965e-05
4.01044e-05
4.01116e-05
4.01183e-05
4.01248e-05
4.01312e-05
4.01375e-05
4.01439e-05
4.01502e-05
4.01568e-05
4.01641e-05
4.01721e-05
4.01809e-05
4.01905e-05
4.02009e-05
4.02124e-05
4.0224e-05
4.02343e-05
4.02487e-05
4.02752e-05
4.03053e-05
4.02948e-05
4.02296e-05
4.01354e-05
4.01963e-05
4.05814e-05
4.1346e-05
4.24148e-05
4.29196e-05
4.19303e-05
3.86196e-05
3.25768e-05
2.41347e-05
7.58648e-06
3.27388e-06
1.4851e-06
1.11011e-06
6.80409e-07
0
4.00704e-05
4.0082e-05
4.00913e-05
4.00993e-05
4.01065e-05
4.01132e-05
4.01197e-05
4.0126e-05
4.01322e-05
4.01385e-05
4.01447e-05
4.01511e-05
4.0158e-05
4.01656e-05
4.01738e-05
4.01827e-05
4.01923e-05
4.02026e-05
4.02137e-05
4.02249e-05
4.02359e-05
4.02494e-05
4.0269e-05
4.02917e-05
4.03032e-05
4.02843e-05
4.0238e-05
4.01997e-05
4.02542e-05
4.05349e-05
4.10137e-05
4.16963e-05
4.23602e-05
4.24515e-05
4.175e-05
3.94142e-05
3.54778e-05
2.99323e-05
2.29403e-05
1.43744e-05
4.5945e-06
4.00657e-05
4.00772e-05
4.00866e-05
4.00946e-05
4.01018e-05
4.01085e-05
4.01149e-05
4.01211e-05
4.01273e-05
4.01334e-05
4.01395e-05
4.01457e-05
4.01523e-05
4.01594e-05
4.01672e-05
4.01754e-05
4.01843e-05
4.01937e-05
4.02036e-05
4.02142e-05
4.02251e-05
4.02363e-05
4.02483e-05
4.02632e-05
4.02804e-05
4.02962e-05
4.03023e-05
4.02917e-05
4.02647e-05
4.02449e-05
4.02651e-05
4.03762e-05
4.06217e-05
4.09916e-05
4.14292e-05
4.19771e-05
4.2263e-05
4.21048e-05
4.14352e-05
4.01226e-05
3.80572e-05
4.00614e-05
4.00729e-05
4.00822e-05
4.00902e-05
4.00974e-05
4.0104e-05
4.01104e-05
4.01165e-05
4.01225e-05
4.01284e-05
4.01344e-05
4.01405e-05
4.01468e-05
4.01536e-05
4.01608e-05
4.01686e-05
4.01767e-05
4.01854e-05
4.01944e-05
4.02039e-05
4.0214e-05
4.02243e-05
4.02348e-05
4.02456e-05
4.02573e-05
4.02703e-05
4.02841e-05
4.02963e-05
4.03031e-05
4.03008e-05
4.02902e-05
4.0276e-05
4.0271e-05
4.02943e-05
4.03592e-05
4.04983e-05
4.0709e-05
4.09736e-05
4.12665e-05
4.15766e-05
4.18827e-05
4.00575e-05
4.00689e-05
4.00782e-05
4.00861e-05
4.00932e-05
4.00997e-05
4.01059e-05
4.01119e-05
4.01178e-05
4.01236e-05
4.01295e-05
4.01353e-05
4.01414e-05
4.01478e-05
4.01547e-05
4.01619e-05
4.01695e-05
4.01775e-05
4.01858e-05
4.01944e-05
4.02035e-05
4.02128e-05
4.02222e-05
4.02316e-05
4.02411e-05
4.02508e-05
4.02608e-05
4.02713e-05
4.02819e-05
4.02916e-05
4.0299e-05
4.03026e-05
4.03013e-05
4.02957e-05
4.0288e-05
4.02818e-05
4.02842e-05
4.03025e-05
4.03407e-05
4.04098e-05
4.04923e-05
4.00539e-05
4.00651e-05
4.00743e-05
4.00821e-05
4.00891e-05
4.00955e-05
4.01016e-05
4.01075e-05
4.01132e-05
4.01189e-05
4.01246e-05
4.01303e-05
4.01361e-05
4.01422e-05
4.01487e-05
4.01555e-05
4.01626e-05
4.017e-05
4.01776e-05
4.01855e-05
4.01936e-05
4.0202e-05
4.02103e-05
4.02187e-05
4.0227e-05
4.02352e-05
4.02432e-05
4.02511e-05
4.0259e-05
4.02667e-05
4.02743e-05
4.02815e-05
4.02878e-05
4.02926e-05
4.02955e-05
4.02958e-05
4.02937e-05
4.02895e-05
4.02838e-05
4.02781e-05
4.02741e-05
4.00505e-05
4.00616e-05
4.00706e-05
4.00783e-05
4.00851e-05
4.00914e-05
4.00973e-05
4.0103e-05
4.01086e-05
4.01142e-05
4.01197e-05
4.01253e-05
4.01309e-05
4.01368e-05
4.01429e-05
4.01493e-05
4.01559e-05
4.01627e-05
4.01698e-05
4.01769e-05
4.01843e-05
4.01918e-05
4.01993e-05
4.02066e-05
4.02139e-05
4.0221e-05
4.02278e-05
4.02344e-05
4.02407e-05
4.02466e-05
4.02522e-05
4.02575e-05
4.02624e-05
4.02669e-05
4.02709e-05
4.02743e-05
4.02768e-05
4.02785e-05
4.02789e-05
4.02783e-05
4.0277e-05
4.00474e-05
4.00582e-05
4.0067e-05
4.00744e-05
4.0081e-05
4.00872e-05
4.0093e-05
4.00986e-05
4.0104e-05
4.01095e-05
4.01149e-05
4.01203e-05
4.01258e-05
4.01314e-05
4.01372e-05
4.01432e-05
4.01494e-05
4.01558e-05
4.01623e-05
4.01689e-05
4.01756e-05
4.01824e-05
4.0189e-05
4.01955e-05
4.02019e-05
4.0208e-05
4.02139e-05
4.02194e-05
4.02247e-05
4.02295e-05
4.0234e-05
4.0238e-05
4.02416e-05
4.02447e-05
4.02474e-05
4.02496e-05
4.02513e-05
4.02526e-05
4.02532e-05
4.02537e-05
4.02531e-05
4.00445e-05
4.0055e-05
4.00634e-05
4.00705e-05
4.00769e-05
4.00829e-05
4.00885e-05
4.0094e-05
4.00994e-05
4.01047e-05
4.011e-05
4.01153e-05
4.01206e-05
4.0126e-05
4.01316e-05
4.01373e-05
4.01432e-05
4.01491e-05
4.01552e-05
4.01613e-05
4.01674e-05
4.01736e-05
4.01795e-05
4.01853e-05
4.01909e-05
4.01962e-05
4.02013e-05
4.0206e-05
4.02104e-05
4.02145e-05
4.02181e-05
4.02213e-05
4.0224e-05
4.02263e-05
4.02282e-05
4.02296e-05
4.02305e-05
4.02311e-05
4.0231e-05
4.0231e-05
4.02295e-05
4.00417e-05
4.00518e-05
4.00598e-05
4.00666e-05
4.00727e-05
4.00785e-05
4.0084e-05
4.00894e-05
4.00946e-05
4.00999e-05
4.01051e-05
4.01103e-05
4.01155e-05
4.01207e-05
4.01261e-05
4.01315e-05
4.01371e-05
4.01427e-05
4.01484e-05
4.0154e-05
4.01597e-05
4.01653e-05
4.01707e-05
4.01759e-05
4.01809e-05
4.01856e-05
4.019e-05
4.01941e-05
4.01978e-05
4.02012e-05
4.02042e-05
4.02067e-05
4.02089e-05
4.02106e-05
4.0212e-05
4.02129e-05
4.02134e-05
4.02135e-05
4.02131e-05
4.02127e-05
4.02107e-05
4.00391e-05
4.00486e-05
4.00561e-05
4.00626e-05
4.00684e-05
4.0074e-05
4.00793e-05
4.00846e-05
4.00898e-05
4.00949e-05
4.01e-05
4.01052e-05
4.01103e-05
4.01154e-05
4.01205e-05
4.01258e-05
4.01311e-05
4.01364e-05
4.01417e-05
4.0147e-05
4.01523e-05
4.01575e-05
4.01624e-05
4.01672e-05
4.01716e-05
4.01758e-05
4.01797e-05
4.01833e-05
4.01865e-05
4.01894e-05
4.01919e-05
4.0194e-05
4.01957e-05
4.01971e-05
4.0198e-05
4.01986e-05
4.01988e-05
4.01987e-05
4.01982e-05
4.01975e-05
4.01959e-05
4.00364e-05
4.00454e-05
4.00525e-05
4.00585e-05
4.00641e-05
4.00694e-05
4.00746e-05
4.00797e-05
4.00848e-05
4.00899e-05
4.0095e-05
4.01e-05
4.0105e-05
4.011e-05
4.0115e-05
4.01201e-05
4.01252e-05
4.01303e-05
4.01353e-05
4.01403e-05
4.01452e-05
4.015e-05
4.01546e-05
4.01589e-05
4.0163e-05
4.01668e-05
4.01702e-05
4.01734e-05
4.01762e-05
4.01787e-05
4.01809e-05
4.01826e-05
4.01841e-05
4.01852e-05
4.01859e-05
4.01862e-05
4.01863e-05
4.01861e-05
4.01854e-05
4.01845e-05
4.01835e-05
4.00338e-05
4.00422e-05
4.00488e-05
4.00545e-05
4.00598e-05
4.00649e-05
4.00699e-05
4.00749e-05
4.00799e-05
4.00849e-05
4.00898e-05
4.00948e-05
4.00997e-05
4.01046e-05
4.01095e-05
4.01145e-05
4.01194e-05
4.01242e-05
4.0129e-05
4.01338e-05
4.01384e-05
4.01429e-05
4.01471e-05
4.01511e-05
4.01549e-05
4.01583e-05
4.01615e-05
4.01643e-05
4.01668e-05
4.0169e-05
4.01709e-05
4.01725e-05
4.01737e-05
4.01746e-05
4.01751e-05
4.01754e-05
4.01754e-05
4.01749e-05
4.01743e-05
4.01736e-05
4.01734e-05
4.00312e-05
4.00389e-05
4.0045e-05
4.00504e-05
4.00555e-05
4.00604e-05
4.00653e-05
4.00702e-05
4.0075e-05
4.00799e-05
4.00848e-05
4.00896e-05
4.00945e-05
4.00993e-05
4.01041e-05
4.01088e-05
4.01136e-05
4.01183e-05
4.01229e-05
4.01274e-05
4.01318e-05
4.0136e-05
4.01399e-05
4.01437e-05
4.01471e-05
4.01503e-05
4.01532e-05
4.01558e-05
4.01581e-05
4.01601e-05
4.01618e-05
4.01631e-05
4.01642e-05
4.0165e-05
4.01655e-05
4.01657e-05
4.01655e-05
4.01651e-05
4.0165e-05
4.01648e-05
4.01651e-05
4.00285e-05
4.00355e-05
4.00412e-05
4.00463e-05
4.00512e-05
4.0056e-05
4.00608e-05
4.00655e-05
4.00703e-05
4.00751e-05
4.00798e-05
4.00846e-05
4.00893e-05
4.0094e-05
4.00987e-05
4.01033e-05
4.01079e-05
4.01124e-05
4.01168e-05
4.01211e-05
4.01253e-05
4.01292e-05
4.0133e-05
4.01365e-05
4.01397e-05
4.01427e-05
4.01453e-05
4.01477e-05
4.01498e-05
4.01517e-05
4.01532e-05
4.01544e-05
4.01554e-05
4.01561e-05
4.01565e-05
4.01566e-05
4.01565e-05
4.01565e-05
4.01569e-05
4.01571e-05
4.01578e-05
4.00257e-05
4.0032e-05
4.00373e-05
4.00422e-05
4.00469e-05
4.00516e-05
4.00563e-05
4.0061e-05
4.00657e-05
4.00704e-05
4.00751e-05
4.00797e-05
4.00843e-05
4.00889e-05
4.00934e-05
4.00979e-05
4.01023e-05
4.01066e-05
4.01109e-05
4.01149e-05
4.01189e-05
4.01227e-05
4.01262e-05
4.01294e-05
4.01325e-05
4.01352e-05
4.01377e-05
4.01399e-05
4.01418e-05
4.01435e-05
4.01449e-05
4.0146e-05
4.01469e-05
4.01476e-05
4.01479e-05
4.0148e-05
4.01483e-05
4.01486e-05
4.01492e-05
4.01496e-05
4.01505e-05
4.00228e-05
4.00284e-05
4.00333e-05
4.00379e-05
4.00425e-05
4.00471e-05
4.00518e-05
4.00564e-05
4.00611e-05
4.00658e-05
4.00704e-05
4.0075e-05
4.00795e-05
4.0084e-05
4.00884e-05
4.00927e-05
4.00969e-05
4.01011e-05
4.01051e-05
4.0109e-05
4.01127e-05
4.01163e-05
4.01196e-05
4.01227e-05
4.01255e-05
4.01281e-05
4.01304e-05
4.01324e-05
4.01342e-05
4.01357e-05
4.0137e-05
4.0138e-05
4.01388e-05
4.01393e-05
4.01396e-05
4.014e-05
4.01405e-05
4.01411e-05
4.01419e-05
4.01426e-05
4.01437e-05
4.00197e-05
4.00247e-05
4.00292e-05
4.00335e-05
4.0038e-05
4.00425e-05
4.00471e-05
4.00518e-05
4.00564e-05
4.00611e-05
4.00657e-05
4.00703e-05
4.00748e-05
4.00792e-05
4.00835e-05
4.00877e-05
4.00918e-05
4.00957e-05
4.00996e-05
4.01033e-05
4.01068e-05
4.01101e-05
4.01132e-05
4.0116e-05
4.01186e-05
4.0121e-05
4.01231e-05
4.0125e-05
4.01266e-05
4.0128e-05
4.01291e-05
4.01301e-05
4.01308e-05
4.01312e-05
4.01316e-05
4.01321e-05
4.01327e-05
4.01333e-05
4.01341e-05
4.01348e-05
4.01359e-05
4.00165e-05
4.00208e-05
4.00248e-05
4.00289e-05
4.00332e-05
4.00376e-05
4.00421e-05
4.00467e-05
4.00514e-05
4.00561e-05
4.00608e-05
4.00654e-05
4.00699e-05
4.00743e-05
4.00785e-05
4.00826e-05
4.00866e-05
4.00904e-05
4.0094e-05
4.00975e-05
4.01008e-05
4.0104e-05
4.01068e-05
4.01095e-05
4.01119e-05
4.01141e-05
4.0116e-05
4.01177e-05
4.01192e-05
4.01204e-05
4.01214e-05
4.01222e-05
4.01227e-05
4.01232e-05
4.01237e-05
4.01244e-05
4.01251e-05
4.01259e-05
4.01269e-05
4.01277e-05
4.01289e-05
4.00131e-05
4.00167e-05
4.00203e-05
4.0024e-05
4.00279e-05
4.00321e-05
4.00365e-05
4.00411e-05
4.00458e-05
4.00505e-05
4.00552e-05
4.00599e-05
4.00644e-05
4.00688e-05
4.00731e-05
4.00772e-05
4.00811e-05
4.00849e-05
4.00884e-05
4.00917e-05
4.00948e-05
4.00978e-05
4.01004e-05
4.01029e-05
4.01051e-05
4.0107e-05
4.01088e-05
4.01103e-05
4.01115e-05
4.01126e-05
4.01134e-05
4.01141e-05
4.01145e-05
4.01149e-05
4.01153e-05
4.01158e-05
4.01164e-05
4.01171e-05
4.01178e-05
4.01184e-05
4.01194e-05
4.00096e-05
4.00124e-05
4.00153e-05
4.00185e-05
4.00219e-05
4.00257e-05
4.00299e-05
4.00343e-05
4.00389e-05
4.00436e-05
4.00484e-05
4.00531e-05
4.00577e-05
4.00621e-05
4.00663e-05
4.00704e-05
4.00742e-05
4.00777e-05
4.00811e-05
4.00842e-05
4.00871e-05
4.00898e-05
4.00922e-05
4.00944e-05
4.00964e-05
4.00981e-05
4.00996e-05
4.01009e-05
4.01019e-05
4.01027e-05
4.01033e-05
4.01037e-05
4.01042e-05
4.01047e-05
4.01053e-05
4.01059e-05
4.01067e-05
4.01075e-05
4.01084e-05
4.01092e-05
4.01104e-05
4.00058e-05
4.00077e-05
4.00097e-05
4.0012e-05
4.00146e-05
4.00177e-05
4.00211e-05
4.0025e-05
4.00292e-05
4.00338e-05
4.00386e-05
4.00434e-05
4.00483e-05
4.0053e-05
4.00573e-05
4.00614e-05
4.00652e-05
4.00688e-05
4.00722e-05
4.00754e-05
4.00782e-05
4.00809e-05
4.00832e-05
4.00853e-05
4.00872e-05
4.00888e-05
4.00901e-05
4.00912e-05
4.00921e-05
4.00928e-05
4.00932e-05
4.00936e-05
4.00941e-05
4.00947e-05
4.00953e-05
4.0096e-05
4.00967e-05
4.00974e-05
4.00983e-05
4.00989e-05
4.01e-05
4.00018e-05
4.00025e-05
4.00033e-05
4.00042e-05
4.00053e-05
4.00066e-05
4.00083e-05
4.00104e-05
4.00129e-05
4.00158e-05
4.00193e-05
4.00233e-05
4.00279e-05
4.0033e-05
4.00386e-05
4.00446e-05
4.00498e-05
4.00541e-05
4.00575e-05
4.00601e-05
4.0062e-05
4.00633e-05
4.00641e-05
4.00645e-05
4.00645e-05
4.0064e-05
4.00638e-05
4.0064e-05
4.00643e-05
4.0065e-05
4.00657e-05
4.00667e-05
4.00677e-05
4.00689e-05
4.00701e-05
4.00714e-05
4.00727e-05
4.00741e-05
4.00756e-05
4.00768e-05
4.00786e-05
0.00143408
0.00252005
0.0033146
0.00261876
0.00105329
0.00023802
5.46846e-05
3.96168e-05
4.09303e-05
4.12028e-05
4.12117e-05
4.12277e-05
4.12365e-05
4.12357e-05
4.12277e-05
4.12143e-05
4.11965e-05
4.1175e-05
4.11503e-05
4.11238e-05
4.10962e-05
4.10685e-05
4.10416e-05
4.10164e-05
4.0993e-05
4.09709e-05
4.09502e-05
4.09309e-05
4.09118e-05
4.08923e-05
4.08723e-05
4.08522e-05
4.08314e-05
4.08089e-05
4.07855e-05
4.07609e-05
4.07342e-05
4.07058e-05
4.0676e-05
4.06461e-05
4.06184e-05
4.05955e-05
4.05801e-05
4.05695e-05
4.0562e-05
4.05557e-05
4.05502e-05
4.05449e-05
4.05388e-05
4.05313e-05
4.05226e-05
4.05126e-05
4.0501e-05
4.04876e-05
4.04725e-05
4.04558e-05
4.04377e-05
4.04186e-05
4.03984e-05
4.03775e-05
4.03562e-05
4.03346e-05
4.0313e-05
4.02917e-05
4.02708e-05
4.02506e-05
4.02311e-05
4.02124e-05
4.01944e-05
4.01773e-05
4.01606e-05
4.01459e-05
4.01307e-05
4.01226e-05
0.00274085
0.00416687
0.00528256
0.00498225
0.00261163
0.000694234
0.00011106
3.93515e-05
4.02898e-05
4.12661e-05
4.12939e-05
4.12998e-05
4.13065e-05
4.13029e-05
4.12913e-05
4.12741e-05
4.12528e-05
4.1228e-05
4.12003e-05
4.11709e-05
4.11406e-05
4.11101e-05
4.10804e-05
4.10524e-05
4.10262e-05
4.10013e-05
4.0978e-05
4.0956e-05
4.09342e-05
4.09118e-05
4.08891e-05
4.08662e-05
4.08423e-05
4.08169e-05
4.07903e-05
4.0762e-05
4.07314e-05
4.06995e-05
4.06675e-05
4.06373e-05
4.06114e-05
4.0592e-05
4.05808e-05
4.05739e-05
4.05693e-05
4.05652e-05
4.05617e-05
4.05581e-05
4.0553e-05
4.05462e-05
4.0538e-05
4.05283e-05
4.05168e-05
4.05033e-05
4.04878e-05
4.04706e-05
4.0452e-05
4.04321e-05
4.04111e-05
4.03894e-05
4.03671e-05
4.03447e-05
4.03222e-05
4.03001e-05
4.02785e-05
4.02575e-05
4.02373e-05
4.02179e-05
4.01993e-05
4.01817e-05
4.01646e-05
4.01495e-05
4.01341e-05
4.01257e-05
0.0045968
0.00627043
0.00765659
0.00796359
0.00545762
0.00197094
0.000360184
5.23456e-05
3.79997e-05
4.1133e-05
4.13955e-05
4.13701e-05
4.13729e-05
4.13681e-05
4.1354e-05
4.13338e-05
4.13093e-05
4.12815e-05
4.1251e-05
4.12189e-05
4.11858e-05
4.11526e-05
4.11201e-05
4.10892e-05
4.10599e-05
4.1032e-05
4.10058e-05
4.09806e-05
4.09558e-05
4.09305e-05
4.09048e-05
4.08789e-05
4.08518e-05
4.08235e-05
4.07937e-05
4.07618e-05
4.07278e-05
4.06931e-05
4.06598e-05
4.06302e-05
4.06066e-05
4.05906e-05
4.05832e-05
4.05798e-05
4.05779e-05
4.05762e-05
4.05746e-05
4.05723e-05
4.05681e-05
4.05619e-05
4.0554e-05
4.05445e-05
4.05328e-05
4.05191e-05
4.05033e-05
4.04855e-05
4.04662e-05
4.04455e-05
4.04237e-05
4.04011e-05
4.0378e-05
4.03546e-05
4.03313e-05
4.03083e-05
4.02859e-05
4.02642e-05
4.02432e-05
4.02232e-05
4.0204e-05
4.01858e-05
4.01683e-05
4.0153e-05
4.01375e-05
4.01287e-05
0.00710425
0.0090119
0.0107012
0.0114149
0.00941101
0.00464786
0.00118352
0.000150451
3.44648e-05
3.98086e-05
4.15699e-05
4.14618e-05
4.14336e-05
4.143e-05
4.14148e-05
4.13924e-05
4.13654e-05
4.13349e-05
4.13018e-05
4.12671e-05
4.12315e-05
4.11956e-05
4.11606e-05
4.11267e-05
4.10942e-05
4.10631e-05
4.10337e-05
4.10052e-05
4.0977e-05
4.09484e-05
4.09196e-05
4.08905e-05
4.08599e-05
4.08283e-05
4.07955e-05
4.07607e-05
4.07242e-05
4.06877e-05
4.06539e-05
4.06253e-05
4.06038e-05
4.05907e-05
4.05867e-05
4.05865e-05
4.05873e-05
4.05879e-05
4.05881e-05
4.05871e-05
4.05838e-05
4.0578e-05
4.05704e-05
4.05607e-05
4.05488e-05
4.05348e-05
4.05184e-05
4.05001e-05
4.04801e-05
4.04587e-05
4.04361e-05
4.04125e-05
4.03885e-05
4.03642e-05
4.034e-05
4.03162e-05
4.0293e-05
4.02705e-05
4.02489e-05
4.02281e-05
4.02084e-05
4.01898e-05
4.01719e-05
4.01563e-05
4.01407e-05
4.01316e-05
0.0103386
0.012651
0.0145911
0.0154242
0.0140614
0.00896574
0.00322084
0.000578962
5.46054e-05
3.37064e-05
4.12907e-05
4.17036e-05
4.15048e-05
4.14851e-05
4.1473e-05
4.145e-05
4.14212e-05
4.13885e-05
4.13531e-05
4.1316e-05
4.12778e-05
4.12395e-05
4.12018e-05
4.11652e-05
4.11295e-05
4.10951e-05
4.10625e-05
4.10303e-05
4.09984e-05
4.09663e-05
4.09341e-05
4.09014e-05
4.08671e-05
4.0832e-05
4.07963e-05
4.07593e-05
4.07213e-05
4.0684e-05
4.06504e-05
4.0623e-05
4.06034e-05
4.05928e-05
4.05908e-05
4.05936e-05
4.05968e-05
4.05997e-05
4.06017e-05
4.06019e-05
4.05994e-05
4.05943e-05
4.05869e-05
4.05771e-05
4.05647e-05
4.05502e-05
4.05333e-05
4.05143e-05
4.04936e-05
4.04714e-05
4.04479e-05
4.04236e-05
4.03986e-05
4.03735e-05
4.03484e-05
4.03238e-05
4.02998e-05
4.02766e-05
4.02542e-05
4.02329e-05
4.02126e-05
4.01935e-05
4.01754e-05
4.01596e-05
4.01438e-05
4.01344e-05
0.014408
0.0170209
0.0191575
0.0200565
0.0191622
0.0146206
0.00710129
0.00187652
0.000231315
2.55126e-05
3.69156e-05
4.19165e-05
4.16916e-05
4.15416e-05
4.15255e-05
4.1506e-05
4.1477e-05
4.14428e-05
4.14056e-05
4.13661e-05
4.13254e-05
4.12845e-05
4.12443e-05
4.1205e-05
4.11663e-05
4.11288e-05
4.10927e-05
4.1057e-05
4.10211e-05
4.09852e-05
4.09492e-05
4.09125e-05
4.08743e-05
4.08355e-05
4.07969e-05
4.07582e-05
4.07198e-05
4.06828e-05
4.06499e-05
4.06238e-05
4.06058e-05
4.05968e-05
4.05958e-05
4.06004e-05
4.0606e-05
4.06109e-05
4.06147e-05
4.06161e-05
4.06146e-05
4.06102e-05
4.06031e-05
4.05931e-05
4.05804e-05
4.05652e-05
4.05477e-05
4.0528e-05
4.05066e-05
4.04836e-05
4.04593e-05
4.04341e-05
4.04083e-05
4.03823e-05
4.03564e-05
4.0331e-05
4.03062e-05
4.02823e-05
4.02593e-05
4.02373e-05
4.02166e-05
4.01971e-05
4.01787e-05
4.01626e-05
4.01468e-05
4.01371e-05
0.019353
0.0221208
0.0243179
0.025295
0.0246872
0.021072
0.013007
0.00482049
0.000939243
7.66159e-05
2.58292e-05
4.00203e-05
4.20486e-05
4.16903e-05
4.15754e-05
4.15589e-05
4.1533e-05
4.14986e-05
4.146e-05
4.14186e-05
4.13754e-05
4.13318e-05
4.12889e-05
4.12467e-05
4.1205e-05
4.11645e-05
4.11252e-05
4.10858e-05
4.10462e-05
4.10062e-05
4.09661e-05
4.09253e-05
4.08831e-05
4.08405e-05
4.07988e-05
4.07586e-05
4.07202e-05
4.06844e-05
4.0653e-05
4.06282e-05
4.06113e-05
4.06032e-05
4.06027e-05
4.06073e-05
4.06143e-05
4.06212e-05
4.06265e-05
4.06292e-05
4.06287e-05
4.0625e-05
4.06184e-05
4.06085e-05
4.05955e-05
4.05798e-05
4.05615e-05
4.05412e-05
4.0519e-05
4.04952e-05
4.04701e-05
4.04441e-05
4.04175e-05
4.03907e-05
4.0364e-05
4.03378e-05
4.03123e-05
4.02877e-05
4.02641e-05
4.02416e-05
4.02203e-05
4.02005e-05
4.01818e-05
4.01656e-05
4.01497e-05
4.01397e-05
0.0251076
0.0277275
0.0298541
0.0310135
0.0306951
0.027949
0.0205233
0.0100654
0.00287827
0.000408258
2.54435e-05
3.09311e-05
4.15896e-05
4.2123e-05
4.16985e-05
4.16108e-05
4.15891e-05
4.15568e-05
4.15177e-05
4.14748e-05
4.14294e-05
4.1383e-05
4.1337e-05
4.12916e-05
4.12467e-05
4.12031e-05
4.11605e-05
4.11177e-05
4.10744e-05
4.10306e-05
4.09865e-05
4.09414e-05
4.08951e-05
4.08489e-05
4.0804e-05
4.07619e-05
4.07235e-05
4.06892e-05
4.06599e-05
4.06367e-05
4.06207e-05
4.06129e-05
4.06122e-05
4.06163e-05
4.06227e-05
4.063e-05
4.06368e-05
4.06406e-05
4.06411e-05
4.06383e-05