/*--------------------------------*- C++ -*----------------------------------*\
| =========                 |                                                 |
| \\      /  F ield         | OpenFOAM: The Open Source CFD Toolbox           |
|  \\    /   O peration     | Version:  2312                                  |
|   \\  /    A nd           | Website:  www.openfoam.com                      |
|    \\/     M anipulation  |                                                 |
\*---------------------------------------------------------------------------*/
FoamFile
{
    version     2.0;
    format      ascii;
    arch        "LSB;label=32;scalar=64";
    class       volScalarField;
    location    "100";
    object      p;
}
// * * * * * * * * * * * * * * * * * * * * * * * * * * * * * * * * * * * * * //

dimensions      [0 2 -2 0 0 0 0];

internalField   nonuniform List<scalar> 
11040
(
1.2992
-12.676
-13.5245
-10.7469
-10.5033
-10.5681
-10.2631
-9.88949
-9.51434
-9.20485
-8.94034
-8.71574
-8.50119
-8.24133
-7.93987
-7.64788
-7.36298
-6.93557
-6.11684
-4.92573
-3.61438
-2.79575
-2.69543
-3.07939
-3.52437
-3.72597
-3.77625
-3.78766
-3.86137
-3.96215
-4.11907
-4.19799
-4.18386
-4.13955
-4.38752
-5.05391
-6.36905
-8.15365
-10.3323
-12.0109
-12.2197
6.2022
-3.74976
-7.85223
-9.47995
-10.4282
-10.5364
-10.3187
-9.95241
-9.57122
-9.24866
-8.96702
-8.73412
-8.52589
-8.27678
-7.97428
-7.67432
-7.39362
-6.99307
-6.20493
-5.02704
-3.70297
-2.85038
-2.71338
-3.07276
-3.50647
-3.70534
-3.75195
-3.76186
-3.83146
-3.92829
-4.09215
-4.19506
-4.20255
-4.1682
-4.40983
-5.05759
-6.34228
-8.09986
-10.2701
-11.9832
-12.7473
9.22313
1.27782
-4.13211
-7.32902
-9.30915
-10.1962
-10.2432
-9.95733
-9.62552
-9.30685
-9.00874
-8.74921
-8.53356
-8.30153
-8.00997
-7.70419
-7.42302
-7.0532
-6.31932
-5.18175
-3.85393
-2.95176
-2.75796
-3.07671
-3.4911
-3.68392
-3.72216
-3.72594
-3.79286
-3.89545
-4.08314
-4.23017
-4.28112
-4.27777
-4.53099
-5.17872
-6.44633
-8.19197
-10.3593
-12.1442
-13.2788
10.5909
4.50484
-1.02801
-4.90356
-7.3475
-8.8618
-9.60441
-9.75471
-9.58685
-9.34294
-9.06265
-8.77741
-8.53679
-8.3122
-8.04064
-7.73639
-7.45168
-7.10795
-6.43761
-5.36105
-4.04518
-3.08871
-2.82245
-3.08703
-3.47324
-3.65598
-3.67815
-3.6734
-3.74928
-3.87951
-4.10987
-4.31042
-4.41233
-4.45231
-4.72586
-5.384
-6.63833
-8.3799
-10.5477
-12.4172
-13.8785
11.1604
6.62935
2.01242
-1.97126
-4.96972
-6.99353
-8.2556
-8.96023
-9.24592
-9.25073
-9.07341
-8.80732
-8.54535
-8.31677
-8.06546
-7.77255
-7.48745
-7.16941
-6.56949
-5.57108
-4.28113
-3.26519
-2.90679
-3.09892
-3.44692
-3.6143
-3.61635
-3.60788
-3.71017
-3.89822
-4.19045
-4.45398
-4.61561
-4.71241
-5.01576
-5.6932
-6.93748
-8.68177
-10.8578
-12.8486
-14.6264
11.2108
7.78748
4.16774
0.645497
-2.46688
-4.90765
-6.59398
-7.65905
-8.34428
-8.76408
-8.89107
-8.75498
-8.51834
-8.29827
-8.06928
-7.79644
-7.51869
-7.22813
-6.70495
-5.80159
-4.55652
-3.48029
-3.00942
-3.1071
-3.40172
-3.54851
-3.5337
-3.5362
-3.68668
-3.96384
-4.33199
-4.6686
-4.90401
-5.07606
-5.42884
-6.1411
-7.38992
-9.14893
-11.3499
-13.5062
-15.5821
10.9641
8.335
5.53351
2.64362
-0.173328
-2.69009
-4.70208
-6.1261
-7.07535
-7.76335
-8.24311
-8.42607
-8.35555
-8.20138
-8.02008
-7.78535
-7.52864
-7.26934
-6.8278
-6.03175
-4.8555
-3.72567
-3.12583
-3.10369
-3.32904
-3.45157
-3.43532
-3.47461
-3.70543
-4.09548
-4.55131
-4.9738
-5.30315
-5.57275
-6.00186
-6.7686
-8.04186
-9.82824
-12.0722
-14.43
-16.7853
10.5514
8.48074
6.32013
4.0388
1.68022
-0.615488
-2.6785
-4.3622
-5.61018
-6.4986
-7.16616
-7.63652
-7.86464
-7.90915
-7.84615
-7.68753
-7.47379
-7.25169
-6.89021
-6.20659
-5.12044
-3.95857
-3.22528
-3.06478
-3.20598
-3.30609
-3.31607
-3.42971
-3.78216
-4.30025
-4.85533
-5.3814
-5.82502
-6.22211
-6.75962
-7.61726
-8.94853
-10.8021
-13.1299
-15.7265
-18.3534
10.0408
8.38252
6.70128
4.91798
3.02856
1.08405
-0.800853
-2.50729
-3.93872
-5.0609
-5.89868
-6.52359
-6.97332
-7.26496
-7.41595
-7.41287
-7.28695
-7.11417
-6.82643
-6.25409
-5.2721
-4.11013
-3.25636
-2.94871
-2.9985
-3.08971
-3.17041
-3.41239
-3.92791
-4.58811
-5.26085
-5.91049
-6.49193
-7.0453
-7.72975
-8.71761
-10.157
-12.1371
-14.6297
-17.5294
-20.4547
9.4757
8.13603
6.80169
5.41546
3.92294
2.35239
0.747188
-0.807097
-2.23241
-3.46625
-4.47624
-5.26361
-5.84543
-6.27933
-6.61404
-6.81835
-6.85359
-6.76175
-6.53709
-6.05892
-5.19226
-4.07202
-3.13329
-2.68401
-2.64997
-2.76715
-2.98582
-3.42305
-4.14398
-4.96528
-5.78475
-6.57842
-7.32511
-8.0599
-8.92899
-10.0833
-11.6756
-13.8317
-16.5656
-19.8694
-23.2383
8.89081
7.79207
6.72709
5.63805
4.47013
3.22568
1.92317
0.596301
-0.695773
-1.89148
-2.95397
-3.85711
-4.57767
-5.11299
-5.51839
-5.83866
-6.03494
-6.0661
-5.91626
-5.5069
-4.74403
-3.71244
-2.74981
-2.19024
-2.10081
-2.30763
-2.73491
-3.44655
-4.4035
-5.42159
-6.40515
-7.37669
-8.30569
-9.26568
-10.3494
-11.728
-13.5097
-15.8649
-18.83
-22.5693
-26.5506
8.29879
7.39418
6.53569
5.67623
4.76221
3.7838
2.75147
1.67346
0.575586
-0.494929
-1.49347
-2.39484
-3.1811
-3.81651
-4.2885
-4.63122
-4.86673
-4.97597
-4.89908
-4.56213
-3.88069
-2.94429
-2.02626
-1.42937
-1.33787
-1.68906
-2.39599
-3.42128
-4.6501
-5.87448
-7.0541
-8.2072
-9.36341
-10.5635
-11.9445
-13.6131
-15.7078
-18.3163
-21.5258
-25.563
-30.0328
7.71109
6.96497
6.27043
5.58953
4.87328
4.10796
3.29936
2.44884
1.56112
0.66007
-0.216941
-1.03975
-1.78868
-2.44352
-2.97578
-3.35902
-3.59613
-3.68652
-3.6139
-3.3168
-2.72089
-1.88099
-1.0375
-0.469746
-0.429535
-0.94673
-1.94453
-3.27885
-4.77083
-6.20467
-7.57658
-8.92569
-10.3096
-11.7882
-13.5021
-15.5732
-18.1246
-21.2183
-24.9159
-29.3011
-34.0747
7.13367
6.51934
5.95811
5.41897
4.85832
4.26217
3.63348
2.97265
2.27822
1.55535
0.827013
0.118805
-0.545366
-1.14694
-1.66711
-2.0799
-2.35038
-2.45318
-2.36115
-2.06614
-1.52985
-0.798365
-0.0511117
0.447719
0.441851
-0.211739
-1.41028
-2.9824
-4.65489
-6.26715
-7.7752
-9.29745
-10.8631
-12.61
-14.6169
-17.0883
-20.1059
-23.8169
-28.2829
-33.4888
-39.1637
6.56976
6.06634
5.61499
5.1904
4.75363
4.29156
3.80715
3.29859
2.7653
2.20413
1.62665
1.04836
0.488784
-0.0315656
-0.494695
-0.882195
-1.17158
-1.3284
-1.3074
-1.07194
-0.618254
-0.00985601
0.605339
1.02625
0.991648
0.335405
-0.90729
-2.51432
-4.2399
-5.8929
-7.45582
-9.0047
-10.6562
-12.4885
-14.642
-17.2455
-20.4592
-24.4226
-29.3085
-35.2528
-42.1723
6.02187
5.61179
5.25142
4.91994
4.58255
4.22741
3.85791
3.4706
3.06668
2.64138
2.19859
1.74666
1.29835
0.869053
0.475018
0.134432
-0.138115
-0.323941
-0.399191
-0.318882
-0.0537924
0.372049
0.839249
1.15021
1.0984
0.547148
-0.519126
-1.9299
-3.4815
-5.00506
-6.44962
-7.8521
-9.33772
-10.9886
-12.9255
-15.2523
-18.1291
-21.7007
-26.1491
-31.6814
-38.3445
5.49404
5.16241
4.877
4.62073
4.3626
4.09258
3.814
3.52346
3.2211
2.90395
2.57238
2.22988
1.88384
1.54425
1.22146
0.930336
0.682417
0.492785
0.365853
0.317389
0.361903
0.51769
0.747342
0.953028
0.955144
0.58811
-0.194861
-1.26609
-2.46791
-3.6717
-4.82784
-5.93114
-7.03654
-8.21718
-9.58057
-11.2101
-13.2395
-15.8072
-19.0497
-23.0599
-27.7535
5.01358
4.74454
4.51816
4.31946
4.12056
3.91406
3.70266
3.4837
3.25611
3.01881
2.77106
2.51347
2.24971
1.98615
1.72836
1.48631
1.26652
1.08177
0.934739
0.830989
0.762558
0.737958
0.741816
0.76242
0.750693
0.612286
0.206755
-0.48194
-1.338
-2.20647
-3.01621
-3.75701
-4.46379
-5.17801
-5.942
-6.80514
-7.85566
-9.21794
-11.012
-13.3306
-16.0425
4.59278
4.37249
4.19118
4.0352
3.87957
3.71909
3.55602
3.38831
3.2144
3.0336
2.84564
2.65036
2.44887
2.24531
2.04217
1.84624
1.66008
1.49227
1.34447
1.22421
1.1239
1.04911
0.978055
0.896708
0.790899
0.663137
0.477045
0.190501
-0.230762
-0.749983
-1.29161
-1.78218
-2.20215
-2.57673
-2.94604
-3.35287
-3.81582
-4.35969
-5.01238
-5.90577
-7.11025
4.2216
4.03988
3.89311
3.76915
3.64543
3.51855
3.39045
3.25949
3.12407
2.98325
2.83771
2.68715
2.53137
2.37262
2.21184
2.05349
1.89845
1.75184
1.61318
1.48779
1.37156
1.27566
1.19079
1.10048
0.98305
0.841959
0.679742
0.508371
0.33322
0.162002
-0.0173486
-0.217639
-0.433887
-0.649436
-0.843668
-1.02619
-1.21042
-1.43351
-1.68991
-2.0261
-2.4522
3.89107
3.73918
3.61936
3.51942
3.41958
3.31755
3.21482
3.11071
3.00265
2.89108
2.7752
2.65704
2.53327
2.40814
2.27795
2.14996
2.0187
1.89357
1.76644
1.6484
1.52634
1.42013
1.31942
1.22641
1.11767
1.00128
0.864113
0.724729
0.582306
0.457666
0.360227
0.308005
0.28288
0.251432
0.182237
0.0717557
-0.0609631
-0.208426
-0.335611
-0.454024
-0.559951
3.59224
3.46541
3.36622
3.28465
3.20267
3.11902
3.0352
2.95014
2.86253
2.7713
2.67738
2.58039
2.48134
2.37867
2.27407
2.16595
2.05731
1.94588
1.83507
1.72157
1.60764
1.49582
1.39568
1.29493
1.19604
1.09238
0.988711
0.877801
0.765967
0.650867
0.544703
0.447617
0.369105
0.311209
0.278208
0.251983
0.216456
0.143314
0.0403258
-0.0777366
-0.191817
3.32192
3.21444
3.13131
3.06343
2.99466
2.92463
2.85434
2.78327
2.7099
2.63361
2.55453
2.47331
2.39095
2.3058
2.21849
2.12727
2.03418
1.9369
1.83782
1.73404
1.62736
1.52103
1.42548
1.33024
1.23843
1.14462
1.05623
0.96667
0.881328
0.792639
0.705992
0.615614
0.528052
0.441465
0.359843
0.279892
0.210612
0.151127
0.102212
0.0689337
0.0436128
3.07454
2.98349
2.91287
2.85467
2.79612
2.73546
2.67548
2.61375
2.55121
2.48486
2.41731
2.34654
2.27679
2.20314
2.12952
2.04995
1.97055
1.88394
1.79728
1.70205
1.60601
1.50619
1.4192
1.33029
1.24812
1.16206
1.08392
1.00383
0.93194
0.858982
0.793282
0.726545
0.664822
0.601384
0.540553
0.480118
0.426139
0.378488
0.335656
0.309805
0.291032
2.84885
2.76998
2.70899
2.65836
2.60651
2.55335
2.49981
2.44564
2.38949
2.33144
2.27065
2.20868
2.14529
2.08179
2.01557
1.9477
1.87557
1.80118
1.72109
1.63801
1.5474
1.45912
1.37541
1.29753
1.21896
1.14495
1.07117
1.00312
0.936526
0.87646
0.818737
0.767926
0.720706
0.680198
0.643312
0.613181
0.588405
0.571105
0.557772
0.558243
0.558123
2.64088
2.57294
2.51908
2.47339
2.42667
2.37816
2.3295
2.27977
2.22855
2.17526
2.11973
2.06247
2.00415
1.94624
1.88652
1.82533
1.76037
1.69298
1.6203
1.54442
1.46145
1.38003
1.30282
1.23121
1.15983
1.09303
1.0275
0.967882
0.910315
0.858994
0.810694
0.769187
0.731934
0.701758
0.676467
0.658657
0.647817
0.644772
0.647112
0.660976
0.674738
2.45019
2.3902
2.34182
2.30004
2.25593
2.21124
2.1649
2.1188
2.06976
2.02026
1.96722
1.91388
1.85788
1.8044
1.74797
1.69225
1.63114
1.5698
1.50168
1.43253
1.35486
1.2803
1.20792
1.14255
1.07651
1.01637
0.956826
0.904048
0.852977
0.808711
0.76714
0.732547
0.701855
0.67804
0.658746
0.646427
0.640231
0.640895
0.646061
0.660498
0.674864
2.27418
2.2214
2.1768
2.13703
2.09535
2.052
2.00801
1.96278
1.91622
1.86756
1.81747
1.76497
1.7122
1.65922
1.60681
1.55219
1.4963
1.4367
1.37482
1.30818
1.23803
1.16628
1.10098
1.03807
0.979416
0.922398
0.870548
0.821299
0.777652
0.737288
0.702844
0.672228
0.647636
0.627066
0.611982
0.601406
0.596618
0.596498
0.599885
0.610484
0.619642
2.11253
2.06457
2.02318
1.98484
1.94391
1.90172
1.85822
1.81388
1.7678
1.7201
1.67079
1.61956
1.56759
1.51544
1.46416
1.41154
1.35791
1.30124
1.24269
1.18003
1.11428
1.04741
0.986554
0.928346
0.874445
0.822336
0.775092
0.730616
0.691436
0.655324
0.624568
0.597171
0.575009
0.556417
0.542579
0.532574
0.527386
0.526069
0.527601
0.535229
0.541127
1.9635
1.91998
1.88046
1.84245
1.80237
1.75966
1.71687
1.67176
1.62641
1.57809
1.52967
1.47816
1.42708
1.37437
1.32432
1.2721
1.22068
1.16542
1.10995
1.04986
0.988454
0.92506
0.868289
0.813334
0.763311
0.714559
0.671068
0.629699
0.593698
0.560295
0.532074
0.506877
0.486689
0.469688
0.45717
0.447934
0.443043
0.441495
0.442707
0.449226
0.454277
1.82669
1.78602
1.74798
1.71018
1.66952
1.62696
1.58309
1.5381
1.4915
1.44363
1.39404
1.34345
1.29117
1.23942
1.18816
1.13776
1.08596
1.03355
0.978704
0.922656
0.862914
0.80441
0.749384
0.699068
0.650954
0.606972
0.565396
0.528317
0.494184
0.464596
0.438113
0.416049
0.397147
0.382342
0.370481
0.362491
0.357565
0.356304
0.356984
0.362973
0.367289
1.70093
1.66281
1.62522
1.58704
1.54607
1.50253
1.45802
1.41195
1.36476
1.31604
1.26603
1.21498
1.16254
1.11036
1.05898
1.00869
0.957598
0.906279
0.853042
0.798952
0.742102
0.686646
0.634595
0.587168
0.542058
0.500828
0.462235
0.427983
0.396604
0.369451
0.345166
0.324905
0.307551
0.293971
0.283075
0.275705
0.271092
0.269884
0.270416
0.275748
0.279509
1.58577
1.54917
1.51178
1.47318
1.43095
1.38701
1.34081
1.2943
1.24551
1.19654
1.14529
1.09425
1.04106
0.989085
0.936821
0.886892
0.835835
0.785729
0.733583
0.681893
0.627394
0.575112
0.525664
0.481123
0.438687
0.400482
0.364534
0.332883
0.303792
0.278756
0.256373
0.237829
0.221961
0.209612
0.199716
0.193065
0.188863
0.187753
0.188169
0.192887
0.196112
1.48042
1.44494
1.40734
1.36762
1.32476
1.27931
1.23236
1.18418
1.13493
1.08443
1.03315
0.980871
0.92821
0.875099
0.823321
0.772458
0.722695
0.672536
0.622668
0.571777
0.520456
0.469891
0.423827
0.380845
0.341703
0.305084
0.272183
0.242129
0.215875
0.192382
0.17243
0.155157
0.141225
0.129777
0.121286
0.115111
0.111735
0.110584
0.111369
0.115517
0.118811
1.38428
1.34945
1.31127
1.27061
1.22654
1.1799
1.1318
1.08239
1.03212
0.980725
0.928819
0.876077
0.823247
0.770034
0.718157
0.667367
0.618131
0.568952
0.520384
0.471449
0.422745
0.374968
0.331528
0.29119
0.254584
0.220626
0.190338
0.162765
0.13868
0.117281
0.0991637
0.0836143
0.0711017
0.0609486
0.0534892
0.0481753
0.0453666
0.0445717
0.0455129
0.0494265
0.0525383
1.29692
1.26222
1.22344
1.18137
1.13614
1.08851
1.03895
0.988589
0.937157
0.885145
0.832552
0.779616
0.72668
0.673604
0.621704
0.571308
0.52263
0.474528
0.427416
0.38036
0.333811
0.288587
0.247461
0.209433
0.175075
0.143361
0.115046
0.0894797
0.0672349
0.0476587
0.0311508
0.0171275
0.00591914
-0.00306406
-0.00957106
-0.0140818
-0.0163311
-0.0167522
-0.0155861
-0.011798
-0.00872479
1.21765
1.18299
1.14308
1.09982
1.05343
1.00425
0.95397
0.902117
0.850232
0.797193
0.744567
0.691158
0.638636
0.585706
0.534574
0.484547
0.43696
0.389979
0.344662
0.299539
0.255677
0.213142
0.174758
0.139303
0.107513
0.0783467
0.0525823
0.0294508
0.0095206
-0.00794027
-0.0225053
-0.0348439
-0.0445844
-0.0523455
-0.0578231
-0.0615615
-0.0632431
-0.0633355
-0.061968
-0.0583235
-0.0552657
1.14623
1.11102
1.07026
1.0254
0.977624
0.927583
0.87584
0.823346
0.770392
0.717269
0.664032
0.61112
0.558505
0.506691
0.455819
0.407052
0.36001
0.314829
0.270653
0.227955
0.185892
0.146201
0.109712
0.0769044
0.0469734
0.0202805
-0.00373241
-0.0246635
-0.0430672
-0.0586609
-0.0719756
-0.0827731
-0.09154
-0.0980707
-0.102853
-0.105651
-0.106909
-0.106344
-0.104805
-0.100854
-0.0977578
1.08183
1.04617
1.00392
0.957855
0.908778
0.857461
0.804744
0.751453
0.697884
0.644493
0.591263
0.538715
0.486739
0.435892
0.386225
0.3388
0.293321
0.250067
0.208223
0.168144
0.129152
0.0927624
0.059456
0.0296374
0.00266088
-0.0212264
-0.0425221
-0.0609685
-0.0770307
-0.0905402
-0.101955
-0.111134
-0.11849
-0.123891
-0.127752
-0.129901
-0.13072
-0.129973
-0.128392
-0.124741
-0.121881
1.0243
0.987403
0.944049
0.896233
0.84588
0.793548
0.740077
0.68603
0.632195
0.578636
0.525722
0.473675
0.422637
0.372943
0.324595
0.278442
0.234431
0.192732
0.152665
0.114549
0.0777364
0.0434128
0.0120438
-0.0160495
-0.0413583
-0.0637309
-0.0835616
-0.100676
-0.115453
-0.1278
-0.13809
-0.146247
-0.152639
-0.157189
-0.160259
-0.161724
-0.161936
-0.1607
-0.158657
-0.154774
-0.151497
0.973292
0.93528
0.88991
0.840604
0.788619
0.73521
0.680754
0.62656
0.572432
0.519353
0.466867
0.415887
0.365961
0.31798
0.271538
0.227715
0.186183
0.147352
0.11047
0.0758569
0.042908
0.0126512
-0.0147572
-0.0390422
-0.0607027
-0.0796138
-0.0962058
-0.110341
-0.122411
-0.132345
-0.140527
-0.146905
-0.151835
-0.155263
-0.157525
-0.158521
-0.158572
-0.157496
-0.155844
-0.152714
-0.150206
0.929183
0.889531
0.842749
0.791213
0.737556
0.68254
0.627245
0.572221
0.5182
0.465417
0.414077
0.364185
0.315933
0.269288
0.224533
0.181867
0.14186
0.104291
0.0690986
0.0359091
0.00474791
-0.0241612
-0.0502438
-0.0736689
-0.0944163
-0.112796
-0.128781
-0.142588
-0.154195
-0.163848
-0.171568
-0.177616
-0.182013
-0.185028
-0.186675
-0.187204
-0.186596
-0.185052
-0.18269
-0.179188
-0.175845
0.890133
0.849126
0.800372
0.747625
0.692389
0.636197
0.579778
0.524107
0.469783
0.417187
0.366655
0.318261
0.272291
0.228671
0.187515
0.148813
0.112927
0.0796476
0.0489987
0.020709
-0.00529575
-0.0288291
-0.0496272
-0.067958
-0.0839226
-0.0977765
-0.109629
-0.119668
-0.127988
-0.134762
-0.140085
-0.144145
-0.147018
-0.148892
-0.149818
-0.149987
-0.149418
-0.148249
-0.146593
-0.144157
-0.142059
0.853954
0.809574
0.758713
0.703946
0.648026
0.591567
0.535579
0.480443
0.426901
0.375175
0.325527
0.278006
0.232788
0.189866
0.149443
0.111581
0.0765271
0.0440376
0.0139218
-0.0141209
-0.0401355
-0.0640026
-0.085526
-0.104779
-0.121845
-0.136852
-0.149916
-0.161113
-0.170537
-0.178292
-0.184479
-0.189212
-0.192573
-0.19472
-0.195724
-0.195749
-0.194837
-0.193151
-0.190793
-0.187639
-0.184447
0.823243
0.774692
0.719008
0.660543
0.601475
0.543571
0.487327
0.43351
0.382233
0.333554
0.287478
0.243985
0.203203
0.165156
0.129838
0.0972767
0.0676972
0.0412186
0.0177028
-0.00304448
-0.0213718
-0.0372116
-0.0507926
-0.062223
-0.0717944
-0.0796668
-0.0861155
-0.0912689
-0.0953236
-0.098385
-0.100591
-0.10205
-0.102848
-0.10309
-0.10282
-0.102158
-0.101127
-0.0998184
-0.0983031
-0.0964211
-0.094856
0.809892
0.760667
0.70243
0.638998
0.574246
0.510161
0.448673
0.390758
0.33721
0.288124
0.243187
0.201963
0.163811
0.128268
0.0949111
0.0636122
0.0341489
0.00652521
-0.0194062
-0.0435181
-0.0659508
-0.0864922
-0.105237
-0.122069
-0.13717
-0.150516
-0.162299
-0.1725
-0.181276
-0.18865
-0.194753
-0.199638
-0.203398
-0.206126
-0.207885
-0.208795
-0.208885
-0.2083
-0.207076
-0.20528
-0.203166
0.808196
0.764272
0.710578
0.65018
0.585995
0.520301
0.454959
0.391686
0.331819
0.276197
0.22558
0.180294
0.140672
0.106554
0.0776554
0.0534052
0.0334891
0.017546
0.0048759
-0.00497912
-0.0126174
-0.018101
-0.0219647
-0.0242351
-0.0253764
-0.0253702
-0.0246705
-0.0231929
-0.0213308
-0.0189601
-0.0164281
-0.0135795
-0.0107085
-0.0076537
-0.00466874
-0.00158516
0.00137699
0.00438166
0.00720043
0.0101005
0.0125996
0.767503
0.7122
0.65383
0.594945
0.537212
0.481387
0.427868
0.376911
0.328585
0.282832
0.239461
0.198329
0.159189
0.122046
0.0868246
0.0538759
0.0230928
-0.00544648
-0.0319862
-0.0565968
-0.0795311
-0.100846
-0.12069
-0.139069
-0.156092
-0.171816
-0.18628
-0.199548
-0.211648
-0.222666
-0.232632
-0.241642
-0.24973
-0.256992
-0.263475
-0.269261
-0.274406
-0.27898
-0.283048
-0.286677
-0.28988
-7.49854
-18.1977
-23.9472
-26.4867
-28.7199
-30.5942
-30.8124
-30.0136
-28.9812
-27.3049
-25.7328
-23.7943
-21.917
-19.9734
-17.9955
-16.2076
-14.5199
-12.9921
-11.6031
-10.3355
-9.2176
-8.20755
-7.34171
-6.58776
-5.93656
-5.37748
-4.885
-4.44137
-4.04046
-3.65071
-3.32716
-2.98763
-2.7019
-2.39745
-2.11688
-1.87813
-1.68795
-1.54357
-1.434
-1.30387
-1.2047
-1.11339
-1.00931
-0.923054
-0.837397
-0.729417
-0.629107
-0.537807
-0.437832
-0.32433
-0.234986
-0.143982
-0.0803196
-0.0343619
0.00103212
0.0395697
0.0768713
0.100476
0.136516
0.156961
0.189505
0.201318
0.224655
0.233599
0.233174
0.239263
0.225378
0.221548
0.198865
0.178269
0.135788
0.124736
0.0240301
0.0965976
-9.04369
-18.4279
-24.2111
-26.8654
-29.2251
-31.0174
-31.0869
-30.167
-29.0167
-27.3564
-25.7485
-23.8473
-21.9633
-20.0168
-18.0482
-16.2629
-14.5783
-13.0509
-11.6588
-10.393
-9.27015
-8.26104
-7.39581
-6.6428
-5.99155
-5.43138
-4.93839
-4.4937
-4.09011
-3.69818
-3.36951
-3.03038
-2.73755
-2.43121
-2.15203
-1.91397
-1.72705
-1.58515
-1.47697
-1.3487
-1.24864
-1.15675
-1.05248
-0.963018
-0.874005
-0.762638
-0.658078
-0.561085
-0.459161
-0.345307
-0.254725
-0.164294
-0.100917
-0.0547705
-0.018461
0.0222755
0.0614402
0.0877782
0.125615
0.148438
0.181906
0.195878
0.21935
0.228791
0.229336
0.235483
0.223098
0.219484
0.197599
0.17746
0.135893
0.124966
0.0248434
0.0970856
-10.561
-18.6278
-24.5849
-27.471
-29.9438
-31.6973
-31.6536
-30.5694
-29.2499
-27.5363
-25.8559
-23.9482
-22.0358
-20.072
-18.1045
-16.3142
-14.6297
-13.0989
-11.704
-10.4385
-9.31258
-8.30478
-7.43986
-6.68814
-6.03709
-5.47541
-4.98293
-4.53756
-4.13183
-3.73849
-3.40481
-3.06634
-2.7672
-2.45973
-2.18244
-1.94654
-1.76309
-1.62391
-1.51679
-1.39165
-1.29062
-1.19758
-1.09334
-0.999872
-0.907326
-0.792628
-0.684163
-0.58207
-0.478556
-0.364933
-0.273786
-0.184185
-0.121137
-0.0745984
-0.0368685
0.00552813
0.0468335
0.0758193
0.115421
0.140403
0.174774
0.190495
0.214046
0.224004
0.225398
0.231742
0.220665
0.217339
0.196293
0.176639
0.135939
0.125074
0.02558
0.0973955
-12.3028
-19.1575
-25.1372
-28.3001
-30.8949
-32.6707
-32.5801
-31.3094
-29.7601
-27.9102
-26.1066
-24.1369
-22.165
-20.1638
-18.1818
-16.3741
-14.6821
-13.1416
-11.7416
-10.473
-9.34489
-8.33736
-7.47227
-6.72151
-6.07096
-5.50743
-5.01584
-4.57025
-4.16294
-3.76906
-3.43024
-3.09281
-2.78875
-2.48172
-2.20713
-1.97542
-1.79582
-1.65958
-1.55325
-1.43245
-1.33022
-1.23532
-1.1309
-1.03266
-0.936083
-0.818307
-0.706617
-0.600164
-0.495625
-0.383073
-0.292239
-0.203767
-0.141062
-0.0938858
-0.0542277
-0.0105472
0.0331665
0.0647386
0.105992
0.1329
0.16802
0.18512
0.208657
0.219124
0.221292
0.227929
0.218028
0.215052
0.194887
0.175771
0.135859
0.125035
0.0262149
0.0975173
-14.2463
-20.048
-25.8771
-29.3251
-32.0896
-33.9361
-33.8702
-32.4236
-30.5836
-28.5158
-26.5217
-24.4296
-22.358
-20.2944
-18.2799
-16.4428
-14.7357
-13.1813
-11.7728
-10.4993
-9.36834
-8.3609
-7.49539
-6.74578
-6.09626
-5.53183
-5.0407
-4.5953
-4.18693
-3.79348
-3.44933
-3.11302
-2.80528
-2.49984
-2.22868
-2.00208
-1.82657
-1.69336
-1.5879
-1.47136
-1.36813
-1.27103
-1.16563
-1.06261
-0.961375
-0.840864
-0.726718
-0.616529
-0.511216
-0.400234
-0.310142
-0.222911
-0.160423
-0.112391
-0.0706283
-0.025674
0.0204294
0.0545172
0.0972566
0.125912
0.161596
0.179894
0.203385
0.214373
0.217261
0.224255
0.215449
0.212845
0.193567
0.174984
0.13579
0.124926
0.026818
0.0974666
-16.3556
-21.3544
-26.9547
-30.6929
-33.6635
-35.6128
-35.6086
-34.0028
-31.8001
-29.4079
-27.1376
-24.8538
-22.636
-20.4765
-18.4069
-16.5247
-14.7915
-13.2171
-11.7957
-10.5147
-9.37971
-8.37168
-7.50574
-6.75716
-6.10949
-5.54515
-5.05416
-4.60935
-4.20042
-3.8083
-3.4594
-3.12458
-2.81531
-2.51355
-2.24702
-2.02667
-1.85566
-1.72532
-1.62084
-1.50811
-1.4039
-1.30411
-1.19677
-1.08906
-0.982566
-0.859738
-0.744095
-0.631088
-0.525538
-0.416769
-0.327919
-0.242102
-0.179596
-0.130442
-0.0863786
-0.0399176
0.00850609
0.0451019
0.0890558
0.119306
0.155243
0.174663
0.198016
0.209517
0.21318
0.220509
0.212839
0.2106
0.192234
0.174182
0.135665
0.124702
0.0273588
0.097241
-18.6177
-23.1276
-28.5133
-32.5436
-35.7362
-37.82
-37.8994
-36.1405
-33.5017
-30.6504
-27.9855
-25.4227
-23.0002
-20.7054
-18.5542
-16.6112
-14.8413
-13.2412
-11.8027
-10.5124
-9.37276
-8.36487
-7.49909
-6.7528
-6.10835
-5.54609
-5.05543
-4.61146
-4.20263
-3.81257
-3.4602
-3.12708
-2.8185
-2.52237
-2.26145
-2.04793
-1.88183
-1.75459
-1.65099
-1.54162
-1.43662
-1.33395
-1.22401
-1.11191
-1.00018
-0.875445
-0.758931
-0.644296
-0.538872
-0.432546
-0.34511
-0.26076
-0.198035
-0.147582
-0.10119
-0.053139
-0.0026057
0.0363716
0.081329
0.112999
0.14903
0.169475
0.192681
0.204718
0.209153
0.216847
0.210313
0.208412
0.190938
0.173384
0.135517
0.124363
0.0278458
0.0968213
-21.0884
-25.4413
-30.7198
-35.0799
-38.5024
-40.7442
-40.9229
-39.0042
-35.8493
-32.3705
-29.1481
-26.1884
-23.4816
-20.9984
-18.7296
-16.7036
-14.8821
-13.2475
-11.7873
-10.4849
-9.34007
-8.333
-7.46863
-6.72589
-6.08622
-5.52812
-5.03874
-4.59596
-4.18809
-3.80089
-3.44734
-3.1169
-2.81188
-2.52408
-2.27056
-2.06474
-1.90388
-1.77976
-1.67691
-1.57025
-1.46433
-1.35868
-1.24573
-1.12951
-1.01299
-0.886871
-0.770181
-0.655413
-0.550819
-0.447362
-0.361635
-0.278875
-0.215674
-0.163741
-0.114911
-0.0652319
-0.0127416
0.028463
0.0741661
0.107018
0.142944
0.16428
0.187276
0.199861
0.205104
0.213162
0.207774
0.206179
0.189585
0.1725
0.135253
0.123853
0.0282312
0.0961955
-23.9585
-28.431
-33.7616
-38.4904
-42.1612
-44.5457
-44.8284
-42.7337
-38.9801
-34.6839
-30.6983
-27.1837
-24.0931
-21.3562
-18.9286
-16.7943
-14.9057
-13.2276
-11.7413
-10.4252
-9.27561
-8.27108
-7.41071
-6.674
-6.0416
-5.49002
-5.00365
-4.56278
-4.15681
-3.77349
-3.42108
-3.09454
-2.79549
-2.51791
-2.27362
-2.07594
-1.92077
-1.79995
-1.6978
-1.59328
-1.48667
-1.37813
-1.26215
-1.14232
-1.02187
-0.894867
-0.778475
-0.664728
-0.561553
-0.461039
-0.377044
-0.295843
-0.232069
-0.178544
-0.127412
-0.076146
-0.0219816
0.0212234
0.0674834
0.101323
0.137049
0.15915
0.18194
0.195118
0.201147
0.209586
0.205318
0.203979
0.188225
0.17157
0.134918
0.12319
0.0285411
0.0953553
-27.5222
-32.351
-37.893
-42.9987
-46.9301
-49.4023
-49.7587
-47.4623
-43.0392
-37.7311
-32.7358
-28.4623
-24.8562
-21.7843
-19.1454
-16.8728
-14.8982
-13.1672
-11.6505
-10.3207
-9.16762
-8.16855
-7.31568
-6.58831
-5.96598
-5.42371
-4.94288
-4.50571
-4.10292
-3.72506
-3.37674
-3.0565
-2.76619
-2.50125
-2.26855
-2.07989
-1.93081
-1.81317
-1.71174
-1.60861
-1.50136
-1.39023
-1.27152
-1.14873
-1.02548
-0.898385
-0.782877
-0.671329
-0.570364
-0.473184
-0.39106
-0.311518
-0.247021
-0.191843
-0.138442
-0.0856998
-0.0300893
0.014843
0.0614558
0.0960178
0.131397
0.154121
0.176648
0.190442
0.197259
0.20605
0.202881
0.201752
0.18681
0.170544
0.134453
0.122346
0.0287546
0.0943142
-31.7729
-37.2739
-43.2456
-48.7734
-52.9357
-55.4573
-55.755
-53.2462
-48.0897
-41.5956
-35.3279
-30.0501
-25.7683
-22.2653
-19.3573
-16.9152
-14.8368
-13.0462
-11.498
-10.1567
-9.00397
-8.01515
-7.17528
-6.4623
-5.85391
-5.32451
-4.85291
-4.42246
-4.02524
-3.65479
-3.31353
-3.00221
-2.72293
-2.47234
-2.25335
-2.07481
-1.93236
-1.81824
-1.71777
-1.61584
-1.50823
-1.39511
-1.27435
-1.14951
-1.02465
-0.898269
-0.784087
-0.675458
-0.577283
-0.483598
-0.403363
-0.325462
-0.260301
-0.203465
-0.148069
-0.0939704
-0.0372933
0.00911726
0.055886
0.091034
0.125981
0.149225
0.171486
0.185898
0.193473
0.2026
0.200498
0.199533
0.185353
0.169439
0.133895
0.121348
0.0289068
0.0930764
-36.1206
-42.5288
-49.2977
-55.4004
-59.9313
-62.4759
-62.6506
-59.844
-53.961
-46.1934
-38.4372
-31.9133
-26.7811
-22.7464
-19.5156
-16.8762
-14.6839
-12.8308
-11.2549
-9.90871
-8.76432
-7.79321
-6.97417
-6.28216
-5.69319
-5.18099
-4.72354
-4.3042
-3.91638
-3.55629
-3.22579
-2.92682
-2.6615
-2.42729
-2.22421
-2.05744
-1.92243
-1.81214
-1.71296
-1.61214
-1.50449
-1.39015
-1.2683
-1.14256
-1.0175
-0.892963
-0.780807
-0.675855
-0.581163
-0.491398
-0.413328
-0.337187
-0.271487
-0.21303
-0.155874
-0.100577
-0.0432187
0.00438064
0.0510515
0.0865845
0.120931
0.144579
0.166482
0.181482
0.189789
0.199204
0.198134
0.197283
0.183825
0.168216
0.133197
0.120169
0.0289825
0.0916677
-40.4932
-47.5418
-55.0834
-61.8751
-66.8864
-69.566
-69.6337
-66.5117
-59.9848
-51.0316
-41.7607
-33.8562
-27.7455
-23.1093
-19.5211
-16.6803
-14.3755
-12.4731
-10.8832
-9.54644
-8.42427
-7.48303
-6.69577
-6.03415
-5.47231
-4.98383
-4.54693
-4.145
-3.77224
-3.42686
-3.11134
-2.82816
-2.57956
-2.36345
-2.17815
-2.0249
-1.89881
-1.79328
-1.6963
-1.59704
-1.49013
-1.37554
-1.25386
-1.12851
-1.00462
-0.883023
-0.77362
-0.672784
-0.581982
-0.496399
-0.420688
-0.346465
-0.280447
-0.220581
-0.161964
-0.105719
-0.0480816
0.000350967
0.0467422
0.0825177
0.116212
0.140137
0.161675
0.177192
0.186183
0.195845
0.195758
0.194992
0.182211
0.166882
0.132385
0.118837
0.0290096
0.0900888
-45.9244
-53.1347
-60.7868
-67.7515
-72.7831
-75.4016
-75.2154
-71.7653
-64.7402
-54.9381
-44.4628
-35.3422
-28.3174
-23.1102
-19.2062
-16.1987
-13.8225
-11.9026
-10.3295
-9.02866
-7.95138
-7.05843
-6.31831
-5.69982
-5.17569
-4.7196
-4.31107
-3.93444
-3.58397
-3.25938
-2.96398
-2.70082
-2.4721
-2.27622
-2.11041
-1.97272
-1.85741
-1.75804
-1.66444
-1.56748
-1.46219
-1.34851
-1.22825
-1.1048
-0.98361
-0.866281
-0.760745
-0.6647
-0.578291
-0.497323
-0.424382
-0.352432
-0.286464
-0.225494
-0.165734
-0.108798
-0.0513273
-0.00245531
0.0433598
0.0791622
0.112046
0.136101
0.157152
0.173104
0.182688
0.192553
0.193384
0.192662
0.180518
0.165432
0.131437
0.117334
0.0289762
0.0883728
-49.8423
-57.3541
-64.976
-71.5274
-76.0777
-78.1373
-77.3692
-73.3368
-65.8978
-55.811
-44.9461
-35.304
-27.8205
-22.3253
-18.285
-15.2415
-12.8852
-11.0211
-9.51967
-8.29965
-7.30186
-6.48558
-5.81397
-5.25672
-4.78424
-4.37353
-4.00395
-3.66237
-3.34339
-3.0477
-2.77892
-2.54078
-2.33549
-2.16221
-2.01751
-1.89748
-1.79528
-1.70444
-1.61612
-1.52301
-1.42064
-1.30931
-1.1917
-1.07161
-0.954515
-0.842758
-0.742287
-0.651706
-0.570192
-0.494074
-0.4243
-0.354983
-0.289569
-0.227942
-0.167446
-0.110109
-0.0531803
-0.00430835
0.0406764
0.0762887
0.108286
0.132308
0.152866
0.169119
0.179246
0.189268
0.19094
0.190257
0.178714
0.163857
0.130371
0.115691
0.0289035
0.0865167
-45.6572
-52.7798
-60.0363
-66.3109
-70.6679
-72.591
-71.7528
-67.667
-60.3154
-50.8383
-40.9684
-32.2001
-25.2807
-20.1462
-16.373
-13.5509
-11.3938
-9.70747
-8.37005
-7.29627
-6.43038
-5.72814
-5.1558
-4.6821
-4.2819
-3.93141
-3.61434
-3.31935
-3.04237
-2.78449
-2.54988
-2.34241
-2.16481
-2.01681
-1.89512
-1.79478
-1.70831
-1.62874
-1.54826
-1.46091
-1.36313
-1.25561
-1.14187
-1.02636
-0.914649
-0.809741
-0.715798
-0.631788
-0.556054
-0.485286
-0.41921
-0.353009
-0.288754
-0.227067
-0.166309
-0.108938
-0.0529223
-0.00456224
0.0392571
0.0743126
0.105262
0.128989
0.148997
0.165355
0.175962
0.186046
0.18851
0.187811
0.176842
0.16218
0.129184
0.113892
0.0287783
0.0845563
-32.743
-37.5703
-42.5805
-47.1804
-50.7379
-52.7243
-52.7826
-50.4525
-45.5521
-38.7274
-31.4808
-25.1127
-20.0027
-16.0908
-13.1442
-10.9134
-9.2002
-7.86453
-6.81038
-5.97132
-5.29995
-4.76021
-4.32241
-3.96152
-3.65417
-3.38262
-3.13291
-2.89724
-2.67307
-2.46297
-2.27054
-2.10017
-1.95519
-1.83589
-1.73972
-1.66135
-1.59342
-1.52824
-1.45881
-1.37982
-1.28892
-1.18703
-1.07862
-0.968786
-0.863569
-0.766444
-0.680385
-0.604232
-0.535527
-0.470918
-0.409232
-0.34661
-0.284152
-0.223024
-0.162586
-0.105581
-0.0508597
-0.00347139
0.0388118
0.072971
0.102685
0.12593
0.145335
0.161662
0.172677
0.18281
0.18597
0.185285
0.174849
0.160369
0.12787
0.111965
0.0286013
0.0824813
-18.7483
-21.1724
-23.486
-25.5514
-27.1638
-28.129
-28.3206
-27.4944
-25.485
-22.4377
-18.9107
-15.6066
-12.8574
-10.6563
-8.91177
-7.53871