/*--------------------------------*- C++ -*----------------------------------*\
| =========                 |                                                 |
| \\      /  F ield         | OpenFOAM: The Open Source CFD Toolbox           |
|  \\    /   O peration     | Version:  2312                                  |
|   \\  /    A nd           | Website:  www.openfoam.com                      |
|    \\/     M anipulation  |                                                 |
\*---------------------------------------------------------------------------*/
FoamFile
{
    version     2.0;
    format      ascii;
    arch        "LSB;label=32;scalar=64";
    class       surfaceScalarField;
    location    "100";
    object      phi;
}
// * * * * * * * * * * * * * * * * * * * * * * * * * * * * * * * * * * * * * //

dimensions      [0 3 -1 0 0 0 0];

oriented        oriented;

internalField   nonuniform List<scalar> 
21876
(
0.00823011
-0.00176978
-0.0064584
0.00691039
0.00131936
0.00357524
0.00333737
0.000640621
0.00293857
-0.000741398
0.00139191
-0.00106788
0.000330663
-0.00108186
1.57903e-05
-0.00108794
1.15918e-05
-0.00105575
-3.01015e-05
-0.00105396
1.04765e-05
-0.00104991
-9.28007e-07
-0.00101735
-1.50836e-05
-0.000981774
-2.22449e-05
-0.000970549
1.35974e-05
-0.00100261
4.56011e-05
-0.00104424
4.75933e-05
-0.00104801
1.65313e-05
-0.000964828
-9.51382e-05
-0.000736993
-0.000211423
-0.000304584
-0.000447074
0.00052123
-0.000796562
0.00150266
-0.000946057
0.00234717
-0.000809501
0.00288455
-0.000495387
0.00303129
-0.00014921
0.00293624
0.000115465
0.00276078
0.000157945
0.00253107
0.000237979
0.00212617
0.000387873
0.00159121
0.000542163
0.00110759
0.000456643
0.000974129
0.000141062
0.0012597
-0.000320593
0.00191044
-0.000645913
0.00277072
-0.000897777
0.00379079
-0.00101215
0.00486604
-0.00110944
0.00597625
-0.00111055
0.0069998
-0.00105428
0.00764563
-0.000659562
-0.000282972
0.00788708
0.009005
-0.00394084
-0.00683401
0.00976618
0.00055855
0.00934181
0.00376322
0.00697863
0.00530562
0.00359763
0.00477931
0.000884211
0.00305345
-0.000362257
0.00127511
-0.000649951
0.000317983
-0.000798925
0.000139461
-0.00089815
0.000134706
-0.000964918
8.6153e-05
-0.000978346
2.43742e-05
-0.000953925
-2.11007e-05
-0.000919703
1.19067e-05
-0.000908996
6.31645e-05
-0.000918087
8.64307e-05
-0.000913185
4.53204e-05
-0.000815812
-0.000162784
-0.000494978
-0.00049357
0.000163495
-0.00108856
0.00115383
-0.00175836
0.00219655
-0.00195837
0.00308748
-0.00166961
0.00368894
-0.00107063
0.00394784
-0.000403503
0.00391379
0.000157692
0.0036673
0.000405833
0.00326804
0.00064791
0.0026233
0.00103347
0.00181842
0.00135946
0.00125202
0.00103043
0.00128033
0.000132504
0.00181365
-0.000844384
0.00269867
-0.00151074
0.00380675
-0.00200481
0.00508743
-0.00228144
0.00644588
-0.00248447
0.00784501
-0.00252071
0.00914096
-0.0023861
0.0101205
-0.00167232
-0.000805478
0.010595
0.00998234
-0.00638811
-0.00753336
0.0113143
-0.000773491
0.01232
0.0027586
0.0122281
0.00539862
0.0102587
0.0067493
0.00690283
0.00640837
0.00342403
0.00475181
0.0010619
0.00267976
3.17007e-05
0.00117117
-0.000381413
0.000551713
-0.000646253
0.000350653
-0.000791028
0.000172201
-0.000834282
2.33988e-05
-0.000807296
-1.12707e-05
-0.000768306
2.36724e-05
-0.000753632
6.67417e-05
-0.000754666
4.53585e-05
-0.000672936
-0.00025859
-0.000331586
-0.000836121
0.000408514
-0.00184041
0.00152844
-0.00287685
0.00270896
-0.00313325
0.00371354
-0.00266696
0.00438405
-0.00172926
0.00466451
-0.000686506
0.00458569
0.000245322
0.00418259
0.000800341
0.003516
0.00131439
0.0026088
0.0019327
0.00172908
0.00223813
0.00132487
0.00142293
0.0015826
-0.000129095
0.0023354
-0.00161236
0.00345507
-0.00263589
0.00482844
-0.00339538
0.00639952
-0.00385471
0.00806858
-0.00416804
0.00978681
-0.00423862
0.0113952
-0.00400429
0.0127073
-0.00298517
-0.0015874
0.0134764
0.0110916
-0.00905753
-0.00842244
0.0130051
-0.00268714
0.0142887
0.00147557
0.0153115
0.00437552
0.0154331
0.00662823
0.0138519
0.00798981
0.0106093
0.00799645
0.00666218
0.00663089
0.00331822
0.00452296
0.00130999
0.0025712
0.000335972
0.00133944
-0.000165036
0.000692645
-0.000424643
0.00030526
-0.000520671
0.000108668
-0.000525496
5.12808e-05
-0.000504367
7.01044e-05
-0.000508727
7.5105e-05
-0.000468979
-0.000271937
-0.000177143
-0.00110076
0.000553888
-0.00255123
0.00175337
-0.00405453
0.00308573
-0.00444464
0.00424688
-0.00381024
0.00502077
-0.00248833
0.00532419
-0.000985602
0.00516278
0.00041287
0.00455436
0.00141262
0.00359651
0.00228108
0.00247426
0.00306099
0.00163719
0.00308728
0.00145254
0.0016174
0.00192784
-0.000589758
0.00289316
-0.00256824
0.00425708
-0.00398724
0.00591631
-0.00505092
0.00780748
-0.00574108
0.00982304
-0.00619135
0.0119048
-0.00632945
0.0138764
-0.00599622
0.015579
-0.00470853
-0.00278084
0.0167433
0.0123529
-0.0118701
-0.0095413
0.0147006
-0.00503389
0.0163105
-0.000134392
0.017577
0.0031104
0.0186483
0.00555752
0.0190205
0.0076186
0.0178655
0.00915228
0.0148732
0.0096246
0.0106882
0.00870937
0.00656296
0.00669838
0.00351069
0.00439374
0.00170042
0.00250624
0.000753582
0.00125545
0.000266445
0.000599794
3.25458e-05
0.000286476
-4.62015e-05
0.000148052
-8.64493e-05
0.000116978
-0.00011515
-0.00024493
5.68194e-05
-0.00127248
0.000668944
-0.00316649
0.00185513
-0.00524112
0.00331499
-0.00590204
0.00466273
-0.00515468
0.00558248
-0.00340458
0.00592945
-0.0013333
0.00566806
0.000677304
0.00482164
0.00225705
0.00357278
0.00352837
0.00231803
0.0043138
0.00161823
0.00378551
0.0016621
0.00157038
0.00234047
-0.0012713
0.00351925
-0.00375153
0.00513963
-0.00561335
0.0071063
-0.0070238
0.00934845
-0.00798978
0.0117519
-0.00860129
0.0142532
-0.00883688
0.0166605
-0.00840928
0.0188502
-0.00690328
-0.00447101
0.0205338
0.0139448
-0.014906
-0.0109045
0.0166383
-0.00772859
0.0187346
-0.00222852
0.0202763
0.00156668
0.0214792
0.0043543
0.022531
0.00656671
0.0231097
0.00857309
0.0223998
0.0103347
0.0198209
0.0112888
0.0156857
0.0108358
0.0110513
0.00903098
0.00698106
0.00658258
0.00408587
0.00416021
0.00235421
0.00234436
0.00141025
0.0012462
0.000938965
0.000638652
0.000711631
0.000368201
0.000547284
-5.73971e-05
0.000522647
-0.00122277
0.000884266
-0.00350758
0.00190212
-0.00623568
0.00340099
-0.00738288
0.00493486
-0.00667256
0.00604007
-0.00450052
0.00645892
-0.00174545
0.00608695
0.00105327
0.00498379
0.00336589
0.00348404
0.00503441
0.00221265
0.00559359
0.00171539
0.00429066
0.00197491
0.00132066
0.00284433
-0.00213413
0.00423829
-0.00513834
0.00612536
-0.00749809
0.0084185
-0.00931469
0.0110417
-0.0106171
0.0138766
-0.0114411
0.0168601
-0.0118318
0.0197898
-0.0113511
0.0225767
-0.00970532
-0.00684021
0.0249259
0.015948
-0.0183028
-0.0125534
0.0189863
-0.0107653
0.0215395
-0.00478643
0.0235437
-0.000438419
0.0250113
0.00288756
0.0261045
0.00547421
0.0270806
0.00759884
0.0278097
0.00960695
0.0275509
0.0115506
0.0255254
0.0128639
0.0216729
0.0128876
0.0167069
0.0115528
0.0117285
0.00914353
0.00766514
0.0064133
0.00488506
0.00403266
0.00324079
0.00229132
0.00237385
0.00124471
0.0018575
0.000469359
0.00150576
-0.000865068
0.00145649
-0.00345302
0.00207572
-0.00685163
0.00341954
-0.00872133
0.0050639
-0.00831372
0.00636545
-0.00579929
0.00687719
-0.0022581
0.0063919
0.00154195
0.00504889
0.00470914
0.00340031
0.00668573
0.00224146
0.00675328
0.00196899
0.00456647
0.00242068
0.000868759
0.00346946
-0.00318078
0.00507557
-0.00674713
0.00723321
-0.0096567
0.00986407
-0.0119521
0.0128933
-0.0136511
0.0162002
-0.014758
0.0197324
-0.0153723
0.0232822
-0.0149122
0.0267901
-0.0132235
-0.0100291
0.029967
0.018447
-0.0221988
-0.0145484
0.0219037
-0.0142256
0.0248665
-0.00775337
0.0273215
-0.00289028
0.0292392
0.000970093
0.0306176
0.00410091
0.0315882
0.006629
0.0324534
0.00874441
0.0332552
0.0107483
0.03339
0.0127315
0.0319503
0.0143265
0.0284768
0.0150265
0.0233721
0.014251
0.0176877
0.0121012
0.0125349
0.00919049
0.00860048
0.00623452
0.00606275
0.00379405
0.00456159
0.00198528
0.00356358
0.000148793
0.00286887
-0.0027397
0.00277302
-0.00673691
0.00361419
-0.00954511
0.00514322
-0.00983116
0.00656871
-0.00721726
0.00716938
-0.00285323
0.00658552
0.0021312
0.00507776
0.00621899
0.00343673
0.00833221
0.00249517
0.00769768
0.00243061
0.00463571
0.00304514
0.000255878
0.00425452
-0.00438888
0.00606121
-0.0085556
0.00847999
-0.0120789
0.0114489
-0.0149269
0.0148956
-0.017106
0.018708
-0.0185797
0.0228488
-0.0195247
0.0271199
-0.0191945
0.0314787
-0.017594
-0.0142088
0.0356439
0.0215297
-0.0267581
-0.0169682
0.0255224
-0.0182289
0.0289516
-0.0111774
0.0318345
-0.0057772
0.0341875
-0.0013735
0.0360033
0.00228426
0.0372824
0.00535321
0.0381256
0.00789709
0.0388408
0.0100347
0.0396065
0.0119619
0.0400179
0.0139137
0.039134
0.0159136
0.0361732
0.0172156
0.0311907
0.0170897
0.0250718
0.0153172
0.0189776
0.0123369
0.013886
0.00889716
0.0102473
0.0056354
0.00779226
0.00261755
0.0059777
-0.000914279
0.00474501
-0.00549264
0.00456213
-0.00935354
0.00550032
-0.0107614
0.00680272
-0.00851564
0.00742084
-0.00346696
0.00677269
0.00278001
0.00523603
0.00776148
0.00377555
0.00979402
0.00309341
0.00838572
0.0031918
0.00453793
0.00392598
-0.000475127
0.00526134
-0.005727
0.00723687
-0.0105329
0.00988668
-0.0147361
0.0131695
-0.0182177
0.0170215
-0.0209698
0.021346
-0.0229171
0.0261329
-0.0243262
0.0312038
-0.0242799
0.0365251
-0.0229305
-0.0195293
0.0418306
0.0253115
-0.0321736
-0.0199046
0.0300065
-0.0229198
0.0339933
-0.0151702
0.0373597
-0.00913463
0.0401333
-0.00414761
0.0423597
6.27686e-05
0.0440548
0.0036544
0.0452275
0.00672539
0.0459417
0.00931743
0.0464635
0.0114379
0.0470959
0.0132853
0.0476731
0.0153394
0.0473276
0.017567
0.0450387
0.0193844
0.0404752
0.0198831
0.0342273
0.0185884
0.0274115
0.0157136
0.0211831
0.0118616
0.0161803
0.00762413
0.0122711
0.00300085
0.00919151
-0.00240268
0.00731382
-0.00746645
0.00691297
-0.0103538
0.0075474
-0.00914643
0.00795301
-0.00387021
0.007264
0.00347877
0.00585262
0.00916547
0.00469197
0.0109627
0.00423242
0.00883923
0.00442597
0.00435065
0.005206
-0.00126309
0.00660163
-0.00711984
0.0086739
-0.0126169
0.0114864
-0.0175502
0.0150133
-0.0217599
0.0192122
-0.0251744
0.0240028
-0.0277239
0.0294149
-0.0297456
0.0352949
-0.0301741
0.0416342
-0.0292774
-0.0261048
0.0481977
0.0299542
-0.0386572
-0.0234717
0.0355251
-0.0284922
0.0402267
-0.0198688
0.0441601
-0.013065
0.0474064
-0.0073897
0.0500338
-0.00256252
0.0521039
0.00158581
0.0536613
0.00516952
0.0547124
0.00826611
0.0552887
0.0108659
0.0555977
0.0129793
0.0560271
0.0149146
0.0566536
0.0169461
0.0567736
0.0192625
0.0552489
0.0214077
0.0513605
0.0224729
0.0452975
0.0217684
0.0380001
0.0191603
0.0306445
0.0149784
0.0239196
0.00973423
0.0179596
0.0035671
0.0134519
-0.00294835
0.0107439
-0.00763937
0.0098242
-0.00822091
0.00951756
-0.0035476
0.00868721
0.00430536
0.00749407
0.0103695
0.0066118
0.011834
0.00627773
0.00918181
0.0064476
0.00416782
0.00716519
-0.00197205
0.0084824
-0.00845325
0.010521
-0.0146467
0.0133364
-0.0203852
0.0169663
-0.0253808
0.0213543
-0.0295822
0.0264779
-0.0328384
0.0323637
-0.0356463
0.0389271
-0.0367288
0.0461911
-0.0365462
-0.0338785
0.0539691
0.0356376
-0.0464779
-0.027816
0.0423135
-0.0351672
0.0479096
-0.0254613
0.0525522
-0.0177035
0.0563599
-0.011192
0.0594388
-0.00563634
0.0618823
-0.000852689
0.0637668
0.00329021
0.0651525
0.00688478
0.0660563
0.00996793
0.0664706
0.0125687
0.0665593
0.0148324
0.0667212
0.0167818
0.0672284
0.0187542
0.0676248
0.0210073
0.0667877
0.0233019
0.0636739
0.0248827
0.0579837
0.0248428
0.0503199
0.0226434
0.0417279
0.0183249
0.032917
0.0123816
0.0250762
0.00489235
0.0189865
-0.00154565
0.0153448
-0.00457297
0.0134563
-0.00164496
0.0121273
0.00564166
0.0109919
0.0115052
0.0102114
0.0126159
0.00979321
0.00959428
0.00977226
0.00419184
0.0102145
-0.00242395
0.0112532
-0.00948417
0.0129888
-0.0163954
0.015552
-0.022937
0.0189614
-0.0288048
0.0232558
-0.0338622
0.0283742
-0.0379676
0.0344101
-0.0416665
0.0412633
-0.0435812
0.0490349
-0.0443069
-0.0423823
0.0575531
0.0425983
-0.0559567
-0.0331165
0.050651
-0.0432185
0.0573672
-0.0321728
0.0628985
-0.0232314
0.0674011
-0.0156883
0.0710158
-0.00924613
0.0738759
-0.00370593
0.0760896
0.00108251
0.077747
0.00523413
0.0789196
0.00880126
0.0796318
0.0118625
0.0798649
0.0146022
0.0797156
0.0169317
0.0795449
0.0189252
0.0797232
0.0208254
0.0800902
0.0229363
0.0796819
0.0252818
0.0772099
0.0273127
0.0718384
0.0280057
0.0636948
0.0264637
0.0536072
0.0224552
0.0432986
0.0151991
0.0337151
0.00802076
0.0263633
0.00280469
0.0217468
0.00296342
0.0191557
0.00825907
0.0175675
0.0130802
0.0164743
0.0137236
0.0156295
0.0104245
0.0150915
0.00474191
0.0149245
-0.00226836
0.0152964
-0.00984592
0.0163237
-0.0174325
0.018153
-0.0247571
0.0208428
-0.0315034
0.0244591
-0.0374685
0.0289836
-0.0424973
0.0345005
-0.0471699
0.0409215
-0.0500053
0.0482876
-0.0516588
-0.0505698
0.0564775
0.0511248
-0.0674839
-0.0395935
0.0608841
-0.0529774
0.0689957
-0.0402788
0.0756382
-0.029872
0.0810101
-0.0210533
0.0852875
-0.0135204
0.0886464
-0.00705723
0.0912303
-0.00149693
0.093167
0.0033049
0.0945487
0.00742545
0.09546
0.010958
0.0959365
0.0141309
0.0959556
0.0169177
0.0955514
0.0193333
0.0949774
0.0214031
0.0946344
0.0232765
0.0946355
0.0252811
0.0942704
0.0276693
0.0921182
0.0301526
0.0868317
0.031735
0.0779759
0.0313083
0.0669705
0.0261822
0.0551617
0.0198455
0.0443613
0.0135862
0.0364576
0.0109065
0.0316704
0.0130286
0.0288562
0.015922
0.0267717
0.0157855
0.0249892
0.0122326
0.0233797
0.0063249
0.0220815
-0.000941454
0.0211402
-0.00893656
0.0207999
-0.0170612
0.0210907
-0.0250858
0.0222298
-0.0326103
0.0241839
-0.0394583
0.0270876
-0.0453715
0.0309113
-0.0510186
0.0356993
-0.0547799
0.041318
-0.057273
-0.0570105
0.0477288
0.0615728
-0.0815347
-0.0475176
0.0734411
-0.0648462
0.0832835
-0.0501147
0.0913121
-0.0379
0.0977729
-0.0275064
0.102882
-0.0186278
0.106863
-0.0110307
0.109894
-0.00452529
0.112153
0.00105468
0.113755
0.00582634
0.114816
0.00990469
0.115419
0.0135323
0.115613
0.0167293
0.115378
0.0195736
0.114689
0.0220972
0.113674
0.0242975
0.1127
0.0262559
0.112081
0.0282882
0.111407
0.0308221
0.109279
0.0338626
0.103935
0.0366473
0.0949703
0.0351478
0.0830527
0.0317601
0.0701679
0.0264871
0.0591431
0.0219332
0.0516063
0.0205788
0.0466881
0.0208365
0.0428973
0.0195857
0.0394142
0.015706
0.0360657
0.00968297
0.0328113
0.00229787
0.0297544
-0.0058695
0.0269933
-0.0143224
0.0246904
-0.0227731
0.0229167
-0.0308598
0.0218088
-0.038342
0.0213703
-0.0449534
0.021667
-0.0513145
0.0227617
-0.0558819
0.0246614
-0.0592017
-0.0599536
0.0276133
0.0743778
-0.0986884
-0.0572193
0.0888466
-0.0793165
0.10083
-0.062091
0.110582
-0.0476528
0.118404
-0.0353201
0.12456
-0.0247833
0.129328
-0.0157907
0.132927
-0.00812392
0.135581
-0.00159216
0.137449
0.00395925
0.138678
0.00868154
0.139373
0.0128384
0.13963
0.0164766
0.139501
0.0197063
0.138979
0.0226239
0.137996
0.0252859
0.136566
0.0276898
0.134987
0.0298743
0.133685
0.0321258
0.132585
0.0349704
0.130495
0.0387388
0.125706
0.0399479
0.117071
0.0403962
0.105025
0.0385487
0.0921449
0.0348143
0.0814372
0.0312999
0.0734606
0.0288085
0.0670523
0.0260027
0.0610911
0.0216563
0.0551582
0.0156246
0.0490914
0.00834662
0.0429186
0.000311823
0.0366485
-0.00807677
0.0304252
-0.0165385
0.0242874
-0.0247477
0.0183936
-0.0324348
0.0127628
-0.0393407
0.00743262
-0.045981
0.0025536
-0.051005
-0.001754
-0.0549237
-0.0566585
-0.00502921
0.0900674
-0.119653
-0.0690974
0.107739
-0.0969909
0.122368
-0.0767125
0.13426
-0.059547
0.143781
-0.0448324
0.151253
-0.0322569
0.157017
-0.0215473
0.161345
-0.0124542
0.16451
-0.00475124
0.166721
0.00174658
0.168167
0.00723897
0.168986
0.0120178
0.1693
0.0161652
0.169193
0.0198139
0.168734
0.0230841
0.167931
0.0260923
0.166697
0.0289242
0.16498
0.0315978
0.162971
0.0341349
0.161192
0.0367583
0.159913
0.0400177
0.158384
0.0414911
0.154891
0.0438878
0.147776
0.0456816
0.137048
0.0455399
0.124989
0.0433747
0.1137
0.0400939
0.103611
0.036103
0.0940935
0.031167
0.0846041
0.0251223
0.0748123
0.0181285
0.0646207
0.0105125
0.0539313
0.00260036
0.0427598
-0.00535009
0.0311463
-0.0131433
0.019251
-0.0205119
0.0071366
-0.0272222
-0.00521361
-0.0336043
-0.0175512
-0.0386447
-0.0298167
-0.0426576
-0.0448796
-0.0415522
0.0989531
-0.142868
-0.0757341
0.118522
-0.116562
0.134721
-0.0929048
0.147889
-0.0727161
0.158423
-0.0553591
0.166684
-0.0405197
0.173046
-0.0279024
0.177815
-0.017225
0.18129
-0.00822085
0.183708
-0.000673731
0.185287
0.00566246
0.18619
0.0111129
0.18656
0.015796
0.186497
0.0198753
0.186088
0.0234914
0.185406
0.0267755
0.184468
0.0298588
0.18322
0.0328485
0.18156
0.0357913
0.179623
0.0387008
0.177909
0.0417273
0.176986
0.0424252
0.176596
0.0442731
0.175382
0.04691
0.171512
0.0494068
0.164335
0.0505676
0.154614
0.0498126
0.143526
0.0472022
0.131687
0.0430046
0.1193
0.037516
0.10635
0.0310755
0.0928163
0.0240515
0.0786335
0.0167807
0.0637085
0.00958379
0.0480613
0.00250506
0.0317934
-0.00422809
0.0150203
-0.0104398
-0.00234694
-0.0162235
-0.0198759
-0.0210957
-0.0375032
-0.0250357
-0.0275633
-0.0547911
0.106568
-0.168027
-0.0814038
0.127784
-0.137779
0.145351
-0.110467
0.159639
-0.0870053
0.171069
-0.0667847
0.180037
-0.0494904
0.186941
-0.0348028
0.192119
-0.0224056
0.195891
-0.0119905
0.198516
-0.00330193
0.200236
0.00394215
0.201236
0.0101096
0.201676
0.0153541
0.201679
0.0198701
0.201341
0.0238262
0.200744
0.027371
0.199954
0.030643
0.199023
0.0337794
0.197902
0.0369058
0.196513
0.040092
0.194895
0.0433386
0.193506
0.04382
0.193022
0.0447508
0.193665
0.0462781
0.194508
0.0485598
0.194015
0.051073
0.190871
0.0529565
0.184591
0.053492
0.175302
0.0522969
0.163491
0.0493342
0.149709
0.0448636
0.134438
0.0393284
0.118028
0.0332008
0.100609
0.0270136
0.0823548
0.0207775
0.0633763
0.0147673
0.0438476
0.00911915
0.0236118
0.0040307
0.00319617
-0.000641914
-0.0172172
-0.00461123
-0.00775639
-0.0369825
0.114853
-0.195288
-0.0875933
0.137851
-0.160775
0.1569
-0.129517
0.172409
-0.102513
0.184821
-0.0791955
0.194572
-0.0592426
0.202083
-0.0423133
0.207727
-0.0280519
0.211846
-0.0161093
0.214723
-0.00618204
0.216621
0.00204267
0.217747
0.00898048
0.218277
0.014821
0.218355
0.0197895
0.218093
0.0240833
0.217586
0.0278743
0.216906
0.0313174
0.216133
0.0345499
0.215315
0.0377167
0.214457
0.0409489
0.213459
0.0443292
0.212264
0.0450172
0.211243
0.0457655
0.211067
0.0464595
0.212142
0.0474809
0.214166
0.0490552
0.216077
0.051045
0.216583
0.0529909
0.214524
0.0543598
0.209176
0.0546836
0.200358
0.0536885
0.188342
0.0513435
0.173697
0.0478564
0.156914
0.0437971
0.138539
0.0391676
0.118941
0.0343702
0.098476
0.0296061
0.0770751
0.0254384
0.0553779
0.0210876
0.0335659
0.0172039
0.0136462
0.0121946
0.123836
-0.224805
-0.0943087
0.14875
-0.185694
0.16941
-0.150171
0.186237
-0.119345
0.199723
-0.0926772
0.210327
-0.0698518
0.218513
-0.0504959
0.224675
-0.0342184
0.229188
-0.0206218
0.232358
-0.00935549
0.234467
-6.88805e-05
0.235747
0.00769823
0.236388
0.0141757
0.236555
0.0196221
0.236368
0.0242608
0.235954
0.0282915
0.235374
0.0318853
0.234732
0.0351973
0.234068
0.0383645
0.233494
0.0415319
0.232981
0.0448246
0.232375
0.0456348
0.231642
0.0464797
0.231045
0.0470696
0.230991
0.0475179
0.232004
0.0480544
0.234152
0.0488842
0.237069
0.0500815
0.23989
0.0515296
0.241608
0.0529677
0.241205
0.0540862
0.237949
0.0545979
0.231503
0.0542995
0.221902
0.0533964
0.209521
0.0515471
0.194861
0.0490289
0.178429
0.046039
0.160348
0.0435165
0.141197
0.0402421
0.121144
0.0372477
0.0341535
0.100646
0.13354
-0.25677
-0.101577
0.160533
-0.212686
0.182924
-0.172565
0.201188
-0.137607
0.215834
-0.107324
0.227375
-0.0813917
0.236293
-0.0594146
0.243031
-0.0409556
0.24798
-0.0255712
0.251482
-0.0128571
0.253833
-0.0024195
0.255289
0.00624157
0.256062
0.0134033
0.256325
0.0193576
0.256228
0.0243591
0.255887
0.0286296
0.25541
0.0323649
0.25487
0.0357331
0.254352
0.0388865
0.253917
0.0419606
0.253659
0.0450887
0.253413
0.0458737
0.253205
0.0466938
0.252974
0.0472927
0.252812
0.0476863
0.252939
0.0479198
0.253733
0.0480964
0.255458
0.04835
0.258193
0.0487989
0.261669
0.0494872
0.265383
0.0503765
0.268634
0.0513443
0.270722
0.0522168
0.271023
0.0530951
0.269146
0.0534332
0.264946
0.0532304
0.258554
0.0524429
0.250056
0.0520264
0.239839
0.0504664
0.228146
0.0489547
0.0469585
0.215337
0.144017
-0.291358
-0.109419
0.173248
-0.24192
0.197518
-0.196834
0.217331
-0.15742
0.233238
-0.123231
0.245793
-0.093946
0.255515
-0.0691367
0.262881
-0.048321
0.268314
-0.0310043
0.272183
-0.0167261
0.274806
-0.00504237
0.276462
0.00458557
0.277382
0.0124842
0.277754
0.0189843
0.277745
0.0243697
0.277481
0.0288915
0.277084
0.0327641
0.276638
0.0361772
0.276233
0.0392941
0.275927
0.0422624
0.275811
0.0452099
0.27573
0.0459489
0.275783
0.0466467
0.275937
0.0471322
0.276184
0.0474466
0.276487
0.0476097
0.276958
0.0476345
0.277743
0.0475584
0.279107
0.0474436
0.281224
0.0473654
0.284219
0.0473901
0.288004
0.0475563
0.292377
0.0478516
0.296988
0.0484825
0.301432
0.0489967
0.305286
0.049377
0.308228
0.0495056
0.310023
0.0502315
0.310526
0.0499652
0.309703
0.0497784
0.0490075
0.307649
0.155308
-0.328799
-0.117873
0.186963
-0.273571
0.213261
-0.223132
0.234751
-0.178909
0.252026
-0.140506
0.265681
-0.107601
0.276278
-0.0797332
0.284327
-0.0563727
0.290291
-0.0369666
0.294561
-0.0209996
0.297488
-0.00796699
0.299362
0.00270527
0.300448
0.0114023
0.300936
0.0184889
0.301023
0.0242888
0.300829
0.0290751
0.300509
0.0330934
0.300129
0.0365438
0.29982
0.0396145
0.299612
0.0424545
0.299624
0.0452117
0.299643
0.0459122
0.299816
0.0464888
0.300117
0.046811
0.300621
0.0469583
0.301245
0.0469663
0.302029
0.0468657
0.302909
0.0466605
0.303993
0.0463721
0.305326
0.0460152
0.307101
0.0456253
0.309412
0.045232
0.312407
0.044864
0.316106
0.0447717
0.320497
0.0446111
0.325424
0.0444396
0.330733
0.0441991
0.336263
0.0446953
0.341757
0.0444695
0.347042
0.0444909
0.0441004
0.351942
0.167481
-0.369302
-0.126969
0.201747
-0.307841
0.230241
-0.251625
0.253545
-0.202213
0.272302
-0.159263
0.287151
-0.12245
0.298697
-0.0912797
0.307493
-0.0651691
0.314032
-0.0435066
0.318745
-0.0257121
0.321999
-0.0112227
0.324122
0.000583554
0.325378
0.0101424
0.326003
0.0178666
0.326175
0.024112
0.326066
0.0291875
0.325796
0.0333587
0.325491
0.0368528
0.325232
0.0398674
0.32512
0.0425721
0.325207
0.0451173
0.325337
0.0457886
0.325568
0.0462485
0.325963
0.0464227
0.326522
0.0463886
0.327292
0.0462031
0.32824
0.0459059
0.329384
0.0455226
0.330671
0.0450715
0.332128
0.0445632
0.333734
0.0440063
0.33556
0.043409
0.337637
0.0427744
0.340076
0.0423347
0.342915
0.0417606
0.346225
0.04113
0.349999
0.0404158
0.354295
0.0403989
0.359009
0.0397474
0.36411
0.039387
0.0387262
0.369479
0.180587
-0.413135
-0.13676
0.217686
-0.344935
0.248553
-0.282491
0.273821
-0.227481
0.294184
-0.179624
0.310327
-0.138594
0.322906
-0.103858
0.332513
-0.0747784
0.339682
-0.0506758
0.344876
-0.0309073
0.348493
-0.0148405
0.350881
-0.00180569
0.35233
0.00869046
0.353092
0.017105
0.353363
0.0238376
0.353325
0.0292263
0.353111
0.033569
0.352855
0.0371111
0.352645
0.0400729
0.352587
0.0426336
0.352738
0.0449602
0.35293
0.0456014
0.353219
0.0459508
0.353664
0.0459831
0.354259
0.0457846
0.355054
0.0454134
0.356031
0.0449178
0.357228
0.0443297
0.358609
0.0436788
0.360193
0.0429819
0.361935
0.0422534
0.363848
0.0414987
0.365895
0.0407164
0.368112
0.0401194
0.37048
0.0393829
0.373035
0.0385746
0.375776
0.0376668
0.37877
0.0374023
0.38199
0.0365196
0.385466
0.0359044
0.0350163
0.389169
0.194708
-0.460551
-0.147286
0.234863
-0.385095
0.268302
-0.315927
0.2957
-0.254876
0.3178
-0.201726
0.335352
-0.156142
0.349047
-0.117558
0.359543
-0.0852693
0.367393
-0.058533
0.373117
-0.0366264
0.377123
-0.0188566
0.379809
-0.00448449
0.381461
0.00702644
0.382378
0.0161965
0.382744
0.0234582
0.382784
0.0291958
0.382611
0.0337269
0.382401
0.0373325
0.382215
0.0402425
0.382198
0.0426626
0.382378
0.044762
0.382609
0.0453823
0.382921
0.0456209
0.383396
0.0455187
0.384002
0.0451608
0.384807
0.0446183
0.38577
0.0439367
0.38695
0.0431581
0.388301
0.0423108
0.38987
0.0414211
0.391604
0.040504
0.393535
0.0395736
0.395611
0.0386285
0.397857
0.0378774
0.400222
0.0370069
0.402717
0.0360815
0.405303
0.0350711
0.40802
0.0346833
0.410821
0.0337101
0.413725
0.0329947
0.0320268
0.416707
0.209908
-0.511866
-0.158602
0.253383
-0.428563
0.289604
-0.352148
0.319309
-0.28458
0.343299
-0.225714
0.362373
-0.175218
0.377291
-0.132475
0.388742
-0.0967224
0.397345
-0.0671349
0.403634
-0.0429189
0.40808
-0.0233007
0.411073
-0.00748226
0.412965
0.00513726
0.414029
0.0151274
0.414516
0.0229743
0.414611
0.0290937
0.414498
0.0338438
0.414299
0.0375247
0.414149
0.0403965
0.414127
0.0426745
0.414342
0.0445511
0.414561
0.0451532
0.414896
0.04529
0.415348
0.0450536
0.415968
0.0445447
0.416738
0.043834
0.417699
0.0429782
0.418826
0.042018
0.420149
0.0409898
0.421638
0.0399183
0.423319
0.0388249
0.425157
0.0377227
0.427171
0.0366159
0.429334
0.0357041
0.43165
0.034691
0.434083
0.0336385
0.436632
0.0325196
0.439298
0.0320087
0.44205
0.0309532
0.444881
0.0301554
0.0291315
0.44777
0.226286
-0.567387
-0.170763
0.273347
-0.475632
0.312588
-0.391385
0.344796
-0.316784
0.370834
-0.251752
0.391568
-0.195949
0.407809
-0.148719
0.420307
-0.109219
0.429722
-0.0765526
0.436637
-0.0498335
0.441551
-0.0282161
0.444891
-0.0108242
0.44703
0.00299892
0.448265
0.0138888
0.448864
0.022376
0.44903
0.0289238
0.448955
0.033921
0.448772
0.0377015
0.448625
0.0405457
0.4486
0.0426922
0.448808
0.0443459
0.449011
0.0449419
0.449322
0.044981
0.449746
0.0446186
0.450332
0.0439616
0.451064
0.0430896
0.451982
0.0420631
0.45306
0.0409289
0.454327
0.0397257
0.455752
0.038482
0.45736
0.0372206
0.459117
0.035957
0.461039
0.0346965
0.463103
0.033632
0.465316
0.0324807
0.467643
0.0313029
0.470089
0.0300735
0.472654
0.0294367
0.475312
0.0282924
0.478054
0.0274053
0.0263175
0.480864
0.243919
-0.627483
-0.183831
0.29488
-0.526588
0.337394
-0.4339
0.372317
-0.351706
0.400585
-0.280013
0.423116
-0.218485
0.440805
-0.166402
0.454436
-0.122858
0.464746
-0.0868556
0.472334
-0.0574317
0.477768
-0.0336419
0.481478
-0.0145464
0.483893
0.000593555
0.485304
0.0124635
0.48603
0.0216605
0.486257
0.028682
0.486222
0.0339663
0.486039
0.037869
0.485888
0.0407066
0.485834
0.0427295
0.48602
0.0441701
0.486177
0.0447675
0.486449
0.0447186
0.486817
0.044234
0.487351
0.0434361
0.488019
0.0424057
0.488876
0.0412143
0.489883
0.0399089
0.491081
0.0385358
0.492429
0.0371232
0.493959
0.0356991
0.495628
0.0342784
0.497461
0.0328701
0.499425
0.0316581
0.501536
0.0303745
0.503754
0.0290762
0.506088
0.0277408
0.508534
0.0269822
0.511074
0.0257515
0.513695
0.0247766
0.023625
0.516385
0.26292
-0.69253
-0.197874
0.318103
-0.581781
0.364175
-0.479967
0.40205
-0.389578
0.432735
-0.310698
0.457233
-0.24298
0.476488
-0.185659
0.491368
-0.137737
0.502639
-0.0981305
0.51098
-0.0657707
0.516964
-0.0396305
0.521097
-0.0186778
0.523791
-0.00210676
0.525414
0.0108425
0.52625
0.0208172
0.526562
0.0283732
0.526537
0.033982
0.526366
0.0380419
0.526172
0.0408906
0.526095
0.0428093
0.526211
0.0440421
0.526325
0.0446556
0.526508
0.0445233
0.526818
0.0439256
0.527252
0.042989
0.527853
0.0418067
0.528605
0.0404515
0.529537
0.0389797
0.530625
0.0374377
0.531892
0.0358602
0.533308
0.0342746
0.534889
0.0327001
0.536606
0.0311452
0.538477
0.0297888
0.540469
0.0283744
0.542588
0.0269582
0.544802
0.0255183
0.547144
0.0246409
0.549561
0.0233251
0.552072
0.0222648
0.0210499
0.554639
0.283386
-0.762963
-0.21296
0.343166
-0.641559
0.393099
-0.529904
0.434183
-0.430661
0.467505
-0.344014
0.494137
-0.269614
0.515108
-0.206626
0.531341
-0.153974
0.543673
-0.110462
0.552826
-0.0749255
0.559424
-0.0462295
0.564006
-0.0232616
0.56702
-0.00512411
0.568856
0.00900513
0.569825
0.0198431
0.570204
0.0279942
0.5702
0.0339791
0.570013
0.03823
0.569776
0.0411192
0.569636
0.0429502
0.569677
0.0439911
0.569703
0.0446305
0.569789
0.0444254
0.569996
0.0437194
0.570323
0.0426503
0.570813
0.0413179
0.57145
0.0398029
0.572267
0.0381656
0.573237
0.0364573
0.574385
0.0347151
0.57568
0.0329696
0.577142
0.0312414
0.578737
0.029541
0.580488
0.0280403
0.582358
0.0264958
0.584355
0.0249617
0.586448
0.0234175
0.588668
0.0224215
0.590964
0.0210205
0.593354
0.0198744
0.0185955
0.595801
0.305445
-0.839241
-0.22917
0.370214
-0.706337
0.424351
-0.584041
0.46893
-0.475237
0.505117
-0.380202
0.534086
-0.298575
0.55692
-0.229467
0.574643
-0.171689
0.588125
-0.123954
0.598176
-0.0849681
0.605436
-0.0535025
0.610519
-0.0283357
0.613873
-0.00849266
0.61595
0.00693685
0.617052
0.0187257
0.617507
0.0275474
0.61751
0.0339612
0.617298
0.0384491
0.616993
0.0414088
0.61677
0.0431795
0.6167
0.0440446
0.616612
0.0447253
0.616566
0.0444559
0.616641
0.0436505
0.616824
0.0424529
0.617173
0.0409754
0.617663
0.0393018
0.618335
0.0375011
0.619157
0.0356262
0.62016
0.03372
0.621308
0.0318137
0.622625
0.0299315
0.624075
0.0280844
0.625682
0.0264385
0.627409
0.0247623
0.629266
0.023109
0.631218
0.0214587
0.6333
0.0203427
0.635459
0.0188545
0.637715
0.0176208
0.0162752
0.640029
0.329219
-0.921882
-0.246585
0.399424
-0.776542
0.458134
-0.642758
0.506518
-0.52362
0.545837
-0.419518
0.577345
-0.330081
0.602227
-0.254347
0.621565
-0.191029
0.636323
-0.138713
0.64734
-0.0959898
0.655347
-0.0615085
0.660957
-0.0339524
0.664704
-0.0122398
0.66702
0.00461298
0.668286
0.0174598
0.668796
0.0270289
0.668818
0.0339394
0.668546
0.0387105
0.668172
0.0417827
0.667822
0.0435194
0.667632
0.044234
0.667378
0.0449673
0.667186
0.0446471
0.667077
0.043748
0.667102
0.0424292
0.667258
0.0408082
0.667583
0.0389794
0.66806
0.0370149
0.668715
0.0349747
0.669524
0.032903
0.670505
0.0308356
0.671631
0.0287973
0.672916
0.0268023
0.674339
0.0250086
0.675904
0.0231991
0.677582
0.0214238
0.679377
0.0196653
0.681286
0.0184263
0.683292
0.0168485
0.685381
0.0155245
0.0141093
0.687547
0.354854
-1.01144
-0.265296
0.430972
-0.852668
0.494671
-0.70646
0.547205
-0.576156
0.58994
-0.462249
0.624226
-0.364366
0.651343
-0.281463
0.672455
-0.212144
0.688605
-0.154862
0.700692
-0.108082
0.709507
-0.0703231
0.715708
-0.0401601
0.719872
-0.0164045
0.722461
0.00201632
0.723887
0.0160341
0.724463
0.026444
0.72448
0.0339226
0.724144
0.0390366
0.723661
0.0422658
0.723163
0.0440066
0.722798
0.0445991
0.722352
0.0454021
0.721958
0.0450428
0.721637
0.0440604
0.721444