/*--------------------------------*- C++ -*----------------------------------*\
| =========                 |                                                 |
| \\      /  F ield         | OpenFOAM: The Open Source CFD Toolbox           |
|  \\    /   O peration     | Version:  2312                                  |
|   \\  /    A nd           | Website:  www.openfoam.com                      |
|    \\/     M anipulation  |                                                 |
\*---------------------------------------------------------------------------*/
FoamFile
{
    version     2.0;
    format      ascii;
    arch        "LSB;label=32;scalar=64";
    class       volScalarField;
    location    "100";
    object      turbulenceProperties:I;
}
// * * * * * * * * * * * * * * * * * * * * * * * * * * * * * * * * * * * * * //

dimensions      [0 0 0 0 0 0 0];

internalField   nonuniform List<scalar> 
11040
(
0.0518075
0.0665585
0.105014
0.234895
0.162059
0.0724971
0.197196
0.247605
0.273425
0.278935
0.280869
0.281204
0.279712
0.281042
0.271817
0.271584
0.280768
0.298681
0.316715
0.442093
0.684084
0.359114
0.315904
0.294827
0.283112
0.282027
0.284808
0.287216
0.286066
0.308461
0.320309
0.399134
0.416953
0.374208
0.375017
0.331144
0.307747
0.293411
0.283971
0.276512
0.271071
0.0258038
0.0223814
0.0268118
0.0586372
0.120335
0.342118
1
1
0.719226
0.546782
0.456964
0.391227
0.32376
0.288073
0.308806
0.361443
0.387461
0.414839
0.552863
1
0.565675
0.245594
0.147944
0.0948835
0.0647457
0.0630921
0.0600495
0.0684213
0.126054
0.211881
0.332771
0.208776
0.280321
0.25004
0.202329
0.163058
0.134969
0.113579
0.098381
0.0841295
0.0915098
0.020125
0.0143286
0.0108013
0.0117664
0.0355346
0.0705035
0.205693
0.680616
1
1
1
1
0.787173
0.622907
0.59485
0.686447
0.747176
0.769652
1
1
0.55337
0.278581
0.173951
0.114571
0.0931931
0.105433
0.139473
0.208232
0.318579
0.47921
0.591957
0.370957
0.40186
0.329509
0.260483
0.208351
0.169898
0.139473
0.115968
0.0914399
0.0967845
0.0174397
0.013087
0.0104681
0.00883009
0.00513348
0.019116
0.0479022
0.129404
0.335727
0.8775
1
1
1
1
1
1
1
1
1
1
0.627262
0.360124
0.24263
0.176802
0.156011
0.174931
0.229222
0.335223
0.50829
0.731253
0.72568
0.589991
0.531756
0.420646
0.331138
0.265576
0.216614
0.177998
0.146663
0.115568
0.105026
0.0146909
0.0120836
0.0101976
0.00875156
0.00788637
0.00509568
0.00924251
0.0294351
0.0850033
0.205911
0.440056
0.826973
1
1
1
1
1
1
1
1
0.686277
0.446454
0.318912
0.240113
0.21211
0.243476
0.329599
0.481193
0.718244
0.933344
0.82442
0.800248
0.647535
0.505964
0.399935
0.322893
0.264477
0.218574
0.180605
0.145664
0.123233
0.0120822
0.0105035
0.0091328
0.00799401
0.00722999
0.00690588
0.00476738
0.00329477
0.0155189
0.0544617
0.129865
0.258165
0.459187
0.775802
1
1
1
1
1
1
0.67414
0.502945
0.385847
0.296765
0.261837
0.318922
0.446121
0.651618
0.906062
1
1
0.976609
0.744891
0.58128
0.463913
0.378009
0.311818
0.259629
0.216076
0.178924
0.150183
0.00995262
0.0089915
0.00815115
0.00734517
0.00655889
0.00613499
0.0060521
0.004259
0.000367446
0.0054458
0.0312243
0.0788844
0.160855
0.293044
0.488606
0.730413
0.968002
1
1
0.932497
0.580815
0.493779
0.421458
0.334928
0.293042
0.399278
0.581106
0.817441
0.976774
0.980699
1
1
0.820299
0.642949
0.51964
0.428271
0.356642
0.299684
0.251988
0.213796
0.182019
0.00820243
0.00760329
0.00710219
0.00661111
0.00608595
0.00551917
0.00521487
0.00530895
0.00403464
0.000816246
6.13207e-05
0.0119322
0.0455993
0.10469
0.198474
0.329762
0.496483
0.677988
0.82453
0.778888
0.506044
0.402178
0.393788
0.32935
0.262713
0.48501
0.718556
0.890879
0.891827
1
1
1
0.872539
0.68833
0.563393
0.470173
0.395966
0.336519
0.286749
0.24873
0.21554
0.00678374
0.00640339
0.00608305
0.00577873
0.00545499
0.00509779
0.00465669
0.00444297
0.00465055
0.00401828
0.000566625
0.000784081
0.000471869
0.0256546
0.0694373
0.135078
0.230449
0.364395
0.510255
0.594177
0.51832
0.35036
0.310306
0.294842
0.283951
0.600229
0.811719
0.825359
0.730959
1
1
1
0.90352
0.716875
0.593008
0.500559
0.426489
0.366794
0.31688
0.28006
0.247773
0.00563117
0.00537685
0.00516139
0.0049695
0.00476987
0.00454718
0.00428859
0.00394369
0.00378016
0.00402485
0.00374705
0.00162156
0.000237247
0.00405055
0.015062
0.0433448
0.0875915
0.162053
0.272041
0.388973
0.45253
0.421742
0.371212
0.417405
0.583515
0.811883
0.836885
0.673469
0.606815
1
1
1
0.917286
0.731532
0.609124
0.518515
0.446075
0.3874
0.338047
0.303509
0.273736
0.00468899
0.00451433
0.00436046
0.00422777
0.00410244
0.00395739
0.00379499
0.00360286
0.00334138
0.00320225
0.00344409
0.00338966
0.00189878
0.000377757
0.00143213
0.00532556
0.0192222
0.0485169
0.111431
0.203223
0.307146
0.389817
0.436737
0.527878
0.788939
1
0.867009
0.558026
0.597548
1
1
1
0.916582
0.734417
0.613841
0.525102
0.454522
0.397115
0.348798
0.316449
0.284722
0.00391825
0.00379751
0.00367694
0.00357902
0.00349007
0.00339441
0.00328242
0.00315777
0.00301352
0.00281521
0.00270294
0.00287003
0.00298455
0.0020316
0.000292702
0.00035919
0.00226151
0.0026263
0.0243883
0.0787381
0.160706
0.267039
0.385491
0.529649
0.802064
1
0.897317
0.586054
0.545238
1
1
1
0.895576
0.727197
0.61164
0.523602
0.453921
0.396766
0.349282
0.315735
0.280564
0.00328735
0.00320209
0.00310365
0.00302517
0.00295803
0.00288705
0.00280644
0.00271156
0.00260809
0.00249326
0.00234002
0.00223811
0.00239286
0.0025404
0.00215812
0.000859229
0.000227532
0.00018209
0.00375879
0.0260458
0.061667
0.142936
0.257976
0.41834
0.654285
0.886143
0.827284
0.597246
0.365065
0.962324
1
1
0.872222
0.716873
0.60531
0.5206
0.450381
0.390564
0.341237
0.301402
0.26152
0.00276893
0.00270903
0.00262644
0.00256084
0.00250787
0.00245018
0.00238409
0.00230969
0.00222029
0.00212175
0.00201389
0.00188277
0.00178866
0.00191368
0.00214016
0.00209761
0.00125852
0.00032449
1.84233e-05
0
0.0223196
0.0556413
0.141722
0.2753
0.461164
0.637798
0.66682
0.539214
0.366721
0.760986
1
1
0.882133
0.734573
0.618741
0.528963
0.455667
0.390814
0.335027
0.283823
0.232556
0.00234169
0.00230061
0.00223131
0.00217687
0.00213478
0.00208818
0.00203263
0.00196776
0.00189219
0.00179819
0.00168867
0.0015666
0.00142475
0.00130605
0.00144481
0.00181755
0.00194877
0.00129239
0.000104639
5.25118e-05
0
0.0203924
0.0527384
0.152681
0.294137
0.431467
0.493481
0.462508
0.453658
0.665312
0.918721
1
0.954518
0.814997
0.685336
0.579135
0.492836
0.419119
0.352923
0.291625
0.226874
0.00198827
0.0019618
0.00190494
0.00186162
0.00183009
0.00179506
0.00175124
0.00169825
0.00163592
0.00155794
0.0014579
0.0013299
0.0011711
0.000960389
0.000703363
0.0010108
0.00154381
0.00186583
0.00131715
0.000194707
6.61733e-05
0
0.0191886
0.0515001
0.155811
0.270612
0.351212
0.387336
0.441244
0.590081
0.806879
1
1
0.991094
0.847908
0.712567
0.599569
0.505984
0.424503
0.350237
0.274853
0.00169673
0.00168171
0.00163653
0.00160408
0.00158283
0.00155932
0.00152904
0.00149167
0.00144618
0.00139314
0.00132517
0.00123538
0.00111628
0.000966501
0.000784635
0.000650963
0.000913031
0.00139893
0.00180519
0.00142903
0.000218682
7.29232e-05
0
0.0165509
0.0426163
0.130567
0.220213
0.294696
0.369852
0.480903
0.646213
0.86339
1
1
1
1
0.854932
0.712875
0.594587
0.491272
0.394053
0.00146517
0.00145867
0.00142384
0.00140131
0.00138922
0.00137609
0.00135867
0.00133704
0.00130983
0.00127973
0.00124462
0.00120067
0.00114536
0.00108029
0.00102232
0.000995684
0.00100844
0.00110432
0.00140688
0.0017484
0.0014346
0.000298458
0.000107054
0
0.0122546
0.0281366
0.0893127
0.165907
0.248934
0.343409
0.460909
0.615481
0.824673
1
1
1
1
1
1
0.826058
0.666871
0.00128379
0.00128334
0.0012571
0.00124254
0.00123752
0.00123238
0.00122481
0.00121531
0.00120243
0.00118815
0.00117555
0.00116079
0.00114333
0.00112367
0.00110656
0.00110542
0.00112521
0.00115563
0.0012285
0.00145292
0.00169277
0.00138791
0.00045601
0.000142336
0
0.00706827
0.00941301
0.0472815
0.105153
0.180755
0.27091
0.37698
0.506164
0.673445
0.906908
1
1
1
1
1
1
0.00113783
0.00114149
0.001122
0.00111348
0.00111357
0.00111419
0.00111365
0.00111265
0.00111026
0.00110683
0.00110677
0.00110843
0.00111018
0.00111278
0.00111684
0.00112658
0.00114942
0.00118154
0.00121351
0.0012858
0.0014817
0.00164095
0.00137548
0.000462908
0.000149508
0
0.0015062
0.0130803
0.0182922
0.0481985
0.0997249
0.168765
0.251686
0.347972
0.461551
0.60118
0.783589
1
1
1
1
0.00101692
0.00102326
0.00100906
0.00100502
0.00100871
0.00101324
0.00101754
0.00102214
0.00102666
0.00103014
0.00103725
0.00104839
0.00106068
0.00107383
0.00108871
0.00110589
0.00112851
0.00115921
0.00119256
0.001222
0.00130206
0.00145817
0.00158801
0.00140607
0.000524229
0.000179675
0
0
0.00511514
0.0132434
0.0160556
0.0364841
0.0734415
0.124988
0.187427
0.257908
0.335598
0.422073
0.520813
0.636789
0.77685
0.000914351
0.000922538
0.000912547
0.000911764
0.000917866
0.000925014
0.00093254
0.000940724
0.000949625
0.0009577
0.000968527
0.000984234
0.00100191
0.00102039
0.00104041
0.00106182
0.00108551
0.0011129
0.00114517
0.0011745
0.00120818
0.00127965
0.00141032
0.0015009
0.00146879
0.000790253
0.000249931
3.34879e-05
0
0
0.00444147
0.0101904
0.00848222
0.0225105
0.0410373
0.0690954
0.105414
0.147247
0.19237
0.23955
0.287587
0.000825986
0.000835242
0.000828531
0.000830159
0.000837872
0.000846789
0.000856367
0.000866872
0.000878374
0.000889734
0.00090257
0.000919799
0.000939636
0.000960613
0.000982645
0.0010057
0.00102993
0.00105547
0.00108388
0.00111269
0.00114293
0.00117994
0.00123023
0.00132656
0.00142615
0.00140473
0.00118667
0.000379367
0.000155653
3.30127e-05
0
0
0.00131473
0.0062127
0.0114582
0.0105287
0.0208858
0.0317776
0.0442592
0.0607731
0.0809228
0.00074862
0.000758658
0.000754494
0.000757863
0.000766524
0.000776546
0.000787276
0.00079915
0.000811961
0.000825145
0.000838917
0.000856468
0.000877024
0.000898812
0.000921182
0.000944259
0.000967876
0.000992132
0.00101745
0.00104279
0.00107199
0.00110353
0.00113243
0.00117309
0.00123218
0.00132189
0.00136377
0.00127891
0.00107614
0.000412017
0.000153541
5.14981e-05
8.24374e-06
0
0
0.00174424
0.00523047
0.00875646
0.00535133
0.0124802
0.0194305
0.000680387
0.000690682
0.000688538
0.000693169
0.000702395
0.000712971
0.000724338
0.000736879
0.000750288
0.000764316
0.000778408
0.000795572
0.000815913
0.000837312
0.000859107
0.000881416
0.000903905
0.000926667
0.000949801
0.000972091
0.00099759
0.0010263
0.00105307
0.00107857
0.00110732
0.00114768
0.00120226
0.00126239
0.00129041
0.00121744
0.00106077
0.000718728
0.00011135
8.2267e-05
4.59378e-05
1.49529e-05
0
0
0.000386429
0.00212344
0.00425724
0.000619531
0.000629916
0.000629437
0.000634849
0.000644401
0.000655183
0.000666877
0.000679629
0.000693298
0.000707672
0.000721937
0.00073818
0.000757597
0.000777942
0.000798802
0.000819892
0.00084116
0.000862243
0.000883529
0.000903441
0.000925565
0.000950041
0.000973907
0.000996961
0.00101905
0.00104034
0.00106541
0.00109771
0.00113775
0.00118187
0.0012068
0.00118819
0.00110443
0.000942682
0.000708426
0.000226597
9.96754e-05
4.63772e-05
3.59376e-05
2.2606e-05
0
0.000565062
0.000575211
0.000576059
0.000582037
0.000591694
0.000602434
0.00061421
0.000626915
0.000640556
0.000654802
0.000669114
0.000684491
0.000702551
0.000721633
0.000741331
0.000761148
0.000781055
0.000800538
0.000820049
0.000838093
0.000857612
0.000878537
0.000898759
0.00091891
0.000938534
0.000956709
0.000973711
0.000990449
0.00100895
0.001032
0.00105846
0.0010878
0.00111391
0.00112299
0.00110983
0.00105393
0.00095544
0.000811509
0.000629107
0.000392826
0.000128683
0.000515896
0.000525867
0.000527675
0.000533989
0.000543592
0.000554214
0.000565837
0.00057832
0.000591647
0.000605531
0.000619606
0.000634201
0.00065085
0.000668723
0.000687096
0.000705513
0.000723912
0.000741887
0.000759676
0.00077615
0.000793585
0.00081191
0.000829174
0.000846344
0.000863123
0.000879083
0.000893949
0.000907694
0.000920311
0.000932446
0.000944769
0.000958467
0.000974251
0.000991715
0.00100941
0.00102799
0.00103922
0.00103731
0.00102706
0.000985001
0.000954236
0.000471436
0.000480993
0.000483547
0.000490186
0.00049957
0.000510029
0.000521324
0.000533523
0.000546374
0.000559814
0.000573397
0.00058728
0.000602592
0.000619253
0.000636098
0.00065311
0.000669943
0.00068645
0.000702595
0.000717633
0.000733142
0.000749235
0.000764078
0.000778786
0.000793054
0.000806735
0.000819498
0.000831471
0.000842476
0.000852589
0.00086176
0.000870238
0.00087817
0.000886019
0.000894162
0.000903191
0.000913314
0.000922465
0.000936161
0.000933196
0.000960929
0.000430959
0.000440169
0.000443256
0.000450042
0.0004592
0.000469419
0.000480336
0.000492163
0.000504499
0.000517408
0.000530466
0.000543617
0.000557687
0.000573099
0.000588572
0.000604216
0.00061965
0.000634773
0.000649457
0.000663064
0.000676963
0.000691153
0.000704105
0.000716828
0.000729102
0.00074074
0.000751602
0.000761772
0.000771201
0.000779914
0.000787829
0.000795001
0.000801372
0.000807028
0.000812195
0.000816887
0.000821536
0.000824696
0.000832383
0.00082443
0.000846997
0.000394118
0.000402759
0.000406366
0.000413223
0.000422117
0.000432026
0.000442577
0.000453931
0.000465757
0.000478044
0.000490553
0.000502977
0.000515982
0.000530119
0.000544349
0.00055867
0.000572844
0.000586629
0.000600061
0.000612456
0.00062506
0.000637634
0.000649063
0.000660109
0.000670778
0.000680848
0.00069023
0.000698867
0.000706853
0.000714169
0.000720867
0.000726966
0.000732474
0.000737371
0.000741824
0.000745731
0.000749448
0.000751378
0.000757303
0.000747174
0.000767285
0.000360386
0.000368566
0.000372536
0.000379308
0.000388019
0.00039754
0.00040775
0.000418552
0.000429899
0.000441523
0.000453456
0.000465203
0.000477334
0.000490151
0.000503241
0.000516276
0.00052926
0.000541828
0.000554134
0.000565343
0.000576723
0.000587889
0.000598017
0.000607724
0.000617131
0.000625863
0.000633941
0.000641336
0.000648184
0.000654436
0.000660154
0.000665308
0.000669944
0.000674059
0.000677832
0.000681119
0.000684295
0.000685812
0.000691302
0.000680869
0.000700699
0.000329491
0.000337114
0.000341394
0.000348088
0.000356546
0.000365703
0.000375542
0.000385829
0.000396668
0.000407678
0.00041899
0.000430107
0.000441421
0.000453164
0.000465221
0.000477121
0.000488969
0.000500397
0.00051152
0.000521694
0.000531972
0.000541954
0.000550936
0.000559488
0.000567686
0.000575337
0.000582409
0.000588883
0.00059483
0.000600225
0.000605104
0.000609498
0.000613442
0.000616951
0.000620167
0.000622979
0.000625748
0.000626983
0.000632146
0.000621679
0.000641626
0.000301062
0.000308245
0.000312669
0.00031928
0.000327447
0.000336293
0.000345695
0.00035555
0.000365821
0.000376297
0.000386932
0.000397494
0.000408045
0.000418884
0.000429938
0.000440844
0.000451608
0.000462062
0.000472222
0.000481569
0.00049083
0.000499811
0.000507815
0.000515428
0.000522689
0.000529473
0.000535641
0.000541263
0.00054639
0.000551077
0.000555299
0.000559119
0.000562542
0.000565614
0.000568429
0.000570916
0.000573397
0.000574437
0.000579309
0.000568967
0.000589123
0.000274891
0.000281584
0.000286156
0.000292688
0.000300521
0.000309072
0.000318057
0.000327497
0.000337213
0.000347164
0.00035716
0.000367171
0.000376975
0.000386986
0.000397163
0.000407154
0.00041696
0.000426537
0.000435746
0.000444217
0.000452616
0.000460749
0.000467944
0.000474761
0.00048119
0.00048717
0.000492648
0.000497682
0.000502242
0.000506383
0.000510107
0.000513489
0.000516518
0.000519246
0.000521767
0.000524019
0.000526313
0.000527269
0.000531982
0.000521865
0.000542532
0.000250698
0.000256983
0.000261666
0.000268036
0.000275632
0.000283847
0.000292494
0.000301454
0.000310701
0.000320094
0.000329537
0.000338963
0.000348171
0.000357427
0.000366806
0.000375943
0.000384904
0.000393607
0.000402029
0.000409802
0.000417459
0.000424787
0.000431267
0.000437345
0.000443108
0.000448477
0.000453365
0.000457797
0.000461815
0.000465473
0.000468789
0.000471816
0.000474562
0.000477061
0.000479403
0.000481528
0.00048373
0.000484689
0.000489325
0.000479585
0.000500875
0.000228309
0.000234194
0.000238955
0.000245251
0.000252549
0.000260487
0.00026874
0.000277331
0.000286059
0.000294984
0.000303865
0.000312782
0.000321402
0.000330014
0.000338634
0.000347064
0.000355256
0.000363251
0.000370963
0.000378083
0.000385078
0.000391772
0.000397695
0.000403237
0.000408441
0.000413268
0.00041767
0.000421694
0.000425365
0.000428741
0.000431839
0.000434703
0.000437326
0.000439743
0.000442043
0.000444167
0.000446392
0.000447468
0.000452069
0.000442869
0.000464704
0.000207533
0.000213083
0.000217959
0.000224098
0.000231162
0.000238818
0.000246754
0.000254907
0.000263216
0.00027164
0.000280049
0.000288406
0.000296553
0.000304589
0.000312573
0.000320334
0.000327877
0.000335194
0.000342283
0.000348835
0.000355281
0.000361369
0.000366759
0.000371767
0.00037649
0.000380866
0.000384883
0.000388558
0.000391943
0.000395063
0.000397957
0.00040065
0.000403156
0.000405492
0.000407753
0.000409865
0.000412111
0.000413293
0.000417873
0.000409173
0.000431627
0.000188206
0.000193508
0.000198482
0.000204558
0.000211444
0.000218771
0.000226391
0.000234145
0.000242051
0.000249985
0.00025793
0.000265765
0.00027344
0.000280896
0.000288277
0.00029545
0.000302395
0.000309099
0.000315624
0.000321633
0.000327519
0.000333096
0.000338089
0.000342705
0.000347044
0.000351073
0.000354801
0.000358235
0.000361429
0.000364411
0.000367222
0.000369882
0.000372406
0.00037481
0.000377177
0.000379432
0.00038184
0.000383274
0.000387955
0.000379979
0.00040308
0.000170067
0.000175194
0.000180352
0.000186424
0.000193144
0.000200301
0.000207626
0.000215033
0.000222489
0.000229983
0.000237438
0.000244802
0.000252008
0.000259021
0.000265897
0.000272578
0.000278995
0.000285189
0.000291184
0.000296773
0.000302258
0.000307447
0.000312089
0.000316385
0.000320425
0.000324201
0.000327707
0.000330963
0.000334011
0.000336881
0.000339608
0.000342228
0.000344751
0.000347192
0.000349619
0.000351975
0.000354485
0.000356128
0.000360804
0.000353674
0.000377214
0.000152889
0.000157898
0.000163199
0.000169326
0.000176047
0.000183044
0.000190195
0.000197323
0.000204461
0.000211523
0.000218539
0.000225409
0.000232142
0.000238614
0.000244952
0.000251152
0.000257105
0.00026283
0.000268375
0.00027353
0.000278556
0.000283327
0.000287656
0.000291682
0.000295485
0.000299069
0.000302437
0.000305603
0.000308609
0.000311489
0.000314278
0.000317004
0.000319683
0.000322327
0.000324994
0.000327625
0.000330434
0.000332463
0.000337322
0.000331082
0.000355078
0.000136859
0.000141841
0.000147315
0.000153452
0.000160023
0.000166898
0.000173867
0.000180783
0.000187632
0.000194399
0.000201075
0.000207619
0.000214025
0.000220223
0.000226255
0.000232119
0.000237674
0.000243025
0.000248225
0.000253139
0.000257964
0.000262572
0.000266767
0.00027067
0.000274367
0.000277874
0.000281174
0.000284285
0.000287239
0.000290083
0.00029285
0.000295582
0.000298289
0.000301003
0.000303776
0.00030658
0.000309558
0.000311898
0.000316789
0.0003118
0.00033606
0.000122419
0.000127771
0.000133592
0.000139821
0.000146262
0.000152821
0.000159343
0.000165831
0.000172231
0.000178585
0.000184813
0.000190891
0.000196758
0.000202363
0.000207799
0.000213167
0.000218285
0.000223174
0.000227858
0.000232259
0.000236543
0.000240669
0.000244534
0.000248211
0.000251735
0.000255136
0.000258412
0.000261583
0.000264659
0.000267673
0.00027065
0.000273622
0.000276594
0.000279587
0.000282651
0.000285749
0.000289036
0.000291723
0.000296806
0.000292486
0.000317031
0.000108355
0.000114394
0.00012103
0.000127865
0.000134632
0.000141217
0.000147536
0.000153589
0.000159446
0.000165219
0.000170955
0.000176676
0.000182366
0.000187976
0.000193465
0.000198761
0.00020383
0.000208757
0.000213579
0.000218195
0.00022271
0.000227024
0.000231047
0.000234837
0.000238456
0.000241942
0.000245296
0.00024854
0.000251705
0.000254825
0.000257922
0.00026103
0.000264173
0.000267381
0.000270698
0.000274118
0.000277744
0.000280991
0.000286282
0.000283828
0.000308296
9.12147e-05
9.7168e-05
0.000104382
0.000112048
0.000119751
0.000127259
0.000134415
0.000141108
0.00014735
0.000153165
0.000158602
0.000163673
0.00016842
0.000172818
0.00017697
0.000181008
0.000184874
0.000188561
0.000192182
0.000195729
0.000199325
0.00020293
0.000206461
0.000209924
0.000213346
0.000216756
0.000220155
0.000223547
0.000226932
0.000230324
0.000233734
0.000237171
0.000240633
0.000244131
0.000247697
0.000251299
0.000255074
0.000258386
0.000263685
0.000261142
0.00028553
7.3465e-05
7.98316e-05
8.80463e-05
9.63121e-05
0.000104134
0.000111472
0.000118372
0.000124903
0.000131197
0.000137364
0.000143478
0.000149588
0.00015574
0.000161943
0.000168283
0.000174569
0.000180535
0.000186126
0.000191364
0.000196249
0.000200883
0.000205266
0.000209382
0.000213264
0.000216981
0.000220585
0.000224109
0.000227591
0.000231074
0.000234596
0.000238188
0.000241885
0.000245709
0.000249683
0.000253841
0.000258198
0.000262796
0.000267278
0.000273341
0.000273741
0.000297878
7.34878e-05
8.28251e-05
9.08543e-05
9.77596e-05
0.000104124
0.000110507
0.000117002
0.000123468
0.0001296
0.000135118
0.000139778
0.000143418
0.000146012
0.000147671
0.000148387
0.000148363
0.000148369
0.000149015
0.00015048
0.000152628
0.000155317
0.000158338
0.000161601
0.000165003
0.0001685
0.000172068
0.000175689
0.000179346
0.00018304
0.000186771
0.000190545
0.000194362
0.000198237
0.000202171
0.000206173
0.000210214
0.000214427
0.000218321
0.000223859
0.000222848
0.000246483
0.000106753
0.00013049
0.000149307
0.000163603
0.000173985
0.000181001
0.000185242
0.000187289
0.000187761
0.000187271
0.000186406
0.000185672
0.000185435
0.000185844
0.000186962
0.000189055
0.000191951
0.000195097
0.000198234
0.000201264
0.000204129
0.000206928
0.000209534
0.000211988
0.000214341
0.000216635
0.000218918
0.000221244
0.000223669
0.000226245
0.000229022
0.000232043
0.000235347
0.000238968
0.000242945
0.000247299
0.000252067
0.000256987
0.00026348
0.000264979
0.000290855
0.087235
0.0793463
0.0807046
0.0622846
0.0230154
0.0116079
0.00477546
0.00345396
0.00348784
0.00358219
0.00362562
0.00369694
0.0037183
0.00370692
0.00367945
0.0036202
0.00354675
0.00345848
0.00335997
0.00325533
0.00314072
0.00302333
0.00290138
0.00277835
0.00265293
0.00252951
0.00241008
0.00229049
0.00217263
0.00205577
0.00193971
0.00182503
0.00171196
0.00160106
0.00148732
0.00137388
0.00125796
0.00114417
0.00104102
0.000936339
0.000841923
0.000757165
0.000668427
0.000618011
0.000583661
0.000575157
0.000591923
0.00061779
0.000633839
0.000629338
0.00063733
0.000629507
0.000622834
0.000614498
0.000601779
0.000587349
0.000571378
0.000555671
0.000536606
0.000519345
0.000497651
0.000480007
0.000457917
0.000436165
0.000416172
0.000393161
0.000374651
0.000353438
0.000334337
0.000314795
0.000298589
0.000278946
0.000270032
0.000247806
0.111626
0.100796
0.0903062
0.0803232
0.0424435
0.0172719
0.00806626
0.00357547
0.00352739
0.00359383
0.00358748
0.00361503
0.00362354
0.00360301
0.0035735
0.0035166
0.00344642
0.00336333
0.00326936
0.00317087
0.00306149
0.00294704
0.00282854
0.00270821
0.00258474
0.00246302
0.00234682
0.00223069
0.00211659
0.00200427
0.00189272
0.00178418
0.00167712
0.00157154
0.0014627
0.00135391
0.00123874
0.00112694
0.00102625
0.00092494
0.000832319
0.000752213
0.000668137
0.000622334
0.000587701
0.000575939
0.000587767
0.000605895
0.000621286
0.000609935
0.000616864
0.000607365
0.000600154
0.000592469
0.000580474
0.000566648
0.000551285
0.000536179
0.000517712
0.000501379
0.000480161
0.000463234
0.000442358
0.000420852
0.000402119
0.000379754
0.00036213
0.000342035
0.000323695
0.00030489
0.000289883
0.000270796
0.000263183
0.000241856
0.123378
0.111678
0.10393
0.0898287
0.0655178
0.024509
0.0147242
0.00482939
0.00349972
0.00365432
0.00361114
0.0035664
0.00354566
0.00351004
0.00346817
0.00340931
0.00333876
0.00325813
0.00316832
0.00307393
0.002971
0.00286043
0.00274662
0.00263002
0.00250986
0.00239063
0.00227736
0.00216503
0.00205484
0.0019477
0.00184207
0.00174068
0.00164063
0.00154254
0.0014418
0.00134018
0.00123062
0.00112423
0.00102744
0.000930705
0.00084311
0.000770176
0.000692392
0.00065155
0.000614574
0.000598766
0.000603107
0.000605006
0.000614604
0.000599282
0.000598209
0.00058675
0.000577222
0.000569116
0.000558431
0.00054359
0.000529521
0.000514565
0.000497514
0.000481329
0.000461766
0.00044402
0.000425027
0.000404356
0.000386199
0.000365439
0.000347769
0.000329359
0.000311914
0.000294102
0.00028006
0.000261811
0.000255621
0.000235221
0.132019
0.121767
0.111084
0.104884
0.0844832
0.0399878
0.0242906
0.0101145
0.00332928
0.00364525
0.00367273
0.00356346
0.00350239
0.00344631
0.00338829
0.00332353
0.00325015
0.00316987
0.00308179
0.00298967
0.00289106
0.00278401
0.00267453
0.00256162
0.00244529
0.00232846
0.00221713
0.00210831
0.00200124
0.00189858
0.00179827
0.00170307
0.00160905
0.00151598
0.00142243
0.00132753
0.00122551
0.00112577
0.00103241
0.000940446
0.000858301
0.000789808
0.000719771
0.000679531
0.000643668
0.000621864
0.000616382
0.000607513
0.000609062
0.000590558
0.000581256
0.000567443
0.000555253
0.00054592
0.000536059
0.000520716
0.0005075
0.000492927
0.000477101
0.000461328
0.000443185
0.000425275
0.000407811
0.000388174
0.000370648
0.000351382
0.00033399
0.000317029
0.000300555
0.000283722
0.000270661
0.000253145
0.000248422
0.00022879
0.147206
0.140896
0.122568
0.117016
0.101076
0.062939
0.0340093
0.0196956
0.00519463
0.00321034
0.00371222
0.00360207
0.00349057
0.00340999
0.0033346
0.00326151
0.00318329
0.00310179
0.00301341
0.00292194
0.00282558
0.00272094
0.00261474
0.00250508
0.00239257
0.00227811
0.00216809
0.00206246
0.00195821
0.00185918
0.00176335
0.00167296
0.00158375
0.00149285
0.00140423
0.00131539
0.00122082
0.00112813
0.00103815
0.000952234
0.000874732
0.000808426
0.000746269
0.000703861
0.00066964
0.000642104
0.00062586
0.000608789
0.000601844
0.000580631
0.000564924
0.000548771
0.000534456
0.000523489
0.000513446
0.000498845
0.00048575
0.000471689
0.00045664
0.000441552
0.000424431
0.000407107
0.000390935
0.000372384
0.000355724
0.000337748
0.000321039
0.000305305
0.000289852
0.000273936
0.000261937
0.000245018
0.000241758
0.000222737
0.166201
0.161623
0.14011
0.126035
0.116774
0.0858169
0.0441432
0.0328182
0.0130077
0.00252311
0.00341463
0.00366024
0.00351306
0.00339894
0.00330491
0.00322168
0.00313716
0.00305274
0.00296283
0.00287048
0.0027749
0.00267152
0.0025673
0.00246014
0.00235109
0.00223931
0.00213047
0.00202769
0.00192659
0.00183096
0.0017389
0.00165228
0.00156683
0.00147682
0.00139121
0.0013071
0.00121925
0.00113334
0.00104796
0.000968042
0.000895153
0.000830595
0.000774605
0.00073043
0.000696204
0.000664055
0.000638665
0.000612991
0.000596925
0.000572965
0.000551732
0.00053296
0.000516634
0.000503591
0.000492532
0.000478693
0.000465244
0.000451418
0.000436751
0.000422246
0.000406027
0.000389474
0.000374507
0.000357035
0.000341322
0.000324606
0.000308751
0.000294142
0.000279708
0.000264656
0.000253768
0.000237379
0.000235557
0.000217037
0.188289
0.182562
0.160572
0.138348
0.129412
0.106839
0.0621437
0.0459485
0.0256141
0.00680874
0.00248463
0.00357006
0.00357465
0.00342075
0.00330066
0.00320474
0.00311248
0.00302324
0.00293074
0.00283614
0.00273991
0.00263669
0.00253305
0.00242723
0.00232077
0.00221169
0.00210433
0.00200398
0.00190636
0.00181414
0.00172528
0.00164159
0.00155881
0.0014696
0.00138572
0.0013048
0.00122249
0.00114269
0.00106273
0.000988422
0.00092021
0.000857632
0.000805637
0.000760628
0.000724491
0.000689028
0.000656923
0.000623031
0.000597576
0.000570476
0.000544145
0.000522212
0.000503561
0.000488026
0.000475186
0.000461305
0.000447132
0.000432974
0.000418293
0.000403959
0.000388564
0.000372599
0.00035872
0.000342329
0.000327497
0.000312058
0.000297073
0.000283526
0.000270091
0.000255858
0.000246077
0.000230191
0.000229766
0.00021165
0.213406
0.203772
0.181315
0.155619
0.139615
0.125193
0.0862259
0.0557506
0.0416169
0.0173339
0.00251396
0.00286731
0.00359947
0.00349125
0.00332925
0.00321318
0.00311126
0.00301528
0.00291874
0.00282069
0.00272223
0.00261798
0.00251345
0.00240753
0.00230227
0.00219538
0.0020896
0.00199112
0.00189682
0.00180779
0.00172169
0.00164007
0.001559
0.00147096
0.00138802
0.00130914
0.00123093
0.00115628
0.0010815
0.00101229
0.000948372
0.000888082
0.000838203
0.000792616
0.000753482
0.000715464
0.000678545
0.000638747
0.000604767
0.000574114
0.000543278
0.000517763
0.000496227
0.000477813
0.000462346
0.000447513
0.000432212
0.000417079
0.000401952
0.000387283
0.000372472
0.000356839
0.00034382
0.000328501
0.000314424
0.00030019
0.000286048
0.000273484
0.000261032
0.000247579
0.00023887
0.000223465
0.000224389
0.000206569
0.239036
0.22452
0.201599
0.175435
0.151289
0.138734
0.109616
0.0650485
0.0566563
0.0326555
0.0104725
0.00151651
0.00316596
0.00356261
0.00340254
0.00325138
0.00313457
0.00303034
0.00292805
0.00282529
0.00272304
0.00261651
0.00250972
0.00240221
0.0022966
0.002191
0.00208655
0.00198918
0.0018974
0.00181083
0.00172701
0.00164676
0.0015668
0.00148032
0.00139811
0.00132053
0.00124522
0.00117452
0.00110408
0.00103905
0.000978702
0.000920679
0.000871629
0.000825278
0.000782901
0.000742448
0.000702018
0.000658644
0.000618171
0.000583682
0.000549124
0.00051997
0.000495163
0.000473496
0.000454662
0.00043792
0.000421081
0.00040439
0.000388313
0.00037278
0.000358152
0.000342589
0.000330087
0.00031573
0.000302268
0.000289089
0.000275741
0.000264067
0.000252565
0.000239855
0.000232167
0.000217224
0.00021944
0.00020181
0.258314
0.241745
0.220912
0.196759
0.168786
0.148751
0.128259
0.0805807
0.0654747
0.0505888
0.0234419
0.00510066
0.00207875
0.00339835
0.00350076
0.00333101
0.00318634
0.00306999
0.00296032
0.0028514
0.00274376
0.0026335
0.00252321
0.00241285
0.00230537
0.00219977
0.00209603
0.00199881
0.00190818
0.00182287
0.00174049
0.00166102
0.00158184
0.00149715
0.00141587
0.00133916
0.00126603
0.00119804
0.0011309
0.00106866
0.00101086
0.000954731
0.000905713
0.000858424
0.000813207
0.00077028
0.000727115
0.000681712
0.000636943
0.000598776
0.000561069
0.000528611
0.000500309
0.000475277
0.000452478
0.000433013
0.000414048
0.000395509
0.000377852
0.000361045
0.000346008
0.000330243
0.00031782
0.000304132
0.000291127
0.000278804
0.000266193
0.000255297
0.000244677
0.000232667
0.000225952
0.000211458
0.000214909
0.000197386
0.265682
0.251389
0.237946
0.220478
0.195774
0.164849
0.142895
0.0997254
0.06274
0.0664505