/*--------------------------------*- C++ -*----------------------------------*\
| =========                 |                                                 |
| \\      /  F ield         | OpenFOAM: The Open Source CFD Toolbox           |
|  \\    /   O peration     | Version:  2312                                  |
|   \\  /    A nd           | Website:  www.openfoam.com                      |
|    \\/     M anipulation  |                                                 |
\*---------------------------------------------------------------------------*/
FoamFile
{
    version     2.0;
    format      ascii;
    arch        "LSB;label=32;scalar=64";
    class       volSymmTensorField;
    location    "100";
    object      turbulenceProperties:R;
}
// * * * * * * * * * * * * * * * * * * * * * * * * * * * * * * * * * * * * * //

dimensions      [0 2 -2 0 0 0 0];

internalField   nonuniform List<symmTensor> 
11040
(
(0.116197 0.0166957 4.25553e-22 0.0972694 -1.82471e-21 0.10908)
(0.271664 0.0289396 7.77014e-21 0.168849 3.21656e-20 0.232184)
(0.389082 0.0184089 6.81404e-20 0.192519 1.64957e-19 0.306648)
(0.288204 -0.000812625 -4.60029e-20 0.133068 -3.02131e-21 0.212522)
(0.0172224 -0.000178273 -2.49819e-22 0.01373 5.14332e-21 0.0152894)
(0.00569574 0.000166991 -1.81927e-20 0.00407807 1.48196e-20 0.00516234)
(0.033234 0.012067 5.03777e-20 0.0555027 -3.84415e-19 0.0426192)
(0.051583 0.0220042 9.70174e-20 0.0851564 -1.29684e-20 0.0666382)
(0.0654179 0.0293329 5.22896e-20 0.103122 -9.0352e-21 0.0826221)
(0.0663918 0.0298741 4.37567e-20 0.0999477 7.00751e-20 0.081444)
(0.069898 0.0315629 -3.96814e-20 0.10054 1.64209e-19 0.083238)
(0.0744468 0.0337769 -5.37683e-20 0.100652 1.23488e-19 0.0865614)
(0.0771766 0.0346977 1.30787e-20 0.097816 -7.34541e-20 0.0878927)
(0.0762278 0.033807 1.36347e-20 0.0925133 6.71943e-20 0.0851586)
(0.0681506 0.0292957 -3.55284e-21 0.0807084 6.07715e-21 0.0743154)
(0.0717983 0.0308883 1.28669e-21 0.083205 -7.87229e-20 0.0764745)
(0.0876378 0.0384611 2.30478e-20 0.0987117 -1.90253e-21 0.0918866)
(0.10115 0.0452195 -4.90015e-21 0.112537 1.51181e-19 0.105597)
(0.0781467 0.0352001 -1.14812e-20 0.090779 -1.65923e-21 0.0827241)
(0.0315659 0.0135756 1.24755e-21 0.0526932 -1.67943e-20 0.0381769)
(0.0692368 -0.0319458 2.87609e-21 0.105272 1.09048e-20 0.080707)
(0.20134 -0.0954989 8.28575e-21 0.252818 1.61199e-20 0.220196)
(0.407501 -0.194236 -1.61404e-20 0.484615 -1.41777e-20 0.440215)
(0.572568 -0.272488 6.95696e-21 0.664113 4.21621e-20 0.616285)
(0.63367 -0.301171 -4.03429e-20 0.728325 -4.43744e-20 0.681587)
(0.605622 -0.288249 -4.03335e-21 0.69927 -1.14741e-19 0.653535)
(0.557149 -0.266351 -1.68831e-20 0.653186 -5.22246e-20 0.605287)
(0.493122 -0.236401 -6.37144e-20 0.584951 1.66471e-20 0.538306)
(0.381938 -0.182567 -2.61761e-20 0.452625 -4.09815e-20 0.416541)
(0.276576 -0.131356 2.42443e-20 0.32227 -1.04752e-19 0.299359)
(0.136514 -0.0636445 3.09768e-20 0.155171 8.38526e-20 0.147118)
(0.111852 -0.053765 5.11667e-20 0.13646 2.50446e-20 0.125649)
(0.154184 -0.0762145 9.41119e-20 0.212821 2.41324e-19 0.182978)
(0.263409 -0.131058 -7.04052e-21 0.377638 1.29379e-19 0.31822)
(0.558667 -0.279595 5.62081e-20 0.805894 -1.20883e-20 0.67766)
(0.817935 -0.40991 2.13996e-19 1.17814 1.78158e-19 0.993469)
(1.17769 -0.590839 -5.95552e-20 1.69853 9.62834e-20 1.43293)
(1.61611 -0.811543 4.05118e-20 2.3344 1.75084e-19 1.97021)
(2.06898 -1.03975 -6.08602e-19 2.99878 -3.74431e-19 2.52924)
(2.49754 -1.25508 -9.56213e-20 3.60163 -4.02019e-19 3.04543)
(2.37626 -1.19584 1.26806e-19 3.45546 -4.1749e-20 2.91889)
(0.0246431 -0.00214585 -2.14635e-22 0.0209624 9.11347e-24 0.0221875)
(0.0281862 -0.00327327 3.44405e-21 0.0265277 1.04033e-21 0.0255334)
(0.0541729 -0.00558597 -5.00129e-20 0.0376092 -1.08848e-19 0.0401436)
(0.202872 -0.00329509 -1.62293e-20 0.0927003 -3.85154e-20 0.143905)
(0.315789 -0.0138288 7.59773e-21 0.137495 -6.34061e-20 0.23074)
(0.351181 -0.0341549 9.71866e-20 0.148667 -3.42995e-19 0.250861)
(0.710208 -0.115828 -5.24304e-19 0.310877 1.79271e-18 0.523203)
(0.528645 -0.121067 -6.29731e-19 0.26322 1.67841e-18 0.410818)
(0.290787 -0.0749528 -9.1549e-20 0.155058 -2.75612e-19 0.230732)
(0.190067 -0.0540947 -1.00587e-19 0.108291 2.7226e-20 0.157394)
(0.142667 -0.0463699 3.77777e-19 0.0917304 -9.82524e-19 0.118818)
(0.115938 -0.0412743 -1.83254e-20 0.0835149 -8.66531e-20 0.0970595)
(0.0899603 -0.0330346 -1.49191e-19 0.0664242 5.56007e-19 0.0777387)
(0.0713879 -0.0256293 -1.04939e-19 0.0504766 4.81614e-20 0.0657512)
(0.0705916 -0.0253306 -3.58243e-20 0.0501694 -1.47653e-19 0.06714)
(0.0865258 -0.0327493 1.10371e-22 0.0651081 4.69669e-19 0.0811408)
(0.10605 -0.0415931 -2.01506e-20 0.0835686 1.6518e-19 0.0999731)
(0.118242 -0.0486894 -1.1223e-20 0.099791 -4.687e-19 0.118244)
(0.119046 -0.0525121 -2.22896e-20 0.115402 -1.86016e-20 0.134533)
(0.121373 -0.0586046 -1.71372e-21 0.149387 6.80984e-20 0.157654)
(0.124609 -0.0629357 -9.04546e-21 0.18933 -2.68893e-20 0.177594)
(0.108034 -0.0534766 -3.41188e-20 0.195223 -8.09333e-20 0.162897)
(0.0800918 -0.0371051 1.03452e-19 0.158537 7.63766e-20 0.121782)
(0.0479466 -0.0204701 1.73217e-20 0.0989082 -8.34467e-20 0.0714952)
(0.0293997 -0.0136569 2.79815e-20 0.0527324 6.58083e-20 0.0387042)
(0.0374402 -0.0174971 -4.10571e-20 0.0423039 2.13653e-19 0.0384797)
(0.0378835 -0.0137965 -5.54477e-21 0.0281612 1.18539e-19 0.0318571)
(0.0512498 0.00100416 1.94426e-19 0.0196292 2.55503e-20 0.0348661)
(0.118192 0.0215724 -4.25676e-21 0.0538817 8.2254e-20 0.0861886)
(0.174521 0.0384896 -8.10659e-20 0.0862025 1.76106e-19 0.129972)
(0.15786 0.0404235 -1.59387e-19 0.0854911 -3.89189e-19 0.118894)
(0.0300125 0.0138689 -2.69571e-19 0.032942 -5.83862e-19 0.03034)
(0.0577454 -0.0165287 -3.50299e-19 0.142506 -1.21997e-18 0.10433)
(0.106714 -0.0356952 -2.04454e-19 0.254397 -4.74553e-19 0.187875)
(0.144385 -0.0465289 1.3423e-19 0.346186 -4.65625e-21 0.251301)
(0.170884 -0.052898 -8.67982e-19 0.411898 -7.81275e-19 0.294958)
(0.19254 -0.0588458 7.55032e-19 0.463028 -3.00866e-19 0.327759)
(0.206667 -0.0665871 -7.99498e-19 0.488507 -2.12344e-19 0.34419)
(0.218019 -0.0790981 5.66109e-19 0.495065 9.4418e-19 0.351037)
(0.221097 -0.0969079 6.4807e-19 0.443147 8.35819e-19 0.321044)
(0.327473 -0.167146 -1.21862e-18 0.479027 9.48232e-20 0.431083)
(0.0138665 -0.00130406 -3.04303e-23 0.0117557 -2.98977e-24 0.0127644)
(0.00884169 -0.00113599 -4.37524e-21 0.00957155 -5.91205e-21 0.00937194)
(0.00603317 -0.000625614 6.75073e-21 0.00730199 1.25228e-20 0.0067939)
(0.0108359 -0.000691469 3.37445e-20 0.0068984 3.19897e-20 0.00875174)
(0.0899991 -0.00271463 -6.47213e-21 0.0435374 -7.63487e-21 0.0662649)
(0.203318 -0.0121632 3.51841e-21 0.0887783 5.60456e-20 0.146796)
(0.582147 -0.0635035 1.18909e-19 0.237956 7.07686e-20 0.412373)
(0.907498 -0.140925 3.16124e-19 0.39445 -8.39872e-19 0.650822)
(0.830032 -0.177967 -1.54197e-19 0.402423 -9.64006e-20 0.623127)
(0.518828 -0.137405 1.52159e-19 0.282142 -4.19441e-19 0.409778)
(0.353471 -0.106119 -3.88536e-19 0.211441 8.32462e-19 0.286997)
(0.292802 -0.0992202 5.70524e-19 0.199533 -1.63788e-18 0.239851)
(0.237166 -0.0878126 6.00172e-21 0.182669 -5.07647e-20 0.198173)
(0.172205 -0.0686303 1.26881e-19 0.143665 -7.16301e-19 0.152777)
(0.134181 -0.0556767 1.47891e-20 0.115474 7.69013e-19 0.12708)
(0.141105 -0.0587759 -6.61187e-20 0.122232 -2.92199e-19 0.133834)
(0.169049 -0.0715868 9.76177e-21 0.152716 -4.82885e-19 0.158819)
(0.177164 -0.0804083 5.11603e-20 0.1834 -3.24057e-19 0.176517)
(0.156807 -0.0784992 8.74152e-21 0.211426 -9.52724e-21 0.186033)
(0.132094 -0.0630374 2.69894e-21 0.254365 1.74802e-20 0.201714)
(0.124653 -0.0386424 4.02364e-20 0.303174 1.70194e-20 0.224366)
(0.119565 -0.0146041 6.42532e-20 0.313846 1.27586e-20 0.222703)
(0.0931806 0.00618567 -3.94404e-20 0.245293 -9.4453e-20 0.170302)
(0.0639518 0.0232213 5.46125e-21 0.145684 -4.41079e-20 0.103799)
(0.0718481 0.0350704 -1.36153e-19 0.0884284 -5.33815e-20 0.0799811)
(0.12032 0.043319 3.3722e-19 0.085933 -8.3309e-20 0.104635)
(0.201883 0.0587062 1.99349e-19 0.11788 4.19351e-20 0.16163)
(0.344532 0.0950004 -3.74471e-19 0.193357 -2.39629e-19 0.271702)
(0.495445 0.135244 -2.04121e-20 0.276162 5.75375e-20 0.389363)
(0.498457 0.136051 1.27637e-19 0.277912 2.88165e-19 0.391385)
(0.295477 0.088221 1.80829e-19 0.177109 2.28373e-19 0.235667)
(0.0619115 0.0291537 3.81932e-20 0.119414 9.73962e-19 0.0917462)
(0.126321 -0.000192843 4.64464e-19 0.335616 2.0418e-19 0.236799)
(0.194909 -0.0105933 7.33305e-19 0.516624 2.72509e-20 0.364905)
(0.247018 -0.0111896 -3.89549e-19 0.654776 -1.94996e-19 0.461177)
(0.283056 -0.0080516 -9.51139e-19 0.750609 7.80692e-19 0.527352)
(0.304196 -0.00507533 -1.86379e-18 0.806384 -3.96232e-20 0.564972)
(0.303938 -0.00682926 2.6711e-18 0.804766 -8.79635e-20 0.562162)
(0.286852 -0.0208197 4.84962e-19 0.756047 -4.48958e-19 0.52781)
(0.234061 -0.0505361 1.02138e-18 0.590599 -3.14399e-19 0.410686)
(0.346858 -0.164393 2.22217e-18 0.664819 3.56415e-19 0.513888)
(0.00970294 -0.000874395 -6.07284e-24 0.00817803 -2.98786e-22 0.00894828)
(0.00701505 -0.000928137 2.93865e-22 0.00699626 8.79678e-22 0.00702249)
(0.00500125 -0.000522805 -4.73413e-21 0.00587829 -6.69014e-21 0.00553412)
(0.00404879 -0.000271095 -7.19412e-21 0.00503217 -8.13262e-21 0.00460959)
(0.00175456 -0.000334803 3.25207e-21 0.001635 2.9231e-21 0.00169028)
(0.0273763 -0.000934734 2.4086e-20 0.0156352 1.71801e-20 0.0213054)
(0.129501 -0.00863637 -8.71275e-21 0.0564602 -3.9964e-20 0.0927438)
(0.461799 -0.0492691 2.92544e-20 0.188069 -1.36915e-19 0.325776)
(0.908037 -0.135931 -4.9444e-20 0.391071 3.27403e-19 0.648967)
(1.00027 -0.198441 -3.10259e-20 0.469753 6.61176e-20 0.738918)
(0.773136 -0.19372 -2.65935e-20 0.405772 6.08431e-19 0.603345)
(0.561093 -0.166343 -4.44665e-19 0.332904 7.1132e-19 0.451088)
(0.447683 -0.149369 3.47917e-19 0.300643 -5.88547e-19 0.363762)
(0.338945 -0.124796 7.37946e-21 0.254806 5.81756e-19 0.286813)
(0.240758 -0.0966179 -1.24898e-19 0.198668 -8.0149e-19 0.219817)
(0.20613 -0.0859487 -9.16123e-20 0.17847 -3.30732e-19 0.19643)
(0.231813 -0.0976479 3.30144e-20 0.20611 1.76042e-19 0.218692)
(0.242858 -0.108845 9.81124e-20 0.244555 2.80836e-21 0.238945)
(0.199067 -0.0994799 2.28019e-20 0.278532 3.31844e-20 0.236686)
(0.152958 -0.0603983 -7.5942e-21 0.340703 -3.26593e-20 0.251036)
(0.168184 -0.00626885 -2.73347e-20 0.445701 -3.51803e-20 0.312999)
(0.196994 0.0383292 -1.31272e-19 0.503214 -2.37279e-20 0.352114)
(0.185894 0.0657057 -6.94553e-20 0.428047 -1.7277e-20 0.304576)
(0.165954 0.0809957 -1.41139e-19 0.290317 4.6968e-20 0.224833)
(0.196736 0.0904258 -2.25785e-19 0.205988 1.96454e-19 0.200914)
(0.292676 0.102794 -9.17952e-19 0.203479 -1.25386e-19 0.251144)
(0.454795 0.129839 9.26343e-20 0.261839 -1.42817e-19 0.362058)
(0.675955 0.174804 2.04367e-19 0.363518 3.32273e-19 0.523669)
(0.807026 0.205178 3.23968e-19 0.429472 1.12747e-19 0.622453)
(0.650636 0.17238 7.95908e-20 0.355689 -1.16105e-19 0.506185)
(0.286056 0.101231 -2.42881e-19 0.201514 -3.47701e-19 0.243778)
(0.136119 0.04933 2.28026e-19 0.312722 1.70092e-19 0.225508)
(0.245463 0.032242 -1.36227e-18 0.639827 2.74684e-19 0.447037)
(0.348804 0.0369145 -4.75567e-19 0.913694 -1.87182e-19 0.636852)
(0.43064 0.0531767 -6.19633e-19 1.12383 4.40556e-19 0.783594)
(0.49046 0.0734362 -8.69016e-20 1.27104 6.52691e-19 0.886351)
(0.523507 0.09033 1.83581e-19 1.34699 5.31539e-19 0.939901)
(0.521965 0.0972293 2.12998e-19 1.33485 -9.27935e-19 0.929264)
(0.478354 0.0788147 -1.32244e-18 1.23128 8.58113e-20 0.854527)
(0.375965 0.0349673 2.15518e-18 0.975061 -1.35669e-18 0.661647)
(0.375479 -0.134632 -9.64831e-19 0.871203 -2.36311e-19 0.635512)
(0.0067996 -0.000570909 6.6715e-22 0.00565571 9.93098e-22 0.00621835)
(0.00558264 -0.000699223 -9.23393e-22 0.00536839 -1.54981e-21 0.0054486)
(0.00451543 -0.000580608 5.09413e-21 0.00496143 5.95831e-21 0.00470388)
(0.00360552 -0.000319571 6.04021e-21 0.00433752 6.44735e-21 0.00396155)
(0.00320147 -0.00017547 -6.11108e-21 0.00402967 -5.71559e-21 0.00362456)
(0.00142264 -0.000104997 9.36372e-22 0.00187158 6.66061e-23 0.0016489)
(0.00617564 -0.000156216 -1.55444e-21 0.00438997 -1.22885e-21 0.00525131)
(0.0575616 -0.0034579 -2.99747e-20 0.0271958 -1.54304e-20 0.0421309)
(0.299157 -0.0312285 4.10452e-20 0.121981 4.55465e-21 0.209922)
(0.738413 -0.107147 2.25079e-20 0.315593 9.78117e-20 0.526969)
(1.0282 -0.193869 3.20778e-19 0.472958 -4.67849e-19 0.756898)
(0.978814 -0.231511 -1.40076e-19 0.497436 1.00038e-19 0.752213)
(0.792325 -0.225324 -1.29411e-19 0.455776 9.79507e-20 0.626868)
(0.604837 -0.196743 1.21378e-19 0.394439 -1.33669e-18 0.489601)
(0.434911 -0.158315 1.56183e-19 0.318193 1.32138e-19 0.372153)
(0.329436 -0.130642 1.17653e-19 0.265702 9.33898e-20 0.301799)
(0.320327 -0.131886 -6.76205e-20 0.273233 4.0842e-19 0.299823)
(0.332116 -0.144087 -5.73968e-20 0.311445 7.39725e-20 0.319602)
(0.260906 -0.128425 3.82399e-20 0.333098 -1.61815e-20 0.295406)
(0.174033 -0.0685626 -1.40395e-20 0.388187 4.37485e-20 0.28607)
(0.210563 0.0122498 6.21531e-20 0.556353 4.2181e-20 0.389257)
(0.282723 0.07963 -1.51464e-20 0.690569 2.73375e-20 0.486173)
(0.293176 0.117853 -2.44171e-19 0.63573 9.99421e-20 0.457841)
(0.2737 0.13504 3.74465e-19 0.45525 2.39661e-20 0.356968)
(0.317343 0.142801 7.62424e-19 0.318928 -1.11433e-19 0.315874)
(0.482997 0.159264 4.05704e-19 0.314838 4.50655e-19 0.403136)
(0.752455 0.194959 -8.44033e-20 0.404711 4.37008e-21 0.584865)
(0.998823 0.229182 4.5828e-19 0.501411 -1.54511e-19 0.754635)
(0.998376 0.228753 -1.73587e-19 0.500742 -3.3544e-19 0.754388)
(0.663945 0.175418 -1.93285e-19 0.362976 -2.46612e-19 0.51389)
(0.240096 0.111712 2.93084e-19 0.257324 5.54734e-19 0.249559)
(0.251819 0.0817958 -1.39852e-20 0.598383 -3.09e-19 0.427334)
(0.403371 0.0800402 1.70441e-18 1.02963 2.01725e-19 0.721961)
(0.549263 0.10169 1.07257e-18 1.40763 -6.02642e-19 0.983768)
(0.668347 0.136901 1.03162e-18 1.70054 -3.13587e-19 1.19103)
(0.759298 0.176077 1.40195e-18 1.90871 -1.80768e-19 1.33931)
(0.808938 0.206695 -1.03679e-18 2.00959 4.57701e-19 1.41435)
(0.811028 0.220211 -6.77786e-21 1.99411 -9.71054e-20 1.40287)
(0.744465 0.192036 -1.20902e-18 1.84439 1.11992e-18 1.29466)
(0.607578 0.127082 -5.11789e-18 1.53069 8.06553e-19 1.05473)
(0.489541 -0.0872223 3.79474e-18 1.26377 -1.11741e-18 0.894953)
(0.00464753 -0.000365805 -7.52239e-22 0.00382894 -8.45257e-22 0.00423611)
(0.00405323 -0.000481842 3.31788e-21 0.00374978 3.08492e-21 0.00389122)
(0.003404 -0.000444724 -1.96529e-21 0.00357391 -1.55353e-21 0.00348232)
(0.00281414 -0.000320816 -1.73487e-21 0.00328011 -2.07821e-21 0.00304266)
(0.00244946 -0.000172771 1.24385e-21 0.00303406 1.54696e-21 0.00274348)
(0.00239211 -8.84311e-05 -8.93987e-22 0.00305485 -6.6329e-22 0.00273498)
(0.00125187 -2.03091e-05 -1.00911e-21 0.00155466 -7.52647e-22 0.00141199)
(0.000726016 -7.51166e-06 -5.64263e-23 0.000634892 5.92881e-23 0.000679456)
(0.0164505 -0.000718684 -1.52635e-22 0.00984306 5.3329e-22 0.0130528)
(0.160504 -0.0162891 -9.2598e-20 0.0658049 -6.97118e-20 0.11247)
(0.497083 -0.0696523 -1.18591e-19 0.210579 -6.39734e-20 0.355147)
(0.86348 -0.153096 1.10297e-19 0.388234 -2.16288e-20 0.633712)
(1.02189 -0.222866 -1.1026e-19 0.499233 3.34607e-20 0.769419)
(0.944449 -0.250259 -1.66346e-19 0.51766 3.85546e-19 0.730506)
(0.742667 -0.231599 2.55059e-19 0.462987 3.49995e-19 0.598241)
(0.554349 -0.196362 -2.40823e-19 0.390386 -7.62787e-20 0.473898)
(0.472745 -0.182522 9.0507e-20 0.36849 -5.198e-19 0.424498)
(0.464261 -0.190824 -3.95843e-20 0.39676 3.46274e-19 0.430888)
(0.380692 -0.17672 1.47479e-20 0.406976 -3.72562e-20 0.393718)
(0.212822 -0.102157 2.72512e-21 0.402164 9.30741e-20 0.314824)
(0.219326 -0.000414395 -8.06011e-21 0.581914 -8.65161e-20 0.408543)
(0.323189 0.0870134 -6.90817e-20 0.794715 3.27465e-20 0.557511)
(0.360865 0.139376 1.61993e-19 0.796437 -3.93154e-20 0.567948)
(0.33931 0.164963 5.07177e-20 0.587485 -1.02799e-19 0.451603)
(0.400862 0.177917 -9.44376e-19 0.393162 -5.95762e-20 0.392713)
(0.680589 0.201767 7.0099e-19 0.403581 -1.40924e-19 0.547819)
(1.05166 0.235971 -2.51608e-20 0.520929 -6.23747e-20 0.795615)
(1.26782 0.25102 -7.8886e-19 0.594571 -3.46202e-19 0.937327)
(1.06853 0.220298 -2.68288e-19 0.509785 -1.95499e-19 0.793769)
(0.572971 0.169113 2.91319e-19 0.340276 4.46935e-19 0.455253)
(0.273134 0.137079 7.6974e-20 0.448808 -2.04917e-19 0.363573)
(0.408092 0.133456 -5.47963e-20 0.968525 1.86999e-19 0.692756)
(0.600544 0.14734 -1.3256e-18 1.50195 -3.4908e-19 1.0591)
(0.791313 0.185213 -1.83162e-18 1.98801 3.45952e-19 1.39667)
(0.9522 0.23855 -6.94671e-19 2.37286 -1.79375e-19 1.67068)
(1.07678 0.294923 1.56366e-18 2.64756 -5.57225e-19 1.86876)
(1.14484 0.336488 4.52009e-19 2.77972 5.35152e-19 1.96884)
(1.15131 0.352492 1.65726e-18 2.76915 -1.2066e-18 1.96212)
(1.06598 0.311072 5.06023e-18 2.58963 -1.36657e-18 1.83034)
(0.911038 0.222764 -2.40326e-20 2.26511 6.7713e-19 1.57614)
(0.719934 -0.0154832 -5.56276e-18 1.90581 6.87729e-19 1.33022)
(0.00324575 -0.000237452 -1.08257e-22 0.00264823 -1.82674e-22 0.00294592)
(0.00294298 -0.000326057 8.64975e-23 0.00263256 4.68918e-22 0.00278176)
(0.00262237 -0.000338882 -1.35484e-21 0.00261401 -1.33447e-21 0.00261312)
(0.00227374 -0.000287136 -2.10562e-21 0.0025153 -2.09232e-21 0.00239322)
(0.00190913 -0.000190298 -8.8072e-22 0.00229858 -7.09796e-22 0.00210405)
(0.00174469 -9.81775e-05 2.93734e-21 0.0022095 2.58121e-21 0.00197853)
(0.00178756 -4.02219e-05 -8.78016e-22 0.00230631 -7.30928e-22 0.00205523)
(0.000989159 -2.04845e-06 3.60021e-22 0.0011798 2.64971e-22 0.0010904)
(8.53619e-06 -3.55941e-08 7.78201e-23 8.21056e-06 5.16272e-23 8.39663e-06)
(0.00184503 -2.58071e-05 -1.03337e-22 0.00158617 6.77103e-23 0.00171002)
(0.062823 -0.00564877 8.85342e-20 0.0264813 5.58057e-20 0.0443738)
(0.264965 -0.033105 -1.91058e-19 0.109834 -1.34812e-19 0.188529)
(0.597333 -0.0945573 2.75192e-19 0.259827 1.65557e-19 0.433005)
(0.892607 -0.176633 -7.05737e-20 0.418887 1.52989e-19 0.658456)
(0.965886 -0.236191 -1.34266e-20 0.503748 -4.10444e-19 0.733234)
(0.847635 -0.24863 -7.31356e-20 0.500098 2.48327e-19 0.674519)
(0.719344 -0.24398 -2.53616e-19 0.48341 2.27147e-19 0.60402)
(0.664235 -0.249679 2.1282e-19 0.502048 2.10448e-19 0.583848)
(0.574327 -0.239635 -7.87607e-20 0.502372 1.28715e-19 0.538774)
(0.344171 -0.170667 3.86321e-20 0.435707 -4.73164e-19 0.400017)
(0.200022 -0.0537025 -2.95058e-20 0.498431 1.61863e-19 0.3623)
(0.291166 0.0485176 2.43831e-20 0.749591 -4.56532e-20 0.521196)
(0.356259 0.112282 -3.61078e-19 0.840364 9.97806e-20 0.584577)
(0.329397 0.149607 1.70234e-19 0.63575 -8.48093e-20 0.466369)
(0.404188 0.17501 5.00552e-19 0.38102 1.48383e-19 0.385135)
(0.843875 0.206046 -2.93596e-19 0.437605 -2.11472e-19 0.64809)
(1.30873 0.238429 -5.35485e-19 0.593733 -2.0221e-19 0.963458)
(1.43396 0.23853 3.71526e-19 0.632734 3.55917e-19 1.0422)
(1.04071 0.200967 7.75306e-20 0.484025 3.61176e-19 0.764031)
(0.452562 0.175996 8.4704e-20 0.35816 2.61533e-20 0.40408)
(0.404227 0.188742 -2.31952e-20 0.785447 -3.82108e-19 0.598826)
(0.610094 0.212534 4.12287e-19 1.42205 -3.39887e-19 1.02319)
(0.840688 0.24189 -3.58383e-20 2.05275 4.54482e-19 1.45728)
(1.0737 0.293517 -5.26574e-19 2.64239 1.03034e-18 1.86736)
(1.27641 0.361352 -2.27185e-18 3.12179 1.85986e-18 2.20825)
(1.43292 0.429908 2.87922e-18 3.46425 -1.81058e-18 2.45566)
(1.51804 0.476688 3.72987e-18 3.63282 -2.35001e-18 2.58174)
(1.52769 0.488646 -4.47791e-18 3.63717 1.73062e-18 2.58473)
(1.43163 0.432089 1.82472e-18 3.45364 -1.68412e-18 2.44453)
(1.2756 0.320017 -1.57562e-19 3.166 3.44287e-19 2.2114)
(1.05966 0.0764832 -8.92006e-20 2.78747 1.01092e-18 1.93531)
(0.00229171 -0.00015446 -2.07353e-23 0.00185309 4.04542e-23 0.00207201)
(0.0021236 -0.000218087 -6.49894e-22 0.00185085 -5.30758e-22 0.00198478)
(0.00196685 -0.000245055 6.87054e-22 0.00187836 1.81117e-22 0.00191867)
(0.00179077 -0.0002333 2.66395e-21 0.00188284 2.22746e-21 0.00183366)
(0.00158514 -0.000187682 5.49507e-22 0.00181917 5.20709e-22 0.00170121)
(0.0013525 -0.000118046 3.96388e-22 0.0016642 2.33767e-22 0.00150775)
(0.00124541 -5.41217e-05 -4.57969e-21 0.00159829 -3.46254e-21 0.00142111)
(0.00133701 -1.40573e-05 -3.74914e-22 0.00174538 -2.54386e-22 0.00154579)
(0.000856633 3.59283e-06 -6.35485e-22 0.00102409 -5.01678e-22 0.00094443)
(3.99013e-05 6.98385e-08 1.49411e-23 4.07042e-05 1.04928e-23 4.03095e-05)
(2.2212e-07 -6.10136e-13 -6.61554e-29 2.2211e-07 -5.41197e-29 2.22115e-07)
(0.00900683 -0.000384217 -5.71216e-21 0.00556414 -2.0392e-21 0.00725966)
(0.112335 -0.0110849 1.06995e-19 0.0453891 3.90253e-20 0.0791146)
(0.366638 -0.0498382 -2.28795e-19 0.154272 -1.029e-19 0.26137)
(0.686504 -0.1224 8.04927e-20 0.310513 4.7475e-20 0.498585)
(0.879047 -0.197093 1.79863e-19 0.437018 1.09184e-19 0.658159)
(0.924022 -0.252861 2.68268e-19 0.517226 2.98758e-19 0.722217)
(0.914701 -0.294595 -1.446e-19 0.585235 7.6492e-20 0.750237)
(0.843518 -0.306005 -6.69551e-20 0.611384 -4.39157e-20 0.726951)
(0.621505 -0.255536 -5.04889e-19 0.527138 -7.29182e-20 0.585268)
(0.290092 -0.147349 5.44969e-19 0.404804 4.26603e-20 0.368776)
(0.204401 -0.0358749 -1.53327e-19 0.528875 -1.16872e-20 0.376302)
(0.272566 0.030667 -1.83028e-19 0.702294 2.08425e-19 0.474607)
(0.234564 0.0711446 -5.69067e-20 0.545988 6.22766e-20 0.369292)
(0.274604 0.103138 -1.30346e-19 0.213861 -3.68012e-20 0.232538)
(0.953129 0.145949 -3.52892e-20 0.410559 1.18337e-19 0.690883)
(1.47414 0.186384 -1.69449e-19 0.609532 1.67815e-19 1.05627)
(1.43839 0.190315 2.61542e-19 0.600551 -7.76501e-20 1.02923)
(0.880668 0.180513 3.36954e-19 0.420543 4.07703e-19 0.648363)
(0.431838 0.211276 -1.35703e-19 0.534166 -2.43308e-19 0.483216)
(0.610235 0.274907 -5.4977e-19 1.23311 4.88065e-20 0.92624)
(0.867098 0.328201 -2.79535e-19 1.96002 -1.31419e-19 1.42297)
(1.13015 0.373778 1.29998e-19 2.67482 2.57193e-19 1.9159)
(1.39748 0.435974 1.56819e-18 3.35314 -1.3084e-18 2.38727)
(1.63427 0.512295 1.17527e-18 3.91485 -2.8504e-19 2.78504)
(1.81598 0.585403 -1.48691e-18 4.31835 1.18538e-19 3.0749)
(1.91319 0.629712 -3.12102e-18 4.52339 2.1285e-18 3.22401)
(1.92634 0.631006 2.23499e-18 4.55691 -1.37495e-18 3.24221)
(1.8324 0.55905 -1.93248e-18 4.40507 6.2953e-19 3.11306)
(1.69228 0.423963 4.68631e-18 4.20097 -2.53246e-18 2.9342)
(1.48491 0.186809 6.63334e-19 3.86009 2.30141e-19 2.66966)
(0.00163669 -0.00010103 -9.96286e-23 0.00131303 2.89618e-23 0.00147448)
(0.00153977 -0.000146046 -4.56637e-22 0.00131377 -6.44213e-22 0.00142577)
(0.00144955 -0.000171098 2.01581e-21 0.00133592 1.5361e-21 0.00139065)
(0.00135421 -0.00017571 -4.50188e-22 0.00135979 3.63559e-23 0.00135483)
(0.00124494 -0.000158365 6.77375e-22 0.00136066 4.65046e-22 0.00130159)
(0.00111884 -0.000123074 -5.45001e-22 0.00131908 -4.8177e-22 0.00121878)
(0.000959244 -7.24601e-05 1.55731e-21 0.00119694 1.26921e-21 0.00107756)
(0.000892144 -2.7952e-05 1.80474e-21 0.00115527 1.26078e-21 0.00102262)
(0.000998022 2.97206e-06 1.37403e-22 0.00132009 3.28049e-22 0.00116081)
(0.000804917 1.04879e-05 1.58721e-21 0.000997552 9.75893e-22 0.000903979)
(1.86659e-05 1.27946e-08 3.08429e-25 1.87956e-05 2.19809e-25 1.87317e-05)
(3.66411e-05 1.22575e-07 -1.91312e-23 3.56242e-05 -1.07739e-23 3.60958e-05)
(1.20741e-05 -1.07777e-09 -1.64647e-26 1.20534e-05 -1.96112e-26 1.20636e-05)
(0.040967 -0.00290615 3.3329e-20 0.0167395 2.42908e-20 0.028779)
(0.208364 -0.0239368 -2.97354e-19 0.0853534 -1.60116e-19 0.146612)
(0.468629 -0.0740808 2.25539e-19 0.204438 1.13785e-19 0.336675)
(0.732083 -0.148842 -1.53769e-19 0.347642 -2.2859e-19 0.541048)
(0.961527 -0.241756 4.56349e-19 0.509255 1.56999e-19 0.736123)
(1.07024 -0.317597 -1.87497e-19 0.637744 -2.77771e-19 0.853536)
(0.968791 -0.318366 -1.57994e-19 0.629104 3.62621e-19 0.808538)
(0.664786 -0.242921 4.08378e-19 0.479158 -2.83102e-19 0.599153)
(0.312894 -0.148353 -2.46291e-20 0.342172 6.41462e-20 0.351046)
(0.20823 -0.0919138 -8.92301e-20 0.420605 7.68833e-20 0.308325)
(0.185586 -0.0716807 4.99369e-19 0.382186 -2.98166e-19 0.259467)
(0.300162 -0.0580898 1.73357e-19 0.145413 8.67808e-20 0.207476)
(1.08181 -0.00464965 5.33868e-19 0.408529 -8.33551e-20 0.755132)
(1.52103 0.0639822 5.91991e-19 0.579979 2.62768e-19 1.06649)
(1.28114 0.110786 -2.13962e-19 0.506217 -1.97224e-19 0.89951)
(0.624704 0.171057 -1.97908e-19 0.351811 -4.38386e-19 0.482696)
(0.556708 0.279589 -3.34606e-19 0.896593 -2.76254e-19 0.727954)
(0.882734 0.400476 3.9783e-19 1.76887 2.17935e-19 1.33007)
(1.18901 0.488953 -2.53986e-19 2.57689 4.95189e-19 1.89387)
(1.47846 0.553488 3.74608e-19 3.35727 -2.95418e-19 2.43395)
(1.76619 0.623699 -2.11683e-18 4.09538 1.50288e-18 2.94632)
(2.02239 0.701945 4.51348e-19 4.71303 -9.07052e-20 3.38123)
(2.21459 0.771015 -6.06711e-19 5.15388 7.85453e-19 3.69592)
(2.31444 0.806055 5.6025e-18 5.38359 -4.41726e-18 3.85807)
(2.32695 0.792569 -4.94624e-18 5.44573 3.11247e-18 3.88898)
(2.23991 0.705505 4.13713e-19 5.34237 -1.48528e-19 3.77885)
(2.12089 0.546743 -3.37747e-18 5.24488 1.50249e-18 3.6675)
(1.95578 0.316971 4.24032e-18 5.02238 -2.26533e-18 3.46158)
(0.00117949 -6.59052e-05 -3.75847e-22 0.000939402 -3.43075e-22 0.00105895)
(0.00111829 -9.73435e-05 1.45219e-21 0.000937088 1.01021e-21 0.0010277)
(0.00106089 -0.000117442 -3.82756e-22 0.000949121 5.42935e-23 0.00100413)
(0.00100587 -0.000126666 -2.60474e-21 0.00097028 -1.86074e-21 0.000986758)
(0.000944921 -0.000123268 -3.11885e-22 0.000986387 -4.73432e-22 0.000964773)
(0.000874899 -0.000107132 2.54692e-21 0.000984983 1.7954e-21 0.000929486)
(0.000792462 -8.03524e-05 -4.27409e-22 0.000952956 -2.3305e-22 0.000872555)
(0.000683701 -4.45827e-05 -5.82151e-21 0.000860953 -3.97019e-21 0.000772051)
(0.000637847 -1.21759e-05 5.77447e-21 0.000829636 3.87994e-21 0.000733208)
(0.000729989 1.47765e-05 3.88563e-22 0.000974238 -7.19972e-23 0.000852177)
(0.000667551 1.70419e-05 -2.24436e-22 0.000849612 -2.22309e-22 0.000759821)
(0.000143201 8.60362e-07 -1.1851e-23 0.000151664 -5.20479e-24 0.000147548)
(3.23241e-06 6.34075e-09 -6.48753e-25 3.24358e-06 -3.34904e-25 3.2386e-06)
(0.00102422 2.68631e-06 4.73105e-22 0.000799311 4.47242e-23 0.00090995)
(0.0151233 -0.000660825 -2.55169e-20 0.00674123 -7.87719e-21 0.010856)
(0.0984691 -0.00901252 9.36767e-20 0.0393553 3.413e-20 0.0686903)
(0.268155 -0.0357736 -8.06759e-20 0.112457 -4.35891e-21 0.190658)
(0.555853 -0.0977846 4.1983e-20 0.250015 -2.3507e-20 0.404253)
(0.914535 -0.198487 -1.8686e-19 0.447357 -6.59349e-20 0.681657)
(1.1313 -0.279519 -8.07997e-20 0.591559 -7.35491e-20 0.867722)
(1.07929 -0.276265 3.85096e-20 0.572882 1.85342e-19 0.8522)
(0.848605 -0.227011 3.6476e-19 0.462163 -2.34936e-19 0.68989)
(0.617711 -0.212999 -3.97509e-19 0.42122 3.0286e-19 0.525325)
(0.626322 -0.247771 -1.19007e-19 0.520626 -3.61953e-20 0.549538)
(0.967253 -0.302142 6.8696e-19 0.608243 -2.63612e-19 0.770332)
(1.45342 -0.258996 -6.88989e-19 0.655557 -4.97854e-20 1.06232)
(1.52276 -0.137504 -3.38489e-19 0.602892 -5.51319e-19 1.07584)
(0.988208 -0.00208427 5.22537e-19 0.37564 8.47564e-19 0.678241)
(0.399127 0.17157 -4.09196e-20 0.373309 -3.94752e-20 0.376448)
(0.769839 0.3773 4.9448e-19 1.36339 7.31202e-19 1.06698)
(1.22043 0.568717 -5.57005e-19 2.36846 6.82691e-21 1.79811)
(1.58692 0.703258 9.69434e-19 3.25643 -4.67277e-19 2.43381)
(1.90119 0.793135 2.12577e-19 4.08535 -7.09948e-19 3.01237)
(2.19562 0.871201 1.23672e-19 4.85252 9.22099e-19 3.54358)
(2.44802 0.944281 1.47246e-18 5.48232 -1.29762e-18 3.9837)
(2.62778 0.999871 -8.88911e-19 5.92004 4.68101e-19 4.29281)
(2.71094 1.01881 -1.98249e-18 6.13879 6.78305e-19 4.44328)
(2.70383 0.986725 3.3046e-18 6.19231 -2.21571e-18 4.46428)
(2.60186 0.884737 4.38175e-19 6.09098 -1.21743e-18 4.34769)
(2.4959 0.708619 4.34606e-18 6.09456 -3.92178e-18 4.30188)
(2.38152 0.481348 -4.81217e-18 6.02932 1.84524e-18 4.16736)
(0.000855056 -4.24951e-05 -3.14216e-22 0.000676406 -1.26086e-22 0.000765327)
(0.000815154 -6.46327e-05 -1.34269e-21 0.000672599 -7.88691e-22 0.000744309)
(0.000775644 -7.98449e-05 -2.34856e-23 0.000676632 -2.14677e-22 0.000725871)
(0.000739117 -8.88087e-05 -2.09267e-22 0.00068844 -2.22368e-22 0.000713051)
(0.000703059 -9.10429e-05 1.80627e-21 0.000703458 1.14629e-21 0.000702668)
(0.000660084 -8.50139e-05 9.14639e-22 0.000710419 7.59047e-22 0.00068496)
(0.000612539 -7.16481e-05 -1.27229e-21 0.000705649 -8.27839e-22 0.000658957)
(0.000557957 -5.21587e-05 -7.24147e-22 0.000680498 -4.72667e-22 0.000619337)
(0.000486817 -2.73718e-05 -4.98129e-22 0.000617073 -4.2043e-22 0.000552193)
(0.000452438 -3.04049e-06 -4.74519e-21 0.000588893 -3.08764e-21 0.00052085)
(0.00052423 2.13583e-05 -1.68408e-21 0.000701592 -9.56777e-22 0.000612504)
(0.000524421 2.26759e-05 -2.81443e-22 0.000681814 -1.15122e-22 0.000603233)
(0.000185884 1.97655e-06 2.57894e-22 0.000203334 1.60201e-22 0.000194891)
(7.93978e-06 9.80308e-09 -2.73122e-24 7.988e-06 -1.56344e-24 7.96551e-06)
(0.000118463 1.42012e-06 3.06687e-22 0.000109527 1.78686e-22 0.000113869)
(0.00165352 -6.74743e-06 -1.55934e-21 0.00123619 -8.49805e-22 0.00143942)
(0.0220088 -0.00116175 3.60749e-20 0.00900934 1.81724e-20 0.0154592)
(0.10442 -0.00975986 1.84818e-19 0.04167 8.29496e-20 0.0732139)
(0.367924 -0.0476616 -1.18246e-19 0.153286 -4.0801e-20 0.261687)
(0.77778 -0.121619 -7.00571e-19 0.337686 -2.32046e-19 0.560792)
(1.12602 -0.18394 6.5607e-19 0.492964 1.71808e-19 0.823401)
(1.28173 -0.20353 -9.20874e-19 0.554486 7.54396e-20 0.949931)
(1.2912 -0.251788 6.97533e-19 0.599249 -1.089e-19 0.965362)
(1.37011 -0.380633 -1.2845e-19 0.780553 -3.8621e-20 1.06042)
(1.84071 -0.559792 1.18777e-19 1.12538 -1.16387e-19 1.46431)
(2.1409 -0.585577 4.0407e-19 1.19922 3.93532e-19 1.66917)
(1.71367 -0.405776 -4.45462e-19 0.876552 -1.177e-19 1.2962)
(0.761818 -0.149108 3.06898e-19 0.361624 1.0937e-19 0.544253)
(0.343118 0.169089 -4.39762e-19 0.553667 -3.16436e-19 0.434383)
(1.01508 0.495038 -2.06317e-19 1.81916 -3.56898e-19 1.41729)
(1.60651 0.776841 -1.85158e-19 2.94064 8.25368e-20 2.27922)
(2.06352 0.978146 -5.77816e-19 3.91888 5.68734e-19 3.0054)
(2.41502 1.1079 -1.71642e-20 4.79165 6.23994e-19 3.62542)
(2.70212 1.19553 2.33317e-18 5.55514 -2.69139e-18 4.15198)
(2.92814 1.25804 1.15142e-18 6.16185 -2.63834e-18 4.56844)