/*--------------------------------*- C++ -*----------------------------------*\
| =========                 |                                                 |
| \\      /  F ield         | OpenFOAM: The Open Source CFD Toolbox           |
|  \\    /   O peration     | Version:  2312                                  |
|   \\  /    A nd           | Website:  www.openfoam.com                      |
|    \\/     M anipulation  |                                                 |
\*---------------------------------------------------------------------------*/
FoamFile
{
    version     2.0;
    format      ascii;
    arch        "LSB;label=32;scalar=64";
    class       volScalarField;
    location    "100";
    object      turbulenceProperties:nuEff;
}
// * * * * * * * * * * * * * * * * * * * * * * * * * * * * * * * * * * * * * //

dimensions      [0 2 -1 0 0 0 0];

internalField   nonuniform List<scalar> 
11040
(
2.24941e-05
4.10334e-05
6.88676e-05
8.38605e-05
1.48138e-05
2.176e-05
9.10509e-05
0.000124829
0.000137954
0.000135043
0.00013543
0.000135347
0.000131209
0.000127756
0.000116268
0.000122316
0.000142353
0.000165303
0.000160669
0.000179515
0.00020674
0.000230463
0.000306615
0.00034999
0.000358843
0.000349259
0.000342949
0.000333915
0.000301924
0.000288433
0.000220195
0.000246608
0.000290994
0.000341491
0.000504917
0.000549202
0.000621965
0.000704054
0.000779893
0.000843963
0.000797293
1.60711e-05
1.77103e-05
3.9295e-05
9.14623e-05
0.000108466
0.000161311
0.000499229
0.000670963
0.000697862
0.000663571
0.000625791
0.000594455
0.000569385
0.000534686
0.000521359
0.000552716
0.000620982
0.000716315
0.000806779
0.000901108
0.00100196
0.00105312
0.00101596
0.00091117
0.00078252
0.00068824
0.000690261
0.000752137
0.000811658
0.000843202
0.0010173
0.00123293
0.00143129
0.00155974
0.0016505
0.0016855
0.0017081
0.00170965
0.00169145
0.00163634
0.00136864
1.63861e-05
1.62742e-05
1.66916e-05
3.30586e-05
7.38978e-05
0.000113187
0.000319861
0.000680699
0.00098815
0.00112423
0.00121921
0.00127452
0.00126914
0.0012143
0.00117812
0.00122805
0.00136031
0.00153469
0.00172005
0.00189179
0.00208298
0.0022418
0.00223671
0.00207503
0.00183769
0.00165494
0.00166862
0.00181715
0.00195778
0.00200911
0.00240817
0.00288926
0.00329018
0.00354456
0.00370673
0.00379237
0.00384034
0.0038419
0.00379891
0.00368026
0.00325402
1.62407e-05
1.65136e-05
1.58628e-05
1.56758e-05
2.59195e-05
4.3648e-05
0.000117809
0.000347031
0.000759337
0.00120751
0.00151578
0.00171639
0.00184999
0.00193011
0.00198785
0.00209674
0.00234605
0.00264985
0.00293665
0.00317637
0.00343583
0.00374183
0.0038456
0.00367236
0.00334331
0.00308243
0.00312224
0.00340232
0.00357139
0.00370047
0.00447113
0.00529371
0.00591681
0.00630327
0.00653421
0.00664569
0.00669006
0.00666749
0.0065816
0.00639283
0.0058175
1.62518e-05
1.62175e-05
1.64494e-05
1.55343e-05
1.57092e-05
1.85199e-05
2.13509e-05
8.44914e-05
0.00031998
0.00075924
0.00132195
0.00180708
0.00214367
0.00240072
0.00263175
0.00292922
0.00343355
0.00405458
0.00450782
0.00479122
0.00506487
0.00550939
0.00580953
0.00574949
0.00539229
0.00509892
0.00520187
0.00543276
0.00552194
0.00611775
0.00737383
0.00857583
0.00942849
0.00994385
0.0102246
0.0103289
0.0103284
0.0102478
0.0100988
0.00984325
0.009157
1.62223e-05
1.62301e-05
1.62549e-05
1.62876e-05
1.56618e-05
1.58549e-05
1.43297e-05
1.16499e-05
3.81867e-05
0.000257042
0.000675851
0.00127683
0.0019202
0.00247124
0.00293062
0.00343675
0.00423688
0.00535939
0.00638297
0.00679492
0.00699825
0.00746585
0.00804302
0.00829034
0.00809996
0.00782759
0.00776645
0.00787336
0.00803126
0.00948711
0.0113321
0.012906
0.0139768
0.0145942
0.01488
0.0149176
0.0148027
0.0146073
0.0143515
0.014013
0.0132672
1.62193e-05
1.62327e-05
1.62222e-05
1.62799e-05
1.6209e-05
1.60267e-05
1.60801e-05
1.27934e-05
1.01418e-05
1.21348e-05
0.000161381
0.000512779
0.00110074
0.00187258
0.00266745
0.0034411
0.00448814
0.00603935
0.00778446
0.00905799
0.00929079
0.00956738
0.0104038
0.0111843
0.0114689
0.0110784
0.0108117
0.0108739
0.011762
0.0141192
0.0165679
0.0185042
0.0197544
0.0204114
0.0206196
0.0204917
0.0201516
0.0197329
0.0192849
0.0188353
0.0181054
1.62124e-05
1.62175e-05
1.62305e-05
1.62228e-05
1.62644e-05
1.62317e-05
1.62503e-05
1.65438e-05
1.28703e-05
1.00359e-05
1e-05
3.43623e-05
0.000323165
0.000888437
0.00173129
0.00272232
0.00398053
0.00584248
0.00820159
0.010424
0.0117197
0.0118998
0.0127452
0.0141349
0.0151053
0.0147874
0.0144621
0.014658
0.0169399
0.0203342
0.0233934
0.0256624
0.0270161
0.0275963
0.0275853
0.0271342
0.0264006
0.025582
0.0248025
0.0241836
0.0235229
1.62043e-05
1.62134e-05
1.62198e-05
1.6226e-05
1.62139e-05
1.62846e-05
1.61812e-05
1.6414e-05
1.72021e-05
1.42181e-05
1.00044e-05
1.0074e-05
1.00003e-05
0.000178211
0.00069019
0.00148963
0.00265207
0.00455436
0.00728541
0.0103231
0.0128815
0.0142672
0.015076
0.0169201
0.0188493
0.0189942
0.0189011
0.0199663
0.0239513
0.0284625
0.0322201
0.0347876
0.036111
0.0364171
0.0359655
0.0349485
0.0335727
0.0320927
0.0307566
0.0298052
0.0292941
1.6196e-05
1.62078e-05
1.62131e-05
1.62198e-05
1.62167e-05
1.6222e-05
1.62816e-05
1.61149e-05
1.64488e-05
1.78121e-05
1.54929e-05
1.03025e-05
1.00024e-05
1.56289e-05
0.000101358
0.000467721
0.00112164
0.00246193
0.00497209
0.00840093
0.0120123
0.0150309
0.017108
0.0193083
0.022479
0.0237263
0.0242827
0.0273173
0.0331969
0.0390948
0.043777
0.0465968
0.0477023
0.0474216
0.0461403
0.0441649
0.0417757
0.0392597
0.0369989
0.0355081
0.0350272
1.61884e-05
1.62002e-05
1.62075e-05
1.62113e-05
1.62177e-05
1.62083e-05
1.62329e-05
1.62618e-05
1.6066e-05
1.63853e-05
1.83357e-05
1.68669e-05
1.07493e-05
1.00038e-05
1.05995e-05
1.78537e-05
0.000158895
0.000604094
0.00207893
0.00497463
0.00893622
0.0132559
0.0172644
0.0207234
0.0253403
0.0286148
0.0307234
0.0365467
0.0447694
0.0525994
0.0582192
0.0614695
0.0623318
0.0610841
0.0585264
0.0550542
0.0511011
0.0470573
0.0434035
0.0409365
0.0392994
1.61808e-05
1.61925e-05
1.62002e-05
1.62051e-05
1.62089e-05
1.62136e-05
1.62041e-05
1.62384e-05
1.62393e-05
1.60187e-05
1.63369e-05
1.8034e-05
1.78802e-05
1.14948e-05
1.0001e-05
1.00109e-05
1.0977e-05
1.03447e-05
0.000250566
0.00165277
0.00469455
0.00916427
0.0146395
0.0205165
0.0265088
0.0328517
0.0382378
0.0469611
0.0574631
0.0660271
0.0723074
0.0761832
0.0775568
0.0765002
0.0731153
0.0676626
0.0615538
0.0554225
0.0498086
0.0453366
0.041996
1.61735e-05
1.61851e-05
1.61928e-05
1.61985e-05
1.62024e-05
1.62064e-05
1.62088e-05
1.62034e-05
1.62369e-05
1.6225e-05
1.60076e-05
1.6221e-05
1.79181e-05
1.80218e-05
1.33922e-05
1.00949e-05
1.0001e-05
1.00001e-05
1.29865e-05
0.000391926
0.00132587
0.00456528
0.0098474
0.0173392
0.0258414
0.035219
0.045136
0.0572584
0.0685767
0.0777576
0.0846059
0.0889877
0.0907724
0.0899935
0.0867111
0.0809579
0.0729149
0.0641975
0.0561829
0.0490176
0.0433417
1.61665e-05
1.61779e-05
1.61856e-05
1.61914e-05
1.6196e-05
1.61996e-05
1.62037e-05
1.62043e-05
1.62048e-05
1.62361e-05
1.62025e-05
1.60366e-05
1.62223e-05
1.7304e-05
1.79793e-05
1.6145e-05
1.08705e-05
1.00052e-05
1e-05
1e-05
0.000340042
0.00123483
0.00503619
0.0123729
0.0232683
0.0359705
0.0500112
0.06432
0.0767532
0.0868051
0.0943725
0.0993723
0.101641
0.101178
0.0980286
0.092281
0.083949
0.0732389
0.062687
0.0526634
0.0437801
1.61599e-05
1.61709e-05
1.61785e-05
1.61843e-05
1.6189e-05
1.6193e-05
1.61967e-05
1.62e-05
1.6201e-05
1.62085e-05
1.62228e-05
1.61956e-05
1.61242e-05
1.61663e-05
1.65927e-05
1.82339e-05
1.87905e-05
1.25551e-05
1.00001e-05
1e-05
1e-05
0.000334545
0.00129586
0.00687614
0.0181724
0.0337586
0.0506816
0.0667552
0.0807075
0.0920702
0.100757
0.106752
0.109919
0.110206
0.107605
0.102168
0.09401
0.0830537
0.070232
0.0575548
0.0448037
1.61536e-05
1.61641e-05
1.61714e-05
1.6177e-05
1.61816e-05
1.61856e-05
1.61895e-05
1.61931e-05
1.61957e-05
1.61998e-05
1.62077e-05
1.62063e-05
1.62114e-05
1.62177e-05
1.60278e-05
1.6077e-05
1.82875e-05
2.08302e-05
1.36783e-05
1.00016e-05
1e-05
1e-05
0.000396933
0.0016526
0.0102584
0.0257444
0.0443681
0.0625873
0.0786706
0.0920203
0.102513
0.110177
0.114975
0.116805
0.115603
0.111351
0.1041
0.0938655
0.0806094
0.065719
0.0492955
1.61476e-05
1.61575e-05
1.61643e-05
1.61694e-05
1.61738e-05
1.61777e-05
1.61815e-05
1.61852e-05
1.61886e-05
1.61914e-05
1.61989e-05
1.62019e-05
1.61931e-05
1.6244e-05
1.62738e-05
1.5856e-05
1.58831e-05
1.8337e-05
2.1371e-05
1.37652e-05
1.00012e-05
1e-05
1e-05
0.000466331
0.00185073
0.012364
0.0298585
0.049636
0.0682724
0.0843965
0.0976345
0.107936
0.115325
0.119771
0.121171
0.119431
0.114506
0.1063
0.0946262
0.0794629
0.0614912
1.61419e-05
1.61509e-05
1.61572e-05
1.6162e-05
1.61661e-05
1.61699e-05
1.61735e-05
1.61771e-05
1.61808e-05
1.6184e-05
1.61882e-05
1.61969e-05
1.61937e-05
1.61903e-05
1.62787e-05
1.62645e-05
1.57736e-05
1.57846e-05
1.84588e-05
2.15511e-05
1.35255e-05
1.00031e-05
1e-05
1e-05
0.000422979
0.00153477
0.010587
0.0273244
0.0471537
0.0663275
0.083158
0.0971689
0.108269
0.11646
0.121696
0.123894
0.122952
0.118749
0.11109
0.0998076
0.0847605
1.61364e-05
1.61448e-05
1.61506e-05
1.61551e-05
1.6159e-05
1.61626e-05
1.61662e-05
1.61698e-05
1.61733e-05
1.6177e-05
1.61805e-05
1.61863e-05
1.61944e-05
1.61868e-05
1.61982e-05
1.62986e-05
1.62264e-05
1.57477e-05
1.58103e-05
1.87213e-05
2.13115e-05
1.35234e-05
1.00202e-05
1.00001e-05
1e-05
0.000176802
0.000323366
0.00582968
0.0186124
0.0365057
0.0559103
0.0741574
0.0900015
0.103069
0.113244
0.120432
0.124562
0.125626
0.123612
0.118577
0.110519
1.61314e-05
1.61392e-05
1.61446e-05
1.61489e-05
1.61527e-05
1.61563e-05
1.61598e-05
1.61634e-05
1.61669e-05
1.61705e-05
1.61744e-05
1.61785e-05
1.61857e-05
1.61916e-05
1.61843e-05
1.62088e-05
1.63033e-05
1.62004e-05
1.57162e-05
1.59774e-05
1.8741e-05
2.07884e-05
1.42837e-05
1.00325e-05
1.00002e-05
1e-05
1.09572e-05
0.000736901
0.00162244
0.00803555
0.0205077
0.0372939
0.0558554
0.0738368
0.0897719
0.102976
0.11322
0.120525
0.124894
0.126372
0.125082
1.61267e-05
1.6134e-05
1.61392e-05
1.61434e-05
1.61472e-05
1.61507e-05
1.61542e-05
1.61578e-05
1.61613e-05
1.61648e-05
1.61687e-05
1.61729e-05
1.61779e-05
1.61857e-05
1.61894e-05
1.61862e-05
1.62194e-05
1.62948e-05
1.61656e-05
1.5768e-05
1.61407e-05
1.81746e-05
2.03741e-05
1.58383e-05
1.0086e-05
1.00007e-05
1e-05
1e-05
0.000105245
0.000849475
0.0014909
0.00648904
0.0164105
0.0305037
0.0471758
0.0643132
0.080172
0.0938376
0.104861
0.113113
0.118698
1.61224e-05
1.61294e-05
1.61344e-05
1.61385e-05
1.61423e-05
1.61459e-05
1.61494e-05
1.61529e-05
1.61564e-05
1.616e-05
1.61637e-05
1.61679e-05
1.61725e-05
1.61783e-05
1.61858e-05
1.61892e-05
1.61893e-05
1.62272e-05
1.62759e-05
1.61613e-05
1.58536e-05
1.6103e-05
1.77847e-05
1.92758e-05
1.82501e-05
1.06501e-05
1.00047e-05
1e-05
1e-05
1e-05
8.39483e-05
0.00051327
0.00041047
0.00319408
0.00930262
0.0188601
0.0311283
0.0449106
0.0587709
0.071518
0.0823537
1.61184e-05
1.61251e-05
1.61301e-05
1.61342e-05
1.6138e-05
1.61416e-05
1.61451e-05
1.61486e-05
1.61521e-05
1.61557e-05
1.61593e-05
1.61633e-05
1.61679e-05
1.6173e-05
1.61792e-05
1.61863e-05
1.61897e-05
1.61947e-05
1.62264e-05
1.62639e-05
1.61587e-05
1.59812e-05
1.60406e-05
1.71236e-05
1.87439e-05
1.80624e-05
1.41118e-05
1.00399e-05
1.00009e-05
1e-05
1e-05
1e-05
1.1113e-05
0.0001981
0.000694672
0.000644737
0.0028465
0.00724318
0.0136795
0.0217234
0.0305453
1.61148e-05
1.61213e-05
1.61262e-05
1.61304e-05
1.61342e-05
1.61378e-05
1.61414e-05
1.61449e-05
1.61483e-05
1.61519e-05
1.61555e-05
1.61593e-05
1.61637e-05
1.61685e-05
1.61739e-05
1.61803e-05
1.61871e-05
1.61912e-05
1.61985e-05
1.6224e-05
1.62493e-05
1.61945e-05
1.60443e-05
1.60819e-05
1.65312e-05
1.7838e-05
1.84313e-05
1.64882e-05
1.32584e-05
1.00669e-05
1.00011e-05
1e-05
1e-05
1e-05
1e-05
1.43911e-05
0.000156312
0.000441693
0.000169349
0.000993828
0.00257798
1.61114e-05
1.61178e-05
1.61228e-05
1.6127e-05
1.61308e-05
1.61345e-05
1.6138e-05
1.61415e-05
1.6145e-05
1.61484e-05
1.6152e-05
1.61557e-05
1.61598e-05
1.61644e-05
1.61695e-05
1.61751e-05
1.61815e-05
1.61879e-05
1.61931e-05
1.62007e-05
1.62213e-05
1.62393e-05
1.62168e-05
1.61302e-05
1.60876e-05
1.62944e-05
1.68714e-05
1.7745e-05
1.80917e-05
1.63613e-05
1.3685e-05
1.07697e-05
1.00004e-05
1.00001e-05
1e-05
1e-05
1e-05
1e-05
1.00178e-05
2.3294e-05
0.000119774
1.61084e-05
1.61147e-05
1.61197e-05
1.61239e-05
1.61278e-05
1.61315e-05
1.6135e-05
1.61384e-05
1.61419e-05
1.61453e-05
1.61488e-05
1.61523e-05
1.61563e-05
1.61606e-05
1.61654e-05
1.61706e-05
1.61763e-05
1.61825e-05
1.61888e-05
1.61944e-05
1.62023e-05
1.62167e-05
1.62332e-05
1.62275e-05
1.61919e-05
1.61407e-05
1.61738e-05
1.63853e-05
1.68185e-05
1.74536e-05
1.77655e-05
1.71614e-05
1.53536e-05
1.28695e-05
1.09121e-05
1.00092e-05
1.00003e-05
1e-05
1e-05
1e-05
1e-05
1.61056e-05
1.61118e-05
1.61169e-05
1.61212e-05
1.61251e-05
1.61287e-05
1.61322e-05
1.61356e-05
1.6139e-05
1.61424e-05
1.61458e-05
1.61492e-05
1.6153e-05
1.61571e-05
1.61615e-05
1.61664e-05
1.61716e-05
1.61772e-05
1.61832e-05
1.61893e-05
1.61953e-05
1.62027e-05
1.62134e-05
1.62258e-05
1.6232e-05
1.62217e-05
1.61965e-05
1.61756e-05
1.62053e-05
1.63596e-05
1.66281e-05
1.70229e-05
1.74203e-05
1.7476e-05
1.70545e-05
1.57577e-05
1.39354e-05
1.20864e-05
1.07485e-05
1.01183e-05
1.00012e-05
1.6103e-05
1.61093e-05
1.61143e-05
1.61186e-05
1.61225e-05
1.61262e-05
1.61296e-05
1.6133e-05
1.61363e-05
1.61396e-05
1.61429e-05
1.61463e-05
1.61499e-05
1.61537e-05
1.61579e-05
1.61624e-05
1.61672e-05
1.61723e-05
1.61778e-05
1.61835e-05
1.61894e-05
1.61955e-05
1.62021e-05
1.62102e-05
1.62196e-05
1.62282e-05
1.62316e-05
1.62257e-05
1.6211e-05
1.62002e-05
1.62112e-05
1.6272e-05
1.64077e-05
1.66156e-05
1.68667e-05
1.71894e-05
1.73613e-05
1.72658e-05
1.68702e-05
1.61338e-05
1.50789e-05
1.61007e-05
1.61069e-05
1.6112e-05
1.61163e-05
1.61201e-05
1.61237e-05
1.61272e-05
1.61305e-05
1.61337e-05
1.61369e-05
1.61402e-05
1.61435e-05
1.61469e-05
1.61506e-05
1.61545e-05
1.61587e-05
1.61631e-05
1.61678e-05
1.61728e-05
1.61779e-05
1.61834e-05
1.6189e-05
1.61947e-05
1.62006e-05
1.6207e-05
1.62141e-05
1.62216e-05
1.62283e-05
1.6232e-05
1.62307e-05
1.6225e-05
1.62172e-05
1.62144e-05
1.62272e-05
1.62627e-05
1.63393e-05
1.64564e-05
1.66054e-05
1.67727e-05
1.69526e-05
1.71331e-05
1.60986e-05
1.61047e-05
1.61098e-05
1.6114e-05
1.61179e-05
1.61214e-05
1.61248e-05
1.6128e-05
1.61312e-05
1.61343e-05
1.61375e-05
1.61407e-05
1.6144e-05
1.61475e-05
1.61512e-05
1.61551e-05
1.61592e-05
1.61636e-05
1.61681e-05
1.61728e-05
1.61777e-05
1.61827e-05
1.61878e-05
1.6193e-05
1.61982e-05
1.62034e-05
1.62089e-05
1.62146e-05
1.62204e-05
1.62257e-05
1.62298e-05
1.62317e-05
1.6231e-05
1.62279e-05
1.62237e-05
1.62204e-05
1.62217e-05
1.62316e-05
1.62526e-05
1.62905e-05
1.6336e-05
1.60966e-05
1.61027e-05
1.61077e-05
1.61119e-05
1.61157e-05
1.61191e-05
1.61224e-05
1.61256e-05
1.61287e-05
1.61318e-05
1.61348e-05
1.61379e-05
1.61411e-05
1.61444e-05
1.61479e-05
1.61516e-05
1.61555e-05
1.61595e-05
1.61636e-05
1.61679e-05
1.61723e-05
1.61768e-05
1.61814e-05
1.61859e-05
1.61905e-05
1.61949e-05
1.61993e-05
1.62036e-05
1.62079e-05
1.62121e-05
1.62163e-05
1.62202e-05
1.62236e-05
1.62263e-05
1.62278e-05
1.6228e-05
1.62268e-05
1.62245e-05
1.62214e-05
1.62183e-05
1.62161e-05
1.60948e-05
1.61008e-05
1.61057e-05
1.61098e-05
1.61135e-05
1.61169e-05
1.61201e-05
1.61232e-05
1.61262e-05
1.61292e-05
1.61322e-05
1.61352e-05
1.61383e-05
1.61415e-05
1.61448e-05
1.61482e-05
1.61518e-05
1.61555e-05
1.61593e-05
1.61632e-05
1.61673e-05
1.61713e-05
1.61754e-05
1.61794e-05
1.61833e-05
1.61872e-05
1.61909e-05
1.61945e-05
1.61979e-05
1.62012e-05
1.62042e-05
1.62071e-05
1.62098e-05
1.62122e-05
1.62144e-05
1.62162e-05
1.62176e-05
1.62185e-05
1.62188e-05
1.62184e-05
1.62178e-05
1.60932e-05
1.6099e-05
1.61037e-05
1.61077e-05
1.61113e-05
1.61146e-05
1.61177e-05
1.61208e-05
1.61237e-05
1.61267e-05
1.61296e-05
1.61325e-05
1.61355e-05
1.61385e-05
1.61417e-05
1.6145e-05
1.61483e-05
1.61518e-05
1.61553e-05
1.61589e-05
1.61625e-05
1.61662e-05
1.61698e-05
1.61733e-05
1.61768e-05
1.61801e-05
1.61833e-05
1.61863e-05
1.61892e-05
1.61918e-05
1.61943e-05
1.61965e-05
1.61984e-05
1.62001e-05
1.62016e-05
1.62028e-05
1.62037e-05
1.62044e-05
1.62047e-05
1.6205e-05
1.62047e-05
1.60916e-05
1.60972e-05
1.61018e-05
1.61056e-05
1.61091e-05
1.61123e-05
1.61154e-05
1.61183e-05
1.61212e-05
1.61241e-05
1.6127e-05
1.61298e-05
1.61327e-05
1.61356e-05
1.61387e-05
1.61418e-05
1.61449e-05
1.61482e-05
1.61514e-05
1.61547e-05
1.61581e-05
1.61614e-05
1.61647e-05
1.61678e-05
1.61708e-05
1.61737e-05
1.61765e-05
1.61791e-05
1.61814e-05
1.61836e-05
1.61856e-05
1.61873e-05
1.61888e-05
1.61901e-05
1.61911e-05
1.61919e-05
1.61924e-05
1.61927e-05
1.61926e-05
1.61926e-05
1.61918e-05
1.60901e-05
1.60955e-05
1.60998e-05
1.61035e-05
1.61068e-05
1.61099e-05
1.61129e-05
1.61158e-05
1.61187e-05
1.61215e-05
1.61243e-05
1.61271e-05
1.61299e-05
1.61328e-05
1.61357e-05
1.61386e-05
1.61416e-05
1.61447e-05
1.61477e-05
1.61508e-05
1.61539e-05
1.61569e-05
1.61599e-05
1.61627e-05
1.61654e-05
1.6168e-05
1.61703e-05
1.61726e-05
1.61746e-05
1.61764e-05
1.6178e-05
1.61794e-05
1.61806e-05
1.61816e-05
1.61823e-05
1.61828e-05
1.6183e-05
1.61831e-05
1.61829e-05
1.61827e-05
1.61816e-05
1.60887e-05
1.60938e-05
1.60979e-05
1.61013e-05
1.61045e-05
1.61075e-05
1.61104e-05
1.61132e-05
1.6116e-05
1.61188e-05
1.61216e-05
1.61243e-05
1.61271e-05
1.61299e-05
1.61327e-05
1.61355e-05
1.61384e-05
1.61413e-05
1.61441e-05
1.6147e-05
1.61499e-05
1.61527e-05
1.61554e-05
1.61579e-05
1.61604e-05
1.61626e-05
1.61648e-05
1.61667e-05
1.61684e-05
1.617e-05
1.61714e-05
1.61725e-05
1.61735e-05
1.61742e-05
1.61747e-05
1.6175e-05
1.61751e-05
1.61751e-05
1.61748e-05
1.61744e-05
1.61735e-05
1.60872e-05
1.60921e-05
1.60959e-05
1.60992e-05
1.61022e-05
1.6105e-05
1.61078e-05
1.61106e-05
1.61134e-05
1.61161e-05
1.61188e-05
1.61215e-05
1.61243e-05
1.6127e-05
1.61297e-05
1.61324e-05
1.61352e-05
1.61379e-05
1.61407e-05
1.61434e-05
1.6146e-05
1.61486e-05
1.61511e-05
1.61535e-05
1.61557e-05
1.61577e-05
1.61596e-05
1.61613e-05
1.61629e-05
1.61642e-05
1.61654e-05
1.61663e-05
1.61671e-05
1.61677e-05
1.61681e-05
1.61683e-05
1.61683e-05
1.61682e-05
1.61678e-05
1.61673e-05
1.61668e-05
1.60858e-05
1.60903e-05
1.60939e-05
1.6097e-05
1.60998e-05
1.61026e-05
1.61053e-05
1.6108e-05
1.61107e-05
1.61134e-05
1.61161e-05
1.61187e-05
1.61214e-05
1.61241e-05
1.61267e-05
1.61294e-05
1.6132e-05
1.61347e-05
1.61373e-05
1.61398e-05
1.61423e-05
1.61448e-05
1.61471e-05
1.61492e-05
1.61513e-05
1.61531e-05
1.61548e-05
1.61564e-05
1.61578e-05
1.6159e-05
1.616e-05
1.61608e-05
1.61615e-05
1.61619e-05
1.61623e-05
1.61624e-05
1.61624e-05
1.61622e-05
1.61618e-05
1.61614e-05
1.61613e-05
1.60844e-05
1.60886e-05
1.60919e-05
1.60948e-05
1.60975e-05
1.61002e-05
1.61028e-05
1.61054e-05
1.61081e-05
1.61107e-05
1.61133e-05
1.61159e-05
1.61186e-05
1.61212e-05
1.61237e-05
1.61263e-05
1.61289e-05
1.61314e-05
1.61339e-05
1.61364e-05
1.61387e-05
1.6141e-05
1.61432e-05
1.61452e-05
1.61471e-05
1.61488e-05
1.61504e-05
1.61518e-05
1.6153e-05
1.61541e-05
1.6155e-05
1.61557e-05
1.61563e-05
1.61567e-05
1.6157e-05
1.61571e-05
1.61571e-05
1.61568e-05
1.61568e-05
1.61567e-05
1.61568e-05
1.6083e-05
1.60868e-05
1.60898e-05
1.60926e-05
1.60952e-05
1.60978e-05
1.61004e-05
1.61029e-05
1.61055e-05
1.61081e-05
1.61107e-05
1.61132e-05
1.61158e-05
1.61183e-05
1.61208e-05
1.61233e-05
1.61258e-05
1.61282e-05
1.61306e-05
1.6133e-05
1.61352e-05
1.61374e-05
1.61394e-05
1.61413e-05
1.6143e-05
1.61446e-05
1.61461e-05
1.61474e-05
1.61485e-05
1.61495e-05
1.61504e-05
1.6151e-05
1.61515e-05
1.61519e-05
1.61521e-05
1.61522e-05
1.61521e-05
1.61522e-05
1.61523e-05
1.61525e-05
1.61529e-05
1.60815e-05
1.60849e-05
1.60877e-05
1.60903e-05
1.60929e-05
1.60954e-05
1.60979e-05
1.61005e-05
1.6103e-05
1.61055e-05
1.61081e-05
1.61106e-05
1.61131e-05
1.61156e-05
1.6118e-05
1.61204e-05
1.61228e-05
1.61251e-05
1.61274e-05
1.61296e-05
1.61318e-05
1.61338e-05
1.61357e-05
1.61375e-05
1.61391e-05
1.61406e-05
1.6142e-05
1.61432e-05
1.61442e-05
1.61451e-05
1.61459e-05
1.61465e-05
1.6147e-05
1.61473e-05
1.61475e-05
1.61476e-05
1.61477e-05
1.61479e-05
1.61482e-05
1.61484e-05
1.61489e-05
1.60799e-05
1.60829e-05
1.60856e-05
1.6088e-05
1.60905e-05
1.6093e-05
1.60955e-05
1.6098e-05
1.61005e-05
1.61031e-05
1.61056e-05
1.6108e-05
1.61105e-05
1.61129e-05
1.61153e-05
1.61176e-05
1.61199e-05
1.61221e-05
1.61243e-05
1.61264e-05
1.61284e-05
1.61304e-05
1.61322e-05
1.61338e-05
1.61354e-05
1.61367e-05
1.6138e-05
1.61391e-05
1.61401e-05
1.61409e-05
1.61416e-05
1.61421e-05
1.61426e-05
1.61428e-05
1.6143e-05
1.61432e-05
1.61435e-05
1.61438e-05
1.61443e-05
1.61446e-05
1.61452e-05
1.60782e-05
1.60809e-05
1.60833e-05
1.60857e-05
1.60881e-05
1.60905e-05
1.6093e-05
1.60955e-05
1.6098e-05
1.61005e-05
1.6103e-05
1.61055e-05
1.61079e-05
1.61103e-05
1.61126e-05
1.61149e-05
1.61171e-05
1.61193e-05
1.61213e-05
1.61233e-05
1.61252e-05
1.6127e-05
1.61287e-05
1.61302e-05
1.61316e-05
1.61329e-05
1.61341e-05
1.61351e-05
1.61359e-05
1.61367e-05
1.61373e-05
1.61378e-05
1.61382e-05
1.61385e-05
1.61387e-05
1.61389e-05
1.61392e-05
1.61396e-05
1.614e-05
1.61404e-05
1.6141e-05
1.60765e-05
1.60788e-05
1.6081e-05
1.60832e-05
1.60855e-05
1.60878e-05
1.60903e-05
1.60928e-05
1.60953e-05
1.60979e-05
1.61004e-05
1.61029e-05
1.61053e-05
1.61076e-05
1.61099e-05
1.61121e-05
1.61143e-05
1.61163e-05
1.61183e-05
1.61202e-05
1.6122e-05
1.61237e-05
1.61253e-05
1.61267e-05
1.6128e-05
1.61292e-05
1.61302e-05
1.61311e-05
1.61319e-05
1.61326e-05
1.61331e-05
1.61335e-05
1.61338e-05
1.61341e-05
1.61344e-05
1.61347e-05
1.61351e-05
1.61356e-05
1.61361e-05
1.61365e-05
1.61372e-05
1.60747e-05
1.60766e-05
1.60786e-05
1.60805e-05
1.60827e-05
1.60849e-05
1.60873e-05
1.60897e-05
1.60923e-05
1.60948e-05
1.60974e-05
1.60999e-05
1.61023e-05
1.61047e-05
1.6107e-05
1.61092e-05
1.61114e-05
1.61134e-05
1.61153e-05
1.61171e-05
1.61188e-05
1.61203e-05
1.61218e-05
1.61231e-05
1.61243e-05
1.61254e-05
1.61263e-05
1.61271e-05
1.61278e-05
1.61284e-05
1.61288e-05
1.61292e-05
1.61294e-05
1.61296e-05
1.61298e-05
1.61301e-05
1.61304e-05
1.61308e-05
1.61312e-05
1.61315e-05
1.61321e-05
1.60728e-05
1.60743e-05
1.60759e-05
1.60776e-05
1.60794e-05
1.60815e-05
1.60837e-05
1.60861e-05
1.60885e-05
1.60911e-05
1.60937e-05
1.60962e-05
1.60987e-05
1.61011e-05
1.61034e-05
1.61055e-05
1.61076e-05
1.61095e-05
1.61113e-05
1.6113e-05
1.61146e-05
1.6116e-05
1.61174e-05
1.61185e-05
1.61196e-05
1.61205e-05
1.61213e-05
1.6122e-05
1.61226e-05
1.6123e-05
1.61234e-05
1.61236e-05
1.61238e-05
1.61241e-05
1.61244e-05
1.61248e-05
1.61252e-05
1.61256e-05
1.61261e-05
1.61265e-05
1.61272e-05
1.60708e-05
1.60718e-05
1.60729e-05
1.60741e-05
1.60755e-05
1.60771e-05
1.6079e-05
1.60811e-05
1.60834e-05
1.60858e-05
1.60884e-05
1.6091e-05
1.60936e-05
1.60962e-05
1.60985e-05
1.61007e-05
1.61028e-05
1.61047e-05
1.61065e-05
1.61082e-05
1.61098e-05
1.61112e-05
1.61125e-05
1.61136e-05
1.61146e-05
1.61155e-05
1.61162e-05
1.61168e-05
1.61173e-05
1.61176e-05
1.61179e-05
1.61181e-05
1.61184e-05
1.61187e-05
1.6119e-05
1.61194e-05
1.61198e-05
1.61202e-05
1.61206e-05
1.6121e-05
1.61215e-05
1.60686e-05
1.6069e-05
1.60694e-05
1.60699e-05
1.60705e-05
1.60712e-05
1.60721e-05
1.60732e-05
1.60746e-05
1.60762e-05
1.6078e-05
1.60802e-05
1.60826e-05
1.60854e-05
1.60884e-05
1.60917e-05
1.60945e-05
1.60968e-05
1.60986e-05
1.61e-05
1.6101e-05
1.61018e-05
1.61022e-05
1.61024e-05
1.61024e-05
1.61021e-05
1.6102e-05
1.61021e-05
1.61023e-05
1.61026e-05
1.6103e-05
1.61036e-05
1.61041e-05
1.61047e-05
1.61054e-05
1.61061e-05
1.61068e-05
1.61075e-05
1.61083e-05
1.6109e-05
1.611e-05
0.00144391
0.00252999
0.00332457
0.0026287
0.00106297
0.000241866
2.71497e-05
1.58638e-05
1.65808e-05
1.6736e-05
1.67411e-05
1.67504e-05
1.67554e-05
1.6755e-05
1.67504e-05
1.67427e-05
1.67324e-05
1.67201e-05
1.6706e-05
1.66908e-05
1.66751e-05
1.66593e-05
1.6644e-05
1.66296e-05
1.66163e-05
1.66038e-05
1.65921e-05
1.65812e-05
1.65704e-05
1.65593e-05
1.65481e-05
1.65368e-05
1.6525e-05
1.65124e-05
1.64993e-05
1.64855e-05
1.64705e-05
1.64546e-05
1.64379e-05
1.64213e-05
1.64059e-05
1.63932e-05
1.63846e-05
1.63787e-05
1.63746e-05
1.6371e-05
1.6368e-05
1.63651e-05
1.63617e-05
1.63575e-05
1.63527e-05
1.63472e-05
1.63408e-05
1.63334e-05
1.6325e-05
1.63158e-05
1.63059e-05
1.62953e-05
1.62843e-05
1.62728e-05
1.62611e-05
1.62492e-05
1.62374e-05
1.62257e-05
1.62144e-05
1.62033e-05
1.61927e-05
1.61825e-05
1.61727e-05
1.61634e-05
1.61544e-05
1.61464e-05
1.61382e-05
1.61338e-05
0.0027508
0.00417685
0.00529254
0.00499224
0.00262158
0.000703492
9.80539e-05
1.57252e-05
1.62247e-05
1.67724e-05
1.67884e-05
1.67919e-05
1.67957e-05
1.67936e-05
1.67869e-05
1.67771e-05
1.67648e-05
1.67505e-05
1.67346e-05
1.67178e-05
1.67004e-05
1.6683e-05
1.66661e-05
1.66501e-05
1.66352e-05
1.66211e-05
1.66079e-05
1.65954e-05
1.6583e-05
1.65704e-05
1.65575e-05
1.65446e-05
1.65312e-05
1.65169e-05
1.65019e-05
1.6486e-05
1.64689e-05
1.64511e-05
1.64332e-05
1.64164e-05
1.6402e-05
1.63912e-05
1.6385e-05
1.63811e-05
1.63786e-05
1.63763e-05
1.63744e-05
1.63724e-05
1.63695e-05
1.63658e-05
1.63612e-05
1.63559e-05
1.63495e-05
1.6342e-05
1.63335e-05
1.6324e-05
1.63137e-05
1.63028e-05
1.62912e-05
1.62793e-05
1.62671e-05
1.62547e-05
1.62424e-05
1.62303e-05
1.62185e-05
1.62071e-05
1.61961e-05
1.61855e-05
1.61754e-05
1.61658e-05
1.61565e-05
1.61484e-05
1.614e-05
1.61355e-05
0.00460679
0.00628042
0.00766659
0.00797359
0.00546761
0.00198085
0.000367446
2.49757e-05
1.50513e-05
1.66961e-05
1.68472e-05
1.68325e-05
1.68341e-05
1.68313e-05
1.68231e-05
1.68115e-05
1.67973e-05
1.67813e-05
1.67637e-05
1.67453e-05
1.67263e-05
1.67073e-05
1.66887e-05
1.66711e-05
1.66543e-05
1.66385e-05
1.66236e-05
1.66093e-05
1.65953e-05
1.65809e-05
1.65664e-05
1.65518e-05
1.65365e-05
1.65206e-05
1.65038e-05
1.64859e-05
1.64669e-05
1.64475e-05
1.64289e-05
1.64124e-05
1.63993e-05
1.63904e-05
1.63863e-05
1.63844e-05
1.63834e-05
1.63824e-05
1.63815e-05
1.63803e-05
1.63779e-05
1.63745e-05
1.63701e-05
1.63648e-05
1.63584e-05
1.63508e-05
1.6342e-05
1.63322e-05
1.63216e-05
1.63102e-05
1.62982e-05
1.62857e-05
1.6273e-05
1.62602e-05
1.62474e-05
1.62348e-05
1.62226e-05
1.62107e-05
1.61993e-05
1.61884e-05
1.61779e-05
1.61681e-05
1.61586e-05
1.61503e-05
1.61418e-05
1.61371e-05
0.00711425
0.00902189
0.0107112
0.0114249
0.009421
0.00465784
0.00119326
0.000146142
1.35375e-05
1.59653e-05
1.69487e-05
1.68857e-05
1.68693e-05
1.68672e-05
1.68584e-05
1.68454e-05
1.68298e-05
1.68121e-05
1.6793e-05
1.6773e-05
1.67525e-05
1.67319e-05
1.67118e-05
1.66925e-05
1.66739e-05
1.66562e-05
1.66395e-05
1.66232e-05
1.66072e-05
1.65911e-05
1.65748e-05
1.65583e-05
1.65411e-05
1.65233e-05
1.65049e-05
1.64853e-05
1.64649e-05
1.64445e-05
1.64256e-05
1.64097e-05
1.63978e-05
1.63905e-05
1.63883e-05
1.63882e-05
1.63886e-05
1.63889e-05
1.6389e-05
1.63885e-05
1.63866e-05
1.63835e-05
1.63792e-05
1.63739e-05
1.63672e-05
1.63595e-05
1.63504e-05
1.63403e-05
1.63293e-05
1.63174e-05
1.6305e-05
1.6292e-05
1.62788e-05
1.62655e-05
1.62522e-05
1.62392e-05
1.62265e-05
1.62142e-05
1.62024e-05
1.61911e-05
1.61804e-05
1.61702e-05
1.61605e-05
1.61521e-05
1.61436e-05
1.61387e-05
0.0103486
0.012661
0.0146011
0.0154342
0.0140714
0.00897573
0.00323081
0.000587897
2.70737e-05
1.32578e-05
1.67866e-05
1.70272e-05
1.69107e-05
1.68992e-05
1.68922e-05
1.68788e-05
1.68621e-05
1.68431e-05
1.68226e-05
1.68012e-05
1.67791e-05
1.67571e-05
1.67355e-05
1.67145e-05
1.66941e-05
1.66745e-05
1.66558e-05
1.66375e-05
1.66194e-05
1.66012e-05
1.6583e-05
1.65645e-05
1.65451e-05
1.65253e-05
1.65053e-05
1.64845e-05
1.64633e-05
1.64424e-05
1.64237e-05
1.64084e-05
1.63975e-05
1.63917e-05
1.63906e-05
1.63921e-05
1.63939e-05
1.63955e-05
1.63966e-05
1.63967e-05
1.63953e-05
1.63925e-05
1.63884e-05
1.63829e-05
1.63761e-05
1.6368e-05
1.63586e-05
1.63481e-05
1.63367e-05
1.63244e-05
1.63115e-05
1.62981e-05
1.62844e-05
1.62706e-05
1.62568e-05
1.62433e-05
1.62302e-05
1.62175e-05
1.62053e-05
1.61937e-05
1.61826e-05
1.61723e-05
1.61624e-05
1.61538e-05
1.61452e-05
1.61402e-05
0.014418
0.0170309
0.0191675
0.0200665
0.0191722
0.0146306
0.00711128
0.00188642
0.000234814
1.11312e-05
1.45493e-05
1.71532e-05
1.70201e-05
1.69322e-05
1.69228e-05
1.69114e-05
1.68945e-05
1.68746e-05
1.6853e-05
1.68302e-05
1.68066e-05
1.6783e-05
1.67599e-05
1.67373e-05
1.67151e-05
1.66937e-05
1.66731e-05
1.66527e-05
1.66323e-05
1.66119e-05
1.65915e-05
1.65708e-05
1.65492e-05
1.65273e-05
1.65056e-05
1.6484e-05
1.64624e-05
1.64417e-05
1.64234e-05
1.64089e-05
1.63989e-05
1.63938e-05
1.63933e-05
1.63959e-05
1.6399e-05
1.64017e-05
1.64038e-05
1.64046e-05
1.64038e-05
1.64013e-05
1.63974e-05
1.63918e-05
1.63848e-05
1.63763e-05
1.63666e-05
1.63557e-05
1.63439e-05
1.63312e-05
1.63178e-05
1.63039e-05
1.62897e-05
1.62754e-05
1.62612e-05
1.62473e-05
1.62337e-05
1.62206e-05
1.62081e-05
1.61961e-05
1.61848e-05
1.61742e-05
1.61642e-05
1.61555e-05
1.61469e-05
1.61416e-05
0.019363
0.0221308
0.0243279
0.025305
0.0246972
0.021082
0.013017
0.00483047
0.000948838
5.26633e-05
1.11864e-05
1.60786e-05
1.72321e-05
1.70193e-05
1.69519e-05
1.69423e-05
1.69272e-05
1.69071e-05
1.68846e-05
1.68606e-05
1.68355e-05
1.68103e-05
1.67855e-05
1.67613e-05
1.67373e-05
1.67141e-05
1.66916e-05
1.66692e-05
1.66466e-05
1.66238e-05
1.66011e-05
1.6578e-05
1.65541e-05
1.65302e-05
1.65067e-05
1.64841e-05
1.64626e-05
1.64426e-05
1.64251e-05
1.64113e-05
1.6402e-05
1.63974e-05
1.63971e-05
1.63997e-05
1.64036e-05
1.64074e-05
1.64104e-05
1.64119e-05
1.64116e-05
1.64096e-05
1.64059e-05
1.64004e-05
1.63932e-05
1.63844e-05
1.63743e-05
1.6363e-05
1.63508e-05
1.63376e-05
1.63237e-05
1.63094e-05
1.62947e-05
1.628e-05
1.62653e-05
1.6251e-05
1.6237e-05
1.62236e-05
1.62107e-05
1.61984e-05
1.61868e-05
1.6176e-05
1.61659e-05
1.61571e-05
1.61485e-05
1.61431e-05
0.0251176
0.0277375
0.0298641
0.0310235
0.0307051
0.027959
0.0205333
0.0100754
0.00288823
0.000416122
1.11194e-05
1.23622e-05
1.69602e-05
1.72768e-05
1.70242e-05
1.69727e-05
1.69599e-05
1.69411e-05
1.69182e-05
1.68932e-05
1.68668e-05
1.68399e-05
1.68133e-05
1.67871e-05
1.67613e-05
1.67362e-05
1.67118e-05
1.66874e-05
1.66626e-05
1.66377e-05
1.66126e-05
1.65871e-05
1.65609e-05
1.65349e-05
1.65096e-05
1.6486e-05
1.64645e-05
1.64453e-05
1.6429e-05
1.6416e-05
1.64072e-05
1.64028e-05
1.64024e-05
1.64047e-05
1.64083e-05
1.64123e-05
1.64161e-05