/*--------------------------------*- C++ -*----------------------------------*\
| =========                 |                                                 |
| \\      /  F ield         | OpenFOAM: The Open Source CFD Toolbox           |
|  \\    /   O peration     | Version:  2312                                  |
|   \\  /    A nd           | Website:  www.openfoam.com                      |
|    \\/     M anipulation  |                                                 |
\*---------------------------------------------------------------------------*/
FoamFile
{
    version     2.0;
    format      ascii;
    arch        "LSB;label=32;scalar=64";
    class       volSymmTensorField;
    location    "100";
    object      turbulenceProperties:devReff;
}
// * * * * * * * * * * * * * * * * * * * * * * * * * * * * * * * * * * * * * //

dimensions      [0 2 -2 0 0 0 0];

internalField   nonuniform List<symmTensor> 
11040
(
(0.0156293 0.0300587 7.66156e-22 -0.0184467 -3.28517e-21 0.00281744)
(0.0627161 0.0382649 1.02739e-20 -0.0732299 4.25304e-20 0.0105138)
(0.108797 0.0215361 7.97156e-20 -0.121157 1.92979e-19 0.0123598)
(0.0873563 -0.000922647 -5.22312e-20 -0.088784 -3.43037e-21 0.00142764)
(0.00556536 -0.000548608 -7.68781e-22 -0.00518211 1.58278e-20 -0.000383256)
(0.00132674 0.000308991 -3.36627e-20 -0.00166651 2.74214e-20 0.000339772)
(-0.0118531 0.0135558 5.65933e-20 0.0131631 -4.31844e-19 -0.00130999)
(-0.0176211 0.0239205 1.05466e-19 0.018876 -1.40978e-20 -0.00125484)
(-0.0197334 0.0316253 5.63762e-20 0.020918 -9.74133e-21 -0.00118461)
(-0.0174985 0.0322632 4.7256e-20 0.018741 7.56792e-20 -0.00124252)
(-0.0158294 0.0340793 -4.28451e-20 0.0172553 1.773e-19 -0.00142589)
(-0.0137924 0.0364716 -5.80578e-20 0.0145039 1.3334e-19 -0.00071141)
(-0.0113142 0.0375604 1.41577e-20 0.0110281 -7.95142e-20 0.000286033)
(-0.00911924 0.0366779 1.47925e-20 0.00854923 7.29005e-20 0.000570016)
(-0.00682812 0.0320524 -3.88717e-21 0.00691136 6.64902e-21 -8.32428e-05)
(-0.00583828 0.0336384 1.40125e-21 0.00658403 -8.5732e-20 -0.000745749)
(-0.00549344 0.041367 2.47892e-20 0.00641715 -2.04628e-21 -0.000923707)
(-0.00561787 0.0481312 -5.21567e-21 0.00650242 1.60915e-19 -0.000884549)
(-0.00611727 0.0375363 -1.22433e-20 0.00735337 -1.76936e-21 -0.0012361)
(-0.00979155 0.0143764 1.32114e-21 0.0125821 -1.7785e-20 -0.00279056)
(-0.01664 -0.0335696 3.02228e-21 0.0212268 1.1459e-20 -0.0045868)
(-0.0245081 -0.0998306 8.66159e-21 0.029305 1.68511e-20 -0.00479693)
(-0.037844 -0.200784 -1.66845e-20 0.0418705 -1.46557e-20 -0.00402646)
(-0.0464137 -0.280503 7.16158e-21 0.0478244 4.34022e-20 -0.0014107)
(-0.0488858 -0.309805 -4.14994e-20 0.0484818 -4.56465e-20 0.000404015)
(-0.0485775 -0.296745 -4.15224e-21 0.0478305 -1.18123e-19 0.00074705)
(-0.0495019 -0.274351 -1.73902e-20 0.0494198 -5.37931e-20 8.21771e-05)
(-0.047081 -0.243699 -6.56814e-20 0.0475831 1.7161e-20 -0.000502148)
(-0.0362995 -0.188821 -2.70727e-20 0.0368098 -4.23854e-20 -0.000510298)
(-0.0236456 -0.136074 2.51151e-20 0.0236894 -1.08514e-19 -4.38667e-05)
(-0.0102176 -0.0666724 3.24505e-20 0.00932725 8.78419e-20 0.000890323)
(-0.0133428 -0.0560373 5.33292e-20 0.0123052 2.61031e-20 0.00103763)
(-0.0301808 -0.0789268 9.74612e-20 0.030543 2.49912e-19 -0.000362136)
(-0.0580465 -0.135012 -7.25291e-21 0.0596285 1.33282e-19 -0.00158197)
(-0.12454 -0.285244 5.73438e-20 0.127682 -1.23325e-20 -0.00314276)
(-0.181893 -0.417512 2.17965e-19 0.184997 1.81462e-19 -0.00310368)
(-0.262917 -0.600494 -6.05283e-20 0.266424 9.78567e-20 -0.00350669)
(-0.362615 -0.823236 4.10955e-20 0.366025 1.77607e-19 -0.00341041)
(-0.469373 -1.05325 -6.16507e-19 0.472505 -3.79294e-19 -0.00313224)
(-0.557265 -1.27013 -9.67679e-20 0.560065 -4.06839e-19 -0.00280023)
(-0.547478 -1.21103 1.28417e-19 0.545431 -4.22793e-20 0.00204667)
(0.00541462 -0.00568041 -5.68172e-22 -0.00432876 2.41248e-23 -0.00108586)
(0.00330094 -0.00751858 7.91087e-21 -0.000508456 2.38961e-21 -0.00279248)
(0.0136787 -0.00749277 -6.7085e-20 -0.00853911 -1.46004e-19 -0.0051396)
(0.0633007 -0.00369958 -1.82215e-20 -0.0603958 -4.32434e-20 -0.00290493)
(0.096696 -0.0152333 8.36934e-21 -0.0997052 -6.98454e-20 0.00300927)
(0.107616 -0.0364122 1.0361e-19 -0.108282 -3.65664e-19 0.000665646)
(0.19944 -0.118196 -5.35021e-19 -0.208053 1.82935e-18 0.00861288)
(0.129684 -0.122899 -6.39259e-19 -0.139757 1.70381e-18 0.0100735)
(0.0662099 -0.0760424 -9.28799e-20 -0.0714918 -2.79619e-19 0.00528188)
(0.0387332 -0.0549224 -1.02126e-19 -0.0442935 2.76426e-20 0.00556029)
(0.0253337 -0.0471229 3.83912e-19 -0.0264305 -9.9848e-19 0.0010968)
(0.017393 -0.0419805 -1.86389e-20 -0.0155847 -8.81357e-20 -0.00180831)
(0.0121323 -0.0336251 -1.51858e-19 -0.0118245 5.65947e-19 -0.0003078)
(0.00901801 -0.0261178 -1.06939e-19 -0.0122919 4.90793e-20 0.00327385)
(0.00811356 -0.025826 -3.65248e-20 -0.012708 -1.5054e-19 0.00459448)
(0.00909882 -0.0333527 1.12405e-22 -0.0127135 4.78323e-19 0.00361463)
(0.00967521 -0.0422738 -2.04804e-20 -0.0131741 1.67884e-19 0.00349892)
(0.00623646 -0.0493787 -1.13819e-20 -0.0124756 -4.75335e-19 0.00623913)
(-0.00399707 -0.0531711 -2.25694e-20 -0.00768698 -1.8835e-20 0.011684)
(-0.0216727 -0.0592622 -1.73295e-21 0.00665654 6.88626e-20 0.0150162)
(-0.0396307 -0.0635702 -9.13665e-21 0.0257427 -2.71604e-20 0.013888)
(-0.0478045 -0.0539893 -3.44459e-20 0.04022 -8.17092e-20 0.00758457)
(-0.0404431 -0.037474 1.0448e-19 0.0387817 7.71358e-20 0.00166136)
(-0.0251123 -0.0206972 1.7514e-20 0.0264147 -8.43727e-20 -0.00130244)
(-0.0110199 -0.0138337 2.83437e-20 0.0126148 6.66602e-20 -0.00159492)
(-0.00199675 -0.0177551 -4.16625e-20 0.00293867 2.16803e-19 -0.000941914)
(0.00532675 -0.0139993 -5.62628e-21 -0.00453849 1.20282e-19 -0.000788257)
(0.016217 0.00101769 1.97045e-19 -0.0158296 2.58946e-20 -0.000387424)
(0.0325053 0.0218414 -4.30986e-21 -0.0326076 8.328e-20 0.000102282)
(0.0448207 0.0389515 -8.20389e-20 -0.0445577 1.7822e-19 -0.000263058)
(0.03748 0.0408248 -1.6097e-19 -0.0356072 -3.93052e-19 -0.00187281)
(-0.00109454 0.0139823 -2.71776e-19 0.00185893 -5.88637e-19 -0.000764395)
(-0.0440898 -0.016645 -3.52763e-19 0.0412675 -1.22856e-18 0.00282232)
(-0.0767737 -0.0359256 -2.05774e-19 0.0718621 -4.77615e-19 0.00491159)
(-0.103533 -0.0468125 1.35049e-19 0.0994986 -4.68463e-21 0.00403435)
(-0.122422 -0.0532137 -8.73163e-19 0.12003 -7.85938e-19 0.00239207)
(-0.136032 -0.0591923 7.59478e-19 0.136049 -3.02638e-19 -1.6843e-05)
(-0.14061 -0.0669789 -8.04201e-19 0.142888 -2.13593e-19 -0.00227787)
(-0.137501 -0.0795685 5.69476e-19 0.141192 9.49795e-19 -0.00369152)
(-0.107993 -0.0975038 6.52055e-19 0.115423 8.40958e-19 -0.00743035)
(-0.085681 -0.168376 -1.22759e-18 0.0669889 9.55211e-20 0.0186921)
(0.00274797 -0.0033461 -7.80813e-23 -0.00266818 -7.67147e-24 -7.97962e-05)
(-0.00108951 -0.00294657 -1.13486e-20 0.000803634 -1.53349e-20 0.000285877)
(-0.00168752 -0.00156054 1.68391e-20 0.00147744 3.12369e-20 0.000210071)
(0.00287775 -0.000991344 4.83788e-20 -0.00276742 4.58629e-20 -0.000110328)
(0.0270605 -0.00313947 -7.48502e-21 -0.0266724 -8.82973e-21 -0.000388094)
(0.0625466 -0.013342 3.85939e-21 -0.0630936 6.14771e-20 0.000547)
(0.176851 -0.0655529 1.22747e-19 -0.178448 7.30525e-20 0.00159779)
(0.2604 -0.143026 3.20838e-19 -0.260297 -8.52395e-19 -0.000103086)
(0.213667 -0.179787 -1.55773e-19 -0.218314 -9.73862e-20 0.00464681)
(0.116279 -0.138639 1.53525e-19 -0.12253 -4.23205e-19 0.00625081)
(0.070076 -0.106997 -3.91749e-19 -0.0731281 8.39346e-19 0.00305208)
(0.0491255 -0.100005 5.75036e-19 -0.0448815 -1.65083e-18 -0.00424402)
(0.0314106 -0.08851 6.04939e-21 -0.0235185 -5.11678e-20 -0.00789207)
(0.016122 -0.0692002 1.27935e-19 -0.0126549 -7.22249e-19 -0.00346713)
(0.00867641 -0.0561533 1.49157e-20 -0.0101911 7.75596e-19 0.00151473)
(0.00878627 -0.0592584 -6.66616e-20 -0.0102417 -2.94598e-19 0.00145538)
(0.00891976 -0.0721169 9.83406e-21 -0.00753407 -4.86461e-19 -0.00138568)
(-0.00187538 -0.0809356 5.14958e-20 0.00440133 -3.26182e-19 -0.00252594)
(-0.0281114 -0.0789582 8.79263e-21 0.0268263 -9.58295e-21 0.0012851)
(-0.0643037 -0.0633724 2.71328e-21 0.058617 1.75731e-20 0.00568671)
(-0.0931923 -0.0388288 4.04305e-20 0.0861905 1.71015e-20 0.00700179)
(-0.0995837 -0.0146695 6.45411e-20 0.0955674 1.28157e-20 0.00401626)
(-0.0767542 0.00621345 -3.96175e-20 0.076041 -9.48772e-20 0.000713187)
(-0.0407226 0.0233338 5.4877e-21 0.0414054 -4.43214e-20 -0.000682736)
(-0.00828283 0.0352623 -1.36898e-19 0.0083882 -5.36735e-20 -0.000105365)
(0.0167918 0.0435823 3.3927e-19 -0.0178038 -8.38154e-20 0.00101206)
(0.0416683 0.0590601 2.00551e-19 -0.0428408 4.2188e-20 0.00117251)
(0.0750818 0.0955261 -3.76544e-19 -0.0769298 -2.40955e-19 0.00184805)
(0.109011 0.135938 -2.05169e-20 -0.111397 5.78329e-20 0.00238541)
(0.109752 0.136732 1.28275e-19 -0.111896 2.89606e-19 0.00214435)
(0.0596406 0.0885888 1.81583e-19 -0.0592217 2.29326e-19 -0.000418894)
(-0.0292136 0.0292549 3.83259e-20 0.0284889 9.77345e-19 0.000724701)
(-0.106916 -0.000193431 4.6588e-19 0.103017 2.04803e-19 0.00389862)
(-0.164368 -0.0106232 7.3538e-19 0.158258 2.7328e-20 0.00611011)
(-0.207867 -0.0112199 -3.90603e-19 0.200995 -1.95524e-19 0.00687211)
(-0.23791 -0.00807289 -9.53654e-19 0.230879 7.82756e-19 0.00703167)
(-0.254985 -0.00508858 -1.86866e-18 0.248514 -3.97267e-20 0.00647148)
(-0.253678 -0.00684709 2.67807e-18 0.248457 -8.81931e-20 0.00522059)
(-0.237342 -0.0208746 4.86242e-19 0.233091 -4.50143e-19 0.00425116)
(-0.178206 -0.0506738 1.02416e-18 0.179304 -3.15255e-19 -0.00109883)
(-0.162162 -0.164899 2.22902e-18 0.156779 3.57513e-19 0.00538331)
(0.00197743 -0.0022755 -1.58038e-23 -0.00199096 -7.77552e-22 1.35314e-05)
(9.58536e-06 -0.00235305 7.45018e-22 -3.80414e-05 2.23019e-21 2.84561e-05)
(-0.00127157 -0.00141453 -1.2809e-20 0.00110138 -1.81013e-20 0.000170187)
(-0.0014216 -0.000748732 -1.98693e-20 0.00129435 -2.24613e-20 0.000127256)
(9.97729e-05 -0.000545113 5.29489e-21 -9.48834e-05 4.75928e-21 -4.88949e-06)
(0.00770189 -0.00121253 3.12443e-20 -0.00752864 2.22859e-20 -0.000173251)
(0.0399944 -0.00943745 -9.52092e-21 -0.0398217 -4.36709e-20 -0.000172622)
(0.140637 -0.050731 3.01224e-20 -0.141215 -1.40977e-19 0.00057795)
(0.262131 -0.137745 -5.01039e-20 -0.261734 3.31773e-19 -0.000396822)
(0.266162 -0.200098 -3.1285e-20 -0.268788 6.66697e-20 0.00262588)
(0.180241 -0.195007 -2.67701e-20 -0.189563 6.12471e-19 0.00932257)
(0.113392 -0.167318 -4.47271e-19 -0.116134 7.15489e-19 0.00274204)
(0.0774057 -0.150181 3.49808e-19 -0.0704339 -5.91746e-19 -0.00697173)
(0.0456602 -0.125446 7.41789e-21 -0.0389169 5.84786e-19 -0.0067433)
(0.0211168 -0.0971064 -1.2553e-19 -0.0211864 -8.05543e-19 6.95752e-05)
(0.0125126 -0.0863606 -9.20513e-20 -0.0152792 -3.32317e-19 0.00276658)
(0.0129969 -0.0980659 3.31557e-20 -0.0128168 1.76795e-19 -0.000180098)
(0.000741211 -0.109257 9.8484e-20 0.00244503 2.819e-21 -0.00318624)
(-0.0391611 -0.0998198 2.28798e-20 0.0405751 3.32978e-20 -0.001414)
(-0.0955754 -0.060589 -7.61819e-21 0.0927628 -3.27625e-20 0.00281251)
(-0.141188 -0.00628715 -2.74145e-20 0.137138 -3.5283e-20 0.00404987)
(-0.154192 0.0384319 -1.31623e-19 0.152849 -2.37915e-20 0.0013436)
(-0.120592 0.065877 -6.96363e-20 0.122192 -1.7322e-20 -0.00160001)
(-0.0612473 0.0812169 -1.41524e-19 0.063455 4.70963e-20 -0.00220768)
(-0.0044903 0.090697 -2.26462e-19 0.00478945 1.97043e-19 -0.000299156)
(0.0437181 0.103129 -9.20939e-19 -0.0457691 -1.25794e-19 0.00205102)
(0.0955371 0.130256 9.2932e-20 -0.0980392 -1.43275e-19 0.00250206)
(0.155364 0.17532 2.0497e-19 -0.157994 3.33253e-19 0.00262952)
(0.187902 0.205754 3.24878e-19 -0.190712 1.13064e-19 0.00281037)
(0.146863 0.172847 7.98065e-20 -0.148883 -1.1642e-19 0.00202058)
(0.0423682 0.101458 -2.43425e-19 -0.0423635 -3.48481e-19 -4.62183e-06)
(-0.0888315 0.0494234 2.28458e-19 0.0881057 1.70414e-19 0.000725831)
(-0.198982 0.0322966 -1.36458e-18 0.19605 2.75149e-19 0.00293256)
(-0.284764 0.0369731 -4.76323e-19 0.281023 -1.87479e-19 0.00374084)
(-0.34925 0.0532582 -6.20583e-19 0.345005 4.41231e-19 0.004245)
(-0.392747 0.0735469 -8.70325e-20 0.389007 6.53675e-19 0.00374038)
(-0.413911 0.0904652 1.83856e-19 0.410805 5.32334e-19 0.00310636)
(-0.407339 0.0973754 2.13318e-19 0.406767 -9.29328e-19 0.000571903)
(-0.376938 0.0789346 -1.32445e-18 0.37713 8.59418e-20 -0.000192469)
(-0.295388 0.035022 2.15856e-18 0.304647 -1.35882e-18 -0.00925887)
(-0.252353 -0.134864 -9.66492e-19 0.244225 -2.36718e-19 0.00812819)
(0.00149485 -0.0014841 1.73428e-21 -0.00147874 2.5816e-21 -1.61177e-05)
(0.000302826 -0.00182383 -2.40854e-21 -0.000256017 -4.04245e-21 -4.68087e-05)
(-0.000539406 -0.00148086 1.29927e-20 0.000598142 1.51968e-20 -5.87362e-05)
(-0.00101801 -0.000897011 1.69544e-20 0.00103666 1.80972e-20 -1.86525e-05)
(-0.00114767 -0.000482817 -1.6815e-20 0.00113118 -1.57268e-20 1.64949e-05)
(-0.000489235 -0.000228234 2.03541e-21 0.000486645 1.44783e-22 2.5904e-06)
(0.00169916 -0.000293841 -2.92388e-21 -0.00165967 -2.31145e-21 -3.94892e-05)
(0.0173148 -0.0039221 -3.39986e-20 -0.0171274 -1.75019e-20 -0.000187371)
(0.0916686 -0.0322359 4.23693e-20 -0.0912235 4.70159e-21 -0.000445168)
(0.214243 -0.108577 2.28083e-20 -0.21422 9.91172e-20 -2.31427e-05)
(0.277617 -0.195347 3.23223e-19 -0.281861 -4.71415e-19 0.00424395)
(0.237306 -0.232799 -1.40855e-19 -0.246751 1.00594e-19 0.00944464)
(0.168119 -0.22638 -1.30017e-19 -0.170007 9.84098e-20 0.00188758)
(0.108999 -0.197566 1.21886e-19 -0.10228 -1.34228e-18 -0.0067191)
(0.0600533 -0.158919 1.56779e-19 -0.0571094 1.32642e-19 -0.00294389)
(0.030561 -0.13109 1.18056e-19 -0.0333908 9.37097e-20 0.00282984)
(0.022599 -0.132272 -6.7818e-20 -0.0246333 4.09613e-19 0.00203432)
(0.0110892 -0.144443 -5.75387e-20 -0.00963292 7.41554e-20 -0.00145624)
(-0.0356433 -0.128711 3.83249e-20 0.0367091 -1.62175e-20 -0.00106586)
(-0.108957 -0.068706 -1.40689e-20 0.105644 4.384e-20 0.00331353)
(-0.175174 0.0122741 6.2276e-20 0.1713 4.22644e-20 0.00387386)
(-0.204136 0.0797748 -1.5174e-20 0.204452 2.73872e-20 -0.000315885)
(-0.169364 0.118056 -2.44592e-19 0.17378 1.00114e-19 -0.00441591)
(-0.0884266 0.135276 3.75118e-19 0.0934396 2.40079e-20 -0.00501303)
(-3.88938e-05 0.143067 7.63841e-19 0.00154934 -1.1164e-19 -0.00151045)
(0.0828363 0.159577 4.06501e-19 -0.0856539 4.51541e-19 0.00281758)
(0.172109 0.195334 -8.45658e-20 -0.176305 4.3785e-21 0.00419622)
(0.247656 0.229604 4.59125e-19 -0.250674 -1.54795e-19 0.00301772)
(0.247656 0.229168 -1.73902e-19 -0.250881 -3.36048e-19 0.0032251)
(0.150587 0.175705 -1.93601e-19 -0.150874 -2.47015e-19 0.000286868)
(-0.00890884 0.111864 2.93482e-19 0.00834222 5.55488e-19 0.000566621)
(-0.17423 0.0818913 -1.40015e-20 0.172739 -3.09361e-19 0.0014904)
(-0.315285 0.0801252 1.70622e-18 0.311641 2.01939e-19 0.00364362)
(-0.431392 0.101793 1.07365e-18 0.427842 -6.03249e-19 0.00354998)
(-0.518799 0.137035 1.03263e-18 0.514407 -3.13894e-19 0.00439158)
(-0.577032 0.176247 1.40331e-18 0.573493 -1.80943e-19 0.00353888)
(-0.602604 0.206895 -1.03779e-18 0.599208 4.58144e-19 0.0033961)
(-0.592218 0.220426 -6.78448e-21 0.592021 -9.72002e-20 0.000197363)
(-0.550586 0.192226 -1.21022e-18 0.550432 1.12103e-18 0.000154126)
(-0.457219 0.127211 -5.1231e-18 0.466834 8.07373e-19 -0.00961534)
(-0.393642 -0.0873177 3.79889e-18 0.38143 -1.11863e-18 0.0122128)
(0.00106893 -0.000953697 -1.96118e-21 -0.00106523 -2.20369e-21 -3.70575e-06)
(0.000404204 -0.00125525 8.64346e-21 -0.000386332 8.03656e-21 -1.78712e-05)
(-0.000215031 -0.00115572 -5.10728e-21 0.000226523 -4.03724e-21 -1.14923e-05)
(-0.000599671 -0.000831055 -4.49407e-21 0.000607386 -5.38347e-21 -7.71559e-06)
(-0.000810153 -0.000477924 3.44077e-21 0.000806974 4.27925e-21 3.17868e-06)
(-0.000907724 -0.000239469 -2.42089e-21 0.000886964 -1.79617e-21 2.07602e-05)
(-0.000510679 -6.72152e-05 -3.33974e-21 0.000491438 -2.49097e-21 1.92412e-05)
(0.000324057 -5.30389e-05 -3.98419e-22 -0.00031936 4.18626e-22 -4.69722e-06)
(0.00451826 -0.000973656 -2.06787e-22 -0.00443339 7.22489e-22 -8.48778e-05)
(0.0495033 -0.0169484 -9.63463e-20 -0.0490288 -7.25336e-20 -0.000474521)
(0.144958 -0.0706984 -1.20372e-19 -0.145849 -6.49341e-20 0.000890614)
(0.236859 -0.154305 1.11167e-19 -0.242138 -2.17996e-20 0.00527849)
(0.259727 -0.224033 -1.10838e-19 -0.265664 3.36359e-20 0.00593675)
(0.214445 -0.251275 -1.67022e-19 -0.214078 3.87113e-19 -0.000366826)
(0.141853 -0.232392 2.55932e-19 -0.138785 3.51193e-19 -0.00306762)
(0.0817092 -0.196935 -2.41526e-19 -0.0827326 -7.65013e-20 0.00102337)
(0.050954 -0.182954 9.07211e-20 -0.0535473 -5.2103e-19 0.00259328)
(0.0336875 -0.191181 -3.96583e-20 -0.0339399 3.46922e-19 0.000252387)
(-0.0131239 -0.176997 1.47711e-20 0.0132016 -3.73146e-20 -7.76748e-05)
(-0.0972574 -0.102307 2.72913e-21 0.0923633 9.32113e-20 0.00489413)
(-0.184198 -0.000414988 -8.07164e-21 0.178909 -8.66399e-20 0.00528973)
(-0.235599 0.0871301 -6.91744e-20 0.236561 3.27904e-20 -0.000961939)
(-0.214485 0.139549 1.62194e-19 0.221629 -3.93643e-20 -0.00714365)
(-0.120301 0.165162 5.07789e-20 0.128174 -1.02924e-19 -0.00787237)
(0.00528923 0.178137 -9.45543e-19 -0.00241964 -5.96498e-20 -0.00286959)
(0.136767 0.202025 7.01886e-19 -0.140595 -1.41105e-19 0.00382802)
(0.262599 0.236275 -2.51932e-20 -0.26882 -6.24551e-20 0.00622054)
(0.335005 0.251339 -7.89864e-19 -0.339099 -3.46642e-19 0.0040936)
(0.278185 0.220573 -2.68622e-19 -0.281261 -1.95743e-19 0.00307623)
(0.116927 0.169291 2.91626e-19 -0.116013 4.47407e-19 -0.00091468)
(-0.0887831 0.1372 7.7042e-20 0.0870466 -2.05098e-19 0.00173643)
(-0.281918 0.13356 -5.48388e-20 0.27895 1.87144e-19 0.00296741)
(-0.453644 0.147445 -1.32655e-18 0.448403 -3.4933e-19 0.005241)
(-0.601098 0.18534 -1.83287e-18 0.596424 3.4619e-19 0.00467365)
(-0.713529 0.23871 -6.95138e-19 0.70809 -1.79496e-19 0.00543856)
(-0.788115 0.295121 1.56471e-18 0.783721 -5.57599e-19 0.00439464)
(-0.820181 0.336715 4.52315e-19 0.815803 5.35514e-19 0.00437748)
(-0.810104 0.352734 1.6584e-18 0.808842 -1.20743e-18 0.00126196)
(-0.763204 0.311289 5.06376e-18 0.761512 -1.36752e-18 0.00169265)
(-0.673539 0.222923 -2.40498e-20 0.681503 6.77613e-19 -0.00796358)
(-0.599173 -0.0154949 -5.56696e-18 0.5876 6.88248e-19 0.0115728)
(0.000780056 -0.00061925 -2.82323e-22 -0.000778201 -4.76395e-22 -1.85582e-06)
(0.000409459 -0.000849199 2.25279e-22 -0.000399029 1.22128e-21 -1.04299e-05)
(1.53047e-05 -0.00088352 -3.53228e-21 -6.49638e-06 -3.47918e-21 -8.80834e-06)
(-0.000311984 -0.000744369 -5.45859e-21 0.000314231 -5.42409e-21 -2.24691e-06)
(-0.000508511 -0.000496785 -2.29917e-21 0.000508169 -1.85297e-21 3.41685e-07)
(-0.000619299 -0.000261082 7.81125e-21 0.000616769 6.86418e-21 2.53024e-06)
(-0.000693275 -0.000106375 -2.32209e-21 0.000678659 -1.93309e-21 1.46167e-05)
(-0.000445591 -9.38164e-06 1.64885e-21 0.000427521 1.21353e-21 1.807e-05)
(1.10914e-05 -2.54601e-06 5.56641e-21 -1.22004e-05 3.69285e-21 1.10902e-06)
(0.000746278 -0.000146693 -5.87391e-22 -0.000725136 3.84881e-22 -2.11424e-05)
(0.0194701 -0.00602192 9.43826e-20 -0.0192723 5.94922e-20 -0.00019783)
(0.0787243 -0.0337634 -1.94858e-19 -0.0794921 -1.37493e-19 0.000767814)
(0.168811 -0.0954242 2.77715e-19 -0.171788 1.67075e-19 0.00297725)
(0.237224 -0.177582 -7.09526e-20 -0.23904 1.53811e-19 0.0018159)
(0.232468 -0.23708 -1.34771e-20 -0.231409 -4.11989e-19 -0.00105939)
(0.174057 -0.249355 -7.33488e-20 -0.174493 2.49051e-19 0.000436334)
(0.117348 -0.244524 -2.54182e-19 -0.119114 2.27655e-19 0.00176582)
(0.080992 -0.250093 2.13173e-19 -0.0814634 2.10797e-19 0.000471454)
(0.0358819 -0.239943 -7.8862e-20 -0.0361655 1.28881e-19 0.000283549)
(-0.049182 -0.170855 3.86748e-20 0.0424556 -4.73687e-19 0.00672637)
(-0.153728 -0.0537603 -2.95376e-20 0.145003 1.62038e-19 0.00872482)
(-0.229726 0.0485684 2.44086e-20 0.22918 -4.5701e-20 0.000545725)
(-0.237703 0.11239 -3.61426e-19 0.246868 9.98766e-20 -0.00916515)
(-0.147907 0.149741 1.70387e-19 0.15872 -8.48852e-20 -0.010813)
(0.0140861 0.175162 5.00989e-19 -0.00910239 1.48512e-19 -0.00498372)
(0.200866 0.206232 -2.93861e-19 -0.20577 -2.11663e-19 0.00490395)
(0.353753 0.23865 -5.35981e-19 -0.36191 -2.02398e-19 0.00815702)
(0.398033 0.23875 3.71868e-19 -0.403935 3.56245e-19 0.00590264)
(0.278025 0.201138 7.75965e-20 -0.279135 3.61483e-19 0.00110957)
(0.0476613 0.176121 8.47641e-20 -0.0468071 2.61718e-20 -0.000854195)
(-0.192056 0.188856 -2.32092e-20 0.189395 -3.82338e-19 0.00266116)
(-0.408571 0.212649 4.1251e-19 0.403823 -3.40071e-19 0.00474877)
(-0.609862 0.242013 -3.58564e-20 0.602817 4.54712e-19 0.00704515)
(-0.787833 0.293661 -5.26832e-19 0.781624 1.03085e-18 0.00620875)
(-0.926188 0.361527 -2.27296e-18 0.920086 1.86076e-18 0.00610242)
(-1.01852 0.430118 2.88063e-18 1.0138 -1.81146e-18 0.0047204)
(-1.06002 0.476925 3.73172e-18 1.05581 -2.35118e-18 0.00420912)
(-1.05604 0.488893 -4.48018e-18 1.05451 1.73149e-18 0.00153356)
(-1.01216 0.432314 1.82566e-18 1.0109 -1.68499e-18 0.00126235)
(-0.94257 0.320187 -1.57646e-19 0.948836 3.4447e-19 -0.00626567)
(-0.868304 0.0765254 -8.92499e-20 0.860466 1.01148e-18 0.00783817)
(0.000572666 -0.000403093 -5.41129e-23 -0.000571993 1.05573e-22 -6.72667e-07)
(0.000357856 -0.000568854 -1.69517e-21 -0.000353599 -1.38442e-21 -4.25652e-06)
(0.000118675 -0.000638369 1.78977e-21 -0.000111834 4.71809e-22 -6.84019e-06)
(-0.00011728 -0.00060821 6.94487e-21 0.000122741 5.80696e-21 -5.46113e-06)
(-0.000302998 -0.000487281 1.42669e-21 0.000304621 1.35192e-21 -1.62301e-06)
(-0.000405424 -0.000307473 1.03247e-21 0.000406466 6.08893e-22 -1.04232e-06)
(-0.000458091 -0.000140712 -1.19069e-20 0.000459368 -9.00235e-21 -1.27657e-06)
(-0.000520082 -3.5539e-05 -9.47843e-22 0.000512333 -6.43128e-22 7.74947e-06)
(-0.000381523 1.61102e-05 -2.84951e-21 0.000369364 -2.24952e-21 1.21587e-05)
(-0.000112885 1.95285e-05 4.17787e-21 0.000111638 2.93403e-21 1.24649e-06)
(0.0002624 -2.91276e-05 -3.15823e-21 -0.000251667 -2.58365e-21 -1.07327e-05)
(0.00244005 -0.000541927 -8.05684e-21 -0.00241577 -2.87623e-21 -2.42817e-05)
(0.0344547 -0.0114388 1.10411e-19 -0.0346285 4.02715e-20 0.000173818)
(0.107083 -0.0504056 -2.31399e-19 -0.1077 -1.04071e-19 0.000616911)
(0.189062 -0.123111 8.09603e-20 -0.189113 4.77508e-20 5.142e-05)
(0.221787 -0.19782 1.80526e-19 -0.221871 1.09587e-19 8.4576e-05)
(0.203378 -0.253498 2.68944e-19 -0.204443 2.9951e-19 0.00106463)
(0.164925 -0.295101 -1.44848e-19 -0.165105 7.66232e-20 0.000179552)
(0.116375 -0.306379 -6.70369e-20 -0.116042 -4.39693e-20 -0.000333387)
(0.0435762 -0.255782 -5.05374e-19 -0.0508811 -7.29882e-20 0.00730484)
(-0.0645205 -0.147475 5.45435e-19 0.0502899 4.26967e-20 0.0142306)
(-0.165597 -0.0359051 -1.53456e-19 0.159149 -1.16971e-20 0.00644822)
(-0.210755 0.0306911 -1.83171e-19 0.21931 2.08589e-19 -0.00855525)
(-0.148823 0.071195 -5.6947e-20 0.162822 6.23207e-20 -0.0139992)
(0.0342922 0.103206 -1.30433e-19 -0.026491 -3.68255e-20 -0.00780113)
(0.268453 0.146048 -3.53131e-20 -0.274484 1.18417e-19 0.00603007)
(0.427786 0.186513 -1.69566e-19 -0.437417 1.67931e-19 0.00963103)
(0.415947 0.190445 2.61721e-19 -0.422461 -7.77031e-20 0.00651414)
(0.230946 0.18062 3.37153e-19 -0.229451 4.07944e-19 -0.0014958)
(-0.0512607 0.21138 -1.3577e-19 0.0511174 -2.43428e-19 0.000143267)
(-0.313095 0.275025 -5.50005e-19 0.310049 4.88273e-20 0.00304515)
(-0.54981 0.328329 -2.79644e-19 0.543534 -1.3147e-19 0.00627516)
(-0.777094 0.373916 1.30046e-19 0.768146 2.57288e-19 0.00894816)
(-0.982171 0.436132 1.56875e-18 0.974194 -1.30887e-18 0.00797694)
(-1.1442 0.512481 1.17569e-18 1.13721 -2.85143e-19 0.00699059)
(-1.25423 0.585619 -1.48746e-18 1.24907 1.18582e-19 0.00515651)
(-1.3075 0.629951 -3.1222e-18 1.30368 2.12931e-18 0.00381875)
(-1.316 0.631253 2.23586e-18 1.31561 -1.37549e-18 0.0003883)
(-1.28496 0.559276 -1.93326e-18 1.28875 6.29784e-19 -0.0037861)
(-1.25072 0.424138 4.68825e-18 1.25901 -2.53351e-18 -0.00828846)
(-1.18715 0.186888 6.63616e-19 1.18904 2.30239e-19 -0.0018923)
(0.000422991 -0.000263868 -2.60209e-22 -0.000422337 7.56422e-23 -6.53397e-07)
(0.000295731 -0.000381095 -1.19155e-21 -0.000293987 -1.68102e-21 -1.74351e-06)
(0.000149968 -0.000446182 5.25676e-21 -0.000146344 4.0058e-21 -3.62387e-06)
(-5.38479e-06 -0.000457933 -1.17327e-21 9.15056e-06 9.475e-23 -3.76577e-06)
(-0.000149916 -0.000413221 1.76747e-21 0.000152025 1.21344e-21 -2.10903e-06)
(-0.000259267 -0.00031891 -1.4122e-21 0.000259588 -1.24836e-21 -3.2117e-07)
(-0.000310655 -0.000189686 4.07673e-21 0.000311579 3.32252e-21 -9.23219e-07)
(-0.000335751 -7.15315e-05 4.61849e-21 0.00033761 3.22644e-21 -1.85947e-06)
(-0.000386022 7.09871e-06 3.28185e-22 0.000383236 7.83539e-22 2.78643e-06)
(-0.000327747 3.53522e-05 5.35011e-21 0.00032158 3.2895e-21 6.16706e-06)
(-0.000149196 2.92938e-05 7.06162e-22 0.000147809 5.03264e-22 1.38732e-06)
(7.08712e-05 1.66821e-05 -2.60369e-21 -6.75257e-05 -1.46629e-21 -3.34558e-06)
(0.000398058 -4.12019e-05 -6.29425e-22 -0.000394279 -7.49713e-22 -3.77892e-06)
(0.0128601 -0.00307892 3.53104e-20 -0.0128077 2.57349e-20 -5.24352e-05)
(0.0624931 -0.0242887 -3.01726e-19 -0.0623261 -1.6247e-19 -0.000167027)
(0.132941 -0.0745815 2.27064e-19 -0.133035 1.14554e-19 9.46399e-05)
(0.192551 -0.149405 -1.54351e-19 -0.193345 -2.29455e-19 0.000793304)
(0.226389 -0.242288 4.57353e-19 -0.226878 1.57344e-19 0.00048895)
(0.216698 -0.318033 -1.87754e-19 -0.216393 -2.78153e-19 -0.000304654)
(0.166808 -0.318675 -1.58147e-19 -0.173208 3.62972e-19 0.00640011)
(0.0838188 -0.243109 4.08695e-19 -0.101954 -2.83322e-19 0.0181347)
(-0.0224923 -0.148457 -2.46463e-20 0.00680587 6.41912e-20 0.0156864)
(-0.104226 -0.0919748 -8.92894e-20 0.10829 7.69344e-20 -0.00406411)
(-0.0902136 -0.0717231 4.99665e-19 0.106503 -2.98343e-19 -0.0162892)
(0.0825222 -0.0581207 1.73449e-19 -0.0723089 8.68269e-20 -0.0102133)
(0.333496 -0.0046521 5.34149e-19 -0.340141 -8.3399e-20 0.00664475)
(0.465443 0.0640161 5.92304e-19 -0.476106 2.62907e-19 0.0106628)
(0.385709 0.110842 -2.1407e-19 -0.389599 -1.97323e-19 0.00389041)
(0.138358 0.171129 -1.97991e-19 -0.134649 -4.38569e-19 -0.00370906)
(-0.170437 0.279687 -3.34724e-19 0.169568 -2.76351e-19 0.000869318)
(-0.444631 0.400601 3.97954e-19 0.441783 2.18002e-19 0.00284773)
(-0.697776 0.489094 -2.54059e-19 0.690495 4.95331e-19 0.007281)
(-0.945026 0.553641 3.74712e-19 0.934302 -2.955e-19 0.010724)
(-1.1701 0.62387 -2.11741e-18 1.15973 1.5033e-18 0.0103615)
(-1.3502 0.70214 4.51473e-19 1.34119 -9.07304e-20 0.00901829)
(-1.47396 0.771236 -6.06885e-19 1.46617 7.85678e-19 0.00779355)
(-1.53805 0.806295 5.60417e-18 1.53201 -4.41857e-18 0.00604128)
(-1.56076 0.792816 -4.94778e-18 1.559 3.11344e-18 0.00175697)
(-1.54764 0.705735 4.13847e-19 1.55583 -1.48576e-19 -0.00819353)
(-1.55739 0.546926 -3.3786e-18 1.56765 1.503e-18 -0.0102593)
(-1.52465 0.31708 4.24177e-18 1.54299 -2.26611e-18 -0.0183433)
(0.000314217 -0.000172273 -9.82447e-22 -0.000313349 -8.96782e-22 -8.68104e-07)
(0.000236534 -0.000254153 3.79151e-21 -0.000236562 2.63755e-21 2.75758e-08)
(0.000146585 -0.000306463 -9.98799e-22 -0.000145068 1.41678e-22 -1.5174e-06)
(4.75561e-05 -0.000330316 -6.79255e-21 -4.52626e-05 -4.85237e-21 -2.29351e-06)
(-5.33178e-05 -0.000321552 -8.13571e-22 5.48486e-05 -1.23498e-21 -1.53083e-06)
(-0.00014311 -0.000279314 6.6403e-21 0.000143901 4.68096e-21 -7.90635e-07)
(-0.000207862 -0.000208269 -1.10782e-21 0.000208129 -6.04052e-22 -2.66088e-07)
(-0.000233318 -0.000117491 -1.53417e-20 0.000233803 -1.04629e-20 -4.84666e-07)
(-0.000244142 -3.10566e-05 1.47288e-20 0.000245049 9.89647e-21 -9.06739e-07)
(-0.000278501 3.36915e-05 8.8595e-22 0.000278405 -1.64159e-22 9.65156e-08)
(-0.000257918 4.8067e-05 -6.33027e-22 0.000255587 -6.27028e-22 2.3309e-06)
(-0.000145417 2.92982e-05 -4.03565e-22 0.000142793 -1.7724e-22 2.62352e-06)
(-2.41186e-05 2.64279e-05 -2.70396e-21 2.24351e-05 -1.39586e-21 1.68349e-06)
(0.000313917 7.45864e-06 1.31359e-21 -0.000310555 1.24178e-22 -3.36188e-06)
(0.00467799 -0.000733158 -2.831e-20 -0.00462156 -8.73942e-21 -5.64301e-05)
(0.0302782 -0.00920942 9.57233e-20 -0.0301271 3.48756e-20 -0.000151155)
(0.0784306 -0.0360954 -8.14017e-20 -0.0786677 -4.39813e-21 0.000237068)
(0.153101 -0.0981834 4.21543e-20 -0.153984 -2.36029e-20 0.000882823)
(0.233822 -0.198887 -1.87237e-19 -0.234298 -6.60678e-20 0.000475183)
(0.268089 -0.279852 -8.0896e-20 -0.272291 -7.36367e-20 0.00420174)
(0.244705 -0.276496 3.85417e-20 -0.262128 1.85497e-19 0.0174229)
(0.18184 -0.227162 3.65003e-19 -0.204859 -2.35092e-19 0.0230196)
(0.0963482 -0.213124 -3.97742e-19 -0.100257 3.03037e-19 0.00390898)
(0.0608584 -0.2479 -1.19069e-19 -0.0448924 -3.6214e-20 -0.015966)
(0.185393 -0.302277 6.87266e-19 -0.173777 -2.6373e-19 -0.0116156)
(0.396486 -0.259105 -6.8928e-19 -0.401708 -4.98064e-20 0.00522263)
(0.455782 -0.13756 -3.38628e-19 -0.464461 -5.51546e-19 0.00867859)
(0.307624 -0.00208503 5.22728e-19 -0.305168 8.47874e-19 -0.0024564)
(0.0161704 0.171622 -4.09319e-20 -0.00965485 -3.94871e-20 -0.00651552)
(-0.296974 0.377396 4.94606e-19 0.296727 7.31389e-19 0.000246558)
(-0.575365 0.568847 -5.57133e-19 0.572926 6.82847e-21 0.00243891)
(-0.838981 0.703409 9.69642e-19 0.830889 -4.67378e-19 0.00809174)
(-1.09867 0.793301 2.12621e-19 1.08594 -7.10097e-19 0.0127346)
(-1.33523 0.871385 1.23698e-19 1.32223 9.22294e-19 0.0130092)
(-1.52366 0.944486 1.47278e-18 1.5113 -1.2979e-18 0.0123606)
(-1.6528 1.0001 -8.89112e-19 1.6402 4.68207e-19 0.0126014)
(-1.72048 1.01905 -1.98297e-18 1.70819 6.78467e-19 0.0122807)
(-1.75009 0.986977 3.30544e-18 1.73928 -2.21628e-18 0.0108098)
(-1.74545 0.884976 4.38293e-19 1.74461 -1.21776e-18 0.000845644)
(-1.80205 0.708819 4.34729e-18 1.79762 -3.92288e-18 0.00443409)
(-1.81173 0.481485 -4.81355e-18 1.83711 1.84577e-18 -0.0253809)
(0.00023402 -0.000111164 -8.21964e-22 -0.000233316 -3.2983e-22 -7.04094e-07)
(0.000185862 -0.000168876 -3.50824e-21 -0.000186615 -2.06073e-21 7.53348e-07)
(0.00012949 -0.000208472 -6.13201e-23 -0.000129026 -5.60514e-22 -4.64164e-07)
(6.67649e-05 -0.000231788 -5.46181e-22 -6.54994e-05 -5.80375e-22 -1.26552e-06)
(-5.95068e-09 -0.000237467 4.71128e-21 1.03337e-06 2.98987e-21 -1.02742e-06)
(-6.54522e-05 -0.00022195 2.3879e-21 6.5959e-05 1.98169e-21 -5.06776e-07)
(-0.000121128 -0.000186599 -3.31353e-21 0.000121366 -2.15601e-21 -2.37862e-07)
(-0.000159213 -0.000135455 -1.88059e-21 0.000159022 -1.2275e-21 1.90154e-07)