/*--------------------------------*- C++ -*----------------------------------*\
| =========                 |                                                 |
| \\      /  F ield         | OpenFOAM: The Open Source CFD Toolbox           |
|  \\    /   O peration     | Version:  2312                                  |
|   \\  /    A nd           | Website:  www.openfoam.com                      |
|    \\/     M anipulation  |                                                 |
\*---------------------------------------------------------------------------*/
FoamFile
{
    version     2.0;
    format      ascii;
    arch        "LSB;label=32;scalar=64";
    class       volScalarField;
    location    "100";
    object      turbulenceProperties:k;
}
// * * * * * * * * * * * * * * * * * * * * * * * * * * * * * * * * * * * * * //

dimensions      [0 2 -2 0 0 0 0];

internalField   nonuniform List<scalar> 
11040
(
0.161273
0.336349
0.444124
0.316897
0.0231209
0.00746808
0.0656779
0.101689
0.125581
0.123892
0.126838
0.13083
0.131443
0.12695
0.111587
0.115739
0.139118
0.159641
0.125825
0.061218
0.127608
0.337177
0.666165
0.926483
1.02179
0.979213
0.907811
0.80819
0.625552
0.449102
0.219402
0.18698
0.274992
0.479634
1.02111
1.49477
2.15458
2.96036
3.7985
4.5723
4.37531
0.0338965
0.0401237
0.0659628
0.219739
0.342012
0.375355
0.772144
0.601341
0.338288
0.227876
0.176608
0.148256
0.117062
0.0938079
0.0939505
0.116387
0.144796
0.168139
0.184491
0.214207
0.245767
0.233077
0.180205
0.109175
0.0604181
0.0591119
0.0489509
0.0528725
0.129131
0.195348
0.181122
0.0466473
0.152291
0.274493
0.370936
0.43887
0.491663
0.519682
0.53206
0.492644
0.618792
0.0191933
0.0138926
0.0100645
0.013243
0.0999007
0.219446
0.616238
0.976385
0.927791
0.605374
0.425954
0.366093
0.309004
0.234324
0.188368
0.198586
0.240292
0.26854
0.277133
0.294086
0.326096
0.328057
0.254388
0.156717
0.120129
0.155444
0.240696
0.404795
0.580485
0.583877
0.354127
0.136536
0.349368
0.538219
0.681486
0.780508
0.837776
0.835433
0.785355
0.617673
0.762782
0.0134146
0.0105169
0.00820683
0.00684528
0.00253992
0.0321584
0.139353
0.487822
0.974038
1.10447
0.891127
0.672543
0.556044
0.440282
0.329622
0.290515
0.328308
0.363179
0.357143
0.372348
0.463442
0.526161
0.459258
0.340552
0.301819
0.373649
0.539346
0.781572
0.929476
0.756255
0.365674
0.337175
0.666164
0.949675
1.16903
1.32392
1.4052
1.39304
1.28208
1.00634
0.941097
0.00933683
0.00819982
0.00709037
0.0059523
0.00542785
0.00247156
0.00790846
0.0634441
0.31553
0.790487
1.12903
1.11423
0.937484
0.744439
0.562628
0.448469
0.446691
0.481581
0.444705
0.424145
0.578087
0.729733
0.693373
0.542959
0.476073
0.600485
0.871016
1.12743
1.12675
0.770405
0.373489
0.638768
1.07748
1.47033
1.77996
2.00366
2.11644
2.104
1.94176
1.5965
1.32413
0.00635629
0.00584711
0.00523011
0.00456846
0.0041135
0.00409097
0.00210926
0.00102018
0.0196732
0.169389
0.531405
0.942713
1.14527
1.09631
0.901948
0.709317
0.632866
0.645955
0.590693
0.464905
0.604892
0.837707
0.862625
0.689199
0.593369
0.815994
1.1841
1.39986
1.18604
0.68425
0.542758
1.03469
1.5808
2.088
2.49787
2.79655
2.9467
2.94129
2.74298
2.37614
1.97798
0.00441995
0.00417865
0.00392475
0.00359114
0.00315588
0.00296636
0.00307455
0.00162968
1.25717e-05
0.00257061
0.066839
0.281664
0.645083
0.984975
1.10143
1.01113
0.903387
0.875065
0.807736
0.589947
0.530377
0.780976
0.8906
0.715758
0.585172
0.964785
1.43296
1.55445
1.14438
0.607401
0.89425
1.52767
2.17536
2.79172
3.30322
3.67641
3.8663
3.87479
3.6649
3.3265
2.89122
0.0031084
0.00297961
0.00288194
0.00275363
0.00255276
0.00226222
0.00213241
0.00231409
0.00141258
6.04575e-05
3.33172e-07
0.0109153
0.118419
0.39114
0.747802
0.987112
1.08173
1.12509
1.09093
0.866955
0.531836
0.554789
0.724734
0.574922
0.360502
1.02729
1.56997
1.53409
0.974787
0.72461
1.38479
2.12504
2.86044
3.56895
4.16708
4.60461
4.83029
4.86273
4.67526
4.41372
4.00733
0.0022121
0.00213965
0.00208807
0.00203441
0.00195359
0.00182835
0.00161687
0.00153502
0.00173946
0.00135322
2.80966e-05
5.41805e-05
1.80956e-05
0.0432428
0.220165
0.504871
0.810387
1.10345
1.28076
1.20322
0.871548
0.503056
0.46858
0.41362
0.326525
1.12274
1.58375
1.34343
0.729605
1.09063
1.99084
2.82988
3.63484
4.40394
5.05832
5.53219
5.77805
5.83083
5.68057
5.51664
5.21987
0.00158892
0.00154154
0.00150707
0.00148146
0.00144804
0.00139468
0.00130899
0.00115835
0.00110035
0.0012782
0.00113849
0.000221207
4.8573e-06
0.00136674
0.0163602
0.103257
0.285635
0.605061
1.02177
1.29529
1.25219
1.00033
0.782128
0.848243
1.17291
1.58564
1.60074
1.02104
0.574442
1.60011
2.6935
3.63858
4.49946
5.29586
5.95702
6.42032
6.64651
6.68021
6.52026
6.44617
6.2891
0.00114839
0.00111603
0.00108907
0.0010703
0.00105459
0.00102773
0.000988572
0.000928896
0.000828041
0.000781091
0.000919163
0.000904734
0.000292054
1.19466e-05
0.000170929
0.00216457
0.0232387
0.109652
0.391449
0.838129
1.22119
1.39307
1.42791
1.60554
2.2152
2.50464
1.94321
0.833847
0.665584
2.12576
3.41319
4.4939
5.41605
6.20462
6.82922
7.23359
7.38241
7.32868
7.08663
7.02594
6.72042
0.0008348
0.000813194
0.000788921
0.000772922
0.000760703
0.000745466
0.000722545
0.000692327
0.00065107
0.000584266
0.000549978
0.000627267
0.000683587
0.000322639
6.90181e-06
1.05206e-05
0.000398065
0.000469259
0.0319921
0.239815
0.671476
1.20647
1.71123
2.22456
3.02816
3.50615
2.6998
1.16076
0.73058
2.44106
3.92697
5.15361
6.16838
7.0124
7.63988
7.943
7.96517
7.74425
7.33999
7.05487
6.39649
0.00061067
0.000595899
0.000574687
0.000559956
0.00054938
0.000537466
0.000521971
0.000500836
0.000475735
0.000445436
0.000400724
0.000372371
0.000428693
0.000483958
0.000351914
5.68839e-05
4.05317e-06
2.54065e-06
0.000984523
0.0389857
0.162843
0.604716
1.30586
2.21661
3.2825
4.04445
3.44281
1.7013
0.487493
2.50353
4.23444
5.63832
6.73512
7.5982
8.22659
8.54053
8.43895
7.97512
7.3132
6.55554
5.43239
0.000449331
0.000439555
0.000421556
0.000408471
0.000399371
0.000388869
0.000375757
0.000360101
0.000339693
0.000316352
0.000290104
0.000257447
0.000234898
0.000269865
0.000336475
0.000322295
0.00011666
7.83516e-06
2.49968e-08
0
0.028989
0.138277
0.637123
1.60562
2.8999
3.9316
3.76824
2.18896
0.799819
2.6303
4.57816
6.19365
7.41237
8.29768
8.87284
9.10567
8.9247
8.24634
7.25686
5.92808
4.25337
0.000332585
0.000326478
0.000311893
0.000301156
0.000293816
0.000285303
0.000274426
0.000261175
0.000245271
0.000224871
0.00020112
0.000175259
0.000146454
0.000123903
0.000151756
0.000238602
0.000271323
0.00011846
7.7707e-07
1.94298e-07
0
0.0243418
0.130174
0.79781
2.0664
3.29211
3.58404
2.6789
2.05288
3.35978
5.28521
7.06489
8.45358
9.4256
9.98905
10.1162
9.7909
8.98458
7.69749
6.02204
3.90455
0.000247596
0.000244226
0.000233037
0.000224995
0.00021979
0.000213777
0.000205735
0.000195654
0.000183638
0.000168426
0.000149074
0.000125259
9.79398e-05
6.62871e-05
3.56813e-05
7.36131e-05
0.000170346
0.000245172
0.00012036
2.61326e-06
3.00794e-07
0
0.0225529
0.136822
0.973327
2.25809
3.08448
3.11701
3.24035
4.4005
6.17912
8.03329
9.63286
10.8158
11.5301
11.7342
11.4094
10.581
9.21389
7.35048
4.96639
0.000185782
0.000184383
0.000176237
0.000170734
0.000167599
0.000163992
0.000158985
0.000152562
0.000144599
0.000135303
0.000123405
0.000108055
8.88138e-05
6.69409e-05
4.42875e-05
3.05368e-05
5.99828e-05
0.000139823
0.000229639
0.000141684
3.29536e-06
3.68581e-07
0
0.0183858
0.109837
0.869958
2.03963
3.00517
3.81819
4.98514
6.61367
8.44237
10.2114
11.7053
12.7718
13.3478
13.3889
12.8316
11.6542
9.80883
7.31795
0.000142243
0.000142133
0.000136432
0.000133022
0.000131573
0.000129921
0.000127456
0.000124212
0.000119965
0.000115245
0.000109685
0.000102682
9.39556e-05
8.39894e-05
7.55123e-05
7.18267e-05
7.37876e-05
8.84507e-05
0.000142965
0.000218754
0.000145648
6.29468e-06
8.23853e-07
0
0.01122
0.0569046
0.52087
1.55887
2.93103
4.47572
6.17014
7.97179
9.78878
11.4921
12.9441
14.0007
14.5658
14.5967
14.0101
12.7431
10.7247
0.000111694
0.000112364
0.000108475
0.000106555
0.000106251
0.00010592
0.000105162
0.000104067
0.000102393
0.000100491
9.88707e-05
9.68813e-05
9.44384e-05
9.16292e-05
8.92251e-05
8.93577e-05
9.28536e-05
9.81741e-05
0.000111132
0.000155408
0.000210129
0.000140592
1.5233e-05
1.51841e-06
0
0.00405324
0.00726936
0.177537
0.80816
2.0879
3.90009
5.97399
8.0794
10.0785
11.8935
13.4318
14.5813
15.2428
15.3929
14.9566
13.8172
8.94573e-05
9.05418e-05
8.7935e-05
8.70086e-05
8.7417e-05
8.79057e-05
8.82065e-05
8.84323e-05
8.84389e-05
8.82806e-05
8.86588e-05
8.93147e-05
8.9987e-05
9.07981e-05
9.18512e-05
9.38483e-05
9.80813e-05
0.00010404
0.000110188
0.00012425
0.000165609
0.00020349
0.000143113
1.63181e-05
1.73944e-06
0
0.000192744
0.0151332
0.0300708
0.204451
0.819747
2.09733
3.979
6.20165
8.49338
10.6484
12.5346
14.0412
15.083
15.5728
15.4876
7.267e-05
7.39399e-05
7.22313e-05
7.19523e-05
7.27732e-05
7.37217e-05
7.46416e-05
7.56121e-05
7.65836e-05
7.74102e-05
7.87976e-05
8.0827e-05
8.30753e-05
8.55101e-05
8.82806e-05
9.15029e-05
9.57361e-05
0.000101517
0.000108009
0.000114093
0.000130431
0.000164802
0.000196732
0.000155133
2.17484e-05
2.59927e-06
0
0
0.00237748
0.0166181
0.0250468
0.129232
0.506786
1.37236
2.78955
4.6276
6.67054
8.71503
10.6168
12.2607
13.5571
5.96259e-05
6.09629e-05
5.98963e-05
6.00194e-05
6.1051e-05
6.22339e-05
6.34812e-05
6.48351e-05
6.63107e-05
6.76961e-05
6.95e-05
7.20531e-05
7.49674e-05
7.80878e-05
8.15482e-05
8.53475e-05
8.96621e-05
9.4777e-05
0.000100973
0.000106947
0.000114058
0.000129127
0.000158406
0.000181211
0.000175207
5.1237e-05
5.19587e-06
9.526e-08
0
0
0.0018786
0.0103289
0.0074182
0.0534306
0.178363
0.497702
1.11774
2.064
3.27688
4.65366
6.0609
4.92997e-05
5.06094e-05
4.99885e-05
5.03615e-05
5.14803e-05
5.27648e-05
5.41521e-05
5.56816e-05
5.73712e-05
5.90788e-05
6.10228e-05
6.36187e-05
6.666e-05
6.99674e-05
7.35505e-05
7.74275e-05
8.16467e-05
8.62649e-05
9.1579e-05
9.72337e-05
0.000103442
0.000111284
0.000122227
0.00014374
0.000168136
0.000165092
0.000119226
1.23409e-05
2.10959e-06
9.68193e-08
0
0
0.000169279
0.00393787
0.0139438
0.0122031
0.0494262
0.116691
0.228514
0.430457
0.754424
4.09716e-05
4.22296e-05
4.19154e-05
4.24313e-05
4.35509e-05
4.48465e-05
4.62488e-05
4.78157e-05
4.95319e-05
5.13364e-05
5.32611e-05
5.57257e-05
5.8669e-05
6.18858e-05
6.53084e-05
6.89709e-05
7.28702e-05
7.70422e-05
8.15805e-05
8.63528e-05
9.20323e-05
9.84386e-05
0.000104701
0.000113583
0.000126811
0.000147809
0.000159388
0.000142011
0.00010187
1.51352e-05
2.13319e-06
2.44139e-07
6.38655e-09
0
0
0.000311404
0.00289672
0.00840315
0.00324443
0.0182043
0.0452911
3.41973e-05
3.53583e-05
3.52563e-05
3.58461e-05
3.69246e-05
3.81684e-05
3.95241e-05
4.10409e-05
4.26937e-05
4.44624e-05
4.62874e-05
4.85368e-05
5.12577e-05
5.4216e-05
5.73432e-05
6.06696e-05
6.41644e-05
6.78552e-05
7.17746e-05
7.57568e-05
8.04523e-05
8.59287e-05
9.13435e-05
9.68047e-05
0.000103158
0.000112117
0.000124565
0.000139115
0.000147278
0.000132823
0.00010216
4.75144e-05
1.15577e-06
6.39805e-07
2.02577e-07
2.18305e-08
0
0
1.55089e-05
0.000479648
0.00197287
2.86189e-05
2.96793e-05
2.97282e-05
3.03347e-05
3.13517e-05
3.25126e-05
3.3792e-05
3.52125e-05
3.67677e-05
3.84437e-05
4.01572e-05
4.21461e-05
4.45731e-05
4.72035e-05
5.00022e-05
5.29462e-05
5.60398e-05
5.92453e-05
6.26254e-05
6.5967e-05
6.97987e-05
7.41851e-05
7.8674e-05
8.32367e-05
8.78449e-05
9.25259e-05
9.81147e-05
0.000105355
0.00011453
0.000125091
0.000132029
0.000129559
0.00011329
8.35172e-05
4.77178e-05
4.93847e-06
9.6661e-07
2.11718e-07
1.28651e-07
5.15519e-08
0
2.40079e-05
2.49516e-05
2.51008e-05
2.57009e-05
2.66417e-05
2.77037e-05
2.8889e-05
3.0195e-05
3.16301e-05
3.31694e-05
3.47635e-05
3.65199e-05
3.8629e-05
4.09324e-05
4.33983e-05
4.59801e-05
4.8682e-05
5.14472e-05
5.43376e-05
5.7161e-05
6.03173e-05
6.38221e-05
6.7368e-05
7.10523e-05
7.48077e-05
7.84798e-05
8.20978e-05
8.58062e-05
8.99651e-05
9.51165e-05
0.000101127
0.000107959
0.000114419
0.000117528
0.000115987
0.000105659
8.76852e-05
6.38559e-05
3.8724e-05
1.52341e-05
1.64729e-06
2.01628e-05
2.10081e-05
2.12142e-05
2.17876e-05
2.26456e-05
2.36113e-05
2.46896e-05
2.58747e-05
2.71725e-05
2.85628e-05
3.00166e-05
3.15686e-05
3.33825e-05
3.53927e-05
3.75358e-05
3.97707e-05
4.2096e-05
4.44685e-05
4.69188e-05
4.93093e-05
5.19259e-05
5.47745e-05
5.75848e-05
6.04883e-05
6.34431e-05
6.63823e-05
6.92532e-05
7.20398e-05
7.47272e-05
7.74102e-05
8.01955e-05
8.32908e-05
8.6837e-05
9.07866e-05
9.48886e-05
9.92693e-05
0.000102308
0.000102769
0.00010154
9.41224e-05
8.89106e-05
1.69516e-05
1.76923e-05
1.79303e-05
1.84777e-05
1.92478e-05
2.01226e-05
2.10891e-05
2.21588e-05
2.33171e-05
2.45641e-05
2.58652e-05
2.7237e-05
2.8791e-05
3.05343e-05
3.23636e-05
3.42825e-05
3.62593e-05
3.828e-05
4.03415e-05
4.23577e-05
4.45112e-05
4.68228e-05
4.90552e-05
5.13454e-05
5.36528e-05
5.59528e-05
5.81926e-05
6.03806e-05
6.2482e-05
6.44985e-05
6.64124e-05
6.82537e-05
7.00382e-05
7.1835e-05
7.37041e-05
7.57445e-05
7.79962e-05
8.01112e-05
8.3048e-05
8.3062e-05
8.85476e-05
1.42519e-05
1.49047e-05
1.51546e-05
1.56646e-05
1.6355e-05
1.71416e-05
1.80032e-05
1.8961e-05
1.99897e-05
2.10988e-05
2.22578e-05
2.3464e-05
2.47923e-05
2.6291e-05
2.78523e-05
2.949e-05
3.11706e-05
3.28848e-05
3.46191e-05
3.63034e-05
3.80831e-05
3.9962e-05
4.17546e-05
4.35742e-05
4.53924e-05
4.71812e-05
4.89163e-05
5.06017e-05
5.22242e-05
5.37803e-05
5.5252e-05
5.664e-05
5.79296e-05
5.9127e-05
6.02603e-05
6.13275e-05
6.23897e-05
6.32258e-05
6.47557e-05
6.38644e-05
6.76995e-05
1.19847e-05
1.25454e-05
1.28035e-05
1.3274e-05
1.38899e-05
1.45919e-05
1.53596e-05
1.62087e-05
1.71203e-05
1.80975e-05
1.91254e-05
2.01818e-05
2.13218e-05
2.25982e-05
2.39301e-05
2.53199e-05
2.67484e-05
2.81935e-05
2.96573e-05
3.10703e-05
3.25546e-05
3.40866e-05
3.55386e-05
3.69879e-05
3.84326e-05
3.98435e-05
4.12051e-05
4.25048e-05
4.3748e-05
4.49274e-05
4.60446e-05
4.70972e-05
4.80821e-05
4.89929e-05
4.9848e-05
5.06307e-05
5.1386e-05
5.18936e-05
5.29488e-05
5.1769e-05
5.4782e-05
1.00701e-05
1.05558e-05
1.08105e-05
1.12355e-05
1.17891e-05
1.24098e-05
1.30942e-05
1.38399e-05
1.46477e-05
1.55028e-05
1.64098e-05
1.73346e-05
1.83201e-05
1.93943e-05
2.05291e-05
2.17005e-05
2.291e-05
2.41263e-05
2.53619e-05
2.6538e-05
2.7769e-05
2.90183e-05
3.01968e-05
3.13616e-05
3.25225e-05
3.36372e-05
3.47027e-05
3.57114e-05
3.66739e-05
3.75809e-05
3.84362e-05
3.92326e-05
3.99725e-05
4.06528e-05
4.12926e-05
4.18725e-05
4.24363e-05
4.27911e-05
4.36381e-05
4.24847e-05
4.51202e-05
8.45453e-06
8.86874e-06
9.11618e-06
9.50029e-06
9.99348e-06
1.05424e-05
1.11495e-05
1.18045e-05
1.25167e-05
1.3265e-05
1.40597e-05
1.48691e-05
1.57199e-05
1.66315e-05
1.75987e-05
1.85879e-05
1.96075e-05
2.0628e-05
2.1657e-05
2.26379e-05
2.3658e-05
2.46816e-05
2.5638e-05
2.65753e-05
2.74986e-05
2.83862e-05
2.92314e-05
3.0029e-05
3.07827e-05
3.14869e-05
3.21427e-05
3.27505e-05
3.33122e-05
3.38273e-05
3.431e-05
3.47463e-05
3.51755e-05
3.54291e-05
3.61238e-05
3.50422e-05
3.74098e-05
7.0862e-06
7.44289e-06
7.67465e-06
8.02126e-06
8.45801e-06
8.94506e-06
9.4789e-06
1.00568e-05
1.06793e-05
1.13362e-05
1.20264e-05
1.27364e-05
1.347e-05
1.42481e-05
1.5068e-05
1.59054e-05
1.67606e-05
1.76205e-05
1.84851e-05
1.93117e-05
2.01553e-05
2.09988e-05
2.17781e-05
2.25396e-05
2.32844e-05
2.39994e-05
2.46689e-05
2.52963e-05
2.58838e-05
2.64344e-05
2.69435e-05
2.74158e-05
2.78498e-05
2.82491e-05
2.86218e-05
2.89599e-05
2.92952e-05
2.94808e-05
3.00574e-05
2.90652e-05
3.12159e-05
5.92838e-06
6.23184e-06
6.44899e-06
6.76174e-06
7.14564e-06
7.57758e-06
8.04652e-06
8.55585e-06
9.09844e-06
9.67368e-06
1.02723e-05
1.08929e-05
1.15225e-05
1.21862e-05
1.2883e-05
1.35907e-05
1.43088e-05
1.50336e-05
1.57542e-05
1.64415e-05
1.7142e-05
1.78403e-05
1.84796e-05
1.91009e-05
1.97014e-05
2.02741e-05
2.08123e-05
2.13188e-05
2.1789e-05
2.22261e-05
2.26286e-05
2.30017e-05
2.33434e-05
2.36575e-05
2.39518e-05
2.42199e-05
2.44901e-05
2.46338e-05
2.51272e-05
2.42292e-05
2.62227e-05
4.94604e-06
5.20583e-06
5.4076e-06
5.68598e-06
6.02661e-06
6.40704e-06
6.82135e-06
7.26589e-06
7.74101e-06
8.24115e-06
8.76214e-06
9.30084e-06
9.84593e-06
1.04119e-05
1.10042e-05
1.16007e-05
1.22049e-05
1.28108e-05
1.34157e-05
1.39935e-05
1.45779e-05
1.51533e-05
1.56788e-05
1.61838e-05
1.66733e-05
1.71397e-05
1.75747e-05
1.79784e-05
1.83524e-05
1.86998e-05
1.90209e-05
1.9319e-05
1.9594e-05
1.98481e-05
2.00884e-05
2.03094e-05
2.05355e-05
2.06546e-05
2.10864e-05
2.02885e-05
2.21538e-05
4.11325e-06
4.33463e-06
4.52065e-06
4.77139e-06
5.07062e-06
5.40715e-06
5.76983e-06
6.16107e-06
6.57345e-06
7.01051e-06
7.46156e-06
7.93063e-06
8.40064e-06
8.88575e-06
9.38715e-06
9.89369e-06
1.04018e-05
1.0913e-05
1.14212e-05
1.19058e-05
1.23943e-05
1.28742e-05
1.33118e-05
1.37308e-05
1.41327e-05
1.45134e-05
1.48682e-05
1.51989e-05
1.55064e-05
1.57937e-05
1.60614e-05
1.63122e-05
1.65449e-05
1.67617e-05
1.69691e-05
1.71623e-05
1.73625e-05
1.74722e-05
1.78572e-05
1.71604e-05
1.891e-05
3.40678e-06
3.59639e-06
3.76899e-06
3.99163e-06
4.25598e-06
4.55277e-06
4.87213e-06
5.2128e-06
5.57312e-06
5.9522e-06
6.34478e-06
6.74919e-06
7.15759e-06
7.57413e-06
8.00142e-06
8.43032e-06
8.86024e-06
9.28984e-06
9.71814e-06
1.01264e-05
1.05378e-05
1.09367e-05
1.12998e-05
1.16448e-05
1.19764e-05
1.22896e-05
1.25827e-05
1.28556e-05
1.31108e-05
1.33495e-05
1.35735e-05
1.37842e-05
1.39821e-05
1.41682e-05
1.43487e-05
1.45182e-05
1.46968e-05
1.47989e-05
1.51447e-05
1.45357e-05
1.61848e-05
2.80762e-06
2.97162e-06
3.13099e-06
3.33128e-06
3.5662e-06
3.82573e-06
4.10628e-06
4.40311e-06
4.71754e-06
5.04534e-06
5.38593e-06
5.73424e-06
6.08764e-06
6.44285e-06
6.80576e-06
7.16973e-06
7.53292e-06
7.89376e-06
8.25465e-06
8.59698e-06
8.94014e-06
9.27323e-06
9.57919e-06
9.86803e-06
1.01445e-05
1.04058e-05
1.06517e-05
1.08817e-05
1.10984e-05
1.13032e-05
1.1498e-05
1.16839e-05
1.18615e-05
1.20316e-05
1.21994e-05
1.23599e-05
1.25303e-05
1.26367e-05
1.29581e-05
1.2441e-05
1.40061e-05
2.29658e-06
2.43972e-06
2.58891e-06
2.7705e-06
2.97912e-06
3.21036e-06
3.45688e-06
3.71649e-06
3.98836e-06
4.27229e-06
4.56559e-06
4.86606e-06
5.17064e-06
5.47726e-06
5.78767e-06
6.09878e-06
6.40665e-06
6.71231e-06
7.01615e-06
7.30726e-06
7.59942e-06
7.88234e-06
8.14165e-06
8.38647e-06
8.62065e-06
8.84307e-06
9.05276e-06
9.25015e-06
9.43713e-06
9.615e-06
9.78541e-06
9.95014e-06
1.01097e-05
1.02648e-05
1.04193e-05
1.05698e-05
1.07299e-05
1.08375e-05
1.1131e-05
1.07019e-05
1.21777e-05
1.85882e-06
1.9844e-06
2.12235e-06
2.28794e-06
2.47721e-06
2.68296e-06
2.90251e-06
3.13091e-06
3.36915e-06
3.61441e-06
3.86753e-06
4.12471e-06
4.38576e-06
4.64535e-06
4.90765e-06
5.17204e-06
5.43344e-06
5.69183e-06
5.94861e-06
6.19366e-06
6.43785e-06
6.67477e-06
6.89452e-06
7.10269e-06
7.30253e-06
7.49373e-06
7.67584e-06
7.84915e-06
8.01548e-06
8.17632e-06
8.33322e-06
8.48761e-06
8.64018e-06
8.79157e-06
8.94485e-06
9.09691e-06
9.25952e-06
9.37894e-06
9.65985e-06
9.31016e-06
1.0711e-05
1.49129e-06
1.60301e-06
1.73084e-06
1.8804e-06
2.04795e-06
2.23143e-06
2.42622e-06
2.62832e-06
2.83723e-06
3.05224e-06
3.27279e-06
3.49728e-06
3.72499e-06
3.95298e-06
4.18212e-06
4.41174e-06
4.6358e-06
4.85757e-06
5.07851e-06
5.29255e-06
5.50729e-06
5.71677e-06
5.91167e-06
6.09635e-06
6.27404e-06
6.44505e-06
6.60818e-06
6.76386e-06
6.91324e-06
7.05837e-06
7.20061e-06
7.34201e-06
7.48298e-06
7.62509e-06
7.771e-06
7.91938e-06
8.07773e-06
8.20364e-06
8.46567e-06
8.20363e-06
9.53086e-06
1.1944e-06
1.3018e-06
1.42428e-06
1.56187e-06
1.71132e-06
1.87107e-06
2.03765e-06
2.21103e-06
2.38964e-06
2.57438e-06
2.76277e-06
2.95363e-06
3.14453e-06
3.3331e-06
3.52173e-06
3.71342e-06
3.90147e-06
4.0859e-06
4.26702e-06
4.44123e-06
4.61431e-06
4.78431e-06
4.94658e-06
5.10358e-06
5.25638e-06
5.40587e-06
5.55178e-06
5.69467e-06
5.83483e-06
5.97354e-06
6.11184e-06
6.25114e-06
6.39161e-06
6.53425e-06
6.68144e-06
6.83158e-06
6.99216e-06
7.12499e-06
7.37729e-06
7.16578e-06
8.41959e-06
9.36476e-07
1.04415e-06
1.16953e-06
1.30651e-06
1.45007e-06
1.59748e-06
1.74626e-06
1.89557e-06
2.04647e-06
2.20137e-06
2.36129e-06
2.52678e-06
2.69728e-06
2.87124e-06
3.04708e-06
3.22211e-06
3.39459e-06
3.56681e-06
3.7397e-06
3.90929e-06
4.07895e-06
4.24454e-06
4.4022e-06
4.55343e-06
4.70025e-06
4.84374e-06
4.98373e-06
5.12084e-06
5.25617e-06
5.39103e-06
5.52619e-06
5.66323e-06
5.80308e-06
5.94722e-06
6.09767e-06
6.2544e-06
6.42227e-06
6.57439e-06
6.82502e-06
6.70909e-06
7.91546e-06
6.63987e-07
7.53639e-07
8.70086e-07
1.00329e-06
1.14706e-06
1.29686e-06
1.44866e-06
1.59878e-06
1.746e-06
1.8895e-06
2.0293e-06
2.16468e-06
2.29581e-06
2.42117e-06
2.54286e-06
2.66422e-06
2.78327e-06
2.89935e-06
3.01567e-06
3.13181e-06
3.25164e-06
3.37389e-06
3.49574e-06
3.61724e-06
3.73923e-06
3.86262e-06
3.98746e-06
4.11385e-06
4.24175e-06
4.3717e-06
4.5041e-06
4.63938e-06
4.77746e-06
4.91879e-06
5.06483e-06
5.21434e-06
5.37307e-06
5.51433e-06
5.74338e-06
5.63367e-06
6.73509e-06
4.30752e-07
5.08607e-07
6.18802e-07
7.40829e-07
8.66728e-07
9.94176e-07
1.12236e-06
1.25123e-06
1.38237e-06
1.5175e-06
1.65794e-06
1.80473e-06
1.959e-06
2.12116e-06
2.29375e-06
2.47177e-06
2.64724e-06
2.81752e-06
2.98217e-06
3.14019e-06
3.294e-06
3.44297e-06
3.58592e-06
3.72342e-06
3.85746e-06
3.98953e-06
4.12066e-06
4.25208e-06
4.38536e-06
4.52195e-06
4.66313e-06
4.81043e-06
4.96488e-06
5.12771e-06
5.30062e-06
5.48463e-06
5.68195e-06
5.87745e-06
6.14692e-06
6.16456e-06
7.29894e-06
4.30951e-07
5.47173e-07
6.58292e-07
7.62275e-07
8.65143e-07
9.75176e-07
1.09422e-06
1.21988e-06
1.34574e-06
1.4647e-06
1.5696e-06
1.65461e-06
1.71719e-06
1.75849e-06
1.77749e-06
1.77859e-06
1.78022e-06
1.79708e-06
1.8338e-06
1.88764e-06
1.95581e-06
2.03363e-06
2.11928e-06
2.21036e-06
2.30592e-06
2.40543e-06
2.50852e-06
2.61476e-06
2.72426e-06
2.8371e-06
2.95346e-06
3.07349e-06
3.19773e-06
3.32628e-06
3.45963e-06
3.59685e-06
3.74265e-06
3.87997e-06
4.07937e-06
4.04261e-06
4.94549e-06
9.1005e-07
1.35915e-06
1.77875e-06
2.1352e-06
2.41463e-06
2.61361e-06
2.73831e-06
2.8005e-06
2.81644e-06
2.80399e-06
2.78073e-06
2.7618e-06
2.75795e-06
2.77359e-06
2.81071e-06
2.87784e-06
2.97064e-06
3.0728e-06
3.17637e-06
3.27801e-06
3.37565e-06
3.47231e-06
3.56354e-06
3.65047e-06
3.73466e-06
3.8175e-06
3.90062e-06
3.98593e-06
4.07552e-06
4.17144e-06
4.27576e-06
4.39044e-06
4.51727e-06
4.65806e-06
4.81496e-06
4.98951e-06
5.18403e-06
5.38851e-06
5.66425e-06
5.72869e-06
6.90211e-06
0.561072
0.659997
0.876098
0.664905
0.109113
0.0297081
0.00497405
0.00248219
0.00236614
0.00230728
0.00217393
0.00207589
0.00193165
0.00176989
0.00161352
0.00145306
0.00130433
0.00116651
0.0010411
0.000928952
0.000826155
0.000734691
0.000652407
0.000579279
0.000513457
0.00045551
0.000404791
0.000359021
0.000318073
0.000281094
0.000247555
0.000217266
0.000189895
0.000165208
0.00014203
0.000120944
0.000101333
8.39196e-05
6.96468e-05
5.6553e-05
4.59372e-05
3.73641e-05
2.93072e-05
2.52366e-05
2.26853e-05
2.22137e-05
2.37355e-05
2.60877e-05
2.77132e-05
2.75787e-05
2.85558e-05
2.81244e-05
2.78011e-05
2.73273e-05
2.6467e-05
2.54545e-05
2.43141e-05
2.32054e-05
2.1831e-05
2.06222e-05
1.90893e-05
1.78977e-05
1.64079e-05
1.49931e-05
1.37424e-05
1.23438e-05
1.12772e-05
1.00943e-05
9.08196e-06
8.09527e-06
7.31656e-06
6.42167e-06
6.03381e-06
5.12429e-06
1.06179
1.13747
1.08977
1.04326
0.360179
0.0662293
0.014383
0.002682
0.00242629
0.00231909
0.00211806
0.00197106
0.00181823
0.00165496
0.00150536
0.00135552
0.00121739
0.00109049
0.000974416
0.000871538
0.000776417
0.000690761
0.000613842
0.00054515
0.000482994
0.000428186
0.000380736
0.000337948
0.000299734
0.000265433
0.00023426
0.000206481
0.000181282
0.000158404
0.000136784
0.000117017
9.79491e-05
8.11998e-05
6.75395e-05
5.50925e-05
4.48392e-05
3.68455e-05
2.92691e-05
2.55879e-05
2.30044e-05
2.22836e-05
2.34177e-05
2.51122e-05
2.66512e-05
2.59334e-05
2.67846e-05
2.62177e-05
2.5853e-05
2.54448e-05
2.4668e-05
2.37325e-05
2.26732e-05
2.16425e-05
2.03545e-05
1.92508e-05
1.77987e-05
1.66933e-05
1.53336e-05
1.39778e-05
1.28464e-05
1.15303e-05
1.05479e-05
9.4634e-06
8.52132e-06
7.60074e-06
6.9018e-06
6.05655e-06
5.73558e-06
4.88448e-06
1.4076
1.46935
1.48754
1.26227
0.817522
0.132546
0.0487068
0.00496161
0.00240557
0.00240246
0.00214126
0.00190822
0.00172745
0.0015556
0.00140282
0.00125956
0.00112908
0.00101113
0.000904187
0.000809458
0.000722781
0.000643543
0.000572653
0.000508928
0.000451051
0.00039972
0.000355486
0.000315806
0.000280386
0.000248915
0.000220452
0.000195362
0.000172513
0.000151827
0.000132299
0.000114194
9.63398e-05
8.058e-05
6.75376e-05
5.56789e-05
4.59459e-05
3.85882e-05
3.14151e-05
2.80398e-05
2.51578e-05
2.4092e-05
2.46679e-05
2.50554e-05
2.61025e-05
2.50608e-05
2.52181e-05
2.45004e-05
2.39499e-05
2.35149e-05
2.28668e-05
2.1876e-05
2.09527e-05
1.9965e-05
1.88272e-05
1.77692e-05
1.64857e-05
1.53591e-05
1.41751e-05
1.29204e-05
1.1864e-05
1.069e-05
9.73848e-06
8.78395e-06
7.91985e-06
7.07861e-06
6.44713e-06
5.66553e-06
5.41434e-06
4.62319e-06
1.68711
1.7876
1.7457
1.71362
1.29311
0.344078
0.134369
0.0222157
0.00220663
0.00240616
0.00221771
0.00189953
0.0016752
0.00148677
0.00132531
0.00118346
0.00105716
0.000945284
0.000844823
0.000756222
0.000676086
0.000602434
0.00053683
0.000477581
0.000423753
0.000375516
0.000333866
0.000296926
0.00026383
0.000234761
0.000208642
0.000185813
0.000164947
0.000145833
0.00012813
0.000111556
9.51818e-05
8.05454e-05
6.8013e-05
5.67323e-05
4.75403e-05
4.0532e-05
3.39228e-05
3.0486e-05
2.7592e-05
2.59892e-05
2.57734e-05
2.52764e-05
2.56513e-05
2.43575e-05
2.38331e-05
2.29416e-05
2.21908e-05
2.16681e-05
2.11026e-05
2.01044e-05
1.92758e-05
1.83491e-05
1.73398e-05
1.63469e-05
1.5207e-05
1.41087e-05
1.30671e-05
1.19219e-05
1.09407e-05
9.89449e-06
8.99147e-06
8.14654e-06
7.36022e-06
6.59334e-06
6.02632e-06
5.3005e-06
5.117e-06
4.37669e-06
2.15615
2.40793
2.14333
2.1483
1.78278
0.816884
0.264003
0.0863933
0.00548843
0.00188949
0.00227807
0.00194098
0.00165694
0.00144486
0.00127126
0.00112693
0.00100175
0.000893551
0.0007972
0.000712908
0.000637468
0.00056821
0.000506867
0.00045143
0.00040121
0.0003557
0.00031614
0.000281558
0.000250452
0.00022333
0.000199131
0.000178066
0.000158782
0.000140579
0.000124203
0.000109003
9.40639e-05
8.06003e-05
6.85697e-05
5.80253e-05
4.92853e-05
4.24036e-05
3.64287e-05
3.26852e-05
2.98515e-05
2.77046e-05
2.65742e-05
2.53904e-05
2.50592e-05
2.35618e-05
2.2532e-05
2.14787e-05
2.05837e-05
1.99497e-05
1.93858e-05
1.84767e-05
1.76839e-05
1.68257e-05
1.59065e-05
1.49957e-05
1.39657e-05
1.29456e-05
1.20229e-05
1.09848e-05
1.00888e-05
9.15129e-06
8.31601e-06
7.56227e-06
6.85129e-06
6.15132e-06
5.64827e-06
4.96908e-06
4.84923e-06
4.15078e-06
2.78797
3.15559
2.77661
2.49555
2.3251
1.44274
0.437378
0.245625
0.0354588
0.00119055
0.00194777
0.00201103
0.00167499
0.00142673
0.00123733
0.00108722
0.000960646
0.000853867
0.00075996
0.000678377
0.000606255
0.000540307
0.000482204
0.000429882
0.000382777
0.000339791
0.000302016
0.000269441
0.000240183
0.000214729
0.000192088
0.000172387
0.000154328
0.000136692
0.0001212
0.000107071
9.3393e-05
8.1026e-05
6.96397e-05
5.98024e-05
5.14982e-05
4.4681e-05
3.91938e-05
3.5163e-05
3.22433e-05
2.9618e-05
2.76675e-05
2.57435e-05
2.46579e-05
2.29549e-05
2.15065e-05
2.02762e-05
1.9253e-05
1.84825e-05
1.78598e-05
1.70351e-05
1.62429e-05
1.54302e-05
1.45695e-05
1.37302e-05
1.27965e-05
1.18627e-05
1.10465e-05
1.01092e-05
9.29833e-06
8.46153e-06
7.69888e-06
7.02564e-06
6.38541e-06
5.74603e-06
5.30526e-06
4.66719e-06
4.60648e-06
3.94347e-06
3.58879
3.97688
3.56747
2.9639
2.80513
2.12531
0.834101
0.48735
0.142497
0.00892656
0.00104876
0.00192729
0.00173494
0.00143813
0.00122335
0.00106343
0.000932955
0.0008253
0.000732334
0.000652066
0.000582021
0.000518413
0.000462591
0.000412615
0.000368018
0.000327303
0.000291174
0.000260277
0.000232747
0.000208778
0.000187401
0.000168744
0.000151575
0.000134399
0.000119467
0.000106075
9.34072e-05
8.19978e-05
7.134e-05
6.21435e-05
5.4274e-05
4.75306e-05
4.23197e-05
3.80751e-05
3.48768e-05
3.18611e-05
2.92559e-05
2.65867e-05
2.47115e-05
2.27612e-05
2.09284e-05
1.94791e-05
1.83055e-05
1.73735e-05
1.66404e-05
1.58368e-05
1.50194e-05
1.4211e-05
1.33792e-05
1.25809e-05
1.17326e-05
1.08689e-05
1.01458e-05
9.30325e-06
8.56891e-06
7.82744e-06
7.13392e-06
6.53315e-06
5.95858e-06
5.37426e-06
4.99197e-06
4.39163e-06
4.38537e-06
3.75235e-06
4.57471
4.84841
4.39583
3.62285
3.17769
2.7807
1.5167
0.710231
0.389018
0.0601323
0.00110086
0.00125845
0.00176455
0.00149273
0.00123404
0.00105613
0.00091871
0.000807818
0.000714107
0.000633873
0.000564664
0.000502458
0.000448004
0.000399567
0.000356764
0.000317945
0.0002833
0.000253753
0.000227747
0.000205067
0.000184731
0.000166843
0.000150289
0.000133572
0.000118989
0.000106079
9.41449e-05
8.35235e-05
7.35473e-05
6.49255e-05
5.74542e-05
5.08215e-05
4.57003e-05
4.12621e-05
3.76612e-05
3.43077e-05
3.11826e-05
2.79261e-05
2.53003e-05
2.305e-05
2.08648e-05
1.91556e-05
1.77857e-05
1.66652e-05
1.57655e-05
1.49167e-05
1.40466e-05
1.31994e-05
1.23664e-05
1.15752e-05
1.07917e-05
9.97893e-06
9.32972e-06
8.57511e-06
7.9058e-06
7.24983e-06
6.61982e-06
6.08344e-06
5.56974e-06
5.03561e-06
4.70693e-06
4.14129e-06
4.18493e-06
3.57641e-06
5.64296
5.69267
5.16827
4.33995
3.541
3.22961
2.28026
0.928976
0.734209
0.222832
0.019772
0.000358465
0.00137325
0.00155057
0.00127782
0.00106719
0.00091743
0.000801087
0.000704833
0.000623394
0.000553869
0.000492191
0.000438306
0.000390663
0.000348951
0.00031158
0.000278191
0.000249653
0.000224849
0.000203188
0.000183712
0.00016638
0.000150276
0.000134037
0.000119714
0.000107115
9.56875e-05
8.56554e-05
7.62379e-05
6.8079e-05
6.09341e-05
5.44246e-05
4.92635e-05
4.46128e-05
4.05663e-05
3.68738e-05
3.33259e-05
2.96582e-05
2.64125e-05
2.38125e-05
2.13115e-05
1.93197e-05
1.77135e-05
1.63718e-05
1.52536e-05
1.42928e-05
1.33416e-05
1.24178e-05
1.15507e-05
1.07336e-05
9.98653e-06
9.20596e-06
8.60693e-06
7.92821e-06
7.31256e-06
6.72905e-06
6.15618e-06
5.67593e-06
5.21795e-06
4.72945e-06
4.44928e-06
3.91554e-06
4.00457e-06
3.41545e-06
6.43248
6.27957
5.74601
4.96045
4.00171
3.4071
2.84616
1.32354
0.968753
0.554367
0.103263
0.00415814
0.000597406
0.00140826
0.0013398
0.00110331
0.000930172
0.000804738
0.000704192
0.000620263
0.000549333
0.000487316
0.000433337
0.000385888
0.000344649
0.000308211
0.000275782
0.000247907
0.000223887