/*--------------------------------*- C++ -*----------------------------------*\
| =========                 |                                                 |
| \\      /  F ield         | OpenFOAM: The Open Source CFD Toolbox           |
|  \\    /   O peration     | Version:  2312                                  |
|   \\  /    A nd           | Website:  www.openfoam.com                      |
|    \\/     M anipulation  |                                                 |
\*---------------------------------------------------------------------------*/
FoamFile
{
    version     2.0;
    format      ascii;
    arch        "LSB;label=32;scalar=64";
    class       volScalarField;
    location    "100";
    object      turbulenceProperties:L;
}
// * * * * * * * * * * * * * * * * * * * * * * * * * * * * * * * * * * * * * //

dimensions      [0 1 0 0 0 0 0];

internalField   nonuniform List<scalar> 
11040
(
0.000560374
0.000456393
0.000497348
0.000657274
0.00141783
0.00258869
0.00151856
0.00152108
0.00148067
0.00146544
0.00145164
0.00142862
0.00139064
0.00138588
0.00137667
0.00140387
0.00144314
0.00152903
0.00168027
0.00265661
0.00209513
0.00142884
0.00134453
0.00130124
0.00127051
0.00126306
0.00128804
0.00132912
0.00136638
0.00154116
0.00169583
0.0020483
0.00198683
0.00176449
0.00179364
0.00161405
0.00152472
0.00147453
0.00144355
0.001425
0.00137537
0.00117296
0.00108575
0.00101518
0.00083258
0.000747981
0.000976194
0.00203913
0.00311617
0.00432318
0.00500572
0.0053587
0.00555249
0.00598212
0.0062707
0.00610798
0.00582176
0.00587216
0.00629613
0.00677839
0.00703399
0.00730903
0.00789207
0.00865606
0.00996384
0.011485
0.0101979
0.0112398
0.0117955
0.00815161
0.00688786
0.00864559
0.0206797
0.0133005
0.010802
0.00983627
0.00923591
0.00884365
0.00860978
0.00841792
0.00846154
0.0063076
0.00156037
0.00183335
0.00215731
0.00214469
0.00108891
0.000962645
0.0014581
0.00248142
0.0037095
0.00523051
0.00676673
0.00763268
0.00827255
0.00908622
0.00982993
0.00998264
0.0100599
0.0107446
0.0118622
0.0126715
0.0132559
0.0142287
0.0161213
0.0190482
0.0192564
0.0152359
0.0123457
0.0103722
0.00933545
0.00955355
0.0147157
0.0284533
0.0202642
0.0175925
0.0163516
0.0156332
0.0152808
0.0153084
0.0156118
0.0170526
0.013563
0.00186552
0.00210893
0.00238247
0.00260758
0.00459709
0.00150949
0.00124394
0.00177806
0.00277477
0.0041616
0.00582515
0.00759836
0.00901062
0.010567
0.0125798
0.0141374
0.0148875
0.0159954
0.0178824
0.0189479
0.0183756
0.018786
0.020667
0.0229161
0.0221552
0.0183537
0.0154744
0.0140115
0.0134888
0.015496
0.0269382
0.0332263
0.0264261
0.0235808
0.0220335
0.0210583
0.020577
0.0205968
0.0211926
0.0232333
0.0218596
0.00223617
0.00238591
0.00256784
0.00279561
0.00292852
0.00439549
0.00250747
0.00147557
0.00203846
0.00307972
0.00450925
0.00621692
0.00804693
0.010118
0.0127632
0.0159176
0.0187045
0.0212819
0.0246285
0.0268072
0.0242764
0.0235073
0.0254319
0.028442
0.028484
0.0239798
0.0203134
0.0186486
0.018961
0.0254092
0.0439982
0.0391352
0.0331319
0.0299143
0.0279568
0.0266189
0.0258989
0.0257724
0.0264369
0.0284173
0.0290257
0.00270994
0.00282555
0.00298781
0.00319721
0.00336368
0.00337438
0.0046977
0.0070334
0.00184102
0.00224063
0.00333932
0.00476514
0.00651803
0.00858355
0.0112295
0.0148572
0.0194015
0.0243038
0.0302783
0.0363356
0.0328095
0.0297454
0.0315819
0.0364205
0.038349
0.0316009
0.0260278
0.0242681
0.0268944
0.0418348
0.0561166
0.0462934
0.0405629
0.0368543
0.0343554
0.032551
0.0314666
0.0310796
0.0316194
0.0331707
0.03442
0.00324975
0.0033424
0.00344871
0.00360602
0.00384577
0.00396454
0.00389476
0.00540723
0.0805508
0.00436151
0.00231423
0.00346891
0.00496023
0.00685324
0.0092462
0.0124596
0.0172041
0.0235353
0.0315867
0.0430145
0.0465331
0.0394902
0.0402163
0.0482289
0.0546978
0.0411471
0.0329491
0.0318177
0.040114
0.066105
0.063936
0.0546375
0.0488818
0.0445854
0.0414067
0.0390052
0.0374039
0.0365861
0.0367648
0.0376892
0.0388596
0.00387507
0.003958
0.00402468
0.00411728
0.00427678
0.00454264
0.00467915
0.0044964
0.0058016
0.0432531
2.61574
0.0023898
0.00336051
0.00513148
0.00726878
0.00996861
0.0139399
0.0200785
0.0286378
0.0408402
0.058631
0.0582882
0.0546245
0.0680219
0.0918032
0.0532379
0.0421166
0.0431841
0.0626136
0.0871828
0.0725578
0.064256
0.0583062
0.0533204
0.0493257
0.0461562
0.0438463
0.0423443
0.0418684
0.0420153
0.0428891
0.00459341
0.00467066
0.0047281
0.00479013
0.00488803
0.00505384
0.00537239
0.00551811
0.00520103
0.00586684
0.0822504
0.0418764
0.145602
0.00314024
0.00529929
0.00760465
0.0107171
0.0157967
0.0234743
0.0343311
0.0503445
0.0733997
0.0803664
0.0960096
0.120386
0.0654217
0.0548128
0.0628697
0.102347
0.0994834
0.0833571
0.0754892
0.0691427
0.0633482
0.0583755
0.0542407
0.0509842
0.0485149
0.0471053
0.0463211
0.0468027
0.0054197
0.00550256
0.00556522
0.00561325
0.00567759
0.00578527
0.00597282
0.00634594
0.00651833
0.00608661
0.00639183
0.0176396
0.213132
0.00583512
0.0032635
0.00522048
0.00759699
0.0115104
0.0179249
0.0269213
0.0391652
0.0548395
0.0705954
0.0765119
0.0757564
0.0687723
0.070053
0.0986791
0.159887
0.112824
0.0973774
0.0891798
0.082099
0.075229
0.0690147
0.0636311
0.0591552
0.0554511
0.0528942
0.0510533
0.0509867
0.00637484
0.00646686
0.00654656
0.00660379
0.00665294
0.00673911
0.00687184
0.00708981
0.0075046
0.00773484
0.00719952
0.00720059
0.014009
0.128522
0.0187022
0.00467833
0.00387255
0.00656226
0.0120753
0.0198017
0.0294948
0.0409793
0.0527254
0.0596912
0.0621444
0.0659987
0.0804522
0.146102
0.200333
0.131707
0.115048
0.105864
0.097784
0.08953
0.0817639
0.0747315
0.0686618
0.0634587
0.0595215
0.0563795
0.055341
0.00747676
0.00757572
0.00769157
0.00777088
0.00783314
0.00791291
0.00803719
0.00821163
0.00846783
0.00893284
0.00921628
0.00869953
0.00832614
0.0125921
0.199448
0.120049
0.0117203
0.0119427
0.00502909
0.0122502
0.0208749
0.0304324
0.0408361
0.0502041
0.0556039
0.0640442
0.0849537
0.159127
0.245442
0.15429
0.133218
0.122522
0.114011
0.105473
0.0965773
0.0876519
0.0796262
0.0727088
0.067118
0.0623129
0.0606182
0.00874161
0.00884961
0.00901168
0.0091296
0.00921718
0.0093189
0.00945627
0.00965357
0.00990605
0.010237
0.010786
0.0111962
0.0105162
0.00990348
0.0115576
0.0396814
0.258904
0.437291
0.00693883
0.00710768
0.0119087
0.02139
0.0314342
0.0425013
0.0520614
0.0639283
0.0888054
0.160266
0.35859
0.179424
0.150114
0.136828
0.127703
0.1192
0.110378
0.101142
0.0916394
0.0829949
0.0758477
0.0698922
0.067886
0.0101907
0.0103037
0.0105216
0.010689
0.0108103
0.0109554
0.0111451
0.0113848
0.0117218
0.0121478
0.012684
0.0134578
0.0140969
0.0132111
0.0118743
0.0120318
0.0218676
0.152375
12.9731
0
0.00714673
0.0120297
0.0229931
0.0356262
0.0498718
0.0662232
0.0940546
0.158719
0.313338
0.195417
0.161036
0.145787
0.136307
0.128244
0.120156
0.111655
0.102597
0.0931154
0.0849578
0.0789658
0.0774962
0.0118447
0.0119554
0.012232
0.0124484
0.0126031
0.0127899
0.0130411
0.013368
0.0137946
0.0144071
0.0152348
0.0163187
0.0178475
0.0194063
0.0175616
0.014122
0.0132891
0.0201335
0.763947
2.67426
0
0.00767296
0.0130159
0.0280694
0.0461355
0.0679185
0.0977345
0.148906
0.205659
0.183394
0.160018
0.146639
0.138033
0.131063
0.124308
0.117282
0.109695
0.101164
0.0924204
0.0856255
0.0827753
0.0137277
0.0138225
0.0141507
0.0144017
0.0145714
0.0147751
0.0150613
0.0154446
0.0159421
0.0166466
0.0176946
0.0193035
0.0218307
0.0265364
0.0361481
0.0251704
0.0167189
0.014184
0.0197212
0.306147
1.85168
0
0.00946528
0.0162166
0.0379312
0.0625335
0.0922255
0.129425
0.159562
0.16016
0.150571
0.14193
0.135257
0.129677
0.124304
0.118685
0.112524
0.105357
0.0969571
0.0884986
0.0807548
0.0158474
0.0159079
0.0162717
0.0165321
0.0166863
0.016869
0.0171328
0.0174899
0.0179652
0.0185723
0.0194475
0.0207832
0.0229235
0.0264087
0.032471
0.0390568
0.0278692
0.0184593
0.0147173
0.0181672
0.283183
1.63648
0
0.0123346
0.020282
0.0483646
0.0763161
0.104531
0.127562
0.138008
0.138614
0.135632
0.131769
0.127819
0.123796
0.119356
0.114258
0.108348
0.101203
0.092634
0.0829883
0.0181107
0.0181183
0.0184933
0.0187291
0.0188322
0.0189518
0.0191344
0.0193829
0.0197232
0.0201232
0.0206273
0.0213196
0.0222875
0.0235725
0.0248676
0.0254964
0.0251207
0.0229448
0.0182689
0.0151003
0.0179463
0.181336
0.921694
0
0.0143077
0.0233423
0.0535138
0.0798831
0.10055
0.114463
0.122229
0.125653
0.126348
0.125433
0.123502
0.120896
0.117626
0.113484
0.108363
0.102083
0.094497
0.0204376
0.0203771
0.0207395
0.0209258
0.020956
0.020989
0.0210647
0.0211755
0.0213481
0.0215494
0.0217255
0.0219479
0.0222305
0.0225682
0.022871
0.0228616
0.0224217
0.0217771
0.0204711
0.0175513
0.0153782
0.0182664
0.0924241
0.576918
0
0.0101842
0.0135718
0.0504342
0.0755596
0.0922266
0.103359
0.110773
0.115606
0.118538
0.119893
0.119979
0.119103
0.117485
0.115036
0.111948
0.108557
0.0228365
0.0226999
0.0230343
0.0231569
0.023103
0.023039
0.0229999
0.0229708
0.0229702
0.022991
0.0229422
0.0228581
0.0227731
0.0226716
0.0225407
0.0223013
0.0218215
0.0211803
0.0205543
0.0193685
0.0170043
0.0155641
0.018037
0.0842583
0.497277
0
0.0168726
0.0215964
0.033956
0.0648111
0.0826673
0.0940064
0.102228
0.108251
0.112466
0.115218
0.116762
0.117438
0.117417
0.116923
0.116048
0.025337
0.025119
0.0254148
0.0254643
0.0253206
0.0251574
0.0250022
0.0248415
0.0246837
0.0245518
0.024335
0.0240279
0.0237009
0.0233616
0.0229924
0.0225837
0.0220811
0.0214485
0.0207852
0.0202018
0.018913
0.0169863
0.0157799
0.0173276
0.0649282
0.342619
0
0
0.00878424
0.023793
0.0341717
0.0658106
0.0841231
0.0950486
0.103117
0.10915
0.113333
0.116055
0.117502
0.117946
0.117705
0.0279711
0.0276632
0.0279089
0.0278806
0.0276443
0.0273807
0.0271106
0.0268264
0.0265265
0.026254
0.0259113
0.0254484
0.0249492
0.0244461
0.0239224
0.0233841
0.0228146
0.0221931
0.0215048
0.0208879
0.0202089
0.0190061
0.0172871
0.0163134
0.0164816
0.0338942
0.189511
4.06676
0
0
0.008542
0.0181323
0.0170713
0.0502994
0.0803444
0.0975659
0.107477
0.114121
0.11853
0.121039
0.122132
0.0307609
0.0303609
0.0305493
0.0304363
0.0301041
0.0297358
0.0293528
0.0289471
0.028518
0.0281031
0.0276522
0.0270825
0.0264579
0.0258253
0.0251889
0.0245507
0.0239082
0.0232599
0.0225772
0.0219136
0.0212386
0.020466
0.0195317
0.0180861
0.0168763
0.0169602
0.0197724
0.0945234
0.367474
3.91252
0
0
0.0177791
0.0114613
0.0211955
0.0210104
0.0465887
0.0773179
0.104416
0.120846
0.12837
0.0337423
0.0332366
0.0333614
0.0331584
0.0327298
0.0322539
0.0317615
0.0312371
0.0306915
0.0301476
0.0295982
0.0289366
0.0282018
0.0274595
0.0267307
0.0260118
0.0253069
0.0246124
0.0239186
0.0232502
0.0225232
0.0217741
0.0211033
0.0202636
0.0192068
0.0179014
0.0172992
0.0181469
0.0215074
0.0801872
0.355138
1.87641
22.2193
0
0
0.0122243
0.0108155
0.0172714
0.0109557
0.0266358
0.0440619
0.0369331
0.0363224
0.0363755
0.0360754
0.0355451
0.0349615
0.0343571
0.0337166
0.0330578
0.032394
0.0317493
0.0310052
0.0301715
0.0293372
0.0285265
0.0277339
0.0269686
0.0262255
0.0254998
0.0248211
0.0240875
0.0233086
0.0226056
0.0219527
0.0212633
0.0204093
0.0194062
0.0184428
0.0179597
0.0187555
0.021405
0.0346461
0.544184
0.866496
2.1139
11.3765
0
0
0.093053
0.0103436
0.0105841
0.0403721
0.0396451
0.0396131
0.0392156
0.0385747
0.0378802
0.0371566
0.0363998
0.035622
0.0348373
0.0340863
0.0332727
0.0323545
0.0314406
0.0305485
0.0296875
0.0288569
0.028066
0.0272986
0.0265987
0.0258589
0.025084
0.0243591
0.0236817
0.0230495
0.0224553
0.0218086
0.0210607
0.0202339
0.0194191
0.0189334
0.0190537
0.0202587
0.02386
0.034052
0.178774
0.61409
1.94771
2.88918
5.8144
0
0.0440786
0.0432378
0.0431097
0.042604
0.0418456
0.0410361
0.0401859
0.0393076
0.0384059
0.0375045
0.036635
0.0357435
0.0347545
0.0337628
0.0327901
0.0318566
0.0309605
0.0301175
0.0293061
0.0285737
0.0278166
0.0270427
0.0263222
0.0256317
0.0249806
0.0243884
0.023843
0.0233205
0.0227773
0.0221633
0.0215161
0.0208594
0.020301
0.0200365
0.0201274
0.0209921
0.0230729
0.0277083
0.0384756
0.074727
0.397191
0.0480978
0.0471212
0.0468924
0.0462718
0.0453874
0.04445
0.043469
0.0424622
0.0414362
0.0404156
0.0394251
0.0384442
0.0373855
0.0363087
0.0352574
0.0342529
0.033294
0.0323942
0.0315375
0.0307641
0.0299795
0.0291901
0.0284695
0.0277786
0.0271248
0.0265182
0.025963
0.0254554
0.0249923
0.0245546
0.0241252
0.0236774
0.0231998
0.0227073
0.0222342
0.0217702
0.0214626
0.0214043
0.0214939
0.0222636
0.0228633
0.0524558
0.0513469
0.0510058
0.0502452
0.0492303
0.0481489
0.0470331
0.0458843
0.0447305
0.0435808
0.0424709
0.041388
0.040256
0.0390904
0.03797
0.0368925
0.0358733
0.0349141
0.0340109
0.0331921
0.0323798
0.0315709
0.0308447
0.0301496
0.0294947
0.0288828
0.0283222
0.0278049
0.0273337
0.0269029
0.0265119
0.0261512
0.0258157
0.0254918
0.0251695
0.0248346
0.0244837
0.024172
0.0237569
0.0237734
0.0230444
0.0572083
0.0559425
0.0554802
0.0545703
0.0534067
0.0521675
0.0509043
0.0496025
0.0483098
0.0470233
0.0457831
0.0445912
0.0433807
0.0421266
0.0409293
0.039777
0.0386903
0.037669
0.0367138
0.0358526
0.0350053
0.0341731
0.033432
0.032727
0.0320654
0.0314522
0.0308899
0.0303717
0.0298967
0.0294615
0.0290669
0.0287087
0.0283873
0.0280981
0.0278323
0.0275887
0.027353
0.0271724
0.0268513
0.0270415
0.0262684
0.0623849
0.0609758
0.0603592
0.0592804
0.0579519
0.0565413
0.0551108
0.0536484
0.0522011
0.0507726
0.0493899
0.0480802
0.0467778
0.0454379
0.0441559
0.0429274
0.0417658
0.0406819
0.0396657
0.0387538
0.0378606
0.0370005
0.0362373
0.0355207
0.0348472
0.0342252
0.0336554
0.0331373
0.0326635
0.0322324
0.0318394
0.031482
0.0311582
0.0308675
0.0306017
0.0303643
0.0301402
0.0299922
0.0296916
0.0300277
0.02919
0.0680571
0.066474
0.0656873
0.0644339
0.0629035
0.0613107
0.0596876
0.0580579
0.0564347
0.0548567
0.0533197
0.0518783
0.0504642
0.0490473
0.0476729
0.0463688
0.0451287
0.0439769
0.0428929
0.0419321
0.0409927
0.040101
0.0393112
0.0385748
0.0378805
0.0372481
0.0366722
0.036151
0.0356738
0.0352411
0.0348471
0.0344919
0.0341715
0.0338847
0.0336214
0.0333879
0.0331655
0.0330278
0.0327058
0.0331467
0.032164
0.0742752
0.0725212
0.0715312
0.0700711
0.0683209
0.0665191
0.0646833
0.0628639
0.0610497
0.0593033
0.0576033
0.0560141
0.0544776
0.0529642
0.0514886
0.0501004
0.0487809
0.0475594
0.0464164
0.0454001
0.044411
0.0434809
0.0426626
0.041904
0.0411949
0.0405462
0.0399561
0.0394223
0.038937
0.0384995
0.038105
0.03775
0.0374307
0.0371448
0.0368827
0.0366506
0.0364264
0.0362959
0.0359452
0.0364957
0.035322
0.0811296
0.0791631
0.0779597
0.0762576
0.0742634
0.072214
0.0701517
0.0681071
0.0660928
0.0641497
0.0622822
0.060522
0.0588513
0.0572223
0.0556442
0.0541601
0.0527609
0.0514579
0.0502406
0.049154
0.0481149
0.0471391
0.0462885
0.0455003
0.044767
0.0440956
0.0434935
0.042951
0.0424612
0.0420169
0.0416183
0.0412585
0.0409359
0.0406458
0.0403804
0.040144
0.0399137
0.039788
0.0394045
0.0400714
0.0386662
0.0886985
0.0865133
0.0850455
0.0830563
0.0807952
0.0784594
0.0761395
0.0738391
0.0716041
0.0694431
0.0673901
0.0654426
0.0636301
0.0618738
0.0601777
0.0585905
0.0571019
0.055709
0.0544205
0.0532713
0.0521719
0.0511413
0.0502493
0.0494257
0.048667
0.0479752
0.0473511
0.0467856
0.0462783
0.0458212
0.0454122
0.0450426
0.0447118
0.0444141
0.0441406
0.0438956
0.0436528
0.0435254
0.0430959
0.0438872
0.0421858
0.0971077
0.0946551
0.0928736
0.0905725
0.0879764
0.0853253
0.0826943
0.0801254
0.0776282
0.0752363
0.072966
0.070822
0.0688342
0.0669376
0.0651121
0.0634164
0.0618273
0.0603481
0.0589723
0.0577426
0.0565737
0.0554898
0.0545524
0.0536949
0.0529013
0.0521769
0.0515275
0.050946
0.0504245
0.0499542
0.049531
0.0491475
0.0488015
0.0484882
0.0481974
0.0479345
0.0476699
0.0475323
0.047043
0.0479591
0.0458956
0.106485
0.103732
0.101576
0.0988721
0.0959112
0.0928794
0.0899137
0.0870127
0.0842399
0.0815724
0.0790691
0.0766958
0.07452
0.0724578
0.0704967
0.068669
0.0669713
0.0653845
0.0639138
0.0626
0.0613546
0.0602006
0.0592033
0.0582934
0.057459
0.0567008
0.0560205
0.055408
0.0548561
0.0543551
0.0539004
0.0534846
0.0531073
0.0527627
0.0524394
0.0521434
0.051842
0.051679
0.0511188
0.0521463
0.0496753
0.117006
0.113881
0.111244
0.108098
0.104688
0.101219
0.0978463
0.0945958
0.0914875
0.088527
0.0857452
0.0831373
0.0807313
0.0784806
0.076357
0.0743898
0.0725632
0.0708661
0.0692874
0.067877
0.0665391
0.0653151
0.0642574
0.0632988
0.0624168
0.0616167
0.0608952
0.0602457
0.0596566
0.0591211
0.0586313
0.0581817
0.0577686
0.0573881
0.0570261
0.0566922
0.0563468
0.056152
0.0555072
0.0566579
0.0536938
0.128887
0.125281
0.122052
0.118327
0.114364
0.110418
0.10658
0.102926
0.0994374
0.0961537
0.0930645
0.0901944
0.087538
0.0850914
0.0827923
0.0806641
0.0786961
0.076877
0.0751783
0.0736668
0.0722397
0.0709309
0.0697894
0.0687609
0.0678178
0.0669612
0.0661842
0.0654813
0.064839
0.0642493
0.0637027
0.0631942
0.0627194
0.0622745
0.0618449
0.0614419
0.0610226
0.0607652
0.0600069
0.0612413
0.0577183
0.142506
0.138264
0.134223
0.12975
0.125126
0.120536
0.11616
0.11203
0.108145
0.104491
0.101079
0.0979097
0.0949829
0.0922868
0.0897785
0.0874594
0.0853327
0.0833678
0.0815432
0.079903
0.0783525
0.076934
0.0756994
0.0745868
0.0735671
0.0726364
0.0717906
0.0710207
0.0703139
0.0696607
0.0690517
0.0684778
0.0679353
0.0674203
0.0669186
0.0664404
0.0659429
0.0656146
0.0647439
0.0660291
0.0618991
0.1584
0.153307
0.148243
0.142778
0.137216
0.131851
0.126767
0.122057
0.117663
0.113602
0.109822
0.106344
0.103132
0.100209
0.0974953
0.0949714
0.0926594
0.0905324
0.0885575
0.0867885
0.0851272
0.0836032
0.0822606
0.0810466
0.0799304
0.0789044
0.0779631
0.0770979
0.076294
0.0755401
0.0748258
0.0741422
0.0734848
0.0728495
0.0722226
0.0716164
0.0709848
0.0705315
0.0694985
0.0707917
0.0660005
0.176844
0.170571
0.164153
0.157491
0.150913
0.144576
0.138652
0.133216
0.128219
0.123621
0.119384
0.11549
0.111905
0.108631
0.105613
0.102829
0.100314
0.0979978
0.095843
0.0938856
0.0920376
0.0903361
0.088835
0.0874795
0.0862323
0.0850809
0.0840245
0.0830522
0.0821502
0.0813015
0.0804947
0.0797159
0.0789616
0.0782224
0.0774846
0.0767553
0.0759993
0.0754139
0.0742377
0.0754142
0.0699666
0.197603
0.189278
0.180958
0.172805
0.165088
0.157885
0.151294
0.145242
0.13971
0.134605
0.129936
0.125668
0.121795
0.1183
0.115089
0.11208
0.109347
0.106851
0.104559
0.102489
0.100549
0.0987468
0.097114
0.0956091
0.0942096
0.0928983
0.0916697
0.0905125
0.0894191
0.088375
0.0873696
0.0863908
0.0854362
0.0844987
0.0835628
0.0826395
0.0816851
0.0809202
0.0795246
0.0806898
0.0744399
0.223161
0.211343
0.199694
0.188938
0.179343
0.170869
0.16343
0.156862
0.150969
0.145562
0.140547
0.135868
0.131505
0.127459
0.123728
0.120321
0.117225
0.114361
0.111687
0.109238
0.106943
0.104837
0.102943
0.101219
0.0996262
0.0981397
0.0967518
0.0954481
0.0942116
0.0930259
0.0918814
0.0907631
0.0896628
0.0885696
0.0874702
0.0863674
0.0852313
0.0842396
0.0826785
0.0833899
0.0767729
0.265023
0.248762
0.23152
0.215604
0.201642
0.18964
0.179431
0.170801
0.163442
0.157115
0.151607
0.146791
0.142538
0.1388
0.135439
0.13232
0.12946
0.126842
0.124373
0.122045
0.119776
0.117587
0.11552
0.113563
0.111696
0.109898
0.108164
0.10649
0.104872
0.103302
0.101773
0.100278
0.0988183
0.0973883
0.095974
0.0945882
0.0931806
0.0919795
0.0901268
0.0910003
0.0832276
0.329038
0.30281
0.274529
0.250904
0.231968
0.216591
0.203849
0.193068
0.183683
0.175316
0.167728
0.160763
0.154304
0.14829
0.142603
0.137373
0.132743
0.12867
0.125068
0.121881
0.119002
0.116399
0.114056
0.111931
0.109969
0.108134
0.1064
0.104743
0.103139
0.10157
0.10002
0.0984772
0.0969334
0.0953821
0.0938136
0.0922265
0.0906111
0.0890915
0.0871169
0.0869923
0.0799471
0.32896
0.291942
0.266166
0.247347
0.232178
0.218688
0.206451
0.19553
0.186164
0.178445
0.17238
0.167895
0.164809
0.162863
0.161991
0.161942
0.161869
0.161109
0.159489
0.157199
0.154435
0.151452
0.148361
0.145272
0.142231
0.139258
0.136367
0.133568
0.130857
0.128228
0.125677
0.123198
0.120781
0.118425
0.11612
0.113884
0.111643
0.10965
0.106937
0.107422
0.0971226
0.226372
0.185235
0.16192
0.147788
0.138974
0.133579
0.130503
0.129046
0.128681
0.128967
0.129506
0.12995
0.130041
0.129675
0.128817
0.127307
0.125304
0.123204
0.12118
0.119287
0.117549
0.115902
0.114409
0.113038
0.111757
0.110538
0.109354
0.108177
0.106981
0.105744
0.104447
0.103074
0.101617
0.100069
0.0984255
0.0966887
0.0948576
0.0930406
0.090748
0.0902363
0.0822089
0.00699093
0.0113268
0.0129308
0.0117269
0.0116434
0.00504293
0.00332063
0.00433211
0.0044473
0.00450648
0.00464273
0.00475129
0.00492559
0.00514575
0.00538923
0.00567881
0.00599359
0.00633744
0.00670791
0.00710085
0.0075292
0.00798361
0.00847161
0.00898993
0.00954829
0.0101369
0.0107528
0.0114171
0.0121293
0.012902
0.0137476
0.014674
0.0156952
0.0168263
0.0181465
0.0196638
0.0214813
0.0236036
0.025908
0.0287495
0.0318971
0.0353661
0.0399313
0.0430305
0.0453851
0.0458637
0.0443686
0.0423207
0.0410603
0.0411598
0.0404488
0.040757
0.0409924
0.0413452
0.0420105
0.0428365
0.0438281
0.0448613
0.0462503
0.0475846
0.0494564
0.0510742
0.0533405
0.0557984
0.05828
0.061491
0.064331
0.0679939
0.071681
0.0759216
0.0798575
0.0852382
0.0879329
0.0954168
0.00971261
0.0142663
0.0184777
0.0178114
0.0158899
0.00985031
0.00340426
0.00416628
0.00438626
0.00449567
0.0047045
0.00487685
0.00507776
0.0053223
0.00558034
0.00588043
0.00620476
0.00655547
0.00693447
0.00733182
0.00776741
0.00823435
0.00873444
0.00926782
0.00984553
0.0104561
0.0110879
0.0117684
0.0124955
0.0132777
0.0141328
0.0150528
0.0160641
0.0171842
0.0184913
0.0199911
0.0218491
0.0239953
0.0263086
0.0291275
0.0322848
0.0356138
0.0399574
0.0427345
0.0450698
0.0457926
0.0446697
0.043136
0.0418716
0.0424465
0.0417659
0.0422143
0.04251
0.0428486
0.0435168
0.0443647
0.0453876
0.0464541
0.0478994
0.0492515
0.0512191
0.0528855
0.0551783
0.0577902
0.060279
0.0636239
0.0665186
0.0702243
0.0740021
0.0783531
0.0822225
0.0877704
0.0901906
0.0977315
0.0141477
0.0188888
0.022923
0.0258823
0.0220406
0.0197679
0.00595939
0.00326232
0.00439545
0.00441558
0.00468012
0.00495736
0.00521032
0.00549051
0.00578157
0.00610121
0.00644371
0.00680874
0.0071996
0.00760864
0.00805132
0.00853193
0.00904394
0.00959277
0.010189
0.0108227
0.0114757
0.0121746
0.01292
0.0137117
0.0145692
0.0154756
0.0164677
0.0175526
0.0188023
0.0202366
0.0220306
0.0240872
0.0263085
0.0289733
0.0318933
0.0348003
0.0385686
0.0408237
0.0430986
0.0440413
0.0435241
0.043186
0.0423106
0.0431805
0.043045
0.0436701
0.0441682
0.0445736
0.0451995
0.0462101
0.0472156
0.0483675
0.0498056
0.0512648
0.0532207
0.0551358
0.0573897
0.0601093
0.0627259
0.0660782
0.0692284
0.0728904
0.0767613
0.081192
0.0850729
0.0907492
0.0928281
0.100456
0.0199717
0.0246122
0.0295746
0.0318409
0.0302196
0.028933
0.0117895
0.00369042
0.00461026
0.00440117
0.0046008
0.00496983
0.00529176
0.00561703
0.00594914
0.00629523
0.00666023
0.0070428
0.00744918
0.00787281
0.00832561
0.00881912
0.0093417
0.00990345
0.0105129
0.0111669
0.0118422
0.0125564
0.0133199
0.0141196
0.0149764
0.0158687
0.0168414
0.0179099
0.0191058
0.0204745
0.0221641
0.024092
0.0262161
0.0287028
0.0313538
0.0339556
0.037116
0.0391522
0.0411543
0.0424044
0.0425816
0.0429981
0.0426825
0.0438008
0.0442794
0.0451307
0.0458868
0.0464357
0.0470523
0.0482046
0.0492278
0.0504536
0.051899
0.0534496
0.0554141
0.057528
0.0597743
0.0625767
0.0653198
0.0686838
0.0720475
0.0756889
0.0796267
0.0841274
0.0879936
0.0938226
0.0954875
0.103246
0.0257095
0.0297696
0.0363927
0.0384259
0.0384546
0.0362222
0.0228894
0.0071925
0.00315908
0.00499391
0.00453624
0.00491959
0.0053218
0.00569873
0.00607517
0.00645212
0.00684291
0.00724477
0.00766941
0.00810941
0.00857505
0.00908179
0.00961478
0.0101872
0.010805
0.0114746
0.0121704
0.0128953
0.0136716
0.014477
0.0153303
0.0162106
0.0171655
0.0182417
0.0194056
0.0207128
0.0222953
0.0240837
0.0261093
0.0283811
0.0307937
0.0331979
0.0358169
0.0378126
0.0395669
0.0410716
0.0419362
0.0429027
0.0431851
0.0445358
0.0455414
0.0466438
0.047646
0.0483957
0.049093
0.0502844
0.0513972
0.0526895
0.0541881
0.0558068
0.0578256
0.0600578
0.0623169
0.0651922
0.0680227
0.0714191
0.0749171
0.0785591
0.0825317
0.0870982
0.0908912
0.0969014
0.098089
0.106019
0.0315085
0.0349875
0.0419807
0.0463598
0.0458875
0.0444467
0.0392083
0.0138257
0.00448597
0.00669523
0.00488633
0.00483599
0.00529565
0.00573564
0.00615875
0.00656983
0.00698875
0.00741222
0.0078561
0.00831427
0.00879404
0.00931435
0.0098586
0.0104404
0.0110631
0.011741
0.0124526
0.0131828
0.0139616
0.0147647
0.0156094
0.0164758
0.0174117
0.0184993
0.0196445
0.0208988
0.0223751
0.0240203
0.0259079
0.0279563
0.030125
0.032341
0.0345307
0.0364565
0.0380718
0.0397236
0.0411004
0.0426086
0.0435363
0.0451221
0.0466161
0.0480085
0.0492665
0.0502814
0.0511488
0.0523702
0.0536299
0.0550217
0.056621
0.058323
0.0604107
0.0627403
0.0650137
0.0679578
0.0708558
0.0742738
0.0778626
0.0815047
0.0854901
0.090118
0.093784
0.0999868
0.100641
0.108771
0.037303
0.040504
0.0470127
0.0536504
0.0538227
0.0527793
0.0520042
0.0252139
0.00908542
0.00308883
0.00710638
0.00491921
0.00520855
0.00571511
0.00619463
0.00664382
0.00709272
0.00754048
0.00800401
0.00848146
0.00897637
0.0095101
0.0100665
0.0106576
0.0112838
0.0119639
0.0126833
0.0134138
0.0141836
0.0149743
0.015804
0.0166532
0.0175695
0.0186567
0.0197865
0.0209967
0.0223734
0.0238776
0.0255975
0.0274248
0.0293448
0.0313569
0.0332314
0.0350351
0.0366068
0.0383006
0.03997
0.0419287
0.0434904
0.045315
0.047257
0.0489825
0.050527
0.0518629
0.0529911
0.0543168
0.0557729
0.0573346
0.0590873
0.06093
0.0630912
0.0655467
0.067839
0.0708411
0.0738109
0.0772243
0.0808876
0.0845216
0.0884997
0.0931835
0.0966826
0.103077
0.103147
0.111507
0.042864
0.0459812
0.051994
0.059497
0.0628756
0.061201
0.060851
0.0436116
0.0168506
0.00607927
0.00696853
0.00620045
0.00515811
0.00561647
0.00616977
0.00666766
0.00714855
0.00762279
0.00810671
0.00860355
0.00911452
0.00966113
0.0102303
0.0108314
0.0114615
0.0121398
0.0128594
0.0135861
0.0143394
0.0151101
0.0159185
0.0167484
0.017645
0.0187147
0.0198264
0.0209964
0.0222858
0.0236587
0.0252108
0.0268313
0.0285217
0.0303253
0.0319793
0.0336555
0.0352282
0.0369103
0.0387163
0.0409117
0.0429823
0.0450314
0.0473302
0.0493957
0.0512614
0.0529549
0.0544431
0.0559683
0.0576732
0.0594925
0.0614605
0.063523
0.0657851
0.0684083
0.0707448
0.0737884
0.0768448
0.0802424
0.0839704
0.0875906
0.0915373
0.0962663
0.0995676
0.106147
0.105589
0.114217
0.0476907
0.0508876
0.05697
0.0649649
0.0722396
0.0714899
0.0700718
0.0670574
0.0294623
0.0119348
0.00402654
0.0147939
0.00583232
0.00551194
0.00606914
0.00663467
0.00715453
0.00765595
0.00816119
0.00867692
0.0092043
0.00976278
0.0103442
0.0109555
0.0115904
0.0122644
0.0129782
0.0136984
0.0144326
0.0151808
0.0159634
0.0167725
0.0176464
0.0186827
0.0197668
0.0208951
0.0221058
0.0233629
0.0247625
0.0262032
0.027696
0.0293051
0.0308018
0.0323677
0.0339441
0.0356036
0.0374513
0.0396998
0.0420685
0.0443055
0.0468327
0.0491867
0.0513671
0.0534288
0.0553504
0.0571781
0.0591785
0.0613374
0.0635947
0.0659675
0.0683868
0.0712233
0.0736563
0.0767405
0.0799018
0.0832904
0.0870757
0.090681
0.0945733
0.0993339
0.10241
0.109164
0.107941
0.116878
0.0518667
0.0556547
0.0624226
0.0710999
0.0808403
0.0848445
0.0819899
0.0861856
0.0505169
0.0210648
0.00858324
0.00362469
0.00992551
0.00574733
0.00593207
0.00652999
0.00710667
0.00763965
0.0081663
0.00870034
0.00924383
0.00981313
0.010405
0.0110247
0.0116641
0.0123328
0.0130361
0.0137479
0.0144649
0.0151925
0.0159496
0.0167359
0.0175828
0.0185733
0.019616
0.0206975
0.0218309
0.0229884
0.0242549
0.0255525
0.0268854
0.0283256
0.0297038
0.0311742
0.0327305
0.0343634
0.0361995
0.0383916
0.0408576
0.0432114
0.0458521
0.0483931
0.0508437
0.0532286
0.0556133
0.0578177
0.0601716
0.0626991
0.0653367
0.0680899
0.0707628
0.0738592
0.0764707
0.079637
0.0829286
0.0863315
0.0901671
0.0937643
0.0975902
0.102371
0.105197
0.112109
0.110188
0.119466
0.0566235
0.0618135
0.0696694
0.0788926
0.0886312
0.0983837
0.097766
0.10207
0.0908903
0.0350319
0.0156064
0.0061628
0.00765808
0.00736766
0.00592456
0.00635731
0.00698826
0.00757154
0.00812356
0.00867516
0.00923394
0.00981307
0.0104128
0.0110371
0.0116784
0.0123406
0.0130306
0.0137315
0.0144347
0.0151461
0.0158819
0.0166448
0.0174612
0.0183971
0.0193867
0.0204128
0.0214698
0.022538
0.023688
0.0248724
0.026085
0.0273857
0.02867
0.030054
0.031565
0.0331599
0.0349551
0.0370432
0.0394622
0.0418435
0.0445038
0.0471338
0.0497623
0.0523909
0.0551692
0.0577886
0.0605325
0.0634404
0.0665067
0.0697026
0.0727332
0.0761558
0.0790419
0.0823697
0.0858404
0.0893037
0.0931983
0.0968011
0.100558
0.105356
0.107913
0.114965
0.112323
0.121962
0.0629756
0.0704839
0.0796327
0.0890599
0.0969882
0.107299
0.113262
0.116743
0.213293
0.0569781
0.0254934
0.0116948
0.00454025
0.00932821
0.00662769
0.00624158
0.00679313
0.00743688
0.008032
0.00860466
0.00917817
0.00976617
0.0103711
0.0109957
0.0116349
0.0122893
0.0129642
0.0136513
0.0143423
0.0150415
0.0157613
0.0165028
0.0172881
0.0181667
0.0190958
0.0200591
0.021042
0.0220292
0.023078
0.0241668
0.0252908
0.0264827
0.0276904
0.0289959
0.0304419
0.0319819
0.0337166
0.0356914
0.0379843
0.0403227
0.0429271
0.0455733
0.0482692
0.0510597
0.0540835
0.0570951
0.0602069
0.0634953
0.0669678
0.0706417
0.0741032
0.077933
0.0811998
0.0847884
0.0885286
0.0921236
0.0961168
0.0997498
0.103443
0.108253
0.110543
0.117717
0.114346
0.124358
0.0719051
0.0814364
0.0905397
0.0984705
0.104315
0.111397
0.119605
0.123203
0.154487
0.0901304
0.0384773
0.0189961
0.00880334
0.00395191
0.00769453
0.00647491
0.0066263
0.00723832
0.0078825
0.00848784
0.00907748
0.009673
0.0102804
0.0109019
0.0115348
0.0121791
0.0128382
0.0135092
0.0141861
0.0148732
0.0155783
0.0162999
0.0170545
0.0178779
0.0187439
0.0196417
0.0205547
0.0214714
0.0224322
0.0234362
0.0244871
0.0255954
0.0267377
0.0279731
0.0293435
0.0308143
0.0324709
0.0343345
0.0364764
0.0387234
0.0412276
0.0438348
0.0465229
0.0493816
0.0525103
0.0558005
0.0592161
0.0628398
0.0666632
0.0707848
0.0747196
0.0790127
0.082767
0.0867196
0.0908382
0.0946635
0.0988284
0.102536
0.106186
0.111008
0.113051
0.120335
0.116253
0.126644
0.0862121
0.0975117
0.102818
0.1053
0.106441
0.109015
0.114382
0.116903
0.118501
0.104327
0.0528814
0.0274315
0.0141792
0.00672625
0.00442401
0.00665145
0.0066172
0.00705294
0.00769366
0.00833483
0.00894564
0.00954733
0.0101531
0.0107671
0.0113895
0.012022
0.0126652