/*--------------------------------*- C++ -*----------------------------------*\
| =========                 |                                                 |
| \\      /  F ield         | OpenFOAM: The Open Source CFD Toolbox           |
|  \\    /   O peration     | Version:  2312                                  |
|   \\  /    A nd           | Website:  www.openfoam.com                      |
|    \\/     M anipulation  |                                                 |
\*---------------------------------------------------------------------------*/
FoamFile
{
    version     2.0;
    format      ascii;
    arch        "LSB;label=32;scalar=64";
    class       volScalarField;
    location    "100";
    object      turbulenceProperties:epsilon;
}
// * * * * * * * * * * * * * * * * * * * * * * * * * * * * * * * * * * * * * //

dimensions      [0 2 -3 0 0 0 0];

internalField   nonuniform List<scalar> 
11040
(
18.991
70.2307
97.7863
44.5977
0.40744
0.0409651
1.82129
3.503
4.93867
4.88964
5.11325
5.44286
5.63083
5.36296
4.44911
4.60865
5.9081
6.85463
4.3647
0.936858
3.57509
22.5158
66.4485
112.611
133.581
126.059
110.343
89.8233
59.4982
32.0887
9.95769
6.48605
11.9262
30.9334
94.5269
186.049
340.828
567.603
842.69
1127.37
1093.39
0.874244
1.21633
2.74213
20.329
43.9393
38.7087
54.6743
24.5891
7.4784
3.57078
2.27582
1.68932
1.10014
0.752878
0.774699
1.12069
1.54176
1.79932
1.92095
2.31596
2.73909
2.34283
1.45215
0.594895
0.212472
0.23157
0.158331
0.169359
0.935376
2.05973
1.46503
0.080053
0.734215
2.18763
3.77398
5.17257
6.40548
7.14985
7.57563
6.71479
12.6805
0.280013
0.146761
0.076906
0.116761
4.76479
17.5472
54.5152
63.8872
39.586
14.797
6.75069
4.76862
3.41184
2.05128
1.3666
1.45666
1.92396
2.12817
2.02092
2.06808
2.30829
2.1699
1.30775
0.535183
0.355286
0.66096
1.5717
4.08002
7.78454
7.67359
2.35309
0.291353
1.67447
3.68801
5.65335
7.2477
8.2457
8.19632
7.32534
4.67768
8.07098
0.136852
0.0840334
0.0512763
0.0356887
0.00457539
0.627762
6.87156
31.4868
56.927
45.8304
23.7292
11.9273
7.56121
4.54283
2.4719
1.81997
2.07625
2.24836
1.96119
1.97036
2.8212
3.3383
2.47452
1.425
1.22977
2.04481
4.206
8.10307
10.9161
6.97371
1.34882
0.968239
3.38081
6.4489
9.42623
11.8865
13.3017
13.1168
11.2556
7.13979
6.86265
0.0662944
0.0511369
0.0382048
0.0269918
0.0224375
0.00459336
0.0460876
1.77955
14.287
37.4984
43.7155
31.0864
18.5352
10.4311
5.43319
3.1003
2.62269
2.58033
1.97857
1.69317
2.975
4.35737
3.73038
2.31138
1.89492
3.18853
6.57566
10.5481
10.3649
4.37289
0.852441
2.14353
5.5469
9.79322
13.9575
17.5076
19.5348
19.4579
16.8177
11.6641
8.62572
0.0307275
0.0260011
0.0208016
0.0158696
0.012888
0.0127417
0.00338838
0.000761261
0.246284
5.11259
19.0617
31.5628
30.8978
21.9742
12.5341
6.60703
4.26398
3.51003
2.46373
1.43349
2.35613
4.23545
4.16847
2.58139
1.95846
3.83278
8.13447
11.2143
7.89172
2.22313
1.17084
3.73573
8.05131
13.4521
18.8818
23.6076
26.4141
26.6694
23.6081
18.1442
13.2802
0.0148579
0.0132794
0.011715
0.00980621
0.00757493
0.00669615
0.00719239
0.00199922
9.0929e-08
0.0049102
1.22693
7.08087
17.1634
23.4382
20.5426
13.4087
8.20088
5.71508
3.77643
1.73096
1.36394
2.87177
3.43403
2.06312
1.34474
3.78433
8.55441
10.0087
5.01468
1.17669
2.17333
5.67851
10.7853
17.1909
23.8241
29.6958
33.3971
34.2561
31.3576
26.4512
20.7877
0.00734867
0.00675222
0.00631654
0.00576674
0.00495541
0.00389203
0.00345797
0.00406805
0.00150367
1.78583e-06
1.20797e-11
0.0784107
1.99255
7.83319
14.6184
16.1658
13.2618
9.7663
6.53785
3.2478
1.08698
1.16491
1.85593
1.05304
0.387423
3.21364
7.67477
7.22991
2.52568
1.16254
3.69042
7.92171
13.6338
20.7778
28.3372
35.1756
39.7841
41.6109
39.6739
36.2645
30.7338
0.0037218
0.00348192
0.00331597
0.0031477
0.00290268
0.00254185
0.00198851
0.00179086
0.002292
0.00139422
2.97525e-07
1.56487e-06
8.6871e-08
0.470532
3.20321
7.75128
11.1852
12.0571
10.1459
6.31699
2.65563
0.798751
0.655817
0.45527
0.254673
2.98797
5.97488
4.06972
1.00055
1.88125
5.53725
10.3621
16.4689
23.9723
32.0229
39.4187
44.7629
47.6872
47.228
45.9637
41.8697
0.00192025
0.00180738
0.00172743
0.00166917
0.00159474
0.00147935
0.00130288
0.00102082
0.000920109
0.00123369
0.000987533
3.06472e-05
8.25323e-09
0.00142286
0.105362
1.04437
3.30185
6.71878
9.46796
8.99778
5.87875
2.9978
1.60999
1.67777
2.75525
4.77065
4.75048
1.718
0.447444
2.94783
7.45933
12.7883
19.1022
26.6196
34.6166
42.0095
47.597
51.1631
51.7215
52.6757
50.8286
0.00100311
0.000947334
0.0009021
0.000871264
0.000845853
0.000803338
0.000743227
0.000656142
0.000521714
0.000463749
0.000636014
0.000621005
5.85426e-05
5.27927e-08
1.96342e-05
0.0035371
0.150315
0.909187
3.33271
6.36716
7.5182
6.59294
5.31755
5.60021
8.71765
9.86882
5.53253
0.85636
0.445383
3.86673
9.00618
14.7867
21.1806
28.3652
35.8655
42.7769
48.0025
51.3723
52.0796
54.2771
51.7284
0.00053008
0.000502978
0.000473388
0.000454376
0.000440118
0.000422656
0.000397078
0.000364519
0.000322368
0.000259782
0.000229956
0.000296732
0.000352719
7.56239e-05
1.49381e-08
4.67076e-08
0.000111346
0.000139861
0.186964
1.57526
4.33116
7.15515
9.00744
10.8595
15.572
16.8441
8.58019
1.29137
0.418056
4.06175
9.59852
15.6904
22.0796
28.9295
35.9283
41.966
46.3894
48.7039
48.684
49.4125
43.8522
0.000283662
0.000270095
0.000251202
0.000238485
0.000229558
0.000219707
0.00020722
0.000190782
0.000172119
0.000150899
0.000122206
0.000105456
0.000138689
0.000176646
9.38573e-05
1.77656e-06
5.17887e-09
1.52169e-09
0.000731534
0.177956
0.906719
3.61242
7.8005
12.7589
18.7704
20.9064
11.8199
2.27516
0.155968
3.6277
9.53796
16.0779
22.4904
28.8716
35.1259
40.5487
43.9574
44.5898
42.845
39.4608
30.647
0.000153578
0.000146963
0.000135171
0.000126907
0.000121313
0.000115016
0.000107389
9.86262e-05
8.77644e-05
7.61097e-05
6.4011e-05
5.0436e-05
4.19641e-05
5.51392e-05
8.54085e-05
7.90194e-05
9.46813e-06
2.36505e-08
4.9057e-14
0
0.113481
0.70235
3.63428
9.38379
16.2705
19.3431
12.7794
3.35281
0.375108
3.58696
9.9953
17.3734
24.3276
30.6253
36.1434
40.4363
42.7008
41.7881
37.8096
30.0341
18.5995
8.41414e-05
8.1077e-05
7.39931e-05
6.89851e-05
6.56624e-05
6.19117e-05
5.72804e-05
5.18815e-05
4.57554e-05
3.84598e-05
3.0763e-05
2.33625e-05
1.63177e-05
1.16778e-05
1.7492e-05
4.2884e-05
5.52605e-05
1.05225e-05
1.47335e-10
5.26138e-12
0
0.0813293
0.592919
4.17156
10.5796
14.4513
11.4076
4.83844
2.35006
5.51775
12.4769
21.0421
29.2592
36.2798
41.7322
45.0792
45.8912
43.7423
37.9698
28.3592
15.3157
4.66338e-05
4.53716e-05
4.13087e-05
3.8506e-05
3.67443e-05
3.47609e-05
3.21945e-05
2.91165e-05
2.56496e-05
2.15758e-05
1.69023e-05
1.19333e-05
7.29548e-06
3.34183e-06
9.68854e-07
4.1231e-06
2.1851e-05
4.44725e-05
1.1002e-05
2.26738e-09
1.46383e-11
0
0.0587964
0.512812
4.15981
8.91624
9.65169
6.98667
6.00675
9.47067
16.7622
26.3601
36.3209
45.0718
51.7542
55.6501
56.2769
53.6794
47.3988
37.0015
22.5203
2.62561e-05
2.58613e-05
2.36263e-05
2.21735e-05
2.13663e-05
2.04562e-05
1.9226e-05
1.77037e-05
1.59036e-05
1.39245e-05
1.15828e-05
8.8805e-06
5.99958e-06
3.40779e-06
1.49145e-06
7.09937e-07
2.73903e-06
1.47175e-05
3.88528e-05
1.52537e-05
3.47111e-09
2.24673e-11
0
0.0332109
0.294911
2.75678
6.27181
8.18922
9.61051
13.2524
20.1622
29.7178
40.6907
51.4823
60.5833
67.1352
70.4549
69.7076
64.5971
54.4926
39.1967
1.5392e-05
1.53677e-05
1.41593e-05
1.34601e-05
1.31683e-05
1.28395e-05
1.23569e-05
1.17357e-05
1.09467e-05
1.01023e-05
9.1508e-06
8.01944e-06
6.71437e-06
5.36553e-06
4.33586e-06
3.92312e-06
4.14595e-06
5.9573e-06
1.5375e-05
3.52071e-05
1.60941e-05
1.43106e-08
1.33311e-10
0
0.013649
0.0955561
1.15428
4.00354
8.20027
13.5928
20.604
29.4335
39.8296
51.0349
61.961
71.2027
77.6572
80.7477
79.5174
73.2216
61.0723
9.4906e-06
9.6046e-06
8.95116e-06
8.63693e-06
8.5877e-06
8.53412e-06
8.41229e-06
8.2379e-06
7.97499e-06
7.68132e-06
7.43554e-06
7.1392e-06
6.78353e-06
6.38611e-06
6.05518e-06
6.07119e-06
6.55709e-06
7.33968e-06
9.40371e-06
1.81378e-05
3.25467e-05
1.49959e-05
1.057e-07
5.32906e-10
0
0.00416348
0.00750395
0.243719
1.57993
5.37513
12.2447
21.6593
32.6414
44.3527
56.2149
67.4182
76.8164
83.2329
86.2635
84.9018
77.742
6.08801e-06
6.23637e-06
5.88234e-06
5.75897e-06
5.8131e-06
5.87821e-06
5.91843e-06
5.94871e-06
5.94954e-06
5.92818e-06
5.97901e-06
6.06773e-06
6.15929e-06
6.27069e-06
6.41714e-06
6.69872e-06
7.31435e-06
8.23289e-06
9.24656e-06
1.17498e-05
2.05945e-05
3.06459e-05
1.55968e-05
1.28551e-07
7.58049e-10
0
2.60597e-05
0.0141644
0.0252338
0.234378
1.47526
5.30915
12.7577
23.4429
36.1645
49.5551
62.4525
73.6172
81.9752
86.3636
86.302
4.01754e-06
4.15908e-06
3.96903e-06
3.93837e-06
4.02871e-06
4.13436e-06
4.23814e-06
4.34901e-06
4.46144e-06
4.55822e-06
4.72302e-06
4.96936e-06
5.24958e-06
5.56167e-06
5.92783e-06
6.36853e-06
6.97068e-06
7.836e-06
8.87396e-06
9.91241e-06
1.29417e-05
2.04657e-05
2.87337e-05
1.83233e-05
2.56678e-07
2.00978e-09
0
0
0.00216846
0.0147946
0.0190609
0.115995
0.704699
2.77932
7.42427
14.9862
24.9785
36.4267
48.3755
59.8096
69.6852
2.70474e-06
2.82734e-06
2.72923e-06
2.74042e-06
2.8354e-06
2.94631e-06
3.06556e-06
3.19768e-06
3.34486e-06
3.48604e-06
3.67426e-06
3.94912e-06
4.27497e-06
4.63817e-06
5.05823e-06
5.54047e-06
6.11481e-06
6.83155e-06
7.75272e-06
8.70038e-06
9.90447e-06
1.26857e-05
1.89504e-05
2.45705e-05
2.31211e-05
1.778e-06
1.02691e-08
1.18695e-12
0
0
0.0015663
0.00951281
0.00614984
0.0403463
0.154057
0.591341
1.80667
4.26955
8.2233
13.6285
20.075
1.84906e-06
1.94856e-06
1.90102e-06
1.92947e-06
2.01613e-06
2.11796e-06
2.23077e-06
2.35855e-06
2.50383e-06
2.65506e-06
2.83263e-06
3.07872e-06
3.38006e-06
3.72374e-06
4.11482e-06
4.55995e-06
5.0704e-06
5.66012e-06
6.37831e-06
7.18943e-06
8.1396e-06
9.4253e-06
1.13682e-05
1.56568e-05
2.12273e-05
2.05514e-05
1.08188e-05
7.53635e-08
1.37009e-09
1.26423e-12
0
0
2.03553e-05
0.00354274
0.0127646
0.0105427
0.0387558
0.0847148
0.171904
0.384012
0.838768
1.27712e-06
1.35673e-06
1.33659e-06
1.36968e-06
1.44289e-06
1.53e-06
1.62716e-06
1.73927e-06
1.86634e-06
2.00478e-06
2.1579e-06
2.3622e-06
2.61829e-06
2.91324e-06
3.24432e-06
3.61834e-06
4.03895e-06
4.51461e-06
5.06204e-06
5.67113e-06
6.44113e-06
7.37036e-06
8.34175e-06
9.81603e-06
1.22169e-05
1.64948e-05
1.91135e-05
1.53236e-05
7.85533e-06
1.20659e-07
1.44155e-09
1.05625e-11
2.77443e-15
0
0
7.38661e-05
0.00236861
0.00732855
0.00277173
0.0151522
0.0359449
8.89719e-07
9.51141e-07
9.45645e-07
9.7754e-07
1.03723e-06
1.10828e-06
1.18839e-06
1.28134e-06
1.38661e-06
1.50386e-06
1.62983e-06
1.79207e-06
1.99859e-06
2.23591e-06
2.50124e-06
2.7998e-06
3.13158e-06
3.50214e-06
3.91834e-06
4.36509e-06
4.92263e-06
5.61529e-06
6.34574e-06
7.12915e-06
8.09665e-06
9.55789e-06
1.17716e-05
1.4619e-05
1.63526e-05
1.3411e-05
7.92663e-06
1.55334e-06
3.75181e-10
9.70469e-11
7.0863e-12
4.55873e-14
0
0
1.07851e-07
0.000166877
0.00136043
6.23133e-07
6.70152e-07
6.72351e-07
7.00057e-07
7.47774e-07
8.04166e-07
8.68695e-07
9.43251e-07
1.0284e-06
1.12429e-06
1.22673e-06
1.35123e-06
1.51132e-06
1.69493e-06
1.90185e-06
2.13236e-06
2.38878e-06
2.66982e-06
2.9831e-06
3.30988e-06
3.70546e-06
4.18563e-06
4.70725e-06
5.26917e-06
5.86942e-06
6.51265e-06
7.32242e-06
8.43712e-06
9.95363e-06
1.18384e-05
1.31662e-05
1.27175e-05
9.78043e-06
5.25624e-06
1.5906e-06
1.00871e-08
2.54288e-10
8.21752e-12
2.62338e-12
3.29783e-13
0
4.38516e-07
4.73658e-07
4.79334e-07
5.02521e-07
5.39976e-07
5.83879e-07
6.34902e-07
6.93597e-07
7.61088e-07
8.3696e-07
9.19329e-07
1.01456e-06
1.13512e-06
1.27451e-06
1.43268e-06
1.60819e-06
1.80272e-06
2.01328e-06
2.24582e-06
2.48523e-06
2.7672e-06
3.09805e-06
3.45175e-06
3.83947e-06
4.25597e-06
4.68421e-06
5.12648e-06
5.60043e-06
6.15589e-06
6.87751e-06
7.76635e-06
8.83629e-06
9.9063e-06
1.04489e-05
1.01979e-05
8.50127e-06
5.84749e-06
3.02603e-06
1.02912e-06
1.30746e-07
8.74654e-10
3.09302e-07
3.35773e-07
3.42389e-07
3.61144e-07
3.90141e-07
4.24121e-07
4.63738e-07
5.09322e-07
5.61687e-07
6.20633e-07
6.8541e-07
7.58114e-07
8.47731e-07
9.52887e-07
1.07177e-06
1.20318e-06
1.34796e-06
1.50416e-06
1.67446e-06
1.8494e-06
2.05085e-06
2.28199e-06
2.52211e-06
2.78278e-06
3.06121e-06
3.35132e-06
3.64742e-06
3.94694e-06
4.24711e-06
4.55771e-06
4.89142e-06
5.27524e-06
5.73133e-06
6.25963e-06
6.83095e-06
7.46521e-06
7.92254e-06
7.99781e-06
7.8221e-06
6.73948e-06
6.02523e-06
2.18626e-07
2.38145e-07
2.44592e-07
2.59752e-07
2.81852e-07
3.08051e-07
3.3835e-07
3.7354e-07
4.1361e-07
4.59028e-07
5.08937e-07
5.64346e-07
6.30573e-07
7.09241e-07
7.96759e-07
8.94029e-07
1.00009e-06
1.11465e-06
1.23792e-06
1.36473e-06
1.50699e-06
1.66756e-06
1.83033e-06
2.00518e-06
2.1894e-06
2.38109e-06
2.57547e-06
2.77272e-06
2.96904e-06
3.16379e-06
3.3544e-06
3.54307e-06
3.73079e-06
3.92451e-06
4.13091e-06
4.36166e-06
4.62292e-06
4.87428e-06
5.23464e-06
5.23232e-06
5.9413e-06
1.54537e-07
1.69015e-07
1.74727e-07
1.86683e-07
2.03499e-07
2.23541e-07
2.46578e-07
2.73508e-07
3.03988e-07
3.38655e-07
3.76879e-07
4.18829e-07
4.67584e-07
5.25818e-07
5.90117e-07
6.61549e-07
7.39091e-07
8.22605e-07
9.11645e-07
1.0025e-06
1.10318e-06
1.2147e-06
1.3261e-06
1.44417e-06
1.56718e-06
1.6931e-06
1.81989e-06
1.94742e-06
2.07427e-06
2.19969e-06
2.32169e-06
2.4398e-06
2.55216e-06
2.65878e-06
2.76173e-06
2.86044e-06
2.96037e-06
3.04015e-06
3.18884e-06
3.10127e-06
3.48439e-06
1.0928e-07
1.19744e-07
1.24718e-07
1.34053e-07
1.46779e-07
1.61989e-07
1.79479e-07
1.99869e-07
2.22982e-07
2.49161e-07
2.78265e-07
3.09854e-07
3.45841e-07
3.88486e-07
4.35621e-07
4.87686e-07
5.44262e-07
6.04649e-07
6.69058e-07
7.34322e-07
8.06144e-07
8.83791e-07
9.60675e-07
1.04061e-06
1.12347e-06
1.20746e-06
1.29138e-06
1.37411e-06
1.45565e-06
1.53517e-06
1.61245e-06
1.68699e-06
1.75827e-06
1.82549e-06
1.88976e-06
1.94957e-06
2.00818e-06
2.04806e-06
2.13222e-06
2.03828e-06
2.28246e-06
7.71544e-08
8.47753e-08
8.89138e-08
9.60407e-08
1.05737e-07
1.17164e-07
1.30441e-07
1.4572e-07
1.63226e-07
1.82839e-07
2.04856e-07
2.28596e-07
2.55324e-07
2.86139e-07
3.206e-07
3.58227e-07
3.99271e-07
4.42785e-07
4.89293e-07
5.35719e-07
5.86563e-07
6.40523e-07
6.93596e-07
7.48125e-07
8.0453e-07
8.60612e-07
9.15989e-07
9.69998e-07
1.02298e-06
1.0742e-06
1.12363e-06
1.17067e-06
1.21523e-06
1.25694e-06
1.2968e-06
1.33348e-06
1.36962e-06
1.39262e-06
1.44829e-06
1.37275e-06
1.54835e-06
5.43842e-08
5.98425e-08
6.32274e-08
6.86671e-08
7.59807e-08
8.4556e-08
9.45745e-08
1.06011e-07
1.19188e-07
1.33864e-07
1.50383e-07
1.68194e-07
1.87992e-07
2.10424e-07
2.35609e-07
2.62837e-07
2.9246e-07
3.23691e-07
3.56786e-07
3.89834e-07
4.25754e-07
4.63387e-07
4.99989e-07
5.37211e-07
5.7518e-07
6.12903e-07
6.49941e-07
6.85887e-07
7.20741e-07
7.54088e-07
7.8582e-07
8.15816e-07
8.44033e-07
8.70331e-07
8.95342e-07
9.18256e-07
9.41079e-07
9.54697e-07
9.92501e-07
9.33958e-07
1.06443e-06
3.82052e-08
4.21475e-08
4.48125e-08
4.89511e-08
5.44264e-08
6.08744e-08
6.83566e-08
7.69443e-08
8.67639e-08
9.77666e-08
1.10033e-07
1.23407e-07
1.38032e-07
1.54438e-07
1.72722e-07
1.92451e-07
2.13699e-07
2.36187e-07
2.59931e-07
2.83696e-07
3.0902e-07
3.35421e-07
3.60776e-07
3.86445e-07
4.12403e-07
4.38113e-07
4.62895e-07
4.86736e-07
5.09603e-07
5.31509e-07
5.52178e-07
5.71702e-07
5.89945e-07
6.06978e-07
6.231e-07
6.37907e-07
6.52762e-07
6.61056e-07
6.87167e-07
6.4255e-07
7.41163e-07
2.67405e-08
2.95477e-08
3.16423e-08
3.47854e-08
3.88471e-08
4.3685e-08
4.92588e-08
5.56917e-08
6.29787e-08
7.11935e-08
8.02757e-08
9.02688e-08
1.01005e-07
1.12973e-07
1.26261e-07
1.40514e-07
1.55753e-07
1.71929e-07
1.88804e-07
2.05638e-07
2.23531e-07
2.4211e-07
2.59771e-07
2.77531e-07
2.95253e-07
3.12663e-07
3.29482e-07
3.4571e-07
3.61129e-07
3.75761e-07
3.89489e-07
4.02437e-07
4.14482e-07
4.25711e-07
4.36366e-07
4.4619e-07
4.56201e-07
4.61569e-07
4.80244e-07
4.46534e-07
5.23037e-07
1.86129e-08
2.06193e-08
2.22483e-08
2.45976e-08
2.76328e-08
3.12313e-08
3.54007e-08
4.01647e-08
4.55889e-08
5.16697e-08
5.84086e-08
6.58107e-08
7.37501e-08
8.24725e-08
9.21204e-08
1.02378e-07
1.13319e-07
1.24848e-07
1.36916e-07
1.48961e-07
1.61663e-07
1.74674e-07
1.86998e-07
1.99237e-07
2.1147e-07
2.23464e-07
2.34949e-07
2.45865e-07
2.562e-07
2.6599e-07
2.75201e-07
2.83894e-07
2.92034e-07
2.99657e-07
3.06957e-07
3.13747e-07
3.20771e-07
3.24503e-07
3.38213e-07
3.13101e-07
3.73321e-07
1.28727e-08
1.42955e-08
1.55486e-08
1.73211e-08
1.95616e-08
2.22441e-08
2.5328e-08
2.88791e-08
3.28741e-08
3.73906e-08
4.23565e-08
4.78489e-08
5.36881e-08
6.00672e-08
6.70368e-08
7.44661e-08
8.23109e-08
9.05988e-08
9.92328e-08
1.07832e-07
1.1686e-07
1.26084e-07
1.34801e-07
1.43419e-07
1.51936e-07
1.60231e-07
1.6816e-07
1.75723e-07
1.82904e-07
1.89744e-07
1.96231e-07
2.02406e-07
2.08221e-07
2.13714e-07
2.19035e-07
2.24051e-07
2.29307e-07
2.32214e-07
2.42561e-07
2.24e-07
2.72006e-07
8.83063e-09
9.84078e-09
1.08079e-08
1.21224e-08
1.37811e-08
1.57701e-08
1.80599e-08
2.06736e-08
2.36302e-08
2.6954e-08
3.06264e-08
3.46548e-08
3.89754e-08
4.36434e-08
4.87061e-08
5.40673e-08
5.97219e-08
6.56532e-08
7.18459e-08
7.80082e-08
8.44757e-08
9.09907e-08
9.71333e-08
1.03154e-07
1.09111e-07
1.14892e-07
1.20437e-07
1.25716e-07
1.30758e-07
1.35561e-07
1.4015e-07
1.44534e-07
1.48714e-07
1.52697e-07
1.56612e-07
1.60335e-07
1.64303e-07
1.66594e-07
1.74471e-07
1.60722e-07
1.9926e-07
5.99765e-09
6.71871e-09
7.45861e-09
8.44332e-09
9.67609e-09
1.11356e-08
1.28286e-08
1.47501e-08
1.69319e-08
1.93665e-08
2.20693e-08
2.50159e-08
2.81941e-08
3.15801e-08
3.52376e-08
3.91071e-08
4.31691e-08
4.74037e-08
5.18367e-08
5.62249e-08
6.08027e-08
6.54173e-08
6.98048e-08
7.40775e-08
7.82861e-08
8.23707e-08
8.63088e-08
9.00757e-08
9.36997e-08
9.7188e-08
1.00568e-07
1.03845e-07
1.07026e-07
1.10118e-07
1.1321e-07
1.16209e-07
1.19436e-07
1.21473e-07
1.2773e-07
1.17739e-07
1.49226e-07
4.01302e-09
4.52878e-09
5.09954e-09
5.83995e-09
6.75253e-09
7.84141e-09
9.09188e-09
1.05086e-08
1.21022e-08
1.38866e-08
1.58586e-08
1.80145e-08
2.03401e-08
2.28238e-08
2.54839e-08
2.8297e-08
3.12257e-08
3.42761e-08
3.74492e-08
4.0621e-08
4.39339e-08
4.72657e-08
5.04264e-08
5.35043e-08
5.65338e-08
5.94884e-08
6.23427e-08
6.50908e-08
6.77487e-08
7.03263e-08
7.2841e-08
7.53141e-08
7.77493e-08
8.01525e-08
8.25834e-08
8.49867e-08
8.75804e-08
8.93463e-08
9.42507e-08
8.71245e-08
1.12809e-07
2.62896e-09
2.99614e-09
3.42715e-09
3.98277e-09
4.66896e-09
5.47669e-09
6.40967e-09
7.45805e-09
8.63618e-09
9.93924e-09
1.138e-08
1.29437e-08
1.46338e-08
1.64173e-08
1.83235e-08
2.03508e-08
2.24598e-08
2.46465e-08
2.69203e-08
2.91837e-08
3.15301e-08
3.38933e-08
3.61614e-08
3.83779e-08
4.05677e-08
4.27196e-08
4.4821e-08
4.68677e-08
4.88749e-08
5.08558e-08
5.28263e-08
5.48018e-08
5.67896e-08
5.8797e-08
6.08651e-08
6.29521e-08
6.52228e-08
6.69159e-08
7.09843e-08
6.5938e-08
8.72723e-08
1.69214e-09
1.95516e-09
2.2794e-09
2.6903e-09
3.19105e-09
3.78845e-09
4.47869e-09
5.25585e-09
6.12452e-09
7.0879e-09
8.14919e-09
9.30538e-09
1.05565e-08
1.18882e-08
1.33063e-08
1.48075e-08
1.63496e-08
1.79512e-08
1.96212e-08
2.13098e-08
2.3074e-08
2.48626e-08
2.65866e-08
2.82735e-08
2.99456e-08
3.16002e-08
3.322e-08
3.48034e-08
3.63576e-08
3.79001e-08
3.94429e-08
4.10071e-08
4.25969e-08
4.42301e-08
4.5939e-08
4.77101e-08
4.96371e-08
5.11966e-08
5.45192e-08
5.11962e-08
6.91018e-08
1.08545e-09
1.28943e-09
1.54346e-09
1.85605e-09
2.22826e-09
2.66365e-09
3.15903e-09
3.71947e-09
4.34462e-09
5.04232e-09
5.80723e-09
6.63729e-09
7.52289e-09
8.45215e-09
9.43583e-09
1.04909e-08
1.15803e-08
1.27009e-08
1.38518e-08
1.50059e-08
1.61982e-08
1.74136e-08
1.86148e-08
1.9815e-08
2.10192e-08
2.22317e-08
2.34479e-08
2.46704e-08
2.58996e-08
2.71457e-08
2.84171e-08
2.97271e-08
3.10782e-08
3.24807e-08
3.39605e-08
3.55039e-08
3.71925e-08
3.86191e-08
4.14024e-08
3.90623e-08
5.39278e-08
6.67281e-10
8.29546e-10
1.04072e-09
1.29877e-09
1.59985e-09
1.94166e-09
2.32013e-09
2.73383e-09
3.1864e-09
3.68699e-09
4.24214e-09
4.85752e-09
5.53515e-09
6.27212e-09
7.06381e-09
7.89859e-09
8.76681e-09
9.67887e-09
1.06398e-08
1.16267e-08
1.26576e-08
1.37062e-08
1.47432e-08
1.57735e-08
1.6807e-08
1.78488e-08
1.88954e-08
1.99492e-08
2.10175e-08
2.21098e-08
2.32324e-08
2.43988e-08
2.56188e-08
2.69072e-08
2.82857e-08
2.97585e-08
3.13773e-08
3.28813e-08
3.5436e-08
3.42424e-08
4.76638e-08
3.35457e-10
4.32157e-10
5.76019e-10
7.6589e-10
1.0011e-09
1.27965e-09
1.59674e-09
1.94479e-09
2.31945e-09
2.71635e-09
3.13315e-09
3.56511e-09
4.01009e-09
4.45993e-09
4.91951e-09
5.40023e-09
5.89358e-09
6.39543e-09
6.91884e-09
7.46198e-09
8.04385e-09
8.66003e-09
9.29683e-09
9.95425e-09
1.06369e-08
1.13505e-08
1.20961e-08
1.2875e-08
1.36879e-08
1.45394e-08
1.54334e-08
1.63744e-08
1.73636e-08
1.84062e-08
1.95153e-08
2.06844e-08
2.19629e-08
2.31329e-08
2.50945e-08
2.4145e-08
3.45087e-08
1.4118e-10
1.96826e-10
2.91353e-10
4.1759e-10
5.7158e-10
7.5203e-10
9.58457e-10
1.19118e-09
1.45395e-09
1.75207e-09
2.09137e-09
2.47807e-09
2.91982e-09
3.42318e-09
4.00289e-09
4.6483e-09
5.33166e-09
6.03956e-09
6.76603e-09
7.50202e-09
8.25494e-09
9.01844e-09
9.7828e-09
1.05474e-08
1.13204e-08
1.21088e-08
1.29178e-08
1.3755e-08
1.46307e-08
1.55563e-08
1.65428e-08
1.76044e-08
1.87531e-08
2.00033e-08
2.1375e-08
2.28848e-08
2.4561e-08
2.62802e-08
2.87453e-08
2.89104e-08
4.05293e-08
1.41312e-10
2.27809e-10
3.29729e-10
4.42121e-10
5.69498e-10
7.2357e-10
9.11004e-10
1.13226e-09
1.37794e-09
1.63229e-09
1.87448e-09
2.08299e-09
2.24352e-09
2.35272e-09
2.40382e-09
2.40677e-09
2.41118e-09
2.45703e-09
2.55847e-09
2.71088e-09
2.91022e-09
3.14639e-09
3.41699e-09
3.717e-09
4.04534e-09
4.40201e-09
4.78739e-09
5.20146e-09
5.64624e-09
6.12364e-09
6.63627e-09
7.18661e-09
7.77936e-09
8.41741e-09
9.10582e-09
9.84245e-09
1.06566e-08
1.14529e-08
1.26603e-08
1.24332e-08
1.8607e-08
6.30167e-10
1.40559e-09
2.40744e-09
3.46896e-09
4.43633e-09
5.1976e-09
5.70539e-09
5.96748e-09
6.03559e-09
5.98231e-09
5.88343e-09
5.80355e-09
5.78736e-09
5.85312e-09
6.01081e-09
6.3013e-09
6.71418e-09
7.18386e-09
7.67623e-09
8.17533e-09
8.66956e-09
9.17318e-09
9.66151e-09
1.01387e-08
1.06117e-08
1.10876e-08
1.15758e-08
1.20876e-08
1.26371e-08
1.32389e-08
1.39094e-08
1.46655e-08
1.5525e-08
1.65078e-08
1.76386e-08
1.89406e-08
2.04461e-08
2.20908e-08
2.44095e-08
2.4968e-08
3.6244e-08
9.87814
7.77834
10.4204
7.59691
0.508647
0.166844
0.0173591
0.00469067
0.00425252
0.00404107
0.00358738
0.00327098
0.00283216
0.00237768
0.00197613
0.0016027
0.00129145
0.00103301
0.000822878
0.000655181
0.000518233
0.000409864
0.000323217
0.000254834
0.000200222
0.000157588
0.000124454
9.79049e-05
7.68485e-05
6.00209e-05
4.65548e-05
3.58608e-05
2.73959e-05
2.07367e-05
1.5327e-05
1.11146e-05
7.80274e-06
5.35179e-06
3.68639e-06
2.43072e-06
1.6039e-06
1.06115e-06
6.52873e-07
4.8412e-07
3.91187e-07
3.75098e-07
4.28257e-07
5.17347e-07
5.83835e-07
5.78187e-07
6.19895e-07
6.01318e-07
5.87587e-07
5.67742e-07
5.32576e-07
4.92623e-07
4.49487e-07
4.09443e-07
3.62391e-07
3.23383e-07
2.77106e-07
2.43599e-07
2.04741e-07
1.70961e-07
1.43634e-07
1.1589e-07
9.67309e-08
7.75039e-08
6.27405e-08
4.98498e-08
4.07218e-08
3.13703e-08
2.76961e-08
1.9976e-08
18.5098
13.9727
10.1166
9.8304
2.23531
0.28432
0.0832591
0.00547798
0.00447714
0.00408192
0.00340469
0.00294844
0.00250889
0.00207856
0.00171981
0.00139454
0.00112487
0.000902627
0.000720751
0.000576633
0.000457665
0.00036228
0.000286109
0.000225673
0.000177155
0.000139239
0.000110095
8.67439e-05
6.82393e-05
5.3517e-05
4.16868e-05
3.23882e-05
2.49664e-05
1.90635e-05
1.42157e-05
1.04044e-05
7.29037e-06
5.01058e-06
3.46674e-06
2.30684e-06
1.52817e-06
1.0319e-06
6.51176e-07
4.97685e-07
4.02266e-07
3.77454e-07
4.16856e-07
4.79368e-07
5.3993e-07
5.11245e-07
5.45366e-07
5.22535e-07
5.0811e-07
4.92202e-07
4.62621e-07
4.28211e-07
3.90853e-07
3.56138e-07
3.15023e-07
2.81796e-07
2.40898e-07
2.11914e-07
1.78806e-07
1.48589e-07
1.25513e-07
1.01117e-07
8.46228e-08
6.81185e-08
5.52329e-08
4.3945e-08
3.62356e-08
2.79044e-08
2.50257e-08
1.81499e-08
19.3963
15.4941
13.0051
9.00345
5.51072
0.401116
0.29639
0.0176031
0.00441069
0.00438206
0.00347879
0.00276295
0.00226426
0.00183619
0.00149328
0.00120391
0.000967466
0.000775931
0.000620528
0.000497355
0.000396574
0.000314413
0.000248978
0.000196663
0.000154486
0.000121333
9.59703e-05
7.57458e-05
5.9711e-05
4.70618e-05
3.69163e-05
2.89931e-05
2.26089e-05
1.75131e-05
1.32985e-05
9.90853e-06
7.05283e-06
4.93443e-06
3.4666e-06
2.35624e-06
1.60455e-06
1.13183e-06
7.50164e-07
5.9763e-07
4.81091e-07
4.41196e-07
4.62542e-07
4.77191e-07
5.17913e-07
4.77403e-07
4.83423e-07
4.56306e-07
4.3604e-07
4.20359e-07
3.97517e-07
3.63829e-07
3.33778e-07
3.03063e-07
2.69514e-07
2.40084e-07
2.06662e-07
1.79389e-07
1.52805e-07
1.26957e-07
1.07049e-07
8.69137e-08
7.2133e-08
5.86877e-08
4.77106e-08
3.81145e-08
3.16185e-08
2.44174e-08
2.23008e-08
1.62599e-08
18.0294
15.9564
12.815
11.5763
7.99551
1.14623
0.686494
0.147433
0.00369446
0.00440657
0.00372997
0.00273722
0.00212903
0.00167704
0.00133261
0.00106268
0.000848014
0.000678078
0.000541654
0.000434036
0.000346952
0.0002755
0.000218782
0.000173167
0.000136342
0.000107076
8.46466e-05
6.69561e-05
5.28649e-05
4.18602e-05
3.30657e-05
2.62275e-05
2.0669e-05
1.61575e-05
1.24737e-05
9.45606e-06
6.88436e-06
4.93026e-06
3.51562e-06
2.44626e-06
1.71784e-06
1.24873e-06
8.74697e-07
7.06444e-07
5.78682e-07
5.13405e-07
5.04914e-07
4.85629e-07
5.00145e-07
4.50972e-07
4.3177e-07
4.00078e-07
3.74328e-07
3.56913e-07
3.38536e-07
3.07277e-07
2.82482e-07
2.55984e-07
2.28606e-07
2.03184e-07
1.75844e-07
1.51368e-07
1.29849e-07
1.08091e-07
9.10347e-08
7.44591e-08
6.14906e-08
5.04788e-08
4.12059e-08
3.30676e-08
2.76254e-08
2.13722e-08
1.99186e-08
1.45722e-08
20.2352
20.6241
14.1678
13.4648
10.1714
3.34924
0.973776
0.580126
0.0211492
0.00270245
0.00393855
0.00285616
0.00208249
0.00158358
0.00122596
0.000963443
0.000761338
0.00060581
0.000482248
0.000385694
0.000308413
0.000245061
0.000195022
0.000154708
0.000122212
9.60666e-05
7.58921e-05
6.02009e-05
4.76373e-05
3.78813e-05
3.01189e-05
2.40853e-05
1.91525e-05
1.50141e-05
1.17207e-05
9.02818e-06
6.72363e-06
4.93701e-06
3.57343e-06
2.55905e-06
1.84627e-06
1.36671e-06
1.00869e-06
8.12027e-07
6.77328e-07
5.83401e-07
5.36766e-07
4.90006e-07
4.77309e-07
4.21974e-07
3.859e-07
3.50672e-07
3.22062e-07
3.02538e-07
2.85684e-07
2.59529e-07
2.37744e-07
2.15237e-07
1.9237e-07
1.7098e-07
1.48305e-07
1.27437e-07
1.09924e-07
9.17643e-08
7.74079e-08
6.36929e-08
5.25985e-08
4.34974e-08
3.57042e-08
2.87823e-08
2.4268e-08
1.87831e-08
1.78884e-08
1.31066e-08
24.2765
26.3263
18.1095
13.973
12.6955
6.40657
1.21224
1.44678
0.244575
0.00100818
0.00289071
0.00306424
0.00212707
0.00154388
0.00116123
0.000896616
0.000700047
0.00055312
0.000438188
0.000349192
0.000278918
0.00022156
0.000176487
0.000140278
0.000111231
8.76583e-05
6.92575e-05
5.51275e-05
4.38086e-05
3.50181e-05
2.80251e-05
2.25731e-05
1.80928e-05
1.41952e-05
1.11608e-05
8.71097e-06
6.62808e-06
4.98931e-06
3.68582e-06
2.7182e-06
2.01578e-06
1.51745e-06
1.16762e-06
9.39802e-07
7.90199e-07
6.66756e-07
5.81822e-07
5.03717e-07
4.62131e-07
4.00503e-07
3.5156e-07
3.12496e-07
2.8176e-07
2.59666e-07
2.42471e-07
2.20605e-07
2.00572e-07
1.81011e-07
1.61388e-07
1.43337e-07
1.2451e-07
1.07006e-07
9.2793e-08
7.77171e-08
6.57527e-08
5.44527e-08
4.50811e-08
3.75429e-08
3.10134e-08
2.51144e-08
2.14098e-08
1.657e-08
1.61421e-08
1.18301e-08
29.9474
32.1734
23.5509
15.628
14.3432
9.64607
2.40697
2.21719
0.972846
0.0448656
0.000785322
0.00282623
0.00227978
0.00156803
0.001135
0.000857685
0.000660177
0.000516655
0.000406854
0.000322588
0.000257033
0.000203944
0.000162405
0.000129223
0.000102809
8.13268e-05
6.43694e-05
5.14381e-05
4.1136e-05
3.31026e-05
2.6673e-05
2.16285e-05
1.74527e-05
1.37227e-05
1.08439e-05
8.5497e-06
6.6301e-06
5.10969e-06
3.86798e-06
2.93516e-06
2.23892e-06
1.71715e-06
1.36128e-06
1.10189e-06
9.24537e-07
7.71557e-07
6.50532e-07
5.37239e-07
4.64126e-07
3.93759e-07
3.32904e-07
2.88399e-07
2.54701e-07
2.29433e-07
2.10488e-07
1.90655e-07
1.71489e-07
1.53534e-07
1.36091e-07
1.20343e-07
1.04665e-07
8.9828e-08
7.8277e-08
6.58186e-08
5.58406e-08
4.65969e-08
3.87072e-08
3.24637e-08
2.70056e-08
2.19695e-08
1.89558e-08
1.4671e-08
1.46296e-08
1.07111e-08
37.509
38.1505
29.1266
19.0442
14.8036
12.4496
5.04386
2.25517
2.36603
0.398558
0.000861274
0.00118307
0.00236124
0.0016873
0.00115453
0.00084583
0.000640076
0.000494924
0.000386796
0.000304795
0.000241898
0.00019156
0.000152306
0.000121166
9.66077e-05
7.6736e-05
6.093e-05
4.88881e-05
3.9385e-05
3.19345e-05
2.59174e-05
2.11431e-05
1.71574e-05
1.35542e-05
1.07572e-05
8.55034e-06
6.73519e-06
5.30156e-06
4.11098e-06
3.20379e-06
2.50893e-06
1.96312e-06
1.58742e-06
1.29406e-06
1.07804e-06
8.94583e-07
7.3902e-07
5.92722e-07
4.86498e-07
4.03807e-07
3.30876e-07
2.78892e-07
2.40436e-07
2.11102e-07
1.8893e-07
1.69141e-07
1.49991e-07
1.32449e-07
1.16265e-07
1.01869e-07
8.85506e-08
7.5718e-08
6.61897e-08
5.59182e-08
4.7532e-08
3.99733e-08
3.33292e-08
2.8148e-08
2.35959e-08
1.92879e-08
1.68527e-08
1.3046e-08
1.33228e-08
9.73018e-09
46.1858
43.8575
33.8886
22.8681
15.1564
13.3402
8.07448
2.19403
3.5087
1.44821
0.113456
7.53827e-05
0.00143372
0.00182018
0.00123668
0.000863429
0.000638205
0.000486634
0.000376754
0.000294754
0.000232702
0.000183784
0.000145764
0.000115812
9.24123e-05
7.36866e-05
5.87468e-05
4.73169e-05
3.83863e-05
3.13499e-05
2.56309e-05
2.10249e-05
1.71538e-05
1.36484e-05
1.08884e-05
8.71787e-06
6.9576e-06
5.57555e-06
4.41717e-06
3.52247e-06
2.82199e-06
2.25129e-06
1.84456e-06
1.51272e-06
1.25074e-06
1.03339e-06
8.44087e-07
6.68516e-07
5.302e-07
4.30956e-07
3.45186e-07
2.83685e-07
2.38481e-07
2.03727e-07
1.76856e-07
1.55285e-07
1.35311e-07
1.17226e-07
1.01432e-07
8.75927e-08
7.58284e-08
6.44412e-08
5.63305e-08
4.77992e-08
4.06658e-08
3.44364e-08
2.88238e-08
2.45031e-08
2.07092e-08
1.70138e-08
1.50582e-08
1.16624e-08
1.21991e-08
8.874e-09
51.6846
46.4596
36.2568
25.5326
16.2713
12.1797
9.62302
2.90305
3.10145
3.21975
0.635251
0.0121551
0.000241731
0.00151091
0.00135842
0.000922181
0.000655935
0.00049101
0.000376005
0.000291749
0.000228867
0.000180132
0.000142455
0.000112982
9.01356e-05
7.2093e-05
5.77274e-05
4.6653e-05
3.80548e-05
3.12602e-05
2.57254e-05
2.12135e-05
1.74061e-05
1.39749e-05
1.12284e-05
9.05657e-06
7.31529e-06
5.94839e-06
4.79916e-06
3.89563e-06
3.1784e-06
2.57953e-06
2.13305e-06
1.75821e-06
1.44694e-06
1.19093e-06
9.67106e-07
7.64448e-07