/*--------------------------------*- C++ -*----------------------------------*\
| =========                 |                                                 |
| \\      /  F ield         | OpenFOAM: The Open Source CFD Toolbox           |
|  \\    /   O peration     | Version:  2312                                  |
|   \\  /    A nd           | Website:  www.openfoam.com                      |
|    \\/     M anipulation  |                                                 |
\*---------------------------------------------------------------------------*/
FoamFile
{
    version     2.0;
    format      ascii;
    arch        "LSB;label=32;scalar=64";
    class       volVectorField;
    location    "100";
    object      U;
}
// * * * * * * * * * * * * * * * * * * * * * * * * * * * * * * * * * * * * * //

dimensions      [0 1 -1 0 0 0 0];

internalField   nonuniform List<vector> 
11040
(
(0.520352 6.30768 1.11974e-19)
(1.8558 6.86822 -9.28952e-19)
(2.2142 4.68461 -6.45502e-18)
(1.22219 1.52813 -3.24874e-18)
(-0.510842 -0.570918 -3.47741e-18)
(-0.860032 -0.455654 -1.60569e-17)
(-0.962089 -0.447627 2.2615e-17)
(-0.972576 -0.399826 1.40427e-17)
(-0.995476 -0.358983 2.45637e-18)
(-0.982929 -0.308888 6.62129e-19)
(-1.00095 -0.26454 -1.06085e-17)
(-1.02914 -0.209428 1.50654e-18)
(-1.04547 -0.164338 4.12816e-18)
(-1.02492 -0.145083 3.46626e-18)
(-0.993162 -0.14314 -3.03048e-18)
(-1.01353 -0.137368 4.78026e-18)
(-1.07753 -0.124267 2.00799e-18)
(-1.08573 -0.119159 -4.57118e-18)
(-0.904136 -0.13708 -9.16843e-20)
(-0.421326 -0.176915 5.56789e-19)
(0.366831 -0.21731 -3.88778e-19)
(1.30007 -0.229853 -7.21572e-19)
(2.09798 -0.220692 6.09722e-19)
(2.65761 -0.207109 -7.06884e-19)
(2.90801 -0.205507 8.94764e-19)
(2.8566 -0.217281 1.84831e-18)
(2.72069 -0.242772 8.70421e-19)
(2.5427 -0.257079 8.78128e-19)
(2.24443 -0.24215 1.04119e-18)
(1.76396 -0.187437 1.7362e-18)
(1.18967 -0.101604 -3.74392e-18)
(0.880421 -0.0855964 -3.15659e-18)
(1.01191 -0.174826 -7.77768e-18)
(1.48148 -0.297793 -3.57079e-18)
(2.15653 -0.435616 3.18221e-19)
(2.95703 -0.586157 -4.07817e-18)
(3.82003 -0.75754 1.06984e-19)
(4.69554 -0.936186 -2.95204e-18)
(5.49213 -1.11342 4.87435e-18)
(6.1892 -1.24943 4.61099e-18)
(6.14801 -1.37779 -1.95608e-18)
(1.8745 5.51589 -8.6551e-20)
(3.99771 6.11699 2.71141e-19)
(5.03828 5.98232 3.6828e-18)
(4.54736 4.68267 1.55591e-19)
(2.95875 2.64416 -1.14115e-19)
(1.18984 0.849843 2.45469e-18)
(-0.124128 -0.0606773 -7.9098e-19)
(-0.419971 -0.128313 -1.08662e-17)
(-0.638442 -0.168433 3.89465e-19)
(-0.689455 -0.181071 -2.3327e-18)
(-0.725008 -0.195451 3.29079e-18)
(-0.785996 -0.167213 -1.08744e-17)
(-0.856457 -0.104903 -8.06366e-19)
(-0.866533 -0.0522205 -7.50297e-18)
(-0.809214 -0.0444484 3.19136e-18)
(-0.768951 -0.0514105 -1.14931e-18)
(-0.801008 -0.0371768 -1.65119e-18)
(-0.80689 -0.0168039 -1.35234e-18)
(-0.633847 -0.0250712 -1.045e-19)
(-0.125159 -0.0942735 6.92583e-20)
(0.689135 -0.192683 1.28867e-19)
(1.58239 -0.268674 2.32883e-19)
(2.32452 -0.29228 -3.39665e-19)
(2.82949 -0.280069 -9.59777e-20)
(3.08873 -0.261155 -1.56071e-19)
(3.13609 -0.254728 3.5468e-19)
(2.99667 -0.264645 2.28372e-19)
(2.73209 -0.255016 -1.32022e-18)
(2.31904 -0.199723 -1.16374e-19)
(1.69986 -0.106572 9.73789e-19)
(1.04366 -0.0345964 1.37545e-18)
(0.840578 -0.0830244 2.9049e-18)
(1.11386 -0.226576 1.98854e-18)
(1.666 -0.389161 8.50976e-19)
(2.3908 -0.569954 -3.74047e-19)
(3.22947 -0.758156 1.50672e-18)
(4.13073 -0.96445 -1.31858e-18)
(5.04909 -1.16763 1.171e-18)
(5.89972 -1.35687 -5.85677e-19)
(6.6496 -1.4784 -9.94893e-19)
(6.87313 -1.42228 2.69404e-18)
(2.47383 5.04706 -1.71499e-20)
(3.71557 5.59514 -1.40481e-21)
(4.93551 5.75774 -9.89577e-19)
(5.62706 5.66611 -1.41755e-18)
(5.40101 4.85522 7.38368e-20)
(4.25087 3.37073 -8.12873e-19)
(2.57823 1.75005 -2.23141e-18)
(1.04064 0.567653 -3.78592e-18)
(0.112531 0.101018 4.19336e-18)
(-0.209391 0.0010305 2.01331e-19)
(-0.341847 -0.0881993 2.08195e-18)
(-0.441127 -0.13193 5.98415e-18)
(-0.566826 -0.105653 -4.21508e-18)
(-0.632868 -0.0456459 4.49107e-18)
(-0.595425 -0.0190944 -2.62784e-18)
(-0.52937 -0.0269434 -1.0566e-18)
(-0.534936 -0.0281197 4.25726e-19)
(-0.549077 -0.0271846 4.62976e-19)
(-0.412057 -0.050056 5.79085e-21)
(0.0447458 -0.143629 -3.03709e-20)
(0.799459 -0.266097 -2.47289e-19)
(1.64056 -0.35587 -1.48751e-19)
(2.33825 -0.370476 2.67097e-20)
(2.80161 -0.332112 -2.53406e-20)
(3.02383 -0.27865 2.89541e-19)
(3.04417 -0.235594 -7.32819e-19)
(2.86423 -0.212449 -5.51574e-19)
(2.48951 -0.161363 8.0991e-19)
(1.95175 -0.0605938 2.08681e-19)
(1.30106 0.0476836 -1.49299e-19)
(0.819459 0.0470997 -1.05292e-18)
(0.807956 -0.0931426 4.4796e-19)
(1.16437 -0.294088 -8.74362e-19)
(1.74999 -0.492186 -1.05475e-18)
(2.49099 -0.700608 2.16106e-19)
(3.34064 -0.90926 6.55986e-19)
(4.25117 -1.12988 1.13512e-18)
(5.18115 -1.33683 -1.44717e-18)
(6.05114 -1.5216 -3.65978e-19)
(6.83075 -1.60929 -6.25399e-19)
(7.20036 -1.56271 -1.72293e-18)
(2.92291 4.56735 -9.75911e-20)
(3.74079 5.19071 -3.90321e-20)
(4.53243 5.42086 1.46236e-19)
(5.31314 5.50448 1.01921e-18)
(5.9068 5.4189 -1.0828e-19)
(5.91457 4.86694 -8.2746e-19)
(5.13042 3.76371 3.59929e-19)
(3.70804 2.38151 8.08866e-19)
(2.09639 1.16889 -1.01645e-18)
(0.870126 0.446234 1.74959e-18)
(0.29944 0.147915 -5.20709e-18)
(0.0614623 -0.000242297 7.44311e-19)
(-0.151082 -0.0544995 7.08188e-19)
(-0.319864 -0.027426 -4.02309e-18)
(-0.360608 0.000112144 -1.75753e-18)
(-0.308294 -0.00481119 9.97145e-19)
(-0.289465 -0.0150089 1.55085e-18)
(-0.306543 -0.0367815 5.69341e-19)
(-0.217604 -0.0901624 -1.88725e-20)
(0.150309 -0.219127 9.78038e-21)
(0.80547 -0.369413 6.59487e-20)
(1.577 -0.466701 1.37353e-19)
(2.23321 -0.462207 4.39984e-20)
(2.66716 -0.386312 9.80658e-20)
(2.86079 -0.287855 1.99763e-19)
(2.84631 -0.197114 1.03118e-18)
(2.61286 -0.127289 -7.45442e-20)
(2.15311 -0.0288897 -1.43335e-19)
(1.54515 0.104593 -5.18979e-19)
(0.951494 0.193671 -4.99027e-19)
(0.673317 0.0978342 7.60585e-19)
(0.79282 -0.131145 -6.19737e-19)
(1.19152 -0.388437 1.49779e-18)
(1.78509 -0.625717 3.56885e-19)
(2.52224 -0.86358 2.96006e-19)
(3.36407 -1.09406 1.02407e-19)
(4.26631 -1.32806 -8.36884e-21)
(5.19098 -1.53802 -1.41572e-19)
(6.0661 -1.7141 4.35571e-19)
(6.86174 -1.77432 -8.1978e-19)
(7.34691 -1.70344 3.40147e-19)
(3.3664 4.18429 3.39903e-19)
(3.90398 4.71146 -5.1354e-19)
(4.50661 5.01451 2.46847e-19)
(5.07421 5.10524 -5.62882e-19)
(5.63816 5.13734 6.86244e-19)
(6.12163 5.09725 -4.08015e-20)
(6.2466 4.76437 1.83085e-19)
(5.7418 3.98103 6.27897e-19)
(4.57833 2.85505 -1.89954e-19)
(3.08229 1.71136 -4.62124e-19)
(1.78122 0.845044 -9.80711e-19)
(0.984667 0.341484 -1.35636e-20)
(0.525995 0.112634 -4.78641e-20)
(0.182257 0.0478667 2.87771e-18)
(-0.013206 0.0418181 1.60509e-18)
(-0.0457233 0.0261518 5.99104e-20)
(-0.0366525 0.00794013 -7.3264e-19)
(-0.0569972 -0.0307553 6.0985e-19)
(-0.0179451 -0.117225 -7.73118e-20)
(0.241167 -0.289026 9.49461e-20)
(0.766753 -0.479971 -1.49263e-19)
(1.44498 -0.59394 -1.21392e-20)
(2.05393 -0.571296 1.21533e-19)
(2.4646 -0.451773 -1.52297e-19)
(2.63929 -0.297597 -4.48173e-19)
(2.59461 -0.145086 -2.53015e-19)
(2.31192 -0.0140536 5.55604e-20)
(1.79677 0.133026 -4.19039e-19)
(1.17347 0.281224 1.57433e-20)
(0.702475 0.310018 4.6961e-19)
(0.59417 0.115354 -3.98586e-19)
(0.792363 -0.192698 8.22e-20)
(1.20782 -0.504297 -1.04998e-18)
(1.7928 -0.784145 -5.09832e-19)
(2.51175 -1.05356 -2.94364e-19)
(3.33177 -1.30815 -2.77543e-19)
(4.21332 -1.55546 2.20187e-19)
(5.12172 -1.76864 -3.45698e-20)
(5.99554 -1.93396 2.58908e-19)
(6.80357 -1.96808 1.11696e-18)
(7.39328 -1.86217 -9.66068e-19)
(3.73953 3.87866 -2.94882e-19)
(4.09342 4.31013 1.15044e-18)
(4.50949 4.63335 -3.7257e-19)
(4.96067 4.80116 2.27448e-19)
(5.39785 4.82961 -2.15152e-19)
(5.82883 4.81785 9.62252e-20)
(6.23374 4.79691 2.75293e-19)
(6.4306 4.61515 -1.33351e-20)
(6.14499 4.08622 -3.14192e-20)
(5.26993 3.20945 7.21747e-19)
(4.02686 2.18876 8.07878e-19)
(2.79558 1.27057 -5.56831e-19)
(1.79865 0.621237 -4.99898e-19)
(1.06401 0.286754 2.94072e-18)
(0.588847 0.157243 -2.68769e-18)
(0.363532 0.0917115 1.09899e-18)
(0.28511 0.0497755 8.56157e-20)
(0.234665 -0.00572636 1.80547e-19)
(0.222055 -0.120964 1.19004e-19)
(0.366577 -0.336897 -1.02672e-19)
(0.740644 -0.582048 -1.08016e-19)
(1.29364 -0.730964 3.24368e-20)
(1.83684 -0.699132 -5.60739e-20)
(2.22112 -0.532661 -4.54346e-20)
(2.38185 -0.311034 4.31636e-19)
(2.31127 -0.080421 -3.08317e-19)
(1.98755 0.126573 -7.05141e-20)
(1.44741 0.320801 5.20895e-19)
(0.868881 0.456284 4.54769e-19)
(0.550264 0.391507 -2.39144e-19)
(0.56362 0.103899 -2.24744e-19)
(0.804687 -0.275151 -6.54946e-20)
(1.22013 -0.640788 5.11402e-19)
(1.78454 -0.967033 5.14274e-19)
(2.47397 -1.27164 1.49981e-19)
(3.26085 -1.5538 -2.25631e-19)
(4.11148 -1.81659 -1.55302e-20)
(4.99486 -2.03497 -2.78576e-19)
(5.86245 -2.19054 -7.57521e-19)
(6.6799 -2.20471 -5.32182e-20)
(7.36149 -2.06701 1.00099e-18)
(4.06651 3.63469 -5.95258e-20)
(4.30974 3.9854 1.88916e-19)
(4.58931 4.28006 -3.95122e-19)
(4.91862 4.49243 -7.36557e-20)
(5.27298 4.59374 7.85214e-20)
(5.61371 4.58564 -3.11612e-19)
(5.94402 4.54188 1.0265e-19)
(6.27996 4.52302 -8.99438e-20)
(6.50997 4.43792 -6.51017e-19)
(6.39805 4.10498 -2.2592e-20)
(5.81297 3.45157 -1.25069e-18)
(4.85213 2.57537 1.26425e-18)
(3.71674 1.67536 -1.18087e-18)
(2.59492 0.955511 -1.76232e-19)
(1.67864 0.507837 1.07817e-18)
(1.09162 0.2681 -4.45298e-19)
(0.788731 0.143649 1.61006e-18)
(0.634321 0.0520868 -5.45035e-19)
(0.54819 -0.0905312 9.99586e-20)
(0.576357 -0.346574 -4.71503e-20)
(0.786246 -0.655709 3.17377e-20)
(1.17859 -0.86391 -3.66651e-20)
(1.62216 -0.843314 1.52521e-19)
(1.96326 -0.631958 -5.16013e-20)
(2.10542 -0.331781 -1.65627e-19)
(2.0086 -0.00371846 8.29826e-20)
(1.65629 0.292725 2.73196e-19)
(1.12913 0.525277 -1.45412e-19)
(0.65265 0.611297 7.56115e-21)
(0.477721 0.439104 -1.39701e-19)
(0.56857 0.0677259 2.53218e-21)
(0.829054 -0.376249 -2.63487e-19)
(1.23253 -0.797568 6.26504e-21)
(1.76708 -1.17459 1.23554e-19)
(2.41745 -1.52029 4.33695e-19)
(3.16148 -1.83515 -3.70953e-19)
(3.97196 -2.11854 -4.98006e-19)
(4.82258 -2.34638 4.92143e-19)
(5.67841 -2.49672 -2.61474e-19)
(6.50136 -2.49992 1.25418e-21)
(7.26028 -2.33801 7.92779e-20)
(4.35502 3.44014 -1.12682e-20)
(4.52548 3.72572 -2.31542e-19)
(4.71748 3.97935 2.07381e-19)
(4.9485 4.18497 5.1922e-19)
(5.21631 4.32869 -4.81057e-20)
(5.4993 4.38954 -1.96089e-19)
(5.76567 4.36256 3.17657e-19)
(6.01938 4.30148 1.48295e-19)
(6.29142 4.27423 2.75285e-19)
(6.52014 4.24057 -4.96466e-19)
(6.531 4.05161 4.33535e-19)
(6.18357 3.58795 4.6254e-19)
(5.45583 2.86384 -8.33667e-19)
(4.43403 2.0326 1.11828e-18)
(3.31575 1.28902 1.24254e-20)
(2.34637 0.739048 -4.09069e-19)
(1.66505 0.391461 -1.6859e-18)
(1.26393 0.184953 -1.35011e-19)
(1.03428 -0.00625567 -3.67823e-19)
(0.929462 -0.297989 1.09248e-18)
(0.966553 -0.671066 -4.95727e-19)
(1.16536 -0.96363 8.75065e-20)
(1.46167 -0.989579 9.92681e-20)
(1.72419 -0.748748 1.51346e-20)
(1.83038 -0.363169 4.1679e-20)
(1.70429 0.082389 1.43864e-20)
(1.34213 0.475177 1.0796e-19)
(0.870364 0.728749 -6.7428e-20)
(0.529661 0.73248 -3.08371e-19)
(0.467315 0.456557 -1.14029e-19)
(0.601864 0.0100787 3.44448e-19)
(0.865505 -0.494532 1.57525e-19)
(1.24761 -0.973791 2.78882e-20)
(1.74457 -1.4065 -3.00524e-19)
(2.34771 -1.80014 -1.55532e-19)
(3.04033 -2.15468 1.11483e-19)
(3.8021 -2.46626 3.7468e-19)
(4.61224 -2.71181 -2.78625e-19)
(5.44873 -2.86665 1.98102e-19)
(6.27074 -2.87046 -6.17602e-19)
(7.08886 -2.69324 -7.86066e-20)
(4.61147 3.28335 -3.48283e-20)
(4.73442 3.5176 -2.68155e-19)
(4.86807 3.73111 7.83879e-19)
(5.02784 3.91606 -6.81332e-20)
(5.22022 4.06412 1.14491e-19)
(5.43793 4.16322 -1.35485e-19)
(5.66358 4.19907 -7.54794e-20)
(5.87308 4.1651 -8.63646e-20)
(6.07043 4.09492 2.4484e-20)
(6.28234 4.05025 -4.03762e-19)
(6.48414 4.03688 -1.55175e-19)
(6.56807 3.95139 3.03212e-19)
(6.39295 3.64832 1.79577e-19)
(5.85931 3.0774 -5.20813e-19)
(4.9969 2.33942 1.38545e-18)
(3.987 1.59703 -6.54601e-19)
(3.03812 0.971049 7.00292e-19)
(2.29612 0.517613 -1.35877e-18)
(1.80102 0.189119 -2.0964e-20)
(1.49882 -0.160036 3.4208e-19)
(1.34661 -0.591095 -3.65164e-19)
(1.33023 -0.981119 -2.14407e-20)
(1.42517 -1.10142 5.03402e-20)
(1.55405 -0.87 -1.6179e-19)
(1.59281 -0.403479 -5.1825e-20)
(1.431 0.172657 -1.30136e-19)
(1.08089 0.658881 -2.48342e-19)
(0.701684 0.90685 1.08789e-19)
(0.495055 0.815643 8.92583e-20)
(0.508666 0.449544 3.26902e-19)
(0.662397 -0.0640112 -1.37694e-19)
(0.916163 -0.626955 1.04042e-19)
(1.26826 -1.16615 -1.2303e-19)
(1.72023 -1.65946 3.50093e-19)
(2.26832 -2.10812 -2.05518e-20)
(2.90109 -2.51062 1.01528e-19)
(3.60486 -2.8605 -6.72019e-19)
(4.36479 -3.13715 4.98444e-19)
(5.1705 -3.31371 -6.93784e-20)
(5.98057 -3.33511 3.57454e-19)
(6.83596 -3.15491 -5.06296e-19)
(4.84183 3.15623 -1.78002e-19)
(4.93109 3.35138 7.19174e-19)
(5.02507 3.53032 -2.32554e-19)
(5.13574 3.68999 -8.91843e-19)
(5.2704 3.82795 3.68849e-20)
(5.42936 3.93571 3.99929e-19)
(5.60469 4.0044 -2.66603e-21)
(5.78329 4.0257 2.35704e-19)
(5.94951 3.99236 -5.05393e-19)
(6.1033 3.91823 -1.18628e-19)
(6.26024 3.85582 3.44793e-20)
(6.42533 3.84696 1.58709e-20)
(6.54672 3.83032 3.66327e-19)
(6.49425 3.6551 -1.10842e-19)
(6.13662 3.22778 5.42782e-19)
(5.46927 2.59368 -5.38624e-19)
(4.61544 1.87548 1.7816e-19)
(3.7325 1.19524 -1.63379e-19)
(2.96773 0.630016 3.7051e-19)
(2.38491 0.139816 2.71564e-19)
(1.98491 -0.369605 2.41649e-20)
(1.73546 -0.858807 -2.39341e-19)
(1.59423 -1.11462 1.153e-19)
(1.52604 -0.957568 5.30499e-20)
(1.45002 -0.440422 -2.10314e-19)
(1.23956 0.259254 1.44236e-19)
(0.919694 0.823324 1.68421e-19)
(0.647547 1.03994 -2.10748e-19)
(0.544992 0.861977 4.40336e-20)
(0.601589 0.423597 -2.62781e-19)
(0.755674 -0.14944 1.76217e-19)
(0.987243 -0.768585 -2.1269e-19)
(1.29981 -1.36949 -8.33337e-20)
(1.69818 -1.92709 3.30654e-20)
(2.18228 -2.43745 -1.85236e-19)
(2.74549 -2.89521 6.11279e-20)
(3.37944 -3.29358 1.89116e-19)
(4.0752 -3.61482 -3.65063e-19)
(4.83263 -3.83194 -9.24625e-20)
(5.61261 -3.89235 -7.1583e-19)
(6.48081 -3.73545 5.55957e-19)
(5.04921 3.05392 -1.7806e-19)
(5.11363 3.21864 -6.17808e-19)
(5.18034 3.36893 -1.47999e-20)
(5.25694 3.50499 -1.30771e-21)
(5.34974 3.62692 5.08852e-19)
(5.46188 3.73058 4.85875e-20)
(5.59032 3.80912 -3.50724e-19)
(5.72939 3.85757 -1.65501e-19)
(5.8698 3.87155 -5.07991e-21)
(6.00179 3.8418 4.31901e-19)
(6.11987 3.76922 2.05728e-19)
(6.23204 3.69548 5.46131e-20)
(6.36116 3.67955 -4.92767e-19)
(6.49312 3.69482 9.88981e-19)
(6.52154 3.60964 -7.28186e-19)
(6.31872 3.30968 3.8388e-19)
(5.84576 2.78498 -4.7833e-19)
(5.15737 2.11118 -1.05644e-18)
(4.36599 1.39829 9.15972e-20)
(3.60584 0.726066 1.05165e-18)
(2.9365 0.0827275 -5.49574e-19)
(2.41565 -0.525694 4.33516e-19)
(2.0241 -0.945404 -2.01307e-19)
(1.72049 -0.938671 9.01344e-21)
(1.47629 -0.439573 -2.23511e-20)
(1.19363 0.339377 -1.24012e-19)
(0.90762 0.948475 9.11376e-20)
(0.724336 1.12274 -1.24302e-19)
(0.684553 0.879822 9.4421e-20)
(0.756024 0.387766 8.58949e-20)
(0.894467 -0.235235 3.04666e-20)
(1.09105 -0.908352 1.06134e-19)
(1.35233 -1.57131 6.62611e-20)
(1.68539 -2.19737 -3.00505e-19)
(2.09374 -2.77472 -2.27119e-19)
(2.57464 -3.29555 1.57629e-19)
(3.12328 -3.75075 2.42467e-19)
(3.73547 -4.12647 3.93212e-20)
(4.418 -4.3948 7.27951e-19)
(5.13812 -4.51373 5.65267e-19)
(5.98314 -4.41235 2.11798e-19)
(5.23612 2.97202 -2.01497e-19)
(5.28233 3.11285 7.72678e-20)
(5.32926 3.24048 7.23704e-19)
(5.38185 3.35598 -8.18104e-19)
(5.4452 3.46186 3.9823e-19)
(5.52159 3.55594 -2.24708e-19)
(5.6123 3.63458 -1.78088e-21)
(5.71398 3.69287 2.91923e-19)
(5.82224 3.72792 -6.70184e-20)
(5.93109 3.73757 6.82578e-20)
(6.03372 3.71216 -2.21749e-19)
(6.12217 3.6451 -1.04552e-19)
(6.20003 3.56671 -2.6613e-19)
(6.29497 3.53367 -1.70644e-19)
(6.41243 3.54774 3.6346e-19)
(6.4802 3.51707 -1.6385e-19)
(6.39052 3.32404 6.4849e-19)
(6.0752 2.90649 -5.15378e-19)
(5.53214 2.29206 -1.78872e-19)
(4.82863 1.57231 1.11033e-18)
(4.07949 0.831123 -5.20479e-19)
(3.35675 0.106213 4.44122e-20)
(2.72647 -0.49329 8.83538e-20)
(2.18734 -0.708622 1.3032e-19)
(1.7394 -0.335577 -1.13015e-19)
(1.35554 0.429264 -3.85773e-20)
(1.07995 1.03396 -6.48845e-20)
(0.942579 1.16817 2.80935e-19)
(0.923103 0.88669 -1.5719e-19)
(0.984005 0.35891 -9.23898e-20)
(1.09052 -0.304235 2.77549e-19)
(1.23854 -1.02729 -2.6635e-19)
(1.43513 -1.75144 -1.59731e-19)
(1.68886 -2.44707 1.91905e-19)
(2.00563 -3.09709 1.71258e-19)
(2.3868 -3.69026 3.15021e-20)
(2.83099 -4.21393 -1.39443e-19)
(3.33705 -4.65404 -1.37041e-19)
(3.91126 -4.98116 -4.25871e-19)
(4.52612 -5.16658 4.71353e-19)
(5.28306 -5.12471 -5.51839e-20)
(5.40542 2.90754 3.24e-19)
(5.43758 3.02948 -8.23456e-19)
(5.46994 3.13901 8.1214e-19)
(5.50529 3.2377 3.82513e-19)
(5.54748 3.32914 -5.98157e-19)
(5.59843 3.41261 -2.51249e-19)
(5.65969 3.48563 -8.20615e-19)
(5.73048 3.54587 -4.92303e-21)
(5.80842 3.59002 1.38676e-19)
(5.89009 3.61626 3.33838e-20)
(5.97164 3.62322 1.11899e-19)
(6.04826 3.60244 1.33221e-19)
(6.11126 3.54493 -2.51518e-20)
(6.16193 3.46758 2.58711e-19)
(6.22241 3.41385 -7.92287e-19)
(6.30491 3.40801 8.33719e-19)
(6.37192 3.40477 -2.50711e-19)
(6.34261 3.29465 -6.41539e-19)
(6.1308 2.97808 4.88419e-19)
(5.68844 2.44008 -4.66848e-19)
(5.04836 1.74983 2.75649e-19)
(4.32574 1.01012 -4.02166e-20)
(3.60393 0.304675 9.52277e-20)
(2.9018 -0.152843 -4.21405e-20)
(2.26076 -0.0289582 -9.74322e-20)
(1.75805 0.585603 1.8591e-20)
(1.45156 1.11651 4.66312e-20)
(1.30825 1.21168 -3.87405e-21)
(1.26928 0.909674 3.52244e-20)
(1.29277 0.361954 -7.65586e-20)
(1.3479 -0.330422 -5.79488e-19)
(1.42951 -1.09458 6.82726e-19)
(1.5446 -1.87516 -3.2625e-20)
(1.70222 -2.63804 -2.73536e-19)
(1.90913 -3.36505 3.65225e-19)
(2.169 -4.03776 -4.41228e-20)
(2.48421 -4.64373 -1.66107e-19)
(2.85988 -5.16486 2.58303e-19)
(3.29326 -5.56998 1.68108e-19)
(3.75927 -5.82897 -4.13347e-19)
(4.34458 -5.83761 -2.54373e-19)
(5.55906 2.85791 2.49025e-21)
(5.58035 2.96467 4.15012e-19)
(5.60166 3.05978 1.10739e-18)
(5.62437 3.14497 -1.24213e-18)
(5.65126 3.22424 -1.59822e-19)
(5.684 3.29778 1.41332e-18)
(5.72329 3.36405 2.20626e-19)
(5.77013 3.42156 8.37084e-20)
(5.82289 3.46876 -5.28643e-19)
(5.87989 3.50352 -4.26175e-19)
(5.93837 3.52444 3.55033e-19)
(5.99615 3.53042 4.47092e-20)
(6.04893 3.51543 1.29159e-19)
(6.08929 3.4709 -2.34458e-19)
(6.11642 3.40054 -1.64097e-19)
(6.14222 3.33257 3.95343e-19)
(6.17883 3.30534 -2.1715e-19)
(6.21517 3.31357 2.81834e-19)
(6.19761 3.26909 -3.75486e-19)
(6.03375 3.05438 5.12949e-20)
(5.65144 2.61828 3.88277e-20)
(5.07202 2.01259 2.10305e-19)
(4.40136 1.33247 -1.3571e-19)
(3.68404 0.742437 7.96112e-21)
(2.96013 0.572715 2.41338e-20)
(2.37288 0.901553 1.68875e-20)
(2.00827 1.27146 -1.20433e-19)
(1.81758 1.30976 2.09485e-19)
(1.72476 0.995031 -2.56289e-19)
(1.68384 0.439002 -5.49126e-20)
(1.66589 -0.267768 7.0187e-20)
(1.65999 -1.06084 -1.24478e-19)
(1.67218 -1.88525 6.11e-20)
(1.71033 -2.70674 -7.15088e-20)
(1.78231 -3.50346 5.93854e-19)
(1.89377 -4.25548 -6.33204e-19)
(2.0491 -4.94536 3.82134e-20)
(2.25913 -5.5579 4.28667e-20)
(2.52102 -6.06189 1.00895e-19)
(2.81288 -6.41464 -1.41525e-20)
(3.1663 -6.51195 4.79565e-19)
(5.69883 2.82096 -5.8484e-19)
(5.71162 2.91541 3.0109e-19)
(5.72446 2.99897 -1.40693e-18)
(5.73776 3.07342 1.03277e-18)
(5.75356 3.14288 -6.97065e-19)
(5.77307 3.20796 6.7755e-19)
(5.79677 3.26781 -8.00106e-20)
(5.82544 3.32139 -2.2003e-19)
(5.85879 3.36807 9.74895e-19)
(5.89541 3.40694 -5.26906e-19)
(5.93387 3.4363 -3.68841e-21)
(5.9725 3.45497 4.43335e-19)
(6.00934 3.46221 -3.98307e-19)
(6.04058 3.4549 -1.07533e-19)
(6.06059 3.42561 1.19508e-19)
(6.06634 3.3691 -1.91631e-19)
(6.06069 3.30113 3.65058e-20)
(6.05211 3.26393 1.75986e-19)
(6.04508 3.28182 -1.8592e-19)
(6.00775 3.29872 5.41379e-20)
(5.85914 3.20024 -5.27683e-21)
(5.52773 2.9099 3.44745e-21)
(5.03239 2.4242 2.8508e-21)
(4.40782 1.84042 3.66972e-20)
(3.7176 1.44998 -1.37023e-19)
(3.11355 1.44745 4.89088e-20)
(2.69984 1.58823 1.10863e-19)
(2.44559 1.53881 1.64967e-19)
(2.27832 1.20796 -8.81257e-20)
(2.15251 0.653378 -6.71336e-20)
(2.04255 -0.0500016 -5.52182e-20)
(1.93037 -0.850237 5.11377e-19)
(1.81932 -1.69578 -5.20852e-21)
(1.71584 -2.55268 -8.31677e-19)
(1.62669 -3.39591 1.57457e-19)
(1.55873 -4.20455 3.63374e-19)
(1.51815 -4.9567 -3.75771e-19)
(1.51377 -5.63974 5.59732e-19)
(1.55324 -6.22796 2.74416e-19)
(1.62365 -6.67611 2.03369e-19)
(1.70675 -6.90355 -1.22671e-18)
(5.82611 2.79477 4.48968e-19)
(5.83228 2.87912 -6.48533e-19)
(5.8387 2.95336 1.47943e-18)
(5.8451 3.01928 -3.15841e-19)
(5.85294 3.08094 -5.71016e-19)
(5.86304 3.13912 -6.13356e-19)
(5.87577 3.19339 1.40174e-18)
(5.89135 3.24325 -9.26562e-20)
(5.91044 3.28815 -3.65013e-19)
(5.93168 3.32808 1.57999e-19)
(5.9542 3.36234 -5.77354e-19)
(5.97703 3.38973 7.85899e-19)
(5.99878 3.40921 -6.5971e-19)
(6.01762 3.42056 4.84302e-19)
(6.03038 3.42308 1.14844e-19)
(6.03289 3.41121 -7.21293e-21)
(6.0208 3.3762 -1.44508e-20)
(5.99149 3.32446 1.46679e-20)
(5.94957 3.29445 1.77371e-20)
(5.90507 3.32935 1.16654e-20)
(5.84413 3.41183 -3.49646e-21)
(5.70868 3.45193 -1.9768e-20)
(5.45358 3.33058 -1.2519e-19)
(5.04844 2.98405 1.4237e-19)
(4.50331 2.53937 -5.58362e-20)
(3.93532 2.25169 4.68335e-20)
(3.48091 2.13398 1.37966e-19)
(3.15785 1.96942 -3.581e-19)
(2.91153 1.61815 3.89542e-20)
(2.69506 1.07795 3.4925e-19)
(2.48372 0.398045 -3.00883e-19)
(2.25971 -0.375652 7.78096e-19)
(2.01811 -1.20492 -7.25533e-19)
(1.76473 -2.05582 1.1902e-19)
(1.50531 -2.9027 3.92142e-19)
(1.24622 -3.72206 -4.03022e-19)
(0.991505 -4.49175 2.90255e-19)
(0.744018 -5.19606 -6.93186e-21)
(0.507085 -5.81636 -8.23609e-19)
(0.280589 -6.31426 -1.10339e-19)
(0.0468292 -6.62008 7.3006e-20)
(5.94205 2.7774 1.60309e-20)
(5.9432 2.8534 -4.62864e-19)
(5.94491 2.92009 -2.81156e-19)
(5.94644 2.97927 1.21815e-18)
(5.94876 3.03477 3.91672e-19)
(5.95242 3.08745 5.89869e-20)
(5.9576 3.13711 1.5855e-18)
(5.96443 3.18362 -8.70464e-19)
(5.97337 3.22661 8.6596e-20)
(5.98389 3.26632 -9.42227e-19)
(5.995 3.30284 3.28472e-19)
(6.0062 3.33567 1.71902e-19)
(6.01659 3.36402 -3.35029e-19)
(6.02507 3.38719 2.99467e-19)
(6.02992 3.40549 2.45462e-19)
(6.02881 3.41983 9.06733e-20)
(6.01863 3.42716 -9.81829e-21)
(5.99519 3.41895 -1.87877e-19)
(5.95404 3.39544 1.54803e-19)
(5.89778 3.38673 -1.55698e-20)
(5.83813 3.44323 -6.76822e-20)
(5.77253 3.58959 9.52459e-20)
(5.67753 3.75204 -1.14756e-19)
(5.51032 3.79229 6.26975e-20)
(5.21913 3.61652 6.5028e-20)
(4.80945 3.29991 -7.48433e-20)
(4.37491 2.98329 7.09417e-20)
(3.99101 2.67224 2.1777e-19)
(3.65983 2.28343 -4.7193e-19)
(3.35215 1.77017 1.20714e-20)
(3.04238 1.14121 3.33068e-19)
(2.71417 0.428351 -3.27747e-20)
(2.35832 -0.336331 -9.27713e-20)
(1.97233 -1.12736 4.38532e-20)
(1.56253 -1.92085 -1.36536e-20)
(1.136 -2.69366 1.50418e-19)
(0.693743 -3.42503 -4.04023e-19)
(0.230388 -4.09633 4.1242e-19)
(-0.254135 -4.68103 -2.45605e-19)
(-0.753815 -5.15037 2.95321e-19)
(-1.2644 -5.46078 1.34249e-19)
(6.04283 2.76729 3.43226e-20)
(6.04049 2.83661 -8.71417e-19)
(6.03902 2.89735 1.16309e-18)
(6.0374 2.9514 -1.23943e-18)
(6.03624 3.0023 -5.64718e-19)
(6.03591 3.05085 -2.25278e-18)
(6.03643 3.09701 8.76892e-19)
(6.03793 3.14085 3.06536e-18)
(6.04056 3.18232 -4.62105e-19)
(6.04455 3.22132 -2.06584e-18)
(6.0486 3.25868 1.97859e-18)
(6.05247 3.29434 -5.84222e-19)
(6.05566 3.32804 -2.57391e-19)
(6.05751 3.35941 3.36157e-19)
(6.05707 3.38807 -5.89377e-19)
(6.05308 3.41479 1.74862e-19)
(6.04386 3.44146 1.10601e-18)
(6.02748 3.46725 -8.61236e-19)
(6.00058 3.48517 2.33394e-19)
(5.95951 3.49162 1.03424e-19)
(5.90702 3.50521 -1.65774e-19)
(5.85474 3.58221 -1.43867e-19)
(5.81329 3.75895 2.08951e-19)
(5.77375 3.9959 -1.88341e-19)
(5.69823 4.16393 5.29726e-20)
(5.5359 4.15612 -1.57504e-20)
(5.27128 3.96811 2.92487e-20)
(4.94162 3.65198 7.67653e-20)
(4.58537 3.24144 1.16644e-19)
(4.21484 2.74532 -3.31246e-19)
(3.827 2.17189 2.01245e-20)
(3.41541 1.53761 -5.83527e-20)
(2.97484 0.863675 3.49191e-19)
(2.50005 0.169996 3.33726e-20)
(1.99206 -0.525919 -9.18648e-22)
(1.45562 -1.20709 -2.76375e-20)
(0.899558 -1.8564 4.09033e-21)
(0.3213 -2.45931 -3.62477e-20)
(-0.286358 -2.98666 -2.42503e-19)
(-0.9131 -3.40823 9.23633e-21)
(-1.55101 -3.69752 6.68083e-20)
(6.12772 2.76255 3.2078e-19)
(6.12325 2.82647 8.14763e-19)
(6.11987 2.88251 -3.70451e-19)
(6.11645 2.93259 -1.51698e-18)
(6.11337 2.97993 -4.5761e-19)
(6.11082 3.02528 -1.71696e-18)
(6.10875 3.06869 2.11405e-18)
(6.10728 3.11029 -7.00758e-19)
(6.10644 3.1503 -7.7265e-19)
(6.10654 3.18846 1.8262e-18)
(6.1067 3.22571 1.32958e-18)
(6.10655 3.26246 -1.60908e-18)
(6.10583 3.29874 -9.25369e-19)
(6.10421 3.33451 1.19321e-18)
(6.10118 3.36967 -1.10653e-18)
(6.09611 3.40422 -4.58063e-19)
(6.0881 3.43909 5.25011e-19)
(6.07632 3.47662 5.36473e-19)
(6.0596 3.51736 3.90785e-20)
(6.0358 3.5565 -2.9314e-19)
(6.00232 3.58609 5.09075e-19)
(5.96218 3.62074 -3.74471e-19)
(5.92887 3.69934 -3.12203e-20)
(5.91743 3.86642 -5.88826e-20)
(5.92805 4.11096 1.0898e-19)
(5.93196 4.34717 -3.35926e-20)
(5.88595 4.4778 3.65715e-20)
(5.75794 4.44858 9.6476e-21)
(5.53888 4.24813 2.5136e-20)
(5.23763 3.89487 -8.53346e-21)
(4.86802 3.42481 -2.17713e-20)
(4.44202 2.87974 1.43233e-19)
(3.96891 2.29593 -1.86954e-19)
(3.45455 1.69738 1.20599e-19)
(2.90361 1.0997 2.38392e-20)
(2.32135 0.515885 -1.86151e-19)
(1.71514 -0.0437602 1.52742e-19)
(1.08963 -0.571856 5.43173e-20)
(0.448763 -1.04834 -8.63362e-20)
(-0.204263 -1.44461 -3.0055e-20)
(-0.858133 -1.73649 -3.11588e-20)
(6.2001 2.76104 -1.91925e-19)
(6.19439 2.8204 1.22347e-19)
(6.18998 2.87253 -2.3529e-19)
(6.18565 2.91936 -7.76861e-19)
(6.18163 2.96381 1.02964e-18)
(6.17799 3.00656 -6.82225e-19)
(6.17464 3.0477 -4.014e-19)
(6.17166 3.08744 6.73466e-19)
(6.16909 3.12607 -2.17408e-19)
(6.1671 3.16348 -2.21998e-19)
(6.1653 3.20021 6.33358e-19)
(6.16318 3.23708 -8.49339e-19)
(6.1606 3.27434 1.3036e-18)
(6.1575 3.31204 -8.64195e-19)
(6.15364 3.3504 -3.8452e-19)
(6.14879 3.38948 -2.17051e-19)
(6.14252 3.42957 -6.93308e-20)
(6.1345 3.47158 1.25993e-19)
(6.12441 3.51782 2.80777e-19)
(6.11207 3.56999 -4.56112e-19)
(6.09586 3.62344 1.14978e-20)
(6.07364 3.67299 3.75627e-19)
(6.0488 3.7203 -1.61942e-19)
(6.03267 3.79141 -1.39934e-19)
(6.04066 3.92289 2.53715e-19)
(6.0787 4.12523 -1.89057e-19)
(6.13234 4.36285 1.24026e-19)
(6.17026 4.57098 -2.11022e-20)
(6.15861 4.68874 -2.62962e-20)
(6.06846 4.67395 -1.48601e-20)
(5.88281 4.51046 4.01999e-21)
(5.59968 4.21137 2.96561e-21)
(5.22929 3.81188 3.82592e-20)
(4.78562 3.35303 -3.4684e-20)
(4.28251 2.87051 -6.73841e-21)
(3.733 2.38884 -4.5344e-21)
(3.14946 1.92105 1.69752e-20)
(2.53785 1.46916 -1.01358e-20)
(1.90775 1.03981 1.07568e-20)
(1.27286 0.64124 -2.15615e-20)
(0.640521 0.286582 3.81906e-23)
(6.26277 2.7614 2.1278e-20)
(6.25648 2.81675 1.04067e-18)
(6.25163 2.86547 3.96765e-19)
(6.24697 2.90951 -9.33549e-19)
(6.24263 2.95146 5.60945e-20)
(6.23862 2.99196 4.06445e-19)
(6.23481 3.0311 7.36273e-19)
(6.23126 3.06917 -5.55922e-19)
(6.22803 3.10641 -7.78891e-19)
(6.2252 3.14293 6.04118e-20)
(6.22269 3.17881 -1.0877e-19)
(6.21991 3.21525 -4.88812e-19)
(6.2168 3.25253 4.54534e-19)
(6.21347 3.29087 6.07784e-19)
(6.20984 3.33035 -6.88268e-20)
(6.20595 3.37131 9.35487e-20)
(6.20164 3.41395 -2.73411e-19)
(6.19691 3.45867 2.428e-19)
(6.19166 3.50619 1.07639e-19)
(6.18631 3.55883 2.70932e-19)
(6.18096 3.61737 -4.11994e-19)
(6.17433 3.68098 -1.57099e-19)
(6.1652 3.74154 1.51548e-19)
(6.15534 3.79784 1.09577e-19)
(6.15204 3.86149 3.86184e-20)
(6.1669 3.95546 -2.0874e-19)
(6.20873 4.09766 -9.31161e-20)
(6.27567 4.28598 -4.56766e-20)
(6.35343 4.4957 1.37877e-19)
(6.41799 4.68786 -2.59869e-20)
(6.44316 4.82296 3.22671e-20)
(6.40416 4.86945 -1.38221e-20)
(6.2839 4.81168 1.7699e-20)
(6.07573 4.65307 -2.13868e-20)
(5.78427 4.41376 1.02514e-20)
(5.42141 4.12173 1.12745e-21)
(5.00231 3.80285 5.22524e-22)
(4.5349 3.4711 5.73684e-21)
(4.02992 3.13905 -5.24775e-21)
(3.4976 2.81498 -2.62448e-22)
(2.94483 2.51082 4.51498e-21)
(6.31772 2.76276 -2.18542e-19)
(6.31129 2.81446 -1.84463e-19)
(6.30639 2.86016 -1.73801e-18)
(6.30178 2.90169 2.85368e-18)
(6.29752 2.9414 8.00914e-20)
(6.29357 2.97984 -2.1677e-19)
(6.28983 3.01716 -7.91176e-19)
(6.28629 3.05363 8.073e-19)
(6.28305 3.08949 -3.20778e-18)
(6.28013 3.12497 3.91414e-18)
(6.27763 3.1599 -1.64383e-18)
(6.275 3.19547 -2.46033e-19)
(6.27224 3.23211 5.39196e-19)
(6.26942 3.27007 1.38104e-18)
(6.26672 3.30944 -4.05543e-19)
(6.26418 3.35056 5.07245e-19)
(6.26196 3.39356 -1.64583e-18)
(6.26012 3.43895 4.90103e-19)
(6.25881 3.48678 1.26028e-19)
(6.25836 3.53815 -1.70938e-19)
(6.25926 3.59357 8.83316e-19)
(6.26152 3.65571 -5.16602e-19)
(6.26468 3.72125 -2.43871e-19)
(6.26806 3.78668 2.21391e-19)
(6.27174 3.84811 4.70692e-20)
(6.27864 3.90835 -1.47464e-19)
(6.29544 3.97751 2.10859e-19)
(6.32995 4.06958 -1.33619e-19)
(6.387 4.19406 -8.19702e-20)
(6.46501 4.35092 7.02691e-20)
(6.55558 4.52902 8.24114e-20)
(6.64391 4.70837 -1.14656e-20)
(6.71307 4.86532 -2.76941e-20)
(6.74601 4.97864 -9.35158e-21)
(6.72858 5.03332 2.45629e-20)
(6.65225 5.02463 -2.15929e-20)
(6.51742 4.95802 1.16746e-20)
(6.32604 4.84201 -2.8022e-21)
(6.08597 4.68979 2.5929e-21)
(5.80507 4.51283 -1.01071e-21)
(5.48923 4.32705 -5.40489e-23)
(6.36636 2.76459 -5.42232e-19)
(6.36007 2.81295 6.84651e-19)
(6.35539 2.85587 8.54005e-19)
(6.35106 2.89509 1.09763e-18)
(6.34716 2.93271 -2.05519e-18)
(6.34357 2.96923 2.57704e-18)
(6.34021 3.0048 -2.2091e-18)
(6.33706 3.0397 5.13542e-18)
(6.33423 3.07415 -4.82498e-18)
(6.33173 3.10842 2.09079e-18)
(6.32964 3.14237 2.07601e-18)
(6.32764 3.17681 -9.2569e-19)
(6.32566 3.21235 -2.21688e-18)
(6.32382 3.24926 -8.2499e-19)
(6.32236 3.28767 1.52779e-18)
(6.32142 3.32783 -9.47837e-19)
(6.32122 3.36987 6.82852e-19)
(6.32195 3.41416 1.04325e-19)
(6.32386 3.46082 -1.80528e-19)
(6.32727 3.51037 5.38714e-19)
(6.33248 3.5625 -1.32476e-18)
(6.3396 3.6189 5.7507e-19)
(6.34876 3.67863 -3.68174e-20)
(6.36033 3.74175 -9.58979e-20)
(6.3739 3.80588 1.03787e-19)
(6.38864 3.86806 -3.49315e-20)
(6.40495 3.9269 -9.10534e-20)
(6.42537 3.98499 2.56035e-20)
(6.45441 4.04837 1.84305e-20)
(6.49706 4.12476 1.63534e-19)
(6.55703 4.22047 5.69179e-21)
(6.63507 4.33801 -9.0294e-20)
(6.72835 4.47417 -2.33377e-21)
(6.83066 4.62146 -1.98783e-21)