/*--------------------------------*- C++ -*----------------------------------*\
| =========                 |                                                 |
| \\      /  F ield         | OpenFOAM: The Open Source CFD Toolbox           |
|  \\    /   O peration     | Version:  2312                                  |
|   \\  /    A nd           | Website:  www.openfoam.com                      |
|    \\/     M anipulation  |                                                 |
\*---------------------------------------------------------------------------*/
FoamFile
{
    version     2.0;
    format      ascii;
    arch        "LSB;label=32;scalar=64";
    class       volScalarField;
    location    "700";
    object      div(phi);
}
// * * * * * * * * * * * * * * * * * * * * * * * * * * * * * * * * * * * * * //

dimensions      [0 0 -1 0 0 0 0];

internalField   nonuniform List<scalar> 
11040
(
-0.00203448
-0.00123632
-0.00534595
-0.00538821
-0.00497175
-0.00336193
-0.00331635
-0.00537149
-0.00374572
-0.00792743
-0.00198018
-0.00677054
-0.00502784
-0.00789476
-0.00493197
-0.00475308
-0.00492843
-0.00321602
-0.00696993
-0.00586582
-0.00945098
-0.0108086
-0.00973603
-0.00911323
-0.000649119
-0.00515617
0.00136966
-0.00314333
0.000371362
-0.00147428
-0.000311133
-0.00100263
-0.000512626
-0.00122629
0.000281481
-0.0030938
-0.00220758
-0.00164327
0.000175642
-0.0343215
-0.0312871
-0.000508014
-0.000855236
-0.00212595
-0.00430948
-0.00660852
-0.00760247
-0.00804997
-0.00793385
-0.00639396
-0.00716565
-0.00606263
-0.00872313
-0.008414
-0.0101424
-0.00907255
-0.00914694
-0.0103011
-0.00903692
-0.0118616
-0.00763493
-0.00947487
-0.010764
-0.0104874
-0.0103235
-0.00465797
-0.00498394
-0.000883781
-0.00188402
-0.000367179
-0.000982987
-0.00154084
-0.00191733
-0.00329074
-0.00396924
-0.00462322
-0.00585612
-0.00594295
-0.00679424
-0.00908532
-0.0186415
-0.0185525
-0.000737336
-8.07483e-05
-0.00046257
-0.000272868
-0.000545276
-0.00166601
-0.00215613
-0.00162611
-0.000943828
-0.00114569
-0.000174437
-0.00117248
-0.000801068
-0.00116039
-0.00021931
-5.26584e-05
0.000409843
0.000476104
-0.000754178
-0.000783095
-0.00113356
-0.00167031
-0.00110494
-0.000947559
0.000850617
-0.000752371
0.000764415
-0.000649986
0.000208033
-0.000268903
7.01974e-05
3.8466e-05
0.000176996
0.000420016
0.000617838
0.000139716
-0.000210187
0.000986316
0.00180601
-0.00475201
-0.00357262
2.25736e-05
0.000122825
-4.201e-05
3.20671e-05
-0.000593406
-0.00117222
-0.00240756
-0.00307733
-0.00367403
-0.00374386
-0.00360911
-0.0035844
-0.00377475
-0.0040624
-0.00418582
-0.00447885
-0.0048072
-0.00519661
-0.00542566
-0.00437757
-0.00457919
-0.00510811
-0.00477632
-0.00438869
-0.00244407
-0.0021495
-0.00092237
-0.00101559
-0.000620516
-0.000920529
-0.00115619
-0.00158648
-0.00199417
-0.00245273
-0.00258613
-0.0031706
-0.00302126
-0.00341718
-0.00401499
-0.00647956
-0.00582803
0.000531978
-0.000104711
2.55995e-05
-0.000373706
-0.000266216
-0.000447249
-0.000514077
-0.000926694
-0.00143455
-0.00152842
-0.000951472
-0.000817438
-0.00057802
-0.000717184
-0.000663543
-0.000704714
-0.000446623
-0.000782345
-0.000591965
-0.000688167
-0.00035084
-0.000326462
-0.000291596
8.42736e-06
0.000189088
-6.80086e-06
7.65825e-05
-0.000120762
-5.79225e-05
-0.000149093
-9.71413e-05
-0.000183453
-0.00017649
-0.000100761
-0.000157056
-0.000342075
-0.000700482
-9.61954e-05
-0.000232899
-0.0013857
-0.00124882
-0.000907302
0.000369184
-0.000340225
0.00041532
4.53155e-05
-6.96282e-05
-3.46523e-05
-0.000289395
-0.000525051
-0.00101749
-0.00108021
-0.0016086
-0.00196857
-0.00215468
-0.00222903
-0.0023333
-0.00268805
-0.00281227
-0.00291964
-0.00250776
-0.0025711
-0.00247678
-0.00242668
-0.00191871
-0.00143313
-0.00103619
-0.000865447
-0.000705927
-0.000725712
-0.000745003
-0.000919957
-0.00102932
-0.00119694
-0.00123914
-0.0014027
-0.00143653
-0.00153744
-0.0012354
-0.00158933
-0.00158723
-0.00160713
0.000517682
-0.000176503
0.000894875
0.000175844
-0.000133836
-0.000122821
-0.000316111
-0.000253441
-0.000469289
-0.000417851
-0.000876535
-0.00113033
-0.00123978
-0.00111705
-0.0010829
-0.0010962
-0.00113684
-0.00128783
-0.00100644
-0.000976372
-0.000511507
-0.000523701
-0.000417718
-0.0003337
-0.000162817
-0.000290797
-0.000219573
-0.000336701
-0.000302075
-0.000393781
-0.000390475
-0.000495534
-0.000482204
-0.000545354
-0.000515404
-0.000732511
-0.000669414
-0.000663338
-0.000353189
-0.000638645
-0.000174692
-0.00028625
0.000568876
0.000635681
-0.00032583
-1.6085e-05
-0.000570645
-6.38178e-05
-0.000258159
0.000113189
-0.000224108
0.000142613
-6.57123e-05
-0.000482766
-0.000698467
-0.000893538
-0.00129939
-0.00139368
-0.00152655
-0.00143517
-0.00131012
-0.00119275
-0.00121496
-0.00104269
-0.000893038
-0.000740089
-0.00062602
-0.000480824
-0.000521014
-0.000433861
-0.000515599
-0.000475442
-0.00056234
-0.000493229
-0.000550084
-0.000512563
-0.000590439
-0.000455755
-0.000322293
-0.000226199
-9.31108e-05
-1.26887e-05
-0.000133845
0.00106407
-0.000492861
0.000422825
-0.0008219
0.000123039
-0.000268652
0.000417034
-9.81477e-05
0.000399192
0.000157336
-0.000199543
-0.000301082
-0.000565918
-0.000974587
-0.00108644
-0.00131574
-0.00112128
-0.000979328
-0.000684305
-0.000628896
-0.000585809
-0.000637363
-0.000527294
-0.00048262
-0.000365861
-0.0004597
-0.000370625
-0.000490338
-0.000414752
-0.000533031
-0.000447354
-0.000539022
-0.00041575
-0.000515922
-0.000383324
-0.000423536
-0.000156852
-0.000113088
0.000141452
0.000183115
0.000584016
-0.000264942
0.000494759
-0.000686909
7.16901e-05
-0.000309157
0.000324844
-3.17678e-05
0.000284712
0.000184202
-0.000169669
-0.000112503
-0.000267092
-0.000334705
-0.000122496
-0.000379563
-0.000215346
-0.000283182
-0.000494111
-0.000475757
-0.000508245
-0.000555512
-0.000507529
-0.000448732
-0.000416872
-0.000497598
-8.13653e-05
-0.000426715
-0.000142028
-0.000409786
-0.000207363
-0.000402195
-0.000198942
-0.000370584
-0.000164191
-0.000353222
-2.1941e-05
-0.000156401
0.000229871
9.57086e-05
0.000475198
7.64237e-05
9.36932e-05
-0.000166527
-0.000168726
-0.000222283
-7.5006e-05
-3.7884e-05
-3.18085e-05
4.638e-05
-0.000168007
-0.00010869
-0.000147605
-0.000224321
0.000162146
-6.8333e-06
0.000199157
0.000144034
-0.000235281
-0.000254535
-0.000470071
-0.000503637
-0.000517231
-0.000512025
-0.000505445
-0.000569328
-0.000179563
-0.000424723
1.90822e-05
-0.000293876
-1.49375e-05
-0.000253432
-2.39555e-05
-0.000251755
1.5265e-05
-0.00027606
0.000115227
-0.000266335
0.000283932
-0.000199844
0.000416156
-0.00012645
-2.63143e-05
-2.4465e-05
-0.000148655
-0.000169802
-0.000214358
-0.000186764
-0.000172095
-0.000186122
-0.00014488
-0.000206519
-0.000109085
-0.000216761
0.000141568
5.25358e-05
0.000166336
0.000178461
-7.6407e-05
3.39303e-05
-0.000126314
-0.000114229
-0.000105044
-0.000228362
-0.000273593
-0.000332774
-0.000463452
-0.000353114
-0.000205531
-0.000146692
-0.000116305
-7.49951e-05
-8.8767e-05
-9.87626e-05
-4.49024e-05
-0.000144786
3.47247e-05
-0.000226814
0.000149783
-0.000266155
0.000236634
-0.000298565
0.000259883
-7.92871e-05
-3.89225e-05
-0.000139267
-9.70436e-05
-0.000191771
-0.000142756
-0.000194148
-0.000166007
-0.000179938
-0.000170113
-0.000152705
-5.14993e-05
1.36296e-05
2.15935e-05
9.9123e-05
-4.09604e-05
7.22519e-05
9.32687e-06
3.68236e-05
0.000138393
8.86155e-05
7.41692e-05
6.63146e-05
-0.00041095
-0.000115186
-0.000616736
-3.70775e-05
-0.000485258
5.3443e-05
-0.000386136
4.14992e-05
-0.000328502
3.93463e-05
-0.000285668
1.48179e-05
-0.00023773
2.73178e-05
-0.00019778
3.82478e-05
-0.00013212
6.10526e-05
-7.72866e-05
-1.21059e-05
-0.000121597
-3.73117e-05
-0.000161608
-6.5505e-05
-0.000173583
-8.71383e-05
-0.000160768
-0.000115283
-0.000135738
-9.86128e-05
-7.35838e-05
-5.28798e-05
-3.63236e-05
-9.56731e-06
8.43112e-06
1.58282e-05
0.000111005
9.3244e-05
7.27142e-05
9.76459e-05
-0.000118736
2.46242e-05
-0.00051049
-7.73809e-05
-0.000632516
-3.61862e-05
-0.000595895
-6.10666e-06
-0.00055798
6.37949e-05
-0.000538733
0.000147363
-0.000553841
0.000265671
-0.0005762
0.000378643
-0.000529023
0.000413188
-0.000300102
-6.25231e-05
2.00232e-06
-0.000102181
-9.52208e-06
-0.00013825
-2.02236e-05
-0.000151181
-3.01593e-05
-0.000141489
-4.80565e-05
-0.000120424
-5.7729e-05
-8.7356e-05
-5.92803e-05
-6.92382e-05
-6.36466e-05
-3.9151e-05
-6.79068e-06
1.49401e-05
-1.46658e-05
-3.88388e-06
-5.68638e-05
-4.20562e-05
-0.000194791
-0.000148657
-0.000307547
-0.00021076
-0.000356988
-0.00022421
-0.000363091
-0.000193728
-0.00035369
-0.000121536
-0.000344658
-3.07834e-05
-0.000326756
9.20395e-05
-0.0002594
0.00015149
-0.000129377
0.000221209
-5.20617e-05
9.83265e-06
-8.66926e-05
4.1639e-06
-0.000116233
6.70216e-06
-0.000128967
9.42296e-06
-0.000121176
8.10403e-06
-9.81226e-05
-3.15593e-06
-7.65815e-05
-2.31153e-05
-7.06777e-05
-5.65884e-05
-7.20623e-05
-6.96933e-05
-6.79731e-05
-7.83674e-05
-7.49416e-05
-0.000103089
-9.32601e-05
-0.000146913
-0.000122203
-0.000194977
-0.000141734
-0.000232225
-0.000155812
-0.000271571
-0.000152948
-0.000281519
-0.000113056
-0.000283893
-3.83759e-05
-0.000258464
4.83015e-05
-0.000229378
0.000140475
-0.000154525
0.000150896
-4.49232e-05
1.33158e-05
-7.15786e-05
1.40982e-05
-9.21129e-05
2.13593e-05
-0.000102674
2.98654e-05
-9.80862e-05
3.61578e-05
-8.1347e-05
3.01464e-05
-6.72927e-05
1.06038e-05
-6.22363e-05
-2.02898e-05
-6.62102e-05
-5.0649e-05
-7.21819e-05
-6.89091e-05
-7.77222e-05
-8.63538e-05
-8.7918e-05
-0.000106546
-9.581e-05
-0.000127305
-0.000102067
-0.000146268
-0.000105963
-0.000166905
-0.000106759
-0.000183431
-9.36569e-05
-0.000196404
-6.12234e-05
-0.000217391
-1.67907e-05
-0.000226709
1.54883e-05
-0.000186864
5.04747e-05
-3.16101e-05
4.32213e-06
-5.28723e-05
5.38948e-06
-6.86488e-05
1.16769e-05
-7.86003e-05
2.09158e-05
-7.78989e-05
3.07766e-05
-6.78068e-05
3.12093e-05
-5.72294e-05
2.135e-05
-5.05175e-05
1.81285e-06
-4.92115e-05
-2.12789e-05
-5.28454e-05
-3.67924e-05
-5.88503e-05
-4.97886e-05
-6.99195e-05
-6.18515e-05
-7.86318e-05
-7.26765e-05
-8.3717e-05
-8.29013e-05
-8.35719e-05
-9.47916e-05
-7.63652e-05
-0.000106842
-5.99592e-05
-0.000117329
-3.55663e-05
-0.000121005
-5.84675e-06
-0.000112033
3.50963e-05
-0.000103744
4.99865e-05
-3.02673e-05
4.89466e-06
-3.76582e-05
6.09354e-06
-4.6333e-05
1.18518e-05
-5.21676e-05
2.08869e-05
-5.3159e-05
2.92917e-05
-4.87152e-05
3.1097e-05
-4.26356e-05
2.62676e-05
-3.78003e-05
1.5999e-05
-3.47971e-05
2.41425e-06
-3.56484e-05
-7.03833e-06
-4.11477e-05
-1.6034e-05
-5.3103e-05
-2.51878e-05
-6.54956e-05
-3.49919e-05
-7.65528e-05
-4.57687e-05
-8.46998e-05
-5.81416e-05
-8.86233e-05
-7.32401e-05
-8.77705e-05
-9.00215e-05
-8.27144e-05
-0.000106289
-7.24899e-05
-0.000123753
-4.97835e-05
-0.000154878
-3.69937e-05
8.96174e-06
-2.10898e-05
-1.07698e-06
-1.65374e-05
-1.15327e-05
-7.55615e-06
-1.86517e-05
6.31595e-07
-2.25863e-05
9.49927e-06
-2.25912e-05
1.39704e-05
-1.92096e-05
1.532e-05
-1.44114e-05
1.15278e-05
-1.03128e-05
4.82796e-06
-9.50806e-06
-1.47412e-06
-1.65047e-05
-5.64225e-06
-2.9839e-05
-1.25353e-05
-4.47979e-05
-2.17379e-05
-6.08633e-05
-3.18306e-05
-7.61107e-05
-4.15555e-05
-9.04364e-05
-4.68327e-05
-9.97487e-05
-5.13221e-05
-0.000100379
-6.02507e-05
-8.98673e-05
-7.16657e-05
-7.0185e-05
-0.000101731
-2.58397e-05
-4.43125e-05
3.38432e-05
-4.37056e-05
3.78031e-05
-5.51271e-05
4.51378e-05
-6.49856e-05
5.48593e-05
-7.14211e-05
6.58063e-05
-7.68471e-05
7.25058e-05
-7.45588e-05
7.38758e-05
-7.16959e-05
7.05441e-05
-6.55341e-05
6.23739e-05
-6.18374e-05
5.25971e-05
-5.87421e-05
4.46523e-05
-6.1213e-05
3.68498e-05
-6.23787e-05
2.79656e-05
-6.26361e-05
1.98843e-05
-6.22876e-05
9.07085e-06
-5.04412e-05
-4.66874e-06
-4.38722e-05
-1.74591e-05
-3.14335e-05
-2.86407e-05
-6.73507e-06
-3.55282e-05
2.60348e-05
-6.0683e-05
4.64123e-05
4.71875e-06
-5.81194e-06
8.2464e-06
-1.50261e-05
4.84423e-06
-2.10833e-05
4.95656e-06
-2.77416e-05
7.32334e-06
-3.25446e-05
9.76948e-06
-3.70534e-05
1.06456e-05
-3.7456e-05
9.23174e-06
-3.906e-05
5.6395e-06
-3.85285e-05
-7.09018e-08
-4.11603e-05
-5.23773e-06
-4.69085e-05
-1.05639e-05
-5.60402e-05
-1.69074e-05
-6.30574e-05
-2.33773e-05
-7.55474e-05
-3.45134e-05
-7.75731e-05
-5.89324e-05
-0.000100005
-8.16587e-05
-0.000115903
-0.000116973
-0.0001057
-0.000156032
-0.000132404
-0.000169574
-9.9981e-05
-0.00017523
-2.76546e-05
1.38105e-05
-8.77592e-06
3.02955e-06
-9.40972e-06
-3.6507e-06
-8.52492e-06
-9.65723e-06
-5.8768e-06
-1.51641e-05
-4.69584e-06
-1.95124e-05
-2.608e-06
-2.23384e-05
-4.1111e-06
-2.45587e-05
-6.0769e-06
-2.64349e-05
-1.06545e-05
-3.00855e-05
-1.21662e-05
-3.64973e-05
-1.6773e-05
-4.4564e-05
-2.23713e-05
-5.21572e-05
-3.48119e-05
-6.1297e-05
-5.43082e-05
-8.09249e-05
-7.10315e-05
-8.28997e-05
-9.00619e-05
-7.98054e-05
-9.11247e-05
-7.42926e-05
-7.16987e-05
-1.28518e-05
-4.75999e-05
2.62054e-05
-3.43252e-05
1.47697e-05
-1.62601e-05
1.60471e-05
-1.87125e-05
1.59755e-05
-2.55464e-05
1.84086e-05
-3.17816e-05
2.23762e-05
-3.62538e-05
2.66971e-05
-4.0055e-05
2.90943e-05
-4.03174e-05
2.82545e-05
-4.01231e-05
2.50315e-05
-3.80012e-05
2.01213e-05
-3.49261e-05
1.60831e-05
-3.02364e-05
1.36646e-05
-2.12022e-05
1.03417e-05
-1.04603e-05
3.2835e-06
6.35174e-06
-6.86558e-06
2.57662e-05
-1.98481e-05
3.88724e-05
-3.09206e-05
5.4849e-05
-4.10344e-05
7.08057e-05
-4.86519e-05
7.05379e-05
-3.76159e-05
9.19125e-05
-2.68168e-06
-1.92559e-05
1.26295e-05
-2.74089e-06
3.22462e-06
-7.38689e-06
8.39388e-07
-1.04664e-05
5.33297e-07
-1.39622e-05
1.468e-06
-1.64858e-05
2.41644e-06
-1.91951e-05
2.14576e-06
-2.07945e-05
9.71755e-08
-2.31056e-05
-3.18317e-06
-2.3805e-05
-6.93044e-06
-2.53435e-05
-1.02529e-05
-2.48607e-05
-1.38686e-05
-2.49086e-05
-2.01966e-05
-1.58703e-05
-3.4377e-05
-1.39796e-05
-4.53567e-05
-1.01683e-05
-5.92942e-05
2.70422e-06
-6.36268e-05
1.88435e-06
-6.34061e-05
1.83222e-05
-5.39848e-05
3.1725e-05
-4.65155e-05
5.72745e-05
8.00602e-06
-9.04319e-06
5.86804e-06
-5.06197e-06
3.76313e-07
-4.39472e-06
-2.37869e-06
-4.14801e-06
-4.87614e-06
-2.26195e-06
-7.04786e-06
-1.49037e-06
-9.12339e-06
-9.49944e-07
-1.12173e-05
-2.74e-06
-1.33509e-05
-5.79039e-06
-1.55028e-05
-8.70379e-06
-1.76481e-05
-1.41137e-05
-1.96828e-05
-2.22075e-05
-1.95554e-05
-3.35477e-05
-2.24053e-05
-3.96735e-05
-8.83345e-06
-4.60271e-05
2.00282e-06
-4.13729e-05
2.10895e-05
-3.37187e-05
4.75903e-05
-2.54352e-05
6.31013e-05
-2.28328e-05
7.96246e-05
-1.58575e-05
8.23314e-05
-1.28479e-05
1.30238e-05
-9.0961e-06
5.74469e-06
-7.42844e-06
5.96104e-06
-9.45193e-06
6.94522e-06
-1.0904e-05
8.4568e-06
-1.15579e-05
9.92219e-06
-1.16374e-05
9.98061e-06
-1.04417e-05
8.20208e-06
-9.57319e-06
4.38902e-06
-5.81009e-06
-1.31903e-06
-3.47014e-06
-6.90614e-06
1.81389e-06
-1.43027e-05
1.0928e-05
-2.05351e-05
2.46082e-05
-2.67112e-05
3.6219e-05
-2.90371e-05
5.33693e-05
-3.0715e-05
6.34581e-05
-3.21994e-05
6.97479e-05
-3.72838e-05
7.45333e-05
-4.14757e-05
7.86273e-05
-4.21062e-05
8.70388e-05
8.10814e-06
-1.06202e-05
6.21492e-06
-2.09494e-06
1.59835e-06
-1.78626e-06
1.22064e-06
-2.91555e-06
1.12347e-06
-3.7178e-06
1.35854e-06
-4.93172e-06
1.14125e-06
-5.4326e-06
-3.90458e-08
-7.25499e-06
-2.97094e-06
-7.63544e-06
-9.31106e-06
-1.03346e-05
-1.33413e-05
-1.34015e-05
-2.32666e-05
-1.16494e-05
-3.59971e-05
-1.82145e-05
-4.60124e-05
-1.69677e-05
-5.6559e-05
-1.10082e-05
-6.10611e-05
-9.46701e-06
-6.29827e-05
-2.38226e-07
-5.95964e-05
9.66112e-06
-5.55548e-05
2.31251e-05
-4.70527e-05
3.62297e-05
-4.49671e-05
-5.95386e-06
1.02302e-05
-6.19522e-06
1.8842e-06
-1.1153e-06
2.69528e-07
5.27168e-07
-1.68059e-07
1.40494e-06
-6.61068e-07
1.63032e-06
-1.20054e-06
1.95588e-06
-1.76437e-06
1.28549e-07
-2.89305e-06
-3.23676e-06
-6.2902e-06
-4.98222e-06
-5.36953e-06
-1.24014e-05
-6.8105e-06
-1.92606e-05
-1.10423e-05
-2.59368e-05
-4.01867e-06
-3.36182e-05
-4.90959e-06
-3.67895e-05
8.97429e-07
-3.66785e-05
9.95563e-06
-3.48044e-05
1.79556e-05
-3.39083e-05
2.4618e-05
-3.32634e-05
3.13961e-05
-3.06811e-05
3.98797e-05
-3.14603e-05
5.99508e-06
-1.01413e-05
5.89318e-06
-5.28842e-06
7.10683e-07
-1.07918e-06
1.43788e-06
2.82429e-07
1.64179e-06
1.31049e-06
1.55237e-06
3.44456e-06
7.01208e-07
4.33879e-06
-6.0405e-07
5.57396e-06
-4.18206e-06
8.37057e-06
-9.26468e-06
6.3857e-06
-1.28453e-05
9.6989e-06
-1.72823e-05
1.58367e-05
-1.96331e-05
1.8845e-05
-2.00196e-05
2.8552e-05
-1.95565e-05
3.6501e-05
-1.89291e-05
3.97176e-05
-2.06747e-05
4.2155e-05
-2.28736e-05
4.2735e-05
-2.59859e-05
4.38164e-05
-2.5989e-05
4.49753e-05
-2.58326e-05
-3.92984e-06
8.28211e-06
-7.39235e-06
1.72439e-06
-1.87791e-06
-3.25771e-07
-2.089e-07
3.39351e-07
3.2923e-07
5.59376e-07
9.59396e-07
-8.19169e-09
1.20275e-06
1.43555e-07
1.01356e-06
-2.52303e-06
2.09414e-06
-6.42979e-06
-1.22745e-06
-7.71916e-06
1.42609e-06
-9.66952e-06
5.88442e-06
-9.80524e-06
1.07215e-05
-8.57522e-06
1.93332e-05
-7.77934e-06
2.58167e-05
-9.12159e-06
2.914e-05
-1.0234e-05
3.2177e-05
-1.16395e-05
3.44605e-05
-1.25533e-05
3.69551e-05
-1.36596e-05
3.86813e-05
-1.16281e-05
4.25082e-05
4.51573e-06
-6.63264e-06
5.12286e-06
-4.51879e-06
-1.74191e-06
-9.22473e-07
-1.88059e-06
9.03717e-07
-1.11767e-06
1.38601e-06
-6.36334e-07
1.94714e-06
7.92569e-07
1.06905e-07
1.24711e-06
-9.70315e-07
3.68232e-07
-1.92332e-06
3.57219e-06
-4.86544e-06
4.87268e-06
-5.18678e-06
7.82181e-06
-6.57418e-06
1.37685e-05
-9.2394e-06
1.54465e-05
-1.33084e-05
1.46556e-05
-1.69618e-05
1.64314e-05
-1.8575e-05
1.91461e-05
-1.8554e-05
2.3232e-05
-1.78365e-05
2.66273e-05
-1.7068e-05
2.99726e-05
-1.5001e-05
3.36847e-05
-1.9127e-06
6.18434e-06
-5.81271e-06
1.13646e-06
-3.27407e-06
-3.03449e-06
6.20529e-07
-2.49855e-06
3.08368e-06
-2.84478e-06
5.48097e-06
-3.79791e-06
7.18388e-06
-4.49729e-06
9.56306e-06
-5.97645e-06
1.22255e-05
-6.87507e-06
1.29534e-05
-6.95793e-06
1.7376e-05
-6.78982e-06
2.37428e-05
-6.82692e-06
2.50766e-05
-8.60638e-06
2.9469e-05
-1.05976e-05
2.96611e-05
-1.38404e-05
2.91931e-05
-1.55902e-05
2.97365e-05
-1.64649e-05
3.11695e-05
-1.60353e-05
3.30622e-05
-1.59017e-05
3.47242e-05
-1.21961e-05
3.56487e-05
3.34458e-06
-4.02364e-06
4.68437e-06
-4.60067e-06
-7.78121e-07
-1.29974e-06
-6.8418e-07
4.30798e-07
-2.7918e-08
1.65867e-06
2.18537e-07
2.82372e-06
3.98998e-07
4.61115e-06
-1.84433e-07
6.45975e-06
8.45161e-08
7.81072e-06
1.01163e-06
1.27019e-05
1.19887e-06
1.63175e-05
1.56061e-06
1.85191e-05
-3.55849e-07
2.25096e-05
-3.02903e-06
2.11472e-05
-7.64078e-06
2.00129e-05
-1.03397e-05
2.04179e-05
-1.18138e-05
2.14344e-05
-1.17868e-05
2.31989e-05
-1.10584e-05
2.54587e-05
-8.4679e-06
2.72593e-05
-9.14991e-06
-5.79625e-07
4.74847e-06
-3.44384e-06
2.50829e-06
-1.87734e-06
-4.11666e-07
-6.15406e-07
9.45124e-07
1.97551e-07
1.88422e-06
5.08584e-07
3.17958e-06
3.81952e-07
4.51901e-06
9.32193e-07
6.54003e-06
9.83917e-07
9.65062e-06
1.47135e-06
1.16701e-05
2.80998e-06
1.64647e-05
2.03036e-06
1.89388e-05
8.64906e-07
2.04073e-05
-1.8601e-06
2.08278e-05
-4.55367e-06
2.07453e-05
-6.58419e-06
2.18441e-05
-7.49429e-06
2.25434e-05
-7.64613e-06
2.42415e-05
-6.9891e-06
2.54675e-05
-5.04165e-06
2.70975e-05
-5.94344e-06
2.61436e-06
-2.01626e-06
4.00761e-06
-2.12058e-06
1.98139e-07
-1.48876e-06
9.6752e-07
-8.16037e-07
1.98099e-06
2.7784e-07
2.07347e-06
1.60455e-06
2.01004e-06
3.51994e-06
1.46199e-06
5.59301e-06
1.63213e-06
7.56146e-06
2.23898e-06
1.13084e-05
1.64278e-06
1.30696e-05
1.1627e-06
1.55388e-05
-9.75748e-07
1.69952e-05
-2.56596e-06
1.78782e-05
-4.64236e-06
1.9314e-05
-5.21531e-06
2.04903e-05
-5.84072e-06
2.23205e-05
-5.37237e-06
2.29988e-05
-5.13386e-06
2.46584e-05
-3.7605e-06
2.45842e-05
-4.81686e-06
5.38689e-08
3.44362e-06
-1.67016e-06
1.89333e-06
-1.25381e-06
1.46023e-08
-2.21897e-06
2.68568e-06
-2.18274e-06
4.67249e-06
-2.67903e-06
6.61524e-06
-3.26033e-06
8.51266e-06
-3.39079e-06
1.0532e-05
-3.21645e-06
1.32028e-05
-3.07588e-06
1.45954e-05
-3.38997e-06
1.687e-05
-4.67004e-06
1.73667e-05
-6.19299e-06
1.77696e-05
-7.77951e-06
1.83612e-05
-8.5171e-06
1.93732e-05
-9.0356e-06
2.04393e-05
-8.79342e-06
2.14074e-05
-8.15306e-06
2.25725e-05
-6.76848e-06
2.40338e-05
-4.80282e-06
2.46965e-05
-4.83046e-06
1.97516e-06
-9.02571e-07
2.63931e-06
-6.93082e-07
-5.99318e-07
-6.9671e-07
-1.75055e-07
-1.5652e-07
1.20907e-06
2.60893e-07
2.25694e-06
3.59211e-07
3.54823e-06
4.56442e-07
5.2871e-06
7.81657e-07
7.39699e-06
1.1709e-06
9.02429e-06
4.95183e-07
1.05175e-05
-5.51351e-07
1.11285e-05
-2.82973e-06
1.13723e-05
-4.30742e-06
1.23811e-05
-5.39189e-06
1.36834e-05
-5.67751e-06
1.5398e-05
-5.80803e-06
1.68209e-05
-5.43191e-06
1.84943e-05
-5.03982e-06
1.97022e-05
-5.42177e-06
2.09896e-05
-3.34349e-06
2.14649e-05
2.99856e-07
2.43934e-06
-7.41659e-07
1.07833e-06
-9.55913e-08
-1.06845e-06
-1.42489e-07
-2.4084e-07
1.02486e-06
3.12714e-07
1.92397e-06
4.88918e-07
3.08019e-06
7.50522e-07
4.64341e-06
9.39724e-07
6.5797e-06
7.67428e-07
7.36782e-06
-6.11003e-08
8.49582e-06
-1.76079e-06
8.47028e-06
-3.69426e-06
8.83119e-06
-4.97737e-06
9.99e-06
-5.60017e-06
1.13734e-05
-5.78862e-06
1.31053e-05
-5.66585e-06
1.44966e-05
-5.33971e-06
1.61332e-05
-4.92973e-06
1.7173e-05
-5.63555e-06
1.83497e-05
-4.36839e-06
1.85942e-05
1.52492e-06
-3.92967e-07
1.88484e-06
-3.32472e-07
-3.53901e-07
-2.55485e-07
-9.65462e-07
5.5502e-07
-1.01693e-07
1.1478e-06
9.3208e-07
1.19201e-06
2.245e-06
1.05626e-06
3.75883e-06
1.09103e-06
5.09958e-06
4.73945e-07
6.32611e-06
-4.16187e-07
6.58789e-06
-1.87842e-06
7.27879e-06
-3.16528e-06
8.09618e-06
-4.00147e-06
9.50643e-06
-4.43312e-06
1.09816e-05
-4.59416e-06
1.26924e-05
-4.64285e-06
1.43046e-05
-4.5041e-06
1.58353e-05
-4.34078e-06
1.76107e-05
-5.01999e-06
1.84963e-05
-3.88188e-06
1.99635e-05
3.14963e-07
1.95853e-06
-4.20619e-07
9.2414e-07
2.96909e-08
-1.00059e-06
1.15335e-07
-1.39049e-06
1.79241e-06
-1.17533e-06
3.00944e-06
-1.23005e-06
4.00482e-06
-1.23937e-06
5.38585e-06
-1.30748e-06
5.99865e-06
-1.46573e-06
7.21009e-06
-1.90286e-06
7.71317e-06
-2.71976e-06
8.50432e-06
-3.44972e-06
9.17991e-06
-4.24965e-06
9.94137e-06
-4.80775e-06
1.06323e-05
-5.51032e-06
1.12465e-05
-6.13056e-06
1.18672e-05
-6.72824e-06
1.24182e-05
-7.16831e-06
1.34411e-05
-8.53403e-06
1.35387e-05
-7.8544e-06
1.46071e-05
1.30816e-06
-2.57294e-07
1.72504e-06
-2.79075e-07
1.54205e-07
-5.13356e-07
-5.3786e-07
-8.5219e-08
-3.80365e-08
8.80599e-07
2.64256e-07
1.54519e-06
3.32855e-07
2.37978e-06
2.53154e-07
3.08815e-06
4.41881e-07
4.05624e-06
3.27768e-07
4.88194e-06
-1.63887e-07
5.19725e-06
-6.73225e-07
6.06638e-06
-1.41787e-06
6.63827e-06
-1.89798e-06
7.57609e-06
-2.29463e-06
8.58343e-06
-2.57708e-06
9.72027e-06
-2.90083e-06
1.07148e-05
-2.76975e-06
1.18776e-05
-2.19046e-06
1.35144e-05
-1.20031e-06
1.49597e-05
-3.10204e-06
2.70017e-07
1.89583e-06
-5.29233e-07
1.07681e-06
-1.68948e-07
-5.02699e-08
-7.11156e-07
-2.89229e-08
3.8604e-08
6.8969e-07
2.70203e-07
1.19479e-06
2.31068e-07
1.58208e-06
3.38643e-07
2.20037e-06
7.13154e-08
2.48274e-06
-3.59187e-07
2.09384e-06
-1.35232e-06
2.25422e-06
-2.74857e-06
1.25885e-06
-4.29474e-06
1.01727e-06
-5.33242e-06
1.27006e-06
-6.09199e-06
1.9934e-06
-6.76619e-06
2.79188e-06
-7.45453e-06
3.56564e-06
-7.79893e-06
4.40202e-06
-7.71681e-06
5.77768e-06
-7.4401e-06
6.99146e-06
-8.59619e-06
1.12925e-06
-4.60081e-07
1.12426e-06
-5.58063e-07
3.65672e-07
-3.45559e-07
-2.10895e-07
-1.29566e-07
8.97969e-08
5.23531e-07
3.0879e-07
8.69276e-07
4.09661e-07
1.21834e-06
3.8761e-07
1.31529e-06
2.07281e-07
1.09469e-06
-4.76772e-07
7.27163e-07
-1.57284e-06
-3.45856e-07
-2.72705e-06
-7.27938e-07
-3.57197e-06
-6.26502e-07
-3.91425e-06
2.18592e-07
-4.10276e-06
1.1776e-06
-4.16149e-06
2.47672e-06
-4.33796e-06
3.66608e-06
-4.34702e-06
4.67504e-06
-4.58198e-06
5.75929e-06
-5.27637e-06
6.01895e-06
-6.83199e-06
1.11529e-06
1.46565e-06
5.65419e-08
1.03221e-06
-2.43648e-07
3.25032e-07
-5.40985e-07
5.64134e-08
-7.54645e-08
3.74147e-07
1.62209e-07
5.37477e-07
2.44e-07
5.86575e-07
2.04596e-07
4.61378e-07
-9.19674e-08
9.98658e-08
-6.3429e-07
-4.74396e-07
-1.31804e-06
-7.85855e-07
-1.93773e-06
-9.12036e-07
-2.33058e-06
-6.02434e-07
-2.6022e-06
-2.51477e-07
-2.8115e-06
3.69354e-07
-3.14514e-06
9.36329e-07
-3.50605e-06
1.66821e-06
-3.7028e-06
2.31153e-06
-3.59475e-06
3.46471e-06
-3.61643e-06
4.5642e-06
-4.66008e-06
1.56944e-06
1.4814e-06
1.73565e-06
2.5942e-07
1.03021e-06
-2.21439e-07
3.90561e-07
-3.70832e-07
2.6559e-07
-4.04782e-08
2.27973e-07
1.29862e-07
2.72982e-07
1.82669e-07
4.74468e-07
1.73111e-07
6.22881e-07
1.42224e-07
7.0671e-07
3.65706e-08
6.67683e-07
-7.86693e-08
6.34571e-07
-1.6751e-07
5.86128e-07
-2.50445e-07
5.66098e-07
-1.74966e-07
5.32235e-07
-7.89141e-08
4.6822e-07
2.12878e-07
3.84641e-07
4.8186e-07
4.47651e-07
8.86943e-07
5.43093e-07
1.25172e-06
1.94912e-07
1.86201e-06
-5.24332e-07
1.93657e-06
1.75423e-06
1.0617e-06
1.08563e-06
3.82322e-07
6.88813e-07
-2.53071e-07
3.59786e-07
-2.26737e-07
1.91648e-07
-8.57688e-08
-1.13943e-07
2.08704e-07
-4.56905e-07
6.51464e-07
-7.7396e-07
1.19796e-06
-9.65718e-07
1.79335e-06
-1.04927e-06
2.35512e-06
-1.27363e-06
2.79126e-06
-1.44889e-06
3.00062e-06
-1.89825e-06
2.86278e-06
-2.24228e-06
2.40821e-06
-2.82719e-06
1.60193e-06
-3.15102e-06
6.04675e-07
-3.65036e-06
-4.3609e-07
-4.02165e-06
-1.44161e-06
-4.55915e-06
-2.90751e-06
-5.03645e-06
-3.89166e-06
2.13074e-07
2.74726e-07
2.47624e-07
1.65933e-07
2.10952e-07
-3.79524e-09
1.13037e-07
-6.71565e-08
8.19923e-08
-1.18539e-07
-4.01024e-09
-1.96213e-07
-1.99537e-07
-2.70525e-07
-4.28912e-07
-3.13868e-07
-8.0603e-07
-2.52274e-07
-1.12619e-06
-3.13843e-08
-1.66007e-06
3.76917e-07
-2.15313e-06
1.03001e-06
-2.87205e-06
1.86846e-06
-3.62603e-06
2.87538e-06
-4.56701e-06
3.9343e-06
-5.69139e-06
4.98514e-06
-6.94356e-06
5.98837e-06
-8.52709e-06
6.79793e-06
-1.01278e-05
7.82175e-06
-1.18526e-05
7.57468e-06
-1.40572e-05
-0.0448926
-0.0471176
0.0456354
-0.0164541
0.0221471
0.00130377
-0.000790843
-0.00274175
0.0282733
-0.0177516
0.0289009
-0.02931
-0.0084353
0.00487474
-0.0059269
0.000279075
-0.0023758
-0.00499721
0.00153349
-0.00668938
0.004264
-0.000425136
9.48935e-05
-0.000537169
2.73099e-05
-0.00198156
0.00211632
-0.000310169
-6.39295e-06
0.000683438
0.000240103
0.00129148
-5.22833e-05
-0.000271282
0.000573119
-0.000161495
0.00020511
6.07319e-06
0.000614153
-0.000901152
6.63016e-05
0.000346613
-0.00058013
0.000171402
-0.000398579
-6.77565e-06
-7.82453e-05
-0.000222389
-0.000124622
-0.000118722
-7.51433e-05
-9.20447e-05
-6.78309e-05
-9.9008e-05
-0.000210303
6.10414e-05
-0.000128612
1.64041e-05
-0.000131039
1.13418e-05
-0.00018304
0.000106944
-3.07333e-05
-8.55218e-05
3.87519e-05
-0.000131372
0.000111512
-1.34797e-05
3.62722e-06
-2.48675e-05
4.96685e-05
-2.16508e-05
2.43906e-06
-1.03547e-05
-0.0106553
-0.00701369
0.0128093
0.00255797
0.0110671
0.00662988
0.00510135
0.00291217
0.00938963
0.000898487
0.0070818
-0.00325793
-0.00252923
0.00251019
-0.00180917
0.000213191
-0.000580751
-0.00128571
0.000421711
-0.00219664
0.000788184
-0.000940737
-0.000162125
-0.000826717
-0.000119557
-0.0009869
0.00018211
-0.000507882
-0.000535259
-0.00032082
-0.000460159
-0.00016247
-0.000311459
-0.000282154
-3.9954e-05
-0.000331321
-0.000109289
-0.000170004
-7.94806e-05
-0.000361092
-6.93786e-05
-3.93984e-05
-0.00021129
-3.82719e-05
-0.000157846
-2.86299e-05
-6.17374e-05
-5.21474e-05
-4.70574e-05
-3.9809e-05
-2.15207e-05
-3.46263e-05
-1.94119e-05
-3.0942e-05
-3.84498e-05
1.98874e-05
-3.39143e-05
1.96153e-05
-3.54196e-05
1.79096e-05
-3.07221e-05
3.99542e-05
2.97793e-06
-1.97677e-05
2.82109e-05
-1.65273e-05
4.25595e-05
1.1429e-05
1.13291e-05
4.80887e-06
2.99783e-05
2.62894e-06
7.24018e-06
-1.58932e-06
-0.00834512
-0.00410405
-0.000599409
-0.00392451
-0.00263016
-0.00363792
-0.00359354
-0.00340894
-0.00171779
-0.00319771
-0.000187431
-0.00281975
-0.00191327
-0.000184927
-0.00224401
-0.00046427
-0.000949237
-0.000601105
5.59342e-05
-0.00070534
0.000698934
0.000117456
0.000672089
0.000195121
0.000575406
-3.29101e-05
0.000668017
0.000664561
0.000543527
0.000624429
0.000410254
0.000501774
0.000289707
0.000250388
0.000409432
0.000152081
0.000256351
0.000165919
0.000173461
-3.30045e-05
9.73753e-05
8.78546e-05
-6.34727e-05
8.57836e-05
-8.38139e-05
2.23235e-06
-4.52685e-05
-5.23438e-05
-5.84352e-05
-5.95224e-05
-4.72139e-05
-5.33718e-05
-4.81645e-05
-6.06265e-05
-5.99274e-05
-1.52502e-05
-6.44558e-05
-1.55233e-05
-6.41101e-05
-1.76529e-05
-5.25179e-05
1.28454e-06
-3.29837e-05
-4.61296e-05
-9.42034e-07
-3.81112e-05
7.99051e-06
-2.42199e-05
-2.33761e-05
-1.91028e-05
8.81587e-06
-2.423e-05
-4.68758e-06
-8.22887e-06
-0.00491882
-0.00206698
0.00294506
0.00267835
0.00510777
0.00469632
0.00403619
0.00280475
0.00373413
0.00191982
0.00233822
0.000275868
-0.000362052
0.000923221
-0.000789664
-1.73848e-05
-0.00037522
-0.000570561
-2.18233e-05
-0.000921998
0.000226954
-0.000524931
6.92949e-05
-0.000355239
0.000178811
-0.000327517
0.000140998
-0.000168104
-0.000227919
-3.83308e-05
-0.000168197
-4.56665e-05
-8.10798e-05
-8.24895e-05
-6.95931e-05
-0.000211074
-4.13908e-05
-0.000138192
-0.000131595
-0.00018399
-4.58428e-05
-9.52788e-05
-0.000119536
-4.56664e-05
-0.000108524
-3.51648e-05
-6.2956e-05
-3.45061e-05
-4.29987e-05
-3.63839e-05
-2.47095e-05
-3.75297e-05
-2.58391e-05
-3.30287e-05
-2.46837e-05
-3.80771e-06
-2.59021e-05
6.46635e-06
-2.6203e-05
5.78564e-06
-1.71622e-05
1.27569e-05
-2.91307e-06
-1.39713e-05
1.68933e-05
-6.0761e-06
1.99111e-05
6.62933e-06
2.76005e-06
5.83656e-06
2.10586e-05
1.02195e-06
5.43947e-06
-2.11761e-06
-0.00190884
-0.000986724
-0.000910532
-0.0011541
-0.00138497
-0.00169742
-0.00180654
-0.00191093
-0.00199841
-0.00153366
-0.00107358
-0.000688016
-0.00060714
-0.000350179
-0.000880589
-0.000211977
-0.000401622
-4.60283e-05
-0.000114814
2.30217e-05
0.00015073
0.000178537
0.000380703
0.000163845
0.00028598
0.00014986
0.000381818
0.000469838
0.00039411
0.000380844
0.000281863
0.000267735
0.000217509
0.000201481
0.000220156
0.000113799
0.000243255
0.000141655
0.000114148
4.80567e-05
0.000126638
5.09739e-05
1.14429e-06
5.53535e-05
-2.99859e-05
4.63125e-06
-2.86292e-05
-2.35899e-05
-3.31775e-05
-3.46702e-05
-2.93269e-05
-3.86303e-05
-3.71341e-05
-4.45894e-05
-3.75941e-05
-2.29003e-05
-3.947e-05
-1.22817e-05
-3.95142e-05
-1.45861e-05
-3.2238e-05
-1.13841e-05
-2.62371e-05
-2.87387e-05
-1.76992e-06
-2.38973e-05
-4.58783e-06
-2.00268e-05
-1.95156e-05
-1.04114e-05
7.77701e-06
-2.38129e-05
-2.70461e-06
-8.14338e-06
-0.00115051
-0.000607715
0.000680054
0.00134159
0.00223865
0.00261244