/*--------------------------------*- C++ -*----------------------------------*\
| =========                 |                                                 |
| \\      /  F ield         | OpenFOAM: The Open Source CFD Toolbox           |
|  \\    /   O peration     | Version:  2312                                  |
|   \\  /    A nd           | Website:  www.openfoam.com                      |
|    \\/     M anipulation  |                                                 |
\*---------------------------------------------------------------------------*/
FoamFile
{
    version     2.0;
    format      ascii;
    arch        "LSB;label=32;scalar=64";
    class       volScalarField;
    location    "700";
    object      magR;
}
// * * * * * * * * * * * * * * * * * * * * * * * * * * * * * * * * * * * * * //

dimensions      [0 2 -2 0 0 0 0];

internalField   nonuniform List<scalar> 
11040
(
0.480542
0.527063
0.08067
0.056568
0.340537
0.347328
0.329016
0.299882
0.270052
0.251151
0.233765
0.218652
0.206332
0.197122
0.189822
0.186526
0.18695
0.191141
0.19857
0.209155
0.223284
0.240506
0.260779
0.284378
0.311277
0.342637
0.377645
0.411167
0.440047
0.460736
0.469472
0.463101
0.442752
0.414503
0.39012
0.304153
0.156956
0.095152
0.0390753
0.147585
0.280402
0.039119
0.0826433
0.282876
0.521695
0.996992
0.327014
0.10161
0.0340972
0.00820131
0.00803094
0.0177767
0.0232889
0.0268921
0.0295095
0.0312182
0.0329355
0.0351292
0.037623
0.0401253
0.0426649
0.0453119
0.0482133
0.050572
0.0515222
0.0507964
0.0493306
0.0477154
0.0447088
0.0403863
0.0354912
0.03171
0.0311664
0.031834
0.0357098
0.0436239
0.0558105
0.073271
0.0960178
0.150956
0.176979
0.662111
0.0240962
0.0216438
0.0492579
0.217359
1.16991
1.55911
0.798056
0.301759
0.141693
0.0845865
0.0474093
0.0267733
0.0127662
0.00357657
0.00466785
0.0090646
0.0122009
0.014571
0.0162952
0.0174699
0.0182419
0.0186202
0.0181506
0.0166477
0.0144278
0.0119157
0.00924831
0.0061021
0.00188567
0.00454086
0.0136759
0.0266945
0.0445146
0.0675163
0.0966088
0.133605
0.180511
0.234108
0.348196
0.45868
0.654053
0.0173134
0.0148592
0.0122497
0.0195826
0.281609
1.36158
2.01621
1.3397
0.557838
0.299811
0.178482
0.120031
0.0847415
0.0604672
0.0452156
0.0345188
0.0279368
0.0236938
0.0213531
0.0205286
0.0206902
0.0218142
0.0240657
0.0272534
0.030578
0.0333876
0.0351454
0.0354647
0.034439
0.0337508
0.0379402
0.05206
0.0775716
0.114941
0.164899
0.230205
0.314094
0.410746
0.583377
0.806727
0.72537
0.0129016
0.0116382
0.0124319
0.00611276
0.00854143
0.25287
1.30005
2.28486
1.94819
0.970659
0.515445
0.311361
0.216291
0.157006
0.122387
0.098075
0.0831865
0.07333
0.0674734
0.0646076
0.0635361
0.0638559
0.0656681
0.0688891
0.072503
0.0756886
0.0776909
0.0778491
0.0759862
0.073339
0.0742858
0.0870967
0.119086
0.172287
0.246766
0.345266
0.471941
0.621262
0.839662
1.18301
0.968882
0.00931157
0.00855106
0.0083397
0.00922353
0.00275597
0.00212754
0.172059
1.04545
2.33002
2.49684
1.60715
0.819832
0.509503
0.344019
0.255857
0.199369
0.165795
0.144113
0.13067
0.123466
0.119781
0.118581
0.119634
0.122872
0.126998
0.130927
0.133481
0.133421
0.129907
0.123562
0.118717
0.126733
0.162437
0.23193
0.334246
0.470728
0.645449
0.853642
1.1114
1.54895
1.32822
0.0067286
0.00643127
0.00603954
0.0064528
0.00663992
0.0012141
6.33254e-05
0.0811932
0.70469
2.04208
2.82332
2.35355
1.36444
0.778487
0.524395
0.387029
0.304242
0.252603
0.220739
0.203316
0.1938
0.189747
0.189772
0.193418
0.198736
0.204128
0.207794
0.207648
0.201809
0.189851
0.175211
0.171007
0.201886
0.2838
0.414641
0.59155
0.816279
1.08307
1.37896
1.87
1.72571
0.00491182
0.00480358
0.00473092
0.00454766
0.00493712
0.00514652
0.000206227
3.62499e-06
0.0254664
0.381799
1.481
2.76746
2.96882
2.15286
1.24271
0.782201
0.561319
0.440626
0.365336
0.321015
0.295909
0.284889
0.282072
0.285853
0.292921
0.30075
0.306589
0.307141
0.298854
0.279721
0.250878
0.22367
0.231424
0.312376
0.467289
0.683299
0.955496
1.27369
1.60659
2.09819
2.07262
0.00362884
0.00357818
0.0035856
0.00355585
0.00341859
0.00387946
0.00367852
0.000455852
0.000477312
0.00118049
0.147965
0.856341
2.21112
3.18455
2.95781
2.01958
1.21263
0.817737
0.62053
0.512173
0.449159
0.419023
0.407456
0.408958
0.417385
0.427915
0.436477
0.438574
0.428929
0.402702
0.357265
0.297352
0.252927
0.29758
0.461739
0.710708
1.02295
1.37981
1.7405
2.19129
2.27433
0.00269573
0.0026723
0.00269213
0.00272173
0.00269886
0.00261822
0.00295754
0.00262312
0.000798953
0.000120143
0.0023151
0.0338292
0.374176
1.38622
2.76831
3.40932
2.93664
1.98752
1.2529
0.888409
0.711562
0.62618
0.587182
0.57665
0.582358
0.595911
0.609753
0.615689
0.605965
0.573803
0.51315
0.419933
0.302929
0.232117
0.358462
0.63025
0.972693
1.3528
1.72436
2.11253
2.26164
0.0020112
0.00200039
0.00202082
0.00205285
0.00208224
0.00206266
0.00203729
0.00218527
0.00215097
0.00108887
7.52762e-05
0.000438013
0.000516534
0.102335
0.637265
1.83123
3.13113
3.55152
2.98295
2.06367
1.36633
1.02712
0.885797
0.828278
0.811249
0.81719
0.832791
0.845293
0.843073
0.814514
0.748195
0.6343
0.467649
0.250974
0.113683
0.401071
0.768638
1.15806
1.52083
1.837
2.0009
0.00150352
0.00149924
0.00151398
0.00154306
0.00157366
0.00159799
0.00159292
0.00157874
0.00163581
0.00169193
0.0012389
2.84169e-05
2.63324e-05
0.00173474
0.0135452
0.19275
0.866439
2.12829
3.34745
3.68849
3.13418
2.30188
1.67175
1.33145
1.18676
1.14408
1.14267
1.15115
1.15292
1.13312
1.07783
0.974232
0.814016
0.597148
0.346765
0.247959
0.51473
0.868211
1.19022
1.42573
1.54564
0.00112462
0.00112381
0.00113373
0.00115602
0.00118374
0.00121016
0.00123111
0.00123671
0.00122887
0.00124435
0.00131803
0.00112859
0.000245253
2.54855e-05
0.000189692
0.00366019
0.027493
0.260975
0.991728
2.25285
3.45295
3.86575
3.52452
2.90479
2.32672
1.92294
1.70007
1.60837
1.58542
1.57603
1.54478
1.4733
1.35562
1.19899
1.02914
0.898971
0.882058
0.996254
1.16176
1.27171
1.26283
0.000840518
0.000841572
0.000847985
0.000864093
0.000886553
0.000910478
0.000932811
0.000951786
0.000962434
0.000960606
0.000962302
0.00101747
0.000977373
0.000536523
4.75763e-06
3.34899e-06
0.000452184
0.00551614
0.0368429
0.279702
0.988845
2.15238
3.30495
3.98256
4.08009
3.80747
3.39757
2.98795
2.64864
2.40462
2.24879
2.15334
2.0841
2.01789
1.95318
1.90314
1.88748
1.91412
1.97357
2.01964
1.90864
0.0006268
0.000628794
0.000632916
0.000644351
0.000661552
0.000681268
0.000701388
0.000720475
0.000737464
0.000750025
0.000752927
0.000755116
0.000783301
0.000788896
0.00068253
0.000180068
2.15864e-05
3.17185e-07
0.000758404
0.00560661
0.0334537
0.22586
0.73161
1.59545
2.64921
3.60703
4.25638
4.55495
4.58404
4.44196
4.19823
3.90451
3.60941
3.35832
3.1852
3.10527
3.11619
3.18846
3.28697
3.38892
3.31834
0.000465871
0.000468126
0.000470778
0.000478808
0.000491629
0.000507
0.000523495
0.000540325
0.000556629
0.000571531
0.000583895
0.000590554
0.000595635
0.000603208
0.000632457
0.000589819
0.000449699
2.75925e-05
7.21132e-06
6.92419e-08
0.000838887
0.00367523
0.0116499
0.0909413
0.32745
0.800921
1.52138
2.40948
3.33145
4.16223
4.82424
5.28703
5.55411
5.65127
5.62202
5.51544
5.38167
5.25429
5.16626
5.16224
5.07334
0.000345719
0.00034781
0.000349577
0.000355251
0.000364683
0.000376277
0.000389127
0.00040273
0.000416603
0.000430134
0.000442779
0.000453892
0.000462608
0.000467952
0.000475325
0.000487463
0.00050378
0.00044138
0.000262653
6.418e-06
3.87612e-06
4.97472e-08
0.000250667
0.00181204
4.54546e-05
0.0116407
0.064431
0.206532
0.489617
0.944231
1.57163
2.33994
3.19409
4.07217
4.9147
5.66664
6.29405
6.77936
7.13275
7.41621
7.50239
0.000259035
0.000260877
0.000262213
0.000266443
0.000273549
0.000282389
0.000292347
0.000303115
0.000314355
0.000325702
0.000336772
0.00034725
0.000356861
0.000365196
0.00037142
0.000377121
0.000384296
0.000399958
0.000401704
0.000344268
0.00018385
4.70896e-06
3.32618e-06
2.00817e-07
6.21463e-07
0.000263951
0.00141582
0.00234531
0.000763014
0.0105508
0.0497149
0.145253
0.325995
0.620654
1.04774
1.61004
2.29519
3.08349
3.93624
4.83536
5.64799
0.000197719
0.000199335
0.000200423
0.000203701
0.000209191
0.00021606
0.000223889
0.000232501
0.000241665
0.000251098
0.000260539
0.00026974
0.000278497
0.00028668
0.000294013
0.000300379
0.000305179
0.000311054
0.000319156
0.000329839
0.000325982
0.000272795
0.000181092
1.9281e-05
4.66384e-06
1.11622e-06
1.03873e-07
0
9.37236e-06
0.000211024
0.00109823
0.00169689
0.00163557
0.00167102
0.00996893
0.0384591
0.102222
0.219647
0.407885
0.683581
1.05151
0.00015369
0.000155055
0.000155953
0.000158541
0.00016284
0.000168233
0.000174424
0.000181296
0.000188699
0.000196434
0.000204323
0.000212206
0.000219915
0.000227303
0.000234247
0.000240667
0.000246387
0.000251299
0.000255608
0.000261133
0.000268776
0.000275301
0.000273863
0.000241922
0.000181328
0.000110984
1.12412e-05
3.23414e-06
9.50742e-07
5.13157e-07
3.4847e-08
0
0
2.82584e-05
0.000205549
0.00085828
0.00143783
0.00118012
0.000681322
2.15176e-05
0.00700084
0.000121084
0.000122212
0.000122965
0.000125036
0.000128443
0.00013272
0.000137657
0.000143166
0.000149139
0.000155436
0.000161926
0.000168505
0.000175062
0.000181482
0.000187664
0.000193517
0.000198988
0.000204001
0.000208451
0.000212379
0.000216121
0.000221044
0.000226587
0.000233571
0.000233168
0.000225916
0.000200556
0.000158745
0.000110266
6.24749e-05
4.59117e-06
1.94988e-06
7.31674e-07
4.79213e-07
2.56535e-07
3.82701e-08
0
0
0
1.47516e-07
0.000118723
9.64272e-05
9.73524e-05
9.79945e-05
9.9674e-05
0.0001024
0.000105824
0.000109788
0.000114228
0.00011906
0.000124181
0.000129493
0.000134921
0.000140388
0.000145807
0.000151104
0.000156211
0.00016107
0.000165633
0.000169866
0.000173745
0.00017712
0.000180166
0.000183083
0.000186694
0.000190978
0.000195057
0.00019971
0.000200297
0.000195097
0.0001857
0.000165949
0.000138037
0.000105193
7.11767e-05
4.01284e-05
6.42289e-06
1.71372e-06
5.53095e-07
4.31622e-07
3.08612e-07
1.92733e-07
7.74497e-05
7.82049e-05
7.87589e-05
8.01331e-05
8.23306e-05
8.50896e-05
8.82918e-05
9.18845e-05
9.58026e-05
9.99672e-05
0.000104304
0.000108758
0.00011327
0.000117778
0.00012222
0.000126548
0.000130713
0.000134674
0.000138395
0.000141871
0.000145009
0.000147782
0.000150243
0.000152372
0.000154426
0.000156495
0.000159005
0.00016196
0.000164966
0.000167433
0.000169983
0.000170208
0.000167515
0.000161668
0.000153461
0.000140715
0.000124059
0.000104511
8.46188e-05
6.28845e-05
4.14769e-05
6.2641e-05
6.32563e-05
6.37389e-05
6.48719e-05
6.66552e-05
6.88917e-05
7.14911e-05
7.44098e-05
7.75949e-05
8.09856e-05
8.45238e-05
8.81649e-05
9.18672e-05
9.55798e-05
9.9256e-05
0.000102856
0.000106343
0.000109681
0.000112839
0.000115809
0.000118513
0.000120934
0.000123115
0.00012499
0.000126586
0.000127953
0.000129134
0.000130233
0.000131375
0.000132559
0.000133935
0.00013546
0.000136971
0.000138305
0.00013926
0.000140123
0.000140157
0.000138992
0.000136632
0.00013266
0.000128452
5.09518e-05
5.14534e-05
5.18767e-05
5.28166e-05
5.42714e-05
5.60932e-05
5.82121e-05
6.05906e-05
6.31856e-05
6.59488e-05
6.88341e-05
7.18061e-05
7.4832e-05
7.78718e-05
8.08881e-05
8.38485e-05
8.67228e-05
8.94825e-05
9.21005e-05
9.45674e-05
9.68154e-05
9.88313e-05
0.000100648
0.000102218
0.000103553
0.00010468
0.000105607
0.000106341
0.000106903
0.000107322
0.000107622
0.000107846
0.000108029
0.00010821
0.000108385
0.000108585
0.000108792
0.000108999
0.000109205
0.000109206
0.000109494
4.16377e-05
4.20473e-05
4.24207e-05
4.32049e-05
4.43977e-05
4.58883e-05
4.76218e-05
4.95658e-05
5.16846e-05
5.39389e-05
5.62922e-05
5.87158e-05
6.11823e-05
6.36604e-05
6.61198e-05
6.85339e-05
7.08783e-05
7.31291e-05
7.52634e-05
7.72727e-05
7.90985e-05
8.07316e-05
8.2201e-05
8.34627e-05
8.45254e-05
8.54107e-05
8.61307e-05
8.66919e-05
8.71009e-05
8.73672e-05
8.74986e-05
8.75052e-05
8.73944e-05
8.71834e-05
8.68904e-05
8.65222e-05
8.60841e-05
8.56e-05
8.51168e-05
8.45472e-05
8.42213e-05
3.4157e-05
3.44931e-05
3.48239e-05
3.54816e-05
3.64643e-05
3.76893e-05
3.91123e-05
4.07054e-05
4.24385e-05
4.42798e-05
4.61996e-05
4.81743e-05
5.0181e-05
5.2195e-05
5.41914e-05
5.61482e-05
5.80452e-05
5.9863e-05
6.15821e-05
6.31952e-05
6.46529e-05
6.595e-05
6.71136e-05
6.81045e-05
6.89282e-05
6.9602e-05
7.01361e-05
7.05372e-05
7.08131e-05
7.09724e-05
7.10234e-05
7.09748e-05
7.0831e-05
7.06022e-05
7.02992e-05
6.99256e-05
6.94812e-05
6.89764e-05
6.84471e-05
6.78118e-05
6.74002e-05
2.8109e-05
2.83861e-05
2.86807e-05
2.92357e-05
3.00495e-05
3.10604e-05
3.22326e-05
3.35416e-05
3.49619e-05
3.64678e-05
3.80347e-05
3.96429e-05
4.12738e-05
4.29069e-05
4.45218e-05
4.61005e-05
4.76264e-05
4.90834e-05
5.04554e-05
5.17363e-05
5.28849e-05
5.38993e-05
5.48052e-05
5.55689e-05
5.6194e-05
5.66945e-05
5.70796e-05
5.73547e-05
5.75266e-05
5.76028e-05
5.7591e-05
5.74991e-05
5.73319e-05
5.70985e-05
5.68081e-05
5.64643e-05
5.60674e-05
5.56256e-05
5.51672e-05
5.46244e-05
5.42731e-05
2.31915e-05
2.3422e-05
2.36858e-05
2.41571e-05
2.48347e-05
2.56728e-05
2.66417e-05
2.77201e-05
2.88864e-05
3.01195e-05
3.1399e-05
3.27085e-05
3.40328e-05
3.53547e-05
3.66575e-05
3.79265e-05
3.91481e-05
4.03088e-05
4.13958e-05
4.24041e-05
4.32996e-05
4.40831e-05
4.47786e-05
4.53577e-05
4.58229e-05
4.61861e-05
4.6455e-05
4.66343e-05
4.67297e-05
4.67477e-05
4.66949e-05
4.6578e-05
4.64012e-05
4.6172e-05
4.58981e-05
4.55828e-05
4.52266e-05
4.48362e-05
4.44335e-05
4.39689e-05
4.36501e-05
1.91739e-05
1.93677e-05
1.96058e-05
2.0009e-05
2.05765e-05
2.12746e-05
2.20785e-05
2.29694e-05
2.39293e-05
2.49403e-05
2.5986e-05
2.70523e-05
2.8127e-05
2.91955e-05
3.02442e-05
3.12611e-05
3.22351e-05
3.31554e-05
3.40113e-05
3.47991e-05
3.54909e-05
3.60892e-05
3.66166e-05
3.70491e-05
3.73885e-05
3.76452e-05
3.78258e-05
3.79344e-05
3.79756e-05
3.7955e-05
3.78781e-05
3.77506e-05
3.75761e-05
3.73606e-05
3.71104e-05
3.68281e-05
3.65144e-05
3.61747e-05
3.58251e-05
3.54319e-05
3.51419e-05
1.5878e-05
1.60436e-05
1.626e-05
1.66076e-05
1.70863e-05
1.76707e-05
1.83405e-05
1.90789e-05
1.98706e-05
2.07012e-05
2.15566e-05
2.24253e-05
2.3297e-05
2.416e-05
2.50028e-05
2.58157e-05
2.65899e-05
2.73165e-05
2.79868e-05
2.85984e-05
2.91284e-05
2.95805e-05
2.99755e-05
3.02937e-05
3.05362e-05
3.0712e-05
3.08268e-05
3.08843e-05
3.08882e-05
3.08433e-05
3.07541e-05
3.06252e-05
3.04596e-05
3.02623e-05
3.0038e-05
2.97892e-05
2.95163e-05
2.9224e-05
2.89232e-05
2.85945e-05
2.83303e-05
1.31647e-05
1.3309e-05
1.35073e-05
1.38097e-05
1.42161e-05
1.47083e-05
1.52687e-05
1.58829e-05
1.65379e-05
1.72216e-05
1.79225e-05
1.86307e-05
1.93378e-05
2.00344e-05
2.07109e-05
2.13595e-05
2.19731e-05
2.25448e-05
2.30676e-05
2.35399e-05
2.39431e-05
2.42816e-05
2.45744e-05
2.4805e-05
2.49745e-05
2.50906e-05
2.51582e-05
2.51801e-05
2.51598e-05
2.5101e-05
2.50075e-05
2.48831e-05
2.47302e-05
2.45527e-05
2.43547e-05
2.41377e-05
2.39025e-05
2.36528e-05
2.33956e-05
2.31232e-05
2.28802e-05
1.09247e-05
1.10532e-05
1.12362e-05
1.15016e-05
1.18494e-05
1.22664e-05
1.27377e-05
1.32507e-05
1.37943e-05
1.43586e-05
1.4934e-05
1.55122e-05
1.60861e-05
1.66483e-05
1.71909e-05
1.77076e-05
1.81928e-05
1.86412e-05
1.90472e-05
1.94098e-05
1.97143e-05
1.9965e-05
2.01791e-05
2.03431e-05
2.04579e-05
2.05299e-05
2.05635e-05
2.05611e-05
2.05255e-05
2.04598e-05
2.0367e-05
2.02503e-05
2.01117e-05
1.99543e-05
1.97811e-05
1.95935e-05
1.93921e-05
1.91801e-05
1.89612e-05
1.87373e-05
1.8513e-05
9.07088e-06
9.18786e-06
9.35811e-06
9.59302e-06
9.8932e-06
1.02488e-05
1.06474e-05
1.1078e-05
1.15311e-05
1.19984e-05
1.2472e-05
1.29449e-05
1.34113e-05
1.38653e-05
1.43005e-05
1.47118e-05
1.50949e-05
1.54458e-05
1.57603e-05
1.60377e-05
1.62665e-05
1.64507e-05
1.66059e-05
1.67207e-05
1.6796e-05
1.68374e-05
1.68483e-05
1.6831e-05
1.67876e-05
1.67207e-05
1.66328e-05
1.65263e-05
1.64029e-05
1.6265e-05
1.6115e-05
1.5954e-05
1.57826e-05
1.56034e-05
1.54175e-05
1.52349e-05
1.50256e-05
7.53377e-06
7.64257e-06
7.80175e-06
8.01165e-06
8.27294e-06
8.57854e-06
8.91784e-06
9.28121e-06
9.66074e-06
1.00493e-05
1.04404e-05
1.08283e-05
1.1208e-05
1.1575e-05
1.19243e-05
1.22514e-05
1.25535e-05
1.28274e-05
1.30699e-05
1.32806e-05
1.34507e-05
1.35838e-05
1.36937e-05
1.37712e-05
1.3817e-05
1.38358e-05
1.38307e-05
1.38035e-05
1.3756e-05
1.36903e-05
1.36084e-05
1.35122e-05
1.34032e-05
1.32831e-05
1.31539e-05
1.30165e-05
1.28711e-05
1.27204e-05
1.25632e-05
1.24153e-05
1.22215e-05
6.25731e-06
6.36037e-06
6.51e-06
6.69913e-06
6.92865e-06
7.19339e-06
7.48427e-06
7.79292e-06
8.11259e-06
8.43734e-06
8.76172e-06
9.08097e-06
9.39109e-06
9.68848e-06
9.96921e-06
1.023e-05
1.04684e-05
1.06824e-05
1.08698e-05
1.10304e-05
1.11572e-05
1.12535e-05
1.13315e-05
1.13835e-05
1.14101e-05
1.14153e-05
1.14017e-05
1.13708e-05
1.13238e-05
1.12627e-05
1.1189e-05
1.11042e-05
1.10094e-05
1.09061e-05
1.07958e-05
1.06792e-05
1.05565e-05
1.04299e-05
1.02971e-05
1.01783e-05
9.99567e-06
5.19621e-06
5.2953e-06
5.43642e-06
5.60828e-06
5.81174e-06
6.04299e-06
6.29428e-06
6.55829e-06
6.82927e-06
7.1022e-06
7.37258e-06
7.63646e-06
7.89059e-06
8.13211e-06
8.35802e-06
8.56564e-06
8.75335e-06
8.91961e-06
9.06283e-06
9.18317e-06
9.2753e-06
9.34201e-06
9.3941e-06
9.42528e-06
9.43624e-06
9.43032e-06
9.40974e-06
9.37575e-06
9.32954e-06
9.27247e-06
9.20586e-06
9.13091e-06
9.04853e-06
8.95979e-06
8.86586e-06
8.76716e-06
8.66408e-06
8.55835e-06
8.44699e-06
8.35168e-06
8.18542e-06
4.31366e-06
4.40992e-06
4.54344e-06
4.70082e-06
4.8828e-06
5.08652e-06
5.30522e-06
5.53263e-06
5.76382e-06
5.99461e-06
6.22121e-06
6.4405e-06
6.64981e-06
6.84712e-06
7.03017e-06
7.19697e-06
7.34641e-06
7.47759e-06
7.58947e-06
7.68237e-06
7.75219e-06
7.80104e-06
7.83833e-06
7.85879e-06
7.86293e-06
7.85359e-06
7.83256e-06
7.80084e-06
7.75938e-06
7.7093e-06
7.65164e-06
7.58737e-06
7.51726e-06
7.44211e-06
7.36291e-06
7.28e-06
7.19367e-06
7.10547e-06
7.0117e-06
6.93719e-06
6.77816e-06
3.57966e-06
3.67367e-06
3.80019e-06
3.9454e-06
4.10964e-06
4.2905e-06
4.48217e-06
4.67927e-06
4.87768e-06
5.07394e-06
5.2649e-06
5.44799e-06
5.62096e-06
5.78218e-06
5.9299e-06
6.06259e-06
6.17948e-06
6.2801e-06
6.36384e-06
6.43112e-06
6.47906e-06
6.50966e-06
6.53111e-06
6.53916e-06
6.53438e-06
6.51918e-06
6.49513e-06
6.46306e-06
6.42376e-06
6.37811e-06
6.32693e-06
6.27095e-06
6.21078e-06
6.14702e-06
6.08036e-06
6.01098e-06
5.93928e-06
5.86629e-06
5.78888e-06
5.72846e-06
5.59157e-06
2.9693e-06
3.06136e-06
3.18138e-06
3.31607e-06
3.46532e-06
3.62697e-06
3.79595e-06
3.96769e-06
4.13881e-06
4.30654e-06
4.46846e-06
4.62253e-06
4.76714e-06
4.90125e-06
5.02385e-06
5.13376e-06
5.23055e-06
5.31395e-06
5.38353e-06
5.43965e-06
5.48007e-06
5.5058e-06
5.524e-06
5.53103e-06
5.52735e-06
5.51497e-06
5.49517e-06
5.46865e-06
5.43606e-06
5.39814e-06
5.35561e-06
5.30909e-06
5.25911e-06
5.20615e-06
5.15088e-06
5.09351e-06
5.03423e-06
4.97415e-06
4.90932e-06
4.86523e-06
4.7286e-06
2.46192e-06
2.55251e-06
2.66672e-06
2.79211e-06
2.92794e-06
3.07253e-06
3.22183e-06
3.37208e-06
3.52039e-06
3.66442e-06
3.80219e-06
3.93206e-06
4.0525e-06
4.16206e-06
4.25958e-06
4.3444e-06
4.41664e-06
4.47663e-06
4.52458e-06
4.56094e-06
4.58443e-06
4.59652e-06
4.60306e-06
4.60118e-06
4.59134e-06
4.57521e-06
4.55387e-06
4.52786e-06
4.49766e-06
4.46383e-06
4.42686e-06
4.3872e-06
4.3452e-06
4.3012e-06
4.2556e-06
4.20841e-06
4.16012e-06
4.11095e-06
4.05923e-06
4.01971e-06
3.91846e-06
2.04164e-06
2.13117e-06
2.24045e-06
2.35762e-06
2.48103e-06
2.60947e-06
2.74035e-06
2.87122e-06
3.00003e-06
3.1247e-06
3.24335e-06
3.35472e-06
3.45848e-06
3.55499e-06
3.64415e-06
3.72448e-06
3.79474e-06
3.85447e-06
3.90356e-06
3.94255e-06
3.97034e-06
3.98704e-06
3.99827e-06
4.00163e-06
3.99761e-06
3.98765e-06
3.97274e-06
3.95337e-06
3.93007e-06
3.90337e-06
3.87379e-06
3.84182e-06
3.8078e-06
3.77209e-06
3.73517e-06
3.69722e-06
3.65832e-06
3.61938e-06
3.57637e-06
3.55468e-06
3.43665e-06
1.69723e-06
1.78456e-06
1.88804e-06
1.997e-06
2.10893e-06
2.22272e-06
2.33654e-06
2.44902e-06
2.55935e-06
2.66661e-06
2.76918e-06
2.86455e-06
2.94977e-06
3.02239e-06
3.08205e-06
3.13118e-06
3.17249e-06
3.20683e-06
3.23424e-06
3.2545e-06
3.26698e-06
3.27283e-06
3.27546e-06
3.27293e-06
3.26552e-06
3.2543e-06
3.23998e-06
3.22286e-06
3.20325e-06
3.18145e-06
3.15776e-06
3.13241e-06
3.10563e-06
3.07759e-06
3.0485e-06
3.01822e-06
2.98751e-06
2.95548e-06
2.9236e-06
2.89288e-06
2.83773e-06
1.41686e-06
1.49975e-06
1.59404e-06
1.69135e-06
1.79018e-06
1.89048e-06
1.99079e-06
2.08912e-06
2.1839e-06
2.27454e-06
2.36173e-06
2.44732e-06
2.53317e-06
2.62009e-06
2.70559e-06
2.78272e-06
2.84678e-06
2.89859e-06
2.93979e-06
2.97212e-06
2.9953e-06
3.00902e-06
3.018e-06
3.02088e-06
3.0183e-06
3.01142e-06
3.00101e-06
2.98756e-06
2.97153e-06
2.95339e-06
2.9336e-06
2.91258e-06
2.8906e-06
2.86797e-06
2.84509e-06
2.82225e-06
2.79921e-06
2.77732e-06
2.75113e-06
2.7506e-06
2.64074e-06
1.18318e-06
1.26365e-06
1.34879e-06
1.4316e-06
1.5126e-06
1.59475e-06
1.67942e-06
1.7663e-06
1.8534e-06
1.93681e-06
2.01137e-06
2.07214e-06
2.1164e-06
2.14465e-06
2.16258e-06
2.18188e-06
2.20784e-06
2.23579e-06
2.26214e-06
2.28472e-06
2.30297e-06
2.31764e-06
2.32975e-06
2.33808e-06
2.34272e-06
2.34433e-06
2.34336e-06
2.34003e-06
2.33452e-06
2.32703e-06
2.31775e-06
2.3068e-06
2.29436e-06
2.28047e-06
2.26528e-06
2.2485e-06
2.23121e-06
2.21111e-06
2.19458e-06
2.16083e-06
2.16524e-06
9.86536e-07
1.07381e-06
1.16012e-06
1.23638e-06
1.30249e-06
1.36266e-06
1.42082e-06
1.48057e-06
1.54559e-06
1.61937e-06
1.70462e-06
1.80247e-06
1.91112e-06
2.0263e-06
2.13847e-06
2.22832e-06
2.28979e-06
2.33512e-06
2.36957e-06
2.3957e-06
2.4131e-06
2.42236e-06
2.42693e-06
2.42642e-06
2.4217e-06
2.41376e-06
2.40331e-06
2.39091e-06
2.37707e-06
2.36231e-06
2.34709e-06
2.33187e-06
2.31694e-06
2.30262e-06
2.28934e-06
2.27762e-06
2.2667e-06
2.25924e-06
2.24595e-06
2.27027e-06
2.15041e-06
8.43551e-07
9.2897e-07
1.01269e-06
1.08949e-06
1.15747e-06
1.21642e-06
1.26523e-06
1.30292e-06
1.32969e-06
1.34702e-06
1.35731e-06
1.36332e-06
1.36784e-06
1.37142e-06
1.37651e-06
1.39922e-06
1.4402e-06
1.48561e-06
1.53089e-06
1.57318e-06
1.61181e-06
1.64686e-06
1.67885e-06
1.70741e-06
1.73235e-06
1.75388e-06
1.77226e-06
1.78756e-06
1.79981e-06
1.80904e-06
1.81529e-06
1.81852e-06
1.81878e-06
1.81591e-06
1.81e-06
1.80063e-06
1.789e-06
1.77137e-06
1.7588e-06
1.70897e-06
1.75787e-06
9.11627e-07
1.02162e-06
1.07929e-06
1.08869e-06
1.07258e-06
1.06204e-06
1.08384e-06
1.14954e-06
1.25312e-06
1.37867e-06
1.50945e-06
1.63264e-06
1.74008e-06
1.82938e-06
1.89826e-06
1.93026e-06
1.92926e-06
1.91325e-06
1.89056e-06
1.86444e-06
1.8336e-06
1.80528e-06
1.77472e-06
1.74351e-06
1.71248e-06
1.68183e-06
1.65167e-06
1.62211e-06
1.59322e-06
1.56503e-06
1.53748e-06
1.51053e-06
1.48394e-06
1.45755e-06
1.43141e-06
1.40583e-06
1.37931e-06
1.35458e-06
1.32192e-06
1.32308e-06
1.19013e-06
8.30015
9.41475
8.28724
6.50464
4.64219
3.07831
1.89878
1.04564
0.458078
0.125506
0.0412061
0.00554961
0.000500995
1.4118e-05
0.000218503
0.0002666
0.00021714
0.000188093
0.000166611
0.000145672
0.00012748
0.000110816
9.62936e-05
8.3439e-05
7.22318e-05
6.23456e-05
5.38684e-05
4.62976e-05
3.97269e-05
3.3995e-05
2.89648e-05
2.46381e-05
2.08544e-05
1.76077e-05
1.48452e-05
1.24637e-05
1.04495e-05
8.73354e-06
7.30046e-06
6.07543e-06
5.05869e-06
4.21773e-06
3.51579e-06
2.93638e-06
2.46173e-06
2.07403e-06
1.75886e-06
1.50307e-06
1.29357e-06
1.12425e-06
9.85431e-07
8.71152e-07
7.75884e-07
6.95142e-07
6.24656e-07
5.60074e-07
5.0418e-07
4.48656e-07
3.99168e-07
3.48858e-07
3.04672e-07
2.57185e-07
2.21186e-07
1.91051e-07
1.68294e-07
1.67646e-07
1.74562e-07
1.93064e-07
2.34421e-07
2.42891e-07
3.17776e-07
2.85682e-07
4.28924e-07
3.48378e-07
7.93255
12.7253
12.1426
9.9339
7.47584
5.29381
3.55523
2.22854
1.23465
0.532535
0.136637
0.0392628
0.0036559
0.00026764
1.61823e-05
0.000198018
0.000238062
0.000192497
0.00016684
0.00014713
0.00012886
0.00011197
9.73346e-05
8.43335e-05
7.29924e-05
6.29559e-05
5.43608e-05
4.67178e-05
4.0055e-05
3.42623e-05
2.91774e-05
2.48074e-05
2.0995e-05
1.77124e-05
1.49253e-05
1.25226e-05
1.04887e-05
8.75642e-06
7.31141e-06
6.07503e-06
5.04227e-06
4.19598e-06
3.4863e-06
2.89858e-06
2.41933e-06
2.02664e-06
1.70865e-06
1.44995e-06
1.23913e-06
1.0687e-06
9.29379e-07
8.1571e-07
7.21109e-07
6.42147e-07
5.72346e-07
5.09793e-07
4.57278e-07
4.04197e-07
3.58746e-07
3.11986e-07
2.72936e-07
2.3007e-07
2.02501e-07
1.81238e-07
1.67225e-07
1.7538e-07
1.87493e-07
2.07923e-07
2.49146e-07
2.55599e-07
3.28924e-07
2.90291e-07
4.35816e-07
3.4592e-07
5.49307
12.422
14.2972
12.8846
10.402
7.86901
5.67294
3.8904
2.47494
1.3754
0.586876
0.146907
0.0367516
0.00239992
0.000218948
1.44599e-05
0.000156772
0.000215952
0.000172935
0.000146965
0.000130361
0.000113859
9.87546e-05
8.55162e-05
7.40124e-05
6.38352e-05
5.50108e-05
4.72843e-05
4.04992e-05
3.45978e-05
2.94458e-05
2.49932e-05
2.11494e-05
1.78228e-05
1.49919e-05
1.25678e-05
1.0507e-05
8.75726e-06
7.29415e-06
6.05065e-06
5.00106e-06
4.14668e-06
3.4304e-06
2.83538e-06
2.35156e-06
1.95481e-06
1.63466e-06
1.37416e-06
1.16299e-06
9.92476e-07
8.54269e-07
7.42088e-07
6.49618e-07
5.73207e-07
5.05152e-07
4.47877e-07
3.9836e-07
3.50401e-07
3.09099e-07
2.69025e-07
2.34654e-07
2.03373e-07
1.8424e-07
1.72702e-07
1.7122e-07
1.8402e-07
2.04941e-07
2.2436e-07
2.64847e-07
2.68538e-07
3.40646e-07
2.94744e-07
4.41795e-07
3.43032e-07
3.86244
10.6953
14.5807
14.7625
12.9805
10.5502
8.13997
6.0084
4.20497
2.70876
1.51281
0.648128
0.164768
0.0354666
0.00209667
0.000416665
1.11045e-05
9.64103e-05
0.0001963
0.000161084
0.000129498
0.000113974
0.000100358
8.69063e-05
7.50265e-05
6.46944e-05
5.56807e-05
4.78319e-05
4.09302e-05
3.49263e-05
2.96992e-05
2.51704e-05
2.12793e-05
1.79101e-05
1.50394e-05
1.25917e-05
1.05075e-05
8.74142e-06
7.2617e-06
6.0095e-06
4.94857e-06
4.08572e-06
3.36346e-06
2.76325e-06
2.27589e-06
1.8761e-06
1.55467e-06
1.29331e-06
1.08224e-06
9.12604e-07
7.76043e-07
6.65903e-07
5.76126e-07
5.02655e-07
4.37877e-07
3.85664e-07
3.39829e-07
2.97597e-07
2.615e-07
2.28864e-07
2.0134e-07
1.82079e-07
1.72056e-07
1.70191e-07
1.78785e-07
1.95053e-07
2.20937e-07
2.39111e-07
2.78287e-07
2.79137e-07
3.50171e-07
2.97399e-07
4.46009e-07
3.3966e-07
2.98064
8.76052
13.5073
15.2972
14.7323
12.9208
10.6712
8.42212
6.35863
4.53223
2.95991
1.6751
0.734644
0.198554
0.0374007
0.00302764
0.00108747
6.20377e-06
2.34234e-05
0.000150742
0.000153073
0.000118182
9.98021e-05
8.77868e-05
7.622e-05
6.55397e-05
5.62817e-05
4.83165e-05
4.13164e-05
3.52168e-05
2.9912e-05
2.53202e-05
2.13773e-05
1.79686e-05
1.50658e-05
1.25946e-05
1.04915e-05
8.71199e-06
7.21898e-06
5.95682e-06
4.88872e-06
4.01878e-06
3.29104e-06
2.68705e-06
2.19691e-06
1.79537e-06
1.47313e-06
1.21138e-06
1.00114e-06
8.33063e-07
6.98458e-07
5.90896e-07
5.04194e-07
4.34223e-07
3.73688e-07
3.26085e-07
2.85167e-07
2.49068e-07
2.19712e-07
1.95121e-07
1.77041e-07
1.68426e-07
1.67757e-07
1.74418e-07
1.89226e-07
2.0809e-07
2.3518e-07
2.52129e-07
2.89618e-07
2.87623e-07
3.57482e-07
2.98273e-07
4.48603e-07
3.35784e-07
2.53731
7.0577
11.7367
14.6252
15.3803
14.5689
12.8852
10.8442
8.74914
6.74472
4.89748
3.25691
1.88694
0.86495
0.25771
0.0458775
0.00553189
0.00227655
1.24131e-06
1.06504e-05
8.94282e-05
0.000137417
0.000110457
8.77391e-05
7.60975e-05
6.64747e-05
5.71125e-05
4.882e-05
4.16707e-05
3.55006e-05
3.01264e-05
2.54666e-05
2.14671e-05
1.80184e-05
1.50853e-05
1.25906e-05
1.04689e-05
8.67673e-06
7.17202e-06
5.90025e-06
4.82607e-06
3.94999e-06
3.21702e-06
2.60989e-06
2.11721e-06
1.71453e-06
1.39167e-06
1.12992e-06
9.20985e-07
7.54817e-07
6.22552e-07
5.18003e-07
4.34784e-07
3.68878e-07
3.13102e-07
2.70722e-07
2.35831e-07
2.06947e-07
1.85779e-07
1.70556e-07
1.62972e-07
1.64135e-07
1.71362e-07
1.84269e-07
2.02433e-07
2.22393e-07
2.48872e-07
2.64322e-07
2.9993e-07
2.95092e-07
3.63534e-07
2.98233e-07
4.5017e-07
3.31827e-07
2.38364
5.66967
9.77722
13.1204
14.9281
15.2235
14.4021
12.9028
11.0695
9.11961
7.1775
5.32087
3.62345
2.17241
1.05778
0.356473
0.0687286
0.0102261
0.00430949
0
5.82695e-06
3.39869e-05
0.00010696
0.000105645
8.01909e-05
6.56416e-05
5.71806e-05
4.95376e-05
4.22129e-05
3.57969e-05
3.03249e-05
2.5621e-05
2.15742e-05
1.80787e-05
1.51078e-05
1.25874e-05
1.04474e-05
8.64256e-06
7.12555e-06
5.84438e-06
4.76428e-06
3.88203e-06
3.14374e-06
2.53365e-06
2.0386e-06
1.63472e-06
1.31147e-06
1.05006e-06
8.42567e-07
6.78446e-07
5.48987e-07
4.47775e-07
3.68494e-07
3.07179e-07
2.56824e-07
2.20986e-07
1.93257e-07
1.73169e-07
1.61424e-07
1.56581e-07
1.58631e-07
1.68072e-07
1.80618e-07
1.97203e-07
2.16942e-07
2.36653e-07
2.61964e-07
2.75644e-07
3.09283e-07
3.017e-07
3.68605e-07
2.97647e-07
4.50942e-07
3.27994e-07
2.38156
4.56567
7.91573
11.1927
13.6046
14.8357
14.9613
14.2358
12.9444
11.3193
9.52217
7.65915
5.81466
4.07908
2.5523
1.33517
0.51583
0.12085
0.0197869
0.00697475
0.000478765
1.64756e-06
7.40128e-06
5.86857e-05
9.34156e-05
7.71244e-05
5.83725e-05
4.86058e-05
4.22486e-05
3.62945e-05
3.06802e-05
2.57853e-05
2.16609e-05
1.81416e-05
1.51449e-05
1.25948e-05
1.04314e-05
8.61117e-06
7.08189e-06
5.79204e-06
4.70627e-06
3.81722e-06
3.07323e-06
2.45997e-06
1.96257e-06
1.55737e-06
1.23382e-06
9.72934e-07
7.66865e-07
6.04937e-07
4.78688e-07
3.81186e-07
3.06479e-07
2.50489e-07
2.06859e-07
1.79097e-07
1.60115e-07
1.50381e-07
1.48491e-07
1.5328e-07
1.62652e-07
1.77645e-07
1.93015e-07
2.1113e-07
2.31234e-07
2.49935e-07
2.73885e-07
2.85685e-07
3.17303e-07
3.07121e-07
3.72514e-07
2.9645e-07
4.50878e-07
3.24209e-07
2.40154
3.69251
6.2573
9.15662
11.7336
13.5629
14.5003
14.6017
14.0283
12.9613
11.5578
9.93419
8.18
6.38101
4.63335
3.04424
1.72168
0.763843
0.227919
0.0409519
0.003288
0.00231
0.0001223
3.10527e-06
3.56732e-06
5.37639e-05
7.1149e-05
5.63843e-05
4.28691e-05
3.55695e-05
3.06646e-05
2.61382e-05
2.19135e-05
1.82335e-05
1.51638e-05
1.25969e-05
1.04265e-05
8.59265e-06
7.0466e-06
5.74491e-06
4.65277e-06
3.75686e-06
3.00758e-06
2.39108e-06
1.89074e-06
1.48395e-06
1.15996e-06
8.99696e-07
6.95125e-07
5.35609e-07
4.12997e-07
3.19876e-07
2.50797e-07
2.01576e-07
1.66939e-07
1.49221e-07
1.40658e-07
1.41452e-07
1.47881e-07
1.59383e-07
1.73044e-07
1.90622e-07
2.0689e-07
2.25107e-07
2.44671e-07
2.61983e-07
2.84379e-07
2.94298e-07
3.23882e-07
3.11309e-07
3.75165e-07
2.94641e-07
4.49967e-07
3.20338e-07
2.29276
2.94829
4.78999
7.17879
9.60764
11.6738
13.1475
13.9481
14.1084
13.7211
12.8977
11.7367
10.318
8.71407
7.00402
5.28281
3.65789
2.23969
1.13456
0.42745
0.101917