/*--------------------------------*- C++ -*----------------------------------*\
| =========                 |                                                 |
| \\      /  F ield         | OpenFOAM: The Open Source CFD Toolbox           |
|  \\    /   O peration     | Version:  2312                                  |
|   \\  /    A nd           | Website:  www.openfoam.com                      |
|    \\/     M anipulation  |                                                 |
\*---------------------------------------------------------------------------*/
FoamFile
{
    version     2.0;
    format      ascii;
    arch        "LSB;label=32;scalar=64";
    class       volVectorField;
    location    "700";
    object      momentError;
}
// * * * * * * * * * * * * * * * * * * * * * * * * * * * * * * * * * * * * * //

dimensions      [0 1 -2 0 0 0 0];

internalField   nonuniform List<vector> 
11040
(
(-0.328031 0.810348 -6.56244e-16)
(0.150779 -0.0563091 -2.9284e-16)
(-0.0551937 -0.488994 4.72869e-15)
(-0.0556688 0.0126856 6.60714e-16)
(-0.0756285 -0.0143605 3.78758e-15)
(-0.0752157 -0.0163323 -2.49146e-15)
(-0.079732 -0.0153997 -5.94545e-15)
(-0.0808731 -0.0139403 -1.11765e-15)
(-0.0812238 -0.0125101 -3.98293e-16)
(-0.0806776 -0.0112168 2.12926e-15)
(-0.0806631 -0.00953491 1.03655e-15)
(-0.0811236 -0.00828987 -5.74513e-16)
(-0.079827 -0.00705964 -9.69143e-16)
(-0.0783094 -0.00559613 6.85273e-16)
(-0.0769325 -0.00455463 -4.01001e-16)
(-0.0746111 -0.00336074 -9.89628e-16)
(-0.0718943 -0.00223516 7.52846e-16)
(-0.0703934 -0.0012886 7.00405e-16)
(-0.0689397 -0.000380033 -2.55924e-16)
(-0.0664935 0.000541824 -5.51072e-17)
(-0.0631951 0.00129384 5.82672e-16)
(-0.0629546 0.00170212 -3.1425e-16)
(-0.0608474 0.00195844 2.62484e-16)
(-0.0576536 0.00224121 1.33115e-16)
(-0.0534018 0.00261221 -1.35233e-15)
(-0.0494771 0.00319847 -1.01964e-15)
(-0.0459125 0.00368165 -4.8674e-16)
(-0.0469825 0.00512372 -3.48137e-16)
(-0.0505913 0.00787427 -1.14047e-15)
(-0.0586753 0.0145631 4.94207e-16)
(-0.0940931 0.0169756 1.13315e-15)
(-0.112425 0.0238055 2.41333e-15)
(-0.093574 0.0940748 2.97569e-15)
(0.0113501 0.334987 -2.51608e-16)
(0.0654642 0.351876 1.75301e-15)
(-0.132253 -0.128726 6.57084e-16)
(-0.255325 -0.289987 1.21082e-15)
(-0.165272 0.00445045 -8.5172e-17)
(-0.0860403 0.0188281 -1.07881e-15)
(-0.0781622 -0.000834145 -1.47806e-15)
(-0.353596 -0.0551621 -1.3353e-15)
(-0.395632 1.13966 8.01029e-16)
(0.583764 0.932604 2.89847e-15)
(0.351991 -0.352708 6.23749e-15)
(-0.258338 -0.364062 -1.13966e-15)
(-0.137144 -0.0726003 -4.25077e-16)
(-0.0871376 -0.0205777 -5.08373e-17)
(-0.0934188 -0.0227515 1.76833e-15)
(-0.0981347 -0.0219134 9.1199e-16)
(-0.102053 -0.0207605 -1.62506e-16)
(-0.102697 -0.0186347 -7.91964e-16)
(-0.103265 -0.0161144 1.72612e-15)
(-0.104908 -0.0128877 1.21757e-15)
(-0.10388 -0.0107547 1.32767e-15)
(-0.102844 -0.00794815 -3.45166e-17)
(-0.101206 -0.00584247 -2.33833e-16)
(-0.0995965 -0.00411563 4.25479e-16)
(-0.0991502 -0.00224454 3.85882e-16)
(-0.0974573 -0.000616536 3.76814e-16)
(-0.0948461 0.00103081 -1.88679e-17)
(-0.0914498 0.00262509 -8.70051e-17)
(-0.0860512 0.00364333 -2.29522e-16)
(-0.0837621 0.00416293 3.65477e-16)
(-0.0801853 0.00430594 2.35319e-16)
(-0.076155 0.0044065 3.21361e-16)
(-0.0728431 0.00467824 -3.68032e-16)
(-0.0725284 0.00534486 -6.67162e-16)
(-0.0775337 0.00690291 7.09839e-16)
(-0.087764 0.00935579 5.3679e-16)
(-0.105128 0.0134084 -6.84509e-16)
(-0.127205 0.0194378 -9.89262e-16)
(-0.14003 0.0236822 -9.5732e-16)
(-0.179474 0.0278311 -1.88023e-15)
(-0.231893 0.0362513 -9.33516e-17)
(-0.300432 0.0524785 1.11311e-15)
(-0.417799 0.0400124 -7.56229e-16)
(-0.441789 0.00620222 1.8204e-16)
(-0.356909 0.0627824 -1.1153e-16)
(-0.395685 0.0719288 8.73968e-16)
(-0.362653 0.0627087 -6.4422e-16)
(-0.306037 0.0431722 -4.45272e-16)
(-0.640139 -0.0752757 1.15883e-16)
(-0.12828 0.644438 1.48844e-16)
(0.434181 0.901943 -1.32917e-15)
(0.593721 0.838808 -7.6568e-15)
(0.308804 0.269651 2.80636e-15)
(-0.204661 -0.21585 1.04509e-15)
(-0.183337 -0.133446 4.77864e-16)
(-0.103075 -0.0338096 1.65146e-15)
(-0.100888 -0.0235855 3.80491e-16)
(-0.0991095 -0.0140404 -4.55746e-16)
(-0.105112 -0.0160681 -9.13132e-17)
(-0.106701 -0.0158023 -1.36644e-15)
(-0.109441 -0.0129177 5.6187e-16)
(-0.109055 -0.0112377 -3.49042e-17)
(-0.108342 -0.0084079 2.95389e-16)
(-0.106901 -0.00635046 7.54766e-16)
(-0.104872 -0.00505372 -1.70741e-17)
(-0.102475 -0.00324981 -2.85031e-16)
(-0.0994541 -0.00177015 -6.00123e-17)
(-0.0956091 -0.000150478 8.05098e-18)
(-0.0909587 0.00142209 1.47224e-16)
(-0.0848688 0.00242493 2.69018e-16)
(-0.0819111 0.00290647 -9.46677e-17)
(-0.0782846 0.00318671 1.25153e-16)
(-0.0750966 0.00364206 -2.9594e-16)
(-0.0733402 0.00451208 1.89289e-16)
(-0.0744936 0.00595754 5.66699e-16)
(-0.0797261 0.00846409 -2.90412e-16)
(-0.0895648 0.0120568 -3.64547e-16)
(-0.104907 0.0168015 1.84753e-16)
(-0.12653 0.0232296 7.1373e-16)
(-0.156802 0.0318017 -3.19258e-16)
(-0.199534 0.0419418 -2.51077e-16)
(-0.250174 0.0511879 -1.73899e-19)
(-0.309193 0.0588108 1.38348e-16)
(-0.378855 0.0649126 -5.838e-16)
(-0.441971 0.0809564 -1.48592e-15)
(-0.486379 0.108953 5.92885e-17)
(-0.560075 0.102625 5.266e-16)
(-0.55913 0.0896969 8.2362e-17)
(-0.528429 0.0597601 8.29565e-16)
(-0.916261 -0.0716255 1.38647e-16)
(-0.08029 0.534218 -2.68229e-16)
(0.149594 0.726651 2.16886e-17)
(0.40494 0.737862 1.7477e-15)
(0.59929 0.737992 -7.82701e-16)
(0.464511 0.506468 -1.56677e-15)
(-0.0327499 0.014346 2.54611e-15)
(-0.197341 -0.140461 9.19245e-16)
(-0.104597 -0.0450388 3.89292e-16)
(-0.0965727 -0.0167359 -2.66742e-16)
(-0.0971627 -0.0114249 5.08092e-16)
(-0.0990313 -0.00979491 7.85984e-16)
(-0.103192 -0.00966201 -8.9628e-16)
(-0.104784 -0.00878488 7.69981e-16)
(-0.104538 -0.00678831 4.22406e-16)
(-0.103722 -0.00488529 1.14023e-16)
(-0.101103 -0.00428833 -4.04619e-16)
(-0.0979022 -0.00297722 -3.80008e-16)
(-0.0939903 -0.00209343 -2.11545e-16)
(-0.0893295 -0.000932994 4.03027e-17)
(-0.0840628 0.000111485 -5.3357e-17)
(-0.0776177 0.000627848 -3.66738e-17)
(-0.073999 0.000734043 -8.51841e-17)
(-0.0702062 0.000881176 -1.81229e-16)
(-0.0671103 0.00146955 -5.27129e-18)
(-0.0654757 0.00281302 -7.79279e-16)
(-0.0664696 0.00497245 -3.25453e-16)
(-0.0714051 0.00844456 3.99107e-16)
(-0.0815634 0.0134295 2.7099e-16)
(-0.0985483 0.0200464 6.3562e-16)
(-0.123757 0.0288986 -3.88178e-16)
(-0.159692 0.0408634 5.03418e-16)
(-0.208649 0.0560406 -5.53792e-16)
(-0.268011 0.0714226 -4.56438e-16)
(-0.339493 0.0852638 4.40742e-16)
(-0.423238 0.100399 -1.22191e-16)
(-0.503097 0.120422 -8.47e-17)
(-0.571038 0.134966 -5.50384e-16)
(-0.666689 0.124737 4.61037e-16)
(-0.668177 0.125447 -2.23992e-16)
(-0.748287 0.0644267 -9.51324e-17)
(-1.13525 -0.06195 7.15521e-16)
(-0.0252425 0.462891 2.17363e-16)
(0.0544077 0.505279 -1.38513e-16)
(0.310486 0.532756 -1.37531e-16)
(0.443736 0.464532 8.54129e-16)
(0.621629 0.604066 1.92763e-16)
(0.628176 0.677403 -4.36042e-16)
(0.208803 0.277951 -5.89336e-16)
(-0.124982 -0.0628733 -1.31365e-15)
(-0.129573 -0.0702376 2.72317e-16)
(-0.0869714 -0.0196743 -9.47214e-17)
(-0.0891785 -0.00974001 4.33927e-16)
(-0.0878366 -0.00264441 1.96411e-16)
(-0.0939479 -0.00397347 -3.76073e-16)
(-0.0962414 -0.00463496 -6.13984e-16)
(-0.0960057 -0.00271691 2.00122e-16)
(-0.0938144 -0.0032971 5.46047e-18)
(-0.0906578 -0.0024831 -1.65787e-16)
(-0.0865649 -0.00216916 -2.40442e-16)
(-0.0816202 -0.00142083 -4.55384e-17)
(-0.0760976 -0.000863897 4.84211e-17)
(-0.0693767 -0.000788315 1.3437e-16)
(-0.0649625 -0.00104428 -2.62655e-16)
(-0.0604726 -0.00107037 -5.55419e-17)
(-0.0566227 -0.000526742 4.24114e-16)
(-0.0541562 0.00103919 2.49026e-16)
(-0.0542817 0.00374365 -2.52962e-16)
(-0.058505 0.00814417 2.50974e-16)
(-0.0683773 0.0145585 1.92414e-16)
(-0.0856773 0.0231855 -3.71374e-16)
(-0.111832 0.0345264 2.22623e-16)
(-0.149155 0.0493463 -3.27101e-17)
(-0.200563 0.0680472 7.55319e-16)
(-0.264303 0.0876696 1.78987e-16)
(-0.342084 0.106299 -6.31895e-17)
(-0.433757 0.126375 1.40327e-16)
(-0.525128 0.149526 2.99415e-16)
(-0.609875 0.163057 -1.25876e-16)
(-0.725477 0.148163 2.10176e-16)
(-0.781499 0.151787 8.49002e-17)
(-0.877385 0.0954262 -2.33101e-16)
(-1.27576 -0.0276632 -2.1448e-16)
(0.00912558 0.402656 -3.84757e-17)
(0.0532023 0.370471 2.66174e-17)
(0.205219 0.409286 6.64814e-17)
(0.322574 0.405351 2.4795e-16)
(0.416844 0.312326 -9.1042e-16)
(0.607931 0.45708 1.12749e-16)
(0.737404 0.698295 -5.51789e-16)
(0.487472 0.524855 -8.84914e-16)
(0.0506673 0.115693 1.5969e-16)
(-0.129049 -0.0763242 -3.11251e-16)
(-0.0827435 -0.0304875 2.93993e-17)
(-0.0744623 -0.00801866 6.17075e-18)
(-0.0788503 -0.00193769 -2.57732e-17)
(-0.0812268 0.00205548 -3.28003e-16)
(-0.0851114 0.000600594 1.52433e-17)
(-0.0856293 -0.00238187 -1.8397e-16)
(-0.08281 -0.00207663 -1.07469e-16)
(-0.0791693 -0.00247151 -8.61683e-17)
(-0.0743574 -0.00212474 -3.94098e-17)
(-0.0688869 -0.00201882 5.67679e-17)
(-0.0620261 -0.0023312 5.10915e-17)
(-0.0568541 -0.00293032 3.18185e-17)
(-0.0514683 -0.00310603 -2.61345e-18)
(-0.0465701 -0.00260299 -1.78843e-16)
(-0.042953 -0.000824093 1.26579e-16)
(-0.0418436 0.00245038 4.86517e-16)
(-0.0447904 0.00783515 -4.09007e-16)
(-0.0534419 0.0157352 -4.67678e-16)
(-0.0695885 0.0263904 -1.66359e-16)
(-0.0946836 0.040185 1.84243e-16)
(-0.130547 0.0577301 3.56259e-16)
(-0.181234 0.0797149 -1.15866e-16)
(-0.24546 0.103339 -2.4556e-16)
(-0.32468 0.126711 -3.70523e-16)
(-0.418953 0.151133 -1.47812e-16)
(-0.517015 0.177026 5.85914e-16)
(-0.614652 0.192334 2.91424e-16)
(-0.744361 0.178791 -4.59856e-17)
(-0.844304 0.18504 4.384e-16)
(-0.958669 0.134192 -2.8849e-16)
(-1.34296 0.0482934 -1.95157e-16)
(0.0258706 0.338085 6.80842e-17)
(0.0648049 0.315179 -3.53497e-17)
(0.129592 0.289522 -9.49121e-17)
(0.225365 0.356777 -4.05482e-16)
(0.310046 0.317077 -3.4426e-16)
(0.379913 0.181634 3.03841e-16)
(0.541564 0.265875 3.78406e-16)
(0.75423 0.573416 -1.11086e-16)
(0.7054 0.636015 8.24358e-16)
(0.330826 0.361073 -4.60716e-16)
(-0.0200343 0.0177287 2.41594e-16)
(-0.100527 -0.0581001 -6.76542e-17)
(-0.0626456 -0.0132833 6.00681e-16)
(-0.0666015 -0.000266577 -6.54572e-16)
(-0.0693672 0.00360345 1.33738e-16)
(-0.0718223 0.00252706 -1.65186e-16)
(-0.073144 -0.000723846 -9.81386e-18)
(-0.0721637 -0.00283559 8.52786e-17)
(-0.0681424 -0.00302238 -2.26615e-18)
(-0.063314 -0.00345043 -1.89108e-16)
(-0.0566852 -0.00413734 1.86487e-16)
(-0.0510119 -0.00508873 -1.47337e-16)
(-0.0447401 -0.0054203 -1.24996e-16)
(-0.0386414 -0.00496556 2.02543e-16)
(-0.0335898 -0.00297724 -1.35644e-16)
(-0.0308152 0.000873165 -1.50191e-16)
(-0.0318127 0.00727814 -1.0934e-16)
(-0.0382526 0.0167106 -8.46243e-17)
(-0.0519077 0.0294339 -4.21406e-18)
(-0.0743129 0.0457352 1.75844e-16)
(-0.106625 0.0659057 6.57601e-17)
(-0.153982 0.0913259 1.63747e-16)
(-0.21552 0.119213 -2.21934e-16)
(-0.292564 0.147594 -3.79118e-16)
(-0.385534 0.176701 -1.94699e-16)
(-0.48633 0.205987 4.29978e-16)
(-0.592983 0.224868 1.41736e-17)
(-0.730217 0.218195 -9.37205e-18)
(-0.861683 0.226221 1.78875e-16)
(-1.00486 0.163364 2.53469e-16)
(-1.35537 0.175875 -1.808e-16)
(0.0366135 0.278167 -2.26774e-17)
(0.0711634 0.265401 7.03859e-17)
(0.101992 0.216243 -2.00013e-17)
(0.163937 0.251308 8.17405e-18)
(0.236147 0.291284 1.3153e-16)
(0.297306 0.242514 6.09489e-16)
(0.341071 0.0892071 -4.90916e-16)
(0.460052 0.062754 -8.11111e-16)
(0.709049 0.410169 1.56201e-16)
(0.825808 0.674404 4.4529e-16)
(0.626895 0.556644 1.46527e-15)
(0.218033 0.239392 -1.62483e-15)
(-0.0515592 -0.0221868 6.60126e-16)
(-0.078949 -0.0406017 -1.54148e-16)
(-0.0536496 -0.00597938 -3.99002e-16)
(-0.0565717 0.000683785 4.62224e-16)
(-0.0577713 0.0016541 3.13006e-17)
(-0.0595198 0.000239464 3.69365e-16)
(-0.0599996 -0.00291887 -2.23398e-16)
(-0.0580423 -0.00472077 -2.09785e-16)
(-0.0527354 -0.00600387 2.70726e-16)
(-0.0474879 -0.00750045 -7.87875e-17)
(-0.0408925 -0.00813394 -1.82816e-16)
(-0.0337645 -0.00786713 5.67354e-17)
(-0.0270258 -0.0057548 7.62218e-17)
(-0.0220102 -0.00136354 -6.16832e-17)
(-0.0202743 0.00603578 -1.03848e-16)
(-0.0234852 0.0169811 2.37116e-16)
(-0.0333601 0.0318147 2.67658e-16)
(-0.0515944 0.0507231 -1.50982e-16)
(-0.0791257 0.0735241 -2.29754e-16)
(-0.120444 0.102547 -8.84405e-17)
(-0.176509 0.135129 1.73007e-16)
(-0.248373 0.169026 1.03692e-16)
(-0.336844 0.203707 -3.93079e-17)
(-0.436894 0.237808 -1.22964e-16)
(-0.548409 0.262434 2.72657e-16)
(-0.687666 0.266626 -2.74038e-16)
(-0.838706 0.280644 5.37489e-17)
(-1.01157 0.254367 6.40059e-17)
(-1.35096 0.27684 1.86604e-16)
(0.0417776 0.224514 -4.59244e-17)
(0.0716414 0.217788 1.29747e-17)
(0.0910246 0.17791 -1.42393e-17)
(0.123742 0.179874 -1.68766e-16)
(0.177178 0.206314 6.13187e-17)
(0.23389 0.231757 -5.99465e-18)
(0.280038 0.189416 -1.31199e-16)
(0.29883 0.044644 4.99595e-16)
(0.348801 -0.0513065 -2.30075e-16)
(0.560868 0.125293 6.58513e-16)
(0.800754 0.50835 4.02085e-17)
(0.851768 0.69896 -2.99339e-16)
(0.529662 0.447592 9.72162e-17)
(0.147599 0.148076 -2.96299e-16)
(-0.0617194 -0.0359235 -4.25165e-16)
(-0.0579504 -0.0283175 4.71668e-17)
(-0.0409242 -0.00552361 1.85523e-16)
(-0.0440994 -0.00121647 3.05223e-16)
(-0.0456756 -0.00101665 -3.82346e-17)
(-0.0468456 -0.00262134 -2.54048e-16)
(-0.0464525 -0.00665299 2.41561e-16)
(-0.0442135 -0.00973734 1.19652e-17)
(-0.0387476 -0.0111378 -4.31107e-17)
(-0.0315411 -0.0113966 1.04729e-16)
(-0.0235957 -0.00943559 1.40708e-16)
(-0.0162786 -0.00480469 1.8174e-16)
(-0.0111275 0.00336891 3.25708e-17)
(-0.00993472 0.0157736 1.52141e-17)
(-0.0145916 0.0327914 -1.16486e-16)
(-0.0270554 0.0544633 6.23618e-18)
(-0.0485868 0.0803962 -1.33859e-16)
(-0.0814704 0.112772 4.19437e-17)
(-0.129331 0.150618 -6.50985e-17)
(-0.193038 0.190807 -8.46611e-17)
(-0.273818 0.232329 5.77026e-17)
(-0.36935 0.273183 8.54986e-17)
(-0.480622 0.306434 3.23569e-17)
(-0.617061 0.324813 1.6122e-17)
(-0.775807 0.348243 -9.03094e-17)
(-0.962995 0.355474 1.6571e-16)
(-1.27231 0.390349 2.96036e-17)
(0.0431969 0.177417 1.52527e-16)
(0.068696 0.174985 -4.49755e-17)
(0.084688 0.146753 -1.45063e-16)
(0.0999849 0.138407 1.68679e-16)
(0.136127 0.148096 9.56131e-18)
(0.179439 0.162817 2.03239e-17)
(0.22502 0.177376 4.53601e-16)
(0.26074 0.148492 -8.80216e-16)
(0.268578 0.0257754 -2.03395e-16)
(0.278353 -0.11988 1.53952e-15)
(0.408087 -0.0369758 3.82268e-17)
(0.64176 0.201753 -1.2464e-16)
(0.892279 0.56097 -6.80514e-16)
(0.804752 0.613463 4.57574e-16)
(0.471711 0.375159 -1.08354e-15)
(0.12122 0.0987317 2.35368e-16)
(-0.0423559 -0.0343879 -4.6471e-17)
(-0.0391939 -0.0238353 2.68308e-16)
(-0.0287731 -0.00635332 -1.14086e-16)
(-0.0327179 -0.003489 -2.94156e-16)
(-0.0346558 -0.00523624 1.86357e-16)
(-0.0356646 -0.00865883 -6.07565e-17)
(-0.0342288 -0.0126956 -8.49028e-17)
(-0.0294999 -0.0149796 1.18748e-16)
(-0.0219926 -0.0141329 1.09503e-16)
(-0.0133402 -0.00991747 -1.03024e-16)
(-0.00509319 -0.00141473 5.75611e-17)
(0.00085275 0.0120471 1.12871e-16)
(0.00245564 0.0309769 4.73614e-17)
(-0.00246936 0.0555061 -6.26733e-17)
(-0.0156963 0.0853701 5.43291e-17)
(-0.0382083 0.121045 7.12867e-17)
(-0.0748357 0.16476 6.80212e-17)
(-0.126994 0.21217 6.60436e-17)
(-0.196192 0.262088 1.30379e-16)
(-0.282304 0.311966 -1.46106e-16)
(-0.386833 0.356674 5.04053e-17)
(-0.514103 0.390947 7.97557e-18)
(-0.667695 0.428147 8.64459e-18)
(-0.850956 0.461568 -2.21397e-17)
(-1.11858 0.510452 -2.79482e-17)
(0.0420145 0.137375 2.98445e-17)
(0.0633995 0.13723 1.0605e-16)
(0.0766347 0.117891 8.70638e-17)
(0.0882274 0.110459 -4.0753e-17)
(0.10512 0.107465 -4.75773e-17)
(0.138841 0.115712 1.14694e-16)
(0.174288 0.12203 9.2196e-17)
(0.210586 0.129657 -2.7669e-16)
(0.239549 0.114245 3.69043e-16)
(0.245672 0.0284841 -5.51443e-16)
(0.231325 -0.131447 -1.11914e-15)
(0.281121 -0.196034 -2.64926e-16)
(0.446446 -0.040291 3.97158e-16)
(0.720691 0.291074 -4.75612e-16)
(0.892093 0.55884 -4.43749e-16)
(0.768292 0.534795 6.1628e-16)
(0.441398 0.318285 -1.15876e-16)
(0.121867 0.0754323 6.67757e-16)
(-0.0221166 -0.0312845 5.40623e-17)
(-0.0272343 -0.024049 -3.62067e-16)
(-0.0193441 -0.0094213 4.07845e-17)
(-0.0230899 -0.00879628 -3.53902e-17)
(-0.0248575 -0.0121076 -1.8929e-17)
(-0.0232453 -0.0155757 -1.04338e-16)
(-0.0184463 -0.0174283 2.3638e-16)
(-0.010847 -0.0157494 -1.4865e-17)
(-0.00130069 -0.00875264 -8.83506e-17)
(0.00841572 0.00443572 1.43292e-19)
(0.0162225 0.0245226 -3.34305e-17)
(0.0197946 0.0518072 2.60621e-17)
(0.0166705 0.0857772 -1.44123e-16)
(0.0050327 0.12536 2.50225e-17)
(-0.015805 0.174366 8.83126e-17)
(-0.0516945 0.230284 1.28912e-16)
(-0.103993 0.290417 9.16726e-17)
(-0.173955 0.351514 -9.19471e-17)
(-0.263091 0.409713 -1.08123e-16)
(-0.372581 0.460061 -7.42592e-17)
(-0.507248 0.51301 -1.90476e-16)
(-0.668725 0.563896 -1.86954e-16)
(-0.885212 0.62188 -1.13012e-16)
(0.0390182 0.104104 7.92022e-17)
(0.0567899 0.10496 8.29045e-17)
(0.0676978 0.0917753 -1.51241e-16)
(0.0781591 0.0870003 -4.40573e-17)
(0.087822 0.0819465 1.25769e-16)
(0.107786 0.0830681 -3.55996e-17)
(0.135409 0.0859461 -1.0303e-16)
(0.164206 0.0859157 3.56247e-17)
(0.193199 0.0877451 1.01456e-15)
(0.218037 0.081355 -3.49929e-16)
(0.226542 0.0316385 -8.46207e-16)
(0.207211 -0.0869414 1.02881e-15)
(0.195881 -0.215107 4.85965e-16)
(0.267783 -0.21938 6.51928e-17)
(0.477212 -0.0179385 1.34846e-16)
(0.727611 0.300751 -3.50592e-16)
(0.884027 0.530381 -1.16205e-16)
(0.73262 0.466222 2.26092e-16)
(0.435047 0.283473 5.18285e-16)
(0.138833 0.070558 -7.24529e-16)
(-0.00191174 -0.0276761 2.65519e-17)
(-0.0175817 -0.0310814 -2.28883e-17)
(-0.0114884 -0.0191071 -6.40858e-17)
(-0.011573 -0.0167835 -3.67921e-17)
(-0.0107942 -0.0184935 1.68704e-16)
(-0.00614983 -0.0193283 8.47363e-17)
(0.00256363 -0.0157242 -1.54176e-16)
(0.0137682 -0.00574375 -7.44727e-17)
(0.0260921 0.0124354 2.94329e-17)
(0.0374227 0.0397371 -3.32263e-17)
(0.0451251 0.0760399 5.91131e-17)
(0.0467314 0.120595 -2.97576e-17)
(0.0414817 0.173512 5.18888e-17)
(0.0273216 0.23775 -1.28598e-17)
(-0.00147565 0.308747 -1.12345e-16)
(-0.046343 0.382687 -2.33631e-17)
(-0.108926 0.456366 2.2173e-17)
(-0.19103 0.522751 6.51095e-17)
(-0.293436 0.590243 -2.10624e-17)
(-0.417088 0.651416 -4.60547e-17)
(-0.576644 0.712615 -1.65499e-17)
(0.0350092 0.0770927 -6.51348e-17)
(0.0495739 0.0782034 4.22266e-17)
(0.0584732 0.0691988 -7.91124e-18)
(0.067657 0.0661765 -1.43665e-16)
(0.0762762 0.0626355 1.54823e-17)
(0.0861269 0.059478 6.96517e-17)
(0.105171 0.0603769 -1.22071e-16)
(0.127579 0.0594854 -2.18175e-16)
(0.150569 0.055572 2.06778e-17)
(0.173856 0.052756 -2.77364e-16)
(0.194889 0.0490986 3.96359e-16)
(0.204466 0.0249845 5.30124e-17)
(0.192024 -0.0494114 -2.5771e-16)
(0.161348 -0.172101 -2.83814e-16)
(0.154923 -0.275572 3.30932e-16)
(0.277393 -0.187104 4.48083e-16)
(0.458943 -0.0236156 -1.50963e-15)
(0.710982 0.265574 1.22963e-15)
(0.842915 0.467234 1.97007e-16)
(0.715018 0.413012 -5.25073e-16)
(0.451735 0.265663 3.46634e-16)
(0.191219 0.0890568 -1.08658e-16)
(0.0419546 -0.0170127 -9.83215e-17)
(0.00430982 -0.0448125 -5.36273e-17)
(0.00161585 -0.0393777 2.66122e-16)
(0.00313794 -0.0298113 8.47708e-18)
(0.0085646 -0.0226856 -2.93442e-17)
(0.0181091 -0.0149503 -1.84366e-16)
(0.0316533 -0.00142292 1.11665e-16)
(0.0478622 0.0210641 2.09712e-16)
(0.0648925 0.0544732 -2.10536e-17)
(0.0803191 0.0991448 -7.32129e-17)
(0.0910547 0.153641 -2.61188e-17)
(0.0978335 0.218984 -7.26729e-18)
(0.0988903 0.299229 -1.14589e-16)
(0.0873414 0.38723 4.15181e-17)
(0.0614169 0.477537 -1.98226e-18)
(0.0178775 0.559219 -5.20189e-17)
(-0.0392873 0.639968 4.22665e-18)
(-0.11474 0.709592 3.95791e-17)
(-0.215864 0.773196 4.59249e-17)
(0.0305085 0.0556221 7.58308e-17)
(0.0422846 0.0565639 -5.77028e-17)
(0.0494634 0.0503978 -6.88159e-17)
(0.0573084 0.0483655 -2.23013e-17)
(0.0647932 0.0459116 1.64226e-16)
(0.0719045 0.0429462 -1.95493e-17)
(0.0816061 0.0403272 6.1925e-17)
(0.0989487 0.0400488 1.75153e-16)
(0.116834 0.0369105 7.22316e-17)
(0.135031 0.0309905 -5.34778e-16)
(0.153205 0.0247817 -2.89038e-16)
(0.16963 0.0203036 -8.91957e-17)
(0.180717 0.00989848 -5.29272e-16)
(0.176885 -0.0280022 3.95995e-16)
(0.151258 -0.111304 1.40546e-15)
(0.110684 -0.235616 -7.58419e-16)
(0.122851 -0.302019 -2.05376e-16)
(0.250378 -0.188081 3.03434e-16)
(0.413148 -0.044038 -3.3658e-16)
(0.655506 0.206898 9.60249e-16)
(0.78714 0.386363 -1.7631e-16)
(0.748598 0.388145 -4.82708e-16)
(0.570275 0.301138 -7.03709e-16)
(0.343595 0.158655 3.54461e-16)
(0.161518 0.0314892 3.94563e-16)
(0.0717726 -0.0398411 3.64239e-17)
(0.0441829 -0.0604349 3.15513e-17)
(0.0383189 -0.0535977 1.65706e-17)
(0.0428806 -0.0335337 1.52559e-17)
(0.0554009 -0.00666766 9.97553e-17)
(0.0725342 0.0250161 8.02699e-17)
(0.0944789 0.0624326 -1.46991e-16)
(0.121021 0.11329 1.89785e-17)
(0.145103 0.174091 -2.18225e-17)
(0.170663 0.247973 -6.91401e-17)
(0.198385 0.335996 5.74688e-18)
(0.215081 0.436831 1.11384e-16)
(0.218859 0.533655 -5.87915e-17)
(0.213678 0.630948 -3.30366e-17)
(0.194708 0.715377 -1.97975e-17)
(0.154744 0.786291 1.27595e-17)
(0.0259398 0.038974 -2.56549e-17)
(0.0352945 0.0395282 4.42217e-17)
(0.0409843 0.035241 1.74835e-17)
(0.047508 0.0337483 8.48885e-17)
(0.0538325 0.0319317 -7.72078e-17)
(0.0599068 0.0296681 3.57154e-17)
(0.0658394 0.0269957 3.42041e-18)
(0.0765429 0.024966 -4.71588e-17)
(0.0902539 0.0227042 1.82358e-16)
(0.104381 0.0183411 1.70242e-16)
(0.118391 0.0115286 -4.69402e-16)
(0.131484 0.00347557 8.42873e-16)
(0.14409 -0.00316893 7.48548e-16)
(0.154447 -0.00916935 -7.41485e-16)
(0.156922 -0.0251713 -4.65633e-16)
(0.143597 -0.0679498 -3.557e-16)
(0.109872 -0.14853 8.27541e-16)
(0.0679707 -0.256266 -8.03561e-16)
(0.0796589 -0.306739 1.78511e-16)
(0.192414 -0.209794 3.99457e-16)
(0.337652 -0.0893998 -2.69275e-16)
(0.589389 0.123658 -2.77827e-16)
(0.754889 0.291009 1.2608e-16)
(0.789929 0.346756 1.85379e-16)
(0.718712 0.330717 -3.06889e-16)
(0.576879 0.253329 7.09057e-17)
(0.403055 0.143004 2.88098e-16)
(0.257928 0.0418672 -5.05673e-16)
(0.174306 -0.0217198 1.3865e-16)
(0.139963 -0.043699 1.44437e-16)
(0.13159 -0.0326391 -4.25026e-17)
(0.138905 0.00249812 -1.3577e-16)
(0.157327 0.0532113 4.32736e-17)
(0.181768 0.112109 1.75733e-16)
(0.209106 0.175346 2.65279e-17)
(0.239397 0.245006 -4.99484e-18)
(0.285852 0.326018 -5.23773e-17)
(0.344931 0.424744 -3.10077e-17)
(0.394316 0.527426 -6.94394e-17)
(0.43695 0.622336 1.81655e-17)
(0.462035 0.708523 5.0819e-17)
(0.0215461 0.0264113 -3.51912e-17)
(0.0288763 0.0265486 4.30925e-17)
(0.0332812 0.0234838 -3.57999e-17)
(0.0385432 0.0222525 -1.45511e-16)
(0.0437181 0.0207745 3.25248e-17)
(0.0487772 0.0189685 -5.51197e-17)
(0.0537251 0.0167738 -4.35531e-17)
(0.0594337 0.0142361 3.1629e-17)
(0.0691609 0.0118795 -5.06747e-17)
(0.0799931 0.00850143 8.24497e-18)
(0.090854 0.00355607 -3.13174e-16)
(0.100896 -0.00325123 2.86534e-16)
(0.11033 -0.0115838 -2.12667e-16)
(0.119273 -0.0197029 -6.94042e-16)
(0.127368 -0.0260298 9.41751e-16)
(0.132111 -0.0333462 3.70316e-16)
(0.128054 -0.0512961 2.05353e-16)
(0.108826 -0.0920603 -6.95168e-18)
(0.0725195 -0.161657 -1.87357e-16)
(0.0294788 -0.251729 -1.52453e-16)
(0.0293748 -0.293222 -7.17505e-17)
(0.119864 -0.251871 1.93895e-16)
(0.237942 -0.179421 -3.9678e-16)
(0.429377 -0.0306416 -1.4144e-17)
(0.601869 0.125215 1.6045e-16)
(0.711952 0.225785 -1.5541e-16)
(0.750819 0.273328 -4.04348e-16)
(0.733465 0.280155 5.04956e-16)
(0.658712 0.241904 5.18207e-16)
(0.551155 0.181379 -4.02727e-16)
(0.444179 0.119903 -1.15658e-16)
(0.367922 0.0785368 -6.58129e-17)
(0.329365 0.0668042 -8.41638e-17)
(0.317802 0.0828524 2.85364e-16)
(0.325675 0.121713 -1.03259e-16)
(0.347569 0.17744 -4.69186e-17)
(0.379369 0.243096 6.83908e-17)
(0.407299 0.308461 -4.18283e-18)
(0.455366 0.382231 7.28255e-17)
(0.502955 0.44773 6.0622e-17)
(0.57143 0.528425 4.57231e-19)
(0.0174138 0.0168393 3.10969e-18)
(0.0230889 0.0167076 5.33894e-17)
(0.0264339 0.0145028 1.99167e-17)
(0.0305652 0.0134339 -2.1175e-17)
(0.0346826 0.012174 -5.85214e-17)
(0.0387601 0.0106559 -3.88212e-19)
(0.0428049 0.00884226 4.7389e-17)
(0.0468383 0.00673199 4.64112e-17)
(0.0523539 0.00417575 -4.40642e-18)
(0.0605625 0.00129922 -9.83763e-17)
(0.0688533 -0.0026106 -2.4064e-16)
(0.0766603 -0.0075954 2.16714e-16)
(0.0839012 -0.0138959 -2.80608e-16)
(0.0904087 -0.0214983 -2.08467e-16)
(0.0962676 -0.0296641 3.60328e-16)
(0.101596 -0.0368921 2.36672e-16)
(0.105769 -0.0425466 3.37577e-16)
(0.106173 -0.0496764 -5.845e-16)
(0.0982414 -0.0656015 -3.18882e-16)
(0.0768384 -0.098947 1.01452e-15)
(0.0407071 -0.153774 -5.17656e-16)
(0.00237033 -0.233487 -1.13424e-16)
(-0.00710207 -0.276983 1.11493e-16)
(0.0149394 -0.285602 -3.40395e-16)
(0.0680359 -0.2681 5.52236e-16)
(0.187148 -0.19716 -3.55896e-16)
(0.323096 -0.0785607 -4.42882e-16)
(0.444721 0.0278177 2.21998e-16)
(0.55344 0.115115 1.63114e-16)
(0.621108 0.179758 6.97396e-16)
(0.656076 0.216023 -4.02086e-16)
(0.658981 0.229555 -3.25539e-16)
(0.63682 0.227462 2.11763e-16)
(0.601407 0.219219 1.35468e-17)
(0.57219 0.217204 -5.21354e-17)
(0.56007 0.228983 3.53289e-17)
(0.568401 0.257084 4.18613e-18)
(0.585229 0.295092 4.94713e-17)
(0.621995 0.344229 -5.32835e-17)
(0.666746 0.391839 1.52682e-17)
(0.727951 0.431592 -2.04458e-17)
(0.0146801 0.0108145 -2.27159e-17)
(0.0190126 0.0102889 1.91445e-17)
(0.02153 0.00855434 5.46655e-18)
(0.0246607 0.00747886 -5.68944e-19)
(0.0277855 0.00627085 7.95248e-17)
(0.0308906 0.00487011 -2.09773e-17)
(0.0339923 0.0032649 -9.6057e-17)
(0.0370965 0.00142551 6.18574e-17)
(0.0403804 -0.000673169 2.63983e-16)
(0.0459071 -0.00337273 -3.04217e-16)
(0.0522696 -0.0067067 -4.53655e-17)
(0.0583814 -0.0107519 4.7279e-16)
(0.0641413 -0.0155838 -3.37279e-16)
(0.0693143 -0.0212737 1.20174e-16)
(0.073756 -0.0278941 -6.25761e-17)
(0.077439 -0.0352463 -7.55767e-16)
(0.080507 -0.0425048 1.31955e-15)
(0.0830411 -0.0484454 4.06359e-16)
(0.0843609 -0.0527774 -1.12844e-15)
(0.0822019 -0.0579478 9.74478e-16)
(0.0724636 -0.0694846 -8.19509e-17)
(0.0549669 -0.0985581 -7.76234e-16)
(0.0250999 -0.14008 1.30462e-16)
(-0.00970267 -0.189794 3.35714e-16)
(-0.038839 -0.235676 -5.84324e-16)
(-0.0555874 -0.270492 2.93864e-17)
(-0.0494317 -0.279389 1.06777e-16)
(-0.0134352 -0.259163 5.64733e-17)
(0.0477309 -0.210178 -4.24421e-16)
(0.129016 -0.140968 3.60316e-16)
(0.220091 -0.062594 5.24943e-16)
(0.309595 0.0138039 -7.91101e-17)
(0.389453 0.0804349 -1.93306e-16)
(0.455584 0.13426 -3.43269e-16)
(0.510957 0.176761 7.6868e-17)
(0.556648 0.209796 2.22333e-17)
(0.596645 0.237139 5.81981e-17)
(0.629114 0.25977 1.82506e-17)
(0.672757 0.286154 7.55907e-17)
(0.724033 0.315381 4.72809e-17)
(0.797272 0.351824 -3.23718e-17)
(0.0124811 0.00679099 -2.73358e-17)
(0.0157949 0.00603161 -3.90451e-17)
(0.017711 0.00459832 -3.19237e-18)
(0.0200814 0.0035391 6.42376e-17)
(0.0224519 0.00238203 4.24063e-17)
(0.0248057 0.00108394 -2.77332e-17)
(0.0271667 -0.000367289 -2.97858e-18)
(0.0295439 -0.00198046 2.82929e-17)
(0.0319462 -0.00378686 -1.46085e-16)
(0.0350752 -0.00603862 -3.9473e-17)
(0.0400573 -0.0089492 4.76694e-16)
(0.0448462 -0.012398 9.42014e-17)
(0.049433 -0.0163856 -6.96582e-16)
(0.0536117 -0.020922 1.74965e-16)
(0.0572363 -0.0260121 2.17606e-16)
(0.0601792 -0.0316821 -9.54814e-16)
(0.0623459 -0.0379189 1.52925e-17)
(0.0637648 -0.0444186 4.9832e-16)
(0.0646424 -0.0504044 5.79228e-16)
(0.0651025 -0.0548536 -3.56645e-16)
(0.0647482 -0.0575228 1.51375e-16)
(0.0651841 -0.0644298 3.53466e-16)
(0.0595376 -0.0732266 -6.52217e-16)
(0.0464435 -0.0885255 -2.27598e-16)
(0.0253654 -0.111309 7.27893e-17)
(-0.00280893 -0.141392 2.22741e-16)
(-0.0331392 -0.173575 -1.15737e-16)
(-0.0610551 -0.202522 2.31181e-16)
(-0.0803711 -0.22279 -1.26828e-16)
(-0.0867213 -0.229641 -3.99986e-17)
(-0.077155 -0.220943 2.60805e-16)
(-0.0507259 -0.196646 -1.92916e-16)
(-0.00868069 -0.158873 -7.82235e-17)
(0.0462276 -0.111584 2.91424e-16)
(0.110509 -0.060903 -3.21015e-16)
(0.180227 -0.0117279 1.97837e-16)
(0.252156 0.0323414 1.32774e-16)
(0.321448 0.0683428 -2.2783e-16)
(0.390836 0.0987196 5.0411e-17)
(0.474665 0.136716 8.63269e-17)
(0.54904 0.157464 1.37785e-17)
(0.0105985 0.00397461 -6.97649e-18)
(0.0131392 0.00310522 -1.80757e-17)
(0.0145952 0.00188753 -8.27546e-18)
(0.016401 0.000878119 3.32732e-17)
(0.0182025 -0.000205367 2.99404e-20)
(0.0199978 -0.00139872 -9.28773e-18)
(0.0217996 -0.00270735 -4.15793e-18)
(0.0236314 -0.00413687 1.04105e-17)
(0.0254819 -0.00571972 4.08248e-17)
(0.0274658 -0.00749799 -4.48634e-17)
(0.0309408 -0.0100409 6.27977e-17)
(0.0347029 -0.0130277 -7.35162e-17)
(0.0383448 -0.0164104 5.70135e-17)
(0.041709 -0.0201882 3.18899e-16)
(0.044665 -0.024336 -4.05314e-16)
(0.0471245 -0.0288216 -1.93087e-16)
(0.0489863 -0.0336143 -1.01409e-16)
(0.0501481 -0.0387146 7.49916e-17)
(0.0505903 -0.0440309 2.83021e-16)
(0.0503756 -0.0492655 -1.3501e-16)
(0.0498974 -0.0536785 -3.96489e-16)
(0.0521704 -0.0602363 3.18312e-16)
(0.0533877 -0.0643563 3.43329e-16)
(0.053397 -0.0680267 -5.77525e-16)
(0.0507055 -0.0726103 2.48348e-16)
(0.0441344 -0.0794002 1.78923e-16)
(0.0328626 -0.0894931 -3.00667e-16)
(0.0171753 -0.103 5.52262e-16)
(-0.00180523 -0.119135 -1.50312e-16)
(-0.0220289 -0.136271 -4.41797e-16)
(-0.0408558 -0.15231 -9.71653e-19)
(-0.0554154 -0.164987 4.92283e-16)
(-0.0633319 -0.172606 -3.96195e-16)
(-0.0628281 -0.173907 -1.32083e-16)
(-0.0530229 -0.169551 2.8003e-16)
(-0.033474 -0.160219 2.27363e-17)
(-0.00442716 -0.147689 -5.13982e-17)
(0.0355629 -0.131646 -2.62397e-17)
(0.0828732 -0.104888 2.33425e-17)
(0.09365 -0.107985 -3.42216e-18)
(0.183836 -0.100707 4.25398e-17)
(0.00897445 0.00198102 1.3845e-17)
(0.0109307 0.00109021 -2.33716e-17)
(0.012025 3.68345e-05 -4.89116e-18)
(0.0133995 -0.000905581 -1.71292e-18)
(0.0147663 -0.0019029 1.87991e-17)
(0.0161334 -0.00299121 -1.38643e-17)
(0.0175099 -0.00416837 1.99784e-17)
(0.0189162 -0.0054424 2.26491e-17)
(0.0203508 -0.00683741 -5.88275e-17)
(0.0218386 -0.00838063 -3.95988e-17)
(0.0239501 -0.0104108 9.45682e-18)
(0.0269382 -0.0130451 -9.31882e-17)
(0.0298204 -0.0159906 -5.74942e-17)
(0.0325213 -0.0192044 1.47138e-16)
(0.0349245 -0.0226905 1.08555e-16)
(0.0369559 -0.0264039 4.83218e-18)
(0.0385565 -0.0303032 -4.47576e-17)
(0.0396527 -0.0343317 -7.90795e-17)
(0.0401914 -0.0384605 1.66028e-16)
(0.0400845 -0.0426606 2.04082e-16)
(0.0394537 -0.0467965 1.49622e-17)
(0.0407051 -0.0536805 -3.63841e-16)