/*--------------------------------*- C++ -*----------------------------------*\
| =========                 |                                                 |
| \\      /  F ield         | OpenFOAM: The Open Source CFD Toolbox           |
|  \\    /   O peration     | Version:  2312                                  |
|   \\  /    A nd           | Website:  www.openfoam.com                      |
|    \\/     M anipulation  |                                                 |
\*---------------------------------------------------------------------------*/
FoamFile
{
    version     2.0;
    format      ascii;
    arch        "LSB;label=32;scalar=64";
    class       volScalarField;
    location    "700";
    object      nut;
}
// * * * * * * * * * * * * * * * * * * * * * * * * * * * * * * * * * * * * * //

dimensions      [0 2 -1 0 0 0 0];

internalField   nonuniform List<scalar> 
11040
(
3.81612e-05
5.48993e-05
1.51607e-05
4.9509e-05
0.000188743
0.00018095
0.000171288
0.000160976
0.000148458
0.000140566
0.000132618
0.000125677
0.000119423
0.000114622
0.000110536
0.000108522
0.000108575
0.000110517
0.000113906
0.000118562
0.000124577
0.000131738
0.000139755
0.000148421
0.000157813
0.000168906
0.000181689
0.000194224
0.00020593
0.00021623
0.000224479
0.000230042
0.000233765
0.000240027
0.000258882
0.000245436
0.000169601
0.00018169
0.000201046
0.000222311
0.000295461
4.23462e-06
3.72091e-05
5.59031e-05
0.000145425
0.000603868
0.000626027
0.000551522
0.000506551
0.000441229
0.000405169
0.000369073
0.000340869
0.000314197
0.000294325
0.000275646
0.000263115
0.000257601
0.000257302
0.000259648
0.000263645
0.000269514
0.000277349
0.000285565
0.00029298
0.000300398
0.000315154
0.000342612
0.000374712
0.000410891
0.000451278
0.00049609
0.000545635
0.000599295
0.000658882
0.000726662
0.000795598
0.000865806
0.000958581
0.00106927
0.00115916
0.00162311
5.50224e-06
9.54903e-06
3.02018e-05
6.65775e-05
0.000417551
0.000971053
0.00118682
0.00114292
0.00100182
0.000925461
0.000843637
0.000783418
0.000724117
0.000681511
0.000639976
0.000607096
0.00058206
0.000562932
0.000551852
0.00054778
0.00055224
0.000566202
0.000590404
0.000625694
0.00067218
0.000729711
0.000798051
0.000876737
0.000965396
0.00106345
0.00116986
0.00128381
0.00140547
0.00153548
0.00167496
0.00182409
0.00198961
0.00219307
0.00244144
0.0026865
0.00351851
6.47977e-06
5.17739e-06
1.07178e-05
1.13537e-05
0.000141784
0.00060367
0.00131466
0.00170977
0.00177588
0.00168116
0.00153806
0.00143961
0.00133532
0.00126002
0.00118563
0.00112426
0.00107912
0.00104335
0.00102208
0.00101356
0.00101972
0.00104351
0.00108747
0.00115276
0.00123889
0.00134477
0.00146948
0.00161207
0.00177162
0.00194716
0.00213716
0.00234027
0.00255547
0.00278309
0.00302409
0.00328165
0.00356938
0.00391651
0.00434326
0.00480865
0.00598822
6.20462e-06
5.75853e-06
6.4221e-06
5.38342e-06
5.00915e-06
0.000181267
0.000719607
0.00157569
0.00226251
0.00246689
0.00247409
0.0023638
0.00219972
0.00208548
0.00197243
0.0018715
0.00180064
0.00174236
0.00170673
0.00169187
0.00169812
0.001731
0.00179671
0.00189718
0.00203169
0.00219897
0.00239728
0.00262448
0.00287857
0.00315772
0.00345892
0.00377941
0.00411716
0.00447191
0.00484429
0.00523876
0.00567325
0.00619347
0.00683349
0.00757828
0.00907046
6.094e-06
6.18491e-06
5.89626e-06
6.59256e-06
1.65277e-06
9.66236e-07
0.000177517
0.000743781
0.00173533
0.00274914
0.00321364
0.00337864
0.00336241
0.00325028
0.00307362
0.00291451
0.00280976
0.00272031
0.00266246
0.00263814
0.00264208
0.00268182
0.00277061
0.00291222
0.00310563
0.00334974
0.00364197
0.00397812
0.00435392
0.00476644
0.0052102
0.00567993
0.0061718
0.0066845
0.00721757
0.00777588
0.00838168
0.00909638
0.00997794
0.0110475
0.0128657
6.10454e-06
6.13791e-06
6.01101e-06
6.3622e-06
5.89718e-06
4.001e-07
4.15856e-09
0.000125094
0.000673702
0.00173419
0.00304182
0.00397016
0.00434208
0.00448017
0.00446932
0.00436675
0.00421906
0.00407012
0.00397762
0.00393989
0.00393985
0.00398227
0.00409259
0.00427922
0.00454034
0.00487594
0.0052832
0.00575516
0.00628265
0.00686162
0.00748292
0.00813677
0.00881622
0.00951826
0.01024
0.0109853
0.0117805
0.0126987
0.0138346
0.0152528
0.0174445
6.1145e-06
6.11185e-06
6.13141e-06
6.04849e-06
6.57577e-06
6.00089e-06
1.4303e-08
4.81169e-11
5.74138e-05
0.00052599
0.00154897
0.00306103
0.00452595
0.00532757
0.0056888
0.00582931
0.00585438
0.0058043
0.00573635
0.00568158
0.00568072
0.00573831
0.00587405
0.0061105
0.00644574
0.0068841
0.0074253
0.00806124
0.00877162
0.00955192
0.0103883
0.0112631
0.0121638
0.0130851
0.01402
0.0149679
0.0159583
0.0170725
0.0184465
0.0202004
0.0227768
6.11257e-06
6.11608e-06
6.11188e-06
6.13065e-06
5.99705e-06
7.18259e-06
5.31989e-06
9.23619e-08
3.78031e-07
9.09464e-07
0.000326285
0.00120695
0.00275764
0.00465242
0.0061677
0.00691863
0.00731638
0.00751803
0.00764073
0.00772361
0.00782296
0.00796481
0.00819051
0.00852817
0.00897877
0.00954229
0.0102268
0.011038
0.0119601
0.0129748
0.0140639
0.0151974
0.0163509
0.017517
0.0186833
0.0198377
0.0210125
0.0222982
0.0238447
0.0258638
0.0287655
6.11181e-06
6.11335e-06
6.11295e-06
6.11878e-06
6.09702e-06
6.04734e-06
7.38203e-06
4.81986e-06
4.14099e-07
1.63142e-08
2.64377e-05
0.000134985
0.000795947
0.00218433
0.00425337
0.00646548
0.00803024
0.00883513
0.00934734
0.00970989
0.010046
0.0103987
0.0108302
0.0113838
0.012079
0.0129159
0.0138841
0.014966
0.016144
0.0174171
0.0187862
0.0202076
0.0216324
0.0230516
0.0244538
0.0257991
0.0271189
0.0285181
0.0301303
0.0322587
0.0353131
6.11051e-06
6.11141e-06
6.11274e-06
6.10842e-06
6.12654e-06
6.05177e-06
6.18354e-06
7.06811e-06
5.82558e-06
1.24118e-06
6.66023e-09
7.3382e-07
5.25842e-07
0.00038504
0.0014468
0.00337417
0.0059476
0.00848808
0.0102185
0.0112193
0.0119884
0.012667
0.0133881
0.0142327
0.0152546
0.0164713
0.0178788
0.0194591
0.0211781
0.0229877
0.0248244
0.026615
0.0283196
0.0299774
0.0316129
0.0331131
0.0344917
0.0359182
0.0374704
0.0394262
0.0422947
6.10903e-06
6.10985e-06
6.10968e-06
6.11017e-06
6.10797e-06
6.11627e-06
6.06003e-06
6.17473e-06
6.78299e-06
6.52435e-06
2.80969e-06
1.30737e-09
1.61245e-09
2.94838e-05
0.000108863
0.000748148
0.00223319
0.00468687
0.00778131
0.0107658
0.0128833
0.0142548
0.0154279
0.0166296
0.018002
0.0196086
0.0214652
0.0235693
0.025889
0.0283698
0.0309435
0.0335298
0.0360377
0.0383759
0.040426
0.0420669
0.0433618
0.0447198
0.0460558
0.0475556
0.0497898
6.10767e-06
6.10809e-06
6.10798e-06
6.10783e-06
6.10746e-06
6.10722e-06
6.1075e-06
6.07809e-06
6.13486e-06
6.52981e-06
7.0177e-06
4.28926e-06
1.61787e-07
1.65719e-09
1.67894e-07
0.000105836
0.000237097
0.00114018
0.00302555
0.00599341
0.00968741
0.0132473
0.0159121
0.0178666
0.0197175
0.0217373
0.0240024
0.0265663
0.0294167
0.0324976
0.0357385
0.039057
0.0423575
0.0455443
0.048515
0.0511555
0.0533673
0.0550684
0.0561554
0.0569549
0.0584109
6.10644e-06
6.10671e-06
6.10671e-06
6.10673e-06
6.10634e-06
6.10587e-06
6.10562e-06
6.10566e-06
6.08934e-06
6.09386e-06
6.32764e-06
7.11557e-06
5.90025e-06
1.42386e-06
8.86692e-11
4.51579e-11
1.71205e-06
0.000177401
0.000367105
0.00147245
0.00369541
0.00699371
0.0109111
0.0149631
0.0186273
0.0217093
0.0245508
0.0275651
0.0308806
0.0344626
0.0382564
0.042194
0.0461739
0.0500978
0.0538636
0.0573721
0.0605325
0.0632831
0.0655529
0.0673108
0.0685892
6.10538e-06
6.1061e-06
6.10625e-06
6.10627e-06
6.10594e-06
6.10559e-06
6.10516e-06
6.10509e-06
6.10524e-06
6.09835e-06
6.06625e-06
6.20883e-06
6.86063e-06
6.7517e-06
4.31793e-06
2.34803e-07
2.67908e-09
6.15145e-13
6.94532e-06
0.000224053
0.000431675
0.00156883
0.00361612
0.00662689
0.0104413
0.0148135
0.0194679
0.0241012
0.0285178
0.0327855
0.0371071
0.0415876
0.0461764
0.0507654
0.0552466
0.0595212
0.0635125
0.0671835
0.0704654
0.0733002
0.0756794
6.10452e-06
6.10579e-06
6.1058e-06
6.10554e-06
6.10516e-06
6.10477e-06
6.10447e-06
6.10415e-06
6.10408e-06
6.10485e-06
6.10102e-06
6.06548e-06
6.14185e-06
6.43144e-06
7.1422e-06
5.84999e-06
2.82029e-06
8.13884e-09
4.39562e-10
4.18667e-14
1.03293e-05
0.000197453
0.000256582
0.00103631
0.00250341
0.00479666
0.00794444
0.011909
0.0166121
0.0219435
0.0277232
0.0336728
0.0395108
0.0450989
0.0504269
0.0555185
0.0603702
0.0649688
0.0692478
0.0731347
0.0765996
6.1038e-06
6.10512e-06
6.1048e-06
6.10424e-06
6.10376e-06
6.10338e-06
6.10311e-06
6.10287e-06
6.10275e-06
6.10254e-06
6.10408e-06
6.09988e-06
6.08425e-06
6.07611e-06
6.26258e-06
6.69811e-06
7.12309e-06
5.06015e-06
1.47743e-06
6.62197e-10
1.87608e-10
2.952e-14
9.90744e-07
7.17498e-05
1.22337e-07
0.000322167
0.00101586
0.00225443
0.00418215
0.00686921
0.0103755
0.0147202
0.0198676
0.0257361
0.0321578
0.0388649
0.0455399
0.0519507
0.0579014
0.0632898
0.0681147
6.10288e-06
6.10391e-06
6.1036e-06
6.10309e-06
6.10266e-06
6.10234e-06
6.10214e-06
6.10192e-06
6.10175e-06
6.10161e-06
6.10159e-06
6.1025e-06
6.10141e-06
6.09214e-06
6.06985e-06
6.12736e-06
6.36759e-06
6.97689e-06
6.96584e-06
4.70218e-06
1.10367e-06
5.46843e-10
2.08747e-10
6.46981e-13
6.2247e-12
1.39938e-06
5.06622e-05
0.000182787
3.05916e-05
0.00034518
0.00102741
0.00218205
0.00389892
0.0062923
0.00942736
0.0133224
0.0179384
0.0232462
0.0291082
0.0353437
0.0417531
6.10172e-06
6.10238e-06
6.10189e-06
6.10128e-06
6.10079e-06
6.10047e-06
6.10027e-06
6.10018e-06
6.10015e-06
6.10017e-06
6.1001e-06
6.10016e-06
6.10043e-06
6.10155e-06
6.09544e-06
6.08422e-06
6.06793e-06
6.18778e-06
6.52267e-06
7.04746e-06
6.81566e-06
4.43582e-06
1.65744e-06
1.48615e-08
6.64867e-10
3.01868e-11
2.23186e-13
0
1.86852e-09
1.20582e-06
4.07972e-05
0.000143335
0.000296918
0.00012665
0.000419017
0.0010694
0.00211943
0.00364874
0.00571254
0.00833061
0.0115736
6.10047e-06
6.10082e-06
6.10023e-06
6.09961e-06
6.09916e-06
6.09889e-06
6.09875e-06
6.0987e-06
6.0987e-06
6.09875e-06
6.09882e-06
6.0989e-06
6.09889e-06
6.09918e-06
6.09967e-06
6.09904e-06
6.08951e-06
6.07323e-06
6.0825e-06
6.2392e-06
6.62341e-06
7.03518e-06
6.95139e-06
5.22297e-06
2.65678e-06
8.41607e-07
6.97618e-09
4.56834e-10
3.18241e-11
7.78046e-12
3.18616e-14
0
0
2.3539e-08
1.5798e-06
3.34104e-05
0.000117205
0.000222043
0.000350151
8.35473e-08
0.000403156
6.09916e-06
6.09927e-06
6.09868e-06
6.09815e-06
6.09782e-06
6.09767e-06
6.09763e-06
6.09766e-06
6.09773e-06
6.09782e-06
6.09793e-06
6.09803e-06
6.09813e-06
6.09819e-06
6.09837e-06
6.09874e-06
6.09922e-06
6.09562e-06
6.08202e-06
6.06641e-06
6.09472e-06
6.26956e-06
6.57187e-06
7.03206e-06
7.06027e-06
6.558e-06
4.96236e-06
2.86426e-06
1.21836e-06
3.33212e-07
1.50683e-09
2.26708e-10
2.7027e-11
1.00577e-11
2.58096e-12
5.34541e-14
0
0
0
9.68695e-13
7.66785e-07
6.09782e-06
6.09783e-06
6.09735e-06
6.09701e-06
6.09688e-06
6.0969e-06
6.097e-06
6.09714e-06
6.09729e-06
6.09744e-06
6.09758e-06
6.0977e-06
6.09782e-06
6.09791e-06
6.09799e-06
6.09805e-06
6.09836e-06
6.09892e-06
6.09843e-06
6.09258e-06
6.07621e-06
6.06763e-06
6.08911e-06
6.21286e-06
6.44753e-06
6.73403e-06
7.09786e-06
7.17254e-06
6.77383e-06
5.99695e-06
4.58535e-06
2.96907e-06
1.57993e-06
6.51647e-07
1.84631e-07
4.20419e-09
2.66746e-10
2.49784e-11
1.38486e-11
6.55928e-12
2.40553e-12
6.09652e-06
6.09656e-06
6.09632e-06
6.09626e-06
6.09637e-06
6.09659e-06
6.09685e-06
6.0971e-06
6.09734e-06
6.09755e-06
6.09774e-06
6.09789e-06
6.09802e-06
6.09813e-06
6.09822e-06
6.09828e-06
6.09832e-06
6.09844e-06
6.09887e-06
6.0994e-06
6.09783e-06
6.09087e-06
6.07817e-06
6.06551e-06
6.07651e-06
6.12378e-06
6.24588e-06
6.44801e-06
6.69926e-06
6.94244e-06
7.20315e-06
7.25692e-06
7.02514e-06
6.48402e-06
5.7271e-06
4.67515e-06
3.49887e-06
2.37222e-06
1.47628e-06
7.72556e-07
3.16346e-07
6.09532e-06
6.09555e-06
6.09564e-06
6.09589e-06
6.09625e-06
6.09666e-06
6.09705e-06
6.09741e-06
6.09773e-06
6.098e-06
6.09824e-06
6.09843e-06
6.09859e-06
6.09872e-06
6.09883e-06
6.09891e-06
6.09897e-06
6.099e-06
6.09905e-06
6.09924e-06
6.09977e-06
6.09991e-06
6.0986e-06
6.09334e-06
6.08382e-06
6.07239e-06
6.06408e-06
6.07139e-06
6.10931e-06
6.18102e-06
6.30249e-06
6.47037e-06
6.66842e-06
6.87483e-06
7.05938e-06
7.23617e-06
7.31951e-06
7.25767e-06
7.03778e-06
6.64495e-06
6.14862e-06
6.09427e-06
6.09482e-06
6.09529e-06
6.09584e-06
6.09642e-06
6.09697e-06
6.09747e-06
6.09791e-06
6.09829e-06
6.09862e-06
6.0989e-06
6.09914e-06
6.09934e-06
6.0995e-06
6.09964e-06
6.09975e-06
6.09984e-06
6.09991e-06
6.09996e-06
6.09998e-06
6.10008e-06
6.10032e-06
6.10071e-06
6.10101e-06
6.10037e-06
6.09795e-06
6.0925e-06
6.08367e-06
6.07334e-06
6.06495e-06
6.06197e-06
6.07056e-06
6.09623e-06
6.14379e-06
6.2131e-06
6.30792e-06
6.4262e-06
6.5655e-06
6.7158e-06
6.86944e-06
7.0078e-06
6.09344e-06
6.09439e-06
6.09521e-06
6.096e-06
6.09673e-06
6.09739e-06
6.09796e-06
6.09846e-06
6.09889e-06
6.09926e-06
6.09958e-06
6.09986e-06
6.1001e-06
6.10031e-06
6.10048e-06
6.10064e-06
6.10076e-06
6.10087e-06
6.10097e-06
6.10104e-06
6.10112e-06
6.10118e-06
6.10127e-06
6.10147e-06
6.10179e-06
6.10217e-06
6.10233e-06
6.10175e-06
6.09976e-06
6.09602e-06
6.0903e-06
6.08288e-06
6.07464e-06
6.067e-06
6.06175e-06
6.06037e-06
6.06469e-06
6.07733e-06
6.09925e-06
6.13392e-06
6.17305e-06
6.09285e-06
6.0942e-06
6.09531e-06
6.09626e-06
6.09709e-06
6.0978e-06
6.09842e-06
6.09896e-06
6.09944e-06
6.09985e-06
6.10022e-06
6.10054e-06
6.10082e-06
6.10107e-06
6.10129e-06
6.10148e-06
6.10165e-06
6.1018e-06
6.10194e-06
6.10206e-06
6.10219e-06
6.10229e-06
6.10238e-06
6.10245e-06
6.10254e-06
6.10267e-06
6.1029e-06
6.10323e-06
6.10358e-06
6.10381e-06
6.10372e-06
6.10306e-06
6.10162e-06
6.09919e-06
6.09574e-06
6.09129e-06
6.08602e-06
6.08011e-06
6.07402e-06
6.06836e-06
6.06378e-06
6.0925e-06
6.09418e-06
6.09547e-06
6.09651e-06
6.09739e-06
6.09815e-06
6.09881e-06
6.09939e-06
6.09991e-06
6.10037e-06
6.10077e-06
6.10114e-06
6.10146e-06
6.10175e-06
6.10201e-06
6.10225e-06
6.10246e-06
6.10266e-06
6.10284e-06
6.103e-06
6.10317e-06
6.10333e-06
6.10346e-06
6.10358e-06
6.10368e-06
6.10377e-06
6.10385e-06
6.10396e-06
6.1041e-06
6.10429e-06
6.10454e-06
6.10483e-06
6.10513e-06
6.10538e-06
6.10551e-06
6.10545e-06
6.10511e-06
6.1044e-06
6.10331e-06
6.10161e-06
6.09994e-06
6.09234e-06
6.09424e-06
6.09562e-06
6.0967e-06
6.09762e-06
6.09841e-06
6.09911e-06
6.09974e-06
6.1003e-06
6.1008e-06
6.10126e-06
6.10166e-06
6.10203e-06
6.10237e-06
6.10267e-06
6.10295e-06
6.10321e-06
6.10344e-06
6.10367e-06
6.10387e-06
6.10408e-06
6.10428e-06
6.10445e-06
6.10461e-06
6.10476e-06
6.1049e-06
6.10502e-06
6.10513e-06
6.10523e-06
6.10533e-06
6.10543e-06
6.10555e-06
6.10569e-06
6.10586e-06
6.10606e-06
6.10629e-06
6.10654e-06
6.1068e-06
6.10707e-06
6.10731e-06
6.10752e-06
6.09229e-06
6.09427e-06
6.09569e-06
6.09681e-06
6.09775e-06
6.09859e-06
6.09933e-06
6.1e-06
6.10061e-06
6.10116e-06
6.10166e-06
6.10211e-06
6.10253e-06
6.10291e-06
6.10326e-06
6.10358e-06
6.10388e-06
6.10416e-06
6.10442e-06
6.10467e-06
6.10492e-06
6.10515e-06
6.10537e-06
6.10557e-06
6.10575e-06
6.10593e-06
6.10609e-06
6.10624e-06
6.10639e-06
6.10652e-06
6.10665e-06
6.10678e-06
6.1069e-06
6.10702e-06
6.10715e-06
6.10727e-06
6.10741e-06
6.10756e-06
6.10772e-06
6.1079e-06
6.10807e-06
6.09226e-06
6.09424e-06
6.09567e-06
6.09682e-06
6.0978e-06
6.09867e-06
6.09945e-06
6.10017e-06
6.10082e-06
6.10142e-06
6.10197e-06
6.10247e-06
6.10294e-06
6.10337e-06
6.10376e-06
6.10413e-06
6.10447e-06
6.1048e-06
6.10511e-06
6.1054e-06
6.10569e-06
6.10596e-06
6.10621e-06
6.10645e-06
6.10667e-06
6.10688e-06
6.10708e-06
6.10727e-06
6.10745e-06
6.10762e-06
6.10779e-06
6.10796e-06
6.10812e-06
6.10828e-06
6.10844e-06
6.10859e-06
6.10875e-06
6.1089e-06
6.10906e-06
6.10922e-06
6.10939e-06
6.09214e-06
6.09412e-06
6.09556e-06
6.09673e-06
6.09773e-06
6.09864e-06
6.09947e-06
6.10023e-06
6.10094e-06
6.10159e-06
6.10219e-06
6.10275e-06
6.10327e-06
6.10375e-06
6.10419e-06
6.10461e-06
6.105e-06
6.10537e-06
6.10572e-06
6.10605e-06
6.10639e-06
6.1067e-06
6.10699e-06
6.10726e-06
6.10752e-06
6.10776e-06
6.108e-06
6.10822e-06
6.10844e-06
6.10864e-06
6.10885e-06
6.10905e-06
6.10924e-06
6.10944e-06
6.10963e-06
6.10982e-06
6.11001e-06
6.1102e-06
6.1104e-06
6.11059e-06
6.11079e-06
6.09195e-06
6.09391e-06
6.09535e-06
6.09652e-06
6.09756e-06
6.09851e-06
6.09938e-06
6.1002e-06
6.10096e-06
6.10167e-06
6.10233e-06
6.10295e-06
6.10352e-06
6.10405e-06
6.10455e-06
6.10502e-06
6.10546e-06
6.10587e-06
6.10627e-06
6.10665e-06
6.10702e-06
6.10737e-06
6.1077e-06
6.10801e-06
6.10831e-06
6.10859e-06
6.10885e-06
6.10911e-06
6.10936e-06
6.1096e-06
6.10984e-06
6.11006e-06
6.11029e-06
6.11052e-06
6.11074e-06
6.11096e-06
6.11118e-06
6.1114e-06
6.11163e-06
6.11185e-06
6.11208e-06
6.09167e-06
6.09359e-06
6.09501e-06
6.0962e-06
6.09726e-06
6.09825e-06
6.09918e-06
6.10006e-06
6.10088e-06
6.10165e-06
6.10238e-06
6.10306e-06
6.10369e-06
6.10428e-06
6.10484e-06
6.10536e-06
6.10585e-06
6.10632e-06
6.10676e-06
6.10718e-06
6.1076e-06
6.10799e-06
6.10836e-06
6.10871e-06
6.10904e-06
6.10936e-06
6.10966e-06
6.10995e-06
6.11023e-06
6.1105e-06
6.11077e-06
6.11103e-06
6.11128e-06
6.11153e-06
6.11178e-06
6.11203e-06
6.11228e-06
6.11253e-06
6.11278e-06
6.11303e-06
6.11328e-06
6.09127e-06
6.09314e-06
6.09454e-06
6.09575e-06
6.09685e-06
6.09788e-06
6.09887e-06
6.09981e-06
6.1007e-06
6.10154e-06
6.10233e-06
6.10307e-06
6.10377e-06
6.10443e-06
6.10504e-06
6.10562e-06
6.10617e-06
6.10669e-06
6.10718e-06
6.10766e-06
6.10812e-06
6.10856e-06
6.10897e-06
6.10935e-06
6.10972e-06
6.11007e-06
6.11041e-06
6.11073e-06
6.11105e-06
6.11135e-06
6.11164e-06
6.11193e-06
6.11221e-06
6.11249e-06
6.11277e-06
6.11304e-06
6.11332e-06
6.11359e-06
6.11386e-06
6.11413e-06
6.11441e-06
6.09075e-06
6.09255e-06
6.09394e-06
6.09516e-06
6.09629e-06
6.09738e-06
6.09843e-06
6.09943e-06
6.10038e-06
6.10129e-06
6.10216e-06
6.10297e-06
6.10374e-06
6.10446e-06
6.10514e-06
6.10579e-06
6.10639e-06
6.10697e-06
6.10752e-06
6.10804e-06
6.10856e-06
6.10904e-06
6.1095e-06
6.10993e-06
6.11033e-06
6.11072e-06
6.11109e-06
6.11145e-06
6.1118e-06
6.11213e-06
6.11245e-06
6.11277e-06
6.11308e-06
6.11338e-06
6.11368e-06
6.11398e-06
6.11428e-06
6.11457e-06
6.11486e-06
6.11515e-06
6.11545e-06
6.09009e-06
6.09182e-06
6.09319e-06
6.09442e-06
6.09559e-06
6.09673e-06
6.09783e-06
6.0989e-06
6.09992e-06
6.1009e-06
6.10183e-06
6.10272e-06
6.10356e-06
6.10435e-06
6.1051e-06
6.10581e-06
6.10648e-06
6.10712e-06
6.10773e-06
6.10831e-06
6.10888e-06
6.10941e-06
6.10991e-06
6.11039e-06
6.11084e-06
6.11127e-06
6.11168e-06
6.11207e-06
6.11245e-06
6.11281e-06
6.11316e-06
6.11351e-06
6.11384e-06
6.11417e-06
6.1145e-06
6.11482e-06
6.11513e-06
6.11544e-06
6.11575e-06
6.11605e-06
6.11637e-06
6.08927e-06
6.09093e-06
6.09228e-06
6.09353e-06
6.09473e-06
6.09591e-06
6.09706e-06
6.09818e-06
6.09926e-06
6.10031e-06
6.10131e-06
6.10226e-06
6.10317e-06
6.10404e-06
6.10486e-06
6.10564e-06
6.10638e-06
6.10709e-06
6.10776e-06
6.1084e-06
6.10902e-06
6.10961e-06
6.11016e-06
6.11068e-06
6.11118e-06
6.11165e-06
6.1121e-06
6.11253e-06
6.11294e-06
6.11334e-06
6.11372e-06
6.11409e-06
6.11445e-06
6.1148e-06
6.11515e-06
6.11548e-06
6.11582e-06
6.11614e-06
6.11647e-06
6.11678e-06
6.1171e-06
6.08829e-06
6.08987e-06
6.0912e-06
6.09245e-06
6.09368e-06
6.09488e-06
6.09607e-06
6.09723e-06
6.09836e-06
6.09946e-06
6.10052e-06
6.10154e-06
6.10252e-06
6.10346e-06
6.10436e-06
6.10521e-06
6.10602e-06
6.10679e-06
6.10753e-06
6.10823e-06
6.10891e-06
6.10956e-06
6.11016e-06
6.11073e-06
6.11127e-06
6.11179e-06
6.11228e-06
6.11274e-06
6.11319e-06
6.11362e-06
6.11403e-06
6.11443e-06
6.11482e-06
6.11519e-06
6.11556e-06
6.11591e-06
6.11626e-06
6.11661e-06
6.11695e-06
6.11727e-06
6.1176e-06
6.08713e-06
6.08863e-06
6.08993e-06
6.09117e-06
6.09239e-06
6.0936e-06
6.0948e-06
6.09599e-06
6.09715e-06
6.0983e-06
6.09941e-06
6.1005e-06
6.10154e-06
6.10255e-06
6.10352e-06
6.10444e-06
6.10532e-06
6.10616e-06
6.10697e-06
6.10774e-06
6.10848e-06
6.10918e-06
6.10984e-06
6.11046e-06
6.11105e-06
6.11161e-06
6.11214e-06
6.11265e-06
6.11313e-06
6.11359e-06
6.11403e-06
6.11445e-06
6.11486e-06
6.11526e-06
6.11564e-06
6.11601e-06
6.11637e-06
6.11672e-06
6.11706e-06
6.11739e-06
6.11772e-06
6.08577e-06
6.08719e-06
6.08844e-06
6.08965e-06
6.09084e-06
6.09203e-06
6.09322e-06
6.09441e-06
6.0956e-06
6.09678e-06
6.09794e-06
6.09908e-06
6.10018e-06
6.10126e-06
6.10229e-06
6.10328e-06
6.10423e-06
6.10514e-06
6.10601e-06
6.10684e-06
6.10764e-06
6.1084e-06
6.10911e-06
6.10978e-06
6.11042e-06
6.11102e-06
6.11159e-06
6.11213e-06
6.11265e-06
6.11314e-06
6.11361e-06
6.11406e-06
6.11449e-06
6.11491e-06
6.11531e-06
6.11569e-06
6.11607e-06
6.11643e-06
6.11679e-06
6.11712e-06
6.11746e-06
6.08421e-06
6.08552e-06
6.08671e-06
6.08785e-06
6.08898e-06
6.09012e-06
6.09128e-06
6.09246e-06
6.09366e-06
6.09486e-06
6.09606e-06
6.09724e-06
6.0984e-06
6.09953e-06
6.10062e-06
6.10168e-06
6.1027e-06
6.10367e-06
6.10461e-06
6.1055e-06
6.10636e-06
6.10717e-06
6.10794e-06
6.10866e-06
6.10935e-06
6.11e-06
6.11061e-06
6.11119e-06
6.11173e-06
6.11225e-06
6.11275e-06
6.11322e-06
6.11367e-06
6.11409e-06
6.1145e-06
6.11489e-06
6.11527e-06
6.11563e-06
6.11598e-06
6.1163e-06
6.11663e-06
6.08242e-06
6.08362e-06
6.08469e-06
6.08573e-06
6.08678e-06
6.08785e-06
6.08897e-06
6.09012e-06
6.09131e-06
6.09251e-06
6.09373e-06
6.09494e-06
6.09614e-06
6.09732e-06
6.09847e-06
6.09959e-06
6.10066e-06
6.1017e-06
6.10269e-06
6.10364e-06
6.10454e-06
6.10541e-06
6.10622e-06
6.10698e-06
6.10771e-06
6.10839e-06
6.10904e-06
6.10965e-06
6.11022e-06
6.11077e-06
6.11129e-06
6.11178e-06
6.11225e-06
6.11269e-06
6.11312e-06
6.11353e-06
6.11392e-06
6.11429e-06
6.11465e-06
6.115e-06
6.11533e-06
6.08039e-06
6.08143e-06
6.08237e-06
6.08328e-06
6.08422e-06
6.08521e-06
6.08626e-06
6.08736e-06
6.08851e-06
6.0897e-06
6.0909e-06
6.09212e-06
6.09334e-06
6.09454e-06
6.09572e-06
6.09688e-06
6.098e-06
6.09908e-06
6.10013e-06
6.10114e-06
6.10211e-06
6.10303e-06
6.1039e-06
6.10472e-06
6.1055e-06
6.10624e-06
6.10693e-06
6.10758e-06
6.1082e-06
6.10877e-06
6.10932e-06
6.10983e-06
6.11031e-06
6.11077e-06
6.1112e-06
6.1116e-06
6.11198e-06
6.11234e-06
6.11269e-06
6.113e-06
6.11331e-06
6.07809e-06
6.07895e-06
6.07972e-06
6.08048e-06
6.08129e-06
6.08218e-06
6.08313e-06
6.08415e-06
6.08522e-06
6.08634e-06
6.0875e-06
6.08868e-06
6.08987e-06
6.09107e-06
6.09227e-06
6.09345e-06
6.0946e-06
6.09572e-06
6.0968e-06
6.09784e-06
6.09883e-06
6.09977e-06
6.10067e-06
6.10151e-06
6.10231e-06
6.10306e-06
6.10377e-06
6.10444e-06
6.10507e-06
6.10567e-06
6.10623e-06
6.10676e-06
6.10726e-06
6.10773e-06
6.10818e-06
6.1086e-06
6.109e-06
6.10939e-06
6.10975e-06
6.11009e-06
6.11042e-06
6.07549e-06
6.07614e-06
6.07672e-06
6.07732e-06
6.07799e-06
6.07873e-06
6.07955e-06
6.08043e-06
6.08137e-06
6.08237e-06
6.08341e-06
6.0845e-06
6.08561e-06
6.08674e-06
6.08786e-06
6.08898e-06
6.09009e-06
6.09119e-06
6.09228e-06
6.09335e-06
6.0944e-06
6.0954e-06
6.09637e-06
6.09729e-06
6.09817e-06
6.099e-06
6.09979e-06
6.10053e-06
6.10122e-06
6.10187e-06
6.10248e-06
6.10305e-06
6.10359e-06
6.10408e-06
6.10455e-06
6.10498e-06
6.10538e-06
6.10576e-06
6.10611e-06
6.10642e-06
6.10673e-06
6.07258e-06
6.07298e-06
6.07335e-06
6.07378e-06
6.07426e-06
6.07481e-06
6.07541e-06
6.07607e-06
6.07678e-06
6.07755e-06
6.07838e-06
6.07926e-06
6.08021e-06
6.08124e-06
6.08235e-06
6.08353e-06
6.08472e-06
6.08589e-06
6.08703e-06
6.08812e-06
6.08917e-06
6.09017e-06
6.09112e-06
6.09202e-06
6.09288e-06
6.09369e-06
6.09446e-06
6.09518e-06
6.09586e-06
6.0965e-06
6.0971e-06
6.09766e-06
6.09819e-06
6.09868e-06
6.09915e-06
6.09958e-06
6.09998e-06
6.10036e-06
6.10071e-06
6.10105e-06
6.10136e-06
6.06932e-06
6.06946e-06
6.0696e-06
6.06977e-06
6.06998e-06
6.07022e-06
6.07049e-06
6.07079e-06
6.07113e-06
6.07148e-06
6.07186e-06
6.07226e-06
6.07266e-06
6.07307e-06
6.07347e-06
6.07392e-06
6.07432e-06
6.0747e-06
6.07509e-06
6.07551e-06
6.07595e-06
6.07643e-06
6.07693e-06
6.07745e-06
6.07799e-06
6.07854e-06
6.07909e-06
6.07964e-06
6.08018e-06
6.08071e-06
6.08122e-06
6.08172e-06
6.08219e-06
6.08265e-06
6.08309e-06
6.0835e-06
6.0839e-06
6.08427e-06
6.08462e-06
6.08494e-06
6.08528e-06
0.0037133
0.00717803
0.00995941
0.0116438
0.0123349
0.0122565
0.0115506
0.0102622
0.00832289
0.00563155
0.00244231
0.000268378
1.16849e-05
1.44563e-08
4.10211e-06
7.37907e-06
6.26746e-06
6.0476e-06
6.10849e-06
6.10926e-06
6.10435e-06
6.10528e-06
6.10432e-06
6.102e-06
6.09968e-06
6.09757e-06
6.09582e-06
6.09448e-06
6.09356e-06
6.09297e-06
6.09259e-06
6.09234e-06
6.09215e-06
6.09196e-06
6.09175e-06
6.09152e-06
6.09127e-06
6.09104e-06
6.09083e-06
6.09064e-06
6.09047e-06
6.0903e-06
6.09011e-06
6.08989e-06
6.08964e-06
6.08935e-06
6.08902e-06
6.08866e-06
6.08824e-06
6.08778e-06
6.08724e-06
6.08664e-06
6.08594e-06
6.08514e-06
6.08423e-06
6.08322e-06
6.0821e-06
6.08092e-06
6.07968e-06
6.07846e-06
6.07727e-06
6.07617e-06
6.07519e-06
6.07441e-06
6.07395e-06
6.07402e-06
6.07483e-06
6.07653e-06
6.07912e-06
6.08263e-06
6.08673e-06
6.09152e-06
6.09547e-06
6.1049e-06
0.00631893
0.010936
0.0142411
0.0160903
0.0167986
0.016696
0.0159699
0.0146641
0.012711
0.00999282
0.00644029
0.00256277
0.000193315
4.41473e-06
2.36335e-08
4.19509e-06
7.38125e-06
6.23283e-06
6.02841e-06
6.11485e-06
6.11332e-06
6.10164e-06
6.10279e-06
6.10279e-06
6.1002e-06
6.09776e-06
6.09602e-06
6.09473e-06
6.09385e-06
6.09332e-06
6.09298e-06
6.09276e-06
6.09259e-06
6.09243e-06
6.09226e-06
6.09205e-06
6.09183e-06
6.09161e-06
6.0914e-06
6.09122e-06
6.09104e-06
6.09086e-06
6.09067e-06
6.09045e-06
6.09021e-06
6.08992e-06
6.0896e-06
6.08924e-06
6.08883e-06
6.08837e-06
6.08785e-06
6.08725e-06
6.08656e-06
6.08577e-06
6.08486e-06
6.08385e-06
6.08272e-06
6.08152e-06
6.08026e-06
6.079e-06
6.07776e-06
6.07659e-06
6.07553e-06
6.07465e-06
6.07406e-06
6.07399e-06
6.07466e-06
6.07624e-06
6.07876e-06
6.08226e-06
6.08638e-06
6.09119e-06
6.09515e-06
6.10454e-06
0.00881677
0.0148532
0.0188844
0.0210055
0.021791
0.0216859
0.0209342
0.0196068
0.0176531
0.0149728
0.0114625
0.00712161
0.00266216
0.000138012
3.70493e-06
2.34743e-08
3.32448e-06
7.63381e-06
6.34587e-06
5.96231e-06
6.11411e-06
6.13922e-06
6.10793e-06
6.09896e-06
6.09981e-06
6.09849e-06
6.09634e-06
6.09504e-06
6.09436e-06
6.09387e-06
6.09351e-06
6.09328e-06
6.09313e-06
6.09299e-06
6.09284e-06
6.09266e-06
6.09245e-06
6.09224e-06
6.09204e-06
6.09184e-06
6.09166e-06
6.09147e-06
6.09127e-06
6.09105e-06
6.09081e-06
6.09052e-06
6.09021e-06
6.08985e-06
6.08945e-06
6.08899e-06
6.08848e-06
6.08788e-06
6.0872e-06
6.08641e-06
6.08551e-06
6.08449e-06
6.08336e-06
6.08214e-06
6.08086e-06
6.07955e-06
6.07826e-06
6.07703e-06
6.07589e-06
6.07489e-06
6.07418e-06
6.07395e-06
6.07448e-06
6.07594e-06
6.07839e-06
6.08189e-06
6.08601e-06
6.09084e-06
6.09482e-06
6.10416e-06
0.0112891
0.0189639
0.0238622
0.0263757
0.0273324
0.0272842
0.0265346
0.025196
0.0232469
0.0206059
0.0171869
0.0129161
0.00783766
0.00286357
0.000135525
1.50019e-05
1.71452e-08
1.60224e-06
7.92349e-06
6.93033e-06
5.89776e-06
5.99172e-06
6.1308e-06
6.12102e-06
6.09845e-06
6.09608e-06
6.09711e-06
6.09593e-06
6.09478e-06
6.09441e-06
6.09425e-06
6.09401e-06
6.09378e-06
6.09362e-06
6.09349e-06
6.09333e-06
6.09314e-06
6.09293e-06
6.09272e-06
6.09251e-06
6.09231e-06
6.09212e-06
6.09191e-06
6.09168e-06
6.09143e-06
6.09115e-06
6.09084e-06
6.09048e-06
6.09009e-06
6.08964e-06
6.08912e-06
6.08854e-06
6.08786e-06
6.08707e-06
6.08617e-06
6.08515e-06
6.08402e-06
6.08278e-06
6.08147e-06
6.08012e-06
6.07878e-06
6.07748e-06
6.07625e-06
6.07515e-06
6.0743e-06
6.07393e-06
6.0743e-06
6.07563e-06
6.078e-06
6.0815e-06
6.08563e-06
6.09047e-06
6.09447e-06
6.10375e-06
0.0139126
0.0233315
0.0291289
0.0321445
0.0333908
0.0334936
0.0328093
0.031498
0.0295765
0.0269868
0.0236565
0.0195271
0.014533
0.00877545
0.00328492
0.000231672
8.04797e-05
6.58078e-09
1.20861e-07
5.97921e-06
7.88239e-06
6.25544e-06
5.9109e-06
6.07822e-06
6.13174e-06
6.10459e-06
6.09203e-06
6.09484e-06
6.09674e-06
6.09569e-06
6.09468e-06
6.09452e-06
6.09457e-06
6.09447e-06
6.09426e-06
6.09405e-06
6.09386e-06
6.09366e-06
6.09345e-06
6.09324e-06
6.09302e-06
6.0928e-06
6.09258e-06
6.09234e-06
6.09209e-06
6.09181e-06
6.09149e-06
6.09114e-06
6.09074e-06
6.0903e-06
6.08979e-06
6.08921e-06
6.08853e-06
6.08775e-06
6.08685e-06
6.08583e-06
6.08469e-06
6.08343e-06
6.08209e-06
6.0807e-06
6.07931e-06
6.07794e-06
6.07662e-06
6.07542e-06
6.07443e-06
6.0739e-06
6.07412e-06
6.0753e-06
6.07761e-06
6.08109e-06
6.08523e-06
6.09008e-06
6.09411e-06
6.10331e-06
0.0173552
0.0280246
0.0346217
0.0382232
0.0398844
0.0402576
0.0397357
0.0385229
0.0366793
0.0341765
0.0309554
0.0269683
0.0221694
0.0165037
0.0101139
0.0040572
0.000491465
0.000213777
3.22221e-10
3.14568e-08
2.7453e-06
8.0635e-06
6.96941e-06
5.91451e-06
5.95649e-06
6.12036e-06
6.12983e-06
6.09802e-06
6.09043e-06
6.09553e-06
6.09778e-06
6.09647e-06
6.09511e-06
6.09483e-06
6.09498e-06
6.09498e-06
6.09476e-06
6.09447e-06
6.09421e-06
6.09398e-06
6.09376e-06
6.09353e-06
6.09329e-06
6.09304e-06
6.09277e-06
6.09248e-06
6.09217e-06
6.09182e-06
6.09142e-06
6.09098e-06
6.09047e-06
6.08989e-06
6.08922e-06
6.08845e-06
6.08755e-06
6.08653e-06
6.08537e-06
6.0841e-06
6.08273e-06
6.0813e-06
6.07985e-06
6.07841e-06
6.07701e-06
6.0757e-06
6.07458e-06
6.07389e-06
6.07393e-06
6.07498e-06
6.07721e-06
6.08067e-06
6.08481e-06
6.08966e-06
6.09371e-06
6.10284e-06
0.0220981
0.0330631
0.0402748
0.0445011
0.0466862
0.0474577
0.0472203
0.0462097
0.0445261
0.0421747
0.0391146
0.035303
0.0307089
0.0252958
0.019019
0.0120358
0.0053412
0.00104653
0.000456356
0
1.18535e-08
5.16445e-07
6.33035e-06
8.14384e-06
6.41318e-06
5.82855e-06
5.99611e-06
6.13544e-06
6.12831e-06
6.09549e-06
6.08889e-06
6.0953e-06
6.09883e-06
6.09783e-06
6.09601e-06
6.09527e-06
6.09531e-06
6.09539e-06
6.09522e-06
6.09489e-06
6.09455e-06
6.09426e-06
6.09401e-06
6.09376e-06
6.09349e-06
6.0932e-06
6.09287e-06
6.09252e-06
6.09212e-06
6.09168e-06
6.09118e-06
6.0906e-06
6.08993e-06
6.08916e-06
6.08826e-06
6.08724e-06
6.08608e-06
6.08479e-06
6.0834e-06
6.08193e-06
6.08042e-06
6.07891e-06
6.07743e-06
6.076e-06
6.07475e-06
6.0739e-06
6.07376e-06
6.07465e-06
6.0768e-06
6.08023e-06
6.08435e-06
6.0892e-06
6.09328e-06
6.10233e-06
0.0277413
0.0383988
0.0460212
0.0508461
0.0536244
0.0549105
0.0550898
0.0544098
0.0529995
0.0508958
0.0480802
0.0445172
0.0401784
0.0350446
0.0290866
0.0222681
0.0147312
0.00733685
0.00219002
0.00083088
4.86955e-05
1.19482e-09
3.17325e-08
2.53787e-06
8.23999e-06
7.70355e-06
6.10634e-06
5.79097e-06
6.00549e-06
6.14099e-06
6.13215e-06
6.09564e-06
6.08557e-06
6.09249e-06