/*--------------------------------*- C++ -*----------------------------------*\
| =========                 |                                                 |
| \\      /  F ield         | OpenFOAM: The Open Source CFD Toolbox           |
|  \\    /   O peration     | Version:  2312                                  |
|   \\  /    A nd           | Website:  www.openfoam.com                      |
|    \\/     M anipulation  |                                                 |
\*---------------------------------------------------------------------------*/
FoamFile
{
    version     2.0;
    format      ascii;
    arch        "LSB;label=32;scalar=64";
    class       volScalarField;
    location    "700";
    object      nuTilda;
}
// * * * * * * * * * * * * * * * * * * * * * * * * * * * * * * * * * * * * * //

dimensions      [0 2 -1 0 0 0 0];

internalField   nonuniform List<scalar> 
11040
(
7.31111e-05
8.58997e-05
5.25508e-05
8.1838e-05
0.000197511
0.000190341
0.000181535
0.00017225
0.000161154
0.000154269
0.00014743
0.00014154
0.000136302
0.000132327
0.000128976
0.000127335
0.000127378
0.000128961
0.000131738
0.000135587
0.000140614
0.000146679
0.000153567
0.000161122
0.000169427
0.000179379
0.000191019
0.000202585
0.000213503
0.000223191
0.000230997
0.000236283
0.000239831
0.000245812
0.000263922
0.000250991
0.000180008
0.00019102
0.000208936
0.000228942
0.000299401
3.61956e-05
7.23597e-05
8.66536e-05
0.000158497
0.000604845
0.000626936
0.000552691
0.000507935
0.000443045
0.000407315
0.000371646
0.00034387
0.000317704
0.000298294
0.000280134
0.000268007
0.000262687
0.000262399
0.000264661
0.000268519
0.000274193
0.000281786
0.000289766
0.000296984
0.000304216
0.00031864
0.000345583
0.000377211
0.000412979
0.000453016
0.000497532
0.00054683
0.000600287
0.000659704
0.000727338
0.000796162
0.000866283
0.00095897
0.00106959
0.00115942
0.00162325
3.89161e-05
4.55981e-05
6.66733e-05
9.46657e-05
0.000419574
0.000971432
0.00118707
0.00114319
0.00100217
0.000925878
0.000844138
0.000784
0.000724798
0.000682279
0.000640846
0.000608062
0.000583111
0.000564055
0.00055302
0.000548965
0.000553407
0.000567312
0.000591426
0.000626604
0.000672969
0.000730381
0.000798612
0.000877202
0.000965779
0.00106377
0.00117012
0.00128403
0.00140565
0.00153563
0.00167509
0.0018242
0.0019897
0.00219314
0.0024415
0.00268655
0.00351854
4.07508e-05
3.82611e-05
4.71993e-05
4.80297e-05
0.000155326
0.000604647
0.00131486
0.0017099
0.001776
0.00168129
0.00153821
0.00143979
0.00133552
0.00126025
0.00118588
0.00112454
0.00107943
0.00104368
0.00102243
0.00101391
0.00102007
0.00104384
0.00108777
0.00115303
0.00123912
0.00134497
0.00146965
0.0016122
0.00177174
0.00194725
0.00213724
0.00234033
0.00255553
0.00278313
0.00302413
0.00328168
0.00356941
0.00391653
0.00434328
0.00480866
0.00598823
4.0253e-05
3.94157e-05
4.06475e-05
3.86795e-05
3.79115e-05
0.000190632
0.000720296
0.00157584
0.00226258
0.00246695
0.00247415
0.00236386
0.0021998
0.00208556
0.00197252
0.0018716
0.00180075
0.00174248
0.00170685
0.001692
0.00169824
0.00173112
0.00179682
0.00189728
0.00203178
0.00219904
0.00239735
0.00262453
0.00287861
0.00315776
0.00345895
0.00377943
0.00411718
0.00447193
0.00484431
0.00523878
0.00567326
0.00619348
0.0068335
0.00757829
0.00907046
4.0049e-05
4.02168e-05
3.96784e-05
4.0951e-05
2.81556e-05
2.44954e-05
0.000187202
0.000744426
0.00173545
0.00274919
0.00321367
0.00337867
0.00336244
0.00325031
0.00307366
0.00291456
0.0028098
0.00272036
0.00266251
0.00263819
0.00264214
0.00268187
0.00277065
0.00291226
0.00310567
0.00334977
0.003642
0.00397814
0.00435394
0.00476645
0.00521022
0.00567994
0.00617181
0.00668451
0.00721757
0.00777589
0.00838168
0.00909638
0.00997794
0.0110475
0.0128657
4.00685e-05
4.01302e-05
3.98944e-05
4.05397e-05
3.96802e-05
1.95538e-05
6.2123e-06
0.000141049
0.000674488
0.0017343
0.00304186
0.00397018
0.0043421
0.00448019
0.00446934
0.00436677
0.00421908
0.00407014
0.00397764
0.00393991
0.00393987
0.00398229
0.00409261
0.00427924
0.00454035
0.00487596
0.00528321
0.00575517
0.00628266
0.00686162
0.00748292
0.00813678
0.00881623
0.00951827
0.01024
0.0109853
0.0117805
0.0126987
0.0138346
0.0152528
0.0174445
4.0087e-05
4.0082e-05
4.01182e-05
3.99644e-05
4.09214e-05
3.98754e-05
8.46222e-06
2.03714e-06
8.77873e-05
0.000527274
0.00154912
0.00306107
0.00452597
0.00532758
0.00568881
0.00582932
0.00585439
0.00580431
0.00573636
0.00568159
0.00568073
0.00573832
0.00587406
0.00611051
0.00644575
0.00688411
0.00742531
0.00806124
0.00877162
0.00955192
0.0103883
0.0112631
0.0121638
0.0130851
0.01402
0.0149679
0.0159584
0.0170725
0.0184465
0.0202004
0.0227768
4.00834e-05
4.00899e-05
4.00821e-05
4.01168e-05
3.98683e-05
4.19658e-05
3.85516e-05
1.35071e-05
1.92742e-05
2.41165e-05
0.000329548
0.0012072
0.00275769
0.00465244
0.0061677
0.00691863
0.00731638
0.00751804
0.00764074
0.00772361
0.00782296
0.00796481
0.00819052
0.00852818
0.00897877
0.0095423
0.0102269
0.011038
0.0119601
0.0129748
0.0140639
0.0151974
0.0163509
0.017517
0.0186833
0.0198377
0.0210125
0.0222982
0.0238447
0.0258638
0.0287655
4.0082e-05
4.00848e-05
4.00841e-05
4.00949e-05
4.00546e-05
3.99622e-05
4.22972e-05
3.7509e-05
1.97253e-05
8.74556e-06
6.34611e-05
0.000149457
0.000796511
0.0021844
0.00425339
0.00646549
0.00803024
0.00883513
0.00934735
0.00970989
0.010046
0.0103987
0.0108302
0.0113838
0.012079
0.0129159
0.0138841
0.014966
0.016144
0.0174171
0.0187862
0.0202076
0.0216324
0.0230516
0.0244538
0.0257991
0.0271189
0.0285181
0.0301303
0.0322587
0.0353131
4.00796e-05
4.00812e-05
4.00837e-05
4.00757e-05
4.01092e-05
3.99705e-05
4.02143e-05
4.1773e-05
3.95441e-05
2.61328e-05
6.98907e-06
2.28239e-05
2.09612e-05
0.00038741
0.00144697
0.00337421
0.00594761
0.00848809
0.0102185
0.0112193
0.0119884
0.012667
0.0133881
0.0142327
0.0152546
0.0164713
0.0178788
0.0194591
0.0211781
0.0229877
0.0248244
0.026615
0.0283196
0.0299774
0.0316129
0.0331131
0.0344917
0.0359182
0.0374704
0.0394262
0.0422947
4.00768e-05
4.00783e-05
4.0078e-05
4.00789e-05
4.00749e-05
4.00902e-05
3.99859e-05
4.01981e-05
4.12844e-05
4.08302e-05
3.23936e-05
4.65129e-06
4.90175e-06
6.60709e-05
0.000127612
0.000748786
0.00223326
0.00468689
0.00778131
0.0107658
0.0128833
0.0142548
0.0154279
0.0166296
0.018002
0.0196086
0.0214652
0.0235693
0.025889
0.0283698
0.0309435
0.0335298
0.0360377
0.0383759
0.040426
0.0420669
0.0433618
0.0447198
0.0460558
0.0475556
0.0497898
4.00743e-05
4.00751e-05
4.00749e-05
4.00746e-05
4.00739e-05
4.00735e-05
4.0074e-05
4.00194e-05
4.01246e-05
4.08399e-05
4.16875e-05
3.63231e-05
1.5553e-05
4.93541e-06
1.56989e-05
0.000125157
0.00024301
0.00114046
0.00302559
0.00599342
0.00968741
0.0132473
0.0159121
0.0178666
0.0197175
0.0217373
0.0240024
0.0265663
0.0294167
0.0324976
0.0357385
0.039057
0.0423575
0.0455443
0.048515
0.0511555
0.0533673
0.0550684
0.0561554
0.0569549
0.0584109
4.0072e-05
4.00725e-05
4.00725e-05
4.00726e-05
4.00718e-05
4.0071e-05
4.00705e-05
4.00706e-05
4.00403e-05
4.00487e-05
4.04772e-05
4.18532e-05
3.9686e-05
2.70816e-05
2.37351e-06
2.00507e-06
2.84164e-05
0.000187096
0.000369705
0.00147262
0.00369544
0.00699371
0.0109111
0.0149631
0.0186273
0.0217093
0.0245508
0.0275651
0.0308806
0.0344626
0.0382564
0.042194
0.0461739
0.0500978
0.0538636
0.0573721
0.0605325
0.0632831
0.0655529
0.0673108
0.0685892
4.00701e-05
4.00714e-05
4.00717e-05
4.00717e-05
4.00711e-05
4.00705e-05
4.00697e-05
4.00695e-05
4.00698e-05
4.0057e-05
3.99974e-05
4.02607e-05
4.14187e-05
4.12301e-05
3.63895e-05
1.70853e-05
5.56535e-06
6.84996e-07
4.15641e-05
0.000230593
0.00043357
0.00156897
0.00361615
0.0066269
0.0104413
0.0148135
0.0194679
0.0241012
0.0285178
0.0327855
0.0371071
0.0415876
0.0461764
0.0507654
0.0552466
0.0595212
0.0635125
0.0671835
0.0704654
0.0733002
0.0756794
4.00685e-05
4.00708e-05
4.00709e-05
4.00704e-05
4.00697e-05
4.00689e-05
4.00684e-05
4.00678e-05
4.00677e-05
4.00691e-05
4.0062e-05
3.9996e-05
4.01375e-05
4.06643e-05
4.1898e-05
3.95906e-05
3.24262e-05
7.3486e-06
3.5417e-06
3.49873e-07
4.66786e-05
0.000205586
0.000261705
0.00103665
0.00250346
0.00479667
0.00794444
0.011909
0.0166121
0.0219435
0.0277232
0.0336728
0.0395108
0.0450989
0.0504269
0.0555185
0.0603702
0.0649688
0.0692478
0.0731347
0.0765997
4.00671e-05
4.00696e-05
4.0069e-05
4.0068e-05
4.00671e-05
4.00664e-05
4.00659e-05
4.00654e-05
4.00652e-05
4.00648e-05
4.00676e-05
4.00599e-05
4.00309e-05
4.00158e-05
4.0359e-05
4.11365e-05
4.18658e-05
3.80182e-05
2.73433e-05
3.92382e-06
2.86262e-06
3.20607e-07
2.4654e-05
9.85666e-05
1.44962e-05
0.00032551
0.0010162
0.0022545
0.00418217
0.00686922
0.0103755
0.0147202
0.0198676
0.0257361
0.0321578
0.0388649
0.0455399
0.0519507
0.0579014
0.0632898
0.0681147
4.00654e-05
4.00673e-05
4.00668e-05
4.00658e-05
4.0065e-05
4.00644e-05
4.00641e-05
4.00637e-05
4.00633e-05
4.00631e-05
4.0063e-05
4.00647e-05
4.00627e-05
4.00455e-05
4.00041e-05
4.01107e-05
4.05494e-05
4.1618e-05
4.15992e-05
3.72536e-05
2.53505e-05
3.74046e-06
2.94006e-06
6.93692e-07
1.22173e-06
2.69597e-05
8.27096e-05
0.000192026
6.69985e-05
0.000348109
0.00102775
0.00218212
0.00389895
0.0062923
0.00942737
0.0133224
0.0179384
0.0232462
0.0291082
0.0353437
0.0417531
4.00633e-05
4.00645e-05
4.00636e-05
4.00625e-05
4.00616e-05
4.0061e-05
4.00606e-05
4.00604e-05
4.00604e-05
4.00604e-05
4.00603e-05
4.00604e-05
4.00609e-05
4.0063e-05
4.00516e-05
4.00308e-05
4.00006e-05
4.02221e-05
4.08272e-05
4.1738e-05
4.1341e-05
3.66598e-05
2.81764e-05
8.54375e-06
3.92777e-06
1.81301e-06
5.31631e-07
0
5.08579e-06
2.59378e-05
7.51719e-05
0.000156674
0.000300822
0.000142361
0.000421026
0.00106971
0.0021195
0.00364876
0.00571255
0.00833061
0.0115736
4.0061e-05
4.00616e-05
4.00605e-05
4.00594e-05
4.00585e-05
4.0058e-05
4.00578e-05
4.00577e-05
4.00577e-05
4.00578e-05
4.00579e-05
4.00581e-05
4.0058e-05
4.00586e-05
4.00595e-05
4.00583e-05
4.00406e-05
4.00104e-05
4.00276e-05
4.03163e-05
4.10054e-05
4.17172e-05
4.15745e-05
3.83545e-05
3.19132e-05
2.36405e-05
7.07059e-06
3.576e-06
1.83711e-06
1.2918e-06
3.26784e-07
0
0
9.58645e-06
2.78253e-05
6.93158e-05
0.000134461
0.000228688
0.000353
1.3171e-05
0.000405323
4.00585e-05
4.00588e-05
4.00576e-05
4.00567e-05
4.00561e-05
4.00558e-05
4.00557e-05
4.00558e-05
4.00559e-05
4.00561e-05
4.00563e-05
4.00564e-05
4.00566e-05
4.00567e-05
4.00571e-05
4.00578e-05
4.00587e-05
4.0052e-05
4.00267e-05
3.99977e-05
4.00503e-05
4.03717e-05
4.09145e-05
4.17119e-05
4.17598e-05
4.08899e-05
3.78129e-05
3.25607e-05
2.60074e-05
1.86672e-05
4.81941e-06
3.00136e-06
1.76358e-06
1.37743e-06
9.80369e-07
3.71911e-07
0
0
0
7.67345e-07
2.30824e-05
4.00561e-05
4.00561e-05
4.00552e-05
4.00546e-05
4.00543e-05
4.00544e-05
4.00545e-05
4.00548e-05
4.00551e-05
4.00554e-05
4.00556e-05
4.00558e-05
4.0056e-05
4.00562e-05
4.00564e-05
4.00565e-05
4.00571e-05
4.00581e-05
4.00572e-05
4.00463e-05
4.0016e-05
4e-05
4.00399e-05
4.02681e-05
4.06931e-05
4.11993e-05
4.18233e-05
4.1949e-05
4.12685e-05
3.98681e-05
3.69959e-05
3.28758e-05
2.78259e-05
2.21406e-05
1.60796e-05
6.22928e-06
3.12592e-06
1.72916e-06
1.49209e-06
1.23782e-06
9.63267e-07
4.00536e-05
4.00537e-05
4.00533e-05
4.00532e-05
4.00534e-05
4.00538e-05
4.00542e-05
4.00547e-05
4.00552e-05
4.00556e-05
4.00559e-05
4.00562e-05
4.00564e-05
4.00566e-05
4.00568e-05
4.00569e-05
4.0057e-05
4.00572e-05
4.0058e-05
4.0059e-05
4.00561e-05
4.00432e-05
4.00196e-05
3.99961e-05
4.00165e-05
4.01041e-05
4.03285e-05
4.0694e-05
4.11386e-05
4.15592e-05
4.20002e-05
4.209e-05
4.17002e-05
4.07584e-05
3.93552e-05
3.71943e-05
3.43625e-05
3.0966e-05
2.73378e-05
2.31268e-05
1.84232e-05
4.00514e-05
4.00518e-05
4.0052e-05
4.00525e-05
4.00531e-05
4.00539e-05
4.00546e-05
4.00553e-05
4.00559e-05
4.00564e-05
4.00568e-05
4.00572e-05
4.00575e-05
4.00577e-05
4.00579e-05
4.00581e-05
4.00582e-05
4.00582e-05
4.00583e-05
4.00587e-05
4.00597e-05
4.00599e-05
4.00575e-05
4.00477e-05
4.00301e-05
4.00088e-05
3.99934e-05
4.0007e-05
4.00773e-05
4.02097e-05
4.04316e-05
4.0734e-05
4.10846e-05
4.14432e-05
4.17582e-05
4.20554e-05
4.21939e-05
4.20912e-05
4.17216e-05
4.10434e-05
4.015e-05
4.00495e-05
4.00505e-05
4.00514e-05
4.00524e-05
4.00535e-05
4.00545e-05
4.00554e-05
4.00562e-05
4.00569e-05
4.00575e-05
4.00581e-05
4.00585e-05
4.00589e-05
4.00592e-05
4.00594e-05
4.00596e-05
4.00598e-05
4.00599e-05
4.006e-05
4.00601e-05
4.00603e-05
4.00607e-05
4.00614e-05
4.0062e-05
4.00608e-05
4.00563e-05
4.00462e-05
4.00298e-05
4.00106e-05
3.9995e-05
3.99895e-05
4.00055e-05
4.00531e-05
4.01411e-05
4.02685e-05
4.04414e-05
4.06549e-05
4.09032e-05
4.11675e-05
4.14339e-05
4.16707e-05
4.00479e-05
4.00497e-05
4.00512e-05
4.00527e-05
4.0054e-05
4.00553e-05
4.00563e-05
4.00572e-05
4.0058e-05
4.00587e-05
4.00593e-05
4.00598e-05
4.00603e-05
4.00607e-05
4.0061e-05
4.00613e-05
4.00615e-05
4.00617e-05
4.00619e-05
4.0062e-05
4.00622e-05
4.00623e-05
4.00625e-05
4.00628e-05
4.00634e-05
4.00641e-05
4.00644e-05
4.00633e-05
4.00596e-05
4.00527e-05
4.00421e-05
4.00283e-05
4.0013e-05
3.99988e-05
3.99891e-05
3.99865e-05
3.99945e-05
4.0018e-05
4.00587e-05
4.01229e-05
4.0195e-05
4.00468e-05
4.00493e-05
4.00514e-05
4.00532e-05
4.00547e-05
4.0056e-05
4.00572e-05
4.00582e-05
4.00591e-05
4.00598e-05
4.00605e-05
4.00611e-05
4.00616e-05
4.00621e-05
4.00625e-05
4.00628e-05
4.00632e-05
4.00634e-05
4.00637e-05
4.00639e-05
4.00641e-05
4.00643e-05
4.00645e-05
4.00646e-05
4.00648e-05
4.0065e-05
4.00655e-05
4.00661e-05
4.00667e-05
4.00672e-05
4.0067e-05
4.00658e-05
4.00631e-05
4.00586e-05
4.00522e-05
4.00439e-05
4.00342e-05
4.00232e-05
4.00119e-05
4.00014e-05
3.99928e-05
4.00462e-05
4.00493e-05
4.00517e-05
4.00536e-05
4.00553e-05
4.00567e-05
4.00579e-05
4.0059e-05
4.00599e-05
4.00608e-05
4.00615e-05
4.00622e-05
4.00628e-05
4.00633e-05
4.00638e-05
4.00643e-05
4.00647e-05
4.0065e-05
4.00654e-05
4.00657e-05
4.0066e-05
4.00663e-05
4.00665e-05
4.00667e-05
4.00669e-05
4.00671e-05
4.00672e-05
4.00674e-05
4.00677e-05
4.0068e-05
4.00685e-05
4.0069e-05
4.00696e-05
4.00701e-05
4.00703e-05
4.00702e-05
4.00696e-05
4.00683e-05
4.00662e-05
4.00631e-05
4.006e-05
4.00459e-05
4.00494e-05
4.0052e-05
4.0054e-05
4.00557e-05
4.00572e-05
4.00585e-05
4.00596e-05
4.00607e-05
4.00616e-05
4.00624e-05
4.00632e-05
4.00639e-05
4.00645e-05
4.0065e-05
4.00656e-05
4.0066e-05
4.00665e-05
4.00669e-05
4.00673e-05
4.00677e-05
4.0068e-05
4.00683e-05
4.00686e-05
4.00689e-05
4.00692e-05
4.00694e-05
4.00696e-05
4.00698e-05
4.007e-05
4.00702e-05
4.00704e-05
4.00706e-05
4.0071e-05
4.00713e-05
4.00717e-05
4.00722e-05
4.00727e-05
4.00732e-05
4.00736e-05
4.0074e-05
4.00458e-05
4.00495e-05
4.00521e-05
4.00542e-05
4.00559e-05
4.00575e-05
4.00589e-05
4.00601e-05
4.00612e-05
4.00622e-05
4.00632e-05
4.0064e-05
4.00648e-05
4.00655e-05
4.00661e-05
4.00667e-05
4.00673e-05
4.00678e-05
4.00683e-05
4.00687e-05
4.00692e-05
4.00696e-05
4.007e-05
4.00704e-05
4.00708e-05
4.00711e-05
4.00714e-05
4.00717e-05
4.00719e-05
4.00722e-05
4.00724e-05
4.00727e-05
4.00729e-05
4.00731e-05
4.00733e-05
4.00736e-05
4.00738e-05
4.00741e-05
4.00744e-05
4.00747e-05
4.0075e-05
4.00457e-05
4.00494e-05
4.00521e-05
4.00542e-05
4.0056e-05
4.00576e-05
4.00591e-05
4.00604e-05
4.00616e-05
4.00627e-05
4.00637e-05
4.00647e-05
4.00655e-05
4.00663e-05
4.00671e-05
4.00678e-05
4.00684e-05
4.0069e-05
4.00696e-05
4.00701e-05
4.00706e-05
4.00711e-05
4.00716e-05
4.0072e-05
4.00725e-05
4.00728e-05
4.00732e-05
4.00736e-05
4.00739e-05
4.00742e-05
4.00745e-05
4.00748e-05
4.00751e-05
4.00754e-05
4.00757e-05
4.0076e-05
4.00763e-05
4.00766e-05
4.00769e-05
4.00772e-05
4.00775e-05
4.00455e-05
4.00492e-05
4.00519e-05
4.0054e-05
4.00559e-05
4.00576e-05
4.00591e-05
4.00605e-05
4.00618e-05
4.0063e-05
4.00642e-05
4.00652e-05
4.00662e-05
4.0067e-05
4.00679e-05
4.00686e-05
4.00694e-05
4.007e-05
4.00707e-05
4.00713e-05
4.00719e-05
4.00725e-05
4.0073e-05
4.00735e-05
4.0074e-05
4.00745e-05
4.00749e-05
4.00753e-05
4.00757e-05
4.00761e-05
4.00765e-05
4.00769e-05
4.00772e-05
4.00776e-05
4.00779e-05
4.00783e-05
4.00786e-05
4.0079e-05
4.00794e-05
4.00797e-05
4.00801e-05
4.00452e-05
4.00488e-05
4.00515e-05
4.00536e-05
4.00556e-05
4.00573e-05
4.0059e-05
4.00605e-05
4.00619e-05
4.00632e-05
4.00644e-05
4.00656e-05
4.00666e-05
4.00676e-05
4.00685e-05
4.00694e-05
4.00702e-05
4.0071e-05
4.00717e-05
4.00724e-05
4.00731e-05
4.00738e-05
4.00744e-05
4.00749e-05
4.00755e-05
4.0076e-05
4.00765e-05
4.0077e-05
4.00774e-05
4.00779e-05
4.00783e-05
4.00787e-05
4.00792e-05
4.00796e-05
4.008e-05
4.00804e-05
4.00808e-05
4.00812e-05
4.00816e-05
4.00821e-05
4.00825e-05
4.00446e-05
4.00482e-05
4.00508e-05
4.0053e-05
4.0055e-05
4.00569e-05
4.00586e-05
4.00602e-05
4.00617e-05
4.00632e-05
4.00645e-05
4.00658e-05
4.00669e-05
4.0068e-05
4.00691e-05
4.007e-05
4.00709e-05
4.00718e-05
4.00726e-05
4.00734e-05
4.00742e-05
4.00749e-05
4.00756e-05
4.00762e-05
4.00768e-05
4.00774e-05
4.0078e-05
4.00785e-05
4.0079e-05
4.00795e-05
4.008e-05
4.00805e-05
4.0081e-05
4.00815e-05
4.00819e-05
4.00824e-05
4.00828e-05
4.00833e-05
4.00838e-05
4.00842e-05
4.00847e-05
4.00439e-05
4.00474e-05
4.005e-05
4.00522e-05
4.00542e-05
4.00562e-05
4.0058e-05
4.00597e-05
4.00614e-05
4.00629e-05
4.00644e-05
4.00658e-05
4.00671e-05
4.00683e-05
4.00694e-05
4.00705e-05
4.00715e-05
4.00725e-05
4.00734e-05
4.00743e-05
4.00751e-05
4.00759e-05
4.00767e-05
4.00774e-05
4.00781e-05
4.00788e-05
4.00794e-05
4.008e-05
4.00806e-05
4.00811e-05
4.00817e-05
4.00822e-05
4.00827e-05
4.00832e-05
4.00837e-05
4.00843e-05
4.00848e-05
4.00853e-05
4.00858e-05
4.00863e-05
4.00868e-05
4.00429e-05
4.00463e-05
4.00489e-05
4.00511e-05
4.00532e-05
4.00552e-05
4.00572e-05
4.0059e-05
4.00608e-05
4.00625e-05
4.00641e-05
4.00656e-05
4.0067e-05
4.00684e-05
4.00696e-05
4.00708e-05
4.00719e-05
4.0073e-05
4.0074e-05
4.0075e-05
4.00759e-05
4.00768e-05
4.00777e-05
4.00785e-05
4.00792e-05
4.008e-05
4.00806e-05
4.00813e-05
4.00819e-05
4.00826e-05
4.00832e-05
4.00837e-05
4.00843e-05
4.00849e-05
4.00854e-05
4.0086e-05
4.00865e-05
4.00871e-05
4.00876e-05
4.00881e-05
4.00887e-05
4.00417e-05
4.00449e-05
4.00475e-05
4.00498e-05
4.00519e-05
4.0054e-05
4.00561e-05
4.00581e-05
4.006e-05
4.00618e-05
4.00635e-05
4.00651e-05
4.00667e-05
4.00682e-05
4.00696e-05
4.00709e-05
4.00721e-05
4.00733e-05
4.00744e-05
4.00755e-05
4.00765e-05
4.00775e-05
4.00785e-05
4.00793e-05
4.00802e-05
4.0081e-05
4.00817e-05
4.00824e-05
4.00831e-05
4.00838e-05
4.00845e-05
4.00851e-05
4.00857e-05
4.00863e-05
4.00869e-05
4.00875e-05
4.00881e-05
4.00887e-05
4.00893e-05
4.00898e-05
4.00904e-05
4.00402e-05
4.00433e-05
4.00458e-05
4.00481e-05
4.00503e-05
4.00525e-05
4.00547e-05
4.00567e-05
4.00587e-05
4.00607e-05
4.00625e-05
4.00643e-05
4.0066e-05
4.00676e-05
4.00691e-05
4.00706e-05
4.00719e-05
4.00732e-05
4.00745e-05
4.00757e-05
4.00768e-05
4.00779e-05
4.00789e-05
4.00799e-05
4.00808e-05
4.00817e-05
4.00825e-05
4.00833e-05
4.00841e-05
4.00848e-05
4.00855e-05
4.00862e-05
4.00869e-05
4.00875e-05
4.00881e-05
4.00888e-05
4.00894e-05
4.009e-05
4.00906e-05
4.00912e-05
4.00918e-05
4.00384e-05
4.00413e-05
4.00438e-05
4.00461e-05
4.00484e-05
4.00506e-05
4.00528e-05
4.0055e-05
4.00571e-05
4.00591e-05
4.00611e-05
4.0063e-05
4.00648e-05
4.00665e-05
4.00682e-05
4.00697e-05
4.00712e-05
4.00727e-05
4.0074e-05
4.00753e-05
4.00766e-05
4.00778e-05
4.00789e-05
4.008e-05
4.0081e-05
4.00819e-05
4.00828e-05
4.00837e-05
4.00845e-05
4.00853e-05
4.00861e-05
4.00868e-05
4.00875e-05
4.00882e-05
4.00889e-05
4.00896e-05
4.00902e-05
4.00908e-05
4.00915e-05
4.00921e-05
4.00927e-05
4.00362e-05
4.0039e-05
4.00414e-05
4.00437e-05
4.0046e-05
4.00482e-05
4.00505e-05
4.00527e-05
4.00548e-05
4.00569e-05
4.0059e-05
4.0061e-05
4.0063e-05
4.00648e-05
4.00666e-05
4.00683e-05
4.007e-05
4.00715e-05
4.0073e-05
4.00744e-05
4.00758e-05
4.00771e-05
4.00783e-05
4.00795e-05
4.00806e-05
4.00816e-05
4.00826e-05
4.00835e-05
4.00844e-05
4.00853e-05
4.00861e-05
4.00869e-05
4.00876e-05
4.00884e-05
4.00891e-05
4.00897e-05
4.00904e-05
4.00911e-05
4.00917e-05
4.00923e-05
4.00929e-05
4.00337e-05
4.00363e-05
4.00387e-05
4.00409e-05
4.00431e-05
4.00453e-05
4.00475e-05
4.00497e-05
4.00519e-05
4.00541e-05
4.00563e-05
4.00584e-05
4.00604e-05
4.00624e-05
4.00643e-05
4.00662e-05
4.00679e-05
4.00696e-05
4.00712e-05
4.00728e-05
4.00743e-05
4.00757e-05
4.0077e-05
4.00782e-05
4.00794e-05
4.00805e-05
4.00816e-05
4.00826e-05
4.00835e-05
4.00844e-05
4.00853e-05
4.00861e-05
4.00869e-05
4.00877e-05
4.00884e-05
4.00892e-05
4.00899e-05
4.00905e-05
4.00912e-05
4.00918e-05
4.00924e-05
4.00308e-05
4.00332e-05
4.00354e-05
4.00376e-05
4.00397e-05
4.00418e-05
4.00439e-05
4.00461e-05
4.00483e-05
4.00506e-05
4.00528e-05
4.0055e-05
4.00571e-05
4.00592e-05
4.00613e-05
4.00632e-05
4.00651e-05
4.00669e-05
4.00686e-05
4.00703e-05
4.00719e-05
4.00734e-05
4.00748e-05
4.00761e-05
4.00774e-05
4.00786e-05
4.00797e-05
4.00808e-05
4.00818e-05
4.00828e-05
4.00837e-05
4.00846e-05
4.00854e-05
4.00862e-05
4.0087e-05
4.00877e-05
4.00884e-05
4.0089e-05
4.00897e-05
4.00903e-05
4.00909e-05
4.00275e-05
4.00297e-05
4.00317e-05
4.00336e-05
4.00356e-05
4.00376e-05
4.00396e-05
4.00418e-05
4.0044e-05
4.00462e-05
4.00485e-05
4.00507e-05
4.00529e-05
4.00551e-05
4.00573e-05
4.00593e-05
4.00613e-05
4.00632e-05
4.00651e-05
4.00668e-05
4.00685e-05
4.00701e-05
4.00716e-05
4.0073e-05
4.00744e-05
4.00756e-05
4.00768e-05
4.0078e-05
4.0079e-05
4.008e-05
4.0081e-05
4.00819e-05
4.00828e-05
4.00836e-05
4.00844e-05
4.00852e-05
4.00859e-05
4.00866e-05
4.00872e-05
4.00879e-05
4.00885e-05
4.00237e-05
4.00257e-05
4.00274e-05
4.00291e-05
4.00308e-05
4.00327e-05
4.00346e-05
4.00367e-05
4.00388e-05
4.0041e-05
4.00432e-05
4.00455e-05
4.00477e-05
4.005e-05
4.00522e-05
4.00543e-05
4.00564e-05
4.00584e-05
4.00603e-05
4.00622e-05
4.0064e-05
4.00657e-05
4.00673e-05
4.00688e-05
4.00703e-05
4.00717e-05
4.00729e-05
4.00741e-05
4.00753e-05
4.00764e-05
4.00774e-05
4.00783e-05
4.00792e-05
4.008e-05
4.00808e-05
4.00816e-05
4.00823e-05
4.0083e-05
4.00836e-05
4.00842e-05
4.00848e-05
4.00194e-05
4.0021e-05
4.00225e-05
4.00239e-05
4.00254e-05
4.0027e-05
4.00288e-05
4.00307e-05
4.00327e-05
4.00348e-05
4.00369e-05
4.00391e-05
4.00413e-05
4.00435e-05
4.00458e-05
4.00479e-05
4.00501e-05
4.00522e-05
4.00542e-05
4.00561e-05
4.00579e-05
4.00597e-05
4.00613e-05
4.00629e-05
4.00644e-05
4.00658e-05
4.00671e-05
4.00683e-05
4.00695e-05
4.00706e-05
4.00716e-05
4.00726e-05
4.00735e-05
4.00744e-05
4.00753e-05
4.0076e-05
4.00768e-05
4.00775e-05
4.00782e-05
4.00788e-05
4.00794e-05
4.00146e-05
4.00158e-05
4.00169e-05
4.0018e-05
4.00193e-05
4.00206e-05
4.00222e-05
4.00238e-05
4.00255e-05
4.00274e-05
4.00293e-05
4.00313e-05
4.00334e-05
4.00355e-05
4.00376e-05
4.00397e-05
4.00417e-05
4.00438e-05
4.00458e-05
4.00478e-05
4.00497e-05
4.00516e-05
4.00534e-05
4.00551e-05
4.00567e-05
4.00582e-05
4.00597e-05
4.00611e-05
4.00624e-05
4.00636e-05
4.00647e-05
4.00658e-05
4.00667e-05
4.00677e-05
4.00685e-05
4.00693e-05
4.00701e-05
4.00708e-05
4.00714e-05
4.0072e-05
4.00726e-05
4.00092e-05
4.00099e-05
4.00106e-05
4.00114e-05
4.00123e-05
4.00133e-05
4.00145e-05
4.00157e-05
4.0017e-05
4.00184e-05
4.002e-05
4.00216e-05
4.00234e-05
4.00253e-05
4.00274e-05
4.00296e-05
4.00318e-05
4.00339e-05
4.0036e-05
4.00381e-05
4.004e-05
4.00419e-05
4.00436e-05
4.00453e-05
4.00469e-05
4.00484e-05
4.00498e-05
4.00512e-05
4.00524e-05
4.00536e-05
4.00547e-05
4.00558e-05
4.00567e-05
4.00577e-05
4.00585e-05
4.00593e-05
4.00601e-05
4.00608e-05
4.00614e-05
4.0062e-05
4.00626e-05
4.00031e-05
4.00034e-05
4.00037e-05
4.0004e-05
4.00044e-05
4.00048e-05
4.00053e-05
4.00059e-05
4.00065e-05
4.00072e-05
4.00079e-05
4.00086e-05
4.00094e-05
4.00101e-05
4.00109e-05
4.00117e-05
4.00124e-05
4.00131e-05
4.00139e-05
4.00146e-05
4.00155e-05
4.00164e-05
4.00173e-05
4.00183e-05
4.00193e-05
4.00203e-05
4.00213e-05
4.00223e-05
4.00233e-05
4.00243e-05
4.00253e-05
4.00262e-05
4.00271e-05
4.00279e-05
4.00287e-05
4.00295e-05
4.00302e-05
4.00309e-05
4.00316e-05
4.00322e-05
4.00328e-05
0.00371333
0.00717804
0.00995942
0.0116438
0.0123349
0.0122565
0.0115506
0.0102622
0.0083229
0.00563156
0.00244237
0.000273094
4.84521e-05
8.48483e-06
3.5882e-05
4.22924e-05
4.03679e-05
3.99627e-05
4.00758e-05
4.00772e-05
4.00682e-05
4.00699e-05
4.00681e-05
4.00638e-05
4.00595e-05
4.00556e-05
4.00523e-05
4.00499e-05
4.00482e-05
4.00471e-05
4.00464e-05
4.00459e-05
4.00455e-05
4.00452e-05
4.00448e-05
4.00444e-05
4.00439e-05
4.00435e-05
4.00431e-05
4.00427e-05
4.00424e-05
4.00421e-05
4.00417e-05
4.00413e-05
4.00409e-05
4.00403e-05
4.00397e-05
4.00391e-05
4.00383e-05
4.00374e-05
4.00364e-05
4.00353e-05
4.0034e-05
4.00325e-05
4.00309e-05
4.0029e-05
4.00269e-05
4.00247e-05
4.00224e-05
4.00201e-05
4.00179e-05
4.00159e-05
4.00141e-05
4.00126e-05
4.00117e-05
4.00119e-05
4.00134e-05
4.00165e-05
4.00214e-05
4.00279e-05
4.00355e-05
4.00444e-05
4.00517e-05
4.00692e-05
0.00631893
0.010936
0.0142411
0.0160903
0.0167986
0.016696
0.0159699
0.0146641
0.012711
0.00999282
0.00644029
0.00256282
0.000201741
3.66118e-05
9.59607e-06
3.61028e-05
4.2296e-05
4.03046e-05
3.99269e-05
4.00876e-05
4.00848e-05
4.00631e-05
4.00653e-05
4.00653e-05
4.00605e-05
4.00559e-05
4.00527e-05
4.00503e-05
4.00487e-05
4.00477e-05
4.00471e-05
4.00467e-05
4.00464e-05
4.00461e-05
4.00457e-05
4.00454e-05
4.00449e-05
4.00445e-05
4.00442e-05
4.00438e-05
4.00435e-05
4.00432e-05
4.00428e-05
4.00424e-05
4.00419e-05
4.00414e-05
4.00408e-05
4.00401e-05
4.00394e-05
4.00385e-05
4.00376e-05
4.00364e-05
4.00352e-05
4.00337e-05
4.0032e-05
4.00301e-05
4.0028e-05
4.00258e-05
4.00235e-05
4.00211e-05
4.00188e-05
4.00167e-05
4.00147e-05
4.0013e-05
4.00119e-05
4.00118e-05
4.00131e-05
4.0016e-05
4.00207e-05
4.00272e-05
4.00348e-05
4.00438e-05
4.00511e-05
4.00685e-05
0.00881678
0.0148532
0.0188844
0.0210055
0.021791
0.0216859
0.0209342
0.0196068
0.0176531
0.0149728
0.0114625
0.00712161
0.00266221
0.000152061
3.48999e-05
9.57984e-06
3.3891e-05
4.2708e-05
4.05102e-05
3.98031e-05
4.00862e-05
4.01326e-05
4.00748e-05
4.00582e-05
4.00597e-05
4.00573e-05
4.00533e-05
4.00509e-05
4.00496e-05
4.00487e-05
4.00481e-05
4.00476e-05
4.00474e-05
4.00471e-05
4.00468e-05
4.00465e-05
4.00461e-05
4.00457e-05
4.00453e-05
4.0045e-05
4.00446e-05
4.00443e-05
4.00439e-05
4.00435e-05
4.0043e-05
4.00425e-05
4.00419e-05
4.00413e-05
4.00405e-05
4.00397e-05
4.00387e-05
4.00376e-05
4.00364e-05
4.00349e-05
4.00332e-05
4.00313e-05
4.00292e-05
4.0027e-05
4.00246e-05
4.00222e-05
4.00198e-05
4.00175e-05
4.00153e-05
4.00135e-05
4.00122e-05
4.00118e-05
4.00127e-05
4.00154e-05
4.002e-05
4.00265e-05
4.00342e-05
4.00431e-05
4.00505e-05
4.00678e-05
0.0112891
0.0189639
0.0238622
0.0263757
0.0273324
0.0272842
0.0265346
0.025196
0.0232469
0.0206059
0.0171869
0.0129161
0.00783767
0.00286361
0.00014992
5.23747e-05
8.85503e-06
2.7928e-05
4.31707e-05
4.15384e-05
3.96813e-05
3.98583e-05
4.01171e-05
4.0099e-05
4.00572e-05
4.00528e-05
4.00547e-05
4.00525e-05
4.00504e-05
4.00497e-05
4.00494e-05
4.0049e-05
4.00486e-05
4.00483e-05
4.0048e-05
4.00477e-05
4.00474e-05
4.0047e-05
4.00466e-05
4.00462e-05
4.00458e-05
4.00455e-05
4.00451e-05
4.00447e-05
4.00442e-05
4.00437e-05
4.00431e-05
4.00424e-05
4.00417e-05
4.00409e-05
4.00399e-05
4.00388e-05
4.00376e-05
4.00361e-05
4.00344e-05
4.00326e-05
4.00304e-05
4.00282e-05
4.00257e-05
4.00232e-05
4.00207e-05
4.00183e-05
4.0016e-05
4.0014e-05
4.00124e-05
4.00117e-05
4.00124e-05
4.00149e-05
4.00193e-05
4.00258e-05
4.00334e-05
4.00424e-05
4.00499e-05
4.0067e-05
0.0139126
0.0233315
0.0291289
0.0321445
0.0333908
0.0334936
0.0328093
0.031498
0.0295765
0.0269868
0.0236565
0.0195271
0.014533
0.00877545
0.00328495
0.000237836
0.000105212
6.96812e-06
1.4452e-05
3.98348e-05
4.31057e-05
4.03459e-05
3.97061e-05
4.00197e-05
4.01188e-05
4.00686e-05
4.00453e-05
4.00505e-05
4.00541e-05
4.00521e-05
4.00502e-05
4.00499e-05
4.005e-05
4.00499e-05
4.00495e-05
4.00491e-05
4.00487e-05
4.00484e-05
4.0048e-05
4.00476e-05
4.00471e-05
4.00467e-05
4.00463e-05
4.00459e-05
4.00454e-05
4.00449e-05
4.00443e-05
4.00437e-05
4.00429e-05
4.00421e-05
4.00412e-05
4.00401e-05
4.00388e-05
4.00374e-05
4.00357e-05
4.00338e-05
4.00317e-05
4.00294e-05
4.00269e-05
4.00243e-05
4.00217e-05
4.00192e-05
4.00167e-05
4.00145e-05
4.00126e-05
4.00117e-05
4.00121e-05
4.00143e-05
4.00185e-05
4.0025e-05
4.00327e-05
4.00417e-05
4.00492e-05
4.00662e-05
0.0173552
0.0280246
0.0346217
0.0382232
0.0398844
0.0402576
0.0397357
0.0385229
0.0366793
0.0341765
0.0309554
0.0269683
0.0221694
0.0165037
0.0101139
0.00405722
0.000492934
0.000220877
3.27712e-06
1.03087e-05
3.21935e-05
4.33907e-05
4.16053e-05
3.9713e-05
3.97921e-05
4.00978e-05
4.01153e-05
4.00564e-05
4.00424e-05
4.00518e-05
4.0056e-05
4.00535e-05
4.0051e-05
4.00505e-05
4.00508e-05
4.00508e-05
4.00504e-05
4.00498e-05
4.00494e-05
4.00489e-05
4.00485e-05
4.00481e-05
4.00477e-05
4.00472e-05
4.00467e-05
4.00462e-05
4.00456e-05
4.00449e-05
4.00442e-05
4.00434e-05
4.00424e-05
4.00414e-05
4.00401e-05
4.00387e-05
4.0037e-05
4.00351e-05
4.0033e-05
4.00306e-05
4.00281e-05
4.00254e-05
4.00227e-05
4.002e-05
4.00174e-05
4.0015e-05
4.00129e-05
4.00116e-05
4.00117e-05
4.00137e-05
4.00178e-05
4.00242e-05
4.00319e-05
4.00409e-05
4.00484e-05
4.00654e-05
0.0220981
0.0330631
0.0402748
0.0445011
0.0466862
0.0474577
0.0472203
0.0462097
0.0445261
0.0421747
0.0391146
0.035303
0.0307089
0.0252958
0.019019
0.0120358
0.00534121
0.00104686
0.000458055
0
8.07356e-06
2.08651e-05
4.04821e-05
4.35159e-05
4.06315e-05
3.95498e-05
3.98665e-05
4.01257e-05
4.01125e-05
4.00517e-05
4.00395e-05
4.00514e-05
4.00579e-05
4.00561e-05
4.00527e-05
4.00513e-05
4.00514e-05
4.00516e-05
4.00512e-05
4.00506e-05
4.005e-05
4.00494e-05
4.0049e-05
4.00485e-05
4.0048e-05
4.00475e-05
4.00469e-05
4.00462e-05
4.00455e-05
4.00447e-05
4.00437e-05
4.00427e-05
4.00414e-05
4.004e-05
4.00383e-05
4.00364e-05
4.00343e-05
4.00319e-05
4.00293e-05
4.00266e-05
4.00238e-05
4.0021e-05
4.00182e-05
4.00156e-05
4.00132e-05
4.00116e-05
4.00114e-05
4.00131e-05
4.00171e-05
4.00234e-05
4.00311e-05
4.00401e-05
4.00476e-05
4.00644e-05
0.0277413
0.0383988
0.0460212
0.0508461
0.0536244
0.0549105
0.0550898
0.0544098
0.0529995
0.0508958
0.0480802
0.0445172
0.0401784
0.0350446
0.0290866
0.0222681
0.0147312
0.00733686
0.0021901
0.000831398
8.12222e-05
4.54776e-06
1.03313e-05
3.15263e-05
4.36648e-05
4.28204e-05
4.00718e-05
3.9478e-05
3.98841e-05
4.01359e-05
4.01196e-05
4.0052e-05
4.00333e-05
4.00462e-05
4.00575e-05
4.00586e-05
4.00549e-05
4.00522e-05