/*--------------------------------*- C++ -*----------------------------------*\
| =========                 |                                                 |
| \\      /  F ield         | OpenFOAM: The Open Source CFD Toolbox           |
|  \\    /   O peration     | Version:  2312                                  |
|   \\  /    A nd           | Website:  www.openfoam.com                      |
|    \\/     M anipulation  |                                                 |
\*---------------------------------------------------------------------------*/
FoamFile
{
    version     2.0;
    format      ascii;
    arch        "LSB;label=32;scalar=64";
    class       volScalarField;
    location    "700";
    object      p;
}
// * * * * * * * * * * * * * * * * * * * * * * * * * * * * * * * * * * * * * //

dimensions      [0 2 -2 0 0 0 0];

internalField   nonuniform List<scalar> 
11040
(
-19.186
-24.4644
-19.819
-19.2051
-19.0765
-18.8744
-18.6759
-18.5125
-18.3886
-18.3042
-18.2286
-18.1674
-18.1216
-18.0813
-18.0532
-18.0327
-18.0213
-18.0193
-18.0259
-18.0424
-18.0661
-18.0982
-18.1413
-18.1941
-18.2505
-18.3049
-18.3494
-18.3751
-18.3713
-18.3274
-18.2343
-18.0851
-17.8766
-17.6121
-17.3072
-16.9877
-16.671
-16.4244
-16.4298
-16.4606
-16.9614
-8.21976
-14.6946
-18.5649
-19.0262
-19.0358
-18.8837
-18.6859
-18.5184
-18.3889
-18.3029
-18.2268
-18.1639
-18.1176
-18.0767
-18.0481
-18.0272
-18.0154
-18.013
-18.0191
-18.0353
-18.0589
-18.091
-18.1337
-18.1862
-18.2428
-18.2978
-18.3435
-18.3709
-18.3696
-18.3288
-18.2391
-18.0938
-17.8897
-17.6297
-17.329
-17.0135
-16.7007
-16.4536
-16.4627
-16.4735
-17.3744
-1.54157
-8.45237
-14.657
-17.9816
-18.7803
-18.8368
-18.6921
-18.5246
-18.3859
-18.299
-18.2236
-18.1589
-18.1126
-18.071
-18.0418
-18.0205
-18.0082
-18.0054
-18.0111
-18.0267
-18.0502
-18.0825
-18.1251
-18.1773
-18.2339
-18.2895
-18.3363
-18.3654
-18.3665
-18.3291
-18.2436
-18.1032
-17.9051
-17.6518
-17.3582
-17.0503
-16.7465
-16.5047
-16.5269
-16.5157
-17.5881
2.38388
-4.66577
-10.5822
-14.9295
-17.5824
-18.5467
-18.6144
-18.5248
-18.3824
-18.292
-18.2178
-18.1507
-18.1052
-18.0628
-18.0331
-18.0115
-17.9986
-17.9955
-18.0007
-18.0158
-18.039
-18.0717
-18.1143
-18.1664
-18.2233
-18.2797
-18.328
-18.3595
-18.364
-18.331
-18.2511
-18.1175
-17.9273
-17.6831
-17.3991
-17.1011
-16.8089
-16.5776
-16.6141
-16.597
-17.6733
4.90853
-0.864857
-6.52463
-11.2481
-14.8298
-17.1888
-18.2324
-18.3662
-18.3746
-18.289
-18.2134
-18.1384
-18.095
-18.052
-18.0222
-18.0004
-17.9867
-17.9833
-17.9879
-18.0025
-18.0253
-18.0581
-18.1007
-18.1528
-18.2102
-18.2677
-18.3181
-18.3528
-18.3617
-18.3347
-18.2622
-18.1376
-17.958
-17.7257
-17.4545
-17.1699
-16.8928
-16.6778
-16.7232
-16.7191
-17.7122
6.34663
1.8336
-3.04277
-7.71904
-11.6128
-14.5699
-16.6767
-17.7988
-18.1326
-18.2368
-18.2124
-18.1284
-18.0826
-18.0374
-18.0083
-17.9867
-17.9724
-17.9689
-17.9727
-17.9868
-18.0089
-18.0417
-18.0843
-18.1363
-18.1943
-18.2533
-18.3063
-18.3451
-18.3598
-18.3404
-18.2776
-18.1646
-17.9986
-17.7819
-17.5275
-17.2603
-17.0025
-16.8096
-16.8554
-16.8834
-17.7493
7.12359
3.51099
-0.439896
-4.53613
-8.40243
-11.6595
-14.1897
-16.0915
-17.3099
-17.8922
-18.0441
-18.1227
-18.0786
-18.0246
-17.9902
-17.9693
-17.955
-17.952
-17.9552
-17.9687
-17.9899
-18.0224
-18.0645
-18.1165
-18.1751
-18.2359
-18.2923
-18.3362
-18.3583
-18.3486
-18.2979
-18.1997
-18.0509
-17.8538
-17.6207
-17.3752
-17.1412
-16.9743
-17.0138
-17.0843
-17.8
7.43149
4.50299
1.35852
-2.00768
-5.4456
-8.70872
-11.5266
-13.7597
-15.4885
-16.7645
-17.5131
-17.8359
-17.9903
-18.0294
-17.9794
-17.952
-17.9324
-17.9311
-17.9345
-17.9482
-17.9684
-18
-18.0413
-18.0929
-18.1522
-18.215
-18.2753
-18.3256
-18.3567
-18.3591
-18.3236
-18.2436
-18.116
-17.943
-17.7358
-17.5164
-17.3099
-17.1699
-17.2002
-17.3086
-17.8649
7.43136
5.01952
2.49382
-0.223538
-3.09359
-5.99805
-8.79111
-11.2761
-13.3018
-14.8931
-16.1407
-17.0329
-17.5581
-17.7914
-17.9396
-17.9554
-17.9158
-17.9087
-17.9081
-17.9235
-17.9433
-17.9743
-18.0145
-18.0654
-18.1251
-18.19
-18.2548
-18.3125
-18.3543
-18.3711
-18.3539
-18.2958
-18.1937
-18.0492
-17.8722
-17.6826
-17.5058
-17.3898
-17.4095
-17.5341
-17.9374
7.2166
5.19537
3.13575
0.94575
-1.39874
-3.84617
-6.32133
-8.73302
-10.9468
-12.8205
-14.3048
-15.4987
-16.4653
-17.1478
-17.5437
-17.7593
-17.8987
-17.909
-17.8871
-17.8966
-17.9119
-17.9428
-17.9828
-18.0332
-18.0934
-18.1605
-18.2301
-18.2959
-18.3499
-18.3831
-18.3867
-18.3539
-18.2809
-18.1687
-18.0253
-17.8676
-17.7197
-17.6215
-17.6267
-17.7355
-18.0033
6.85507
5.1358
3.42729
1.64617
-0.258181
-2.27843
-4.37661
-6.50049
-8.59059
-10.5632
-12.3013
-13.7288
-14.8813
-15.8447
-16.6226
-17.1777
-17.5133
-17.7367
-17.8782
-17.8951
-17.8857
-17.9072
-17.9425
-17.9922
-18.0544
-18.1247
-18.1999
-18.2746
-18.3417
-18.3927
-18.4191
-18.4136
-18.3717
-18.2932
-18.1838
-18.0572
-17.9336
-17.8437
-17.8254
-17.8882
-18.037
6.39551
4.91354
3.47228
2.00236
0.448259
-1.20525
-2.94918
-4.75571
-6.58633
-8.39936
-10.1437
-11.7502
-13.1395
-14.278
-15.217
-16.0206
-16.6786
-17.164
-17.4804
-17.72
-17.8718
-17.905
-17.912
-17.9469
-18.0041
-18.0758
-18.1577
-18.2437
-18.3258
-18.3959
-18.4459
-18.4683
-18.4572
-18.4107
-18.3317
-18.2299
-18.1209
-18.0266
-17.9717
-17.9673
-18.008
5.87478
4.58358
3.34972
2.1177
0.834519
-0.522245
-1.95787
-3.46566
-5.02575
-6.6074
-8.17797
-9.7126
-11.1779
-12.5125
-13.6544
-14.5947
-15.39
-16.0856
-16.6699
-17.1182
-17.4221
-17.6739
-17.8758
-17.9636
-17.9893
-18.0302
-18.1016
-18.1916
-18.288
-18.3788
-18.4541
-18.5052
-18.5244
-18.507
-18.4528
-18.3671
-18.2603
-18.1461
-18.0396
-17.9558
-17.8951
5.3208
4.1866
3.11758
2.0701
0.996141
-0.127198
-1.31054
-2.55705
-3.86233
-5.21064
-6.57706
-7.94098
-9.28883
-10.6021
-11.8481
-12.9762
-13.9425
-14.7504
-15.4507
-16.0768
-16.6257
-17.0228
-17.2853
-17.55
-17.8311
-18.0363
-18.1386
-18.1943
-18.2546
-18.3313
-18.4148
-18.4886
-18.5372
-18.5495
-18.5188
-18.4451
-18.3335
-18.192
-18.0297
-17.8657
-17.7096
4.75456
3.75281
2.8184
1.9173
1.0069
0.0661154
-0.916269
-1.9473
-3.02975
-4.15907
-5.32237
-6.50502
-7.69334
-8.87359
-10.0352
-11.1649
-12.2377
-13.2147
-14.0661
-14.7959
-15.4657
-16.0185
-16.4251
-16.7705
-17.0607
-17.3243
-17.6273
-17.9558
-18.2277
-18.398
-18.4848
-18.5231
-18.5325
-18.5181
-18.4753
-18.3976
-18.2785
-18.1184
-17.9183
-17.6952
-17.4646
4.19595
3.30818
2.48603
1.70321
0.922526
0.125457
-0.698195
-1.5563
-2.4542
-3.39282
-4.36723
-5.37067
-6.39508
-7.42826
-8.45846
-9.47712
-10.4788
-11.4555
-12.3916
-13.2573
-14.0386
-14.6948
-15.2204
-15.6715
-16.0713
-16.4256
-16.7325
-16.9928
-17.2419
-17.529
-17.8553
-18.1642
-18.3905
-18.5046
-18.5087
-18.4211
-18.2591
-18.0362
-17.7553
-17.4382
-17.115
3.66716
2.87937
2.15313
1.46794
0.791828
0.109032
-0.589086
-1.30978
-2.05908
-2.83984
-3.65122
-4.49101
-5.35617
-6.23996
-7.13364
-8.02769
-8.91396
-9.78685
-10.6434
-11.4798
-12.2874
-13.0287
-13.6759
-14.2344
-14.7228
-15.1584
-15.5484
-15.8974
-16.2099
-16.4825
-16.7078
-16.8924
-17.057
-17.2207
-17.3737
-17.4892
-17.534
-17.4907
-17.3421
-17.1042
-16.818
3.19923
2.49539
1.84885
1.24239
0.648493
0.0539783
-0.548307
-1.16466
-1.80055
-2.4592
-3.14161
-3.84778
-4.57704
-5.32608
-6.09
-6.86251
-7.63665
-8.40558
-9.1636
-9.90713
-10.6329
-11.3159
-11.9415
-12.5109
-13.0235
-13.4824
-13.8934
-14.2647
-14.6017
-14.9058
-15.1773
-15.4157
-15.6149
-15.7679
-15.8624
-15.8947
-15.8664
-15.7936
-15.6697
-15.4971
-15.3156
2.80019
2.16584
1.58483
1.042
0.513439
-0.0119276
-0.540153
-1.07674
-1.6266
-2.19286
-2.7768
-3.37929
-4.00069
-4.63934
-5.29252
-5.95642
-6.62652
-7.2977
-7.96438
-8.62078
-9.26111
-9.85872
-10.3991
-10.8889
-11.3329
-11.7367
-12.1046
-12.4393
-12.743
-13.0176
-13.2642
-13.4822
-13.6683
-13.8184
-13.9259
-13.9864
-13.9942
-13.9532
-13.8565
-13.6967
-13.5136
2.46191
1.88676
1.36108
0.871152
0.396181
-0.0732444
-0.542288
-1.01576
-1.4979
-1.99153
-2.49795
-3.01829
-3.55328
-4.1021
-4.66308
-5.23371
-5.81081
-6.39065
-6.9691
-7.54165
-8.10364
-8.63166
-9.1109
-9.54444
-9.93317
-10.2796
-10.5869
-10.8585
-11.0975
-11.3061
-11.4851
-11.6347
-11.7547
-11.8445
-11.9036
-11.9303
-11.9229
-11.8802
-11.8013
-11.6798
-11.5278
2.17334
1.64973
1.17176
0.726992
0.297278
-0.125365
-0.545475
-0.967203
-1.39426
-1.82904
-2.27282
-2.72654
-3.19113
-3.66606
-4.15029
-4.642
-5.13892
-5.63812
-6.13638
-6.62995
-7.11507
-7.5723
-7.98922
-8.36739
-8.70642
-9.00692
-9.27017
-9.49754
-9.69057
-9.85081
-9.97982
-10.079
-10.1496
-10.1921
-10.2074
-10.1953
-10.1566
-10.0896
-9.99715
-9.87844
-9.73642
1.92625
1.44815
1.01209
0.60664
0.216086
-0.16649
-0.545016
-0.923192
-1.30414
-1.68997
-2.08176
-2.48034
-2.88647
-3.2999
-3.71975
-4.14471
-4.57295
-5.00221
-5.42977
-5.85253
-6.26711
-6.65734
-7.01298
-7.33516
-7.6233
-7.87776
-8.09926
-8.28869
-8.44696
-8.57509
-8.6741
-8.74502
-8.7889
-8.80686
-8.80041
-8.77052
-8.71875
-8.64547
-8.55402
-8.44446
-8.32027
1.71386
1.27641
0.87756
0.506863
0.150695
-0.196913
-0.539454
-0.880171
-1.22175
-1.56596
-1.91373
-2.26572
-2.62254
-2.98397
-3.3493
-3.71743
-4.08686
-4.45573
-4.82179
-5.1824
-5.5347
-5.86524
-6.16572
-6.43693
-6.67819
-6.8897
-7.07205
-7.22598
-7.35236
-7.45215
-7.52642
-7.57625
-7.6028
-7.60729
-7.59112
-7.55532
-7.50108
-7.42944
-7.34279
-7.24166
-7.12871
1.5308
1.1299
0.764408
0.424738
0.0991627
-0.217533
-0.528441
-0.836442
-1.14381
-1.45206
-1.76192
-2.07397
-2.38858
-2.70559
-3.02432
-3.34382
-3.66279
-3.97968
-4.29254
-4.59917
-4.89709
-5.17524
-5.42705
-5.65315
-5.85294
-6.02657
-6.17459
-6.2977
-6.39677
-6.47274
-6.52672
-6.55981
-6.57324
-6.56817
-6.54605
-6.5079
-6.45495
-6.38817
-6.30951
-6.21969
-6.12049
1.37263
1.00483
0.669389
0.357652
0.0595027
-0.22958
-0.512407
-0.79148
-1.06878
-1.34554
-1.62239
-1.89973
-2.17783
-2.45647
-2.73505
-3.01268
-3.28825
-3.56036
-3.8274
-4.08745
-4.33842
-4.57124
-4.78089
-4.96794
-5.13192
-5.27307
-5.39193
-5.48926
-5.56585
-5.6227
-5.66084
-5.68143
-5.6856
-5.67456
-5.64958
-5.61179
-5.56225
-5.50193
-5.43247
-5.35457
-5.26996
1.23576
0.897992
0.589782
0.303311
0.029928
-0.234336
-0.49201
-0.745299
-0.995893
-1.24484
-1.49262
-1.73955
-1.98577
-2.23105
-2.47479
-2.71621
-2.9543
-3.18786
-3.4155
-3.63556
-3.84632
-4.04037
-4.21398
-4.36774
-4.50134
-4.61508
-4.70959
-4.78561
-4.84395
-4.8856
-4.91153
-4.92284
-4.92061
-4.90594
-4.88
-4.84382
-4.79835
-4.74442
-4.68348
-4.61604
-4.54383
1.11716
0.806747
0.523264
0.259749
0.00881332
-0.233019
-0.468046
-0.6982
-0.924936
-1.14912
-1.37115
-1.59123
-1.80944
-2.02551
-2.23889
-2.44886
-2.65453
-2.85486
-3.04865
-3.23451
-3.41099
-3.57213
-3.71524
-3.84093
-3.94905
-4.04002
-4.11445
-4.17314
-4.21687
-4.24659
-4.26321
-4.26777
-4.26121
-4.24457
-4.21884
-4.18494
-4.1437
-4.09582
-4.04251
-3.9842
-3.92236
1.01434
0.728831
0.467883
0.225262
-0.00525663
-0.226753
-0.4413
-0.650607
-0.855912
-1.05795
-1.25703
-1.4533
-1.64676
-1.83715
-2.02397
-2.20656
-2.38414
-2.55581
-2.72056
-2.87723
-3.02464
-3.158
-3.2755
-3.37775
-3.46477
-3.53698
-3.5951
-3.63984
-3.67205
-3.69252
-3.70219
-3.70192
-3.69263
-3.67514
-3.65042
-3.61917
-3.58219
-3.53998
-3.49364
-3.44341
-3.39066
0.925131
0.66238
0.421952
0.198398
-0.0135235
-0.216533
-0.412513
-0.602969
-0.788962
-0.971115
-1.14967
-1.32473
-1.49627
-1.66402
-1.82753
-1.98622
-2.13942
-2.28637
-2.42623
-2.55804
-2.68086
-2.79089
-2.88699
-2.96979
-3.03943
-3.09637
-3.14132
-3.175
-3.19818
-3.21164
-3.21619
-3.21263
-3.20176
-3.1843
-3.16107
-3.13269
-3.09982
-3.06288
-3.02278
-2.97972
-2.93486
0.847755
0.60575
0.38406
0.177903
-0.0170551
-0.203235
-0.382351
-0.555724
-0.724274
-0.888523
-1.04868
-1.20481
-1.35686
-1.5046
-1.64763
-1.78544
-1.91748
-2.0431
-2.16164
-2.27231
-2.3744
-2.46491
-2.54324
-2.61001
-2.66546
-2.71004
-2.7445
-2.76948
-2.78574
-2.79395
-2.79487
-2.78918
-2.77761
-2.76075
-2.73932
-2.71382
-2.68483
-2.65267
-2.61812
-2.58131
-2.54323
0.780646
0.557595
0.352974
0.162715
-0.0167679
-0.187618
-0.351395
-0.50927
-0.662034
-0.810143
-0.953772
-1.09297
-1.22768
-1.35771
-1.48271
-1.60227
-1.71593
-1.82317
-1.92346
-2.01621
-2.10085
-2.1751
-2.23871
-2.29235
-2.33624
-2.37093
-2.39705
-2.41529
-2.42626
-2.43063
-2.42903
-2.42211
-2.41042
-2.39455
-2.37502
-2.35234
-2.32691
-2.29908
-2.26939
-2.23802
-2.20575
0.722498
0.516706
0.32767
0.15191
-0.0134503
-0.170328
-0.32015
-0.463947
-0.602415
-0.735948
-0.864712
-0.988747
-1.10802
-1.22235
-1.33149
-1.43508
-1.53277
-1.62417
-1.70886
-1.78643
-1.85644
-1.91716
-1.96866
-2.01157
-2.04616
-2.07295
-2.09255
-2.10558
-2.11261
-2.11425
-2.11101
-2.10348
-2.09213
-2.07746
-2.05991
-2.03989
-2.01774
-1.99373
-1.96833
-1.94166
-1.91437
0.672151
0.482094
0.307231
0.14471
-0.0077726
-0.151923
-0.289038
-0.420048
-0.54555
-0.66592
-0.781298
-0.891753
-0.99725
-1.09767
-1.19283
-1.28246
-1.36629
-1.44405
-1.51542
-1.58014
-1.63789
-1.6874
-1.72893
-1.76311
-1.7902
-1.81072
-1.82522
-1.83429
-1.83841
-1.83812
-1.83389
-1.82622
-1.81549
-1.80213
-1.7865
-1.76896
-1.74977
-1.72917
-1.70751
-1.68489
-1.66188
0.62863
0.452857
0.290904
0.140435
-0.000309945
-0.132864
-0.258421
-0.377802
-0.491555
-0.600014
-0.703345
-0.801614
-0.894837
-0.982923
-1.06577
-1.14318
-1.21499
-1.281
-1.34103
-1.39489
-1.44242
-1.48266
-1.51606
-1.54317
-1.5643
-1.5799
-1.5905
-1.59659
-1.59865
-1.59711
-1.5924
-1.5849
-1.575
-1.56299
-1.54923
-1.53395
-1.51743
-1.4998
-1.48141
-1.46227
-1.44291
0.591062
0.428253
0.278002
0.13851
0.00844485
-0.113555
-0.228591
-0.337403
-0.440494
-0.538184
-0.630655
-0.717996
-0.800262
-0.877414
-0.949412
-1.01614
-1.07751
-1.13341
-1.18377
-1.22846
-1.26744
-1.30002
-1.32674
-1.34812
-1.36446
-1.37616
-1.38373
-1.38758
-1.38816
-1.38581
-1.38092
-1.3738
-1.36478
-1.35411
-1.34208
-1.32888
-1.31472
-1.29973
-1.28417
-1.26805
-1.25182
0.558709
0.407601
0.267956
0.138419
0.0180678
-0.0943334
-0.199795
-0.299001
-0.392413
-0.480359
-0.563035
-0.640571
-0.713055
-0.780509
-0.84295
-0.900346
-0.952672
-0.999901
-1.04203
-1.07903
-1.11092
-1.13724
-1.15858
-1.1754
-1.18801
-1.19675
-1.20208
-1.20438
-1.204
-1.20126
-1.19648
-1.18993
-1.18187
-1.1725
-1.16207
-1.15073
-1.13867
-1.12595
-1.11282
-1.09926
-1.08566
0.53092
0.390344
0.260248
0.139732
0.0281877
-0.0754871
-0.172245
-0.262706
-0.347335
-0.426448
-0.500292
-0.569013
-0.632764
-0.691603
-0.745619
-0.794837
-0.839307
-0.879054
-0.914154
-0.944621
-0.970558
-0.991642
-1.00852
-1.02159
-1.03114
-1.03749
-1.04104
-1.04212
-1.04105
-1.03808
-1.0335
-1.02752
-1.02037
-1.0122
-1.00323
-0.99356
-0.983353
-0.972662
-0.961676
-0.950372
-0.939091
0.507129
0.375968
0.254455
0.142068
0.038495
-0.057267
-0.146104
-0.228617
-0.305252
-0.376364
-0.442217
-0.503023
-0.558956
-0.610159
-0.656747
-0.698845
-0.736527
-0.769912
-0.799094
-0.824179
-0.845276
-0.862231
-0.875637
-0.885893
-0.89321
-0.897911
-0.900304
-0.900703
-0.899345
-0.896481
-0.892306
-0.887029
-0.880805
-0.873797
-0.866132
-0.85794
-0.849311
-0.840322
-0.831092
-0.821628
-0.812194
0.486786
0.363994
0.250147
0.145083
0.0487092
-0.039881
-0.121521
-0.196793
-0.266155
-0.329994
-0.388617
-0.442284
-0.491214
-0.535602
-0.575609
-0.611414
-0.643135
-0.670933
-0.694944
-0.715313
-0.732178
-0.745486
-0.755814
-0.763525
-0.768812
-0.771963
-0.773251
-0.772949
-0.77126
-0.768398
-0.764523
-0.759812
-0.754387
-0.748384
-0.741899
-0.73504
-0.727872
-0.720456
-0.712884
-0.705149
-0.697488
0.469425
0.353956
0.246905
0.148402
0.0585339
-0.0235408
-0.0986258
-0.167293
-0.230021
-0.287233
-0.339291
-0.386511
-0.429168
-0.467512
-0.50176
-0.532147
-0.558841
-0.582042
-0.601921
-0.61865
-0.632386
-0.643136
-0.651432
-0.657581
-0.661743
-0.664163
-0.665066
-0.664677
-0.663158
-0.660684
-0.657383
-0.653398
-0.648826
-0.643778
-0.638329
-0.632568
-0.626547
-0.620316
-0.613951
-0.607442
-0.600993
0.454805
0.34563
0.244464
0.15174
0.067692
-0.00847286
-0.0775575
-0.140171
-0.196819
-0.247979
-0.294049
-0.335405
-0.372362
-0.40522
-0.434217
-0.459615
-0.481607
-0.500424
-0.516264
-0.529327
-0.539791
-0.54772
-0.553626
-0.557789
-0.560355
-0.561547
-0.561562
-0.560599
-0.558795
-0.556301
-0.55322
-0.54967
-0.545725
-0.541476
-0.536974
-0.53229
-0.527458
-0.522516
-0.517516
-0.512435
-0.507464
0.442774
0.338972
0.242855
0.155105
0.0761286
0.00521875
-0.0584237
-0.115463
-0.166504
-0.212092
-0.252701
-0.288744
-0.320613
-0.348676
-0.373276
-0.394713
-0.41323
-0.429039
-0.442349
-0.453333
-0.462182
-0.468954
-0.4741
-0.477815
-0.480236
-0.481514
-0.481824
-0.481298
-0.480063
-0.478211
-0.475845
-0.473036
-0.469864
-0.466381
-0.462653
-0.458716
-0.454622
-0.450384
-0.446069
-0.441644
-0.437278
0.432454
0.333219
0.241562
0.158275
0.0838108
0.0175538
-0.0412372
-0.0932227
-0.139073
-0.179448
-0.214944
-0.246049
-0.273151
-0.296551
-0.316543
-0.33345
-0.347591
-0.35926
-0.368722
-0.376182
-0.38184
-0.385793
-0.388482
-0.390091
-0.390744
-0.390584
-0.389768
-0.388414
-0.386631
-0.384497
-0.382094
-0.379477
-0.376707
-0.373815
-0.370847
-0.367824
-0.364779
-0.361711
-0.358667
-0.355592
-0.352661
0.422343
0.326475
0.238647
0.159602
0.0896309
0.0279732
-0.0261881
-0.073527
-0.114673
-0.150261
-0.180944
-0.207397
-0.230287
-0.250191
-0.267519
-0.282504
-0.295288
-0.306032
-0.314938
-0.322196
-0.327989
-0.332417
-0.335804
-0.338278
-0.339927
-0.340853
-0.341163
-0.34094
-0.340257
-0.33917
-0.337737
-0.336004
-0.334016
-0.331806
-0.329414
-0.326863
-0.324184
-0.321389
-0.318518
-0.315556
-0.312599
0.413742
0.319613
0.234093
0.158227
0.0922749
0.0352875
-0.0138909
-0.0562792
-0.0927518
-0.123998
-0.150514
-0.172647
-0.190701
-0.205048
-0.216226
-0.224906
-0.231663
-0.236847
-0.240667
-0.243274
-0.24482
-0.245395
-0.24533
-0.244743
-0.24371
-0.242328
-0.240693
-0.238881
-0.236953
-0.234955
-0.232929
-0.230903
-0.228903
-0.226942
-0.225035
-0.223189
-0.221415
-0.219703
-0.218074
-0.216474
-0.215035
0.412564
0.319895
0.235213
0.160182
0.0956929
0.0412499
-0.00416052
-0.0417541
-0.0728492
-0.0987774
-0.120763
-0.139836
-0.156743
-0.17188
-0.18525
-0.196617
-0.205912
-0.213427
-0.219539
-0.224531
-0.228587
-0.231853
-0.234524
-0.236668
-0.238331
-0.239574
-0.240443
-0.240982
-0.241215
-0.241175
-0.240883
-0.240364
-0.239639
-0.23873
-0.237654
-0.23643
-0.235074
-0.233601
-0.232023
-0.230366
-0.228615
0.416149
0.326242
0.243609
0.169563
0.105153
0.0504541
0.00508234
-0.0315533
-0.0602227
-0.0818031
-0.0972259
-0.107444
-0.113441
-0.116259
-0.117016
-0.116742
-0.115867
-0.114465
-0.112534
-0.110155
-0.107414
-0.104361
-0.101202
-0.0980256
-0.0948587
-0.0917596
-0.088764
-0.0859144
-0.0832218
-0.0807064
-0.078366
-0.0762077
-0.0742216
-0.0724046
-0.0707415
-0.0692262
-0.0678461
-0.0665854
-0.0654388
-0.0643629
-0.0634257
0.397694
0.306336
0.226897
0.158759
0.101059
0.0525078
0.0118147
-0.0221509
-0.0503782
-0.0737507
-0.0930599
-0.109015
-0.122235
-0.133241
-0.142422
-0.150123
-0.156643
-0.161899
-0.166257
-0.170104
-0.173668
-0.177068
-0.180277
-0.183268
-0.186077
-0.188717
-0.191207
-0.193538
-0.19573
-0.197778
-0.199708
-0.201518
-0.203233
-0.204853
-0.206405
-0.207886
-0.20932
-0.210708
-0.212062
-0.213409
-0.214675
-15.9422
-15.1561
-14.5047
-14.1215
-13.6014
-12.9544
-12.2551
-11.539
-10.816
-10.1016
-9.38784
-8.69175
-7.99513
-7.3153
-6.65514
-6.01483
-5.40141
-4.81757
-4.26532
-3.74974
-3.26869
-2.82796
-2.4235
-2.05733
-1.72772
-1.43393
-1.1732
-0.944893
-0.745289
-0.572626
-0.424554
-0.29805
-0.191451
-0.101646
-0.0269904
0.0343788
0.0847994
0.125243
0.157663
0.182792
0.202477
0.216765
0.226901
0.233955
0.23769
0.239416
0.239032
0.237095
0.23392
0.229689
0.224598
0.21876
0.21241
0.205546
0.198281
0.190719
0.18263
0.174528
0.16588
0.157217
0.14803
0.138822
0.129017
0.119132
0.108906
0.0981997
0.0872184
0.0759524
0.063501
0.0529413
0.0366001
0.031921
-9.14265e-05
0.0291333
-16.6702
-15.8712
-15.084
-14.5264
-13.9046
-13.1963
-12.4552
-11.7065
-10.9559
-10.2151
-9.48083
-8.77049
-8.06482
-7.37429
-6.70314
-6.05326
-5.43135
-4.83995
-4.28148
-3.76025
-3.27495
-2.83043
-2.42308
-2.05465
-1.72337
-1.42838
-1.16695
-0.938162
-0.738417
-0.565818
-0.417929
-0.291772
-0.185525
-0.0961626
-0.0219904
0.0389341
0.0888839
0.128892
0.160882
0.185669
0.204963
0.218918
0.228788
0.235551
0.239058
0.240563
0.239989
0.237889
0.23456
0.230201
0.224989
0.219051
0.212609
0.205668
0.198338
0.190695
0.182566
0.174404
0.165722
0.15701
0.147802
0.138541
0.128722
0.118817
0.108562
0.0978534
0.0868429
0.0755823
0.0631339
0.0525746
0.0362699
0.0315737
-0.000294351
0.0288866
-17.17
-16.606
-15.7515
-15.0251
-14.2872
-13.5012
-12.7047
-11.9135
-11.1281
-10.3553
-9.59277
-8.85893
-8.14116
-7.44105
-6.75845
-6.09742
-5.46564
-4.86565
-4.29988
-3.77226
-3.28197
-2.83311
-2.4225
-2.0515
-1.71834
-1.422
-1.15977
-0.930472
-0.730592
-0.558076
-0.410437
-0.284679
-0.178878
-0.090045
-0.01642
0.0439833
0.0933909
0.1329
0.16441
0.188787
0.207646
0.221234
0.230796
0.237236
0.240492
0.241751
0.240969
0.238692
0.235198
0.230697
0.22536
0.219315
0.212778
0.205756
0.198354
0.19064
0.182464
0.174245
0.165527
0.15677
0.147537
0.138234
0.128402
0.118475
0.108198
0.0974847
0.0864545
0.0751997
0.0627578
0.0522
0.0359392
0.031222
-0.000482328
0.028635
-17.6065
-17.2536
-16.4358
-15.5943
-14.7424
-13.8678
-13.0028
-12.1586
-11.3312
-10.5225
-9.72828
-8.96428
-8.22522
-7.51314
-6.82062
-6.14817
-5.50478
-4.89494
-4.32069
-3.78585
-3.28972
-2.83598
-2.42166
-2.04773
-1.71246
-1.41462
-1.15149
-0.921676
-0.721677
-0.549279
-0.401961
-0.276673
-0.171415
-0.0832047
-0.0102086
0.049584
0.0983708
0.137306
0.168277
0.192173
0.210549
0.223729
0.232937
0.23902
0.242
0.242988
0.241976
0.239507
0.235835
0.23118
0.225712
0.219552
0.212916
0.205808
0.198327
0.19055
0.182323
0.174049
0.165293
0.156496
0.147234
0.137899
0.128054
0.118106
0.107813
0.0970938
0.0860538
0.0748064
0.0623748
0.0518185
0.0356104
0.0308683
-0.000653103
0.0283771
-17.9572
-17.7793
-17.0777
-16.1946
-15.2552
-14.2951
-13.3549
-12.4486
-11.5713
-10.721
-9.89122
-9.09333
-8.32447
-7.59118
-6.88694
-6.20464
-5.54946
-4.92804
-4.34398
-3.80082
-3.29799
-2.83865
-2.42011
-2.04288
-1.70526
-1.40578
-1.14168
-0.911333
-0.711265
-0.539074
-0.392176
-0.267477
-0.162886
-0.0754211
-0.00316763
0.0559001
0.103959
0.14223
0.17258
0.195911
0.213738
0.22646
0.235257
0.240945
0.243607
0.244295
0.243032
0.240346
0.236478
0.231655
0.226046
0.219763
0.21302
0.205822
0.198261
0.190417
0.182137
0.173809
0.165016
0.15618
0.14689
0.137527
0.12767
0.117701
0.107396
0.0966732
0.0856286
0.0743901
0.0619732
0.0514191
0.0352745
0.0304999
-0.00081148
0.0281024
-18.2217
-18.1822
-17.6259
-16.7717
-15.7914
-14.7664
-13.7555
-12.7837
-11.8509
-10.9536
-10.084
-9.24882
-8.44592
-7.68218
-6.95729
-6.26345
-5.59816
-4.96519
-4.36988
-3.81707
-3.30652
-2.8408
-2.41742
-2.03648
-1.69624
-1.39499
-1.12988
-0.899027
-0.698973
-0.527105
-0.380768
-0.256817
-0.153046
-0.0664846
0.00487202
0.0630751
0.110273
0.147767
0.177392
0.200069
0.217267
0.229464
0.237792
0.243035
0.245337
0.245689
0.244147
0.241217
0.237134
0.232131
0.226366
0.219951
0.213095
0.205803
0.198158
0.190243
0.18191
0.173526
0.164699
0.155823
0.14651
0.137117
0.127252
0.117266
0.10695
0.0962282
0.0851812
0.0739552
0.0615569
0.0510053
0.0349335
0.0301209
-0.000955074
0.0278092
-18.4041
-18.4594
-18.0463
-17.2714
-16.3038
-15.2495
-14.1862
-13.155
-12.1662
-11.2194
-10.3068
-9.4315
-8.59178
-7.79299
-7.0377
-6.3238
-5.64681
-5.00388
-4.39763
-3.83441
-3.31487
-2.8418
-2.41297
-2.02786
-1.68474
-1.38157
-1.11545
-0.88416
-0.684249
-0.512885
-0.367302
-0.244314
-0.14157
-0.0561147
0.0141545
0.0713122
0.117488
0.154066
0.182832
0.204742
0.221212
0.232801
0.240586
0.245323
0.247212
0.247186
0.24533
0.242127
0.237807
0.232604
0.226669
0.220112
0.213134
0.205741
0.198009
0.190021
0.181635
0.173196
0.164334
0.15542
0.146087
0.136666
0.126796
0.116795
0.106473
0.0957551
0.084708
0.0734975
0.0611232
0.0505754
0.0345866
0.0297272
-0.00108338
0.0274966
-18.5028
-18.6088
-18.3183
-17.6474
-16.739
-15.6982
-14.6132
-13.5403
-12.5036
-11.51
-10.555
-9.63898
-8.76094
-7.92509
-7.13454
-6.39092
-5.69409
-5.03965
-4.42379
-3.85077
-3.32233
-2.84086
-2.40573
-2.01603
-1.66983
-1.36467
-1.09758
-0.866003
-0.666439
-0.49583
-0.351272
-0.229526
-0.128085
-0.0439991
0.0249346
0.0808205
0.125776
0.16126
0.189011
0.210013
0.225641
0.236522
0.243678
0.247833
0.249254
0.248797
0.246586
0.243079
0.238496
0.233071
0.226951
0.22024
0.213131
0.205632
0.197808
0.189746
0.181305
0.172811
0.163917
0.154966
0.145616
0.13617
0.1263
0.116288
0.105962
0.0952541
0.0842109
0.0730203
0.0606754
0.0501323
0.0342365
0.0293249
-0.00119353
0.0271658
-18.5221
-18.6374
-18.4312
-17.8682
-17.0474
-16.0602
-14.9913
-13.9052
-12.8387
-11.8085
-10.8163
-9.86295
-8.94805
-8.0753
-7.24838
-6.47032
-5.74419
-5.07032
-4.44371
-3.86155
-3.32506
-2.83588
-2.39431
-1.99954
-1.64999
-1.34291
-1.07507
-0.843474
-0.644574
-0.475088
-0.331946
-0.21183
-0.112057
-0.0296839
0.0375974
0.0919236
0.135404
0.16957
0.196103
0.216027
0.23067
0.240718
0.247134
0.250621
0.251498
0.250551
0.247936
0.244082
0.239206
0.233534
0.227209
0.22033
0.213079
0.205466
0.197546
0.189407
0.180911
0.172363
0.163439
0.154455
0.145089
0.135624
0.125756
0.115736
0.105414
0.0947184
0.0836842
0.0725173
0.060208
0.0496711
0.0338805
0.0289062
-0.00128645
0.0268136
-18.4652
-18.5514
-18.3875
-17.9162
-17.1918
-16.2854
-15.2686
-14.2034
-13.1336
-12.0855
-11.0685
-10.0862
-9.14028
-8.23457
-7.37344
-6.56103
-5.80164
-5.09931
-4.45406
-3.86179
-3.3179
-2.82198
-2.37478
-1.97619
-1.62355
-1.31455
-1.04617
-0.815058
-0.617409
-0.449595
-0.308385
-0.190411
-0.0928081
-0.0126203
0.052586
0.104983
0.146667
0.17923
0.204297
0.22293
0.23641
0.245472
0.251018
0.253731
0.253978
0.252466
0.249391
0.245143
0.239937
0.233989
0.227438
0.220374
0.21297
0.205235
0.197214
0.188997
0.180446
0.171845
0.162892
0.153878
0.144501
0.13502
0.125161
0.115138
0.104823
0.0941465
0.083127
0.071989
0.0597216
0.049192
0.0335187
0.0284762
-0.0013615
0.0264399
-18.3334
-18.357
-18.1945
-17.787
-17.1531
-16.3369
-15.3963
-14.3839
-13.3416
-12.301
-11.2781
-10.2813
-9.31536
-8.38542
-7.49658
-6.65405
-5.86329
-5.12989
-4.45775
-3.84739
-3.29454
-2.79416
-2.34256
-1.94049
-1.58622
-1.27706
-1.00901
-0.778825
-0.583021
-0.417727
-0.279329
-0.164256
-0.069469
0.00795387
0.0705449
0.120518
0.159978
0.19057
0.213861
0.230942
0.243038
0.250919
0.255433
0.257245
0.25675
0.254588
0.250981
0.246281
0.240701
0.234441
0.227638
0.22037
0.212799
0.204933
0.196806
0.188506
0.1799
0.171247
0.162269
0.153227
0.143845
0.134353
0.124507
0.114487
0.104186
0.0935338
0.082535
0.0714302
0.0592124
0.0486923
0.0331498
0.0280272
-0.0014194
0.0260422
-18.1227
-18.0641
-17.8678
-17.4884
-16.9257
-16.1983
-15.3426
-14.4018
-13.4137
-12.408
-11.403
-10.4112
-9.44137
-8.5008
-7.59566
-6.73209
-5.91667
-5.15641
-4.45696
-3.82203
-3.25199
-2.74405
-2.29157
-1.88882
-1.53337
-1.22449
-0.95899
-0.732245
-0.53969
-0.377697
-0.242917
-0.131763
-0.0408499
0.0329027
0.0921627
0.139125
0.175847
0.204
0.225104
0.240286
0.250719
0.257185
0.260475
0.261228
0.259859
0.256941
0.252716
0.247499
0.241493
0.234883
0.227797
0.220304
0.21255
0.204542
0.196305
0.187918
0.179259
0.170555
0.161558
0.152492
0.143112
0.133613
0.123788
0.113779
0.103498
0.092877
0.0819056
0.0708407
0.0586805
0.0481718
0.032773
0.0275656
-0.00146023
0.0256221
-17.8305
-17.6813
-17.4285
-17.0456
-16.5235
-15.8682
-15.097
-14.2355
-13.3149
-12.3628
-11.3984
-10.4337
-9.47947
-8.54579
-7.64007
-6.76919
-5.94078
-5.16315
-4.44338
-3.78659
-3.19561
-2.6718
-2.2126
-1.81152
-1.46091
-1.15505
-0.891718
-0.668972
-0.482411
-0.326859
-0.197711
-0.0915552
-0.00535057
0.0637468
0.118601
0.161582
0.194814
0.219965
0.238432
0.25132
0.259735
0.264476
0.26629
0.265787
0.263386
0.259586
0.254641
0.248825
0.242329
0.23532
0.227915
0.220171
0.212215
0.204054
0.1957
0.187224
0.178512
0.169759
0.160747
0.151663
0.14229
0.132794
0.122997
0.113005
0.102753
0.092171
0.0812352
0.070216
0.0581222
0.0476284
0.0323878
0.0270833
-0.0014848
0.0251775
-17.479
-17.2364
-16.909
-16.4941
-15.9826
-15.372
-14.6679
-13.8822
-13.0336
-12.1447
-11.2332
-10.3111
-9.39099
-8.48289
-7.59443
-6.73326
-5.90754
-5.12675
-4.39897
-3.73019
-3.12435
-2.58453
-2.11192
-1.70459
-1.35677
-1.05998
-0.805953
-0.589618
-0.408226
-0.259119
-0.138203
-0.0406261
0.038203
0.10123
0.150932
0.189187
0.218015
0.239224
0.254267
0.264289
0.270287
0.272983
0.273043
0.271041
0.267398
0.262556
0.256767
0.250259
0.243201
0.235738
0.227971
0.219948
0.21177
0.203442
0.194965
0.186398
0.177636
0.168839
0.159817
0.150723
0.141366
0.131881
0.122121
0.112157
0.101943
0.091409
0.0805182
0.0695532
0.0575356
0.0470597
0.0319913
0.0265869
-0.00149503
0.0247112
-17.1065
-16.7841
-16.3778
-15.9052
-15.368
-14.7663
-14.0995
-13.3675
-12.5796
-11.7526
-10.9006
-10.0316
-9.15522
-8.28401
-7.42793
-6.59318
-5.78708
-5.02009
-4.30046
-3.63413
-3.02569
-2.47907
-1.99737
-1.58104
-1.22795
-0.933111
-0.688908
-0.486693
-0.318511
-0.178731
-0.0647127
0.0256079
0.0954665
0.14894
0.190249
0.221906
0.245587
0.262467
0.27356
0.279999
0.28286
0.282934
0.280852
0.27709
0.272001
0.265944
0.259157
0.251833
0.244122
0.236139
0.227964
0.219627
0.211204
0.202695
0.194087
0.185426
0.176615
0.167778
0.158755
0.149658
0.140328
0.130865
0.121152
0.111227
0.101061
0.0905857
0.0797509
0.0688477
0.0569171
0.0464643
0.0315831
0.026068
-0.00149288
0.0242216
-16.6607
-16.287
-15.8378
-15.3311
-14.7699
-14.1521
-13.48
-12.7612
-12.005
-11.2217
-10.4184
-9.59878
-8.77117
-7.947
-7.13294
-6.33432
-5.56031
-4.82197
-4.12626
-3.4785
-2.88253
-2.34295
-1.86388
-1.44687
-1.09079
-0.793052
-0.54971
-0.354779
-0.200359
-0.0777995
0.0204387
0.0995623
0.161887
0.20884
0.242196
0.264783
0.279848
0.289807
0.29573
0.298247
0.2978
0.294887
0.290144
0.284128
0.277232
0.269739
0.261806
0.253551
0.245085
0.2365
0.227858
0.219169
0.210477
0.201772
0.193027
0.184272
0.175415
0.166548
0.157531
0.148445
0.139151
0.129726
0.120071
0.110201
0.100096
0.0896914
0.0789247
0.0680944
0.0562625
0.0458382
0.0311585
0.0255334
-0.00148254
0.0237135
-16.3172
-15.9171
-15.4167
-14.8433
-14.2229
-13.561
-12.8632
-12.1365
-11.3871
-10.6203
-9.84116
-9.05515
-8.26751
-7.48388
-6.71224
-5.95853
-5.22793
-4.52856
-3.86849
-3.2526
-2.68356
-2.16539
-1.70283
-1.29779