/*--------------------------------*- C++ -*----------------------------------*\
| =========                 |                                                 |
| \\      /  F ield         | OpenFOAM: The Open Source CFD Toolbox           |
|  \\    /   O peration     | Version:  2312                                  |
|   \\  /    A nd           | Website:  www.openfoam.com                      |
|    \\/     M anipulation  |                                                 |
\*---------------------------------------------------------------------------*/
FoamFile
{
    version     2.0;
    format      ascii;
    arch        "LSB;label=32;scalar=64";
    class       surfaceScalarField;
    location    "700";
    object      phi;
}
// * * * * * * * * * * * * * * * * * * * * * * * * * * * * * * * * * * * * * //

dimensions      [0 3 -1 0 0 0 0];

oriented        oriented;

internalField   nonuniform List<scalar> 
21876
(
0.00819501
0.000950106
-0.00914513
0.00231672
0.00587828
-0.000895498
0.00321216
-0.0015874
0.000691846
-0.00145319
-0.000134272
-0.00140503
-4.8202e-05
-0.00135054
-5.45357e-05
-0.00129357
-5.70467e-05
-0.00124634
-4.72916e-05
-0.00121884
-2.76299e-05
-0.00119015
-2.87256e-05
-0.00116415
-2.61179e-05
-0.00114793
-1.63294e-05
-0.00113278
-1.53147e-05
-0.00112573
-7.16592e-06
-0.00112431
-1.52931e-06
-0.00113031
5.86956e-06
-0.00114597
1.55729e-05
-0.00117075
2.45691e-05
-0.00120681
3.58798e-05
-0.00125344
4.63089e-05
-0.00130806
5.42542e-05
-0.00137506
6.66758e-05
-0.00145523
7.9866e-05
-0.00154553
9.02759e-05
-0.00164185
9.61486e-05
-0.00173724
9.54315e-05
-0.00182404
8.66951e-05
-0.00189312
6.90961e-05
-0.00193324
4.00745e-05
-0.00193199
-1.26072e-06
-0.00188531
-4.6714e-05
-0.00179106
-9.4276e-05
-0.00164019
-0.000150906
-0.00142422
-0.000215958
-0.00113899
-0.000285334
-0.000782924
-0.000356145
-0.000299522
-0.000483459
0.00029291
-0.000592426
0.000650242
-0.00035851
-0.00218781
0.00283699
0.0115647
-0.000614617
-0.01
0.0102678
0.00717523
0.00495262
0.00852727
0.000193842
0.00545057
-0.0015955
0.00165497
-0.00164338
-4.41317e-07
-0.00165855
-3.94986e-05
-0.0016422
-7.35371e-05
-0.00161735
-7.2266e-05
-0.00160787
-3.72526e-05
-0.00159585
-4.08795e-05
-0.00158252
-3.96426e-05
-0.00157827
-2.07878e-05
-0.00157548
-1.83687e-05
-0.00158106
-1.84446e-06
-0.0015945
1.16436e-05
-0.00161721
2.8251e-05
-0.00165069
4.87456e-05
-0.00169499
6.84398e-05
-0.00175261
9.32086e-05
-0.00182444
0.000117747
-0.00190671
0.000136086
-0.00200131
0.000160846
-0.00210434
0.000182471
-0.0022087
0.000194454
-0.00230785
0.000195089
-0.00239487
0.000182418
-0.00246286
0.00015461
-0.00250458
0.000110801
-0.00251452
4.99733e-05
-0.00248881
-2.7035e-05
-0.00241737
-0.000118231
-0.00228813
-0.000223657
-0.00209154
-0.000347658
-0.00181837
-0.000489326
-0.00146125
-0.000642691
-0.00101525
-0.000802392
-0.000458469
-0.00104053
0.000273526
-0.0013248
0.00104514
-0.00113091
-0.00365027
0.00250683
0.0132864
-0.00288359
-0.0110175
0.015
0.00546163
0.0129813
0.010546
0.00747175
0.0109601
0.00170559
0.00742112
-0.00117608
0.0028812
-0.00171418
0.000498551
-0.00184862
6.08732e-05
-0.00188098
-3.99298e-05
-0.00191349
-4.77321e-06
-0.00193428
-2.00924e-05
-0.00194166
-3.22928e-05
-0.00195511
-7.36768e-06
-0.00196732
-6.19671e-06
-0.00198653
1.7356e-05
-0.00201324
3.83541e-05
-0.002049
6.40292e-05
-0.00209645
9.62148e-05
-0.00215558
0.000127534
-0.00222878
0.00016637
-0.00231654
0.00020545
-0.00241316
0.000232631
-0.00251984
0.000267471
-0.0026326
0.000295179
-0.00274514
0.000307036
-0.00285182
0.000301735
-0.00294632
0.000276951
-0.00302182
0.00023008
-0.00307061
0.0001596
-0.00308459
6.3939e-05
-0.0030542
-5.74222e-05
-0.00296785
-0.000204572
-0.00281429
-0.000377205
-0.0025818
-0.000580133
-0.00225996
-0.000811138
-0.00183881
-0.00106383
-0.00131152
-0.00132969
-0.000660899
-0.0016911
0.000183188
-0.00216879
0.00114637
-0.00209433
-0.00470302
0.00219894
0.0150792
-0.00550713
-0.0124557
0.0174955
0.0030453
0.0186904
0.00935106
0.0164606
0.01319
0.0106598
0.0132219
0.00389771
0.00964323
-0.000284672
0.00468087
-0.00161866
0.00139478
-0.00194258
0.000283876
-0.00209251
0.00014504
-0.0021944
8.16832e-05
-0.00225041
2.35919e-05
-0.00229947
4.15546e-05
-0.0023374
3.15654e-05
-0.00237646
5.62489e-05
-0.00242041
8.20986e-05
-0.0024716
0.000114996
-0.00253449
0.000158842
-0.00260908
0.000201823
-0.00269817
0.000255214
-0.00280218
0.000309175
-0.00291439
0.000344536
-0.0030364
0.000389185
-0.00316505
0.000423563
-0.00329486
0.000436699
-0.00342017
0.00042691
-0.00353391
0.000390645
-0.00362792
0.000324025
-0.00369247
0.000224114
-0.00371681
8.82178e-05
-0.00368877
-8.55294e-05
-0.00359544
-0.000297997
-0.00342411
-0.000548662
-0.00316072
-0.000843677
-0.0027931
-0.00117892
-0.00230895
-0.00154817
-0.00169962
-0.00193921
-0.000947745
-0.00244318
-9.971e-06
-0.00310682
0.00109912
-0.00320382
-0.00557784
0.00197359
0.0170123
-0.00834825
-0.0141712
0.0194995
0.000558113
0.0219162
0.00693434
0.0230967
0.0120096
0.020954
0.0153646
0.0149819
0.0156153
0.00728657
0.0123762
0.00142762
0.0072537
-0.00117816
0.0028896
-0.00189326
0.000860082
-0.00224169
0.000430071
-0.00242642
0.000208294
-0.00256176
0.000176859
-0.00265751
0.000127288
-0.00273642
0.00013512
-0.00281064
0.000156282
-0.00288537
0.000189702
-0.00296935
0.000242774
-0.00306343
0.000295864
-0.00317221
0.000363938
-0.00329683
0.000433766
-0.00343012
0.000477808
-0.0035744
0.000533446
-0.00372726
0.00057642
-0.00388356
0.000593012
-0.00403706
0.000580412
-0.0041796
0.000533186
-0.00430129
0.000445708
-0.00439035
0.000313168
-0.00443369
0.000131547
-0.00441695
-0.000102271
-0.00432523
-0.000389732
-0.0041436
-0.000730308
-0.00385552
-0.00113177
-0.00344679
-0.00158765
-0.00290333
-0.00209165
-0.00221501
-0.00262759
-0.00136272
-0.00329548
-0.000347537
-0.00412202
0.00088011
-0.00443158
-0.00642341
0.00172559
0.0193149
-0.0114957
-0.0161674
0.0220884
-0.00221538
0.0245952
0.00442749
0.027057
0.00954781
0.0283948
0.0140268
0.0266127
0.0173973
0.0207608
0.0182282
0.0123194
0.0156951
0.0045236
0.0106854
5.6217e-05
0.00532742
-0.00156435
0.00205058
-0.00221236
0.000856217
-0.00258578
0.000550171
-0.00282757
0.000368944
-0.00299971
0.000307125
-0.00313875
0.000295163
-0.00325916
0.000309914
-0.00337907
0.000362468
-0.0035026
0.000419164
-0.00363875
0.000499868
-0.00379089
0.000585669
-0.00395235
0.000639043
-0.00412669
0.000707569
-0.00431236
0.000761915
-0.00450452
0.000785043
-0.00469624
0.000772035
-0.00487816
0.000715031
-0.0050387
0.00060618
-0.00516399
0.000438393
-0.00523863
0.000206117
-0.00524591
-9.50763e-05
-0.00516845
-0.00046728
-0.00498881
-0.000910058
-0.00468791
-0.00143278
-0.00424948
-0.00202621
-0.00365841
-0.00268286
-0.00290398
-0.00338215
-0.00196741
-0.00423216
-0.000891349
-0.00519823
0.000424005
-0.00574707
-0.0073234
0.00132385
0.0220765
-0.0150335
-0.0185387
0.0253075
-0.00544641
0.0280317
0.00170334
0.0305239
0.00705558
0.0330045
0.0115463
0.0346272
0.0157745
0.0334886
0.0193668
0.028193
0.0209906
0.0193949
0.0194835
0.0098046
0.0149177
0.00281334
0.00904179
-0.000603955
0.00427343
-0.00188513
0.00183126
-0.00256868
0.00105241
-0.00298781
0.000726177
-0.00328741
0.000594667
-0.00351122
0.000533625
-0.00370393
0.00055506
-0.00388074
0.000595873
-0.00406028
0.000679298
-0.00425095
0.000776286
-0.00444924
0.000837273
-0.00466199
0.00092027
-0.00488943
0.000989321
-0.00512756
0.00102315
-0.00536893
0.00101338
-0.00560312
0.000949198
-0.00581691
0.000819929
-0.00599436
0.000615813
-0.00611765
0.000329362
-0.00616755
-4.52137e-05
-0.00612398
-0.000510907
-0.00596685
-0.00106724
-0.00567472
-0.00172498
-0.00522946
-0.00247152
-0.00461576
-0.00329664
-0.00382341
-0.00417457
-0.0028374
-0.00521826
-0.00172668
-0.00630899
-0.000376523
-0.0070973
-0.00830636
0.000606417
0.0254222
-0.0190996
-0.0213561
0.0291205
-0.00914468
0.0323106
-0.00148674
0.0350009
0.00436532
0.0374283
0.00911885
0.0398906
0.0133122
0.0418401
0.0174173
0.0415704
0.0212603
0.0373172
0.0237367
0.0288227
0.0234121
0.0180308
0.0198336
0.00816199
0.0141423
0.00189233
0.00810087
-0.000944911
0.00388959
-0.00218147
0.00196265
-0.00293765
0.00135071
-0.00343068
0.0010265
-0.00380171
0.000925913
-0.00409572
0.000889711
-0.00435809
0.000941495
-0.00461072
0.00102875
-0.00485943
0.00108583
-0.00512024
0.00118093
-0.00539838
0.00126735
-0.00569267
0.00131734
-0.00599621
0.00131682
-0.00629791
0.00125084
-0.00658305
0.001105
-0.00683371
0.000866415
-0.00702963
0.000525213
-0.007149
7.40845e-05
-0.00716901
-0.000490966
-0.00706707
-0.00116926
-0.00681982
-0.0019723
-0.00640778
-0.00288363
-0.00581615
-0.00388835
-0.00503641
-0.00495437
-0.00406026
-0.00619445
-0.0029633
-0.00740598
-0.00165824
-0.00840237
-0.00935133
-0.000613275
0.0294626
-0.0238633
-0.024699
0.0337274
-0.0134093
0.0374369
-0.00519632
0.0405988
0.00120341
0.0432262
0.00649139
0.045542
0.0109964
0.0479133
0.015046
0.050125
0.0190486
0.0508118
0.02305
0.0480347
0.0261892
0.0407022
0.0271661
0.0295702
0.0252743
0.017301
0.02037
0.00735817
0.0138324
0.00154358
0.00777713
-0.00109084
0.00398499
-0.00241887
0.00235435
-0.00328814
0.00179503
-0.00388668
0.0014881
-0.00435054
0.00140525
-0.00473417
0.00141227
-0.00506967
0.00142122
-0.00539837
0.00150952
-0.0057392
0.00160809
-0.00609949
0.00167755
-0.00647661
0.00169388
-0.00686116
0.00163531
-0.0072381
0.00148188
-0.00758791
0.00121614
-0.00788796
0.000825196
-0.00811385
0.000299889
-0.00824037
-0.000364523
-0.00824263
-0.00116709
-0.00809623
-0.00211877
-0.00778093
-0.003199
-0.007283
-0.00438635
-0.00659667
-0.00564077
-0.00572122
-0.00706992
-0.00472331
-0.00840392
-0.00356169
-0.00956396
-0.0103829
-0.00253013
0.0343225
-0.0295166
-0.0286691
0.0393149
-0.0184018
0.0436216
-0.00950294
0.047312
-0.00248707
0.0504176
0.00338577
0.0529652
0.00844879
0.0551435
0.0128677
0.0573466
0.0168455
0.0596677
0.0207289
0.0612036
0.0246533
0.0601353
0.0282343
0.0547099
0.0306998
0.0444894
0.0305904
0.0310662
0.0272555
0.0176134
0.0212299
0.00746062
0.0141377
0.0017107
0.00810424
-0.00101305
0.00451872
-0.00252628
0.00300124
-0.00355601
0.00243488
-0.00428613
0.00214228
-0.00483036
0.00196534
-0.0052946
0.00197366
-0.00573478
0.00204818
-0.00618234
0.00212502
-0.00664808
0.00215951
-0.00713052
0.00211773
-0.00761878
0.00197005
-0.00809461
0.00169195
-0.00853486
0.00126536
-0.00891353
0.00067851
-0.00920349
-7.46445e-05
-0.00937776
-0.000992859
-0.00941183
-0.00208477
-0.00928515
-0.00332572
-0.00898529
-0.00468628
-0.00850935
-0.00611671
-0.00786262
-0.00771668
-0.00709364
-0.00917286
-0.0061945
-0.0104631
-0.0112751
-0.00530217
0.0401513
-0.0362873
-0.0333805
0.0460639
-0.0243144
0.0511182
-0.0145573
0.0554197
-0.00678864
0.0590496
-0.000244147
0.0620763
0.00542208
0.0645365
0.0104075
0.0665731
0.014809
0.0685517
0.0187503
0.0707783
0.0224267
0.0728712
0.0261414
0.0734241
0.0301469
0.0704266
0.0335878
0.0624237
0.0352585
0.0496056
0.034048
0.034117
0.0296263
0.0194167
0.0228045
0.00864209
0.0152933
0.00249719
0.00914607
-0.000572703
0.00550465
-0.00235165
0.00392109
-0.003499
0.00311257
-0.00432445
0.00279897
-0.00499786
0.00272146
-0.00561252
0.00273954
-0.00621435
0.00276129
-0.00682667
0.00272995
-0.00745391
0.00259729
-0.00808646
0.00232442
-0.00870549
0.00188439
-0.00928748
0.00126043
-0.00980622
0.000444088
-0.0102349
-0.000564209
-0.0105504
-0.00176928
-0.0107318
-0.00314445
-0.010767
-0.00465101
-0.0106542
-0.00622954
-0.0104019
-0.00796896
-0.0100357
-0.00953914
-0.0095533
-0.0109453
-0.01185
-0.00897844
0.0471328
-0.0444487
-0.0389715
0.0542003
-0.0313818
0.0601956
-0.0205526
0.0652527
-0.0118458
0.0694919
-0.00448344
0.0730284
0.00188559
0.0759552
0.00748064
0.0783233
0.0124409
0.0802325
0.0168411
0.0819669
0.0206922
0.0839289
0.0241794
0.0862059
0.0278698
0.0879726
0.0318212
0.0874464
0.0357846
0.0826071
0.0388874
0.0723093
0.0399242
0.0571666
0.0379472
0.0396373
0.0328226
0.0233254
0.0254578
0.0112997
0.0175303
0.00421275
0.011008
0.000757856
0.00656739
-0.0011958
0.00475254
-0.0025536
0.00407917
-0.00361121
0.003797
-0.00451886
0.00366883
-0.00537032
0.00358135
-0.00621291
0.00343984
-0.00706278
0.00317426
-0.00791797
0.00273955
-0.00876623
0.00210867
-0.00958895
0.00126678
-0.0103642
0.000211062
-0.0110747
-0.00105887
-0.0117
-0.00251908
-0.0122286
-0.0041225
-0.0126556
-0.00580248
-0.0129909
-0.00763381
-0.0132323
-0.00929761
-0.0133642
-0.0108136
-0.0118755
-0.0133386
0.0554892
-0.0543298
-0.0456082
0.0639938
-0.0398864
0.0711675
-0.0277264
0.0771712
-0.0178495
0.0821627
-0.00947499
0.0862938
-0.00224554
0.0897059
0.00406844
0.0925131
0.00963363
0.0947845
0.0145696
0.0965856
0.0188911
0.0981081
0.0226569
0.0997481
0.0262298
0.101853
0.0297159
0.104217
0.0334209
0.105665
0.0374394
0.104221
0.0413685
0.0979001
0.0442679
0.0857402
0.0449825
0.0685292
0.0426688
0.0488146
0.037245
0.0302247
0.029598
0.0169376
0.0198545
0.0088683
0.0128219
0.00442658
0.00852072
0.0018419
0.00638164
4.73522e-05
0.00546314
-0.00140997
0.00503866
-0.00271312
0.0047428
-0.00395336
0.00441452
-0.00517801
0.00396405
-0.00640842
0.0033391
-0.00764889
0.00250712
-0.00889036
0.00145255
-0.0101275
0.000178205
-0.0113449
-0.00130175
-0.0125312
-0.00293624
-0.0136772
-0.00465649
-0.0147958
-0.00651531
-0.0158553
-0.00823807
-0.0168231
-0.00984583
-0.0110859
-0.0176127
0.06549
-0.0663278
-0.053492
0.0757722
-0.0501686
0.0844118
-0.036366
0.0915989
-0.0250366
0.0975291
-0.0154052
0.102397
-0.00711322
0.10638
8.53842e-05
0.10964
0.0063737
0.112308
0.0119007
0.114471
0.0167285
0.116184
0.0209438
0.117577
0.0248371
0.118931
0.0283619
0.120665
0.0316871
0.123017
0.0350867
0.125557
0.0388283
0.126901
0.0429245
0.124976
0.0469078
0.117791
0.0498532
0.104373
0.0506637
0.0854372
0.0485336
0.0649797
0.040312
0.0459182
0.0318833
0.030609
0.0238299
0.0198619
0.0171285
0.0130175
0.0123075
0.00875751
0.00929836
0.00589596
0.00760433
0.00368028
0.00662991
0.00172108
0.00592325
-0.000164327
0.00522424
-0.00205152
0.00439434
-0.0039667
0.00336748
-0.00592659
0.00213816
-0.00792716
0.000698563
-0.00996332
-0.000899958
-0.012022
-0.00259809
-0.0141212
-0.00441589
-0.0161993
-0.00616025
-0.0182168
-0.00782815
-0.00922731
-0.0200755
0.0774622
-0.0809236
-0.0628665
0.089933
-0.0626394
0.100385
-0.0468179
0.109043
-0.0336949
0.116145
-0.0225075
0.121931
-0.0128987
0.126623
-0.00460723
0.130423
0.00257401
0.133506
0.00881725
0.136016
0.0142189
0.138057
0.0189028
0.139711
0.0231829
0.141048
0.0270252
0.142232
0.0305026
0.143601
0.0337177
0.145569
0.0368604
0.148288
0.0402051
0.151211
0.0439848
0.152881
0.0481834
0.151188
0.0523569
0.144092
0.0556294
0.131556
0.0528484
0.114705
0.0487342
0.095443
0.0430913
0.0759625
0.036609
0.0582797
0.0299901
0.0437449
0.023833
0.0327509
0.0185981
0.0248564
0.0145243
0.0192126
0.0115669
0.0149708
0.00946585
0.0114877
0.00787729
0.00835286
0.00650223
0.00531068
0.00518014
0.00224731
0.00376192
-0.000890268
0.00223743
-0.00410933
0.000621031
-0.00745274
-0.00107264
-0.0108135
-0.00279937
-0.0141454
-0.0044964
-0.0060368
-0.0173357
0.0918017
-0.0986996
-0.0740258
0.106958
-0.0777962
0.119641
-0.0595008
0.130118
-0.0441721
0.138677
-0.0310663
0.145608
-0.0198293
0.151185
-0.0101841
0.155656
-0.00189739
0.159241
0.00523247
0.162123
0.0113365
0.164457
0.0165684
0.166383
0.0212578
0.167985
0.0254226
0.169322
0.029166
0.170475
0.0325648
0.171643
0.0356918
0.173189
0.0386596
0.175516
0.0416571
0.178757
0.0449428
0.182377
0.0487368
0.184965
0.0530414
0.184537
0.0532764
0.180086
0.053185
0.171246
0.0519314
0.158407
0.0494475
0.142527
0.04587
0.124876
0.0414837
0.106841
0.0366336
0.0897079
0.0316569
0.0744337
0.0268409
0.061484
0.0224154
0.0508371
0.0185239
0.042139
0.0152003
0.0348628
0.0124561
0.0285776
0.0100471
0.0229193
0.00789551
0.0176384
0.00590205
0.012469
0.00409656
0.00741943
0.0022503
0.00242171
0.000501209
-0.00115308
-0.0024619
0.108983
-0.120361
-0.0873215
0.127428
-0.0962414
0.14285
-0.0749222
0.155568
-0.0568901
0.165929
-0.0414279
0.174285
-0.0281847
0.180966
-0.0168661
0.186279
-0.00720957
0.19049
0.00102143
0.193829
0.00799684
0.196492
0.0139053
0.198658
0.0190922
0.200465
0.023615
0.20202
0.0276119
0.203387
0.0311976
0.204615
0.0344635
0.205793
0.0374818
0.20713
0.0403201
0.208988
0.0430845
0.211783
0.0459412
0.215688
0.0491367
0.219821
0.0491433
0.223379
0.0496268
0.225338
0.0499726
0.224796
0.0499895
0.221174
0.0494919
0.214296
0.0483609
0.204372
0.0465583
0.191894
0.0441343
0.177539
0.0411961
0.162068
0.0378858
0.146244
0.0343478
0.130732
0.0307123
0.115939
0.027249
0.10221
0.0237759
0.0896647
0.0204408
0.0782771
0.0172896
0.0677147
0.0146588
0.0580127
0.0119524
0.0489438
0.00956992
0.00731595
0.0404748
0.117467
-0.144269
-0.0935591
0.137808
-0.116582
0.154807
-0.0919215
0.168814
-0.0708966
0.180208
-0.0528219
0.189372
-0.0373496
0.196672
-0.0241662
0.202441
-0.0129779
0.206973
-0.00351129
0.210525
0.00444516
0.213314
0.0111163
0.215538
0.0168684
0.217355
0.0217978
0.218898
0.0260688
0.220274
0.0298222
0.221557
0.0331803
0.222793
0.0362459
0.224016
0.0390966
0.225303
0.0417974
0.22684
0.0444039
0.228957
0.0470203
0.231628
0.0464716
0.235013
0.0462418
0.238966
0.0460196
0.243094
0.0458616
0.246845
0.0457408
0.249627
0.045579
0.250912
0.0452731
0.250313
0.0447327
0.247622
0.0438872
0.242807
0.0427012
0.235985
0.0411694
0.227386
0.0393115
0.217244
0.0373903
0.205919
0.0351012
0.193771
0.0325886
0.181156
0.0299047
0.168113
0.0277012
0.155104
0.0249613
0.142209
0.0224655
0.0198223
0.129702
0.124323
-0.170093
-0.0984998
0.146282
-0.138541
0.164629
-0.110269
0.179738
-0.0860058
0.192018
-0.0651016
0.20188
-0.0472113
0.209714
-0.0320008
0.21588
-0.0191433
0.220695
-0.00832643
0.224435
0.000705039
0.227336
0.00821467
0.229611
0.0145937
0.231431
0.0199779
0.23294
0.0245599
0.234258
0.0285041
0.235485
0.0319536
0.236698
0.0350327
0.23795
0.0378449
0.239267
0.0404802
0.240668
0.0430026
0.242212
0.0454764
0.243743
0.0449407
0.245497
0.0444874
0.247668
0.0438485
0.250394
0.0431363
0.253705
0.0424297
0.257506
0.0417779
0.261585
0.0411936
0.265652
0.0406658
0.26938
0.0401593
0.272449
0.0396318
0.274582
0.0390364
0.275567
0.0383265
0.275255
0.0377019
0.27357
0.0367858
0.270511
0.0356479
0.266143
0.0342726
0.260434
0.0334097
0.253598
0.031798
0.245706
0.0303569
0.02855
0.236978
0.1319
-0.197978
-0.104014
0.155602
-0.162244
0.175404
-0.130071
0.191707
-0.102309
0.20495
-0.0783444
0.215574
-0.057836
0.224
-0.0404269
0.230612
-0.0257548
0.235752
-0.0134661
0.239716
-0.00325991
0.242762
0.0051693
0.245115
0.0122408
0.246961
0.0181313
0.248457
0.0230637
0.249732
0.0272292
0.250894
0.0307922
0.252031
0.0338955
0.253218
0.0366582
0.25451
0.039188
0.255942
0.0415704
0.257528
0.0438904
0.258984
0.0434846
0.260389
0.0430821
0.261805
0.0424324
0.263328
0.0416141
0.26507
0.0406872
0.267142
0.039706
0.269622
0.0387136
0.272539
0.0377479
0.275868
0.036831
0.279524
0.0359753
0.283381
0.0351789
0.287283
0.0344251
0.291073
0.0339115
0.29457
0.0332884
0.297613
0.0326051
0.300068
0.031818
0.301834
0.0316427
0.302811
0.0308216
0.302941
0.0302266
0.0293075
0.302183
0.140205
-0.228084
-0.110099
0.165788
-0.187827
0.187161
-0.151443
0.204754
-0.119902
0.21904
-0.0926308
0.230495
-0.0692905
0.239568
-0.0495003
0.246673
-0.0328595
0.252177
-0.0189701
0.2564
-0.00748289
0.259617
0.0019523
0.26207
0.00978705
0.263962
0.01624
0.265459
0.0215667
0.266702
0.0259863
0.267806
0.0296878
0.268868
0.0328337
0.269966
0.0355599
0.271167
0.0379871
0.272524
0.0402132
0.274078
0.0423368
0.275554
0.0420089
0.277003
0.0416327
0.278422
0.041013
0.279815
0.0402216
0.281198
0.0393042
0.282606
0.0382982
0.284087
0.0372324
0.285698
0.036137
0.287494
0.035035
0.289521
0.0339482
0.291808
0.0328914
0.294364
0.0318695
0.297186
0.0310893
0.300233
0.0302409
0.303449
0.029389
0.306763
0.0285046
0.310144
0.0282619
0.313471
0.0274939
0.316688
0.02701
0.0263023
0.319693
0.149265
-0.260584
-0.116764
0.176877
-0.215439
0.199945
-0.174511
0.218933
-0.138889
0.234349
-0.108047
0.246704
-0.0816458
0.256483
-0.0592792
0.264128
-0.040505
0.270035
-0.0248773
0.274548
-0.0119958
0.277963
-0.00146231
0.280539
0.0072112
0.282491
0.0142872
0.284002
0.020056
0.285221
0.0247669
0.286274
0.0286347
0.287264
0.031844
0.288275
0.0345489
0.289377
0.0368854
0.290626
0.0389633
0.292072
0.040891
0.293458
0.0406233
0.294848
0.0402421
0.296249
0.0396121
0.297658
0.0388126
0.299069
0.037893
0.300476
0.0368913
0.301875
0.0358336
0.303267
0.0347443
0.304662
0.0336398
0.306075
0.0325359
0.307523
0.0314425
0.30903
0.0303626
0.310623
0.0294963
0.312318
0.0285455
0.314129
0.0275776
0.316062
0.0265712
0.318147
0.0261767
0.320359
0.0252824
0.3227
0.0246683
0.0238575
0.325145
0.159115
-0.295669
-0.124031
0.18892
-0.245243
0.213819
-0.199411
0.234314
-0.159384
0.250953
-0.124686
0.264285
-0.0949777
0.274831
-0.0698249
0.283067
-0.0487408
0.289417
-0.0312277
0.294252
-0.0168304
0.297889
-0.00509964
0.300607
0.00449346
0.302636
0.0122574
0.304172
0.01852
0.305376
0.0235627
0.306383
0.0276281
0.307303
0.0309242
0.308227
0.0336252
0.309229
0.0358833
0.310369
0.0378225
0.311699
0.0395618
0.312965
0.0393564
0.314239
0.0389685
0.315531
0.0383197
0.316849
0.0374944
0.318195
0.0365466
0.319568
0.0355188
0.320961
0.0344404
0.322367
0.0333383
0.323777
0.0322297
0.325183
0.0311296
0.326579
0.0300465
0.32796
0.0289808
0.329332
0.0281247
0.330691
0.027186
0.332042
0.0262269
0.333388
0.0252249
0.334751
0.0248131
0.336128
0.0239054
0.337535
0.0232623
0.0224196
0.338972
0.169803
-0.333546
-0.131926
0.201976
-0.277417
0.228856
-0.226292
0.250983
-0.18151
0.268946
-0.142649
0.283336
-0.109369
0.294716
-0.0812039
0.303594
-0.0576198
0.31043
-0.038063
0.315619
-0.0220197
0.319505
-0.00898513
0.322384
0.00161416
0.324505
0.0101359
0.326078
0.0169477
0.327274
0.022366
0.328239
0.026663
0.329092
0.030072
0.329928
0.0327884
0.330829
0.0349825
0.331859
0.0367929
0.333069
0.0383511
0.334215
0.0382105
0.335365
0.0378183
0.336533
0.037152
0.337727
0.0363003
0.338953
0.0353206
0.340214
0.0342582
0.341509
0.0331452
0.342837
0.0320109
0.344192
0.0308744
0.345569
0.0297524
0.346962
0.0286542
0.348361
0.0275812
0.349766
0.0267201
0.351165
0.0257868
0.352551
0.0248407
0.353918
0.0238581
0.355275
0.0234567
0.356606
0.0225739
0.357917
0.0219515
0.0211331
0.359204
0.18138
-0.374441
-0.140485
0.216116
-0.312152
0.24514
-0.255316
0.269033
-0.205403
0.288431
-0.162047
0.303971
-0.124909
0.316255
-0.0934884
0.325835
-0.0671995
0.3332
-0.0454285
0.338779
-0.0275985
0.342939
-0.0131455
0.346
-0.00144676
0.348228
0.0079077
0.349847
0.0153286
0.351044
0.0211696
0.351972
0.025735
0.352758
0.0292852
0.353508
0.0320386
0.354306
0.0341844
0.355222
0.0358774
0.356311
0.0372622
0.357332
0.0371893
0.358356
0.0367939
0.359398
0.0361099
0.360467
0.0352309
0.36157
0.0342175
0.362711
0.033118
0.363889
0.0319667
0.365105
0.0307945
0.366358
0.0296219
0.367643
0.0284666
0.368959
0.0273388
0.370299
0.0262405
0.371665
0.0253539
0.373049
0.0244034
0.374443
0.0234466
0.375841
0.0224597
0.377252
0.0220455
0.378659
0.0211671
0.380063
0.0205477
0.0197402
0.381456
0.19391
-0.418602
-0.149748
0.23142
-0.349663
0.262765
-0.286661
0.288572
-0.23121
0.309526
-0.183001
0.326314
-0.141696
0.339582
-0.106757
0.349925
-0.0775425
0.35787
-0.0533731
0.363876
-0.0336048
0.36834
-0.0176094
0.371604
-0.0047105
0.373954
0.00555772
0.37563
0.0136522
0.376833
0.0199669
0.377727
0.0248405
0.37845
0.0285626
0.379112
0.031376
0.379806
0.0334907
0.380605
0.0350786
0.381569
0.0362983
0.382461
0.036297
0.383355
0.0358998
0.384268
0.0351973
0.38521
0.0342884
0.38619
0.0332377
0.387211
0.0320964
0.388276
0.0309015
0.389385
0.0296855
0.390537
0.0284705
0.391728
0.0272747
0.392958
0.0261094
0.394221
0.0249769
0.39552
0.0240547
0.396849
0.0230755
0.3982
0.0220949
0.399571
0.0210895
0.400969
0.0206467
0.402381
0.019756
0.403806
0.0191219
0.0183075
0.405239
0.207459
-0.466301
-0.15976
0.247975
-0.390178
0.281837
-0.320523
0.30972
-0.259093
0.332363
-0.205644
0.350506
-0.159839
0.364846
-0.121097
0.376021
-0.0887175
0.384599
-0.0619507
0.391074
-0.0400798
0.395872
-0.022408
0.399362
-0.00819987
0.401849
0.00306976
0.403594
0.0119078
0.404809
0.0187514
0.405674
0.0239762
0.406333
0.0279032
0.406907
0.0308019
0.407494
0.032904
0.408173
0.0344
0.409008
0.0354634
0.409766
0.035538
0.410526
0.0351407
0.411304
0.034419
0.412115
0.0334773
0.412968
0.0323847
0.413869
0.0311958
0.41482
0.0299504
0.415822
0.028683
0.416875
0.0274171
0.417978
0.0261723
0.419127
0.0249603
0.42032
0.0237844
0.421557
0.0228174
0.422832
0.0218001
0.424141
0.0207862
0.425478
0.0197528
0.426852
0.0192721
0.428249
0.0183595
0.42967
0.017701
0.0168703
0.431107
0.222104
-0.517833
-0.170572
0.265878
-0.433953
0.30247
-0.357115
0.332607
-0.289229
0.357086
-0.230124
0.376703
-0.179456
0.39221
-0.136604
0.404292
-0.1008
0.413562
-0.0712205
0.420552
-0.0470691
0.425719
-0.0275753
0.429459
-0.0119399
0.432102
0.000426298
0.433927
0.0100837
0.435162
0.0175161
0.435999
0.0231389
0.436595
0.0273071
0.437079
0.0303181
0.437555
0.0324278
0.438109
0.033846
0.43881
0.0347626
0.43943
0.034918
0.440048
0.0345223
0.440686
0.0337804
0.441361
0.0328029
0.442082
0.0316634
0.442857
0.0304206
0.44369
0.0291172
0.444583
0.0277899
0.445536
0.0264642
0.446547
0.0251606
0.447616
0.0238922
0.448737
0.0226628
0.449914
0.0216408
0.451138
0.0205752
0.452407
0.019518
0.453712
0.018447
0.455066
0.0179188
0.45645
0.0169753
0.457867
0.0162839
0.0154288
0.459308
0.237926
-0.573522
-0.182237
0.285237
-0.481264
0.324793
-0.39667
0.357378
-0.321814
0.383853
-0.256599
0.405075
-0.200678
0.421854
-0.153383
0.434928
-0.113875
0.444956
-0.081248
0.45251
-0.0546232
0.458084
-0.0331494
0.462102
-0.0159581
0.46492
-0.00239189
0.466837
0.0081675
0.468099
0.0162541
0.468911
0.0223261
0.469444
0.0267747
0.469834
0.029928
0.470194
0.0320671
0.470617
0.0334232
0.471177
0.034203
0.47165
0.0344445
0.47212
0.0340523
0.472611
0.0332892
0.473142
0.0322725
0.473724
0.031081
0.474367
0.0297776
0.475076
0.0284083
0.475853
0.0270124
0.4767
0.0256173
0.477615
0.0242452
0.478597
0.02291
0.479643
0.0216168
0.480755
0.0205295
0.481924
0.0194053
0.483148
0.0182948
0.484418
0.0171762
0.485747
0.0165908
0.487115
0.0156072
0.488525
0.014874
0.0139862
0.489967
0.255018
-0.633723
-0.194817
0.306169
-0.532415
0.348945
-0.439446
0.384192
-0.357062
0.41284
-0.285247
0.435811
-0.223649
0.453978
-0.17155
0.468137
-0.128033
0.478994
-0.0921057
0.487169
-0.0627977
0.493192
-0.0391722
0.497519
-0.0202851
0.500533
-0.00540607
0.502555
0.00614563
0.503851
0.0149579
0.504642
0.0215351
0.505109
0.0263074
0.505402
0.0296358
0.50564
0.0318286
0.505923
0.0331397
0.506332
0.0337943
0.506649
0.0341274
0.506961
0.0337409
0.507294
0.0329558
0.50767
0.0318964
0.508104
0.0306475
0.508605
0.0292763
0.50918
0.027833
0.509833
0.0263594
0.510565
0.0248853
0.511376
0.0234345
0.512264
0.0220223
0.513226
0.0206547
0.514264
0.0194917
0.51537
0.0182986
0.516541
0.0171247
0.517768
0.0159489
0.519062
0.0152966
0.520405
0.0142639
0.521799
0.0134801
0.0125517
0.523234
0.273477
-0.698825
-0.208376
0.328801
-0.587739
0.375078
-0.485723
0.413224
-0.395208
0.444239
-0.316261
0.469118
-0.248528
0.488801
-0.191233
0.504146
-0.143377
0.515914
-0.103874
0.524772
-0.071655
0.53129
-0.0456904
0.53596
-0.0249551
0.539194
-0.00863991
0.541336
0.00400293
0.542675
0.0136194
0.543447
0.0207635
0.543847
0.0259073
0.544035
0.0294473
0.544143
0.0317209
0.544276
0.0330064
0.544522
0.0335487
0.544669
0.0339796
0.544809
0.0336014
0.544971
0.0327935
0.54518
0.0316881
0.545451
0.030376
0.545797
0.0289301
0.546226
0.0274043
0.546742
0.0258438
0.547346
0.0242807
0.54804
0.0227409
0.548821
0.0212412
0.549687
0.0197888
0.550639
0.0185396
0.551671
0.0172673
0.552775
0.01602
0.553947
0.0147775
0.555195
0.0140486
0.556501
0.0129581
0.557866
0.0121152
0.0111383
0.559279
0.293412
-0.769253
-0.222984
0.353274
-0.647601
0.403362
-0.535811
0.444665
-0.436511
0.478261
-0.349857
0.505223
-0.27549
0.526564
-0.212575
0.543208
-0.160022
0.555977
-0.116643
0.565586
-0.0812639
0.572652
-0.0527562
0.577703
-0.030006
0.581182
-0.0121198
0.583463
0.00172268
0.584852
0.0122297
0.585607
0.0200088
0.585937
0.0255774
0.586014
0.0293697
0.585981
0.0317547
0.58595
0.0330369
0.586017
0.0334822
0.585979
0.0340177
0.585929
0.0336507
0.585903
0.0328197
0.585927
0.0316648
0.586018
0.0302842
0.586192
0.0287562
0.586457
0.0271394
0.586818
0.0254825
0.587279
0.0238206
0.587838
0.0221814
0.588496
0.0205836
0.589249
0.0190359
0.590098
0.0176897
0.591038
0.016328
0.59206
0.0149974
0.593159
0.0136788
0.594344
0.0128635
0.595596
0.0117066
0.596915
0.0107963
0.00976324
0.59829
0.314941
-0.845475
-0.238719
0.379741
-0.712401
0.43398
-0.59005
0.478724
-0.481255
0.515137
-0.38627
0.544375
-0.304729
0.567532
-0.235731
0.585602
-0.178091
0.599469
-0.13051
0.609907
-0.0917015
0.617579
-0.0604278
0.623053
-0.0354805
0.626808
-0.015875
0.629245
-0.000713711
0.630695
0.0107793
0.631435
0.0192692
0.63169
0.0253217
0.631648
0.0294123
0.631459
0.0319436
0.631248
0.0332482
0.631115
0.0336147
0.630871
0.0342622
0.630611
0.0339104
0.630375
0.0330562
0.630191
0.0318489
0.63008
0.0303944
0.630059
0.0287772
0.630138
0.027061
0.630322
0.0252983
0.630615
0.0235274
0.631019
0.0217784
0.63153
0.0200718
0.632148
0.0184182
0.632873
0.0169645
0.633698
0.0155029
0.634617
0.0140791
0.635621
0.0126748
0.636721
0.0117635
0.637896
0.0105315
0.639147
0.00954515
0.00844841
0.640462
0.338189
-0.928003
-0.255661
0.40837
-0.782582
0.467133
-0.648814
0.515632
-0.529753
0.555122
-0.42576
0.586851
-0.336458
0.611997
-0.260877
0.631631
-0.197726
0.646709
-0.145587
0.658061
-0.103053
0.666403
-0.0687701
0.672348
-0.0414259
0.676412
-0.0199388
0.679025
-0.003327
0.680547
0.00925769
0.681274
0.0185425
0.68145
0.0251456
0.681276
0.0295863
0.680916
0.0323038
0.680503
0.033661
0.680147
0.0339708
0.679671
0.0347385
0.679175
0.0344067
0.678701
0.0335301
0.678282
0.0322679
0.677942
0.0307344
0.677699
0.029021
0.677563
0.027197
0.677542
0.0253191
0.677641
0.023429
0.677859
0.0215597
0.678197
0.0197338
0.678652
0.0179636
0.679225
0.0163915
0.679908
0.0148198
0.680694
0.0132927
0.681576
0.0117934
0.682563
0.010776
0.683634
0.00946036
0.68479
0.00838953
0.00722148
0.686017
0.363298
-1.0174
-0.273899
0.439343
-0.858627
0.503043
-0.712514
0.555642
-0.582353
0.598497
-0.468615
0.632954