/*--------------------------------*- C++ -*----------------------------------*\
| =========                 |                                                 |
| \\      /  F ield         | OpenFOAM: The Open Source CFD Toolbox           |
|  \\    /   O peration     | Version:  2312                                  |
|   \\  /    A nd           | Website:  www.openfoam.com                      |
|    \\/     M anipulation  |                                                 |
\*---------------------------------------------------------------------------*/
FoamFile
{
    version     2.0;
    format      ascii;
    arch        "LSB;label=32;scalar=64";
    class       volSymmTensorField;
    location    "700";
    object      turbulenceProperties:R;
}
// * * * * * * * * * * * * * * * * * * * * * * * * * * * * * * * * * * * * * //

dimensions      [0 2 -2 0 0 0 0];

internalField   nonuniform List<symmTensor> 
11040
(
(0.284235 0.0757064 -1.42142e-22 0.247839 9.33351e-21 0.277928)
(0.350356 0.0742542 8.18558e-21 0.226364 1.15103e-19 0.304595)
(0.0532502 0.00579415 -1.80136e-20 0.0396518 5.49981e-20 0.045085)
(0.0272009 0.00907167 -5.95498e-20 0.0363258 3.32587e-20 0.0312395)
(0.1191 0.046372 -2.1035e-20 0.251564 1.90767e-19 0.184921)
(0.129593 0.05652 -2.90086e-19 0.248982 1.05596e-19 0.188312)
(0.129069 0.0591297 1.66057e-19 0.229364 -1.09109e-18 0.178863)
(0.122734 0.0572931 2.30347e-19 0.204093 -1.60069e-19 0.163237)
(0.115075 0.0538338 9.86203e-20 0.179514 -2.85765e-20 0.147189)
(0.110814 0.0516917 9.15702e-20 0.163284 1.45515e-19 0.137081)
(0.106322 0.0490981 -8.10425e-20 0.149043 3.45658e-19 0.127698)
(0.102265 0.0466022 -1.2088e-19 0.136779 2.59073e-19 0.119577)
(0.099049 0.0444205 2.01092e-20 0.126698 -1.48668e-19 0.112976)
(0.0968757 0.0427386 2.50521e-20 0.118958 1.452e-19 0.108018)
(0.0953826 0.0413516 -1.12119e-20 0.11258 1.10468e-20 0.104117)
(0.0956409 0.040839 -4.23219e-21 0.108775 -1.87559e-19 0.102357)
(0.0976748 0.0411876 5.1851e-20 0.10719 -7.59713e-22 0.102603)
(0.101644 0.0424194 -5.13273e-21 0.107727 3.41509e-19 0.104879)
(0.107386 0.0443985 -2.94811e-20 0.109984 2.99511e-21 0.1089)
(0.114963 0.0470987 4.80697e-21 0.113809 -4.99344e-20 0.11463)
(0.124684 0.0506086 2.27208e-20 0.119327 3.82998e-20 0.122263)
(0.136176 0.0548191 -2.50785e-20 0.126419 1.1618e-19 0.131556)
(0.149272 0.0597328 1.09323e-21 0.135197 -9.58879e-20 0.14251)
(0.164324 0.0653999 1.28293e-20 0.145626 2.47901e-19 0.155266)
(0.181422 0.0718107 -7.54126e-20 0.157597 -2.23712e-19 0.169791)
(0.201245 0.0792756 -4.05335e-20 0.171669 -5.24697e-19 0.18671)
(0.223345 0.0875916 1.09718e-20 0.187411 -2.45258e-19 0.205584)
(0.244679 0.0954908 3.30874e-20 0.202331 7.05485e-20 0.223641)
(0.26331 0.102234 -2.23572e-20 0.21495 -2.01526e-19 0.239169)
(0.277006 0.107006 1.37749e-20 0.22365 -4.71689e-19 0.25025)
(0.283397 0.108949 1.20141e-19 0.226709 3.40262e-19 0.25486)
(0.280549 0.107332 2.10294e-20 0.22264 -2.6312e-20 0.251288)
(0.269025 0.102477 1.05518e-19 0.212097 9.56355e-19 0.240139)
(0.252326 0.0959234 -8.95234e-20 0.198143 5.85695e-19 0.22468)
(0.237458 0.0905525 4.7275e-20 0.186555 9.43653e-21 0.211199)
(0.184395 0.0707001 1.28794e-19 0.146487 9.10221e-19 0.164476)
(0.0939788 0.0360078 8.34132e-21 0.0774173 1.69234e-19 0.0849505)
(0.0545488 0.0223742 -3.58162e-20 0.0497641 5.37384e-19 0.0509967)
(0.0150665 0.00678927 -4.2996e-19 0.0277805 -1.11447e-18 0.0208791)
(0.0633713 -0.0307578 6.17829e-21 0.0981494 -9.16358e-19 0.0789936)
(0.0927626 -0.0239514 1.93328e-19 0.218303 5.23237e-20 0.145659)
(0.0242259 -0.00177437 1.76145e-22 0.0212685 -5.15042e-22 0.0220172)
(0.0601558 0.00159167 2.0714e-20 0.0386198 4.09335e-21 0.0414082)
(0.201962 0.0275392 4.97888e-20 0.11168 -2.56415e-19 0.158874)
(0.401146 0.0308995 7.44791e-20 0.16736 -1.67876e-19 0.285181)
(0.782507 -0.0209654 8.21953e-20 0.298514 -4.87354e-19 0.540081)
(0.241557 -0.0474459 5.56972e-19 0.113542 -1.18096e-18 0.176619)
(0.0720724 -0.018359 -8.12682e-19 0.038979 3.18603e-18 0.0541905)
(0.0224634 -0.00723646 -8.15252e-19 0.0143394 2.10514e-18 0.0186457)
(0.00456908 -0.00198498 -7.37125e-20 0.00424205 -1.50134e-19 0.00452877)
(0.00299826 0.00143649 -1.01308e-19 0.00563335 3.94915e-20 0.00443224)
(0.00739276 0.00367203 4.49072e-19 0.0119325 -1.13024e-18 0.00959195)
(0.0101662 0.00504784 -1.70242e-21 0.0152287 -7.25407e-20 0.0124959)
(0.0123107 0.00607774 -1.61851e-19 0.0169917 6.62634e-19 0.014458)
(0.0139452 0.00680195 -1.09893e-19 0.0182554 3.19019e-20 0.0158288)
(0.0152314 0.00731684 -4.32285e-20 0.0188408 -1.66689e-19 0.0167492)
(0.016534 0.00780616 1.02515e-20 0.0194307 5.70693e-19 0.0176621)
(0.0180946 0.0083913 -1.43453e-20 0.0202782 1.90822e-19 0.0188312)
(0.0198472 0.00903478 -9.00758e-21 0.0212544 -5.34304e-19 0.0201638)
(0.0216395 0.00966296 -2.29532e-20 0.022204 -2.47268e-20 0.0214943)
(0.0235058 0.0102821 -7.14704e-21 0.0231068 7.96984e-20 0.0228562)
(0.0254884 0.0109045 -1.05741e-20 0.0240009 -1.44858e-20 0.0242827)
(0.027642 0.0115643 3.0413e-20 0.0249959 -2.67552e-19 0.0258493)
(0.029442 0.0120792 2.28354e-20 0.0257646 3.77117e-19 0.0271122)
(0.0303851 0.0122475 -4.54153e-20 0.0258476 -3.44097e-19 0.0276258)
(0.0302845 0.0120151 -6.46598e-21 0.0251312 2.79066e-19 0.0272549)
(0.029666 0.0116192 7.29234e-20 0.0241101 9.03289e-19 0.0264977)
(0.0288672 0.0112075 1.36649e-19 0.0230919 5.00532e-19 0.0256708)
(0.0270974 0.0104937 -3.40484e-20 0.0215112 1.39326e-19 0.0241172)
(0.0243541 0.00950771 -9.03741e-20 0.0194436 2.78744e-19 0.0218881)
(0.0210475 0.00842668 4.41648e-20 0.0172926 4.97724e-19 0.0193799)
(0.0181584 0.00762731 -1.10187e-19 0.0159295 -7.6302e-19 0.0174842)
(0.0167687 0.00756051 -5.62546e-20 0.0165637 -1.24469e-18 0.0173631)
(0.0154578 0.00755362 -1.313e-19 0.0184062 -2.61273e-18 0.017932)
(0.0153526 0.00783025 6.77663e-20 0.0225115 -1.30373e-18 0.0202506)
(0.0168386 0.00843995 -9.31309e-20 0.0293149 1.23234e-19 0.0248531)
(0.0199679 0.00945393 -4.46726e-19 0.0389232 -4.02041e-18 0.0319737)
(0.0252601 0.0113749 -6.61298e-20 0.0520725 -3.45332e-19 0.0419552)
(0.032928 0.0143876 -5.25682e-19 0.0695643 -2.46756e-18 0.0536839)
(0.0482012 0.0176284 1.24923e-18 0.112017 5.39736e-18 0.0854118)
(0.0693052 0.0323932 7.91235e-19 0.12565 4.70844e-18 0.0929077)
(0.24047 -0.109541 -4.12789e-19 0.435715 -6.66265e-19 0.408312)
(0.0146009 -0.0014805 -1.87651e-22 0.0129924 -2.68987e-22 0.0139375)
(0.0122092 -0.00195108 -5.00119e-21 0.01265 -1.28629e-20 0.0123188)
(0.0343709 0.00365994 1.55024e-20 0.0216127 7.78244e-20 0.027406)
(0.159573 0.0169189 5.33799e-20 0.0807815 8.29913e-20 0.121174)
(0.913485 0.048571 -7.13699e-21 0.352886 -3.73749e-20 0.636382)
(1.2242 -0.0347738 -3.0599e-19 0.467146 1.19364e-18 0.8435)
(0.602098 -0.0961644 2.39696e-20 0.263759 6.03351e-21 0.431633)
(0.216382 -0.0527458 9.39302e-20 0.114286 -2.43969e-18 0.160037)
(0.0976628 -0.0276829 -1.66182e-19 0.056345 2.51158e-20 0.0763644)
(0.0573646 -0.0170164 2.37895e-19 0.0340749 -6.95523e-19 0.0460864)
(0.0314188 -0.0100043 -4.38025e-19 0.0198496 1.03399e-18 0.0258132)
(0.0172673 -0.00591757 7.62269e-19 0.0117629 -2.07449e-18 0.0145)
(0.00838417 -0.00272389 -3.9525e-20 0.00538304 -6.88557e-20 0.00699046)
(0.00261843 -0.000534801 1.54063e-19 0.00124263 -9.09457e-19 0.00195435)
(0.00300408 0.00101969 2.42772e-20 0.00200651 9.50058e-19 0.00258045)
(0.005387 0.00215131 -7.89231e-20 0.00439611 -3.62594e-19 0.00495633)
(0.00723667 0.00290106 -3.33352e-21 0.0059488 -6.10167e-19 0.00665367)
(0.00876209 0.00343666 4.18752e-20 0.00699243 -4.35934e-19 0.00793877)
(0.00996857 0.00379817 1.9513e-20 0.00766677 -2.47059e-20 0.00886166)
(0.0109132 0.00399728 2.59399e-20 0.00799794 2.75413e-20 0.00949609)
(0.0116521 0.00407338 2.44589e-21 0.00810363 8.35647e-20 0.00990664)
(0.0122086 0.00400522 -4.45257e-20 0.00795233 1.32937e-19 0.0101162)
(0.0122745 0.0036813 -3.71876e-20 0.00737572 -4.40125e-19 0.0098629)
(0.0116747 0.00305984 -3.96999e-20 0.00634909 -1.77057e-19 0.00904493)
(0.0105187 0.00224606 8.34436e-20 0.00510846 -2.7878e-19 0.00783162)
(0.00901063 0.0013863 -1.53546e-20 0.00390652 -2.61387e-19 0.00645654)
(0.00718933 0.000621566 -2.28101e-19 0.00285562 2.65792e-19 0.00499176)
(0.00481527 8.51931e-05 -7.75769e-20 0.00184819 -1.07507e-18 0.00325859)
(0.00150858 -4.38463e-05 1.925e-19 0.000626796 2.65981e-19 0.000939801)
(0.00148834 0.000349553 2.62558e-19 0.00356014 1.11804e-18 0.00234206)
(0.00435291 0.00112311 -1.86324e-19 0.0106185 6.2907e-19 0.00726678)
(0.00832522 0.00189263 4.3255e-19 0.0207725 2.59999e-18 0.0143047)
(0.0139215 0.00345521 1.81726e-19 0.0344963 8.0745e-19 0.0239557)
(0.0213015 0.00592109 -3.98022e-19 0.0520236 9.04906e-19 0.0364435)
(0.0308192 0.00946353 -4.81309e-19 0.0739674 -9.54918e-19 0.0522794)
(0.0431035 0.014419 3.25549e-19 0.101534 2.00958e-18 0.072577)
(0.0591731 0.0215825 2.94535e-19 0.135885 -2.11689e-18 0.0984188)
(0.0790976 0.0310751 5.47664e-19 0.174879 1.93425e-18 0.126635)
(0.113122 0.0417035 -4.33446e-19 0.260679 -9.60225e-19 0.192385)
(0.183049 0.0880992 2.85879e-20 0.319912 -4.97945e-19 0.242927)
(0.194664 0.0105742 4.712e-19 0.512943 1.70753e-18 0.355749)
(0.0107173 -0.0010394 -5.94074e-23 0.00911865 -2.80772e-22 0.00997914)
(0.00844733 -0.00100642 -1.3428e-22 0.00856661 9.71164e-22 0.00860376)
(0.00657223 -0.00109157 -7.73123e-21 0.0074342 -1.7813e-20 0.00701498)
(0.0129701 0.000806933 -1.06505e-20 0.00947569 -2.0993e-20 0.0111429)
(0.215174 0.0204531 3.77875e-20 0.0916428 4.49509e-20 0.154171)
(1.06497 0.0435841 2.41932e-19 0.40734 5.67922e-21 0.741642)
(1.58316 -0.0447703 2.57606e-19 0.60397 -1.39543e-18 1.09084)
(1.0209 -0.136258 9.03692e-19 0.427164 -1.41447e-18 0.730035)
(0.404457 -0.092823 -4.10808e-19 0.206339 1.22113e-18 0.296294)
(0.209616 -0.0564539 2.31639e-19 0.116797 3.9708e-19 0.161035)
(0.122326 -0.0352081 -3.51904e-19 0.071152 1.11675e-18 0.0966984)
(0.0800034 -0.0251528 -5.77528e-19 0.0500675 1.25635e-18 0.0650749)
(0.0555027 -0.0182836 4.63148e-19 0.0362482 -9.48498e-19 0.0460222)
(0.0389254 -0.0134125 -1.18159e-19 0.0266789 9.3418e-19 0.0327037)
(0.0289244 -0.0101053 -1.99741e-19 0.0201069 -1.05183e-18 0.0244807)
(0.0221498 -0.00768675 -1.11479e-19 0.0152929 -4.53993e-19 0.0186786)
(0.0180943 -0.00614366 5.40163e-20 0.0122108 2.24194e-19 0.0151152)
(0.0156024 -0.00507633 1.14636e-19 0.0100868 1.29137e-20 0.0128328)
(0.0142591 -0.00446283 3.09988e-20 0.00889683 5.33299e-20 0.0115605)
(0.0138334 -0.00420848 -1.20856e-20 0.00841444 -7.68167e-20 0.0111282)
(0.0139553 -0.00423467 -2.71187e-20 0.00847221 -1.95469e-19 0.0112111)
(0.0146738 -0.00449006 2.70152e-20 0.00897159 -2.7882e-19 0.0118206)
(0.0160668 -0.00502744 2.32386e-20 0.0100147 -1.26597e-19 0.0130451)
(0.0179119 -0.00585281 9.01482e-21 0.0116176 1.17557e-19 0.0147795)
(0.0196698 -0.00677976 -6.80839e-20 0.0134637 7.07525e-19 0.0165805)
(0.0209261 -0.00763127 2.54943e-19 0.0152528 -8.07677e-19 0.0181027)
(0.0212919 -0.00826946 1.80561e-19 0.0167907 -6.22557e-19 0.0190568)
(0.0204115 -0.00856468 1.99139e-19 0.0180133 1.52375e-18 0.0192335)
(0.0181472 -0.00838285 -6.43431e-20 0.0191625 4.06355e-19 0.0186811)
(0.0151772 -0.0076232 -5.58903e-19 0.0213826 -5.95761e-19 0.018312)
(0.0136779 -0.00619648 1.79365e-19 0.0274191 -1.07738e-18 0.0205858)
(0.016108 -0.00387211 -4.50488e-19 0.0402892 6.56117e-19 0.0282414)
(0.0231038 -0.000127232 3.992e-19 0.0609367 -5.56829e-19 0.0420744)
(0.034755 0.00532665 4.51801e-19 0.0897936 -1.41877e-18 0.0623208)
(0.0512467 0.0128081 4.45675e-19 0.127485 8.28183e-19 0.0893595)
(0.0734176 0.022809 4.7982e-19 0.176011 1.79564e-18 0.124836)
(0.102812 0.0366948 3.91473e-19 0.237279 1.89213e-18 0.170558)
(0.140005 0.0556927 -5.85802e-19 0.306478 -2.36536e-18 0.221311)
(0.193645 0.0753844 2.81218e-20 0.43467 -8.19927e-19 0.320198)
(0.324328 0.157813 -1.98249e-19 0.558146 -1.70457e-18 0.429282)
(0.241631 0.0944135 -4.92197e-19 0.540591 -8.19935e-19 0.397127)
(0.00800406 -0.000751543 5.31268e-22 0.00681498 1.28193e-21 0.00740363)
(0.00684537 -0.000820151 -8.28041e-22 0.00654357 -1.64332e-21 0.0066652)
(0.00686732 -0.000898846 4.50524e-21 0.00740756 9.18309e-21 0.00713477)
(0.00333112 -0.000382102 5.10232e-21 0.0037002 9.00258e-21 0.00350514)
(0.00546351 0.000168035 -5.01388e-21 0.0043685 -7.47603e-21 0.00489548)
(0.195382 0.0152131 3.35639e-20 0.07959 -1.12154e-20 0.137738)
(1.01814 0.0310149 -7.37719e-20 0.38754 -8.76089e-21 0.708109)
(1.79448 -0.0471049 -2.50728e-19 0.684141 3.19549e-19 1.2361)
(1.49712 -0.167441 4.04423e-19 0.608091 -1.79613e-19 1.06219)
(0.710654 -0.150199 1.06024e-20 0.344886 1.70647e-19 0.522574)
(0.363749 -0.0949395 3.60943e-19 0.199501 -2.3447e-18 0.27485)
(0.214284 -0.0609536 -2.56141e-19 0.123745 3.95894e-19 0.168181)
(0.145374 -0.0444681 -2.9002e-19 0.0886532 2.31871e-19 0.117618)
(0.103143 -0.0337384 3.36875e-19 0.06694 -2.31482e-18 0.0851764)
(0.0786717 -0.0271691 2.67123e-19 0.0539663 1.32866e-19 0.0663378)
(0.062151 -0.0221623 1.6843e-19 0.0441696 1.76846e-19 0.0531288)
(0.0521129 -0.0190351 -1.57091e-19 0.0380879 6.27564e-19 0.0450431)
(0.0456527 -0.0168783 -9.74004e-21 0.0338391 1.3762e-19 0.0397275)
(0.0417295 -0.0156272 3.6751e-20 0.0314299 -6.70243e-20 0.0365385)
(0.0397136 -0.0150386 4.78504e-20 0.0303196 4.97258e-20 0.0350054)
(0.0387671 -0.0148773 -1.06079e-20 0.0301139 2.31477e-19 0.0344155)
(0.0387782 -0.0150045 -8.95486e-20 0.0304494 2.29199e-19 0.0345888)
(0.0398047 -0.0154509 1.237e-19 0.0313886 1.75626e-19 0.0355693)
(0.0416256 -0.016243 1.50878e-19 0.0330511 4.02695e-19 0.0373225)
(0.0435132 -0.0171702 -1.80619e-19 0.0350777 -9.87003e-20 0.0392837)
(0.044886 -0.0180481 -1.35e-19 0.0371534 2.04891e-18 0.0410142)
(0.0451423 -0.0187007 8.31829e-20 0.0390646 -3.14709e-20 0.042102)
(0.0436743 -0.0189263 -2.98468e-19 0.0406994 -8.35589e-19 0.0421924)
(0.0400742 -0.0184977 -5.05529e-19 0.0422759 -1.61339e-18 0.0411872)
(0.0346662 -0.0171509 3.68337e-19 0.0448083 -6.64626e-19 0.0397589)
(0.0294573 -0.0145511 1.21476e-19 0.0510393 1.76525e-18 0.040276)
(0.0285857 -0.0102496 2.64573e-19 0.0657922 -1.06878e-18 0.0472225)
(0.0357152 -0.00370616 -2.37063e-19 0.0933226 2.97478e-18 0.064571)
(0.0517104 0.00559772 -9.04042e-19 0.134991 1.46112e-19 0.0933992)
(0.0763744 0.0181887 -3.37652e-19 0.191102 6.22964e-19 0.133712)
(0.110374 0.0347663 -4.58306e-19 0.263746 7.45567e-19 0.187209)
(0.155775 0.0573866 -6.71249e-20 0.355297 -3.57769e-20 0.256203)
(0.215104 0.0891495 2.10683e-20 0.46005 7.39663e-20 0.334896)
(0.286872 0.120126 -3.23184e-20 0.618209 1.64285e-18 0.460101)
(0.475581 0.232103 -4.6647e-20 0.817 -1.12339e-18 0.630949)
(0.372368 0.182696 6.51841e-19 0.671476 -7.62515e-19 0.531451)
(0.0057964 -0.000516207 -5.24456e-22 0.00489355 -8.94094e-22 0.00535044)
(0.00508493 -0.000610294 2.70652e-21 0.00474049 4.43323e-21 0.00490376)
(0.00472173 -0.00060063 -1.33405e-21 0.00486097 -2.91955e-21 0.00478596)
(0.00498227 -0.000633133 -1.3079e-21 0.0056024 -3.50478e-21 0.00529735)
(0.00153192 -9.16725e-05 2.9081e-22 0.00164604 7.02983e-22 0.0015882)
(0.00129156 8.20359e-06 -1.63246e-22 0.00116475 -1.61994e-22 0.00122536)
(0.133533 0.0080114 -2.38816e-20 0.0537964 -2.45733e-20 0.0935454)
(0.819672 0.018663 -8.12214e-20 0.311435 1.01078e-19 0.56869)
(1.82916 -0.0451599 -1.72219e-19 0.696364 -1.66348e-19 1.26261)
(1.93298 -0.179775 -3.66176e-19 0.769533 -9.69168e-19 1.35683)
(1.19223 -0.220124 3.78805e-19 0.543895 5.7638e-19 0.876806)
(0.584399 -0.146078 6.03666e-19 0.312386 -8.33146e-19 0.436279)
(0.351486 -0.0996986 -8.03589e-19 0.203373 6.15366e-19 0.273517)
(0.232726 -0.0699654 3.52724e-19 0.140138 1.07632e-18 0.186437)
(0.168366 -0.0547679 1.66344e-20 0.108589 4.7535e-19 0.139015)
(0.128332 -0.0441476 -2.26284e-19 0.0875999 -8.56055e-20 0.1082)
(0.104469 -0.0377048 1.59725e-19 0.0752766 -8.92571e-19 0.0898008)
(0.0894634 -0.0332581 -3.3794e-20 0.0667467 5.80746e-19 0.0780872)
(0.0800184 -0.0305135 7.05242e-20 0.0616503 -1.10508e-19 0.0707723)
(0.0747776 -0.0290626 4.65584e-20 0.059041 2.02561e-19 0.0669101)
(0.0718069 -0.0283869 -6.31503e-20 0.0580335 -2.9223e-19 0.0648978)
(0.0706527 -0.0282037 3.01278e-20 0.0578789 1.18734e-20 0.0642563)
(0.0711351 -0.0284871 1.36188e-20 0.0585421 1.01444e-19 0.0648227)
(0.072948 -0.029282 -2.96401e-19 0.0602319 -3.40868e-19 0.0665839)
(0.0751215 -0.0303237 3.24917e-19 0.0625301 -8.02806e-19 0.0688192)
(0.0768385 -0.0313817 4.26757e-20 0.06507 -4.30537e-19 0.0709499)
(0.0771673 -0.0321915 -5.37941e-19 0.0675101 -4.31832e-19 0.0723344)
(0.0750679 -0.0324193 5.57331e-20 0.0695417 -9.74322e-19 0.0723037)
(0.069643 -0.031671 8.52341e-19 0.0711558 -1.18745e-19 0.0704023)
(0.0607584 -0.0294882 3.37389e-19 0.073156 1.42813e-18 0.0669706)
(0.0502833 -0.0253153 -4.14604e-19 0.0783764 -7.79412e-19 0.0643486)
(0.0439208 -0.0185065 -4.96991e-19 0.0934261 6.38606e-19 0.0686939)
(0.0492929 -0.00835534 -2.11863e-19 0.126737 -3.16761e-18 0.0880583)
(0.0694279 0.00593384 7.82849e-19 0.181924 -1.97413e-18 0.125716)
(0.103621 0.0251564 6.28544e-19 0.258687 -1.80104e-18 0.181103)
(0.151814 0.0502282 -1.3513e-19 0.35826 -6.50783e-20 0.255228)
(0.216357 0.083902 1.40996e-19 0.48271 1.45398e-18 0.350294)
(0.301811 0.130888 4.13367e-20 0.625516 -8.26014e-19 0.460523)
(0.39385 0.176338 -2.4328e-19 0.805184 7.52093e-19 0.607924)
(0.623555 0.305648 -5.5875e-19 1.06635 1.79643e-18 0.828535)
(0.5536 0.279682 -5.54615e-19 0.879895 -8.94078e-19 0.725972)
(0.00421181 -0.00035203 -1.26601e-22 0.00351316 -2.3383e-22 0.00386581)
(0.00386703 -0.000442143 2.95605e-22 0.00351843 3.48391e-22 0.00369284)
(0.00348001 -0.000441769 -1.38508e-21 0.00345722 -1.84976e-21 0.0034674)
(0.00355594 -0.000461467 -2.20233e-21 0.00385445 -2.7692e-21 0.00370287)
(0.00354813 -0.000402297 -7.50619e-22 0.00407714 -8.79479e-22 0.00381478)
(0.000685904 -1.83891e-05 1.91168e-22 0.000715451 2.65407e-22 0.00070073)
(3.66851e-05 -3.05248e-08 -5.76896e-25 3.64412e-05 -8.74895e-25 3.65562e-05)
(0.062717 0.0024948 1.93009e-20 0.0261764 2.12994e-20 0.0442863)
(0.553113 0.0084813 2.41189e-19 0.210071 2.32889e-19 0.382597)
(1.60203 -0.0393474 -1.72196e-19 0.609212 4.001e-19 1.10875)
(2.19941 -0.16502 -2.86783e-19 0.862531 6.49454e-19 1.52818)
(1.77495 -0.272947 2.75185e-19 0.765596 -1.07767e-18 1.28594)
(0.981457 -0.228985 4.36487e-19 0.498637 1.33079e-18 0.738186)
(0.541225 -0.15032 -7.81734e-19 0.310376 -3.00015e-19 0.414237)
(0.354857 -0.107051 3.33781e-19 0.215007 -1.3401e-18 0.282699)
(0.256186 -0.0820438 -2.22399e-19 0.162876 7.67182e-19 0.210164)
(0.196005 -0.0672816 1.39794e-19 0.133464 7.52328e-19 0.165163)
(0.159053 -0.0574458 1.57097e-19 0.114571 3.88116e-19 0.137055)
(0.136143 -0.0512436 -8.21269e-20 0.103167 3.43216e-19 0.119563)
(0.123388 -0.0477926 8.98728e-21 0.0969886 -9.93519e-19 0.110171)
(0.116038 -0.0459656 2.18613e-20 0.0940575 4.24262e-19 0.104981)
(0.112736 -0.0452014 -1.31228e-19 0.0929358 -8.36348e-21 0.102815)
(0.112447 -0.0452731 1.24839e-19 0.0932532 -4.78089e-19 0.102828)
(0.11447 -0.0461707 2.03479e-19 0.0951699 -7.08003e-20 0.104817)
(0.117359 -0.047493 -1.80445e-19 0.0980416 1.03442e-18 0.107702)
(0.119895 -0.0489087 -3.23343e-19 0.101347 -9.09195e-19 0.110626)
(0.1207 -0.0500238 4.1486e-19 0.104515 -5.42898e-19 0.112612)
(0.11815 -0.0503257 2.08134e-19 0.106908 1.64173e-18 0.112533)
(0.110634 -0.0491981 1.44765e-19 0.108093 1.79947e-18 0.10937)
(0.0973118 -0.0459624 -2.05372e-19 0.108449 -3.27268e-19 0.102896)
(0.0794388 -0.0398154 -2.04043e-20 0.110451 -1.18771e-18 0.0949655)
(0.0635605 -0.0298651 -4.07699e-19 0.121775 -3.57407e-19 0.0926852)
(0.06255 -0.0151535 -1.9282e-19 0.156236 1.49196e-18 0.109436)
(0.0847904 0.00541952 9.55766e-20 0.222785 2.29375e-18 0.153823)
(0.129123 0.0329322 1.35245e-18 0.320332 7.63933e-19 0.224661)
(0.193518 0.0684574 2.22364e-19 0.447482 -8.53045e-19 0.320731)
(0.279777 0.115182 -1.57909e-18 0.604487 -7.51939e-19 0.442829)
(0.392975 0.178102 1.97968e-20 0.783015 -2.09748e-19 0.584858)
(0.509458 0.240228 -2.03488e-20 0.979857 -1.89285e-18 0.752627)
(0.760033 0.375503 -1.37038e-19 1.27679 6.0719e-19 1.00352)
(0.751794 0.379495 4.40799e-19 1.11552 1.61674e-18 0.938335)
(0.00308487 -0.000246374 -2.61702e-23 0.00255359 -5.2797e-24 0.00282265)
(0.00291948 -0.00031553 -5.37213e-22 0.00259735 -7.33235e-22 0.00275784)
(0.00276829 -0.000345608 5.21317e-22 0.00266522 7.07079e-22 0.00271587)
(0.00255955 -0.000329574 2.38763e-21 0.00266457 3.2044e-21 0.00261012)
(0.0026691 -0.000338511 4.74878e-22 0.00300056 6.62235e-22 0.00283171)
(0.00271795 -0.00029202 4.03204e-22 0.00319252 2.16208e-22 0.00295579)
(0.000118527 -5.40409e-07 -1.09072e-23 0.000119596 -1.2057e-23 0.000119067)
(2.09302e-06 -7.65572e-10 -1.64725e-27 2.09278e-06 -1.12125e-27 2.09287e-06)
(0.0189942 0.000213529 -1.00569e-20 0.00939599 -1.45595e-20 0.0141203)
(0.299912 0.00187272 1.74518e-19 0.114 1.97368e-19 0.20693)
(1.16186 -0.0282854 -2.80045e-19 0.441803 -6.98091e-19 0.804136)
(2.16067 -0.13867 -9.90882e-20 0.83969 8.68504e-19 1.49894)
(2.27417 -0.280853 1.37425e-19 0.93961 -1.02898e-18 1.6129)
(1.57782 -0.319643 -3.52703e-19 0.745359 -3.91443e-19 1.17703)
(0.871668 -0.231801 9.39066e-19 0.481658 -2.88854e-19 0.667124)
(0.531307 -0.159538 3.80805e-19 0.322989 8.31511e-19 0.417522)
(0.372524 -0.118849 -3.52784e-19 0.236705 5.1566e-19 0.303358)
(0.285201 -0.0967513 -3.7962e-19 0.191719 4.36269e-19 0.239444)
(0.230203 -0.0830046 -6.11458e-19 0.165467 -3.59995e-20 0.198288)
(0.197512 -0.0746345 4.81766e-19 0.150261 -6.06908e-19 0.174127)
(0.17853 -0.0698475 1.89711e-19 0.142267 8.40382e-19 0.160289)
(0.169939 -0.067718 -3.50052e-19 0.138886 -2.04659e-19 0.154344)
(0.167508 -0.0672167 1.24005e-19 0.138269 3.52736e-19 0.152812)
(0.169492 -0.0681712 9.24348e-20 0.140359 2.34158e-19 0.154884)
(0.173475 -0.0698992 1.79527e-20 0.144021 -3.76125e-19 0.158729)
(0.177535 -0.0718857 -2.33947e-20 0.148437 5.29673e-19 0.162983)
(0.179636 -0.0735396 3.3902e-19 0.152653 1.37777e-18 0.166158)
(0.177358 -0.0741017 3.07368e-19 0.155521 -5.46147e-19 0.166466)
(0.168025 -0.0726268 -4.57841e-19 0.155868 3.83867e-20 0.161979)
(0.149798 -0.0681916 -9.90331e-19 0.153353 -1.14593e-18 0.151615)
(0.122564 -0.0597001 2.54474e-19 0.149323 7.33853e-20 0.135987)
(0.0918299 -0.0459628 5.68359e-19 0.150572 -1.05408e-18 0.121237)
(0.075166 -0.02573 6.31534e-19 0.175626 3.29854e-19 0.125453)
(0.0931298 0.00237958 -4.27265e-19 0.245412 -1.7671e-19 0.169314)
(0.14642 0.0396545 -7.70817e-19 0.360089 1.52245e-18 0.253202)
(0.228196 0.0871757 -6.113e-19 0.51222 -1.43519e-18 0.37048)
(0.337636 0.147974 9.70912e-19 0.697631 -2.1768e-19 0.518163)
(0.477694 0.225661 2.84988e-20 0.904545 3.64972e-19 0.688509)
(0.621966 0.304359 2.02948e-19 1.11526 -3.54377e-19 0.874769)
(0.871375 0.435052 -1.58086e-19 1.40969 -8.43754e-19 1.13018)
(0.930678 0.466952 -4.57344e-19 1.31758 5.45313e-19 1.12138)
(0.00228537 -0.00017501 -8.44087e-23 0.00188041 -2.8587e-23 0.00208527)
(0.00219138 -0.000225837 -4.51814e-22 0.00191803 -7.05027e-22 0.00205436)
(0.00212671 -0.000255599 1.88938e-21 0.00199112 2.15598e-21 0.00205873)
(0.00203653 -0.000262572 -2.5412e-22 0.00204691 -3.24802e-22 0.00204178)
(0.00189041 -0.000238944 6.67232e-22 0.00203653 6.21341e-22 0.00196252)
(0.00206093 -0.000260563 -6.72191e-22 0.00239207 -6.12752e-22 0.00222373)
(0.00193692 -0.000182234 1.35284e-21 0.00229076 1.81664e-21 0.00211326)
(0.000259895 -2.75469e-06 2.82426e-23 0.00026641 2.37503e-23 0.000263184)
(0.000269956 -7.12137e-06 1.96148e-24 0.000281014 3.47993e-23 0.000275464)
(0.000715248 -5.41639e-06 3.63774e-22 0.0006472 3.23323e-22 0.000680472)
(0.116184 -0.000831788 -5.41715e-21 0.0444576 5.20002e-21 0.0801067)
(0.671955 -0.0178227 -3.25991e-19 0.255863 -2.19293e-19 0.46443)
(1.72757 -0.100208 2.05832e-19 0.667926 -4.03031e-19 1.19932)
(2.46312 -0.246674 -5.05775e-19 0.990345 9.33023e-19 1.72394)
(2.21862 -0.367513 -2.43764e-19 0.9776 -9.35701e-19 1.61262)
(1.44205 -0.34513 5.52635e-19 0.739646 7.54336e-19 1.10178)
(0.831416 -0.24175 3.40362e-19 0.491698 -1.54596e-18 0.648519)
(0.543705 -0.173674 1.59224e-19 0.348378 5.74686e-19 0.437478)
(0.403321 -0.135779 -7.32495e-19 0.269701 -1.11913e-18 0.335827)
(0.323867 -0.115834 2.98534e-19 0.230448 1.18641e-18 0.278369)
(0.276326 -0.104418 7.18876e-20 0.210158 -8.72928e-19 0.243753)
(0.252866 -0.0988614 -3.2721e-19 0.20116 4.28729e-19 0.227214)
(0.243544 -0.0967374 2.46207e-19 0.198143 5.28461e-21 0.220748)
(0.243524 -0.097307 -4.48124e-20 0.19981 2.73176e-20 0.221544)
(0.248266 -0.0993706 -8.98332e-20 0.204175 7.3595e-19 0.226137)
(0.254172 -0.101954 1.06935e-19 0.209661 -1.75098e-19 0.231863)
(0.258265 -0.104203 -7.69829e-19 0.214828 6.27292e-21 0.236524)
(0.257302 -0.105137 -3.72652e-19 0.218044 1.91032e-19 0.23768)
(0.247496 -0.103512 -1.93421e-19 0.217373 -1.21958e-18 0.232475)
(0.22531 -0.0979489 9.51789e-19 0.211108 1.0214e-19 0.218289)
(0.188485 -0.0869765 1.58452e-19 0.198662 8.16341e-19 0.193688)
(0.138916 -0.0690362 2.91413e-19 0.183294 9.03103e-19 0.16122)
(0.0924224 -0.0425995 -6.03234e-19 0.181636 2.68046e-19 0.137146)
(0.0889266 -0.00612526 4.97243e-19 0.233549 -1.19621e-18 0.161325)
(0.145629 0.0416968 2.81629e-19 0.354826 -1.42232e-19 0.250233)
(0.2447 0.101685 1.01952e-18 0.525409 3.17464e-19 0.385349)
(0.377323 0.175866 -1.49886e-18 0.73118 4.58203e-19 0.554594)
(0.541391 0.265297 -1.33132e-19 0.955351 1.1417e-19 0.746535)
(0.711371 0.356295 2.89935e-19 1.17268 4.61492e-19 0.945639)
(0.942973 0.474308 4.74181e-19 1.43522 1.67452e-20 1.18437)
(1.05114 0.522878 8.53025e-20 1.42061 -1.20051e-18 1.22587)
(0.00170124 -0.00012582 -3.31969e-22 0.00139341 -3.86941e-22 0.00154902)
(0.0016456 -0.000162749 1.3445e-21 0.00142323 1.40842e-21 0.00153448)
(0.00161275 -0.000186936 -3.14847e-22 0.00147888 -2.79337e-22 0.00154584)
(0.00158161 -0.00019995 -2.47574e-21 0.00154395 -2.61861e-21 0.00156288)
(0.00151908 -0.000196444 -2.32603e-22 0.00158025 -3.12378e-22 0.00154979)
(0.00142795 -0.000176589 2.43118e-21 0.00157932 2.6077e-21 0.00150314)
(0.0015521 -0.000189268 -7.02833e-22 0.00184201 -9.27609e-22 0.0016951)
(0.00137857 -0.000114241 -4.67634e-21 0.00163783 -4.66395e-21 0.00150721)
(0.000448239 -9.19569e-06 4.10397e-22 0.000473912 3.97754e-22 0.000461135)
(6.89884e-05 -2.90091e-07 8.52752e-25 6.97355e-05 -8.14717e-25 6.93659e-05)
(0.00148563 -0.000278989 -1.16469e-21 0.00113848 -1.92668e-21 0.00130414)
(0.0262209 -0.000875432 -9.23167e-21 0.0107866 -5.24502e-21 0.0184118)
(0.293546 -0.00972638 -1.93158e-19 0.112164 -1.27685e-19 0.202653)
(1.0836 -0.0600112 1.75761e-19 0.418246 -1.37379e-19 0.751851)
(2.14922 -0.186659 -6.43114e-19 0.851658 6.93299e-19 1.4998)
(2.60466 -0.344075 5.95937e-19 1.09089 -4.05249e-19 1.84726)
(2.1574 -0.430181 -5.04284e-19 1.01288 7.55024e-19 1.60419)
(1.38767 -0.370056 -1.0816e-19 0.761778 -1.68516e-19 1.08185)
(0.840661 -0.261845 -2.37981e-19 0.526939 -3.57266e-19 0.669522)
(0.577993 -0.195201 2.88716e-19 0.390726 -1.03982e-18 0.475733)
(0.451505 -0.160616 4.52798e-19 0.320148 3.24779e-19 0.385193)
(0.387395 -0.144785 -2.4432e-19 0.290353 -9.91566e-19 0.340289)
(0.356675 -0.137852 -2.2375e-19 0.279193 4.46475e-19 0.318765)
(0.346625 -0.136396 7.03068e-19 0.278166 -5.83719e-19 0.312716)
(0.348522 -0.13815 -4.16494e-19 0.282681 4.94749e-20 0.315585)
(0.356131 -0.141495 -5.60754e-19 0.289855 -3.68974e-19 0.322837)
(0.364015 -0.14487 1.00589e-18 0.296961 -1.41525e-18 0.33035)
(0.366465 -0.146524 -2.77844e-20 0.300902 1.06793e-18 0.333611)
(0.358058 -0.144766 1.15017e-21 0.298721 -6.45023e-20 0.328389)
(0.334081 -0.138005 -6.0466e-19 0.2878 1.05256e-18 0.310999)
(0.290357 -0.124534 6.66532e-20 0.265744 -6.34865e-19 0.278169)
(0.223976 -0.102347 -1.54486e-20 0.231057 3.24766e-19 0.227688)
(0.139383 -0.0696199 -6.82361e-19 0.188799 -5.75204e-19 0.164317)
(0.074825 -0.0248058 3.68307e-19 0.176586 1.71296e-18 0.125961)
(0.113299 0.0331482 -5.2207e-19 0.275076 2.80366e-19 0.194408)
(0.228607 0.104398 -4.89462e-19 0.454208 2.2396e-21 0.341835)
(0.383808 0.189099 6.97325e-19 0.670229 -1.84214e-18 0.527351)
(0.567929 0.285354 -7.62002e-20 0.899043 7.65309e-19 0.732393)
(0.755512 0.380759 -1.60503e-19 1.11246 -9.16332e-19 0.935461)
(0.959304 0.480571 -1.39856e-18 1.33057 -6.65256e-19 1.14464)
(1.08631 0.532261 -3.11765e-19 1.37421 -1.95186e-19 1.21651)
(0.00127117 -9.1496e-05 -2.94468e-22 0.00103774 -2.4002e-22 0.00115559)
(0.00123675 -0.000118265 -1.22939e-21 0.00106039 -1.11031e-21 0.00114874)
(0.0012194 -0.000136847 -6.78663e-23 0.0011013 -1.86714e-22 0.00116038)
(0.00120608 -0.000148865 -2.00277e-22 0.00115139 -1.69375e-22 0.00117879)
(0.00118913 -0.000153603 1.75718e-21 0.00120206 1.73425e-21 0.00119564)
(0.00114485 -0.000146149 9.4003e-22 0.00122398 7.66121e-22 0.00118449)
(0.00109864 -0.000133271 -1.30572e-21 0.00124096 -1.25056e-21 0.00116962)
(0.00114012 -0.00012959 -9.78248e-22 0.00136812 -3.72784e-22 0.00125308)
(0.00111282 -9.44381e-05 -6.18131e-22 0.0013588 -6.24349e-22 0.00123457)
(0.000596279 -1.92575e-05 -9.91e-22 0.000659603 -9.79299e-22 0.000627905)
(4.32967e-05 -9.59921e-08 -1.45644e-24 4.36232e-05 -1.00295e-24 4.34614e-05)
(0.000244789 -8.35017e-06 -2.73392e-23 0.000260598 -1.25054e-23 0.00025275)
(0.000308735 -4.43976e-06 1.80556e-22 0.000287533 1.76577e-22 0.000297953)
(0.0800831 -0.00400462 -2.85042e-19 0.0310006 -2.35461e-19 0.055372)
(0.49811 -0.0287065 7.43016e-19 0.192664 6.41838e-19 0.34529)
(1.4239 -0.114142 -3.44109e-19 0.560419 -4.16094e-19 0.992864)
(2.41236 -0.268814 1.49824e-18 0.982976 9.24166e-19 1.6952)
(2.67867 -0.424703 6.22394e-19 1.16903 7.71961e-19 1.9263)
(2.15267 -0.483586 -1.84712e-18 1.06655 -2.68152e-19 1.63057)
(1.41335 -0.406171 6.0424e-19 0.819177 -1.18897e-18 1.12257)
(0.896762 -0.296509 2.83223e-19 0.59405 1.42816e-18 0.730721)
(0.653009 -0.23244 -5.06534e-20 0.467469 -7.98972e-19 0.549514)
(0.552394 -0.203722 5.7165e-19 0.40875 6.21113e-19 0.478973)
(0.508698 -0.1927 -3.42108e-19 0.387656 -6.79247e-19 0.450253)
(0.4926 -0.19044 3.92969e-19 0.385473 4.89686e-20 0.440847)
(0.493144 -0.19276 -5.59092e-19 0.391997 8.50461e-19 0.443435)
(0.501532 -0.196764 1.12193e-19 0.40094 7.25249e-19 0.451466)
(0.509059 -0.199747 -1.8691e-19 0.407184 -1.88102e-18 0.458021)
(0.507625 -0.199254 -2.67764e-19 0.406267 4.57804e-19 0.456763)