/*--------------------------------*- C++ -*----------------------------------*\
| =========                 |                                                 |
| \\      /  F ield         | OpenFOAM: The Open Source CFD Toolbox           |
|  \\    /   O peration     | Version:  2312                                  |
|   \\  /    A nd           | Website:  www.openfoam.com                      |
|    \\/     M anipulation  |                                                 |
\*---------------------------------------------------------------------------*/
FoamFile
{
    version     2.0;
    format      ascii;
    arch        "LSB;label=32;scalar=64";
    class       volScalarField;
    location    "700";
    object      turbulenceProperties:I;
}
// * * * * * * * * * * * * * * * * * * * * * * * * * * * * * * * * * * * * * //

dimensions      [0 0 0 0 0 0 0];

internalField   nonuniform List<scalar> 
11040
(
0.0592907
0.0929933
1
0.099011
0.273774
0.288502
0.290587
0.291764
0.288681
0.287433
0.285011
0.282913
0.280413
0.278502
0.276578
0.275747
0.27627
0.277494
0.27883
0.280117
0.281367
0.282639
0.283324
0.282929
0.281708
0.280758
0.280555
0.280394
0.28056
0.281513
0.283994
0.288921
0.296224
0.310237
0.340113
0.362337
0.355038
0.494805
1
0.416666
0.7116
0.0186114
0.0241072
0.0679517
0.377802
0.585121
0.304831
0.163248
0.0955746
0.0476997
0.0477702
0.0717689
0.0830851
0.0899078
0.0945888
0.0973905
0.0996295
0.101975
0.104014
0.105309
0.105859
0.105785
0.10538
0.103849
0.100595
0.0959021
0.0910663
0.0868253
0.0821462
0.077111
0.0722906
0.069286
0.0707168
0.0753104
0.0866123
0.108319
0.147456
0.227233
0.444443
1
0.494136
0.749363
0.0161566
0.0126568
0.0187473
0.0547756
0.326594
1
0.587552
0.315797
0.210444
0.160191
0.118524
0.0887743
0.0610209
0.0321364
0.0364745
0.0503109
0.0575931
0.0618359
0.0639777
0.0645293
0.0639739
0.0625521
0.0596782
0.0551853
0.0496691
0.0437856
0.0376072
0.0299832
0.0165239
0.0256275
0.0450557
0.0648565
0.0882052
0.117736
0.158736
0.222848
0.341885
0.628674
1
0.897871
0.640507
0.0142642
0.0115876
0.00923907
0.0118148
0.0574192
0.253286
1
1
0.508947
0.341257
0.249342
0.198656
0.163379
0.135638
0.115543
0.0993135
0.0877768
0.0791738
0.0733933
0.0700384
0.0682248
0.0678682
0.0690183
0.0710906
0.0729633
0.074068
0.0741347
0.07308
0.0712283
0.070451
0.0755924
0.0910803
0.116768
0.15341
0.205748
0.286917
0.431773
0.744667
1
1
0.663857
0.0128462
0.0109164
0.0101647
0.00647676
0.00770974
0.0500741
0.190558
0.80643
1
0.885683
0.517447
0.364638
0.287243
0.234786
0.201222
0.175397
0.157653
0.144318
0.134782
0.128128
0.12315
0.119529
0.117322
0.116284
0.115533
0.114573
0.113086
0.110894
0.108138
0.105897
0.107571
0.11942
0.146028
0.188441
0.250279
0.344237
0.503148
0.806741
1
1
0.78427
0.011285
0.0097571
0.00888185
0.0085806
0.00434023
0.00378727
0.0381653
0.136799
0.436492
1
1
0.817244
0.540255
0.400159
0.324241
0.272839
0.239589
0.215879
0.19899
0.187194
0.178205
0.171264
0.166153
0.162621
0.159766
0.157068
0.154096
0.150489
0.146116
0.141566
0.139521
0.147123
0.173176
0.220266
0.290072
0.392797
0.554792
0.824329
1
1
0.932561
0.00976293
0.00876229
0.00787263
0.00762718
0.00722373
0.00288859
0.000644829
0.0245256
0.0934181
0.268348
0.849176
1
1
0.823986
0.572204
0.443403
0.366849
0.316855
0.28319
0.260905
0.244826
0.23299
0.22421
0.217836
0.212616
0.207861
0.202986
0.197415
0.190692
0.182904
0.175772
0.176163
0.197514
0.246761
0.322432
0.429421
0.584325
0.807139
1
1
1
0.00840617
0.00774593
0.00720374
0.0066578
0.00657967
0.00635276
0.00119926
0.000153385
0.0131422
0.0594688
0.167102
0.431231
1
1
1
0.868963
0.622345
0.49616
0.418923
0.370017
0.337439
0.315939
0.300688
0.289785
0.281032
0.273285
0.265664
0.257302
0.247293
0.235176
0.221321
0.210358
0.218676
0.264295
0.343149
0.450256
0.590685
0.765165
0.934501
1
1
0.0072263
0.00676748
0.00641819
0.00607018
0.00567318
0.00578377
0.0053854
0.00180247
0.00176546
0.00278666
0.0332705
0.100783
0.24732
0.605542
1
1
1
0.950894
0.697093
0.566545
0.488935
0.442635
0.412651
0.392384
0.376987
0.363799
0.351327
0.338383
0.323677
0.305898
0.283861
0.258092
0.240295
0.26683
0.345174
0.450534
0.573888
0.706183
0.820681
0.936274
0.933888
0.00619569
0.00587553
0.00563819
0.00542936
0.00518322
0.0049061
0.00502538
0.00456588
0.00241643
0.000895994
0.00381245
0.0148916
0.0565694
0.14328
0.322153
0.749624
1
1
1
1
0.813607
0.679201
0.603442
0.556779
0.524809
0.500374
0.479254
0.458429
0.435794
0.409571
0.377454
0.33602
0.283686
0.249242
0.313417
0.422594
0.533838
0.635157
0.712237
0.777905
0.795672
0.0053047
0.00507908
0.00491741
0.00478081
0.00464667
0.0044657
0.00429161
0.00430798
0.00414874
0.0028557
0.000721141
0.00168112
0.00182588
0.0266136
0.0782487
0.178581
0.375629
0.819755
1
1
1
1
1
0.889845
0.797095
0.735621
0.69017
0.651896
0.615491
0.576747
0.531341
0.473923
0.396831
0.284829
0.188165
0.34629
0.467179
0.554039
0.608354
0.641802
0.652992
0.0045365
0.0043769
0.00426234
0.00417573
0.00409325
0.00400417
0.00388191
0.00375572
0.00372166
0.00369107
0.00307769
0.000451194
0.000418743
0.0032847
0.00919212
0.0374489
0.0947097
0.200258
0.39722
0.805347
1
1
1
1
1
1
1
1
0.95231
0.881654
0.810641
0.731179
0.635914
0.517623
0.373088
0.296289
0.397911
0.478779
0.518683
0.529637
0.524664
0.00387607
0.00376306
0.00368048
0.00362396
0.00357705
0.00352775
0.0034703
0.0033925
0.00329995
0.0032442
0.00326711
0.00296128
0.00134726
0.000420557
0.00111156
0.00469181
0.0131226
0.0441189
0.102339
0.204822
0.386083
0.713296
1
1
1
1
1
1
1
1
1
1
1
1
0.830398
0.687005
0.599211
0.561203
0.538252
0.507855
0.466572
0.00330896
0.00322925
0.00316885
0.00313131
0.00310616
0.00308269
0.00305528
0.00302142
0.00297434
0.00290969
0.00285382
0.0028788
0.00277232
0.00201753
0.000185419
0.000150966
0.00170536
0.00573167
0.0151972
0.0455201
0.100377
0.188605
0.322245
0.525015
0.822384
1
1
1
1
1
1
1
1
1
1
1
1
1
0.856111
0.740194
0.634079
0.00282194
0.00276625
0.00272175
0.00269673
0.00268459
0.0026768
0.00266839
0.00265648
0.00263943
0.00261383
0.00257202
0.00253061
0.00253395
0.00250354
0.00229479
0.00115949
0.000392229
4.62499e-05
0.00219943
0.00576575
0.014402
0.0400157
0.0808078
0.140708
0.224467
0.339021
0.492424
0.687551
0.916163
1
1
1
1
1
1
1
1
1
1
1
1
0.00240377
0.00236517
0.00233225
0.00231557
0.00231123
0.00231236
0.00231484
0.00231655
0.00231557
0.00231034
0.00229914
0.00227657
0.00225139
0.00223198
0.00225303
0.00214831
0.00185277
0.00045202
0.00022623
2.16138e-05
0.00231362
0.0046683
0.00838799
0.0242801
0.0491775
0.0845922
0.132051
0.193444
0.271092
0.367349
0.483372
0.618366
0.771304
0.945425
1
1
1
1
1
1
1
0.00204763
0.00202095
0.00199667
0.00198577
0.00198603
0.00199181
0.002
0.00200885
0.00201694
0.00202277
0.0020253
0.0020234
0.00201559
0.00200037
0.00198973
0.00198953
0.00199858
0.00185152
0.00141384
0.000218026
0.000166311
1.8437e-05
0.00128132
0.0033239
0.00053509
0.00837524
0.0201983
0.0377288
0.061668
0.0924458
0.130771
0.177418
0.233214
0.299182
0.376325
0.465434
0.567918
0.687667
0.831002
1
1
0.00175514
0.00173672
0.00171902
0.00171246
0.00171565
0.00172401
0.00173506
0.00174748
0.00176003
0.00177159
0.00178119
0.00178814
0.00179195
0.00179192
0.00178642
0.00177962
0.00177646
0.00179284
0.00177918
0.0016334
0.00118393
0.000187421
0.000155353
3.75556e-05
6.49213e-05
0.00131515
0.00295774
0.00373143
0.00216852
0.00798242
0.0176603
0.0310853
0.0484282
0.0701616
0.0966009
0.127988
0.164578
0.207067
0.255832
0.31198
0.374692
0.001521
0.00150829
0.00149534
0.00149182
0.00149677
0.00150644
0.00151887
0.00153309
0.00154807
0.00156278
0.00157637
0.00158816
0.00159767
0.00160474
0.00160884
0.00160992
0.00160668
0.00160624
0.00161155
0.00162351
0.00160108
0.00145543
0.00117904
0.000382118
0.000186269
9.01571e-05
2.7164e-05
0
0.000251195
0.00117692
0.00262249
0.00319621
0.00312472
0.00318243
0.00781348
0.0155775
0.0259279
0.0390306
0.0549385
0.0738359
0.0957278
0.00133195
0.00132305
0.00131349
0.001312
0.00131787
0.00132799
0.00134077
0.00135544
0.00137121
0.00138719
0.0014027
0.00141719
0.00143015
0.00144123
0.00145021
0.00145703
0.00146139
0.00146316
0.00146315
0.00146662
0.00147602
0.00148303
0.00147028
0.00137574
0.00118688
0.000925123
0.000293098
0.000156316
8.41794e-05
6.13573e-05
1.58487e-05
0
0
0.000439136
0.00117461
0.00235854
0.0029988
0.00270329
0.00205594
0.000378732
0.00667473
0.00117556
0.00116928
0.00116222
0.00116212
0.00116845
0.00117858
0.00119122
0.00120573
0.00122143
0.0012376
0.00125366
0.00126917
0.00128374
0.001297
0.00130872
0.00131871
0.00132696
0.00133337
0.00133778
0.00134047
0.00134264
0.00134881
0.00135744
0.00137087
0.00136372
0.00133778
0.00125759
0.0011171
0.000929635
0.00069847
0.000188907
0.000122753
7.49378e-05
6.04052e-05
4.39974e-05
1.69106e-05
0
0
0
3.25622e-05
0.000920026
0.00104404
0.00103962
0.00103447
0.00103537
0.00104186
0.00105176
0.00106399
0.001078
0.00109322
0.00110903
0.00112492
0.00114054
0.00115556
0.00116966
0.00118263
0.0011943
0.00120456
0.00121336
0.00122072
0.0012267
0.00123089
0.00123426
0.00123771
0.00124393
0.00125279
0.00126143
0.00127239
0.00127118
0.00125252
0.00122083
0.00115386
0.00105265
0.000919341
0.00075653
0.00056817
0.000227312
0.000117392
6.66616e-05
5.88473e-05
4.97109e-05
3.92379e-05
0.000931888
0.000928807
0.000925139
0.000926733
0.000933204
0.000942727
0.000954396
0.000967729
0.000982219
0.000997343
0.00101267
0.00102788
0.00104271
0.00105689
0.00107019
0.00108249
0.00109366
0.00110364
0.00111238
0.00112
0.00112623
0.00113127
0.00113551
0.00113892
0.00114245
0.00114645
0.00115244
0.00116039
0.00116887
0.00117585
0.00118355
0.00118373
0.00117436
0.00115432
0.00112577
0.00107956
0.00101546
0.000933867
0.000842008
0.00072733
0.000591856
0.00083518
0.000833076
0.000830575
0.000832659
0.000838999
0.000848071
0.000859108
0.000871676
0.000885324
0.000899605
0.000914136
0.000928644
0.000942901
0.000956666
0.000969747
0.00098201
0.000993352
0.00100369
0.00101298
0.00102128
0.00102834
0.00103433
0.00103958
0.00104387
0.00104734
0.00105023
0.00105271
0.00105521
0.00105822
0.00106172
0.00106628
0.00107171
0.00107738
0.00108263
0.00108672
0.00109074
0.00109188
0.00108867
0.00108104
0.00106714
0.00105223
0.000751013
0.000749633
0.000748059
0.00075048
0.000756617
0.000765202
0.000775575
0.000787342
0.0008001
0.000813457
0.000827078
0.000840723
0.000854194
0.000867277
0.000879799
0.000891636
0.000902689
0.000912882
0.000922153
0.000930536
0.000937788
0.000944024
0.000949538
0.000954133
0.000957907
0.000961011
0.000963497
0.000965403
0.000966821
0.000967875
0.000968652
0.000969342
0.000970077
0.000971014
0.000972126
0.000973531
0.000975141
0.000976912
0.000978835
0.000979977
0.000982565
0.000677196
0.000676358
0.000675527
0.000678176
0.000684071
0.000692157
0.000701866
0.000712831
0.000724692
0.000737104
0.000749771
0.00076248
0.00077505
0.000787297
0.000799065
0.000810238
0.000820724
0.000830448
0.000839347
0.00084744
0.000854486
0.000860576
0.000865971
0.000870466
0.000874143
0.000877138
0.000879522
0.000881337
0.000882612
0.000883392
0.000883705
0.000883591
0.00088307
0.000882213
0.000881092
0.000879726
0.000878122
0.000876385
0.000874743
0.000872719
0.000872041
0.000612029
0.000611607
0.000611374
0.000614173
0.000619808
0.000627405
0.000636465
0.000646649
0.000657633
0.000669109
0.000680816
0.000692565
0.000704188
0.000715527
0.000726441
0.000736821
0.000746583
0.000755655
0.000763972
0.000771549
0.000778149
0.000783854
0.000788907
0.000793101
0.000796497
0.000799216
0.000801324
0.000802863
0.000803875
0.000804403
0.000804486
0.000804161
0.000803439
0.000802365
0.000800983
0.0007993
0.000797299
0.000795022
0.000792666
0.000789732
0.000788155
0.000554181
0.000554081
0.000554337
0.000557234
0.000562606
0.000569735
0.000578175
0.000587615
0.000597757
0.00060833
0.000619102
0.000629899
0.000640575
0.000650987
0.000661006
0.000670535
0.000679496
0.00068782
0.000695446
0.000702383
0.000708407
0.000713594
0.000718177
0.000721956
0.000724975
0.000727343
0.000729122
0.00073035
0.000731066
0.000731313
0.000731131
0.00073056
0.000729617
0.000728348
0.000726798
0.000724978
0.000722878
0.000720535
0.000718126
0.000715187
0.000713538
0.000502582
0.000502741
0.000503402
0.000506362
0.000511483
0.000518171
0.000526029
0.000534766
0.000544113
0.000553828
0.000563703
0.000573582
0.000583335
0.000592832
0.000601957
0.000610624
0.000618759
0.0006263
0.00063319
0.000639434
0.000644824
0.000649435
0.000653492
0.000656802
0.000659403
0.000661391
0.000662825
0.000663738
0.000664168
0.000664156
0.000663739
0.000662956
0.000661825
0.000660389
0.000658693
0.000656749
0.000654549
0.000652132
0.000649649
0.00064672
0.000644886
0.000456367
0.000456739
0.000457747
0.00046075
0.000465636
0.000471917
0.000479236
0.000487319
0.000495923
0.000504832
0.00051386
0.000522866
0.000531738
0.000540353
0.000548611
0.000556432
0.000563753
0.000570515
0.000576665
0.000582209
0.000586954
0.000590975
0.000594493
0.000597325
0.000599499
0.000601107
0.000602204
0.00060282
0.000602989
0.000602749
0.000602137
0.000601189
0.000599924
0.000598381
0.0005966
0.000594594
0.000592359
0.000589929
0.000587431
0.000584574
0.00058258
0.000414821
0.000415387
0.000416695
0.000419731
0.000424405
0.000430316
0.000437139
0.000444619
0.000452536
0.000460697
0.000468936
0.000477126
0.000485165
0.000492948
0.000500382
0.000507397
0.000513936
0.000519948
0.000525382
0.000530248
0.000534366
0.000537814
0.000540808
0.000543176
0.000544942
0.00054619
0.000546972
0.000547317
0.000547256
0.000546824
0.000546054
0.000544981
0.000543622
0.000542014
0.000540192
0.000538169
0.000535942
0.000533547
0.000531078
0.000528345
0.000526213
0.000377356
0.000378103
0.000379681
0.00038275
0.000387237
0.000392815
0.000399188
0.000406119
0.000413406
0.000420878
0.000428389
0.000435821
0.000443087
0.000450094
0.000456757
0.000463016
0.00046882
0.000474126
0.000478889
0.000483118
0.000486651
0.000489566
0.000492073
0.000494014
0.000495407
0.000496332
0.000496835
0.000496945
0.00049669
0.000496101
0.00049521
0.000494048
0.000492632
0.000490993
0.000489165
0.000487159
0.000484975
0.000482645
0.000480236
0.000477662
0.000475389
0.000343479
0.000344409
0.000346233
0.000349338
0.000353665
0.000358948
0.000364917
0.00037135
0.000378065
0.00038491
0.000391754
0.000398492
0.000405045
0.000411335
0.000417287
0.000422846
0.00042797
0.000432623
0.000436764
0.000440405
0.000443401
0.000445827
0.000447889
0.000449439
0.000450495
0.00045113
0.000451388
0.000451295
0.000450875
0.00045016
0.000449177
0.000447953
0.000446507
0.000444866
0.000443059
0.000441096
0.000438979
0.000436738
0.000434412
0.000432017
0.000429613
0.000312775
0.000313893
0.000315949
0.000319096
0.00032329
0.000328316
0.000333926
0.000339914
0.000346116
0.000352395
0.000358634
0.000364741
0.000370645
0.000376282
0.000381584
0.000386504
0.00039101
0.000395068
0.000398649
0.000401762
0.000404281
0.000406275
0.000407949
0.000409163
0.000409933
0.000410327
0.000410386
0.000410134
0.000409593
0.000408791
0.000407753
0.000406503
0.000405059
0.000403443
0.000401682
0.000399784
0.000397752
0.000395617
0.000393389
0.00039119
0.000388639
0.00028489
0.000286209
0.000288483
0.000291682
0.000295772
0.000300579
0.000305876
0.000311471
0.000317215
0.000322986
0.000328683
0.000334221
0.000339539
0.000344584
0.000349298
0.00035364
0.000357584
0.000361104
0.000364176
0.000366811
0.000368898
0.000370504
0.000371824
0.000372733
0.000373245
0.000373423
0.000373306
0.000372915
0.000372271
0.000371398
0.000370321
0.00036906
0.00036763
0.000366053
0.000364351
0.000362532
0.000360598
0.00035858
0.000356463
0.000354463
0.000351797
0.000259525
0.000261055
0.000263541
0.000266802
0.000270815
0.00027544
0.000280468
0.000285719
0.00029106
0.000296383
0.000301595
0.000306625
0.00031142
0.000315936
0.000320126
0.000323954
0.000327403
0.000330454
0.000333088
0.000335317
0.000337048
0.000338339
0.00033938
0.000340055
0.000340376
0.000340401
0.000340166
0.000339691
0.000338993
0.000338094
0.000337017
0.000335778
0.000334394
0.00033288
0.000331257
0.000329533
0.000327709
0.000325816
0.000323815
0.000322024
0.000319207
0.00023642
0.000238178
0.000240867
0.000244201
0.000248166
0.000252643
0.000257443
0.000262398
0.000267387
0.000272313
0.000277097
0.000281676
0.000286005
0.000290048
0.000293767
0.000297132
0.00030013
0.000302751
0.000304978
0.000306827
0.000308218
0.000309206
0.000309971
0.000310411
0.000310537
0.000310403
0.000310044
0.000309477
0.00030872
0.000307791
0.000306709
0.000305492
0.000304152
0.000302703
0.000301162
0.000299535
0.000297827
0.000296063
0.000294192
0.000292589
0.000289727
0.000215357
0.000217355
0.000220244
0.000223664
0.000227604
0.000231966
0.000236573
0.000241272
0.000245953
0.000250532
0.000254939
0.000259122
0.000263042
0.000266675
0.000269992
0.00027297
0.000275602
0.000277883
0.000279806
0.000281384
0.00028255
0.00028335
0.000283955
0.000284271
0.000284307
0.000284112
0.000283718
0.00028314
0.000282393
0.000281495
0.000280461
0.000279308
0.000278046
0.000276689
0.000275252
0.00027374
0.000272156
0.000270528
0.000268784
0.000267399
0.000264367
0.00019615
0.000198395
0.000201479
0.000204999
0.000208939
0.000213212
0.000217656
0.000222131
0.000226541
0.000230813
0.000234886
0.000238717
0.000242271
0.000245529
0.000248469
0.000251071
0.000253334
0.000255258
0.000256841
0.000258097
0.000258975
0.00025952
0.000259896
0.000260016
0.000259894
0.000259574
0.000259086
0.000258445
0.000257664
0.000256759
0.000255744
0.000254631
0.000253431
0.000252154
0.000250813
0.000249409
0.00024795
0.000246456
0.000244859
0.000243612
0.000240721
0.000178632
0.000181131
0.000184405
0.000188033
0.000191989
0.000196194
0.000200496
0.000204772
0.000208938
0.000212936
0.000216717
0.000220247
0.000223502
0.000226472
0.000229147
0.000231513
0.000233571
0.000235324
0.000236772
0.000237927
0.000238747
0.000239256
0.000239612
0.000239734
0.000239634
0.000239352
0.000238915
0.000238338
0.000237631
0.00023681
0.000235888
0.000234877
0.000233788
0.000232629
0.000231413
0.000230145
0.000228827
0.000227483
0.000226023
0.000225032
0.000221879
0.000162654
0.000165425
0.000168894
0.000172632
0.000176599
0.000180729
0.000184894
0.000188988
0.000192937
0.000196688
0.000200204
0.000203456
0.000206419
0.000209072
0.000211398
0.000213394
0.000215073
0.000216452
0.000217543
0.000218359
0.000218875
0.000219127
0.000219254
0.000219189
0.000218939
0.000218545
0.000218031
0.000217408
0.000216685
0.000215875
0.000214989
0.000214035
0.000213022
0.000211955
0.000210845
0.000209689
0.000208501
0.000207283
0.000205993
0.000205006
0.000202428
0.000148129
0.000151193
0.000154873
0.000158725
0.000162682
0.000166698
0.00017069
0.000174584
0.000178328
0.000181873
0.000185177
0.000188221
0.000191008
0.000193562
0.000195889
0.000197959
0.000199748
0.000201253
0.000202479
0.000203442
0.000204121
0.000204521
0.000204785
0.000204854
0.000204738
0.000204475
0.000204087
0.000203589
0.00020299
0.000202303
0.000201542
0.000200717
0.000199837
0.000198908
0.000197945
0.00019695
0.000195925
0.000194894
0.000193747
0.000193173
0.000189955
0.000135073
0.000138394
0.000142239
0.000146173
0.000150102
0.000153987
0.000157772
0.00016142
0.000164915
0.00016824
0.000171354
0.000174196
0.00017669
0.000178781
0.000180474
0.00018185
0.000182997
0.000183942
0.000184691
0.000185238
0.000185568
0.000185715
0.000185774
0.000185691
0.000185472
0.000185148
0.000184737
0.000184247
0.000183687
0.000183063
0.000182384
0.000181655
0.000180883
0.000180071
0.000179225
0.00017834
0.000177438
0.000176492
0.000175546
0.000174629
0.000172966
0.000123433
0.000126913
0.000130761
0.000134609
0.000138402
0.000142141
0.00014578
0.000149256
0.000152527
0.000155587
0.000158473
0.000161255
0.000164
0.000166735
0.000169383
0.000171733
0.000173657
0.000175193
0.000176401
0.000177342
0.000178009
0.000178398
0.000178649
0.000178723
0.000178638
0.000178428
0.000178116
0.000177714
0.000177236
0.000176696
0.000176106
0.000175477
0.000174818
0.000174138
0.000173448
0.000172757
0.000172057
0.000171391
0.000170589
0.00017058
0.000167148
0.000112821
0.000116541
0.000120345
0.000123924
0.00012732
0.000130669
0.000134032
0.000137395
0.000140685
0.000143761
0.000146452
0.000148601
0.000150139
0.000151103
0.000151705
0.000152356
0.000153239
0.000154188
0.000155078
0.000155836
0.000156446
0.000156934
0.000157336
0.00015761
0.000157761
0.00015781
0.000157774
0.000157659
0.000157472
0.000157218
0.000156903
0.000156531
0.000156109
0.000155636
0.000155117
0.000154542
0.000153948
0.000153254
0.000152682
0.000151505
0.000151661
0.000103055
0.000107485
0.000111682
0.000115249
0.000118244
0.000120897
0.000123405
0.000125931
0.000128627
0.000131624
0.000135009
0.000138796
0.000142884
0.000147094
0.000151078
0.000154189
0.000156274
0.00015779
0.000158931
0.000159788
0.000160354
0.000160651
0.000160794
0.00016077
0.000160608
0.00016034
0.00015999
0.000159574
0.000159111
0.000158615
0.000158104
0.000157592
0.000157088
0.000156604
0.000156154
0.000155757
0.000155386
0.000155134
0.000154681
0.00015552
0.000151363
9.53319e-05
0.00010003
0.000104417
0.000108274
0.000111566
0.000114335
0.000116571
0.000118261
0.00011944
0.000120192
0.000120632
0.000120888
0.000121084
0.000121242
0.000121471
0.000122472
0.000124252
0.000126193
0.000128098
0.000129851
0.00013143
0.000132846
0.000134124
0.000135255
0.000136233
0.000137071
0.000137781
0.000138369
0.000138836
0.000139186
0.000139421
0.00013954
0.000139544
0.00013943
0.000139198
0.000138833
0.00013838
0.000137693
0.0001372
0.00013524
0.000137157
9.91441e-05
0.000104962
0.000107877
0.000108329
0.000107498
0.000106939
0.000108004
0.000111206
0.000116089
0.000121749
0.000127374
0.000132451
0.000136721
0.000140165
0.00014276
0.000143938
0.000143882
0.000143269
0.000142406
0.000141409
0.000140227
0.000139134
0.000137946
0.000136723
0.000135496
0.000134275
0.000133062
0.000131863
0.000130681
0.000129517
0.00012837
0.000127237
0.00012611
0.000124981
0.000123853
0.00012274
0.000121574
0.000120477
0.000119013
0.000119065
0.000112919
0.447923
0.342632
0.283923
0.234761
0.190659
0.152001
0.118105
0.0872345
0.0577042
0.030299
0.0174797
0.00647869
0.00201656
0.000343257
0.00135984
0.00151322
0.00137821
0.0012938
0.00122773
0.00115714
0.00109069
0.00102416
0.000961066
0.000900132
0.000842221
0.000786462
0.000734395
0.000683614
0.000635533
0.000589755
0.000545867
0.000504635
0.000465203
0.000428186
0.000393724
0.000361188
0.000331039
0.000302879
0.000277092
0.000252905
0.000230865
0.000210867
0.000192566
0.000176014
0.000161179
0.000147954
0.000136254
0.000125959
0.00011685
0.000108931
0.00010198
9.58795e-05
9.04795e-05
8.56362e-05
8.11723e-05
7.68553e-05
7.29131e-05
6.87747e-05
6.48645e-05
6.0633e-05
5.66571e-05
5.20488e-05
4.82631e-05
4.48495e-05
4.20882e-05
4.20015e-05
4.28532e-05
4.50601e-05
4.96456e-05
5.05253e-05
5.77869e-05
5.47754e-05
6.71304e-05
6.04584e-05
0.727681
0.518687
0.399206
0.319191
0.257951
0.208203
0.16646
0.129869
0.0958685
0.06277
0.031859
0.0171929
0.0053048
0.00149008
0.000370432
0.00130488
0.00144141
0.00130799
0.00122803
0.00116247
0.00109625
0.00102927
0.000966117
0.000904878
0.000846626
0.000790318
0.000737781
0.00068676
0.000638209
0.000592127
0.000547924
0.000506418
0.000466817
0.0004295
0.000394821
0.000362073
0.000331687
0.000303299
0.00027732
0.000252913
0.000230504
0.000210335
0.000191767
0.000174885
0.000159792
0.00014626
0.000134301
0.000123718
0.000114369
0.00010621
9.90406e-05
9.27814e-05
8.72299e-05
8.23097e-05
7.77016e-05
7.33264e-05
6.94409e-05
6.528e-05
6.14942e-05
5.73406e-05
5.36264e-05
4.92297e-05
4.61804e-05
4.36833e-05
4.19548e-05
4.29599e-05
4.44122e-05
4.6762e-05
5.11811e-05
5.18299e-05
5.87914e-05
5.52149e-05
6.76667e-05
6.02439e-05
0.952321
0.701599
0.529337
0.415493
0.333789
0.270971
0.220241
0.17728
0.13878
0.102272
0.0664661
0.0332932
0.0167629
0.00434043
0.00135894
0.00035299
0.00117086
0.00138368
0.00124943
0.00116141
0.00110227
0.00103767
0.000973003
0.00091114
0.000852512
0.000795845
0.000742229
0.000690975
0.000641808
0.000595089
0.000550504
0.000508372
0.000468586
0.000430886
0.000395745
0.000362762
0.000332007
0.00030334
0.000277014
0.000252423
0.000229576
0.000209108
0.000190234
0.000172977
0.000157545
0.000143651
0.000131366
0.000120446
0.000110803
0.000102355
9.49573e-05
8.84982e-05
8.27956e-05
7.77683e-05
7.30002e-05
6.87314e-05
6.48148e-05
6.07823e-05
5.70821e-05
5.32477e-05
4.97245e-05
4.62862e-05
4.40498e-05
4.26427e-05
4.24536e-05
4.40056e-05
4.6433e-05
4.85753e-05
5.27691e-05
5.31254e-05
5.98293e-05
5.56362e-05
6.81284e-05
5.99918e-05
1
0.922453
0.686525
0.530982
0.423649
0.344418
0.282552
0.231726
0.187653
0.147235
0.108436
0.0704814
0.0355467
0.0165968
0.00408968
0.00188113
0.000311848
0.000926315
0.00132951
0.00121488
0.00109835
0.00103802
0.000980723
0.00091845
0.000858334
0.000801225
0.0007468
0.000695045
0.000645297
0.000597991
0.000552946
0.000510243
0.000470087
0.000431996
0.000396419
0.000363149
0.00033205
0.000303094
0.000276421
0.000251583
0.000228384
0.000207579
0.000188379
0.000170772
0.000154997
0.000140735
0.000128117
0.000116853
0.000106891
9.81538e-05
9.05083e-05
8.38351e-05
7.7974e-05
7.28273e-05
6.79674e-05
6.37811e-05
5.98657e-05
5.6017e-05
5.25045e-05
4.91137e-05
4.60607e-05
4.37968e-05
4.25689e-05
4.23321e-05
4.33817e-05
4.53059e-05
4.82113e-05
5.01469e-05
5.40913e-05
5.41633e-05
6.06593e-05
5.58855e-05
6.84518e-05
5.9696e-05
1
1
0.895007
0.678382
0.534996
0.433322
0.356614
0.295492
0.244134
0.198609
0.156254
0.11548
0.0757845
0.0393598
0.017181
0.00494008
0.00301425
0.00023499
0.000460562
0.00117513
0.00119272
0.00105664
0.000977959
0.000923058
0.000865136
0.000806498
0.000750907
0.000698655
0.000648437
0.000600571
0.000555017
0.000511843
0.000471243
0.000432766
0.000396823
0.000363237
0.000331837
0.000302616
0.000275634
0.0002505
0.000227017
0.000205886
0.000186352
0.00016841
0.000152292
0.000137681
0.000124717
0.000113095
0.000102812
9.37821e-05
8.58677e-05
7.8975e-05
7.29463e-05
6.76906e-05
6.27901e-05
5.86495e-05
5.48414e-05
5.12478e-05
4.8128e-05
4.53498e-05
4.31927e-05
4.21235e-05
4.20344e-05
4.28551e-05
4.4631e-05
4.67958e-05
4.97412e-05
5.14939e-05
5.51814e-05
5.49801e-05
6.12887e-05
5.59668e-05
6.86496e-05
5.93541e-05
1
1
1
0.884962
0.682559
0.546501
0.448121
0.372463
0.310981
0.258336
0.211028
0.166787
0.124281
0.0831648
0.0452678
0.0191884
0.00672492
0.00436226
0.000105968
0.000313039
0.000913317
0.00113823
0.00102824
0.000922836
0.000864538
0.000812305
0.000756525
0.000702407
0.000651337
0.000603107
0.000557113
0.00051342
0.000472318
0.00043344
0.000397143
0.000363234
0.000331523
0.00030204
0.000274766
0.000249332
0.000225577
0.000204132
0.000184257
0.000165985
0.000149512
0.000134552
0.000121225
0.000109231
9.86142e-05
8.92724e-05
8.10704e-05
7.39459e-05
6.77414e-05
6.23916e-05
5.74767e-05
5.34407e-05
4.98736e-05
4.67149e-05
4.42567e-05
4.24e-05
4.14417e-05
4.15842e-05
4.24843e-05
4.40492e-05
4.61626e-05
4.83776e-05
5.11688e-05
5.27243e-05
5.61549e-05
5.56889e-05
6.18046e-05
5.59623e-05
6.87685e-05
5.90031e-05
1
1
1
1
0.89892
0.70178
0.567871
0.469676
0.393025
0.329841
0.27516
0.225783
0.179659
0.135609
0.093208
0.0538147
0.0236957
0.00921604
0.00604292
0
0.000233353
0.000567796
0.00101195
0.00101166
0.000887372
0.000807407
0.000757157
0.000707691
0.000655703
0.000605763
0.00055908
0.000515092
0.000473597
0.000434251
0.000397512
0.000363249
0.000331234
0.000301486
0.000273908
0.000248176
0.000224149
0.000202385
0.00018216
0.000163553
0.000146719
0.00013139
0.000117686
0.000105305
9.43262e-05
8.46388e-05
7.61325e-05
6.87529e-05
6.23657e-05
5.69367e-05
5.20569e-05
4.82841e-05
4.51489e-05
4.27338e-05
4.12547e-05
4.06266e-05
4.08868e-05
4.20806e-05
4.36171e-05
4.55694e-05
4.77887e-05
4.99048e-05
5.24976e-05
5.38415e-05
5.70235e-05
5.63084e-05
6.22334e-05
5.59065e-05
6.88264e-05
5.86613e-05
1
1
1
1
1
0.940509
0.738569
0.60095
0.499309
0.419343
0.353047
0.29555
0.243743
0.195665
0.150093
0.106454
0.0655638
0.0317331
0.012925
0.00774651
0.00207955
0.000125028
0.000266927
0.000755817
0.000957099
0.000874643
0.000765149
0.000701293
0.000656199
0.000610123
0.000562494
0.00051688
0.00047467
0.00043511
0.000398085
0.000363426
0.000331037
0.000300984
0.000273105
0.000247092
0.000222804
0.000200708
0.000180121
0.000161169
0.000143966
0.00012825
0.000114154
0.000101368
8.99926e-05
7.9925e-05
7.10934e-05
6.3437e-05
5.68779e-05
5.14165e-05
4.67206e-05
4.34686e-05
4.10966e-05
3.98238e-05
3.95685e-05
4.01968e-05
4.14025e-05
4.3263e-05
4.50897e-05
4.71515e-05
4.9338e-05
5.12864e-05
5.36788e-05
5.48133e-05
5.77577e-05
5.68115e-05
6.25617e-05
5.57933e-05
6.88205e-05
5.8322e-05
1
1
1
1
1
1
1
0.796986
0.648426
0.538947
0.45297
0.381912
0.320623
0.265868
0.215559
0.168344
0.123431
0.0810539
0.0440891
0.0187581
0.00535965
0.00453381
0.00108141
0.000174092
0.000187742
0.000731668
0.00084411
0.00075502
0.00066121
0.000604297
0.000562572
0.000520562
0.000477561
0.000436328
0.000398435
0.00036354
0.000331026
0.000300714
0.000272466
0.000246118
0.000221561
0.000199135
0.000178202
0.000158908
0.000141316
0.000125198
0.000110691
9.74828e-05
8.56833e-05
7.52085e-05
6.60375e-05
5.81137e-05
5.14537e-05
4.61253e-05
4.19722e-05
3.96787e-05
3.85196e-05
3.86242e-05
3.94878e-05
4.09899e-05
4.27052e-05
4.4816e-05
4.66828e-05
4.86876e-05
5.07517e-05
5.25081e-05
5.46975e-05
5.56333e-05
5.83531e-05
5.7197e-05
6.27831e-05
5.5622e-05
6.87499e-05
5.7973e-05
0.820719
1
1
1
1
1
1
1
0.884785
0.715048
0.591842
0.496287
0.418255
0.351805
0.293243
0.240181
0.19101
0.144656
0.100831
0.0612751
0.0298971
0.011178
0.00352786
0.00271049
3.88608e-05
0.000173894
0.000307981
0.000669344
0.000727035
0.000646349
0.000565424
0.000513638
0.000475943
0.000438999
0.000401058
0.000364499
0.000330869
0.000300228
0.000271919
0.000245439
0.000220612
0.000197771
0.000176445
0.000156804
0.000138831
0.000122317
0.000107381
9.37372e-05
8.14933e-05
7.06024e-05
6.11165e-05
5.30217e-05
4.65088e-05
4.17421e-05
3.8819e-05
3.79546e-05
3.81836e-05
3.93167e-05
4.08158e-05
4.26254e-05
4.44662e-05
4.65278e-05
4.82854e-05
5.01459e-05
5.20322e-05
5.35885e-05
5.55684e-05
5.63205e-05
5.88312e-05
5.74905e-05
6.29112e-05
5.54101e-05
6.86243e-05
5.76095e-05
0.64597
0.722092
1
1
1
1
1
1
1
1
0.809483
0.663474
0.553
0.464696
0.390987
0.327264
0.270553
0.218835
0.170693