/*--------------------------------*- C++ -*----------------------------------*\
| =========                 |                                                 |
| \\      /  F ield         | OpenFOAM: The Open Source CFD Toolbox           |
|  \\    /   O peration     | Version:  2312                                  |
|   \\  /    A nd           | Website:  www.openfoam.com                      |
|    \\/     M anipulation  |                                                 |
\*---------------------------------------------------------------------------*/
FoamFile
{
    version     2.0;
    format      ascii;
    arch        "LSB;label=32;scalar=64";
    class       volScalarField;
    location    "700";
    object      turbulenceProperties:L;
}
// * * * * * * * * * * * * * * * * * * * * * * * * * * * * * * * * * * * * * //

dimensions      [0 1 0 0 0 0 0];

internalField   nonuniform List<scalar> 
11040
(
0.000441854
0.000484396
0.000876249
0.00141639
0.00136871
0.00130589
0.00127945
0.00127135
0.00125311
0.0012437
0.00123181
0.00122268
0.00121203
0.00120387
0.00119578
0.00119099
0.00119004
0.0011915
0.00119414
0.0011975
0.00120201
0.00120822
0.00121496
0.00122089
0.00122733
0.00123881
0.00125686
0.00127773
0.00130188
0.00133022
0.001364
0.00140486
0.00145841
0.00154496
0.0017101
0.00184167
0.00183677
0.0025038
0.00427483
0.00241093
0.00228781
0.00117461
0.0010537
0.000666667
0.000886664
0.00245315
0.00443984
0.00702113
0.011139
0.0198087
0.0184027
0.0112859
0.00912254
0.00784283
0.00702886
0.00641713
0.00597666
0.00567193
0.00547469
0.00534703
0.00526118
0.00521328
0.00519419
0.00521547
0.00529606
0.00546387
0.00580771
0.00640511
0.00722315
0.00832104
0.00973723
0.0113135
0.0125416
0.0136206
0.0141316
0.0140952
0.0136392
0.0129523
0.0125309
0.0111445
0.0111592
0.00804925
0.00149667
0.00161372
0.00128697
0.000825652
0.00157074
0.0031508
0.00538158
0.00842737
0.0107823
0.0128928
0.0157008
0.0194046
0.0259784
0.0462015
0.0379829
0.0258638
0.0213784
0.0189231
0.0175439
0.0168196
0.016593
0.0168364
0.0177778
0.0196673
0.0226896
0.0270974
0.0336313
0.0454761
0.0899347
0.0638988
0.0405197
0.0318274
0.0269819
0.0239349
0.0218263
0.0202121
0.0189664
0.0183574
0.0167556
0.0160636
0.0176201
0.00177112
0.00190494
0.00216444
0.00172072
0.00118259
0.00209847
0.00375027
0.00598295
0.00962945
0.0124355
0.0147458
0.0168307
0.0185803
0.0207561
0.0225863
0.024513
0.0261549
0.0274597
0.0283367
0.0286594
0.0287207
0.0286228
0.0283979
0.0282865
0.0286984
0.0298106
0.031749
0.0346716
0.0386657
0.0429271
0.044438
0.0415411
0.0371605
0.0332468
0.0301609
0.0277008
0.025794
0.0247494
0.0230293
0.0216812
0.0284748
0.00204953
0.00215488
0.00208963
0.00297092
0.00251223
0.00153284
0.00255838
0.00422214
0.00656503
0.0101409
0.013956
0.017157
0.0191564
0.0213165
0.0228352
0.0242039
0.0252859
0.0260603
0.0266122
0.0269594
0.0272861
0.0277446
0.0283975
0.0292757
0.0305598
0.0323721
0.0348336
0.0380958
0.042293
0.0472241
0.0513977
0.0518655
0.0483194
0.0436337
0.039495
0.0361082
0.0334458
0.0318235
0.0302018
0.0282167
0.0373193
0.00241155
0.00251731
0.00254659
0.00242772
0.00460135
0.0054553
0.0018247
0.00294854
0.00460452
0.0070463
0.0102665
0.0151114
0.0190777
0.0224433
0.0246098
0.026436
0.0279475
0.0290219
0.0298302
0.0304078
0.0309182
0.0315415
0.0324419
0.0336478
0.0352948
0.0374933
0.0403722
0.0441084
0.0489236
0.0549169
0.0612424
0.0646177
0.0620187
0.0562139
0.0505605
0.0459005
0.0422526
0.0398733
0.0383311
0.0359487
0.0452111
0.00283702
0.00290219
0.00299355
0.00289975
0.002854
0.00785575
0.0592357
0.00199949
0.00325393
0.0049152
0.00733182
0.0104808
0.0150548
0.0205632
0.0249956
0.0284277
0.0309786
0.0327977
0.0342878
0.0353878
0.0362459
0.0370253
0.0380485
0.0394068
0.0412481
0.043708
0.0469391
0.0511502
0.0566404
0.0637783
0.0724008
0.079689
0.0794663
0.072361
0.0644048
0.0578457
0.0528077
0.0494177
0.0477132
0.0451724
0.0537807
0.00332061
0.00335778
0.00338369
0.00345023
0.00331802
0.00324278
0.0281676
0.43193
0.00224845
0.00345566
0.00515536
0.00745221
0.0106383
0.0147051
0.0206672
0.0266925
0.0316467
0.0354134
0.0384364
0.0406126
0.0422939
0.0435411
0.0447931
0.046287
0.0482338
0.0508391
0.0543112
0.0589096
0.0649836
0.0731445
0.0839974
0.0964514
0.102404
0.0948181
0.0830631
0.0733345
0.066119
0.0612657
0.0589404
0.056479
0.0640745
0.00386324
0.00389054
0.00388646
0.00390294
0.00397874
0.00375395
0.00382939
0.0151125
0.0126034
0.00736179
0.00346838
0.0052833
0.00751089
0.0105587
0.014524
0.0197169
0.0269072
0.0336693
0.0392832
0.0437084
0.0472742
0.0498322
0.0519666
0.0540095
0.0562861
0.0590782
0.0626923
0.0675028
0.0739598
0.0828059
0.0952934
0.112872
0.131673
0.13005
0.111354
0.0953012
0.0841403
0.0768798
0.0731993
0.0707611
0.0772495
0.00448226
0.00450189
0.00448527
0.0044609
0.00447943
0.00454713
0.004304
0.00453313
0.00964948
0.0363109
0.00573787
0.00328271
0.00527345
0.00751398
0.0103533
0.0141815
0.018978
0.025381
0.0338193
0.0417203
0.0482325
0.053221
0.0572405
0.0607131
0.0641048
0.0677624
0.0720103
0.0772464
0.0839927
0.0931211
0.106211
0.126292
0.159179
0.193776
0.165416
0.131614
0.111362
0.0993017
0.092927
0.0898873
0.095098
0.00518926
0.00520328
0.00517692
0.0051363
0.00510025
0.00512311
0.00515724
0.00499881
0.00501335
0.00747225
0.0512442
0.0123201
0.0117136
0.00490352
0.00734091
0.0100984
0.0136127
0.0182413
0.0239614
0.0316299
0.0415354
0.0506177
0.0576109
0.0633363
0.0685923
0.0737935
0.0793455
0.085718
0.0934132
0.103157
0.116231
0.135342
0.167718
0.242344
0.379723
0.211759
0.159334
0.135177
0.123056
0.11781
0.121093
0.00600172
0.0060103
0.00598097
0.00592435
0.00586643
0.00582176
0.00582992
0.00585835
0.00576969
0.0056667
0.00667115
0.102134
0.103361
0.00681411
0.0044292
0.00690715
0.00971681
0.0130113
0.0172246
0.0227026
0.029472
0.0380513
0.0483243
0.0583645
0.0669247
0.0742455
0.0813252
0.0889678
0.0976492
0.107937
0.120711
0.137579
0.161768
0.201127
0.278033
0.34214
0.244777
0.194375
0.170971
0.161301
0.162194
0.00693945
0.00694196
0.00691154
0.00684458
0.00676396
0.0066897
0.00663253
0.00661685
0.00663922
0.00660784
0.00643497
0.00691529
0.0193039
0.104706
0.021857
0.00835725
0.00593036
0.00904125
0.0123046
0.0161719
0.0211137
0.0272875
0.0343262
0.042455
0.052352
0.063484
0.0745516
0.0848371
0.094618
0.104839
0.116454
0.130318
0.147338
0.168453
0.193683
0.21851
0.230133
0.223445
0.211002
0.204545
0.210511
0.008027
0.00802198
0.00799159
0.00791675
0.00781581
0.00771243
0.00761954
0.00754321
0.00750095
0.00750819
0.00750794
0.00732761
0.00743891
0.0105366
0.349297
0.452954
0.0113336
0.0101851
0.00779853
0.011277
0.0150506
0.0193064
0.0243074
0.0303663
0.0373481
0.045058
0.0539421
0.0645842
0.0768462
0.0900049
0.103317
0.116451
0.129536
0.142831
0.15609
0.168429
0.178443
0.185249
0.188981
0.191823
0.201069
0.00929524
0.00928051
0.00925025
0.0091678
0.00904782
0.00891593
0.0087871
0.00866992
0.00856948
0.00849722
0.00847991
0.00847182
0.00834089
0.00830703
0.00889179
0.021603
0.107162
2.51777
0.00848015
0.0124597
0.00959878
0.0133705
0.0171222
0.0212482
0.0259806
0.031589
0.0382165
0.0457351
0.0539437
0.0630001
0.0733456
0.0852381
0.0984359
0.112191
0.125367
0.136795
0.145713
0.152379
0.15741
0.16126
0.168254
0.0107818
0.0107558
0.0107255
0.0106352
0.0104956
0.0103352
0.0101711
0.0100114
0.00986371
0.0097343
0.00963056
0.00957496
0.00953652
0.00948683
0.0092954
0.00957451
0.0110712
0.0825633
0.232289
7.51738
0.00824564
0.0137155
0.00981269
0.0139219
0.0177183
0.0217069
0.0260854
0.0310717
0.0368604
0.0435607
0.0511189
0.0593098
0.0678985
0.0768321
0.0861325
0.0957412
0.105394
0.114789
0.123387
0.130363
0.137731
0.0125159
0.0124782
0.0124467
0.0123468
0.0121861
0.0119969
0.0117971
0.0115962
0.0114014
0.0112207
0.0110594
0.010923
0.010819
0.0107568
0.0106801
0.0105652
0.0104141
0.0110518
0.0150197
0.233947
0.35239
9.23533
0.0158595
0.00939719
0.0463085
0.0122139
0.0162136
0.0200914
0.0242062
0.02863
0.0335185
0.0389731
0.045022
0.0516514
0.0587478
0.0661223
0.0735156
0.0808071
0.0878038
0.094123
0.100714
0.0144591
0.0144081
0.0143713
0.0142567
0.0140703
0.0138483
0.0136104
0.0133664
0.0131253
0.0128946
0.012681
0.0124882
0.0123188
0.0121771
0.0120737
0.0119844
0.0118826
0.0116792
0.0116532
0.0125134
0.0183542
0.279725
0.375367
3.14386
1.34698
0.015041
0.00903731
0.0160332
0.0103772
0.0137209
0.0186678
0.0231883
0.0276563
0.0323473
0.0373006
0.0425223
0.0479543
0.0536146
0.0594193
0.0650953
0.0711531
0.0165499
0.0164827
0.0164379
0.016305
0.0160896
0.0158318
0.0155525
0.0152618
0.0149696
0.0146857
0.0144172
0.0141692
0.0139447
0.0137442
0.0135715
0.0134264
0.0133197
0.0131987
0.0130472
0.0128654
0.0129267
0.0140616
0.017947
0.0916871
0.274301
0.825077
4.98902
0
0.170097
0.0170116
0.0094555
0.0153673
0.03011
0.0140674
0.0170748
0.022091
0.0268482
0.0315308
0.0362255
0.040807
0.04571
0.0187713
0.0186886
0.0186346
0.0184819
0.0182362
0.0179416
0.0176202
0.0172831
0.0169407
0.0166038
0.0162801
0.0159749
0.0156924
0.0154352
0.0152048
0.0150006
0.0148249
0.0146785
0.0145547
0.0144079
0.0142236
0.0140813
0.0141124
0.0149304
0.0174775
0.0241734
0.131848
0.345197
0.888119
1.44155
10.8602
0
0
0.0715752
0.0168997
0.0100327
0.014323
0.0269326
0.0547534
0.0703884
0.0196149
0.0211481
0.0210503
0.0209857
0.0208112
0.0205333
0.0201997
0.0198342
0.0194489
0.0190554
0.0186654
0.0182876
0.017927
0.0175881
0.0172742
0.0169873
0.0167285
0.0164969
0.0162928
0.0161172
0.0159666
0.0158293
0.0156618
0.0154879
0.0152873
0.0153027
0.0155099
0.0163945
0.0186228
0.0235148
0.0353047
0.249636
0.48523
1.03326
1.44462
2.34011
9.74146
0
0
0
3.48695
0.0235689
0.0236981
0.0235853
0.0235078
0.0233089
0.0229966
0.0226215
0.0222093
0.0217734
0.021327
0.0208826
0.0204499
0.0200343
0.0196404
0.0192719
0.0189311
0.0186191
0.0183361
0.0180818
0.0178551
0.0176543
0.0174843
0.0173354
0.017198
0.0170382
0.0168613
0.0167047
0.0165381
0.0165202
0.0167061
0.0170712
0.0180251
0.0199445
0.0236233
0.030904
0.0470114
0.185745
0.507175
1.20017
1.46252
1.89886
2.72337
0.0264425
0.0263145
0.0262218
0.0259959
0.0256467
0.0252275
0.0247658
0.0242768
0.0237752
0.0232747
0.0227857
0.0223144
0.0218653
0.0214429
0.0210496
0.0206865
0.0203542
0.0200527
0.0197814
0.0195375
0.0193249
0.0191422
0.018984
0.0188501
0.018725
0.0186038
0.0184645
0.0183096
0.0181616
0.0180479
0.0179357
0.0179289
0.0180509
0.0183289
0.0187642
0.0195732
0.020933
0.0231407
0.0264631
0.0323622
0.0435709
0.0294023
0.0292589
0.029148
0.0288923
0.0285033
0.0280368
0.0275224
0.0269773
0.0264178
0.0258589
0.0253119
0.0247837
0.0242792
0.023803
0.0233581
0.0229457
0.0225664
0.0222203
0.0219071
0.0216245
0.0213764
0.0211613
0.020973
0.0208147
0.0206824
0.0205708
0.0204759
0.0203899
0.0203036
0.0202179
0.0201228
0.0200225
0.0199286
0.0198512
0.019801
0.019758
0.0197643
0.0198404
0.0199883
0.0202478
0.0205362
0.0326009
0.0324416
0.032309
0.0320203
0.0315883
0.0310712
0.0305005
0.0298959
0.0292756
0.0286557
0.0280488
0.0274622
0.0269013
0.026371
0.0258746
0.0254138
0.0249891
0.0246007
0.0242486
0.0239302
0.0236508
0.0234083
0.0231961
0.0230173
0.0228684
0.0227448
0.0226444
0.0225654
0.0225052
0.0224606
0.0224291
0.0224064
0.0223893
0.0223743
0.0223617
0.022349
0.0223381
0.0223299
0.0223235
0.0223394
0.022325
0.0360632
0.0358872
0.035729
0.0354034
0.0349246
0.0343528
0.0337218
0.033054
0.0323694
0.0316858
0.0310165
0.0303696
0.0297512
0.0291664
0.0286188
0.0281103
0.0276415
0.0272128
0.0268242
0.0264732
0.0261658
0.0258998
0.0256673
0.0254726
0.025312
0.0251805
0.025075
0.0249937
0.0249348
0.0248964
0.0248772
0.0248757
0.0248908
0.0249202
0.0249618
0.0250147
0.0250786
0.0251505
0.0252237
0.0253115
0.0253639
0.0398168
0.0396226
0.0394341
0.039067
0.0385371
0.0379058
0.0372099
0.0364745
0.0357221
0.0349715
0.0342372
0.0335282
0.032851
0.032211
0.0316122
0.0310564
0.0305447
0.0300774
0.0296547
0.0292737
0.0289418
0.0286558
0.0284064
0.0281989
0.02803
0.027894
0.0277876
0.0277085
0.0276545
0.0276235
0.0276135
0.0276229
0.0276508
0.0276953
0.0277546
0.0278283
0.0279166
0.028018
0.0281256
0.0282565
0.0283422
0.0438918
0.0436773
0.0434526
0.0430383
0.0424517
0.0417552
0.040989
0.0401813
0.0393568
0.0385357
0.0377336
0.0369603
0.0362228
0.0355268
0.0348766
0.0342742
0.0337207
0.0332165
0.0327618
0.0323537
0.0320004
0.0316979
0.0314349
0.0312181
0.031044
0.0309067
0.0308022
0.0307283
0.0306824
0.0306621
0.0306653
0.0306898
0.0307345
0.0307973
0.0308759
0.0309698
0.0310792
0.0312023
0.0313315
0.0314866
0.0315882
0.0483216
0.0480836
0.0478152
0.0473467
0.0466965
0.0459281
0.0450853
0.0441997
0.0432983
0.0424028
0.0415299
0.0406902
0.0398907
0.0391378
0.0384361
0.0377877
0.0371935
0.0366541
0.0361696
0.0357371
0.0353656
0.03505
0.0347767
0.034554
0.0343782
0.0342428
0.0341435
0.0340778
0.0340431
0.0340365
0.0340558
0.0340985
0.0341634
0.0342481
0.0343502
0.0344688
0.0346043
0.0347546
0.0349118
0.0350958
0.0352238
0.0531435
0.0528774
0.0525555
0.0520236
0.0513012
0.0504527
0.0495258
0.0485559
0.0475722
0.0465981
0.045651
0.0447423
0.0438793
0.0430689
0.0423157
0.0416218
0.0409881
0.0404153
0.0399036
0.0394494
0.039063
0.0387379
0.038458
0.0382328
0.0380589
0.037929
0.0378383
0.0377842
0.0377637
0.037774
0.0378123
0.0378761
0.037964
0.0380733
0.0382015
0.0383476
0.038512
0.0386924
0.0388808
0.0390959
0.0392569
0.0583994
0.0580975
0.0577099
0.057103
0.0562977
0.055359
0.054339
0.0532772
0.052205
0.0511472
0.0501221
0.0491419
0.0482138
0.047345
0.0465403
0.0458017
0.04513
0.0445258
0.0439894
0.0435165
0.0431189
0.0427881
0.0425053
0.0422815
0.0421134
0.0419927
0.0419144
0.0418754
0.0418728
0.0419033
0.041964
0.0420522
0.0421664
0.0423037
0.0424614
0.0426384
0.042835
0.0430488
0.043272
0.0435201
0.0437226
0.0641357
0.0637875
0.0633178
0.0626211
0.0617196
0.0606784
0.0595546
0.0583919
0.057224
0.0560768
0.0549695
0.0539146
0.0529198
0.0519918
0.0511356
0.0503533
0.0496454
0.0490119
0.0484534
0.047965
0.0475594
0.0472268
0.0469447
0.046726
0.0465671
0.0464593
0.046397
0.0463768
0.0463955
0.0464499
0.0465366
0.0466529
0.0467969
0.0469657
0.0471564
0.0473679
0.0476004
0.0478511
0.0481134
0.048396
0.0486523
0.0704046
0.0699946
0.0694224
0.0686172
0.0676028
0.0664441
0.0652036
0.0639291
0.0626568
0.0614134
0.0602189
0.0590861
0.0580226
0.0570346
0.0561273
0.0553025
0.0545601
0.0539001
0.0533225
0.0528222
0.0524128
0.0520827
0.0518057
0.0515965
0.0514517
0.0513614
0.0513194
0.0513224
0.051367
0.0514495
0.0515665
0.0517149
0.0518929
0.0520973
0.0523249
0.0525748
0.0528471
0.0531384
0.0534443
0.0537628
0.0540874
0.0772645
0.0767716
0.0760704
0.0751336
0.0739852
0.0726905
0.0713171
0.0699178
0.0685304
0.0671828
0.0658951
0.0646804
0.0635459
0.062497
0.0615387
0.0606726
0.0598977
0.0592136
0.0586198
0.0581107
0.0577007
0.0573768
0.0571082
0.0569119
0.0567842
0.0567145
0.0566961
0.0567254
0.0567987
0.0569123
0.0570625
0.0572461
0.0574611
0.0577042
0.0579722
0.0582639
0.0585796
0.058915
0.0592691
0.0596234
0.0600372
0.0847809
0.0841758
0.083313
0.0822148
0.0809063
0.0794525
0.0779266
0.0763862
0.0748709
0.0734093
0.0720213
0.0707199
0.0695117
0.068401
0.0673921
0.0664863
0.0656815
0.0649768
0.0643713
0.0638585
0.0634536
0.0631421
0.0628882
0.0627113
0.0626073
0.0625649
0.0625764
0.0626381
0.0627462
0.0628967
0.0630858
0.0633099
0.0635669
0.0638536
0.0641665
0.0645045
0.0648677
0.0652511
0.0656579
0.0660481
0.0665697
0.0930271
0.0922709
0.0912048
0.0899085
0.0884072
0.0867654
0.0850629
0.0833616
0.081703
0.0801154
0.0786187
0.0772246
0.075939
0.0747646
0.0737046
0.0727594
0.071926
0.071202
0.0705859
0.0700703
0.069671
0.0693724
0.0691333
0.0689754
0.068895
0.0688793
0.0689205
0.0690144
0.0691573
0.0693448
0.069573
0.0698383
0.0701382
0.0704696
0.0708287
0.0712147
0.0716273
0.0720608
0.0725241
0.072946
0.0736095
0.102084
0.101125
0.0998046
0.0982639
0.096529
0.0946643
0.0927557
0.09087
0.0890492
0.0873217
0.0857058
0.0842122
0.0828453
0.081606
0.0804958
0.0795144
0.0786574
0.0779211
0.0773031
0.076795
0.0764128
0.0761397
0.0759284
0.0758028
0.0757589
0.0757828
0.0758657
0.0760032
0.0761913
0.0764255
0.0767016
0.0770159
0.0773658
0.077748
0.0781589
0.0785977
0.079064
0.0795509
0.0800736
0.0805293
0.0813431
0.112041
0.110812
0.109173
0.10733
0.105311
0.103181
0.101033
0.0989347
0.0969306
0.0950467
0.0933
0.0916982
0.0902437
0.0889342
0.0877691
0.0867462
0.0858597
0.0851034
0.084474
0.0839619
0.0835831
0.0833212
0.0831228
0.0830148
0.082993
0.0830425
0.083154
0.0833231
0.0835455
0.0838165
0.0841318
0.0844875
0.0848807
0.0853083
0.0857659
0.0862531
0.0867692
0.0873061
0.0878881
0.0883589
0.0893894
0.122993
0.121409
0.119372
0.117155
0.114791
0.112345
0.109918
0.107578
0.105368
0.10331
0.10142
0.0997014
0.0981557
0.096778
0.0955653
0.0945139
0.093616
0.0928632
0.0922505
0.0917669
0.091427
0.091212
0.0910623
0.0910064
0.0910399
0.0911461
0.0913149
0.0915413
0.091821
0.0921492
0.0925213
0.0929334
0.0933826
0.0938658
0.0943791
0.0949223
0.0954937
0.096086
0.0967264
0.0972353
0.0984184
0.135043
0.132997
0.130465
0.127789
0.125007
0.12219
0.11944
0.116827
0.114387
0.112137
0.110087
0.108238
0.106584
0.105116
0.103826
0.102708
0.101754
0.100953
0.100298
0.09978
0.0994115
0.0991792
0.0990159
0.0989532
0.0989863
0.0990975
0.099276
0.0995166
0.0998147
0.100165
0.100562
0.101002
0.101481
0.101996
0.102541
0.103118
0.103723
0.104348
0.105034
0.105509
0.107023
0.148306
0.145651
0.142499
0.139263
0.135995
0.132757
0.129645
0.126724
0.124027
0.121565
0.119343
0.117356
0.115599
0.114068
0.112755
0.11165
0.110733
0.109989
0.109405
0.108968
0.108689
0.108546
0.108469
0.108492
0.108608
0.1088
0.109055
0.109368
0.109734
0.11015
0.110609
0.111108
0.111644
0.112213
0.112813
0.113444
0.114101
0.114781
0.11551
0.116077
0.117567
0.162856
0.159399
0.155464
0.151552
0.147735
0.144054
0.140573
0.137332
0.134352
0.131645
0.129216
0.127053
0.125133
0.123423
0.121904
0.120583
0.119462
0.118533
0.117786
0.117202
0.116792
0.116547
0.116384
0.116335
0.116394
0.116539
0.116758
0.117044
0.117391
0.117792
0.118241
0.118732
0.119261
0.119825
0.120416
0.121032
0.121674
0.122327
0.123061
0.123436
0.125538
0.178616
0.174192
0.169351
0.164667
0.160238
0.156084
0.152235
0.148698
0.145458
0.142504
0.13984
0.137493
0.135493
0.133856
0.132555
0.131511
0.130653
0.129952
0.1294
0.128997
0.128751
0.128636
0.128585
0.128635
0.128781
0.129003
0.129288
0.129631
0.130028
0.130473
0.130962
0.131491
0.132056
0.132657
0.133289
0.133956
0.134643
0.13537
0.136107
0.136828
0.138151
0.19549
0.190012
0.184307
0.178927
0.173918
0.169242
0.164924
0.160997
0.157465
0.154296
0.151422
0.148751
0.146209
0.143764
0.141475
0.139501
0.137923
0.136685
0.135724
0.134985
0.134462
0.134155
0.133956
0.133892
0.13395
0.134103
0.134336
0.134638
0.135001
0.135415
0.135872
0.136361
0.136879
0.137418
0.13797
0.138527
0.139096
0.139644
0.140307
0.140321
0.14321
0.213923
0.207001
0.200361
0.194481
0.189202
0.184266
0.179561
0.17509
0.170927
0.167207
0.164079
0.161656
0.159957
0.1589
0.158241
0.157539
0.156611
0.155629
0.15472
0.153954
0.153343
0.152858
0.15246
0.152189
0.152039
0.151987
0.152019
0.152127
0.152307
0.152552
0.152858
0.153221
0.153636
0.154103
0.15462
0.155196
0.155796
0.156503
0.157092
0.158314
0.158153
0.234272
0.224551
0.216036
0.209269
0.20389
0.199338
0.195217
0.191237
0.187173
0.18286
0.178229
0.173324
0.168325
0.163471
0.159125
0.155884
0.153777
0.152278
0.151167
0.150341
0.149798
0.149512
0.149372
0.149388
0.149534
0.149781
0.150107
0.150496
0.150934
0.151405
0.151896
0.152391
0.152882
0.153357
0.153802
0.154198
0.154569
0.154824
0.155282
0.154448
0.158695
0.253348
0.241419
0.231227
0.222929
0.216284
0.210979
0.206869
0.203855
0.201793
0.200491
0.199727
0.199282
0.198946
0.198679
0.198302
0.196682
0.193865
0.190881
0.18804
0.185498
0.183264
0.181306
0.179573
0.178067
0.176784
0.175697
0.174786
0.174038
0.173446
0.173005
0.172708
0.172556
0.172545
0.172682
0.172965
0.173415
0.173979
0.174843
0.175468
0.178007
0.175516
0.243645
0.23014
0.223908
0.222952
0.224641
0.225775
0.223505
0.217024
0.20785
0.198147
0.189357
0.182064
0.176347
0.171985
0.168834
0.167428
0.167473
0.168175
0.169183
0.170367
0.171796
0.17314
0.174627
0.176185
0.177777
0.179392
0.181025
0.18267
0.184321
0.185976
0.187637
0.189306
0.190996
0.19272
0.194474
0.196237
0.198116
0.199918
0.202375
0.202286
0.213291
0.00521982
0.00947446
0.0140114
0.0184899
0.023186
0.0282919
0.0339484
0.0406445
0.0498033
0.0643798
0.0487285
0.0148372
0.0107875
0.107514
0.0157245
0.0143351
0.0158018
0.016965
0.0180293
0.0192816
0.0206111
0.0221067
0.0237151
0.0254762
0.0273812
0.0294721
0.0317062
0.0342003
0.0369203
0.0399116
0.0432385
0.0468816
0.0509574
0.0554567
0.0603965
0.0659145
0.0719873
0.0787424
0.0861249
0.0944093
0.103463
0.113309
0.124106
0.135799
0.148314
0.161582
0.175463
0.189806
0.204599
0.219466
0.234414
0.249316
0.264178
0.279098
0.294423
0.310933
0.327714
0.347399
0.368302
0.393962
0.421559
0.458826
0.49475
0.532333
0.567176
0.568269
0.556902
0.529555
0.480589
0.472141
0.412788
0.435353
0.355304
0.39422
0.00908633
0.0124158
0.0165515
0.0206755
0.0248826
0.0293888
0.0343022
0.0397832
0.0463299
0.0554583
0.0705625
0.0523818
0.0134937
0.0141968
0.0945373
0.0165132
0.0151702
0.0167807
0.0180121
0.0191862
0.0205011
0.0219922
0.0235878
0.0253408
0.0272382
0.0293289
0.0315623
0.0340462
0.0367688
0.0397557
0.0430807
0.0467214
0.0507865
0.0552927
0.0602344
0.0657595
0.0718529
0.0786396
0.0860605
0.0944125
0.103631
0.113602
0.12463
0.136682
0.149608
0.163461
0.178022
0.193252
0.209046
0.225098
0.24138
0.257649
0.274028
0.290387
0.307583
0.325907
0.34411
0.366006
0.388497
0.416592
0.445392
0.485107
0.517069
0.54655
0.568986
0.5556
0.53736
0.510285
0.466172
0.460256
0.405732
0.431883
0.352483
0.395613
0.0152354
0.0170677
0.020227
0.0237001
0.0273635
0.0313091
0.0355963
0.040259
0.0454456
0.0517062
0.060598
0.0752506
0.0562415
0.0125402
0.0157362
0.100092
0.0186468
0.0159505
0.0177119
0.0191874
0.0203829
0.0218118
0.023418
0.0251647
0.0270498
0.0291263
0.0313753
0.0338416
0.0365667
0.0395625
0.0428841
0.0465475
0.0506009
0.0551212
0.0601005
0.0656413
0.0717906
0.078636
0.0861625
0.0946028
0.104058
0.114276
0.125641
0.138197
0.151749
0.166437
0.182007
0.19851
0.215781
0.233582
0.251769
0.270128
0.288714
0.307354
0.327402
0.347705
0.36868
0.393099
0.418535
0.448621
0.480349
0.515963
0.542084
0.559893
0.562309
0.542404
0.51398
0.49124
0.452144
0.44903
0.398691
0.428606
0.350089
0.397265
0.0232638
0.0234847
0.025309
0.0278021
0.0307245
0.03402
0.0376664
0.0416299
0.0459131
0.050706
0.0565927
0.0649764
0.0781993
0.0615824
0.013227
0.0121762
0.118709
0.0246524
0.0167587
0.0183991
0.0204364
0.0217901
0.023232
0.0249645
0.0268663
0.028932
0.0311861
0.0336474
0.0363737
0.0393761
0.0427008
0.0463835
0.0504463
0.0549869
0.0600057
0.0655791
0.071789
0.0787074
0.0863549
0.0949264
0.104608
0.115125
0.126886
0.139989
0.154251
0.169893
0.186631
0.204622
0.223687
0.24359
0.264154
0.285163
0.306576
0.328216
0.351655
0.374702
0.399169
0.426549
0.455033
0.48639
0.518563
0.545294
0.560947
0.564008
0.550288
0.526844
0.495028
0.475847
0.441091
0.440423
0.393231
0.426687
0.348429
0.399223
0.0326368
0.031925
0.0320991
0.0332854
0.0352325
0.0377373
0.0406766
0.0439567
0.0475028
0.0513391
0.0556883
0.0611041
0.0686704
0.0797596
0.0687925
0.0174892
0.0129195
0.178769
0.0646009
0.0189464
0.0189733
0.0214182
0.02328
0.0248354
0.0266582
0.0287456
0.0310186
0.0334782
0.0362035
0.0392135
0.0425487
0.0462462
0.0503307
0.0548973
0.0599532
0.0655718
0.0718437
0.0788405
0.0866103
0.0953455
0.105247
0.11608
0.128274
0.141961
0.157
0.173671
0.191728
0.211429
0.232571
0.254955
0.278439
0.302722
0.327717
0.353133
0.380661
0.407496
0.435748
0.466253
0.496418
0.526764
0.553
0.566961
0.568087
0.557134
0.534894
0.510077
0.479805
0.463401
0.432376
0.433877
0.389189
0.426059
0.347418
0.401511
0.0441262
0.0427229
0.0409289
0.040479
0.0411883
0.0427158
0.0448319
0.0473776
0.0502218
0.0532965
0.0566505
0.0605207
0.0653624
0.0718686
0.0806876
0.0767153
0.0268382
0.0187271
0.582019
0.11253
0.0248533
0.0200472
0.0222233
0.0248291
0.0266642
0.0285443
0.0307961
0.0333054
0.0360486
0.0390564
0.0423975
0.0461133
0.0502254
0.0548216
0.0599146
0.0655822
0.0719217
0.0790007
0.0868936
0.0958017
0.105928
0.117087
0.129742
0.144044
0.159928
0.177719
0.197259
0.218917
0.242481
0.267844
0.294926
0.32332
0.352907
0.383136
0.415861
0.447224
0.47916
0.511501
0.539847
0.563416
0.576371
0.574322
0.562082
0.542041
0.517155
0.493404
0.466422
0.452587
0.424879
0.428351
0.385935
0.426086
0.346811
0.403888
0.0579678
0.0562364
0.0521649
0.0497566
0.0489372
0.049261
0.0503928
0.0521009
0.0542006
0.056561
0.0591296
0.0619831
0.0653366
0.0695073
0.0748936
0.0816421
0.0825134
0.0419256
0.028255
0
0.171501
0.0457469
0.0225201
0.0228754
0.0260172
0.0286985
0.0307641
0.0330676
0.0358209
0.0388945
0.0422572
0.045974
0.0501012
0.0547306
0.0598702
0.0655906
0.0719956
0.079157
0.0871768
0.0962588
0.106613
0.118108
0.131246
0.146196
0.162983
0.182006
0.203202
0.22709
0.253514
0.282518
0.314066
0.347752
0.383337
0.419853
0.459167
0.494993
0.529308
0.559157
0.579134
0.588016
0.584203
0.567559
0.547495
0.523968
0.499564
0.478309
0.454618
0.443195
0.418405
0.423634
0.38327
0.426503
0.346512
0.40623
0.0728022
0.0727811
0.0662469
0.0615521
0.0588806
0.057737
0.0576819
0.0584036
0.05966
0.061267
0.0631031
0.0651464
0.0674813
0.0702738
0.0737362
0.078049
0.0830687
0.0854751
0.0630561
0.0403169
0.0152947
0.428956
0.134846
0.0307834
0.0243416
0.0267014
0.0304595
0.0333472
0.0357911
0.038633
0.0420181
0.0458274
0.0499986
0.0546346
0.0597973
0.0655722
0.0720513
0.0793012
0.0874451
0.0966929
0.107268
0.119107
0.132743
0.148369
0.16611
0.186472
0.209499
0.23592
0.265733
0.299191
0.336338
0.376904
0.420334
0.464938
0.511618
0.549834
0.581502
0.600018
0.60382
0.594313
0.576939
0.552059
0.529625
0.506396
0.483883
0.465428
0.444615
0.435337
0.413083
0.419878
0.381254
0.42736
0.346534
0.408582
0.0888868
0.0926189
0.0838015
0.0764128
0.0715067
0.0685836
0.0670948
0.0666373
0.0669035
0.067657
0.0687213
0.0700047
0.071505
0.0732965
0.0755045
0.0782541
0.0815911
0.0852487
0.087682
0.0788939
0.0312918
0.0299157
0.0211972
0.249245
0.217456
0.0317586
0.0279509
0.0311972
0.0355405
0.0389835
0.042011
0.0455257
0.0497207
0.0544992
0.0597573
0.0655642
0.072068
0.079388
0.0876651
0.0970893
0.107883
0.12006
0.134184
0.150492
0.169236
0.191029
0.216066
0.245335
0.279109
0.317966
0.3621
0.41144
0.464655
0.518281
0.569502
0.602352
0.620407
0.618662
0.605066
0.582828
0.559353
0.532942
0.511561
0.490426
0.47041
0.454602
0.436335
0.42892
0.408866
0.417044
0.379904
0.428667
0.346882
0.411029
0.10849
0.116809
0.10603
0.0952472
0.0875069
0.0823799
0.079139
0.0772532
0.0763313
0.0760778
0.0762635
0.0767411
0.0774446
0.0783805
0.0796099
0.0812174
0.0832696
0.0857462
0.0883667
0.0904452
0.0876125
0.0631998
0.025903
0.024307
2.29776
0.236863
0.099128
0.0349452
0.0327023
0.0366909
0.0418253
0.0461088
0.049879
0.0541913
0.0594009
0.0654175
0.072118
0.0795284
0.0878547
0.0973734
0.108363
0.120903
0.135535
0.152524
0.172279
0.195541
0.222738
0.255151
0.293472
0.338722
0.391268
0.450965
0.514066
0.572707
0.615762
0.629719
0.625879
0.607781
0.585398
0.560481
0.537215
0.513345
0.49459
0.47617
0.458837
0.445438
0.429497
0.423685
0.40554
0.41491
0.379124
0.430297
0.347509
0.413611
0.136321
0.14993
0.136228
0.120138
0.108253
0.100104
0.0945754
0.0908942
0.0885017
0.0870174
0.0861494
0.085697
0.0855415
0.0856348
0.085983
0.086628
0.0876239
0.0890063
0.0907196
0.0925832
0.0940739
0.0931095
0.0859033
0.0498391
0.0506952
0.0218596
1.0874
0.255028
0.0930863
0.0403321
0.0382163
0.0429707
0.0494942
0.0552554
0.0600996
0.0653226
0.0716891
0.0792826
0.0879769
0.097761
0.10888
0.121606
0.136608
0.154266
0.175102
0.199917
0.229385
0.265097
0.308386
0.360803
0.422583
0.4919
0.558291
0.60672
0.623867
0.616163
0.599301
0.57775
0.55629
0.534804
0.515029
0.495106
0.479446
0.463786
0.448998
0.437728
0.423863
0.419427
0.402958
0.413308
0.378826
0.4321
0.348353
0.416355
0.18317
0.211651
0.187482
0.157531
0.137341
0.124044
0.114987
0.108714
0.104336
0.101251
0.099039
0.0974298
0.0962516
0.0954048
0.0948441
0.0945668
0.0945987
0.0949756
0.0957092
0.0967493
0.0979762
0.0989328
0.0988338
0.0952043
0.0839049
0.0399692
0.0551607
0.0270343
1.07794
0.311276
0.140615
0.050127
0.0445162
0.0496224
0.0579292
0.0662932
0.073184
0.0797749
0.0875495
0.0972092
0.108839
0.122267
0.137805
0.155908
0.177463
0.203623
0.235421
0.274662
0.323139
0.382627
0.451996
0.523732
0.576884
0.598596
0.592556
0.576643
0.560036
0.542713
0.526612
0.510282
0.495033
0.479087
0.46643
0.45334
0.44079
0.431357
0.419282
0.416001
0.401037
0.412168
0.378954
0.433978
0.349359
0.419311
0.241932
0.36881
0.377129
0.237558
0.187344
0.161087
0.144716
0.133665
0.125932
0.120346
0.116183
0.112968
0.110424
0.108382
0.106738
0.105438
0.10447
0.103848
0.103587
0.103682
0.104098
0.104716
0.105277
0.105328
0.103835
0.0982708
0.08565
0.0383464
0.0672685
0.0323531
1.79999
0.508309
0.0181341
0.0858814
0.0563484
0.0586499
0.0679312
0.0795363
0.0901721
0.0994216
0.10923
0.121564
0.137405
0.156797
0.179874
0.207407
0.240815
0.282663
0.335522
0.400628
0.472075
0.532311
0.559568
0.559796
0.546926
0.533232
0.521793
0.510426
0.500095
0.488805
0.477878
0.465566
0.455571
0.444777
0.434128
0.42624
0.415675
0.413335
0.399721
0.411427
0.379478
0.435856
0.350485
0.422543
0.210159
0.234671
0.281404
0.341929
0.296121
0.234939
0.197984
0.175013
0.159664
0.148781
0.140793
0.134734
0.129969
0.126098
0.122889
0.120211
0.117997
0.116218
0.114856
0.113897
0.113322
0.113095
0.113123
0.113268
0.113208
0.112459
0.110174
0.103952
0.0919362
0.0499438
0.0887166
0.0574
6.60627e-05
1.01539
1.67666
0.12211
0.0744208
0.0704348
0.0796766
0.0945532
0.110915
0.125684
0.139662
0.156333
0.178639
0.20803
0.244935
0.290206
0.345265
0.410062
0.473712
0.514123
0.521548
0.514183
0.503378
0.494833
0.488944
0.482936
0.477614
0.47065
0.463538
0.454368
0.446741
0.437902
0.428915
0.42226
0.412971
0.411355
0.39895
0.411014
0.380354
0.437688
0.351686
0.42613
0.1714
0.178223
0.186987
0.201387
0.221201
0.243842
0.25677
0.245844
0.222665
0.200588
0.183308
0.170446
0.160599
0.15284
0.146581
0.141438
0.137174
0.133653
0.130765
0.128432
0.126597
0.125224
0.124268
0.12366
0.12328
0.122947
0.122387
0.121169
0.118483
0.112357
0.102514