/*--------------------------------*- C++ -*----------------------------------*\
| =========                 |                                                 |
| \\      /  F ield         | OpenFOAM: The Open Source CFD Toolbox           |
|  \\    /   O peration     | Version:  2312                                  |
|   \\  /    A nd           | Website:  www.openfoam.com                      |
|    \\/     M anipulation  |                                                 |
\*---------------------------------------------------------------------------*/
FoamFile
{
    version     2.0;
    format      ascii;
    arch        "LSB;label=32;scalar=64";
    class       volScalarField;
    location    "700";
    object      turbulenceProperties:nuEff;
}
// * * * * * * * * * * * * * * * * * * * * * * * * * * * * * * * * * * * * * //

dimensions      [0 2 -1 0 0 0 0];

internalField   nonuniform List<scalar> 
11040
(
4.81612e-05
6.48993e-05
2.51607e-05
5.9509e-05
0.000198743
0.00019095
0.000181288
0.000170976
0.000158458
0.000150566
0.000142618
0.000135677
0.000129423
0.000124622
0.000120536
0.000118522
0.000118575
0.000120517
0.000123906
0.000128562
0.000134577
0.000141738
0.000149755
0.000158421
0.000167813
0.000178906
0.000191689
0.000204224
0.00021593
0.00022623
0.000234479
0.000240042
0.000243765
0.000250027
0.000268882
0.000255436
0.000179601
0.00019169
0.000211046
0.000232311
0.000305461
1.42346e-05
4.72091e-05
6.59031e-05
0.000155425
0.000613868
0.000636027
0.000561522
0.000516551
0.000451229
0.000415169
0.000379073
0.000350869
0.000324197
0.000304325
0.000285646
0.000273115
0.000267601
0.000267302
0.000269648
0.000273645
0.000279514
0.000287349
0.000295565
0.00030298
0.000310398
0.000325154
0.000352612
0.000384712
0.000420891
0.000461278
0.00050609
0.000555635
0.000609295
0.000668882
0.000736662
0.000805598
0.000875806
0.000968581
0.00107927
0.00116916
0.00163311
1.55022e-05
1.9549e-05
4.02018e-05
7.65775e-05
0.000427551
0.000981053
0.00119682
0.00115292
0.00101182
0.000935461
0.000853637
0.000793418
0.000734117
0.000691511
0.000649976
0.000617096
0.00059206
0.000572932
0.000561852
0.00055778
0.00056224
0.000576202
0.000600404
0.000635694
0.00068218
0.000739711
0.000808051
0.000886737
0.000975396
0.00107345
0.00117986
0.00129381
0.00141547
0.00154548
0.00168496
0.00183409
0.00199961
0.00220307
0.00245144
0.0026965
0.00352851
1.64798e-05
1.51774e-05
2.07178e-05
2.13537e-05
0.000151784
0.00061367
0.00132466
0.00171977
0.00178588
0.00169116
0.00154806
0.00144961
0.00134532
0.00127002
0.00119563
0.00113426
0.00108912
0.00105335
0.00103208
0.00102356
0.00102972
0.00105351
0.00109747
0.00116276
0.00124889
0.00135477
0.00147948
0.00162207
0.00178162
0.00195716
0.00214716
0.00235027
0.00256547
0.00279309
0.00303409
0.00329165
0.00357938
0.00392651
0.00435326
0.00481865
0.00599822
1.62046e-05
1.57585e-05
1.64221e-05
1.53834e-05
1.50092e-05
0.000191267
0.000729607
0.00158569
0.00227251
0.00247689
0.00248409
0.0023738
0.00220972
0.00209548
0.00198243
0.0018815
0.00181064
0.00175236
0.00171673
0.00170187
0.00170812
0.001741
0.00180671
0.00190718
0.00204169
0.00220897
0.00240728
0.00263448
0.00288857
0.00316772
0.00346892
0.00378941
0.00412716
0.00448191
0.00485429
0.00524876
0.00568325
0.00620347
0.00684349
0.00758828
0.00908046
1.6094e-05
1.61849e-05
1.58963e-05
1.65926e-05
1.16528e-05
1.09662e-05
0.000187517
0.000753781
0.00174533
0.00275914
0.00322364
0.00338864
0.00337241
0.00326028
0.00308362
0.00292451
0.00281976
0.00273031
0.00267246
0.00264814
0.00265208
0.00269182
0.00278061
0.00292222
0.00311563
0.00335974
0.00365197
0.00398812
0.00436392
0.00477644
0.0052202
0.00568993
0.0061818
0.0066945
0.00722757
0.00778588
0.00839168
0.00910638
0.00998794
0.0110575
0.0128757
1.61045e-05
1.61379e-05
1.6011e-05
1.63622e-05
1.58972e-05
1.04001e-05
1.00042e-05
0.000135094
0.000683702
0.00174419
0.00305182
0.00398016
0.00435208
0.00449017
0.00447932
0.00437675
0.00422906
0.00408012
0.00398762
0.00394989
0.00394985
0.00399227
0.00410259
0.00428922
0.00455034
0.00488594
0.0052932
0.00576516
0.00629265
0.00687162
0.00749292
0.00814677
0.00882622
0.00952826
0.01025
0.0109953
0.0117905
0.0127087
0.0138446
0.0152628
0.0174545
1.61145e-05
1.61118e-05
1.61314e-05
1.60485e-05
1.65758e-05
1.60009e-05
1.00143e-05
1e-05
6.74138e-05
0.00053599
0.00155897
0.00307103
0.00453595
0.00533757
0.0056988
0.00583931
0.00586438
0.0058143
0.00574635
0.00569158
0.00569072
0.00574831
0.00588405
0.0061205
0.00645574
0.0068941
0.0074353
0.00807124
0.00878162
0.00956192
0.0103983
0.0112731
0.0121738
0.0130951
0.01403
0.0149779
0.0159683
0.0170825
0.0184565
0.0202104
0.0227868
1.61126e-05
1.61161e-05
1.61119e-05
1.61306e-05
1.59971e-05
1.71826e-05
1.53199e-05
1.00924e-05
1.0378e-05
1.09095e-05
0.000336285
0.00121695
0.00276764
0.00466242
0.0061777
0.00692863
0.00732638
0.00752803
0.00765073
0.00773361
0.00783296
0.00797481
0.00820051
0.00853817
0.00898877
0.00955229
0.0102368
0.011048
0.0119701
0.0129848
0.0140739
0.0152074
0.0163609
0.017527
0.0186933
0.0198477
0.0210225
0.0223082
0.0238547
0.0258738
0.0287755
1.61118e-05
1.61134e-05
1.6113e-05
1.61188e-05
1.6097e-05
1.60473e-05
1.7382e-05
1.48199e-05
1.04141e-05
1.00163e-05
3.64377e-05
0.000144985
0.000805947
0.00219433
0.00426337
0.00647548
0.00804024
0.00884513
0.00935734
0.00971989
0.010056
0.0104087
0.0108402
0.0113938
0.012089
0.0129259
0.0138941
0.014976
0.016154
0.0174271
0.0187962
0.0202176
0.0216424
0.0230616
0.0244638
0.0258091
0.0271289
0.0285281
0.0301403
0.0322687
0.0353231
1.61105e-05
1.61114e-05
1.61127e-05
1.61084e-05
1.61265e-05
1.60518e-05
1.61835e-05
1.70681e-05
1.58256e-05
1.12412e-05
1.00067e-05
1.07338e-05
1.05258e-05
0.00039504
0.0014568
0.00338417
0.0059576
0.00849808
0.0102285
0.0112293
0.0119984
0.012677
0.0133981
0.0142427
0.0152646
0.0164813
0.0178888
0.0194691
0.0211881
0.0229977
0.0248344
0.026625
0.0283296
0.0299874
0.0316229
0.0331231
0.0345017
0.0359282
0.0374804
0.0394362
0.0423047
1.6109e-05
1.61099e-05
1.61097e-05
1.61102e-05
1.6108e-05
1.61163e-05
1.606e-05
1.61747e-05
1.6783e-05
1.65243e-05
1.28097e-05
1.00013e-05
1.00016e-05
3.94838e-05
0.000118863
0.000758148
0.00224319
0.00469687
0.00779131
0.0107758
0.0128933
0.0142648
0.0154379
0.0166396
0.018012
0.0196186
0.0214752
0.0235793
0.025899
0.0283798
0.0309535
0.0335398
0.0360477
0.0383859
0.040436
0.0420769
0.0433718
0.0447298
0.0460658
0.0475656
0.0497998
1.61077e-05
1.61081e-05
1.6108e-05
1.61078e-05
1.61075e-05
1.61072e-05
1.61075e-05
1.60781e-05
1.61349e-05
1.65298e-05
1.70177e-05
1.42893e-05
1.01618e-05
1.00017e-05
1.01679e-05
0.000115836
0.000247097
0.00115018
0.00303555
0.00600341
0.00969741
0.0132573
0.0159221
0.0178766
0.0197275
0.0217473
0.0240124
0.0265763
0.0294267
0.0325076
0.0357485
0.039067
0.0423675
0.0455543
0.048525
0.0511655
0.0533773
0.0550784
0.0561654
0.0569649
0.0584209
1.61064e-05
1.61067e-05
1.61067e-05
1.61067e-05
1.61063e-05
1.61059e-05
1.61056e-05
1.61057e-05
1.60893e-05
1.60939e-05
1.63276e-05
1.71156e-05
1.59003e-05
1.14239e-05
1.00001e-05
1e-05
1.17121e-05
0.000187401
0.000377105
0.00148245
0.00370541
0.00700371
0.0109211
0.0149731
0.0186373
0.0217193
0.0245608
0.0275751
0.0308906
0.0344726
0.0382664
0.042204
0.0461839
0.0501078
0.0538736
0.0573821
0.0605425
0.0632931
0.0655629
0.0673208
0.0685992
1.61054e-05
1.61061e-05
1.61063e-05
1.61063e-05
1.61059e-05
1.61056e-05
1.61052e-05
1.61051e-05
1.61052e-05
1.60984e-05
1.60662e-05
1.62088e-05
1.68606e-05
1.67517e-05
1.43179e-05
1.02348e-05
1.00027e-05
1e-05
1.69453e-05
0.000234053
0.000441675
0.00157883
0.00362612
0.00663689
0.0104513
0.0148235
0.0194779
0.0241112
0.0285278
0.0327955
0.0371171
0.0415976
0.0461864
0.0507754
0.0552566
0.0595312
0.0635225
0.0671935
0.0704754
0.0733102
0.0756894
1.61045e-05
1.61058e-05
1.61058e-05
1.61055e-05
1.61052e-05
1.61048e-05
1.61045e-05
1.61041e-05
1.61041e-05
1.61049e-05
1.6101e-05
1.60655e-05
1.61419e-05
1.64314e-05
1.71422e-05
1.585e-05
1.28203e-05
1.00081e-05
1.00004e-05
1e-05
2.03293e-05
0.000207453
0.000266582
0.00104631
0.00251341
0.00480666
0.00795444
0.011919
0.0166221
0.0219535
0.0277332
0.0336828
0.0395208
0.0451089
0.0504369
0.0555285
0.0603802
0.0649788
0.0692578
0.0731447
0.0766096
1.61038e-05
1.61051e-05
1.61048e-05
1.61042e-05
1.61038e-05
1.61034e-05
1.61031e-05
1.61029e-05
1.61028e-05
1.61025e-05
1.61041e-05
1.60999e-05
1.60843e-05
1.60761e-05
1.62626e-05
1.66981e-05
1.71231e-05
1.50601e-05
1.14774e-05
1.00007e-05
1.00002e-05
1e-05
1.09907e-05
8.17498e-05
1.01223e-05
0.000332167
0.00102586
0.00226443
0.00419215
0.00687921
0.0103855
0.0147302
0.0198776
0.0257461
0.0321678
0.0388749
0.0455499
0.0519607
0.0579114
0.0632998
0.0681247
1.61029e-05
1.61039e-05
1.61036e-05
1.61031e-05
1.61027e-05
1.61023e-05
1.61021e-05
1.61019e-05
1.61018e-05
1.61016e-05
1.61016e-05
1.61025e-05
1.61014e-05
1.60921e-05
1.60698e-05
1.61274e-05
1.63676e-05
1.69769e-05
1.69658e-05
1.47022e-05
1.11037e-05
1.00005e-05
1.00002e-05
1e-05
1e-05
1.13994e-05
6.06622e-05
0.000192787
4.05916e-05
0.00035518
0.00103741
0.00219205
0.00390892
0.0063023
0.00943736
0.0133324
0.0179484
0.0232562
0.0291182
0.0353537
0.0417631
1.61017e-05
1.61024e-05
1.61019e-05
1.61013e-05
1.61008e-05
1.61005e-05
1.61003e-05
1.61002e-05
1.61001e-05
1.61002e-05
1.61001e-05
1.61002e-05
1.61004e-05
1.61016e-05
1.60954e-05
1.60842e-05
1.60679e-05
1.61878e-05
1.65227e-05
1.70475e-05
1.68157e-05
1.44358e-05
1.16574e-05
1.00149e-05
1.00007e-05
1e-05
1e-05
1e-05
1.00019e-05
1.12058e-05
5.07972e-05
0.000153335
0.000306918
0.00013665
0.000429017
0.0010794
0.00212943
0.00365874
0.00572254
0.00834061
0.0115836
1.61005e-05
1.61008e-05
1.61002e-05
1.60996e-05
1.60992e-05
1.60989e-05
1.60987e-05
1.60987e-05
1.60987e-05
1.60987e-05
1.60988e-05
1.60989e-05
1.60989e-05
1.60992e-05
1.60997e-05
1.6099e-05
1.60895e-05
1.60732e-05
1.60825e-05
1.62392e-05
1.66234e-05
1.70352e-05
1.69514e-05
1.5223e-05
1.26568e-05
1.08416e-05
1.0007e-05
1.00005e-05
1e-05
1e-05
1e-05
1e-05
1e-05
1.00235e-05
1.15798e-05
4.34104e-05
0.000127205
0.000232043
0.000360151
1.00835e-05
0.000413156
1.60992e-05
1.60993e-05
1.60987e-05
1.60981e-05
1.60978e-05
1.60977e-05
1.60976e-05
1.60977e-05
1.60977e-05
1.60978e-05
1.60979e-05
1.6098e-05
1.60981e-05
1.60982e-05
1.60984e-05
1.60987e-05
1.60992e-05
1.60956e-05
1.6082e-05
1.60664e-05
1.60947e-05
1.62696e-05
1.65719e-05
1.70321e-05
1.70603e-05
1.6558e-05
1.49624e-05
1.28643e-05
1.12184e-05
1.03332e-05
1.00015e-05
1.00002e-05
1e-05
1e-05
1e-05
1e-05
1e-05
1e-05
1e-05
1e-05
1.07668e-05
1.60978e-05
1.60978e-05
1.60973e-05
1.6097e-05
1.60969e-05
1.60969e-05
1.6097e-05
1.60971e-05
1.60973e-05
1.60974e-05
1.60976e-05
1.60977e-05
1.60978e-05
1.60979e-05
1.6098e-05
1.60981e-05
1.60984e-05
1.60989e-05
1.60984e-05
1.60926e-05
1.60762e-05
1.60676e-05
1.60891e-05
1.62129e-05
1.64475e-05
1.6734e-05
1.70979e-05
1.71725e-05
1.67738e-05
1.59969e-05
1.45853e-05
1.29691e-05
1.15799e-05
1.06516e-05
1.01846e-05
1.00042e-05
1.00003e-05
1e-05
1e-05
1e-05
1e-05
1.60965e-05
1.60966e-05
1.60963e-05
1.60963e-05
1.60964e-05
1.60966e-05
1.60968e-05
1.60971e-05
1.60973e-05
1.60976e-05
1.60977e-05
1.60979e-05
1.6098e-05
1.60981e-05
1.60982e-05
1.60983e-05
1.60983e-05
1.60984e-05
1.60989e-05
1.60994e-05
1.60978e-05
1.60909e-05
1.60782e-05
1.60655e-05
1.60765e-05
1.61238e-05
1.62459e-05
1.6448e-05
1.66993e-05
1.69424e-05
1.72031e-05
1.72569e-05
1.70251e-05
1.6484e-05
1.57271e-05
1.46751e-05
1.34989e-05
1.23722e-05
1.14763e-05
1.07726e-05
1.03163e-05
1.60953e-05
1.60955e-05
1.60956e-05
1.60959e-05
1.60963e-05
1.60967e-05
1.60971e-05
1.60974e-05
1.60977e-05
1.6098e-05
1.60982e-05
1.60984e-05
1.60986e-05
1.60987e-05
1.60988e-05
1.60989e-05
1.6099e-05
1.6099e-05
1.60991e-05
1.60992e-05
1.60998e-05
1.60999e-05
1.60986e-05
1.60933e-05
1.60838e-05
1.60724e-05
1.60641e-05
1.60714e-05
1.61093e-05
1.6181e-05
1.63025e-05
1.64704e-05
1.66684e-05
1.68748e-05
1.70594e-05
1.72362e-05
1.73195e-05
1.72577e-05
1.70378e-05
1.66449e-05
1.61486e-05
1.60943e-05
1.60948e-05
1.60953e-05
1.60958e-05
1.60964e-05
1.6097e-05
1.60975e-05
1.60979e-05
1.60983e-05
1.60986e-05
1.60989e-05
1.60991e-05
1.60993e-05
1.60995e-05
1.60996e-05
1.60997e-05
1.60998e-05
1.60999e-05
1.61e-05
1.61e-05
1.61001e-05
1.61003e-05
1.61007e-05
1.6101e-05
1.61004e-05
1.6098e-05
1.60925e-05
1.60837e-05
1.60733e-05
1.60649e-05
1.6062e-05
1.60706e-05
1.60962e-05
1.61438e-05
1.62131e-05
1.63079e-05
1.64262e-05
1.65655e-05
1.67158e-05
1.68694e-05
1.70078e-05
1.60934e-05
1.60944e-05
1.60952e-05
1.6096e-05
1.60967e-05
1.60974e-05
1.6098e-05
1.60985e-05
1.60989e-05
1.60993e-05
1.60996e-05
1.60999e-05
1.61001e-05
1.61003e-05
1.61005e-05
1.61006e-05
1.61008e-05
1.61009e-05
1.6101e-05
1.6101e-05
1.61011e-05
1.61012e-05
1.61013e-05
1.61015e-05
1.61018e-05
1.61022e-05
1.61023e-05
1.61018e-05
1.60998e-05
1.6096e-05
1.60903e-05
1.60829e-05
1.60746e-05
1.6067e-05
1.60617e-05
1.60604e-05
1.60647e-05
1.60773e-05
1.60992e-05
1.61339e-05
1.61731e-05
1.60929e-05
1.60942e-05
1.60953e-05
1.60963e-05
1.60971e-05
1.60978e-05
1.60984e-05
1.6099e-05
1.60994e-05
1.60999e-05
1.61002e-05
1.61005e-05
1.61008e-05
1.61011e-05
1.61013e-05
1.61015e-05
1.61016e-05
1.61018e-05
1.61019e-05
1.61021e-05
1.61022e-05
1.61023e-05
1.61024e-05
1.61025e-05
1.61025e-05
1.61027e-05
1.61029e-05
1.61032e-05
1.61036e-05
1.61038e-05
1.61037e-05
1.61031e-05
1.61016e-05
1.60992e-05
1.60957e-05
1.60913e-05
1.6086e-05
1.60801e-05
1.6074e-05
1.60684e-05
1.60638e-05
1.60925e-05
1.60942e-05
1.60955e-05
1.60965e-05
1.60974e-05
1.60981e-05
1.60988e-05
1.60994e-05
1.60999e-05
1.61004e-05
1.61008e-05
1.61011e-05
1.61015e-05
1.61018e-05
1.6102e-05
1.61022e-05
1.61025e-05
1.61027e-05
1.61028e-05
1.6103e-05
1.61032e-05
1.61033e-05
1.61035e-05
1.61036e-05
1.61037e-05
1.61038e-05
1.61039e-05
1.6104e-05
1.61041e-05
1.61043e-05
1.61045e-05
1.61048e-05
1.61051e-05
1.61054e-05
1.61055e-05
1.61054e-05
1.61051e-05
1.61044e-05
1.61033e-05
1.61016e-05
1.60999e-05
1.60923e-05
1.60942e-05
1.60956e-05
1.60967e-05
1.60976e-05
1.60984e-05
1.60991e-05
1.60997e-05
1.61003e-05
1.61008e-05
1.61013e-05
1.61017e-05
1.6102e-05
1.61024e-05
1.61027e-05
1.6103e-05
1.61032e-05
1.61034e-05
1.61037e-05
1.61039e-05
1.61041e-05
1.61043e-05
1.61045e-05
1.61046e-05
1.61048e-05
1.61049e-05
1.6105e-05
1.61051e-05
1.61052e-05
1.61053e-05
1.61054e-05
1.61056e-05
1.61057e-05
1.61059e-05
1.61061e-05
1.61063e-05
1.61065e-05
1.61068e-05
1.61071e-05
1.61073e-05
1.61075e-05
1.60923e-05
1.60943e-05
1.60957e-05
1.60968e-05
1.60978e-05
1.60986e-05
1.60993e-05
1.61e-05
1.61006e-05
1.61012e-05
1.61017e-05
1.61021e-05
1.61025e-05
1.61029e-05
1.61033e-05
1.61036e-05
1.61039e-05
1.61042e-05
1.61044e-05
1.61047e-05
1.61049e-05
1.61052e-05
1.61054e-05
1.61056e-05
1.61058e-05
1.61059e-05
1.61061e-05
1.61062e-05
1.61064e-05
1.61065e-05
1.61067e-05
1.61068e-05
1.61069e-05
1.6107e-05
1.61071e-05
1.61073e-05
1.61074e-05
1.61076e-05
1.61077e-05
1.61079e-05
1.61081e-05
1.60923e-05
1.60942e-05
1.60957e-05
1.60968e-05
1.60978e-05
1.60987e-05
1.60995e-05
1.61002e-05
1.61008e-05
1.61014e-05
1.6102e-05
1.61025e-05
1.61029e-05
1.61034e-05
1.61038e-05
1.61041e-05
1.61045e-05
1.61048e-05
1.61051e-05
1.61054e-05
1.61057e-05
1.6106e-05
1.61062e-05
1.61064e-05
1.61067e-05
1.61069e-05
1.61071e-05
1.61073e-05
1.61074e-05
1.61076e-05
1.61078e-05
1.6108e-05
1.61081e-05
1.61083e-05
1.61084e-05
1.61086e-05
1.61087e-05
1.61089e-05
1.61091e-05
1.61092e-05
1.61094e-05
1.60921e-05
1.60941e-05
1.60956e-05
1.60967e-05
1.60977e-05
1.60986e-05
1.60995e-05
1.61002e-05
1.61009e-05
1.61016e-05
1.61022e-05
1.61028e-05
1.61033e-05
1.61037e-05
1.61042e-05
1.61046e-05
1.6105e-05
1.61054e-05
1.61057e-05
1.61061e-05
1.61064e-05
1.61067e-05
1.6107e-05
1.61073e-05
1.61075e-05
1.61078e-05
1.6108e-05
1.61082e-05
1.61084e-05
1.61086e-05
1.61088e-05
1.6109e-05
1.61092e-05
1.61094e-05
1.61096e-05
1.61098e-05
1.611e-05
1.61102e-05
1.61104e-05
1.61106e-05
1.61108e-05
1.6092e-05
1.60939e-05
1.60953e-05
1.60965e-05
1.60976e-05
1.60985e-05
1.60994e-05
1.61002e-05
1.6101e-05
1.61017e-05
1.61023e-05
1.61029e-05
1.61035e-05
1.61041e-05
1.61046e-05
1.6105e-05
1.61055e-05
1.61059e-05
1.61063e-05
1.61066e-05
1.6107e-05
1.61074e-05
1.61077e-05
1.6108e-05
1.61083e-05
1.61086e-05
1.61089e-05
1.61091e-05
1.61094e-05
1.61096e-05
1.61098e-05
1.61101e-05
1.61103e-05
1.61105e-05
1.61107e-05
1.6111e-05
1.61112e-05
1.61114e-05
1.61116e-05
1.61119e-05
1.61121e-05
1.60917e-05
1.60936e-05
1.6095e-05
1.60962e-05
1.60973e-05
1.60983e-05
1.60992e-05
1.61001e-05
1.61009e-05
1.61017e-05
1.61024e-05
1.61031e-05
1.61037e-05
1.61043e-05
1.61048e-05
1.61054e-05
1.61059e-05
1.61063e-05
1.61068e-05
1.61072e-05
1.61076e-05
1.6108e-05
1.61084e-05
1.61087e-05
1.6109e-05
1.61094e-05
1.61097e-05
1.61099e-05
1.61102e-05
1.61105e-05
1.61108e-05
1.6111e-05
1.61113e-05
1.61115e-05
1.61118e-05
1.6112e-05
1.61123e-05
1.61125e-05
1.61128e-05
1.6113e-05
1.61133e-05
1.60913e-05
1.60931e-05
1.60945e-05
1.60957e-05
1.60968e-05
1.60979e-05
1.60989e-05
1.60998e-05
1.61007e-05
1.61015e-05
1.61023e-05
1.61031e-05
1.61038e-05
1.61044e-05
1.6105e-05
1.61056e-05
1.61062e-05
1.61067e-05
1.61072e-05
1.61077e-05
1.61081e-05
1.61086e-05
1.6109e-05
1.61094e-05
1.61097e-05
1.61101e-05
1.61104e-05
1.61107e-05
1.6111e-05
1.61113e-05
1.61116e-05
1.61119e-05
1.61122e-05
1.61125e-05
1.61128e-05
1.6113e-05
1.61133e-05
1.61136e-05
1.61139e-05
1.61141e-05
1.61144e-05
1.60907e-05
1.60926e-05
1.60939e-05
1.60952e-05
1.60963e-05
1.60974e-05
1.60984e-05
1.60994e-05
1.61004e-05
1.61013e-05
1.61022e-05
1.6103e-05
1.61037e-05
1.61045e-05
1.61051e-05
1.61058e-05
1.61064e-05
1.6107e-05
1.61075e-05
1.6108e-05
1.61086e-05
1.6109e-05
1.61095e-05
1.61099e-05
1.61103e-05
1.61107e-05
1.61111e-05
1.61115e-05
1.61118e-05
1.61121e-05
1.61125e-05
1.61128e-05
1.61131e-05
1.61134e-05
1.61137e-05
1.6114e-05
1.61143e-05
1.61146e-05
1.61149e-05
1.61151e-05
1.61154e-05
1.60901e-05
1.60918e-05
1.60932e-05
1.60944e-05
1.60956e-05
1.60967e-05
1.60978e-05
1.60989e-05
1.60999e-05
1.61009e-05
1.61018e-05
1.61027e-05
1.61036e-05
1.61044e-05
1.61051e-05
1.61058e-05
1.61065e-05
1.61071e-05
1.61077e-05
1.61083e-05
1.61089e-05
1.61094e-05
1.61099e-05
1.61104e-05
1.61108e-05
1.61113e-05
1.61117e-05
1.61121e-05
1.61124e-05
1.61128e-05
1.61132e-05
1.61135e-05
1.61138e-05
1.61142e-05
1.61145e-05
1.61148e-05
1.61151e-05
1.61154e-05
1.61158e-05
1.61161e-05
1.61164e-05
1.60893e-05
1.60909e-05
1.60923e-05
1.60935e-05
1.60947e-05
1.60959e-05
1.60971e-05
1.60982e-05
1.60993e-05
1.61003e-05
1.61013e-05
1.61023e-05
1.61032e-05
1.6104e-05
1.61049e-05
1.61056e-05
1.61064e-05
1.61071e-05
1.61078e-05
1.61084e-05
1.6109e-05
1.61096e-05
1.61102e-05
1.61107e-05
1.61112e-05
1.61116e-05
1.61121e-05
1.61125e-05
1.61129e-05
1.61133e-05
1.61137e-05
1.61141e-05
1.61145e-05
1.61148e-05
1.61151e-05
1.61155e-05
1.61158e-05
1.61161e-05
1.61165e-05
1.61168e-05
1.61171e-05
1.60883e-05
1.60899e-05
1.60912e-05
1.60925e-05
1.60937e-05
1.60949e-05
1.60961e-05
1.60972e-05
1.60984e-05
1.60995e-05
1.61005e-05
1.61015e-05
1.61025e-05
1.61035e-05
1.61044e-05
1.61052e-05
1.6106e-05
1.61068e-05
1.61075e-05
1.61082e-05
1.61089e-05
1.61096e-05
1.61102e-05
1.61107e-05
1.61113e-05
1.61118e-05
1.61123e-05
1.61127e-05
1.61132e-05
1.61136e-05
1.6114e-05
1.61144e-05
1.61148e-05
1.61152e-05
1.61156e-05
1.61159e-05
1.61163e-05
1.61166e-05
1.61169e-05
1.61173e-05
1.61176e-05
1.60871e-05
1.60886e-05
1.60899e-05
1.60912e-05
1.60924e-05
1.60936e-05
1.60948e-05
1.6096e-05
1.60972e-05
1.60983e-05
1.60994e-05
1.61005e-05
1.61015e-05
1.61026e-05
1.61035e-05
1.61044e-05
1.61053e-05
1.61062e-05
1.6107e-05
1.61077e-05
1.61085e-05
1.61092e-05
1.61098e-05
1.61105e-05
1.61111e-05
1.61116e-05
1.61121e-05
1.61126e-05
1.61131e-05
1.61136e-05
1.6114e-05
1.61145e-05
1.61149e-05
1.61153e-05
1.61156e-05
1.6116e-05
1.61164e-05
1.61167e-05
1.61171e-05
1.61174e-05
1.61177e-05
1.60858e-05
1.60872e-05
1.60884e-05
1.60896e-05
1.60908e-05
1.6092e-05
1.60932e-05
1.60944e-05
1.60956e-05
1.60968e-05
1.60979e-05
1.60991e-05
1.61002e-05
1.61013e-05
1.61023e-05
1.61033e-05
1.61042e-05
1.61051e-05
1.6106e-05
1.61068e-05
1.61076e-05
1.61084e-05
1.61091e-05
1.61098e-05
1.61104e-05
1.6111e-05
1.61116e-05
1.61121e-05
1.61126e-05
1.61131e-05
1.61136e-05
1.61141e-05
1.61145e-05
1.61149e-05
1.61153e-05
1.61157e-05
1.61161e-05
1.61164e-05
1.61168e-05
1.61171e-05
1.61175e-05
1.60842e-05
1.60855e-05
1.60867e-05
1.60878e-05
1.6089e-05
1.60901e-05
1.60913e-05
1.60925e-05
1.60937e-05
1.60949e-05
1.60961e-05
1.60972e-05
1.60984e-05
1.60995e-05
1.61006e-05
1.61017e-05
1.61027e-05
1.61037e-05
1.61046e-05
1.61055e-05
1.61064e-05
1.61072e-05
1.61079e-05
1.61087e-05
1.61093e-05
1.611e-05
1.61106e-05
1.61112e-05
1.61117e-05
1.61123e-05
1.61127e-05
1.61132e-05
1.61137e-05
1.61141e-05
1.61145e-05
1.61149e-05
1.61153e-05
1.61156e-05
1.6116e-05
1.61163e-05
1.61166e-05
1.60824e-05
1.60836e-05
1.60847e-05
1.60857e-05
1.60868e-05
1.60879e-05
1.6089e-05
1.60901e-05
1.60913e-05
1.60925e-05
1.60937e-05
1.60949e-05
1.60961e-05
1.60973e-05
1.60985e-05
1.60996e-05
1.61007e-05
1.61017e-05
1.61027e-05
1.61036e-05
1.61045e-05
1.61054e-05
1.61062e-05
1.6107e-05
1.61077e-05
1.61084e-05
1.6109e-05
1.61096e-05
1.61102e-05
1.61108e-05
1.61113e-05
1.61118e-05
1.61122e-05
1.61127e-05
1.61131e-05
1.61135e-05
1.61139e-05
1.61143e-05
1.61147e-05
1.6115e-05
1.61153e-05
1.60804e-05
1.60814e-05
1.60824e-05
1.60833e-05
1.60842e-05
1.60852e-05
1.60863e-05
1.60874e-05
1.60885e-05
1.60897e-05
1.60909e-05
1.60921e-05
1.60933e-05
1.60945e-05
1.60957e-05
1.60969e-05
1.6098e-05
1.60991e-05
1.61001e-05
1.61011e-05
1.61021e-05
1.6103e-05
1.61039e-05
1.61047e-05
1.61055e-05
1.61062e-05
1.61069e-05
1.61076e-05
1.61082e-05
1.61088e-05
1.61093e-05
1.61098e-05
1.61103e-05
1.61108e-05
1.61112e-05
1.61116e-05
1.6112e-05
1.61123e-05
1.61127e-05
1.6113e-05
1.61133e-05
1.60781e-05
1.6079e-05
1.60797e-05
1.60805e-05
1.60813e-05
1.60822e-05
1.60831e-05
1.60841e-05
1.60852e-05
1.60863e-05
1.60875e-05
1.60887e-05
1.60899e-05
1.60911e-05
1.60923e-05
1.60934e-05
1.60946e-05
1.60957e-05
1.60968e-05
1.60978e-05
1.60988e-05
1.60998e-05
1.61007e-05
1.61015e-05
1.61023e-05
1.61031e-05
1.61038e-05
1.61044e-05
1.61051e-05
1.61057e-05
1.61062e-05
1.61068e-05
1.61073e-05
1.61077e-05
1.61082e-05
1.61086e-05
1.6109e-05
1.61094e-05
1.61097e-05
1.61101e-05
1.61104e-05
1.60755e-05
1.60761e-05
1.60767e-05
1.60773e-05
1.6078e-05
1.60787e-05
1.60795e-05
1.60804e-05
1.60814e-05
1.60824e-05
1.60834e-05
1.60845e-05
1.60856e-05
1.60867e-05
1.60879e-05
1.6089e-05
1.60901e-05
1.60912e-05
1.60923e-05
1.60934e-05
1.60944e-05
1.60954e-05
1.60964e-05
1.60973e-05
1.60982e-05
1.6099e-05
1.60998e-05
1.61005e-05
1.61012e-05
1.61019e-05
1.61025e-05
1.61031e-05
1.61036e-05
1.61041e-05
1.61045e-05
1.6105e-05
1.61054e-05
1.61058e-05
1.61061e-05
1.61064e-05
1.61067e-05
1.60726e-05
1.6073e-05
1.60734e-05
1.60738e-05
1.60743e-05
1.60748e-05
1.60754e-05
1.60761e-05
1.60768e-05
1.60776e-05
1.60784e-05
1.60793e-05
1.60802e-05
1.60812e-05
1.60824e-05
1.60835e-05
1.60847e-05
1.60859e-05
1.6087e-05
1.60881e-05
1.60892e-05
1.60902e-05
1.60911e-05
1.6092e-05
1.60929e-05
1.60937e-05
1.60945e-05
1.60952e-05
1.60959e-05
1.60965e-05
1.60971e-05
1.60977e-05
1.60982e-05
1.60987e-05
1.60991e-05
1.60996e-05
1.61e-05
1.61004e-05
1.61007e-05
1.6101e-05
1.61014e-05
1.60693e-05
1.60695e-05
1.60696e-05
1.60698e-05
1.607e-05
1.60702e-05
1.60705e-05
1.60708e-05
1.60711e-05
1.60715e-05
1.60719e-05
1.60723e-05
1.60727e-05
1.60731e-05
1.60735e-05
1.60739e-05
1.60743e-05
1.60747e-05
1.60751e-05
1.60755e-05
1.6076e-05
1.60764e-05
1.60769e-05
1.60775e-05
1.6078e-05
1.60785e-05
1.60791e-05
1.60796e-05
1.60802e-05
1.60807e-05
1.60812e-05
1.60817e-05
1.60822e-05
1.60827e-05
1.60831e-05
1.60835e-05
1.60839e-05
1.60843e-05
1.60846e-05
1.60849e-05
1.60853e-05
0.0037233
0.00718803
0.00996941
0.0116538
0.0123449
0.0122665
0.0115606
0.0102722
0.00833289
0.00564155
0.00245231
0.000278378
2.16849e-05
1.00145e-05
1.41021e-05
1.73791e-05
1.62675e-05
1.60476e-05
1.61085e-05
1.61093e-05
1.61044e-05
1.61053e-05
1.61043e-05
1.6102e-05
1.60997e-05
1.60976e-05
1.60958e-05
1.60945e-05
1.60936e-05
1.6093e-05
1.60926e-05
1.60923e-05
1.60921e-05
1.6092e-05
1.60918e-05
1.60915e-05
1.60913e-05
1.6091e-05
1.60908e-05
1.60906e-05
1.60905e-05
1.60903e-05
1.60901e-05
1.60899e-05
1.60896e-05
1.60894e-05
1.6089e-05
1.60887e-05
1.60882e-05
1.60878e-05
1.60872e-05
1.60866e-05
1.60859e-05
1.60851e-05
1.60842e-05
1.60832e-05
1.60821e-05
1.60809e-05
1.60797e-05
1.60785e-05
1.60773e-05
1.60762e-05
1.60752e-05
1.60744e-05
1.60739e-05
1.6074e-05
1.60748e-05
1.60765e-05
1.60791e-05
1.60826e-05
1.60867e-05
1.60915e-05
1.60955e-05
1.61049e-05
0.00632893
0.010946
0.0142511
0.0161003
0.0168086
0.016706
0.0159799
0.0146741
0.012721
0.0100028
0.00645029
0.00257277
0.000203315
1.44147e-05
1.00236e-05
1.41951e-05
1.73812e-05
1.62328e-05
1.60284e-05
1.61148e-05
1.61133e-05
1.61016e-05
1.61028e-05
1.61028e-05
1.61002e-05
1.60978e-05
1.6096e-05
1.60947e-05
1.60938e-05
1.60933e-05
1.6093e-05
1.60928e-05
1.60926e-05
1.60924e-05
1.60923e-05
1.60921e-05
1.60918e-05
1.60916e-05
1.60914e-05
1.60912e-05
1.6091e-05
1.60909e-05
1.60907e-05
1.60905e-05
1.60902e-05
1.60899e-05
1.60896e-05
1.60892e-05
1.60888e-05
1.60884e-05
1.60878e-05
1.60872e-05
1.60866e-05
1.60858e-05
1.60849e-05
1.60838e-05
1.60827e-05
1.60815e-05
1.60803e-05
1.6079e-05
1.60778e-05
1.60766e-05
1.60755e-05
1.60746e-05
1.60741e-05
1.6074e-05
1.60747e-05
1.60762e-05
1.60788e-05
1.60823e-05
1.60864e-05
1.60912e-05
1.60952e-05
1.61045e-05
0.00882677
0.0148632
0.0188944
0.0210155
0.021801
0.0216959
0.0209442
0.0196168
0.0176631
0.0149828
0.0114725
0.00713161
0.00267216
0.000148012
1.37049e-05
1.00235e-05
1.33245e-05
1.76338e-05
1.63459e-05
1.59623e-05
1.61141e-05
1.61392e-05
1.61079e-05
1.6099e-05
1.60998e-05
1.60985e-05
1.60963e-05
1.6095e-05
1.60944e-05
1.60939e-05
1.60935e-05
1.60933e-05
1.60931e-05
1.6093e-05
1.60928e-05
1.60927e-05
1.60925e-05
1.60922e-05
1.6092e-05
1.60918e-05
1.60917e-05
1.60915e-05
1.60913e-05
1.60911e-05
1.60908e-05
1.60905e-05
1.60902e-05
1.60899e-05
1.60894e-05
1.6089e-05
1.60885e-05
1.60879e-05
1.60872e-05
1.60864e-05
1.60855e-05
1.60845e-05
1.60834e-05
1.60821e-05
1.60809e-05
1.60796e-05
1.60783e-05
1.6077e-05
1.60759e-05
1.60749e-05
1.60742e-05
1.6074e-05
1.60745e-05
1.60759e-05
1.60784e-05
1.60819e-05
1.6086e-05
1.60908e-05
1.60948e-05
1.61042e-05
0.0112991
0.0189739
0.0238722
0.0263857
0.0273424
0.0272942
0.0265446
0.025206
0.0232569
0.0206159
0.0171969
0.0129261
0.00784766
0.00287357
0.000145525
2.50019e-05
1.00171e-05
1.16022e-05
1.79235e-05
1.69303e-05
1.58978e-05
1.59917e-05
1.61308e-05
1.6121e-05
1.60984e-05
1.60961e-05
1.60971e-05
1.60959e-05
1.60948e-05
1.60944e-05
1.60942e-05
1.6094e-05
1.60938e-05
1.60936e-05
1.60935e-05
1.60933e-05
1.60931e-05
1.60929e-05
1.60927e-05
1.60925e-05
1.60923e-05
1.60921e-05
1.60919e-05
1.60917e-05
1.60914e-05
1.60912e-05
1.60908e-05
1.60905e-05
1.60901e-05
1.60896e-05
1.60891e-05
1.60885e-05
1.60879e-05
1.60871e-05
1.60862e-05
1.60852e-05
1.6084e-05
1.60828e-05
1.60815e-05
1.60801e-05
1.60788e-05
1.60775e-05
1.60762e-05
1.60751e-05
1.60743e-05
1.60739e-05
1.60743e-05
1.60756e-05
1.6078e-05
1.60815e-05
1.60856e-05
1.60905e-05
1.60945e-05
1.61038e-05
0.0139226
0.0233415
0.0291389
0.0321545
0.0334008
0.0335036
0.0328193
0.031508
0.0295865
0.0269968
0.0236665
0.0195371
0.014543
0.00878545
0.00329492
0.000241672
9.04797e-05
1.00066e-05
1.01209e-05
1.59792e-05
1.78824e-05
1.62554e-05
1.59109e-05
1.60782e-05
1.61317e-05
1.61046e-05
1.6092e-05
1.60948e-05
1.60967e-05
1.60957e-05
1.60947e-05
1.60945e-05
1.60946e-05
1.60945e-05
1.60943e-05
1.60941e-05
1.60939e-05
1.60937e-05
1.60935e-05
1.60932e-05
1.6093e-05
1.60928e-05
1.60926e-05
1.60923e-05
1.60921e-05
1.60918e-05
1.60915e-05
1.60911e-05
1.60907e-05
1.60903e-05
1.60898e-05
1.60892e-05
1.60885e-05
1.60878e-05
1.60869e-05
1.60858e-05
1.60847e-05
1.60834e-05
1.60821e-05
1.60807e-05
1.60793e-05
1.60779e-05
1.60766e-05
1.60754e-05
1.60744e-05
1.60739e-05
1.60741e-05
1.60753e-05
1.60776e-05
1.60811e-05
1.60852e-05
1.60901e-05
1.60941e-05
1.61033e-05
0.0173652
0.0280346
0.0346317
0.0382332
0.0398944
0.0402676
0.0397457
0.0385329
0.0366893
0.0341865
0.0309654
0.0269783
0.0221794
0.0165137
0.0101239
0.0040672
0.000501465
0.000223777
1.00003e-05
1.00315e-05
1.27453e-05
1.80635e-05
1.69694e-05
1.59145e-05
1.59565e-05
1.61204e-05
1.61298e-05
1.6098e-05
1.60904e-05
1.60955e-05
1.60978e-05
1.60965e-05
1.60951e-05
1.60948e-05
1.6095e-05
1.6095e-05
1.60948e-05
1.60945e-05
1.60942e-05
1.6094e-05
1.60938e-05
1.60935e-05
1.60933e-05
1.6093e-05
1.60928e-05
1.60925e-05
1.60922e-05
1.60918e-05
1.60914e-05
1.6091e-05
1.60905e-05
1.60899e-05
1.60892e-05
1.60884e-05
1.60875e-05
1.60865e-05
1.60854e-05
1.60841e-05
1.60827e-05
1.60813e-05
1.60799e-05
1.60784e-05
1.6077e-05
1.60757e-05
1.60746e-05
1.60739e-05
1.60739e-05
1.6075e-05
1.60772e-05
1.60807e-05
1.60848e-05
1.60897e-05
1.60937e-05
1.61028e-05
0.0221081
0.0330731
0.0402848
0.0445111
0.0466962
0.0474677
0.0472303
0.0462197
0.0445361
0.0421847
0.0391246
0.035313
0.0307189
0.0253058
0.019029
0.0120458
0.0053512
0.00105653
0.000466356
1e-05
1.00119e-05
1.05164e-05
1.63303e-05
1.81438e-05
1.64132e-05
1.58286e-05
1.59961e-05
1.61354e-05
1.61283e-05
1.60955e-05
1.60889e-05
1.60953e-05
1.60988e-05
1.60978e-05
1.6096e-05
1.60953e-05
1.60953e-05
1.60954e-05
1.60952e-05
1.60949e-05
1.60945e-05
1.60943e-05
1.6094e-05
1.60938e-05
1.60935e-05
1.60932e-05
1.60929e-05
1.60925e-05
1.60921e-05
1.60917e-05
1.60912e-05
1.60906e-05
1.60899e-05
1.60892e-05
1.60883e-05
1.60872e-05
1.60861e-05
1.60848e-05
1.60834e-05
1.60819e-05
1.60804e-05
1.60789e-05
1.60774e-05
1.6076e-05
1.60748e-05
1.60739e-05
1.60738e-05
1.60747e-05
1.60768e-05
1.60802e-05
1.60844e-05
1.60892e-05
1.60933e-05
1.61023e-05
0.0277513
0.0384088
0.0460312
0.0508561
0.0536344
0.0549205
0.0550998
0.0544198
0.0530095
0.0509058
0.0480902
0.0445272
0.0401884
0.0350546
0.0290966
0.0222781
0.0147412
0.00734685
0.00220002
0.00084088
5.86955e-05
1.00012e-05
1.00317e-05
1.25379e-05
1.824e-05
1.77035e-05
1.61063e-05
1.5791e-05
1.60055e-05
1.6141e-05
1.61321e-05
1.60956e-05
1.60856e-05
1.60925e-05
1.60986e-05
1.60992e-05
1.60972e-05
1.60957e-05