/*--------------------------------*- C++ -*----------------------------------*\
| =========                 |                                                 |
| \\      /  F ield         | OpenFOAM: The Open Source CFD Toolbox           |
|  \\    /   O peration     | Version:  2312                                  |
|   \\  /    A nd           | Website:  www.openfoam.com                      |
|    \\/     M anipulation  |                                                 |
\*---------------------------------------------------------------------------*/
FoamFile
{
    version     2.0;
    format      ascii;
    arch        "LSB;label=32;scalar=64";
    class       volScalarField;
    location    "700";
    object      turbulenceProperties:k;
}
// * * * * * * * * * * * * * * * * * * * * * * * * * * * * * * * * * * * * * //

dimensions      [0 2 -2 0 0 0 0];

internalField   nonuniform List<scalar> 
11040
(
0.405001
0.440658
0.0689935
0.0473831
0.277793
0.283444
0.268648
0.245033
0.220889
0.20559
0.191532
0.179311
0.169362
0.161926
0.15604
0.153386
0.153734
0.157125
0.163135
0.171701
0.183137
0.197076
0.213489
0.232608
0.254405
0.279812
0.30817
0.335326
0.358715
0.375453
0.382483
0.377238
0.36063
0.337574
0.317606
0.247679
0.128173
0.0776548
0.0318631
0.120257
0.228363
0.0337558
0.0700919
0.236258
0.426843
0.810551
0.265859
0.082621
0.0277243
0.00666995
0.00653192
0.0144586
0.0189454
0.0218802
0.0240147
0.0254107
0.0268134
0.028602
0.0306326
0.0326689
0.0347344
0.036886
0.0392436
0.0411594
0.0419293
0.0413353
0.0401369
0.038815
0.0363629
0.0328429
0.02886
0.025786
0.0253477
0.025898
0.0290574
0.0355033
0.0454324
0.0596439
0.0780881
0.122815
0.143932
0.542249
0.0207654
0.018589
0.0416948
0.180765
0.951377
1.26742
0.648745
0.245353
0.115186
0.068763
0.0385408
0.0217651
0.0103788
0.00290771
0.00379552
0.00736972
0.00991957
0.0118466
0.0132485
0.0142036
0.0148312
0.0151386
0.0147566
0.0135343
0.0117294
0.00968684
0.00751835
0.00496103
0.00153759
0.00369527
0.0111191
0.0217012
0.0361867
0.0548843
0.078533
0.108607
0.146739
0.190306
0.283093
0.372944
0.531678
0.0149075
0.0128089
0.0105107
0.0167944
0.230494
1.10697
1.63899
1.08905
0.453545
0.243724
0.145088
0.0975729
0.0688866
0.049154
0.036756
0.0280607
0.0227102
0.019261
0.0173582
0.016688
0.0168193
0.017733
0.0195633
0.0221545
0.024857
0.0271408
0.0285697
0.0288291
0.0279954
0.0274359
0.0308414
0.0423193
0.0630575
0.0934347
0.134045
0.187132
0.255325
0.333897
0.474257
0.655878
0.589675
0.0111113
0.0100271
0.0107048
0.00526823
0.00736375
0.206355
1.05689
1.85736
1.5837
0.789057
0.41905
0.253105
0.175823
0.12763
0.0994879
0.0797247
0.067622
0.0596097
0.0548489
0.0525193
0.0516483
0.0519082
0.0533813
0.0559996
0.0589373
0.0615268
0.0631544
0.063283
0.0617686
0.0596167
0.0603863
0.0708003
0.0968044
0.14005
0.200594
0.280664
0.383638
0.505025
0.682591
0.961765
0.787647
0.0080202
0.00736459
0.00718433
0.00794101
0.00238308
0.00184083
0.140437
0.849899
1.89407
2.02967
1.30646
0.666532
0.414188
0.279651
0.207985
0.162066
0.134773
0.117149
0.106221
0.100364
0.0973691
0.0963939
0.09725
0.0998819
0.103235
0.106429
0.108506
0.108457
0.105601
0.100443
0.0965042
0.10302
0.132044
0.188534
0.271705
0.382651
0.524681
0.693925
0.903479
1.25922
1.07973
0.00579539
0.00553915
0.00520232
0.00555663
0.00572002
0.00105104
5.48412e-05
0.0665898
0.572891
1.66
2.29506
1.91324
1.10914
0.632919
0.426282
0.314613
0.247316
0.205339
0.179437
0.165274
0.157538
0.154243
0.154264
0.157228
0.161551
0.165934
0.168914
0.168796
0.164049
0.154329
0.142428
0.13901
0.164111
0.230699
0.337058
0.480866
0.663547
0.880424
1.12097
1.52018
1.40282
0.00423055
0.00413733
0.00407469
0.00391712
0.00425068
0.00443313
0.000178595
3.13934e-06
0.0212553
0.310421
1.2039
2.24965
2.41334
1.7501
1.01022
0.635909
0.456293
0.358182
0.296979
0.26095
0.240542
0.231584
0.229294
0.232367
0.238113
0.244478
0.249224
0.249673
0.242936
0.227383
0.203937
0.181819
0.188123
0.253928
0.379855
0.555448
0.776715
1.03537
1.306
1.70563
1.68482
0.00312552
0.00308188
0.00308829
0.00306261
0.00294473
0.00333836
0.00317047
0.000394745
0.000413217
0.00102146
0.120374
0.696124
1.7974
2.5887
2.40442
1.64173
0.985817
0.664781
0.504425
0.416342
0.365118
0.34062
0.331217
0.332439
0.339289
0.347848
0.354808
0.356513
0.348672
0.327353
0.290418
0.241715
0.205602
0.2419
0.375344
0.577729
0.831548
1.12164
1.41484
1.78128
1.84881
0.00232183
0.00230165
0.00231873
0.00234422
0.00232456
0.00225521
0.00254461
0.00226181
0.000691643
0.000104045
0.00196412
0.0277096
0.304181
1.12685
2.25034
2.77141
2.38723
1.61565
1.01856
0.722226
0.578423
0.509019
0.477316
0.468754
0.473394
0.484411
0.495663
0.500489
0.492584
0.46644
0.417135
0.34136
0.246249
0.188686
0.291391
0.512325
0.790694
1.09968
1.40172
1.71726
1.83852
0.00173225
0.00172294
0.00174054
0.00176813
0.00179341
0.00177666
0.00175461
0.00188066
0.00185309
0.000941894
6.51907e-05
0.000379069
0.00044711
0.0832279
0.518032
1.48859
2.54527
2.887
2.42489
1.67755
1.11077
0.834996
0.720059
0.673304
0.65946
0.664288
0.676969
0.687132
0.685327
0.662112
0.608202
0.515617
0.380148
0.204015
0.092413
0.326028
0.62482
0.941374
1.23627
1.49329
1.62656
0.00129499
0.0012913
0.001304
0.00132905
0.0013554
0.00137635
0.00137204
0.0013597
0.00140812
0.00145675
0.00107015
2.46097e-05
2.28045e-05
0.0014689
0.011138
0.156695
0.704323
1.73007
2.72112
2.99835
2.54784
1.87121
1.35901
1.08244
0.964735
0.930015
0.928873
0.935765
0.9372
0.921105
0.876156
0.791945
0.661707
0.485416
0.281882
0.201564
0.418419
0.705761
0.967521
1.15896
1.25646
0.000968643
0.000967945
0.000976484
0.000995683
0.00101956
0.00104232
0.00106036
0.00106521
0.0010584
0.00107138
0.00113435
0.000973587
0.000212363
2.20711e-05
0.000164252
0.00301144
0.022392
0.212149
0.806168
1.83133
2.80688
3.14244
2.86513
2.36136
1.89137
1.56323
1.38208
1.30746
1.28878
1.28114
1.25575
1.19764
1.10198
0.974651
0.836577
0.730766
0.717018
0.809847
0.944386
1.03376
1.02654
0.000723943
0.000724851
0.000730375
0.000744248
0.000763594
0.000784201
0.000803436
0.000819779
0.000828962
0.000827385
0.000828681
0.000875608
0.000841965
0.000464026
4.12022e-06
2.90031e-06
0.00039098
0.0045024
0.029966
0.22737
0.803825
1.74965
2.68657
3.23739
3.31669
3.09517
2.76193
2.42888
2.1531
1.9548
1.82811
1.75046
1.69415
1.64033
1.58773
1.54706
1.53432
1.55598
1.6043
1.64176
1.55153
0.000539867
0.000541584
0.000545134
0.000554983
0.000569799
0.000586781
0.00060411
0.00062055
0.000635183
0.000646006
0.000648523
0.000650329
0.000674231
0.00067911
0.000588776
0.000155909
1.86944e-05
2.74691e-07
0.000652755
0.00456781
0.0272037
0.183601
0.59472
1.29693
2.15353
2.93213
3.45998
3.70269
3.72641
3.61093
3.41276
3.17395
2.93407
2.73
2.58929
2.5243
2.53315
2.59189
2.67195
2.75483
2.69752
0.000401258
0.0004032
0.000405485
0.000412401
0.000423444
0.000436683
0.00045089
0.000465387
0.000479429
0.000492264
0.000502915
0.000508666
0.000513009
0.000519404
0.000544263
0.000508126
0.000388442
2.38956e-05
6.24519e-06
5.99652e-08
0.000720021
0.00299693
0.00948483
0.0739273
0.266182
0.651062
1.23672
1.95865
2.70812
3.38345
3.92159
4.29779
4.51492
4.59393
4.57014
4.48348
4.37472
4.27117
4.19961
4.1964
4.12409
0.000297771
0.000299571
0.000301093
0.00030598
0.000314105
0.00032409
0.000335159
0.000346875
0.000358824
0.000370478
0.000381369
0.000390942
0.000398455
0.00040306
0.000409346
0.000419644
0.000433536
0.000380505
0.000227151
5.55814e-06
3.35681e-06
4.30824e-08
0.000216882
0.0015042
3.93603e-05
0.00947037
0.0523769
0.167888
0.398006
0.767558
1.27756
1.90212
2.59645
3.31024
3.99512
4.60636
5.11638
5.51089
5.79817
6.02858
6.09877
0.000223109
0.000224695
0.000225847
0.00022949
0.00023561
0.000243224
0.000251801
0.000261076
0.000270757
0.00028053
0.000290065
0.00029909
0.000307368
0.00031455
0.000319917
0.000324811
0.000330923
0.000344233
0.000345739
0.000296879
0.000159054
4.07808e-06
2.88056e-06
1.73913e-07
5.38203e-07
0.00022829
0.00118522
0.00191374
0.000645644
0.00858241
0.0404139
0.118075
0.264999
0.504525
0.851702
1.30879
1.86574
2.50654
3.19974
3.93063
4.59122
0.000170298
0.000171689
0.000172626
0.00017545
0.000180179
0.000186095
0.000192838
0.000200256
0.000208148
0.000216274
0.000224405
0.00023233
0.000239872
0.000246921
0.000253237
0.000258723
0.000262861
0.000267894
0.000274794
0.000283866
0.000280601
0.000235298
0.000156589
1.66976e-05
4.03901e-06
9.66679e-07
8.99569e-08
0
8.11669e-06
0.000182546
0.000923888
0.00138866
0.00133093
0.00137017
0.00810673
0.0312638
0.0830954
0.17855
0.331566
0.555678
0.854771
0.000132375
0.00013355
0.000134324
0.000136553
0.000140256
0.000144901
0.000150234
0.000156152
0.000162529
0.000169191
0.000175986
0.000182775
0.000189415
0.000195779
0.00020176
0.000207289
0.000212218
0.000216451
0.000220161
0.00022489
0.000231397
0.000236932
0.000235711
0.000208527
0.000156651
9.60394e-05
9.73507e-06
2.80084e-06
8.23367e-07
4.44407e-07
3.01784e-08
0
0
2.4472e-05
0.000177749
0.000725027
0.00118061
0.000961532
0.000554207
1.86333e-05
0.00569337
0.000104291
0.000105263
0.000105911
0.000107695
0.000110629
0.000114314
0.000118566
0.000123311
0.000128456
0.000133879
0.000139469
0.000145136
0.000150783
0.000156313
0.000161637
0.000166678
0.000171391
0.000175709
0.000179544
0.000182929
0.000186148
0.00019036
0.000195083
0.000201019
0.000200667
0.000194508
0.00017291
0.000137116
9.53847e-05
5.40878e-05
3.97607e-06
1.68864e-06
6.33648e-07
4.15011e-07
2.22166e-07
3.31429e-08
0
0
0
1.27753e-07
0.000102743
8.3054e-05
8.38508e-05
8.44039e-05
8.58506e-05
8.81984e-05
9.11473e-05
9.45622e-05
9.83859e-05
0.000102548
0.000106959
0.000111534
0.000116209
0.000120918
0.000125585
0.000130148
0.000134547
0.000138731
0.000142662
0.000146307
0.00014965
0.000152558
0.000155183
0.000157692
0.000160786
0.000164443
0.000167915
0.000171868
0.000172362
0.000167943
0.000159959
0.00014312
0.000119218
9.09658e-05
6.16031e-05
3.47461e-05
5.56236e-06
1.48412e-06
4.78994e-07
3.73796e-07
2.67265e-07
1.66911e-07
6.67085e-05
6.7359e-05
6.78361e-05
6.90198e-05
7.09125e-05
7.32888e-05
7.60469e-05
7.91414e-05
8.2516e-05
8.61031e-05
8.98385e-05
9.36742e-05
9.75612e-05
0.000101443
0.00010527
0.000108997
0.000112585
0.000115996
0.000119201
0.000122195
0.000124898
0.000127287
0.000129408
0.000131244
0.000133011
0.000134788
0.000136935
0.000139457
0.000142015
0.000144109
0.000146271
0.000146459
0.00014417
0.000139201
0.00013222
0.000121348
0.000107095
9.03114e-05
7.31813e-05
5.442e-05
3.59093e-05
5.39536e-05
5.44836e-05
5.48992e-05
5.58751e-05
5.7411e-05
5.93373e-05
6.15762e-05
6.40901e-05
6.68335e-05
6.97539e-05
7.28014e-05
7.59375e-05
7.91263e-05
8.2324e-05
8.54904e-05
8.85912e-05
9.15941e-05
9.44694e-05
9.71898e-05
9.97473e-05
0.000102076
0.000104162
0.00010604
0.000107655
0.000109031
0.00011021
0.000111228
0.000112174
0.000113154
0.000114166
0.00011534
0.000116636
0.000117918
0.000119046
0.000119849
0.000120573
0.000120595
0.000119599
0.000117589
0.000114209
0.000110633
4.38855e-05
4.43176e-05
4.46821e-05
4.54917e-05
4.67447e-05
4.83139e-05
5.01388e-05
5.21875e-05
5.44226e-05
5.68025e-05
5.92876e-05
6.18474e-05
6.44537e-05
6.70719e-05
6.96699e-05
7.22196e-05
7.46953e-05
7.70723e-05
7.93272e-05
8.14519e-05
8.33882e-05
8.51244e-05
8.66894e-05
8.80416e-05
8.91915e-05
9.0162e-05
9.09608e-05
9.15938e-05
9.20788e-05
9.24408e-05
9.26987e-05
9.28914e-05
9.3047e-05
9.31987e-05
9.33444e-05
9.35091e-05
9.36779e-05
9.38449e-05
9.40105e-05
9.3999e-05
9.42362e-05
3.58632e-05
3.6216e-05
3.65376e-05
3.72129e-05
3.82403e-05
3.95242e-05
4.10173e-05
4.26916e-05
4.45165e-05
4.64582e-05
4.84851e-05
5.05726e-05
5.2697e-05
5.48313e-05
5.69497e-05
5.9029e-05
6.10482e-05
6.29869e-05
6.48252e-05
6.65557e-05
6.81283e-05
6.95349e-05
7.08006e-05
7.18873e-05
7.28026e-05
7.35651e-05
7.41851e-05
7.46686e-05
7.5021e-05
7.52506e-05
7.53641e-05
7.53703e-05
7.52754e-05
7.50942e-05
7.48421e-05
7.45251e-05
7.41474e-05
7.37296e-05
7.33121e-05
7.28193e-05
7.25363e-05
2.942e-05
2.97094e-05
2.99943e-05
3.05608e-05
3.14072e-05
3.24622e-05
3.36879e-05
3.506e-05
3.65527e-05
3.81387e-05
3.97922e-05
4.1493e-05
4.32214e-05
4.49561e-05
4.66756e-05
4.8361e-05
4.99949e-05
5.15606e-05
5.30412e-05
5.44306e-05
5.56862e-05
5.68034e-05
5.78055e-05
5.8659e-05
5.93685e-05
5.99488e-05
6.04088e-05
6.07543e-05
6.09919e-05
6.11291e-05
6.11731e-05
6.11312e-05
6.10074e-05
6.08105e-05
6.05497e-05
6.02281e-05
5.98456e-05
5.94112e-05
5.89556e-05
5.84086e-05
5.80544e-05
2.42108e-05
2.44494e-05
2.47031e-05
2.51811e-05
2.5882e-05
2.67527e-05
2.77623e-05
2.88898e-05
3.01131e-05
3.14101e-05
3.27597e-05
3.41448e-05
3.55495e-05
3.69562e-05
3.83471e-05
3.97068e-05
4.10211e-05
4.2276e-05
4.34576e-05
4.45609e-05
4.55502e-05
4.64239e-05
4.72042e-05
4.7862e-05
4.84003e-05
4.88315e-05
4.91632e-05
4.94001e-05
4.95481e-05
4.96137e-05
4.96035e-05
4.95244e-05
4.93803e-05
4.91793e-05
4.89292e-05
4.86331e-05
4.82913e-05
4.79107e-05
4.7516e-05
4.70485e-05
4.6746e-05
1.99752e-05
2.01737e-05
2.04009e-05
2.08068e-05
2.13905e-05
2.21123e-05
2.29468e-05
2.38756e-05
2.48802e-05
2.59422e-05
2.70443e-05
2.81721e-05
2.93128e-05
3.04514e-05
3.15734e-05
3.26664e-05
3.37186e-05
3.47183e-05
3.56546e-05
3.6523e-05
3.72943e-05
3.79691e-05
3.85682e-05
3.90669e-05
3.94676e-05
3.97805e-05
4.00121e-05
4.01665e-05
4.02486e-05
4.02641e-05
4.02187e-05
4.0118e-05
3.99656e-05
3.97682e-05
3.95323e-05
3.92608e-05
3.89539e-05
3.86177e-05
3.82709e-05
3.78707e-05
3.75961e-05
1.65148e-05
1.66817e-05
1.68868e-05
1.7234e-05
1.77228e-05
1.8324e-05
1.90165e-05
1.97838e-05
2.06105e-05
2.14814e-05
2.2382e-05
2.33004e-05
2.4226e-05
2.51463e-05
2.60496e-05
2.69254e-05
2.77644e-05
2.8557e-05
2.92942e-05
2.99727e-05
3.05686e-05
3.10839e-05
3.15381e-05
3.19106e-05
3.2203e-05
3.24241e-05
3.25796e-05
3.26731e-05
3.27086e-05
3.26909e-05
3.26246e-05
3.25148e-05
3.23645e-05
3.21789e-05
3.19634e-05
3.17203e-05
3.14501e-05
3.11575e-05
3.08563e-05
3.05177e-05
3.02679e-05
1.3676e-05
1.38186e-05
1.4005e-05
1.43044e-05
1.47166e-05
1.522e-05
1.57968e-05
1.64328e-05
1.71148e-05
1.78301e-05
1.85669e-05
1.93151e-05
2.00659e-05
2.08092e-05
2.15351e-05
2.22353e-05
2.29021e-05
2.35279e-05
2.41053e-05
2.4632e-05
2.50885e-05
2.54779e-05
2.58181e-05
2.60921e-05
2.6301e-05
2.64524e-05
2.65513e-05
2.66008e-05
2.66042e-05
2.65655e-05
2.64887e-05
2.63777e-05
2.6235e-05
2.6065e-05
2.58719e-05
2.56576e-05
2.54225e-05
2.51707e-05
2.49117e-05
2.46286e-05
2.4401e-05
1.1339e-05
1.14632e-05
1.16341e-05
1.18945e-05
1.22445e-05
1.26684e-05
1.31511e-05
1.36801e-05
1.42443e-05
1.48331e-05
1.54368e-05
1.60468e-05
1.66558e-05
1.72558e-05
1.78385e-05
1.83971e-05
1.89256e-05
1.9418e-05
1.98683e-05
2.0275e-05
2.06223e-05
2.09139e-05
2.11661e-05
2.13647e-05
2.15107e-05
2.16107e-05
2.16688e-05
2.16878e-05
2.16702e-05
2.16196e-05
2.15391e-05
2.14319e-05
2.13002e-05
2.11474e-05
2.09768e-05
2.07899e-05
2.05873e-05
2.03722e-05
2.01507e-05
1.99161e-05
1.97068e-05
9.40961e-06
9.52029e-06
9.67794e-06
9.90647e-06
1.02061e-05
1.05652e-05
1.09711e-05
1.14129e-05
1.18812e-05
1.23672e-05
1.28628e-05
1.33608e-05
1.38551e-05
1.43393e-05
1.48067e-05
1.52517e-05
1.56696e-05
1.60558e-05
1.64055e-05
1.67178e-05
1.698e-05
1.71959e-05
1.73804e-05
1.75216e-05
1.76204e-05
1.76825e-05
1.77114e-05
1.77094e-05
1.76787e-05
1.76221e-05
1.75422e-05
1.74417e-05
1.73223e-05
1.71867e-05
1.70375e-05
1.68759e-05
1.67025e-05
1.65199e-05
1.63313e-05
1.61385e-05
1.59453e-05
7.81291e-06
7.91365e-06
8.06028e-06
8.2626e-06
8.52114e-06
8.82743e-06
9.17075e-06
9.54156e-06
9.93186e-06
1.03343e-05
1.07422e-05
1.11495e-05
1.15512e-05
1.19423e-05
1.23171e-05
1.26713e-05
1.30014e-05
1.33036e-05
1.35745e-05
1.38134e-05
1.40105e-05
1.41691e-05
1.43027e-05
1.44016e-05
1.44665e-05
1.45021e-05
1.45115e-05
1.44966e-05
1.44592e-05
1.44016e-05
1.43258e-05
1.42341e-05
1.41279e-05
1.40091e-05
1.38799e-05
1.37413e-05
1.35936e-05
1.34392e-05
1.32791e-05
1.31218e-05
1.29416e-05
6.48897e-06
6.58267e-06
6.71977e-06
6.90055e-06
7.12559e-06
7.3888e-06
7.68104e-06
7.99401e-06
8.32089e-06
8.65558e-06
8.99245e-06
9.3265e-06
9.65357e-06
9.96967e-06
1.02705e-05
1.05523e-05
1.08124e-05
1.10483e-05
1.12571e-05
1.14387e-05
1.15852e-05
1.16998e-05
1.17945e-05
1.18612e-05
1.19006e-05
1.19168e-05
1.19124e-05
1.1889e-05
1.18481e-05
1.17915e-05
1.17209e-05
1.16381e-05
1.15442e-05
1.14408e-05
1.13295e-05
1.12111e-05
1.10859e-05
1.09561e-05
1.08207e-05
1.06933e-05
1.05264e-05
5.38953e-06
5.47829e-06
5.60716e-06
5.77005e-06
5.96774e-06
6.19576e-06
6.44629e-06
6.71213e-06
6.98746e-06
7.26717e-06
7.54655e-06
7.82152e-06
8.08862e-06
8.34476e-06
8.58655e-06
8.81113e-06
9.01653e-06
9.20085e-06
9.3622e-06
9.50052e-06
9.60977e-06
9.6927e-06
9.75989e-06
9.80465e-06
9.82758e-06
9.83206e-06
9.82034e-06
9.79366e-06
9.75325e-06
9.70059e-06
9.63707e-06
9.56403e-06
9.48241e-06
9.39346e-06
9.29846e-06
9.19797e-06
9.0923e-06
8.98327e-06
8.86886e-06
8.7666e-06
8.60928e-06
4.4756e-06
4.56093e-06
4.68248e-06
4.8305e-06
5.00573e-06
5.20491e-06
5.42135e-06
5.64873e-06
5.88213e-06
6.1172e-06
6.35007e-06
6.57735e-06
6.79623e-06
7.00425e-06
7.19882e-06
7.37764e-06
7.53932e-06
7.68251e-06
7.80587e-06
7.90951e-06
7.98886e-06
8.04631e-06
8.09117e-06
8.11803e-06
8.12746e-06
8.12236e-06
8.10463e-06
8.07535e-06
8.03555e-06
7.9864e-06
7.92902e-06
7.86446e-06
7.7935e-06
7.71707e-06
7.63616e-06
7.55115e-06
7.46237e-06
7.3713e-06
7.27539e-06
7.1933e-06
7.0501e-06
3.71544e-06
3.79834e-06
3.91334e-06
4.04889e-06
4.20563e-06
4.38109e-06
4.56945e-06
4.76533e-06
4.96445e-06
5.16322e-06
5.35839e-06
5.54726e-06
5.72754e-06
5.89748e-06
6.05514e-06
6.1988e-06
6.32751e-06
6.4405e-06
6.53685e-06
6.61686e-06
6.67699e-06
6.71906e-06
6.75118e-06
6.7688e-06
6.77237e-06
6.76431e-06
6.7462e-06
6.71887e-06
6.68317e-06
6.64003e-06
6.59037e-06
6.53501e-06
6.47461e-06
6.40989e-06
6.34167e-06
6.27026e-06
6.1959e-06
6.11994e-06
6.03917e-06
5.97499e-06
5.83803e-06
3.08323e-06
3.1642e-06
3.27317e-06
3.39824e-06
3.5397e-06
3.69547e-06
3.86055e-06
4.03032e-06
4.2012e-06
4.37024e-06
4.53472e-06
4.6924e-06
4.84138e-06
4.98024e-06
5.10747e-06
5.22175e-06
5.32243e-06
5.40909e-06
5.48121e-06
5.53915e-06
5.58044e-06
5.6068e-06
5.62527e-06
5.6322e-06
5.62808e-06
5.61499e-06
5.59427e-06
5.56665e-06
5.5328e-06
5.49347e-06
5.44939e-06
5.40118e-06
5.34935e-06
5.29442e-06
5.23701e-06
5.17725e-06
5.11549e-06
5.05263e-06
4.98595e-06
4.93392e-06
4.81602e-06
2.55752e-06
2.63681e-06
2.74018e-06
2.85619e-06
2.98474e-06
3.12396e-06
3.2695e-06
3.41743e-06
3.56481e-06
3.70928e-06
3.84873e-06
3.98144e-06
4.10599e-06
4.22149e-06
4.32708e-06
4.42174e-06
4.50511e-06
4.57694e-06
4.63686e-06
4.6852e-06
4.72001e-06
4.74217e-06
4.75784e-06
4.76389e-06
4.76073e-06
4.75006e-06
4.733e-06
4.71016e-06
4.68209e-06
4.64942e-06
4.61279e-06
4.57272e-06
4.52967e-06
4.48406e-06
4.43645e-06
4.38704e-06
4.33598e-06
4.28423e-06
4.22839e-06
4.19041e-06
4.07274e-06
2.12051e-06
2.19853e-06
2.2969e-06
2.40489e-06
2.52189e-06
2.64642e-06
2.77501e-06
2.90443e-06
3.03216e-06
3.15621e-06
3.27488e-06
3.38673e-06
3.49046e-06
3.58482e-06
3.66882e-06
3.74187e-06
3.80408e-06
3.85575e-06
3.89705e-06
3.92837e-06
3.94859e-06
3.959e-06
3.96464e-06
3.96302e-06
3.95454e-06
3.94064e-06
3.92226e-06
3.89985e-06
3.87385e-06
3.8447e-06
3.81286e-06
3.7787e-06
3.74252e-06
3.70462e-06
3.66535e-06
3.6247e-06
3.58311e-06
3.54076e-06
3.49621e-06
3.46217e-06
3.37497e-06
1.75851e-06
1.83563e-06
1.92975e-06
2.03067e-06
2.13696e-06
2.24758e-06
2.36031e-06
2.47303e-06
2.58397e-06
2.69135e-06
2.79354e-06
2.88946e-06
2.97883e-06
3.06196e-06
3.13875e-06
3.20793e-06
3.26845e-06
3.31989e-06
3.36217e-06
3.39574e-06
3.41968e-06
3.43406e-06
3.44374e-06
3.44663e-06
3.44316e-06
3.43459e-06
3.42173e-06
3.40505e-06
3.38498e-06
3.36198e-06
3.33651e-06
3.30897e-06
3.27967e-06
3.2489e-06
3.2171e-06
3.18442e-06
3.15091e-06
3.11737e-06
3.08033e-06
3.06164e-06
2.95999e-06
1.46186e-06
1.53708e-06
1.62621e-06
1.72006e-06
1.81647e-06
1.91447e-06
2.01251e-06
2.10939e-06
2.20442e-06
2.2968e-06
2.38514e-06
2.46728e-06
2.54068e-06
2.60322e-06
2.65461e-06
2.69692e-06
2.7325e-06
2.76207e-06
2.78569e-06
2.80313e-06
2.81388e-06
2.81892e-06
2.82118e-06
2.819e-06
2.81262e-06
2.80296e-06
2.79062e-06
2.77588e-06
2.75898e-06
2.7402e-06
2.71979e-06
2.69796e-06
2.67489e-06
2.65074e-06
2.62568e-06
2.59961e-06
2.57315e-06
2.54557e-06
2.5181e-06
2.49164e-06
2.44413e-06
1.22038e-06
1.29177e-06
1.37298e-06
1.4568e-06
1.54193e-06
1.62831e-06
1.71471e-06
1.7994e-06
1.88103e-06
1.9591e-06
2.0342e-06
2.10792e-06
2.18186e-06
2.25672e-06
2.33036e-06
2.3968e-06
2.45197e-06
2.4966e-06
2.53209e-06
2.55993e-06
2.5799e-06
2.59172e-06
2.59945e-06
2.60193e-06
2.59971e-06
2.59378e-06
2.58481e-06
2.57322e-06
2.55941e-06
2.54379e-06
2.52674e-06
2.50863e-06
2.4897e-06
2.4702e-06
2.4505e-06
2.43082e-06
2.41098e-06
2.39212e-06
2.36957e-06
2.3691e-06
2.27449e-06
1.01911e-06
1.08842e-06
1.16175e-06
1.23307e-06
1.30284e-06
1.3736e-06
1.44652e-06
1.52136e-06
1.59637e-06
1.66822e-06
1.73244e-06
1.78477e-06
1.82289e-06
1.84723e-06
1.86268e-06
1.87932e-06
1.90168e-06
1.92576e-06
1.94846e-06
1.96791e-06
1.98363e-06
1.99627e-06
2.0067e-06
2.01388e-06
2.01787e-06
2.01925e-06
2.01842e-06
2.01554e-06
2.01079e-06
2.00434e-06
1.99634e-06
1.9869e-06
1.97619e-06
1.96422e-06
1.95113e-06
1.93667e-06
1.92178e-06
1.90447e-06
1.89022e-06
1.86116e-06
1.86494e-06
8.49746e-07
9.24918e-07
9.99264e-07
1.06494e-06
1.12188e-06
1.1737e-06
1.22379e-06
1.27526e-06
1.33125e-06
1.3948e-06
1.46823e-06
1.55251e-06
1.64611e-06
1.74533e-06
1.84198e-06
1.91939e-06
1.97235e-06
2.0114e-06
2.04108e-06
2.06358e-06
2.07857e-06
2.08655e-06
2.09048e-06
2.09004e-06
2.08596e-06
2.07912e-06
2.07011e-06
2.05942e-06
2.0475e-06
2.03477e-06
2.02166e-06
2.00854e-06
1.99567e-06
1.98333e-06
1.97189e-06
1.96178e-06
1.95237e-06
1.94594e-06
1.93449e-06
1.95544e-06
1.85219e-06
7.26586e-07
8.00163e-07
8.72262e-07
9.38412e-07
9.96963e-07
1.04773e-06
1.08978e-06
1.12225e-06
1.1453e-06
1.16024e-06
1.16914e-06
1.17437e-06
1.17835e-06
1.18153e-06
1.18602e-06
1.20565e-06
1.24096e-06
1.28007e-06
1.31905e-06
1.35545e-06
1.38871e-06
1.41887e-06
1.44639e-06
1.47097e-06
1.49242e-06
1.51095e-06
1.52675e-06
1.5399e-06
1.55043e-06
1.55836e-06
1.56373e-06
1.56649e-06
1.5667e-06
1.56421e-06
1.55911e-06
1.55102e-06
1.54099e-06
1.5258e-06
1.51496e-06
1.47205e-06
1.51414e-06
7.85598e-07
8.80501e-07
9.30198e-07
9.38193e-07
9.24138e-07
9.14882e-07
9.33559e-07
9.90157e-07
1.07949e-06
1.18781e-06
1.30065e-06
1.40694e-06
1.49964e-06
1.57668e-06
1.63609e-06
1.66369e-06
1.66279e-06
1.64895e-06
1.62935e-06
1.6068e-06
1.58019e-06
1.55574e-06
1.52937e-06
1.50244e-06
1.47566e-06
1.44922e-06
1.42319e-06
1.39768e-06
1.37276e-06
1.34844e-06
1.32467e-06
1.30143e-06
1.27849e-06
1.25573e-06
1.23318e-06
1.21113e-06
1.18826e-06
1.16694e-06
1.13878e-06
1.13979e-06
1.0252e-06
6.74768
7.65318
6.73663
5.28757
3.77359
2.50233
1.5435
0.849994
0.372368
0.102023
0.0334963
0.00451741
0.000429543
1.22264e-05
0.000188525
0.000229377
0.000186998
0.000162014
0.000143503
0.000125468
0.0001098
9.54466e-05
8.29384e-05
7.18668e-05
6.2214e-05
5.36991e-05
4.63976e-05
3.98768e-05
3.42174e-05
2.92804e-05
2.49479e-05
2.12212e-05
1.79622e-05
1.51658e-05
1.27864e-05
1.07352e-05
9.00037e-06
7.52235e-06
6.28801e-06
5.23288e-06
4.35714e-06
3.6328e-06
3.02821e-06
2.52916e-06
2.12033e-06
1.7864e-06
1.51494e-06
1.29462e-06
1.11418e-06
9.68339e-07
8.48772e-07
7.50341e-07
6.68286e-07
5.98741e-07
5.38031e-07
4.82405e-07
4.34263e-07
3.86439e-07
3.43814e-07
3.00481e-07
2.62423e-07
2.2152e-07
1.90514e-07
1.64558e-07
1.44956e-07
1.44399e-07
1.50356e-07
1.66292e-07
2.01913e-07
2.09209e-07
2.7371e-07
2.46076e-07
3.69465e-07
3.00136e-07
6.44836
10.3443
9.87066
8.07518
6.07705
4.3033
2.89002
1.81156
1.00364
0.432893
0.111071
0.0319165
0.00298168
0.000230857
1.4014e-05
0.000170836
0.000204824
0.000165781
0.00014371
0.000126723
0.000110988
9.6441e-05
8.38352e-05
7.26372e-05
6.28692e-05
5.42247e-05
4.68217e-05
4.02387e-05
3.45e-05
2.95107e-05
2.5131e-05
2.13671e-05
1.80833e-05
1.52559e-05
1.28554e-05
1.07859e-05
9.03409e-06
7.54205e-06
6.29744e-06
5.23254e-06
4.343e-06
3.61407e-06
3.00281e-06
2.4966e-06
2.08382e-06
1.74558e-06
1.4717e-06
1.24887e-06
1.06728e-06
9.20491e-07
8.00493e-07
7.02589e-07
6.21107e-07
5.53096e-07
4.92976e-07
4.39097e-07
3.93866e-07
3.48145e-07
3.08998e-07
2.68722e-07
2.35088e-07
1.98166e-07
1.7442e-07
1.56107e-07
1.44036e-07
1.51061e-07
1.61493e-07
1.7909e-07
2.14597e-07
2.20154e-07
2.83312e-07
2.50047e-07
3.75403e-07
2.98025e-07
4.46533
10.0978
11.622
10.4738
8.45568
6.39665
4.61148
3.16247
2.01186
1.11805
0.477066
0.11942
0.0298751
0.0019651
0.000188975
1.25223e-05
0.000135356
0.000185762
0.00014892
0.000126597
0.00011228
9.80648e-05
8.50579e-05
7.36561e-05
6.37477e-05
5.4982e-05
4.73815e-05
4.07266e-05
3.48826e-05
2.97996e-05
2.53621e-05
2.1527e-05
1.82163e-05
1.53511e-05
1.29128e-05
1.08248e-05
9.04982e-06
7.54278e-06
6.28257e-06
5.21153e-06
4.3075e-06
3.57161e-06
2.95467e-06
2.44217e-06
2.02544e-06
1.68371e-06
1.40796e-06
1.18359e-06
1.0017e-06
8.54839e-07
7.35799e-07
6.39175e-07
5.5953e-07
4.93716e-07
4.35099e-07
3.85767e-07
3.43117e-07
3.01809e-07
2.66235e-07
2.31718e-07
2.02114e-07
1.75171e-07
1.58692e-07
1.48754e-07
1.47477e-07
1.58502e-07
1.76522e-07
1.93248e-07
2.2812e-07
2.313e-07
2.93409e-07
2.53885e-07
3.80555e-07
2.9555e-07
3.13975
8.6941
11.8525
12.0003
10.5518
8.57615
6.61692
4.88418
3.41819
2.20193
1.22975
0.526858
0.133939
0.0288306
0.00171727
0.000356329
9.61661e-06
8.33693e-05
0.000168816
0.000138646
0.000111558
9.8176e-05
8.64372e-05
7.4852e-05
6.46213e-05
5.57222e-05
4.79585e-05
4.11983e-05
3.52538e-05
3.00826e-05
2.55804e-05
2.16797e-05
1.83282e-05
1.54262e-05
1.29536e-05
1.08454e-05
9.05026e-06
7.52912e-06
6.25462e-06
5.17608e-06
4.26228e-06
3.5191e-06
2.897e-06
2.38004e-06
1.96026e-06
1.61592e-06
1.33907e-06
1.11395e-06
9.32152e-07
7.86043e-07
6.68421e-07
5.73555e-07
4.96229e-07
4.32947e-07
3.77152e-07
3.32181e-07
2.92703e-07
2.56328e-07
2.25237e-07
1.97126e-07
1.7342e-07
1.5683e-07
1.48197e-07
1.46591e-07
1.53993e-07
1.68005e-07
1.903e-07
2.05954e-07
2.39696e-07
2.40429e-07
3.01612e-07
2.56174e-07
3.84188e-07
2.92657e-07
2.42294
7.12135
10.98
12.4349
11.9758
10.5032
8.67449
6.84627
5.16888
3.68421
2.40609
1.36167
0.597186
0.161403
0.0304028
0.0024662
0.000900225
5.37259e-06
2.02829e-05
0.000129849
0.000131646
0.000101778
8.59745e-05
7.56131e-05
6.56473e-05
5.64499e-05
4.84763e-05
4.16157e-05
3.55864e-05
3.03327e-05
2.57637e-05
2.18086e-05
1.84126e-05
1.54767e-05
1.29764e-05
1.08479e-05
9.0365e-06
7.50377e-06
6.21782e-06
5.1307e-06
4.21073e-06
3.46144e-06
2.83463e-06
2.3144e-06
1.89223e-06
1.54639e-06
1.26883e-06
1.04338e-06
8.62297e-07
7.17533e-07
6.01595e-07
5.0895e-07
4.34272e-07
3.74005e-07
3.21865e-07
2.80864e-07
2.45621e-07
2.14528e-07
1.89244e-07
1.68063e-07
1.5249e-07
1.4507e-07
1.44494e-07
1.50232e-07
1.62986e-07
1.79234e-07
2.02568e-07
2.17166e-07
2.49456e-07
2.47738e-07
3.0791e-07
2.56928e-07
3.86425e-07
2.8933e-07
2.06256
5.73715
9.54064
11.8887
12.5025
11.8429
10.4743
8.81517
7.1121
5.48273
3.98112
2.64751
1.53388
0.703111
0.209491
0.0372935
0.0044979
0.0018553
1.07501e-06
9.22325e-06
7.72516e-05
0.000118164
9.5068e-05
7.55826e-05
6.55516e-05
5.72544e-05
4.91903e-05
4.20493e-05
3.58917e-05
3.05772e-05
2.59483e-05
2.19348e-05
1.84899e-05
1.55195e-05
1.29932e-05
1.08445e-05
9.01698e-06
7.4734e-06
6.17737e-06
5.08197e-06
4.15677e-06
3.40219e-06
2.77087e-06
2.24794e-06
1.82359e-06
1.47675e-06
1.19866e-06
9.7322e-07
7.9326e-07
6.50137e-07
5.36215e-07
4.46166e-07
3.74488e-07
3.17722e-07
2.69681e-07
2.33179e-07
2.03127e-07
1.78248e-07
1.60016e-07
1.46904e-07
1.40372e-07
1.41374e-07
1.47599e-07
1.58717e-07
1.74362e-07
1.91554e-07
2.14361e-07
2.27669e-07
2.58338e-07
2.54172e-07
3.13124e-07
2.56896e-07
3.87779e-07
2.85933e-07
1.93766
4.60883
7.94782
10.6654
12.1349
12.375
11.7073
10.4886
8.9983
7.41325
5.83453
4.32529
2.94547
1.76593
0.859859
0.289774
0.0558689
0.00831293
0.00350418
0
5.04623e-06
2.94192e-05
9.21079e-05
9.08372e-05
6.9051e-05
5.65509e-05
4.92546e-05
4.2666e-05
3.63576e-05
3.08324e-05
2.61194e-05
2.20677e-05
1.85821e-05
1.55714e-05
1.30126e-05
1.08417e-05
8.99851e-06
7.44396e-06
6.13734e-06
5.03385e-06
4.10354e-06
3.34365e-06
2.70775e-06
2.18227e-06
1.75588e-06
1.40801e-06
1.12959e-06
9.04434e-07
7.25717e-07
5.84357e-07
4.72852e-07
3.85677e-07
3.17391e-07
2.64579e-07
2.21208e-07
1.9034e-07
1.66456e-07
1.49154e-07
1.39038e-07
1.34867e-07
1.36633e-07
1.44765e-07
1.55571e-07
1.69857e-07
1.86859e-07
2.03837e-07
2.25638e-07
2.37421e-07
2.66395e-07
2.59863e-07
3.17491e-07
2.56392e-07
3.88448e-07
2.82646e-07
1.93599
3.7114
6.43463
9.09845
11.0591
12.0598
12.1619
11.5722
10.5224
9.20133
7.7405
6.22606
4.72669
3.31585
2.07474
1.08535
0.419314
0.0982379
0.0160847
0.00567
0.000401159
1.42683e-06
6.40951e-06
5.07045e-05
8.03156e-05
6.63385e-05
5.02766e-05
4.18758e-05
3.63921e-05
3.12598e-05
2.64245e-05
2.22092e-05
1.8657e-05
1.56257e-05
1.30445e-05
1.08481e-05
8.98469e-06
7.41692e-06
6.09973e-06
4.98877e-06
4.05358e-06
3.28783e-06
2.64702e-06
2.11881e-06
1.69039e-06
1.34138e-06
1.06271e-06
8.38004e-07
6.60513e-07
5.21042e-07
4.12302e-07
3.28322e-07
2.63976e-07
2.15751e-07
1.78172e-07
1.5426e-07
1.37911e-07
1.29527e-07
1.27899e-07
1.32024e-07
1.40097e-07
1.5301e-07
1.66249e-07
1.81852e-07
1.99169e-07
2.15277e-07
2.35906e-07
2.46069e-07
2.73302e-07
2.64533e-07
3.20858e-07
2.55364e-07
3.88397e-07
2.794e-07
1.95226
3.00162
5.08651
7.44334
9.53816
11.0251
11.7871
11.8696
11.4035
10.5361
9.39522
8.07542
6.64946
5.18707
3.76641
2.47464
1.39954
0.620921
0.185274
0.0332895
0.00267366
0.00187896
0.000105201
2.68922e-06
3.08935e-06
4.64043e-05
6.11552e-05
4.85059e-05
3.69241e-05
3.06442e-05
2.64139e-05
2.25121e-05
1.88735e-05
1.57047e-05
1.30609e-05
1.085e-05
8.98051e-06
7.40094e-06
6.06931e-06
4.94817e-06
4.0075e-06
3.23584e-06
2.59048e-06
2.05947e-06
1.62852e-06
1.27815e-06
9.99092e-07
7.74922e-07
5.98722e-07
4.61328e-07
3.55721e-07
2.75515e-07
2.16016e-07
1.73621e-07
1.43788e-07
1.28527e-07
1.21152e-07
1.21836e-07
1.27374e-07
1.37281e-07
1.49047e-07
1.64188e-07
1.782e-07
1.93891e-07
2.10742e-07
2.25654e-07
2.44944e-07
2.53488e-07
2.78969e-07
2.6814e-07
3.23142e-07
2.53808e-07
3.87617e-07
2.76081e-07
1.86385
2.39665
3.89375
5.83558
7.80997
9.48951
10.6875
11.3383
11.4686
11.1537