/*--------------------------------*- C++ -*----------------------------------*\
| =========                 |                                                 |
| \\      /  F ield         | OpenFOAM: The Open Source CFD Toolbox           |
|  \\    /   O peration     | Version:  2312                                  |
|   \\  /    A nd           | Website:  www.openfoam.com                      |
|    \\/     M anipulation  |                                                 |
\*---------------------------------------------------------------------------*/
FoamFile
{
    version     2.0;
    format      ascii;
    arch        "LSB;label=32;scalar=64";
    class       volSymmTensorField;
    location    "700";
    object      turbulenceProperties:devReff;
}
// * * * * * * * * * * * * * * * * * * * * * * * * * * * * * * * * * * * * * //

dimensions      [0 2 -2 0 0 0 0];

internalField   nonuniform List<symmTensor> 
11040
(
(0.0179645 0.095545 -1.7939e-22 -0.0279687 1.17793e-20 0.0100042)
(0.0668917 0.0877797 9.6766e-21 -0.0796866 1.3607e-19 0.0127949)
(0.0120396 0.00961599 -2.98954e-20 -0.0105282 9.1275e-20 -0.00151132)
(-0.00527412 0.010904 -7.15779e-20 0.00569387 3.99764e-20 -0.000419752)
(-0.0695965 0.0488289 -2.21495e-20 0.0698854 2.00875e-19 -0.000288961)
(-0.0626501 0.0596436 -3.06117e-19 0.0633368 1.11431e-19 -0.000686719)
(-0.0529509 0.0625818 1.75752e-19 0.0531997 -1.15479e-18 -0.000248851)
(-0.0431441 0.0608522 2.44657e-19 0.043269 -1.70012e-19 -0.000124936)
(-0.034352 0.05746 1.05263e-19 0.0344274 -3.05014e-20 -7.54864e-05)
(-0.028113 0.0553691 9.80846e-20 0.0280902 1.55867e-19 2.27626e-05)
(-0.0229767 0.0528003 -8.71535e-20 0.0229655 3.71722e-19 1.11513e-05)
(-0.0186497 0.0503103 -1.30498e-19 0.0186104 2.79687e-19 3.93075e-05)
(-0.0150192 0.0481401 2.17931e-20 0.014945 -1.61117e-19 7.42216e-05)
(-0.0120413 0.0464673 2.72377e-20 0.0119678 1.57868e-19 7.35415e-05)
(-0.00942577 0.0450926 -1.22262e-20 0.00932711 1.20462e-20 9.86624e-05)
(-0.00722635 0.0446022 -4.62217e-21 0.00711831 -2.04842e-19 0.000108041)
(-0.00525782 0.044981 5.66265e-20 0.00513379 -8.29684e-22 0.000124027)
(-0.00338697 0.0462577 -5.59716e-21 0.00324591 3.7241e-19 0.000141058)
(-0.00149082 0.0482964 -3.20692e-20 0.00133467 3.25805e-21 0.000156158)
(0.000537634 0.0510712 5.21241e-21 -0.000714254 -5.4146e-20 0.00017662)
(0.00280046 0.054671 2.45446e-20 -0.00298589 4.13742e-20 0.000185431)
(0.00515616 0.0589803 -2.69822e-20 -0.00534146 1.24999e-19 0.000185296)
(0.00744237 0.0640069 1.17146e-21 -0.00763974 -1.02749e-19 0.00019737)
(0.00987519 0.0698062 1.36937e-20 -0.0100821 2.64604e-19 0.000206961)
(0.0125674 0.076361 -8.01912e-20 -0.0127674 -2.37888e-19 0.000199959)
(0.015574 0.0839691 -4.29333e-20 -0.0157528 -5.55762e-19 0.000178807)
(0.0188836 0.0924126 1.15756e-20 -0.0190288 -2.58757e-19 0.000145188)
(0.0222169 0.100407 3.4791e-20 -0.0223124 7.41808e-20 9.5513e-05)
(0.0253404 0.107198 -2.34428e-20 -0.0253678 -2.11312e-19 2.7372e-05)
(0.0279393 0.111955 1.4412e-20 -0.0278849 -4.93503e-19 -5.44047e-05)
(0.0296741 0.113803 1.25493e-19 -0.0295396 3.5542e-19 -0.000134507)
(0.0303199 0.111998 2.19436e-20 -0.0301066 -2.74558e-20 -0.000213331)
(0.0298279 0.106861 1.10032e-19 -0.029535 9.97266e-19 -0.000292919)
(0.0284132 0.0999198 -9.32531e-20 -0.0280279 6.10096e-19 -0.00038529)
(0.0267142 0.0940503 4.91011e-20 -0.0261553 9.80104e-21 -0.000558873)
(0.020061 0.0735807 1.34042e-19 -0.0193917 9.47307e-19 -0.000669326)
(0.00903291 0.0381309 8.83314e-21 -0.00850518 1.79213e-19 -0.000527728)
(0.00293187 0.0236056 -3.77875e-20 -0.00211614 5.66961e-19 -0.000815731)
(-0.00648269 0.00712697 -4.51346e-19 0.00686367 -1.16991e-18 -0.000380975)
(-0.0175558 -0.0321413 6.4562e-21 0.0187866 -9.57578e-19 -0.00123079)
(-0.0614923 -0.0247621 1.99872e-19 0.0682975 5.40947e-20 -0.00680514)
(0.00578865 -0.00596452 5.92108e-22 -0.0041527 -1.73131e-21 -0.00163595)
(0.0170366 0.00201944 2.62809e-20 -0.0102872 5.19344e-21 -0.00674944)
(0.0524095 0.0324654 5.86951e-20 -0.0540231 -3.02283e-19 0.00161359)
(0.1246 0.0330242 7.96006e-20 -0.125262 -1.79419e-19 0.000661328)
(0.24615 -0.0213126 8.35565e-20 -0.245858 -4.95424e-19 -0.000291321)
(0.0653454 -0.0482038 5.65869e-19 -0.0647153 -1.19983e-18 -0.00063016)
(0.0172999 -0.0186918 -8.27418e-19 -0.0163936 3.24379e-18 -0.000906291)
(0.00405917 -0.00737932 -8.31346e-19 -0.00422524 2.14669e-18 0.000166074)
(0.000125223 -0.00202997 -7.53831e-20 -0.000209219 -1.53537e-19 8.39968e-05)
(-0.00138983 0.00147195 -1.03808e-19 0.00131029 4.04662e-20 7.95379e-05)
(-0.00230719 0.00377152 4.61239e-19 0.00235559 -1.16086e-18 -4.84029e-05)
(-0.00253632 0.00519593 -1.75237e-21 0.0026746 -7.46688e-20 -0.000138285)
(-0.00234851 0.00627117 -1.67002e-19 0.00248141 6.83724e-19 -0.000132902)
(-0.00213473 0.00703306 -1.13627e-19 0.00232191 3.29858e-20 -0.000187187)
(-0.00177105 0.00758228 -4.47968e-20 0.00196925 -1.72736e-19 -0.000198203)
(-0.00139256 0.00810284 1.06411e-20 0.00161417 5.92383e-19 -0.000221611)
(-0.00101122 0.00871705 -1.49022e-20 0.00125721 1.98229e-19 -0.000245993)
(-0.000596934 0.00938592 -9.35766e-21 0.000864953 -5.5507e-19 -0.000268018)
(-0.000145121 0.0100351 -2.38372e-20 0.000441082 -2.56792e-20 -0.000295962)
(0.000362782 0.0106721 -7.41812e-21 -5.13229e-05 8.27213e-20 -0.000311459)
(0.000931046 0.0113091 -1.09665e-20 -0.000611637 -1.50233e-20 -0.000319409)
(0.00153295 0.0119812 3.15096e-20 -0.00120856 -2.77199e-19 -0.000324394)
(0.00207255 0.0125022 2.36351e-20 -0.00173367 3.90323e-19 -0.000338883)
(0.00251523 0.0126655 -4.69654e-20 -0.00217705 -3.55842e-19 -0.00033818)
(0.00281841 0.012415 -6.68123e-21 -0.00250643 2.88356e-19 -0.000311983)
(0.00300036 0.0119879 7.52373e-20 -0.00273185 9.31951e-19 -0.000268518)
(0.00307783 0.0115346 1.40637e-19 -0.00286602 5.15141e-19 -0.000211808)
(0.00293163 0.0107737 -3.49571e-20 -0.0028036 1.43044e-19 -0.000128034)
(0.0025187 0.0097391 -9.25736e-20 -0.00251136 2.85528e-19 -7.33391e-06)
(0.00184753 0.0086134 4.51435e-20 -0.00199058 5.08754e-19 0.000143049)
(0.000987177 0.00778106 -1.12408e-19 -0.00128661 -7.78401e-19 0.000299433)
(-0.000132191 0.00769907 -5.72856e-20 -0.000340897 -1.2675e-18 0.000473087)
(-0.00183773 0.00767966 -1.33491e-19 0.0011599 -2.65633e-18 0.000677827)
(-0.00407996 0.00794909 6.87948e-20 0.00318759 -1.32352e-18 0.000892373)
(-0.00692427 0.0085561 -9.44125e-20 0.00572372 1.2493e-19 0.00120056)
(-0.0104501 0.00957276 -4.52341e-19 0.00874346 -4.07095e-18 0.00170661)
(-0.01467 0.0115062 -6.68936e-20 0.0124521 -3.49321e-19 0.00221795)
(-0.0193303 0.0145377 -5.31166e-19 0.0176882 -2.4933e-18 0.00164217)
(-0.0339903 0.0177932 1.26091e-18 0.030422 5.44783e-18 0.00356832)
(-0.0268791 0.0326727 7.98061e-19 0.029952 4.74906e-18 -0.00307293)
(-0.121775 -0.110216 -4.15332e-19 0.0746734 -6.70369e-19 0.0471012)
(0.00213353 -0.00417123 -5.28697e-22 -0.0023981 -7.57856e-22 0.000264567)
(-0.00037563 -0.00399431 -1.02386e-20 0.000526797 -2.63333e-20 -0.000151167)
(0.00875114 0.00487177 2.06353e-20 -0.00823138 1.03592e-19 -0.000519762)
(0.0449311 0.0194602 6.13976e-20 -0.0456955 9.54567e-20 0.00076439)
(0.285922 0.0497342 -7.30792e-21 -0.288103 -3.827e-20 0.00218182)
(0.383159 -0.0351319 -3.09142e-19 -0.381694 1.20594e-18 -0.00146487)
(0.17103 -0.0969747 2.41716e-20 -0.170159 6.08435e-21 -0.000870572)
(0.0532757 -0.0532073 9.47521e-20 -0.0497137 -2.46104e-18 -0.00356205)
(0.0210804 -0.0279592 -1.67841e-19 -0.0206498 2.53665e-20 -0.000430582)
(0.0116471 -0.0172003 2.40466e-19 -0.0118942 -7.03038e-19 0.000247094)
(0.0057928 -0.0101229 -4.43217e-19 -0.00591355 1.04625e-18 0.000120743)
(0.00279242 -0.00599311 7.71999e-19 -0.00278221 -2.10097e-18 -1.02074e-05)
(0.00148518 -0.0027615 -4.00709e-20 -0.0015574 -6.98066e-20 7.22212e-05)
(0.000689941 -0.000542648 1.56323e-19 -0.000706049 -9.22802e-19 1.61082e-05)
(0.000481131 0.00103562 2.46565e-20 -0.000532019 9.64903e-19 5.0888e-05)
(0.000481657 0.00218674 -8.02231e-20 -0.000525554 -3.68567e-19 4.38969e-05)
(0.000634334 0.00295091 -3.39079e-21 -0.000675659 -6.2065e-19 4.13245e-05)
(0.000879682 0.00349771 4.26191e-20 -0.000921413 -4.43678e-19 4.17311e-05)
(0.00115683 0.003867 1.98666e-20 -0.00118669 -2.51536e-20 2.9858e-05)
(0.00147045 0.00407026 2.64134e-20 -0.00149798 2.8044e-20 2.75232e-05)
(0.00179658 0.00414714 2.49018e-21 -0.00181612 8.50779e-20 1.95407e-05)
(0.00215364 0.00407596 -4.5312e-20 -0.00217785 1.35285e-19 2.42091e-05)
(0.00247807 0.00374366 -3.78175e-20 -0.00250369 -4.4758e-19 2.56173e-05)
(0.00269415 0.00310874 -4.03344e-20 -0.00271654 -1.79886e-19 2.23887e-05)
(0.00273923 0.00227947 8.4685e-20 -0.00275145 -2.82927e-19 1.2221e-05)
(0.00258772 0.0014053 -1.5565e-20 -0.00258634 -2.64969e-19 -1.37629e-06)
(0.00220437 0.000629355 -2.30959e-19 -0.00218364 2.69122e-19 -2.07324e-05)
(0.00152512 8.61648e-05 -7.84618e-20 -0.0014758 -1.08733e-18 -4.93183e-05)
(0.00048853 -4.43005e-05 1.94494e-19 -0.000402389 2.68736e-19 -8.61411e-05)
(-0.000984342 0.00035284 2.65027e-19 0.00110694 1.12856e-18 -0.000122597)
(-0.00308599 0.00113271 -1.87917e-19 0.00323319 6.34447e-19 -0.000147202)
(-0.00619012 0.00190737 4.35919e-19 0.00635413 2.62024e-18 -0.000164012)
(-0.0102756 0.0034798 1.83019e-19 0.0104456 8.13195e-19 -0.00016999)
(-0.0153876 0.00595965 -4.00614e-19 0.0155346 9.10799e-19 -0.000146978)
(-0.0216647 0.00952003 -4.84183e-19 0.0217411 -9.60619e-19 -7.636e-05)
(-0.0294621 0.0144981 3.27334e-19 0.0292891 2.0206e-18 0.000173011)
(-0.0388469 0.021691 2.96016e-19 0.0382508 -2.12753e-18 0.000596108)
(-0.0479907 0.0312168 5.50162e-19 0.0482277 1.94307e-18 -0.000236952)
(-0.0759161 0.0418744 -4.35221e-19 0.0722453 -9.64158e-19 0.00367079)
(-0.0658247 0.0884272 2.86943e-20 0.0715483 -4.99798e-19 -0.00572362)
(-0.160242 0.0106043 4.72539e-19 0.158942 1.71238e-18 0.00130045)
(0.00198104 -0.00264346 -1.51089e-22 -0.00208475 -7.14077e-22 0.000103707)
(-0.000269425 -0.0029503 -3.93638e-22 8.02628e-05 2.84694e-21 0.000189163)
(-0.00084069 -0.00211004 -1.49447e-20 0.00082553 -3.44329e-20 1.51599e-05)
(0.00333623 0.00151766 -2.00312e-20 -0.00323597 -3.9483e-20 -0.000100265)
(0.0658497 0.0218957 4.04527e-20 -0.0663942 4.81213e-20 0.000544489)
(0.332399 0.0443061 2.4594e-19 -0.33612 5.7733e-21 0.00372063)
(0.494232 -0.0451108 2.59566e-19 -0.492404 -1.40604e-18 -0.00182794)
(0.29659 -0.137055 9.08977e-19 -0.300616 -1.42274e-18 0.00402617)
(0.102668 -0.0933457 -4.13121e-19 -0.096565 1.228e-18 -0.00610347)
(0.0474138 -0.0567897 2.33017e-19 -0.0459572 3.99441e-19 -0.00145664)
(0.0257668 -0.035437 -3.54192e-19 -0.0257396 1.12401e-18 -2.71465e-05)
(0.0150587 -0.0253275 -5.81539e-19 -0.0150852 1.26507e-18 2.65018e-05)
(0.00965007 -0.0184206 4.66616e-19 -0.00974862 -9.55601e-19 9.85549e-05)
(0.00620493 -0.0135189 -1.19097e-19 -0.00613874 9.41594e-19 -6.61813e-05)
(0.00445767 -0.0101905 -2.01425e-19 -0.00443416 -1.06071e-18 -2.35035e-05)
(0.00347333 -0.00775512 -1.12471e-19 -0.00344459 -4.58031e-19 -2.87319e-05)
(0.00298162 -0.00620059 5.45169e-20 -0.00295646 2.26271e-19 -2.51564e-05)
(0.00278822 -0.00512499 1.15735e-19 -0.00278024 1.30374e-20 -7.97973e-06)
(0.00271324 -0.00450649 3.1302e-20 -0.0027015 5.38517e-20 -1.17448e-05)
(0.00273478 -0.00425 -1.22048e-20 -0.00273764 -7.75746e-20 2.85638e-06)
(0.00276933 -0.0042762 -2.73846e-20 -0.00276754 -1.97385e-19 -1.78794e-06)
(0.00287914 -0.00453309 2.72741e-20 -0.00287773 -2.81492e-19 -1.40789e-06)
(0.00305241 -0.00507367 2.34523e-20 -0.00305532 -1.27762e-19 2.90984e-06)
(0.00316953 -0.00590358 9.09302e-21 -0.0031794 1.18577e-19 9.87196e-06)
(0.00312345 -0.00683449 -6.86335e-20 -0.00313273 7.13236e-19 9.27366e-06)
(0.00285331 -0.00768802 2.56839e-19 -0.00286223 -8.13683e-19 8.92449e-06)
(0.00226073 -0.00832574 1.8179e-19 -0.0022711 -6.26793e-19 1.03697e-05)
(0.00119949 -0.00861781 2.00374e-19 -0.00121364 1.5332e-18 1.4156e-05)
(-0.000519324 -0.00843017 -6.47063e-20 0.000501747 4.08649e-19 1.75766e-05)
(-0.00312942 -0.00766235 -5.61774e-19 0.00310792 -5.9882e-19 2.1493e-05)
(-0.00691525 -0.00622548 1.80204e-19 0.00689027 -1.08242e-18 2.49844e-05)
(-0.0121566 -0.00388865 -4.52413e-19 0.0121279 6.58921e-19 2.86274e-05)
(-0.0190086 -0.00012773 4.00762e-19 0.0189724 -5.59008e-19 3.61929e-05)
(-0.0276337 0.00534579 4.53425e-19 0.0276026 -1.42387e-18 3.10961e-05)
(-0.038243 0.0128505 4.47148e-19 0.0382471 8.30921e-19 -4.11789e-06)
(-0.0514935 0.0228785 4.81282e-19 0.0514124 1.80111e-18 8.10584e-05)
(-0.0675931 0.0367976 3.9257e-19 0.0672506 1.89743e-18 0.000342533)
(-0.0828041 0.0558349 -5.87297e-19 0.0840944 -2.3714e-18 -0.0012903)
(-0.122808 0.0755579 2.81865e-20 0.118772 -8.21815e-19 0.00403632)
(-0.113159 0.158141 -1.98661e-19 0.121146 -1.70812e-18 -0.00798654)
(-0.151738 0.0945712 -4.93019e-19 0.147721 -8.21304e-19 0.00401774)
(0.00155789 -0.00196281 1.38751e-21 -0.00154763 3.34803e-21 -1.02554e-05)
(0.000439641 -0.00224439 -2.26598e-21 -0.000386244 -4.49702e-21 -5.33973e-05)
(-0.000688451 -0.00229846 1.15204e-20 0.000693008 2.34823e-20 -4.55711e-06)
(-0.000517304 -0.00109188 1.45801e-20 0.000537357 2.57254e-20 -2.0053e-05)
(0.00166102 0.00050349 -1.50233e-20 -0.00162002 -2.24008e-20 -4.09997e-05)
(0.0610017 0.0160524 3.54155e-20 -0.0611787 -1.18341e-20 0.000176993)
(0.317902 0.0314459 -7.47971e-20 -0.321463 -8.88264e-21 0.00356117)
(0.559771 -0.0474038 -2.52319e-19 -0.557615 3.21577e-19 -0.00215573)
(0.443268 -0.168181 4.0621e-19 -0.449687 -1.80407e-19 0.00641971)
(0.185365 -0.150808 1.06453e-20 -0.181886 1.71339e-19 -0.00347857)
(0.0847234 -0.0953232 3.62401e-19 -0.0801886 -2.35418e-18 -0.00453476)
(0.0457399 -0.0612115 -2.57224e-19 -0.0451823 3.97569e-19 -0.000557603)
(0.0282873 -0.0446703 -2.91339e-19 -0.0286918 2.32925e-19 0.000404483)
(0.0181431 -0.0339002 3.38491e-19 -0.0182335 -2.32592e-18 9.03665e-05)
(0.012409 -0.0273069 2.68477e-19 -0.0124216 1.33539e-19 1.26211e-05)
(0.00904929 -0.0222807 1.6933e-19 -0.00902818 1.77791e-19 -2.11146e-05)
(0.00707067 -0.0191408 -1.57963e-19 -0.00703226 6.31049e-19 -3.8402e-05)
(0.0059469 -0.0169752 -9.79594e-21 -0.00593459 1.3841e-19 -1.23134e-05)
(0.00519382 -0.0157187 3.69663e-20 -0.00516618 -6.7417e-20 -2.76438e-05)
(0.00472851 -0.0151275 4.81332e-20 -0.004721 5.00197e-20 -7.50907e-06)
(0.00436044 -0.014965 -1.06704e-20 -0.00434371 2.32841e-19 -1.673e-05)
(0.00419683 -0.0150912 -9.00659e-20 -0.00418008 2.30523e-19 -1.67465e-05)
(0.00424064 -0.0155369 1.24388e-19 -0.00422227 1.76604e-19 -1.83707e-05)
(0.0043152 -0.0163286 1.51673e-19 -0.00430454 4.04818e-19 -1.06539e-05)
(0.00424245 -0.0172548 -1.81508e-19 -0.00423457 -9.91861e-20 -7.88246e-06)
(0.00388572 -0.0181302 -1.35614e-19 -0.00388206 2.05823e-18 -3.65778e-06)
(0.00305199 -0.0187787 8.35299e-20 -0.003051 -3.16022e-20 -9.89898e-07)
(0.00149127 -0.0189984 -2.99605e-19 -0.00149499 -8.38773e-19 3.71937e-06)
(-0.0011087 -0.0185619 -5.07285e-19 0.0011006 -1.61899e-18 8.09741e-06)
(-0.00509436 -0.0172052 3.69503e-19 0.00507987 -6.6673e-19 1.44869e-05)
(-0.0108314 -0.0145932 1.21827e-19 0.010813 1.77036e-18 1.8473e-05)
(-0.0186637 -0.0102768 2.65273e-19 0.0186413 -1.07161e-18 2.24181e-05)
(-0.0288911 -0.00371516 -2.37639e-19 0.0288563 2.98201e-18 3.48566e-05)
(-0.0417497 0.00561024 -9.06064e-19 0.0417174 1.46439e-19 3.22995e-05)
(-0.0574735 0.0182262 -3.38349e-19 0.0574906 6.2425e-19 -1.70878e-05)
(-0.0768824 0.0348326 -4.5918e-19 0.0767828 7.46991e-19 9.95887e-05)
(-0.10016 0.0574878 -6.72432e-20 0.0997144 -3.584e-20 0.000445555)
(-0.121776 0.0892934 2.11023e-20 0.123566 7.40857e-20 -0.00179035)
(-0.168435 0.120302 -3.23657e-20 0.163387 1.64525e-18 0.00504792)
(-0.165814 0.23241 -4.67085e-20 0.176056 -1.12487e-18 -0.0102413)
(-0.152898 0.182897 6.52559e-19 0.146539 -7.63356e-19 0.00635942)
(0.00118739 -0.00136328 -1.38507e-21 -0.001197 -2.36126e-21 9.60674e-06)
(0.000458481 -0.00159704 7.08252e-21 -0.000442867 1.16011e-20 -1.56145e-05)
(-0.000182846 -0.00161929 -3.59659e-21 0.000192539 -7.87108e-21 -9.69246e-06)
(-0.000784609 -0.00159351 -3.29181e-21 0.000776196 -8.82104e-21 8.41275e-06)
(-0.000400472 -0.000646331 2.05033e-21 0.000404144 4.95633e-21 -3.67214e-06)
(0.000730177 9.31061e-05 -1.85275e-21 -0.000709017 -1.83854e-21 -2.11601e-05)
(0.042156 0.00846271 -2.52269e-20 -0.042072 -2.59575e-20 -8.3918e-05)
(0.256476 0.0189139 -8.23134e-20 -0.258594 1.02437e-19 0.0021188)
(0.569711 -0.0454201 -1.73212e-19 -0.569609 -1.67306e-19 -0.000101118)
(0.581975 -0.180429 -3.67508e-19 -0.585705 -9.72693e-19 0.0037303)
(0.32225 -0.220809 3.79984e-19 -0.328098 5.78173e-19 0.00584819)
(0.140459 -0.146511 6.05452e-19 -0.132359 -8.35612e-19 -0.00809927)
(0.0755845 -0.0999951 -8.05979e-19 -0.0729683 6.17196e-19 -0.00261628)
(0.0464349 -0.0701806 3.53809e-19 -0.0464383 1.07964e-18 3.35194e-06)
(0.0298063 -0.054946 1.66885e-20 -0.0301655 4.76897e-19 0.000359189)
(0.0203575 -0.044299 -2.2706e-19 -0.0205141 -8.58992e-20 0.000156601)
(0.0146723 -0.037839 1.60294e-19 -0.0146241 -8.95748e-19 -4.81739e-05)
(0.0114061 -0.0333804 -3.39182e-20 -0.0113941 5.82881e-19 -1.19214e-05)
(0.00923933 -0.0306281 7.07891e-20 -0.00919777 -1.10923e-19 -4.15609e-05)
(0.00789786 -0.0291728 4.67349e-20 -0.00789837 2.03329e-19 5.06575e-07)
(0.00692029 -0.0284944 -6.33893e-20 -0.00690527 -2.93336e-19 -1.50197e-05)
(0.0064139 -0.0283089 3.02401e-20 -0.00640752 1.19177e-20 -6.37269e-06)
(0.00632455 -0.0285899 1.3668e-20 -0.00631389 1.0181e-19 -1.06532e-05)
(0.00638196 -0.0293825 -2.97419e-19 -0.00637788 -3.42038e-19 -4.08357e-06)
(0.00631817 -0.0304214 3.25963e-19 -0.00631372 -8.05391e-19 -4.44612e-06)
(0.00590329 -0.0314753 4.28031e-20 -0.00590035 -4.31823e-19 -2.94124e-06)
(0.00484334 -0.0322799 -5.39418e-19 -0.00484043 -4.33018e-19 -2.91645e-06)
(0.00277043 -0.0325008 5.58732e-20 -0.00276971 -9.76771e-19 -7.21248e-07)
(-0.000759111 -0.0317438 8.54299e-19 0.000757151 -1.19018e-19 1.96086e-06)
(-0.00621627 -0.0295501 3.38097e-19 0.00620732 1.43112e-18 8.94836e-06)
(-0.0140798 -0.0253639 -4.154e-19 0.0140673 -7.80908e-19 1.24943e-05)
(-0.0248031 -0.0185391 -4.97866e-19 0.0247894 6.39731e-19 1.36592e-05)
(-0.0387992 -0.00836887 -2.12206e-19 0.0387702 -3.17275e-18 2.89736e-05)
(-0.0563455 0.00594272 7.8402e-19 0.0563188 -1.97708e-18 2.67345e-05)
(-0.0776229 0.0251913 6.29414e-19 0.077657 -1.80353e-18 -3.41271e-05)
(-0.10342 0.0502928 -1.35304e-19 0.103292 -6.5162e-20 0.000127421)
(-0.133589 0.0840021 1.41165e-19 0.133082 1.45571e-18 0.000507469)
(-0.160982 0.131032 4.13821e-20 0.163078 -8.26922e-19 -0.00209598)
(-0.208678 0.176515 -2.43523e-19 0.203068 7.52847e-19 0.00560978)
(-0.216121 0.305924 -5.59256e-19 0.227077 1.79806e-18 -0.0109558)
(-0.166352 0.279899 -5.55046e-19 0.160197 -8.94773e-19 0.00615473)
(0.00091864 -0.000928698 -3.3399e-22 -0.000924498 -6.16873e-22 5.85811e-06)
(0.000458172 -0.00116249 7.7721e-22 -0.000458377 9.15996e-22 2.04951e-07)
(3.14365e-05 -0.0011767 -3.68933e-21 -2.92732e-05 -4.92705e-21 -2.16334e-06)
(-0.000381862 -0.00118679 -5.66393e-21 0.00038584 -7.12177e-21 -3.97819e-06)
(-0.000714957 -0.00108448 -2.02346e-21 0.000711105 -2.37083e-21 3.85201e-06)
(-0.000384473 -0.000478002 4.96919e-21 0.000383563 6.89891e-21 9.096e-07)
(0.000298929 -7.3433e-05 -1.38783e-21 -0.000287792 -2.10472e-21 -1.11365e-05)
(0.0197886 0.00269423 2.08438e-20 -0.0196731 2.30021e-20 -0.000115498)
(0.173727 0.00860719 2.44769e-19 -0.174407 2.36346e-19 0.000680254)
(0.498222 -0.0395743 -1.73189e-19 -0.500323 4.02408e-19 0.00210044)
(0.671568 -0.165562 -2.87726e-19 -0.669705 6.51589e-19 -0.00186273)
(0.500708 -0.273635 2.75878e-19 -0.511183 -1.08038e-18 0.0104753)
(0.242588 -0.229513 4.37493e-19 -0.241344 1.33386e-18 -0.00124378)
(0.119545 -0.150655 -7.83479e-19 -0.111819 -3.00684e-19 -0.00772583)
(0.070827 -0.107291 3.34528e-19 -0.069335 -1.34309e-18 -0.00149194)
(0.0465504 -0.0822317 -2.22908e-19 -0.0469731 7.68939e-19 0.000422776)
(0.0312013 -0.0674411 1.40125e-19 -0.0314875 7.54111e-19 0.000286173)
(0.0222147 -0.0575869 1.57483e-19 -0.022377 3.89069e-19 0.000162258)
(0.0165599 -0.0513724 -8.23334e-20 -0.0164986 3.44079e-19 -6.13739e-05)
(0.0132387 -0.0479139 9.01009e-21 -0.0132273 -9.96041e-19 -1.14006e-05)
(0.0110405 -0.0460823 2.19168e-20 -0.0109958 4.25339e-19 -4.46785e-05)
(0.00993215 -0.0453149 -1.31558e-19 -0.00991807 -8.38448e-21 -1.40802e-05)
(0.00962754 -0.0453837 1.25144e-19 -0.00961293 -4.79257e-19 -1.46097e-05)
(0.00967361 -0.0462786 2.03955e-19 -0.00967154 -7.09658e-20 -2.06905e-06)
(0.00967968 -0.0475976 -1.80843e-19 -0.00968054 1.0367e-18 8.59814e-07)
(0.00929159 -0.049009 -3.24006e-19 -0.00929462 -9.11059e-19 3.02361e-06)
(0.00810645 -0.0501184 4.15646e-19 -0.00810934 -5.43925e-19 2.89172e-06)
(0.00562905 -0.0504131 2.08495e-19 -0.00563181 1.64458e-18 2.76473e-06)
(0.00127058 -0.0492765 1.44996e-19 -0.00127437 1.80233e-18 3.78785e-06)
(-0.00558197 -0.0460294 -2.05671e-19 0.00557173 -3.27745e-19 1.02336e-05)
(-0.0155337 -0.0398686 -2.04315e-20 0.01552 -1.18929e-18 1.37377e-05)
(-0.0291487 -0.0299018 -4.082e-19 0.0291369 -3.57846e-19 1.17737e-05)
(-0.0469106 -0.0151707 -1.93039e-19 0.0468821 1.49365e-18 2.84648e-05)
(-0.0690813 0.00542522 9.56771e-20 0.0690579 2.29616e-18 2.34464e-05)
(-0.0956755 0.0329644 1.35377e-18 0.09572 7.64679e-19 -4.45248e-05)
(-0.127175 0.0685197 2.22567e-19 0.127021 -8.53821e-19 0.000153992)
(-0.162725 0.11528 -1.58043e-18 0.16226 -7.52577e-19 0.000464896)
(-0.194127 0.178242 1.98124e-20 0.19622 -2.09913e-19 -0.00209296)
(-0.238028 0.240402 -2.03635e-20 0.232711 -1.89422e-18 0.00531655)
(-0.253583 0.375749 -1.37128e-19 0.263515 6.07588e-19 -0.00993172)
(-0.183527 0.379713 4.41052e-19 0.180406 1.61767e-18 0.00312077)
(0.000697071 -0.000649308 -6.89705e-23 -0.000703077 -1.39144e-23 6.00651e-06)
(0.000425095 -0.000831788 -1.41618e-21 -0.000424092 -1.93293e-21 -1.00234e-06)
(0.00013637 -0.000909277 1.37156e-21 -0.000134814 1.86029e-21 -1.5558e-06)
(-0.000137613 -0.000874461 6.33511e-21 0.000141037 8.50226e-21 -3.42334e-06)
(-0.000415144 -0.000853295 1.19704e-21 0.000420378 1.66932e-21 -5.23352e-06)
(-0.000633207 -0.000778649 1.07511e-21 0.000632222 5.76501e-22 9.84968e-07)
(-0.000375711 -0.00037837 -7.63673e-21 0.000373024 -8.44176e-21 2.68716e-06)
(2.68023e-05 -0.000159107 -3.42345e-22 -2.22869e-05 -2.33027e-22 -4.51536e-06)
(0.00566429 0.00025072 -1.18085e-20 -0.00560572 -1.70954e-20 -5.85649e-05)
(0.0947324 0.00190833 1.77836e-19 -0.0947146 2.0112e-19 -1.7755e-05)
(0.361583 -0.028468 -2.81853e-19 -0.363127 -7.02598e-19 0.00154456)
(0.663059 -0.139123 -9.94119e-20 -0.662233 8.71342e-19 -0.000825348)
(0.666746 -0.281473 1.37729e-19 -0.67076 -1.03125e-18 0.00401395)
(0.411852 -0.320243 -3.53365e-19 -0.422167 -3.92178e-19 0.0103148)
(0.198533 -0.232209 9.40716e-19 -0.192163 -2.89362e-19 -0.0063704)
(0.107552 -0.159812 3.81458e-19 -0.101124 8.32937e-19 -0.00642804)
(0.068445 -0.119052 -3.53387e-19 -0.0676055 5.1654e-19 -0.000839538)
(0.0464926 -0.096918 -3.80274e-19 -0.0471499 4.37021e-19 0.000657252)
(0.0322735 -0.0831493 -6.12523e-19 -0.0325756 -3.60623e-20 0.000302112)
(0.0235868 -0.0747659 4.82614e-19 -0.0237474 -6.07976e-19 0.000160599)
(0.0182 -0.0699705 1.90045e-19 -0.0181269 8.41861e-19 -7.31261e-05)
(0.0155764 -0.067836 -3.50662e-19 -0.0155308 -2.05016e-19 -4.56048e-05)
(0.0146696 -0.0673312 1.24216e-19 -0.0146187 3.53336e-19 -5.08873e-05)
(0.0146047 -0.0682827 9.2586e-20 -0.0145768 2.34542e-19 -2.79008e-05)
(0.0147562 -0.0700077 1.79805e-20 -0.0147435 -3.76709e-19 -1.27085e-05)
(0.0145711 -0.0719901 -2.34287e-20 -0.0145694 5.30442e-19 -1.7153e-06)
(0.0135055 -0.0736386 3.39476e-19 -0.0135146 1.37963e-18 9.04066e-06)
(0.0109234 -0.0741936 3.0775e-19 -0.0109409 -5.46824e-19 1.74459e-05)
(0.00607488 -0.0727096 -4.58363e-19 -0.00609635 3.84305e-20 2.14754e-05)
(-0.00179273 -0.068263 -9.91368e-19 0.00176652 -1.14713e-18 2.62165e-05)
(-0.013407 -0.0597576 2.54719e-19 0.0133781 7.34559e-20 2.8904e-05)
(-0.0294092 -0.0460036 5.68864e-19 0.0293854 -1.05502e-18 2.38046e-05)
(-0.0502904 -0.0257512 6.32054e-19 0.0502526 3.30125e-19 3.78018e-05)
(-0.0762139 0.0023814 -4.27592e-19 0.076185 -1.76845e-19 2.88484e-05)
(-0.106893 0.0396828 -7.71367e-19 0.106928 1.52354e-18 -3.44974e-05)
(-0.142197 0.087234 -6.11708e-19 0.142016 -1.43615e-18 0.000181458)
(-0.180287 0.148067 9.71521e-19 0.179934 -2.17816e-19 0.000352718)
(-0.21268 0.225793 2.85155e-20 0.214421 3.65186e-19 -0.00174139)
(-0.248833 0.304524 2.03058e-19 0.244726 -3.54569e-19 0.00410669)
(-0.26584 0.435267 -1.58164e-19 0.272745 -8.44172e-19 -0.00690497)
(-0.192618 0.467157 -4.57545e-19 0.194455 5.45552e-19 -0.00183695)
(0.000531634 -0.00046132 -2.22499e-22 -0.000535815 -7.53545e-23 4.1809e-06)
(0.000360449 -0.000595088 -1.19054e-21 -0.000359846 -1.85777e-21 -6.02861e-07)
(0.000178879 -0.000673798 4.98069e-21 -0.000178555 5.6835e-21 -3.24504e-07)
(-1.37197e-05 -0.000690866 -6.68628e-22 1.36083e-05 -8.54603e-22 1.11377e-07)
(-0.000194036 -0.000637381 1.77983e-21 0.000195727 1.65742e-21 -1.69103e-06)
(-0.000393883 -0.000623332 -1.60805e-21 0.000398291 -1.46586e-21 -4.40853e-06)
(-0.000508934 -0.000524785 3.89582e-21 0.000510055 5.23145e-21 -1.12054e-06)
(-0.000357114 -0.000301004 3.08606e-21 0.000354821 2.59519e-21 2.293e-06)
(-0.000151596 -0.000195502 5.38481e-23 0.000151973 9.55339e-22 -3.76971e-07)
(0.000411139 -6.49723e-05 4.36365e-21 -0.000405131 3.87842e-21 -6.00806e-06)
(0.0370359 -0.00085728 -5.58318e-21 -0.0368888 5.35939e-21 -0.000147097)
(0.209595 -0.0179703 -3.28692e-19 -0.209945 -2.2111e-19 0.000350275)
(0.531215 -0.100571 2.06579e-19 -0.532267 -4.04492e-19 0.00105273)
(0.738902 -0.247204 -5.06863e-19 -0.737036 9.35028e-19 -0.00186672)
(0.616673 -0.368109 -2.44159e-19 -0.626361 -9.37218e-19 0.00968773)
(0.348059 -0.345629 5.53434e-19 -0.355357 7.55426e-19 0.00729811)
(0.174443 -0.24208 3.40827e-19 -0.165739 -1.54808e-18 -0.0087041)
(0.100651 -0.173905 1.59436e-19 -0.0949347 5.7545e-19 -0.00571656)
(0.0671253 -0.135957 -7.33454e-19 -0.066669 -1.1206e-18 -0.000456327)
(0.0463656 -0.115984 2.98921e-19 -0.0471744 1.18795e-18 0.000808764)
(0.0329558 -0.104552 7.19794e-20 -0.033297 -8.74044e-19 0.000341221)
(0.0258179 -0.0989855 -3.27621e-19 -0.0259523 4.29267e-19 0.000134409)
(0.0227597 -0.0968555 2.46507e-19 -0.0226963 5.29106e-21 -6.34152e-05)
(0.0219235 -0.0974211 -4.4865e-20 -0.0218417 2.73496e-20 -8.17848e-05)
(0.0220981 -0.0994813 -8.99333e-20 -0.0220419 7.3677e-19 -5.6166e-05)
(0.0222969 -0.10206 1.07047e-19 -0.0222607 -1.75282e-19 -3.6177e-05)
(0.0217478 -0.104305 -7.70582e-19 -0.0217324 6.27905e-21 -1.53962e-05)
(0.0196441 -0.105233 -3.7299e-19 -0.0196489 1.91205e-19 4.78631e-06)
(0.0150605 -0.103598 -1.93582e-19 -0.0150874 -1.2206e-18 2.69321e-05)
(0.00707991 -0.0980244 9.52523e-19 -0.00713345 1.02219e-19 5.35391e-05)
(-0.00513014 -0.0870384 1.58565e-19 0.00505383 8.16922e-19 7.63106e-05)
(-0.0222421 -0.0690817 2.91605e-19 0.0221652 9.03697e-19 7.69097e-05)
(-0.0446731 -0.0426255 -6.03603e-19 0.0445953 2.6821e-19 7.77815e-05)
(-0.0723815 -0.00612875 4.97527e-19 0.0723231 -1.1969e-18 5.83725e-05)
(-0.104656 0.0417191 2.81779e-19 0.104653 -1.42308e-19 3.77274e-06)
(-0.140524 0.101736 1.02004e-18 0.140327 3.17624e-19 0.00019651)
(-0.177127 0.175949 -1.49957e-18 0.176898 4.58421e-19 0.000228994)
(-0.20646 0.265416 -1.33191e-19 0.207685 1.14221e-19 -0.00122469)
(-0.231956 0.356445 2.90057e-19 0.229545 4.61686e-19 0.0024104)
(-0.244645 0.474491 4.74364e-19 0.247794 1.67517e-20 -0.00314987)
(-0.181464 0.52306 8.53321e-20 0.188138 -1.20093e-18 -0.00667441)
(0.000404269 -0.000331683 -8.7513e-22 -0.000407245 -1.02004e-21 2.97648e-06)
(0.000293004 -0.000428967 3.54378e-21 -0.000293125 3.71227e-21 1.20871e-07)
(0.000176423 -0.00049274 -8.29896e-22 -0.000176461 -7.36296e-22 3.78782e-08)
(4.95076e-05 -0.00052673 -6.52187e-21 -4.96849e-05 -6.89823e-21 1.77337e-07)
(-8.08521e-05 -0.000518641 -6.14105e-22 8.06359e-05 -8.24724e-22 2.16193e-07)
(-0.000200402 -0.0004686 6.45144e-21 0.000201271 6.91985e-21 -8.68895e-07)
(-0.000339776 -0.000445658 -1.65492e-21 0.000342848 -2.18419e-21 -3.07248e-06)
(-0.000397555 -0.000351262 -1.43786e-20 0.000399586 -1.43405e-20 -2.03182e-06)
(-0.000323318 -0.00023126 1.0321e-20 0.000322315 1.0003e-20 1.00273e-06)
(-0.000230175 -0.000178105 5.23559e-22 0.00022855 -5.00207e-22 1.62495e-06)
(0.000242874 -0.000384516 -1.60523e-21 -0.000235597 -2.65545e-21 -7.27612e-06)
(0.00832182 -0.000940286 -9.91557e-21 -0.00825596 -5.63358e-21 -6.58635e-05)
(0.0918985 -0.00984858 -1.95584e-19 -0.0917625 -1.29289e-19 -0.000135928)
(0.333888 -0.060286 1.76566e-19 -0.33451 -1.38008e-19 0.000621884)
(0.650521 -0.187098 -6.44626e-19 -0.650092 6.94929e-19 -0.000428902)
(0.758227 -0.344607 5.96858e-19 -0.757882 -4.05875e-19 -0.000344394)
(0.566613 -0.430717 -5.04912e-19 -0.579331 7.55964e-19 0.0127176)
(0.310926 -0.370475 -1.08283e-19 -0.315678 -1.68707e-19 0.00475261)
(0.161793 -0.262125 -2.38235e-19 -0.152264 -3.57649e-19 -0.00952898)
(0.0966081 -0.195402 2.89013e-19 -0.090851 -1.04089e-18 -0.00575715)
(0.0659556 -0.160776 4.53249e-19 -0.0655323 3.25103e-19 -0.000423318)
(0.0480954 -0.144924 -2.44555e-19 -0.0490396 -9.92519e-19 0.000944123)
(0.0384992 -0.13798 -2.23956e-19 -0.0390537 4.46888e-19 0.000554572)
(0.0341525 -0.136516 7.03685e-19 -0.0343665 -5.84232e-19 0.000214042)
(0.0329534 -0.138264 -4.16839e-19 -0.032942 4.95159e-20 -1.13236e-05)
(0.0332158 -0.141604 -5.61188e-19 -0.0331116 -3.6926e-19 -0.00010413)
(0.033597 -0.144974 1.00661e-18 -0.033505 -1.41627e-18 -9.19613e-05)
(0.0328274 -0.146622 -2.78029e-20 -0.0327791 1.06864e-18 -4.82975e-05)
(0.0296872 -0.144856 1.15089e-21 -0.0296869 -6.45423e-20 -2.98329e-07)
(0.0231339 -0.138085 -6.05007e-19 -0.0231733 1.05316e-18 3.93853e-05)
(0.0122736 -0.1246 6.66887e-20 -0.0123522 -6.35203e-19 7.8627e-05)
(-0.00359927 -0.102397 -1.54563e-20 0.00348469 3.24927e-19 0.000114574)
(-0.0247949 -0.0696521 -6.82677e-19 0.0246442 -5.7547e-19 0.000150698)
(-0.050988 -0.0248165 3.68467e-19 0.0508173 1.7137e-18 0.000170644)
(-0.0809952 0.0331617 -5.22284e-19 0.080848 2.80481e-19 0.000147221)
(-0.112987 0.104438 -4.89651e-19 0.112701 2.24046e-21 0.000285323)
(-0.143374 0.189169 6.97582e-19 0.143152 -1.84282e-18 0.00022155)
(-0.16525 0.285454 -7.62269e-20 0.165979 7.65577e-19 -0.000729024)