/*--------------------------------*- C++ -*----------------------------------*\
| =========                 |                                                 |
| \\      /  F ield         | OpenFOAM: The Open Source CFD Toolbox           |
|  \\    /   O peration     | Version:  2312                                  |
|   \\  /    A nd           | Website:  www.openfoam.com                      |
|    \\/     M anipulation  |                                                 |
\*---------------------------------------------------------------------------*/
FoamFile
{
    version     2.0;
    format      ascii;
    arch        "LSB;label=32;scalar=64";
    class       volScalarField;
    location    "700";
    object      turbulenceProperties:epsilon;
}
// * * * * * * * * * * * * * * * * * * * * * * * * * * * * * * * * * * * * * //

dimensions      [0 2 -3 0 0 0 0];

internalField   nonuniform List<scalar> 
11040
(
95.8489
99.2277
3.39834
1.19656
17.5773
18.9878
17.8828
15.6766
13.613
12.3159
11.1815
10.2042
9.44913
8.89361
8.46998
8.28806
8.32289
8.58923
9.06668
9.76261
10.7137
11.8983
13.3409
15.0987
17.1794
19.6326
22.3656
24.9714
27.1167
28.4179
28.496
27.1002
24.4004
20.8602
17.1986
10.9978
4.1051
1.42015
0.218622
2.84225
7.8379
0.867583
2.89379
28.3043
51.6804
48.8797
5.07331
0.55579
0.0680964
0.00451866
0.00471371
0.0253124
0.0469702
0.0678089
0.0869987
0.103721
0.120712
0.140135
0.160916
0.181456
0.20218
0.223287
0.245933
0.263082
0.266382
0.252733
0.227506
0.19618
0.15774
0.117535
0.0827352
0.0601395
0.0528736
0.0502789
0.057594
0.0779853
0.116666
0.184793
0.286139
0.634597
0.804049
8.15125
0.328523
0.25807
1.08701
15.2952
97.075
74.4122
15.9545
2.3696
0.595759
0.22981
0.0791846
0.0271904
0.00668795
0.000557637
0.00101158
0.00401944
0.00759358
0.0111965
0.0142825
0.0165373
0.0178862
0.0181786
0.0165685
0.0131551
0.00919954
0.00578132
0.00318509
0.00126257
0.000110158
0.000577642
0.00475467
0.0165047
0.0419212
0.0882717
0.165684
0.290978
0.486983
0.743103
1.47712
2.32973
3.61533
0.168867
0.125045
0.0818057
0.207835
15.3758
91.1979
91.9353
31.2131
5.21207
1.58989
0.615829
0.297559
0.159894
0.086273
0.0512659
0.0315088
0.021501
0.0159957
0.0132615
0.0123601
0.0124796
0.0135564
0.0158328
0.0191556
0.0224386
0.0246459
0.0249926
0.0231983
0.0199061
0.0173952
0.0200276
0.0344359
0.0700172
0.141155
0.267372
0.480189
0.821868
1.28096
2.33035
4.02563
2.613
0.0939025
0.0765633
0.0870927
0.0211489
0.0413305
10.0487
69.7854
98.513
49.8832
11.3572
3.19388
1.21953
0.632382
0.351474
0.225804
0.152822
0.114271
0.0917653
0.0793147
0.0733584
0.0706845
0.0700418
0.0713651
0.0743792
0.0769336
0.0774654
0.0748668
0.068665
0.0596438
0.0506489
0.0474401
0.0596837
0.102424
0.197373
0.373781
0.676639
1.16741
1.85312
3.06825
5.49262
3.07784
0.0489398
0.0412543
0.0392918
0.0478957
0.00415436
0.00237895
4.73929
43.6642
93.0229
67.431
23.9004
5.91709
2.2959
1.08273
0.633318
0.40553
0.2909
0.227019
0.190695
0.171817
0.161473
0.15591
0.153606
0.154154
0.154424
0.152166
0.145472
0.133059
0.115256
0.0952472
0.0804357
0.0840844
0.127127
0.239288
0.460276
0.847361
1.47799
2.38215
3.68136
6.45881
4.07767
0.0255531
0.0233411
0.0205963
0.0234713
0.0249072
0.00071273
1.12657e-06
1.41213
21.8969
71.4995
77.9222
41.4899
12.7493
4.02357
1.82963
1.02001
0.652377
0.466172
0.364259
0.311985
0.283467
0.268839
0.261663
0.25996
0.258669
0.254112
0.243022
0.22278
0.192759
0.156199
0.121992
0.106869
0.137469
0.25162
0.499253
0.947211
1.68187
2.74687
4.08728
6.81788
5.07645
0.0136163
0.013023
0.0126308
0.0116757
0.0137243
0.0149565
1.39231e-05
2.11605e-09
0.226463
8.22391
42.1027
74.3994
57.9078
25.8708
8.07285
3.12165
1.60037
0.99465
0.691874
0.539334
0.458344
0.420577
0.402774
0.397636
0.395826
0.390699
0.376423
0.347979
0.302772
0.243577
0.18016
0.132079
0.130926
0.221747
0.463128
0.927553
1.70117
2.8256
4.16085
6.48068
5.60823
0.00743214
0.00722597
0.00725612
0.00713556
0.00659939
0.00844293
0.00766016
8.52746e-05
0.000109512
0.000728669
1.97859
18.0637
52.7181
64.8179
42.1803
17.5307
5.97735
2.64524
1.49854
1.00993
0.766846
0.655507
0.602737
0.583149
0.576946
0.57061
0.553934
0.518172
0.457417
0.37166
0.26987
0.173002
0.116339
0.150323
0.339328
0.757129
1.48084
2.53892
3.77779
5.52061
5.34718
0.0041014
0.00403039
0.00409043
0.00418078
0.00411121
0.00387012
0.0049005
0.00389912
0.000309743
4.8026e-06
0.00249278
0.230885
5.22741
26.1583
53.5764
53.4578
31.9355
13.2951
4.99457
2.41738
1.49869
1.12124
0.946647
0.868593
0.834882
0.81755
0.796282
0.753173
0.676333
0.562118
0.416799
0.259492
0.126141
0.0695011
0.15625
0.457826
1.03743
1.90821
2.93448
4.11375
4.30736
0.00228293
0.00225845
0.00230481
0.0023785
0.00244687
0.0024019
0.00234173
0.0026809
0.00261456
0.000635672
1.68778e-06
9.8434e-05
0.000132622
0.804594
8.34578
29.5523
49.016
44.1872
25.8946
11.2875
4.63124
2.47689
1.74273
1.43333
1.28289
1.20559
1.15349
1.09187
0.997977
0.858181
0.670547
0.449511
0.229632
0.0624802
0.0121567
0.144452
0.509339
1.11026
1.83547
2.54515
2.81492
0.00127587
0.0012686
0.00129368
0.00134385
0.00139768
0.00144118
0.00143242
0.00140628
0.00150484
0.00161224
0.00086228
1.96414e-07
1.73124e-07
0.00135756
0.0436082
1.47559
9.99576
28.7379
42.8207
37.5776
22.6741
11.0534
5.38704
3.17058
2.32652
1.98494
1.8088
1.67186
1.52673
1.34578
1.11636
0.841729
0.546747
0.276301
0.0884476
0.0434607
0.181689
0.50122
0.914638
1.27101
1.42682
0.000713843
0.000712813
0.000725446
0.000754252
0.000790858
0.000826563
0.000855432
0.000863341
0.0008522
0.000872045
0.000975569
0.000721828
2.63423e-05
1.62721e-07
1.58255e-05
0.00324923
0.0928408
1.77588
9.66616
25.1808
36.5976
33.5442
23.2152
14.0442
8.1642
5.05887
3.58117
2.8956
2.54082
2.27278
1.98556
1.65259
1.29011
0.938591
0.649155
0.469762
0.433508
0.535939
0.714694
0.844352
0.811842
0.000398736
0.000399736
0.000405852
0.000421416
0.00044361
0.000467877
0.000491111
0.000511295
0.000522839
0.000520844
0.000522085
0.000581011
0.000539652
0.000155882
3.9343e-09
1.79182e-09
0.000112085
0.00487397
0.109298
1.57975
7.86809
19.6973
29.7675
31.5197
26.5749
19.858
13.9821
9.63084
6.75549
4.98964
3.9311
3.26789
2.79716
2.41688
2.10606
1.87726
1.75008
1.7216
1.76682
1.80196
1.57935
0.000221744
0.000223156
0.000226091
0.000234335
0.000247013
0.000261957
0.000277658
0.000292976
0.000306955
0.000317512
0.000320021
0.000321666
0.000344891
0.000350063
0.000264008
1.48072e-05
1.23939e-07
9.39477e-12
0.00032315
0.00407134
0.0768083
0.966824
4.40141
11.4218
19.9875
26.1169
27.672
25.5981
21.9117
17.8966
14.1243
10.9005
8.38946
6.60647
5.46094
4.8175
4.5465
4.49968
4.55926
4.65905
4.32676
0.000122497
0.000123685
0.000125091
0.000129395
0.000136417
0.000145081
0.000154675
0.000164781
0.000174875
0.000184363
0.00019243
0.000196876
0.000200207
0.000205031
0.000224454
0.000196573
0.000113626
2.32472e-07
1.104e-08
3.1997e-13
0.000385013
0.00196555
0.0154681
0.237242
1.27359
3.97665
8.66349
14.4961
19.8666
23.4762
24.9628
24.6844
23.2165
21.0579
18.6384
16.2932
14.2656
12.6357
11.4611
10.8353
9.99177
6.74597e-05
6.82777e-05
6.89731e-05
7.12306e-05
7.50634e-05
7.99121e-05
8.54637e-05
9.15435e-05
9.79589e-05
0.000104426
0.000110655
0.000116281
0.000120799
0.00012361
0.000127422
0.000133698
0.000142429
0.000110354
3.74536e-05
9.20363e-09
2.8678e-09
1.58103e-13
3.30925e-05
0.0010201
8.76211e-07
0.0123987
0.121482
0.562603
1.70447
3.85947
7.07899
11.0605
15.2696
19.1597
22.335
24.5681
25.867
26.3066
26.1279
25.841
24.5729
3.78719e-05
3.8412e-05
3.88067e-05
4.00689e-05
4.22348e-05
4.50086e-05
4.82389e-05
5.18581e-05
5.57754e-05
5.98746e-05
6.40136e-05
6.80587e-05
7.18786e-05
7.52789e-05
7.78748e-05
8.02622e-05
8.32454e-05
8.98559e-05
9.06481e-05
6.71698e-05
1.79583e-05
4.83764e-09
2.14013e-09
3.78967e-12
4.81649e-11
3.7682e-05
0.000741895
0.000857999
0.000259772
0.00952164
0.071513
0.287508
0.810502
1.8204
3.46256
5.78587
8.73236
12.1622
15.828
19.671
22.7186
2.20648e-05
2.24267e-05
2.26722e-05
2.34202e-05
2.46996e-05
2.63484e-05
2.82925e-05
3.05109e-05
3.29633e-05
3.5587e-05
3.83134e-05
4.10673e-05
4.37768e-05
4.63871e-05
4.87917e-05
5.09303e-05
5.25748e-05
5.45877e-05
5.73687e-05
6.10843e-05
5.97487e-05
4.21771e-05
1.79404e-05
1.2228e-07
4.86258e-09
1.89282e-10
8.87624e-13
0
2.23384e-08
2.3823e-05
0.000488008
0.000553323
0.000264973
0.000592424
0.00702415
0.0411178
0.146599
0.393174
0.866011
1.66795
2.84083
1.3332e-05
1.35698e-05
1.37276e-05
1.41869e-05
1.49668e-05
1.59745e-05
1.7172e-05
1.85516e-05
2.00977e-05
2.17792e-05
2.35637e-05
2.54168e-05
2.72971e-05
2.91619e-05
3.0971e-05
3.26919e-05
3.42659e-05
3.56483e-05
3.68797e-05
3.84625e-05
4.06637e-05
4.25572e-05
4.21357e-05
3.31401e-05
1.84332e-05
6.39762e-06
3.78546e-08
2.23125e-09
1.38229e-10
3.37685e-11
7.83209e-14
0
0
2.77921e-07
2.30417e-05
0.000319738
0.000465381
0.000181907
3.91542e-05
1.87766e-07
0.00359873
8.27524e-06
8.43017e-06
8.53436e-06
8.82429e-06
9.31167e-06
9.94222e-06
1.06956e-05
1.15688e-05
1.25543e-05
1.36368e-05
1.47993e-05
1.60264e-05
1.72979e-05
1.85899e-05
1.98778e-05
2.1137e-05
2.23491e-05
2.34896e-05
2.45273e-05
2.54622e-05
2.63639e-05
2.75554e-05
2.89082e-05
3.06341e-05
3.05231e-05
2.87395e-05
2.27885e-05
1.41667e-05
6.50967e-06
1.85139e-06
5.21862e-09
7.43089e-10
8.02118e-11
3.04091e-11
7.35195e-12
1.00776e-13
0
0
0
2.15075e-12
7.26055e-06
5.24818e-06
5.34937e-06
5.42018e-06
5.60757e-06
5.91848e-06
6.32087e-06
6.80336e-06
7.36469e-06
8.001e-06
8.70408e-06
9.46457e-06
1.02747e-05
1.11242e-05
1.19995e-05
1.28873e-05
1.37732e-05
1.46432e-05
1.54846e-05
1.62862e-05
1.70391e-05
1.77087e-05
1.83238e-05
1.892e-05
1.96622e-05
2.055e-05
2.1403e-05
2.23866e-05
2.25075e-05
2.14067e-05
1.9473e-05
1.56083e-05
1.07244e-05
6.03474e-06
2.57081e-06
7.15876e-07
1.16052e-08
5.85771e-10
4.53862e-11
2.56753e-11
1.19555e-11
4.11338e-12
3.38573e-06
3.45207e-06
3.50116e-06
3.6244e-06
3.82591e-06
4.08663e-06
4.39999e-06
4.76536e-06
5.18041e-06
5.6406e-06
6.14063e-06
6.67617e-06
7.24172e-06
7.82948e-06
8.4313e-06
9.03898e-06
9.64377e-06
1.0237e-05
1.08105e-05
1.13604e-05
1.18686e-05
1.23273e-05
1.2742e-05
1.31065e-05
1.34615e-05
1.38215e-05
1.42599e-05
1.47796e-05
1.53119e-05
1.57503e-05
1.6207e-05
1.62443e-05
1.57578e-05
1.47235e-05
1.33136e-05
1.1222e-05
8.69968e-06
6.09423e-06
3.88723e-06
2.03837e-06
8.11514e-07
2.21478e-06
2.25851e-06
2.2931e-06
2.37535e-06
2.50772e-06
2.67883e-06
2.88479e-06
3.12515e-06
3.39841e-06
3.70189e-06
4.03243e-06
4.38732e-06
4.76353e-06
5.15631e-06
5.56059e-06
5.97127e-06
6.38294e-06
6.78998e-06
7.18666e-06
7.56986e-06
7.92749e-06
8.25476e-06
8.55512e-06
8.81791e-06
9.04498e-06
9.24192e-06
9.41371e-06
9.57425e-06
9.74123e-06
9.9141e-06
1.01149e-05
1.03374e-05
1.05579e-05
1.07514e-05
1.0888e-05
1.10107e-05
1.10102e-05
1.08323e-05
1.04823e-05
9.905e-06
9.31079e-06
1.46533e-06
1.49432e-06
1.519e-06
1.57454e-06
1.66247e-06
1.77596e-06
1.91265e-06
2.07214e-06
2.25343e-06
2.45483e-06
2.67433e-06
2.91024e-06
3.16068e-06
3.42268e-06
3.69296e-06
3.96822e-06
4.24494e-06
4.51941e-06
4.78772e-06
5.04763e-06
5.29046e-06
5.51306e-06
5.71763e-06
5.89739e-06
6.05245e-06
6.18493e-06
6.2951e-06
6.38319e-06
6.45116e-06
6.50215e-06
6.53853e-06
6.56558e-06
6.5871e-06
6.60765e-06
6.62688e-06
6.6482e-06
6.66946e-06
6.68978e-06
6.7094e-06
6.7034e-06
6.73312e-06
9.78571e-07
9.97913e-07
1.01571e-06
1.05361e-06
1.11258e-06
1.18854e-06
1.28003e-06
1.38667e-06
1.50775e-06
1.64214e-06
1.78856e-06
1.94588e-06
2.11279e-06
2.2874e-06
2.46755e-06
2.65103e-06
2.8355e-06
3.01845e-06
3.19721e-06
3.37019e-06
3.53133e-06
3.67866e-06
3.81379e-06
3.93176e-06
4.03251e-06
4.11742e-06
4.18712e-06
4.24188e-06
4.28204e-06
4.30834e-06
4.32142e-06
4.32222e-06
4.31145e-06
4.29081e-06
4.26212e-06
4.2261e-06
4.18333e-06
4.13617e-06
4.08919e-06
4.03398e-06
4.00219e-06
6.58536e-07
6.71554e-07
6.84493e-07
7.10589e-07
7.50494e-07
8.0176e-07
8.63445e-07
9.35214e-07
1.01654e-06
1.10666e-06
1.2047e-06
1.30989e-06
1.42129e-06
1.53766e-06
1.65753e-06
1.7794e-06
1.90167e-06
2.02264e-06
2.14047e-06
2.25408e-06
2.35926e-06
2.45488e-06
2.54226e-06
2.61789e-06
2.68159e-06
2.73427e-06
2.7764e-06
2.80824e-06
2.83025e-06
2.843e-06
2.84709e-06
2.8432e-06
2.83171e-06
2.81348e-06
2.78942e-06
2.75991e-06
2.72501e-06
2.68563e-06
2.64465e-06
2.59585e-06
2.56449e-06
4.45977e-07
4.54808e-07
4.64294e-07
4.82434e-07
5.09663e-07
5.44531e-07
5.86405e-07
6.34999e-07
6.89916e-07
7.50626e-07
8.16512e-07
8.8702e-07
9.61502e-07
1.0391e-06
1.11878e-06
1.19953e-06
1.28025e-06
1.35978e-06
1.43686e-06
1.51074e-06
1.57856e-06
1.6397e-06
1.69528e-06
1.74286e-06
1.78228e-06
1.81417e-06
1.83891e-06
1.85667e-06
1.86781e-06
1.87276e-06
1.87199e-06
1.86602e-06
1.85518e-06
1.84011e-06
1.82144e-06
1.79946e-06
1.77425e-06
1.7464e-06
1.71775e-06
1.68412e-06
1.66255e-06
3.03583e-07
3.09644e-07
3.16658e-07
3.29383e-07
3.4812e-07
3.72009e-07
4.00619e-07
4.33706e-07
4.70969e-07
5.12034e-07
5.5646e-07
6.03841e-07
6.53726e-07
7.05496e-07
7.58447e-07
8.11866e-07
8.65005e-07
9.17061e-07
9.67187e-07
1.01488e-06
1.05819e-06
1.09683e-06
1.13171e-06
1.16117e-06
1.18511e-06
1.20398e-06
1.21804e-06
1.22745e-06
1.23248e-06
1.23343e-06
1.23064e-06
1.22449e-06
1.21521e-06
1.20323e-06
1.189e-06
1.17272e-06
1.15446e-06
1.13461e-06
1.11433e-06
1.09114e-06
1.07538e-06
2.07511e-07
2.11725e-07
2.16962e-07
2.25975e-07
2.38976e-07
2.55463e-07
2.75135e-07
2.97787e-07
3.23193e-07
3.5108e-07
3.81136e-07
4.13056e-07
4.46525e-07
4.81093e-07
5.16275e-07
5.51576e-07
5.86484e-07
6.20448e-07
6.52893e-07
6.83487e-07
7.10932e-07
7.35102e-07
7.56743e-07
7.74727e-07
7.88985e-07
7.99856e-07
8.0755e-07
8.12191e-07
8.13954e-07
8.13071e-07
8.09781e-07
8.04339e-07
7.96917e-07
7.87803e-07
7.77286e-07
7.65507e-07
7.5252e-07
7.38582e-07
7.24374e-07
7.08563e-07
6.97011e-07
1.42302e-07
1.45285e-07
1.4923e-07
1.55678e-07
1.64779e-07
1.76244e-07
1.89857e-07
2.05451e-07
2.22857e-07
2.41875e-07
2.62279e-07
2.83842e-07
3.06337e-07
3.2945e-07
3.52836e-07
3.76152e-07
3.9905e-07
4.21157e-07
4.42081e-07
4.61612e-07
4.78879e-07
4.9386e-07
5.07137e-07
5.17958e-07
5.26284e-07
5.32362e-07
5.3635e-07
5.3835e-07
5.38487e-07
5.36922e-07
5.33821e-07
5.29356e-07
5.23646e-07
5.16881e-07
5.0925e-07
5.00846e-07
4.91713e-07
4.82019e-07
4.7215e-07
4.61478e-07
4.52989e-07
9.78235e-08
9.99788e-08
1.0298e-07
1.07641e-07
1.1407e-07
1.22104e-07
1.31586e-07
1.42385e-07
1.5437e-07
1.67397e-07
1.81299e-07
1.95911e-07
2.11064e-07
2.26542e-07
2.421e-07
2.57501e-07
2.72507e-07
2.86871e-07
3.00331e-07
3.12752e-07
3.23558e-07
3.32771e-07
3.40844e-07
3.47271e-07
3.52034e-07
3.55314e-07
3.57228e-07
3.57852e-07
3.57274e-07
3.55606e-07
3.52962e-07
3.49458e-07
3.45177e-07
3.4024e-07
3.34772e-07
3.28833e-07
3.22455e-07
3.15753e-07
3.08924e-07
3.01771e-07
2.95462e-07
6.73657e-08
6.89593e-08
7.12617e-08
7.46667e-08
7.92512e-08
8.4926e-08
9.15768e-08
9.91014e-08
1.074e-07
1.16366e-07
1.25879e-07
1.35814e-07
1.46049e-07
1.56436e-07
1.66799e-07
1.76976e-07
1.86807e-07
1.96128e-07
2.04764e-07
2.12635e-07
2.19358e-07
2.24971e-07
2.29823e-07
2.33573e-07
2.36215e-07
2.37882e-07
2.38661e-07
2.38605e-07
2.37779e-07
2.36258e-07
2.34121e-07
2.31445e-07
2.28288e-07
2.24726e-07
2.20842e-07
2.16673e-07
2.12242e-07
2.07627e-07
2.02915e-07
1.9815e-07
1.93435e-07
4.6443e-08
4.76482e-08
4.94301e-08
5.19425e-08
5.52438e-08
5.92865e-08
6.39876e-08
6.92666e-08
7.5049e-08
8.12546e-08
8.77953e-08
9.4579e-08
1.01517e-07
1.08506e-07
1.15424e-07
1.22158e-07
1.28604e-07
1.34652e-07
1.40191e-07
1.4517e-07
1.49341e-07
1.52742e-07
1.55637e-07
1.57796e-07
1.59221e-07
1.60005e-07
1.60213e-07
1.59883e-07
1.5906e-07
1.57794e-07
1.56139e-07
1.54146e-07
1.51853e-07
1.4931e-07
1.46569e-07
1.43655e-07
1.40584e-07
1.3741e-07
1.34156e-07
1.30996e-07
1.27422e-07
3.20367e-08
3.29684e-08
3.43558e-08
3.62291e-08
3.86305e-08
4.1537e-08
4.48876e-08
4.86199e-08
5.26773e-08
5.7e-08
6.1523e-08
6.61787e-08
7.09016e-08
7.56207e-08
8.02523e-08
8.47164e-08
8.89455e-08
9.2868e-08
9.64121e-08
9.95469e-08
1.02113e-07
1.04143e-07
1.05835e-07
1.07036e-07
1.07748e-07
1.08041e-07
1.07962e-07
1.07538e-07
1.06799e-07
1.05781e-07
1.04518e-07
1.03046e-07
1.0139e-07
9.95817e-08
9.76541e-08
9.56234e-08
9.35e-08
9.13221e-08
8.90799e-08
8.69936e-08
8.4299e-08
2.21003e-08
2.28341e-08
2.3921e-08
2.53309e-08
2.70962e-08
2.92063e-08
3.1616e-08
3.42773e-08
3.71469e-08
4.01803e-08
4.33291e-08
4.65439e-08
4.9777e-08
5.29793e-08
5.60939e-08
5.90663e-08
6.18522e-08
6.44068e-08
6.66853e-08
6.86702e-08
7.02586e-08
7.14763e-08
7.24706e-08
7.31368e-08
7.34791e-08
7.35461e-08
7.33709e-08
7.29726e-08
7.23717e-08
7.15922e-08
7.06576e-08
6.95904e-08
6.84078e-08
6.71303e-08
6.57793e-08
6.43651e-08
6.28946e-08
6.13952e-08
5.98413e-08
5.84692e-08
5.63895e-08
1.52405e-08
1.58271e-08
1.66819e-08
1.77531e-08
1.90645e-08
2.06118e-08
2.23615e-08
2.42766e-08
2.63241e-08
2.84701e-08
3.06789e-08
3.29142e-08
3.51412e-08
3.73252e-08
3.94277e-08
4.14106e-08
4.32454e-08
4.49036e-08
4.63572e-08
4.75963e-08
4.8556e-08
4.92567e-08
4.98075e-08
5.01386e-08
5.02551e-08
5.0192e-08
4.99731e-08
4.96126e-08
4.91247e-08
4.85255e-08
4.78306e-08
4.70549e-08
4.62096e-08
4.53076e-08
4.43625e-08
4.33802e-08
4.23661e-08
4.13383e-08
4.02695e-08
3.93658e-08
3.78141e-08
1.05031e-08
1.0977e-08
1.16517e-08
1.24728e-08
1.34571e-08
1.46034e-08
1.58861e-08
1.72772e-08
1.87511e-08
2.02827e-08
2.1845e-08
2.3412e-08
2.49584e-08
2.64614e-08
2.7895e-08
2.92343e-08
3.04608e-08
3.15583e-08
3.25096e-08
3.33102e-08
3.39183e-08
3.43471e-08
3.46762e-08
3.48573e-08
3.4894e-08
3.4811e-08
3.46248e-08
3.43448e-08
3.39807e-08
3.35434e-08
3.30435e-08
3.24907e-08
3.18929e-08
3.12584e-08
3.05966e-08
2.99113e-08
2.92061e-08
2.84943e-08
2.77471e-08
2.71605e-08
2.59296e-08
7.23289e-09
7.61773e-09
8.15143e-09
8.78621e-09
9.53289e-09
1.03904e-08
1.13394e-08
1.23585e-08
1.34287e-08
1.4531e-08
1.56453e-08
1.67523e-08
1.78328e-08
1.88704e-08
1.98468e-08
2.07448e-08
2.15524e-08
2.226e-08
2.28575e-08
2.33432e-08
2.36925e-08
2.39167e-08
2.40745e-08
2.41339e-08
2.40985e-08
2.39865e-08
2.38098e-08
2.35752e-08
2.32893e-08
2.29594e-08
2.25924e-08
2.21944e-08
2.17704e-08
2.13256e-08
2.08656e-08
2.03921e-08
1.99085e-08
1.94222e-08
1.89129e-08
1.85202e-08
1.76456e-08
4.97666e-09
5.29002e-09
5.7129e-09
6.20684e-09
6.77808e-09
7.42514e-09
8.13308e-09
8.88565e-09
9.66855e-09
1.0468e-08
1.12699e-08
1.20605e-08
1.28268e-08
1.35586e-08
1.42452e-08
1.48753e-08
1.54415e-08
1.59378e-08
1.63578e-08
1.67005e-08
1.69496e-08
1.71091e-08
1.72223e-08
1.72661e-08
1.72431e-08
1.71659e-08
1.70429e-08
1.68787e-08
1.66781e-08
1.64462e-08
1.6188e-08
1.5908e-08
1.56098e-08
1.5297e-08
1.49739e-08
1.46422e-08
1.43033e-08
1.39639e-08
1.36023e-08
1.3359e-08
1.26193e-08
3.42124e-09
3.67762e-09
4.01404e-09
4.40038e-09
4.83893e-09
5.32861e-09
5.859e-09
6.41819e-09
6.99512e-09
7.57918e-09
8.15976e-09
8.72665e-09
9.26937e-09
9.77728e-09
1.02408e-08
1.06527e-08
1.10098e-08
1.13109e-08
1.15544e-08
1.17409e-08
1.1862e-08
1.19247e-08
1.19586e-08
1.19488e-08
1.18977e-08
1.18142e-08
1.17042e-08
1.15709e-08
1.1417e-08
1.12459e-08
1.10604e-08
1.0863e-08
1.0656e-08
1.04413e-08
1.02211e-08
9.99559e-09
9.76752e-09
9.53798e-09
9.29944e-09
9.11925e-09
8.66565e-09
2.35285e-09
2.56373e-09
2.83337e-09
3.13746e-09
3.4745e-09
3.84351e-09
4.23871e-09
4.65322e-09
5.08006e-09
5.51102e-09
5.93744e-09
6.35218e-09
6.75117e-09
7.13318e-09
7.49543e-09
7.82947e-09
8.12763e-09
8.38546e-09
8.60039e-09
8.77298e-09
8.89708e-09
8.97203e-09
9.02265e-09
9.03779e-09
9.01961e-09
8.97471e-09
8.90765e-09
8.82101e-09
8.7173e-09
8.59922e-09
8.4694e-09
8.33013e-09
8.18327e-09
8.03045e-09
7.874e-09
7.71482e-09
7.55332e-09
7.39336e-09
7.21867e-09
7.13137e-09
6.66566e-09
1.626e-09
1.79762e-09
2.01215e-09
2.25107e-09
2.51048e-09
2.78867e-09
3.08159e-09
3.3854e-09
3.69729e-09
4.01366e-09
4.32834e-09
4.63155e-09
4.91123e-09
5.15597e-09
5.3615e-09
5.53378e-09
5.68073e-09
5.80434e-09
5.904e-09
5.97815e-09
6.02407e-09
6.04563e-09
6.05535e-09
6.04599e-09
6.01861e-09
5.97732e-09
5.9248e-09
5.86236e-09
5.79119e-09
5.71261e-09
5.62785e-09
5.53782e-09
5.44355e-09
5.34566e-09
5.24508e-09
5.14141e-09
5.03727e-09
4.92986e-09
4.82404e-09
4.72321e-09
4.54479e-09
1.13318e-09
1.26963e-09
1.43429e-09
1.61476e-09
1.80897e-09
2.01735e-09
2.23709e-09
2.46352e-09
2.69211e-09
2.92019e-09
3.14836e-09
3.38066e-09
3.622e-09
3.87479e-09
4.13179e-09
4.37072e-09
4.57424e-09
4.74225e-09
4.878e-09
4.98586e-09
5.06394e-09
5.11041e-09
5.14092e-09
5.15073e-09
5.14193e-09
5.11848e-09
5.08314e-09
5.03767e-09
4.98372e-09
4.92306e-09
4.8573e-09
4.78791e-09
4.71592e-09
4.64233e-09
4.56855e-09
4.49548e-09
4.42237e-09
4.35345e-09
4.27175e-09
4.27008e-09
3.93582e-09
7.90235e-10
9.01371e-10
1.02692e-09
1.15688e-09
1.2915e-09
1.43558e-09
1.59205e-09
1.76103e-09
1.93897e-09
2.11742e-09
2.28357e-09
2.42362e-09
2.52825e-09
2.5962e-09
2.63981e-09
2.68716e-09
2.75149e-09
2.82159e-09
2.8885e-09
2.94646e-09
2.9937e-09
3.03197e-09
3.06373e-09
3.08566e-09
3.09789e-09
3.10214e-09
3.09957e-09
3.09074e-09
3.07618e-09
3.05646e-09
3.03211e-09
3.00352e-09
2.97119e-09
2.93532e-09
2.89631e-09
2.85355e-09
2.80984e-09
2.75943e-09
2.71829e-09
2.63536e-09
2.64607e-09
5.49408e-10
6.50912e-10
7.59758e-10
8.6291e-10
9.57648e-10
1.04816e-09
1.13953e-09
1.23739e-09
1.34844e-09
1.48024e-09
1.6402e-09
1.83389e-09
2.06167e-09
2.3177e-09
2.58149e-09
2.80302e-09
2.95983e-09
3.07818e-09
3.16966e-09
3.23995e-09
3.28718e-09
3.31243e-09
3.32493e-09
3.32352e-09
3.31055e-09
3.28885e-09
3.26042e-09
3.22683e-09
3.18955e-09
3.15003e-09
3.10956e-09
3.06933e-09
3.03011e-09
2.99276e-09
2.9583e-09
2.92807e-09
2.90003e-09
2.88097e-09
2.84715e-09
2.90914e-09
2.61005e-09
4.01693e-10
4.87166e-10
5.78913e-10
6.70048e-10
7.56268e-10
8.35256e-10
9.03636e-10
9.58277e-10
9.98056e-10
1.02426e-09
1.04002e-09
1.04935e-09
1.05647e-09
1.06217e-09
1.07027e-09
1.10598e-09
1.1717e-09
1.24672e-09
1.3238e-09
1.39788e-09
1.4673e-09
1.53173e-09
1.59173e-09
1.64629e-09
1.69464e-09
1.73697e-09
1.77349e-09
1.80417e-09
1.82892e-09
1.84768e-09
1.86041e-09
1.867e-09
1.86749e-09
1.86156e-09
1.84943e-09
1.8303e-09
1.8067e-09
1.77125e-09
1.74617e-09
1.64864e-09
1.74428e-09
4.69596e-10
5.89907e-10
6.58377e-10
6.69742e-10
6.49825e-10
6.36874e-10
6.63141e-10
7.45985e-10
8.86666e-10
1.07353e-09
1.28718e-09
1.50616e-09
1.71117e-09
1.8915e-09
2.03674e-09
2.10602e-09
2.10375e-09
2.06886e-09
2.01998e-09
1.96444e-09
1.8999e-09
1.84158e-09
1.77968e-09
1.71754e-09
1.65685e-09
1.59801e-09
1.54113e-09
1.48638e-09
1.43384e-09
1.38348e-09
1.33514e-09
1.28869e-09
1.24367e-09
1.19978e-09
1.15707e-09
1.11606e-09
1.07431e-09
1.03611e-09
9.86696e-10
9.88443e-10
7.9969e-10
551.771
367.19
205.052
108.051
51.9504
22.9899
9.28162
3.16814
0.749691
0.083172
0.0206725
0.00336251
0.000135603
6.53378e-08
2.70494e-05
3.98205e-05
2.65907e-05
1.99736e-05
1.56674e-05
1.19768e-05
9.17239e-06
6.93104e-06
5.23348e-06
3.92952e-06
2.94484e-06
2.19392e-06
1.63788e-06
1.20985e-06
8.90813e-07
6.52302e-07
4.73545e-07
3.42638e-07
2.4548e-07
1.74995e-07
1.24393e-07
8.76831e-08
6.16334e-08
4.3053e-08
3.00832e-08
2.08343e-08
1.44444e-08
1.00411e-08
6.97703e-09
4.86688e-09
3.42063e-09
2.42805e-09
1.74617e-09
1.27522e-09
9.44515e-10
7.13437e-10
5.4813e-10
4.2837e-10
3.39803e-10
2.72761e-10
2.20252e-10
1.77064e-10
1.43487e-10
1.13624e-10
8.9941e-11
6.86983e-11
5.23983e-11
3.73373e-11
2.76167e-11
2.06042e-11
1.5988e-11
1.58653e-11
1.72012e-11
2.10405e-11
3.10199e-11
3.33017e-11
5.70011e-11
4.60718e-11
1.03858e-10
6.85353e-11
296.12
440.309
307.867
182.37
98.9294
49.9116
23.5348
10.0708
3.56602
0.843891
0.0862007
0.0178864
0.00198263
4.0598e-05
9.11845e-08
2.22188e-05
3.17514e-05
2.09015e-05
1.57163e-05
1.22174e-05
9.37166e-06
7.0763e-06
5.34729e-06
4.01421e-06
3.00718e-06
2.23709e-06
1.66796e-06
1.23191e-06
9.05589e-07
6.626e-07
4.80522e-07
3.47363e-07
2.488e-07
1.77081e-07
1.25737e-07
8.8513e-08
6.2096e-08
4.32787e-08
3.01734e-08
2.08315e-08
1.43508e-08
9.93781e-09
6.86045e-09
4.74236e-09
3.30382e-09
2.31835e-09
1.64791e-09
1.18668e-09
8.6668e-10
6.44672e-10
4.87546e-10
3.75581e-10
2.93518e-10
2.32758e-10
1.84908e-10
1.46699e-10
1.18033e-10
9.22209e-11
7.26476e-11
5.49437e-11
4.20509e-11
2.98795e-11
2.31479e-11
1.85422e-11
1.57855e-11
1.7363e-11
1.98439e-11
2.44038e-11
3.50395e-11
3.68775e-11
6.10708e-11
4.75707e-11
1.07223e-10
6.75746e-11
101.768
308.919
321.866
235.009
147.65
84.9064
45.7127
22.954
10.3178
3.75691
0.893495
0.0901127
0.0150865
0.00114144
2.71261e-05
7.27462e-08
1.38769e-05
2.60821e-05
1.68595e-05
1.21984e-05
9.59109e-06
7.31577e-06
5.50432e-06
4.12766e-06
3.09182e-06
2.3e-06
1.70808e-06
1.26197e-06
9.25783e-07
6.75637e-07
4.89399e-07
3.52583e-07
2.52473e-07
1.79296e-07
1.26863e-07
8.91529e-08
6.23124e-08
4.3287e-08
3.0031e-08
2.06645e-08
1.41171e-08
9.70562e-09
6.64221e-09
4.53781e-09
3.12129e-09
2.15691e-09
1.50827e-09
1.06586e-09
7.63443e-10
5.55991e-10
4.11925e-10
3.10843e-10
2.38203e-10
1.85462e-10
1.44039e-10
1.13228e-10
8.9576e-11
6.93061e-11
5.39313e-11
4.08538e-11
3.10818e-11
2.33473e-11
1.91612e-11
1.68365e-11
1.65488e-11
1.91157e-11
2.37091e-11
2.84148e-11
3.95949e-11
4.0706e-11
6.55012e-11
4.90423e-11
1.10186e-10
6.64572e-11
39.2955
179.363
264.925
245.692
183.31
121.307
74.2526
42.6053
22.6172
10.5884
3.95954
0.967089
0.103
0.0130619
0.000884054
9.07713e-05
4.12793e-08
5.07378e-06
2.15061e-05
1.45797e-05
9.47384e-06
7.33551e-06
5.68389e-06
4.2625e-06
3.17715e-06
2.36236e-06
1.74993e-06
1.29137e-06
9.45589e-07
6.88528e-07
4.97858e-07
3.576e-07
2.55583e-07
1.81055e-07
1.27667e-07
8.94924e-08
6.23183e-08
4.31303e-08
2.97644e-08
2.03843e-08
1.38223e-08
9.42234e-09
6.38548e-09
4.30986e-09
2.92363e-09
1.98671e-09
1.36428e-09
9.44118e-10
6.61106e-10
4.70101e-10
3.39937e-10
2.50294e-10
1.87354e-10
1.42617e-10
1.08227e-10
8.39562e-11
6.51867e-11
4.99917e-11
3.85999e-11
2.95665e-11
2.28829e-11
1.87141e-11
1.67106e-11
1.63505e-11
1.80434e-11
2.14765e-11
2.75546e-11
3.22742e-11
4.37154e-11
4.39826e-11
6.92152e-11
4.99305e-11
1.123e-10
6.51627e-11
18.9884
97.8125
186.248
216.468
193.283
148.216
103.206
66.9634
40.6497
22.6334
11.0125
4.27287
1.10428
0.133588
0.0126623
0.00115068
0.000343528
1.14463e-08
2.32348e-07
1.28326e-05
1.30813e-05
7.87737e-06
5.62668e-06
4.35018e-06
3.27852e-06
2.4244e-06
1.78795e-06
1.31767e-06
9.63512e-07
7.00023e-07
5.05018e-07
3.61867e-07
2.57941e-07
1.82241e-07
1.28116e-07
8.9533e-08
6.21289e-08
4.28403e-08
2.9415e-08
2.00284e-08
1.34899e-08
9.11609e-09
6.11344e-09
4.07542e-09
2.72424e-09
1.81941e-09
1.2249e-09
8.28285e-10
5.65731e-10
3.91724e-10
2.75363e-10
1.97083e-10
1.4349e-10
1.06428e-10
7.88223e-11
6.00198e-11
4.59023e-11
3.50166e-11
2.7249e-11
2.14908e-11
1.76927e-11
1.60128e-11
1.5886e-11
1.71727e-11
2.02124e-11
2.44433e-11
3.12218e-11
3.58841e-11
4.7348e-11
4.66977e-11
7.21359e-11
5.02251e-11
1.13612e-10
6.36894e-11
11.0305
52.8525
118.309
166.4
176.362
156.777
124.246
90.7726
62.0565
39.5802
23.0402
11.6959
4.77575
1.34796
0.195264
0.0154259
0.00184689
0.000701182
3.14674e-10
4.09014e-08
4.48911e-06
1.05282e-05
6.8537e-06
4.34864e-06
3.27061e-06
2.49388e-06
1.84079e-06
1.34525e-06
9.80133e-07
7.11354e-07
5.12277e-07
3.66062e-07
2.60111e-07
1.83251e-07
1.28447e-07
8.94765e-08
6.18606e-08
4.2494e-08
2.90335e-08
1.96498e-08
1.31463e-08
8.80662e-09
5.84152e-09
3.8447e-09
2.53015e-09
1.65924e-09
1.09318e-09
7.20639e-10
4.7877e-10
3.21593e-10
2.18764e-10
1.51457e-10
1.06702e-10
7.68059e-11
5.53354e-11
4.13695e-11
3.13934e-11
2.41743e-11
1.94821e-11
1.64202e-11
1.49925e-11
1.52074e-11
1.6576e-11
1.91673e-11
2.31323e-11
2.7919e-11
3.4963e-11
3.94387e-11
5.07799e-11
4.91545e-11
7.45996e-11
5.02124e-11
1.14409e-10
6.22029e-11
7.64558
28.9102
70.5789
115.027
141.938
145.21
130.617
107.13
81.8312
58.6378
39.1639
23.8469
12.7133
5.5477
1.74935
0.313947
0.0262974
0.00297053
0.00120633
0
1.08609e-08
5.73148e-07
6.44996e-06
6.21882e-06
3.6239e-06
2.4349e-06
1.84633e-06
1.38485e-06
1.00563e-06
7.23277e-07
5.19071e-07
3.70515e-07
2.62709e-07
1.84477e-07
1.28829e-07
8.9431e-08
6.16073e-08
4.21598e-08
2.86583e-08
1.92794e-08
1.28118e-08
8.50616e-09
5.57841e-09
3.62335e-09
2.34576e-09
1.50837e-09
9.7081e-10
6.22369e-10
4.0071e-10
2.59808e-10
1.70117e-10
1.13173e-10
7.66456e-11
5.32612e-11
3.72306e-11
2.75653e-11
2.10816e-11
1.69269e-11
1.47087e-11
1.38395e-11
1.42043e-11
1.59455e-11
1.8415e-11
2.19524e-11
2.65672e-11
3.16142e-11
3.87384e-11
4.28898e-11
5.39965e-11
5.13806e-11
7.66953e-11
5.0016e-11
1.14805e-10
6.07807e-11
6.07985
16.1425
40.4857
73.2639
102.633
119.19
120.822
110.755
94.0097
74.8568
56.0769
39.1842
25.0227
14.1183
6.65959
2.3805
0.537097
0.0591917
0.00531585
0.00174008
8.63207e-05
6.52871e-10
1.97734e-08
1.92724e-06
4.85884e-06
3.32504e-06
1.92313e-06
1.33526e-06
1.0079e-06
7.43365e-07
5.31196e-07
3.75281e-07
2.64841e-07
1.85769e-07
1.29462e-07
8.95345e-08
6.14179e-08
4.1854e-08
2.83082e-08
1.89355e-08
1.25017e-08
8.22449e-09
5.33096e-09
3.41567e-09
2.17403e-09
1.36898e-09
8.59249e-10
5.343e-10
3.31938e-10
2.06557e-10
1.29338e-10
8.20154e-11
5.30184e-11
3.54164e-11
2.41533e-11
1.81053e-11
1.4471e-11
1.27651e-11
1.24463e-11
1.32621e-11
1.49336e-11
1.78137e-11
2.10296e-11
2.51624e-11
3.01827e-11
3.52625e-11
4.23443e-11
4.60716e-11
5.6833e-11
5.32439e-11
7.83307e-11
4.96158e-11
1.14775e-10
5.93931e-11
5.04255
9.22604
22.4936
43.6685
67.6912
87.7079
99.1073
100.837
94.5781
83.0593
68.8575
53.8645
39.4026
26.4839
15.9075
8.17414
3.33441
0.94308
0.149448
0.0126503
0.000725955
0.000447362
8.36438e-06
2.90733e-09
4.10308e-09
1.63553e-06
2.81148e-06
1.77934e-06
1.03734e-06
7.15028e-07
5.30966e-07
3.85523e-07
2.70972e-07
1.87644e-07
1.29793e-07
8.95694e-08
6.13608e-08
4.16732e-08
2.80262e-08
1.86285e-08
1.2219e-08
7.96645e-09
5.10563e-09
3.22703e-09
2.01781e-09
1.24295e-09
7.59457e-10
4.56887e-10
2.72737e-10
1.61925e-10
9.62751e-11
5.77544e-11
3.55032e-11
2.29351e-11
1.57305e-11
1.25687e-11
1.11677e-11
1.12942e-11
1.23442e-11
1.43392e-11
1.69027e-11
2.05112e-11
2.41618e-11
2.86042e-11
3.37925e-11
3.8744e-11
4.56514e-11
4.88915e-11
5.92145e-11
5.4706e-11
7.945e-11
4.9013e-11
1.14314e-10
5.79906e-11
3.85396
5.21931
11.907
24.3196
40.984
58.3077
72.5448
81.206
83.6076
80.4552
73.145
63.0992
51.5389
39.5234
28.0404
18.0044
10.1179
4.70759
1.64697
0.372111
0.0447233
0.00318661
0.000238486
0.000112557
3.43882e-12
2.94024e-09
3.84619e-08