/*--------------------------------*- C++ -*----------------------------------*\
| =========                 |                                                 |
| \\      /  F ield         | OpenFOAM: The Open Source CFD Toolbox           |
|  \\    /   O peration     | Version:  2312                                  |
|   \\  /    A nd           | Website:  www.openfoam.com                      |
|    \\/     M anipulation  |                                                 |
\*---------------------------------------------------------------------------*/
FoamFile
{
    version     2.0;
    format      ascii;
    arch        "LSB;label=32;scalar=64";
    class       volVectorField;
    location    "700";
    object      U;
}
// * * * * * * * * * * * * * * * * * * * * * * * * * * * * * * * * * * * * * //

dimensions      [0 1 -1 0 0 0 0];

internalField   nonuniform List<vector> 
11040
(
(-0.587572 8.74415 -3.45498e-19)
(0.785474 5.77529 -2.0888e-18)
(-0.037433 -0.148398 -2.29835e-17)
(-1.37264 -1.15679 -1.16676e-17)
(-1.40564 -0.70357 -4.28738e-18)
(-1.38087 -0.602887 -1.69027e-17)
(-1.36359 -0.511471 3.07431e-17)
(-1.31824 -0.425702 2.23675e-17)
(-1.28083 -0.355687 4.40805e-18)
(-1.2527 -0.299522 1.2279e-18)
(-1.2277 -0.25427 -2.0956e-17)
(-1.20341 -0.212879 3.05168e-18)
(-1.18523 -0.176461 8.53611e-18)
(-1.17087 -0.144367 7.16517e-18)
(-1.16055 -0.114083 -6.84317e-18)
(-1.15644 -0.0865952 1.18236e-17)
(-1.15723 -0.0602491 5.50167e-18)
(-1.16581 -0.0349034 -1.4076e-17)
(-1.18269 -0.0100744 -4.24854e-19)
(-1.20773 0.0148589 2.29403e-18)
(-1.24121 0.0400489 -2.57589e-18)
(-1.28087 0.0636151 -8.89343e-18)
(-1.32887 0.0845474 9.05571e-18)
(-1.38789 0.104816 -9.26678e-18)
(-1.45653 0.125204 9.55192e-18)
(-1.53145 0.145587 1.70454e-17)
(-1.60707 0.165684 7.22485e-18)
(-1.6761 0.18462 6.7652e-18)
(-1.73136 0.201321 7.09308e-18)
(-1.76421 0.214379 9.42436e-18)
(-1.76413 0.222317 -1.67318e-17)
(-1.7212 0.224159 -1.284e-17)
(-1.64059 0.219883 -3.93193e-17)
(-1.51507 0.20694 -2.30299e-17)
(-1.34059 0.182306 2.53049e-18)
(-1.11216 0.144172 -3.68156e-17)
(-0.818161 0.0921887 1.0059e-18)
(-0.459156 0.0250295 -2.77656e-17)
(-0.0897497 -0.0469864 4.295e-17)
(0.663387 -0.14733 3.4139e-17)
(0.139068 -0.530387 -6.14048e-18)
(1.43141 7.93213 2.07916e-19)
(3.01341 8.44536 -2.38484e-19)
(2.63639 5.21157 7.13425e-18)
(0.727343 1.21022 1.17329e-18)
(-1.03969 -0.705243 -5.21067e-19)
(-1.25203 -0.582932 5.9202e-18)
(-1.34222 -0.515038 -9.30051e-19)
(-1.34957 -0.449509 -1.28385e-17)
(-1.34305 -0.388027 5.69283e-19)
(-1.34084 -0.332264 -4.21155e-18)
(-1.33718 -0.288672 6.39262e-18)
(-1.32975 -0.247805 -2.2607e-17)
(-1.32691 -0.209374 -1.78118e-18)
(-1.32606 -0.175942 -1.60842e-17)
(-1.32874 -0.143171 7.26406e-18)
(-1.33722 -0.112767 -2.94034e-18)
(-1.35156 -0.0832441 -4.75482e-18)
(-1.37284 -0.0540878 -4.81915e-18)
(-1.40116 -0.0250688 -6.26474e-19)
(-1.43749 0.004863 3.74402e-19)
(-1.48195 0.035878 1.33373e-18)
(-1.53351 0.0654042 3.82376e-18)
(-1.59246 0.0914429 -5.88462e-18)
(-1.65792 0.116552 -1.34e-18)
(-1.72517 0.141435 -1.62401e-18)
(-1.78864 0.165303 3.33409e-18)
(-1.8432 0.187478 2.01712e-18)
(-1.88403 0.207075 -1.11524e-17)
(-1.90591 0.223137 -9.04472e-19)
(-1.90438 0.234458 6.62792e-18)
(-1.87703 0.240264 8.3914e-18)
(-1.82246 0.240312 1.71065e-17)
(-1.7292 0.232369 1.4147e-17)
(-1.5926 0.214287 6.93874e-18)
(-1.40831 0.184209 -3.21409e-18)
(-1.1718 0.140948 1.29408e-17)
(-0.873692 0.0820477 -1.00242e-17)
(-0.51337 0.000223948 7.51551e-18)
(-0.138932 -0.0947925 -3.06175e-18)
(0.59163 -0.207259 -4.24008e-18)
(0.648692 -0.472183 5.83345e-18)
(1.81546 7.05248 -1.62222e-20)
(3.31526 8.14674 1.08206e-18)
(4.11269 7.88508 -2.01448e-18)
(3.40098 5.34773 -3.20661e-18)
(1.43612 1.97074 3.11141e-19)
(-0.466009 -0.216074 -4.14422e-18)
(-1.03345 -0.429884 -8.72197e-18)
(-1.21016 -0.419118 -8.06171e-18)
(-1.26211 -0.375532 5.84534e-18)
(-1.29574 -0.32786 2.6657e-19)
(-1.32063 -0.291438 3.56579e-18)
(-1.33285 -0.254319 1.16749e-17)
(-1.346 -0.215688 -9.06028e-18)
(-1.35783 -0.182497 9.96937e-18)
(-1.37111 -0.148424 -6.19158e-18)
(-1.38833 -0.116523 -2.78085e-18)
(-1.40942 -0.0851731 1.32285e-18)
(-1.43617 -0.0539403 1.87555e-18)
(-1.46878 -0.0229039 9.4269e-20)
(-1.50796 0.00920413 -8.96755e-20)
(-1.55374 0.0424459 -3.10057e-18)
(-1.60431 0.0743899 -2.61335e-18)
(-1.65886 0.102189 5.40038e-19)
(-1.7165 0.128044 -3.69243e-19)
(-1.7738 0.152594 3.17428e-18)
(-1.82695 0.175189 -7.00613e-18)
(-1.87239 0.195263 -5.05246e-18)
(-1.90631 0.212005 7.31272e-18)
(-1.92452 0.224668 1.77733e-18)
(-1.92276 0.232268 -1.1116e-18)
(-1.89655 0.233835 -7.28874e-18)
(-1.84048 0.228183 3.04895e-18)
(-1.74789 0.213677 -6.84996e-18)
(-1.6137 0.188587 -9.10766e-18)
(-1.43352 0.151166 2.00677e-18)
(-1.20329 0.100399 5.13968e-18)
(-0.914214 0.0339505 7.71667e-18)
(-0.563716 -0.0568118 -7.88461e-18)
(-0.197128 -0.169902 -1.59205e-18)
(0.475128 -0.287508 -2.08666e-18)
(0.678613 -0.635198 -3.45119e-18)
(2.213 6.62928 -5.65358e-20)
(3.11564 7.34094 -2.05117e-19)
(4.1696 8.04383 1.07396e-18)
(4.69624 7.62586 2.00609e-18)
(3.98946 5.53999 -2.82946e-19)
(2.15853 2.61612 -2.59983e-18)
(0.168203 0.330793 1.7649e-18)
(-0.742842 -0.255645 4.22585e-18)
(-1.035 -0.309965 -3.22207e-18)
(-1.14607 -0.285901 3.66473e-18)
(-1.21829 -0.267492 -8.59365e-18)
(-1.26058 -0.243392 1.1582e-18)
(-1.29487 -0.209275 1.24723e-18)
(-1.32246 -0.179669 -7.91269e-18)
(-1.34686 -0.146488 -3.84766e-18)
(-1.3724 -0.114775 2.42798e-18)
(-1.39933 -0.08306 4.60804e-18)
(-1.43033 -0.0509506 2.13842e-18)
(-1.4656 -0.0190598 -1.33043e-19)
(-1.50592 0.0140392 1.42255e-19)
(-1.55134 0.0480678 8.10004e-19)
(-1.60002 0.0808895 2.43446e-18)
(-1.65104 0.109465 8.28064e-19)
(-1.70413 0.135556 1.48262e-18)
(-1.75707 0.159651 2.24762e-18)
(-1.80702 0.181227 1.00837e-17)
(-1.85085 0.199743 -7.35951e-19)
(-1.88488 0.214304 -1.30006e-18)
(-1.90485 0.22405 -4.47339e-18)
(-1.9061 0.227859 -3.89406e-18)
(-1.88356 0.224564 5.4204e-18)
(-1.83184 0.212837 -4.57383e-18)
(-1.74545 0.191221 1.20397e-17)
(-1.61918 0.158036 3.18056e-18)
(-1.44865 0.11152 2.51013e-18)
(-1.23 0.0505941 5.2903e-19)
(-0.955162 -0.0266004 -1.19048e-19)
(-0.620441 -0.128338 -6.23763e-19)
(-0.268381 -0.260441 1.69453e-18)
(0.325955 -0.378317 -2.4339e-18)
(0.592736 -0.735309 6.51025e-19)
(2.67065 6.1445 1.1379e-19)
(3.35157 6.69789 -1.10585e-19)
(4.0577 7.25299 -9.41814e-19)
(4.83696 7.76719 -1.52439e-18)
(5.20931 7.44669 1.52826e-18)
(4.59623 5.80861 -1.14543e-19)
(2.93652 3.28338 4.58942e-19)
(0.950775 1.00002 2.7953e-18)
(-0.358878 -0.0422372 -1.13837e-18)
(-0.79943 -0.177502 -1.96957e-18)
(-1.00171 -0.199903 -2.79157e-18)
(-1.10807 -0.203097 -1.8888e-20)
(-1.1777 -0.183479 -9.52721e-20)
(-1.23151 -0.164082 4.9968e-18)
(-1.27263 -0.135852 3.0019e-18)
(-1.31007 -0.106722 1.17658e-19)
(-1.34461 -0.0763937 -1.99688e-18)
(-1.38059 -0.0446918 2.20775e-18)
(-1.41869 -0.0131205 -3.23792e-19)
(-1.46025 0.0199605 7.72065e-19)
(-1.50581 0.0538591 -1.57808e-18)
(-1.5539 0.0868214 -1.67017e-19)
(-1.60377 0.115729 2.09185e-18)
(-1.65553 0.141954 -2.24608e-18)
(-1.70768 0.16572 -4.92917e-18)
(-1.75782 0.18646 -2.48571e-18)
(-1.80301 0.203494 5.14905e-19)
(-1.83959 0.215794 -3.97398e-18)
(-1.86333 0.222324 1.11937e-19)
(-1.86947 0.221826 3.70094e-18)
(-1.85302 0.21301 -2.88501e-18)
(-1.80884 0.194512 6.01676e-19)
(-1.73184 0.16492 -8.34406e-18)
(-1.61687 0.122589 -3.96598e-18)
(-1.45965 0.0657589 -2.28817e-18)
(-1.25656 -0.00669819 -2.17109e-18)
(-1.00052 -0.0961459 1.19496e-18)
(-0.687864 -0.210133 -5.41559e-20)
(-0.355732 -0.358131 8.85473e-19)
(0.153106 -0.481618 3.24791e-18)
(0.449456 -0.807278 -1.87659e-18)
(3.07423 5.70381 -1.47956e-19)
(3.58636 6.22176 2.18651e-19)
(4.10684 6.62176 2.03552e-19)
(4.69011 7.06443 5.45721e-19)
(5.32654 7.48101 -4.11825e-19)
(5.66333 7.31346 2.01883e-19)
(5.20625 6.09685 5.00718e-19)
(3.78993 3.98915 1.8902e-20)
(1.86337 1.77634 -1.01443e-19)
(0.230187 0.33012 4.20933e-18)
(-0.48137 -0.030253 4.67687e-18)
(-0.808566 -0.107394 -2.12326e-18)
(-0.965102 -0.120902 -1.35168e-18)
(-1.07177 -0.12486 6.25828e-18)
(-1.14306 -0.110905 -5.27288e-18)
(-1.20143 -0.0892966 2.30792e-18)
(-1.24947 -0.0636364 2.16899e-19)
(-1.29408 -0.0341774 6.10067e-19)
(-1.33729 -0.00425839 7.20571e-19)
(-1.38154 0.0279113 -3.55436e-19)
(-1.4284 0.0609888 -7.53286e-19)
(-1.4772 0.0936854 5.46972e-19)
(-1.52755 0.122721 -9.22513e-19)
(-1.57978 0.149042 -6.51123e-19)
(-1.63295 0.172531 4.7315e-18)
(-1.68493 0.192478 -3.11715e-18)
(-1.73294 0.207994 -7.30863e-19)
(-1.77347 0.217862 4.92369e-18)
(-1.80241 0.220845 3.87485e-18)
(-1.81516 0.215546 -1.90241e-18)
(-1.80688 0.200557 -1.54377e-18)
(-1.77273 0.174476 -4.87158e-19)
(-1.70787 0.135909 3.872e-18)
(-1.60739 0.0832559 4.04396e-18)
(-1.46715 0.014813 1.15023e-18)
(-1.28391 -0.0704861 -1.54328e-18)
(-1.05183 -0.173465 -2.19878e-19)
(-0.768416 -0.300561 -1.06189e-18)
(-0.463728 -0.460328 -2.57587e-18)
(-0.0378968 -0.593594 -1.25339e-19)
(0.263015 -0.87093 1.98745e-18)
(3.45866 5.34535 -2.83806e-20)
(3.82829 5.78282 1.6427e-19)
(4.2251 6.17308 2.55527e-20)
(4.65809 6.47924 4.50065e-19)
(5.15596 6.81862 2.27548e-19)
(5.70177 7.17399 -7.75804e-19)
(6.05044 7.1638 2.2745e-19)
(5.78614 6.35014 -2.05025e-19)
(4.6693 4.68635 -1.51113e-18)
(2.8982 2.63979 3.95171e-20)
(1.10435 0.949859 -5.64962e-18)
(-0.0471241 0.164041 7.34986e-18)
(-0.527185 0.00959214 -5.85136e-18)
(-0.787403 -0.0382349 -6.55514e-19)
(-0.930033 -0.0548235 2.833e-18)
(-1.03152 -0.0527291 -1.01165e-18)
(-1.10614 -0.0397841 3.95406e-18)
(-1.16758 -0.0165745 -1.62746e-18)
(-1.22129 0.00916904 3.746e-19)
(-1.27166 0.039029 -2.95751e-19)
(-1.32183 0.0703723 3.07669e-19)
(-1.37251 0.102392 -4.04985e-19)
(-1.42426 0.131404 2.14081e-18)
(-1.47784 0.157839 -7.03127e-19)
(-1.53286 0.181151 -1.77539e-18)
(-1.58751 0.200389 8.32893e-19)
(-1.63922 0.214404 2.71144e-18)
(-1.68471 0.221743 -1.33951e-18)
(-1.7201 0.220928 3.66211e-20)
(-1.74102 0.210403 -1.06155e-18)
(-1.7429 0.188641 6.80536e-20)
(-1.72119 0.154184 -1.79238e-18)
(-1.67132 0.105666 -3.90896e-20)
(-1.58874 0.0415547 8.07237e-19)
(-1.46964 -0.0397116 2.702e-18)
(-1.31117 -0.138961 -2.08708e-18)
(-1.10899 -0.25639 -2.43242e-18)
(-0.862258 -0.396822 2.01309e-18)
(-0.593316 -0.564673 -7.50238e-19)
(-0.246514 -0.71017 2.29007e-20)
(0.0366865 -0.935617 9.56823e-20)
(3.8069 5.04183 -7.64577e-21)
(4.09242 5.40581 -6.07905e-20)
(4.38825 5.75236 3.98593e-20)
(4.72289 6.05043 -2.48146e-19)
(5.09517 6.28464 -1.49056e-19)
(5.5189 6.54008 -2.55805e-19)
(5.9937 6.84551 1.0922e-18)
(6.36206 6.96288 1.77854e-19)
(6.29616 6.51159 5.22435e-19)
(5.51258 5.30363 -1.10669e-18)
(4.01866 3.54874 1.18328e-18)
(2.21025 1.7832 1.69202e-18)
(0.680613 0.574311 -4.32659e-18)
(-0.141856 0.149147 6.39101e-18)
(-0.530169 0.0582 1.06693e-19)
(-0.748862 0.0253777 -1.28392e-18)
(-0.886161 0.0109107 -4.68058e-18)
(-0.984737 0.0170327 -3.74262e-19)
(-1.06167 0.0316985 -1.47358e-18)
(-1.12585 0.0557886 5.5711e-18)
(-1.1838 0.0834067 -3.51298e-18)
(-1.23844 0.113936 5.92078e-19)
(-1.29242 0.14267 1.18159e-18)
(-1.34762 0.16926 2.05491e-19)
(-1.40457 0.192595 4.62199e-19)
(-1.46207 0.211329 2.11116e-19)
(-1.51788 0.223995 1.10098e-18)
(-1.56901 0.228853 -6.51348e-19)
(-1.61186 0.22416 -2.65165e-18)
(-1.6424 0.208167 -7.66853e-19)
(-1.65635 0.179215 2.2744e-18)
(-1.64949 0.135781 1.06247e-18)
(-1.61766 0.0765534 8.68046e-20)
(-1.55676 0.000108557 -1.86845e-18)
(-1.46342 -0.0948512 -1.04674e-18)
(-1.33529 -0.208708 6.86259e-19)
(-1.16956 -0.340916 1.59796e-18)
(-0.966836 -0.494147 -8.86619e-19)
(-0.742541 -0.667551 6.1784e-19)
(-0.471465 -0.823478 -1.31889e-18)
(-0.226112 -1.00343 -1.97914e-19)
(4.12902 4.78055 -2.03171e-20)
(4.35797 5.08618 -1.36402e-19)
(4.58615 5.38031 2.93705e-19)
(4.83928 5.6562 3.62761e-20)
(5.12874 5.88999 -5.94341e-20)
(5.44891 6.06958 1.02601e-20)
(5.80904 6.25563 -4.23898e-19)
(6.22014 6.50463 -4.34347e-19)
(6.59691 6.69805 -6.12948e-21)
(6.70296 6.53932 -8.17581e-19)
(6.25557 5.77626 -2.70699e-19)
(5.12421 4.40823 8.05748e-19)
(3.47208 2.74494 5.13324e-19)
(1.75224 1.27914 -2.17634e-18)
(0.482468 0.426916 7.51039e-18)
(-0.157644 0.175163 -3.58694e-18)
(-0.496386 0.113366 3.09063e-18)
(-0.694515 0.0882716 -4.84057e-18)
(-0.828214 0.0780361 -1.50989e-19)
(-0.925903 0.0863429 1.63797e-18)
(-1.00369 0.104027 -2.18927e-18)
(-1.06866 0.130287 -2.90475e-19)
(-1.12779 0.157622 5.82243e-19)
(-1.18556 0.184132 -1.93179e-18)
(-1.24435 0.207747 -5.36269e-19)
(-1.30419 0.226418 -1.42792e-18)
(-1.36368 0.238215 -2.59279e-18)
(-1.42043 0.241003 9.82291e-19)
(-1.47125 0.232696 7.20146e-19)
(-1.51247 0.211329 2.33261e-18)
(-1.54018 0.175123 -9.30254e-19)
(-1.55053 0.12251 6.66611e-19)
(-1.53983 0.0522536 -7.75182e-19)
(-1.50455 -0.0368831 1.87805e-18)
(-1.44186 -0.145794 -2.10706e-19)
(-1.34992 -0.274205 4.8567e-19)
(-1.2273 -0.420669 -2.41593e-18)
(-1.07555 -0.585342 1.55055e-18)
(-0.90482 -0.762729 -1.14777e-19)
(-0.707298 -0.924341 8.06989e-19)
(-0.514173 -1.07184 -8.34638e-19)
(4.42593 4.55355 -1.1064e-19)
(4.61489 4.81156 4.13193e-19)
(4.7972 5.06105 -1.45603e-19)
(4.9932 5.29947 -2.00655e-19)
(5.21564 5.5209 1.39758e-19)
(5.46678 5.70765 -3.26659e-19)
(5.74203 5.84822 1.03549e-19)
(6.04713 5.9801 1.66102e-18)
(6.39806 6.16697 -1.74393e-18)
(6.76168 6.37814 -1.7599e-19)
(6.98881 6.42223 8.71981e-20)
(6.83853 6.04459 6.55319e-20)
(6.10529 5.10829 8.75597e-19)
(4.77048 3.71964 -3.30124e-19)
(3.08959 2.21584 1.92976e-18)
(1.50517 1.01113 -2.35277e-18)
(0.428374 0.386972 1.03788e-18)
(-0.121134 0.216794 -8.97129e-19)
(-0.430454 0.172526 1.71393e-18)
(-0.619169 0.151794 1.35496e-18)
(-0.749172 0.145874 5.87703e-19)
(-0.842862 0.158717 -1.58988e-18)
(-0.917365 0.179733 1.49152e-18)
(-0.983041 0.204192 8.394e-19)
(-1.04595 0.2277 -2.33619e-18)
(-1.1086 0.246676 1.60477e-18)
(-1.17129 0.258357 1.82961e-18)
(-1.23291 0.259988 -2.1197e-18)
(-1.29117 0.249008 2.86056e-19)
(-1.34311 0.223123 -1.81812e-18)
(-1.38541 0.18037 9.45959e-19)
(-1.41469 0.119133 -1.23507e-18)
(-1.42773 0.0383054 -3.9917e-19)
(-1.4216 -0.0630308 6.54757e-20)
(-1.39403 -0.185209 -8.27925e-19)
(-1.34369 -0.327133 2.41776e-19)
(-1.27013 -0.486275 6.90124e-19)
(-1.17525 -0.660332 -9.34576e-19)
(-1.06557 -0.840648 -1.35988e-19)
(-0.940202 -1.00394 -1.13536e-18)
(-0.808244 -1.13259 7.97367e-19)
(4.6995 4.35359 -1.13216e-19)
(4.8594 4.57292 -3.42151e-19)
(5.00999 4.78399 2.11942e-20)
(5.16656 4.98793 7.06355e-20)
(5.34005 5.18246 -3.28339e-20)
(5.53569 5.36181 -2.3701e-19)
(5.75367 5.51421 1.74497e-20)
(5.99029 5.62794 1.40129e-20)
(6.24833 5.7213 1.19255e-19)
(6.54257 5.84753 1.62805e-18)
(6.87116 6.02976 5.23946e-19)
(7.15974 6.17716 1.37176e-19)
(7.23472 6.08829 -1.0622e-18)
(6.87934 5.56885 2.36507e-18)
(5.96092 4.56853 -1.97159e-18)
(4.53899 3.24281 1.18734e-18)
(2.89731 1.90571 -1.76623e-18)
(1.43641 0.894881 -4.92054e-18)
(0.474116 0.398887 3.19453e-19)
(-0.0354293 0.264894 6.44891e-18)
(-0.328335 0.231588 -3.50896e-18)
(-0.505156 0.220143 3.97598e-18)
(-0.624036 0.223048 -1.986e-18)
(-0.714514 0.237383 3.22531e-19)
(-0.791355 0.256341 -2.10246e-19)
(-0.86212 0.2741 -1.61325e-18)
(-0.930425 0.285972 1.34493e-18)
(-0.997587 0.287671 -1.08829e-18)
(-1.06305 0.275612 8.9422e-19)
(-1.12517 0.24693 5.96177e-19)
(-1.1817 0.199432 7.79268e-20)
(-1.23011 0.131458 5.35766e-19)
(-1.26791 0.0419832 3.11159e-19)
(-1.29293 -0.0695819 -1.29496e-18)
(-1.30341 -0.202927 -7.62352e-19)
(-1.29838 -0.355993 5.323e-19)
(-1.27781 -0.52509 6.42366e-19)
(-1.24346 -0.70592 1.27116e-19)
(-1.19917 -0.888215 1.27783e-18)
(-1.14491 -1.05168 9.07594e-19)
(-1.07952 -1.17377 2.00383e-19)
(4.95108 4.17577 -1.28785e-19)
(5.08896 4.36342 6.40115e-20)
(5.21681 4.54264 3.06128e-19)
(5.34551 4.71589 -2.78494e-19)
(5.48453 4.88374 3.39118e-20)
(5.63873 5.04312 5.07556e-20)
(5.81077 5.18983 9.31897e-20)
(6.00028 5.31605 -6.86377e-19)
(6.20425 5.41138 -1.72323e-18)
(6.42274 5.48013 2.27368e-18)
(6.66606 5.55722 -1.5761e-18)
(6.94724 5.68569 -4.0933e-19)
(7.24402 5.85039 -7.06502e-19)
(7.45459 5.93228 -4.05967e-19)
(7.40357 5.75033 9.29017e-19)
(6.91295 5.16712 -4.18025e-19)
(5.90439 4.18152 1.9853e-18)
(4.47454 2.95611 -1.86216e-18)
(2.89647 1.76287 -8.44566e-19)
(1.52125 0.876207 6.02774e-18)
(0.608976 0.435442 -3.62102e-18)
(0.123533 0.317038 -2.22948e-19)
(-0.144106 0.304643 8.45758e-19)
(-0.312475 0.306718 3.01921e-18)
(-0.432756 0.311499 -2.54369e-18)
(-0.528944 0.319794 -5.54341e-19)
(-0.613127 0.327292 -6.17811e-19)
(-0.691853 0.327678 3.28094e-18)
(-0.76775 0.315442 -1.44677e-18)
(-0.841463 0.286234 -4.70862e-19)
(-0.912517 0.237006 1.58949e-18)
(-0.979843 0.165686 -1.34497e-18)
(-1.04203 0.071156 -6.67022e-19)
(-1.098 -0.0468327 7.90281e-19)
(-1.14674 -0.187241 5.84972e-19)
(-1.18752 -0.347135 1.04072e-19)
(-1.22038 -0.521951 -3.02925e-19)
(-1.24651 -0.706243 -1.79008e-19)
(-1.26747 -0.889414 -6.36708e-19)
(-1.28216 -1.05377 5.6033e-19)
(-1.28565 -1.17901 -1.03137e-19)
(5.18179 4.01639 2.0533e-19)
(5.30245 4.17777 -4.5966e-19)
(5.41334 4.33055 4.29116e-19)
(5.52221 4.47755 1.09047e-19)
(5.63643 4.62085 -1.01094e-19)
(5.76062 4.75934 5.73759e-20)
(5.89765 4.89048 5.00115e-19)
(6.04902 5.01119 2.96339e-19)
(6.21427 5.1165 1.6333e-19)
(6.39078 5.19824 8.00189e-20)
(6.57669 5.25313 -5.71892e-19)
(6.77819 5.29827 9.07032e-19)
(7.01021 5.37166 -8.97968e-20)
(7.27754 5.49813 9.33722e-19)
(7.53922 5.63774 -2.53923e-18)
(7.68449 5.67012 2.61345e-18)
(7.55301 5.44432 -7.6622e-19)
(7.0013 4.86235 -2.25681e-18)
(5.98135 3.94199 1.88232e-18)
(4.59376 2.82827 -2.19706e-18)
(3.08133 1.74902 1.63013e-18)
(1.79355 0.949048 -6.49792e-19)
(0.943842 0.531623 2.62545e-18)
(0.455001 0.397876 -1.04496e-18)
(0.167014 0.387894 -5.289e-18)
(-0.0181137 0.401132 2.88289e-18)
(-0.152038 0.405738 1.20523e-18)
(-0.262111 0.399254 -2.90379e-19)
(-0.360319 0.381675 2.26803e-19)
(-0.452838 0.349877 -6.78143e-19)
(-0.542681 0.299972 -3.24068e-18)
(-0.6312 0.228611 3.38411e-18)
(-0.718645 0.133807 -2.13957e-19)
(-0.804987 0.0150273 -9.44948e-19)
(-0.89038 -0.126586 1.02129e-18)
(-0.974433 -0.287554 -1.37509e-19)
(-1.05703 -0.462595 -2.52695e-19)
(-1.1389 -0.645873 4.57418e-19)
(-1.21993 -0.827584 2.09188e-19)
(-1.29822 -0.993332 -4.24653e-19)
(-1.3685 -1.12736 -2.15883e-19)
(5.39267 3.8727 5.99351e-21)
(5.49939 4.01203 2.23721e-19)
(5.59711 4.14272 4.2511e-19)
(5.69128 4.26757 -5.01059e-19)
(5.78763 4.38928 -2.00604e-20)
(5.89006 4.50793 -1.1654e-19)
(6.00119 4.62228 -2.77726e-19)
(6.12297 4.73029 -3.26149e-19)
(6.25638 4.82973 4.53544e-19)
(6.40087 4.91734 1.42186e-18)
(6.5542 4.98758 -4.8531e-19)
(6.71437 5.03522 9.88146e-19)
(6.88369 5.06434 -1.1966e-20)
(7.07223 5.09738 -1.90285e-18)
(7.29356 5.16717 -7.69868e-19)
(7.54435 5.28408 1.7602e-18)
(7.77584 5.40018 -9.55504e-19)
(7.88184 5.40775 1.28205e-18)
(7.722 5.18362 -1.85293e-18)
(7.17728 4.65189 1.22179e-19)
(6.20603 3.83031 -1.59682e-19)
(4.95256 2.87458 3.83601e-18)
(3.65599 1.97018 -1.17249e-19)
(2.50654 1.24388 -2.46303e-18)
(1.63432 0.773541 -5.01031e-19)
(1.0518 0.548082 -7.97389e-19)
(0.679984 0.482221 -2.75273e-18)
(0.435569 0.480928 3.44822e-18)
(0.262332 0.482417 -2.82022e-18)
(0.124281 0.461939 -9.48099e-20)
(0.001002 0.415476 7.84948e-19)
(-0.117335 0.344285 -4.69292e-19)
(-0.235039 0.249454 3.57392e-19)
(-0.354273 0.131887 -1.45038e-19)
(-0.475985 -0.006661 1.66746e-18)
(-0.600855 -0.162928 -1.46537e-18)
(-0.728586 -0.332507 1.06125e-19)
(-0.859665 -0.510405 7.04792e-20)
(-0.992781 -0.688223 9.09627e-20)
(-1.12574 -0.854629 -3.09289e-20)
(-1.25564 -0.998015 2.52473e-19)
(5.58466 3.74266 -3.65351e-19)
(5.67975 3.8632 1.72426e-19)
(5.76683 3.97522 -6.38099e-19)
(5.8497 4.08133 2.96135e-19)
(5.9328 4.18445 -1.419e-19)
(6.01925 4.28526 2.53697e-20)
(6.1114 4.38327 -7.94092e-20)
(6.21097 4.47743 8.42599e-20)
(6.31933 4.56617 -9.9656e-19)
(6.43704 4.64764 5.36139e-19)
(6.56357 4.71969 7.37075e-20)
(6.69766 4.77933 -3.45737e-18)
(6.83755 4.82198 2.19102e-18)
(6.98265 4.84525 1.58571e-19)
(7.13755 4.85723 1.99515e-18)
(7.31379 4.88056 -1.816e-18)
(7.52271 4.94154 2.93805e-19)
(7.75722 5.0435 1.434e-18)
(7.96967 5.14217 -1.53569e-18)
(8.068 5.14873 5.81902e-19)
(7.92683 4.96 1.88188e-19)
(7.47207 4.53967 -3.91872e-19)
(6.72751 3.93169 1.39206e-19)
(5.77503 3.21244 -3.97712e-19)
(4.72959 2.47489 2.5708e-18)
(3.70806 1.80493 -3.64994e-18)
(2.81124 1.2687 3.22103e-18)
(2.10068 0.899381 9.34698e-19)
(1.578 0.685309 -1.42183e-18)
(1.20238 0.5801 -5.88496e-19)
(0.926367 0.527942 -3.45745e-19)
(0.711809 0.48313 2.34468e-18)
(0.53098 0.418638 -2.81769e-19)
(0.364733 0.324914 -2.98125e-18)
(0.201775 0.202926 6.37949e-19)
(0.0367732 0.0580951 8.66132e-19)
(-0.132566 -0.102944 -7.30505e-19)
(-0.308736 -0.274446 7.11952e-19)
(-0.489069 -0.448766 2.44636e-19)
(-0.670565 -0.6168 1.08274e-19)
(-0.853657 -0.769219 -5.37867e-19)
(5.75831 3.62467 2.68913e-19)
(5.84346 3.729 -3.22274e-19)
(5.92168 3.82506 6.85155e-19)
(5.99554 3.91526 -2.88835e-20)
(6.06851 4.00246 6.80553e-20)
(6.14308 4.08761 2.64761e-19)
(6.22115 4.17064 -5.94164e-20)
(6.30424 4.25103 6.33072e-20)
(6.39363 4.32795 2.67022e-19)
(6.49017 4.4001 -5.26344e-20)
(6.59408 4.46595 1.27273e-18)
(6.70529 4.52429 -1.75844e-18)
(6.82322 4.57349 3.04699e-18)
(6.94632 4.6105 -2.32625e-18)
(7.07301 4.63168 -1.09014e-18)
(7.20403 4.63685 -4.21312e-19)
(7.34531 4.63517 -7.20344e-19)
(7.5084 4.6466 7.50209e-19)
(7.70291 4.69196 9.17268e-20)
(7.92338 4.77435 5.48125e-19)
(8.12891 4.85753 -2.74485e-19)
(8.24036 4.87596 3.02423e-19)
(8.1885 4.77705 1.15836e-18)
(7.93858 4.53652 -1.43749e-18)
(7.48789 4.16023 7.29878e-19)
(6.86447 3.67895 7.88203e-19)
(6.11891 3.13703 9.44376e-20)
(5.31284 2.58224 -3.65746e-18)
(4.50869 2.05866 8.65221e-19)
(3.76171 1.60146 1.88783e-18)
(3.1102 1.23128 -1.39126e-18)
(2.56733 0.949707 3.02584e-18)
(2.12362 0.741444 -2.85392e-18)
(1.75699 0.58258 3.96957e-19)
(1.44565 0.449764 9.85168e-19)
(1.17187 0.324652 -9.61599e-19)
(0.921985 0.195234 4.96879e-19)
(0.684095 0.0551418 -5.65809e-20)
(0.452631 -0.0960686 -8.34267e-19)
(0.225096 -0.253091 -3.22705e-20)
(-0.00880616 -0.407571 7.88078e-21)
(5.91403 3.51723 1.55748e-20)
(5.9904 3.60748 -1.99066e-19)
(6.06091 3.68984 -6.30006e-20)
(6.12727 3.76651 3.47075e-19)
(6.19217 3.8402 -4.54263e-22)
(6.25759 3.91189 -2.52059e-20)
(6.32503 3.98172 -3.03162e-19)
(6.39579 4.04947 1.8335e-19)
(6.47094 4.11469 -1.02646e-19)
(6.55132 4.17664 8.62029e-19)
(6.63738 4.2342 -1.82099e-19)
(6.72941 4.28644 -1.65279e-19)
(6.82757 4.33243 1.20713e-18)
(6.93144 4.37112 -4.64575e-19)
(7.04005 4.40091 -6.68192e-19)
(7.15191 4.41916 -5.6632e-19)
(7.26594 4.42319 -3.93901e-19)
(7.38354 4.41365 3.00204e-18)
(7.51075 4.3984 -3.14334e-18)
(7.65816 4.39359 1.85123e-21)
(7.8361 4.41639 1.88668e-18)
(8.03325 4.46778 -1.67669e-18)
(8.21961 4.52828 1.62706e-18)
(8.36082 4.56743 -7.11805e-19)
(8.42074 4.55379 -8.19584e-19)
(8.37112 4.46457 2.22324e-18)
(8.19664 4.29004 -8.46618e-19)
(7.89677 4.0336 1.16187e-18)
(7.48441 3.70879 -3.17239e-18)
(6.98226 3.33513 3.98232e-19)
(6.41831 2.93428 1.38537e-18)
(5.82214 2.52758 -1.81955e-19)
(5.22231 2.13386 -3.1403e-19)
(4.64054 1.76632 1.16035e-19)
(4.09295 1.43331 -4.71144e-20)
(3.58901 1.13796 2.8e-19)
(3.1312 0.878097 -7.56062e-19)
(2.71124 0.646793 6.08891e-19)
(2.32474 0.439457 -3.22717e-19)
(1.96799 0.252756 2.96663e-19)
(1.62099 0.0861821 2.95901e-20)
(6.04661 3.42378 9.59547e-21)
(6.11542 3.50223 -4.13153e-19)
(6.17932 3.57321 4.12726e-19)
(6.23942 3.63878 -3.80783e-19)
(6.29787 3.70144 -6.18726e-20)
(6.35624 3.76213 1.98483e-19)
(6.41573 3.82106 2.34272e-19)
(6.47739 3.87821 -9.03801e-19)
(6.54212 3.93335 -5.78641e-20)
(6.61064 3.98593 1.45458e-18)
(6.68344 4.03521 -1.93282e-18)
(6.7609 4.08052 5.15227e-19)
(6.8433 4.12108 4.87711e-19)
(6.93067 4.15605 -8.33082e-19)
(7.02277 4.1847 2.00847e-18)
(7.11905 4.20619 -2.63109e-19)
(7.21847 4.21912 -5.85443e-18)
(7.3197 4.22126 5.03826e-18)
(7.42198 4.2105 -1.85189e-18)
(7.52663 4.18722 -1.33678e-18)
(7.63953 4.15767 1.75101e-18)
(7.76558 4.13445 1.78483e-18)
(7.90732 4.12841 -2.63723e-18)
(8.06464 4.14308 2.46256e-18)
(8.22871 4.17348 -6.67706e-19)
(8.384 4.2072 6.13571e-19)
(8.51135 4.22819 -1.13215e-18)
(8.59168 4.22066 1.16561e-18)
(8.6095 4.17237 4.28804e-19)
(8.55449 4.07614 -2.19617e-18)
(8.42251 3.9303 2.6078e-19)
(8.21521 3.73802 -1.24435e-19)
(7.93947 3.50613 1.26278e-18)
(7.60356 3.24237 3.26373e-20)
(7.21863 2.95595 -7.14812e-20)
(6.79747 2.65687 -1.32495e-19)
(6.35431 2.35466 -5.0305e-20)
(5.89527 2.05392 -1.08309e-19)
(5.43039 1.76156 -3.90959e-19)
(4.97247 1.48229 3.87087e-20)
(4.50762 1.21777 6.48232e-20)
(6.1546 3.34597 1.70101e-19)
(6.21714 3.41474 3.20317e-19)
(6.27553 3.47641 -2.23551e-19)
(6.33051 3.53297 -3.74814e-19)
(6.38378 3.58669 -1.20182e-20)
(6.43666 3.63844 1.64052e-19)
(6.49012 3.68847 -1.57925e-19)
(6.54502 3.73686 2.36531e-19)
(6.6021 3.78349 5.5275e-19)
(6.662 3.82804 -1.04816e-18)
(6.72513 3.86995 -1.35286e-18)
(6.7919 3.90874 1.61423e-18)
(6.86259 3.94381 1.4389e-18)
(6.93733 3.97443 -2.14735e-18)
(7.01608 3.99989 2.52117e-18)
(7.09866 4.01957 1.72266e-18)
(7.18477 4.0329 -1.32124e-18)
(7.27379 4.03921 -2.18249e-18)
(7.36474 4.03725 -2.79083e-19)
(7.45633 4.02511 1.7651e-18)
(7.54771 4.00083 -3.4863e-18)
(7.63694 3.96616 2.75017e-18)
(7.7253 3.92618 3.41633e-19)
(7.81845 3.88703 7.26309e-19)
(7.92113 3.8552 -1.25203e-18)
(8.03593 3.83523 6.13663e-19)
(8.16205 3.82824 -5.42098e-19)
(8.29495 3.83162 -3.76042e-19)
(8.42693 3.83963 7.41729e-19)
(8.54847 3.84486 -4.75734e-19)
(8.64957 3.83956 -2.42057e-19)
(8.72089 3.81685 9.49915e-19)
(8.75497 3.77154 -1.21381e-18)
(8.74638 3.70037 6.56493e-19)
(8.69188 3.60222 6.0531e-20)
(8.59044 3.47806 -7.68447e-19)
(8.44447 3.33093 5.49158e-19)
(8.25449 3.16237 1.16557e-19)
(8.02351 2.97648 -2.46785e-19)
(7.76092 2.77836 -7.34811e-20)
(7.45595 2.56774 -5.91049e-20)
(6.24366 3.28031 -1.04236e-19)
(6.30086 3.34095 3.99006e-20)
(6.35453 3.39486 -8.24653e-20)
(6.40513 3.44397 -1.24809e-19)
(6.45407 3.49032 9.0735e-20)
(6.50245 3.53472 -1.52629e-20)
(6.55106 3.57743 6.56599e-20)
(6.60062 3.61855 -2.31008e-19)
(6.65177 3.65804 2.97022e-20)
(6.70502 3.69569 1.38299e-19)
(6.76075 3.7311 -4.95694e-19)
(6.81931 3.76389 7.92307e-19)
(6.88098 3.79363 -1.795e-18)
(6.94592 3.81975 1.09487e-18)
(7.01414 3.84165 6.80212e-19)
(7.08557 3.85871 4.68257e-19)
(7.16006 3.87036 2.01302e-19)
(7.23737 3.87611 -3.40962e-19)
(7.31712 3.8755 -1.02113e-18)
(7.39872 3.86796 2.0232e-18)
(7.48117 3.85231 9.43119e-20)
(7.56055 3.82828 -2.216e-18)
(7.63419 3.79622 9.98729e-19)
(7.70311 3.75677 1.11913e-18)
(7.76903 3.71186 -2.27125e-18)
(7.83467 3.66439 2.04828e-18)
(7.90316 3.61771 -1.73788e-18)
(7.97726 3.57494 7.80465e-20)
(8.0587 3.5383 5.35853e-19)
(8.14773 3.50876 1.40143e-18)
(8.24293 3.48584 -1.84663e-18)
(8.34145 3.46787 5.25027e-19)
(8.43927 3.45223 9.68019e-19)
(8.53204 3.43599 -7.63085e-19)
(8.615 3.41611 -8.98453e-20)
(8.68332 3.38987 -2.74779e-20)
(8.73301 3.35524 1.48352e-19)
(8.76115 3.31055 -1.01702e-19)
(8.76453 3.25458 6.96356e-20)
(8.74308 3.18778 -1.20789e-19)
(8.69101 3.10818 -8.64647e-21)
(6.31804 3.22398 2.26663e-20)
(6.37056 3.27768 4.04232e-19)
(6.42005 3.32502 2.75118e-21)
(6.4668 3.36786 -2.11845e-19)
(6.51197 3.40804 5.95915e-20)
(6.55649 3.44629 -1.64532e-20)
(6.60102 3.48287 -1.75208e-19)
(6.64618 3.5179 9.6846e-20)
(6.69249 3.55138 3.56003e-19)
(6.74038 3.58316 3.66357e-20)
(6.79017 3.61294 1.42154e-19)
(6.84215 3.64043 5.63321e-19)
(6.89659 3.66528 -3.81709e-19)
(6.95362 3.68705 -7.77628e-19)
(7.01331 3.70526 6.65121e-20)
(7.07561 3.7194 -2.4921e-19)
(7.14042 3.72896 6.32109e-19)
(7.20758 3.73342 -6.02163e-19)
(7.27684 3.73232 -4.2159e-19)
(7.34793 3.72527 -1.18728e-18)
(7.42047 3.7118 1.5301e-18)
(7.49149 3.69237 7.43488e-19)
(7.55845 3.66754 -7.98609e-19)
(7.62106 3.63722 -7.76638e-19)
(7.6788 3.60148 -4.46769e-19)
(7.73163 3.56061 1.56802e-18)
(7.7801 3.51525 9.59346e-19)
(7.82526 3.46643 8.64274e-19)
(7.86857 3.41554 -1.84133e-18)
(7.91166 3.36412 5.97114e-19)
(7.95603 3.31368 -7.35246e-19)
(8.00293 3.26555 4.0705e-19)
(8.05302 3.22064 -6.42722e-19)
(8.10661 3.1795 1.00467e-18)
(8.16327 3.14223 -5.11231e-19)
(8.22198 3.10864 2.18345e-19)
(8.28099 3.0781 -4.53828e-19)
(8.33942 3.05008 3.71705e-19)
(8.39508 3.02345 -2.83041e-19)
(8.44623 2.99774 -7.81445e-21)
(8.49052 2.97183 4.86672e-20)
(6.38086 3.17503 -9.11207e-20)
(6.4292 3.22271 -3.75495e-20)
(6.47494 3.26441 -4.02533e-19)
(6.51823 3.3019 5.05795e-19)
(6.56005 3.33683 -9.55445e-20)
(6.60116 3.36986 -2.52041e-20)
(6.64215 3.40123 1.2536e-19)
(6.68353 3.4311 -2.97263e-19)
(6.72574 3.45947 1.46763e-18)
(6.76915 3.48624 -2.12477e-18)
(6.814 3.51116 1.12227e-18)
(6.86054 3.53403 3.46808e-19)
(6.909 3.55454 -4.1902e-19)
(6.95949 3.57236 -1.76411e-18)
(7.01207 3.58708 4.48916e-19)
(7.06672 3.5983 -1.03901e-18)
(7.12337 3.60559 3.34554e-18)
(7.18188 3.6085 -9.18116e-19)
(7.24205 3.60661 -1.99575e-19)
(7.30365 3.59949 6.57231e-19)
(7.36639 3.58669 -3.18861e-18)
(7.42797 3.56874 1.93498e-18)
(7.48653 3.54643 1.16151e-18)
(7.54205 3.52007 -1.08668e-18)
(7.59409 3.48999 -2.80437e-19)
(7.64226 3.45644 9.77626e-19)
(7.68625 3.41959 -1.58902e-18)
(7.72587 3.37958 1.13563e-18)
(7.76111 3.33663 9.82633e-19)
(7.79219 3.29108 -7.1521e-19)
(7.81953 3.2434 -1.24744e-18)
(7.84374 3.1942 1.14531e-19)
(7.8655 3.14417 6.35401e-19)
(7.88565 3.09398 2.91334e-19)
(7.90493 3.04435 -7.49529e-19)
(7.92401 2.99607 7.86445e-19)
(7.94327 2.94977 -5.02224e-19)
(7.96342 2.90585 2.23285e-19)
(7.98458 2.86466 6.62486e-20)
(8.007 2.82664 -1.92561e-19)
(8.02989 2.79192 -2.5043e-20)
(6.43437 3.13206 -2.50057e-19)
(6.47893 3.17449 2.81767e-19)
(6.52125 3.2113 2.26713e-19)
(6.56138 3.24417 1.28327e-19)
(6.60014 3.27458 -5.34857e-20)
(6.63819 3.30313 -1.57208e-19)
(6.67603 3.33006 4.90183e-19)
(6.71408 3.35551 -1.51563e-18)
(6.75273 3.37952 2.0342e-18)
(6.79226 3.40199 -1.03596e-18)
(6.83288 3.42274 -1.66468e-18)
(6.8748 3.4416 4.51655e-19)
(6.9182 3.45833 2.1657e-18)
(6.96315 3.47264 1.15295e-18)
(7.00971 3.48422 -2.06102e-18)
(7.05785 3.49272 1.55488e-18)
(7.10753 3.49779 -1.22e-18)
(7.15861 3.49908 -2.96229e-19)
(7.21095 3.49622 3.51662e-19)
(7.26431 3.48885 -1.65524e-18)
(7.31844 3.47655 4.1453e-18)