/*--------------------------------*- C++ -*----------------------------------*\
| =========                 |                                                 |
| \\      /  F ield         | OpenFOAM: The Open Source CFD Toolbox           |
|  \\    /   O peration     | Version:  2312                                  |
|   \\  /    A nd           | Website:  www.openfoam.com                      |
|    \\/     M anipulation  |                                                 |
\*---------------------------------------------------------------------------*/
FoamFile
{
    version     2.0;
    format      ascii;
    arch        "LSB;label=32;scalar=64";
    class       volScalarField;
    location    "350";
    object      div(phi);
}
// * * * * * * * * * * * * * * * * * * * * * * * * * * * * * * * * * * * * * //

dimensions      [0 0 -1 0 0 0 0];

internalField   nonuniform List<scalar> 
11040
(
-0.0649573
-0.0441371
-0.201906
-0.101102
-0.0859174
-0.064438
-0.0852542
-0.16382
-0.0967953
-0.22151
-0.0672763
-0.255153
-0.07151
-0.294565
-0.124462
-0.210722
-0.0550597
-0.1912
-0.112864
-0.233031
-0.282222
-0.181856
-0.025099
-0.0175742
-0.108145
-0.0878438
-0.0852236
-0.12517
-0.037287
-0.147804
0.00192713
-0.179898
0.0362954
-0.162275
0.0658074
-0.157815
0.0823233
-0.0975441
0.0950825
-0.415656
-0.446385
-0.031339
-0.0386747
-0.0927721
-0.166521
-0.232508
-0.261171
-0.240038
-0.227219
-0.189417
-0.221969
-0.195808
-0.263799
-0.220228
-0.306764
-0.226358
-0.27866
-0.227394
-0.307216
-0.286327
-0.325415
-0.249115
-0.207946
-0.156661
-0.200122
-0.249259
-0.241152
-0.23757
-0.241779
-0.196553
-0.218547
-0.144571
-0.18453
-0.0807866
-0.116269
-0.0258679
-0.0708831
-0.0124497
-0.048976
-0.0499877
-0.186393
-0.228415
-0.0150798
-0.00125677
-0.011261
-0.00872307
-0.0382355
-0.0566503
-0.0459626
-0.0217416
-0.0115716
-0.0275157
-0.00366196
-0.0482677
0.00715727
-0.0432788
-0.00108396
-0.0254858
0.0237893
0.00115043
-0.0134229
-0.0306485
-0.0374254
-0.0104123
0.0466658
0.0613444
0.0199653
0.0290633
0.0194315
0.0114638
0.0276309
-0.00414254
0.0305789
-0.0177097
0.0320361
-0.0192162
0.02936
-0.016692
0.0290768
0.00570023
0.0382517
-0.0448447
-0.051186
-0.00192359
0.00612871
-0.000722532
-0.00235913
-0.0294035
-0.0532597
-0.09028
-0.100473
-0.118449
-0.106872
-0.100966
-0.0960873
-0.102758
-0.109843
-0.112128
-0.119923
-0.118814
-0.150165
-0.152228
-0.155746
-0.124734
-0.100623
-0.0866949
-0.107735
-0.125894
-0.128298
-0.120986
-0.120056
-0.0998002
-0.101502
-0.0734928
-0.0788617
-0.042665
-0.0479941
-0.0179279
-0.0301736
-0.0105978
-0.0261466
-0.0248758
-0.0706287
-0.0699617
0.0297019
-0.00157669
0.000431219
-0.0142429
-0.0103007
-0.0148263
-0.0228851
-0.0454637
-0.0410686
-0.0363152
-0.0168085
-0.0249768
-0.0110378
-0.0198
-0.0174215
-0.0226491
-0.00963565
-0.0244965
-0.0259166
-0.018132
-0.013234
0.00919583
0.029475
0.0285591
0.0174507
0.012482
0.00608894
0.00453755
0.00343561
0.000744986
0.00264875
-0.000344051
0.00405036
0.000765537
0.00535499
0.00226806
0.00768954
0.00933361
0.00969428
-0.00437397
-0.00632135
-0.032678
0.0149681
-0.0094691
0.0153738
0.00384106
-0.00209823
-0.00228301
-0.0125382
-0.0196338
-0.0362837
-0.0380467
-0.0551214
-0.0547899
-0.0565679
-0.0545822
-0.0594386
-0.0685989
-0.0801298
-0.0828919
-0.0765045
-0.0635622
-0.0505312
-0.0485449
-0.0572434
-0.0652348
-0.0676174
-0.0627589
-0.058954
-0.0524995
-0.0448381
-0.0398964
-0.0313074
-0.0278686
-0.0172486
-0.018175
-0.00979898
-0.0154252
-0.00848306
-0.0221277
-0.0194849
-0.0339087
0.0249813
-0.00339174
0.0328896
0.00874739
-0.00397183
-0.00321841
-0.0110468
-0.00787899
-0.0178156
-0.0191042
-0.0446041
-0.0385121
-0.0348595
-0.0229071
-0.0294231
-0.0315352
-0.0387736
-0.0408291
-0.0352749
-0.0248805
-0.0116862
-0.0022195
-0.000833915
-0.00130048
-0.00649199
-0.0115171
-0.0135153
-0.0158602
-0.0133597
-0.0152771
-0.0102501
-0.0131516
-0.00597158
-0.00977545
-0.00269614
-0.00824749
-0.00101962
-0.00727142
-0.00108716
-0.0122498
-0.00410717
-0.00982481
0.0228416
0.0252079
-0.00996609
0.00151537
-0.0191948
-0.000447528
-0.00782242
0.00585163
-0.00978574
0.0067768
-0.00422873
-0.0180604
-0.0279229
-0.033485
-0.0456895
-0.0441931
-0.0478022
-0.0447728
-0.0357353
-0.0294518
-0.0255164
-0.0244884
-0.0296767
-0.0326701
-0.0334805
-0.0295415
-0.0299384
-0.0244177
-0.024234
-0.0177051
-0.0189324
-0.0122685
-0.0140379
-0.00759937
-0.0101742
-0.00417102
-0.00750363
-0.00323643
-0.00527183
-0.00160783
-0.00310169
0.0402368
-0.0167789
0.0165778
-0.0281834
0.00637484
-0.00810313
0.0168188
-0.00228532
0.0166549
0.00621833
-0.00859589
-0.0162753
-0.030198
-0.0451695
-0.0414521
-0.0476767
-0.0381865
-0.0292793
-0.020596
-0.0147172
-0.0153481
-0.0190774
-0.0207386
-0.0234684
-0.0224016
-0.0245957
-0.020074
-0.0225218
-0.0153685
-0.0191686
-0.0112104
-0.0167652
-0.00743017
-0.0142728
-0.00521554
-0.0132279
-0.0039857
-0.0115434
-0.00273101
-0.00691217
0.0210209
-0.00938303
0.0194053
-0.0238284
0.004557
-0.00959349
0.013839
0.000893425
0.0123864
0.00799758
-0.00549641
-0.00448095
-0.0107647
-0.0167192
-0.0074383
-0.0249543
-0.0116109
-0.0156419
-0.0228932
-0.0170008
-0.0160275
-0.0164653
-0.0170574
-0.0189439
-0.0240058
-0.0157585
-0.0100481
-0.0144079
-0.00452799
-0.0141116
-0.000243827
-0.0144591
0.0033044
-0.0145756
0.00486184
-0.0141337
0.00561006
-0.0129314
0.0059341
-0.00965508
0.00677363
0.00299046
0.00399922
-0.00540519
-0.00479001
-0.00659773
-0.00104728
0.000567875
0.000831944
0.00364195
-0.00441729
-0.00348141
-0.00375784
-0.00873547
0.00817197
-0.00304901
0.00784694
-0.000311414
-0.0197349
-0.0176603
-0.0204043
-0.0195739
-0.020293
-0.021223
-0.0296936
-0.0141593
-0.0144526
-0.00918528
0.000291847
-0.00856139
0.00647162
-0.0103541
0.0117661
-0.0134651
0.0154475
-0.0143609
0.0178615
-0.0141137
0.0196935
-0.0120857
0.0218597
-0.00898426
-0.000610059
-0.000296455
-0.0047915
-0.0053636
-0.00682076
-0.0053365
-0.00478111
-0.00525015
-0.00326853
-0.00660317
-0.00165955
-0.00744424
0.00755997
0.00185631
0.00644414
0.00518354
-0.00717754
-0.00314916
-0.00991677
-0.00959601
-0.00687895
-0.0125468
-0.0200293
-0.00834855
-0.0230378
-0.0045495
-0.00753147
-0.00302036
-0.00168873
-0.00218907
0.00266535
-0.0044818
0.006811
-0.00540844
0.0107367
-0.0065891
0.0148917
-0.00626065
0.0196166
-0.0084603
0.0238221
-0.00246464
-0.000950207
-0.00468041
-0.00295215
-0.0063908
-0.00411498
-0.00616081
-0.00470793
-0.00546615
-0.00471208
-0.00427016
-0.000297011
0.0021301
0.00133257
0.00432266
-0.0025829
0.00115005
-0.000481054
-0.000953702
0.00682038
0.00129466
0.000190472
0.00162097
-0.0194953
0.00097615
-0.0209265
-0.000938468
-0.0207511
0.00550883
-0.0207757
0.00864615
-0.0200068
0.0134393
-0.0193024
0.0150624
-0.0156921
0.0160107
-0.0106554
0.0123136
-0.00554278
0.00918033
-0.00244697
-0.000128123
-0.00414411
-0.000897496
-0.005547
-0.0016547
-0.00588214
-0.00221278
-0.00534087
-0.00283542
-0.00420409
-0.00201513
-0.00156332
-0.000645689
-0.000308134
-0.000763742
0.00107205
-0.000781339
0.00561939
0.00277996
0.00339337
0.00276858
-0.00609105
0.00140897
-0.0207381
-0.00516731
-0.0301679
0.00127332
-0.0363236
0.00985599
-0.0393858
0.0204642
-0.0420349
0.028017
-0.0425552
0.0347245
-0.0392735
0.0355465
-0.0346296
0.0338369
-0.0322384
-0.00198031
0.000302114
-0.0034804
3.03591e-05
-0.00484358
-0.000239193
-0.00531159
-0.000349826
-0.00487705
-0.000734164
-0.00408451
-0.000703292
-0.00273501
-0.000790765
-0.00207447
-0.00141208
-0.00138988
0.000404978
0.00088997
-0.000487329
-0.000220033
-0.00281309
-0.00214886
-0.0086061
-0.00806221
-0.0156967
-0.0111072
-0.0196598
-0.00842288
-0.021798
-0.00335935
-0.0232785
0.00288874
-0.0222462
0.00817092
-0.0170059
0.0133479
-0.00987468
0.0135439
-0.0077194
0.015987
-0.00163449
0.000550721
-0.00292402
0.000470536
-0.00407176
0.000701902
-0.00453419
0.00107856
-0.00418223
0.0012636
-0.00330642
0.00111768
-0.00251752
0.000576151
-0.00239627
-0.00078437
-0.00247417
-0.00145982
-0.00217184
-0.00218086
-0.00264215
-0.00363484
-0.00343836
-0.0057149
-0.00460084
-0.009175
-0.00478257
-0.011888
-0.00304261
-0.0151347
0.00100994
-0.0165787
0.0069648
-0.0196092
0.0143257
-0.0205653
0.02397
-0.023591
0.0321754
-0.0247982
0.0286466
-0.00139398
0.000659719
-0.00236476
0.000790698
-0.00312418
0.00123603
-0.00347725
0.00179254
-0.00323922
0.00219589
-0.00259927
0.00221755
-0.00208047
0.00169591
-0.00198534
0.000726232
-0.0022234
-0.000277935
-0.00244041
-0.000908541
-0.00261012
-0.00169233
-0.00267168
-0.00283472
-0.00226017
-0.0045649
-0.0011756
-0.00663873
0.00086435
-0.00896721
0.00383105
-0.01068
0.00769943
-0.0120803
0.0123093
-0.0145406
0.0179613
-0.0203727
0.0225071
-0.0291996
0.0255688
-0.000934254
0.000280572
-0.00168721
0.000374803
-0.00221878
0.00070809
-0.00251315
0.00115235
-0.00240138
0.00159042
-0.00194353
0.00171353
-0.00148706
0.00147535
-0.00118393
0.000876427
-0.00108658
0.000140372
-0.00113039
-0.000355816
-0.00111183
-0.000845723
-0.000974226
-0.00142344
-0.000552522
-0.00223542
0.00018883
-0.00334566
0.00132075
-0.00480439
0.00298649
-0.0064098
0.00523774
-0.00827699
0.00783428
-0.0103145
0.0103606
-0.0134219
0.0134622
-0.0188223
0.0113656
-0.000960297
0.000295208
-0.00118392
0.000364453
-0.0014004
0.00064188
-0.00149742
0.0010212
-0.00136399
0.00137901
-0.00101233
0.00146452
-0.00060155
0.00134532
-0.000214018
0.00105098
0.000141213
0.000680188
0.000428969
0.0004252
0.000820806
0.000323627
0.0013947
0.000268062
0.0020648
0.000100236
0.002753
-0.000395323
0.00342432
-0.00127666
0.00415694
-0.00257141
0.00501611
-0.00457972
0.00583092
-0.00764561
0.00641556
-0.0113865
0.00461439
-0.0141952
0.00479612
0.000433611
-0.000684312
7.40944e-05
-0.000462803
-0.000254069
-0.000100278
-0.00042808
0.000261505
-0.000425077
0.00061366
-0.000274635
0.00083355
3.5798e-05
0.000945708
0.000446637
0.00103171
0.000893044
0.00103483
0.00126702
0.00118188
0.00168402
0.00133386
0.00235262
0.00149575
0.00305049
0.00133926
0.00366878
0.00083801
0.00415141
-7.46876e-05
0.00452982
-0.00137062
0.00473867
-0.00293252
0.00467348
-0.00434689
0.00436044
-0.00540796
0.00511201
-0.00692235
0.00270016
-0.00148132
0.00122375
-0.00137314
0.00125779
-0.00162743
0.0014008
-0.00170664
0.0015977
-0.00162064
0.00176933
-0.001328
0.00176904
-0.000841586
0.00163191
-0.000122306
0.00140134
0.00063596
0.00108744
0.00154728
0.00080651
0.00233989
0.000688424
0.00348757
0.000621625
0.00437003
0.000477315
0.00505162
0.000154822
0.00535587
-0.000329767
0.00518079
-0.00103036
0.0046989
-0.00203051
0.00379833
-0.00331817
0.00258127
-0.00498885
0.000854852
-0.0068499
-0.000282466
0.000221498
-0.000109083
0.000350618
-0.00044368
0.000180387
-0.00057496
0.000165554
-0.000685372
0.000210092
-0.000656761
0.000259185
-0.000591932
0.000247304
-0.000336105
0.000209
-8.40975e-05
0.00014034
0.000308695
8.34822e-05
0.000649707
2.42899e-06
0.00112275
-0.000118894
0.00160972
-0.000353744
0.0019562
-0.000723686
0.00225713
-0.00113336
0.00205028
-0.00132649
0.00206299
-0.00148525
0.00153901
-0.00138386
0.000681003
-0.00123627
0.000878764
-0.00164028
-0.00101211
-0.00222792
-0.000903173
0.000630381
-0.000265182
0.000195075
-0.000325121
-4.25492e-05
-0.000289294
-0.000199839
-0.000214349
-0.000278631
-0.000178064
-0.000289314
-0.000160167
-0.000208699
-0.000189373
-8.2599e-05
-0.000268855
9.4962e-05
-0.000315315
0.00028688
-0.000475396
0.000531259
-0.000655516
0.000787701
-0.000977353
0.000932622
-0.00113993
0.00092506
-0.00121248
0.000897803
-0.00111912
0.000502811
-0.000786212
2.27461e-05
-0.000592783
-0.00033044
-0.000755845
-0.00164156
-0.00114102
-0.00272419
-0.00165774
0.000611954
-0.000405984
0.000667053
-0.000560744
0.000515839
-0.000747225
0.000479707
-0.000805239
0.000466088
-0.000769117
0.000432138
-0.000631298
0.000327234
-0.000422702
0.000151458
-0.0001448
-8.94779e-05
0.000133885
-0.000348556
0.000441751
-0.000598855
0.000714709
-0.000838166
0.00091254
-0.00104882
0.00090716
-0.00116164
0.00064504
-0.00116073
7.19367e-05
-0.0009837
-0.000478782
-0.000694436
-0.00112031
-0.000293288
-0.00164814
3.90868e-05
-0.00181662
-0.00011147
-0.00239708
-0.000762969
-0.0005507
0.000569977
2.76151e-05
0.000198128
-0.000208046
3.15025e-05
-0.000296001
-2.20302e-05
-0.000349732
-3.73121e-05
-0.000334561
-4.99383e-05
-0.000301505
-9.45028e-05
-0.000218647
-0.000175589
-0.000146433
-0.000278713
-4.62442e-05
-0.000361024
6.58892e-05
-0.000443336
0.000174366
-0.000516484
0.000279842
-0.00054855
0.000208133
-0.000483214
0.000125748
-0.00039727
-9.50359e-05
-0.000221887
-0.000428201
-8.14638e-05
-0.000662376
6.31187e-05
-0.000997846
8.76473e-05
-0.0013118
-4.02923e-05
-0.00164689
0.000345194
-0.000146496
0.000411376
-0.000135836
0.00013755
-0.000197846
-7.1075e-09
-0.000206644
-8.10075e-05
-0.000167918
-0.000114587
-0.000144631
-0.000122898
-0.000144635
-0.00011182
-0.000175592
-0.000102598
-0.00024123
-8.20898e-05
-0.000270384
-4.84172e-05
-0.000318292
-2.30646e-05
-0.000321499
-2.76732e-05
-0.000309126
-4.92323e-05
-0.00029189
-0.000228651
-0.000227217
-0.00037226
-0.000186147
-0.000610981
-0.00013041
-0.000839054
-7.15819e-05
-0.00102284
9.48254e-06
-0.00123241
-2.24423e-05
-0.00133859
-0.00034687
0.000590288
-0.000172038
0.000383975
-0.000243647
0.000277844
-0.000360798
0.000245998
-0.000397804
0.000237889
-0.000387547
0.000226784
-0.000339057
0.00018002
-0.000273744
0.000100661
-0.000219051
4.45286e-06
-0.00017237
-7.47495e-05
-0.000161435
-0.000121764
-0.000171378
-0.000156178
-0.000240772
-0.000183425
-0.000404619
-0.000193302
-0.000536042
-0.00018821
-0.000719912
-0.000133705
-0.000810205
-5.56483e-05
-0.00090713
6.11239e-05
-0.000979519
0.000168775
-0.00109223
0.00020807
-0.00120209
0.000315738
-0.000203892
0.000375992
4.19875e-05
0.000159508
-5.25319e-05
6.11799e-05
-0.00011663
2.22326e-05
-0.000140685
7.35835e-06
-0.00015927
-8.03282e-06
-0.000156272
-4.12093e-05
-0.000171926
-9.97433e-05
-0.000183005
-0.00017124
-0.000220311
-0.000211261
-0.000258807
-0.000277907
-0.000334516
-0.000344203
-0.000486065
-0.000396758
-0.000586017
-0.000392629
-0.000713768
-0.000365202
-0.000768801
-0.00027147
-0.000803292
-0.00019293
-0.000834432
-0.000110416
-0.00088163
-6.11097e-05
-0.000966714
7.47505e-05
-0.000144079
0.000419083
-0.000101896
0.000269944
-4.25953e-05
0.000134094
-6.55251e-05
6.19237e-05
-6.11917e-05
1.44805e-05
-4.67077e-05
-2.07293e-05
-3.37441e-05
-5.21552e-05
-6.30883e-05
-9.29205e-05
-0.000103884
-0.000148738
-0.000139192
-0.000181655
-0.000189422
-0.000250841
-0.00022692
-0.000350284
-0.000260206
-0.000438301
-0.000257962
-0.000500501
-0.000220602
-0.000560874
-0.000146478
-0.00053332
-6.38712e-05
-0.000548945
-1.19135e-06
-0.00057865
4.51917e-05
-0.000646412
8.25498e-05
-0.000738801
0.000184008
0.000213851
-0.000299668
0.000340284
-0.000125804
0.000218769
-0.000114945
0.000183296
-0.000165239
0.000181982
-0.000186077
0.000185926
-0.000190978
0.000175222
-0.000221605
0.000150056
-0.000232448
9.70535e-05
-0.000253765
4.44305e-05
-0.000328406
1.14124e-05
-0.000388454
-9.11958e-06
-0.000452403
2.97352e-06
-0.000514776
3.1433e-05
-0.000513195
9.04414e-05
-0.000469119
0.000140576
-0.000461666
0.000179779
-0.000496102
0.000189224
-0.000567685
0.000209987
-0.000649014
0.000227419
-0.000720806
0.000255982
-0.000129557
0.00028262
-0.000180052
0.000190577
-9.09791e-06
7.19983e-05
-3.59987e-05
3.61225e-05
-5.94842e-05
2.33936e-05
-7.20155e-05
3.84307e-06
-0.000111527
3.31326e-07
-0.000141238
-4.89369e-05
-0.000176765
-0.00010718
-0.000273401
-0.00011934
-0.000312379
-0.000146546
-0.000370534
-0.000147428
-0.000461961
-9.1303e-05
-0.000407761
-2.38601e-05
-0.000391838
4.44258e-05
-0.00037692
8.81136e-05
-0.000413938
0.000121639
-0.000456248
0.00013513
-0.000533344
0.000171916
-0.000605043
0.000174282
-0.000684634
0.000138798
-0.000245083
0.000225572
-0.000125703
0.000104143
-6.80404e-05
3.9424e-05
-6.21987e-05
9.60226e-06
-4.92595e-05
-2.44722e-05
-3.61892e-05
-5.10491e-05
-6.20698e-05
-0.000100075
-6.60798e-05
-0.000168441
-8.3417e-05
-0.00017582
-0.000121106
-0.000253381
-0.000127244
-0.000349912
-0.000123524
-0.000356726
-9.30609e-05
-0.000409565
-4.7358e-05
-0.000411576
1.67695e-05
-0.000417346
6.54227e-05
-0.000441205
0.00010095
-0.00049878
0.000127626
-0.000558273
0.000174288
-0.000625798
0.000210192
-0.000708008
-0.000107327
0.00019437
-0.000232771
0.000164198
-0.000131849
7.72064e-05
-0.000101103
7.50255e-05
-0.000118566
8.00189e-05
-0.000135586
8.04617e-05
-0.000178013
8.51095e-05
-0.000197031
6.53403e-05
-0.000226005
5.56708e-05
-0.000294736
4.7715e-05
-0.000309088
5.30343e-05
-0.000357238
8.539e-05
-0.000381061
0.000141272
-0.000362422
0.000212964
-0.000290522
0.00028489
-0.000291874
0.000319592
-0.000310634
0.000345947
-0.000385886
0.00035659
-0.000460447
0.000406067
-0.000534051
0.000408567
-0.000599336
8.74726e-05
-0.000198516
0.000162562
-0.000152759
7.52381e-05
4.28685e-07
2.30524e-05
-1.88932e-05
6.61754e-06
-3.77778e-05
-9.33193e-07
-6.49601e-05
-5.62058e-07
-8.55949e-05
-2.47812e-05
-0.000116556
-2.6089e-05
-0.000177239
-2.94854e-05
-0.000169149
-5.36184e-05
-0.000245393
-4.26234e-05
-0.000286823
-1.79563e-07
-0.000264669
4.35106e-05
-0.000274454
0.000100748
-0.000276829
0.000139925
-0.000300359
0.000178641
-0.000343183
0.000193692
-0.000394059
0.000211205
-0.000476913
0.00021447
-0.000558698
0.000300639
-7.73061e-05
0.000138784
-0.000171996
0.000132029
4.99513e-06
2.06759e-05
2.72847e-05
-3.25261e-06
1.24635e-05
-2.54058e-05
2.98546e-06
-4.2999e-05
-1.29237e-05
-7.46133e-05
4.7719e-06
-9.66593e-05
-1.49555e-05
-0.000104898
-3.02488e-05
-0.000179667
-7.84401e-06
-0.000185263
3.3977e-05
-0.000149053
0.000107804
-0.000149844
0.000196935
-6.99611e-05
0.000279709
-5.20866e-05
0.000329125
-6.37985e-05
0.000352488
-0.000126038
0.000360659
-0.000193885
0.000365951
-0.000286873
0.000372529
-0.000382097
0.000435579
6.07827e-05
-0.000141731
0.000137286
-7.35005e-05
2.80243e-05
4.89949e-05
-4.30714e-06
1.87534e-05
-8.45018e-06
-1.21162e-06
-1.2669e-05
-2.61624e-05
-5.09108e-06
-3.88845e-05
-2.23344e-05
-6.93397e-05
-1.96793e-05
-0.000119933
-1.83335e-05
-0.000121123
9.10713e-06
-0.00012865
7.49721e-05
-0.000114634
0.000171566
-2.53747e-05
0.000256182
1.24031e-05
0.000314182
1.48891e-05
0.000332499
-4.07265e-05
0.000350189
-0.000100055
0.000348146
-0.000180055
0.000368936
-0.00027481
0.000391592
-0.000345261
0.000447945
-5.94958e-05
0.000101506
-0.00010999
6.72596e-05
3.74453e-05
-3.87997e-05
3.61043e-05
-2.19894e-05
3.14578e-05
-3.4039e-05
3.1994e-05
-4.46451e-05
3.16194e-05
-7.32804e-05
3.74045e-05
-8.80474e-05
3.26752e-05
-0.000115917
4.82092e-05
-0.000132608
8.06794e-05
-0.000111418
0.000136258
-5.91799e-05
0.000188052
-4.44316e-05
0.000220378
-4.81718e-05
0.000234634
-9.99496e-05
0.000244841
-0.000149106
0.00025008
-0.000238582
0.000249384
-0.000315842
0.000245049
-0.000441694
0.000245619
-0.000531035
0.000298742
3.71042e-05
-9.46591e-05
9.2059e-05
-3.62505e-05
-1.6966e-05
3.91051e-05
6.69052e-07
1.35115e-05
-7.7134e-07
9.8761e-06
-5.88242e-06
9.40159e-06
-1.8813e-05
1.19758e-05
-2.96106e-05
-4.70268e-06
-5.69303e-05
-4.17183e-06
-8.14294e-05
6.63932e-06
-6.59347e-05
2.22311e-05
-8.0581e-05
4.86818e-05
-8.40639e-05
6.74369e-05
-9.94115e-05
8.77322e-05
-0.000130116
0.000102097
-0.000162492
0.000126806
-0.000213839
0.000145485
-0.000266854
0.00017845
-0.000342125
0.000237953
-0.000407857
0.000258461
-0.000487236
-4.36409e-05
7.22029e-05
-6.87876e-05
4.50334e-05
2.84837e-05
-8.34935e-06
6.45415e-06
5.13457e-06
4.35196e-06
1.01342e-05
1.55291e-06
1.36207e-05
-7.12967e-07
5.46228e-06
-1.81749e-05
1.45529e-05
-2.87837e-05
1.28009e-05
-2.04997e-05
3.39821e-05
-3.15396e-05
6.60851e-05
7.12853e-07
0.000103181
4.20624e-06
0.00012712
-1.75068e-06
0.000145883
-3.42538e-05
0.000163708
-5.97798e-05
0.000186861
-0.000109684
0.000213533
-0.000153704
0.000252757
-0.000217091
0.000329431
-0.000266547
0.000367524
-0.000334746
2.23704e-05
-5.8705e-05
6.58027e-05
-1.7939e-05
-1.70224e-06
7.66704e-06
-2.03432e-06
7.62524e-07
-3.67846e-06
9.59094e-06
-7.2138e-07
1.09441e-05
-6.40646e-06
1.65445e-05
-8.46206e-06
9.79002e-06
-1.54378e-05
2.30754e-05
-2.24538e-05
3.72394e-05
1.64977e-06
5.97162e-05
7.09496e-06
7.67462e-05
6.93325e-06
9.025e-05
-1.57663e-05
9.85279e-05
-3.86835e-05
0.000109446
-8.72213e-05
0.000123286
-0.000127598
0.000143284
-0.0001933
0.000171308
-0.000257167
0.000229806
-0.000315687
0.000266889
-0.000397022
-2.94978e-05
4.44678e-05
-3.61739e-05
3.39803e-05
4.58219e-06
-1.18725e-07
-1.97315e-05
-9.29657e-06
7.06326e-07
-4.34802e-06
9.57498e-06
-1.51573e-06
1.75793e-05
-1.8794e-06
1.2886e-05
5.36877e-07
1.73866e-05
-2.24855e-06
1.05667e-05
-1.07026e-07
-5.08547e-06
4.62392e-06
-2.02859e-05
1.92629e-05
-2.84682e-05
4.34645e-05
-4.44494e-05
7.20692e-05
-4.91564e-05
0.000112268
-6.70712e-05
0.000156272
-7.57371e-05
0.000207292
-0.000108537
0.000260704
-0.000145197
0.000345432
-0.000172848
0.000393144
-0.00024086
8.07809e-06
-3.1008e-05
3.68683e-05
-7.59173e-06
7.83508e-06
-1.42941e-05
-3.01436e-06
-1.16478e-05
-5.77017e-06
-1.84427e-06
-8.29543e-07
5.12729e-06
2.25917e-06
7.64011e-06
6.71802e-06
1.60761e-05
1.88602e-06
1.58277e-05
2.90345e-06
1.03542e-05
4.4304e-06
2.31956e-05
7.7837e-06
8.59324e-06
1.43603e-05
-3.46172e-06
2.4385e-05
-1.49788e-05
4.1857e-05
-3.83341e-05
6.29237e-05
-5.78985e-05
9.38111e-05
-9.16224e-05
0.000118865
-0.000122255
0.000143536
-0.000187432
0.000164163
-0.000240385
0.000244484
-1.6285e-05
1.59747e-05
-5.58269e-06
1.72836e-05
4.94449e-06
3.81581e-06
-1.26481e-05
-1.15195e-05
-1.12785e-05
-6.2699e-06
-4.19759e-06
2.50033e-06
2.70604e-06
1.56012e-05
3.90049e-06
2.29148e-05
1.31676e-05
3.79407e-05
1.7278e-05
5.69606e-05
3.16454e-05
6.3033e-05
5.12254e-05
8.90535e-05
7.63359e-05
9.19554e-05
9.86284e-05
9.46066e-05
0.000124261
7.62527e-05
0.000154343
6.48072e-05
0.000192141
3.59976e-05
0.000226298
1.17834e-05
0.000258185
-4.70038e-05
0.000286362
-9.58033e-05
0.000336793
-7.64169e-06
2.68712e-06
1.88529e-05
2.13806e-05
6.72783e-06
-5.36803e-07
-1.57465e-05
-1.85593e-05
-2.10599e-05
-1.57961e-05
-1.69629e-05
-3.98148e-06
-1.17024e-05
8.98588e-06
-4.65982e-06
2.66862e-05
-2.17353e-06
4.12402e-05
9.82952e-06
5.73983e-05
2.34354e-05
8.45226e-05
4.22765e-05
9.52768e-05
5.84379e-05
0.000103331
7.31203e-05
9.18732e-05
8.84995e-05
8.37038e-05
0.000105974
5.74006e-05
0.000127531
3.79382e-05
0.000148522
4.66833e-06
0.000176134
-3.02432e-05
0.000218262
-6.12014e-05
0.000263222
-1.06353e-05
-5.41975e-06
1.09219e-05
-7.5255e-06
4.99647e-06
-2.115e-05
-2.29218e-05
-3.68549e-05
-3.81685e-05
-3.38691e-05
-3.56659e-05
-2.25292e-05
-2.79668e-05
-4.20835e-06
-2.18033e-05
1.45134e-05
-1.41111e-05
3.7405e-05
-1.02215e-05
5.72673e-05
-4.46136e-06
7.06268e-05
-6.85819e-08
8.49979e-05
6.99303e-06
8.71179e-05
1.5733e-05
9.2721e-05
3.10446e-05
8.44069e-05
5.29593e-05
8.08812e-05
8.18689e-05
6.25593e-05
0.000109849
4.90463e-05
0.000134295
1.45939e-05
0.000162065
-1.62671e-05
0.000195341
-2.9098e-05
-1.92592e-05
-2.93207e-05
-9.06384e-06
-3.54034e-05
-3.23268e-05
-5.32274e-05
-5.36582e-05
-5.30689e-05
-5.74904e-05
-5.14872e-05
-5.2435e-05
-5.25219e-05
-4.14788e-05
-5.55586e-05
-2.59918e-05
-5.72604e-05
-1.14082e-05
-5.66778e-05
4.37196e-06
-5.35391e-05
2.17919e-05
-4.71294e-05
4.04145e-05
-4.1037e-05
5.87552e-05
-3.41113e-05
7.3914e-05
-2.90158e-05
8.90621e-05
-2.33077e-05
9.55996e-05
-1.82574e-05
0.00010835
-1.31863e-05
0.000106706
-6.73671e-06
0.000116395
2.73433e-05
9.67677e-05
7.29747e-05
-2.82654e-05
-2.98415e-05
-2.16978e-05
-3.18578e-05
-3.40011e-05
-4.60112e-05
-4.9546e-05
-4.66906e-05
-6.02274e-05
-4.16637e-05
-7.39237e-05
-3.59697e-05
-9.09382e-05
-2.94605e-05
-0.00010999
-2.36614e-05
-0.000124359
-1.82586e-05
-0.000135543
-1.56788e-05
-0.000139364
-4.99861e-06
-0.000135198
-5.68701e-07
-0.000119743
1.25419e-05
-9.15397e-05
1.29447e-05
-5.26516e-05
1.83423e-05
-3.11555e-06
9.49863e-06
5.1019e-05
-3.30422e-06
0.00010465
-1.99225e-05
0.000151811
-5.08111e-05
0.00018098
-6.17152e-05
0.000180582
-7.36382e-06
-5.24697e-06
-6.88484e-06
-8.9677e-06
-1.25289e-05
-1.49209e-05
-1.69625e-05
-2.06381e-05
-1.96237e-05
-2.87038e-05
-2.2124e-05
-4.02206e-05
-2.32118e-05
-5.56275e-05
-2.57431e-05
-7.2115e-05
-2.3749e-05
-8.70353e-05
-2.37733e-05
-0.00010414
-1.88385e-05
-0.000124326
-1.40193e-05
-0.000149822
-2.80781e-06
-0.000180001
1.20099e-05
-0.000214784
3.28717e-05
-0.000251592
6.33146e-05
-0.000287661
9.53106e-05
-0.000321169
0.00014482
-0.00034563
0.000184708
-0.000373516
0.000232696
-0.000335788
0.000288473
-0.694162
-0.0854619
0.134222
-0.533342
0.692359
0.180411
-0.0785334
0.17553
0.476352
0.0741757
0.153025
-0.0514932
-0.0104073
0.0841398
-0.0367807
0.0551662
-0.0512889
0.0696704
-0.0727293
0.0416037
-0.0459198
-0.000698736
-0.0129198
-5.69923e-05
-0.0149492
-0.00786071
-0.0113582
0.00390286
-0.00164892
-0.02572
0.00716309
-0.0167591
0.00403526
0.00958889
-0.00786286
0.00332171
-0.00136918
0.00215031
-0.00464481
0.0155139
0.0021293
-0.000192215
0.0111157
0.00341591
0.00649133
0.00247144
0.00678714
0.00427878
0.00279924
0.00638806
-0.000108776
0.00336475
0.00138746
0.00492944
0.0168968
-0.0131349
0.00697567
-0.00622107
0.00567013
-0.00464474
0.00533514
-0.00615569
-0.000909029
-0.000483749
-0.0020781
-0.00264494
0.00033698
-0.00108346
-0.000433207
-0.00225674
0.00186321
-0.00111473
0.000611808
8.9405e-05
-0.15548
-0.0318991
-0.0202767
-0.125076
0.0949125
0.0741384
0.0267055
0.201122
0.245947
0.138423
0.0454027
0.0197246
0.00573011
0.0409375
-0.0104048
0.0300829
-0.0204587
0.0252109
-0.0126233
0.0220793
-0.000366646
0.0127261
0.00837827
0.0146438
0.0118981
0.0181217
0.0194129
0.0191746
0.0204037
0.0122463
0.0195622
0.0129099
0.0126112
0.0107631
0.00568827
0.010379
0.00607722
0.00648945
0.00583043
0.00811762
0.00412781
0.00357658
0.00486017
0.00271282
0.00246742
0.00067552
0.000521022
-0.00087079
-0.0012445
-0.00037036
-0.00390592
-0.0024045
-0.00344182
-0.00216113
-0.00158435
-0.00759468
-0.00163177
-0.00582431
-0.00123033
-0.00423169
-0.00125751
-0.00328958
-0.00178723
-0.00128121
-0.00137941
-0.00117072
-0.000152579
-0.000504274
-0.000175974
-0.000623272
0.000828817
-0.000387194
0.000424494
6.38413e-05
-0.08396
0.0140979
0.0600521
0.0197602
0.10286
0.0800457
0.00778529
0.0315699
-0.0151719
-0.0255098
-0.00762801
0.000137464
-0.0093268
0.0289361
-0.0254028
0.0172082
-0.0284418
0.0100661
-0.0204391
0.00369586
-0.0184798
-0.0103037
-0.0193163
-0.0137086
-0.0204972
-0.0137347
-0.0183122
-0.0223639
-0.0183773
-0.0237505
-0.0133716
-0.0143013
-0.0106245
-0.00944276
-0.0123362
-0.00533953
-0.00650231
-0.00434737
-0.00343905
0.000566795
-0.00122956
-0.000677594
0.00141042
9.61206e-06
0.0016686
0.00178269
0.00266149
0.0024534
0.00367648
0.00522161
0.00408217
0.00574215
0.00519933
0.00666667
0.0061124
0.00130221
0.00611466
0.00103932
0.00482977
0.000595848
0.00269426
-0.000277751
0.000840071
0.000580533
-0.000390598
-0.000306052
-0.000161161
-0.000489197
-0.000518761
-0.000912834
0.000432576
-0.000667998
0.00010578
-6.28741e-06
-0.0824484
-0.0366128
-0.0432374
-0.0515979
0.00198162
0.0362973
0.0566369
0.133665
0.148934
0.110247
0.0494305
0.0294155
0.0162714
0.0283529
-0.000447804
0.0187267
-0.00970126
0.0110307
-0.00442003
0.00948037
-1.98714e-05
0.00588095
0.00299059
0.00645966
0.00518359
0.00824736
0.0104312
0.0112801
0.0125293
0.00778016
0.0117448
0.00902168
0.00728366
0.00620451
0.00565443
0.00779326
0.00375246
0.00502335
0.00567943
0.00550678
0.00345634
0.00404281
0.00403043
0.00273329
0.00267321
0.00130198
0.00110382
3.79426e-05
-8.64772e-05
0.000131051
-0.00204429
-0.000762751
-0.00147833
-0.000796859
-0.0017773
-0.00384082
-0.00156423
-0.00407961
-0.00134764
-0.00306836
-0.00133345
-0.00217193
-0.00153778
-0.00121636
-0.00117234
-0.000878163
-0.000420851
-0.000540435
-0.000347465
-0.000396217
0.000429725
-0.000434016
0.000297822
1.89767e-05
-0.00788956
0.00814778
0.0354294
0.0283122
0.0492368
0.0357088
0.0233913
-0.000685334
-0.0252647
-0.0306045
-0.0091148
0.00318986
-0.00288995
0.0112843
-0.0128526
0.00245325
-0.016946
-0.00271006
-0.00938109
-0.00299482
-0.010072
-0.00788101
-0.0120313
-0.00977107
-0.0130204
-0.0103694
-0.0128867
-0.0135734
-0.0146166
-0.0160438
-0.0126123
-0.0117472
-0.0108009
-0.00989408
-0.00810233
-0.00459852
-0.00752245
-0.00539698
-0.0030164
-0.00127306
-0.00293591
-0.00160912
-5.57184e-05
-0.00048139
0.000389056
0.000757622
0.00121523
0.00145513
0.00183116
0.00287397
0.00244731
0.00409836
0.00387364
0.00494108
0.00404256
0.0026376
0.00390899
0.00111786
0.0032303
0.000862903
0.00208774
0.000475368
0.000842792
0.000577376
-6.99036e-05
2.30495e-05
-0.000190108
-0.000319197
-0.000323418
-0.000414994
0.000256892
-0.000491906
0.000105977
1.32032e-05
-0.0241236
-0.0265493
-0.0187099
-0.0306791
-0.0122514
0.00208296
0.0265119
0.0518686
0.061778
0.0659391
0.0449487
0.0378004
0.028247
0.0270208
0.00995986
0.0151084
0.001023
0.00728655
0.000120575
0.00450135
5.99333e-05
0.00247606
0.000651508
0.00259166
0.00213278
0.00419096
0.00569351
0.0061818
0.00608222
0.00424299
0.00643375
0.00547741
0.00537483
0.00546865
0.00624782
0.00562385
0.00255934
0.00447839
0.00480933
0.00376283
0.00276141
0.00415534
0.00350328
0.0024085
0.00265283
0.00139871
0.0015134
0.000515632
0.000601862
0.000345353
-0.000745236
0.000159318
-0.000260053
-6.00332e-05
-0.00106517
-0.00194034
-0.00130582
-0.00277082
-0.00123381
-0.00218117
-0.0011228
-0.00158911
-0.00132947
-0.00110762
-0.00100269
-0.000751741
-0.000554053
-0.000565424
-0.000424987
-0.00026469
0.000147861
-0.000458353
0.000200513
-1.13384e-05
-0.0136306
-0.000169123
-0.000940067
0.0110886
0.0141318
0.0190339
0.0159435
0.0060477
-0.0091596
-0.0116262
-0.00101302
0.00181394
0.00439176
0.0037348
-0.00694581
-0.00216822
-0.00810828
-0.00252034
-0.00548966
-0.00281759
-0.0062955
-0.00453606
-0.00707443
-0.00559358
-0.00768203
-0.00619628
-0.00754609
-0.00883721
-0.00855918
-0.0102032
-0.0086911
-0.00886181
-0.00853347
-0.00729652
-0.00597021
-0.00583531
-0.00699102
-0.00397822
-0.0026012
-0.00324846
-0.00353803
-0.00113606
-0.000753755
-0.00177142
-0.000548217
-0.00065037
0.000213481
0.000129926
0.000629909
0.00114341
0.00134859
0.00230746
0.00227863
0.00308905
0.0023567
0.00225704
0.00278338
0.00118014
0.00242887
0.000973409
0.00167272
0.000606354
0.000800354
0.000602024