/*--------------------------------*- C++ -*----------------------------------*\
| =========                 |                                                 |
| \\      /  F ield         | OpenFOAM: The Open Source CFD Toolbox           |
|  \\    /   O peration     | Version:  2312                                  |
|   \\  /    A nd           | Website:  www.openfoam.com                      |
|    \\/     M anipulation  |                                                 |
\*---------------------------------------------------------------------------*/
FoamFile
{
    version     2.0;
    format      ascii;
    arch        "LSB;label=32;scalar=64";
    class       volScalarField;
    location    "350";
    object      magR;
}
// * * * * * * * * * * * * * * * * * * * * * * * * * * * * * * * * * * * * * //

dimensions      [0 2 -2 0 0 0 0];

internalField   nonuniform List<scalar> 
11040
(
0.575753
0.401827
0.0508565
0.247333
0.454899
0.382915
0.329893
0.28655
0.261614
0.240014
0.222626
0.211433
0.205418
0.204775
0.208722
0.215951
0.227291
0.244201
0.267651
0.299848
0.343166
0.399013
0.470907
0.566397
0.685122
0.818956
0.959734
1.10167
1.24658
1.38203
1.46912
1.49204
1.43867
1.31366
1.14329
0.980844
0.563815
0.248866
0.0880763
0.343138
0.528318
0.0499293
0.128074
0.355903
0.963907
0.584216
0.104455
0.0249376
0.0132584
0.0258064
0.0345359
0.0400574
0.0450153
0.0499982
0.0559108
0.0632208
0.0716148
0.0810227
0.0916795
0.104591
0.119091
0.135388
0.151932
0.166483
0.178467
0.187383
0.188242
0.177458
0.155707
0.133354
0.114765
0.0965035
0.0860614
0.0890759
0.101143
0.128048
0.170171
0.221074
0.278108
0.368207
0.396806
0.821022
0.0249938
0.0178966
0.0755177
0.720418
1.58022
1.10331
0.30876
0.117601
0.0504877
0.018575
0.00216278
0.0145239
0.0256157
0.0349062
0.0435733
0.0513023
0.0591801
0.0678491
0.0771799
0.0860788
0.0927767
0.0955318
0.0931529
0.0874644
0.0816149
0.0727074
0.0616167
0.0500141
0.0381936
0.0263571
0.0310408
0.0646318
0.118854
0.195771
0.292922
0.41045
0.544491
0.679551
0.857073
0.961999
1.03238
0.0170554
0.019173
0.0032612
0.0915809
0.880638
2.00833
1.63349
0.597377
0.254447
0.133739
0.0862629
0.0584037
0.0372957
0.0260361
0.0209502
0.022152
0.0274491
0.0337758
0.0403107
0.0458858
0.0498329
0.0523912
0.0553906
0.0605301
0.0684721
0.0777077
0.08469
0.0850503
0.0740625
0.0480613
0.0154081
0.0766599
0.179279
0.31599
0.488908
0.698891
0.942083
1.19144
1.47743
1.72859
1.43517
0.0133154
0.0136256
0.0124723
0.00123136
0.0935828
0.894963
2.24676
2.19271
1.0694
0.476424
0.260582
0.185685
0.13833
0.113957
0.0966027
0.0852567
0.0787834
0.0759553
0.0772583
0.0820714
0.0897686
0.0991568
0.110751
0.125097
0.140949
0.155394
0.16464
0.164037
0.147305
0.109034
0.0532002
0.10155
0.255485
0.464982
0.730034
1.05006
1.42136
1.81007
2.21225
2.65459
2.17996
0.00983546
0.00907006
0.0108065
0.00684953
0.000371937
0.0690515
0.763979
2.25223
2.7187
1.77399
0.812008
0.474396
0.31762
0.252739
0.216203
0.193713
0.182049
0.177011
0.179013
0.186228
0.196934
0.208339
0.220762
0.235693
0.252776
0.269141
0.280111
0.278659
0.254755
0.198525
0.104308
0.105759
0.321202
0.620242
0.995869
1.4459
1.96616
2.51965
3.05958
3.70581
3.24414
0.0072891
0.00688958
0.00694407
0.00835438
0.00370235
1.16675e-05
0.0306334
0.53659
1.96888
3.04508
2.59577
1.42129
0.765776
0.516847
0.408685
0.348566
0.318557
0.303172
0.303357
0.313094
0.328929
0.345265
0.362378
0.381989
0.404541
0.427092
0.443639
0.443855
0.413298
0.336508
0.197877
0.0702471
0.35146
0.755998
1.2585
1.85406
2.53779
3.27242
3.98193
4.82776
4.55394
0.00536063
0.0052816
0.0051582
0.00539869
0.00669738
0.00132221
0.000889203
0.00722076
0.297207
1.44611
2.99552
3.29947
2.32668
1.26133
0.796825
0.596899
0.514219
0.468052
0.453568
0.45708
0.477269
0.504447
0.535962
0.571824
0.609671
0.645661
0.67448
0.682819
0.650479
0.556123
0.376175
0.0938002
0.308612
0.830479
1.47079
2.21931
3.06982
3.98645
4.89218
5.90727
5.98032
0.00399957
0.00395836
0.00401117
0.00390784
0.00436251
0.00456304
0.00160504
0.000584858
0.00189802
0.127856
0.85371
2.42468
3.59102
3.28756
2.13773
1.2357
0.862149
0.701523
0.641532
0.623264
0.640937
0.679133
0.732457
0.797111
0.86869
0.938825
0.995538
1.02251
0.999549
0.899397
0.691745
0.358751
0.180966
0.790149
1.56376
2.45928
3.45991
4.53531
5.62511
6.77905
7.3055
0.00299614
0.00298473
0.00302815
0.00307384
0.0030392
0.00333164
0.00340776
0.00142086
0.000259534
8.54812e-07
0.0311307
0.384982
1.55556
3.21051
3.90091
3.23578
2.0761
1.28607
0.959
0.842974
0.830789
0.871707
0.948138
1.04846
1.1672
1.29283
1.40852
1.49013
1.50671
1.42432
1.21182
0.856532
0.438219
0.657931
1.48039
2.47935
3.58755
4.75838
5.95583
7.19741
8.16056
0.00225275
0.00225196
0.00228753
0.00234324
0.00237398
0.00237693
0.00249741
0.00268377
0.00130478
9.77886e-05
0.000560192
0.000202559
0.107393
0.737886
2.20031
3.74497
4.08817
3.25712
2.13438
1.40855
1.12916
1.09821
1.17938
1.31366
1.48492
1.67565
1.86674
2.02929
2.12596
2.11814
1.96871
1.65911
1.22643
0.943218
1.3615
2.27428
3.37487
4.5245
5.66252
6.83815
7.9773
0.00169687
0.00169959
0.00172818
0.00177123
0.00181732
0.00184886
0.00184879
0.00192587
0.00205442
0.00147737
6.82271e-05
2.52674e-05
0.00251835
0.0142991
0.231576
1.0895
2.6815
4.08924
4.26341
3.4045
2.35116
1.71322
1.51397
1.57538
1.78231
2.04711
2.32829
2.58846
2.78929
2.89228
2.86204
2.67587
2.35069
1.99062
1.86373
2.24389
3.02444
3.92339
4.76249
5.61712
6.5496
0.00127839
0.00128299
0.00130352
0.00133777
0.0013762
0.0014146
0.00144324
0.00145156
0.00149327
0.00158535
0.00140194
0.000311937
3.24124e-05
0.000305783
0.000103005
0.0396071
0.345892
1.32447
2.93722
4.28601
4.48162
3.78046
2.97465
2.45529
2.27645
2.36854
2.65894
3.03205
3.38246
3.64984
3.79684
3.80052
3.66526
3.43243
3.205
3.11762
3.25629
3.55257
3.84801
4.08633
4.39553
0.000962237
0.000967513
0.000982255
0.00100802
0.00103935
0.0010722
0.00110465
0.0011309
0.00114621
0.00116337
0.00124471
0.00121592
0.000676092
5.71892e-05
7.63213e-06
0.0014981
0.00192231
0.0592247
0.399826
1.37713
2.94752
4.31249
4.7889
4.56452
4.146
3.80156
3.6264
3.62463
3.78313
4.06588
4.38381
4.64778
4.80884
4.86621
4.84359
4.77984
4.68908
4.55343
4.31713
3.91241
3.33447
0.000722703
0.000728029
0.0007388
0.000757828
0.000782374
0.000809469
0.000837428
0.000864981
0.00088992
0.000906042
0.000920545
0.000971452
0.00098232
0.000803015
0.00010843
1.85293e-05
4.6638e-05
0.00214338
0.000697991
0.0543123
0.361814
1.17285
2.45486
3.80946
4.78789
5.28409
5.49506
5.56866
5.5539
5.50392
5.4617
5.45598
5.50745
5.61082
5.74382
5.88293
6.01467
6.09129
6.03007
5.75621
5.09296
0.000541103
0.000546043
0.000554003
0.000568016
0.000586694
0.000608195
0.000631252
0.000654997
0.000678567
0.000700855
0.000717461
0.000734207
0.000754883
0.000805582
0.000732728
0.000526812
4.25986e-05
2.90102e-06
1.32586e-05
0.00207291
6.61986e-05
0.0306351
0.192207
0.632856
1.43716
2.52992
3.70738
4.78124
5.68462
6.42311
6.9737
7.29874
7.4157
7.38619
7.28892
7.19811
7.16932
7.1715
7.17832
7.26159
7.06363
0.000404588
0.000408878
0.000414885
0.000425249
0.000439267
0.000455825
0.000474033
0.000493353
0.000513253
0.00053318
0.000552255
0.000569467
0.000583913
0.000601843
0.000627026
0.000658287
0.000552229
0.000250268
2.58214e-05
2.01507e-06
1.13626e-06
0.00131951
0.00592023
0.00501378
0.0370914
0.159049
0.443168
0.937009
1.63395
2.47269
3.37106
4.25308
5.05751
5.7375
6.26613
6.64585
6.92167
7.14953
7.37239
7.67922
7.81371
0.000305486
0.000309132
0.000313891
0.000321809
0.000332533
0.000345316
0.000359655
0.000375053
0.000391245
0.000407951
0.000424659
0.000441064
0.000456878
0.000470857
0.000485178
0.000504348
0.000537075
0.000531791
0.000443355
0.000171869
1.91214e-05
1.90948e-06
0
0.000145536
0.00184616
0.0055075
0.000185681
0.00811678
0.0325479
0.0981696
0.225816
0.423062
0.682377
0.985736
1.30946
1.63267
1.94445
2.24833
2.54118
2.84189
3.10208
0.000234978
0.000238064
0.000241939
0.000248156
0.000256518
0.000266556
0.000277944
0.00029039
0.000303667
0.00031755
0.000331721
0.00034596
0.000360194
0.000374106
0.000387399
0.000399643
0.00041598
0.000436919
0.000459707
0.000450444
0.000355398
0.000169717
1.72207e-05
2.2443e-06
6.73426e-07
0
2.02556e-06
0.000435245
0.00270965
0.00608653
0.0100355
0.00322155
0.00705167
0.00941661
0.010392
0.0193589
0.0429428
0.0795752
0.126512
0.182384
0.237592
0.000184038
0.000186601
0.000189772
0.000194703
0.00020129
0.000209225
0.000218276
0.000228286
0.000239057
0.000250436
0.000262302
0.000274411
0.000286676
0.000299003
0.000311279
0.000323205
0.000334926
0.000347221
0.000362562
0.00038356
0.000399125
0.000398507
0.000334882
0.00022077
6.89206e-05
9.59044e-06
1.83808e-06
1.00777e-06
2.3487e-07
0
0
4.94264e-05
0.00038053
0.00141142
0.00315819
0.0051238
0.00692376
0.00860346
0.0105796
0.00280592
0.00365002
0.000146082
0.000148188
0.00015081
0.00015475
0.000159991
0.000166303
0.000173545
0.000181581
0.000190276
0.000199536
0.000209262
0.000219304
0.000229592
0.000240045
0.000250593
0.000261161
0.000271676
0.000282085
0.000292557
0.000304169
0.000318862
0.000336501
0.000355845
0.000360827
0.000342901
0.000291686
0.000212771
0.000119715
2.91392e-05
5.59795e-06
1.4706e-06
1.07576e-06
7.2358e-07
4.2844e-07
1.91764e-07
4.34461e-08
0
0
0
1.13529e-05
1.6025e-05
0.000117223
0.000118947
0.000121125
0.000124311
0.000128505
0.000133566
0.000139381
0.000145848
0.00015288
0.000160386
0.000168278
0.000176507
0.000184969
0.00019361
0.000202381
0.000211223
0.000220105
0.000228995
0.000237887
0.000246732
0.000256074
0.000266085
0.000278619
0.000293221
0.000308233
0.000321326
0.000326377
0.000319146
0.000298874
0.000261252
0.000210818
0.000158446
0.000110216
6.75024e-05
3.14804e-05
7.46345e-06
2.47778e-06
9.80982e-07
8.48949e-07
7.34799e-07
6.37998e-07
9.48866e-05
9.63037e-05
9.81209e-05
0.000100714
0.000104085
0.000108164
0.000112849
0.000118068
0.000123745
0.0001298
0.000136189
0.00014288
0.000149767
0.000156808
0.000163959
0.000171177
0.000178421
0.000185656
0.000192887
0.000200055
0.000207306
0.00021456
0.000221688
0.00022912
0.000237098
0.000246207
0.000256298
0.000266295
0.000275337
0.000282735
0.000285731
0.000283402
0.000276778
0.000266469
0.000252934
0.000236644
0.000218495
0.000198179
0.000179028
0.000160951
0.000147089
7.73683e-05
7.85276e-05
8.00522e-05
8.21755e-05
8.49074e-05
8.82088e-05
9.19996e-05
9.622e-05
0.000100806
0.000105698
0.000110861
0.000116251
0.000121819
0.000127498
0.000133253
0.000139048
0.000144843
0.000150597
0.000156293
0.000161879
0.000167456
0.000173009
0.00017827
0.000183177
0.000187795
0.000192226
0.000196634
0.000201102
0.000205605
0.000210218
0.00021469
0.000218675
0.000221907
0.000224236
0.000225612
0.000225997
0.000225352
0.000223578
0.000220626
0.000215729
0.000213585
6.34658e-05
6.4419e-05
6.57104e-05
6.74608e-05
6.96877e-05
7.23719e-05
7.54521e-05
7.88744e-05
8.25853e-05
8.65437e-05
9.06987e-05
9.50318e-05
9.95205e-05
0.000104083
0.000108681
0.00011329
0.000117869
0.000122384
0.0001268
0.000131069
0.000135253
0.000139366
0.000143217
0.000146733
0.000149908
0.000152739
0.000155227
0.000157373
0.000159197
0.000160697
0.000161911
0.000162836
0.000163453
0.000163738
0.000163702
0.00016333
0.000162571
0.000161384
0.00016004
0.000157513
0.000157886
5.23333e-05
5.3113e-05
5.42156e-05
5.56697e-05
5.74971e-05
5.96888e-05
6.22036e-05
6.49867e-05
6.79992e-05
7.12015e-05
7.45485e-05
7.80352e-05
8.16409e-05
8.52922e-05
8.89532e-05
9.25969e-05
9.61923e-05
9.97025e-05
0.000103097
0.000106324
0.000109432
0.000112439
0.000115205
0.000117669
0.000119835
0.000121709
0.000123282
0.000124546
0.000125496
0.000126133
0.000126461
0.000126493
0.000126219
0.000125658
0.000124842
0.000123799
0.000122505
0.000120932
0.000119375
0.000116878
0.000117389
4.33345e-05
4.39887e-05
4.49317e-05
4.61441e-05
4.76526e-05
4.94546e-05
5.15169e-05
5.37904e-05
5.6243e-05
5.88394e-05
6.15449e-05
6.43504e-05
6.72357e-05
7.01555e-05
7.30666e-05
7.59407e-05
7.87551e-05
8.14739e-05
8.40728e-05
8.64998e-05
8.88e-05
9.09944e-05
9.29787e-05
9.47031e-05
9.6173e-05
9.74e-05
9.8385e-05
9.91279e-05
9.96285e-05
9.98965e-05
9.99368e-05
9.97641e-05
9.93701e-05
9.87733e-05
9.80003e-05
9.70795e-05
9.59896e-05
9.47025e-05
9.35093e-05
9.14493e-05
9.24883e-05
3.60217e-05
3.6568e-05
3.7377e-05
3.83997e-05
3.9654e-05
4.11454e-05
4.28446e-05
4.4711e-05
4.67155e-05
4.8829e-05
5.10241e-05
5.32818e-05
5.5592e-05
5.79312e-05
6.02485e-05
6.25174e-05
6.47192e-05
6.68253e-05
6.88137e-05
7.06398e-05
7.23423e-05
7.39506e-05
7.53822e-05
7.66009e-05
7.761e-05
7.84254e-05
7.90495e-05
7.94885e-05
7.9746e-05
7.9835e-05
7.97619e-05
7.95422e-05
7.91743e-05
7.86742e-05
7.80657e-05
7.73723e-05
7.65744e-05
7.56398e-05
7.48546e-05
7.32424e-05
7.47956e-05
3.00377e-05
3.05035e-05
3.11992e-05
3.2067e-05
3.31176e-05
3.43597e-05
3.57663e-05
3.73065e-05
3.89511e-05
4.06789e-05
4.24646e-05
4.42867e-05
4.61432e-05
4.8021e-05
4.98689e-05
5.16652e-05
5.33909e-05
5.50265e-05
5.65519e-05
5.79316e-05
5.91983e-05
6.03875e-05
6.14332e-05
6.23085e-05
6.30182e-05
6.35769e-05
6.39911e-05
6.4267e-05
6.44125e-05
6.44363e-05
6.43493e-05
6.41644e-05
6.38825e-05
6.35155e-05
6.30857e-05
6.26111e-05
6.2074e-05
6.14382e-05
6.09858e-05
5.97294e-05
6.16764e-05
2.51202e-05
2.55143e-05
2.61204e-05
2.68625e-05
2.77474e-05
2.87889e-05
2.99617e-05
3.1239e-05
3.25958e-05
3.40145e-05
3.54731e-05
3.69524e-05
3.84521e-05
3.99598e-05
4.14388e-05
4.28669e-05
4.42264e-05
4.55031e-05
4.66809e-05
4.7731e-05
4.86836e-05
4.95746e-05
5.0353e-05
5.09975e-05
5.15154e-05
5.19197e-05
5.22174e-05
5.24145e-05
5.25203e-05
5.25426e-05
5.24907e-05
5.2376e-05
5.21993e-05
5.1969e-05
5.17039e-05
5.14185e-05
5.10965e-05
5.0699e-05
5.05004e-05
4.95136e-05
5.17357e-05
2.10543e-05
2.13964e-05
2.19251e-05
2.2563e-05
2.33177e-05
2.41976e-05
2.51824e-05
2.6248e-05
2.73742e-05
2.85453e-05
2.97438e-05
3.0953e-05
3.21698e-05
3.33845e-05
3.45762e-05
3.57189e-05
3.6799e-05
3.78034e-05
3.87217e-05
3.95291e-05
4.02566e-05
4.09365e-05
4.15308e-05
4.20212e-05
4.24159e-05
4.27272e-05
4.29638e-05
4.31294e-05
4.3232e-05
4.32794e-05
4.32791e-05
4.32395e-05
4.31603e-05
4.30488e-05
4.29201e-05
4.27856e-05
4.26297e-05
4.24135e-05
4.23999e-05
4.16152e-05
4.40095e-05
1.76794e-05
1.79796e-05
1.8448e-05
1.90008e-05
1.9649e-05
2.0398e-05
2.12302e-05
2.21242e-05
2.3065e-05
2.40371e-05
2.50279e-05
2.60225e-05
2.7015e-05
2.79991e-05
2.89667e-05
2.98881e-05
3.07536e-05
3.15525e-05
3.22788e-05
3.29107e-05
3.34782e-05
3.40115e-05
3.44797e-05
3.48698e-05
3.51887e-05
3.54464e-05
3.56513e-05
3.58084e-05
3.59229e-05
3.60011e-05
3.60494e-05
3.60754e-05
3.60769e-05
3.60603e-05
3.60373e-05
3.60181e-05
3.59867e-05
3.59059e-05
3.60239e-05
3.53953e-05
3.78781e-05
1.48699e-05
1.51395e-05
1.55528e-05
1.60376e-05
1.65986e-05
1.7239e-05
1.79469e-05
1.87029e-05
1.94941e-05
2.03073e-05
2.11317e-05
2.19553e-05
2.27694e-05
2.35742e-05
2.43652e-05
2.51156e-05
2.58161e-05
2.64585e-05
2.70401e-05
2.75441e-05
2.79966e-05
2.84266e-05
2.88079e-05
2.91303e-05
2.94006e-05
2.96288e-05
2.98199e-05
2.99791e-05
3.01108e-05
3.02203e-05
3.03115e-05
3.03912e-05
3.04567e-05
3.0513e-05
3.05685e-05
3.06318e-05
3.06881e-05
3.07027e-05
3.09061e-05
3.03939e-05
3.289e-05
1.25215e-05
1.2766e-05
1.31364e-05
1.3563e-05
1.405e-05
1.46041e-05
1.52114e-05
1.58564e-05
1.65267e-05
1.72124e-05
1.79034e-05
1.85911e-05
1.92656e-05
1.99307e-05
2.05811e-05
2.11989e-05
2.17728e-05
2.22978e-05
2.27711e-05
2.31823e-05
2.35524e-05
2.39085e-05
2.42286e-05
2.4505e-05
2.47427e-05
2.49519e-05
2.51363e-05
2.52994e-05
2.54452e-05
2.55787e-05
2.57024e-05
2.58209e-05
2.59317e-05
2.60387e-05
2.61481e-05
2.62664e-05
2.63804e-05
2.64574e-05
2.67095e-05
2.62852e-05
2.87307e-05
1.05547e-05
1.07794e-05
1.11109e-05
1.14894e-05
1.19177e-05
1.24008e-05
1.29263e-05
1.34809e-05
1.40533e-05
1.46362e-05
1.52201e-05
1.57988e-05
1.63634e-05
1.6917e-05
1.74562e-05
1.79701e-05
1.84471e-05
1.88832e-05
1.92754e-05
1.96169e-05
1.99279e-05
2.02308e-05
2.05079e-05
2.07526e-05
2.09692e-05
2.11657e-05
2.13469e-05
2.15151e-05
2.16726e-05
2.1823e-05
2.19689e-05
2.21139e-05
2.22552e-05
2.23951e-05
2.2539e-05
2.26915e-05
2.28415e-05
2.2958e-05
2.32335e-05
2.28799e-05
2.52253e-05
8.90244e-06
9.11095e-06
9.41077e-06
9.74885e-06
1.01286e-05
1.05529e-05
1.10113e-05
1.14913e-05
1.19845e-05
1.24837e-05
1.29818e-05
1.34729e-05
1.3951e-05
1.44157e-05
1.48669e-05
1.52988e-05
1.56998e-05
1.60661e-05
1.63971e-05
1.6686e-05
1.69508e-05
1.72113e-05
1.7454e-05
1.76722e-05
1.78713e-05
1.80575e-05
1.82338e-05
1.84027e-05
1.85664e-05
1.87273e-05
1.88866e-05
1.90468e-05
1.92055e-05
1.93643e-05
1.95268e-05
1.96966e-05
1.98642e-05
2.00023e-05
2.0281e-05
1.99858e-05
2.21863e-05
7.51362e-06
7.70788e-06
7.97923e-06
8.28403e-06
8.62246e-06
8.99772e-06
9.39981e-06
9.81894e-06
1.02471e-05
1.06784e-05
1.1107e-05
1.15279e-05
1.19363e-05
1.23309e-05
1.2713e-05
1.308e-05
1.34217e-05
1.37343e-05
1.40175e-05
1.4267e-05
1.44983e-05
1.47275e-05
1.4945e-05
1.51446e-05
1.53298e-05
1.55071e-05
1.56795e-05
1.58477e-05
1.60133e-05
1.61776e-05
1.63425e-05
1.65084e-05
1.66739e-05
1.68393e-05
1.70083e-05
1.71824e-05
1.73541e-05
1.74993e-05
1.77651e-05
1.75187e-05
1.95369e-05
6.34303e-06
6.52512e-06
6.77229e-06
7.04679e-06
7.3506e-06
7.68387e-06
8.03934e-06
8.40806e-06
8.78303e-06
9.15864e-06
9.5303e-06
9.89387e-06
1.02463e-05
1.05844e-05
1.09116e-05
1.12269e-05
1.15214e-05
1.17916e-05
1.20382e-05
1.22579e-05
1.24641e-05
1.26695e-05
1.28664e-05
1.30496e-05
1.32228e-05
1.33904e-05
1.35551e-05
1.37171e-05
1.38782e-05
1.40388e-05
1.42005e-05
1.43634e-05
1.45264e-05
1.46889e-05
1.48538e-05
1.50219e-05
1.51869e-05
1.53289e-05
1.55705e-05
1.53653e-05
1.71693e-05
5.35653e-06
5.52674e-06
5.75111e-06
6.00088e-06
6.27367e-06
6.57077e-06
6.88652e-06
7.21255e-06
7.54295e-06
7.87266e-06
8.19768e-06
8.51447e-06
8.82072e-06
9.11347e-06
9.39691e-06
9.67098e-06
9.92766e-06
1.01638e-05
1.03802e-05
1.05746e-05
1.07582e-05
1.09419e-05
1.11198e-05
1.12871e-05
1.14464e-05
1.1602e-05
1.17561e-05
1.1909e-05
1.20614e-05
1.22144e-05
1.23685e-05
1.25241e-05
1.26791e-05
1.28338e-05
1.29893e-05
1.3147e-05
1.33001e-05
1.34346e-05
1.36482e-05
1.34836e-05
1.50606e-05
4.52306e-06
4.68205e-06
4.88678e-06
5.11309e-06
5.35986e-06
5.62619e-06
5.90631e-06
6.19462e-06
6.48575e-06
6.7762e-06
7.06249e-06
7.34133e-06
7.61001e-06
7.86597e-06
8.11263e-06
8.35153e-06
8.57792e-06
8.78863e-06
8.98332e-06
9.16091e-06
9.32947e-06
9.49692e-06
9.65993e-06
9.81392e-06
9.96114e-06
1.0105e-05
1.02473e-05
1.03884e-05
1.05288e-05
1.06688e-05
1.0809e-05
1.09498e-05
1.10893e-05
1.12271e-05
1.13639e-05
1.15009e-05
1.16318e-05
1.1747e-05
1.192e-05
1.17882e-05
1.30928e-05
3.82003e-06
3.96772e-06
4.15331e-06
4.35916e-06
4.58106e-06
4.81912e-06
5.06895e-06
5.32472e-06
5.58184e-06
5.83715e-06
6.08848e-06
6.33433e-06
6.57262e-06
6.80045e-06
7.01817e-06
7.22585e-06
7.4205e-06
7.60092e-06
7.76817e-06
7.92234e-06
8.07013e-06
8.21817e-06
8.3637e-06
8.50275e-06
8.63652e-06
8.76808e-06
8.89824e-06
9.0275e-06
9.15586e-06
9.28399e-06
9.41149e-06
9.53885e-06
9.66423e-06
9.78768e-06
9.90851e-06
1.0028e-05
1.014e-05
1.02398e-05
1.03781e-05
1.02792e-05
1.1343e-05
3.22761e-06
3.3652e-06
3.53373e-06
3.71783e-06
3.91471e-06
4.12431e-06
4.34461e-06
4.57203e-06
4.80251e-06
5.03119e-06
5.25417e-06
5.46936e-06
5.6773e-06
5.87955e-06
6.07981e-06
6.27844e-06
6.46977e-06
6.64807e-06
6.81178e-06
6.96119e-06
7.10128e-06
7.23709e-06
7.36822e-06
7.49152e-06
7.60817e-06
7.72134e-06
7.83179e-06
7.94013e-06
8.04607e-06
8.15052e-06
8.25301e-06
8.35391e-06
8.4515e-06
8.54589e-06
8.63618e-06
8.72323e-06
8.80127e-06
8.86951e-06
8.95595e-06
8.88347e-06
9.61617e-06
2.73016e-06
2.8557e-06
3.00749e-06
3.17224e-06
3.3445e-06
3.52485e-06
3.71302e-06
3.90835e-06
4.10988e-06
4.31568e-06
4.52203e-06
4.72265e-06
4.91061e-06
5.07977e-06
5.23052e-06
5.37049e-06
5.50725e-06
5.64152e-06
5.77269e-06
5.89871e-06
6.02121e-06
6.14385e-06
6.26504e-06
6.38122e-06
6.4924e-06
6.60006e-06
6.70477e-06
6.80658e-06
6.90518e-06
7.00051e-06
7.09251e-06
7.18101e-06
7.26499e-06
7.34385e-06
7.417e-06
7.48482e-06
7.54243e-06
7.59187e-06
7.64403e-06
7.59015e-06
8.13153e-06
2.31008e-06
2.42014e-06
2.55206e-06
2.6958e-06
2.84745e-06
3.00669e-06
3.17127e-06
3.33755e-06
3.50376e-06
3.67028e-06
3.84065e-06
4.01981e-06
4.2121e-06
4.41777e-06
4.63173e-06
4.83824e-06
5.02124e-06
5.17875e-06
5.31512e-06
5.43577e-06
5.54475e-06
5.64416e-06
5.73772e-06
5.82368e-06
5.90341e-06
5.97866e-06
6.05008e-06
6.11767e-06
6.18139e-06
6.24106e-06
6.29638e-06
6.34696e-06
6.39196e-06
6.43066e-06
6.46224e-06
6.48676e-06
6.49967e-06
6.50614e-06
6.49515e-06
6.46391e-06
6.57829e-06
1.9571e-06
2.05167e-06
2.15878e-06
2.27271e-06
2.39442e-06
2.52966e-06
2.67979e-06
2.84162e-06
3.00726e-06
3.16589e-06
3.30599e-06
3.41891e-06
3.50263e-06
3.56255e-06
3.61302e-06
3.68401e-06
3.79105e-06
3.91734e-06
4.04939e-06
4.17898e-06
4.30461e-06
4.42778e-06
4.54594e-06
4.65637e-06
4.75852e-06
4.85299e-06
4.94018e-06
5.01978e-06
5.09153e-06
5.15515e-06
5.21051e-06
5.25704e-06
5.29411e-06
5.32112e-06
5.33718e-06
5.34249e-06
5.33281e-06
5.31638e-06
5.27277e-06
5.22736e-06
5.31935e-06
1.66655e-06
1.75937e-06
1.85304e-06
1.93962e-06
2.02027e-06
2.10283e-06
2.19522e-06
2.3052e-06
2.4413e-06
2.61096e-06
2.8188e-06
3.06322e-06
3.3358e-06
3.62142e-06
3.90154e-06
4.12949e-06
4.28255e-06
4.39697e-06
4.48889e-06
4.5659e-06
4.62851e-06
4.67929e-06
4.72274e-06
4.75878e-06
4.78826e-06
4.81228e-06
4.83111e-06
4.84501e-06
4.85359e-06
4.85657e-06
4.85321e-06
4.84303e-06
4.82492e-06
4.79804e-06
4.76122e-06
4.71426e-06
4.6529e-06
4.58637e-06
4.47569e-06
4.45922e-06
3.97697e-06
1.44026e-06
1.53535e-06
1.633e-06
1.7236e-06
1.79994e-06
1.86033e-06
1.90532e-06
1.93732e-06
1.96191e-06
1.98588e-06
2.01601e-06
2.05677e-06
2.10888e-06
2.16786e-06
2.22554e-06
2.31485e-06
2.44636e-06
2.59215e-06
2.74255e-06
2.89044e-06
3.03421e-06
3.17302e-06
3.30527e-06
3.42982e-06
3.54494e-06
3.6501e-06
3.74435e-06
3.82708e-06
3.89714e-06
3.95379e-06
3.99569e-06
4.02187e-06
4.03113e-06
4.02239e-06
3.99389e-06
3.94529e-06
3.87226e-06
3.78444e-06
3.64823e-06
3.54908e-06
3.37982e-06
1.34889e-06
1.38872e-06
1.40186e-06
1.43993e-06
1.56226e-06
1.79435e-06
2.11325e-06
2.47553e-06
2.84109e-06
3.18111e-06
3.47694e-06
3.71894e-06
3.90494e-06
4.03835e-06
4.12907e-06
4.14067e-06
4.09539e-06
4.03899e-06
3.98609e-06
3.94005e-06
3.89641e-06
3.8745e-06
3.8587e-06
3.84946e-06
3.84495e-06
3.84279e-06
3.84114e-06
3.8375e-06
3.8298e-06
3.81532e-06
3.79193e-06
3.75717e-06
3.70907e-06
3.64505e-06
3.56477e-06
3.46722e-06
3.35358e-06
3.22185e-06
3.08643e-06
2.92356e-06
2.86332e-06
9.03137
9.68346
6.71147
2.11324
0.108303
0.0144192
0.000172944
0.00220823
4.73222e-05
0.00250297
1.28609
1.98344
1.2552
0.669326
1.11006
1.66835
2.10444
2.38775
2.51486
2.46571
2.23138
1.82091
1.27789
0.699874
0.239118
0.0297143
6.23357e-06
3.87939e-06
1.08714e-05
9.36253e-05
0.000100875
9.37018e-05
0.000100282
0.000107004
0.000112405
0.000117494
0.000122365
0.000126315
0.000129511
0.000131588
0.000132813
0.000133204
0.00013253
0.000130848
0.000128124
0.000124224
0.000119042
0.000112673
0.000105078
9.63964e-05
8.70142e-05
7.70492e-05
6.69814e-05
5.70783e-05
4.74541e-05
3.85164e-05
3.06301e-05
2.34882e-05
1.76793e-05
1.28726e-05
9.78523e-06
7.79915e-06
7.64106e-06
8.18078e-06
8.9555e-06
9.61933e-06
1.02332e-05
1.04936e-05
1.06802e-05
1.05838e-05
1.05329e-05
1.01493e-05
9.70343e-06
9.42153e-06
8.34482
13.4721
11.6905
6.13076
0.685589
0.130403
0.00900838
0.000136942
0.000931354
0.115639
1.55788
1.92929
1.47289
1.17359
1.08268
1.17621
1.44455
1.75782
2.03602
2.20599
2.22129
2.05429
1.7024
1.20773
0.667238
0.230419
0.0297091
8.82283e-05
8.18321e-07
1.17522e-06
8.27759e-05
0.000106591
9.54568e-05
9.8207e-05
0.000106264
0.000111711
0.000116047
0.000119802
0.000122969
0.00012496
0.00012608
0.000126477
0.000125816
0.000124056
0.000121318
0.000117414
0.000112149
0.000105789
9.83424e-05
8.98141e-05
8.07376e-05
7.12506e-05
6.17252e-05
5.24903e-05
4.34595e-05
3.52199e-05
2.80874e-05
2.15556e-05
1.64035e-05
1.21246e-05
9.50576e-06
7.86541e-06
7.75704e-06
8.19634e-06
8.83079e-06
9.34997e-06
9.87484e-06
1.00628e-05
1.01937e-05
1.00502e-05
1.00023e-05
9.59037e-06
9.16695e-06
8.82759e-06
5.84527
13.1918
14.792
10.7197
3.42524
0.181196
0.0350338
0.00011377
0.00608883
0.265188
1.5872
1.85143
1.85526
1.85788
1.63266
1.25877
0.95257
0.932617
1.20547
1.5424
1.80286
1.91509
1.83658
1.56172
1.13056
0.639675
0.231485
0.0348326
0.0030459
2.86752e-05
5.08301e-06
5.70729e-05
0.000119337
0.000104641
9.72268e-05
0.000102631
0.000108246
0.000111676
0.000114442
0.000116384
0.000117425
0.000117833
0.000117217
0.000115513
0.000112777
0.000108971
0.000103853
9.76167e-05
9.04745e-05
8.23672e-05
7.37801e-05
6.49707e-05
5.61855e-05
4.77775e-05
3.95293e-05
3.21733e-05
2.58524e-05
2.00908e-05
1.56311e-05
1.19952e-05
9.78216e-06
8.43079e-06
8.21523e-06
8.45512e-06
8.83748e-06
9.21424e-06
9.50422e-06
9.63238e-06
9.68561e-06
9.51343e-06
9.40798e-06
8.99701e-06
8.58894e-06
8.20405e-06
4.66862
11.6254
15.5979
14.2668
7.67033
0.887573
0.214638
0.0215133
0.0137709
0.374283
1.59314
1.92694
2.31843
2.58785
2.47659
2.08354
1.55688
1.00927
0.646073
0.773372
1.15256
1.48877
1.67501
1.66544
1.45166
1.07607
0.629722
0.246187
0.0432455
0.000553591
0.000333403
3.06237e-06
8.55263e-06
8.88397e-05
0.000107745
9.6035e-05
9.69652e-05
0.000102446
0.000105832
0.00010745
0.0001083
0.00010874
0.000108233
0.00010664
0.000104016
0.000100348
9.548e-05
8.9524e-05
8.27611e-05
7.51737e-05
6.7185e-05
5.90816e-05
5.10753e-05
4.34849e-05
3.60572e-05
2.95937e-05
2.3989e-05
1.89788e-05
1.51086e-05
1.20382e-05
1.00993e-05
8.93158e-06
8.58161e-06
8.62108e-06
8.79362e-06
9.01757e-06
9.12998e-06
9.18623e-06
9.17578e-06
8.97776e-06
8.83107e-06
8.41334e-06
8.03046e-06
7.6121e-06
4.46603
10.3261
14.9527
16.0205
11.9055
3.78161
0.33919
0.0627913
0.024478
0.435399
1.61021
2.08877
2.7248
3.19783
3.24855
2.96598
2.48287
1.88868
1.25114
0.64421
0.39552
0.781418
1.18517
1.43931
1.49344
1.34255
1.02681
0.63169
0.272386
0.0599001
0.00316543
0.000925197
1.3169e-05
5.5601e-06
6.19048e-05
0.000107537
9.75327e-05
9.12465e-05
9.47987e-05
9.83854e-05
9.94323e-05
9.95815e-05
9.91077e-05
9.7658e-05
9.52653e-05
9.18099e-05
8.72382e-05
8.16888e-05
7.54065e-05
6.84012e-05
6.1092e-05
5.37159e-05
4.64895e-05
3.96926e-05
3.30784e-05
2.74212e-05
2.2463e-05
1.81154e-05
1.4732e-05
1.21048e-05
1.03398e-05
9.28385e-06
8.7981e-06
8.64931e-06
8.67134e-06
8.73073e-06
8.74714e-06
8.72264e-06
8.66437e-06
8.43801e-06
8.2809e-06
7.84597e-06
7.49693e-06
7.05636e-06
4.94785
9.66693
13.8614
16.1581
14.8409
7.98293
1.03298
0.300472
0.0594292
0.448911
1.63027
2.28012
3.04399
3.66114
3.88117
3.75405
3.3907
2.87716
2.27087
1.60919
0.931518
0.306161
0.404385
0.867107
1.18231
1.30102
1.21893
0.974253
0.638926
0.308437
0.0865398
0.00938299
0.000181878
1.49267e-07
3.47107e-06
2.37593e-05
9.18854e-05
0.000100654
8.79126e-05
8.62617e-05
8.93525e-05
9.08917e-05
9.04243e-05
8.88739e-05
8.66538e-05
8.34888e-05
7.92687e-05
7.41667e-05
6.8435e-05
6.2068e-05
5.54915e-05
4.88806e-05
4.24388e-05
3.64259e-05
3.06023e-05
2.56817e-05
2.13337e-05
1.75611e-05
1.45934e-05
1.22938e-05
1.06541e-05
9.61813e-06
9.00136e-06
8.67567e-06
8.54979e-06
8.46147e-06
8.38801e-06
8.28501e-06
8.17962e-06
7.92468e-06
7.76465e-06
7.31326e-06
6.99776e-06
6.54196e-06
5.90828
9.56694
12.9596
15.3973
16.0292
11.97
3.86498
0.546947
0.0618831
0.411933
1.64404
2.46222
3.26131
3.94761
4.31418
4.35731
4.15043
3.76974
3.26724
2.67487
2.01995
1.33042
0.64714
0.0512305
0.51682
0.888599
1.07387
1.06991
0.907425
0.642386
0.350283
0.124058
0.0224548
0.00387734
0.00035297
1.08864e-06
5.63437e-06
5.06964e-05
9.88364e-05
9.05899e-05
8.0328e-05
8.00092e-05
8.1522e-05
8.08457e-05
7.86452e-05
7.56078e-05
7.17436e-05
6.71066e-05
6.19461e-05
5.62438e-05
5.04125e-05
4.45861e-05
3.89268e-05
3.36825e-05
2.86159e-05
2.4381e-05
2.06038e-05
1.73286e-05
1.47111e-05
1.26482e-05
1.10929e-05
1.00144e-05
9.26987e-06
8.7784e-06
8.49047e-06
8.27053e-06
8.08664e-06
7.9061e-06
7.74814e-06
7.46393e-06
7.29408e-06
6.82882e-06
6.54307e-06
6.07482e-06
7.19583
9.85095
12.4416
14.4417
15.8274
14.5328
7.89116
1.39073
0.341753
0.347685
1.62676
2.60878
3.37931
4.0503
4.51165
4.71454
4.68024
4.46334
4.10743
3.64043
3.08158
2.44913
1.77139
1.08426
0.436044
0.128687
0.546893
0.800774
0.882643
0.812647
0.629088
0.389337
0.17202
0.0427295
0.00304211
0.00145542
2.7129e-06
2.59803e-06
5.29748e-06
6.51721e-05
8.84945e-05
7.8157e-05
7.14932e-05
7.11459e-05
7.0808e-05
6.84826e-05
6.48872e-05
6.06424e-05
5.60376e-05
5.10024e-05
4.5905e-05
4.08512e-05
3.59522e-05
3.14405e-05
2.70831e-05
2.34751e-05
2.02111e-05
1.73611e-05
1.50209e-05
1.31325e-05
1.16177e-05
1.04765e-05
9.60761e-06
8.96114e-06
8.51222e-06
8.16003e-06
7.85766e-06
7.59521e-06
7.38133e-06
7.06451e-06
6.87799e-06
6.39589e-06
6.13551e-06
5.6556e-06
8.46321
10.2579
12.1893
13.6449
14.9298
15.3651
11.5842
4.11943
0.753819
0.361181
1.53696
2.69768
3.42147
3.99413
4.47302
4.79613
4.92808
4.8874
4.70296
4.3975
3.98418
3.47308
2.8805
2.2298
1.55668
0.905729
0.329524
0.15825
0.471972
0.643113
0.671989
0.581839
0.412192
0.221766
0.0763804
0.0134291
7.58784e-05
0.000464822
2.34069e-07
3.73079e-06
2.75779e-05
7.45512e-05
7.91435e-05
6.74035e-05
6.17719e-05
6.04357e-05
5.84254e-05
5.49271e-05
5.08143e-05
4.63763e-05
4.19808e-05
3.76727e-05
3.34989e-05
2.96693e-05
2.59628e-05
2.29105e-05
2.00927e-05
1.75991e-05
1.54699e-05
1.37075e-05
1.22008e-05
1.09965e-05
1.00097e-05
9.21657e-06
8.61638e-06
8.12855e-06
7.70879e-06
7.3582e-06
7.08353e-06
6.72854e-06
6.51977e-06
6.01628e-06
5.77587e-06
5.28275e-06
9.23668
10.4279
11.8669
12.9253
13.8582
14.8869
13.8016
7.8598
1.92586
0.590787
1.37553
2.69583
3.40558
3.82545
4.23191
4.60674
4.87145
4.99808
4.99139
4.86476
4.62612
4.27965
3.8319
3.29448
2.68918
2.04754
1.41079
0.822271
0.323087
0.0931108
0.336984
0.466913
0.479864
0.397677
0.258587
0.119542
0.0339967
0.00355185
0.00185352
1.9683e-06
1.22985e-06
2.26093e-08
3.80816e-05
7.3488e-05
6.92735e-05
5.70216e-05
5.14536e-05
4.895e-05
4.60904e-05
4.24149e-05
3.8664e-05
3.50406e-05
3.15449e-05
2.83421e-05
2.52263e-05
2.26457e-05
2.02197e-05
1.80075e-05
1.60488e-05
1.4358e-05
1.28441e-05
1.15731e-05
1.04796e-05
9.54671e-06
8.80192e-06
8.18227e-06
7.64659e-06
7.20238e-06
6.85756e-06
6.45674e-06
6.22003e-06