/*--------------------------------*- C++ -*----------------------------------*\
| =========                 |                                                 |
| \\      /  F ield         | OpenFOAM: The Open Source CFD Toolbox           |
|  \\    /   O peration     | Version:  2312                                  |
|   \\  /    A nd           | Website:  www.openfoam.com                      |
|    \\/     M anipulation  |                                                 |
\*---------------------------------------------------------------------------*/
FoamFile
{
    version     2.0;
    format      ascii;
    arch        "LSB;label=32;scalar=64";
    class       volVectorField;
    location    "350";
    object      momentError;
}
// * * * * * * * * * * * * * * * * * * * * * * * * * * * * * * * * * * * * * //

dimensions      [0 1 -2 0 0 0 0];

internalField   nonuniform List<vector> 
11040
(
(-7.27124 18.5156 -1.64241e-15)
(3.40259 -6.27046 7.70075e-16)
(-2.20508 -4.60901 5.60892e-15)
(-1.89229 -0.21151 1.3122e-16)
(-1.62035 -0.763273 4.69605e-15)
(-1.16045 -0.726718 -2.98083e-15)
(-0.782019 -0.645384 -7.15272e-15)
(-0.476353 -0.503973 -1.4349e-15)
(-0.276488 -0.357209 -4.77636e-16)
(-0.20458 -0.225304 2.53293e-15)
(-0.239462 -0.129338 1.25418e-15)
(-0.310692 -0.0606365 -6.86142e-16)
(-0.453028 -0.0216584 -1.13353e-15)
(-0.611467 -0.00696863 7.80757e-16)
(-0.745007 -0.00539622 -4.32935e-16)
(-0.887689 -0.0126459 -1.13067e-15)
(-1.03401 -0.0229168 8.16863e-16)
(-1.17433 -0.025683 8.53565e-16)
(-1.30011 -0.0168918 -2.76927e-16)
(-1.46092 -0.00190094 -7.26213e-17)
(-1.63209 0.023459 6.52929e-16)
(-1.90789 0.0525579 -3.25704e-16)
(-2.21139 0.0898279 2.7888e-16)
(-2.55177 0.145467 2.02017e-16)
(-2.83069 0.206849 -1.72249e-15)
(-3.01447 0.267668 -1.38183e-15)
(-3.14893 0.311609 -6.82668e-16)
(-3.26961 0.334139 -5.44907e-16)
(-3.32558 0.362474 -1.68982e-15)
(-3.23653 0.368444 7.95613e-16)
(-2.93524 0.355938 1.78136e-15)
(-2.43356 0.278237 3.85244e-15)
(-2.1056 0.243136 4.59527e-15)
(-1.5522 0.349125 -3.69149e-16)
(-0.714244 1.05169 2.55903e-15)
(-0.18981 0.737595 9.21278e-16)
(-0.337597 -0.59452 1.74435e-15)
(-0.0693707 -0.487585 -1.51896e-16)
(0.0822697 -0.0546639 -1.37943e-15)
(0.411566 -0.036751 -2.21504e-15)
(-0.509042 -0.314505 -1.58656e-15)
(-11.0759 34.614 1.0755e-15)
(10.4286 20.5137 3.85037e-15)
(-0.228539 -10.5533 9.17274e-15)
(-4.34368 -4.84583 -1.00157e-15)
(-2.45228 -0.516548 -7.70038e-16)
(-1.931 -0.415815 -1.44232e-16)
(-1.26625 -0.470913 2.33895e-15)
(-0.767371 -0.545692 1.14281e-15)
(-0.45539 -0.542892 -1.48539e-16)
(-0.350647 -0.468962 -9.56094e-16)
(-0.409378 -0.365617 2.07657e-15)
(-0.552733 -0.270473 1.51858e-15)
(-0.762235 -0.177355 1.52848e-15)
(-1.04467 -0.103554 1.07695e-17)
(-1.37165 -0.0551504 -2.74055e-16)
(-1.67395 -0.0232069 4.48765e-16)
(-1.91965 -0.0159167 4.10085e-16)
(-2.13838 -0.01308 5.17055e-16)
(-2.38587 -0.00358569 -1.07658e-17)
(-2.66061 0.0194693 -1.13627e-16)
(-2.96964 0.0628129 -2.40565e-16)
(-3.38434 0.100719 4.74371e-16)
(-3.75511 0.144964 2.47413e-16)
(-4.09663 0.217174 4.76628e-16)
(-4.32659 0.27579 -5.24398e-16)
(-4.4154 0.342131 -1.06303e-15)
(-4.3201 0.385977 9.7136e-16)
(-4.04603 0.397988 8.54338e-16)
(-3.67866 0.405645 -1.04597e-15)
(-3.35645 0.409452 -1.54381e-15)
(-3.04723 0.404073 -1.71456e-15)
(-2.84756 0.389927 -3.00815e-15)
(-2.44348 0.326139 -4.28318e-16)
(-1.98398 0.239988 1.51328e-15)
(-1.47878 0.169907 -1.11343e-15)
(-1.13063 -0.139175 1.40649e-16)
(-0.406868 -0.247186 -1.82876e-16)
(0.275203 -0.204384 1.07372e-15)
(0.728759 -0.275056 -7.2484e-16)
(1.3261 -0.234941 -3.71824e-16)
(1.8832 -0.60086 1.18269e-16)
(-2.49595 18.732 1.42487e-16)
(9.77348 29.9248 -1.67708e-15)
(11.4158 18.5022 -1.2206e-14)
(0.360518 -1.39735 3.4052e-15)
(-4.17442 -3.93229 1.05878e-15)
(-2.17571 -0.619275 1.32989e-15)
(-1.62837 -0.374274 2.12143e-15)
(-1.01842 -0.396979 3.1792e-16)
(-0.599926 -0.459343 -6.20265e-16)
(-0.447339 -0.459554 -1.09425e-16)
(-0.502531 -0.376404 -1.72899e-15)
(-0.671244 -0.284872 6.61288e-16)
(-0.922142 -0.18525 -1.66684e-17)
(-1.24299 -0.10548 2.99384e-16)
(-1.579 -0.0518669 8.97703e-16)
(-1.89848 -0.00370536 2.1841e-18)
(-2.19444 0.0221286 -3.15724e-16)
(-2.47034 0.0418273 -6.3133e-17)
(-2.74462 0.0598952 1.30434e-17)
(-3.01237 0.0857142 1.72515e-16)
(-3.27226 0.133162 3.31265e-16)
(-3.59175 0.172281 -1.25262e-16)
(-3.7868 0.184014 2.01637e-16)
(-3.88442 0.190703 -3.93875e-16)
(-3.95595 0.204095 3.12988e-16)
(-3.91735 0.2223 9.76487e-16)
(-3.77381 0.233922 -4.67877e-16)
(-3.58374 0.239348 -5.81056e-16)
(-3.39282 0.253585 2.15886e-16)
(-3.19038 0.268882 1.17903e-15)
(-2.8986 0.262101 -4.39197e-16)
(-2.57326 0.214739 -2.50288e-16)
(-2.17483 0.142742 3.92396e-16)
(-1.6769 0.0339312 2.75643e-16)
(-1.09155 -0.0905745 -9.2796e-16)
(-0.465165 -0.267245 -2.04168e-15)
(0.211499 -0.361671 4.68493e-17)
(0.93858 -0.472096 7.536e-16)
(1.59755 -0.621079 9.76559e-17)
(2.40443 -0.577514 1.08255e-15)
(3.60943 -0.947615 1.68763e-16)
(-2.77567 13.7777 -2.51194e-16)
(4.33599 22.5138 -1.63931e-16)
(12.4875 23.5271 2.84048e-15)
(13.388 16.9283 -2.80345e-16)
(3.50461 3.26593 -1.62306e-15)
(-2.81103 -2.35291 2.27791e-15)
(-1.80392 -0.787108 -9.04035e-17)
(-1.06355 -0.409161 2.83072e-16)
(-0.6547 -0.436897 -3.33595e-16)
(-0.379035 -0.393994 6.95306e-16)
(-0.396588 -0.33435 9.75598e-16)
(-0.576012 -0.242045 -1.07655e-15)
(-0.830724 -0.128668 9.3316e-16)
(-1.16774 -0.0354924 5.69398e-16)
(-1.50813 0.0185064 1.533e-16)
(-1.82863 0.0646897 -4.98399e-16)
(-2.1188 0.0870729 -4.83445e-16)
(-2.3674 0.105041 -2.59338e-16)
(-2.58792 0.120022 4.78425e-17)
(-2.77619 0.136555 -6.23046e-17)
(-2.93856 0.170848 -5.14855e-17)
(-3.14812 0.199824 -1.06715e-16)
(-3.26847 0.194918 -2.31659e-16)
(-3.34542 0.157171 -3.79481e-17)
(-3.40519 0.129558 -1.19953e-15)
(-3.40663 0.117089 -4.88728e-16)
(-3.34173 0.110629 5.96461e-16)
(-3.22963 0.110463 3.57437e-16)
(-3.06398 0.122093 1.02985e-15)
(-2.83019 0.122808 -6.39048e-16)
(-2.50133 0.105855 7.92197e-16)
(-2.14784 0.0365356 -9.82794e-16)
(-1.73228 -0.0590796 -9.32892e-16)
(-1.20879 -0.200973 5.33434e-16)
(-0.58585 -0.353584 -1.73336e-16)
(0.112418 -0.52804 -8.15246e-17)
(0.85853 -0.683781 -6.70949e-16)
(1.66741 -0.860692 5.47145e-16)
(2.42854 -1.03653 -3.15181e-16)
(3.34961 -0.996774 -1.32507e-16)
(4.81708 -1.26581 9.46793e-16)
(-1.38103 12.3651 2.31894e-16)
(1.52869 15.5498 -1.29693e-16)
(8.27548 16.845 -4.51951e-16)
(13.6968 18.2931 7.10939e-16)
(14.7681 16.0938 1.28846e-16)
(7.25808 7.64681 1.81187e-16)
(-0.333106 0.402598 -5.89355e-16)
(-1.33331 -1.09288 -9.92926e-16)
(-0.611588 -0.54229 4.15485e-16)
(-0.319711 -0.456343 -8.91012e-17)
(-0.169792 -0.269154 4.75179e-16)
(-0.298113 -0.159698 2.15069e-16)
(-0.543934 -0.0448817 -4.81435e-16)
(-0.87458 0.0722132 -7.40373e-16)
(-1.20904 0.123216 2.01386e-16)
(-1.51548 0.161659 2.14753e-17)
(-1.78368 0.167406 -1.98547e-16)
(-1.99543 0.165513 -3.00354e-16)
(-2.16669 0.157354 -5.05367e-17)
(-2.30182 0.14906 5.46243e-17)
(-2.41981 0.155566 1.6294e-16)
(-2.5883 0.160815 -3.51607e-16)
(-2.70877 0.143875 -8.78928e-17)
(-2.81378 0.102236 5.83698e-16)
(-2.89939 0.0573996 4.27817e-16)
(-2.93241 0.027134 -4.53348e-16)
(-2.88826 0.00327042 3.7842e-16)
(-2.77119 -0.0155711 3.98914e-16)
(-2.58108 -0.0240512 -5.6534e-16)
(-2.31974 -0.0434655 3.33247e-16)
(-1.97268 -0.0775587 -7.96505e-17)
(-1.58739 -0.166738 1.23002e-15)
(-1.14111 -0.293869 5.33102e-16)
(-0.591301 -0.473605 -1.98393e-18)
(0.055047 -0.667864 2.69168e-16)
(0.785412 -0.870018 4.02892e-16)
(1.56236 -1.06657 -1.90168e-16)
(2.38984 -1.27726 2.92122e-16)
(3.11769 -1.52233 1.10293e-16)
(4.16404 -1.43451 -3.18062e-16)
(5.58008 -1.5776 -2.69321e-16)
(-0.498659 10.8591 -1.01809e-16)
(0.980469 10.8354 1.58983e-16)
(5.14545 12.3973 4.68107e-16)
(8.91401 13.5324 4.48762e-16)
(13.5971 13.7627 -1.32303e-15)
(15.4512 14.6049 -7.1731e-17)
(10.8684 11.2008 -6.79936e-16)
(3.29208 3.81754 -1.18503e-15)
(-0.32864 -0.778318 1.98055e-17)
(-0.232432 -0.582702 -6.30935e-16)
(0.0153931 -0.378848 3.13087e-16)
(0.00540029 -0.154688 6.00251e-18)
(-0.148811 0.0632722 -1.58496e-16)
(-0.462455 0.192329 -3.69295e-16)
(-0.797004 0.243394 6.25924e-17)
(-1.09139 0.281682 -2.42601e-16)
(-1.34628 0.268083 -1.00672e-16)
(-1.5385 0.244902 -1.1953e-16)
(-1.68798 0.21315 -4.8835e-17)
(-1.80492 0.18035 6.70943e-17)
(-1.91445 0.160779 7.37207e-17)
(-2.06773 0.142866 4.10858e-17)
(-2.188 0.108883 2.11123e-17)
(-2.29972 0.0516968 -2.57299e-16)
(-2.39457 -0.0137961 1.77461e-16)
(-2.43519 -0.0692809 7.54539e-16)
(-2.39286 -0.11705 -5.84286e-16)
(-2.26734 -0.157175 -7.63252e-16)
(-2.06278 -0.185159 -2.35182e-16)
(-1.78468 -0.22223 3.01653e-16)
(-1.42335 -0.275776 5.59365e-16)
(-0.999619 -0.387483 -2.64246e-16)
(-0.50775 -0.550497 -5.47266e-16)
(0.0820064 -0.765454 -6.21432e-16)
(0.754185 -1.00136 -2.09484e-16)
(1.49775 -1.23731 7.97897e-16)
(2.2755 -1.46594 4.17745e-16)
(3.07459 -1.69637 -3.71963e-17)
(3.7833 -1.97044 5.97865e-16)
(4.63618 -1.8957 -3.77235e-16)
(5.90667 -1.88223 -2.61748e-16)
(0.0659943 9.31513 6.6583e-17)
(1.0713 8.66908 -2.80726e-17)
(3.57123 9.05268 -1.89346e-16)
(5.8941 10.6213 -7.17152e-16)
(9.00995 10.0264 -3.70855e-16)
(12.5797 9.51971 3.89521e-16)
(15.142 11.9835 4.19131e-16)
(13.5625 12.8049 -2.85597e-17)
(7.38679 7.2878 1.00915e-15)
(2.05338 1.24413 -3.07836e-16)
(0.0559162 -0.902791 1.11776e-16)
(0.236686 -0.335566 -2.64173e-16)
(0.17606 0.02002 9.19383e-16)
(-0.0242608 0.295952 -8.27133e-16)
(-0.333895 0.396635 1.52013e-16)
(-0.653791 0.404951 -2.17608e-16)
(-0.922227 0.365849 -5.36074e-17)
(-1.10959 0.323351 1.15558e-16)
(-1.25267 0.26995 -1.38412e-17)
(-1.36351 0.2167 -1.97638e-16)
(-1.47349 0.175427 2.07129e-16)
(-1.61741 0.136537 -1.84978e-16)
(-1.72989 0.083479 -1.48657e-16)
(-1.82595 0.00979206 2.74653e-16)
(-1.90376 -0.0753863 -2.10936e-16)
(-1.93997 -0.159947 -2.2124e-16)
(-1.90408 -0.238675 -1.3289e-16)
(-1.78324 -0.302727 -1.57914e-16)
(-1.57832 -0.352129 -3.95504e-17)
(-1.29111 -0.407713 2.56264e-16)
(-0.917226 -0.483143 1.66142e-16)
(-0.453877 -0.61886 2.66637e-16)
(0.0964421 -0.822345 -3.06621e-16)
(0.744572 -1.07426 -5.93691e-16)
(1.4605 -1.3454 -2.69286e-16)
(2.21567 -1.61303 6.51552e-16)
(2.97774 -1.86219 -6.76524e-19)
(3.70552 -2.10585 -4.30849e-18)
(4.32519 -2.37498 2.29542e-16)
(4.86157 -2.20023 3.50524e-16)
(5.86189 -2.24015 -2.5487e-16)
(0.453438 7.8061 -1.54711e-17)
(1.32214 7.39482 2.45789e-17)
(2.64088 6.46234 -5.66699e-17)
(4.36514 7.84297 1.03429e-16)
(6.30062 8.55111 2.38926e-16)
(8.53028 7.08741 8.13183e-16)
(11.0567 5.80792 -7.00403e-16)
(13.7822 8.49387 -9.74459e-16)
(14.5419 12.0422 3.50114e-16)
(11.0764 9.77751 5.28903e-16)
(5.42224 4.11719 1.59287e-15)
(1.21885 0.0275776 -1.27028e-15)
(0.213087 -0.460509 4.59711e-16)
(0.284132 0.17051 -2.67378e-16)
(0.0676589 0.439158 -5.57082e-16)
(-0.202825 0.540081 6.02285e-16)
(-0.485831 0.4982 6.74943e-17)
(-0.704015 0.40936 4.25553e-16)
(-0.858457 0.325195 -2.75102e-16)
(-0.965949 0.25173 -2.6807e-16)
(-1.07504 0.193765 3.37065e-16)
(-1.21277 0.14004 -1.02961e-16)
(-1.32669 0.0719325 -2.49303e-16)
(-1.41938 -0.0180325 5.84067e-17)
(-1.48483 -0.128273 1.21468e-16)
(-1.50818 -0.244093 -1.27671e-16)
(-1.47046 -0.348445 -2.02095e-16)
(-1.36287 -0.436448 4.07055e-16)
(-1.17228 -0.513829 4.40286e-16)
(-0.886138 -0.594154 -2.31758e-16)
(-0.50136 -0.699194 -4.02437e-16)
(-0.00651418 -0.858111 -1.45031e-16)
(0.60545 -1.1091 2.87435e-16)
(1.33182 -1.40171 2.17146e-16)
(2.1211 -1.7038 -2.57472e-17)
(2.91471 -1.98706 -2.27719e-16)
(3.66174 -2.24239 3.54768e-16)
(4.29677 -2.47303 -3.65907e-16)
(4.78079 -2.70537 8.36825e-17)
(5.0888 -2.61916 9.53136e-17)
(5.60566 -2.36999 2.60995e-16)
(0.684772 6.40905 -4.80922e-17)
(1.44795 6.19 1.21157e-17)
(2.12938 5.0041 1.92295e-17)
(3.36976 5.64492 -5.90398e-17)
(4.75507 6.47931 6.78512e-17)
(6.27993 6.62682 -1.0569e-17)
(7.77677 4.97708 -2.41823e-16)
(9.40554 3.13966 6.70487e-16)
(11.6683 4.55774 -3.86893e-16)
(13.8129 9.34134 9.27782e-16)
(13.1604 10.9322 -1.85819e-16)
(8.7757 6.91501 -6.15793e-16)
(3.50388 2.18933 2.81612e-16)
(0.516533 -0.0757187 -2.77963e-16)
(0.132492 0.0397346 -5.52751e-16)
(0.1369 0.490136 1.56644e-16)
(-0.0755864 0.5754 2.26304e-16)
(-0.27299 0.53355 3.95041e-16)
(-0.436167 0.424091 -5.09865e-17)
(-0.557819 0.305083 -3.24696e-16)
(-0.667976 0.223792 3.28826e-16)
(-0.796516 0.157232 -5.20735e-18)
(-0.918454 0.0761355 -4.71265e-17)
(-1.03142 -0.0305347 1.44092e-16)
(-1.12135 -0.164386 1.52115e-16)
(-1.16419 -0.309558 2.81888e-16)
(-1.14225 -0.44596 6.51139e-17)
(-1.0531 -0.567652 -1.53177e-17)
(-0.880653 -0.67226 -1.83598e-16)
(-0.604768 -0.785217 -1.08509e-17)
(-0.215197 -0.929018 -1.97241e-16)
(0.290041 -1.12058 7.59678e-17)
(0.949358 -1.42085 -1.38519e-16)
(1.76106 -1.76365 -1.62693e-16)
(2.65252 -2.09262 3.99047e-17)
(3.53389 -2.37305 1.82232e-16)
(4.30827 -2.60102 8.31875e-17)
(4.87125 -2.76518 1.51309e-17)
(5.20799 -2.90281 -1.17349e-16)
(5.25045 -2.80402 2.51912e-16)
(5.2445 -2.35768 4.98049e-17)
(0.804239 5.15749 1.3745e-16)
(1.46217 5.07241 -3.85294e-17)
(1.93299 4.13278 -1.08623e-16)
(2.56579 4.11408 9.05271e-17)
(3.68426 4.64703 -1.36276e-16)
(4.82013 5.14012 9.83615e-17)
(5.97652 5.1113 6.73014e-16)
(6.98284 3.64863 -1.16724e-15)
(7.92796 1.55189 -2.40306e-16)
(9.31396 1.73717 1.96575e-15)
(11.6962 5.60734 9.03557e-17)
(13.1512 9.48371 -1.69766e-16)
(11.2562 8.87812 -8.59108e-16)
(6.36586 4.93419 5.35711e-16)
(2.00239 1.48405 -1.09823e-15)
(0.114451 0.107148 2.35755e-16)
(0.0246885 0.257379 -4.81214e-17)
(0.0304478 0.493633 3.79305e-16)
(-0.0852483 0.474608 -1.70643e-16)
(-0.167706 0.389987 -3.46841e-16)
(-0.255049 0.291864 2.15416e-16)
(-0.372415 0.191919 -4.36481e-17)
(-0.494138 0.0958996 -1.37667e-16)
(-0.620427 -0.0173701 1.71462e-16)
(-0.743129 -0.164665 1.57123e-16)
(-0.836914 -0.336934 -1.60367e-16)
(-0.87784 -0.511833 1.23846e-16)
(-0.84813 -0.668102 1.43177e-16)
(-0.72627 -0.815258 7.37169e-17)
(-0.485468 -0.981719 -1.08753e-16)
(-0.107853 -1.18626 9.55205e-17)
(0.401533 -1.43723 1.40679e-16)
(1.05647 -1.76984 8.79063e-17)
(1.92453 -2.17472 1.23682e-16)
(2.92248 -2.53549 2.02371e-16)
(3.93447 -2.79373 -2.27471e-16)
(4.82251 -2.93726 5.14447e-17)
(5.40737 -2.94901 3.4073e-17)
(5.65897 -2.88169 2.24929e-17)
(5.42514 -2.59903 -7.54966e-18)
(4.8589 -2.00444 -3.66529e-17)
(0.84315 4.07371 2.15605e-17)
(1.39958 4.06959 8.62997e-17)
(1.78671 3.40981 7.85623e-17)
(2.11815 3.21298 -7.33832e-17)
(2.84798 3.42149 -2.82837e-17)
(3.74081 3.72094 2.61584e-16)
(4.66278 3.97455 8.17454e-17)
(5.54372 3.90659 -4.82421e-16)
(6.23528 2.82955 4.98442e-16)
(6.71022 0.874166 -7.18088e-16)
(7.47527 -0.0307106 -1.43764e-15)
(9.27979 2.19867 -3.05196e-16)
(11.6596 6.47904 4.43458e-16)
(12.3015 8.97549 -6.40448e-16)
(9.51705 7.52754 -5.15511e-16)
(4.91374 4.13202 6.92145e-16)
(1.33775 1.21531 2.34624e-17)
(-0.012226 0.0654954 6.9204e-16)
(-0.000525078 0.157678 -1.20334e-16)
(0.0763438 0.311665 -4.52749e-16)
(0.0579456 0.313124 7.47643e-17)
(0.0258559 0.264221 -5.76191e-17)
(-0.050416 0.171271 -1.24232e-17)
(-0.169932 0.0409577 -1.33982e-16)
(-0.315169 -0.117848 3.08292e-16)
(-0.459688 -0.305728 -4.07675e-17)
(-0.575106 -0.505767 -1.5063e-16)
(-0.639999 -0.699604 6.58434e-17)
(-0.621546 -0.900895 -7.69987e-17)
(-0.475073 -1.13605 5.67086e-17)
(-0.171846 -1.42107 -2.14992e-16)
(0.289179 -1.75846 7.16401e-18)
(0.897515 -2.1331 1.5091e-16)
(1.70888 -2.61552 2.48342e-16)
(2.74386 -3.04157 1.36602e-16)
(3.86939 -3.29235 -1.63632e-16)
(4.92447 -3.32765 -1.48303e-16)
(5.68158 -3.09532 -1.23369e-16)
(6.05819 -2.65651 -3.0541e-16)
(5.72971 -1.94573 -3.00747e-16)
(4.67117 -1.04754 -1.75415e-16)
(0.823115 3.15941 8.4729e-17)
(1.29068 3.19298 5.68401e-17)
(1.61004 2.73843 -1.00592e-16)
(1.8901 2.59073 -4.45774e-17)
(2.24909 2.52027 9.26537e-17)
(2.9234 2.71063 1.30186e-17)
(3.6557 2.85801 -1.85184e-16)
(4.39381 2.95931 9.08905e-17)
(5.08209 2.91315 1.39147e-15)
(5.61584 2.26415 -5.27172e-16)
(5.89611 0.759998 -1.12713e-15)
(6.18231 -0.670774 1.3518e-15)
(7.28325 -0.196907 6.60428e-16)
(9.61232 2.86909 -3.01205e-17)
(11.9998 6.74829 2.61923e-16)
(12.1159 8.4709 -4.83589e-16)
(9.17695 7.04434 -1.13996e-16)
(4.86319 3.93491 4.88849e-16)
(1.44296 1.04485 3.71511e-16)
(0.139525 -0.134773 -7.0552e-16)
(0.107628 -0.0742741 1.33904e-16)
(0.246345 0.128119 -9.72279e-17)
(0.281279 0.203138 -9.32093e-17)
(0.252948 0.170378 -5.30064e-17)
(0.161995 0.0449744 2.16585e-16)
(0.0118438 -0.163912 1.52887e-16)
(-0.161349 -0.403688 -2.13805e-16)
(-0.32461 -0.636968 -1.18902e-16)
(-0.435453 -0.883574 7.31723e-17)
(-0.433621 -1.18214 -9.40263e-17)
(-0.27715 -1.54547 7.01153e-17)
(0.0386615 -1.97433 2.05012e-17)
(0.506838 -2.44326 5.85538e-17)
(1.13622 -2.96363 -6.52323e-17)
(1.98695 -3.52981 -1.92886e-16)
(3.04844 -3.88699 -3.08751e-17)
(4.15975 -3.895 5.01856e-17)
(5.14088 -3.42396 1.25372e-16)
(5.92902 -2.49481 -2.50671e-17)
(5.95163 -1.06798 -7.15005e-17)
(5.01309 0.659878 -8.85173e-18)
(0.765495 2.40503 -5.3428e-17)
(1.15442 2.45155 3.05883e-17)
(1.41757 2.13739 1.15683e-17)
(1.6682 2.04344 -1.07063e-16)
(1.90142 1.9411 1.09962e-17)
(2.293 1.94407 1.71585e-17)
(2.87327 2.0559 -2.33722e-16)
(3.47123 2.09805 -3.52422e-16)
(4.06669 2.10375 8.9969e-17)
(4.63102 2.06384 -3.87459e-16)
(5.08414 1.72849 5.60677e-16)
(5.29935 0.771562 8.85032e-17)
(5.3962 -0.623376 -3.3577e-16)
(5.91514 -1.40716 -3.34496e-16)
(7.5137 -0.395292 3.78598e-16)
(10.2975 2.82277 5.38518e-16)
(12.7616 6.47356 -1.8505e-15)
(12.9165 8.13711 1.48513e-15)
(10.1812 6.97999 2.10564e-16)
(5.95515 4.07417 -6.46447e-16)
(2.23238 1.12738 3.22109e-16)
(0.646141 -0.255516 -1.3341e-16)
(0.475086 -0.343596 -1.27415e-16)
(0.486811 -0.139239 -1.13084e-17)
(0.461882 0.0324387 3.45904e-16)
(0.416955 0.0650274 -3.51686e-17)
(0.316338 -0.0612655 -2.3497e-17)
(0.162252 -0.286235 -2.7945e-16)
(-0.0240517 -0.60531 1.57162e-16)
(-0.160297 -1.01441 3.58464e-16)
(-0.183788 -1.49437 -5.44193e-17)
(-0.0799947 -2.03272 -1.75859e-16)
(0.140529 -2.60666 3.84505e-17)
(0.490262 -3.15541 -4.10649e-17)
(0.989392 -3.77206 -1.98773e-16)
(1.65524 -4.32055 9.75218e-17)
(2.51482 -4.49142 -1.71052e-17)
(3.5192 -3.99108 -1.04308e-16)
(4.6572 -2.76328 1.57292e-17)
(5.3415 -0.669166 9.7947e-17)
(5.413 2.19626 4.27267e-17)
(0.684984 1.7952 6.21568e-17)
(1.00505 1.84021 -4.75984e-17)
(1.22103 1.62227 -4.72429e-17)
(1.44033 1.56163 -2.43088e-18)
(1.64734 1.4903 6.33361e-17)
(1.86439 1.42209 5.63205e-17)
(2.25988 1.44716 2.26592e-16)
(2.73535 1.47874 2.30889e-16)
(3.22286 1.45141 6.18122e-17)
(3.71254 1.39256 -7.86063e-16)
(4.18607 1.32876 -3.7782e-16)
(4.57403 1.1589 -1.10936e-16)
(4.81473 0.642375 -6.7939e-16)
(4.88285 -0.393261 5.30681e-16)
(5.01641 -1.64968 1.86114e-15)
(5.7643 -2.25677 -1.04168e-15)
(7.66196 -1.21052 -2.02099e-16)
(10.6883 1.9205 4.04858e-16)
(13.4258 5.62085 -4.36518e-16)
(14.0631 7.63561 1.19707e-15)
(11.7786 6.98129 -2.58314e-16)
(8.2521 4.91635 -5.93801e-16)
(4.38887 2.21552 -7.11705e-16)
(1.98997 0.263715 3.91835e-16)
(1.20928 -0.482979 4.59553e-16)
(0.948357 -0.609909 6.24439e-17)
(0.72046 -0.511063 1.18521e-17)
(0.521925 -0.325475 5.19122e-19)
(0.355067 -0.264747 7.0857e-17)
(0.27044 -0.423075 1.10713e-16)
(0.247956 -0.8044 1.75641e-16)
(0.275572 -1.35103 -2.5829e-16)
(0.324719 -2.02287 4.5308e-17)
(0.396287 -2.74092 -7.86185e-17)
(0.56312 -3.40649 -8.76438e-17)
(0.90935 -4.08321 5.84128e-17)
(1.32026 -4.46169 1.62133e-16)
(1.99667 -4.32787 -1.03291e-16)
(3.05118 -3.48113 -6.06748e-17)
(4.12215 -1.55322 -6.16759e-17)
(5.19344 1.69252 3.95996e-17)
(0.594012 1.31316 -2.7041e-17)
(0.853597 1.34818 4.12877e-17)
(1.02957 1.19541 2.682e-18)
(1.21716 1.15268 8.09351e-17)
(1.39755 1.10109 -6.58903e-17)
(1.56979 1.04055 1.28159e-17)
(1.78486 0.988115 7.67299e-17)
(2.15077 0.996409 -1.00852e-16)
(2.54102 0.973633 2.74021e-16)
(2.94081 0.904071 2.52046e-16)
(3.34286 0.801652 -6.68982e-16)
(3.72291 0.693962 1.15231e-15)
(4.07291 0.572093 9.96851e-16)
(4.33664 0.314156 -1.01133e-15)
(4.45024 -0.299864 -6.17585e-16)
(4.43678 -1.40055 -4.67781e-16)
(4.54949 -2.70533 1.07507e-15)
(5.29841 -3.39538 -1.07327e-15)
(7.18899 -2.49609 2.89718e-16)
(10.2663 0.386923 4.68741e-16)
(13.3894 4.15211 -3.09331e-16)
(15.5585 6.99197 -4.23272e-16)
(14.9452 7.67537 1.37655e-16)
(12.4976 6.8657 2.36874e-16)
(9.01154 4.95088 -3.41262e-16)
(5.54797 2.55798 1.15776e-16)
(3.2753 0.622168 2.75902e-16)
(2.18044 -0.515162 -6.15059e-16)
(1.53829 -1.17482 2.2766e-16)
(1.08222 -1.61277 1.85459e-16)
(0.881397 -1.82638 -9.47712e-17)
(0.874181 -1.8661 -2.09805e-16)
(0.936005 -1.88618 1.06491e-16)
(1.04937 -2.01511 2.83772e-16)
(1.24928 -2.34905 -3.016e-17)
(1.61447 -2.83735 2.92747e-17)
(2.2793 -3.47667 -9.55802e-17)
(3.0776 -3.84093 -9.26475e-17)
(3.73768 -4.02329 -1.07675e-16)
(4.60791 -3.51297 6.90124e-17)
(5.75077 -1.67677 1.24508e-16)
(0.500586 0.940946 -2.7523e-17)
(0.708619 0.963978 2.68083e-17)
(0.849956 0.854465 -2.25947e-17)
(1.00633 0.820316 -1.00975e-16)
(1.15925 0.778892 2.20486e-18)
(1.30781 0.729674 -1.48268e-16)
(1.4535 0.673999 -3.4248e-17)
(1.67917 0.630852 1.53905e-16)
(1.98818 0.601898 -9.8189e-17)
(2.30808 0.541277 -1.62153e-18)
(2.63275 0.443389 -4.40464e-16)
(2.94536 0.311262 4.23537e-16)
(3.25546 0.165363 -2.88533e-16)
(3.55489 0.0256871 -9.44522e-16)
(3.81534 -0.137235 1.27427e-15)
(3.98127 -0.453088 5.03582e-16)
(3.99148 -1.13366 2.66308e-16)
(3.86408 -2.29706 -1.43619e-17)
(3.82901 -3.68598 -2.45867e-16)
(4.38362 -4.5272 -2.06642e-16)
(6.05526 -3.92587 -9.0426e-17)
(9.5052 -1.73899 2.68735e-16)
(13.3155 1.58034 -5.13736e-16)
(16.4945 4.77391 -2.41132e-18)
(18.2273 6.97052 1.23143e-16)
(18.5324 8.07934 -1.56209e-16)
(17.6304 8.10731 -4.85046e-16)
(15.4693 6.88312 6.78381e-16)
(12.4985 4.59652 6.24578e-16)
(9.84491 1.97725 -5.24064e-16)
(8.19627 -0.303995 -1.8124e-16)
(7.32013 -2.02758 -1.80574e-16)
(6.72314 -3.28988 -9.09076e-17)
(6.22665 -4.20459 5.16357e-16)
(6.00498 -4.83628 -1.93807e-16)
(6.09636 -5.11952 -9.4361e-17)
(6.33255 -4.98004 1.23715e-16)
(6.61574 -4.43503 -4.04516e-19)
(7.41377 -3.80083 1.41982e-16)
(8.46387 -3.33653 1.11605e-16)
(9.43326 -3.12128 -1.57703e-17)
(0.4085 0.651211 3.07984e-18)
(0.573658 0.666252 3.7158e-17)
(0.685984 0.587446 1.0927e-17)
(0.813396 0.558317 -1.40297e-17)
(0.939506 0.522639 -1.21762e-17)
(1.06387 0.480723 -2.10562e-17)
(1.18704 0.432048 1.31521e-16)
(1.32108 0.377802 1.27097e-16)
(1.53597 0.328533 -7.51155e-17)
(1.78634 0.267768 -1.47888e-16)
(2.04319 0.180605 -3.8044e-16)
(2.29176 0.063641 3.43028e-16)
(2.53662 -0.0834464 -4.0484e-16)
(2.77731 -0.252891 -2.68354e-16)
(3.01366 -0.426624 5.22701e-16)
(3.23677 -0.591988 3.29595e-16)
(3.41744 -0.785698 4.46302e-16)
(3.49427 -1.13741 -7.89107e-16)
(3.40294 -1.83093 -4.22442e-16)
(3.13596 -2.9781 1.3581e-15)
(2.90692 -4.34773 -6.97671e-16)
(3.41786 -5.67096 -1.42798e-16)
(4.82284 -5.99995 1.2594e-16)
(7.36781 -5.21774 -4.43868e-16)
(10.9345 -3.38006 7.60285e-16)
(15.1162 -0.877891 -5.32347e-16)
(19.2616 1.66349 -6.21479e-16)
(22.8255 3.7721 3.32759e-16)
(25.7465 5.26791 2.92445e-16)
(28.0868 5.98406 9.71991e-16)
(29.6716 5.65637 -6.06845e-16)
(30.3111 4.21284 -5.22443e-16)
(30.1195 1.9489 3.59179e-16)
(29.4165 -0.609069 9.06865e-18)
(28.7719 -3.01371 -1.04265e-16)
(28.3193 -4.93856 5.31264e-17)
(27.929 -6.20219 2.58264e-17)
(27.0074 -6.57454 1.06922e-16)
(25.9352 -6.26354 -1.20233e-16)
(25.127 -5.19354 5.35169e-17)
(24.2224 -3.82662 -7.96461e-17)
(0.345661 0.468623 -1.63129e-17)
(0.476469 0.470106 1.6394e-17)
(0.565859 0.40912 1.69542e-17)
(0.666883 0.378954 -1.10592e-17)
(0.766755 0.343486 4.42624e-17)
(0.865342 0.303057 -1.29065e-16)
(0.963268 0.25735 -2.29085e-16)
(1.06128 0.20574 2.49696e-16)
(1.18283 0.145963 5.25111e-16)
(1.38047 0.084413 -5.60408e-16)
(1.58355 0.00215285 -8.86992e-17)
(1.78209 -0.10226 7.39795e-16)
(1.97672 -0.23099 -5.16686e-16)
(2.16465 -0.385345 1.69714e-16)
(2.34524 -0.564728 -8.12927e-17)
(2.51912 -0.760458 -1.03674e-15)
(2.68681 -0.954055 1.8291e-15)
(2.83862 -1.13727 5.32797e-16)
(2.94201 -1.34924 -1.53113e-15)
(2.93156 -1.70641 1.33602e-15)
(2.72885 -2.36602 -1.23545e-16)
(2.49755 -3.59655 -1.06311e-15)
(2.17809 -5.05931 1.84391e-16)
(2.06431 -6.62385 4.61104e-16)
(2.44827 -8.007 -8.18193e-16)
(3.5749 -8.97612 1.47908e-17)
(5.5158 -9.41116 1.68049e-16)
(8.36742 -9.20501 5.69082e-17)
(12.0371 -8.4346 -6.5461e-16)
(16.1573 -7.41813 5.7504e-16)
(20.3131 -6.50973 8.44656e-16)
(24.1584 -5.95785 -1.25709e-16)
(27.4907 -5.82065 -3.35312e-16)
(30.1659 -5.99573 -6.16059e-16)
(32.3016 -6.41028 1.27674e-16)
(33.8686 -6.87754 4.0399e-17)
(34.8826 -7.20349 1.03183e-16)
(35.0491 -7.04848 1.85588e-17)
(35.0187 -6.5178 1.62741e-16)
(34.6167 -5.26876 1.34419e-16)
(34.1905 -3.66019 -6.7792e-17)
(0.294226 0.344714 -2.73197e-17)
(0.398865 0.337237 -2.59953e-17)
(0.471141 0.287776 3.3846e-18)
(0.551473 0.257202 3.09106e-17)
(0.630475 0.222237 2.20893e-17)
(0.708066 0.18335 -1.09612e-16)
(0.785052 0.140225 -1.27909e-17)
(0.861757 0.0919189 1.38645e-16)
(0.93961 0.0390689 -2.86839e-16)
(1.0728 -0.0253113 -5.56866e-17)
(1.23188 -0.102551 7.97021e-16)
(1.38907 -0.197281 1.2551e-16)
(1.54297 -0.311375 -1.06521e-15)
(1.6902 -0.445117 2.60755e-16)
(1.82851 -0.599667 3.11652e-16)
(1.95581 -0.776579 -1.35833e-15)
(2.07127 -0.974186 5.21564e-17)
(2.17648 -1.18235 6.9163e-16)
(2.2728 -1.38415 8.06291e-16)
(2.35225 -1.57348 -4.92895e-16)
(2.38016 -1.78484 2.13462e-16)
(2.43508 -2.24009 4.81973e-16)
(2.28049 -2.85969 -9.03621e-16)
(1.92337 -3.7687 -3.31814e-16)
(1.37729 -4.98331 1.02565e-16)
(0.710324 -6.46136 3.16595e-16)
(0.038532 -8.09526 -1.68987e-16)
(-0.516499 -9.77368 3.41227e-16)
(-0.832709 -11.3504 -2.01173e-16)
(-0.844529 -12.6994 -6.68391e-17)
(-0.530685 -13.7246 4.15618e-16)
(0.0328493 -14.3395 -3.16745e-16)
(0.829053 -14.5339 -1.30316e-16)
(1.77799 -14.3556 4.93373e-16)
(2.71191 -13.9021 -5.46091e-16)
(3.54664 -13.1729 3.32326e-16)
(4.17199 -12.1945 2.41478e-16)
(4.57511 -10.8241 -4.06782e-16)
(4.83513 -9.26006 7.99011e-17)
(4.80092 -7.37467 1.5441e-16)
(5.17742 -5.36709 2.99859e-17)
(0.249955 0.255324 -7.61413e-18)
(0.334428 0.242977 -6.67894e-18)
(0.393319 0.201758 4.68307e-18)
(0.457738 0.172086 -3.24412e-18)
(0.520482 0.138743 8.90704e-18)
(0.581839 0.102265 1.92523e-17)
(0.642285 0.0622647 -5.05585e-17)
(0.702462 0.0181814 1.98134e-17)
(0.762924 -0.0304803 8.31305e-17)
(0.837021 -0.0873794 -7.98935e-17)
(0.962262 -0.158388 1.04531e-16)
(1.08554 -0.243545 -1.11811e-16)
(1.20601 -0.344238 6.9444e-17)
(1.32026 -0.460774 4.79949e-16)
(1.42588 -0.593021 -6.14063e-16)
(1.52066 -0.741405 -2.82041e-16)
(1.60174 -0.907036 -1.42046e-16)
(1.66673 -1.0909 1.13067e-16)
(1.71547 -1.28997 3.99661e-16)
(1.74994 -1.4952 -1.94548e-16)
(1.77256 -1.69099 -5.50213e-16)
(1.88061 -1.99527 4.46527e-16)
(1.91906 -2.27483 4.82431e-16)
(1.87299 -2.61285 -8.20536e-16)
(1.69383 -3.04884 3.56834e-16)
(1.33908 -3.61804 2.53555e-16)
(0.779544 -4.34191 -4.35858e-16)
(0.000203823 -5.2227 8.10096e-16)
(-0.9893 -6.23062 -2.13382e-16)
(-2.15278 -7.3005 -6.6348e-16)
(-3.43203 -8.3405 -9.26798e-18)
(-4.74927 -9.24069 7.56139e-16)
(-6.071 -9.93121 -6.0977e-16)
(-7.31861 -10.3156 -2.07098e-16)
(-8.48555 -10.4056 4.37169e-16)
(-9.55011 -10.1867 2.54146e-17)
(-10.5138 -9.66428 -6.71868e-17)
(-11.2366 -8.78279 -4.13603e-17)
(-11.8966 -7.72489 3.65965e-17)
(-12.3162 -6.39479 -7.99533e-18)
(-12.3753 -4.93939 5.89694e-17)
(0.211818 0.1896 1.0649e-17)
(0.280618 0.175104 -1.85226e-17)
(0.328765 0.14017 -5.62774e-18)
(0.380658 0.112168 1.94775e-17)
(0.430686 0.0811767 1.54238e-18)
(0.479291 0.0476078 -1.29998e-17)
(0.526861 0.0111286 5.76716e-17)
(0.574001 -0.0287081 4.54309e-17)
(0.62104 -0.0725219 -1.25056e-16)
(0.669577 -0.120169 -8.01439e-17)
(0.755162 -0.183892 2.37443e-17)
(0.850845 -0.259344 -1.46613e-16)
(0.94452 -0.347285 -7.92016e-17)
(1.03251 -0.447717 2.26861e-16)
(1.11236 -0.560651 1.63223e-16)
(1.1821 -0.685489 1.58914e-18)
(1.23948 -0.82206 -6.44219e-17)
(1.28151 -0.970366 -1.13024e-16)
(1.30543 -1.13095 2.39676e-16)
(1.30861 -1.30397 2.85562e-16)
(1.29168 -1.48422 1.7912e-17)
(1.33205 -1.7663 -5.12949e-16)
(1.34211 -2.01469 -5.5269e-17)
(1.33302 -2.26382 3.3248e-16)
(1.29116 -2.51123 4.47862e-16)
(1.19678 -2.76135 -2.27413e-16)
(1.026 -3.02333 -5.87169e-16)
(0.753443 -3.30632 -5.02428e-16)
(0.357852 -3.61478 1.82919e-16)
(-0.172953 -3.94531 4.3908e-16)
(-0.839036 -4.28439 -8.55781e-17)
(-1.628 -4.61118 1.56706e-16)
(-2.51613 -4.89621 -2.99846e-17)
(-3.46257 -5.09509 4.35725e-17)
(-4.44467 -5.2035 -2.96765e-16)
(-5.41268 -5.19311 1.89785e-16)
(-6.32114 -5.04749 4.76212e-18)
(-7.07002 -4.72381 9.31303e-17)
(-7.75765 -4.30376 -1.19934e-16)
(-8.22618 -3.76509 1.46799e-16)
(-8.5959 -3.17562 -2.77846e-17)
(0.179215 0.140825 2.51872e-17)
(0.235505 0.125597 -1.0164e-17)
(0.275058 0.0957481 -3.63873e-18)
(0.316946 0.0698627 1.62948e-17)
(0.356998 0.0415291 2.06509e-18)
(0.395574 0.0111118 3.87617e-17)
(0.433097 -0.0217259 -7.16979e-17)
(0.469953 -0.0573797 1.30149e-16)
(0.506616 -0.0962095 -2.75711e-16)
(0.54402 -0.1387 -2.32797e-17)
(0.594246 -0.190356 4.92499e-16)
(0.668936 -0.256797 -4.73911e-16)
(0.741565 -0.333021 -3.96219e-17)
(0.809272 -0.418852 4.39481e-16)
(0.869611 -0.514322 2.97595e-16)
(0.92066 -0.618616 1.28619e-16)
(0.960827 -0.731154 -2.96713e-16)
(0.987843 -0.850854 -7.46175e-16)
(0.999381 -0.977023 4.71867e-16)
(0.992597 -1.10902 -2.01223e-16)
(0.965515 -1.24498 3.74544e-16)
(0.97086 -1.46698 5.29302e-16)
(0.946403 -1.66948 -8.69534e-16)
(0.903305 -1.8785 4.41899e-19)
(0.840999 -2.08636 4.60421e-16)
(0.758928 -2.28536 -2.85653e-16)
(0.655246 -2.46927 8.99565e-18)
(0.526646 -2.63308 3.50764e-16)
(0.367599 -2.77339 -6.01696e-16)
(0.173025 -2.88855 -1.96869e-16)
(-0.0616 -2.97722 5.47137e-16)
(-0.337577 -3.03864 3.72216e-16)
(-0.652235 -3.06949 -2.00638e-16)
(-0.99379 -3.05724 -3.44189e-16)
(-1.35761 -3.01133 1.57042e-16)
(-1.72585 -2.92622 7.902e-17)
(-2.08046 -2.79835 -1.90906e-16)
(-2.38255 -2.60481 1.76841e-16)
(-2.67439 -2.39548 -1.29654e-16)
(-2.89731 -2.15086 2.85792e-17)
(-3.0885 -1.91204 7.25097e-17)
(0.151379 0.104293 -4.66581e-18)
(0.197558 0.0893303 4.41715e-18)
(0.230173 0.0636616 -1.43767e-17)
(0.264092 0.0400807 1.95107e-18)
(0.296255 0.0144841 -3.61853e-17)