/*--------------------------------*- C++ -*----------------------------------*\
| =========                 |                                                 |
| \\      /  F ield         | OpenFOAM: The Open Source CFD Toolbox           |
|  \\    /   O peration     | Version:  2312                                  |
|   \\  /    A nd           | Website:  www.openfoam.com                      |
|    \\/     M anipulation  |                                                 |
\*---------------------------------------------------------------------------*/
FoamFile
{
    version     2.0;
    format      ascii;
    arch        "LSB;label=32;scalar=64";
    class       volScalarField;
    location    "350";
    object      nut;
}
// * * * * * * * * * * * * * * * * * * * * * * * * * * * * * * * * * * * * * //

dimensions      [0 2 -1 0 0 0 0];

internalField   nonuniform List<scalar> 
11040
(
4.66714e-05
4.54552e-05
1.89962e-05
0.000163725
0.000206714
0.000183787
0.000166908
0.000150741
0.000142075
0.000134438
0.000127719
0.000123207
0.000120997
0.000121319
0.000123587
0.000127077
0.000131966
0.000138806
0.000147621
0.000158526
0.000171515
0.000186437
0.000203878
0.000225139
0.000249167
0.000273295
0.000296031
0.000317718
0.000341539
0.000366923
0.00038707
0.000400838
0.000406714
0.000405666
0.000405778
0.000431223
0.000348322
0.000286074
0.000305047
0.000326406
0.00036473
8.99821e-06
4.6591e-05
6.43213e-05
0.000393062
0.000629289
0.000560699
0.000505391
0.000430707
0.000397146
0.00037309
0.000350718
0.000334827
0.000326455
0.000327317
0.000334112
0.000343195
0.000353915
0.00036772
0.000384693
0.000402151
0.000418249
0.000431458
0.000444157
0.000462032
0.000486287
0.000506218
0.000516841
0.000520231
0.000546977
0.000615031
0.000688875
0.000771258
0.000861525
0.000959736
0.00106968
0.0011968
0.00131592
0.00144199
0.001576
0.00165554
0.00198536
4.42388e-06
1.61128e-05
2.39505e-05
0.000229578
0.000725135
0.00114602
0.00112295
0.000963398
0.000875427
0.000823832
0.000775717
0.00073997
0.000710511
0.000689058
0.00067523
0.000664105
0.000659272
0.000666056
0.000681727
0.000698054
0.000708693
0.00071251
0.000713716
0.000732208
0.000795618
0.000879101
0.000982243
0.00110675
0.00125349
0.00142043
0.00160199
0.0017953
0.00199816
0.00221519
0.00244948
0.00270451
0.00297254
0.00326307
0.00357008
0.0038102
0.00442332
5.81906e-06
7.3489e-06
6.64793e-06
4.94163e-05
0.000377897
0.00105738
0.00165652
0.00171327
0.00156371
0.00147882
0.00138807
0.00132599
0.00127036
0.0012303
0.0012065
0.00118554
0.00117218
0.00116688
0.00116518
0.00116696
0.00117194
0.00118944
0.00122989
0.00130762
0.00142912
0.00159086
0.00178931
0.00202226
0.00228682
0.00257959
0.00289542
0.00323029
0.00358037
0.00395086
0.00434909
0.00478233
0.00524792
0.00575581
0.00630025
0.00679416
0.00771056
6.17614e-06
6.08738e-06
6.10082e-06
1.95907e-06
7.60869e-05
0.000497165
0.0013345
0.00218333
0.00244769
0.00243601
0.00225205
0.00215377
0.00206525
0.00200121
0.00196501
0.00193035
0.0019103
0.00190538
0.00190872
0.00192101
0.00193882
0.00197561
0.00204684
0.00217198
0.00235925
0.00260889
0.00291875
0.00328452
0.00369978
0.0041571
0.00464691
0.0051614
0.00569356
0.00624745
0.00683835
0.00748526
0.0081905
0.00896827
0.00981865
0.0106722
0.0119364
6.15202e-06
5.91913e-06
6.76198e-06
3.43507e-06
2.18573e-07
8.01155e-05
0.000554201
0.00152065
0.00267095
0.0032692
0.00344182
0.00338736
0.00321839
0.00307298
0.00300201
0.00294989
0.00292375
0.00292672
0.00294743
0.0029888
0.00303558
0.00309979
0.0032027
0.00337389
0.00363274
0.0039865
0.00443451
0.00496846
0.00557451
0.00623824
0.00694244
0.00767383
0.00842055
0.00918385
0.00998366
0.0108627
0.0118374
0.0129311
0.0141581
0.0154845
0.0172217
6.11753e-06
6.11849e-06
6.14046e-06
6.86987e-06
1.64089e-06
1.74755e-10
4.69463e-05
0.000527428
0.00156641
0.00299882
0.00410553
0.00451716
0.00464047
0.00461199
0.0045034
0.00438337
0.00430169
0.00428714
0.00432971
0.00442247
0.004527
0.00464195
0.00479444
0.00502208
0.0053599
0.00583091
0.006443
0.00718258
0.00802222
0.00893671
0.00989522
0.010877
0.0118635
0.0128493
0.0138569
0.0149527
0.016197
0.0176288
0.0192905
0.0212007
0.0235919
6.1194e-06
6.13432e-06
6.06734e-06
6.27539e-06
7.44911e-06
3.21112e-07
6.32178e-07
1.10715e-05
0.000423059
0.00144146
0.00306799
0.00473615
0.00562842
0.00600772
0.00612843
0.00614386
0.00610204
0.00607871
0.00610129
0.00619916
0.00636588
0.00658927
0.00686883
0.00723715
0.00770302
0.00830487
0.00909837
0.0100781
0.0111938
0.0124045
0.0136532
0.0149096
0.0161481
0.0173496
0.0185311
0.0197835
0.0212366
0.0229699
0.0250774
0.0276531
0.0309018
6.12112e-06
6.10877e-06
6.16195e-06
5.93769e-06
6.95241e-06
6.0291e-06
7.09512e-07
2.09387e-07
4.49909e-06
0.000293105
0.00115411
0.00281247
0.00492547
0.00662565
0.00739532
0.00778332
0.00794298
0.0080325
0.00810294
0.00823348
0.00846261
0.00881432
0.00928407
0.0098984
0.0106566
0.0115669
0.01264
0.0138843
0.0153101
0.0168605
0.0184268
0.0199624
0.0214472
0.0228346
0.024112
0.0254054
0.0269025
0.0287802
0.031223
0.0344503
0.0387177
6.11735e-06
6.1192e-06
6.11796e-06
6.11585e-06
6.03386e-06
6.93852e-06
5.90109e-06
8.7287e-07
4.05389e-08
2.96226e-12
0.000131727
0.000787776
0.0022803
0.00458178
0.00706194
0.00872222
0.00947742
0.00990544
0.0101548
0.0103955
0.0107186
0.011214
0.0119016
0.0128216
0.013978
0.0153716
0.0169951
0.0188214
0.0207868
0.0227806
0.0246884
0.0264648
0.0281414
0.0296556
0.0308817
0.0319817
0.033279
0.0349333
0.0373382
0.0409098
0.0460184
6.11616e-06
6.11735e-06
6.11386e-06
6.12381e-06
6.08324e-06
6.12534e-06
6.636e-06
6.45749e-06
1.22853e-06
7.00894e-09
5.59414e-07
9.86097e-08
0.000390307
0.00155156
0.003721
0.00663888
0.00942837
0.0111155
0.0119406
0.0124942
0.012989
0.0136367
0.0145208
0.0157329
0.0172932
0.0191997
0.0214309
0.0239371
0.026631
0.0293931
0.0320912
0.0345886
0.0367262
0.0383255
0.0392955
0.0398064
0.040575
0.0414823
0.043039
0.0460254
0.0506394
6.11477e-06
6.11508e-06
6.11415e-06
6.11232e-06
6.11678e-06
6.09877e-06
6.08248e-06
6.58752e-06
6.68862e-06
2.75348e-06
4.98378e-09
8.85991e-10
2.97341e-05
0.000112777
0.000827236
0.00254403
0.00537988
0.00888468
0.0120279
0.0139056
0.014963
0.0158835
0.016936
0.0183616
0.0202403
0.022585
0.0253589
0.0284835
0.0318403
0.0352785
0.0386298
0.0417202
0.0443842
0.0464901
0.047962
0.0487964
0.0490307
0.0487114
0.0484619
0.0495976
0.0521132
6.11343e-06
6.11341e-06
6.11181e-06
6.11154e-06
6.11068e-06
6.11454e-06
6.09557e-06
6.08292e-06
6.47296e-06
6.89482e-06
4.47179e-06
1.74954e-07
1.72785e-09
2.52765e-07
1.10002e-07
0.000315068
0.0013519
0.0036064
0.00706395
0.0111751
0.0148828
0.0172527
0.0188067
0.0204451
0.0224935
0.0250957
0.0282528
0.0318649
0.0357709
0.0397753
0.0436694
0.0472477
0.0503224
0.0527491
0.0544253
0.0553236
0.0554886
0.0550183
0.054096
0.053019
0.0522934
6.11222e-06
6.11177e-06
6.11051e-06
6.10993e-06
6.10985e-06
6.10928e-06
6.11282e-06
6.09496e-06
6.09439e-06
6.2866e-06
7.07111e-06
6.01251e-06
1.48572e-06
8.33209e-09
1.48003e-10
9.89641e-06
3.25497e-05
0.000523007
0.00185152
0.00453499
0.00855143
0.0131965
0.017515
0.0208911
0.023563
0.0263294
0.0296269
0.0334792
0.0377394
0.0421847
0.0465566
0.0506129
0.054124
0.0569059
0.0588112
0.0597566
0.0597614
0.0589107
0.0573634
0.0554195
0.0534786
6.11114e-06
6.11026e-06
6.10941e-06
6.10867e-06
6.10828e-06
6.10821e-06
6.10862e-06
6.10857e-06
6.10578e-06
6.07745e-06
6.18964e-06
6.87441e-06
6.70207e-06
3.82347e-06
5.43068e-08
1.24706e-09
8.19379e-09
2.65917e-05
6.84669e-06
0.000607542
0.00213909
0.00491988
0.00882909
0.0135293
0.0185937
0.0235686
0.0281804
0.0325648
0.0370221
0.0416635
0.0463627
0.0508781
0.0549428
0.0583129
0.0607653
0.0621501
0.062395
0.0615257
0.0596498
0.0569719
0.0539127
6.11022e-06
6.10916e-06
6.10828e-06
6.10768e-06
6.10729e-06
6.10699e-06
6.10681e-06
6.10694e-06
6.10754e-06
6.1081e-06
6.07013e-06
6.15045e-06
6.43757e-06
7.20211e-06
5.53853e-06
2.36992e-06
1.18285e-08
4.33652e-11
9.15211e-10
2.94191e-05
9.25818e-08
0.000524578
0.00173374
0.00390672
0.00714507
0.0113943
0.0165272
0.0223415
0.0285303
0.034724
0.0406169
0.0460233
0.0508253
0.0549232
0.0581895
0.0605
0.0617619
0.0618956
0.0607219
0.0582897
0.0548858
6.10953e-06
6.10822e-06
6.10703e-06
6.10623e-06
6.10572e-06
6.10545e-06
6.10533e-06
6.10549e-06
6.10534e-06
6.10744e-06
6.10398e-06
6.08915e-06
6.08372e-06
6.26308e-06
6.6898e-06
7.12658e-06
4.58011e-06
7.75513e-07
6.17424e-09
2.90647e-11
8.62559e-12
1.3211e-05
0.000184268
0.000172365
0.000742893
0.00196082
0.00397287
0.00687881
0.0107067
0.0153807
0.0207167
0.0264197
0.032128
0.0375057
0.0422534
0.0461452
0.0490518
0.0509604
0.0518169
0.0516075
0.0503029
6.109e-06
6.10755e-06
6.10601e-06
6.10501e-06
6.10435e-06
6.10393e-06
6.10371e-06
6.10367e-06
6.10379e-06
6.10405e-06
6.10533e-06
6.10429e-06
6.09853e-06
6.07644e-06
6.13004e-06
6.39964e-06
7.0597e-06
6.62704e-06
4.14918e-06
5.11572e-07
4.68595e-09
3.51558e-11
0
1.65905e-07
2.55311e-05
0.000154472
8.30744e-07
0.000352476
0.00104643
0.00222364
0.00395361
0.00621142
0.0089063
0.0118981
0.0149845
0.0179487
0.0205862
0.0228015
0.0244659
0.0255274
0.0260297
6.10873e-06
6.10707e-06
6.10536e-06
6.10419e-06
6.10338e-06
6.10282e-06
6.10247e-06
6.10228e-06
6.10227e-06
6.10239e-06
6.10283e-06
6.10332e-06
6.10509e-06
6.10068e-06
6.08742e-06
6.07136e-06
6.23104e-06
6.59822e-06
7.04506e-06
6.42027e-06
3.59353e-06
6.76632e-07
5.33222e-09
6.82101e-11
4.80483e-12
0
3.32059e-11
1.50551e-06
4.63733e-05
0.000153604
0.00030966
0.000115786
0.00037588
0.00077467
0.00132683
0.00201195
0.00274187
0.00347275
0.00413515
0.00467937
0.00513374
6.10871e-06
6.10678e-06
6.10483e-06
6.10346e-06
6.10248e-06
6.10179e-06
6.10132e-06
6.10104e-06
6.10091e-06
6.10094e-06
6.10115e-06
6.1015e-06
6.10221e-06
6.10363e-06
6.10401e-06
6.09261e-06
6.07947e-06
6.10653e-06
6.27702e-06
6.69148e-06
6.92505e-06
6.4936e-06
4.19585e-06
1.58576e-06
1.27171e-07
1.94434e-09
5.63278e-11
1.3667e-11
6.21781e-13
0
0
2.09379e-08
1.20119e-06
1.48502e-05
5.7301e-05
0.000112249
0.00016287
0.000210357
0.000265359
5.46917e-05
7.99573e-05
6.10869e-06
6.10651e-06
6.10428e-06
6.1027e-06
6.10156e-06
6.10076e-06
6.1002e-06
6.09984e-06
6.09962e-06
6.09956e-06
6.09964e-06
6.09991e-06
6.10032e-06
6.10103e-06
6.10242e-06
6.10344e-06
6.10002e-06
6.08852e-06
6.07821e-06
6.12472e-06
6.3074e-06
6.62156e-06
7.00478e-06
6.80167e-06
5.73062e-06
3.79104e-06
1.79581e-06
4.93184e-07
2.49099e-08
7.79972e-10
4.61918e-11
2.1612e-11
8.74181e-12
2.80381e-12
5.25399e-13
2.57537e-14
0
0
0
1.7393e-09
3.54424e-09
6.10851e-06
6.10614e-06
6.10368e-06
6.10191e-06
6.10066e-06
6.09977e-06
6.09916e-06
6.09874e-06
6.09847e-06
6.09834e-06
6.09834e-06
6.0985e-06
6.09882e-06
6.0993e-06
6.09999e-06
6.10115e-06
6.10251e-06
6.10263e-06
6.09765e-06
6.08567e-06
6.08513e-06
6.11408e-06
6.27434e-06
6.54732e-06
6.85001e-06
7.06244e-06
6.90983e-06
6.24713e-06
5.15276e-06
3.68614e-06
2.23761e-06
1.17422e-06
5.28147e-07
1.85018e-07
3.78879e-08
2.02611e-09
2.15277e-10
3.29876e-11
2.44743e-11
1.85094e-11
1.40453e-11
6.10809e-06
6.10568e-06
6.10313e-06
6.10127e-06
6.09996e-06
6.09903e-06
6.09837e-06
6.09789e-06
6.09757e-06
6.09738e-06
6.0973e-06
6.09736e-06
6.09758e-06
6.09795e-06
6.09848e-06
6.09919e-06
6.10014e-06
6.10151e-06
6.10287e-06
6.10256e-06
6.09816e-06
6.08678e-06
6.07867e-06
6.1044e-06
6.17687e-06
6.3259e-06
6.54356e-06
6.77587e-06
6.97713e-06
7.10934e-06
7.04139e-06
6.74108e-06
6.27894e-06
5.70538e-06
5.06177e-06
4.38641e-06
3.72612e-06
3.07818e-06
2.53605e-06
2.09757e-06
1.76361e-06
6.10748e-06
6.10528e-06
6.10293e-06
6.10111e-06
6.09984e-06
6.09889e-06
6.09816e-06
6.09759e-06
6.09717e-06
6.09687e-06
6.09669e-06
6.09663e-06
6.09672e-06
6.09697e-06
6.09737e-06
6.09792e-06
6.09863e-06
6.09953e-06
6.10068e-06
6.10218e-06
6.1037e-06
6.10401e-06
6.09957e-06
6.09143e-06
6.08415e-06
6.0853e-06
6.10796e-06
6.16031e-06
6.24325e-06
6.36293e-06
6.50591e-06
6.6538e-06
6.79216e-06
6.91278e-06
7.01042e-06
7.0829e-06
7.12906e-06
7.14781e-06
7.11289e-06
7.04439e-06
6.95654e-06
6.10686e-06
6.10507e-06
6.10325e-06
6.10176e-06
6.1006e-06
6.09964e-06
6.09881e-06
6.09807e-06
6.09749e-06
6.09702e-06
6.09667e-06
6.09644e-06
6.09635e-06
6.09643e-06
6.09667e-06
6.09707e-06
6.09763e-06
6.09834e-06
6.0992e-06
6.10024e-06
6.10155e-06
6.10338e-06
6.10516e-06
6.10579e-06
6.10454e-06
6.10074e-06
6.09552e-06
6.09145e-06
6.09106e-06
6.09675e-06
6.11202e-06
6.13807e-06
6.17456e-06
6.22065e-06
6.27467e-06
6.33487e-06
6.39862e-06
6.46622e-06
6.5336e-06
6.59963e-06
6.65714e-06
6.10643e-06
6.10519e-06
6.10399e-06
6.10295e-06
6.10202e-06
6.10115e-06
6.10029e-06
6.09946e-06
6.09868e-06
6.09795e-06
6.09735e-06
6.09689e-06
6.09658e-06
6.09643e-06
6.09646e-06
6.09666e-06
6.09703e-06
6.09757e-06
6.09827e-06
6.09912e-06
6.10008e-06
6.10132e-06
6.1029e-06
6.10479e-06
6.10676e-06
6.10847e-06
6.10956e-06
6.10982e-06
6.10922e-06
6.10783e-06
6.10609e-06
6.10455e-06
6.10383e-06
6.10448e-06
6.10692e-06
6.11138e-06
6.1179e-06
6.12659e-06
6.13726e-06
6.14981e-06
6.16271e-06
6.1063e-06
6.10567e-06
6.10499e-06
6.10433e-06
6.10366e-06
6.10294e-06
6.10216e-06
6.10132e-06
6.10045e-06
6.09958e-06
6.09875e-06
6.098e-06
6.0974e-06
6.09698e-06
6.09675e-06
6.09671e-06
6.09685e-06
6.09718e-06
6.09769e-06
6.09836e-06
6.09916e-06
6.10017e-06
6.10138e-06
6.10282e-06
6.10451e-06
6.10644e-06
6.10856e-06
6.1108e-06
6.11308e-06
6.11529e-06
6.11735e-06
6.1192e-06
6.1208e-06
6.12218e-06
6.1234e-06
6.12453e-06
6.1257e-06
6.12689e-06
6.12836e-06
6.12981e-06
6.13212e-06
6.1065e-06
6.10639e-06
6.10604e-06
6.1056e-06
6.1051e-06
6.10454e-06
6.1039e-06
6.10318e-06
6.10236e-06
6.10147e-06
6.10053e-06
6.0996e-06
6.09872e-06
6.09802e-06
6.0975e-06
6.09719e-06
6.09708e-06
6.09716e-06
6.09743e-06
6.09789e-06
6.0985e-06
6.09933e-06
6.10034e-06
6.10155e-06
6.10296e-06
6.10455e-06
6.10634e-06
6.10832e-06
6.11049e-06
6.11283e-06
6.11534e-06
6.11799e-06
6.12075e-06
6.1236e-06
6.12652e-06
6.12948e-06
6.13248e-06
6.13548e-06
6.13859e-06
6.14153e-06
6.14485e-06
6.10692e-06
6.10714e-06
6.10696e-06
6.10664e-06
6.10625e-06
6.10582e-06
6.10532e-06
6.10474e-06
6.10408e-06
6.10332e-06
6.10244e-06
6.10148e-06
6.10046e-06
6.09949e-06
6.0987e-06
6.09811e-06
6.09772e-06
6.09754e-06
6.09755e-06
6.09776e-06
6.09815e-06
6.09875e-06
6.09956e-06
6.10057e-06
6.10177e-06
6.10316e-06
6.10472e-06
6.10645e-06
6.10834e-06
6.11039e-06
6.11259e-06
6.11494e-06
6.11743e-06
6.12005e-06
6.1228e-06
6.12567e-06
6.12866e-06
6.13171e-06
6.13495e-06
6.13807e-06
6.14149e-06
6.10735e-06
6.10771e-06
6.10765e-06
6.10744e-06
6.10716e-06
6.10683e-06
6.10646e-06
6.10602e-06
6.10551e-06
6.10491e-06
6.10419e-06
6.10335e-06
6.10238e-06
6.10128e-06
6.10026e-06
6.09941e-06
6.09876e-06
6.09832e-06
6.09807e-06
6.09802e-06
6.09816e-06
6.09852e-06
6.09909e-06
6.09987e-06
6.10085e-06
6.10202e-06
6.10337e-06
6.10489e-06
6.10657e-06
6.10841e-06
6.11038e-06
6.1125e-06
6.11474e-06
6.11711e-06
6.1196e-06
6.12219e-06
6.1249e-06
6.12767e-06
6.13063e-06
6.13347e-06
6.13662e-06
6.10757e-06
6.10805e-06
6.10811e-06
6.10802e-06
6.10786e-06
6.10766e-06
6.10741e-06
6.1071e-06
6.10671e-06
6.10625e-06
6.1057e-06
6.10503e-06
6.10423e-06
6.10322e-06
6.10206e-06
6.10101e-06
6.10014e-06
6.09945e-06
6.09896e-06
6.09867e-06
6.09855e-06
6.09866e-06
6.09899e-06
6.09953e-06
6.10027e-06
6.1012e-06
6.10232e-06
6.10362e-06
6.10508e-06
6.10669e-06
6.10846e-06
6.11036e-06
6.11239e-06
6.11454e-06
6.11681e-06
6.11919e-06
6.12167e-06
6.12422e-06
6.12694e-06
6.12953e-06
6.13244e-06
6.10758e-06
6.10818e-06
6.10836e-06
6.10838e-06
6.10835e-06
6.10828e-06
6.10816e-06
6.10799e-06
6.10774e-06
6.10741e-06
6.10699e-06
6.10647e-06
6.10585e-06
6.10506e-06
6.10401e-06
6.10283e-06
6.10177e-06
6.10089e-06
6.10019e-06
6.09967e-06
6.09933e-06
6.0992e-06
6.09929e-06
6.09958e-06
6.10008e-06
6.10078e-06
6.10166e-06
6.10271e-06
6.10394e-06
6.10532e-06
6.10685e-06
6.10853e-06
6.11033e-06
6.11226e-06
6.1143e-06
6.11645e-06
6.1187e-06
6.12102e-06
6.1235e-06
6.12586e-06
6.12853e-06
6.10741e-06
6.1081e-06
6.10837e-06
6.10851e-06
6.1086e-06
6.10867e-06
6.1087e-06
6.10868e-06
6.10858e-06
6.1084e-06
6.10812e-06
6.10773e-06
6.10725e-06
6.10666e-06
6.10585e-06
6.10478e-06
6.10359e-06
6.10255e-06
6.10167e-06
6.10097e-06
6.10043e-06
6.10009e-06
6.09996e-06
6.10003e-06
6.1003e-06
6.10075e-06
6.1014e-06
6.10221e-06
6.1032e-06
6.10434e-06
6.10564e-06
6.10707e-06
6.10864e-06
6.11032e-06
6.11213e-06
6.11403e-06
6.11604e-06
6.1181e-06
6.12034e-06
6.12243e-06
6.12485e-06
6.10701e-06
6.10777e-06
6.10814e-06
6.10839e-06
6.10862e-06
6.10884e-06
6.10902e-06
6.10916e-06
6.10922e-06
6.1092e-06
6.10908e-06
6.10884e-06
6.10849e-06
6.10804e-06
6.10744e-06
6.10662e-06
6.10554e-06
6.10436e-06
6.10334e-06
6.10247e-06
6.10177e-06
6.10125e-06
6.10092e-06
6.10079e-06
6.10084e-06
6.10109e-06
6.1015e-06
6.10209e-06
6.10284e-06
6.10375e-06
6.10481e-06
6.106e-06
6.10732e-06
6.10876e-06
6.11031e-06
6.11196e-06
6.11371e-06
6.11551e-06
6.11748e-06
6.11929e-06
6.12145e-06
6.10638e-06
6.10719e-06
6.10765e-06
6.10803e-06
6.1084e-06
6.10877e-06
6.10912e-06
6.10941e-06
6.10964e-06
6.10978e-06
6.10982e-06
6.10976e-06
6.10957e-06
6.10925e-06
6.1088e-06
6.10819e-06
6.10737e-06
6.1063e-06
6.10515e-06
6.10414e-06
6.10329e-06
6.10261e-06
6.10211e-06
6.1018e-06
6.10167e-06
6.10171e-06
6.10192e-06
6.10229e-06
6.10282e-06
6.1035e-06
6.10432e-06
6.10528e-06
6.10635e-06
6.10754e-06
6.10884e-06
6.11023e-06
6.11171e-06
6.11324e-06
6.11493e-06
6.11645e-06
6.11834e-06
6.1055e-06
6.10635e-06
6.1069e-06
6.1074e-06
6.10792e-06
6.10845e-06
6.10895e-06
6.10941e-06
6.1098e-06
6.1101e-06
6.11031e-06
6.11041e-06
6.11039e-06
6.11024e-06
6.10995e-06
6.10949e-06
6.10888e-06
6.10808e-06
6.10705e-06
6.10592e-06
6.10493e-06
6.1041e-06
6.10346e-06
6.10299e-06
6.10268e-06
6.10255e-06
6.10257e-06
6.10274e-06
6.10307e-06
6.10353e-06
6.10413e-06
6.10485e-06
6.10569e-06
6.10663e-06
6.10767e-06
6.1088e-06
6.11001e-06
6.11126e-06
6.11266e-06
6.11389e-06
6.11549e-06
6.10435e-06
6.10523e-06
6.10587e-06
6.1065e-06
6.10716e-06
6.10783e-06
6.10848e-06
6.10909e-06
6.10963e-06
6.11009e-06
6.11046e-06
6.11072e-06
6.11086e-06
6.11089e-06
6.11078e-06
6.11049e-06
6.11005e-06
6.10946e-06
6.10869e-06
6.10771e-06
6.10663e-06
6.10566e-06
6.10487e-06
6.10425e-06
6.10379e-06
6.10349e-06
6.10334e-06
6.10334e-06
6.10348e-06
6.10374e-06
6.10413e-06
6.10463e-06
6.10524e-06
6.10594e-06
6.10673e-06
6.1076e-06
6.10855e-06
6.10953e-06
6.11063e-06
6.11157e-06
6.11288e-06
6.10292e-06
6.10383e-06
6.10455e-06
6.1053e-06
6.10607e-06
6.10687e-06
6.10764e-06
6.10837e-06
6.10905e-06
6.10965e-06
6.11017e-06
6.11059e-06
6.11089e-06
6.11108e-06
6.11115e-06
6.11105e-06
6.11079e-06
6.11037e-06
6.10982e-06
6.10911e-06
6.1082e-06
6.10715e-06
6.10623e-06
6.10548e-06
6.10488e-06
6.10443e-06
6.10412e-06
6.10396e-06
6.10392e-06
6.104e-06
6.10419e-06
6.10449e-06
6.10488e-06
6.10536e-06
6.10591e-06
6.10653e-06
6.10722e-06
6.10793e-06
6.10874e-06
6.10939e-06
6.11042e-06
6.1012e-06
6.10213e-06
6.10293e-06
6.10375e-06
6.10461e-06
6.10549e-06
6.10635e-06
6.10718e-06
6.10796e-06
6.10868e-06
6.10933e-06
6.10989e-06
6.11035e-06
6.1107e-06
6.11094e-06
6.11102e-06
6.11095e-06
6.11072e-06
6.11034e-06
6.10984e-06
6.1092e-06
6.10835e-06
6.10737e-06
6.10651e-06
6.1058e-06
6.10522e-06
6.10478e-06
6.10446e-06
6.10426e-06
6.10418e-06
6.10419e-06
6.1043e-06
6.10449e-06
6.10476e-06
6.10509e-06
6.10548e-06
6.10591e-06
6.10637e-06
6.10691e-06
6.10729e-06
6.10803e-06
6.09918e-06
6.10012e-06
6.10096e-06
6.10183e-06
6.10273e-06
6.10363e-06
6.10454e-06
6.10542e-06
6.10628e-06
6.10709e-06
6.10785e-06
6.10854e-06
6.10913e-06
6.10964e-06
6.11003e-06
6.11029e-06
6.1104e-06
6.11036e-06
6.11017e-06
6.10985e-06
6.10941e-06
6.10882e-06
6.10804e-06
6.10715e-06
6.10636e-06
6.10569e-06
6.10514e-06
6.1047e-06
6.10437e-06
6.10413e-06
6.10399e-06
6.10392e-06
6.10393e-06
6.104e-06
6.10412e-06
6.10429e-06
6.10449e-06
6.10471e-06
6.10499e-06
6.10511e-06
6.10558e-06
6.09685e-06
6.09778e-06
6.09863e-06
6.09949e-06
6.10037e-06
6.10126e-06
6.10216e-06
6.10306e-06
6.10396e-06
6.10484e-06
6.10568e-06
6.10647e-06
6.10718e-06
6.10782e-06
6.10835e-06
6.10877e-06
6.10904e-06
6.10918e-06
6.10918e-06
6.10904e-06
6.10879e-06
6.10839e-06
6.10787e-06
6.10718e-06
6.10638e-06
6.10565e-06
6.10503e-06
6.10451e-06
6.10408e-06
6.10374e-06
6.10346e-06
6.10326e-06
6.10311e-06
6.10302e-06
6.10296e-06
6.10294e-06
6.10294e-06
6.10294e-06
6.103e-06
6.1029e-06
6.10312e-06
6.09419e-06
6.09508e-06
6.09589e-06
6.09669e-06
6.0975e-06
6.09833e-06
6.0992e-06
6.10009e-06
6.101e-06
6.10191e-06
6.1028e-06
6.10366e-06
6.10447e-06
6.1052e-06
6.10586e-06
6.10641e-06
6.10684e-06
6.10713e-06
6.1073e-06
6.10734e-06
6.10727e-06
6.10706e-06
6.10673e-06
6.10628e-06
6.10571e-06
6.10502e-06
6.10436e-06
6.10377e-06
6.10327e-06
6.10283e-06
6.10246e-06
6.10214e-06
6.10186e-06
6.10162e-06
6.10141e-06
6.10122e-06
6.10105e-06
6.10086e-06
6.10071e-06
6.10042e-06
6.10041e-06
6.09118e-06
6.09201e-06
6.09273e-06
6.09342e-06
6.09413e-06
6.09488e-06
6.09568e-06
6.09652e-06
6.0974e-06
6.09831e-06
6.09921e-06
6.1001e-06
6.10096e-06
6.10176e-06
6.10251e-06
6.10316e-06
6.10371e-06
6.10414e-06
6.10445e-06
6.10465e-06
6.10473e-06
6.10469e-06
6.10453e-06
6.10426e-06
6.10389e-06
6.10343e-06
6.10286e-06
6.10229e-06
6.10178e-06
6.10131e-06
6.1009e-06
6.10052e-06
6.10018e-06
6.09986e-06
6.09956e-06
6.09926e-06
6.09897e-06
6.09868e-06
6.09838e-06
6.098e-06
6.09783e-06
6.08781e-06
6.08853e-06
6.08912e-06
6.08968e-06
6.09027e-06
6.09092e-06
6.09164e-06
6.0924e-06
6.0932e-06
6.09404e-06
6.0949e-06
6.09575e-06
6.0966e-06
6.09742e-06
6.0982e-06
6.09891e-06
6.09954e-06
6.10007e-06
6.10052e-06
6.10086e-06
6.10111e-06
6.10125e-06
6.10129e-06
6.10124e-06
6.10109e-06
6.10087e-06
6.10056e-06
6.10019e-06
6.09977e-06
6.09931e-06
6.09886e-06
6.09845e-06
6.09806e-06
6.09769e-06
6.09733e-06
6.09699e-06
6.09664e-06
6.09631e-06
6.09597e-06
6.09564e-06
6.09536e-06
6.08406e-06
6.08463e-06
6.08507e-06
6.0855e-06
6.08599e-06
6.08653e-06
6.08713e-06
6.08777e-06
6.08844e-06
6.08914e-06
6.08986e-06
6.0906e-06
6.09134e-06
6.09209e-06
6.09283e-06
6.09355e-06
6.0942e-06
6.09478e-06
6.09527e-06
6.09567e-06
6.09599e-06
6.09621e-06
6.09634e-06
6.09638e-06
6.09635e-06
6.09626e-06
6.0961e-06
6.09589e-06
6.09564e-06
6.09535e-06
6.09505e-06
6.09476e-06
6.09448e-06
6.09421e-06
6.09394e-06
6.09369e-06
6.09345e-06
6.09324e-06
6.09306e-06
6.09295e-06
6.09287e-06
6.0799e-06
6.0803e-06
6.0806e-06
6.08093e-06
6.08131e-06
6.08174e-06
6.08219e-06
6.08265e-06
6.08312e-06
6.0836e-06
6.0841e-06
6.08463e-06
6.08518e-06
6.08572e-06
6.08625e-06
6.08675e-06
6.08725e-06
6.08775e-06
6.08824e-06
6.08871e-06
6.08914e-06
6.08954e-06
6.0899e-06
6.09021e-06
6.09046e-06
6.09068e-06
6.09084e-06
6.09097e-06
6.09107e-06
6.09113e-06
6.09119e-06
6.09123e-06
6.09127e-06
6.09133e-06
6.0914e-06
6.0915e-06
6.09165e-06
6.09183e-06
6.09209e-06
6.09238e-06
6.09275e-06
6.0753e-06
6.07554e-06
6.07573e-06
6.07598e-06
6.07625e-06
6.07653e-06
6.0768e-06
6.07703e-06
6.07722e-06
6.07737e-06
6.07751e-06
6.07762e-06
6.07784e-06
6.07825e-06
6.07891e-06
6.07972e-06
6.08049e-06
6.08115e-06
6.08167e-06
6.08206e-06
6.08234e-06
6.08252e-06
6.08261e-06
6.08265e-06
6.08265e-06
6.08263e-06
6.08259e-06
6.08257e-06
6.08256e-06
6.08257e-06
6.0826e-06
6.08265e-06
6.08275e-06
6.08288e-06
6.08306e-06
6.0833e-06
6.08358e-06
6.08392e-06
6.08433e-06
6.08481e-06
6.08527e-06
6.07025e-06
6.07033e-06
6.07043e-06
6.07056e-06
6.0707e-06
6.07083e-06
6.07095e-06
6.07101e-06
6.071e-06
6.07087e-06
6.07062e-06
6.07002e-06
6.06974e-06
6.07006e-06
6.07094e-06
6.07232e-06
6.07393e-06
6.07562e-06
6.07728e-06
6.07884e-06
6.08024e-06
6.08145e-06
6.08246e-06
6.08327e-06
6.08388e-06
6.08428e-06
6.08451e-06
6.08458e-06
6.08451e-06
6.08423e-06
6.08376e-06
6.08326e-06
6.08292e-06
6.08276e-06
6.08275e-06
6.08289e-06
6.08319e-06
6.08361e-06
6.08422e-06
6.08486e-06
6.08576e-06
0.00392353
0.00710947
0.00856621
0.00653978
0.00202645
7.17687e-05
2.09335e-08
4.00813e-06
2.33169e-09
5.39078e-06
0.00802583
0.0174351
0.0235213
0.0272032
0.0291734
0.0298565
0.0295357
0.0284132
0.0266239
0.0242693
0.0214218
0.0181175
0.014371
0.0102092
0.00575329
0.00182092
3.03266e-08
1.93561e-08
1.19864e-07
7.11879e-06
7.78784e-06
6.07124e-06
6.19704e-06
6.33115e-06
6.29392e-06
6.29983e-06
6.33766e-06
6.36367e-06
6.37729e-06
6.38871e-06
6.40197e-06
6.41713e-06
6.43335e-06
6.44995e-06
6.46637e-06
6.48166e-06
6.49474e-06
6.50442e-06
6.50946e-06
6.50908e-06
6.50295e-06
6.49112e-06
6.47399e-06
6.45227e-06
6.42681e-06
6.3986e-06
6.36895e-06
6.33949e-06
6.31223e-06
6.28946e-06
6.27343e-06
6.26334e-06
6.25627e-06
6.25075e-06
6.24595e-06
6.24147e-06
6.23724e-06
6.23333e-06
6.22988e-06
6.22703e-06
6.22473e-06
6.22285e-06
6.22178e-06
6.21919e-06
0.00675998
0.0110764
0.0131365
0.0115635
0.00580751
0.000932499
3.51941e-05
1.46705e-08
8.30311e-07
0.000809505
0.0111102
0.0210716
0.0271723
0.0308289
0.0328237
0.0335815
0.0333721
0.0323831
0.0307457
0.0285561
0.0258833
0.0227669
0.0192261
0.0152719
0.0108853
0.0061495
0.00195925
6.00518e-06
1.04211e-09
1.53107e-09
5.80083e-06
8.57272e-06
6.31953e-06
6.00572e-06
6.29196e-06
6.36125e-06
6.36426e-06
6.38934e-06
6.41337e-06
6.42849e-06
6.44193e-06
6.45729e-06
6.47403e-06
6.4909e-06
6.50694e-06
6.52104e-06
6.53202e-06
6.53876e-06
6.54013e-06
6.53548e-06
6.52466e-06
6.50795e-06
6.48594e-06
6.45953e-06
6.42978e-06
6.39799e-06
6.36579e-06
6.33514e-06
6.30827e-06
6.28745e-06
6.27434e-06
6.26625e-06
6.26053e-06
6.25587e-06
6.25162e-06
6.24747e-06
6.24343e-06
6.23958e-06
6.23612e-06
6.23319e-06
6.23077e-06
6.2287e-06
6.22751e-06
6.22429e-06
0.00959984
0.015269
0.0180863
0.0171032
0.0113883
0.00356223
0.000198168
8.65329e-09
2.61668e-05
0.0018663
0.0134068
0.0238977
0.0302085
0.0340232
0.0362033
0.0371737
0.0371888
0.0364238
0.0350117
0.0330436
0.0305872
0.027688
0.0243692
0.0206468
0.0165009
0.0118792
0.00685037
0.00237822
0.000672472
1.29628e-06
3.10596e-08
2.8885e-06
1.06847e-05
7.75872e-06
6.12889e-06
6.23019e-06
6.41941e-06
6.4398e-06
6.44563e-06
6.46627e-06
6.48497e-06
6.50086e-06
6.51718e-06
6.53373e-06
6.54897e-06
6.56141e-06
6.56978e-06
6.57305e-06
6.57027e-06
6.5609e-06
6.54501e-06
6.52314e-06
6.49609e-06
6.46498e-06
6.43118e-06
6.39628e-06
6.36223e-06
6.33123e-06
6.30551e-06
6.28705e-06
6.27663e-06
6.27027e-06
6.26569e-06
6.26174e-06
6.25792e-06
6.25402e-06
6.25008e-06
6.24625e-06
6.24272e-06
6.23966e-06
6.23706e-06
6.23477e-06
6.23344e-06
6.22949e-06
0.0126022
0.019791
0.0234164
0.0230161
0.0179582
0.00858876
0.00152151
0.000118052
8.0753e-05
0.00267687
0.0149667
0.0260345
0.0327646
0.0369006
0.0394142
0.0407234
0.0410653
0.040604
0.0394845
0.037786
0.0355836
0.0329276
0.0298451
0.0263599
0.0224624
0.0181085
0.0132123
0.00789122
0.00291074
9.67424e-05
9.2928e-05
1.23876e-08
7.15334e-08
6.44388e-06
8.67801e-06
6.48214e-06
6.13426e-06
6.42353e-06
6.5274e-06
6.51949e-06
6.52436e-06
6.54389e-06
6.56252e-06
6.57836e-06
6.59199e-06
6.60225e-06
6.60756e-06
6.60688e-06
6.59948e-06
6.58502e-06
6.56377e-06
6.53654e-06
6.50441e-06
6.46878e-06
6.43133e-06
6.39395e-06
6.35883e-06
6.32824e-06
6.30425e-06
6.28837e-06
6.28017e-06
6.27527e-06
6.27163e-06
6.26825e-06
6.26475e-06
6.26101e-06
6.25711e-06
6.25325e-06
6.24961e-06
6.24637e-06
6.24357e-06
6.241e-06
6.23951e-06
6.23477e-06
0.0161522
0.0248096
0.0291131
0.0292537
0.0250266
0.0156322
0.00502667
0.00037167
0.000147091
0.00311363
0.0157819
0.027479
0.034829
0.0394652
0.042461
0.0442408
0.0450258
0.0449687
0.044202
0.0428118
0.0408974
0.0385064
0.0356763
0.0324359
0.0287854
0.0247007
0.0201118
0.0149524
0.00929842
0.0038696
0.000527641
0.000282708
2.56626e-07
3.48381e-08
3.51198e-06
9.42995e-06
7.44134e-06
6.19491e-06
6.34066e-06
6.58271e-06
6.61264e-06
6.59611e-06
6.60446e-06
6.62233e-06
6.63592e-06
6.64354e-06
6.64514e-06
6.64004e-06
6.62763e-06
6.60776e-06
6.58092e-06
6.54823e-06
6.51111e-06
6.47127e-06
6.43067e-06
6.39149e-06
6.35601e-06
6.32643e-06
6.30451e-06
6.29117e-06
6.2848e-06
6.28113e-06
6.27826e-06
6.27532e-06
6.27204e-06
6.26839e-06
6.26449e-06
6.26054e-06
6.25675e-06
6.25331e-06
6.25025e-06
6.24737e-06
6.2457e-06
6.24013e-06
0.0213534
0.0304882
0.0351128
0.035716
0.0323272
0.0238353
0.0112512
0.00220534
0.00035242
0.00313848
0.0158592
0.028227
0.0363398
0.0416485
0.0452739
0.047655
0.0489998
0.0494518
0.0491355
0.0481424
0.0465597
0.0444448
0.0418824
0.038892
0.0354928
0.0316692
0.0273829
0.0225684
0.0171552
0.0111896
0.00533478
0.00130437
3.26358e-05
3.74867e-11
1.62538e-08
6.07641e-07
7.82131e-06
8.94941e-06
6.67568e-06
6.21779e-06
6.52077e-06
6.68874e-06
6.68649e-06
6.67133e-06
6.67675e-06
6.68379e-06
6.68257e-06
6.67263e-06
6.65472e-06
6.62914e-06
6.59661e-06
6.55849e-06
6.51658e-06
6.47292e-06
6.42974e-06
6.38937e-06
6.3541e-06
6.32595e-06
6.30624e-06
6.29524e-06
6.29041e-06
6.28773e-06
6.28548e-06
6.28288e-06
6.27975e-06
6.27613e-06
6.27217e-06
6.26809e-06
6.26413e-06
6.26044e-06
6.25711e-06
6.25389e-06
6.25203e-06
6.24557e-06
0.0281673
0.0367884
0.0412979
0.042236
0.039636
0.0324288
0.0197484
0.00664472
0.000381505
0.00277194
0.0152221
0.0282141
0.0371938
0.0433379
0.0477399
0.0508543
0.0528778
0.0539453
0.0541788
0.0536751
0.0525188
0.050772
0.0485017
0.0457535
0.0426089
0.0390388
0.0350417
0.0305616
0.0255373
0.0198956
0.013674
0.00739248
0.00259962
0.000950677
0.000104721
1.89999e-09
4.13578e-08
2.87372e-06
9.9015e-06
8.2728e-06
6.50455e-06
6.3964e-06
6.67723e-06
6.77002e-06
6.74792e-06
6.72695e-06
6.71768e-06
6.7042e-06
6.68118e-06
6.6496e-06
6.61118e-06
6.56772e-06
6.52132e-06
6.47429e-06
6.42909e-06
6.38811e-06
6.35345e-06
6.32692e-06
6.30937e-06
6.3004e-06
6.29684e-06
6.29497e-06
6.29321e-06
6.29086e-06
6.28782e-06
6.28418e-06
6.28012e-06
6.2759e-06
6.27172e-06
6.26777e-06
6.26414e-06
6.26055e-06
6.25848e-06
6.25112e-06
0.0362582
0.043443
0.0474421
0.0485562
0.0466727
0.0408209
0.0293877
0.0140529
0.00261107
0.0023033
0.0138816
0.0273735
0.0372628
0.0443891
0.0497092
0.0536898
0.0565143
0.0583077
0.0591917
0.0592714
0.0586363
0.0573537
0.0554827
0.0530715
0.0501835
0.0468446
0.0431232
0.0389517
0.0342976
0.0290934
0.0232701
0.0168304
0.0101989
0.00426285
0.000605481
0.000455673
1.34986e-08
1.09699e-08
3.9339e-08
5.30102e-06
9.39885e-06
7.4742e-06
6.38178e-06
6.50003e-06
6.7552e-06
6.80534e-06
6.76957e-06
6.73492e-06
6.70468e-06
6.66863e-06
6.62508e-06
6.57654e-06
6.52594e-06
6.47599e-06