/*--------------------------------*- C++ -*----------------------------------*\
| =========                 |                                                 |
| \\      /  F ield         | OpenFOAM: The Open Source CFD Toolbox           |
|  \\    /   O peration     | Version:  2312                                  |
|   \\  /    A nd           | Website:  www.openfoam.com                      |
|    \\/     M anipulation  |                                                 |
\*---------------------------------------------------------------------------*/
FoamFile
{
    version     2.0;
    format      ascii;
    arch        "LSB;label=32;scalar=64";
    class       volScalarField;
    location    "350";
    object      nuTilda;
}
// * * * * * * * * * * * * * * * * * * * * * * * * * * * * * * * * * * * * * //

dimensions      [0 2 -1 0 0 0 0];

internalField   nonuniform List<scalar> 
11040
(
7.96851e-05
7.87578e-05
5.65642e-05
0.000174713
0.000214239
0.000192945
0.000177576
0.000163162
0.000155578
0.000148988
0.000143265
0.000139463
0.000137614
0.000137883
0.000139783
0.000142722
0.000146873
0.000152746
0.000160419
0.000170062
0.000181741
0.000195383
0.000211582
0.000231623
0.000254572
0.000277854
0.000299957
0.000321151
0.000344528
0.000369526
0.000389416
0.00040303
0.000408844
0.000407807
0.000407918
0.000433123
0.0003512
0.000290261
0.000308757
0.000329667
0.000367363
4.48047e-05
7.96239e-05
9.29699e-05
0.000395338
0.000630189
0.00056183
0.000506781
0.000432611
0.000399377
0.000375609
0.000353558
0.000337932
0.000329715
0.00033056
0.00033723
0.000346156
0.000356706
0.000370312
0.000387067
0.000404328
0.000420266
0.000433356
0.000445949
0.000463691
0.000487787
0.000507603
0.000518171
0.000521544
0.000548165
0.000615973
0.000689627
0.000771859
0.000862007
0.000960124
0.00106999
0.00119705
0.00131613
0.00144216
0.00157614
0.00165567
0.00198545
3.66326e-05
5.3588e-05
6.1252e-05
0.000235841
0.000725814
0.00114629
0.00112323
0.000963783
0.000875894
0.000824358
0.00077631
0.000740622
0.000711218
0.000689809
0.000676012
0.000664913
0.000660092
0.00066686
0.000682495
0.000698786
0.000709404
0.000713213
0.000714417
0.000732874
0.000796182
0.000879563
0.000982614
0.00110704
0.00125371
0.0014206
0.00160213
0.00179541
0.00199825
0.00221526
0.00244954
0.00270456
0.00297258
0.0032631
0.00357011
0.00381022
0.00442334
3.95317e-05
4.22426e-05
4.10486e-05
8.17679e-05
0.000380355
0.0010577
0.00165665
0.00171339
0.00156385
0.00147899
0.00138826
0.0013262
0.00127058
0.00123053
0.00120674
0.0011858
0.00117244
0.00116714
0.00116544
0.00116722
0.0011722
0.00118969
0.00123012
0.00130783
0.0014293
0.001591
0.00178943
0.00202234
0.00228689
0.00257964
0.00289547
0.00323033
0.00358039
0.00395088
0.00434911
0.00478234
0.00524794
0.00575582
0.00630026
0.00679417
0.00771057
4.02007e-05
4.00367e-05
4.00616e-05
2.94397e-05
0.000101857
0.0004986
0.0013347
0.00218341
0.00244775
0.00243607
0.00225212
0.00215384
0.00206534
0.0020013
0.00196511
0.00193044
0.0019104
0.00190548
0.00190882
0.00192111
0.00193892
0.0019757
0.00204692
0.00217206
0.00235932
0.00260895
0.0029188
0.00328455
0.00369981
0.00415712
0.00464692
0.00516142
0.00569357
0.00624746
0.00683836
0.00748527
0.0081905
0.00896828
0.00981866
0.0106723
0.0119364
4.01563e-05
3.97217e-05
4.12479e-05
3.41919e-05
1.6779e-05
0.000104933
0.000555359
0.0015208
0.002671
0.00326924
0.00344185
0.00338739
0.00321843
0.00307302
0.00300205
0.00294994
0.00292379
0.00292676
0.00294748
0.00298884
0.00303562
0.00309983
0.00320273
0.00337392
0.00363277
0.00398652
0.00443453
0.00496847
0.00557452
0.00623825
0.00694245
0.00767384
0.00842056
0.00918386
0.00998366
0.0108627
0.0118374
0.0129311
0.0141581
0.0154845
0.0172217
4.00925e-05
4.00943e-05
4.01349e-05
4.14346e-05
2.81026e-05
2.81228e-06
7.98943e-05
0.000528706
0.00156656
0.00299886
0.00410555
0.00451718
0.00464048
0.004612
0.00450342
0.00438338
0.00430171
0.00428716
0.00432973
0.00442249
0.00452702
0.00464197
0.00479445
0.0050221
0.00535991
0.00583092
0.00644301
0.00718259
0.00802222
0.00893672
0.00989522
0.010877
0.0118635
0.0128493
0.0138569
0.0149527
0.016197
0.0176288
0.0192905
0.0212007
0.0235919
4.0096e-05
4.01236e-05
3.99995e-05
4.03823e-05
4.24075e-05
1.84931e-05
2.19697e-05
4.76645e-05
0.000425031
0.00144163
0.00306802
0.00473617
0.00562843
0.00600773
0.00612844
0.00614387
0.00610205
0.00607872
0.0061013
0.00619917
0.00636589
0.00658928
0.00686884
0.00723716
0.00770303
0.00830488
0.00909838
0.0100781
0.0111938
0.0124045
0.0136532
0.0149096
0.0161481
0.0173496
0.0185311
0.0197836
0.0212366
0.0229699
0.0250774
0.0276531
0.0309018
4.00992e-05
4.00764e-05
4.01746e-05
3.97567e-05
4.15762e-05
3.99282e-05
2.26278e-05
1.65982e-05
3.68029e-05
0.000297105
0.00115438
0.00281252
0.00492549
0.00662566
0.00739532
0.00778333
0.00794299
0.00803251
0.00810294
0.00823348
0.00846262
0.00881433
0.00928408
0.0098984
0.0106566
0.0115669
0.01264
0.0138843
0.0153101
0.0168605
0.0184268
0.0199624
0.0214472
0.0228346
0.024112
0.0254054
0.0269025
0.0287802
0.031223
0.0344503
0.0387177
4.00922e-05
4.00956e-05
4.00934e-05
4.00894e-05
3.99371e-05
4.15525e-05
3.96876e-05
2.38631e-05
1.09853e-05
1.01473e-06
0.00014667
0.000788352
0.00228037
0.0045818
0.00706195
0.00872222
0.00947743
0.00990544
0.0101548
0.0103955
0.0107186
0.011214
0.0119016
0.0128216
0.013978
0.0153716
0.0169951
0.0188214
0.0207868
0.0227806
0.0246884
0.0264648
0.0281414
0.0296556
0.0308817
0.0319817
0.033279
0.0349333
0.0373382
0.0409098
0.0460184
4.009e-05
4.00922e-05
4.00858e-05
4.01042e-05
4.0029e-05
4.0107e-05
4.10276e-05
4.0711e-05
2.60635e-05
7.07888e-06
2.12945e-05
1.37311e-05
0.000392615
0.00155171
0.00372102
0.00663889
0.00942837
0.0111155
0.0119406
0.0124942
0.012989
0.0136367
0.0145208
0.0157329
0.0172932
0.0191997
0.0214309
0.0239371
0.026631
0.0293931
0.0320912
0.0345886
0.0367262
0.0383255
0.0392955
0.0398064
0.040575
0.0414823
0.043039
0.0460254
0.0506394
4.00875e-05
4.0088e-05
4.00863e-05
4.00829e-05
4.00912e-05
4.00578e-05
4.00276e-05
4.09421e-05
4.112e-05
3.22191e-05
6.50005e-06
4.22011e-06
6.62814e-05
0.00013081
0.000827758
0.00254409
0.00537989
0.00888469
0.0120279
0.0139056
0.014963
0.0158835
0.016936
0.0183616
0.0202403
0.022585
0.0253589
0.0284835
0.0318403
0.0352785
0.0386298
0.0417202
0.0443842
0.0464901
0.047962
0.0487964
0.0490307
0.0487114
0.0484619
0.0495976
0.0521132
4.0085e-05
4.00849e-05
4.0082e-05
4.00815e-05
4.00799e-05
4.0087e-05
4.00519e-05
4.00284e-05
4.07386e-05
4.14775e-05
3.67413e-05
1.58628e-05
4.98721e-06
1.74065e-05
1.41138e-05
0.000318557
0.0013521
0.00360643
0.00706396
0.0111751
0.0148828
0.0172527
0.0188067
0.0204451
0.0224935
0.0250957
0.0282528
0.0318649
0.0357709
0.0397753
0.0436694
0.0472477
0.0503224
0.0527491
0.0544253
0.0553236
0.0554886
0.0550183
0.054096
0.053019
0.0522934
4.00827e-05
4.00819e-05
4.00796e-05
4.00785e-05
4.00783e-05
4.00773e-05
4.00838e-05
4.00508e-05
4.00497e-05
4.04027e-05
4.17781e-05
3.98972e-05
2.73832e-05
7.39188e-06
2.69785e-06
4.60851e-05
6.86142e-05
0.000524305
0.00185163
0.00453501
0.00855144
0.0131965
0.017515
0.0208911
0.023563
0.0263294
0.0296269
0.0334792
0.0377394
0.0421847
0.0465566
0.0506129
0.054124
0.0569059
0.0588112
0.0597566
0.0597614
0.0589107
0.0573634
0.0554195
0.0534786
4.00807e-05
4.00791e-05
4.00775e-05
4.00762e-05
4.00754e-05
4.00753e-05
4.00761e-05
4.0076e-05
4.00708e-05
4.00183e-05
4.02255e-05
4.14424e-05
4.11435e-05
3.52e-05
1.18211e-05
4.59668e-06
7.36099e-06
6.35953e-05
4.13947e-05
0.000608507
0.00213917
0.00491989
0.0088291
0.0135293
0.0185937
0.0235686
0.0281804
0.0325648
0.0370221
0.0416635
0.0463627
0.0508781
0.0549428
0.0583129
0.0607653
0.0621501
0.062395
0.0615257
0.0596498
0.0569719
0.0539127
4.0079e-05
4.00771e-05
4.00754e-05
4.00743e-05
4.00736e-05
4.00731e-05
4.00727e-05
4.0073e-05
4.00741e-05
4.00751e-05
4.00046e-05
4.01534e-05
4.06753e-05
4.19985e-05
3.89877e-05
3.09581e-05
8.0693e-06
1.98487e-06
4.25449e-06
6.60164e-05
1.35152e-05
0.00052587
0.00173386
0.00390675
0.00714507
0.0113943
0.0165272
0.0223415
0.0285303
0.034724
0.0406169
0.0460233
0.0508253
0.0549232
0.0581895
0.0605
0.0617619
0.0618956
0.0607219
0.0582897
0.0548858
4.00777e-05
4.00753e-05
4.00731e-05
4.00716e-05
4.00707e-05
4.00702e-05
4.007e-05
4.00703e-05
4.007e-05
4.00739e-05
4.00675e-05
4.004e-05
4.00299e-05
4.03599e-05
4.1122e-05
4.18717e-05
3.69842e-05
2.31494e-05
6.85784e-06
1.79592e-06
1.32554e-06
5.03203e-05
0.000193387
0.000182513
0.00074354
0.00196092
0.0039729
0.00687882
0.0107067
0.0153807
0.0207167
0.0264197
0.032128
0.0375057
0.0422534
0.0461452
0.0490518
0.0509604
0.0518169
0.0516075
0.0503029
4.00768e-05
4.00741e-05
4.00712e-05
4.00694e-05
4.00681e-05
4.00674e-05
4.0067e-05
4.00669e-05
4.00671e-05
4.00676e-05
4.007e-05
4.00681e-05
4.00574e-05
4.00164e-05
4.01157e-05
4.06072e-05
4.17588e-05
4.10118e-05
3.59942e-05
2.08148e-05
6.40063e-06
1.88341e-06
0
1.56518e-05
6.2665e-05
0.000166458
2.35618e-05
0.000355289
0.00104675
0.00222371
0.00395364
0.00621143
0.0089063
0.0118981
0.0149845
0.0179487
0.0205862
0.0228015
0.0244659
0.0255274
0.0260297
4.00763e-05
4.00732e-05
4.007e-05
4.00679e-05
4.00664e-05
4.00653e-05
4.00647e-05
4.00643e-05
4.00643e-05
4.00645e-05
4.00653e-05
4.00662e-05
4.00695e-05
4.00614e-05
4.00368e-05
4.00069e-05
4.03014e-05
4.0961e-05
4.1734e-05
4.06443e-05
3.46119e-05
2.23547e-05
6.61087e-06
2.22285e-06
1.14515e-06
0
1.85673e-06
2.74778e-05
7.94581e-05
0.00016569
0.000313265
0.000133287
0.000378364
0.000775265
0.00132703
0.00201204
0.00274192
0.00347278
0.00413517
0.00467938
0.00513375
4.00762e-05
4.00727e-05
4.0069e-05
4.00665e-05
4.00647e-05
4.00634e-05
4.00625e-05
4.0062e-05
4.00618e-05
4.00618e-05
4.00622e-05
4.00629e-05
4.00642e-05
4.00668e-05
4.00675e-05
4.00464e-05
4.0022e-05
4.00722e-05
4.03853e-05
4.1125e-05
4.15294e-05
4.07754e-05
3.61046e-05
2.78527e-05
1.46382e-05
5.13662e-06
2.11898e-06
1.48718e-06
6.86836e-07
0
0
9.30939e-06
2.5912e-05
5.22057e-05
8.77027e-05
0.000130377
0.000173946
0.000217658
0.000270175
8.57437e-05
0.000104812
4.00762e-05
4.00722e-05
4.0068e-05
4.00651e-05
4.0063e-05
4.00615e-05
4.00605e-05
4.00598e-05
4.00594e-05
4.00593e-05
4.00594e-05
4.00599e-05
4.00607e-05
4.0062e-05
4.00646e-05
4.00665e-05
4.00601e-05
4.00388e-05
4.00197e-05
4.01059e-05
4.04405e-05
4.10022e-05
4.16655e-05
4.13168e-05
3.9362e-05
3.51185e-05
2.87743e-05
2.06217e-05
9.72334e-06
4.08775e-06
2.01645e-06
1.6677e-06
1.32998e-06
1.00088e-06
6.58516e-07
3.09851e-07
0
0
0
4.99545e-06
5.96883e-06
4.00759e-05
4.00715e-05
4.00669e-05
4.00636e-05
4.00613e-05
4.00597e-05
4.00585e-05
4.00578e-05
4.00573e-05
4.0057e-05
4.0057e-05
4.00573e-05
4.00579e-05
4.00588e-05
4.00601e-05
4.00622e-05
4.00648e-05
4.0065e-05
4.00557e-05
4.00335e-05
4.00325e-05
4.00862e-05
4.03804e-05
4.0871e-05
4.14004e-05
4.17634e-05
4.15033e-05
4.03308e-05
3.82104e-05
3.48517e-05
3.04905e-05
2.57601e-05
2.09846e-05
1.6088e-05
1.08007e-05
5.18982e-06
2.96279e-06
1.85367e-06
1.72037e-06
1.60433e-06
1.49736e-06
4.00751e-05
4.00706e-05
4.00659e-05
4.00624e-05
4.006e-05
4.00583e-05
4.00571e-05
4.00562e-05
4.00556e-05
4.00552e-05
4.00551e-05
4.00552e-05
4.00556e-05
4.00563e-05
4.00573e-05
4.00586e-05
4.00604e-05
4.00629e-05
4.00654e-05
4.00648e-05
4.00567e-05
4.00356e-05
4.00205e-05
4.00683e-05
4.0202e-05
4.04741e-05
4.08643e-05
4.12721e-05
4.16184e-05
4.18427e-05
4.17277e-05
4.12116e-05
4.03888e-05
3.93133e-05
3.80216e-05
3.65471e-05
3.4954e-05
3.31958e-05
3.15203e-05
2.99744e-05
2.86382e-05
4.0074e-05
4.00699e-05
4.00655e-05
4.00622e-05
4.00598e-05
4.0058e-05
4.00567e-05
4.00556e-05
4.00549e-05
4.00543e-05
4.0054e-05
4.00539e-05
4.0054e-05
4.00545e-05
4.00552e-05
4.00562e-05
4.00576e-05
4.00592e-05
4.00614e-05
4.00641e-05
4.0067e-05
4.00675e-05
4.00593e-05
4.00442e-05
4.00307e-05
4.00328e-05
4.00748e-05
4.01715e-05
4.03237e-05
4.0541e-05
4.07974e-05
4.10589e-05
4.13003e-05
4.15084e-05
4.16751e-05
4.1798e-05
4.18759e-05
4.19074e-05
4.18487e-05
4.17328e-05
4.15833e-05
4.00728e-05
4.00695e-05
4.00661e-05
4.00634e-05
4.00612e-05
4.00594e-05
4.00579e-05
4.00565e-05
4.00554e-05
4.00546e-05
4.00539e-05
4.00535e-05
4.00533e-05
4.00535e-05
4.00539e-05
4.00547e-05
4.00557e-05
4.0057e-05
4.00586e-05
4.00605e-05
4.0063e-05
4.00664e-05
4.00697e-05
4.00708e-05
4.00685e-05
4.00615e-05
4.00518e-05
4.00442e-05
4.00435e-05
4.00541e-05
4.00824e-05
4.01305e-05
4.01978e-05
4.02824e-05
4.0381e-05
4.04903e-05
4.06053e-05
4.07266e-05
4.08466e-05
4.09635e-05
4.10648e-05
4.0072e-05
4.00697e-05
4.00675e-05
4.00656e-05
4.00638e-05
4.00622e-05
4.00606e-05
4.00591e-05
4.00577e-05
4.00563e-05
4.00552e-05
4.00543e-05
4.00538e-05
4.00535e-05
4.00535e-05
4.00539e-05
4.00546e-05
4.00556e-05
4.00569e-05
4.00585e-05
4.00603e-05
4.00625e-05
4.00655e-05
4.0069e-05
4.00726e-05
4.00758e-05
4.00778e-05
4.00783e-05
4.00772e-05
4.00746e-05
4.00714e-05
4.00685e-05
4.00672e-05
4.00684e-05
4.00729e-05
4.00812e-05
4.00932e-05
4.01093e-05
4.0129e-05
4.01522e-05
4.0176e-05
4.00718e-05
4.00706e-05
4.00693e-05
4.00681e-05
4.00669e-05
4.00655e-05
4.00641e-05
4.00626e-05
4.00609e-05
4.00593e-05
4.00578e-05
4.00564e-05
4.00553e-05
4.00545e-05
4.00541e-05
4.0054e-05
4.00543e-05
4.00549e-05
4.00558e-05
4.0057e-05
4.00585e-05
4.00604e-05
4.00626e-05
4.00653e-05
4.00685e-05
4.0072e-05
4.00759e-05
4.00801e-05
4.00843e-05
4.00884e-05
4.00922e-05
4.00956e-05
4.00986e-05
4.01012e-05
4.01034e-05
4.01055e-05
4.01077e-05
4.01099e-05
4.01126e-05
4.01153e-05
4.01195e-05
4.00721e-05
4.00719e-05
4.00713e-05
4.00705e-05
4.00696e-05
4.00685e-05
4.00673e-05
4.0066e-05
4.00645e-05
4.00628e-05
4.00611e-05
4.00594e-05
4.00577e-05
4.00564e-05
4.00555e-05
4.00549e-05
4.00547e-05
4.00548e-05
4.00553e-05
4.00562e-05
4.00573e-05
4.00588e-05
4.00607e-05
4.0063e-05
4.00656e-05
4.00685e-05
4.00719e-05
4.00755e-05
4.00795e-05
4.00839e-05
4.00885e-05
4.00934e-05
4.00985e-05
4.01038e-05
4.01092e-05
4.01146e-05
4.01202e-05
4.01257e-05
4.01315e-05
4.01369e-05
4.0143e-05
4.00729e-05
4.00733e-05
4.0073e-05
4.00724e-05
4.00717e-05
4.00709e-05
4.00699e-05
4.00689e-05
4.00677e-05
4.00662e-05
4.00646e-05
4.00628e-05
4.0061e-05
4.00592e-05
4.00577e-05
4.00566e-05
4.00559e-05
4.00555e-05
4.00556e-05
4.0056e-05
4.00567e-05
4.00578e-05
4.00593e-05
4.00612e-05
4.00634e-05
4.0066e-05
4.00688e-05
4.0072e-05
4.00755e-05
4.00793e-05
4.00834e-05
4.00878e-05
4.00924e-05
4.00972e-05
4.01023e-05
4.01076e-05
4.01131e-05
4.01188e-05
4.01248e-05
4.01305e-05
4.01368e-05
4.00737e-05
4.00744e-05
4.00743e-05
4.00739e-05
4.00734e-05
4.00728e-05
4.00721e-05
4.00713e-05
4.00703e-05
4.00692e-05
4.00679e-05
4.00663e-05
4.00645e-05
4.00625e-05
4.00606e-05
4.0059e-05
4.00578e-05
4.0057e-05
4.00565e-05
4.00564e-05
4.00567e-05
4.00573e-05
4.00584e-05
4.00599e-05
4.00617e-05
4.00638e-05
4.00663e-05
4.00692e-05
4.00723e-05
4.00757e-05
4.00793e-05
4.00832e-05
4.00874e-05
4.00918e-05
4.00964e-05
4.01012e-05
4.01062e-05
4.01113e-05
4.01168e-05
4.0122e-05
4.01278e-05
4.00741e-05
4.0075e-05
4.00751e-05
4.0075e-05
4.00747e-05
4.00743e-05
4.00738e-05
4.00732e-05
4.00725e-05
4.00717e-05
4.00707e-05
4.00694e-05
4.00679e-05
4.00661e-05
4.00639e-05
4.0062e-05
4.00603e-05
4.00591e-05
4.00582e-05
4.00576e-05
4.00574e-05
4.00576e-05
4.00582e-05
4.00592e-05
4.00606e-05
4.00623e-05
4.00644e-05
4.00668e-05
4.00695e-05
4.00725e-05
4.00758e-05
4.00793e-05
4.0083e-05
4.0087e-05
4.00912e-05
4.00956e-05
4.01002e-05
4.01049e-05
4.011e-05
4.01147e-05
4.01201e-05
4.00741e-05
4.00753e-05
4.00756e-05
4.00756e-05
4.00756e-05
4.00754e-05
4.00752e-05
4.00749e-05
4.00744e-05
4.00738e-05
4.0073e-05
4.00721e-05
4.00709e-05
4.00695e-05
4.00675e-05
4.00653e-05
4.00634e-05
4.00617e-05
4.00604e-05
4.00595e-05
4.00589e-05
4.00586e-05
4.00588e-05
4.00593e-05
4.00603e-05
4.00615e-05
4.00632e-05
4.00651e-05
4.00674e-05
4.007e-05
4.00728e-05
4.00759e-05
4.00792e-05
4.00828e-05
4.00866e-05
4.00906e-05
4.00947e-05
4.0099e-05
4.01036e-05
4.0108e-05
4.01129e-05
4.00738e-05
4.00751e-05
4.00756e-05
4.00759e-05
4.0076e-05
4.00762e-05
4.00762e-05
4.00762e-05
4.0076e-05
4.00757e-05
4.00751e-05
4.00744e-05
4.00735e-05
4.00724e-05
4.00709e-05
4.0069e-05
4.00667e-05
4.00648e-05
4.00632e-05
4.00619e-05
4.00609e-05
4.00603e-05
4.006e-05
4.00601e-05
4.00606e-05
4.00615e-05
4.00627e-05
4.00642e-05
4.0066e-05
4.00681e-05
4.00705e-05
4.00732e-05
4.00761e-05
4.00792e-05
4.00826e-05
4.00861e-05
4.00898e-05
4.00936e-05
4.00978e-05
4.01016e-05
4.01061e-05
4.00731e-05
4.00745e-05
4.00752e-05
4.00756e-05
4.00761e-05
4.00765e-05
4.00768e-05
4.00771e-05
4.00772e-05
4.00771e-05
4.00769e-05
4.00765e-05
4.00758e-05
4.0075e-05
4.00739e-05
4.00724e-05
4.00704e-05
4.00682e-05
4.00663e-05
4.00647e-05
4.00634e-05
4.00624e-05
4.00618e-05
4.00616e-05
4.00617e-05
4.00621e-05
4.00629e-05
4.0064e-05
4.00654e-05
4.0067e-05
4.0069e-05
4.00712e-05
4.00737e-05
4.00763e-05
4.00792e-05
4.00822e-05
4.00855e-05
4.00888e-05
4.00925e-05
4.00958e-05
4.00998e-05
4.00719e-05
4.00734e-05
4.00743e-05
4.0075e-05
4.00757e-05
4.00763e-05
4.0077e-05
4.00775e-05
4.0078e-05
4.00782e-05
4.00783e-05
4.00782e-05
4.00778e-05
4.00772e-05
4.00764e-05
4.00753e-05
4.00737e-05
4.00718e-05
4.00696e-05
4.00678e-05
4.00662e-05
4.00649e-05
4.0064e-05
4.00634e-05
4.00632e-05
4.00633e-05
4.00637e-05
4.00643e-05
4.00653e-05
4.00666e-05
4.00681e-05
4.00699e-05
4.00719e-05
4.00741e-05
4.00765e-05
4.0079e-05
4.00818e-05
4.00846e-05
4.00877e-05
4.00906e-05
4.00941e-05
4.00703e-05
4.00719e-05
4.00729e-05
4.00738e-05
4.00748e-05
4.00758e-05
4.00767e-05
4.00775e-05
4.00783e-05
4.00788e-05
4.00792e-05
4.00794e-05
4.00793e-05
4.00791e-05
4.00785e-05
4.00777e-05
4.00766e-05
4.00751e-05
4.00732e-05
4.00711e-05
4.00692e-05
4.00677e-05
4.00665e-05
4.00656e-05
4.00651e-05
4.00648e-05
4.00649e-05
4.00652e-05
4.00658e-05
4.00666e-05
4.00677e-05
4.00691e-05
4.00706e-05
4.00724e-05
4.00743e-05
4.00764e-05
4.00786e-05
4.0081e-05
4.00835e-05
4.00858e-05
4.00888e-05
4.00681e-05
4.00698e-05
4.0071e-05
4.00721e-05
4.00734e-05
4.00746e-05
4.00758e-05
4.00769e-05
4.00779e-05
4.00788e-05
4.00795e-05
4.008e-05
4.00802e-05
4.00803e-05
4.00801e-05
4.00795e-05
4.00787e-05
4.00776e-05
4.00762e-05
4.00744e-05
4.00724e-05
4.00706e-05
4.00691e-05
4.0068e-05
4.00671e-05
4.00666e-05
4.00663e-05
4.00663e-05
4.00665e-05
4.0067e-05
4.00677e-05
4.00687e-05
4.00698e-05
4.00711e-05
4.00726e-05
4.00742e-05
4.00759e-05
4.00777e-05
4.00798e-05
4.00815e-05
4.0084e-05
4.00655e-05
4.00672e-05
4.00685e-05
4.00699e-05
4.00714e-05
4.00728e-05
4.00743e-05
4.00756e-05
4.00769e-05
4.0078e-05
4.00789e-05
4.00797e-05
4.00803e-05
4.00806e-05
4.00807e-05
4.00806e-05
4.00801e-05
4.00793e-05
4.00783e-05
4.0077e-05
4.00753e-05
4.00733e-05
4.00716e-05
4.00702e-05
4.00691e-05
4.00683e-05
4.00677e-05
4.00674e-05
4.00674e-05
4.00675e-05
4.00679e-05
4.00684e-05
4.00691e-05
4.007e-05
4.00711e-05
4.00722e-05
4.00735e-05
4.00748e-05
4.00763e-05
4.00775e-05
4.00794e-05
4.00623e-05
4.0064e-05
4.00655e-05
4.0067e-05
4.00686e-05
4.00703e-05
4.00719e-05
4.00734e-05
4.00748e-05
4.00762e-05
4.00774e-05
4.00784e-05
4.00793e-05
4.00799e-05
4.00804e-05
4.00805e-05
4.00804e-05
4.008e-05
4.00793e-05
4.00783e-05
4.00771e-05
4.00756e-05
4.00738e-05
4.00722e-05
4.00708e-05
4.00698e-05
4.0069e-05
4.00684e-05
4.0068e-05
4.00678e-05
4.00679e-05
4.00681e-05
4.00684e-05
4.00689e-05
4.00695e-05
4.00702e-05
4.00711e-05
4.00719e-05
4.00729e-05
4.00736e-05
4.0075e-05
4.00586e-05
4.00603e-05
4.00619e-05
4.00635e-05
4.00652e-05
4.00668e-05
4.00685e-05
4.00701e-05
4.00717e-05
4.00732e-05
4.00746e-05
4.00759e-05
4.0077e-05
4.00779e-05
4.00787e-05
4.00792e-05
4.00794e-05
4.00793e-05
4.00789e-05
4.00783e-05
4.00775e-05
4.00764e-05
4.0075e-05
4.00733e-05
4.00719e-05
4.00706e-05
4.00696e-05
4.00688e-05
4.00682e-05
4.00678e-05
4.00675e-05
4.00674e-05
4.00674e-05
4.00675e-05
4.00677e-05
4.0068e-05
4.00684e-05
4.00688e-05
4.00693e-05
4.00696e-05
4.00704e-05
4.00543e-05
4.0056e-05
4.00576e-05
4.00591e-05
4.00608e-05
4.00624e-05
4.00641e-05
4.00658e-05
4.00674e-05
4.00691e-05
4.00706e-05
4.00721e-05
4.00734e-05
4.00746e-05
4.00756e-05
4.00763e-05
4.00769e-05
4.00771e-05
4.00771e-05
4.00769e-05
4.00764e-05
4.00756e-05
4.00747e-05
4.00734e-05
4.00719e-05
4.00706e-05
4.00694e-05
4.00685e-05
4.00677e-05
4.0067e-05
4.00665e-05
4.00661e-05
4.00659e-05
4.00657e-05
4.00656e-05
4.00655e-05
4.00655e-05
4.00655e-05
4.00656e-05
4.00655e-05
4.00659e-05
4.00493e-05
4.0051e-05
4.00525e-05
4.0054e-05
4.00555e-05
4.0057e-05
4.00586e-05
4.00603e-05
4.00619e-05
4.00636e-05
4.00653e-05
4.00669e-05
4.00684e-05
4.00697e-05
4.0071e-05
4.0072e-05
4.00728e-05
4.00733e-05
4.00736e-05
4.00737e-05
4.00736e-05
4.00732e-05
4.00726e-05
4.00717e-05
4.00707e-05
4.00694e-05
4.00682e-05
4.00671e-05
4.00661e-05
4.00653e-05
4.00646e-05
4.00641e-05
4.00635e-05
4.00631e-05
4.00627e-05
4.00624e-05
4.0062e-05
4.00617e-05
4.00614e-05
4.00609e-05
4.00608e-05
4.00437e-05
4.00453e-05
4.00466e-05
4.00479e-05
4.00492e-05
4.00506e-05
4.00521e-05
4.00536e-05
4.00553e-05
4.0057e-05
4.00586e-05
4.00603e-05
4.00619e-05
4.00634e-05
4.00647e-05
4.0066e-05
4.0067e-05
4.00678e-05
4.00683e-05
4.00687e-05
4.00689e-05
4.00688e-05
4.00685e-05
4.0068e-05
4.00673e-05
4.00665e-05
4.00654e-05
4.00643e-05
4.00634e-05
4.00625e-05
4.00618e-05
4.00611e-05
4.00604e-05
4.00598e-05
4.00593e-05
4.00587e-05
4.00582e-05
4.00576e-05
4.00571e-05
4.00564e-05
4.00561e-05
4.00375e-05
4.00388e-05
4.00399e-05
4.0041e-05
4.00421e-05
4.00433e-05
4.00446e-05
4.0046e-05
4.00475e-05
4.0049e-05
4.00506e-05
4.00522e-05
4.00538e-05
4.00553e-05
4.00568e-05
4.00581e-05
4.00592e-05
4.00602e-05
4.00611e-05
4.00617e-05
4.00621e-05
4.00624e-05
4.00625e-05
4.00624e-05
4.00621e-05
4.00617e-05
4.00611e-05
4.00605e-05
4.00597e-05
4.00588e-05
4.0058e-05
4.00572e-05
4.00565e-05
4.00558e-05
4.00552e-05
4.00545e-05
4.00539e-05
4.00533e-05
4.00526e-05
4.0052e-05
4.00515e-05
4.00305e-05
4.00316e-05
4.00324e-05
4.00332e-05
4.00341e-05
4.00351e-05
4.00362e-05
4.00374e-05
4.00387e-05
4.004e-05
4.00413e-05
4.00427e-05
4.0044e-05
4.00454e-05
4.00468e-05
4.00481e-05
4.00494e-05
4.00504e-05
4.00513e-05
4.00521e-05
4.00527e-05
4.00531e-05
4.00533e-05
4.00534e-05
4.00533e-05
4.00532e-05
4.00529e-05
4.00525e-05
4.0052e-05
4.00515e-05
4.00509e-05
4.00504e-05
4.00499e-05
4.00494e-05
4.00489e-05
4.00484e-05
4.00479e-05
4.00476e-05
4.00472e-05
4.0047e-05
4.00469e-05
4.00228e-05
4.00235e-05
4.00241e-05
4.00247e-05
4.00254e-05
4.00262e-05
4.0027e-05
4.00279e-05
4.00288e-05
4.00297e-05
4.00306e-05
4.00316e-05
4.00326e-05
4.00336e-05
4.00346e-05
4.00355e-05
4.00364e-05
4.00374e-05
4.00383e-05
4.00391e-05
4.004e-05
4.00407e-05
4.00414e-05
4.00419e-05
4.00424e-05
4.00428e-05
4.00431e-05
4.00434e-05
4.00435e-05
4.00437e-05
4.00438e-05
4.00438e-05
4.00439e-05
4.0044e-05
4.00442e-05
4.00443e-05
4.00446e-05
4.00449e-05
4.00454e-05
4.0046e-05
4.00467e-05
4.00143e-05
4.00147e-05
4.00151e-05
4.00155e-05
4.0016e-05
4.00166e-05
4.0017e-05
4.00175e-05
4.00178e-05
4.00181e-05
4.00184e-05
4.00186e-05
4.0019e-05
4.00197e-05
4.0021e-05
4.00225e-05
4.00239e-05
4.00251e-05
4.00261e-05
4.00268e-05
4.00273e-05
4.00277e-05
4.00278e-05
4.00279e-05
4.00279e-05
4.00279e-05
4.00278e-05
4.00278e-05
4.00277e-05
4.00278e-05
4.00278e-05
4.00279e-05
4.00281e-05
4.00283e-05
4.00287e-05
4.00291e-05
4.00296e-05
4.00303e-05
4.0031e-05
4.00319e-05
4.00328e-05
4.00049e-05
4.0005e-05
4.00052e-05
4.00054e-05
4.00057e-05
4.0006e-05
4.00062e-05
4.00063e-05
4.00063e-05
4.0006e-05
4.00056e-05
4.00044e-05
4.00039e-05
4.00045e-05
4.00062e-05
4.00087e-05
4.00117e-05
4.00148e-05
4.00179e-05
4.00208e-05
4.00234e-05
4.00257e-05
4.00276e-05
4.00291e-05
4.00302e-05
4.00309e-05
4.00314e-05
4.00315e-05
4.00314e-05
4.00309e-05
4.003e-05
4.0029e-05
4.00284e-05
4.00281e-05
4.00281e-05
4.00284e-05
4.00289e-05
4.00297e-05
4.00308e-05
4.0032e-05
4.00337e-05
0.00392355
0.00710948
0.00856621
0.00653979
0.00202654
9.85809e-05
9.3089e-06
3.56555e-05
5.37537e-06
3.86942e-05
0.00802583
0.0174351
0.0235213
0.0272032
0.0291734
0.0298565
0.0295357
0.0284132
0.0266239
0.0242693
0.0214218
0.0181175
0.014371
0.0102092
0.0057533
0.00182103
1.02146e-05
9.12807e-06
1.44219e-05
4.18586e-05
4.29553e-05
4.00067e-05
4.02391e-05
4.04836e-05
4.0416e-05
4.04267e-05
4.04953e-05
4.05424e-05
4.05669e-05
4.05875e-05
4.06114e-05
4.06386e-05
4.06677e-05
4.06975e-05
4.07269e-05
4.07542e-05
4.07775e-05
4.07947e-05
4.08037e-05
4.0803e-05
4.07921e-05
4.0771e-05
4.07405e-05
4.07016e-05
4.0656e-05
4.06053e-05
4.05519e-05
4.04987e-05
4.04493e-05
4.04079e-05
4.03787e-05
4.03603e-05
4.03475e-05
4.03374e-05
4.03286e-05
4.03204e-05
4.03127e-05
4.03055e-05
4.02992e-05
4.0294e-05
4.02898e-05
4.02864e-05
4.02844e-05
4.02797e-05
0.00675999
0.0110764
0.0131365
0.0115635
0.00580752
0.00093291
7.0755e-05
8.51613e-06
2.35586e-05
0.00081005
0.0111102
0.0210716
0.0271723
0.0308289
0.0328237
0.0335815
0.0333721
0.0323831
0.0307457
0.0285561
0.0258833
0.0227669
0.0192261
0.0152719
0.0108853
0.00614951
0.00195934
3.98835e-05
4.39489e-06
4.83868e-06
3.94968e-05
4.41723e-05
4.04625e-05
3.98845e-05
4.04125e-05
4.0538e-05
4.05434e-05
4.05886e-05
4.06319e-05
4.0659e-05
4.06831e-05
4.07106e-05
4.07405e-05
4.07706e-05
4.07992e-05
4.08243e-05
4.08438e-05
4.08558e-05
4.08582e-05
4.085e-05
4.08307e-05
4.0801e-05
4.07618e-05
4.07146e-05
4.06613e-05
4.06042e-05
4.05462e-05
4.04908e-05
4.04421e-05
4.04043e-05
4.03804e-05
4.03657e-05
4.03552e-05
4.03467e-05
4.0339e-05
4.03314e-05
4.0324e-05
4.0317e-05
4.03107e-05
4.03053e-05
4.03009e-05
4.02971e-05
4.02949e-05
4.0289e-05
0.00959985
0.015269
0.0180863
0.0171032
0.0113883
0.00356226
0.000206252
7.46217e-06
6.32243e-05
0.0018664
0.0134068
0.0238977
0.0302085
0.0340232
0.0362033
0.0371737
0.0371888
0.0364238
0.0350117
0.0330436
0.0305872
0.027688
0.0243692
0.0206468
0.0165009
0.0118792
0.00685038
0.00237828
0.000673261
2.64289e-05
1.02759e-05
3.26343e-05
4.71554e-05
4.29088e-05
4.01136e-05
4.02998e-05
4.06427e-05
4.06793e-05
4.06897e-05
4.07267e-05
4.07601e-05
4.07884e-05
4.08174e-05
4.08469e-05
4.08739e-05
4.0896e-05
4.09108e-05
4.09166e-05
4.09116e-05
4.0895e-05
4.08669e-05
4.0828e-05
4.07799e-05
4.07244e-05
4.06638e-05
4.06011e-05
4.05398e-05
4.04837e-05
4.04371e-05
4.04035e-05
4.03846e-05
4.0373e-05
4.03646e-05
4.03574e-05
4.03505e-05
4.03433e-05
4.03362e-05
4.03292e-05
4.03227e-05
4.03171e-05
4.03124e-05
4.03082e-05
4.03058e-05
4.02985e-05
0.0126022
0.019791
0.0234164
0.0230161
0.0179582
0.00858876
0.00152167
0.000135163
0.000105422
0.00267692
0.0149667
0.0260345
0.0327646
0.0369006
0.0394142
0.0407234
0.0410653
0.040604
0.0394845
0.037786
0.0355836
0.0329276
0.0298451
0.0263599
0.0224624
0.0181085
0.0132123
0.00789123
0.00291078
0.00011788
0.000114871
8.16311e-06
1.26674e-05
4.06866e-05
4.43304e-05
4.0755e-05
4.01235e-05
4.06501e-05
4.08356e-05
4.08215e-05
4.08302e-05
4.08649e-05
4.08979e-05
4.09259e-05
4.095e-05
4.09682e-05
4.09775e-05
4.09763e-05
4.09633e-05
4.09377e-05
4.09001e-05
4.08518e-05
4.07947e-05
4.07312e-05
4.06641e-05
4.05969e-05
4.05336e-05
4.04783e-05
4.04348e-05
4.04059e-05
4.0391e-05
4.03821e-05
4.03755e-05
4.03693e-05
4.03629e-05
4.03561e-05
4.0349e-05
4.03419e-05
4.03353e-05
4.03294e-05
4.03243e-05
4.03196e-05
4.03168e-05
4.03082e-05
0.0161522
0.0248096
0.0291131
0.0292537
0.0250266
0.0156322
0.00502668
0.000374209
0.000159955
0.00311367
0.0157819
0.027479
0.034829
0.0394652
0.042461
0.0442408
0.0450258
0.0449687
0.044202
0.0428118
0.0408974
0.0385064
0.0356763
0.0324359
0.0287854
0.0247007
0.0201118
0.0149524
0.00929843
0.00386963
0.000528917
0.000286988
1.74733e-05
1.05759e-05
3.43973e-05
4.54289e-05
4.23948e-05
4.02352e-05
4.05008e-05
4.09336e-05
4.09865e-05
4.09573e-05
4.09721e-05
4.10035e-05
4.10275e-05
4.10409e-05
4.10437e-05
4.10347e-05
4.10129e-05
4.09779e-05
4.09305e-05
4.08726e-05
4.08066e-05
4.07356e-05
4.06629e-05
4.05925e-05
4.05285e-05
4.0475e-05
4.04353e-05
4.0411e-05
4.03994e-05
4.03928e-05
4.03875e-05
4.03822e-05
4.03762e-05
4.03696e-05
4.03624e-05
4.03552e-05
4.03483e-05
4.0342e-05
4.03365e-05
4.03312e-05
4.03282e-05
4.0318e-05
0.0213534
0.0304882
0.0351128
0.035716
0.0323272
0.0238353
0.0112512
0.00220542
0.000355234
0.00313852
0.0158592
0.028227
0.0363398
0.0416485
0.0452739
0.047655
0.0489998
0.0494518
0.0491355
0.0481424
0.0465597
0.0444448
0.0418824
0.038892
0.0354928
0.0316692
0.0273829
0.0225684
0.0171552
0.0111896
0.00533479
0.00130458
6.86846e-05
1.91388e-06
8.73744e-06
2.17486e-05
4.30087e-05
4.4733e-05
4.10973e-05
4.02771e-05
4.08238e-05
4.11202e-05
4.11162e-05
4.10897e-05
4.10992e-05
4.11115e-05
4.11094e-05
4.10919e-05
4.10605e-05
4.10155e-05
4.09582e-05
4.08908e-05
4.08164e-05
4.07385e-05
4.06613e-05
4.05887e-05
4.05251e-05
4.04741e-05
4.04384e-05
4.04184e-05
4.04096e-05
4.04048e-05
4.04007e-05
4.03959e-05
4.03902e-05
4.03837e-05
4.03764e-05
4.0369e-05
4.03618e-05
4.03551e-05
4.0349e-05
4.03431e-05
4.03397e-05
4.03279e-05
0.0281673
0.0367884
0.0412979
0.042236
0.039636
0.0324288
0.0197484
0.00664473
0.000383918
0.00277199
0.0152221
0.0282141
0.0371938
0.0433379
0.0477399
0.0508543
0.0528778
0.0539453
0.0541788
0.0536751
0.0525188
0.050772
0.0485017
0.0457535
0.0426089
0.0390388
0.0350417
0.0305616
0.0255373
0.0198956
0.0136741
0.00739249
0.00259967
0.000951072
0.000124257
5.10707e-06
1.10405e-05
3.25895e-05
4.60921e-05
4.37154e-05
4.0795e-05
4.06014e-05
4.11e-05
4.12619e-05
4.12235e-05
4.11869e-05
4.11708e-05
4.11472e-05
4.11069e-05
4.10515e-05
4.09839e-05
4.09071e-05
4.08248e-05
4.0741e-05
4.06601e-05
4.05864e-05
4.05239e-05
4.04759e-05
4.04441e-05
4.04278e-05
4.04213e-05
4.04179e-05
4.04147e-05
4.04105e-05
4.04049e-05
4.03983e-05
4.03909e-05
4.03832e-05
4.03756e-05
4.03684e-05
4.03618e-05
4.03553e-05
4.03515e-05
4.0338e-05
0.0362582
0.043443
0.0474421
0.0485562
0.0466727
0.0408209
0.0293877
0.0140529
0.00261112
0.00230337
0.0138816
0.0273735
0.0372628
0.0443891
0.0497092
0.0536898
0.0565143
0.0583077
0.0591917
0.0592714
0.0586363
0.0573537
0.0554827
0.0530715
0.0501835
0.0468446
0.0431232
0.0389517
0.0342976
0.0290934
0.0232701
0.0168304
0.0101989
0.00426287
0.000606453
0.000457377
8.3405e-06
7.91855e-06
1.09029e-05
3.85134e-05
4.53844e-05
4.24486e-05
4.0575e-05
4.07869e-05
4.12362e-05
4.13232e-05
4.12611e-05
4.12008e-05
4.1148e-05
4.10849e-05
4.10084e-05
4.09227e-05
4.0833e-05
4.0744e-05
4.06604e-05
4.05865e-05
4.05255e-05