/*--------------------------------*- C++ -*----------------------------------*\
| =========                 |                                                 |
| \\      /  F ield         | OpenFOAM: The Open Source CFD Toolbox           |
|  \\    /   O peration     | Version:  2312                                  |
|   \\  /    A nd           | Website:  www.openfoam.com                      |
|    \\/     M anipulation  |                                                 |
\*---------------------------------------------------------------------------*/
FoamFile
{
    version     2.0;
    format      ascii;
    arch        "LSB;label=32;scalar=64";
    class       volScalarField;
    location    "350";
    object      p;
}
// * * * * * * * * * * * * * * * * * * * * * * * * * * * * * * * * * * * * * //

dimensions      [0 2 -2 0 0 0 0];

internalField   nonuniform List<scalar> 
11040
(
-24.7981
-25.5575
-22.9967
-22.9256
-22.5769
-22.3201
-22.1262
-22.0028
-21.9065
-21.8281
-21.7741
-21.7465
-21.7345
-21.752
-21.7897
-21.8547
-21.9444
-22.0657
-22.2229
-22.4301
-22.6994
-23.0289
-23.42
-23.8844
-24.4184
-24.9997
-25.5941
-26.1579
-26.6274
-26.9465
-27.032
-26.8441
-26.3327
-25.5225
-24.4594
-23.2897
-22.1563
-21.3316
-21.2183
-21.5601
-22.7681
-12.3553
-17.9494
-22.4455
-22.7013
-22.5855
-22.3333
-22.1325
-22.0051
-21.9084
-21.8265
-21.7685
-21.7383
-21.7237
-21.7388
-21.7749
-21.8382
-21.9267
-22.0462
-22.2011
-22.4051
-22.6708
-22.9966
-23.3835
-23.8433
-24.3735
-24.9528
-25.5488
-26.1184
-26.5981
-26.9308
-27.0329
-26.8627
-26.3716
-25.5813
-24.5361
-23.3794
-22.2533
-21.4205
-21.2993
-21.5924
-23.2619
-4.78685
-11.4473
-18.6512
-22.0188
-22.4162
-22.3138
-22.129
-21.9995
-21.9068
-21.8245
-21.7626
-21.7305
-21.7129
-21.7251
-21.7594
-21.8204
-21.9078
-22.0254
-22.1784
-22.3789
-22.6409
-22.964
-23.3478
-23.804
-24.3307
-24.9079
-25.5043
-26.0775
-26.5652
-26.9095
-27.029
-26.8792
-26.4137
-25.6507
-24.634
-23.5029
-22.4001
-21.5761
-21.4593
-21.7032
-23.5408
-0.63006
-7.6527
-13.8734
-19.1215
-21.7144
-22.1063
-22.1026
-21.9868
-21.8986
-21.8172
-21.751
-21.7177
-21.697
-21.7058
-21.7379
-21.7961
-21.8821
-21.9976
-22.1484
-22.3451
-22.6031
-22.9231
-23.3043
-23.7576
-24.2816
-24.8577
-25.4559
-26.0344
-26.5331
-26.8931
-27.036
-26.9139
-26.4826
-25.7553
-24.776
-23.6781
-22.6055
-21.7995
-21.6891
-21.9073
-23.7187
2.53549
-3.61556
-9.58072
-14.9437
-19.106
-21.2987
-21.8294
-21.9417
-21.8922
-21.8121
-21.7335
-21.6998
-21.6755
-21.6804
-21.7101
-21.7645
-21.8485
-21.9608
-22.1088
-22.3007
-22.5536
-22.8691
-23.2466
-23.6963
-24.2175
-24.7934
-25.3955
-25.9826
-26.4971
-26.8788
-27.0531
-26.9685
-26.5828
-25.9035
-24.9743
-23.921
-22.8886
-22.1109
-22.0007
-22.2201
-23.9133
4.42843
-0.489505
-5.8114
-10.978
-15.3795
-18.759
-20.7996
-21.5817
-21.7856
-21.8081
-21.7203
-21.6808
-21.649
-21.6492
-21.6766
-21.7266
-21.8086
-21.9171
-22.0617
-22.2479
-22.4945
-22.8043
-23.1771
-23.6225
-24.1407
-24.717
-25.3247
-25.924
-26.4593
-26.8706
-27.0861
-27.0512
-26.725
-26.1091
-25.2457
-24.2516
-23.2723
-22.535
-22.4165
-22.6666
-24.1935
5.56633
1.60285
-2.77754
-7.38045
-11.7297
-15.3747
-18.2498
-20.2564
-21.2948
-21.5586
-21.7061
-21.6784
-21.628
-21.6114
-21.636
-21.6812
-21.7616
-21.8658
-22.0064
-22.1858
-22.4249
-22.7273
-23.0934
-23.5332
-24.0477
-24.6249
-25.2404
-25.8562
-26.4193
-26.8701
-27.1391
-27.1696
-26.9202
-26.3874
-25.6087
-24.6919
-23.7799
-23.0943
-22.9623
-23.2608
-24.5925
6.16235
2.93111
-0.593161
-4.40365
-8.33223
-12.0246
-15.1536
-17.6775
-19.6366
-20.8255
-21.3217
-21.5518
-21.6333
-21.589
-21.5979
-21.6275
-21.7072
-21.8074
-21.9445
-22.1163
-22.3463
-22.6387
-22.9958
-23.4281
-23.938
-24.5165
-25.1421
-25.7799
-26.3792
-26.8814
-27.2195
-27.3347
-27.1842
-26.758
-26.0879
-25.2694
-24.4417
-23.8159
-23.6747
-24.0106
-25.1322
6.38017
3.70683
0.857632
-2.23063
-5.51528
-8.86397
-12.0559
-14.8209
-17.0905
-18.9319
-20.2424
-21.0007
-21.3055
-21.5361
-21.5941
-21.5864
-21.6519
-21.7402
-21.8755
-22.04
-22.2597
-22.5392
-22.8842
-23.306
-23.8099
-24.3895
-25.0277
-25.6927
-26.3379
-26.9055
-27.3318
-27.5553
-27.5308
-27.2407
-26.7083
-26.0137
-25.2892
-24.7294
-24.5851
-24.918
-25.8154
6.33058
4.08011
1.75109
-0.758352
-3.4454
-6.26276
-9.13824
-11.9303
-14.4248
-16.501
-18.1898
-19.5518
-20.4968
-21.03
-21.3235
-21.5642
-21.6374
-21.6866
-21.8061
-21.9566
-22.1663
-22.4313
-22.7613
-23.17
-23.6657
-24.246
-24.8984
-25.5965
-26.2967
-26.9459
-27.4799
-27.8387
-27.97
-27.8514
-27.4897
-26.9504
-26.3479
-25.8613
-25.7098
-25.9731
-26.6267
6.08861
4.16798
2.22989
0.179355
-2.01877
-4.34668
-6.7733
-9.25488
-11.7034
-13.9676
-15.8932
-17.476
-18.8095
-19.8717
-20.6138
-21.0631
-21.4099
-21.6805
-21.7898
-21.893
-22.0751
-22.3164
-22.6298
-23.0245
-23.5111
-24.0926
-24.7623
-25.4986
-26.2659
-27.0104
-27.675
-28.1932
-28.5145
-28.5978
-28.4434
-28.0864
-27.6294
-27.2155
-27.0421
-27.1614
-27.5601
5.7142
4.05189
2.41193
0.71384
-1.0914
-3.00939
-5.02928
-7.12814
-9.27452
-11.4173
-13.4584
-15.2773
-16.8064
-18.0884
-19.1829
-20.0659
-20.72
-21.1693
-21.5754
-21.8928
-22.0576
-22.2341
-22.5055
-22.8733
-23.3499
-23.9361
-24.6291
-25.4136
-26.2574
-27.1154
-27.9284
-28.6356
-29.1735
-29.4977
-29.5787
-29.4362
-29.13
-28.7863
-28.5484
-28.478
-28.6101
5.25193
3.79629
2.38663
0.957635
-0.539767
-2.12422
-3.79915
-5.55622
-7.37794
-9.23801
-11.104
-12.9306
-14.642
-16.1476
-17.4153
-18.5005
-19.4472
-20.2419
-20.8702
-21.3425
-21.8023
-22.2209
-22.5145
-22.808
-23.2253
-23.7894
-24.4963
-25.3353
-26.2698
-27.2599
-28.2444
-29.1651
-29.9499
-30.5493
-30.9078
-31.0153
-30.888
-30.6044
-30.2528
-29.9252
-29.7396
4.7369
3.45034
2.22226
1.00093
-0.258656
-1.57851
-2.97027
-4.43419
-5.96641
-7.5506
-9.16465
-10.7913
-12.4147
-13.994
-15.4608
-16.7501
-17.8531
-18.8234
-19.6917
-20.4488
-21.0797
-21.5644
-22.0961
-22.7277
-23.3139
-23.8628
-24.5103
-25.3228
-26.2988
-27.3885
-28.5454
-29.6878
-30.753
-31.6564
-32.3466
-32.7499
-32.8569
-32.6536
-32.1953
-31.5689
-30.9445
4.19587
3.05118
1.97026
0.912519
-0.162115
-1.274
-2.43884
-3.66096
-4.94321
-6.27969
-7.659
-9.06613
-10.4927
-11.9271
-13.3549
-14.7434
-16.042
-17.2052
-18.2344
-19.1702
-20.0625
-20.7984
-21.3704
-21.9159
-22.581
-23.4849
-24.543
-25.6124
-26.6736
-27.7927
-28.9922
-30.2406
-31.4671
-32.6037
-33.5622
-34.2627
-34.621
-34.598
-34.1622
-33.3681
-32.2965
3.65415
2.63118
1.67222
0.745653
-0.183295
-1.1323
-2.11679
-3.14384
-4.21923
-5.34124
-6.50778
-7.71108
-8.94588
-10.2001
-11.4676
-12.742
-14.0174
-15.2736
-16.4819
-17.61
-18.6822
-19.6459
-20.4667
-21.2326
-22.0076
-22.8168
-23.6987
-24.7698
-26.1107
-27.6659
-29.2773
-30.8252
-32.247
-33.5326
-34.631
-35.4784
-35.9743
-36.0474
-35.5957
-34.6095
-33.1331
3.14019
2.22415
1.36905
0.550155
-0.262083
-1.08244
-1.9245
-2.79571
-3.7037
-4.64812
-5.63057
-6.64848
-7.70259
-8.78487
-9.88953
-11.0082
-12.1392
-13.2812
-14.4373
-15.6024
-16.774
-17.9025
-18.9579
-19.977
-20.9965
-22.0364
-23.1196
-24.2856
-25.5511
-26.9107
-28.3392
-29.8203
-31.3024
-32.7238
-33.9646
-34.9105
-35.4342
-35.4784
-34.9519
-33.8302
-32.1662
2.68692
1.86115
1.09243
0.360198
-0.360274
-1.08152
-1.81498
-2.56726
-3.34638
-4.15305
-4.98935
-5.85495
-6.75296
-7.67994
-8.63363
-9.60782
-10.5992
-11.6039
-12.6228
-13.6586
-14.7163
-15.7683
-16.7934
-17.7998
-18.8012
-19.8217
-20.8849
-22.0075
-23.1858
-24.411
-25.6612
-26.914
-28.1184
-29.2254
-30.1491
-30.811
-31.113
-31.0086
-30.4233
-29.3164
-27.7379
2.30223
1.55165
0.8544
0.19268
-0.454358
-1.09755
-1.74664
-2.40766
-3.0878
-3.78888
-4.51257
-5.25905
-6.03161
-6.82919
-7.65143
-8.49518
-9.35828
-10.2372
-11.129
-12.0312
-12.9423
-13.832
-14.681
-15.5018
-16.3036
-17.0989
-17.8943
-18.6945
-19.4963
-20.2953
-21.0758
-21.8185
-22.4854
-23.0398
-23.4293
-23.6124
-23.5396
-23.191
-22.5385
-21.587
-20.3742
1.97978
1.29323
0.656978
0.0541453
-0.531968
-1.11154
-1.6924
-2.2804
-2.88115
-3.49763
-4.13103
-4.7816
-5.45188
-6.14189
-6.85174
-7.57972
-8.32423
-9.08298
-9.85362
-10.6337
-11.4205
-12.1846
-12.9038
-13.5828
-14.222
-14.8248
-15.3914
-15.9223
-16.4124
-16.8574
-17.2446
-17.563
-17.7939
-17.9225
-17.9286
-17.8013
-17.5281
-17.105
-16.5302
-15.8181
-14.9745
1.70777
1.07844
0.494305
-0.0570528
-0.591873
-1.11709
-1.64139
-2.16829
-2.70407
-3.25006
-3.80906
-4.37995
-4.96554
-5.56501
-6.17945
-6.80704
-7.4469
-8.09667
-8.7541
-9.41684
-10.0813
-10.7231
-11.322
-11.8795
-12.3914
-12.8582
-13.2761
-13.6446
-13.9576
-14.2132
-14.4033
-14.5242
-14.5676
-14.5299
-14.4052
-14.1932
-13.8927
-13.5041
-13.0319
-12.4858
-11.8712
1.4795
0.899709
0.362776
-0.144434
-0.633476
-1.1126
-1.58741
-2.06306
-2.54291
-3.02998
-3.52525
-4.02946
-4.54286
-5.06605
-5.59857
-6.13988
-6.68843
-7.24223
-7.79892
-8.35519
-8.90791
-9.43505
-9.92181
-10.3665
-10.7672
-11.121
-11.4272
-11.6822
-11.885
-12.0314
-12.1207
-12.1494
-12.1173
-12.0224
-11.8661
-11.6491
-11.3747
-11.045
-10.6668
-10.2472
-9.79384
1.28645
0.752082
0.256704
-0.210424
-0.659565
-1.09743
-1.52954
-1.96005
-2.3921
-2.82797
-3.26874
-3.71503
-4.16688
-4.62424
-5.08665
-5.55334
-6.02299
-6.49346
-6.96247
-7.42654
-7.88246
-8.31162
-8.70251
-9.05315
-9.36193
-9.6263
-9.84625
-10.0194
-10.1459
-10.2241
-10.2546
-10.2371
-10.1726
-10.0623
-9.90822
-9.71347
-9.48116
-9.21483
-8.9193
-8.60086
-8.2641
1.12446
0.630056
0.172831
-0.258791
-0.671705
-1.07323
-1.46714
-1.8582
-2.24806
-2.63951
-3.03261
-3.42875
-3.82712
-4.22783
-4.62975
-5.03237
-5.43413
-5.83315
-6.2271
-6.61266
-6.98682
-7.33411
-7.64599
-7.92068
-8.15714
-8.35355
-8.5105
-8.62688
-8.70355
-8.74053
-8.73905
-8.70053
-8.62648
-8.51942
-8.38123
-8.21593
-8.02551
-7.81394
-7.58407
-7.34083
-7.08681
0.9873
0.530446
0.106979
-0.291843
-0.672742
-1.04105
-1.4014
-1.75688
-2.10993
-2.46187
-2.81361
-3.1655
-3.51758
-3.86893
-4.21887
-4.56634
-4.91006
-5.24826
-5.5786
-5.89842
-6.20442
-6.48484
-6.73257
-6.94746
-7.12787
-7.27391
-7.38553
-7.46346
-7.50834
-7.52143
-7.50431
-7.45862
-7.38673
-7.29027
-7.17247
-7.03518
-6.88191
-6.71366
-6.53474
-6.34636
-6.15294
0.872478
0.448797
0.0567028
-0.312717
-0.664172
-1.0029
-1.33273
-1.65672
-1.97669
-2.29393
-2.609
-2.92221
-3.23358
-3.5422
-3.84714
-4.14736
-4.44161
-4.72831
-5.00538
-5.27048
-5.52082
-5.74696
-5.944
-6.11202
-6.25019
-6.35885
-6.43869
-6.49062
-6.51585
-6.51567
-6.49208
-6.44654
-6.38149
-6.29834
-6.19997
-6.08778
-5.96467
-5.83128
-5.69106
-5.54451
-5.39535
0.77558
0.383156
0.0189846
-0.323158
-0.648226
-0.959845
-1.26246
-1.55792
-1.84858
-2.13479
-2.41763
-2.6967
-2.97256
-3.24385
-3.51004
-3.76966
-4.02195
-4.26517
-4.4979
-4.71784
-4.923
-5.10564
-5.2628
-5.39458
-5.50096
-5.58225
-5.63978
-5.67428
-5.68753
-5.68051
-5.65542
-5.61335
-5.55679
-5.48668
-5.40564
-5.31454
-5.21588
-5.1099
-4.99946
-4.88453
-4.76836
0.694964
0.330068
-0.00769226
-0.325488
-0.626073
-0.913507
-1.19112
-1.4613
-1.72537
-1.98428
-2.23827
-2.48757
-2.73203
-2.97107
-3.20357
-3.42865
-3.64518
-3.85206
-4.04782
-4.23086
-4.39935
-4.54753
-4.67336
-4.77748
-4.85985
-4.92142
-4.96312
-4.98644
-4.99237
-4.98267
-4.95844
-4.92164
-4.87336
-4.81547
-4.74894
-4.67565
-4.59631
-4.51232
-4.42463
-4.33437
-4.24287
0.627346
0.288569
-0.0259209
-0.32096
-0.599481
-0.864645
-1.11986
-1.36699
-1.60739
-1.84172
-2.07029
-2.29316
-2.51024
-2.72104
-2.92458
-3.12
-3.30634
-3.48268
-3.64785
-3.80065
-3.93965
-4.06042
-4.16182
-4.24471
-4.30919
-4.3564
-4.38724
-4.40322
-4.40522
-4.39488
-4.37313
-4.34172
-4.30147
-4.25396
-4.19992
-4.14088
-4.07734
-4.01042
-3.9408
-3.86932
-3.7971
0.57155
0.255715
-0.0365693
-0.311311
-0.569324
-0.81446
-1.04913
-1.27562
-1.49456
-1.70705
-1.91287
-2.11252
-2.30547
-2.49176
-2.67017
-2.84031
-3.00099
-3.15185
-3.29165
-3.41983
-3.53501
-3.63417
-3.71648
-3.78324
-3.83435
-3.87129
-3.89462
-3.90605
-3.90609
-3.89648
-3.87776
-3.85158
-3.81843
-3.7798
-3.73609
-3.6887
-3.6378
-3.58447
-3.52905
-3.47234
-3.41513
0.525199
0.231273
-0.0417086
-0.29717
-0.536847
-0.763423
-0.979694
-1.18724
-1.38711
-1.57979
-1.76559
-1.94448
-2.11645
-2.28113
-2.43801
-2.58628
-2.72543
-2.85473
-2.97371
-3.08153
-3.17776
-3.25954
-3.32722
-3.38136
-3.42272
-3.45189
-3.47033
-3.47868
-3.47827
-3.46969
-3.45432
-3.43266
-3.40596
-3.37458
-3.33973
-3.30161
-3.26128
-3.21863
-3.1749
-3.12973
-3.08478
0.487556
0.212781
-0.0415835
-0.280058
-0.502598
-0.712414
-0.911757
-1.10228
-1.28476
-1.45978
-1.62755
-1.78814
-1.94153
-2.08745
-2.22552
-2.35512
-2.47585
-2.58713
-2.68873
-2.78007
-2.86086
-2.92897
-2.98506
-3.02967
-3.06359
-3.08739
-3.10237
-3.10905
-3.10867
-3.1017
-3.08934
-3.07195
-3.05064
-3.0256
-2.99791
-2.96762
-2.93568
-2.9019
-2.86736
-2.83166
-2.79625
0.456767
0.200265
-0.0380325
-0.260222
-0.467476
-0.66174
-0.845805
-1.0207
-1.18755
-1.34655
-1.49827
-1.64249
-1.77953
-1.9089
-2.03071
-2.14418
-2.24929
-2.34536
-2.43254
-2.51016
-2.57847
-2.63556
-2.68256
-2.71974
-2.74807
-2.76783
-2.78046
-2.78619
-2.78631
-2.78103
-2.7715
-2.75786
-2.74117
-2.72147
-2.69975
-2.6759
-2.65084
-2.62426
-2.59718
-2.56915
-2.54142
0.43235
0.191775
-0.0308833
-0.238924
-0.431642
-0.611941
-0.781857
-0.942693
-1.09518
-1.23987
-1.37699
-1.50675
-1.62912
-1.74413
-1.85156
-1.95124
-2.04279
-2.12615
-2.20105
-2.26758
-2.32554
-2.37401
-2.41359
-2.44522
-2.46907
-2.48617
-2.49701
-2.50256
-2.50314
-2.49969
-2.49244
-2.48226
-2.46928
-2.45426
-2.43726
-2.41899
-2.39936
-2.37899
-2.35777
-2.33635
-2.31472
0.412878
0.187488
-0.0217495
-0.216033
-0.39588
-0.563215
-0.720218
-0.86811
-1.00758
-1.1392
-1.26323
-1.37992
-1.48933
-1.59151
-1.6864
-1.77397
-1.85393
-1.92633
-1.99101
-2.04814
-2.09758
-2.13885
-2.17258
-2.19964
-2.22017
-2.23508
-2.24476
-2.25015
-2.25148
-2.24955
-2.24451
-2.23714
-2.22749
-2.21624
-2.20339
-2.18957
-2.17465
-2.1592
-2.14305
-2.12688
-2.11045
0.398014
0.185799
-0.0103579
-0.192752
-0.360431
-0.515859
-0.66102
-0.797002
-0.924563
-1.04424
-1.15638
-1.26126
-1.35903
-1.44983
-1.53366
-1.61058
-1.68047
-1.74343
-1.79935
-1.84854
-1.89096
-1.92631
-1.95529
-1.97868
-1.99656
-2.00979
-2.01872
-2.02413
-2.02618
-2.02558
-2.02245
-2.01744
-2.01058
-2.00247
-1.99307
-1.98294
-1.97191
-1.96054
-1.94856
-1.93673
-1.92456
0.386612
0.186893
0.0018933
-0.168959
-0.325675
-0.470203
-0.604329
-0.729363
-0.845918
-0.954645
-1.05588
-1.15005
-1.23729
-1.31786
-1.39178
-1.4593
-1.52034
-1.5751
-1.62351
-1.66596
-1.70242
-1.73283
-1.75786
-1.77824
-1.79401
-1.8059
-1.8142
-1.8196
-1.82225
-1.82275
-1.82117
-1.81812
-1.81357
-1.80806
-1.80148
-1.79439
-1.78658
-1.77856
-1.77001
-1.76177
-1.75313
0.378422
0.18944
0.0152601
-0.145531
-0.29201
-0.426259
-0.550277
-0.665088
-0.771484
-0.870054
-0.961297
-1.04558
-1.12324
-1.19447
-1.25954
-1.3186
-1.37182
-1.41927
-1.46117
-1.49766
-1.52907
-1.55516
-1.5769
-1.59457
-1.60855
-1.61914
-1.62694
-1.6322
-1.63541
-1.63668
-1.63651
-1.63494
-1.63243
-1.62891
-1.62486
-1.62013
-1.61518
-1.60979
-1.60438
-1.59897
-1.59356
0.372532
0.193607
0.0286293
-0.122504
-0.259611
-0.384513
-0.498969
-0.604212
-0.701051
-0.790157
-0.872082
-0.947249
-1.01605
-1.07877
-1.13569
-1.18709
-1.23323
-1.2742
-1.31022
-1.3415
-1.36835
-1.39061
-1.40929
-1.42462
-1.43689
-1.44637
-1.45359
-1.45875
-1.46226
-1.46422
-1.46505
-1.46479
-1.46381
-1.46205
-1.45992
-1.45728
-1.45452
-1.45145
-1.44841
-1.44549
-1.44248
0.368782
0.198381
0.0422429
-0.10044
-0.228865
-0.344968
-0.450574
-0.546811
-0.634628
-0.714745
-0.787861
-0.854455
-0.914992
-0.969792
-1.0192
-1.06356
-1.10317
-1.13824
-1.169
-1.19564
-1.21848
-1.2375
-1.25356
-1.2669
-1.2777
-1.28624
-1.29293
-1.29797
-1.30169
-1.3042
-1.30582
-1.30657
-1.3068
-1.30645
-1.30585
-1.30488
-1.30386
-1.30265
-1.3015
-1.30058
-1.29951
0.366536
0.203927
0.0552628
-0.0793395
-0.199742
-0.30767
-0.404931
-0.492743
-0.572047
-0.643726
-0.708401
-0.766819
-0.819434
-0.866817
-0.90919
-0.947015
-0.98048
-1.00993
-1.03551
-1.05758
-1.07633
-1.09193
-1.10514
-1.1162
-1.12524
-1.13252
-1.13836
-1.14295
-1.14655
-1.14925
-1.15131
-1.15275
-1.15386
-1.15458
-1.15519
-1.15558
-1.15604
-1.15641
-1.1569
-1.15773
-1.15837
0.365617
0.209367
0.0675876
-0.0600106
-0.172885
-0.27297
-0.362066
-0.441641
-0.512787
-0.576422
-0.633269
-0.683935
-0.729029
-0.769101
-0.804727
-0.836391
-0.864512
-0.889238
-0.910787
-0.929289
-0.945038
-0.958119
-0.969328
-0.978776
-0.986616
-0.99304
-0.998331
-1.00267
-1.00621
-1.0091
-1.01145
-1.01342
-1.01507
-1.01657
-1.01788
-1.01924
-1.02052
-1.022
-1.02337
-1.0254
-1.02692
0.364923
0.214205
0.078181
-0.0430277
-0.149228
-0.242066
-0.323386
-0.394667
-0.457318
-0.512567
-0.56145
-0.604695
-0.642836
-0.676157
-0.705011
-0.729766
-0.751055
-0.769294
-0.784937
-0.798166
-0.809337
-0.818488
-0.82639
-0.833105
-0.838793
-0.843547
-0.847618
-0.851109
-0.854161
-0.856859
-0.859284
-0.86156
-0.863712
-0.86587
-0.867996
-0.870264
-0.872575
-0.875152
-0.877703
-0.880954
-0.883734
0.36361
0.217396
0.0868938
-0.0282085
-0.128038
-0.214325
-0.288842
-0.352921
-0.407815
-0.454705
-0.494842
-0.529446
-0.559763
-0.586687
-0.610871
-0.632401
-0.651355
-0.66759
-0.681365
-0.692802
-0.702324
-0.71003
-0.716664
-0.722232
-0.726945
-0.73086
-0.734259
-0.737184
-0.739799
-0.742142
-0.744328
-0.746405
-0.74843
-0.750478
-0.75256
-0.754775
-0.757078
-0.759633
-0.762219
-0.765477
-0.768271
0.362921
0.220005
0.0943027
-0.0146211
-0.107234
-0.185924
-0.252911
-0.310076
-0.358772
-0.399952
-0.434235
-0.461983
-0.483666
-0.499871
-0.511717
-0.5205
-0.527624
-0.533607
-0.538737
-0.542865
-0.54623
-0.548727
-0.551026
-0.553005
-0.554836
-0.556431
-0.558046
-0.559618
-0.56133
-0.563102
-0.565065
-0.567172
-0.569506
-0.572039
-0.5748
-0.577806
-0.581042
-0.584583
-0.588256
-0.592554
-0.596544
0.366682
0.225126
0.101278
-0.00426517
-0.0916397
-0.162659
-0.219975
-0.266156
-0.303798
-0.335263
-0.362509
-0.38704
-0.409721
-0.430681
-0.449416
-0.46483
-0.476524
-0.484913
-0.491013
-0.495329
-0.498442
-0.500526
-0.502188
-0.503383
-0.504375
-0.505114
-0.505889
-0.50661
-0.507496
-0.508426
-0.509596
-0.510879
-0.512444
-0.514164
-0.516189
-0.518399
-0.520914
-0.523667
-0.526645
-0.530174
-0.533408
0.371538
0.229861
0.10526
-0.00178561
-0.0906032
-0.161917
-0.217054
-0.257576
-0.285289
-0.301933
-0.30953
-0.309799
-0.304898
-0.296569
-0.287154
-0.278309
-0.27094
-0.26444
-0.258628
-0.252968
-0.247762
-0.242677
-0.238304
-0.234388
-0.231121
-0.228296
-0.226112
-0.224417
-0.223312
-0.2227
-0.222609
-0.222992
-0.223806
-0.225061
-0.226655
-0.22865
-0.230904
-0.233532
-0.23629
-0.239537
-0.242604
0.35558
0.214619
0.0957509
-0.00374826
-0.0860571
-0.153609
-0.208647
-0.253064
-0.288428
-0.316126
-0.337309
-0.353091
-0.364316
-0.371881
-0.376322
-0.378333
-0.378772
-0.37733
-0.374407
-0.371055
-0.367549
-0.364419
-0.361322
-0.358507
-0.355813
-0.353622
-0.351706
-0.350417
-0.349485
-0.349278
-0.349497
-0.35052
-0.352014
-0.354355
-0.35719
-0.360893
-0.365083
-0.370142
-0.375607
-0.382112
-0.388598
-21.5782
-22.7233
-24.0999
-25.6354
-26.1114
-25.2238
-22.8892
-19.7759
-16.1564
-12.5669
-9.6952
-7.67282
-5.77959
-3.96703
-2.40567
-1.10564
-0.164313
0.560312
1.01826
1.36194
1.54024
1.65582
1.68398
1.66743
1.6065
1.52761
1.4361
1.34715
1.26693
1.19556
1.14066
1.08274
1.04287
1.00521
0.97377
0.953715
0.934672
0.925878
0.919376
0.919978
0.91889
0.925623
0.934808
0.943079
0.958883
0.975309
0.99209
1.01224
1.03475
1.05431
1.07185
1.09419
1.10371
1.11094
1.11026
1.09473
1.09373
1.05666
1.03272
0.98333
0.942146
0.880638
0.825796
0.762054
0.692327
0.622896
0.552653
0.476297
0.407995
0.330155
0.266963
0.172713
0.1427
-0.0145065
-22.5209
-23.5118
-24.8541
-26.3175
-26.8413
-25.9664
-23.5182
-20.2708
-16.543
-12.8365
-10.0011
-8.19365
-6.47595
-4.70107
-3.07715
-1.68055
-0.632025
0.184187
0.72521
1.12964
1.36046
1.51489
1.57513
1.58472
1.54673
1.48715
1.40772
1.32351
1.2437
1.17172
1.11565
1.05786
1.0172
0.979264
0.948192
0.928106
0.909523
0.901264
0.895502
0.896543
0.896662
0.904439
0.914794
0.92453
0.941784
0.959715
0.978142
1.00042
1.02523
1.04696
1.06759
1.09248
1.10502
1.11491
1.11654
1.10511
1.10502
1.07068
1.04766
0.999806
0.958842
0.898213
0.84305
0.779033
0.708734
0.638766
0.567196
0.490146
0.420628
0.341869
0.276836
0.181627
0.149607
-0.0101115
-23.2542
-24.35
-25.7154
-27.1677
-27.7002
-26.8714
-24.3299
-20.889
-17.0016
-13.1805
-10.3891
-8.74455
-7.14715
-5.38846
-3.70681
-2.22569
-1.08399
-0.187162
0.427152
0.886818
1.1661
1.35751
1.44883
1.48404
1.4683
1.42901
1.36724
1.29475
1.21975
1.14813
1.09106
1.03336
0.992003
0.953942
0.923091
0.902885
0.884784
0.876993
0.871924
0.873345
0.874623
0.883485
0.894904
0.906168
0.924588
0.94407
0.964252
0.988252
1.01512
1.03916
1.06249
1.08986
1.10529
1.11778
1.12204
1.11402
1.11501
1.0834
1.06131
1.01503
0.974327
0.914672
0.859199
0.794918
0.724234
0.653571
0.581072
0.503273
0.432606
0.352883
0.286278
0.19009
0.156078
-0.00598239
-23.966
-25.1709
-26.6341
-28.1657
-28.7562
-27.9412
-25.3568
-21.6694
-17.5423
-13.583
-10.7847
-9.19308
-7.64148
-5.88792
-4.1725
-2.64266
-1.44081
-0.491477
0.174772
0.673872
0.990762
1.21091
1.32784
1.38395
1.3862
1.36165
1.31453
1.25607
1.19182
1.12481
1.06787
1.01018
0.968088
0.92989
0.89911
0.878624
0.860946
0.853526
0.849033
0.850707
0.853084
0.862971
0.875313
0.888173
0.907422
0.92843
0.95035
0.975688
1.00436
1.03075
1.05627
1.08601
1.10409
1.11908
1.12613
1.12092
1.12312
1.09426
1.07312
1.02856
0.988185
0.929687
0.873915
0.809483
0.738652
0.667233
0.594199
0.515624
0.443917
0.363224
0.295269
0.19808
0.162089
-0.00219206
-24.6634
-25.962
-27.5576
-29.2149
-30.008
-29.2116
-26.6089
-22.6727
-18.2274
-14.0857
-11.2214
-9.58136
-8.01342
-6.25344
-4.52226
-2.96988
-1.73391
-0.753612
-0.0524118
0.473778
0.819355
1.06218
1.20093
1.27569
1.29458
1.28351
1.24842
1.20167
1.15045
1.09425
1.04209
0.985919
0.943565
0.905367
0.874609
0.853946
0.836853
0.82979
0.825835
0.827923
0.831417
0.842254
0.855651
0.869974
0.890257
0.912867
0.936451
0.963316
0.993876
1.0226
1.05021
1.08219
1.10284
1.1202
1.13
1.12723
1.13076
1.10444
1.08427
1.04127
1.0013
0.943788
0.887765
0.823242
0.752245
0.680152
0.606577
0.527279
0.454567
0.372943
0.303734
0.205608
0.167612
0.00129408
-25.3799
-26.7563
-28.4804
-30.2695
-31.3611
-30.7212
-28.0761
-23.911
-19.0822
-14.6834
-11.6791
-9.90193
-8.26668
-6.49399
-4.76348
-3.21338
-1.96687
-0.976148
-0.255957
0.285517
0.651404
0.910998
1.06816
1.15938
1.19413
1.19632
1.1732
1.13645
1.09566
1.05132
1.00927
0.959161
0.918431
0.880898
0.850012
0.829173
0.812743
0.805934
0.802393
0.804833
0.809426
0.821102
0.83547
0.851079
0.872503
0.896585
0.921709
0.950235
0.982727
1.01363
1.04333
1.07746
1.10062
1.12026
1.1327
1.13234
1.1372
1.11344
1.09424
1.05284
1.01333
0.956829
0.900622
0.83614
0.76503
0.692406
0.618281
0.538363
0.464694
0.382233
0.311761
0.212796
0.172746
0.00453579
-26.1244
-27.5605
-29.3853
-31.2925
-32.6841
-32.4062
-29.7825
-25.3918
-20.1466
-15.3822
-12.1271
-10.1275
-8.38439
-6.59822
-4.88821
-3.36658
-2.13445
-1.15453
-0.432087
0.111763
0.488214
0.757727
0.928686
1.03367
1.08271
1.09763
1.08634
1.06
1.02844
0.993606
0.962
0.922864
0.88875
0.854845
0.824688
0.803885
0.788196
0.781541
0.778465
0.781282
0.786905
0.799373
0.814601
0.831414
0.853945
0.879423
0.906068
0.936273
0.970643
1.00368
1.03556
1.07179
1.09751
1.11939
1.13441
1.13652
1.14273
1.12148
1.10324
1.06343
1.02439
0.968915
0.9126
0.848206
0.777007
0.703907
0.629244
0.548791
0.474212
0.390971
0.319293
0.219577
0.177432
0.00753858
-26.877
-28.3582
-30.2546
-32.2604
-33.8914
-34.0727
-31.6834
-27.0788
-21.4056
-16.1638
-12.5208
-10.2191
-8.33939
-6.54524
-4.87927
-3.41512
-2.22479
-1.27864
-0.57227
-0.0400434
0.336296
0.60781
0.787093
0.902117
0.96352
0.990055
0.99023
0.974515
0.952091
0.925735
0.901891
0.872981
0.848891
0.823763
0.798199
0.778613
0.763896
0.757269
0.754645
0.757867
0.764473
0.77761
0.793498
0.811513
0.834907
0.861566
0.889632
0.92127
0.957258
0.992273
1.02622
1.06442
1.09267
1.11669
1.13425
1.1388
1.14634
1.12767
1.11042
1.07236
1.03384
0.979579
0.923239
0.859049
0.787917
0.714419
0.639357
0.558471
0.483063
0.399138
0.326316
0.225909
0.181668
0.0102787
-27.6117
-29.1094
-31.0474
-33.1187
-34.9092
-35.4891
-33.5506
-28.8813
-22.7885
-17.0006
-12.834
-10.1561
-8.12217
-6.32994
-4.73389
-3.35573
-2.2353
-1.3452
-0.673916
-0.167191
0.197393
0.462608
0.643557
0.76408
0.834746
0.87145
0.882333
0.876988
0.863848
0.846202
0.829698
0.809094
0.793468
0.778879
0.763421
0.749801
0.738059
0.732083
0.730075
0.733864
0.74144
0.755254
0.771847
0.791079
0.815249
0.843042
0.872464
0.905432
0.942795
0.979745
1.01567
1.05568
1.08638
1.11254
1.13257
1.13961
1.14846
1.13238
1.11614
1.07986
1.04195
0.988965
0.932703
0.868778
0.797783
0.72398
0.648594
0.567368
0.491188
0.406644
0.332764
0.231773
0.185414
0.0127602
-28.3144
-29.765
-31.6825
-33.7715
-35.6342
-36.4529
-34.9876
-30.5149
-24.097
-17.7603
-12.9915
-9.88827
-7.69903
-5.93143
-4.4361
-3.17625
-2.15578
-1.34584
-0.729383
-0.262971
0.0778647
0.327871
0.503389
0.624017
0.700109
0.74463
0.765206
0.769636
0.765517
0.756373
0.747381
0.735051
0.726395
0.719781
0.714379
0.710971
0.707257
0.705217
0.704827
0.709455
0.717874
0.732317
0.749657
0.770058
0.794928
0.823749
0.854418
0.888562
0.927106
0.965835
1.00353
1.04515
1.0782
1.10634
1.12879
1.13818
1.1484
1.13487
1.11977
1.08532
1.04817
0.996603
0.940541
0.877023
0.806321
0.732361
0.656791
0.575355
0.498485
0.413443
0.338593
0.2371
0.188664
0.0149641
-28.9798
-30.2746
-32.0406
-34.0359
-35.8438
-36.6977
-35.5179
-31.4114
-24.9362
-18.1744
-12.855
-9.34292
-7.02786
-5.327
-3.97373
-2.86914
-1.98039
-1.27583
-0.734569
-0.323241
-0.0181209
0.207768
0.370329
0.485128
0.561838
0.610769
0.638653
0.651739
0.656114
0.655144
0.653407
0.649322
0.647951
0.648513
0.650733
0.656022
0.66252
0.669729
0.67554
0.683118
0.692738
0.707784
0.725971
0.747489
0.773076
0.802891
0.834755
0.870065
0.909708
0.950172
0.989584
1.03268
1.06801
1.09819
1.12295
1.13482
1.14635
1.13544
1.12151
1.08901
1.05274
1.00266
0.946937
0.883945
0.813632
0.739646
0.663978
0.582445
0.504977
0.419529
0.343796
0.241926
0.191409
0.0169159
-29.5954
-30.5498
-31.9211
-33.5633
-35.1523
-35.76
-34.5407
-30.7654
-24.6004
-17.7825
-12.1722
-8.40029
-6.04486
-4.47814
-3.32622
-2.42074
-1.70102
-1.12802
-0.683114
-0.341685
-0.0843758
0.108778
0.250813
0.35383
0.42596
0.475272
0.50724
0.526804
0.538429
0.545006
0.550247
0.553783
0.559556
0.567461
0.576937
0.58905
0.603139
0.6194
0.635246
0.650928
0.665283
0.681932
0.701032
0.723515
0.749813
0.780424
0.813362
0.849663
0.890303
0.932329
0.973329
1.01777
1.05525
1.08744
1.11434
1.12873
1.1415
1.13333
1.1206
1.09024
1.05498
1.00659
0.951352
0.889072
0.819338
0.745496
0.669894
0.588426
0.510484
0.424783
0.348278
0.246115
0.193616
0.0185856
-30.0675
-30.4448
-31.0704
-31.9112
-32.7933
-32.9795
-31.48
-27.7849
-22.1535
-15.8987
-10.5516
-6.88365
-4.67278
-3.34952
-2.47035
-1.82157
-1.30861
-0.897502
-0.570167
-0.313559
-0.115322
0.036565
0.151105
0.236397
0.298688
0.343734
0.375859
0.39855
0.415128
0.427638
0.438942
0.449191
0.461363
0.47593
0.492511
0.511497
0.532168
0.554932
0.578775
0.603844
0.627718
0.650806
0.673217
0.69715
0.724118
0.755378
0.789309
0.826519
0.868053
0.911509
0.954116
0.999769
1.03944
1.07369
1.10275
1.11976
1.13389
1.12856
1.11721
1.08913
1.05509
1.00848
0.953956
0.892547
0.82354
0.750031
0.674625
0.593362
0.515067
0.429226
0.352058
0.249758
0.195305
0.0200015
-30.3681
-29.9119
-29.4397
-29.0155
-28.5665
-27.7313
-25.7814
-22.2393
-17.3511
-12.1689
-7.76132
-4.70428
-2.91867
-1.96237
-1.42966
-1.08001
-0.810919
-0.585222
-0.394793
-0.23595
-0.106986
-0.00347661
0.0772205
0.139655
0.187095
0.223457
0.251502
0.273571
0.291865
0.307864
0.323477
0.339154
0.356807
0.377004
0.399664
0.424971
0.452219
0.481197
0.511181
0.542669
0.574639
0.606693
0.637257
0.666569
0.695814
0.727794
0.76244
0.800425
0.842755
0.887406
0.93153
0.978253
1.02002
1.05632
1.08747
1.10714
1.12269
1.12031
1.11047
1.08492
1.05226
1.00767
0.954093
0.893821
0.825749
0.752813
0.677813
0.596959
0.518463
0.432664
0.354987
0.252661
0.196422
0.0211255
-30.8018
-29.3314
-27.5691
-25.6361
-23.5436
-21.2099
-18.4271
-15.0124
-11.1227
-7.34033
-4.28817
-2.19105
-1.02351
-0.508958
-0.333271
-0.283215
-0.255695
-0.219499
-0.169486
-0.114591
-0.0590755
-0.00921552
0.0339716
0.069274
0.0981221
0.121687
0.141624
0.15919
0.175535
0.191771
0.209059
0.227937
0.249396
0.273824
0.301091
0.331265
0.363928
0.398728
0.434751
0.471761
0.50916
0.54722
0.585353
0.623038
0.659205
0.695064
0.731308
0.770028
0.812974
0.858769
0.90443
0.952219
0.996101
1.03458
1.06793
1.09043
1.10765
1.10837
1.10037
1.07756
1.04663
1.0042
0.951928
0.892994
0.826084
0.753973
0.679565
0.5993
0.520779
0.435174
0.357129
0.254959
0.197012
0.0219916
-31.0024
-28.6595
-25.8288
-22.6415
-19.2009
-15.6255
-12.0634
-8.69014
-5.64827
-3.1048
-1.21707
-0.00387024
0.607332
0.761653
0.661898
0.478132
0.301778
0.171509
0.0875593
0.0422594
0.0221284
0.0175457
0.0206048
0.0270911
0.0346926
0.0429235
0.0518045
0.0614501
0.0727128
0.0859428
0.102088
0.121533
0.1446
0.171386
0.201592
0.235054
0.271459
0.310519
0.351471
0.393691
0.436241
0.478873
0.521477
0.564561
0.607658
0.650662
0.692558
0.734357
0.778355
0.825002
0.872099
0.921039
0.967021
1.00777
1.04339
1.06879
1.08794
1.09181
1.08604
1.06613
1.03733
0.997272
0.946736
0.889375
0.823958
0.752981
0.67943
0.600013
0.521678
0.436494
0.358277
0.25641
0.196998
0.0225584
-29.6662
-26.9337
-23.6224
-19.8565
-15.8628
-11.8903
-8.22081
-5.10513
-2.66235
-0.906843
0.258209
0.929914
1.20949
1.2016
1.02906
0.801205
0.587632
0.415519
0.28689
0.194001
0.12743
0.0797252
0.0453675
0.0206247
0.00333811
-0.00783045
-0.0140218
-0.0153487
-0.0123685
-0.00478425
0.00778251
0.0253226
0.0477548
0.0747539
0.105952
0.140951
0.179386
0.220815
0.264576
0.310122
0.356666
0.40353
0.450056
0.496455
0.54293
0.59036
0.638383
0.686633
0.735126
0.78412
0.832869
0.882993
0.931133
0.974481
1.01266
1.04128
1.06279
1.07013
1.06707
1.05044
1.02421
0.98683
0.938492
0.883046
0.819454
0.749938
0.677506
0.599176
0.521272
0.436718
0.358514
0.257175
0.196453
0.0228538
-25.4957
-23.1513
-20.4631
-17.4627
-14.2668
-10.9962
-7.78536
-4.81803
-2.26907
-0.258256
1.17558
1.98864
2.21322
2.00975
1.60046
1.15974
0.784428
0.50354
0.310997
0.186819
0.109494
0.0609888