/*--------------------------------*- C++ -*----------------------------------*\
| =========                 |                                                 |
| \\      /  F ield         | OpenFOAM: The Open Source CFD Toolbox           |
|  \\    /   O peration     | Version:  2312                                  |
|   \\  /    A nd           | Website:  www.openfoam.com                      |
|    \\/     M anipulation  |                                                 |
\*---------------------------------------------------------------------------*/
FoamFile
{
    version     2.0;
    format      ascii;
    arch        "LSB;label=32;scalar=64";
    class       surfaceScalarField;
    location    "350";
    object      phi;
}
// * * * * * * * * * * * * * * * * * * * * * * * * * * * * * * * * * * * * * //

dimensions      [0 3 -1 0 0 0 0];

oriented        oriented;

internalField   nonuniform List<scalar> 
21876
(
0.00698672
0.00257424
-0.00956168
0.000575663
0.00641058
-0.00163599
0.00220948
-0.0016994
6.22924e-05
-0.00154982
-0.000150592
-0.00140699
-0.000143635
-0.00131561
-9.25199e-05
-0.00126063
-5.73366e-05
-0.00121815
-4.39734e-05
-0.00117805
-4.37458e-05
-0.0011449
-3.43233e-05
-0.00112643
-2.32461e-05
-0.00110925
-1.86155e-05
-0.00110509
-1.04535e-05
-0.00110615
-1.77857e-06
-0.00111763
6.35094e-06
-0.00114096
2.19026e-05
-0.0011796
3.33338e-05
-0.00123553
5.25752e-05
-0.00131437
7.14455e-05
-0.00142243
9.84707e-05
-0.00155701
0.000128508
-0.00172949
0.000171645
-0.00194129
0.000211212
-0.00218539
0.000240477
-0.00245303
0.00026469
-0.00273533
0.000279443
-0.00301719
0.000277649
-0.00327059
0.000252142
-0.00346386
0.00018827
-0.00355802
9.42247e-05
-0.00353269
-3.14171e-05
-0.00337751
-0.000153954
-0.00309295
-0.00029009
-0.00265979
-0.000430918
-0.00208341
-0.000581764
-0.00136451
-0.000716095
-0.000464954
-0.000902919
0.000573846
-0.00103554
0.00127302
-0.000713446
-0.00224955
0.00350735
0.0122535
0.00132339
-0.0110031
0.00912381
0.00953977
0.0025003
0.00883173
-0.00129644
0.0038567
-0.00194007
0.000489607
-0.00184432
-0.000243465
-0.00173561
-0.00020523
-0.00168808
-0.000108912
-0.00166119
-7.44774e-05
-0.00163576
-7.36755e-05
-0.00161612
-5.8183e-05
-0.00161192
-3.35126e-05
-0.0016114
-2.45319e-05
-0.00162539
-4.49616e-06
-0.00165006
1.65679e-05
-0.00168955
3.7547e-05
-0.00174577
7.09096e-05
-0.00182379
0.000100944
-0.00192897
0.000147398
-0.00206961
0.000199497
-0.00225625
0.000274786
-0.00247882
0.00034262
-0.00274351
0.000429964
-0.00304479
0.000504341
-0.00336924
0.000554755
-0.00369767
0.000583279
-0.00400723
0.000579284
-0.00427272
0.000533236
-0.00446978
0.000441133
-0.00458588
0.000295385
-0.00460766
0.000110052
-0.00452682
-0.000119857
-0.00431211
-0.000371996
-0.00394032
-0.0006667
-0.00339456
-0.000977754
-0.00267424
-0.00130503
-0.00178219
-0.00160865
-0.000718227
-0.00196894
0.000519406
-0.00227526
0.00170512
-0.00190694
-0.00386231
0.00330841
0.0144543
-0.00106819
-0.012063
0.015438
0.00855602
0.0112601
0.0130095
0.00420552
0.0109111
-0.000606686
0.0053011
-0.001994
0.00114274
-0.00206994
-0.000130252
-0.00204201
-0.000137318
-0.00204721
-6.95587e-05
-0.0020475
-7.4071e-05
-0.00204681
-5.89744e-05
-0.0020639
-1.77826e-05
-0.00208598
-2.23904e-06
-0.00212398
3.21159e-05
-0.00217588
6.84274e-05
-0.00224461
0.000105344
-0.00233423
0.000161459
-0.00244995
0.000216713
-0.00259885
0.0002957
-0.00278962
0.000388818
-0.00303168
0.000514958
-0.0033069
0.000617321
-0.00361797
0.000743348
-0.0039568
0.000846216
-0.00430933
0.000908277
-0.00465752
0.000932921
-0.00498309
0.000905815
-0.00526793
0.000818655
-0.00549217
0.000666747
-0.00563792
0.000440926
-0.0056782
0.000151873
-0.0055879
-0.000211046
-0.00533399
-0.000624303
-0.00489464
-0.00110702
-0.00424968
-0.00162123
-0.00339552
-0.00216003
-0.0023363
-0.00266641
-0.0010781
-0.00322684
0.000372216
-0.00372364
0.00187537
-0.00341237
-0.00523315
0.00324363
0.0164063
-0.00377749
-0.0136971
0.0190116
0.00595086
0.0190279
0.0129932
0.0142214
0.0157176
0.00649051
0.0130313
0.000456194
0.00717573
-0.00188111
0.00220469
-0.00222133
0.000200116
-0.00233538
4.10008e-05
-0.00240364
-9.14051e-06
-0.00244186
-2.40693e-05
-0.00249286
2.98605e-05
-0.0025453
4.63797e-05
-0.00261243
9.49092e-05
-0.00269649
0.000147774
-0.00279859
0.000202087
-0.0029252
0.00028242
-0.00308051
0.00036442
-0.00327233
0.000479291
-0.00350797
0.000615474
-0.00379551
0.000794799
-0.00411154
0.000927251
-0.00445979
0.00108635
-0.00483524
0.00121514
-0.00522762
0.00129302
-0.00562239
0.0013199
-0.00600309
0.00127917
-0.00634965
0.00115791
-0.00663574
0.000946764
-0.00683344
0.000632434
-0.00690697
0.000220922
-0.00682404
-0.000298798
-0.00654844
-0.000902509
-0.00605328
-0.00160514
-0.00531458
-0.00236103
-0.00432557
-0.00315089
-0.00309067
-0.00390196
-0.0016163
-0.00470283
6.07677e-05
-0.00540224
0.0018737
-0.00522966
-0.0066646
0.00330085
0.018513
-0.006618
-0.0156716
0.0213267
0.0031371
0.0238468
0.0104731
0.0235083
0.0160556
0.0183696
0.0181696
0.00992697
0.0156179
0.00233817
0.00979274
-0.00138129
0.003918
-0.00227111
0.000929305
-0.00258369
0.000302031
-0.00272059
0.000112146
-0.00284363
0.000151822
-0.00294884
0.000151082
-0.00305661
0.000201711
-0.00318021
0.000270478
-0.00331941
0.000340039
-0.0034851
0.000447552
-0.00368003
0.000557827
-0.00391368
0.000711224
-0.00419292
0.00089343
-0.00452755
0.00112843
-0.00489173
0.00129211
-0.00529224
0.00148905
-0.00572737
0.00165238
-0.00618956
0.0017565
-0.0066649
0.00179617
-0.00713477
0.00174949
-0.00757379
0.00159727
-0.00794871
0.00132194
-0.00822336
0.000907141
-0.00835511
0.000352863
-0.00830426
-0.000349676
-0.00802871
-0.00117775
-0.00749408
-0.00213971
-0.0066715
-0.00318321
-0.0055504
-0.00427182
-0.00413493
-0.00531686
-0.00242849
-0.00640857
-0.000508551
-0.00732145
0.00162913
-0.00736767
-0.00834626
0.00331032
0.0210908
-0.00977328
-0.0179369
0.0239621
0.000266406
0.0269284
0.00750646
0.0294523
0.0135323
0.0291459
0.0184763
0.0240372
0.0207265
0.0150116
0.0188182
0.00564493
0.0132841
-6.7357e-05
0.00664068
-0.00206612
0.00229903
-0.00266368
0.000707771
-0.00298294
0.000468117
-0.00320586
0.000370881
-0.0033894
0.000381843
-0.00357476
0.000452353
-0.00376304
0.000524305
-0.00397553
0.000655111
-0.00421393
0.000790118
-0.00449216
0.000982718
-0.00481875
0.0012134
-0.00520881
0.00151262
-0.00563597
0.00171469
-0.00611064
0.00195933
-0.00663327
0.00216983
-0.00719696
0.00231429
-0.00778637
0.00237946
-0.00837936
0.00233679
-0.00894528
0.00215785
-0.00944451
0.00181641
-0.00983316
0.00129173
-0.0100612
0.000577264
-0.0100803
-0.000333396
-0.00984038
-0.00142021
-0.00929776
-0.00268389
-0.0084168
-0.00406584
-0.00718179
-0.00550772
-0.00559561
-0.00690444
-0.00365822
-0.00834674
-0.00148042
-0.00950127
0.000995199
-0.00984508
-0.0104077
0.0030536
0.0241833
-0.0133584
-0.0205968
0.0274329
-0.00298339
0.0303424
0.00459861
0.033361
0.0105141
0.0359832
0.0158539
0.0360623
0.0206472
0.0314448
0.0234351
0.0221914
0.0225371
0.0111622
0.0176689
0.00277146
0.0106886
-0.00122591
0.00470229
-0.00249029
0.00172992
-0.00309361
0.000971727
-0.00346392
0.000750437
-0.00377856
0.000764675
-0.00405257
0.000795678
-0.00433471
0.00093382
-0.00463054
0.00108211
-0.00496346
0.00131211
-0.00534557
0.00159286
-0.00580084
0.00196656
-0.00630448
0.00221809
-0.00687239
0.00252715
-0.00750772
0.00280501
-0.00820398
0.00300982
-0.00894331
0.00311752
-0.0096993
0.00309129
-0.0104362
0.00289302
-0.0111083
0.00248698
-0.0116639
0.00184562
-0.0120444
0.000956671
-0.0121923
-0.000186932
-0.0120471
-0.00156611
-0.0115546
-0.00317753
-0.010669
-0.00495171
-0.00936732
-0.00681031
-0.00764823
-0.00862365
-0.00550904
-0.0104867
-0.00307448
-0.0119359
-0.000272187
-0.0126487
-0.0129127
0.00223233
0.0278633
-0.0174722
-0.0237502
0.0316241
-0.00674259
0.0348617
0.00136272
0.037769
0.00760616
0.0407641
0.0128588
0.0435479
0.0178621
0.0442925
0.0226905
0.0406557
0.0261732
0.0317899
0.0265352
0.0196718
0.0228059
0.00831144
0.0160632
0.00118971
0.00885129
-0.00176093
0.00392077
-0.00286049
0.00184739
-0.00353949
0.00144038
-0.00401453
0.00126598
-0.0044389
0.00135335
-0.00483245
0.00147011
-0.00524407
0.00171822
-0.00569577
0.00203989
-0.00622677
0.00249346
-0.00681706
0.0028049
-0.00749127
0.00319802
-0.00825756
0.00356726
-0.00911225
0.00386008
-0.0100369
0.00403763
-0.0110015
0.00405183
-0.0119645
0.00385195
-0.0128735
0.00339268
-0.0136689
0.00263776
-0.0142833
0.00156869
-0.014649
0.000176154
-0.0146937
-0.00152306
-0.0143507
-0.00352242
-0.0135611
-0.00574235
-0.0122892
-0.00808359
-0.0105251
-0.0103883
-0.00826012
-0.0127527
-0.00561113
-0.0145854
-0.00253858
-0.015722
-0.0158835
0.000431958
0.0322943
-0.02229
-0.0274768
0.0366279
-0.0110724
0.0403945
-0.0024054
0.0436181
0.00438401
0.046456
0.0100184
0.0493522
0.0149665
0.0522735
0.0197685
0.0538142
0.0246341
0.0515907
0.0287585
0.0439835
0.0304148
0.0317309
0.0283164
0.0178422
0.0227391
0.00666555
0.0150956
0.000467649
0.00804177
-0.0020121
0.00391459
-0.00317386
0.0024224
-0.00398003
0.00215304
-0.00459761
0.00208221
-0.0051631
0.00227926
-0.00572104
0.00259451
-0.00634495
0.00311484
-0.00703039
0.00348775
-0.00781881
0.00398324
-0.00872687
0.00447185
-0.00975747
0.00488676
-0.0108952
0.00517167
-0.0121106
0.00526309
-0.0133586
0.00509656
-0.0145811
0.00461144
-0.0157102
0.00376438
-0.0166704
0.00252567
-0.0173819
0.000885828
-0.0177615
-0.00114626
-0.0177279
-0.00355732
-0.0172055
-0.00626708
-0.016139
-0.00915095
-0.0145023
-0.0120272
-0.0122714
-0.0149844
-0.0095385
-0.0173202
-0.00631078
-0.0189502
-0.0192711
-0.00292433
0.0376027
-0.0280045
-0.0318853
0.0426619
-0.0161329
0.0470371
-0.00677823
0.050791
0.000627278
0.0539592
0.00685074
0.0566878
0.0122368
0.059413
0.017045
0.0623599
0.0216872
0.0646338
0.0264862
0.0640904
0.0309591
0.0585665
0.0338396
0.0473657
0.0339393
0.0322892
0.0301705
0.0171693
0.0231593
0.00615592
0.0149268
0.000391197
0.0081831
-0.0020334
0.00457567
-0.00335954
0.00340555
-0.00433243
0.00324782
-0.00512383
0.00338251
-0.00590101
0.00388862
-0.00669864
0.00428196
-0.00760355
0.00488463
-0.00865486
0.00551925
-0.00986896
0.00609593
-0.0112376
0.00653707
-0.0127357
0.00675918
-0.0143206
0.00667845
-0.0159313
0.00622119
-0.0174974
0.00532763
-0.0189362
0.00396447
-0.0201611
0.00210774
-0.021076
-0.00023068
-0.0215881
-0.0030482
-0.0215981
-0.00625606
-0.0210279
-0.00972402
-0.0198198
-0.0132342
-0.0179239
-0.0168829
-0.0153824
-0.0198604
-0.012223
-0.0221116
-0.0228917
-0.00860098
0.0439415
-0.0348486
-0.0370969
0.0499285
-0.0221192
0.05505
-0.0119005
0.0594192
-0.00374277
0.0631223
0.00314666
0.0662124
0.00914652
0.0688142
0.0144433
0.0713144
0.0191872
0.0741213
0.0236798
0.0768741
0.0282057
0.0779598
0.0327533
0.0750224
0.0368761
0.0662621
0.0389292
0.0518558
0.0375671
0.0343922
0.0323898
0.0181375
0.0244393
0.00683546
0.0158777
0.000947856
0.00928876
-0.00169462
0.00588614
-0.00322549
0.00490831
-0.00439591
0.00505389
-0.00538597
0.00526681
-0.00642464
0.00591786
-0.00760924
0.00669627
-0.00899144
0.00747454
-0.0105856
0.00812754
-0.0123792
0.00855048
-0.0143351
0.00863447
-0.0163984
0.00828232
-0.0184958
0.00742666
-0.0205506
0.00601663
-0.0224685
0.00402858
-0.0241585
0.001456
-0.0255141
-0.00168873
-0.0264245
-0.00534922
-0.0267707
-0.00937341
-0.026464
-0.0135444
-0.0254016
-0.0179404
-0.0235568
-0.0217082
-0.0209017
-0.0247612
-0.0263457
-0.0174499
0.0515033
-0.043098
-0.043254
0.0586542
-0.0292702
0.0647217
-0.0179692
0.069848
-0.00887019
0.0741582
-0.00116506
0.0777757
0.00552794
0.0807733
0.0114447
0.0832493
0.0167101
0.0855095
0.0214189
0.0880189
0.0256949
0.090888
0.0298838
0.0932183
0.0345441
0.0929386
0.0392106
0.0876545
0.0428517
0.0760145
0.0440315
0.0588177
0.0416374
0.0391113
0.0355822
0.02134
0.0270591
0.00901727
0.018206
0.00243371
0.0114889
-0.000596253
0.0080816
-0.00222559
0.00689213
-0.00353749
0.00722339
-0.00485701
0.00801315
-0.00636712
0.00897739
-0.00813493
0.00989392
-0.010183
0.0105962
-0.0124963
0.0109469
-0.01503
0.0108155
-0.0177242
0.0101202
-0.0205052
0.00879845
-0.0232937
0.00681561
-0.0259927
0.00415715
-0.0285171
0.000834016
-0.0307311
-0.00313191
-0.0325099
-0.00759662
-0.0337079
-0.0123419
-0.0341998
-0.0174505
-0.0338244
-0.0220776
-0.0324662
-0.026122
-0.0288267
-0.029978
0.0605142
-0.0530856
-0.0505275
0.069116
-0.0378723
0.076371
-0.0252257
0.0824498
-0.0149499
0.0875137
-0.00623086
0.0917247
0.00131579
0.095229
0.00793858
0.0981236
0.0138141
0.10049
0.0190512
0.102532
0.0236511
0.104673
0.0277414
0.107337
0.0318809
0.110295
0.0362529
0.112179
0.0409681
0.110673
0.0455392
0.103466
0.0488428
0.0895168
0.0495322
0.0699133
0.0466624
0.0478527
0.0402662
0.0278568
0.0314875
0.0135772
0.0223617
0.0061228
0.0143467
0.00268681
0.01066
0.00080254
0.00988973
-0.000808032
0.0105883
-0.00260929
0.011687
-0.00475618
0.0127427
-0.00730251
0.0134852
-0.0102133
0.0137284
-0.0134579
0.0133569
-0.0169735
0.0123173
-0.0207098
0.0105443
-0.024575
0.0080275
-0.0285153
0.00476696
-0.0323941
0.000752556
-0.0360859
-0.00391071
-0.0394087
-0.0090131
-0.0422331
-0.0146301
-0.0442822
-0.0200238
-0.0453284
-0.0250779
-0.029057
-0.0450946
0.0712477
-0.0652125
-0.0591221
0.0816454
-0.0482701
0.0903802
-0.0339623
0.0976538
-0.0222239
0.103665
-0.0122442
0.108616
-0.00363625
0.112692
0.00386012
0.116063
0.0104423
0.118846
0.0162663
0.121118
0.0213787
0.123003
0.0258548
0.124835
0.0300473
0.127094
0.0339932
0.130051
0.0380118
0.133181
0.0424083
0.134848
0.0471755
0.13264
0.0517408
0.124297
0.0550047
0.108832
0.0557345
0.0872616
0.0530591
0.0626323
0.0469928
0.0410675
0.0359129
0.0253006
0.0264239
0.0157418
0.0194492
0.0106777
0.0156423
0.00787042
0.0144918
0.00567693
0.0149216
0.00330151
0.0158612
0.000426837
0.0165857
-0.00298575
0.0167742
-0.00695787
0.0162708
-0.0114041
0.0150001
-0.0163073
0.0129109
-0.021584
0.0100569
-0.0271912
0.00633985
-0.0329545
0.00186879
-0.0387574
-0.00322842
-0.0444438
-0.00892714
-0.0497247
-0.0147589
-0.0542527
-0.0205343
-0.0256087
-0.0577158
0.0840321
-0.0799627
-0.0692832
0.096641
-0.0608789
0.107207
-0.0445308
0.115969
-0.0309854
0.123165
-0.0194433
0.129048
-0.00951879
0.133839
-0.000934663
0.137757
0.00652506
0.140976
0.0130439
0.143639
0.0187154
0.145829
0.0236627
0.147653
0.0282233
0.149302
0.032343
0.151168
0.0361451
0.153723
0.0398525
0.157116
0.0437813
0.160665
0.0481908
0.162645
0.0530253
0.160638
0.0577424
0.152337
0.0613596
0.136582
0.0627472
0.115728
0.0567651
0.0924959
0.0496548
0.0701899
0.0417499
0.0516687
0.0341585
0.0382634
0.0278875
0.0295713
0.023607
0.0241068
0.0213139
0.0202515
0.0204359
0.0167945
0.0202183
0.0130714
0.0199918
0.008761
0.0192969
0.00378189
0.0178917
-0.00194071
0.0157665
-0.00835286
0.0127568
-0.0154332
0.00893926
-0.0230653
0.00441138
-0.0312973
-0.000700819
-0.0397456
-0.00630284
-0.0481241
-0.0121602
-0.0177503
-0.0559736
0.099262
-0.0979223
-0.0813042
0.114584
-0.0762002
0.127405
-0.057355
0.138009
-0.0415883
0.146681
-0.0281192
0.153728
-0.0165649
0.159422
-0.00663214
0.164025
0.00192253
0.167758
0.00930837
0.170818
0.0156567
0.173352
0.0211262
0.175496
0.0260799
0.177324
0.0305133
0.178947
0.0345221
0.180603
0.0381948
0.182717
0.041667
0.18574
0.0451661
0.189781
0.0489831
0.194172
0.0533501
0.197283
0.058247
0.196787
0.0632407
0.190905
0.0626442
0.179421
0.0611357
0.163148
0.0580185
0.143707
0.0535958
0.123184
0.0484042
0.103751
0.0430361
0.087045
0.0380108
0.0737577
0.033721
0.0636293
0.0303354
0.0558832
0.0277387
0.0495578
0.0256101
0.0438799
0.0235747
0.0381918
0.0214403
0.0321663
0.0187926
0.0255107
0.0155801
0.0181426
0.0117966
0.00975543
0.00766942
0.000545435
0.00293
-0.00960873
-0.00202355
-0.00694684
-0.0203921
0.117407
-0.119799
-0.0955327
0.136048
-0.0948401
0.151637
-0.072947
0.164509
-0.05446
0.175011
-0.0386243
0.183509
-0.0250611
0.190332
-0.0134594
0.195801
-0.00354494
0.200182
0.00492515
0.203719
0.0121209
0.206607
0.0182363
0.209041
0.0236478
0.21115
0.0284021
0.213035
0.0326388
0.214761
0.036467
0.216455
0.0399738
0.218372
0.0432472
0.220942
0.0464125
0.22462
0.0496703
0.229592
0.0532741
0.235365
0.0574648
0.240143
0.057864
0.242717
0.0585592
0.24202
0.0587129
0.237498
0.0581153
0.229233
0.0566646
0.217879
0.0543894
0.204447
0.0514364
0.190133
0.0480362
0.176041
0.0444186
0.163021
0.0407624
0.151458
0.0371635
0.141402
0.0336379
0.132507
0.0303243
0.124461
0.0268494
0.116798
0.0232301
0.109178
0.0194323
0.100982
0.015847
0.0921253
0.0118069
0.0821776
0.00789847
0.00400399
0.071249
0.126063
-0.143929
-0.101935
0.146609
-0.115386
0.163789
-0.0901295
0.177964
-0.0686346
0.189514
-0.0501772
0.198836
-0.0343822
0.206292
-0.0209193
0.212232
-0.00948292
0.216946
0.000208333
0.220705
0.00836387
0.223724
0.0152148
0.226219
0.0211545
0.22835
0.0262696
0.230261
0.0307295
0.232049
0.0346779
0.233788
0.0382357
0.235535
0.0414988
0.237407
0.0445406
0.239637
0.0474389
0.242617
0.0502936
0.246795
0.0532858
0.251843
0.0528143
0.257608
0.0527928
0.263566
0.0527539
0.269035
0.0526453
0.27335
0.0523475
0.276011
0.051728
0.276765
0.0506792
0.275652
0.04915
0.272929
0.047137
0.269008
0.0446866
0.264295
0.0418694
0.259179
0.0387595
0.253845
0.0356497
0.248469
0.0322332
0.243031
0.028658
0.237496
0.024978
0.231507
0.0218224
0.225077
0.0182497
0.217905
0.0150521
0.0119105
0.210009
0.132914
-0.169974
-0.10687
0.155079
-0.13755
0.173612
-0.108665
0.188897
-0.083919
0.201342
-0.0626246
0.21137
-0.0444095
0.219372
-0.0289237
0.225719
-0.0158278
0.230727
-0.00480141
0.234682
0.00441071
0.23782
0.0120754
0.240367
0.018609
0.242497
0.0241385
0.244369
0.02886
0.246105
0.0329411
0.247815
0.0365272
0.249571
0.0397425
0.251427
0.0426857
0.253429
0.045438
0.255668
0.0480548
0.258346
0.0506096
0.26134
0.0498201
0.264955
0.0491799
0.269337
0.0483724
0.274494
0.0474907
0.280271
0.0465706
0.2864
0.0456029
0.292538
0.0445405
0.298365
0.0433268
0.303598
0.0419029
0.308058
0.040231
0.31163
0.0382947
0.314298
0.0360977
0.316048
0.0338942
0.316917
0.0313709
0.316897
0.0286688
0.316041
0.025842
0.31425
0.0236006
0.311615
0.0208889
0.308091
0.0185607
0.0162154
0.303792
0.140489
-0.198075
-0.112387
0.164395
-0.161458
0.184387
-0.128657
0.200869
-0.100402
0.214284
-0.0760406
0.225081
-0.0552069
0.233683
-0.0375261
0.240481
-0.0226255
0.24582
-0.0101416
0.250005
0.000227405
0.25329
0.00878932
0.255916
0.0159849
0.25807
0.0219843
0.259919
0.0270128
0.261597
0.0312639
0.263223
0.0349028
0.264894
0.0380729
0.266689
0.0408918
0.268666
0.0434632
0.27086
0.0458625
0.273309
0.0481636
0.2757
0.0474309
0.278186
0.0466979
0.280879
0.045681
0.283908
0.0444663
0.287365
0.0431158
0.291299
0.0416745
0.295673
0.0401672
0.300399
0.038607
0.30531
0.0369918
0.310231
0.0353154
0.314955
0.0335688
0.319317
0.0317424
0.323159
0.0300484
0.326362
0.0281738
0.328809
0.0262162
0.330467
0.0241897
0.331296
0.0227653
0.331308
0.0208823
0.330516
0.0193444
0.0177371
0.328998
0.148791
-0.228393
-0.118479
0.174579
-0.187241
0.196137
-0.150219
0.213914
-0.118175
0.228374
-0.0905045
0.240008
-0.0668376
0.249259
-0.0467812
0.256557
-0.0299198
0.262261
-0.0158495
0.266708
-0.00421582
0.270163
0.00533166
0.272887
0.0132642
0.275077
0.0197931
0.276915
0.0251781
0.278539
0.0296387
0.28008
0.033365
0.281635
0.0365186
0.283296
0.0392333
0.285135
0.0416266
0.28721
0.0437894
0.289564
0.0458135
0.291852
0.0451446
0.294141
0.0444149
0.296427
0.0433957
0.298737
0.0421634
0.301088
0.040766
0.303523
0.0392472
0.306054
0.0376372
0.308699
0.0359696
0.311426
0.034265
0.314203
0.0325457
0.316946
0.030824
0.319588
0.0291075
0.322034
0.0276001
0.324205
0.0260075
0.326008
0.0244092
0.3274
0.0228012
0.328347
0.0218108
0.328835
0.0203961
0.328863
0.0193065
0.0181213
0.328479
0.157851
-0.261093
-0.12515
0.185659
-0.21505
0.208914
-0.173473
0.228082
-0.137344
0.243676
-0.106098
0.256209
-0.0793725
0.266172
-0.0567433
0.274008
-0.0377579
0.28012
-0.021961
0.284852
-0.00894969
0.288505
0.00167918
0.291342
0.0104265
0.293584
0.0175511
0.295417
0.0233451
0.296996
0.0280598
0.298451
0.03191
0.29989
0.0350795
0.301404
0.0377201
0.303067
0.0399641
0.304943
0.0419149
0.307081
0.0436754
0.30917
0.0430576
0.311269
0.0423155
0.313376
0.0412922
0.31547
0.0400687
0.317543
0.0386967
0.319571
0.0372176
0.32155
0.0356624
0.323456
0.0340614
0.325286
0.0324382
0.327015
0.0308151
0.328632
0.0292096
0.330107
0.0276309
0.331429
0.0262803
0.332562
0.024872
0.333492
0.0234803
0.334199
0.0220929
0.334689
0.0213219
0.334952
0.0201302
0.335009
0.0192481
0.018248
0.334879
0.167696
-0.29637
-0.132423
0.19769
-0.245041
0.222772
-0.198556
0.243447
-0.158018
0.260263
-0.122916
0.273774
-0.0928838
0.284504
-0.0674739
0.292931
-0.0461859
0.299484
-0.0285151
0.304535
-0.0140017
0.308406
-0.00219172
0.311376
0.00745589
0.313682
0.0152448
0.31552
0.0215058
0.317058
0.0265217
0.318432
0.0305356
0.319756
0.0337549
0.321125
0.0363518
0.322613
0.0384754
0.324284
0.040244
0.326186
0.0417723
0.328025
0.0412199
0.329863
0.0404761
0.331707
0.0394499
0.333544
0.0382299
0.33537
0.036873
0.337159
0.0354254
0.338903
0.0339205
0.340573
0.0323897
0.342157
0.0308559
0.34363
0.0293397
0.344984
0.0278563
0.346201
0.0264122
0.347281
0.0252008
0.348211
0.0239407
0.348992
0.0226991
0.349624
0.021459
0.350119
0.0208241
0.350485
0.0197622
0.350735
0.0189936
0.0180899
0.350891
0.178376
-0.334423
-0.14032
0.210728
-0.277395
0.237788
-0.225613
0.260089
-0.180321
0.27823
-0.141054
0.292798
-0.107455
0.304362
-0.0790366
0.31343
-0.0552569
0.320468
-0.0355515
0.325869
-0.0194046
0.329983
-0.00630448
0.333104
0.00433297
0.335488
0.0128611
0.337343
0.0196496
0.338848
0.0250173
0.340147
0.0292368
0.34136
0.0325415
0.342586
0.0351254
0.343905
0.0371563
0.345381
0.038769
0.34706
0.0400915
0.348662
0.0396193
0.350248
0.038888
0.35183
0.0378706
0.353398
0.0366596
0.354956
0.0353171
0.356487
0.0338914
0.35799
0.0324192
0.359444
0.0309328
0.360844
0.029456
0.362173
0.0280084
0.363425
0.0266038
0.364589
0.0252465
0.365665
0.024123
0.366648
0.0229567
0.367535
0.0218089
0.368334
0.0206595
0.369052
0.0201026
0.369698
0.0191167
0.370276
0.0184111
0.0175603
0.370804
0.189937
-0.375485
-0.148879
0.224845
-0.312299
0.254041
-0.254809
0.278107
-0.204386
0.297679
-0.160628
0.313397
-0.123173
0.325864
-0.0915053
0.335634
-0.0650272
0.343198
-0.043117
0.348986
-0.0251931
0.353367
-0.0106868
0.356663
0.0010375
0.359139
0.0103833
0.361024
0.0177646
0.362504
0.023537
0.363734
0.028006
0.364842
0.0314325
0.365933
0.0340342
0.36709
0.0359991
0.368378
0.0374792
0.369852
0.0386177
0.371235
0.038235
0.372599
0.0375253
0.373946
0.0365214
0.375285
0.0353219
0.376609
0.033991
0.377921
0.0325806
0.379211
0.0311281
0.380476
0.0296673
0.38171
0.0282215
0.382907
0.0268108
0.384063
0.0254474
0.385174
0.0241349
0.386243
0.023054
0.387264
0.0219336
0.388242
0.0208316
0.389174
0.0197256
0.390076
0.0192
0.390943
0.0182479
0.391787
0.0175666
0.0167359
0.392608
0.202446
-0.419795
-0.158133
0.240115
-0.34997
0.271627
-0.286317
0.297602
-0.230361
0.318729
-0.181754
0.335693
-0.140138
0.349146
-0.104957
0.359678
-0.0755607
0.36782
-0.0512596
0.374033
-0.0314063
0.378712
-0.0153668
0.382202
-0.00245349
0.38479
0.00779516
0.386716
0.0158378
0.388181
0.0220712
0.389352
0.0268353
0.390363
0.030421
0.391325
0.0330711
0.392328
0.0349955
0.393442
0.0363641
0.394724
0.0373359
0.395908
0.03705
0.397067
0.0363655
0.398212
0.0353754
0.399351
0.0341834
0.400484
0.0328568
0.401615
0.03145
0.40274
0.030002
0.403859
0.0285477
0.404969
0.0271105
0.406068
0.0257104
0.407156
0.0243593
0.408229
0.0230603
0.409294
0.0219888
0.410345
0.0208804
0.411386
0.0197901
0.412414
0.0186949
0.413446
0.018168
0.414471
0.0172207
0.415501
0.0165368
0.0157037
0.41653
0.215961
-0.467631
-0.168129
0.256629
-0.390632
0.290647
-0.320337
0.318696
-0.258407
0.341509
-0.204569
0.35983
-0.158457
0.374352
-0.119482
0.385719
-0.086926
0.394493
-0.0600355
0.401174
-0.0380864
0.406183
-0.0203785
0.409895
-0.00616431
0.412611
0.00507748
0.414595
0.0138556
0.416055
0.0206091
0.417175
0.0257164
0.418095
0.0294996
0.418937
0.0322291
0.419795
0.0341371
0.420745
0.0354135
0.421847
0.036233
0.422848
0.036049
0.423821
0.0353911
0.424784
0.0344122
0.425746
0.0332209
0.426713
0.0318883
0.427691
0.0304714
0.42868
0.0290115
0.429682
0.0275443
0.430698
0.0260944
0.431724
0.0246816
0.432765
0.0233182
0.433816
0.0220071
0.434885
0.0209194
0.435966
0.0197973
0.437062
0.0186941
0.438168
0.0175862
0.439301
0.0170351
0.440447
0.0160726
0.441616
0.015368
0.0145174
0.442799
0.230564
-0.51928
-0.178911
0.274475
-0.434546
0.311218
-0.357076
0.341515
-0.288704
0.366164
-0.229216
0.385958
-0.178252
0.40165
-0.135173
0.413925
-0.0992016
0.423394
-0.0695044
0.430589
-0.0452819
0.435968
-0.0257578
0.439926
-0.0101235
0.442794
0.00220962
0.444847
0.0118015
0.446317
0.0191389
0.447393
0.0246397
0.448232
0.0286606
0.448959
0.0315006
0.449679
0.0334166
0.450473
0.0346185
0.451407
0.0352981
0.452235
0.0352198
0.453036
0.0345885
0.45383
0.0336168
0.454631
0.0324184
0.455448
0.0310688
0.45629
0.0296282
0.457159
0.0281401
0.45806
0.0266421
0.458992
0.0251598
0.459958
0.0237139
0.460957
0.0223171
0.46199
0.0209729
0.463059
0.0198479
0.464164
0.0186919
0.465299
0.0175561
0.466467
0.0164178
0.467675
0.015825
0.468915
0.0148327
0.470186
0.0140938
0.0132147
0.471489
0.246328
-0.575073
-0.190537
0.293766
-0.481977
0.333463
-0.396774
0.366206
-0.321443
0.392848
-0.25586
0.41425
-0.199652
0.431215
-0.15214
0.444486
-0.112471
0.454715
-0.0797347
0.462478
-0.0530444
0.468266
-0.0315458
0.472503
-0.0143606
0.475544
-0.000831567
0.477685
0.00965942
0.479175
0.0176484
0.480218
0.0235969
0.48098
0.0278976
0.481599
0.030881
0.482185
0.0328292
0.482828
0.0339745
0.4836
0.0345256
0.484262
0.0345565
0.484898
0.0339513
0.485531
0.0329822
0.486179
0.0317687
0.486855
0.0303914
0.487568
0.0289138
0.488323
0.0273827
0.489127
0.0258375
0.489979
0.0243055
0.490884
0.0228087
0.491838
0.0213605
0.492846
0.0199653
0.493906
0.0187857
0.495019
0.017579
0.496177
0.0163954
0.497383
0.0152124
0.498642
0.0145641
0.499944
0.0135303
0.501289
0.0127465
0.0118303
0.502674
0.263348
-0.635355
-0.203061
0.314609
-0.533244
0.357521
-0.43968
0.39292
-0.356844
0.421737
-0.284674
0.444887
-0.222804
0.463247
-0.170497
0.477605
-0.12683
0.488672
-0.0908001
0.497059
-0.0614333
0.503301
-0.0377867
0.507849
-0.0189102
0.51109
-0.00407089
0.513337
0.00741078
0.514861
0.0161255
0.515877
0.0225793
0.51657
0.0272055
0.517082
0.0303667
0.517539
0.0323733
0.518031
0.0334796
0.518643
0.0339141
0.51914
0.0340575
0.519613
0.0334781
0.520085
0.032507
0.520583
0.0312711
0.521116
0.0298556
0.521701
0.0283291
0.52234
0.0267411
0.523044
0.0251341
0.52381
0.0235371
0.524646
0.0219738
0.525545
0.0204588
0.526514
0.0189976
0.527549
0.0177485
0.528651
0.0164775
0.529811
0.015233
0.531031
0.0139938
0.532314
0.0132784
0.533652
0.0121937
0.535039
0.0113562
0.0103957
0.536475
0.281714
-0.700525
-0.216548
0.337138
-0.588662
0.383539
-0.486084
0.421835
-0.395136
0.453016
-0.315856
0.478079
-0.247865
0.497959
-0.190378
0.513511
-0.142382
0.525494
-0.102785
0.534574
-0.0705124
0.541318
-0.0445317
0.546218
-0.0238099
0.549683
-0.00753695
0.552057
0.00503626
0.553626
0.0145558
0.554626
0.0215786
0.555251
0.0265792
0.55566
0.0299561
0.555983
0.0320487
0.556325
0.0331363
0.556771
0.0334663
0.557101
0.0337267
0.557403
0.0331728
0.557713
0.0321963
0.55805
0.0309309
0.558437
0.0294684
0.558882
0.0278816
0.559398
0.0262247
0.559988
0.0245425
0.560658
0.0228671
0.561407
0.0212235
0.562238
0.0196282
0.563146
0.0180878
0.564138
0.0167567
0.565204
0.0154093
0.566345
0.014093
0.567549
0.0127874
0.568833
0.0119951
0.570173
0.010851
0.571578
0.0099523
0.00894104
0.57303
0.301538
-0.770996
-0.231063
0.361481
-0.648612
0.411688
-0.536286
0.453133
-0.436584
0.486897
-0.349618
0.514045
-0.275014
0.53559
-0.211921
0.552449
-0.159242
0.565443
-0.115778
0.575284
-0.0803541
0.582586
-0.0518345
0.587877
-0.0291012
0.591598
-0.0112586
0.594119
0.00251471
0.595747
0.0129269
0.596737
0.0205876
0.597298
0.026017
0.597602
0.029651
0.597788
0.0318608
0.597972
0.0329515
0.598244
0.033192
0.598396
0.033574
0.598519
0.0330468
0.598653
0.0320619
0.59882
0.0307613
0.599044
0.0292433
0.599336
0.0275866
0.599711
0.0258495
0.600171
0.0240806
0.600723
0.0223144
0.601366
0.0205785
0.602104
0.0188908
0.60293
0.0172597
0.603852
0.0158351
0.604858
0.0144008
0.605948
0.0130029
0.607111
0.0116221
0.608363
0.0107439
0.609678
0.00953334
0.611065
0.00856652
0.00749871
0.612504
0.322927
-0.847244
-0.246682
0.387798
-0.713478
0.442142
-0.590635
0.487027
-0.481465
0.523605
-0.386199
0.553036
-0.304443
0.576401
-0.235288
0.594696
-0.177536
0.608798
-0.129883
0.619482
-0.091036
0.627402
-0.0597566
0.63313
-0.0348288
0.637138
-0.015269
0.63983
-0.000175375
0.641529
0.0112249
0.642517
0.0196004
0.643014
0.025518
0.643209
0.0294559
0.643249
0.0318178
0.643263
0.032938
0.643346
0.0331066
0.643304
0.0336165
0.643229
0.0331182
0.643168
0.0321237
0.643143
0.0307831
0.643185
0.029203
0.643301
0.0274675
0.643511
0.0256407
0.643816
0.0237742
0.644226
0.0219065
0.644735
0.020067
0.645352
0.0182762
0.646066
0.0165436
0.646888
0.0150154
0.647802
0.0134844
0.648811
0.011996
0.649899
0.0105318
0.651086
0.00955936
0.652341
0.00827522
0.653676
0.0072339
0.00610371
0.655068
0.346013
-0.929772
-0.263481
0.416244
-0.783716
0.475106
-0.649492
0.523737
-0.530101
0.563395
-0.425855
0.595318
-0.336367
0.620681
-0.26065
0.64055
-0.197405
0.655875
-0.145208
0.667485
-0.102647
0.676092
-0.0683639
0.682306
-0.0410436
0.68664
-0.0196033
0.689523
-0.003059
0.691311
0.00943604
0.6923
0.0186103
0.692734
0.0250838
0.69281
0.0293776
0.692695
0.0319324
0.692519
0.0331118
0.692394
0.0332307
0.692133
0.0338755
0.69184
0.0334104
0.691555
0.0324059
0.691316
0.0310224
0.691142
0.0293742
0.691057
0.0275527
0.691069
0.0256271
0.69119
0.0236539
0.69142
0.0216746
0.691766
0.0197217
0.692223
0.0178175
0.692793
0.0159739
0.693475
0.0143321
0.694265
0.0126955
0.69515
0.0111081
0.69613
0.00955268
0.697209
0.00847771
0.698372
0.00711346
0.699612
0.005991
0.00479273
0.700925
0.370924
-1.01915
-0.281547
0.447007
-0.859794
0.51079
-0.713281
0.56352
-0.582826
0.60654
-0.468875
0.641194
-0.37102
0.668745
-0.2882
0.690343
-0.219004
0.707014
-0.161879
0.719649
-0.115282
0.729017
-0.0777312
0.735772
-0.0478001
0.74047
-0.0243012
0.743571
-0.006161
0.745461