/*--------------------------------*- C++ -*----------------------------------*\
| =========                 |                                                 |
| \\      /  F ield         | OpenFOAM: The Open Source CFD Toolbox           |
|  \\    /   O peration     | Version:  2312                                  |
|   \\  /    A nd           | Website:  www.openfoam.com                      |
|    \\/     M anipulation  |                                                 |
\*---------------------------------------------------------------------------*/
FoamFile
{
    version     2.0;
    format      ascii;
    arch        "LSB;label=32;scalar=64";
    class       volScalarField;
    location    "350";
    object      turbulenceProperties:epsilon;
}
// * * * * * * * * * * * * * * * * * * * * * * * * * * * * * * * * * * * * * //

dimensions      [0 2 -3 0 0 0 0];

internalField   nonuniform List<scalar> 
11040
(
127.234
62.6425
1.30273
10.5157
28.8783
22.7602
18.3885
15.133
13.2475
11.6599
10.4465
9.68881
9.27287
9.19631
9.41953
9.86828
10.6121
11.7636
13.4351
15.8801
19.4317
24.4
31.34
41.3638
55.0098
71.9611
91.4983
112.564
134.304
153.868
164.964
164.39
150.66
125.937
95.3634
66.0956
26.9507
6.36038
0.748967
10.6379
22.631
1.38171
6.3218
41.7769
69.9626
16.1085
0.578176
0.0365077
0.0121325
0.0496609
0.0945265
0.135128
0.178582
0.225852
0.281725
0.353071
0.441333
0.548123
0.675926
0.841522
1.04435
1.29843
1.58563
1.85001
2.04449
2.14239
2.07757
1.80859
1.38329
0.965206
0.636022
0.40163
0.285448
0.274014
0.31745
0.456695
0.721034
1.10679
1.59659
2.56043
2.82921
10.2327
0.354055
0.165767
2.72028
65.7154
102.32
31.5787
2.526
0.426751
0.086575
0.0124762
0.000190677
0.00848777
0.0274471
0.0525413
0.0835363
0.117729
0.157806
0.205316
0.259581
0.315358
0.360859
0.380566
0.361242
0.310447
0.248809
0.178738
0.114901
0.0671922
0.0346023
0.0145529
0.0179065
0.0692181
0.210251
0.514496
1.04162
1.85227
2.96573
4.20816
6.11911
7.22334
7.16491
0.164396
0.206005
0.00598792
3.1384
60.6948
113.399
47.8947
6.19525
1.23134
0.359615
0.159395
0.0764883
0.0325541
0.0163814
0.0108157
0.012306
0.01911
0.0290659
0.0414612
0.053641
0.0629976
0.0686084
0.0741689
0.0833087
0.0975435
0.112862
0.119189
0.10636
0.0713234
0.0266263
0.00243823
0.0540966
0.266935
0.751502
1.6343
3.03708
5.02884
7.33357
10.3026
13.0789
7.94386
0.100036
0.104795
0.0877997
0.000837872
2.63057
47.791
112.465
65.4798
13.8932
2.77175
0.896564
0.476037
0.275501
0.192953
0.141213
0.111966
0.0966113
0.0900321
0.0929843
0.104259
0.123587
0.147981
0.178186
0.214241
0.250391
0.275224
0.276152
0.243606
0.174396
0.0850366
0.018111
0.0594111
0.340898
1.02908
2.31746
4.38022
7.33457
10.8633
14.8218
19.6358
11.8395
0.0545867
0.0464707
0.0656821
0.0265096
6.26747e-05
1.3889
31.2618
99.1834
82.2861
28.6259
5.6988
1.97586
0.932073
0.618105
0.463006
0.378256
0.33706
0.318342
0.323293
0.345036
0.379905
0.416371
0.452487
0.489595
0.523013
0.540312
0.526129
0.46473
0.346191
0.187865
0.0466019
0.0433408
0.364329
1.24559
2.95388
5.72296
9.71088
14.599
19.6608
26.3732
18.1725
0.0299859
0.0267887
0.0272114
0.039231
0.00749392
2.57547e-08
0.358959
16.2
73.5835
91.9437
48.8055
13.2977
3.75941
1.7224
1.10285
0.824213
0.701474
0.637511
0.632012
0.659113
0.710673
0.763627
0.814445
0.863962
0.907917
0.930217
0.908343
0.815605
0.633155
0.376783
0.117664
0.0134904
0.309612
1.32263
3.39871
6.83608
11.8237
18.0631
24.4413
32.6909
26.139
0.016218
0.0157422
0.0150199
0.0164366
0.0251184
0.000825998
0.000400085
0.0283324
6.18435
43.1357
86.9693
68.3503
28.6031
7.87588
3.08163
1.72442
1.28855
1.07165
1.00263
1.00214
1.06401
1.14834
1.24355
1.34349
1.43486
1.49264
1.4868
1.37566
1.124
0.74138
0.308192
0.0175477
0.175381
1.18208
3.47118
7.40301
13.1953
20.5727
28.3793
37.5239
34.4148
0.00902795
0.00884336
0.0090786
0.00862576
0.0106919
0.0117559
0.00131766
0.000154232
0.00204181
1.63957
18.7744
62.1574
77.8514
48.5088
18.3758
5.83574
2.78318
1.82185
1.51035
1.40294
1.44346
1.55596
1.71832
1.90876
2.10567
2.26585
2.33155
2.23917
1.94048
1.42663
0.772183
0.191713
0.0454054
0.813023
3.01568
7.07891
13.2316
21.252
30.1346
39.6663
40.9901
0.00506634
0.00502776
0.00517514
0.00533256
0.00521503
0.00623642
0.00656037
0.00105191
2.50481e-05
8.30483e-11
0.199364
5.59099
31.5536
66.8945
64.0745
35.6986
13.5234
4.96713
2.69343
2.03264
1.91481
2.01492
2.24604
2.54942
2.89816
3.23329
3.47118
3.50813
3.24752
2.64806
1.76873
0.824323
0.202916
0.434044
2.11022
5.71547
11.5002
19.2734
28.2493
37.6535
43.0333
0.00286416
0.00286214
0.00295331
0.00309877
0.00318121
0.00318849
0.00351055
0.004058
0.000912061
2.86632e-06
0.000156936
1.69676e-05
0.874313
10.4341
38.6889
62.8174
52.7108
28.3832
11.3447
4.72343
2.91926
2.62988
2.84838
3.26162
3.79147
4.34859
4.8351
5.11558
5.04662
4.53878
3.59132
2.36645
1.21784
0.690264
1.40272
3.8638
8.34709
14.6743
22.1531
30.2108
37.3704
0.00162507
0.00163027
0.00168559
0.00177063
0.00186395
0.00192937
0.00192937
0.00208817
0.00237488
0.00122529
1.33747e-06
1.47932e-07
0.00285395
0.0473624
1.92666
13.8739
39.743
55.9659
44.9371
24.7878
10.9856
5.49621
4.02517
4.01922
4.66691
5.5175
6.35656
6.99468
7.26586
7.05098
6.30531
5.10343
3.70205
2.5345
2.1535
3.06828
5.54752
9.39657
13.917
18.9169
24.4787
0.000922365
0.00092901
0.000958992
0.00101006
0.00106892
0.00112938
0.00117569
0.00118934
0.00125621
0.00141249
0.00111395
4.29955e-05
2.6457e-07
4.30481e-05
4.44419e-06
0.146685
2.63124
14.464
36.3163
48.8802
40.1297
24.6351
13.9911
8.76851
6.85222
6.64788
7.44108
8.57908
9.5108
9.95897
9.81626
9.09041
7.93828
6.6415
5.6122
5.22415
5.68227
6.82114
8.13928
9.36514
10.9869
0.00052257
0.000528317
0.000544542
0.00057349
0.000609686
0.000648836
0.000688699
0.000721877
0.000741555
0.000763216
0.000869756
0.00083482
0.00024826
1.00157e-06
1.07939e-08
0.00123262
0.00161744
0.199008
2.56726
12.4351
30.2102
41.9062
38.9348
29.6576
21.6944
16.3215
13.1997
11.6703
11.2779
11.6533
12.2745
12.6914
12.7049
12.3738
11.8619
11.3689
10.9404
10.4655
9.66127
8.21306
6.18234
0.000294782
0.000299145
0.000308063
0.000324137
0.000345475
0.000369818
0.000395806
0.00042228
0.000446987
0.00046339
0.000478089
0.000530434
0.000542922
0.000365052
4.52909e-06
8.30196e-08
6.64711e-07
0.00213336
0.000273881
0.144185
1.81972
8.31393
20.2963
31.8957
36.661
35.2277
31.8638
28.3177
24.7753
21.6206
19.1327
17.3986
16.417
16.054
16.1448
16.5588
17.2407
17.9325
18.1265
17.294
14.3065
0.000165251
0.000168283
0.000173225
0.0001821
0.000194273
0.000208774
0.000224903
0.000242142
0.000259881
0.000277232
0.000290577
0.000304185
0.000321092
0.000364012
0.000303726
0.000154841
5.8031e-07
1.33773e-09
4.08972e-08
0.00193969
1.79883e-06
0.0530893
0.633586
3.04841
8.59568
16.7033
24.7299
30.427
33.6804
35.3297
35.6042
34.4191
32.1738
29.5368
27.1495
25.4662
24.7468
24.7082
25.2336
26.9002
27.0329
9.23871e-05
9.43572e-05
9.71509e-05
0.000102066
0.000108906
0.000117271
0.000126827
0.000137375
0.000148681
0.000160449
0.000172138
0.000183048
0.000192457
0.000204281
0.000221225
0.000243186
0.000172841
3.22965e-05
1.96733e-07
6.13942e-10
1.67711e-10
0.000926816
0.00542798
0.00413004
0.055028
0.383608
1.46997
3.79536
7.41477
11.8207
16.3115
20.3594
23.674
26.0992
27.6322
28.4611
29.0433
29.8264
31.1906
33.9784
36.0935
5.26708e-05
5.39358e-05
5.56096e-05
5.84509e-05
6.24116e-05
6.73022e-05
7.30076e-05
7.93932e-05
8.63962e-05
9.39318e-05
0.000101783
0.000109799
0.000117817
0.00012515
0.000132845
0.000143357
0.000161943
0.000159184
0.000111373
1.4643e-05
1.04253e-07
5.64558e-10
0
9.30273e-06
0.00159978
0.00547653
1.78869e-05
0.00552096
0.0300962
0.128874
0.383531
0.856842
1.55466
2.42845
3.40274
4.41624
5.46138
6.59239
7.8487
9.4078
10.9941
3.11631e-05
3.19873e-05
3.30375e-05
3.47571e-05
3.71393e-05
4.01029e-05
4.36026e-05
4.75951e-05
5.2047e-05
5.69147e-05
6.21077e-05
6.75538e-05
7.32263e-05
7.89939e-05
8.47123e-05
9.01586e-05
9.76055e-05
0.00010747
0.000118657
0.000114338
7.1434e-05
1.4668e-05
8.5925e-08
8.47253e-10
5.47552e-11
0
6.3077e-10
0.00010298
0.00282302
0.00672053
0.00957706
0.00235766
0.00391211
0.00340164
0.0024202
0.00553909
0.0199997
0.0542211
0.115094
0.211385
0.326975
1.91163e-05
1.96526e-05
2.03263e-05
2.13965e-05
2.28687e-05
2.47075e-05
2.68914e-05
2.94145e-05
3.22557e-05
3.53995e-05
3.88334e-05
4.25014e-05
4.63855e-05
5.04603e-05
5.46885e-05
5.89625e-05
6.33206e-05
6.80462e-05
7.41303e-05
8.27798e-05
8.95105e-05
8.94561e-05
6.35469e-05
2.65871e-05
2.0235e-06
2.35063e-08
5.54867e-10
1.39737e-10
5.1582e-12
0
0
8.38133e-07
7.74431e-05
0.00104317
0.00348617
0.00610237
0.00827327
0.0101647
0.0123532
0.00281373
0.00388536
1.20442e-05
1.23942e-05
1.28368e-05
1.35164e-05
1.44475e-05
1.56101e-05
1.69992e-05
1.861e-05
2.04349e-05
2.24723e-05
2.47164e-05
2.71455e-05
2.9752e-05
3.25228e-05
3.54436e-05
3.84958e-05
4.16589e-05
4.49145e-05
4.83138e-05
5.22136e-05
5.73282e-05
6.37386e-05
7.11154e-05
7.3211e-05
6.64709e-05
4.816e-05
2.4889e-05
7.07868e-06
2.97571e-07
7.14648e-09
3.46483e-10
1.68617e-10
6.81252e-11
2.07198e-11
3.36692e-12
1.18548e-13
0
0
0
3.24855e-08
7.07241e-08
7.75554e-06
7.98549e-06
8.28067e-06
8.72204e-06
9.32055e-06
1.00692e-05
1.09651e-05
1.20063e-05
1.31919e-05
1.45191e-05
1.59831e-05
1.75846e-05
1.9311e-05
2.11573e-05
2.31177e-05
2.51818e-05
2.73438e-05
2.95971e-05
3.19412e-05
3.43625e-05
3.70141e-05
3.99592e-05
4.37782e-05
4.84175e-05
5.34086e-05
5.79665e-05
5.98599e-05
5.7448e-05
5.05888e-05
3.86177e-05
2.47291e-05
1.34032e-05
6.04074e-06
2.02617e-06
3.65515e-07
1.43092e-08
1.19219e-09
1.47824e-10
1.06655e-10
7.716e-11
5.6197e-11
5.08158e-06
5.23455e-06
5.43402e-06
5.72504e-06
6.1148e-06
6.60349e-06
7.18786e-06
7.86813e-06
8.64294e-06
9.50951e-06
1.04687e-05
1.15226e-05
1.26603e-05
1.38786e-05
1.51733e-05
1.65385e-05
1.79678e-05
1.94545e-05
2.09993e-05
2.2589e-05
2.42567e-05
2.59854e-05
2.77417e-05
2.96294e-05
3.17176e-05
3.41762e-05
3.69923e-05
3.98815e-05
4.25839e-05
4.48657e-05
4.58415e-05
4.51793e-05
4.32005e-05
4.01448e-05
3.62392e-05
3.17384e-05
2.70164e-05
2.21298e-05
1.79349e-05
1.43669e-05
1.18815e-05
3.37844e-06
3.48047e-06
3.61697e-06
3.81142e-06
4.06907e-06
4.39168e-06
4.77727e-06
5.22565e-06
5.73563e-06
6.30588e-06
6.93691e-06
7.62794e-06
8.37607e-06
9.17524e-06
1.00222e-05
1.09129e-05
1.18414e-05
1.28009e-05
1.37873e-05
1.47904e-05
1.5827e-05
1.68941e-05
1.79376e-05
1.89392e-05
1.9907e-05
2.08573e-05
2.18225e-05
2.28198e-05
2.38436e-05
2.49104e-05
2.59616e-05
2.69122e-05
2.76913e-05
2.82552e-05
2.85858e-05
2.86705e-05
2.84987e-05
2.80482e-05
2.73187e-05
2.61308e-05
2.56278e-05
2.27337e-06
2.34219e-06
2.43706e-06
2.56865e-06
2.74104e-06
2.95628e-06
3.21329e-06
3.5114e-06
3.8496e-06
4.22748e-06
4.64316e-06
5.09742e-06
5.59032e-06
6.1146e-06
6.66677e-06
7.24424e-06
7.8417e-06
8.45386e-06
9.07489e-06
9.69623e-06
1.03251e-05
1.09625e-05
1.15767e-05
1.2152e-05
1.26836e-05
1.31675e-05
1.36003e-05
1.39793e-05
1.43052e-05
1.45756e-05
1.47957e-05
1.49633e-05
1.50743e-05
1.51235e-05
1.51127e-05
1.50396e-05
1.48952e-05
1.46731e-05
1.44245e-05
1.39675e-05
1.40291e-05
1.54578e-06
1.59219e-06
1.659e-06
1.74919e-06
1.86592e-06
2.01089e-06
2.18392e-06
2.38372e-06
2.60984e-06
2.86146e-06
3.13681e-06
3.4371e-06
3.76207e-06
4.10611e-06
4.46616e-06
4.83954e-06
5.22265e-06
5.61076e-06
5.99928e-06
6.38068e-06
6.75919e-06
7.13571e-06
7.49099e-06
7.81488e-06
8.1051e-06
8.36046e-06
8.57798e-06
8.7547e-06
8.8888e-06
8.97941e-06
9.02628e-06
9.03082e-06
8.99178e-06
8.91205e-06
8.79651e-06
8.64995e-06
8.46982e-06
8.2534e-06
8.04181e-06
7.7085e-06
7.7755e-06
1.05989e-06
1.09213e-06
1.13946e-06
1.20179e-06
1.28165e-06
1.38042e-06
1.49796e-06
1.63309e-06
1.78542e-06
1.95408e-06
2.13792e-06
2.33728e-06
2.55158e-06
2.77801e-06
3.01335e-06
3.25507e-06
3.50081e-06
3.74668e-06
3.98951e-06
4.22317e-06
4.45074e-06
4.67341e-06
4.87943e-06
5.06206e-06
5.22038e-06
5.35439e-06
5.46317e-06
5.54593e-06
5.60203e-06
5.63215e-06
5.63663e-06
5.61712e-06
5.57281e-06
5.50603e-06
5.42015e-06
5.31875e-06
5.19996e-06
5.06142e-06
4.93464e-06
4.7196e-06
4.8274e-06
7.32354e-07
7.54733e-07
7.88499e-07
8.32239e-07
8.87498e-07
9.55514e-07
1.03607e-06
1.12831e-06
1.23175e-06
1.34573e-06
1.46945e-06
1.60237e-06
1.74434e-06
1.89424e-06
2.04881e-06
2.20603e-06
2.36416e-06
2.52054e-06
2.67276e-06
2.81648e-06
2.95387e-06
3.08666e-06
3.20731e-06
3.31184e-06
3.39965e-06
3.47143e-06
3.52688e-06
3.56613e-06
3.58923e-06
3.5972e-06
3.59057e-06
3.57078e-06
3.53778e-06
3.49318e-06
3.4393e-06
3.37844e-06
3.30906e-06
3.22874e-06
3.16201e-06
3.02722e-06
3.15693e-06
5.09244e-07
5.25158e-07
5.49384e-07
5.80374e-07
6.19028e-07
6.66332e-07
7.22009e-07
7.85532e-07
8.56318e-07
9.33977e-07
1.01778e-06
1.107e-06
1.20176e-06
1.30157e-06
1.40367e-06
1.50662e-06
1.60896e-06
1.70904e-06
1.80511e-06
1.89426e-06
1.978e-06
2.05826e-06
2.13016e-06
2.19128e-06
2.24147e-06
2.28138e-06
2.31118e-06
2.33113e-06
2.34168e-06
2.34339e-06
2.33704e-06
2.3236e-06
2.30321e-06
2.27679e-06
2.24605e-06
2.21235e-06
2.17453e-06
2.13018e-06
2.09889e-06
2.01328e-06
2.14663e-06
3.56154e-07
3.67415e-07
3.85078e-07
4.07269e-07
4.34546e-07
4.67779e-07
5.06667e-07
5.50792e-07
5.99675e-07
6.53013e-07
7.10221e-07
7.70696e-07
8.34528e-07
9.01259e-07
9.69211e-07
1.03717e-06
1.104e-06
1.16867e-06
1.22995e-06
1.28591e-06
1.33775e-06
1.38716e-06
1.43106e-06
1.46792e-06
1.49788e-06
1.52147e-06
1.53897e-06
1.55059e-06
1.55685e-06
1.55816e-06
1.55506e-06
1.54826e-06
1.53781e-06
1.52426e-06
1.50873e-06
1.4921e-06
1.47345e-06
1.4506e-06
1.43923e-06
1.38352e-06
1.51047e-06
2.5019e-07
2.58386e-07
2.71312e-07
2.87331e-07
3.06874e-07
3.30471e-07
3.57919e-07
3.88851e-07
4.22936e-07
4.59896e-07
4.99328e-07
5.40753e-07
5.84108e-07
6.29054e-07
6.74769e-07
7.2011e-07
7.64323e-07
8.06616e-07
8.46281e-07
8.81942e-07
9.14708e-07
9.45863e-07
9.73525e-07
9.96651e-07
1.01546e-06
1.03041e-06
1.04185e-06
1.04989e-06
1.05488e-06
1.05719e-06
1.05717e-06
1.05522e-06
1.05135e-06
1.04592e-06
1.03966e-06
1.03314e-06
1.02561e-06
1.01523e-06
1.01456e-06
9.77346e-07
1.09303e-06
1.7641e-07
1.82453e-07
1.92081e-07
2.03766e-07
2.17905e-07
2.34835e-07
2.54387e-07
2.76264e-07
3.00259e-07
3.26103e-07
3.53541e-07
3.822e-07
4.11909e-07
4.4247e-07
4.7358e-07
5.04192e-07
5.33818e-07
5.61914e-07
5.88084e-07
6.11334e-07
6.32603e-07
6.52915e-07
6.71018e-07
6.86286e-07
6.98893e-07
7.09163e-07
7.17386e-07
7.23718e-07
7.28349e-07
7.3152e-07
7.33479e-07
7.3453e-07
7.34585e-07
7.33902e-07
7.32961e-07
7.32172e-07
7.30886e-07
7.27602e-07
7.32384e-07
7.07037e-07
8.09699e-07
1.24798e-07
1.29363e-07
1.36522e-07
1.45166e-07
1.555e-07
1.67729e-07
1.81789e-07
1.97427e-07
2.14483e-07
2.32751e-07
2.52032e-07
2.72061e-07
2.92614e-07
3.13664e-07
3.35069e-07
3.56027e-07
3.76164e-07
3.95121e-07
4.12684e-07
4.28212e-07
4.42399e-07
4.56093e-07
4.68413e-07
4.78956e-07
4.87882e-07
4.95485e-07
5.01898e-07
5.07269e-07
5.11733e-07
5.15456e-07
5.1857e-07
5.21298e-07
5.23543e-07
5.25477e-07
5.27386e-07
5.29566e-07
5.31511e-07
5.3201e-07
5.39079e-07
5.21351e-07
6.10494e-07
8.84921e-08
9.19804e-08
9.73956e-08
1.03824e-07
1.11413e-07
1.20375e-07
1.30595e-07
1.41904e-07
1.54155e-07
1.67213e-07
1.80907e-07
1.95072e-07
2.09484e-07
2.24199e-07
2.39072e-07
2.53639e-07
2.67561e-07
2.8062e-07
2.92662e-07
3.03327e-07
3.13092e-07
3.2263e-07
3.31328e-07
3.38933e-07
3.4554e-07
3.51406e-07
3.5662e-07
3.61259e-07
3.65435e-07
3.69278e-07
3.72856e-07
3.76301e-07
3.79534e-07
3.82671e-07
3.85892e-07
3.89386e-07
3.92771e-07
3.95062e-07
4.02624e-07
3.89931e-07
4.65859e-07
6.28754e-08
6.5581e-08
6.96763e-08
7.45052e-08
8.01633e-08
8.67938e-08
9.43054e-08
1.02571e-07
1.11467e-07
1.20903e-07
1.30744e-07
1.40875e-07
1.51124e-07
1.61522e-07
1.71984e-07
1.82259e-07
1.92064e-07
2.01254e-07
2.09701e-07
2.17198e-07
2.2414e-07
2.31007e-07
2.37378e-07
2.43079e-07
2.48179e-07
2.52852e-07
2.57201e-07
2.61268e-07
2.65107e-07
2.68798e-07
2.72405e-07
2.7601e-07
2.79548e-07
2.83071e-07
2.86719e-07
2.90609e-07
2.94462e-07
2.97472e-07
3.0465e-07
2.95446e-07
3.59121e-07
4.47314e-08
4.6851e-08
4.99852e-08
5.36409e-08
5.79013e-08
6.28534e-08
6.84329e-08
7.45286e-08
8.10627e-08
8.79568e-08
9.51163e-08
1.02449e-07
1.09848e-07
1.17289e-07
1.24746e-07
1.32099e-07
1.39115e-07
1.45683e-07
1.51748e-07
1.57144e-07
1.62171e-07
1.67196e-07
1.71943e-07
1.76272e-07
1.80266e-07
1.84042e-07
1.87653e-07
1.91146e-07
1.9456e-07
1.97946e-07
2.01328e-07
2.04757e-07
2.08184e-07
2.11638e-07
2.15205e-07
2.18961e-07
2.22702e-07
2.25809e-07
2.32143e-07
2.25434e-07
2.77808e-07
3.18636e-08
3.35323e-08
3.59347e-08
3.87325e-08
4.19616e-08
4.56934e-08
4.98684e-08
5.44145e-08
5.92635e-08
6.43575e-08
6.96274e-08
7.5004e-08
8.04125e-08
8.58174e-08
9.12171e-08
9.65608e-08
1.01672e-07
1.06463e-07
1.109e-07
1.14883e-07
1.18638e-07
1.2242e-07
1.26063e-07
1.29453e-07
1.32639e-07
1.35725e-07
1.3876e-07
1.41753e-07
1.4473e-07
1.47716e-07
1.50741e-07
1.53818e-07
1.56917e-07
1.60044e-07
1.63272e-07
1.66631e-07
1.69978e-07
1.72833e-07
1.78121e-07
1.73214e-07
2.15421e-07
2.27087e-08
2.40311e-08
2.58861e-08
2.8027e-08
3.04956e-08
3.33235e-08
3.64779e-08
3.99006e-08
4.35387e-08
4.7342e-08
5.12622e-08
5.52479e-08
5.92534e-08
6.3229e-08
6.71981e-08
7.11381e-08
7.49187e-08
7.84741e-08
8.17918e-08
8.48043e-08
8.76824e-08
9.05954e-08
9.34339e-08
9.61149e-08
9.86827e-08
1.012e-07
1.03705e-07
1.06199e-07
1.08708e-07
1.11239e-07
1.13816e-07
1.16443e-07
1.19099e-07
1.2178e-07
1.24528e-07
1.27362e-07
1.30176e-07
1.3262e-07
1.36834e-07
1.33249e-07
1.66375e-07
1.61946e-08
1.72401e-08
1.86682e-08
2.03248e-08
2.22146e-08
2.43683e-08
2.67665e-08
2.93608e-08
3.21122e-08
3.49808e-08
3.79287e-08
4.09166e-08
4.39128e-08
4.6876e-08
4.98371e-08
5.27865e-08
5.56257e-08
5.83035e-08
6.08126e-08
6.31124e-08
6.53228e-08
6.75724e-08
6.97888e-08
7.19043e-08
7.39481e-08
7.59726e-08
7.80043e-08
8.00468e-08
8.21095e-08
8.42051e-08
8.63434e-08
8.85291e-08
9.07344e-08
9.29614e-08
9.52279e-08
9.75543e-08
9.984e-08
1.01869e-07
1.05134e-07
1.02613e-07
1.28018e-07
1.15471e-08
1.2373e-08
1.34787e-08
1.4756e-08
1.62146e-08
1.7866e-08
1.96892e-08
2.16582e-08
2.37418e-08
2.59157e-08
2.81517e-08
3.04184e-08
3.26856e-08
3.49212e-08
3.71456e-08
3.93655e-08
4.15286e-08
4.35939e-08
4.55468e-08
4.73655e-08
4.91246e-08
5.09041e-08
5.26667e-08
5.43595e-08
5.60028e-08
5.7632e-08
5.92667e-08
6.09103e-08
6.25679e-08
6.42431e-08
6.59433e-08
6.7672e-08
6.94069e-08
7.11426e-08
7.28874e-08
7.46548e-08
7.63646e-08
7.78838e-08
8.0195e-08
7.84318e-08
9.6752e-08
8.23657e-09
8.8857e-09
9.73637e-09
1.07253e-08
1.1845e-08
1.31081e-08
1.45023e-08
1.60027e-08
1.75854e-08
1.92308e-08
2.09224e-08
2.26461e-08
2.43819e-08
2.61014e-08
2.77994e-08
2.9469e-08
3.1078e-08
3.26076e-08
3.40583e-08
3.54236e-08
3.67576e-08
3.81187e-08
3.94808e-08
4.08045e-08
4.20988e-08
4.33912e-08
4.46892e-08
4.59971e-08
4.73145e-08
4.86481e-08
4.99936e-08
5.13559e-08
5.27149e-08
5.40702e-08
5.54134e-08
5.67579e-08
5.80327e-08
5.91807e-08
6.079e-08
5.9637e-08
7.26203e-08
5.88002e-09
6.39199e-09
7.04824e-09
7.80174e-09
8.64987e-09
9.60089e-09
1.06539e-08
1.17984e-08
1.30178e-08
1.4287e-08
1.55814e-08
1.68838e-08
1.8192e-08
1.95111e-08
2.08628e-08
2.22482e-08
2.36248e-08
2.49449e-08
2.61886e-08
2.73499e-08
2.84619e-08
2.9561e-08
3.0642e-08
3.16761e-08
3.26704e-08
3.36496e-08
3.46193e-08
3.55838e-08
3.65398e-08
3.74947e-08
3.84437e-08
3.93895e-08
4.03152e-08
4.12207e-08
4.20964e-08
4.29494e-08
4.37213e-08
4.4402e-08
4.52716e-08
4.45421e-08
5.21925e-08
4.20727e-09
4.60304e-09
5.10538e-09
5.68003e-09
6.31362e-09
7.01287e-09
7.78159e-09
8.62181e-09
9.53386e-09
1.05125e-08
1.15418e-08
1.25886e-08
1.36105e-08
1.45643e-08
1.54415e-08
1.62789e-08
1.71186e-08
1.79634e-08
1.88085e-08
1.96386e-08
2.04628e-08
2.13048e-08
2.21536e-08
2.29829e-08
2.37907e-08
2.45864e-08
2.53728e-08
2.61492e-08
2.69124e-08
2.76606e-08
2.83925e-08
2.91055e-08
2.97903e-08
3.04405e-08
3.105e-08
3.16205e-08
3.21092e-08
3.25315e-08
3.29802e-08
3.2517e-08
3.73211e-08
3.01221e-09
3.30605e-09
3.67628e-09
4.10205e-09
4.57653e-09
5.1027e-09
5.67661e-09
6.28746e-09
6.92925e-09
7.60355e-09
8.32577e-09
9.1206e-09
1.0014e-08
1.10158e-08
1.21087e-08
1.32125e-08
1.42309e-08
1.51377e-08
1.59454e-08
1.66775e-08
1.73529e-08
1.79807e-08
1.85817e-08
1.91427e-08
1.96704e-08
2.01751e-08
2.066e-08
2.11242e-08
2.15665e-08
2.1985e-08
2.23765e-08
2.27374e-08
2.3061e-08
2.33411e-08
2.3571e-08
2.37503e-08
2.38449e-08
2.38924e-08
2.38118e-08
2.35837e-08
2.44253e-08
2.16204e-09
2.37603e-09
2.63058e-09
2.91555e-09
3.23618e-09
3.61208e-09
4.05354e-09
4.55788e-09
5.10472e-09
5.65745e-09
6.1692e-09
6.59781e-09
6.92486e-09
7.16386e-09
7.36843e-09
7.66099e-09
8.1127e-09
8.66222e-09
9.25603e-09
9.85785e-09
1.04594e-08
1.10665e-08
1.16649e-08
1.22384e-08
1.27812e-08
1.32937e-08
1.37756e-08
1.42231e-08
1.46325e-08
1.50005e-08
1.53244e-08
1.55993e-08
1.582e-08
1.59819e-08
1.60785e-08
1.61105e-08
1.60522e-08
1.59534e-08
1.56928e-08
1.54235e-08
1.59712e-08
1.56778e-09
1.74726e-09
1.93827e-09
2.12361e-09
2.30391e-09
2.49607e-09
2.72024e-09
2.9996e-09
3.36423e-09
3.84805e-09
4.48504e-09
5.29668e-09
6.28149e-09
7.40361e-09
8.59364e-09
9.62747e-09
1.03543e-08
1.09149e-08
1.13758e-08
1.17693e-08
1.20941e-08
1.23608e-08
1.25912e-08
1.27839e-08
1.29427e-08
1.30727e-08
1.31751e-08
1.32509e-08
1.32978e-08
1.3314e-08
1.32955e-08
1.32397e-08
1.31408e-08
1.29947e-08
1.2796e-08
1.25448e-08
1.22203e-08
1.18734e-08
1.13071e-08
1.12246e-08
8.92746e-09
1.17095e-09
1.33069e-09
1.50531e-09
1.67699e-09
1.82882e-09
1.9536e-09
2.04928e-09
2.11882e-09
2.17319e-09
2.22707e-09
2.29582e-09
2.39042e-09
2.51402e-09
2.65748e-09
2.80147e-09
3.03075e-09
3.38395e-09
3.79813e-09
4.25059e-09
4.7204e-09
5.20076e-09
5.68674e-09
6.16997e-09
6.64315e-09
7.09608e-09
7.52288e-09
7.91603e-09
8.26935e-09
8.57462e-09
8.82552e-09
9.01334e-09
9.13168e-09
9.17362e-09
9.1338e-09
9.00472e-09
8.78686e-09
8.46449e-09
8.08484e-09
7.51341e-09
7.11022e-09
6.44859e-09
1.0275e-09
1.08907e-09
1.10955e-09
1.17044e-09
1.37799e-09
1.81867e-09
2.52379e-09
3.46458e-09
4.56449e-09
5.72332e-09
6.83794e-09
7.82326e-09
8.62551e-09
9.22472e-09
9.6433e-09
9.69656e-09
9.48421e-09
9.22313e-09
8.98158e-09
8.77399e-09
8.57952e-09
8.48224e-09
8.41221e-09
8.37108e-09
8.35069e-09
8.34059e-09
8.33281e-09
8.31653e-09
8.28272e-09
8.21984e-09
8.11909e-09
7.97067e-09
7.7677e-09
7.50172e-09
7.17478e-09
6.7874e-09
6.34967e-09
5.86069e-09
5.37812e-09
4.82644e-09
4.62816e-09
618.233
392.196
156.359
20.3056
0.172168
0.0645837
1.02611e-05
0.00276211
5.85418e-07
0.00354581
6.12818
6.70961
1.99182
0.489709
1.25599
2.77213
4.45867
5.96675
7.06374
7.44912
6.91148
5.44195
3.3789
1.42668
0.29552
0.0144178
1.3949e-08
5.11371e-09
5.00031e-08
4.91944e-06
5.68487e-06
4.95631e-06
5.67342e-06
6.45521e-06
7.12467e-06
7.78415e-06
8.44139e-06
8.99386e-06
9.45415e-06
9.75918e-06
9.94107e-06
9.99887e-06
9.89715e-06
9.64666e-06
9.24827e-06
8.69322e-06
7.98251e-06
7.15081e-06
6.21909e-06
5.23388e-06
4.26478e-06
3.34411e-06
2.52751e-06
1.83559e-06
1.26895e-06
8.36086e-07
5.28839e-07
3.11023e-07
1.76232e-07
9.34416e-08
5.39984e-08
3.43054e-08
3.29296e-08
3.77467e-08
4.52355e-08
5.21914e-08
5.90666e-08
6.21114e-08
6.4341e-08
6.31864e-08
6.25809e-08
5.81057e-08
5.31131e-08
5.00724e-08
306.319
487.247
309.358
96.6531
2.40667
0.542076
0.0346214
6.1585e-06
0.000449997
0.490939
6.49578
5.2528
2.3741
1.32848
1.06192
1.22506
1.85935
2.83733
4.00919
5.06742
5.6685
5.51182
4.48237
2.84003
1.21619
0.256729
0.0133953
4.39558e-06
1.58337e-10
3.42618e-10
3.87241e-06
6.30972e-06
5.13749e-06
5.44602e-06
6.36756e-06
7.0345e-06
7.5911e-06
8.08926e-06
8.52153e-06
8.79894e-06
8.95684e-06
9.01249e-06
8.91783e-06
8.6692e-06
8.29011e-06
7.7645e-06
7.0834e-06
6.30245e-06
5.4464e-06
4.54285e-06
3.67127e-06
2.85945e-06
2.14626e-06
1.55231e-06
1.06428e-06
6.99097e-07
4.44688e-07
2.61953e-07
1.51717e-07
8.2899e-08
5.0958e-08
3.48907e-08
3.39365e-08
3.78898e-08
4.39835e-08
4.93083e-08
5.50003e-08
5.71157e-08
5.86117e-08
5.69736e-08
5.64325e-08
5.18808e-08
4.74011e-08
4.39571e-08
105.837
338.903
359.735
199.787
30.634
0.274098
0.178015
3.98236e-06
0.01729
1.12043
5.58771
4.26528
3.38811
3.0169
2.18954
1.26763
0.725625
0.710141
1.23421
2.14086
3.15983
3.93882
4.11584
3.51261
2.30333
1.02426
0.2326
0.0151701
0.000409858
4.42284e-07
9.30199e-09
1.83168e-06
7.76631e-06
6.11857e-06
5.33479e-06
5.9414e-06
6.60293e-06
7.02719e-06
7.37946e-06
7.63113e-06
7.76743e-06
7.82081e-06
7.73864e-06
7.51454e-06
7.16227e-06
6.68653e-06
6.07286e-06
5.36534e-06
4.60902e-06
3.82021e-06
3.06546e-06
2.37741e-06
1.7782e-06
1.28604e-06
8.80487e-07
5.83385e-07
3.76741e-07
2.27565e-07
1.37768e-07
8.1138e-08
5.39636e-08
4.00852e-08
3.80624e-08
4.03185e-08
4.40484e-08
4.78852e-08
5.09475e-08
5.23318e-08
5.29127e-08
5.10489e-08
4.99242e-08
4.56582e-08
4.16108e-08
3.79656e-08
51.4297
203.062
308.953
262.966
97.4188
2.72745
0.9003
0.103623
0.0549746
1.55613
5.04309
4.2413
4.87828
5.39664
4.62735
3.16983
1.75514
0.745981
0.314351
0.470678
1.11008
2.00157
2.79538
3.12892
2.78965
1.90141
0.89248
0.228382
0.0191052
7.91107e-05
2.94778e-05
3.01621e-09
2.91222e-08
4.44702e-06
6.44163e-06
5.19546e-06
5.30598e-06
5.91413e-06
6.308e-06
6.50268e-06
6.6058e-06
6.65884e-06
6.59624e-06
6.40294e-06
6.0912e-06
5.6689e-06
5.13204e-06
4.51176e-06
3.856e-06
3.18164e-06
2.54165e-06
1.96581e-06
1.46939e-06
1.06531e-06
7.32601e-07
4.93591e-07
3.24396e-07
2.03075e-07
1.28713e-07
8.17206e-08
5.75187e-08
4.49874e-08
4.15317e-08
4.19154e-08
4.36107e-08
4.58612e-08
4.70126e-08
4.75946e-08
4.74872e-08
4.54604e-08
4.39876e-08
3.99251e-08
3.63743e-08
3.26837e-08
36.7192
127.801
228.365
260.885
168.411
27.2026
0.680606
0.313637
0.112706
1.81043
4.88559
4.72144
6.3388
7.70502
7.39039
5.91278
4.07123
2.35878
1.05304
0.28825
0.113742
0.471533
1.17073
1.89916
2.30398
2.16986
1.55885
0.793549
0.237267
0.0275717
0.000563541
8.89038e-05
7.99754e-08
1.12867e-08
2.16636e-06
6.37704e-06
5.32729e-06
4.69721e-06
5.06634e-06
5.44988e-06
5.56554e-06
5.58278e-06
5.52952e-06
5.3684e-06
5.10817e-06
4.74412e-06
4.28338e-06
3.75587e-06
3.20062e-06
2.63386e-06
2.10135e-06
1.62486e-06
1.21733e-06
8.87587e-07
6.1656e-07
4.23788e-07
2.84442e-07
1.85021e-07
1.22375e-07
8.26255e-08
6.02886e-08
4.86047e-08
4.36522e-08
4.21888e-08
4.24047e-08
4.29884e-08
4.3151e-08
4.29104e-08
4.23398e-08
4.01571e-08
3.86762e-08
3.47207e-08
3.17006e-08
2.80849e-08
34.0913
91.143
162.714
217.368
202.595
79.5028
2.82009
1.21731
0.296009
1.90933
4.98365
5.47693
7.58196
9.56998
9.89364
8.79366
6.97692
4.97766
3.12081
1.59943
0.55418
0.0627133
0.116101
0.574862
1.17111
1.58931
1.61345
1.25061
0.70759
0.252812
0.0417439
0.00200681
1.4467e-05
3.47768e-12
4.00691e-09
2.84565e-07
4.71563e-06
5.60933e-06
4.3491e-06
4.19754e-06
4.49664e-06
4.6485e-06
4.60088e-06
4.44485e-06
4.22542e-06
3.92223e-06
3.53577e-06
3.09544e-06
2.63576e-06
2.16845e-06
1.73359e-06
1.34542e-06
1.0144e-06
7.47496e-07
5.27709e-07
3.71731e-07
2.56562e-07
1.7387e-07
1.20082e-07
8.52238e-08
6.40077e-08
5.21662e-08
4.56908e-08
4.24447e-08
4.12227e-08
4.03761e-08
3.96789e-08
3.87112e-08
3.77334e-08
3.54185e-08
3.40031e-08
3.0165e-08
2.76188e-08
2.41388e-08
36.8516
73.9801
120.929
166.91
192.758
131.382
22.4926
1.33875
0.296904
1.82033
5.28031
6.38958
8.50339
10.6925
11.593
11.1017
9.68706
7.83334
5.85884
3.96379
2.31017
1.03664
0.256755
0.0017058
0.186404
0.601442
0.978584
1.11378
0.958791
0.616755
0.26682
0.0619067
0.0057674
0.000470081
3.04456e-05
3.02013e-10
1.1834e-08
1.445e-06
5.36486e-06
4.56819e-06
3.63451e-06
3.60781e-06
3.73975e-06
3.67598e-06
3.47904e-06
3.21589e-06
2.89574e-06
2.53371e-06
2.15929e-06
1.78037e-06
1.43065e-06
1.11934e-06
8.53436e-07
6.39134e-07
4.61429e-07
3.35031e-07
2.39307e-07
1.69297e-07
1.22025e-07
9.02064e-08
6.93874e-08
5.65509e-08
4.84555e-08
4.34541e-08
4.06509e-08
3.85729e-08
3.68774e-08
3.525e-08
3.38562e-08
3.14185e-08
3.00055e-08
2.63002e-08
2.41455e-08
2.08139e-08
42.4659
66.4227
97.0214
127.724
159.601
153.849
63.0077
4.09258
1.3301
1.56061
5.66904
7.3931
9.11294
10.9894
12.1762
12.3102
11.5254
10.1595
8.47534
6.6487
4.8157
3.10986
1.6817
0.658699
0.112662
0.0105121
0.20624
0.489521
0.675436
0.674975
0.505711
0.267815
0.0862743
0.012736
0.000453884
0.0001378
2.3923e-09
2.13853e-09
1.03979e-08
2.40457e-06
4.31963e-06
3.42014e-06
2.88089e-06
2.85117e-06
2.82008e-06
2.63712e-06
2.36799e-06
2.06872e-06
1.76679e-06
1.46385e-06
1.18616e-06
9.39617e-07
7.27972e-07
5.56877e-07
4.13321e-07
3.10599e-07
2.3027e-07
1.6993e-07
1.27216e-07
9.7243e-08
7.61051e-08
6.1888e-08
5.20484e-08
4.52802e-08
4.08577e-08
3.75475e-08
3.48171e-08
3.25308e-08
3.07252e-08
2.81448e-08
2.66789e-08
2.30703e-08
2.12305e-08
1.80399e-08
48.0241
62.8146
83.1696
102.003
124.981
144.795
102.471
21.3534
2.20475
1.523
5.84887
8.431
9.53435
10.6242
11.6645
12.2187
12.0905
11.3897
10.2765
8.87972
7.29131
5.60322
3.93835
2.43624
1.23852
0.442213
0.0624617
0.0155831
0.152384
0.318108
0.403028
0.367969
0.243155
0.106247
0.0249216
0.00247761
3.23979e-06
3.88576e-05
9.78194e-12
4.8802e-09
4.07387e-07
3.09468e-06
3.45532e-06
2.54833e-06
2.15035e-06
2.0564e-06
1.91971e-06
1.69658e-06
1.45247e-06
1.21021e-06
9.91959e-07
7.9905e-07
6.31993e-07
4.95894e-07
3.79828e-07
2.95835e-07
2.27578e-07
1.74617e-07
1.34931e-07
1.05943e-07
8.39325e-08
6.81812e-08
5.64943e-08
4.78963e-08
4.1862e-08
3.72567e-08
3.35089e-08
3.0531e-08
2.82948e-08
2.55305e-08
2.39713e-08
2.04123e-08
1.88139e-08
1.57392e-08
49.87
58.8328
72.659
84.5182
98.2704
120.234
119.715
54.4446
7.06682
2.19571
5.54375
9.32482
9.8938
9.89375
10.3523
10.9702
11.3237
11.272
10.8322
10.0645
9.01334
7.72186
6.25832
4.72081
3.24013
1.95375
0.974532
0.351725
0.0584139
0.00529862
0.0772071
0.169323
0.212394
0.184052
0.109085
0.0392918
0.00732535
0.000452487
0.00016422
1.19613e-09
4.15893e-10
5.12757e-14
8.15279e-07
2.95676e-06
2.64023e-06
1.82334e-06
1.49102e-06
1.3486e-06
1.1949e-06
1.01207e-06
8.41303e-07
6.91257e-07
5.60398e-07
4.5251e-07
3.58578e-07
2.89029e-07
2.30457e-07
1.82809e-07
1.45214e-07
1.1623e-07
9.30124e-08
7.55152e-08
6.19193e-08
5.13868e-08
4.36822e-08
3.77491e-08
3.29689e-08
2.92504e-08
2.65173e-08
2.35086e-08
2.18171e-08
1.82721e-08
1.68432e-08
1.3842e-08
44.0836
49.6877
59.1986
67.653
77.2113
93.5767
112.746
85.8209
24.9262
4.69016
5.25904
9.67537
10.2354
9.13028
8.70722
8.99839
9.51387
9.91611