/*--------------------------------*- C++ -*----------------------------------*\
| =========                 |                                                 |
| \\      /  F ield         | OpenFOAM: The Open Source CFD Toolbox           |
|  \\    /   O peration     | Version:  2312                                  |
|   \\  /    A nd           | Website:  www.openfoam.com                      |
|    \\/     M anipulation  |                                                 |
\*---------------------------------------------------------------------------*/
FoamFile
{
    version     2.0;
    format      ascii;
    arch        "LSB;label=32;scalar=64";
    class       volScalarField;
    location    "350";
    object      turbulenceProperties:I;
}
// * * * * * * * * * * * * * * * * * * * * * * * * * * * * * * * * * * * * * //

dimensions      [0 0 0 0 0 0 0];

internalField   nonuniform List<scalar> 
11040
(
0.0646931
0.109617
0.0912205
0.203671
0.285532
0.292515
0.29216
0.288766
0.289095
0.28939
0.289332
0.289773
0.291189
0.293839
0.297128
0.300625
0.303968
0.307081
0.310098
0.312106
0.312923
0.312343
0.310235
0.306789
0.302325
0.296589
0.289618
0.282414
0.277265
0.274965
0.274493
0.276734
0.282207
0.29085
0.308294
0.350183
0.372342
0.473435
1
0.404052
0.547692
0.0185153
0.0305672
0.105057
1
0.345126
0.145224
0.0753886
0.0571741
0.0818309
0.0971027
0.106754
0.114524
0.121335
0.128013
0.134608
0.140584
0.145512
0.149329
0.152273
0.153224
0.151861
0.147906
0.141381
0.132988
0.123853
0.113515
0.101889
0.0895693
0.0792437
0.0716911
0.06544
0.0628541
0.0667146
0.0769849
0.0985297
0.138838
0.218907
0.445014
1
0.481108
0.494681
0.015249
0.0107047
0.0243534
0.136894
1
0.605587
0.27927
0.173891
0.114133
0.069703
0.0242909
0.0619332
0.081653
0.094073
0.102929
0.108684
0.112785
0.115818
0.11745
0.116722
0.112734
0.105668
0.0961833
0.0858526
0.0766144
0.0672434
0.0581173
0.0497359
0.0418428
0.0339701
0.0366585
0.0537062
0.0759701
0.105352
0.145913
0.209164
0.326088
0.616051
1
0.839482
0.512561
0.0133108
0.0121503
0.00449977
0.0267071
0.137414
0.878234
1
0.45696
0.277747
0.195485
0.154923
0.125493
0.0984049
0.0803759
0.0700154
0.0695601
0.0743579
0.0787332
0.0815372
0.0818159
0.0795135
0.0757231
0.0723378
0.0702981
0.0696762
0.0695007
0.0684101
0.0652137
0.0585372
0.0459819
0.0258236
0.0583431
0.0927745
0.132422
0.185045
0.264292
0.403663
0.707923
1
1
0.607309
0.0122095
0.0111294
0.00938896
0.00274896
0.026301
0.122464
0.524246
1
0.769006
0.425703
0.29578
0.239721
0.199335
0.174806
0.154834
0.139548
0.12811
0.119598
0.114074
0.110516
0.107912
0.105579
0.103947
0.102954
0.101991
0.100278
0.0971891
0.0920611
0.0836627
0.0699542
0.0482896
0.0672925
0.11039
0.158934
0.221305
0.311435
0.460306
0.744001
1
1
0.770232
0.010918
0.00950408
0.0095012
0.00682389
0.00150127
0.021773
0.0987501
0.344472
1
1
0.665874
0.448252
0.338614
0.285592
0.250183
0.224811
0.206559
0.19264
0.182598
0.174716
0.167529
0.160189
0.153328
0.147279
0.141896
0.136584
0.130649
0.123116
0.11238
0.0959623
0.0683883
0.0690452
0.123532
0.181406
0.251863
0.348253
0.495579
0.739951
1
1
0.95247
0.00964145
0.00858881
0.00800124
0.00814674
0.00498229
0.000264547
0.0140146
0.0725165
0.23068
0.813531
1
1
0.67027
0.485928
0.394938
0.338916
0.302824
0.276711
0.259173
0.245821
0.233983
0.221881
0.21029
0.199553
0.189849
0.180783
0.171648
0.161199
0.147585
0.128009
0.0958537
0.056818
0.129229
0.197788
0.274724
0.372606
0.50925
0.70753
0.963979
1
1
0.00838711
0.00773635
0.00714429
0.00687853
0.00719656
0.00298092
0.00230702
0.00664299
0.048155
0.150931
0.423598
1
1
1
0.71494
0.539341
0.452577
0.395961
0.360015
0.334151
0.3146
0.297083
0.281041
0.266057
0.25177
0.238022
0.224692
0.210514
0.193385
0.17049
0.135735
0.0667638
0.121661
0.205041
0.287556
0.382882
0.502842
0.656426
0.835903
1
1
0.00728927
0.00681518
0.00647781
0.0060535
0.00607872
0.00590727
0.00330264
0.00188127
0.0033375
0.0288984
0.0938102
0.246249
0.662246
1
1
1
0.777054
0.60487
0.517002
0.461396
0.42467
0.396408
0.373263
0.352658
0.333517
0.314999
0.296419
0.276883
0.255106
0.22842
0.191839
0.13442
0.0945027
0.199087
0.287888
0.378441
0.479146
0.593502
0.717196
0.854399
0.956954
0.00630792
0.00597382
0.00573212
0.00551125
0.00523677
0.00525295
0.00509316
0.00313336
0.00126759
7.03962e-05
0.0134636
0.0539561
0.14445
0.343911
0.891586
1
1
1
0.860455
0.69033
0.601828
0.545942
0.506043
0.473291
0.444974
0.419156
0.39447
0.36941
0.34217
0.310423
0.270818
0.218375
0.151948
0.18364
0.275297
0.360311
0.442628
0.524227
0.605799
0.695002
0.790905
0.00544453
0.00520593
0.0050357
0.0048989
0.00474207
0.00456681
0.00451366
0.00451598
0.0030294
0.000790382
0.00181216
0.00108182
0.0257227
0.0799753
0.190282
0.421705
1
1
1
1
0.979671
0.812963
0.722549
0.658517
0.608263
0.566139
0.529265
0.494944
0.460535
0.423603
0.38122
0.330584
0.271317
0.229115
0.26683
0.335948
0.400163
0.454667
0.502199
0.553678
0.618144
0.0046894
0.00451734
0.00439878
0.00430635
0.00421999
0.00411838
0.00398626
0.00394258
0.00395114
0.00324805
0.000671506
0.000391203
0.00374913
0.00891256
0.038851
0.101808
0.221843
0.459202
1
1
1
1
1
0.955881
0.856129
0.783402
0.724759
0.674268
0.628191
0.582912
0.535103
0.481966
0.42335
0.366032
0.332611
0.342094
0.371824
0.396984
0.413011
0.431478
0.461238
0.00403186
0.00390849
0.00382342
0.00376438
0.00371224
0.0036596
0.003594
0.0035048
0.00345892
0.0034721
0.00318294
0.00145787
0.00045233
0.00133754
0.000761784
0.0148416
0.0481571
0.113831
0.231714
0.44871
0.884851
1
1
1
1
1
0.945419
0.896473
0.854911
0.81391
0.768929
0.716104
0.653435
0.582797
0.512774
0.454948
0.41516
0.386946
0.362506
0.342908
0.335345
0.00346154
0.00337356
0.00331237
0.00327447
0.00324625
0.00321939
0.0031903
0.00315093
0.00309628
0.00304584
0.00307872
0.00297742
0.00217088
0.000612975
0.000216036
0.00291638
0.00323582
0.0181163
0.0514919
0.113578
0.21934
0.391108
0.661107
1
1
1
1
0.99691
0.960898
0.967988
0.995634
1
1
0.995001
0.904401
0.777658
0.646498
0.530969
0.43588
0.358307
0.294281
0.00296769
0.00290562
0.00286192
0.00283793
0.00282488
0.00281536
0.00280558
0.00279303
0.00277442
0.00274123
0.00270599
0.0027235
0.00268627
0.0023842
0.000857734
0.000344548
0.000528746
0.00344399
0.00195659
0.0171648
0.0477752
0.0985897
0.17377
0.279656
0.423312
0.601214
0.775354
0.884877
0.918153
0.919756
0.933441
0.985284
1
1
1
1
1
1
0.831243
0.615474
0.465158
0.00254081
0.00249757
0.00246665
0.00245211
0.0024482
0.00244932
0.00245194
0.00245387
0.00245329
0.00244845
0.00243247
0.00241603
0.00240577
0.00244159
0.00229106
0.00191095
0.000532565
0.000135326
0.000280541
0.00337088
0.000600258
0.0126496
0.0330785
0.0648915
0.109438
0.167627
0.239842
0.325093
0.418864
0.511976
0.594981
0.666057
0.733771
0.814594
0.934559
1
1
1
1
1
1
0.00217524
0.00214545
0.00212405
0.002116
0.00211751
0.00212451
0.002134
0.00214423
0.00215369
0.00216118
0.00216511
0.00216387
0.00215625
0.00215415
0.0021641
0.00218357
0.00197237
0.00130891
0.0004126
0.000112518
8.21235e-05
0.00270763
0.00548909
0.00501842
0.0137501
0.0292684
0.0511274
0.0790374
0.112316
0.14982
0.190241
0.232162
0.274152
0.315269
0.355426
0.395857
0.439472
0.491058
0.555269
0.638616
0.743478
0.00187373
0.00185337
0.00183912
0.00183575
0.00184073
0.00185089
0.00186412
0.00187859
0.0018933
0.00190739
0.00191966
0.00192953
0.00193652
0.00193836
0.00193983
0.00194986
0.00198403
0.0019484
0.00175749
0.00108061
0.000354467
0.000109747
0
0.000913739
0.00315052
0.00524435
0.000979483
0.00625776
0.0125919
0.0221578
0.0342839
0.0481274
0.0629197
0.0780488
0.0930037
0.107509
0.121592
0.135771
0.150245
0.165705
0.181829
0.0016316
0.00161771
0.00160853
0.00160834
0.00161535
0.0016272
0.00164223
0.0016591
0.00167681
0.00169451
0.00171127
0.00172655
0.0017402
0.0017516
0.00176026
0.00176548
0.00177852
0.00179986
0.00182354
0.00178445
0.00156871
0.00107273
0.000337496
0.000120091
6.4709e-05
0
0.000108166
0.00155602
0.00376242
0.00549434
0.00697218
0.00394768
0.00580442
0.00672294
0.00710574
0.00978986
0.0147618
0.0204044
0.0261971
0.032103
0.0375216
0.00143549
0.00142593
0.00142023
0.00142202
0.00143003
0.00144246
0.00145795
0.00147554
0.00149427
0.00151345
0.00153256
0.00155084
0.00156804
0.00158396
0.00159839
0.00161073
0.0016215
0.00163266
0.00164982
0.00167822
0.00169379
0.00167626
0.00152445
0.00122876
0.000681238
0.000251901
0.000109236
8.00648e-05
3.82447e-05
0
0
0.000538853
0.00148406
0.0028286
0.00417041
0.00527269
0.00612989
0.00686348
0.00766831
0.00404321
0.00464738
0.00127274
0.00126618
0.00126299
0.001266
0.00127447
0.00128688
0.00130222
0.00131961
0.00133827
0.00135767
0.00137733
0.00139666
0.00141542
0.00143336
0.00145033
0.00146619
0.00148086
0.00149431
0.0015071
0.00152198
0.00154354
0.00157143
0.00160282
0.00160267
0.00155331
0.00142602
0.00121318
0.000906682
0.000445709
0.000194691
9.94916e-05
8.48902e-05
6.95073e-05
5.34473e-05
3.57725e-05
1.70561e-05
0
0
0
0.000281534
0.000337287
0.00113556
0.00113112
0.00112973
0.00113358
0.0011421
0.0011542
0.001169
0.00118574
0.00120383
0.00122272
0.00124195
0.00126125
0.00128021
0.00129863
0.0013164
0.00133337
0.00134953
0.00136488
0.0013795
0.00139338
0.00140812
0.00142452
0.00144761
0.00147578
0.00150479
0.00152931
0.00153572
0.00151477
0.00146372
0.00136791
0.00122931
0.00106689
0.000891347
0.000699235
0.000478999
0.000234132
0.000135531
8.57392e-05
8.02495e-05
7.51657e-05
7.05471e-05
0.0010183
0.00101542
0.00101535
0.00101969
0.00102804
0.00103965
0.00105368
0.00106955
0.00108668
0.00110458
0.00112295
0.00114157
0.00115998
0.00117801
0.00119553
0.00121243
0.00122864
0.00124413
0.00125901
0.00127321
0.00128731
0.00130141
0.00131539
0.00133057
0.00134764
0.00136822
0.0013918
0.00141548
0.00143718
0.00145538
0.00146336
0.00145892
0.00144448
0.00142109
0.00138919
0.00134911
0.0013023
0.00124662
0.0011914
0.00113627
0.00109281
0.00091701
0.000915233
0.000916136
0.000920778
0.000928866
0.000939864
0.000953062
0.000967922
0.000983942
0.0010007
0.00101795
0.00103541
0.00105283
0.00106993
0.00108658
0.00110271
0.0011182
0.00113299
0.00114711
0.00116049
0.00117362
0.0011867
0.00119906
0.00121059
0.00122161
0.00123253
0.0012439
0.00125603
0.00126885
0.00128259
0.00129652
0.00130963
0.00132115
0.00133069
0.00133808
0.00134316
0.00134575
0.00134543
0.00134193
0.00133267
0.00133196
0.000828689
0.000827746
0.000829411
0.000834212
0.000841979
0.000852329
0.000864665
0.000878482
0.000893336
0.000908895
0.000924821
0.000940976
0.000957214
0.000973144
0.000988629
0.00100361
0.00101797
0.00103163
0.00104457
0.00105667
0.00106831
0.00107977
0.00109048
0.00110025
0.00110914
0.00111722
0.00112454
0.00113114
0.00113711
0.00114246
0.00114731
0.00115164
0.00115536
0.00115836
0.00116062
0.00116206
0.00116242
0.0011615
0.0011602
0.00115471
0.00115992
0.00075113
0.000750765
0.000753028
0.000757909
0.000765339
0.000775036
0.000786533
0.000799318
0.000813033
0.000827353
0.00084196
0.000856797
0.000871725
0.000886359
0.000900552
0.000914224
0.000927283
0.000939632
0.000951214
0.00096189
0.00097199
0.00098176
0.000990728
0.000998697
0.00100575
0.00101195
0.00101732
0.00102182
0.00102545
0.0010282
0.00103009
0.00103112
0.00103124
0.00103048
0.00102892
0.00102662
0.00102344
0.0010192
0.00101508
0.00100695
0.00101177
0.000682491
0.00068267
0.00068536
0.000690237
0.000697325
0.000706419
0.000717114
0.000728932
0.000741554
0.00075468
0.000768046
0.000781575
0.000795132
0.00080846
0.000821349
0.000833692
0.000845427
0.000856434
0.000866665
0.000875941
0.000884583
0.000892829
0.000900268
0.000906705
0.000912215
0.000916885
0.000920737
0.000923777
0.000926003
0.000927447
0.000928112
0.000928043
0.000927168
0.000925539
0.000923241
0.000920369
0.000916784
0.000912307
0.000908308
0.000900053
0.000907022
0.000621502
0.000622056
0.000625058
0.00062994
0.000636707
0.00064525
0.000655195
0.000666119
0.000677724
0.000689744
0.000701957
0.000714222
0.000726469
0.000738558
0.000750197
0.000761274
0.000771735
0.000781473
0.000790433
0.000798432
0.00080577
0.000812712
0.000818875
0.000824097
0.000828429
0.000831977
0.000834761
0.000836813
0.000838145
0.000838811
0.000838826
0.00083825
0.000837047
0.000835275
0.000833032
0.000830416
0.000827295
0.000823466
0.000820469
0.000812897
0.000822836
0.000567
0.000567912
0.000571129
0.000575986
0.000582459
0.000590497
0.000599749
0.000609859
0.000620524
0.000631534
0.000642672
0.000653772
0.000664827
0.000675755
0.000686226
0.000696141
0.000705426
0.000714011
0.000721827
0.000728713
0.000734938
0.0007408
0.000745945
0.00075023
0.000753709
0.000756482
0.000758589
0.000760062
0.00076094
0.000761261
0.000761073
0.000760435
0.000759332
0.000757814
0.000755996
0.000753967
0.000751603
0.000748666
0.000746865
0.000740109
0.000753098
0.000518134
0.000519277
0.000522704
0.000527528
0.000533721
0.000541308
0.000549948
0.000559319
0.000569141
0.000579233
0.000589393
0.000599465
0.000609457
0.000619287
0.000628697
0.000637566
0.00064581
0.000653377
0.000660205
0.000666143
0.000671457
0.000676449
0.000680807
0.000684401
0.000687297
0.000689587
0.000691318
0.000692525
0.00069326
0.000693565
0.000693487
0.000693089
0.000692362
0.000691348
0.000690159
0.000688878
0.000687388
0.000685413
0.000684802
0.000678826
0.000694679
0.000474091
0.000475491
0.000479058
0.000483834
0.000489819
0.000497011
0.000505114
0.000513823
0.000522898
0.000532167
0.000541461
0.000550632
0.000559669
0.000568504
0.000576986
0.000584936
0.000592288
0.000598979
0.000604975
0.000610126
0.000614714
0.000619026
0.000622799
0.000625906
0.000628419
0.000630432
0.000632007
0.000633168
0.000633965
0.000634448
0.000634663
0.00063466
0.000634429
0.000634013
0.000633515
0.000633011
0.000632379
0.000631323
0.000631795
0.000626507
0.000644896
0.000434265
0.000435897
0.000439629
0.000444365
0.000450164
0.000457012
0.000464637
0.000472754
0.00048117
0.000489707
0.000498235
0.000506614
0.000514802
0.000522762
0.000530439
0.000537595
0.000544181
0.000550142
0.000555465
0.000559997
0.000564031
0.000567849
0.00057121
0.000574012
0.000576319
0.000578215
0.00057977
0.000581016
0.000581992
0.000582742
0.000583312
0.000583756
0.00058405
0.000584239
0.000584412
0.000584646
0.000584808
0.00058459
0.000586008
0.000581341
0.000601882
0.000398168
0.000400052
0.000403874
0.000408605
0.000414246
0.000420772
0.000427978
0.000435587
0.000443424
0.00045133
0.000459185
0.00046687
0.000474311
0.00048153
0.000488503
0.000494986
0.000500924
0.000506273
0.000511038
0.000515091
0.000518704
0.000522168
0.000525251
0.000527865
0.000530076
0.000531978
0.000533614
0.000535025
0.000536247
0.000537323
0.000538284
0.000539185
0.000539997
0.000540759
0.000541543
0.00054242
0.000543258
0.000543744
0.000545917
0.000541759
0.000563972
0.000365329
0.00036745
0.0003714
0.000376109
0.000381588
0.000387873
0.000394725
0.000401906
0.000409242
0.000416606
0.000423876
0.000430966
0.000437779
0.000444379
0.000450725
0.000456645
0.000462048
0.00046691
0.000471231
0.000474925
0.000478234
0.000481446
0.000484347
0.000486862
0.000489046
0.000491001
0.000492761
0.000494358
0.000495829
0.00049722
0.000498549
0.000499861
0.000501125
0.000502378
0.000503675
0.000505075
0.000506452
0.000507487
0.00051021
0.000506464
0.000529835
0.000335404
0.000337765
0.000341796
0.000346503
0.000351884
0.000357965
0.000364523
0.000371339
0.000378247
0.000385143
0.000391914
0.000398489
0.000404777
0.000410835
0.000416642
0.000422086
0.000427059
0.000431537
0.000435512
0.000438928
0.000442029
0.000445076
0.000447875
0.000450359
0.000452576
0.000454616
0.000456528
0.000458334
0.000460057
0.000461733
0.000463387
0.000465054
0.000466701
0.000468352
0.000470059
0.000471868
0.000473663
0.00047512
0.000478224
0.000474845
0.00049887
0.000308057
0.000310654
0.000314789
0.000319501
0.000324812
0.000330725
0.000337039
0.000343537
0.000350085
0.000356581
0.000362931
0.000369067
0.000374924
0.000380518
0.000385866
0.000390909
0.000395521
0.000399678
0.00040339
0.000406594
0.000409524
0.000412428
0.000415144
0.000417596
0.00041985
0.000421981
0.000424021
0.000425998
0.000427937
0.000429863
0.000431787
0.000433737
0.000435683
0.00043764
0.000439649
0.000441746
0.000443825
0.00044558
0.000448896
0.000445853
0.000469993
0.000283053
0.00028587
0.000290082
0.000294828
0.00030008
0.000305856
0.000311954
0.000318192
0.000324435
0.000330594
0.000336589
0.000342359
0.000347851
0.000353065
0.000358036
0.000362747
0.00036707
0.000370976
0.000374478
0.000377533
0.000380361
0.000383179
0.000385861
0.000388329
0.000390631
0.000392852
0.000395026
0.000397164
0.000399281
0.000401395
0.000403525
0.000405678
0.000407831
0.000409989
0.000412194
0.000414462
0.000416704
0.000418629
0.000421989
0.000419256
0.000442947
0.000260129
0.000263165
0.000267462
0.000272214
0.000277431
0.000283083
0.000289008
0.00029503
0.000301023
0.000306898
0.00031259
0.000318047
0.000323237
0.000328129
0.000332792
0.000337228
0.000341314
0.00034502
0.000348371
0.000351331
0.000354105
0.000356875
0.000359536
0.000362015
0.000364366
0.000366651
0.000368905
0.000371132
0.000373354
0.000375575
0.000377814
0.000380073
0.000382334
0.000384591
0.000386876
0.000389204
0.000391488
0.000393475
0.00039673
0.000394283
0.000416956
0.000239117
0.000242339
0.000246684
0.000251478
0.000256646
0.000262185
0.000267958
0.00027379
0.000279569
0.000285208
0.000290649
0.000295845
0.000300773
0.000305402
0.000309818
0.000314033
0.000317929
0.000321472
0.00032469
0.000327559
0.000330262
0.000332969
0.000335593
0.000338058
0.000340408
0.000342709
0.000344992
0.00034726
0.000349524
0.000351795
0.000354083
0.000356391
0.000358689
0.000360979
0.000363277
0.000365601
0.000367857
0.000369852
0.000372925
0.000370822
0.000392048
0.000219805
0.000223193
0.000227595
0.000232394
0.000237541
0.000242989
0.000248594
0.000254232
0.000259794
0.000265218
0.000270449
0.00027544
0.000280158
0.000284574
0.000288765
0.000292772
0.000296523
0.000299975
0.000303136
0.000305998
0.000308705
0.000311391
0.000314001
0.000316463
0.000318815
0.000321113
0.000323386
0.000325639
0.00032788
0.000330112
0.000332345
0.000334581
0.000336794
0.000338977
0.00034114
0.0003433
0.000345364
0.000347191
0.000349862
0.000348055
0.000366927
0.000202084
0.000205602
0.000210016
0.000214826
0.000219907
0.00022524
0.000230705
0.000236165
0.000241522
0.00024672
0.000251725
0.000256522
0.000261083
0.000265368
0.000269398
0.000273189
0.000276697
0.000279914
0.00028287
0.000285576
0.000288161
0.000290743
0.000293275
0.000295686
0.000298001
0.000300273
0.000302518
0.000304742
0.000306947
0.000309142
0.00031132
0.000313491
0.000315622
0.000317715
0.00031976
0.000321776
0.000323667
0.000325359
0.000327653
0.0003262
0.000342761
0.000185839
0.000189485
0.000193904
0.000198628
0.000203565
0.000208698
0.000213961
0.00021926
0.000224499
0.000229573
0.000234408
0.000238977
0.000243308
0.000247449
0.000251488
0.000255437
0.000259189
0.000262641
0.000265777
0.000268613
0.000271256
0.000273807
0.00027626
0.000278557
0.000280724
0.000282823
0.000284866
0.000286867
0.000288819
0.00029074
0.000292622
0.00029447
0.000296255
0.00029798
0.000299628
0.000301217
0.000302647
0.000303907
0.000305472
0.000304329
0.000316708
0.000171005
0.000174683
0.000179059
0.000183693
0.000188415
0.000193235
0.00019814
0.000203107
0.000208109
0.000213097
0.000217982
0.000222626
0.000226885
0.000230645
0.000233941
0.000236964
0.000239889
0.000242734
0.000245492
0.00024812
0.000250659
0.000253185
0.000255665
0.000258028
0.000260279
0.000262448
0.000264548
0.000266582
0.000268545
0.000270437
0.000272257
0.000274004
0.000275658
0.000277211
0.000278651
0.000279988
0.000281131
0.00028212
0.000283157
0.000282233
0.000292182
0.000157383
0.000160935
0.000165109
0.00016954
0.00017409
0.000178742
0.000183426
0.000188037
0.000192535
0.000196941
0.000201353
0.000205899
0.000210677
0.000215677
0.000220763
0.000225563
0.000229731
0.000233259
0.000236276
0.00023892
0.000241291
0.000243443
0.000245459
0.000247305
0.000249014
0.000250624
0.00025215
0.000253593
0.000254953
0.000256227
0.00025741
0.000258494
0.000259463
0.000260304
0.000261
0.000261554
0.000261874
0.000262065
0.000261902
0.000261336
0.000263683
0.000144944
0.000148298
0.000152009
0.000155855
0.000159861
0.000164203
0.000168899
0.000173823
0.000178723
0.000183289
0.000187224
0.000190329
0.000192592
0.000194194
0.000195539
0.000197434
0.00020027
0.000203569
0.000206966
0.000210249
0.000213388
0.000216426
0.000219304
0.000221964
0.000224402
0.000226637
0.000228686
0.000230546
0.000232215
0.000233691
0.000234974
0.000236054
0.000236919
0.000237558
0.000237952
0.000238107
0.000237928
0.000237599
0.000236658
0.000235675
0.000237767
0.000133841
0.000137447
0.000140979
0.00014415
0.000147033
0.000149929
0.000153115
0.000156838
0.000161343
0.000166801
0.000173262
0.00018057
0.000188386
0.000196239
0.000203644
0.000209471
0.000213293
0.000216113
0.000218361
0.000220238
0.000221763
0.000223003
0.000224068
0.000224956
0.00022569
0.000226296
0.000226781
0.00022715
0.000227395
0.000227509
0.000227475
0.00022728
0.000226899
0.000226308
0.00022548
0.000224406
0.00022298
0.000221419
0.000218765
0.000218402
0.000206275
0.000124508
0.000128512
0.000132479
0.000136038
0.000138949
0.000141194
0.000142834
0.000143983
0.000144863
0.000145732
0.000146837
0.000148333
0.000150232
0.000152357
0.000154412
0.000157512
0.000161941
0.000166706
0.000171481
0.00017605
0.000180381
0.000184467
0.000188278
0.000191799
0.000194998
0.000197876
0.000200422
0.000202632
0.000204487
0.000205977
0.000207075
0.000207762
0.00020801
0.000207794
0.000207066
0.000205812
0.000203906
0.000201589
0.000197937
0.000195235
0.000190528
0.000120562
0.000122315
0.000122863
0.000124481
0.000129625
0.000138887
0.000150688
0.000163051
0.000174628
0.000184735
0.00019309
0.000199659
0.000204562
0.000208007
0.000210321
0.000210614
0.00020947
0.000208047
0.000206718
0.000205569
0.000204481
0.000203962
0.000203606
0.000203424
0.000203367
0.000203372
0.000203389
0.000203352
0.000203205
0.000202875
0.000202304
0.000201423
0.000200174
0.00019848
0.000196319
0.000193647
0.000190476
0.000186724
0.000182777
0.000177917
0.000176072
0.420909
0.305616
0.214982
0.108234
0.0235298
0.00881731
0.00102633
0.00385867
0.000601219
0.00463108
0.109449
0.144428
0.11908
0.0880356
0.112986
0.137001
0.151943
0.160188
0.1634
0.161667
0.154467
0.140777
0.119278
0.0892466
0.0525377
0.0185342
0.000275794
0.00021632
0.000360251
0.00104894
0.00108344
0.00104015
0.00107107
0.00110117
0.00112333
0.00114298
0.00116072
0.00117343
0.00118219
0.0011855
0.00118484
0.00118045
0.00117138
0.00115795
0.00114007
0.00111711
0.00108838
0.0010541
0.00101372
0.000967207
0.000915808
0.000859296
0.000799273
0.00073649
0.000670629
0.000603774
0.000538357
0.000471582
0.000409462
0.000349808
0.000305462
0.000273212
0.000271
0.000281055
0.000294782
0.000306308
0.000316774
0.000321655
0.000325398
0.000324861
0.000324946
0.000319958
0.000313564
0.000310141
0.629558
0.458063
0.322565
0.196181
0.0598491
0.0259943
0.00725976
0.000960009
0.002665
0.0307356
0.121901
0.143853
0.129613
0.116529
0.111048
0.114043
0.124383
0.135376
0.144398
0.149798
0.15068
0.146052
0.134563
0.114926
0.086503
0.0512366
0.0184177
0.0010287
9.87789e-05
0.000117783
0.000981263
0.00110695
0.00104357
0.00105355
0.00109048
0.00111253
0.00112822
0.00114048
0.00114948
0.00115265
0.0011517
0.00114745
0.00113846
0.00112461
0.00110652
0.00108325
0.0010537
0.00101884
0.000978334
0.000931482
0.000880304
0.000824742
0.000765958
0.000705213
0.000640964
0.000576759
0.000515097
0.000451483
0.000394237
0.000339403
0.000301033
0.000274377
0.000273087
0.000281389
0.000292816
0.000302108
0.000311315
0.00031514
0.000318067
0.00031674
0.000316834
0.000311205
0.000304947
0.000300375
0.731277
0.591249
0.431782
0.287849
0.139407
0.0305417
0.0139166
0.0008703
0.00673699
0.0467756
0.124035
0.141975
0.146332
0.147163
0.136507
0.117741
0.100482
0.0977639
0.109774
0.123318
0.133209
0.138003
0.136562
0.127721
0.110341
0.0841081
0.051014
0.0198189
0.00583832
0.00058107
0.000243532
0.000811027
0.00116323
0.00108514
0.00104147
0.00106455
0.00108755
0.00109886
0.0011065
0.00110985
0.00110881
0.00110481
0.00109608
0.0010824
0.00106408
0.00104086
0.00101137
0.000976257
0.000936142
0.000890024
0.000839773
0.000786072
0.000729553
0.000671828
0.00061054
0.000550695
0.000493781
0.000435612
0.000384681
0.000337501
0.000305345
0.000284073
0.000281074
0.000285862
0.000293019
0.000300021
0.00030555
0.000308473
0.000310198
0.000308332
0.000307446
0.000301595
0.00029534
0.000289728
0.80793
0.719744
0.545318
0.384201
0.22621
0.0688104
0.0339838
0.0115369
0.00997407
0.0557409
0.124948
0.145964
0.165134
0.175334
0.169463
0.152292
0.12874
0.101558
0.0799384
0.086499
0.105061
0.119542
0.127696
0.128873
0.122158
0.106847
0.0828396
0.0522391
0.0219429
0.00249192
0.00192396
0.000187897
0.000312426
0.000998984
0.00109346
0.00102786
0.0010275
0.00105034
0.00106173
0.00106396
0.00106232
0.00105871
0.00105056
0.00103731
0.00101925
0.00099624
0.00096728
0.000932607
0.000893237
0.000848391
0.000799728
0.000748216
0.000694447
0.000640026
0.000582412
0.000527638
0.000475281
0.000423138
0.000378042
0.000338021
0.000310222
0.000292394
0.00028731
0.000288717
0.000292378
0.000296909
0.000299599
0.000301383
0.000302072
0.000299681
0.000298028
0.000291808
0.000285729
0.000279223
0.905848
0.861826
0.670957
0.489671
0.319455
0.14991
0.0426545
0.019333
0.0131297
0.060133
0.126038
0.153246
0.181403
0.197963
0.197097
0.184165
0.164296
0.139884
0.111544
0.0788017
0.0611365
0.0856058
0.105672
0.117392
0.121096
0.116588
0.103557
0.0823089
0.0545299
0.0256506
0.00588222
0.00316433
0.000387179
0.000250266
0.000829365
0.0010845
0.00102802
0.000989373
0.00100279
0.00101577
0.00101546
0.00101065
0.00100276
0.000990116
0.000972911
0.000950464
0.000922261
0.000888693
0.000850648
0.000807519
0.000761084
0.000712148
0.000661483
0.000610636
0.000557189
0.000507416
0.000459567
0.000413165
0.000373149
0.00033887
0.000313858
0.000298107
0.000290945
0.000289248
0.00029042
0.000292249
0.000293366
0.000293809
0.000293671
0.000290676
0.000288741
0.000281943
0.000276214
0.000268968
1
1
0.825369
0.61283
0.423479
0.240857
0.0763966
0.0417337
0.0201515
0.0608354
0.127024
0.161603
0.19505
0.216545
0.220564
0.211896
0.195845
0.175489
0.152107
0.125466
0.0940289
0.053405
0.0611725
0.0898122
0.105717
0.112259
0.110252
0.100034
0.0820609
0.0575423
0.0306005
0.0100606
0.00142092
4.09599e-05
0.000196392
0.000510843
0.000995849
0.00103591
0.000963518
0.000949156
0.000960412
0.00096317
0.000955407
0.000942129
0.00092552
0.000904063
0.000876937
0.000844756
0.000808525
0.000767591
0.000723944
0.000678143
0.000631024
0.000584178
0.000535318
0.000490596
0.000447529
0.000406562
0.000371239
0.000341417
0.000318553
0.000303424
0.000294314
0.000289741
0.000288451
0.000287799
0.000287387
0.000286461
0.000285465
0.000281827
0.00027973
0.000272338
0.000266989
0.000259097
1
1
1
0.774134
0.548614
0.344171
0.15851
0.0565021
0.0202384
0.0577606
0.127535
0.16967
0.206192
0.23142
0.240156
0.235775
0.223326
0.206354
0.18666
0.164711
0.140241
0.112102
0.0774428
0.0217091
0.0690867
0.0912259
0.101379
0.102523
0.0957023
0.0815142
0.0607524
0.0363297
0.0154515
0.00639288
0.00192877
0.000109207
0.000246998
0.000735684
0.00101821
0.000969748
0.000908556
0.000901639
0.000904944
0.000896292
0.000879477
0.000858175
0.000832226
0.000801644
0.000767513
0.000729159
0.000688693
0.000646546
0.000603422
0.000560999
0.000517069
0.000477562
0.000439475
0.000403628
0.000372575
0.000346207
0.000324999
0.0003096
0.00029869
0.000291496
0.000287513
0.000284614
0.000282272
0.000279941
0.000277948
0.000273631
0.000271244
0.000263286
0.000258287
0.000249782
1
1
1
1
0.72062
0.470851
0.257335
0.0937527
0.0471085
0.0523391
0.126526
0.176576
0.215112
0.242819
0.255894
0.255948
0.247196
0.233378
0.216688
0.198032
0.177584
0.155023
0.129758
0.100458
0.0633906
0.0344493
0.0713746
0.0871162
0.0924645
0.0897719
0.0798661
0.0633982
0.0423734
0.0211412
0.00562296
0.00386652
0.000171155
0.000166453
0.000236268
0.000821851
0.000950406
0.000888698
0.000845546
0.000838856
0.000832453
0.000814712
0.000789544
0.000760282
0.000728378
0.000692918
0.000655935
0.00061781
0.000579024
0.000541283
0.000502458
0.000468159
0.000434928
0.00040376
0.000376306
0.000352661
0.000332535
0.000316639
0.00030409
0.000294546
0.000287934
0.000282776
0.00027833
0.000274475
0.000271391
0.000266315
0.000263504
0.000254913
0.00025022
0.000241105
1
1
1
1
1
0.652132
0.380518
0.177504
0.0711297
0.0526991
0.122323
0.181514
0.222436
0.251209
0.267757
0.272282
0.267551
0.257043
0.243209
0.227319
0.209836
0.190754
0.1699
0.146908
0.12125
0.0918335
0.055272
0.0383871
0.0666704
0.0784581
0.080952
0.0760364
0.0645265
0.0476048
0.0280011
0.0117191
0.000901872
0.00216087
4.95804e-05
0.000196705
0.000531303
0.000865781
0.000886506
0.000814338
0.000775781
0.000763593
0.000747435
0.000721905
0.000692086
0.000659396
0.000626089
0.000592271
0.000558062
0.000525107
0.000491385
0.000462039
0.0004333
0.000406252
0.000381697
0.000360167
0.000340695
0.00032436
0.000310379
0.000298732
0.000289729
0.000282286
0.000275751
0.00027024
0.000265949
0.00026
0.000256648
0.000247331
0.000242871
0.000233107
0.918528
1
1
1
1
0.999785
0.559076
0.29071
0.121429
0.0678015
0.115276
0.183345
0.228426
0.257259
0.275735
0.284299
0.283939
0.277197
0.266479
0.253327
0.238472
0.222138
0.20434
0.184962
0.163874
0.140894
0.115786
0.0879144
0.0550308
0.0296018
0.0565717
0.0670058
0.0684033
0.0626897
0.050826
0.0346594
0.0184753
0.00594909
0.00427141
0.000142686
0.000112051
1.50999e-05
0.000615294
0.000847331
0.000818541
0.00073979
0.000699887
0.000680013
0.000657714
0.000629318
0.000599711
0.000570219
0.000540698
0.000512516
0.000483781
0.000458882
0.000434285
0.000410643
0.000388551
0.000368452
0.000349452
0.000332689
0.000317549
0.000304033
0.000292853
0.000283256
0.00027469
0.000267429
0.000261748
0.000254775
0.000250764
0.000240663
0.00023633
0.000225817
0.692047
0.784565
0.985519
1
1
1
0.909
0.453773
0.215268
0.102562
0.1125
0.181375
0.233
0.261988
0.280323
0.291467
0.295403
0.293
0.285994
0.275958
0.263841
0.250094
0.234893
0.218276
0.200249
0.180807
0.159985
0.137798
0.114216
0.088935
0.0608597
0.023407
0.0415962
0.053771
0.0557139
0.0503128
0.0392839
0.0251061
0.0122168
0.000793806
0.00282024