/*--------------------------------*- C++ -*----------------------------------*\
| =========                 |                                                 |
| \\      /  F ield         | OpenFOAM: The Open Source CFD Toolbox           |
|  \\    /   O peration     | Version:  2312                                  |
|   \\  /    A nd           | Website:  www.openfoam.com                      |
|    \\/     M anipulation  |                                                 |
\*---------------------------------------------------------------------------*/
FoamFile
{
    version     2.0;
    format      ascii;
    arch        "LSB;label=32;scalar=64";
    class       volSymmTensorField;
    location    "350";
    object      turbulenceProperties:R;
}
// * * * * * * * * * * * * * * * * * * * * * * * * * * * * * * * * * * * * * //

dimensions      [0 2 -2 0 0 0 0];

internalField   nonuniform List<symmTensor> 
11040
(
(0.329092 0.0995648 -9.46901e-22 0.304869 1.69288e-20 0.332293)
(0.258164 0.0592927 8.77159e-21 0.185477 1.323e-19 0.231049)
(0.0301575 0.00570512 -5.66093e-20 0.0295313 8.86583e-20 0.0271977)
(0.0856828 0.0332008 -2.17169e-19 0.180409 -1.39333e-20 0.138131)
(0.158247 0.0610058 -1.60186e-20 0.337924 2.45118e-19 0.245468)
(0.141572 0.0615185 -3.48523e-19 0.27498 1.26574e-19 0.208322)
(0.129185 0.0589759 1.882e-19 0.229933 -1.26987e-18 0.179764)
(0.117731 0.0545149 2.54534e-19 0.194544 -1.97677e-19 0.156394)
(0.111667 0.051882 1.1816e-19 0.173767 -3.20609e-20 0.142808)
(0.105902 0.0489818 1.03653e-19 0.156272 1.6825e-19 0.131044)
(0.101306 0.0464384 -9.47491e-20 0.142094 4.13016e-19 0.121638)
(0.0989138 0.0448905 -1.48483e-19 0.132385 2.98722e-19 0.115603)
(0.0985025 0.0442865 2.2957e-20 0.126281 -1.83333e-19 0.112358)
(0.100457 0.0448232 3.20922e-20 0.123561 1.70734e-19 0.112053)
(0.104569 0.0463472 -1.37202e-20 0.123627 2.29537e-20 0.114238)
(0.110363 0.0485711 -6.78837e-21 0.125556 -2.51432e-19 0.118205)
(0.118404 0.0517174 6.9814e-20 0.129676 -7.10816e-21 0.124404)
(0.129535 0.0561568 -6.16423e-21 0.13675 4.56406e-19 0.133593)
(0.144514 0.0621258 -4.08743e-20 0.147028 3.04563e-21 0.146343)
(0.16472 0.0701308 6.47641e-21 0.161556 -6.81568e-20 0.163827)
(0.191776 0.0807004 3.14134e-20 0.181256 5.49288e-20 0.187365)
(0.226403 0.094149 -3.61493e-20 0.206963 1.68592e-19 0.217696)
(0.270434 0.111358 1.78245e-21 0.240622 -1.43649e-19 0.256747)
(0.32859 0.134128 1.89402e-20 0.285723 3.50485e-19 0.30857)
(0.401029 0.16229 -1.03831e-19 0.341736 -3.23077e-19 0.372972)
(0.48316 0.193822 -5.91905e-20 0.404469 -7.55592e-19 0.44555)
(0.570193 0.226761 2.30504e-20 0.469933 -3.54279e-19 0.521815)
(0.658497 0.259788 8.08397e-20 0.535524 9.78903e-20 0.598575)
(0.748963 0.293417 -1.81507e-20 0.602264 -2.94219e-19 0.676842)
(0.833806 0.324776 -7.88656e-22 0.664447 -6.97651e-19 0.749879)
(0.889314 0.34471 1.65963e-19 0.703587 4.84871e-19 0.796703)
(0.905506 0.349631 -8.90238e-20 0.712565 -6.87243e-20 0.808709)
(0.874929 0.33671 1.03772e-20 0.685576 1.37479e-18 0.779419)
(0.799784 0.307261 -1.53504e-19 0.625587 7.94781e-19 0.711252)
(0.695465 0.267642 2.79588e-20 0.545509 2.36604e-20 0.61855)
(0.593579 0.230655 1.19749e-19 0.471738 1.25026e-18 0.529887)
(0.336029 0.133618 2.75939e-20 0.277295 2.86772e-19 0.303926)
(0.140498 0.0599396 -5.21828e-20 0.131552 6.89549e-19 0.133053)
(0.0293737 0.00942745 -5.3828e-19 0.0674628 -1.405e-18 0.0465365)
(0.143713 -0.070972 1.99903e-20 0.230359 -1.08789e-18 0.184258)
(0.19036 -0.0799786 2.01173e-19 0.389924 6.56545e-20 0.279373)
(0.0322105 -0.00274789 5.68749e-22 0.026132 -1.39746e-21 0.0275215)
(0.088632 0.0157792 2.4399e-20 0.0597861 -4.04281e-23 0.0668946)
(0.251091 0.0416266 1.79862e-19 0.140261 -3.60827e-19 0.2012)
(0.751591 0.0645808 2.31794e-19 0.301808 -2.98437e-19 0.514586)
(0.455527 -0.0292749 1.28703e-19 0.176919 -5.30599e-19 0.317473)
(0.0718939 -0.0208483 5.60087e-19 0.0431895 -1.12847e-18 0.0548413)
(0.0121516 -0.00592701 -8.54322e-19 0.0147636 3.39901e-18 0.0136381)
(0.00397165 0.000978996 -8.24574e-19 0.00998038 2.19134e-18 0.00764766)
(0.00965036 0.00466664 -8.54985e-20 0.0179617 -1.62088e-19 0.0143758)
(0.0138295 0.00684527 -1.06449e-19 0.0235241 4.6492e-20 0.0188249)
(0.0169856 0.00845285 5.11081e-19 0.0265862 -1.3203e-18 0.0215953)
(0.0200296 0.0099367 1.52636e-20 0.0290499 -7.74464e-20 0.0241624)
(0.0230304 0.0113128 -2.0394e-19 0.0316475 8.14398e-19 0.0266814)
(0.0266153 0.0129263 -1.33478e-19 0.0346141 5.875e-20 0.0297544)
(0.0309899 0.0148581 -6.25416e-20 0.0382945 -2.45772e-19 0.0335931)
(0.0360373 0.0170356 1.31288e-20 0.0424695 8.2972e-19 0.0380251)
(0.0418197 0.0194549 -2.40075e-20 0.0469716 2.88644e-19 0.0430403)
(0.0484488 0.0221437 -1.44163e-20 0.0520258 -8.21358e-19 0.0486875)
(0.0565741 0.0253462 -3.38822e-20 0.0580488 -3.8264e-20 0.0555345)
(0.0658846 0.0288745 -1.01689e-20 0.0646657 1.25291e-19 0.0631879)
(0.0766119 0.0327566 -1.31151e-20 0.0717906 -2.92151e-20 0.0718369)
(0.0877535 0.0365956 4.66399e-20 0.078733 -4.15576e-19 0.0806563)
(0.0977954 0.0398728 2.1696e-20 0.0846183 5.60907e-19 0.0883893)
(0.106369 0.0424723 -7.05559e-20 0.0892161 -5.07847e-19 0.0947041)
(0.113082 0.0443023 -1.27778e-20 0.0923119 4.10563e-19 0.0993873)
(0.114764 0.0442254 1.21228e-19 0.0915577 1.30248e-18 0.0998489)
(0.109036 0.041461 1.9705e-19 0.0853887 6.75491e-19 0.0941975)
(0.0961286 0.0362373 -1.15391e-19 0.0742994 1.66771e-19 0.0828086)
(0.0823426 0.0310179 -1.13328e-19 0.0633419 3.21528e-19 0.0711806)
(0.0702232 0.0268585 1.14543e-19 0.0547512 5.79266e-19 0.061638)
(0.0574184 0.022943 -3.21346e-20 0.0470766 -8.81124e-19 0.0524126)
(0.0480653 0.0208659 1.60109e-19 0.0444191 -1.56827e-18 0.0474601)
(0.0447463 0.0214121 7.95336e-20 0.0502025 -3.1338e-18 0.0499503)
(0.0439993 0.0224191 2.27018e-19 0.063181 -1.50028e-18 0.0574181)
(0.0492564 0.0246653 -1.6927e-19 0.0862036 1.36378e-19 0.0729537)
(0.060578 0.0284926 -3.33054e-19 0.119357 -4.86696e-18 0.0970501)
(0.075824 0.0338022 -2.09623e-19 0.157935 -4.39779e-19 0.126079)
(0.0945766 0.040919 -5.87329e-19 0.201607 -3.0148e-18 0.156221)
(0.120664 0.0474563 1.54377e-18 0.271862 6.63155e-18 0.206407)
(0.152071 0.0708883 9.11911e-19 0.283034 5.50826e-18 0.210167)
(0.286453 -0.125861 -6.42359e-19 0.554193 -8.75237e-19 0.5032)
(0.0150505 -0.00141624 -1.62287e-22 0.0136541 -2.36969e-22 0.0144127)
(0.0107239 -0.00196189 -6.40332e-21 0.0100263 -2.31411e-20 0.00985189)
(0.0505968 0.00684283 2.44788e-21 0.0352348 6.75379e-20 0.0425177)
(0.541433 0.0812517 1.01119e-19 0.236433 2.25563e-19 0.395915)
(1.2353 0.079395 5.3767e-21 0.481625 -4.60554e-20 0.85239)
(0.863089 -0.0498851 -4.94752e-19 0.334395 1.71235e-18 0.596294)
(0.224973 -0.0508777 1.25604e-20 0.11499 -1.46119e-19 0.162234)
(0.0800246 -0.0237628 1.1201e-19 0.0479708 -2.40878e-18 0.0632103)
(0.0339154 -0.0102103 -1.71351e-19 0.0202618 1.83265e-20 0.0279233)
(0.0119424 -0.00392843 2.56122e-19 0.00769468 -7.3784e-19 0.0105989)
(0.00131647 2.14026e-05 -4.85271e-19 0.000785649 1.14032e-18 0.00152524)
(0.00747756 0.00349127 8.37318e-19 0.00790212 -2.34849e-18 0.00825876)
(0.0132143 0.00620815 -2.71821e-20 0.0142897 -7.1611e-20 0.0141516)
(0.0185058 0.00849404 1.63036e-19 0.0190737 -1.0607e-18 0.01918)
(0.0235961 0.0106142 3.38619e-20 0.0234253 1.10843e-18 0.0238284)
(0.0283342 0.0124844 -9.46394e-20 0.0271044 -4.25458e-19 0.0279773)
(0.0333906 0.0143504 -4.92754e-21 0.0305775 -7.19191e-19 0.0322568)
(0.0391004 0.0163545 5.06004e-20 0.0342635 -5.21811e-19 0.0369557)
(0.0455301 0.0184192 2.5391e-20 0.0379304 -2.99885e-20 0.0420298)
(0.0520431 0.020247 3.12162e-20 0.0410709 3.27475e-20 0.0468442)
(0.0575712 0.0213688 -5.39445e-21 0.0427944 9.91808e-20 0.0504822)
(0.0608444 0.0213924 -6.32608e-20 0.0424731 1.50078e-19 0.0520101)
(0.0609561 0.0200682 -4.0032e-20 0.0397364 -4.8549e-19 0.0507678)
(0.0589771 0.0178069 -4.49481e-20 0.0355486 -1.88672e-19 0.047685)
(0.0568852 0.0152433 1.15619e-19 0.0313261 -3.02866e-19 0.0444862)
(0.0525137 0.0118062 -9.21898e-20 0.0260782 -3.08441e-19 0.0396211)
(0.0460916 0.00791767 -3.24379e-19 0.0205602 2.99027e-19 0.0335272)
(0.0384239 0.00453163 4.11206e-20 0.0157805 -1.21675e-18 0.0271094)
(0.0296173 0.00296292 2.70017e-19 0.0119668 3.22865e-19 0.0205136)
(0.0194812 0.00401795 2.95027e-19 0.00952363 1.3606e-18 0.0138633)
(0.0162499 0.00745787 -4.78381e-19 0.0180594 7.70142e-19 0.0161892)
(0.0254607 0.012139 6.69727e-19 0.0454272 3.31076e-18 0.0342153)
(0.0415728 0.0171936 -8.5561e-20 0.0881666 9.60402e-19 0.0635097)
(0.0661041 0.025317 -9.70121e-19 0.147012 1.16791e-18 0.105177)
(0.0977891 0.0366258 -5.23366e-19 0.220429 -1.22528e-18 0.158015)
(0.136663 0.0515414 6.66177e-19 0.308271 2.45004e-18 0.222371)
(0.18221 0.0707606 6.93512e-19 0.406905 -2.61694e-18 0.296115)
(0.231042 0.0933017 4.71087e-19 0.504955 2.36018e-18 0.368807)
(0.285853 0.112676 -5.28455e-19 0.637564 -1.20538e-18 0.470088)
(0.364089 0.170779 1.20498e-19 0.685225 -6.30703e-19 0.514799)
(0.307596 0.0232125 8.86649e-19 0.808927 2.34146e-18 0.561911)
(0.0105209 -0.000955573 -6.54095e-23 0.00899312 -2.51684e-22 0.00987398)
(0.0109554 -0.00153806 -2.96352e-22 0.0109642 1.48484e-21 0.0110742)
(0.00196789 -0.000231782 -4.06656e-21 0.00181168 -1.22075e-20 0.00183663)
(0.0646032 0.00952367 -3.17951e-20 0.0377796 -9.249e-20 0.0510371)
(0.672047 0.0845396 1.14026e-19 0.279139 1.57116e-19 0.481315)
(1.572 0.0842918 2.58504e-19 0.60728 -2.84041e-19 1.08593)
(1.27816 -0.0620748 3.26227e-19 0.491221 -1.99213e-18 0.886348)
(0.443315 -0.0870446 1.14183e-18 0.210358 -1.84576e-18 0.317689)
(0.18011 -0.0463612 -4.60227e-19 0.0978681 1.26514e-18 0.135746)
(0.0923571 -0.0258237 2.62531e-19 0.0525226 4.04478e-19 0.0725529)
(0.0584759 -0.017374 -3.61431e-19 0.0347704 1.19369e-18 0.0470018)
(0.0400291 -0.0113986 -6.32756e-19 0.0229757 1.38256e-18 0.0319518)
(0.0262557 -0.00680254 5.04035e-19 0.014184 -1.0566e-18 0.0201959)
(0.0194159 -0.00348881 -1.30353e-19 0.00880768 1.03758e-18 0.0141062)
(0.0164402 -0.000624165 -2.33048e-19 0.00630027 -1.18554e-18 0.0113207)
(0.0171856 0.0016319 -1.24463e-19 0.00688912 -5.12918e-19 0.0119407)
(0.0205414 0.00359391 7.25967e-20 0.00924935 2.56714e-19 0.0148364)
(0.024727 0.00518233 1.37889e-19 0.0119259 1.43088e-20 0.0182604)
(0.0293997 0.00629575 3.59771e-20 0.0143032 6.11808e-20 0.0218347)
(0.033819 0.00670729 -1.27355e-20 0.0159085 -8.63164e-20 0.0248742)
(0.0374534 0.00617157 -2.46956e-20 0.0165196 -2.10486e-19 0.027046)
(0.0402377 0.00470231 4.64255e-20 0.0164824 -2.98911e-19 0.0284584)
(0.0432539 0.00234764 3.26836e-20 0.0166547 -1.36422e-19 0.0301466)
(0.0474565 -0.000860721 2.75264e-20 0.0179904 1.23673e-19 0.0329643)
(0.0530618 -0.0046422 -3.80565e-20 0.0209881 7.49229e-19 0.037273)
(0.0589929 -0.00844129 4.91374e-19 0.0250656 -8.95775e-19 0.0422792)
(0.0630183 -0.0114398 1.87274e-19 0.0286317 -6.86952e-19 0.0460388)
(0.0623304 -0.0128317 1.86471e-19 0.0297427 1.77234e-18 0.046201)
(0.0536237 -0.0119771 -2.7324e-19 0.0265871 5.15612e-19 0.0401992)
(0.0338083 -0.00875738 -9.09688e-19 0.0182299 -7.13943e-19 0.0260993)
(0.00605367 -0.00299349 5.89952e-19 0.0105932 -1.41007e-18 0.00840381)
(0.0236728 0.00564859 -9.37356e-19 0.0593135 9.01775e-19 0.0416464)
(0.0573593 0.0182338 1.6137e-18 0.136831 -8.0208e-19 0.0972783)
(0.103048 0.0360268 9.35887e-19 0.239286 -1.81994e-18 0.171397)
(0.161604 0.0595274 8.43539e-19 0.368214 1.04133e-18 0.265041)
(0.233433 0.0892642 6.91985e-19 0.523814 2.27669e-18 0.378999)
(0.318328 0.126216 4.87826e-19 0.702259 2.32322e-18 0.511036)
(0.41058 0.169588 -7.94322e-19 0.882406 -2.93571e-18 0.644038)
(0.502062 0.205074 9.85482e-20 1.09437 -9.68914e-19 0.805583)
(0.649542 0.303272 -2.41052e-19 1.23438 -2.31013e-18 0.926536)
(0.461011 0.155724 -7.0117e-19 1.08757 -1.16125e-18 0.784786)
(0.00830191 -0.000741678 4.51141e-22 0.0070003 1.37202e-21 0.00763374)
(0.00806619 -0.000974618 -8.43722e-22 0.00759399 -1.84934e-21 0.00781182)
(0.00697603 -0.000900065 3.82411e-21 0.00734756 9.82948e-21 0.00716137)
(0.000750726 -3.49576e-05 1.56865e-21 0.000674749 3.54182e-21 0.000703519)
(0.0684347 0.0094444 -6.6177e-20 0.0350961 -1.19129e-19 0.0516167)
(0.688521 0.0743152 1.23772e-19 0.278963 -1.09784e-19 0.487886)
(1.75984 0.0808049 -1.97143e-19 0.676098 2.96694e-21 1.21685)
(1.71771 -0.0683445 -1.11014e-19 0.657056 5.73482e-19 1.19012)
(0.804425 -0.134135 5.47793e-19 0.357188 -1.21643e-19 0.577019)
(0.341934 -0.0829886 6.44884e-20 0.180102 -4.3221e-20 0.252686)
(0.181325 -0.0494707 3.46663e-19 0.101566 -2.44459e-18 0.140762)
(0.127837 -0.0358979 -2.59207e-19 0.0726788 4.05537e-19 0.101376)
(0.0944836 -0.027439 -3.14921e-19 0.0552434 2.50867e-19 0.0751683)
(0.0776494 -0.0227969 3.67664e-19 0.0458644 -2.52738e-18 0.0617563)
(0.0664501 -0.0188957 3.04331e-19 0.0383144 1.54488e-19 0.0522913)
(0.0592279 -0.016258 1.90387e-19 0.0333131 1.9346e-19 0.046069)
(0.0554724 -0.0143816 -1.80443e-19 0.0299959 6.98597e-19 0.0426172)
(0.0540736 -0.0133352 -8.46655e-22 0.0283654 1.50338e-19 0.0410488)
(0.0554304 -0.0131225 4.15583e-20 0.0283943 -7.59412e-20 0.0417813)
(0.059016 -0.0138049 5.96716e-20 0.0300357 5.27313e-20 0.0443794)
(0.0642916 -0.0153593 -2.75681e-20 0.033096 2.54622e-19 0.0485575)
(0.0705122 -0.0174689 -9.94065e-20 0.0370754 2.49634e-19 0.0536208)
(0.0782689 -0.0199698 1.68695e-19 0.0419045 1.83346e-19 0.059884)
(0.0879724 -0.0229537 1.16118e-19 0.0477877 4.38758e-19 0.0676211)
(0.0987574 -0.026176 -3.30548e-19 0.0542067 -8.75212e-20 0.0761892)
(0.108649 -0.0290459 -2.41401e-19 0.059975 2.27863e-18 0.084014)
(0.115006 -0.0308527 1.1983e-19 0.0636221 -3.65752e-20 0.0890421)
(0.114309 -0.0309503 -5.83535e-19 0.0636225 -9.39546e-19 0.0887575)
(0.101696 -0.0285526 -6.01807e-19 0.0580997 -1.94668e-18 0.079691)
(0.0725837 -0.022935 8.03764e-19 0.0456779 -8.74092e-19 0.0590035)
(0.0272801 -0.0128752 -1.63988e-19 0.0304643 2.32422e-18 0.028748)
(0.0304083 0.0027428 4.21808e-19 0.0796329 -1.41298e-18 0.0550568)
(0.0815309 0.025386 -1.60533e-18 0.195327 4.00318e-18 0.138505)
(0.153312 0.0560326 -1.90691e-18 0.350477 2.02636e-19 0.252172)
(0.245306 0.0954788 -8.87064e-19 0.545831 7.92966e-19 0.39574)
(0.35725 0.144213 -9.51941e-19 0.780458 9.74275e-19 0.569457)
(0.489352 0.203508 1.52551e-19 1.05053 5.26449e-21 0.770936)
(0.635273 0.273149 -3.41457e-20 1.32876 5.66691e-20 0.978766)
(0.76885 0.329409 4.33939e-20 1.6232 2.16828e-18 1.20463)
(0.992126 0.462064 -1.76131e-19 1.89818 -1.19716e-18 1.42564)
(0.753452 0.322218 1.08726e-18 1.59856 -1.15608e-18 1.19226)
(0.00612648 -0.00054489 -4.35837e-22 0.00516225 -9.21285e-22 0.00565331)
(0.00543436 -0.000620215 2.2776e-21 0.00499031 4.71659e-21 0.00520205)
(0.00616821 -0.000835211 -1.3061e-21 0.00623719 -3.88587e-21 0.00619961)
(0.00381465 -0.000361725 -5.41575e-22 0.00406865 -2.0489e-21 0.00394321)
(0.00021777 -4.46948e-06 2.79436e-23 0.000212018 9.84038e-23 0.000214293)
(0.051235 0.00587321 -1.31412e-20 0.0251021 -1.48752e-20 0.0379997)
(0.591249 0.0547174 -4.31504e-20 0.235562 -3.67296e-20 0.415465)
(1.76422 0.0719473 -2.22519e-19 0.675275 4.40777e-19 1.22217)
(2.13359 -0.0627712 -4.32595e-19 0.813558 -3.40281e-19 1.47287)
(1.34867 -0.184312 -1.59066e-19 0.566228 -1.12709e-18 0.969305)
(0.588945 -0.135153 5.29545e-19 0.300765 1.60052e-18 0.430706)
(0.331678 -0.0896731 6.62731e-19 0.185791 -1.11564e-18 0.253852)
(0.219394 -0.0613269 -8.49645e-19 0.124768 5.57726e-19 0.172219)
(0.171786 -0.050724 3.89863e-19 0.101769 1.15839e-18 0.137346)
(0.145922 -0.0441531 6.85483e-21 0.0882906 5.35356e-19 0.117287)
(0.129713 -0.0403209 -2.44659e-19 0.080491 -1.00104e-19 0.104732)
(0.121562 -0.0380645 1.81931e-19 0.0758665 -9.84357e-19 0.0985439)
(0.117801 -0.0372557 -3.18816e-20 0.0741955 6.4478e-19 0.0957864)
(0.11883 -0.037821 8.83856e-20 0.0752254 -1.24027e-19 0.0969812)
(0.123305 -0.0395257 5.06428e-20 0.0785749 2.25368e-19 0.100886)
(0.130091 -0.0419602 -7.89638e-20 0.0833668 -3.22928e-19 0.106715)
(0.137608 -0.0444036 4.48736e-20 0.0882262 1.13452e-20 0.11288)
(0.146475 -0.0466839 -9.9324e-21 0.0928486 1.19107e-19 0.119588)
(0.157591 -0.0491418 -3.41724e-19 0.0979683 -3.68441e-19 0.127626)
(0.170484 -0.0517969 5.50453e-19 0.103642 -9.23935e-19 0.136833)
(0.183004 -0.0541787 -1.17611e-19 0.10891 -4.49847e-19 0.145652)
(0.191703 -0.0555247 -6.61754e-19 0.112125 -4.76152e-19 0.151572)
(0.191272 -0.0548237 5.00884e-19 0.110967 -1.22778e-18 0.1508)
(0.174197 -0.0506139 1.46538e-18 0.102147 -2.22565e-19 0.137833)
(0.132876 -0.0413307 1.54172e-19 0.0824534 1.81603e-18 0.10743)
(0.061771 -0.0249045 -7.86233e-19 0.0514196 -9.62463e-19 0.0563922)
(0.0315173 0.000365851 -7.4445e-19 0.0830942 8.68666e-19 0.0573292)
(0.104622 0.0362741 6.45029e-19 0.243473 -4.23117e-18 0.17411)
(0.210169 0.0839033 2.09946e-18 0.461874 -2.62636e-18 0.336337)
(0.344105 0.144055 1.12861e-18 0.73515 -2.31112e-18 0.539813)
(0.505442 0.217043 -5.94476e-19 1.06123 -4.48003e-20 0.784054)
(0.694516 0.304189 1.67756e-19 1.43579 1.84308e-18 1.06625)
(0.904985 0.405464 -2.87777e-19 1.82835 -1.2046e-18 1.36308)
(1.09268 0.490186 -6.16908e-19 2.2176 6.27515e-19 1.66396)
(1.38415 0.647011 -7.61047e-19 2.6455 2.24924e-18 1.99531)
(1.1726 0.537062 -1.10867e-18 2.33412 -8.91384e-19 1.76763)
(0.00456604 -0.000378128 -1.28536e-22 0.00380125 -2.54624e-22 0.00418888)
(0.0041583 -0.000466482 3.67295e-22 0.00375418 3.21255e-22 0.00395547)
(0.00403506 -0.000511129 -1.36636e-21 0.00394211 -2.09955e-21 0.00398443)
(0.00464683 -0.000634177 -2.28574e-21 0.00494163 -3.36583e-21 0.00479359)
(0.00207161 -0.000130358 -1.94832e-22 0.00219654 -2.82413e-22 0.00213473)
(6.73636e-06 -4.74781e-09 7.63937e-26 6.73623e-06 1.27381e-25 6.73603e-06)
(0.0222959 0.00168101 -6.02172e-21 0.01202 -1.0599e-20 0.0170635)
(0.417183 0.0327592 8.75694e-20 0.164189 1.0886e-19 0.291173)
(1.54243 0.0548092 3.44294e-19 0.588506 3.74327e-19 1.07008)
(2.39377 -0.0421863 -1.07421e-19 0.911036 1.38935e-18 1.64586)
(1.99725 -0.211238 -1.04797e-18 0.804271 5.13982e-19 1.41879)
(1.04161 -0.216311 2.20204e-19 0.499972 -1.94585e-18 0.769133)
(0.53945 -0.142769 4.10992e-19 0.300253 2.0385e-18 0.405571)
(0.355647 -0.101594 -8.60018e-19 0.206557 -2.70605e-19 0.278097)
(0.27797 -0.0819244 3.89362e-19 0.164464 -1.49906e-18 0.222001)
(0.233361 -0.0724321 -2.39664e-19 0.144384 8.31221e-19 0.188948)
(0.210722 -0.0677107 1.85869e-19 0.134557 7.96933e-19 0.172626)
(0.19842 -0.0656675 1.63382e-19 0.130486 4.31907e-19 0.163986)
(0.197056 -0.0664033 -9.02881e-20 0.131836 3.84439e-19 0.164301)
(0.20233 -0.0690363 5.71499e-21 0.137099 -1.11742e-18 0.169593)
(0.212094 -0.0727257 3.07932e-20 0.144406 4.82907e-19 0.178267)
(0.22307 -0.0761327 -1.55102e-19 0.151147 -5.30277e-21 0.187109)
(0.235891 -0.0790545 2.1233e-19 0.156898 -5.45766e-19 0.196358)
(0.251411 -0.0819148 1.96257e-19 0.162694 -7.01614e-20 0.206927)
(0.269435 -0.0849663 -3.00665e-19 0.169168 1.16473e-18 0.219094)
(0.287574 -0.0878039 -2.95207e-19 0.175531 -1.02527e-18 0.231255)
(0.301421 -0.089431 7.38104e-19 0.179652 -6.76479e-19 0.240189)
(0.303417 -0.0881938 6.92927e-20 0.17791 1.94421e-18 0.240286)
(0.283035 -0.081774 1.76536e-19 0.165197 2.14895e-18 0.223701)
(0.228911 -0.0676627 -4.58291e-19 0.136045 -3.62612e-19 0.182134)
(0.12943 -0.0428932 6.97905e-21 0.0852152 -1.50467e-18 0.107061)
(0.0216974 -0.0050574 -1.04519e-18 0.0544323 -4.05845e-19 0.0380769)
(0.119376 0.0479367 -2.67166e-19 0.261478 1.93596e-18 0.190544)
(0.267387 0.117344 4.49543e-19 0.551783 2.92861e-18 0.40992)
(0.452255 0.203569 2.8573e-18 0.911608 9.8392e-19 0.682179)
(0.671941 0.306303 -6.54315e-19 1.33711 -1.13746e-18 1.00525)
(0.926626 0.426608 -2.9657e-18 1.82334 -1.15926e-18 1.37594)
(1.20951 0.563503 6.68317e-19 2.33967 3.4649e-20 1.77106)
(1.46731 0.685007 -3.12744e-19 2.84379 -2.56047e-18 2.16266)
(1.81664 0.859129 -2.04737e-19 3.42635 7.92081e-19 2.60596)
(1.7001 0.803595 6.60377e-19 3.23315 2.2605e-18 2.47047)
(0.00336902 -0.000266311 -2.77257e-23 0.00278409 -2.17105e-23 0.00308109)
(0.00321634 -0.000344192 -4.8462e-22 0.00284875 -8.12235e-22 0.00303284)
(0.00303291 -0.000372458 4.4419e-22 0.00289161 8.59712e-22 0.00296135)
(0.00305982 -0.00040107 2.32981e-21 0.00314143 3.71829e-21 0.00309727)
(0.00364614 -0.000505575 4.95577e-22 0.00403773 8.3728e-22 0.00384007)
(0.000751231 -1.97256e-05 2.03768e-23 0.000774994 1.3405e-23 0.000763215)
(0.000505207 -2.01502e-05 -4.71671e-22 0.000521192 -6.12366e-22 0.000512829)
(0.00482897 0.000109178 -4.20907e-23 0.00344225 1.48223e-22 0.00411674)
(0.231988 0.0145483 -4.47736e-20 0.0903843 -1.06865e-19 0.161)
(1.13362 0.0352512 3.25006e-19 0.431904 4.6967e-19 0.785566)
(2.35405 -0.0255141 -2.96074e-19 0.893933 -1.95089e-18 1.6221)
(2.56634 -0.195819 4.13936e-19 1.00551 2.0025e-18 1.79237)
(1.73639 -0.297683 -1.32105e-19 0.77119 -1.38897e-18 1.27531)
(0.897497 -0.225214 -5.89308e-19 0.47941 -2.69322e-19 0.673918)
(0.548207 -0.158107 1.18274e-18 0.323395 -9.93289e-19 0.424051)
(0.404844 -0.121102 3.96813e-19 0.243351 9.0539e-19 0.322241)
(0.343229 -0.107261 -4.56022e-19 0.21332 6.21254e-19 0.279462)
(0.30729 -0.100732 -4.21559e-19 0.199928 4.57285e-19 0.253734)
(0.29369 -0.0996948 -6.86852e-19 0.197866 -2.63972e-20 0.245846)
(0.293314 -0.101751 6.29932e-19 0.202287 -7.07925e-19 0.247512)
(0.305248 -0.106665 1.33998e-19 0.212096 9.64681e-19 0.258592)
(0.323459 -0.112376 -3.76649e-19 0.223356 -2.27118e-19 0.273307)
(0.346602 -0.118048 1.82992e-19 0.234387 3.6345e-19 0.290369)
(0.374236 -0.123757 1.19122e-19 0.245703 2.59977e-19 0.309724)
(0.404103 -0.129186 5.22638e-20 0.256912 -4.26242e-19 0.330178)
(0.433013 -0.133818 -2.02965e-20 0.267061 5.76135e-19 0.349632)
(0.456958 -0.13682 5.18077e-19 0.274366 1.51285e-18 0.365234)
(0.466442 -0.135868 2.47147e-19 0.273904 -6.14677e-19 0.36977)
(0.447095 -0.127444 -1.10141e-18 0.258187 1.85014e-19 0.352257)
(0.383653 -0.107895 -1.4035e-18 0.219319 -1.34086e-18 0.301164)
(0.259377 -0.073094 1.0404e-18 0.148511 -4.44824e-20 0.20369)
(0.0622714 -0.0198016 1.12873e-18 0.039367 -1.44381e-18 0.0508604)
(0.115048 0.0542768 8.69024e-19 0.219319 4.36989e-19 0.167369)
(0.314255 0.150354 -1.53078e-18 0.585627 -2.07072e-19 0.450298)
(0.558535 0.267951 -1.53473e-18 1.03541 1.87616e-18 0.797241)
(0.843844 0.405329 -3.71505e-19 1.56113 -1.71053e-18 1.20314)
(1.16969 0.562724 2.1719e-18 2.15718 8.9128e-20 1.664)
(1.52796 0.737411 -5.52895e-19 2.79496 8.19818e-20 2.15819)
(1.86944 0.902292 4.46085e-19 3.43048 -2.52332e-19 2.65371)
(2.2628 1.09099 -7.24454e-19 4.1443 -1.80386e-18 3.19685)
(2.29695 1.10791 -4.80772e-19 4.19361 7.32008e-19 3.23216)
(0.00251969 -0.000191861 -7.83581e-23 0.0020711 -4.83905e-23 0.00229884)
(0.00242775 -0.000247377 -4.36154e-22 0.00211801 -7.321e-22 0.00227295)
(0.00238592 -0.000285186 1.81804e-21 0.00222029 2.41984e-21 0.00230316)
(0.002249 -0.000284243 -1.87594e-22 0.00223957 -4.28833e-22 0.0022441)
(0.00241959 -0.000331294 7.57835e-22 0.0025885 8.02554e-22 0.00250145)
(0.00246532 -0.000295927 -5.58469e-22 0.00277656 -5.36002e-22 0.00261898)
(0.000901562 -3.34633e-05 1.74896e-22 0.000950439 2.79087e-22 0.000926152)
(0.000332951 -6.79217e-06 6.45612e-23 0.000342256 6.29015e-23 0.000337597)
(0.00121012 -2.96203e-05 3.93002e-23 0.000975735 5.30463e-22 0.00108823)
(0.100106 0.00407934 1.06674e-19 0.0387828 1.02392e-19 0.0692005)
(0.669946 0.0165374 -9.4523e-20 0.254936 -1.59324e-20 0.463092)
(1.90408 -0.0157787 -6.74526e-19 0.721922 -3.19197e-19 1.31601)
(2.81054 -0.149973 7.85241e-19 1.08497 -1.02592e-18 1.94273)
(2.5064 -0.326652 -1.47962e-18 1.04264 1.18114e-18 1.79597)
(1.54833 -0.341027 1.71043e-19 0.760105 -1.51367e-18 1.16713)
(0.857544 -0.240178 9.03022e-19 0.495674 1.54536e-18 0.656126)
(0.581627 -0.178335 4.58111e-19 0.359785 -1.84689e-18 0.460389)
(0.467096 -0.14747 6.53711e-20 0.293658 6.37386e-19 0.379772)
(0.419275 -0.138759 -8.01822e-19 0.274792 -1.2034e-18 0.34893)
(0.401072 -0.138074 3.55998e-19 0.273993 1.25351e-18 0.338227)
(0.409103 -0.143552 2.65671e-20 0.285431 -9.09037e-19 0.347491)
(0.43383 -0.15203 -3.72179e-19 0.302436 4.64643e-19 0.367857)
(0.471749 -0.162255 2.89393e-19 0.32236 -3.1662e-20 0.396708)
(0.519604 -0.173596 -1.65762e-19 0.344659 6.87252e-20 0.431667)
(0.573664 -0.185277 -1.53959e-19 0.368233 8.29238e-19 0.470406)
(0.627692 -0.195769 -3.58206e-20 0.390275 -1.38275e-19 0.508359)
(0.673087 -0.202868 -1.26775e-18 0.406358 1.53877e-19 0.539084)
(0.698303 -0.203582 -2.2533e-19 0.410324 1.38476e-19 0.553752)
(0.689079 -0.194265 -2.44821e-20 0.394605 -1.51028e-18 0.541367)
(0.626308 -0.169847 1.96877e-18 0.348754 -8.31118e-20 0.487163)
(0.4887 -0.124562 -2.14291e-19 0.261173 1.08907e-18 0.374755)
(0.26311 -0.0540783 7.12437e-19 0.125567 1.11645e-18 0.194574)
(0.0992642 0.0441071 -1.22807e-18 0.0965096 4.1201e-19 0.0984398)
(0.338801 0.1708 1.90495e-18 0.517208 -1.5599e-18 0.428604)
(0.645852 0.323812 2.42506e-19 1.04871 -1.37427e-19 0.847772)
(0.99989 0.499035 1.60011e-18 1.66517 4.23049e-19 1.33319)
(1.39525 0.694142 -3.88335e-18 2.35462 -1.0604e-19 1.87519)
(1.82354 0.905304 1.07255e-18 3.09427 7.564e-19 2.45563)
(2.24551 1.11221 1.70626e-19 3.85146 4.38869e-19 3.04824)
(2.67409 1.31776 8.52011e-19 4.67061 5.23953e-19 3.67656)
(2.88588 1.41392 -1.32828e-19 5.05288 -2.29659e-18 3.93855)
(0.00189086 -0.000139686 -3.12504e-22 0.00154824 -4.07941e-22 0.00172204)
(0.00183948 -0.000180846 1.28368e-21 0.00158806 1.56519e-21 0.00171394)
(0.00181774 -0.00020899 -2.82871e-22 0.0016597 -3.92756e-22 0.00173884)
(0.0017921 -0.000225124 -2.37825e-21 0.00173766 -2.9172e-21 0.00176524)
(0.0017184 -0.000221158 -2.02281e-22 0.00177208 -2.76053e-22 0.00174522)
(0.0018189 -0.000243583 2.70075e-21 0.0020056 3.36667e-21 0.00191058)
(0.00182208 -0.000206647 -5.91323e-22 0.00209331 -8.88375e-22 0.00195588)
(0.000792956 -3.06505e-05 -8.36095e-22 0.000846341 -9.72352e-22 0.000819696)
(0.000148746 -1.18703e-06 4.05134e-23 0.000150921 4.53856e-23 0.000149842)
(4.93528e-07 -4.53255e-11 1.22143e-28 4.93525e-07 -2.26649e-28 4.93525e-07)
(0.0241671 -1.19362e-05 -5.95038e-21 0.00992142 -1.15731e-20 0.0169302)
(0.302476 0.00399708 -6.69583e-20 0.114959 -3.61795e-20 0.208499)
(1.22159 -0.0107379 -4.21148e-19 0.463213 -2.60153e-19 0.844208)
(2.51568 -0.105892 2.46297e-19 0.964194 -7.35593e-19 1.73972)
(3.02307 -0.281323 -4.4615e-19 1.20556 2.43727e-18 2.1134)
(2.41171 -0.420253 5.53226e-19 1.07701 -7.84848e-19 1.77221)
(1.46567 -0.373382 -7.49464e-19 0.781846 1.0851e-18 1.12778)
(0.871289 -0.264732 -1.35806e-19 0.53763 6.51631e-19 0.682366)
(0.632889 -0.206238 -2.2578e-19 0.413146 -4.3358e-19 0.5132)
(0.548419 -0.183957 3.33484e-19 0.364894 -1.21379e-18 0.45718)
(0.532816 -0.184609 5.03887e-19 0.365945 3.04731e-19 0.45193)
(0.556101 -0.195262 -3.02386e-19 0.388023 -1.0351e-18 0.473085)
(0.607733 -0.211288 -1.6462e-19 0.419904 4.26521e-19 0.51383)
(0.679284 -0.230408 8.3343e-19 0.457594 -6.61974e-19 0.567694)
(0.766068 -0.251543 -6.44795e-19 0.499638 1.77883e-19 0.631905)
(0.859651 -0.272422 -4.06938e-19 0.542244 -4.78736e-19 0.699972)
(0.948247 -0.289651 1.4672e-18 0.578989 -1.7368e-18 0.762707)
(1.01518 -0.298429 -5.49499e-19 0.600473 1.47776e-18 0.80698)
(1.03897 -0.292651 1.12268e-19 0.594599 -1.08384e-19 0.816023)
(0.995973 -0.265556 -1.48123e-18 0.548185 1.55202e-18 0.771476)
(0.864265 -0.210495 5.85738e-19 0.449412 -9.41637e-19 0.656482)
(0.633233 -0.12264 -7.63431e-19 0.295059 5.87034e-19 0.464244)
(0.344085 0.000549981 -1.17783e-18 0.130358 -7.15492e-19 0.238007)
(0.37537 0.159283 5.23402e-19 0.336851 2.18953e-18 0.357434)
(0.709312 0.348995 -1.4336e-18 0.894073 3.42935e-19 0.803405)
(1.11863 0.56147 -3.43855e-19 1.56731 2.46569e-20 1.34493)
(1.57041 0.791229 1.49216e-18 2.31709 -1.93326e-18 1.94508)
(2.04592 1.03045 -1.16881e-18 3.1131 3.53908e-19 2.57708)
(2.51506 1.26529 -4.86114e-19 3.94139 -1.31166e-18 3.22644)
(2.9601 1.48476 -3.21737e-18 4.83212 -2.1339e-18 3.90924)
(3.33451 1.65559 1.72528e-19 5.54135 6.61221e-19 4.39173)
(0.00142336 -0.000103017 -2.83581e-22 0.00116255 -2.81497e-22 0.00129468)
(0.00139261 -0.000132989 -1.17467e-21 0.00119341 -1.23857e-21 0.00129319)
(0.00138185 -0.000154252 -7.8793e-23 0.00124508 -1.82237e-22 0.00131357)
(0.0013799 -0.0001695 -1.96565e-22 0.00131093 -1.61067e-22 0.00134561)
(0.00136051 -0.000174672 1.69442e-21 0.0013657 1.9453e-21 0.00136333)
(0.00132438 -0.000170759 9.45677e-22 0.00140525 8.2024e-22 0.00136483)
(0.00134905 -0.000171764 -1.37689e-21 0.0015183 -1.5077e-21 0.00143278)
(0.00141605 -0.00016006 -9.10373e-22 0.0016662 -3.12488e-22 0.00153947)
(0.000720823 -3.08048e-05 -1.35799e-22 0.00078417 -1.46433e-22 0.000752363)
(5.62684e-05 -1.67068e-07 -5.61103e-24 5.66467e-05 -6.42545e-24 5.64587e-05)
(0.000315141 -9.97165e-06 -1.20165e-22 0.000331367 -9.46357e-23 0.000323262)
(0.000118724 -8.34461e-07 -3.07362e-24 0.000115181 -1.56887e-24 0.000116904)
(0.084376 -0.000945558 1.08646e-19 0.0322136 1.29445e-19 0.0580897)
(0.579571 -0.00867182 -9.46379e-19 0.220116 -8.95765e-19 0.399965)
(1.72437 -0.0655372 1.55343e-18 0.659246 1.65024e-18 1.19362)
(2.91976 -0.209402 -1.89626e-19 1.14188 -8.5128e-19 2.02688)
(3.12808 -0.397802 2.3771e-18 1.29977 1.37798e-18 2.21863)
(2.37779 -0.493001 -3.12683e-19 1.13343 9.36061e-19 1.78443)
(1.47193 -0.414173 -2.74204e-18 0.841422 -4.43441e-19 1.15668)
(0.928176 -0.30465 9.84875e-19 0.613778 -2.31645e-18 0.748427)
(0.725035 -0.252542 2.61568e-19 0.506637 1.9941e-18 0.604227)
(0.700491 -0.246196 8.19948e-20 0.489653 -9.22815e-19 0.595301)
(0.753019 -0.263574 5.40977e-19 0.522907 7.2483e-19 0.641497)
(0.844278 -0.291454 -3.48757e-19 0.578339 -7.36766e-19 0.713107)
(0.964528 -0.324949 4.11599e-19 0.644897 6.94773e-20 0.804729)
(1.1023 -0.359753 -8.1679e-19 0.714692 1.0811e-18 0.907248)
(1.24454 -0.391495 3.16888e-19 0.779909 6.50093e-19 1.01047)
(1.37167 -0.413826 -4.82684e-19 0.828906 -1.95064e-18 1.09861)
(1.45797 -0.418987 -2.35228e-20 0.847261 3.8391e-19 1.15112)
(1.47702 -0.398397 8.22325e-19 0.819461 -9.80913e-19 1.14715)
(1.40295 -0.343188 -1.15109e-20 0.731466 -3.17949e-19 1.06628)
(1.22068 -0.245779 5.80516e-19 0.577879 -2.46951e-19 0.898807)
(0.945774 -0.101812 1.62406e-18 0.383325 1.71834e-19 0.664814)
(0.723679 0.0868268 -1.71703e-18 0.297681 -1.96354e-19 0.512111)