/*--------------------------------*- C++ -*----------------------------------*\
| =========                 |                                                 |
| \\      /  F ield         | OpenFOAM: The Open Source CFD Toolbox           |
|  \\    /   O peration     | Version:  2312                                  |
|   \\  /    A nd           | Website:  www.openfoam.com                      |
|    \\/     M anipulation  |                                                 |
\*---------------------------------------------------------------------------*/
FoamFile
{
    version     2.0;
    format      ascii;
    arch        "LSB;label=32;scalar=64";
    class       volScalarField;
    location    "350";
    object      turbulenceProperties:nuEff;
}
// * * * * * * * * * * * * * * * * * * * * * * * * * * * * * * * * * * * * * //

dimensions      [0 2 -1 0 0 0 0];

internalField   nonuniform List<scalar> 
11040
(
5.66714e-05
5.54552e-05
2.89962e-05
0.000173725
0.000216714
0.000193787
0.000176908
0.000160741
0.000152075
0.000144438
0.000137719
0.000133207
0.000130997
0.000131319
0.000133587
0.000137077
0.000141966
0.000148806
0.000157621
0.000168526
0.000181515
0.000196437
0.000213878
0.000235139
0.000259167
0.000283295
0.000306031
0.000327718
0.000351539
0.000376923
0.00039707
0.000410838
0.000416714
0.000415666
0.000415778
0.000441223
0.000358322
0.000296074
0.000315047
0.000336406
0.00037473
1.89982e-05
5.6591e-05
7.43213e-05
0.000403062
0.000639289
0.000570699
0.000515391
0.000440707
0.000407146
0.00038309
0.000360718
0.000344827
0.000336455
0.000337317
0.000344112
0.000353195
0.000363915
0.00037772
0.000394693
0.000412151
0.000428249
0.000441458
0.000454157
0.000472032
0.000496287
0.000516218
0.000526841
0.000530231
0.000556977
0.000625031
0.000698875
0.000781258
0.000871525
0.000969736
0.00107968
0.0012068
0.00132592
0.00145199
0.001586
0.00166554
0.00199536
1.44239e-05
2.61128e-05
3.39505e-05
0.000239578
0.000735135
0.00115602
0.00113295
0.000973398
0.000885427
0.000833832
0.000785717
0.00074997
0.000720511
0.000699058
0.00068523
0.000674105
0.000669272
0.000676056
0.000691727
0.000708054
0.000718693
0.00072251
0.000723716
0.000742208
0.000805618
0.000889101
0.000992243
0.00111675
0.00126349
0.00143043
0.00161199
0.0018053
0.00200816
0.00222519
0.00245948
0.00271451
0.00298254
0.00327307
0.00358008
0.0038202
0.00443332
1.58191e-05
1.73489e-05
1.66479e-05
5.94163e-05
0.000387897
0.00106738
0.00166652
0.00172327
0.00157371
0.00148882
0.00139807
0.00133599
0.00128036
0.0012403
0.0012165
0.00119554
0.00118218
0.00117688
0.00117518
0.00117696
0.00118194
0.00119944
0.00123989
0.00131762
0.00143912
0.00160086
0.00179931
0.00203226
0.00229682
0.00258959
0.00290542
0.00324029
0.00359037
0.00396086
0.00435909
0.00479233
0.00525792
0.00576581
0.00631025
0.00680416
0.00772056
1.61761e-05
1.60874e-05
1.61008e-05
1.19591e-05
8.60869e-05
0.000507165
0.0013445
0.00219333
0.00245769
0.00244601
0.00226205
0.00216377
0.00207525
0.00201121
0.00197501
0.00194035
0.0019203
0.00191538
0.00191872
0.00193101
0.00194882
0.00198561
0.00205684
0.00218198
0.00236925
0.00261889
0.00292875
0.00329452
0.00370978
0.0041671
0.00465691
0.0051714
0.00570356
0.00625745
0.00684835
0.00749526
0.0082005
0.00897827
0.00982865
0.0106822
0.0119464
1.6152e-05
1.59191e-05
1.6762e-05
1.34351e-05
1.02186e-05
9.01155e-05
0.000564201
0.00153065
0.00268095
0.0032792
0.00345182
0.00339736
0.00322839
0.00308298
0.00301201
0.00295989
0.00293375
0.00293672
0.00295743
0.0029988
0.00304558
0.00310979
0.0032127
0.00338389
0.00364274
0.0039965
0.00444451
0.00497846
0.00558451
0.00624824
0.00695244
0.00768383
0.00843055
0.00919385
0.00999366
0.0108727
0.0118474
0.0129411
0.0141681
0.0154945
0.0172317
1.61175e-05
1.61185e-05
1.61405e-05
1.68699e-05
1.16409e-05
1.00002e-05
5.69463e-05
0.000537428
0.00157641
0.00300882
0.00411553
0.00452716
0.00465047
0.00462199
0.0045134
0.00439337
0.00431169
0.00429714
0.00433971
0.00443247
0.004537
0.00465195
0.00480444
0.00503208
0.0053699
0.00584091
0.006453
0.00719258
0.00803222
0.00894671
0.00990522
0.010887
0.0118735
0.0128593
0.0138669
0.0149627
0.016207
0.0176388
0.0193005
0.0212107
0.0236019
1.61194e-05
1.61343e-05
1.60673e-05
1.62754e-05
1.74491e-05
1.03211e-05
1.06322e-05
2.10715e-05
0.000433059
0.00145146
0.00307799
0.00474615
0.00563842
0.00601772
0.00613843
0.00615386
0.00611204
0.00608871
0.00611129
0.00620916
0.00637588
0.00659927
0.00687883
0.00724715
0.00771302
0.00831487
0.00910837
0.0100881
0.0112038
0.0124145
0.0136632
0.0149196
0.0161581
0.0173596
0.0185411
0.0197935
0.0212466
0.0229799
0.0250874
0.0276631
0.0309118
1.61211e-05
1.61088e-05
1.6162e-05
1.59377e-05
1.69524e-05
1.60291e-05
1.07095e-05
1.02094e-05
1.44991e-05
0.000303105
0.00116411
0.00282247
0.00493547
0.00663565
0.00740532
0.00779332
0.00795298
0.0080425
0.00811294
0.00824348
0.00847261
0.00882432
0.00929407
0.0099084
0.0106666
0.0115769
0.01265
0.0138943
0.0153201
0.0168705
0.0184368
0.0199724
0.0214572
0.0228446
0.024122
0.0254154
0.0269125
0.0287902
0.031233
0.0344603
0.0387277
1.61173e-05
1.61192e-05
1.6118e-05
1.61158e-05
1.60339e-05
1.69385e-05
1.59011e-05
1.08729e-05
1.00405e-05
1e-05
0.000141727
0.000797776
0.0022903
0.00459178
0.00707194
0.00873222
0.00948742
0.00991544
0.0101648
0.0104055
0.0107286
0.011224
0.0119116
0.0128316
0.013988
0.0153816
0.0170051
0.0188314
0.0207968
0.0227906
0.0246984
0.0264748
0.0281514
0.0296656
0.0308917
0.0319917
0.033289
0.0349433
0.0373482
0.0409198
0.0460284
1.61162e-05
1.61173e-05
1.61139e-05
1.61238e-05
1.60832e-05
1.61253e-05
1.6636e-05
1.64575e-05
1.12285e-05
1.0007e-05
1.05594e-05
1.00986e-05
0.000400307
0.00156156
0.003731
0.00664888
0.00943837
0.0111255
0.0119506
0.0125042
0.012999
0.0136467
0.0145308
0.0157429
0.0173032
0.0192097
0.0214409
0.0239471
0.026641
0.0294031
0.0321012
0.0345986
0.0367362
0.0383355
0.0393055
0.0398164
0.040585
0.0414923
0.043049
0.0460354
0.0506494
1.61148e-05
1.61151e-05
1.61142e-05
1.61123e-05
1.61168e-05
1.60988e-05
1.60825e-05
1.65875e-05
1.66886e-05
1.27535e-05
1.0005e-05
1.00009e-05
3.97341e-05
0.000122777
0.000837236
0.00255403
0.00538988
0.00889468
0.0120379
0.0139156
0.014973
0.0158935
0.016946
0.0183716
0.0202503
0.022595
0.0253689
0.0284935
0.0318503
0.0352885
0.0386398
0.0417302
0.0443942
0.0465001
0.047972
0.0488064
0.0490407
0.0487214
0.0484719
0.0496076
0.0521232
1.61134e-05
1.61134e-05
1.61118e-05
1.61115e-05
1.61107e-05
1.61145e-05
1.60956e-05
1.60829e-05
1.6473e-05
1.68948e-05
1.44718e-05
1.0175e-05
1.00017e-05
1.02528e-05
1.011e-05
0.000325068
0.0013619
0.0036164
0.00707395
0.0111851
0.0148928
0.0172627
0.0188167
0.0204551
0.0225035
0.0251057
0.0282628
0.0318749
0.0357809
0.0397853
0.0436794
0.0472577
0.0503324
0.0527591
0.0544353
0.0553336
0.0554986
0.0550283
0.054106
0.053029
0.0523034
1.61122e-05
1.61118e-05
1.61105e-05
1.61099e-05
1.61098e-05
1.61093e-05
1.61128e-05
1.6095e-05
1.60944e-05
1.62866e-05
1.70711e-05
1.60125e-05
1.14857e-05
1.00083e-05
1.00001e-05
1.98964e-05
4.25497e-05
0.000533007
0.00186152
0.00454499
0.00856143
0.0132065
0.017525
0.0209011
0.023573
0.0263394
0.0296369
0.0334892
0.0377494
0.0421947
0.0465666
0.0506229
0.054134
0.0569159
0.0588212
0.0597666
0.0597714
0.0589207
0.0573734
0.0554295
0.0534886
1.61111e-05
1.61103e-05
1.61094e-05
1.61087e-05
1.61083e-05
1.61082e-05
1.61086e-05
1.61086e-05
1.61058e-05
1.60775e-05
1.61896e-05
1.68744e-05
1.67021e-05
1.38235e-05
1.00543e-05
1.00012e-05
1.00082e-05
3.65917e-05
1.68467e-05
0.000617542
0.00214909
0.00492988
0.00883909
0.0135393
0.0186037
0.0235786
0.0281904
0.0325748
0.0370321
0.0416735
0.0463727
0.0508881
0.0549528
0.0583229
0.0607753
0.0621601
0.062405
0.0615357
0.0596598
0.0569819
0.0539227
1.61102e-05
1.61092e-05
1.61083e-05
1.61077e-05
1.61073e-05
1.6107e-05
1.61068e-05
1.61069e-05
1.61075e-05
1.61081e-05
1.60701e-05
1.61504e-05
1.64376e-05
1.72021e-05
1.55385e-05
1.23699e-05
1.00118e-05
1e-05
1.00009e-05
3.94191e-05
1.00926e-05
0.000534578
0.00174374
0.00391672
0.00715507
0.0114043
0.0165372
0.0223515
0.0285403
0.034734
0.0406269
0.0460333
0.0508353
0.0549332
0.0581995
0.06051
0.0617719
0.0619056
0.0607319
0.0582997
0.0548958
1.61095e-05
1.61082e-05
1.6107e-05
1.61062e-05
1.61057e-05
1.61055e-05
1.61053e-05
1.61055e-05
1.61053e-05
1.61074e-05
1.6104e-05
1.60891e-05
1.60837e-05
1.62631e-05
1.66898e-05
1.71266e-05
1.45801e-05
1.07755e-05
1.00062e-05
1e-05
1e-05
2.3211e-05
0.000194268
0.000182365
0.000752893
0.00197082
0.00398287
0.00688881
0.0107167
0.0153907
0.0207267
0.0264297
0.032138
0.0375157
0.0422634
0.0461552
0.0490618
0.0509704
0.0518269
0.0516175
0.0503129
1.6109e-05
1.61076e-05
1.6106e-05
1.6105e-05
1.61043e-05
1.61039e-05
1.61037e-05
1.61037e-05
1.61038e-05
1.61041e-05
1.61053e-05
1.61043e-05
1.60985e-05
1.60764e-05
1.613e-05
1.63996e-05
1.70597e-05
1.6627e-05
1.41492e-05
1.05116e-05
1.00047e-05
1e-05
1e-05
1.01659e-05
3.55311e-05
0.000164472
1.08307e-05
0.000362476
0.00105643
0.00223364
0.00396361
0.00622142
0.0089163
0.0119081
0.0149945
0.0179587
0.0205962
0.0228115
0.0244759
0.0255374
0.0260397
1.61087e-05
1.61071e-05
1.61054e-05
1.61042e-05
1.61034e-05
1.61028e-05
1.61025e-05
1.61023e-05
1.61023e-05
1.61024e-05
1.61028e-05
1.61033e-05
1.61051e-05
1.61007e-05
1.60874e-05
1.60714e-05
1.6231e-05
1.65982e-05
1.70451e-05
1.64203e-05
1.35935e-05
1.06766e-05
1.00053e-05
1.00001e-05
1e-05
1e-05
1e-05
1.15055e-05
5.63733e-05
0.000163604
0.00031966
0.000125786
0.00038588
0.00078467
0.00133683
0.00202195
0.00275187
0.00348275
0.00414515
0.00468937
0.00514374
1.61087e-05
1.61068e-05
1.61048e-05
1.61035e-05
1.61025e-05
1.61018e-05
1.61013e-05
1.6101e-05
1.61009e-05
1.61009e-05
1.61011e-05
1.61015e-05
1.61022e-05
1.61036e-05
1.6104e-05
1.60926e-05
1.60795e-05
1.61065e-05
1.6277e-05
1.66915e-05
1.6925e-05
1.64936e-05
1.41959e-05
1.15858e-05
1.01272e-05
1.00019e-05
1.00001e-05
1e-05
1e-05
1e-05
1e-05
1.00209e-05
1.12012e-05
2.48502e-05
6.7301e-05
0.000122249
0.00017287
0.000220357
0.000275359
6.46917e-05
8.99573e-05
1.61087e-05
1.61065e-05
1.61043e-05
1.61027e-05
1.61016e-05
1.61008e-05
1.61002e-05
1.60998e-05
1.60996e-05
1.60996e-05
1.60996e-05
1.60999e-05
1.61003e-05
1.6101e-05
1.61024e-05
1.61034e-05
1.61e-05
1.60885e-05
1.60782e-05
1.61247e-05
1.63074e-05
1.66216e-05
1.70048e-05
1.68017e-05
1.57306e-05
1.3791e-05
1.17958e-05
1.04932e-05
1.00249e-05
1.00008e-05
1e-05
1e-05
1e-05
1e-05
1e-05
1e-05
1e-05
1e-05
1e-05
1.00017e-05
1.00035e-05
1.61085e-05
1.61061e-05
1.61037e-05
1.61019e-05
1.61007e-05
1.60998e-05
1.60992e-05
1.60987e-05
1.60985e-05
1.60983e-05
1.60983e-05
1.60985e-05
1.60988e-05
1.60993e-05
1.61e-05
1.61011e-05
1.61025e-05
1.61026e-05
1.60976e-05
1.60857e-05
1.60851e-05
1.61141e-05
1.62743e-05
1.65473e-05
1.685e-05
1.70624e-05
1.69098e-05
1.62471e-05
1.51528e-05
1.36861e-05
1.22376e-05
1.11742e-05
1.05281e-05
1.0185e-05
1.00379e-05
1.0002e-05
1.00002e-05
1e-05
1e-05
1e-05
1e-05
1.61081e-05
1.61057e-05
1.61031e-05
1.61013e-05
1.61e-05
1.6099e-05
1.60984e-05
1.60979e-05
1.60976e-05
1.60974e-05
1.60973e-05
1.60974e-05
1.60976e-05
1.6098e-05
1.60985e-05
1.60992e-05
1.61001e-05
1.61015e-05
1.61029e-05
1.61026e-05
1.60982e-05
1.60868e-05
1.60787e-05
1.61044e-05
1.61769e-05
1.63259e-05
1.65436e-05
1.67759e-05
1.69771e-05
1.71093e-05
1.70414e-05
1.67411e-05
1.62789e-05
1.57054e-05
1.50618e-05
1.43864e-05
1.37261e-05
1.30782e-05
1.25361e-05
1.20976e-05
1.17636e-05
1.61075e-05
1.61053e-05
1.61029e-05
1.61011e-05
1.60998e-05
1.60989e-05
1.60982e-05
1.60976e-05
1.60972e-05
1.60969e-05
1.60967e-05
1.60966e-05
1.60967e-05
1.6097e-05
1.60974e-05
1.60979e-05
1.60986e-05
1.60995e-05
1.61007e-05
1.61022e-05
1.61037e-05
1.6104e-05
1.60996e-05
1.60914e-05
1.60842e-05
1.60853e-05
1.6108e-05
1.61603e-05
1.62432e-05
1.63629e-05
1.65059e-05
1.66538e-05
1.67922e-05
1.69128e-05
1.70104e-05
1.70829e-05
1.71291e-05
1.71478e-05
1.71129e-05
1.70444e-05
1.69565e-05
1.61069e-05
1.61051e-05
1.61032e-05
1.61018e-05
1.61006e-05
1.60996e-05
1.60988e-05
1.60981e-05
1.60975e-05
1.6097e-05
1.60967e-05
1.60964e-05
1.60964e-05
1.60964e-05
1.60967e-05
1.60971e-05
1.60976e-05
1.60983e-05
1.60992e-05
1.61002e-05
1.61015e-05
1.61034e-05
1.61052e-05
1.61058e-05
1.61045e-05
1.61007e-05
1.60955e-05
1.60914e-05
1.60911e-05
1.60968e-05
1.6112e-05
1.61381e-05
1.61746e-05
1.62207e-05
1.62747e-05
1.63349e-05
1.63986e-05
1.64662e-05
1.65336e-05
1.65996e-05
1.66571e-05
1.61064e-05
1.61052e-05
1.6104e-05
1.61029e-05
1.6102e-05
1.61012e-05
1.61003e-05
1.60995e-05
1.60987e-05
1.6098e-05
1.60974e-05
1.60969e-05
1.60966e-05
1.60964e-05
1.60965e-05
1.60967e-05
1.6097e-05
1.60976e-05
1.60983e-05
1.60991e-05
1.61001e-05
1.61013e-05
1.61029e-05
1.61048e-05
1.61068e-05
1.61085e-05
1.61096e-05
1.61098e-05
1.61092e-05
1.61078e-05
1.61061e-05
1.61045e-05
1.61038e-05
1.61045e-05
1.61069e-05
1.61114e-05
1.61179e-05
1.61266e-05
1.61373e-05
1.61498e-05
1.61627e-05
1.61063e-05
1.61057e-05
1.6105e-05
1.61043e-05
1.61037e-05
1.61029e-05
1.61022e-05
1.61013e-05
1.61005e-05
1.60996e-05
1.60987e-05
1.6098e-05
1.60974e-05
1.6097e-05
1.60967e-05
1.60967e-05
1.60969e-05
1.60972e-05
1.60977e-05
1.60984e-05
1.60992e-05
1.61002e-05
1.61014e-05
1.61028e-05
1.61045e-05
1.61064e-05
1.61086e-05
1.61108e-05
1.61131e-05
1.61153e-05
1.61174e-05
1.61192e-05
1.61208e-05
1.61222e-05
1.61234e-05
1.61245e-05
1.61257e-05
1.61269e-05
1.61284e-05
1.61298e-05
1.61321e-05
1.61065e-05
1.61064e-05
1.6106e-05
1.61056e-05
1.61051e-05
1.61045e-05
1.61039e-05
1.61032e-05
1.61024e-05
1.61015e-05
1.61005e-05
1.60996e-05
1.60987e-05
1.6098e-05
1.60975e-05
1.60972e-05
1.60971e-05
1.60972e-05
1.60974e-05
1.60979e-05
1.60985e-05
1.60993e-05
1.61003e-05
1.61016e-05
1.6103e-05
1.61046e-05
1.61063e-05
1.61083e-05
1.61105e-05
1.61128e-05
1.61153e-05
1.6118e-05
1.61208e-05
1.61236e-05
1.61265e-05
1.61295e-05
1.61325e-05
1.61355e-05
1.61386e-05
1.61415e-05
1.61449e-05
1.61069e-05
1.61071e-05
1.6107e-05
1.61066e-05
1.61063e-05
1.61058e-05
1.61053e-05
1.61047e-05
1.61041e-05
1.61033e-05
1.61024e-05
1.61015e-05
1.61005e-05
1.60995e-05
1.60987e-05
1.60981e-05
1.60977e-05
1.60975e-05
1.60976e-05
1.60978e-05
1.60981e-05
1.60988e-05
1.60996e-05
1.61006e-05
1.61018e-05
1.61032e-05
1.61047e-05
1.61064e-05
1.61083e-05
1.61104e-05
1.61126e-05
1.61149e-05
1.61174e-05
1.61201e-05
1.61228e-05
1.61257e-05
1.61287e-05
1.61317e-05
1.61349e-05
1.61381e-05
1.61415e-05
1.61073e-05
1.61077e-05
1.61077e-05
1.61074e-05
1.61072e-05
1.61068e-05
1.61065e-05
1.6106e-05
1.61055e-05
1.61049e-05
1.61042e-05
1.61034e-05
1.61024e-05
1.61013e-05
1.61003e-05
1.60994e-05
1.60988e-05
1.60983e-05
1.60981e-05
1.6098e-05
1.60982e-05
1.60985e-05
1.60991e-05
1.60999e-05
1.61009e-05
1.6102e-05
1.61034e-05
1.61049e-05
1.61066e-05
1.61084e-05
1.61104e-05
1.61125e-05
1.61147e-05
1.61171e-05
1.61196e-05
1.61222e-05
1.61249e-05
1.61277e-05
1.61306e-05
1.61335e-05
1.61366e-05
1.61076e-05
1.6108e-05
1.61081e-05
1.6108e-05
1.61079e-05
1.61077e-05
1.61074e-05
1.61071e-05
1.61067e-05
1.61063e-05
1.61057e-05
1.6105e-05
1.61042e-05
1.61032e-05
1.61021e-05
1.6101e-05
1.61001e-05
1.60995e-05
1.6099e-05
1.60987e-05
1.60986e-05
1.60987e-05
1.6099e-05
1.60995e-05
1.61003e-05
1.61012e-05
1.61023e-05
1.61036e-05
1.61051e-05
1.61067e-05
1.61085e-05
1.61104e-05
1.61124e-05
1.61145e-05
1.61168e-05
1.61192e-05
1.61217e-05
1.61242e-05
1.61269e-05
1.61295e-05
1.61324e-05
1.61076e-05
1.61082e-05
1.61084e-05
1.61084e-05
1.61084e-05
1.61083e-05
1.61082e-05
1.6108e-05
1.61077e-05
1.61074e-05
1.6107e-05
1.61065e-05
1.61059e-05
1.61051e-05
1.6104e-05
1.61028e-05
1.61018e-05
1.61009e-05
1.61002e-05
1.60997e-05
1.60993e-05
1.60992e-05
1.60993e-05
1.60996e-05
1.61001e-05
1.61008e-05
1.61017e-05
1.61027e-05
1.61039e-05
1.61053e-05
1.61069e-05
1.61085e-05
1.61103e-05
1.61123e-05
1.61143e-05
1.61165e-05
1.61187e-05
1.6121e-05
1.61235e-05
1.61259e-05
1.61285e-05
1.61074e-05
1.61081e-05
1.61084e-05
1.61085e-05
1.61086e-05
1.61087e-05
1.61087e-05
1.61087e-05
1.61086e-05
1.61084e-05
1.61081e-05
1.61077e-05
1.61073e-05
1.61067e-05
1.61059e-05
1.61048e-05
1.61036e-05
1.61025e-05
1.61017e-05
1.6101e-05
1.61004e-05
1.61001e-05
1.61e-05
1.61e-05
1.61003e-05
1.61008e-05
1.61014e-05
1.61022e-05
1.61032e-05
1.61043e-05
1.61056e-05
1.61071e-05
1.61086e-05
1.61103e-05
1.61121e-05
1.6114e-05
1.6116e-05
1.61181e-05
1.61203e-05
1.61224e-05
1.61249e-05
1.6107e-05
1.61078e-05
1.61081e-05
1.61084e-05
1.61086e-05
1.61088e-05
1.6109e-05
1.61092e-05
1.61092e-05
1.61092e-05
1.61091e-05
1.61088e-05
1.61085e-05
1.6108e-05
1.61074e-05
1.61066e-05
1.61055e-05
1.61044e-05
1.61033e-05
1.61025e-05
1.61018e-05
1.61012e-05
1.61009e-05
1.61008e-05
1.61008e-05
1.61011e-05
1.61015e-05
1.61021e-05
1.61028e-05
1.61038e-05
1.61048e-05
1.6106e-05
1.61073e-05
1.61088e-05
1.61103e-05
1.6112e-05
1.61137e-05
1.61155e-05
1.61175e-05
1.61193e-05
1.61215e-05
1.61064e-05
1.61072e-05
1.61077e-05
1.6108e-05
1.61084e-05
1.61088e-05
1.61091e-05
1.61094e-05
1.61096e-05
1.61098e-05
1.61098e-05
1.61098e-05
1.61096e-05
1.61093e-05
1.61088e-05
1.61082e-05
1.61074e-05
1.61063e-05
1.61051e-05
1.61041e-05
1.61033e-05
1.61026e-05
1.61021e-05
1.61018e-05
1.61017e-05
1.61017e-05
1.61019e-05
1.61023e-05
1.61028e-05
1.61035e-05
1.61043e-05
1.61053e-05
1.61064e-05
1.61075e-05
1.61088e-05
1.61102e-05
1.61117e-05
1.61132e-05
1.61149e-05
1.61165e-05
1.61183e-05
1.61055e-05
1.61063e-05
1.61069e-05
1.61074e-05
1.61079e-05
1.61084e-05
1.6109e-05
1.61094e-05
1.61098e-05
1.61101e-05
1.61103e-05
1.61104e-05
1.61104e-05
1.61102e-05
1.61099e-05
1.61095e-05
1.61089e-05
1.61081e-05
1.6107e-05
1.61059e-05
1.61049e-05
1.61041e-05
1.61035e-05
1.6103e-05
1.61027e-05
1.61025e-05
1.61026e-05
1.61027e-05
1.61031e-05
1.61035e-05
1.61041e-05
1.61048e-05
1.61057e-05
1.61066e-05
1.61077e-05
1.61088e-05
1.611e-05
1.61113e-05
1.61127e-05
1.61139e-05
1.61155e-05
1.61043e-05
1.61052e-05
1.61059e-05
1.61065e-05
1.61072e-05
1.61078e-05
1.61085e-05
1.61091e-05
1.61096e-05
1.61101e-05
1.61105e-05
1.61107e-05
1.61109e-05
1.61109e-05
1.61108e-05
1.61105e-05
1.611e-05
1.61095e-05
1.61087e-05
1.61077e-05
1.61066e-05
1.61057e-05
1.61049e-05
1.61043e-05
1.61038e-05
1.61035e-05
1.61033e-05
1.61033e-05
1.61035e-05
1.61037e-05
1.61041e-05
1.61046e-05
1.61052e-05
1.61059e-05
1.61067e-05
1.61076e-05
1.61085e-05
1.61095e-05
1.61106e-05
1.61116e-05
1.61129e-05
1.61029e-05
1.61038e-05
1.61046e-05
1.61053e-05
1.61061e-05
1.61069e-05
1.61076e-05
1.61084e-05
1.61091e-05
1.61097e-05
1.61102e-05
1.61106e-05
1.61109e-05
1.61111e-05
1.61111e-05
1.61111e-05
1.61108e-05
1.61104e-05
1.61098e-05
1.61091e-05
1.61082e-05
1.61072e-05
1.61062e-05
1.61055e-05
1.61049e-05
1.61044e-05
1.61041e-05
1.6104e-05
1.61039e-05
1.6104e-05
1.61042e-05
1.61045e-05
1.61049e-05
1.61054e-05
1.61059e-05
1.61065e-05
1.61072e-05
1.61079e-05
1.61087e-05
1.61094e-05
1.61104e-05
1.61012e-05
1.61021e-05
1.61029e-05
1.61038e-05
1.61046e-05
1.61055e-05
1.61063e-05
1.61072e-05
1.6108e-05
1.61087e-05
1.61093e-05
1.61099e-05
1.61103e-05
1.61107e-05
1.61109e-05
1.6111e-05
1.61109e-05
1.61107e-05
1.61103e-05
1.61098e-05
1.61092e-05
1.61083e-05
1.61074e-05
1.61065e-05
1.61058e-05
1.61052e-05
1.61048e-05
1.61045e-05
1.61043e-05
1.61042e-05
1.61042e-05
1.61043e-05
1.61045e-05
1.61048e-05
1.61051e-05
1.61055e-05
1.61059e-05
1.61064e-05
1.61069e-05
1.61073e-05
1.6108e-05
1.60992e-05
1.61001e-05
1.6101e-05
1.61018e-05
1.61027e-05
1.61036e-05
1.61045e-05
1.61054e-05
1.61063e-05
1.61071e-05
1.61079e-05
1.61085e-05
1.61091e-05
1.61096e-05
1.611e-05
1.61103e-05
1.61104e-05
1.61104e-05
1.61102e-05
1.61098e-05
1.61094e-05
1.61088e-05
1.6108e-05
1.61071e-05
1.61064e-05
1.61057e-05
1.61051e-05
1.61047e-05
1.61044e-05
1.61041e-05
1.6104e-05
1.61039e-05
1.61039e-05
1.6104e-05
1.61041e-05
1.61043e-05
1.61045e-05
1.61047e-05
1.6105e-05
1.61051e-05
1.61056e-05
1.60968e-05
1.60978e-05
1.60986e-05
1.60995e-05
1.61004e-05
1.61013e-05
1.61022e-05
1.61031e-05
1.6104e-05
1.61048e-05
1.61057e-05
1.61065e-05
1.61072e-05
1.61078e-05
1.61084e-05
1.61088e-05
1.6109e-05
1.61092e-05
1.61092e-05
1.6109e-05
1.61088e-05
1.61084e-05
1.61079e-05
1.61072e-05
1.61064e-05
1.61057e-05
1.6105e-05
1.61045e-05
1.61041e-05
1.61037e-05
1.61035e-05
1.61033e-05
1.61031e-05
1.6103e-05
1.6103e-05
1.61029e-05
1.61029e-05
1.61029e-05
1.6103e-05
1.61029e-05
1.61031e-05
1.60942e-05
1.60951e-05
1.60959e-05
1.60967e-05
1.60975e-05
1.60983e-05
1.60992e-05
1.61001e-05
1.6101e-05
1.61019e-05
1.61028e-05
1.61037e-05
1.61045e-05
1.61052e-05
1.61059e-05
1.61064e-05
1.61068e-05
1.61071e-05
1.61073e-05
1.61073e-05
1.61073e-05
1.61071e-05
1.61067e-05
1.61063e-05
1.61057e-05
1.6105e-05
1.61044e-05
1.61038e-05
1.61033e-05
1.61028e-05
1.61025e-05
1.61021e-05
1.61019e-05
1.61016e-05
1.61014e-05
1.61012e-05
1.6101e-05
1.61009e-05
1.61007e-05
1.61004e-05
1.61004e-05
1.60912e-05
1.6092e-05
1.60927e-05
1.60934e-05
1.60941e-05
1.60949e-05
1.60957e-05
1.60965e-05
1.60974e-05
1.60983e-05
1.60992e-05
1.61001e-05
1.6101e-05
1.61018e-05
1.61025e-05
1.61032e-05
1.61037e-05
1.61041e-05
1.61045e-05
1.61046e-05
1.61047e-05
1.61047e-05
1.61045e-05
1.61043e-05
1.61039e-05
1.61034e-05
1.61029e-05
1.61023e-05
1.61018e-05
1.61013e-05
1.61009e-05
1.61005e-05
1.61002e-05
1.60999e-05
1.60996e-05
1.60993e-05
1.6099e-05
1.60987e-05
1.60984e-05
1.6098e-05
1.60978e-05
1.60878e-05
1.60885e-05
1.60891e-05
1.60897e-05
1.60903e-05
1.60909e-05
1.60916e-05
1.60924e-05
1.60932e-05
1.6094e-05
1.60949e-05
1.60958e-05
1.60966e-05
1.60974e-05
1.60982e-05
1.60989e-05
1.60995e-05
1.61001e-05
1.61005e-05
1.61009e-05
1.61011e-05
1.61012e-05
1.61013e-05
1.61012e-05
1.61011e-05
1.61009e-05
1.61006e-05
1.61002e-05
1.60998e-05
1.60993e-05
1.60989e-05
1.60985e-05
1.60981e-05
1.60977e-05
1.60973e-05
1.6097e-05
1.60966e-05
1.60963e-05
1.6096e-05
1.60956e-05
1.60954e-05
1.60841e-05
1.60846e-05
1.60851e-05
1.60855e-05
1.6086e-05
1.60865e-05
1.60871e-05
1.60878e-05
1.60884e-05
1.60891e-05
1.60899e-05
1.60906e-05
1.60913e-05
1.60921e-05
1.60928e-05
1.60935e-05
1.60942e-05
1.60948e-05
1.60953e-05
1.60957e-05
1.6096e-05
1.60962e-05
1.60963e-05
1.60964e-05
1.60964e-05
1.60963e-05
1.60961e-05
1.60959e-05
1.60956e-05
1.60953e-05
1.60951e-05
1.60948e-05
1.60945e-05
1.60942e-05
1.60939e-05
1.60937e-05
1.60934e-05
1.60932e-05
1.60931e-05
1.6093e-05
1.60929e-05
1.60799e-05
1.60803e-05
1.60806e-05
1.60809e-05
1.60813e-05
1.60817e-05
1.60822e-05
1.60826e-05
1.60831e-05
1.60836e-05
1.60841e-05
1.60846e-05
1.60852e-05
1.60857e-05
1.60862e-05
1.60867e-05
1.60872e-05
1.60877e-05
1.60882e-05
1.60887e-05
1.60891e-05
1.60895e-05
1.60899e-05
1.60902e-05
1.60905e-05
1.60907e-05
1.60908e-05
1.6091e-05
1.60911e-05
1.60911e-05
1.60912e-05
1.60912e-05
1.60913e-05
1.60913e-05
1.60914e-05
1.60915e-05
1.60916e-05
1.60918e-05
1.60921e-05
1.60924e-05
1.60928e-05
1.60753e-05
1.60755e-05
1.60757e-05
1.6076e-05
1.60763e-05
1.60765e-05
1.60768e-05
1.6077e-05
1.60772e-05
1.60774e-05
1.60775e-05
1.60776e-05
1.60778e-05
1.60782e-05
1.60789e-05
1.60797e-05
1.60805e-05
1.60812e-05
1.60817e-05
1.60821e-05
1.60823e-05
1.60825e-05
1.60826e-05
1.60827e-05
1.60827e-05
1.60826e-05
1.60826e-05
1.60826e-05
1.60826e-05
1.60826e-05
1.60826e-05
1.60827e-05
1.60827e-05
1.60829e-05
1.60831e-05
1.60833e-05
1.60836e-05
1.60839e-05
1.60843e-05
1.60848e-05
1.60853e-05
1.60703e-05
1.60703e-05
1.60704e-05
1.60706e-05
1.60707e-05
1.60708e-05
1.60709e-05
1.6071e-05
1.6071e-05
1.60709e-05
1.60706e-05
1.607e-05
1.60697e-05
1.60701e-05
1.60709e-05
1.60723e-05
1.60739e-05
1.60756e-05
1.60773e-05
1.60788e-05
1.60802e-05
1.60815e-05
1.60825e-05
1.60833e-05
1.60839e-05
1.60843e-05
1.60845e-05
1.60846e-05
1.60845e-05
1.60842e-05
1.60838e-05
1.60833e-05
1.60829e-05
1.60828e-05
1.60828e-05
1.60829e-05
1.60832e-05
1.60836e-05
1.60842e-05
1.60849e-05
1.60858e-05
0.00393353
0.00711947
0.00857621
0.00654978
0.00203645
8.17687e-05
1.00209e-05
1.40081e-05
1.00023e-05
1.53908e-05
0.00803583
0.0174451
0.0235313
0.0272132
0.0291834
0.0298665
0.0295457
0.0284232
0.0266339
0.0242793
0.0214318
0.0181275
0.014381
0.0102192
0.00576329
0.00183092
1.00303e-05
1.00194e-05
1.01199e-05
1.71188e-05
1.77878e-05
1.60712e-05
1.6197e-05
1.63312e-05
1.62939e-05
1.62998e-05
1.63377e-05
1.63637e-05
1.63773e-05
1.63887e-05
1.6402e-05
1.64171e-05
1.64333e-05
1.645e-05
1.64664e-05
1.64817e-05
1.64947e-05
1.65044e-05
1.65095e-05
1.65091e-05
1.65029e-05
1.64911e-05
1.6474e-05
1.64523e-05
1.64268e-05
1.63986e-05
1.63689e-05
1.63395e-05
1.63122e-05
1.62895e-05
1.62734e-05
1.62633e-05
1.62563e-05
1.62508e-05
1.6246e-05
1.62415e-05
1.62372e-05
1.62333e-05
1.62299e-05
1.6227e-05
1.62247e-05
1.62228e-05
1.62218e-05
1.62192e-05
0.00676998
0.0110864
0.0131465
0.0115735
0.00581751
0.000942499
4.51941e-05
1.00147e-05
1.08303e-05
0.000819505
0.0111202
0.0210816
0.0271823
0.0308389
0.0328337
0.0335915
0.0333821
0.0323931
0.0307557
0.0285661
0.0258933
0.0227769
0.0192361
0.0152819
0.0108953
0.0061595
0.00196925
1.60052e-05
1.0001e-05
1.00015e-05
1.58008e-05
1.85727e-05
1.63195e-05
1.60057e-05
1.6292e-05
1.63612e-05
1.63643e-05
1.63893e-05
1.64134e-05
1.64285e-05
1.64419e-05
1.64573e-05
1.6474e-05
1.64909e-05
1.65069e-05
1.6521e-05
1.6532e-05
1.65388e-05
1.65401e-05
1.65355e-05
1.65247e-05
1.6508e-05
1.64859e-05
1.64595e-05
1.64298e-05
1.6398e-05
1.63658e-05
1.63351e-05
1.63083e-05
1.62875e-05
1.62743e-05
1.62662e-05
1.62605e-05
1.62559e-05
1.62516e-05
1.62475e-05
1.62434e-05
1.62396e-05
1.62361e-05
1.62332e-05
1.62308e-05
1.62287e-05
1.62275e-05
1.62243e-05
0.00960984
0.015279
0.0180963
0.0171132
0.0113983
0.00357223
0.000208168
1.00087e-05
3.61668e-05
0.0018763
0.0134168
0.0239077
0.0302185
0.0340332
0.0362133
0.0371837
0.0371988
0.0364338
0.0350217
0.0330536
0.0305972
0.027698
0.0243792
0.0206568
0.0165109
0.0118892
0.00686037
0.00238822
0.000682472
1.12963e-05
1.00311e-05
1.28885e-05
2.06847e-05
1.77587e-05
1.61289e-05
1.62302e-05
1.64194e-05
1.64398e-05
1.64456e-05
1.64663e-05
1.6485e-05
1.65009e-05
1.65172e-05
1.65337e-05
1.6549e-05
1.65614e-05
1.65698e-05
1.65731e-05
1.65703e-05
1.65609e-05
1.6545e-05
1.65231e-05
1.64961e-05
1.6465e-05
1.64312e-05
1.63963e-05
1.63622e-05
1.63312e-05
1.63055e-05
1.6287e-05
1.62766e-05
1.62703e-05
1.62657e-05
1.62617e-05
1.62579e-05
1.6254e-05
1.62501e-05
1.62462e-05
1.62427e-05
1.62397e-05
1.62371e-05
1.62348e-05
1.62334e-05
1.62295e-05
0.0126122
0.019801
0.0234264
0.0230261
0.0179682
0.00859876
0.00153151
0.000128052
9.0753e-05
0.00268687
0.0149767
0.0260445
0.0327746
0.0369106
0.0394242
0.0407334
0.0410753
0.040614
0.0394945
0.037796
0.0355936
0.0329376
0.0298551
0.0263699
0.0224724
0.0181185
0.0132223
0.00790122
0.00292074
0.000106742
0.000102928
1.00124e-05
1.00715e-05
1.64439e-05
1.8678e-05
1.64821e-05
1.61343e-05
1.64235e-05
1.65274e-05
1.65195e-05
1.65244e-05
1.65439e-05
1.65625e-05
1.65784e-05
1.6592e-05
1.66023e-05
1.66076e-05
1.66069e-05
1.65995e-05
1.6585e-05
1.65638e-05
1.65365e-05
1.65044e-05
1.64688e-05
1.64313e-05
1.6394e-05
1.63588e-05
1.63282e-05
1.63043e-05
1.62884e-05
1.62802e-05
1.62753e-05
1.62716e-05
1.62683e-05
1.62647e-05
1.6261e-05
1.62571e-05
1.62532e-05
1.62496e-05
1.62464e-05
1.62436e-05
1.6241e-05
1.62395e-05
1.62348e-05
0.0161622
0.0248196
0.0291231
0.0292637
0.0250366
0.0156422
0.00503667
0.00038167
0.000157091
0.00312363
0.0157919
0.027489
0.034839
0.0394752
0.042471
0.0442508
0.0450358
0.0449787
0.044212
0.0428218
0.0409074
0.0385164
0.0356863
0.0324459
0.0287954
0.0247107
0.0201218
0.0149624
0.00930842
0.0038796
0.000537641
0.000292708
1.02566e-05
1.00348e-05
1.3512e-05
1.943e-05
1.74413e-05
1.61949e-05
1.63407e-05
1.65827e-05
1.66126e-05
1.65961e-05
1.66045e-05
1.66223e-05
1.66359e-05
1.66435e-05
1.66451e-05
1.664e-05
1.66276e-05
1.66078e-05
1.65809e-05
1.65482e-05
1.65111e-05
1.64713e-05
1.64307e-05
1.63915e-05
1.6356e-05
1.63264e-05
1.63045e-05
1.62912e-05
1.62848e-05
1.62811e-05
1.62783e-05
1.62753e-05
1.6272e-05
1.62684e-05
1.62645e-05
1.62605e-05
1.62568e-05
1.62533e-05
1.62503e-05
1.62474e-05
1.62457e-05
1.62401e-05
0.0213634
0.0304982
0.0351228
0.035726
0.0323372
0.0238453
0.0112612
0.00221534
0.00036242
0.00314848
0.0158692
0.028237
0.0363498
0.0416585
0.0452839
0.047665
0.0490098
0.0494618
0.0491455
0.0481524
0.0465697
0.0444548
0.0418924
0.038902
0.0355028
0.0316792
0.0273929
0.0225784
0.0171652
0.0111996
0.00534478
0.00131437
4.26358e-05
1e-05
1.00163e-05
1.06076e-05
1.78213e-05
1.89494e-05
1.66757e-05
1.62178e-05
1.65208e-05
1.66887e-05
1.66865e-05
1.66713e-05
1.66767e-05
1.66838e-05
1.66826e-05
1.66726e-05
1.66547e-05
1.66291e-05
1.65966e-05
1.65585e-05
1.65166e-05
1.64729e-05
1.64297e-05
1.63894e-05
1.63541e-05
1.63259e-05
1.63062e-05
1.62952e-05
1.62904e-05
1.62877e-05
1.62855e-05
1.62829e-05
1.62798e-05
1.62761e-05
1.62722e-05
1.62681e-05
1.62641e-05
1.62604e-05
1.62571e-05
1.62539e-05
1.6252e-05
1.62456e-05
0.0281773
0.0367984
0.0413079
0.042246
0.039646
0.0324388
0.0197584
0.00665472
0.000391505
0.00278194
0.0152321
0.0282241
0.0372038
0.0433479
0.0477499
0.0508643
0.0528878
0.0539553
0.0541888
0.0536851
0.0525288
0.050782
0.0485117
0.0457635
0.0426189
0.0390488
0.0350517
0.0305716
0.0255473
0.0199056
0.013684
0.00740248
0.00260962
0.000960677
0.000114721
1.00019e-05
1.00414e-05
1.28737e-05
1.99015e-05
1.82728e-05
1.65046e-05
1.63964e-05
1.66772e-05
1.677e-05
1.67479e-05
1.6727e-05
1.67177e-05
1.67042e-05
1.66812e-05
1.66496e-05
1.66112e-05
1.65677e-05
1.65213e-05
1.64743e-05
1.64291e-05
1.63881e-05
1.63534e-05
1.63269e-05
1.63094e-05
1.63004e-05
1.62968e-05
1.6295e-05
1.62932e-05
1.62909e-05
1.62878e-05
1.62842e-05
1.62801e-05
1.62759e-05
1.62717e-05
1.62678e-05
1.62641e-05
1.62606e-05
1.62585e-05
1.62511e-05
0.0362682
0.043453
0.0474521
0.0485662
0.0466827
0.0408309
0.0293977
0.0140629
0.00262107
0.0023133
0.0138916
0.0273835
0.0372728
0.0443991
0.0497192
0.0536998
0.0565243
0.0583177
0.0592017
0.0592814
0.0586463
0.0573637
0.0554927
0.0530815
0.0501935
0.0468546
0.0431332
0.0389617
0.0343076
0.0291034
0.0232801
0.0168404
0.0102089
0.00427285
0.000615481
0.000465673
1.00135e-05
1.0011e-05
1.00393e-05
1.5301e-05
1.93989e-05
1.74742e-05
1.63818e-05
1.65e-05
1.67552e-05
1.68053e-05
1.67696e-05
1.67349e-05
1.67047e-05
1.66686e-05
1.66251e-05
1.65765e-05
1.65259e-05
1.6476e-05
1.64293e-05
1.63881e-05
1.63543e-05
1.63294e-05
1.63138e-05
1.63065e-05
1.6304e-05