/*--------------------------------*- C++ -*----------------------------------*\
| =========                 |                                                 |
| \\      /  F ield         | OpenFOAM: The Open Source CFD Toolbox           |
|  \\    /   O peration     | Version:  2312                                  |
|   \\  /    A nd           | Website:  www.openfoam.com                      |
|    \\/     M anipulation  |                                                 |
\*---------------------------------------------------------------------------*/
FoamFile
{
    version     2.0;
    format      ascii;
    arch        "LSB;label=32;scalar=64";
    class       volSymmTensorField;
    location    "350";
    object      turbulenceProperties:devReff;
}
// * * * * * * * * * * * * * * * * * * * * * * * * * * * * * * * * * * * * * //

dimensions      [0 2 -2 0 0 0 0];

internalField   nonuniform List<symmTensor> 
11040
(
(0.00850842 0.120898 -1.14979e-21 -0.0209036 2.0556e-20 0.0123952)
(0.0405858 0.0723369 1.07013e-20 -0.0480921 1.61406e-19 0.00750635)
(0.00182453 0.00870841 -8.64095e-20 0.000868716 1.3533e-19 -0.00269325)
(-0.0520544 0.0352286 -2.30433e-19 0.0484571 -1.47843e-20 0.00359729)
(-0.0932702 0.063957 -1.67936e-20 0.0950994 2.56976e-19 -0.00182921)
(-0.0703498 0.0648657 -3.67486e-19 0.0703177 1.33461e-19 3.20909e-05)
(-0.0534647 0.0625094 1.99476e-19 0.0533202 -1.34595e-18 0.000144523)
(-0.0410452 0.0581313 2.71419e-19 0.0408634 -2.10791e-19 0.000181766)
(-0.0332674 0.0555337 1.26477e-19 0.0332026 -3.43176e-20 6.47877e-05)
(-0.0270429 0.0526252 1.11363e-19 0.0270736 1.80765e-19 -3.07375e-05)
(-0.0219686 0.0500743 -1.02168e-19 0.0220135 4.45354e-19 -4.48865e-05)
(-0.018077 0.048534 -1.60534e-19 0.0181103 3.22968e-19 -3.32897e-05)
(-0.0150248 0.0479466 2.48543e-20 0.0150493 -1.98485e-19 -2.45666e-05)
(-0.0125198 0.0485178 3.47375e-20 0.0124882 1.84808e-19 3.16462e-05)
(-0.0103502 0.0500973 -1.48304e-20 0.0102493 2.4811e-20 0.000100914)
(-0.0082827 0.0523932 -7.32256e-21 0.00810619 -2.71218e-19 0.00017651)
(-0.0061936 0.0556364 7.51043e-20 0.00593243 -7.6468e-21 0.000261169)
(-0.00402872 0.0602025 -6.60832e-21 0.00370678 4.89287e-19 0.000321931)
(-0.00154601 0.0663343 -4.36432e-20 0.00113858 3.25195e-21 0.000407428)
(0.00143802 0.0745548 6.88495e-21 -0.00192611 -7.24562e-20 0.000488088)
(0.005267 0.0854055 3.3245e-20 -0.00586606 5.81314e-20 0.000599058)
(0.00988606 0.0991989 -3.80882e-20 -0.0105976 1.77635e-19 0.000711495)
(0.0152111 0.11682 1.86988e-21 -0.0160639 -1.50695e-19 0.000852776)
(0.0218936 0.140085 1.97815e-20 -0.0228776 3.66053e-19 0.000984019)
(0.0302849 0.168803 -1.07998e-19 -0.0313872 -3.36043e-19 0.00110229)
(0.0401857 0.200914 -6.13563e-20 -0.0413849 -7.83239e-19 0.00119912)
(0.0512194 0.234421 2.3829e-20 -0.0524271 -3.66247e-19 0.00120771)
(0.0628839 0.267965 8.33841e-20 -0.06396 1.00971e-19 0.00107609)
(0.0750758 0.302008 -1.86821e-20 -0.075919 -3.02833e-19 0.000843239)
(0.0867296 0.333627 -8.1015e-22 -0.0872451 -7.16665e-19 0.000515463)
(0.0951763 0.353616 1.70251e-19 -0.0953487 4.97397e-19 0.000172481)
(0.0989887 0.358354 -9.12447e-20 -0.0987654 -7.04388e-20 -0.000223253)
(0.0972888 0.344989 1.06324e-20 -0.0967197 1.40859e-18 -0.000569039)
(0.0897352 0.314836 -1.57288e-19 -0.0887558 8.14373e-19 -0.000979407)
(0.077487 0.274238 2.86478e-20 -0.0761638 2.42434e-20 -0.00132311)
(0.0632784 0.236004 1.22526e-19 -0.0613877 1.27926e-18 -0.00189074)
(0.031148 0.137454 2.83861e-20 -0.0292717 2.95005e-19 -0.00187634)
(0.00565479 0.0620348 -5.40069e-20 -0.00360415 7.13653e-19 -0.00205064)
(-0.0190211 0.00973649 -5.55925e-19 0.0203166 -1.45106e-18 -0.00129557)
(-0.0436959 -0.0731463 2.06027e-20 0.045605 -1.12122e-18 -0.00190908)
(-0.09883 -0.0821714 2.06689e-19 0.106206 6.74546e-20 -0.00737567)
(0.00757792 -0.00580172 1.20082e-21 -0.00525582 -2.95051e-21 -0.0023221)
(0.0204801 0.0191659 2.96358e-20 -0.0145571 -4.91053e-23 -0.00592295)
(0.0619028 0.0480983 2.07825e-19 -0.0661581 -4.16925e-19 0.00425524)
(0.234754 0.0662238 2.37691e-19 -0.226473 -3.0603e-19 -0.00828102)
(0.141094 -0.0297401 1.30748e-19 -0.141941 -5.3903e-19 0.000846282)
(0.0155243 -0.0212201 5.70076e-19 -0.013692 -1.14859e-18 -0.00183232)
(-0.00139321 -0.00604428 -8.71226e-19 0.00127047 3.46626e-18 0.000122742)
(-0.0033032 0.00100173 -8.43718e-19 0.00284504 2.24222e-18 0.000458157)
(-0.004455 0.00478415 -8.76513e-20 0.00406563 -1.66169e-19 0.000389374)
(-0.00502791 0.00702874 -1.09302e-19 0.00492655 4.77381e-20 0.000101364)
(-0.00487182 0.00869387 5.25653e-19 0.00500252 -1.35794e-18 -0.000130705)
(-0.00451532 0.0102335 1.57194e-20 0.00477439 -7.97594e-20 -0.000259065)
(-0.00421467 0.0116593 -2.10187e-19 0.00466645 8.39345e-19 -0.000451785)
(-0.00382604 0.0133212 -1.37556e-19 0.00441712 6.05449e-20 -0.000591082)
(-0.00340144 0.0153028 -6.44135e-20 0.00412177 -2.53128e-19 -0.000720322)
(-0.00288841 0.017532 1.35113e-20 0.00373117 8.53897e-19 -0.00084276)
(-0.00218418 0.0200046 -2.46859e-20 0.00311331 2.968e-19 -0.000929125)
(-0.00130654 0.0227459 -1.48084e-20 0.0023678 -8.43695e-19 -0.00106125)
(-0.000148774 0.0260051 -3.47629e-20 0.00136426 -3.92587e-20 -0.00121548)
(0.00133763 0.0295925 -1.04218e-20 8.84809e-05 1.28406e-19 -0.00142611)
(0.0032753 0.0335397 -1.34287e-20 -0.00166135 -2.99136e-20 -0.00161394)
(0.00549707 0.0374438 4.77209e-20 -0.00373251 -4.25208e-19 -0.00176456)
(0.00769725 0.0407705 2.21845e-20 -0.00577656 5.73536e-19 -0.00192069)
(0.00981391 0.0433915 -7.2083e-20 -0.00771033 -5.18839e-19 -0.00210359)
(0.0117248 0.0452133 -1.30406e-20 -0.00947283 4.19006e-19 -0.00225195)
(0.0129582 0.045099 1.23622e-19 -0.0107066 1.32821e-18 -0.00225162)
(0.013077 0.0422632 2.00863e-19 -0.0110281 6.8856e-19 -0.00204889)
(0.0119416 0.0369339 -1.17609e-19 -0.0103072 1.69976e-19 -0.00163443)
(0.0102381 0.031585 -1.154e-19 -0.00911004 3.27407e-19 -0.00112805)
(0.00814942 0.0272952 1.16405e-19 -0.0075741 5.88685e-19 -0.000575325)
(0.00519012 0.023276 -3.26011e-20 -0.0053018 -8.93915e-19 0.000111685)
(0.0014355 0.0211365 1.62185e-19 -0.00225801 -1.58861e-18 0.000822509)
(-0.00359469 0.0216607 8.04568e-20 0.00192489 -3.17017e-18 0.00166979)
(-0.01098 0.0226527 2.29384e-19 0.00840149 -1.51592e-18 0.00257854)
(-0.0204038 0.0248959 -1.70853e-19 0.0168888 1.37653e-19 0.00351502)
(-0.0320158 0.0287307 -3.35837e-19 0.0272547 -4.90763e-18 0.00476106)
(-0.044457 0.0340591 -2.11216e-19 0.0382776 -4.43121e-19 0.00617941)
(-0.0566149 0.0412028 -5.91402e-19 0.0511582 -3.03571e-18 0.00545675)
(-0.0794815 0.0477574 1.55357e-18 0.0726763 6.67363e-18 0.0068052)
(-0.0634001 0.0713164 9.17419e-19 0.0683536 5.54153e-18 -0.00495349)
(-0.162309 -0.126495 -6.45595e-19 0.106779 -8.79645e-19 0.0555295)
(0.00221079 -0.0046176 -5.2913e-22 -0.00234217 -7.72627e-22 0.000131384)
(0.000847987 -0.00317949 -1.03774e-20 -0.000282687 -3.75031e-20 -0.0005653)
(0.0110762 0.0096999 3.46994e-21 -0.0106999 9.5737e-20 -0.00037621)
(0.156714 0.0847909 1.05524e-19 -0.161571 2.35388e-19 0.00485759)
(0.384084 0.0804899 5.45084e-21 -0.379981 -4.66905e-20 -0.00410317)
(0.267477 -0.0503204 -4.99069e-19 -0.265831 1.72729e-18 -0.00164585)
(0.0580868 -0.0513308 1.26723e-20 -0.052876 -1.4742e-19 -0.00521077)
(0.0164585 -0.0240095 1.13172e-19 -0.0159281 -2.43378e-18 -0.000530367)
(0.00662342 -0.010327 -1.73308e-19 -0.00718623 1.85358e-20 0.000562807)
(0.00188636 -0.00397611 2.59231e-19 -0.00241291 -7.46796e-19 0.000526557)
(0.000108737 2.16785e-05 -4.91527e-19 -0.000428931 1.15502e-18 0.000320195)
(-0.000407356 0.00353845 8.48633e-19 2.29472e-05 -2.38022e-18 0.000384409)
(-0.000680386 0.00629553 -2.75646e-20 0.000410232 -7.26189e-20 0.000270153)
(-0.00042004 0.00861731 1.65402e-19 0.000156117 -1.07609e-18 0.000263923)
(-2.07707e-05 0.0107714 3.43633e-20 -0.000194149 1.12484e-18 0.00021492)
(0.000536841 0.0126724 -9.60645e-20 -0.000711452 -4.31865e-19 0.000174611)
(0.00133556 0.0145681 -5.00228e-21 -0.00152016 -7.301e-19 0.000184596)
(0.00236217 0.0166001 5.13601e-20 -0.00254744 -5.29646e-19 0.000185269)
(0.00375427 0.0186894 2.57635e-20 -0.00395693 -3.04284e-20 0.000202663)
(0.0054676 0.020537 3.16634e-20 -0.00566179 3.32166e-20 0.000194188)
(0.00739143 0.0216704 -5.47056e-21 -0.00759383 1.0058e-19 0.000202404)
(0.00919585 0.0216927 -6.41486e-20 -0.00943334 1.52185e-19 0.000237496)
(0.010616 0.0203494 -4.05929e-20 -0.010901 -4.92293e-19 0.00028495)
(0.0117316 0.0180501 -4.55619e-20 -0.0120168 -1.91249e-19 0.000285251)
(0.0128117 0.0154349 1.17073e-19 -0.0130686 -3.06672e-19 0.000256891)
(0.0132585 0.0119405 -9.32385e-20 -0.0134777 -3.11949e-19 0.00021917)
(0.0128279 0.00799828 -3.27681e-19 -0.0129635 3.02071e-19 0.000135591)
(0.0114216 0.00457258 4.14921e-20 -0.0114264 -1.22774e-18 4.8538e-06)
(0.00898925 0.00298655 2.72171e-19 -0.00880209 3.25441e-19 -0.000187159)
(0.0052284 0.00404624 2.97104e-19 -0.0047993 1.37018e-18 -0.000429096)
(-0.000586581 0.00750442 -4.81368e-19 0.0012342 7.74949e-19 -0.000647623)
(-0.00962698 0.0122066 6.73458e-19 0.0104507 3.3292e-18 -0.000823686)
(-0.0229579 0.0172797 -8.59892e-20 0.0238691 9.65209e-19 -0.000911195)
(-0.0401741 0.0254313 -9.745e-19 0.0410991 1.17319e-18 -0.000924972)
(-0.0612043 0.0367753 -5.25503e-19 0.0619366 -1.23029e-18 -0.000732226)
(-0.0860894 0.051732 6.68641e-19 0.0861537 2.4591e-18 -6.43121e-05)
(-0.113246 0.0709987 6.95845e-19 0.112204 -2.62574e-18 0.00104184)
(-0.137647 0.0935876 4.72531e-19 0.137106 2.36741e-18 0.000541023)
(-0.179149 0.112992 -5.29935e-19 0.173547 -1.20876e-18 0.00560228)
(-0.157695 0.171227 1.20814e-19 0.164284 -6.32358e-19 -0.00658909)
(-0.252451 0.023265 8.88653e-19 0.250013 2.34675e-18 0.00243828)
(0.00197057 -0.00259772 -1.77815e-22 -0.00218259 -6.842e-22 0.000212015)
(-0.000100465 -0.00363096 -6.99611e-22 -7.95929e-05 3.50534e-21 0.000180058)
(0.000239969 -0.000580436 -1.01836e-20 -0.000151215 -3.05703e-20 -8.87543e-05)
(0.0161877 0.0114509 -3.82292e-20 -0.016064 -1.11207e-19 -0.000123643)
(0.199695 0.0867767 1.17044e-19 -0.203611 1.61273e-19 0.00391574)
(0.488169 0.085089 2.60949e-19 -0.485671 -2.86728e-19 -0.00249752)
(0.395287 -0.0624495 3.28196e-19 -0.3964 -2.00416e-18 0.00111291)
(0.120226 -0.0875527 1.1485e-18 -0.114092 -1.85653e-18 -0.00613368)
(0.0424715 -0.0466577 -4.6317e-19 -0.040296 1.27323e-18 -0.00217548)
(0.020014 -0.0259983 2.64306e-19 -0.0200899 4.07213e-19 7.58732e-05)
(0.011811 -0.0174991 -3.64035e-19 -0.0120652 1.20229e-18 0.000254235)
(0.00844007 -0.0114846 -6.37528e-19 -0.00874193 1.39299e-18 0.000301858)
(0.00609136 -0.00685608 5.08003e-19 -0.00607528 -1.06491e-18 -1.60805e-05)
(0.0053491 -0.00351716 -1.31412e-19 -0.00534534 1.04601e-18 -3.76328e-06)
(0.00512864 -0.000629338 -2.34979e-19 -0.00509533 -1.19536e-18 -3.33085e-05)
(0.00522413 0.00164566 -1.25513e-19 -0.00515916 -5.17245e-19 -6.49626e-05)
(0.00571403 0.00362457 7.3216e-20 -0.00567437 2.58904e-19 -3.96614e-05)
(0.00647757 0.00522674 1.39071e-19 -0.0064332 1.44314e-20 -4.43688e-05)
(0.00761864 0.00634979 3.62859e-20 -0.00760735 6.17058e-20 -1.12876e-05)
(0.00902847 0.00676477 -1.28447e-20 -0.00903547 -8.70561e-20 6.99402e-06)
(0.0105362 0.00622423 -2.49064e-20 -0.0105762 -2.12282e-19 3.99927e-05)
(0.0119444 0.00474184 4.68158e-20 -0.0120105 -3.01424e-19 6.61013e-05)
(0.0133431 0.00236673 3.29493e-20 -0.0134723 -1.37532e-19 0.00012925)
(0.0147648 -0.000867303 2.77369e-20 -0.0149266 1.24619e-19 0.000161751)
(0.0160658 -0.00467468 -3.83228e-20 -0.0162323 7.54472e-19 0.000166524)
(0.0169865 -0.00849435 4.94463e-19 -0.0171541 -9.01406e-19 0.000167658)
(0.0172177 -0.0115038 1.88321e-19 -0.0173611 -6.90791e-19 0.000143339)
(0.0163193 -0.0128952 1.87393e-19 -0.0164295 1.7811e-18 0.00011019)
(0.013546 -0.0120295 -2.74435e-19 -0.0136088 5.17866e-19 6.28323e-05)
(0.00779252 -0.00879133 -9.13215e-19 -0.00784619 -7.1671e-19 5.3662e-05)
(-0.0023045 -0.00300383 5.9199e-19 0.00225074 -1.41494e-18 5.37608e-05)
(-0.0179267 0.00566607 -9.40258e-19 0.0178243 9.04567e-19 0.000102443)
(-0.0399081 0.0182847 1.61821e-18 0.0397857 -8.04321e-19 0.000122389)
(-0.0683682 0.0361179 9.38256e-19 0.0682142 -1.82454e-18 0.000154014)
(-0.103586 0.0596643 8.45479e-19 0.103499 1.04372e-18 8.76813e-05)
(-0.14562 0.0894509 6.93432e-19 0.145369 2.28145e-18 0.000250599)
(-0.192579 0.126457 4.88756e-19 0.192083 2.32765e-18 0.000496238)
(-0.235503 0.169883 -7.95702e-19 0.237143 -2.94081e-18 -0.0016396)
(-0.299085 0.2054 9.87046e-20 0.294166 -9.70452e-19 0.00491848)
(-0.287699 0.303718 -2.41407e-19 0.297997 -2.31353e-18 -0.0102978)
(-0.317188 0.155926 -7.0208e-19 0.310181 -1.16276e-18 0.00700695)
(0.0017197 -0.00194255 1.1816e-21 -0.00168938 3.5935e-21 -3.03203e-05)
(0.000640041 -0.00257567 -2.22974e-21 -0.000607843 -4.88733e-21 -3.21981e-05)
(-0.000489878 -0.00237538 1.00923e-20 0.000490633 2.59412e-20 -7.55051e-07)
(0.000250657 -0.000213398 9.57576e-21 -0.00021314 2.16209e-20 -3.75168e-05)
(0.0189162 0.0106857 -7.48746e-20 -0.018804 -1.34786e-19 -0.000112167)
(0.207489 0.07581 1.26261e-19 -0.210307 -1.11992e-19 0.00281805)
(0.546306 0.0814104 -1.98621e-19 -0.545556 2.98917e-21 -0.000749922)
(0.531841 -0.0686575 -1.11522e-19 -0.533671 5.76109e-19 0.00183006)
(0.2258 -0.134683 5.50031e-19 -0.223264 -1.22139e-19 -0.00253574)
(0.0840368 -0.0833293 6.47531e-20 -0.0784595 -4.33984e-20 -0.00557728)
(0.0402852 -0.0496904 3.48203e-19 -0.0398274 -2.45544e-18 -0.000457837)
(0.027333 -0.0360646 -2.60411e-19 -0.0280816 4.0742e-19 0.000748626)
(0.019613 -0.0275719 -3.16445e-19 -0.0198172 2.52081e-19 0.000204196)
(0.0159721 -0.0229108 3.69501e-19 -0.0159717 -2.54001e-18 -4.15012e-07)
(0.0141699 -0.0189919 3.0588e-19 -0.014109 1.55275e-19 -6.09626e-05)
(0.013092 -0.0163422 1.91373e-19 -0.012957 1.94462e-19 -0.000135077)
(0.0128441 -0.0144569 -1.81388e-19 -0.0127658 7.02254e-19 -7.83622e-05)
(0.0129787 -0.0134052 -8.51098e-22 -0.0128643 1.51127e-19 -0.000114381)
(0.0136328 -0.0131913 4.17761e-20 -0.013545 -7.63391e-20 -8.77946e-05)
(0.0146147 -0.0138767 5.99823e-20 -0.0145165 5.30058e-20 -9.8175e-05)
(0.0157239 -0.0154386 -2.77103e-20 -0.0156326 2.55936e-19 -9.13014e-05)
(0.016861 -0.0175573 -9.99097e-20 -0.0167451 2.50898e-19 -0.000115946)
(0.0183389 -0.0200673 1.69519e-19 -0.0182031 1.84241e-19 -0.000135788)
(0.0202716 -0.0230594 1.16653e-19 -0.0200981 4.40778e-19 -0.000173447)
(0.0224678 -0.026287 -3.31949e-19 -0.0222717 -8.78922e-20 -0.000196071)
(0.0245303 -0.0291572 -2.42327e-19 -0.0243307 2.28737e-18 -0.000199587)
(0.0258707 -0.0309584 1.20241e-19 -0.0256889 -3.67005e-20 -0.000181814)
(0.0254901 -0.0310446 -5.85311e-19 -0.0253508 -9.42407e-19 -0.000139293)
(0.021926 -0.0286298 -6.03433e-19 -0.0217878 -1.95194e-18 -0.000138187)
(0.0135278 -0.0229902 8.05698e-19 -0.0134427 -8.76194e-19 -8.50598e-05)
(-0.00155404 -0.0129029 -1.64341e-19 0.00163704 2.32922e-18 -8.30023e-05)
(-0.0246721 0.00274811 4.22626e-19 0.0246479 -1.41572e-18 2.41934e-05)
(-0.0570235 0.0254305 -1.60815e-18 0.0569725 4.01021e-18 5.10715e-05)
(-0.0988329 0.0561223 -1.90996e-18 0.0986474 2.02961e-19 0.00018553)
(-0.15054 0.0956184 -8.88361e-19 0.150425 7.94125e-19 0.000114495)
(-0.212088 0.144406 -9.53213e-19 0.211686 9.75577e-19 0.000402396)
(-0.281265 0.203756 1.52737e-19 0.280601 5.27092e-21 0.000663421)
(-0.346044 0.273454 -3.41838e-20 0.348212 5.67323e-20 -0.00216785)
(-0.430479 0.329744 4.34381e-20 0.424738 2.17049e-18 0.00574126)
(-0.446943 0.462497 -1.76296e-19 0.459961 -1.19828e-18 -0.0130179)
(-0.42833 0.322488 1.08817e-18 0.417489 -1.15705e-18 0.0108409)
(0.00125795 -0.0014306 -1.14428e-21 -0.00127361 -2.41882e-21 1.56611e-05)
(0.000606351 -0.00166803 6.12545e-21 -0.000587903 1.2685e-20 -1.84475e-05)
(-8.29377e-05 -0.00207037 -3.23764e-21 8.80415e-05 -9.63253e-21 -5.10375e-06)
(-0.000498736 -0.00141476 -2.11818e-21 0.000494673 -8.01355e-21 4.06315e-06)
(0.000143826 -0.000208955 1.3064e-21 -0.000125088 4.60051e-21 -1.8738e-05)
(0.0147607 0.0066063 -1.47815e-20 -0.0146341 -1.67319e-20 -0.000126617)
(0.180354 0.0557047 -4.3929e-20 -0.181751 -3.73924e-20 0.00139763)
(0.547243 0.0724204 -2.23982e-19 -0.548868 4.43675e-19 0.00162451)
(0.662722 -0.0630062 -4.34214e-19 -0.662252 -3.41555e-19 -0.000470127)
(0.388456 -0.184876 -1.59553e-19 -0.396383 -1.13054e-18 0.00792686)
(0.149239 -0.135545 5.31084e-19 -0.139779 1.60517e-18 -0.00946002)
(0.0747914 -0.0899378 6.64688e-19 -0.0715269 -1.11894e-18 -0.00326449)
(0.047414 -0.0615174 -8.52285e-19 -0.0475061 5.59459e-19 9.21279e-05)
(0.0349321 -0.0508891 3.91132e-19 -0.0353126 1.16216e-18 0.000380535)
(0.0288514 -0.0443002 6.87766e-21 -0.0289724 5.37139e-19 0.000121011)
(0.0248184 -0.0404576 -2.45488e-19 -0.0245708 -1.00444e-19 -0.000247597)
(0.0229828 -0.0381947 1.82553e-19 -0.0228688 -9.87724e-19 -0.000113929)
(0.0219479 -0.037383 -3.19905e-20 -0.0218063 6.46984e-19 -0.000141603)
(0.0218916 -0.0379493 8.86855e-20 -0.0218606 -1.24447e-19 -3.10436e-05)
(0.022458 -0.0396579 5.08122e-20 -0.022422 2.26122e-19 -3.59914e-05)
(0.023444 -0.0420984 -7.92239e-20 -0.0234345 -3.23992e-19 -9.4801e-06)
(0.0247829 -0.0445468 4.50183e-20 -0.024758 1.13818e-20 -2.48586e-05)
(0.0269218 -0.0468297 -9.96341e-21 -0.0268722 1.19479e-19 -4.96475e-05)
(0.0299512 -0.0492875 -3.42737e-19 -0.0298484 -3.69533e-19 -0.000102741)
(0.0335897 -0.0519395 5.51968e-19 -0.0334363 -9.26478e-19 -0.000153351)
(0.0372419 -0.0543146 -1.17906e-19 -0.0370379 -4.50975e-19 -0.00020403)
(0.0399926 -0.0556499 -6.63246e-19 -0.0397642 -4.77226e-19 -0.000228333)
(0.0403403 -0.0549341 5.01892e-19 -0.0401267 -1.23025e-18 -0.000213568)
(0.0362028 -0.0507047 1.46801e-18 -0.0359766 -2.22964e-19 -0.00022625)
(0.0253302 -0.041397 1.54419e-19 -0.0251733 1.81894e-18 -0.000156958)
(0.00525097 -0.0249403 -7.87366e-19 -0.00511534 -9.6385e-19 -0.000135626)
(-0.0258299 0.000366328 -7.4542e-19 0.0258143 8.69798e-19 1.56376e-05)
(-0.0695288 0.0363172 6.45795e-19 0.0694868 -4.23619e-18 4.19829e-05)
(-0.126094 0.0839946 2.10175e-18 0.125884 -2.62922e-18 0.000210455)
(-0.19578 0.1442 1.12974e-18 0.195657 -2.31343e-18 0.00012356)
(-0.278389 0.217243 -5.95023e-19 0.27791 -4.48415e-20 0.000478911)
(-0.371314 0.304446 1.67898e-19 0.370584 1.84464e-18 0.000729832)
(-0.460844 0.405778 -2.87999e-19 0.463234 -1.20553e-18 -0.00239075)
(-0.565799 0.490532 -6.17344e-19 0.559914 6.27958e-19 0.00588423)
(-0.624571 0.647429 -7.61538e-19 0.63759 2.25069e-18 -0.0130197)
(-0.585858 0.537374 -1.10932e-18 0.576335 -8.91901e-19 0.00952222)
(0.00100287 -0.000996235 -3.38647e-22 -0.00101206 -6.70844e-22 9.19081e-06)
(0.000532976 -0.0012289 9.67599e-22 -0.000531621 8.46312e-22 -1.35487e-06)
(0.000125811 -0.00134352 -3.59154e-21 -0.000118518 -5.51876e-21 -7.29301e-06)
(-0.000361431 -0.0015573 -5.61295e-21 0.000362484 -8.26524e-21 -1.05297e-06)
(-0.000444674 -0.000924794 -1.38218e-21 0.000441561 -2.0035e-21 3.11323e-06)
(8.6035e-06 -0.000271688 4.37154e-21 1.53706e-06 7.28924e-21 -1.01406e-05)
(0.00627054 0.00203908 -7.3044e-21 -0.00619419 -1.28567e-20 -7.63456e-05)
(0.12873 0.0333803 8.92297e-20 -0.129061 1.10924e-19 0.000330913)
(0.478459 0.0551591 3.46492e-19 -0.481552 3.76717e-19 0.00309318)
(0.746024 -0.042327 -1.07779e-19 -0.741649 1.39398e-18 -0.00437533)
(0.591916 -0.211753 -1.05052e-18 -0.603965 5.15234e-19 0.0120489)
(0.271972 -0.21679 2.20691e-19 -0.270864 -1.95016e-18 -0.00110727)
(0.124627 -0.143077 4.11877e-19 -0.115086 2.0429e-18 -0.00954117)
(0.0757107 -0.101814 -8.61883e-19 -0.073703 -2.71191e-19 -0.00200766)
(0.056617 -0.0821063 3.90226e-19 -0.0571406 -1.50239e-18 0.00052365)
(0.0445648 -0.0725974 -2.4021e-19 -0.0446152 8.33118e-19 5.04115e-05)
(0.0381757 -0.0678681 1.86301e-19 -0.0381668 7.98786e-19 -8.96543e-06)
(0.0342022 -0.0658207 1.63763e-19 -0.0338902 4.32914e-19 -0.000312034)
(0.0327339 -0.0665567 -9.04967e-20 -0.0326372 3.85327e-19 -9.66985e-05)
(0.03273 -0.0691924 5.72791e-21 -0.0326489 -1.11995e-18 -8.11409e-05)
(0.0339128 -0.0728863 3.08612e-20 -0.0339242 4.83974e-19 1.1372e-05)
(0.0360389 -0.0762967 -1.55436e-19 -0.0360391 -5.31419e-21 2.48924e-07)
(0.0395913 -0.0792193 2.12773e-19 -0.039567 -5.46905e-19 -2.42899e-05)
(0.0444892 -0.082078 1.96647e-19 -0.0444052 -7.03012e-20 -8.39749e-05)
(0.0502962 -0.0851248 -3.01226e-19 -0.0501579 1.1669e-18 -0.000138279)
(0.0562168 -0.0879545 -2.95713e-19 -0.0560183 -1.02703e-18 -0.000198523)
(0.0610947 -0.0895698 7.3925e-19 -0.0608626 -6.77529e-19 -0.000232125)
(0.0629669 -0.0883166 6.93892e-20 -0.0627149 1.94692e-18 -0.000251967)
(0.0591312 -0.0818759 1.76756e-19 -0.0588538 2.15163e-18 -0.000277465)
(0.0466 -0.0677384 -4.58803e-19 -0.0463703 -3.63018e-19 -0.000229687)
(0.0222169 -0.0429365 6.9861e-21 -0.0220423 -1.50619e-18 -0.00017467)
(-0.0163865 -0.00506205 -1.04616e-18 0.0163785 -4.06218e-19 8.0325e-06)
(-0.0711499 0.0479771 -2.67392e-19 0.0710716 1.93759e-18 7.82951e-05)
(-0.14242 0.117435 4.49893e-19 0.142197 2.93089e-18 0.000223137)
(-0.229925 0.203715 2.85937e-18 0.229759 9.8463e-19 0.000165024)
(-0.33305 0.306508 -6.54752e-19 0.332567 -1.13822e-18 0.000483253)
(-0.448951 0.426872 -2.96753e-18 0.448315 -1.15998e-18 0.000635653)
(-0.564221 0.563822 6.68696e-19 0.566579 3.46687e-20 -0.00235793)
(-0.690974 0.685362 -3.12906e-19 0.686229 -2.5618e-18 0.00474538)
(-0.800052 0.859534 -2.04834e-19 0.810419 7.92455e-19 -0.0103669)
(-0.768132 0.803936 6.60657e-19 0.765565 2.26146e-18 0.00256719)
(0.000766424 -0.000701501 -7.30334e-23 -0.000774384 -5.71887e-23 7.95971e-06)
(0.000483162 -0.000905285 -1.27463e-21 -0.000483677 -2.13632e-21 5.14704e-07)
(0.000187893 -0.000986332 1.17629e-21 -0.000186284 2.27666e-21 -1.60916e-06)
(-0.000102935 -0.00104019 6.04242e-21 0.000108723 9.64347e-21 -5.78796e-06)
(-0.000457179 -0.00118428 1.16086e-21 0.000460099 1.96128e-21 -2.92024e-06)
(-0.000382991 -0.000634016 6.54948e-22 0.000380789 4.30859e-22 2.20235e-06)
(-0.000132344 -0.000338893 -7.93272e-21 0.000136499 -1.0299e-20 -4.1545e-06)
(0.00133158 0.000207789 -8.01079e-23 -0.00130764 2.821e-22 -2.39469e-05)
(0.0725391 0.0148922 -4.5832e-20 -0.0724119 -1.09391e-19 -0.000127234)
(0.35235 0.0354958 3.2726e-19 -0.354233 4.72928e-19 0.0018827)
(0.73307 -0.0255972 -2.97039e-19 -0.731804 -1.95725e-18 -0.00126638)
(0.77991 -0.196232 4.1481e-19 -0.784216 2.00673e-18 0.0043056)
(0.476269 -0.298212 -1.32339e-19 -0.490643 -1.39143e-18 0.0143738)
(0.214245 -0.225589 -5.90289e-19 -0.204539 -2.6977e-19 -0.00970667)
(0.116513 -0.158365 1.18467e-18 -0.108667 -9.9491e-19 -0.00784575)
(0.0814975 -0.1213 3.97459e-19 -0.0802582 9.06864e-19 -0.0012393)
(0.0646648 -0.107437 -4.56769e-19 -0.0654574 6.22272e-19 0.000792684)
(0.0537275 -0.100898 -4.22253e-19 -0.0538108 4.58037e-19 8.32372e-05)
(0.047968 -0.0998582 -6.87977e-19 -0.0480136 -2.64405e-20 4.55887e-05)
(0.0456833 -0.101915 6.30948e-19 -0.0454904 -7.09067e-19 -0.000192862)
(0.0466764 -0.106832 1.34208e-19 -0.0466227 9.66196e-19 -5.37043e-05)
(0.0501608 -0.112546 -3.77221e-19 -0.0500937 -2.27462e-19 -6.70549e-05)
(0.0562311 -0.11822 1.83258e-19 -0.0561474 3.63979e-19 -8.37368e-05)
(0.0644373 -0.123928 1.19286e-19 -0.0642734 2.60337e-19 -0.000163904)
(0.0738012 -0.129354 5.23317e-20 -0.0735814 -4.26795e-19 -0.00021976)
(0.0832107 -0.133979 -2.0321e-20 -0.0829405 5.76828e-19 -0.000270193)
(0.0915395 -0.13697 5.18646e-19 -0.0912539 1.51452e-18 -0.000285572)
(0.0964987 -0.136003 2.47392e-19 -0.09623 -6.15287e-19 -0.000268715)
(0.0946666 -0.127558 -1.10239e-18 -0.0944103 1.8518e-19 -0.000256316)
(0.0823406 -0.107982 -1.40463e-18 -0.0821258 -1.34194e-18 -0.000214805)
(0.0555585 -0.0731475 1.04116e-18 -0.0553891 -4.4515e-20 -0.000169374)
(0.0114461 -0.0198149 1.12948e-18 -0.0114736 -1.44477e-18 2.74622e-05)
(-0.0522299 0.0543104 8.69562e-19 0.0521057 4.3726e-19 0.000124199)
(-0.135883 0.150441 -1.53166e-18 0.135645 -2.07192e-19 0.000237931)
(-0.238655 0.268096 -1.53555e-18 0.238474 1.87717e-18 0.000180561)
(-0.359041 0.405534 -3.71693e-19 0.358605 -1.71139e-18 0.000436703)
(-0.494169 0.562989 2.17292e-18 0.493794 8.917e-20 0.000374774)
(-0.632684 0.737732 -5.53135e-19 0.634864 8.20175e-20 -0.0021795)
(-0.78208 0.902652 4.46263e-19 0.779583 -2.52433e-19 0.00249727)
(-0.938857 1.09138 -7.24716e-19 0.943327 -1.80451e-18 -0.0044697)
(-0.944262 1.10827 -4.80927e-19 0.953011 7.32244e-19 -0.00874941)
(0.000587697 -0.000505303 -2.06371e-22 -0.00059374 -1.27446e-22 6.04292e-06)
(0.000408327 -0.000652331 -1.15013e-21 -0.00040846 -1.93054e-21 1.33203e-07)
(0.000217163 -0.000748003 4.76848e-21 -0.00021726 6.34691e-21 9.68715e-08)
(1.28286e-05 -0.000762953 -5.03531e-22 -1.2499e-05 -1.15106e-21 -3.29578e-07)
(-0.000203818 -0.000807812 1.84787e-21 0.000208039 1.95691e-21 -4.22099e-06)
(-0.000412 -0.000786759 -1.48476e-21 0.000415474 -1.42503e-21 -3.47369e-06)
(-0.000369642 -0.000505102 2.63991e-21 0.000368116 4.2126e-21 1.52661e-06)
(-0.000226748 -0.000331175 3.1479e-21 0.000226933 3.06697e-21 -1.84927e-07)
(0.000382718 -9.54565e-05 1.26652e-22 -0.000372634 1.70951e-21 -1.00843e-05)
(0.0317915 0.00421851 1.10313e-19 -0.0316235 1.05885e-19 -0.000167961)
(0.209084 0.0166807 -9.5342e-20 -0.209522 -1.60704e-20 0.00043749)
(0.592171 -0.0158348 -6.76924e-19 -0.594186 -3.20332e-19 0.00201452)
(0.866212 -0.150277 7.86836e-19 -0.862855 -1.028e-18 -0.00335735)
(0.725819 -0.327145 -1.48186e-18 -0.740144 1.18292e-18 0.014325)
(0.390332 -0.341488 1.71274e-19 -0.398955 -1.51572e-18 0.00862256)
(0.188004 -0.240487 9.04183e-19 -0.174331 1.54735e-18 -0.0136732)
(0.114504 -0.17856 4.58687e-19 -0.107618 -1.84921e-18 -0.0068863)
(0.0870286 -0.147654 6.54525e-20 -0.0866252 6.3818e-19 -0.000403396)
(0.0716973 -0.13893 -8.02811e-19 -0.0729634 -1.20488e-18 0.00126614)
(0.0633852 -0.138241 3.5643e-19 -0.0638486 1.25503e-18 0.000463381)
(0.0618346 -0.143721 2.65985e-20 -0.0619841 -9.10111e-19 0.000149478)
(0.0658636 -0.152203 -3.72601e-19 -0.0656796 4.6517e-19 -0.000183935)
(0.0748903 -0.16243 2.89705e-19 -0.0746592 -3.16961e-20 -0.00023101)
(0.087716 -0.173771 -1.65929e-19 -0.0874058 6.87947e-20 -0.000310252)
(0.102993 -0.185451 -1.54103e-19 -0.102631 8.30016e-19 -0.000362188)
(0.119019 -0.195938 -3.58516e-20 -0.118603 -1.38395e-19 -0.000416394)
(0.133683 -0.203028 -1.26875e-18 -0.133257 1.53999e-19 -0.000425859)
(0.144281 -0.203728 -2.25492e-19 -0.143906 1.38576e-19 -0.000375025)
(0.147491 -0.194392 -2.44981e-20 -0.147175 -1.51126e-18 -0.000316452)
(0.138982 -0.169948 1.96994e-18 -0.138737 -8.31611e-20 -0.000245488)
(0.113886 -0.124629 -2.14407e-19 -0.113764 1.08966e-18 -0.000121557)
(0.0687276 -0.0541054 7.12793e-19 -0.0688849 1.11701e-18 0.000157275)
(0.00119355 0.0441276 -1.22864e-18 -0.00156231 4.12202e-19 0.000368762)
(-0.0894424 0.170874 1.90579e-18 0.0890428 -1.56059e-18 0.000399597)
(-0.201676 0.323946 2.42606e-19 0.201349 -1.37484e-19 0.000327087)
(-0.332991 0.499232 1.60074e-18 0.332548 4.23215e-19 0.000443215)
(-0.479948 0.6944 -3.8848e-18 0.479777 -1.06079e-19 0.000171143)
(-0.63449 0.905619 1.07293e-18 0.636675 7.56663e-19 -0.00218483)
(-0.803147 1.11257 1.70681e-19 0.803315 4.39009e-19 -0.000167733)
(-0.999955 1.31814 8.52258e-19 0.997147 5.24105e-19 0.00280807)
(-1.0735 1.41428 -1.32862e-19 1.09406 -2.29719e-18 -0.0205576)
(0.000449167 -0.000368031 -8.23354e-22 -0.000453547 -1.0748e-21 4.37959e-06)
(0.000331001 -0.000476386 3.38148e-21 -0.000331296 4.12302e-21 2.94856e-07)
(0.000208075 -0.000550591 -7.45233e-22 -0.000208285 -1.03473e-21 2.09746e-07)
(7.14177e-05 -0.000593224 -6.26692e-21 -7.20572e-05 -7.6871e-21 6.39515e-07)
(-7.13134e-05 -0.000587686 -5.37524e-22 7.13527e-05 -7.33558e-22 -3.93384e-08)
(-0.000226521 -0.000594642 6.59316e-21 0.000229239 8.21881e-21 -2.71809e-06)
(-0.000363792 -0.000556831 -1.59338e-21 0.000367045 -2.39382e-21 -3.25356e-06)
(-0.000332688 -0.000381797 -1.04148e-20 0.000332296 -1.21121e-20 3.92081e-07)
(-0.000270135 -0.000293999 1.00342e-20 0.000268755 1.1241e-20 1.38018e-06)
(6.27827e-06 -0.00015301 4.12329e-22 -3.81419e-06 -7.65122e-22 -2.46408e-06)
(0.00770451 -1.28423e-05 -6.4021e-21 -0.00762268 -1.24516e-20 -8.18275e-05)
(0.095023 0.00404782 -6.78083e-20 -0.0948752 -3.66388e-20 -0.000147862)
(0.380245 -0.010785 -4.22995e-19 -0.381455 -2.61294e-19 0.00121018)
(0.777509 -0.106123 2.46835e-19 -0.777364 -7.37198e-19 -0.000144804)
(0.91035 -0.281722 -4.46782e-19 -0.909735 2.44072e-18 -0.000615068)
(0.658818 -0.420735 5.5386e-19 -0.677408 -7.85748e-19 0.0185908)
(0.34093 -0.373776 -7.50255e-19 -0.343616 1.08624e-18 0.00268609)
(0.17437 -0.264999 -1.35943e-19 -0.159626 6.52289e-19 -0.014744)
(0.113256 -0.206441 -2.26002e-19 -0.106704 -4.34007e-19 -0.00655172)
(0.091676 -0.184134 3.33805e-19 -0.0920253 -1.21496e-18 0.000349364)
(0.0826623 -0.184781 5.04357e-19 -0.0843638 3.05015e-19 0.0017015)
(0.0837725 -0.195436 -3.02656e-19 -0.0844556 -1.03602e-18 0.000683133)
(0.0939899 -0.211466 -1.64758e-19 -0.0939974 4.2688e-19 7.5157e-06)
(0.11118 -0.230588 8.3408e-19 -0.110683 -6.6249e-19 -0.000496767)
(0.133627 -0.251723 -6.45256e-19 -0.132994 1.78011e-19 -0.000632579)
(0.159132 -0.272599 -4.07203e-19 -0.158481 -4.79047e-19 -0.000650486)
(0.185041 -0.289821 1.46807e-18 -0.184434 -1.73782e-18 -0.000607808)
(0.207746 -0.298587 -5.49791e-19 -0.207181 1.47855e-18 -0.000564654)
(0.222544 -0.292792 1.12322e-19 -0.222037 -1.08436e-19 -0.000506996)
(0.224193 -0.265672 -1.48188e-18 -0.223791 1.5527e-18 -0.0004024)
(0.20763 -0.210581 5.85975e-19 -0.207392 -9.42019e-19 -0.00023815)
(0.169118 -0.122686 -7.63719e-19 -0.169184 5.87256e-19 6.52232e-05)
(0.106639 0.000550177 -1.17825e-18 -0.107163 -7.15746e-19 0.000523882)
(0.0188249 0.159336 5.23579e-19 -0.0197073 2.19026e-18 0.000882413)
(-0.0929812 0.349108 -1.43407e-18 0.0918394 3.43046e-19 0.00114182)
(-0.225063 0.561645 -3.43962e-19 0.223755 2.46646e-20 0.00130793)
(-0.373896 0.791467 1.49261e-18 0.373007 -1.93384e-18 0.000888797)
(-0.532936 1.03075 -1.16915e-18 0.534557 3.54009e-19 -0.00162114)
(-0.712763 1.26562 -4.86244e-19 0.713956 -1.31201e-18 -0.00119223)
(-0.940619 1.48512 -3.21815e-18 0.931861 -2.13442e-18 0.00875824)
(-1.08826 1.65595 1.72565e-19 1.11906 6.61365e-19 -0.0308053)
(0.000342104 -0.00027145 -7.4724e-22 -0.000345129 -7.41747e-22 3.02537e-06)
(0.00026226 -0.000350384 -3.09489e-21 -0.000262577 -3.26324e-21 3.16846e-07)
(0.000180142 -0.000406549 -2.07669e-22 -0.000180326 -4.80309e-22 1.83544e-07)