/*--------------------------------*- C++ -*----------------------------------*\
| =========                 |                                                 |
| \\      /  F ield         | OpenFOAM: The Open Source CFD Toolbox           |
|  \\    /   O peration     | Version:  2312                                  |
|   \\  /    A nd           | Website:  www.openfoam.com                      |
|    \\/     M anipulation  |                                                 |
\*---------------------------------------------------------------------------*/
FoamFile
{
    version     2.0;
    format      ascii;
    arch        "LSB;label=32;scalar=64";
    class       volScalarField;
    location    "350";
    object      turbulenceProperties:k;
}
// * * * * * * * * * * * * * * * * * * * * * * * * * * * * * * * * * * * * * //

dimensions      [0 2 -2 0 0 0 0];

internalField   nonuniform List<scalar> 
11040
(
0.483127
0.337345
0.0434433
0.202111
0.37082
0.312437
0.269441
0.234335
0.214121
0.196608
0.182519
0.173451
0.16857
0.168035
0.171217
0.177062
0.186242
0.199939
0.218943
0.245051
0.280199
0.325531
0.383902
0.461442
0.557869
0.66659
0.78097
0.896298
1.01403
1.12407
1.1948
1.21339
1.16996
1.06831
0.929762
0.797602
0.458625
0.202551
0.0716865
0.279165
0.429828
0.042932
0.107656
0.296276
0.783993
0.47496
0.0849623
0.0202767
0.0107998
0.0209939
0.0280892
0.0325836
0.036621
0.0406797
0.0454919
0.0514387
0.058266
0.0659158
0.0745811
0.0850787
0.0968691
0.11012
0.123571
0.135402
0.145145
0.152391
0.153085
0.144311
0.126618
0.108433
0.0933062
0.0784538
0.0699722
0.0724495
0.0822992
0.104207
0.138493
0.179919
0.226202
0.299466
0.322636
0.671923
0.0215586
0.0153011
0.0641746
0.586891
1.28466
0.896889
0.251099
0.0956029
0.0410502
0.015118
0.00181368
0.0118192
0.0208278
0.0283798
0.0354249
0.0417079
0.0481125
0.0551598
0.0627451
0.0699791
0.0754239
0.0776638
0.0757302
0.0711053
0.0663488
0.0591065
0.0500895
0.0406569
0.0310488
0.0214341
0.0252492
0.0525516
0.0966246
0.159147
0.238117
0.333652
0.442615
0.552402
0.696752
0.782056
0.839217
0.014694
0.0164969
0.0028081
0.0767099
0.716251
1.6326
1.32786
0.485681
0.206862
0.108716
0.070124
0.0474783
0.0303178
0.0211649
0.0170306
0.0180077
0.0223136
0.0274566
0.0327688
0.0373008
0.0405095
0.0425892
0.0450276
0.0492056
0.0556614
0.0631688
0.0688444
0.0691371
0.060205
0.0390687
0.0125253
0.0623164
0.145734
0.256865
0.39743
0.568123
0.765812
0.968512
1.20101
1.40523
1.16668
0.011468
0.011736
0.0107425
0.0010645
0.0775738
0.727685
1.82639
1.78244
0.869316
0.387361
0.211826
0.150946
0.112448
0.0926351
0.0785279
0.069305
0.0640427
0.0617439
0.062803
0.0667156
0.0729726
0.0806042
0.0900287
0.101691
0.114577
0.126319
0.133835
0.133345
0.119743
0.0886325
0.0432462
0.082549
0.207682
0.37798
0.593438
0.853582
1.15541
1.4714
1.79834
2.15798
1.77214
0.00847102
0.00781336
0.00930251
0.00591326
0.000322041
0.0571684
0.621138
1.83084
2.21001
1.4421
0.660208
0.38566
0.258191
0.205451
0.17575
0.157468
0.147986
0.143891
0.145518
0.151383
0.160087
0.169357
0.179456
0.191593
0.20548
0.218783
0.2277
0.22652
0.207088
0.16138
0.0847914
0.0859703
0.261102
0.50419
0.809534
1.17536
1.59827
2.04821
2.48712
3.01248
2.63717
0.00627809
0.00593398
0.0059808
0.00719102
0.00320144
1.01043e-05
0.0256897
0.436273
1.60051
2.47533
2.11015
1.15536
0.622637
0.420151
0.332217
0.283347
0.258952
0.246446
0.246596
0.254511
0.267384
0.280663
0.294574
0.310516
0.328848
0.34718
0.360631
0.360806
0.335967
0.273545
0.160853
0.0571033
0.285699
0.614545
1.02302
1.50715
2.06295
2.66012
3.23688
3.92448
3.70186
0.0046171
0.00454897
0.00444294
0.00464926
0.00576197
0.00114472
0.000769614
0.00619398
0.241686
1.17554
2.43504
2.68212
1.89145
1.02541
0.647827
0.485218
0.418006
0.380476
0.368701
0.371556
0.387968
0.410061
0.435679
0.464831
0.495597
0.524853
0.548279
0.555058
0.528769
0.452068
0.305789
0.0762494
0.250868
0.67509
1.19559
1.80406
2.49543
3.24055
3.97682
4.80198
4.86137
0.00344482
0.00340935
0.00345468
0.00336633
0.00375477
0.00393044
0.00138908
0.000506402
0.00163705
0.104044
0.693987
1.971
2.91912
2.67251
1.73778
1.00467
0.700901
0.570263
0.521499
0.506646
0.521013
0.552061
0.595408
0.647965
0.706151
0.763163
0.809265
0.83119
0.812526
0.731113
0.562314
0.291625
0.147107
0.642306
1.27117
1.99913
2.81253
3.68672
4.5726
5.51063
5.93865
0.00258057
0.00257074
0.00260814
0.0026475
0.00261785
0.00286754
0.00293564
0.0012295
0.000224754
7.40289e-07
0.0255094
0.312967
1.2645
2.6098
3.17102
2.63047
1.68765
1.04564
0.779618
0.685247
0.675346
0.708604
0.770734
0.852286
0.948805
1.05093
1.14497
1.21132
1.22479
1.15782
0.985079
0.696268
0.356225
0.534828
1.2034
2.01544
2.91629
3.86805
4.84144
5.85073
6.63379
0.00194029
0.00193961
0.00197025
0.00201822
0.00204476
0.00204723
0.00215007
0.00231086
0.00112868
8.46869e-05
0.000484885
0.000175405
0.0873397
0.599826
1.78862
3.04426
3.32324
2.64782
1.73502
1.14519
0.91795
0.892723
0.958711
1.06786
1.20708
1.36212
1.51746
1.64959
1.72818
1.72181
1.60035
1.34868
0.996957
0.766735
1.10675
1.84875
2.74341
3.67793
4.60302
5.55871
6.48488
0.00146152
0.00146385
0.00148848
0.00152556
0.00156526
0.00159245
0.00159241
0.00165808
0.00176861
0.0012762
5.90861e-05
2.18822e-05
0.0021321
0.0117497
0.188256
0.885644
2.17977
3.32412
3.46569
2.76763
1.91124
1.39283
1.23081
1.28062
1.44883
1.66408
1.89265
2.10414
2.26739
2.35111
2.32653
2.17519
1.91086
1.61816
1.51501
1.82404
2.45854
3.18929
3.87139
4.56614
5.32429
0.00110108
0.00110504
0.00112272
0.00115223
0.00118532
0.00121839
0.00124309
0.00125026
0.00128576
0.00136456
0.0012092
0.000270101
2.80699e-05
0.000264753
8.91956e-05
0.0322243
0.281176
1.07665
2.38764
3.48407
3.64308
3.07326
2.41811
1.99596
1.85071
1.92546
2.16144
2.46473
2.74958
2.96693
3.08642
3.08941
2.97946
2.79019
2.60532
2.53429
2.64702
2.88786
3.12802
3.32175
3.57318
0.000828777
0.000833321
0.000846019
0.000868215
0.000895194
0.000923487
0.000951439
0.00097406
0.000987247
0.00100187
0.0010712
0.00104737
0.000584702
4.95269e-05
6.60962e-06
0.00128628
0.00162469
0.0481528
0.325016
1.11946
2.39602
3.5056
3.89285
3.71058
3.37041
3.09026
2.94795
2.94661
3.07543
3.30518
3.56357
3.77814
3.90907
3.95571
3.93732
3.8855
3.81172
3.70145
3.50936
3.18037
2.71057
0.000622466
0.000627054
0.000636332
0.000652721
0.000673862
0.000697199
0.000721281
0.000745012
0.000766494
0.000780399
0.000792815
0.000836173
0.000845651
0.000693011
9.38985e-05
1.60469e-05
4.03894e-05
0.00181825
0.000600807
0.0441557
0.294116
0.953399
1.99554
3.09669
3.89205
4.29539
4.467
4.52685
4.51475
4.4741
4.43983
4.43524
4.47709
4.56109
4.66915
4.78221
4.88929
4.95156
4.9018
4.67921
4.14005
0.000466054
0.000470309
0.000477165
0.000489236
0.000505323
0.000523842
0.000543701
0.000564153
0.000584454
0.00060365
0.000617973
0.000632353
0.000650003
0.00069321
0.00063141
0.000455235
3.6891e-05
2.51236e-06
1.14823e-05
0.00175532
5.73246e-05
0.0249079
0.156244
0.514444
1.16825
2.05655
3.01373
3.88668
4.621
5.22129
5.66889
5.93311
6.02816
6.00417
5.92511
5.85131
5.82792
5.82968
5.83521
5.90293
5.7421
0.000348473
0.000352169
0.000357343
0.00036627
0.000378344
0.000392606
0.000408288
0.000424928
0.000442068
0.000459231
0.000475662
0.000490493
0.000502938
0.000518302
0.000539795
0.000566498
0.000476264
0.000216581
2.23618e-05
1.7451e-06
9.84028e-07
0.00112998
0.00483047
0.0040936
0.0301535
0.129291
0.360248
0.761688
1.32822
2.01003
2.74032
3.45732
4.11123
4.66398
5.09369
5.40236
5.62657
5.8118
5.99296
6.2424
6.35192
0.000263117
0.000266257
0.000270356
0.000277177
0.000286413
0.000297423
0.000309773
0.000323037
0.000336983
0.000351372
0.000365762
0.000379892
0.000393514
0.000405563
0.000417878
0.00043429
0.000462213
0.000457833
0.00038251
0.000148771
1.65596e-05
1.65366e-06
0
0.000126018
0.00156719
0.00450247
0.000160679
0.00660228
0.0264589
0.0798023
0.183566
0.343906
0.554703
0.801302
1.06446
1.3272
1.58064
1.82767
2.06573
2.31015
2.52178
0.000202387
0.000205046
0.000208384
0.000213738
0.000220941
0.000229587
0.000239395
0.000250115
0.000261551
0.000273509
0.000285714
0.000297978
0.000310238
0.000322222
0.000333674
0.000344225
0.000358248
0.000376164
0.000395634
0.000387867
0.000306775
0.000146885
1.49135e-05
1.94362e-06
5.83204e-07
0
1.75419e-06
0.000376405
0.00227299
0.00497622
0.00816524
0.00264585
0.00573529
0.00765531
0.00844813
0.0157373
0.0349086
0.064687
0.102841
0.148261
0.193138
0.000158513
0.000160721
0.000163452
0.000167699
0.000173373
0.000180208
0.000188003
0.000196625
0.000205902
0.000215703
0.000225923
0.000236353
0.000246917
0.000257534
0.000268107
0.000278382
0.000288481
0.000299064
0.000312232
0.000330199
0.000343531
0.000343124
0.000288912
0.00019091
5.96798e-05
8.30555e-06
1.59182e-06
8.72751e-07
2.03404e-07
0
0
4.28037e-05
0.000329179
0.00120718
0.00263606
0.00421067
0.00565662
0.00701229
0.00861221
0.00234465
0.00302202
0.000125821
0.000127635
0.000129894
0.000133287
0.000137802
0.000143239
0.000149476
0.000156398
0.000163887
0.000171863
0.00018024
0.000188889
0.00019775
0.000206753
0.000215838
0.00022494
0.000233998
0.000242965
0.000251988
0.000261978
0.00027459
0.000289703
0.000306259
0.0003106
0.000295438
0.000251735
0.000183958
0.000103628
2.52347e-05
4.84797e-06
1.27357e-06
9.3164e-07
6.26639e-07
3.7104e-07
1.66072e-07
3.76254e-08
0
0
0
9.83189e-06
1.3878e-05
0.000100965
0.00010245
0.000104326
0.00010707
0.000110682
0.000115042
0.000120051
0.000125621
0.000131677
0.000138142
0.00014494
0.000152028
0.000159316
0.000166758
0.000174313
0.000181929
0.000189579
0.000197235
0.000204895
0.000212516
0.000220562
0.000229179
0.000239942
0.000252459
0.000265316
0.000276537
0.00028092
0.00027485
0.000257633
0.000225491
0.000182196
0.000137068
9.54021e-05
5.84485e-05
2.72618e-05
6.46352e-06
2.14582e-06
8.49556e-07
7.35211e-07
6.36354e-07
5.52523e-07
8.17264e-05
8.29471e-05
8.45123e-05
8.67457e-05
8.96497e-05
9.31631e-05
9.71978e-05
0.000101693
0.000106583
0.000111798
0.000117301
0.000123064
0.000128997
0.000135061
0.00014122
0.000147437
0.000153676
0.000159907
0.000166135
0.000172309
0.000178555
0.000184805
0.000190946
0.000197343
0.000204201
0.00021202
0.000220669
0.000229232
0.000236975
0.000243315
0.000245908
0.000243965
0.000238355
0.00022959
0.000218049
0.000204125
0.00018858
0.000171144
0.000154681
0.000139117
0.000127174
6.66378e-05
6.76364e-05
6.89497e-05
7.07786e-05
7.31316e-05
7.59753e-05
7.92404e-05
8.28755e-05
8.68253e-05
9.10392e-05
9.54858e-05
0.000100129
0.000104924
0.000109816
0.000114772
0.000119764
0.000124755
0.000129711
0.000134617
0.000139428
0.000144231
0.000149014
0.000153546
0.000157773
0.000161752
0.000165568
0.000169362
0.000173202
0.000177068
0.000181023
0.000184851
0.000188258
0.000191018
0.000193004
0.000194172
0.000194492
0.00019393
0.000192399
0.000189865
0.000185662
0.000183829
5.46635e-05
5.54846e-05
5.65969e-05
5.81047e-05
6.00227e-05
6.23347e-05
6.49878e-05
6.79355e-05
7.11318e-05
7.45413e-05
7.812e-05
8.18522e-05
8.57183e-05
8.96477e-05
9.3608e-05
9.75781e-05
0.000101522
0.000105411
0.000109214
0.000112891
0.000116495
0.000120037
0.000123354
0.000126382
0.000129117
0.000131556
0.000133699
0.000135548
0.000137119
0.00013841
0.000139455
0.000140248
0.000140775
0.000141015
0.000140977
0.00014065
0.000139989
0.000138958
0.000137794
0.00013561
0.000135925
4.5075e-05
4.57466e-05
4.66963e-05
4.79488e-05
4.95228e-05
5.14106e-05
5.35767e-05
5.59738e-05
5.85685e-05
6.13268e-05
6.42096e-05
6.72128e-05
7.03184e-05
7.34633e-05
7.66166e-05
7.97549e-05
8.28517e-05
8.58751e-05
8.87986e-05
9.15779e-05
9.42551e-05
9.68449e-05
9.92269e-05
0.00010135
0.000103215
0.000104828
0.000106183
0.000107272
0.00010809
0.000108639
0.000108922
0.000108949
0.000108713
0.00010823
0.000107527
0.000106628
0.000105513
0.000104158
0.000102816
0.000100664
0.000101103
3.73243e-05
3.78878e-05
3.87e-05
3.97443e-05
4.10436e-05
4.25957e-05
4.43719e-05
4.63302e-05
4.84427e-05
5.06791e-05
5.30094e-05
5.54258e-05
5.79109e-05
6.04259e-05
6.29333e-05
6.54088e-05
6.78328e-05
7.01745e-05
7.24129e-05
7.45033e-05
7.64844e-05
7.83745e-05
8.00835e-05
8.15687e-05
8.28346e-05
8.38913e-05
8.47394e-05
8.53792e-05
8.58102e-05
8.60409e-05
8.60753e-05
8.59265e-05
8.55871e-05
8.50729e-05
8.4407e-05
8.36139e-05
8.26751e-05
8.15664e-05
8.05386e-05
7.87643e-05
7.96591e-05
3.10258e-05
3.14962e-05
3.2193e-05
3.30739e-05
3.41542e-05
3.54388e-05
3.69024e-05
3.851e-05
4.02365e-05
4.20569e-05
4.39476e-05
4.58922e-05
4.78821e-05
4.98969e-05
5.18928e-05
5.3847e-05
5.57435e-05
5.75575e-05
5.92702e-05
6.08429e-05
6.23093e-05
6.36945e-05
6.49275e-05
6.59771e-05
6.68462e-05
6.75484e-05
6.80859e-05
6.84639e-05
6.86855e-05
6.8762e-05
6.86989e-05
6.85095e-05
6.81925e-05
6.77616e-05
6.72373e-05
6.664e-05
6.59525e-05
6.51474e-05
6.4471e-05
6.30822e-05
6.44198e-05
2.58717e-05
2.62728e-05
2.6872e-05
2.76195e-05
2.85244e-05
2.95942e-05
3.08058e-05
3.21324e-05
3.35489e-05
3.50371e-05
3.65751e-05
3.81446e-05
3.97436e-05
4.1361e-05
4.29526e-05
4.44998e-05
4.59863e-05
4.7395e-05
4.87089e-05
4.98972e-05
5.09882e-05
5.20124e-05
5.29131e-05
5.3667e-05
5.42782e-05
5.47593e-05
5.5116e-05
5.53536e-05
5.54788e-05
5.54992e-05
5.54242e-05
5.52648e-05
5.50219e-05
5.47056e-05
5.43353e-05
5.39264e-05
5.34637e-05
5.2916e-05
5.25261e-05
5.1444e-05
5.31207e-05
2.16362e-05
2.19756e-05
2.24976e-05
2.31368e-05
2.3899e-05
2.4796e-05
2.58062e-05
2.69064e-05
2.8075e-05
2.92969e-05
3.05532e-05
3.18274e-05
3.31192e-05
3.44178e-05
3.56917e-05
3.69217e-05
3.80927e-05
3.91924e-05
4.02068e-05
4.11113e-05
4.19318e-05
4.26992e-05
4.33696e-05
4.39247e-05
4.43708e-05
4.47189e-05
4.49753e-05
4.5145e-05
4.52361e-05
4.52552e-05
4.52104e-05
4.51115e-05
4.49592e-05
4.47608e-05
4.45324e-05
4.42865e-05
4.40091e-05
4.36666e-05
4.34954e-05
4.26454e-05
4.45592e-05
1.81342e-05
1.84288e-05
1.88842e-05
1.94336e-05
2.00837e-05
2.08415e-05
2.16898e-05
2.26076e-05
2.35776e-05
2.45862e-05
2.56185e-05
2.666e-05
2.77081e-05
2.87543e-05
2.97808e-05
3.0765e-05
3.16954e-05
3.25605e-05
3.33514e-05
3.40468e-05
3.46735e-05
3.52591e-05
3.5771e-05
3.61934e-05
3.65332e-05
3.68014e-05
3.70051e-05
3.71477e-05
3.7236e-05
3.72768e-05
3.72765e-05
3.72423e-05
3.7174e-05
3.70779e-05
3.6967e-05
3.68511e-05
3.67167e-05
3.65304e-05
3.65187e-05
3.58427e-05
3.79048e-05
1.52274e-05
1.5486e-05
1.58893e-05
1.63655e-05
1.69238e-05
1.75689e-05
1.82857e-05
1.90557e-05
1.9866e-05
2.07033e-05
2.15567e-05
2.24134e-05
2.32682e-05
2.41159e-05
2.49492e-05
2.57429e-05
2.64884e-05
2.71765e-05
2.78021e-05
2.83463e-05
2.88352e-05
2.92945e-05
2.96978e-05
3.00338e-05
3.03084e-05
3.05303e-05
3.07068e-05
3.08421e-05
3.09407e-05
3.1008e-05
3.10496e-05
3.10719e-05
3.10732e-05
3.10588e-05
3.1039e-05
3.10224e-05
3.09952e-05
3.09256e-05
3.10272e-05
3.04857e-05
3.26241e-05
1.28075e-05
1.30397e-05
1.33957e-05
1.38133e-05
1.42965e-05
1.4848e-05
1.54578e-05
1.61089e-05
1.67904e-05
1.74908e-05
1.82008e-05
1.89102e-05
1.96115e-05
2.03046e-05
2.09859e-05
2.16323e-05
2.22356e-05
2.27889e-05
2.32899e-05
2.3724e-05
2.41138e-05
2.44841e-05
2.48126e-05
2.50903e-05
2.5323e-05
2.55196e-05
2.56842e-05
2.58213e-05
2.59347e-05
2.60289e-05
2.61075e-05
2.61761e-05
2.62325e-05
2.6281e-05
2.63287e-05
2.63832e-05
2.64316e-05
2.64441e-05
2.66193e-05
2.61781e-05
2.83279e-05
1.07849e-05
1.09954e-05
1.13144e-05
1.16819e-05
1.21013e-05
1.25786e-05
1.31017e-05
1.36572e-05
1.42345e-05
1.48251e-05
1.54202e-05
1.60126e-05
1.65935e-05
1.71664e-05
1.77267e-05
1.82587e-05
1.87531e-05
1.92053e-05
1.9613e-05
1.99671e-05
2.02859e-05
2.05926e-05
2.08683e-05
2.11064e-05
2.13112e-05
2.14913e-05
2.16502e-05
2.17906e-05
2.19162e-05
2.20311e-05
2.21376e-05
2.22397e-05
2.23351e-05
2.24273e-05
2.25215e-05
2.26233e-05
2.27215e-05
2.27877e-05
2.30048e-05
2.26394e-05
2.47457e-05
9.0908e-06
9.28435e-06
9.56985e-06
9.89592e-06
1.02648e-05
1.06809e-05
1.11335e-05
1.16112e-05
1.21042e-05
1.26062e-05
1.31092e-05
1.36076e-05
1.40939e-05
1.45707e-05
1.50351e-05
1.54777e-05
1.58886e-05
1.62642e-05
1.6602e-05
1.68962e-05
1.71641e-05
1.74249e-05
1.76636e-05
1.78745e-05
1.8061e-05
1.82302e-05
1.83863e-05
1.85312e-05
1.86668e-05
1.87963e-05
1.8922e-05
1.90469e-05
1.91686e-05
1.9289e-05
1.9413e-05
1.95442e-05
1.96734e-05
1.97737e-05
2.0011e-05
1.97064e-05
2.17265e-05
7.66774e-06
7.84732e-06
8.10555e-06
8.39674e-06
8.72383e-06
9.08924e-06
9.4841e-06
9.8975e-06
1.03223e-05
1.07522e-05
1.11813e-05
1.16043e-05
1.2016e-05
1.24163e-05
1.28049e-05
1.31769e-05
1.35223e-05
1.38378e-05
1.41229e-05
1.43718e-05
1.45998e-05
1.48243e-05
1.50332e-05
1.52213e-05
1.53927e-05
1.55531e-05
1.5705e-05
1.58505e-05
1.59914e-05
1.613e-05
1.62672e-05
1.64052e-05
1.65419e-05
1.66786e-05
1.68185e-05
1.69647e-05
1.71091e-05
1.7228e-05
1.7468e-05
1.72138e-05
1.91091e-05
6.47155e-06
6.63885e-06
6.87256e-06
7.13509e-06
7.42657e-06
7.74978e-06
8.0961e-06
8.45709e-06
8.82587e-06
9.19737e-06
9.56653e-06
9.92903e-06
1.02808e-05
1.06207e-05
1.09497e-05
1.12659e-05
1.15602e-05
1.18294e-05
1.20734e-05
1.22882e-05
1.24874e-05
1.26849e-05
1.28723e-05
1.30442e-05
1.32037e-05
1.33564e-05
1.35049e-05
1.36498e-05
1.37924e-05
1.39339e-05
1.40759e-05
1.42188e-05
1.43614e-05
1.45038e-05
1.46493e-05
1.47993e-05
1.49472e-05
1.50722e-05
1.53011e-05
1.50889e-05
1.68271e-05
5.46331e-06
5.62014e-06
5.83302e-06
6.06945e-06
6.33112e-06
6.61816e-06
6.92432e-06
7.2419e-06
7.56486e-06
7.88837e-06
8.20848e-06
8.52162e-06
8.82513e-06
9.11639e-06
9.39817e-06
9.66977e-06
9.92338e-06
1.01561e-05
1.03686e-05
1.05578e-05
1.07354e-05
1.09123e-05
1.10819e-05
1.12397e-05
1.13889e-05
1.15332e-05
1.16751e-05
1.18147e-05
1.19534e-05
1.20918e-05
1.2231e-05
1.23713e-05
1.25117e-05
1.26517e-05
1.27936e-05
1.29385e-05
1.30806e-05
1.32029e-05
1.3411e-05
1.32342e-05
1.4788e-05
4.61364e-06
4.76024e-06
4.95348e-06
5.16861e-06
5.40356e-06
5.65945e-06
5.9314e-06
6.21221e-06
6.49678e-06
6.78076e-06
7.0607e-06
7.33355e-06
7.59731e-06
7.84946e-06
8.09359e-06
8.32964e-06
8.55072e-06
8.75411e-06
8.94049e-06
9.10796e-06
9.26608e-06
9.42427e-06
9.57757e-06
9.72164e-06
9.85882e-06
9.99286e-06
1.01256e-05
1.02573e-05
1.03886e-05
1.05203e-05
1.06531e-05
1.07871e-05
1.09206e-05
1.10538e-05
1.11878e-05
1.13236e-05
1.14555e-05
1.15713e-05
1.17553e-05
1.16135e-05
1.29717e-05
3.89577e-06
4.0327e-06
4.20904e-06
4.40395e-06
4.61649e-06
4.84588e-06
5.08715e-06
5.33547e-06
5.58622e-06
5.83638e-06
6.08296e-06
6.32312e-06
6.55453e-06
6.77499e-06
6.98744e-06
7.1932e-06
7.38819e-06
7.56967e-06
7.73737e-06
7.89033e-06
8.03551e-06
8.17974e-06
8.32015e-06
8.45279e-06
8.57959e-06
8.70348e-06
8.82605e-06
8.94759e-06
9.06851e-06
9.18911e-06
9.30991e-06
9.43115e-06
9.55128e-06
9.66997e-06
9.78783e-06
9.9058e-06
1.00186e-05
1.01178e-05
1.02668e-05
1.01533e-05
1.12769e-05
3.29025e-06
3.41745e-06
3.5773e-06
3.75459e-06
3.94571e-06
4.15076e-06
4.36593e-06
4.58623e-06
4.80768e-06
5.02758e-06
5.24405e-06
5.4558e-06
5.66103e-06
5.85727e-06
6.04479e-06
6.22366e-06
6.39131e-06
6.54671e-06
6.69075e-06
6.82354e-06
6.95084e-06
7.07835e-06
7.2037e-06
7.32346e-06
7.43869e-06
7.552e-06
7.66412e-06
7.77545e-06
7.88601e-06
7.99637e-06
8.1062e-06
8.2159e-06
8.32389e-06
8.43021e-06
8.53428e-06
8.63719e-06
8.73365e-06
8.81961e-06
8.93873e-06
8.85355e-06
9.76987e-06
2.77999e-06
2.8985e-06
3.04365e-06
3.20222e-06
3.37179e-06
3.55232e-06
3.74206e-06
3.93794e-06
4.13645e-06
4.33341e-06
4.52546e-06
4.7108e-06
4.8899e-06
5.06409e-06
5.23658e-06
5.40766e-06
5.57245e-06
5.72602e-06
5.86703e-06
5.99571e-06
6.11638e-06
6.23335e-06
6.3463e-06
6.45249e-06
6.55297e-06
6.65045e-06
6.74558e-06
6.8389e-06
6.93015e-06
7.02012e-06
7.1084e-06
7.1953e-06
7.27936e-06
7.36066e-06
7.43842e-06
7.51341e-06
7.58062e-06
7.6394e-06
7.71385e-06
7.65144e-06
8.28251e-06
2.35154e-06
2.45966e-06
2.5904e-06
2.7323e-06
2.88067e-06
3.036e-06
3.19808e-06
3.36631e-06
3.53989e-06
3.71715e-06
3.89488e-06
4.06767e-06
4.22955e-06
4.37526e-06
4.5051e-06
4.62565e-06
4.74344e-06
4.85909e-06
4.97207e-06
5.08061e-06
5.18612e-06
5.29175e-06
5.39613e-06
5.4962e-06
5.59196e-06
5.68469e-06
5.77489e-06
5.86257e-06
5.9475e-06
6.02961e-06
6.10885e-06
6.18508e-06
6.25741e-06
6.32534e-06
6.38834e-06
6.44676e-06
6.49638e-06
6.53896e-06
6.5839e-06
6.5375e-06
7.00379e-06
1.98972e-06
2.08451e-06
2.19814e-06
2.32194e-06
2.45256e-06
2.58971e-06
2.73147e-06
2.87469e-06
3.01784e-06
3.16127e-06
3.30801e-06
3.46232e-06
3.62794e-06
3.80508e-06
3.98937e-06
4.16724e-06
4.32487e-06
4.46054e-06
4.578e-06
4.68192e-06
4.77578e-06
4.86141e-06
4.94199e-06
5.01603e-06
5.08469e-06
5.14951e-06
5.21102e-06
5.26924e-06
5.32412e-06
5.37552e-06
5.42317e-06
5.46673e-06
5.50549e-06
5.53882e-06
5.56602e-06
5.58714e-06
5.59826e-06
5.60383e-06
5.59437e-06
5.56751e-06
5.66598e-06
1.6857e-06
1.76715e-06
1.8594e-06
1.95753e-06
2.06236e-06
2.17885e-06
2.30816e-06
2.44755e-06
2.59022e-06
2.72685e-06
2.84751e-06
2.94477e-06
3.01688e-06
3.0685e-06
3.11201e-06
3.17319e-06
3.2654e-06
3.37418e-06
3.48792e-06
3.59953e-06
3.70773e-06
3.81381e-06
3.91558e-06
4.01068e-06
4.09865e-06
4.18001e-06
4.25511e-06
4.32366e-06
4.38545e-06
4.44025e-06
4.48793e-06
4.528e-06
4.55993e-06
4.58319e-06
4.59702e-06
4.60159e-06
4.59325e-06
4.57909e-06
4.54154e-06
4.50241e-06
4.58165e-06
1.43545e-06
1.51539e-06
1.59607e-06
1.67064e-06
1.74011e-06
1.81123e-06
1.89082e-06
1.98554e-06
2.10276e-06
2.24888e-06
2.4279e-06
2.63845e-06
2.87329e-06
3.11939e-06
3.36076e-06
3.55717e-06
3.68902e-06
3.78756e-06
3.86671e-06
3.93302e-06
3.98692e-06
4.03064e-06
4.06804e-06
4.09906e-06
4.12443e-06
4.14509e-06
4.16129e-06
4.17325e-06
4.18063e-06
4.18318e-06
4.18027e-06
4.17149e-06
4.15588e-06
4.13272e-06
4.101e-06
4.06054e-06
4.00768e-06
3.95038e-06
3.85503e-06
3.84095e-06
3.42545e-06
1.24054e-06
1.32245e-06
1.40655e-06
1.48459e-06
1.55034e-06
1.60236e-06
1.64113e-06
1.66874e-06
1.69002e-06
1.71084e-06
1.73705e-06
1.77248e-06
1.81772e-06
1.86887e-06
1.91883e-06
1.99581e-06
2.10891e-06
2.23424e-06
2.36358e-06
2.49078e-06
2.61445e-06
2.73387e-06
2.84766e-06
2.95484e-06
3.05391e-06
3.1444e-06
3.22552e-06
3.29672e-06
3.35702e-06
3.40578e-06
3.44183e-06
3.46435e-06
3.4723e-06
3.46475e-06
3.44018e-06
3.39832e-06
3.3354e-06
3.25974e-06
3.14243e-06
3.05696e-06
2.91126e-06
1.16206e-06
1.19637e-06
1.20757e-06
1.24026e-06
1.34574e-06
1.54602e-06
1.82123e-06
2.13385e-06
2.44926e-06
2.7426e-06
2.99779e-06
3.20651e-06
3.3669e-06
3.48189e-06
3.56001e-06
3.56984e-06
3.53054e-06
3.48162e-06
3.43573e-06
3.3958e-06
3.35797e-06
3.33888e-06
3.32507e-06
3.31694e-06
3.3129e-06
3.3109e-06
3.30936e-06
3.30612e-06
3.29939e-06
3.28684e-06
3.26664e-06
3.23664e-06
3.19516e-06
3.13998e-06
3.07079e-06
2.98675e-06
2.88883e-06
2.77537e-06
2.65866e-06
2.51861e-06
2.46634e-06
7.34192
7.87162
5.4557
1.71784
0.0880538
0.0119695
0.000149771
0.00190542
4.09822e-05
0.00215715
1.04545
1.61233
1.02035
0.544092
0.902362
1.35619
1.71069
1.94099
2.04431
2.00436
1.81387
1.4802
1.03878
0.568922
0.194377
0.0241547
5.39827e-06
3.35959e-06
9.41388e-06
8.0571e-05
8.67617e-05
8.07084e-05
8.63665e-05
9.21455e-05
9.67997e-05
0.000101182
0.000105373
0.000108772
0.000111523
0.00011331
0.000114364
0.000114699
0.000114118
0.000112668
0.00011032
0.000106961
0.000102498
9.70134e-05
9.04736e-05
8.29985e-05
7.49207e-05
6.63413e-05
5.76735e-05
4.91474e-05
4.08614e-05
3.31662e-05
2.6376e-05
2.02265e-05
1.52246e-05
1.10856e-05
8.42688e-06
6.71662e-06
6.58048e-06
7.0453e-06
7.71253e-06
8.28425e-06
8.81296e-06
9.03719e-06
9.19792e-06
9.11497e-06
9.07116e-06
8.74078e-06
8.35681e-06
8.11404e-06
6.7835
10.9513
9.50307
4.98364
0.557311
0.106009
0.00760189
0.000118593
0.000805948
0.0940077
1.2664
1.56833
1.19731
0.954003
0.880102
0.956143
1.17426
1.42892
1.65506
1.79323
1.80567
1.66991
1.38386
0.981753
0.542393
0.187306
0.0241504
7.59987e-05
7.08686e-07
1.01777e-06
7.13141e-05
9.16183e-05
8.22027e-05
8.45937e-05
9.15117e-05
9.61963e-05
9.99301e-05
0.000103161
0.000105886
0.000107599
0.000108563
0.000108903
0.000108333
0.000106815
0.000104457
0.000101094
9.65601e-05
9.1083e-05
8.46717e-05
7.73293e-05
6.95151e-05
6.13477e-05
5.31472e-05
4.51967e-05
3.74217e-05
3.03276e-05
2.41865e-05
1.85624e-05
1.4126e-05
1.04415e-05
8.18622e-06
6.77371e-06
6.68037e-06
7.05871e-06
7.60511e-06
8.05227e-06
8.50428e-06
8.66623e-06
8.77894e-06
8.65535e-06
8.61412e-06
8.25939e-06
7.89475e-06
7.6025e-06
4.75166
10.7235
12.0243
8.71395
2.78435
0.147302
0.028567
9.85268e-05
0.00516662
0.21557
1.29025
1.50503
1.50813
1.5103
1.32722
1.02331
0.774384
0.758156
0.979929
1.25381
1.46553
1.55676
1.49294
1.26951
0.919022
0.519987
0.188172
0.0283152
0.00247629
2.48034e-05
4.40189e-06
4.92955e-05
0.000102398
9.00031e-05
8.37404e-05
8.83874e-05
9.32083e-05
9.61597e-05
9.85415e-05
0.000100212
0.000101106
0.000101456
0.000100925
9.94557e-05
9.70993e-05
9.38214e-05
8.94139e-05
8.40446e-05
7.78956e-05
7.09161e-05
6.35236e-05
5.59399e-05
4.83769e-05
4.11386e-05
3.40375e-05
2.77042e-05
2.2262e-05
1.7301e-05
1.34609e-05
1.033e-05
8.42422e-06
7.26049e-06
7.07488e-06
7.28149e-06
7.6108e-06
7.9353e-06
8.18505e-06
8.29545e-06
8.34132e-06
8.19305e-06
8.10226e-06
7.74833e-06
7.39692e-06
7.06546e-06
3.7951
9.45022
12.6794
11.5974
6.23515
0.721502
0.174481
0.0176623
0.0113989
0.304253
1.2951
1.56646
1.88464
2.10364
2.0132
1.69369
1.26557
0.820431
0.525188
0.628668
0.936906
1.21021
1.3616
1.35382
1.18004
0.87473
0.511896
0.200123
0.035154
0.000456342
0.000275083
2.65206e-06
7.40629e-06
7.64963e-05
9.26019e-05
8.26891e-05
8.35147e-05
8.82135e-05
9.11211e-05
9.25152e-05
9.32466e-05
9.36238e-05
9.31859e-05
9.18132e-05
8.95527e-05
8.63944e-05
8.22026e-05
7.70749e-05
7.12528e-05
6.47213e-05
5.78444e-05
5.08688e-05
4.39766e-05
3.74423e-05
3.10477e-05
2.5483e-05
2.06575e-05
1.63435e-05
1.3011e-05
1.0367e-05
8.69733e-06
7.69172e-06
7.39035e-06
7.42437e-06
7.57298e-06
7.76587e-06
7.86271e-06
7.91117e-06
7.90219e-06
7.73168e-06
7.60537e-06
7.24564e-06
6.91591e-06
6.55563e-06
3.63041
8.39403
12.1549
13.0229
9.67786
3.07404
0.275729
0.05107
0.0200243
0.353933
1.30898
1.69798
2.21497
2.59949
2.64072
2.41102
2.01831
1.5353
1.01704
0.523673
0.321515
0.635208
0.963414
1.17001
1.214
1.09135
0.834683
0.513495
0.22142
0.0486923
0.00257366
0.000752995
1.1402e-05
4.81503e-06
5.34393e-05
9.2367e-05
8.3911e-05
7.85852e-05
8.16344e-05
8.47057e-05
8.56048e-05
8.57346e-05
8.5326e-05
8.40767e-05
8.20158e-05
7.90404e-05
7.51045e-05
7.03272e-05
6.49194e-05
5.88893e-05
5.25978e-05
4.62485e-05
4.0028e-05
3.41769e-05
2.84828e-05
2.36123e-05
1.93435e-05
1.56e-05
1.26866e-05
1.04243e-05
8.90435e-06
7.99505e-06
7.57675e-06
7.44863e-06
7.46763e-06
7.5188e-06
7.53296e-06
7.51188e-06
7.46172e-06
7.2668e-06
7.13152e-06
6.75697e-06
6.4564e-06
6.077e-06
4.02207
7.85817
11.2678
13.1348
12.064
6.48926
0.8397
0.244253
0.0483399
0.364919
1.32528
1.85351
2.47443
2.97611
3.15497
3.05164
2.75628
2.33882
1.84597
1.3081
0.757224
0.248876
0.328721
0.704864
0.961087
1.05759
0.990857
0.791962
0.519377
0.250726
0.0703475
0.00762749
0.000153712
1.29269e-07
3.00599e-06
2.05644e-05
7.90274e-05
8.64886e-05
7.56831e-05
7.42907e-05
7.69328e-05
7.82469e-05
7.78447e-05
7.6511e-05
7.45993e-05
7.18742e-05
6.82413e-05
6.38496e-05
5.89161e-05
5.34359e-05
4.77753e-05
4.2085e-05
3.65401e-05
3.13641e-05
2.63507e-05
2.21145e-05
1.8371e-05
1.51226e-05
1.25672e-05
1.0587e-05
9.17498e-06
8.28288e-06
7.75175e-06
7.47129e-06
7.3629e-06
7.28687e-06
7.22363e-06
7.13495e-06
7.04422e-06
6.82468e-06
6.68688e-06
6.29816e-06
6.02648e-06
5.63396e-06
4.8028
7.7769
10.5347
12.5163
13.03
9.73033
3.14181
0.444612
0.0503294
0.334861
1.33647
2.00153
2.65109
3.20898
3.50696
3.54202
3.37385
3.06439
2.65592
2.17438
1.642
1.08148
0.526055
0.0416457
0.420119
0.722335
0.872942
0.869723
0.737638
0.52219
0.284742
0.100846
0.0182534
0.003152
0.000290476
9.42787e-07
4.87932e-06
4.37885e-05
8.48611e-05
7.7884e-05
6.91636e-05
6.88955e-05
7.01814e-05
6.95938e-05
6.77008e-05
6.50872e-05
6.17613e-05
5.777e-05
5.33286e-05
4.84208e-05
4.3402e-05
3.83873e-05
3.35161e-05
2.90019e-05
2.46403e-05
2.09945e-05
1.77424e-05
1.49225e-05
1.26686e-05
1.08922e-05
9.55287e-06
8.62407e-06
7.98293e-06
7.5597e-06
7.31177e-06
7.12239e-06
6.96404e-06
6.8086e-06
6.67259e-06
6.42785e-06
6.2816e-06
5.88094e-06
5.63487e-06
5.23163e-06
5.84948
8.00778
10.1137
11.7396
12.866
11.8136
6.41466
1.13051
0.27781
0.282633
1.32242
2.12067
2.74701
3.29245
3.66749
3.83241
3.80453
3.62821
3.33889
2.95927
2.50499
1.99088
1.43995
0.88139
0.354457
0.104609
0.444565
0.650943
0.717493
0.660594
0.51138
0.316489
0.139834
0.0347345
0.00247323
0.00118347
2.34941e-06
2.24994e-06
4.58758e-06
5.61719e-05
7.60124e-05
6.72396e-05
6.15632e-05
6.12579e-05
6.09538e-05
5.89496e-05
5.58564e-05
5.22038e-05
4.82411e-05
4.39078e-05
3.95209e-05
3.51714e-05
3.09549e-05
2.70714e-05
2.33205e-05
2.02145e-05
1.74042e-05
1.49504e-05
1.29353e-05
1.13091e-05
1.00047e-05
9.02196e-06
8.27372e-06
7.71702e-06
7.33044e-06
7.02718e-06
6.7668e-06
6.54081e-06
6.35665e-06
6.08383e-06
5.92323e-06
5.50807e-06
5.28386e-06
4.87058e-06
6.87977
8.33859
9.90857
11.0919
12.1364
12.4902
9.41669
3.34866
0.612782
0.293602
1.24941
2.19293
2.78129
3.2468
3.63609
3.89873
4.006
3.97293
3.823
3.57469
3.23871
2.82324
2.34154
1.81259
1.26541
0.736259
0.267868
0.128641
0.383662
0.522781
0.546254
0.472972
0.335067
0.180272
0.062089
0.0109164
6.53227e-05
0.00037998
2.0271e-07
3.23088e-06
2.38558e-05
6.40968e-05
6.7981e-05
5.80013e-05
5.31907e-05
5.20325e-05
5.02934e-05
4.72815e-05
4.37432e-05
3.99246e-05
3.61421e-05
3.24346e-05
2.88424e-05
2.55463e-05
2.23557e-05
1.97282e-05
1.73023e-05
1.51553e-05
1.33219e-05
1.18043e-05
1.05068e-05
9.4697e-06
8.61997e-06
7.93693e-06
7.42009e-06
7.00001e-06
6.63856e-06
6.33666e-06
6.10015e-06
5.79446e-06
5.61469e-06
5.18112e-06
4.97411e-06
4.54946e-06
7.50852
8.47679
9.64654
10.507
11.2655
12.1016
11.2192
6.38919
1.56553
0.480246
1.11817
2.19142
2.76837
3.10968
3.44009
3.74478
3.95996
4.0629
4.05746
3.95452
3.76054
3.47889
3.11492
2.67805
2.18601
1.66443
1.14682
0.668417
0.262635
0.075689
0.273932
0.37955
0.390078
0.323268
0.210203
0.0971744
0.0276356
0.00288742
0.0015069
1.70459e-06
1.06508e-06
1.95802e-08
3.28929e-05
6.30793e-05
5.94883e-05
4.90661e-05
4.43014e-05
4.21417e-05
3.96763e-05
3.65131e-05
3.32859e-05
3.01682e-05
2.716e-05
2.44034e-05
2.17215e-05
1.95001e-05
1.74115e-05
1.55069e-05
1.38204e-05
1.23643e-05
1.10607e-05
9.96615e-06
9.02449e-06
8.22117e-06
7.57981e-06
7.04622e-06
6.58494e-06