/*--------------------------------*- C++ -*----------------------------------*\
| =========                 |                                                 |
| \\      /  F ield         | OpenFOAM: The Open Source CFD Toolbox           |
|  \\    /   O peration     | Version:  2312                                  |
|   \\  /    A nd           | Website:  www.openfoam.com                      |
|    \\/     M anipulation  |                                                 |
\*---------------------------------------------------------------------------*/
FoamFile
{
    version     2.0;
    format      ascii;
    arch        "LSB;label=32;scalar=64";
    class       volScalarField;
    location    "350";
    object      turbulenceProperties:L;
}
// * * * * * * * * * * * * * * * * * * * * * * * * * * * * * * * * * * * * * //

dimensions      [0 1 0 0 0 0 0];

internalField   nonuniform List<scalar> 
11040
(
0.00043368
0.000513954
0.00114211
0.00141981
0.00128486
0.00126081
0.00124977
0.00123172
0.00122896
0.00122855
0.00122651
0.00122511
0.00122642
0.00123075
0.00123587
0.00124059
0.0012445
0.00124879
0.00125296
0.00125521
0.00125421
0.00125078
0.00124713
0.00124519
0.00124463
0.00124272
0.00123943
0.00123868
0.00124931
0.00127268
0.00130088
0.001336
0.0013802
0.00144071
0.00154475
0.00177088
0.00189365
0.00235506
0.0042109
0.00227834
0.00204607
0.00105788
0.000918123
0.000634292
0.00163036
0.00333896
0.0070382
0.0129955
0.0152005
0.0100649
0.00818349
0.00715211
0.0064482
0.00596932
0.00565924
0.00542944
0.00523646
0.00507327
0.00495137
0.0048456
0.00474365
0.00462447
0.00450149
0.00442531
0.00444425
0.00456269
0.00473726
0.00498073
0.00535195
0.00607857
0.00736335
0.00899035
0.0106548
0.011694
0.0122208
0.0121032
0.0117454
0.01133
0.0110722
0.010517
0.0106436
0.00884441
0.00146907
0.00187614
0.000982004
0.00112422
0.0023383
0.00441973
0.00818495
0.0113819
0.0157857
0.0244815
0.0665617
0.0248755
0.0179949
0.0149518
0.013115
0.0118884
0.0109887
0.0103679
0.00994898
0.00964561
0.0094321
0.009345
0.00947953
0.0100357
0.0112867
0.0132105
0.0160317
0.0200477
0.0259804
0.0354315
0.0368165
0.0285983
0.0234734
0.0202766
0.0183299
0.017097
0.0163151
0.0160314
0.0156175
0.0157326
0.0176312
0.00178033
0.00169009
0.00408343
0.00111238
0.00164107
0.00302268
0.00524958
0.00897739
0.0125552
0.016379
0.0191428
0.0222244
0.0266454
0.0308855
0.0337652
0.0322665
0.02866
0.0257199
0.0235088
0.022068
0.0212664
0.0210501
0.0211679
0.0215285
0.0221215
0.0231147
0.0249028
0.0280847
0.0340329
0.0476556
0.0944698
0.0472514
0.0342467
0.0284649
0.0251907
0.023168
0.0218976
0.0213562
0.0209921
0.0209282
0.0260663
0.00201723
0.00199352
0.00208375
0.00681116
0.0013496
0.00213428
0.00360625
0.00597168
0.00958623
0.0142923
0.0178678
0.0202429
0.0224898
0.0240101
0.0256061
0.0267759
0.027565
0.0280011
0.0278127
0.0271586
0.0262089
0.0254104
0.0249104
0.0248714
0.0254512
0.026804
0.0291332
0.0328441
0.0390412
0.0509877
0.0815945
0.0655967
0.0456199
0.0371055
0.032414
0.0295838
0.0278235
0.0269969
0.0267354
0.0265279
0.0327412
0.00234692
0.00244207
0.00224458
0.00281851
0.0151515
0.00161713
0.00257306
0.00410409
0.00656065
0.00994072
0.0154675
0.0199174
0.0231283
0.024756
0.026148
0.0271447
0.0277527
0.0281734
0.0282138
0.02805
0.0277038
0.0275046
0.0276065
0.0281458
0.0292633
0.0311212
0.033934
0.0381188
0.04473
0.0567033
0.0870574
0.0955669
0.0601734
0.0472278
0.0405174
0.0365864
0.0341901
0.0329928
0.0327813
0.0325766
0.0387236
0.00272588
0.00280381
0.002793
0.00255411
0.00397183
0.20492
0.00188484
0.00292284
0.00452155
0.00696001
0.0103201
0.0153454
0.0214741
0.025981
0.0285299
0.030069
0.0308674
0.0315339
0.0318373
0.0320098
0.0319679
0.0319948
0.0322561
0.0329089
0.0341294
0.0361351
0.0391766
0.043663
0.0505378
0.0623926
0.0900908
0.166207
0.0810451
0.0598511
0.0500258
0.0444745
0.0411776
0.0394676
0.0391515
0.0390776
0.0447737
0.00317862
0.00320247
0.00323982
0.00316917
0.00286118
0.00770464
0.00876878
0.00282717
0.00315693
0.00485516
0.00717918
0.0105598
0.0149438
0.0216636
0.0278029
0.0322064
0.0344631
0.0359847
0.0366905
0.0371356
0.0373191
0.0375736
0.0379987
0.0387605
0.0399546
0.0418585
0.0448676
0.0493946
0.0562101
0.067367
0.0901557
0.197159
0.117725
0.077104
0.0618841
0.0537834
0.0490887
0.0465927
0.045918
0.046079
0.0511769
0.00367995
0.0036989
0.00367515
0.00372066
0.00353591
0.00344419
0.00645608
0.0121409
0.00533039
0.00336341
0.00505991
0.0073151
0.0105267
0.0147992
0.0204847
0.0283545
0.0346438
0.0388403
0.0409718
0.0422377
0.0428105
0.0433177
0.043934
0.0449013
0.046306
0.0483478
0.0513065
0.0556089
0.0620195
0.0720026
0.0897284
0.13498
0.204185
0.104038
0.078091
0.0656108
0.0585752
0.0547322
0.0533165
0.0535873
0.0580143
0.00425169
0.00425984
0.00422917
0.00419759
0.00422028
0.00404586
0.00398388
0.00673432
0.0221039
1.26022
0.00335804
0.00514565
0.00740481
0.0103562
0.0144809
0.0196372
0.026639
0.0353713
0.0419951
0.0458555
0.0476261
0.048644
0.0495019
0.0507129
0.0523993
0.054752
0.0579958
0.0624443
0.0685843
0.0773062
0.0908294
0.115811
0.172168
0.148071
0.102794
0.0822594
0.0711581
0.0648578
0.0619635
0.0617578
0.0652409
0.00490326
0.00490414
0.0048658
0.00480778
0.00477589
0.00477361
0.00466644
0.00449809
0.00683146
0.0446767
0.0111793
0.022497
0.00485101
0.00731589
0.0101595
0.0138939
0.0188854
0.0249433
0.0331012
0.0426325
0.0495036
0.0527012
0.0541522
0.0555931
0.0574747
0.0600698
0.063526
0.0680537
0.0739713
0.0817941
0.0926294
0.108755
0.13431
0.159821
0.136391
0.106902
0.0894505
0.0789825
0.0732505
0.071282
0.0726118
0.00564956
0.00564505
0.00559815
0.00552966
0.00545917
0.00541207
0.00541187
0.00531282
0.00514621
0.00611397
0.0557988
0.113699
0.00566821
0.00441866
0.00696624
0.00987125
0.0133057
0.017794
0.0235919
0.0305215
0.0395213
0.0491436
0.0557423
0.0592474
0.0614013
0.0639297
0.0673078
0.071701
0.0772118
0.0840123
0.0924779
0.103292
0.117242
0.13345
0.142285
0.131929
0.114182
0.0995986
0.0899365
0.084753
0.0824681
0.00650887
0.0064972
0.00644579
0.00636273
0.00627325
0.00618761
0.00612549
0.00610766
0.00603059
0.00586388
0.00620244
0.0169647
0.092364
0.0164433
0.0311461
0.00647994
0.00931084
0.0126914
0.016693
0.0218614
0.0284721
0.0359358
0.0441615
0.0528425
0.0603751
0.0660391
0.0701714
0.0741133
0.0787708
0.0843197
0.090765
0.098155
0.106454
0.11531
0.123123
0.126897
0.124536
0.118219
0.111686
0.106223
0.101016
0.0075023
0.0074818
0.00742541
0.00732987
0.00721857
0.00710712
0.00700202
0.00691987
0.00687349
0.0068273
0.00662356
0.00667172
0.00935787
0.0571825
0.258682
0.00614975
0.00665292
0.00872456
0.0118596
0.0156511
0.0201727
0.0257364
0.032415
0.0396013
0.0468661
0.0546907
0.063008
0.0712169
0.0785798
0.0847279
0.090055
0.0950804
0.0999591
0.104475
0.108225
0.110696
0.111771
0.111809
0.111812
0.113473
0.118609
0.00865673
0.00862498
0.00856185
0.00845366
0.00831998
0.00817955
0.00804185
0.00791273
0.007801
0.00773054
0.00767239
0.00749022
0.00744272
0.00821179
0.033011
0.127229
0.0634527
0.00597168
0.00883534
0.0105741
0.0144031
0.0183987
0.0228221
0.0280734
0.0344149
0.0415243
0.0486865
0.0558881
0.0636229
0.0719238
0.0803442
0.0882149
0.094816
0.0997011
0.102685
0.103776
0.103038
0.100961
0.0983786
0.096171
0.0967515
0.0100044
0.00995904
0.00988721
0.00976446
0.00960776
0.00943639
0.00926245
0.00909301
0.00893371
0.00879053
0.00868709
0.00858981
0.00848058
0.0082388
0.00858354
0.0103074
0.0634459
0.489141
0.156325
0.00622993
0.0396463
0.0121669
0.016017
0.0198891
0.0241383
0.0290127
0.0347629
0.0413802
0.0484628
0.0554893
0.0622913
0.0689931
0.0755886
0.0818462
0.0872902
0.0913268
0.0934185
0.0936067
0.0917882
0.0876048
0.0836362
0.0115698
0.0115089
0.0114252
0.0112851
0.0111035
0.0109
0.0106886
0.0104772
0.0102721
0.0100784
0.00990269
0.0097514
0.00962984
0.00949137
0.00931517
0.00911047
0.00988114
0.0162165
0.0883214
0.616997
0.956376
0.00673434
0.0101631
0.0104205
0.0156353
0.0199134
0.0241699
0.0287803
0.0339227
0.0396135
0.0456971
0.0518832
0.0578586
0.0634145
0.0683621
0.0724944
0.0755096
0.0771876
0.0772894
0.0754235
0.0728802
0.0133148
0.013236
0.0131352
0.0129726
0.0127616
0.0125232
0.012271
0.0120164
0.0117652
0.0115218
0.0112929
0.0110808
0.0108872
0.0107235
0.010566
0.0103737
0.0100829
0.0101121
0.0110374
0.0203624
0.106211
0.618931
0
0.0249874
0.00637243
0.00906469
0.0187105
0.0159664
0.0234979
0.0287435
0.0336953
0.038676
0.0436653
0.0485342
0.0530331
0.0568897
0.0597901
0.0615863
0.0621576
0.0613275
0.0598529
0.0151816
0.0150828
0.0149614
0.0147728
0.0145299
0.0142537
0.0139586
0.0136562
0.0133543
0.0130591
0.0127772
0.0125115
0.0122619
0.0120315
0.0118228
0.0116396
0.0114152
0.0111547
0.0108975
0.0109778
0.0123597
0.0199424
0.110137
0.525516
1.33653
0
0.605236
0.0116523
0.0063076
0.00858277
0.0126591
0.00948525
0.0182433
0.0323548
0.0527195
0.0585652
0.0535867
0.0498584
0.0470847
0.0443757
0.042655
0.0171544
0.0170361
0.0168931
0.0166777
0.0164025
0.0160884
0.0157513
0.0154021
0.0150511
0.0147052
0.0143687
0.0140481
0.0137444
0.0134581
0.0131901
0.012944
0.0127149
0.0124889
0.0122293
0.0119102
0.0116884
0.0116748
0.012698
0.0163025
0.0374387
0.167321
0.594748
0.958745
2.92171
0
0
0.0549023
0.0126721
0.00660668
0.0063792
0.00735716
0.00844968
0.00949244
0.010631
0.00663005
0.0070258
0.0192545
0.019117
0.01895
0.0187071
0.018398
0.0180455
0.0176649
0.0172696
0.0168704
0.0164743
0.0160869
0.0157143
0.0153582
0.0150201
0.0147006
0.0144002
0.0141186
0.0138551
0.0136044
0.0133443
0.0130419
0.0127119
0.0123837
0.0122859
0.0125531
0.0136274
0.0164722
0.0244876
0.0699985
0.245431
0.681608
0.876293
1.19645
1.79228
3.30192
10.0314
0
0
0
0.155936
0.120117
0.0214943
0.0213378
0.0211449
0.0208721
0.0205286
0.0201358
0.0197112
0.0192692
0.0188209
0.0183752
0.0179391
0.0175159
0.0171106
0.0167245
0.0163581
0.0160121
0.0156858
0.0153783
0.0150879
0.0148144
0.0145416
0.0142668
0.0139503
0.0136134
0.0132958
0.0130357
0.0129247
0.0130332
0.0134317
0.0144075
0.0163411
0.0196732
0.0253471
0.0362382
0.0639894
0.188699
0.433238
0.870408
0.971213
1.08102
1.20084
0.0238906
0.023714
0.0234931
0.0231886
0.0228099
0.0223756
0.0219062
0.0214165
0.0209195
0.0204257
0.0199408
0.0194683
0.0190154
0.0185836
0.0181739
0.0177866
0.0174219
0.0170791
0.016756
0.0164531
0.0161625
0.0158863
0.0156284
0.0153742
0.0151172
0.0148431
0.0145608
0.0142996
0.0140763
0.0139002
0.0138223
0.013859
0.0139969
0.0142391
0.0145994
0.0150988
0.0157507
0.0166245
0.0176253
0.0187668
0.019834
0.0264574
0.0262612
0.0260097
0.0256713
0.0252548
0.0247776
0.0242617
0.0237236
0.0231777
0.0226349
0.0221016
0.0215831
0.0210841
0.0206092
0.0201593
0.0197347
0.019336
0.018963
0.0186144
0.0182905
0.0179834
0.0176925
0.0174292
0.0171937
0.0169805
0.0167838
0.0165959
0.0164135
0.0162376
0.0160658
0.0159068
0.0157712
0.0156658
0.0155931
0.0155529
0.0155453
0.0155712
0.0156344
0.0157358
0.0159079
0.0159806
0.0292117
0.0289946
0.0287081
0.0283331
0.0278766
0.0273547
0.0267904
0.0262027
0.0256072
0.0250147
0.024435
0.0238714
0.0233268
0.0228099
0.0223222
0.0218634
0.0214345
0.0210355
0.020666
0.0203267
0.0200099
0.0197126
0.0194458
0.0192115
0.0190069
0.0188297
0.0186779
0.0185498
0.0184432
0.0183573
0.0182893
0.0182389
0.0182068
0.018194
0.0181996
0.0182245
0.0182716
0.0183437
0.0184257
0.0185782
0.0185609
0.032169
0.0319319
0.0316054
0.0311898
0.03069
0.0301212
0.029506
0.0288672
0.0282204
0.0275784
0.0269522
0.0263431
0.0257548
0.0251975
0.0246735
0.0241832
0.023727
0.0233056
0.0229188
0.0225684
0.0222456
0.0219463
0.0216813
0.0214532
0.0212586
0.0210945
0.0209595
0.020853
0.0207738
0.0207212
0.0206941
0.0206915
0.0207138
0.02076
0.020828
0.0209159
0.0210265
0.0211634
0.0213018
0.0215291
0.0214832
0.0353516
0.0350877
0.0347175
0.0342583
0.0337116
0.0330916
0.0324224
0.0317298
0.0310301
0.0303377
0.0296633
0.0290094
0.0283801
0.0277832
0.0272241
0.0267039
0.0262224
0.0257812
0.0253797
0.0250211
0.024695
0.0243955
0.0241339
0.0239133
0.02373
0.0235802
0.023462
0.0233741
0.0233155
0.0232844
0.0232799
0.0233001
0.0233464
0.023417
0.0235092
0.0236205
0.0237544
0.0239153
0.0240676
0.0243372
0.0242003
0.0387743
0.0384836
0.0380648
0.0375545
0.0369557
0.0362797
0.0355529
0.0348028
0.0340479
0.0333028
0.0325785
0.0318806
0.0312111
0.0305744
0.0299806
0.0294315
0.0289265
0.028467
0.0280528
0.0276879
0.0273602
0.0270611
0.026803
0.026589
0.0264157
0.0262782
0.0261744
0.0261022
0.0260602
0.0260459
0.0260581
0.0260943
0.0261551
0.0262383
0.0263407
0.0264587
0.0265965
0.0267606
0.0269008
0.0271956
0.026912
0.0424613
0.042136
0.0416635
0.0410958
0.0404387
0.039701
0.0389124
0.0381006
0.0372875
0.0364869
0.0357115
0.034969
0.0342582
0.0335815
0.0329534
0.0323754
0.0318478
0.031371
0.030945
0.0305743
0.0302454
0.0299462
0.0296903
0.0294811
0.0293148
0.0291858
0.0290914
0.029029
0.0289964
0.0289913
0.0290111
0.0290531
0.0291174
0.0292016
0.0293012
0.0294124
0.0295396
0.0296924
0.0298027
0.0301148
0.029636
0.0464319
0.046072
0.0455343
0.0449009
0.044179
0.0433725
0.0425152
0.0416368
0.040761
0.0399018
0.0390728
0.0382825
0.0375284
0.0368135
0.0361505
0.0355431
0.0349925
0.034498
0.03406
0.0336833
0.0333521
0.0330511
0.0327947
0.0325869
0.0324227
0.0322964
0.0322043
0.0321439
0.0321117
0.0321051
0.0321212
0.0321566
0.0322112
0.0322827
0.0323657
0.0324557
0.0325581
0.0326858
0.0327503
0.0330754
0.0323576
0.0507176
0.0503106
0.0497003
0.0489926
0.0481932
0.0473089
0.0463745
0.0454234
0.0444791
0.0435571
0.0426705
0.0418286
0.0410298
0.0402763
0.039576
0.0389376
0.0383618
0.0378487
0.0373972
0.0370132
0.0366772
0.0363714
0.0361103
0.035899
0.0357317
0.0356014
0.0355034
0.0354353
0.0353934
0.0353742
0.0353745
0.035391
0.0354237
0.0354698
0.0355232
0.0355793
0.0356446
0.0357356
0.0357417
0.0360774
0.0350827
0.0553471
0.0548831
0.054182
0.053388
0.0525
0.0515271
0.0505071
0.0494761
0.0484565
0.0474665
0.0465174
0.0456197
0.0447738
0.0439797
0.0432388
0.0425669
0.0419635
0.0414287
0.0409599
0.0405647
0.0402193
0.0399028
0.0396309
0.0394087
0.0392298
0.039087
0.0389746
0.0388892
0.0388273
0.0387853
0.0387595
0.0387458
0.0387452
0.0387544
0.038767
0.0387776
0.0387949
0.0388388
0.0387754
0.0391186
0.0378151
0.0603495
0.05981
0.05901
0.0581112
0.0571208
0.0560498
0.0549332
0.0538115
0.0527082
0.0516421
0.0506247
0.049666
0.0487699
0.0479301
0.0471455
0.0464357
0.0458013
0.0452416
0.0447523
0.0443409
0.043981
0.0436471
0.0433572
0.0431166
0.042918
0.0427525
0.0426153
0.0425021
0.0424093
0.0423326
0.042269
0.0422137
0.0421686
0.0421299
0.0420919
0.0420486
0.0420103
0.0420007
0.0418625
0.0422141
0.040581
0.0657656
0.0651331
0.0642083
0.0631905
0.0620858
0.0608966
0.0596685
0.0584425
0.0572451
0.0560931
0.0550001
0.0539732
0.0530199
0.0521276
0.0512972
0.0505441
0.0498733
0.0492825
0.0487674
0.0483329
0.0479515
0.047593
0.0472775
0.0470101
0.0467837
0.0465872
0.0464161
0.0462664
0.0461337
0.0460133
0.0459027
0.0457973
0.0456996
0.0456058
0.0455105
0.0454083
0.0453103
0.0452446
0.0450309
0.0453931
0.0434186
0.0716316
0.0708812
0.0698159
0.0686562
0.0674113
0.0660853
0.0647281
0.0633828
0.0620786
0.06083
0.0596517
0.058549
0.05753
0.0565808
0.0557
0.0548977
0.0541831
0.0535536
0.0530058
0.0525422
0.0521304
0.0517386
0.0513878
0.0510838
0.0508193
0.0505829
0.0503677
0.0501706
0.049988
0.0498156
0.04965
0.0494871
0.0493299
0.0491759
0.0490188
0.0488541
0.0486937
0.0485702
0.0482817
0.0486536
0.0463368
0.0779957
0.0770983
0.0758603
0.0745335
0.073123
0.0716381
0.0701311
0.068651
0.0672237
0.0658659
0.0645899
0.0634018
0.0623061
0.0612935
0.0603562
0.059498
0.0587332
0.0580595
0.0574704
0.0569705
0.0565236
0.0560939
0.0557026
0.0553574
0.0550482
0.0547636
0.0544982
0.0542475
0.054008
0.0537756
0.0535484
0.0533228
0.0531022
0.0528842
0.0526639
0.0524367
0.0522152
0.0520348
0.0516763
0.0520567
0.049408
0.0848983
0.0838219
0.0823845
0.0808548
0.0792524
0.0775823
0.075905
0.0742674
0.0726994
0.0712161
0.0698286
0.0685422
0.0673594
0.0662728
0.0652694
0.064347
0.0635226
0.0627954
0.0621576
0.0616116
0.061118
0.0606403
0.0601971
0.0597991
0.0594366
0.0590958
0.05877
0.0584573
0.0581544
0.0578583
0.0575658
0.0572758
0.056991
0.0567106
0.0564283
0.0561419
0.0558636
0.0556315
0.0552141
0.0556012
0.0526513
0.0924002
0.0911022
0.0894244
0.0876656
0.0858351
0.0839532
0.0820764
0.0802568
0.0785251
0.0768982
0.075384
0.073986
0.0727027
0.071532
0.0704515
0.069455
0.0685617
0.0677715
0.0670734
0.0664695
0.0659171
0.0653806
0.0648781
0.0644208
0.0639975
0.0635956
0.063208
0.0628336
0.0624679
0.0621094
0.0617549
0.0614037
0.0610585
0.0607197
0.060382
0.0600433
0.0597163
0.0594393
0.0589764
0.0593692
0.0561638
0.100549
0.0989887
0.0970389
0.0949981
0.0929102
0.0907856
0.0886802
0.086653
0.0847341
0.082941
0.0812803
0.0797541
0.0783575
0.0770888
0.0759173
0.0748339
0.0738601
0.072997
0.0722321
0.0715648
0.0709514
0.0703533
0.0697877
0.0692685
0.0687848
0.0683218
0.0678724
0.0674352
0.0670076
0.0665868
0.0661706
0.0657584
0.0653551
0.0649602
0.0645702
0.0641818
0.0638113
0.0634913
0.0629925
0.0633761
0.0599665
0.109421
0.107547
0.105271
0.102915
0.100518
0.0981105
0.095756
0.0935014
0.091379
0.0893994
0.0875689
0.08589
0.0843603
0.0829766
0.0817055
0.0805284
0.0794587
0.0785004
0.0776451
0.0768887
0.0761908
0.075516
0.0748759
0.0742859
0.0737347
0.0732079
0.0726977
0.0722022
0.0717191
0.0712469
0.0707831
0.0703266
0.069883
0.0694528
0.0690334
0.0686212
0.0682338
0.0678986
0.0674041
0.0677798
0.0643145
0.119064
0.116827
0.114187
0.111459
0.108726
0.106007
0.103362
0.100849
0.0984996
0.0963216
0.0943129
0.0924648
0.0907734
0.0892401
0.0878451
0.0865736
0.0854307
0.0844107
0.0834971
0.0826807
0.08192
0.0811787
0.0804692
0.0798083
0.0791876
0.0785911
0.078014
0.0774533
0.0769084
0.0763757
0.0758566
0.0753484
0.074858
0.0743844
0.0739294
0.0734877
0.0730807
0.0727237
0.0722376
0.0725842
0.0690966
0.129529
0.126854
0.123792
0.120689
0.117615
0.114588
0.111645
0.108834
0.10619
0.103749
0.101524
0.0995072
0.0976681
0.0959739
0.0943802
0.0928755
0.0914919
0.0902568
0.0891656
0.0882036
0.0873292
0.0865058
0.0857325
0.085024
0.0843695
0.0837487
0.0831559
0.0825865
0.0820408
0.0815133
0.0810055
0.0805147
0.0800484
0.0796051
0.0791878
0.0787917
0.0784415
0.0781391
0.0777611
0.0780775
0.0750441
0.140835
0.137705
0.134185
0.130654
0.127246
0.123948
0.120767
0.117711
0.114789
0.112019
0.109433
0.107084
0.105015
0.103252
0.101753
0.100419
0.0991642
0.0979772
0.0968577
0.0958176
0.0948379
0.0938866
0.092974
0.0921237
0.0913314
0.0905833
0.089873
0.0891982
0.0885589
0.0879537
0.0873813
0.0868411
0.0863376
0.0858727
0.0854481
0.08506
0.0847344
0.084458
0.0841693
0.0844673
0.0816071
0.153103
0.149582
0.145665
0.141729
0.137903
0.134202
0.130674
0.127377
0.12432
0.121467
0.118743
0.116067
0.113387
0.110716
0.108129
0.105796
0.103851
0.102259
0.100939
0.0998128
0.0988272
0.097953
0.0971512
0.0964315
0.0957781
0.0951734
0.0946099
0.0940857
0.0935994
0.0931507
0.0927404
0.0923701
0.0920443
0.0917668
0.0915422
0.0913689
0.091278
0.0912325
0.0913096
0.0915295
0.0907306
0.166336
0.162458
0.158377
0.154356
0.150382
0.146307
0.14215
0.138043
0.134188
0.130783
0.127983
0.125852
0.124339
0.123289
0.122424
0.121239
0.119515
0.117573
0.11564
0.113833
0.11216
0.110589
0.109143
0.107841
0.106677
0.105634
0.104698
0.103864
0.10313
0.102491
0.101945
0.101493
0.101137
0.10088
0.100728
0.100678
0.100769
0.100925
0.101341
0.101781
0.100897
0.180251
0.175432
0.170941
0.167082
0.163713
0.160467
0.157054
0.153262
0.148929
0.14401
0.138599
0.132954
0.127406
0.122277
0.117804
0.114506
0.112441
0.110969
0.109828
0.108898
0.108159
0.107571
0.107076
0.10667
0.106342
0.106076
0.10587
0.105718
0.105625
0.105592
0.105629
0.10574
0.105939
0.106235
0.106645
0.107175
0.10788
0.108659
0.109995
0.110197
0.116689
0.193892
0.187791
0.182091
0.17724
0.173441
0.170603
0.168576
0.167175
0.16612
0.165106
0.163856
0.16221
0.160179
0.157972
0.155902
0.152866
0.148711
0.14448
0.140471
0.136838
0.133562
0.130613
0.127977
0.125634
0.12358
0.121788
0.120247
0.118942
0.117868
0.117022
0.116407
0.116028
0.115895
0.116022
0.116435
0.11715
0.11825
0.119615
0.121827
0.123519
0.126572
0.200329
0.197435
0.196518
0.193911
0.186157
0.173681
0.160021
0.147835
0.137988
0.1304
0.124726
0.120599
0.117691
0.115731
0.114455
0.114298
0.114932
0.115738
0.116509
0.117192
0.117851
0.118188
0.118433
0.118579
0.118651
0.118687
0.118715
0.118773
0.118894
0.119121
0.119488
0.120041
0.120817
0.121874
0.123239
0.124961
0.127062
0.129633
0.132448
0.136081
0.137516
0.00528742
0.00925284
0.0133916
0.0182197
0.0249374
0.00333174
0.0293514
0.00494799
0.073639
0.00464287
0.028662
0.050138
0.0850267
0.134664
0.112141
0.0936156
0.0824578
0.0744694
0.0679936
0.062595
0.0580793
0.0543761
0.0514866
0.0494236
0.0476501
0.0427844
0.147748
0.197868
0.0949157
0.0241565
0.0233589
0.0240381
0.0232463
0.0225156
0.0219648
0.0214844
0.0210554
0.0207258
0.0204695
0.0203082
0.0202154
0.020187
0.0202395
0.0203706
0.0205874
0.0209093
0.0213608
0.0219571
0.0227372
0.023739
0.0249855
0.0265508
0.0284743
0.030843
0.0338228
0.0375383
0.0420894
0.0480586
0.0553883
0.0649051
0.0744392
0.0833768
0.0842329
0.0814053
0.0778032
0.0750694
0.0727817
0.0718722
0.0712407
0.0715634
0.0717355
0.0730782
0.074738
0.0758471
0.00947738
0.0122218
0.0155603
0.0189141
0.0284061
0.0104625
0.00314572
0.0344586
0.00835474
0.00964716
0.03605
0.0614396
0.0906759
0.115253
0.127758
0.125403
0.112453
0.0989198
0.0872663
0.0778664
0.0703348
0.064332
0.059678
0.056281
0.0539698
0.0518841
0.0460381
0.0247671
0.619124
0.492429
0.0255543
0.0228373
0.0238374
0.0234752
0.0225904
0.0220387
0.0216233
0.0212838
0.0210099
0.0208432
0.0207515
0.0207203
0.020776
0.0209244
0.0211605
0.0215107
0.0220109
0.0226636
0.0235061
0.0245963
0.0259408
0.027612
0.0296634
0.0321636
0.0353435
0.0392557
0.0439527
0.050166
0.0575011
0.0668767
0.0755257
0.0830255
0.0836019
0.0813293
0.0783521
0.0761445
0.0740923
0.0733958
0.0729224
0.0734404
0.0736154
0.0751791
0.0768954
0.0783586
0.0160809
0.017026
0.0190454
0.0211562
0.0249209
0.0338915
0.00445679
0.0403527
0.00352937
0.0146784
0.0430981
0.07113
0.0898214
0.101091
0.114748
0.134184
0.154313
0.152748
0.129147
0.107756
0.0922596
0.0810306
0.0728265
0.0669121
0.0628513
0.0601535
0.0576642
0.0516087
0.0494028
0.0458932
0.163142
0.0310487
0.0219233
0.0229308
0.023603
0.0229815
0.0223938
0.0220491
0.0217814
0.0216008
0.0215065
0.0214707
0.0215285
0.0216882
0.0219511
0.0223323
0.0228768
0.0235966
0.02451
0.0256869
0.0271387
0.0289175
0.0310927
0.0337134
0.0370591
0.041072
0.0458126
0.0519618
0.058904
0.0672366
0.0744517
0.080195
0.081239
0.080077
0.0783245
0.0767053
0.075525
0.0750198
0.0748124
0.0754856
0.0759067
0.0776203
0.0794424
0.0812834
0.0236212
0.023508
0.0240126
0.0246786
0.0262609
0.0369217
0.013302
0.00372217
0.00363759
0.017721
0.0480222
0.0759556
0.0871483
0.0929002
0.101433
0.114261
0.133291
0.163688
0.198947
0.174016
0.134237
0.109295
0.0933935
0.0827239
0.0755053
0.0706994
0.0674304
0.0644118
0.0566881
0.020248
0.0254321
0.235286
0.113726
0.0247214
0.0227308
0.023781
0.0236353
0.0230194
0.0226578
0.0224858
0.0223979
0.0223544
0.0224084
0.0225767
0.0228611
0.0232761
0.0238627
0.0246436
0.0256299
0.0268906
0.0284418
0.0303262
0.0326121
0.0353388
0.0388024
0.0428243
0.0475579
0.0534617
0.0599135
0.0671166
0.0732743
0.0779159
0.0794877
0.0793045
0.0785216
0.0775393
0.0770594
0.076822
0.0768647
0.0777069
0.0783488
0.0802695
0.0821602
0.0843864
0.0309544
0.0312683
0.0304917
0.0296003
0.0293753
0.0325564
0.034955
0.00604648
0.00413114
0.0191109
0.050369
0.0770025
0.0854528
0.0893799
0.0954111
0.104038
0.115728
0.132521
0.160045
0.216024
0.263369
0.176418
0.132722
0.109497
0.0953963
0.086337
0.0803823
0.0761926
0.0721556
0.0640337
0.0380699
0.03819
0.0791033
0.153821
0.0296307
0.0228738
0.0237085
0.0243699
0.023922
0.0235052
0.0233842
0.023365
0.0234216
0.0235966
0.0238925
0.0243388
0.0249686
0.0258022
0.026854
0.0281932
0.0298287
0.0318063
0.0341837
0.0369888
0.0405117
0.0444879
0.0491462
0.0547205
0.0606747
0.0669326
0.0724186
0.076425
0.0785056
0.0791771
0.0790755
0.0788049
0.0787298
0.0788392
0.0791027
0.0801557
0.0809116
0.0831231
0.0850355
0.0876482
0.0388787
0.0397137
0.0381958
0.0359849
0.0339853
0.0341658
0.0448339
0.0162945
0.00589977
0.0189713
0.0503033
0.075707
0.0843555
0.0881545
0.0930721
0.0996119
0.107771
0.118074
0.132054
0.153701
0.195374
0.325311
0.266739
0.169152
0.132199
0.112447
0.100448
0.0926014
0.086921
0.0815989
0.073445
0.0545441
0.0216454
2.19538
0.213724
0.0538485
0.0244798
0.0235618
0.024876
0.0250662
0.0246582
0.0244664
0.0245293
0.0247406
0.0250562
0.0255275
0.026198
0.027083
0.0281921
0.0295994
0.0312998
0.0333439
0.0357788
0.038612
0.0421187
0.0459694
0.0504299
0.0555774
0.0609626
0.0664172
0.0713439
0.075087
0.0776163
0.079059
0.0796379
0.0800513
0.0803999
0.0808969
0.0814152
0.0827133
0.0835602
0.0860994
0.0880182
0.0910307
0.0469319
0.04817
0.0464607
0.0435927
0.0400947
0.0379609
0.0406829
0.0363878
0.00624884
0.0174916
0.0480798
0.0728206
0.0834118
0.0883393
0.0930861
0.0986669
0.105119
0.112526
0.121392
0.132915
0.149657
0.178272
0.24418
0.81867
0.24004
0.167725
0.13695
0.119662
0.108573
0.100534
0.0935709
0.0850024
0.0702614
0.0618571
0.0267192
0.498052
0.149655
0.0329499
0.0239434
0.0247235
0.0260047
0.026045
0.0258328
0.0259516
0.0263095
0.0268302
0.0275421
0.028476
0.0296354
0.031097
0.0328408
0.0349141
0.0373587
0.040154
0.0435559
0.0471795
0.0513153
0.0559491
0.0607189
0.0654812
0.0699201
0.0735886
0.0764861
0.0785974
0.079918
0.0809725
0.0818868
0.0828151
0.0836537
0.0852303
0.0862157
0.0891032
0.0910273
0.0944679
0.0547415
0.0560574
0.0544727
0.0517473
0.0475128
0.0433671
0.042369
0.0482612
0.0180893
0.0158206
0.0440782
0.0686379
0.0820946
0.0893276
0.0947811
0.100144
0.105798
0.111776
0.118285
0.125812
0.13528
0.148425
0.168831
0.206418
0.307786
0.528864
0.236163
0.176289
0.147851
0.130706
0.118822
0.109241
0.0995905
0.0835201
0.0445281
0.0485474
0.247346
0.259311
0.155279
0.0287689
0.0252093
0.0264896
0.0275509
0.0276314
0.0277282
0.0282016
0.0289676
0.0299595
0.0311618
0.0326586
0.0344175
0.0364767
0.0388742
0.0415613
0.0447715
0.0480812
0.0518116
0.0558973
0.0600905
0.0642641
0.0683245
0.0719494
0.0751321
0.0777943
0.0798184
0.0815215
0.0830739
0.0844957
0.0857096
0.0876091
0.0887877
0.0920718
0.0940042
0.0979085
0.0617424
0.0629883
0.0616217
0.0595084
0.0555872
0.0500936
0.0463369
0.0471543
0.0357504
0.0171641
0.0392344
0.0632906
0.0799391
0.0904832
0.0976714
0.103524
0.108969
0.114245
0.119521
0.125067
0.131351
0.139112
0.149492
0.164593
0.188855
0.234745
0.364711
0.486513
0.256252
0.195248
0.164603
0.145253
0.131068
0.118374
0.102006
0.0756429
0.0267769
0.0313219
1.53294
0.195536
0.0469964
0.0272471
0.0266548
0.0284828
0.0296433
0.0299907
0.030529
0.031488
0.0327296
0.0342517
0.0359921
0.0379857
0.0402734
0.0427843
0.0457276
0.0486704
0.0519645
0.055519
0.0592133
0.0629032
0.0666739
0.0702298
0.0736098
0.0767112
0.0793371
0.0816819
0.0838749
0.0858483
0.0874954
0.0897723
0.0911968
0.0949346
0.0968891
0.101307
0.0677913
0.0689301
0.0677563
0.0662137
0.0632241
0.0575333
0.0515797
0.0487412
0.0455462
0.024906
0.035046
0.057165
0.0764989
0.0910739
0.101275
0.108545
0.114348
0.119381
0.123978
0.128389
0.132945
0.138077
0.144343
0.152544
0.163907
0.180597
0.207075
0.255299
0.378612
0.645755
0.305132
0.226918
0.18848
0.164091
0.14517
0.12668
0.103052
0.056343
0.0585307
0.305726
0.434282
8.61208
0.0380214
0.0278417
0.0285553
0.0309732
0.0324956
0.0333324
0.0343674
0.0358214
0.0375077
0.0393882
0.041503
0.0437754
0.0463909
0.0489549
0.0518021
0.0548871
0.0581371
0.0614638
0.0649849
0.0684603
0.0719432
0.0753757
0.0784991
0.081416
0.0842181
0.0867748
0.0889281
0.0916451
0.0933709
0.097602
0.0996085
0.104614
0.0739044
0.0747926
0.0735715
0.0721512
0.0697044
0.0647315
0.0574179
0.0517705
0.0473518
0.0348387
0.0331603
0.0512046
0.0716988
0.090229
0.10488
0.114968
0.121938
0.127161
0.131404
0.135081
0.138529
0.142085
0.146118
0.15106
0.157446
0.166004
0.177813
0.194693
0.220209
0.263087
0.354086
0.835783
0.418974
0.280341
0.223246
0.188738
0.162383
0.1346
0.0984526
0.0296497
0.0446244
0.0358996
0.33205
6.96041
0.0419024
0.0307672
0.031868
0.034555
0.0362872
0.0375393
0.0389548
0.0406201
0.0425068
0.0444948
0.046748
0.0489428
0.0513657
0.0540435
0.0569119
0.0599539
0.063255
0.0666345
0.0701504
0.0737956
0.0773061
0.0806962
0.0840488
0.0871843
0.0898978
0.093111
0.0952112
0.0999591
0.102064
0.107756
0.0826818
0.0833495
0.0816567
0.0796838
0.0763717
0.0711082
0.0631858
0.0552207
0.0489071
0.0400864
0.034136
0.0464322
0.0662093
0.0875676
0.107289
0.122156
0.131755
0.137873
0.142067
0.145212
0.147815
0.150234
0.15278
0.155753
0.15947
0.164284
0.170615
0.179015
0.190273
0.205688
0.227596
0.261056
0.32011
0.467088
1.04123
0.387541
0.278874
0.223526
0.18296
0.140557
0.0835267
0.0334737
0.038933
0.754093
0.349386
0.268548
0.0409889
0.0341155
0.0358638
0.0386694
0.0404335
0.0417443
0.0432506
0.0449024
0.0467983
0.0486483
0.0507081
0.0530307
0.0555888
0.058388
0.0614917
0.0647556
0.0682551
0.0720145
0.0757906
0.0795547
0.083377
0.0870493
0.0903276
0.094062
0.0966163
0.101902
0.104165
0.110649
0.101035
0.103489
0.100828
0.0959458
0.0882286
0.0782117
0.0678987
0.0581472
0.0501499
0.0421498
0.0357887
0.0430112
0.0609364
0.0832133
0.106907
0.128241
0.143071
0.151731
0.156572
0.159425
0.161293
0.16272
0.164049
0.165546
0.167447
0.169978
0.173362
0.177841
0.18369
0.191272
0.20107
0.213871
0.23109
0.255403
0.292815
0.360079
0.532002
0.726202
0.384739
0.276078
0.207521
0.148462
0.0754687
0.0677786
0.0303008
2.77453
0.31325
0.122466
0.0422811
0.0377507
0.0399308
0.0423948
0.0438953
0.045099
0.0465746
0.0481021
0.0498661
0.0518918
0.0541943
0.0567819
0.0597015
0.062845
0.0662883
0.0700806
0.0740114
0.0780423
0.0822315
0.0863645
0.0901755
0.0944234
0.0974996
0.103322
0.105819
0.113207
0.129064
0.165807
0.235275
0.162342
0.112116
0.0865437
0.0703862
0.0592545
0.050601
0.042906
0.0375234
0.0421178
0.057497
0.0789995
0.104259
0.130801
0.153124
0.167671
0.175338
0.178855
0.180292
0.180781
0.180903
0.181001
0.181312
0.182028
0.183306
0.185289
0.188107
0.191894
0.196784
0.202967
0.210744
0.220589
0.23333
0.250429
0.274624
0.311663
0.37629
0.517691
0.593177
0.359545
0.238723
0.151892
0.0579347
0.0708539
0.038908
1.25573
0.300007