/*--------------------------------*- C++ -*----------------------------------*\
| =========                 |                                                 |
| \\      /  F ield         | OpenFOAM: The Open Source CFD Toolbox           |
|  \\    /   O peration     | Version:  2312                                  |
|   \\  /    A nd           | Website:  www.openfoam.com                      |
|    \\/     M anipulation  |                                                 |
\*---------------------------------------------------------------------------*/
FoamFile
{
    version     2.0;
    format      ascii;
    arch        "LSB;label=32;scalar=64";
    class       volVectorField;
    location    "350";
    object      U;
}
// * * * * * * * * * * * * * * * * * * * * * * * * * * * * * * * * * * * * * //

dimensions      [0 1 -1 0 0 0 0];

internalField   nonuniform List<vector> 
11040
(
(-0.965356 8.7193 -4.50133e-19)
(0.455237 4.30224 -2.67574e-18)
(-0.868676 -1.65104 -3.83102e-17)
(-1.55012 -0.919405 -1.1802e-17)
(-1.53521 -0.821796 -4.70455e-18)
(-1.43223 -0.618893 -1.92058e-17)
(-1.36125 -0.50142 3.66322e-17)
(-1.3051 -0.412559 2.76512e-17)
(-1.25974 -0.347923 5.41171e-18)
(-1.21625 -0.292998 1.50092e-18)
(-1.18057 -0.244484 -2.5771e-17)
(-1.15577 -0.203262 3.73742e-18)
(-1.13907 -0.167034 1.03258e-17)
(-1.1312 -0.133537 8.52522e-18)
(-1.13238 -0.103039 -7.95292e-18)
(-1.14044 -0.0742914 1.33439e-17)
(-1.15828 -0.0466645 6.07345e-18)
(-1.18874 -0.0202651 -1.51818e-17)
(-1.23201 0.00729117 -4.52304e-19)
(-1.29453 0.0362241 2.36062e-18)
(-1.37949 0.0682723 -2.57969e-18)
(-1.48805 0.101178 -8.76228e-18)
(-1.62518 0.134049 8.69952e-18)
(-1.79996 0.16916 -8.66595e-18)
(-2.00648 0.207583 8.68205e-18)
(-2.23383 0.24889 1.5245e-17)
(-2.47427 0.291801 6.41782e-18)
(-2.71667 0.333994 5.97993e-18)
(-2.94184 0.373203 6.22217e-18)
(-3.12207 0.40535 8.15004e-18)
(-3.22334 0.426343 -1.42874e-17)
(-3.22122 0.432049 -1.09416e-17)
(-3.10093 0.421736 -3.29055e-17)
(-2.87473 0.393757 -1.88248e-17)
(-2.53041 0.344361 2.00265e-18)
(-2.06515 0.267005 -2.91842e-17)
(-1.47624 0.161551 8.07635e-19)
(-0.7755 0.0324565 -2.27095e-17)
(-0.0393727 -0.100778 3.57765e-17)
(1.04 -0.241626 2.78686e-17)
(0.739715 -0.638829 -6.68058e-18)
(0.878554 9.09487 2.44037e-19)
(2.21848 8.47889 -3.89308e-19)
(1.53323 3.94272 1.01153e-17)
(-0.457833 -0.284251 1.90026e-18)
(-1.40294 -0.830733 -5.41378e-19)
(-1.479 -0.705875 6.08392e-18)
(-1.4384 -0.556291 -1.04957e-18)
(-1.41029 -0.462206 -1.57482e-17)
(-1.39029 -0.396488 6.90562e-19)
(-1.36641 -0.344884 -5.06882e-18)
(-1.34803 -0.298129 7.67827e-18)
(-1.33994 -0.256886 -2.70207e-17)
(-1.33905 -0.221453 -2.08491e-18)
(-1.34748 -0.187051 -1.84264e-17)
(-1.36701 -0.154471 7.99906e-18)
(-1.39651 -0.123137 -3.13412e-18)
(-1.43772 -0.0915113 -4.91877e-18)
(-1.49198 -0.0610999 -4.86307e-18)
(-1.56375 -0.0287502 -6.21272e-19)
(-1.65851 0.00547171 3.54788e-19)
(-1.78362 0.0452538 1.24106e-18)
(-1.93857 0.0877994 3.52137e-18)
(-2.12108 0.130424 -5.33965e-18)
(-2.33249 0.175256 -1.19409e-18)
(-2.56378 0.223635 -1.43031e-18)
(-2.80084 0.274777 2.88782e-18)
(-3.0267 0.326228 1.75659e-18)
(-3.22208 0.374026 -9.85909e-18)
(-3.36745 0.414644 -8.07902e-19)
(-3.45047 0.443971 5.90768e-18)
(-3.46424 0.460901 7.53221e-18)
(-3.40498 0.462467 1.54871e-17)
(-3.26354 0.448465 1.25706e-17)
(-3.0147 0.411191 6.02356e-18)
(-2.65223 0.348823 -2.7208e-18)
(-2.17339 0.257317 1.07427e-17)
(-1.57607 0.137961 -8.25307e-18)
(-0.872502 -0.0148428 6.22024e-18)
(-0.132167 -0.181336 -2.58228e-18)
(0.902029 -0.340001 -3.71615e-18)
(1.21245 -0.600418 6.43839e-18)
(1.45056 7.72683 -1.40917e-20)
(2.79633 9.01109 1.20412e-18)
(3.29587 7.82773 -2.43772e-18)
(2.12689 4.04411 -4.68104e-18)
(0.0512901 0.424609 5.77848e-19)
(-1.12391 -0.605987 -5.53841e-18)
(-1.34558 -0.579478 -9.08786e-18)
(-1.3729 -0.472145 -9.36349e-18)
(-1.39104 -0.407286 7.06025e-18)
(-1.39472 -0.35943 3.19587e-19)
(-1.39686 -0.312982 4.2582e-18)
(-1.40775 -0.269204 1.39407e-17)
(-1.42424 -0.232687 -1.05675e-17)
(-1.44896 -0.196032 1.13733e-17)
(-1.48432 -0.16109 -6.81488e-18)
(-1.52899 -0.126973 -2.97375e-18)
(-1.58531 -0.0913214 1.37912e-18)
(-1.65477 -0.0563164 1.90705e-18)
(-1.74127 -0.018351 9.66175e-20)
(-1.85035 0.0221516 -8.11183e-20)
(-1.98789 0.0693717 -2.92912e-18)
(-2.15003 0.119948 -2.43934e-18)
(-2.32994 0.169388 5.12434e-19)
(-2.5266 0.218383 -3.39517e-19)
(-2.73203 0.267664 2.89258e-18)
(-2.93504 0.31633 -6.36442e-18)
(-3.12341 0.361789 -4.60231e-18)
(-3.2858 0.400976 6.7118e-18)
(-3.41119 0.431688 1.64183e-18)
(-3.48995 0.450656 -1.02979e-18)
(-3.50959 0.456802 -6.851e-18)
(-3.45657 0.445486 2.87635e-18)
(-3.31491 0.415439 -6.33786e-18)
(-3.07066 0.360893 -8.22139e-18)
(-2.71604 0.28148 1.75482e-18)
(-2.2481 0.174125 4.40363e-18)
(-1.66533 0.0412964 6.45003e-18)
(-0.977345 -0.123098 -6.59026e-18)
(-0.248289 -0.305857 -1.36017e-18)
(0.727206 -0.459334 -1.8746e-18)
(1.22833 -0.787896 -3.71487e-18)
(1.76383 7.22345 -4.13048e-20)
(2.66725 8.2087 -2.10311e-19)
(3.69745 8.87615 1.24538e-18)
(3.88256 7.52487 2.50129e-18)
(2.63343 4.28402 -4.33052e-19)
(0.604491 1.02261 -4.84932e-18)
(-0.81995 -0.369347 2.80861e-18)
(-1.16749 -0.433103 4.36316e-18)
(-1.28161 -0.380994 -3.70452e-18)
(-1.3325 -0.347917 4.3356e-18)
(-1.36052 -0.311071 -1.02812e-17)
(-1.39206 -0.268357 1.38059e-18)
(-1.42576 -0.233353 1.45984e-18)
(-1.46485 -0.195711 -9.02928e-18)
(-1.51348 -0.15951 -4.26188e-18)
(-1.57028 -0.123825 2.6079e-18)
(-1.63803 -0.0855309 4.82657e-18)
(-1.71773 -0.0473307 2.18222e-18)
(-1.8127 -0.00512879 -1.35026e-19)
(-1.927 0.0402455 1.41567e-19)
(-2.06469 0.0927233 7.79395e-19)
(-2.22029 0.148206 2.31913e-18)
(-2.3866 0.20194 7.85312e-19)
(-2.56394 0.253359 1.38951e-18)
(-2.74807 0.302685 2.09092e-18)
(-2.93193 0.349395 9.40099e-18)
(-3.1071 0.391098 -6.80099e-19)
(-3.26451 0.425153 -1.21787e-18)
(-3.39284 0.44936 -4.18919e-18)
(-3.47954 0.459897 -3.6653e-18)
(-3.50925 0.454888 5.19736e-18)
(-3.46708 0.429194 -4.40215e-18)
(-3.338 0.381635 1.13575e-17)
(-3.10984 0.30733 2.92085e-18)
(-2.77401 0.206476 2.24486e-18)
(-2.3273 0.0770591 4.8589e-19)
(-1.76842 -0.0768926 -8.99737e-20)
(-1.10513 -0.25895 -5.45623e-19)
(-0.395195 -0.459677 1.47532e-18)
(0.51232 -0.608876 -2.21984e-18)
(1.1128 -0.933011 6.81629e-19)
(2.29868 6.78251 3.70201e-20)
(2.93286 7.38677 1.49874e-20)
(3.66244 8.23579 -1.11482e-18)
(4.40844 8.63 -1.77881e-18)
(4.41691 7.43322 1.95374e-18)
(3.2185 4.68917 -1.71368e-19)
(1.25081 1.69286 7.89429e-19)
(-0.393937 -0.0545993 5.10644e-18)
(-0.948531 -0.283358 -1.38875e-18)
(-1.15669 -0.295034 -2.14171e-18)
(-1.2397 -0.278079 -3.23157e-18)
(-1.30049 -0.244673 -2.19605e-20)
(-1.35621 -0.217599 -1.12042e-19)
(-1.40989 -0.18232 5.72618e-18)
(-1.47046 -0.146553 3.34451e-18)
(-1.53633 -0.110921 1.25381e-19)
(-1.61131 -0.0715307 -2.10295e-18)
(-1.6961 -0.0320188 2.26446e-18)
(-1.79369 0.0123375 -3.20073e-19)
(-1.90733 0.060226 7.60462e-19)
(-2.04067 0.115332 -1.51915e-18)
(-2.18877 0.173068 -1.56389e-19)
(-2.34571 0.229015 1.9855e-18)
(-2.51322 0.282241 -2.1069e-18)
(-2.68932 0.332637 -4.62213e-18)
(-2.86892 0.37937 -2.33456e-18)
(-3.04462 0.419766 4.8532e-19)
(-3.20716 0.450627 -3.72616e-18)
(-3.34442 0.468917 1.097e-19)
(-3.44287 0.470419 3.51133e-18)
(-3.48695 0.452648 -2.7912e-18)
(-3.46185 0.410767 5.87654e-19)
(-3.35317 0.343489 -7.97791e-18)
(-3.14877 0.246877 -3.71439e-18)
(-2.83958 0.121375 -2.08205e-18)
(-2.42196 -0.0335144 -1.89269e-18)
(-1.8948 -0.212401 1.04403e-18)
(-1.26463 -0.415717 -6.77436e-20)
(-0.580437 -0.634533 7.91516e-19)
(0.255026 -0.78941 2.94571e-18)
(0.914595 -1.07468 -1.91093e-18)
(2.71199 6.32621 -9.89773e-20)
(3.23713 6.86935 -1.13746e-19)
(3.74426 7.39457 3.09352e-19)
(4.37661 8.09344 6.0282e-19)
(4.97309 8.398 -4.72357e-19)
(4.95108 7.47541 2.54786e-19)
(3.89602 5.22351 6.82405e-19)
(2.03981 2.47493 4.41443e-20)
(0.211215 0.432017 -1.92108e-19)
(-0.649513 -0.121472 6.46787e-18)
(-0.976888 -0.195864 4.78952e-18)
(-1.11585 -0.185669 -2.30413e-18)
(-1.21245 -0.176558 -1.52545e-18)
(-1.28691 -0.152195 7.08707e-18)
(-1.36286 -0.120624 -5.86831e-18)
(-1.43856 -0.087765 2.5143e-18)
(-1.51984 -0.048684 2.29084e-19)
(-1.60775 -0.00938197 6.29204e-19)
(-1.70538 0.0357839 7.34251e-19)
(-1.8163 0.0847949 -3.34176e-19)
(-1.9449 0.14139 -7.12896e-19)
(-2.08796 0.200826 5.20356e-19)
(-2.24094 0.259022 -8.69925e-19)
(-2.40615 0.314638 -6.07122e-19)
(-2.58242 0.367039 4.42515e-18)
(-2.76521 0.414797 -2.9041e-18)
(-2.9473 0.454647 -6.84947e-19)
(-3.11929 0.482612 4.61076e-18)
(-3.2691 0.494681 3.65263e-18)
(-3.38327 0.486324 -1.80525e-18)
(-3.44673 0.454338 -1.49434e-18)
(-3.44484 0.394273 -4.79847e-19)
(-3.36362 0.304531 3.74288e-18)
(-3.19074 0.182339 3.81412e-18)
(-2.91667 0.0282921 1.05417e-18)
(-2.53702 -0.156134 -1.37187e-18)
(-2.05081 -0.364197 -1.72937e-19)
(-1.46376 -0.592702 -9.49289e-19)
(-0.814792 -0.830072 -2.26926e-18)
(-0.0504108 -0.999793 -1.18937e-19)
(0.638426 -1.23708 1.97526e-18)
(3.12713 5.93682 -1.77287e-20)
(3.51627 6.42366 1.5633e-19)
(3.92255 6.84794 1.34491e-19)
(4.37129 7.28864 5.51551e-19)
(4.92761 7.85483 2.58669e-19)
(5.44405 8.16176 -9.0359e-19)
(5.4788 7.56183 2.81725e-19)
(4.64062 5.81148 -2.827e-19)
(2.96144 3.35877 -2.36025e-18)
(1.0635 1.16721 1.07979e-19)
(-0.221842 0.0989261 -1.03643e-17)
(-0.713657 -0.0695637 9.04998e-18)
(-0.956567 -0.0944581 -5.95537e-18)
(-1.08518 -0.0927623 -7.02097e-19)
(-1.18926 -0.074995 3.07679e-18)
(-1.28133 -0.0522849 -1.10007e-18)
(-1.37196 -0.0166262 4.22122e-18)
(-1.46469 0.0202877 -1.69846e-18)
(-1.56308 0.0650426 3.7765e-19)
(-1.67178 0.114136 -2.93824e-19)
(-1.79622 0.171823 2.9922e-19)
(-1.93553 0.233139 -3.83213e-19)
(-2.08667 0.294367 2.00665e-18)
(-2.25243 0.353577 -6.45184e-19)
(-2.4321 0.409255 -1.64282e-18)
(-2.62128 0.45908 7.78165e-19)
(-2.81264 0.499141 2.52694e-18)
(-2.99692 0.52458 -1.24877e-18)
(-3.16255 0.530398 3.39144e-20)
(-3.29657 0.511549 -1.00193e-18)
(-3.38465 0.464164 6.63211e-20)
(-3.41246 0.383974 -1.78454e-18)
(-3.36639 0.269104 -3.213e-20)
(-3.23402 0.117778 7.78312e-19)
(-3.00529 -0.0689339 2.5361e-18)
(-2.67478 -0.287559 -1.91287e-18)
(-2.24115 -0.529533 -2.16419e-18)
(-1.70933 -0.787893 1.75052e-18)
(-1.10804 -1.04616 -6.84943e-19)
(-0.41491 -1.23884 1.64603e-20)
(0.273674 -1.4323 1.06423e-19)
(3.50796 5.60819 -6.53864e-21)
(3.81057 6.01244 7.86772e-22)
(4.12413 6.4049 -1.61716e-20)
(4.47506 6.7441 -4.23919e-19)
(4.8788 7.09701 -1.7076e-19)
(5.36644 7.55541 -2.68178e-19)
(5.83913 7.89335 1.2852e-18)
(5.97306 7.60892 1.99867e-19)
(5.39144 6.35731 6.74497e-19)
(3.98562 4.30318 -1.62693e-18)
(2.13457 2.11912 2.01262e-18)
(0.500112 0.575379 3.27782e-18)
(-0.345372 0.0815084 -7.09411e-18)
(-0.720682 0.0105747 7.07661e-18)
(-0.919181 0.00718175 1.16896e-19)
(-1.0545 0.00860843 -1.33253e-18)
(-1.16599 0.0315612 -4.91793e-18)
(-1.27053 0.0597263 -3.92595e-19)
(-1.37338 0.1014 -1.53102e-18)
(-1.48196 0.149137 5.61611e-18)
(-1.60317 0.207649 -3.44939e-18)
(-1.73891 0.27129 5.56028e-19)
(-1.88786 0.336684 1.10921e-18)
(-2.05352 0.401053 1.9392e-19)
(-2.23585 0.46183 4.21912e-19)
(-2.43112 0.515479 1.82394e-19)
(-2.6324 0.557135 1.01505e-18)
(-2.83064 0.580906 -5.96634e-19)
(-3.01471 0.580939 -2.46835e-18)
(-3.17243 0.55148 -7.21542e-19)
(-3.2904 0.488042 2.17331e-18)
(-3.35484 0.386266 1.06259e-18)
(-3.35257 0.244037 9.08515e-20)
(-3.27131 0.0602808 -1.81266e-18)
(-3.10044 -0.163125 -9.77493e-19)
(-2.83319 -0.420835 6.22174e-19)
(-2.46714 -0.701937 1.45545e-18)
(-2.00563 -0.995558 -8.14453e-19)
(-1.46836 -1.27993 5.45266e-19)
(-0.850993 -1.50159 -1.25872e-18)
(-0.193866 -1.66358 -1.86372e-19)
(3.86156 5.32077 -1.5717e-20)
(4.1081 5.66208 -9.23004e-20)
(4.35205 5.99545 1.20669e-19)
(4.62466 6.31308 6.3222e-20)
(4.93672 6.58577 -9.89505e-20)
(5.295 6.85944 4.24857e-20)
(5.721 7.22295 -5.03018e-19)
(6.16368 7.5762 -5.15449e-19)
(6.39783 7.55283 -1.29843e-20)
(6.08656 6.78319 -1.02403e-18)
(5.03521 5.21721 -3.51764e-19)
(3.36943 3.2119 1.27561e-18)
(1.57188 1.40233 8.98049e-19)
(0.247991 0.376158 -4.13572e-18)
(-0.367106 0.141785 1.11892e-17)
(-0.688925 0.110019 -3.77124e-18)
(-0.872349 0.113439 3.08015e-18)
(-1.01209 0.121582 -4.96494e-18)
(-1.13042 0.151179 -1.63447e-19)
(-1.24485 0.192236 1.68175e-18)
(-1.36511 0.249942 -2.19112e-18)
(-1.49742 0.315989 -2.89297e-19)
(-1.643 0.386736 5.65319e-19)
(-1.80653 0.458082 -1.80472e-18)
(-1.98879 0.526263 -4.95629e-19)
(-2.1872 0.586243 -1.29213e-18)
(-2.39602 0.63193 -2.3593e-18)
(-2.60715 0.656297 9.0991e-19)
(-2.81035 0.652248 6.7426e-19)
(-2.99426 0.613239 2.18401e-18)
(-3.14659 0.534038 -8.80019e-19)
(-3.25447 0.410307 6.59705e-19)
(-3.30514 0.2395 -7.71733e-19)
(-3.28681 0.021089 1.85101e-18)
(-3.18846 -0.242423 -1.92528e-19)
(-3.0017 -0.543686 4.53585e-19)
(-2.72233 -0.869519 -2.27353e-18)
(-2.35079 -1.20472 1.42952e-18)
(-1.89925 -1.52293 -1.19502e-19)
(-1.36996 -1.77645 7.4801e-19)
(-0.773517 -1.93002 -8.40233e-19)
(4.18968 5.06787 -8.96912e-20)
(4.39631 5.35694 3.16285e-19)
(4.59521 5.63938 -1.16707e-19)
(4.80795 5.91547 2.54283e-20)
(5.05113 6.17459 1.63862e-19)
(5.3276 6.3951 -4.97594e-19)
(5.6419 6.60417 1.28971e-19)
(6.01161 6.88091 1.9901e-18)
(6.42161 7.21216 -2.02421e-18)
(6.72921 7.36932 -1.91442e-19)
(6.67116 7.02236 1.07346e-19)
(6.00037 5.97191 9.06779e-20)
(4.66038 4.32225 1.25426e-18)
(2.91266 2.49535 -5.39386e-19)
(1.25565 1.04055 3.452e-18)
(0.175211 0.353959 -4.24733e-18)
(-0.337695 0.229548 1.46899e-18)
(-0.627224 0.221893 -9.35928e-19)
(-0.804971 0.232417 1.6922e-18)
(-0.945305 0.254971 1.3827e-18)
(-1.07278 0.303632 6.15529e-19)
(-1.20375 0.368709 -1.56887e-18)
(-1.34474 0.445175 1.47479e-18)
(-1.50347 0.525431 8.30157e-19)
(-1.6823 0.603716 -2.18599e-18)
(-1.88 0.673335 1.47668e-18)
(-2.09221 0.726682 1.6815e-18)
(-2.31243 0.755201 -1.93955e-18)
(-2.53196 0.750513 2.71043e-19)
(-2.74099 0.705072 -1.68729e-18)
(-2.92888 0.613041 9.0359e-19)
(-3.08438 0.469387 -1.20644e-18)
(-3.19568 0.271317 -4.1015e-19)
(-3.25153 0.018031 7.94308e-20)
(-3.24087 -0.286916 -8.17296e-19)
(-3.15381 -0.634931 2.30733e-19)
(-2.98373 -1.01035 6.41383e-19)
(-2.72741 -1.39451 -9.01207e-19)
(-2.38944 -1.75652 -1.51122e-19)
(-1.96903 -2.04891 -1.14278e-18)
(-1.46186 -2.22103 8.12892e-19)
(4.49338 4.84216 -9.36222e-20)
(4.6713 5.0883 -2.58213e-19)
(4.83833 5.32805 3.32853e-20)
(5.01148 5.56313 9.46604e-20)
(5.20313 5.79201 -1.85009e-19)
(5.42005 6.00532 -3.02162e-19)
(5.66385 6.18685 1.01434e-19)
(5.93722 6.34739 5.16979e-20)
(6.25504 6.54717 1.47343e-19)
(6.62144 6.82145 1.89987e-18)
(6.96443 7.06632 5.98674e-19)
(7.10237 7.03369 1.60403e-19)
(6.79237 6.47026 -1.30479e-18)
(5.87116 5.29621 3.15537e-18)
(4.38754 3.69897 -2.91486e-18)
(2.65759 2.08554 1.92371e-18)
(1.1448 0.906582 -3.09742e-18)
(0.208237 0.407463 -8.44316e-18)
(-0.259648 0.332741 4.38558e-19)
(-0.527288 0.349421 6.82224e-18)
(-0.700181 0.383892 -3.41969e-18)
(-0.841802 0.438031 3.94198e-18)
(-0.979557 0.514485 -1.93312e-18)
(-1.1308 0.60247 3.22572e-19)
(-1.30162 0.693397 -1.94291e-19)
(-1.49325 0.776799 -1.52914e-18)
(-1.70329 0.842744 1.22793e-18)
(-1.92702 0.880819 -1.02644e-18)
(-2.15772 0.881119 8.21285e-19)
(-2.38738 0.835111 5.62477e-19)
(-2.60763 0.73592 8.23903e-20)
(-2.80947 0.578051 5.30215e-19)
(-2.98337 0.358215 3.21526e-19)
(-3.11958 0.0752686 -1.34672e-18)
(-3.20803 -0.267657 -7.975e-19)
(-3.23778 -0.661254 5.4453e-19)
(-3.19945 -1.08859 6.51086e-19)
(-3.08641 -1.52813 1.11187e-19)
(-2.89496 -1.94593 1.29827e-18)
(-2.61479 -2.29156 9.00931e-19)
(-2.23372 -2.51493 2.2783e-19)
(4.77392 4.63867 -1.07475e-19)
(4.93008 4.84951 5.86152e-20)
(5.07448 5.05314 1.80834e-19)
(5.2197 5.25334 -1.1324e-19)
(5.37568 5.44964 -7.93e-20)
(5.54867 5.63955 1.23113e-19)
(5.74215 5.81689 1.15844e-19)
(5.95682 5.96911 -9.2559e-19)
(6.19398 6.09593 -2.13888e-18)
(6.46399 6.23402 2.80673e-18)
(6.77919 6.43421 -1.88953e-18)
(7.11845 6.68207 -4.78601e-19)
(7.37676 6.83427 -8.14339e-19)
(7.36265 6.66361 -4.78623e-19)
(6.8735 5.99193 1.16721e-18)
(5.8139 4.81275 -5.5823e-19)
(4.29039 3.33471 2.94371e-18)
(2.6175 1.91261 -3.01917e-18)
(1.20548 0.910156 -1.43988e-18)
(0.332615 0.498134 9.92275e-18)
(-0.117185 0.458193 -5.09698e-18)
(-0.361302 0.524145 -2.72431e-19)
(-0.522551 0.607414 8.04294e-19)
(-0.668652 0.698054 2.89094e-18)
(-0.825646 0.797559 -2.39947e-18)
(-1.00325 0.89507 -5.31912e-19)
(-1.20226 0.978095 -6.04488e-19)
(-1.4206 1.03312 3.0783e-18)
(-1.65366 1.04685 -1.35971e-18)
(-1.89573 1.00952 -4.717e-19)
(-2.14087 0.912937 1.55727e-18)
(-2.38286 0.751451 -1.36169e-18)
(-2.6147 0.52076 -7.09814e-19)
(-2.82908 0.219236 8.67455e-19)
(-3.01771 -0.151617 6.46223e-19)
(-3.17051 -0.582055 1.13859e-19)
(-3.27725 -1.05589 -3.26619e-19)
(-3.32919 -1.55174 -2.11639e-19)
(-3.31498 -2.03504 -6.78392e-19)
(-3.21398 -2.45381 6.15753e-19)
(-3.00927 -2.76207 -9.71928e-20)
(5.03201 4.45363 1.7137e-19)
(5.17122 4.63496 -3.57055e-19)
(5.29891 4.80858 3.20492e-19)
(5.42413 4.97858 3.12479e-20)
(5.55503 5.14625 4.40292e-20)
(5.69666 5.31015 1.40655e-19)
(5.85285 5.46834 8.18275e-19)
(6.02563 5.61665 3.67173e-19)
(6.21509 5.74612 1.71334e-19)
(6.42114 5.85058 8.97412e-20)
(6.64923 5.94627 -7.30186e-19)
(6.91357 6.07652 1.08842e-18)
(7.2197 6.27198 -1.05407e-19)
(7.52418 6.48424 1.07679e-18)
(7.70618 6.56375 -2.95466e-18)
(7.58727 6.32156 3.14491e-18)
(7.00551 5.63486 -9.74622e-19)
(5.90649 4.52848 -3.07033e-18)
(4.41056 3.1927 2.77528e-18)
(2.80086 1.92129 -3.47777e-18)
(1.43821 1.01663 2.6794e-18)
(0.598406 0.645898 -1.03274e-18)
(0.17241 0.644664 3.67259e-18)
(-0.0654412 0.772779 -1.24166e-18)
(-0.230585 0.91567 -5.76438e-18)
(-0.387096 1.0383 2.75363e-18)
(-0.560034 1.13952 1.11831e-18)
(-0.756892 1.21314 -2.58058e-19)
(-0.97675 1.24659 2.28769e-19)
(-1.21584 1.22782 -6.48472e-19)
(-1.47062 1.14777 -3.30035e-18)
(-1.73767 0.99843 3.55825e-18)
(-2.01282 0.774964 -2.17315e-19)
(-2.2918 0.47351 -1.11134e-18)
(-2.56842 0.0942164 1.26568e-18)
(-2.8348 -0.356028 -1.56499e-19)
(-3.08154 -0.861737 -3.07764e-19)
(-3.2994 -1.40439 5.37485e-19)
(-3.47355 -1.95021 2.38193e-19)
(-3.58076 -2.45176 -4.99251e-19)
(-3.60142 -2.86573 -2.5318e-19)
(5.26847 4.28423 7.0159e-21)
(5.39399 4.44061 1.70621e-19)
(5.50879 4.58901 2.38472e-19)
(5.61939 4.73338 -2.96206e-19)
(5.73219 4.87585 1.80935e-20)
(5.85143 5.01612 -5.54057e-19)
(5.98044 5.15307 -4.00577e-19)
(6.1217 5.28495 -4.23302e-19)
(6.27649 5.40906 6.84333e-19)
(6.44452 5.51938 1.86251e-18)
(6.62458 5.60867 -6.79169e-19)
(6.81918 5.68005 1.21599e-18)
(7.039 5.75891 -4.30206e-20)
(7.29776 5.88365 -2.28275e-18)
(7.5909 6.0656 -8.9648e-19)
(7.86371 6.24374 2.04603e-18)
(7.99766 6.28353 -1.12712e-18)
(7.8362 6.03375 1.55577e-18)
(7.24667 5.40437 -2.36124e-18)
(6.18916 4.4213 1.70485e-19)
(4.76522 3.23951 -2.27263e-19)
(3.27589 2.13236 5.89099e-18)
(2.03866 1.33483 -1.29942e-19)
(1.20639 0.953336 -3.72745e-18)
(0.7239 0.924609 -6.77223e-19)
(0.440344 1.07246 -9.67498e-19)
(0.247911 1.25672 -3.14197e-18)
(0.0796407 1.40366 3.74801e-18)
(-0.101031 1.48672 -3.09704e-18)
(-0.306102 1.50263 -1.61855e-19)
(-0.538809 1.4513 7.70752e-19)
(-0.798725 1.3284 -5.60016e-19)
(-1.08422 1.12932 3.95678e-19)
(-1.39345 0.849702 -2.03228e-19)
(-1.72373 0.487749 2.20806e-18)
(-2.06908 0.0466964 -1.99498e-18)
(-2.42215 -0.461598 1.47538e-19)
(-2.77566 -1.0239 7.70785e-20)
(-3.1165 -1.61292 1.06971e-19)
(-3.42554 -2.18645 -3.40688e-20)
(-3.68337 -2.70167 3.58836e-19)
(5.48402 4.1284 -3.05163e-19)
(5.59811 4.26334 1.36809e-19)
(5.70257 4.39027 -4.33237e-19)
(5.80207 4.51283 9.82271e-20)
(5.90154 4.63339 1.00052e-20)
(6.00457 4.75244 -1.53032e-19)
(6.11373 4.8695 -7.83194e-20)
(6.23155 4.98357 1.58376e-19)
(6.35965 5.09317 -1.45977e-18)
(6.49885 5.19628 7.86017e-19)
(6.64867 5.28932 9.3798e-20)
(6.80808 5.36693 -4.39787e-18)
(6.97753 5.42597 2.80973e-18)
(7.16223 5.47529 2.18127e-19)
(7.37432 5.54132 2.42956e-18)
(7.6252 5.65438 -2.17298e-18)
(7.9051 5.81566 3.51579e-19)
(8.15963 5.96803 1.68957e-18)
(8.28297 6.00162 -1.83222e-18)
(8.14285 5.79707 7.1388e-19)
(7.6183 5.27896 2.42072e-19)
(6.71767 4.50157 -5.26891e-19)
(5.57484 3.60258 1.97831e-19)
(4.35658 2.72351 -5.89511e-19)
(3.23502 2.00365 3.88221e-18)
(2.34862 1.55124 -5.43676e-18)
(1.73938 1.38859 4.57785e-18)
(1.34414 1.43092 1.30243e-18)
(1.07402 1.55462 -1.72416e-18)
(0.862668 1.66784 -6.96501e-19)
(0.664861 1.71901 -4.20792e-19)
(0.452152 1.68564 3.05779e-18)
(0.211153 1.56022 -2.95809e-19)
(-0.0634831 1.34365 -4.45188e-18)
(-0.373448 1.03617 9.37561e-19)
(-0.718304 0.641478 1.37039e-18)
(-1.09624 0.16469 -1.18929e-18)
(-1.50722 -0.38106 1.18935e-18)
(-1.94368 -0.975464 4.10232e-19)
(-2.39153 -1.58605 1.92226e-19)
(-2.83638 -2.17047 -8.83496e-19)
(5.67907 3.98451 2.20071e-19)
(5.78335 4.10083 -2.36643e-19)
(5.87922 4.20926 4.77073e-19)
(5.96994 4.31314 4.86834e-20)
(6.05936 4.41481 2.42982e-19)
(6.15036 4.51508 5.04185e-19)
(6.24517 4.61393 -4.52018e-19)
(6.34571 4.71086 1.04738e-19)
(6.4537 4.80501 4.16049e-19)
(6.57026 4.89499 -1.00628e-19)
(6.69586 4.9793 1.71384e-18)
(6.83048 5.05624 -2.36541e-18)
(6.97356 5.12256 3.93561e-18)
(7.12418 5.17385 -2.99748e-18)
(7.28373 5.20981 -1.37674e-18)
(7.45904 5.24128 -5.19871e-19)
(7.66238 5.29159 -8.82874e-19)
(7.90377 5.38422 9.11756e-19)
(8.17353 5.51866 1.0695e-19)
(8.42801 5.65283 6.60824e-19)
(8.57676 5.70128 -3.33118e-19)
(8.51939 5.58515 3.78942e-19)
(8.20511 5.2795 1.49886e-18)
(7.64005 4.80374 -1.90015e-18)
(6.87613 4.21286 1.0131e-18)
(5.99625 3.58307 1.14995e-18)
(5.09493 2.99481 1.98942e-19)
(4.26354 2.51785 -5.38296e-18)
(3.57068 2.19298 1.1881e-18)
(3.03684 2.01427 2.71892e-18)
(2.63483 1.93222 -1.96907e-18)
(2.3184 1.88176 4.30217e-18)
(2.048 1.80823 -4.00397e-18)
(1.79418 1.67725 5.87299e-19)
(1.5363 1.47051 1.56062e-18)
(1.25853 1.18272 -1.59659e-18)
(0.949114 0.816468 9.14137e-19)
(0.597222 0.375626 -1.05858e-19)
(0.203698 -0.135839 -1.93103e-18)
(-0.230667 -0.698425 -6.42949e-20)
(-0.72218 -1.26941 1.67201e-20)
(5.8538 3.85111 1.52565e-20)
(5.94935 3.9511 -1.30565e-19)
(6.03767 4.04353 -5.93702e-21)
(6.12105 4.13139 1.24146e-19)
(6.20249 4.21686 -1.01711e-19)
(6.28429 4.30082 -4.78117e-20)
(6.36832 4.3835 -8.0533e-19)
(6.4561 4.46468 4.59076e-19)
(6.5491 4.54387 -1.49417e-19)
(6.64844 4.62018 1.29261e-18)
(6.75482 4.69243 -3.02483e-19)
(6.86881 4.75976 -2.46184e-19)
(6.99075 4.8212 1.58195e-18)
(7.12024 4.87492 -6.45699e-19)
(7.2563 4.91782 -8.85948e-19)
(7.39846 4.94686 -7.25125e-19)
(7.54887 4.96299 -4.89952e-19)
(7.71478 4.9759 3.76751e-18)
(7.90776 5.0038 -3.91799e-18)
(8.1383 5.06577 4.89641e-22)
(8.40235 5.16439 2.32272e-18)
(8.65983 5.26894 -2.07964e-18)
(8.85489 5.33585 2.0386e-18)
(8.94346 5.32706 -9.01673e-19)
(8.89389 5.21763 -1.08381e-18)
(8.69467 5.00215 3.02556e-18)
(8.35672 4.69484 -1.14339e-18)
(7.91105 4.3246 1.73146e-18)
(7.40091 3.92687 -4.67237e-18)
(6.87082 3.53436 5.39544e-19)
(6.35847 3.16983 2.10147e-18)
(5.88943 2.8421 -2.56327e-19)
(5.47589 2.54588 -4.75887e-19)
(5.11391 2.26508 1.85242e-19)
(4.79161 1.98021 -6.50998e-20)
(4.49204 1.67484 4.59575e-19)
(4.19871 1.33891 -1.24053e-18)
(3.88988 0.967762 1.03512e-18)
(3.55501 0.565736 -5.76159e-19)
(3.19108 0.145825 5.44691e-19)
(2.75395 -0.276764 5.69649e-20)
(6.00224 3.733 3.31225e-21)
(6.09013 3.81917 -2.94276e-19)
(6.17185 3.89817 2.19788e-19)
(6.24901 3.97274 -1.58806e-19)
(6.32399 4.04484 6.98561e-20)
(6.39867 4.11533 8.42872e-19)
(6.47454 4.18451 7.33685e-20)
(6.55292 4.2524 -1.95181e-18)
(6.63491 4.3186 4.07622e-20)
(6.72163 4.38252 2.29713e-18)
(6.81375 4.44326 -2.87472e-18)
(6.91186 4.5001 7.79406e-19)
(7.01659 4.55228 6.70035e-19)
(7.12817 4.59898 -1.11947e-18)
(7.24648 4.63922 2.64799e-18)
(7.37093 4.6713 -3.65407e-19)
(7.50069 4.69261 -7.57928e-18)
(7.6356 4.70085 6.49593e-18)
(7.77813 4.6968 -2.37248e-18)
(7.935 4.6874 -1.70896e-18)
(8.11782 4.68657 2.21871e-18)
(8.32986 4.70589 2.27857e-18)
(8.56358 4.74737 -3.3621e-18)
(8.80736 4.80139 3.16085e-18)
(9.04101 4.84982 -8.51957e-19)
(9.24158 4.87147 8.2691e-19)
(9.38903 4.84771 -1.52205e-18)
(9.47009 4.76622 1.6352e-18)
(9.48035 4.62293 6.61013e-19)
(9.42396 4.42151 -3.20994e-18)
(9.31217 4.17139 3.60357e-19)
(9.15953 3.88416 -2.22242e-19)
(8.98116 3.57063 1.96303e-18)
(8.78702 3.23771 7.42232e-20)
(8.58435 2.88985 -9.46089e-20)
(8.37543 2.53047 -1.99158e-19)
(8.16067 2.1629 -7.57818e-20)
(7.93096 1.78837 -1.75323e-19)
(7.68193 1.41244 -6.19664e-19)
(7.41597 1.04504 6.03035e-20)
(7.09733 0.691396 1.0159e-19)
(6.12267 3.63263 1.30466e-19)
(6.20404 3.70736 1.92399e-19)
(6.28009 3.77531 -1.85558e-19)
(6.35196 3.83899 -8.0763e-20)
(6.42162 3.90015 1.04441e-19)
(6.49059 3.9596 6.57726e-19)
(6.56015 4.01765 -7.50243e-19)
(6.63142 4.07442 4.84356e-19)
(6.70528 4.12972 9.08623e-19)
(6.78269 4.18306 -1.74716e-18)
(6.86432 4.23373 -2.0084e-18)
(6.95068 4.28116 2.40262e-18)
(7.04238 4.32466 2.0231e-18)
(7.13973 4.36345 -2.97469e-18)
(7.24298 4.39678 3.42431e-18)
(7.35216 4.4239 2.27629e-18)
(7.46706 4.44388 -1.7759e-18)
(7.58711 4.45511 -2.87006e-18)
(7.71157 4.45532 -3.64545e-19)
(7.84032 4.44228 2.30059e-18)
(7.97536 4.41608 -4.541e-18)
(8.11785 4.38141 3.57447e-18)
(8.27037 4.34606 4.48246e-19)
(8.43909 4.31604 9.60971e-19)
(8.62631 4.29426 -1.6354e-18)
(8.82989 4.27878 8.17907e-19)
(9.04335 4.26286 -7.13745e-19)
(9.257 4.23666 -5.06295e-19)
(9.4601 4.1896 1.02507e-18)
(9.6427 4.11255 -6.52216e-19)
(9.79715 3.99948 -3.43276e-19)
(9.91864 3.84785 1.39136e-18)
(10.0051 3.65851 -1.7828e-18)
(10.0559 3.43442 9.74762e-19)
(10.0713 3.18042 9.37946e-20)
(10.0518 2.90329 -1.14878e-18)
(9.99901 2.611 8.13392e-19)
(9.9119 2.30979 1.63588e-19)
(9.79133 2.00771 -3.62244e-19)
(9.64173 1.71543 -1.07927e-19)
(9.45454 1.43806 -8.1622e-20)
(6.22149 3.54631 -8.13682e-20)
(6.29719 3.61142 1.84457e-20)
(6.36819 3.67011 -4.27715e-20)
(6.4354 3.72473 4.33021e-20)
(6.5004 3.77683 -1.53465e-19)
(6.56453 3.82712 1.58784e-19)
(6.62884 3.87595 1.87776e-19)
(6.69428 3.92341 -4.70685e-19)
(6.76168 3.96942 9.36707e-20)
(6.83169 4.01362 2.31101e-19)
(6.90501 4.05544 -7.74096e-19)
(6.98212 4.09437 1.19943e-18)
(7.0635 4.12988 -2.57216e-18)
(7.1495 4.16128 1.5836e-18)
(7.24034 4.18782 9.48468e-19)
(7.33616 4.20875 6.41895e-19)
(7.43705 4.22335 2.70862e-19)
(7.54296 4.23088 -4.59567e-19)
(7.65364 4.23034 -1.36057e-18)
(7.76855 4.22021 2.67905e-18)
(7.8868 4.1984 1.24586e-19)
(8.00449 4.16388 -2.92786e-18)
(8.11922 4.11795 1.31873e-18)
(8.23369 4.06222 1.48807e-18)
(8.35084 3.99932 -3.02308e-18)
(8.47357 3.93179 2.73604e-18)
(8.60387 3.86117 -2.33212e-18)
(8.74187 3.78737 9.49817e-20)
(8.8857 3.70866 7.22587e-19)
(9.03156 3.62202 1.91908e-18)
(9.1743 3.52391 -2.53519e-18)
(9.30811 3.41108 7.25585e-19)
(9.42724 3.28138 1.34889e-18)
(9.52699 3.13413 -1.07242e-18)
(9.60317 2.97019 -1.27105e-19)
(9.65263 2.79242 -3.99922e-20)
(9.67332 2.60515 2.06465e-19)
(9.66532 2.41251 -1.40721e-19)
(9.6287 2.21973 9.08837e-20)
(9.56464 2.03336 -1.59293e-19)
(9.4778 1.85777 -9.09687e-21)
(6.30358 3.47093 2.27266e-20)
(6.37412 3.52783 2.39614e-19)
(6.44054 3.57869 -9.99288e-20)
(6.50347 3.62568 -2.55428e-20)
(6.56427 3.67015 6.16056e-20)
(6.62407 3.71276 -1.2747e-19)
(6.68379 3.75383 -4.17385e-19)
(6.74424 3.79349 2.68365e-19)
(6.80613 3.83164 6.59117e-19)
(6.86997 3.86807 3.24112e-20)
(6.93637 3.90226 2.06011e-19)
(7.00576 3.93377 8.30157e-19)
(7.07857 3.96212 -5.92158e-19)
(7.15505 3.98674 -1.13015e-18)
(7.23542 4.007 1.00283e-19)
(7.31981 4.0222 -3.38995e-19)
(7.40826 4.03162 8.67472e-19)
(7.50079 4.0345 -8.2236e-19)
(7.59736 4.0301 -5.65145e-19)
(7.69783 4.01757 -1.5864e-18)
(7.80177 3.99587 2.04873e-18)
(7.9054 3.96438 9.92323e-19)
(8.00508 3.92342 -1.06546e-18)
(8.10059 3.8725 -1.03977e-18)
(8.19159 3.8117 -6.01821e-19)
(8.27827 3.74147 2.09755e-18)
(8.3612 3.66262 1.28725e-18)
(8.44097 3.57607 1.16789e-18)
(8.51792 3.48272 -2.47446e-18)
(8.59187 3.38322 8.04994e-19)
(8.66194 3.27804 -9.89382e-19)
(8.72666 3.1674 5.49331e-19)
(8.78395 3.05161 -8.64388e-19)
(8.83182 2.93101 1.34877e-18)
(8.86807 2.80637 -6.87983e-19)
(8.89082 2.67913 2.83629e-19)
(8.89834 2.55117 -5.97304e-19)
(8.89059 2.42408 4.80785e-19)
(8.86712 2.30009 -3.65748e-19)
(8.82813 2.18176 -9.97458e-21)
(8.77692 2.07194 6.17103e-20)
(6.37248 3.40436 -5.80809e-20)
(6.43828 3.45417 3.01067e-22)
(6.50045 3.4983 -5.53493e-20)
(6.55941 3.53877 -1.06582e-19)
(6.61634 3.57674 -1.43812e-19)
(6.67218 3.61284 2.45869e-20)
(6.72778 3.64733 3.68747e-19)
(6.78378 3.68036 -5.93711e-19)
(6.84081 3.71185 2.72444e-18)
(6.89933 3.74163 -3.74886e-18)
(6.95974 3.76929 1.83639e-18)
(7.02249 3.79443 5.00643e-19)
(7.08791 3.81659 -6.64108e-19)
(7.1562 3.83531 -2.57946e-18)
(7.22751 3.85002 6.6866e-19)
(7.30195 3.86013 -1.44648e-18)
(7.3795 3.86501 4.65871e-18)
(7.46014 3.86396 -1.28473e-18)
(7.54374 3.85624 -2.82073e-19)
(7.63016 3.84105 8.84801e-19)
(7.71908 3.81762 -4.3012e-18)
(7.80757 3.78591 2.60567e-18)
(7.89274 3.74673 1.55714e-18)
(7.97424 3.69993 -1.45593e-18)
(8.05121 3.64562 -3.74118e-19)
(8.12291 3.58387 1.30682e-18)
(8.18867 3.51492 -2.12124e-18)
(8.24798 3.43909 1.51585e-18)
(8.30044 3.35693 1.30695e-18)
(8.34573 3.26915 -9.5483e-19)
(8.38357 3.17665 -1.65175e-18)
(8.4137 3.08039 1.57699e-19)
(8.4358 2.98149 8.37548e-19)
(8.44961 2.88095 3.72402e-19)
(8.45486 2.7799 -9.61811e-19)
(8.45134 2.67969 9.97299e-19)
(8.43891 2.58166 -6.34921e-19)
(8.41792 2.48659 2.76055e-19)
(8.38866 2.39568 7.85383e-20)
(8.35172 2.31006 -2.33946e-19)
(8.30854 2.23154 -2.87252e-20)
(6.43074 3.34501 -1.74619e-19)
(6.49218 3.38865 1.77765e-19)
(6.55035 3.42697 6.34086e-20)
(6.60559 3.46183 -1.27276e-19)
(6.65888 3.49425 4.77871e-19)
(6.71105 3.52476 -8.8629e-19)
(6.76283 3.55366 1.21623e-18)
(6.81479 3.58106 -3.3073e-18)
(6.86744 3.6069 3.88989e-18)
(6.92119 3.63101 -1.88152e-18)
(6.97631 3.65312 -2.67626e-18)
(7.03321 3.67283 8.06752e-19)
(7.09215 3.68973 3.31461e-18)
(7.15327 3.70341 1.6762e-18)
(7.21666 3.7134 -3.00892e-18)
(7.28236 3.71919 2.21923e-18)
(7.35035 3.72025 -1.72591e-18)
(7.42052 3.71598 -4.04834e-19)
(7.49271 3.70576 4.92925e-19)
(7.5667 3.6889 -2.25434e-18)
(7.64208 3.66471 5.63761e-18)
(7.71639 3.63333 -2.58016e-18)
(7.78734 3.59566 2.17319e-19)
(7.85471 3.55182 6.61005e-19)
(7.9179 3.50216 -6.28926e-19)
(7.97635 3.44709 3.27888e-19)