/*--------------------------------*- C++ -*----------------------------------*\
| =========                 |                                                 |
| \\      /  F ield         | OpenFOAM: The Open Source CFD Toolbox           |
|  \\    /   O peration     | Version:  2312                                  |
|   \\  /    A nd           | Website:  www.openfoam.com                      |
|    \\/     M anipulation  |                                                 |
\*---------------------------------------------------------------------------*/
FoamFile
{
    version     2.0;
    format      ascii;
    arch        "LSB;label=32;scalar=64";
    class       volScalarField;
    location    "1000";
    object      div(phi);
}
// * * * * * * * * * * * * * * * * * * * * * * * * * * * * * * * * * * * * * //

dimensions      [0 0 -1 0 0 0 0];

internalField   nonuniform List<scalar> 
11040
(
-0.00016368
-0.000115384
-0.000351545
-0.000321074
-0.000379291
-0.000291114
-0.000223941
-0.000349693
-0.000329026
-0.000613578
-0.000128587
-0.00061884
-0.000149249
-0.0006521
-0.000357942
-0.000512656
-0.000256347
-0.000401412
-0.000473399
-0.000583026
-0.000734074
-0.000689219
-0.000516011
-0.000479489
-0.000169949
-0.000354116
-1.13925e-05
-0.000240935
-8.68447e-05
-0.000141908
-0.000108457
-0.000200385
-0.000201682
3.30742e-05
0.000280825
-0.000370735
-0.000242819
0.000170352
-6.13734e-05
-0.00243131
-0.00238362
-4.33001e-05
-6.13824e-05
-0.000140787
-0.000289447
-0.000465083
-0.000529278
-0.000523061
-0.00051991
-0.000426055
-0.000471992
-0.000376977
-0.000574782
-0.000472594
-0.000711712
-0.000572347
-0.00066632
-0.000654646
-0.00070512
-0.000776244
-0.000696654
-0.000687945
-0.000717488
-0.000663635
-0.000724336
-0.000486623
-0.000476499
-0.000211026
-0.000236757
-7.71395e-05
-6.02124e-05
-9.50945e-05
-3.50851e-05
-0.00015996
-0.000135505
-0.000230558
-0.000358
-0.000509929
-0.000526768
-0.000754614
-0.00132169
-0.00142579
-6.04907e-05
-1.96701e-05
-3.19209e-05
-1.34344e-05
-4.16167e-05
-0.000124917
-0.000149327
-0.000112364
-9.89794e-05
-0.000104988
-2.69657e-05
-0.000128732
-8.89463e-06
-9.82118e-05
-3.37149e-05
-7.25247e-05
3.70476e-05
-2.17848e-05
-8.5061e-05
-9.77187e-05
-0.000108384
-9.5832e-05
-2.0878e-05
5.48977e-06
5.22119e-05
-2.0541e-05
4.84183e-05
-2.60226e-05
-1.15579e-05
-1.97514e-05
1.48521e-05
-4.47613e-05
-5.06001e-05
9.78774e-05
0.00012629
-0.000139309
-8.05835e-05
0.000155123
0.000129406
-0.000306139
-0.000330064
-4.36801e-06
4.83949e-06
-1.8393e-06
3.97982e-06
-4.25819e-05
-8.05997e-05
-0.000164193
-0.000214693
-0.000263633
-0.000253912
-0.00024595
-0.000222678
-0.000214804
-0.0002485
-0.000265091
-0.000293541
-0.00030986
-0.000369607
-0.000376667
-0.000347775
-0.000327866
-0.000335823
-0.000312181
-0.000317416
-0.00023473
-0.000210474
-0.000127036
-0.000110812
-6.52255e-05
-5.82396e-05
-7.60652e-05
-0.000105947
-0.000150585
-0.000165369
-0.000193948
-0.00024553
-0.000242998
-0.000271955
-0.000350559
-0.000544782
-0.000548856
3.41198e-05
-1.42347e-05
2.32244e-06
-2.44342e-05
-1.61821e-05
-3.03862e-05
-3.48084e-05
-6.55954e-05
-0.000106436
-0.000118324
-7.53417e-05
-6.68961e-05
-2.10251e-05
-3.94465e-05
-4.51184e-05
-6.55823e-05
-3.29588e-05
-7.40945e-05
-6.96337e-05
-6.33632e-05
-4.27863e-05
-1.28901e-05
2.73879e-06
2.16593e-05
1.72895e-05
7.30666e-06
7.11776e-06
-2.28257e-06
-9.94186e-06
-9.46981e-06
1.08096e-05
-3.19062e-05
-3.51233e-05
2.42852e-05
2.97933e-05
-8.78505e-05
-7.91567e-05
1.09323e-07
-1.68616e-05
-0.000112255
-0.000138306
-6.68418e-05
2.41414e-05
-2.60139e-05
3.11525e-05
1.94273e-06
-4.68448e-06
-1.8432e-06
-2.18537e-05
-4.04491e-05
-7.91249e-05
-8.51352e-05
-0.000110861
-0.00011901
-0.00013447
-0.000143087
-0.000150492
-0.000170861
-0.000194274
-0.000202794
-0.000181765
-0.000171402
-0.000160057
-0.000156232
-0.000142226
-0.000120774
-9.98442e-05
-8.39202e-05
-6.70527e-05
-6.3554e-05
-5.45508e-05
-7.05792e-05
-8.85039e-05
-9.98511e-05
-9.20119e-05
-0.000118183
-0.000135877
-0.000140165
-0.000120337
-0.0001643
-0.000178849
-0.000201328
3.32824e-05
-1.71097e-05
6.33631e-05
9.4762e-06
-8.96315e-06
-8.32719e-06
-2.13037e-05
-1.6592e-05
-3.37496e-05
-3.0698e-05
-6.47203e-05
-7.46511e-05
-7.94118e-05
-6.71171e-05
-7.44115e-05
-7.47844e-05
-8.30367e-05
-9.41499e-05
-8.17204e-05
-7.26038e-05
-4.13877e-05
-3.08785e-05
-2.56366e-05
-2.10684e-05
-1.68102e-05
-2.35399e-05
-2.11909e-05
-2.62807e-05
-2.77127e-05
-2.89927e-05
-2.58428e-05
-4.49602e-05
-4.71209e-05
-3.10831e-05
-3.06893e-05
-7.56665e-05
-7.38087e-05
-6.74565e-05
-5.01797e-05
-8.2167e-05
-5.92564e-05
-1.96705e-05
3.90611e-05
4.36997e-05
-2.34219e-05
-1.52304e-06
-4.02286e-05
-2.85977e-06
-1.85613e-05
8.15042e-06
-1.89036e-05
9.86455e-06
-7.58244e-06
-3.15001e-05
-4.87944e-05
-6.39753e-05
-9.51575e-05
-9.91704e-05
-0.000111349
-0.000106095
-9.09034e-05
-7.81963e-05
-7.71191e-05
-6.94123e-05
-6.66586e-05
-5.93278e-05
-5.26563e-05
-4.49238e-05
-4.42759e-05
-3.96989e-05
-3.82907e-05
-4.06696e-05
-4.90073e-05
-4.05488e-05
-3.80286e-05
-4.57745e-05
-5.99479e-05
-4.99023e-05
-4.0663e-05
-3.6633e-05
-3.09634e-05
-2.6545e-05
-1.24695e-05
7.76178e-05
-3.65915e-05
3.04069e-05
-6.01896e-05
9.51895e-06
-2.0438e-05
3.01365e-05
-9.73773e-06
2.84328e-05
7.74581e-06
-1.47582e-05
-2.25207e-05
-3.95652e-05
-7.01687e-05
-7.88907e-05
-9.8092e-05
-8.61679e-05
-7.23441e-05
-5.02006e-05
-4.24356e-05
-4.05042e-05
-4.65247e-05
-4.19357e-05
-4.05472e-05
-3.58211e-05
-3.87758e-05
-3.58993e-05
-3.96256e-05
-3.65388e-05
-4.19687e-05
-4.17523e-05
-4.52713e-05
-3.52189e-05
-4.49849e-05
-4.39659e-05
-5.06567e-05
-3.28848e-05
-3.16513e-05
-1.42839e-05
-1.24901e-05
4.39456e-05
-1.9625e-05
3.68602e-05
-5.02549e-05
5.31554e-06
-2.32743e-05
2.33844e-05
-3.63396e-06
2.03995e-05
1.12663e-05
-1.27409e-05
-1.01321e-05
-1.90585e-05
-2.57912e-05
-9.26418e-06
-3.26465e-05
-1.91243e-05
-2.91308e-05
-4.16608e-05
-3.70883e-05
-3.62341e-05
-4.09054e-05
-3.79246e-05
-3.78498e-05
-3.64496e-05
-3.64888e-05
-1.7865e-05
-3.32112e-05
-1.94317e-05
-3.06246e-05
-2.31234e-05
-3.37187e-05
-1.98606e-05
-2.8935e-05
-2.04315e-05
-3.7331e-05
-1.58013e-05
-2.58881e-05
1.42823e-06
-9.78096e-06
1.92805e-05
5.79316e-06
7.76796e-06
-1.11307e-05
-1.17621e-05
-1.54781e-05
-5.26746e-06
-2.08824e-06
-1.91265e-06
3.44942e-06
-1.14572e-05
-9.80261e-06
-1.02618e-05
-1.8899e-05
1.21838e-05
-4.4127e-06
1.349e-05
4.38358e-06
-2.14564e-05
-2.4609e-05
-3.60427e-05
-4.01228e-05
-3.9508e-05
-4.36383e-05
-4.23521e-05
-4.03016e-05
-2.16487e-05
-3.15821e-05
-9.04297e-06
-2.36173e-05
-9.00467e-06
-2.12543e-05
-8.13182e-06
-1.97996e-05
-2.81404e-06
-2.27097e-05
2.69291e-06
-2.36704e-05
1.6478e-05
-1.90639e-05
3.06467e-05
-1.40374e-05
-1.29188e-06
-1.09492e-06
-1.00395e-05
-1.13875e-05
-1.44884e-05
-1.23123e-05
-1.10805e-05
-1.24325e-05
-8.52146e-06
-1.53011e-05
-6.66706e-06
-1.76772e-05
1.09387e-05
1.56251e-06
1.14369e-05
1.02719e-05
-7.91091e-06
-1.9577e-06
-1.20263e-05
-1.3191e-05
-1.00902e-05
-2.41498e-05
-2.53488e-05
-2.89262e-05
-3.43732e-05
-2.8894e-05
-1.96434e-05
-1.88712e-05
-1.42214e-05
-1.28411e-05
-1.20225e-05
-1.28667e-05
-7.1073e-06
-1.26988e-05
-6.27731e-07
-1.83329e-05
9.39697e-06
-2.02051e-05
2.09653e-05
-2.44717e-05
2.80402e-05
-5.5624e-06
-2.41271e-06
-9.85306e-06
-6.32746e-06
-1.33838e-05
-9.40881e-06
-1.32513e-05
-1.07608e-05
-1.18312e-05
-1.12936e-05
-1.06516e-05
-3.50592e-06
9.29895e-07
1.04019e-06
6.56751e-06
-4.15023e-06
2.22501e-06
-1.04547e-06
-1.24833e-06
9.04245e-06
1.45437e-06
3.29804e-06
-3.90071e-06
-2.58895e-05
-1.6435e-05
-3.91255e-05
-1.71031e-05
-3.53371e-05
-1.04704e-05
-3.07752e-05
-8.75477e-06
-2.81373e-05
-4.78119e-06
-2.54198e-05
-4.42533e-06
-2.21957e-05
-1.08356e-06
-1.86493e-05
-1.34888e-07
-1.35506e-05
1.13109e-06
-5.64948e-06
-6.99674e-07
-8.97308e-06
-2.35172e-06
-1.18692e-05
-4.21283e-06
-1.25638e-05
-5.60631e-06
-1.13613e-05
-7.29378e-06
-9.49956e-06
-6.453e-06
-4.87747e-06
-3.67521e-06
-2.31751e-06
-2.29547e-06
2.37164e-07
-1.5781e-06
7.66047e-06
4.2235e-06
4.88309e-06
2.83005e-06
-7.22301e-06
-3.61361e-06
-3.05441e-05
-1.47537e-05
-4.22847e-05
-1.50445e-05
-4.33576e-05
-1.27864e-05
-4.39853e-05
-5.43561e-06
-4.46572e-05
2.81808e-06
-4.7446e-05
1.49674e-05
-5.20526e-05
2.70125e-05
-5.33695e-05
3.40315e-05
-4.30093e-05
-4.73827e-06
2.52041e-07
-7.80987e-06
-4.93221e-07
-1.05527e-05
-1.11825e-06
-1.1492e-05
-1.67972e-06
-1.05688e-05
-2.88145e-06
-8.83664e-06
-3.4015e-06
-6.22389e-06
-3.6828e-06
-4.79211e-06
-4.51213e-06
-3.35887e-06
-9.64407e-07
5.53416e-07
-1.47049e-06
-9.81275e-07
-4.6076e-06
-3.77968e-06
-1.30184e-05
-1.11188e-05
-2.13397e-05
-1.67132e-05
-2.62873e-05
-1.89997e-05
-2.82996e-05
-1.73116e-05
-2.88644e-05
-1.25082e-05
-2.9007e-05
-5.26502e-06
-2.84898e-05
5.3872e-06
-2.46526e-05
1.1278e-05
-1.73767e-05
1.9335e-05
-4.05158e-06
7.96424e-07
-6.83397e-06
4.63356e-07
-9.18274e-06
8.31944e-07
-1.02193e-05
1.18377e-06
-9.61395e-06
1.2455e-06
-7.7181e-06
5.12673e-07
-5.88514e-06
-8.44037e-07
-5.34499e-06
-3.46506e-06
-5.47826e-06
-4.73772e-06
-5.1767e-06
-5.4738e-06
-5.71842e-06
-7.04052e-06
-7.00034e-06
-9.55989e-06
-8.77906e-06
-1.26461e-05
-1.01161e-05
-1.54065e-05
-1.11687e-05
-1.86337e-05
-1.08375e-05
-1.99154e-05
-7.49184e-06
-2.10357e-05
-6.6448e-07
-2.00102e-05
8.0665e-06
-2.0784e-05
1.80695e-05
-1.90975e-05
1.97064e-05
-3.64554e-06
1.04364e-06
-5.85366e-06
1.15375e-06
-7.58613e-06
1.85222e-06
-8.55495e-06
2.6626e-06
-8.31573e-06
3.32279e-06
-7.03065e-06
3.01188e-06
-5.86761e-06
1.52827e-06
-5.38354e-06
-8.95237e-07
-5.64732e-06
-3.25014e-06
-6.097e-06
-4.5178e-06
-6.60822e-06
-5.6561e-06
-7.41687e-06
-6.81767e-06
-7.92823e-06
-7.93294e-06
-8.30878e-06
-8.98275e-06
-8.42342e-06
-1.05376e-05
-8.01675e-06
-1.22445e-05
-6.13582e-06
-1.4154e-05
-2.10647e-06
-1.7618e-05
3.63977e-06
-2.13471e-05
8.01492e-06
-2.13408e-05
1.38671e-05
-2.64461e-06
3.1878e-07
-4.43522e-06
4.18426e-07
-5.78634e-06
9.50819e-07
-6.70503e-06
1.69298e-06
-6.80045e-06
2.49017e-06
-6.09967e-06
2.53611e-06
-5.31743e-06
1.72531e-06
-4.82452e-06
1.35877e-07
-4.72156e-06
-1.68875e-06
-4.99515e-06
-2.82694e-06
-5.55982e-06
-3.73161e-06
-6.69339e-06
-4.42724e-06
-7.62186e-06
-5.00444e-06
-8.19745e-06
-5.65708e-06
-8.35695e-06
-6.54783e-06
-7.78878e-06
-7.62178e-06
-5.93923e-06
-8.91725e-06
-2.72808e-06
-1.00718e-05
1.3797e-06
-1.12021e-05
7.43606e-06
-1.37699e-05
9.20481e-06
-2.60936e-06
3.79086e-07
-3.29043e-06
3.97911e-07
-4.09468e-06
8.22164e-07
-4.68835e-06
1.49978e-06
-4.90759e-06
2.12043e-06
-4.63953e-06
2.24578e-06
-4.20814e-06
1.81804e-06
-3.87421e-06
9.55739e-07
-3.67841e-06
-1.66772e-07
-3.75848e-06
-8.60878e-07
-4.24078e-06
-1.50831e-06
-5.33151e-06
-2.05902e-06
-6.4938e-06
-2.45306e-06
-7.54694e-06
-2.89605e-06
-8.36155e-06
-3.71511e-06
-8.7448e-06
-4.8747e-06
-8.52776e-06
-6.41288e-06
-7.58063e-06
-8.82536e-06
-5.84815e-06
-1.21684e-05
-4.02289e-06
-1.63111e-05
-1.0098e-06
8.25946e-07
-1.95987e-06
-3.42795e-08
-1.69798e-06
-1.07262e-06
-9.97774e-07
-1.80881e-06
-3.94508e-07
-2.2781e-06
2.68808e-07
-2.37936e-06
5.85906e-07
-2.16802e-06
6.65274e-07
-1.83836e-06
2.96257e-07
-1.55215e-06
-2.63682e-07
-1.49802e-06
-7.40066e-07
-2.103e-06
-8.55667e-07
-3.31733e-06
-1.05452e-06
-4.66837e-06
-1.18551e-06
-6.09267e-06
-1.33187e-06
-7.46093e-06
-1.48836e-06
-8.61841e-06
-1.7942e-06
-9.20269e-06
-2.51999e-06
-8.96615e-06
-3.70808e-06
-7.60854e-06
-5.43085e-06
-4.26443e-06
-9.49703e-06
-7.43138e-07
-3.74243e-06
3.13803e-06
-4.02886e-06
3.37353e-06
-5.18633e-06
3.93135e-06
-6.19253e-06
4.69318e-06
-6.87823e-06
5.54539e-06
-7.47341e-06
6.06527e-06
-7.33126e-06
6.17171e-06
-7.21214e-06
5.94851e-06
-6.78287e-06
5.3953e-06
-6.66761e-06
4.81337e-06
-6.56968e-06
4.53783e-06
-7.24304e-06
4.43675e-06
-7.68622e-06
4.35985e-06
-8.25092e-06
4.28403e-06
-8.59029e-06
3.8874e-06
-8.2822e-06
3.15848e-06
-8.44269e-06
2.175e-06
-7.84274e-06
7.36067e-07
-5.82985e-06
-1.47886e-06
-2.86996e-06
-6.08147e-06
1.81438e-07
4.16775e-07
-4.19688e-07
7.83693e-07
-1.41252e-06
3.77056e-07
-2.02852e-06
3.26478e-07
-2.6742e-06
4.90187e-07
-3.15115e-06
6.67372e-07
-3.57181e-06
7.58348e-07
-3.62596e-06
6.76776e-07
-3.76706e-06
4.4709e-07
-3.74616e-06
5.015e-08
-4.00019e-06
-2.18275e-07
-4.61796e-06
-4.21624e-07
-5.53667e-06
-6.67981e-07
-6.41972e-06
-9.91599e-07
-7.71613e-06
-1.75428e-06
-8.45401e-06
-3.46151e-06
-1.10834e-05
-5.13102e-06
-1.26986e-05
-7.48e-06
-1.2644e-05
-1.06625e-05
-1.39505e-05
-1.2618e-05
-1.19657e-05
-1.45108e-05
-2.30721e-06
1.44962e-06
-8.31387e-07
4.2326e-07
-1.04677e-06
-2.91606e-07
-1.00884e-06
-9.09644e-07
-7.97532e-07
-1.46832e-06
-6.93456e-07
-1.89362e-06
-4.79427e-07
-2.16244e-06
-5.53413e-07
-2.35642e-06
-6.61741e-07
-2.51945e-06
-1.00507e-06
-2.86394e-06
-1.01109e-06
-3.54538e-06
-1.24539e-06
-4.42948e-06
-1.52781e-06
-5.38891e-06
-2.3708e-06
-6.64308e-06
-3.60644e-06
-8.69112e-06
-4.71995e-06
-9.84578e-06
-5.45018e-06
-1.00017e-05
-4.97277e-06
-9.7629e-06
-3.38382e-06
-5.65889e-06
-2.25758e-06
-3.06209e-06
-2.73787e-06
1.40296e-06
-1.28834e-06
1.77907e-06
-1.88739e-06
1.66994e-06
-2.70921e-06
1.85807e-06
-3.43734e-06
2.22444e-06
-3.97177e-06
2.63828e-06
-4.47621e-06
2.91317e-06
-4.58235e-06
2.9304e-06
-4.72264e-06
2.7729e-06
-4.62998e-06
2.47086e-06
-4.58154e-06
2.23471e-06
-4.42301e-06
2.17323e-06
-4.12069e-06
2.00435e-06
-3.66918e-06
1.48016e-06
-2.91253e-06
7.61424e-07
-2.28549e-06
3.19953e-08
-1.56775e-06
-2.17891e-07
-7.6706e-07
-5.48432e-08
5.47164e-07
1.12095e-08
8.35976e-07
5.15822e-07
2.09168e-06
1.75821e-06
-1.52826e-06
1.26645e-06
-1.16906e-07
4.17307e-07
-7.59956e-07
7.48441e-08
-1.14219e-06
-8.76122e-09
-1.54954e-06
5.36884e-08
-1.85422e-06
1.40053e-07
-2.17484e-06
1.50133e-07
-2.37502e-06
2.42826e-08
-2.63269e-06
-1.97369e-07
-2.75729e-06
-4.51661e-07
-2.99736e-06
-6.1714e-07
-3.21389e-06
-8.14149e-07
-3.49378e-06
-1.2765e-06
-3.14283e-06
-2.42627e-06
-3.75812e-06
-3.29706e-06
-3.77466e-06
-4.04047e-06
-3.23151e-06
-3.90475e-06
-3.34082e-06
-3.14807e-06
-1.83496e-06
-2.13681e-06
-1.13193e-06
-2.09986e-06
8.08956e-07
7.1439e-07
-5.86132e-07
8.1688e-07
-5.00167e-07
2.07129e-07
-5.91609e-07
-1.80478e-07
-6.46991e-07
-5.17149e-07
-4.57937e-07
-8.19844e-07
-4.12299e-07
-1.10907e-06
-2.87129e-07
-1.37852e-06
-4.26682e-07
-1.63625e-06
-5.93687e-07
-1.89217e-06
-7.8862e-07
-2.19925e-06
-1.09104e-06
-2.62351e-06
-1.64512e-06
-2.92089e-06
-2.43926e-06
-3.49376e-06
-2.92032e-06
-2.91979e-06
-3.22492e-06
-2.1306e-06
-2.5397e-06
-7.72102e-07
-1.4779e-06
1.58251e-06
-3.88235e-07
2.92417e-06
-2.24913e-08
3.95374e-06
3.74207e-07
3.94504e-06
-1.08495e-06
1.31864e-06
-7.33459e-07
8.83793e-07
-8.8637e-07
8.30124e-07
-1.31683e-06
9.25296e-07
-1.62086e-06
1.11483e-06
-1.88796e-06
1.31551e-06
-2.0531e-06
1.39368e-06
-2.12024e-06
1.30748e-06
-2.16677e-06
1.04128e-06
-1.99463e-06
6.13369e-07
-2.00043e-06
2.09528e-07
-1.80344e-06
-3.77577e-07
-1.30534e-06
-8.89258e-07
-4.96086e-07
-1.38551e-06
4.27851e-07
-1.4927e-06
1.74912e-06
-1.43016e-06
2.80976e-06
-1.37557e-06
3.44782e-06
-1.67626e-06
3.81627e-06
-2.10698e-06
4.00938e-06
-2.37469e-06
4.56113e-06
6.94936e-07
-7.49315e-07
7.50343e-07
-8.73217e-08
2.84667e-07
-2.41776e-07
1.45035e-07
-4.54266e-07
1.07753e-07
-6.08202e-07
1.32492e-07
-8.15276e-07
1.35334e-07
-9.5246e-07
5.94473e-08
-1.22593e-06
-1.89803e-07
-1.35443e-06
-7.52261e-07
-1.79547e-06
-1.08122e-06
-2.20878e-06
-1.93738e-06
-2.38679e-06
-3.08417e-06
-3.31637e-06
-3.97747e-06
-3.33774e-06
-4.81586e-06
-3.06625e-06
-5.12393e-06
-2.93394e-06
-5.06377e-06
-2.04397e-06
-4.65931e-06
-1.20533e-06
-4.28985e-06
-6.46878e-08
-3.62423e-06
8.77669e-07
-3.31738e-06
-5.08819e-07
9.25051e-07
-4.56012e-07
4.15631e-07
-1.49674e-07
1.77253e-07
-1.09946e-07
3.52331e-08
-4.62394e-08
-9.86331e-08
3.15456e-09
-2.47192e-07
8.79217e-08
-4.09537e-07
-7.04177e-08
-6.33287e-07
-3.21489e-07
-1.05134e-06
-4.76189e-07
-1.11625e-06
-1.10241e-06
-1.45412e-06
-1.68779e-06
-2.08623e-06
-2.28708e-06
-1.73804e-06
-2.89196e-06
-1.86737e-06
-3.04368e-06
-1.43479e-06
-2.86592e-06
-5.20731e-07
-2.56695e-06
2.15251e-07
-2.51626e-06
7.18289e-07
-2.59052e-06
1.23033e-06
-2.50603e-06
1.82344e-06
-2.51337e-06
4.96946e-07
-8.83009e-07
6.91894e-07
-4.93255e-07
3.58986e-07
-3.0967e-07
4.04476e-07
-3.74224e-07
4.75267e-07
-4.18975e-07
5.38677e-07
-3.84896e-07
5.29289e-07
-4.8919e-07
4.56846e-07
-5.02873e-07
1.56784e-07
-3.77233e-07
-2.97342e-07
-7.02636e-07
-6.42776e-07
-5.72666e-07
-1.05708e-06
-1.96656e-07
-1.24949e-06
-1.28594e-08
-1.21284e-06
8.70664e-07
-1.03501e-06
1.7131e-06
-8.95922e-07
2.0967e-06
-1.05961e-06
2.2783e-06
-1.42902e-06
2.28519e-06
-1.90115e-06
2.30557e-06
-2.09835e-06
2.43373e-06
-2.19144e-06
-3.77528e-07
6.96818e-07
-6.26833e-07
2.96265e-07
-1.45617e-07
6.32283e-08
-9.93475e-08
6.8929e-08
-1.3179e-07
7.81644e-08
-1.43775e-07
1.98418e-08
-2.5702e-07
4.72393e-08
-3.6901e-07
-2.18102e-07
-4.06174e-07
-6.13805e-07
-8.6855e-07
-7.31483e-07
-7.69829e-07
-9.60385e-07
-5.7412e-07
-1.00671e-06
-3.90882e-07
-7.99774e-07
4.27591e-07
-5.88762e-07
1.0459e-06
-5.56069e-07
1.37159e-06
-5.85846e-07
1.63071e-06
-7.16089e-07
1.76414e-06
-8.96036e-07
1.93752e-06
-1.06783e-06
2.01125e-06
-1.04315e-06
2.37545e-06
3.63806e-07
-6.33094e-07
4.9565e-07
-4.3148e-07
-8.74727e-09
-1.58356e-07
-8.40042e-08
-4.87965e-08
-9.26115e-08
2.41186e-09
-1.42862e-07
6.77839e-08
-1.23803e-07
-1.02749e-07
-2.17457e-07
-1.7733e-07
-4.48912e-07
-2.66826e-07
-2.43764e-07
-5.78605e-07
-3.15693e-07
-6.39684e-07
-3.16118e-07
-7.67413e-07
1.42257e-07
-9.45089e-07
1.89786e-07
-1.17936e-06
1.58709e-07
-1.35195e-06
3.64119e-07
-1.40674e-06
5.79689e-07
-1.41077e-06
8.88365e-07
-1.40484e-06
1.10769e-06
-1.38184e-06
1.3741e-06
-1.27496e-06
1.66088e-06
-2.27788e-07
5.19941e-07
-6.20382e-07
2.25287e-07
-3.98759e-07
-8.44449e-08
-1.47306e-07
-3.34991e-08
-4.8273e-08
-3.58377e-08
5.32438e-08
-9.02381e-08
6.17583e-08
-1.23114e-07
1.7935e-07
-2.70464e-07
3.25552e-07
-3.77327e-07
2.49691e-07
-4.31471e-07
5.85041e-07
-4.59905e-07
1.02379e-06
-4.39582e-07
1.12057e-06
-4.8675e-07
1.57912e-06
-5.00522e-07
1.79205e-06
-6.27121e-07
1.82288e-06
-7.34071e-07
1.86632e-06
-8.41135e-07
1.93465e-06
-9.01334e-07
2.01598e-06
-9.33051e-07
2.15567e-06
-7.03191e-07
2.22453e-06
2.72414e-07
-4.38989e-07
4.21966e-07
-4.81432e-07
1.11718e-08
-1.16552e-07
-3.02575e-08
-3.42001e-08
-6.6761e-09
6.26147e-09
-6.49365e-10
2.37117e-08
1.66688e-08
1.01691e-07
-7.17894e-08
1.74078e-07
-5.8146e-08
1.5392e-07
-3.2904e-09
5.51889e-07
-6.30714e-08
7.02444e-07
-3.48831e-08
8.15246e-07
-1.33195e-07
1.21919e-06
-2.79511e-07
1.10729e-06
-5.66183e-07
1.05723e-06
-7.26582e-07
1.075e-06
-8.19185e-07
1.13688e-06
-8.52226e-07
1.23478e-06
-8.57803e-07
1.37357e-06
-6.94099e-07
1.45018e-06
-6.86613e-07
-1.09614e-07
4.06033e-07
-4.04688e-07
2.65895e-07
-1.46026e-07
-3.14753e-08
-3.35525e-08
2.83968e-08
5.94207e-09
5.24699e-08
1.51517e-08
1.08463e-07
-2.1935e-08
1.42663e-07
5.40738e-08
2.52873e-07
1.8178e-08
4.86993e-07
8.00289e-09
5.16219e-07
1.44393e-07
9.18181e-07
1.33616e-07
1.21576e-06
1.65916e-07
1.37418e-06
9.91936e-08
1.58924e-06
2.3118e-08
1.6541e-06
-8.05992e-08
1.7387e-06
-1.57988e-07
1.73164e-06
-2.28295e-07
1.79728e-06
-2.52585e-07
1.83484e-06
-1.18351e-07
1.88909e-06
-1.18934e-07
2.21113e-07
-2.55813e-07
3.72505e-07
-2.36817e-07
1.59002e-08
-7.78358e-08
4.03399e-08
-6.18438e-08
1.05437e-07
-2.02027e-08
1.07911e-07
2.70247e-08
1.21313e-07
1.4538e-07
4.88488e-08
2.54028e-07
6.00657e-08
3.23292e-07
9.99038e-08
6.39137e-07
7.93016e-08
7.8669e-07
1.47826e-07
1.04378e-06
1.39878e-07
1.34902e-06
1.63172e-07
1.51684e-06
7.8345e-08
1.65205e-06
3.89948e-08
1.69007e-06
-3.30314e-08
1.7732e-06
-7.01256e-08
1.76109e-06
-1.07734e-07
1.81803e-06
1.03571e-10
1.78406e-06
-1.613e-08
-4.70081e-08
3.08598e-07
-2.21511e-07
1.66867e-07
-6.66837e-08
-6.65661e-08
-1.24192e-07
1.30717e-07
-1.25411e-07
2.53297e-07
-1.659e-07
3.85723e-07
-2.20569e-07
4.93819e-07
-2.36327e-07
6.48297e-07
-2.5315e-07
8.42521e-07
-2.4065e-07
9.47948e-07
-2.28356e-07
1.19342e-06
-2.49549e-07
1.33722e-06
-2.90535e-07
1.41174e-06
-3.7554e-07
1.46066e-06
-4.28313e-07
1.47524e-06
-4.79384e-07
1.48458e-06
-4.85825e-07
1.44962e-06
-4.9021e-07
1.44626e-06
-4.55126e-07
1.45012e-06
-3.38863e-07
1.40521e-06
-3.05284e-07
1.69268e-07
-1.37376e-07
2.50637e-07
-9.2487e-08
-7.933e-08
-2.58232e-08
-3.23539e-08
-8.92339e-09
6.31508e-08
1.64957e-08
1.31599e-07
2.17609e-08
2.10032e-07
3.11256e-08
3.35063e-07
2.34657e-08
4.7021e-07
4.8878e-08
5.71675e-07
-1.00988e-09
7.31827e-07
-6.9348e-08
7.64091e-07
-2.24882e-07
7.90941e-07
-3.23361e-07
8.59168e-07
-3.97727e-07
9.37435e-07
-4.17555e-07
1.04093e-06
-4.23837e-07
1.10587e-06
-4.05346e-07
1.18406e-06
-3.88568e-07
1.2138e-06
-4.06867e-07
1.2425e-06
-2.58134e-07
1.25193e-06
-1.29705e-08
2.25006e-07
-1.14018e-07
1.00477e-07
6.20894e-09
-9.94788e-08
-1.52898e-08
-2.71355e-08
6.65983e-08
1.91407e-08
1.29565e-07
3.68284e-08
2.18307e-07
4.14018e-08
3.19806e-07
6.9281e-08
4.71074e-07
4.391e-08
5.55736e-07
2.45407e-09
6.41748e-07
-9.40394e-08
6.96983e-07
-2.02161e-07
7.47926e-07
-2.83456e-07
8.47026e-07
-3.23996e-07
9.40651e-07
-3.38807e-07
1.06717e-06
-3.28128e-07
1.1479e-06
-3.06085e-07
1.25732e-06
-2.72668e-07
1.30602e-06
-2.96366e-07
1.37278e-06
-1.52162e-07
1.3745e-06
1.29992e-07
-7.09398e-08
1.80745e-07
-4.45307e-08
-4.12259e-08
-1.80859e-08
-9.08482e-08
3.85267e-08
-2.95629e-08
9.2445e-08
4.90186e-08
9.7736e-08
1.43268e-07
9.50807e-08
2.68578e-07
8.17934e-08
3.75283e-07
4.38001e-08
4.73237e-07
-1.49664e-08
5.41008e-07
-1.12407e-07
6.17992e-07
-2.04324e-07
6.97148e-07
-2.69909e-07
8.01476e-07
-3.13756e-07
9.07725e-07
-3.38437e-07
1.00536e-06
-3.51799e-07
1.10127e-06
-3.49883e-07
1.17162e-06
-3.40823e-07
1.26199e-06
-3.76218e-07
1.28415e-06
-2.70926e-07
1.35478e-06
2.63972e-09
1.71237e-07
-5.90905e-08
8.39555e-08
6.77507e-10
-8.55636e-08
-1.06269e-08
-1.25822e-07
1.33654e-07
-1.1292e-07
2.45031e-07
-1.25245e-07
3.50431e-07
-1.41575e-07
4.73676e-07
-1.5897e-07
5.47608e-07
-1.92171e-07
6.54398e-07
-2.38076e-07
6.73085e-07
-3.14173e-07
7.25843e-07
-3.65206e-07
7.7708e-07
-4.11418e-07
8.40972e-07
-4.29703e-07
9.15143e-07
-4.4747e-07
9.82446e-07
-4.51431e-07
1.05693e-06
-4.53657e-07
1.11049e-06
-4.44413e-07
1.19896e-06
-4.93601e-07
1.21825e-06
-3.80322e-07
1.27286e-06
1.02898e-07
-3.57628e-08
1.45526e-07
-2.59616e-08
1.17242e-08
-5.18897e-08
-5.19539e-08
-2.27548e-08
-1.63168e-08
5.91744e-08
9.89901e-09
1.23553e-07
1.60423e-08
2.01537e-07
1.07188e-08
2.85823e-07
1.01334e-08
3.80784e-07
-8.34992e-09
4.49928e-07
-6.78059e-08
5.0841e-07
-1.2827e-07
5.56076e-07
-2.11413e-07
5.92772e-07
-2.60136e-07
6.66994e-07
-2.92496e-07
7.4199e-07
-3.05451e-07
8.3125e-07
-3.12899e-07
8.95382e-07
-2.91544e-07
9.82621e-07
-2.42173e-07
1.09869e-06
-1.36772e-07
1.19078e-06
-2.30174e-07
1.26304e-08
1.4389e-07
-3.80203e-08
8.41096e-08
-9.40566e-09
-6.18208e-09
-6.58531e-08
-1.70632e-08
-1.29317e-08
4.47845e-08
1.02463e-08
9.94531e-08
1.22461e-08
1.57684e-07
1.59557e-08
2.32401e-07
1.77967e-10
2.97901e-07
-4.5818e-08
3.03402e-07
-1.2315e-07
3.39601e-07
-2.32282e-07
2.99285e-07
-3.44538e-07
2.95598e-07
-4.18168e-07
3.39279e-07
-4.63935e-07
4.04259e-07
-4.98563e-07
4.83871e-07
-5.2633e-07
5.4499e-07
-5.33457e-07
6.2743e-07
-5.1293e-07
7.39213e-07
-4.51558e-07
8.31519e-07
-5.22251e-07
7.91969e-08
-2.74152e-08
8.71257e-08
-2.55923e-08
2.91677e-08
-2.7342e-08
-3.29777e-08
-2.72785e-08
-1.24997e-08
2.86895e-08
5.97575e-09
7.4598e-08
1.39916e-08
1.29405e-07
1.17566e-08
1.77921e-07
-1.78042e-08
1.9185e-07
-7.48991e-08
2.00804e-07
-1.6975e-07
1.55648e-07
-2.59453e-07
1.46007e-07
-3.30095e-07
1.75495e-07
-3.56131e-07
2.45603e-07
-3.73184e-07
3.32405e-07
-3.73446e-07
4.30035e-07
-3.82284e-07
5.34008e-07
-3.77202e-07
6.12033e-07
-3.90243e-07
7.18658e-07
-4.05611e-07
7.33675e-07
-5.0452e-07
7.3967e-08
1.01471e-07
1.2227e-08
6.77944e-08
-1.65583e-08
8.26172e-09
-6.09094e-08
-1.89955e-08
-3.8205e-08
1.07296e-08
-1.97006e-08
3.98026e-08
-9.91015e-09
7.26888e-08
-1.7394e-08
9.025e-08
-4.25931e-08
9.75211e-08
-9.40328e-08
7.81064e-08
-1.47492e-07
7.83286e-08
-1.98402e-07
1.0059e-07
-2.2357e-07
1.51708e-07
-2.43589e-07
2.12328e-07
-2.53358e-07
2.83159e-07
-2.73504e-07
3.53252e-07
-2.89061e-07
4.19012e-07
-2.96192e-07
4.89273e-07
-2.80633e-07
5.88779e-07
-2.55926e-07
6.67724e-07
-3.49395e-07
9.99136e-08
9.63532e-08
1.07091e-07
1.11813e-08
5.31645e-08
-4.20597e-08
-4.32673e-09
-7.31188e-08
-1.13835e-08
-5.18586e-08
-1.53194e-08
-2.86212e-08
-2.46226e-08
-4.61893e-09
-3.07269e-08
2.28849e-08
-4.30934e-08
4.25359e-08
-5.84795e-08
5.89835e-08
-7.63415e-08
7.9034e-08
-8.82348e-08
1.07837e-07
-9.91684e-08
1.37601e-07
-1.07447e-07
1.7832e-07
-1.1897e-07
2.21325e-07
-1.3345e-07
2.73087e-07
-1.51366e-07
3.33363e-07
-1.59306e-07
3.89798e-07
-1.68471e-07
4.71572e-07
-1.77679e-07
5.15299e-07
-2.24416e-07
1.23655e-07
1.09441e-07
6.29969e-08
5.85781e-08
3.1219e-09
2.13551e-08
-6.16528e-08
2.26187e-09
-7.89646e-08
4.02867e-09
-9.72123e-08
-4.41537e-09
-1.11305e-07
-1.43447e-08
-1.16879e-07
-2.69932e-08
-1.03512e-07
-3.57462e-08
-7.87734e-08
-3.39541e-08
-4.30007e-08
-2.78234e-08
-1.08612e-08
-1.50972e-08
1.2618e-08
-1.05231e-08
1.37736e-08
-7.22211e-09
-4.65348e-09
-1.53394e-08
-4.69831e-08
-1.7235e-08
-1.02567e-07
-2.81018e-08
-1.64651e-07
-4.02381e-08
-2.32412e-07
-5.45763e-08
-3.3672e-07
-1.00891e-07
-4.44608e-07
1.22103e-08
1.66636e-08
1.34858e-08
5.85505e-09
7.09858e-09
-1.22493e-08
-2.52417e-09
-2.44337e-08
-4.41259e-09
-4.23805e-08
-1.04169e-08
-7.27038e-08
-2.14653e-08
-1.15931e-07
-4.00191e-08
-1.65558e-07
-6.54548e-08
-2.09448e-07
-9.34583e-08
-2.45817e-07
-1.32752e-07
-2.69968e-07
-1.69335e-07
-2.77272e-07
-2.13002e-07
-2.70345e-07
-2.51993e-07
-2.51405e-07
-2.89843e-07
-2.30228e-07
-3.27914e-07
-2.13762e-07
-3.52228e-07
-2.07928e-07
-3.81775e-07
-2.2367e-07
-3.81503e-07
-2.72166e-07
-3.86244e-07
-3.49213e-07
-3.32266e-07
-0.00464152
-0.00311526
0.00273435
-0.00229111
0.00243811
9.9827e-05
-0.000212673
-2.83443e-05
0.00213806
-0.000929693
0.00295416
-0.00226496
-0.000693908
0.000829106
-0.000754416
0.000379195
-0.000517007
-6.94789e-06
-0.000293703
-0.000330181
0.000110706
-4.93588e-05
-1.70995e-05
-4.87205e-05
-1.1469e-05
-0.000245071
0.00021003
-2.84863e-05
-5.41529e-06
-3.11716e-05
6.61212e-05
6.80187e-05
5.15375e-05
9.09511e-06
4.44006e-05
1.06619e-05
2.52871e-05
1.09442e-05
6.8283e-05
-6.7271e-05
1.74328e-05
5.95029e-05
-5.42205e-05
5.54054e-05
-4.71115e-05
1.67553e-05
2.0075e-05
-2.85041e-05
-1.69122e-05
2.33806e-06
-1.26228e-05
-5.07627e-06
-6.90616e-06
-4.42672e-06
-6.39866e-06
-6.06462e-06
-6.64599e-06
-3.03945e-06
-8.00609e-06
-1.88755e-06
-1.24131e-05
4.64393e-06
-3.21452e-06
-7.41723e-06
1.81128e-06
-1.22454e-05
8.8782e-06
-1.93507e-06
-2.20563e-07
-3.655e-06
5.16518e-06
-2.59187e-06
7.40761e-07
-6.13651e-07
-0.0012076
-0.000570928
0.000681747
-0.000171573
0.000917845
0.000500132
0.000352962
0.000378306
0.000839963
0.00028462
0.000819567
-0.000121736
-0.000141015
0.000446941
-0.000212205
0.000181071
-0.000194106
5.94434e-06
-5.45852e-05
-9.09395e-05
3.20917e-05
-5.65022e-05
-2.66215e-06
-5.70907e-05
-6.13887e-07
-8.59115e-05
4.17339e-05
-2.8869e-05
-3.09517e-05
-3.40927e-05
-1.89615e-05
-9.47765e-06
-9.87492e-06
-1.02211e-05
9.95176e-07
-1.62238e-05
-4.62748e-06
-8.64373e-06
-2.44234e-06
-3.01646e-05
-2.39615e-06
2.10251e-06
-2.21678e-05
5.06283e-06
-2.03511e-05
4.85061e-07
-4.34835e-06
-7.95608e-06
-9.28688e-06
-1.38489e-06
-6.55415e-06
-3.63419e-06
-3.97212e-06
-2.63231e-06
-2.78453e-06
-2.28857e-06
-2.52374e-06
-9.19314e-07
-2.74962e-06
-2.63762e-07
-2.74982e-06
1.61189e-06
-5.78912e-07
-2.21506e-06
1.47514e-06
-2.19551e-06
3.00943e-06
3.30985e-07
5.29018e-07
-3.57929e-07
2.73079e-06
-3.1471e-07
7.65798e-07
-9.38029e-08
-0.000727772
-0.000271991
-2.53678e-05
-0.000288925
-0.000125729
-0.000263143
-0.000285866
-0.000252376
-0.000235212
-0.000309922
-6.27644e-05
-0.000272508
-0.000200324
2.15712e-05
-0.000290183
3.86496e-06
-0.000193207
-3.09401e-05
-6.5567e-05
-5.31648e-05
4.54786e-06
-3.22719e-05
9.02496e-06
-1.84174e-05
1.74487e-05
-3.7942e-05
4.23745e-05
2.77502e-05
2.78027e-05
1.80639e-05
2.92001e-05
2.99744e-05
2.50492e-05
2.1529e-05
3.07523e-05
1.98366e-05
2.48405e-05
1.84028e-05
1.98116e-05
5.37672e-06
1.5693e-05
1.58585e-05
-1.36531e-07
1.92713e-05
-5.99302e-06
9.74638e-06
1.63468e-06
-2.73942e-08
-3.70403e-06
2.0711e-06
-3.55367e-06
-9.67051e-07
-2.3691e-06
-1.65941e-06
-2.11668e-06
-2.10576e-06
-2.84988e-06
-2.0018e-06
-3.51656e-06
-1.83454e-06
-3.34527e-06
-4.89015e-07
-2.49892e-06
-3.594e-06
-3.34385e-07
-3.29732e-06
6.2362e-07
-2.08729e-06
-2.03196e-06
-1.94804e-06
1.166e-06
-2.21461e-06
-1.04284e-07
-5.18e-07
-0.000574688
-0.000275936
6.01133e-05
3.24245e-05
0.000322641
0.000326861
0.000309261
0.000301803
0.000373589
0.000263186
0.000317597
0.000147576
6.44687e-05
0.000221097
-5.48696e-05
9.25144e-05
-8.96975e-05
-1.13211e-05
-3.04058e-05
-4.73462e-05
1.50626e-06
-4.34305e-05
1.12504e-06
-3.38663e-05
1.18833e-05
-3.48141e-05
2.36823e-05
-7.49706e-06
-1.34663e-05
-6.46498e-06
-4.39456e-06
1.66959e-06
1.9883e-06
2.73613e-06
2.66716e-06
-8.65645e-06
1.48061e-06
-5.17305e-06
-6.62501e-06
-1.22579e-05
6.35638e-07
-4.23904e-06
-1.00624e-05
9.43774e-07
-1.18746e-05
-8.1731e-07
-6.78041e-06
-2.89276e-06
-6.95279e-06
-1.67283e-06
-5.07836e-06
-3.27562e-06
-3.44649e-06
-2.59552e-06
-2.48706e-06
-2.11005e-06
-2.13443e-06
-1.16204e-06
-2.19513e-06
-7.17359e-07
-1.81617e-06
5.42648e-08
-8.90288e-07
-1.65325e-06
7.37327e-07
-1.10578e-06
1.17414e-06
2.6769e-08
-1.84871e-07
-2.45088e-08
1.814e-06
-4.30899e-07
5.59155e-07
-1.5779e-07
-0.000180198
-9.33318e-05
-6.37205e-05
-7.28131e-05
-9.1857e-05
-0.000130427
-0.000126903
-0.000154168
-0.000196751
-0.000173467
-0.000124147
-8.42199e-05
-7.75546e-05
-5.53148e-05
-0.000131977
-3.50263e-05
-9.579e-05
-2.89441e-05
-3.75727e-05
-1.30917e-05
-1.0906e-05
-1.45744e-05
-1.51314e-06
-9.08423e-06
1.2062e-06
-1.16727e-05
1.75717e-05
1.97369e-05
1.32239e-05
9.39417e-06
1.25418e-05
1.33428e-05
1.15436e-05
1.12808e-05
1.67848e-05
1.18542e-05
1.91227e-05
1.2768e-05
1.28045e-05
9.3945e-06
1.43093e-05
8.39931e-06
5.71705e-06
1.08674e-05
-2.51242e-07
5.74964e-06
1.2137e-07
2.30165e-06
-1.29707e-06
1.31508e-06
-1.57873e-06
-6.36484e-07