/*--------------------------------*- C++ -*----------------------------------*\
| =========                 |                                                 |
| \\      /  F ield         | OpenFOAM: The Open Source CFD Toolbox           |
|  \\    /   O peration     | Version:  2312                                  |
|   \\  /    A nd           | Website:  www.openfoam.com                      |
|    \\/     M anipulation  |                                                 |
\*---------------------------------------------------------------------------*/
FoamFile
{
    version     2.0;
    format      ascii;
    arch        "LSB;label=32;scalar=64";
    class       volScalarField;
    location    "1000";
    object      magR;
}
// * * * * * * * * * * * * * * * * * * * * * * * * * * * * * * * * * * * * * //

dimensions      [0 2 -2 0 0 0 0];

internalField   nonuniform List<scalar> 
11040
(
0.478488
0.52819
0.0824279
0.0555044
0.33773
0.34755
0.329428
0.30057
0.270582
0.251695
0.234032
0.21869
0.206087
0.196417
0.188633
0.184709
0.184449
0.188065
0.194993
0.205121
0.21882
0.235681
0.255704
0.279184
0.306172
0.337831
0.373198
0.40723
0.436834
0.458451
0.468342
0.463298
0.444396
0.41802
0.395401
0.311092
0.162297
0.0998296
0.0418
0.137241
0.269711
0.0390351
0.0821662
0.282085
0.5175
1.00138
0.334437
0.103921
0.0355935
0.00916691
0.00716674
0.0170156
0.0225982
0.0262759
0.0288973
0.0306027
0.0322461
0.034298
0.0367518
0.0392665
0.0418374
0.0445363
0.0474876
0.0498936
0.0508861
0.0502099
0.0488237
0.0471973
0.0441277
0.0396661
0.0345261
0.0303373
0.0292623
0.0295791
0.0331625
0.0408509
0.0527742
0.069684
0.0917704
0.146459
0.168163
0.669527
0.0240851
0.0216194
0.0486321
0.213611
1.16181
1.56232
0.810235
0.306903
0.14452
0.0864234
0.048704
0.0278073
0.0134722
0.0039403
0.00404168
0.00852348
0.0117718
0.0141907
0.0159606
0.0171778
0.0179799
0.0183767
0.0179139
0.0164155
0.0142052
0.0117325
0.00916424
0.006228
0.00250629
0.00431314
0.0131257
0.0260877
0.0436531
0.0662461
0.094706
0.130745
0.176132
0.227917
0.33995
0.444839
0.646681
0.0173197
0.0148154
0.0123185
0.0191943
0.27602
1.34714
2.01521
1.35479
0.566408
0.30471
0.180905
0.121726
0.0856572
0.0609908
0.0454487
0.0345069
0.0277744
0.023418
0.0210149
0.0201673
0.0203564
0.0215423
0.0238925
0.0272055
0.0306981
0.0337125
0.0357165
0.0363113
0.0355511
0.0349996
0.0389357
0.052414
0.077139
0.11362
0.162485
0.226255
0.307766
0.401296
0.570143
0.784982
0.70424
0.0128967
0.0116271
0.0123964
0.00619187
0.00827197
0.246669
1.28141
2.27684
1.95993
0.985014
0.521039
0.315306
0.218309
0.157869
0.122668
0.0978643
0.0827199
0.072659
0.0666945
0.0637778
0.0627324
0.0631274
0.0650606
0.0684301
0.0722378
0.0756404
0.0778787
0.0782685
0.0765962
0.0740316
0.0748059
0.0870728
0.118222
0.170393
0.243546
0.340119
0.463764
0.608501
0.821852
1.15343
0.935495
0.00930603
0.00854591
0.00831592
0.00920989
0.00281623
0.00202017
0.166734
1.02629
2.31212
2.49964
1.62325
0.829825
0.514941
0.346662
0.257127
0.199422
0.165324
0.143216
0.129558
0.12223
0.118555
0.117439
0.118634
0.122039
0.126379
0.130537
0.133321
0.13346
0.130071
0.123714
0.118608
0.126048
0.160929
0.22943
0.330379
0.464728
0.635965
0.838354
1.08982
1.51419
1.28646
0.00672215
0.00642485
0.00603212
0.00642774
0.00664156
0.00126242
5.64955e-05
0.0777859
0.688546
2.01552
2.81396
2.36387
1.3797
0.785964
0.528639
0.38856
0.304581
0.25192
0.219574
0.201836
0.192261
0.188281
0.188473
0.192317
0.19789
0.203551
0.207474
0.207535
0.201792
0.189749
0.174726
0.169802
0.199827
0.280909
0.410568
0.585404
0.806485
1.06699
1.35595
1.83405
1.68055
0.00490633
0.00479747
0.00472514
0.00453951
0.00491599
0.00515017
0.000235212
2.90583e-06
0.023749
0.370738
1.45415
2.74283
2.96531
2.1663
1.25566
0.78807
0.564252
0.441224
0.36484
0.319708
0.294308
0.283238
0.280592
0.28462
0.292036
0.300242
0.306441
0.307286
0.299153
0.279948
0.250672
0.222567
0.229247
0.309523
0.463704
0.678107
0.947035
1.2595
1.58587
2.06694
2.03206
0.00362417
0.00357316
0.00358003
0.00355052
0.00341147
0.00385995
0.003686
0.000494821
0.000452928
0.000945664
0.142285
0.835996
2.17837
3.16407
2.95886
2.03253
1.2229
0.82215
0.622229
0.511897
0.448022
0.417495
0.40603
0.407802
0.41669
0.427778
0.436924
0.439542
0.430257
0.404131
0.35838
0.297572
0.251711
0.295401
0.459432
0.707755
1.01787
1.37072
1.72684
2.17166
2.24908
0.00269187
0.00266811
0.00268759
0.00271679
0.00269417
0.00261192
0.00294162
0.00263159
0.000840934
0.000115347
0.00214693
0.031729
0.362777
1.35844
2.73451
3.39188
2.93809
1.99773
1.26056
0.891364
0.712145
0.625369
0.586109
0.57576
0.582068
0.596462
0.611249
0.618106
0.609149
0.577466
0.516831
0.423026
0.304739
0.23201
0.35802
0.630418
0.972631
1.35152
1.7222
2.11054
2.26119
0.00200803
0.00199697
0.00201709
0.00204882
0.0020778
0.00205868
0.00203132
0.00217389
0.00215294
0.00112243
7.71172e-05
0.000395953
0.000346306
0.0979708
0.620741
1.79904
3.09692
3.53341
2.98127
2.06989
1.37131
1.02886
0.885928
0.827963
0.811411
0.818428
0.835444
0.849477
0.848703
0.821295
0.755587
0.641552
0.473935
0.255795
0.115798
0.402959
0.772514
1.16408
1.53055
1.85352
2.02836
0.00150095
0.00149647
0.00151096
0.00153978
0.0015701
0.00159425
0.00158916
0.00157356
0.00162804
0.00169222
0.00125064
3.67287e-05
2.32823e-05
0.00162946
0.012421
0.186018
0.846551
2.09396
3.31182
3.66653
3.12661
2.30236
1.67377
1.33274
1.18787
1.14586
1.14598
1.1565
1.16044
1.14263
1.08872
0.985521
0.824392
0.60477
0.348044
0.238559
0.510579
0.870329
1.20001
1.44707
1.58703
0.00112255
0.00112159
0.00113131
0.00115337
0.0011809
0.00120708
0.0012279
0.00123313
0.00122454
0.00124035
0.00131284
0.00113029
0.000265336
2.69727e-05
0.000170791
0.00346649
0.0258969
0.25318
0.971293
2.21875
3.41548
3.83715
3.50711
2.8956
2.32285
1.92238
1.70229
1.61329
1.59303
1.58624
1.55705
1.48654
1.36826
1.20878
1.03276
0.892712
0.865447
0.975139
1.142
1.2563
1.26514
0.000838864
0.000839804
0.000846069
0.000861999
0.000884286
0.00090803
0.00093019
0.000948934
0.000959211
0.000957451
0.000958993
0.00101059
0.000974628
0.000554391
7.7743e-06
3.90166e-06
0.000414027
0.00527554
0.0351883
0.272582
0.97085
2.12196
3.26777
3.94645
4.04951
3.78376
3.38103
2.9781
2.64492
2.40654
2.25548
2.16324
2.09515
2.02772
1.95894
1.90188
1.87671
1.89215
1.93977
1.97338
1.85483
0.000625488
0.000627393
0.000631401
0.000642704
0.000659768
0.000679342
0.000699306
0.000718234
0.000734988
0.00074731
0.000750411
0.00075208
0.000777712
0.000785262
0.000685447
0.000193098
2.24889e-05
3.78373e-07
0.000708916
0.00541425
0.0322463
0.221134
0.720366
1.57567
2.62135
3.57397
4.22135
4.52074
4.55309
4.41566
4.17649
3.88667
3.59526
3.34775
3.1774
3.09819
3.10712
3.17445
3.26478
3.35519
3.27069
0.000464837
0.000467022
0.000469591
0.000477525
0.000490243
0.000505501
0.000521873
0.000538574
0.000554732
0.000569446
0.000581671
0.00058836
0.000592972
0.000599445
0.000628262
0.000589344
0.000454981
3.28189e-05
7.76172e-06
8.61616e-08
0.000792485
0.00358015
0.0112478
0.0894553
0.323584
0.795049
1.51181
2.39642
3.31517
4.14307
4.80224
5.26181
5.52517
5.61818
5.58451
5.47376
5.33681
5.20807
5.12048
5.11792
5.02962
0.000344907
0.000346943
0.000348651
0.000354255
0.000363614
0.000375124
0.000387882
0.000401386
0.000415151
0.00042856
0.000441064
0.000452059
0.0004607
0.0004658
0.000472634
0.000484106
0.000500817
0.000441519
0.000268204
7.97051e-06
4.12628e-06
5.80378e-08
0.000234565
0.00206226
0.00124273
0.012801
0.0634739
0.2072
0.491357
0.948303
1.57893
2.3506
3.20704
4.08506
4.92397
5.66806
6.28396
6.756
7.09701
7.37043
7.44949
0.000258393
0.000260194
0.000261483
0.000265661
0.000272713
0.000281491
0.000291378
0.000302074
0.000313233
0.000324492
0.000335462
0.000345834
0.000355339
0.000363583
0.000369689
0.000375106
0.00038191
0.000397183
0.000399677
0.000343966
0.000186579
5.48862e-06
3.45544e-06
2.17506e-07
2.32522e-05
0.000312153
0.00136883
0.00234647
0.000816829
0.0109309
0.0511785
0.148962
0.334074
0.63558
1.07102
1.64241
2.33588
3.13002
3.98488
4.88157
5.68649
0.000197207
0.000198791
0.000199843
0.000203083
0.000208531
0.000215352
0.000223126
0.000231678
0.000240777
0.000250143
0.00025951
0.000268633
0.000277306
0.000285404
0.000292656
0.000298935
0.000303618
0.000309282
0.000317125
0.000327788
0.000324484
0.000272137
0.000182054
2.0869e-05
4.80016e-06
1.13865e-06
9.97481e-08
0
9.91649e-06
0.000218595
0.00112004
0.00172131
5.44772e-06
0.00134109
0.00955979
0.0397568
0.106578
0.229092
0.424374
0.709512
1.08784
0.000153276
0.000154617
0.000155488
0.000158046
0.000162312
0.000167666
0.000173813
0.000180636
0.000187988
0.000195668
0.000203497
0.000211318
0.000218963
0.000226285
0.000233161
0.000239515
0.000245171
0.000250018
0.000254237
0.000259637
0.000267156
0.000273625
0.000272468
0.000241025
0.000180786
0.000113039
1.07919e-05
3.18011e-06
9.38458e-07
5.00721e-07
2.62022e-08
0
1.13358e-07
1.82354e-05
0.000180579
0.000872464
0.00145295
0.00113819
0.000880577
0.000241908
0.00668627
0.000120748
0.000121859
0.000122589
0.000124636
0.000128016
0.000132262
0.000137162
0.000142631
0.000148561
0.000154812
0.000161253
0.000167782
0.000174286
0.000180653
0.00018678
0.000192581
0.000198001
0.000202968
0.000207382
0.000211275
0.000214959
0.000219798
0.000225244
0.000232282
0.00023223
0.000225366
0.000199672
0.000157552
0.000108649
6.09033e-05
3.45283e-06
1.78583e-06
7.21813e-07
4.82275e-07
2.60814e-07
3.57313e-08
0
0
0
1.66117e-06
0.000100113
9.61535e-05
9.70649e-05
9.76889e-05
9.93489e-05
0.000102052
0.000105449
0.000109383
0.000113789
0.000118585
0.000123667
0.000128938
0.000134323
0.000139744
0.000145119
0.000150371
0.000155434
0.00016025
0.000164774
0.000168972
0.000172829
0.000176181
0.0001792
0.000182074
0.000185652
0.000189948
0.00019416
0.000198938
0.0001995
0.000194132
0.000184643
0.000164507
0.000135824
0.000103478
7.14581e-05
4.0745e-05
5.99797e-06
1.67108e-06
5.50056e-07
4.23153e-07
3.04955e-07
1.94823e-07
7.72263e-05
7.79706e-05
7.85098e-05
7.98677e-05
8.20464e-05
8.47824e-05
8.79583e-05
9.15219e-05
9.54088e-05
9.954e-05
0.000103841
0.000108257
0.000112731
0.000117199
0.000121602
0.000125891
0.000130019
0.000133944
0.000137632
0.000141083
0.000144196
0.000146945
0.000149386
0.000151494
0.00015354
0.000155628
0.000158189
0.000161201
0.000164245
0.000166706
0.000169317
0.00016944
0.000166679
0.000160949
0.000152993
0.000140263
0.000123404
0.000103463
8.26651e-05
6.19615e-05
4.1823e-05
6.24584e-05
6.30652e-05
6.35356e-05
6.46549e-05
6.6422e-05
6.86387e-05
7.12154e-05
7.4109e-05
7.72669e-05
8.06283e-05
8.41354e-05
8.77438e-05
9.14112e-05
9.50883e-05
9.87291e-05
0.000102294
0.000105746
0.000109051
0.000112178
0.000115119
0.000117794
0.000120185
0.00012234
0.000124194
0.000125771
0.000127123
0.0001283
0.000129404
0.00013056
0.000131751
0.000133137
0.000134671
0.000136168
0.000137473
0.00013839
0.000139268
0.000139299
0.000138108
0.000135643
0.000131695
0.000127393
5.08027e-05
5.12976e-05
5.17107e-05
5.2639e-05
5.40798e-05
5.58845e-05
5.79836e-05
6.03403e-05
6.29114e-05
6.56487e-05
6.85066e-05
7.14492e-05
7.44436e-05
7.74511e-05
8.04348e-05
8.33624e-05
8.62042e-05
8.89318e-05
9.15184e-05
9.39563e-05
9.61725e-05
9.81529e-05
9.9938e-05
0.000101479
0.000102786
0.000103886
0.000104787
0.000105497
0.000106038
0.000106438
0.000106715
0.000106915
0.000107073
0.000107223
0.000107358
0.000107511
0.000107671
0.000107828
0.000107971
0.000107923
0.000108003
4.15161e-05
4.19205e-05
4.22854e-05
4.30596e-05
4.42403e-05
4.57162e-05
4.74325e-05
4.93575e-05
5.14552e-05
5.36868e-05
5.60157e-05
5.84129e-05
6.08511e-05
6.32995e-05
6.57287e-05
6.81123e-05
7.04258e-05
7.26456e-05
7.47488e-05
7.6728e-05
7.85205e-05
8.0116e-05
8.15495e-05
8.27765e-05
8.38052e-05
8.46563e-05
8.53415e-05
8.58676e-05
8.62409e-05
8.6471e-05
8.6565e-05
8.65321e-05
8.63798e-05
8.6125e-05
8.57843e-05
8.53631e-05
8.48699e-05
8.43275e-05
8.37751e-05
8.31611e-05
8.26392e-05
3.40582e-05
3.439e-05
3.47138e-05
3.53631e-05
3.63354e-05
3.75476e-05
3.89558e-05
4.05323e-05
4.2247e-05
4.40683e-05
4.59664e-05
4.79175e-05
4.98991e-05
5.18861e-05
5.38546e-05
5.5783e-05
5.76511e-05
5.94394e-05
6.11285e-05
6.27117e-05
6.41362e-05
6.53957e-05
6.65222e-05
6.74766e-05
6.82637e-05
6.89003e-05
6.93964e-05
6.97586e-05
6.99947e-05
7.0113e-05
7.01217e-05
7.00292e-05
6.98402e-05
6.95646e-05
6.92125e-05
6.87868e-05
6.82898e-05
6.77313e-05
6.714e-05
6.64654e-05
6.58839e-05
2.80288e-05
2.83026e-05
2.85914e-05
2.91393e-05
2.99442e-05
3.09442e-05
3.21037e-05
3.33983e-05
3.48026e-05
3.62909e-05
3.78386e-05
3.9426e-05
4.10344e-05
4.2643e-05
4.42324e-05
4.5785e-05
4.72841e-05
4.87135e-05
5.0057e-05
5.13091e-05
5.24257e-05
5.34042e-05
5.4274e-05
5.50018e-05
5.55906e-05
5.60543e-05
5.64017e-05
5.66384e-05
5.67709e-05
5.6807e-05
5.67541e-05
5.66202e-05
5.64104e-05
5.61336e-05
5.57988e-05
5.5409e-05
5.49668e-05
5.44795e-05
5.39712e-05
5.33968e-05
5.29078e-05
2.31267e-05
2.33545e-05
2.36137e-05
2.40791e-05
2.47492e-05
2.55779e-05
2.6536e-05
2.76021e-05
2.87546e-05
2.99723e-05
3.12351e-05
3.25263e-05
3.38306e-05
3.51307e-05
3.64106e-05
3.76558e-05
3.8853e-05
3.99885e-05
4.10492e-05
4.20306e-05
4.28962e-05
4.36464e-05
4.43082e-05
4.48538e-05
4.5285e-05
4.56138e-05
4.58477e-05
4.59917e-05
4.60514e-05
4.60334e-05
4.59443e-05
4.57908e-05
4.55773e-05
4.53116e-05
4.50009e-05
4.46483e-05
4.4256e-05
4.38297e-05
4.33894e-05
4.29003e-05
4.24757e-05
1.91217e-05
1.93135e-05
1.95478e-05
1.99461e-05
2.05075e-05
2.11977e-05
2.19925e-05
2.2873e-05
2.3821e-05
2.48189e-05
2.58501e-05
2.69006e-05
2.79577e-05
2.90072e-05
3.00356e-05
3.10314e-05
3.19836e-05
3.28813e-05
3.37136e-05
3.44771e-05
3.51421e-05
3.57107e-05
3.6208e-05
3.66106e-05
3.692e-05
3.71463e-05
3.72962e-05
3.73739e-05
3.73844e-05
3.73331e-05
3.72257e-05
3.70679e-05
3.68635e-05
3.66187e-05
3.63395e-05
3.60286e-05
3.56879e-05
3.53215e-05
3.49459e-05
3.45347e-05
3.417e-05
1.58362e-05
1.60002e-05
1.62137e-05
1.65574e-05
1.70309e-05
1.76089e-05
1.8271e-05
1.90006e-05
1.97824e-05
2.06018e-05
2.14449e-05
2.23e-05
2.31567e-05
2.40033e-05
2.48284e-05
2.56228e-05
2.63778e-05
2.70846e-05
2.77345e-05
2.83247e-05
2.88313e-05
2.92579e-05
2.9627e-05
2.99194e-05
3.01363e-05
3.02864e-05
3.03755e-05
3.04072e-05
3.03858e-05
3.03159e-05
3.02021e-05
3.00493e-05
2.98606e-05
2.9641e-05
2.93955e-05
2.91262e-05
2.88347e-05
2.85242e-05
2.82078e-05
2.7866e-05
2.7556e-05
1.31314e-05
1.32745e-05
1.34705e-05
1.37698e-05
1.41722e-05
1.4659e-05
1.52132e-05
1.58201e-05
1.64669e-05
1.71412e-05
1.78317e-05
1.85285e-05
1.9223e-05
1.99056e-05
2.05671e-05
2.11998e-05
2.1797e-05
2.23517e-05
2.2857e-05
2.33109e-05
2.36944e-05
2.40115e-05
2.42826e-05
2.44918e-05
2.46401e-05
2.47352e-05
2.47818e-05
2.47834e-05
2.47431e-05
2.46651e-05
2.45531e-05
2.4411e-05
2.42415e-05
2.40485e-05
2.3836e-05
2.36059e-05
2.33592e-05
2.30985e-05
2.28342e-05
2.25523e-05
2.22891e-05
1.08983e-05
1.10259e-05
1.12073e-05
1.14702e-05
1.18148e-05
1.22276e-05
1.26939e-05
1.3201e-05
1.37379e-05
1.42946e-05
1.48614e-05
1.54301e-05
1.59936e-05
1.65442e-05
1.70743e-05
1.75777e-05
1.80492e-05
1.84834e-05
1.88748e-05
1.92222e-05
1.95103e-05
1.97436e-05
1.99401e-05
2.00868e-05
2.01847e-05
2.02402e-05
2.02576e-05
2.02397e-05
2.01892e-05
2.01095e-05
2.00036e-05
1.98748e-05
1.97253e-05
1.9558e-05
1.93764e-05
1.91816e-05
1.89748e-05
1.87576e-05
1.85384e-05
1.83074e-05
1.8085e-05
9.05014e-06
9.16646e-06
9.33542e-06
9.56857e-06
9.86629e-06
1.02187e-05
1.06134e-05
1.10393e-05
1.14871e-05
1.19483e-05
1.2415e-05
1.28802e-05
1.33382e-05
1.37828e-05
1.42078e-05
1.46082e-05
1.49802e-05
1.53196e-05
1.56223e-05
1.58874e-05
1.61031e-05
1.62736e-05
1.6415e-05
1.65164e-05
1.65788e-05
1.66077e-05
1.66068e-05
1.65783e-05
1.65245e-05
1.64481e-05
1.63517e-05
1.62378e-05
1.61082e-05
1.59652e-05
1.58116e-05
1.56482e-05
1.54761e-05
1.52962e-05
1.51153e-05
1.49271e-05
1.4738e-05
7.51756e-06
7.62587e-06
7.7842e-06
7.99281e-06
8.25229e-06
8.5555e-06
8.8918e-06
9.25161e-06
9.62699e-06
1.00108e-05
1.03966e-05
1.07785e-05
1.11516e-05
1.15112e-05
1.18524e-05
1.2171e-05
1.24642e-05
1.2729e-05
1.29623e-05
1.31635e-05
1.33236e-05
1.34463e-05
1.35459e-05
1.36135e-05
1.36499e-05
1.366e-05
1.36467e-05
1.36121e-05
1.35581e-05
1.34867e-05
1.34003e-05
1.33006e-05
1.31893e-05
1.30681e-05
1.2939e-05
1.2803e-05
1.26606e-05
1.25125e-05
1.23643e-05
1.22115e-05
1.20527e-05
6.24472e-06
6.34745e-06
6.4965e-06
6.68477e-06
6.91301e-06
7.17604e-06
7.46474e-06
7.77076e-06
8.08735e-06
8.40857e-06
8.72893e-06
9.04366e-06
9.34875e-06
9.64054e-06
9.9152e-06
1.01694e-05
1.04012e-05
1.06084e-05
1.07888e-05
1.09423e-05
1.10619e-05
1.11508e-05
1.12215e-05
1.12667e-05
1.12871e-05
1.12867e-05
1.12681e-05
1.12329e-05
1.11826e-05
1.1119e-05
1.10439e-05
1.09587e-05
1.08646e-05
1.07631e-05
1.06557e-05
1.05432e-05
1.04261e-05
1.03046e-05
1.01834e-05
1.00602e-05
9.92359e-06
5.18646e-06
5.28533e-06
5.42615e-06
5.59746e-06
5.80007e-06
6.03019e-06
6.27998e-06
6.54216e-06
6.81098e-06
7.08142e-06
7.34893e-06
7.6096e-06
7.86012e-06
8.09763e-06
8.31917e-06
8.52215e-06
8.70506e-06
8.8665e-06
9.00494e-06
9.12036e-06
9.20761e-06
9.26955e-06
9.31708e-06
9.34417e-06
9.35158e-06
9.34272e-06
9.31988e-06
9.28435e-06
9.23741e-06
9.18049e-06
9.11496e-06
9.04208e-06
8.96273e-06
8.87802e-06
8.78921e-06
8.6967e-06
8.60105e-06
8.50223e-06
8.40422e-06
8.30467e-06
8.19251e-06
4.30613e-06
4.40225e-06
4.53565e-06
4.69275e-06
4.87426e-06
5.07729e-06
5.29508e-06
5.52134e-06
5.75115e-06
5.98032e-06
6.20507e-06
6.42224e-06
6.62921e-06
6.82386e-06
7.00405e-06
7.1678e-06
7.31412e-06
7.4422e-06
7.5511e-06
7.64095e-06
7.70792e-06
7.75415e-06
7.78907e-06
7.80759e-06
7.81035e-06
7.80018e-06
7.77897e-06
7.74776e-06
7.70757e-06
7.65954e-06
7.60478e-06
7.54431e-06
7.47885e-06
7.40923e-06
7.33652e-06
7.26103e-06
7.18319e-06
7.10288e-06
7.02319e-06
6.94444e-06
6.84417e-06
3.57383e-06
3.66778e-06
3.79434e-06
3.93946e-06
4.10351e-06
4.28407e-06
4.47529e-06
4.67179e-06
4.86947e-06
5.06485e-06
5.25482e-06
5.43673e-06
5.60842e-06
5.76815e-06
5.9143e-06
6.04535e-06
6.16059e-06
6.25961e-06
6.34195e-06
6.40783e-06
6.45465e-06
6.48449e-06
6.50544e-06
6.51341e-06
6.50907e-06
6.49486e-06
6.47239e-06
6.44255e-06
6.40615e-06
6.36411e-06
6.31731e-06
6.26651e-06
6.21226e-06
6.15519e-06
6.09605e-06
6.035e-06
5.97256e-06
5.90818e-06
5.84523e-06
5.78081e-06
5.70504e-06
2.96475e-06
3.05682e-06
3.17699e-06
3.31177e-06
3.46104e-06
3.62266e-06
3.79157e-06
3.96318e-06
4.13409e-06
4.30159e-06
4.46321e-06
4.61692e-06
4.7611e-06
4.89468e-06
5.01672e-06
5.12614e-06
5.22247e-06
5.30551e-06
5.37491e-06
5.43094e-06
5.47159e-06
5.49792e-06
5.517e-06
5.52528e-06
5.52332e-06
5.51315e-06
5.4961e-06
5.47287e-06
5.44415e-06
5.41073e-06
5.37333e-06
5.33261e-06
5.28905e-06
5.24315e-06
5.19562e-06
5.14665e-06
5.09651e-06
5.04493e-06
4.99389e-06
4.94596e-06
4.86938e-06
2.45831e-06
2.54896e-06
2.6634e-06
2.78901e-06
2.92505e-06
3.06986e-06
3.21938e-06
3.36984e-06
3.51836e-06
3.66264e-06
3.8007e-06
3.93087e-06
4.05163e-06
4.16148e-06
4.25932e-06
4.34457e-06
4.41734e-06
4.47803e-06
4.52693e-06
4.56438e-06
4.58932e-06
4.60327e-06
4.61194e-06
4.61253e-06
4.60557e-06
4.59276e-06
4.57522e-06
4.55349e-06
4.52809e-06
4.49959e-06
4.46851e-06
4.4353e-06
4.4003e-06
4.36382e-06
4.32632e-06
4.28775e-06
4.24872e-06
4.20817e-06
4.1698e-06
4.12699e-06
4.08382e-06
2.03869e-06
2.12835e-06
2.23793e-06
2.35542e-06
2.47918e-06
2.60804e-06
2.7394e-06
2.87078e-06
3.00012e-06
3.1254e-06
3.24472e-06
3.35686e-06
3.4615e-06
3.559e-06
3.64926e-06
3.73084e-06
3.80244e-06
3.86362e-06
3.91434e-06
3.9551e-06
3.98498e-06
4.00416e-06
4.0181e-06
4.02443e-06
4.02372e-06
4.01745e-06
4.00659e-06
3.9917e-06
3.97327e-06
3.95187e-06
3.92805e-06
3.90227e-06
3.87487e-06
3.84617e-06
3.81671e-06
3.78664e-06
3.75606e-06
3.7249e-06
3.69356e-06
3.66917e-06
3.60376e-06
1.69486e-06
1.78237e-06
1.8862e-06
1.99554e-06
2.10792e-06
2.22225e-06
2.33674e-06
2.44996e-06
2.56113e-06
2.66932e-06
2.77291e-06
2.86936e-06
2.95575e-06
3.0296e-06
3.09066e-06
3.1415e-06
3.18481e-06
3.22139e-06
3.25131e-06
3.27423e-06
3.28967e-06
3.29884e-06
3.30503e-06
3.30629e-06
3.30294e-06
3.29609e-06
3.28646e-06
3.27437e-06
3.26012e-06
3.24403e-06
3.22641e-06
3.20748e-06
3.18746e-06
3.16648e-06
3.14478e-06
3.1222e-06
3.09948e-06
3.07497e-06
3.0538e-06
3.02107e-06
3.01345e-06
1.41493e-06
1.49808e-06
1.5928e-06
1.69058e-06
1.78993e-06
1.89083e-06
1.99184e-06
2.091e-06
2.18676e-06
2.27855e-06
2.36709e-06
2.45423e-06
2.54183e-06
2.63064e-06
2.71813e-06
2.79732e-06
2.86348e-06
2.91754e-06
2.96119e-06
2.99618e-06
3.02233e-06
3.03932e-06
3.05175e-06
3.05828e-06
3.05958e-06
3.05683e-06
3.05078e-06
3.04194e-06
3.03075e-06
3.01772e-06
3.00329e-06
2.98787e-06
2.97173e-06
2.95517e-06
2.93859e-06
2.92227e-06
2.90595e-06
2.89045e-06
2.87296e-06
2.87147e-06
2.80122e-06
1.18132e-06
1.26208e-06
1.34773e-06
1.43114e-06
1.51281e-06
1.5957e-06
1.68118e-06
1.76894e-06
1.857e-06
1.94149e-06
2.01728e-06
2.07944e-06
2.12527e-06
2.15528e-06
2.17526e-06
2.19706e-06
2.22585e-06
2.25682e-06
2.28635e-06
2.31224e-06
2.33403e-06
2.3525e-06
2.36858e-06
2.38102e-06
2.38991e-06
2.39594e-06
2.39956e-06
2.40098e-06
2.40036e-06
2.39791e-06
2.39383e-06
2.38821e-06
2.38122e-06
2.37288e-06
2.36333e-06
2.35229e-06
2.34079e-06
2.32617e-06
2.31673e-06
2.28231e-06
2.31913e-06
9.84591e-07
1.07216e-06
1.15904e-06
1.23602e-06
1.30297e-06
1.36408e-06
1.42328e-06
1.48415e-06
1.55036e-06
1.62544e-06
1.71213e-06
1.8116e-06
1.9221e-06
2.03935e-06
2.15378e-06
2.24596e-06
2.3099e-06
2.35792e-06
2.3953e-06
2.42457e-06
2.44532e-06
2.45811e-06
2.46635e-06
2.46961e-06
2.46876e-06
2.46483e-06
2.45851e-06
2.45034e-06
2.44085e-06
2.43056e-06
2.41993e-06
2.40941e-06
2.39929e-06
2.38989e-06
2.3816e-06
2.37498e-06
2.36918e-06
2.36674e-06
2.35931e-06
2.38481e-06
2.28961e-06
8.41908e-07
9.27742e-07
1.01206e-06
1.08963e-06
1.15854e-06
1.21858e-06
1.26864e-06
1.3077e-06
1.33589e-06
1.35465e-06
1.36635e-06
1.37374e-06
1.37962e-06
1.38455e-06
1.39108e-06
1.41548e-06
1.4585e-06
1.50619e-06
1.55398e-06
1.59897e-06
1.64052e-06
1.67868e-06
1.71392e-06
1.74586e-06
1.77426e-06
1.79935e-06
1.82134e-06
1.8403e-06
1.85623e-06
1.86915e-06
1.87907e-06
1.88595e-06
1.88979e-06
1.89044e-06
1.88796e-06
1.88192e-06
1.87347e-06
1.85884e-06
1.84969e-06
1.79961e-06
1.86658e-06
9.12356e-07
1.02452e-06
1.08432e-06
1.09533e-06
1.0799e-06
1.06895e-06
1.08945e-06
1.15365e-06
1.25625e-06
1.38171e-06
1.5133e-06
1.63806e-06
1.74764e-06
1.83951e-06
1.9113e-06
1.94651e-06
1.94877e-06
1.93596e-06
1.91645e-06
1.89351e-06
1.86585e-06
1.84073e-06
1.81337e-06
1.78539e-06
1.75762e-06
1.7303e-06
1.70352e-06
1.6774e-06
1.65202e-06
1.62739e-06
1.60344e-06
1.58012e-06
1.55716e-06
1.53434e-06
1.51167e-06
1.48946e-06
1.466e-06
1.44415e-06
1.41378e-06
1.4165e-06
1.29261e-06
8.17918
9.3908
8.49251
6.88959
5.04525
3.33957
1.95498
0.944261
0.313271
0.0669625
0.0227941
0.000370414
7.05365e-06
7.4366e-05
0.000333317
0.000271846
0.000222463
0.000197986
0.000174253
0.000151711
0.000131905
0.00011442
9.89814e-05
8.53908e-05
7.34747e-05
6.30313e-05
5.3915e-05
4.59401e-05
3.89993e-05
3.29719e-05
2.7763e-05
2.32807e-05
1.9443e-05
1.61723e-05
1.33983e-05
1.10515e-05
9.0737e-06
7.41124e-06
6.02022e-06
4.85738e-06
3.89152e-06
3.09293e-06
2.4349e-06
1.8966e-06
1.46068e-06
1.11074e-06
8.36331e-07
6.28436e-07
4.79926e-07
3.8728e-07
3.43843e-07
3.34262e-07
3.43214e-07
3.58377e-07
3.73756e-07
3.86532e-07
3.96302e-07
4.02742e-07
4.06955e-07
4.08697e-07
4.09466e-07
4.08496e-07
4.07475e-07
4.05793e-07
4.04172e-07
4.01999e-07
4.01393e-07
3.96654e-07
4.01409e-07
3.86538e-07
4.11219e-07
3.69822e-07
4.56482e-07
3.96686e-07
7.84987
12.6492
12.2609
10.2667
7.90028
5.63336
3.69133
2.15367
1.03488
0.33941
0.0694343
0.0191771
2.23745e-06
5.44993e-06
4.31859e-05
0.000294068
0.000251288
0.000197427
0.00017354
0.000152904
0.000132883
0.000115116
9.95765e-05
8.58898e-05
7.38837e-05
6.33668e-05
5.41932e-05
4.61724e-05
3.919e-05
3.31287e-05
2.78906e-05
2.3385e-05
1.95278e-05
1.62416e-05
1.34555e-05
1.10995e-05
9.11458e-06
7.4464e-06
6.05108e-06
4.88442e-06
3.91468e-06
3.11384e-06
2.45335e-06
1.91297e-06
1.47558e-06
1.12405e-06
8.48827e-07
6.39835e-07
4.90388e-07
3.96431e-07
3.51409e-07
3.40127e-07
3.47709e-07
3.61883e-07
3.76642e-07
3.88927e-07
3.98418e-07
4.04618e-07
4.08657e-07
4.102e-07
4.10831e-07
4.09677e-07
4.08441e-07
4.06629e-07
4.04787e-07
4.02379e-07
4.01682e-07
3.96395e-07
4.01501e-07
3.85193e-07
4.11794e-07
3.65865e-07
4.57784e-07
3.93933e-07
5.41126
12.3045
14.3184
13.1324
10.8084
8.26734
5.90395
3.88499
2.2729
1.09205
0.358564
0.0718227
0.0168271
0.00421035
5.2877e-06
4.31009e-06
0.000233852
0.000229836
0.000177223
0.000151831
0.000133833
0.000116181
0.000100289
8.64771e-05
7.43957e-05
6.3792e-05
5.45322e-05
4.64566e-05
3.94246e-05
3.3321e-05
2.80458e-05
2.35096e-05
1.96285e-05
1.63229e-05
1.35211e-05
1.11538e-05
9.15984e-06
7.48484e-06
6.08367e-06
4.91307e-06
3.93878e-06
3.1348e-06
2.47164e-06
1.92895e-06
1.48959e-06
1.13655e-06
8.60265e-07
6.49732e-07
4.9935e-07
4.04407e-07
3.57882e-07
3.45306e-07
3.51814e-07
3.65237e-07
3.79384e-07
3.91512e-07
4.00634e-07
4.06741e-07
4.10478e-07
4.11974e-07
4.12237e-07
4.11195e-07
4.09619e-07
4.0755e-07
4.05615e-07
4.02756e-07
4.02189e-07
3.9626e-07
4.01628e-07
3.83941e-07
4.12245e-07
3.62114e-07
4.58339e-07
3.91219e-07
3.78424
10.568
14.5294
14.9062
13.3151
10.9512
8.44019
6.08886
4.04649
2.38871
1.15975
0.389693
0.0777955
0.0170801
1.08927e-05
3.55517e-07
1.71092e-05
0.000163013
0.000209686
0.000160196
0.000132695
0.000116676
0.000101516
8.72973e-05
7.49674e-05
6.4302e-05
5.49723e-05
4.6817e-05
3.97153e-05
3.35578e-05
2.8237e-05
2.36621e-05
1.97491e-05
1.64183e-05
1.35969e-05
1.12151e-05
9.20986e-06
7.52643e-06
6.1183e-06
4.94254e-06
3.96368e-06
3.15598e-06
2.48987e-06
1.94489e-06
1.50357e-06
1.14918e-06
8.71878e-07
6.60227e-07
5.09122e-07
4.13475e-07
3.65602e-07
3.51759e-07
3.57081e-07
3.69628e-07
3.83096e-07
3.94762e-07
4.03463e-07
4.09303e-07
4.12701e-07
4.1401e-07
4.13929e-07
4.12779e-07
4.10889e-07
4.08518e-07
4.06418e-07
4.03141e-07
4.0256e-07
3.96034e-07
4.01617e-07
3.82558e-07
4.12503e-07
3.58241e-07
4.58738e-07
3.88529e-07
2.91355
8.6498
13.4237
15.3488
14.9634
13.2687
10.9959
8.58144
6.27756
4.23233
2.53943
1.26218
0.445167
0.0930796
0.0188422
0.00562457
0
1.16641e-05
0.000109273
0.000183356
0.000148635
0.00011655
0.000100873
8.84146e-05
7.60426e-05
6.49189e-05
5.54085e-05
4.72076e-05
4.00521e-05
3.38289e-05
2.84511e-05
2.38319e-05
1.98832e-05
1.65233e-05
1.36793e-05
1.12804e-05
9.26265e-06
7.56994e-06
6.15443e-06
4.97274e-06
3.98925e-06
3.17767e-06
2.50846e-06
1.9612e-06
1.51801e-06
1.16241e-06
8.84144e-07
6.71759e-07
5.20114e-07
4.23855e-07
3.74701e-07
3.59496e-07
3.63446e-07
3.74923e-07
3.87603e-07
3.98519e-07
4.06733e-07
4.1213e-07
4.15161e-07
4.16135e-07
4.1575e-07
4.14279e-07
4.1209e-07
4.09412e-07
4.07057e-07
4.03422e-07
4.02681e-07
3.95603e-07
4.01375e-07
3.8097e-07
4.12482e-07
3.54177e-07
4.58955e-07
3.85838e-07
2.48948
6.97882
11.6578
14.6166
15.5037
14.8212
13.1798
11.0496
8.75532
6.51461
4.47741
2.75241
1.4199
0.539297
0.124502
0.0226788
0.00763995
6.35051e-05
7.12961e-06
3.76227e-05
0.000141447
0.000140096
0.000105488
8.63078e-05
7.57176e-05
6.58892e-05
5.62162e-05
4.76648e-05
4.03786e-05
3.41185e-05
2.86969e-05
2.40245e-05
2.00303e-05
1.66368e-05
1.37682e-05
1.13507e-05
9.31875e-06
7.61562e-06
6.19215e-06
5.00423e-06
4.0159e-06
3.20026e-06
2.52783e-06
1.97819e-06
1.53316e-06
1.17634e-06
8.9716e-07
6.84186e-07
5.3209e-07
4.3511e-07
3.84715e-07
3.67991e-07
3.70424e-07
3.80663e-07
3.92386e-07
4.02498e-07
4.10118e-07
4.14996e-07
4.17592e-07
4.18176e-07
4.17442e-07
4.1561e-07
4.13103e-07
4.1011e-07
4.07474e-07
4.03485e-07
4.02542e-07
3.94937e-07
4.00871e-07
3.79186e-07
4.12134e-07
3.49993e-07
4.58821e-07
3.8318e-07
2.35012
5.62903
9.72868
13.0886
14.9641
15.3633
14.6192
13.1059
11.1447
8.9866
6.82344
4.80461
3.04991
1.654
0.689532
0.184941
0.0339261
0.00111757
0.00106407
1.88884e-06
9.7897e-06
7.37588e-05
0.000126826
0.000103083
7.71832e-05
6.41811e-05
5.61041e-05
4.84004e-05
4.09753e-05
3.44606e-05
2.89372e-05
2.42329e-05
2.02046e-05
1.67701e-05
1.38669e-05
1.14259e-05
9.37859e-06
7.66466e-06
6.23257e-06
5.03778e-06
4.04412e-06
3.22413e-06
2.54833e-06
1.99622e-06
1.54933e-06
1.19125e-06
9.11175e-07
6.97652e-07
5.45101e-07
4.47292e-07
3.95585e-07
3.77165e-07
3.77915e-07
3.86747e-07
3.97336e-07
4.06596e-07
4.13508e-07
4.17811e-07
4.19897e-07
4.20061e-07
4.18916e-07
4.16731e-07
4.13882e-07
4.10557e-07
4.07639e-07
4.03284e-07
4.02142e-07
3.94032e-07
4.00091e-07
3.77219e-07
4.11443e-07
3.45744e-07
4.58295e-07
3.80547e-07
2.36256
4.56642
7.90974
11.1678
13.587
14.8742
15.0773
14.3907
13.0501
11.2803
9.27827
7.21218
5.22749
3.45031
1.98608
0.917636
0.296686
0.0589648
0.00597116
0.00335629
6.93285e-07
4.15481e-06
8.00008e-06
7.52934e-05
9.66675e-05
7.49374e-05
5.67514e-05
4.73313e-05
4.10097e-05
3.50419e-05
2.93979e-05
2.44855e-05
2.03654e-05
1.6906e-05
1.39839e-05
1.15174e-05
9.4467e-06
7.71694e-06
6.27507e-06
5.07369e-06
4.0748e-06
3.25006e-06
2.57046e-06
2.01566e-06
1.56686e-06
1.20755e-06
9.26612e-07
7.12567e-07
5.59473e-07
4.60761e-07
4.07563e-07
3.87227e-07
3.86065e-07
3.93286e-07
4.02573e-07
4.10836e-07
4.16929e-07
4.20574e-07
4.22083e-07
4.21778e-07
4.20185e-07
4.17623e-07
4.14417e-07
4.10739e-07
4.07534e-07
4.02814e-07
4.0147e-07
3.92884e-07
3.99021e-07
3.75065e-07
4.10392e-07
3.4145e-07
4.57393e-07
3.77884e-07
2.4038
3.73499
6.29663
9.15623
11.696
13.5308
14.5202
14.6819
14.1223
12.9876
11.4344
9.61505
7.67419
5.74872
3.9657
2.43585
1.2539
0.488081
0.122356
0.0193102
2.20985e-05
0.00084649
3.57835e-07
4.53037e-06
1.88334e-05
6.46206e-05
7.05849e-05
5.40821e-05
4.12089e-05
3.42084e-05
2.94079e-05
2.49508e-05
2.07526e-05
1.71046e-05
1.40832e-05
1.15929e-05
9.51817e-06
7.77967e-06
6.32501e-06
5.11281e-06
4.10703e-06
3.27769e-06
2.59476e-06
2.03732e-06
1.58636e-06
1.22568e-06
9.4383e-07
7.29299e-07
5.7559e-07
4.75839e-07
4.20899e-07
3.98378e-07
3.95031e-07
4.00398e-07
4.08189e-07
4.15268e-07
4.20419e-07
4.23306e-07
4.24166e-07
4.2333e-07
4.21257e-07
4.1828e-07
4.147e-07
4.10657e-07
4.07149e-07
4.02077e-07
4.00514e-07
3.91491e-07
3.97652e-07
3.72736e-07
4.08963e-07
3.37129e-07
4.56121e-07
3.75128e-07
2.32666
3.03246
4.87126
7.20927
9.57395
11.606
13.0978
13.9532
14.1624
13.7741
12.8739
11.5656
9.96258
8.18468