/*--------------------------------*- C++ -*----------------------------------*\
| =========                 |                                                 |
| \\      /  F ield         | OpenFOAM: The Open Source CFD Toolbox           |
|  \\    /   O peration     | Version:  2312                                  |
|   \\  /    A nd           | Website:  www.openfoam.com                      |
|    \\/     M anipulation  |                                                 |
\*---------------------------------------------------------------------------*/
FoamFile
{
    version     2.0;
    format      ascii;
    arch        "LSB;label=32;scalar=64";
    class       volVectorField;
    location    "1000";
    object      momentError;
}
// * * * * * * * * * * * * * * * * * * * * * * * * * * * * * * * * * * * * * //

dimensions      [0 1 -2 0 0 0 0];

internalField   nonuniform List<vector> 
11040
(
(-0.0230962 0.0405637 -6.47457e-16)
(0.00537646 -0.119396 -3.04945e-16)
(-0.0216932 -0.0860498 4.72479e-15)
(-0.00499913 0.0067618 6.66324e-16)
(-0.00444026 -0.00259271 3.78441e-15)
(-0.00390602 -0.000239423 -2.49277e-15)
(-0.00452821 -0.000552511 -5.94465e-15)
(-0.00465489 -0.000472044 -1.11484e-15)
(-0.00476294 -0.00044316 -3.98009e-16)
(-0.00494634 -0.000460291 2.12977e-15)
(-0.00512063 -0.000454948 1.03404e-15)
(-0.00527018 -0.000416379 -5.73207e-16)
(-0.00532902 -0.00034621 -9.68288e-16)
(-0.00539244 -0.000284031 6.86992e-16)
(-0.00545236 -0.0002241 -4.02207e-16)
(-0.00548673 -0.000160112 -9.8876e-16)
(-0.00536819 -8.0474e-05 7.53982e-16)
(-0.00552557 -5.45687e-06 6.98736e-16)
(-0.00566586 6.41336e-05 -2.5587e-16)
(-0.00580718 0.000151272 -5.48206e-17)
(-0.00576936 0.00023916 5.81169e-16)
(-0.00604965 0.000311435 -3.13508e-16)
(-0.00614362 0.000345535 2.61478e-16)
(-0.00610822 0.000399322 1.32472e-16)
(-0.00583455 0.000435441 -1.34611e-15)
(-0.00563137 0.00053655 -1.01492e-15)
(-0.00512914 0.000299372 -4.84404e-16)
(-0.00533007 0.000453879 -3.46297e-16)
(-0.00410079 0.00127539 -1.13506e-15)
(-0.00259787 0.00511899 4.92453e-16)
(0.00158893 0.00108415 1.12966e-15)
(-0.00361566 0.00543071 2.40853e-15)
(0.0358722 0.0746331 2.96655e-15)
(0.161101 0.31382 -2.55928e-16)
(0.222454 0.328055 1.75552e-15)
(0.0124563 -0.164814 6.48092e-16)
(-0.107773 -0.332642 1.2279e-15)
(-0.0174255 -0.0288487 -1.34355e-16)
(-0.00420921 0.000450197 -1.10894e-15)
(-0.00193778 -0.000425302 -1.36676e-15)
(0.00128868 -0.00897627 -1.3145e-15)
(-0.0411922 0.139184 7.9854e-16)
(-0.00741537 0.0511108 2.89211e-15)
(-0.0339304 -0.106703 6.21438e-15)
(-0.0399453 -0.0639491 -1.13795e-15)
(-0.0130858 -0.00292721 -4.19603e-16)
(-0.00546476 -0.00145099 -4.67826e-17)
(-0.00589268 -0.00128213 1.76611e-15)
(-0.00677048 -0.00164514 9.10761e-16)
(-0.00688318 -0.00141118 -1.6367e-16)
(-0.00709861 -0.00124825 -7.91188e-16)
(-0.00732512 -0.0011446 1.72389e-15)
(-0.00752696 -0.0010237 1.21309e-15)
(-0.00762131 -0.00084087 1.32665e-15)
(-0.00776685 -0.00068437 -3.69766e-17)
(-0.00783422 -0.000533001 -2.31597e-16)
(-0.00794627 -0.000399302 4.25509e-16)
(-0.00828124 -0.000262422 3.85649e-16)
(-0.00841702 -0.000114997 3.74309e-16)
(-0.00854187 3.11578e-05 -1.89649e-17)
(-0.00857154 0.000198256 -8.66726e-17)
(-0.00850909 0.000350527 -2.28267e-16)
(-0.008697 0.000457168 3.64288e-16)
(-0.00872853 0.000517206 2.33738e-16)
(-0.00865633 0.000570851 3.20581e-16)
(-0.00853646 0.000625816 -3.672e-16)
(-0.00845945 0.000674911 -6.6538e-16)
(-0.00876815 0.000733836 7.04667e-16)
(-0.0092463 0.000741852 5.33048e-16)
(-0.0105706 0.00111893 -6.82124e-16)
(-0.011824 0.00194693 -9.86774e-16)
(-0.0190207 0.00249627 -9.53985e-16)
(-0.020587 -0.00103422 -1.87304e-15)
(-0.0344684 -0.00102622 -9.37246e-17)
(-0.0614287 0.00571989 1.10998e-15)
(-0.13033 -0.015883 -7.5803e-16)
(-0.121392 -0.0570967 1.88093e-16)
(-0.0272642 -0.00558597 -1.13242e-16)
(-0.0230291 0.00369614 8.56025e-16)
(-0.0168547 0.00246342 -6.3845e-16)
(-0.00993548 3.86021e-05 -4.74103e-16)
(-0.0135779 -0.0115781 1.15939e-16)
(-0.0144462 0.0480403 1.49484e-16)
(0.00706651 0.114727 -1.32841e-15)
(-0.00546904 0.0695703 -7.61817e-15)
(-0.0414343 -0.0685925 2.80721e-15)
(-0.0510999 -0.066393 1.04702e-15)
(-0.0191066 -0.0118541 4.60847e-16)
(-0.00710833 -0.00119839 1.64752e-15)
(-0.00762346 -0.00140279 3.81873e-16)
(-0.00785181 -0.00126258 -4.54122e-16)
(-0.00826642 -0.00130745 -9.13589e-17)
(-0.00841281 -0.00110737 -1.36107e-15)
(-0.00857853 -0.00104662 5.6158e-16)
(-0.00866158 -0.000833918 -3.43681e-17)
(-0.00882771 -0.000673022 2.98529e-16)
(-0.0089174 -0.000517631 7.53188e-16)
(-0.00904473 -0.00039648 -1.80042e-17)
(-0.00916562 -0.000268899 -2.85194e-16)
(-0.00925266 -0.000140965 -5.98564e-17)
(-0.00930668 -9.5438e-06 8.14195e-18)
(-0.00930021 0.000149348 1.46482e-16)
(-0.00917942 0.000294107 2.67495e-16)
(-0.00937176 0.000399026 -9.48904e-17)
(-0.00944176 0.000462653 1.25216e-16)
(-0.00946979 0.000535672 -2.93819e-16)
(-0.00948677 0.000619464 1.87436e-16)
(-0.00958687 0.000714443 5.61683e-16)
(-0.00984204 0.000861899 -2.8755e-16)
(-0.0102978 0.00101886 -3.60105e-16)
(-0.0109864 0.00125071 1.84289e-16)
(-0.0119604 0.00175988 7.09711e-16)
(-0.0130734 0.00266347 -3.18239e-16)
(-0.0145106 0.00250437 -2.51786e-16)
(-0.0153559 -2.19227e-05 1.11255e-18)
(-0.01772 -0.00530128 1.37369e-16)
(-0.024497 -0.0132957 -5.8166e-16)
(-0.0309713 -0.00992745 -1.48109e-15)
(-0.0290862 0.0108794 6.33632e-17)
(-0.0313818 0.00598919 5.24478e-16)
(-0.02906 0.0031384 8.07529e-17)
(-0.0229037 -0.000253458 8.22072e-16)
(-0.0310636 -0.0116611 1.33178e-16)
(-0.0163621 0.0437861 -2.6859e-16)
(-0.00317608 0.0708355 2.37099e-17)
(0.0185723 0.102353 1.738e-15)
(0.00995805 0.0522312 -7.92143e-16)
(-0.0311495 -0.0388159 -1.56937e-15)
(-0.0492775 -0.0539996 2.55262e-15)
(-0.0268344 -0.0191969 9.42975e-16)
(-0.00814913 -0.00194528 3.91885e-16)
(-0.00869387 -0.00132013 -2.66543e-16)
(-0.00833076 -0.000960321 5.06455e-16)
(-0.00875837 -0.000866964 7.8495e-16)
(-0.00885097 -0.000947894 -8.95576e-16)
(-0.00885114 -0.000665474 7.68488e-16)
(-0.00897748 -0.000527825 4.19374e-16)
(-0.00907876 -0.000377851 1.12789e-16)
(-0.00914916 -0.000265762 -4.03196e-16)
(-0.00921842 -0.000164076 -3.78179e-16)
(-0.00924876 -6.59647e-05 -2.11286e-16)
(-0.0092478 2.87864e-05 4.01953e-17)
(-0.0092034 0.000148233 -5.32822e-17)
(-0.00907576 0.000248223 -3.57458e-17)
(-0.00925264 0.000318105 -8.44496e-17)
(-0.00935661 0.000358932 -1.80741e-16)
(-0.009458 0.000425426 -4.99346e-18)
(-0.0095715 0.000525282 -7.73574e-16)
(-0.00976335 0.000651439 -3.22692e-16)
(-0.0101052 0.000863509 3.98082e-16)
(-0.0106811 0.0011446 2.67252e-16)
(-0.0116131 0.00152179 6.3154e-16)
(-0.0129847 0.00219605 -3.85476e-16)
(-0.0146433 0.00357087 5.02125e-16)
(-0.0162809 0.00510714 -5.51646e-16)
(-0.0179843 0.00498065 -4.54497e-16)
(-0.0222204 0.0020961 4.39258e-16)
(-0.0298839 -0.000540728 -1.22255e-16)
(-0.0359196 0.00288399 -8.51631e-17)
(-0.0371898 0.00870397 -5.46803e-16)
(-0.0401686 0.00632768 4.56805e-16)
(-0.0379291 0.00434502 -2.1896e-16)
(-0.0380876 -0.00126301 -9.22995e-17)
(-0.0498389 -0.0126516 7.04907e-16)
(-0.0107056 0.041434 2.17381e-16)
(-0.0080383 0.0427996 -1.39139e-16)
(0.0120115 0.0626097 -1.34991e-16)
(0.0246274 0.080466 8.59503e-16)
(0.0170564 0.0509183 1.94278e-16)
(-0.0137212 -0.00741288 -4.43234e-16)
(-0.0401098 -0.0370359 -5.92288e-16)
(-0.0321258 -0.0239829 -1.32445e-15)
(-0.0127491 -0.00330078 2.703e-16)
(-0.00809363 -0.000898975 -9.43165e-17)
(-0.00835703 -0.000582101 4.34254e-16)
(-0.00839826 -0.000629279 1.96611e-16)
(-0.00855989 -0.000413294 -3.7489e-16)
(-0.00868675 -0.00035185 -6.1423e-16)
(-0.00871202 -0.000195668 2.01504e-16)
(-0.00873823 -0.00011203 4.8717e-18)
(-0.00877436 -4.2588e-05 -1.65447e-16)
(-0.00877362 2.40426e-05 -2.39853e-16)
(-0.0087457 8.21056e-05 -4.54778e-17)
(-0.0086913 0.000163183 4.82114e-17)
(-0.00856714 0.000221445 1.3385e-16)
(-0.00871924 0.000256653 -2.6144e-16)
(-0.00881841 0.00027189 -5.55195e-17)
(-0.00892282 0.000318006 4.21025e-16)
(-0.00904629 0.000413451 2.46542e-16)
(-0.0092529 0.000555407 -2.53276e-16)
(-0.00962233 0.000809729 2.48885e-16)
(-0.0102459 0.00117902 1.91593e-16)
(-0.0112537 0.00170399 -3.67536e-16)
(-0.0127199 0.00254034 2.22478e-16)
(-0.0145657 0.00401358 -3.3475e-17)
(-0.0166503 0.0057712 7.52644e-16)
(-0.0192794 0.00619052 1.76468e-16)
(-0.0244572 0.00436345 -6.30019e-17)
(-0.0323813 0.00338708 1.39332e-16)
(-0.0386653 0.00663338 2.97185e-16)
(-0.041622 0.00947685 -1.24827e-16)
(-0.0463296 0.00712399 2.08225e-16)
(-0.0475208 0.00519901 8.13347e-17)
(-0.0494318 -0.000520009 -2.28876e-16)
(-0.0662952 -0.0115295 -2.10289e-16)
(-0.00808365 0.0360395 -3.82766e-17)
(-0.00444227 0.0340191 2.60446e-17)
(0.00514011 0.0374086 6.46761e-17)
(0.0149291 0.0557339 2.45336e-16)
(0.0253124 0.066124 -9.07973e-16)
(0.0241283 0.0503765 1.1502e-16)
(0.00392037 0.0164304 -5.51643e-16)
(-0.0197746 -0.00533348 -8.79571e-16)
(-0.0338269 -0.0265463 1.60972e-16)
(-0.0170967 -0.00794818 -3.08351e-16)
(-0.00761087 -0.000710223 2.18922e-17)
(-0.00767177 -0.000829524 6.35506e-18)
(-0.00773366 -0.000223623 -2.26778e-17)
(-0.00795244 -4.37985e-05 -3.27584e-16)
(-0.0081212 -1.60199e-05 1.39421e-17)
(-0.00817303 2.71505e-05 -1.83088e-16)
(-0.00815133 7.27069e-05 -1.08277e-16)
(-0.00812523 0.00010933 -8.54842e-17)
(-0.00807568 0.000131499 -3.93349e-17)
(-0.00801683 0.000176013 5.65127e-17)
(-0.00789842 0.000193648 5.10506e-17)
(-0.00801933 0.000194592 3.16712e-17)
(-0.00809027 0.000183671 -3.59242e-18)
(-0.00816544 0.000206846 -1.76233e-16)
(-0.00826266 0.000292286 1.26378e-16)
(-0.00844155 0.000447141 4.84436e-16)
(-0.00878227 0.000737975 -4.06271e-16)
(-0.00937608 0.00118642 -4.63379e-16)
(-0.010339 0.00184482 -1.66706e-16)
(-0.01173 0.00282808 1.81942e-16)
(-0.013515 0.00432731 3.5523e-16)
(-0.0158526 0.00604683 -1.15303e-16)
(-0.0190409 0.00675421 -2.42888e-16)
(-0.024488 0.00594867 -3.68051e-16)
(-0.0321417 0.0059738 -1.46344e-16)
(-0.0388216 0.00875428 5.82731e-16)
(-0.0434673 0.0105982 2.88852e-16)
(-0.0499059 0.0084305 -4.4658e-17)
(-0.0544995 0.00669914 4.33743e-16)
(-0.0589178 0.00123319 -2.86309e-16)
(-0.0791315 -0.00666963 -1.91984e-16)
(-0.00542141 0.0305219 6.80173e-17)
(-0.0023409 0.0297138 -3.52747e-17)
(0.00318472 0.027185 -9.42537e-17)
(0.0083768 0.0348881 -4.04064e-16)
(0.0164635 0.0464287 -3.44988e-16)
(0.0251455 0.0519611 3.03697e-16)
(0.0249795 0.0492173 3.79006e-16)
(0.0145559 0.0157296 -1.13327e-16)
(-0.0143505 -0.0331229 8.23884e-16)
(-0.0155235 -0.001728 -4.58161e-16)
(-0.0232056 -0.0186047 2.43144e-16)
(-0.0104448 -0.00386927 -6.4708e-17)
(-0.0072719 -0.00107433 5.96031e-16)
(-0.00704747 -0.000234801 -6.51883e-16)
(-0.00713895 0.000177593 1.33585e-16)
(-0.00731904 0.000302378 -1.64117e-16)
(-0.00744411 0.000193916 -8.54598e-18)
(-0.00746726 0.000184936 8.48014e-17)
(-0.00741176 0.000169296 -2.01423e-18)
(-0.00735999 0.000180073 -1.8947e-16)
(-0.00725154 0.000161813 1.86413e-16)
(-0.00734486 0.000131934 -1.46575e-16)
(-0.00737756 9.38672e-05 -1.24606e-16)
(-0.00740218 9.19396e-05 2.01244e-16)
(-0.0074432 0.000162607 -1.35963e-16)
(-0.00755381 0.000325003 -1.4803e-16)
(-0.00780809 0.000647444 -1.09282e-16)
(-0.00829407 0.00116749 -8.56399e-17)
(-0.00911082 0.0019423 -5.31447e-18)
(-0.0103177 0.00305231 1.7593e-16)
(-0.0118923 0.00456418 6.57909e-17)
(-0.0142763 0.00627813 1.63239e-16)
(-0.0176905 0.00733928 -2.21572e-16)
(-0.0230467 0.00753607 -3.78213e-16)
(-0.0302436 0.00835872 -1.9415e-16)
(-0.0372229 0.0107433 4.2784e-16)
(-0.0433367 0.0121741 1.44098e-17)
(-0.0512433 0.01052 -8.93943e-18)
(-0.058872 0.00907402 1.77784e-16)
(-0.0668145 0.00289148 2.50419e-16)
(-0.0881183 0.00250908 -1.78676e-16)
(-0.0033157 0.0255123 -2.26831e-17)
(-0.000703707 0.0251058 7.05759e-17)
(0.00264899 0.0213381 -2.01302e-17)
(0.00657451 0.0247583 8.06949e-18)
(0.0109757 0.0301338 1.31439e-16)
(0.0172345 0.037044 6.08525e-16)
(0.0264288 0.0386538 -4.89951e-16)
(0.039489 0.0189403 -8.11196e-16)
(0.0467281 0.0616489 1.54481e-16)
(0.00488253 0.0214943 4.43254e-16)
(-0.00201266 -0.00856302 1.46287e-15)
(-0.0139914 -0.00179259 -1.63125e-15)
(-0.0161538 -0.00864014 6.65609e-16)
(-0.00794961 -0.00143473 -1.5017e-16)
(-0.00622488 -0.000168786 -3.9707e-16)
(-0.00626636 0.000229218 4.59837e-16)
(-0.00635087 0.000370871 3.04098e-17)
(-0.00650854 0.00039792 3.69298e-16)
(-0.0066542 0.000229735 -2.22292e-16)
(-0.00670026 0.000193622 -2.09511e-16)
(-0.00665165 0.000134558 2.69922e-16)
(-0.00676998 7.15772e-05 -7.81317e-17)
(-0.00679803 7.79992e-07 -1.82375e-16)
(-0.00677853 -3.43504e-05 5.6864e-17)
(-0.00674185 1.44773e-05 7.62895e-17)
(-0.00674142 0.000177849 -6.11155e-17)
(-0.00685292 0.000522877 -1.0387e-16)
(-0.00715877 0.00110194 2.35661e-16)
(-0.00774559 0.0019739 2.66355e-16)
(-0.00868609 0.00319113 -1.49644e-16)
(-0.0099942 0.00473388 -2.28622e-16)
(-0.0121737 0.00652932 -8.77705e-17)
(-0.0155077 0.00803696 1.72085e-16)
(-0.0205217 0.00916494 1.03106e-16)
(-0.0271756 0.0107162 -3.94899e-17)
(-0.0342912 0.0130144 -1.2173e-16)
(-0.0415406 0.0144545 2.71259e-16)
(-0.0506022 0.0136221 -2.72291e-16)
(-0.0607561 0.0128625 5.36217e-17)
(-0.0723945 0.00940843 6.31079e-17)
(-0.0956909 0.0107643 1.84316e-16)
(-0.00173457 0.0209072 -4.58415e-17)
(0.000480546 0.0209043 1.27621e-17)
(0.00270504 0.0176271 -1.42655e-17)
(0.00515911 0.0186237 -1.68864e-16)
(0.00846456 0.0216299 6.11471e-17)
(0.0119663 0.025304 -6.00974e-18)
(0.0166804 0.0286934 -1.30504e-16)
(0.0218266 0.0329751 4.99067e-16)
(0.0202435 0.0270572 -2.28674e-16)
(0.0375054 0.0175931 6.56784e-16)
(0.026919 0.0297205 4.39442e-17)
(0.0334955 0.0518497 -2.9666e-16)
(-0.00294068 -0.000851007 9.16416e-17)
(-0.00857735 0.00218373 -2.96245e-16)
(-0.0106986 -0.00388693 -4.23322e-16)
(-0.00621322 -0.000809596 4.34641e-17)
(-0.0052022 -5.41444e-05 1.84829e-16)
(-0.00532884 0.000308892 3.0378e-16)
(-0.00547651 0.000365446 -3.77688e-17)
(-0.0056648 0.000362357 -2.5371e-16)
(-0.00588409 0.000155262 2.4052e-16)
(-0.00616428 2.81222e-05 1.24908e-17)
(-0.00628211 -9.01767e-05 -4.36203e-17)
(-0.00629168 -0.000172573 1.04143e-16)
(-0.00622486 -0.000160127 1.4025e-16)
(-0.00612633 -2.00795e-05 1.79968e-16)
(-0.00606254 0.000326668 3.25082e-17)
(-0.00612198 0.000946316 1.56778e-17)
(-0.00639956 0.00189986 -1.14635e-16)
(-0.00699621 0.00321339 6.16795e-18)
(-0.00798519 0.00484762 -1.34127e-16)
(-0.00973014 0.00678641 4.13945e-17)
(-0.0126948 0.00881524 -6.46939e-17)
(-0.0171451 0.0108075 -8.401e-17)
(-0.0231477 0.013106 5.76287e-17)
(-0.03016 0.015706 8.47263e-17)
(-0.0381034 0.0176171 3.1978e-17)
(-0.0479603 0.0179529 1.64735e-17)
(-0.0599005 0.0182771 -8.95192e-17)
(-0.0742102 0.0177235 1.64381e-16)
(-0.0977871 0.0205996 2.86598e-17)
(-0.00058653 0.0168261 1.52477e-16)
(0.00128245 0.0170776 -4.48844e-17)
(0.00301728 0.0147718 -1.44944e-16)
(0.00431101 0.0144832 1.68684e-16)
(0.00682878 0.0162558 9.86722e-18)
(0.00965298 0.0182336 2.01039e-17)
(0.0128096 0.0203211 4.5291e-16)
(0.0162008 0.0223284 -8.79268e-16)
(0.0202641 0.0218936 -2.03769e-16)
(0.0209182 0.0147314 1.53782e-15)
(0.0354164 0.0519187 3.75926e-17)
(0.017644 -0.00242342 -1.24433e-16)
(0.0483824 0.0236506 -6.78383e-16)
(0.0183254 0.0236454 4.5602e-16)
(0.00709514 0.00783449 -1.08037e-15)
(-0.00658152 -0.00149376 2.34804e-16)
(-0.0076179 -0.00311196 -4.62747e-17)
(-0.00511202 -0.00097662 2.67096e-16)
(-0.00423565 -6.14485e-05 -1.12994e-16)
(-0.00443591 0.000289507 -2.93336e-16)
(-0.0047144 0.000277189 1.86009e-16)
(-0.00515675 0.000174015 -6.10034e-17)
(-0.00553871 -9.26077e-05 -8.38247e-17)
(-0.00573685 -0.000294527 1.17632e-16)
(-0.00576469 -0.000366852 1.09432e-16)
(-0.00566789 -0.000285602 -1.01301e-16)
(-0.00549578 2.8284e-05 5.68671e-17)
(-0.00533126 0.000649173 1.12423e-16)
(-0.00527773 0.0016444 4.63234e-17)
(-0.00545983 0.00304705 -6.27712e-17)
(-0.0060106 0.0048397 5.43813e-17)
(-0.00714156 0.00698183 7.08584e-17)
(-0.00945968 0.00957014 6.8089e-17)
(-0.0131048 0.0123925 6.53582e-17)
(-0.0182484 0.0155368 1.29783e-16)
(-0.0247785 0.0188428 -1.45194e-16)
(-0.0328078 0.0216896 5.04083e-17)
(-0.0428779 0.0235265 7.72831e-18)
(-0.0555615 0.0254695 8.47209e-18)
(-0.0711116 0.0276003 -2.17074e-17)
(-0.0937456 0.0322063 -2.73445e-17)
(0.000205351 0.013307 2.98951e-17)
(0.00177917 0.0136716 1.0601e-16)
(0.00313846 0.0120967 8.69259e-17)
(0.00412987 0.0117812 -4.05678e-17)
(0.00545752 0.0119979 -4.75761e-17)
(0.00774159 0.0136348 1.14156e-16)
(0.0100641 0.0150534 9.22374e-17)
(0.0125161 0.0166041 -2.75593e-16)
(0.0152815 0.0175523 3.68295e-16)
(0.018455 0.0167627 -5.50713e-16)
(0.0173907 0.00175327 -1.11772e-15)
(0.0304099 0.00723222 -2.64756e-16)
(0.0283207 0.0143701 3.97177e-16)
(0.0374764 0.0193905 -4.74156e-16)
(0.0378906 0.025805 -4.45143e-16)
(0.0231113 0.0160787 6.16178e-16)
(0.0102637 0.0112505 -1.17491e-16)
(-0.00426349 -0.00140114 6.68046e-16)
(-0.00576139 -0.00236051 5.7402e-17)
(-0.00419533 -0.000943993 -3.62801e-16)
(-0.00343659 -6.91177e-05 4.07607e-17)
(-0.0038692 0.000177779 -3.51301e-17)
(-0.00437617 2.90889e-05 -1.93086e-17)
(-0.0047718 -0.00020423 -1.04111e-16)
(-0.0050302 -0.000447248 2.35448e-16)
(-0.00510423 -0.000548944 -1.4438e-17)
(-0.00498542 -0.000383396 -8.865e-17)
(-0.00472944 0.000143895 4.30688e-19)
(-0.00443132 0.00111773 -3.28631e-17)
(-0.00422065 0.00259161 2.64041e-17)
(-0.00427354 0.00456106 -1.43938e-16)
(-0.00478632 0.00696654 2.54239e-17)
(-0.00609748 0.0100412 8.77668e-17)
(-0.00862743 0.0137047 1.28245e-16)
(-0.0125622 0.0178408 9.15974e-17)
(-0.0180506 0.0222115 -9.13503e-17)
(-0.0253297 0.0264103 -1.07733e-16)
(-0.0347027 0.0300292 -7.35383e-17)
(-0.0468022 0.0339519 -1.88606e-16)
(-0.0618955 0.0383648 -1.85352e-16)
(-0.0822436 0.0445165 -1.12222e-16)
(0.000713286 0.0103384 7.90847e-17)
(0.00203205 0.0107276 8.30113e-17)
(0.0031153 0.00965893 -1.51332e-16)
(0.00397167 0.00951864 -4.40504e-17)
(0.00478485 0.00938408 1.25777e-16)
(0.00625932 0.0100219 -3.57259e-17)
(0.00821092 0.0111214 -1.02785e-16)
(0.0102657 0.011928 3.53065e-17)
(0.0123883 0.0126803 1.01298e-15)
(0.0145642 0.0134097 -3.48643e-16)
(0.0170885 0.0136372 -8.45098e-16)
(0.0177411 0.00881485 1.02729e-15)
(0.0199249 0.00324047 4.84746e-16)
(0.0240837 0.00144142 6.61095e-17)
(0.0333695 0.00537637 1.33868e-16)
(0.0276024 0.0164617 -3.49382e-16)
(0.0517772 0.0426808 -1.16297e-16)
(0.0242278 0.0134139 2.22078e-16)
(0.015162 0.0152132 5.20619e-16)
(-0.000936276 0.000293572 -7.24701e-16)
(-0.00407739 -0.00169972 2.43143e-17)
(-0.00367139 -0.00124194 -2.08585e-17)
(-0.00305942 -0.000398247 -6.28845e-17)
(-0.00338503 -0.000215321 -3.75046e-17)
(-0.00384215 -0.000364688 1.67125e-16)
(-0.00415143 -0.00058226 8.46943e-17)
(-0.00422796 -0.000662082 -1.52343e-16)
(-0.00407022 -0.000422225 -7.44412e-17)
(-0.00370617 0.000322552 2.83936e-17)
(-0.00323828 0.00167505 -3.23382e-17)
(-0.00282768 0.00369135 5.88233e-17)
(-0.00268473 0.00638223 -3.06016e-17)
(-0.00300923 0.00980047 5.19591e-17)
(-0.00411419 0.0142006 -1.24989e-17)
(-0.00641336 0.0193745 -1.12038e-16)
(-0.0101354 0.0250507 -2.34355e-17)
(-0.0155938 0.0309421 2.20518e-17)
(-0.0231166 0.0365507 6.45587e-17)
(-0.0331084 0.0425992 -2.09462e-17)
(-0.0458764 0.0489301 -4.57102e-17)
(-0.0625634 0.0563322 -1.67381e-17)
(0.000999631 0.00788562 -6.51704e-17)
(0.00210012 0.00824459 4.22357e-17)
(0.00296826 0.00752551 -8.0962e-18)
(0.00370881 0.00748416 -1.4362e-16)
(0.00442016 0.00743153 1.54904e-17)
(0.00521866 0.00744969 6.98293e-17)
(0.00663285 0.00807196 -1.21526e-16)
(0.00829332 0.00873234 -2.17615e-16)
(0.0100316 0.00911458 2.02237e-17)
(0.0118348 0.00937462 -2.76635e-16)
(0.0136554 0.00957181 3.9535e-16)
(0.0152877 0.00943415 5.28204e-17)
(0.0160607 0.0068431 -2.57349e-16)
(0.0158029 0.00050293 -2.83414e-16)
(0.0135349 -0.0122433 3.30626e-16)
(0.0444767 0.033053 4.4742e-16)
(0.0203198 -0.00837266 -1.5071e-15)
(0.033027 0.00811732 1.2278e-15)
(0.0513506 0.0425455 1.97055e-16)
(0.0306084 0.0147344 -5.23559e-16)
(0.0196826 0.0163393 3.46613e-16)
(0.00388622 0.00286264 -1.08709e-16)
(-0.00191138 -0.00105207 -9.78846e-17)
(-0.00299322 -0.0021512 -5.60276e-17)
(-0.00283753 -0.00160665 2.67055e-16)
(-0.00291747 -0.00108004 1.01836e-17)
(-0.00301739 -0.000843255 -3.08618e-17)
(-0.00308101 -0.000716804 -1.83837e-16)
(-0.00285467 -0.000340704 1.11329e-16)
(-0.00235858 0.000567025 2.07378e-16)
(-0.00167089 0.00223679 -1.98174e-17)
(-0.000936537 0.00481144 -7.22725e-17)
(-0.00037778 0.00829794 -2.66165e-17)
(-0.000121709 0.0128289 -7.08705e-18)
(-0.000426891 0.018786 -1.1434e-16)
(-0.00178267 0.0257981 4.1265e-17)
(-0.00449945 0.0334982 -1.87872e-18)
(-0.00894421 0.0411256 -5.15861e-17)
(-0.0152409 0.049292 4.16069e-18)
(-0.0239683 0.0574523 3.91758e-17)
(-0.0357471 0.0661519 4.54392e-17)
(0.00112327 0.00589637 7.59096e-17)
(0.00203435 0.00619734 -5.77574e-17)
(0.0027309 0.0057154 -6.87743e-17)
(0.00336896 0.00571982 -2.24272e-17)
(0.0039826 0.00570962 1.64612e-16)
(0.00457637 0.00566341 -1.99015e-17)
(0.00536507 0.00572087 6.11459e-17)
(0.00668239 0.00621756 1.74852e-16)
(0.00807435 0.00655352 7.23325e-17)
(0.00952246 0.00667269 -5.3331e-16)
(0.0110102 0.00668726 -2.88578e-16)
(0.0124441 0.00673161 -8.88821e-17)
(0.0137501 0.00658152 -5.28294e-16)
(0.0144471 0.00512477 3.95202e-16)
(0.0144903 0.00156772 1.40211e-15)
(0.00779535 -0.0171843 -7.56203e-16)
(0.0160722 -0.0209087 -2.05305e-16)
(0.0476944 0.0353997 3.02669e-16)
(0.0153676 -0.00791652 -3.35821e-16)
(0.0358674 0.00716197 9.57618e-16)
(0.0513621 0.0366147 -1.75196e-16)
(0.0391348 0.018939 -4.8113e-16)
(0.0298649 0.0202331 -7.03331e-16)
(0.014897 0.00889271 3.5384e-16)
(0.00507387 0.00229122 3.93489e-16)
(0.000103997 -0.00203384 3.60611e-17)
(-0.00138215 -0.00340174 3.26491e-17)
(-0.00188501 -0.0032234 1.66257e-17)
(-0.00191618 -0.00227153 1.38905e-17)
(-0.00146545 -0.000965076 1.01051e-16)
(-0.000665993 0.000644309 8.01655e-17)
(0.000320818 0.00266958 -1.46964e-16)
(0.00155521 0.00571561 1.86803e-17)
(0.00279786 0.00977401 -2.10821e-17)
(0.00409039 0.0151529 -6.94083e-17)
(0.00544328 0.0221656 5.66476e-18)
(0.00592948 0.0308651 1.11458e-16)
(0.0054006 0.0401604 -5.87231e-17)
(0.00374334 0.0504492 -3.30775e-17)
(0.000383071 0.0607532 -1.97229e-17)
(-0.00530883 0.071112 1.27993e-17)
(0.00113424 0.00431868 -2.56465e-17)
(0.00187971 0.00454777 4.42499e-17)
(0.00243644 0.00422199 1.75169e-17)
(0.00297806 0.00424025 8.48884e-17)
(0.00350317 0.00424446 -7.72332e-17)
(0.00401294 0.00421715 3.58201e-17)
(0.0045131 0.00416718 2.97279e-18)
(0.00537962 0.00431303 -4.68564e-17)
(0.00647373 0.00455178 1.81732e-16)
(0.00762717 0.00466335 1.69762e-16)
(0.00880914 0.0046024 -4.68109e-16)
(0.00995573 0.00439282 8.40727e-16)
(0.0110962 0.00419188 7.46904e-16)
(0.0121443 0.00404279 -7.39749e-16)
(0.0129013 0.0033926 -4.64463e-16)
(0.0134964 0.0023561 -3.54854e-16)
(0.0119202 -0.00200676 8.25494e-16)
(0.00409484 -0.0204104 -8.0131e-16)
(0.0122183 -0.0232335 1.77738e-16)
(0.040737 0.0238502 3.98573e-16)
(0.0145655 -0.00864121 -2.68696e-16)
(0.0401275 0.0086364 -2.76746e-16)
(0.0529749 0.0280436 1.25702e-16)
(0.0508381 0.0237516 1.84748e-16)
(0.0468927 0.0271246 -3.0575e-16)
(0.0332736 0.0168954 6.96792e-17)
(0.0214525 0.0096401 2.88167e-16)
(0.0118888 0.00268919 -5.04729e-16)
(0.0063932 -0.00208602 1.37784e-16)
(0.00402288 -0.00416247 1.44318e-16)
(0.00308009 -0.00402562 -4.21457e-17)
(0.00308511 -0.00203998 -1.35554e-16)
(0.00390616 0.0012602 4.21935e-17)
(0.00529562 0.00536655 1.76019e-16)
(0.00703754 0.0100837 2.68639e-17)
(0.00897227 0.0156099 -5.54977e-18)
(0.01176 0.0223995 -5.20899e-17)
(0.0154294 0.0314971 -3.0978e-17)
(0.0183833 0.0420751 -6.93151e-17)
(0.0207722 0.053307 1.80487e-17)
(0.0217253 0.0653204 5.08427e-17)
(0.00106879 0.003095 -3.52386e-17)
(0.0016736 0.00325687 4.32097e-17)
(0.00211462 0.00303069 -3.58662e-17)
(0.00256543 0.00304325 -1.45842e-16)
(0.00300698 0.00304356 3.26731e-17)
(0.00343837 0.00302056 -5.44948e-17)
(0.00386572 0.00297577 -4.36028e-17)
(0.00435868 0.00293539 3.07746e-17)
(0.00516491 0.00303433 -5.03421e-17)
(0.00607326 0.0030987 8.30797e-18)
(0.00700922 0.00305676 -3.1223e-16)
(0.00791416 0.00287141 2.85509e-16)
(0.00880461 0.00255232 -2.1205e-16)
(0.00967902 0.00217857 -6.92142e-16)
(0.0105132 0.00185409 9.39166e-16)
(0.01118 0.00144565 3.69226e-16)
(0.0115721 0.000657467 2.04804e-16)
(0.0116225 -0.00050176 -6.90083e-18)
(0.00953437 -0.00457747 -1.86883e-16)
(0.00212276 -0.0202911 -1.51978e-16)
(0.0060966 -0.0201044 -7.15413e-17)
(0.0295658 0.00626994 1.93244e-16)
(0.016721 -0.0116917 -3.95406e-16)
(0.0390615 0.00350139 -1.40718e-17)
(0.0509459 0.0121229 1.60073e-16)
(0.0461723 0.0094249 -1.54818e-16)
(0.0572112 0.0252929 -4.02725e-16)
(0.0527403 0.0224974 5.02588e-16)
(0.0467883 0.0194507 5.16554e-16)
(0.038009 0.0146196 -4.01169e-16)
(0.0291072 0.00878193 -1.16045e-16)
(0.0225614 0.00443463 -6.48512e-17)
(0.0187993 0.00229605 -8.4326e-17)
(0.0169696 0.00239825 2.84787e-16)
(0.0166318 0.00467853 -1.03157e-16)
(0.0174666 0.00889456 -4.71229e-17)
(0.0192736 0.0146271 6.859e-17)
(0.0211982 0.0211232 -4.30589e-18)
(0.0247081 0.0289011 7.29602e-17)
(0.0284625 0.0367891 6.07574e-17)
(0.0336651 0.0469816 5.37835e-19)
(0.000955689 0.00213698 3.11135e-18)
(0.00144134 0.00225057 5.35471e-17)
(0.00178746 0.00209331 1.99515e-17)
(0.00215533 0.00209611 -2.12477e-17)
(0.00251916 0.00208783 -5.89296e-17)
(0.00287793 0.0020612 -2.03795e-19)
(0.00323552 0.00201804 4.66953e-17)
(0.00359589 0.00195994 4.57093e-17)
(0.00408466 0.00191485 -3.83689e-18)
(0.00479358 0.00192985 -9.79311e-17)
(0.00552831 0.00187191 -2.39507e-16)
(0.00624404 0.00172558 2.15666e-16)
(0.00694237 0.00148168 -2.79585e-16)
(0.00761038 0.00113175 -2.07921e-16)
(0.0082501 0.000708305 3.58972e-16)
(0.0088733 0.000305394 2.35858e-16)
(0.00943654 -4.02866e-05 3.36629e-16)
(0.00978049 -0.000544301 -5.82704e-16)
(0.00977537 -0.0014304 -3.17959e-16)
(0.00936255 -0.00267227 1.01142e-15)
(0.0072151 -0.00657284 -5.16042e-16)
(0.00222169 -0.0185004 -1.13078e-16)
(0.00633665 -0.0138046 1.11164e-16)
(0.0093848 -0.0138062 -3.38963e-16)
(0.00422415 -0.0353292 5.49941e-16)
(0.0330903 -0.00161225 -3.54843e-16)
(0.0244323 0.00155651 -4.40976e-16)
(0.0450593 0.00230241 2.21411e-16)
(0.049761 0.0125781 1.62488e-16)
(0.0552256 0.0173452 6.94469e-16)
(0.0581521 0.0200566 -4.0041e-16)
(0.0575966 0.0211268 -3.242e-16)
(0.0550925 0.0206328 2.10697e-16)
(0.0498842 0.0183221 1.35612e-17)
(0.0456664 0.0170215 -5.21436e-17)
(0.0425665 0.0166796 3.55525e-17)
(0.0413207 0.0180839 3.9231e-18)
(0.0409826 0.0208246 4.95889e-17)
(0.0424893 0.0251547 -5.3476e-17)
(0.0450721 0.0302508 1.53091e-17)
(0.0491117 0.0357546 -2.05784e-17)
(0.000873939 0.00153266 -2.27826e-17)
(0.00126522 0.0015863 1.91592e-17)
(0.00153915 0.00146451 5.35618e-18)
(0.00183382 0.00144456 -4.51961e-19)
(0.00212478 0.00141566 7.98596e-17)
(0.00241172 0.0013729 -1.99386e-17)
(0.00269802 0.0013189 -9.48714e-17)
(0.00298692 0.00125268 6.00693e-17)
(0.00329327 0.00117622 2.61551e-16)
(0.00379629 0.00112186 -3.01794e-16)
(0.00438009 0.00104566 -4.49238e-17)
(0.00495633 0.000907806 4.70228e-16)
(0.00552162 0.000706253 -3.35608e-16)
(0.00606131 0.00043483 1.19702e-16)
(0.00656536 8.43151e-05 -6.2411e-17)
(0.0070292 -0.000341809 -7.53203e-16)
(0.00745971 -0.000795723 1.31494e-15)
(0.0078641 -0.00119044 4.05081e-16)
(0.00818579 -0.00151756 -1.12465e-15)
(0.00828247 -0.00197995 9.71226e-16)
(0.00797972 -0.00270032 -8.16431e-17)
(0.00773095 -0.0040283 -7.7368e-16)
(0.00587429 -0.00754376 1.30055e-16)
(0.00362861 -0.0126431 3.34504e-16)
(0.00514771 -0.0113864 -5.82325e-16)
(-0.000482965 -0.019721 2.91433e-17)
(0.00334769 -0.0204847 1.06582e-16)
(0.00622021 -0.0198057 5.59683e-17)
(0.0117439 -0.0162685 -4.22821e-16)
(0.0188297 -0.0113366 3.5933e-16)
(0.0269351 -0.00486019 5.23274e-16)
(0.0349829 0.00250577 -7.89003e-17)
(0.0484705 0.0092142 -1.93186e-16)
(0.0442909 0.0102458 -3.42508e-16)
(0.0534667 0.0177661 7.6627e-17)
(0.0556469 0.0200736 2.21497e-17)
(0.0584403 0.0231737 5.80516e-17)
(0.0595204 0.0251269 1.85577e-17)
(0.06112 0.0273663 7.56154e-17)
(0.0640793 0.030616 4.71947e-17)
(0.0680527 0.0343463 -3.24281e-17)
(0.000791151 0.00111248 -2.73327e-17)
(0.00110816 0.00112482 -3.91758e-17)
(0.00132804 0.00102399 -3.25971e-18)
(0.00156473 0.000988001 6.46184e-17)
(0.00179775 0.000944618 4.26156e-17)
(0.00202719 0.000890944 -2.68591e-17)
(0.00225626 0.000829029 -2.88459e-18)
(0.00248754 0.000758724 2.71267e-17)
(0.00272286 0.000678331 -1.44598e-16)
(0.00302744 0.000587053 -3.93526e-17)
(0.00350006 0.000501153 4.73367e-16)
(0.00396879 0.00036748 9.38327e-17)
(0.00443155 0.000186869 -6.92799e-16)
(0.00487507 -4.2654e-05 1.74152e-16)
(0.00528954 -0.000322839 2.16537e-16)
(0.00566557 -0.000658024 -9.50832e-16)
(0.00599449 -0.00105263 1.50667e-17)
(0.00627476 -0.00149479 4.96311e-16)
(0.00651809 -0.00193273 5.77103e-16)
(0.00673286 -0.00228795 -3.55354e-16)
(0.00688519 -0.00253638 1.50852e-16)
(0.00726826 -0.00305248 3.52156e-16)
(0.00722696 -0.00359593 -6.49837e-16)
(0.0066092 -0.00467144 -2.26917e-16)
(0.00484695 -0.00731025 7.25755e-17)
(0.00352232 -0.00944294 2.21939e-16)
(0.00121587 -0.0122366 -1.15312e-16)
(-0.00088285 -0.01548 2.30416e-16)
(-0.00240267 -0.0180648 -1.26692e-16)
(-0.00287896 -0.0195915 -3.9596e-17)
(-0.00180894 -0.0195756 2.60202e-16)
(0.00208351 -0.01583 -1.94173e-16)
(-0.00874416 -0.0263218 -7.7533e-17)
(0.016493 -0.00803351 2.91994e-16)
(0.0124399 -0.00568607 -3.21032e-16)
(0.0237219 -0.00144392 1.97768e-16)
(0.0286523 0.00406918 1.32717e-16)
(0.035884 0.00785839 -2.27847e-16)
(0.036875 0.0104757 5.05084e-17)
(0.0520998 0.0199524 8.6402e-17)
(0.0552215 0.0200907 1.36873e-17)
(0.000707517 0.000802384 -6.97076e-18)
(0.000965062 0.00078901 -1.82264e-17)
(0.00114262 0.000702262 -8.45662e-18)
(0.00133375 0.000657219 3.37571e-17)
(0.0015212 0.000605976 -5.70973e-20)
(0.0017058 0.000546763 -9.64264e-18)
(0.00189018 0.000481383 -3.62956e-18)
(0.00207703 0.00040991 1.03313e-17)
(0.00226735 0.000329841 4.03358e-17)
(0.00247079 0.000241107 -4.44093e-17)
(0.00281831 0.000137578 6.23337e-17)
(0.00320084 7.52177e-06 -7.31611e-17)
(0.0035816 -0.000158396 5.69124e-17)
(0.00394839 -0.000361238 3.17157e-16)
(0.00429216 -0.000600844 -4.03069e-16)
(0.00460585 -0.000876261 -1.92194e-16)