/*--------------------------------*- C++ -*----------------------------------*\
| =========                 |                                                 |
| \\      /  F ield         | OpenFOAM: The Open Source CFD Toolbox           |
|  \\    /   O peration     | Version:  2312                                  |
|   \\  /    A nd           | Website:  www.openfoam.com                      |
|    \\/     M anipulation  |                                                 |
\*---------------------------------------------------------------------------*/
FoamFile
{
    version     2.0;
    format      ascii;
    arch        "LSB;label=32;scalar=64";
    class       volScalarField;
    location    "1000";
    object      nuTilda;
}
// * * * * * * * * * * * * * * * * * * * * * * * * * * * * * * * * * * * * * //

dimensions      [0 2 -1 0 0 0 0];

internalField   nonuniform List<scalar> 
11040
(
7.29318e-05
8.58853e-05
5.28422e-05
8.11839e-05
0.000196908
0.000190494
0.000181681
0.000172537
0.000161364
0.000154525
0.000147589
0.000141616
0.000136286
0.000132151
0.000128623
0.000126736
0.000126512
0.000127911
0.000130564
0.000134322
0.000139281
0.000145304
0.000152184
0.000159767
0.000168165
0.000178272
0.000190043
0.000201744
0.000212825
0.000222704
0.00023075
0.000236331
0.000240246
0.000246833
0.000265482
0.000253422
0.000181708
0.000190166
0.000207736
0.000226732
0.000298778
3.61216e-05
7.21472e-05
8.6706e-05
0.000156651
0.00060258
0.000628686
0.000553131
0.000509481
0.000443882
0.000408672
0.000372639
0.000344579
0.000318287
0.000298541
0.000280091
0.000267339
0.000261114
0.000260424
0.000262652
0.000266591
0.000272391
0.000280108
0.000288194
0.00029551
0.000302952
0.000317861
0.00034495
0.000376569
0.000412307
0.00045227
0.000496683
0.000545893
0.000599091
0.000658036
0.000724968
0.000792933
0.000861781
0.000953275
0.00106211
0.0011503
0.00161411
3.89578e-05
4.54672e-05
6.66465e-05
9.3729e-05
0.000415516
0.000966197
0.00118679
0.00114653
0.00100417
0.000929366
0.000847001
0.000786132
0.000726635
0.000683219
0.00064138
0.000608079
0.000582653
0.000563196
0.000551848
0.000547611
0.000551904
0.000565739
0.000589844
0.000625075
0.000671516
0.000728986
0.000797265
0.000875846
0.000964373
0.00106225
0.00116852
0.00128249
0.00140366
0.00153269
0.00167071
0.00181814
0.001981
0.00218179
0.00242621
0.00266697
0.00349223
4.07548e-05
3.82395e-05
4.71553e-05
4.78995e-05
0.000153247
0.000597794
0.00130602
0.00170818
0.00177784
0.00168711
0.00154361
0.00144378
0.00133923
0.00126245
0.00118732
0.0011249
0.0010789
0.00104238
0.00102051
0.00101163
0.00101752
0.00104117
0.0010851
0.00115048
0.00123675
0.00134278
0.00146764
0.00161032
0.00176989
0.00194531
0.00213502
0.00233761
0.00255201
0.00277848
0.00301792
0.00327308
0.0035562
0.00389866
0.00431864
0.00477624
0.00594194
4.02489e-05
3.943e-05
4.06212e-05
3.87547e-05
3.76348e-05
0.000187401
0.000710915
0.00156311
0.002256
0.00246547
0.00247691
0.00237017
0.00220655
0.00208937
0.00197532
0.00187247
0.00180015
0.00174053
0.0017038
0.00168829
0.00169412
0.00172683
0.00179255
0.00189322
0.00202802
0.0021956
0.00239422
0.00262162
0.00287579
0.00315479
0.00345555
0.00377524
0.00411176
0.00446482
0.00483502
0.00522647
0.00565575
0.00616877
0.00679901
0.00753112
0.00900235
4.00491e-05
4.02201e-05
3.96721e-05
4.09604e-05
2.83573e-05
2.41485e-05
0.000183267
0.00073338
0.00171823
0.00273416
0.00320794
0.00337718
0.00336488
0.00325565
0.00307875
0.00291649
0.00280949
0.00271789
0.00265816
0.00263265
0.00263589
0.0026754
0.00276422
0.00290619
0.00310011
0.00334476
0.00363753
0.0039741
0.00435012
0.00476254
0.00520577
0.00567443
0.00616463
0.00667503
0.00720524
0.00775998
0.00836047
0.00906534
0.00993383
0.0109853
0.0127762
4.00688e-05
4.01291e-05
3.98988e-05
4.05233e-05
3.97382e-05
1.98953e-05
5.96431e-06
0.000137243
0.000662814
0.00171315
0.00301796
0.00395575
0.00433445
0.00447835
0.00447002
0.00436851
0.00421955
0.0040675
0.00397194
0.00393206
0.00393075
0.00397279
0.0040832
0.00427043
0.00453241
0.00486899
0.00527723
0.00575004
0.0062781
0.00685722
0.00747805
0.00813068
0.00880805
0.00950722
0.0102255
0.0109666
0.011756
0.0126632
0.0137827
0.015177
0.0173325
4.00869e-05
4.0082e-05
4.01189e-05
3.99647e-05
4.09024e-05
3.99606e-05
9.03078e-06
1.82104e-06
8.4483e-05
0.000516197
0.00152654
0.00302973
0.00449751
0.00531223
0.00567933
0.00582426
0.00585054
0.0058003
0.00573065
0.00567325
0.00566976
0.00572563
0.00586078
0.00609785
0.00643447
0.00687457
0.00741759
0.00805522
0.00876693
0.00954803
0.0103844
0.0112581
0.0121565
0.0130745
0.0140053
0.0149486
0.015933
0.0170364
0.0183909
0.0201156
0.0226448
4.00835e-05
4.00902e-05
4.00822e-05
4.01183e-05
3.98677e-05
4.19333e-05
3.86776e-05
1.4082e-05
1.86699e-05
2.18042e-05
0.000320537
0.00118584
0.00272256
0.00461168
0.00613626
0.00689948
0.00730207
0.00750673
0.00763009
0.00771263
0.00781064
0.00795076
0.00817507
0.00851249
0.00896394
0.00952944
0.0102169
0.0110313
0.0119563
0.0129732
0.0140635
0.0151967
0.0163482
0.0175106
0.0186724
0.019822
0.0209908
0.0222665
0.0237925
0.0257787
0.0286238
4.00822e-05
4.00852e-05
4.00847e-05
4.00951e-05
4.00571e-05
3.99589e-05
4.22579e-05
3.76672e-05
2.02744e-05
8.55627e-06
6.14537e-05
0.000143096
0.000779046
0.00215134
0.00420661
0.00641626
0.00799305
0.00880828
0.00932491
0.00969021
0.0100272
0.01038
0.010811
0.0113648
0.0120613
0.0129007
0.0138727
0.0149593
0.0161425
0.0174206
0.0187934
0.0202167
0.021641
0.0230567
0.0244541
0.0257946
0.0271078
0.0284975
0.0300923
0.0321867
0.0351824
4.008e-05
4.00817e-05
4.00842e-05
4.00766e-05
4.01087e-05
3.99755e-05
4.0204e-05
4.17375e-05
3.96701e-05
2.6605e-05
7.0792e-06
2.16032e-05
1.73353e-05
0.000375367
0.00141989
0.00332904
0.00588831
0.00842764
0.0101708
0.0111814
0.0119551
0.0126371
0.0133596
0.014206
0.0152304
0.0164512
0.0178645
0.0194522
0.0211796
0.0229981
0.024844
0.0266428
0.0283512
0.0300057
0.0316365
0.0331338
0.0345046
0.0359188
0.0374581
0.0393845
0.0422033
4.00773e-05
4.00789e-05
4.00786e-05
4.00796e-05
4.00752e-05
4.00916e-05
3.99887e-05
4.01856e-05
4.12586e-05
4.09452e-05
3.26477e-05
5.29889e-06
4.60848e-06
6.35881e-05
0.000120318
0.000729696
0.00219615
0.00462946
0.00770828
0.0106908
0.0128205
0.0142022
0.0153808
0.0165872
0.0179644
0.0195772
0.0214423
0.0235569
0.0258883
0.0283815
0.0309672
0.0335646
0.0360824
0.0384287
0.0404875
0.0421351
0.0434206
0.0447554
0.0460836
0.0475618
0.0497628
4.00749e-05
4.00757e-05
4.00755e-05
4.00752e-05
4.00748e-05
4.00739e-05
4.00763e-05
4.00183e-05
4.01136e-05
4.08486e-05
4.17087e-05
3.64665e-05
1.62265e-05
5.08637e-06
1.48844e-05
0.000121357
0.000232216
0.00111551
0.00298053
0.00592598
0.00960169
0.0131558
0.0158294
0.0177955
0.0196549
0.021684
0.0239612
0.0265395
0.0294059
0.0325036
0.0357609
0.039094
0.0424064
0.0456021
0.0485791
0.0512237
0.0534388
0.0551473
0.0562427
0.057008
0.0584513
4.00727e-05
4.00733e-05
4.00732e-05
4.00732e-05
4.00725e-05
4.00715e-05
4.00715e-05
4.00714e-05
4.0037e-05
4.00504e-05
4.04842e-05
4.1806e-05
3.97521e-05
2.76307e-05
3.04253e-06
2.16788e-06
2.71542e-05
0.000182349
0.000356827
0.00144499
0.00364716
0.00692307
0.0108215
0.0148623
0.0185269
0.0216201
0.0244787
0.0275123
0.0308486
0.034453
0.0382695
0.0422282
0.0462254
0.0501616
0.053935
0.0574461
0.0606053
0.0633527
0.0656189
0.067375
0.0686641
4.00708e-05
4.00721e-05
4.00724e-05
4.00724e-05
4.00717e-05
4.00711e-05
4.00702e-05
4.00705e-05
4.00694e-05
4.00551e-05
4.00056e-05
4.02605e-05
4.13628e-05
4.12543e-05
3.65987e-05
1.77556e-05
5.69629e-06
7.49567e-07
4.01163e-05
0.000225651
0.000421061
0.0015441
0.00357583
0.00657002
0.0103694
0.0147323
0.019385
0.0240258
0.0284595
0.0327535
0.0371066
0.0416174
0.0462308
0.0508378
0.0553305
0.0596109
0.0636015
0.0672656
0.0705355
0.0733564
0.0757232
4.00692e-05
4.00715e-05
4.00716e-05
4.00712e-05
4.00704e-05
4.00696e-05
4.0069e-05
4.00684e-05
4.00683e-05
4.00686e-05
4.00626e-05
4.00032e-05
4.01339e-05
4.06314e-05
4.18724e-05
3.97103e-05
3.27417e-05
8.04131e-06
3.68472e-06
3.91156e-07
4.53318e-05
0.000201725
0.000253661
0.00102197
0.0024789
0.00477168
0.00791455
0.0118824
0.0165986
0.0219539
0.0277639
0.0337415
0.039601
0.045206
0.0505484
0.0556499
0.0605035
0.065094
0.0693555
0.0732185
0.0766564
4.00678e-05
4.00702e-05
4.00699e-05
4.00689e-05
4.0068e-05
4.00673e-05
4.00667e-05
4.00663e-05
4.00661e-05
4.00655e-05
4.00678e-05
4.0061e-05
4.0035e-05
4.00149e-05
4.0342e-05
4.11037e-05
4.18726e-05
3.81635e-05
2.77372e-05
4.3868e-06
2.96174e-06
3.47146e-07
2.38962e-05
0.000109554
8.88707e-05
0.000355694
0.000997489
0.00225626
0.00419122
0.00689743
0.0104353
0.0148252
0.0200288
0.0259582
0.0324343
0.0391754
0.0458559
0.052245
0.0581553
0.0634937
0.0682653
4.0066e-05
4.0068e-05
4.00674e-05
4.00665e-05
4.00657e-05
4.00652e-05
4.00648e-05
4.00645e-05
4.00642e-05
4.0064e-05
4.00638e-05
4.00652e-05
4.00635e-05
4.00477e-05
4.00059e-05
4.01033e-05
4.05309e-05
4.15947e-05
4.1633e-05
3.73725e-05
2.56282e-05
4.05009e-06
3.00403e-06
7.23466e-07
7.48996e-06
2.94597e-05
8.11863e-05
0.000192515
6.89944e-05
0.000355181
0.00104692
0.00222075
0.00397386
0.00642132
0.00962113
0.013591
0.0182844
0.0236625
0.0295774
0.0358383
0.042241
4.00638e-05
4.00651e-05
4.00642e-05
4.00631e-05
4.00623e-05
4.00617e-05
4.00613e-05
4.00612e-05
4.00611e-05
4.00612e-05
4.00611e-05
4.00612e-05
4.00615e-05
4.00638e-05
4.00531e-05
4.00323e-05
3.99996e-05
4.02135e-05
4.08115e-05
4.17357e-05
4.13849e-05
3.67406e-05
2.83393e-05
8.91046e-06
3.99191e-06
1.83341e-06
5.21428e-07
0
5.23729e-06
2.64648e-05
7.65739e-05
0.000161007
8.56809e-06
0.000114381
0.000394848
0.00108811
0.00218272
0.00376899
0.00589788
0.00859356
0.0119146
4.00614e-05
4.00622e-05
4.00611e-05
4.006e-05
4.00592e-05
4.00587e-05
4.00585e-05
4.00584e-05
4.00584e-05
4.00585e-05
4.00586e-05
4.00588e-05
4.00589e-05
4.00594e-05
4.00603e-05
4.00594e-05
4.00418e-05
4.0011e-05
4.00253e-05
4.03094e-05
4.09984e-05
4.17175e-05
4.16016e-05
3.84015e-05
3.19479e-05
2.39066e-05
6.93488e-06
3.54681e-06
1.82438e-06
1.27487e-06
2.83042e-07
0
5.8678e-07
7.70234e-06
2.60952e-05
7.05078e-05
0.000138471
0.000236224
0.000370344
4.4253e-05
0.000373144
4.0059e-05
4.00593e-05
4.00582e-05
4.00573e-05
4.00567e-05
4.00564e-05
4.00564e-05
4.00564e-05
4.00566e-05
4.00568e-05
4.00569e-05
4.00571e-05
4.00574e-05
4.00575e-05
4.00578e-05
4.00587e-05
4.00596e-05
4.00531e-05
4.00281e-05
3.99984e-05
4.00485e-05
4.03671e-05
4.09071e-05
4.17171e-05
4.17984e-05
4.09539e-05
3.78125e-05
3.24828e-05
2.58273e-05
1.84226e-05
4.17431e-06
2.86671e-06
1.74725e-06
1.37788e-06
9.85597e-07
3.58368e-07
0
0
0
2.5782e-06
2.12499e-05
4.00565e-05
4.00566e-05
4.00557e-05
4.00551e-05
4.00549e-05
4.0055e-05
4.00552e-05
4.00555e-05
4.00557e-05
4.0056e-05
4.00563e-05
4.00565e-05
4.00567e-05
4.00569e-05
4.00571e-05
4.00572e-05
4.00578e-05
4.00589e-05
4.00581e-05
4.00476e-05
4.00173e-05
4.00007e-05
4.00371e-05
4.02636e-05
4.0693e-05
4.12169e-05
4.18558e-05
4.19718e-05
4.12543e-05
3.98149e-05
3.68594e-05
3.26008e-05
2.75682e-05
2.21479e-05
1.61653e-05
6.00244e-06
3.07687e-06
1.71858e-06
1.47247e-06
1.22664e-06
9.66144e-07
4.0054e-05
4.00542e-05
4.00538e-05
4.00537e-05
4.0054e-05
4.00544e-05
4.00549e-05
4.00554e-05
4.00558e-05
4.00562e-05
4.00566e-05
4.00569e-05
4.00571e-05
4.00573e-05
4.00575e-05
4.00576e-05
4.00577e-05
4.0058e-05
4.00588e-05
4.00598e-05
4.00572e-05
4.00445e-05
4.00205e-05
3.99949e-05
4.00147e-05
4.01053e-05
4.03376e-05
4.07123e-05
4.11632e-05
4.15823e-05
4.20277e-05
4.20932e-05
4.16758e-05
4.07245e-05
3.93271e-05
3.71403e-05
3.42543e-05
3.07765e-05
2.69783e-05
2.29178e-05
1.84782e-05
4.00518e-05
4.00523e-05
4.00525e-05
4.0053e-05
4.00537e-05
4.00545e-05
4.00553e-05
4.00559e-05
4.00565e-05
4.00571e-05
4.00575e-05
4.00579e-05
4.00582e-05
4.00584e-05
4.00586e-05
4.00588e-05
4.00589e-05
4.0059e-05
4.00591e-05
4.00595e-05
4.00605e-05
4.00609e-05
4.00587e-05
4.00487e-05
4.00301e-05
4.00082e-05
3.99932e-05
4.0009e-05
4.00834e-05
4.02196e-05
4.0447e-05
4.07556e-05
4.11086e-05
4.14668e-05
4.17779e-05
4.20779e-05
4.22114e-05
4.20951e-05
4.16969e-05
4.10027e-05
4.01007e-05
4.00498e-05
4.0051e-05
4.00519e-05
4.00529e-05
4.0054e-05
4.00551e-05
4.0056e-05
4.00569e-05
4.00576e-05
4.00582e-05
4.00587e-05
4.00592e-05
4.00596e-05
4.00599e-05
4.00601e-05
4.00604e-05
4.00606e-05
4.00607e-05
4.00608e-05
4.00609e-05
4.00611e-05
4.00615e-05
4.00624e-05
4.00631e-05
4.00618e-05
4.00571e-05
4.00465e-05
4.00299e-05
4.00109e-05
3.9996e-05
3.99913e-05
4.00089e-05
4.00589e-05
4.01499e-05
4.02801e-05
4.04566e-05
4.06745e-05
4.09277e-05
4.11964e-05
4.14635e-05
4.17012e-05
4.00483e-05
4.00501e-05
4.00517e-05
4.00532e-05
4.00546e-05
4.00559e-05
4.00569e-05
4.00579e-05
4.00587e-05
4.00594e-05
4.006e-05
4.00605e-05
4.0061e-05
4.00614e-05
4.00617e-05
4.0062e-05
4.00623e-05
4.00625e-05
4.00627e-05
4.00629e-05
4.0063e-05
4.00632e-05
4.00634e-05
4.00638e-05
4.00645e-05
4.00652e-05
4.00655e-05
4.00643e-05
4.00605e-05
4.00535e-05
4.00428e-05
4.00289e-05
4.00135e-05
3.99994e-05
3.999e-05
3.9988e-05
3.99969e-05
4.00219e-05
4.0065e-05
4.01322e-05
4.02079e-05
4.00472e-05
4.00498e-05
4.00519e-05
4.00537e-05
4.00553e-05
4.00566e-05
4.00578e-05
4.00588e-05
4.00597e-05
4.00605e-05
4.00611e-05
4.00618e-05
4.00623e-05
4.00628e-05
4.00632e-05
4.00636e-05
4.00639e-05
4.00642e-05
4.00645e-05
4.00647e-05
4.0065e-05
4.00652e-05
4.00654e-05
4.00656e-05
4.00658e-05
4.00661e-05
4.00666e-05
4.00672e-05
4.00679e-05
4.00683e-05
4.00682e-05
4.0067e-05
4.00642e-05
4.00596e-05
4.00531e-05
4.00446e-05
4.00346e-05
4.00234e-05
4.00119e-05
4.00013e-05
3.99929e-05
4.00465e-05
4.00498e-05
4.00522e-05
4.00542e-05
4.00558e-05
4.00572e-05
4.00585e-05
4.00596e-05
4.00605e-05
4.00614e-05
4.00622e-05
4.00629e-05
4.00635e-05
4.0064e-05
4.00645e-05
4.0065e-05
4.00654e-05
4.00658e-05
4.00662e-05
4.00665e-05
4.00668e-05
4.00671e-05
4.00674e-05
4.00677e-05
4.00679e-05
4.00681e-05
4.00683e-05
4.00685e-05
4.00688e-05
4.00692e-05
4.00697e-05
4.00703e-05
4.00709e-05
4.00714e-05
4.00717e-05
4.00716e-05
4.00709e-05
4.00695e-05
4.00674e-05
4.00641e-05
4.00608e-05
4.00462e-05
4.00498e-05
4.00524e-05
4.00545e-05
4.00562e-05
4.00577e-05
4.0059e-05
4.00602e-05
4.00612e-05
4.00622e-05
4.0063e-05
4.00638e-05
4.00645e-05
4.00652e-05
4.00657e-05
4.00663e-05
4.00668e-05
4.00672e-05
4.00677e-05
4.00681e-05
4.00685e-05
4.00689e-05
4.00692e-05
4.00696e-05
4.00699e-05
4.00702e-05
4.00704e-05
4.00707e-05
4.00709e-05
4.00711e-05
4.00713e-05
4.00716e-05
4.00719e-05
4.00722e-05
4.00726e-05
4.0073e-05
4.00735e-05
4.0074e-05
4.00745e-05
4.0075e-05
4.00754e-05
4.00461e-05
4.00499e-05
4.00525e-05
4.00546e-05
4.00564e-05
4.0058e-05
4.00594e-05
4.00606e-05
4.00618e-05
4.00628e-05
4.00638e-05
4.00646e-05
4.00654e-05
4.00661e-05
4.00668e-05
4.00674e-05
4.0068e-05
4.00686e-05
4.00691e-05
4.00696e-05
4.007e-05
4.00705e-05
4.00709e-05
4.00713e-05
4.00717e-05
4.0072e-05
4.00724e-05
4.00727e-05
4.0073e-05
4.00732e-05
4.00735e-05
4.00737e-05
4.0074e-05
4.00742e-05
4.00744e-05
4.00747e-05
4.00749e-05
4.00752e-05
4.00754e-05
4.00757e-05
4.0076e-05
4.00461e-05
4.00498e-05
4.00525e-05
4.00546e-05
4.00565e-05
4.00581e-05
4.00596e-05
4.00609e-05
4.00622e-05
4.00633e-05
4.00643e-05
4.00653e-05
4.00662e-05
4.0067e-05
4.00677e-05
4.00684e-05
4.00691e-05
4.00697e-05
4.00703e-05
4.00709e-05
4.00714e-05
4.0072e-05
4.00725e-05
4.00729e-05
4.00734e-05
4.00738e-05
4.00741e-05
4.00745e-05
4.00749e-05
4.00752e-05
4.00755e-05
4.00758e-05
4.00761e-05
4.00764e-05
4.00767e-05
4.00769e-05
4.00772e-05
4.00774e-05
4.00777e-05
4.00779e-05
4.00782e-05
4.00458e-05
4.00495e-05
4.00522e-05
4.00544e-05
4.00563e-05
4.0058e-05
4.00596e-05
4.0061e-05
4.00624e-05
4.00636e-05
4.00647e-05
4.00658e-05
4.00668e-05
4.00677e-05
4.00685e-05
4.00693e-05
4.00701e-05
4.00708e-05
4.00714e-05
4.00721e-05
4.00727e-05
4.00733e-05
4.00739e-05
4.00744e-05
4.00749e-05
4.00754e-05
4.00758e-05
4.00762e-05
4.00766e-05
4.0077e-05
4.00774e-05
4.00777e-05
4.00781e-05
4.00784e-05
4.00787e-05
4.0079e-05
4.00793e-05
4.00796e-05
4.00799e-05
4.00802e-05
4.00805e-05
4.00454e-05
4.00491e-05
4.00518e-05
4.0054e-05
4.0056e-05
4.00578e-05
4.00594e-05
4.0061e-05
4.00624e-05
4.00637e-05
4.0065e-05
4.00661e-05
4.00672e-05
4.00682e-05
4.00692e-05
4.00701e-05
4.00709e-05
4.00717e-05
4.00724e-05
4.00732e-05
4.00739e-05
4.00745e-05
4.00752e-05
4.00758e-05
4.00763e-05
4.00768e-05
4.00773e-05
4.00778e-05
4.00783e-05
4.00787e-05
4.00791e-05
4.00795e-05
4.00799e-05
4.00803e-05
4.00806e-05
4.0081e-05
4.00813e-05
4.00816e-05
4.0082e-05
4.00823e-05
4.00826e-05
4.00449e-05
4.00485e-05
4.00512e-05
4.00534e-05
4.00554e-05
4.00573e-05
4.0059e-05
4.00607e-05
4.00622e-05
4.00637e-05
4.0065e-05
4.00663e-05
4.00675e-05
4.00686e-05
4.00697e-05
4.00707e-05
4.00716e-05
4.00725e-05
4.00733e-05
4.00741e-05
4.00749e-05
4.00757e-05
4.00764e-05
4.0077e-05
4.00776e-05
4.00782e-05
4.00788e-05
4.00793e-05
4.00798e-05
4.00803e-05
4.00807e-05
4.00812e-05
4.00816e-05
4.0082e-05
4.00824e-05
4.00828e-05
4.00832e-05
4.00835e-05
4.00839e-05
4.00843e-05
4.00846e-05
4.00441e-05
4.00476e-05
4.00503e-05
4.00525e-05
4.00546e-05
4.00566e-05
4.00584e-05
4.00602e-05
4.00619e-05
4.00634e-05
4.00649e-05
4.00663e-05
4.00676e-05
4.00689e-05
4.007e-05
4.00711e-05
4.00722e-05
4.00731e-05
4.00741e-05
4.0075e-05
4.00758e-05
4.00767e-05
4.00774e-05
4.00782e-05
4.00788e-05
4.00795e-05
4.00801e-05
4.00807e-05
4.00812e-05
4.00818e-05
4.00823e-05
4.00828e-05
4.00832e-05
4.00837e-05
4.00841e-05
4.00845e-05
4.00849e-05
4.00853e-05
4.00857e-05
4.00861e-05
4.00865e-05
4.00431e-05
4.00465e-05
4.00491e-05
4.00514e-05
4.00536e-05
4.00556e-05
4.00576e-05
4.00595e-05
4.00613e-05
4.0063e-05
4.00646e-05
4.00661e-05
4.00676e-05
4.00689e-05
4.00702e-05
4.00714e-05
4.00726e-05
4.00736e-05
4.00747e-05
4.00757e-05
4.00766e-05
4.00775e-05
4.00784e-05
4.00792e-05
4.00799e-05
4.00806e-05
4.00813e-05
4.00819e-05
4.00825e-05
4.00831e-05
4.00837e-05
4.00842e-05
4.00847e-05
4.00852e-05
4.00857e-05
4.00862e-05
4.00866e-05
4.0087e-05
4.00875e-05
4.00879e-05
4.00883e-05
4.00419e-05
4.00451e-05
4.00477e-05
4.005e-05
4.00522e-05
4.00544e-05
4.00564e-05
4.00584e-05
4.00604e-05
4.00622e-05
4.0064e-05
4.00656e-05
4.00672e-05
4.00687e-05
4.00701e-05
4.00714e-05
4.00727e-05
4.00739e-05
4.0075e-05
4.00761e-05
4.00772e-05
4.00782e-05
4.00791e-05
4.008e-05
4.00808e-05
4.00816e-05
4.00823e-05
4.0083e-05
4.00837e-05
4.00843e-05
4.00849e-05
4.00855e-05
4.00861e-05
4.00866e-05
4.00871e-05
4.00876e-05
4.00881e-05
4.00885e-05
4.0089e-05
4.00894e-05
4.00899e-05
4.00403e-05
4.00435e-05
4.0046e-05
4.00483e-05
4.00506e-05
4.00528e-05
4.0055e-05
4.00571e-05
4.00591e-05
4.00611e-05
4.0063e-05
4.00647e-05
4.00665e-05
4.00681e-05
4.00696e-05
4.00711e-05
4.00725e-05
4.00738e-05
4.00751e-05
4.00763e-05
4.00774e-05
4.00785e-05
4.00795e-05
4.00805e-05
4.00814e-05
4.00822e-05
4.00831e-05
4.00838e-05
4.00845e-05
4.00852e-05
4.00859e-05
4.00865e-05
4.00871e-05
4.00877e-05
4.00882e-05
4.00888e-05
4.00893e-05
4.00898e-05
4.00902e-05
4.00907e-05
4.00912e-05
4.00385e-05
4.00415e-05
4.0044e-05
4.00463e-05
4.00486e-05
4.00509e-05
4.00531e-05
4.00553e-05
4.00574e-05
4.00595e-05
4.00615e-05
4.00634e-05
4.00652e-05
4.0067e-05
4.00687e-05
4.00703e-05
4.00718e-05
4.00732e-05
4.00746e-05
4.00759e-05
4.00772e-05
4.00784e-05
4.00795e-05
4.00805e-05
4.00815e-05
4.00825e-05
4.00833e-05
4.00842e-05
4.0085e-05
4.00857e-05
4.00864e-05
4.00871e-05
4.00877e-05
4.00883e-05
4.00889e-05
4.00895e-05
4.009e-05
4.00906e-05
4.00911e-05
4.00915e-05
4.0092e-05
4.00363e-05
4.00391e-05
4.00416e-05
4.00439e-05
4.00462e-05
4.00485e-05
4.00507e-05
4.0053e-05
4.00551e-05
4.00573e-05
4.00594e-05
4.00614e-05
4.00634e-05
4.00653e-05
4.00671e-05
4.00688e-05
4.00705e-05
4.0072e-05
4.00735e-05
4.0075e-05
4.00763e-05
4.00776e-05
4.00789e-05
4.008e-05
4.00811e-05
4.00821e-05
4.0083e-05
4.00839e-05
4.00848e-05
4.00856e-05
4.00863e-05
4.00871e-05
4.00878e-05
4.00884e-05
4.0089e-05
4.00896e-05
4.00902e-05
4.00907e-05
4.00912e-05
4.00917e-05
4.00922e-05
4.00338e-05
4.00364e-05
4.00388e-05
4.00411e-05
4.00433e-05
4.00455e-05
4.00478e-05
4.005e-05
4.00522e-05
4.00544e-05
4.00566e-05
4.00587e-05
4.00608e-05
4.00628e-05
4.00648e-05
4.00666e-05
4.00684e-05
4.00701e-05
4.00717e-05
4.00733e-05
4.00748e-05
4.00762e-05
4.00775e-05
4.00787e-05
4.00799e-05
4.00809e-05
4.0082e-05
4.00829e-05
4.00839e-05
4.00847e-05
4.00855e-05
4.00863e-05
4.0087e-05
4.00877e-05
4.00884e-05
4.0089e-05
4.00896e-05
4.00902e-05
4.00907e-05
4.00912e-05
4.00918e-05
4.00309e-05
4.00333e-05
4.00356e-05
4.00377e-05
4.00398e-05
4.0042e-05
4.00441e-05
4.00464e-05
4.00486e-05
4.00509e-05
4.00531e-05
4.00553e-05
4.00575e-05
4.00596e-05
4.00617e-05
4.00636e-05
4.00655e-05
4.00673e-05
4.00691e-05
4.00707e-05
4.00723e-05
4.00738e-05
4.00753e-05
4.00766e-05
4.00778e-05
4.0079e-05
4.00801e-05
4.00811e-05
4.00821e-05
4.0083e-05
4.00839e-05
4.00847e-05
4.00855e-05
4.00862e-05
4.00869e-05
4.00875e-05
4.00881e-05
4.00887e-05
4.00892e-05
4.00897e-05
4.00902e-05
4.00275e-05
4.00298e-05
4.00318e-05
4.00337e-05
4.00357e-05
4.00377e-05
4.00398e-05
4.0042e-05
4.00442e-05
4.00465e-05
4.00488e-05
4.0051e-05
4.00533e-05
4.00555e-05
4.00576e-05
4.00597e-05
4.00617e-05
4.00637e-05
4.00655e-05
4.00673e-05
4.00689e-05
4.00705e-05
4.0072e-05
4.00734e-05
4.00748e-05
4.0076e-05
4.00772e-05
4.00783e-05
4.00793e-05
4.00802e-05
4.00812e-05
4.0082e-05
4.00828e-05
4.00836e-05
4.00843e-05
4.0085e-05
4.00856e-05
4.00862e-05
4.00868e-05
4.00873e-05
4.00879e-05
4.00237e-05
4.00257e-05
4.00275e-05
4.00292e-05
4.00309e-05
4.00328e-05
4.00348e-05
4.00368e-05
4.0039e-05
4.00412e-05
4.00435e-05
4.00458e-05
4.00481e-05
4.00503e-05
4.00525e-05
4.00547e-05
4.00568e-05
4.00588e-05
4.00607e-05
4.00626e-05
4.00644e-05
4.00661e-05
4.00677e-05
4.00692e-05
4.00706e-05
4.0072e-05
4.00732e-05
4.00744e-05
4.00755e-05
4.00765e-05
4.00775e-05
4.00784e-05
4.00792e-05
4.008e-05
4.00807e-05
4.00814e-05
4.0082e-05
4.00826e-05
4.00832e-05
4.00837e-05
4.00842e-05
4.00194e-05
4.00211e-05
4.00225e-05
4.00239e-05
4.00255e-05
4.00271e-05
4.00289e-05
4.00309e-05
4.00329e-05
4.0035e-05
4.00372e-05
4.00394e-05
4.00416e-05
4.00438e-05
4.00461e-05
4.00483e-05
4.00504e-05
4.00525e-05
4.00545e-05
4.00565e-05
4.00583e-05
4.006e-05
4.00617e-05
4.00632e-05
4.00647e-05
4.00661e-05
4.00673e-05
4.00686e-05
4.00697e-05
4.00707e-05
4.00717e-05
4.00727e-05
4.00735e-05
4.00744e-05
4.00751e-05
4.00759e-05
4.00765e-05
4.00772e-05
4.00778e-05
4.00784e-05
4.00789e-05
4.00146e-05
4.00158e-05
4.00169e-05
4.00181e-05
4.00193e-05
4.00207e-05
4.00223e-05
4.00239e-05
4.00257e-05
4.00276e-05
4.00295e-05
4.00316e-05
4.00337e-05
4.00358e-05
4.00379e-05
4.004e-05
4.0042e-05
4.00441e-05
4.00461e-05
4.00481e-05
4.005e-05
4.00519e-05
4.00537e-05
4.00554e-05
4.0057e-05
4.00585e-05
4.00599e-05
4.00613e-05
4.00625e-05
4.00637e-05
4.00648e-05
4.00658e-05
4.00667e-05
4.00676e-05
4.00684e-05
4.00692e-05
4.00699e-05
4.00705e-05
4.00711e-05
4.00716e-05
4.00721e-05
4.00092e-05
4.00099e-05
4.00107e-05
4.00115e-05
4.00124e-05
4.00134e-05
4.00145e-05
4.00158e-05
4.00171e-05
4.00186e-05
4.00202e-05
4.00218e-05
4.00236e-05
4.00255e-05
4.00276e-05
4.00299e-05
4.00321e-05
4.00343e-05
4.00364e-05
4.00384e-05
4.00403e-05
4.00422e-05
4.00439e-05
4.00456e-05
4.00472e-05
4.00487e-05
4.00501e-05
4.00514e-05
4.00526e-05
4.00537e-05
4.00548e-05
4.00558e-05
4.00568e-05
4.00576e-05
4.00584e-05
4.00592e-05
4.00599e-05
4.00606e-05
4.00612e-05
4.00617e-05
4.00623e-05
4.00031e-05
4.00034e-05
4.00037e-05
4.0004e-05
4.00044e-05
4.00048e-05
4.00054e-05
4.00059e-05
4.00066e-05
4.00072e-05
4.0008e-05
4.00087e-05
4.00095e-05
4.00103e-05
4.00111e-05
4.00119e-05
4.00127e-05
4.00134e-05
4.00141e-05
4.00149e-05
4.00157e-05
4.00165e-05
4.00174e-05
4.00184e-05
4.00193e-05
4.00203e-05
4.00213e-05
4.00223e-05
4.00232e-05
4.00242e-05
4.00251e-05
4.0026e-05
4.00268e-05
4.00276e-05
4.00284e-05
4.00291e-05
4.00298e-05
4.00305e-05
4.00311e-05
4.00316e-05
4.00322e-05
0.00364239
0.00713056
0.0101349
0.0121396
0.0130358
0.0128865
0.0117855
0.00984847
0.00713268
0.00382797
0.000980467
3.57421e-05
5.32481e-06
1.8584e-05
4.29283e-05
4.1147e-05
3.96123e-05
3.99399e-05
4.00874e-05
4.00578e-05
4.00528e-05
4.00601e-05
4.00619e-05
4.00612e-05
4.00601e-05
4.00581e-05
4.00556e-05
4.00528e-05
4.005e-05
4.00476e-05
4.00455e-05
4.00441e-05
4.00431e-05
4.00426e-05
4.00424e-05
4.00422e-05
4.0042e-05
4.00418e-05
4.00415e-05
4.00411e-05
4.00407e-05
4.00401e-05
4.00396e-05
4.00389e-05
4.00382e-05
4.00373e-05
4.00364e-05
4.00354e-05
4.00342e-05
4.0033e-05
4.00316e-05
4.003e-05
4.00283e-05
4.00265e-05
4.00244e-05
4.00221e-05
4.00196e-05
4.00169e-05
4.00141e-05
4.00113e-05
4.00086e-05
4.00064e-05
4.00053e-05
4.00056e-05
4.00077e-05
4.00115e-05
4.00163e-05
4.00217e-05
4.00277e-05
4.00342e-05
4.0041e-05
4.0049e-05
4.00555e-05
4.00715e-05
0.00622943
0.0108681
0.0143887
0.0165521
0.0174774
0.0173281
0.0162324
0.0142945
0.0115723
0.00809198
0.0040962
0.000912898
2.8928e-06
4.95582e-06
1.49866e-05
4.2778e-05
4.21181e-05
3.97237e-05
3.98484e-05
4.00804e-05
4.00714e-05
4.00551e-05
4.00606e-05
4.00625e-05
4.00604e-05
4.00584e-05
4.00563e-05
4.00537e-05
4.00508e-05
4.00481e-05
4.0046e-05
4.00444e-05
4.00434e-05
4.00428e-05
4.00425e-05
4.00423e-05
4.00422e-05
4.00419e-05
4.00416e-05
4.00413e-05
4.00409e-05
4.00404e-05
4.00398e-05
4.00392e-05
4.00384e-05
4.00376e-05
4.00367e-05
4.00357e-05
4.00346e-05
4.00333e-05
4.0032e-05
4.00304e-05
4.00288e-05
4.00269e-05
4.00248e-05
4.00226e-05
4.00201e-05
4.00174e-05
4.00146e-05
4.00118e-05
4.00091e-05
4.00068e-05
4.00054e-05
4.00055e-05
4.00073e-05
4.00109e-05
4.00156e-05
4.0021e-05
4.0027e-05
4.00334e-05
4.00402e-05
4.00482e-05
4.00546e-05
4.00706e-05
0.00870387
0.0147621
0.0190023
0.0214319
0.0224491
0.0223342
0.0212572
0.019331
0.0166264
0.0131715
0.00897456
0.00435201
0.000899605
0.000236492
5.1695e-06
5.01863e-06
4.03599e-05
4.29155e-05
4.01254e-05
3.9758e-05
4.00572e-05
4.00915e-05
4.00578e-05
4.00578e-05
4.00634e-05
4.00611e-05
4.00569e-05
4.0054e-05
4.00515e-05
4.0049e-05
4.00466e-05
4.00448e-05
4.00436e-05
4.0043e-05
4.00426e-05
4.00425e-05
4.00423e-05
4.00421e-05
4.00418e-05
4.00415e-05
4.00411e-05
4.00406e-05
4.00401e-05
4.00394e-05
4.00387e-05
4.00379e-05
4.0037e-05
4.0036e-05
4.00349e-05
4.00337e-05
4.00324e-05
4.00309e-05
4.00292e-05
4.00274e-05
4.00253e-05
4.00231e-05
4.00206e-05
4.0018e-05
4.00152e-05
4.00123e-05
4.00096e-05
4.00072e-05
4.00056e-05
4.00054e-05
4.0007e-05
4.00103e-05
4.00149e-05
4.00203e-05
4.00262e-05
4.00326e-05
4.00394e-05
4.00473e-05
4.00537e-05
4.00695e-05
0.0111469
0.0188458
0.0239467
0.026762
0.0279634
0.0279462
0.0269274
0.025038
0.0223614
0.0189461
0.0147999
0.00991502
0.00472039
0.00103658
7.17097e-06
1.4184e-06
1.06174e-05
3.55443e-05
4.36861e-05
4.07011e-05
3.96683e-05
3.99757e-05
4.01208e-05
4.00719e-05
4.00461e-05
4.00555e-05
4.00611e-05
4.00573e-05
4.00523e-05
4.00492e-05
4.00472e-05
4.00455e-05
4.00441e-05
4.00432e-05
4.00428e-05
4.00426e-05
4.00425e-05
4.00423e-05
4.0042e-05
4.00417e-05
4.00413e-05
4.00409e-05
4.00403e-05
4.00397e-05
4.0039e-05
4.00383e-05
4.00374e-05
4.00364e-05
4.00353e-05
4.00341e-05
4.00328e-05
4.00313e-05
4.00297e-05
4.00279e-05
4.00259e-05
4.00237e-05
4.00212e-05
4.00186e-05
4.00158e-05
4.00129e-05
4.00101e-05
4.00076e-05
4.00058e-05
4.00054e-05
4.00066e-05
4.00097e-05
4.00141e-05
4.00195e-05
4.00253e-05
4.00317e-05
4.00385e-05
4.00464e-05
4.00528e-05
4.00684e-05
0.0137365
0.0231799
0.029175
0.0324843
0.0339835
0.0341562
0.0332654
0.0314655
0.0288536
0.0254929
0.0214177
0.0166143
0.0110842
0.00539306
0.00130574
0.000395076
0
9.30606e-06
3.07715e-05
4.3485e-05
4.19102e-05
3.97306e-05
3.97588e-05
4.01239e-05
4.01458e-05
4.0065e-05
4.00413e-05
4.00517e-05
4.00567e-05
4.00528e-05
4.00479e-05
4.00454e-05
4.00444e-05
4.00437e-05
4.00432e-05
4.00428e-05
4.00426e-05
4.00425e-05
4.00423e-05
4.0042e-05
4.00416e-05
4.00412e-05
4.00406e-05
4.00401e-05
4.00394e-05
4.00386e-05
4.00378e-05
4.00368e-05
4.00358e-05
4.00346e-05
4.00333e-05
4.00318e-05
4.00302e-05
4.00284e-05
4.00265e-05
4.00243e-05
4.00219e-05
4.00192e-05
4.00165e-05
4.00136e-05
4.00107e-05
4.00081e-05
4.00061e-05
4.00054e-05
4.00063e-05
4.00091e-05
4.00134e-05
4.00186e-05
4.00244e-05
4.00308e-05
4.00376e-05
4.00454e-05
4.00518e-05
4.00672e-05
0.0171883
0.0278309
0.0346247
0.0385104
0.0404261
0.0409016
0.0402361
0.0386079
0.0361289
0.0328734
0.0288918
0.0242055
0.0187902
0.0126827
0.00646018
0.00177464
0.00060679
2.12756e-05
7.7303e-06
1.90561e-05
4.04803e-05
4.35718e-05
4.049e-05
3.93816e-05
3.98161e-05
4.01573e-05
4.01441e-05
4.00607e-05
4.0037e-05
4.00466e-05
4.00524e-05
4.00493e-05
4.00449e-05
4.00431e-05
4.0043e-05
4.00432e-05
4.00431e-05
4.00428e-05
4.00425e-05
4.00422e-05
4.00419e-05
4.00415e-05
4.0041e-05
4.00404e-05
4.00398e-05
4.0039e-05
4.00382e-05
4.00373e-05
4.00362e-05
4.00351e-05
4.00338e-05
4.00324e-05
4.00308e-05
4.0029e-05
4.00271e-05
4.00249e-05
4.00225e-05
4.00199e-05
4.00172e-05
4.00143e-05
4.00114e-05
4.00086e-05
4.00065e-05
4.00054e-05
4.0006e-05
4.00084e-05
4.00125e-05
4.00177e-05
4.00235e-05
4.00298e-05
4.00366e-05
4.00444e-05
4.00507e-05
4.0066e-05
0.0219193
0.0328141
0.040233
0.0447317
0.0471645
0.0480608
0.0477376
0.0463901
0.0441429
0.0410794
0.0372585
0.0327214
0.0274817
0.0215188
0.0148902
0.00810148
0.00279038
0.000111325
0.000119896
4.22849e-06
1.03449e-05
3.07516e-05
4.43364e-05
4.30563e-05
4.00066e-05
3.93583e-05
3.98468e-05
4.01508e-05
4.01358e-05
4.00564e-05
4.0031e-05
4.00407e-05
4.00495e-05
4.00486e-05
4.00444e-05
4.00421e-05
4.00421e-05
4.00427e-05
4.0043e-05
4.00428e-05
4.00423e-05
4.00418e-05
4.00413e-05
4.00408e-05
4.00402e-05
4.00395e-05
4.00387e-05
4.00378e-05
4.00368e-05
4.00356e-05
4.00344e-05
4.0033e-05
4.00314e-05
4.00297e-05
4.00278e-05
4.00256e-05
4.00233e-05
4.00207e-05
4.00179e-05
4.0015e-05
4.00121e-05
4.00093e-05
4.00069e-05
4.00056e-05
4.00057e-05
4.00078e-05
4.00117e-05
4.00167e-05
4.00225e-05
4.00288e-05
4.00355e-05
4.00432e-05
4.00496e-05
4.00647e-05
0.0275303
0.0380909
0.0459378
0.0510191
0.05403
0.0554516
0.0555927
0.0546528
0.0527626
0.0500106
0.0464598
0.0421589
0.0371425
0.0314223
0.0249896
0.0178715
0.0105913
0.00431835
0.00061432
0.000394042
2.72197e-06
7.21085e-06
1.07e-05
3.59594e-05
4.47769e-05
4.25379e-05
3.98854e-05
3.94211e-05
3.98728e-05
4.01531e-05
4.01408e-05