/*--------------------------------*- C++ -*----------------------------------*\
| =========                 |                                                 |
| \\      /  F ield         | OpenFOAM: The Open Source CFD Toolbox           |
|  \\    /   O peration     | Version:  2312                                  |
|   \\  /    A nd           | Website:  www.openfoam.com                      |
|    \\/     M anipulation  |                                                 |
\*---------------------------------------------------------------------------*/
FoamFile
{
    version     2.0;
    format      ascii;
    arch        "LSB;label=32;scalar=64";
    class       volScalarField;
    location    "1000";
    object      p;
}
// * * * * * * * * * * * * * * * * * * * * * * * * * * * * * * * * * * * * * //

dimensions      [0 2 -2 0 0 0 0];

internalField   nonuniform List<scalar> 
11040
(
-19.1484
-24.5056
-19.8269
-19.2039
-19.0781
-18.8755
-18.6749
-18.509
-18.3827
-18.2953
-18.2167
-18.1528
-18.1035
-18.0595
-18.0275
-18.0029
-17.9875
-17.9812
-17.9836
-17.996
-18.0158
-18.0444
-18.0846
-18.1351
-18.19
-18.2435
-18.2879
-18.3139
-18.3106
-18.2671
-18.1737
-18.0232
-17.8119
-17.5427
-17.2302
-16.8996
-16.5686
-16.303
-16.2784
-16.2698
-16.7237
-8.19748
-14.6967
-18.5515
-19.0255
-19.0373
-18.8855
-18.6855
-18.5156
-18.3836
-18.2947
-18.2154
-18.1499
-18.1001
-18.0555
-18.0229
-17.9979
-17.982
-17.9753
-17.9773
-17.9892
-18.0089
-18.0375
-18.0772
-18.1273
-18.1824
-18.2365
-18.282
-18.3097
-18.3088
-18.2685
-18.1786
-18.032
-17.8251
-17.5604
-17.2523
-16.9257
-16.5987
-16.3328
-16.3117
-16.2838
-17.1324
-1.52725
-8.44704
-14.6396
-17.9696
-18.7818
-18.838
-18.6922
-18.5224
-18.3811
-18.2914
-18.2127
-18.1454
-18.0956
-18.0502
-18.0171
-17.9917
-17.9753
-17.9682
-17.9696
-17.981
-18.0005
-18.0293
-18.0689
-18.1186
-18.1737
-18.2283
-18.2748
-18.3041
-18.3057
-18.2687
-18.183
-18.0414
-17.8405
-17.5826
-17.2816
-16.9626
-16.6445
-16.3841
-16.3759
-16.3263
-17.3431
2.3975
-4.65506
-10.5739
-14.9155
-17.5731
-18.5461
-18.6132
-18.5227
-18.3783
-18.2852
-18.2075
-18.1378
-18.0889
-18.0428
-18.0092
-17.9833
-17.9662
-17.9588
-17.9597
-17.9706
-17.9898
-18.0187
-18.0583
-18.1079
-18.1631
-18.2185
-18.2665
-18.2982
-18.3031
-18.2705
-18.1905
-18.0557
-17.8628
-17.6139
-17.3225
-17.0135
-16.7069
-16.4569
-16.4626
-16.4072
-17.426
4.91658
-0.855336
-6.51578
-11.2373
-14.816
-17.1783
-18.2283
-18.3626
-18.3706
-18.2831
-18.2036
-18.1264
-18.0796
-18.0328
-17.9991
-17.9729
-17.955
-17.9472
-17.9475
-17.9578
-17.9765
-18.0055
-18.045
-18.0945
-18.1502
-18.2066
-18.2566
-18.2914
-18.3008
-18.2742
-18.2016
-18.0758
-17.8936
-17.6567
-17.3781
-17.0824
-16.791
-16.5569
-16.5711
-16.5287
-17.4633
6.35154
1.83993
-3.03402
-7.7083
-11.6008
-14.5565
-16.6642
-17.7893
-18.1284
-18.2293
-18.2033
-18.1173
-18.0684
-18.019
-17.9861
-17.9601
-17.9416
-17.9335
-17.933
-17.9427
-17.9606
-17.9896
-18.0288
-18.0783
-18.1344
-18.1922
-18.2448
-18.2837
-18.2989
-18.28
-18.217
-18.1031
-17.9345
-17.7133
-17.4515
-17.1733
-16.901
-16.6884
-16.7031
-16.6927
-17.5002
7.12595
3.51443
-0.433828
-4.52697
-8.39117
-11.6472
-14.1762
-16.0766
-17.298
-17.8828
-18.0341
-18.1111
-18.0652
-18.0071
-17.9692
-17.9436
-17.9251
-17.9175
-17.9163
-17.9253
-17.9423
-17.9707
-18.0095
-18.0587
-18.1154
-18.1749
-18.2307
-18.2748
-18.2973
-18.2881
-18.2376
-18.1385
-17.9873
-17.7859
-17.5455
-17.2891
-17.0406
-16.8534
-16.8623
-16.8944
-17.5533
7.43212
4.50442
1.36212
-2.00117
-5.43622
-8.69701
-11.5136
-13.7454
-15.4726
-16.7489
-17.4994
-17.8243
-17.975
-18.0122
-17.9594
-17.9272
-17.9036
-17.8975
-17.8964
-17.9055
-17.9213
-17.9488
-17.9866
-18.0353
-18.0925
-18.1539
-18.2137
-18.2641
-18.2957
-18.2987
-18.2635
-18.1829
-18.0533
-17.8762
-17.662
-17.432
-17.2111
-17.0507
-17.0512
-17.1219
-17.6249
7.43099
5.01975
2.49572
-0.219121
-3.08647
-5.98828
-8.77882
-11.262
-13.2863
-14.8759
-16.1221
-17.0154
-17.5412
-17.7739
-17.9179
-17.931
-17.8878
-17.8759
-17.871
-17.8817
-17.897
-17.9236
-17.9602
-18.008
-18.0654
-18.1288
-18.193
-18.2508
-18.2933
-18.3109
-18.2942
-18.236
-18.1323
-17.9843
-17.8009
-17.6013
-17.4105
-17.2747
-17.2664
-17.3554
-17.7105
7.2158
5.19515
3.13675
0.948892
-1.39322
-3.83831
-6.31098
-8.71989
-10.9313
-12.8034
-14.286
-15.4781
-16.4437
-17.1264
-17.5218
-17.7344
-17.8693
-17.8764
-17.8506
-17.8554
-17.8664
-17.8927
-17.9289
-17.9759
-18.0336
-18.0991
-18.168
-18.2339
-18.2887
-18.323
-18.3277
-18.2954
-18.2217
-18.1068
-17.9579
-17.7915
-17.6308
-17.5143
-17.4946
-17.5717
-17.7981
6.85436
5.13564
3.42814
1.64868
-0.253586
-2.27168
-4.36773
-6.48921
-8.57651
-10.5463
-12.2824
-13.7081
-14.8585
-15.8199
-16.5966
-17.1507
-17.4844
-17.7035
-17.8402
-17.8539
-17.8406
-17.8575
-17.889
-17.9351
-17.9945
-18.0629
-18.1372
-18.2121
-18.2802
-18.3327
-18.3609
-18.3568
-18.3153
-18.2356
-18.1225
-17.9891
-17.855
-17.7498
-17.7113
-17.7481
-17.8639
6.39524
4.91387
3.47352
2.00496
0.45259
-1.19897
-2.94094
-4.74547
-6.57382
-8.38415
-10.1256
-11.7293
-13.1165
-14.2527
-15.1891
-15.9903
-16.6465
-17.1299
-17.4436
-17.6783
-17.8249
-17.8546
-17.8582
-17.8895
-17.9438
-18.0134
-18.0943
-18.1804
-18.2638
-18.336
-18.3887
-18.4137
-18.4047
-18.359
-18.2789
-18.1733
-18.0573
-17.9523
-17.8831
-17.8602
-17.8779
5.8752
4.5847
3.35173
2.12092
0.839178
-0.515911
-1.94972
-3.45568
-5.01386
-6.59337
-8.16141
-9.69314
-11.1554
-12.4871
-13.6262
-14.5637
-15.3559
-16.0487
-16.6306
-17.0762
-17.3767
-17.6233
-17.8196
-17.9038
-17.9272
-17.9663
-18.0369
-18.1274
-18.2253
-18.3188
-18.3979
-18.4532
-18.4765
-18.4627
-18.4107
-18.3253
-18.2162
-18.097
-17.983
-17.889
-17.8156
5.32207
4.18869
3.12061
2.07427
1.00158
-0.120335
-1.30206
-2.54686
-3.8504
-5.19689
-6.56128
-7.92285
-9.26794
-10.5781
-11.8209
-12.9457
-13.9086
-14.7129
-15.4095
-16.0321
-16.5775
-16.9712
-17.2309
-17.4919
-17.7678
-17.9689
-18.0696
-18.1263
-18.1893
-18.2702
-18.3591
-18.4391
-18.4944
-18.5132
-18.4886
-18.4198
-18.3115
-18.1714
-18.0086
-17.8422
-17.6823
4.75676
3.75596
2.82257
1.9226
1.0134
0.0738811
-0.907074
-1.93655
-3.01739
-4.14507
-5.30662
-6.48734
-7.67346
-8.85114
-10.0098
-11.1362
-12.2055
-13.1787
-14.026
-14.7513
-15.4163
-15.9646
-16.3677
-16.7098
-16.9975
-17.2601
-17.5625
-17.8896
-18.1608
-18.3331
-18.4252
-18.4714
-18.4906
-18.4869
-18.4551
-18.3874
-18.2772
-18.1247
-17.9309
-17.712
-17.4844
4.19908
3.31239
2.49136
1.70971
0.930203
0.134322
-0.688038
-1.54474
-2.44115
-3.37827
-4.3511
-5.35289
-6.37545
-7.40657
-8.43442
-9.4504
-10.449
-11.4224
-12.3548
-13.2163
-13.9929
-14.6443
-15.1652
-15.6123
-16.0089
-16.3606
-16.6655
-16.9262
-17.1797
-17.4742
-17.8084
-18.1242
-18.3573
-18.4797
-18.4942
-18.4185
-18.2693
-18.0587
-17.7888
-17.481
-17.1661
3.67114
2.88454
2.15952
1.47555
0.800639
0.119013
-0.577877
-1.29729
-2.04521
-2.82457
-3.63452
-4.47284
-5.33642
-6.21851
-7.1103
-8.00226
-8.8862
-9.75648
-10.6102
-11.4435
-12.2477
-12.9856
-13.6294
-14.1846
-14.6701
-15.1034
-15.4921
-15.8411
-16.1551
-16.4305
-16.6614
-16.8558
-17.0347
-17.2154
-17.3854
-17.516
-17.5735
-17.5408
-17.4012
-17.1711
-16.8912
3.20392
2.50137
1.85612
1.25094
0.658276
0.0649444
-0.536132
-1.15125
-1.78584
-2.44317
-3.12425
-3.82909
-4.55695
-5.30453
-6.06688
-6.83771
-7.61002
-8.37697
-9.13286
-9.87414
-10.5976
-11.2785
-11.9022
-12.4701
-12.9816
-13.44
-13.8513
-14.2237
-14.5632
-14.8712
-15.1485
-15.3946
-15.6029
-15.7663
-15.8728
-15.9188
-15.9056
-15.8482
-15.7382
-15.5769
-15.4029
2.80547
2.17248
1.59283
1.05131
0.524011
-0.000157124
-0.527177
-1.06257
-1.61117
-2.17616
-2.75881
-3.36005
-3.98015
-4.61751
-5.26931
-5.93179
-6.60038
-7.26998
-7.93501
-8.58969
-9.2283
-9.82432
-10.3634
-10.8524
-11.2962
-11.7003
-12.0694
-12.406
-12.7125
-12.991
-13.2424
-13.4664
-13.6593
-13.8167
-13.9324
-14.0015
-14.0181
-13.9853
-13.896
-13.7429
-13.5651
2.46765
1.89392
1.36964
0.881055
0.407356
-0.0608519
-0.528691
-1.00096
-1.48189
-1.9743
-2.47947
-2.99858
-3.53236
-4.07996
-4.6397
-5.20906
-5.78486
-6.36336
-6.94045
-7.51163
-8.07228
-8.59909
-9.07737
-9.51026
-9.89873
-10.2453
-10.5533
-10.8261
-11.067
-11.2779
-11.4599
-11.613
-11.737
-11.8312
-11.8948
-11.9261
-11.9228
-11.8839
-11.8079
-11.6879
-11.536
2.17945
1.65727
1.18074
0.737323
0.308905
-0.112523
-0.531416
-0.951964
-1.37781
-1.81141
-2.25396
-2.7065
-3.16989
-3.64367
-4.12671
-4.61726
-5.11298
-5.61099
-6.10802
-6.60042
-7.08435
-7.54053
-7.95658
-8.33414
-8.67279
-8.97321
-9.23664
-9.46449
-9.65827
-9.81953
-9.94982
-10.0505
-10.1227
-10.1668
-10.1835
-10.1727
-10.1347
-10.0681
-9.97537
-9.85565
-9.71188
1.93262
1.45598
1.02135
0.617272
0.228002
-0.15334
-0.530665
-0.907649
-1.28742
-1.67207
-2.06267
-2.46007
-2.86504
-3.27731
-3.69603
-4.11985
-4.54695
-4.97507
-5.40149
-5.82311
-6.23657
-6.62575
-6.98048
-7.30191
-7.58947
-7.8435
-8.06475
-8.25404
-8.41229
-8.54047
-8.63957
-8.71056
-8.75444
-8.77227
-8.76551
-8.73509
-8.68248
-8.60799
-8.5149
-8.40323
-8.27638
1.72041
1.28442
0.886997
0.517661
0.162773
-0.183609
-0.524953
-0.86449
-1.2049
-1.54795
-1.89455
-2.24537
-2.60104
-2.96133
-3.32553
-3.69254
-4.06085
-4.42859
-4.79352
-5.15301
-5.50417
-5.83361
-6.13308
-6.40337
-6.6438
-6.85456
-7.03623
-7.18952
-7.31528
-7.41446
-7.48807
-7.53717
-7.56286
-7.56635
-7.54898
-7.51176
-7.45583
-7.38222
-7.29329
-7.18957
-7.07373
1.53745
1.13801
0.773914
0.435592
0.111273
-0.204205
-0.513937
-0.820767
-1.12699
-1.43409
-1.74281
-2.0537
-2.36717
-2.68304
-3.00064
-3.31902
-3.63688
-3.95263
-4.26436
-4.56983
-4.86659
-5.14357
-5.39427
-5.61931
-5.81808
-5.99071
-6.13775
-6.25989
-6.35794
-6.43286
-6.48572
-6.51762
-6.52971
-6.5232
-6.49945
-6.45953
-6.40459
-6.33568
-6.25466
-6.16232
-6.06039
1.37932
1.01294
0.678879
0.368453
0.0715396
-0.216358
-0.498024
-0.775956
-1.05212
-1.32776
-1.60349
-1.8797
-2.15668
-2.43419
-2.71164
-2.98815
-3.26258
-3.53357
-3.79946
-4.05833
-4.30811
-4.53972
-4.74818
-4.93405
-5.09688
-5.23687
-5.35458
-5.45071
-5.52608
-5.58166
-5.61848
-5.63766
-5.64034
-5.62771
-5.60105
-5.56146
-5.51004
-5.4477
-5.37615
-5.29602
-5.20913
1.24243
0.906048
0.599171
0.313971
0.0417845
-0.221327
-0.477874
-0.730054
-0.97955
-1.2274
-1.4741
-1.71992
-1.96505
-2.20921
-2.45185
-2.69215
-2.92912
-3.16155
-3.38804
-3.60693
-3.81648
-4.00931
-4.18171
-4.33424
-4.46663
-4.57917
-4.67245
-4.74721
-4.80428
-4.8446
-4.86918
-4.87908
-4.8754
-4.85921
-4.83171
-4.79388
-4.74675
-4.69108
-4.62839
-4.55911
-4.48508
1.12376
0.814676
0.532485
0.270184
0.0204
-0.220327
-0.454269
-0.683357
-0.909035
-1.13217
-1.35315
-1.57217
-1.78932
-2.00431
-2.21661
-2.42549
-2.63007
-2.82929
-3.02195
-3.20667
-3.38197
-3.54192
-3.68383
-3.80831
-3.91525
-4.00501
-4.07824
-4.13569
-4.17819
-4.20663
-4.22198
-4.22522
-4.21734
-4.19932
-4.17222
-4.13691
-4.09426
-4.04493
-3.9902
-3.93041
-3.86715
1.02081
0.736594
0.476867
0.235405
0.00597841
-0.214464
-0.427981
-0.636273
-0.840573
-1.04161
-1.23969
-1.43495
-1.62741
-1.81677
-2.00255
-2.18409
-2.36062
-2.53123
-2.6949
-2.85047
-2.99676
-3.129
-3.24535
-3.34646
-3.43234
-3.50343
-3.56042
-3.60404
-3.63509
-3.65444
-3.66295
-3.66154
-3.65109
-3.63246
-3.60657
-3.57418
-3.53604
-3.49269
-3.4452
-3.39384
-3.33997
0.931452
0.669918
0.430654
0.208188
-0.00270597
-0.204725
-0.399737
-0.58924
-0.774291
-0.955505
-1.13313
-1.30725
-1.47783
-1.64463
-1.80717
-1.96487
-2.11709
-2.26304
-2.40189
-2.53269
-2.65447
-2.76348
-2.85854
-2.94031
-3.00892
-3.06485
-3.1088
-3.14149
-3.16368
-3.17616
-3.17974
-3.17522
-3.16339
-3.14499
-3.12082
-3.09152
-3.05773
-3.0199
-2.97891
-2.93496
-2.88925
0.853883
0.613039
0.392432
0.187294
-0.00670857
-0.19197
-0.370187
-0.542681
-0.710358
-0.873744
-1.03304
-1.1883
-1.33949
-1.48635
-1.62849
-1.7654
-1.89653
-2.02125
-2.13887
-2.24864
-2.34981
-2.43942
-2.51682
-2.5827
-2.63725
-2.68098
-2.71457
-2.73872
-2.75414
-2.76155
-2.76167
-2.75521
-2.74286
-2.72526
-2.70308
-2.67687
-2.64716
-2.61432
-2.57909
-2.5416
-2.50288
0.786566
0.564593
0.36099
0.171667
-0.00693608
-0.176944
-0.339902
-0.496974
-0.648948
-0.796273
-0.939124
-1.07754
-1.21148
-1.34072
-1.46493
-1.58369
-1.69654
-1.80298
-1.90247
-1.99442
-2.07828
-2.15176
-2.2146
-2.26747
-2.31064
-2.34461
-2.37004
-2.38758
-2.3979
-2.40162
-2.39941
-2.39186
-2.37959
-2.36314
-2.34306
-2.31983
-2.29388
-2.26552
-2.23534
-2.20343
-2.1707
0.728181
0.523403
0.335296
0.160398
-0.00416352
-0.160282
-0.309368
-0.452448
-0.590211
-0.723052
-0.851129
-0.974482
-1.09307
-1.20672
-1.31518
-1.41808
-1.51508
-1.60579
-1.68981
-1.76671
-1.83608
-1.89617
-1.94705
-1.98935
-2.02335
-2.04958
-2.06864
-2.08114
-2.08768
-2.08881
-2.08512
-2.07713
-2.06536
-2.05025
-2.0323
-2.01187
-1.98934
-1.96494
-1.93917
-1.91209
-1.88447
0.677591
0.488463
0.314458
0.152713
0.000946889
-0.142526
-0.278996
-0.409376
-0.53427
-0.654038
-0.768832
-0.878703
-0.983631
-1.08348
-1.17807
-1.26713
-1.35039
-1.42758
-1.49842
-1.5626
-1.61986
-1.66888
-1.70995
-1.74366
-1.77032
-1.79042
-1.80453
-1.81321
-1.81698
-1.81634
-1.81179
-1.80379
-1.79276
-1.7791
-1.76319
-1.74536
-1.7259
-1.70501
-1.68309
-1.66017
-1.63691
0.633813
0.458899
0.297714
0.147943
0.00783083
-0.124133
-0.249131
-0.367977
-0.481213
-0.589174
-0.692018
-0.789814
-0.882572
-0.970208
-1.05261
-1.12957
-1.20093
-1.26651
-1.32613
-1.37959
-1.42676
-1.46667
-1.49974
-1.52653
-1.54736
-1.56268
-1.57301
-1.57886
-1.58068
-1.57892
-1.57399
-1.56629
-1.55619
-1.54399
-1.53003
-1.51457
-1.49785
-1.48004
-1.46144
-1.44208
-1.42254
0.595989
0.433956
0.284399
0.145518
0.0160047
-0.105491
-0.220056
-0.328427
-0.431097
-0.528388
-0.620475
-0.707452
-0.789364
-0.866179
-0.937847
-1.00425
-1.0653
-1.1209
-1.17097
-1.2154
-1.25415
-1.28653
-1.31305
-1.33425
-1.35041
-1.36196
-1.36938
-1.37311
-1.37355
-1.37108
-1.36607
-1.35885
-1.34972
-1.33894
-1.32678
-1.31347
-1.29919
-1.28406
-1.26837
-1.25209
-1.23573
0.563379
0.412974
0.273936
0.144935
0.0250524
-0.0869273
-0.192008
-0.290861
-0.383949
-0.471593
-0.55399
-0.631265
-0.703506
-0.770736
-0.832962
-0.890155
-0.94228
-0.989329
-1.0313
-1.06816
-1.09995
-1.12618
-1.14744
-1.1642
-1.17674
-1.18544
-1.19072
-1.19298
-1.19256
-1.18979
-1.18497
-1.17838
-1.17027
-1.16086
-1.15037
-1.13898
-1.12684
-1.11404
-1.10082
-1.08715
-1.07346
0.535342
0.395389
0.265829
0.145766
0.0346141
-0.0687233
-0.165182
-0.255384
-0.339777
-0.418688
-0.492345
-0.560913
-0.624521
-0.683247
-0.737156
-0.786288
-0.830669
-0.870353
-0.905397
-0.935847
-0.961784
-0.982901
-0.999796
-1.0129
-1.02248
-1.02887
-1.03246
-1.03358
-1.03253
-1.0296
-1.02504
-1.01908
-1.01193
-1.00378
-0.994788
-0.985106
-0.974863
-0.964134
-0.953094
-0.941714
-0.930374
0.511308
0.380702
0.259647
0.147642
0.044384
-0.0511172
-0.139739
-0.222074
-0.298565
-0.369561
-0.435326
-0.496068
-0.551963
-0.603146
-0.649736
-0.691844
-0.729549
-0.762964
-0.7922
-0.817355
-0.838555
-0.855622
-0.869143
-0.879503
-0.886933
-0.891738
-0.89424
-0.894733
-0.89347
-0.890683
-0.886584
-0.881364
-0.875193
-0.868219
-0.860583
-0.852401
-0.843776
-0.834769
-0.825523
-0.816005
-0.806546
0.490737
0.368427
0.254972
0.150217
0.0540878
-0.034314
-0.115815
-0.190989
-0.260288
-0.324095
-0.382717
-0.436407
-0.485388
-0.529845
-0.569945
-0.605852
-0.637687
-0.665605
-0.689756
-0.710278
-0.727323
-0.740815
-0.751329
-0.759211
-0.76467
-0.767981
-0.769428
-0.769267
-0.767714
-0.764967
-0.761202
-0.756579
-0.751237
-0.745295
-0.738864
-0.732037
-0.724896
-0.717485
-0.709917
-0.702153
-0.694486
0.47316
0.358109
0.251381
0.153122
0.0634318
-0.0185227
-0.0935375
-0.162178
-0.224917
-0.282173
-0.334306
-0.381627
-0.424412
-0.462903
-0.497321
-0.527887
-0.55477
-0.578166
-0.598256
-0.615202
-0.629178
-0.640168
-0.648702
-0.655069
-0.659447
-0.662065
-0.66316
-0.662942
-0.661587
-0.659255
-0.656086
-0.652212
-0.647741
-0.642772
-0.637395
-0.631684
-0.625705
-0.619497
-0.613151
-0.606635
-0.600195
0.458346
0.349526
0.248622
0.156078
0.0721451
-0.00396251
-0.0730432
-0.135693
-0.192419
-0.243685
-0.289897
-0.331417
-0.36857
-0.401638
-0.43087
-0.456507
-0.478749
-0.497815
-0.513918
-0.527246
-0.53799
-0.546194
-0.552371
-0.556781
-0.559589
-0.561001
-0.561229
-0.560455
-0.55883
-0.556491
-0.553555
-0.550127
-0.546295
-0.542135
-0.537716
-0.533093
-0.528316
-0.523408
-0.518441
-0.513369
-0.50842
0.446141
0.342641
0.246728
0.159104
0.0801849
0.00927298
-0.0544242
-0.111562
-0.162738
-0.208492
-0.249294
-0.285555
-0.317664
-0.345989
-0.370865
-0.392592
-0.411402
-0.427507
-0.441113
-0.452399
-0.461549
-0.468622
-0.474051
-0.478038
-0.480709
-0.482224
-0.482752
-0.48243
-0.481376
-0.479692
-0.477472
-0.474796
-0.471738
-0.468357
-0.464712
-0.460849
-0.456812
-0.452622
-0.448343
-0.443945
-0.439604
0.43566
0.336674
0.245176
0.161964
0.0875103
0.0212032
-0.0376901
-0.0898237
-0.135858
-0.176449
-0.212185
-0.243553
-0.270931
-0.294622
-0.314913
-0.332125
-0.346572
-0.358548
-0.368315
-0.376082
-0.382044
-0.386295
-0.389266
-0.39114
-0.39204
-0.392112
-0.391508
-0.390351
-0.388743
-0.38677
-0.384508
-0.38202
-0.379359
-0.376567
-0.373682
-0.370733
-0.367748
-0.364734
-0.361731
-0.358693
-0.355794
0.425394
0.329725
0.242002
0.162987
0.0929802
0.0312337
-0.0230655
-0.0705836
-0.111942
-0.147772
-0.178721
-0.205463
-0.22866
-0.248886
-0.266544
-0.281862
-0.294974
-0.306039
-0.315258
-0.322824
-0.328918
-0.33364
-0.337304
-0.340039
-0.34193
-0.343082
-0.3436
-0.343568
-0.343057
-0.342127
-0.340833
-0.339226
-0.337347
-0.335236
-0.332927
-0.330451
-0.327836
-0.325099
-0.322275
-0.319358
-0.316439
0.416665
0.322682
0.23722
0.161331
0.0952963
0.0381736
-0.0111805
-0.0537796
-0.0904879
-0.12199
-0.148775
-0.171187
-0.189527
-0.204162
-0.215631
-0.224603
-0.231652
-0.237122
-0.241219
-0.244094
-0.245898
-0.246719
-0.246885
-0.246512
-0.245676
-0.244475
-0.243006
-0.241346
-0.239554
-0.23768
-0.235764
-0.233838
-0.231926
-0.230046
-0.22821
-0.226429
-0.224712
-0.223053
-0.22147
-0.219916
-0.218517
0.415427
0.322886
0.238233
0.163145
0.0985249
0.0438997
-0.00173621
-0.0395826
-0.0709506
-0.0971636
-0.119444
-0.13882
-0.156037
-0.171486
-0.185167
-0.196836
-0.206422
-0.214216
-0.220599
-0.225849
-0.230156
-0.233658
-0.236554
-0.238908
-0.240768
-0.242192
-0.243231
-0.243925
-0.244303
-0.244394
-0.244224
-0.243815
-0.243192
-0.242374
-0.241383
-0.240238
-0.238954
-0.237549
-0.236035
-0.234442
-0.232748
0.418997
0.329226
0.24663
0.172524
0.107973
0.0530682
0.00744464
-0.0294757
-0.0584439
-0.0803259
-0.0960428
-0.10654
-0.112797
-0.115853
-0.116832
-0.116762
-0.116079
-0.114844
-0.113065
-0.110818
-0.108198
-0.105247
-0.102184
-0.0990849
-0.0959901
-0.0929486
-0.0900074
-0.0872004
-0.0845486
-0.0820648
-0.0797553
-0.0776212
-0.0756591
-0.0738612
-0.0722177
-0.070719
-0.0693563
-0.0681117
-0.0669819
-0.0659244
-0.0650047
0.400394
0.309103
0.22965
0.161422
0.103572
0.0548238
0.0138969
-0.0203288
-0.0488343
-0.0724958
-0.0920996
-0.108351
-0.121865
-0.13316
-0.142619
-0.150588
-0.157359
-0.16285
-0.167423
-0.171473
-0.175223
-0.178801
-0.182174
-0.185322
-0.188275
-0.191057
-0.193677
-0.196138
-0.19845
-0.200622
-0.202667
-0.204596
-0.206425
-0.208166
-0.209833
-0.21144
-0.212996
-0.214517
-0.216
-0.217494
-0.218897
-15.6574
-14.7386
-14.0512
-13.7704
-13.444
-12.9935
-12.4556
-11.8486
-11.1874
-10.4894
-9.76527
-9.02573
-8.28367
-7.5531
-6.84241
-6.15789
-5.50552
-4.88908
-4.31211
-3.77645
-3.28304
-2.83225
-2.42343
-2.05549
-1.72672
-1.43507
-1.17805
-0.95324
-0.757773
-0.589006
-0.444209
-0.320799
-0.216278
-0.128317
-0.0547813
0.00626805
0.0565965
0.0977122
0.13101
0.157626
0.178645
0.194864
0.207081
0.215993
0.222041
0.225821
0.227618
0.227809
0.226663
0.224386
0.221146
0.217115
0.212387
0.207059
0.201196
0.194851
0.188059
0.180849
0.173221
0.165198
0.156751
0.147901
0.13859
0.12885
0.118592
0.107886
0.0964771
0.0848915
0.0717457
0.0602305
0.042925
0.0366987
0.00351123
0.0298274
-16.3695
-15.454
-14.6295
-14.1723
-13.7404
-13.2263
-12.6444
-12.0039
-11.3158
-10.5966
-9.85869
-9.10936
-8.35561
-7.61209
-6.88983
-6.19524
-5.53416
-4.91031
-4.32711
-3.7863
-3.28868
-2.83451
-2.42305
-2.0531
-1.72286
-1.43019
-1.17253
-0.947379
-0.751809
-0.58312
-0.438539
-0.315443
-0.211298
-0.123752
-0.0506501
0.00996709
0.0598723
0.100585
0.133504
0.159773
0.180467
0.196393
0.20835
0.217022
0.222864
0.226456
0.228091
0.228142
0.226873
0.224491
0.221161
0.217053
0.212261
0.206879
0.200973
0.194591
0.187771
0.18054
0.172896
0.164861
0.156409
0.147555
0.138246
0.128511
0.118261
0.107567
0.0961727
0.0846044
0.0714859
0.0599859
0.0427362
0.0364978
0.00344576
0.0297079
-16.8575
-16.1895
-15.2975
-14.6675
-14.1145
-13.5209
-12.8821
-12.1981
-11.475
-10.7259
-9.96425
-9.20046
-8.43648
-7.68019
-6.94464
-6.23808
-5.56674
-4.9342
-4.34374
-3.79695
-3.2945
-2.83646
-2.42203
-2.04983
-1.71798
-1.42421
-1.16589
-0.940407
-0.744779
-0.576233
-0.431947
-0.309248
-0.205567
-0.118523
-0.045937
0.0141706
0.0635814
0.103827
0.136309
0.162178
0.182502
0.198097
0.209758
0.218161
0.22377
0.227154
0.228608
0.228505
0.227099
0.224601
0.221173
0.216982
0.212121
0.206681
0.200727
0.194307
0.187458
0.180203
0.172542
0.164496
0.156038
0.147182
0.137876
0.128147
0.117907
0.107226
0.0958477
0.0842978
0.0712094
0.0597249
0.0425368
0.0362817
0.0033826
0.0295703
-17.2835
-16.8373
-15.984
-15.2338
-14.5617
-13.8791
-13.1725
-12.4357
-11.6699
-10.8845
-10.0912
-9.30238
-8.52368
-7.75631
-7.00768
-6.28742
-5.60387
-4.96112
-4.36218
-3.80845
-3.30042
-2.83797
-2.42016
-2.04545
-1.71183
-1.41688
-1.15788
-0.932093
-0.736471
-0.568152
-0.424257
-0.30206
-0.198951
-0.112513
-0.0405422
0.0189628
0.0677946
0.107496
0.139474
0.164882
0.184784
0.200001
0.211326
0.219425
0.224773
0.227923
0.229177
0.2289
0.227345
0.224719
0.221183
0.216901
0.211964
0.206462
0.200457
0.193997
0.187115
0.179837
0.172159
0.164101
0.155638
0.14678
0.137478
0.127755
0.117527
0.10686
0.0955014
0.0839712
0.0709157
0.059447
0.0423271
0.03605
0.00332296
0.0294124
-17.6273
-17.3657
-16.6315
-15.8331
-15.0662
-14.2971
-13.5175
-12.7206
-11.9049
-11.077
-10.2462
-9.42405
-8.61969
-7.83736
-7.07687
-6.3434
-5.64619
-4.99133
-4.38244
-3.82068
-3.30619
-2.8387
-2.41708
-2.03957
-1.70401
-1.40781
-1.14813
-0.922096
-0.72657
-0.558596
-0.415222
-0.293662
-0.19126
-0.10556
-0.0343264
0.0244621
0.072611
0.111676
0.143067
0.167941
0.187357
0.202143
0.213083
0.220839
0.22589
0.228778
0.229807
0.229336
0.227614
0.224847
0.221193
0.216811
0.211791
0.206221
0.200161
0.193658
0.186743
0.179439
0.171743
0.163674
0.155205
0.146347
0.13705
0.127335
0.117119
0.106469
0.0951317
0.0836227
0.0706034
0.0591505
0.0421063
0.0358001
0.00326864
0.0292297
-17.8906
-17.7761
-17.1915
-16.4146
-15.5965
-14.7591
-13.9109
-13.0518
-12.1818
-11.3061
-10.4328
-9.57185
-8.733
-7.92469
-7.14836
-6.40288
-5.69271
-5.02514
-4.40439
-3.83321
-3.31135
-2.83812
-2.4122
-2.03159
-1.69393
-1.39645
-1.13613
-0.909944
-0.714653
-0.547186
-0.404508
-0.283766
-0.182245
-0.0974503
-0.027112
0.0308172
0.0781543
0.116468
0.147172
0.171422
0.190276
0.204564
0.215062
0.222427
0.22714
0.229732
0.230508
0.22982
0.227911
0.224988
0.221202
0.21671
0.2116
0.205956
0.199837
0.193288
0.186336
0.179005
0.171292
0.163212
0.154738
0.14588
0.136589
0.126884
0.116683
0.10605
0.0947368
0.083251
0.0702714
0.0588344
0.0418739
0.0355311
0.00322046
0.0290202
-18.0783
-18.0684
-17.6327
-16.9267
-16.1082
-15.2341
-14.3337
-13.4191
-12.4958
-11.5706
-10.6514
-9.74786
-8.86958
-8.02603
-7.2233
-6.46176
-5.73948
-5.06032
-4.42757
-3.84551
-3.31508
-2.83533
-2.40467
-2.02068
-1.68081
-1.38204
-1.12118
-0.895018
-0.700168
-0.533436
-0.391691
-0.272003
-0.171594
-0.0879196
-0.0186744
0.0382158
0.08458
0.122001
0.151891
0.175411
0.193609
0.207318
0.217306
0.224222
0.228548
0.230802
0.231292
0.230359
0.228241
0.225143
0.221211
0.216597
0.211389
0.205664
0.199481
0.192881
0.185891
0.178533
0.170801
0.162709
0.154232
0.145375
0.136092
0.126398
0.116214
0.105601
0.0943144
0.0828538
0.0699179
0.0584971
0.041629
0.0352414
0.00317846
0.0287825
-18.1902
-18.2432
-17.9366
-17.3265
-16.5511
-15.6785
-14.7529
-13.7994
-12.832
-11.8615
-10.8974
-9.95
-9.02978
-8.14665
-7.30865
-6.52063
-5.78227
-5.09133
-4.44826
-3.85571
-3.31636
-2.82922
-2.39321
-2.00562
-1.66355
-1.36359
-1.10239
-0.876488
-0.682384
-0.516714
-0.376226
-0.257907
-0.158907
-0.0766321
-0.00873468
0.0468885
0.0920782
0.128429
0.157352
0.180008
0.197436
0.210469
0.219863
0.22626
0.230142
0.23201
0.232173
0.230962
0.228609
0.225314
0.22122
0.216471
0.211153
0.20534
0.199087
0.192433
0.185403
0.178016
0.170265
0.162162
0.153682
0.144828
0.135555
0.125875
0.115709
0.10512
0.0938623
0.0824293
0.0695415
0.0581373
0.0413706
0.0349303
0.00314293
0.0285155
-18.2332
-18.3084
-18.0933
-17.5838
-16.8782
-16.0424
-15.1237
-14.1564
-13.1626
-12.1585
-11.1567
-10.1693
-9.20836
-8.28493
-7.40825
-6.58549
-5.82088
-5.11347
-4.46049
-3.85914
-3.31149
-2.81775
-2.37627
-1.98483
-1.64049
-1.33964
-1.07849
-0.853286
-0.660347
-0.496174
-0.357388
-0.240871
-0.143676
-0.0631618
0.00306456
0.0571323
0.100892
0.13595
0.163714
0.185341
0.201858
0.214097
0.222797
0.228589
0.231956
0.23338
0.23317
0.231641
0.229022
0.225505
0.221228
0.21633
0.21089
0.20498
0.198651
0.191939
0.184866
0.177448
0.169678
0.161566
0.153083
0.144235
0.134973
0.125309
0.115166
0.104602
0.0933775
0.0819749
0.06914
0.0577529
0.0410977
0.0345957
0.003114
0.0282175
-18.2125
-18.2715
-18.1051
-17.6801
-17.0535
-16.2775
-15.3959
-14.4434
-13.4473
-12.4286
-11.4035
-10.3866
-9.39172
-8.43188
-7.51786
-6.65841
-5.86038
-5.12728
-4.45879
-3.84975
-3.29538
-2.79576
-2.34984
-1.95594
-1.60984
-1.30831
-1.04763
-0.823796
-0.632764
-0.470757
-0.334258
-0.220088
-0.12522
-0.0469508
0.0171734
0.0693134
0.111322
0.14481
0.171176
0.191568
0.207001
0.218297
0.22618
0.231266
0.234034
0.234943
0.234302
0.232409
0.229487
0.225719
0.221237
0.21617
0.210596
0.204579
0.198167
0.191392
0.184272
0.176823
0.169034
0.160912
0.15243
0.143588
0.134342
0.124697
0.114579
0.104044
0.0928571
0.081488
0.0687113
0.0573421
0.0408088
0.0342366
0.00309163
0.0278873
-18.1289
-18.1372
-17.9787
-17.6099
-17.0555
-16.3473
-15.5217
-14.6098
-13.6374
-12.628
-11.6001
-10.5705
-9.55523
-8.56908
-7.62457
-6.73221
-5.90091
-5.13709
-4.44417
-3.82088
-3.26089
-2.75806
-2.30905
-1.91329
-1.56725
-1.2671
-1.00798
-0.786148
-0.597728
-0.438812
-0.305561
-0.194584
-0.102731
-0.0272959
0.0341943
0.083923
0.123754
0.155311
0.179978
0.198885
0.213021
0.223194
0.230107
0.234361
0.236425
0.236737
0.235596
0.233285
0.230015
0.22596
0.221246
0.21599
0.210266
0.20413
0.197627
0.190784
0.183615
0.176133
0.168325
0.160195
0.151715
0.142883
0.133655
0.124033
0.113945
0.103443
0.0922975
0.0809654
0.0682529
0.0569028
0.0405027
0.033851
0.0030755
0.027524
-17.9759
-17.9122
-17.7254
-17.3785
-16.8764
-16.2327
-15.4688
-14.6112
-13.6839
-12.7077
-11.7002
-10.6795
-9.66301
-8.66707
-7.70541
-6.79005
-5.93207
-5.14033
-4.42059
-3.77528
-3.20224
-2.6956
-2.24803
-1.85318
-1.50791
-1.20995
-0.95481
-0.737688
-0.553565
-0.39872
-0.26954
-0.162748
-0.0749673
-0.00331845
0.0547896
0.101523
0.138682
0.167868
0.190446
0.207533
0.220099
0.228926
0.234687
0.237959
0.239194
0.238804
0.237081
0.234285
0.230616
0.226234
0.221255
0.215785
0.209893
0.203625
0.197022
0.190104
0.182884
0.175367
0.167541
0.159405
0.15093
0.142111
0.132905
0.12331
0.113257
0.102793
0.0916944
0.0804039
0.0677621
0.0564325
0.0401774
0.0334381
0.00306487
0.0271272
-17.7463
-17.5997
-17.3598
-17.0035
-16.5249
-15.9282
-15.2233
-14.4245
-13.5513
-12.6233
-11.657
-10.6674
-9.67183
-8.68713
-7.72734
-6.80521
-5.93354
-5.12361
-4.38321
-3.71676
-3.12531
-2.60709
-2.15693
-1.7666
-1.42814
-1.13516
-0.884183
-0.672369
-0.495137
-0.347589
-0.224795
-0.123483
-0.0405784
0.0264159
0.0801416
0.122916
0.156624
0.182869
0.202926
0.21783
0.228499
0.235691
0.240059
0.242155
0.24241
0.241199
0.238794
0.235435
0.231303
0.226544
0.221263
0.215552
0.209469
0.203055
0.19634
0.189343
0.182067
0.174515
0.166672
0.158531
0.150065
0.141264
0.132085
0.122523
0.112509
0.102089
0.0910434
0.0797993
0.0672356
0.0559288
0.0398311
0.0329956
0.00305868
0.0266968
-17.4549
-17.2194
-16.9058
-16.5116
-16.0288
-15.4543
-14.7901
-14.0432
-13.2258
-12.3533
-11.4386
-10.4953
-9.54009
-8.58789
-7.65152
-6.74321
-5.87658
-5.06456
-4.31652
-3.6383
-3.03296
-2.5014
-2.04188
-1.64956
-1.31683
-1.03464
-0.794857
-0.59133
-0.420678
-0.280071
-0.165736
-0.0733276
0.00177114
0.0624282
0.110995
0.149216
0.178708
0.201149
0.217905
0.230041
0.238412
0.243673
0.246397
0.247093
0.246171
0.243979
0.240773
0.236756
0.232088
0.226895
0.221267
0.21528
0.208983
0.202405
0.195569
0.188484
0.181149
0.173562
0.165702
0.157561
0.149108
0.14033
0.131184
0.121661
0.111694
0.101324
0.0903387
0.0791472
0.0666695
0.0553886
0.039461
0.0325228
0.00305514
0.0262334
-17.133
-16.8189
-16.4238
-15.9649
-15.4436
-14.8595
-14.2098
-13.4933
-12.7179
-11.897
-11.0389
-10.1505
-9.24501
-8.33865
-7.44385
-6.56974
-5.72904
-4.93525
-4.19797
-3.52354
-2.91638
-2.37941
-1.91323
-1.51549
-1.18128
-0.904023
-0.675624
-0.487234
-0.331026
-0.201056
-0.0944502
-0.00911791
0.0574755
0.10884
0.148932
0.180438
0.204762
0.223067
0.236175
0.244977
0.250387
0.25314
0.253816
0.252849
0.250561
0.247229
0.243074
0.238281
0.232984
0.227289
0.221264
0.214964
0.208424
0.201663
0.194691
0.187511
0.180114
0.172491
0.164618
0.15648
0.148045
0.139297
0.130191
0.120714
0.110803
0.100491
0.0895743
0.0784423
0.0660598
0.0548088
0.0390647
0.0320176
0.00305197
0.0257382
-16.7213
-16.3565
-15.9151
-15.4144
-14.8573
-14.2414
-13.5691
-12.8478
-12.087
-11.2959
-10.4791
-9.6396
-8.78795
-7.93692
-7.09413
-6.26741
-5.46883
-4.71171
-4.00438
-3.35225
-2.75984
-2.23145
-1.76942
-1.37285
-1.03835
-0.761458
-0.536678
-0.357235
-0.215078
-0.102239
-0.0118077
0.0614859
0.120162
0.165371
0.198451
0.2218
0.237883
0.249233
0.257165
0.262171
0.264542
0.264582
0.262795
0.259699
0.255675
0.250966
0.245718
0.240035
0.234012
0.22773
0.221243
0.214585
0.207771
0.200805
0.193685
0.186402
0.178939
0.171281
0.163397
0.155269
0.14686
0.138149
0.129092
0.119672
0.109825
0.0995803
0.0887423
0.0776785
0.0654011
0.0541854
0.0386382
0.031479
0.00304568
0.0252131
-16.3979
-16.0033
-15.5061
-14.9321
-14.3068
-13.6364
-12.9264
-12.184
-11.4161
-10.6285
-9.82727
-9.01863
-8.2081
-7.40316
-6.61277
-5.84168