/*--------------------------------*- C++ -*----------------------------------*\
| =========                 |                                                 |
| \\      /  F ield         | OpenFOAM: The Open Source CFD Toolbox           |
|  \\    /   O peration     | Version:  2312                                  |
|   \\  /    A nd           | Website:  www.openfoam.com                      |
|    \\/     M anipulation  |                                                 |
\*---------------------------------------------------------------------------*/
FoamFile
{
    version     2.0;
    format      ascii;
    arch        "LSB;label=32;scalar=64";
    class       surfaceScalarField;
    location    "1000";
    object      phi;
}
// * * * * * * * * * * * * * * * * * * * * * * * * * * * * * * * * * * * * * //

dimensions      [0 3 -1 0 0 0 0];

oriented        oriented;

internalField   nonuniform List<scalar> 
21876
(
0.00821552
0.000926928
-0.00914245
0.00235037
0.00586515
-0.000881594
0.00323196
-0.00158578
0.000704185
-0.00145224
-0.000133551
-0.0014067
-4.55428e-05
-0.00135246
-5.42403e-05
-0.00129551
-5.69514e-05
-0.00124833
-4.71847e-05
-0.00122048
-2.78624e-05
-0.00119116
-2.93212e-05
-0.00116493
-2.62436e-05
-0.0011478
-1.71306e-05
-0.00113152
-1.62959e-05
-0.00112334
-8.19176e-06
-0.00112058
-2.76635e-06
-0.00112518
4.59075e-06
-0.00113922
1.40246e-05
-0.00116243
2.31976e-05
-0.00119701
3.45649e-05
-0.00124233
4.52958e-05
-0.00129599
5.36382e-05
-0.00136249
6.64835e-05
-0.00144258
8.00693e-05
-0.00153333
9.07436e-05
-0.00163044
9.70952e-05
-0.0017271
9.66678e-05
-0.00181558
8.84693e-05
-0.00188691
7.1329e-05
-0.00192987
4.29474e-05
-0.00193205
2.17879e-06
-0.00188896
-4.30982e-05
-0.0017985
-9.04672e-05
-0.0016522
-0.000146293
-0.00144191
-0.000210287
-0.00116353
-0.000278392
-0.000814845
-0.000348689
-0.000339418
-0.000475421
0.000242022
-0.000581442
0.000592002
-0.000350064
-0.00219068
0.0027826
0.0115558
-0.000640534
-0.00998836
0.010284
0.00713695
0.00499679
0.0085192
0.000224431
0.00547654
-0.00158662
0.00167749
-0.00164043
8.25742e-06
-0.00165727
-3.74088e-05
-0.0016411
-7.31309e-05
-0.00161637
-7.19175e-05
-0.00160662
-3.76303e-05
-0.0015938
-4.2142e-05
-0.00158003
-4.00312e-05
-0.00157468
-2.24951e-05
-0.00157041
-2.05857e-05
-0.00157441
-4.20672e-06
-0.00158592
8.72971e-06
-0.00160679
2.54364e-05
-0.00163849
4.56975e-05
-0.00168109
6.57734e-05
-0.00173718
9.06308e-05
-0.00180776
0.000115843
-0.00188921
0.00013506
-0.0019835
0.000160748
-0.00208669
0.000183229
-0.00219181
0.000195845
-0.00229214
0.000197406
-0.00238088
0.000185401
-0.00245092
0.000158498
-0.002495
0.0001154
-0.0025074
5.53543e-05
-0.00248423
-2.09956e-05
-0.00241582
-0.000111518
-0.00229026
-0.00021603
-0.00209797
-0.000338591
-0.00183001
-0.000478252
-0.00147934
-0.000629083
-0.00104111
-0.000786934
-0.000492621
-0.00102393
0.000228799
-0.00130289
0.000988525
-0.00110985
-0.0036458
0.00244359
0.0132748
-0.00290735
-0.011008
0.0149921
0.00541964
0.0130053
0.010506
0.00752654
0.0109553
0.00175362
0.00745042
-0.00115368
0.00291556
-0.00170675
0.000515654
-0.0018439
6.40194e-05
-0.00187692
-3.89e-05
-0.00190974
-4.81501e-06
-0.00192974
-2.21406e-05
-0.00193673
-3.30463e-05
-0.00194903
-1.01894e-05
-0.00195949
-1.01284e-05
-0.00197685
1.31426e-05
-0.00200136
3.32388e-05
-0.002035
5.9082e-05
-0.00208031
9.10036e-05
-0.00213742
0.000122886
-0.0022088
0.000162007
-0.00229506
0.000202091
-0.00239066
0.000230655
-0.00249685
0.000266943
-0.00260963
0.000296005
-0.00272279
0.000309009
-0.00283053
0.000305144
-0.00292658
0.000281452
-0.00300394
0.000235856
-0.0030549
0.000166355
-0.00307126
7.17162e-05
-0.00304355
-4.87011e-05
-0.00296031
-0.00019476
-0.00281036
-0.000365989
-0.00258209
-0.000566853
-0.0022654
-0.000794935
-0.00185069
-0.0010438
-0.00133146
-0.00130617
-0.000690417
-0.00166497
0.0001413
-0.0021346
0.00109004
-0.0020586
-0.00468409
0.00212831
0.0150656
-0.00552954
-0.0124435
0.0174767
0.00300856
0.0186825
0.0093003
0.0164901
0.0131476
0.0107259
0.0132146
0.00396777
0.00967371
-0.000243447
0.00472687
-0.00160293
0.0014235
-0.00193237
0.000290529
-0.00208504
0.000147843
-0.00218662
7.94406e-05
-0.00224272
2.30383e-05
-0.00229109
3.81732e-05
-0.00232727
2.60437e-05
-0.00236442
5.02824e-05
-0.00240593
7.47362e-05
-0.00245471
0.000107849
-0.00251509
0.000151363
-0.00258729
0.000195069
-0.00267418
0.000248873
-0.00277628
0.000304168
-0.00288707
0.000341428
-0.00300822
0.000388075
-0.00313657
0.000424337
-0.00326673
0.000439153
-0.00339289
0.000431285
-0.00350803
0.000396591
-0.00360382
0.000331637
-0.00367053
0.000233064
-0.00369731
9.84914e-05
-0.00367203
-7.39845e-05
-0.00358181
-0.000284986
-0.00341403
-0.000533784
-0.00315481
-0.000826083
-0.00279229
-0.00115746
-0.00231459
-0.00152151
-0.00171347
-0.00190731
-0.000972097
-0.00240636
-4.80701e-05
-0.00305865
0.00104463
-0.00315133
-0.0055405
0.00190101
0.0169974
-0.00837092
-0.0141561
0.0194805
0.000525536
0.0218913
0.0068895
0.0230859
0.011953
0.0209843
0.0153161
0.0150578
0.0156003
0.00738134
0.0124033
0.00149573
0.00730911
-0.0011464
0.00293265
-0.00187621
0.000877646
-0.00222812
0.000431354
-0.00241447
0.000209381
-0.00255042
0.000174125
-0.00264491
0.000120527
-0.00272222
0.00012759
-0.00279394
0.00014645
-0.00286604
0.000179956
-0.00294714
0.00023245
-0.00303841
0.000286337
-0.00314446
0.000354917
-0.00326661
0.000426317
-0.00339793
0.000472754
-0.00354085
0.000530991
-0.00369297
0.000576459
-0.00384926
0.000595447
-0.00400338
0.000585401
-0.00414718
0.000540392
-0.00427063
0.00045509
-0.00436192
0.000324348
-0.00440782
0.000144395
-0.00439395
-8.78517e-05
-0.00430539
-0.000373552
-0.00412729
-0.000711887
-0.0038433
-0.00111007
-0.00343954
-0.00156122
-0.00290233
-0.00205873
-0.00222205
-0.00258759
-0.00138074
-0.00324768
-0.000379241
-0.00406015
0.000832092
-0.00436267
-0.00636744
0.00165902
0.0192967
-0.0115181
-0.0161495
0.0220692
-0.00224696
0.0245696
0.0043891
0.0270253
0.0094973
0.028377
0.0139644
0.0266376
0.0173398
0.0208403
0.0182006
0.0124355
0.0157139
0.00462772
0.0107404
0.000116944
0.00538842
-0.00153516
0.00208345
-0.00219054
0.00086476
-0.00256861
0.000552181
-0.00281089
0.000362801
-0.00298265
0.00029934
-0.00311955
0.000283345
-0.00323741
0.000297802
-0.00335416
0.000349182
-0.00347446
0.000406623
-0.00360728
0.000487724
-0.00375627
0.000575289
-0.00391505
0.000631521
-0.00408738
0.0007033
-0.00427176
0.000760824
-0.00446348
0.000787158
-0.00465554
0.000777452
-0.0048386
0.000723452
-0.00500094
0.000617415
-0.0051286
0.000452005
-0.00520602
0.000221808
-0.00521637
-7.7501e-05
-0.00514221
-0.00044772
-0.00496611
-0.000887995
-0.00466915
-0.00140704
-0.00423532
-0.00199506
-0.00364987
-0.00264419
-0.00290268
-0.00333479
-0.00197628
-0.00417408
-0.000912071
-0.00512437
0.000389425
-0.00566418
-0.00725222
0.00127419
0.0220549
-0.0150552
-0.0185178
0.0252853
-0.00547733
0.0280074
0.00166697
0.0304923
0.00701242
0.0329652
0.0114914
0.0345984
0.0157066
0.0335003
0.0192987
0.028267
0.0209472
0.0195222
0.0194851
0.00994592
0.0149647
0.0029167
0.00911267
-0.00054657
0.00432803
-0.00185049
0.00185609
-0.00254183
0.00105414
-0.00296472
0.000722223
-0.00326398
0.000582597
-0.00348618
0.000519995
-0.00367586
0.000538854
-0.00384922
0.000579973
-0.00402485
0.000663353
-0.00421162
0.000762049
-0.00440637
0.000826269
-0.00461629
0.000913213
-0.00484174
0.000986273
-0.00507888
0.0010243
-0.00532026
0.00101883
-0.00555547
0.000958662
-0.00577114
0.000833074
-0.0059512
0.000632071
-0.00607762
0.000348224
-0.00613097
-2.41552e-05
-0.00609095
-0.000487747
-0.0059374
-0.00104155
-0.00564892
-0.00169552
-0.00520754
-0.00243645
-0.00459817
-0.00325358
-0.00381115
-0.00412182
-0.00283257
-0.00515267
-0.00172954
-0.00622741
-0.000387644
-0.00700609
-0.00822703
0.000587153
0.0253971
-0.0191207
-0.0213317
0.0290943
-0.00917445
0.0322834
-0.00152215
0.0349711
0.0043247
0.0373907
0.00907185
0.0398432
0.0132541
0.041797
0.0173449
0.041562
0.0211822
0.0373721
0.023675
0.0289467
0.0233901
0.0181976
0.0198619
0.00831724
0.0142083
0.00199702
0.00817631
-0.000885554
0.00393671
-0.00214056
0.00197723
-0.00290367
0.00134569
-0.00339897
0.00101529
-0.00376859
0.000908459
-0.00405976
0.000871132
-0.004318
0.00092158
-0.00456603
0.00101006
-0.0048102
0.00107043
-0.00506716
0.00117016
-0.0053424
0.00126151
-0.00563499
0.00131688
-0.00593808
0.00132192
-0.00624063
0.00126121
-0.00652776
0.0011202
-0.00678138
0.000885682
-0.00698093
0.000547775
-0.00710429
9.91943e-05
-0.00712829
-0.000463753
-0.00703003
-0.00113981
-0.00678601
-0.00193954
-0.00637666
-0.00284581
-0.00578716
-0.00384308
-0.00500936
-0.00489962
-0.00403545
-0.00612659
-0.00293905
-0.00732382
-0.00163276
-0.00831238
-0.00927435
-0.000585439
0.0294335
-0.0238835
-0.0246707
0.033697
-0.013438
0.0374053
-0.00523037
0.0405658
0.00116418
0.0431905
0.00644714
0.0454985
0.0109461
0.0478579
0.0149854
0.0500668
0.0189734
0.0507778
0.0229641
0.0480579
0.0261099
0.0408026
0.0271172
0.0297381
0.0252728
0.0174976
0.0204168
0.00752521
0.0139091
0.00165289
0.00784953
-0.00102417
0.00402274
-0.00236824
0.00235935
-0.0032434
0.00178361
-0.00384283
0.00147055
-0.00430388
0.00138263
-0.00468295
0.00138912
-0.00501294
0.00140042
-0.00533653
0.00149374
-0.00567319
0.00159816
-0.0060307
0.00167438
-0.00640664
0.00169785
-0.0067917
0.00164626
-0.00717068
0.00149917
-0.00752382
0.00123882
-0.00782815
0.000852097
-0.00805879
0.000329832
-0.00818997
-0.000332578
-0.00819619
-0.0011336
-0.00805257
-0.00208318
-0.00773835
-0.00316003
-0.0072394
-0.00434204
-0.00654993
-0.0055891
-0.0056689
-0.00700762
-0.00466117
-0.00833155
-0.00348509
-0.00948847
-0.0103234
-0.00243605
0.0342887
-0.0295359
-0.0286363
0.0392799
-0.0184291
0.0435851
-0.00953554
0.0472739
-0.00252463
0.0503777
0.00334327
0.0529226
0.00840126
0.0550936
0.0128144
0.0572838
0.0167831
0.0595953
0.0206525
0.0611421
0.0245632
0.0601176
0.0281417
0.054766
0.0306244
0.0446294
0.0305534
0.0312703
0.0272682
0.0178334
0.0212864
0.00764025
0.0142159
0.00183015
0.00816944
-0.000933696
0.00454745
-0.00246168
0.00299852
-0.003496
0.00241695
-0.00422502
0.00211813
-0.00476408
0.00193946
-0.00522216
0.00195182
-0.00565651
0.0020325
-0.00609958
0.00211744
-0.00656276
0.00216103
-0.00704486
0.00212836
-0.00753486
0.00198916
-0.00801426
0.00171821
-0.00845943
0.00129726
-0.00884378
0.000714177
-0.00913937
-3.69934e-05
-0.00931824
-0.000954726
-0.00935489
-0.00204654
-0.00922767
-0.00328726
-0.00892316
-0.00464656
-0.00843779
-0.00607448
-0.00777566
-0.00766976
-0.00698392
-0.00912328
-0.00605438
-0.010418
-0.0112512
-0.00512661
0.0401123
-0.0363055
-0.0333427
0.0460235
-0.0243403
0.0510762
-0.0145883
0.055376
-0.00682443
0.0590039
-0.000284623
0.0620284
0.00537675
0.0644858
0.0103571
0.0665159
0.014753
0.0684819
0.0186865
0.0706942
0.0223509
0.0727847
0.0260511
0.0733629
0.0300463
0.0704245
0.0334918
0.0625056
0.0351871
0.0497738
0.0340182
0.0343458
0.0296439
0.019655
0.0228603
0.00883727
0.0153652
0.00263357
0.00920222
-0.000474855
0.00552537
-0.00226757
0.00391084
-0.00341634
0.00308822
-0.00423757
0.00277304
-0.0049042
0.00269912
-0.0055122
0.00272543
-0.00610912
0.00275795
-0.00671913
0.00273836
-0.00734693
0.00261695
-0.00798259
0.00235387
-0.00860684
0.00192151
-0.00919534
0.00130267
-0.0097209
0.000488567
-0.0101554
-0.000520263
-0.010474
-0.00172789
-0.010654
-0.00310725
-0.0106818
-0.00461882
-0.0105537
-0.00620256
-0.0102764
-0.00794708
-0.00987426
-0.0095254
-0.00934556
-0.0109467
-0.0118796
-0.00871716
0.0470881
-0.0444654
-0.0389282
0.0541539
-0.031406
0.0601474
-0.0205818
0.0652026
-0.0118796
0.0694397
-0.00452173
0.0729736
0.00184277
0.0758977
0.00743297
0.0782627
0.0123881
0.0801662
0.016783
0.0818895
0.0206276
0.0838354
0.0241052
0.0861
0.0277817
0.0878725
0.0317192
0.0873826
0.035677
0.0826111
0.0387897
0.0724012
0.0398538
0.0573449
0.0379166
0.039876
0.0328341
0.0235762
0.025502
0.0115137
0.0175879
0.004373
0.0110515
0.000883252
0.00657796
-0.00108115
0.00473744
-0.00243704
0.004055
-0.00348801
0.00377639
-0.00438812
0.00365805
-0.00523389
0.00358412
-0.00607398
0.00345704
-0.0069249
0.00320478
-0.00778436
0.00278097
-0.00863932
0.00215763
-0.00946989
0.00131913
-0.0102526
0.000262435
-0.010968
-0.00101251
-0.0115934
-0.00248187
-0.0121143
-0.00409784
-0.0125238
-0.00579312
-0.0128286
-0.00764226
-0.0130259
-0.00932812
-0.0131002
-0.0108724
-0.0119719
-0.0130078
0.0554382
-0.0543447
-0.0455589
0.0639407
-0.0399086
0.0711124
-0.0277535
0.0771138
-0.0178811
0.082103
-0.00951084
0.0862314
-0.00228569
0.0896405
0.00402386
0.0924443
0.0095843
0.094712
0.0145153
0.0965079
0.0188317
0.098021
0.0225921
0.0996456
0.0261571
0.101733
0.0296318
0.104087
0.0333228
0.105547
0.0373301
0.104143
0.0412573
0.0978912
0.0441688
0.0858167
0.0449086
0.0686903
0.0426284
0.0490398
0.0372383
0.0304746
0.0296168
0.0171702
0.0198823
0.00906606
0.0128415
0.00459755
0.00852351
0.00200333
0.00637059
0.000212326
0.00544904
-0.00123711
0.00503355
-0.00253305
0.00475297
-0.00376933
0.00444105
-0.00499421
0.00400584
-0.00622914
0.00339255
-0.00747705
0.00256703
-0.00872733
0.00151272
-0.00997248
0.000232619
-0.0111942
-0.00126014
-0.012378
-0.00291405
-0.0135113
-0.00465985
-0.0146036
-0.00654993
-0.0156218
-0.00830991
-0.0165333
-0.0099609
-0.0112501
-0.0172552
0.0654321
-0.0663406
-0.0534361
0.0757119
-0.0501884
0.084349
-0.0363906
0.0915336
-0.0250656
0.097461
-0.0154383
0.102326
-0.00715039
0.106306
4.40645e-05
0.109562
0.00632811
0.112226
0.0118506
0.114384
0.0166737
0.116092
0.0208844
0.117477
0.0247726
0.118817
0.0282911
0.120533
0.0316076
0.122867
0.0349957
0.125399
0.0387251
0.126755
0.0428131
0.124866
0.0467969
0.117742
0.0497531
0.104397
0.0505827
0.0855387
0.0484754
0.0651443
0.0402768
0.046124
0.0318618
0.0308318
0.0238157
0.0200853
0.0171172
0.0132368
0.0122975
0.00897751
0.00929279
0.00612289
0.00760758
0.00391695
0.00664696
0.00196519
0.0059576
8.24632e-05
0.00527526
-0.00180743
0.00445692
-0.00372915
0.00343442
-0.00569855
0.00220201
-0.00770902
0.000750318
-0.00975278
-0.000870279
-0.0118124
-0.00260029
-0.0139028
-0.0044595
-0.0159591
-0.00625363
-0.0179414
-0.00797854
-0.00943907
-0.0197525
0.077397
-0.0809338
-0.0628038
0.0898649
-0.0626563
0.100314
-0.0468396
0.108969
-0.0337208
0.116068
-0.0225374
0.12185
-0.0129325
0.126539
-0.00464492
0.130335
0.00253239
0.133414
0.0087716
0.135918
0.0141691
0.137954
0.0188489
0.139602
0.0231245
0.140931
0.0269623
0.142104
0.0304347
0.143456
0.0336435
0.145403
0.0367779
0.148103
0.0401127
0.151017
0.0438833
0.152693
0.0480772
0.151023
0.0522527
0.143965
0.0555333
0.131473
0.0527693
0.114667
0.0486677
0.0954496
0.0430328
0.076013
0.0365537
0.0583745
0.0299361
0.0438842
0.0237831
0.0329335
0.0185583
0.0250783
0.0145022
0.0194678
0.0115681
0.0152522
0.00949081
0.0117872
0.00792191
0.00866148
0.00656012
0.00561949
0.00524399
0.00254802
0.00382178
-0.000603572
0.0022813
-0.00383952
0.000635667
-0.00719872
-0.00110031
-0.010571
-0.00288135
-0.0139074
-0.00464211
-0.0062523
-0.0170942
0.0917289
-0.0987067
-0.073956
0.106882
-0.0778096
0.119562
-0.0595189
0.130035
-0.0441944
0.13859
-0.0310925
0.145517
-0.0198592
0.15109
-0.0102177
0.155557
-0.00193461
0.159137
0.00519161
0.162014
0.0112921
0.164342
0.0165204
0.166261
0.021206
0.167856
0.0253669
0.169184
0.0291064
0.170326
0.0325013
0.17148
0.0356239
0.173007
0.0385864
0.175313
0.0415774
0.178533
0.0448565
0.18214
0.0486462
0.184722
0.0529508
0.184294
0.0531972
0.179845
0.0531175
0.171004
0.0518735
0.158163
0.0493945
0.142282
0.0458172
0.124638
0.0414271
0.106625
0.0365712
0.089537
0.0315901
0.0743302
0.0267749
0.0614624
0.0223585
0.0509002
0.0184841
0.0422784
0.0151819
0.035064
0.0124584
0.0288224
0.0100634
0.0231892
0.00791449
0.0179151
0.00590978
0.012736
0.00407876
0.00766177
0.0021929
0.00262762
0.00039202
-0.00132396
-0.0023007
0.108903
-0.120365
-0.0872447
0.127344
-0.0962508
0.142761
-0.074936
0.155475
-0.056908
0.165832
-0.0414495
0.174182
-0.02821
0.18086
-0.0168949
0.186167
-0.00724178
0.190373
0.000985857
0.193707
0.0079581
0.196363
0.0138636
0.198522
0.0190473
0.200322
0.023567
0.201868
0.0275608
0.203225
0.0311434
0.204443
0.0344065
0.205607
0.037422
0.206927
0.0402574
0.208765
0.0430185
0.211539
0.045872
0.215425
0.0490656
0.219543
0.0490791
0.223087
0.0495729
0.225029
0.0499319
0.224461
0.0499619
0.220803
0.0494757
0.213879
0.0483513
0.2039
0.0465496
0.191369
0.0441211
0.17697
0.0411739
0.161477
0.0378519
0.14566
0.0343013
0.130187
0.0306545
0.115463
0.0271827
0.101822
0.0237046
0.0893695
0.0203666
0.0780675
0.0172118
0.0675744
0.0145718
0.0579169
0.0118504
0.0488656
0.00944335
0.00715645
0.0403852
0.117387
-0.144269
-0.0934828
0.137723
-0.116587
0.154718
-0.0919308
0.16872
-0.0709098
0.180109
-0.0528387
0.189269
-0.03737
0.196564
-0.0241899
0.202327
-0.0130049
0.206854
-0.0035414
0.2104
0.00441214
0.213183
0.0110806
0.215401
0.0168301
0.217211
0.0217571
0.218746
0.0260256
0.220112
0.0297769
0.221386
0.0331329
0.222611
0.0361967
0.223823
0.039046
0.225095
0.0417456
0.226616
0.0443512
0.228715
0.0469667
0.231372
0.0464222
0.234747
0.0461984
0.238693
0.0459855
0.242814
0.0458403
0.246555
0.0457347
0.249318
0.0455891
0.250569
0.045298
0.249922
0.0447687
0.247167
0.0439291
0.242276
0.0427427
0.235373
0.0412041
0.226694
0.0393336
0.216482
0.0373949
0.205102
0.0350844
0.19292
0.0325482
0.180293
0.0298394
0.167256
0.0276087
0.154264
0.0248426
0.141388
0.022319
0.0196482
0.128896
0.124245
-0.170088
-0.0984257
0.1462
-0.138542
0.164542
-0.110273
0.179646
-0.0860141
0.191921
-0.0651135
0.201778
-0.0472266
0.209607
-0.0320193
0.215767
-0.0191648
0.220577
-0.00835093
0.224311
0.000677818
0.227206
0.00818508
0.229475
0.0145618
0.231288
0.0199441
0.232789
0.0245242
0.234099
0.0284669
0.235317
0.031915
0.236521
0.0349931
0.237762
0.0378046
0.239068
0.0404397
0.240457
0.0429623
0.241987
0.0454367
0.243504
0.0449047
0.245247
0.0444553
0.247411
0.0438214
0.250136
0.0431158
0.253452
0.0424182
0.257264
0.0417777
0.261355
0.0412068
0.26543
0.0406935
0.269158
0.0402012
0.272215
0.0396858
0.27432
0.0390989
0.275261
0.0383927
0.274889
0.0377666
0.273131
0.0368429
0.269987
0.0356917
0.265528
0.0342981
0.259725
0.0334124
0.252793
0.0317747
0.244807
0.0303048
0.0284681
0.235987
0.131824
-0.19797
-0.103943
0.155522
-0.16224
0.175319
-0.130071
0.191617
-0.102312
0.204855
-0.0783511
0.215474
-0.0578459
0.223895
-0.0404399
0.230501
-0.0257707
0.235634
-0.0134848
0.239593
-0.00328114
0.242633
0.00514588
0.244979
0.0122154
0.246819
0.0181043
0.248308
0.0230354
0.249575
0.0271998
0.250728
0.030762
0.251856
0.0338648
0.253033
0.0366274
0.254316
0.0391575
0.255737
0.0415408
0.257312
0.0438621
0.258757
0.0434599
0.260151
0.043061
0.261557
0.0424153
0.263072
0.041601
0.264812
0.0406785
0.266887
0.0397023
0.269378
0.0387158
0.272314
0.0377571
0.275667
0.0368482
0.279352
0.0360012
0.283237
0.0352138
0.287162
0.0344682
0.290967
0.0339615
0.294467
0.033343
0.297497
0.0326616
0.299922
0.0318729
0.301641
0.0316931
0.302552
0.0308634
0.3026
0.0302569
0.0293238
0.301745
0.140132
-0.228072
-0.11003
0.165711
-0.187818
0.187078
-0.151438
0.204666
-0.1199
0.218947
-0.0926322
0.230396
-0.069295
0.239464
-0.0495077
0.246563
-0.0328697
0.252061
-0.0189828
0.256278
-0.00749794
0.259489
0.00193525
0.261936
0.00976829
0.26382
0.0162199
0.26531
0.0215456
0.266545
0.0259646
0.267641
0.0296657
0.268695
0.0328116
0.269784
0.0355382
0.270975
0.0379662
0.272322
0.0401935
0.273866
0.0423188
0.275331
0.041994
0.276771
0.0416213
0.278181
0.0410053
0.279565
0.0402176
0.280939
0.0393037
0.282341
0.0383009
0.283818
0.0372381
0.28543
0.0361455
0.287232
0.0350461
0.289271
0.033962
0.291577
0.0329081
0.294156
0.0318893
0.297005
0.0311124
0.300081
0.0302674
0.303323
0.0294189
0.306659
0.0285375
0.310054
0.0282976
0.313386
0.0275314
0.316594
0.0270488
0.0263411
0.319577
0.149194
-0.260569
-0.116698
0.176802
-0.215426
0.199866
-0.174501
0.218848
-0.138882
0.234259
-0.108043
0.246608
-0.0816447
0.256381
-0.0592807
0.264021
-0.0405091
0.269922
-0.0248838
0.274428
-0.0120044
0.277836
-0.00147274
0.280405
0.00719929
0.282351
0.0142742
0.283854
0.0200423
0.285066
0.024753
0.286111
0.0286208
0.287092
0.0318305
0.288094
0.0345363
0.289186
0.036874
0.290426
0.0389536
0.291861
0.0408833
0.293237
0.0406183
0.294618
0.0402401
0.29601
0.0396134
0.29741
0.0388173
0.298813
0.0379011
0.300211
0.0369027
0.301601
0.0358478
0.302986
0.034761
0.304373
0.0336587
0.305779
0.0325563
0.307222
0.0314642
0.308726
0.0303853
0.310319
0.0295197
0.312017
0.0285697
0.313833
0.0276026
0.315773
0.0265974
0.317866
0.0262043
0.320086
0.0253118
0.322435
0.0247002
0.023892
0.324884
0.159048
-0.29565
-0.123967
0.188848
-0.245226
0.213743
-0.199397
0.234233
-0.159372
0.250866
-0.124676
0.264192
-0.0949709
0.274732
-0.0698205
0.282962
-0.0487387
0.289306
-0.0312277
0.294133
-0.0168324
0.297764
-0.00510317
0.300475
0.00448864
0.302497
0.0122518
0.304025
0.0185139
0.305222
0.0235567
0.30622
0.0276225
0.307131
0.0309195
0.308046
0.0336217
0.309038
0.0358815
0.310169
0.0378228
0.311487
0.0395647
0.312744
0.0393617
0.314008
0.0389767
0.31529
0.0383309
0.316599
0.0375088
0.317935
0.0365642
0.319299
0.0355395
0.320682
0.0344642
0.322078
0.033365
0.323478
0.0322592
0.324873
0.0311615
0.326256
0.0300806
0.327625
0.0290169
0.328982
0.0281625
0.330326
0.0272253
0.331661
0.0262677
0.332992
0.0252671
0.334339
0.0248569
0.3357
0.0239509
0.33709
0.02331
0.0224694
0.338513
0.169738
-0.333523
-0.131865
0.201907
-0.277395
0.228783
-0.226272
0.250904
-0.181493
0.268862
-0.142634
0.283247
-0.109356
0.29462
-0.0811935
0.303492
-0.0576114
0.310321
-0.0380564
0.315504
-0.0220147
0.319382
-0.00898153
0.322254
0.00161671
0.324368
0.0101378
0.325932
0.0169495
0.327121
0.0223681
0.328077
0.0266659
0.328921
0.0300762
0.329748
0.0327943
0.330639
0.0349905
0.331658
0.0368036
0.332858
0.0383649
0.333993
0.0382266
0.335133
0.0378373
0.33629
0.0371739
0.337473
0.0363254
0.338688
0.0353488
0.339938
0.0342896
0.341223
0.0331798
0.342539
0.0320487
0.343883
0.0309154
0.345248
0.0297964
0.346627
0.0287013
0.348013
0.0276313
0.349402
0.0267733
0.350784
0.0258431
0.352152
0.0249
0.353499
0.0239203
0.354833
0.0235222
0.356142
0.0226425
0.357428
0.0220235
0.0212083
0.358689
0.181319
-0.374415
-0.140427
0.216051
-0.312127
0.24507
-0.255292
0.268958
-0.205381
0.28835
-0.162026
0.303885
-0.12489
0.316163
-0.0934718
0.325736
-0.0671846
0.333095
-0.0454151
0.338667
-0.0275865
0.34282
-0.0131346
0.345873
-0.0014366
0.348093
0.00791753
0.349704
0.0153385
0.350892
0.0211802
0.351811
0.0257467
0.352589
0.0292986
0.353329
0.0320541
0.354117
0.0342025
0.355022
0.0358987
0.356099
0.0372871
0.357109
0.0372166
0.358122
0.0368242
0.359153
0.0361433
0.360211
0.0352676
0.361302
0.0342575
0.362431
0.0331613
0.363597
0.0320135
0.364801
0.0308447
0.366041
0.0296756
0.367313
0.0285237
0.368615
0.0273995
0.369942
0.0263048
0.371293
0.0254219
0.372661
0.0244752
0.374039
0.0235222
0.37542
0.0225392
0.376813
0.0221292
0.378201
0.0212548
0.379584
0.0206397
0.019836
0.380957
0.193851
-0.418573
-0.149693
0.231358
-0.349634
0.262699
-0.286633
0.288501
-0.231183
0.30945
-0.182975
0.326232
-0.141672
0.339494
-0.106735
0.349831
-0.077521
0.357769
-0.0533529
0.363768
-0.0335855
0.368224
-0.017591
0.37148
-0.00469252
0.373822
0.00557563
0.37549
0.0136706
0.376684
0.0199862
0.377569
0.0248613
0.378283
0.0285853
0.378935
0.0314013
0.379619
0.0335191
0.380407
0.0351107
0.381359
0.0363347
0.38224
0.0363358
0.383122
0.0359417
0.384023
0.0352425
0.384954
0.034337
0.385922
0.0332897
0.386931
0.032152
0.387984
0.0309607
0.38908
0.0297484
0.390218
0.028537
0.391397
0.027345
0.392613
0.0261834
0.393863
0.0250548
0.395149
0.0241365
0.396463
0.0231613
0.3978
0.0221846
0.399156
0.0211832
0.400541
0.0207448
0.401937
0.0198581
0.403349
0.0192283
0.0184175
0.404767
0.207404
-0.466269
-0.159708
0.247916
-0.390146
0.281774
-0.320491
0.309653
-0.259061
0.332291
-0.205614
0.350428
-0.159809
0.364763
-0.121069
0.375931
-0.0886896
0.384502
-0.0619236
0.39097
-0.0400533
0.395761
-0.0223819
0.399242
-0.00817398
0.401722
0.00309587
0.403458
0.0119346
0.404664
0.0187795
0.40552
0.0240061
0.40617
0.0279355
0.406734
0.0308371
0.40731
0.0329427
0.407978
0.0344429
0.408801
0.0355112
0.409549
0.0355883
0.410297
0.0351942
0.411063
0.0344758
0.411863
0.0335376
0.412704
0.0324485
0.413593
0.0312633
0.414532
0.0300215
0.415522
0.0287578
0.416564
0.0274957
0.417654
0.0262546
0.418791
0.0250464
0.419971
0.0238743
0.421197
0.0229112
0.42246
0.0218977
0.423757
0.0208875
0.425083
0.0198578
0.426446
0.0193812
0.427833
0.0184721
0.429243
0.0178174
0.0169897
0.430671
0.222052
-0.517799
-0.170522
0.265824
-0.433918
0.302412
-0.357079
0.332544
-0.289194
0.357019
-0.230088
0.37663
-0.17942
0.392131
-0.13657
0.404208
-0.100766
0.413471
-0.0711866
0.420453
-0.0470355
0.425613
-0.0275417
0.429345
-0.0119061
0.43198
0.000460644
0.433796
0.0101191
0.435022
0.0175531
0.43585
0.023178
0.436437
0.0273488
0.436911
0.0303632
0.437377
0.0324767
0.43792
0.0338997
0.438609
0.0348216
0.439218
0.0349794
0.439826
0.0345869
0.440453
0.0338484
0.441116
0.0328744
0.441826
0.0317384
0.44259
0.0304991
0.443413
0.0291993
0.444295
0.0278756
0.445237
0.0265534
0.446238
0.0252534
0.447296
0.0239884
0.448408
0.0227625
0.449575
0.0217441
0.450791
0.0206819
0.45205
0.0196279
0.453348
0.0185599
0.454694
0.0180353
0.456072
0.0170946
0.457483
0.0164061
0.0155532
0.458919
0.237878
-0.573486
-0.182191
0.285187
-0.481227
0.324739
-0.396632
0.35732
-0.321775
0.383791
-0.256559
0.405008
-0.200637
0.421781
-0.153343
0.434849
-0.113834
0.44487
-0.0812075
0.452417
-0.0545825
0.457984
-0.0331084
0.461994
-0.0159165
0.464804
-0.00234942
0.466712
0.00821133
0.467965
0.0162998
0.468769
0.0223742
0.469292
0.0268257
0.469673
0.0299826
0.470024
0.0321259
0.470436
0.033487
0.470985
0.0342725
0.471448
0.0345163
0.471908
0.0341273
0.472389
0.0333676
0.472909
0.0323542
0.473481
0.031166
0.474115
0.0298658
0.474814
0.0284999
0.475583
0.0271072
0.476421
0.0257153
0.477328
0.0243463
0.478302
0.0230141
0.479341
0.0217237
0.480446
0.0206395
0.48161
0.0195179
0.482828
0.0184099
0.484094
0.0172936
0.485418
0.016711
0.486783
0.0157293
0.488192
0.014998
0.0141116
0.489633
0.254973
-0.633686
-0.194773
0.306122
-0.532376
0.348895
-0.439404
0.384139
-0.35702
0.412783
-0.285203
0.43575
-0.223604
0.453911
-0.171504
0.468064
-0.127987
0.478915
-0.092059
0.487083
-0.0627504
0.493099
-0.039124
0.497418
-0.0202361
0.500425
-0.00535575
0.502438
0.00619758
0.503726
0.015012
0.504508
0.0215918
0.504967
0.0263673
0.50525
0.0296995
0.505479
0.0318967
0.505753
0.033213
0.506152
0.0338733
0.50646
0.0342086
0.506762
0.0338252
0.507087
0.0330432
0.507454
0.0319868
0.507879
0.0307408
0.508373
0.0293726
0.50894
0.027932
0.509586
0.0264612
0.510312
0.0249897
0.511117
0.0235414
0.512
0.0221315
0.512957
0.0207661
0.513991
0.0196053
0.515095
0.0184141
0.516263
0.0172418
0.517489
0.0160675
0.518783
0.015417
0.520127
0.0143853
0.521523
0.0136025
0.0126745
0.52296
0.273436
-0.698787
-0.208335
0.328758
-0.587698
0.375033
-0.485679
0.413176
-0.395162
0.444187
-0.316214
0.469062
-0.248479
0.488741
-0.191183
0.50408
-0.143326
0.515842
-0.103822
0.524693
-0.0716013
0.531205
-0.0456355
0.535868
-0.0248989
0.539094
-0.00858215
0.541229
0.00406257
0.54256
0.0136814
0.543323
0.0208283
0.543715
0.0259754
0.543895
0.0295193
0.543995
0.0317974
0.54412
0.0330881
0.544357
0.0336362
0.544496
0.034069
0.544628
0.0336935
0.544783
0.0328883
0.544984
0.0317854
0.545249
0.0304759
0.545589
0.0290323
0.546013
0.0275087
0.546524
0.0259502
0.547124
0.0243891
0.547815
0.022851
0.548593
0.0213528
0.549458
0.0199019
0.550409
0.0186539
0.55144
0.0173827
0.552546
0.0161362
0.553719
0.0148942
0.55497
0.0141661
0.55628
0.0130757
0.557649
0.0122329
0.0112556
0.559068
0.293375
-0.769214
-0.222947
0.353235
-0.647558
0.403322
-0.535766
0.444622
-0.436462
0.478214
-0.349806
0.505173
-0.275437
0.52651
-0.21252
0.543149
-0.159965
0.555913
-0.116585
0.565516
-0.0812045
0.572575
-0.0526952
0.57762
-0.0299433
0.581093
-0.0120552
0.583366
0.00178936
0.584748
0.0122989
0.585496
0.020081
0.585818
0.0256529
0.585888
0.0294491
0.585847
0.0318385
0.58581
0.0331257
0.585869
0.0335766
0.585825
0.0341136
0.585769
0.033749
0.585737
0.0329201
0.585756
0.0317672
0.585843
0.0303885
0.586013
0.0288622
0.586275
0.0272469
0.586634
0.0255914
0.587092
0.0239305
0.587651
0.0222923
0.588309
0.0206951
0.589063
0.0191479
0.589914
0.0178023
0.590856
0.0164407
0.591882
0.01511
0.592986
0.0137909
0.594176
0.0129756
0.595434
0.0118179
0.59676
0.0109067
0.00987253
0.598143
0.314906
-0.845436
-0.238685
0.379706
-0.712358
0.433944
-0.590003
0.478686
-0.481204
0.515096
-0.386217
0.544332
-0.304673
0.567485
-0.235673
0.58555
-0.178031
0.599413
-0.130448
0.609846
-0.091637
0.617512
-0.0603614
0.62298
-0.035412
0.62673
-0.0158044
0.62916
-0.000640808
0.630604
0.0108548
0.631337
0.0193476
0.631587
0.0254035
0.631538
0.0294978
0.631343
0.0320333
0.631126
0.0333427
0.630988
0.0337144
0.630739
0.034363
0.630475
0.034013
0.630235
0.0331603
0.630048
0.0319544
0.629935
0.0305011
0.629912
0.0288848
0.62999
0.0271693
0.630174
0.0254071
0.630468
0.0236364
0.630873
0.0218875
0.631387
0.0201808
0.632008
0.0185268
0.632738
0.0170727
0.633568
0.0156104
0.634493
0.0141856
0.635504
0.0127801
0.636611
0.0118678
0.637795
0.0106343
0.639055
0.00964628
0.00854779
0.64038
0.338159
-0.927964
-0.25563
0.408339
-0.782538
0.467101
-0.648766
0.515599
-0.529702
0.555087
-0.425705
0.586814
-0.3364
0.611956
-0.260816
0.631587
-0.197662
0.646661
-0.145521
0.658008
-0.102985
0.666346
-0.0686991
0.672287
-0.0413526
0.676345
-0.0198631
0.678953
-0.0032489
0.68047
0.00933842
0.681191
0.0186261
0.681363
0.0252324
0.681184
0.0296766
0.680819
0.0323979
0.680402
0.0337594
0.680043
0.0340738
0.679564
0.0348421
0.679065
0.0345115
0.67859
0.0336358
0.67817
0.0323742
0.67783
0.0308412
0.677587
0.029128
0.677452
0.0273038
0.677434
0.0254256
0.677535
0.023535
0.677758
0.0216649
0.678101
0.019838
0.678561
0.0180666
0.67914
0.0164933
0.679831
0.0149201
0.680625
0.0133913
0.681515
0.0118899
0.682512
0.0108709
0.683593
0.009553
0.68476
0.00847987
0.00730956
0.685998
0.36327
-1.01736
-0.273871
0.439316
-0.858583
0.503015
-0.712465
0.555614
-0.582301