/*--------------------------------*- C++ -*----------------------------------*\
| =========                 |                                                 |
| \\      /  F ield         | OpenFOAM: The Open Source CFD Toolbox           |
|  \\    /   O peration     | Version:  2312                                  |
|   \\  /    A nd           | Website:  www.openfoam.com                      |
|    \\/     M anipulation  |                                                 |
\*---------------------------------------------------------------------------*/
FoamFile
{
    version     2.0;
    format      ascii;
    arch        "LSB;label=32;scalar=64";
    class       volScalarField;
    location    "1000";
    object      turbulenceProperties:nuEff;
}
// * * * * * * * * * * * * * * * * * * * * * * * * * * * * * * * * * * * * * //

dimensions      [0 2 -1 0 0 0 0];

internalField   nonuniform List<scalar> 
11040
(
4.79335e-05
6.48801e-05
2.54254e-05
5.8645e-05
0.00019809
0.000191117
0.000181449
0.000171298
0.000158697
0.000150862
0.000142804
0.000135767
0.000129404
0.000124408
0.000120104
0.000117784
0.000117509
0.00011923
0.000122477
0.000127037
0.00013299
0.000140124
0.000148154
0.000156877
0.000166394
0.00017768
0.000190624
0.000203318
0.000215207
0.000225714
0.000234218
0.000240092
0.000244201
0.000251095
0.0002705
0.000257969
0.000181478
0.000190758
0.00020976
0.000229977
0.000304822
1.42031e-05
4.69407e-05
6.59729e-05
0.000153308
0.000611596
0.000637781
0.000561964
0.000518106
0.000452072
0.000416541
0.000380079
0.00035159
0.000324793
0.000304579
0.000285602
0.000272423
0.000265968
0.000265251
0.000267565
0.000271648
0.000277651
0.000285619
0.000293948
0.000301467
0.000309102
0.000324358
0.000351968
0.000384062
0.000420212
0.000460527
0.000505236
0.000554695
0.000608096
0.000667211
0.000734288
0.000802364
0.000871299
0.000962881
0.0010718
0.00116003
0.00162397
1.55234e-05
1.94569e-05
4.01698e-05
7.53317e-05
0.000423453
0.000975813
0.00119653
0.00115626
0.00101382
0.000938952
0.000856502
0.000795554
0.000735958
0.000692453
0.000650511
0.000617113
0.000591601
0.00057207
0.000560676
0.00055642
0.000560731
0.000574623
0.000598817
0.00063416
0.000680723
0.000738314
0.000806702
0.00088538
0.000973989
0.00107193
0.00117826
0.00129227
0.00141348
0.00154253
0.00168058
0.00182803
0.00199091
0.00219171
0.00243615
0.00267692
0.0035022
1.6482e-05
1.51669e-05
2.06847e-05
2.12526e-05
0.000149385
0.000606794
0.00131581
0.00171805
0.00178773
0.00169698
0.00155346
0.00145361
0.00134903
0.00127223
0.00119706
0.00113461
0.00108859
0.00105205
0.00103017
0.00102128
0.00102718
0.00105084
0.0010948
0.00116021
0.00124652
0.00135258
0.00147748
0.00162018
0.00177978
0.00195521
0.00214494
0.00234755
0.00256195
0.00278843
0.00302788
0.00328304
0.00356617
0.00390863
0.00432862
0.00478622
0.00595193
1.62024e-05
1.57659e-05
1.64074e-05
1.5421e-05
1.48785e-05
0.000187735
0.000720208
0.00157296
0.00226593
0.00247541
0.00248685
0.0023801
0.00221647
0.00209929
0.00198523
0.00188237
0.00181004
0.00175042
0.00171368
0.00169817
0.00170399
0.00173671
0.00180244
0.00190312
0.00203794
0.00220552
0.00240415
0.00263157
0.00288575
0.00316476
0.00346552
0.00378522
0.00412174
0.0044748
0.00484501
0.00523646
0.00566574
0.00617876
0.006809
0.00754111
0.00901235
1.60941e-05
1.61867e-05
1.58929e-05
1.65978e-05
1.16985e-05
1.09142e-05
0.000183197
0.000742715
0.00172811
0.00274411
0.0032179
0.00338715
0.00337484
0.00326561
0.00308871
0.00292645
0.00281945
0.00272784
0.00266811
0.0026426
0.00264584
0.00268535
0.00277418
0.00291615
0.00311007
0.00335473
0.0036475
0.00398407
0.0043601
0.00477252
0.00521575
0.00568442
0.00617462
0.00668503
0.00721524
0.00776998
0.00837047
0.00907533
0.00994383
0.0109953
0.0127862
1.61047e-05
1.61373e-05
1.60133e-05
1.63531e-05
1.59279e-05
1.04283e-05
1.00035e-05
0.000130552
0.000672
0.00172303
0.00302792
0.00396573
0.00434443
0.00448833
0.00448
0.00437849
0.00422953
0.00407748
0.00398192
0.00394204
0.00394072
0.00398277
0.00409318
0.00428041
0.00454239
0.00487898
0.00528722
0.00576003
0.0062881
0.00686721
0.00748804
0.00814067
0.00881805
0.00951722
0.0102355
0.0109766
0.011766
0.0126732
0.0137927
0.015187
0.0173425
1.61145e-05
1.61118e-05
1.61318e-05
1.60487e-05
1.6565e-05
1.60464e-05
1.00185e-05
1e-05
6.30151e-05
0.000524857
0.00153639
0.00303969
0.00450749
0.00532222
0.00568932
0.00583425
0.00586053
0.00581028
0.00574064
0.00568324
0.00567975
0.00573562
0.00587077
0.00610784
0.00644446
0.00688456
0.00742758
0.00806521
0.00877693
0.00955803
0.0103944
0.0112681
0.0121665
0.0130845
0.0140153
0.0149586
0.015943
0.0170464
0.0184009
0.0201256
0.0226548
1.61126e-05
1.61162e-05
1.61119e-05
1.61315e-05
1.59968e-05
1.71632e-05
1.53825e-05
1.0109e-05
1.03334e-05
1.06137e-05
0.000327091
0.00119559
0.00273252
0.00462166
0.00614625
0.00690948
0.00731207
0.00751672
0.00764009
0.00772262
0.00782063
0.00796076
0.00818506
0.00852249
0.00897394
0.00953944
0.0102269
0.0110413
0.0119663
0.0129832
0.0140735
0.0152067
0.0163582
0.0175206
0.0186824
0.019832
0.0210008
0.0222765
0.0238025
0.0257887
0.0286338
1.6112e-05
1.61135e-05
1.61133e-05
1.61189e-05
1.60984e-05
1.60455e-05
1.73582e-05
1.48937e-05
1.04613e-05
1.00149e-05
3.41737e-05
0.00013752
0.000788457
0.00216126
0.00421659
0.00642625
0.00800304
0.00881828
0.00933491
0.00970021
0.0100372
0.01039
0.010821
0.0113748
0.0120713
0.0129107
0.0138827
0.0149693
0.0161525
0.0174306
0.0188034
0.0202267
0.021651
0.0230667
0.0244641
0.0258046
0.0271178
0.0285075
0.0301023
0.0321967
0.0351924
1.61107e-05
1.61117e-05
1.6113e-05
1.61089e-05
1.61263e-05
1.60544e-05
1.61779e-05
1.70472e-05
1.58918e-05
1.13299e-05
1.0007e-05
1.05919e-05
1.02487e-05
0.000382844
0.00142971
0.00333901
0.0058983
0.00843763
0.0101808
0.0111914
0.0119651
0.012647
0.0133696
0.014216
0.0152404
0.0164612
0.0178745
0.0194622
0.0211896
0.0230081
0.024854
0.0266528
0.0283612
0.0300157
0.0316465
0.0331438
0.0345146
0.0359288
0.0374681
0.0393945
0.0422133
1.61093e-05
1.61102e-05
1.611e-05
1.61105e-05
1.61082e-05
1.6117e-05
1.60616e-05
1.61679e-05
1.67681e-05
1.65892e-05
1.2893e-05
1.00022e-05
1.00013e-05
3.65834e-05
0.000109809
0.000739024
0.00220608
0.00463944
0.00771827
0.0107008
0.0128305
0.0142122
0.0153908
0.0165972
0.0179744
0.0195872
0.0214523
0.0235669
0.0258983
0.0283915
0.0309772
0.0335746
0.0360924
0.0384387
0.0404975
0.0421451
0.0434306
0.0447654
0.0460936
0.0475718
0.0497728
1.6108e-05
1.61084e-05
1.61083e-05
1.61082e-05
1.6108e-05
1.61075e-05
1.61088e-05
1.60775e-05
1.61289e-05
1.65347e-05
1.70302e-05
1.43513e-05
1.01914e-05
1.00019e-05
1.01359e-05
0.00011111
0.000235763
0.00112522
0.00299049
0.00593597
0.00961169
0.0131658
0.0158394
0.0178055
0.0196649
0.021694
0.0239711
0.0265495
0.0294159
0.0325136
0.0357709
0.039104
0.0424164
0.0456121
0.0485891
0.0512337
0.0534488
0.0551573
0.0562527
0.057018
0.0584613
1.61068e-05
1.61071e-05
1.61071e-05
1.61071e-05
1.61067e-05
1.61062e-05
1.61062e-05
1.61061e-05
1.60875e-05
1.60948e-05
1.63315e-05
1.70876e-05
1.59352e-05
1.15379e-05
1.00002e-05
1.00001e-05
1.14386e-05
0.000182186
0.000364038
0.00145482
0.00365713
0.00693306
0.0108315
0.0148723
0.0185369
0.0216301
0.0244887
0.0275223
0.0308586
0.034463
0.0382795
0.0422382
0.0462354
0.0501716
0.053945
0.0574561
0.0606153
0.0633627
0.0656289
0.067385
0.0686741
1.61058e-05
1.61065e-05
1.61066e-05
1.61066e-05
1.61063e-05
1.61059e-05
1.61054e-05
1.61056e-05
1.6105e-05
1.60973e-05
1.60706e-05
1.62087e-05
1.68283e-05
1.67656e-05
1.4409e-05
1.02734e-05
1.00029e-05
1e-05
1.61304e-05
0.000228835
0.000429052
0.00155395
0.00358581
0.00658001
0.0103794
0.0147422
0.019395
0.0240358
0.0284695
0.0327635
0.0371166
0.0416274
0.0462408
0.0508478
0.0553405
0.0596209
0.0636115
0.0672756
0.0705455
0.0733664
0.0757332
1.61049e-05
1.61062e-05
1.61062e-05
1.6106e-05
1.61055e-05
1.61051e-05
1.61048e-05
1.61045e-05
1.61044e-05
1.61046e-05
1.61013e-05
1.60694e-05
1.61399e-05
1.64131e-05
1.7127e-05
1.59131e-05
1.29242e-05
1.00117e-05
1.00005e-05
1e-05
1.93621e-05
0.000203297
0.000258218
0.00103162
0.00248884
0.00478166
0.00792455
0.0118924
0.0166086
0.0219639
0.0277739
0.0337515
0.039611
0.045216
0.0505584
0.0556599
0.0605135
0.065104
0.0693655
0.0732285
0.0766664
1.61041e-05
1.61054e-05
1.61053e-05
1.61048e-05
1.61043e-05
1.61039e-05
1.61036e-05
1.61033e-05
1.61032e-05
1.61029e-05
1.61041e-05
1.61005e-05
1.60865e-05
1.60756e-05
1.62533e-05
1.66794e-05
1.71271e-05
1.51301e-05
1.15607e-05
1.0001e-05
1.00002e-05
1e-05
1.08776e-05
9.61135e-05
6.88581e-05
0.000362888
0.00100713
0.00226619
0.0042012
0.00690742
0.0104453
0.0148352
0.0200388
0.0259682
0.0324443
0.0391854
0.0458659
0.052255
0.0581653
0.0635037
0.0682753
1.61032e-05
1.61042e-05
1.6104e-05
1.61035e-05
1.6103e-05
1.61027e-05
1.61025e-05
1.61024e-05
1.61022e-05
1.61021e-05
1.6102e-05
1.61028e-05
1.61019e-05
1.60933e-05
1.60708e-05
1.61233e-05
1.63573e-05
1.69632e-05
1.69857e-05
1.47567e-05
1.11512e-05
1.00008e-05
1.00002e-05
1e-05
1.00088e-05
1.19641e-05
5.86482e-05
0.000193319
4.30154e-05
0.000362367
0.00105659
0.00223067
0.00398384
0.00643132
0.00963112
0.013601
0.0182944
0.0236725
0.0295874
0.0358483
0.042251
1.6102e-05
1.61027e-05
1.61022e-05
1.61016e-05
1.61012e-05
1.61009e-05
1.61007e-05
1.61006e-05
1.61005e-05
1.61006e-05
1.61005e-05
1.61006e-05
1.61008e-05
1.6102e-05
1.60962e-05
1.6085e-05
1.60674e-05
1.61831e-05
1.65138e-05
1.70461e-05
1.68411e-05
1.44715e-05
1.16944e-05
1.00176e-05
1.00007e-05
1e-05
1e-05
1e-05
1.00021e-05
1.13031e-05
5.26088e-05
0.000158291
1.0015e-05
0.000102305
0.000402565
0.0010978
0.00219265
0.00377897
0.00590787
0.00860355
0.0119246
1.61007e-05
1.61011e-05
1.61005e-05
1.61e-05
1.60995e-05
1.60993e-05
1.60991e-05
1.60991e-05
1.60991e-05
1.60991e-05
1.60992e-05
1.60993e-05
1.60993e-05
1.60996e-05
1.61001e-05
1.60996e-05
1.60901e-05
1.60735e-05
1.60812e-05
1.62354e-05
1.66194e-05
1.70354e-05
1.69673e-05
1.5246e-05
1.26676e-05
1.08791e-05
1.00065e-05
1.00004e-05
1e-05
1e-05
1e-05
1e-05
1e-05
1.00098e-05
1.12343e-05
4.4886e-05
0.000132022
0.000239979
0.000377753
1.86264e-05
0.000380592
1.60994e-05
1.60996e-05
1.6099e-05
1.60985e-05
1.60982e-05
1.6098e-05
1.6098e-05
1.6098e-05
1.60981e-05
1.60982e-05
1.60983e-05
1.60984e-05
1.60985e-05
1.60986e-05
1.60988e-05
1.60992e-05
1.60997e-05
1.60962e-05
1.60828e-05
1.60668e-05
1.60937e-05
1.6267e-05
1.65677e-05
1.70351e-05
1.70831e-05
1.65942e-05
1.49622e-05
1.28387e-05
1.11861e-05
1.03163e-05
1.00008e-05
1.00002e-05
1e-05
1e-05
1e-05
1e-05
1e-05
1e-05
1e-05
1.00001e-05
1.05548e-05
1.6098e-05
1.60981e-05
1.60976e-05
1.60973e-05
1.60972e-05
1.60972e-05
1.60974e-05
1.60975e-05
1.60977e-05
1.60978e-05
1.60979e-05
1.60981e-05
1.60982e-05
1.60983e-05
1.60984e-05
1.60985e-05
1.60988e-05
1.60994e-05
1.60989e-05
1.60932e-05
1.60769e-05
1.6068e-05
1.60876e-05
1.62104e-05
1.64475e-05
1.67441e-05
1.71171e-05
1.71862e-05
1.67657e-05
1.59686e-05
1.45242e-05
1.28775e-05
1.15246e-05
1.06525e-05
1.01886e-05
1.00036e-05
1.00003e-05
1e-05
1e-05
1e-05
1e-05
1.60967e-05
1.60968e-05
1.60966e-05
1.60966e-05
1.60967e-05
1.60969e-05
1.60972e-05
1.60975e-05
1.60977e-05
1.60979e-05
1.60981e-05
1.60983e-05
1.60984e-05
1.60985e-05
1.60986e-05
1.60987e-05
1.60987e-05
1.60989e-05
1.60993e-05
1.60998e-05
1.60984e-05
1.60916e-05
1.60786e-05
1.60649e-05
1.60755e-05
1.61244e-05
1.62509e-05
1.64582e-05
1.67134e-05
1.69559e-05
1.72196e-05
1.72588e-05
1.70108e-05
1.64651e-05
1.57125e-05
1.46506e-05
1.34583e-05
1.23179e-05
1.14031e-05
1.07457e-05
1.03201e-05
1.60955e-05
1.60958e-05
1.60959e-05
1.60962e-05
1.60966e-05
1.6097e-05
1.60974e-05
1.60978e-05
1.60981e-05
1.60984e-05
1.60986e-05
1.60988e-05
1.6099e-05
1.60991e-05
1.60992e-05
1.60993e-05
1.60994e-05
1.60994e-05
1.60995e-05
1.60997e-05
1.61002e-05
1.61004e-05
1.60993e-05
1.60939e-05
1.60838e-05
1.6072e-05
1.6064e-05
1.60725e-05
1.61126e-05
1.61865e-05
1.6311e-05
1.64825e-05
1.66821e-05
1.68885e-05
1.7071e-05
1.72497e-05
1.73301e-05
1.726e-05
1.70232e-05
1.66219e-05
1.61219e-05
1.60945e-05
1.60951e-05
1.60956e-05
1.60961e-05
1.60967e-05
1.60973e-05
1.60978e-05
1.60983e-05
1.60986e-05
1.6099e-05
1.60993e-05
1.60995e-05
1.60997e-05
1.60999e-05
1.61e-05
1.61001e-05
1.61002e-05
1.61003e-05
1.61004e-05
1.61004e-05
1.61005e-05
1.61008e-05
1.61012e-05
1.61016e-05
1.61009e-05
1.60984e-05
1.60927e-05
1.60837e-05
1.60735e-05
1.60655e-05
1.60629e-05
1.60724e-05
1.60994e-05
1.61486e-05
1.62194e-05
1.63163e-05
1.64372e-05
1.65793e-05
1.67324e-05
1.68867e-05
1.70258e-05
1.60936e-05
1.60946e-05
1.60955e-05
1.60963e-05
1.6097e-05
1.60977e-05
1.60983e-05
1.60988e-05
1.60992e-05
1.60996e-05
1.60999e-05
1.61002e-05
1.61005e-05
1.61007e-05
1.61009e-05
1.6101e-05
1.61012e-05
1.61013e-05
1.61014e-05
1.61015e-05
1.61016e-05
1.61017e-05
1.61018e-05
1.6102e-05
1.61024e-05
1.61028e-05
1.61029e-05
1.61023e-05
1.61002e-05
1.60964e-05
1.60907e-05
1.60832e-05
1.60749e-05
1.60673e-05
1.60622e-05
1.60612e-05
1.6066e-05
1.60794e-05
1.61026e-05
1.6139e-05
1.61801e-05
1.6093e-05
1.60944e-05
1.60956e-05
1.60966e-05
1.60974e-05
1.60981e-05
1.60987e-05
1.60993e-05
1.60998e-05
1.61002e-05
1.61006e-05
1.61009e-05
1.61012e-05
1.61014e-05
1.61017e-05
1.61019e-05
1.61021e-05
1.61022e-05
1.61024e-05
1.61025e-05
1.61027e-05
1.61028e-05
1.61029e-05
1.6103e-05
1.61031e-05
1.61032e-05
1.61035e-05
1.61038e-05
1.61042e-05
1.61045e-05
1.61044e-05
1.61037e-05
1.61022e-05
1.60997e-05
1.60962e-05
1.60917e-05
1.60863e-05
1.60802e-05
1.6074e-05
1.60683e-05
1.60638e-05
1.60927e-05
1.60944e-05
1.60957e-05
1.60968e-05
1.60977e-05
1.60984e-05
1.60991e-05
1.60997e-05
1.61002e-05
1.61007e-05
1.61011e-05
1.61015e-05
1.61018e-05
1.61021e-05
1.61024e-05
1.61026e-05
1.61029e-05
1.61031e-05
1.61033e-05
1.61035e-05
1.61036e-05
1.61038e-05
1.6104e-05
1.61041e-05
1.61042e-05
1.61043e-05
1.61044e-05
1.61046e-05
1.61047e-05
1.61049e-05
1.61052e-05
1.61055e-05
1.61058e-05
1.61061e-05
1.61063e-05
1.61062e-05
1.61058e-05
1.61051e-05
1.61039e-05
1.61021e-05
1.61004e-05
1.60925e-05
1.60945e-05
1.60959e-05
1.6097e-05
1.60979e-05
1.60987e-05
1.60994e-05
1.61e-05
1.61006e-05
1.61011e-05
1.61016e-05
1.6102e-05
1.61024e-05
1.61027e-05
1.6103e-05
1.61033e-05
1.61036e-05
1.61039e-05
1.61041e-05
1.61043e-05
1.61045e-05
1.61047e-05
1.61049e-05
1.61051e-05
1.61053e-05
1.61054e-05
1.61056e-05
1.61057e-05
1.61058e-05
1.61059e-05
1.61061e-05
1.61062e-05
1.61063e-05
1.61065e-05
1.61067e-05
1.6107e-05
1.61072e-05
1.61075e-05
1.61078e-05
1.6108e-05
1.61082e-05
1.60925e-05
1.60945e-05
1.60959e-05
1.60971e-05
1.6098e-05
1.60989e-05
1.60996e-05
1.61003e-05
1.61009e-05
1.61015e-05
1.6102e-05
1.61024e-05
1.61029e-05
1.61033e-05
1.61036e-05
1.6104e-05
1.61043e-05
1.61046e-05
1.61048e-05
1.61051e-05
1.61054e-05
1.61056e-05
1.61058e-05
1.61061e-05
1.61063e-05
1.61064e-05
1.61066e-05
1.61068e-05
1.61069e-05
1.61071e-05
1.61072e-05
1.61074e-05
1.61075e-05
1.61076e-05
1.61077e-05
1.61079e-05
1.6108e-05
1.61081e-05
1.61083e-05
1.61084e-05
1.61086e-05
1.60924e-05
1.60944e-05
1.60959e-05
1.60971e-05
1.6098e-05
1.60989e-05
1.60997e-05
1.61005e-05
1.61011e-05
1.61017e-05
1.61023e-05
1.61028e-05
1.61033e-05
1.61037e-05
1.61041e-05
1.61045e-05
1.61049e-05
1.61052e-05
1.61055e-05
1.61058e-05
1.61061e-05
1.61064e-05
1.61067e-05
1.61069e-05
1.61072e-05
1.61074e-05
1.61076e-05
1.61078e-05
1.6108e-05
1.61082e-05
1.61083e-05
1.61085e-05
1.61086e-05
1.61088e-05
1.61089e-05
1.61091e-05
1.61092e-05
1.61094e-05
1.61095e-05
1.61096e-05
1.61097e-05
1.60923e-05
1.60943e-05
1.60958e-05
1.60969e-05
1.6098e-05
1.60989e-05
1.60997e-05
1.61005e-05
1.61012e-05
1.61019e-05
1.61025e-05
1.61031e-05
1.61036e-05
1.61041e-05
1.61045e-05
1.6105e-05
1.61054e-05
1.61058e-05
1.61061e-05
1.61065e-05
1.61068e-05
1.61071e-05
1.61074e-05
1.61077e-05
1.6108e-05
1.61082e-05
1.61085e-05
1.61087e-05
1.61089e-05
1.61091e-05
1.61093e-05
1.61095e-05
1.61097e-05
1.61099e-05
1.61101e-05
1.61102e-05
1.61104e-05
1.61105e-05
1.61107e-05
1.61108e-05
1.6111e-05
1.60921e-05
1.60941e-05
1.60955e-05
1.60967e-05
1.60978e-05
1.60987e-05
1.60996e-05
1.61005e-05
1.61012e-05
1.6102e-05
1.61026e-05
1.61033e-05
1.61038e-05
1.61044e-05
1.61049e-05
1.61054e-05
1.61058e-05
1.61063e-05
1.61067e-05
1.61071e-05
1.61074e-05
1.61078e-05
1.61081e-05
1.61085e-05
1.61087e-05
1.6109e-05
1.61093e-05
1.61096e-05
1.61098e-05
1.611e-05
1.61103e-05
1.61105e-05
1.61107e-05
1.61109e-05
1.61111e-05
1.61113e-05
1.61115e-05
1.61116e-05
1.61118e-05
1.6112e-05
1.61122e-05
1.60918e-05
1.60937e-05
1.60952e-05
1.60964e-05
1.60975e-05
1.60985e-05
1.60994e-05
1.61003e-05
1.61011e-05
1.61019e-05
1.61027e-05
1.61034e-05
1.6104e-05
1.61046e-05
1.61052e-05
1.61057e-05
1.61062e-05
1.61067e-05
1.61071e-05
1.61076e-05
1.6108e-05
1.61084e-05
1.61088e-05
1.61091e-05
1.61095e-05
1.61098e-05
1.61101e-05
1.61104e-05
1.61106e-05
1.61109e-05
1.61111e-05
1.61114e-05
1.61116e-05
1.61118e-05
1.6112e-05
1.61123e-05
1.61125e-05
1.61127e-05
1.61129e-05
1.6113e-05
1.61132e-05
1.60914e-05
1.60933e-05
1.60947e-05
1.60959e-05
1.6097e-05
1.60981e-05
1.60991e-05
1.61e-05
1.61009e-05
1.61018e-05
1.61026e-05
1.61034e-05
1.61041e-05
1.61047e-05
1.61054e-05
1.6106e-05
1.61065e-05
1.6107e-05
1.61075e-05
1.6108e-05
1.61085e-05
1.61089e-05
1.61094e-05
1.61097e-05
1.61101e-05
1.61105e-05
1.61108e-05
1.61111e-05
1.61114e-05
1.61117e-05
1.6112e-05
1.61122e-05
1.61125e-05
1.61127e-05
1.6113e-05
1.61132e-05
1.61134e-05
1.61136e-05
1.61138e-05
1.6114e-05
1.61143e-05
1.60908e-05
1.60927e-05
1.60941e-05
1.60953e-05
1.60965e-05
1.60976e-05
1.60986e-05
1.60997e-05
1.61006e-05
1.61015e-05
1.61024e-05
1.61032e-05
1.6104e-05
1.61048e-05
1.61055e-05
1.61061e-05
1.61067e-05
1.61073e-05
1.61079e-05
1.61084e-05
1.61089e-05
1.61094e-05
1.61099e-05
1.61103e-05
1.61107e-05
1.61111e-05
1.61114e-05
1.61118e-05
1.61121e-05
1.61124e-05
1.61127e-05
1.6113e-05
1.61133e-05
1.61136e-05
1.61138e-05
1.61141e-05
1.61143e-05
1.61145e-05
1.61148e-05
1.6115e-05
1.61152e-05
1.60902e-05
1.60919e-05
1.60933e-05
1.60946e-05
1.60958e-05
1.60969e-05
1.6098e-05
1.60991e-05
1.61001e-05
1.61011e-05
1.61021e-05
1.6103e-05
1.61038e-05
1.61046e-05
1.61054e-05
1.61061e-05
1.61068e-05
1.61075e-05
1.61081e-05
1.61087e-05
1.61092e-05
1.61098e-05
1.61103e-05
1.61107e-05
1.61112e-05
1.61116e-05
1.6112e-05
1.61124e-05
1.61127e-05
1.61131e-05
1.61134e-05
1.61137e-05
1.6114e-05
1.61143e-05
1.61146e-05
1.61148e-05
1.61151e-05
1.61154e-05
1.61156e-05
1.61158e-05
1.61161e-05
1.60893e-05
1.6091e-05
1.60924e-05
1.60937e-05
1.60949e-05
1.60961e-05
1.60972e-05
1.60984e-05
1.60995e-05
1.61005e-05
1.61015e-05
1.61025e-05
1.61034e-05
1.61043e-05
1.61051e-05
1.61059e-05
1.61067e-05
1.61074e-05
1.61081e-05
1.61087e-05
1.61093e-05
1.61099e-05
1.61105e-05
1.6111e-05
1.61115e-05
1.6112e-05
1.61124e-05
1.61128e-05
1.61132e-05
1.61136e-05
1.61139e-05
1.61143e-05
1.61146e-05
1.61149e-05
1.61152e-05
1.61155e-05
1.61158e-05
1.6116e-05
1.61163e-05
1.61165e-05
1.61168e-05
1.60884e-05
1.609e-05
1.60913e-05
1.60926e-05
1.60938e-05
1.6095e-05
1.60962e-05
1.60974e-05
1.60985e-05
1.60997e-05
1.61007e-05
1.61018e-05
1.61028e-05
1.61037e-05
1.61046e-05
1.61055e-05
1.61063e-05
1.61071e-05
1.61078e-05
1.61085e-05
1.61092e-05
1.61099e-05
1.61105e-05
1.6111e-05
1.61116e-05
1.61121e-05
1.61125e-05
1.6113e-05
1.61134e-05
1.61138e-05
1.61142e-05
1.61146e-05
1.61149e-05
1.61152e-05
1.61156e-05
1.61159e-05
1.61162e-05
1.61164e-05
1.61167e-05
1.6117e-05
1.61172e-05
1.60872e-05
1.60887e-05
1.609e-05
1.60913e-05
1.60925e-05
1.60937e-05
1.60949e-05
1.60961e-05
1.60973e-05
1.60985e-05
1.60996e-05
1.61007e-05
1.61018e-05
1.61028e-05
1.61038e-05
1.61047e-05
1.61056e-05
1.61064e-05
1.61073e-05
1.6108e-05
1.61088e-05
1.61095e-05
1.61101e-05
1.61107e-05
1.61113e-05
1.61119e-05
1.61124e-05
1.61129e-05
1.61133e-05
1.61138e-05
1.61142e-05
1.61146e-05
1.61149e-05
1.61153e-05
1.61156e-05
1.61159e-05
1.61162e-05
1.61165e-05
1.61168e-05
1.61171e-05
1.61174e-05
1.60858e-05
1.60872e-05
1.60885e-05
1.60897e-05
1.60909e-05
1.60921e-05
1.60933e-05
1.60946e-05
1.60958e-05
1.60969e-05
1.60981e-05
1.60993e-05
1.61004e-05
1.61015e-05
1.61025e-05
1.61035e-05
1.61045e-05
1.61054e-05
1.61063e-05
1.61071e-05
1.61079e-05
1.61087e-05
1.61094e-05
1.611e-05
1.61107e-05
1.61113e-05
1.61118e-05
1.61123e-05
1.61128e-05
1.61133e-05
1.61137e-05
1.61141e-05
1.61145e-05
1.61149e-05
1.61153e-05
1.61156e-05
1.61159e-05
1.61162e-05
1.61165e-05
1.61168e-05
1.61171e-05
1.60842e-05
1.60856e-05
1.60868e-05
1.60879e-05
1.60891e-05
1.60902e-05
1.60914e-05
1.60926e-05
1.60938e-05
1.6095e-05
1.60962e-05
1.60974e-05
1.60986e-05
1.60997e-05
1.61008e-05
1.61019e-05
1.61029e-05
1.61039e-05
1.61049e-05
1.61057e-05
1.61066e-05
1.61074e-05
1.61082e-05
1.61089e-05
1.61096e-05
1.61102e-05
1.61108e-05
1.61114e-05
1.61119e-05
1.61124e-05
1.61128e-05
1.61133e-05
1.61137e-05
1.61141e-05
1.61145e-05
1.61148e-05
1.61151e-05
1.61154e-05
1.61157e-05
1.6116e-05
1.61163e-05
1.60824e-05
1.60837e-05
1.60847e-05
1.60858e-05
1.60868e-05
1.60879e-05
1.60891e-05
1.60902e-05
1.60914e-05
1.60927e-05
1.60939e-05
1.60951e-05
1.60963e-05
1.60975e-05
1.60987e-05
1.60998e-05
1.61009e-05
1.61019e-05
1.61029e-05
1.61039e-05
1.61048e-05
1.61056e-05
1.61064e-05
1.61072e-05
1.61079e-05
1.61086e-05
1.61092e-05
1.61098e-05
1.61104e-05
1.61109e-05
1.61114e-05
1.61118e-05
1.61123e-05
1.61127e-05
1.61131e-05
1.61134e-05
1.61138e-05
1.61141e-05
1.61144e-05
1.61147e-05
1.6115e-05
1.60804e-05
1.60815e-05
1.60824e-05
1.60833e-05
1.60843e-05
1.60853e-05
1.60863e-05
1.60875e-05
1.60886e-05
1.60898e-05
1.6091e-05
1.60923e-05
1.60935e-05
1.60947e-05
1.60959e-05
1.60971e-05
1.60982e-05
1.60993e-05
1.61003e-05
1.61014e-05
1.61023e-05
1.61032e-05
1.61041e-05
1.61049e-05
1.61057e-05
1.61064e-05
1.61071e-05
1.61077e-05
1.61083e-05
1.61089e-05
1.61094e-05
1.61099e-05
1.61103e-05
1.61107e-05
1.61111e-05
1.61115e-05
1.61118e-05
1.61122e-05
1.61125e-05
1.61127e-05
1.6113e-05
1.60781e-05
1.6079e-05
1.60797e-05
1.60805e-05
1.60813e-05
1.60822e-05
1.60832e-05
1.60842e-05
1.60853e-05
1.60865e-05
1.60876e-05
1.60888e-05
1.609e-05
1.60912e-05
1.60924e-05
1.60936e-05
1.60948e-05
1.60959e-05
1.6097e-05
1.6098e-05
1.6099e-05
1.61e-05
1.61009e-05
1.61017e-05
1.61025e-05
1.61032e-05
1.61039e-05
1.61046e-05
1.61052e-05
1.61057e-05
1.61063e-05
1.61068e-05
1.61073e-05
1.61077e-05
1.61081e-05
1.61085e-05
1.61089e-05
1.61092e-05
1.61095e-05
1.61099e-05
1.61101e-05
1.60755e-05
1.60761e-05
1.60767e-05
1.60773e-05
1.6078e-05
1.60788e-05
1.60796e-05
1.60805e-05
1.60815e-05
1.60825e-05
1.60835e-05
1.60846e-05
1.60858e-05
1.60869e-05
1.6088e-05
1.60891e-05
1.60903e-05
1.60914e-05
1.60925e-05
1.60935e-05
1.60946e-05
1.60956e-05
1.60965e-05
1.60975e-05
1.60983e-05
1.60991e-05
1.60999e-05
1.61006e-05
1.61013e-05
1.61019e-05
1.61025e-05
1.61031e-05
1.61036e-05
1.61041e-05
1.61045e-05
1.61049e-05
1.61053e-05
1.61056e-05
1.61059e-05
1.61062e-05
1.61065e-05
1.60726e-05
1.6073e-05
1.60734e-05
1.60738e-05
1.60743e-05
1.60748e-05
1.60755e-05
1.60761e-05
1.60769e-05
1.60776e-05
1.60785e-05
1.60794e-05
1.60803e-05
1.60814e-05
1.60825e-05
1.60837e-05
1.60849e-05
1.60861e-05
1.60872e-05
1.60883e-05
1.60893e-05
1.60903e-05
1.60913e-05
1.60922e-05
1.6093e-05
1.60938e-05
1.60946e-05
1.60953e-05
1.6096e-05
1.60966e-05
1.60972e-05
1.60977e-05
1.60982e-05
1.60987e-05
1.60991e-05
1.60995e-05
1.60999e-05
1.61003e-05
1.61006e-05
1.61009e-05
1.61012e-05
1.60693e-05
1.60695e-05
1.60696e-05
1.60698e-05
1.607e-05
1.60702e-05
1.60705e-05
1.60708e-05
1.60712e-05
1.60715e-05
1.60719e-05
1.60723e-05
1.60727e-05
1.60732e-05
1.60736e-05
1.6074e-05
1.60744e-05
1.60748e-05
1.60752e-05
1.60756e-05
1.60761e-05
1.60765e-05
1.6077e-05
1.60775e-05
1.6078e-05
1.60786e-05
1.60791e-05
1.60796e-05
1.60801e-05
1.60806e-05
1.60811e-05
1.60816e-05
1.60821e-05
1.60825e-05
1.60829e-05
1.60833e-05
1.60837e-05
1.6084e-05
1.60844e-05
1.60847e-05
1.6085e-05
0.00365236
0.00714056
0.0101449
0.0121496
0.0130458
0.0128965
0.0117955
0.00985847
0.00714267
0.00383794
0.000990095
1.40439e-05
1.00022e-05
1.03274e-05
1.77709e-05
1.67041e-05
1.58614e-05
1.60353e-05
1.61148e-05
1.60988e-05
1.60961e-05
1.61e-05
1.61009e-05
1.61006e-05
1.61e-05
1.60989e-05
1.60976e-05
1.60961e-05
1.60946e-05
1.60932e-05
1.60921e-05
1.60914e-05
1.60909e-05
1.60906e-05
1.60904e-05
1.60903e-05
1.60903e-05
1.60901e-05
1.609e-05
1.60898e-05
1.60895e-05
1.60892e-05
1.60889e-05
1.60886e-05
1.60882e-05
1.60877e-05
1.60872e-05
1.60867e-05
1.60861e-05
1.60854e-05
1.60846e-05
1.60838e-05
1.60829e-05
1.60819e-05
1.60807e-05
1.60795e-05
1.60782e-05
1.60767e-05
1.60752e-05
1.60737e-05
1.60723e-05
1.60711e-05
1.60705e-05
1.60707e-05
1.60718e-05
1.60738e-05
1.60764e-05
1.60793e-05
1.60825e-05
1.6086e-05
1.60897e-05
1.6094e-05
1.60975e-05
1.61062e-05
0.00623942
0.0108781
0.0143987
0.0165621
0.0174874
0.0173381
0.0162424
0.0143045
0.0115823
0.00810198
0.00410618
0.000922468
1.00002e-05
1.00017e-05
1.01396e-05
1.76772e-05
1.72738e-05
1.59202e-05
1.59864e-05
1.6111e-05
1.61061e-05
1.60973e-05
1.61003e-05
1.61013e-05
1.61002e-05
1.60991e-05
1.6098e-05
1.60965e-05
1.6095e-05
1.60935e-05
1.60924e-05
1.60915e-05
1.6091e-05
1.60907e-05
1.60905e-05
1.60904e-05
1.60903e-05
1.60902e-05
1.60901e-05
1.60899e-05
1.60896e-05
1.60894e-05
1.60891e-05
1.60887e-05
1.60883e-05
1.60879e-05
1.60874e-05
1.60868e-05
1.60862e-05
1.60856e-05
1.60848e-05
1.6084e-05
1.60831e-05
1.60821e-05
1.6081e-05
1.60798e-05
1.60784e-05
1.6077e-05
1.60755e-05
1.6074e-05
1.60725e-05
1.60713e-05
1.60705e-05
1.60706e-05
1.60716e-05
1.60735e-05
1.6076e-05
1.60789e-05
1.60821e-05
1.60856e-05
1.60893e-05
1.60936e-05
1.6097e-05
1.61056e-05
0.00871386
0.0147721
0.0190123
0.0214419
0.0224591
0.0223442
0.0212672
0.019341
0.0166364
0.0131815
0.00898456
0.004362
0.000909163
0.000240261
1.0002e-05
1.00018e-05
1.62631e-05
1.77629e-05
1.61353e-05
1.59384e-05
1.60984e-05
1.6117e-05
1.60987e-05
1.60987e-05
1.61018e-05
1.61005e-05
1.60983e-05
1.60967e-05
1.60954e-05
1.6094e-05
1.60927e-05
1.60917e-05
1.60911e-05
1.60908e-05
1.60906e-05
1.60905e-05
1.60904e-05
1.60903e-05
1.60902e-05
1.609e-05
1.60897e-05
1.60895e-05
1.60892e-05
1.60889e-05
1.60885e-05
1.6088e-05
1.60876e-05
1.6087e-05
1.60864e-05
1.60858e-05
1.60851e-05
1.60842e-05
1.60834e-05
1.60824e-05
1.60813e-05
1.60801e-05
1.60787e-05
1.60773e-05
1.60758e-05
1.60743e-05
1.60728e-05
1.60715e-05
1.60706e-05
1.60705e-05
1.60714e-05
1.60732e-05
1.60756e-05
1.60785e-05
1.60817e-05
1.60852e-05
1.60888e-05
1.60931e-05
1.60966e-05
1.61051e-05
0.0111569
0.0188558
0.0239567
0.026772
0.0279734
0.0279562
0.0269374
0.025048
0.0223714
0.0189561
0.0148099
0.00992501
0.00473037
0.00104625
1.00074e-05
1e-05
1.00354e-05
1.39625e-05
1.82538e-05
1.6452e-05
1.58909e-05
1.60546e-05
1.61328e-05
1.61064e-05
1.60925e-05
1.60975e-05
1.61005e-05
1.60985e-05
1.60958e-05
1.60941e-05
1.60931e-05
1.60921e-05
1.60914e-05
1.60909e-05
1.60907e-05
1.60906e-05
1.60905e-05
1.60904e-05
1.60903e-05
1.60901e-05
1.60899e-05
1.60896e-05
1.60893e-05
1.6089e-05
1.60886e-05
1.60882e-05
1.60878e-05
1.60872e-05
1.60867e-05
1.6086e-05
1.60853e-05
1.60845e-05
1.60836e-05
1.60826e-05
1.60816e-05
1.60804e-05
1.60791e-05
1.60776e-05
1.60761e-05
1.60746e-05
1.60731e-05
1.60717e-05
1.60708e-05
1.60705e-05
1.60712e-05
1.60728e-05
1.60752e-05
1.60781e-05
1.60813e-05
1.60847e-05
1.60884e-05
1.60926e-05
1.60961e-05
1.61045e-05
0.0137465
0.0231899
0.029185
0.0324943
0.0339935
0.0341662
0.0332754
0.0314755
0.0288636
0.0255029
0.0214277
0.0166243
0.0110942
0.00540305
0.00131553
0.000402796
1e-05
1.00209e-05
1.23165e-05
1.8124e-05
1.71495e-05
1.59238e-05
1.59388e-05
1.61345e-05
1.61464e-05
1.61026e-05
1.60899e-05
1.60955e-05
1.60982e-05
1.6096e-05
1.60934e-05
1.60921e-05
1.60915e-05
1.60912e-05
1.60909e-05
1.60907e-05
1.60906e-05
1.60905e-05
1.60904e-05
1.60902e-05
1.609e-05
1.60898e-05
1.60895e-05
1.60892e-05
1.60888e-05
1.60884e-05
1.6088e-05
1.60875e-05
1.60869e-05
1.60863e-05
1.60855e-05
1.60848e-05
1.60839e-05
1.60829e-05
1.60819e-05
1.60807e-05
1.60794e-05
1.6078e-05
1.60765e-05
1.60749e-05
1.60734e-05
1.6072e-05
1.60709e-05
1.60705e-05
1.6071e-05
1.60725e-05
1.60748e-05
1.60776e-05
1.60808e-05
1.60842e-05
1.60879e-05
1.60921e-05
1.60955e-05
1.61038e-05
0.0171983
0.0278409
0.0346347
0.0385204
0.0404361
0.0409116
0.0402461
0.0386179
0.0361389
0.0328834
0.0289018
0.0242155
0.0188002
0.0126927
0.00647017
0.00178453
0.00061582
1.05575e-05
1.001e-05
1.03614e-05
1.63294e-05
1.81799e-05
1.63347e-05
1.57408e-05
1.59692e-05
1.61526e-05
1.61454e-05
1.61003e-05
1.60876e-05
1.60927e-05
1.60958e-05
1.60942e-05
1.60918e-05
1.60908e-05
1.60908e-05
1.60909e-05
1.60909e-05
1.60907e-05
1.60905e-05
1.60904e-05
1.60902e-05
1.609e-05
1.60897e-05
1.60894e-05
1.6089e-05
1.60886e-05
1.60882e-05
1.60877e-05
1.60871e-05
1.60865e-05
1.60858e-05
1.60851e-05
1.60842e-05
1.60833e-05
1.60822e-05
1.6081e-05
1.60798e-05
1.60784e-05
1.60769e-05
1.60753e-05
1.60737e-05
1.60723e-05
1.60711e-05
1.60706e-05
1.60708e-05
1.60722e-05
1.60744e-05
1.60772e-05
1.60803e-05
1.60837e-05
1.60873e-05
1.60915e-05
1.60949e-05
1.61032e-05
0.0219293
0.0328241
0.040243
0.0447417
0.0471745
0.0480708
0.0477476
0.0464001
0.0441529
0.0410894
0.0372685
0.0327314
0.0274917
0.0215288
0.0149002
0.00811147
0.00280034
9.83946e-05
0.000109279
1.00009e-05
1.00319e-05
1.23108e-05
1.8682e-05
1.78513e-05
1.60712e-05
1.57287e-05
1.59856e-05
1.61491e-05
1.61409e-05
1.6098e-05
1.60843e-05
1.60895e-05
1.60943e-05
1.60938e-05
1.60915e-05
1.60903e-05
1.60903e-05
1.60906e-05
1.60908e-05
1.60907e-05
1.60904e-05
1.60901e-05
1.60899e-05
1.60896e-05
1.60893e-05
1.60889e-05
1.60885e-05
1.6088e-05
1.60874e-05
1.60868e-05
1.60861e-05
1.60854e-05
1.60845e-05
1.60836e-05
1.60826e-05
1.60814e-05
1.60802e-05
1.60788e-05
1.60773e-05
1.60757e-05
1.60741e-05
1.60726e-05
1.60714e-05
1.60706e-05
1.60707e-05
1.60718e-05
1.60739e-05
1.60766e-05
1.60797e-05
1.60831e-05
1.60867e-05
1.60909e-05
1.60943e-05
1.61025e-05
0.0275403
0.0381009
0.0459478
0.0510291
0.05404
0.0554616
0.0556027
0.0546628
0.0527726
0.0500206
0.0464698
0.0421689
0.0371525
0.0314323
0.0249996
0.0178815
0.0106013
0.00432833
0.000623373
0.000401751
1.00002e-05
1.00075e-05
1.00365e-05
1.41346e-05
1.89793e-05
1.75289e-05
1.60062e-05
1.57613e-05
1.59995e-05
1.61503e-05
1.61437e-05
1.60976e-05
1.60789e-05
1.6084e-05
1.60924e-05
1.60949e-05
1.60931e-05
1.6091e-05