/*--------------------------------*- C++ -*----------------------------------*\
| =========                 |                                                 |
| \\      /  F ield         | OpenFOAM: The Open Source CFD Toolbox           |
|  \\    /   O peration     | Version:  2312                                  |
|   \\  /    A nd           | Website:  www.openfoam.com                      |
|    \\/     M anipulation  |                                                 |
\*---------------------------------------------------------------------------*/
FoamFile
{
    version     2.0;
    format      ascii;
    arch        "LSB;label=32;scalar=64";
    class       volScalarField;
    location    "1000";
    object      turbulenceProperties:k;
}
// * * * * * * * * * * * * * * * * * * * * * * * * * * * * * * * * * * * * * //

dimensions      [0 2 -2 0 0 0 0];

internalField   nonuniform List<scalar> 
11040
(
0.40332
0.441605
0.0704824
0.0465117
0.275511
0.283622
0.268982
0.245589
0.221317
0.206028
0.191746
0.179339
0.169161
0.161352
0.155074
0.151913
0.151708
0.154633
0.160235
0.16843
0.179516
0.193162
0.209372
0.228392
0.250261
0.27591
0.304559
0.332128
0.356105
0.373597
0.381564
0.377399
0.361966
0.340431
0.321897
0.253316
0.132519
0.0814757
0.0340866
0.11184
0.219675
0.0336842
0.0697003
0.235589
0.423501
0.814121
0.271893
0.0845
0.028941
0.00745583
0.00583023
0.0138394
0.0183831
0.0213785
0.0235161
0.0249093
0.0262521
0.0279257
0.0299241
0.0319706
0.0340615
0.0362554
0.0386536
0.0406078
0.0414122
0.0408584
0.0397247
0.0383937
0.0358904
0.0322572
0.0280752
0.0246702
0.0238004
0.0240665
0.0269897
0.0332537
0.0429708
0.0567354
0.0746417
0.119172
0.136756
0.54824
0.0207555
0.0185695
0.0411659
0.17773
0.944802
1.27004
0.658645
0.249535
0.117484
0.0702561
0.0395932
0.0226056
0.0109526
0.00320335
0.00328643
0.00692975
0.00957071
0.0115375
0.0129765
0.0139661
0.0146182
0.0149406
0.0145641
0.0133456
0.0115484
0.00953792
0.00745001
0.00506339
0.00204124
0.00351075
0.0106721
0.0212081
0.0354865
0.0538518
0.0769862
0.106282
0.143179
0.185272
0.276393
0.361697
0.525687
0.0149129
0.0127713
0.01057
0.0164626
0.225977
1.09524
1.63817
1.10132
0.460509
0.247706
0.147057
0.0989512
0.069631
0.0495797
0.0369455
0.028051
0.0225781
0.0190368
0.0170833
0.0163943
0.016548
0.017512
0.0194224
0.0221156
0.0249546
0.0274049
0.0290339
0.0295174
0.0288993
0.028451
0.0316506
0.042607
0.0627058
0.0923611
0.132082
0.183921
0.250181
0.326215
0.4635
0.638206
0.572501
0.0111071
0.0100174
0.0106744
0.00533624
0.00713225
0.201333
1.04174
1.85084
1.59324
0.800724
0.423599
0.256312
0.177463
0.128331
0.0997159
0.0795534
0.0672427
0.0590642
0.0542157
0.0518448
0.050995
0.051316
0.0528875
0.0556265
0.0587217
0.0614877
0.0633071
0.0636239
0.0622645
0.0601797
0.0608091
0.0707808
0.0961015
0.138511
0.197977
0.27648
0.37699
0.494651
0.668115
0.937722
0.760512
0.00801543
0.00736015
0.00716386
0.00792923
0.00243508
0.00174803
0.136126
0.834326
1.87951
2.03194
1.31955
0.674651
0.418609
0.281799
0.209017
0.162109
0.134391
0.11642
0.105317
0.0993596
0.0963722
0.0954655
0.0964365
0.0992043
0.102732
0.106112
0.108376
0.108489
0.105734
0.100566
0.0964156
0.102463
0.130818
0.186502
0.268563
0.377774
0.516971
0.681497
0.885938
1.23097
1.04579
0.00578984
0.00553362
0.00519591
0.00553509
0.00572129
0.00109285
4.89264e-05
0.0638373
0.559769
1.63842
2.28745
1.92163
1.12155
0.638996
0.429732
0.315858
0.247592
0.204784
0.17849
0.164071
0.156287
0.153052
0.153208
0.156333
0.160863
0.165465
0.168654
0.168703
0.164035
0.154246
0.142033
0.138031
0.162438
0.228349
0.333748
0.47587
0.655586
0.867356
1.10226
1.49095
1.36612
0.00422582
0.00413207
0.0040697
0.0039101
0.00423253
0.0044361
0.000203696
2.51652e-06
0.0198598
0.301432
1.18208
2.22963
2.41048
1.76103
1.02075
0.64068
0.458678
0.358668
0.296576
0.259888
0.239241
0.230242
0.228091
0.231365
0.237394
0.244064
0.249103
0.24979
0.243179
0.227568
0.203769
0.180923
0.186353
0.251609
0.376941
0.551228
0.769837
1.02384
1.28915
1.68023
1.65185
0.00312151
0.00307756
0.00308349
0.00305802
0.0029386
0.00332163
0.00317674
0.000428483
0.000392124
0.000818497
0.115761
0.679586
1.77079
2.57204
2.40527
1.65226
0.994155
0.668368
0.505805
0.416118
0.364193
0.339378
0.330059
0.331499
0.338724
0.347738
0.355172
0.3573
0.349753
0.328515
0.291325
0.241894
0.204614
0.240129
0.373469
0.575328
0.827418
1.11425
1.40374
1.76533
1.82828
0.00231851
0.00229804
0.00231483
0.00233997
0.00232052
0.00224978
0.00253096
0.00226897
0.000727953
9.98924e-05
0.00182416
0.0260137
0.294916
1.10427
2.22286
2.75723
2.38841
1.62396
1.02478
0.724628
0.578897
0.508359
0.476444
0.468031
0.473158
0.484859
0.49688
0.502453
0.495172
0.469418
0.420127
0.343874
0.24772
0.188599
0.291031
0.512461
0.790644
1.09864
1.39997
1.71564
1.83815
0.00172952
0.00171999
0.00173732
0.00176466
0.00178959
0.00177323
0.00174948
0.00187089
0.00185468
0.000970848
6.6785e-05
0.000342714
0.000299839
0.0796822
0.5046
1.46242
2.51746
2.87228
2.42353
1.68261
1.11481
0.836412
0.720165
0.673047
0.659591
0.665294
0.679125
0.690533
0.689904
0.667624
0.614211
0.521512
0.385258
0.207934
0.0941325
0.327563
0.627971
0.946274
1.24417
1.50672
1.64888
0.00129277
0.00128892
0.00130139
0.00132622
0.00135233
0.00137312
0.00136881
0.00135524
0.00140146
0.00145692
0.00108021
3.18079e-05
2.0163e-05
0.00138229
0.0102321
0.151224
0.688156
1.70216
2.69215
2.98049
2.54168
1.87159
1.36064
1.08349
0.965636
0.931463
0.93156
0.940115
0.94331
0.928836
0.885013
0.801122
0.670142
0.491612
0.282922
0.193923
0.415046
0.707483
0.975479
1.17631
1.29011
0.00096686
0.000966032
0.000974405
0.000993403
0.00101711
0.00103967
0.0010576
0.00106213
0.00105468
0.00106793
0.00112988
0.000975002
0.000229746
2.3359e-05
0.00014789
0.0028548
0.0210978
0.205813
0.789557
1.8036
2.77642
3.11919
2.85098
2.3539
1.88823
1.56277
1.38389
1.31146
1.29496
1.28945
1.26572
1.2084
1.11225
0.982606
0.839521
0.725679
0.703515
0.792683
0.92832
1.02124
1.02842
0.000722519
0.000723328
0.000728724
0.000742444
0.000761641
0.000782092
0.000801179
0.000817323
0.000826188
0.000824666
0.000825829
0.000869702
0.000839576
0.000479429
6.73274e-06
3.37893e-06
0.000358078
0.00430735
0.0286221
0.221581
0.789196
1.72492
2.65635
3.20804
3.29183
3.07589
2.74848
2.42087
2.15008
1.95636
1.83355
1.75851
1.70314
1.64832
1.59241
1.54603
1.52557
1.53811
1.57682
1.60415
1.50779
0.000538737
0.000540378
0.00054383
0.000553564
0.000568262
0.000585122
0.000602317
0.00061862
0.00063305
0.000643668
0.000646353
0.000647715
0.000669439
0.000675973
0.000591245
0.000167185
1.94759e-05
3.2768e-07
0.000610582
0.00441173
0.0262227
0.17976
0.58558
1.28085
2.13087
2.90526
3.43151
3.67488
3.70125
3.58955
3.39508
3.15945
2.92257
2.72141
2.58294
2.51854
2.52578
2.58049
2.65391
2.72741
2.65879
0.000400368
0.000402249
0.000404461
0.000411295
0.00042225
0.000435392
0.000449493
0.000463878
0.000477795
0.000490468
0.000500999
0.000506774
0.000510716
0.000516172
0.000540659
0.000507689
0.000392968
2.84217e-05
6.72184e-06
7.46181e-08
0.000680726
0.0029199
0.00915877
0.0727194
0.263039
0.646289
1.22894
1.94803
2.69488
3.36788
3.9037
4.27729
4.4914
4.56703
4.53965
4.4496
4.33826
4.23359
4.1624
4.16036
4.08855
0.000297071
0.000298824
0.000300296
0.000305123
0.000313183
0.000323098
0.000334086
0.000345717
0.000357573
0.000369123
0.000379892
0.000389364
0.00039681
0.000401207
0.000407032
0.000416761
0.000430985
0.000380601
0.000231934
6.90266e-06
3.57346e-06
5.02622e-08
0.000202972
0.00170446
0.0010366
0.0104124
0.0515989
0.168432
0.39942
0.770868
1.2835
1.91078
2.60698
3.32072
4.00266
4.60752
5.10818
5.4919
5.76911
5.99136
6.05577
0.000222556
0.000224107
0.000225218
0.000228816
0.00023489
0.000242451
0.000250967
0.000260179
0.00026979
0.000279488
0.000288937
0.00029787
0.000306057
0.00031316
0.000318425
0.000323077
0.000328872
0.000341848
0.000343989
0.000296604
0.000161408
4.75328e-06
2.9925e-06
1.88366e-07
2.01368e-05
0.00026984
0.00114698
0.00191463
0.000690173
0.00889119
0.0416036
0.121091
0.271566
0.516658
0.870624
1.3351
1.89882
2.54437
3.23928
3.9682
4.62252
0.000169856
0.000171221
0.000172127
0.000174917
0.00017961
0.000185485
0.000192181
0.000199547
0.000207384
0.000215451
0.000223519
0.000231377
0.000238846
0.000245821
0.000252068
0.000257479
0.000261517
0.000266369
0.000273047
0.000282102
0.000279306
0.000234724
0.000157415
1.80728e-05
4.15706e-06
9.86097e-07
8.63844e-08
0
8.58792e-06
0.000189079
0.000941341
0.00140797
4.7178e-06
0.00110665
0.00777463
0.0323187
0.0866363
0.186227
0.34497
0.576757
0.884302
0.000132018
0.000133173
0.000133923
0.000136126
0.000139801
0.000144413
0.000149707
0.000155584
0.000161916
0.000168531
0.000175274
0.00018201
0.000188596
0.000194902
0.000200824
0.000206297
0.000211171
0.000215348
0.00021898
0.000223602
0.000230003
0.00023549
0.000234507
0.00020775
0.000156181
9.78135e-05
9.34599e-06
2.75406e-06
8.12729e-07
4.33637e-07
2.26918e-08
0
9.8171e-08
1.57921e-05
0.000156206
0.000736376
0.00119214
0.000927181
0.000716221
0.000207919
0.00543819
0.000104002
0.000104958
0.000105587
0.000107351
0.000110262
0.000113919
0.000118139
0.00012285
0.000127957
0.000133342
0.000138889
0.000144512
0.000150115
0.000155599
0.000160876
0.000165873
0.000170541
0.000174819
0.000178623
0.000181978
0.000185147
0.000189287
0.000193928
0.000199909
0.000199856
0.000194029
0.000172148
0.000136088
9.39887e-05
5.2728e-05
2.99024e-06
1.54658e-06
6.25108e-07
4.17662e-07
2.25872e-07
3.09442e-08
0
0
0
1.43862e-06
8.6655e-05
8.28182e-05
8.36032e-05
8.41407e-05
8.55705e-05
8.78991e-05
9.08249e-05
9.42131e-05
9.80078e-05
0.000102139
0.000106516
0.000111056
0.000115694
0.000120364
0.000124992
0.000129516
0.000133877
0.000138025
0.000141922
0.000145538
0.00014886
0.00015175
0.000154351
0.000156824
0.000159889
0.000163556
0.000167141
0.0001712
0.000171674
0.000167114
0.000159053
0.000141884
0.000117316
8.9487e-05
6.18466e-05
3.52799e-05
5.19438e-06
1.4472e-06
4.76362e-07
3.66461e-07
2.64098e-07
1.68722e-07
6.65161e-05
6.71571e-05
6.76216e-05
6.87911e-05
7.06677e-05
7.30242e-05
7.57596e-05
7.8829e-05
8.21768e-05
8.57351e-05
8.94398e-05
9.32432e-05
9.70967e-05
0.000100945
0.000104737
0.000108432
0.000111987
0.000115368
0.000118544
0.000121516
0.000124198
0.000126566
0.00012867
0.000130488
0.000132248
0.000134041
0.000136232
0.000138802
0.000141393
0.000143481
0.000145697
0.000145798
0.000143452
0.000138584
0.000131818
0.000120961
0.000106534
8.94098e-05
7.14964e-05
5.36226e-05
3.62088e-05
5.37963e-05
5.4319e-05
5.47241e-05
5.56882e-05
5.72102e-05
5.91194e-05
6.13388e-05
6.3831e-05
6.65509e-05
6.94461e-05
7.24668e-05
7.55747e-05
7.87335e-05
8.19007e-05
8.50365e-05
8.81069e-05
9.10801e-05
9.39268e-05
9.662e-05
9.91537e-05
0.000101458
0.000103516
0.000105373
0.00010697
0.000108329
0.000109495
0.000110509
0.00011146
0.000112451
0.00011347
0.000114652
0.000115956
0.000117225
0.000118328
0.000119099
0.000119837
0.000119855
0.000118837
0.000116739
0.00011338
0.000109723
4.37571e-05
4.41834e-05
4.45392e-05
4.53387e-05
4.65797e-05
4.81341e-05
4.9942e-05
5.19718e-05
5.41863e-05
5.6544e-05
5.90055e-05
6.154e-05
6.41191e-05
6.67095e-05
6.92793e-05
7.1801e-05
7.42486e-05
7.65979e-05
7.88258e-05
8.09256e-05
8.28344e-05
8.45401e-05
8.60776e-05
8.74048e-05
8.8531e-05
8.94781e-05
9.02546e-05
9.08672e-05
9.1334e-05
9.16786e-05
9.19174e-05
9.20896e-05
9.22229e-05
9.23482e-05
9.24588e-05
9.25832e-05
9.27113e-05
9.28356e-05
9.29465e-05
9.28937e-05
9.29511e-05
3.57584e-05
3.61068e-05
3.6421e-05
3.70878e-05
3.81048e-05
3.93759e-05
4.08542e-05
4.25122e-05
4.4319e-05
4.6241e-05
4.82469e-05
5.03116e-05
5.24117e-05
5.45206e-05
5.66128e-05
5.86658e-05
6.06584e-05
6.25704e-05
6.43819e-05
6.60866e-05
6.76305e-05
6.90047e-05
7.02393e-05
7.12962e-05
7.21822e-05
7.29152e-05
7.35054e-05
7.39585e-05
7.42802e-05
7.44787e-05
7.45599e-05
7.45321e-05
7.44015e-05
7.41824e-05
7.38894e-05
7.35266e-05
7.31015e-05
7.26335e-05
7.21563e-05
7.16252e-05
7.11732e-05
2.93349e-05
2.96206e-05
2.98994e-05
3.04587e-05
3.12962e-05
3.23402e-05
3.35531e-05
3.4911e-05
3.63878e-05
3.79565e-05
3.95913e-05
4.12719e-05
4.29786e-05
4.469e-05
4.63855e-05
4.80464e-05
4.96555e-05
5.11957e-05
5.26505e-05
5.40142e-05
5.52411e-05
5.63259e-05
5.72962e-05
5.81182e-05
5.87961e-05
5.93444e-05
5.97717e-05
6.00837e-05
6.0287e-05
6.03888e-05
6.03963e-05
6.03167e-05
6.0154e-05
5.99168e-05
5.96137e-05
5.92472e-05
5.88195e-05
5.83387e-05
5.78297e-05
5.7249e-05
5.67483e-05
2.41417e-05
2.43775e-05
2.46262e-05
2.50981e-05
2.57913e-05
2.66526e-05
2.76513e-05
2.87663e-05
2.99759e-05
3.12577e-05
3.25907e-05
3.3958e-05
3.53433e-05
3.67288e-05
3.80978e-05
3.9435e-05
4.07262e-05
4.19573e-05
4.31145e-05
4.4193e-05
4.51547e-05
4.59975e-05
4.67466e-05
4.73735e-05
4.78806e-05
4.828e-05
4.85792e-05
4.87831e-05
4.88972e-05
4.89283e-05
4.88827e-05
4.87674e-05
4.85866e-05
4.83483e-05
4.80598e-05
4.77241e-05
4.73433e-05
4.69236e-05
4.64858e-05
4.59911e-05
4.55701e-05
1.99194e-05
2.01156e-05
2.03388e-05
2.07396e-05
2.13168e-05
2.20306e-05
2.28558e-05
2.3774e-05
2.47667e-05
2.58155e-05
2.69031e-05
2.80152e-05
2.91386e-05
3.02584e-05
3.13607e-05
3.24333e-05
3.34644e-05
3.44424e-05
3.5356e-05
3.62012e-05
3.69468e-05
3.75929e-05
3.8163e-05
3.86329e-05
3.90043e-05
3.92875e-05
3.9489e-05
3.9613e-05
3.96644e-05
3.96489e-05
3.95721e-05
3.94399e-05
3.9256e-05
3.90271e-05
3.87596e-05
3.84559e-05
3.81179e-05
3.77508e-05
3.73715e-05
3.69503e-05
3.65846e-05
1.64698e-05
1.6635e-05
1.68368e-05
1.71799e-05
1.76633e-05
1.82578e-05
1.89424e-05
1.97007e-05
2.05173e-05
2.13768e-05
2.22649e-05
2.31697e-05
2.40802e-05
2.49842e-05
2.58699e-05
2.67276e-05
2.75477e-05
2.83209e-05
2.90378e-05
2.96954e-05
3.02681e-05
3.07579e-05
3.11862e-05
3.15329e-05
3.17994e-05
3.19943e-05
3.21234e-05
3.21904e-05
3.21994e-05
3.21552e-05
3.20627e-05
3.19268e-05
3.17507e-05
3.15398e-05
3.12994e-05
3.10317e-05
3.07381e-05
3.04226e-05
3.00991e-05
2.97449e-05
2.94308e-05
1.36399e-05
1.37812e-05
1.39651e-05
1.42611e-05
1.46689e-05
1.51667e-05
1.5737e-05
1.63654e-05
1.70388e-05
1.77445e-05
1.84707e-05
1.92072e-05
1.99451e-05
2.06742e-05
2.13849e-05
2.20691e-05
2.27194e-05
2.33282e-05
2.38879e-05
2.43962e-05
2.48326e-05
2.52e-05
2.5518e-05
2.57698e-05
2.59566e-05
2.60858e-05
2.61625e-05
2.61899e-05
2.61714e-05
2.61112e-05
2.60132e-05
2.58816e-05
2.57191e-05
2.55299e-05
2.53185e-05
2.50865e-05
2.48355e-05
2.4568e-05
2.42955e-05
2.40011e-05
2.37341e-05
1.13103e-05
1.14335e-05
1.16024e-05
1.18601e-05
1.22066e-05
1.2626e-05
1.31033e-05
1.3626e-05
1.41831e-05
1.47639e-05
1.53586e-05
1.59588e-05
1.65569e-05
1.71449e-05
1.77146e-05
1.82595e-05
1.87739e-05
1.92517e-05
1.96869e-05
2.00778e-05
2.04081e-05
2.06812e-05
2.09147e-05
2.10949e-05
2.12227e-05
2.13045e-05
2.13447e-05
2.1346e-05
2.13114e-05
2.12441e-05
2.11477e-05
2.10253e-05
2.08793e-05
2.0713e-05
2.05301e-05
2.03318e-05
2.01194e-05
1.98948e-05
1.96672e-05
1.94244e-05
1.91977e-05
9.3869e-06
9.49677e-06
9.65297e-06
9.87943e-06
1.01763e-05
1.05318e-05
1.09334e-05
1.13701e-05
1.18326e-05
1.23121e-05
1.28003e-05
1.32901e-05
1.37754e-05
1.42497e-05
1.47062e-05
1.51398e-05
1.55459e-05
1.59198e-05
1.6257e-05
1.65561e-05
1.68044e-05
1.70052e-05
1.71745e-05
1.73009e-05
1.73852e-05
1.7433e-05
1.7448e-05
1.74325e-05
1.7389e-05
1.73203e-05
1.72292e-05
1.71183e-05
1.69894e-05
1.68454e-05
1.66889e-05
1.65212e-05
1.6343e-05
1.61559e-05
1.59672e-05
1.57682e-05
1.55766e-05
7.79505e-06
7.89521e-06
8.04074e-06
8.24154e-06
8.49796e-06
8.80149e-06
9.14142e-06
9.50824e-06
9.89392e-06
1.02912e-05
1.06931e-05
1.10939e-05
1.14883e-05
1.18712e-05
1.22373e-05
1.25822e-05
1.29026e-05
1.31949e-05
1.34555e-05
1.36839e-05
1.38697e-05
1.40165e-05
1.41383e-05
1.42257e-05
1.42794e-05
1.43043e-05
1.43035e-05
1.42789e-05
1.42326e-05
1.41668e-05
1.40837e-05
1.39856e-05
1.3874e-05
1.37509e-05
1.36186e-05
1.34779e-05
1.33296e-05
1.31746e-05
1.30189e-05
1.28567e-05
1.26938e-05
6.47501e-06
6.56828e-06
6.70465e-06
6.88432e-06
7.10781e-06
7.36895e-06
7.65861e-06
7.96851e-06
8.29182e-06
8.62244e-06
8.95468e-06
9.28358e-06
9.60493e-06
9.91467e-06
1.02085e-05
1.0483e-05
1.07355e-05
1.09636e-05
1.11645e-05
1.13378e-05
1.14757e-05
1.15813e-05
1.16671e-05
1.17253e-05
1.17567e-05
1.17654e-05
1.1754e-05
1.17241e-05
1.16776e-05
1.16162e-05
1.15417e-05
1.14559e-05
1.13599e-05
1.12555e-05
1.11444e-05
1.10272e-05
1.09046e-05
1.0777e-05
1.06494e-05
1.05178e-05
1.0381e-05
5.37869e-06
5.46716e-06
5.59554e-06
5.75769e-06
5.95427e-06
6.18081e-06
6.42947e-06
6.69304e-06
6.96572e-06
7.24238e-06
7.5183e-06
7.78938e-06
8.05215e-06
8.30347e-06
8.54003e-06
8.75901e-06
8.95862e-06
9.13707e-06
9.29247e-06
9.42465e-06
9.52763e-06
9.6042e-06
9.66513e-06
9.70404e-06
9.7216e-06
9.72124e-06
9.70522e-06
9.6749e-06
9.6316e-06
9.57685e-06
9.51209e-06
9.43871e-06
9.35768e-06
9.27024e-06
9.1778e-06
9.08087e-06
8.97997e-06
8.87537e-06
8.77095e-06
8.66485e-06
8.5472e-06
4.46719e-06
4.55234e-06
4.67363e-06
4.82117e-06
4.99568e-06
5.19388e-06
5.40903e-06
5.63484e-06
5.86637e-06
6.0993e-06
6.3297e-06
6.55422e-06
6.76999e-06
6.97455e-06
7.16536e-06
7.34018e-06
7.49772e-06
7.63676e-06
7.756e-06
7.85541e-06
7.93055e-06
7.9839e-06
8.02483e-06
8.04816e-06
8.05454e-06
8.04691e-06
8.02723e-06
7.99662e-06
7.95619e-06
7.90717e-06
7.85072e-06
7.78795e-06
7.71961e-06
7.64664e-06
7.57015e-06
7.49047e-06
7.40808e-06
7.32297e-06
7.23855e-06
7.15281e-06
7.05621e-06
3.70895e-06
3.79174e-06
3.90663e-06
4.04194e-06
4.19827e-06
4.37314e-06
4.56072e-06
4.7556e-06
4.95353e-06
5.15091e-06
5.34449e-06
5.53154e-06
5.7098e-06
5.87745e-06
6.03264e-06
6.17367e-06
6.29969e-06
6.41001e-06
6.5038e-06
6.58119e-06
6.63886e-06
6.67868e-06
6.70875e-06
6.7247e-06
6.72707e-06
6.71832e-06
6.70004e-06
6.67316e-06
6.63854e-06
6.59717e-06
6.55001e-06
6.49792e-06
6.44153e-06
6.38157e-06
6.31894e-06
6.25393e-06
6.18688e-06
6.11771e-06
6.04907e-06
5.98124e-06
5.89489e-06
3.07821e-06
3.15913e-06
3.26813e-06
3.39313e-06
3.53441e-06
3.68993e-06
3.85463e-06
4.02388e-06
4.19413e-06
4.36242e-06
4.52603e-06
4.68271e-06
4.83058e-06
4.96815e-06
5.09403e-06
5.2069e-06
5.30615e-06
5.39144e-06
5.46235e-06
5.51909e-06
5.55942e-06
5.58511e-06
5.60316e-06
5.61002e-06
5.60628e-06
5.59404e-06
5.57468e-06
5.54897e-06
5.51762e-06
5.48142e-06
5.4411e-06
5.39735e-06
5.35062e-06
5.30146e-06
5.25053e-06
5.19794e-06
5.14416e-06
5.08871e-06
5.03449e-06
4.979e-06
4.91374e-06
2.5536e-06
2.6329e-06
2.7364e-06
2.85248e-06
2.98105e-06
3.12025e-06
3.26574e-06
3.41354e-06
3.56075e-06
3.70501e-06
3.84421e-06
3.9766e-06
4.10078e-06
4.21583e-06
4.32094e-06
4.41518e-06
4.49815e-06
4.56967e-06
4.62944e-06
4.6777e-06
4.71271e-06
4.73538e-06
4.75181e-06
4.75894e-06
4.75725e-06
4.74849e-06
4.7338e-06
4.71379e-06
4.68906e-06
4.66027e-06
4.62805e-06
4.59298e-06
4.55546e-06
4.51592e-06
4.47499e-06
4.4328e-06
4.38962e-06
4.34519e-06
4.30123e-06
4.25995e-06
4.194e-06
2.11739e-06
2.19547e-06
2.29404e-06
2.40222e-06
2.5194e-06
2.64412e-06
2.7729e-06
2.90249e-06
3.03042e-06
3.15468e-06
3.27359e-06
3.3857e-06
3.48971e-06
3.58432e-06
3.66859e-06
3.74202e-06
3.80469e-06
3.85696e-06
3.89907e-06
3.93133e-06
3.9528e-06
3.96482e-06
3.97228e-06
3.97279e-06
3.96679e-06
3.95576e-06
3.94065e-06
3.92193e-06
3.90005e-06
3.8755e-06
3.84873e-06
3.82013e-06
3.78998e-06
3.75856e-06
3.72626e-06
3.69304e-06
3.65942e-06
3.62449e-06
3.59144e-06
3.55457e-06
3.51739e-06
1.75597e-06
1.8332e-06
1.92757e-06
2.02877e-06
2.13536e-06
2.24635e-06
2.35949e-06
2.47265e-06
2.58405e-06
2.69195e-06
2.79472e-06
2.89131e-06
2.98143e-06
3.06541e-06
3.14314e-06
3.21341e-06
3.27508e-06
3.32777e-06
3.37145e-06
3.40655e-06
3.43229e-06
3.4488e-06
3.46081e-06
3.46626e-06
3.46565e-06
3.46024e-06
3.4509e-06
3.43806e-06
3.42219e-06
3.40376e-06
3.38324e-06
3.36103e-06
3.33743e-06
3.31271e-06
3.28734e-06
3.26144e-06
3.2351e-06
3.20825e-06
3.18127e-06
3.16025e-06
3.10392e-06
1.45982e-06
1.5352e-06
1.62463e-06
1.7188e-06
1.81559e-06
1.91407e-06
2.01268e-06
2.1102e-06
2.20595e-06
2.29913e-06
2.38835e-06
2.47142e-06
2.54583e-06
2.60943e-06
2.66202e-06
2.70581e-06
2.74311e-06
2.77462e-06
2.80038e-06
2.82012e-06
2.83342e-06
2.84132e-06
2.84665e-06
2.84774e-06
2.84485e-06
2.83895e-06
2.83065e-06
2.82024e-06
2.80796e-06
2.7941e-06
2.77892e-06
2.76262e-06
2.74537e-06
2.7273e-06
2.70861e-06
2.68916e-06
2.66959e-06
2.64848e-06
2.63024e-06
2.60205e-06
2.59548e-06
1.21872e-06
1.29033e-06
1.37191e-06
1.45614e-06
1.5417e-06
1.62861e-06
1.71562e-06
1.80102e-06
1.88349e-06
1.96255e-06
2.03882e-06
2.11387e-06
2.18932e-06
2.26581e-06
2.34117e-06
2.40937e-06
2.46636e-06
2.51292e-06
2.55052e-06
2.58065e-06
2.60318e-06
2.61781e-06
2.62852e-06
2.63414e-06
2.63526e-06
2.63289e-06
2.62768e-06
2.62006e-06
2.61042e-06
2.59919e-06
2.58676e-06
2.57348e-06
2.55958e-06
2.54531e-06
2.53103e-06
2.51697e-06
2.50291e-06
2.48956e-06
2.4745e-06
2.4732e-06
2.41271e-06
1.0175e-06
1.08706e-06
1.16084e-06
1.23267e-06
1.30302e-06
1.37442e-06
1.44804e-06
1.52363e-06
1.59947e-06
1.67225e-06
1.73753e-06
1.79106e-06
1.83054e-06
1.85639e-06
1.87361e-06
1.89239e-06
1.91719e-06
1.94387e-06
1.96932e-06
1.99162e-06
2.01038e-06
2.0263e-06
2.04015e-06
2.05086e-06
2.05851e-06
2.06371e-06
2.06682e-06
2.06803e-06
2.0675e-06
2.06539e-06
2.06186e-06
2.05702e-06
2.051e-06
2.04381e-06
2.03558e-06
2.02607e-06
2.01616e-06
2.00357e-06
1.99543e-06
1.96579e-06
1.99748e-06
8.48071e-07
9.235e-07
9.98332e-07
1.06463e-06
1.12229e-06
1.17492e-06
1.22591e-06
1.27834e-06
1.33537e-06
1.40003e-06
1.4747e-06
1.56037e-06
1.65556e-06
1.75658e-06
1.85516e-06
1.93458e-06
1.98967e-06
2.03104e-06
2.06324e-06
2.08846e-06
2.10633e-06
2.11734e-06
2.12443e-06
2.12723e-06
2.1265e-06
2.1231e-06
2.11765e-06
2.11061e-06
2.10243e-06
2.09356e-06
2.0844e-06
2.07533e-06
2.0666e-06
2.0585e-06
2.05135e-06
2.04564e-06
2.04064e-06
2.03854e-06
2.03213e-06
2.05409e-06
1.97209e-06
7.25172e-07
7.99106e-07
8.71727e-07
9.38536e-07
9.97885e-07
1.0496e-06
1.09272e-06
1.12636e-06
1.15064e-06
1.16681e-06
1.17692e-06
1.18334e-06
1.18849e-06
1.19284e-06
1.19857e-06
1.21966e-06
1.25672e-06
1.29779e-06
1.33893e-06
1.37767e-06
1.41343e-06
1.44628e-06
1.47661e-06
1.50409e-06
1.52853e-06
1.55011e-06
1.56903e-06
1.58533e-06
1.59903e-06
1.61014e-06
1.61866e-06
1.62456e-06
1.62786e-06
1.62841e-06
1.62625e-06
1.62104e-06
1.61375e-06
1.60114e-06
1.59324e-06
1.55012e-06
1.60777e-06
7.86231e-07
8.83008e-07
9.34544e-07
9.43924e-07
9.30461e-07
9.20842e-07
9.38395e-07
9.93697e-07
1.08218e-06
1.19041e-06
1.30395e-06
1.41159e-06
1.50614e-06
1.5854e-06
1.64732e-06
1.67768e-06
1.6796e-06
1.66851e-06
1.65164e-06
1.63183e-06
1.60796e-06
1.58628e-06
1.56266e-06
1.5385e-06
1.51454e-06
1.49096e-06
1.46785e-06
1.4453e-06
1.4234e-06
1.40215e-06
1.38148e-06
1.36136e-06
1.34155e-06
1.32186e-06
1.30231e-06
1.28316e-06
1.26292e-06
1.24409e-06
1.2179e-06
1.22025e-06
1.11346e-06
6.64936
7.63371
6.90349
5.60049
4.10124
2.71471
1.58918
0.767582
0.254655
0.0544334
0.0185298
0.00031961
6.10863e-06
6.43829e-05
0.000286686
0.000234024
0.000191649
0.000170537
0.000150084
0.00013067
0.000113611
9.85511e-05
8.52537e-05
7.3548e-05
6.32846e-05
5.42896e-05
4.64377e-05
3.95688e-05
3.35906e-05
2.83993e-05
2.39127e-05
2.00521e-05
1.67466e-05
1.39295e-05
1.15402e-05
9.51881e-06
7.81535e-06
6.38343e-06
5.18533e-06
4.18375e-06
3.35184e-06
2.664e-06
2.09723e-06
1.63357e-06
1.25811e-06
9.56705e-07
7.20349e-07
5.41285e-07
4.1337e-07
3.33572e-07
2.96159e-07
2.87907e-07
2.95618e-07
3.08679e-07
3.21925e-07
3.3293e-07
3.41345e-07
3.46893e-07
3.50522e-07
3.52023e-07
3.52686e-07
3.51851e-07
3.50971e-07
3.49523e-07
3.48126e-07
3.46254e-07
3.45731e-07
3.41648e-07
3.45743e-07
3.32934e-07
3.54192e-07
3.18544e-07
3.93199e-07
3.41739e-07
6.38114
10.2824
9.96676
8.34572
6.42207
4.57931
3.00065
1.7507
0.841248
0.275903
0.0564426
0.0155895
1.93769e-06
4.71977e-06
3.73951e-05
0.000252948
0.000216223
0.000170072
0.000149486
0.000131697
0.000114453
9.91506e-05
8.57663e-05
7.39778e-05
6.36368e-05
5.45786e-05
4.66773e-05
3.97689e-05
3.37549e-05
2.85343e-05
2.40227e-05
2.01419e-05
1.68197e-05
1.39892e-05
1.15895e-05
9.56017e-06
7.85055e-06
6.41372e-06
5.21191e-06
4.20704e-06
3.37178e-06
2.68201e-06
2.11312e-06
1.64768e-06
1.27094e-06
9.68166e-07
7.31111e-07
5.51103e-07
4.22382e-07
3.41454e-07
3.02676e-07
2.92959e-07
2.9949e-07
3.11699e-07
3.24412e-07
3.34993e-07
3.43168e-07
3.48509e-07
3.51988e-07
3.53318e-07
3.53862e-07
3.52868e-07
3.51803e-07
3.50243e-07
3.48656e-07
3.46581e-07
3.4598e-07
3.41426e-07
3.45823e-07
3.31775e-07
3.54688e-07
3.15136e-07
3.94322e-07
3.39374e-07
4.39882
10.0022
11.6393
10.6752
8.78604
6.72045
4.79928
3.15808
1.84762
0.887717
0.291474
0.0583841
0.0136792
0.0034297
4.57927e-06
3.73264e-06
0.000201392
0.000197684
0.00015264
0.000130792
0.000115272
0.000100067
8.638e-05
7.44837e-05
6.40777e-05
5.49447e-05
4.69693e-05
4.00137e-05
3.3957e-05
2.86999e-05
2.41563e-05
2.02492e-05
1.69063e-05
1.40592e-05
1.1646e-05
9.60699e-06
7.88954e-06
6.44683e-06
5.23997e-06
4.23172e-06
3.39254e-06
2.70006e-06
2.12887e-06
1.66144e-06
1.28302e-06
9.7893e-07
7.40964e-07
5.59627e-07
4.301e-07
3.48324e-07
3.08252e-07
2.97419e-07
3.03025e-07
3.14588e-07
3.26773e-07
3.37219e-07
3.45077e-07
3.50337e-07
3.53557e-07
3.54846e-07
3.55072e-07
3.54175e-07
3.52818e-07
3.51036e-07
3.49369e-07
3.46906e-07
3.46417e-07
3.4131e-07
3.45932e-07
3.30697e-07
3.55077e-07
3.11907e-07
3.94803e-07
3.37047e-07
3.07618
8.59067
11.8108
12.1171
10.8237
8.90214
6.86096
4.94958
3.28936
1.94176
0.942755
0.316778
0.0632393
0.0138847
9.43333e-06
3.07887e-07
1.48165e-05
0.000140665
0.000180279
0.000137937
0.000114312
0.000100499
8.7434e-05
7.51897e-05
6.45707e-05
5.53841e-05
4.73482e-05
4.0324e-05
3.42074e-05
2.89038e-05
2.4321e-05
2.03806e-05
1.70103e-05
1.41414e-05
1.17113e-05
9.65972e-06
7.93261e-06
6.48265e-06
5.2698e-06
4.2571e-06
3.41399e-06
2.71831e-06
2.14457e-06
1.67517e-06
1.29505e-06
9.89814e-07
7.50966e-07
5.68667e-07
4.38517e-07
3.56135e-07
3.14901e-07
3.02978e-07
3.07562e-07
3.18369e-07
3.2997e-07
3.40019e-07
3.47513e-07
3.52544e-07
3.55471e-07
3.56599e-07
3.5653e-07
3.5554e-07
3.53912e-07
3.5187e-07
3.50061e-07
3.47238e-07
3.46737e-07
3.41115e-07
3.45923e-07
3.29507e-07
3.55299e-07
3.08573e-07
3.95151e-07
3.3474e-07
2.3684
7.03135
10.912
12.4769
12.1636
10.7861
8.93848
6.97578
5.10297
3.44042
2.06428
1.02601
0.361873
0.0756636
0.0153169
0.00457426
0
1.01012e-05
9.44306e-05
0.000157659
0.000127907
0.000100401
8.68952e-05
7.61502e-05
6.54937e-05
5.59152e-05
4.77244e-05
4.06606e-05
3.44973e-05
2.91373e-05
2.45054e-05
2.05268e-05
1.71257e-05
1.42318e-05
1.17822e-05
9.716e-06
7.97809e-06
6.52012e-06
5.30092e-06
4.28311e-06
3.43602e-06
2.73698e-06
2.16059e-06
1.68922e-06
1.30749e-06
1.0012e-06
7.6153e-07
5.786e-07
4.47985e-07
3.65075e-07
3.22738e-07
3.09642e-07
3.13044e-07
3.2293e-07
3.33852e-07
3.43255e-07
3.5033e-07
3.54979e-07
3.5759e-07
3.58429e-07
3.58098e-07
3.56832e-07
3.54946e-07
3.5264e-07
3.50612e-07
3.4748e-07
3.46841e-07
3.40744e-07
3.45715e-07
3.28139e-07
3.55281e-07
3.05074e-07
3.95341e-07
3.32433e-07
2.02368
5.67302
9.47654
11.8818
12.6028
12.048
10.7137
8.98213
7.11713
5.29568
3.63965
2.23741
1.15423
0.43839
0.101206
0.0184355
0.00621124
5.49682e-05
6.17437e-06
3.25711e-05
0.000121806
0.000120455
9.08397e-05
7.43606e-05
6.52237e-05
5.67486e-05
4.84178e-05
4.10542e-05
3.47789e-05
2.93868e-05
2.47171e-05
2.06927e-05
1.72524e-05
1.43296e-05
1.18588e-05
9.77653e-06
8.02641e-06
6.55947e-06
5.33341e-06
4.31023e-06
3.45897e-06
2.75644e-06
2.17727e-06
1.70385e-06
1.32054e-06
1.01321e-06
7.72741e-07
5.89303e-07
4.583e-07
3.7477e-07
3.31363e-07
3.16959e-07
3.19054e-07
3.27874e-07
3.37972e-07
3.46681e-07
3.53246e-07
3.57448e-07
3.59684e-07
3.60187e-07
3.59555e-07
3.57978e-07
3.55819e-07
3.53241e-07
3.5097e-07
3.47534e-07
3.46722e-07
3.4017e-07
3.45281e-07
3.26602e-07
3.54983e-07
3.01472e-07
3.9523e-07
3.30155e-07
1.91041
4.57579
7.90837
10.6396
12.1642
12.4887
11.8838
10.6537
9.05941
7.30514
5.54672
3.90563
2.47924
1.34452
0.560515
0.150337
0.0275783
0.000923114
0.000876647
1.63579e-06
8.47787e-06
6.37407e-05
0.000109001
8.86556e-05
6.64804e-05
5.52974e-05
4.83277e-05
4.16861e-05
3.52912e-05
2.96813e-05
2.49243e-05
2.08723e-05
1.74025e-05
1.44443e-05
1.19438e-05
9.84131e-06
8.07795e-06
6.60171e-06
5.36822e-06
4.33913e-06
3.48327e-06
2.777e-06
2.19492e-06
1.71938e-06
1.33447e-06
1.02605e-06
7.84813e-07
6.00902e-07
4.69506e-07
3.85261e-07
3.40726e-07
3.24861e-07
3.25507e-07
3.33114e-07
3.42235e-07
3.50211e-07
3.56165e-07
3.59872e-07
3.61669e-07
3.61811e-07
3.60825e-07
3.58943e-07
3.5649e-07
3.53626e-07
3.51113e-07
3.47361e-07
3.46377e-07
3.39391e-07
3.44609e-07
3.24908e-07
3.54388e-07
2.97815e-07
3.94781e-07
3.27899e-07
1.92055
3.712
6.42977
9.07817
11.0448
12.0911
12.2563
11.6981
10.6083
9.16964
7.54223
5.86272
4.24938
2.80473
1.61447
0.745938
0.241174
0.047932
0.0048545
0.00272956
6.00403e-07
3.59815e-06
6.92803e-06
6.49613e-05
8.3061e-05
6.44667e-05
4.88845e-05
4.07788e-05
3.53251e-05
3.01806e-05
2.53198e-05
2.10897e-05
1.75413e-05
1.45616e-05
1.20446e-05
9.92011e-06
8.1366e-06
6.64673e-06
5.40483e-06
4.37006e-06
3.5097e-06
2.79933e-06
2.21398e-06
1.73613e-06
1.34956e-06
1.04009e-06
7.98109e-07
6.13748e-07
4.81885e-07
3.96863e-07
3.51042e-07
3.33527e-07
3.32526e-07
3.38746e-07
3.46746e-07
3.53863e-07
3.59112e-07
3.62252e-07
3.63551e-07
3.63289e-07
3.61918e-07
3.59712e-07
3.56951e-07
3.53783e-07
3.51022e-07
3.46957e-07
3.45798e-07
3.38403e-07
3.43688e-07
3.23054e-07
3.53483e-07
2.94118e-07
3.94009e-07
3.25619e-07
1.95409
3.03615
5.11848
7.44303
9.50754
10.9991
11.8034
11.9348
11.4799
10.5575
9.2949
7.816
6.23828
4.67309
3.22368
1.98008
1.01928
0.396757
0.0994623
0.0156971
1.91354e-05
0.000694232
3.09894e-07
3.92336e-06
1.63048e-05
5.56925e-05
6.06605e-05
4.65346e-05
3.54979e-05
2.94732e-05
2.5332e-05
2.14894e-05
1.78734e-05
1.47322e-05
1.21302e-05
9.9853e-06
8.19821e-06
6.70075e-06
5.44783e-06
4.40375e-06
3.53746e-06
2.82314e-06
2.23491e-06
1.75478e-06
1.36636e-06
1.0557e-06
8.12938e-07
6.28159e-07
4.95767e-07
4.09849e-07
3.62529e-07
3.43131e-07
3.40249e-07
3.44872e-07
3.51582e-07
3.5768e-07
3.62117e-07
3.64604e-07
3.65346e-07
3.64626e-07
3.62841e-07
3.60278e-07
3.57194e-07
3.53712e-07
3.50691e-07
3.46322e-07
3.44975e-07
3.37203e-07
3.42509e-07
3.21047e-07
3.52253e-07
2.90398e-07
3.92918e-07
3.2326e-07
1.8914
2.46507
3.9598