/*--------------------------------*- C++ -*----------------------------------*\
| =========                 |                                                 |
| \\      /  F ield         | OpenFOAM: The Open Source CFD Toolbox           |
|  \\    /   O peration     | Version:  2312                                  |
|   \\  /    A nd           | Website:  www.openfoam.com                      |
|    \\/     M anipulation  |                                                 |
\*---------------------------------------------------------------------------*/
FoamFile
{
    version     2.0;
    format      ascii;
    arch        "LSB;label=32;scalar=64";
    class       volSymmTensorField;
    location    "1000";
    object      turbulenceProperties:devReff;
}
// * * * * * * * * * * * * * * * * * * * * * * * * * * * * * * * * * * * * * //

dimensions      [0 2 -2 0 0 0 0];

internalField   nonuniform List<symmTensor> 
11040
(
(0.018022 0.0950037 -1.70625e-22 -0.027982 1.16732e-20 0.00995998)
(0.0671971 0.0877873 9.64525e-21 -0.0800672 1.35614e-19 0.0128701)
(0.012357 0.00976946 -2.97012e-20 -0.0108555 9.21716e-20 -0.00150152)
(-0.00498679 0.0107397 -7.06513e-20 0.00543507 4.00381e-20 -0.000448284)
(-0.0689942 0.0484974 -2.23087e-20 0.0692254 2.0019e-19 -0.000231207)
(-0.0626601 0.0597081 -3.06297e-19 0.0633614 1.11575e-19 -0.000701324)
(-0.0530168 0.0626604 1.75787e-19 0.0532733 -1.155e-18 -0.000256551)
(-0.0432483 0.0609931 2.44875e-19 0.0433792 -1.69744e-19 -0.000130837)
(-0.0344278 0.0575722 1.05274e-19 0.0345092 -3.05332e-20 -8.13767e-05)
(-0.028189 0.055488 9.81747e-20 0.0281738 1.55995e-19 1.52483e-05)
(-0.0230189 0.0528578 -8.7155e-20 0.0230162 3.7164e-19 2.67955e-06)
(-0.0186679 0.0503153 -1.30474e-19 0.0186358 2.79891e-19 3.20449e-05)
(-0.0150217 0.0480742 2.17546e-20 0.014958 -1.60983e-19 6.37406e-05)
(-0.0120187 0.0462859 2.71716e-20 0.0119556 1.57657e-19 6.30629e-05)
(-0.00938593 0.0447874 -1.22329e-20 0.00929839 1.19626e-20 8.75382e-05)
(-0.00717417 0.0441329 -4.67336e-21 0.00707834 -2.03942e-19 9.58236e-05)
(-0.00520546 0.044332 5.63344e-20 0.00509385 -7.91475e-22 0.00011161)
(-0.00335245 0.0454588 -5.51874e-21 0.00322475 3.70463e-19 0.000127699)
(-0.00148406 0.0473696 -3.19054e-20 0.00134137 3.24083e-21 0.000142695)
(0.000506869 0.0500301 5.16552e-21 -0.000669299 -5.385e-20 0.00016243)
(0.00272524 0.0535247 2.43958e-20 -0.00289694 4.1184e-20 0.000171701)
(0.00503693 0.0577487 -2.67293e-20 -0.00520973 1.24471e-19 0.000172804)
(0.00728739 0.0627186 1.052e-21 -0.00747376 -1.02456e-19 0.000186363)
(0.00969171 0.0684946 1.36879e-20 -0.00988937 2.63384e-19 0.000197663)
(0.0123655 0.075079 -7.99097e-20 -0.0125581 -2.36957e-19 0.000192628)
(0.015368 0.0827687 -4.26924e-20 -0.0155427 -5.5358e-19 0.000174652)
(0.0186814 0.0913071 1.1569e-20 -0.0188252 -2.57771e-19 0.000143815)
(0.0220325 0.0994314 3.45174e-20 -0.0221298 7.36486e-20 9.7341e-05)
(0.0251918 0.106402 -2.33502e-20 -0.0252234 -2.10625e-19 3.15812e-05)
(0.0278453 0.111386 1.43568e-20 -0.0277967 -4.91837e-19 -4.85755e-05)
(0.0296547 0.113514 1.25073e-19 -0.029526 3.53992e-19 -0.000128715)
(0.0303883 0.11203 2.14114e-20 -0.0301811 -2.81386e-20 -0.000207255)
(0.0300007 0.107239 1.09107e-19 -0.0297136 9.94591e-19 -0.000287032)
(0.0287325 0.100744 -9.35886e-20 -0.0283503 6.09134e-19 -0.000382174)
(0.0271847 0.0952886 4.82283e-20 -0.026624 1.02471e-20 -0.000560703)
(0.0206706 0.0752156 1.33044e-19 -0.01999 9.45321e-19 -0.000680649)
(0.00952202 0.0394005 8.43345e-21 -0.00897669 1.80511e-19 -0.00054533)
(0.00343439 0.0247223 -4.01319e-20 -0.00260738 5.52014e-19 -0.000827009)
(-0.0058103 0.00853746 -4.49327e-19 0.00621874 -1.16411e-18 -0.000408439)
(-0.0164235 -0.0297592 2.03328e-21 0.0177606 -9.71601e-19 -0.00133714)
(-0.0599367 -0.0209463 2.03651e-19 0.0668076 5.49123e-20 -0.00687088)
(0.00577441 -0.00597187 5.88178e-22 -0.00414272 -1.72218e-21 -0.00163169)
(0.0169266 0.00178476 2.61896e-20 -0.010186 5.14617e-21 -0.00674059)
(0.0523774 0.0322645 5.73616e-20 -0.0539293 -3.02353e-19 0.00155184)
(0.123484 0.0326407 7.85211e-20 -0.124217 -1.78034e-19 0.000732475)
(0.247327 -0.0212265 8.30734e-20 -0.246903 -4.94927e-19 -0.000423752)
(0.0670334 -0.0489281 5.67833e-19 -0.0665218 -1.20574e-18 -0.000511521)
(0.0177552 -0.0190536 -8.28321e-19 -0.0168486 3.24637e-18 -0.000906597)
(0.0043017 -0.00766165 -8.33255e-19 -0.00448864 2.15111e-18 0.000186946)
(0.00029135 -0.00224746 -7.53341e-20 -0.000407487 -1.54211e-19 0.000116137)
(-0.00127953 0.00129001 -1.04103e-19 0.00116739 4.04873e-20 0.000112143)
(-0.00222865 0.00360526 4.6207e-19 0.0022508 -1.16222e-18 -2.21491e-05)
(-0.00246931 0.00504612 -1.72959e-21 0.00257479 -7.47681e-20 -0.00010548)
(-0.0023046 0.00612975 -1.67156e-19 0.00240748 6.84461e-19 -0.000102885)
(-0.00210292 0.00688834 -1.1362e-19 0.00226137 3.31713e-20 -0.000158452)
(-0.00174646 0.00743436 -4.48493e-20 0.00191705 -1.72731e-19 -0.000170587)
(-0.00137404 0.00793449 1.06875e-20 0.00156988 5.9219e-19 -0.000195839)
(-0.000993843 0.0085126 -1.46906e-20 0.00121409 1.97951e-19 -0.000220252)
(-0.000585865 0.00917048 -9.15074e-21 0.000829336 -5.53725e-19 -0.000243471)
(-0.000141619 0.00982208 -2.37774e-20 0.000413513 -2.56248e-20 -0.000271894)
(0.000359006 0.0104663 -7.41791e-21 -6.9253e-05 8.26575e-20 -0.000289753)
(0.000922125 0.0111158 -1.10081e-20 -0.000622147 -1.52632e-20 -0.000299978)
(0.00152097 0.0118002 3.12888e-20 -0.00121281 -2.77521e-19 -0.000308165)
(0.00206074 0.0123325 2.39081e-20 -0.00173492 3.90488e-19 -0.00032582)
(0.00250515 0.0125057 -4.69049e-20 -0.00217646 -3.56011e-19 -0.00032869)
(0.002812 0.0122665 -6.54096e-21 -0.00250555 2.88692e-19 -0.000306445)
(0.00300195 0.0118574 7.51155e-20 -0.00273559 9.32116e-19 -0.000266356)
(0.00308443 0.0113996 1.40398e-19 -0.00287184 5.1492e-19 -0.000212592)
(0.00294164 0.0106215 -3.44804e-20 -0.00281136 1.43249e-19 -0.000130287)
(0.00252801 0.00955188 -9.23426e-20 -0.0025179 2.85162e-19 -1.01114e-05)
(0.00184966 0.00836709 4.48843e-20 -0.00199186 5.07418e-19 0.000142208)
(0.000971508 0.00743784 -1.12082e-19 -0.00127441 -7.74884e-19 0.000302902)
(-0.00016641 0.00722453 -5.68125e-20 -0.0003128 -1.26307e-18 0.00047921)
(-0.00187699 0.00709606 -1.31468e-19 0.001191 -2.64088e-18 0.000685992)
(-0.00412977 0.00721738 6.97447e-20 0.00322146 -1.31199e-18 0.000908307)
(-0.00697929 0.00763237 -9.39208e-20 0.00574997 1.23221e-19 0.00122932)
(-0.0104956 0.00841371 -4.44043e-19 0.00874907 -4.02116e-18 0.00174649)
(-0.0146823 0.0100545 -6.79364e-20 0.0124219 -3.47834e-19 0.00226037)
(-0.0193951 0.0127219 -5.16067e-19 0.0176444 -2.426e-18 0.00175071)
(-0.0337055 0.0160262 1.25132e-18 0.0299678 5.4151e-18 0.00373771)
(-0.0262812 0.0304834 8.10563e-19 0.0290546 4.81356e-18 -0.00277335)
(-0.121794 -0.112855 -4.05535e-19 0.0746522 -6.69866e-19 0.0471414)
(0.002134 -0.00416461 -5.29226e-22 -0.00239941 -7.61042e-22 0.000265404)
(-0.000392332 -0.00399052 -1.02229e-20 0.000538721 -2.61808e-20 -0.000146389)
(0.00866302 0.00477007 2.08183e-20 -0.00814416 1.03458e-19 -0.00051886)
(0.0440653 0.0189917 6.08561e-20 -0.0447963 9.41595e-20 0.00073101)
(0.283974 0.0491479 -7.596e-21 -0.286245 -3.81761e-20 0.00227165)
(0.384022 -0.0350914 -3.0615e-19 -0.382469 1.19986e-18 -0.00155309)
(0.173884 -0.0979044 2.55392e-20 -0.173139 9.43205e-21 -0.000745516)
(0.0542387 -0.0540562 9.52925e-20 -0.0506231 -2.4697e-18 -0.0036156)
(0.0214811 -0.0285365 -1.68661e-19 -0.021026 2.57595e-20 -0.000455164)
(0.0118549 -0.0176117 2.41313e-19 -0.0120856 -7.04999e-19 0.000230682)
(0.00588467 -0.0104437 -4.44569e-19 -0.00598639 1.04908e-18 0.000101723)
(0.00284556 -0.00625033 7.73404e-19 -0.0028312 -2.10607e-18 -1.43613e-05)
(0.00147864 -0.00296488 -3.99437e-20 -0.00154283 -6.99919e-20 6.4192e-05)
(0.000652587 -0.000719339 1.56465e-19 -0.000661554 -9.24047e-19 8.96689e-06)
(0.00043283 0.000887656 2.48495e-20 -0.000479374 9.66724e-19 4.65441e-05)
(0.000424785 0.00206282 -8.0176e-20 -0.00046377 -3.6953e-19 3.89843e-05)
(0.000578584 0.00285446 -3.45241e-21 -0.000617844 -6.22616e-19 3.92602e-05)
(0.000826671 0.0034141 4.26058e-20 -0.00086727 -4.45265e-19 4.05983e-05)
(0.00110893 0.00379468 1.98921e-20 -0.0011398 -2.52688e-20 3.08714e-05)
(0.00142888 0.00400811 2.64579e-20 -0.00145798 2.81459e-20 2.91024e-05)
(0.00176355 0.00409016 2.75904e-21 -0.00178615 8.53388e-20 2.25927e-05)
(0.00213009 0.00401932 -4.50888e-20 -0.00215783 1.35821e-19 2.77382e-05)
(0.00246524 0.00368054 -3.79212e-20 -0.00249464 -4.48246e-19 2.9395e-05)
(0.00269232 0.00303242 -4.02685e-20 -0.00271802 -1.79942e-19 2.56985e-05)
(0.00274821 0.00217965 8.42187e-20 -0.00276274 -2.82846e-19 1.45327e-05)
(0.0026061 0.00126948 -1.47504e-20 -0.00260617 -2.64311e-19 7.05603e-08)
(0.00222859 0.000441724 -2.30085e-19 -0.00220786 2.68777e-19 -2.07319e-05)
(0.00154966 -0.0001719 -7.91193e-20 -0.00149889 -1.08567e-18 -5.07729e-05)
(0.000506996 -0.000388504 1.93906e-19 -0.000417256 2.68066e-19 -8.97402e-05)
(-0.000977367 -9.12142e-05 2.64516e-19 0.00110549 1.12553e-18 -0.00012812)
(-0.00308873 0.000589685 -1.87093e-19 0.00324291 6.32846e-19 -0.000154175)
(-0.00619289 0.00126911 4.34595e-19 0.00636537 2.61502e-18 -0.00017248)
(-0.0102882 0.00267399 1.82775e-19 0.0104688 8.10023e-19 -0.000180574)
(-0.0154064 0.00495168 -3.99725e-19 0.0155651 9.07571e-19 -0.000158704)
(-0.0216719 0.00826133 -4.81728e-19 0.0217564 -9.56594e-19 -8.45582e-05)
(-0.0294181 0.0129266 3.25664e-19 0.0292542 2.00684e-18 0.000163841)
(-0.038685 0.019701 2.97401e-19 0.0381193 -2.11072e-18 0.000565679)
(-0.0478174 0.0286521 5.40829e-19 0.0480268 1.9247e-18 -0.000209342)
(-0.0751738 0.0390786 -4.32638e-19 0.0714315 -9.56469e-19 0.00374237)
(-0.0647326 0.0849458 2.46703e-20 0.070498 -5.01635e-19 -0.00576533)
(-0.158756 0.00661805 4.54015e-19 0.157247 1.69462e-18 0.00150904)
(0.00198026 -0.00264629 -1.5143e-22 -0.00208206 -7.13501e-22 0.000101806)
(-0.000272639 -0.00294238 -3.94196e-22 8.31966e-05 2.84157e-21 0.000189443)
(-0.000856517 -0.00211823 -1.49514e-20 0.000838188 -3.43375e-20 1.83298e-05)
(0.00327704 0.00147461 -2.00195e-20 -0.00317755 -3.9291e-20 -9.94894e-05)
(0.0645206 0.021336 3.98252e-20 -0.0650373 4.72397e-20 0.000516717)
(0.32894 0.043488 2.44673e-19 -0.332681 8.44318e-21 0.00374012)
(0.494041 -0.0450231 2.58181e-19 -0.492165 -1.39999e-18 -0.00187632)
(0.300248 -0.137794 9.06992e-19 -0.30442 -1.41895e-18 0.00417251)
(0.104331 -0.09463 -4.12307e-19 -0.0982775 1.23014e-18 -0.00605369)
(0.0481853 -0.0577287 2.32613e-19 -0.0466753 4.00959e-19 -0.00150994)
(0.0260506 -0.0359707 -3.5465e-19 -0.0260057 1.12792e-18 -4.48871e-05)
(0.0152102 -0.0257182 -5.83011e-19 -0.0152464 1.26772e-18 3.6186e-05)
(0.00966761 -0.0186646 4.67744e-19 -0.00976707 -9.57202e-19 9.94612e-05)
(0.00613966 -0.0136894 -1.18406e-19 -0.00607337 9.42506e-19 -6.62839e-05)
(0.00436586 -0.0102915 -2.01365e-19 -0.00434624 -1.06315e-18 -1.96181e-05)
(0.00336101 -0.00780127 -1.13025e-19 -0.00333115 -4.59369e-19 -2.98631e-05)
(0.0028718 -0.00620784 5.39633e-20 -0.00284755 2.26783e-19 -2.42481e-05)
(0.00268403 -0.00510388 1.15608e-19 -0.00267551 1.32368e-20 -8.51611e-06)
(0.00262099 -0.00446434 3.13753e-20 -0.00260985 5.39341e-20 -1.11381e-05)
(0.00265723 -0.00419409 -1.22437e-20 -0.00266013 -7.76635e-20 2.89658e-06)
(0.00270982 -0.0042166 -2.75381e-20 -0.00270907 -1.97769e-19 -7.45315e-07)
(0.0028388 -0.00447909 2.68336e-20 -0.00283889 -2.81745e-19 8.35507e-08)
(0.00303218 -0.00503566 2.33266e-20 -0.00303699 -1.27666e-19 4.81001e-06)
(0.00317001 -0.00588969 8.81141e-21 -0.00318131 1.18494e-19 1.13026e-05)
(0.0031459 -0.00685656 -6.89285e-20 -0.0031562 7.12836e-19 1.02931e-05)
(0.00289666 -0.00775705 2.54303e-19 -0.00290602 -8.12971e-19 9.35178e-06)
(0.00232345 -0.008454 1.81821e-19 -0.00233389 -6.26049e-19 1.04421e-05)
(0.00127787 -0.00881658 2.00226e-19 -0.00129141 1.53067e-18 1.35474e-05)
(-0.000428715 -0.00870823 -6.36883e-20 0.000412431 4.07847e-19 1.62838e-05)
(-0.00303063 -0.00802944 -5.60009e-19 0.00301085 -5.97441e-19 1.97839e-05)
(-0.00680906 -0.00669331 1.78797e-19 0.00678491 -1.08136e-18 2.41442e-05)
(-0.0120408 -0.00448733 -4.50695e-19 0.0120124 6.57973e-19 2.84104e-05)
(-0.0188812 -0.000910634 3.98008e-19 0.0188451 -5.58027e-19 3.61287e-05)
(-0.0274855 0.00432629 4.52543e-19 0.0274527 -1.42002e-18 3.28758e-05)
(-0.0380515 0.0115245 4.45891e-19 0.0380459 8.27978e-19 5.55535e-06)
(-0.0511877 0.0211559 4.78327e-19 0.0510947 1.79332e-18 9.30401e-05)
(-0.0670434 0.0345216 3.89682e-19 0.0667152 1.88612e-18 0.000328241)
(-0.0821168 0.0527103 -5.82115e-19 0.0833494 -2.35272e-18 -0.0012326)
(-0.121346 0.0717852 2.94199e-20 0.117266 -8.16714e-19 0.00408022)
(-0.111171 0.152959 -2.00292e-19 0.119212 -1.69211e-18 -0.00804121)
(-0.149588 0.0883466 -4.84998e-19 0.145388 -8.1277e-19 0.0041996)
(0.00155588 -0.00196324 1.39007e-21 -0.00154585 3.34454e-21 -1.0039e-05)
(0.000436822 -0.00224222 -2.26961e-21 -0.000383059 -4.49363e-21 -5.37636e-05)
(-0.000690062 -0.00229158 1.15261e-20 0.000694761 2.343e-20 -4.69942e-06)
(-0.000530345 -0.00110152 1.46413e-20 0.000549798 2.5755e-20 -1.9453e-05)
(0.0016196 0.000481961 -1.49208e-20 -0.00157892 -2.21881e-20 -4.06868e-05)
(0.0595078 0.0155536 3.47063e-20 -0.059669 -1.14035e-20 0.000161193)
(0.313412 0.0306593 -7.3766e-20 -0.316949 -8.99111e-21 0.00353687)
(0.55782 -0.0473932 -2.54228e-19 -0.555675 3.19146e-19 -0.00214536)
(0.446328 -0.168342 4.05296e-19 -0.452668 -1.8188e-19 0.0063397)
(0.188354 -0.152537 9.74939e-21 -0.185177 1.78913e-19 -0.0031765)
(0.0857099 -0.0963151 3.62896e-19 -0.0810779 -2.35381e-18 -0.00463199)
(0.0462374 -0.0620523 -2.58487e-19 -0.0456571 3.99113e-19 -0.000580348)
(0.0284818 -0.0451357 -2.92364e-19 -0.0288742 2.33629e-19 0.000392453)
(0.0181125 -0.0341566 3.38463e-19 -0.0181995 -2.33176e-18 8.69299e-05)
(0.0123065 -0.0274266 2.68543e-19 -0.0123272 1.33695e-19 2.06516e-05)
(0.00888853 -0.0222897 1.69645e-19 -0.00886712 1.78407e-19 -2.14017e-05)
(0.00690337 -0.0190791 -1.57874e-19 -0.00687006 6.32615e-19 -3.33082e-05)
(0.00578183 -0.016858 -1.03312e-20 -0.00577149 1.38845e-19 -1.0347e-05)
(0.00504502 -0.0155659 3.70753e-20 -0.00502092 -6.74522e-20 -2.40951e-05)
(0.0046011 -0.0149537 4.7948e-20 -0.00459554 5.01146e-20 -5.55999e-06)
(0.00426003 -0.0147887 -1.02178e-20 -0.00424569 2.32995e-19 -1.43367e-05)
(0.00412494 -0.0149257 -9.00215e-20 -0.00410992 2.30677e-19 -1.50218e-05)
(0.0041995 -0.0153937 1.23631e-19 -0.0041828 1.76613e-19 -1.67001e-05)
(0.00430679 -0.0162146 1.52321e-19 -0.00429647 4.04569e-19 -1.0315e-05)
(0.00427128 -0.0171808 -1.79613e-19 -0.00426338 -9.9087e-20 -7.90454e-06)
(0.00395234 -0.018104 -1.34574e-19 -0.00394745 2.05586e-18 -4.88768e-06)
(0.00315839 -0.0188079 8.3085e-20 -0.00315633 -3.1597e-20 -2.05883e-06)
(0.0016354 -0.0190897 -2.97503e-19 -0.00163746 -8.37249e-19 2.06545e-06)
(-0.000928339 -0.0187213 -5.06264e-19 0.000921484 -1.6157e-18 6.85516e-06)
(-0.0048833 -0.0174422 3.67531e-19 0.00486939 -6.65293e-19 1.39102e-05)
(-0.0105943 -0.014923 1.22733e-19 0.0105742 1.76855e-18 2.01746e-05)
(-0.0183995 -0.0107341 2.64488e-19 0.0183733 -1.07013e-18 2.62115e-05)
(-0.0285907 -0.00435485 -2.34129e-19 0.0285502 2.97698e-18 4.05118e-05)
(-0.0413999 0.00471308 -9.02611e-19 0.0413577 1.46614e-19 4.2243e-05)
(-0.0570477 0.0169684 -3.37062e-19 0.0570433 6.22847e-19 4.39899e-06)
(-0.0762925 0.0330871 -4.584e-19 0.0761707 7.44815e-19 0.000121851)
(-0.0992464 0.0550408 -6.7269e-20 0.0988067 -3.63319e-20 0.000439717)
(-0.120586 0.0856652 2.24309e-20 0.122292 7.38849e-20 -0.00170554)
(-0.166469 0.115566 -3.20639e-20 0.16143 1.63048e-18 0.00503844)
(-0.163272 0.225282 -3.61726e-20 0.173538 -1.11983e-18 -0.0102661)
(-0.150872 0.174041 6.36498e-19 0.144307 -7.4972e-19 0.00656529)
(0.0011864 -0.0013628 -1.38724e-21 -0.00119581 -2.35939e-21 9.40926e-06)
(0.000456197 -0.00159658 7.09343e-21 -0.000440547 1.15883e-20 -1.56496e-05)
(-0.000184519 -0.00161455 -3.60063e-21 0.000194368 -7.86032e-21 -9.8488e-06)
(-0.000786543 -0.00158941 -3.29713e-21 0.000778197 -8.81114e-21 8.34654e-06)
(-0.000409341 -0.000651398 2.06446e-21 0.000412721 4.97368e-21 -3.37999e-06)
(0.000710531 8.48277e-05 -1.84584e-21 -0.000689564 -1.82671e-21 -2.09672e-05)
(0.0408405 0.00812743 -2.48261e-20 -0.0407525 -2.55282e-20 -8.79656e-05)
(0.251853 0.0182955 -8.07279e-20 -0.253909 9.98038e-20 0.00205585)
(0.565258 -0.0455028 -1.69654e-19 -0.565302 -1.63435e-19 4.3606e-05)
(0.583026 -0.17981 -3.69642e-19 -0.586497 -9.6919e-19 0.00347102)
(0.326106 -0.222002 3.76088e-19 -0.332133 5.64406e-19 0.00602751)
(0.142211 -0.14817 6.04238e-19 -0.134267 -8.31324e-19 -0.00794439)
(0.0763931 -0.101069 -8.07937e-19 -0.0737223 6.21834e-19 -0.00267082)
(0.0466897 -0.0707965 3.52785e-19 -0.0466629 1.08237e-18 -2.68286e-05)
(0.0298256 -0.0552876 1.83846e-20 -0.0301888 4.77796e-19 0.000363192)
(0.0202052 -0.0443844 -2.28211e-19 -0.0203567 -8.59107e-20 0.000151516)
(0.0144702 -0.0377919 1.60493e-19 -0.0144298 -8.97645e-19 -4.03744e-05)
(0.0111804 -0.0332249 -3.41829e-20 -0.0111703 5.83978e-19 -1.00716e-05)
(0.00902274 -0.0304083 7.05636e-20 -0.00898683 -1.11065e-19 -3.59124e-05)
(0.00770163 -0.0289121 4.68612e-20 -0.00770495 2.03516e-19 3.32559e-06)
(0.00675685 -0.0282248 -6.3133e-20 -0.00674551 -2.93527e-19 -1.13386e-05)
(0.00628764 -0.0280508 2.99383e-20 -0.00628317 1.19174e-20 -4.46629e-06)
(0.0062417 -0.0283574 1.41282e-20 -0.00623278 1.01789e-19 -8.92443e-06)
(0.0063473 -0.0291815 -2.96791e-19 -0.00634292 -3.41858e-19 -4.37349e-06)
(0.00634051 -0.0302623 3.22927e-19 -0.00633532 -8.04603e-19 -5.19039e-06)
(0.00598657 -0.0313629 4.4684e-20 -0.00598128 -4.31359e-19 -5.28689e-06)
(0.00499301 -0.0322178 -5.38123e-19 -0.004988 -4.323e-19 -5.01359e-06)
(0.00298606 -0.0324916 5.28617e-20 -0.00298237 -9.75114e-19 -3.69146e-06)
(-0.000478375 -0.0317894 8.50359e-19 0.00047883 -1.18838e-19 -4.55833e-07)
(-0.00587849 -0.0296568 3.38659e-19 0.00587084 1.42805e-18 7.65075e-06)
(-0.0136953 -0.025544 -4.13623e-19 0.0136804 -7.80056e-19 1.49761e-05)
(-0.0243764 -0.0188275 -4.96809e-19 0.024357 6.38865e-19 1.9372e-05)
(-0.0383231 -0.00882904 -2.14371e-19 0.0382859 -3.16792e-18 3.7213e-05)
(-0.0558122 0.00520926 7.80195e-19 0.055771 -1.97363e-18 4.12023e-05)
(-0.0770129 0.024041 6.27333e-19 0.0770181 -1.7989e-18 -5.20946e-06)
(-0.102644 0.0485507 -1.34744e-19 0.102491 -6.41338e-20 0.00015367)
(-0.132499 0.0813738 1.39607e-19 0.13199 1.44943e-18 0.000509156)
(-0.159598 0.126859 4.1897e-20 0.161584 -8.20621e-19 -0.00198585)
(-0.206738 0.170643 -2.45853e-19 0.201147 7.51477e-19 0.00559061)
(-0.213836 0.29706 -5.53024e-19 0.224833 1.78245e-18 -0.0109968)
(-0.165659 0.268527 -5.39098e-19 0.159204 -8.88733e-19 0.00645432)
(0.000917415 -0.000928182 -3.34276e-22 -0.000923194 -6.16139e-22 5.77805e-06)
(0.000456925 -0.00116167 7.76916e-22 -0.000457093 9.15362e-22 1.68549e-07)
(2.98847e-05 -0.00117523 -3.69309e-21 -2.77712e-05 -4.92182e-21 -2.11349e-06)
(-0.000382301 -0.00118181 -5.66585e-21 0.000386294 -7.10521e-21 -3.99294e-06)
(-0.000717153 -0.00108217 -2.02784e-21 0.00071331 -2.36891e-21 3.8426e-06)
(-0.000389981 -0.000479503 4.98792e-21 0.000388917 6.90728e-21 1.06441e-06)
(0.000287749 -7.72896e-05 -1.38918e-21 -0.00027678 -2.10306e-21 -1.09693e-05)
(0.0189081 0.00253868 2.014e-20 -0.0187945 2.21816e-20 -0.000113547)
(0.169804 0.00822138 2.42084e-19 -0.170449 2.33207e-19 0.000644985)
(0.491723 -0.0394185 -1.71699e-19 -0.493849 3.92009e-19 0.00212617)
(0.669432 -0.164762 -2.7453e-19 -0.667552 6.49952e-19 -0.00188064)
(0.503664 -0.273651 2.74451e-19 -0.513968 -1.07185e-18 0.0103035)
(0.245705 -0.231446 4.39542e-19 -0.244854 1.32429e-18 -0.00085092)
(0.120865 -0.151953 -7.86282e-19 -0.113128 -2.97695e-19 -0.00773735)
(0.0713182 -0.108219 3.33734e-19 -0.0697918 -1.34495e-18 -0.00152644)
(0.0466092 -0.0826369 -2.23052e-19 -0.0470036 7.71031e-19 0.000394384)
(0.0310612 -0.0675962 1.3851e-19 -0.0313522 7.56575e-19 0.000291045)
(0.0219663 -0.057504 1.58455e-19 -0.0221268 3.89693e-19 0.000160469)
(0.0162817 -0.0511614 -8.2595e-20 -0.0162284 3.44379e-19 -5.32712e-05)
(0.0129605 -0.0476148 9.1938e-21 -0.0129524 -9.9679e-19 -8.15373e-06)
(0.0107903 -0.0457547 2.17314e-20 -0.0107507 4.25358e-19 -3.95793e-05)
(0.00972325 -0.0449937 -1.31236e-19 -0.00971079 -8.41505e-21 -1.24584e-05)
(0.00947537 -0.0450914 1.23609e-19 -0.00946219 -4.79e-19 -1.31804e-05)
(0.00958848 -0.0460216 2.04316e-19 -0.0095853 -7.09605e-20 -3.18105e-06)
(0.00967587 -0.0473877 -1.79252e-19 -0.00967473 1.03566e-18 -1.14799e-06)
(0.0093788 -0.0488492 -3.24252e-19 -0.00937794 -9.09937e-19 -8.60441e-07)
(0.00829384 -0.050009 4.12723e-19 -0.00829274 -5.43096e-19 -1.09679e-06)
(0.00591864 -0.0503523 2.0942e-19 -0.0059166 1.64181e-18 -2.04102e-06)
(0.00166067 -0.049261 1.44602e-19 -0.00166013 1.79877e-18 -5.40171e-07)
(-0.00510384 -0.0460597 -2.04335e-19 0.00509643 -3.26989e-19 7.41108e-06)
(-0.0149892 -0.0399503 -2.02753e-20 0.0149732 -1.18759e-18 1.59942e-05)
(-0.0285569 -0.0300663 -4.05833e-19 0.028538 -3.57002e-19 1.89296e-05)
(-0.0462812 -0.0154912 -1.9277e-19 0.0462424 1.49136e-18 3.87941e-05)
(-0.0684283 0.00482086 9.4785e-20 0.0683857 2.29117e-18 4.26132e-05)
(-0.0950082 0.0318916 1.34784e-18 0.0950172 7.61048e-19 -8.99446e-06)
(-0.126433 0.0667499 2.23421e-19 0.12625 -8.49286e-19 0.000182935)
(-0.16182 0.112419 -1.57319e-18 0.161343 -7.46602e-19 0.000476535)
(-0.193151 0.173542 2.07142e-20 0.195122 -2.12263e-19 -0.00197064)
(-0.236979 0.233526 -1.89388e-20 0.231676 -1.87917e-18 0.00530371)
(-0.252792 0.365586 -1.3535e-19 0.262769 6.01903e-19 -0.00997739)
(-0.185507 0.366567 4.3274e-19 0.181962 1.59796e-18 0.00354484)
(0.000696073 -0.000648846 -6.90036e-23 -0.000702024 -1.37363e-23 5.95145e-06)
(0.000424099 -0.000830976 -1.41764e-21 -0.000423041 -1.93061e-21 -1.05757e-06)
(0.000135425 -0.000908274 1.37313e-21 -0.000133849 1.85775e-21 -1.57574e-06)
(-0.000138451 -0.00087272 6.33996e-21 0.000141841 8.49138e-21 -3.38966e-06)
(-0.000414875 -0.000849127 1.1969e-21 0.000420099 1.66562e-21 -5.22407e-06)
(-0.000634925 -0.000776677 1.07854e-21 0.000633983 5.72288e-22 9.41667e-07)
(-0.000378164 -0.000377465 -7.64287e-21 0.000375406 -8.4279e-21 2.75855e-06)
(1.92612e-05 -0.0001606 -3.46024e-22 -1.4895e-05 -2.35893e-22 -4.36617e-06)
(0.00521294 0.000217064 -1.10842e-20 -0.00515812 -1.59792e-20 -5.48227e-05)
(0.0920229 0.00175647 1.74867e-19 -0.0919965 1.97191e-19 -2.6384e-05)
(0.355047 -0.0282152 -2.80173e-19 -0.356551 -6.89946e-19 0.00150413)
(0.657066 -0.138135 -1.04181e-19 -0.656372 8.55668e-19 -0.00069355)
(0.666571 -0.280093 1.45861e-19 -0.670262 -1.02698e-18 0.00369114)
(0.415382 -0.320993 -3.53002e-19 -0.425764 -3.92014e-19 0.0103814)
(0.200944 -0.234176 9.3632e-19 -0.19496 -2.75389e-19 -0.00598346)
(0.108497 -0.160917 3.83446e-19 -0.102038 8.31785e-19 -0.00645839)
(0.068672 -0.119755 -3.50895e-19 -0.0678054 5.15459e-19 -0.000866512)
(0.0463893 -0.0971356 -3.8096e-19 -0.0470251 4.38888e-19 0.000635848)
(0.0320068 -0.0831222 -6.12415e-19 -0.032313 -3.63104e-20 0.000306218)
(0.0232484 -0.074538 4.79153e-19 -0.0234086 -6.08161e-19 0.000160263)
(0.0178523 -0.0696555 1.92868e-19 -0.0177863 8.42065e-19 -6.60058e-05)
(0.0152555 -0.0674953 -3.51164e-19 -0.0152113 -2.0503e-19 -4.41537e-05)
(0.014414 -0.0670166 1.23204e-19 -0.0143647 3.53403e-19 -4.92615e-05)
(0.0144366 -0.0680111 9.23898e-20 -0.0144065 2.34464e-19 -3.00423e-05)
(0.0146988 -0.0697995 1.75102e-20 -0.0146824 -3.76307e-19 -1.64838e-05)
(0.0146427 -0.0718496 -2.35205e-20 -0.0146348 5.29869e-19 -7.93238e-06)
(0.0137205 -0.073563 3.37721e-19 -0.0137227 1.37765e-18 2.26349e-06)
(0.0112862 -0.0741757 3.07947e-19 -0.0112959 -5.45947e-19 9.64672e-06)
(0.0065817 -0.0727391 -4.54495e-19 -0.00659554 3.86695e-20 1.38317e-05)
(-0.00116162 -0.0683321 -9.88702e-19 0.00114156 -1.14452e-18 2.00533e-05)
(-0.0126907 -0.0598621 2.5154e-19 0.0126618 7.25386e-20 2.88947e-05)
(-0.0286551 -0.0461626 5.6658e-19 0.0286243 -1.05426e-18 3.08592e-05)
(-0.0495475 -0.0260403 6.30964e-19 0.0494982 3.29489e-19 4.93524e-05)
(-0.0755443 0.00181764 -4.24394e-19 0.0754927 -1.7515e-19 5.16895e-05)
(-0.106368 0.0386308 -7.68455e-19 0.106362 1.52091e-18 5.16435e-06)
(-0.141833 0.0854207 -6.10266e-19 0.141621 -1.43282e-18 0.000211986)
(-0.180115 0.145023 9.66133e-19 0.179737 -2.1977e-19 0.000377754)
(-0.212953 0.220798 3.06445e-20 0.214578 3.65317e-19 -0.00162528)
(-0.249804 0.297182 2.01933e-19 0.245695 -3.54389e-19 0.00410911)
(-0.268077 0.424845 -1.52588e-19 0.275011 -8.3346e-19 -0.00693457)
(-0.198591 0.453964 -4.54751e-19 0.19992 5.40599e-19 -0.00132876)
(0.00053082 -0.000460897 -2.22641e-22 -0.000534963 -7.50698e-23 4.14218e-06)
(0.000359653 -0.000594434 -1.19159e-21 -0.000359022 -1.85591e-21 -6.31124e-07)
(0.000178148 -0.000672873 4.98402e-21 -0.000177803 5.67629e-21 -3.45495e-07)
(-1.43572e-05 -0.000689804 -6.69514e-22 1.42605e-05 -8.53025e-22 9.67581e-08)
(-0.000194426 -0.00063582 1.78055e-21 0.000196088 1.65487e-21 -1.66172e-06)
(-0.000393094 -0.000619706 -1.60665e-21 0.000397475 -1.46273e-21 -4.38118e-06)
(-0.000510269 -0.000523444 3.91328e-21 0.000511432 5.2445e-21 -1.16372e-06)
(-0.000358462 -0.000299844 3.09135e-21 0.000356163 2.59269e-21 2.29882e-06)
(-0.00015541 -0.000194563 5.3019e-23 0.000155685 9.50406e-22 -2.75712e-07)
(0.000390419 -6.43379e-05 4.24973e-21 -0.000384648 3.76938e-21 -5.77133e-06)
(0.0356281 -0.000864568 -5.15906e-21 -0.0354821 5.37379e-21 -0.000145989)
(0.204641 -0.0176777 -3.23448e-19 -0.204967 -2.1771e-19 0.000325328)
(0.523312 -0.0993011 2.00969e-19 -0.524387 -3.97002e-19 0.00107547)
(0.734208 -0.245387 -4.91288e-19 -0.732416 9.29882e-19 -0.0017921)
(0.617972 -0.366752 -2.55902e-19 -0.627297 -9.32747e-19 0.00932508)
(0.351327 -0.34669 5.47737e-19 -0.358849 7.44187e-19 0.00752155)
(0.176276 -0.243765 3.40443e-19 -0.167907 -1.54601e-18 -0.00836971)
(0.101283 -0.174791 1.64376e-19 -0.0955488 5.75567e-19 -0.00573427)
(0.067141 -0.136417 -7.34744e-19 -0.0666596 -1.12304e-18 -0.000481386)
(0.0461041 -0.116021 2.97843e-19 -0.0468932 1.18931e-18 0.000789098)
(0.0325538 -0.104387 7.40695e-20 -0.0328972 -8.75159e-19 0.000343373)
(0.0253762 -0.0987155 -3.27509e-19 -0.0255075 4.29734e-19 0.000131236)
(0.022367 -0.0965896 2.45756e-19 -0.0223058 5.32965e-21 -6.11923e-05)
(0.0216299 -0.0971979 -4.2454e-20 -0.0215458 2.70708e-20 -8.40468e-05)
(0.0219449 -0.0993421 -8.94061e-20 -0.0218839 7.36191e-19 -6.1009e-05)
(0.0223193 -0.102023 1.08763e-19 -0.0222744 -1.75342e-19 -4.49302e-05)
(0.0219694 -0.104371 -7.65609e-19 -0.021943 6.22765e-21 -2.63141e-05)
(0.0200726 -0.105394 -3.74111e-19 -0.0200648 1.90679e-19 -7.79973e-06)
(0.0156884 -0.103834 -1.9405e-19 -0.0157022 -1.21866e-18 1.38702e-05)
(0.00787712 -0.0983137 9.4732e-19 -0.00791919 1.01154e-19 4.20665e-05)
(-0.00422485 -0.087359 1.59486e-19 0.00415387 8.16438e-19 7.09784e-05)
(-0.0213196 -0.069428 2.9035e-19 0.0212385 9.02554e-19 8.11424e-05)
(-0.0438501 -0.043054 -6.01342e-19 0.0437614 2.68341e-19 8.87641e-05)
(-0.0718022 -0.00677499 4.93367e-19 0.0717193 -1.19682e-18 8.28487e-05)
(-0.104494 0.0406457 2.81594e-19 0.10445 -1.41942e-19 4.40645e-05)
(-0.140931 0.0999546 1.01633e-18 0.140702 3.16137e-19 0.000229139)
(-0.178317 0.172989 -1.48893e-18 0.178049 4.61416e-19 0.000268129)
(-0.208879 0.260712 -1.36605e-19 0.210007 1.09994e-19 -0.0011274)
(-0.23608 0.349736 2.90798e-19 0.233661 4.59039e-19 0.00241853)
(-0.25127 0.465552 4.6899e-19 0.254421 1.36745e-20 -0.00315037)
(-0.192537 0.512543 9.10872e-20 0.198665 -1.18837e-18 -0.00612871)
(0.00040362 -0.000331306 -8.75681e-22 -0.00040657 -1.01908e-21 2.94989e-06)
(0.000292378 -0.000428409 3.54596e-21 -0.000292483 3.70782e-21 1.05515e-07)
(0.000175839 -0.000492012 -8.3074e-22 -0.000175862 -7.34749e-22 2.30245e-08)
(4.90053e-05 -0.000525812 -6.5253e-21 -4.91656e-05 -6.88939e-21 1.60222e-07)
(-8.12376e-05 -0.000517639 -6.14631e-22 8.1027e-05 -8.23868e-22 2.10564e-07)
(-0.00020052 -0.000467245 6.45346e-21 0.000201365 6.90916e-21 -8.44656e-07)
(-0.000338822 -0.000442837 -1.65298e-21 0.000341861 -2.17927e-21 -3.0384e-06)
(-0.000398526 -0.000350348 -1.4452e-20 0.000400589 -1.43835e-20 -2.06335e-06)
(-0.000324529 -0.000230496 1.03675e-20 0.000323544 1.00272e-20 9.84276e-07)
(-0.000231981 -0.000177148 5.239e-22 0.000230321 -5.00464e-22 1.65907e-06)
(0.000209485 -0.000360395 -1.50487e-21 -0.000202924 -2.48543e-21 -6.561e-06)
(0.00777302 -0.000892419 -9.37918e-21 -0.00771073 -5.3195e-21 -6.2293e-05)
(0.0891202 -0.00959319 -1.91911e-19 -0.0889811 -1.26681e-19 -0.000139108)
(0.327211 -0.0591675 1.74507e-19 -0.327809 -1.34447e-19 0.000597407)
(0.642545 -0.184844 -6.43342e-19 -0.642205 6.76033e-19 -0.000340235)
(0.754736 -0.34207 5.98763e-19 -0.754342 -3.98783e-19 -0.000394417)
(0.568319 -0.429284 -5.03377e-19 -0.5807 7.54244e-19 0.0123803)
(0.313609 -0.371349 -1.08605e-19 -0.318636 -1.80861e-19 0.00502776)
(0.163181 -0.263406 -2.39607e-19 -0.153957 -3.56958e-19 -0.00922326)
(0.0969779 -0.196023 2.88372e-19 -0.0912322 -1.03649e-18 -0.00574563)
(0.0657498 -0.161018 4.53116e-19 -0.0653079 3.27663e-19 -0.000441917)
(0.0476323 -0.144875 -2.4287e-19 -0.0485513 -9.94894e-19 0.000918974)
(0.0379671 -0.137857 -2.26257e-19 -0.0385138 4.4785e-19 0.000546713)
(0.0336825 -0.136411 7.02144e-19 -0.0338876 -5.84113e-19 0.000205121)
(0.032634 -0.138268 -4.12439e-19 -0.0326149 4.92183e-20 -1.91092e-05)
(0.0331202 -0.141766 -5.63839e-19 -0.0330046 -3.686e-19 -0.000115595)
(0.0337726 -0.14531 1.00172e-18 -0.0336654 -1.41477e-18 -0.000107215)
(0.0332918 -0.147124 -2.29842e-20 -0.0332251 1.06763e-18 -6.67784e-05)
(0.0304296 -0.145498 1.15862e-22 -0.0304082 -6.466e-20 -2.14371e-05)
(0.0241111 -0.138826 -5.99984e-19 -0.0241294 1.05251e-18 1.83114e-05)
(0.0133969 -0.125388 6.48914e-20 -0.0134581 -6.34902e-19 6.11774e-05)
(-0.00247361 -0.103185 -1.28039e-20 0.00236623 3.25991e-19 0.000107379)
(-0.0238737 -0.0704388 -6.81308e-19 0.02372 -5.74584e-19 0.000153672)
(-0.0505365 -0.0256818 3.67453e-19 0.0503475 1.71137e-18 0.000188952)
(-0.0813336 0.0320712 -5.19318e-19 0.0811537 2.81056e-19 0.000179958)
(-0.114456 0.102906 -4.88884e-19 0.11414 1.85133e-21 0.000316439)
(-0.1464 0.186838 6.9368e-19 0.146131 -1.83954e-18 0.000268956)
(-0.170449 0.28203 -7.14863e-20 0.171104 7.64529e-19 -0.000655629)