/*--------------------------------*- C++ -*----------------------------------*\
| =========                 |                                                 |
| \\      /  F ield         | OpenFOAM: The Open Source CFD Toolbox           |
|  \\    /   O peration     | Version:  2312                                  |
|   \\  /    A nd           | Website:  www.openfoam.com                      |
|    \\/     M anipulation  |                                                 |
\*---------------------------------------------------------------------------*/
FoamFile
{
    version     2.0;
    format      ascii;
    arch        "LSB;label=32;scalar=64";
    class       volScalarField;
    location    "1000";
    object      turbulenceProperties:L;
}
// * * * * * * * * * * * * * * * * * * * * * * * * * * * * * * * * * * * * * //

dimensions      [0 1 0 0 0 0 0];

internalField   nonuniform List<scalar> 
11040
(
0.000441934
0.000483805
0.000868933
0.00141986
0.00137018
0.00130653
0.00127968
0.00127202
0.00125352
0.00124443
0.00123244
0.00122323
0.00121261
0.00120442
0.00119627
0.00119122
0.00118996
0.00119146
0.00119432
0.00119794
0.00120268
0.00120906
0.00121587
0.0012218
0.00122827
0.00123986
0.00125784
0.00127855
0.0013025
0.00133061
0.00136418
0.00140485
0.00145823
0.00154485
0.0017087
0.00183868
0.00182342
0.00243347
0.00410934
0.00247591
0.00232775
0.00117597
0.00105428
0.00066797
0.000879843
0.0024386
0.00440255
0.00694815
0.0109356
0.0187711
0.0195435
0.0115665
0.00928011
0.0079489
0.00710887
0.00648039
0.00602516
0.00570583
0.00549745
0.00536409
0.00527475
0.00522386
0.00520252
0.0052223
0.00530259
0.00547282
0.00582348
0.00642835
0.00725817
0.00838259
0.00985613
0.0115468
0.0129207
0.0141012
0.0146258
0.0145167
0.0139675
0.0132111
0.0127408
0.0112345
0.0113582
0.00796008
0.00149708
0.00161353
0.00129486
0.000825082
0.00156095
0.00313059
0.00533969
0.00838085
0.0106976
0.0128031
0.0155433
0.0190922
0.0253528
0.0440786
0.0408529
0.0266729
0.0217474
0.0191458
0.0176893
0.0169201
0.0166681
0.0169005
0.0178469
0.0197575
0.0228173
0.027256
0.0337282
0.0449445
0.0779413
0.0654628
0.0413028
0.0321567
0.0272082
0.024117
0.0219868
0.0203641
0.0191167
0.0185087
0.0168513
0.0161925
0.0175877
0.00177081
0.00190773
0.00215782
0.00173659
0.00117847
0.00208577
0.00372598
0.00594355
0.0095663
0.0123778
0.0146982
0.0167594
0.0185321
0.0207029
0.0225556
0.0245249
0.0262183
0.0275866
0.0285103
0.0288499
0.0288829
0.0287292
0.0284308
0.0282489
0.0285875
0.0296183
0.0314512
0.0342249
0.0380165
0.0421123
0.0438207
0.0413525
0.0372133
0.0333835
0.0303218
0.0278683
0.0259614
0.0249249
0.0231628
0.0218311
0.0286754
0.00204991
0.00215595
0.0020925
0.00295207
0.00255271
0.00152558
0.00254336
0.0041954
0.00652632
0.0100607
0.0138964
0.0170948
0.0191262
0.021297
0.0228415
0.0242413
0.0253487
0.0261511
0.0267194
0.0270748
0.0273936
0.0278351
0.0284619
0.0293109
0.0305593
0.0323317
0.0347461
0.0379515
0.042083
0.0469586
0.0511685
0.0518151
0.048432
0.0438057
0.039679
0.0362949
0.0336353
0.0320272
0.0303731
0.0283983
0.037694
0.00241227
0.00251808
0.0025502
0.00242958
0.00454374
0.00562503
0.0018145
0.00293177
0.00457644
0.00700387
0.0101972
0.0150136
0.0189904
0.0223943
0.0245897
0.0264501
0.0279842
0.0290862
0.0299089
0.030497
0.0310042
0.031618
0.0325029
0.0336921
0.0353177
0.0374931
0.0403469
0.0440571
0.0488499
0.0548381
0.0612182
0.0647304
0.0622362
0.0564393
0.0507686
0.0461014
0.0424587
0.0400979
0.0385376
0.036154
0.0456194
0.00283838
0.00290363
0.00299542
0.0029053
0.00285391
0.00764976
0.0639972
0.00198762
0.00323487
0.00488712
0.0072863
0.0104199
0.0149449
0.0204568
0.0248989
0.0283829
0.0309647
0.0328208
0.0343293
0.0354466
0.0363064
0.0370805
0.0380916
0.0394381
0.0412639
0.0437074
0.046922
0.0511186
0.0566017
0.0637545
0.072454
0.0799113
0.0798005
0.072648
0.0646316
0.0580496
0.0530168
0.0496493
0.0479358
0.0453862
0.0541487
0.00332246
0.00335992
0.00338577
0.00345333
0.00332499
0.00324211
0.0255453
0.510243
0.00224871
0.00343313
0.00512689
0.00740897
0.0105777
0.0146172
0.0205261
0.0265699
0.0315436
0.0353649
0.0384243
0.0406357
0.0423269
0.0435713
0.0448096
0.0462911
0.0482222
0.0508116
0.0542678
0.0588517
0.0649163
0.073085
0.0840002
0.0966471
0.102828
0.0951767
0.0832962
0.0735198
0.0663084
0.0614794
0.0591453
0.0566654
0.0643359
0.00386573
0.00389328
0.00388948
0.00390587
0.00398289
0.00376305
0.00382588
0.0142254
0.0131113
0.00852715
0.00344011
0.00525259
0.00747076
0.0105
0.0144475
0.0195996
0.0267417
0.0335283
0.0391749
0.043658
0.0472596
0.0498352
0.0519595
0.0539865
0.05624
0.059008
0.0625994
0.0673876
0.0738221
0.0826495
0.0951423
0.112825
0.131969
0.130481
0.111569
0.0954242
0.0842626
0.0770247
0.0733274
0.0708463
0.0772994
0.00448547
0.00450543
0.00448906
0.00446495
0.00448335
0.00455258
0.00431507
0.00452583
0.00930189
0.037459
0.0058361
0.00324502
0.00523822
0.0074755
0.0103026
0.0141096
0.0188854
0.0252391
0.0336356
0.0415667
0.0481224
0.0531596
0.0571914
0.0606589
0.0640267
0.0676513
0.0718629
0.0770608
0.083765
0.0928435
0.105873
0.125887
0.158769
0.193864
0.16552
0.131573
0.11132
0.099277
0.092868
0.0897291
0.0947556
0.00519335
0.00520774
0.00518172
0.00514136
0.00510569
0.0051281
0.00516471
0.00501135
0.00501202
0.0073213
0.0503084
0.0132243
0.0154789
0.00485565
0.00729878
0.010052
0.0135512
0.0181577
0.0238561
0.0314755
0.0413451
0.0504551
0.057484
0.0632293
0.0684769
0.073648
0.0791564
0.0854763
0.0931092
0.102777
0.115753
0.134716
0.166788
0.240276
0.37652
0.211394
0.158993
0.134829
0.122624
0.11716
0.120011
0.00600687
0.00601586
0.00598695
0.00593067
0.00587308
0.0058286
0.00583683
0.00586784
0.00578303
0.00566778
0.00663234
0.0841856
0.113357
0.00684845
0.00436226
0.00685174
0.00966692
0.0129568
0.0171545
0.0226119
0.0293639
0.0379071
0.0481479
0.0581877
0.0667537
0.0740692
0.0811215
0.0887151
0.0973299
0.107531
0.120198
0.136931
0.160946
0.200131
0.277944
0.34938
0.246103
0.194293
0.170375
0.160128
0.159978
0.00694586
0.00694884
0.00691892
0.00685244
0.00677209
0.00669822
0.00664123
0.00662643
0.00665081
0.00661864
0.00644807
0.00690914
0.0182079
0.100262
0.023601
0.00832825
0.0058383
0.00897858
0.0122482
0.0161124
0.0210414
0.0271999
0.0342324
0.0423532
0.0522291
0.0633374
0.074375
0.0846222
0.0943572
0.10452
0.116067
0.12986
0.146825
0.167983
0.193599
0.219567
0.232643
0.226175
0.213151
0.205988
0.210464
0.00803492
0.00803043
0.00800064
0.00792637
0.00782584
0.00772282
0.00763028
0.00755454
0.00751349
0.00752058
0.007521
0.00735149
0.00745017
0.0103093
0.24136
0.403588
0.0119856
0.0101496
0.00770159
0.011209
0.014991
0.0192479
0.0242446
0.0302995
0.0372866
0.0450133
0.0539151
0.0645669
0.0768205
0.0899439
0.103199
0.116279
0.129338
0.142666
0.156067
0.168702
0.179169
0.186526
0.190812
0.194243
0.204187
0.00930499
0.00929088
0.00926135
0.00917956
0.00906006
0.00892856
0.00880018
0.00868345
0.0085839
0.00851261
0.00849424
0.0084889
0.00836953
0.00832677
0.00887124
0.0205148
0.103781
2.20377
0.00874108
0.0124066
0.00949461
0.0132984
0.0170629
0.0211976
0.0259384
0.0315606
0.0382115
0.0457642
0.0540161
0.0631259
0.0735353
0.0854947
0.0987457
0.112528
0.125712
0.137158
0.14613
0.152901
0.158101
0.162193
0.169573
0.0107938
0.0107686
0.0107391
0.0106495
0.0105104
0.0103506
0.0101869
0.0100277
0.00988057
0.00975209
0.00964896
0.00959292
0.00955784
0.00951585
0.00932565
0.00958015
0.0109917
0.0724074
0.219519
6.38119
0.00842186
0.0136347
0.00967899
0.0138382
0.0176489
0.0216734
0.0260694
0.0310867
0.0369207
0.0436821
0.0513111
0.059573
0.0682315
0.0772412
0.0866295
0.0963326
0.10607
0.11552
0.124131
0.131076
0.138431
0.0125306
0.0124938
0.0124632
0.0123642
0.012204
0.0120153
0.0118161
0.0116156
0.0114214
0.0112413
0.0110808
0.0109451
0.0108415
0.0107816
0.0107101
0.0106009
0.010445
0.0110507
0.0148069
0.198563
0.335781
8.23218
0.0165666
0.00975983
0.0102938
0.0127284
0.0160346
0.0200745
0.0242156
0.0286858
0.033634
0.0391619
0.0452956
0.052015
0.059197
0.0666423
0.0740851
0.0814052
0.0884105
0.094719
0.101294
0.0144771
0.014427
0.0143913
0.0142777
0.0140919
0.0138704
0.013633
0.0133895
0.0131488
0.0129187
0.0127057
0.0125138
0.0123452
0.0122041
0.012102
0.0120164
0.0119192
0.0117192
0.0116838
0.0125186
0.0181579
0.249011
0.36434
2.95816
0.0890955
0.0135261
0.00904191
0.0160702
0.0102483
0.0137545
0.0187421
0.0233031
0.0278448
0.0326206
0.0376513
0.0429499
0.0484515
0.0541676
0.0600076
0.0656931
0.0717405
0.0165714
0.0165053
0.0164617
0.0163299
0.0161151
0.0158578
0.0155791
0.0152889
0.0149972
0.0147138
0.0144458
0.0141984
0.0139746
0.0137749
0.0136029
0.0134588
0.0133538
0.0132363
0.0130884
0.0129055
0.0129581
0.0140777
0.0178738
0.0863274
0.2682
0.812355
5.14016
0
0.162964
0.0166154
0.00950757
0.0156814
0.172249
0.0126273
0.0163516
0.0221011
0.0270781
0.0318914
0.036667
0.0413186
0.0462645
0.0187967
0.018715
0.0186625
0.0185108
0.0182659
0.0179719
0.0176512
0.0173147
0.0169727
0.0166363
0.0163131
0.0160084
0.0157264
0.0154699
0.0152402
0.0150366
0.0148617
0.0147161
0.0145939
0.0144492
0.0142665
0.0141244
0.0141496
0.0149585
0.0175007
0.0238609
0.135863
0.349544
0.897024
1.469
13.3062
0
4.54681
0.099226
0.0183565
0.0100809
0.0146734
0.0283302
0.0505305
0.0151648
0.0184766
0.0211776
0.0210809
0.0210179
0.0208446
0.0205676
0.0202347
0.01987
0.0194853
0.0190925
0.018703
0.0183257
0.0179656
0.0176272
0.0173138
0.0170275
0.0167691
0.016538
0.0163342
0.0161587
0.0160083
0.0158719
0.015706
0.0155337
0.0153299
0.0153353
0.0155313
0.0164307
0.0186997
0.0237388
0.0359571
0.309253
0.51879
1.04514
1.43979
2.31468
10.2533
0
0
0
0.567187
0.0264661
0.0237319
0.0236202
0.0235446
0.023347
0.0230357
0.0226616
0.0222504
0.0218154
0.0213697
0.020926
0.0204939
0.0200789
0.0196855
0.0193176
0.0189772
0.0186656
0.018383
0.0181289
0.0179023
0.0177011
0.0175309
0.017382
0.0172455
0.0170858
0.016907
0.0167441
0.0165718
0.0165543
0.0167469
0.0171184
0.0181052
0.0201295
0.0238766
0.0308394
0.0465432
0.19579
0.517679
1.20718
1.48688
1.9189
2.7047
0.0264807
0.026354
0.0262634
0.0260391
0.0256911
0.0252732
0.0248127
0.0243249
0.0238243
0.0233247
0.0228365
0.0223659
0.0219176
0.0214958
0.021103
0.0207404
0.0204085
0.0201073
0.0198361
0.0195921
0.0193793
0.0191968
0.0190384
0.0189046
0.0187789
0.0186556
0.0185124
0.0183535
0.0182026
0.0180885
0.0179725
0.0179697
0.0180948
0.0183684
0.0187922
0.019605
0.0209946
0.0232843
0.0268716
0.032708
0.0433354
0.0294452
0.0293033
0.0291946
0.0289408
0.0285533
0.0280885
0.0275757
0.027032
0.0264739
0.0259162
0.0253703
0.0248432
0.0243397
0.0238645
0.0234203
0.0230087
0.02263
0.0222844
0.0219717
0.0216891
0.0214415
0.0212272
0.0210393
0.0208813
0.0207493
0.0206378
0.0205424
0.0204552
0.0203672
0.0202802
0.0201836
0.0200821
0.0199886
0.0199125
0.0198643
0.0198199
0.0198262
0.0199041
0.0200596
0.0203198
0.0206195
0.0326487
0.0324909
0.0323609
0.0320743
0.0316442
0.0311292
0.0305606
0.0299579
0.0293393
0.0287212
0.0281158
0.0275307
0.0269714
0.0264425
0.0259475
0.0254878
0.0250642
0.0246768
0.0243256
0.0240079
0.0237297
0.0234891
0.0232784
0.023101
0.0229536
0.0228316
0.0227328
0.0226554
0.0225968
0.0225538
0.0225243
0.0225038
0.0224894
0.0224774
0.022469
0.0224611
0.0224552
0.0224521
0.0224525
0.0224736
0.0224807
0.036116
0.0359415
0.0357862
0.0354631
0.0349868
0.0344174
0.0337891
0.0331237
0.0324415
0.0317602
0.031093
0.0304483
0.0298321
0.0292495
0.0287039
0.0281972
0.0277302
0.0273033
0.0269164
0.026567
0.026262
0.0259992
0.0257697
0.025578
0.0254206
0.0252925
0.0251908
0.0251134
0.0250588
0.0250251
0.0250111
0.0250152
0.0250365
0.0250729
0.0251222
0.025184
0.0252575
0.0253397
0.0254252
0.025522
0.0256062
0.0398746
0.0396819
0.0394966
0.0391325
0.0386054
0.0379772
0.0372846
0.0365523
0.0358029
0.0350554
0.034324
0.033618
0.0329437
0.0323068
0.0317109
0.031158
0.030649
0.0301845
0.0297645
0.0293864
0.0290583
0.0287771
0.0285324
0.0283299
0.0281661
0.0280357
0.0279353
0.0278627
0.0278158
0.0277923
0.0277906
0.0278089
0.0278463
0.0279012
0.0279717
0.0280577
0.0281591
0.0282744
0.028398
0.0285412
0.0286665
0.0439546
0.0437417
0.0435204
0.0431095
0.0425263
0.0418336
0.0410713
0.0402675
0.0394468
0.0386295
0.0378313
0.0370619
0.0363284
0.0356366
0.0349905
0.0343922
0.0338426
0.0333424
0.0328919
0.0324881
0.0321403
0.0318446
0.0315884
0.0313787
0.0312121
0.0310827
0.0309869
0.0309221
0.030886
0.0308762
0.0308906
0.0309271
0.0309846
0.0310609
0.031154
0.0312634
0.0313889
0.0315289
0.0316769
0.0318466
0.0319932
0.0483893
0.048153
0.0478882
0.0474234
0.0467771
0.0460132
0.045175
0.0442941
0.0433974
0.0425068
0.0416388
0.040804
0.0400098
0.0392625
0.0385663
0.0379233
0.0373345
0.0368006
0.0363221
0.0358956
0.0355316
0.0352249
0.0349609
0.0347476
0.0345818
0.034457
0.034369
0.0343151
0.0342929
0.0342996
0.0343329
0.0343904
0.0344709
0.0345718
0.034691
0.0348277
0.0349818
0.0351515
0.0353294
0.0355303
0.0357074
0.0532161
0.0529515
0.0526335
0.0521055
0.0513876
0.0505442
0.0496226
0.0486582
0.0476803
0.0467119
0.0457709
0.0448683
0.0440119
0.0432085
0.0424624
0.0417756
0.041149
0.0405835
0.0400794
0.0396332
0.0392565
0.0389427
0.0386744
0.0384612
0.0382997
0.0381829
0.0381061
0.0380665
0.0380612
0.0380873
0.0381423
0.0382234
0.0383292
0.0384572
0.0386046
0.0387708
0.0389555
0.039157
0.0393669
0.0396006
0.0398114
0.0584765
0.0581763
0.0577923
0.0571895
0.0563891
0.0554561
0.0544422
0.0533868
0.0523213
0.0512704
0.0502526
0.0492798
0.0483597
0.0474993
0.0467034
0.0459738
0.0453111
0.0447161
0.0441891
0.0437264
0.0433405
0.0430234
0.0427546
0.0425452
0.0423919
0.0422868
0.0422247
0.0422027
0.0422176
0.0422663
0.0423458
0.0424534
0.0425874
0.0427448
0.042923
0.043121
0.0433384
0.0435737
0.0438174
0.0440853
0.0443326
0.064217
0.0638704
0.0634043
0.0627117
0.0618153
0.0607803
0.0596633
0.0585077
0.0573474
0.0562081
0.0551092
0.0540632
0.0530777
0.0521597
0.0513142
0.0505427
0.0498456
0.0492232
0.0486762
0.0482
0.0478084
0.0474918
0.047226
0.0470239
0.0468821
0.0467921
0.046748
0.0467466
0.0467846
0.0468586
0.0469654
0.0471019
0.0472664
0.0474557
0.0476667
0.0478985
0.0481508
0.0484218
0.0487012
0.0490047
0.0492932
0.0704897
0.0700812
0.0695122
0.0687111
0.0677018
0.0665495
0.065316
0.0640493
0.0627853
0.0615508
0.0603658
0.059243
0.0581902
0.0572137
0.0563187
0.0555065
0.0547768
0.0541297
0.0535656
0.0530795
0.0526861
0.052374
0.0521153
0.0519247
0.0517987
0.0517277
0.0517055
0.0517285
0.0517931
0.0518958
0.0520329
0.0522013
0.0523988
0.0526224
0.0528686
0.0531363
0.0534252
0.0537336
0.0540503
0.0543903
0.0547238
0.077353
0.0768612
0.0761628
0.0752295
0.0740861
0.0727976
0.0714315
0.0700402
0.0686617
0.0673237
0.0660463
0.0648426
0.0637199
0.0626839
0.0617392
0.0608873
0.0601267
0.0594571
0.0588784
0.0583852
0.0579928
0.0576883
0.0574394
0.0572628
0.057155
0.0571053
0.057107
0.0571562
0.0572492
0.057382
0.057551
0.0577525
0.0579844
0.0582434
0.0585258
0.0588305
0.0591569
0.0595038
0.0598587
0.0602351
0.0606203
0.0848723
0.084268
0.083407
0.0823117
0.0810075
0.0795594
0.0780407
0.0765083
0.0750021
0.0735503
0.0721731
0.0708833
0.0696876
0.0685905
0.0675962
0.0667057
0.0659165
0.0652274
0.064638
0.0641421
0.0637557
0.0634643
0.0632306
0.0630735
0.0629893
0.0629663
0.0629969
0.063077
0.0632027
0.0633696
0.0635738
0.0638115
0.0640804
0.064377
0.0646972
0.0650402
0.065405
0.0657909
0.0661839
0.0665968
0.067034
0.0931209
0.0923649
0.0912996
0.090005
0.0885071
0.0868703
0.0851742
0.0834805
0.0818304
0.0802525
0.0787663
0.0773838
0.0761108
0.0749503
0.0739051
0.0729756
0.0721581
0.0714502
0.0708503
0.0703519
0.0699707
0.0696913
0.0694714
0.0693321
0.0692695
0.0692709
0.0693281
0.0694367
0.0695927
0.0697914
0.0700287
0.0703004
0.0706042
0.0709364
0.0712928
0.0716724
0.072074
0.0724975
0.0729278
0.073373
0.0738763
0.10218
0.101221
0.0998991
0.0983589
0.0966261
0.0947648
0.0928614
0.0909819
0.0891688
0.0874498
0.0858436
0.0843608
0.0830058
0.0817796
0.0806836
0.0797171
0.0788754
0.0781542
0.0775512
0.0770591
0.0766933
0.0764368
0.0762417
0.0761312
0.0761012
0.0761373
0.0762307
0.0763765
0.0765704
0.0768075
0.0770832
0.0773933
0.0777352
0.0781053
0.078499
0.0789154
0.0793531
0.079813
0.0802771
0.0807569
0.0813078
0.112139
0.110909
0.109266
0.107422
0.105404
0.103275
0.101129
0.0990359
0.0970374
0.0951603
0.0934213
0.0918285
0.0903839
0.0890858
0.0879327
0.0869227
0.086049
0.0853056
0.0846884
0.0841892
0.0838228
0.0835728
0.0833854
0.0832866
0.083272
0.0833264
0.08344
0.0836081
0.0838259
0.0840884
0.0843907
0.0847283
0.0850984
0.0854974
0.0859201
0.0863656
0.0868324
0.087322
0.0878161
0.0883127
0.0889572
0.123093
0.121507
0.119464
0.117243
0.114876
0.11243
0.110002
0.107664
0.105457
0.103403
0.101517
0.0998047
0.0982655
0.0968957
0.0956913
0.0946487
0.0937595
0.0930152
0.0924097
0.0919336
0.0915998
0.091389
0.0912419
0.0911862
0.0912168
0.0913167
0.0914752
0.091687
0.0919472
0.0922505
0.0925917
0.0929664
0.0933715
0.0938035
0.0942575
0.0947332
0.0952272
0.0957447
0.0962589
0.0967939
0.0974346
0.135146
0.133096
0.130555
0.127872
0.125084
0.122263
0.119509
0.116893
0.114452
0.112202
0.110152
0.108303
0.106651
0.105186
0.103899
0.102785
0.101833
0.101033
0.100379
0.09986
0.0994886
0.0992503
0.0990788
0.0990047
0.0990225
0.0991139
0.0992678
0.0994784
0.0997405
0.100048
0.100396
0.100779
0.101193
0.101635
0.102099
0.102584
0.103087
0.103613
0.104141
0.104645
0.105464
0.148415
0.145753
0.142588
0.13934
0.136062
0.132815
0.129694
0.126767
0.124062
0.121595
0.119367
0.117374
0.115612
0.114076
0.112759
0.111647
0.110724
0.109972
0.109377
0.108927
0.108631
0.108467
0.108365
0.108358
0.10844
0.108592
0.1088
0.109059
0.109365
0.109711
0.110092
0.110504
0.110942
0.111405
0.111887
0.112389
0.112905
0.113447
0.113968
0.114558
0.115162
0.162974
0.159505
0.155552
0.151623
0.147791
0.144094
0.140597
0.137343
0.13435
0.131631
0.129188
0.127013
0.125079
0.123354
0.121819
0.12048
0.119341
0.118393
0.117624
0.117016
0.116577
0.116298
0.116096
0.116005
0.116016
0.116107
0.116264
0.116481
0.116751
0.117067
0.117422
0.117809
0.118225
0.118665
0.119122
0.119595
0.120081
0.120582
0.121093
0.121495
0.122592
0.178741
0.174298
0.169434
0.164727
0.160277
0.1561
0.152228
0.14867
0.145408
0.142431
0.139746
0.137378
0.135356
0.133697
0.13237
0.131295
0.1304
0.129658
0.12906
0.128608
0.128306
0.128128
0.128008
0.127984
0.128049
0.128183
0.128371
0.128608
0.128889
0.129208
0.129561
0.129943
0.13035
0.130782
0.131232
0.131706
0.132188
0.132714
0.133174
0.133893
0.134063
0.195623
0.190117
0.184379
0.178967
0.173931
0.169227
0.164881
0.160924
0.157362
0.154161
0.15125
0.148541
0.14596
0.143476
0.141148
0.139137
0.13752
0.136241
0.135233
0.134442
0.133859
0.133485
0.133213
0.133071
0.133043
0.133103
0.133236
0.133429
0.133676
0.133964
0.134286
0.134632
0.134998
0.135376
0.135757
0.136136
0.136518
0.136884
0.1373
0.137336
0.139047
0.214092
0.20713
0.20044
0.194512
0.189189
0.184211
0.179467
0.174959
0.170761
0.167005
0.163838
0.161372
0.159623
0.158508
0.157779
0.156994
0.155976
0.154902
0.153899
0.153035
0.15232
0.151721
0.151205
0.15081
0.15053
0.150341
0.150228
0.150184
0.150204
0.150281
0.150409
0.150587
0.150808
0.151073
0.151378
0.151733
0.152106
0.152583
0.152894
0.154043
0.152816
0.234503
0.224723
0.216137
0.209299
0.203852
0.199234
0.195048
0.191007
0.186884
0.182518
0.177838
0.172887
0.167844
0.162947
0.158559
0.155271
0.153106
0.15154
0.150353
0.149443
0.148808
0.148421
0.148174
0.148076
0.148102
0.148221
0.148412
0.14866
0.148949
0.149265
0.149593
0.149919
0.150236
0.150531
0.150793
0.151004
0.151189
0.151267
0.151506
0.150694
0.153795
0.253595
0.241579
0.231298
0.222914
0.216184
0.210791
0.206591
0.203483
0.201325
0.199925
0.199065
0.198525
0.198095
0.197734
0.197261
0.19555
0.192645
0.189573
0.186638
0.183997
0.181654
0.17958
0.177727
0.176096
0.174683
0.173463
0.172415
0.171526
0.17079
0.170201
0.169752
0.169444
0.169272
0.169244
0.169357
0.169629
0.170012
0.17068
0.171103
0.173466
0.170328
0.243546
0.229813
0.223387
0.222274
0.223877
0.225043
0.222929
0.216637
0.207592
0.19793
0.189117
0.181764
0.175966
0.171511
0.168257
0.166728
0.166633
0.167186
0.168038
0.169055
0.170306
0.171466
0.172757
0.174108
0.17548
0.176863
0.17825
0.179635
0.181012
0.182379
0.183738
0.185091
0.186454
0.187837
0.189242
0.19065
0.192171
0.19362
0.195691
0.195502
0.204663
0.00515781
0.00942379
0.0140849
0.0187311
0.0235044
0.0285591
0.0341374
0.0410465
0.0516114
0.0599107
0.0263007
0.0120795
0.191636
0.0324202
0.0128491
0.0141482
0.0155906
0.0165351
0.0176299
0.0188933
0.0202619
0.0217554
0.0233906
0.0251833
0.0271486
0.0293115
0.0316927
0.0343333
0.0372633
0.0405261
0.0441644
0.0482288
0.0527742
0.0578651
0.0635739
0.0699992
0.0772521
0.0854786
0.094841
0.105585
0.117962
0.132317
0.149128
0.168971
0.192541
0.220796
0.254453
0.293539
0.335897
0.37392
0.396833
0.402479
0.397194
0.3887
0.380618
0.374273
0.36963
0.366661
0.364756
0.363976
0.363633
0.364063
0.364518
0.365273
0.366006
0.366996
0.367276
0.369467
0.367276
0.374279
0.362877
0.382648
0.344417
0.369448
0.00900468
0.0123758
0.0166423
0.0209214
0.025183
0.0295679
0.0342172
0.0394488
0.0460708
0.056253
0.0629574
0.0266978
0.461392
0.225959
0.0467873
0.0136722
0.014757
0.0165524
0.0176585
0.0188202
0.0201879
0.0216893
0.0233206
0.0251101
0.0270734
0.0292338
0.0316112
0.0342469
0.0371725
0.0404302
0.0440633
0.0481212
0.0526595
0.0577416
0.0634385
0.0698477
0.0770787
0.0852765
0.0945989
0.105292
0.117613
0.131872
0.148567
0.168246
0.191566
0.219486
0.252574
0.290912
0.332295
0.369579
0.392538
0.398994
0.394619
0.386813
0.379157
0.37312
0.368647
0.36581
0.363997
0.363309
0.363028
0.363538
0.364087
0.364897
0.365727
0.366822
0.367144
0.369587
0.367234
0.374931
0.362623
0.384711
0.343925
0.370732
0.0151535
0.0170439
0.0203382
0.023952
0.0276549
0.0314587
0.0354313
0.0397203
0.0446645
0.0510467
0.0606992
0.0657677
0.0280861
0.0147467
0.224624
0.252497
0.0152265
0.0154729
0.0174827
0.018876
0.0201156
0.0215911
0.0232375
0.0250245
0.0269802
0.0291363
0.0315129
0.034142
0.0370618
0.0403134
0.0439412
0.0479935
0.0525244
0.0575977
0.0632844
0.0696773
0.0768881
0.0850573
0.0943452
0.104985
0.117252
0.131431
0.148016
0.167548
0.190663
0.218276
0.250889
0.288688
0.3293
0.365917
0.388973
0.395991
0.392311
0.385033
0.377785
0.371887
0.367627
0.364855
0.363188
0.362526
0.362409
0.362867
0.363563
0.364484
0.365354
0.36665
0.366912
0.36965
0.367175
0.375541
0.362424
0.386696
0.343715
0.372009
0.0232069
0.0234784
0.0254434
0.0280729
0.0310363
0.0342014
0.037538
0.0410946
0.0450208
0.0496467
0.0556581
0.0643258
0.0685415
0.0321221
0.133007
1.65277
0.0875214
0.0182145
0.0162485
0.0184105
0.0201883
0.0215407
0.0230994
0.0249073
0.0268763
0.0290203
0.0313867
0.0340105
0.036926
0.0401709
0.0437923
0.0478387
0.0523637
0.0574301
0.0631078
0.0694868
0.076679
0.084822
0.0940779
0.104671
0.116883
0.130989
0.147473
0.16686
0.189775
0.217072
0.249213
0.286385
0.326125
0.361882
0.384845
0.392343
0.389407
0.38274
0.375951
0.370353
0.366336
0.363712
0.362209
0.361634
0.361668
0.36217
0.363001
0.364052
0.364992
0.366475
0.366742
0.369755
0.36718
0.376219
0.36231
0.388779
0.343563
0.373288
0.0325925
0.0319199
0.0322499
0.0335807
0.03558
0.0379759
0.0406284
0.0435018
0.0466399
0.0501861
0.0544325
0.0598929
0.0672816
0.0715914
0.0385248
0.02133
0
0.113037
0.0226575
0.0173617
0.0191752
0.0215434
0.0231581
0.0247518
0.0266906
0.0288826
0.0312618
0.0338692
0.0367707
0.0400099
0.0436272
0.0476679
0.0521869
0.0572474
0.0629176
0.0692853
0.0764602
0.0845779
0.0938014
0.104353
0.116508
0.130541
0.146926
0.166165
0.18887
0.215834
0.247478
0.283916
0.32266
0.357424
0.380144
0.388098
0.385983
0.380028
0.373759
0.368603
0.364861
0.362463
0.361135
0.360711
0.360876
0.361514
0.362472
0.363655
0.364705
0.366347
0.366686
0.369955
0.36729
0.377001
0.362319
0.391002
0.34348
0.37458
0.0441197
0.0426667
0.0410705
0.040795
0.0415812
0.043028
0.0448864
0.0470388
0.0494507
0.0521619
0.0552986
0.0590896
0.0638639
0.0699438
0.0741498
0.0477257
0.0281138
0.0332146
0.158406
0.0451037
0.0195832
0.0198692
0.0226771
0.0250219
0.0267321
0.028674
0.0310423
0.0337069
0.0366204
0.0398393
0.0434403
0.0474768
0.051995
0.0570517
0.062714
0.0690706
0.0762298
0.0843239
0.0935152
0.104024
0.116121
0.13008
0.146362
0.16545
0.187934
0.214552
0.245677
0.281326
0.319009
0.352772
0.375164
0.383593
0.382331
0.377152
0.371475
0.366777
0.363353
0.361209
0.360083
0.35983
0.360144
0.360935
0.362027
0.363345
0.364519
0.366318
0.366749
0.370267
0.36752
0.377886
0.362471
0.39333
0.343528
0.37587
0.0579072
0.0560141
0.0522406
0.050075
0.049379
0.0496595
0.0505652
0.0518973
0.0535526
0.0554982
0.0577666
0.0604584
0.0637313
0.0677646
0.0726233
0.0762959
0.0613549
0.0134684
0.0148522
0.41544
0.117173
0.0275813
0.0209518
0.0231162
0.0264858
0.0290154
0.0310568
0.0334554
0.0363595
0.0396418
0.0432579
0.0472714
0.0517707
0.0568252
0.0624907
0.0688428
0.0759861
0.0840537
0.0932116
0.103677
0.115715
0.129597
0.145772
0.164701
0.186951
0.213206
0.24378
0.278598
0.315179
0.347935
0.369975
0.3789
0.378523
0.374175
0.369154
0.364925
0.361861
0.359991
0.359094
0.359022
0.35951
0.36045
0.361687
0.363147
0.364445
0.366408
0.366931
0.370691
0.367877
0.37887
0.362774
0.395736
0.343723
0.377159
0.0725385
0.0721915
0.0661518
0.0618305
0.0593644
0.0582304
0.057984
0.0583477
0.0591525
0.0603053
0.0617728
0.0635783
0.0657927
0.0685113
0.0718147
0.0755576
0.0787503
0.0720235
0.0321953
0.0275402
0.854468
0.214771
0.127512
0.0267844
0.0240478
0.027061
0.0308812
0.0337905
0.036327
0.0393187
0.0429264
0.0470283
0.0515632
0.0565943
0.0622288
0.0685697
0.0757124
0.0837686
0.0928953
0.10331
0.115279
0.12908
0.145144
0.163905
0.185903
0.211762
0.241741
0.275667
0.311105
0.342812
0.364498
0.373945
0.374507
0.371051
0.366746
0.363038
0.360374
0.358807
0.358164
0.358291
0.358968
0.360065
0.361453
0.363067
0.364492
0.366622
0.367237
0.371231
0.368369
0.379955
0.363237
0.398215
0.344059
0.378477
0.088221
0.0913627
0.0833537
0.0765734
0.0720107
0.0691742
0.0675364
0.0667387
0.0665475
0.0668135
0.06745
0.0684235
0.0697458
0.0714593
0.0736159
0.0762087
0.0790907
0.0815623
0.0791295
0.0580127
0.0656817
0.01959
1.30148
0.187898
0.0639232
0.0288953
0.0280998
0.0318128
0.0362344
0.0397444
0.0428954
0.046597
0.0510952
0.0562701
0.0620058
0.0683413
0.0754255
0.0834308
0.0925291
0.102914
0.114826
0.128534
0.144462
0.163032
0.184757
0.210191
0.239526
0.272487
0.306719
0.337338
0.358678
0.368676
0.370233
0.367742
0.364215
0.361096
0.358875
0.357648
0.357283
0.357634
0.358511
0.359783
0.36133
0.363103
0.364664
0.366957
0.367675
0.371891
0.369002
0.381139
0.36387
0.400756
0.344535
0.379854
0.107078
0.114361
0.104903
0.095157
0.087993
0.0830669
0.0797285
0.0775202
0.0761335
0.0753614
0.0750659
0.0751664
0.0756277
0.0764483
0.0776476
0.0792389
0.0811878
0.0833786
0.0851861
0.0846556
0.0766367
0.0418584
0.0421044
0.0202916
0.664684
0.192931
0.0565754
0.0326721
0.0328065
0.0372839
0.0427699
0.0473513
0.0513198
0.0558072
0.061322
0.0678161
0.0751143
0.0831844
0.0922016
0.102459
0.114268
0.127904
0.143731
0.16211
0.183518
0.208454
0.23708
0.269014
0.301997
0.331497
0.352498
0.363067
0.365684
0.364232
0.361555
0.359089
0.357362
0.356514
0.356453
0.357054
0.358144
0.359606
0.361321
0.363258
0.364961
0.367417
0.368246
0.37267
0.369779
0.382415
0.36468
0.403342
0.345155
0.381325
0.133487
0.145076
0.13374
0.119572
0.108663
0.100891
0.09533
0.0913357
0.0884641
0.0864272
0.0850272
0.0841355
0.0836744
0.0836022
0.0839023
0.0845737
0.0856095
0.0869826
0.0885579
0.0898896
0.0902307
0.0865394
0.0742588
0.0296085
0.0437023
0.167173
0.604032
0.218549
0.0652772
0.038559
0.0381045
0.043217
0.0503448
0.0569317
0.0623485
0.0678004
0.0743941
0.0824079
0.0917004
0.10215
0.113889
0.127277
0.142824
0.16096
0.182099
0.206582
0.234451
0.265241
0.29689
0.325277
0.345971
0.357133
0.360853
0.360513
0.358766
0.357016
0.355835
0.355407
0.355681
0.356555
0.357878
0.359542
0.361435
0.363537
0.36539
0.368007
0.368957
0.37357
0.370704
0.383775
0.365674
0.405956
0.34592
0.382927
0.177422
0.199572
0.181405
0.156072
0.137648
0.12497
0.115951
0.10936
0.10446
0.10077
0.0979704
0.0958637
0.0943222
0.0932595
0.0926186
0.092369
0.0924975
0.0929926
0.0938206
0.0948492
0.0958445
0.0962716
0.0951122
0.0892792
0.0743032
0.019581
0.0509198
0.135119
0.74479
0.287929
0.133513
0.0509177
0.0453334
0.0498037
0.0582853
0.0677536
0.0759279
0.0831194
0.0910708
0.100888
0.112798
0.12661
0.142275
0.16006
0.180549
0.204292
0.231374
0.261136
0.29148
0.318705
0.339052
0.350858
0.355735
0.356579
0.355829
0.354863
0.354289
0.354326
0.354971
0.356144
0.357721
0.3596
0.361679
0.363953
0.36596
0.368733
0.369812
0.374593
0.371787
0.385218
0.366863
0.408584
0.346829
0.384709
0.238663
0.336605
0.338905
0.235071
0.188197
0.16253
0.146061
0.134582
0.126219
0.119933
0.1151
0.111324
0.108367
0.106069
0.104317
0.103037
0.10219
0.101753
0.101704
0.101995
0.102533
0.103163
0.103575
0.103247
0.101103
0.0940877
0.0790376
0.0213736
0.0670652
0.0335468
1.75028
0.519617
6.97647
0.0912805
0.0598326
0.0598952
0.0688394
0.0810435
0.0929889
0.103144
0.113028
0.124892
0.139933
0.158168
0.179134
0.202536
0.22839
0.256533
0.285432
0.311718
0.331828
0.344234
0.350273
0.352395
0.35274
0.352631
0.352719
0.353269
0.354325
0.355826
0.35768
0.359789
0.362064
0.364516
0.36668
0.369603
0.37082
0.375744
0.373033
0.386739
0.368253
0.411214
0.347881
0.386727
0.214098
0.24189
0.298616
0.392489
0.31775
0.241802
0.201127
0.176531
0.160044
0.148235
0.139473
0.132793
0.127576
0.123431
0.120114
0.117471
0.115413
0.113877
0.112812
0.11217
0.111898
0.111929
0.112145
0.112391
0.112359
0.111509
0.108859
0.101892
0.0893854
0.0474394
0.0923841
0.0650008
0.0515076
0.139662
0.505941
0.432482
0.0886632
0.0738489
0.0816571
0.096663
0.113859
0.129388
0.142787
0.157119
0.175329
0.198255
0.224674
0.252498
0.279748
0.304389
0.324118
0.337304
0.344542
0.347917
0.349411
0.350269
0.351114
0.352236
0.353742
0.355602
0.357758
0.360115
0.3626
0.365234
0.367562
0.370626
0.371989
0.377028
0.374452
0.388337
0.369854
0.413844
0.349075
0.38905
0.172958
0.180376
0.189821
0.205511
0.227628
0.253562
0.266987
0.25114
0.223344
0.199066
0.180821
0.167361
0.157124
0.149181
0.142921
0.137934
0.133952
0.130798
0.128329
0.126439
0.125051
0.124107
0.123538
0.123261
0.123156
0.123057
0.122659
0.121508
0.118862