/*--------------------------------*- C++ -*----------------------------------*\
| =========                 |                                                 |
| \\      /  F ield         | OpenFOAM: The Open Source CFD Toolbox           |
|  \\    /   O peration     | Version:  2312                                  |
|   \\  /    A nd           | Website:  www.openfoam.com                      |
|    \\/     M anipulation  |                                                 |
\*---------------------------------------------------------------------------*/
FoamFile
{
    version     2.0;
    format      ascii;
    arch        "LSB;label=32;scalar=64";
    class       volScalarField;
    location    "1000";
    object      turbulenceProperties:epsilon;
}
// * * * * * * * * * * * * * * * * * * * * * * * * * * * * * * * * * * * * * //

dimensions      [0 2 -3 0 0 0 0];

internalField   nonuniform List<scalar> 
11040
(
95.2357
99.6696
3.53848
1.16086
17.3426
18.9964
17.9129
15.7217
13.6482
12.3481
11.1945
10.202
9.42784
8.84232
8.38808
8.1674
8.15944
8.386
8.8247
9.48149
10.3917
11.5376
12.9471
14.6793
16.7486
19.207
21.9566
24.5993
26.8085
28.1992
28.3898
27.1178
24.539
21.127
17.5627
11.3938
4.34724
1.57035
0.251643
2.48222
7.26805
0.863825
2.86799
28.1293
51.4705
49.4965
5.29144
0.580895
0.0739796
0.00563555
0.00374289
0.0231289
0.0441322
0.0646159
0.0833543
0.0996836
0.116
0.13439
0.154722
0.17511
0.195829
0.217144
0.240023
0.257475
0.261148
0.247967
0.223404
0.192297
0.153929
0.113565
0.078426
0.0551416
0.0466954
0.0435056
0.0498147
0.0686393
0.104791
0.168083
0.263001
0.601714
0.731628
8.37954
0.328198
0.257693
1.05991
14.9219
96.673
75.1248
16.4491
2.44394
0.618537
0.238998
0.0832856
0.0292517
0.00742905
0.000675865
0.000757786
0.00355375
0.00707441
0.0106359
0.0137311
0.0160285
0.0174236
0.0177556
0.0161825
0.0128221
0.00893712
0.00561565
0.00313273
0.00131725
0.000194426
0.00052214
0.00438612
0.0157821
0.0403717
0.085145
0.159639
0.279582
0.465679
0.707981
1.4169
2.20742
3.56093
0.168987
0.124313
0.0827524
0.199863
14.9782
90.2977
92.4657
31.9525
5.36778
1.6366
0.630443
0.305178
0.162915
0.0876204
0.0517333
0.0314772
0.0212622
0.0156449
0.0128688
0.0119558
0.0121104
0.0132544
0.015644
0.0191306
0.0226586
0.0251689
0.0258466
0.0243477
0.0212345
0.0187249
0.0211143
0.0349463
0.0693339
0.138161
0.260133
0.46507
0.792019
1.2283
2.23855
3.8375
2.4822
0.0938312
0.0764148
0.0866027
0.0216974
0.0387721
9.73018
68.6933
98.6193
50.6332
11.7025
3.25996
1.2473
0.642267
0.354697
0.226518
0.152095
0.11303
0.0901943
0.0776325
0.0716431
0.0690755
0.0686229
0.0702179
0.0735489
0.0765133
0.0774882
0.0753275
0.0694838
0.0606647
0.0516585
0.048154
0.0597171
0.101075
0.193366
0.364789
0.658161
1.13079
1.78489
2.9544
5.25413
2.89114
0.0488816
0.0412043
0.0390686
0.0477527
0.00434547
0.00213491
4.54816
42.7125
92.517
67.9534
24.4253
6.0648
2.34347
1.09762
0.638559
0.405476
0.289282
0.224406
0.187771
0.168748
0.158558
0.153291
0.151399
0.152387
0.153197
0.151488
0.145302
0.133273
0.115648
0.0955597
0.0803568
0.0832577
0.124922
0.23449
0.450459
0.82759
1.43852
2.30545
3.55551
6.20722
3.8521
0.0255042
0.0232945
0.0205455
0.0232905
0.0249162
0.000776021
8.78689e-07
1.3334
21.2735
70.5122
78.0193
42.0069
13.0592
4.1029
1.85908
1.02769
0.65376
0.463954
0.360943
0.308073
0.279631
0.265336
0.258688
0.257538
0.25692
0.253038
0.24255
0.222735
0.192867
0.156132
0.121396
0.105448
0.134805
0.246806
0.49019
0.929214
1.64518
2.67341
3.96689
6.59102
4.84535
0.0135859
0.0129899
0.0125999
0.0116339
0.0136079
0.0149746
1.87001e-05
1.2856e-09
0.204508
7.92092
41.1906
73.8368
58.1364
26.2705
8.25569
3.17143
1.6182
0.998041
0.690684
0.535738
0.454274
0.416636
0.39946
0.395031
0.394128
0.38992
0.376452
0.348567
0.30354
0.244073
0.179932
0.130838
0.128551
0.217892
0.456527
0.914691
1.67383
2.76887
4.06647
6.31563
5.42229
0.00741305
0.00720569
0.00723358
0.00711418
0.00657195
0.00835928
0.00768995
0.000102451
9.73134e-05
0.000451235
1.88128
17.5257
51.8282
64.5521
42.4264
17.8054
6.0908
2.67789
1.50886
1.01028
0.76417
0.651887
0.599658
0.580925
0.575977
0.571016
0.555609
0.520777
0.460402
0.374347
0.271565
0.173265
0.115242
0.148184
0.33614
0.751444
1.46769
2.50914
3.72688
5.44005
5.25496
0.00408967
0.00401775
0.00407667
0.00416562
0.00409692
0.00385155
0.00484865
0.00392398
0.000346949
4.37949e-06
0.00219358
0.212455
5.02395
25.5067
52.8573
53.3183
32.1158
13.4732
5.06789
2.43842
1.50396
1.12036
0.944863
0.867359
0.835276
0.820029
0.800855
0.759438
0.683523
0.569206
0.422639
0.26321
0.127602
0.0694215
0.155862
0.458149
1.03772
1.90596
2.93084
4.11517
4.32162
0.00227574
0.00225072
0.00229629
0.00236916
0.00243646
0.00239262
0.00232809
0.00265339
0.00261863
0.000678923
1.78262e-06
7.8833e-05
5.51154e-05
0.761162
8.06961
28.9095
48.4336
44.0516
25.9869
11.3942
4.67797
2.49119
1.74696
1.43493
1.28544
1.21071
1.16177
1.1031
1.01128
0.872136
0.683324
0.459369
0.235583
0.0648425
0.0126039
0.145724
0.514297
1.12182
1.85964
2.59388
2.89897
0.0012715
0.00126393
0.00128851
0.00133814
0.00139136
0.00143444
0.00142567
0.00139711
0.00149072
0.00161222
0.000879585
3.50144e-07
1.3124e-07
0.00123307
0.0389866
1.4103
9.7034
28.1634
42.3112
37.3918
22.6751
11.0988
5.41653
3.18482
2.33575
1.99431
1.82122
1.68832
1.54674
1.36791
1.13818
0.860455
0.560081
0.28301
0.0889662
0.0401631
0.178529
0.503268
0.929184
1.30918
1.50508
0.000711216
0.000709997
0.000722359
0.000750802
0.000787072
0.000822363
0.000850971
0.000858355
0.000846231
0.000866418
0.000967831
0.000724046
3.14263e-05
1.85024e-07
1.25216e-05
0.00300948
0.0862483
1.70876
9.4121
24.702
36.1272
33.2796
23.1065
14.0113
8.16303
5.06833
3.59671
2.91629
2.56622
2.30192
2.01597
1.68083
1.31277
0.952765
0.652869
0.462626
0.416776
0.512728
0.689512
0.823243
0.81426
0.000397168
0.000398058
0.000404019
0.000419376
0.000441343
0.000465364
0.000488355
0.000508235
0.000519348
0.000517426
0.000518491
0.000573274
0.000536545
0.000167318
1.18934e-08
2.52879e-09
9.28942e-05
0.00457667
0.103313
1.52902
7.68472
19.3399
29.3423
31.1606
26.3199
19.6924
13.887
9.58584
6.74352
4.999
3.95315
3.29533
2.82378
2.43738
2.1157
1.87236
1.72809
1.68045
1.7051
1.71872
1.48992
0.000220816
0.000222163
0.00022501
0.000233138
0.000245682
0.000260477
0.000276012
0.000291156
0.000304898
0.000315218
0.000317879
0.000319085
0.000340053
0.000346817
0.000266286
1.73145e-05
1.36085e-07
1.39849e-11
0.000283617
0.00388098
0.0734886
0.941721
4.31527
11.2368
19.7049
25.7819
27.3348
25.2942
21.6611
17.7025
13.9785
10.7934
8.31403
6.55561
5.42597
4.78833
4.51374
4.45477
4.49342
4.56328
4.20098
0.000121954
0.000123103
0.00012446
0.000128702
0.000135649
0.000144224
0.000153718
0.000163714
0.000173685
0.000183021
0.000190966
0.000195413
0.000198423
0.0002025
0.000221507
0.000196203
0.000116454
3.43854e-07
1.3045e-08
5.23864e-13
0.000346523
0.00190148
0.0148802
0.23285
1.25602
3.93908
8.5871
14.3714
19.6889
23.2495
24.6994
24.3998
22.9229
20.7627
18.3463
16.01
13.9979
12.3905
11.2413
10.6379
9.81302
6.71429e-05
6.79375e-05
6.86083e-05
7.08317e-05
7.46237e-05
7.94232e-05
8.49174e-05
9.09332e-05
9.72771e-05
0.000103663
0.000109799
0.000115344
0.000119803
0.000122476
0.000125989
0.000131877
0.000140755
0.000110407
3.91981e-05
1.50075e-08
3.30566e-09
2.23921e-13
2.86816e-05
0.00118473
0.000532754
0.0137161
0.120112
0.565812
1.7129
3.8769
7.10388
11.0824
15.2698
19.1162
22.2282
24.3855
25.6065
25.9785
25.7538
25.441
24.1741
3.76843e-05
3.82112e-05
3.85909e-05
3.9834e-05
4.1977e-05
4.47228e-05
4.79196e-05
5.15021e-05
5.53776e-05
5.94302e-05
6.35166e-05
6.75047e-05
7.12668e-05
7.46148e-05
7.715e-05
7.94083e-05
8.22196e-05
8.86206e-05
8.97249e-05
6.7049e-05
1.85569e-05
6.83839e-09
2.33467e-09
4.54014e-12
1.66652e-07
5.3848e-05
0.000705917
0.000856622
0.000290715
0.0100156
0.0743979
0.297122
0.835122
1.87066
3.54526
5.90189
8.87358
12.3115
15.9642
19.7721
22.7633
2.19505e-05
2.23045e-05
2.25413e-05
2.32781e-05
2.4544e-05
2.61759e-05
2.80999e-05
3.02952e-05
3.27217e-05
3.53168e-05
3.80112e-05
4.07308e-05
4.34031e-05
4.5975e-05
4.83422e-05
5.04416e-05
5.20387e-05
5.39685e-05
5.66436e-05
6.03276e-05
5.91921e-05
4.19745e-05
1.81566e-05
1.46242e-07
5.1928e-09
1.98068e-10
8.10629e-13
0
2.5376e-08
2.5712e-05
0.000499152
0.000553589
9.77536e-09
0.000479056
0.00688875
0.0431964
0.154744
0.414068
0.907985
1.74191
2.95349
1.32602e-05
1.34933e-05
1.36457e-05
1.40984e-05
1.48699e-05
1.5867e-05
1.70518e-05
1.84168e-05
1.99464e-05
2.16095e-05
2.33735e-05
2.52044e-05
2.70613e-05
2.89013e-05
3.06843e-05
3.23796e-05
3.39285e-05
3.52858e-05
3.64854e-05
3.80236e-05
4.01759e-05
4.20407e-05
4.17036e-05
3.2893e-05
1.8326e-05
6.66183e-06
3.45557e-08
2.14851e-09
1.34213e-10
3.19401e-11
4.12115e-14
0
1.1106e-12
1.03924e-07
1.74758e-05
0.000325712
0.000460939
0.000163749
6.23303e-05
3.24852e-05
0.0035665
8.22938e-06
8.38143e-06
8.48221e-06
8.76792e-06
9.24987e-06
9.87363e-06
1.06188e-05
1.14825e-05
1.24571e-05
1.35275e-05
1.46766e-05
1.5889e-05
1.71449e-05
1.84203e-05
1.96911e-05
2.09332e-05
2.2128e-05
2.32525e-05
2.42762e-05
2.5198e-05
2.60812e-05
2.72457e-05
2.85672e-05
3.02964e-05
3.02736e-05
2.8594e-05
2.2588e-05
1.39502e-05
6.3072e-06
1.74968e-06
2.74743e-09
6.09181e-10
7.7702e-11
3.08039e-11
7.61949e-12
8.62338e-14
0
0
0
4.99888e-10
5.0082e-06
5.21842e-06
5.31781e-06
5.38641e-06
5.57104e-06
5.87838e-06
6.27622e-06
6.75322e-06
7.30818e-06
7.9372e-06
8.63215e-06
9.38361e-06
1.01838e-05
1.10224e-05
1.18865e-05
1.27625e-05
1.36364e-05
1.44945e-05
1.53244e-05
1.61153e-05
1.68597e-05
1.75215e-05
1.81279e-05
1.87121e-05
1.94435e-05
2.03289e-05
2.12053e-05
2.2211e-05
2.23268e-05
2.11965e-05
1.92544e-05
1.53384e-05
1.03726e-05
5.82571e-06
2.59149e-06
7.39803e-07
9.93557e-09
5.52602e-10
4.47513e-11
2.45148e-11
1.1621e-11
4.20935e-12
3.36622e-06
3.43141e-06
3.47904e-06
3.60043e-06
3.79953e-06
4.05716e-06
4.3668e-06
4.72781e-06
5.1379e-06
5.59248e-06
6.08624e-06
6.61487e-06
7.17291e-06
7.7527e-06
8.34623e-06
8.94536e-06
9.54157e-06
1.01264e-05
1.06917e-05
1.12344e-05
1.17359e-05
1.21879e-05
1.2597e-05
1.29559e-05
1.33075e-05
1.36688e-05
1.41136e-05
1.46405e-05
1.51771e-05
1.56125e-05
1.60786e-05
1.60978e-05
1.56023e-05
1.45942e-05
1.32332e-05
1.11503e-05
8.60606e-06
5.96619e-06
3.6967e-06
1.97265e-06
8.26154e-07
2.20189e-06
2.24488e-06
2.27849e-06
2.35948e-06
2.49021e-06
2.65919e-06
2.86258e-06
3.09992e-06
3.36973e-06
3.66929e-06
3.99544e-06
4.3455e-06
4.71635e-06
5.10341e-06
5.5017e-06
5.90617e-06
6.3115e-06
6.71219e-06
7.10263e-06
7.48002e-06
7.83166e-06
8.15273e-06
8.44784e-06
8.70601e-06
8.92885e-06
9.12247e-06
9.29243e-06
9.45269e-06
9.62051e-06
9.79341e-06
9.99433e-06
1.02168e-05
1.04335e-05
1.06216e-05
1.07515e-05
1.08759e-05
1.0875e-05
1.06947e-05
1.0332e-05
9.76265e-06
9.15903e-06
1.45676e-06
1.48528e-06
1.5093e-06
1.56397e-06
1.65075e-06
1.76276e-06
1.89766e-06
2.05505e-06
2.23391e-06
2.43254e-06
2.64893e-06
2.88138e-06
3.12795e-06
3.38579e-06
3.65168e-06
3.92234e-06
4.19431e-06
4.46394e-06
4.72739e-06
4.98259e-06
5.22042e-06
5.43762e-06
5.6372e-06
5.81237e-06
5.96313e-06
6.09145e-06
6.19773e-06
6.28232e-06
6.34722e-06
6.39536e-06
6.42876e-06
6.4527e-06
6.47088e-06
6.48751e-06
6.5016e-06
6.51701e-06
6.53228e-06
6.5463e-06
6.55794e-06
6.54618e-06
6.5502e-06
9.72859e-07
9.91904e-07
1.00924e-06
1.04653e-06
1.10471e-06
1.17964e-06
1.26987e-06
1.37503e-06
1.49439e-06
1.62682e-06
1.77102e-06
1.92584e-06
2.08997e-06
2.26154e-06
2.43845e-06
2.61851e-06
2.7994e-06
2.97866e-06
3.15363e-06
3.32284e-06
3.47991e-06
3.62277e-06
3.75356e-06
3.86736e-06
3.96408e-06
4.04499e-06
4.11074e-06
4.16158e-06
4.19789e-06
4.22039e-06
4.22968e-06
4.22662e-06
4.21192e-06
4.18725e-06
4.15429e-06
4.11361e-06
4.06612e-06
4.01407e-06
3.96122e-06
3.9027e-06
3.85311e-06
6.54729e-07
6.67545e-07
6.80169e-07
7.05849e-07
7.45196e-07
7.95743e-07
8.56549e-07
9.27277e-07
1.00739e-06
1.09612e-06
1.19257e-06
1.29596e-06
1.40536e-06
1.51951e-06
1.63699e-06
1.75632e-06
1.87593e-06
1.99411e-06
2.10905e-06
2.21971e-06
2.3217e-06
2.41378e-06
2.49765e-06
2.56984e-06
2.63014e-06
2.67941e-06
2.71813e-06
2.74658e-06
2.7652e-06
2.77455e-06
2.77524e-06
2.76793e-06
2.75303e-06
2.73138e-06
2.70384e-06
2.67074e-06
2.63236e-06
2.58954e-06
2.5446e-06
2.49379e-06
2.4504e-06
4.43435e-07
4.52137e-07
4.61408e-07
4.79258e-07
5.06099e-07
5.40463e-07
5.81722e-07
6.29583e-07
6.83642e-07
7.43358e-07
8.08112e-07
8.77337e-07
9.50377e-07
1.02635e-06
1.10429e-06
1.18317e-06
1.26191e-06
1.33936e-06
1.41426e-06
1.48589e-06
1.55127e-06
1.60971e-06
1.66257e-06
1.70746e-06
1.74421e-06
1.77343e-06
1.79548e-06
1.81058e-06
1.81906e-06
1.82137e-06
1.81798e-06
1.80941e-06
1.79602e-06
1.77844e-06
1.75728e-06
1.73282e-06
1.70527e-06
1.67518e-06
1.64407e-06
1.60927e-06
1.57995e-06
3.01888e-07
3.07863e-07
3.14733e-07
3.27259e-07
3.45725e-07
3.69265e-07
3.97446e-07
4.3002e-07
4.6668e-07
5.07042e-07
5.50664e-07
5.97132e-07
6.4598e-07
6.96584e-07
7.48261e-07
8.00318e-07
8.52011e-07
9.0254e-07
9.51056e-07
9.97071e-07
1.03856e-06
1.0752e-06
1.10806e-06
1.13551e-06
1.15745e-06
1.17432e-06
1.18639e-06
1.19386e-06
1.19696e-06
1.19602e-06
1.19139e-06
1.18345e-06
1.17244e-06
1.1588e-06
1.14297e-06
1.12512e-06
1.10544e-06
1.08424e-06
1.06257e-06
1.03875e-06
1.01829e-06
2.06383e-07
2.10541e-07
2.1568e-07
2.24558e-07
2.37374e-07
2.53621e-07
2.72995e-07
2.9529e-07
3.20275e-07
3.4767e-07
3.77159e-07
4.08435e-07
4.41166e-07
4.7491e-07
5.09179e-07
5.43499e-07
5.77366e-07
6.10229e-07
6.41514e-07
6.70896e-07
6.97025e-07
7.19764e-07
7.39949e-07
7.56494e-07
7.69333e-07
7.78793e-07
7.8509e-07
7.88367e-07
7.88806e-07
7.86644e-07
7.82124e-07
7.75506e-07
7.66976e-07
7.56822e-07
7.45327e-07
7.32629e-07
7.18835e-07
7.04153e-07
6.89256e-07
6.73131e-07
6.58987e-07
1.41553e-07
1.445e-07
1.4838e-07
1.54738e-07
1.63713e-07
1.75013e-07
1.88421e-07
2.0377e-07
2.20883e-07
2.39559e-07
2.59566e-07
2.80679e-07
3.02658e-07
3.25191e-07
3.47931e-07
3.70552e-07
3.92711e-07
4.14037e-07
4.34143e-07
4.52816e-07
4.69161e-07
4.83145e-07
4.95413e-07
5.05239e-07
5.1259e-07
5.17707e-07
5.20757e-07
5.21847e-07
5.2111e-07
5.18715e-07
5.14829e-07
5.09631e-07
5.03251e-07
4.95876e-07
4.87695e-07
4.78801e-07
4.69264e-07
4.59211e-07
4.49081e-07
4.38264e-07
4.28565e-07
9.73291e-08
9.94612e-08
1.0242e-07
1.0702e-07
1.13365e-07
1.21288e-07
1.30631e-07
1.41261e-07
1.53047e-07
1.65838e-07
1.79468e-07
1.93767e-07
2.08563e-07
2.2364e-07
2.38749e-07
2.53664e-07
2.68156e-07
2.81978e-07
2.9487e-07
3.06698e-07
3.16871e-07
3.25407e-07
3.32797e-07
3.38555e-07
3.42669e-07
3.45316e-07
3.46621e-07
3.46663e-07
3.45538e-07
3.43361e-07
3.40249e-07
3.36322e-07
3.31667e-07
3.26407e-07
3.20665e-07
3.14502e-07
3.07965e-07
3.01128e-07
2.94277e-07
2.87055e-07
2.80394e-07
6.70408e-08
6.8619e-08
7.08944e-08
7.42596e-08
7.87887e-08
8.43896e-08
9.09479e-08
9.83595e-08
1.06524e-07
1.15331e-07
1.24658e-07
1.34381e-07
1.44374e-07
1.54486e-07
1.64544e-07
1.74388e-07
1.83869e-07
1.92821e-07
2.01074e-07
2.08542e-07
2.14842e-07
2.20008e-07
2.2441e-07
2.27724e-07
2.29949e-07
2.31214e-07
2.31613e-07
2.31202e-07
2.3005e-07
2.28236e-07
2.2584e-07
2.22941e-07
2.19598e-07
2.1589e-07
2.11898e-07
2.07659e-07
2.03205e-07
1.98579e-07
1.93967e-07
1.89162e-07
1.84593e-07
4.62309e-08
4.74265e-08
4.91906e-08
5.16781e-08
5.49436e-08
5.89385e-08
6.35788e-08
6.87835e-08
7.44766e-08
8.05768e-08
8.69942e-08
9.36366e-08
1.00413e-07
1.07218e-07
1.13933e-07
1.20445e-07
1.26657e-07
1.3246e-07
1.37746e-07
1.4246e-07
1.46356e-07
1.4947e-07
1.52078e-07
1.53963e-07
1.55129e-07
1.5567e-07
1.55652e-07
1.55118e-07
1.54112e-07
1.52691e-07
1.50906e-07
1.48811e-07
1.46445e-07
1.43857e-07
1.41101e-07
1.38201e-07
1.35176e-07
1.32051e-07
1.28948e-07
1.25756e-07
1.2259e-07
3.1899e-08
3.28244e-08
3.42014e-08
3.60589e-08
3.84379e-08
4.13142e-08
4.46258e-08
4.83102e-08
5.23099e-08
5.65643e-08
6.10073e-08
6.5571e-08
7.01888e-08
7.47886e-08
7.92876e-08
8.36076e-08
8.76845e-08
9.14492e-08
9.48313e-08
9.77982e-08
1.00191e-07
1.02045e-07
1.03562e-07
1.04598e-07
1.05159e-07
1.05313e-07
1.05109e-07
1.04576e-07
1.03747e-07
1.02658e-07
1.01346e-07
9.98445e-08
9.81796e-08
9.63832e-08
9.4489e-08
9.2512e-08
9.04655e-08
8.83617e-08
8.62815e-08
8.41617e-08
8.19874e-08
2.20115e-08
2.27414e-08
2.38219e-08
2.52225e-08
2.69741e-08
2.90656e-08
3.14511e-08
3.40825e-08
3.69161e-08
3.99067e-08
4.30052e-08
4.61622e-08
4.93291e-08
5.24563e-08
5.54877e-08
5.83696e-08
6.10602e-08
6.35169e-08
6.56957e-08
6.75778e-08
6.90625e-08
7.0177e-08
7.10701e-08
7.16434e-08
7.19029e-08
7.18974e-08
7.16607e-08
7.12135e-08
7.05775e-08
6.97772e-08
6.88367e-08
6.77786e-08
6.66198e-08
6.53806e-08
6.40831e-08
6.27367e-08
6.13501e-08
5.99292e-08
5.85273e-08
5.71199e-08
5.55792e-08
1.51833e-08
1.57676e-08
1.66189e-08
1.76847e-08
1.8988e-08
2.05245e-08
2.226e-08
2.41573e-08
2.61832e-08
2.83037e-08
3.04824e-08
3.2683e-08
3.48703e-08
3.70093e-08
3.90619e-08
4.09912e-08
4.27695e-08
4.43704e-08
4.57667e-08
4.69474e-08
4.78497e-08
4.84955e-08
4.8994e-08
4.92792e-08
4.93573e-08
4.92638e-08
4.90231e-08
4.86499e-08
4.81592e-08
4.75675e-08
4.68907e-08
4.61437e-08
4.53374e-08
4.44844e-08
4.35988e-08
4.26858e-08
4.17519e-08
4.0798e-08
3.98628e-08
3.8924e-08
3.78797e-08
1.04665e-08
1.09389e-08
1.16118e-08
1.243e-08
1.34101e-08
1.45505e-08
1.58254e-08
1.72067e-08
1.86687e-08
2.01861e-08
2.17318e-08
2.32795e-08
2.4804e-08
2.62819e-08
2.76881e-08
2.89977e-08
3.01936e-08
3.12603e-08
3.21817e-08
3.2952e-08
3.35321e-08
3.39354e-08
3.42416e-08
3.44046e-08
3.44288e-08
3.43392e-08
3.41526e-08
3.3879e-08
3.35283e-08
3.31118e-08
3.264e-08
3.21229e-08
3.15678e-08
3.09828e-08
3.03776e-08
2.97557e-08
2.91211e-08
2.84735e-08
2.78381e-08
2.72173e-08
2.64371e-08
7.20934e-09
7.59334e-09
8.12636e-09
8.7598e-09
9.50446e-09
1.03592e-08
1.13046e-08
1.23191e-08
1.33835e-08
1.4479e-08
1.55854e-08
1.66831e-08
1.77534e-08
1.87789e-08
1.97425e-08
2.0627e-08
2.14208e-08
2.21149e-08
2.27004e-08
2.31744e-08
2.35143e-08
2.37321e-08
2.38856e-08
2.39442e-08
2.39122e-08
2.38078e-08
2.36433e-08
2.34257e-08
2.31617e-08
2.28587e-08
2.25237e-08
2.21629e-08
2.17808e-08
2.13824e-08
2.09735e-08
2.05555e-08
2.01322e-08
1.97005e-08
1.9283e-08
1.88603e-08
1.83691e-08
4.96144e-09
5.27435e-09
5.69714e-09
6.19073e-09
6.76133e-09
7.40752e-09
8.11436e-09
8.86542e-09
9.64653e-09
1.0444e-08
1.12434e-08
1.20312e-08
1.27943e-08
1.35222e-08
1.42049e-08
1.48312e-08
1.53938e-08
1.58871e-08
1.63055e-08
1.66471e-08
1.68972e-08
1.70601e-08
1.71787e-08
1.72302e-08
1.7218e-08
1.71546e-08
1.70486e-08
1.69047e-08
1.67278e-08
1.6523e-08
1.62953e-08
1.60492e-08
1.57881e-08
1.55152e-08
1.52352e-08
1.49493e-08
1.46595e-08
1.43642e-08
1.4075e-08
1.38061e-08
1.33819e-08
3.41119e-09
3.66739e-09
4.00407e-09
4.39061e-09
4.82936e-09
5.31933e-09
5.85009e-09
6.40964e-09
6.98706e-09
7.5718e-09
8.15333e-09
8.72135e-09
9.26538e-09
9.77454e-09
1.02395e-08
1.06535e-08
1.10133e-08
1.1318e-08
1.15664e-08
1.17586e-08
1.18873e-08
1.19597e-08
1.20047e-08
1.20078e-08
1.19715e-08
1.1905e-08
1.18142e-08
1.17022e-08
1.1572e-08
1.14268e-08
1.12694e-08
1.11025e-08
1.0928e-08
1.07475e-08
1.05636e-08
1.03761e-08
1.0188e-08
9.99444e-09
9.81299e-09
9.61251e-09
9.41249e-09
2.34607e-09
2.55695e-09
2.82698e-09
3.13159e-09
3.46931e-09
3.83932e-09
4.23576e-09
4.65177e-09
5.08037e-09
5.51348e-09
5.94245e-09
6.36028e-09
6.76296e-09
7.14926e-09
7.51644e-09
7.85623e-09
8.16063e-09
8.42532e-09
8.64795e-09
8.82892e-09
8.96281e-09
9.04924e-09
9.11233e-09
9.14106e-09
9.13778e-09
9.1093e-09
9.06013e-09
8.99285e-09
8.90998e-09
8.81426e-09
8.70828e-09
8.59434e-09
8.47405e-09
8.349e-09
8.22158e-09
8.09251e-09
7.96232e-09
7.83073e-09
7.69953e-09
7.59814e-09
7.3297e-09
1.62147e-09
1.79323e-09
2.00822e-09
2.24779e-09
2.50806e-09
2.78751e-09
3.0821e-09
3.388e-09
3.70242e-09
4.02182e-09
4.33999e-09
4.64713e-09
4.93114e-09
5.18061e-09
5.3915e-09
5.57031e-09
5.72493e-09
5.85719e-09
5.96645e-09
6.05084e-09
6.10804e-09
6.14211e-09
6.16515e-09
6.16985e-09
6.15733e-09
6.13182e-09
6.09602e-09
6.05124e-09
5.99865e-09
5.93957e-09
5.8752e-09
5.80646e-09
5.73418e-09
5.65892e-09
5.58163e-09
5.50174e-09
5.42196e-09
5.33652e-09
5.26328e-09
5.15108e-09
5.12509e-09
1.1301e-09
1.26682e-09
1.43206e-09
1.61329e-09
1.80845e-09
2.01808e-09
2.23945e-09
2.46796e-09
2.69916e-09
2.93049e-09
3.16267e-09
3.39979e-09
3.64679e-09
3.90605e-09
4.17018e-09
4.41668e-09
4.62808e-09
4.80445e-09
4.94928e-09
5.06691e-09
5.15573e-09
5.21383e-09
5.25655e-09
5.27906e-09
5.28355e-09
5.27401e-09
5.25316e-09
5.22272e-09
5.18437e-09
5.13985e-09
5.09079e-09
5.03863e-09
4.98436e-09
4.92892e-09
4.87376e-09
4.81978e-09
4.76608e-09
4.71535e-09
4.65846e-09
4.65359e-09
4.42873e-09
7.87745e-10
8.99125e-10
1.02531e-09
1.15613e-09
1.29185e-09
1.43729e-09
1.59539e-09
1.76629e-09
1.94651e-09
2.12766e-09
2.29701e-09
2.44073e-09
2.54949e-09
2.62201e-09
2.67086e-09
2.72466e-09
2.79656e-09
2.87492e-09
2.95066e-09
3.01787e-09
3.07499e-09
3.12386e-09
3.1667e-09
3.20003e-09
3.22396e-09
3.24024e-09
3.25002e-09
3.25383e-09
3.25213e-09
3.24549e-09
3.23442e-09
3.21925e-09
3.20041e-09
3.17802e-09
3.15248e-09
3.12308e-09
3.09261e-09
3.05408e-09
3.02933e-09
2.94e-09
3.03555e-09
5.47243e-10
6.48917e-10
7.58342e-10
8.62409e-10
9.58348e-10
1.05035e-09
1.14348e-09
1.24337e-09
1.35678e-09
1.49135e-09
1.65467e-09
1.85252e-09
2.08543e-09
2.34767e-09
2.61857e-09
2.84757e-09
3.01204e-09
3.13858e-09
3.23889e-09
3.31852e-09
3.37554e-09
3.41093e-09
3.43379e-09
3.44285e-09
3.44048e-09
3.42948e-09
3.41189e-09
3.38923e-09
3.363e-09
3.33467e-09
3.30554e-09
3.27684e-09
3.24934e-09
3.22389e-09
3.20155e-09
3.18375e-09
3.16818e-09
3.16165e-09
3.14181e-09
3.21008e-09
2.9589e-09
4.00131e-10
4.85879e-10
5.78202e-10
6.70225e-10
7.57667e-10
8.3823e-10
9.08519e-10
9.65314e-10
1.00738e-09
1.03589e-09
1.05392e-09
1.06545e-09
1.07473e-09
1.08261e-09
1.09304e-09
1.13183e-09
1.20166e-09
1.28148e-09
1.36401e-09
1.44407e-09
1.52002e-09
1.59148e-09
1.65892e-09
1.72125e-09
1.77762e-09
1.82818e-09
1.87307e-09
1.91219e-09
1.94537e-09
1.97249e-09
1.99343e-09
2.00799e-09
2.01614e-09
2.01749e-09
2.01215e-09
1.99927e-09
1.98133e-09
1.95048e-09
1.93129e-09
1.82816e-09
1.96666e-09
4.70354e-10
5.93271e-10
6.64543e-10
6.77949e-10
6.58748e-10
6.45198e-10
6.70029e-10
7.51328e-10
8.91086e-10
1.07824e-09
1.29372e-09
1.51613e-09
1.72604e-09
1.91248e-09
2.06479e-09
2.14158e-09
2.14648e-09
2.11824e-09
2.07563e-09
2.02613e-09
1.96727e-09
1.91458e-09
1.85799e-09
1.80099e-09
1.74531e-09
1.69139e-09
1.63936e-09
1.58939e-09
1.54158e-09
1.49588e-09
1.45211e-09
1.41012e-09
1.36937e-09
1.32948e-09
1.29044e-09
1.25275e-09
1.21356e-09
1.17762e-09
1.12857e-09
1.13293e-09
9.43312e-10
546.243
367.756
211.608
116.268
58.064
25.7349
9.64301
2.69211
0.409134
0.0348318
0.0157587
7.77253e-05
1.29455e-08
2.61832e-06
6.20752e-05
4.15787e-05
2.79627e-05
2.21311e-05
1.7137e-05
1.29909e-05
9.8205e-06
7.38938e-06
5.52981e-06
4.11553e-06
3.04706e-06
2.24243e-06
1.6407e-06
1.19123e-06
8.58477e-07
6.13631e-07
4.35063e-07
3.05925e-07
2.13378e-07
1.47628e-07
1.01326e-07
6.89387e-08
4.64723e-08
3.10032e-08
2.04574e-08
1.33177e-08
8.54801e-09
5.39966e-09
3.3465e-09
2.03038e-09
1.2043e-09
6.96397e-10
3.94809e-10
2.22922e-10
1.30011e-10
8.46611e-11
6.67352e-11
6.30682e-11
6.6492e-11
7.24972e-11
7.88531e-11
8.43369e-11
8.86546e-11
9.156e-11
9.34864e-11
9.42889e-11
9.46447e-11
9.41973e-11
9.37271e-11
9.29551e-11
9.22133e-11
9.12235e-11
9.09478e-11
8.88115e-11
9.09524e-11
8.4337e-11
9.54501e-11
7.72024e-11
1.17628e-10
8.88517e-11
294.145
437.777
310.67
189.359
106.191
54.458
24.961
9.64861
2.75196
0.423322
0.0349982
0.01198
9.6059e-10
7.45647e-09
8.03112e-07
4.83492e-05
3.54027e-05
2.20176e-05
1.70071e-05
1.31953e-05
9.96619e-06
7.47961e-06
5.59651e-06
4.16376e-06
3.08107e-06
2.26637e-06
1.65767e-06
1.20331e-06
8.66892e-07
6.19479e-07
4.39073e-07
3.08671e-07
2.15244e-07
1.48895e-07
1.02194e-07
6.9539e-08
4.68918e-08
3.12981e-08
2.06676e-08
1.34664e-08
8.65003e-09
5.47291e-09
3.3974e-09
2.0656e-09
1.229e-09
7.13182e-10
4.06694e-10
2.31083e-10
1.35742e-10
8.87093e-11
6.97046e-11
6.53009e-11
6.8245e-11
7.39228e-11
8.00759e-11
8.5385e-11
8.96038e-11
9.24149e-11
9.42695e-11
9.49838e-11
9.52769e-11
9.47426e-11
9.41721e-11
9.33385e-11
9.24945e-11
9.13965e-11
9.10788e-11
8.8696e-11
9.09945e-11
8.37513e-11
9.57176e-11
7.55594e-11
1.18302e-10
8.76262e-11
100.04
304.971
320.82
239.278
154.739
90.9994
48.7594
23.2169
9.23931
2.69232
0.425988
0.0352461
0.00936014
0.00223805
7.16837e-09
4.693e-09
3.08421e-05
2.95166e-05
1.77245e-05
1.3021e-05
1.01097e-05
7.618e-06
5.67692e-06
4.22094e-06
3.1239e-06
2.29687e-06
1.67847e-06
1.21816e-06
8.77301e-07
6.2669e-07
4.43972e-07
3.11969e-07
2.17468e-07
1.5039e-07
1.03193e-07
7.02218e-08
4.73587e-08
3.1622e-08
2.08908e-08
1.36248e-08
8.75687e-09
5.54684e-09
3.44824e-09
2.10025e-09
1.25246e-09
7.29128e-10
4.17729e-10
2.38286e-10
1.40748e-10
9.23146e-11
7.22962e-11
6.73044e-11
6.98656e-11
7.52993e-11
8.1246e-11
8.65236e-11
9.06032e-11
9.33871e-11
9.51117e-11
9.5807e-11
9.59296e-11
9.5446e-11
9.4716e-11
9.3762e-11
9.28733e-11
9.1568e-11
9.13092e-11
8.86359e-11
9.10519e-11
8.32079e-11
9.59275e-11
7.40191e-11
1.18591e-10
8.64287e-11
38.2015
176.219
262.136
246.885
188.528
127.608
78.6661
44.0301
21.7739
8.95542
2.70241
0.455438
0.0381249
0.00836915
3.57935e-08
1.69836e-11
1.07075e-07
1.50502e-05
2.44786e-05
1.4459e-05
9.94762e-06
7.68533e-06
5.81571e-06
4.30123e-06
3.17224e-06
2.33377e-06
1.70566e-06
1.23713e-06
8.90286e-07
6.35628e-07
4.50046e-07
3.16029e-07
2.2015e-07
1.52153e-07
1.04353e-07
7.09948e-08
4.78773e-08
3.19744e-08
2.11293e-08
1.37888e-08
8.86792e-09
5.62205e-09
3.4993e-09
2.1351e-09
1.27607e-09
7.45431e-10
4.29083e-10
2.46047e-10
1.4631e-10
9.65011e-11
7.54485e-11
6.98437e-11
7.19734e-11
7.71205e-11
8.28433e-11
8.79662e-11
9.1887e-11
9.45669e-11
9.61445e-11
9.67561e-11
9.67189e-11
9.61827e-11
9.53043e-11
9.42079e-11
9.32412e-11
9.1743e-11
9.14779e-11
8.85348e-11
9.10474e-11
8.261e-11
9.60479e-11
7.24452e-11
1.188e-10
8.52497e-11
18.3758
95.9795
183.657
215.651
195.916
153.274
108.081
69.5928
40.6124
20.8938
8.95319
2.85125
0.531642
0.0477696
0.00808532
0.00238326
0
4.6668e-08
6.65485e-06
1.87356e-05
1.23961e-05
7.67321e-06
5.74743e-06
4.41146e-06
3.26304e-06
2.37871e-06
1.73292e-06
1.25788e-06
9.05437e-07
6.45936e-07
4.56896e-07
3.20582e-07
2.23148e-07
1.54105e-07
1.05621e-07
7.18243e-08
4.84278e-08
3.23451e-08
2.13796e-08
1.39578e-08
8.98272e-09
5.69956e-09
3.55174e-09
2.17106e-09
1.30069e-09
7.62685e-10
4.4124e-10
2.54717e-10
1.52696e-10
1.01407e-10
7.92509e-11
7.29497e-11
7.45618e-11
7.93458e-11
8.4804e-11
8.96484e-11
9.33825e-11
9.58777e-11
9.72937e-11
9.77514e-11
9.75714e-11
9.6883e-11
9.58622e-11
9.46204e-11
9.35351e-11
9.18713e-11
9.15332e-11
8.83425e-11
9.09379e-11
8.19256e-11
9.60385e-11
7.08116e-11
1.18914e-10
8.40789e-11
10.7217
52.0373
116.715
164.966
176.802
159.7
128.374
94.0361
63.0909
38.3893
20.6328
9.30655
3.19053
0.681905
0.0713484
0.00861813
0.00286108
2.01614e-06
1.59147e-08
6.77201e-07
1.12798e-05
1.09331e-05
6.27348e-06
4.21091e-06
3.23785e-06
2.44977e-06
1.78334e-06
1.28233e-06
9.20306e-07
6.5705e-07
4.64819e-07
3.25781e-07
2.26461e-07
1.5623e-07
1.06999e-07
7.2722e-08
4.90161e-08
3.27366e-08
2.16425e-08
1.41351e-08
9.10313e-09
5.78089e-09
3.60679e-09
2.20883e-09
1.3268e-09
7.81082e-10
4.54326e-10
2.64227e-10
1.59809e-10
1.06864e-10
8.35432e-11
7.6438e-11
7.74522e-11
8.17936e-11
8.69096e-11
9.14472e-11
9.49433e-11
9.72159e-11
9.84364e-11
9.87125e-11
9.83669e-11
9.75065e-11
9.6334e-11
9.49433e-11
9.37266e-11
9.19e-11
9.14702e-11
8.80455e-11
9.07099e-11
8.11605e-11
9.58772e-11
6.91495e-11
1.18848e-10
8.29308e-11
7.4927
28.7134
69.9526
113.881
141.177
146.034
133.127
110.1
83.6663
58.4582
37.1586
20.9779
10.0649
3.78033
0.949482
0.125539
0.0122655
0.000342174
0.000287162
8.2749e-10
3.46165e-08
3.03174e-06
8.92504e-06
5.93367e-06
3.36286e-06
2.32869e-06
1.77754e-06
1.32191e-06
9.47467e-07
6.70276e-07
4.72662e-07
3.31466e-07
2.30418e-07
1.5874e-07
1.08537e-07
7.3689e-08
4.96477e-08
3.31596e-08
2.19259e-08
1.43252e-08
9.23151e-09
5.86745e-09
3.66552e-09
2.24928e-09
1.35492e-09
8.01002e-10
4.68632e-10
2.74731e-10
1.6772e-10
1.12931e-10
8.83309e-11
8.02966e-11
8.06167e-11
8.44289e-11
8.91162e-11
9.33185e-11
9.65192e-11
9.85388e-11
9.9526e-11
9.96044e-11
9.90628e-11
9.80327e-11
9.66976e-11
9.51505e-11
9.38029e-11
9.18087e-11
9.12888e-11
8.76427e-11
9.03576e-11
8.03206e-11
9.55563e-11
6.74821e-11
1.18578e-10
8.18018e-11
6.02907
16.2783
40.498
72.6903
101.599
118.64
121.593
112.676
95.9791
75.6581
55.0977
36.6878
21.8772
11.2656
4.69368
1.40106
0.24713
0.0239412
0.00172626
0.000850851
8.94634e-11
5.22186e-09
2.34988e-08
3.21204e-06
5.17252e-06
3.14298e-06
1.81863e-06
1.2663e-06
9.4968e-07
6.92908e-07
4.87694e-07
3.38397e-07
2.34117e-07
1.61332e-07
1.10377e-07
7.48728e-08
5.03709e-08
3.36134e-08
2.2226e-08
1.45302e-08
9.37209e-09
5.96219e-09
3.72945e-09
2.2933e-09
1.38575e-09
8.23074e-10
4.84645e-10
2.86603e-10
1.7668e-10
1.19835e-10
9.37608e-11
8.46379e-11
8.41311e-11
8.73082e-11
9.14806e-11
9.52748e-11
9.81226e-11
9.98464e-11
1.00565e-10
1.0042e-10
9.96637e-11
9.8453e-11
9.69476e-11
9.5235e-11
9.37544e-11
9.15951e-11
9.09839e-11
8.7133e-11
8.98752e-11
7.94065e-11
9.50692e-11
6.58173e-11
1.18115e-10
8.06682e-11
5.08778
9.51475
22.828
43.5741
66.894
86.6505
98.6627
101.514
96.0412
84.3641
69.0346
52.4751
36.7081
23.2289
12.9193
6.00762
2.13795
0.503477
0.0651375
0.00557044
2.09409e-07
0.000153428
2.17794e-11
6.79589e-09
1.69237e-07
2.36347e-06
2.76272e-06
1.63962e-06
9.59104e-07
6.61525e-07
4.88399e-07
3.51286e-07
2.43004e-07
1.65122e-07
1.11957e-07
7.58648e-08
5.11378e-08
3.41618e-08
2.25808e-08
1.4755e-08
9.52095e-09
6.06403e-09
3.8003e-09
2.34285e-09
1.42045e-09
8.47965e-10
5.02822e-10
3.0022e-10
1.87006e-10
1.27805e-10
9.9997e-11
8.95825e-11
8.80839e-11
9.0494e-11
9.40503e-11
9.73412e-11
9.97718e-11
1.01147e-10
1.0156e-10
1.0116e-10
1.00173e-10
9.87628e-11
9.70799e-11
9.51967e-11
9.35776e-11
9.126e-11
9.05514e-11
8.65163e-11
8.92597e-11
7.84234e-11
9.44088e-11
6.41632e-11
1.17462e-10
7.95035e-11
3.99167
5.56092
12.3426
24.4978
40.5434
57.3229
71.6006
80.9705
84.3063
81.6917
74.1058
63.0169
50.0735
36.8864
24.8494
14.9751
7.78226
3.27765
1.00725
0.193451
0.02133
0.00127031
0.000587828
1.17997e-05