/*--------------------------------*- C++ -*----------------------------------*\
| =========                 |                                                 |
| \\      /  F ield         | OpenFOAM: The Open Source CFD Toolbox           |
|  \\    /   O peration     | Version:  2312                                  |
|   \\  /    A nd           | Website:  www.openfoam.com                      |
|    \\/     M anipulation  |                                                 |
\*---------------------------------------------------------------------------*/
FoamFile
{
    version     2.0;
    format      ascii;
    arch        "LSB;label=32;scalar=64";
    class       volScalarField;
    location    "1000";
    object      turbulenceProperties:nut;
}
// * * * * * * * * * * * * * * * * * * * * * * * * * * * * * * * * * * * * * //

dimensions      [0 2 -1 0 0 0 0];

internalField   nonuniform List<scalar> 
11040
(
3.79335e-05
5.48801e-05
1.54254e-05
4.8645e-05
0.00018809
0.000181117
0.000171449
0.000161298
0.000148697
0.000140862
0.000132804
0.000125767
0.000119404
0.000114408
0.000110104
0.000107784
0.000107509
0.00010923
0.000112477
0.000117037
0.00012299
0.000130124
0.000138154
0.000146877
0.000156394
0.00016768
0.000180624
0.000193318
0.000205207
0.000215714
0.000224218
0.000230092
0.000234201
0.000241095
0.0002605
0.000247969
0.000171478
0.000180758
0.00019976
0.000219977
0.000294822
4.20308e-06
3.69407e-05
5.59729e-05
0.000143308
0.000601596
0.000627781
0.000551964
0.000508106
0.000442072
0.000406541
0.000370079
0.00034159
0.000314793
0.000294579
0.000275602
0.000262423
0.000255968
0.000255251
0.000257565
0.000261648
0.000267651
0.000275619
0.000283948
0.000291467
0.000299102
0.000314358
0.000341968
0.000374062
0.000410212
0.000450527
0.000495236
0.000544695
0.000598096
0.000657211
0.000724288
0.000792364
0.000861299
0.000952881
0.0010618
0.00115003
0.00161397
5.52336e-06
9.45687e-06
3.01698e-05
6.53317e-05
0.000413453
0.000965813
0.00118653
0.00114626
0.00100382
0.000928952
0.000846502
0.000785554
0.000725958
0.000682453
0.000640511
0.000607113
0.000581601
0.00056207
0.000550676
0.00054642
0.000550731
0.000564623
0.000588817
0.00062416
0.000670723
0.000728314
0.000796702
0.00087538
0.000963989
0.00106193
0.00116826
0.00128227
0.00140348
0.00153253
0.00167058
0.00181803
0.00198091
0.00218171
0.00242615
0.00266692
0.0034922
6.48204e-06
5.16691e-06
1.06847e-05
1.12526e-05
0.000139385
0.000596794
0.00130581
0.00170805
0.00177773
0.00168698
0.00154346
0.00144361
0.00133903
0.00126223
0.00118706
0.00112461
0.00107859
0.00104205
0.00102017
0.00101128
0.00101718
0.00104084
0.0010848
0.00115021
0.00123652
0.00134258
0.00146748
0.00161018
0.00176978
0.00194521
0.00213494
0.00233755
0.00255195
0.00277843
0.00301788
0.00327304
0.00355617
0.00389863
0.00431862
0.00477622
0.00594193
6.2024e-06
5.76593e-06
6.40744e-06
5.42102e-06
4.87851e-06
0.000177735
0.000710208
0.00156296
0.00225593
0.00246541
0.00247685
0.0023701
0.00220647
0.00208929
0.00197523
0.00187237
0.00180004
0.00174042
0.00170368
0.00168817
0.00169399
0.00172671
0.00179244
0.00189312
0.00202794
0.00219552
0.00239415
0.00262157
0.00287575
0.00315476
0.00345552
0.00377522
0.00411174
0.0044648
0.00483501
0.00522646
0.00565574
0.00616876
0.006799
0.00753111
0.00900235
6.09408e-06
6.18672e-06
5.89293e-06
6.59784e-06
1.69847e-06
9.14168e-07
0.000173197
0.000732715
0.00171811
0.00273411
0.0032079
0.00337715
0.00336484
0.00325561
0.00307871
0.00291645
0.00280945
0.00271784
0.00265811
0.0026326
0.00263584
0.00267535
0.00276418
0.00290615
0.00310007
0.00334473
0.0036375
0.00397407
0.0043501
0.00476252
0.00520575
0.00567442
0.00616462
0.00667503
0.00720524
0.00775998
0.00836047
0.00906533
0.00993383
0.0109853
0.0127762
6.10469e-06
6.13732e-06
6.01334e-06
6.35312e-06
5.92787e-06
4.28331e-07
3.53353e-09
0.000120552
0.000662
0.00171303
0.00301792
0.00395573
0.00433443
0.00447833
0.00447
0.00436849
0.00421953
0.00406748
0.00397192
0.00393204
0.00393072
0.00397277
0.00408318
0.00427041
0.00453239
0.00486898
0.00527722
0.00575003
0.0062781
0.00685721
0.00747804
0.00813067
0.00880805
0.00950722
0.0102255
0.0109666
0.011756
0.0126632
0.0137827
0.015177
0.0173325
6.11445e-06
6.11184e-06
6.13177e-06
6.04866e-06
6.56504e-06
6.04644e-06
1.85453e-08
3.07253e-11
5.30151e-05
0.000514857
0.00152639
0.00302969
0.00449749
0.00531222
0.00567932
0.00582425
0.00585053
0.00580028
0.00573064
0.00567324
0.00566975
0.00572562
0.00586077
0.00609784
0.00643446
0.00687456
0.00741758
0.00805521
0.00876693
0.00954803
0.0103844
0.0112581
0.0121565
0.0130745
0.0140053
0.0149486
0.015933
0.0170364
0.0183909
0.0201156
0.0226448
6.11262e-06
6.11623e-06
6.11194e-06
6.13145e-06
5.99677e-06
7.16319e-06
5.38249e-06
1.0902e-07
3.334e-07
6.13738e-07
0.000317091
0.00118559
0.00272252
0.00461166
0.00613625
0.00689948
0.00730207
0.00750672
0.00763009
0.00771262
0.00781063
0.00795076
0.00817506
0.00851249
0.00896394
0.00952944
0.0102169
0.0110313
0.0119563
0.0129732
0.0140635
0.0151967
0.0163482
0.0175106
0.0186724
0.019822
0.0209908
0.0222665
0.0237925
0.0257787
0.0286238
6.11195e-06
6.11355e-06
6.11326e-06
6.11891e-06
6.09841e-06
6.04555e-06
7.35821e-06
4.89369e-06
4.61338e-07
1.49487e-08
2.41737e-05
0.00012752
0.000778457
0.00215126
0.00420659
0.00641625
0.00799304
0.00880828
0.00932491
0.00969021
0.0100272
0.01038
0.010811
0.0113648
0.0120613
0.0129007
0.0138727
0.0149593
0.0161425
0.0174206
0.0187934
0.0202167
0.021641
0.0230567
0.0244541
0.0257946
0.0271078
0.0284975
0.0300923
0.0321867
0.0351824
6.11072e-06
6.11168e-06
6.11301e-06
6.10889e-06
6.12627e-06
6.05445e-06
6.17794e-06
7.04716e-06
5.89184e-06
1.32986e-06
7.01021e-09
5.91884e-07
2.48698e-07
0.000372844
0.00141971
0.00332901
0.0058883
0.00842763
0.0101708
0.0111814
0.0119551
0.012637
0.0133596
0.014206
0.0152304
0.0164512
0.0178645
0.0194522
0.0211796
0.0229981
0.024844
0.0266428
0.0283512
0.0300057
0.0316365
0.0331338
0.0345046
0.0359188
0.0374581
0.0393845
0.0422033
6.10931e-06
6.11017e-06
6.11e-06
6.11053e-06
6.10815e-06
6.11703e-06
6.06157e-06
6.16793e-06
6.76809e-06
6.58925e-06
2.89295e-06
2.20183e-09
1.2599e-09
2.65834e-05
9.9809e-05
0.000729024
0.00219608
0.00462944
0.00770827
0.0106908
0.0128205
0.0142022
0.0153808
0.0165872
0.0179644
0.0195772
0.0214423
0.0235569
0.0258883
0.0283815
0.0309672
0.0335646
0.0360824
0.0384287
0.0404875
0.0421351
0.0434206
0.0447554
0.0460836
0.0475618
0.0497628
6.108e-06
6.10844e-06
6.10832e-06
6.10815e-06
6.10795e-06
6.10745e-06
6.10877e-06
6.07748e-06
6.12889e-06
6.53469e-06
7.03017e-06
4.35127e-06
1.91412e-07
1.86938e-09
1.35883e-07
0.00010111
0.000225763
0.00111522
0.00298049
0.00592597
0.00960169
0.0131558
0.0158294
0.0177955
0.0196549
0.021684
0.0239611
0.0265395
0.0294059
0.0325036
0.0357609
0.039094
0.0424064
0.0456021
0.0485791
0.0512237
0.0534388
0.0551473
0.0562427
0.057008
0.0584513
6.1068e-06
6.1071e-06
6.10709e-06
6.1071e-06
6.10671e-06
6.10615e-06
6.10615e-06
6.10607e-06
6.08754e-06
6.09477e-06
6.33151e-06
7.0876e-06
5.93523e-06
1.53788e-06
2.39404e-10
6.17092e-11
1.43858e-06
0.000172186
0.000354038
0.00144482
0.00364713
0.00692306
0.0108215
0.0148623
0.0185269
0.0216201
0.0244787
0.0275123
0.0308486
0.034453
0.0382695
0.0422282
0.0462254
0.0501616
0.053935
0.0574461
0.0606053
0.0633527
0.0656189
0.067375
0.0686641
6.10575e-06
6.1065e-06
6.10663e-06
6.10664e-06
6.10628e-06
6.10593e-06
6.10545e-06
6.1056e-06
6.10501e-06
6.09732e-06
6.07065e-06
6.20875e-06
6.82826e-06
6.76563e-06
4.40899e-06
2.73416e-07
2.94016e-09
8.81996e-13
6.13038e-06
0.000218835
0.000419052
0.00154395
0.00357581
0.00657001
0.0103694
0.0147322
0.019385
0.0240258
0.0284595
0.0327535
0.0371066
0.0416174
0.0462308
0.0508378
0.0553305
0.0596109
0.0636015
0.0672656
0.0705355
0.0733564
0.0757232
6.10489e-06
6.10617e-06
6.10621e-06
6.10599e-06
6.10553e-06
6.10512e-06
6.10479e-06
6.10447e-06
6.10443e-06
6.1046e-06
6.10134e-06
6.06935e-06
6.13989e-06
6.41309e-06
7.12697e-06
5.91311e-06
2.92417e-06
1.16655e-08
5.14969e-10
6.54071e-14
9.36208e-06
0.000193297
0.000248218
0.00102162
0.00247884
0.00477166
0.00791455
0.0118824
0.0165986
0.0219539
0.0277639
0.0337415
0.039601
0.045206
0.0505484
0.0556499
0.0605035
0.065094
0.0693555
0.0732185
0.0766564
6.10414e-06
6.10545e-06
6.10531e-06
6.10476e-06
6.10426e-06
6.10387e-06
6.10358e-06
6.10335e-06
6.10322e-06
6.10293e-06
6.10414e-06
6.1005e-06
6.08648e-06
6.07565e-06
6.25329e-06
6.67936e-06
7.12709e-06
5.13009e-06
1.56071e-06
1.03446e-09
2.14971e-10
4.05766e-14
8.77588e-07
8.61135e-05
5.88581e-05
0.000352888
0.000997129
0.00225619
0.0041912
0.00689742
0.0104353
0.0148252
0.0200288
0.0259582
0.0324343
0.0391754
0.0458559
0.052245
0.0581553
0.0634937
0.0682653
6.10319e-06
6.10424e-06
6.10395e-06
6.10345e-06
6.10303e-06
6.10273e-06
6.10253e-06
6.1024e-06
6.10224e-06
6.10213e-06
6.10198e-06
6.10275e-06
6.10186e-06
6.09334e-06
6.0708e-06
6.12334e-06
6.35734e-06
6.96322e-06
6.98565e-06
4.75671e-06
1.15116e-06
7.51631e-10
2.27514e-10
7.65415e-13
8.78279e-09
1.96413e-06
4.86482e-05
0.000183319
3.30154e-05
0.000352367
0.00104659
0.00222067
0.00397384
0.00642132
0.00962112
0.013591
0.0182844
0.0236625
0.0295774
0.0358383
0.042241
6.102e-06
6.10269e-06
6.10223e-06
6.10164e-06
6.10117e-06
6.10086e-06
6.10067e-06
6.10058e-06
6.10055e-06
6.10058e-06
6.10053e-06
6.10058e-06
6.10078e-06
6.10201e-06
6.09624e-06
6.08502e-06
6.06744e-06
6.18312e-06
6.51382e-06
7.04606e-06
6.84105e-06
4.47148e-06
1.69436e-06
1.75779e-08
7.09367e-10
3.15689e-11
2.06539e-13
0
2.10126e-09
1.30307e-06
4.26088e-05
0.000148291
1.50314e-08
9.23047e-05
0.000392565
0.0010878
0.00218265
0.00376897
0.00589787
0.00859355
0.0119146
6.10073e-06
6.10111e-06
6.10055e-06
6.09995e-06
6.09952e-06
6.09926e-06
6.09912e-06
6.09907e-06
6.09909e-06
6.09913e-06
6.09921e-06
6.0993e-06
6.09935e-06
6.09964e-06
6.10011e-06
6.09961e-06
6.09014e-06
6.07353e-06
6.08124e-06
6.23543e-06
6.61942e-06
7.03538e-06
6.96726e-06
5.24598e-06
2.66763e-06
8.79072e-07
6.4562e-09
4.42103e-10
3.09515e-11
7.38056e-12
1.7932e-14
0
3.31226e-13
9.82115e-09
1.23431e-06
3.4886e-05
0.000122022
0.000229979
0.000367753
8.62639e-06
0.000370592
6.0994e-06
6.09955e-06
6.09898e-06
6.09848e-06
6.09817e-06
6.09802e-06
6.09799e-06
6.09803e-06
6.0981e-06
6.0982e-06
6.0983e-06
6.09841e-06
6.09852e-06
6.09859e-06
6.09878e-06
6.09923e-06
6.09973e-06
6.09621e-06
6.08277e-06
6.06675e-06
6.09374e-06
6.26703e-06
6.56772e-06
7.0351e-06
7.08313e-06
6.59418e-06
4.96216e-06
2.83872e-06
1.1861e-06
3.16304e-07
8.48152e-10
1.88682e-10
2.60396e-11
1.00708e-11
2.63646e-12
4.60831e-14
0
0
0
1.23443e-10
5.5483e-07
6.09804e-06
6.09809e-06
6.09764e-06
6.09733e-06
6.09721e-06
6.09724e-06
6.09735e-06
6.0975e-06
6.09765e-06
6.0978e-06
6.09795e-06
6.09807e-06
6.09819e-06
6.09829e-06
6.09838e-06
6.09846e-06
6.09879e-06
6.09938e-06
6.09894e-06
6.09324e-06
6.07692e-06
6.06798e-06
6.08763e-06
6.21043e-06
6.44746e-06
6.74413e-06
7.1171e-06
7.18618e-06
6.76566e-06
5.96862e-06
4.52424e-06
2.87746e-06
1.52459e-06
6.52477e-07
1.88566e-07
3.62471e-09
2.50395e-10
2.43724e-11
1.31345e-11
6.32544e-12
2.4344e-12
6.09673e-06
6.09682e-06
6.09661e-06
6.09657e-06
6.0967e-06
6.09693e-06
6.09719e-06
6.09745e-06
6.0977e-06
6.09791e-06
6.0981e-06
6.09826e-06
6.0984e-06
6.09851e-06
6.0986e-06
6.09867e-06
6.09873e-06
6.09886e-06
6.09929e-06
6.09985e-06
6.09843e-06
6.09162e-06
6.07863e-06
6.0649e-06
6.07553e-06
6.12443e-06
6.25088e-06
6.45822e-06
6.71338e-06
6.95594e-06
7.21957e-06
7.25884e-06
7.0108e-06
6.46506e-06
5.71254e-06
4.65059e-06
3.45832e-06
2.31791e-06
1.40311e-06
7.45683e-07
3.20093e-07
6.09552e-06
6.0958e-06
6.09592e-06
6.09619e-06
6.09658e-06
6.09699e-06
6.09739e-06
6.09776e-06
6.09808e-06
6.09836e-06
6.0986e-06
6.0988e-06
6.09896e-06
6.0991e-06
6.09921e-06
6.09931e-06
6.09938e-06
6.09942e-06
6.09948e-06
6.09966e-06
6.10021e-06
6.10044e-06
6.09926e-06
6.09386e-06
6.08385e-06
6.07204e-06
6.06398e-06
6.07247e-06
6.11256e-06
6.18646e-06
6.31096e-06
6.48249e-06
6.68212e-06
6.88855e-06
7.07102e-06
7.24969e-06
7.33007e-06
7.25999e-06
7.02324e-06
6.62185e-06
6.12193e-06
6.09447e-06
6.09507e-06
6.09557e-06
6.09614e-06
6.09674e-06
6.0973e-06
6.09781e-06
6.09826e-06
6.09864e-06
6.09897e-06
6.09926e-06
6.0995e-06
6.09971e-06
6.09988e-06
6.10002e-06
6.10015e-06
6.10025e-06
6.10033e-06
6.10039e-06
6.10042e-06
6.10053e-06
6.10078e-06
6.10123e-06
6.1016e-06
6.10094e-06
6.09836e-06
6.09269e-06
6.08373e-06
6.0735e-06
6.06547e-06
6.06295e-06
6.07241e-06
6.09937e-06
6.14856e-06
6.2194e-06
6.31628e-06
6.43715e-06
6.57932e-06
6.73241e-06
6.88665e-06
7.02578e-06
6.09363e-06
6.09463e-06
6.09549e-06
6.0963e-06
6.09705e-06
6.09771e-06
6.09829e-06
6.09879e-06
6.09923e-06
6.09961e-06
6.09994e-06
6.10022e-06
6.10047e-06
6.10069e-06
6.10087e-06
6.10103e-06
6.10118e-06
6.1013e-06
6.10141e-06
6.10149e-06
6.10157e-06
6.10165e-06
6.10176e-06
6.10199e-06
6.10236e-06
6.10276e-06
6.1029e-06
6.10227e-06
6.10021e-06
6.09643e-06
6.09067e-06
6.08318e-06
6.0749e-06
6.06732e-06
6.06224e-06
6.06117e-06
6.06598e-06
6.07942e-06
6.10262e-06
6.13897e-06
6.18008e-06
6.09304e-06
6.09444e-06
6.09558e-06
6.09655e-06
6.09739e-06
6.09811e-06
6.09874e-06
6.09929e-06
6.09977e-06
6.10019e-06
6.10057e-06
6.10089e-06
6.10118e-06
6.10144e-06
6.10167e-06
6.10187e-06
6.10206e-06
6.10222e-06
6.10238e-06
6.10251e-06
6.10265e-06
6.10277e-06
6.10287e-06
6.10296e-06
6.10307e-06
6.10324e-06
6.1035e-06
6.10385e-06
6.10421e-06
6.10445e-06
6.10437e-06
6.1037e-06
6.10223e-06
6.09975e-06
6.09621e-06
6.09165e-06
6.08626e-06
6.08022e-06
6.07403e-06
6.06834e-06
6.0638e-06
6.09269e-06
6.09442e-06
6.09574e-06
6.09679e-06
6.09768e-06
6.09845e-06
6.09912e-06
6.09971e-06
6.10023e-06
6.1007e-06
6.10112e-06
6.10149e-06
6.10182e-06
6.10212e-06
6.1024e-06
6.10264e-06
6.10287e-06
6.10308e-06
6.10327e-06
6.10345e-06
6.10364e-06
6.1038e-06
6.10396e-06
6.10409e-06
6.10421e-06
6.10432e-06
6.10443e-06
6.10455e-06
6.10472e-06
6.10493e-06
6.1052e-06
6.10552e-06
6.10584e-06
6.10612e-06
6.10626e-06
6.10619e-06
6.10584e-06
6.1051e-06
6.10394e-06
6.10214e-06
6.10039e-06
6.09253e-06
6.09446e-06
6.09586e-06
6.09697e-06
6.09789e-06
6.0987e-06
6.09941e-06
6.10005e-06
6.10062e-06
6.10113e-06
6.10159e-06
6.10201e-06
6.10239e-06
6.10273e-06
6.10305e-06
6.10334e-06
6.10361e-06
6.10386e-06
6.1041e-06
6.10431e-06
6.10454e-06
6.10475e-06
6.10494e-06
6.10512e-06
6.10528e-06
6.10543e-06
6.10557e-06
6.1057e-06
6.10582e-06
6.10594e-06
6.10606e-06
6.10619e-06
6.10635e-06
6.10653e-06
6.10674e-06
6.10698e-06
6.10725e-06
6.10752e-06
6.10779e-06
6.10803e-06
6.10824e-06
6.09247e-06
6.09449e-06
6.09592e-06
6.09705e-06
6.09802e-06
6.09886e-06
6.09962e-06
6.1003e-06
6.10091e-06
6.10147e-06
6.10198e-06
6.10245e-06
6.10287e-06
6.10327e-06
6.10363e-06
6.10396e-06
6.10427e-06
6.10457e-06
6.10484e-06
6.1051e-06
6.10537e-06
6.10562e-06
6.10584e-06
6.10606e-06
6.10626e-06
6.10645e-06
6.10662e-06
6.10679e-06
6.10695e-06
6.10709e-06
6.10723e-06
6.10736e-06
6.10749e-06
6.10762e-06
6.10774e-06
6.10786e-06
6.10799e-06
6.10813e-06
6.10828e-06
6.10844e-06
6.10861e-06
6.09243e-06
6.09444e-06
6.09589e-06
6.09705e-06
6.09805e-06
6.09893e-06
6.09973e-06
6.10045e-06
6.10112e-06
6.10173e-06
6.10229e-06
6.1028e-06
6.10328e-06
6.10372e-06
6.10413e-06
6.10451e-06
6.10486e-06
6.1052e-06
6.10552e-06
6.10582e-06
6.10613e-06
6.10641e-06
6.10668e-06
6.10692e-06
6.10716e-06
6.10738e-06
6.10758e-06
6.10778e-06
6.10797e-06
6.10815e-06
6.10832e-06
6.10849e-06
6.10865e-06
6.1088e-06
6.10894e-06
6.10909e-06
6.10922e-06
6.10936e-06
6.10949e-06
6.10961e-06
6.10975e-06
6.0923e-06
6.0943e-06
6.09577e-06
6.09695e-06
6.09797e-06
6.09889e-06
6.09973e-06
6.10051e-06
6.10123e-06
6.10189e-06
6.1025e-06
6.10307e-06
6.1036e-06
6.10409e-06
6.10455e-06
6.10498e-06
6.10538e-06
6.10576e-06
6.10612e-06
6.10647e-06
6.10681e-06
6.10713e-06
6.10744e-06
6.10772e-06
6.10798e-06
6.10824e-06
6.10847e-06
6.1087e-06
6.10892e-06
6.10913e-06
6.10932e-06
6.10952e-06
6.1097e-06
6.10988e-06
6.11005e-06
6.11022e-06
6.11038e-06
6.11054e-06
6.1107e-06
6.11085e-06
6.11101e-06
6.09209e-06
6.09408e-06
6.09554e-06
6.09673e-06
6.09778e-06
6.09874e-06
6.09963e-06
6.10046e-06
6.10124e-06
6.10196e-06
6.10263e-06
6.10326e-06
6.10384e-06
6.10439e-06
6.1049e-06
6.10538e-06
6.10583e-06
6.10625e-06
6.10666e-06
6.10705e-06
6.10743e-06
6.1078e-06
6.10813e-06
6.10845e-06
6.10875e-06
6.10903e-06
6.1093e-06
6.10956e-06
6.1098e-06
6.11004e-06
6.11026e-06
6.11048e-06
6.11068e-06
6.11089e-06
6.11108e-06
6.11127e-06
6.11145e-06
6.11163e-06
6.11181e-06
6.11198e-06
6.11216e-06
6.09179e-06
6.09374e-06
6.09519e-06
6.09639e-06
6.09748e-06
6.09848e-06
6.09942e-06
6.10031e-06
6.10115e-06
6.10193e-06
6.10267e-06
6.10336e-06
6.104e-06
6.10461e-06
6.10517e-06
6.10571e-06
6.10621e-06
6.10668e-06
6.10714e-06
6.10757e-06
6.108e-06
6.1084e-06
6.10877e-06
6.10913e-06
6.10946e-06
6.10978e-06
6.11007e-06
6.11036e-06
6.11063e-06
6.11089e-06
6.11114e-06
6.11138e-06
6.11161e-06
6.11183e-06
6.11205e-06
6.11226e-06
6.11246e-06
6.11266e-06
6.11286e-06
6.11304e-06
6.11324e-06
6.09138e-06
6.09328e-06
6.09471e-06
6.09593e-06
6.09704e-06
6.09809e-06
6.09909e-06
6.10005e-06
6.10095e-06
6.1018e-06
6.1026e-06
6.10336e-06
6.10407e-06
6.10474e-06
6.10537e-06
6.10596e-06
6.10652e-06
6.10704e-06
6.10755e-06
6.10803e-06
6.1085e-06
6.10894e-06
6.10936e-06
6.10975e-06
6.11012e-06
6.11046e-06
6.11079e-06
6.11111e-06
6.11141e-06
6.11169e-06
6.11197e-06
6.11223e-06
6.11248e-06
6.11273e-06
6.11297e-06
6.1132e-06
6.11342e-06
6.11363e-06
6.11385e-06
6.11405e-06
6.11427e-06
6.09084e-06
6.09268e-06
6.09409e-06
6.09532e-06
6.09648e-06
6.09758e-06
6.09864e-06
6.09965e-06
6.10062e-06
6.10155e-06
6.10242e-06
6.10325e-06
6.10403e-06
6.10476e-06
6.10545e-06
6.10611e-06
6.10673e-06
6.10731e-06
6.10787e-06
6.1084e-06
6.10892e-06
6.10941e-06
6.10987e-06
6.1103e-06
6.1107e-06
6.11109e-06
6.11145e-06
6.11179e-06
6.11212e-06
6.11243e-06
6.11273e-06
6.11302e-06
6.1133e-06
6.11356e-06
6.11382e-06
6.11407e-06
6.11431e-06
6.11454e-06
6.11477e-06
6.11499e-06
6.11522e-06
6.09017e-06
6.09193e-06
6.09332e-06
6.09457e-06
6.09576e-06
6.09691e-06
6.09803e-06
6.09911e-06
6.10015e-06
6.10114e-06
6.10208e-06
6.10298e-06
6.10383e-06
6.10464e-06
6.1054e-06
6.10612e-06
6.1068e-06
6.10745e-06
6.10807e-06
6.10865e-06
6.10922e-06
6.10976e-06
6.11026e-06
6.11074e-06
6.11118e-06
6.1116e-06
6.112e-06
6.11238e-06
6.11274e-06
6.11308e-06
6.1134e-06
6.11372e-06
6.11402e-06
6.1143e-06
6.11458e-06
6.11485e-06
6.11511e-06
6.11536e-06
6.1156e-06
6.11584e-06
6.11608e-06
6.08934e-06
6.09103e-06
6.0924e-06
6.09366e-06
6.09488e-06
6.09608e-06
6.09724e-06
6.09838e-06
6.09947e-06
6.10053e-06
6.10154e-06
6.10251e-06
6.10343e-06
6.10431e-06
6.10514e-06
6.10593e-06
6.10669e-06
6.1074e-06
6.10808e-06
6.10872e-06
6.10935e-06
6.10994e-06
6.11049e-06
6.11101e-06
6.1115e-06
6.11196e-06
6.11239e-06
6.11281e-06
6.1132e-06
6.11357e-06
6.11392e-06
6.11426e-06
6.11458e-06
6.11489e-06
6.11519e-06
6.11548e-06
6.11575e-06
6.11602e-06
6.11628e-06
6.11652e-06
6.11678e-06
6.08835e-06
6.08996e-06
6.0913e-06
6.09257e-06
6.09381e-06
6.09503e-06
6.09623e-06
6.0974e-06
6.09855e-06
6.09966e-06
6.10074e-06
6.10177e-06
6.10277e-06
6.10372e-06
6.10462e-06
6.10548e-06
6.1063e-06
6.10709e-06
6.10783e-06
6.10854e-06
6.10922e-06
6.10987e-06
6.11047e-06
6.11104e-06
6.11157e-06
6.11207e-06
6.11255e-06
6.11299e-06
6.11342e-06
6.11382e-06
6.1142e-06
6.11457e-06
6.11492e-06
6.11525e-06
6.11557e-06
6.11587e-06
6.11617e-06
6.11645e-06
6.11672e-06
6.11698e-06
6.11725e-06
6.08718e-06
6.0887e-06
6.09002e-06
6.09127e-06
6.09251e-06
6.09374e-06
6.09495e-06
6.09615e-06
6.09733e-06
6.09848e-06
6.09961e-06
6.10071e-06
6.10177e-06
6.10279e-06
6.10377e-06
6.1047e-06
6.10559e-06
6.10644e-06
6.10725e-06
6.10802e-06
6.10877e-06
6.10947e-06
6.11012e-06
6.11074e-06
6.11132e-06
6.11187e-06
6.11238e-06
6.11287e-06
6.11333e-06
6.11376e-06
6.11417e-06
6.11456e-06
6.11493e-06
6.11528e-06
6.11562e-06
6.11594e-06
6.11624e-06
6.11654e-06
6.11682e-06
6.11708e-06
6.11735e-06
6.08581e-06
6.08725e-06
6.08851e-06
6.08974e-06
6.09094e-06
6.09215e-06
6.09335e-06
6.09455e-06
6.09576e-06
6.09695e-06
6.09812e-06
6.09927e-06
6.10039e-06
6.10148e-06
6.10252e-06
6.10352e-06
6.10448e-06
6.1054e-06
6.10628e-06
6.10711e-06
6.10791e-06
6.10867e-06
6.10938e-06
6.11004e-06
6.11067e-06
6.11126e-06
6.11181e-06
6.11233e-06
6.11282e-06
6.11329e-06
6.11373e-06
6.11414e-06
6.11454e-06
6.11491e-06
6.11527e-06
6.11561e-06
6.11593e-06
6.11624e-06
6.11654e-06
6.11682e-06
6.1171e-06
6.08424e-06
6.08557e-06
6.08677e-06
6.08792e-06
6.08906e-06
6.09022e-06
6.0914e-06
6.09259e-06
6.0938e-06
6.09502e-06
6.09622e-06
6.09742e-06
6.09859e-06
6.09973e-06
6.10084e-06
6.10191e-06
6.10293e-06
6.10391e-06
6.10485e-06
6.10575e-06
6.10661e-06
6.10742e-06
6.10818e-06
6.1089e-06
6.10957e-06
6.11021e-06
6.1108e-06
6.11136e-06
6.11189e-06
6.11238e-06
6.11285e-06
6.11328e-06
6.1137e-06
6.11408e-06
6.11445e-06
6.1148e-06
6.11513e-06
6.11543e-06
6.11573e-06
6.116e-06
6.11628e-06
6.08244e-06
6.08365e-06
6.08474e-06
6.08579e-06
6.08685e-06
6.08794e-06
6.08907e-06
6.09024e-06
6.09144e-06
6.09266e-06
6.09388e-06
6.09511e-06
6.09632e-06
6.09751e-06
6.09867e-06
6.0998e-06
6.10088e-06
6.10192e-06
6.10292e-06
6.10387e-06
6.10478e-06
6.10563e-06
6.10644e-06
6.1072e-06
6.10791e-06
6.10858e-06
6.10921e-06
6.1098e-06
6.11036e-06
6.11088e-06
6.11137e-06
6.11183e-06
6.11226e-06
6.11267e-06
6.11306e-06
6.11343e-06
6.11377e-06
6.1141e-06
6.11442e-06
6.11471e-06
6.115e-06
6.0804e-06
6.08146e-06
6.0824e-06
6.08333e-06
6.08428e-06
6.08528e-06
6.08634e-06
6.08746e-06
6.08863e-06
6.08982e-06
6.09104e-06
6.09227e-06
6.0935e-06
6.09472e-06
6.09591e-06
6.09707e-06
6.0982e-06
6.09929e-06
6.10035e-06
6.10135e-06
6.10232e-06
6.10324e-06
6.1041e-06
6.10492e-06
6.10569e-06
6.10641e-06
6.10709e-06
6.10772e-06
6.10831e-06
6.10887e-06
6.10939e-06
6.10987e-06
6.11032e-06
6.11074e-06
6.11114e-06
6.1115e-06
6.11185e-06
6.11217e-06
6.11247e-06
6.11274e-06
6.11301e-06
6.07809e-06
6.07897e-06
6.07974e-06
6.08051e-06
6.08134e-06
6.08224e-06
6.08321e-06
6.08424e-06
6.08533e-06
6.08646e-06
6.08763e-06
6.08882e-06
6.09003e-06
6.09124e-06
6.09244e-06
6.09363e-06
6.09479e-06
6.09592e-06
6.097e-06
6.09804e-06
6.09903e-06
6.09997e-06
6.10086e-06
6.10169e-06
6.10248e-06
6.10322e-06
6.10391e-06
6.10456e-06
6.10518e-06
6.10575e-06
6.10628e-06
6.10679e-06
6.10726e-06
6.1077e-06
6.10812e-06
6.10851e-06
6.10887e-06
6.10922e-06
6.10954e-06
6.10985e-06
6.11014e-06
6.0755e-06
6.07615e-06
6.07673e-06
6.07735e-06
6.07803e-06
6.07878e-06
6.07961e-06
6.08051e-06
6.08146e-06
6.08247e-06
6.08353e-06
6.08463e-06
6.08576e-06
6.0869e-06
6.08803e-06
6.08915e-06
6.09027e-06
6.09137e-06
6.09247e-06
6.09354e-06
6.09458e-06
6.09558e-06
6.09654e-06
6.09746e-06
6.09832e-06
6.09914e-06
6.09991e-06
6.10063e-06
6.10131e-06
6.10194e-06
6.10253e-06
6.10308e-06
6.10358e-06
6.10405e-06
6.10449e-06
6.10489e-06
6.10526e-06
6.10561e-06
6.10593e-06
6.10621e-06
6.10649e-06
6.07257e-06
6.07298e-06
6.07336e-06
6.07379e-06
6.07428e-06
6.07484e-06
6.07546e-06
6.07613e-06
6.07686e-06
6.07764e-06
6.07848e-06
6.07938e-06
6.08034e-06
6.08138e-06
6.08251e-06
6.0837e-06
6.08489e-06
6.08607e-06
6.0872e-06
6.0883e-06
6.08935e-06
6.09034e-06
6.09129e-06
6.09219e-06
6.09303e-06
6.09383e-06
6.09458e-06
6.09529e-06
6.09595e-06
6.09657e-06
6.09715e-06
6.0977e-06
6.0982e-06
6.09867e-06
6.09911e-06
6.09952e-06
6.0999e-06
6.10025e-06
6.10058e-06
6.10089e-06
6.10117e-06
6.06932e-06
6.06946e-06
6.0696e-06
6.06978e-06
6.06999e-06
6.07023e-06
6.07051e-06
6.07082e-06
6.07116e-06
6.07153e-06
6.07192e-06
6.07232e-06
6.07274e-06
6.07316e-06
6.07357e-06
6.07403e-06
6.07444e-06
6.07482e-06
6.07521e-06
6.07562e-06
6.07606e-06
6.07652e-06
6.07701e-06
6.07752e-06
6.07804e-06
6.07856e-06
6.07909e-06
6.07962e-06
6.08013e-06
6.08064e-06
6.08113e-06
6.0816e-06
6.08205e-06
6.08249e-06
6.0829e-06
6.08329e-06
6.08367e-06
6.08402e-06
6.08435e-06
6.08466e-06
6.08497e-06
0.00364236
0.00713056
0.0101349
0.0121396
0.0130358
0.0128865
0.0117855
0.00984847
0.00713267
0.00382794
0.000980095
4.04388e-06
2.24521e-09
3.27385e-07
7.77094e-06
6.70406e-06
5.86138e-06
6.03535e-06
6.11476e-06
6.09878e-06
6.09605e-06
6.1e-06
6.10095e-06
6.1006e-06
6.09998e-06
6.09894e-06
6.09757e-06
6.09606e-06
6.09458e-06
6.09324e-06
6.09215e-06
6.09136e-06
6.09086e-06
6.09058e-06
6.09044e-06
6.09034e-06
6.09025e-06
6.09013e-06
6.08996e-06
6.08976e-06
6.08952e-06
6.08924e-06
6.08893e-06
6.08858e-06
6.08818e-06
6.08773e-06
6.08723e-06
6.08667e-06
6.08606e-06
6.08538e-06
6.08463e-06
6.0838e-06
6.08288e-06
6.08187e-06
6.08074e-06
6.07951e-06
6.07816e-06
6.07672e-06
6.07521e-06
6.07369e-06
6.07226e-06
6.0711e-06
6.07047e-06
6.07065e-06
6.07179e-06
6.07381e-06
6.07639e-06
6.07933e-06
6.08253e-06
6.08602e-06
6.08971e-06
6.09402e-06
6.09751e-06
6.10617e-06
0.00622942
0.0108681
0.0143887
0.0165521
0.0174774
0.0173281
0.0162324
0.0142945
0.0115723
0.00809198
0.00409618
0.000912468
1.95644e-10
1.68476e-09
1.39626e-07
7.67719e-06
7.27384e-06
5.9202e-06
5.98644e-06
6.11095e-06
6.10608e-06
6.09729e-06
6.10029e-06
6.10131e-06
6.10017e-06
6.09907e-06
6.09795e-06
6.09653e-06
6.09497e-06
6.09355e-06
6.09239e-06
6.09154e-06
6.09098e-06
6.09066e-06
6.0905e-06
6.09041e-06
6.09032e-06
6.09021e-06
6.09005e-06
6.08985e-06
6.08962e-06
6.08936e-06
6.08905e-06
6.08871e-06
6.08832e-06
6.08788e-06
6.08739e-06
6.08684e-06
6.08624e-06
6.08557e-06
6.08483e-06
6.08402e-06
6.08311e-06
6.08211e-06
6.081e-06
6.07977e-06
6.07844e-06
6.077e-06
6.0755e-06
6.07396e-06
6.0725e-06
6.07128e-06
6.07055e-06
6.07059e-06
6.07158e-06
6.07349e-06
6.07603e-06
6.07895e-06
6.08214e-06
6.08561e-06
6.08929e-06
6.09358e-06
6.09705e-06
6.10564e-06
0.00870386
0.0147621
0.0190023
0.0214319
0.0224491
0.0223342
0.0212572
0.019331
0.0166264
0.0131715
0.00897456
0.004352
0.000899163
0.000230261
1.99458e-09
1.77179e-09
6.26311e-06
7.7629e-06
6.13528e-06
5.93837e-06
6.09845e-06
6.11696e-06
6.09874e-06
6.09874e-06
6.10177e-06
6.10052e-06
6.09825e-06
6.0967e-06
6.09538e-06
6.09399e-06
6.09271e-06
6.09175e-06
6.09113e-06
6.09077e-06
6.09059e-06
6.09049e-06
6.0904e-06
6.0903e-06
6.09015e-06
6.08996e-06
6.08974e-06
6.08948e-06
6.08919e-06
6.08886e-06
6.08848e-06
6.08805e-06
6.08757e-06
6.08703e-06
6.08644e-06
6.08578e-06
6.08505e-06
6.08425e-06
6.08335e-06
6.08236e-06
6.08127e-06
6.08006e-06
6.07873e-06
6.07731e-06
6.0758e-06
6.07426e-06
6.07277e-06
6.07148e-06
6.07065e-06
6.07054e-06
6.07137e-06
6.07317e-06
6.07565e-06
6.07854e-06
6.08171e-06
6.08518e-06
6.08884e-06
6.09311e-06
6.09656e-06
6.10508e-06
0.0111469
0.0188458
0.0239467
0.026762
0.0279634
0.0279462
0.0269274
0.025038
0.0223614
0.0189461
0.0147999
0.00991501
0.00472037
0.00103625
7.38055e-09
1.13086e-11
3.53874e-08
3.96251e-06
8.25383e-06
6.45197e-06
5.8909e-06
6.05458e-06
6.13282e-06
6.10635e-06
6.09245e-06
6.09753e-06
6.10054e-06
6.09849e-06
6.09579e-06
6.09415e-06
6.09306e-06
6.09211e-06
6.09136e-06
6.09089e-06
6.09067e-06
6.09057e-06
6.0905e-06
6.0904e-06
6.09026e-06
6.09009e-06
6.08987e-06
6.08963e-06
6.08934e-06
6.08902e-06
6.08865e-06
6.08823e-06
6.08776e-06
6.08723e-06
6.08665e-06
6.08601e-06
6.08529e-06
6.0845e-06
6.08362e-06
6.08264e-06
6.08156e-06
6.08036e-06
6.07905e-06
6.07763e-06
6.07613e-06
6.07458e-06
6.07306e-06
6.07172e-06
6.07077e-06
6.07052e-06
6.07117e-06
6.07284e-06
6.07524e-06
6.0781e-06
6.08126e-06
6.08471e-06
6.08836e-06
6.09261e-06
6.09605e-06
6.10448e-06
0.0137365
0.0231799
0.029175
0.0324843
0.0339835
0.0341562
0.0332654
0.0314655
0.0288536
0.0254929
0.0214177
0.0166143
0.0110842
0.00539305
0.00130553
0.000392796
0
2.09079e-08
2.3165e-06
8.12396e-06
7.14946e-06
5.92383e-06
5.93878e-06
6.13446e-06
6.14637e-06
6.10264e-06
6.08988e-06
6.09546e-06
6.09819e-06
6.09605e-06
6.09342e-06
6.09208e-06
6.09154e-06
6.09118e-06
6.09087e-06
6.09067e-06
6.09057e-06
6.0905e-06
6.09039e-06
6.09023e-06
6.09003e-06
6.08978e-06
6.08951e-06
6.08919e-06
6.08884e-06
6.08843e-06
6.08797e-06
6.08746e-06
6.08689e-06
6.08625e-06
6.08555e-06
6.08477e-06
6.0839e-06
6.08294e-06
6.08187e-06
6.08069e-06
6.07939e-06
6.07799e-06
6.07649e-06
6.07493e-06
6.07339e-06
6.07198e-06
6.07093e-06
6.07052e-06
6.07099e-06
6.0725e-06
6.07482e-06
6.07764e-06
6.08079e-06
6.08422e-06
6.08785e-06
6.09208e-06
6.09551e-06
6.10385e-06
0.0171883
0.0278309
0.0346247
0.0385104
0.0404261
0.0409016
0.0402361
0.0386079
0.0361289
0.0328734
0.0288918
0.0242055
0.0187902
0.0126827
0.00646017
0.00177453
0.00060582
5.57466e-07
9.96439e-09
3.61448e-07
6.32937e-06
8.17988e-06
6.33469e-06
5.74078e-06
5.96923e-06
6.15256e-06
6.14541e-06
6.10034e-06
6.08757e-06
6.09271e-06
6.09583e-06
6.09419e-06
6.09183e-06
6.09082e-06
6.09078e-06
6.0909e-06
6.09085e-06
6.09069e-06
6.09051e-06
6.09035e-06
6.09018e-06
6.08996e-06
6.0897e-06
6.08939e-06
6.08904e-06
6.08865e-06
6.0882e-06
6.0877e-06
6.08714e-06
6.08652e-06
6.08583e-06
6.08506e-06
6.08421e-06
6.08326e-06
6.08221e-06
6.08104e-06
6.07976e-06
6.07836e-06
6.07687e-06
6.07531e-06
6.07374e-06
6.07228e-06
6.07113e-06
6.07056e-06
6.07084e-06
6.07217e-06
6.07438e-06
6.07715e-06
6.08027e-06
6.08369e-06
6.08731e-06
6.09152e-06
6.09493e-06
6.10317e-06
0.0219193
0.0328141
0.040233
0.0447317
0.0471645
0.0480608
0.0477376
0.0463901
0.0441429
0.0410794
0.0372585
0.0327214
0.0274817
0.0215188
0.0148902
0.00810147
0.00279034
8.83946e-05
9.92791e-05
8.93044e-10
3.18993e-08
2.31083e-06
8.68202e-06
7.85125e-06
6.07118e-06
5.72867e-06
5.98558e-06
6.14908e-06
6.14093e-06
6.098e-06
6.08429e-06
6.08954e-06
6.09429e-06
6.0938e-06
6.09152e-06
6.09028e-06
6.09027e-06
6.09064e-06
6.0908e-06
6.09067e-06
6.0904e-06
6.09013e-06
6.08987e-06
6.0896e-06
6.08928e-06
6.0889e-06
6.08846e-06
6.08797e-06
6.08742e-06
6.08681e-06
6.08613e-06
6.08538e-06
6.08454e-06
6.08361e-06
6.08257e-06
6.08142e-06
6.08016e-06
6.07877e-06
6.07728e-06
6.07572e-06
6.07413e-06
6.07262e-06
6.07137e-06
6.07064e-06
6.07071e-06
6.07184e-06
6.07392e-06
6.07663e-06
6.07973e-06
6.08313e-06
6.08673e-06
6.09091e-06
6.09432e-06
6.10246e-06
0.0275303
0.0380909
0.0459378
0.0510191
0.05403
0.0554516
0.0555927
0.0546528
0.0527626
0.0500106
0.0464598
0.0421589
0.0371425
0.0314223
0.0249896
0.0178715
0.0105913
0.00431833
0.000613373
0.000391751
1.53368e-10
7.54597e-09
3.6498e-08
4.13456e-06
8.97931e-06
7.52893e-06
6.00621e-06
5.76134e-06
5.99949e-06
6.15033e-06