/*--------------------------------*- C++ -*----------------------------------*\
| =========                 |                                                 |
| \\      /  F ield         | OpenFOAM: The Open Source CFD Toolbox           |
|  \\    /   O peration     | Version:  2312                                  |
|   \\  /    A nd           | Website:  www.openfoam.com                      |
|    \\/     M anipulation  |                                                 |
\*---------------------------------------------------------------------------*/
FoamFile
{
    version     2.0;
    format      ascii;
    arch        "LSB;label=32;scalar=64";
    class       volScalarField;
    location    "1000";
    object      turbulenceProperties:I;
}
// * * * * * * * * * * * * * * * * * * * * * * * * * * * * * * * * * * * * * //

dimensions      [0 0 0 0 0 0 0];

internalField   nonuniform List<scalar> 
11040
(
0.0591577
0.0926956
1
0.0980051
0.273026
0.288346
0.290419
0.291715
0.288572
0.287407
0.284948
0.282816
0.280295
0.278328
0.276331
0.275345
0.27569
0.276919
0.278352
0.279764
0.281156
0.282559
0.283343
0.28301
0.281836
0.28094
0.280729
0.280527
0.280629
0.281492
0.28385
0.288621
0.295831
0.309749
0.339146
0.360718
0.350856
0.474577
1
0.428203
0.725017
0.018624
0.024034
0.0675548
0.367045
0.591387
0.309065
0.165211
0.0976977
0.050452
0.0451566
0.0702804
0.0819495
0.089039
0.0938659
0.0967954
0.0990736
0.10139
0.103549
0.105029
0.105765
0.105865
0.105589
0.104124
0.10087
0.0961349
0.0912667
0.0869051
0.0820454
0.0767441
0.0715252
0.0679133
0.0685985
0.072573
0.0832925
0.104337
0.142145
0.217834
0.417221
1
0.509206
0.793745
0.0161615
0.0126617
0.0186191
0.0540791
0.320571
1
0.595638
0.319353
0.213013
0.162241
0.120394
0.0906943
0.0628671
0.033857
0.0340991
0.0490642
0.0569509
0.0614888
0.0638519
0.0645686
0.0641162
0.062742
0.0598528
0.0553016
0.0497084
0.043791
0.0377019
0.0304805
0.0191416
0.025093
0.0443043
0.0642955
0.0875006
0.116675
0.156952
0.219534
0.33443
0.60557
1
0.92982
0.660135
0.0142751
0.0115798
0.0092732
0.0116909
0.0566334
0.249118
1
1
0.516063
0.345431
0.251911
0.200762
0.164856
0.136806
0.116424
0.0998843
0.0881186
0.0793147
0.0734226
0.0700457
0.0683111
0.0680941
0.0694292
0.0716913
0.0737566
0.0750458
0.0753048
0.0744573
0.0728141
0.0721299
0.0769351
0.0917487
0.116806
0.152858
0.204425
0.284179
0.425489
0.727023
1
1
0.672632
0.012852
0.0109167
0.0101592
0.00652406
0.00758449
0.0493058
0.187553
0.783488
1
0.9033
0.523595
0.36894
0.289938
0.236586
0.202536
0.176267
0.158282
0.144745
0.135113
0.128435
0.123512
0.119987
0.117904
0.116993
0.116372
0.115521
0.114127
0.112006
0.10929
0.107026
0.108515
0.119957
0.146078
0.188022
0.249254
0.342118
0.498444
0.795082
1
1
0.787469
0.0112877
0.00975931
0.00887426
0.00858216
0.00439136
0.00369026
0.0374896
0.134667
0.427988
1
1
0.831989
0.54733
0.404283
0.32707
0.274636
0.240923
0.216842
0.199776
0.187901
0.178943
0.172081
0.167068
0.163629
0.160863
0.158223
0.155278
0.151658
0.147223
0.14254
0.140242
0.147466
0.17315
0.219955
0.289402
0.391445
0.551906
0.818059
1
1
0.932371
0.00976262
0.00876228
0.00787185
0.00761706
0.00723125
0.00294845
0.000609258
0.0239803
0.0919304
0.263863
0.826496
1
1
0.838055
0.579771
0.44779
0.36992
0.318969
0.284844
0.262297
0.246169
0.234376
0.225677
0.219372
0.214211
0.209475
0.204575
0.198926
0.192062
0.184049
0.176561
0.176476
0.197458
0.246601
0.322205
0.428973
0.583318
0.805217
1
1
1
0.00840464
0.00774435
0.00720288
0.00665536
0.00656977
0.00636069
0.00128216
0.000137425
0.0126968
0.0584404
0.164486
0.423292
1
1
1
0.884127
0.630704
0.501279
0.422613
0.372839
0.339911
0.318301
0.30307
0.292202
0.283479
0.275715
0.268019
0.259518
0.2493
0.236885
0.222593
0.211009
0.218761
0.264361
0.343477
0.450848
0.591531
0.766542
0.937741
1
1
0.00722396
0.0067653
0.00641602
0.00606867
0.00567038
0.00577296
0.00539548
0.00188003
0.00172151
0.00249503
0.0325834
0.0991886
0.243438
0.593275
1
1
1
0.968572
0.707009
0.572998
0.493915
0.44695
0.416748
0.396377
0.380923
0.367642
0.355019
0.341856
0.32686
0.308714
0.28619
0.259732
0.241038
0.267255
0.346163
0.452265
0.576469
0.709978
0.826233
0.943119
0.938066
0.00619297
0.00587289
0.00563567
0.0054269
0.00518139
0.00490298
0.00501514
0.00457696
0.00248177
0.000878958
0.00367695
0.0144255
0.0555943
0.141175
0.317182
0.733931
1
1
1
1
0.82667
0.688559
0.611332
0.563943
0.531584
0.50684
0.485386
0.464169
0.441085
0.414361
0.381671
0.339548
0.286311
0.250675
0.315131
0.425465
0.53793
0.640665
0.719355
0.786362
0.803943
0.00530181
0.00507628
0.00491463
0.00477811
0.00464392
0.00446378
0.00428786
0.00429962
0.00415388
0.00290229
0.000730801
0.00160027
0.0014961
0.0260282
0.07706
0.176146
0.37008
0.80336
1
1
1
1
1
0.905856
0.810624
0.747696
0.701192
0.662015
0.624768
0.585204
0.538957
0.480646
0.402579
0.289653
0.191278
0.349707
0.472158
0.560463
0.616258
0.651221
0.663922
0.00453361
0.00437408
0.00425951
0.0041729
0.00409043
0.00400148
0.0038795
0.00375186
0.00371536
0.00369419
0.00309513
0.000513564
0.000394249
0.00318983
0.00881476
0.0367714
0.0934286
0.197772
0.391854
0.79107
1
1
1
1
1
1
1
1
0.970372
0.897842
0.825153
0.743999
0.64684
0.526118
0.377273
0.293202
0.399707
0.483405
0.525139
0.537924
0.535798
0.00387329
0.00376032
0.00367771
0.00362113
0.00357425
0.0035249
0.00346757
0.00338955
0.00329623
0.00324122
0.0032632
0.00296615
0.00140288
0.00043321
0.00105612
0.00457308
0.012745
0.0434448
0.101134
0.202605
0.381605
0.702953
1
1
1
1
1
1
1
1
1
1
1
1
0.843795
0.692904
0.59944
0.559698
0.53714
0.507483
0.469111
0.00330635
0.00322666
0.00316622
0.00312859
0.0031034
0.00307991
0.00305248
0.00301853
0.00297113
0.0029068
0.00285093
0.00287131
0.00277082
0.00205285
0.000237308
0.000163165
0.0016342
0.00561256
0.014864
0.0449474
0.0994054
0.18696
0.319391
0.519703
0.81211
1
1
1
1
1
1
1
1
1
1
1
1
1
0.852929
0.733126
0.625073
0.00281952
0.00276382
0.00271927
0.00269417
0.00268198
0.00267414
0.00266566
0.00265371
0.00263647
0.0026107
0.00256943
0.00252734
0.00252691
0.0024999
0.00230182
0.00120203
0.000400849
5.05829e-05
0.00213008
0.00567347
0.0141549
0.0396279
0.0802308
0.13987
0.223248
0.337174
0.489378
0.68223
0.90692
1
1
1
1
1
1
1
1
1
1
1
1
0.00240154
0.00236292
0.00232995
0.0023132
0.00230881
0.00230986
0.00231227
0.00231392
0.00231284
0.00230744
0.00229619
0.00227387
0.00224799
0.00222677
0.00224746
0.00214937
0.00186545
0.000493542
0.000235002
2.41427e-05
0.00225265
0.00461407
0.00825346
0.0241136
0.0489574
0.0844187
0.131879
0.193317
0.271005
0.367179
0.482759
0.616629
0.767435
0.938092
1
1
1
1
1
1
1
0.00204558
0.00201888
0.00199456
0.0019836
0.0019838
0.00198952
0.00199764
0.00200642
0.00201443
0.00202016
0.00202255
0.00202058
0.00201279
0.00199722
0.00198564
0.00198433
0.00199447
0.00185354
0.00143015
0.000243247
0.000171803
1.99392e-05
0.00124113
0.00354278
0.00274968
0.00879454
0.0200807
0.0378634
0.0619223
0.0929061
0.13151
0.178495
0.234647
0.300917
0.378205
0.467197
0.569253
0.688299
0.830827
1
1
0.00175327
0.00173483
0.00171707
0.00171046
0.0017136
0.0017219
0.00173288
0.00174524
0.00175772
0.0017692
0.0017787
0.00178553
0.00178924
0.00178916
0.00178352
0.00177621
0.00177238
0.00178814
0.00177629
0.00163423
0.0011939
0.000202563
0.00015852
3.91284e-05
0.000397536
0.00143132
0.00291263
0.0037363
0.00224473
0.00813612
0.0179488
0.0315454
0.0491493
0.0712175
0.0980199
0.129804
0.166803
0.209697
0.258854
0.31539
0.378495
0.00151928
0.00150654
0.00149355
0.00148997
0.00149488
0.0015045
0.00151686
0.00153101
0.00154592
0.00156056
0.00157407
0.00158577
0.00159519
0.00160217
0.00160618
0.00160717
0.00160376
0.00160291
0.00160774
0.00161985
0.00159883
0.00145504
0.00118332
0.000397944
0.000189161
9.11447e-05
2.66424e-05
0
0.000258557
0.0011985
0.00264863
0.00322027
0.000186171
0.00286263
0.00766072
0.0158621
0.0265257
0.0399567
0.0562024
0.0754878
0.0977713
0.00133037
0.00132145
0.00131184
0.0013103
0.00131613
0.00132619
0.00133891
0.00135351
0.00136921
0.00138511
0.00140054
0.00141495
0.00142783
0.00143883
0.00144773
0.00145449
0.00145877
0.00146048
0.00146032
0.00146356
0.00147277
0.00147977
0.00146781
0.00137442
0.00118619
0.000934495
0.000287442
0.000155138
8.36982e-05
6.06489e-05
1.37501e-05
0
2.80643e-05
0.000352822
0.00110125
0.00237722
0.00301399
0.00265547
0.00233852
0.00126619
0.00653122
0.0011741
0.00116781
0.0011607
0.00116056
0.00116684
0.00117691
0.00118948
0.00120392
0.00121955
0.00123565
0.00125163
0.00126706
0.00128155
0.00129474
0.00130638
0.00131632
0.0013245
0.00133087
0.00133527
0.00133795
0.00134004
0.00134605
0.0013545
0.00136821
0.0013621
0.00133727
0.0012559
0.00111387
0.000923602
0.000690211
0.000163952
0.000117561
7.44784e-05
6.063e-05
4.43815e-05
1.63452e-05
0
0
0
0.000109281
0.000845056
0.00104271
0.00103828
0.00103308
0.00103394
0.00104038
0.00105021
0.00106237
0.00107631
0.00109145
0.00110718
0.00112299
0.00113853
0.00115347
0.00116749
0.00118039
0.001192
0.0012022
0.00121096
0.00121829
0.00122428
0.00122848
0.00123184
0.0012352
0.00124139
0.00125037
0.00125951
0.00127093
0.00126967
0.00125045
0.00121839
0.00114984
0.00104512
0.000912625
0.000758676
0.000573003
0.000219846
0.000116014
6.65286e-05
5.83089e-05
4.94489e-05
3.94752e-05
0.000930672
0.000927574
0.000923863
0.000925411
0.000931832
0.000941289
0.000952885
0.000966138
0.000980546
0.000995587
0.00101082
0.00102595
0.0010407
0.00105479
0.00106802
0.00108024
0.00109135
0.00110127
0.00110998
0.00111758
0.0011238
0.00112881
0.00113305
0.00113643
0.00113999
0.00114412
0.00115034
0.00115854
0.00116721
0.00117421
0.00118218
0.00118203
0.00117243
0.00115277
0.00112508
0.00107886
0.00101378
0.000930135
0.000833128
0.000722756
0.000594973
0.000834071
0.000831952
0.000829408
0.000831446
0.000837732
0.000846737
0.000857696
0.000870181
0.000883744
0.000897936
0.000912376
0.000926792
0.000940954
0.000954626
0.00096762
0.000979801
0.000991067
0.00100134
0.00101057
0.00101882
0.00102583
0.00103176
0.00103697
0.00104123
0.00104467
0.00104754
0.00105005
0.00105261
0.00105571
0.00105927
0.00106391
0.00106942
0.00107507
0.00108026
0.00108423
0.00108836
0.00108951
0.00108622
0.00107818
0.00106435
0.00104901
0.000750005
0.000748612
0.000746995
0.000749369
0.000755451
0.000763965
0.000774259
0.00078594
0.000798608
0.000811871
0.000825396
0.000838942
0.000852307
0.000865286
0.000877709
0.00088945
0.000900411
0.000910516
0.000919705
0.000928019
0.000935185
0.000941316
0.00094674
0.000951254
0.000954949
0.000957972
0.000960379
0.000962211
0.000963562
0.000964551
0.00096525
0.000965853
0.000966489
0.000967306
0.000968252
0.000969464
0.000970879
0.000972444
0.0009741
0.000975037
0.000976704
0.000676283
0.000675434
0.00067456
0.000677163
0.000683
0.000691016
0.000700643
0.000711521
0.000723289
0.000735602
0.000748168
0.00076077
0.000773227
0.000785359
0.000797015
0.000808077
0.000818455
0.000828072
0.000836865
0.00084486
0.000851788
0.000857736
0.000862996
0.00086736
0.000870906
0.000873764
0.000876005
0.00087767
0.000878789
0.000879404
0.000879543
0.000879238
0.000878511
0.000877431
0.000876062
0.000874413
0.000872512
0.000870455
0.00086843
0.000866144
0.000864421
0.000611208
0.000610774
0.000610501
0.000613254
0.000618831
0.000626357
0.000635335
0.000645431
0.00065632
0.000667695
0.000679296
0.000690932
0.000702438
0.000713653
0.000724442
0.000734699
0.000744338
0.000753285
0.000761477
0.000768931
0.000775386
0.00078092
0.000785803
0.000789828
0.000793052
0.000795589
0.000797508
0.000798848
0.000799651
0.000799959
0.000799808
0.000799235
0.000798252
0.0007969
0.000795221
0.000793216
0.000790882
0.000788258
0.000785499
0.000782282
0.000779663
0.000553445
0.000553333
0.000553552
0.000556403
0.000561719
0.000568778
0.000577138
0.000586489
0.000596536
0.000607006
0.000617669
0.000628351
0.000638904
0.000649184
0.000659069
0.000668464
0.000677289
0.000685475
0.000692958
0.000699752
0.00070561
0.000710604
0.000714993
0.000718575
0.000721392
0.00072355
0.00072511
0.000726109
0.000726585
0.000726582
0.000726138
0.000725292
0.000724064
0.000722499
0.000720638
0.000718491
0.000716059
0.000713376
0.00071059
0.000707384
0.000704775
0.000501925
0.000502072
0.000502701
0.000505617
0.000510683
0.000517303
0.000525084
0.000533735
0.000542987
0.0005526
0.000562365
0.000572127
0.000581754
0.000591116
0.000600101
0.000608625
0.000616616
0.000624008
0.000630744
0.00063683
0.000642039
0.000646443
0.000650289
0.000653386
0.000655768
0.000657529
0.000658728
0.0006594
0.00065958
0.00065931
0.000658626
0.000657568
0.000656157
0.000654434
0.000652442
0.000650191
0.000647686
0.000644958
0.000642145
0.000638973
0.000636299
0.000455783
0.000456146
0.000457124
0.000460087
0.000464922
0.000471138
0.000478383
0.000486382
0.000494895
0.000503704
0.000512624
0.000521515
0.00053026
0.000538741
0.000546855
0.000554531
0.000561702
0.000568311
0.000574301
0.000579679
0.000584236
0.000588045
0.000591347
0.000593961
0.000595913
0.000597293
0.000598154
0.000598529
0.000598452
0.000597961
0.000597094
0.000595886
0.000594358
0.000592551
0.000590503
0.000588225
0.000585725
0.000583028
0.000580262
0.000577194
0.000574524
0.000414306
0.000414862
0.000416145
0.000419146
0.000423773
0.000429623
0.000436377
0.000443778
0.000451608
0.000459673
0.000467807
0.000475884
0.000483801
0.000491451
0.000498743
0.000505612
0.000512002
0.000517859
0.000523134
0.000527832
0.000531764
0.000535004
0.000537786
0.000539942
0.000541492
0.000542519
0.000543076
0.000543192
0.0005429
0.000542235
0.000541232
0.000539924
0.000538334
0.000536496
0.000534447
0.000532199
0.00052976
0.000527149
0.000524486
0.000521575
0.000518964
0.000376904
0.000377644
0.0003792
0.000382238
0.000386683
0.000392206
0.000398515
0.000405372
0.000412578
0.000419961
0.000427372
0.000434697
0.000441846
0.000448726
0.000455252
0.000461368
0.000467027
0.000472182
0.00047679
0.000480855
0.00048421
0.000486927
0.000489233
0.000490973
0.000492164
0.000492884
0.000493182
0.000493085
0.000492624
0.000491832
0.00049074
0.00048938
0.000487772
0.000485948
0.000483942
0.000481765
0.000479424
0.000476938
0.000474411
0.000471687
0.000469158
0.000343085
0.000344009
0.000345816
0.000348894
0.000353185
0.000358419
0.000364331
0.000370698
0.00037734
0.000384102
0.000390855
0.000397493
0.000403937
0.000410108
0.000415932
0.000421355
0.000426342
0.000430853
0.000434848
0.000438335
0.000441164
0.000443408
0.000445285
0.000446653
0.000447527
0.00044798
0.000448057
0.000447786
0.000447192
0.000446308
0.000445162
0.000443784
0.000442192
0.000440413
0.000438481
0.000436403
0.000434188
0.000431849
0.000429482
0.000426962
0.000424539
0.000312434
0.000313548
0.00031559
0.000318716
0.00032288
0.000327865
0.000333426
0.000339356
0.000345492
0.000351697
0.000357854
0.000363871
0.000369677
0.000375205
0.00038039
0.000385186
0.000389565
0.000393494
0.000396941
0.000399914
0.000402283
0.000404117
0.000405627
0.000406682
0.000407296
0.000407535
0.000407445
0.000407047
0.000406368
0.000405436
0.000404276
0.000402916
0.000401372
0.000399669
0.000397835
0.000395879
0.000393808
0.000391632
0.000389436
0.00038713
0.000384808
0.000284597
0.000285912
0.000288177
0.00029136
0.000295426
0.000300199
0.000305455
0.000311001
0.000316689
0.000322397
0.000328022
0.000333481
0.000338713
0.000343663
0.000348274
0.000352506
0.000356338
0.000359744
0.000362699
0.000365211
0.000367169
0.000368638
0.000369821
0.000370598
0.000370983
0.000371038
0.000370804
0.000370304
0.00036956
0.000368598
0.000367442
0.000366117
0.000364636
0.000363022
0.0003613
0.000359477
0.00035756
0.000355556
0.000353542
0.000351448
0.000349261
0.000259274
0.000260803
0.000263283
0.000266532
0.000270528
0.000275127
0.000280122
0.000285334
0.000290629
0.000295898
0.000301051
0.000306016
0.000310738
0.000315173
0.000319276
0.000323012
0.000326365
0.000329319
0.000331855
0.000333983
0.000335608
0.000336791
0.000337723
0.000338296
0.000338521
0.000338457
0.000338141
0.000337594
0.000336836
0.000335889
0.000334776
0.000333518
0.000332128
0.000330625
0.000329031
0.000327353
0.000325597
0.000323767
0.000321932
0.000320054
0.000317955
0.000236207
0.000237964
0.000240651
0.000243979
0.00024793
0.00025239
0.000257165
0.00026209
0.000267044
0.000271929
0.000276667
0.000281194
0.000285465
0.000289443
0.000293093
0.000296384
0.000299307
0.00030185
0.000304002
0.000305773
0.000307084
0.000307992
0.000308682
0.000309052
0.000309116
0.000308928
0.000308525
0.000307925
0.000307147
0.000306211
0.000305137
0.000303943
0.000302642
0.00030125
0.000299785
0.000298252
0.00029666
0.000295006
0.000293358
0.000291672
0.000289758
0.000215176
0.000217174
0.000220064
0.000223482
0.000227416
0.000231767
0.000236358
0.000241037
0.000245693
0.000250243
0.000254617
0.000258762
0.000262641
0.000266226
0.000269493
0.000272417
0.000274994
0.00027722
0.000279089
0.000280613
0.000281727
0.000282478
0.000283038
0.000283316
0.000283323
0.000283109
0.000282706
0.000282131
0.0002814
0.000280532
0.000279544
0.000278453
0.00027727
0.000276009
0.000274687
0.000273308
0.00027188
0.000270398
0.000268921
0.000267453
0.000265563
0.000195995
0.000198242
0.000201331
0.000204852
0.000208791
0.000213061
0.000217497
0.000221961
0.000226357
0.000230612
0.000234666
0.000238473
0.000242003
0.000245231
0.00024814
0.00025071
0.000252939
0.000254832
0.000256385
0.000257613
0.000258467
0.000258994
0.000259357
0.000259473
0.000259355
0.00025905
0.00025859
0.000257988
0.000257261
0.000256424
0.000255493
0.000254481
0.000253399
0.000252256
0.000251068
0.000249837
0.000248571
0.000247259
0.000245972
0.000244645
0.000243072
0.000178499
0.000181002
0.000184283
0.000187917
0.000191877
0.000196083
0.000200386
0.00020466
0.000208823
0.000212816
0.000216591
0.000220113
0.000223358
0.000226316
0.000228978
0.000231333
0.00023338
0.000235124
0.000236566
0.000237717
0.00023854
0.000239059
0.000239431
0.000239577
0.00023951
0.000239273
0.000238893
0.000238384
0.00023776
0.000237035
0.000236224
0.000235341
0.000234394
0.000233393
0.000232354
0.000231278
0.000230173
0.000229029
0.000227893
0.000226822
0.000225088
0.000162537
0.000165313
0.000168793
0.000172541
0.000176516
0.000180654
0.000184828
0.000188928
0.000192883
0.000196642
0.000200165
0.000203423
0.000206393
0.000209051
0.000211383
0.000213388
0.000215078
0.000216471
0.000217581
0.000218421
0.000218968
0.000219261
0.000219436
0.000219427
0.000219243
0.000218927
0.000218501
0.00021798
0.000217372
0.000216692
0.000215949
0.000215155
0.000214316
0.000213439
0.000212534
0.000211601
0.000210652
0.000209661
0.000208721
0.000207664
0.000206596
0.000148024
0.000151096
0.000154789
0.000158654
0.000162625
0.000166656
0.000170662
0.000174572
0.000178332
0.000181893
0.000185215
0.000188278
0.000191087
0.000193664
0.000196017
0.000198116
0.000199937
0.000201476
0.00020274
0.000203745
0.000204474
0.000204934
0.000205264
0.000205406
0.000205373
0.000205202
0.000204918
0.000204534
0.000204061
0.000203514
0.000202905
0.000202245
0.000201542
0.000200805
0.000200046
0.000199268
0.000198475
0.000197664
0.000196845
0.000196208
0.000194468
0.000134981
0.000138312
0.000142172
0.000146122
0.000150068
0.000153973
0.00015778
0.000161452
0.000164972
0.000168324
0.000171467
0.000174338
0.000176863
0.000178987
0.000180716
0.000182139
0.000183339
0.000184344
0.00018516
0.000185779
0.00018619
0.000186428
0.000186585
0.000186608
0.000186503
0.000186302
0.000186025
0.000185681
0.000185276
0.000184819
0.000184319
0.000183781
0.000183212
0.000182613
0.000181993
0.000181345
0.000180692
0.000179983
0.000179371
0.000178415
0.0001782
0.00012335
0.000126844
0.000130711
0.00013458
0.000138393
0.000142155
0.00014582
0.000149323
0.000152626
0.000155722
0.000158649
0.000161478
0.000164274
0.000167063
0.000169766
0.000172172
0.000174153
0.00017575
0.000177026
0.00017804
0.000178791
0.000179273
0.000179623
0.000179802
0.00017983
0.000179741
0.000179559
0.000179295
0.000178964
0.000178579
0.000178153
0.000177698
0.000177222
0.000176732
0.000176242
0.000175758
0.000175274
0.000174813
0.000174291
0.000174254
0.000172119
0.000112733
0.000116469
0.000120299
0.000123905
0.000127329
0.000130709
0.000134102
0.000137497
0.00014082
0.000143933
0.000146664
0.000148859
0.000150448
0.000151471
0.000152141
0.000152876
0.000153853
0.0001549
0.000155893
0.000156758
0.000157482
0.000158093
0.000158624
0.000159032
0.000159322
0.000159518
0.000159634
0.000159677
0.000159654
0.000159571
0.000159433
0.000159245
0.000159012
0.000158733
0.000158414
0.000158044
0.000157659
0.000157167
0.000156849
0.000155681
0.000156934
0.000102954
0.000107403
0.000111631
0.000115234
0.000118266
0.000120961
0.000123512
0.000126083
0.000128824
0.000131869
0.000135303
0.000139143
0.000143289
0.000147561
0.000151611
0.00015479
0.000156949
0.000158548
0.000159779
0.000160735
0.000161407
0.000161817
0.000162078
0.000162177
0.000162144
0.000162009
0.000161798
0.000161527
0.000161212
0.000160871
0.000160519
0.000160171
0.000159836
0.000159525
0.000159251
0.000159032
0.000158841
0.000158763
0.000158518
0.000159377
0.000156168
9.52395e-05
9.99644e-05
0.000104386
0.000108282
0.000111619
0.000114438
0.000116728
0.000118477
0.000119717
0.00012053
0.000121031
0.000121346
0.0001216
0.000121818
0.000122108
0.000123177
0.000125034
0.000127058
0.000129053
0.000130903
0.000132588
0.000134115
0.000135509
0.00013676
0.000137861
0.000138826
0.000139666
0.000140384
0.000140985
0.000141469
0.000141838
0.000142092
0.000142231
0.000142251
0.000142153
0.000141921
0.000141598
0.000141041
0.00014069
0.00013877
0.000141324
9.91843e-05
0.000105111
0.00010813
0.00010866
0.000107866
0.000107288
0.000108284
0.000111405
0.000116234
0.000121881
0.000127535
0.000132669
0.000137014
0.000140549
0.000143245
0.000144537
0.000144602
0.00014411
0.00014337
0.000142499
0.000141447
0.000140485
0.000139431
0.000138346
0.000137262
0.000136187
0.000135126
0.000134083
0.000133062
0.000132064
0.000131086
0.000130128
0.000129176
0.000128224
0.000127272
0.000126332
0.000125331
0.000124392
0.000123074
0.000123192
0.000117677
0.447562
0.345007
0.290555
0.244142
0.200043
0.158362
0.119147
0.082077
0.0471823
0.0219062
0.0128967
0.00171211
0.000239203
0.000784637
0.00167281
0.0015267
0.00139519
0.00132856
0.00125757
0.00118339
0.00111221
0.0010435
0.000977099
0.000913118
0.00085171
0.00079278
0.00073645
0.000682456
0.000630942
0.000581869
0.000535306
0.000491275
0.000449804
0.00041088
0.00037448
0.000340479
0.00030879
0.000279277
0.000251855
0.000226332
0.000202656
0.000180718
0.000160376
0.000141561
0.000124241
0.000108346
9.40141e-05
8.14931e-05
7.1212e-05
6.39655e-05
6.02661e-05
5.94141e-05
6.01974e-05
6.15049e-05
6.28022e-05
6.38576e-05
6.465e-05
6.51633e-05
6.5493e-05
6.56225e-05
6.56735e-05
6.55848e-05
6.54918e-05
6.53454e-05
6.52036e-05
6.50168e-05
6.49567e-05
6.45605e-05
6.49361e-05
6.37093e-05
6.57056e-05
6.22923e-05
6.92199e-05
6.44822e-05
0.734352
0.522795
0.406147
0.328393
0.267333
0.215155
0.168768
0.126377
0.0866796
0.0495123
0.0224945
0.0119353
0.000134557
0.000212267
0.000603733
0.00158631
0.00148126
0.00132629
0.00125475
0.00118784
0.00111622
0.00104663
0.000980042
0.000915825
0.000854141
0.000794961
0.000738425
0.000684255
0.000632553
0.000583314
0.000536591
0.000492423
0.000450826
0.000411794
0.000375308
0.000341242
0.000309505
0.000279954
0.000252512
0.00022697
0.000203265
0.000181333
0.000160987
0.000142174
0.000124876
0.000108995
9.47152e-05
8.22299e-05
7.19848e-05
6.47173e-05
6.09259e-05
5.99335e-05
6.05906e-05
6.18053e-05
6.30444e-05
6.40551e-05
6.48224e-05
6.53148e-05
6.56297e-05
6.5743e-05
6.57828e-05
6.56793e-05
6.55691e-05
6.54124e-05
6.52528e-05
6.50471e-05
6.49795e-05
6.45389e-05
6.49429e-05
6.35975e-05
6.57506e-05
6.1957e-05
6.93176e-05
6.42571e-05
0.967332
0.707727
0.536959
0.425052
0.343631
0.27878
0.223889
0.175448
0.131246
0.0898844
0.0513437
0.0230837
0.0112841
0.00571498
0.000211103
0.000192575
0.00142881
0.00142934
0.00126757
0.00118354
0.0011201
0.00105142
0.000983564
0.000919011
0.000857175
0.000797715
0.000740825
0.000686448
0.000634528
0.000585079
0.000538148
0.000493789
0.000452034
0.000412864
0.000376255
0.000342104
0.000310294
0.000280694
0.000253205
0.000227646
0.000203899
0.000181949
0.000161591
0.000142771
0.000125471
0.000109601
9.53528e-05
8.28645e-05
7.26403e-05
6.53657e-05
6.1485e-05
6.03883e-05
6.09474e-05
6.20912e-05
6.32736e-05
6.42677e-05
6.50024e-05
6.54859e-05
6.57757e-05
6.58848e-05
6.5895e-05
6.58007e-05
6.56633e-05
6.54861e-05
6.53191e-05
6.50771e-05
6.502e-05
6.45272e-05
6.49524e-05
6.34932e-05
6.57856e-05
6.16376e-05
6.93587e-05
6.40347e-05
1
0.93098
0.694993
0.541122
0.434065
0.352984
0.287283
0.231288
0.181636
0.136178
0.0936096
0.0540498
0.0242528
0.0114766
0.000302612
5.52686e-05
0.000387336
0.00120518
0.00137714
0.0012152
0.00111531
0.00105366
0.000989585
0.000923435
0.000860569
0.000801012
0.000743922
0.000689215
0.000636963
0.000587244
0.000540057
0.000495455
0.000453477
0.000414115
0.000377347
0.000343073
0.000311166
0.000281493
0.000253941
0.000228341
0.000204552
0.000182571
0.000162192
0.000143364
0.000126061
0.000110211
9.59959e-05
8.35323e-05
7.33485e-05
6.60951e-05
6.2145e-05
6.09504e-05
6.14023e-05
6.24635e-05
6.35825e-05
6.4534e-05
6.52315e-05
6.56917e-05
6.59534e-05
6.60473e-05
6.60299e-05
6.5927e-05
6.57647e-05
6.55634e-05
6.53832e-05
6.51076e-05
6.50494e-05
6.45081e-05
6.49507e-05
6.33779e-05
6.58052e-05
6.13061e-05
6.9388e-05
6.38135e-05
1
1
0.904041
0.689244
0.5462
0.442732
0.362345
0.29627
0.239479
0.188855
0.142385
0.0988426
0.0583953
0.0267947
0.0121704
0.0067279
0
0.000322819
0.000996358
0.0012989
0.00117966
0.00105314
0.000986593
0.000929422
0.000866831
0.000804986
0.000747013
0.000692219
0.000639779
0.000589718
0.000542193
0.000497308
0.000455079
0.000415492
0.000378532
0.000344107
0.000312086
0.000282328
0.000254708
0.000229052
0.000205222
0.000183205
0.000162803
0.000143968
0.000126669
0.000110846
9.66707e-05
8.426e-05
7.41371e-05
6.69203e-05
6.29142e-05
6.16174e-05
6.19473e-05
6.29095e-05
6.39556e-05
6.48404e-05
6.54954e-05
6.59182e-05
6.61495e-05
6.62163e-05
6.61747e-05
6.60464e-05
6.58604e-05
6.56346e-05
6.54342e-05
6.51297e-05
6.50585e-05
6.44723e-05
6.49303e-05
6.32452e-05
6.58025e-05
6.09563e-05
6.94033e-05
6.35914e-05
1
1
1
0.896282
0.694806
0.556978
0.454892
0.374337
0.307508
0.24976
0.198148
0.150738
0.106332
0.0650577
0.0313204
0.0134827
0.0079145
0.000752638
0.000254706
0.000590266
0.00115107
0.00115355
0.00100884
0.000918579
0.000865211
0.000811143
0.000752597
0.000695726
0.000642533
0.000592367
0.00054464
0.000499407
0.000456837
0.000416981
0.000379813
0.000345219
0.000313063
0.000283206
0.000255508
0.000229792
0.000205919
0.000183865
0.000163437
0.000144596
0.000127303
0.000111511
9.73818e-05
8.50373e-05
7.49869e-05
6.78038e-05
6.37499e-05
6.23417e-05
6.25395e-05
6.33895e-05
6.43491e-05
6.51634e-05
6.57673e-05
6.6147e-05
6.63428e-05
6.63783e-05
6.63089e-05
6.61521e-05
6.59409e-05
6.56901e-05
6.54671e-05
6.51342e-05
6.50466e-05
6.44172e-05
6.48886e-05
6.3096e-05
6.57736e-05
6.05941e-05
6.93921e-05
6.33714e-05
1
1
1
1
0.912396
0.713794
0.575935
0.472643
0.390568
0.322241
0.263141
0.210359
0.161961
0.116727
0.0746001
0.038618
0.0166556
0.00307959
0.00303327
0.00013227
0.000303676
0.000839172
0.00110524
0.0010032
0.000873732
0.000800931
0.000752118
0.000701265
0.000647432
0.000595487
0.000547054
0.000501682
0.000458913
0.000418722
0.000381233
0.000346411
0.000314106
0.000284147
0.000256365
0.00023058
0.000206656
0.000184561
0.000164107
0.00014526
0.000127977
0.000112219
9.81419e-05
8.58719e-05
7.58993e-05
6.87473e-05
6.46449e-05
6.31145e-05
6.31692e-05
6.38943e-05
6.47539e-05
6.54943e-05
6.60386e-05
6.63708e-05
6.65256e-05
6.65276e-05
6.64257e-05
6.62409e-05
6.60026e-05
6.57254e-05
6.54799e-05
6.51174e-05
6.50136e-05
6.43426e-05
6.48246e-05
6.2931e-05
6.57173e-05
6.02242e-05
6.93512e-05
6.31527e-05
1
1
1
1
1
0.955096
0.748685
0.605282
0.497789
0.412471
0.341624
0.280563
0.226266
0.176717
0.130603
0.0875069
0.0495599
0.0221892
0.00712668
0.00539919
8.08183e-05
0.00019943
0.000278706
0.000858965
0.000976942
0.000865102
0.000756721
0.000693845
0.000647969
0.000600671
0.000551543
0.000504425
0.000460851
0.000420509
0.000382911
0.000347853
0.000315291
0.000285151
0.000257266
0.000231423
0.000207455
0.000185314
0.000164827
0.000145972
0.000128704
0.000112988
9.89725e-05
8.67869e-05
7.68948e-05
6.97757e-05
6.5617e-05
6.39514e-05
6.38471e-05
6.44325e-05
6.51794e-05
6.5835e-05
6.63112e-05
6.65899e-05
6.66983e-05
6.66632e-05
6.65259e-05
6.63114e-05
6.60449e-05
6.57395e-05
6.54708e-05
6.50788e-05
6.49584e-05
6.42479e-05
6.47369e-05
6.27501e-05
6.56321e-05
5.98479e-05
6.92817e-05
6.29309e-05
1
1
1
1
1
1
1
0.803756
0.648058
0.53256
0.441729
0.366954
0.303045
0.246687
0.19567
0.148476
0.104425
0.0645738
0.0323407
0.0129334
0.000455784
0.00277008
5.89737e-05
0.000211202
0.00043303
0.000804424
0.000843337
0.000741541
0.00064984
0.000593832
0.000551879
0.000509351
0.000465331
0.000423076
0.000384358
0.000349063
0.000316537
0.00028635
0.000258321
0.000232338
0.000208294
0.000186115
0.000165616
0.000146763
0.000129509
0.000113837
9.98909e-05
8.78021e-05
7.79961e-05
7.09093e-05
6.66827e-05
6.48662e-05
6.45846e-05
6.50128e-05
6.56326e-05
6.61893e-05
6.65881e-05
6.68056e-05
6.68626e-05
6.67854e-05
6.66104e-05
6.63632e-05
6.6067e-05
6.57324e-05
6.54393e-05
6.50185e-05
6.48803e-05
6.4133e-05
6.46247e-05
6.25538e-05
6.55165e-05
5.94669e-05
6.91841e-05
6.27005e-05
0.833008
1
1
1
1
1
1
1
0.886868
0.709112
0.580206
0.480634
0.3999
0.331835
0.272572
0.219537
0.170957
0.125833
0.0842143
0.0482277
0.0224269
0.0072098
0.00563412
0.00120943
8.88735e-05
0.000200143
0.000458234
0.000718768
0.000728284
0.000637351
0.00055376
0.000500783
0.000463063
0.000426725
0.000388894
0.000351938
0.000317927
0.000287234
0.000259265
0.000233397
0.000209335
0.000187051
0.000166472
0.000147607
0.00013039
0.00011479
0.000100925
8.89385e-05
7.92177e-05
7.21602e-05
6.7853e-05
6.58691e-05
6.53886e-05
6.56398e-05
6.61157e-05
6.65594e-05
6.68704e-05
6.70182e-05
6.70182e-05
6.68939e-05
6.66784e-05
6.63954e-05
6.60682e-05
6.5704e-05
6.53853e-05
6.49363e-05
6.47786e-05
6.39979e-05
6.44878e-05
6.23439e-05
6.53695e-05
5.9084e-05
6.90579e-05
6.24566e-05
0.662479
0.745507
1
1
1
1
1
1
1
1
0.796742
0.645867
0.532576
0.442802
0.368605
0.305132