/*--------------------------------*- C++ -*----------------------------------*\
| =========                 |                                                 |
| \\      /  F ield         | OpenFOAM: The Open Source CFD Toolbox           |
|  \\    /   O peration     | Version:  2312                                  |
|   \\  /    A nd           | Website:  www.openfoam.com                      |
|    \\/     M anipulation  |                                                 |
\*---------------------------------------------------------------------------*/
FoamFile
{
    version     2.0;
    format      ascii;
    arch        "LSB;label=32;scalar=64";
    class       volSymmTensorField;
    location    "1000";
    object      turbulenceProperties:R;
}
// * * * * * * * * * * * * * * * * * * * * * * * * * * * * * * * * * * * * * //

dimensions      [0 2 -2 0 0 0 0];

internalField   nonuniform List<symmTensor> 
11040
(
(0.283142 0.0751838 -1.35029e-22 0.246736 9.23791e-21 0.276762)
(0.351243 0.0742566 8.15862e-21 0.226677 1.14712e-19 0.30529)
(0.0544852 0.00592705 -1.80195e-20 0.0404024 5.59197e-20 0.0460773)
(0.0268713 0.0089084 -5.8604e-20 0.0355161 3.32109e-20 0.0306359)
(0.118163 0.0460492 -2.11825e-20 0.249405 1.90084e-19 0.183454)
(0.1297 0.056584 -2.9027e-19 0.249127 1.05737e-19 0.188417)
(0.129226 0.059207 1.66099e-19 0.229658 -1.09134e-18 0.179079)
(0.123002 0.0574325 2.3058e-19 0.204573 -1.59834e-19 0.163603)
(0.115286 0.0539444 9.86404e-20 0.179879 -2.86092e-20 0.147469)
(0.111032 0.0518099 9.16671e-20 0.163658 1.45655e-19 0.137366)
(0.106424 0.0491564 -8.10519e-20 0.149235 3.45615e-19 0.127833)
(0.102267 0.0466093 -1.20864e-19 0.136823 2.59275e-19 0.119589)
(0.098913 0.0443592 2.00735e-20 0.126576 -1.48542e-19 0.112833)
(0.0965156 0.0425654 2.49875e-20 0.118563 1.44984e-19 0.107626)
(0.0947786 0.0410583 -1.12144e-20 0.111907 1.09666e-20 0.103463)
(0.0947106 0.040386 -4.27659e-21 0.107753 -1.86627e-19 0.101363)
(0.0963761 0.0405593 5.15404e-20 0.105799 -7.2412e-22 0.101241)
(0.100017 0.0416462 -5.05588e-21 0.106043 3.39392e-19 0.103205)
(0.105461 0.043502 -2.93004e-20 0.108055 2.97622e-21 0.106955)
(0.112754 0.0460919 4.7589e-21 0.11167 -4.96111e-20 0.112436)
(0.122198 0.0495 2.25614e-20 0.116998 3.80872e-20 0.119836)
(0.133452 0.0536274 -2.48217e-20 0.123936 1.15588e-19 0.128935)
(0.146377 0.0584853 9.80992e-22 0.132612 -9.55407e-20 0.139755)
(0.161335 0.0641284 1.28153e-20 0.143003 2.46595e-19 0.152447)
(0.178463 0.0705669 -7.51073e-20 0.155037 -2.22716e-19 0.167022)
(0.198443 0.0781104 -4.02896e-20 0.169272 -5.22424e-19 0.184105)
(0.220741 0.0865172 1.09621e-20 0.185202 -2.44249e-19 0.203176)
(0.242367 0.0945409 3.28197e-20 0.200377 7.00263e-20 0.221511)
(0.261425 0.101458 -2.22651e-20 0.213352 -2.00838e-19 0.237433)
(0.275676 0.106451 1.37208e-20 0.2225 -4.70046e-19 0.249018)
(0.282765 0.108667 1.19733e-19 0.226111 3.38878e-19 0.254253)
(0.280722 0.107364 2.05196e-20 0.222675 -2.69666e-20 0.251401)
(0.270083 0.102848 1.04639e-19 0.212814 9.53863e-19 0.241035)
(0.254542 0.0967318 -8.98614e-20 0.199733 5.84875e-19 0.226587)
(0.240778 0.0917659 4.64454e-20 0.188958 9.86828e-21 0.214058)
(0.188747 0.0722999 1.27886e-19 0.149663 9.08676e-19 0.168223)
(0.0973435 0.0372294 7.96874e-21 0.0798641 1.70564e-19 0.0878309)
(0.0575715 0.0234263 -3.80281e-20 0.0518465 5.23076e-19 0.0535335)
(0.0171911 0.00813045 -4.27906e-19 0.0286467 -1.10861e-18 0.0223354)
(0.0588503 -0.0284652 1.94486e-21 0.091548 -9.29353e-19 0.0732807)
(0.0884799 -0.0202591 1.9697e-19 0.211066 5.31109e-20 0.139805)
(0.024165 -0.00176724 1.74058e-22 0.0212302 -5.0964e-22 0.0219733)
(0.0597875 0.00140454 2.06103e-20 0.0384508 4.04986e-21 0.0411622)
(0.201498 0.027374 4.86668e-20 0.111305 -2.56523e-19 0.158376)
(0.397764 0.0305116 7.33993e-20 0.16622 -1.66421e-19 0.283019)
(0.78603 -0.0208795 8.17151e-20 0.299881 -4.86835e-19 0.54233)
(0.247244 -0.0481609 5.5893e-19 0.115783 -1.18684e-18 0.180758)
(0.0737726 -0.0187146 -8.13581e-19 0.0397846 3.18861e-18 0.0554429)
(0.0235127 -0.00751377 -8.17172e-19 0.014892 2.10959e-18 0.0194774)
(0.00525546 -0.00219775 -7.36677e-20 0.00457208 -1.50799e-19 0.00508412)
(0.00263801 0.00125904 -1.01604e-19 0.00502618 3.95153e-20 0.00399627)
(0.00705624 0.0035104 4.49912e-19 0.0114178 -1.13164e-18 0.00920468)
(0.0098563 0.0049026 -1.68039e-21 0.0147569 -7.26415e-20 0.0121529)
(0.0120187 0.00594102 -1.62009e-19 0.0165857 6.63387e-19 0.0141526)
(0.0136435 0.00666218 -1.0989e-19 0.0178645 3.20822e-20 0.0155241)
(0.0149209 0.00717406 -4.32789e-20 0.0184561 -1.66683e-19 0.0164416)
(0.0161778 0.00764323 1.02952e-20 0.0190137 5.70452e-19 0.0173128)
(0.0176606 0.00819254 -1.41383e-20 0.0197855 1.90508e-19 0.0184051)
(0.0193856 0.00882475 -8.80576e-21 0.0207475 -5.32849e-19 0.0197151)
(0.0211774 0.00945499 -2.28887e-20 0.0217118 -2.46671e-20 0.021052)
(0.0230535 0.010081 -7.14484e-21 0.022641 7.96147e-20 0.0224286)
(0.0250592 0.0107155 -1.06116e-20 0.0235705 -1.47135e-20 0.0238811)
(0.0272368 0.011387 3.01933e-20 0.0245987 -2.67805e-19 0.0254717)
(0.0290625 0.0119129 2.30948e-20 0.025396 3.77203e-19 0.0267572)
(0.0300302 0.0120909 -4.5349e-20 0.0255039 -3.44202e-19 0.0272903)
(0.02996 0.0118697 -6.32935e-21 0.0248145 2.79352e-19 0.0269424)
(0.0293926 0.0114918 7.27997e-20 0.0238319 9.03379e-19 0.026225)
(0.0285926 0.0110757 1.36409e-19 0.0228056 5.0029e-19 0.0253893)
(0.026792 0.0103449 -3.35827e-20 0.0211888 1.39519e-19 0.0238)
(0.0239727 0.00932457 -9.01451e-20 0.0190468 2.78376e-19 0.0214949)
(0.0205263 0.00818541 4.39097e-20 0.0167682 4.964e-19 0.0188559)
(0.0173991 0.00729062 -1.09863e-19 0.0151976 -7.59547e-19 0.0167437)
(0.0157036 0.00709429 -5.57883e-20 0.0155598 -1.2403e-18 0.0163375)
(0.0141982 0.00697937 -1.29306e-19 0.0172157 -2.59745e-18 0.016719)
(0.0139252 0.00710921 6.86994e-20 0.0211663 -1.29232e-18 0.0188878)
(0.0152849 0.00752843 -9.26417e-20 0.0278408 1.21543e-19 0.0233817)
(0.0182825 0.00830885 -4.38509e-19 0.0372872 -3.97104e-18 0.0303719)
(0.0233098 0.00993906 -6.71567e-20 0.0501029 -3.43842e-19 0.040058)
(0.0305675 0.0125898 -5.10708e-19 0.0672223 -2.4008e-18 0.0514937)
(0.0460569 0.0158767 1.23965e-18 0.109136 5.36457e-18 0.0831508)
(0.0651158 0.0302206 8.03575e-19 0.119975 4.77207e-18 0.088421)
(0.244449 -0.11216 -4.03037e-19 0.439686 -6.65741e-19 0.412344)
(0.0145963 -0.00148181 -1.88304e-22 0.0129833 -2.70786e-22 0.0139314)
(0.0121889 -0.00193956 -4.96878e-21 0.0126415 -1.2725e-20 0.0123085)
(0.0339504 0.00358259 1.56358e-20 0.0213272 7.77028e-20 0.0270543)
(0.156702 0.0164706 5.27777e-20 0.0796367 8.16601e-20 0.11912)
(0.907135 0.0479873 -7.41661e-21 0.350383 -3.72745e-20 0.632086)
(1.22678 -0.0347318 -3.03012e-19 0.468145 1.18756e-18 0.845158)
(0.611528 -0.0970861 2.53258e-20 0.267405 9.35323e-21 0.438358)
(0.220126 -0.0535887 9.44683e-20 0.116171 -2.44834e-18 0.162772)
(0.0995922 -0.028255 -1.66997e-19 0.0575044 2.55054e-20 0.0778723)
(0.058566 -0.0174241 2.38743e-19 0.0348805 -6.9749e-19 0.0470656)
(0.0322114 -0.0103218 -4.39378e-19 0.020479 1.03683e-18 0.026496)
(0.0178802 -0.00617176 7.63683e-19 0.0122748 -2.07959e-18 0.0150563)
(0.00876031 -0.0029246 -3.94009e-20 0.00577989 -6.90409e-20 0.00736508)
(0.00277873 -0.00070895 1.54206e-19 0.00148356 -9.10703e-19 0.0021444)
(0.00261713 0.000874011 2.44675e-20 0.00171895 9.51863e-19 0.00223678)
(0.00503773 0.00202939 -7.88768e-20 0.00416358 -3.63542e-19 0.00465819)
(0.00694927 0.00280621 -3.39405e-21 0.00577307 -6.12092e-19 0.00641907)
(0.00850386 0.00335442 4.1861e-20 0.00683953 -4.37481e-19 0.00773153)
(0.00974013 0.003727 1.95373e-20 0.00753151 -2.48181e-20 0.0086813)
(0.0107139 0.00393608 2.59824e-20 0.00787896 2.76401e-20 0.00933933)
(0.0114776 0.00401722 2.70984e-21 0.00799119 8.38169e-20 0.00976767)
(0.0120535 0.00394938 -4.43042e-20 0.00784015 1.33457e-19 0.00998769)
(0.0121335 0.00361908 -3.7288e-20 0.00725646 -4.4076e-19 0.00973834)
(0.0115469 0.0029846 -3.96335e-20 0.00622193 -1.77105e-19 0.00892238)
(0.0104067 0.00214763 8.29815e-20 0.00497676 -2.78691e-19 0.00771323)
(0.00892941 0.00125228 -1.45506e-20 0.00378774 -2.60731e-19 0.00635868)
(0.00716764 0.000436249 -2.27233e-19 0.00278618 2.65446e-19 0.0049462)
(0.00490775 -0.000169959 -7.82256e-20 0.00189364 -1.07341e-18 0.0033254)
(0.00186262 -0.000384515 1.91916e-19 0.000947853 2.65313e-19 0.00127201)
(0.00137225 -9.03632e-05 2.62048e-19 0.00343568 1.11503e-18 0.00221358)
(0.00405224 0.00058468 -1.85505e-19 0.0103301 6.27475e-19 0.00696189)
(0.00799376 0.00125929 4.31232e-19 0.0204548 2.59479e-18 0.0139676)
(0.0134422 0.00265507 1.81482e-19 0.0340524 8.04292e-19 0.0234784)
(0.0205947 0.00491957 -3.97133e-19 0.0513653 9.01688e-19 0.0357435)
(0.0297813 0.00821217 -4.78862e-19 0.0729511 -9.50902e-19 0.0512401)
(0.0415977 0.0128559 3.23882e-19 0.0999491 1.99586e-18 0.0710178)
(0.0569619 0.0196021 2.95907e-19 0.13338 -2.10012e-18 0.0960154)
(0.0759157 0.0285214 5.38361e-19 0.171323 1.91592e-18 0.123307)
(0.109397 0.0389182 -4.30863e-19 0.2554 -9.52543e-19 0.187989)
(0.176641 0.0846285 2.45782e-20 0.311366 -4.99761e-19 0.235388)
(0.192155 0.00659915 4.52719e-19 0.507256 1.68978e-18 0.351962)
(0.0107207 -0.00104073 -5.95541e-23 0.00912312 -2.80605e-22 0.00998199)
(0.0084213 -0.00100238 -1.34291e-22 0.00854252 9.68036e-22 0.00857871)
(0.00660424 -0.00109417 -7.72314e-21 0.00747964 -1.7737e-20 0.00705614)
(0.0127102 0.000780761 -1.05997e-20 0.00929267 -2.08034e-20 0.0109224)
(0.210853 0.0199077 3.71592e-20 0.0899676 4.40774e-20 0.151133)
(1.05368 0.0427713 2.4064e-19 0.40296 8.30404e-21 0.733836)
(1.5824 -0.0446809 2.56219e-19 0.603691 -1.38935e-18 1.09025)
(1.03271 -0.136992 9.01713e-19 0.431563 -1.41069e-18 0.73836)
(0.410753 -0.0941006 -4.1e-19 0.209278 1.22326e-18 0.300986)
(0.213039 -0.0573885 2.31242e-19 0.118737 3.98596e-19 0.163637)
(0.123921 -0.0357392 -3.52367e-19 0.0721997 1.12066e-18 0.0979934)
(0.081073 -0.0255413 -5.79e-19 0.050826 1.259e-18 0.0660034)
(0.0560166 -0.0185263 4.64277e-19 0.036726 -9.50107e-19 0.0465194)
(0.0391445 -0.0135818 -1.17476e-19 0.0270275 9.35097e-19 0.0329873)
(0.0289597 -0.0102055 -1.99683e-19 0.0203204 -1.05427e-18 0.0246109)
(0.0220321 -0.00773251 -1.12029e-19 0.0153989 -4.5532e-19 0.0186711)
(0.0178975 -0.00615081 5.34676e-20 0.0122307 2.247e-19 0.015028)
(0.0153497 -0.00505536 1.14509e-19 0.0100411 1.3111e-20 0.0126827)
(0.0139844 -0.00442101 3.10708e-20 0.00880437 5.34106e-20 0.0113779)
(0.0135608 -0.00415303 -1.21238e-20 0.00829546 -7.6903e-20 0.0109324)
(0.0137154 -0.00417555 -2.727e-20 0.0083493 -1.95844e-19 0.0110313)
(0.0144865 -0.00443647 2.65782e-20 0.00886279 -2.79064e-19 0.0116747)
(0.0159528 -0.00498967 2.31135e-20 0.00993903 -1.265e-19 0.012953)
(0.0178864 -0.00583892 8.73546e-21 0.0115898 1.17472e-19 0.0147549)
(0.0197571 -0.00680156 -6.83755e-20 0.0135055 7.07117e-19 0.0166466)
(0.0211452 -0.0076997 2.52423e-19 0.0153854 -8.0696e-19 0.0182792)
(0.0216637 -0.00839678 1.8059e-19 0.0170379 -6.21811e-19 0.0193663)
(0.0209482 -0.00876217 1.98991e-19 0.0183948 1.52123e-18 0.0196917)
(0.0188399 -0.0086593 -6.33305e-20 0.0196763 4.05556e-19 0.0192824)
(0.0159522 -0.00798837 -5.57144e-19 0.0219628 -5.94386e-19 0.018987)
(0.0143231 -0.0066621 1.77964e-19 0.0278537 -1.07632e-18 0.0211244)
(0.0164152 -0.00446821 -4.48775e-19 0.0403659 6.5517e-19 0.028433)
(0.0229964 -0.00090708 3.96454e-19 0.0605754 -5.55848e-19 0.0418399)
(0.0341871 0.00431077 4.5092e-19 0.0889283 -1.41493e-18 0.0616068)
(0.0501292 0.0114864 4.44419e-19 0.125975 8.25244e-19 0.0880605)
(0.0715822 0.0210914 4.7687e-19 0.173553 1.78786e-18 0.122707)
(0.0999321 0.0344248 3.88589e-19 0.233316 1.88083e-18 0.167115)
(0.13557 0.0525755 -5.80626e-19 0.300613 -2.3467e-18 0.216247)
(0.187935 0.0716193 2.93519e-20 0.425995 -8.14828e-19 0.313071)
(0.314532 0.152639 -1.99874e-19 0.544434 -1.68857e-18 0.417446)
(0.232331 0.0881981 -4.84183e-19 0.526811 -8.11405e-19 0.38586)
(0.00800033 -0.000751544 5.32131e-22 0.00681296 1.28032e-21 0.00740088)
(0.00683804 -0.000820027 -8.30044e-22 0.00653819 -1.64342e-21 0.00665862)
(0.00684677 -0.000894908 4.50117e-21 0.00738757 9.14988e-21 0.00711442)
(0.00337106 -0.000387221 5.14694e-21 0.00375077 9.05377e-21 0.00355065)
(0.00528588 0.00015803 -4.89236e-21 0.00423712 -7.27524e-21 0.00474149)
(0.19056 0.0147251 3.28576e-20 0.0777316 -1.0796e-20 0.134375)
(1.00355 0.0302336 -7.27418e-20 0.381946 -8.86627e-21 0.697982)
(1.78817 -0.0470919 -2.52612e-19 0.681752 3.17117e-19 1.23176)
(1.50652 -0.1676 4.03507e-19 0.611491 -1.81077e-19 1.06847)
(0.721408 -0.151921 9.71e-21 0.349387 1.7819e-19 0.530652)
(0.367765 -0.0959278 3.61437e-19 0.201648 -2.34435e-18 0.277786)
(0.216918 -0.0617915 -2.57401e-19 0.125409 3.97436e-19 0.170296)
(0.146662 -0.044932 -2.91045e-19 0.0895647 2.32575e-19 0.118699)
(0.10358 -0.0339939 3.3685e-19 0.0674409 -2.32065e-18 0.0856402)
(0.0787218 -0.0272884 2.6719e-19 0.0542122 1.33021e-19 0.0664978)
(0.0618769 -0.0221713 1.68743e-19 0.0442156 1.77459e-19 0.0530143)
(0.0516937 -0.0189737 -1.57002e-19 0.0379963 6.2912e-19 0.0447953)
(0.045125 -0.0167617 -1.02721e-20 0.0336376 1.38051e-19 0.0393659)
(0.0411594 -0.0154751 3.6859e-20 0.0311522 -6.70586e-20 0.0361199)
(0.0391372 -0.0148657 4.76656e-20 0.0299947 4.98195e-20 0.0345576)
(0.0382317 -0.0147019 -1.01578e-20 0.0297759 2.31627e-19 0.0339824)
(0.0383119 -0.0148398 -8.95031e-20 0.0301244 2.29349e-19 0.0341958)
(0.0394345 -0.0153083 1.22945e-19 0.0310987 1.75633e-19 0.0352417)
(0.0413685 -0.0161294 1.5152e-19 0.0328105 4.02443e-19 0.0370741)
(0.0433981 -0.0170965 -1.78732e-19 0.0349054 -9.86008e-20 0.0391399)
(0.0449262 -0.0180219 -1.33964e-19 0.0370622 2.04654e-18 0.0409869)
(0.04535 -0.0187297 8.27394e-20 0.0390615 -3.14656e-20 0.0422027)
(0.0440451 -0.0190172 -2.96372e-19 0.0407847 -8.34068e-19 0.042418)
(0.0405845 -0.0186564 -5.04509e-19 0.0424279 -1.6101e-18 0.0415165)
(0.0352519 -0.0173871 3.6637e-19 0.0449738 -6.63191e-19 0.0401337)
(0.0299756 -0.0148799 1.22378e-19 0.051083 1.76345e-18 0.0405595)
(0.0288363 -0.0107057 2.63789e-19 0.0655119 -1.0673e-18 0.0472134)
(0.0355464 -0.00434428 -2.33561e-19 0.0925486 2.96976e-18 0.0641081)
(0.0510336 0.00470255 -9.00594e-19 0.133606 1.46287e-19 0.0923831)
(0.0750544 0.0169334 -3.36366e-19 0.18891 6.21562e-19 0.131989)
(0.108173 0.0330239 -4.57525e-19 0.260345 7.43393e-19 0.184442)
(0.152256 0.0549437 -6.71503e-20 0.349959 -3.62678e-20 0.251766)
(0.209376 0.0855266 2.23946e-20 0.451861 7.37654e-20 0.328064)
(0.279185 0.115396 -3.20168e-20 0.606603 1.62808e-18 0.450441)
(0.462092 0.224983 -3.61246e-20 0.798456 -1.11834e-18 0.614895)
(0.356304 0.173848 6.35792e-19 0.651154 -7.48888e-19 0.513566)
(0.00579285 -0.000516029 -5.25283e-22 0.00489082 -8.93392e-22 0.00534718)
(0.00508113 -0.000610227 2.71118e-21 0.00473839 4.42914e-21 0.00490079)
(0.00470749 -0.000598658 -1.33508e-21 0.00484798 -2.91453e-21 0.00477226)
(0.00497349 -0.000631811 -1.31065e-21 0.00559549 -3.50253e-21 0.00528947)
(0.00156395 -9.45747e-05 2.99734e-22 0.00168331 7.22115e-22 0.00162289)
(0.00122486 7.10515e-06 -1.54607e-22 0.00110759 -1.53005e-22 0.00116359)
(0.129362 0.00768378 -2.34709e-20 0.0522227 -2.41347e-20 0.0906675)
(0.804679 0.0180491 -7.9641e-20 0.305727 9.846e-20 0.558245)
(1.81499 -0.0452395 -1.68673e-19 0.690977 -1.62489e-19 1.25305)
(1.93553 -0.179155 -3.68295e-19 0.770268 -9.65658e-19 1.35809)
(1.20479 -0.221312 3.74919e-19 0.548601 5.62652e-19 0.885711)
(0.591559 -0.147732 6.02454e-19 0.315897 -8.2887e-19 0.441846)
(0.355239 -0.10077 -8.05543e-19 0.205569 6.19991e-19 0.276409)
(0.234412 -0.0705797 3.51705e-19 0.141346 1.07906e-18 0.187839)
(0.169074 -0.0551086 1.83251e-20 0.109254 4.76249e-19 0.139707)
(0.128209 -0.0442327 -2.27432e-19 0.0877855 -8.56172e-20 0.108224)
(0.104013 -0.0376578 1.59924e-19 0.0752151 -8.94461e-19 0.0895534)
(0.0887525 -0.0331031 -3.40576e-20 0.0664837 5.81837e-19 0.0776031)
(0.0792003 -0.0302943 7.02992e-20 0.0612583 -1.10649e-19 0.0701756)
(0.0739122 -0.0288027 4.66839e-20 0.058564 2.02746e-19 0.0662431)
(0.0709795 -0.0281181 -6.28944e-20 0.0575281 -2.92417e-19 0.0642369)
(0.0699079 -0.0279463 2.98268e-20 0.0573839 1.1873e-20 0.0636392)
(0.0705102 -0.0282552 1.40772e-20 0.0580807 1.01422e-19 0.0642821)
(0.0724617 -0.0290815 -2.95774e-19 0.059815 -3.40686e-19 0.0661318)
(0.0748083 -0.030165 3.21889e-19 0.0621732 -8.02015e-19 0.068483)
(0.0767102 -0.0312694 4.45508e-20 0.064778 -4.30073e-19 0.0707362)
(0.0772299 -0.0321294 -5.36648e-19 0.0672763 -4.31115e-19 0.0722456)
(0.0753043 -0.03241 5.2729e-20 0.0693508 -9.72666e-19 0.072322)
(0.070012 -0.0317165 8.48409e-19 0.070967 -1.18565e-19 0.0704888)
(0.0611777 -0.0295946 3.37949e-19 0.0729024 1.42505e-18 0.0670515)
(0.050608 -0.025495 -4.1283e-19 0.0779312 -7.7856e-19 0.064292)
(0.0439751 -0.0187943 -4.95935e-19 0.0926229 6.37741e-19 0.068328)
(0.0489507 -0.00881475 -2.14023e-19 0.125436 -3.16279e-18 0.0872489)
(0.0686058 0.00520147 7.79028e-19 0.180022 -1.97068e-18 0.124376)
(0.102136 0.0240076 6.26463e-19 0.255953 -1.79641e-18 0.179037)
(0.149337 0.0484882 -1.34571e-19 0.354208 -6.40513e-20 0.252003)
(0.212307 0.0812766 1.39441e-19 0.47648 1.44769e-18 0.345156)
(0.294909 0.126719 4.18508e-20 0.615737 -8.19717e-19 0.452347)
(0.384095 0.170471 -2.45605e-19 0.791571 7.50721e-19 0.59621)
(0.607005 0.29679 -5.52521e-19 1.04528 1.78083e-18 0.80966)
(0.531663 0.268317 -5.38677e-19 0.856272 -8.88038e-19 0.703641)
(0.00420765 -0.00035184 -1.26712e-22 0.00350995 -2.33555e-22 0.00386208)
(0.00386286 -0.000441803 2.95476e-22 0.00351524 3.48129e-22 0.00368914)
(0.00347516 -0.000441322 -1.38683e-21 0.00345351 -1.84824e-21 0.00346315)
(0.00354154 -0.00045913 -2.20116e-21 0.00384013 -2.76034e-21 0.00368851)
(0.00354729 -0.000402752 -7.547e-22 0.00407967 -8.81635e-22 0.00381562)
(0.000712548 -1.9695e-05 2.04873e-22 0.00074454 2.83708e-22 0.000728609)
(3.27192e-05 -2.73008e-08 -4.90697e-25 3.25198e-05 -7.42861e-25 3.26137e-05)
(0.060018 0.00234422 1.85974e-20 0.0252033 2.04825e-20 0.0424534)
(0.540456 0.00809904 2.38482e-19 0.205267 2.29737e-19 0.373814)
(1.58115 -0.0391897 -1.70702e-19 0.601294 3.89733e-19 1.09439)
(2.19219 -0.164218 -2.73623e-19 0.859619 6.47805e-19 1.52309)
(1.78348 -0.272961 2.73759e-19 0.768412 -1.06915e-18 1.29136)
(0.992838 -0.230913 4.38531e-19 0.503409 1.32124e-18 0.74685)
(0.546594 -0.151614 -7.8453e-19 0.313122 -2.97032e-19 0.418277)
(0.357647 -0.107977 3.32989e-19 0.216852 -1.34195e-18 0.284965)
(0.257074 -0.0824481 -2.22543e-19 0.163675 7.6927e-19 0.210965)
(0.196049 -0.0674363 1.38182e-19 0.133783 7.54786e-19 0.165351)
(0.158435 -0.057363 1.58066e-19 0.11445 3.88738e-19 0.136682)
(0.135234 -0.0510329 -8.23876e-20 0.102806 3.43514e-19 0.11894)
(0.122308 -0.047494 9.17048e-21 0.0964608 -9.94261e-19 0.109372)
(0.114954 -0.0456386 2.16762e-20 0.0934682 4.24278e-19 0.104152)
(0.111734 -0.0448807 -1.30907e-19 0.0923483 -8.39392e-21 0.102022)
(0.111591 -0.0449812 1.23307e-19 0.0926997 -4.7783e-19 0.102126)
(0.113788 -0.0459141 2.03839e-19 0.094659 -7.07947e-20 0.104219)
(0.116897 -0.0472834 -1.78857e-19 0.0975889 1.03338e-18 0.107241)
(0.11967 -0.0487491 -3.23588e-19 0.100951 -9.08072e-19 0.110309)
(0.120714 -0.0499145 4.11943e-19 0.104159 -5.42069e-19 0.112435)
(0.118377 -0.0502649 2.09056e-19 0.106562 1.63896e-18 0.112467)
(0.111015 -0.0491826 1.44372e-19 0.107699 1.79591e-18 0.109356)
(0.0977341 -0.0459926 -2.04038e-19 0.107919 -3.26513e-19 0.102838)
(0.0797196 -0.039897 -2.02482e-20 0.109642 -1.186e-18 0.0947048)
(0.0634986 -0.0300294 -4.05334e-19 0.120523 -3.56564e-19 0.0920393)
(0.0620631 -0.0154737 -1.92552e-19 0.154482 1.48966e-18 0.108331)
(0.0838761 0.0048158 9.46854e-20 0.220546 2.28876e-18 0.152275)
(0.127583 0.0318605 1.34652e-18 0.317423 7.60304e-19 0.222489)
(0.190929 0.0666891 2.23217e-19 0.443382 -8.48512e-19 0.31743)
(0.275375 0.112324 -1.57186e-18 0.598263 -7.45968e-19 0.437533)
(0.385238 0.173405 2.06978e-20 0.773205 -2.12095e-19 0.576268)
(0.498034 0.233357 -1.8925e-20 0.966349 -1.87781e-18 0.740142)
(0.741341 0.365345 -1.35261e-19 1.25656 6.01507e-19 0.983996)
(0.725344 0.366356 4.32491e-19 1.0926 1.59704e-18 0.914287)
(0.00308133 -0.000246197 -2.61826e-23 0.00255084 -5.21207e-24 0.00281947)
(0.00291559 -0.000315221 -5.37764e-22 0.00259424 -7.32353e-22 0.00275431)
(0.00276461 -0.000345239 5.21932e-22 0.00266226 7.06141e-22 0.00271254)
(0.00255455 -0.000328924 2.3895e-21 0.00266019 3.20036e-21 0.00260546)
(0.00265726 -0.000336525 4.74355e-22 0.00298818 6.60119e-22 0.00281961)
(0.00271816 -0.000292659 4.06402e-22 0.00319629 2.15643e-22 0.00295776)
(0.000135097 -6.98723e-07 -1.41477e-23 0.000136492 -1.56008e-23 0.000135802)
(1.67774e-06 -4.93448e-10 -1.06317e-27 1.67764e-06 -7.24787e-28 1.67767e-06)
(0.0176255 0.000182618 -9.32521e-21 0.00890029 -1.34434e-20 0.0131937)
(0.291224 0.00172301 1.71535e-19 0.110711 1.93434e-19 0.200929)
(1.14079 -0.0280316 -2.78349e-19 0.433823 -6.85455e-19 0.789547)
(2.14132 -0.137681 -1.03838e-19 0.832206 8.52853e-19 1.48573)
(2.27208 -0.279471 1.45538e-19 0.938213 -1.0247e-18 1.61067)
(1.58862 -0.32039 -3.52339e-19 0.749054 -3.91277e-19 1.18438)
(0.88109 -0.233764 9.34674e-19 0.485882 -2.74905e-19 0.674526)
(0.535431 -0.160641 3.82789e-19 0.325257 8.30359e-19 0.420673)
(0.37434 -0.11955 -3.50297e-19 0.238095 5.1458e-19 0.30492)
(0.285422 -0.0969684 -3.80305e-19 0.192168 4.38133e-19 0.239747)
(0.229668 -0.0829774 -6.11348e-19 0.16546 -3.62472e-20 0.198023)
(0.196466 -0.0744068 4.78309e-19 0.149891 -6.0709e-19 0.173419)
(0.177315 -0.0695328 1.92529e-19 0.141739 8.40583e-19 0.159428)
(0.168723 -0.0673776 -3.50552e-19 0.13831 -2.04672e-19 0.15345)
(0.16645 -0.0669024 1.22995e-19 0.13772 3.52801e-19 0.152012)
(0.168656 -0.0678997 9.22386e-20 0.13986 2.3408e-19 0.154213)
(0.172938 -0.0696912 1.7483e-20 0.143603 -3.75723e-19 0.158246)
(0.177331 -0.0717453 -2.34863e-20 0.148096 5.29099e-19 0.162702)
(0.179771 -0.0734639 3.37266e-19 0.152365 1.3758e-18 0.166071)
(0.177799 -0.0740837 3.07565e-19 0.155245 -5.4527e-19 0.166537)
(0.168693 -0.0726562 -4.53977e-19 0.155531 3.86254e-20 0.162133)
(0.150551 -0.0682606 -9.87668e-19 0.152852 -1.14333e-18 0.151732)
(0.123167 -0.0598045 2.51298e-19 0.148496 7.24688e-20 0.135875)
(0.0919856 -0.0461216 5.66078e-19 0.149214 -1.05332e-18 0.120646)
(0.0747286 -0.0260189 6.30446e-19 0.173693 3.29218e-19 0.124285)
(0.0922527 0.00181625 -4.2407e-19 0.243174 -1.75016e-19 0.167791)
(0.145002 0.0386032 -7.67906e-19 0.357581 1.51982e-18 0.251299)
(0.225747 0.0853636 -6.09858e-19 0.509011 -1.43187e-18 0.367697)
(0.333223 0.144932 9.65527e-19 0.692849 -2.19632e-19 0.513602)
(0.469734 0.220669 3.06265e-20 0.897014 3.65103e-19 0.680938)
(0.609766 0.29702 2.01824e-19 1.105 -3.54196e-19 0.863541)
(0.852209 0.424634 -1.52512e-19 1.39503 -8.33046e-19 1.11322)
(0.902727 0.453764 -4.54551e-19 1.30106 5.40361e-19 1.0999)
(0.00228238 -0.00017485 -8.44628e-23 0.00187806 -2.84791e-23 0.00208258)
(0.0021882 -0.000225592 -4.52219e-22 0.00191545 -7.04331e-22 0.00205147)
(0.00212324 -0.000255249 1.89065e-21 0.00198821 2.15326e-21 0.00205553)
(0.00203322 -0.00026219 -2.54478e-22 0.0020441 -3.24229e-22 0.00203872)
(0.00188618 -0.000238352 6.67482e-22 0.00203257 6.20369e-22 0.00195844)
(0.00205036 -0.000258639 -6.70547e-22 0.00238031 -6.1048e-22 0.00221259)
(0.00193928 -0.000183158 1.3693e-21 0.00229678 1.8351e-21 0.00211742)
(0.00028179 -3.23363e-06 3.33382e-23 0.000289496 2.79605e-23 0.00028568)
(0.000256402 -6.27746e-06 1.71062e-24 0.000266439 3.06642e-23 0.000261407)
(0.00056824 -3.72034e-06 2.4574e-22 0.000523422 2.17964e-22 0.000545331)
(0.111713 -0.000838136 -5.00133e-21 0.0427767 5.2095e-21 0.0770325)
(0.655987 -0.0175299 -3.20742e-19 0.249805 -2.15889e-19 0.45338)
(1.70192 -0.0989377 2.00233e-19 0.658056 -3.95549e-19 1.1816)
(2.44732 -0.244856 -4.90225e-19 0.983865 9.2787e-19 1.71291)
(2.22048 -0.366155 -2.55486e-19 0.977237 -9.3123e-19 1.61282)
(1.45233 -0.346188 5.46944e-19 0.743177 7.43109e-19 1.10902)
(0.838805 -0.243432 3.39978e-19 0.495093 -1.5439e-18 0.654412)
(0.546727 -0.174558 1.64157e-19 0.350157 5.74801e-19 0.439852)
(0.404256 -0.136239 -7.33783e-19 0.270631 -1.12157e-18 0.336723)
(0.323456 -0.11587 2.97457e-19 0.23058 1.18777e-18 0.2782)
(0.275308 -0.104254 7.39748e-20 0.20994 -8.7404e-19 0.243139)
(0.251597 -0.0985915 -3.27097e-19 0.200777 4.29194e-19 0.226383)
(0.242379 -0.0964716 2.45456e-19 0.197761 5.32314e-21 0.219978)
(0.242604 -0.0970839 -4.24042e-20 0.199479 2.7039e-20 0.220915)
(0.247736 -0.0992314 -8.93064e-20 0.203956 7.35371e-19 0.225755)
(0.254121 -0.101916 1.08649e-19 0.209574 -1.75159e-19 0.23178)
(0.258729 -0.104269 -7.6486e-19 0.21486 6.22156e-21 0.236755)
(0.258255 -0.105298 -3.73772e-19 0.218154 1.90507e-19 0.238192)
(0.248844 -0.103747 -1.93888e-19 0.217479 -1.21764e-18 0.233182)
(0.226881 -0.098238 9.4659e-19 0.211097 1.01076e-19 0.219052)
(0.189995 -0.087297 1.59373e-19 0.198367 8.15858e-19 0.194287)
(0.139957 -0.0693824 2.90159e-19 0.182487 9.01961e-19 0.161344)
(0.0925857 -0.0430277 -6.00974e-19 0.180144 2.68177e-19 0.136498)
(0.0883251 -0.00677112 4.93085e-19 0.231765 -1.19613e-18 0.160169)
(0.144541 0.040624 2.81443e-19 0.353374 -1.41866e-19 0.249023)
(0.242692 0.0999042 1.01582e-18 0.524183 3.15977e-19 0.383781)
(0.37338 0.172907 -1.48822e-18 0.729576 4.61197e-19 0.55188)
(0.534047 0.260595 -1.36544e-19 0.952745 1.09945e-19 0.741706)
(0.699845 0.349589 2.90676e-19 1.16939 4.58846e-19 0.938243)
(0.925713 0.465372 4.68809e-19 1.43121 1.36692e-20 1.17374)
(1.02638 0.512364 9.10554e-20 1.41745 -1.18796e-18 1.21273)
(0.00169879 -0.000125679 -3.32183e-22 0.00139145 -3.8658e-22 0.00154679)
(0.00164296 -0.00016254 1.34535e-21 0.00142106 1.40676e-21 0.00153207)
(0.00160993 -0.000186666 -3.15177e-22 0.0014765 -2.78759e-22 0.00154323)
(0.00157858 -0.000199604 -2.47707e-21 0.00154131 -2.61528e-21 0.00156004)
(0.00151624 -0.000196092 -2.32835e-22 0.00157771 -3.12098e-22 0.00154709)
(0.0014243 -0.000176046 2.4315e-21 0.00157572 2.60319e-21 0.00149954)
(0.00154368 -0.00018772 -7.00703e-22 0.00183222 -9.23801e-22 0.00168602)
(0.0013817 -0.000115116 -4.74855e-21 0.00164427 -4.72605e-21 0.00151197)
(0.000470991 -1.01647e-05 4.57199e-22 0.00049957 4.42192e-22 0.000485346)
(6.62486e-05 -2.64418e-07 7.81993e-25 6.69387e-05 -7.47012e-25 6.65974e-05)
(0.00136429 -0.000254936 -1.06451e-21 0.00107256 -1.75814e-21 0.00121147)
(0.0245503 -0.000827525 -8.69716e-21 0.0101924 -4.93268e-21 0.0172847)
(0.284601 -0.00947152 -1.89477e-19 0.108758 -1.25074e-19 0.196473)
(1.06188 -0.0588937 1.737e-19 0.409888 -1.33825e-19 0.736774)
(2.12293 -0.184406 -6.41816e-19 0.841225 6.7443e-19 1.48157)
(2.59171 -0.341537 5.97832e-19 1.08498 -3.98162e-19 1.83776)
(2.15988 -0.428747 -5.02748e-19 1.0123 7.53301e-19 1.60464)
(1.39589 -0.370928 -1.08482e-19 0.764363 -1.80656e-19 1.08766)
(0.846191 -0.263123 -2.3935e-19 0.529393 -3.56575e-19 0.673972)
(0.579963 -0.195821 2.88075e-19 0.391947 -1.03542e-18 0.477345)
(0.451615 -0.160857 4.52665e-19 0.320688 3.27337e-19 0.38549)
(0.386492 -0.144735 -2.42636e-19 0.290401 -9.93936e-19 0.339824)
(0.355561 -0.13773 -2.26048e-19 0.279151 4.47437e-19 0.318175)
(0.345673 -0.136291 7.01527e-19 0.278163 -5.83599e-19 0.312225)
(0.348046 -0.138154 -4.12097e-19 0.282851 4.91775e-20 0.31542)
(0.356334 -0.141656 -5.63402e-19 0.290261 -3.68315e-19 0.323124)
(0.365001 -0.145206 1.001e-18 0.297612 -1.41376e-18 0.331146)
(0.368239 -0.147026 -2.29689e-20 0.301766 1.06691e-18 0.334902)
(0.360525 -0.145408 1.1579e-22 0.299725 -6.462e-20 0.330093)
(0.337042 -0.138747 -5.9964e-19 0.28883 1.0519e-18 0.312963)
(0.293475 -0.125322 6.48569e-20 0.266634 -6.34564e-19 0.280146)
(0.226777 -0.103134 -1.27975e-20 0.231615 3.25829e-19 0.229357)
(0.141284 -0.0704063 -6.80993e-19 0.188856 -5.74318e-19 0.1653)
(0.075218 -0.0256707 3.67293e-19 0.176058 1.71063e-18 0.125921)
(0.11272 0.0320581 -5.19105e-19 0.275141 2.80941e-19 0.194201)
(0.227229 0.102866 -4.88694e-19 0.455736 1.85061e-21 0.341957)
(0.38075 0.186769 6.93424e-19 0.673173 -1.83886e-18 0.527365)
(0.562035 0.281931 -7.14612e-20 0.903469 7.64261e-19 0.731769)
(0.74635 0.376323 -1.58031e-19 1.11929 -9.13246e-19 0.934296)
(0.94655 0.475384 -1.37584e-18 1.3411 -6.63808e-19 1.14363)
(1.06982 0.527565 -3.22453e-19 1.38978 -1.90855e-19 1.2167)
(0.00126916 -9.13695e-05 -2.94634e-22 0.00103611 -2.39687e-22 0.00115377)
(0.00123461 -0.00011809 -1.23001e-21 0.00105861 -1.10901e-21 0.00114677)
(0.00121709 -0.000136623 -6.78758e-23 0.00109932 -1.86592e-22 0.00115823)
(0.00120362 -0.000148596 -2.00318e-22 0.00114922 -1.69197e-22 0.00117648)
(0.00118647 -0.000153267 1.75772e-21 0.00119963 1.73182e-21 0.00119309)
(0.00114247 -0.000145854 9.40545e-22 0.00122179 7.65333e-22 0.0011822)
(0.00109529 -0.000132734 -1.30492e-21 0.00123747 -1.24777e-21 0.00116621)
(0.00113415 -0.000128554 -9.75497e-22 0.00136105 -3.71065e-22 0.00124658)
(0.00111289 -9.47407e-05 -6.25151e-22 0.00136086 -6.30983e-22 0.00123562)
(0.000613417 -2.04346e-05 -1.06171e-21 0.000681075 -1.04716e-21 0.000647204)
(4.43508e-05 -1.0019e-07 -1.53267e-24 4.46948e-05 -1.05237e-24 4.45243e-05)
(0.000221941 -6.69413e-06 -2.20433e-23 0.000234979 -1.00278e-23 0.000228509)
(0.000204803 -2.08751e-06 8.55123e-23 0.000195038 8.34329e-23 0.000199837)
(0.076661 -0.00384453 -2.76446e-19 0.0296925 -2.27876e-19 0.053011)
(0.4852 -0.0279587 7.30521e-19 0.187674 6.29417e-19 0.336327)
(1.39888 -0.112086 -3.43255e-19 0.550554 -4.10846e-19 0.975411)
(2.38605 -0.265627 1.48521e-18 0.972091 9.14657e-19 1.67678)
(2.66571 -0.421401 6.33558e-19 1.16249 7.70113e-19 1.91636)
(2.15309 -0.481673 -1.83515e-18 1.06463 -2.64469e-19 1.62934)
(1.41878 -0.406444 5.96503e-19 0.820232 -1.175e-18 1.12621)
(0.900469 -0.297293 2.83201e-19 0.595398 1.41889e-18 0.733747)
(0.654069 -0.232841 -5.68399e-20 0.468222 -7.99438e-19 0.550532)
(0.55203 -0.203912 5.75744e-19 0.409275 6.21371e-19 0.479024)
(0.507921 -0.192816 -3.43288e-19 0.388136 -6.81169e-19 0.450036)
(0.492131 -0.190643 3.93116e-19 0.386154 5.01635e-20 0.440898)
(0.493469 -0.193167 -5.5494e-19 0.393047 8.49941e-19 0.444071)
(0.502957 -0.197439 1.08083e-19 0.40242 7.24591e-19 0.452874)
(0.511703 -0.200707 -1.83183e-19 0.409102 -1.87879e-18 0.460261)
(0.511451 -0.200477 -2.70114e-19 0.408572 4.56958e-19 0.459784)