/*--------------------------------*- C++ -*----------------------------------*\
| =========                 |                                                 |
| \\      /  F ield         | OpenFOAM: The Open Source CFD Toolbox           |
|  \\    /   O peration     | Version:  2312                                  |
|   \\  /    A nd           | Website:  www.openfoam.com                      |
|    \\/     M anipulation  |                                                 |
\*---------------------------------------------------------------------------*/
FoamFile
{
    version     2.0;
    format      ascii;
    arch        "LSB;label=32;scalar=64";
    class       volVectorField;
    location    "1000";
    object      U;
}
// * * * * * * * * * * * * * * * * * * * * * * * * * * * * * * * * * * * * * //

dimensions      [0 1 -1 0 0 0 0];

internalField   nonuniform List<vector> 
11040
(
(-0.582391 8.74597 -3.44773e-19)
(0.791058 5.79975 -2.08639e-18)
(-0.023334 -0.115853 -2.28479e-17)
(-1.37041 -1.16201 -1.16912e-17)
(-1.40442 -0.70114 -4.29592e-18)
(-1.382 -0.603523 -1.69089e-17)
(-1.36509 -0.512448 3.07215e-17)
(-1.31981 -0.426704 2.23378e-17)
(-1.2824 -0.356726 4.40243e-18)
(-1.25399 -0.300544 1.22612e-18)
(-1.22851 -0.25519 -2.09276e-17)
(-1.20378 -0.213753 3.04934e-18)
(-1.18488 -0.177384 8.53009e-18)
(-1.1694 -0.145182 7.16548e-18)
(-1.1579 -0.114833 -6.84898e-18)
(-1.15248 -0.0873033 1.1848e-17)
(-1.15194 -0.0609438 5.52521e-18)
(-1.1589 -0.0356437 -1.41532e-17)
(-1.17414 -0.0108662 -4.27359e-19)
(-1.19769 0.013955 2.30905e-18)
(-1.22982 0.0390193 -2.59309e-18)
(-1.26847 0.0624847 -8.95089e-18)
(-1.31593 0.0833658 9.11026e-18)
(-1.37487 0.103626 -9.31628e-18)
(-1.44397 0.124043 9.59383e-18)
(-1.51974 0.14452 1.70996e-17)
(-1.59663 0.164747 7.23994e-18)
(-1.66727 0.18387 6.77262e-18)
(-1.72459 0.200811 7.0936e-18)
(-1.75994 0.21417 9.41494e-18)
(-1.76286 0.22247 -1.66975e-17)
(-1.72331 0.224736 -1.28092e-17)
(-1.64577 0.220889 -3.91774e-17)
(-1.52381 0.208473 -2.29193e-17)
(-1.35341 0.184447 2.51361e-18)
(-1.12971 0.147068 -3.64676e-17)
(-0.841697 0.0960395 9.92481e-19)
(-0.490181 0.0298791 -2.72682e-17)
(-0.122165 -0.042165 4.29917e-17)
(0.621552 -0.142504 3.49163e-17)
(0.0809883 -0.521583 -6.14176e-18)
(1.43778 7.91675 2.07574e-19)
(3.02592 8.44318 -2.37729e-19)
(2.65496 5.23131 7.11356e-18)
(0.748973 1.23884 1.16183e-18)
(-1.03016 -0.700453 -5.18198e-19)
(-1.24913 -0.580766 5.92961e-18)
(-1.34136 -0.514448 -9.30878e-19)
(-1.34899 -0.449025 -1.28308e-17)
(-1.34258 -0.38759 5.6925e-19)
(-1.34013 -0.331919 -4.20662e-18)
(-1.33596 -0.288329 6.38654e-18)
(-1.32805 -0.247296 -2.25998e-17)
(-1.32441 -0.208984 -1.78017e-18)
(-1.32232 -0.175522 -1.60882e-17)
(-1.32364 -0.142742 7.27137e-18)
(-1.33056 -0.112404 -2.94926e-18)
(-1.34319 -0.0829412 -4.77811e-18)
(-1.36295 -0.0539563 -4.84682e-18)
(-1.38979 -0.0251027 -6.29971e-19)
(-1.42477 0.00457379 3.76698e-19)
(-1.46813 0.0353335 1.34121e-18)
(-1.51893 0.0646335 3.84308e-18)
(-1.57759 0.090527 -5.91041e-18)
(-1.64318 0.115547 -1.34486e-18)
(-1.71103 0.140388 -1.62846e-18)
(-1.7755 0.164312 3.33958e-18)
(-1.83146 0.186596 2.0187e-18)
(-1.87401 0.2064 -1.11527e-17)
(-1.89781 0.222723 -9.03897e-19)
(-1.89833 0.234364 6.61944e-18)
(-1.87299 0.240496 8.38496e-18)
(-1.82039 0.240871 1.70915e-17)
(-1.72969 0.233386 1.41271e-17)
(-1.59591 0.215889 6.92649e-18)
(-1.4148 0.186514 -3.20699e-18)
(-1.18197 0.144108 1.29004e-17)
(-0.888629 0.0862347 -9.98168e-18)
(-0.534633 0.00553485 7.47379e-18)
(-0.163492 -0.0885017 -3.0608e-18)
(0.558549 -0.199092 -4.26135e-18)
(0.604005 -0.464001 5.80951e-18)
(1.82007 7.04721 -1.62079e-20)
(3.32283 8.13496 1.0844e-18)
(4.12519 7.88333 -2.01421e-18)
(3.42214 5.36688 -3.19719e-18)
(1.46171 1.99815 3.0887e-19)
(-0.449198 -0.203181 -4.12202e-18)
(-1.02725 -0.427084 -8.74922e-18)
(-1.20681 -0.418057 -8.06475e-18)
(-1.2593 -0.374596 5.84732e-18)
(-1.29318 -0.327247 2.66386e-19)
(-1.3177 -0.291064 3.5614e-18)
(-1.32958 -0.253767 1.1668e-17)
(-1.34204 -0.215406 -9.05239e-18)
(-1.3527 -0.182265 9.96557e-18)
(-1.36467 -0.1482 -6.19923e-18)
(-1.38042 -0.116394 -2.78856e-18)
(-1.39999 -0.0850757 1.32739e-18)
(-1.42529 -0.0539869 1.88306e-18)
(-1.45648 -0.0230717 9.45525e-20)
(-1.49439 0.00881492 -9.01899e-20)
(-1.53912 0.0418501 -3.1129e-18)
(-1.58897 0.0736066 -2.62275e-18)
(-1.64319 0.1013 5.41541e-19)
(-1.70089 0.127094 -3.70117e-19)
(-1.75864 0.151616 3.17945e-18)
(-1.81258 0.174272 -7.01203e-18)
(-1.85912 0.194438 -5.0535e-18)
(-1.89438 0.21135 7.31009e-18)
(-1.9141 0.224211 1.77585e-18)
(-1.91396 0.232059 -1.11021e-18)
(-1.88944 0.233898 -7.28883e-18)
(-1.8352 0.228564 3.04761e-18)
(-1.74469 0.214465 -6.84467e-18)
(-1.61282 0.189906 -9.09829e-18)
(-1.43527 0.153168 2.00417e-18)
(-1.2081 0.103257 5.13088e-18)
(-0.923048 0.0378321 7.69961e-18)
(-0.578045 -0.0517538 -7.85928e-18)
(-0.2156 -0.163207 -1.59049e-18)
(0.448408 -0.278988 -2.08895e-18)
(0.641571 -0.626577 -3.43696e-18)
(2.21871 6.62308 -5.65725e-20)
(3.122 7.33128 -2.05641e-19)
(4.17611 8.03154 1.07526e-18)
(4.70806 7.62452 2.0056e-18)
(4.0113 5.55699 -2.82103e-19)
(2.1867 2.64267 -2.58422e-18)
(0.192455 0.350145 1.75707e-18)
(-0.733281 -0.25122 4.24288e-18)
(-1.02859 -0.30784 -3.22813e-18)
(-1.14144 -0.284721 3.66465e-18)
(-1.21394 -0.266925 -8.59027e-18)
(-1.25611 -0.242629 1.15777e-18)
(-1.29011 -0.208995 1.24643e-18)
(-1.31674 -0.179604 -7.91463e-18)
(-1.34003 -0.146471 -3.85324e-18)
(-1.36426 -0.11492 2.43386e-18)
(-1.3898 -0.0832291 4.62114e-18)
(-1.41943 -0.0512583 2.14563e-18)
(-1.45336 -0.0194515 -1.33416e-19)
(-1.49246 0.0134663 1.42694e-19)
(-1.53684 0.0473467 8.12675e-19)
(-1.58474 0.0800394 2.44167e-18)
(-1.63534 0.108565 8.3006e-19)
(-1.68834 0.134644 1.48531e-18)
(-1.74154 0.158748 2.25026e-18)
(-1.79206 0.180415 1.00888e-17)
(-1.83675 0.199037 -7.35909e-19)
(-1.87186 0.213768 -1.29933e-18)
(-1.89309 0.223701 -4.46902e-18)
(-1.89573 0.227743 -3.88892e-18)
(-1.87466 0.224708 5.42032e-18)
(-1.82452 0.213288 -4.57235e-18)
(-1.73985 0.192057 1.20327e-17)
(-1.6155 0.159387 3.17791e-18)
(-1.44714 0.113568 2.50738e-18)
(-1.23103 0.0535491 5.28412e-19)
(-0.959562 -0.0225732 -1.18776e-19)
(-0.629528 -0.123058 -6.22229e-19)
(-0.281584 -0.253027 1.6887e-18)
(0.304944 -0.369129 -2.4277e-18)
(0.56281 -0.725832 6.483e-19)
(2.67553 6.13772 1.14041e-19)
(3.35735 6.69074 -1.11286e-19)
(4.06337 7.24145 -9.43125e-19)
(4.84277 7.75427 -1.52596e-18)
(5.22046 7.44342 1.52786e-18)
(4.61733 5.82166 -1.14214e-19)
(2.96629 3.30826 4.56744e-19)
(0.980415 1.02414 2.76927e-18)
(-0.343084 -0.0341992 -1.1332e-18)
(-0.789787 -0.174532 -1.97537e-18)
(-0.995276 -0.198775 -2.79649e-18)
(-1.10208 -0.201951 -1.88299e-20)
(-1.17211 -0.183081 -9.52516e-20)
(-1.22537 -0.164151 5.00086e-18)
(-1.26573 -0.136032 3.00517e-18)
(-1.30211 -0.107166 1.17976e-19)
(-1.33545 -0.0768533 -2.00168e-18)
(-1.37017 -0.0452852 2.2142e-18)
(-1.40702 -0.0137588 -3.24951e-19)
(-1.44739 0.0191819 7.74456e-19)
(-1.49188 0.0529871 -1.58284e-18)
(-1.53912 0.0858753 -1.67483e-19)
(-1.58845 0.114791 2.09627e-18)
(-1.63996 0.141057 -2.24962e-18)
(-1.6922 0.164888 -4.93378e-18)
(-1.74274 0.18576 -2.4865e-18)
(-1.7886 0.202941 5.14798e-19)
(-1.82609 0.215439 -3.97121e-18)
(-1.85092 0.222178 1.11824e-19)
(-1.8583 0.22192 3.69586e-18)
(-1.84314 0.213368 -2.8848e-18)
(-1.80032 0.195177 6.01478e-19)
(-1.72477 0.16597 -8.33961e-18)
(-1.6114 0.124159 -3.96304e-18)
(-1.45594 0.0680547 -2.28584e-18)
(-1.2549 -0.00343304 -2.16795e-18)
(-1.00159 -0.0917273 1.19299e-18)
(-0.692754 -0.204322 -5.40695e-20)
(-0.364364 -0.349964 8.82702e-19)
(0.13814 -0.471558 3.23733e-18)
(0.427229 -0.796924 -1.86772e-18)
(3.07903 5.6973 -1.48071e-19)
(3.5912 6.21459 2.19825e-19)
(4.11208 6.61328 2.03545e-19)
(4.69481 7.0519 5.46518e-19)
(5.33139 7.46718 -4.12261e-19)
(5.67279 7.30709 2.01874e-19)
(5.22514 6.10471 5.00056e-19)
(3.81911 4.01058 1.87187e-20)
(1.89607 1.80152 -1.00715e-19)
(0.255471 0.345554 4.16577e-18)
(-0.469222 -0.0269003 4.66291e-18)
(-0.799156 -0.105399 -2.12883e-18)
(-0.957689 -0.120039 -1.35355e-18)
(-1.06481 -0.124897 6.26627e-18)
(-1.13588 -0.111185 -5.27926e-18)
(-1.19363 -0.0900181 2.31192e-18)
(-1.24073 -0.0643949 2.17399e-19)
(-1.28429 -0.0350957 6.11736e-19)
(-1.32635 -0.00518854 7.22322e-19)
(-1.36945 0.0268765 -3.56916e-19)
(-1.41523 0.0599157 -7.55653e-19)
(-1.46311 0.0925917 5.48299e-19)
(-1.5128 0.1217 -9.24356e-19)
(-1.56466 0.148125 -6.52072e-19)
(-1.61778 0.17175 4.73544e-18)
(-1.67001 0.191891 -3.11787e-18)
(-1.71856 0.207616 -7.3063e-19)
(-1.75987 0.21773 4.91981e-18)
(-1.78979 0.220962 3.8704e-18)
(-1.80366 0.215929 -1.89969e-18)
(-1.79657 0.201219 -1.54355e-18)
(-1.76363 0.17545 -4.86976e-19)
(-1.70002 0.137272 3.86975e-18)
(-1.60084 0.0851471 4.04071e-18)
(-1.46199 0.0174531 1.14898e-18)
(-1.28029 -0.0668271 -1.54101e-18)
(-1.05027 -0.168567 -2.19369e-19)
(-0.769672 -0.294111 -1.0596e-18)
(-0.467853 -0.451484 -2.56753e-18)
(-0.0465187 -0.582881 -1.24895e-19)
(0.249369 -0.860126 1.97597e-18)
(3.46301 5.33914 -2.83879e-20)
(3.83261 5.77581 1.64138e-19)
(4.22943 6.16544 2.52803e-20)
(4.66243 6.47008 4.50364e-19)
(5.15961 6.80589 2.27794e-19)
(5.70531 7.15939 -7.76564e-19)
(6.05739 7.154 2.27513e-19)
(5.80143 6.35222 -2.04752e-19)
(4.69547 4.70207 -1.50648e-18)
(2.93173 2.66331 3.90656e-20)
(1.13598 0.97056 -5.59967e-18)
(-0.0279221 0.171915 7.3258e-18)
(-0.514274 0.0123703 -5.87879e-18)
(-0.777899 -0.0376429 -6.57258e-19)
(-0.921568 -0.0548937 2.83864e-18)
(-1.02337 -0.0535844 -1.01361e-18)
(-1.09753 -0.0407737 3.96222e-18)
(-1.15825 -0.017814 -1.6315e-18)
(-1.211 0.00792194 3.7571e-19)
(-1.26033 0.0376867 -2.96536e-19)
(-1.30943 0.0690361 3.08451e-19)
(-1.35914 0.101082 -4.05998e-19)
(-1.41015 0.130237 2.14507e-18)
(-1.46325 0.15685 -7.04206e-19)
(-1.51809 0.180385 -1.77686e-18)
(-1.57288 0.1999 8.33023e-19)
(-1.62502 0.21421 2.7104e-18)
(-1.67121 0.221865 -1.33835e-18)
(-1.7075 0.221359 3.65745e-20)
(-1.72948 0.211142 -1.05993e-18)
(-1.73248 0.189684 6.80058e-20)
(-1.71187 0.155544 -1.79148e-18)
(-1.6631 0.10741 -3.89808e-20)
(-1.58158 0.0438174 8.06595e-19)
(-1.46351 -0.0367052 2.69895e-18)
(-1.30606 -0.134931 -2.0841e-18)
(-1.10519 -0.251087 -2.42769e-18)
(-0.860131 -0.389873 2.00782e-18)
(-0.592797 -0.555482 -7.47958e-19)
(-0.248393 -0.699336 2.27246e-20)
(0.0323816 -0.925152 9.52761e-20)
(3.81082 5.03588 -7.64392e-21)
(4.09627 5.39922 -6.09215e-20)
(4.39202 5.74501 4.00267e-20)
(4.72657 6.0424 -2.47945e-19)
(5.09865 6.27521 -1.49165e-19)
(5.5216 6.52758 -2.56142e-19)
(5.99583 6.83049 1.09309e-18)
(6.3662 6.95022 1.77996e-19)
(6.30697 6.50772 5.22126e-19)
(5.53361 5.31216 -1.10423e-18)
(4.04949 3.56775 1.17803e-18)
(2.24453 1.80497 1.68025e-18)
(0.709089 0.589152 -4.28768e-18)
(-0.124916 0.153408 6.37554e-18)
(-0.517321 0.0593553 1.06576e-19)
(-0.738778 0.024879 -1.28876e-18)
(-0.876708 0.00991498 -4.69353e-18)
(-0.975363 0.0155558 -3.75279e-19)
(-1.05172 0.030151 -1.47688e-18)
(-1.1151 0.0541018 5.58567e-18)
(-1.17207 0.0817414 -3.52189e-18)
(-1.22572 0.112324 5.93703e-19)
(-1.27889 0.141271 1.18398e-18)
(-1.33351 0.168125 2.05767e-19)
(-1.39019 0.191787 4.6261e-19)
(-1.44773 0.210905 2.11165e-19)
(-1.50388 0.223974 1.10054e-18)
(-1.55564 0.229245 -6.50741e-19)
(-1.59934 0.224944 -2.64807e-18)
(-1.63089 0.209317 -7.65589e-19)
(-1.64593 0.1807 2.27163e-18)
(-1.64013 0.137585 1.06172e-18)
(-1.60929 0.0787126 8.67506e-20)
(-1.54924 0.00273784 -1.86647e-18)
(-1.45659 -0.0915451 -1.04517e-18)
(-1.32895 -0.204459 6.8495e-19)
(-1.1637 -0.335469 1.59461e-18)
(-0.961427 -0.487128 -8.84453e-19)
(-0.737237 -0.658654 6.15469e-19)
(-0.46632 -0.813427 -1.31353e-18)
(-0.220616 -0.994452 -1.96372e-19)
(4.1325 4.77488 -2.03211e-20)
(4.36133 5.07995 -1.36441e-19)
(4.5894 5.37347 2.93882e-19)
(4.84239 5.64863 3.62405e-20)
(5.13168 5.88174 -5.93801e-20)
(5.45156 6.06016 1.01664e-20)
(5.81087 6.24367 -4.24177e-19)
(6.22099 6.48986 -4.34594e-19)
(6.59848 6.68346 -6.10035e-21)
(6.70898 6.53026 -8.17389e-19)
(6.27012 5.77722 -2.70413e-19)
(5.14912 4.42001 8.03168e-19)
(3.50466 2.76364 5.10746e-19)
(1.78554 1.29749 -2.15992e-18)
(0.507931 0.436927 7.44693e-18)
(-0.141409 0.177238 -3.58202e-18)
(-0.483444 0.113158 3.10495e-18)
(-0.683671 0.0869381 -4.85831e-18)
(-0.817781 0.0763336 -1.51138e-19)
(-0.915323 0.0843314 1.64237e-18)
(-0.9924 0.101993 -2.19496e-18)
(-1.05648 0.128287 -2.91068e-19)
(-1.11473 0.155894 5.83326e-19)
(-1.17184 0.182757 -1.93481e-18)
(-1.23024 0.206817 -5.36766e-19)
(-1.29 0.226004 -1.42831e-18)
(-1.34975 0.238343 -2.59181e-18)
(-1.40706 0.241671 9.81344e-19)
(-1.45869 0.233864 7.19127e-19)
(-1.50089 0.212941 2.32842e-18)
(-1.52967 0.177111 -9.28309e-19)
(-1.54107 0.124808 6.66035e-19)
(-1.53129 0.0548449 -7.74325e-19)
(-1.49672 -0.033934 1.87556e-18)
(-1.43441 -0.142333 -2.10273e-19)
(-1.34248 -0.27002 4.84619e-19)
(-1.21952 -0.415536 -2.4106e-18)
(-1.06699 -0.578975 1.54615e-18)
(-0.894799 -0.755105 -1.14607e-19)
(-0.695292 -0.916349 8.02817e-19)
(-0.499196 -1.06579 -8.3002e-19)
(4.42896 4.54816 -1.10666e-19)
(4.61776 4.80569 4.13275e-19)
(4.79993 5.05465 -1.45592e-19)
(4.9958 5.29247 -2.0122e-19)
(5.21805 5.51322 1.39809e-19)
(5.46897 5.69933 -3.26436e-19)
(5.74387 5.83895 1.03551e-19)
(6.04817 5.96887 1.66146e-18)
(6.39791 6.15302 -1.74473e-18)
(6.76116 6.36288 -1.76069e-19)
(6.99054 6.40948 8.72264e-20)
(6.84634 6.03874 6.54353e-20)
(6.12221 5.11192 8.73836e-19)
(4.79691 3.73195 -3.28901e-19)
(3.12187 2.23247 1.91889e-18)
(1.53644 1.0256 -2.33581e-18)
(0.451629 0.393513 1.03006e-18)
(-0.105114 0.217385 -8.96314e-19)
(-0.417225 0.171305 1.7224e-18)
(-0.607503 0.149725 1.35985e-18)
(-0.737659 0.143514 5.88983e-19)
(-0.830908 0.156245 -1.59457e-18)
(-0.904639 0.177552 1.49465e-18)
(-0.969595 0.202445 8.40555e-19)
(-1.03197 0.226528 -2.33873e-18)
(-1.09439 0.24618 1.6054e-18)
(-1.15721 0.258575 1.82902e-18)
(-1.21928 0.26091 -2.11764e-18)
(-1.27827 0.250572 2.85648e-19)
(-1.33115 0.225238 -1.81461e-18)
(-1.3745 0.182916 9.43897e-19)
(-1.40482 0.121977 -1.23378e-18)
(-1.41877 0.0413379 -3.9865e-19)
(-1.41327 -0.0598345 6.55607e-20)
(-1.38589 -0.181798 -8.26357e-19)
(-1.33518 -0.323399 2.4112e-19)
(-1.2606 -0.482093 6.87931e-19)
(-1.16389 -0.655579 -9.31899e-19)
(-1.0514 -0.83556 -1.36104e-19)
(-0.922251 -0.999552 -1.13168e-18)
(-0.785197 -1.13113 7.93306e-19)
(4.7021 4.34848 -1.13249e-19)
(4.8618 4.5674 -3.42265e-19)
(5.01223 4.77803 2.11641e-20)
(5.16862 4.98146 7.05322e-20)
(5.34194 5.17542 -3.24013e-20)
(5.53736 5.35415 -2.36912e-19)
(5.75507 5.50593 1.71968e-20)
(5.99131 5.61892 1.3861e-20)
(6.24861 5.71086 1.19233e-19)
(6.54167 5.83481 1.6284e-18)
(6.86919 6.01501 5.24116e-19)
(7.15823 6.16263 1.37158e-19)
(7.23658 6.07752 -1.06179e-18)
(6.88789 5.56497 2.3621e-18)
(5.97827 4.57274 -1.96695e-18)
(4.56465 3.25363 1.18276e-18)
(2.92756 1.91922 -1.75701e-18)
(1.46511 0.905783 -4.88758e-18)
(0.495861 0.403141 3.17936e-19)
(-0.019443 0.26442 6.44626e-18)
(-0.314618 0.229457 -3.52675e-18)
(-0.49241 0.217333 3.99167e-18)
(-0.611142 0.220321 -1.99252e-18)
(-0.701104 0.235079 3.23167e-19)
(-0.777364 0.254731 -2.10642e-19)
(-0.847727 0.273353 -1.61442e-18)
(-0.915945 0.28616 1.34484e-18)
(-0.983369 0.288778 -1.08741e-18)
(-1.04942 0.277551 8.92893e-19)
(-1.11237 0.249565 5.9501e-19)
(-1.16989 0.202578 7.77958e-20)
(-1.21933 0.134897 5.34735e-19)
(-1.25804 0.0454869 3.10665e-19)
(-1.2837 -0.0661881 -1.29267e-18)
(-1.29434 -0.199756 -7.60891e-19)
(-1.28878 -0.353109 5.3111e-19)
(-1.26683 -0.522537 6.4068e-19)
(-1.23003 -0.703801 1.263e-19)
(-1.18208 -0.88698 1.27351e-18)
(-1.12293 -1.05242 9.02793e-19)
(-1.05118 -1.17849 2.00348e-19)
(4.95326 4.17096 -1.28837e-19)
(5.09091 4.35826 6.39966e-20)
(5.21857 4.53711 3.06404e-19)
(5.34708 4.70993 -2.78874e-19)
(5.48591 4.8773 3.42247e-20)
(5.6399 5.03615 5.05579e-20)
(5.81168 5.18229 9.31525e-20)
(6.00089 5.30794 -6.85855e-19)
(6.20445 5.40267 -1.72246e-18)
(6.42229 5.47043 2.27275e-18)
(6.66454 5.54584 -1.57575e-18)
(6.94441 5.67228 -4.09322e-19)
(7.24045 5.83586 -7.06516e-19)
(7.45209 5.91895 -4.05836e-19)
(7.40488 5.741 9.28338e-19)
(6.92068 5.1638 -4.17371e-19)
(5.92 4.18464 1.98034e-18)
(4.49732 2.96418 -1.85535e-18)
(2.92328 1.77284 -8.40136e-19)
(1.54711 0.884088 5.99257e-18)
(0.629618 0.438119 -3.59968e-18)
(0.139881 0.315732 -2.21394e-19)
(-0.129481 0.301821 8.46132e-19)
(-0.298285 0.303766 3.03121e-18)
(-0.418369 0.309158 -2.55097e-18)
(-0.514148 0.318443 -5.55301e-19)
(-0.598044 0.327152 -6.18239e-19)
(-0.676757 0.328769 3.28011e-18)
(-0.75297 0.317647 -1.4452e-18)
(-0.8273 0.289359 -4.70194e-19)
(-0.899201 0.240786 1.58611e-18)
(-0.967485 0.169792 -1.34179e-18)
(-1.03059 0.0752215 -6.65742e-19)
(-1.08728 -0.043183 7.88884e-19)
(-1.13629 -0.184348 5.83774e-19)
(-1.17669 -0.345306 1.03854e-19)
(-1.20829 -0.521476 -3.02065e-19)
(-1.23201 -0.707484 -1.78848e-19)
(-1.2493 -0.892996 -6.34232e-19)
(-1.25896 -1.06073 5.5849e-19)
(-1.25598 -1.19098 -1.01703e-19)
(5.18357 4.01189 2.05444e-19)
(5.30398 4.17298 -4.60002e-19)
(5.41465 4.32544 4.29447e-19)
(5.52331 4.47208 1.09357e-19)
(5.63732 4.61497 -1.01665e-19)
(5.76129 4.75304 5.6985e-20)
(5.89807 4.8837 4.98899e-19)
(6.04916 5.0039 2.96096e-19)
(6.21408 5.10869 1.63335e-19)
(6.39017 5.18991 7.99334e-20)
(6.5755 5.24413 -5.71292e-19)
(6.7761 5.28816 9.06513e-19)
(7.00685 5.35992 -8.97918e-20)
(7.27289 5.48485 9.33333e-19)
(7.53409 5.62408 -2.53804e-18)
(7.68062 5.65803 2.61147e-18)
(7.55264 5.43575 -7.65424e-19)
(7.00645 4.85848 -2.25278e-18)
(5.99309 3.94289 1.8778e-18)
(4.61164 2.83281 -2.18996e-18)
(3.10326 1.7551 1.62357e-18)
(1.81606 0.954012 -6.46493e-19)
(0.96373 0.533404 2.61112e-18)
(0.472142 0.396844 -1.03948e-18)
(0.182968 0.385708 -5.25833e-18)
(-0.00238719 0.399099 2.86445e-18)
(-0.136153 0.404767 1.20235e-18)
(-0.245997 0.399753 -2.90609e-19)
(-0.344176 0.383674 2.26855e-19)
(-0.436937 0.353206 -6.77391e-19)
(-0.527314 0.304286 -3.23597e-18)
(-0.616589 0.233437 3.37797e-18)
(-0.70488 0.138598 -2.13402e-19)
(-0.792014 0.0191938 -9.43663e-19)
(-0.877943 -0.123674 1.02016e-18)
(-0.962057 -0.28651 -1.37136e-19)
(-1.04399 -0.464025 -2.52151e-19)
(-1.12424 -0.650401 4.56132e-19)
(-1.20255 -0.835997 2.08291e-19)
(-1.27687 -1.00657 -4.23142e-19)
(-1.3419 -1.14665 -2.14729e-19)
(5.39409 3.86851 5.9968e-21)
(5.50053 4.0076 2.23938e-19)
(5.598 4.13802 4.25985e-19)
(5.69195 4.26257 -5.01942e-19)
(5.78808 4.38395 -2.02832e-20)
(5.89028 4.50225 -1.14383e-19)
(6.00116 4.61622 -2.77174e-19)
(6.12268 4.72382 -3.25721e-19)
(6.25577 4.8228 4.524e-19)
(6.3999 4.90995 1.41979e-18)
(6.55279 4.97975 -4.84338e-19)
(6.71243 5.02691 9.87047e-19)
(6.88099 5.05533 -1.19381e-20)
(7.06845 5.08729 -1.90129e-18)
(7.28843 5.15575 -7.69256e-19)
(7.53802 5.27167 1.75883e-18)
(7.76908 5.38785 -9.54661e-19)
(7.87605 5.39688 1.28048e-18)
(7.71883 5.17539 -1.8501e-18)
(7.17818 4.64684 1.2203e-19)
(6.21193 3.82836 -1.59185e-19)
(4.96326 2.87488 3.82561e-18)
(3.67047 1.97168 -1.17308e-19)
(2.52329 1.24556 -2.45436e-18)
(1.65155 0.774516 -4.99102e-19)
(1.06846 0.548255 -7.93298e-19)
(0.696319 0.482337 -2.73544e-18)
(0.452131 0.48168 3.42322e-18)
(0.279308 0.484201 -2.79747e-18)
(0.141548 0.464989 -9.43609e-20)
(0.018273 0.419756 7.79501e-19)
(-0.100368 0.349433 -4.68608e-19)
(-0.218613 0.254857 3.56817e-19)
(-0.338519 0.136808 -1.45182e-19)
(-0.46095 -0.00311332 1.66669e-18)
(-0.586403 -0.161742 -1.46432e-18)
(-0.714382 -0.334667 1.06034e-19)
(-0.845159 -0.516861 7.00447e-20)
(-0.977271 -0.699955 9.0456e-20)
(-1.10835 -0.872533 -3.06463e-20)
(-1.23539 -1.02299 2.52463e-19)
(5.58573 3.7388 -3.65707e-19)
(5.68053 3.85913 1.72592e-19)
(5.76735 3.97093 -6.39301e-19)
(5.84997 4.0768 2.97322e-19)
(5.93284 4.17965 -1.42747e-19)
(6.01905 4.28018 2.64739e-20)
(6.11096 4.37788 -7.93866e-20)
(6.21027 4.4717 8.38433e-20)
(6.31833 4.56009 -9.93755e-19)
(6.43571 4.64118 5.34608e-19)
(6.56185 4.71284 7.36386e-20)
(6.69549 4.77211 -3.45203e-18)
(6.83487 4.81439 2.18761e-18)
(6.97931 4.83723 1.58279e-19)
(7.13333 4.84857 1.99262e-18)
(7.30841 4.87103 -1.81381e-18)
(7.51601 4.93111 2.93548e-19)
(7.74934 5.03259 1.43213e-18)
(7.9612 5.13158 -1.53355e-18)
(8.05985 5.13928 5.80954e-19)
(7.92002 4.95219 1.8779e-19)
(7.46729 4.53348 -3.91054e-19)
(6.72518 3.92676 1.38934e-19)
(5.77527 3.20834 -3.96808e-19)
(4.7324 2.47134 2.56509e-18)
(3.71345 1.80196 -3.64127e-18)
(2.81918 1.26667 3.21186e-18)
(2.11089 0.898791 9.31197e-19)
(1.5901 0.686708 -1.41464e-18)
(1.21614 0.583737 -5.84737e-19)
(0.941606 0.533452 -3.43262e-19)
(0.728188 0.489697 2.32726e-18)
(0.548035 0.425418 -2.7866e-19)
(0.381966 0.331165 -2.96018e-18)
(0.21872 0.207858 6.33378e-19)
(0.0530667 0.0607086 8.64126e-19)
(-0.117108 -0.103848 -7.30961e-19)
(-0.294157 -0.280158 7.12083e-19)
(-0.475252 -0.460514 2.44681e-19)
(-0.657213 -0.635618 1.08584e-19)
(-0.840339 -0.795943 -5.37731e-19)
(5.75908 3.62114 2.69243e-19)
(5.84391 3.7253 -3.22916e-19)
(5.92186 3.82119 6.86654e-19)
(5.99547 3.91118 -2.93774e-20)
(6.06819 3.99818 6.69125e-20)
(6.14252 4.0831 2.62948e-19)
(6.22034 4.16588 -5.66155e-20)
(6.30318 4.24601 6.30896e-20)
(6.39228 4.32266 2.65916e-19)
(6.48851 4.39452 -5.2205e-20)
(6.59208 4.46007 1.26959e-18)
(6.70289 4.5181 -1.7542e-18)
(6.82036 4.567 3.0408e-18)
(6.94295 4.60373 -2.32166e-18)
(7.06906 4.62464 -1.08813e-18)
(7.19934 4.62948 -4.20601e-19)
(7.33969 4.62734 -7.19115e-19)
(7.50163 4.63822 7.49061e-19)
(7.6949 4.68317 9.16402e-20)
(7.91422 4.76556 5.47189e-19)
(8.11891 4.84927 -2.73981e-19)
(8.22987 4.86862 3.01768e-19)
(8.17777 4.77058 1.15569e-18)
(7.92772 4.53058 -1.43445e-18)
(7.47695 4.15435 7.28288e-19)
(6.85346 3.6727 7.86706e-19)
(6.1081 3.13028 9.43237e-20)
(5.30273 2.57521 -3.65256e-18)
(4.50013 2.05205 8.63602e-19)
(3.75572 1.59633 1.88509e-18)
(3.10758 1.22867 -1.38844e-18)
(2.56837 0.950224 3.01764e-18)
(2.12814 0.745017 -2.8431e-18)
(1.76452 0.588445 3.95378e-19)
(1.45555 0.456556 9.81498e-19)
(1.18338 0.330635 -9.57692e-19)
(0.934269 0.198597 4.95404e-19)
(0.696374 0.0541746 -5.62521e-20)
(0.464128 -0.10291 -8.33382e-19)
(0.235259 -0.267033 -3.22249e-20)
(-0.000485773 -0.429706 7.50649e-21)
(5.91452 3.51403 1.55772e-20)
(5.99058 3.60414 -1.99649e-19)
(6.0608 3.68637 -6.34392e-20)
(6.1269 3.76289 3.49186e-19)
(6.19154 3.83641 5.35494e-22)
(6.25672 3.90793 -2.50047e-20)
(6.32391 3.97756 -2.98921e-19)
(6.39442 4.04512 1.81033e-19)
(6.4693 4.11013 -1.02319e-19)
(6.54938 4.17186 8.58406e-19)
(6.63512 4.2292 -1.81011e-19)
(6.72681 4.28121 -1.6465e-19)
(6.82456 4.32698 1.20415e-18)
(6.92799 4.36546 -4.63106e-19)
(7.03611 4.39506 -6.6638e-19)
(7.14742 4.41314 -5.65059e-19)
(7.26082 4.41702 -3.93151e-19)
(7.37767 4.40732 2.99597e-18)
(7.50399 4.39185 -3.13711e-18)
(7.65038 4.38688 1.9013e-21)
(7.82724 4.40978 1.8829e-18)
(8.02341 4.46168 -1.67312e-18)
(8.20888 4.52308 1.62353e-18)
(8.34922 4.56327 -7.10084e-19)
(8.4081 4.55044 -8.1736e-19)
(8.35722 4.46167 2.2185e-18)
(8.18109 4.28701 -8.45067e-19)
(7.87936 4.02984 1.16035e-18)
(7.46504 3.70389 -3.16925e-18)
(6.96113 3.32889 3.97728e-19)
(6.39597 2.92686 1.38531e-18)
(5.79952 2.5195 -1.81759e-19)
(5.20061 2.12589 -3.14144e-19)
(4.62097 1.75924 1.16246e-19)
(4.07642 1.42763 -4.69513e-20)
(3.57596 1.13364 2.80657e-19)
(3.12158 0.874519 -7.56939e-19)
(2.7046 0.642871 6.10008e-19)
(2.32028 0.433739 -3.23596e-19)
(1.9647 0.243694 2.97865e-19)
(1.61799 0.072269 2.95455e-20)
(6.04688 3.4209 9.65782e-21)
(6.11536 3.49924 -4.14353e-19)
(6.17897 3.57012 4.14702e-19)
(6.23881 3.63557 -3.82913e-19)
(6.297 3.6981 -6.30844e-20)
(6.35512 3.75866 1.92251e-19)
(6.41437 3.81746 2.35931e-19)
(6.47578 3.87446 -8.93552e-19)
(6.54025 3.92944 -5.89805e-20)
(6.6085 3.98185 1.44629e-18)
(6.681 4.03098 -1.92362e-18)
(6.75814 4.07613 5.12677e-19)
(6.84019 4.11654 4.86119e-19)
(6.92717 4.15136 -8.30497e-19)
(7.01885 4.17988 2.00284e-18)
(7.11466 4.20127 -2.6215e-19)
(7.21358 4.21413 -5.83947e-18)
(7.31425 4.21624 5.0257e-18)
(7.4159 4.20547 -1.84748e-18)
(7.51985 4.18219 -1.33374e-18)
(7.63198 4.15269 1.74705e-18)
(7.75725 4.12968 1.78084e-18)
(7.89831 4.12415 -2.63131e-18)
(8.05506 4.13972 2.45701e-18)
(8.21867 4.17135 -6.66138e-19)
(8.37345 4.20648 6.12289e-19)
(8.50013 4.22881 -1.12974e-18)
(8.57946 4.22228 1.16352e-18)
(8.59584 4.17444 4.28532e-19)
(8.53893 4.078 -2.19403e-18)
(8.40464 3.93128 2.60417e-19)
(8.1948 3.73753 -1.24846e-19)
(7.91645 3.50372 1.26438e-18)
(7.5781 3.23778 3.31027e-20)
(7.19117 2.94914 -7.12378e-20)
(6.76864 2.64795 -1.3253e-19)
(6.32482 2.34384 -5.01494e-20)
(5.86583 2.04135 -1.08489e-19)
(5.40149 1.74722 -3.92866e-19)
(4.94432 1.46596 3.89103e-20)
(4.48037 1.19902 6.51937e-20)
(6.15469 3.34338 1.70529e-19)
(6.21691 3.41207 3.21719e-19)
(6.27501 3.47366 -2.23938e-19)
(6.32972 3.53014 -3.78168e-19)
(6.38274 3.58376 -1.3287e-20)
(6.43538 3.63542 1.58688e-19)
(6.4886 3.68535 -1.51386e-19)
(6.54324 3.73362 2.33832e-19)
(6.60008 3.78015 5.48938e-19)
(6.65971 3.82457 -1.04038e-18)
(6.72258 3.86637 -1.34573e-18)
(6.78904 3.90505 1.60579e-18)
(6.85942 3.94002 1.43284e-18)
(6.93381 3.97055 -2.13886e-18)
(7.01219 3.99593 2.51218e-18)
(7.09437 4.01555 1.71738e-18)
(7.18005 4.02886 -1.31671e-18)
(7.26861 4.03517 -2.17602e-18)
(7.35906 4.03326 -2.78314e-19)
(7.45012 4.02121 1.76033e-18)
(7.54094 3.99705 -3.47713e-18)
(7.62958 3.96255 2.74308e-18)
(7.7174 3.9228 3.40822e-19)
(7.81011 3.88404 7.24648e-19)
(7.9125 3.85286 -1.24904e-18)
(8.02721 3.83383 6.12338e-19)
(8.15344 3.82811 -5.40801e-19)
(8.28657 3.83297 -3.75268e-19)
(8.4188 3.84253 7.40465e-19)
(8.54045 3.84917 -4.7484e-19)
(8.64137 3.84495 -2.41729e-19)
(8.7121 3.82277 9.49602e-19)
(8.74514 3.77733 -1.2139e-18)
(8.73504 3.70536 6.5732e-19)
(8.67854 3.6057 6.0906e-20)
(8.57475 3.47943 -7.70382e-19)
(8.42617 3.32969 5.50929e-19)
(8.23341 3.15814 1.17196e-19)
(7.99958 2.96902 -2.47772e-19)
(7.73412 2.7675 -7.38196e-20)
(7.42642 2.55345 -5.94118e-20)
(6.24361 3.27799 -1.04524e-19)
(6.30049 3.33857 4.01453e-20)
(6.35388 3.39243 -8.29247e-20)
(6.40422 3.44147 -1.27031e-19)
(6.45291 3.48776 9.37365e-20)
(6.50105 3.5321 -1.73257e-20)
(6.54942 3.57473 6.40607e-20)
(6.59875 3.61577 -2.28144e-19)
(6.64966 3.65519 2.89348e-20)
(6.70266 3.69276 1.37232e-19)
(6.75813 3.72808 -4.92259e-19)
(6.8164 3.7608 7.87388e-19)
(6.87779 3.79048 -1.78612e-18)
(6.94241 3.81655 1.08922e-18)
(7.0103 3.83841 6.77236e-19)
(7.08138 3.85545 4.66318e-19)
(7.1555 3.8671 2.00568e-19)
(7.23241 3.87288 -3.39657e-19)
(7.31174 3.87234 -1.01763e-18)
(7.39292 3.8649 2.01674e-18)
(7.47493 3.84941 9.41338e-20)
(7.55385 3.82557 -2.20951e-18)
(7.62705 3.79373 9.95853e-19)
(7.69557 3.75453 1.11615e-18)
(7.76115 3.70991 -2.26538e-18)
(7.82656 3.66281 2.04322e-18)
(7.895 3.61663 -1.7338e-18)
(7.96926 3.57453 7.76836e-20)
(8.05111 3.53877 5.34601e-19)
(8.14075 3.51027 1.39878e-18)
(8.23674 3.48851 -1.84319e-18)
(8.33611 3.47171 5.24026e-19)
(8.43473 3.45713 9.66814e-19)
(8.52812 3.44171 -7.62162e-19)
(8.61142 3.4223 -8.98012e-20)
(8.67968 3.39609 -2.75022e-20)
(8.72885 3.36098 1.48436e-19)
(8.75595 3.31529 -1.01757e-19)
(8.75776 3.2578 6.97295e-20)
(8.73428 3.18905 -1.21035e-19)
(8.67968 3.10714 -8.62258e-21)
(6.31788 3.22191 2.26466e-20)
(6.37009 3.27557 4.06422e-19)
(6.41931 3.32287 4.17288e-21)
(6.4658 3.36567 -2.14456e-19)
(6.51074 3.40582 5.95848e-20)
(6.55502 3.44402 -1.49814e-20)
(6.59932 3.48056 -1.72146e-19)
(6.64425 3.51554 9.45893e-20)
(6.69032 3.54897 3.52163e-19)
(6.73798 3.5807 3.6781e-20)
(6.78752 3.61042 1.41404e-19)
(6.83924 3.63787 5.59767e-19)
(6.89341 3.66269 -3.79044e-19)
(6.95016 3.68444 -7.73149e-19)
(7.00954 3.70264 6.6018e-20)
(7.07153 3.71679 -2.48233e-19)
(7.13601 3.72638 6.29341e-19)
(7.20281 3.73089 -5.99542e-19)
(7.27172 3.72986 -4.19994e-19)
(7.34244 3.72292 -1.18303e-18)
(7.4146 3.70959 1.52443e-18)
(7.48526 3.69035 7.40917e-19)
(7.55187 3.66573 -7.95923e-19)
(7.61414 3.63566 -7.7428e-19)
(7.67157 3.60017 -4.45519e-19)
(7.72413 3.55955 1.56333e-18)
(7.77237 3.51443 9.56659e-19)
(7.81739 3.46586 8.62172e-19)
(7.86066 3.41524 -1.83644e-18)
(7.90385 3.36413 5.95713e-19)
(7.9485 3.31408 -7.33497e-19)
(7.99584 3.2664 4.06164e-19)
(8.04654 3.22203 -6.41352e-19)
(8.10086 3.18148 1.0026e-18)
(8.15833 3.14481 -5.10096e-19)
(8.21784 3.11181 2.17891e-19)
(8.27757 3.08178 -4.52856e-19)
(8.33657 3.05415 3.70917e-19)
(8.39255 3.02775 -2.82387e-19)
(8.4437 3.00209 -7.81546e-21)
(8.48765 2.97601 4.86203e-20)
(6.38062 3.17318 -9.15877e-20)
(6.42867 3.22085 -3.81223e-20)
(6.47414 3.26253 -4.07589e-19)
(6.51718 3.3 5.14675e-19)
(6.55876 3.33491 -9.48122e-20)
(6.59965 3.36791 -2.59447e-20)
(6.64042 3.39927 1.21827e-19)
(6.68158 3.42911 -2.9321e-19)
(6.72356 3.45745 1.45041e-18)
(6.76674 3.48419 -2.10254e-18)
(6.81136 3.50909 1.11234e-18)
(6.85766 3.53194 3.44673e-19)
(6.90586 3.55245 -4.15618e-19)
(6.95609 3.57026 -1.75294e-18)
(7.00839 3.585 4.45802e-19)
(7.06275 3.59625 -1.03371e-18)
(7.1191 3.60359 3.32851e-18)
(7.1773 3.60657 -9.13275e-19)
(7.23715 3.60476 -1.98452e-19)
(7.29842 3.59776 6.5449e-19)
(7.36083 3.58508 -3.17519e-18)
(7.42208 3.5673 1.92696e-18)
(7.48035 3.54519 1.15697e-18)
(7.53558 3.51905 -1.0825e-18)
(7.58735 3.48921 -2.79367e-19)
(7.63527 3.4559 9.74115e-19)
(7.67903 3.41928 -1.58342e-18)
(7.71843 3.37949 1.13177e-18)
(7.75347 3.33673 9.79432e-19)
(7.78437 3.29134 -7.12849e-19)
(7.81157 3.24379 -1.24346e-18)
(7.83567 3.1947 1.1419e-19)
(7.85739 3.14476 6.33508e-19)
(7.87755 3.09468 2.90366e-19)
(7.89692 3.04518 -7.46999e-19)
(7.91616 2.99707 7.83729e-19)
(7.93563 2.95098 -5.005e-19)
(7.95604 2.90733 2.22461e-19)
(7.97748 2.86645 6.60843e-20)
(8.00017 2.82882 -1.91838e-19)
(8.02328 2.7945 -2.48788e-20)
(6.43406 3.13042 -2.51206e-19)
(6.47835 3.17284 2.83344e-19)
(6.52041 3.20965 2.29198e-19)
(6.56031 3.24251 1.32371e-19)
(6.59884 3.27293 -6.14491e-20)
(6.63667 3.30147 -1.46179e-19)
(6.67429 3.3284 4.79352e-19)
(6.71213 3.35385 -1.48907e-18)
(6.75056 3.37785 2.00692e-18)
(6.78987 3.40032 -1.02359e-18)
(6.83028 3.42107 -1.6499e-18)
(6.87197 3.43993 4.46251e-19)
(6.91512 3.45667 2.14859e-18)
(6.95983 3.47101 1.14527e-18)
(7.00612 3.48262 -2.04721e-18)
(7.054 3.49117 1.54528e-18)
(7.1034 3.49632 -1.21273e-18)
(7.1542 3.49769 -2.94706e-19)
(7.20625 3.49493 3.49668e-19)
(7.25931 3.48768 -1.64708e-18)
(7.31315 3.47551 4.12476e-18)