/*--------------------------------*- C++ -*----------------------------------*\
| =========                 |                                                 |
| \\      /  F ield         | OpenFOAM: The Open Source CFD Toolbox           |
|  \\    /   O peration     | Version:  2312                                  |
|   \\  /    A nd           | Website:  www.openfoam.com                      |
|    \\/     M anipulation  |                                                 |
\*---------------------------------------------------------------------------*/
FoamFile
{
    version     2.0;
    format      ascii;
    arch        "LSB;label=32;scalar=64";
    class       volScalarField;
    location    "800";
    object      div(phi);
}
// * * * * * * * * * * * * * * * * * * * * * * * * * * * * * * * * * * * * * //

dimensions      [0 0 -1 0 0 0 0];

internalField   nonuniform List<scalar> 
11040
(
0.000457904
0.000420607
0.000525057
0.000255832
0.00121158
0.00124994
0.000570263
0.000698485
0.00118016
0.00161746
0.000538842
0.00259044
-0.00104052
0.00250609
0.00116942
0.00262238
3.44984e-05
0.0024104
0.00111242
0.00331504
0.00192265
0.00172638
0.00101482
0.00108746
0.00150434
0.00142252
0.000887676
0.00114302
0.000364111
0.000527619
5.1812e-05
-4.34298e-05
0.00018174
-5.35948e-05
0.00148168
-0.000313024
0.00175103
0.00130381
0.00195973
0.00563711
0.00638045
0.000201426
0.000140771
0.000232383
0.000529851
0.00107203
0.00116372
0.00083455
0.000847215
0.000696192
0.000730061
0.000410911
0.000922054
1.21946e-05
0.00163488
0.000729782
0.00162397
0.000837762
0.00236621
0.00172156
0.00288978
0.00190083
0.0017805
0.00137741
0.0018134
0.00201747
0.00180154
0.0014002
0.00119338
0.000709147
0.000449547
7.77618e-05
-0.000182666
-0.000121518
-0.000418834
0.00031422
-4.58569e-05
0.0014355
0.00124779
0.00249409
0.00281065
0.00433323
0.000179371
0.000132181
4.95196e-05
-1.92918e-05
0.000135284
0.000374339
0.00032828
0.000231891
0.000427311
0.000365311
0.000302372
0.000701945
-0.00021569
0.000442774
0.000379046
0.000782364
6.12877e-06
0.000497869
0.000440072
0.000869139
0.000247803
0.000273009
7.53774e-05
1.33088e-05
0.000184601
0.000222251
0.000101677
0.000248038
1.11036e-05
0.000151537
3.58755e-05
5.70347e-05
8.28168e-05
0.000149826
0.000481571
-0.00019377
0.000183628
-2.32861e-05
0.000123911
0.000772568
0.00145828
5.97615e-05
1.36852e-06
-1.6024e-05
-2.07153e-05
0.000105574
0.000172886
0.000323776
0.000436093
0.000555516
0.000463759
0.000481774
0.000255351
9.2789e-05
0.000285866
0.000378508
0.000518409
0.00051616
0.000965666
0.000979096
0.00118664
0.000874167
0.000793393
0.00071622
0.000859165
0.000914921
0.000846097
0.000701504
0.000576883
0.000405556
0.00026977
0.000148686
2.42152e-05
4.3151e-05
2.49781e-05
0.00024318
0.000305067
0.000739326
0.000959358
0.00140294
0.00200884
0.00250073
-4.437e-05
6.48774e-05
-1.91446e-05
3.29716e-05
1.95935e-05
6.37914e-05
7.06508e-05
0.000140956
0.000249718
0.000314453
0.000265053
0.000260088
-3.90576e-05
5.65872e-05
0.000163704
0.000324081
0.000160966
0.000339238
0.000381892
0.000397006
0.000129883
4.30755e-05
3.72314e-05
3.32579e-05
8.70205e-05
0.000119151
9.23684e-05
0.000110897
4.31322e-05
6.21564e-05
2.80008e-05
3.32694e-05
-3.07678e-06
0.00013854
0.000150565
9.66905e-05
7.55427e-05
0.000216609
0.000228934
0.000583847
0.000827971
0.000159685
-5.195e-05
5.73254e-05
-8.11661e-05
6.74182e-06
1.36703e-05
2.60633e-06
5.67939e-05
0.000105152
0.0002358
0.000283692
0.000257195
0.000148679
0.000196951
0.000236806
0.000261358
0.000299525
0.000459117
0.000520412
0.000514699
0.000381924
0.000360415
0.000368054
0.000426558
0.000440588
0.000417482
0.000378402
0.000300355
0.000249911
0.000179743
0.000151741
0.000110231
0.000136806
0.00019707
0.000274094
0.0003437
0.00051212
0.000632165
0.000881656
0.00104469
0.00122398
-3.80641e-05
5.90459e-05
-0.000141958
-3.27237e-06
1.85705e-05
1.66642e-05
4.08687e-05
2.44769e-05
7.56302e-05
7.81101e-05
0.000176059
0.000150649
0.000147701
9.56019e-05
0.000187837
0.000184638
0.000246905
0.000276389
0.000305943
0.000254738
0.000110451
7.12232e-05
0.00010984
0.000121486
0.000137005
0.000149621
0.000131613
0.000125618
9.00005e-05
8.16384e-05
7.27719e-05
5.86176e-05
8.37072e-05
0.0001314
0.000198285
0.000210377
0.000264343
0.00036005
0.000409228
0.00057837
0.000585671
2.99626e-05
-8.01764e-05
-9.06188e-05
5.36264e-05
6.43561e-06
8.92056e-05
-5.7097e-06
4.19701e-05
-1.97987e-05
6.6289e-05
-1.28688e-05
5.42735e-05
7.34045e-05
0.000133778
0.000178633
0.000261904
0.000260422
0.000314523
0.000314037
0.00022355
0.000165827
0.000164046
0.000189065
0.00021306
0.000216784
0.000197313
0.000187891
0.000147472
0.000135577
0.000101778
0.000101159
8.43742e-05
0.00010949
0.000145213
0.000165508
0.000196819
0.000222523
0.000268181
0.00030611
0.00032729
0.000289705
5.17932e-05
-0.000184473
9.15997e-05
-6.72271e-05
0.000147927
-2.50626e-05
5.64145e-05
-6.99442e-05
4.2408e-05
-6.12024e-05
1.33974e-05
4.37698e-05
6.94142e-05
0.000100836
0.000183431
0.000216752
0.000287118
0.000275212
0.000222174
0.00015199
9.13268e-05
0.000106682
0.000141396
0.000155289
0.000153287
0.000155052
0.000134127
0.000130325
0.000101763
0.000108106
8.93407e-05
0.000108045
0.000117903
0.000155675
0.000189638
0.000207317
0.000253826
0.00025836
0.000298833
0.00026109
0.000260759
-0.000112632
4.9467e-05
-9.05434e-05
0.000123159
-1.12374e-05
6.36253e-05
-5.25084e-05
1.89547e-05
-4.53611e-05
-8.96787e-06
3.61899e-05
4.3826e-05
4.97754e-05
7.90127e-05
3.45538e-05
0.000128202
8.93972e-05
0.000159087
0.000165139
0.000117291
9.67626e-05
0.000118834
0.000123925
0.000139427
0.000138885
0.000111489
9.99892e-05
9.36292e-05
8.3939e-05
7.90437e-05
8.43924e-05
8.30984e-05
0.000106869
0.000120441
0.000136434
0.000155331
0.000146376
0.000180474
0.000139641
0.000175945
8.34478e-05
-1.35659e-05
-2.42544e-05
2.09614e-05
2.57478e-05
3.47797e-05
1.29178e-05
1.83416e-06
2.82085e-06
-7.1804e-06
2.36583e-05
4.08966e-05
2.4844e-05
6.74998e-05
-2.76775e-05
4.27449e-05
-2.1334e-05
4.12674e-05
9.58947e-05
0.000115024
0.000115546
0.000126232
0.000121706
0.000153702
0.000146557
0.000116151
9.72482e-05
9.6336e-05
6.54503e-05
7.68064e-05
5.99119e-05
6.30364e-05
6.64838e-05
6.3423e-05
7.51821e-05
6.58677e-05
5.13649e-05
7.06941e-05
5.50187e-06
7.97959e-05
-6.4162e-05
6.74678e-05
-1.48117e-06
-1.70169e-06
1.91896e-05
2.18152e-05
2.86465e-05
2.21271e-05
1.7679e-05
2.32096e-05
7.37329e-06
4.07779e-05
8.96244e-06
5.87129e-05
-2.80679e-05
1.52182e-05
-2.17494e-05
-2.80497e-06
3.97558e-05
3.99369e-05
5.5069e-05
6.42343e-05
4.29019e-05
0.0001049
9.75204e-05
0.000107718
9.72686e-05
0.000100599
6.85457e-05
8.95474e-05
5.79208e-05
6.88564e-05
5.60359e-05
5.40217e-05
5.99994e-05
4.09574e-05
3.92017e-05
3.86221e-05
-9.8581e-06
4.62203e-05
-7.49573e-05
7.66614e-05
-0.000138976
1.20743e-05
3.41462e-06
2.241e-05
1.14521e-05
3.00169e-05
1.72116e-05
2.72672e-05
1.7937e-05
2.04573e-05
2.08868e-05
2.39602e-05
8.09686e-06
3.73463e-07
1.8803e-06
-1.01169e-05
1.96303e-05
1.61769e-05
1.65039e-05
2.81817e-05
-1.59076e-05
2.37765e-05
3.19978e-06
5.39486e-05
5.5516e-05
8.35396e-05
7.72978e-05
0.000106361
7.96846e-05
9.03638e-05
7.12742e-05
7.57003e-05
7.34977e-05
5.75231e-05
7.65227e-05
5.03986e-05
6.85657e-05
3.39581e-05
6.02695e-05
3.5056e-05
4.75707e-05
3.15857e-05
1.43446e-05
1.4927e-06
2.32628e-05
4.94252e-06
3.10367e-05
7.91641e-06
3.16849e-05
9.20963e-06
2.63161e-05
1.07524e-05
2.06098e-05
1.19667e-05
9.43897e-06
8.73667e-06
4.88212e-06
1.66697e-05
3.67999e-06
2.2535e-05
-1.56451e-05
4.8967e-06
-9.40721e-06
1.48306e-05
1.61546e-05
3.55128e-05
5.47064e-05
7.5545e-05
8.61107e-05
8.85021e-05
8.71938e-05
8.73763e-05
8.90088e-05
7.25259e-05
0.000101064
6.02708e-05
0.000126088
1.98898e-05
0.000169144
-3.31033e-05
0.000215547
-8.78234e-05
0.000241563
1.36181e-05
-1.78922e-07
2.22743e-05
1.5457e-06
3.03331e-05
2.18666e-06
3.31325e-05
1.71888e-06
2.95941e-05
2.9598e-06
2.37255e-05
3.96474e-06
1.61372e-05
7.44414e-06
1.24341e-05
1.28483e-05
1.48826e-05
7.37957e-06
5.01818e-06
8.11834e-06
9.04145e-06
1.71533e-05
1.60011e-05
3.28558e-05
3.14255e-05
5.25612e-05
4.63596e-05
6.38282e-05
5.41819e-05
6.78795e-05
5.30601e-05
7.15545e-05
5.24985e-05
8.01094e-05
4.07433e-05
9.30013e-05
1.1244e-05
9.86703e-05
-1.51123e-05
9.85054e-05
-6.3093e-05
1.24976e-05
-1.24596e-06
2.08766e-05
-3.40668e-07
2.83122e-05
-1.73542e-06
3.21351e-05
-3.34491e-06
3.09096e-05
-5.1927e-06
2.52972e-05
-4.08064e-06
1.98267e-05
-8.13858e-08
1.7987e-05
8.58561e-06
1.84221e-05
1.41931e-05
1.78851e-05
1.64202e-05
1.95689e-05
1.93598e-05
2.28811e-05
2.27734e-05
2.56797e-05
2.69641e-05
2.75608e-05
3.07063e-05
2.94397e-05
3.52411e-05
2.92076e-05
3.83318e-05
2.26559e-05
4.62731e-05
3.00936e-06
5.24501e-05
-2.92139e-05
7.63096e-05
-7.52461e-05
9.98238e-05
-8.90941e-05
1.23045e-05
-1.89946e-06
1.93037e-05
-1.91081e-06
2.5324e-05
-3.94959e-06
2.92121e-05
-6.30478e-06
2.94048e-05
-8.86436e-06
2.58542e-05
-8.90929e-06
2.25082e-05
-5.30431e-06
2.09315e-05
1.57052e-06
2.13145e-05
9.30128e-06
2.24927e-05
1.32191e-05
2.41748e-05
1.56287e-05
2.67682e-05
1.6321e-05
2.82816e-05
1.52222e-05
2.93539e-05
1.32257e-05
2.9414e-05
1.40673e-05
2.77466e-05
1.83263e-05
2.12981e-05
2.72023e-05
5.69592e-06
4.79988e-05
-1.95888e-05
7.78366e-05
-3.85741e-05
9.65263e-05
-7.67314e-05
9.59345e-06
4.12282e-08
1.55307e-05
-1.39508e-08
2.03654e-05
-1.42504e-06
2.40322e-05
-3.25486e-06
2.52898e-05
-5.46894e-06
2.36294e-05
-5.6734e-06
2.15272e-05
-3.4136e-06
2.01724e-05
1.39874e-06
1.99676e-05
7.48878e-06
2.1168e-05
1.11816e-05
2.33756e-05
1.34885e-05
2.75638e-05
1.42466e-05
3.13109e-05
1.3629e-05
3.48413e-05
1.25005e-05
3.77815e-05
1.19893e-05
3.82845e-05
1.27043e-05
3.32929e-05
1.59556e-05
2.05206e-05
2.24528e-05
1.49478e-06
3.77048e-05
-3.14735e-05
6.72731e-05
-3.78576e-05
9.98023e-06
-4.44423e-07
1.25798e-05
2.88898e-07
1.59282e-05
-4.69394e-07
1.87175e-05
-1.93589e-06
2.03678e-05
-3.27887e-06
1.99816e-05
-3.48317e-06
1.87795e-05
-1.9067e-06
1.77686e-05
1.17878e-06
1.73444e-05
5.41927e-06
1.80244e-05
7.83677e-06
2.00941e-05
9.48518e-06
2.44478e-05
9.82315e-06
2.91749e-05
9.37532e-06
3.41139e-05
8.28435e-06
3.95038e-05
7.227e-06
4.38054e-05
7.54644e-06
4.59349e-05
1.13546e-05
4.47437e-05
2.39731e-05
3.88445e-05
4.6423e-05
3.76351e-05
7.0991e-05
1.72076e-05
-2.70643e-06
8.44373e-06
2.9982e-07
8.5125e-06
5.0217e-06
6.69451e-06
8.57166e-06
5.39778e-06
1.11828e-05
3.84994e-06
1.21758e-05
3.20158e-06
1.18496e-05
3.2379e-06
1.1111e-05
5.0291e-06
1.0546e-05
7.27335e-06
1.07143e-05
9.00094e-06
1.32084e-05
8.25482e-06
1.82333e-05
6.96593e-06
2.37703e-05
3.95185e-06
2.96536e-05
7.44965e-07
3.56688e-05
-3.09768e-06
4.10351e-05
-5.26441e-06
4.48369e-05
-4.12066e-06
4.59187e-05
1.90111e-07
4.26956e-05
1.05149e-05
2.50695e-05
3.50026e-05
1.73701e-05
1.34348e-05
-1.20977e-05
1.65549e-05
-1.21204e-05
2.19597e-05
-1.34408e-05
2.67124e-05
-1.5431e-05
3.01389e-05
-1.76077e-05
3.30983e-05
-1.88799e-05
3.29205e-05
-1.89392e-05
3.32923e-05
-1.8184e-05
3.24822e-05
-1.669e-05
3.35164e-05
-1.57177e-05
3.44714e-05
-1.66451e-05
4.04011e-05
-1.91833e-05
4.51212e-05
-2.29715e-05
5.23014e-05
-2.73076e-05
5.78875e-05
-3.09034e-05
6.39977e-05
-3.27065e-05
7.22995e-05
-3.15828e-05
7.6507e-05
-2.59591e-05
7.42408e-05
-1.00876e-05
6.72945e-05
2.05062e-05
5.0004e-05
-1.03532e-06
1.44567e-06
-2.78646e-06
6.34199e-06
-4.51456e-07
9.30149e-06
3.14204e-07
1.22498e-05
2.20367e-07
1.45369e-05
4.02509e-08
1.63538e-05
-2.11656e-07
1.67837e-05
5.53577e-08
1.74574e-05
6.727e-07
1.77688e-05
1.79372e-06
1.90427e-05
1.87728e-06
2.23707e-05
1.36214e-06
2.68529e-05
5.5133e-07
3.24982e-05
2.56351e-07
3.91169e-05
1.55334e-06
4.65308e-05
4.94224e-06
6.22314e-05
8.96363e-06
7.12127e-05
1.13312e-05
7.89825e-05
1.99639e-05
8.0738e-05
3.13579e-05
8.04762e-05
4.6781e-05
8.34596e-06
-6.49539e-06
3.92372e-06
-2.09367e-06
5.8353e-06
1.5001e-06
6.10657e-06
4.53211e-06
5.66545e-06
7.26787e-06
5.48931e-06
9.27366e-06
4.68393e-06
1.05412e-05
4.7846e-06
1.14453e-05
5.05743e-06
1.22662e-05
6.20505e-06
1.38826e-05
5.67197e-06
1.74198e-05
5.8035e-06
2.21506e-05
5.77253e-06
2.80572e-05
7.45513e-06
3.62231e-05
8.83627e-06
4.66276e-05
1.045e-05
5.86755e-05
6.1116e-06
6.29288e-05
-1.01409e-06
6.47136e-05
-7.96871e-06
5.7901e-05
-6.45068e-06
5.33544e-05
7.17952e-06
-5.40109e-06
4.30888e-06
-8.54267e-06
8.9627e-06
-7.40176e-06
1.35361e-05
-7.80089e-06
1.75394e-05
-9.08923e-06
2.0595e-05
-1.06138e-05
2.36982e-05
-1.18405e-05
2.47262e-05
-1.22616e-05
2.64163e-05
-1.22434e-05
2.68785e-05
-1.17555e-05
2.83737e-05
-1.15093e-05
2.97484e-05
-1.20252e-05
3.22886e-05
-1.20447e-05
3.43492e-05
-1.07162e-05
3.69653e-05
-9.41193e-06
4.27223e-05
-9.9785e-06
4.37807e-05
-1.46213e-05
4.55877e-05
-2.31762e-05
4.16038e-05
-2.90389e-05
3.82919e-05
-2.8024e-05
3.72054e-05
-1.95755e-05
5.11845e-06
-5.42829e-06
7.0641e-09
-2.05072e-06
3.9316e-06
1.68947e-07
6.16936e-06
9.77386e-07
8.46203e-06
1.03827e-06
1.02864e-05
8.77307e-07
1.21278e-05
7.60028e-07
1.33869e-05
1.03505e-06
1.4845e-05
1.57311e-06
1.59046e-05
2.13175e-06
1.76226e-05
2.01778e-06
2.03934e-05
2.03516e-06
2.34617e-05
3.12452e-06
2.53335e-05
6.69816e-06
3.32718e-05
9.10108e-06
3.60178e-05
8.34955e-06
3.82557e-05
4.1565e-06
3.91048e-05
-3.67967e-06
3.28551e-05
-8.52644e-06
3.32698e-05
-3.97564e-06
2.79517e-05
-2.40268e-06
1.25801e-06
-4.70567e-06
2.55728e-06
-1.56419e-06
3.90709e-06
9.03836e-07
4.70616e-06
3.02987e-06
3.98799e-06
5.01784e-06
4.10645e-06
6.90375e-06
3.26022e-06
8.57409e-06
3.79821e-06
1.01302e-05
3.91003e-06
1.16762e-05
4.37351e-06
1.37338e-05
4.51184e-06
1.71576e-05
5.69487e-06
2.05493e-05
7.3598e-06
2.51717e-05
8.667e-06
2.73987e-05
7.8832e-06
2.5663e-05
3.13114e-06
2.26834e-05
-3.70837e-06
1.33539e-05
-1.03827e-05
8.15922e-06
-1.27568e-05
6.94754e-06
-1.27694e-05
8.55479e-06
4.18355e-06
-5.86928e-06
2.62354e-06
-5.47574e-06
5.08808e-06
-4.75411e-06
8.38393e-06
-5.074e-06
1.07576e-05
-6.02425e-06
1.32235e-05
-7.08788e-06
1.49675e-05
-7.71995e-06
1.64181e-05
-7.7069e-06
1.7505e-05
-7.01579e-06
1.80251e-05
-5.77884e-06
1.95394e-05
-4.71646e-06
2.07536e-05
-2.83727e-06
2.10976e-05
-1.14777e-06
2.07972e-05
3.4093e-07
1.80769e-05
-2.08036e-09
1.43157e-05
-1.72484e-06
9.04781e-06
-3.25077e-06
6.0473e-06
-3.19667e-06
4.98263e-06
-1.3083e-06
5.46195e-06
8.73587e-07
4.70386e-06
-2.25315e-06
1.96772e-06
-3.94382e-06
-5.54123e-08
-1.77533e-06
1.70536e-06
-4.99541e-07
3.29833e-06
-7.84658e-08
4.51119e-06
-7.90715e-08
6.0487e-06
-1.07803e-07
7.2603e-06
9.88925e-08
9.11405e-06
1.09074e-06
1.03264e-05
3.32914e-06
1.33874e-05
4.49069e-06
1.59812e-05
7.73931e-06
1.89382e-05
1.23545e-05
2.4844e-05
1.59328e-05
2.59184e-05
1.86423e-05
2.6626e-05
1.93243e-05
2.61697e-05
1.76774e-05
2.22614e-05
1.5432e-05
1.9242e-05
1.38699e-05
1.50766e-05
1.17888e-05
1.27844e-05
9.74173e-06
2.14852e-06
-3.56061e-06
1.424e-06
-3.01806e-06
1.12521e-06
-1.45793e-06
1.6782e-06
-1.86571e-07
1.59544e-06
9.9154e-07
1.31191e-06
2.30838e-06
7.40311e-07
3.73795e-06
1.39429e-06
5.47238e-06
2.14232e-06
7.89707e-06
2.82901e-06
9.15946e-06
5.07579e-06
1.18664e-05
7.28333e-06
1.5994e-05
9.73191e-06
1.65191e-05
1.16677e-05
1.7424e-05
1.15097e-05
1.63003e-05
9.82011e-06
1.20791e-05
7.8298e-06
8.96387e-06
7.75856e-06
7.46366e-06
8.76766e-06
5.90563e-06
9.28555e-06
4.50108e-06
8.89859e-06
-1.53413e-06
3.57964e-06
-3.61263e-06
2.25525e-06
-3.10661e-06
2.75031e-06
-3.11004e-06
4.2245e-06
-3.64934e-06
5.33257e-06
-4.26248e-06
6.2794e-06
-4.55447e-06
7.90578e-06
-4.46757e-06
8.80164e-06
-3.3487e-06
9.16469e-06
-1.51661e-06
1.13689e-05
5.31663e-08
1.19342e-05
1.87991e-06
1.15842e-05
2.62777e-06
1.14072e-05
2.14218e-06
7.8928e-06
6.67213e-07
3.78122e-06
-3.78166e-07
1.62518e-06
2.71616e-07
1.07228e-06
2.69768e-06
1.2736e-06
5.65354e-06
1.63404e-06
7.60914e-06
9.28024e-07
8.64296e-06
1.89394e-06
-2.39018e-06
2.44785e-06
-1.94324e-06
5.85805e-07
-6.87702e-07
1.0814e-06
-3.14581e-07
1.76103e-06
-2.23025e-07
2.30213e-06
1.14632e-07
3.65416e-06
-8.35059e-09
4.73164e-06
1.22776e-06
5.77042e-06
3.08857e-06
8.6091e-06
3.61209e-06
9.10878e-06
4.88679e-06
9.64652e-06
5.34227e-06
1.0457e-05
4.0159e-06
7.00825e-06
2.39664e-06
4.34202e-06
1.36024e-06
2.86261e-06
1.04912e-06
1.86169e-06
1.56033e-06
1.7385e-06
2.82108e-06
1.30059e-06
3.93521e-06
1.50106e-06
4.85537e-06
-1.80236e-07
-1.08069e-06
2.97178e-06
-2.11139e-06
2.03597e-06
-8.28834e-07
1.26363e-06
-9.35608e-08
1.20465e-06
4.79297e-07
9.88591e-07
1.3181e-06
6.87549e-07
1.99131e-06
1.40866e-06
3.23108e-06
1.5875e-06
5.10108e-06
1.99067e-06
4.8545e-06
3.51198e-06
6.2916e-06
3.98591e-06
7.91447e-06
4.55444e-06
6.6009e-06
4.93269e-06
7.03777e-06
5.09795e-06
6.91216e-06
4.85988e-06
5.82403e-06
4.53272e-06
5.13434e-06
4.55952e-06
4.23313e-06
4.85565e-06
3.88151e-06
5.03161e-06
2.99219e-06
5.14558e-06
2.08015e-06
1.45095e-06
-1.81439e-06
3.26777e-06
-1.62035e-06
2.36011e-06
-8.01823e-07
2.00615e-06
-9.82741e-07
2.42575e-06
-1.12267e-06
2.78756e-06
-1.07617e-06
3.68876e-06
-1.10227e-06
3.84641e-06
-4.19834e-07
3.85352e-06
1.89619e-07
4.98497e-06
7.28625e-07
4.02256e-06
1.15976e-06
3.08271e-06
9.98597e-07
2.80074e-06
5.56031e-07
6.03069e-07
-3.52454e-07
-1.41468e-06
-8.39245e-07
-2.00399e-06
-7.30591e-07
-2.16684e-06
-1.59596e-07
-2.11051e-06
6.51719e-07
-1.9011e-06
1.04739e-06
-2.41598e-06
7.93352e-07
-2.62547e-06
-8.54201e-07
2.43549e-06
-1.64407e-06
2.46172e-06
-5.24199e-07
5.08272e-07
-1.43664e-08
6.85055e-07
1.45847e-07
9.98382e-07
2.4709e-07
1.50521e-06
1.94269e-07
1.74071e-06
7.61966e-07
2.04228e-06
7.75951e-07
2.97682e-06
7.41302e-07
1.67245e-06
1.43883e-06
2.10959e-06
1.36639e-06
2.1441e-06
1.31817e-06
2.66419e-07
1.33819e-06
6.12904e-07
1.70216e-06
4.72563e-07
1.8404e-06
4.92052e-07
1.96249e-06
3.97047e-07
2.29196e-06
3.68687e-07
2.72817e-06
1.86789e-07
2.50817e-06
4.10191e-07
2.12468e-06
9.54464e-07
-1.50057e-06
2.38153e-06
-1.30002e-06
4.57716e-07
1.27315e-07
1.4822e-08
3.1113e-07
1.0484e-07
6.17913e-07
2.06802e-07
8.00321e-07
5.19758e-07
1.21452e-06
6.22967e-08
1.22489e-06
4.40252e-07
5.81133e-07
8.00538e-07
1.35867e-06
1.69984e-07
-6.81658e-08
-1.46541e-07
-1.721e-06
-1.09306e-06
-2.54102e-06
-1.90126e-06
-4.46059e-06
-2.59733e-06
-5.16803e-06
-2.66336e-06
-5.42587e-06
-2.38854e-06
-5.00006e-06
-1.77776e-06
-4.74133e-06
-1.18848e-06
-4.47136e-06
-1.46479e-06
-4.12065e-06
-1.9085e-06
-7.77586e-07
1.67671e-06
-1.5691e-06
1.32091e-06
-1.3305e-08
-9.42668e-08
1.98466e-07
1.63562e-07
1.21004e-07
3.86263e-07
1.48466e-07
6.74749e-07
-2.67458e-08
5.66176e-07
3.77324e-07
6.21751e-07
3.39524e-07
9.91554e-07
2.6256e-07
-1.3259e-07
1.30053e-07
-6.75719e-07
-8.18639e-07
-1.92532e-06
-1.91193e-06
-4.18572e-06
-3.01264e-06
-5.39331e-06
-3.29925e-06
-5.96879e-06
-3.21866e-06
-5.73381e-06
-2.83808e-06
-5.58391e-06
-2.21042e-06
-5.12988e-06
-1.69249e-06
-4.81319e-06
-2.00193e-06
-4.54275e-06
-2.38435e-06
6.40372e-07
-1.26336e-06
1.49021e-06
-6.33566e-07
-4.89539e-08
7.50116e-07
-4.0008e-08
2.54357e-07
7.4177e-09
1.54565e-07
1.33343e-07
-7.57619e-08
3.45585e-07
-1.01026e-07
4.18108e-07
-5.43796e-07
6.76001e-07
-1.03863e-06
6.25481e-07
-1.36386e-06
3.26448e-07
-2.5978e-06
-1.75209e-07
-3.7899e-06
-6.16464e-07
-4.3422e-06
-6.51631e-07
-4.52842e-06
-5.40499e-07
-4.14902e-06
-3.22163e-07
-3.68329e-06
-1.30541e-07
-2.84558e-06
2.63575e-07
-2.19797e-06
6.75992e-07
-1.48623e-06
6.16143e-07
-6.93556e-07
3.60158e-07
-6.26535e-07
1.07315e-06
-1.12546e-06
6.55531e-07
5.04086e-07
-1.80989e-07
2.16546e-07
-1.27562e-08
4.95009e-08
-2.64019e-08
-4.34667e-08
-3.09413e-08
-1.06317e-07
-8.49567e-08
-3.93779e-07
1.54117e-07
-5.85051e-07
9.82115e-08
-7.15416e-07
1.98922e-07
-1.51028e-06
2.81274e-07
-1.51969e-06
5.51349e-07
-1.67772e-06
7.0172e-07
-1.82052e-06
8.33482e-07
-1.90587e-06
8.66195e-07
-2.01159e-06
8.55029e-07
-1.90125e-06
8.81994e-07
-1.77284e-06
9.48241e-07
-1.42588e-06
9.48368e-07
-1.01324e-06
6.54136e-07
-8.60304e-07
4.09511e-07
-1.00916e-06
9.14747e-07
-4.41989e-07
-1.26415e-07
3.88512e-07
6.13033e-08
9.88852e-08
-9.94938e-08
-4.9195e-08
-2.25544e-07
-1.34202e-07
-4.69755e-07
-4.79413e-08
-6.18808e-07
-2.37035e-07
-1.05964e-06
-9.66838e-08
-1.4843e-06
-1.59128e-07
-1.73035e-06
-1.56351e-07
-2.31027e-06
-1.61804e-07
-2.63224e-06
-6.87943e-08
-2.98339e-06
-9.75012e-09
-3.16135e-06
3.46836e-08
-3.46857e-06
2.29993e-09
-3.5226e-06
-2.53464e-08
-3.71567e-06
-1.06371e-07
-3.64778e-06
-2.23492e-07
-3.67615e-06
-9.33011e-07
-3.57305e-06
-5.07582e-07
6.66829e-07
-8.72121e-07
3.68931e-07
2.12764e-07
3.33948e-08
2.88574e-07
-7.05776e-08
1.8015e-07
-2.89835e-07
-2.09255e-08
-3.33861e-07
-2.25752e-07
-4.02887e-07
-6.30496e-07
-2.71608e-07
-9.49709e-07
-2.61109e-07
-1.25024e-06
-1.93024e-07
-1.78873e-06
-6.16938e-08
-2.17952e-06
1.16129e-07
-2.52004e-06
2.84084e-07
-2.78404e-06
4.62262e-07
-3.03299e-06
6.00387e-07
-3.07963e-06
6.92877e-07
-3.16245e-06
7.46624e-07
-3.04838e-06
7.53394e-07
-2.98748e-06
7.40802e-07
-2.76299e-06
3.40766e-07
-2.65173e-06
2.36391e-07
-7.62559e-07
5.32221e-07
-4.08524e-07
2.89541e-08
2.31683e-07
2.03868e-07
3.91684e-07
-3.34183e-07
3.78156e-07
-7.54223e-07
4.50617e-07
-1.23392e-06
5.76995e-07
-1.67471e-06
6.7929e-07
-2.06477e-06
8.94754e-07
-2.4549e-06
1.09009e-06
-2.3825e-06
1.38024e-06
-2.4972e-06
1.47657e-06
-2.65832e-06
1.49078e-06
-2.8973e-06
1.36555e-06
-3.26768e-06
1.15838e-06
-3.61279e-06
8.63645e-07
-4.01827e-06
5.71849e-07
-4.26523e-06
2.59454e-07
-4.59105e-06
1.90394e-08
-4.76526e-06
-7.12608e-07
-4.72176e-06
-3.82076e-07
3.71914e-07
-6.62844e-07
2.10996e-07
-7.72913e-08
2.37032e-07
1.15043e-07
1.2635e-07
7.009e-08
-1.50521e-07
-1.91918e-08
-4.11312e-07
-5.05036e-08
-7.1013e-07
-6.1723e-08
-1.14128e-06
2.86018e-08
-1.53329e-06
1.22731e-07
-1.75893e-06
4.08371e-07
-2.17518e-06
6.94421e-07
-2.18663e-06
1.07546e-06
-2.26475e-06
1.26936e-06
-2.50429e-06
1.35359e-06
-2.71361e-06
1.31412e-06
-2.98436e-06
1.2034e-06
-3.09363e-06
1.06822e-06
-3.33566e-06
9.1588e-07
-3.60256e-06
4.39598e-07
-3.73209e-06
3.74972e-07
8.6619e-08
-5.66806e-07
2.67719e-07
-3.85864e-07
4.70489e-09
-5.14368e-08
2.36868e-07
5.88774e-08
6.25429e-08
-1.38581e-07
-3.5147e-08
-3.79941e-07
-7.78308e-08
-7.23644e-07
-6.56441e-08
-1.09882e-06
-7.76989e-08
-1.57676e-06
1.09908e-07
-1.85034e-06
2.9682e-07
-2.12323e-06
5.74625e-07
-2.29811e-06
8.08874e-07
-2.41647e-06
9.52536e-07
-2.71695e-06
9.80645e-07
-2.96827e-06
9.46259e-07
-3.315e-06
8.38576e-07
-3.50548e-06
7.22721e-07
-3.86971e-06
5.80823e-07
-4.23574e-06
1.46162e-07
-4.49791e-06
2.51034e-07
-2.68907e-07
1.72815e-07
-3.80275e-07
8.07504e-08
-1.59402e-07
7.22102e-08
5.67483e-08
9.64886e-08
4.42387e-08
-1.07003e-07
-7.67316e-09
-3.44826e-07
-2.12169e-08
-6.57522e-07
-1.11117e-08
-1.05007e-06
1.64013e-07
-1.2936e-06
3.25997e-07
-1.57954e-06
6.29792e-07
-1.73964e-06
8.58521e-07
-1.86871e-06
1.08127e-06
-2.10552e-06
1.15131e-06
-2.3323e-06
1.21646e-06
-2.65628e-06
1.18728e-06
-2.9078e-06
1.17497e-06
-3.28024e-06
1.1246e-06
-3.52099e-06
1.13448e-06
-3.99139e-06
9.17957e-07
-4.03836e-06
1.06259e-06
-1.55907e-07
-3.43686e-07
-2.77673e-08
-2.89759e-07
-1.29278e-08
-1.02664e-07
1.95435e-07
2.20674e-08
1.49377e-07
-8.17084e-08
9.06441e-08
-2.50254e-07
5.00589e-08
-5.07302e-07
1.03951e-07
-7.14391e-07
1.89208e-07
-9.56597e-07
3.88558e-07
-1.07149e-06
5.35108e-07
-1.2398e-06
6.9564e-07
-1.51496e-06
7.38354e-07
-1.83757e-06
7.95348e-07
-2.22934e-06
7.85704e-07
-2.58191e-06
8.02729e-07
-2.95478e-06
7.58166e-07
-3.21092e-06
7.20319e-07
-3.56077e-06
6.35134e-07
-3.93219e-06
3.87026e-07
-4.1317e-06
7.4278e-07
-2.87484e-07
-2.74147e-07
-3.75027e-07
-9.29375e-08
-2.3851e-07
9.92004e-08
-5.26804e-08
2.6602e-07
-2.72106e-09
2.18131e-07
2.53301e-08
8.48476e-08
1.28125e-07
-1.01262e-07
2.79709e-07
-3.36313e-07
4.73262e-07
-5.03626e-07
6.66013e-07
-6.88851e-07
8.24383e-07
-9.1188e-07
9.30937e-07
-1.20689e-06
1.01974e-06
-1.51316e-06
1.09378e-06
-1.84942e-06
1.18641e-06
-2.20203e-06
1.28739e-06
-2.54618e-06
1.40633e-06
-2.98734e-06
1.5077e-06
-3.34207e-06
1.63687e-06
-3.94982e-06
1.53197e-06
-4.09933e-06
1.60856e-06
-3.56409e-07
-3.34004e-07
-2.20945e-07
-2.33093e-07
-6.26685e-08
-1.34873e-07
2.15851e-07
-7.09473e-08
3.79637e-07
-1.46948e-07
5.72905e-07
-2.2194e-07
7.89392e-07
-3.08346e-07
1.00284e-06
-3.60351e-07
1.12556e-06
-3.77622e-07
1.18908e-06
-4.36043e-07
1.15342e-06
-5.92399e-07
1.09911e-06
-7.82956e-07
1.02024e-06
-1.0289e-06
9.7717e-07
-1.21345e-06
9.56052e-07
-1.41157e-06
9.77063e-07
-1.53918e-06
1.0192e-06
-1.67226e-06
1.0965e-06
-1.74392e-06
1.24062e-06
-1.8751e-06
1.48904e-06
-1.70488e-06
2.02444e-06
-3.73366e-08
-5.52673e-08
-5.2226e-08
-3.36322e-08
-4.00377e-08
3.53886e-08
-4.32457e-09
1.06314e-07
-8.71437e-09
2.18572e-07
-1.19727e-08
4.12692e-07
-2.67577e-08
7.09114e-07
3.62232e-09
1.07323e-06
3.24151e-08
1.44128e-06
1.09651e-07
1.81422e-06
1.81425e-07
2.16756e-06
2.50972e-07
2.49338e-06
2.67151e-07
2.79393e-06
2.3463e-07
3.08871e-06
9.14065e-08
3.40971e-06
-1.26199e-07
3.79263e-06
-5.46472e-07
4.26477e-06
-1.0677e-06
4.8555e-06
-1.88856e-06
5.85185e-06
-2.72383e-06
6.52571e-06
-4.33835e-06
0.022883
0.00610437
-0.00246724
0.0140782
-0.0127814
-0.000772819
0.00122639
-0.00155321
-0.00289467
-0.00347105
-0.0141075
0.00495423
0.0018552
-0.00593898
0.00407325
-0.00371792
0.00403486
-0.00335048
0.00430447
-0.000894132
0.00187216
0.00029447
0.000259268
0.000266953
0.00018474
0.0011382
-0.000680592
0.000157812
8.00211e-05
0.000611284
-0.00046702
3.38942e-05
-0.00050238
-0.000208705
-0.00011604
-0.000201066
-0.00013917
-0.000107466
-0.000268802
0.000118489
-0.000125579
-0.000313702
0.000145217
-0.00037496
0.000181758
-0.000146707
-0.000207716
0.000126782
7.83697e-05
-8.10393e-05
7.19819e-05
-1.15968e-06
2.56376e-05
-1.09542e-05
-6.16641e-05
9.63852e-05
-1.0652e-05
4.2254e-05
7.57659e-07
3.01972e-05
1.03346e-05
2.61947e-05
1.60812e-05
2.38022e-05
9.68397e-06
4.70854e-05
-2.00301e-05
1.31941e-05
5.10197e-06
2.4459e-05
-2.29596e-05
1.42669e-05
-5.77983e-06
-1.83985e-08
0.00701174
0.00235273
0.000415014
0.00313602
-0.0032836
-0.00146871
-0.000887366
-0.0022659
-0.00264628
-0.00272835
-0.00463001
-0.00130542
-0.000603084
-0.00345541
0.000806729
-0.00207736
0.00126812
-0.00116706
0.000767501
-0.000560738
0.000190154
-5.95115e-06
-4.47292e-05
0.000107768
-6.39436e-05
0.000273402
-0.000224091
4.72784e-05
4.75862e-05
0.000180485
-2.10781e-05
4.15997e-05
-4.93815e-05
-2.5925e-05
-1.33379e-05
-1.02265e-05
2.08853e-06
6.80518e-06
5.6401e-06
8.96596e-05
-5.39132e-06
-2.52946e-05
7.9636e-05
-5.78337e-05
8.95059e-05
-2.08466e-05
3.82762e-06
3.86984e-05
5.20685e-05
-1.14552e-05
4.44635e-05
1.34275e-05
2.4121e-05
6.43478e-06
2.48059e-06
3.41495e-05
3.87977e-06
2.223e-05
5.92596e-06
1.57574e-05
8.91587e-06
1.08212e-05
8.74463e-06
1.07147e-05
3.79622e-06
1.27121e-05
-4.99419e-06
3.42713e-06
1.10621e-06
6.53973e-06
-1.08154e-05
4.39218e-06
-3.78327e-06
-3.63132e-07
0.00270263
0.000545773
-0.000184357
0.000747462
-0.00027551
0.000456752
0.000803148
0.000570714
0.00129235
0.00104315
0.000457202
0.0010404
0.000983794
-0.000235202
0.00181513
-0.000104159
0.00161323
5.82354e-05
0.000805268
0.00024183
0.000483429
0.000436697
0.000289796
0.00033859
0.000160669
0.000342123
-4.9532e-05
5.97239e-05
3.20315e-06
0.000110154
-8.7146e-05
-4.73813e-05
-0.000108447
-9.62732e-05
-0.000101978
-0.00012742
-0.000119711
-0.000102689
-9.99929e-05
-7.39104e-05
-9.93271e-05
-9.63369e-05
-3.72044e-05
-0.00012345
2.73037e-06
-8.15886e-05
-3.69258e-05
-2.49526e-05
2.82728e-06
-4.62245e-05
8.1789e-06
-1.74667e-05
-3.93562e-06
-1.56523e-05
-1.3104e-05
1.18509e-05
-9.06482e-06
1.10151e-05
-3.04873e-06
8.99884e-06
2.02408e-06
7.06374e-06
6.29397e-06
9.15555e-06
5.04445e-06
1.17419e-05
2.40768e-07
8.50793e-06
8.51283e-06
1.01819e-05
-5.48152e-06
9.44564e-06
-9.86708e-07
6.86024e-07
0.00337087
0.00186498
0.00112383
0.00115908
-0.000496413
-0.000741256
-0.000899423
-0.00147413
-0.00156272
-0.00162848
-0.00207509
-0.00156919
-0.0011745
-0.00190936
-0.000110593
-0.00111545
0.000528912
-0.00035474
0.000273464
-0.000124691
0.000109617
0.000113074
4.89372e-05
0.000155988
-1.55896e-05
0.000161802
-0.000124199
9.72634e-07
2.53109e-05
5.26042e-05
-2.29861e-05
-2.223e-05
-5.01365e-05
-5.00455e-05
-4.7302e-05
-1.86303e-05
-2.43669e-05
-1.05048e-05
1.09669e-05
2.60075e-05
-2.12529e-05
-2.68569e-06
2.78245e-05
-2.84908e-05
4.49944e-05
-1.26349e-05
2.37778e-05
5.36456e-06
3.47373e-05
-6.96788e-06
2.97642e-05
8.11658e-06
1.55918e-05
4.23926e-06
7.9385e-06
1.77842e-05
4.90721e-06
1.61901e-05
6.12986e-06
1.2256e-05
8.28444e-06
8.94944e-06
8.23054e-06
8.84488e-06
4.15486e-06
8.14721e-06
3.03675e-07
3.94999e-06
3.66996e-06
3.8315e-06
-6.42082e-06
4.87434e-06
-2.54457e-06
9.05119e-08
0.000780459
0.000429084
9.21515e-05
8.34619e-05
0.000120165
0.000275265
0.000222196
0.000430039
0.000733787
0.000789804
0.000609338
0.000473459
0.000517135
0.000407676
0.00093986
0.000354972
0.000889538
0.000381274
0.000372461
0.000266757
0.00028138
0.000275577
0.000222435
0.00021665
0.000153167
0.000195483
2.7109e-05
4.01145e-05
6.81469e-05
7.52397e-05
1.51604e-06
-1.35754e-05
-2.08668e-05
-3.14769e-05
-6.62019e-05
-7.10987e-05
-7.2636e-05
-6.78195e-05
-7.24618e-05
-6.97748e-05
-7.72219e-05
-5.7012e-05
-5.3345e-05
-6.97225e-05
-1.74093e-05
-4.76856e-05
-1.60616e-05
-3.0318e-05
-4.7133e-06
-2.71005e-05
2.79307e-07
-1.24815e-05
-4.25827e-06
-1.06396e-05
-5.47748e-06
2.30509e-06
-5.09274e-06
6.43116e-06
-2.08344e-06
5.25202e-06
1.29076e-06
4.28334e-06
4.68707e-06
5.47478e-06
2.99832e-06
6.73825e-06
2.50682e-06
6.501e-06
6.43827e-06
5.05426e-06
-3.58071e-06
7.79604e-06
-1.30141e-06
5.13784e-07
0.00123002
0.00100677
0.000690232
0.000616622
0.000123035
-0.000174232
-0.000513322
-0.000743269
-0.000824806
-0.0010009
-0.00116169
-0.00117915
-0.00101011
-0.000986579
-0.000479114
-0.000614321
-2.06928e-05
-0.000182907
1.26895e-05
-3.66749e-05
4.10944e-05
8.89521e-05
4.49636e-05
0.000105757
-6.15188e-06
6.24113e-05
-9.20105e-05
-1.63126e-05
9.36114e-06
1.88307e-06
-5.22748e-05
-5.72415e-05
-7.34412e-05
-6.68451e-05
-6.53462e-05
-3.16689e-05
-3.59201e-05
-1.57787e-05
-5.67319e-07
-8.22732e-06
-2.88856e-05
2.36518e-06
2.4178e-06
-2.05529e-05
2.41333e-05
-1.08505e-05
2.46236e-05
-6.59138e-06
2.48509e-05
-6.28191e-06
2.13827e-05
6.16037e-06
9.27867e-06
3.69189e-06
7.48044e-06
1.0697e-05
4.98095e-06