/*--------------------------------*- C++ -*----------------------------------*\
| =========                 |                                                 |
| \\      /  F ield         | OpenFOAM: The Open Source CFD Toolbox           |
|  \\    /   O peration     | Version:  2312                                  |
|   \\  /    A nd           | Website:  www.openfoam.com                      |
|    \\/     M anipulation  |                                                 |
\*---------------------------------------------------------------------------*/
FoamFile
{
    version     2.0;
    format      ascii;
    arch        "LSB;label=32;scalar=64";
    class       volScalarField;
    location    "800";
    object      magR;
}
// * * * * * * * * * * * * * * * * * * * * * * * * * * * * * * * * * * * * * //

dimensions      [0 2 -2 0 0 0 0];

internalField   nonuniform List<scalar> 
11040
(
0.478508
0.528635
0.0827707
0.0555517
0.338598
0.349031
0.331077
0.302388
0.272462
0.253691
0.236018
0.220678
0.208052
0.198288
0.190425
0.186344
0.185901
0.189379
0.196199
0.20622
0.219797
0.236532
0.256449
0.279864
0.306868
0.338625
0.374146
0.408496
0.438628
0.460987
0.471802
0.467821
0.449775
0.423733
0.401475
0.321854
0.171117
0.105531
0.0454978
0.130881
0.266558
0.0390576
0.0821245
0.282269
0.517616
1.00453
0.336529
0.10465
0.0361081
0.00954264
0.00681677
0.0167134
0.0223241
0.0260303
0.0286508
0.0303625
0.0319855
0.0339861
0.0364025
0.0388955
0.0414516
0.044141
0.0470926
0.0495177
0.0505533
0.0499506
0.0486525
0.0470851
0.0440666
0.0396268
0.0344406
0.0300714
0.0286761
0.0288768
0.0323066
0.0398917
0.0517626
0.0685286
0.0907873
0.145889
0.167623
0.674824
0.0241052
0.0216265
0.0485521
0.213089
1.16247
1.56686
0.81493
0.308846
0.145763
0.0874098
0.0495156
0.0285245
0.0140738
0.00443292
0.00361095
0.00802308
0.0112739
0.0136914
0.0154597
0.0166776
0.0174825
0.0178864
0.0174398
0.0159747
0.0138264
0.0114603
0.00906665
0.00642503
0.00329219
0.0044218
0.0126813
0.0253982
0.0426877
0.0650055
0.0932008
0.128965
0.173993
0.225989
0.338541
0.445379
0.650275
0.0173369
0.0148172
0.0123453
0.0191176
0.275113
1.34647
2.02018
1.36235
0.570049
0.30701
0.182405
0.122978
0.0866425
0.0618205
0.0461825
0.0351486
0.0283671
0.0239592
0.0215166
0.0206337
0.0208059
0.0219931
0.0243722
0.0277465
0.0313373
0.0344889
0.0366703
0.0374649
0.0368716
0.036284
0.0396927
0.0522362
0.0760254
0.111687
0.159875
0.223082
0.303935
0.39751
0.566625
0.783889
0.704493
0.0129081
0.011637
0.0123979
0.00621918
0.00821361
0.245379
1.279
2.28052
1.96913
0.991907
0.52417
0.317625
0.219985
0.15906
0.123659
0.0986368
0.0833903
0.0732445
0.0672346
0.0642886
0.0632391
0.0636509
0.0656285
0.0690711
0.072991
0.0765473
0.0789797
0.0795832
0.0780921
0.0755316
0.0758295
0.0869241
0.116579
0.167404
0.239476
0.335185
0.457889
0.602081
0.81597
1.14853
0.930328
0.00931345
0.00855406
0.00831816
0.00921165
0.00283753
0.00199514
0.165381
1.0224
2.31241
2.5082
1.63366
0.835335
0.518284
0.348795
0.258764
0.20051
0.166156
0.143841
0.130068
0.12266
0.118961
0.117863
0.11912
0.122625
0.127112
0.131468
0.134504
0.134928
0.131807
0.125548
0.120006
0.125992
0.158662
0.22512
0.324488
0.457603
0.62753
0.828509
1.08024
1.50493
1.27399
0.00672656
0.00642931
0.00603678
0.0064267
0.00664485
0.00128038
5.52037e-05
0.076764
0.684183
2.01117
2.8189
2.37561
1.38977
0.790928
0.531806
0.390502
0.305989
0.252836
0.220202
0.202242
0.192564
0.188562
0.188817
0.192786
0.198558
0.204494
0.208778
0.209269
0.203975
0.192239
0.176966
0.17043
0.197265
0.275183
0.402524
0.575639
0.794998
1.05324
1.34179
1.81818
1.65953
0.00490932
0.00480054
0.0047286
0.00454277
0.00491446
0.00515243
0.000247056
2.78943e-06
0.0231562
0.367041
1.44669
2.74066
2.97392
2.17972
1.26507
0.792832
0.567203
0.442994
0.365972
0.320325
0.294625
0.283407
0.280785
0.284947
0.292624
0.301218
0.30795
0.309464
0.302087
0.283577
0.254525
0.225127
0.227582
0.302629
0.453207
0.665219
0.931979
1.24154
1.56623
2.04348
2.00191
0.00362634
0.00357537
0.00358235
0.00355314
0.00341409
0.00385742
0.00368963
0.000512238
0.000445926
0.000861933
0.140014
0.828504
2.16917
3.16469
2.97046
2.04663
1.23198
0.826891
0.625017
0.513423
0.448779
0.417773
0.406146
0.407968
0.417165
0.428794
0.438705
0.442314
0.434231
0.409391
0.364696
0.303778
0.253933
0.288682
0.446256
0.691148
0.998656
1.34825
1.70172
2.14175
2.21031
0.0026934
0.00266963
0.00268922
0.00271854
0.00269622
0.00261394
0.00293919
0.0026365
0.000861241
0.000114003
0.00207668
0.03077
0.357608
1.34699
2.72467
3.39481
2.95148
2.01222
1.26972
0.896139
0.714683
0.626558
0.58661
0.575984
0.582454
0.597416
0.613205
0.621487
0.614324
0.584679
0.526154
0.434069
0.315252
0.231812
0.342314
0.609198
0.948541
1.32437
1.69225
2.07585
2.21793
0.00200911
0.00199803
0.0020182
0.00205003
0.00207915
0.00206036
0.00203275
0.00217256
0.00215568
0.00114034
7.81439e-05
0.00037819
0.000272214
0.0956274
0.612109
1.78413
3.08651
3.53732
2.99535
2.08474
1.38085
1.03378
0.888362
0.829162
0.8122
0.819475
0.837447
0.853109
0.854625
0.830108
0.767742
0.657197
0.492709
0.276061
0.104577
0.375481
0.742889
1.13233
1.49685
1.81664
1.9854
0.0015017
0.00149721
0.00151171
0.00154058
0.00157099
0.0015952
0.00159034
0.00157461
0.00162737
0.00169432
0.00125873
4.22874e-05
2.19757e-05
0.00157755
0.0117515
0.181851
0.834587
2.07598
3.29981
3.66955
3.14011
2.31728
1.68453
1.33901
1.19131
1.14809
1.14843
1.16029
1.16653
1.15195
1.10201
1.0033
0.846745
0.631161
0.375197
0.236187
0.483901
0.838603
1.16649
1.41188
1.5487
0.00112306
0.00112208
0.00113181
0.00115389
0.00118147
0.00120772
0.00122857
0.00123395
0.0012252
0.00124044
0.00131284
0.00113535
0.0002785
2.79415e-05
0.000160854
0.00333901
0.0247723
0.247437
0.956773
2.19785
3.40013
3.83617
3.51706
2.90927
2.33552
1.9321
1.70948
1.61923
1.59953
1.59507
1.56951
1.50339
1.38969
1.23395
1.05917
0.91475
0.875282
0.97081
1.1286
1.23721
1.24094
0.000839206
0.000840113
0.00084638
0.000862313
0.000884642
0.000908427
0.000930621
0.000949386
0.000959726
0.000957915
0.000959243
0.00100996
0.000976522
0.000566172
1.0018e-05
4.28597e-06
0.000390938
0.00506891
0.033726
0.266024
0.954957
2.09837
3.24567
3.93442
4.04881
3.79045
3.39153
2.99029
2.65776
2.41978
2.26942
2.17861
2.11281
2.04796
1.98091
1.92404
1.89699
1.90853
1.9515
1.98114
1.85829
0.000625706
0.000627578
0.000631584
0.000642887
0.000659959
0.000679551
0.000699538
0.000718483
0.000735251
0.000747584
0.000750705
0.000752243
0.000777098
0.000785916
0.000688408
0.000202478
2.31319e-05
4.38163e-07
0.000672839
0.00519754
0.0308082
0.215156
0.706245
1.55252
2.59323
3.54748
4.20173
4.50963
4.54978
4.4192
4.18592
3.90084
3.61277
3.36707
3.19724
3.1172
3.12432
3.19024
3.28029
3.37075
3.28562
0.000464965
0.00046712
0.000469684
0.000477615
0.000490338
0.000505601
0.000521984
0.000538697
0.000554864
0.000569581
0.000581799
0.000588512
0.000593003
0.000599261
0.000627833
0.000591044
0.000459328
3.78945e-05
8.30121e-06
1.08383e-07
0.000749207
0.00345295
0.0105094
0.0862636
0.315596
0.77857
1.48733
2.36558
3.28176
4.11115
4.77504
5.24137
5.51238
5.61273
5.58501
5.47829
5.34364
5.21594
5.12872
5.12598
5.03739
0.000344972
0.000346981
0.000348684
0.000354283
0.00036364
0.000375151
0.000387913
0.000401424
0.000415199
0.000428615
0.000441117
0.000452103
0.000460739
0.000465798
0.000472483
0.000483714
0.000500563
0.000443194
0.000275009
9.99776e-06
4.46084e-06
7.44776e-08
0.000212527
0.00167633
4.64567e-06
0.01081
0.06184
0.200884
0.479881
0.930157
1.55395
2.31998
3.1729
4.04993
4.89015
5.63715
6.25657
6.73194
7.07523
7.34965
7.42987
0.000258415
0.000260192
0.000261476
0.00026565
0.000272699
0.000281476
0.000291363
0.00030206
0.000313223
0.000324483
0.000335458
0.000345827
0.000355327
0.000363559
0.000369655
0.000374983
0.000381683
0.000396575
0.000399812
0.000345308
0.00019192
7.02835e-06
3.69703e-06
2.40678e-07
6.37488e-08
0.000232221
0.00134296
0.00227334
0.00059472
0.0101346
0.0489559
0.144302
0.325965
0.623278
1.05429
1.62161
2.31178
3.10355
3.95688
4.85242
5.65691
0.000197199
0.000198764
0.000199812
0.000203048
0.000208494
0.000215313
0.000223086
0.000231638
0.000240739
0.000250106
0.000259472
0.000268593
0.000277262
0.000285352
0.000292595
0.000298858
0.000303524
0.000309083
0.000316775
0.000327427
0.000324783
0.000273796
0.000184673
2.30753e-05
5.02427e-06
1.14786e-06
1.19963e-07
0
6.86394e-06
0.000193877
0.00106794
0.00167911
0.00163731
0.0010834
0.00882313
0.0381
0.103606
0.224486
0.417987
0.701322
1.07801
0.000153252
0.000154577
0.000155444
0.000157999
0.000162263
0.000167614
0.00017376
0.000180582
0.000187934
0.000195614
0.000203443
0.000211262
0.000218904
0.000226221
0.00023309
0.000239435
0.000245083
0.00024992
0.000254099
0.000259424
0.000266819
0.000273454
0.000272566
0.000242257
0.000183266
0.000114039
1.29749e-05
3.41515e-06
9.59502e-07
5.22625e-07
3.58882e-08
0
0
1.34475e-05
0.000158912
0.000834475
0.00143942
0.00116575
0.000790632
0.000128575
0.00632355
0.000120715
0.000121812
0.000122539
0.000124584
0.00012796
0.000132204
0.000137102
0.000142569
0.000148499
0.00015475
0.000161191
0.000167718
0.000174221
0.000180585
0.000186709
0.000192505
0.000197919
0.000202882
0.00020729
0.000211177
0.000214824
0.000219605
0.000225031
0.000232
0.000232021
0.000225446
0.000200841
0.000159532
0.000111214
6.36017e-05
4.72934e-06
1.96679e-06
7.35197e-07
4.96515e-07
2.73554e-07
4.2602e-08
0
0
0
8.76894e-07
9.32233e-05
9.61156e-05
9.70155e-05
9.76364e-05
9.92939e-05
0.000101994
0.000105389
0.00010932
0.000113724
0.000118518
0.0001236
0.00012887
0.000134254
0.000139675
0.000145048
0.000150299
0.000155361
0.000160175
0.000164698
0.000168895
0.000172754
0.000176109
0.000179123
0.000181991
0.000185539
0.000189816
0.000193976
0.00019877
0.000199588
0.000194603
0.000185501
0.000165982
0.000137739
0.000105564
7.36594e-05
4.27734e-05
7.15555e-06
1.79949e-06
5.57686e-07
4.30187e-07
3.11338e-07
1.99763e-07
7.71867e-05
7.79211e-05
7.84574e-05
7.98127e-05
8.19884e-05
8.47213e-05
8.78946e-05
9.14559e-05
9.53407e-05
9.94706e-05
0.000103771
0.000108185
0.000112659
0.000117126
0.000121529
0.000125817
0.000129945
0.000133872
0.000137562
0.000141018
0.000144138
0.000146892
0.000149344
0.000151464
0.000153511
0.000155594
0.000158145
0.000161162
0.000164241
0.000166773
0.000169464
0.000169794
0.000167293
0.000161836
0.00015414
0.00014172
0.000125035
0.000105096
8.41981e-05
6.33774e-05
4.29578e-05
6.24187e-05
6.30173e-05
6.34849e-05
6.46015e-05
6.63654e-05
6.85788e-05
7.11526e-05
7.40433e-05
7.71988e-05
8.05578e-05
8.40635e-05
8.76704e-05
9.13364e-05
9.50125e-05
9.86528e-05
0.000102217
0.00010567
0.000108977
0.000112107
0.000115055
0.000117737
0.000120133
0.000122299
0.000124166
0.000125758
0.000127127
0.000128321
0.000129442
0.000130614
0.000131825
0.000133231
0.000134796
0.000136342
0.000137718
0.000138723
0.000139698
0.000139876
0.000138849
0.000136529
0.00013273
0.000128474
5.07642e-05
5.12521e-05
5.16624e-05
5.25879e-05
5.40255e-05
5.58267e-05
5.79225e-05
6.02759e-05
6.28441e-05
6.55786e-05
6.84343e-05
7.13749e-05
7.4367e-05
7.73727e-05
8.03552e-05
8.32821e-05
8.61239e-05
8.88527e-05
9.14417e-05
9.38849e-05
9.61063e-05
9.80914e-05
9.98841e-05
0.000101435
0.000102753
0.000103866
0.000104782
0.00010551
0.00010607
0.000106489
0.000106786
0.000107006
0.000107183
0.000107354
0.000107513
0.00010769
0.000107881
0.000108078
0.000108263
0.000108283
0.000108359
4.14796e-05
4.18782e-05
4.22401e-05
4.30114e-05
4.41888e-05
4.56612e-05
4.73739e-05
4.92954e-05
5.13897e-05
5.36179e-05
5.59439e-05
5.83383e-05
6.07736e-05
6.32195e-05
6.56464e-05
6.80283e-05
7.03407e-05
7.25604e-05
7.46644e-05
7.66468e-05
7.84421e-05
8.00395e-05
8.1477e-05
8.27093e-05
8.37441e-05
8.46023e-05
8.52958e-05
8.58312e-05
8.6215e-05
8.64563e-05
8.6562e-05
8.6541e-05
8.64006e-05
8.61571e-05
8.58267e-05
8.54136e-05
8.4928e-05
8.43935e-05
8.3841e-05
8.32475e-05
8.26617e-05
3.40242e-05
3.43509e-05
3.46718e-05
3.53182e-05
3.62872e-05
3.74958e-05
3.89003e-05
4.04731e-05
4.2184e-05
4.40015e-05
4.5896e-05
4.78438e-05
4.98219e-05
5.18054e-05
5.37707e-05
5.56963e-05
5.75621e-05
5.93487e-05
6.10368e-05
6.26209e-05
6.40456e-05
6.53041e-05
6.64311e-05
6.73867e-05
6.81753e-05
6.88136e-05
6.93118e-05
6.96765e-05
6.99152e-05
7.00361e-05
7.00472e-05
6.99568e-05
6.97696e-05
6.94955e-05
6.91436e-05
6.87163e-05
6.82174e-05
6.7657e-05
6.70556e-05
6.63908e-05
6.57302e-05
2.79975e-05
2.82669e-05
2.8553e-05
2.90979e-05
2.98994e-05
3.08958e-05
3.20515e-05
3.33422e-05
3.47426e-05
3.62268e-05
3.77705e-05
3.9354e-05
4.09584e-05
4.25627e-05
4.4148e-05
4.56967e-05
4.71922e-05
4.86183e-05
4.99591e-05
5.12099e-05
5.23242e-05
5.32989e-05
5.4166e-05
5.48913e-05
5.54775e-05
5.59387e-05
5.62834e-05
5.65171e-05
5.66464e-05
5.66789e-05
5.66219e-05
5.64832e-05
5.62679e-05
5.59852e-05
5.56432e-05
5.52447e-05
5.47936e-05
5.42979e-05
5.37735e-05
5.32033e-05
5.26295e-05
2.3098e-05
2.3322e-05
2.35787e-05
2.40412e-05
2.4708e-05
2.55331e-05
2.64875e-05
2.75496e-05
2.86981e-05
2.99116e-05
3.117e-05
3.2457e-05
3.37568e-05
3.5052e-05
3.6327e-05
3.75675e-05
3.876e-05
3.98911e-05
4.09476e-05
4.19256e-05
4.2787e-05
4.35311e-05
4.41876e-05
4.47278e-05
4.51535e-05
4.54763e-05
4.5704e-05
4.58415e-05
4.58942e-05
4.58687e-05
4.57714e-05
4.5609e-05
4.53861e-05
4.51103e-05
4.47885e-05
4.44234e-05
4.40184e-05
4.35799e-05
4.31206e-05
4.26324e-05
4.2121e-05
1.90957e-05
1.92842e-05
1.95161e-05
1.99116e-05
2.04699e-05
2.11566e-05
2.19478e-05
2.28244e-05
2.37683e-05
2.47619e-05
2.57886e-05
2.68346e-05
2.7887e-05
2.89313e-05
2.99542e-05
3.09446e-05
3.18915e-05
3.27839e-05
3.3611e-05
3.43697e-05
3.50289e-05
3.55901e-05
3.60803e-05
3.64756e-05
3.67775e-05
3.69958e-05
3.71372e-05
3.72061e-05
3.72072e-05
3.7146e-05
3.70281e-05
3.6859e-05
3.6643e-05
3.63859e-05
3.60938e-05
3.57688e-05
3.54139e-05
3.50341e-05
3.46391e-05
3.42275e-05
3.37786e-05
1.58127e-05
1.5974e-05
1.61852e-05
1.65263e-05
1.69968e-05
1.75715e-05
1.82301e-05
1.89559e-05
1.97337e-05
2.05488e-05
2.13874e-05
2.22379e-05
2.30896e-05
2.39308e-05
2.47502e-05
2.55389e-05
2.6288e-05
2.69889e-05
2.76328e-05
2.82174e-05
2.87174e-05
2.91357e-05
2.94967e-05
2.97807e-05
2.99889e-05
3.01298e-05
3.02093e-05
3.02309e-05
3.01989e-05
3.01179e-05
2.99926e-05
2.98276e-05
2.96265e-05
2.93941e-05
2.91353e-05
2.88519e-05
2.85465e-05
2.82227e-05
2.78883e-05
2.75458e-05
2.71572e-05
1.31104e-05
1.32511e-05
1.3445e-05
1.37419e-05
1.41414e-05
1.46252e-05
1.5176e-05
1.57794e-05
1.64222e-05
1.70924e-05
1.77785e-05
1.84707e-05
1.91602e-05
1.98376e-05
2.04932e-05
2.11199e-05
2.17111e-05
2.22596e-05
2.27585e-05
2.32062e-05
2.35825e-05
2.38909e-05
2.41534e-05
2.43537e-05
2.44928e-05
2.45782e-05
2.46149e-05
2.4606e-05
2.4555e-05
2.44658e-05
2.43423e-05
2.41883e-05
2.40067e-05
2.38014e-05
2.35763e-05
2.33331e-05
2.30736e-05
2.28007e-05
2.25204e-05
2.2238e-05
2.19037e-05
1.08796e-05
1.10051e-05
1.11845e-05
1.14453e-05
1.17873e-05
1.21973e-05
1.26604e-05
1.31642e-05
1.36975e-05
1.42502e-05
1.48128e-05
1.5377e-05
1.59357e-05
1.64812e-05
1.70055e-05
1.75029e-05
1.79684e-05
1.83963e-05
1.87813e-05
1.91223e-05
1.94032e-05
1.96278e-05
1.98156e-05
1.99535e-05
2.00422e-05
2.00882e-05
2.00958e-05
2.00677e-05
2.00068e-05
1.99164e-05
1.97997e-05
1.96598e-05
1.94991e-05
1.93206e-05
1.91276e-05
1.89212e-05
1.87031e-05
1.84753e-05
1.82425e-05
1.80113e-05
1.77265e-05
9.0336e-06
9.1481e-06
9.3153e-06
9.54646e-06
9.84188e-06
1.01917e-05
1.05835e-05
1.10063e-05
1.14507e-05
1.19082e-05
1.23709e-05
1.28319e-05
1.32853e-05
1.3725e-05
1.41446e-05
1.45392e-05
1.49053e-05
1.52387e-05
1.5535e-05
1.57938e-05
1.60025e-05
1.61647e-05
1.62978e-05
1.63907e-05
1.64444e-05
1.64643e-05
1.64542e-05
1.64162e-05
1.63528e-05
1.62667e-05
1.61605e-05
1.60366e-05
1.58971e-05
1.57443e-05
1.55808e-05
1.54076e-05
1.52259e-05
1.50371e-05
1.48453e-05
1.46571e-05
1.4415e-05
7.50298e-06
7.60971e-06
7.76649e-06
7.97331e-06
8.23074e-06
8.53161e-06
8.86532e-06
9.22226e-06
9.59451e-06
9.97497e-06
1.0357e-05
1.07349e-05
1.11038e-05
1.14588e-05
1.1795e-05
1.21082e-05
1.23959e-05
1.26549e-05
1.28823e-05
1.30775e-05
1.32309e-05
1.33459e-05
1.34378e-05
1.34975e-05
1.35259e-05
1.35278e-05
1.35061e-05
1.3463e-05
1.34004e-05
1.33205e-05
1.32254e-05
1.31172e-05
1.29974e-05
1.28679e-05
1.27306e-05
1.25864e-05
1.24364e-05
1.22811e-05
1.21245e-05
1.19719e-05
1.17697e-05
6.23193e-06
6.33329e-06
6.48095e-06
6.66765e-06
6.89407e-06
7.15501e-06
7.44138e-06
7.74482e-06
8.05859e-06
8.37673e-06
8.69374e-06
9.00486e-06
9.30609e-06
9.59368e-06
9.86374e-06
1.0113e-05
1.03397e-05
1.05416e-05
1.07166e-05
1.08645e-05
1.0978e-05
1.10601e-05
1.11239e-05
1.11621e-05
1.11754e-05
1.11677e-05
1.11418e-05
1.10992e-05
1.10416e-05
1.09707e-05
1.08882e-05
1.07958e-05
1.06947e-05
1.05864e-05
1.04725e-05
1.03536e-05
1.02305e-05
1.01036e-05
9.97632e-06
9.85328e-06
9.68259e-06
5.17526e-06
5.27296e-06
5.41256e-06
5.58248e-06
5.78349e-06
6.01178e-06
6.25951e-06
6.5194e-06
6.7857e-06
7.05339e-06
7.31791e-06
7.57535e-06
7.8224e-06
8.05615e-06
8.27359e-06
8.47213e-06
8.65044e-06
8.80716e-06
8.94075e-06
9.05123e-06
9.13309e-06
9.18905e-06
9.23051e-06
9.2515e-06
9.25278e-06
9.23771e-06
9.20861e-06
9.16685e-06
9.11374e-06
9.05075e-06
8.97927e-06
8.90061e-06
8.81573e-06
8.72576e-06
8.63196e-06
8.5347e-06
8.43485e-06
8.33213e-06
8.23028e-06
8.13069e-06
7.99366e-06
4.29637e-06
4.39149e-06
4.52381e-06
4.67971e-06
4.85982e-06
5.06126e-06
5.27725e-06
5.5015e-06
5.72909e-06
5.95583e-06
6.17796e-06
6.39229e-06
6.5962e-06
6.78756e-06
6.96417e-06
7.12402e-06
7.26631e-06
7.39026e-06
7.49494e-06
7.58048e-06
7.64281e-06
7.68396e-06
7.71374e-06
7.72712e-06
7.72475e-06
7.70944e-06
7.6831e-06
7.64683e-06
7.60169e-06
7.54885e-06
7.48946e-06
7.42456e-06
7.35493e-06
7.28143e-06
7.20516e-06
7.12639e-06
7.04581e-06
6.96295e-06
6.88131e-06
6.80224e-06
6.68544e-06
3.56533e-06
3.65843e-06
3.78408e-06
3.92814e-06
4.09099e-06
4.27018e-06
4.45985e-06
4.6546e-06
4.85035e-06
5.04364e-06
5.23133e-06
5.41079e-06
5.57984e-06
5.73676e-06
5.87984e-06
6.00754e-06
6.11932e-06
6.21481e-06
6.29355e-06
6.35578e-06
6.39872e-06
6.42435e-06
6.44108e-06
6.44487e-06
6.4364e-06
6.41811e-06
6.39162e-06
6.35786e-06
6.3177e-06
6.27209e-06
6.2219e-06
6.16796e-06
6.11085e-06
6.05123e-06
5.98988e-06
5.92692e-06
5.86312e-06
5.79747e-06
5.73436e-06
5.66931e-06
5.5849e-06
2.95737e-06
3.04872e-06
3.1681e-06
3.30199e-06
3.45022e-06
3.61067e-06
3.77826e-06
3.94837e-06
4.11765e-06
4.28336e-06
4.44306e-06
4.59469e-06
4.73665e-06
4.86787e-06
4.98737e-06
5.09405e-06
5.18754e-06
5.26768e-06
5.33416e-06
5.38724e-06
5.4248e-06
5.44783e-06
5.4636e-06
5.46865e-06
5.46354e-06
5.45029e-06
5.43024e-06
5.40414e-06
5.37272e-06
5.33678e-06
5.29708e-06
5.25431e-06
5.20897e-06
5.16159e-06
5.11293e-06
5.06311e-06
5.01267e-06
4.96076e-06
4.91082e-06
4.86196e-06
4.78311e-06
2.4519e-06
2.54195e-06
2.65573e-06
2.78057e-06
2.91574e-06
3.05955e-06
3.20796e-06
3.35716e-06
3.50432e-06
3.64712e-06
3.78359e-06
3.91206e-06
4.03099e-06
4.13889e-06
4.23463e-06
4.31765e-06
4.38811e-06
4.44649e-06
4.49308e-06
4.52822e-06
4.55078e-06
4.56225e-06
4.56846e-06
4.56669e-06
4.55747e-06
4.54251e-06
4.52293e-06
4.49934e-06
4.47226e-06
4.44229e-06
4.40999e-06
4.37581e-06
4.34013e-06
4.30328e-06
4.26576e-06
4.22749e-06
4.18926e-06
4.14944e-06
4.11354e-06
4.06953e-06
4.03048e-06
2.03312e-06
2.12228e-06
2.23129e-06
2.34815e-06
2.47119e-06
2.59924e-06
2.72967e-06
2.86002e-06
2.98823e-06
3.11229e-06
3.23032e-06
3.34112e-06
3.44436e-06
3.5404e-06
3.62909e-06
3.70899e-06
3.77885e-06
3.83829e-06
3.8873e-06
3.92638e-06
3.95459e-06
3.97207e-06
3.98435e-06
3.98914e-06
3.98698e-06
3.97938e-06
3.96732e-06
3.95137e-06
3.93206e-06
3.90998e-06
3.88568e-06
3.85966e-06
3.83228e-06
3.80388e-06
3.77502e-06
3.74583e-06
3.71659e-06
3.68663e-06
3.65829e-06
3.63265e-06
3.57507e-06
1.69002e-06
1.77713e-06
1.8805e-06
1.98932e-06
2.1011e-06
2.2148e-06
2.32855e-06
2.44097e-06
2.55125e-06
2.65847e-06
2.76101e-06
2.85636e-06
2.9416e-06
3.01428e-06
3.07414e-06
3.12378e-06
3.16589e-06
3.2013e-06
3.23007e-06
3.25189e-06
3.26626e-06
3.27438e-06
3.2796e-06
3.28002e-06
3.27596e-06
3.26856e-06
3.25853e-06
3.24623e-06
3.23196e-06
3.21608e-06
3.19891e-06
3.18068e-06
3.16162e-06
3.14188e-06
3.12174e-06
3.10099e-06
3.08056e-06
3.05814e-06
3.04105e-06
3.00693e-06
3.01173e-06
1.41077e-06
1.4936e-06
1.58796e-06
1.68533e-06
1.78419e-06
1.88456e-06
1.985e-06
2.08354e-06
2.17865e-06
2.26976e-06
2.35761e-06
2.44402e-06
2.53084e-06
2.61884e-06
2.70546e-06
2.78374e-06
2.84903e-06
2.90231e-06
2.9453e-06
2.97972e-06
3.0054e-06
3.02197e-06
3.03407e-06
3.04037e-06
3.04156e-06
3.03881e-06
3.03291e-06
3.02434e-06
3.01359e-06
3.00116e-06
2.98753e-06
2.97311e-06
2.9582e-06
2.94309e-06
2.92824e-06
2.91389e-06
2.89991e-06
2.88662e-06
2.87306e-06
2.87065e-06
2.81405e-06
1.1777e-06
1.25821e-06
1.3436e-06
1.42669e-06
1.50801e-06
1.5905e-06
1.67551e-06
1.76276e-06
1.85026e-06
1.9342e-06
2.00947e-06
2.07117e-06
2.1166e-06
2.14628e-06
2.16595e-06
2.18744e-06
2.2159e-06
2.24652e-06
2.27577e-06
2.30144e-06
2.32311e-06
2.34159e-06
2.3578e-06
2.37051e-06
2.37982e-06
2.38645e-06
2.39083e-06
2.39318e-06
2.39369e-06
2.39258e-06
2.39003e-06
2.38617e-06
2.38116e-06
2.37503e-06
2.36793e-06
2.35957e-06
2.3511e-06
2.33931e-06
2.33451e-06
2.2991e-06
2.35129e-06
9.81372e-07
1.06873e-06
1.15542e-06
1.2322e-06
1.29895e-06
1.35986e-06
1.41882e-06
1.4794e-06
1.54525e-06
1.61988e-06
1.70605e-06
1.80493e-06
1.91483e-06
2.03152e-06
2.14546e-06
2.23733e-06
2.30122e-06
2.34936e-06
2.38702e-06
2.41668e-06
2.43794e-06
2.45135e-06
2.46028e-06
2.46433e-06
2.46437e-06
2.46143e-06
2.45621e-06
2.44926e-06
2.44113e-06
2.43234e-06
2.42338e-06
2.41472e-06
2.40664e-06
2.3995e-06
2.39372e-06
2.38985e-06
2.38711e-06
2.38773e-06
2.38476e-06
2.41053e-06
2.33187e-06
8.38982e-07
9.24581e-07
1.00869e-06
1.0861e-06
1.1549e-06
1.21491e-06
1.26502e-06
1.30417e-06
1.33249e-06
1.35136e-06
1.36316e-06
1.37057e-06
1.37643e-06
1.38131e-06
1.38781e-06
1.41212e-06
1.455e-06
1.50262e-06
1.55043e-06
1.59557e-06
1.63739e-06
1.67597e-06
1.71176e-06
1.7444e-06
1.77363e-06
1.79972e-06
1.82285e-06
1.84311e-06
1.8605e-06
1.87503e-06
1.88673e-06
1.89554e-06
1.90149e-06
1.9044e-06
1.90435e-06
1.90089e-06
1.89526e-06
1.88334e-06
1.87806e-06
1.82806e-06
1.90752e-06
9.10244e-07
1.02282e-06
1.08316e-06
1.0946e-06
1.07925e-06
1.06775e-06
1.08702e-06
1.14956e-06
1.25047e-06
1.37453e-06
1.50514e-06
1.62934e-06
1.73876e-06
1.8308e-06
1.90305e-06
1.9391e-06
1.94243e-06
1.93075e-06
1.91241e-06
1.8907e-06
1.86432e-06
1.84048e-06
1.81444e-06
1.78781e-06
1.76149e-06
1.7357e-06
1.71056e-06
1.68621e-06
1.66276e-06
1.64025e-06
1.61863e-06
1.59787e-06
1.57773e-06
1.55804e-06
1.53881e-06
1.52037e-06
1.50107e-06
1.48359e-06
1.4588e-06
1.46354e-06
1.3589e-06
8.20187
9.34267
8.47399
6.97482
5.23501
3.57958
2.17119
1.07549
0.35278
0.0638468
0.0253812
0.00452583
6.32947e-06
0.000125423
0.000351227
0.000290378
0.000238736
0.000210426
0.000185405
0.000162062
0.000141561
0.000123225
0.000106947
9.25455e-05
7.9812e-05
6.86239e-05
5.87165e-05
5.00895e-05
4.25275e-05
3.59805e-05
3.02974e-05
2.54432e-05
2.1287e-05
1.77668e-05
1.47903e-05
1.22804e-05
1.01714e-05
8.40355e-06
6.91988e-06
5.6847e-06
4.65264e-06
3.78925e-06
3.07267e-06
2.47619e-06
1.97828e-06
1.56867e-06
1.22747e-06
9.47608e-07
7.27134e-07
5.60022e-07
4.40899e-07
3.82537e-07
3.69365e-07
3.90552e-07
4.27364e-07
4.62503e-07
5.01431e-07
5.32328e-07
5.59692e-07
5.80208e-07
5.96174e-07
6.06659e-07
6.13024e-07
6.15088e-07
6.14735e-07
6.09238e-07
6.05131e-07
5.92907e-07
5.88361e-07
5.63857e-07
5.74983e-07
5.21632e-07
5.89765e-07
5.13022e-07
7.92137
12.6505
12.2477
10.3331
8.08196
5.89884
3.96785
2.36359
1.14179
0.358078
0.064505
0.0181522
0.00363108
8.94594e-06
7.06694e-05
0.000302827
0.000258551
0.000210454
0.000185682
0.0001631
0.000142107
0.000123525
0.000107124
9.26275e-05
7.9818e-05
6.86022e-05
5.86759e-05
5.00314e-05
4.24675e-05
3.592e-05
3.02361e-05
2.53749e-05
2.12178e-05
1.76926e-05
1.47159e-05
1.22065e-05
1.00977e-05
8.33181e-06
6.84879e-06
5.61601e-06
4.58903e-06
3.72656e-06
3.01497e-06
2.42313e-06
1.92941e-06
1.52735e-06
1.19025e-06
9.17273e-07
7.05067e-07
5.46913e-07
4.36603e-07
3.8736e-07
3.7932e-07
4.0201e-07
4.37545e-07
4.70668e-07
5.06737e-07
5.35006e-07
5.59969e-07
5.78228e-07
5.92145e-07
6.01072e-07
6.06016e-07
6.0676e-07
6.05637e-07
5.99152e-07
5.94758e-07
5.8201e-07
5.77823e-07
5.5189e-07
5.65714e-07
5.0815e-07
5.82775e-07
5.03233e-07
5.47397
12.3357
14.3137
13.1776
10.9659
8.53592
6.22482
4.17248
2.46308
1.16912
0.357082
0.0645044
0.0151306
0.00321581
4.90907e-06
3.2828e-05
0.000265781
0.000239935
0.000187603
0.000162669
0.00014307
0.000124241
0.000107464
9.28337e-05
7.9935e-05
6.86244e-05
5.86877e-05
5.00007e-05
4.24243e-05
3.5861e-05
3.01828e-05
2.53095e-05
2.11518e-05
1.76192e-05
1.464e-05
1.21299e-05
1.0021e-05
8.25589e-06
6.7754e-06
5.54271e-06
4.52096e-06
3.6617e-06
2.95445e-06
2.3679e-06
1.88026e-06
1.48497e-06
1.15342e-06
8.90967e-07
6.87809e-07
5.38104e-07
4.39887e-07
3.98245e-07
3.94489e-07
4.1662e-07
4.49125e-07
4.81182e-07
5.12693e-07
5.38212e-07
5.60115e-07
5.75932e-07
5.878e-07
5.94591e-07
5.98137e-07
5.97775e-07
5.95481e-07
5.88753e-07
5.83079e-07
5.70246e-07
5.66455e-07
5.39447e-07
5.55425e-07
4.942e-07
5.74814e-07
4.92963e-07
3.82006
10.605
14.5365
14.9386
13.4406
11.196
8.77182
6.4304
4.31828
2.5445
1.20263
0.369065
0.0667816
0.0134848
0.00334227
1.99701e-06
1.76707e-06
0.000193557
0.000218407
0.000168805
0.000142378
0.000125013
0.000108399
9.32971e-05
8.02089e-05
6.88308e-05
5.88494e-05
5.00962e-05
4.24804e-05
3.58842e-05
3.019e-05
2.52943e-05
2.11228e-05
1.75769e-05
1.45879e-05
1.20724e-05
9.95954e-06
8.19226e-06
6.71213e-06
5.4796e-06
4.45979e-06
3.60381e-06
2.90049e-06
2.31839e-06
1.83683e-06
1.44716e-06
1.12222e-06
8.69035e-07
6.74255e-07
5.32585e-07
4.44793e-07
4.08894e-07
4.07852e-07
4.28771e-07
4.58225e-07
4.88708e-07
5.16223e-07
5.39217e-07
5.58224e-07
5.71951e-07
5.81818e-07
5.87024e-07
5.8927e-07
5.87959e-07
5.84802e-07
5.77768e-07
5.71444e-07
5.58391e-07
5.55183e-07
5.27168e-07
5.45485e-07
4.80532e-07
5.67273e-07
4.83048e-07
2.92498
8.67645
13.4407
15.3779
15.0581
13.4711
11.3038
8.94139
6.61102
4.47132
2.65419
1.2705
0.406418
0.0749841
0.0139339
0.00418759
9.7368e-08
3.19289e-11
0.000147473
0.000195751
0.00015342
0.000123966
0.000108188
9.42642e-05
8.08855e-05
6.91464e-05
5.9073e-05
5.02952e-05
4.26363e-05
3.59867e-05
3.02527e-05
2.53263e-05
2.11309e-05
1.75657e-05
1.45606e-05
1.20345e-05
9.91444e-06
8.14259e-06
6.66023e-06
5.42753e-06
4.40788e-06
3.55417e-06
2.85421e-06
2.27605e-06
1.79986e-06
1.41543e-06
1.09742e-06
8.516e-07
6.64426e-07
5.30449e-07
4.50561e-07
4.18708e-07
4.18919e-07
4.38189e-07
4.64789e-07
4.92924e-07
5.17121e-07
5.37778e-07
5.54176e-07
5.66138e-07
5.74095e-07
5.78245e-07
5.79365e-07
5.77206e-07
5.73575e-07
5.66079e-07
5.598e-07
5.46456e-07
5.43974e-07
5.14987e-07
5.35876e-07
4.67188e-07
5.60091e-07
4.736e-07
2.47787
6.98886
11.6804
14.6501
15.5761
14.9748
13.4364
11.3873
9.11358
6.81987
4.67378
2.8239
1.39483
0.479953
0.0952431
0.0173352
0.0055414
0.000147016
1.00551e-05
7.01882e-05
0.000166681
0.000144838
0.000110056
9.2613e-05
8.11146e-05
6.99704e-05
5.95481e-05
5.05191e-05
4.28145e-05
3.61546e-05
3.03821e-05
2.54083e-05
2.11732e-05
1.75811e-05
1.45562e-05
1.20156e-05
9.88523e-06
8.10637e-06
6.62007e-06
5.38567e-06
4.36546e-06
3.51316e-06
2.81584e-06
2.24121e-06
1.76984e-06
1.39066e-06
1.07925e-06
8.40224e-07
6.59963e-07
5.33339e-07
4.59225e-07
4.30025e-07
4.30116e-07
4.47137e-07
4.70796e-07
4.95841e-07
5.17011e-07
5.35233e-07
5.49268e-07
5.59467e-07
5.65792e-07
5.68838e-07
5.6902e-07
5.66138e-07
5.62132e-07
5.5429e-07
5.48167e-07
5.34614e-07
5.32874e-07
5.03017e-07
5.2643e-07
4.54247e-07
5.53021e-07
4.64627e-07
2.32195
5.62286
9.75218
13.1294
15.0246
15.4728
14.8108
13.3867
11.4831
9.32145
7.08791
4.95425
3.079
1.59529
0.605115
0.138606
0.0232439
0.00193027
0.000358961
3.93799e-06
4.69031e-06
0.000105015
0.000133712
0.000103165
8.04084e-05
6.88514e-05
6.00424e-05
5.13048e-05
4.32533e-05
3.63584e-05
3.05256e-05
2.55365e-05
2.12693e-05
1.76368e-05
1.45783e-05
1.20157e-05
9.87224e-06
8.08455e-06
6.59283e-06
5.35477e-06
4.33267e-06
3.48095e-06
2.78561e-06
2.21393e-06
1.74694e-06
1.37272e-06
1.06746e-06
8.34984e-07
6.61103e-07
5.40897e-07
4.71045e-07
4.4316e-07
4.42103e-07
4.56282e-07
4.76764e-07
4.98429e-07
5.16658e-07
5.32349e-07
5.44172e-07
5.52568e-07
5.57487e-07
5.59332e-07
5.58687e-07
5.55208e-07
5.50815e-07
5.428e-07
5.36746e-07
5.2308e-07
5.22061e-07
4.91457e-07
5.17195e-07
4.41825e-07
5.46079e-07
4.56105e-07
2.32174
4.54637
7.93084
11.2139
13.6429
14.9506
15.2048
14.595
13.3292
11.5983
9.57564
7.43016
5.33089
3.43873
1.89306
0.803987
0.223521
0.0415068
0.00261271
0.00176507
2.23311e-07
6.73146e-06
3.79315e-05
0.000101756
9.86062e-05
7.38593e-05
5.84162e-05
5.01605e-05
4.35643e-05
3.70089e-05
3.09297e-05
2.5718e-05
2.13694e-05
1.77168e-05
1.46382e-05
1.20484e-05
9.88082e-06
8.07724e-06
6.57749e-06
5.33501e-06
4.31002e-06
3.45804e-06
2.76364e-06
2.19403e-06
1.73096e-06
1.36114e-06
1.06169e-06
8.35058e-07
6.67051e-07
5.51857e-07
4.85107e-07
4.57297e-07
4.54416e-07
4.65283e-07
4.82364e-07
5.00669e-07
5.15976e-07
5.29186e-07
5.3887e-07
5.4555e-07
5.4912e-07
5.49859e-07
5.48456e-07
5.44483e-07
5.39755e-07
5.3163e-07
5.25647e-07
5.11929e-07
5.11617e-07
4.80399e-07
5.08249e-07
4.29976e-07
5.39322e-07
4.47984e-07
2.35541
3.70571
6.31346
9.20335
11.7495
13.585
14.5946
14.8074
14.3187
13.2468
11.7182
9.86835
7.84567
5.80912
3.91681
2.30974
1.10502
0.380657
0.0822942
0.00981338
0.00493849
0.000131241
1.71113e-06
6.72715e-06
4.42143e-05
8.30227e-05
7.49537e-05
5.48485e-05
4.25716e-05
3.60294e-05
3.10451e-05
2.62204e-05
2.17286e-05
1.78712e-05
1.46933e-05
1.20798e-05
9.907e-06
8.09316e-06
6.5804e-06
5.32751e-06
4.29653e-06
3.44359e-06
2.74985e-06
2.18181e-06
1.72199e-06
1.35577e-06
1.06168e-06
8.4007e-07
6.77171e-07
5.65722e-07
5.00864e-07
4.72103e-07
4.66765e-07
4.74024e-07
4.87511e-07
5.02495e-07
5.14889e-07
5.25686e-07
5.33293e-07
5.38368e-07
5.40628e-07
5.40408e-07
5.38308e-07
5.33902e-07
5.28929e-07
5.20716e-07
5.14865e-07
5.01147e-07
5.01512e-07
4.69823e-07
4.99569e-07
4.1871e-07
5.32737e-07
4.40203e-07
2.27623
3.00057
4.88407
7.25265
9.62287
11.6449
13.1333
14.0113
14.2721
13.9495
13.1021