/*--------------------------------*- C++ -*----------------------------------*\
| =========                 |                                                 |
| \\      /  F ield         | OpenFOAM: The Open Source CFD Toolbox           |
|  \\    /   O peration     | Version:  2312                                  |
|   \\  /    A nd           | Website:  www.openfoam.com                      |
|    \\/     M anipulation  |                                                 |
\*---------------------------------------------------------------------------*/
FoamFile
{
    version     2.0;
    format      ascii;
    arch        "LSB;label=32;scalar=64";
    class       volVectorField;
    location    "800";
    object      momentError;
}
// * * * * * * * * * * * * * * * * * * * * * * * * * * * * * * * * * * * * * //

dimensions      [0 1 -2 0 0 0 0];

internalField   nonuniform List<vector> 
11040
(
(0.0412441 0.0911383 -6.5441e-16)
(-0.0719765 1.18351 -3.04255e-16)
(0.17468 0.594883 4.74175e-15)
(0.0172172 -0.0599786 6.69187e-16)
(0.00353312 0.0201319 3.79669e-15)
(-0.0020614 -0.00520497 -2.5017e-15)
(0.00128493 -0.00200849 -5.96582e-15)
(0.00142336 -0.00245862 -1.11868e-15)
(0.00240013 -0.0025033 -3.99163e-16)
(0.0045495 -0.00227044 2.13777e-15)
(0.00666684 -0.00169164 1.03756e-15)
(0.00839499 -0.00151428 -5.7621e-16)
(0.0105103 -0.00138506 -9.71985e-16)
(0.0127431 -0.000980835 6.89881e-16)
(0.0147888 -0.000794338 -4.04244e-16)
(0.0165467 -0.000661778 -9.92785e-16)
(0.0173364 -0.000716845 7.58051e-16)
(0.0192496 -0.000850823 7.00791e-16)
(0.021159 -0.00098984 -2.57219e-16)
(0.0224454 -0.0012574 -5.48721e-17)
(0.0238075 -0.00153589 5.83768e-16)
(0.0258597 -0.00182797 -3.15383e-16)
(0.0271533 -0.00203037 2.62851e-16)
(0.0276798 -0.0022131 1.32298e-16)
(0.0271785 -0.00235336 -1.34967e-15)
(0.0257789 -0.0022748 -1.01675e-15)
(0.0239958 -0.00242551 -4.85202e-16)
(0.0212121 -0.00222156 -3.47315e-16)
(0.0188904 -0.00124795 -1.13697e-15)
(0.0166439 0.00266943 4.94049e-16)
(0.0169841 -0.000700775 1.13342e-15)
(0.00597235 0.00251019 2.4204e-15)
(0.0388928 0.0676249 2.9795e-15)
(0.156158 0.301489 -2.56243e-16)
(0.220763 0.341079 1.7676e-15)
(0.0123303 -0.141355 6.4938e-16)
(-0.125962 -0.337997 1.25067e-15)
(-0.040831 -0.0377321 -1.71226e-16)
(-0.0135785 0.001557 -1.13975e-15)
(-0.02732 -0.00190807 -1.29379e-15)
(-0.209591 0.0573331 -1.31408e-15)
(0.220744 -0.78036 7.99784e-16)
(0.427937 0.0390521 2.90064e-15)
(0.557651 0.896724 6.22788e-15)
(0.262678 0.442636 -1.14249e-15)
(0.0569255 -0.0119374 -4.20382e-16)
(0.00617089 0.00199589 -4.65046e-17)
(0.00746584 0.00197752 1.77221e-15)
(0.0127963 0.00630352 9.13241e-16)
(0.0114841 0.00417992 -1.63846e-16)
(0.0135031 0.00277111 -7.94411e-16)
(0.0159398 0.00268072 1.73124e-15)
(0.0177884 0.00274042 1.21743e-15)
(0.0203088 0.00188596 1.33197e-15)
(0.0233659 0.0017702 -3.74096e-17)
(0.0257114 0.00145591 -2.32658e-16)
(0.0281914 0.0010743 4.27674e-16)
(0.0314557 0.000688905 3.87702e-16)
(0.0333921 0.000119292 3.74648e-16)
(0.0351995 -0.000372184 -1.92312e-17)
(0.036771 -0.00104697 -8.6873e-17)
(0.03781 -0.00167325 -2.2956e-16)
(0.0401326 -0.00218168 3.65365e-16)
(0.0413366 -0.00248617 2.34798e-16)
(0.0416604 -0.00275642 3.2092e-16)
(0.0410422 -0.00292107 -3.67891e-16)
(0.0397561 -0.00291496 -6.66866e-16)
(0.0373827 -0.00280032 7.06477e-16)
(0.033996 -0.00253638 5.34626e-16)
(0.0295892 -0.00187856 -6.8393e-16)
(0.0251184 -0.000747394 -9.90105e-16)
(0.0153507 3.9523e-05 -9.60886e-16)
(0.0133682 -0.00347314 -1.88077e-15)
(-0.00212223 -0.00348651 -1.01614e-16)
(-0.0302607 0.00375449 1.10962e-15)
(-0.0992857 -0.0142179 -7.66138e-16)
(-0.103299 -0.0555826 1.93697e-16)
(-0.0238021 -0.00458099 -1.15402e-16)
(-0.0334137 0.0106347 8.42806e-16)
(-0.0430027 0.0161453 -6.34598e-16)
(-0.0770195 0.0255957 -4.97573e-16)
(-0.231723 0.079474 1.17597e-16)
(0.0685917 -0.122043 1.50625e-16)
(0.163515 -0.643412 -1.33426e-15)
(0.37594 -0.236998 -7.63709e-15)
(0.593313 0.840545 2.81967e-15)
(0.408312 0.550752 1.05088e-15)
(0.0942195 0.0475935 4.59847e-16)
(0.0153378 -0.00598817 1.6533e-15)
(0.0199679 0.00281737 3.83033e-16)
(0.0224379 0.00668696 -4.55835e-16)
(0.0232566 0.00465319 -9.13817e-17)
(0.0243883 0.00276616 -1.36653e-15)
(0.0254732 0.00314722 5.64076e-16)
(0.0276808 0.00170924 -3.51166e-17)
(0.030862 0.00149666 2.9932e-16)
(0.033396 0.00120887 7.56111e-16)
(0.0360894 0.000781744 -1.84236e-17)
(0.0384511 0.000463079 -2.86514e-16)
(0.0404677 -4.44573e-05 -6.01695e-17)
(0.0423076 -0.00047382 8.12522e-18)
(0.043785 -0.00113462 1.4711e-16)
(0.0449261 -0.00173887 2.68379e-16)
(0.0475295 -0.00227434 -9.50952e-17)
(0.0491851 -0.00257006 1.2527e-16)
(0.0502143 -0.00286055 -2.94695e-16)
(0.0504502 -0.00307854 1.88125e-16)
(0.0499709 -0.00315264 5.63384e-16)
(0.0487554 -0.00317817 -2.88521e-16)
(0.0469006 -0.00306049 -3.60924e-16)
(0.044679 -0.00290705 1.84175e-16)
(0.0422772 -0.002468 7.12658e-16)
(0.0405853 -0.00183448 -3.18531e-16)
(0.0402027 -0.00234376 -2.51134e-16)
(0.040486 -0.00501038 1.10714e-17)
(0.0390322 -0.00982951 1.38944e-16)
(0.0327028 -0.0169345 -5.85927e-16)
(0.022701 -0.0126556 -1.48848e-15)
(0.0133142 0.0124903 6.83175e-17)
(-0.004551 0.0152912 5.30548e-16)
(-0.0253021 0.0251907 7.90279e-17)
(-0.0705243 0.0394241 8.23626e-16)
(-0.210678 0.0820774 1.2886e-16)
(0.116006 -0.140254 -2.68678e-16)
(0.115116 -0.302541 2.38302e-17)
(0.0391566 -0.615435 1.74137e-15)
(0.231682 -0.117016 -8.00176e-16)
(0.576152 0.670141 -1.5756e-15)
(0.485754 0.553704 2.56291e-15)
(0.164645 0.118886 9.50741e-16)
(0.0241913 -0.0020497 3.94404e-16)
(0.0301589 0.0052602 -2.67877e-16)
(0.0274818 0.00323618 5.08125e-16)
(0.0314655 0.0041346 7.87424e-16)
(0.0312542 0.00392733 -8.98979e-16)
(0.0317459 0.00127702 7.71417e-16)
(0.0344356 0.00069498 4.20877e-16)
(0.0367778 0.00047964 1.12819e-16)
(0.0391867 -6.77881e-05 -4.04742e-16)
(0.0414574 -0.000264501 -3.79236e-16)
(0.0434316 -0.000742958 -2.11781e-16)
(0.0452062 -0.00104401 4.0347e-17)
(0.0467151 -0.00160201 -5.34602e-17)
(0.047973 -0.00203298 -3.59463e-17)
(0.0507969 -0.00244542 -8.46755e-17)
(0.0528904 -0.00261675 -1.81156e-16)
(0.0545628 -0.00280063 -4.97676e-18)
(0.0556112 -0.00295477 -7.75321e-16)
(0.0559913 -0.00296691 -3.23154e-16)
(0.0556952 -0.00299794 3.99088e-16)
(0.0548234 -0.00292822 2.67139e-16)
(0.0535422 -0.00293439 6.33099e-16)
(0.0520491 -0.00273163 -3.86918e-16)
(0.0515686 -0.00208612 5.04559e-16)
(0.0534069 -0.00150584 -5.56407e-16)
(0.0558456 -0.00236159 -4.60076e-16)
(0.0559691 -0.00527262 4.37904e-16)
(0.0524882 -0.00719248 -1.23512e-16)
(0.0472971 -0.00162503 -8.54829e-17)
(0.0392801 0.00971679 -5.44987e-16)
(0.0250709 0.0179582 4.53563e-16)
(0.00304118 0.0338629 -2.15793e-16)
(-0.0418474 0.0527228 -9.18253e-17)
(-0.142312 0.0945076 7.03734e-16)
(0.0914245 -0.156882 2.17688e-16)
(0.109877 -0.146934 -1.4008e-16)
(0.0520309 -0.329732 -1.36437e-16)
(-0.00224847 -0.546504 8.67881e-16)
(0.171824 -0.176627 1.95745e-16)
(0.487046 0.445855 -4.47959e-16)
(0.525011 0.533003 -5.94676e-16)
(0.259862 0.231964 -1.33179e-15)
(0.0487648 -0.00204995 2.71249e-16)
(0.0321893 0.000297057 -9.41649e-17)
(0.032414 0.00247788 4.36359e-16)
(0.0350806 0.00446662 1.97353e-16)
(0.0349081 0.00152999 -3.76326e-16)
(0.0362483 -0.000200278 -6.16342e-16)
(0.0374967 -0.000422822 2.02402e-16)
(0.0392635 -0.0011568 4.99104e-18)
(0.0412183 -0.00117591 -1.66053e-16)
(0.0430303 -0.00156931 -2.40459e-16)
(0.0447374 -0.00169031 -4.56682e-17)
(0.046314 -0.00210328 4.846e-17)
(0.0477379 -0.00234326 1.34243e-16)
(0.0507068 -0.00260021 -2.62088e-16)
(0.0530896 -0.00261171 -5.55083e-17)
(0.0551513 -0.00263076 4.21962e-16)
(0.0567049 -0.00263406 2.46903e-16)
(0.0576794 -0.00252341 -2.54107e-16)
(0.0580593 -0.00246452 2.49279e-16)
(0.0579121 -0.00236489 1.9251e-16)
(0.0573934 -0.00239704 -3.67658e-16)
(0.0567269 -0.00235614 2.23511e-16)
(0.0571437 -0.00203802 -3.46519e-17)
(0.0602365 -0.00176078 7.5661e-16)
(0.0640003 -0.00263953 1.79306e-16)
(0.0660312 -0.00501647 -6.15686e-17)
(0.0659273 -0.00534122 1.40888e-16)
(0.0652424 0.000708079 2.96198e-16)
(0.0614183 0.0100783 -1.25044e-16)
(0.0531956 0.0214314 2.0777e-16)
(0.036315 0.040096 7.65207e-17)
(0.00141533 0.0626735 -2.27267e-16)
(-0.0533605 0.100681 -2.09131e-16)
(0.0852421 -0.136897 -3.91716e-17)
(0.0735982 -0.134004 2.79092e-17)
(0.0623455 -0.146362 6.89733e-17)
(0.0290982 -0.330832 2.43837e-16)
(-0.0238993 -0.485047 -9.10977e-16)
(0.0911954 -0.249731 1.1627e-16)
(0.360513 0.235199 -5.53689e-16)
(0.506252 0.472699 -8.81229e-16)
(0.342095 0.294139 1.61796e-16)
(0.117465 0.0616802 -3.09099e-16)
(0.0274715 -0.01246 1.98597e-17)
(0.0362597 0.00196136 7.15193e-18)
(0.0350084 0.000402138 -2.27045e-17)
(0.0372578 -0.000427014 -3.28502e-16)
(0.0378363 -0.000811176 1.36927e-17)
(0.0383604 -0.00224159 -1.83587e-16)
(0.0396126 -0.00213063 -1.08828e-16)
(0.0409896 -0.00249899 -8.56258e-17)
(0.042472 -0.00243479 -3.94149e-17)
(0.044007 -0.00268469 5.67384e-17)
(0.0455332 -0.00271885 5.10871e-17)
(0.0485437 -0.00280765 3.17733e-17)
(0.0510807 -0.00263191 -3.67431e-18)
(0.0533649 -0.00245265 -1.76594e-16)
(0.0552333 -0.00224952 1.2678e-16)
(0.0565863 -0.00196235 4.85437e-16)
(0.0573901 -0.00174931 -4.06913e-16)
(0.0576897 -0.00157081 -4.63939e-16)
(0.0576293 -0.00157366 -1.67253e-16)
(0.0574579 -0.00163824 1.819e-16)
(0.058221 -0.00166695 3.56175e-16)
(0.0619088 -0.00194439 -1.17127e-16)
(0.066455 -0.0031467 -2.44362e-16)
(0.0702458 -0.00509396 -3.68505e-16)
(0.0734685 -0.00466016 -1.44243e-16)
(0.0769875 0.00110944 5.82919e-16)
(0.0782845 0.0101563 2.88207e-16)
(0.0778829 0.0236208 -4.16958e-17)
(0.0713747 0.0429742 4.34115e-16)
(0.0526075 0.0662981 -2.87725e-16)
(0.0399946 0.0932068 -1.905e-16)
(0.0685039 -0.117695 6.79045e-17)
(0.0593998 -0.121924 -3.51422e-17)
(0.040139 -0.110911 -9.48328e-17)
(0.0415452 -0.150866 -4.07584e-16)
(0.00699691 -0.286633 -3.47235e-16)
(-0.0440915 -0.412996 3.05128e-16)
(0.00717281 -0.30137 3.81272e-16)
(0.215415 0.0316693 -1.14683e-16)
(0.408288 0.299401 8.26982e-16)
(0.395382 0.321503 -4.59084e-16)
(0.204299 0.132801 2.45023e-16)
(0.0530666 0.000252664 -6.41801e-17)
(0.0367325 -0.000895702 5.9677e-16)
(0.0360047 -0.00122792 -6.53449e-16)
(0.036412 -0.00164112 1.34129e-16)
(0.0373167 -0.00256736 -1.64668e-16)
(0.0380376 -0.00267025 -8.20073e-18)
(0.0385833 -0.0033797 8.49894e-17)
(0.0396882 -0.00317455 -1.93616e-18)
(0.04102 -0.00331173 -1.90279e-16)
(0.0425291 -0.00316945 1.87108e-16)
(0.045486 -0.0031161 -1.47004e-16)
(0.0480622 -0.00274289 -1.24895e-16)
(0.0504274 -0.0023484 2.0165e-16)
(0.0524522 -0.0018988 -1.36359e-16)
(0.0540003 -0.0013822 -1.48094e-16)
(0.0550168 -0.000954688 -1.09458e-16)
(0.0555276 -0.000636645 -8.63229e-17)
(0.05565 -0.000564316 -5.99223e-18)
(0.055661 -0.000704634 1.76572e-16)
(0.0562283 -0.00106814 6.70523e-17)
(0.0599209 -0.00191334 1.63797e-16)
(0.0647348 -0.00351266 -2.22366e-16)
(0.0698438 -0.00528148 -3.81226e-16)
(0.0759076 -0.0047247 -1.94128e-16)
(0.0833779 0.000124793 4.30617e-16)
(0.0904252 0.00852942 1.39047e-17)
(0.0987091 0.022553 -9.29762e-18)
(0.105354 0.0408146 1.78058e-16)
(0.107263 0.0650341 2.49387e-16)
(0.126453 0.0711961 -1.78818e-16)
(0.0536953 -0.100844 -2.25752e-17)
(0.0467435 -0.103727 6.99797e-17)
(0.0303754 -0.093128 -2.07506e-17)
(0.0260344 -0.108137 9.78729e-18)
(0.0237889 -0.140056 1.33618e-16)
(-0.0051711 -0.232749 6.10571e-16)
(-0.0531768 -0.342416 -4.92402e-16)
(-0.0380741 -0.334733 -8.15167e-16)
(0.107943 -0.0703257 1.54484e-16)
(0.271138 0.166497 4.44182e-16)
(0.369763 0.260408 1.46731e-15)
(0.275684 0.192871 -1.63974e-15)
(0.121801 0.0559628 6.704e-16)
(0.0379039 -0.00679138 -1.49972e-16)
(0.035581 -0.00187119 -3.97348e-16)
(0.0345357 -0.00269665 4.6094e-16)
(0.035274 -0.00325326 3.03299e-17)
(0.0360092 -0.00372903 3.70622e-16)
(0.036926 -0.00362328 -2.23221e-16)
(0.03782 -0.00391927 -2.09864e-16)
(0.0392465 -0.00367441 2.70635e-16)
(0.0422081 -0.00353832 -7.83478e-17)
(0.0448706 -0.00297448 -1.82731e-16)
(0.0472907 -0.00235146 5.70737e-17)
(0.0493809 -0.00163404 7.64834e-17)
(0.0509875 -0.000850026 -6.11952e-17)
(0.0520635 -0.00015111 -1.04226e-16)
(0.0526199 0.000375523 2.36168e-16)
(0.0527437 0.000573503 2.66925e-16)
(0.0527105 0.000380435 -1.49635e-16)
(0.0529472 -0.000293309 -2.29391e-16)
(0.0559048 -0.00168126 -8.75198e-17)
(0.0605379 -0.00380052 1.72724e-16)
(0.06643 -0.00586179 1.04145e-16)
(0.0746473 -0.00596241 -3.99929e-17)
(0.0856568 -0.00274765 -1.22499e-16)
(0.0986576 0.00407223 2.71224e-16)
(0.115734 0.0165177 -2.7222e-16)
(0.136386 0.031347 5.4287e-17)
(0.15973 0.0488211 6.37404e-17)
(0.207325 0.0441182 1.83391e-16)
(0.04085 -0.084547 -4.57742e-17)
(0.035256 -0.0881973 1.25341e-17)
(0.0237728 -0.0774235 -1.36804e-17)
(0.0174107 -0.0863327 -1.67294e-16)
(0.0141283 -0.101757 6.10111e-17)
(0.00989312 -0.123657 -6.06272e-18)
(-0.0126465 -0.1837 -1.31365e-16)
(-0.0575554 -0.264843 5.01726e-16)
(-0.0847931 -0.293236 -2.2865e-16)
(-0.00768462 -0.195433 6.58595e-16)
(0.132775 0.0139883 4.59981e-17)
(0.287289 0.199085 -2.96795e-16)
(0.279534 0.173546 8.97742e-17)
(0.19169 0.113279 -2.97259e-16)
(0.0802805 0.0236412 -4.24654e-16)
(0.0331153 -0.00637496 4.23744e-17)
(0.0327069 -0.00299679 1.85599e-16)
(0.0321786 -0.00361593 3.04442e-16)
(0.0330092 -0.00410674 -3.80265e-17)
(0.0339913 -0.00428737 -2.54167e-16)
(0.0355738 -0.00403701 2.40961e-16)
(0.0385666 -0.00399639 1.26062e-17)
(0.0414752 -0.00332028 -4.37335e-17)
(0.044164 -0.00249316 1.04317e-16)
(0.0465244 -0.00150371 1.40603e-16)
(0.0483274 -0.0003899 1.80088e-16)
(0.0494861 0.000650582 3.25573e-17)
(0.0500263 0.0014597 1.57654e-17)
(0.0500564 0.00183345 -1.14211e-16)
(0.0498421 0.0016439 6.03267e-18)
(0.0497487 0.000703298 -1.34888e-16)
(0.0514419 -0.00119133 4.12145e-17)
(0.0554917 -0.0040395 -6.5365e-17)
(0.0615362 -0.00700235 -8.37048e-17)
(0.0710118 -0.00871132 5.74054e-17)
(0.0847674 -0.00811417 8.58339e-17)
(0.103112 -0.00440953 3.14451e-17)
(0.128273 0.00383744 1.62266e-17)
(0.16173 0.0128395 -9.01568e-17)
(0.203849 0.0198983 1.64012e-16)
(0.271766 0.00656676 2.88893e-17)
(0.0301596 -0.0698454 1.52107e-16)
(0.0256155 -0.0737046 -4.46665e-17)
(0.017131 -0.066246 -1.44078e-16)
(0.0127023 -0.0680176 1.67255e-16)
(0.00776165 -0.080509 7.41435e-18)
(0.00416935 -0.0928547 2.13492e-17)
(-0.000616691 -0.107123 4.56246e-16)
(-0.0174296 -0.142951 -8.83787e-16)
(-0.0519575 -0.202383 -2.05553e-16)
(-0.0879994 -0.247649 1.54448e-15)
(-0.0673994 -0.179495 3.71014e-17)
(-0.00485102 -0.123772 -1.24852e-16)
(0.148829 0.0366361 -6.80137e-16)
(0.215558 0.124651 4.57081e-16)
(0.209877 0.112921 -1.08384e-15)
(0.133952 0.0620259 2.35869e-16)
(0.0598412 0.0104432 -4.67212e-17)
(0.0299894 -0.00551608 2.67395e-16)
(0.0292965 -0.00346826 -1.13051e-16)
(0.0293097 -0.00402642 -2.94001e-16)
(0.0307051 -0.00449465 1.86694e-16)
(0.03382 -0.00457361 -6.144e-17)
(0.0372282 -0.00375404 -8.38373e-17)
(0.0404239 -0.00275765 1.17854e-16)
(0.0433913 -0.00151633 1.09623e-16)
(0.0458298 -6.61943e-05 -1.01239e-16)
(0.0475082 0.00137232 5.69379e-17)
(0.0483808 0.00256502 1.12572e-16)
(0.0485336 0.00324686 4.59897e-17)
(0.0481977 0.00316962 -6.31215e-17)
(0.0477586 0.00205719 5.48063e-17)
(0.0480497 -0.00033541 7.10257e-17)
(0.0511401 -0.00410955 6.83631e-17)
(0.0566068 -0.00863611 6.50688e-17)
(0.0661937 -0.0129677 1.29709e-16)
(0.0812819 -0.0162853 -1.45484e-16)
(0.103201 -0.0176474 5.11096e-17)
(0.134241 -0.0163497 7.67457e-18)
(0.177087 -0.0160585 9.54e-18)
(0.232849 -0.021605 -2.16825e-17)
(0.313666 -0.0447998 -2.73567e-17)
(0.0215443 -0.056855 2.9794e-17)
(0.0176809 -0.0605926 1.05547e-16)
(0.0114135 -0.0555312 8.65758e-17)
(0.00793421 -0.0564905 -4.10133e-17)
(0.00399508 -0.0603502 -4.71174e-17)
(-0.000298401 -0.0721447 1.16341e-16)
(-0.00447861 -0.0822991 9.21899e-17)
(-0.00973825 -0.0914198 -2.77843e-16)
(-0.0215158 -0.111374 3.69494e-16)
(-0.0455391 -0.148701 -5.53009e-16)
(-0.0807493 -0.19773 -1.12244e-15)
(-0.0865117 -0.194164 -2.65805e-16)
(-0.0673658 -0.142026 3.98934e-16)
(0.010408 -0.0596832 -4.75352e-16)
(0.101851 0.0271471 -4.47606e-16)
(0.153336 0.0667871 6.18766e-16)
(0.148348 0.0683968 -1.18817e-16)
(0.0974492 0.0361174 6.71164e-16)
(0.0492958 0.00664025 5.89939e-17)
(0.0272735 -0.00423438 -3.63974e-16)
(0.0260566 -0.00358663 4.05074e-17)
(0.0281729 -0.0044904 -3.50245e-17)
(0.0314419 -0.00436746 -1.94508e-17)
(0.0350737 -0.00351296 -1.04375e-16)
(0.0388254 -0.00197814 2.35979e-16)
(0.0422657 -8.49891e-05 -1.44312e-17)
(0.0450257 0.00188619 -8.89512e-17)
(0.0469014 0.00361414 5.72102e-19)
(0.0478544 0.004754 -3.28089e-17)
(0.0479946 0.00495954 2.67901e-17)
(0.0476258 0.00385734 -1.44316e-16)
(0.0471645 0.00107349 2.57046e-17)
(0.0487346 -0.00362848 8.79053e-17)
(0.0529511 -0.010201 1.28634e-16)
(0.061307 -0.0180682 9.18255e-17)
(0.0756564 -0.0266178 -9.14616e-17)
(0.0980707 -0.0350698 -1.07914e-16)
(0.130867 -0.0431771 -7.38974e-17)
(0.17722 -0.0543774 -1.88919e-16)
(0.239092 -0.0732734 -1.85343e-16)
(0.323542 -0.106905 -1.12156e-16)
(0.0147543 -0.0456196 7.90061e-17)
(0.0114451 -0.0490456 8.2572e-17)
(0.00665054 -0.0456422 -1.50401e-16)
(0.00388944 -0.0468663 -4.4001e-17)
(0.0011087 -0.0483073 1.24996e-16)
(-0.00262277 -0.0540353 -3.49481e-17)
(-0.00677231 -0.0632915 -1.04202e-16)
(-0.0112724 -0.0713304 3.5843e-17)
(-0.0164677 -0.0777279 1.01882e-15)
(-0.0249701 -0.0881681 -3.49925e-16)
(-0.0406448 -0.108011 -8.49703e-16)
(-0.0653205 -0.135391 1.03215e-15)
(-0.0873892 -0.151175 4.86063e-16)
(-0.0920825 -0.140409 6.7265e-17)
(-0.0645499 -0.103691 1.33576e-16)
(-0.0225372 -0.0503064 -3.50108e-16)
(0.0647204 0.0188559 -1.17044e-16)
(0.0902413 0.0226074 2.20538e-16)
(0.101154 0.0391462 5.24635e-16)
(0.0735131 0.0225401 -7.28768e-16)
(0.04373 0.00619796 2.37242e-17)
(0.028075 -0.00275006 -2.02143e-17)
(0.025595 -0.00402689 -6.2682e-17)
(0.0282435 -0.00380943 -3.77102e-17)
(0.032123 -0.0029219 1.67082e-16)
(0.0363352 -0.00109309 8.49127e-17)
(0.0403963 0.00137557 -1.52355e-16)
(0.0438086 0.00391697 -7.45771e-17)
(0.0462901 0.00588847 2.81067e-17)
(0.0477524 0.00682958 -3.21461e-17)
(0.0482679 0.00617422 5.87475e-17)
(0.0482544 0.00339351 -3.10003e-17)
(0.0487003 -0.00195417 5.19299e-17)
(0.0513947 -0.0103912 -1.25349e-17)
(0.0574991 -0.0220755 -1.12153e-16)
(0.0688173 -0.0366835 -2.34378e-17)
(0.0877643 -0.0537611 2.19863e-17)
(0.11657 -0.0730219 6.47115e-17)
(0.158609 -0.0974218 -2.10174e-17)
(0.216748 -0.12954 -4.56805e-17)
(0.294093 -0.173862 -1.68879e-17)
(0.00962276 -0.0360753 -6.49505e-17)
(0.00672469 -0.0390556 4.19925e-17)
(0.00297713 -0.0368336 -7.91458e-18)
(0.000673333 -0.0380755 -1.42729e-16)
(-0.00165526 -0.0394916 1.53937e-17)
(-0.00418451 -0.0413938 6.90818e-17)
(-0.00775326 -0.0470585 -1.23161e-16)
(-0.0118656 -0.0540852 -2.20047e-16)
(-0.0164351 -0.0602671 2.06588e-17)
(-0.0214921 -0.0650982 -2.77614e-16)
(-0.0280296 -0.0708297 3.9713e-16)
(-0.0381724 -0.0805976 5.33436e-17)
(-0.054214 -0.0956038 -2.58672e-16)
(-0.0739815 -0.109464 -2.84545e-16)
(-0.0927492 -0.118008 3.32015e-16)
(-0.070112 -0.06205 4.49235e-16)
(-0.0865664 -0.0888735 -1.51246e-15)
(-0.0491334 -0.0586355 1.23236e-15)
(0.0115221 -0.00523662 1.97979e-16)
(0.0379238 -0.0083834 -5.24918e-16)
(0.0607087 0.0144256 3.48464e-16)
(0.0577845 0.0124035 -1.08897e-16)
(0.0444382 0.00701449 -9.8322e-17)
(0.0329515 0.000849435 -5.75636e-17)
(0.0295582 -0.00131552 2.6841e-16)
(0.0299502 -0.00134752 1.07526e-17)
(0.0325599 -2.3811e-05 -3.15986e-17)
(0.0371591 0.0023025 -1.84062e-16)
(0.0414257 0.0050244 1.11474e-16)
(0.0449056 0.00728327 2.06921e-16)
(0.0473622 0.00806799 -1.92826e-17)
(0.0488045 0.00636055 -7.19575e-17)
(0.0495385 0.00144856 -2.67278e-17)
(0.0508525 -0.0073663 -7.23081e-18)
(0.0543843 -0.0214591 -1.14148e-16)
(0.0613379 -0.0413758 4.09366e-17)
(0.0737316 -0.0670349 -1.81216e-18)
(0.0933011 -0.0975345 -5.15424e-17)
(0.123237 -0.135099 4.07134e-18)
(0.166879 -0.180149 3.90179e-17)
(0.226027 -0.235388 4.55159e-17)
(0.00585453 -0.0280987 7.5691e-17)
(0.00330779 -0.0305913 -5.75964e-17)
(0.000331042 -0.029172 -6.82009e-17)
(-0.00168257 -0.0303287 -2.20926e-17)
(-0.0036524 -0.0315758 1.62806e-16)
(-0.00563052 -0.0327466 -1.86215e-17)
(-0.00813571 -0.0347712 6.37999e-17)
(-0.0116355 -0.0398931 1.75807e-16)
(-0.0155984 -0.0450392 7.24529e-17)
(-0.0200112 -0.0496383 -5.37023e-16)
(-0.0248164 -0.053188 -2.9012e-16)
(-0.0300833 -0.0560655 -8.83826e-17)
(-0.0370018 -0.0605733 -5.30511e-16)
(-0.0470109 -0.0678401 3.97132e-16)
(-0.059736 -0.074794 1.4069e-15)
(-0.0792366 -0.0893787 -7.58155e-16)
(-0.0831544 -0.0834082 -2.06569e-16)
(-0.062465 -0.0219601 3.03483e-16)
(-0.100941 -0.0677061 -3.36744e-16)
(-0.0767832 -0.0599717 9.60291e-16)
(-0.0367506 -0.0286598 -1.75125e-16)
(-0.0131687 -0.0345299 -4.82662e-16)
(0.0167329 -0.0133864 -7.07196e-16)
(0.0332179 -0.00337262 3.55599e-16)
(0.0391547 0.00420286 3.95354e-16)
(0.0370925 0.00615407 3.53703e-17)
(0.0352493 0.00669953 3.38083e-17)
(0.0363816 0.00688265 1.6608e-17)
(0.0387233 0.00691092 1.31368e-17)
(0.0409621 0.00726894 1.0216e-16)
(0.0425895 0.00756175 8.03901e-17)
(0.0446577 0.00702994 -1.47532e-16)
(0.0471949 0.00417092 1.84376e-17)
(0.0487275 -0.00253089 -2.06652e-17)
(0.0505771 -0.0145789 -6.94702e-17)
(0.0529777 -0.0343981 5.62169e-18)
(0.058015 -0.0637442 1.11762e-16)
(0.0657341 -0.101636 -5.87052e-17)
(0.0791573 -0.150076 -3.30914e-17)
(0.101078 -0.207218 -1.98472e-17)
(0.133515 -0.273854 1.287e-17)
(0.00318262 -0.0215667 -2.56426e-17)
(0.000949448 -0.0235559 4.41876e-17)
(-0.00144916 -0.0226622 1.72142e-17)
(-0.00322673 -0.0236643 8.47085e-17)
(-0.00495048 -0.02471 -7.70009e-17)
(-0.00666067 -0.0256911 3.5342e-17)
(-0.00836209 -0.0266753 4.00989e-18)
(-0.011069 -0.0292686 -4.77633e-17)
(-0.0143794 -0.0329249 1.82992e-16)
(-0.0180717 -0.0364837 1.71389e-16)
(-0.0221402 -0.0396703 -4.71123e-16)
(-0.0263829 -0.0419744 8.44782e-16)
(-0.0309095 -0.0435993 7.5053e-16)
(-0.036067 -0.0454281 -7.43919e-16)
(-0.0424431 -0.0483975 -4.66128e-16)
(-0.0497773 -0.0504931 -3.56253e-16)
(-0.0591248 -0.0508453 8.28339e-16)
(-0.0743926 -0.0586545 -8.03523e-16)
(-0.0755907 -0.0499747 1.77609e-16)
(-0.0614909 -0.00218645 4.00226e-16)
(-0.105732 -0.0476183 -2.69871e-16)
(-0.101525 -0.0533235 -2.76675e-16)
(-0.0912513 -0.0504074 1.26203e-16)
(-0.0770796 -0.0588818 1.85243e-16)
(-0.0531221 -0.0478111 -3.07252e-16)
(-0.0251286 -0.0328807 6.96293e-17)
(-0.000825542 -0.0169629 2.90487e-16)
(0.0174917 -0.0015852 -5.07811e-16)
(0.0272914 0.00970752 1.38151e-16)
(0.0332513 0.0172067 1.45077e-16)
(0.0386304 0.0205136 -4.18538e-17)
(0.0431724 0.0191861 -1.35764e-16)
(0.0459537 0.014029 4.07721e-17)
(0.0465866 0.00596514 1.77306e-16)
(0.045474 -0.0052941 2.71501e-17)
(0.0437662 -0.0209733 -6.22772e-18)
(0.0425678 -0.0427981 -5.21051e-17)
(0.0400749 -0.0771366 -3.09032e-17)
(0.0394139 -0.124292 -6.97253e-17)
(0.0400946 -0.183087 1.80219e-17)
(0.0443232 -0.255823 5.09581e-17)
(0.0013767 -0.0163104 -3.51114e-17)
(-0.000574754 -0.0178603 4.29591e-17)
(-0.00252644 -0.0172896 -3.5651e-17)
(-0.00409442 -0.0180946 -1.45102e-16)
(-0.00561853 -0.0189182 3.21673e-17)
(-0.00710662 -0.0196928 -5.57501e-17)
(-0.00861816 -0.0204664 -4.32807e-17)
(-0.0103677 -0.0214749 3.24273e-17)
(-0.0130151 -0.0237753 -5.11613e-17)
(-0.0160706 -0.026291 8.16561e-18)
(-0.0193966 -0.0286011 -3.13726e-16)
(-0.0228794 -0.0304979 2.86504e-16)
(-0.0265675 -0.0318986 -2.12264e-16)
(-0.0304038 -0.0327105 -6.95493e-16)
(-0.0344504 -0.033266 9.43594e-16)
(-0.0389234 -0.0341733 3.70379e-16)
(-0.0437598 -0.0350337 2.05447e-16)
(-0.0482936 -0.0333617 -6.84895e-18)
(-0.0536238 -0.0288952 -1.87612e-16)
(-0.0639059 -0.0305791 -1.5231e-16)
(-0.0663497 -0.0178477 -7.17848e-17)
(-0.0637041 0.00949252 1.93571e-16)
(-0.104006 -0.0221787 -3.96478e-16)
(-0.113705 -0.0343937 -1.42353e-17)
(-0.127537 -0.0435888 1.61499e-16)
(-0.13702 -0.0635673 -1.55841e-16)
(-0.137796 -0.0753781 -4.04505e-16)
(-0.121549 -0.069441 5.04078e-16)
(-0.0994797 -0.0600267 5.19346e-16)
(-0.0698072 -0.0420123 -4.03083e-16)
(-0.0405594 -0.0215948 -1.15819e-16)
(-0.0172771 -0.00373191 -6.52108e-17)
(-0.000818941 0.00919937 -8.50963e-17)
(0.0108043 0.0156884 2.86418e-16)
(0.0189184 0.0144066 -1.04084e-16)
(0.0235058 0.00415743 -4.73165e-17)
(0.0243265 -0.0149946 6.90588e-17)
(0.0224065 -0.0415413 -4.59602e-18)
(0.0156884 -0.0767006 7.33815e-17)
(0.00602994 -0.118133 6.12099e-17)
(-0.00666334 -0.173969 3.5232e-19)
(0.000194896 -0.0120531 3.1155e-18)
(-0.00148655 -0.0132709 5.33297e-17)
(-0.00307712 -0.0129166 1.97707e-17)
(-0.0044436 -0.0135376 -2.11411e-17)
(-0.00577747 -0.014157 -5.82945e-17)
(-0.00708347 -0.0147377 -5.10588e-19)
(-0.00839693 -0.0153172 4.77321e-17)
(-0.00974738 -0.0159114 4.67959e-17)
(-0.0115606 -0.016881 -4.66059e-18)
(-0.0140667 -0.0186258 -9.85132e-17)
(-0.0167891 -0.0202076 -2.41072e-16)
(-0.0195939 -0.0214896 2.17046e-16)
(-0.0225433 -0.0225069 -2.80605e-16)
(-0.0256047 -0.0231567 -2.08861e-16)
(-0.0287307 -0.0233367 3.60575e-16)
(-0.031896 -0.0231315 2.36806e-16)
(-0.035166 -0.0229014 3.37739e-16)
(-0.038563 -0.0228908 -5.84524e-16)
(-0.0417014 -0.0222276 -3.19159e-16)
(-0.043634 -0.0184514 1.01454e-15)
(-0.0450981 -0.012038 -5.17511e-16)
(-0.0520441 -0.00849815 -1.13548e-16)
(-0.0514977 0.0104507 1.1173e-16)
(-0.0618725 0.02341 -3.4022e-16)
(-0.0908252 0.00926979 5.51496e-16)
(-0.102676 -0.00595634 -3.54959e-16)
(-0.124141 -0.00813635 -4.42279e-16)
(-0.157156 -0.0291682 2.21117e-16)
(-0.172558 -0.051611 1.62402e-16)
(-0.187291 -0.0663818 6.97247e-16)
(-0.191486 -0.0766565 -4.015e-16)
(-0.185096 -0.0788858 -3.25201e-16)
(-0.168033 -0.0730649 2.11207e-16)
(-0.144886 -0.0631268 1.36604e-17)
(-0.120024 -0.0519397 -5.22066e-17)
(-0.0983366 -0.0444067 3.54222e-17)
(-0.0817594 -0.0430887 3.9794e-18)
(-0.0693734 -0.048885 4.98409e-17)
(-0.0638681 -0.0639587 -5.37924e-17)
(-0.0643445 -0.0871836 1.54323e-17)
(-0.0694583 -0.118602 -2.07494e-17)
(-0.000517431 -0.00936376 -2.27003e-17)
(-0.00200459 -0.0102016 1.90942e-17)
(-0.0033338 -0.00994448 5.49133e-18)
(-0.004526 -0.0103441 -5.54906e-19)
(-0.00568387 -0.0107302 7.93422e-17)
(-0.00681261 -0.0110858 -2.12437e-17)
(-0.00793721 -0.0114421 -9.6321e-17)
(-0.00908739 -0.0118055 6.2212e-17)
(-0.0103139 -0.0122079 2.6429e-16)
(-0.0122507 -0.013165 -3.04442e-16)
(-0.0145245 -0.0142517 -4.55859e-17)
(-0.0168609 -0.0151094 4.73152e-16)
(-0.0192784 -0.0157557 -3.37512e-16)
(-0.021757 -0.0161644 1.20168e-16)
(-0.0242696 -0.0162831 -6.25398e-17)
(-0.026775 -0.0160392 -7.56069e-16)
(-0.0292443 -0.0154291 1.31942e-15)
(-0.0316836 -0.0146169 4.06989e-16)
(-0.0341184 -0.0139108 -1.12881e-15)
(-0.0364265 -0.0133314 9.74108e-16)
(-0.0379709 -0.0119131 -8.17105e-17)
(-0.0401891 -0.00799662 -7.75855e-16)
(-0.0406217 -0.00128892 1.30344e-16)
(-0.0392701 0.00966155 3.35448e-16)
(-0.0370076 0.0240248 -5.83722e-16)
(-0.0391967 0.0352387 2.94742e-17)
(-0.0468797 0.0441155 1.06636e-16)
(-0.0583136 0.0460515 5.64961e-17)
(-0.0774523 0.0405489 -4.24054e-16)
(-0.102241 0.0273195 3.59795e-16)
(-0.1301 0.00828913 5.24514e-16)
(-0.157613 -0.0130526 -7.88614e-17)
(-0.186776 -0.038301 -1.93158e-16)
(-0.206581 -0.0600167 -3.4355e-16)
(-0.21805 -0.0753283 7.66895e-17)
(-0.227463 -0.090286 2.2145e-17)
(-0.229023 -0.100479 5.81391e-17)
(-0.224067 -0.108038 1.8498e-17)
(-0.219906 -0.117441 7.59133e-17)
(-0.216842 -0.128589 4.75606e-17)
(-0.217229 -0.145837 -3.26418e-17)
(-0.000921217 -0.00740149 -2.72929e-17)
(-0.00223473 -0.00795655 -3.89931e-17)
(-0.00335895 -0.00774426 -3.17472e-18)
(-0.00439594 -0.00797621 6.42126e-17)
(-0.0053957 -0.00819037 4.23549e-17)
(-0.0063685 -0.00838074 -2.77094e-17)
(-0.00733363 -0.00857351 -2.98524e-18)
(-0.0083118 -0.0087717 2.82553e-17)
(-0.00931671 -0.00897505 -1.45959e-16)
(-0.0106069 -0.00931547 -3.93736e-17)
(-0.0125329 -0.0100781 4.76343e-16)
(-0.0145249 -0.0106586 9.42044e-17)
(-0.0165638 -0.0110634 -6.96251e-16)
(-0.0186284 -0.011277 1.74773e-16)
(-0.0206971 -0.0112849 2.17667e-16)
(-0.022741 -0.0110598 -9.5443e-16)
(-0.0247223 -0.0105607 1.49928e-17)
(-0.0266085 -0.00975956 4.98234e-16)
(-0.0283931 -0.00872152 5.78857e-16)
(-0.0301138 -0.007628 -3.56455e-16)
(-0.0317242 -0.00679582 1.51139e-16)
(-0.0351022 -0.0062763 3.53431e-16)
(-0.0370667 -0.00493054 -6.51782e-16)
(-0.0377353 -0.00207664 -2.27222e-16)
(-0.0363714 0.00357761 7.26946e-17)
(-0.0334171 0.0114669 2.22463e-16)
(-0.0282866 0.0225912 -1.15639e-16)
(-0.0231271 0.0352935 2.30964e-16)
(-0.0189796 0.0474924 -1.26791e-16)
(-0.0176169 0.0575103 -3.99078e-17)
(-0.0203693 0.0633953 2.60753e-16)
(-0.0318072 0.059804 -1.93212e-16)
(-0.0369377 0.0560276 -7.81183e-17)
(-0.0560112 0.0476307 2.91686e-16)
(-0.0886456 0.0235501 -3.22084e-16)
(-0.110845 0.000588668 1.98419e-16)
(-0.140048 -0.0233529 1.33313e-16)
(-0.165494 -0.048854 -2.28931e-16)
(-0.198373 -0.0754571 5.05994e-17)
(-0.215038 -0.0933925 8.68292e-17)
(-0.242768 -0.119185 1.38098e-17)
(-0.00114053 -0.00586723 -6.96484e-18)
(-0.00229161 -0.00622603 -1.81232e-17)
(-0.00324969 -0.00603639 -8.34461e-18)
(-0.0041469 -0.0061512 3.34178e-17)
(-0.00500926 -0.00624665 4.54093e-20)
(-0.0058462 -0.00632421 -9.36905e-18)
(-0.00667696 -0.00640414 -4.06616e-18)
(-0.00751551 -0.00648998 1.04331e-17)
(-0.00837784 -0.00657454 4.06917e-17)
(-0.00929603 -0.00667974 -4.48074e-17)
(-0.0108142 -0.00706709 6.26141e-17)
(-0.0125171 -0.00743659 -7.3393e-17)
(-0.0142645 -0.00766621 5.70294e-17)
(-0.0160201 -0.00774441 3.18485e-16)
(-0.0177635 -0.00766013 -4.04714e-16)
(-0.0194709 -0.00740667 -1.92813e-16)
(-0.0211156 -0.00697253 -1.01296e-16)
(-0.0226609 -0.00633994 7.48304e-17)
(-0.0240732 -0.00548831 2.82643e-16)
(-0.0253388 -0.00441152 -1.34747e-16)
(-0.0264459 -0.003274 -3.96145e-16)
(-0.0291941 -0.00223255 3.17937e-16)
(-0.0314682 -0.00133289 3.42971e-16)
(-0.0335334 -0.000492036 -5.76789e-16)
(-0.0350762 0.000484151 2.48004e-16)
(-0.0355212 0.00218574 1.78693e-16)
(-0.034528 0.00503988 -3.00325e-16)
(-0.0316709 0.00951511 5.51731e-16)
(-0.0269192 0.0157522 -1.50087e-16)
(-0.0205874 0.0235759 -4.41655e-16)
(-0.0133206 0.0324071 -8.80441e-19)
(-0.0058765 0.0414297 4.92221e-16)
(-0.00167581 0.0477727 -3.96325e-16)
(0.00208367 0.0539221 -1.32314e-16)
(0.00501142 0.0580931 2.80365e-16)
(0.000731747 0.0567535 2.29624e-17)