/*--------------------------------*- C++ -*----------------------------------*\
| =========                 |                                                 |
| \\      /  F ield         | OpenFOAM: The Open Source CFD Toolbox           |
|  \\    /   O peration     | Version:  2312                                  |
|   \\  /    A nd           | Website:  www.openfoam.com                      |
|    \\/     M anipulation  |                                                 |
\*---------------------------------------------------------------------------*/
FoamFile
{
    version     2.0;
    format      ascii;
    arch        "LSB;label=32;scalar=64";
    class       volScalarField;
    location    "800";
    object      nuTilda;
}
// * * * * * * * * * * * * * * * * * * * * * * * * * * * * * * * * * * * * * //

dimensions      [0 2 -1 0 0 0 0];

internalField   nonuniform List<scalar> 
11040
(
7.29049e-05
8.58789e-05
5.28991e-05
8.12113e-05
0.000197161
0.000190862
0.000182083
0.000173015
0.000161872
0.000155096
0.000148164
0.000142197
0.000136869
0.000132706
0.000129156
0.000127201
0.000126891
0.000128229
0.00013084
0.000134559
0.000139477
0.00014546
0.000152309
0.000159878
0.000168289
0.000178425
0.000190214
0.000201964
0.000213136
0.000223144
0.000231354
0.000237141
0.000241183
0.000247559
0.000265767
0.000256995
0.000185693
0.000190155
0.000207661
0.000226495
0.000300452
3.61154e-05
7.21096e-05
8.67279e-05
0.000156426
0.000602815
0.000629471
0.000553633
0.000510257
0.00044454
0.000409554
0.000373395
0.000345197
0.000318833
0.000298903
0.000280372
0.000267362
0.000260747
0.000259814
0.000261958
0.000265864
0.000271649
0.00027937
0.000287485
0.00029487
0.000302458
0.000317528
0.000344546
0.000376069
0.000411723
0.000451604
0.00049585
0.000544871
0.000597918
0.000656598
0.000723177
0.000791341
0.00086021
0.000951637
0.0010603
0.00115033
0.00162012
3.89694e-05
4.54439e-05
6.66518e-05
9.35538e-05
0.000415025
0.0009661
0.00118783
0.00114832
0.00100572
0.000931503
0.000849029
0.000787856
0.000728247
0.000684336
0.000642422
0.000608901
0.000583311
0.000563705
0.000552208
0.00054785
0.000552017
0.00056572
0.000589684
0.000624757
0.000671013
0.00072827
0.000796309
0.00087464
0.000962959
0.00106076
0.00116686
0.0012806
0.00140156
0.00153037
0.00166809
0.00181505
0.0019776
0.00217819
0.00242215
0.00266594
0.0035007
4.07595e-05
3.82381e-05
4.71524e-05
4.78757e-05
0.000152842
0.000596654
0.00130532
0.0017095
0.00178012
0.00169063
0.00154732
0.0014469
0.00134239
0.00126489
0.00118966
0.00112681
0.00108051
0.00104374
0.0010216
0.0010125
0.00101814
0.00104153
0.00108517
0.00115024
0.00123616
0.00134183
0.00146633
0.00160862
0.00176782
0.00194285
0.00213218
0.00233442
0.00254849
0.00277467
0.00301383
0.00326862
0.0035509
0.00389261
0.00431139
0.00477274
0.00594958
4.02516e-05
3.94376e-05
4.06176e-05
3.87795e-05
3.75851e-05
0.000186657
0.000708961
0.00156126
0.00225674
0.00246753
0.00248022
0.00237498
0.00221197
0.00209334
0.00197931
0.00187574
0.00180287
0.00174285
0.00170563
0.00168972
0.0016951
0.00172735
0.0017926
0.00189276
0.00202702
0.00219405
0.00239212
0.00261898
0.00287263
0.00315112
0.00345141
0.00377066
0.00410678
0.0044595
0.00482938
0.00522042
0.00564896
0.00616006
0.0067882
0.00752285
0.00900433
4.00521e-05
4.02238e-05
3.96734e-05
4.09622e-05
2.84221e-05
2.40839e-05
0.00018222
0.00073056
0.00171459
0.00273273
0.00320938
0.00337989
0.00336892
0.00326117
0.00308508
0.00292177
0.00281387
0.00272167
0.00266118
0.00263498
0.0026375
0.00267625
0.00276433
0.00290553
0.00309864
0.00334249
0.00363452
0.00397039
0.0043458
0.00475765
0.00520041
0.00566867
0.0061585
0.00666862
0.00719858
0.00775287
0.00835228
0.00905422
0.00991893
0.0109702
0.0127671
4.00699e-05
4.01294e-05
3.99014e-05
4.0519e-05
3.97498e-05
2.00133e-05
5.92947e-06
0.000136093
0.00065928
0.00170735
0.00301284
0.0039551
0.00433577
0.00448153
0.0044744
0.00437408
0.00422579
0.00407341
0.00397682
0.00393589
0.00393346
0.00397431
0.00408359
0.00426973
0.00453055
0.00486602
0.00527329
0.0057453
0.00627274
0.00685137
0.00747191
0.00812441
0.00880169
0.00950081
0.0102191
0.0109599
0.0117478
0.012651
0.0137639
0.0151534
0.0173091
4.00869e-05
4.00823e-05
4.01193e-05
3.99661e-05
4.08955e-05
3.99761e-05
9.24882e-06
1.78099e-06
8.33512e-05
0.000512306
0.00151887
0.00302022
0.00449128
0.00531143
0.00568045
0.00582723
0.00585474
0.0058054
0.00573603
0.00567805
0.00567336
0.00572777
0.00586155
0.00609731
0.00643244
0.00687108
0.00741287
0.00804962
0.00876088
0.00954181
0.0103783
0.0112527
0.0121517
0.0130701
0.0140016
0.014945
0.0159278
0.0170265
0.0183705
0.0200844
0.0226036
4.00838e-05
4.00906e-05
4.00828e-05
4.0119e-05
3.987e-05
4.19181e-05
3.87092e-05
1.43249e-05
1.84647e-05
2.09172e-05
0.00031689
0.00117726
0.00270911
0.00459775
0.00612884
0.00689751
0.00730241
0.00750877
0.00763321
0.00771617
0.00781372
0.00795239
0.0081748
0.00851049
0.00896057
0.00952508
0.0102116
0.0110252
0.0119502
0.0129677
0.014059
0.0151941
0.0163477
0.0175117
0.0186755
0.0198263
0.0209933
0.0222632
0.0237759
0.0257438
0.0285679
4.00825e-05
4.00855e-05
4.00851e-05
4.00956e-05
4.00584e-05
3.99606e-05
4.22369e-05
3.77189e-05
2.0524e-05
8.49422e-06
6.0607e-05
0.000140236
0.00077088
0.0021358
0.00418557
0.00639707
0.00798324
0.00880399
0.00932323
0.00968997
0.0100273
0.0103792
0.0108082
0.0113595
0.0120536
0.0128914
0.0138631
0.014951
0.0161367
0.017417
0.0187923
0.02022
0.0216493
0.0230686
0.02447
0.0258146
0.0271267
0.0285094
0.0300909
0.0321579
0.0351203
4.00801e-05
4.0082e-05
4.00847e-05
4.00771e-05
4.01097e-05
3.99783e-05
4.02037e-05
4.17184e-05
3.97125e-05
2.68353e-05
7.12417e-06
2.10359e-05
1.54711e-05
0.000368928
0.001405
0.00330426
0.00585767
0.00840132
0.0101562
0.0111728
0.0119489
0.012631
0.0133518
0.0141954
0.0152163
0.016434
0.0178456
0.0194334
0.0211635
0.0229879
0.0248433
0.0266551
0.0283754
0.0300362
0.0316735
0.0331819
0.0345546
0.0359586
0.0374857
0.0393815
0.0421587
4.00775e-05
4.00793e-05
4.00791e-05
4.00802e-05
4.0076e-05
4.00922e-05
3.9991e-05
4.01848e-05
4.12403e-05
4.09845e-05
3.2781e-05
5.68841e-06
4.47267e-06
6.22197e-05
0.000116101
0.000717953
0.00217242
0.00459306
0.00766514
0.0106535
0.012797
0.0141846
0.0153637
0.0165682
0.0179414
0.01955
0.0214118
0.0235248
0.0258574
0.0283552
0.0309495
0.0335596
0.0360947
0.0384626
0.0405493
0.0422271
0.0435239
0.0448396
0.0461646
0.0476166
0.0497752
4.00751e-05
4.00761e-05
4.0076e-05
4.00757e-05
4.00756e-05
4.00748e-05
4.00771e-05
4.00206e-05
4.01115e-05
4.08388e-05
4.17134e-05
3.65784e-05
1.66413e-05
5.17842e-06
1.44163e-05
0.000118936
0.000224949
0.00109731
0.0029464
0.00587559
0.0095418
0.0130998
0.0157867
0.0177592
0.0196168
0.0216423
0.0239155
0.0264907
0.0293569
0.032458
0.0357228
0.039068
0.0423968
0.0456134
0.0486154
0.0512889
0.0535352
0.0552781
0.0564047
0.0571392
0.0585577
4.00729e-05
4.00735e-05
4.00735e-05
4.00735e-05
4.00734e-05
4.00724e-05
4.00724e-05
4.00723e-05
4.00387e-05
4.00497e-05
4.04785e-05
4.17897e-05
3.98143e-05
2.79596e-05
3.45735e-06
2.27248e-06
2.63045e-05
0.00017871
0.000346134
0.00142005
0.00360195
0.00685683
0.0107396
0.0147746
0.0184454
0.0215476
0.024408
0.0274388
0.030774
0.0343812
0.0382046
0.0421747
0.0461881
0.0501451
0.0539431
0.0574814
0.0606699
0.0634481
0.0657456
0.0675316
0.0688539
4.0071e-05
4.00723e-05
4.00726e-05
4.00727e-05
4.00721e-05
4.00715e-05
4.00706e-05
4.00709e-05
4.00699e-05
4.00559e-05
4.00062e-05
4.02563e-05
4.13395e-05
4.12836e-05
3.67155e-05
1.82089e-05
5.78392e-06
8.06753e-07
3.89142e-05
0.000220876
0.000407533
0.00151434
0.0035241
0.00649331
0.0102688
0.0146114
0.0192523
0.023893
0.028335
0.0326387
0.037001
0.0415232
0.0461526
0.0507807
0.0552988
0.0596074
0.0636274
0.0673203
0.0706188
0.0734657
0.075855
4.00694e-05
4.00717e-05
4.00718e-05
4.00715e-05
4.00708e-05
4.00701e-05
4.00694e-05
4.00689e-05
4.00688e-05
4.00691e-05
4.00631e-05
4.00046e-05
4.01303e-05
4.06201e-05
4.18601e-05
3.9795e-05
3.2945e-05
8.6548e-06
3.81592e-06
4.38894e-07
4.38753e-05
0.000196667
0.000241189
0.000995702
0.00243527
0.00469694
0.00781299
0.0117514
0.016441
0.0217771
0.0275806
0.0335673
0.0394484
0.0450818
0.0504553
0.0555885
0.0604736
0.0650949
0.0693847
0.0732725
0.0767306
4.0068e-05
4.00704e-05
4.00701e-05
4.00691e-05
4.00682e-05
4.00675e-05
4.0067e-05
4.00666e-05
4.00665e-05
4.00662e-05
4.00685e-05
4.00618e-05
4.00363e-05
4.00145e-05
4.03345e-05
4.10873e-05
4.18738e-05
3.82736e-05
2.81381e-05
4.92218e-06
3.08472e-06
3.93653e-07
2.27213e-05
9.31351e-05
4.65751e-06
0.000305656
0.000982209
0.00220468
0.0041178
0.00679618
0.0103055
0.0146703
0.0198567
0.0257809
0.0322663
0.0390299
0.0457414
0.0521647
0.0581085
0.0634774
0.0682756
4.00662e-05
4.00681e-05
4.00676e-05
4.00667e-05
4.0066e-05
4.00654e-05
4.00651e-05
4.00647e-05
4.00644e-05
4.00642e-05
4.00642e-05
4.00657e-05
4.00644e-05
4.00489e-05
4.00074e-05
4.01e-05
4.05221e-05
4.15682e-05
4.16613e-05
3.749e-05
2.60444e-05
4.59267e-06
3.11384e-06
7.62391e-07
3.92532e-07
2.53154e-05
7.99427e-05
0.00018637
5.74324e-05
0.000333884
0.00101107
0.00216728
0.00390092
0.00632947
0.00951418
0.0134761
0.0181711
0.023561
0.0294967
0.0357841
0.0422151
4.00639e-05
4.00652e-05
4.00644e-05
4.00633e-05
4.00625e-05
4.00619e-05
4.00616e-05
4.00615e-05
4.00614e-05
4.00615e-05
4.00614e-05
4.00615e-05
4.00619e-05
4.00643e-05
4.0054e-05
4.00333e-05
4.00005e-05
4.02075e-05
4.07956e-05
4.17232e-05
4.14309e-05
3.69015e-05
2.85972e-05
9.38987e-06
4.09344e-06
1.8449e-06
5.72915e-07
0
4.35964e-06
2.48779e-05
7.39518e-05
0.000155608
0.000292867
9.81416e-05
0.00036922
0.00105279
0.00213881
0.00371926
0.00584689
0.00854699
0.0118783
4.00616e-05
4.00623e-05
4.00613e-05
4.00602e-05
4.00594e-05
4.0059e-05
4.00587e-05
4.00587e-05
4.00587e-05
4.00588e-05
4.00589e-05
4.00591e-05
4.00591e-05
4.00597e-05
4.00606e-05
4.00599e-05
4.00428e-05
4.00124e-05
4.00242e-05
4.03019e-05
4.0981e-05
4.17173e-05
4.16326e-05
3.85416e-05
3.22192e-05
2.40564e-05
7.61965e-06
3.68325e-06
1.84839e-06
1.30468e-06
3.31676e-07
0
0
6.60877e-06
2.44015e-05
6.82195e-05
0.000135685
0.000233106
0.000364874
3.20702e-05
0.000358688
4.00591e-05
4.00594e-05
4.00584e-05
4.00575e-05
4.00569e-05
4.00567e-05
4.00567e-05
4.00567e-05
4.00569e-05
4.00571e-05
4.00573e-05
4.00575e-05
4.00577e-05
4.00578e-05
4.00582e-05
4.0059e-05
4.00599e-05
4.00538e-05
4.00292e-05
3.99994e-05
4.00458e-05
4.03583e-05
4.08954e-05
4.16988e-05
4.17904e-05
4.09806e-05
3.79565e-05
3.27258e-05
2.61671e-05
1.88533e-05
4.89157e-06
3.01187e-06
1.76498e-06
1.39891e-06
1.0096e-06
3.91222e-07
0
0
0
1.86842e-06
2.04266e-05
4.00565e-05
4.00567e-05
4.00559e-05
4.00553e-05
4.00552e-05
4.00552e-05
4.00555e-05
4.00558e-05
4.00561e-05
4.00564e-05
4.00566e-05
4.00569e-05
4.00571e-05
4.00573e-05
4.00575e-05
4.00576e-05
4.00582e-05
4.00593e-05
4.00586e-05
4.00483e-05
4.00184e-05
4.00009e-05
4.00358e-05
4.02566e-05
4.06811e-05
4.1196e-05
4.18339e-05
4.19773e-05
4.13033e-05
3.99096e-05
3.70305e-05
3.28362e-05
2.7848e-05
2.24859e-05
1.65589e-05
6.55272e-06
3.19047e-06
1.72873e-06
1.48282e-06
1.23753e-06
9.76664e-07
4.00541e-05
4.00543e-05
4.0054e-05
4.00539e-05
4.00542e-05
4.00547e-05
4.00552e-05
4.00557e-05
4.00562e-05
4.00566e-05
4.00569e-05
4.00572e-05
4.00575e-05
4.00577e-05
4.00579e-05
4.0058e-05
4.00581e-05
4.00584e-05
4.00592e-05
4.00602e-05
4.00577e-05
4.00454e-05
4.00216e-05
3.9996e-05
4.00135e-05
4.00999e-05
4.03265e-05
4.06964e-05
4.11457e-05
4.15672e-05
4.20156e-05
4.2101e-05
4.17112e-05
4.07903e-05
3.94231e-05
3.72779e-05
3.44219e-05
3.09582e-05
2.71679e-05
2.31213e-05
1.86794e-05
4.00518e-05
4.00524e-05
4.00527e-05
4.00532e-05
4.0054e-05
4.00548e-05
4.00556e-05
4.00563e-05
4.00569e-05
4.00574e-05
4.00579e-05
4.00582e-05
4.00586e-05
4.00588e-05
4.00591e-05
4.00592e-05
4.00594e-05
4.00595e-05
4.00596e-05
4.00599e-05
4.00609e-05
4.00614e-05
4.00593e-05
4.00496e-05
4.00313e-05
4.00091e-05
3.99934e-05
4.00076e-05
4.00795e-05
4.02129e-05
4.04364e-05
4.07421e-05
4.1094e-05
4.14536e-05
4.17682e-05
4.20722e-05
4.22173e-05
4.21151e-05
4.17295e-05
4.1048e-05
4.01529e-05
4.00499e-05
4.0051e-05
4.0052e-05
4.00531e-05
4.00543e-05
4.00554e-05
4.00563e-05
4.00572e-05
4.00579e-05
4.00585e-05
4.00591e-05
4.00595e-05
4.00599e-05
4.00603e-05
4.00606e-05
4.00608e-05
4.0061e-05
4.00612e-05
4.00613e-05
4.00614e-05
4.00616e-05
4.0062e-05
4.00629e-05
4.00636e-05
4.00625e-05
4.00579e-05
4.00475e-05
4.0031e-05
4.0012e-05
3.99967e-05
3.99914e-05
4.00078e-05
4.00562e-05
4.01454e-05
4.0274e-05
4.04489e-05
4.0666e-05
4.09193e-05
4.11895e-05
4.14587e-05
4.17001e-05
4.00483e-05
4.00502e-05
4.00519e-05
4.00534e-05
4.00548e-05
4.00561e-05
4.00572e-05
4.00581e-05
4.0059e-05
4.00597e-05
4.00603e-05
4.00609e-05
4.00613e-05
4.00618e-05
4.00621e-05
4.00624e-05
4.00627e-05
4.0063e-05
4.00632e-05
4.00634e-05
4.00635e-05
4.00637e-05
4.00639e-05
4.00644e-05
4.00651e-05
4.00658e-05
4.00662e-05
4.00651e-05
4.00614e-05
4.00545e-05
4.0044e-05
4.00302e-05
4.00148e-05
4.00005e-05
3.99908e-05
3.99883e-05
3.99967e-05
4.0021e-05
4.00635e-05
4.01304e-05
4.02062e-05
4.00472e-05
4.00499e-05
4.0052e-05
4.00539e-05
4.00555e-05
4.00568e-05
4.0058e-05
4.0059e-05
4.006e-05
4.00608e-05
4.00615e-05
4.00621e-05
4.00626e-05
4.00631e-05
4.00636e-05
4.0064e-05
4.00644e-05
4.00647e-05
4.0065e-05
4.00653e-05
4.00655e-05
4.00658e-05
4.0066e-05
4.00662e-05
4.00664e-05
4.00668e-05
4.00673e-05
4.0068e-05
4.00687e-05
4.00692e-05
4.00691e-05
4.0068e-05
4.00654e-05
4.00609e-05
4.00544e-05
4.00461e-05
4.00361e-05
4.00249e-05
4.00133e-05
4.00026e-05
3.9994e-05
4.00466e-05
4.00498e-05
4.00523e-05
4.00543e-05
4.0056e-05
4.00574e-05
4.00587e-05
4.00598e-05
4.00608e-05
4.00617e-05
4.00625e-05
4.00632e-05
4.00638e-05
4.00644e-05
4.00649e-05
4.00654e-05
4.00658e-05
4.00663e-05
4.00666e-05
4.0067e-05
4.00674e-05
4.00677e-05
4.0068e-05
4.00683e-05
4.00686e-05
4.00688e-05
4.00691e-05
4.00693e-05
4.00697e-05
4.00701e-05
4.00707e-05
4.00713e-05
4.0072e-05
4.00726e-05
4.00729e-05
4.00729e-05
4.00723e-05
4.0071e-05
4.0069e-05
4.00657e-05
4.00625e-05
4.00463e-05
4.00499e-05
4.00525e-05
4.00546e-05
4.00563e-05
4.00579e-05
4.00592e-05
4.00604e-05
4.00615e-05
4.00624e-05
4.00633e-05
4.00641e-05
4.00648e-05
4.00655e-05
4.00661e-05
4.00667e-05
4.00672e-05
4.00677e-05
4.00682e-05
4.00686e-05
4.0069e-05
4.00695e-05
4.00699e-05
4.00702e-05
4.00706e-05
4.00709e-05
4.00712e-05
4.00715e-05
4.00718e-05
4.0072e-05
4.00723e-05
4.00726e-05
4.0073e-05
4.00734e-05
4.00738e-05
4.00743e-05
4.00749e-05
4.00755e-05
4.00761e-05
4.00766e-05
4.00771e-05
4.00462e-05
4.00499e-05
4.00526e-05
4.00547e-05
4.00566e-05
4.00581e-05
4.00596e-05
4.00608e-05
4.0062e-05
4.00631e-05
4.0064e-05
4.00649e-05
4.00657e-05
4.00665e-05
4.00672e-05
4.00678e-05
4.00684e-05
4.0069e-05
4.00695e-05
4.00701e-05
4.00706e-05
4.00711e-05
4.00715e-05
4.0072e-05
4.00724e-05
4.00728e-05
4.00732e-05
4.00735e-05
4.00739e-05
4.00742e-05
4.00745e-05
4.00748e-05
4.00751e-05
4.00754e-05
4.00757e-05
4.0076e-05
4.00763e-05
4.00766e-05
4.0077e-05
4.00774e-05
4.00777e-05
4.0046e-05
4.00498e-05
4.00525e-05
4.00547e-05
4.00566e-05
4.00582e-05
4.00597e-05
4.00611e-05
4.00624e-05
4.00635e-05
4.00646e-05
4.00656e-05
4.00665e-05
4.00673e-05
4.00681e-05
4.00688e-05
4.00695e-05
4.00702e-05
4.00708e-05
4.00714e-05
4.0072e-05
4.00725e-05
4.00731e-05
4.00736e-05
4.00741e-05
4.00745e-05
4.00749e-05
4.00754e-05
4.00758e-05
4.00762e-05
4.00765e-05
4.00769e-05
4.00773e-05
4.00776e-05
4.00779e-05
4.00783e-05
4.00786e-05
4.00789e-05
4.00792e-05
4.00795e-05
4.00798e-05
4.00458e-05
4.00496e-05
4.00523e-05
4.00545e-05
4.00564e-05
4.00582e-05
4.00597e-05
4.00612e-05
4.00625e-05
4.00638e-05
4.0065e-05
4.0066e-05
4.0067e-05
4.0068e-05
4.00688e-05
4.00697e-05
4.00704e-05
4.00712e-05
4.00719e-05
4.00726e-05
4.00732e-05
4.00739e-05
4.00745e-05
4.0075e-05
4.00756e-05
4.00761e-05
4.00766e-05
4.00771e-05
4.00775e-05
4.0078e-05
4.00784e-05
4.00788e-05
4.00792e-05
4.00796e-05
4.008e-05
4.00803e-05
4.00807e-05
4.00811e-05
4.00814e-05
4.00817e-05
4.00821e-05
4.00454e-05
4.00491e-05
4.00519e-05
4.00541e-05
4.00561e-05
4.00579e-05
4.00595e-05
4.00611e-05
4.00625e-05
4.00639e-05
4.00652e-05
4.00664e-05
4.00675e-05
4.00685e-05
4.00695e-05
4.00704e-05
4.00712e-05
4.00721e-05
4.00729e-05
4.00736e-05
4.00744e-05
4.00751e-05
4.00757e-05
4.00764e-05
4.0077e-05
4.00776e-05
4.00781e-05
4.00786e-05
4.00791e-05
4.00796e-05
4.00801e-05
4.00805e-05
4.0081e-05
4.00814e-05
4.00818e-05
4.00822e-05
4.00826e-05
4.0083e-05
4.00834e-05
4.00837e-05
4.00841e-05
4.00448e-05
4.00485e-05
4.00512e-05
4.00534e-05
4.00555e-05
4.00574e-05
4.00591e-05
4.00608e-05
4.00624e-05
4.00638e-05
4.00652e-05
4.00665e-05
4.00677e-05
4.00689e-05
4.007e-05
4.0071e-05
4.00719e-05
4.00728e-05
4.00737e-05
4.00746e-05
4.00754e-05
4.00762e-05
4.00769e-05
4.00776e-05
4.00783e-05
4.00789e-05
4.00795e-05
4.00801e-05
4.00806e-05
4.00812e-05
4.00817e-05
4.00822e-05
4.00827e-05
4.00831e-05
4.00836e-05
4.0084e-05
4.00844e-05
4.00848e-05
4.00853e-05
4.00856e-05
4.0086e-05
4.00441e-05
4.00476e-05
4.00503e-05
4.00526e-05
4.00547e-05
4.00566e-05
4.00585e-05
4.00603e-05
4.0062e-05
4.00636e-05
4.00651e-05
4.00665e-05
4.00678e-05
4.00691e-05
4.00703e-05
4.00714e-05
4.00725e-05
4.00735e-05
4.00745e-05
4.00754e-05
4.00763e-05
4.00772e-05
4.0078e-05
4.00787e-05
4.00795e-05
4.00801e-05
4.00808e-05
4.00814e-05
4.0082e-05
4.00826e-05
4.00832e-05
4.00837e-05
4.00842e-05
4.00847e-05
4.00852e-05
4.00857e-05
4.00861e-05
4.00866e-05
4.0087e-05
4.00874e-05
4.00878e-05
4.00431e-05
4.00465e-05
4.00491e-05
4.00514e-05
4.00536e-05
4.00556e-05
4.00576e-05
4.00595e-05
4.00613e-05
4.00631e-05
4.00647e-05
4.00663e-05
4.00677e-05
4.00691e-05
4.00704e-05
4.00717e-05
4.00728e-05
4.0074e-05
4.0075e-05
4.0076e-05
4.0077e-05
4.0078e-05
4.00789e-05
4.00797e-05
4.00805e-05
4.00813e-05
4.0082e-05
4.00827e-05
4.00833e-05
4.00839e-05
4.00845e-05
4.00851e-05
4.00857e-05
4.00862e-05
4.00867e-05
4.00872e-05
4.00877e-05
4.00881e-05
4.00886e-05
4.0089e-05
4.00895e-05
4.00418e-05
4.00451e-05
4.00477e-05
4.005e-05
4.00523e-05
4.00544e-05
4.00565e-05
4.00585e-05
4.00604e-05
4.00623e-05
4.00641e-05
4.00657e-05
4.00673e-05
4.00689e-05
4.00703e-05
4.00717e-05
4.0073e-05
4.00742e-05
4.00754e-05
4.00765e-05
4.00776e-05
4.00786e-05
4.00796e-05
4.00805e-05
4.00814e-05
4.00822e-05
4.0083e-05
4.00837e-05
4.00844e-05
4.00851e-05
4.00857e-05
4.00863e-05
4.00869e-05
4.00875e-05
4.0088e-05
4.00886e-05
4.00891e-05
4.00896e-05
4.009e-05
4.00905e-05
4.00909e-05
4.00403e-05
4.00434e-05
4.0046e-05
4.00483e-05
4.00506e-05
4.00528e-05
4.0055e-05
4.00571e-05
4.00592e-05
4.00611e-05
4.0063e-05
4.00649e-05
4.00666e-05
4.00682e-05
4.00698e-05
4.00713e-05
4.00727e-05
4.00741e-05
4.00753e-05
4.00766e-05
4.00778e-05
4.00789e-05
4.008e-05
4.0081e-05
4.00819e-05
4.00828e-05
4.00836e-05
4.00844e-05
4.00852e-05
4.00859e-05
4.00866e-05
4.00873e-05
4.00879e-05
4.00885e-05
4.00891e-05
4.00896e-05
4.00902e-05
4.00907e-05
4.00912e-05
4.00916e-05
4.00921e-05
4.00384e-05
4.00414e-05
4.00439e-05
4.00463e-05
4.00486e-05
4.00509e-05
4.00531e-05
4.00553e-05
4.00574e-05
4.00595e-05
4.00615e-05
4.00635e-05
4.00653e-05
4.00671e-05
4.00688e-05
4.00704e-05
4.0072e-05
4.00734e-05
4.00749e-05
4.00762e-05
4.00775e-05
4.00787e-05
4.00799e-05
4.0081e-05
4.0082e-05
4.0083e-05
4.00839e-05
4.00847e-05
4.00855e-05
4.00863e-05
4.00871e-05
4.00878e-05
4.00884e-05
4.00891e-05
4.00897e-05
4.00903e-05
4.00908e-05
4.00913e-05
4.00919e-05
4.00923e-05
4.00928e-05
4.00362e-05
4.00391e-05
4.00415e-05
4.00439e-05
4.00462e-05
4.00485e-05
4.00507e-05
4.0053e-05
4.00552e-05
4.00573e-05
4.00594e-05
4.00615e-05
4.00635e-05
4.00654e-05
4.00672e-05
4.0069e-05
4.00706e-05
4.00722e-05
4.00738e-05
4.00752e-05
4.00766e-05
4.00779e-05
4.00792e-05
4.00804e-05
4.00815e-05
4.00825e-05
4.00835e-05
4.00844e-05
4.00853e-05
4.00861e-05
4.00869e-05
4.00877e-05
4.00884e-05
4.00891e-05
4.00897e-05
4.00903e-05
4.00909e-05
4.00914e-05
4.00919e-05
4.00924e-05
4.00929e-05
4.00337e-05
4.00364e-05
4.00387e-05
4.0041e-05
4.00433e-05
4.00455e-05
4.00478e-05
4.005e-05
4.00522e-05
4.00545e-05
4.00567e-05
4.00588e-05
4.00609e-05
4.00629e-05
4.00649e-05
4.00668e-05
4.00686e-05
4.00703e-05
4.00719e-05
4.00735e-05
4.0075e-05
4.00764e-05
4.00778e-05
4.0079e-05
4.00802e-05
4.00813e-05
4.00824e-05
4.00834e-05
4.00843e-05
4.00852e-05
4.0086e-05
4.00868e-05
4.00876e-05
4.00883e-05
4.00889e-05
4.00896e-05
4.00902e-05
4.00907e-05
4.00913e-05
4.00918e-05
4.00923e-05
4.00308e-05
4.00333e-05
4.00355e-05
4.00376e-05
4.00398e-05
4.00419e-05
4.00441e-05
4.00464e-05
4.00486e-05
4.00509e-05
4.00531e-05
4.00554e-05
4.00575e-05
4.00597e-05
4.00617e-05
4.00637e-05
4.00657e-05
4.00675e-05
4.00693e-05
4.0071e-05
4.00726e-05
4.00741e-05
4.00755e-05
4.00769e-05
4.00782e-05
4.00794e-05
4.00805e-05
4.00815e-05
4.00825e-05
4.00835e-05
4.00843e-05
4.00852e-05
4.00859e-05
4.00867e-05
4.00873e-05
4.0088e-05
4.00886e-05
4.00892e-05
4.00897e-05
4.00902e-05
4.00907e-05
4.00275e-05
4.00297e-05
4.00317e-05
4.00337e-05
4.00357e-05
4.00377e-05
4.00398e-05
4.0042e-05
4.00442e-05
4.00465e-05
4.00488e-05
4.00511e-05
4.00533e-05
4.00556e-05
4.00577e-05
4.00598e-05
4.00618e-05
4.00638e-05
4.00657e-05
4.00674e-05
4.00692e-05
4.00708e-05
4.00723e-05
4.00737e-05
4.0075e-05
4.00763e-05
4.00775e-05
4.00786e-05
4.00796e-05
4.00806e-05
4.00815e-05
4.00824e-05
4.00832e-05
4.0084e-05
4.00847e-05
4.00854e-05
4.0086e-05
4.00866e-05
4.00872e-05
4.00877e-05
4.00882e-05
4.00237e-05
4.00256e-05
4.00274e-05
4.00291e-05
4.00309e-05
4.00328e-05
4.00347e-05
4.00368e-05
4.0039e-05
4.00412e-05
4.00435e-05
4.00458e-05
4.00481e-05
4.00504e-05
4.00526e-05
4.00548e-05
4.00569e-05
4.00589e-05
4.00609e-05
4.00628e-05
4.00646e-05
4.00663e-05
4.00679e-05
4.00695e-05
4.00709e-05
4.00723e-05
4.00735e-05
4.00747e-05
4.00758e-05
4.00769e-05
4.00778e-05
4.00787e-05
4.00796e-05
4.00803e-05
4.00811e-05
4.00817e-05
4.00824e-05
4.00829e-05
4.00835e-05
4.0084e-05
4.00844e-05
4.00194e-05
4.0021e-05
4.00225e-05
4.00239e-05
4.00254e-05
4.00271e-05
4.00289e-05
4.00309e-05
4.00329e-05
4.0035e-05
4.00372e-05
4.00394e-05
4.00417e-05
4.00439e-05
4.00462e-05
4.00484e-05
4.00506e-05
4.00527e-05
4.00547e-05
4.00566e-05
4.00585e-05
4.00602e-05
4.00619e-05
4.00635e-05
4.00649e-05
4.00663e-05
4.00676e-05
4.00688e-05
4.007e-05
4.0071e-05
4.0072e-05
4.0073e-05
4.00738e-05
4.00747e-05
4.00754e-05
4.00761e-05
4.00768e-05
4.00774e-05
4.0078e-05
4.00786e-05
4.00791e-05
4.00146e-05
4.00158e-05
4.00169e-05
4.0018e-05
4.00193e-05
4.00207e-05
4.00223e-05
4.00239e-05
4.00257e-05
4.00276e-05
4.00296e-05
4.00316e-05
4.00337e-05
4.00359e-05
4.0038e-05
4.00401e-05
4.00422e-05
4.00442e-05
4.00463e-05
4.00483e-05
4.00502e-05
4.00521e-05
4.00539e-05
4.00556e-05
4.00572e-05
4.00587e-05
4.00602e-05
4.00615e-05
4.00628e-05
4.00639e-05
4.0065e-05
4.0066e-05
4.0067e-05
4.00678e-05
4.00686e-05
4.00694e-05
4.007e-05
4.00707e-05
4.00712e-05
4.00717e-05
4.00722e-05
4.00092e-05
4.00099e-05
4.00106e-05
4.00114e-05
4.00124e-05
4.00134e-05
4.00145e-05
4.00158e-05
4.00172e-05
4.00186e-05
4.00202e-05
4.00219e-05
4.00237e-05
4.00256e-05
4.00277e-05
4.003e-05
4.00322e-05
4.00344e-05
4.00365e-05
4.00386e-05
4.00405e-05
4.00424e-05
4.00441e-05
4.00458e-05
4.00474e-05
4.00489e-05
4.00503e-05
4.00516e-05
4.00528e-05
4.0054e-05
4.00551e-05
4.00561e-05
4.0057e-05
4.00578e-05
4.00586e-05
4.00594e-05
4.00601e-05
4.00607e-05
4.00613e-05
4.00619e-05
4.00624e-05
4.00031e-05
4.00034e-05
4.00037e-05
4.0004e-05
4.00044e-05
4.00048e-05
4.00054e-05
4.00059e-05
4.00066e-05
4.00073e-05
4.0008e-05
4.00088e-05
4.00096e-05
4.00104e-05
4.00111e-05
4.0012e-05
4.00128e-05
4.00135e-05
4.00143e-05
4.00151e-05
4.00159e-05
4.00168e-05
4.00177e-05
4.00186e-05
4.00196e-05
4.00205e-05
4.00215e-05
4.00225e-05
4.00234e-05
4.00243e-05
4.00252e-05
4.00261e-05
4.00269e-05
4.00277e-05
4.00284e-05
4.00291e-05
4.00298e-05
4.00304e-05
4.0031e-05
4.00316e-05
4.00321e-05
0.00364567
0.00708758
0.0101002
0.0122406
0.0133638
0.0134624
0.012545
0.0106175
0.00777197
0.00418943
0.00103418
0.000191403
4.92224e-06
2.36038e-05
4.29105e-05
4.14095e-05
3.98887e-05
3.9978e-05
4.00597e-05
4.00598e-05
4.00672e-05
4.00727e-05
4.00735e-05
4.00731e-05
4.00718e-05
4.00695e-05
4.00664e-05
4.00629e-05
4.00594e-05
4.00561e-05
4.00533e-05
4.00512e-05
4.00497e-05
4.00486e-05
4.00479e-05
4.00474e-05
4.0047e-05
4.00465e-05
4.00461e-05
4.00456e-05
4.0045e-05
4.00444e-05
4.00437e-05
4.0043e-05
4.00421e-05
4.00412e-05
4.00401e-05
4.00389e-05
4.00376e-05
4.00361e-05
4.00344e-05
4.00326e-05
4.00306e-05
4.00284e-05
4.00259e-05
4.00232e-05
4.00204e-05
4.00175e-05
4.00145e-05
4.00115e-05
4.00089e-05
4.00071e-05
4.00067e-05
4.00079e-05
4.00107e-05
4.00147e-05
4.00196e-05
4.00252e-05
4.00314e-05
4.00381e-05
4.0045e-05
4.00531e-05
4.00596e-05
4.00755e-05
0.00624652
0.0108342
0.0143577
0.016646
0.0177943
0.0178908
0.0169779
0.0150762
0.012248
0.0085365
0.00420362
0.000802243
0.000173821
6.18757e-06
1.86639e-05
4.21512e-05
4.14297e-05
3.98136e-05
3.99584e-05
4.00897e-05
4.00731e-05
4.00692e-05
4.00755e-05
4.00757e-05
4.00733e-05
4.0071e-05
4.00682e-05
4.00647e-05
4.00609e-05
4.00573e-05
4.00543e-05
4.0052e-05
4.00503e-05
4.00491e-05
4.00483e-05
4.00478e-05
4.00473e-05
4.00469e-05
4.00464e-05
4.00459e-05
4.00453e-05
4.00447e-05
4.00441e-05
4.00433e-05
4.00425e-05
4.00415e-05
4.00404e-05
4.00392e-05
4.00379e-05
4.00364e-05
4.00347e-05
4.00329e-05
4.00308e-05
4.00286e-05
4.00261e-05
4.00235e-05
4.00207e-05
4.00178e-05
4.00149e-05
4.00119e-05
4.00093e-05
4.00074e-05
4.00069e-05
4.0008e-05
4.00106e-05
4.00145e-05
4.00193e-05
4.00248e-05
4.00309e-05
4.00375e-05
4.00445e-05
4.00525e-05
4.00589e-05
4.00746e-05
0.00873308
0.0147374
0.018974
0.0215178
0.0227506
0.022882
0.0219969
0.0201337
0.0173486
0.0136898
0.00917559
0.00420628
0.000742507
0.000172402
4.83716e-06
1.34318e-05
4.17918e-05
4.24577e-05
3.99825e-05
3.98605e-05
4.00855e-05
4.0091e-05
4.00703e-05
4.00751e-05
4.00779e-05
4.0074e-05
4.00696e-05
4.00661e-05
4.00626e-05
4.00589e-05
4.00555e-05
4.00528e-05
4.00509e-05
4.00497e-05
4.00488e-05
4.00482e-05
4.00477e-05
4.00472e-05
4.00467e-05
4.00462e-05
4.00457e-05
4.0045e-05
4.00444e-05
4.00436e-05
4.00428e-05
4.00418e-05
4.00407e-05
4.00395e-05
4.00381e-05
4.00366e-05
4.0035e-05
4.00331e-05
4.00311e-05
4.00288e-05
4.00264e-05
4.00237e-05
4.0021e-05
4.00182e-05
4.00153e-05
4.00124e-05
4.00097e-05
4.00078e-05
4.00071e-05
4.0008e-05
4.00105e-05
4.00142e-05
4.00189e-05
4.00244e-05
4.00304e-05
4.0037e-05
4.00439e-05
4.00518e-05
4.00582e-05
4.00737e-05
0.0111846
0.0188281
0.0239209
0.0268407
0.0282474
0.0284749
0.0276604
0.0258631
0.0231378
0.0195445
0.0151093
0.00983632
0.00435146
0.000742459
0.000198191
3.25757e-06
3.29808e-06
3.75845e-05
4.31153e-05
4.04326e-05
3.97898e-05
4.00595e-05
4.01235e-05
4.00775e-05
4.00666e-05
4.00749e-05
4.00752e-05
4.00691e-05
4.00636e-05
4.00599e-05
4.00569e-05
4.00541e-05
4.00518e-05
4.00502e-05
4.00492e-05
4.00485e-05
4.0048e-05
4.00475e-05
4.0047e-05
4.00465e-05
4.0046e-05
4.00454e-05
4.00447e-05
4.00439e-05
4.00431e-05
4.00421e-05
4.0041e-05
4.00398e-05
4.00384e-05
4.00369e-05
4.00352e-05
4.00334e-05
4.00313e-05
4.00291e-05
4.00267e-05
4.00241e-05
4.00214e-05
4.00186e-05
4.00158e-05
4.00129e-05
4.00102e-05
4.00082e-05
4.00074e-05
4.00081e-05
4.00103e-05
4.00139e-05
4.00185e-05
4.00239e-05
4.00299e-05
4.00364e-05
4.00432e-05
4.00511e-05
4.00574e-05
4.00727e-05
0.0137736
0.0231638
0.029151
0.0325568
0.0342488
0.0346608
0.0339845
0.0323056
0.0296823
0.0261758
0.0218398
0.0166722
0.010724
0.00475732
0.000871546
0.00027448
7.60239e-07
1.48625e-08
3.47253e-05
4.34925e-05
4.11882e-05
3.96876e-05
3.99047e-05
4.01489e-05
4.01227e-05
4.00675e-05
4.00628e-05
4.00717e-05
4.00706e-05
4.00634e-05
4.00575e-05
4.00543e-05
4.00526e-05
4.00511e-05
4.00498e-05
4.00489e-05
4.00483e-05
4.00478e-05
4.00474e-05
4.00468e-05
4.00463e-05
4.00457e-05
4.0045e-05
4.00442e-05
4.00434e-05
4.00424e-05
4.00413e-05
4.00401e-05
4.00387e-05
4.00372e-05
4.00355e-05
4.00337e-05
4.00316e-05
4.00294e-05
4.0027e-05
4.00244e-05
4.00218e-05
4.00191e-05
4.00163e-05
4.00135e-05
4.00108e-05
4.00087e-05
4.00077e-05
4.00082e-05
4.00102e-05
4.00136e-05
4.00181e-05
4.00234e-05
4.00292e-05
4.00357e-05
4.00424e-05
4.00502e-05
4.00565e-05
4.00716e-05
0.0171864
0.0278059
0.0346
0.0385774
0.0406722
0.0413768
0.0409307
0.0394486
0.0369973
0.0336359
0.0294262
0.0244075
0.0185758
0.0120208
0.00554826
0.00124006
0.000405588
3.16077e-05
8.87174e-06
2.5257e-05
4.27405e-05
4.29051e-05
4.00858e-05
3.95918e-05
4.0011e-05
4.01737e-05
4.01089e-05
4.00525e-05
4.00514e-05
4.00637e-05
4.00652e-05
4.00589e-05
4.00531e-05
4.00505e-05
4.00498e-05
4.00495e-05
4.00489e-05
4.00483e-05
4.00476e-05
4.00471e-05
4.00465e-05
4.0046e-05
4.00453e-05
4.00445e-05
4.00437e-05
4.00427e-05
4.00416e-05
4.00404e-05
4.0039e-05
4.00375e-05
4.00358e-05
4.0034e-05
4.00319e-05
4.00297e-05
4.00274e-05
4.00248e-05
4.00222e-05
4.00196e-05
4.00169e-05
4.00141e-05
4.00114e-05
4.00092e-05
4.0008e-05
4.00083e-05
4.00101e-05
4.00133e-05
4.00176e-05
4.00228e-05
4.00286e-05
4.00349e-05
4.00416e-05
4.00493e-05
4.00556e-05
4.00704e-05
0.0218888
0.0327682
0.0402029
0.0447926
0.0473906
0.0485014
0.0483952
0.0472116
0.0450286
0.0419039
0.0378962
0.0330615
0.0274346
0.0210145
0.0139073
0.00689399
0.00185281
0.000165371
5.45136e-05
5.90894e-06
6.92059e-06
3.57965e-05
4.41995e-05
4.17486e-05
3.96496e-05
3.96358e-05
4.00928e-05
4.02146e-05
4.01239e-05
4.00489e-05
4.00388e-05
4.0053e-05
4.00601e-05
4.00571e-05
4.00515e-05
4.00484e-05
4.00479e-05
4.00482e-05
4.00482e-05
4.00477e-05
4.0047e-05
4.00462e-05
4.00455e-05
4.00448e-05
4.0044e-05
4.0043e-05
4.00419e-05
4.00407e-05
4.00393e-05
4.00378e-05
4.00361e-05
4.00343e-05
4.00323e-05
4.00301e-05
4.00278e-05
4.00253e-05
4.00228e-05
4.00201e-05
4.00175e-05
4.00147e-05
4.0012e-05
4.00097e-05
4.00084e-05
4.00084e-05
4.001e-05
4.0013e-05
4.00171e-05
4.00221e-05
4.00278e-05
4.00341e-05
4.00407e-05
4.00484e-05
4.00545e-05
4.00692e-05
0.0274733
0.0380087
0.0458955
0.0510711
0.0542339
0.0558517
0.0561999
0.0554324
0.0536356
0.0508669
0.0471776
0.0426225
0.0372546
0.0311064
0.0241801
0.0165788
0.00900035
0.00327681
0.000250352
0.000197326
1.499e-06
8.8799e-06
2.2689e-05
4.09769e-05
4.39551e-05
4.09827e-05
3.93301e-05
3.95057e-05
4.0038e-05
4.02187e-05
4.01462e-05
4.00543e-05
4.00268e-05
4.00394e-05