/*--------------------------------*- C++ -*----------------------------------*\
| =========                 |                                                 |
| \\      /  F ield         | OpenFOAM: The Open Source CFD Toolbox           |
|  \\    /   O peration     | Version:  2312                                  |
|   \\  /    A nd           | Website:  www.openfoam.com                      |
|    \\/     M anipulation  |                                                 |
\*---------------------------------------------------------------------------*/
FoamFile
{
    version     2.0;
    format      ascii;
    arch        "LSB;label=32;scalar=64";
    class       volScalarField;
    location    "800";
    object      p;
}
// * * * * * * * * * * * * * * * * * * * * * * * * * * * * * * * * * * * * * //

dimensions      [0 2 -2 0 0 0 0];

internalField   nonuniform List<scalar> 
11040
(
-19.2172
-24.5911
-19.8928
-19.2671
-19.1424
-18.9402
-18.7393
-18.5731
-18.4464
-18.3584
-18.2792
-18.2146
-18.1642
-18.1191
-18.0857
-18.0595
-18.0424
-18.0343
-18.0346
-18.0447
-18.062
-18.088
-18.1257
-18.1739
-18.2267
-18.2786
-18.3219
-18.3474
-18.3444
-18.3017
-18.2097
-18.0606
-17.8505
-17.5816
-17.2681
-16.9336
-16.5955
-16.3219
-16.2844
-16.2537
-16.697
-8.25114
-14.7583
-18.6112
-19.0881
-19.101
-18.9499
-18.7498
-18.5796
-18.4473
-18.3578
-18.2779
-18.2117
-18.161
-18.1151
-18.0813
-18.0546
-18.037
-18.0285
-18.0284
-18.038
-18.0553
-18.0812
-18.1185
-18.1662
-18.2192
-18.2716
-18.316
-18.3432
-18.3425
-18.303
-18.2144
-18.0692
-17.8635
-17.5993
-17.2901
-16.9598
-16.6258
-16.3521
-16.3183
-16.2687
-17.108
-1.56959
-8.49886
-14.6962
-18.0288
-18.8449
-18.9019
-18.7564
-18.5863
-18.4448
-18.3545
-18.2751
-18.2073
-18.1565
-18.11
-18.0756
-18.0486
-18.0305
-18.0215
-18.0209
-18.03
-18.047
-18.0732
-18.1102
-18.1576
-18.2105
-18.2634
-18.3088
-18.3375
-18.3393
-18.303
-18.2186
-18.0784
-17.8786
-17.6211
-17.3191
-16.9965
-16.6716
-16.4037
-16.383
-16.3119
-17.3214
2.36296
-4.69956
-10.6281
-14.9717
-17.632
-18.609
-18.6767
-18.5866
-18.442
-18.3485
-18.2699
-18.1998
-18.15
-18.1026
-18.0678
-18.0403
-18.0216
-18.0123
-18.0112
-18.0197
-18.0364
-18.0628
-18.0998
-18.147
-18.2001
-18.2537
-18.3004
-18.3315
-18.3365
-18.3046
-18.2258
-18.0923
-17.9005
-17.6521
-17.3596
-17.0471
-16.7339
-16.4766
-16.4696
-16.3933
-17.4055
4.88648
-0.892776
-6.56168
-11.2892
-14.871
-17.2367
-18.2902
-18.4252
-18.4341
-18.3466
-18.2662
-18.1885
-18.1409
-18.0928
-18.0579
-18.0301
-18.0106
-18.0009
-17.9991
-18.0071
-18.0233
-18.0498
-18.0867
-18.1338
-18.1872
-18.2418
-18.2905
-18.3246
-18.334
-18.308
-18.2365
-18.112
-17.9308
-17.6943
-17.4147
-17.1156
-16.8177
-16.5764
-16.5775
-16.5155
-17.4422
6.32507
1.80739
-3.07309
-7.75387
-11.6519
-14.6113
-16.7216
-17.8491
-18.1911
-18.2919
-18.2661
-18.1796
-18.13
-18.0793
-18.0452
-18.0176
-17.9974
-17.9874
-17.9849
-17.9923
-18.0078
-18.0341
-18.0708
-18.1177
-18.1715
-18.2274
-18.2786
-18.3167
-18.3317
-18.3133
-18.2514
-18.1386
-17.9711
-17.7502
-17.4874
-17.2058
-16.9274
-16.7076
-16.7087
-16.6796
-17.477
7.10206
3.48531
-0.468391
-4.56704
-8.43663
-11.6976
-14.2303
-16.1327
-17.3567
-17.9439
-18.0956
-18.1732
-18.1272
-18.0676
-18.0287
-18.0013
-17.9812
-17.9717
-17.9685
-17.9753
-17.9897
-18.0155
-18.0517
-18.0983
-18.1526
-18.2101
-18.2644
-18.3075
-18.3297
-18.3209
-18.2712
-18.1733
-18.023
-17.8219
-17.5805
-17.3209
-17.0664
-16.8718
-16.8671
-16.8811
-17.5267
7.41032
4.47809
1.33126
-2.03671
-5.47647
-8.74182
-11.563
-13.7984
-15.5277
-16.8061
-17.5585
-17.8853
-18.0354
-18.073
-18.0194
-17.9854
-17.9602
-17.9521
-17.9491
-17.9559
-17.9693
-17.9941
-18.0292
-18.0752
-18.1298
-18.1891
-18.2472
-18.2964
-18.3276
-18.3308
-18.2963
-18.2167
-18.088
-17.9111
-17.696
-17.4628
-17.2362
-17.068
-17.0552
-17.1082
-17.5943
7.41095
4.99574
2.46786
-0.250901
-3.12239
-6.02831
-8.82272
-11.3098
-13.3379
-14.93
-16.1776
-17.0726
-17.6001
-17.8333
-17.9767
-17.9897
-17.945
-17.9311
-17.9242
-17.9325
-17.9454
-17.9693
-18.0032
-18.0482
-18.1029
-18.164
-18.2263
-18.2827
-18.3245
-18.3421
-18.3259
-18.2686
-18.1657
-18.0179
-17.8336
-17.631
-17.4348
-17.291
-17.2696
-17.341
-17.6765
7.19731
5.1732
3.11141
0.920255
-1.42538
-3.87419
-6.35044
-8.76259
-10.9772
-12.8529
-14.3385
-15.5321
-16.4989
-17.1829
-17.5793
-17.7912
-17.9256
-17.9322
-17.9043
-17.9069
-17.9154
-17.939
-17.9724
-18.0165
-18.0714
-18.1343
-18.2011
-18.2653
-18.3191
-18.3531
-18.3581
-18.3264
-18.2535
-18.1388
-17.9892
-17.8201
-17.6543
-17.5298
-17.4974
-17.5573
-17.7628
6.8373
5.11551
3.40504
1.62271
-0.282499
-2.30375
-4.40312
-6.52774
-8.61785
-10.5904
-12.3294
-13.7582
-14.9107
-15.8729
-16.6504
-17.2053
-17.5393
-17.757
-17.8931
-17.9059
-17.8903
-17.9044
-17.933
-17.9761
-18.0325
-18.0982
-18.17
-18.243
-18.3097
-18.3616
-18.3897
-18.3862
-18.3454
-18.266
-18.1524
-18.0168
-17.8782
-17.7655
-17.7151
-17.7358
-17.8309
6.37952
4.89545
3.45248
1.9814
0.426507
-1.2277
-2.9725
-4.77996
-6.61111
-8.42391
-10.1676
-11.7736
-13.1634
-14.3021
-15.2398
-16.0415
-16.698
-17.1816
-17.4949
-17.7278
-17.8735
-17.902
-17.9029
-17.9311
-17.9823
-18.0488
-18.1269
-18.2107
-18.2923
-18.3635
-18.4159
-18.4413
-18.4329
-18.3879
-18.3078
-18.2007
-18.0812
-17.9698
-17.8906
-17.8537
-17.8528
5.86078
4.56789
3.33263
2.0996
0.815654
-0.541692
-1.97786
-3.48633
-5.04708
-6.62908
-8.19932
-9.73294
-11.1969
-12.5306
-13.6719
-14.6111
-15.404
-16.0969
-16.6786
-17.124
-17.4237
-17.6675
-17.8621
-17.9453
-17.9663
-18.002
-18.0694
-18.1571
-18.2528
-18.3449
-18.4233
-18.4788
-18.503
-18.4902
-18.439
-18.3535
-18.2426
-18.1192
-17.9981
-17.8933
-17.8054
5.3089
4.17344
3.10336
2.05507
0.980461
-0.143412
-1.32713
-2.57403
-3.87976
-5.22849
-6.59505
-7.9586
-9.30535
-10.6169
-11.8609
-12.9872
-13.9517
-14.7572
-15.454
-16.0763
-16.6213
-17.0144
-17.2725
-17.5298
-17.8022
-18.0017
-18.1012
-18.1558
-18.2163
-18.2952
-18.383
-18.463
-18.5191
-18.5395
-18.5168
-18.4497
-18.3421
-18.2011
-18.0351
-17.8629
-17.6941
4.74483
3.74223
2.8071
1.90545
0.994577
0.0533617
-0.929293
-1.96053
-3.04321
-4.1728
-5.33627
-6.51887
-7.70671
-8.88586
-10.0456
-11.1729
-12.2429
-13.217
-14.0652
-14.791
-15.4554
-16.0031
-16.4053
-16.746
-17.0319
-17.2911
-17.5887
-17.912
-18.1819
-18.3543
-18.4469
-18.4938
-18.5142
-18.5125
-18.4837
-18.4195
-18.3127
-18.163
-17.9708
-17.7519
-17.5223
4.18839
3.30015
2.47764
1.69454
0.913596
0.116258
-0.707559
-1.56575
-2.46368
-3.40239
-4.37687
-5.38029
-6.40442
-7.43701
-8.46611
-9.48306
-10.4823
-11.4559
-12.3884
-13.25
-14.0265
-14.6773
-15.1975
-15.6435
-16.0385
-16.3881
-16.6908
-16.9493
-17.1999
-17.4911
-17.8228
-18.1384
-18.3739
-18.5005
-18.5201
-18.4502
-18.3071
-18.1031
-17.8399
-17.538
-17.2277
3.66166
2.87376
2.1475
1.46231
0.786181
0.103321
-0.594799
-1.31546
-2.06464
-2.84532
-3.65663
-4.49635
-5.36129
-6.24469
-7.13768
-8.0307
-8.91546
-9.78627
-10.6401
-11.4732
-12.2768
-13.014
-13.6569
-14.2111
-14.6953
-15.127
-15.5139
-15.8612
-16.1733
-16.4471
-16.6773
-16.872
-17.0524
-17.2357
-17.4101
-17.5468
-17.6121
-17.5882
-17.458
-17.2371
-16.9662
3.19557
2.49193
1.84566
1.23945
0.645775
0.0514119
-0.550693
-1.16686
-1.8025
-2.46091
-3.14311
-3.84911
-4.57814
-5.32685
-6.09027
-6.86208
-7.63524
-8.40288
-9.15922
-9.90066
-10.6239
-11.3043
-11.9273
-12.4945
-13.0053
-13.4629
-13.8733
-14.2449
-14.5836
-14.8913
-15.1687
-15.4155
-15.6252
-15.7913
-15.9019
-15.9539
-15.9486
-15.9006
-15.8013
-15.6515
-15.4889
2.79812
2.16423
1.58373
1.04137
0.513225
-0.0117974
-0.539672
-1.07593
-1.62541
-2.19129
-2.77485
-3.37705
-3.99813
-4.63646
-5.2892
-5.95256
-6.62194
-7.29223
-7.95781
-8.6129
-9.25173
-9.84783
-10.3869
-10.8758
-11.3194
-11.7234
-12.0924
-12.4291
-12.7358
-13.0148
-13.2672
-13.4928
-13.6879
-13.8486
-13.9686
-14.043
-14.0659
-14.0404
-13.9592
-13.8151
-13.6469
2.46118
1.88673
1.36175
0.872483
0.398092
-0.0708143
-0.539357
-1.01235
-1.49399
-1.98713
-2.49304
-3.01295
-3.54753
-4.09597
-4.65651
-5.22665
-5.80317
-6.38233
-6.95998
-7.53163
-8.09263
-8.61972
-9.09827
-9.53146
-9.92023
-10.2671
-10.5755
-10.849
-11.0906
-11.3025
-11.4859
-11.6408
-11.767
-11.864
-11.9309
-11.966
-11.9671
-11.9332
-11.8627
-11.7486
-11.6028
2.17379
1.65102
1.17395
0.729976
0.301011
-0.120986
-0.540438
-0.961573
-1.388
-1.8222
-2.26534
-2.71852
-3.18256
-3.65704
-4.14075
-4.63198
-5.12833
-5.62694
-6.1245
-6.61737
-7.10169
-7.55823
-7.97462
-8.35259
-8.69168
-8.99263
-9.25666
-9.48526
-9.67992
-9.84225
-9.97379
-10.0759
-10.1498
-10.1959
-10.2149
-10.2065
-10.1712
-10.1075
-10.0178
-9.9011
-9.76037
1.92768
1.45059
1.01554
0.611039
0.221336
-0.16044
-0.53821
-0.915647
-1.29588
-1.681
-2.07208
-2.46996
-2.87547
-3.28829
-3.70756
-4.13193
-4.55958
-4.9882
-5.41509
-5.83713
-6.25097
-6.64048
-6.99558
-7.3174
-7.6054
-7.85991
-8.08172
-8.27165
-8.43065
-8.55968
-8.65975
-8.7318
-8.77688
-8.79599
-8.79061
-8.76161
-8.71045
-8.63742
-8.54575
-8.43541
-8.30979
1.71613
1.2798
0.882078
0.512429
0.157224
-0.189482
-0.531156
-0.871033
-1.21179
-1.5552
-1.90216
-2.25335
-2.60941
-2.97012
-3.33476
-3.7022
-4.07093
-4.43908
-4.80438
-5.16421
-5.51568
-5.84539
-6.14515
-6.41574
-6.65652
-6.86764
-7.04971
-7.20345
-7.32971
-7.42943
-7.50363
-7.55337
-7.57974
-7.5839
-7.56722
-7.53065
-7.47534
-7.40228
-7.31381
-7.21044
-7.0948
1.53375
1.1341
0.769796
0.43127
0.106729
-0.208963
-0.518928
-0.825986
-1.13246
-1.4398
-1.74878
-2.05992
-2.37367
-2.68983
-3.00775
-3.32643
-3.6446
-3.96064
-4.27264
-4.57834
-4.8753
-5.15244
-5.40332
-5.62853
-5.82749
-6.00032
-6.14758
-6.26993
-6.36822
-6.44338
-6.49649
-6.52861
-6.54094
-6.53462
-6.51103
-6.47121
-6.41633
-6.34738
-6.26626
-6.17371
-6.07146
1.37617
1.00966
0.675487
0.364944
0.0679085
-0.220116
-0.501913
-0.779986
-1.0563
-1.33209
-1.60797
-1.88433
-2.16146
-2.43916
-2.7168
-2.9935
-3.26812
-3.53928
-3.80531
-4.0643
-4.31414
-4.5458
-4.75429
-4.9402
-5.10306
-5.24307
-5.36079
-5.45693
-5.53229
-5.58785
-5.62462
-5.64374
-5.64632
-5.63355
-5.60671
-5.56688
-5.51517
-5.45247
-5.38048
-5.29986
-5.21239
1.23976
0.903335
0.596429
0.311196
0.038968
-0.224185
-0.480779
-0.733011
-0.982564
-1.23048
-1.47723
-1.72311
-1.96829
-2.21253
-2.45524
-2.69562
-2.93266
-3.16515
-3.39166
-3.61055
-3.82004
-4.01278
-4.18508
-4.33751
-4.46978
-4.58217
-4.67529
-4.74988
-4.80676
-4.84686
-4.87119
-4.88081
-4.87681
-4.86027
-4.83237
-4.7941
-4.74648
-4.69028
-4.627
-4.55712
-4.48241
1.12153
0.812468
0.530326
0.268058
0.0183126
-0.222385
-0.456292
-0.68536
-0.911008
-1.13412
-1.35507
-1.57407
-1.79117
-2.00614
-2.21841
-2.42727
-2.63181
-2.83098
-3.02355
-3.20815
-3.38328
-3.54302
-3.68471
-3.80896
-3.91565
-4.00514
-4.07807
-4.13521
-4.17737
-4.20544
-4.2204
-4.22321
-4.21488
-4.19637
-4.16875
-4.13289
-4.08967
-4.03974
-3.98438
-3.92394
-3.85999
1.01896
0.734843
0.475219
0.233858
0.00452996
-0.215813
-0.429232
-0.637428
-0.841633
-1.04257
-1.24055
-1.4357
-1.62804
-1.81729
-2.00295
-2.18437
-2.36076
-2.53121
-2.6947
-2.85005
-2.99607
-3.128
-3.24403
-3.3448
-3.43033
-3.50105
-3.55763
-3.60084
-3.63146
-3.65035
-3.65838
-3.65647
-3.6455
-3.62633
-3.59988
-3.56691
-3.52818
-3.48422
-3.43611
-3.38412
-3.32959
0.929952
0.668563
0.42946
0.207145
-0.00359322
-0.205457
-0.400313
-0.589661
-0.774554
-0.955606
-1.13306
-1.307
-1.47741
-1.644
-1.80635
-1.96385
-2.11584
-2.26156
-2.40014
-2.53063
-2.65207
-2.7607
-2.85536
-2.93672
-3.0049
-3.0604
-3.10388
-3.1361
-3.1578
-3.16978
-3.17284
-3.16779
-3.15541
-3.13647
-3.11173
-3.08186
-3.04749
-3.00908
-2.96751
-2.92298
-2.87667
0.852685
0.612039
0.391628
0.186693
-0.00711301
-0.192169
-0.370185
-0.542469
-0.70994
-0.873107
-1.03218
-1.18721
-1.33815
-1.48476
-1.62663
-1.76327
-1.89412
-2.01853
-2.13582
-2.24522
-2.34599
-2.43516
-2.51212
-2.57753
-2.63161
-2.67486
-2.70796
-2.73161
-2.74651
-2.7534
-2.75299
-2.746
-2.73311
-2.71497
-2.69225
-2.66551
-2.63526
-2.6019
-2.56613
-2.52812
-2.48887
0.785635
0.563892
0.36053
0.171439
-0.00692637
-0.176693
-0.339408
-0.496233
-0.647954
-0.79502
-0.937603
-1.07574
-1.20939
-1.33833
-1.46222
-1.58066
-1.69317
-1.79925
-1.89836
-1.98991
-2.07333
-2.14634
-2.2087
-2.26109
-2.30376
-2.33724
-2.36216
-2.3792
-2.38901
-2.39222
-2.3895
-2.38145
-2.36867
-2.35172
-2.33114
-2.30742
-2.28099
-2.25214
-2.22149
-2.18913
-2.15593
0.727478
0.522966
0.335121
0.160489
-0.00380788
-0.159656
-0.308468
-0.45127
-0.588748
-0.721297
-0.849072
-0.972113
-1.09038
-1.20369
-1.3118
-1.41434
-1.51096
-1.60129
-1.68491
-1.76137
-1.83028
-1.88989
-1.94028
-1.98209
-2.0156
-2.04134
-2.05991
-2.07192
-2.07797
-2.07862
-2.07445
-2.06599
-2.05375
-2.03819
-2.01979
-1.99892
-1.97596
-1.95114
-1.92496
-1.89747
-1.86944
0.677085
0.488241
0.314529
0.153065
0.00158878
-0.141595
-0.277768
-0.407848
-0.532435
-0.651888
-0.766358
-0.875894
-0.980476
-1.07997
-1.17419
-1.26287
-1.34573
-1.42252
-1.49294
-1.55668
-1.61348
-1.66203
-1.70262
-1.73585
-1.76204
-1.78167
-1.79532
-1.80354
-1.80685
-1.80577
-1.80079
-1.79236
-1.78091
-1.76684
-1.75053
-1.73231
-1.71247
-1.69121
-1.66892
-1.64564
-1.62204
0.63347
0.458863
0.297979
0.148512
0.00869869
-0.122961
-0.247649
-0.366181
-0.479097
-0.58673
-0.689238
-0.786688
-0.87909
-0.966358
-1.04838
-1.12495
-1.19591
-1.26109
-1.32029
-1.37332
-1.42005
-1.4595
-1.49211
-1.51845
-1.53884
-1.55372
-1.56362
-1.56905
-1.57046
-1.5683
-1.56298
-1.5549
-1.54442
-1.53187
-1.51756
-1.50176
-1.4847
-1.46656
-1.44765
-1.42797
-1.40812
0.595785
0.434065
0.284825
0.146251
0.0170484
-0.104136
-0.218387
-0.326438
-0.428783
-0.525743
-0.617491
-0.70412
-0.785676
-0.862127
-0.933421
-0.999446
-1.0601
-1.11531
-1.16497
-1.20899
-1.24733
-1.27928
-1.30538
-1.32616
-1.34192
-1.35308
-1.36011
-1.36346
-1.36354
-1.36072
-1.35536
-1.34781
-1.33835
-1.32726
-1.31479
-1.30118
-1.28661
-1.2712
-1.25522
-1.23866
-1.22203
0.563285
0.413204
0.274482
0.145797
0.0262243
-0.0854436
-0.190211
-0.288746
-0.381513
-0.468829
-0.550893
-0.627829
-0.699724
-0.766601
-0.828469
-0.885296
-0.93705
-0.983725
-1.02531
-1.0618
-1.0932
-1.11906
-1.13993
-1.15632
-1.1685
-1.17685
-1.18179
-1.18372
-1.18298
-1.1799
-1.17478
-1.16791
-1.15951
-1.14983
-1.13908
-1.12742
-1.11502
-1.10198
-1.08851
-1.07459
-1.06066
0.535338
0.395709
0.26647
0.146717
0.0358738
-0.0671567
-0.163308
-0.253203
-0.337283
-0.415879
-0.489217
-0.557463
-0.620742
-0.679138
-0.73271
-0.781504
-0.825541
-0.864883
-0.899583
-0.929692
-0.955286
-0.976068
-0.992628
-1.00541
-1.01467
-1.02076
-1.02406
-1.02489
-1.02357
-1.02038
-1.01556
-1.00935
-1.00196
-0.993573
-0.984351
-0.974445
-0.963979
-0.95303
-0.941773
-0.930168
-0.918618
0.511373
0.381092
0.260351
0.148654
0.0456968
-0.0495087
-0.137836
-0.219877
-0.296072
-0.366771
-0.432238
-0.49268
-0.548274
-0.599153
-0.64544
-0.687241
-0.724639
-0.757747
-0.786682
-0.811538
-0.832444
-0.849221
-0.86246
-0.872544
-0.879711
-0.88426
-0.886519
-0.886774
-0.885283
-0.882272
-0.877959
-0.872528
-0.866153
-0.858976
-0.851144
-0.842764
-0.833946
-0.824744
-0.815308
-0.805586
-0.795941
0.490855
0.368864
0.255721
0.151262
0.0554231
-0.0326957
-0.11392
-0.188819
-0.257844
-0.321378
-0.379729
-0.433148
-0.481859
-0.526047
-0.565881
-0.601521
-0.63309
-0.660743
-0.684638
-0.704905
-0.721707
-0.734958
-0.745241
-0.752895
-0.758139
-0.761239
-0.762487
-0.762129
-0.760388
-0.757456
-0.753513
-0.748713
-0.743199
-0.737084
-0.730485
-0.723487
-0.716178
-0.708595
-0.700859
-0.692912
-0.685078
0.473315
0.35858
0.25215
0.15418
0.0647652
-0.0169238
-0.0916805
-0.16007
-0.22256
-0.279573
-0.331466
-0.37855
-0.421101
-0.459362
-0.493555
-0.523897
-0.550561
-0.573739
-0.59362
-0.610363
-0.624146
-0.634948
-0.6433
-0.649488
-0.653698
-0.656151
-0.65709
-0.656717
-0.655213
-0.652731
-0.649419
-0.645398
-0.640785
-0.63567
-0.630149
-0.62429
-0.618164
-0.611802
-0.605307
-0.598623
-0.592033
0.458528
0.350013
0.2494
0.157128
0.0734544
-0.00240665
-0.0712523
-0.133675
-0.190183
-0.241235
-0.287242
-0.328561
-0.365523
-0.398401
-0.427451
-0.452907
-0.474976
-0.493869
-0.50981
-0.522979
-0.533577
-0.541636
-0.547676
-0.55195
-0.55463
-0.555914
-0.556021
-0.555125
-0.553384
-0.550925
-0.547873
-0.544324
-0.540375
-0.536092
-0.531551
-0.5268
-0.521896
-0.516854
-0.511754
-0.506533
-0.50145
0.446341
0.34314
0.247503
0.160138
0.0814584
0.0107699
-0.0527186
-0.109659
-0.160647
-0.206222
-0.246853
-0.282953
-0.314909
-0.34309
-0.36783
-0.389429
-0.408112
-0.424098
-0.437589
-0.448769
-0.457819
-0.464802
-0.470139
-0.474039
-0.476623
-0.478057
-0.4785
-0.478097
-0.476957
-0.475188
-0.472878
-0.470112
-0.466957
-0.463478
-0.459728
-0.455758
-0.451607
-0.447301
-0.4429
-0.438368
-0.433902
0.435875
0.337178
0.245948
0.162978
0.0887461
0.0226386
-0.0360737
-0.0880429
-0.133925
-0.174375
-0.20998
-0.241226
-0.268491
-0.292077
-0.31227
-0.329393
-0.343754
-0.355652
-0.365345
-0.373044
-0.378942
-0.383135
-0.386043
-0.387859
-0.388696
-0.388709
-0.388041
-0.386822
-0.385146
-0.383105
-0.38077
-0.378207
-0.375464
-0.372589
-0.369615
-0.366574
-0.363491
-0.360375
-0.357266
-0.354112
-0.351105
0.42561
0.330223
0.242753
0.163967
0.0941639
0.0325975
-0.0215441
-0.068925
-0.110164
-0.14589
-0.176751
-0.203418
-0.226549
-0.246719
-0.264327
-0.279603
-0.292675
-0.303707
-0.312897
-0.320444
-0.326522
-0.331234
-0.334886
-0.33761
-0.339486
-0.340623
-0.34112
-0.341065
-0.340522
-0.339558
-0.338222
-0.336567
-0.334633
-0.332462
-0.330084
-0.327535
-0.324838
-0.322014
-0.319097
-0.316077
-0.31306
0.416873
0.323158
0.237932
0.162249
0.0963943
0.0394262
-0.00979479
-0.0522811
-0.0888934
-0.120316
-0.147037
-0.169402
-0.187708
-0.202323
-0.213782
-0.222752
-0.2298
-0.23527
-0.239365
-0.242239
-0.24404
-0.244858
-0.245014
-0.244629
-0.243775
-0.242554
-0.241058
-0.239368
-0.23754
-0.235627
-0.233665
-0.23169
-0.229723
-0.227784
-0.225883
-0.224034
-0.222243
-0.220507
-0.218842
-0.2172
-0.215717
0.415639
0.323363
0.238936
0.164036
0.0995672
0.0450609
-0.000485458
-0.038264
-0.069582
-0.0957566
-0.118009
-0.137365
-0.15457
-0.170015
-0.183702
-0.195389
-0.205004
-0.212837
-0.219266
-0.224569
-0.228932
-0.232493
-0.235443
-0.23785
-0.239757
-0.241224
-0.242298
-0.243022
-0.24342
-0.243524
-0.243357
-0.242946
-0.242309
-0.241472
-0.240452
-0.239271
-0.237943
-0.236489
-0.234917
-0.23326
-0.231501
0.419236
0.329748
0.247395
0.173488
0.109092
0.0542964
0.00874126
-0.0281495
-0.0571181
-0.0790278
-0.0947899
-0.105347
-0.111671
-0.114796
-0.11584
-0.11583
-0.115195
-0.114
-0.112251
-0.110028
-0.107426
-0.104486
-0.101426
-0.0983245
-0.0952197
-0.0921634
-0.0892011
-0.0863689
-0.0836861
-0.081168
-0.0788192
-0.0766429
-0.0746341
-0.0727873
-0.0710908
-0.0695371
-0.068116
-0.0668113
-0.065619
-0.0644954
-0.063512
0.400638
0.309622
0.2304
0.162362
0.104664
0.0560319
0.0151876
-0.0189852
-0.047465
-0.0711245
-0.0907492
-0.10704
-0.120614
-0.131984
-0.141533
-0.1496
-0.156479
-0.162081
-0.166772
-0.170941
-0.174812
-0.178509
-0.181999
-0.185259
-0.188321
-0.191204
-0.193921
-0.196471
-0.198864
-0.201109
-0.20322
-0.205206
-0.207085
-0.208867
-0.210569
-0.212202
-0.21378
-0.215315
-0.216808
-0.218306
-0.219709
-15.6443
-14.6227
-13.8262
-13.4723
-13.135
-12.7178
-12.2417
-11.7042
-11.1085
-10.4672
-9.78901
-9.07835
-8.35678
-7.63529
-6.92492
-6.23783
-5.57707
-4.9521
-4.36393
-3.81844
-3.31496
-2.85541
-2.43904
-2.06485
-1.73134
-1.43608
-1.17698
-0.950542
-0.754757
-0.586185
-0.442218
-0.319745
-0.216616
-0.13004
-0.0580137
0.0015605
0.0504701
0.0903071
0.122406
0.14805
0.168089
0.183663
0.195395
0.203747
0.209759
0.213232
0.215147
0.215481
0.214493
0.212487
0.209719
0.206064
0.201859
0.197076
0.191814
0.186142
0.179933
0.173438
0.166465
0.159147
0.151373
0.143202
0.134557
0.125439
0.11578
0.105672
0.0947322
0.08369
0.070895
0.0597514
0.0426005
0.036804
0.00308899
0.0306859
-16.354
-15.3421
-14.4093
-13.88
-13.4365
-12.9554
-12.4338
-11.8607
-11.2368
-10.5738
-9.88274
-9.16381
-8.42979
-7.69478
-6.97255
-6.27483
-5.60517
-4.97249
-4.3781
-3.82731
-3.31968
-2.85679
-2.43786
-2.06175
-1.72688
-1.43072
-1.17103
-0.944361
-0.748542
-0.580127
-0.436408
-0.314306
-0.211576
-0.125454
-0.053883
0.00524081
0.0537124
0.0931327
0.124849
0.150116
0.169835
0.185112
0.196551
0.204679
0.210449
0.213741
0.215484
0.215652
0.214539
0.212422
0.209549
0.205814
0.201537
0.196697
0.191389
0.185672
0.179439
0.17292
0.165934
0.158607
0.150833
0.142666
0.134031
0.124927
0.115288
0.1052
0.0942968
0.0832802
0.0705297
0.0594136
0.0423421
0.0365453
0.00298608
0.0305573
-16.8381
-16.0831
-15.0841
-14.3824
-13.8162
-13.2547
-12.6748
-12.0568
-11.3967
-10.7032
-9.98862
-9.25747
-8.5135
-7.76495
-7.02853
-6.31812
-5.6378
-4.99592
-4.3941
-3.83708
-3.3246
-2.85783
-2.43595
-2.05768
-1.72128
-1.42413
-1.16386
-0.936975
-0.741178
-0.572996
-0.429624
-0.307988
-0.205757
-0.12018
-0.0491537
0.00943646
0.0573944
0.0963313
0.127598
0.152446
0.171797
0.18673
0.197852
0.205719
0.211228
0.214316
0.215867
0.215861
0.21461
0.21237
0.209388
0.205565
0.201211
0.19631
0.190951
0.185188
0.17893
0.172385
0.165386
0.15805
0.150276
0.142112
0.133487
0.124398
0.11478
0.104715
0.0938448
0.0828562
0.0701519
0.059064
0.0420746
0.0362732
0.00288651
0.0304086
-17.2587
-16.7346
-15.7777
-14.9557
-14.2682
-13.6163
-12.968
-12.297
-11.594
-10.8637
-10.1167
-9.36159
-8.6047
-7.84516
-7.09432
-6.36888
-5.67578
-5.02299
-4.41228
-3.84791
-3.32973
-2.85844
-2.43316
-2.05242
-1.71431
-1.41608
-1.15521
-0.928144
-0.732439
-0.564583
-0.421675
-0.300621
-0.19901
-0.114091
-0.0437163
0.0142429
0.0615967
0.0999699
0.130714
0.155088
0.174012
0.188549
0.199322
0.206886
0.212113
0.21497
0.216304
0.216115
0.214713
0.212336
0.209236
0.205318
0.200881
0.195915
0.190502
0.184692
0.178406
0.171833
0.164821
0.157475
0.149701
0.14154
0.132926
0.123853
0.114255
0.104215
0.0933764
0.0824176
0.0697614
0.0587022
0.0417989
0.0359872
0.00279238
0.0302391
-17.5949
-17.2638
-16.4325
-15.5632
-14.7778
-14.0371
-13.3149
-12.5842
-11.832
-11.0592
-10.2741
-9.4852
-8.70391
-7.93098
-7.16823
-6.42767
-5.7197
-5.05393
-4.43268
-3.85969
-3.33481
-2.85827
-2.4291
-2.04557
-1.70556
-1.40617
-1.14471
-0.917532
-0.722023
-0.554619
-0.41232
-0.291996
-0.191152
-0.107033
-0.0374414
0.0197642
0.0664057
0.104118
0.134254
0.158078
0.176512
0.190598
0.200974
0.208196
0.213108
0.215705
0.216799
0.21641
0.21484
0.212314
0.209086
0.205066
0.20054
0.195503
0.190031
0.184174
0.177858
0.171257
0.164231
0.156876
0.149102
0.140944
0.132342
0.123286
0.11371
0.103697
0.0928911
0.0819634
0.0693582
0.0583274
0.0415164
0.0356869
0.00270697
0.0300453
-17.8489
-17.6725
-16.9995
-16.1545
-15.3152
-14.5026
-13.7101
-12.9177
-12.1124
-11.2925
-10.4646
-9.63632
-8.81989
-8.02228
-7.24538
-6.49202
-5.76927
-5.08888
-4.45511
-3.87198
-3.33933
-2.85674
-2.42313
-2.03648
-1.69441
-1.39382
-1.13181
-0.904633
-0.70948
-0.542711
-0.401212
-0.281812
-0.181927
-0.0987871
-0.0301428
0.0261589
0.071953
0.108884
0.138312
0.161493
0.179359
0.192927
0.202849
0.209682
0.214236
0.216541
0.217369
0.216754
0.214998
0.212309
0.208941
0.20481
0.200186
0.195075
0.189539
0.183633
0.177283
0.170653
0.163613
0.156248
0.148474
0.140321
0.131732
0.122694
0.113142
0.103155
0.0923858
0.0814897
0.0689389
0.0579359
0.0412252
0.0353684
0.00262986
0.0298242
-18.0271
-17.9618
-17.4475
-16.6785
-15.8369
-14.9833
-14.1355
-13.2874
-12.4301
-11.562
-10.6885
-9.8173
-8.96016
-8.12682
-7.32479
-6.55642
-5.82077
-5.1262
-4.47936
-3.88421
-3.34241
-2.85293
-2.41433
-2.02425
-1.67998
-1.37821
-1.11577
-0.888787
-0.69422
-0.528339
-0.387899
-0.269684
-0.171004
-0.0890756
-0.0215915
0.0336148
0.0783928
0.114395
0.142984
0.165412
0.182615
0.195585
0.204984
0.211372
0.21552
0.217495
0.218022
0.217157
0.215193
0.212324
0.208802
0.204549
0.19982
0.194627
0.189024
0.183064
0.176679
0.170019
0.162963
0.155588
0.147816
0.139668
0.131093
0.122074
0.112547
0.102589
0.0918585
0.0809954
0.0685024
0.0575266
0.0409242
0.0350313
0.00256093
0.029574
-18.1307
-18.1338
-17.7591
-17.0925
-16.2939
-15.4373
-14.5598
-13.6709
-12.7703
-11.8584
-10.9409
-10.026
-9.12587
-8.25154
-7.41342
-6.61927
-5.86848
-5.16108
-4.50216
-3.89509
-3.343
-2.84561
-2.40135
-2.0076
-1.66113
-1.35828
-1.09562
-0.869119
-0.675481
-0.510848
-0.371821
-0.255133
-0.15798
-0.0775572
-0.0115029
0.0423691
0.0859198
0.12081
0.148404
0.169943
0.186366
0.19864
0.207434
0.213308
0.216991
0.218591
0.218778
0.217632
0.215433
0.212366
0.208673
0.204286
0.199442
0.194161
0.188484
0.182467
0.176045
0.169352
0.16228
0.154896
0.147125
0.138983
0.130423
0.121425
0.111925
0.101998
0.0913078
0.0804789
0.0680473
0.0570983
0.0406126
0.0346738
0.00250048
0.0292932
-18.1679
-18.1988
-17.926
-17.3676
-16.6401
-15.8164
-14.9401
-14.0335
-13.1052
-12.1606
-11.2065
-10.2524
-9.311
-8.39512
-7.51655
-6.68624
-5.90984
-5.18734
-4.51695
-3.89963
-3.33774
-2.83295
-2.38257
-1.9848
-1.63612
-1.33251
-1.07007
-0.844506
-0.652261
-0.489349
-0.352221
-0.237527
-0.142327
-0.0637954
0.000485301
0.0527183
0.0947756
0.128322
0.154723
0.175205
0.190707
0.202165
0.210255
0.215531
0.218681
0.219848
0.21965
0.218186
0.215724
0.212435
0.208551
0.204017
0.199048
0.19367
0.187914
0.181835
0.175373
0.168647
0.161559
0.154165
0.146396
0.138262
0.129719
0.120744
0.111272
0.101378
0.0907313
0.0799386
0.0675726
0.0566502
0.0402897
0.0342957
0.00244907
0.0289806
-18.1455
-18.1666
-17.9529
-17.4868
-16.8406
-16.0735
-15.228
-14.3301
-13.3958
-12.4356
-11.4588
-10.476
-9.50084
-8.54783
-7.63041
-6.76106
-5.94967
-5.20188
-4.51672
-3.89093
-3.32116
-2.80963
-2.35437
-1.9535
-1.60298
-1.29886
-1.03715
-0.81328
-0.623237
-0.46276
-0.32816
-0.216048
-0.123357
-0.0472292
0.0148245
0.0650295
0.105261
0.13718
0.162144
0.181359
0.195762
0.206258
0.213523
0.218099
0.220635
0.221303
0.220662
0.218839
0.216076
0.212539
0.208442
0.203744
0.198636
0.193152
0.18731
0.181167
0.174661
0.1679
0.160796
0.153392
0.145626
0.137501
0.128976
0.120026
0.110586
0.100727
0.0901271
0.0793724
0.0670765
0.0561806
0.039955
0.0338949
0.00240696
0.0286349
-18.0665
-18.0439
-17.8485
-17.4468
-16.8754
-16.1733
-15.3772
-14.5122
-13.5952
-12.6405
-11.6594
-10.6641
-9.66898
-8.68961
-7.74086
-6.83673
-5.98962
-5.20916
-4.49972
-3.8606
-3.2857
-2.76975
-2.31076
-1.90779
-1.55755
-1.25479
-0.994903
-0.773403
-0.586392
-0.429368
-0.298332
-0.189695
-0.100241
-0.0271384
0.0321279
0.0797999
0.117764
0.147682
0.170902
0.188594
0.201684
0.211039
0.217327
0.221079
0.222899
0.222986
0.221839
0.219603
0.216498
0.212679
0.208345
0.203464
0.198203
0.192601
0.186666
0.180452
0.1739
0.167103
0.159981
0.152569
0.144808
0.136694
0.12819
0.119268
0.109862
0.10004
0.0894912
0.0787774
0.0665565
0.0556871
0.0396063
0.0334708
0.00237351
0.0282553
-17.9261
-17.8388
-17.6251
-17.254
-16.7383
-16.0979
-15.3564
-14.5367
-13.6559
-12.7274
-11.7626
-10.7745
-9.77795
-8.78901
-7.823
-6.89497
-6.01941
-5.20864
-4.47061
-3.80909
-3.22229
-2.70353
-2.24593
-1.84356
-1.4939
-1.19389
-0.938731
-0.722292
-0.540024
-0.387437
-0.260888
-0.156823
-0.0717355
-0.00265058
0.0530508
0.0975851
0.132773
0.160243
0.181319
0.19715
0.208652
0.216644
0.221776
0.224557
0.225541
0.224946
0.223215
0.220502
0.217006
0.212866
0.208264
0.203177
0.197746
0.192014
0.185978
0.179686
0.173085
0.16625
0.159111
0.151691
0.143936
0.135835
0.127355
0.118464
0.109096
0.0993161
0.0888216
0.0781512
0.0660108
0.0551682
0.039243
0.0330213
0.00234844
0.027841
-17.7176
-17.5547
-17.2972
-16.9255
-16.4379
-15.8428
-15.1527
-14.3814
-13.5437
-12.6538
-11.7229
-10.7616
-9.7839
-8.80572
-7.84178
-6.90702
-6.01721
-5.18683
-4.42624
-3.74176
-3.13581
-2.60648
-2.14823
-1.75201
-1.40908
-1.11402
-0.863406
-0.653386
-0.479055
-0.334313
-0.214502
-0.116273
-0.0364165
0.0277056
0.0787871
0.119187
0.150798
0.175236
0.193733
0.207337
0.216924
0.223268
0.227005
0.228623
0.228624
0.227231
0.224822
0.221557
0.21761
0.213104
0.208199
0.202878
0.197259
0.191381
0.185234
0.178859
0.172205
0.165331
0.158174
0.150748
0.143001
0.134917
0.126465
0.117608
0.108282
0.0985477
0.0881127
0.0774896
0.0654357
0.054621
0.0388623
0.0325455
0.00233018
0.0273923
-17.4554
-17.2107
-16.8877
-16.4855
-15.9985
-15.4254
-14.7704
-14.0406
-13.2462
-12.3997
-11.5105
-10.5879
-9.64594
-8.69808
-7.75707
-6.8366
-5.95234
-5.11986
-4.35091
-3.6533
-3.03192
-2.48853
-2.02163
-1.62544
-1.29089
-1.00819
-0.768936
-0.56749
-0.400321
-0.263933
-0.153633
-0.0648494
0.00689284
0.064417
0.110086
0.14572
0.172967
0.193497
0.208623
0.219407
0.226674
0.231081
0.23318
0.233419
0.232249
0.229903
0.226702
0.222797
0.218329
0.213404
0.208153
0.202567
0.196738
0.190697
0.184429
0.177962
0.171251
0.164336
0.157163
0.149732
0.141996
0.133933
0.125512
0.116695
0.107416
0.097732
0.087362
0.0767901
0.0648296
0.0540441
0.0384633
0.0320421
0.00231772
0.0269094
-17.1673
-16.8513
-16.4538
-15.993
-15.4713
-14.8891
-14.2451
-13.5377
-12.7738
-11.9654
-11.12
-10.2425
-9.34324
-8.43673
-7.5352
-6.64881
-5.79138
-4.97827
-4.22083
-3.52704
-2.9032
-2.35363
-1.8795
-1.47822
-1.14403
-0.868916
-0.643718
-0.4589
-0.306306
-0.180852
-0.0792101
0.00134103
0.0637033
0.111441
0.148381
0.177124
0.199067
0.215353
0.226761
0.234168
0.238459
0.240352
0.240409
0.23901
0.236492
0.23304
0.228911
0.224251
0.219175
0.213766
0.208122
0.202237
0.19617
0.189947
0.183544
0.176979
0.170206
0.16325
0.15606
0.148628
0.140906
0.132869
0.124485
0.115713
0.106488
0.0968604
0.0865619
0.076047
0.0641869
0.0534333
0.0380418
0.0315098
0.00230806
0.0263941
-16.7862
-16.4254
-15.9876
-15.4903
-14.9366
-14.3241
-13.6552
-12.9369
-12.1785
-11.3889
-10.5731
-9.73323
-8.87837
-8.02076
-7.16796
-6.32758
-5.51249
-4.73747
-4.01182
-3.3418
-2.73361
-2.19308
-1.72317
-1.32292
-0.988628
-0.715031
-0.495655
-0.32238
-0.186117
-0.0787797
0.00633601
0.0744857
0.128289
0.169077
0.198362
0.218552
0.232094
0.241363
0.247526
0.251087
0.252339
0.251548
0.249176
0.245681
0.241449
0.236659
0.231466
0.22595
0.220174
0.214202
0.208106
0.201877
0.195545
0.189119
0.182569
0.175897
0.169058
0.162059
0.154855
0.147424
0.139723
0.131718
0.123376
0.114657
0.105493
0.095928
0.0857088
0.0752568
0.0635054
0.0527871
0.0375967
0.0309474
0.00229864
0.0258477
-16.4813
-16.0957
-15.6066
-15.0394
-14.4195
-13.7529
-13.0447
-12.3022
-11.5321
-10.7406
-9.93292
-9.11497
-8.29264
-7.47374
-6.6675
-5.87963
-5.11737
-4.39234
-3.71316
-3.08426
-2.50965
-1.99549
-1.54552
-1.15929
-0.83402