/*--------------------------------*- C++ -*----------------------------------*\
| =========                 |                                                 |
| \\      /  F ield         | OpenFOAM: The Open Source CFD Toolbox           |
|  \\    /   O peration     | Version:  2312                                  |
|   \\  /    A nd           | Website:  www.openfoam.com                      |
|    \\/     M anipulation  |                                                 |
\*---------------------------------------------------------------------------*/
FoamFile
{
    version     2.0;
    format      ascii;
    arch        "LSB;label=32;scalar=64";
    class       surfaceScalarField;
    location    "800";
    object      phi;
}
// * * * * * * * * * * * * * * * * * * * * * * * * * * * * * * * * * * * * * //

dimensions      [0 3 -1 0 0 0 0];

oriented        oriented;

internalField   nonuniform List<scalar> 
21876
(
0.00822351
0.000925062
-0.00914856
0.00235599
0.00586752
-0.000880795
0.00323679
-0.00158757
0.000706774
-0.00145439
-0.000133157
-0.00140981
-4.45722e-05
-0.00135609
-5.37053e-05
-0.00129963
-5.64581e-05
-0.00125294
-4.66715e-05
-0.00122542
-2.74863e-05
-0.00119639
-2.90265e-05
-0.00117051
-2.58291e-05
-0.00115351
-1.70187e-05
-0.00113724
-1.62176e-05
-0.00112906
-8.15762e-06
-0.00112613
-2.85919e-06
-0.00113058
4.45195e-06
-0.00114432
1.3807e-05
-0.00116725
2.29594e-05
-0.00120144
3.42971e-05
-0.00124634
4.49612e-05
-0.00129954
5.32578e-05
-0.00136562
6.6115e-05
-0.00144535
7.97711e-05
-0.00153589
9.0589e-05
-0.00163301
9.71673e-05
-0.00173005
9.70683e-05
-0.00181937
8.93558e-05
-0.00189215
7.27925e-05
-0.0019373
4.51675e-05
-0.00194248
5.17854e-06
-0.00190256
-3.99145e-05
-0.00181528
-8.72741e-05
-0.00167255
-0.000142738
-0.00146615
-0.000206346
-0.00119204
-0.000274117
-0.000846611
-0.000345372
-0.000372749
-0.000473818
0.000206223
-0.000578905
0.000560355
-0.000353938
-0.00220518
0.00276576
0.0115616
-0.000642463
-0.00999403
0.0102931
0.00713596
0.00500735
0.00852256
0.000228453
0.00548567
-0.00158835
0.00168366
-0.00164325
1.0349e-05
-0.00166082
-3.6126e-05
-0.00164519
-7.20747e-05
-0.00162105
-7.07959e-05
-0.00161174
-3.67787e-05
-0.00159924
-4.15217e-05
-0.00158583
-3.92163e-05
-0.00158062
-2.2228e-05
-0.00157633
-2.04653e-05
-0.0015803
-4.16655e-06
-0.00159161
8.49665e-06
-0.00161227
2.51463e-05
-0.00164364
4.52512e-05
-0.00168587
6.52567e-05
-0.00174148
9.0019e-05
-0.00181155
0.000115103
-0.00189251
0.000134298
-0.00198644
0.000160102
-0.00208945
0.000182853
-0.00219469
0.000195905
-0.00229553
0.000198082
-0.00238526
0.000186855
-0.00245676
0.000160907
-0.00250276
0.000118823
-0.00251743
5.98591e-05
-0.00249673
-1.55263e-05
-0.00243141
-0.00010524
-0.00230969
-0.000209
-0.00212161
-0.000330829
-0.0018582
-0.000469744
-0.00151232
-0.000620007
-0.00107864
-0.000778987
-0.000532873
-0.00101953
0.00018717
-0.00129884
0.000948024
-0.00111468
-0.00367266
0.00241568
0.0132817
-0.0029093
-0.0110149
0.0150002
0.00541745
0.0130186
0.0105042
0.00754293
0.0109613
0.00176329
0.0074633
-0.00115279
0.00292644
-0.00170948
0.000520566
-0.00184747
6.59168e-05
-0.0018811
-3.71477e-05
-0.00191462
-3.25676e-06
-0.00193502
-2.11127e-05
-0.00194246
-3.17548e-05
-0.00195496
-9.73016e-06
-0.00196536
-1.00582e-05
-0.00198261
1.3101e-05
-0.00200682
3.27369e-05
-0.00204016
5.84803e-05
-0.002085
9.01196e-05
-0.00214162
0.000121893
-0.0022124
0.000160838
-0.00229803
0.00020075
-0.00239308
0.000229354
-0.00249888
0.000265906
-0.00261148
0.000295458
-0.0027248
0.000309231
-0.00283309
0.000306389
-0.00293015
0.000283921
-0.003009
0.000239766
-0.00306195
0.000171777
-0.00308084
7.87514e-05
-0.00305627
-4.00955e-05
-0.00297687
-0.000184632
-0.0028314
-0.000354469
-0.00260814
-0.000554085
-0.00229681
-0.000781041
-0.0018877
-0.00102913
-0.00137403
-0.00129266
-0.000737112
-0.00165645
9.15073e-05
-0.00212746
0.00103937
-0.00206249
-0.00471694
0.00208372
0.015074
-0.00553232
-0.012451
0.0174846
0.00300687
0.0186925
0.00929637
0.0165081
0.0131456
0.0107497
0.0132217
0.00398617
0.00968997
-0.000237239
0.00474398
-0.00160442
0.00143311
-0.00193536
0.000293806
-0.0020892
0.000150601
-0.00219133
8.10288e-05
-0.00224805
2.49785e-05
-0.00229682
3.90437e-05
-0.00233296
2.60935e-05
-0.00237
5.0155e-05
-0.00241112
7.38787e-05
-0.00245946
0.000106847
-0.00251923
0.000149937
-0.00259078
0.000193491
-0.0026769
0.000247029
-0.00277822
0.000302122
-0.00288831
0.000339499
-0.00300895
0.000386587
-0.00313703
0.000423593
-0.00326727
0.000439524
-0.00339394
0.000433108
-0.00351012
0.000400146
-0.00360753
0.000337205
-0.00367651
0.000240788
-0.00370627
0.000108523
-0.00368474
-6.16191e-05
-0.00359904
-0.000270325
-0.0034365
-0.000517007
-0.00318318
-0.000807401
-0.00282703
-0.00113718
-0.00235599
-0.00150015
-0.00176159
-0.00188702
-0.00102582
-0.00239215
-0.000107347
-0.00304585
0.00098113
-0.00315085
-0.00557223
0.00183657
0.017007
-0.00837494
-0.0141644
0.01949
0.000523888
0.0218994
0.00688695
0.0230976
0.0119475
0.0210068
0.0153125
0.0150902
0.0156066
0.00741242
0.0124218
0.00151196
0.00733358
-0.00114383
0.00294961
-0.00187813
0.000884918
-0.00223153
0.000434436
-0.00241888
0.000212342
-0.00255571
0.000175877
-0.00265036
0.000120741
-0.00272769
0.000127498
-0.00279902
0.000145224
-0.00287061
0.00017845
-0.00295095
0.000230298
-0.00304139
0.000283948
-0.00314646
0.000352126
-0.00326759
0.000423264
-0.00339797
0.000469888
-0.00354015
0.000528762
-0.00369179
0.000575242
-0.00384801
0.000595744
-0.00400255
0.000587663
-0.00414741
0.000545014
-0.00427265
0.000462447
-0.00436653
0.000334673
-0.00441589
0.000157891
-0.0044064
-7.11133e-05
-0.0043231
-0.000353614
-0.00415113
-0.000688979
-0.00387408
-0.00108444
-0.00347785
-0.00153339
-0.0029486
-0.00202939
-0.00227655
-0.00255906
-0.00144333
-0.00322536
-0.000449668
-0.00403949
0.00075452
-0.00435499
-0.00639031
0.00157266
0.0193069
-0.0115231
-0.0161587
0.0220804
-0.00224958
0.0245799
0.0043874
0.027034
0.00949345
0.0283898
0.0139567
0.0266635
0.0173329
0.0208816
0.0182037
0.0124823
0.0157329
0.00466116
0.0107708
0.000129828
0.00541626
-0.0015341
0.00209838
-0.00219227
0.000870528
-0.0025725
0.000556111
-0.00281556
0.000363815
-0.00298784
0.000299796
-0.00312459
0.000281988
-0.00324201
0.000295894
-0.00335795
0.000346273
-0.00347725
0.000403294
-0.00360885
0.000483766
-0.00375649
0.000570942
-0.00391397
0.0006274
-0.00408519
0.000700011
-0.00426876
0.00075885
-0.00446013
0.000787157
-0.00465245
0.000780023
-0.00483655
0.000729143
-0.00500079
0.000626719
-0.00513136
0.000465264
-0.00521273
0.000239276
-0.00522812
-5.57084e-05
-0.00516006
-0.000421664
-0.00499109
-0.000857936
-0.00470223
-0.00137329
-0.00427728
-0.00195831
-0.00370133
-0.00260531
-0.00296413
-0.00329621
-0.00204861
-0.00414083
-0.000994838
-0.00509318
0.000296195
-0.00564593
-0.00725925
0.00116524
0.0220661
-0.0150613
-0.0185279
0.0252976
-0.00548114
0.0280206
0.00166447
0.0305041
0.00700991
0.0329746
0.0114862
0.0346111
0.0156964
0.0335274
0.0192873
0.0283155
0.0209448
0.0195854
0.0195009
0.0100038
0.0149979
0.00295006
0.00915212
-0.000535524
0.00435613
-0.00184873
0.00186932
-0.00254347
0.00105857
-0.00296842
0.000724759
-0.00326836
0.00058194
-0.00349066
0.000518215
-0.00367976
0.000535398
-0.00385212
0.000575687
-0.00402634
0.000658016
-0.0042114
0.000756015
-0.00440437
0.000820379
-0.00461266
0.00090831
-0.00483679
0.00098299
-0.00507313
0.00102351
-0.00531444
0.00102135
-0.00555049
0.000965216
-0.00576808
0.000844315
-0.00595127
0.000648468
-0.00608208
0.000370097
-0.00614113
3.34336e-06
-0.00610808
-0.000454702
-0.00596275
-0.00100326
-0.00568365
-0.00165237
-0.00525265
-0.0023893
-0.00465447
-0.00320347
-0.00387942
-0.00407123
-0.00291446
-0.00510574
-0.00182466
-0.00618293
-0.000497441
-0.00697309
-0.00821365
0.00045702
0.0254092
-0.0191278
-0.0213427
0.0291075
-0.00917944
0.0322979
-0.0015259
0.0349863
0.00432146
0.0374043
0.00906813
0.0398534
0.0132473
0.0418086
0.0173321
0.0415875
0.0211659
0.0374237
0.0236647
0.0290239
0.0233977
0.0182833
0.0198926
0.00838421
0.0142553
0.0020314
0.00822214
-0.000874415
0.0039644
-0.00213771
0.00198807
-0.0029046
0.00134886
-0.0034018
0.00101544
-0.00377186
0.0009055
-0.00406262
0.00086648
-0.00431961
0.000915035
-0.00456574
0.00100217
-0.00480764
0.0010623
-0.0050623
0.00116299
-0.00533546
0.00125619
-0.00562651
0.00131458
-0.00592887
0.00132374
-0.00623179
0.00126816
-0.00652057
0.00113312
-0.0067773
0.000905213
-0.00698152
0.000574329
-0.00711111
0.000132948
-0.00714291
-0.000422891
-0.00705394
-0.00109222
-0.00682064
-0.00188565
-0.00642322
-0.00278669
-0.00584669
-0.00377997
-0.0050829
-0.004835
-0.00412511
-0.00606349
-0.00304487
-0.00726313
-0.00175727
-0.00826065
-0.00923808
-0.000732802
0.0294464
-0.0238918
-0.0246825
0.0337112
-0.0134443
0.0374208
-0.00523542
0.0405825
0.00115966
0.043208
0.00644264
0.0455145
0.0109408
0.0478696
0.0149771
0.050077
0.0189585
0.0507988
0.0229429
0.0481062
0.0260903
0.0408863
0.0271125
0.0298478
0.0252937
0.0176065
0.0204635
0.00760212
0.0139688
0.00169033
0.00789988
-0.00101056
0.00404978
-0.00236307
0.00236799
-0.00324244
0.00178491
-0.00384365
0.00146772
-0.00430472
0.00137613
-0.00468247
0.00137994
-0.00501003
0.00138988
-0.0053307
0.00148369
-0.00566433
0.00158985
-0.0060192
0.00166947
-0.00639329
0.00169786
-0.0067777
0.00165258
-0.00715752
0.00151296
-0.00751325
0.00126097
-0.00782207
0.000883162
-0.00805914
0.000370034
-0.00819868
-0.000283338
-0.00821507
-0.0010758
-0.00808335
-0.00201734
-0.00778255
-0.00308745
-0.00729826
-0.00426423
-0.00662468
-0.00550854
-0.00576177
-0.00692635
-0.00477269
-0.00825216
-0.00361761
-0.00941567
-0.0102631
-0.00259257
0.0343024
-0.0295454
-0.0286488
0.0392949
-0.0184368
0.0436015
-0.00954204
0.0472917
-0.00253054
0.0503969
0.00333745
0.0529427
0.00839508
0.0551125
0.0128073
0.0572979
0.0167731
0.0596048
0.020636
0.0611569
0.0245382
0.0601563
0.0281131
0.0548454
0.0306046
0.044752
0.030557
0.0314172
0.0273036
0.0179684
0.0213487
0.00773106
0.0142871
0.00187485
0.00822421
-0.000914706
0.0045745
-0.00245226
0.0030053
-0.00349141
0.0024153
-0.00422198
0.00211053
-0.00475979
0.00192771
-0.00521509
0.00193902
-0.00564567
0.00202045
-0.00608477
0.0021086
-0.00654447
0.00215759
-0.00702419
0.00213232
-0.00751339
0.00200217
-0.00799395
0.00174155
-0.00844253
0.00133175
-0.00883266
0.000760186
-0.00913642
2.04387e-05
-0.00932575
-0.000886448
-0.00937502
-0.00196805
-0.00926226
-0.00320019
-0.00897366
-0.00455279
-0.00850557
-0.0059766
-0.00786268
-0.00756921
-0.00709087
-0.00902394
-0.00618274
-0.0103238
-0.0111679
-0.00527789
0.0401265
-0.0363162
-0.0333557
0.0460391
-0.0243494
0.0510934
-0.0145963
0.0553948
-0.00683191
0.0590241
-0.000291906
0.06205
0.00536921
0.0645085
0.0103488
0.0665379
0.0147436
0.0684994
0.0186745
0.0707047
0.022333
0.0727939
0.0260239
0.0733879
0.0300106
0.070488
0.0334568
0.0626233
0.0351684
0.0499413
0.0340306
0.0345355
0.0296929
0.0198227
0.022937
0.00894973
0.0154475
0.00269203
0.00926303
-0.000446569
0.00555393
-0.00225121
0.00391521
-0.00340462
0.00308115
-0.0042261
0.00276054
-0.00488972
0.0026841
-0.00549306
0.00271197
-0.00608475
0.00274931
-0.00668999
0.00273758
-0.00731431
0.00262651
-0.00794845
0.00237571
-0.00857365
0.00195696
-0.00916582
0.00135238
-0.0096979
0.000552536
-0.0101417
-0.000442621
-0.0104724
-0.00163731
-0.0106668
-0.00300577
-0.0107108
-0.00450885
-0.0106003
-0.00608707
-0.0103421
-0.00782743
-0.00995939
-0.00940658
-0.00945054
-0.0108326
-0.0117764
-0.00884201
0.0471025
-0.0444775
-0.0389413
0.0541698
-0.0314167
0.060165
-0.0205915
0.0652219
-0.0118888
0.0694606
-0.00453068
0.0729961
0.00183372
0.0759216
0.00742335
0.0782878
0.0123775
0.0801914
0.0167709
0.0819112
0.0206131
0.0838493
0.0240858
0.0861066
0.0277533
0.0878839
0.0316795
0.0874222
0.0356301
0.0827044
0.0387484
0.0725618
0.0398356
0.057563
0.0379358
0.0401166
0.032894
0.0237883
0.0255913
0.0116602
0.0176821
0.0044544
0.011121
0.000928139
0.00660744
-0.00105032
0.00473903
-0.00241001
0.00404383
-0.00345939
0.00376138
-0.00435429
0.00364424
-0.00519318
0.00357649
-0.00602642
0.00345978
-0.00687178
0.00322108
-0.0077279
0.00281311
-0.00858237
0.00220687
-0.00941563
0.00138581
-0.0102043
0.000346029
-0.0109288
-0.000912753
-0.0115663
-0.00236826
-0.0121017
-0.00397344
-0.0125272
-0.00566157
-0.0128493
-0.00750535
-0.0130637
-0.00919219
-0.0131545
-0.0107418
-0.0118533
-0.0130777
0.0554524
-0.0543581
-0.0455718
0.0639566
-0.0399209
0.07113
-0.0277649
0.0771333
-0.017892
0.0821242
-0.00952158
0.0862544
-0.00229649
0.0896651
0.00401267
0.0924703
0.00957225
0.0947393
0.0145019
0.0965359
0.0188166
0.0980469
0.0225748
0.0996646
0.0261356
0.101742
0.0296026
0.10409
0.0332818
0.105562
0.0372766
0.104199
0.0411984
0.0980152
0.0441195
0.0860219
0.0448873
0.0689638
0.0426494
0.0493418
0.037304
0.0307473
0.0297156
0.0173735
0.0199812
0.00919789
0.0129147
0.0046818
0.00855995
0.00206616
0.00637705
0.000270438
0.00543999
-0.00117519
0.00502216
-0.00246304
0.00474766
-0.00368962
0.0044477
-0.00490531
0.00402882
-0.00613306
0.00343465
-0.00737675
0.00262952
-0.00862636
0.00159566
-0.00987446
0.000335372
-0.0111027
-0.00114001
-0.0122961
-0.00278004
-0.0134411
-0.00451649
-0.0145467
-0.00639978
-0.0155781
-0.00816077
-0.0165021
-0.00981776
-0.0111203
-0.017235
0.0654457
-0.0663555
-0.0534484
0.0757271
-0.0502023
0.0843661
-0.0364038
0.0915525
-0.0250784
0.0974819
-0.0154509
0.102348
-0.00716309
0.10633
3.10578e-05
0.109588
0.00631444
0.112254
0.0118358
0.114413
0.0166573
0.116122
0.020866
0.117506
0.0247517
0.118842
0.0282667
0.120547
0.0315771
0.122868
0.0349549
0.125396
0.0386703
0.126771
0.042745
0.124934
0.0467242
0.117891
0.0496919
0.104643
0.0505518
0.0858698
0.0484893
0.0655184
0.0403326
0.0464878
0.0319453
0.0311399
0.0239078
0.0203202
0.0171968
0.0134097
0.0123506
0.00911363
0.00931823
0.00624597
0.00761537
0.00404276
0.00665095
0.0021019
0.00596972
0.000233137
0.00530346
-0.00164314
0.00450583
-0.0035535
0.00350607
-0.00551502
0.00229692
-0.0075215
0.000866527
-0.00956538
-0.000736147
-0.0116288
-0.00245302
-0.013726
-0.00430255
-0.0157903
-0.00609634
-0.0177812
-0.00782693
-0.00930139
-0.0196
0.0774092
-0.08095
-0.0628147
0.0898788
-0.0626719
0.10033
-0.0468546
0.108987
-0.0337355
0.116088
-0.022552
0.121872
-0.0129471
0.126563
-0.00465989
0.13036
0.00251685
0.133441
0.00875515
0.135947
0.0141514
0.137984
0.0188293
0.139633
0.0231026
0.140962
0.0269376
0.142132
0.0304067
0.143477
0.0336107
0.14541
0.0367371
0.148095
0.0400594
0.151005
0.0438142
0.152704
0.0479937
0.151092
0.0521636
0.144126
0.0554547
0.131737
0.0527216
0.115026
0.0486566
0.0958769
0.043057
0.076468
0.0366058
0.0588133
0.0300052
0.0442754
0.0238562
0.0332671
0.0186237
0.0253645
0.0145536
0.0197267
0.0116075
0.0155042
0.00952604
0.0120471
0.00796292
0.00893772
0.00661552
0.00591504
0.00531965
0.00286204
0.00391955
-0.000274109
0.00240006
-0.00349846
0.000771331
-0.00685074
-0.000950213
-0.0102215
-0.00272562
-0.0135609
-0.00448745
-0.00610829
-0.016754
0.091739
-0.0987241
-0.0739648
0.106894
-0.0778267
0.119575
-0.0595357
0.13005
-0.044211
0.138607
-0.0311091
0.145536
-0.0198759
0.151111
-0.0102347
0.15558
-0.00195215
0.159162
0.00517327
0.162041
0.0112726
0.164371
0.0164995
0.16629
0.021183
0.167886
0.0253413
0.169215
0.0290778
0.170357
0.0324693
0.171506
0.0355877
0.173021
0.0385442
0.17531
0.0415259
0.178512
0.0447912
0.182112
0.0485637
0.184714
0.0528525
0.184338
0.0530983
0.179967
0.0530275
0.171222
0.0518022
0.158479
0.0493488
0.142685
0.0457991
0.125107
0.0414345
0.107131
0.0365994
0.0900512
0.0316332
0.0748317
0.026827
0.0619428
0.022415
0.0513629
0.0185428
0.0427341
0.0152444
0.0355252
0.0125285
0.0292997
0.0101451
0.0236893
0.00801046
0.01844
0.00602059
0.013285
0.00420489
0.00823045
0.00232887
0.00321026
0.000532814
-0.001187
-0.0017111
0.10891
-0.120383
-0.0872505
0.127352
-0.0962693
0.142771
-0.0749545
0.155486
-0.0569264
0.165845
-0.041468
0.174198
-0.0282287
0.180878
-0.016914
0.186187
-0.00726139
0.190395
0.000965498
0.19373
0.00793674
0.196389
0.0138409
0.198549
0.0190229
0.20035
0.0235405
0.201896
0.0275316
0.203254
0.031111
0.204472
0.0343705
0.205634
0.037382
0.206947
0.0402126
0.208771
0.0429671
0.211524
0.0458109
0.215386
0.0489907
0.21949
0.0489939
0.223039
0.0494786
0.225009
0.049833
0.224492
0.0498654
0.220903
0.0493879
0.21406
0.0482779
0.204164
0.0464947
0.191711
0.0440862
0.17738
0.0411586
0.161941
0.0378542
0.146165
0.0343189
0.130724
0.030685
0.116028
0.0272246
0.102416
0.0237568
0.0899979
0.0204289
0.0787344
0.0172841
0.0682838
0.0146556
0.0586693
0.0119433
0.0496588
0.00954345
0.00725791
0.0412138
0.117389
-0.144288
-0.0934845
0.137727
-0.116607
0.154723
-0.0919505
0.168726
-0.0709297
0.180117
-0.0528588
0.189279
-0.0373904
0.196576
-0.0242108
0.202341
-0.0130263
0.20687
-0.00356361
0.210418
0.00438899
0.213202
0.0110563
0.215421
0.0168043
0.217232
0.0217293
0.218768
0.0259956
0.220135
0.0297441
0.221409
0.0330969
0.222634
0.036157
0.223844
0.0390022
0.225114
0.0416974
0.226627
0.0442979
0.228711
0.0469067
0.231347
0.0463579
0.234698
0.0461276
0.238623
0.0459076
0.242733
0.0457559
0.246475
0.045646
0.249253
0.0454996
0.250536
0.0452118
0.249932
0.0446899
0.24723
0.0438611
0.242396
0.0426878
0.235552
0.0411634
0.22693
0.0393071
0.216773
0.0373817
0.205446
0.0350831
0.193318
0.032557
0.180746
0.0298565
0.167768
0.0276331
0.154839
0.0248722
0.14203
0.0223527
0.0196839
0.129604
0.124244
-0.170108
-0.0984237
0.146199
-0.138562
0.164542
-0.110294
0.179648
-0.0860351
0.191924
-0.0651349
0.201782
-0.0472485
0.209613
-0.0320417
0.215774
-0.0191879
0.220585
-0.00837473
0.224321
0.000653096
0.227218
0.00815927
0.229488
0.0145346
0.231302
0.0199152
0.232805
0.0244933
0.234115
0.0284337
0.235333
0.031879
0.236536
0.0349538
0.237777
0.0377616
0.239082
0.0403925
0.240469
0.0429107
0.241995
0.0453805
0.243506
0.0448474
0.245237
0.0443961
0.247385
0.0437597
0.25009
0.0430512
0.253386
0.0423502
0.257179
0.0417064
0.261258
0.0411331
0.265329
0.0406189
0.269062
0.0401277
0.272134
0.0396156
0.274264
0.0390341
0.275236
0.0383347
0.274902
0.037716
0.273185
0.0368002
0.270085
0.0356564
0.265673
0.0342692
0.259918
0.0333882
0.253036
0.0317538
0.245104
0.0302852
0.0284482
0.23634
0.131819
-0.19799
-0.103937
0.155517
-0.16226
0.175315
-0.130092
0.191614
-0.102334
0.204853
-0.0783735
0.215473
-0.0578689
0.223895
-0.0404635
0.230502
-0.0257951
0.235637
-0.01351
0.239598
-0.0033072
0.242638
0.00511876
0.244986
0.012187
0.246827
0.0180743
0.248316
0.0230037
0.249584
0.0271659
0.250737
0.0307258
0.251866
0.0338257
0.253042
0.0365851
0.254323
0.0391115
0.255743
0.0414907
0.257316
0.0438076
0.258759
0.0434045
0.26015
0.0430047
0.261552
0.0423582
0.26306
0.0415434
0.26479
0.0406203
0.266853
0.0396433
0.26933
0.0386559
0.272253
0.0376961
0.275594
0.0367864
0.279271
0.035939
0.283153
0.0351516
0.287081
0.0344069
0.290896
0.0339014
0.294411
0.0332848
0.297462
0.0326056
0.299912
0.0318192
0.30166
0.0316406
0.302602
0.030812
0.302681
0.0302054
0.0292713
0.301858
0.140124
-0.228092
-0.110021
0.165702
-0.187839
0.187071
-0.15146
0.204659
-0.119922
0.218941
-0.0926553
0.230391
-0.0693188
0.239459
-0.0495323
0.246559
-0.032895
0.252059
-0.019009
0.256276
-0.0075251
0.259488
0.00190706
0.261936
0.00973885
0.263822
0.016189
0.265312
0.0215131
0.266548
0.0259302
0.267644
0.0296292
0.268698
0.0327727
0.269786
0.0354964
0.270977
0.0379212
0.272322
0.0401449
0.273864
0.0422661
0.275328
0.0419405
0.276766
0.0415667
0.278174
0.0409498
0.279556
0.0401617
0.280929
0.0392476
0.282327
0.0382449
0.283801
0.0371822
0.285408
0.0360896
0.287204
0.0349901
0.289237
0.0339057
0.291537
0.0328514
0.294112
0.031832
0.296959
0.0310543
0.300036
0.0302085
0.303282
0.0293591
0.306625
0.028477
0.31003
0.0282354
0.313374
0.0274682
0.316595
0.026984
0.0262745
0.319592
0.149183
-0.260588
-0.116687
0.176791
-0.215447
0.199854
-0.174523
0.218837
-0.138905
0.234248
-0.108066
0.246598
-0.081669
0.256372
-0.0593059
0.264012
-0.0405352
0.269914
-0.0249108
0.274421
-0.0120324
0.27783
-0.00150175
0.2804
0.00716908
0.282346
0.0142427
0.28385
0.0200093
0.285062
0.0247182
0.286107
0.0285841
0.287088
0.0317917
0.288089
0.0344949
0.289181
0.0368298
0.29042
0.0389062
0.291853
0.0408323
0.293227
0.0405667
0.294607
0.0401874
0.295996
0.0395599
0.297395
0.0387632
0.298796
0.0378465
0.300193
0.0368478
0.301583
0.0357929
0.302966
0.0347061
0.304353
0.0336037
0.305757
0.0325013
0.307199
0.0314091
0.308702
0.0303298
0.310293
0.0294634
0.311989
0.0285124
0.313804
0.0275443
0.315743
0.0265379
0.317836
0.0261426
0.320055
0.0252486
0.322404
0.0246351
0.023825
0.324854
0.159034
-0.295669
-0.123953
0.188833
-0.245247
0.213728
-0.199418
0.234218
-0.159395
0.250852
-0.1247
0.264178
-0.0949954
0.274718
-0.069846
0.282948
-0.0487651
0.289293
-0.0312552
0.294121
-0.0168608
0.297752
-0.00513268
0.300463
0.00445795
0.302486
0.0122198
0.304015
0.0184806
0.305211
0.0235218
0.306209
0.0275859
0.30712
0.0308809
0.308034
0.0335808
0.309026
0.0358382
0.310156
0.0377766
0.311473
0.0395153
0.312727
0.0393118
0.313989
0.038926
0.315269
0.0382796
0.316575
0.0374569
0.31791
0.0365118
0.319271
0.0354868
0.320653
0.0344112
0.322047
0.0333118
0.323445
0.0322058
0.324839
0.031108
0.326221
0.0300269
0.327588
0.028963
0.328943
0.0281082
0.330285
0.0271705
0.331617
0.0262124
0.332944
0.0252113
0.334287
0.0247998
0.335642
0.0238931
0.337026
0.0232511
0.0224096
0.338442
0.169721
-0.333542
-0.131849
0.20189
-0.277415
0.228765
-0.226294
0.250886
-0.181516
0.268844
-0.142657
0.283229
-0.109381
0.294602
-0.081219
0.303475
-0.0576379
0.310303
-0.038084
0.315486
-0.0220433
0.319364
-0.00901121
0.322237
0.00158588
0.324351
0.0101058
0.325915
0.0169162
0.327103
0.0223334
0.32806
0.0266296
0.328902
0.0300381
0.329729
0.0327543
0.330619
0.0349483
0.331637
0.0367589
0.332835
0.0383174
0.333968
0.0381788
0.335105
0.0377889
0.336259
0.0371251
0.33744
0.0362762
0.338653
0.0352993
0.3399
0.0342398
0.341181
0.03313
0.342494
0.0319987
0.343834
0.0308654
0.345196
0.0297464
0.346572
0.0286514
0.347953
0.0275814
0.349338
0.0267233
0.350716
0.0257931
0.352078
0.0248501
0.353418
0.0238707
0.354746
0.0234723
0.356046
0.0225929
0.357323
0.021974
0.021159
0.358574
0.1813
-0.374433
-0.140409
0.216031
-0.312147
0.24505
-0.255313
0.268937
-0.205403
0.288329
-0.162049
0.303863
-0.124914
0.316141
-0.093497
0.325714
-0.0672108
0.333072
-0.0454425
0.338644
-0.0276149
0.342797
-0.013164
0.34585
-0.00146719
0.34807
0.00788579
0.34968
0.0153056
0.350868
0.0211461
0.351786
0.0257112
0.352563
0.0292616
0.353302
0.0320154
0.354088
0.0341619
0.354991
0.035856
0.356067
0.037242
0.357074
0.0371715
0.358084
0.0367787
0.359112
0.0360976
0.360166
0.0352217
0.361254
0.0342116
0.362378
0.0331155
0.36354
0.0319678
0.36474
0.0307993
0.365975
0.0296305
0.367242
0.028479
0.368538
0.0273553
0.369859
0.0262611
0.371203
0.0253786
0.372564
0.0244326
0.373934
0.0234802
0.375307
0.0224981
0.37669
0.0220887
0.378068
0.0212154
0.37944
0.0206013
0.0197987
0.380801
0.19383
-0.41859
-0.149673
0.231336
-0.349652
0.262676
-0.286653
0.288477
-0.231204
0.309426
-0.182998
0.326207
-0.141695
0.339469
-0.106759
0.349805
-0.0775467
0.357742
-0.0533797
0.36374
-0.0336133
0.368196
-0.0176198
0.371451
-0.00472243
0.373793
0.00554463
0.37546
0.0136385
0.376653
0.0199531
0.377537
0.0248269
0.378249
0.0285498
0.3789
0.0313644
0.379581
0.0334807
0.380367
0.0350706
0.381316
0.0362926
0.382194
0.0362939
0.383073
0.0358998
0.38397
0.0352007
0.384896
0.0342954
0.385859
0.0332484
0.386864
0.0321111
0.387911
0.0309204
0.389002
0.0297087
0.390134
0.0284981
0.391306
0.0273069
0.392515
0.0261463
0.393758
0.0250187
0.395035
0.0241015
0.39634
0.0231274
0.397668
0.022152
0.399014
0.0211521
0.400388
0.020715
0.401773
0.01983
0.403173
0.0192019
0.0183928
0.404579
0.207381
-0.466285
-0.159686
0.247892
-0.390164
0.281749
-0.32051
0.309627
-0.259081
0.332264
-0.205635
0.3504
-0.159831
0.364734
-0.121092
0.375901
-0.0887143
0.384471
-0.0619494
0.390938
-0.0400802
0.395728
-0.0224097
0.399208
-0.00820278
0.401687
0.00306609
0.403421
0.0119039
0.404627
0.0187478
0.40548
0.0239735
0.406128
0.0279019
0.40669
0.0308024
0.407264
0.032907
0.407928
0.034406
0.408748
0.0354729
0.409492
0.0355503
0.410235
0.0351566
0.410997
0.0344386
0.411791
0.033501
0.412627
0.0324126
0.41351
0.0312282
0.414443
0.0299875
0.415427
0.0287249
0.416461
0.0274639
0.417544
0.0262241
0.418673
0.0250174
0.419845
0.0238468
0.421061
0.0228852
0.422315
0.0218734
0.423602
0.020865
0.424917
0.0198373
0.426269
0.0193625
0.427644
0.0184555
0.429043
0.017803
0.0169775
0.430458
0.222027
-0.517813
-0.170499
0.265798
-0.433934
0.302385
-0.357097
0.332516
-0.289212
0.356989
-0.230108
0.376599
-0.179442
0.392099
-0.136592
0.404174
-0.10079
0.413436
-0.0712111
0.420417
-0.0470609
0.425575
-0.0275681
0.429306
-0.0119333
0.431939
0.000432549
0.433753
0.0100902
0.434977
0.0175234
0.435803
0.0231477
0.436387
0.0273178
0.436858
0.0303315
0.437321
0.0324444
0.43786
0.0338665
0.438546
0.0347876
0.43915
0.0349462
0.439752
0.0345544
0.440374
0.0338167
0.441032
0.0328436
0.441736
0.0317088
0.442493
0.0304708
0.443308
0.0291723
0.444183
0.0278501
0.445118
0.0265295
0.446111
0.0252313
0.44716
0.0239681
0.448263
0.0227441
0.44942
0.0217277
0.450626
0.0206675
0.451876
0.0196158
0.453163
0.0185501
0.454498
0.0180276
0.455864
0.0170893
0.457264
0.0164033
0.0155527
0.458689
0.237852
-0.5735
-0.182166
0.285159
-0.481242
0.32471
-0.396648
0.35729
-0.321792
0.383759
-0.256577
0.404975
-0.200657
0.421746
-0.153364
0.434813
-0.113856
0.444832
-0.0812303
0.452377
-0.0546061
0.457942
-0.0331328
0.461951
-0.0159417
0.464759
-0.00237533
0.466664
0.00818479
0.467915
0.0162727
0.468716
0.0223467
0.469236
0.0267979
0.469613
0.0299545
0.46996
0.0320975
0.470368
0.0334583
0.470912
0.0342436
0.47137
0.0344884
0.471824
0.0341005
0.472298
0.0333419
0.472812
0.0323299
0.473378
0.0311432
0.474004
0.0298446
0.474696
0.0284804
0.475457
0.0270896
0.476287
0.0256996
0.477185
0.0243327
0.478151
0.0230026
0.47918
0.0217145
0.480276
0.0206324
0.48143
0.0195133
0.482638
0.0184076
0.483894
0.0172938
0.485208
0.0167135
0.486563
0.0157343
0.487961
0.0150057
0.0141216
0.489392
0.254946
-0.633698
-0.194747
0.306093
-0.532389
0.348865
-0.439419
0.384108
-0.357035
0.41275
-0.28522
0.435714
-0.223622
0.453874
-0.171523
0.468025
-0.128007
0.478874
-0.0920797
0.48704
-0.0627718
0.493053
-0.0391461
0.49737
-0.0202588
0.500374
-0.00537902
0.502385
0.00617389
0.50367
0.014988
0.504449
0.0215677
0.504903
0.0263431
0.505183
0.0296754
0.505407
0.0318728
0.505676
0.0331893
0.50607
0.03385
0.506372
0.0341866
0.506668
0.0338045
0.506986
0.0330241
0.507346
0.0319694
0.507764
0.0307251
0.50825
0.0293588
0.50881
0.0279203
0.509448
0.0264516
0.510166
0.0249823
0.510962
0.0235362
0.511836
0.0221287
0.512785
0.0207657
0.51381
0.0196073
0.514905
0.0184185
0.516064
0.0172487
0.517281
0.0160769
0.518565
0.0154288
0.5199
0.0143996
0.521287
0.0136193
0.0126935
0.522715
0.273408
-0.698798
-0.208308
0.328728
-0.58771
0.375002
-0.485693
0.413143
-0.395177
0.444152
-0.316229
0.469025
-0.248495
0.488702
-0.1912
0.504039
-0.143344
0.515799
-0.10384
0.524647
-0.0716202
0.531156
-0.0456549
0.535816
-0.0249187
0.539039
-0.00860231
0.541171
0.00404219
0.542498
0.0136609
0.543258
0.020808
0.543646
0.0259555
0.543821
0.0294998
0.543916
0.0317784
0.544035
0.0330699
0.544266
0.0336189
0.5444
0.0340533
0.544525
0.0336794
0.544673
0.032876
0.544867
0.0317751
0.545125
0.0304675
0.545458
0.0290261
0.545873
0.0275047
0.546376
0.0259485
0.546969
0.0243897
0.547651
0.022854
0.548422
0.0213583
0.549278
0.0199097
0.550221
0.0186642
0.551244
0.0173954
0.552341
0.0161513
0.553506
0.0149117
0.554749
0.014186
0.556051
0.0130979
0.557413
0.0122574
0.0112821
0.558824
0.293345
-0.769224
-0.222919
0.353205
-0.647569
0.403289
-0.535777
0.444587
-0.436475
0.478178
-0.34982
0.505135
-0.275451
0.526469
-0.212535
0.543106
-0.159981
0.555867
-0.1166
0.565467
-0.0812205
0.572524
-0.0527116
0.577565
-0.0299599
0.581035
-0.0120718
0.583304
0.00177272
0.584683
0.0122825
0.585426
0.020065
0.585744
0.0256375
0.585809
0.0294345
0.585762
0.0318249
0.585719
0.0331134
0.585772
0.0335656
0.585721
0.0341044
0.585659
0.0337416
0.58562
0.0329148
0.585631
0.031764
0.585711
0.0303875
0.585874
0.0288634
0.586128
0.0272505
0.58648
0.0255972
0.586931
0.0239388
0.587482
0.0223029
0.588132
0.0207081
0.588879
0.0191633
0.589723
0.01782
0.590658
0.0164607
0.591677
0.0151322
0.592773
0.0138154
0.593957
0.0130022
0.595208
0.0118466
0.596528
0.0109374
0.00990498
0.597905
0.314876
-0.845444
-0.238656
0.379675
-0.712367
0.433911
-0.590013
0.478651
-0.481215
0.515059
-0.386228
0.544293
-0.304685
0.567443
-0.235685
0.585506
-0.178043
0.599366
-0.13046
0.609795
-0.0916499
0.617458
-0.0603743
0.622923
-0.0354249
0.626669
-0.0158173
0.629095
-0.000653376
0.630534
0.0108428
0.631263
0.0193363
0.631508
0.0253931
0.631454
0.0294885
0.631253
0.0320254
0.63103
0.0333363
0.630886
0.0337099
0.63063
0.0343603
0.63036
0.0340123
0.630113
0.0331618
0.629918
0.0319581
0.629799
0.030507
0.629769
0.0288931
0.62984
0.0271799
0.630017
0.02542
0.630304
0.0236516
0.630702
0.0219049
0.63121
0.0202005
0.631824
0.0185487
0.632548
0.0170967
0.633372
0.0156365
0.63429
0.0142137
0.635296
0.0128101
0.636398
0.0118998
0.637577
0.0106679
0.638832
0.00968172
0.0085846
0.640153
0.338128
-0.927971
-0.255601
0.408307
-0.782546
0.467068
-0.648774
0.515564
-0.529711
0.55505
-0.425714
0.586774
-0.336409
0.611914
-0.260825
0.631542
-0.197672
0.646613
-0.145531
0.657957
-0.102994
0.666291
-0.0687084
0.672228
-0.0413617
0.676282
-0.0198718
0.678886
-0.00325712
0.680398
0.00933094
0.681115
0.0186196
0.681281
0.0252271
0.681097
0.0296727
0.680726
0.0323957
0.680303
0.0337591
0.679938
0.0340757
0.679452
0.0348459
0.678947
0.0345174
0.678465
0.0336439
0.678039
0.0323845
0.677692
0.0308537
0.677442
0.0291427
0.677301
0.0273208
0.677277
0.0254447
0.677372
0.0235562
0.677589
0.0216883
0.677926
0.0198634
0.678381
0.0180939
0.678955
0.0165225
0.67964
0.0149511
0.68043
0.013424
0.681316
0.0119242
0.682309
0.0109068
0.683387
0.00959027
0.68455
0.00851851
0.00734923
0.685785
0.36324
-1.01737
-0.273842
0.439284
-0.85859
0.502982
-0.712472
0.555579
-0.582308
0.598431