/*--------------------------------*- C++ -*----------------------------------*\
| =========                 |                                                 |
| \\      /  F ield         | OpenFOAM: The Open Source CFD Toolbox           |
|  \\    /   O peration     | Version:  2312                                  |
|   \\  /    A nd           | Website:  www.openfoam.com                      |
|    \\/     M anipulation  |                                                 |
\*---------------------------------------------------------------------------*/
FoamFile
{
    version     2.0;
    format      ascii;
    arch        "LSB;label=32;scalar=64";
    class       volScalarField;
    location    "800";
    object      turbulenceProperties:L;
}
// * * * * * * * * * * * * * * * * * * * * * * * * * * * * * * * * * * * * * //

dimensions      [0 1 0 0 0 0 0];

internalField   nonuniform List<scalar> 
11040
(
0.000441794
0.000483568
0.00086754
0.00141967
0.00137018
0.00130628
0.00127932
0.00127172
0.00125313
0.00124412
0.00123203
0.00122271
0.00121203
0.00120375
0.00119555
0.00119033
0.00118885
0.00119026
0.00119315
0.00119685
0.00120169
0.00120818
0.0012151
0.00122116
0.00122779
0.00123947
0.00125738
0.00127796
0.00130173
0.00132958
0.00136273
0.00140284
0.00145515
0.00153893
0.00169755
0.00183323
0.0018149
0.0023667
0.00393744
0.00253266
0.00235455
0.00117564
0.00105411
0.000667906
0.000878476
0.00243573
0.00439432
0.00693017
0.0108739
0.0184254
0.0200819
0.0116943
0.00935368
0.00800002
0.00714807
0.00651251
0.00605018
0.00572388
0.00551082
0.00537535
0.00528478
0.00523291
0.00521052
0.00522917
0.00530849
0.00547804
0.0058276
0.00642846
0.00725354
0.00837486
0.00985382
0.0115784
0.0130276
0.0142436
0.0147857
0.0146537
0.0140747
0.0132975
0.0127875
0.0112368
0.0113769
0.00795816
0.00149647
0.00161308
0.001296
0.00082464
0.00155866
0.00312574
0.00532895
0.00836754
0.0106683
0.0127599
0.0154523
0.018892
0.0248602
0.0416254
0.0432908
0.0275294
0.0222475
0.0195094
0.0179853
0.0171795
0.016907
0.0171301
0.018083
0.0200181
0.0231105
0.0275506
0.0338686
0.0441892
0.0679328
0.0645647
0.0419601
0.0325422
0.027473
0.0243092
0.022129
0.0204693
0.0192009
0.0185568
0.016858
0.0161764
0.0175815
0.00176996
0.00190762
0.00215543
0.00173981
0.00117727
0.00208231
0.0037194
0.0059316
0.00954794
0.0123571
0.0146728
0.01671
0.0184698
0.0206033
0.0224199
0.0243414
0.0259818
0.027309
0.0282061
0.0285465
0.0285866
0.0284429
0.0281514
0.0279662
0.0282809
0.0292624
0.0310116
0.0336584
0.0372857
0.0413079
0.0433432
0.0413663
0.0374332
0.033625
0.0305268
0.0280275
0.0260856
0.0250044
0.0231956
0.0218302
0.0287071
0.00204901
0.00215505
0.00209236
0.00294565
0.00256176
0.00152349
0.00253875
0.00418706
0.00651319
0.010034
0.0138733
0.0170669
0.0191
0.0212575
0.0227957
0.0241882
0.0252848
0.026081
0.0266404
0.0269897
0.0272995
0.0277288
0.0283392
0.0291675
0.0303862
0.0321169
0.0344729
0.0375988
0.0416321
0.0464358
0.0507609
0.0517965
0.0487129
0.0441424
0.0399681
0.0365188
0.0338097
0.032152
0.0304339
0.0284274
0.0378068
0.00241132
0.0025169
0.00254987
0.00242935
0.0045241
0.00566532
0.00181147
0.00292605
0.00456645
0.00698823
0.0101693
0.014976
0.0189518
0.0223635
0.0245622
0.026426
0.0279576
0.0290635
0.0298841
0.0304704
0.03097
0.0315711
0.0324376
0.0336038
0.0351989
0.0373348
0.0401359
0.0437759
0.0484789
0.0543801
0.0607978
0.0646789
0.0626169
0.0569222
0.05118
0.0464164
0.0427012
0.040286
0.0386498
0.0362153
0.0458092
0.00283745
0.00290263
0.00299427
0.00290551
0.00285326
0.00757779
0.0649306
0.00198404
0.00322786
0.00487584
0.00726757
0.0103924
0.0148952
0.020407
0.024849
0.0283483
0.0309391
0.0328089
0.0343224
0.0354454
0.0363028
0.037067
0.0380605
0.0393836
0.0411775
0.0435799
0.0467404
0.0508643
0.0562499
0.0632862
0.0719348
0.0797026
0.0802591
0.0733505
0.0652334
0.0585039
0.0533614
0.0499245
0.0481225
0.0455129
0.0544168
0.00332145
0.00335884
0.00338453
0.0034521
0.00332546
0.00324149
0.0246355
0.526603
0.00225003
0.00342436
0.00511427
0.00738862
0.0105477
0.0145699
0.0204537
0.0265034
0.0314841
0.0353253
0.0384008
0.0406309
0.042331
0.0435746
0.0448001
0.0462604
0.0481586
0.0507034
0.0541002
0.0586034
0.0645557
0.0725686
0.0833135
0.0960496
0.103162
0.0962229
0.0842331
0.0742107
0.0668199
0.0618869
0.0594489
0.0569015
0.0647005
0.00386458
0.00389207
0.00388822
0.00390444
0.00398138
0.00376411
0.0038241
0.0138708
0.0132756
0.00907523
0.0034284
0.00523813
0.00744959
0.0104672
0.0144018
0.0195264
0.0266442
0.0334412
0.0391034
0.043613
0.0472383
0.0498288
0.0519504
0.0539628
0.0561869
0.0589111
0.0624395
0.0671389
0.0734462
0.0820816
0.0942846
0.111648
0.131386
0.131999
0.113222
0.0965847
0.0850797
0.0776523
0.0738151
0.0712426
0.0778219
0.0044842
0.00450414
0.0044877
0.00446353
0.00448165
0.00455084
0.00431655
0.00452164
0.00914691
0.0378145
0.0058833
0.00322923
0.00522063
0.00745297
0.0102695
0.0140613
0.0188194
0.0251358
0.033508
0.0414547
0.0480375
0.0531049
0.0571519
0.0606186
0.0639642
0.0675483
0.0716984
0.0768081
0.0833812
0.0922505
0.104925
0.124295
0.156159
0.194046
0.169385
0.133949
0.112803
0.100331
0.0936819
0.0903947
0.0955066
0.00519196
0.00520636
0.0051803
0.00513986
0.00510405
0.00512604
0.00516289
0.00501259
0.00500917
0.00724579
0.0498202
0.0136704
0.018367
0.0048304
0.00727297
0.0100188
0.0135034
0.018091
0.0237659
0.031339
0.0411805
0.0503107
0.0573716
0.0631363
0.0683801
0.0735241
0.0789777
0.0852117
0.0927156
0.102185
0.11483
0.133164
0.163719
0.231524
0.396669
0.219311
0.162367
0.136857
0.124088
0.118334
0.121174
0.00600537
0.00601439
0.00598546
0.00592912
0.00587141
0.00582687
0.00583469
0.00586588
0.00578396
0.00566482
0.00660728
0.075735
0.118432
0.006862
0.00432908
0.00681827
0.00963074
0.0129105
0.0170895
0.0225237
0.0292469
0.037738
0.0479405
0.0579847
0.0665718
0.0738946
0.0809192
0.0884497
0.0969596
0.106996
0.119402
0.135693
0.158862
0.196075
0.268106
0.351897
0.253398
0.198306
0.17311
0.162298
0.161986
0.00694427
0.00694733
0.0069174
0.00685091
0.00677045
0.00669646
0.00663943
0.00662427
0.00664898
0.00661823
0.00644818
0.00689309
0.0175737
0.0976319
0.0246799
0.00831776
0.00578206
0.008934
0.0121995
0.0160511
0.0209573
0.0270875
0.0340916
0.0421674
0.0519863
0.0630565
0.0740771
0.0843116
0.0940085
0.104084
0.115482
0.129044
0.145655
0.166302
0.191313
0.217183
0.231749
0.227216
0.215029
0.208049
0.212893
0.00803329
0.00802896
0.00799918
0.00792493
0.00782427
0.00772115
0.00762853
0.00755276
0.0075115
0.00751874
0.00751992
0.00735341
0.0074437
0.01017
0.199468
0.376104
0.0124465
0.0101469
0.00763083
0.0111505
0.0149279
0.0191706
0.0241429
0.0301667
0.0371258
0.0448229
0.0536762
0.064263
0.0764496
0.0895105
0.102707
0.115721
0.128692
0.141912
0.155223
0.167831
0.178399
0.186004
0.190605
0.194313
0.204561
0.00930338
0.00928952
0.00926002
0.00917825
0.00905875
0.0089272
0.00879873
0.00868196
0.00858237
0.00851107
0.00849258
0.00848791
0.0083723
0.00832395
0.00885138
0.0198185
0.101554
1.97402
0.00895672
0.0123939
0.00940141
0.013222
0.0169834
0.0211057
0.0258258
0.0314184
0.0380384
0.0455671
0.0537993
0.0628794
0.0732433
0.085146
0.0983396
0.112078
0.125249
0.136731
0.145786
0.152646
0.157913
0.162059
0.169482
0.0107923
0.0107674
0.010738
0.0106485
0.0105094
0.0103495
0.0101858
0.0100266
0.00987941
0.00975094
0.00964791
0.0095917
0.00955753
0.00951708
0.00932848
0.00956767
0.0109304
0.0649869
0.208589
5.37535
0.00860286
0.0135342
0.00951981
0.0137297
0.0175564
0.0215585
0.0259458
0.0309439
0.0367559
0.0434981
0.0511173
0.0593808
0.0680474
0.0770664
0.0864661
0.0961866
0.10595
0.115434
0.124083
0.13107
0.138458
0.0125294
0.0124932
0.0124626
0.0123637
0.0122036
0.0120149
0.0118156
0.011615
0.0114207
0.0112406
0.0110802
0.0109446
0.010841
0.0107816
0.0107116
0.0106048
0.0104477
0.0110304
0.0145686
0.167397
0.316445
6.83735
0.0177156
0.00925836
0.252432
0.0119006
0.0159961
0.0199216
0.0240742
0.0285391
0.0334814
0.0390076
0.0451472
0.0518833
0.0590937
0.0665765
0.0740618
0.0814252
0.0884753
0.0948285
0.101443
0.0144765
0.014427
0.0143915
0.014278
0.0140922
0.0138708
0.0136334
0.0133898
0.013149
0.0129189
0.0127058
0.0125139
0.0123454
0.0122045
0.0121026
0.0120183
0.0119225
0.0117273
0.0116828
0.0124941
0.0178163
0.206671
0.345973
2.73955
7.39399
0.0163382
0.00900679
0.0158036
0.0106575
0.0134272
0.0185066
0.0231064
0.0276716
0.0324698
0.037527
0.0428592
0.0484016
0.0541648
0.0600552
0.0657906
0.0718838
0.0165717
0.0165064
0.016463
0.0163313
0.0161166
0.0158593
0.0155805
0.0152902
0.0149984
0.0147149
0.0144469
0.0141994
0.0139757
0.0137762
0.0136044
0.0134606
0.0133559
0.0132404
0.0130952
0.0129121
0.0129537
0.0140337
0.0177072
0.0800139
0.258884
0.806566
4.47342
0
0.214635
0.0179804
0.00946146
0.0153431
0.0292972
0.0121029
0.0159151
0.0218438
0.0269112
0.0317918
0.0366266
0.041334
0.0463333
0.0187982
0.0187174
0.0186651
0.0185136
0.0182687
0.0179747
0.0176539
0.0173173
0.0169751
0.0166386
0.0163153
0.0160105
0.0157286
0.0154722
0.0152425
0.0150391
0.0148644
0.014719
0.0145978
0.0144549
0.0142748
0.0141288
0.0141483
0.0149219
0.0173591
0.0237056
0.118263
0.331003
0.881354
1.42137
10.6309
0
0
0.124654
0.0199862
0.0100545
0.0144455
0.027623
0.052539
0.0207395
0.0182625
0.0211805
0.0210849
0.0210223
0.020849
0.020572
0.0202392
0.0198744
0.0194895
0.0190965
0.0187068
0.0183293
0.017969
0.0176305
0.0173171
0.0170307
0.0167724
0.0165414
0.0163377
0.0161623
0.016012
0.0158769
0.0157126
0.0155406
0.0153384
0.0153418
0.0155295
0.0163834
0.0185637
0.0233717
0.0348451
0.244147
0.482295
1.03037
1.40829
2.23315
9.02105
0
0
0
0.916979
0.0278544
0.0237365
0.0236262
0.0235509
0.0233535
0.0230422
0.0226682
0.0222568
0.0218217
0.0213757
0.0209317
0.0204992
0.020084
0.0196904
0.0193223
0.0189818
0.01867
0.0183873
0.0181331
0.0179064
0.0177049
0.0175345
0.0173858
0.0172494
0.0170908
0.0169124
0.0167511
0.0165777
0.0165509
0.0167288
0.0170816
0.018023
0.0199693
0.0235769
0.030206
0.0449412
0.17161
0.489913
1.19537
1.46953
1.89075
2.65666
0.0264875
0.0263624
0.0262721
0.0260481
0.0257002
0.0252823
0.0248217
0.0243337
0.0238328
0.0233328
0.0228442
0.0223733
0.0219247
0.0215025
0.0211094
0.0207465
0.0204143
0.0201127
0.0198411
0.0195966
0.0193833
0.0192002
0.0190411
0.0189065
0.0187806
0.0186575
0.0185146
0.018355
0.018202
0.018084
0.017964
0.0179514
0.0180635
0.0183208
0.0187246
0.0195032
0.0208478
0.0230774
0.0265743
0.0322388
0.0425642
0.0294546
0.0293144
0.0292063
0.0289528
0.0285655
0.0281008
0.0275879
0.027044
0.0264856
0.0259275
0.0253812
0.0248536
0.0243497
0.023874
0.0234294
0.0230173
0.0226381
0.022292
0.0219786
0.0216952
0.0214468
0.0212318
0.0210429
0.0208837
0.0207504
0.0206376
0.0205408
0.0204521
0.0203628
0.0202742
0.0201761
0.0200722
0.0199751
0.0198941
0.0198399
0.0197891
0.0197857
0.0198521
0.0199964
0.0202426
0.0205345
0.032661
0.0325053
0.032376
0.0320899
0.0316602
0.0311453
0.0305767
0.0299739
0.0293551
0.0287366
0.0281306
0.0275451
0.0269853
0.0264559
0.0259604
0.0255001
0.0250759
0.0246878
0.0243358
0.0240171
0.0237379
0.0234965
0.0232847
0.0231061
0.0229573
0.0228338
0.0227334
0.0226541
0.0225935
0.0225484
0.0225168
0.0224942
0.0224776
0.0224634
0.0224525
0.0224421
0.0224328
0.0224256
0.0224218
0.022436
0.0224436
0.0361319
0.0359597
0.0358054
0.035483
0.0350072
0.0344382
0.03381
0.0331446
0.0324622
0.0317806
0.0311129
0.0304678
0.0298511
0.029268
0.0287219
0.0282146
0.027747
0.0273193
0.0269317
0.0265811
0.0262752
0.0260116
0.0257812
0.0255884
0.0254299
0.0253006
0.0251975
0.0251188
0.0250626
0.0250273
0.0250116
0.025014
0.0250336
0.0250683
0.0251161
0.0251766
0.0252488
0.0253298
0.0254151
0.0255087
0.0256027
0.0398945
0.0397045
0.0395205
0.0391573
0.0386311
0.0380035
0.0373112
0.0365791
0.0358297
0.035082
0.0343503
0.0336439
0.0329692
0.032332
0.0317356
0.0311822
0.0306727
0.0302075
0.0297869
0.0294078
0.0290788
0.0287973
0.028552
0.0283488
0.0281844
0.0280534
0.0279524
0.0278792
0.0278316
0.0278076
0.0278054
0.0278233
0.0278605
0.0279151
0.0279857
0.0280722
0.0281741
0.02829
0.028416
0.0285574
0.0287
0.0439792
0.0437693
0.0435497
0.0431402
0.0425581
0.0418664
0.0411047
0.0403013
0.0394808
0.0386637
0.0378654
0.0370958
0.0363621
0.0356703
0.035024
0.0344254
0.0338756
0.0333751
0.0329242
0.0325197
0.0321715
0.031876
0.0316199
0.0314103
0.0312439
0.0311149
0.0310195
0.0309553
0.0309199
0.0309111
0.0309267
0.0309647
0.0310239
0.0311022
0.0311976
0.0313099
0.0314385
0.0315816
0.0317351
0.0319045
0.0320778
0.0484193
0.0481866
0.0479238
0.0474608
0.0468161
0.0460536
0.0452164
0.0443363
0.0434402
0.04255
0.0416822
0.0408475
0.0400535
0.0393066
0.0386107
0.0379679
0.0373793
0.0368456
0.0363672
0.0359405
0.0355769
0.0352716
0.0350086
0.0347966
0.0346322
0.0345091
0.034423
0.0343714
0.0343517
0.0343612
0.0343977
0.034459
0.0345435
0.0346489
0.0347732
0.0349158
0.0350761
0.0352522
0.0354395
0.0356419
0.0358576
0.0532523
0.0529917
0.0526762
0.0521506
0.0514348
0.0505932
0.0496731
0.04871
0.0477331
0.0467657
0.0458254
0.0449235
0.0440678
0.0432652
0.04252
0.0418341
0.0412084
0.0406438
0.0401406
0.0396951
0.0393199
0.0390087
0.0387428
0.0385323
0.0383739
0.0382606
0.0381877
0.0381523
0.0381518
0.0381832
0.038244
0.0383316
0.0384445
0.0385801
0.0387359
0.0389115
0.039106
0.0393174
0.039541
0.0397781
0.0400415
0.0585198
0.0582241
0.0578433
0.0572434
0.0564457
0.0555151
0.0545033
0.0534497
0.0523859
0.0513366
0.0503201
0.0493486
0.0484299
0.0475712
0.0467772
0.0460493
0.0453885
0.0447953
0.0442704
0.0438095
0.0434264
0.0431136
0.042849
0.0426442
0.042496
0.0423965
0.0423408
0.0423257
0.0423481
0.0424051
0.0424936
0.042611
0.0427554
0.0429241
0.0431144
0.0433256
0.0435568
0.0438059
0.0440678
0.044341
0.0446571
0.0642684
0.0639267
0.0634644
0.0627754
0.0618825
0.0608506
0.0597363
0.0585832
0.0574253
0.0562883
0.0551916
0.0541478
0.0531646
0.0522491
0.0514067
0.0506382
0.0499442
0.0493251
0.0487815
0.0483087
0.0479218
0.0476115
0.0473522
0.0471571
0.047023
0.0469412
0.0469063
0.0469148
0.0469636
0.0470492
0.0471684
0.0473184
0.047497
0.0477014
0.0479286
0.0481778
0.048448
0.0487371
0.0490396
0.04935
0.0497251
0.0705503
0.0701474
0.0695827
0.0687859
0.0677807
0.0666322
0.0654022
0.0641389
0.062878
0.0616467
0.0604649
0.0593454
0.0582958
0.0573232
0.0564326
0.055625
0.0548999
0.0542577
0.0536988
0.0532179
0.0528314
0.0525283
0.0522788
0.052098
0.0519826
0.0519231
0.0519134
0.0519498
0.0520288
0.0521467
0.0523003
0.0524861
0.052702
0.0529448
0.0532114
0.0535009
0.0538119
0.0541427
0.0544871
0.0548357
0.0552745
0.0774238
0.0769383
0.076245
0.0753166
0.0741779
0.0728939
0.0715322
0.0701451
0.0687707
0.0674369
0.0661639
0.0649646
0.0638465
0.0628158
0.0618772
0.0610316
0.0602776
0.0596148
0.0590435
0.0585578
0.0581749
0.0578823
0.0576457
0.057482
0.0573881
0.0573535
0.0573713
0.0574376
0.0575489
0.0577011
0.0578905
0.0581137
0.0583682
0.0586507
0.0589577
0.0592883
0.059641
0.0600143
0.0604009
0.0607874
0.0612958
0.0849547
0.0843574
0.083502
0.0824123
0.0811135
0.0796707
0.0781572
0.07663
0.0751289
0.0736825
0.0723108
0.0710268
0.0698372
0.068747
0.0677605
0.0668784
0.066098
0.0654181
0.0648384
0.0643528
0.0639787
0.0637025
0.0634845
0.063344
0.0632774
0.0632733
0.063324
0.0634254
0.0635734
0.0637639
0.0639928
0.0642563
0.0645518
0.064876
0.0652248
0.0655974
0.065992
0.0664078
0.0668354
0.0672602
0.0678355
0.0932164
0.092468
0.091409
0.0901205
0.0886287
0.0869978
0.0853078
0.0836202
0.0819763
0.0804049
0.0789255
0.0775503
0.0762851
0.0751332
0.0740977
0.0731788
0.0723725
0.0716762
0.0710887
0.0706032
0.0702374
0.0699764
0.0697756
0.0696563
0.0696149
0.0696389
0.06972
0.0698536
0.0700358
0.0702619
0.0705276
0.0708288
0.0711628
0.071526
0.0719139
0.0723259
0.0727596
0.0732152
0.0736809
0.0741396
0.0747902
0.102291
0.101339
0.100024
0.0984908
0.0967645
0.0949098
0.0930131
0.0911406
0.0893347
0.0876234
0.0860254
0.0845513
0.0832057
0.0819899
0.0809056
0.0799521
0.079124
0.0784171
0.0778292
0.0773529
0.0770056
0.0767709
0.0765984
0.0765116
0.0765065
0.076569
0.0766899
0.0768646
0.0770883
0.0773562
0.0776635
0.0780061
0.0783808
0.0787839
0.0792109
0.079661
0.0801312
0.0806237
0.0811211
0.0816165
0.0823131
0.112267
0.111045
0.109409
0.107572
0.10556
0.103438
0.1013
0.0992143
0.097224
0.0953557
0.0936261
0.0920434
0.0906098
0.0893237
0.0881841
0.0871894
0.0863317
0.0856049
0.0850052
0.0845244
0.0841792
0.0839537
0.0837916
0.0837192
0.0837322
0.0838154
0.0839591
0.0841581
0.0844077
0.0847027
0.085038
0.085409
0.0858125
0.0862445
0.0866999
0.0871778
0.087675
0.0881952
0.0887169
0.0892311
0.0900072
0.12324
0.121662
0.119626
0.117412
0.115052
0.112612
0.110192
0.107863
0.105664
0.10362
0.101745
0.100044
0.0985168
0.0971605
0.0959713
0.0949461
0.0940752
0.0933499
0.0927644
0.0923094
0.0919993
0.0918158
0.0916967
0.0916699
0.0917304
0.0918612
0.0920515
0.0922957
0.0925887
0.0929249
0.093299
0.0937063
0.0941432
0.094606
0.0950893
0.0955931
0.0961119
0.0966547
0.0971852
0.0977413
0.0984771
0.135315
0.133273
0.130738
0.128061
0.12528
0.122466
0.119719
0.117112
0.11468
0.11244
0.110402
0.108565
0.106926
0.105476
0.104205
0.103108
0.102175
0.101395
0.100762
0.100264
0.0999168
0.0997057
0.0995618
0.0995161
0.0995628
0.099684
0.099868
0.100109
0.100401
0.100739
0.101116
0.101527
0.101968
0.102435
0.102922
0.103427
0.103946
0.104488
0.105018
0.105545
0.106411
0.148609
0.145954
0.142793
0.139552
0.136279
0.133038
0.129925
0.127006
0.124311
0.121853
0.119636
0.117656
0.115908
0.114387
0.113087
0.111995
0.111093
0.110361
0.109788
0.109361
0.10909
0.108953
0.10888
0.108901
0.109011
0.109191
0.109427
0.109714
0.110046
0.110416
0.11082
0.111252
0.111709
0.112186
0.112679
0.113188
0.113703
0.114248
0.114745
0.115364
0.115922
0.163197
0.159733
0.155783
0.151857
0.148029
0.144338
0.140848
0.137601
0.134617
0.131908
0.129476
0.127311
0.125389
0.123678
0.122157
0.120835
0.119713
0.118783
0.118032
0.117444
0.117024
0.116767
0.116587
0.116517
0.116549
0.116661
0.116838
0.117074
0.117361
0.117692
0.11806
0.118457
0.11888
0.119323
0.119779
0.120245
0.120717
0.121206
0.121675
0.122104
0.123083
0.178997
0.174555
0.169691
0.164985
0.160536
0.156362
0.152496
0.148943
0.145689
0.142722
0.140047
0.13769
0.135681
0.134036
0.132725
0.131667
0.130789
0.130064
0.129484
0.129049
0.128765
0.128606
0.128504
0.128496
0.128576
0.128722
0.12892
0.129164
0.129449
0.129768
0.130117
0.130489
0.130882
0.131293
0.131716
0.132156
0.132594
0.133079
0.133452
0.134208
0.134101
0.195911
0.190402
0.184659
0.179246
0.17421
0.169508
0.165164
0.161212
0.157655
0.154458
0.151554
0.148852
0.146277
0.143799
0.141479
0.139476
0.137868
0.136598
0.135597
0.134812
0.134236
0.133868
0.133601
0.133463
0.133437
0.133497
0.133628
0.133817
0.134056
0.134333
0.13464
0.134966
0.135306
0.135653
0.135997
0.136332
0.13666
0.136975
0.137298
0.137355
0.13873
0.21442
0.207448
0.200748
0.194815
0.18949
0.184512
0.17977
0.175266
0.171072
0.16732
0.164156
0.161694
0.159949
0.15884
0.158117
0.157339
0.156326
0.155257
0.154256
0.153394
0.152677
0.152074
0.151551
0.151144
0.150849
0.15064
0.150502
0.150429
0.150413
0.150448
0.150529
0.150651
0.15081
0.151005
0.151231
0.151499
0.151772
0.152154
0.152311
0.153479
0.151767
0.234887
0.225083
0.216476
0.209623
0.204167
0.199544
0.195355
0.191313
0.187193
0.182831
0.178155
0.173206
0.168162
0.163261
0.158866
0.15557
0.153395
0.151816
0.150614
0.149687
0.149033
0.148626
0.148356
0.148235
0.148234
0.148324
0.148482
0.148693
0.148941
0.14921
0.149486
0.149755
0.150006
0.15023
0.150411
0.150533
0.15062
0.150601
0.150695
0.149888
0.152395
0.254037
0.241992
0.231684
0.223276
0.216524
0.211109
0.206886
0.203758
0.201582
0.200168
0.199299
0.198754
0.198325
0.197966
0.197494
0.195783
0.192877
0.189799
0.186852
0.184193
0.181828
0.179726
0.177839
0.17617
0.174714
0.173446
0.172343
0.171396
0.170594
0.169933
0.169407
0.169014
0.168751
0.168623
0.168626
0.168781
0.169032
0.169567
0.169806
0.172111
0.168491
0.243829
0.230003
0.223506
0.222347
0.223943
0.225169
0.223178
0.217023
0.208071
0.198447
0.18963
0.18225
0.176416
0.17192
0.168622
0.167047
0.166905
0.167412
0.168215
0.169181
0.170376
0.171478
0.172706
0.17399
0.175288
0.176588
0.177883
0.179165
0.180427
0.181663
0.182875
0.184061
0.185234
0.186403
0.187566
0.188702
0.189913
0.19103
0.192648
0.192336
0.199609
0.0051553
0.00939108
0.0140521
0.018771
0.0236551
0.0288178
0.0344806
0.0414642
0.0529947
0.0671488
0.0262896
0.0115041
0.210385
0.0227516
0.0125164
0.0136988
0.0150566
0.01604
0.0170906
0.01828
0.0195592
0.0209642
0.0225032
0.0241908
0.0260491
0.0280923
0.0303698
0.0328811
0.0356847
0.0387954
0.0422775
0.0461343
0.0504373
0.0552082
0.0605089
0.066405
0.0729654
0.080274
0.088462
0.0976004
0.107884
0.119544
0.132754
0.147881
0.165447
0.185796
0.210037
0.239048
0.272892
0.310952
0.350448
0.37623
0.382878
0.372347
0.355948
0.342158
0.328607
0.318927
0.311031
0.305481
0.301362
0.298745
0.29719
0.296692
0.296778
0.298116
0.299129
0.3022
0.303368
0.309894
0.306884
0.322198
0.303016
0.324885
0.00898854
0.0123366
0.0166154
0.0209723
0.0253498
0.0298332
0.034519
0.0397153
0.0464223
0.0577755
0.0670315
0.0241147
0.0116595
0.157914
0.0331972
0.0134441
0.0145183
0.0160343
0.0170747
0.0182228
0.0195218
0.0209385
0.0224847
0.0241802
0.0260482
0.0280968
0.0303804
0.0329003
0.0357099
0.0388282
0.0423204
0.0461964
0.0505196
0.0553239
0.0606616
0.0666058
0.073231
0.0806189
0.0889199
0.0981956
0.108629
0.120545
0.134018
0.149491
0.167529
0.188292
0.213295
0.242969
0.277129
0.314657
0.352168
0.373881
0.37782
0.367002
0.351783
0.339178
0.326882
0.318128
0.310955
0.306004
0.302385
0.300131
0.298903
0.298721
0.298999
0.300615
0.301726
0.305015
0.306122
0.313235
0.309388
0.326444
0.304827
0.328027
0.015117
0.0169938
0.0203112
0.0240068
0.0278243
0.0317191
0.0357068
0.0399189
0.044769
0.0512769
0.0621875
0.0670743
0.0244461
0.0122879
0.240976
0.0564634
0.0143345
0.0151191
0.0169877
0.0182394
0.0194564
0.020879
0.0224488
0.0241533
0.0260293
0.0280924
0.0303774
0.0329104
0.0357283
0.0388602
0.0423578
0.0462562
0.0505983
0.0554391
0.0608189
0.0668156
0.0735111
0.0809888
0.0894003
0.0988428
0.109444
0.121608
0.135384
0.151225
0.169705
0.190961
0.216674
0.24653
0.280585
0.317222
0.350851
0.368736
0.370486
0.36051
0.347219
0.335452
0.324979
0.317179
0.310914
0.306614
0.303501
0.301762
0.300866
0.300957
0.301538
0.303258
0.304732
0.308145
0.309178
0.316827
0.31224
0.331018
0.306929
0.331421
0.0231759
0.0234155
0.0254098
0.028125
0.0312048
0.0344655
0.0378239
0.0413061
0.0450941
0.0496222
0.0557996
0.0655744
0.0681962
0.0258933
0.0138635
0.460243
0.486261
0.0166879
0.0158845
0.0179244
0.0194936
0.0208132
0.0223541
0.0240933
0.0259843
0.0280503
0.030336
0.0328793
0.0357047
0.0388477
0.0423529
0.0462701
0.0506331
0.0555058
0.0609272
0.0669747
0.0737374
0.0813027
0.0898208
0.0994105
0.110192
0.122581
0.136637
0.152831
0.171699
0.193439
0.219666
0.249621
0.283391
0.318861
0.348911
0.363903
0.364366
0.355366
0.343754
0.332859
0.323866
0.316884
0.311441
0.307679
0.305058
0.303701
0.303121
0.303459
0.304278
0.306127
0.307819
0.311399
0.3123
0.320495
0.315071
0.335691
0.308961
0.3348
0.0326165
0.0318487
0.0322029
0.0336237
0.0357449
0.0382463
0.0409376
0.043755
0.0467537
0.0501344
0.0542921
0.0599044
0.0681276
0.0703608
0.0299018
0.0171674
4.30937
0.0238918
0.0191818
0.0168035
0.0188351
0.0208876
0.022367
0.0239726
0.0258781
0.0279858
0.0302778
0.0328143
0.0356398
0.0387926
0.042309
0.0462409
0.0506235
0.0555236
0.0609846
0.0670803
0.073905
0.0815504
0.0901701
0.0998862
0.110839
0.123434
0.137741
0.154246
0.173454
0.195595
0.222134
0.252164
0.28548
0.319502
0.346671
0.359613
0.359522
0.351527
0.341318
0.331433
0.323585
0.317308
0.312576
0.309255
0.307103
0.305998
0.305701
0.306273
0.307242
0.309271
0.311003
0.314781
0.315501
0.324262
0.317883
0.34045
0.310934
0.338117
0.0442181
0.0425977
0.0410015
0.0408193
0.041737
0.043304
0.0452231
0.0473449
0.0496339
0.0521637
0.0551256
0.0588236
0.0637001
0.0702727
0.0728103
0.0381442
0.0220616
0.0194407
0.124634
0.0297398
0.0181577
0.0194905
0.0221835
0.0241624
0.0258362
0.0278261
0.0301594
0.0327404
0.0355643
0.0387024
0.0422194
0.0461666
0.0505729
0.0554992
0.0609937
0.0671331
0.0740142
0.0817325
0.0904432
0.100274
0.111376
0.124153
0.138676
0.15544
0.174919
0.19733
0.223996
0.253865
0.286443
0.318636
0.343385
0.354851
0.354811
0.347992
0.339134
0.330457
0.323619
0.318061
0.31397
0.311094
0.309348
0.308518
0.308468
0.309252
0.310353
0.312542
0.314286
0.318247
0.31877
0.328097
0.320721
0.345264
0.312913
0.34136
0.0581764
0.0559663
0.0521386
0.0500653
0.0495158
0.049937
0.050929
0.0522595
0.0538161
0.0555861
0.0576487
0.0601571
0.063321
0.0673832
0.0724065
0.0749951
0.0492184
0.0152112
0.0133572
0.243526
0.206297
0.0226847
0.0203926
0.023005
0.0259337
0.0280252
0.0300341
0.0324986
0.0353883
0.0385928
0.042118
0.0460501
0.0504593
0.0554122
0.0609476
0.0671325
0.0740627
0.0818427
0.0906299
0.100563
0.111797
0.124726
0.139426
0.156395
0.176062
0.198615
0.22523
0.254661
0.286197
0.316402
0.33905
0.349553
0.349969
0.344487
0.337005
0.329598
0.32373
0.318922
0.315437
0.31303
0.311644
0.311129
0.311307
0.312281
0.313525
0.315833
0.317611
0.321736
0.322053
0.331933
0.323571
0.350082
0.314893
0.344528
0.0730216
0.0721944
0.066003
0.061766
0.0594663
0.0585006
0.0583712
0.0587645
0.0594983
0.0604911
0.0617455
0.0633275
0.0653482
0.0679365
0.0711751
0.0748828
0.0770998
0.0651395
0.01982
0.0189936
2.02838
0.152257
0.0419552
0.0231151
0.0237214
0.0271318
0.0304123
0.0328277
0.0352561
0.0382644
0.0418504
0.0458874
0.0503378
0.0552852
0.060823
0.0670425
0.0740313
0.0818798
0.0907353
0.100749
0.11209
0.125139
0.13998
0.157103
0.176873
0.199458
0.225842
0.254649
0.284918
0.313245
0.3341
0.344108
0.345195
0.341139
0.335044
0.32886
0.323944
0.319874
0.316985
0.315037
0.31401
0.313797
0.314198
0.315342
0.316721
0.319133
0.320947
0.325221
0.325323
0.335731
0.326406
0.354871
0.316858
0.347628
0.0888943
0.0914435
0.083142
0.0764271
0.0720554
0.069423
0.0679388
0.0672052
0.0669727
0.0670991
0.0675266
0.0682587
0.0693438
0.0708542
0.0728496
0.0753155
0.0779674
0.0798242
0.0743585
0.0414267
0.0351606
0.020299
0.408905
0.142215
0.0362563
0.0257594
0.0272978
0.0315098
0.0356268
0.0387271
0.0417556
0.0454586
0.0499347
0.0550496
0.060705
0.0669504
0.0739314
0.0817999
0.0907168
0.10082
0.112266
0.125401
0.14033
0.157542
0.177333
0.199853
0.225843
0.253889
0.282781
0.309383
0.328803
0.338669
0.340599
0.33798
0.333271
0.328263
0.324287
0.320938
0.318639
0.317132
0.316467
0.31653
0.317146
0.318451
0.319945
0.32246
0.324289
0.3287
0.328584
0.339488
0.329228
0.359611
0.318807
0.350679
0.107956
0.114543
0.104603
0.0948947
0.087954
0.0832771
0.0801358
0.0780294
0.0766326
0.0757433
0.0752487
0.0751011
0.0753004
0.0758748
0.0768593
0.0782703
0.0800338
0.0819409
0.0833279
0.0808164
0.0676752
0.0222584
0.0304288
0
0.335595
0.985958
0.0404343
0.0298791
0.0317371
0.0366101
0.0419292
0.0461593
0.0500249
0.0545456
0.0600746
0.0665328
0.0737677
0.081758
0.0906729
0.100755
0.112238
0.125453
0.140483
0.157748
0.177466
0.199787
0.225217
0.2524
0.27987
0.304912
0.323163
0.333187
0.336047
0.334896
0.331534
0.327733
0.324664
0.322061
0.320337
0.319284
0.318978
0.319309
0.320135
0.321605
0.323204
0.32581
0.32764
0.332173
0.331849
0.343212
0.332061
0.364294
0.320758
0.353706
0.134723
0.145417
0.13329
0.119139
0.108514
0.101051
0.0957379
0.0918843
0.0890333
0.0869011
0.0853133
0.0841723
0.0834337
0.0830862
0.0831338
0.0835863
0.0844296
0.085591
0.0869261
0.0878112
0.0870888
0.0808721
0.0591332
0.0560889
0.0317333
0.0281959
0.344726
0.18785
0.0586288
0.0358823
0.0372717
0.0426585
0.049626
0.0557416
0.0609219
0.0663972
0.073054
0.081089
0.0903628
0.100738
0.112287
0.125392
0.14032
0.157541
0.177193
0.199305
0.224079
0.250261
0.276266
0.299884
0.31723
0.327566
0.331431
0.331726
0.329709
0.327136
0.324977
0.323146
0.322004
0.321423
0.32148
0.322089
0.323127
0.324765
0.32647
0.329156
0.330986
0.335625
0.335113
0.346888
0.334914
0.368895
0.322717
0.35674
0.17959
0.200617
0.180657
0.155373
0.137386
0.125112
0.116393
0.109976
0.105117
0.101346
0.0983634
0.0960038
0.0941716
0.0928106
0.0918871
0.0913862
0.0913003
0.0916031
0.0922421
0.0930517
0.0936773
0.0935409
0.0906639
0.0825802
0.0591385
0.0299459
0.757155
0.0274708
0.132601
0.249534
0.103421
0.0457804
0.0434116
0.0489919
0.0577621
0.0668309
0.0745911
0.081688
0.0897242
0.099627
0.111503
0.125176
0.1404
0.157453
0.176624
0.198181
0.222236
0.2475
0.272219
0.294469
0.311122
0.321764
0.326737
0.328376
0.327739
0.326358
0.325152
0.324107
0.323575
0.323482
0.323912
0.324814
0.326075
0.327886
0.329706
0.332472
0.334312
0.339039
0.338364
0.35049
0.337789
0.373392
0.324688
0.359816
0.241587
0.34192
0.336596
0.234126
0.188161
0.162951
0.146758
0.135427
0.127077
0.120682
0.115642
0.11159
0.108316
0.105692
0.103627
0.102065
0.100978
0.100341
0.100121
0.100255
0.100608
0.101008
0.100995
0.0999407
0.0962735
0.0888573
0.0668109
0.0403566
0.0291832
0.0820643
1.31958
0.415833
1.13834
0.079228
0.0550975
0.0580679
0.0680309
0.0803371
0.0922215
0.102166
0.111891
0.123669
0.138442
0.156153
0.176035
0.19749
0.22044
0.244198
0.267532
0.288689
0.304926
0.315854
0.321894
0.324807
0.325555
0.325344
0.325111
0.324868
0.324977
0.325396
0.326219
0.327433
0.328933
0.330926
0.332876
0.335724
0.337591
0.342389
0.341589
0.35399
0.340685
0.37775
0.326672
0.362976
0.214446
0.242148
0.299135
0.402004
0.326241
0.245738
0.203674
0.178468
0.16165
0.149513
0.14038
0.133303
0.127683
0.123148
0.119468
0.116505
0.114175
0.11242
0.111182
0.110403
0.110014
0.109931
0.110009
0.110003
0.109572
0.108133
0.104434
0.0976847
0.0837743
0.0250757
0.0835719
0.0538737
13.5624
0.923035
1.69076
0.127051
0.0740717
0.0700202
0.0791949
0.0944411
0.112279
0.128185
0.141583
0.155493
0.172713
0.193858
0.217551
0.241312
0.263362
0.282948
0.298576
0.309879
0.31697
0.321048
0.323109
0.32406
0.324822
0.325391
0.32617
0.327117
0.32837
0.329913
0.33167
0.333858
0.335953
0.338894
0.340807
0.345661
0.344785
0.357382
0.343609
0.381956
0.328672
0.366279
0.172886
0.180374
0.189874
0.205775
0.228577
0.25654
0.273565
0.258041
0.228539
0.2026
0.183075
0.168668
0.157677
0.149118
0.142352
0.136959
0.132651
0.129245
0.126588
0.124564
0.123089
0.122089
0.121485
0.121157
0.120963
0.120693
0.120059
0.118477
0.115607
0.108689
0.0973794