/*--------------------------------*- C++ -*----------------------------------*\
| =========                 |                                                 |
| \\      /  F ield         | OpenFOAM: The Open Source CFD Toolbox           |
|  \\    /   O peration     | Version:  2312                                  |
|   \\  /    A nd           | Website:  www.openfoam.com                      |
|    \\/     M anipulation  |                                                 |
\*---------------------------------------------------------------------------*/
FoamFile
{
    version     2.0;
    format      ascii;
    arch        "LSB;label=32;scalar=64";
    class       volScalarField;
    location    "800";
    object      turbulenceProperties:nut;
}
// * * * * * * * * * * * * * * * * * * * * * * * * * * * * * * * * * * * * * //

dimensions      [0 2 -1 0 0 0 0];

internalField   nonuniform List<scalar> 
11040
(
3.78994e-05
5.48716e-05
1.54773e-05
4.86811e-05
0.000188364
0.000181518
0.000171892
0.000161831
0.000149275
0.000141519
0.000133476
0.000126456
0.000120104
0.000115081
0.000110757
0.000108358
0.000107976
0.000109621
0.000112814
0.000117323
0.000123223
0.000130307
0.000138299
0.000147003
0.000156534
0.000167849
0.000180811
0.000193555
0.000205538
0.000216181
0.000224855
0.000230943
0.000235183
0.000241854
0.000260795
0.000251688
0.000175863
0.000180747
0.000199681
0.000219727
0.000296539
4.20044e-06
3.68933e-05
5.60021e-05
0.000143049
0.000601832
0.000628569
0.000552467
0.000508886
0.000442736
0.000407432
0.000370846
0.00034222
0.00031535
0.00029495
0.000275891
0.000262447
0.000255587
0.000254618
0.000256844
0.000260895
0.000266884
0.000274858
0.000283219
0.000290811
0.000298595
0.000314017
0.000341557
0.000373555
0.000409623
0.000449856
0.000494399
0.000543668
0.000596918
0.000655768
0.000722493
0.00079077
0.000859726
0.000951242
0.00105998
0.00115006
0.00161999
5.52921e-06
9.44048e-06
3.01762e-05
6.50986e-05
0.000412957
0.000965717
0.00118757
0.00114805
0.00100536
0.00093109
0.000848533
0.00078728
0.000727573
0.000683572
0.000641556
0.000607937
0.000582261
0.000562581
0.000551036
0.000546661
0.000550845
0.000564604
0.000588656
0.000623841
0.000670219
0.000727595
0.000795745
0.000874172
0.000962573
0.00106044
0.0011666
0.00128038
0.00140138
0.00153022
0.00166796
0.00181494
0.00197751
0.00217811
0.00242209
0.00266589
0.00350067
6.48468e-06
5.16623e-06
1.06825e-05
1.12342e-05
0.000138916
0.000595651
0.00130511
0.00170937
0.00178001
0.0016905
0.00154717
0.00144673
0.00134219
0.00126467
0.00118941
0.00112653
0.0010802
0.00104341
0.00102126
0.00101215
0.0010178
0.0010412
0.00108487
0.00114997
0.00123593
0.00134164
0.00146616
0.00160848
0.0017677
0.00194275
0.0021321
0.00233436
0.00254844
0.00277462
0.00301379
0.00326858
0.00355087
0.00389259
0.00431137
0.00477273
0.00594957
6.2039e-06
5.76992e-06
6.40543e-06
5.43345e-06
4.85529e-06
0.00017692
0.00070825
0.00156111
0.00225667
0.00246747
0.00248016
0.00237492
0.00221189
0.00209326
0.00197922
0.00187563
0.00180276
0.00174273
0.00170551
0.00168959
0.00169498
0.00172723
0.00179248
0.00189266
0.00202694
0.00219397
0.00239206
0.00261893
0.00287258
0.00315108
0.00345138
0.00377063
0.00410676
0.00445948
0.00482937
0.00522041
0.00564895
0.00616005
0.00678819
0.00752285
0.00900433
6.09568e-06
6.18874e-06
5.89362e-06
6.59888e-06
1.71335e-06
9.04692e-07
0.000172043
0.00072989
0.00171446
0.00273268
0.00320935
0.00337986
0.00336889
0.00326113
0.00308505
0.00292173
0.00281383
0.00272163
0.00266112
0.00263493
0.00263745
0.0026762
0.00276428
0.00290549
0.0030986
0.00334246
0.00363449
0.00397037
0.00434578
0.00475764
0.00520039
0.00566866
0.00615849
0.00666861
0.00719857
0.00775286
0.00835227
0.00905421
0.00991892
0.0109702
0.0127671
6.10529e-06
6.13744e-06
6.01473e-06
6.35076e-06
5.93405e-06
4.38406e-07
3.45173e-09
0.000119172
0.000658458
0.00170722
0.00301281
0.00395507
0.00433575
0.00448151
0.00447438
0.00437406
0.00422577
0.00407338
0.0039768
0.00393587
0.00393344
0.00397429
0.00408357
0.00426971
0.00453053
0.00486601
0.00527328
0.00574529
0.00627273
0.00685136
0.0074719
0.00812441
0.00880168
0.00950081
0.0102191
0.0109599
0.0117478
0.012651
0.0137639
0.0151534
0.0173091
6.11449e-06
6.11198e-06
6.13197e-06
6.0494e-06
6.56116e-06
6.05478e-06
2.03991e-08
2.811e-11
5.15127e-05
0.000510946
0.00151871
0.00302018
0.00449127
0.00531141
0.00568044
0.00582722
0.00585473
0.00580539
0.00573601
0.00567804
0.00567335
0.00572776
0.00586154
0.0060973
0.00643243
0.00687107
0.00741286
0.00804962
0.00876088
0.00954181
0.0103783
0.0112527
0.0121517
0.0130701
0.0140016
0.014945
0.0159278
0.0170265
0.0183705
0.0200844
0.0226036
6.11281e-06
6.11646e-06
6.11224e-06
6.13183e-06
5.99796e-06
7.15418e-06
5.39826e-06
1.16693e-07
3.19172e-07
5.21524e-07
0.000313365
0.00117701
0.00270906
0.00459773
0.00612883
0.0068975
0.0073024
0.00750876
0.00763321
0.00771616
0.00781371
0.00795238
0.00817479
0.00851048
0.00896057
0.00952507
0.0102116
0.0110252
0.0119502
0.0129677
0.014059
0.0151941
0.0163477
0.0175117
0.0186755
0.0198263
0.0209933
0.0222632
0.0237759
0.0257438
0.0285679
6.11208e-06
6.11372e-06
6.11352e-06
6.11919e-06
6.0991e-06
6.04645e-06
7.34549e-06
4.91797e-06
4.8407e-07
1.45203e-08
2.32415e-05
0.000124127
0.000770278
0.00213572
0.00418555
0.00639706
0.00798323
0.00880399
0.00932323
0.00968997
0.0100273
0.0103792
0.0108082
0.0113595
0.0120536
0.0128914
0.0138631
0.014951
0.0161367
0.017417
0.0187923
0.02022
0.0216493
0.0230686
0.02447
0.0258146
0.0271267
0.0285094
0.0300909
0.0321579
0.0351203
6.11083e-06
6.11185e-06
6.11326e-06
6.10917e-06
6.12679e-06
6.05598e-06
6.1778e-06
7.03588e-06
5.91429e-06
1.37472e-06
7.18991e-09
5.33238e-07
1.5843e-07
0.000366317
0.00140482
0.00330422
0.00585766
0.00840131
0.0101562
0.0111727
0.0119489
0.0126309
0.0133518
0.0141954
0.0152163
0.016434
0.0178456
0.0194334
0.0211635
0.0229879
0.0248433
0.0266551
0.0283754
0.0300362
0.0316735
0.0331819
0.0345546
0.0359586
0.0374857
0.0393815
0.0421587
6.1094e-06
6.11035e-06
6.11026e-06
6.11084e-06
6.10858e-06
6.11736e-06
6.0628e-06
6.1675e-06
6.75756e-06
6.6115e-06
2.93726e-06
2.92391e-09
1.11785e-09
2.5029e-05
9.4491e-05
0.000717259
0.00217234
0.00459305
0.00766514
0.0106535
0.012797
0.0141846
0.0153637
0.0165682
0.0179414
0.01955
0.0214118
0.0235248
0.0258574
0.0283552
0.0309495
0.0335596
0.0360947
0.0384626
0.0405493
0.0422271
0.0435239
0.0448396
0.0461646
0.0476166
0.0497752
6.1081e-06
6.10865e-06
6.10858e-06
6.10841e-06
6.10835e-06
6.10793e-06
6.10917e-06
6.0787e-06
6.12779e-06
6.52918e-06
7.03295e-06
4.4001e-06
2.11553e-07
2.00837e-09
1.19679e-07
9.80733e-05
0.000218092
0.00109701
0.00294636
0.00587558
0.00954179
0.0130998
0.0157867
0.0177592
0.0196168
0.0216423
0.0239155
0.0264907
0.0293569
0.032458
0.0357228
0.039068
0.0423968
0.0456134
0.0486154
0.0512889
0.0535352
0.0552781
0.0564047
0.0571392
0.0585577
6.10692e-06
6.10722e-06
6.10725e-06
6.10725e-06
6.10715e-06
6.10665e-06
6.10667e-06
6.10659e-06
6.08848e-06
6.09438e-06
6.32833e-06
7.07799e-06
5.96828e-06
1.60919e-06
3.9916e-10
7.4509e-11
1.27292e-06
0.000168164
0.000343172
0.00141988
0.00360192
0.00685683
0.0107396
0.0147746
0.0184454
0.0215476
0.024408
0.0274388
0.030774
0.0343812
0.0382046
0.0421747
0.0461881
0.0501451
0.0539431
0.0574814
0.0606699
0.0634481
0.0657456
0.0675316
0.0688539
6.10586e-06
6.10661e-06
6.10677e-06
6.10683e-06
6.1065e-06
6.10615e-06
6.10569e-06
6.10583e-06
6.10532e-06
6.09771e-06
6.07099e-06
6.20645e-06
6.81477e-06
6.78249e-06
4.4604e-06
3.02058e-07
3.12521e-09
1.18355e-12
5.50126e-06
0.000213775
0.000405389
0.00151418
0.00352407
0.0064933
0.0102688
0.0146114
0.0192523
0.023893
0.028335
0.0326387
0.037001
0.0415232
0.0461526
0.0507807
0.0552988
0.0596074
0.0636274
0.0673203
0.0706188
0.0734657
0.075855
6.105e-06
6.10627e-06
6.10634e-06
6.10614e-06
6.10578e-06
6.10537e-06
6.10504e-06
6.10473e-06
6.10468e-06
6.10487e-06
6.10159e-06
6.07013e-06
6.13793e-06
6.40684e-06
7.11968e-06
5.95802e-06
2.99244e-06
1.56483e-08
5.9232e-10
1.03672e-13
8.37709e-06
0.000187829
0.000235189
0.000995341
0.00243521
0.00469692
0.00781298
0.0117514
0.016441
0.0217771
0.0275806
0.0335673
0.0394484
0.0450818
0.0504553
0.0555885
0.0604736
0.0650949
0.0693847
0.0732725
0.0767306
6.10424e-06
6.10556e-06
6.10542e-06
6.10488e-06
6.10439e-06
6.10401e-06
6.10374e-06
6.10349e-06
6.10347e-06
6.10329e-06
6.10451e-06
6.10091e-06
6.08715e-06
6.07542e-06
6.24918e-06
6.67001e-06
7.12784e-06
5.18347e-06
1.64883e-06
1.6395e-09
2.5296e-10
6.70931e-14
7.21023e-07
6.45412e-05
1.31437e-09
0.000301873
0.000981838
0.0022046
0.00411778
0.00679618
0.0103055
0.0146703
0.0198567
0.0257809
0.0322663
0.0390299
0.0457414
0.0521647
0.0581085
0.0634774
0.0682756
6.10328e-06
6.10434e-06
6.10406e-06
6.10358e-06
6.10317e-06
6.10287e-06
6.10269e-06
6.10249e-06
6.10234e-06
6.10223e-06
6.10221e-06
6.10301e-06
6.10231e-06
6.09395e-06
6.07159e-06
6.12155e-06
6.35243e-06
6.94771e-06
7.00229e-06
4.81107e-06
1.22506e-06
1.24271e-09
2.62647e-10
9.43921e-13
6.6332e-14
1.09776e-06
4.70099e-05
0.000176606
1.98776e-05
0.000330704
0.00101072
0.00216721
0.00390089
0.00632946
0.00951418
0.0134761
0.0181711
0.023561
0.0294967
0.0357841
0.0422151
6.10207e-06
6.10277e-06
6.10233e-06
6.10175e-06
6.1013e-06
6.101e-06
6.10082e-06
6.10073e-06
6.10071e-06
6.10074e-06
6.10069e-06
6.10075e-06
6.101e-06
6.10227e-06
6.09674e-06
6.08557e-06
6.06789e-06
6.17984e-06
6.50492e-06
7.03874e-06
6.86773e-06
4.54303e-06
1.75399e-06
2.16701e-08
7.84326e-10
3.23677e-11
3.01013e-13
0
1.00908e-09
1.02609e-06
3.92323e-05
0.00014211
0.000288753
7.11878e-05
0.000366614
0.00105247
0.00213874
0.00371923
0.00584688
0.00854698
0.0118783
6.10079e-06
6.10119e-06
6.10064e-06
6.10006e-06
6.09964e-06
6.09939e-06
6.09927e-06
6.09923e-06
6.09925e-06
6.0993e-06
6.09938e-06
6.09947e-06
6.09948e-06
6.09977e-06
6.10029e-06
6.09989e-06
6.09069e-06
6.07432e-06
6.08065e-06
6.23133e-06
6.60952e-06
7.03521e-06
6.98544e-06
5.31497e-06
2.7535e-06
9.00689e-07
9.40652e-09
5.14148e-10
3.26128e-11
8.09543e-12
3.3813e-14
0
0
5.32547e-09
9.51943e-07
3.20683e-05
0.000118681
0.000226701
0.000362205
2.7061e-06
0.000355928
6.09944e-06
6.09962e-06
6.09907e-06
6.09858e-06
6.09829e-06
6.09816e-06
6.09814e-06
6.09819e-06
6.09827e-06
6.09837e-06
6.09848e-06
6.09859e-06
6.0987e-06
6.09877e-06
6.09896e-06
6.09939e-06
6.09992e-06
6.09658e-06
6.08333e-06
6.0673e-06
6.09229e-06
6.2622e-06
6.5611e-06
7.02436e-06
7.07836e-06
6.60932e-06
5.03061e-06
2.91886e-06
1.24747e-06
3.46514e-07
1.5991e-09
2.29899e-10
2.7113e-11
1.06998e-11
2.90279e-12
6.54512e-14
0
0
0
3.40497e-11
4.75106e-07
6.09808e-06
6.09815e-06
6.09773e-06
6.09743e-06
6.09734e-06
6.09739e-06
6.09751e-06
6.09766e-06
6.09783e-06
6.09798e-06
6.09813e-06
6.09826e-06
6.09839e-06
6.09849e-06
6.09858e-06
6.09866e-06
6.09898e-06
6.09957e-06
6.09918e-06
6.09365e-06
6.07752e-06
6.06814e-06
6.08688e-06
6.20661e-06
6.44083e-06
6.73213e-06
7.10414e-06
7.18945e-06
6.79388e-06
6.01916e-06
4.60093e-06
2.95576e-06
1.58474e-06
6.92284e-07
2.07434e-07
5.1472e-09
2.89471e-10
2.49532e-11
1.35075e-11
6.5531e-12
2.54217e-12
6.09676e-06
6.09687e-06
6.09669e-06
6.09668e-06
6.09683e-06
6.09707e-06
6.09735e-06
6.09762e-06
6.09788e-06
6.0981e-06
6.09829e-06
6.09846e-06
6.0986e-06
6.09872e-06
6.09882e-06
6.09889e-06
6.09895e-06
6.09908e-06
6.0995e-06
6.10007e-06
6.09873e-06
6.09207e-06
6.07925e-06
6.06547e-06
6.07489e-06
6.12151e-06
6.2448e-06
6.44937e-06
6.70332e-06
6.94714e-06
7.21233e-06
7.26357e-06
7.03162e-06
6.50194e-06
5.76239e-06
4.71328e-06
3.52126e-06
2.36996e-06
1.44137e-06
7.71847e-07
3.34073e-07
6.09554e-06
6.09585e-06
6.09601e-06
6.0963e-06
6.0967e-06
6.09714e-06
6.09755e-06
6.09793e-06
6.09826e-06
6.09855e-06
6.09879e-06
6.099e-06
6.09917e-06
6.09932e-06
6.09944e-06
6.09953e-06
6.09961e-06
6.09966e-06
6.09972e-06
6.0999e-06
6.10046e-06
6.10071e-06
6.0996e-06
6.09436e-06
6.08447e-06
6.07253e-06
6.06409e-06
6.07174e-06
6.11047e-06
6.18281e-06
6.30516e-06
6.47489e-06
6.67382e-06
6.88091e-06
7.06528e-06
7.24623e-06
7.33361e-06
7.272e-06
7.04245e-06
6.64757e-06
6.15021e-06
6.09448e-06
6.09512e-06
6.09565e-06
6.09625e-06
6.09686e-06
6.09744e-06
6.09796e-06
6.09842e-06
6.09882e-06
6.09916e-06
6.09945e-06
6.0997e-06
6.09991e-06
6.10009e-06
6.10025e-06
6.10038e-06
6.10049e-06
6.10058e-06
6.10065e-06
6.10069e-06
6.1008e-06
6.10105e-06
6.10151e-06
6.10191e-06
6.1013e-06
6.09879e-06
6.09321e-06
6.08434e-06
6.07408e-06
6.06587e-06
6.06299e-06
6.07182e-06
6.09792e-06
6.14616e-06
6.21608e-06
6.31204e-06
6.43236e-06
6.5746e-06
6.72843e-06
6.88385e-06
7.02507e-06
6.09365e-06
6.09468e-06
6.09557e-06
6.0964e-06
6.09717e-06
6.09784e-06
6.09843e-06
6.09895e-06
6.0994e-06
6.09978e-06
6.10012e-06
6.10042e-06
6.10067e-06
6.1009e-06
6.10109e-06
6.10126e-06
6.10142e-06
6.10155e-06
6.10167e-06
6.10177e-06
6.10186e-06
6.10195e-06
6.10207e-06
6.1023e-06
6.10268e-06
6.1031e-06
6.10327e-06
6.10269e-06
6.1007e-06
6.09701e-06
6.09132e-06
6.08389e-06
6.07559e-06
6.06791e-06
6.06266e-06
6.06135e-06
6.06586e-06
6.07895e-06
6.10186e-06
6.138e-06
6.17912e-06
6.09305e-06
6.09449e-06
6.09566e-06
6.09665e-06
6.0975e-06
6.09823e-06
6.09887e-06
6.09943e-06
6.09992e-06
6.10035e-06
6.10074e-06
6.10107e-06
6.10137e-06
6.10164e-06
6.10188e-06
6.1021e-06
6.1023e-06
6.10247e-06
6.10264e-06
6.10279e-06
6.10294e-06
6.10308e-06
6.10319e-06
6.1033e-06
6.10343e-06
6.10361e-06
6.10388e-06
6.10425e-06
6.10464e-06
6.10491e-06
6.10487e-06
6.10427e-06
6.10286e-06
6.10043e-06
6.09695e-06
6.09243e-06
6.08707e-06
6.08102e-06
6.07479e-06
6.06904e-06
6.06443e-06
6.0927e-06
6.09446e-06
6.0958e-06
6.09687e-06
6.09778e-06
6.09855e-06
6.09924e-06
6.09984e-06
6.10037e-06
6.10085e-06
6.10128e-06
6.10166e-06
6.102e-06
6.10232e-06
6.1026e-06
6.10286e-06
6.1031e-06
6.10332e-06
6.10354e-06
6.10373e-06
6.10393e-06
6.10411e-06
6.10428e-06
6.10444e-06
6.10458e-06
6.10471e-06
6.10484e-06
6.10498e-06
6.10517e-06
6.10541e-06
6.10571e-06
6.10606e-06
6.10642e-06
6.10673e-06
6.10692e-06
6.1069e-06
6.1066e-06
6.1059e-06
6.10479e-06
6.10303e-06
6.10132e-06
6.09254e-06
6.0945e-06
6.09592e-06
6.09704e-06
6.09798e-06
6.09879e-06
6.09952e-06
6.10016e-06
6.10075e-06
6.10127e-06
6.10174e-06
6.10217e-06
6.10256e-06
6.10292e-06
6.10324e-06
6.10355e-06
6.10383e-06
6.1041e-06
6.10435e-06
6.10459e-06
6.10483e-06
6.10506e-06
6.10527e-06
6.10547e-06
6.10565e-06
6.10583e-06
6.10599e-06
6.10615e-06
6.10629e-06
6.10644e-06
6.10659e-06
6.10676e-06
6.10694e-06
6.10716e-06
6.10741e-06
6.10769e-06
6.10799e-06
6.10831e-06
6.10863e-06
6.1089e-06
6.10917e-06
6.09248e-06
6.09451e-06
6.09596e-06
6.09711e-06
6.09809e-06
6.09894e-06
6.09971e-06
6.1004e-06
6.10103e-06
6.1016e-06
6.10212e-06
6.1026e-06
6.10304e-06
6.10344e-06
6.10381e-06
6.10416e-06
6.10449e-06
6.1048e-06
6.1051e-06
6.10538e-06
6.10566e-06
6.10593e-06
6.10617e-06
6.10641e-06
6.10663e-06
6.10685e-06
6.10705e-06
6.10724e-06
6.10743e-06
6.10761e-06
6.10778e-06
6.10794e-06
6.1081e-06
6.10826e-06
6.10842e-06
6.10858e-06
6.10875e-06
6.10893e-06
6.10912e-06
6.10932e-06
6.10952e-06
6.09242e-06
6.09446e-06
6.09592e-06
6.0971e-06
6.09811e-06
6.099e-06
6.09981e-06
6.10055e-06
6.10123e-06
6.10185e-06
6.10242e-06
6.10294e-06
6.10343e-06
6.10388e-06
6.10431e-06
6.1047e-06
6.10507e-06
6.10543e-06
6.10577e-06
6.10609e-06
6.10641e-06
6.10672e-06
6.107e-06
6.10727e-06
6.10753e-06
6.10778e-06
6.10801e-06
6.10824e-06
6.10846e-06
6.10867e-06
6.10887e-06
6.10907e-06
6.10926e-06
6.10945e-06
6.10963e-06
6.1098e-06
6.10998e-06
6.11015e-06
6.11031e-06
6.11047e-06
6.11065e-06
6.09229e-06
6.09431e-06
6.09579e-06
6.09699e-06
6.09802e-06
6.09895e-06
6.09981e-06
6.10059e-06
6.10132e-06
6.102e-06
6.10262e-06
6.1032e-06
6.10374e-06
6.10425e-06
6.10472e-06
6.10516e-06
6.10558e-06
6.10598e-06
6.10636e-06
6.10673e-06
6.10709e-06
6.10743e-06
6.10776e-06
6.10806e-06
6.10836e-06
6.10863e-06
6.1089e-06
6.10916e-06
6.1094e-06
6.10964e-06
6.10987e-06
6.11009e-06
6.11031e-06
6.11052e-06
6.11073e-06
6.11093e-06
6.11112e-06
6.11131e-06
6.1115e-06
6.11168e-06
6.11188e-06
6.09207e-06
6.09408e-06
6.09555e-06
6.09676e-06
6.09782e-06
6.0988e-06
6.0997e-06
6.10054e-06
6.10132e-06
6.10205e-06
6.10274e-06
6.10338e-06
6.10397e-06
6.10453e-06
6.10506e-06
6.10555e-06
6.10602e-06
6.10646e-06
6.10689e-06
6.1073e-06
6.1077e-06
6.10809e-06
6.10845e-06
6.10879e-06
6.10911e-06
6.10942e-06
6.10972e-06
6.11e-06
6.11028e-06
6.11054e-06
6.11079e-06
6.11104e-06
6.11128e-06
6.11151e-06
6.11173e-06
6.11195e-06
6.11217e-06
6.11237e-06
6.11258e-06
6.11277e-06
6.11298e-06
6.09177e-06
6.09373e-06
6.09519e-06
6.09641e-06
6.09751e-06
6.09852e-06
6.09948e-06
6.10037e-06
6.10122e-06
6.10202e-06
6.10276e-06
6.10346e-06
6.10412e-06
6.10474e-06
6.10532e-06
6.10587e-06
6.10639e-06
6.10688e-06
6.10736e-06
6.10781e-06
6.10826e-06
6.10868e-06
6.10908e-06
6.10945e-06
6.10981e-06
6.11015e-06
6.11048e-06
6.11079e-06
6.11109e-06
6.11138e-06
6.11165e-06
6.11192e-06
6.11218e-06
6.11243e-06
6.11268e-06
6.11291e-06
6.11314e-06
6.11336e-06
6.11358e-06
6.11378e-06
6.11401e-06
6.09135e-06
6.09326e-06
6.09471e-06
6.09594e-06
6.09707e-06
6.09813e-06
6.09914e-06
6.1001e-06
6.10101e-06
6.10187e-06
6.10269e-06
6.10345e-06
6.10418e-06
6.10486e-06
6.1055e-06
6.10611e-06
6.10668e-06
6.10723e-06
6.10775e-06
6.10825e-06
6.10874e-06
6.10921e-06
6.10965e-06
6.11006e-06
6.11045e-06
6.11082e-06
6.11118e-06
6.11152e-06
6.11185e-06
6.11216e-06
6.11246e-06
6.11275e-06
6.11303e-06
6.1133e-06
6.11356e-06
6.11381e-06
6.11405e-06
6.11429e-06
6.11452e-06
6.11473e-06
6.11497e-06
6.09081e-06
6.09266e-06
6.09408e-06
6.09533e-06
6.09649e-06
6.0976e-06
6.09867e-06
6.09969e-06
6.10067e-06
6.10161e-06
6.10249e-06
6.10333e-06
6.10412e-06
6.10487e-06
6.10557e-06
6.10624e-06
6.10688e-06
6.10748e-06
6.10806e-06
6.10861e-06
6.10915e-06
6.10966e-06
6.11014e-06
6.11059e-06
6.11102e-06
6.11143e-06
6.11181e-06
6.11218e-06
6.11253e-06
6.11287e-06
6.1132e-06
6.11351e-06
6.11381e-06
6.11409e-06
6.11437e-06
6.11464e-06
6.1149e-06
6.11514e-06
6.11539e-06
6.11561e-06
6.11586e-06
6.09014e-06
6.09191e-06
6.09331e-06
6.09457e-06
6.09577e-06
6.09693e-06
6.09805e-06
6.09914e-06
6.10018e-06
6.10119e-06
6.10214e-06
6.10305e-06
6.10391e-06
6.10473e-06
6.1055e-06
6.10624e-06
6.10694e-06
6.1076e-06
6.10824e-06
6.10884e-06
6.10943e-06
6.10999e-06
6.11051e-06
6.11101e-06
6.11148e-06
6.11192e-06
6.11234e-06
6.11274e-06
6.11312e-06
6.11349e-06
6.11383e-06
6.11417e-06
6.11449e-06
6.11479e-06
6.11509e-06
6.11537e-06
6.11564e-06
6.1159e-06
6.11616e-06
6.1164e-06
6.11665e-06
6.08931e-06
6.091e-06
6.09238e-06
6.09365e-06
6.09488e-06
6.09608e-06
6.09726e-06
6.0984e-06
6.0995e-06
6.10056e-06
6.10159e-06
6.10257e-06
6.1035e-06
6.10439e-06
6.10524e-06
6.10604e-06
6.10681e-06
6.10753e-06
6.10823e-06
6.1089e-06
6.10954e-06
6.11015e-06
6.11072e-06
6.11126e-06
6.11177e-06
6.11225e-06
6.11271e-06
6.11314e-06
6.11355e-06
6.11394e-06
6.11432e-06
6.11467e-06
6.11501e-06
6.11534e-06
6.11565e-06
6.11594e-06
6.11623e-06
6.1165e-06
6.11677e-06
6.11701e-06
6.11728e-06
6.08831e-06
6.08993e-06
6.09128e-06
6.09256e-06
6.0938e-06
6.09503e-06
6.09624e-06
6.09742e-06
6.09857e-06
6.09969e-06
6.10077e-06
6.10182e-06
6.10282e-06
6.10378e-06
6.1047e-06
6.10558e-06
6.10641e-06
6.10721e-06
6.10797e-06
6.10869e-06
6.10939e-06
6.11006e-06
6.11068e-06
6.11126e-06
6.11182e-06
6.11234e-06
6.11283e-06
6.1133e-06
6.11374e-06
6.11416e-06
6.11456e-06
6.11494e-06
6.1153e-06
6.11564e-06
6.11597e-06
6.11629e-06
6.11659e-06
6.11687e-06
6.11715e-06
6.11741e-06
6.11768e-06
6.08714e-06
6.08867e-06
6.08999e-06
6.09125e-06
6.0925e-06
6.09373e-06
6.09495e-06
6.09615e-06
6.09734e-06
6.0985e-06
6.09964e-06
6.10075e-06
6.10182e-06
6.10284e-06
6.10383e-06
6.10478e-06
6.10568e-06
6.10655e-06
6.10737e-06
6.10816e-06
6.10892e-06
6.10964e-06
6.11031e-06
6.11095e-06
6.11155e-06
6.11211e-06
6.11264e-06
6.11314e-06
6.11362e-06
6.11407e-06
6.11449e-06
6.11489e-06
6.11527e-06
6.11563e-06
6.11598e-06
6.1163e-06
6.11661e-06
6.11691e-06
6.11719e-06
6.11745e-06
6.11772e-06
6.08578e-06
6.08721e-06
6.08849e-06
6.08971e-06
6.09092e-06
6.09213e-06
6.09334e-06
6.09455e-06
6.09576e-06
6.09696e-06
6.09814e-06
6.0993e-06
6.10043e-06
6.10152e-06
6.10258e-06
6.10359e-06
6.10457e-06
6.1055e-06
6.10639e-06
6.10723e-06
6.10805e-06
6.10882e-06
6.10954e-06
6.11022e-06
6.11087e-06
6.11147e-06
6.11204e-06
6.11258e-06
6.11308e-06
6.11356e-06
6.11401e-06
6.11443e-06
6.11484e-06
6.11522e-06
6.11558e-06
6.11592e-06
6.11624e-06
6.11655e-06
6.11685e-06
6.11712e-06
6.1174e-06
6.0842e-06
6.08554e-06
6.08674e-06
6.08789e-06
6.08904e-06
6.09021e-06
6.09139e-06
6.09259e-06
6.0938e-06
6.09502e-06
6.09624e-06
6.09744e-06
6.09862e-06
6.09977e-06
6.10089e-06
6.10197e-06
6.103e-06
6.104e-06
6.10495e-06
6.10586e-06
6.10673e-06
6.10756e-06
6.10833e-06
6.10906e-06
6.10975e-06
6.1104e-06
6.11101e-06
6.11158e-06
6.11211e-06
6.11262e-06
6.11309e-06
6.11353e-06
6.11395e-06
6.11435e-06
6.11471e-06
6.11506e-06
6.11539e-06
6.11569e-06
6.11598e-06
6.11625e-06
6.11651e-06
6.08241e-06
6.08362e-06
6.08471e-06
6.08577e-06
6.08683e-06
6.08792e-06
6.08906e-06
6.09023e-06
6.09144e-06
6.09266e-06
6.0939e-06
6.09513e-06
6.09635e-06
6.09755e-06
6.09872e-06
6.09985e-06
6.10095e-06
6.102e-06
6.103e-06
6.10397e-06
6.10489e-06
6.10576e-06
6.10658e-06
6.10735e-06
6.10807e-06
6.10875e-06
6.10939e-06
6.10999e-06
6.11055e-06
6.11108e-06
6.11158e-06
6.11204e-06
6.11248e-06
6.11289e-06
6.11328e-06
6.11365e-06
6.11399e-06
6.11431e-06
6.11462e-06
6.11491e-06
6.11518e-06
6.08037e-06
6.08143e-06
6.08238e-06
6.0833e-06
6.08426e-06
6.08526e-06
6.08633e-06
6.08746e-06
6.08863e-06
6.08983e-06
6.09106e-06
6.09229e-06
6.09353e-06
6.09475e-06
6.09595e-06
6.09713e-06
6.09826e-06
6.09937e-06
6.10043e-06
6.10145e-06
6.10242e-06
6.10335e-06
6.10423e-06
6.10505e-06
6.10583e-06
6.10656e-06
6.10725e-06
6.10789e-06
6.10849e-06
6.10905e-06
6.10957e-06
6.11005e-06
6.11051e-06
6.11093e-06
6.11132e-06
6.11168e-06
6.11202e-06
6.11234e-06
6.11263e-06
6.11289e-06
6.11315e-06
6.07807e-06
6.07894e-06
6.07972e-06
6.08049e-06
6.08132e-06
6.08222e-06
6.0832e-06
6.08423e-06
6.08533e-06
6.08647e-06
6.08765e-06
6.08884e-06
6.09006e-06
6.09127e-06
6.09249e-06
6.09368e-06
6.09485e-06
6.09599e-06
6.09708e-06
6.09813e-06
6.09913e-06
6.10008e-06
6.10097e-06
6.10182e-06
6.10261e-06
6.10336e-06
6.10406e-06
6.10471e-06
6.10533e-06
6.1059e-06
6.10644e-06
6.10695e-06
6.10742e-06
6.10786e-06
6.10827e-06
6.10865e-06
6.10901e-06
6.10935e-06
6.10967e-06
6.10997e-06
6.11024e-06
6.07548e-06
6.07613e-06
6.07671e-06
6.07733e-06
6.07801e-06
6.07877e-06
6.0796e-06
6.0805e-06
6.08146e-06
6.08248e-06
6.08355e-06
6.08465e-06
6.08579e-06
6.08693e-06
6.08807e-06
6.0892e-06
6.09033e-06
6.09144e-06
6.09255e-06
6.09363e-06
6.09467e-06
6.09568e-06
6.09665e-06
6.09757e-06
6.09844e-06
6.09927e-06
6.10004e-06
6.10077e-06
6.10144e-06
6.10208e-06
6.10266e-06
6.10321e-06
6.10371e-06
6.10418e-06
6.10461e-06
6.10501e-06
6.10537e-06
6.1057e-06
6.10601e-06
6.10629e-06
6.10655e-06
6.07256e-06
6.07297e-06
6.07335e-06
6.07378e-06
6.07427e-06
6.07483e-06
6.07545e-06
6.07613e-06
6.07686e-06
6.07765e-06
6.0785e-06
6.0794e-06
6.08037e-06
6.08142e-06
6.08256e-06
6.08375e-06
6.08496e-06
6.08614e-06
6.08728e-06
6.08838e-06
6.08944e-06
6.09044e-06
6.09139e-06
6.0923e-06
6.09315e-06
6.09395e-06
6.09471e-06
6.09541e-06
6.09608e-06
6.0967e-06
6.09728e-06
6.09782e-06
6.09832e-06
6.09879e-06
6.09922e-06
6.09962e-06
6.09999e-06
6.10034e-06
6.10065e-06
6.10095e-06
6.10123e-06
6.06931e-06
6.06945e-06
6.0696e-06
6.06977e-06
6.06998e-06
6.07023e-06
6.07051e-06
6.07082e-06
6.07116e-06
6.07153e-06
6.07193e-06
6.07234e-06
6.07277e-06
6.0732e-06
6.07363e-06
6.0741e-06
6.07452e-06
6.07491e-06
6.07532e-06
6.07573e-06
6.07618e-06
6.07665e-06
6.07714e-06
6.07764e-06
6.07816e-06
6.07868e-06
6.07921e-06
6.07973e-06
6.08024e-06
6.08073e-06
6.08121e-06
6.08168e-06
6.08212e-06
6.08254e-06
6.08294e-06
6.08332e-06
6.08367e-06
6.08401e-06
6.08433e-06
6.08461e-06
6.08491e-06
0.00364564
0.00708758
0.0101002
0.0122406
0.0133638
0.0134624
0.012545
0.0106175
0.00777197
0.00418941
0.00103384
0.000182108
1.63957e-09
8.36536e-07
7.75978e-06
6.85531e-06
6.00794e-06
6.05581e-06
6.0998e-06
6.09984e-06
6.10381e-06
6.10683e-06
6.10723e-06
6.107e-06
6.10634e-06
6.10507e-06
6.10338e-06
6.10151e-06
6.09961e-06
6.09785e-06
6.09636e-06
6.0952e-06
6.09437e-06
6.09382e-06
6.09344e-06
6.09317e-06
6.09293e-06
6.09269e-06
6.09244e-06
6.09216e-06
6.09186e-06
6.09154e-06
6.09118e-06
6.09078e-06
6.09032e-06
6.0898e-06
6.08922e-06
6.08858e-06
6.08786e-06
6.08706e-06
6.08617e-06
6.08519e-06
6.0841e-06
6.08289e-06
6.08157e-06
6.08013e-06
6.0786e-06
6.07702e-06
6.07541e-06
6.07382e-06
6.07239e-06
6.07144e-06
6.07122e-06
6.07188e-06
6.07337e-06
6.07553e-06
6.07818e-06
6.08121e-06
6.08452e-06
6.08811e-06
6.09188e-06
6.09623e-06
6.09972e-06
6.10829e-06
0.00624651
0.0108342
0.0143577
0.016646
0.0177943
0.0178908
0.0169779
0.0150762
0.012248
0.00853649
0.0042036
0.000801687
0.00016273
4.09277e-09
3.3298e-07
7.29373e-06
6.86704e-06
5.96792e-06
6.04528e-06
6.11599e-06
6.10702e-06
6.10491e-06
6.10831e-06
6.10842e-06
6.10713e-06
6.1059e-06
6.10439e-06
6.10246e-06
6.10041e-06
6.09851e-06
6.0969e-06
6.09563e-06
6.09471e-06
6.09408e-06
6.09366e-06
6.09336e-06
6.09311e-06
6.09287e-06
6.09261e-06
6.09234e-06
6.09204e-06
6.09171e-06
6.09135e-06
6.09095e-06
6.09049e-06
6.08997e-06
6.08939e-06
6.08873e-06
6.08801e-06
6.0872e-06
6.08631e-06
6.08532e-06
6.08422e-06
6.08301e-06
6.08169e-06
6.08026e-06
6.07875e-06
6.0772e-06
6.07563e-06
6.07405e-06
6.07262e-06
6.07162e-06
6.07134e-06
6.07191e-06
6.07331e-06
6.0754e-06
6.07801e-06
6.081e-06
6.08427e-06
6.08784e-06
6.09158e-06
6.09589e-06
6.09935e-06
6.10783e-06
0.00873308
0.0147374
0.018974
0.0215178
0.0227506
0.022882
0.0219969
0.0201337
0.0173486
0.0136898
0.00917559
0.00420626
0.000741859
0.000161146
1.52915e-09
9.03294e-08
7.0792e-06
7.47975e-06
6.05822e-06
5.9929e-06
6.11374e-06
6.11668e-06
6.1055e-06
6.10808e-06
6.10962e-06
6.10752e-06
6.10512e-06
6.10324e-06
6.10135e-06
6.09934e-06
6.09752e-06
6.09609e-06
6.09506e-06
6.09437e-06
6.0939e-06
6.09356e-06
6.0933e-06
6.09305e-06
6.09279e-06
6.09251e-06
6.09221e-06
6.09188e-06
6.09152e-06
6.09111e-06
6.09065e-06
6.09013e-06
6.08955e-06
6.08889e-06
6.08816e-06
6.08735e-06
6.08645e-06
6.08546e-06
6.08436e-06
6.08314e-06
6.08182e-06
6.08041e-06
6.07892e-06
6.07741e-06
6.07586e-06
6.0743e-06
6.07287e-06
6.07183e-06
6.07146e-06
6.07194e-06
6.07326e-06
6.07527e-06
6.07782e-06
6.08076e-06
6.084e-06
6.08753e-06
6.09125e-06
6.09553e-06
6.09895e-06
6.10733e-06
0.0111846
0.0188281
0.0239209
0.0268407
0.0282474
0.0284749
0.0276604
0.0258631
0.0231378
0.0195445
0.0151093
0.00983632
0.00435145
0.00074181
0.00018948
3.14598e-10
3.3054e-10
4.855e-06
7.8885e-06
6.30305e-06
5.95528e-06
6.0997e-06
6.13427e-06
6.10938e-06
6.10351e-06
6.10801e-06
6.10816e-06
6.10488e-06
6.10191e-06
6.09991e-06
6.09827e-06
6.09675e-06
6.0955e-06
6.09464e-06
6.09411e-06
6.09376e-06
6.09348e-06
6.09323e-06
6.09296e-06
6.09268e-06
6.09238e-06
6.09205e-06
6.09169e-06
6.09128e-06
6.09082e-06
6.0903e-06
6.08971e-06
6.08905e-06
6.08831e-06
6.0875e-06
6.08659e-06
6.08559e-06
6.08449e-06
6.08329e-06
6.08198e-06
6.08058e-06
6.07912e-06
6.07763e-06
6.07612e-06
6.07458e-06
6.07313e-06
6.07205e-06
6.0716e-06
6.07198e-06
6.07319e-06
6.07512e-06
6.0776e-06
6.08049e-06
6.0837e-06
6.0872e-06
6.09088e-06
6.09512e-06
6.09852e-06
6.10678e-06
0.0137735
0.0231638
0.029151
0.0325568
0.0342488
0.0346608
0.0339845
0.0323056
0.0296823
0.0261758
0.0218398
0.0166722
0.010724
0.0047573
0.000871075
0.00026981
9.33306e-13
1.36329e-19
3.63712e-06
8.12882e-06
6.72769e-06
5.90111e-06
6.01654e-06
6.14802e-06
6.13385e-06
6.104e-06
6.10147e-06
6.10627e-06
6.10567e-06
6.10179e-06
6.09859e-06
6.0969e-06
6.09593e-06
6.09514e-06
6.09446e-06
6.09396e-06
6.09362e-06
6.09337e-06
6.09313e-06
6.09286e-06
6.09255e-06
6.09222e-06
6.09185e-06
6.09144e-06
6.09098e-06
6.09046e-06
6.08987e-06
6.08921e-06
6.08847e-06
6.08765e-06
6.08674e-06
6.08574e-06
6.08464e-06
6.08345e-06
6.08215e-06
6.08078e-06
6.07935e-06
6.07788e-06
6.0764e-06
6.07487e-06
6.07342e-06
6.07229e-06
6.07176e-06
6.07203e-06
6.07313e-06
6.07496e-06
6.07737e-06
6.0802e-06
6.08337e-06
6.08683e-06
6.09047e-06
6.09468e-06
6.09806e-06
6.10619e-06
0.0171864
0.0278059
0.0346
0.0385774
0.0406722
0.0413768
0.0409307
0.0394486
0.0369973
0.0336359
0.0294262
0.0244075
0.0185758
0.0120208
0.00554825
0.00123983
0.000403424
2.56257e-06
1.72748e-08
1.088e-06
7.65391e-06
7.75639e-06
6.11386e-06
5.85062e-06
6.07352e-06
6.1615e-06
6.12638e-06
6.09589e-06
6.09532e-06
6.10193e-06
6.10275e-06
6.09938e-06
6.09622e-06
6.0948e-06
6.09444e-06
6.09428e-06
6.09399e-06
6.09362e-06
6.09327e-06
6.09298e-06
6.09269e-06
6.09238e-06
6.09202e-06
6.09161e-06
6.09115e-06
6.09063e-06
6.09003e-06
6.08937e-06
6.08863e-06
6.08781e-06
6.0869e-06
6.0859e-06
6.08481e-06
6.08363e-06
6.08235e-06
6.081e-06
6.0796e-06
6.07816e-06
6.0767e-06
6.07519e-06
6.07374e-06
6.07255e-06
6.07193e-06
6.07208e-06
6.07306e-06
6.07479e-06
6.07711e-06
6.07988e-06
6.083e-06
6.08642e-06
6.09003e-06
6.0942e-06
6.09755e-06
6.10556e-06
0.0218888
0.0327682
0.0402029
0.0447926
0.0473906
0.0485014
0.0483952
0.0472116
0.0450286
0.0419039
0.0378962
0.0330615
0.0274346
0.0210145
0.0139073
0.00689398
0.0018527
0.000153243
1.69859e-05
3.40418e-09
6.40317e-09
4.06646e-06
8.59077e-06
7.05367e-06
5.88104e-06
5.87374e-06
6.11766e-06
6.18374e-06
6.13446e-06
6.09395e-06
6.08854e-06
6.09617e-06
6.10002e-06
6.09837e-06
6.09538e-06
6.0937e-06
6.09341e-06
6.09358e-06
6.09359e-06
6.09332e-06
6.09292e-06
6.09252e-06
6.09215e-06
6.09176e-06
6.09132e-06
6.0908e-06
6.09021e-06
6.08954e-06
6.0888e-06
6.08798e-06
6.08708e-06
6.08609e-06
6.085e-06
6.08384e-06
6.08258e-06
6.08126e-06
6.07988e-06
6.07847e-06
6.07703e-06
6.07554e-06
6.07407e-06
6.07284e-06
6.07212e-06
6.07214e-06
6.07299e-06
6.0746e-06
6.07683e-06
6.07953e-06
6.08259e-06
6.08597e-06
6.08955e-06
6.09367e-06
6.097e-06
6.10489e-06
0.0274733
0.0380087
0.0458955
0.0510711
0.0542339
0.0558517
0.0561999
0.0554324
0.0536356
0.0508669
0.0471776
0.0426225
0.0372546
0.0311064
0.0241801
0.0165788
0.00900034
0.00327678
0.000244768
0.000188543
1.41067e-11
1.73384e-08
7.1703e-07
6.6072e-06
8.42939e-06
6.61047e-06
5.71411e-06
5.80548e-06
6.0881e-06
6.18596e-06
6.14658e-06
6.09687e-06
6.08203e-06