/*--------------------------------*- C++ -*----------------------------------*\
| =========                 |                                                 |
| \\      /  F ield         | OpenFOAM: The Open Source CFD Toolbox           |
|  \\    /   O peration     | Version:  2312                                  |
|   \\  /    A nd           | Website:  www.openfoam.com                      |
|    \\/     M anipulation  |                                                 |
\*---------------------------------------------------------------------------*/
FoamFile
{
    version     2.0;
    format      ascii;
    arch        "LSB;label=32;scalar=64";
    class       volScalarField;
    location    "800";
    object      turbulenceProperties:k;
}
// * * * * * * * * * * * * * * * * * * * * * * * * * * * * * * * * * * * * * //

dimensions      [0 2 -2 0 0 0 0];

internalField   nonuniform List<scalar> 
11040
(
0.403345
0.441979
0.0707728
0.0465506
0.276215
0.284825
0.270321
0.247065
0.222843
0.207648
0.193357
0.180953
0.170756
0.162871
0.156529
0.153242
0.152888
0.155702
0.161217
0.169325
0.180311
0.193855
0.209978
0.228946
0.250827
0.276555
0.30533
0.333157
0.357563
0.375658
0.384377
0.381075
0.366339
0.345078
0.326841
0.262062
0.139684
0.0861284
0.0371013
0.10666
0.217116
0.0337037
0.0696673
0.23574
0.423607
0.816677
0.273594
0.0850933
0.0293593
0.00776121
0.00554571
0.0135935
0.0181601
0.0211785
0.0233153
0.0247137
0.0260399
0.0276718
0.0296399
0.0316688
0.0337477
0.0359339
0.0383323
0.0403022
0.0411415
0.0406476
0.0395855
0.0383025
0.0358408
0.0322253
0.0280057
0.0244539
0.0233238
0.0234955
0.0262939
0.0324739
0.0421489
0.0557964
0.0738436
0.118716
0.136313
0.552597
0.0207727
0.0185758
0.041098
0.17731
0.945337
1.27373
0.662462
0.251115
0.118495
0.0710579
0.0402529
0.0231887
0.0114416
0.0036038
0.00293622
0.00652289
0.00916592
0.0111315
0.0125693
0.0135594
0.0142138
0.014542
0.0141787
0.0129873
0.0112405
0.0093167
0.00737067
0.00522353
0.00267914
0.00359899
0.0103111
0.0206477
0.0347018
0.0528434
0.0757628
0.104836
0.14144
0.183705
0.27525
0.36214
0.528608
0.0149277
0.0127728
0.010593
0.0163971
0.225246
1.09469
1.64221
1.10747
0.463468
0.249577
0.148277
0.099969
0.070432
0.0502541
0.037542
0.0285726
0.0230599
0.0194767
0.0174911
0.0167734
0.0169134
0.0178785
0.0198124
0.0225553
0.0254742
0.0280361
0.0298093
0.0304551
0.0299728
0.0294951
0.032266
0.0424625
0.0618006
0.0907894
0.129961
0.181342
0.247066
0.323138
0.460642
0.637321
0.572707
0.0111169
0.0100259
0.0106756
0.00535972
0.00708207
0.20029
1.03978
1.85383
1.60072
0.806326
0.426145
0.258196
0.178826
0.129299
0.100522
0.0801814
0.0677876
0.0595402
0.0546548
0.05226
0.0514068
0.0517416
0.0533491
0.0561476
0.059334
0.0622248
0.0642021
0.0646927
0.0634805
0.0613991
0.0616413
0.07066
0.0947664
0.136081
0.194668
0.27247
0.372215
0.489433
0.663334
0.933747
0.756312
0.00802181
0.00736715
0.00716578
0.00793074
0.00245346
0.00172638
0.13503
0.831167
1.87975
2.0389
1.32801
0.679129
0.421327
0.283533
0.210348
0.162993
0.135067
0.116927
0.105732
0.0997098
0.0967029
0.0958103
0.0968322
0.0996809
0.103329
0.106869
0.109337
0.109682
0.107145
0.102057
0.0975522
0.102418
0.128975
0.182998
0.263774
0.371982
0.510115
0.673493
0.878158
1.22344
1.03566
0.00579364
0.00553746
0.00519992
0.0055342
0.00572409
0.00110839
4.78076e-05
0.063012
0.556223
1.63487
2.29147
1.93117
1.12973
0.643032
0.432306
0.317436
0.248736
0.205529
0.179001
0.164401
0.156534
0.153281
0.153488
0.156714
0.161406
0.166232
0.169714
0.170113
0.165809
0.15627
0.143855
0.138541
0.160355
0.223694
0.327208
0.467932
0.646248
0.85617
1.09075
1.47806
1.34903
0.0042284
0.00413472
0.00407268
0.00391291
0.00423122
0.00443801
0.000213953
2.41572e-06
0.0193773
0.298428
1.17601
2.22786
2.41748
1.77194
1.0284
0.644552
0.461076
0.360107
0.297496
0.26039
0.239498
0.23038
0.228248
0.231631
0.237872
0.244858
0.25033
0.251561
0.245564
0.230517
0.206901
0.183004
0.184999
0.246004
0.368408
0.540751
0.757598
1.00924
1.27319
1.66116
1.62734
0.00312337
0.00307946
0.00308549
0.00306028
0.00294085
0.00331948
0.00317983
0.000443562
0.000386067
0.00074609
0.113916
0.673496
1.76331
2.57256
2.4147
1.66372
1.00153
0.672223
0.508072
0.417358
0.364809
0.339604
0.330153
0.331634
0.33911
0.348563
0.356619
0.359553
0.352983
0.33279
0.296459
0.246938
0.20642
0.234667
0.362758
0.561828
0.811799
1.09598
1.38332
1.74102
1.79676
0.00231983
0.00229936
0.00231623
0.00234147
0.00232228
0.00225152
0.0025289
0.00227316
0.000745516
9.87279e-05
0.00176557
0.0252392
0.290714
1.09496
2.21487
2.75961
2.3993
1.63573
1.03223
0.72851
0.58096
0.509326
0.476851
0.468213
0.473472
0.485635
0.498469
0.505202
0.499379
0.475281
0.427706
0.352851
0.256266
0.188438
0.278264
0.495213
0.771061
1.07657
1.37561
1.68744
1.80298
0.00173045
0.00172091
0.00173828
0.0017657
0.00179075
0.00177467
0.00175071
0.00186977
0.00185701
0.000986297
6.76741e-05
0.000327357
0.000235708
0.0777785
0.497584
1.4503
2.509
2.87546
2.43497
1.69468
1.12256
0.840409
0.722144
0.674021
0.660233
0.666145
0.680753
0.693485
0.694717
0.674788
0.624091
0.53423
0.400519
0.224408
0.0850106
0.305226
0.603889
0.920463
1.21677
1.47674
1.61396
0.00129342
0.00128955
0.00130204
0.00132691
0.00135311
0.00137395
0.00136982
0.00135615
0.00140089
0.0014587
0.00108716
3.66218e-05
1.90315e-05
0.00133961
0.00969211
0.147837
0.678431
1.68755
2.68239
2.98295
2.55265
1.88372
1.36939
1.08858
0.968432
0.933271
0.933557
0.94319
0.948261
0.936409
0.895816
0.815571
0.688312
0.513065
0.304994
0.191994
0.393359
0.681693
0.948234
1.14771
1.25895
0.000967301
0.000966454
0.000974834
0.000993847
0.00101761
0.00104022
0.00105817
0.00106283
0.00105525
0.00106802
0.00112987
0.000979321
0.00024114
2.4198e-05
0.000139288
0.00275162
0.0201858
0.201144
0.777754
1.78662
2.76394
3.11839
2.85906
2.36501
1.89852
1.57067
1.38973
1.31629
1.30024
1.29662
1.27585
1.2221
1.12967
1.00307
0.860987
0.743593
0.71151
0.789164
0.917434
1.00572
1.00875
0.000722813
0.000723594
0.000728992
0.000742715
0.000761947
0.000782433
0.000801549
0.000817712
0.00082663
0.000825067
0.000826046
0.000869171
0.000841184
0.000489585
8.67588e-06
3.71176e-06
0.00033816
0.0041397
0.0274342
0.216251
0.776277
1.70575
2.63838
3.19826
3.29126
3.08133
2.75702
2.43078
2.16051
1.96712
1.84488
1.771
1.71749
1.66477
1.61027
1.56405
1.54205
1.55143
1.58636
1.61046
1.51061
0.000538925
0.000540537
0.000543987
0.000553723
0.000568427
0.000585301
0.000602517
0.000618834
0.000633277
0.000643903
0.000646607
0.000647856
0.000668918
0.000676527
0.000593772
0.000175301
2.00327e-05
3.79461e-07
0.000579821
0.00423579
0.0250542
0.1749
0.574101
1.26203
2.10801
2.88373
3.41556
3.66586
3.69855
3.59242
3.40274
3.17096
2.9368
2.73711
2.59907
2.53399
2.53976
2.59333
2.66652
2.74006
2.67093
0.000400478
0.000402333
0.000404542
0.000411373
0.000422331
0.000435478
0.000449589
0.000463984
0.000477908
0.000490584
0.000501109
0.000506905
0.000510744
0.000516016
0.000540294
0.000509134
0.000396698
3.28171e-05
7.18906e-06
9.38625e-08
0.000644071
0.00281686
0.00855985
0.070125
0.256546
0.632894
1.20904
1.92296
2.66773
3.34193
3.88159
4.26068
4.481
4.56259
4.54006
4.45328
4.34381
4.24
4.16909
4.16692
4.09487
0.000297127
0.000298857
0.000300324
0.000305147
0.000313206
0.000323121
0.000334113
0.000345749
0.000357614
0.00036917
0.000379938
0.000389401
0.000396844
0.000401206
0.000406903
0.000416427
0.000430766
0.000382028
0.0002378
8.6583e-06
3.8632e-06
6.44995e-08
0.000183929
0.00139515
4.02327e-06
0.00879597
0.0502708
0.163297
0.390092
0.756117
1.26319
1.88589
2.57923
3.29216
3.97516
4.5824
5.08591
5.47235
5.75141
5.97447
6.03981
0.000222575
0.000224105
0.000225211
0.000228807
0.000234878
0.000242438
0.000250954
0.000260167
0.000269782
0.00027948
0.000288933
0.000297863
0.000306047
0.000313139
0.000318395
0.000322971
0.000328677
0.00034133
0.0003441
0.000297747
0.000166018
6.08672e-06
3.20172e-06
2.08433e-07
5.52081e-08
0.000200903
0.00112619
0.00185563
0.000506797
0.00824456
0.039797
0.117303
0.264975
0.506658
0.857024
1.31819
1.87923
2.52285
3.21652
3.9445
4.59847
0.00016985
0.000171197
0.0001721
0.000174888
0.000179578
0.000185451
0.000192146
0.000199512
0.000207351
0.000215419
0.000223486
0.000231342
0.000238809
0.000245776
0.000252016
0.000257413
0.000261436
0.000266199
0.000272748
0.000281793
0.000279557
0.00023614
0.000159671
1.99834e-05
4.35114e-06
9.94073e-07
1.03891e-07
0
5.94434e-06
0.000167741
0.000899163
0.00137428
0.00133245
0.000899518
0.00717627
0.0309719
0.0842205
0.182483
0.339778
0.570099
0.876313
0.000131998
0.000133139
0.000133886
0.000136086
0.000139759
0.000144368
0.000149661
0.000155537
0.00016187
0.000168485
0.000175228
0.000181962
0.000188545
0.000194846
0.000200763
0.000206228
0.000211094
0.000215264
0.000218862
0.00022342
0.000229715
0.000235343
0.000234589
0.000208799
0.000158312
9.86776e-05
1.12365e-05
2.95761e-06
8.30953e-07
4.52607e-07
3.10801e-08
0
0
1.16459e-05
0.000137499
0.000705481
0.00118164
0.000949711
0.000643083
0.000111072
0.00514353
0.000103973
0.000104918
0.000105544
0.000107305
0.000110214
0.000113869
0.000118087
0.000122797
0.000127904
0.000133288
0.000138835
0.000144458
0.000150059
0.00015554
0.000160815
0.000165807
0.00017047
0.000174745
0.000178543
0.000181894
0.000185031
0.000189122
0.000193746
0.000199668
0.000199677
0.000194096
0.000173146
0.000137789
9.62023e-05
5.50626e-05
4.09572e-06
1.70329e-06
6.367e-07
4.29995e-07
2.36904e-07
3.68945e-08
0
0
0
7.59412e-07
8.06976e-05
8.27856e-05
8.35606e-05
8.40954e-05
8.55231e-05
8.78492e-05
9.07726e-05
9.41588e-05
9.79519e-05
0.000102081
0.000106459
0.000110998
0.000115635
0.000120304
0.000124932
0.000129454
0.000133814
0.00013796
0.000141856
0.000145471
0.000148796
0.000151688
0.000154284
0.000156753
0.000159792
0.000163443
0.000166984
0.000171057
0.00017175
0.000167515
0.000159785
0.000143147
0.000118962
9.12863e-05
6.37494e-05
3.70356e-05
6.19686e-06
1.5584e-06
4.8297e-07
3.72553e-07
2.69627e-07
1.72999e-07
6.64819e-05
6.71145e-05
6.75764e-05
6.87437e-05
7.06177e-05
7.29716e-05
7.57047e-05
7.87721e-05
8.21181e-05
8.56752e-05
8.93792e-05
9.31815e-05
9.70343e-05
0.000100882
0.000104674
0.000108368
0.000111923
0.000115305
0.000118484
0.00012146
0.000124147
0.00012652
0.000128634
0.000130462
0.000132224
0.000134012
0.000136195
0.000138769
0.00014139
0.00014354
0.000145824
0.000146102
0.000143977
0.000139343
0.000132801
0.00012221
0.000107936
9.08165e-05
7.28198e-05
5.48466e-05
3.71908e-05
5.37621e-05
5.42777e-05
5.46804e-05
5.56421e-05
5.71614e-05
5.90678e-05
6.12846e-05
6.37744e-05
6.64922e-05
6.93854e-05
7.24049e-05
7.55115e-05
7.86691e-05
8.18353e-05
8.49708e-05
8.8041e-05
9.10148e-05
9.38631e-05
9.65591e-05
9.90983e-05
0.000101408
0.000103472
0.000105338
0.000106946
0.000108318
0.000109498
0.000110527
0.000111492
0.000112498
0.000113535
0.000114733
0.000116064
0.000117375
0.00011854
0.000119386
0.000120207
0.000120352
0.000119474
0.0001175
0.000114269
0.000110652
4.3724e-05
4.41442e-05
4.44976e-05
4.52947e-05
4.65329e-05
4.80843e-05
4.98894e-05
5.19164e-05
5.41284e-05
5.64836e-05
5.89432e-05
6.1476e-05
6.40531e-05
6.6642e-05
6.92108e-05
7.17317e-05
7.41794e-05
7.65298e-05
7.87597e-05
8.0864e-05
8.27774e-05
8.44871e-05
8.60312e-05
8.73666e-05
8.85025e-05
8.94609e-05
9.02505e-05
9.08782e-05
9.13612e-05
9.17228e-05
9.19789e-05
9.2168e-05
9.23184e-05
9.2462e-05
9.25926e-05
9.2738e-05
9.28927e-05
9.30516e-05
9.31983e-05
9.32032e-05
9.32581e-05
3.5727e-05
3.60703e-05
3.6382e-05
3.70463e-05
3.80604e-05
3.93285e-05
4.08037e-05
4.24587e-05
4.42625e-05
4.61817e-05
4.81851e-05
5.02474e-05
5.23449e-05
5.44516e-05
5.65419e-05
5.85935e-05
6.05851e-05
6.2497e-05
6.43091e-05
6.60166e-05
6.75629e-05
6.89388e-05
7.01769e-05
7.12383e-05
7.21295e-05
7.28687e-05
7.3466e-05
7.39272e-05
7.42578e-05
7.44659e-05
7.45574e-05
7.45397e-05
7.44193e-05
7.42101e-05
7.39258e-05
7.35701e-05
7.31516e-05
7.26904e-05
7.22131e-05
7.16997e-05
7.11926e-05
2.93056e-05
2.95869e-05
2.98633e-05
3.04201e-05
3.12546e-05
3.22956e-05
3.35053e-05
3.48599e-05
3.63335e-05
3.7899e-05
3.95307e-05
4.12084e-05
4.29121e-05
4.46205e-05
4.63132e-05
4.79718e-05
4.95787e-05
5.11176e-05
5.25715e-05
5.39359e-05
5.5163e-05
5.6247e-05
5.72177e-05
5.80407e-05
5.87199e-05
5.92697e-05
5.96988e-05
6.0013e-05
6.02185e-05
6.03226e-05
6.03322e-05
6.02543e-05
6.00932e-05
5.98572e-05
5.95543e-05
5.91865e-05
5.8757e-05
5.82747e-05
5.7757e-05
5.71846e-05
5.66159e-05
2.41147e-05
2.43467e-05
2.45931e-05
2.50624e-05
2.57528e-05
2.66109e-05
2.76063e-05
2.8718e-05
2.99242e-05
3.12025e-05
3.25321e-05
3.3896e-05
3.52779e-05
3.66596e-05
3.8025e-05
3.9359e-05
4.0647e-05
4.18754e-05
4.30302e-05
4.41075e-05
4.50673e-05
4.59068e-05
4.66536e-05
4.72783e-05
4.77832e-05
4.81804e-05
4.84773e-05
4.86786e-05
4.879e-05
4.88179e-05
4.87688e-05
4.86493e-05
4.84639e-05
4.82204e-05
4.79258e-05
4.75826e-05
4.71941e-05
4.67671e-05
4.63155e-05
4.58245e-05
4.53303e-05
1.98947e-05
2.00876e-05
2.03086e-05
2.0707e-05
2.12813e-05
2.1992e-05
2.2814e-05
2.37288e-05
2.4718e-05
2.57632e-05
2.68471e-05
2.79555e-05
2.9075e-05
3.01906e-05
3.12887e-05
3.23572e-05
3.33843e-05
3.43585e-05
3.52685e-05
3.61108e-05
3.68527e-05
3.74937e-05
3.80591e-05
3.85244e-05
3.8891e-05
3.91691e-05
3.93652e-05
3.94836e-05
3.95289e-05
3.9507e-05
3.94232e-05
3.92833e-05
3.90913e-05
3.88538e-05
3.85766e-05
3.82621e-05
3.79133e-05
3.75356e-05
3.714e-05
3.67194e-05
3.6279e-05
1.64474e-05
1.66098e-05
1.68095e-05
1.71501e-05
1.76309e-05
1.82225e-05
1.89039e-05
1.96589e-05
2.04719e-05
2.13277e-05
2.2212e-05
2.31129e-05
2.40193e-05
2.49187e-05
2.57998e-05
2.66529e-05
2.74684e-05
2.8237e-05
2.89494e-05
2.96029e-05
3.01706e-05
3.0654e-05
3.10762e-05
3.14167e-05
3.16766e-05
3.18647e-05
3.19865e-05
3.20458e-05
3.20467e-05
3.1994e-05
3.18925e-05
3.17469e-05
3.15608e-05
3.13394e-05
3.10877e-05
3.08078e-05
3.05022e-05
3.0175e-05
2.98348e-05
2.94803e-05
2.90936e-05
1.36197e-05
1.37586e-05
1.39405e-05
1.42343e-05
1.46395e-05
1.51345e-05
1.57018e-05
1.63269e-05
1.69968e-05
1.76989e-05
1.84212e-05
1.91537e-05
1.98873e-05
2.06118e-05
2.13176e-05
2.19968e-05
2.26421e-05
2.32457e-05
2.38003e-05
2.43038e-05
2.47345e-05
2.50947e-05
2.54057e-05
2.56503e-05
2.58296e-05
2.5951e-05
2.60194e-05
2.6038e-05
2.60105e-05
2.59407e-05
2.58327e-05
2.56906e-05
2.55174e-05
2.53173e-05
2.50943e-05
2.48503e-05
2.45872e-05
2.43083e-05
2.40203e-05
2.37253e-05
2.33906e-05
1.12922e-05
1.14134e-05
1.15804e-05
1.18361e-05
1.21802e-05
1.25969e-05
1.30713e-05
1.35909e-05
1.41446e-05
1.47219e-05
1.53128e-05
1.59089e-05
1.65029e-05
1.70863e-05
1.76509e-05
1.81908e-05
1.86999e-05
1.91723e-05
1.9602e-05
1.99876e-05
2.03117e-05
2.05774e-05
2.08034e-05
2.0976e-05
2.10958e-05
2.11693e-05
2.12009e-05
2.11933e-05
2.11493e-05
2.10725e-05
2.09661e-05
2.08334e-05
2.0677e-05
2.05002e-05
2.03064e-05
2.00969e-05
1.98734e-05
1.96383e-05
1.93968e-05
1.91536e-05
1.88657e-05
9.3708e-06
9.47885e-06
9.6334e-06
9.85795e-06
1.01526e-05
1.05057e-05
1.09046e-05
1.13384e-05
1.17978e-05
1.22738e-05
1.27584e-05
1.32443e-05
1.37255e-05
1.41953e-05
1.4647e-05
1.50754e-05
1.54763e-05
1.58449e-05
1.61765e-05
1.64701e-05
1.67121e-05
1.69055e-05
1.70673e-05
1.7186e-05
1.72625e-05
1.7302e-05
1.73086e-05
1.72844e-05
1.72319e-05
1.71541e-05
1.70535e-05
1.6933e-05
1.67946e-05
1.66409e-05
1.64746e-05
1.62969e-05
1.6109e-05
1.59128e-05
1.57123e-05
1.55132e-05
1.52679e-05
7.78079e-06
7.8794e-06
8.02341e-06
8.22249e-06
8.47694e-06
8.77824e-06
9.1157e-06
9.47983e-06
9.86257e-06
1.02566e-05
1.06552e-05
1.10522e-05
1.14427e-05
1.18214e-05
1.21828e-05
1.25228e-05
1.28381e-05
1.31251e-05
1.33804e-05
1.36033e-05
1.3783e-05
1.39228e-05
1.40373e-05
1.41174e-05
1.41637e-05
1.41808e-05
1.4172e-05
1.41393e-05
1.40848e-05
1.40106e-05
1.3919e-05
1.38124e-05
1.36922e-05
1.35606e-05
1.34198e-05
1.32706e-05
1.31141e-05
1.29515e-05
1.27863e-05
1.26242e-05
1.24157e-05
6.46245e-06
6.55436e-06
6.68939e-06
6.86752e-06
7.08924e-06
7.34838e-06
7.6358e-06
7.94323e-06
8.26385e-06
8.59153e-06
8.92061e-06
9.24609e-06
9.56382e-06
9.86959e-06
1.01591e-05
1.04289e-05
1.06766e-05
1.08998e-05
1.10956e-05
1.12637e-05
1.13958e-05
1.14949e-05
1.1574e-05
1.16254e-05
1.16499e-05
1.16515e-05
1.16329e-05
1.15957e-05
1.15418e-05
1.1473e-05
1.13911e-05
1.12979e-05
1.11947e-05
1.10831e-05
1.09649e-05
1.08407e-05
1.07114e-05
1.05778e-05
1.04429e-05
1.03114e-05
1.01372e-05
5.36767e-06
5.45497e-06
5.58215e-06
5.74295e-06
5.93795e-06
6.1627e-06
6.40935e-06
6.6707e-06
6.94095e-06
7.21496e-06
7.488e-06
7.75597e-06
8.01541e-06
8.26311e-06
8.49571e-06
8.71043e-06
8.90563e-06
9.07955e-06
9.23026e-06
9.35768e-06
9.45543e-06
9.52612e-06
9.58107e-06
9.61394e-06
9.62539e-06
9.61878e-06
9.59646e-06
9.55978e-06
9.51013e-06
9.44904e-06
9.37801e-06
9.29843e-06
9.21137e-06
9.11809e-06
9.01998e-06
8.91754e-06
8.81156e-06
8.70225e-06
8.5926e-06
8.48662e-06
8.33962e-06
4.45755e-06
4.54169e-06
4.66193e-06
4.80827e-06
4.9814e-06
5.17803e-06
5.39139e-06
5.61524e-06
5.84459e-06
6.07516e-06
6.30299e-06
6.52471e-06
6.7375e-06
6.93883e-06
7.1261e-06
7.2971e-06
7.45067e-06
7.58565e-06
7.70071e-06
7.79587e-06
7.86637e-06
7.91456e-06
7.95027e-06
7.96835e-06
7.96944e-06
7.95646e-06
7.93139e-06
7.89542e-06
7.84967e-06
7.79542e-06
7.73386e-06
7.6661e-06
7.59299e-06
7.5155e-06
7.43471e-06
7.35094e-06
7.26493e-06
7.17646e-06
7.08873e-06
7.00295e-06
6.88494e-06
3.70054e-06
3.78246e-06
3.89643e-06
4.03071e-06
4.18584e-06
4.35933e-06
4.54537e-06
4.7385e-06
4.93453e-06
5.12982e-06
5.32114e-06
5.50573e-06
5.68137e-06
5.84618e-06
5.99829e-06
6.13596e-06
6.25852e-06
6.36527e-06
6.45542e-06
6.5291e-06
6.58279e-06
6.61822e-06
6.64387e-06
6.65539e-06
6.65335e-06
6.64016e-06
6.61747e-06
6.58623e-06
6.54734e-06
6.50183e-06
6.45067e-06
6.39477e-06
6.3348e-06
6.2715e-06
6.2058e-06
6.13795e-06
6.06855e-06
5.99718e-06
5.92687e-06
5.85876e-06
5.75817e-06
3.07089e-06
3.15107e-06
3.25929e-06
3.38337e-06
3.52363e-06
3.67797e-06
3.84133e-06
4.00907e-06
4.17767e-06
4.34414e-06
4.5058e-06
4.66036e-06
4.80597e-06
4.94112e-06
5.06435e-06
5.17434e-06
5.27061e-06
5.35285e-06
5.42066e-06
5.47426e-06
5.51124e-06
5.53331e-06
5.54772e-06
5.55098e-06
5.54369e-06
5.52793e-06
5.50511e-06
5.47604e-06
5.44144e-06
5.40215e-06
5.35893e-06
5.31246e-06
5.26328e-06
5.21192e-06
5.15908e-06
5.10485e-06
5.0499e-06
4.99336e-06
4.939e-06
4.88296e-06
4.81027e-06
2.54725e-06
2.62592e-06
2.72874e-06
2.84406e-06
2.97174e-06
3.10993e-06
3.25427e-06
3.40079e-06
3.54659e-06
3.68931e-06
3.82686e-06
3.95745e-06
4.07972e-06
4.19274e-06
4.29566e-06
4.38754e-06
4.46806e-06
4.53708e-06
4.59434e-06
4.64006e-06
4.6724e-06
4.69223e-06
4.70582e-06
4.71017e-06
4.70576e-06
4.69435e-06
4.67708e-06
4.6546e-06
4.62753e-06
4.59658e-06
4.56238e-06
4.52553e-06
4.48648e-06
4.44568e-06
4.40376e-06
4.36085e-06
4.3174e-06
4.2727e-06
4.22968e-06
4.1876e-06
4.11969e-06
2.11187e-06
2.18943e-06
2.28743e-06
2.39496e-06
2.51138e-06
2.63525e-06
2.76306e-06
2.89157e-06
3.01832e-06
3.14131e-06
3.25885e-06
3.3695e-06
3.47194e-06
3.56487e-06
3.64733e-06
3.71882e-06
3.77951e-06
3.82979e-06
3.86992e-06
3.90018e-06
3.91961e-06
3.92948e-06
3.93483e-06
3.93331e-06
3.92536e-06
3.91248e-06
3.89561e-06
3.87529e-06
3.85196e-06
3.82615e-06
3.79832e-06
3.76889e-06
3.73816e-06
3.70642e-06
3.6741e-06
3.64113e-06
3.60821e-06
3.5739e-06
3.54299e-06
3.50508e-06
3.47145e-06
1.75117e-06
1.82796e-06
1.92186e-06
2.02251e-06
2.12848e-06
2.23877e-06
2.35111e-06
2.46338e-06
2.57381e-06
2.68066e-06
2.78232e-06
2.87775e-06
2.96667e-06
3.04938e-06
3.12577e-06
3.19459e-06
3.25475e-06
3.30595e-06
3.34816e-06
3.38182e-06
3.40612e-06
3.42116e-06
3.43174e-06
3.43586e-06
3.434e-06
3.42746e-06
3.41707e-06
3.40333e-06
3.38669e-06
3.36767e-06
3.34674e-06
3.32433e-06
3.30075e-06
3.27629e-06
3.25143e-06
3.22628e-06
3.2011e-06
3.1753e-06
3.15088e-06
3.1288e-06
3.07921e-06
1.45566e-06
1.53068e-06
1.61972e-06
1.71344e-06
1.80972e-06
1.90765e-06
2.00563e-06
2.10246e-06
2.19743e-06
2.28979e-06
2.3781e-06
2.46023e-06
2.53364e-06
2.59624e-06
2.64779e-06
2.69055e-06
2.72681e-06
2.75731e-06
2.7821e-06
2.80088e-06
2.81326e-06
2.82025e-06
2.82475e-06
2.82511e-06
2.82161e-06
2.81524e-06
2.8066e-06
2.796e-06
2.78371e-06
2.77003e-06
2.75523e-06
2.73953e-06
2.72312e-06
2.70612e-06
2.68877e-06
2.67089e-06
2.6533e-06
2.63398e-06
2.61926e-06
2.58987e-06
2.59401e-06
1.21514e-06
1.28648e-06
1.36775e-06
1.45161e-06
1.53676e-06
1.62321e-06
1.70972e-06
1.7946e-06
1.87651e-06
1.95499e-06
2.03065e-06
2.10507e-06
2.17985e-06
2.25564e-06
2.33025e-06
2.39768e-06
2.45392e-06
2.49981e-06
2.53683e-06
2.56648e-06
2.5886e-06
2.60287e-06
2.61329e-06
2.61872e-06
2.61974e-06
2.61737e-06
2.61228e-06
2.6049e-06
2.59564e-06
2.58493e-06
2.57319e-06
2.56077e-06
2.54793e-06
2.53491e-06
2.52211e-06
2.50975e-06
2.49771e-06
2.48626e-06
2.47458e-06
2.4725e-06
2.42376e-06
1.01439e-06
1.08373e-06
1.15728e-06
1.22884e-06
1.29889e-06
1.36994e-06
1.44316e-06
1.5183e-06
1.59367e-06
1.66596e-06
1.7308e-06
1.78393e-06
1.82307e-06
1.84863e-06
1.86559e-06
1.88411e-06
1.90862e-06
1.93501e-06
1.9602e-06
1.98232e-06
2.00098e-06
2.0169e-06
2.03086e-06
2.04181e-06
2.04983e-06
2.05553e-06
2.0593e-06
2.06132e-06
2.06176e-06
2.06079e-06
2.05859e-06
2.05526e-06
2.05094e-06
2.04566e-06
2.03955e-06
2.03234e-06
2.02504e-06
2.01489e-06
2.01074e-06
1.98025e-06
2.02518e-06
8.45298e-07
9.20546e-07
9.95211e-07
1.06134e-06
1.11883e-06
1.17128e-06
1.22206e-06
1.27424e-06
1.33096e-06
1.39524e-06
1.46946e-06
1.55463e-06
1.6493e-06
1.74983e-06
1.848e-06
1.92715e-06
1.98219e-06
2.02367e-06
2.05611e-06
2.08166e-06
2.09997e-06
2.11151e-06
2.1192e-06
2.12269e-06
2.12272e-06
2.12018e-06
2.11567e-06
2.10968e-06
2.10267e-06
2.09509e-06
2.08737e-06
2.0799e-06
2.07294e-06
2.06678e-06
2.0618e-06
2.05845e-06
2.05609e-06
2.05662e-06
2.05405e-06
2.07625e-06
2.00848e-06
7.22652e-07
7.96383e-07
8.68825e-07
9.35493e-07
9.94753e-07
1.04644e-06
1.0896e-06
1.12332e-06
1.14771e-06
1.16398e-06
1.17417e-06
1.18061e-06
1.18573e-06
1.19004e-06
1.19575e-06
1.21675e-06
1.2537e-06
1.29471e-06
1.33587e-06
1.37474e-06
1.41074e-06
1.44394e-06
1.47475e-06
1.50283e-06
1.52799e-06
1.55043e-06
1.57033e-06
1.58775e-06
1.60271e-06
1.61521e-06
1.62526e-06
1.63283e-06
1.63793e-06
1.64043e-06
1.64037e-06
1.63738e-06
1.63251e-06
1.62223e-06
1.61767e-06
1.57462e-06
1.64303e-06
7.84413e-07
8.81549e-07
9.33545e-07
9.43305e-07
9.29908e-07
9.19813e-07
9.363e-07
9.90165e-07
1.0772e-06
1.18422e-06
1.29691e-06
1.40407e-06
1.49847e-06
1.57788e-06
1.6402e-06
1.67128e-06
1.67412e-06
1.66401e-06
1.64816e-06
1.62941e-06
1.60664e-06
1.58606e-06
1.56358e-06
1.54059e-06
1.51787e-06
1.49561e-06
1.47391e-06
1.4529e-06
1.43265e-06
1.41322e-06
1.39456e-06
1.37665e-06
1.35927e-06
1.34227e-06
1.32568e-06
1.30978e-06
1.29313e-06
1.27805e-06
1.25668e-06
1.26076e-06
1.17056e-06
6.66782
7.59459
6.88844
5.66977
4.2555
2.90981
1.76494
0.87426
0.286772
0.0519005
0.0206328
0.00369314
5.48147e-06
0.000108534
0.000302093
0.000249946
0.000205642
0.000181249
0.000159691
0.000139586
0.000121927
0.000106135
9.21138e-05
7.971e-05
6.87426e-05
5.91062e-05
5.0573e-05
4.31426e-05
3.66294e-05
3.09905e-05
2.60956e-05
2.19146e-05
1.83348e-05
1.53028e-05
1.27391e-05
1.05773e-05
8.76076e-06
7.23811e-06
5.9602e-06
4.89633e-06
4.0074e-06
3.26374e-06
2.64654e-06
2.13279e-06
1.70393e-06
1.35113e-06
1.05725e-06
8.16193e-07
6.26295e-07
4.82358e-07
3.79756e-07
3.29488e-07
3.18142e-07
3.36391e-07
3.68099e-07
3.98366e-07
4.31896e-07
4.58509e-07
4.82079e-07
4.99751e-07
5.13503e-07
5.22535e-07
5.28017e-07
5.29795e-07
5.2949e-07
5.24754e-07
5.21215e-07
5.10685e-07
5.06769e-07
4.85662e-07
4.95244e-07
4.49296e-07
5.07992e-07
4.41927e-07
6.43927
10.2835
9.95605
8.3997
6.56976
4.79512
3.22543
1.92135
0.928152
0.291079
0.0524356
0.0147566
0.00296656
7.74738e-06
6.11822e-05
0.000260565
0.000222549
0.000181286
0.000159937
0.000140478
0.000122398
0.000106393
9.22662e-05
7.97805e-05
6.87477e-05
5.90876e-05
5.0538e-05
4.30925e-05
3.65777e-05
3.09383e-05
2.60427e-05
2.18558e-05
1.82752e-05
1.52389e-05
1.2675e-05
1.05136e-05
8.69734e-06
7.17632e-06
5.89898e-06
4.83716e-06
3.95261e-06
3.20975e-06
2.59684e-06
2.08709e-06
1.66184e-06
1.31554e-06
1.02519e-06
7.90065e-07
6.07288e-07
4.71067e-07
3.76055e-07
3.33642e-07
3.26717e-07
3.46261e-07
3.76869e-07
4.05398e-07
4.36466e-07
4.60816e-07
4.82317e-07
4.98045e-07
5.10033e-07
5.17722e-07
5.21981e-07
5.22622e-07
5.21653e-07
5.16067e-07
5.12281e-07
5.013e-07
4.97692e-07
4.75354e-07
4.87261e-07
4.37684e-07
5.01974e-07
4.33501e-07
4.44979
10.0276
11.6355
10.7119
8.91413
6.93878
5.06011
3.39178
2.00221
0.950366
0.290269
0.0524351
0.0123004
0.0026276
4.25137e-06
2.84275e-05
0.00022873
0.000206419
0.000161591
0.000140122
0.000123226
0.000107009
9.25598e-05
7.99581e-05
6.88483e-05
5.91065e-05
5.05481e-05
4.30661e-05
3.65405e-05
3.08875e-05
2.59968e-05
2.17994e-05
1.82184e-05
1.51757e-05
1.26096e-05
1.04477e-05
8.63121e-06
7.11093e-06
5.83576e-06
4.77403e-06
3.89398e-06
3.15388e-06
2.54472e-06
2.03951e-06
1.6195e-06
1.27903e-06
9.93461e-07
7.67407e-07
5.92423e-07
4.6348e-07
3.78883e-07
3.43017e-07
3.39783e-07
3.58845e-07
3.86842e-07
4.14454e-07
4.41596e-07
4.63577e-07
4.82443e-07
4.96067e-07
5.0629e-07
5.1214e-07
5.15195e-07
5.14883e-07
5.12906e-07
5.07111e-07
5.02221e-07
4.91167e-07
4.87901e-07
4.64637e-07
4.78399e-07
4.2567e-07
4.95121e-07
4.24665e-07
3.1053
8.62068
11.8166
12.1435
10.9258
9.10112
7.13054
5.22722
3.51029
2.0684
0.977608
0.30001
0.0542862
0.0109625
0.00272635
1.72946e-06
1.53032e-06
0.000166891
0.000187833
0.000145368
0.000122647
0.000107675
9.33622e-05
8.03572e-05
6.90846e-05
5.92843e-05
5.06873e-05
4.31482e-05
3.65887e-05
3.09075e-05
2.6003e-05
2.17864e-05
1.81934e-05
1.51392e-05
1.25648e-05
1.03982e-05
8.57831e-06
7.05613e-06
5.78126e-06
4.71967e-06
3.84129e-06
3.10402e-06
2.49824e-06
1.99687e-06
1.5821e-06
1.24646e-06
9.6659e-07
7.48516e-07
5.80749e-07
4.58727e-07
3.8311e-07
3.5219e-07
3.51292e-07
3.6931e-07
3.9468e-07
4.20937e-07
4.44636e-07
4.64443e-07
4.80814e-07
4.92638e-07
5.01137e-07
5.05622e-07
5.07557e-07
5.06427e-07
5.03708e-07
4.97649e-07
4.922e-07
4.80957e-07
4.78192e-07
4.54061e-07
4.69838e-07
4.139e-07
4.88629e-07
4.16135e-07
2.37769
7.05302
10.9258
12.5006
12.2406
10.9506
9.18873
7.26838
5.37404
3.6347
2.15757
1.03278
0.330374
0.060954
0.0113272
0.00340865
8.43232e-08
2.76513e-11
0.000127292
0.000168315
0.000132072
0.000106791
9.31903e-05
8.11875e-05
6.96656e-05
5.95564e-05
5.08801e-05
4.33196e-05
3.67229e-05
3.09957e-05
2.6057e-05
2.18139e-05
1.82003e-05
1.51296e-05
1.25412e-05
1.03655e-05
8.53946e-06
7.01334e-06
5.73656e-06
4.67482e-06
3.79658e-06
3.06127e-06
2.45838e-06
1.9604e-06
1.55025e-06
1.21914e-06
9.45227e-07
7.33499e-07
5.72283e-07
4.56887e-07
3.88078e-07
3.60642e-07
3.60824e-07
3.77422e-07
4.00334e-07
4.24567e-07
4.4541e-07
4.63203e-07
4.77328e-07
4.87632e-07
4.94486e-07
4.9806e-07
4.99026e-07
4.97166e-07
4.94038e-07
4.8758e-07
4.82172e-07
4.70676e-07
4.68537e-07
4.4357e-07
4.61562e-07
4.02408e-07
4.82446e-07
4.08008e-07
2.01424
5.68118
9.49491
11.909
12.6617
12.1729
10.9224
9.25666
7.40835
5.54382
3.79927
2.29553
1.13385
0.39015
0.0774223
0.0140918
0.00450647
0.000127019
8.70782e-06
6.07229e-05
0.000143377
0.000124577
9.47916e-05
7.97856e-05
6.98665e-05
6.02631e-05
5.12883e-05
4.35128e-05
3.68768e-05
3.11403e-05
2.61684e-05
2.18845e-05
1.82368e-05
1.51429e-05
1.25375e-05
1.03492e-05
8.5143e-06
6.98214e-06
5.70197e-06
4.63876e-06
3.76005e-06
3.02594e-06
2.42533e-06
1.93039e-06
1.52439e-06
1.1978e-06
9.29576e-07
7.23701e-07
5.68439e-07
4.59376e-07
3.95539e-07
3.7039e-07
3.70469e-07
3.8513e-07
4.05508e-07
4.27081e-07
4.45315e-07
4.61011e-07
4.731e-07
4.81885e-07
4.87334e-07
4.89958e-07
4.90114e-07
4.87633e-07
4.84181e-07
4.77427e-07
4.72151e-07
4.60477e-07
4.58977e-07
4.3326e-07
4.53427e-07
3.91264e-07
4.76361e-07
4.00291e-07
1.88751
4.57078
7.92747
10.6728
12.2134
12.5777
12.0396
10.8819
9.33451
7.57733
5.7617
4.02727
2.50289
1.29679
0.491893
0.112671
0.0188949
0.00157819
0.000306529
3.41039e-06
4.06191e-06
9.06096e-05
0.000114928
8.87854e-05
6.92696e-05
5.93139e-05
5.17144e-05
4.41862e-05
3.72534e-05
3.1316e-05
2.62923e-05
2.19949e-05
1.83194e-05
1.51908e-05
1.25565e-05
1.03493e-05
8.50312e-06
6.96335e-06
5.67851e-06
4.61215e-06
3.7318e-06
2.9982e-06
2.39929e-06
1.9069e-06
1.50467e-06
1.18235e-06
9.19422e-07
7.19187e-07
5.6942e-07
4.65886e-07
4.0572e-07
3.81703e-07
3.80793e-07
3.93006e-07
4.10648e-07
4.29309e-07
4.4501e-07
4.58527e-07
4.6871e-07
4.75943e-07
4.8018e-07
4.8177e-07
4.81215e-07
4.78218e-07
4.74434e-07
4.6753e-07
4.62314e-07
4.50542e-07
4.49664e-07
4.23303e-07
4.45473e-07
3.80566e-07
4.70386e-07
3.92963e-07
1.88737
3.69571
6.44692
9.11571
11.0902
12.1532
12.3599
11.8641
10.8352
9.42814
7.78396
6.03992
4.33343
2.79531
1.53885
0.653554
0.181698
0.0337406
0.0021276
0.00143986
1.93393e-07
5.82952e-06
3.28275e-05
8.76056e-05
8.47651e-05
6.35882e-05
5.03311e-05
4.32146e-05
3.75228e-05
3.18738e-05
2.6639e-05
2.21513e-05
1.8406e-05
1.52598e-05
1.26081e-05
1.03774e-05
8.51048e-06
6.95705e-06
5.6653e-06
4.59513e-06
3.71229e-06
2.97846e-06
2.38037e-06
1.88976e-06
1.4909e-06
1.17237e-06
9.14451e-07
7.19251e-07
5.74544e-07
4.75325e-07
4.17832e-07
3.93879e-07
3.91399e-07
4.00759e-07
4.15471e-07
4.31239e-07
4.44424e-07
4.55802e-07
4.64144e-07
4.69898e-07
4.72973e-07
4.73611e-07
4.72402e-07
4.6898e-07
4.64908e-07
4.57909e-07
4.52754e-07
4.40938e-07
4.40668e-07
4.13779e-07
4.37768e-07
3.70362e-07
4.6457e-07
3.85982e-07
1.91477
3.01234
5.13216
7.48132
9.55103
11.0431
11.8638
12.0368
11.6395
10.7683
9.52564
8.0219
6.37768
4.72219
3.18395
1.87757
0.898261
0.309433
0.0668963
0.00797743
0.00401496
0.00011306
1.48188e-06
5.82571e-06
3.82301e-05
7.14026e-05
6.44068e-05
4.72141e-05
3.66789e-05
3.10421e-05
2.67411e-05
2.25824e-05
1.8714e-05
1.53926e-05
1.26557e-05
1.04047e-05
8.53309e-06
6.97075e-06
5.66778e-06
4.58866e-06
3.70067e-06
2.96602e-06
2.36849e-06
1.87923e-06
1.48318e-06
1.16775e-06
9.14443e-07
7.23568e-07
5.8326e-07
4.87267e-07
4.31404e-07
4.06632e-07
4.02034e-07
4.08288e-07
4.19905e-07
4.32811e-07
4.43487e-07
4.52787e-07
4.5934e-07
4.63711e-07
4.65659e-07
4.6547e-07
4.63662e-07
4.59867e-07
4.55583e-07
4.48508e-07
4.43468e-07
4.31651e-07
4.31965e-07
4.04669e-07
4.30292e-07
3.60661e-07
4.58904e-07
3.79294e-07
1.85041
2.43914
3.97022
5.89562
7.82235