/*--------------------------------*- C++ -*----------------------------------*\
| =========                 |                                                 |
| \\      /  F ield         | OpenFOAM: The Open Source CFD Toolbox           |
|  \\    /   O peration     | Version:  2312                                  |
|   \\  /    A nd           | Website:  www.openfoam.com                      |
|    \\/     M anipulation  |                                                 |
\*---------------------------------------------------------------------------*/
FoamFile
{
    version     2.0;
    format      ascii;
    arch        "LSB;label=32;scalar=64";
    class       volScalarField;
    location    "800";
    object      turbulenceProperties:I;
}
// * * * * * * * * * * * * * * * * * * * * * * * * * * * * * * * * * * * * * //

dimensions      [0 0 0 0 0 0 0];

internalField   nonuniform List<scalar> 
11040
(
0.0591161
0.0926121
1
0.097901
0.272962
0.288289
0.290332
0.291632
0.288475
0.287336
0.28486
0.282709
0.28018
0.278189
0.276178
0.275133
0.275392
0.276576
0.277997
0.279412
0.280818
0.282245
0.283066
0.282785
0.281676
0.280838
0.280646
0.280448
0.280531
0.28134
0.283579
0.28815
0.295142
0.30846
0.336764
0.359488
0.349154
0.459364
1
0.436621
0.730065
0.0186215
0.0240126
0.0674796
0.365342
0.591816
0.309501
0.165415
0.0981445
0.0513198
0.0438942
0.0694049
0.0811391
0.0882688
0.0930914
0.0960327
0.0982938
0.10056
0.102705
0.104209
0.104989
0.105149
0.104947
0.103566
0.100403
0.0957657
0.0909851
0.0866625
0.0818185
0.076496
0.0711799
0.0673046
0.0675196
0.0711678
0.0813972
0.101735
0.138188
0.210064
0.393822
1
0.532744
0.824651
0.0161577
0.012658
0.0185902
0.0539283
0.319463
1
0.596451
0.319681
0.21342
0.162723
0.121042
0.0915722
0.0640486
0.035797
0.0321314
0.0474626
0.0555821
0.0602485
0.0627063
0.0635055
0.0631303
0.0618291
0.0590036
0.0545148
0.0490078
0.0432461
0.0374613
0.0309136
0.0218851
0.025336
0.0433863
0.0631256
0.0859534
0.114551
0.153829
0.214406
0.324219
0.577014
1
0.97821
0.679853
0.0142736
0.0115743
0.00927927
0.0116587
0.0564479
0.248201
1
1
0.516848
0.345978
0.252351
0.201283
0.165358
0.137372
0.117064
0.100573
0.0888668
0.0800794
0.0741814
0.0707673
0.0690034
0.0687668
0.0701021
0.0723895
0.0745112
0.0758881
0.0762684
0.0755666
0.0740508
0.0732855
0.0774412
0.0912005
0.11528
0.150346
0.200577
0.277951
0.413661
0.698059
1
1
0.688572
0.0128507
0.0109151
0.0101551
0.00653582
0.00755212
0.0490989
0.186777
0.778296
1
0.905785
0.524185
0.369558
0.290394
0.236948
0.202916
0.176611
0.158647
0.145116
0.135506
0.128848
0.123957
0.120471
0.118434
0.117575
0.117018
0.116242
0.114936
0.112905
0.110256
0.107932
0.108979
0.119411
0.144307
0.185035
0.24475
0.335085
0.485968
0.768701
1
1
0.800963
0.0112863
0.00975883
0.00887073
0.00857944
0.00440635
0.0036649
0.0372842
0.134025
0.4256
1
1
0.834065
0.548218
0.404785
0.327508
0.274905
0.241161
0.217042
0.199985
0.188127
0.179219
0.172425
0.16749
0.164132
0.161449
0.158895
0.15604
0.152507
0.14814
0.14343
0.140779
0.146967
0.171141
0.216494
0.284317
0.383876
0.539544
0.795723
1
1
0.941508
0.00976102
0.00876097
0.00787089
0.00761266
0.00723023
0.00296841
0.000601927
0.0237957
0.0914128
0.262369
0.819752
1
1
0.840113
0.580809
0.448274
0.370291
0.31919
0.285019
0.262441
0.246353
0.23464
0.226047
0.219854
0.214808
0.210186
0.2054
0.199864
0.193103
0.185128
0.177413
0.176338
0.195417
0.242721
0.316626
0.421142
0.571713
0.78728
1
1
1
0.0084034
0.00774321
0.0072021
0.00665453
0.00656566
0.0063597
0.00131369
0.000134591
0.0125299
0.0580335
0.163457
0.420338
1
1
1
0.886648
0.631939
0.501874
0.422993
0.37306
0.340107
0.318554
0.303451
0.292733
0.284174
0.27657
0.269037
0.260701
0.25065
0.238379
0.224075
0.211795
0.21727
0.260199
0.337453
0.44297
0.581074
0.752591
0.923001
1
1
0.00722313
0.00676448
0.00641524
0.00606817
0.00566995
0.00576851
0.00539613
0.00191237
0.00170772
0.0023806
0.0322757
0.0984639
0.241712
0.58823
1
1
1
0.972061
0.708677
0.573848
0.494448
0.44739
0.417271
0.39706
0.38183
0.368788
0.356403
0.34348
0.328743
0.31088
0.288627
0.262118
0.241561
0.263303
0.339588
0.444346
0.567192
0.699191
0.815332
0.933102
0.92875
0.00619242
0.00587227
0.00563508
0.00542636
0.00518116
0.00490276
0.00501096
0.00457953
0.00251096
0.000873675
0.00361611
0.0141957
0.0550858
0.140062
0.314643
0.72677
1
1
1
1
0.829205
0.690076
0.612553
0.565164
0.532998
0.508531
0.487402
0.466538
0.443838
0.417545
0.385393
0.343942
0.29095
0.250125
0.307345
0.416904
0.529372
0.632065
0.711172
0.778482
0.795238
0.00530147
0.00507583
0.00491417
0.00477769
0.00464361
0.00446382
0.00428765
0.00429661
0.004155
0.00292459
0.000735562
0.00156377
0.00132582
0.0256827
0.0763293
0.174644
0.366815
0.79492
1
1
1
1
1
0.909502
0.813816
0.750873
0.704588
0.665753
0.628949
0.589955
0.544473
0.487251
0.410889
0.301049
0.181786
0.337531
0.462981
0.552855
0.60974
0.645153
0.657176
0.0045334
0.00437377
0.00425916
0.00417256
0.00409016
0.00400123
0.00387951
0.00375173
0.00371324
0.00369519
0.00310427
0.000550993
0.000383013
0.00313966
0.00857348
0.0363016
0.0924978
0.195965
0.388155
0.782527
1
1
1
1
1
1
1
1
0.977923
0.905773
0.833794
0.753704
0.658045
0.539473
0.393178
0.292861
0.390663
0.476404
0.519763
0.533233
0.53086
0.00387317
0.0037601
0.00367745
0.00362083
0.00357399
0.0035247
0.00346738
0.00338954
0.00329603
0.00324028
0.00326215
0.00297194
0.00143704
0.000440918
0.00102498
0.00448887
0.0124575
0.042878
0.10007
0.200645
0.377847
0.695377
1
1
1
1
1
1
1
1
1
1
1
1
0.862947
0.708408
0.608663
0.563482
0.538324
0.507205
0.467417
0.00330627
0.00322648
0.00316599
0.00312833
0.00310317
0.00307971
0.0030523
0.00301836
0.00297105
0.00290665
0.00285048
0.00286963
0.00277278
0.00207413
0.000269376
0.000171029
0.00158825
0.00550145
0.0145421
0.0443318
0.0982994
0.185052
0.316157
0.51423
0.803389
1
1
1
1
1
1
1
1
1
1
1
1
1
0.868614
0.743904
0.632224
0.00281946
0.00276366
0.00271907
0.00269394
0.00268173
0.0026739
0.00266544
0.00265349
0.00263627
0.00261051
0.00256928
0.002527
0.00252533
0.00250038
0.00230634
0.00123077
0.000406567
5.44433e-05
0.00207611
0.00555894
0.0138282
0.0390362
0.079253
0.138338
0.220923
0.333688
0.484279
0.675148
0.897637
1
1
1
1
1
1
1
1
1
1
1
1
0.00240147
0.00236275
0.00232975
0.00231298
0.00230857
0.00230962
0.00231204
0.00231369
0.00231262
0.00230722
0.00229595
0.00227369
0.0022476
0.00222601
0.0022463
0.00215211
0.00187412
0.000530343
0.000243071
2.70853e-05
0.00219181
0.00453251
0.00797729
0.0236621
0.0482816
0.0833559
0.130403
0.19129
0.268269
0.36354
0.477995
0.610426
0.759218
0.926729
1
1
1
1
1
1
1
0.00204549
0.0020187
0.00199435
0.00198337
0.00198355
0.00198926
0.00199738
0.00200617
0.00201419
0.00201994
0.00202233
0.00202033
0.00201254
0.0019969
0.00198504
0.00198328
0.00199375
0.00185686
0.0014481
0.000272457
0.000178674
2.25955e-05
0.00118197
0.00320643
0.000171338
0.00808265
0.0198121
0.0372499
0.0611128
0.0918411
0.130149
0.176793
0.232538
0.298299
0.374908
0.462933
0.563559
0.680436
0.819643
0.993196
1
0.00175314
0.00173461
0.00171684
0.00171021
0.00171334
0.00172163
0.00173261
0.00174496
0.00175745
0.00176894
0.00177845
0.00178528
0.00178899
0.00178888
0.00178324
0.00177575
0.00177171
0.00178667
0.0017765
0.00163736
0.00121089
0.000229257
0.000164012
4.11761e-05
2.08254e-05
0.00123567
0.00288753
0.00367974
0.001924
0.00783491
0.0175509
0.0310328
0.0485112
0.070448
0.0971131
0.128748
0.165573
0.208239
0.257082
0.313163
0.375621
0.00151911
0.0015063
0.00149329
0.0014897
0.0014946
0.00150421
0.00151657
0.00153073
0.00154565
0.00156028
0.00157379
0.0015855
0.00159491
0.00160188
0.00160589
0.00160686
0.00160342
0.00160234
0.00160683
0.00161896
0.00159959
0.0014595
0.00119189
0.000418521
0.000193576
9.15447e-05
2.92304e-05
0
0.000215228
0.00112945
0.00258986
0.00318278
0.0031296
0.00258122
0.0073599
0.0155252
0.0261438
0.0395314
0.0557364
0.0749791
0.0972115
0.00133016
0.00132118
0.00131156
0.00131001
0.00131584
0.00132589
0.0013386
0.00135321
0.00136891
0.00138483
0.00140026
0.00141467
0.00142755
0.00143854
0.00144744
0.00145418
0.00145847
0.00146017
0.00145993
0.00146299
0.0014719
0.00147939
0.00146818
0.00137802
0.00119441
0.000938771
0.000315244
0.000160813
8.46594e-05
6.1985e-05
1.60989e-05
0
0
0.000303109
0.00103358
0.0023275
0.00300134
0.00268789
0.002216
0.00092541
0.00635095
0.00117387
0.00116752
0.0011604
0.00116025
0.00116653
0.00117659
0.00118916
0.0012036
0.00121923
0.00123534
0.00125133
0.00126677
0.00128126
0.00129446
0.0013061
0.00131603
0.00132422
0.00133059
0.00133499
0.00133769
0.00133969
0.00134556
0.00135398
0.00136752
0.00136165
0.00133768
0.00125972
0.001121
0.00093459
0.000705475
0.000191926
0.000123406
7.51874e-05
6.15374e-05
4.54667e-05
1.78532e-05
0
0
0
7.94168e-05
0.000815655
0.00104246
0.00103796
0.00103276
0.00103361
0.00104004
0.00104987
0.00106203
0.00107597
0.00109111
0.00110685
0.00112267
0.00113822
0.00115316
0.0011672
0.00118011
0.00119172
0.00120193
0.00121071
0.00121806
0.00122407
0.00122831
0.00123167
0.00123505
0.00124116
0.0012501
0.0012591
0.0012706
0.00127017
0.00125218
0.00122142
0.00115517
0.00105264
0.000921958
0.000770438
0.000587234
0.000240189
0.000120423
6.70081e-05
5.88095e-05
4.99797e-05
3.99858e-05
0.000930396
0.000927247
0.000923526
0.000925067
0.000931481
0.00094093
0.000952523
0.000965776
0.000980185
0.000995233
0.00101048
0.00102561
0.00104037
0.00105447
0.00106771
0.00107995
0.00109108
0.00110103
0.00110976
0.0011174
0.00112366
0.00112872
0.00113302
0.00113647
0.00114005
0.00114417
0.00115038
0.00115863
0.00116743
0.0011747
0.00118296
0.00118354
0.00117487
0.00115623
0.00112958
0.00108473
0.00102075
0.000937734
0.000841103
0.00073124
0.000603235
0.00083378
0.000831615
0.00082906
0.000831088
0.000837366
0.00084636
0.000857315
0.000869796
0.000883358
0.000897552
0.000911999
0.000926422
0.000940592
0.000954275
0.000967283
0.000979479
0.000990766
0.00100107
0.00101033
0.00101863
0.00102569
0.00103165
0.00103693
0.00104126
0.00104478
0.00104774
0.00105033
0.00105298
0.00105616
0.00105982
0.00106456
0.00107021
0.00107607
0.00108155
0.00108589
0.00109041
0.00109217
0.00108956
0.00108214
0.00106899
0.00105395
0.000749704
0.000748267
0.000746638
0.000749001
0.00075507
0.000763572
0.000773857
0.000785531
0.000798195
0.000811456
0.000824984
0.000838533
0.000851902
0.000864889
0.000877322
0.000889077
0.000900056
0.000910186
0.000919405
0.000927763
0.000934974
0.000941146
0.000946624
0.0009512
0.000954965
0.000958065
0.000960559
0.000962488
0.000963942
0.000965036
0.000965844
0.000966554
0.000967299
0.000968231
0.000969303
0.000970648
0.000972227
0.000973998
0.000975868
0.000977138
0.000978821
0.000675975
0.000675086
0.000674197
0.000676785
0.000682607
0.000690608
0.000700222
0.000711089
0.000722849
0.000735156
0.000747719
0.00076032
0.000772776
0.000784911
0.000796571
0.000807642
0.000818032
0.000827667
0.000836483
0.000844515
0.000851477
0.000857454
0.000862754
0.000867163
0.000870758
0.000873669
0.00087597
0.000877699
0.000878887
0.000879577
0.000879792
0.000879564
0.000878916
0.000877911
0.000876614
0.000875027
0.000873185
0.00087119
0.000869187
0.00086703
0.000864994
0.000610896
0.000610424
0.000610133
0.00061287
0.000618428
0.000625937
0.000634898
0.00064498
0.000655855
0.000667218
0.000678811
0.00069044
0.00070194
0.00071315
0.000723937
0.000734194
0.000743837
0.000752794
0.000760998
0.000768477
0.000774953
0.000780499
0.000785404
0.000789453
0.000792703
0.000795267
0.000797214
0.000798584
0.000799417
0.000799755
0.000799633
0.000799086
0.000798128
0.000796799
0.000795135
0.000793135
0.000790803
0.000788182
0.000785376
0.000782228
0.000779152
0.000553132
0.000552984
0.000553184
0.000556015
0.00056131
0.000568348
0.000576688
0.00058602
0.000596048
0.000606502
0.000617149
0.000627819
0.00063836
0.000648626
0.0006585
0.000667886
0.000676705
0.000684888
0.000692373
0.000699176
0.000705038
0.000710026
0.000714415
0.000717998
0.000720815
0.000722972
0.000724529
0.000725524
0.000725993
0.00072598
0.000725521
0.000724655
0.000723402
0.000721808
0.00071991
0.000717713
0.000715229
0.000712496
0.000709608
0.000706431
0.000703257
0.000501613
0.000501725
0.000502333
0.000505228
0.00051027
0.000516866
0.000524624
0.000533251
0.000542481
0.000552072
0.000561816
0.000571559
0.000581167
0.000590506
0.000599471
0.000607976
0.00061595
0.000623328
0.000630051
0.000636132
0.000641328
0.000645705
0.000649529
0.000652604
0.00065496
0.000656693
0.00065786
0.000658497
0.000658638
0.000658323
0.00065759
0.000656475
0.000655001
0.00065321
0.00065114
0.000648798
0.0006462
0.000643378
0.00064042
0.000637247
0.000633915
0.000455473
0.000455804
0.00045676
0.000459699
0.000464508
0.000470698
0.000477916
0.000485889
0.000494374
0.000503156
0.00051205
0.000520916
0.000529634
0.000538086
0.000546171
0.000553818
0.000560962
0.000567544
0.000573509
0.000578866
0.000583394
0.000587159
0.000590419
0.000592989
0.000594894
0.000596221
0.000597025
0.000597339
0.000597195
0.000596631
0.000595684
0.000594389
0.000592768
0.000590861
0.000588704
0.000586307
0.000583684
0.000580866
0.000577927
0.000574842
0.000571447
0.000414
0.000414526
0.000415786
0.000418762
0.000423361
0.000429183
0.000435907
0.000443279
0.000451077
0.000459111
0.000467214
0.000475259
0.000483142
0.000490757
0.000498011
0.000504841
0.000511193
0.000517013
0.00052225
0.000526914
0.000530802
0.000533982
0.000536705
0.000538799
0.000540282
0.000541238
0.000541717
0.00054175
0.000541368
0.000540607
0.000539502
0.000538084
0.000536378
0.000534419
0.000532242
0.000529856
0.000527276
0.000524529
0.00052168
0.000518744
0.00051537
0.000376605
0.000377316
0.000378848
0.00038186
0.000386276
0.000391769
0.000398046
0.000404871
0.000412043
0.000419391
0.000426766
0.000434054
0.000441164
0.000448002
0.000454482
0.000460551
0.000466164
0.000471271
0.000475829
0.000479848
0.000483145
0.000485788
0.00048802
0.000489683
0.000490792
0.000491424
0.000491628
0.000491433
0.000490866
0.000489963
0.000488753
0.00048727
0.000485534
0.000483577
0.000481432
0.000479108
0.000476619
0.000473988
0.000471273
0.000468522
0.000465217
0.000342793
0.000343689
0.000345472
0.000348524
0.000352785
0.000357989
0.000363868
0.000370201
0.000376806
0.00038353
0.000390243
0.00039684
0.000403241
0.000409366
0.000415136
0.000420506
0.000425439
0.000429893
0.00043383
0.00043726
0.00044002
0.00044218
0.000443971
0.00044525
0.000446031
0.000446384
0.000446356
0.000445974
0.000445265
0.000444261
0.000442989
0.00044148
0.000439753
0.000437837
0.000435761
0.000433535
0.000431172
0.00042869
0.000426142
0.000423596
0.000420409
0.000312151
0.000313239
0.000315256
0.000318356
0.000322491
0.000327445
0.000332972
0.000338866
0.000344964
0.000351129
0.000357244
0.000363216
0.000368975
0.000374452
0.000379581
0.000384318
0.000388636
0.000392502
0.000395884
0.000398791
0.000401083
0.000402826
0.000404242
0.0004052
0.000405713
0.000405846
0.000405643
0.00040513
0.000404331
0.000403274
0.000401986
0.000400493
0.000398814
0.000396974
0.000395001
0.000392902
0.00039069
0.000388378
0.000386016
0.000383686
0.000380639
0.000284324
0.000285614
0.000287855
0.000291012
0.00029505
0.000299792
0.000305014
0.000310523
0.000316172
0.000321839
0.00032742
0.000332833
0.000338016
0.000342911
0.000347463
0.000351632
0.000355398
0.000358737
0.000361622
0.000364063
0.000365939
0.000367312
0.000368397
0.000369073
0.000369352
0.000369297
0.000368949
0.000368331
0.000367467
0.000366381
0.000365099
0.000363645
0.000362035
0.000360291
0.000358437
0.000356482
0.000354436
0.000352308
0.000350149
0.000348032
0.000345184
0.000259011
0.000260516
0.000262973
0.000266198
0.000270166
0.000274734
0.000279695
0.000284871
0.000290127
0.000295355
0.000300464
0.000305381
0.000310052
0.000314433
0.000318475
0.000322146
0.000325432
0.000328316
0.00033078
0.000332833
0.000334375
0.000335461
0.000336295
0.000336767
0.000336888
0.000336715
0.000336288
0.000335627
0.000334752
0.000333687
0.000332454
0.000331076
0.000329565
0.000327943
0.000326232
0.000324436
0.000322569
0.000320631
0.000318677
0.000316778
0.000314102
0.000235954
0.000237689
0.000240355
0.000243658
0.000247584
0.000252014
0.000256756
0.000261646
0.000266561
0.000271406
0.000276099
0.000280579
0.0002848
0.000288723
0.000292313
0.000295539
0.000298393
0.000300867
0.000302947
0.000304643
0.000305871
0.000306686
0.000307279
0.00030755
0.000307514
0.000307222
0.000306713
0.000306006
0.000305118
0.000304073
0.00030289
0.000301588
0.000300181
0.000298685
0.000297119
0.000295488
0.000293805
0.000292063
0.000290327
0.00028862
0.000286238
0.000214934
0.000216911
0.000219781
0.000223177
0.000227085
0.000231408
0.000235969
0.000240614
0.000245234
0.000249744
0.000254074
0.000258174
0.000262003
0.000265536
0.000268744
0.000271605
0.000274115
0.000276274
0.000278074
0.000279525
0.00028056
0.000281222
0.000281693
0.000281879
0.000281792
0.000281483
0.000280984
0.000280312
0.000279485
0.000278521
0.000277439
0.000276256
0.000274984
0.000273637
0.000272234
0.000270778
0.000269282
0.000267734
0.000266202
0.000264709
0.000262473
0.000195764
0.000197992
0.000201062
0.000204563
0.000208478
0.000212722
0.000217129
0.000221561
0.000225922
0.000230139
0.000234152
0.000237917
0.000241399
0.000244578
0.000247431
0.000249941
0.000252108
0.000253936
0.000255424
0.000256583
0.000257364
0.00025781
0.00025809
0.000258123
0.000257922
0.000257533
0.000256989
0.000256304
0.000255495
0.000254578
0.00025357
0.000252485
0.000251333
0.000250127
0.000248881
0.000247597
0.000246289
0.000244937
0.000243631
0.000242276
0.0002405
0.000178278
0.000180764
0.000184028
0.000187643
0.000191581
0.000195764
0.00020004
0.000204285
0.000208416
0.000212374
0.000216111
0.000219593
0.000222795
0.000225707
0.00022832
0.00023062
0.000232611
0.000234298
0.000235681
0.000236773
0.000237531
0.000237981
0.000238282
0.000238359
0.000238223
0.000237917
0.000237468
0.000236893
0.000236204
0.000235418
0.000234549
0.000233613
0.000232618
0.000231575
0.0002305
0.000229395
0.000228271
0.000227109
0.000225987
0.000224884
0.00022308
0.000162326
0.000165088
0.000168553
0.000172283
0.000176239
0.000180356
0.000184505
0.000188578
0.000192504
0.000196232
0.000199721
0.000202944
0.000205876
0.000208492
0.000210779
0.000212735
0.000214375
0.000215717
0.000216776
0.000217563
0.000218056
0.000218291
0.000218408
0.000218342
0.000218103
0.000217732
0.000217255
0.000216685
0.000216032
0.000215311
0.000214533
0.000213708
0.000212846
0.000211952
0.00021104
0.000210105
0.000209168
0.000208188
0.000207302
0.000206207
0.000205234
0.000147823
0.000150882
0.000154562
0.000158412
0.000162366
0.000166378
0.000170363
0.00017425
0.000177983
0.000181517
0.000184809
0.000187842
0.000190619
0.000193164
0.000195481
0.000197542
0.000199323
0.000200822
0.000202045
0.000203011
0.000203699
0.000204116
0.000204405
0.000204507
0.000204436
0.00020423
0.000203913
0.000203499
0.000203001
0.000202432
0.000201806
0.000201135
0.000200428
0.000199693
0.000198945
0.000198185
0.000197422
0.000196638
0.000195894
0.00019522
0.000193683
0.000134789
0.000138109
0.000141958
0.000145896
0.000149827
0.000153717
0.000157507
0.000161159
0.000164657
0.000167985
0.000171103
0.000173947
0.000176444
0.000178538
0.000180237
0.000181629
0.000182798
0.000183773
0.000184558
0.000185148
0.000185529
0.000185738
0.000185868
0.000185866
0.00018574
0.000185522
0.000185232
0.000184879
0.000184471
0.000184018
0.000183528
0.000183007
0.000182462
0.000181897
0.000181318
0.000180721
0.000180131
0.000179481
0.000178987
0.000177987
0.000178139
0.000123169
0.000126656
0.000130514
0.000134373
0.000138173
0.000141922
0.000145571
0.00014906
0.000152346
0.000155425
0.000158335
0.000161145
0.000163922
0.000166691
0.000169372
0.000171757
0.000173715
0.000175293
0.000176552
0.000177552
0.00017829
0.000178761
0.000179101
0.000179273
0.000179298
0.000179208
0.000179028
0.000178772
0.000178452
0.000178083
0.000177679
0.000177252
0.000176811
0.000176363
0.000175922
0.000175497
0.000175082
0.000174687
0.000174284
0.000174218
0.000172502
0.000112561
0.000116291
0.000120116
0.000123714
0.000127129
0.000130497
0.000133878
0.000137259
0.000140566
0.000143664
0.000146381
0.000148564
0.000150143
0.000151156
0.000151817
0.000152543
0.000153509
0.000154547
0.000155532
0.000156391
0.000157113
0.000157725
0.000158261
0.000158678
0.000158983
0.000159198
0.000159339
0.000159414
0.000159427
0.000159388
0.000159301
0.000159171
0.000159003
0.000158798
0.00015856
0.00015828
0.000157997
0.000157601
0.000157441
0.000156243
0.000158009
0.000102786
0.000107232
0.000111457
0.000115056
0.000118085
0.000120775
0.00012332
0.000125882
0.000128613
0.000131644
0.000135064
0.000138888
0.000143019
0.000147278
0.000151318
0.000154492
0.000156654
0.00015826
0.000159502
0.000160472
0.000161162
0.000161592
0.000161876
0.000162
0.000161995
0.000161893
0.000161717
0.000161485
0.000161215
0.000160923
0.000160626
0.00016034
0.000160072
0.000159837
0.000159646
0.00015952
0.000159432
0.000159456
0.000159361
0.000160224
0.000157592
9.50741e-05
9.97943e-05
0.000104213
0.000108107
0.000111444
0.000114266
0.000116563
0.000118319
0.000119566
0.000120385
0.00012089
0.000121207
0.00012146
0.000121675
0.000121964
0.00012303
0.000124883
0.000126906
0.000128905
0.000130762
0.000132459
0.000134004
0.000135422
0.0001367
0.000137834
0.000138837
0.00013972
0.000140488
0.000141142
0.000141687
0.000142122
0.000142448
0.000142666
0.00014277
0.000142763
0.000142629
0.000142413
0.000141961
0.000141758
0.000139856
0.00014286
9.90696e-05
0.000105025
0.000108072
0.000108624
0.000107834
0.000107228
0.000108163
0.000111207
0.000115967
0.000121565
0.000127191
0.000132315
0.000136666
0.000140216
0.000142935
0.000144261
0.000144365
0.000143915
0.000143216
0.000142391
0.000141385
0.000140472
0.000139468
0.000138435
0.000137408
0.000136394
0.000135399
0.000134429
0.000133488
0.000132578
0.000131699
0.000130849
0.000130019
0.000129203
0.000128401
0.000127628
0.000126813
0.000126071
0.000125011
0.000125213
0.000120649
0.448055
0.344265
0.291082
0.246995
0.205184
0.165036
0.126146
0.0877598
0.0500322
0.0213363
0.0135636
0.00579869
0.000225718
0.00101485
0.00171096
0.0015726
0.00144107
0.00136633
0.00129466
0.00122125
0.00115094
0.00108211
0.00101523
0.000950447
0.000887715
0.00082736
0.000768773
0.000712875
0.000659137
0.000608099
0.00055945
0.000513806
0.000470846
0.000430831
0.000393603
0.000359042
0.00032705
0.000297488
0.00027011
0.000244931
0.000221664
0.000200097
0.000180223
0.00016181
0.000144642
0.000128806
0.000113941
0.000100111
8.76903e-05
7.69514e-05
6.82724e-05
6.35866e-05
6.24748e-05
6.4233e-05
6.71824e-05
6.98791e-05
7.27487e-05
7.49437e-05
7.68321e-05
7.82133e-05
7.92672e-05
7.99457e-05
8.03482e-05
8.04671e-05
8.04276e-05
8.00506e-05
7.9764e-05
7.89375e-05
7.86193e-05
7.69467e-05
7.76922e-05
7.39752e-05
7.86708e-05
7.3317e-05
0.740089
0.523601
0.407319
0.331414
0.272448
0.221829
0.175977
0.132769
0.0910326
0.0507307
0.0216023
0.0115665
0.00524386
0.000270886
0.000769387
0.00160467
0.00149846
0.00136604
0.00129541
0.00122503
0.00115313
0.00108348
0.00101616
0.000950992
0.000887885
0.000827368
0.00076864
0.000712584
0.000658781
0.000607682
0.000558965
0.000513185
0.000470138
0.000429978
0.000392652
0.000357993
0.000325891
0.000296238
0.000268736
0.000243461
0.000220155
0.000198445
0.00017853
0.000160072
0.000142849
0.000127102
0.000112203
9.84971e-05
8.63509e-05
7.60464e-05
6.79396e-05
6.39867e-05
6.33115e-05
6.51687e-05
6.79781e-05
7.04931e-05
7.31323e-05
7.51316e-05
7.68506e-05
7.80791e-05
7.89981e-05
7.95758e-05
7.98865e-05
7.99193e-05
7.98289e-05
7.93838e-05
7.90759e-05
7.82072e-05
7.79103e-05
7.6124e-05
7.70617e-05
7.3011e-05
7.82014e-05
7.26122e-05
0.984578
0.711511
0.539199
0.428515
0.348973
0.285688
0.231503
0.18258
0.136745
0.0928173
0.0510435
0.02178
0.0106548
0.00498205
0.000202634
0.000529653
0.00151831
0.00145712
0.00130178
0.00122333
0.00115701
0.00108667
0.00101789
0.000952194
0.000888693
0.00082766
0.000768869
0.000712504
0.00065857
0.000607291
0.000558564
0.0005126
0.000469472
0.000429139
0.000391681
0.000356905
0.000324679
0.000294909
0.000267312
0.000241882
0.000218529
0.00019672
0.000176737
0.000158244
0.000141022
0.000125329
0.000110456
9.70764e-05
8.52889e-05
7.54326e-05
6.81954e-05
6.48801e-05
6.45653e-05
6.63425e-05
6.88717e-05
7.1276e-05
7.35605e-05
7.53559e-05
7.68601e-05
7.79232e-05
7.87068e-05
7.91446e-05
7.93644e-05
7.93241e-05
7.91555e-05
7.86905e-05
7.82942e-05
7.74111e-05
7.71384e-05
7.52592e-05
7.63559e-05
7.19999e-05
7.76638e-05
7.1866e-05
1
0.941064
0.699321
0.545528
0.43995
0.360299
0.295338
0.239057
0.188072
0.140403
0.0949886
0.0523481
0.0223614
0.0101538
0.00512464
0.000130537
0.000124116
0.00130962
0.00140312
0.00124586
0.00115425
0.00109011
0.00102242
0.000954735
0.000890401
0.00082909
0.000770104
0.000713346
0.000659148
0.000607611
0.000558736
0.000512535
0.000469223
0.000428684
0.000391034
0.000356098
0.000323716
0.000293796
0.000266081
0.000240518
0.000217058
0.000195169
0.000175123
0.000156587
0.000139389
0.000123727
0.000108955
9.58762e-05
8.44459e-05
7.50458e-05
6.85754e-05
6.57424e-05
6.56501e-05
6.73032e-05
6.9566e-05
7.18312e-05
7.38131e-05
7.54258e-05
7.67296e-05
7.76526e-05
7.83044e-05
7.86384e-05
7.87728e-05
7.86689e-05
7.84411e-05
7.79515e-05
7.75076e-05
7.66007e-05
7.63654e-05
7.43959e-05
7.56677e-05
7.09955e-05
7.71509e-05
7.1138e-05
1
1
0.912676
0.695451
0.553113
0.45077
0.37102
0.304721
0.246783
0.194202
0.145172
0.098695
0.055488
0.0239271
0.0104224
0.00578743
2.91146e-05
5.32818e-07
0.0011547
0.00134037
0.00119775
0.00108571
0.00102164
0.000959855
0.000894356
0.00083121
0.000771776
0.000714951
0.000660524
0.000608622
0.000559438
0.000512961
0.000469397
0.000428616
0.000390723
0.000355583
0.000323018
0.000292933
0.000265074
0.000239391
0.000215806
0.000193831
0.000173729
0.000155157
0.000137984
0.000122368
0.000107747
9.49117e-05
8.38297e-05
7.48963e-05
6.90194e-05
6.65272e-05
6.65352e-05
6.80385e-05
7.00626e-05
7.21402e-05
7.3877e-05
7.53247e-05
7.64503e-05
7.72563e-05
7.77821e-05
7.80471e-05
7.81068e-05
7.7945e-05
7.76832e-05
7.71575e-05
7.67123e-05
7.57759e-05
7.55888e-05
7.35296e-05
7.49963e-05
7.0001e-05
7.66591e-05
7.04375e-05
1
1
1
0.906079
0.70363
0.566307
0.464563
0.383678
0.315739
0.256171
0.202186
0.152049
0.104779
0.0610022
0.0272518
0.0117418
0.0067212
0.00114132
0.000301921
0.000804934
0.00124791
0.00117275
0.00103058
0.000951773
0.000895908
0.000836392
0.000775115
0.000716769
0.000662104
0.000610211
0.000560776
0.000513909
0.000469964
0.000428884
0.000390728
0.000355355
0.000322583
0.000292313
0.000264299
0.000238486
0.000214781
0.000192722
0.000172567
0.000153972
0.000136834
0.000121296
0.000106854
9.42779e-05
8.35493e-05
7.51012e-05
6.96806e-05
6.74208e-05
6.7419e-05
6.873e-05
7.05139e-05
7.23532e-05
7.38689e-05
7.51458e-05
7.61104e-05
7.67991e-05
7.72167e-05
7.74087e-05
7.74052e-05
7.71929e-05
7.6903e-05
7.63484e-05
7.59095e-05
7.49488e-05
7.48119e-05
7.26682e-05
7.43305e-05
6.90228e-05
7.6172e-05
6.97657e-05
1
1
1
1
0.924956
0.725497
0.587331
0.483345
0.399986
0.329807
0.268394
0.212996
0.161849
0.113876
0.0694297
0.033256
0.0137364
0.00401688
0.00179044
0.000190745
0.000210048
0.00100028
0.00113503
0.00100434
0.000892397
0.000830098
0.000778631
0.00072257
0.000665717
0.000612134
0.000562273
0.000515345
0.000471142
0.000429653
0.000391099
0.000355416
0.000322417
0.000291956
0.000263783
0.000237823
0.00021399
0.00019185
0.000171648
0.00015304
0.000135952
0.000120516
0.000106272
9.39858e-05
8.36231e-05
7.56327e-05
7.05726e-05
6.84434e-05
6.83524e-05
6.94295e-05
7.09595e-05
7.25417e-05
7.38433e-05
7.49426e-05
7.5756e-05
7.63233e-05
7.6647e-05
7.67582e-05
7.66981e-05
7.64428e-05
7.61237e-05
7.55515e-05
7.5113e-05
7.41342e-05
7.40473e-05
7.18265e-05
7.36737e-05
6.80706e-05
7.56905e-05
6.91216e-05
1
1
1
1
1
0.971569
0.763331
0.618352
0.509027
0.421542
0.348237
0.284526
0.227509
0.175266
0.126561
0.0813388
0.0427839
0.0185531
0.0047091
0.00391715
4.58392e-05
0.000253793
0.000606801
0.000998008
0.000987613
0.0008599
0.000768517
0.000714913
0.000668411
0.000617811
0.000566174
0.000517341
0.000472389
0.000430737
0.000391988
0.000355967
0.00032261
0.000291866
0.000263509
0.000237409
0.000213449
0.000191232
0.000170982
0.000152359
0.000135335
0.000120011
0.000105988
9.39926e-05
8.40004e-05
7.63965e-05
7.16193e-05
6.95272e-05
6.92982e-05
7.01113e-05
7.13751e-05
7.27044e-05
7.37944e-05
7.47192e-05
7.53854e-05
7.58364e-05
7.60689e-05
7.61045e-05
7.59915e-05
7.56997e-05
7.53543e-05
7.47687e-05
7.43308e-05
7.33382e-05
7.33011e-05
7.10121e-05
7.30318e-05
6.71499e-05
7.5219e-05
6.85024e-05
1
1
1
1
1
1
1
0.82155
0.662585
0.544024
0.450193
0.372465
0.305685
0.246584
0.192982
0.143394
0.0972934
0.0566984
0.0264306
0.00920594
0.00659923
0.00111792
0.000129002
0.000257513
0.000663618
0.000911717
0.000869873
0.000747697
0.000661211
0.000609998
0.000567509
0.000522556
0.000476489
0.000432737
0.000392829
0.000356513
0.000323101
0.000292202
0.000263604
0.000237271
0.000213137
0.000190849
0.000170567
0.000151944
0.000134991
0.000119779
0.000105991
9.42771e-05
8.46373e-05
7.73518e-05
7.27743e-05
7.06446e-05
7.0234e-05
7.07671e-05
7.1755e-05
7.28368e-05
7.37164e-05
7.44713e-05
7.49938e-05
7.53348e-05
7.54776e-05
7.54466e-05
7.52841e-05
7.49593e-05
7.45934e-05
7.39958e-05
7.35631e-05
7.25601e-05
7.25718e-05
7.02242e-05
7.24035e-05
6.62626e-05
7.47565e-05
6.79038e-05
0.823232
1
1
1
1
1
1
1
0.908588
0.725218
0.591808
0.488392
0.404269
0.333177
0.271204
0.215737
0.164949
0.11794
0.0754975
0.0402647
0.0175375
0.00383234
0.00423765
0
0.000141932
6.81389e-05
0.000596968
0.000793738
0.000755667
0.000649039
0.000565198
0.000514173
0.000475484
0.000436941
0.000397229
0.000358932
0.000323902
0.00029239
0.00026376
0.000237455
0.000213217
0.000190791
0.000170397
0.000151756
0.000134897
0.000119825
0.00010629
9.48364e-05
8.55201e-05
7.84878e-05
7.40457e-05
7.1808e-05
7.1186e-05
7.14192e-05
7.21311e-05
7.29547e-05
7.36306e-05
7.42114e-05
7.45958e-05
7.48265e-05
7.48827e-05
7.47891e-05
7.45801e-05
7.42231e-05
7.384e-05
7.32336e-05
7.28091e-05
7.17998e-05
7.18559e-05
6.94602e-05
7.17837e-05
6.54088e-05
7.42994e-05
6.732e-05
0.655006
0.740697
1
1
1
1
1
1
1
1
0.815126
0.657818
0.539695
0.446078
0.368723
0.302599
0.244414
0.191911