/*--------------------------------*- C++ -*----------------------------------*\
| =========                 |                                                 |
| \\      /  F ield         | OpenFOAM: The Open Source CFD Toolbox           |
|  \\    /   O peration     | Version:  2312                                  |
|   \\  /    A nd           | Website:  www.openfoam.com                      |
|    \\/     M anipulation  |                                                 |
\*---------------------------------------------------------------------------*/
FoamFile
{
    version     2.0;
    format      ascii;
    arch        "LSB;label=32;scalar=64";
    class       volSymmTensorField;
    location    "800";
    object      turbulenceProperties:devReff;
}
// * * * * * * * * * * * * * * * * * * * * * * * * * * * * * * * * * * * * * //

dimensions      [0 2 -2 0 0 0 0];

internalField   nonuniform List<symmTensor> 
11040
(
(0.0180281 0.0949892 -1.72124e-22 -0.0279941 1.17029e-20 0.00996594)
(0.0672784 0.087835 9.63046e-21 -0.0801616 1.35796e-19 0.0128833)
(0.0124198 0.00980014 -2.97738e-20 -0.0109134 9.25166e-20 -0.00150643)
(-0.00496304 0.0107634 -7.08692e-20 0.00541374 4.02218e-20 -0.000450705)
(-0.0691554 0.0486614 -2.24392e-20 0.0693701 2.00859e-19 -0.000214692)
(-0.0629079 0.0599939 -3.07476e-19 0.0636044 1.12109e-19 -0.000696444)
(-0.0532674 0.0629991 1.76518e-19 0.0535161 -1.1595e-18 -0.000248703)
(-0.0434973 0.0613857 2.4596e-19 0.0436207 -1.70085e-19 -0.000123458)
(-0.0346583 0.0579948 1.05736e-19 0.0347331 -3.06379e-20 -7.47823e-05)
(-0.0284084 0.0559506 9.86595e-20 0.0283875 1.56771e-19 2.09352e-05)
(-0.023212 0.0533297 -8.75565e-20 0.023205 3.73188e-19 7.07545e-06)
(-0.0188369 0.0507978 -1.31061e-19 0.0188005 2.8172e-19 3.63505e-05)
(-0.0151681 0.0485583 2.19134e-20 0.0151017 -1.61687e-19 6.64643e-05)
(-0.0121373 0.0467528 2.72761e-20 0.012072 1.58774e-19 6.53378e-05)
(-0.00948 0.0452391 -1.22831e-20 0.0093907 1.18435e-20 8.9296e-05)
(-0.0072428 0.0445473 -4.65286e-21 0.007146 -2.04742e-19 9.67996e-05)
(-0.00525123 0.0447002 5.65479e-20 0.0051391 -6.72444e-22 0.00011213)
(-0.00338104 0.0457922 -5.56938e-21 0.00325349 3.71943e-19 0.000127554)
(-0.00149867 0.0476759 -3.20028e-20 0.00135655 3.26772e-21 0.000142123)
(0.000503521 0.050309 5.18812e-21 -0.000664787 -5.40333e-20 0.000161266)
(0.00273048 0.0537723 2.44716e-20 -0.00290029 4.12802e-20 0.000169811)
(0.00504745 0.0579639 -2.68139e-20 -0.0052177 1.2473e-19 0.000170242)
(0.00730084 0.0629066 1.06592e-21 -0.00748445 -1.02604e-19 0.000183611)
(0.00970829 0.0686657 1.37235e-20 -0.0099034 2.64023e-19 0.000195109)
(0.0123885 0.0752535 -8.00806e-20 -0.0125791 -2.3747e-19 0.000190651)
(0.0154024 0.0829665 -4.2777e-20 -0.0155761 -5.54799e-19 0.000173684)
(0.0187321 0.0915407 1.16109e-20 -0.0188762 -2.58292e-19 0.000144058)
(0.0221116 0.0997401 3.46427e-20 -0.0222108 7.38574e-20 9.9171e-05)
(0.0253156 0.106836 -2.33272e-20 -0.0253507 -2.10966e-19 3.50554e-05)
(0.0280323 0.111995 1.42712e-20 -0.0279887 -4.92641e-19 -4.36356e-05)
(0.0299212 0.114341 1.25146e-19 -0.0297976 3.53871e-19 -0.000123583)
(0.0307405 0.113108 2.05949e-20 -0.0305387 -2.93481e-20 -0.000201877)
(0.0304293 0.108518 1.08008e-19 -0.0301484 9.94603e-19 -0.000280863)
(0.0292125 0.102094 -9.40207e-20 -0.0288376 6.07456e-19 -0.000374878)
(0.027728 0.0967135 4.72577e-20 -0.0271792 1.07702e-20 -0.00054881)
(0.021554 0.0777647 1.32634e-19 -0.0208751 9.49082e-19 -0.000678883)
(0.0102308 0.0415268 8.35373e-21 -0.00967333 1.84563e-19 -0.00055752)
(0.00397236 0.0260902 -4.24741e-20 -0.00314604 5.42355e-19 -0.000826318)
(-0.00526115 0.0099704 -4.50118e-19 0.005669 -1.16723e-18 -0.000407854)
(-0.0158259 -0.0282375 -9.74906e-22 0.0172238 -9.89016e-19 -0.00139794)
(-0.0596752 -0.0188134 2.08173e-19 0.0666716 5.58609e-20 -0.00699632)
(0.00577579 -0.00597845 5.90594e-22 -0.00414299 -1.72489e-21 -0.0016328)
(0.0169151 0.00174297 2.62213e-20 -0.0101716 5.07897e-21 -0.00674353)
(0.0524346 0.0322632 5.74185e-20 -0.0539819 -3.02912e-19 0.00154733)
(0.123509 0.0326095 7.85912e-20 -0.124241 -1.78146e-19 0.000731353)
(0.248129 -0.0213114 8.32929e-20 -0.247647 -4.96333e-19 -0.000481797)
(0.0674821 -0.049194 5.69761e-19 -0.0669642 -1.21006e-18 -0.000517962)
(0.0178952 -0.0191798 -8.30492e-19 -0.0169626 3.25489e-18 -0.000932591)
(0.00439384 -0.00775942 -8.35782e-19 -0.00457019 2.157e-18 0.000176352)
(0.000364491 -0.00233062 -7.5479e-20 -0.000478047 -1.55178e-19 0.000113556)
(-0.00122716 0.00121887 -1.04487e-19 0.00111506 4.05435e-20 0.000112094)
(-0.00218985 0.00354016 4.63252e-19 0.00221295 -1.16446e-18 -2.31028e-05)
(-0.00243619 0.00498679 -1.98555e-21 0.00253892 -7.54214e-20 -0.000102731)
(-0.00228106 0.00607368 -1.67552e-19 0.00238034 6.85639e-19 -9.9282e-05)
(-0.00208399 0.00683046 -1.13925e-19 0.00223783 3.26258e-20 -0.000153839)
(-0.00173087 0.00737716 -4.49035e-20 0.00189583 -1.72504e-19 -0.000164955)
(-0.00136153 0.00787123 1.07182e-20 0.00155154 5.92173e-19 -0.000190011)
(-0.000982573 0.00843612 -1.46735e-20 0.00119595 1.97646e-19 -0.000213372)
(-0.000577711 0.0090841 -9.17463e-21 0.00081359 -5.5268e-19 -0.000235879)
(-0.000137383 0.00972991 -2.37657e-20 0.000400795 -2.55831e-20 -0.000263412)
(0.000358889 0.0103701 -7.41352e-21 -7.81946e-05 8.25085e-20 -0.000280694)
(0.000917563 0.0110173 -1.1007e-20 -0.000626989 -1.51389e-20 -0.000290574)
(0.00151275 0.0117017 3.12949e-20 -0.00121369 -2.77091e-19 -0.000299052)
(0.00205083 0.0122389 2.39072e-20 -0.0017334 3.90143e-19 -0.000317431)
(0.00249595 0.0124226 -4.68918e-20 -0.00217442 -3.55768e-19 -0.000321525)
(0.0028069 0.0122012 -6.55714e-21 -0.00250571 2.88542e-19 -0.000301184)
(0.00300422 0.0118127 7.51337e-20 -0.00274079 9.32427e-19 -0.000263428)
(0.00309487 0.011368 1.40394e-19 -0.00288271 5.14962e-19 -0.000212154)
(0.00296215 0.0106006 -3.45527e-20 -0.00282959 1.42969e-19 -0.00013256)
(0.00255878 0.00953448 -9.22969e-20 -0.00254336 2.8472e-19 -1.54257e-05)
(0.00188765 0.00833776 4.49174e-20 -0.0020224 5.06351e-19 0.000134748)
(0.00100917 0.00736645 -1.11392e-19 -0.00130478 -7.71195e-19 0.000295616)
(-0.000125371 0.00707925 -5.56197e-20 -0.000346082 -1.26008e-18 0.000471454)
(-0.0018117 0.00693165 -1.28603e-19 0.00113594 -2.62724e-18 0.000675758)
(-0.00404929 0.00701793 7.17195e-20 0.00315256 -1.30032e-18 0.000896732)
(-0.00688612 0.00739524 -9.41888e-20 0.00567149 1.21358e-19 0.00121463)
(-0.010397 0.00813715 -4.36576e-19 0.00866253 -3.98722e-18 0.00173452)
(-0.0145695 0.00971454 -7.01699e-20 0.0123239 -3.4818e-19 0.00224557)
(-0.0193645 0.0123392 -5.0462e-19 0.0176 -2.37989e-18 0.00176454)
(-0.0336486 0.0158749 1.25111e-18 0.0298117 5.42206e-18 0.00383691)
(-0.0260642 0.0305653 8.25165e-19 0.0287339 4.89524e-18 -0.00266965)
(-0.122976 -0.113501 -4.02076e-19 0.0753442 -6.74715e-19 0.0476314)
(0.00213498 -0.00416771 -5.30964e-22 -0.00240022 -7.6553e-22 0.000265233)
(-0.000396917 -0.00399183 -1.02214e-20 0.000542218 -2.61671e-20 -0.000145301)
(0.00865282 0.0047548 2.08438e-20 -0.00813617 1.0359e-19 -0.000516655)
(0.0439426 0.0189119 6.08005e-20 -0.04467 9.39526e-20 0.00072743)
(0.284154 0.0490702 -7.67034e-21 -0.286434 -3.82643e-20 0.00228001)
(0.385149 -0.0352271 -3.06474e-19 -0.38356 1.20217e-18 -0.00158908)
(0.174927 -0.0983858 2.5743e-20 -0.174201 1.00986e-20 -0.000725354)
(0.0545923 -0.054393 9.5455e-20 -0.0509366 -2.47862e-18 -0.00365562)
(0.0216824 -0.0287713 -1.69224e-19 -0.0212165 2.5903e-20 -0.000465917)
(0.012003 -0.0178061 2.42274e-19 -0.0122289 -7.07391e-19 0.000225885)
(0.00598654 -0.0106177 -4.46109e-19 -0.00608182 1.0527e-18 9.52769e-05)
(0.00292334 -0.00641016 7.76122e-19 -0.00290494 -2.11239e-18 -1.83943e-05)
(0.00152595 -0.00310894 -4.02536e-20 -0.0015851 -7.01283e-20 5.91565e-05)
(0.00068093 -0.000857485 1.5704e-19 -0.000684667 -9.25781e-19 3.73736e-06)
(0.000450971 0.000756088 2.48459e-20 -0.000493679 9.69167e-19 4.27076e-05)
(0.000432654 0.00193465 -8.04297e-20 -0.00046722 -3.70486e-19 3.45659e-05)
(0.000580256 0.00272833 -3.43714e-21 -0.000616047 -6.24353e-19 3.57908e-05)
(0.000821753 0.00328815 4.27549e-20 -0.000858935 -4.46535e-19 3.7182e-05)
(0.00109835 0.00366857 1.99378e-20 -0.00112661 -2.53325e-20 2.82605e-05)
(0.00141269 0.00388241 2.65357e-20 -0.00143954 2.82304e-20 2.68489e-05)
(0.00174254 0.00396506 2.78348e-21 -0.00176351 8.5569e-20 2.0971e-05)
(0.0021062 0.00389449 -4.51674e-20 -0.00213271 1.3614e-19 2.65033e-05)
(0.00244125 0.003555 -3.80032e-20 -0.00246989 -4.49229e-19 2.86439e-05)
(0.00267066 0.00290487 -4.03302e-20 -0.00269607 -1.80287e-19 2.54135e-05)
(0.00273195 0.00204703 8.42602e-20 -0.00274668 -2.83265e-19 1.47322e-05)
(0.00259808 0.00112538 -1.46715e-20 -0.00259881 -2.64817e-19 7.24571e-07)
(0.00223057 0.0002755 -2.30163e-19 -0.00221085 2.68866e-19 -1.97184e-05)
(0.00156303 -0.000372279 -7.90853e-20 -0.00151351 -1.08522e-18 -4.9516e-05)
(0.000533281 -0.000634349 1.939e-19 -0.000444448 2.68122e-19 -8.88329e-05)
(-0.00093558 -0.00038804 2.64409e-19 0.00106406 1.12433e-18 -0.000128483)
(-0.00302165 0.00025538 -1.87774e-19 0.00317834 6.31488e-19 -0.000156694)
(-0.00607849 0.00092997 4.34644e-19 0.00625482 2.61413e-18 -0.000176326)
(-0.0101381 0.00227073 1.81328e-19 0.0103244 8.06688e-19 -0.000186371)
(-0.0152254 0.00448413 -4.02327e-19 0.0153954 9.05897e-19 -0.000169964)
(-0.0214682 0.00772605 -4.80571e-19 0.0215687 -9.55404e-19 -0.000100527)
(-0.0291954 0.0123244 3.27233e-19 0.0290473 1.99954e-18 0.000148101)
(-0.0384201 0.0190273 3.03009e-19 0.0378938 -2.1034e-18 0.000526331)
(-0.0476994 0.0278984 5.31517e-19 0.0479383 1.91625e-18 -0.000238976)
(-0.0750628 0.0386047 -4.33124e-19 0.0712486 -9.55799e-19 0.00381419)
(-0.0644017 0.085307 2.02438e-20 0.070298 -5.07066e-19 -0.00589631)
(-0.159666 0.00704389 4.44123e-19 0.158055 1.69696e-18 0.00161074)
(0.0019806 -0.00265005 -1.52596e-22 -0.00208223 -7.12754e-22 0.000101629)
(-0.000274517 -0.00294267 -3.98471e-22 8.48112e-05 2.84169e-21 0.000189705)
(-0.000861763 -0.00212165 -1.49638e-20 0.000842589 -3.43559e-20 1.91743e-05)
(0.00326576 0.00146482 -2.00286e-20 -0.00316681 -3.92814e-20 -9.89506e-05)
(0.0643109 0.0212177 3.97768e-20 -0.064824 4.71146e-20 0.000513122)
(0.328806 0.0432971 2.44807e-19 -0.332549 8.78179e-21 0.00374344)
(0.49527 -0.045214 2.58688e-19 -0.493357 -1.40267e-18 -0.00191286)
(0.301962 -0.138442 9.0928e-19 -0.306188 -1.42208e-18 0.00422561)
(0.105003 -0.0952283 -4.13492e-19 -0.0989272 1.2344e-18 -0.00607614)
(0.0485485 -0.0581713 2.33258e-19 -0.0470059 4.02426e-19 -0.0015426)
(0.0262661 -0.03627 -3.56237e-19 -0.0262173 1.13236e-18 -4.87712e-05)
(0.0153688 -0.0259801 -5.85065e-19 -0.0154081 1.27209e-18 3.9311e-05)
(0.00976671 -0.0188852 4.69493e-19 -0.00986723 -9.60309e-19 0.000100525)
(0.00619197 -0.0138894 -1.18924e-19 -0.00612397 9.45229e-19 -6.79935e-05)
(0.00439744 -0.0104736 -2.02114e-19 -0.00437866 -1.06663e-18 -1.87834e-05)
(0.00337135 -0.00796855 -1.13374e-19 -0.00334014 -4.60875e-19 -3.12079e-05)
(0.00287145 -0.00636817 5.41469e-20 -0.00284698 2.27543e-19 -2.44702e-05)
(0.0026735 -0.00525942 1.1599e-19 -0.0026639 1.32424e-20 -9.60071e-06)
(0.00260283 -0.00461727 3.14713e-20 -0.00259118 5.41111e-20 -1.16512e-05)
(0.00263165 -0.00434528 -1.22858e-20 -0.00263364 -7.79261e-20 1.99008e-06)
(0.00267822 -0.00436731 -2.76472e-20 -0.00267674 -1.98367e-19 -1.48441e-06)
(0.00280416 -0.00463133 2.68517e-20 -0.00280343 -2.82561e-19 -7.23725e-07)
(0.00299832 -0.00519289 2.33645e-20 -0.00300254 -1.28038e-19 4.22215e-06)
(0.00313987 -0.00605631 8.77104e-21 -0.00315072 1.18816e-19 1.08539e-05)
(0.00312368 -0.00703911 -6.91612e-20 -0.0031338 7.14258e-19 1.01186e-05)
(0.00288704 -0.00796392 2.54209e-19 -0.00289638 -8.13943e-19 9.33638e-06)
(0.00233189 -0.00869443 1.82137e-19 -0.00234247 -6.26566e-19 1.05774e-05)
(0.00131142 -0.00909779 2.00276e-19 -0.0013251 1.53145e-18 1.3685e-05)
(-0.000360561 -0.00903542 -6.37478e-20 0.000344236 4.07906e-19 1.6325e-05)
(-0.00291676 -0.00840525 -5.60417e-19 0.00289715 -5.97271e-19 1.96019e-05)
(-0.00663672 -0.00711948 1.79428e-19 0.00661267 -1.08235e-18 2.40483e-05)
(-0.0118 -0.00497526 -4.51744e-19 0.0117718 6.58758e-19 2.82868e-05)
(-0.0185709 -0.00148749 4.01218e-19 0.0185351 -5.58476e-19 3.57968e-05)
(-0.0271052 0.00365253 4.54828e-19 0.0270739 -1.42009e-18 3.13218e-05)
(-0.0376147 0.010748 4.47869e-19 0.0376089 8.27805e-19 5.76992e-06)
(-0.0507055 0.0202925 4.78284e-19 0.0506044 1.79251e-18 0.000101128)
(-0.0664546 0.0335951 3.88644e-19 0.0661478 1.88277e-18 0.000306843)
(-0.0816747 0.0516792 -5.8123e-19 0.0829064 -2.34544e-18 -0.0012317)
(-0.120791 0.0710953 3.29639e-20 0.116632 -8.17475e-19 0.00415907)
(-0.110215 0.153268 -2.08169e-19 0.118407 -1.69348e-18 -0.0081929)
(-0.149273 0.0889998 -4.81622e-19 0.145058 -8.11642e-19 0.00421505)
(0.00155621 -0.0019657 1.39106e-21 -0.00154619 3.34557e-21 -1.00189e-05)
(0.000435563 -0.00224418 -2.27381e-21 -0.000381639 -4.49258e-21 -5.39235e-05)
(-0.000691806 -0.00229142 1.15329e-20 0.000696687 2.34438e-20 -4.88024e-06)
(-0.000534682 -0.00110491 1.46627e-20 0.000554025 2.57823e-20 -1.93431e-05)
(0.00161063 0.000475892 -1.49152e-20 -0.00157014 -2.2166e-20 -4.04819e-05)
(0.0592036 0.0154187 3.46158e-20 -0.0593626 -1.13424e-20 0.000158962)
(0.312851 0.0303956 -7.3667e-20 -0.316385 -9.04383e-21 0.00353431)
(0.558724 -0.04765 -2.55157e-19 -0.556548 3.19403e-19 -0.00217649)
(0.448484 -0.169015 4.06207e-19 -0.454821 -1.82809e-19 0.00633735)
(0.189681 -0.15354 9.41942e-21 -0.186572 1.81276e-19 -0.00310872)
(0.0862168 -0.0969116 3.63843e-19 -0.0815221 -2.36009e-18 -0.00469469)
(0.0465523 -0.062531 -2.59603e-19 -0.0459542 4.00713e-19 -0.000598107)
(0.0286882 -0.0454914 -2.93516e-19 -0.0290775 2.34561e-19 0.000389241)
(0.0182123 -0.034434 3.39815e-19 -0.018298 -2.33995e-18 8.56926e-05)
(0.0123641 -0.0276659 2.69549e-19 -0.012388 1.34447e-19 2.39602e-05)
(0.00890186 -0.0224882 1.70228e-19 -0.00887909 1.78956e-19 -2.27667e-05)
(0.00689633 -0.0192559 -1.58428e-19 -0.00686423 6.34737e-19 -3.21029e-05)
(0.00575847 -0.0170175 -1.03949e-20 -0.00574801 1.39312e-19 -1.04594e-05)
(0.00501151 -0.0157155 3.71946e-20 -0.00498848 -6.76679e-20 -2.30367e-05)
(0.00455873 -0.0150975 4.80802e-20 -0.00455368 5.03116e-20 -5.04977e-06)
(0.00421147 -0.0149315 -1.01764e-20 -0.00419799 2.33753e-19 -1.34807e-05)
(0.0040741 -0.0150726 -9.02796e-20 -0.00405959 2.31327e-19 -1.45123e-05)
(0.00415167 -0.0155507 1.23798e-19 -0.0041357 1.77117e-19 -1.59708e-05)
(0.00426583 -0.0163878 1.52878e-19 -0.00425611 4.05523e-19 -9.71994e-06)
(0.00424387 -0.0173776 -1.79519e-19 -0.00423659 -9.94761e-20 -7.27461e-06)
(0.00394694 -0.0183325 -1.34619e-19 -0.00394243 2.05906e-18 -4.50448e-06)
(0.0031861 -0.0190767 8.31016e-20 -0.00318437 -3.16191e-20 -1.73e-06)
(0.00170954 -0.0194064 -2.97387e-19 -0.00171164 -8.37946e-19 2.0988e-06)
(-0.000791634 -0.019094 -5.06398e-19 0.000785001 -1.6163e-18 6.63312e-06)
(-0.00466807 -0.0178804 3.67951e-19 0.00465483 -6.65331e-19 1.32361e-05)
(-0.0102856 -0.0154388 1.22641e-19 0.0102658 1.77168e-18 1.98082e-05)
(-0.0179854 -0.011346 2.64984e-19 0.0179592 -1.07179e-18 2.61977e-05)
(-0.0280625 -0.00508172 -2.36947e-19 0.028022 2.98231e-18 4.04915e-05)
(-0.0407543 0.00385692 -9.06045e-19 0.0407128 1.47609e-19 4.15308e-05)
(-0.056303 0.0159733 -3.39763e-19 0.0562954 6.24197e-19 7.61654e-06)
(-0.0754632 0.0319794 -4.62484e-19 0.0753274 7.46317e-19 0.000135787)
(-0.0982316 0.0538883 -6.52932e-20 0.0978169 -3.7304e-20 0.000414679)
(-0.119588 0.0843712 2.30605e-20 0.121278 7.4281e-20 -0.00168912)
(-0.165299 0.114766 -2.93836e-20 0.160206 1.62572e-18 0.00509287)
(-0.161492 0.225055 -1.96401e-20 0.171885 -1.12217e-18 -0.0103929)
(-0.14869 0.174222 6.2089e-19 0.142138 -7.50047e-19 0.00655162)
(0.00118667 -0.00136443 -1.38643e-21 -0.001196 -2.35791e-21 9.33296e-06)
(0.000455408 -0.00159836 7.09585e-21 -0.000439719 1.15957e-20 -1.56892e-05)
(-0.000185943 -0.00161479 -3.59961e-21 0.000195816 -7.87303e-21 -9.87313e-06)
(-0.00078824 -0.00158891 -3.29491e-21 0.000779927 -8.81741e-21 8.31244e-06)
(-0.000412641 -0.00065333 2.06861e-21 0.000415925 4.98559e-21 -3.2841e-06)
(0.000705131 8.17612e-05 -1.84702e-21 -0.000684277 -1.82498e-21 -2.08547e-05)
(0.04051 0.00801587 -2.47383e-20 -0.0404219 -2.54355e-20 -8.80191e-05)
(0.250928 0.0180232 -8.04772e-20 -0.252971 9.93843e-20 0.00204343)
(0.565305 -0.0458351 -1.69151e-19 -0.565358 -1.62738e-19 5.34472e-05)
(0.585105 -0.180333 -3.71098e-19 -0.588488 -9.70907e-19 0.00338232)
(0.328288 -0.223235 3.76333e-19 -0.334422 5.6201e-19 0.00613473)
(0.143112 -0.149176 6.05442e-19 -0.135164 -8.32299e-19 -0.00794831)
(0.0768479 -0.101767 -8.10844e-19 -0.0741208 6.25232e-19 -0.00272706)
(0.046936 -0.0712635 3.54012e-19 -0.0468944 1.08594e-18 -4.15563e-05)
(0.0299709 -0.0556631 1.85937e-20 -0.0303374 4.79222e-19 0.000366468)
(0.0202557 -0.0446536 -2.29072e-19 -0.0204069 -8.61341e-20 0.000151284)
(0.0144718 -0.0380082 1.61058e-19 -0.0144347 -9.01013e-19 -3.71282e-05)
(0.0111477 -0.0333968 -3.43316e-20 -0.0111374 5.86114e-19 -1.03402e-05)
(0.0089701 -0.0305536 7.07663e-20 -0.00893555 -1.11462e-19 -3.45505e-05)
(0.00763409 -0.0290389 4.70236e-20 -0.00763775 2.04215e-19 3.65845e-06)
(0.00668038 -0.0283451 -6.33023e-20 -0.00667015 -2.945e-19 -1.0236e-05)
(0.00620864 -0.0281746 2.99667e-20 -0.00620473 1.19697e-20 -3.91337e-06)
(0.00616838 -0.0284953 1.42928e-20 -0.00616046 1.01981e-19 -7.91977e-06)
(0.0062857 -0.0293415 -2.97429e-19 -0.00628215 -3.42689e-19 -3.54682e-06)
(0.00630109 -0.0304538 3.22739e-19 -0.00629682 -8.06156e-19 -4.2788e-06)
(0.00598287 -0.0315954 4.54307e-20 -0.00597816 -4.32114e-19 -4.70459e-06)
(0.00504241 -0.0325027 -5.38681e-19 -0.00503786 -4.32962e-19 -4.55443e-06)
(0.00310861 -0.0328407 5.20825e-20 -0.00310485 -9.76061e-19 -3.75966e-06)
(-0.000259718 -0.0322164 8.5046e-19 0.000260776 -1.19096e-19 -1.05763e-06)
(-0.00554201 -0.0301773 3.3909e-19 0.00553567 1.42853e-18 6.3427e-06)
(-0.0132218 -0.0261753 -4.13858e-19 0.0132074 -7.81395e-19 1.4429e-05)
(-0.02375 -0.0195902 -4.97828e-19 0.0237306 6.40336e-19 1.94279e-05)
(-0.0375297 -0.00974124 -2.1369e-19 0.0374923 -3.17529e-18 3.73297e-05)
(-0.0548469 0.00412954 7.84707e-19 0.054806 -1.97901e-18 4.0877e-05)
(-0.0758972 0.0227804 6.30003e-19 0.0758968 -1.8024e-18 4.70264e-07)
(-0.101392 0.0471431 -1.38168e-19 0.101221 -6.26794e-20 0.000170764)
(-0.130964 0.0799128 1.3817e-19 0.130486 1.44998e-18 0.000478223)
(-0.157906 0.125148 3.78907e-20 0.159854 -8.18278e-19 -0.00194744)
(-0.204856 0.16929 -2.60291e-19 0.19919 7.54189e-19 0.00566606)
(-0.211034 0.296211 -5.53533e-19 0.222255 1.78176e-18 -0.0112209)
(-0.161471 0.267498 -5.16426e-19 0.154968 -8.93099e-19 0.00650312)
(0.000917422 -0.000929367 -3.34951e-22 -0.000923181 -6.16147e-22 5.75874e-06)
(0.000456492 -0.00116277 7.80668e-22 -0.000456641 9.12774e-22 1.48594e-07)
(2.89005e-05 -0.00117612 -3.69776e-21 -2.68258e-05 -4.92462e-21 -2.07471e-06)
(-0.000383412 -0.00118131 -5.67153e-21 0.000387383 -7.10264e-21 -3.97111e-06)
(-0.000718742 -0.00108163 -2.02848e-21 0.000714918 -2.36721e-21 3.82369e-06)
(-0.000392434 -0.000480234 4.99709e-21 0.000391322 6.91597e-21 1.11174e-06)
(0.000283746 -7.90966e-05 -1.39028e-21 -0.000272864 -2.10567e-21 -1.08812e-05)
(0.0186451 0.00247693 1.9948e-20 -0.018533 2.19542e-20 -0.000112151)
(0.16875 0.00800039 2.41517e-19 -0.169386 2.32463e-19 0.000635531)
(0.490634 -0.0397061 -1.71683e-19 -0.492766 3.90017e-19 0.00213277)
(0.670612 -0.165175 -2.71726e-19 -0.668666 6.51202e-19 -0.00194549)
(0.506336 -0.274757 2.75531e-19 -0.516631 -1.07191e-18 0.0102947)
(0.247513 -0.233031 4.40855e-19 -0.246821 1.32469e-18 -0.00069237)
(0.121613 -0.152929 -7.89265e-19 -0.113809 -2.98168e-19 -0.00780399)
(0.0716683 -0.108928 3.34638e-19 -0.070096 -1.3488e-18 -0.00157221)
(0.0467862 -0.083085 -2.23814e-19 -0.0471696 7.73873e-19 0.000383366)
(0.0311303 -0.0679421 1.38774e-19 -0.0314254 7.59972e-19 0.000295074)
(0.0219593 -0.057746 1.59129e-19 -0.0221214 3.91167e-19 0.000162118)
(0.016224 -0.05134 -8.29104e-20 -0.016174 3.45644e-19 -5.00261e-05)
(0.0128683 -0.0477426 9.26162e-21 -0.0128607 -1.00061e-18 -7.56751e-06)
(0.0106766 -0.0458572 2.17691e-20 -0.0106386 4.26916e-19 -3.79913e-05)
(0.00960089 -0.0450901 -1.31614e-19 -0.00958885 -8.5068e-21 -1.20326e-05)
(0.00935895 -0.0452016 1.23539e-19 -0.00934689 -4.80413e-19 -1.2066e-05)
(0.00948828 -0.0461593 2.05047e-19 -0.00948585 -7.1176e-20 -2.42894e-06)
(0.00960775 -0.0475681 -1.79193e-19 -0.00960741 1.03798e-18 -3.45879e-07)
(0.00936265 -0.049087 -3.25143e-19 -0.00936221 -9.11693e-19 -4.40889e-07)
(0.0083542 -0.050322 4.12481e-19 -0.00835335 -5.43977e-19 -8.51665e-07)
(0.00608341 -0.0507596 2.10102e-19 -0.006081 1.64373e-18 -2.40531e-06)
(0.00196075 -0.0497835 1.44528e-19 -0.00195912 1.80011e-18 -1.62682e-06)
(-0.00463958 -0.0467198 -2.04222e-19 0.00463422 -3.26942e-19 5.36373e-06)
(-0.0143372 -0.040769 -1.98318e-20 0.0143224 -1.18944e-18 1.47932e-05)
(-0.027697 -0.0310657 -4.0645e-19 0.0276781 -3.57111e-19 1.89061e-05)
(-0.0451962 -0.01669 -1.9348e-19 0.0451573 1.49475e-18 3.88989e-05)
(-0.0671138 0.0034044 9.54896e-20 0.067071 2.29543e-18 4.28227e-05)
(-0.0934886 0.0302419 1.35391e-18 0.093489 7.59072e-19 -3.93726e-07)
(-0.124719 0.0649061 2.18951e-19 0.124516 -8.47098e-19 0.000202225)
(-0.159739 0.110477 -1.58358e-18 0.159294 -7.42441e-19 0.000444566)
(-0.190752 0.171217 3.20954e-20 0.19267 -2.16294e-19 -0.00191759)
(-0.23433 0.231321 -2.34117e-20 0.228955 -1.87383e-18 0.00537561)
(-0.24878 0.363583 -1.34826e-19 0.258968 6.00099e-19 -0.010188)
(-0.179919 0.363627 4.33721e-19 0.176311 1.59786e-18 0.00360743)
(0.000696028 -0.000649755 -6.91522e-23 -0.000701967 -1.42764e-23 5.93867e-06)
(0.000423751 -0.000831828 -1.41762e-21 -0.000422663 -1.93132e-21 -1.08795e-06)
(0.00013482 -0.00090904 1.37226e-21 -0.000133224 1.86277e-21 -1.59617e-06)
(-0.000139347 -0.000873204 6.34335e-21 0.000142728 8.49584e-21 -3.3809e-06)
(-0.000415689 -0.000848482 1.19635e-21 0.000420905 1.66482e-21 -5.21602e-06)
(-0.000636203 -0.000775919 1.07983e-21 0.000635291 5.66803e-22 9.12422e-07)
(-0.000379654 -0.000377227 -7.65051e-21 0.000376881 -8.42882e-21 2.77259e-06)
(1.59961e-05 -0.000161501 -3.47427e-22 -1.17e-05 -2.36111e-22 -4.29613e-06)
(0.00505857 0.00020018 -1.08412e-20 -0.00500529 -1.5614e-20 -5.32873e-05)
(0.0911183 0.00162756 1.73967e-19 -0.0910905 1.96017e-19 -2.78074e-05)
(0.353211 -0.0284085 -2.79918e-19 -0.354704 -6.86872e-19 0.00149262)
(0.656461 -0.138435 -1.05848e-19 -0.65578 8.52378e-19 -0.000681306)
(0.668677 -0.280695 1.48578e-19 -0.672222 -1.02817e-18 0.0035444)
(0.418176 -0.322656 -3.53062e-19 -0.428672 -3.9321e-19 0.0104961)
(0.202444 -0.235873 9.37435e-19 -0.196589 -2.71049e-19 -0.0058546)
(0.109107 -0.161929 3.84994e-19 -0.102564 8.33977e-19 -0.00654386)
(0.0689301 -0.120449 -3.51598e-19 -0.0680208 5.16013e-19 -0.00090937)
(0.046494 -0.0975667 -3.82457e-19 -0.0471222 4.41306e-19 0.000628224)
(0.0319961 -0.0834219 -6.14497e-19 -0.0323061 -3.65542e-20 0.000309997)
(0.0231594 -0.0747232 4.80179e-19 -0.0233225 -6.10224e-19 0.000163073)
(0.0177057 -0.0697721 1.94109e-19 -0.0176436 8.44996e-19 -6.21141e-05)
(0.0150769 -0.0675777 -3.52443e-19 -0.0150337 -2.05697e-19 -4.31568e-05)
(0.0142315 -0.0671034 1.23299e-19 -0.0141841 3.54567e-19 -4.74854e-05)
(0.0142687 -0.068128 9.25983e-20 -0.0142394 2.35291e-19 -2.92596e-05)
(0.0145699 -0.0699733 1.738e-20 -0.0145541 -3.77198e-19 -1.57992e-05)
(0.0145815 -0.0721055 -2.36161e-20 -0.0145734 5.31143e-19 -8.05771e-06)
(0.0137604 -0.0739305 3.37775e-19 -0.0137621 1.38018e-18 1.65539e-06)
(0.0114648 -0.0746866 3.08573e-19 -0.0114732 -5.46717e-19 8.3925e-06)
(0.00693952 -0.0734256 -4.53916e-19 -0.00695139 3.90577e-20 1.18759e-05)
(-0.000586693 -0.0692252 -9.89278e-19 0.000569813 -1.14499e-18 1.68799e-05)
(-0.0118703 -0.0609883 2.51156e-19 0.0118439 7.13654e-20 2.63658e-05)
(-0.0275665 -0.0475438 5.67308e-19 0.0275361 -1.05788e-18 3.04056e-05)
(-0.0481736 -0.0276941 6.3248e-19 0.0481246 3.30083e-19 4.90449e-05)
(-0.0738838 -0.000122452 -4.26574e-19 0.0738314 -1.73003e-19 5.2459e-05)
(-0.104451 0.0363917 -7.72506e-19 0.104435 1.52605e-18 1.61376e-05)
(-0.13967 0.0829267 -6.08842e-19 0.139438 -1.4369e-18 0.000231123)
(-0.177538 0.142349 9.74124e-19 0.177186 -2.2495e-19 0.000352482)
(-0.209958 0.217626 2.62363e-20 0.211524 3.68872e-19 -0.00156582)
(-0.246443 0.293769 2.07332e-19 0.242271 -3.56074e-19 0.0041713)
(-0.263044 0.421215 -1.66669e-19 0.270109 -8.25392e-19 -0.00706491)
(-0.19261 0.448558 -4.57828e-19 0.193877 5.38721e-19 -0.00126732)
(0.000530759 -0.000461609 -2.22597e-22 -0.000534895 -7.56746e-23 4.13618e-06)
(0.000359368 -0.000595109 -1.193e-21 -0.000358721 -1.85467e-21 -6.47501e-07)
(0.000177686 -0.000673458 4.98698e-21 -0.000177325 5.67834e-21 -3.60052e-07)
(-1.49987e-05 -0.000690293 -6.67796e-22 1.49119e-05 -8.56998e-22 8.67916e-08)
(-0.000195212 -0.000636093 1.78199e-21 0.000196862 1.655e-21 -1.65041e-06)
(-0.000393631 -0.000618922 -1.60709e-21 0.000397997 -1.46105e-21 -4.36518e-06)
(-0.000511366 -0.000522847 3.91989e-21 0.000512553 5.25345e-21 -1.18682e-06)
(-0.000359603 -0.000299398 3.09621e-21 0.000357314 2.59191e-21 2.28923e-06)
(-0.000157597 -0.000194409 5.19132e-23 0.000157831 9.51681e-22 -2.33994e-07)
(0.000382624 -6.48852e-05 4.21844e-21 -0.000376957 3.73712e-21 -5.66756e-06)
(0.0350634 -0.000905567 -5.00417e-21 -0.0349189 5.40299e-21 -0.000144478)
(0.202802 -0.0177562 -3.21729e-19 -0.203118 -2.16482e-19 0.000316307)
(0.521017 -0.0993442 1.99339e-19 -0.5221 -3.95077e-19 0.00108315)
(0.734307 -0.24565 -4.86734e-19 -0.732476 9.3037e-19 -0.00183123)
(0.620755 -0.367739 -2.6029e-19 -0.629942 -9.33431e-19 0.00918633)
(0.354001 -0.348768 5.46675e-19 -0.361726 7.4163e-19 0.00772496)
(0.177579 -0.245535 3.41512e-19 -0.169305 -1.54938e-18 -0.0082738)
(0.101786 -0.175857 1.66042e-19 -0.0959607 5.77434e-19 -0.00582567)
(0.0673156 -0.137101 -7.37465e-19 -0.0667888 -1.12738e-18 -0.000526765)
(0.0461176 -0.116418 2.98637e-19 -0.0468992 1.19307e-18 0.000781587)
(0.0324289 -0.104619 7.47858e-20 -0.0327763 -8.78215e-19 0.000347472)
(0.0251597 -0.0988405 -3.28525e-19 -0.0252946 4.31394e-19 0.000134856)
(0.0221049 -0.0966783 2.46352e-19 -0.0220487 5.30742e-21 -5.62116e-05)
(0.0213573 -0.0972994 -4.17703e-20 -0.0212754 2.69188e-20 -8.18999e-05)
(0.0217032 -0.0995137 -8.94333e-20 -0.0216438 7.38369e-19 -5.94158e-05)
(0.0221531 -0.102313 1.09759e-19 -0.0221081 -1.76129e-19 -4.49237e-05)
(0.0219245 -0.104825 -7.65444e-19 -0.0218971 5.92123e-21 -2.74246e-05)
(0.0201988 -0.106058 -3.7558e-19 -0.0201886 1.91031e-19 -1.02575e-05)
(0.0160393 -0.104762 -1.94426e-19 -0.0160491 -1.22027e-18 9.80568e-06)
(0.00850276 -0.0995501 9.47053e-19 -0.00853898 1.00319e-19 3.62167e-05)
(-0.00328813 -0.0889412 1.59571e-19 0.00322256 8.18444e-19 6.55685e-05)
(-0.0200479 -0.0713789 2.91145e-19 0.0199687 9.04506e-19 7.91966e-05)
(-0.0422306 -0.0453849 -6.02784e-19 0.0421429 2.70164e-19 8.76615e-05)
(-0.0698405 -0.00948706 4.95323e-19 0.0697565 -1.20439e-18 8.40035e-05)
(-0.102233 0.0375526 2.81845e-19 0.102177 -1.42115e-19 5.60604e-05)
(-0.138393 0.0965329 1.01993e-18 0.138147 3.15278e-19 0.000245918)
(-0.175373 0.169284 -1.5012e-18 0.175118 4.73393e-19 0.000254144)
(-0.2055 0.256418 -1.26425e-19 0.206572 1.02214e-19 -0.0010724)
(-0.232308 0.344899 2.91235e-19 0.229845 4.59855e-19 0.0024634)
(-0.246081 0.460021 4.80126e-19 0.249378 1.00488e-20 -0.003297)
(-0.187029 0.504556 7.56525e-20 0.192968 -1.17896e-18 -0.00593915)
(0.000403549 -0.000331862 -8.75766e-22 -0.000406497 -1.01861e-21 2.94789e-06)
(0.000292141 -0.000428932 3.54751e-21 -0.000292235 3.70906e-21 9.47816e-08)
(0.000175473 -0.000492477 -8.30731e-22 -0.000175488 -7.38565e-22 1.45118e-08)
(4.85151e-05 -0.000526194 -6.52861e-21 -4.86661e-05 -6.89172e-21 1.51045e-07)
(-8.18468e-05 -0.000517938 -6.14262e-22 8.16407e-05 -8.20514e-22 2.06004e-07)
(-0.000201199 -0.000467369 6.45732e-21 0.000202036 6.91204e-21 -8.37055e-07)
(-0.000339181 -0.000442118 -1.65493e-21 0.000342203 -2.18396e-21 -3.02214e-06)
(-0.000399502 -0.000349957 -1.44831e-20 0.000401579 -1.44054e-20 -2.07616e-06)
(-0.000325663 -0.000230136 1.03983e-20 0.000324696 1.00486e-20 9.67727e-07)
(-0.000233354 -0.000176688 5.24222e-22 0.000231686 -5.04451e-22 1.66817e-06)
(0.000193575 -0.000351473 -1.4642e-21 -0.000187341 -2.41919e-21 -6.23439e-06)
(0.00752048 -0.000881837 -9.14769e-21 -0.00746008 -5.17692e-21 -6.04009e-05)
(0.0878485 -0.00958131 -1.90411e-19 -0.0877094 -1.2552e-19 -0.000139156)
(0.324402 -0.059027 1.73838e-19 -0.32499 -1.3332e-19 0.000587608)
(0.640089 -0.184672 -6.44063e-19 -0.639774 6.69517e-19 -0.000314846)
(0.755479 -0.342296 6.00804e-19 -0.754973 -3.96727e-19 -0.000505804)
(0.571444 -0.43064 -5.04079e-19 -0.583726 7.5521e-19 0.012282)
(0.316153 -0.373712 -1.09173e-19 -0.321436 -1.87352e-19 0.00528315)
(0.164381 -0.265278 -2.40639e-19 -0.155243 -3.57685e-19 -0.0091386)
(0.0973933 -0.197135 2.89279e-19 -0.0915517 -1.03838e-18 -0.00584159)
(0.0658066 -0.161673 4.54588e-19 -0.0653133 3.30274e-19 -0.000493278)
(0.0474903 -0.145229 -2.43289e-19 -0.048401 -9.99301e-19 0.00091075)
(0.0376786 -0.138063 -2.27719e-19 -0.0382315 4.49893e-19 0.000552917)
(0.0333067 -0.136559 7.03709e-19 -0.033518 -5.85671e-19 0.000211298)
(0.0322327 -0.138459 -4.12061e-19 -0.0322198 4.90379e-20 -1.29216e-05)
(0.0327625 -0.142088 -5.66576e-19 -0.0326492 -3.68966e-19 -0.000113315)
(0.0335318 -0.145856 1.00214e-18 -0.0334241 -1.41781e-18 -0.000107719)
(0.0332427 -0.147982 -2.05826e-20 -0.0331725 1.06989e-18 -7.01311e-05)
(0.0306451 -0.146744 -7.30245e-22 -0.0306176 -6.52675e-20 -2.74696e-05)
(0.0246568 -0.140518 -5.987e-19 -0.0246664 1.05463e-18 9.57564e-06)
(0.0143233 -0.127576 6.44193e-20 -0.0143739 -6.3652e-19 5.05749e-05)
(-0.0011371 -0.105902 -1.17102e-20 0.0010389 3.29126e-19 9.82017e-05)
(-0.0221177 -0.073688 -6.83005e-19 0.0219723 -5.75552e-19 0.000145419)
(-0.0483785 -0.029444 3.67789e-19 0.0481938 1.71667e-18 0.000184669)
(-0.0788352 0.0278235 -5.21788e-19 0.0786483 2.85159e-19 0.000186944)
(-0.111677 0.0982485 -4.89358e-19 0.111351 6.82026e-22 0.000326111)
(-0.14329 0.181805 6.99566e-19 0.143027 -1.84756e-18 0.000263107)
(-0.167015 0.276379 -7.71308e-20 0.167629 7.726e-19 -0.00061412)