/*--------------------------------*- C++ -*----------------------------------*\
| =========                 |                                                 |
| \\      /  F ield         | OpenFOAM: The Open Source CFD Toolbox           |
|  \\    /   O peration     | Version:  2312                                  |
|   \\  /    A nd           | Website:  www.openfoam.com                      |
|    \\/     M anipulation  |                                                 |
\*---------------------------------------------------------------------------*/
FoamFile
{
    version     2.0;
    format      ascii;
    arch        "LSB;label=32;scalar=64";
    class       volScalarField;
    location    "800";
    object      turbulenceProperties:nuEff;
}
// * * * * * * * * * * * * * * * * * * * * * * * * * * * * * * * * * * * * * //

dimensions      [0 2 -1 0 0 0 0];

internalField   nonuniform List<scalar> 
11040
(
4.78994e-05
6.48716e-05
2.54773e-05
5.86811e-05
0.000198364
0.000191518
0.000181892
0.000171831
0.000159275
0.000151519
0.000143476
0.000136456
0.000130104
0.000125081
0.000120757
0.000118358
0.000117976
0.000119621
0.000122814
0.000127323
0.000133223
0.000140307
0.000148299
0.000157003
0.000166534
0.000177849
0.000190811
0.000203555
0.000215538
0.000226181
0.000234855
0.000240943
0.000245183
0.000251854
0.000270795
0.000261688
0.000185863
0.000190747
0.000209681
0.000229727
0.000306539
1.42004e-05
4.68933e-05
6.60021e-05
0.000153049
0.000611832
0.000638569
0.000562467
0.000518886
0.000452736
0.000417432
0.000380846
0.00035222
0.00032535
0.00030495
0.000285891
0.000272447
0.000265587
0.000264618
0.000266844
0.000270895
0.000276884
0.000284858
0.000293219
0.000300811
0.000308595
0.000324017
0.000351557
0.000383555
0.000419623
0.000459856
0.000504399
0.000553668
0.000606918
0.000665768
0.000732493
0.00080077
0.000869726
0.000961242
0.00106998
0.00116006
0.00162999
1.55292e-05
1.94405e-05
4.01762e-05
7.50986e-05
0.000422957
0.000975717
0.00119757
0.00115805
0.00101536
0.00094109
0.000858533
0.00079728
0.000737573
0.000693572
0.000651556
0.000617937
0.000592261
0.000572581
0.000561036
0.000556661
0.000560845
0.000574604
0.000598656
0.000633841
0.000680219
0.000737595
0.000805745
0.000884172
0.000972573
0.00107044
0.0011766
0.00129038
0.00141138
0.00154022
0.00167796
0.00182494
0.00198751
0.00218811
0.00243209
0.00267589
0.00351067
1.64847e-05
1.51662e-05
2.06825e-05
2.12342e-05
0.000148916
0.000605651
0.00131511
0.00171937
0.00179001
0.0017005
0.00155717
0.00145673
0.00135219
0.00127467
0.00119941
0.00113653
0.0010902
0.00105341
0.00103126
0.00102215
0.0010278
0.0010512
0.00109487
0.00115997
0.00124593
0.00135164
0.00147616
0.00161848
0.0017777
0.00195275
0.0021421
0.00234436
0.00255844
0.00278462
0.00302379
0.00327858
0.00356087
0.00390259
0.00432137
0.00478273
0.00595957
1.62039e-05
1.57699e-05
1.64054e-05
1.54335e-05
1.48553e-05
0.00018692
0.00071825
0.00157111
0.00226667
0.00247747
0.00249016
0.00238492
0.00222189
0.00210326
0.00198922
0.00188563
0.00181276
0.00175273
0.00171551
0.00169959
0.00170498
0.00173723
0.00180248
0.00190266
0.00203694
0.00220397
0.00240206
0.00262893
0.00288258
0.00316108
0.00346138
0.00378063
0.00411676
0.00446948
0.00483937
0.00523041
0.00565895
0.00617005
0.00679819
0.00753285
0.00901433
1.60957e-05
1.61887e-05
1.58936e-05
1.65989e-05
1.17133e-05
1.09047e-05
0.000182043
0.00073989
0.00172446
0.00274268
0.00321935
0.00338986
0.00337889
0.00327113
0.00309505
0.00293173
0.00282383
0.00273163
0.00267112
0.00264493
0.00264745
0.0026862
0.00277428
0.00291549
0.0031086
0.00335246
0.00364449
0.00398037
0.00435578
0.00476764
0.00521039
0.00567866
0.00616849
0.00667861
0.00720857
0.00776286
0.00836227
0.00906421
0.00992892
0.0109802
0.0127771
1.61053e-05
1.61374e-05
1.60147e-05
1.63508e-05
1.5934e-05
1.04384e-05
1.00035e-05
0.000129172
0.000668458
0.00171722
0.00302281
0.00396507
0.00434575
0.00449151
0.00448438
0.00438406
0.00423577
0.00408338
0.0039868
0.00394587
0.00394344
0.00398429
0.00409357
0.00427971
0.00454053
0.00487601
0.00528328
0.00575529
0.00628273
0.00686136
0.0074819
0.00813441
0.00881168
0.00951081
0.0102291
0.0109699
0.0117578
0.012661
0.0137739
0.0151634
0.0173191
1.61145e-05
1.6112e-05
1.6132e-05
1.60494e-05
1.65612e-05
1.60548e-05
1.00204e-05
1e-05
6.15127e-05
0.000520946
0.00152871
0.00303018
0.00450127
0.00532141
0.00569044
0.00583722
0.00586473
0.00581539
0.00574601
0.00568804
0.00568335
0.00573776
0.00587154
0.0061073
0.00644243
0.00688107
0.00742286
0.00805962
0.00877088
0.00955181
0.0103883
0.0112627
0.0121617
0.0130801
0.0140116
0.014955
0.0159378
0.0170365
0.0183805
0.0200944
0.0226136
1.61128e-05
1.61165e-05
1.61122e-05
1.61318e-05
1.5998e-05
1.71542e-05
1.53983e-05
1.01167e-05
1.03192e-05
1.05215e-05
0.000323365
0.00118701
0.00271906
0.00460773
0.00613883
0.0069075
0.0073124
0.00751876
0.00764321
0.00772616
0.00782371
0.00796238
0.00818479
0.00852048
0.00897057
0.00953507
0.0102216
0.0110352
0.0119602
0.0129777
0.014069
0.0152041
0.0163577
0.0175217
0.0186855
0.0198363
0.0210033
0.0222732
0.0237859
0.0257538
0.0285779
1.61121e-05
1.61137e-05
1.61135e-05
1.61192e-05
1.60991e-05
1.60464e-05
1.73455e-05
1.4918e-05
1.04841e-05
1.00145e-05
3.32415e-05
0.000134127
0.000780278
0.00214572
0.00419555
0.00640706
0.00799323
0.00881399
0.00933323
0.00969997
0.0100373
0.0103892
0.0108182
0.0113695
0.0120636
0.0129014
0.0138731
0.014961
0.0161467
0.017427
0.0188023
0.02023
0.0216593
0.0230786
0.02448
0.0258246
0.0271367
0.0285194
0.0301009
0.0321679
0.0351303
1.61108e-05
1.61118e-05
1.61133e-05
1.61092e-05
1.61268e-05
1.6056e-05
1.61778e-05
1.70359e-05
1.59143e-05
1.13747e-05
1.00072e-05
1.05332e-05
1.01584e-05
0.000376317
0.00141482
0.00331422
0.00586766
0.00841131
0.0101662
0.0111827
0.0119589
0.0126409
0.0133618
0.0142054
0.0152263
0.016444
0.0178556
0.0194434
0.0211735
0.0229979
0.0248533
0.0266651
0.0283854
0.0300462
0.0316835
0.0331919
0.0345646
0.0359686
0.0374957
0.0393915
0.0421687
1.61094e-05
1.61104e-05
1.61103e-05
1.61108e-05
1.61086e-05
1.61174e-05
1.60628e-05
1.61675e-05
1.67576e-05
1.66115e-05
1.29373e-05
1.00029e-05
1.00011e-05
3.5029e-05
0.000104491
0.000727259
0.00218234
0.00460305
0.00767514
0.0106635
0.012807
0.0141946
0.0153737
0.0165782
0.0179514
0.01956
0.0214218
0.0235348
0.0258674
0.0283652
0.0309595
0.0335696
0.0361047
0.0384726
0.0405593
0.0422371
0.0435339
0.0448496
0.0461746
0.0476266
0.0497852
1.61081e-05
1.61086e-05
1.61086e-05
1.61084e-05
1.61083e-05
1.61079e-05
1.61092e-05
1.60787e-05
1.61278e-05
1.65292e-05
1.70329e-05
1.44001e-05
1.02116e-05
1.0002e-05
1.01197e-05
0.000108073
0.000228092
0.00110701
0.00295636
0.00588558
0.00955179
0.0131098
0.0157967
0.0177692
0.0196268
0.0216523
0.0239255
0.0265007
0.0293669
0.032468
0.0357328
0.039078
0.0424068
0.0456234
0.0486254
0.0512989
0.0535452
0.0552881
0.0564147
0.0571492
0.0585677
1.61069e-05
1.61072e-05
1.61072e-05
1.61073e-05
1.61072e-05
1.61067e-05
1.61067e-05
1.61066e-05
1.60885e-05
1.60944e-05
1.63283e-05
1.7078e-05
1.59683e-05
1.16092e-05
1.00004e-05
1.00001e-05
1.12729e-05
0.000178164
0.000353172
0.00142988
0.00361192
0.00686683
0.0107496
0.0147846
0.0184554
0.0215576
0.024418
0.0274488
0.030784
0.0343912
0.0382146
0.0421847
0.0461981
0.0501551
0.0539531
0.0574914
0.0606799
0.0634581
0.0657556
0.0675416
0.0688639
1.61059e-05
1.61066e-05
1.61068e-05
1.61068e-05
1.61065e-05
1.61062e-05
1.61057e-05
1.61058e-05
1.61053e-05
1.60977e-05
1.6071e-05
1.62064e-05
1.68148e-05
1.67825e-05
1.44604e-05
1.03021e-05
1.00031e-05
1e-05
1.55013e-05
0.000223775
0.000415389
0.00152418
0.00353407
0.0065033
0.0102788
0.0146214
0.0192623
0.023903
0.028345
0.0326487
0.037011
0.0415332
0.0461626
0.0507907
0.0553088
0.0596174
0.0636374
0.0673303
0.0706288
0.0734757
0.075865
1.6105e-05
1.61063e-05
1.61063e-05
1.61061e-05
1.61058e-05
1.61054e-05
1.6105e-05
1.61047e-05
1.61047e-05
1.61049e-05
1.61016e-05
1.60701e-05
1.61379e-05
1.64068e-05
1.71197e-05
1.5958e-05
1.29924e-05
1.00156e-05
1.00006e-05
1e-05
1.83771e-05
0.000197829
0.000245189
0.00100534
0.00244521
0.00470692
0.00782298
0.0117614
0.016451
0.0217871
0.0275906
0.0335773
0.0394584
0.0450918
0.0504653
0.0555985
0.0604836
0.0651049
0.0693947
0.0732825
0.0767406
1.61042e-05
1.61056e-05
1.61054e-05
1.61049e-05
1.61044e-05
1.6104e-05
1.61037e-05
1.61035e-05
1.61035e-05
1.61033e-05
1.61045e-05
1.61009e-05
1.60872e-05
1.60754e-05
1.62492e-05
1.667e-05
1.71278e-05
1.51835e-05
1.16488e-05
1.00016e-05
1.00003e-05
1e-05
1.0721e-05
7.45412e-05
1.00013e-05
0.000311873
0.000991838
0.0022146
0.00412778
0.00680618
0.0103155
0.0146803
0.0198667
0.0257909
0.0322763
0.0390399
0.0457514
0.0521747
0.0581185
0.0634874
0.0682856
1.61033e-05
1.61043e-05
1.61041e-05
1.61036e-05
1.61032e-05
1.61029e-05
1.61027e-05
1.61025e-05
1.61023e-05
1.61022e-05
1.61022e-05
1.6103e-05
1.61023e-05
1.6094e-05
1.60716e-05
1.61216e-05
1.63524e-05
1.69477e-05
1.70023e-05
1.48111e-05
1.12251e-05
1.00012e-05
1.00003e-05
1e-05
1e-05
1.10978e-05
5.70099e-05
0.000186606
2.98776e-05
0.000340704
0.00102072
0.00217721
0.00391089
0.00633946
0.00952418
0.0134861
0.0181811
0.023571
0.0295067
0.0357941
0.0422251
1.61021e-05
1.61028e-05
1.61023e-05
1.61018e-05
1.61013e-05
1.6101e-05
1.61008e-05
1.61007e-05
1.61007e-05
1.61007e-05
1.61007e-05
1.61008e-05
1.6101e-05
1.61023e-05
1.60967e-05
1.60856e-05
1.60679e-05
1.61798e-05
1.65049e-05
1.70387e-05
1.68677e-05
1.4543e-05
1.1754e-05
1.00217e-05
1.00008e-05
1e-05
1e-05
1e-05
1.0001e-05
1.10261e-05
4.92323e-05
0.00015211
0.000298753
8.11878e-05
0.000376614
0.00106247
0.00214874
0.00372923
0.00585688
0.00855698
0.0118883
1.61008e-05
1.61012e-05
1.61006e-05
1.61001e-05
1.60996e-05
1.60994e-05
1.60993e-05
1.60992e-05
1.60992e-05
1.60993e-05
1.60994e-05
1.60995e-05
1.60995e-05
1.60998e-05
1.61003e-05
1.60999e-05
1.60907e-05
1.60743e-05
1.60807e-05
1.62313e-05
1.66095e-05
1.70352e-05
1.69854e-05
1.5315e-05
1.27535e-05
1.09007e-05
1.00094e-05
1.00005e-05
1e-05
1e-05
1e-05
1e-05
1e-05
1.00053e-05
1.09519e-05
4.20683e-05
0.000128681
0.000236701
0.000372205
1.27061e-05
0.000365928
1.60994e-05
1.60996e-05
1.60991e-05
1.60986e-05
1.60983e-05
1.60982e-05
1.60981e-05
1.60982e-05
1.60983e-05
1.60984e-05
1.60985e-05
1.60986e-05
1.60987e-05
1.60988e-05
1.6099e-05
1.60994e-05
1.60999e-05
1.60966e-05
1.60833e-05
1.60673e-05
1.60923e-05
1.62622e-05
1.65611e-05
1.70244e-05
1.70784e-05
1.66093e-05
1.50306e-05
1.29189e-05
1.12475e-05
1.03465e-05
1.00016e-05
1.00002e-05
1e-05
1e-05
1e-05
1e-05
1e-05
1e-05
1e-05
1e-05
1.04751e-05
1.60981e-05
1.60982e-05
1.60977e-05
1.60974e-05
1.60973e-05
1.60974e-05
1.60975e-05
1.60977e-05
1.60978e-05
1.6098e-05
1.60981e-05
1.60983e-05
1.60984e-05
1.60985e-05
1.60986e-05
1.60987e-05
1.6099e-05
1.60996e-05
1.60992e-05
1.60936e-05
1.60775e-05
1.60681e-05
1.60869e-05
1.62066e-05
1.64408e-05
1.67321e-05
1.71041e-05
1.71895e-05
1.67939e-05
1.60192e-05
1.46009e-05
1.29558e-05
1.15847e-05
1.06923e-05
1.02074e-05
1.00051e-05
1.00003e-05
1e-05
1e-05
1e-05
1e-05
1.60968e-05
1.60969e-05
1.60967e-05
1.60967e-05
1.60968e-05
1.60971e-05
1.60974e-05
1.60976e-05
1.60979e-05
1.60981e-05
1.60983e-05
1.60985e-05
1.60986e-05
1.60987e-05
1.60988e-05
1.60989e-05
1.60989e-05
1.60991e-05
1.60995e-05
1.61001e-05
1.60987e-05
1.60921e-05
1.60792e-05
1.60655e-05
1.60749e-05
1.61215e-05
1.62448e-05
1.64494e-05
1.67033e-05
1.69471e-05
1.72123e-05
1.72636e-05
1.70316e-05
1.65019e-05
1.57624e-05
1.47133e-05
1.35213e-05
1.237e-05
1.14414e-05
1.07718e-05
1.03341e-05
1.60955e-05
1.60958e-05
1.6096e-05
1.60963e-05
1.60967e-05
1.60971e-05
1.60976e-05
1.60979e-05
1.60983e-05
1.60985e-05
1.60988e-05
1.6099e-05
1.60992e-05
1.60993e-05
1.60994e-05
1.60995e-05
1.60996e-05
1.60997e-05
1.60997e-05
1.60999e-05
1.61005e-05
1.61007e-05
1.60996e-05
1.60944e-05
1.60845e-05
1.60725e-05
1.60641e-05
1.60717e-05
1.61105e-05
1.61828e-05
1.63052e-05
1.64749e-05
1.66738e-05
1.68809e-05
1.70653e-05
1.72462e-05
1.73336e-05
1.7272e-05
1.70425e-05
1.66476e-05
1.61502e-05
1.60945e-05
1.60951e-05
1.60957e-05
1.60962e-05
1.60969e-05
1.60974e-05
1.6098e-05
1.60984e-05
1.60988e-05
1.60992e-05
1.60994e-05
1.60997e-05
1.60999e-05
1.61001e-05
1.61002e-05
1.61004e-05
1.61005e-05
1.61006e-05
1.61007e-05
1.61007e-05
1.61008e-05
1.61011e-05
1.61015e-05
1.61019e-05
1.61013e-05
1.60988e-05
1.60932e-05
1.60843e-05
1.60741e-05
1.60659e-05
1.6063e-05
1.60718e-05
1.60979e-05
1.61462e-05
1.62161e-05
1.6312e-05
1.64324e-05
1.65746e-05
1.67284e-05
1.68839e-05
1.70251e-05
1.60936e-05
1.60947e-05
1.60956e-05
1.60964e-05
1.60972e-05
1.60978e-05
1.60984e-05
1.60989e-05
1.60994e-05
1.60998e-05
1.61001e-05
1.61004e-05
1.61007e-05
1.61009e-05
1.61011e-05
1.61013e-05
1.61014e-05
1.61016e-05
1.61017e-05
1.61018e-05
1.61019e-05
1.61019e-05
1.61021e-05
1.61023e-05
1.61027e-05
1.61031e-05
1.61033e-05
1.61027e-05
1.61007e-05
1.6097e-05
1.60913e-05
1.60839e-05
1.60756e-05
1.60679e-05
1.60627e-05
1.60613e-05
1.60659e-05
1.60789e-05
1.61019e-05
1.6138e-05
1.61791e-05
1.60931e-05
1.60945e-05
1.60957e-05
1.60966e-05
1.60975e-05
1.60982e-05
1.60989e-05
1.60994e-05
1.60999e-05
1.61004e-05
1.61007e-05
1.61011e-05
1.61014e-05
1.61016e-05
1.61019e-05
1.61021e-05
1.61023e-05
1.61025e-05
1.61026e-05
1.61028e-05
1.61029e-05
1.61031e-05
1.61032e-05
1.61033e-05
1.61034e-05
1.61036e-05
1.61039e-05
1.61042e-05
1.61046e-05
1.61049e-05
1.61049e-05
1.61043e-05
1.61029e-05
1.61004e-05
1.6097e-05
1.60924e-05
1.60871e-05
1.6081e-05
1.60748e-05
1.6069e-05
1.60644e-05
1.60927e-05
1.60945e-05
1.60958e-05
1.60969e-05
1.60978e-05
1.60986e-05
1.60992e-05
1.60998e-05
1.61004e-05
1.61009e-05
1.61013e-05
1.61017e-05
1.6102e-05
1.61023e-05
1.61026e-05
1.61029e-05
1.61031e-05
1.61033e-05
1.61035e-05
1.61037e-05
1.61039e-05
1.61041e-05
1.61043e-05
1.61044e-05
1.61046e-05
1.61047e-05
1.61048e-05
1.6105e-05
1.61052e-05
1.61054e-05
1.61057e-05
1.61061e-05
1.61064e-05
1.61067e-05
1.61069e-05
1.61069e-05
1.61066e-05
1.61059e-05
1.61048e-05
1.6103e-05
1.61013e-05
1.60925e-05
1.60945e-05
1.60959e-05
1.6097e-05
1.6098e-05
1.60988e-05
1.60995e-05
1.61002e-05
1.61007e-05
1.61013e-05
1.61017e-05
1.61022e-05
1.61026e-05
1.61029e-05
1.61032e-05
1.61035e-05
1.61038e-05
1.61041e-05
1.61044e-05
1.61046e-05
1.61048e-05
1.61051e-05
1.61053e-05
1.61055e-05
1.61057e-05
1.61058e-05
1.6106e-05
1.61061e-05
1.61063e-05
1.61064e-05
1.61066e-05
1.61068e-05
1.61069e-05
1.61072e-05
1.61074e-05
1.61077e-05
1.6108e-05
1.61083e-05
1.61086e-05
1.61089e-05
1.61092e-05
1.60925e-05
1.60945e-05
1.6096e-05
1.60971e-05
1.60981e-05
1.60989e-05
1.60997e-05
1.61004e-05
1.6101e-05
1.61016e-05
1.61021e-05
1.61026e-05
1.6103e-05
1.61034e-05
1.61038e-05
1.61042e-05
1.61045e-05
1.61048e-05
1.61051e-05
1.61054e-05
1.61057e-05
1.61059e-05
1.61062e-05
1.61064e-05
1.61066e-05
1.61068e-05
1.6107e-05
1.61072e-05
1.61074e-05
1.61076e-05
1.61078e-05
1.61079e-05
1.61081e-05
1.61083e-05
1.61084e-05
1.61086e-05
1.61088e-05
1.61089e-05
1.61091e-05
1.61093e-05
1.61095e-05
1.60924e-05
1.60945e-05
1.60959e-05
1.60971e-05
1.60981e-05
1.6099e-05
1.60998e-05
1.61005e-05
1.61012e-05
1.61018e-05
1.61024e-05
1.61029e-05
1.61034e-05
1.61039e-05
1.61043e-05
1.61047e-05
1.61051e-05
1.61054e-05
1.61058e-05
1.61061e-05
1.61064e-05
1.61067e-05
1.6107e-05
1.61073e-05
1.61075e-05
1.61078e-05
1.6108e-05
1.61082e-05
1.61085e-05
1.61087e-05
1.61089e-05
1.61091e-05
1.61093e-05
1.61094e-05
1.61096e-05
1.61098e-05
1.611e-05
1.61101e-05
1.61103e-05
1.61105e-05
1.61106e-05
1.60923e-05
1.60943e-05
1.60958e-05
1.6097e-05
1.6098e-05
1.6099e-05
1.60998e-05
1.61006e-05
1.61013e-05
1.6102e-05
1.61026e-05
1.61032e-05
1.61037e-05
1.61042e-05
1.61047e-05
1.61052e-05
1.61056e-05
1.6106e-05
1.61064e-05
1.61067e-05
1.61071e-05
1.61074e-05
1.61078e-05
1.61081e-05
1.61084e-05
1.61086e-05
1.61089e-05
1.61092e-05
1.61094e-05
1.61096e-05
1.61099e-05
1.61101e-05
1.61103e-05
1.61105e-05
1.61107e-05
1.61109e-05
1.61111e-05
1.61113e-05
1.61115e-05
1.61117e-05
1.61119e-05
1.60921e-05
1.60941e-05
1.60956e-05
1.60968e-05
1.60978e-05
1.60988e-05
1.60997e-05
1.61005e-05
1.61013e-05
1.61021e-05
1.61027e-05
1.61034e-05
1.6104e-05
1.61045e-05
1.61051e-05
1.61056e-05
1.6106e-05
1.61065e-05
1.61069e-05
1.61073e-05
1.61077e-05
1.61081e-05
1.61084e-05
1.61088e-05
1.61091e-05
1.61094e-05
1.61097e-05
1.611e-05
1.61103e-05
1.61105e-05
1.61108e-05
1.6111e-05
1.61113e-05
1.61115e-05
1.61117e-05
1.6112e-05
1.61122e-05
1.61124e-05
1.61126e-05
1.61128e-05
1.6113e-05
1.60918e-05
1.60937e-05
1.60952e-05
1.60964e-05
1.60975e-05
1.60985e-05
1.60995e-05
1.61004e-05
1.61012e-05
1.6102e-05
1.61028e-05
1.61035e-05
1.61041e-05
1.61047e-05
1.61053e-05
1.61059e-05
1.61064e-05
1.61069e-05
1.61074e-05
1.61078e-05
1.61083e-05
1.61087e-05
1.61091e-05
1.61095e-05
1.61098e-05
1.61102e-05
1.61105e-05
1.61108e-05
1.61111e-05
1.61114e-05
1.61117e-05
1.61119e-05
1.61122e-05
1.61124e-05
1.61127e-05
1.61129e-05
1.61131e-05
1.61134e-05
1.61136e-05
1.61138e-05
1.6114e-05
1.60914e-05
1.60933e-05
1.60947e-05
1.60959e-05
1.60971e-05
1.60981e-05
1.60991e-05
1.61001e-05
1.6101e-05
1.61019e-05
1.61027e-05
1.61035e-05
1.61042e-05
1.61049e-05
1.61055e-05
1.61061e-05
1.61067e-05
1.61072e-05
1.61078e-05
1.61083e-05
1.61087e-05
1.61092e-05
1.61096e-05
1.61101e-05
1.61105e-05
1.61108e-05
1.61112e-05
1.61115e-05
1.61118e-05
1.61122e-05
1.61125e-05
1.61127e-05
1.6113e-05
1.61133e-05
1.61136e-05
1.61138e-05
1.61141e-05
1.61143e-05
1.61145e-05
1.61147e-05
1.6115e-05
1.60908e-05
1.60927e-05
1.60941e-05
1.60953e-05
1.60965e-05
1.60976e-05
1.60987e-05
1.60997e-05
1.61007e-05
1.61016e-05
1.61025e-05
1.61033e-05
1.61041e-05
1.61049e-05
1.61056e-05
1.61062e-05
1.61069e-05
1.61075e-05
1.61081e-05
1.61086e-05
1.61091e-05
1.61097e-05
1.61101e-05
1.61106e-05
1.6111e-05
1.61114e-05
1.61118e-05
1.61122e-05
1.61125e-05
1.61129e-05
1.61132e-05
1.61135e-05
1.61138e-05
1.61141e-05
1.61144e-05
1.61146e-05
1.61149e-05
1.61151e-05
1.61154e-05
1.61156e-05
1.61159e-05
1.60901e-05
1.60919e-05
1.60933e-05
1.60946e-05
1.60958e-05
1.60969e-05
1.60981e-05
1.60991e-05
1.61002e-05
1.61012e-05
1.61021e-05
1.6103e-05
1.61039e-05
1.61047e-05
1.61055e-05
1.61062e-05
1.61069e-05
1.61076e-05
1.61082e-05
1.61088e-05
1.61094e-05
1.611e-05
1.61105e-05
1.6111e-05
1.61115e-05
1.61119e-05
1.61123e-05
1.61127e-05
1.61131e-05
1.61135e-05
1.61138e-05
1.61142e-05
1.61145e-05
1.61148e-05
1.61151e-05
1.61154e-05
1.61156e-05
1.61159e-05
1.61162e-05
1.61164e-05
1.61167e-05
1.60893e-05
1.6091e-05
1.60924e-05
1.60937e-05
1.60949e-05
1.60961e-05
1.60973e-05
1.60984e-05
1.60995e-05
1.61006e-05
1.61016e-05
1.61026e-05
1.61035e-05
1.61044e-05
1.61052e-05
1.6106e-05
1.61068e-05
1.61075e-05
1.61082e-05
1.61089e-05
1.61095e-05
1.61101e-05
1.61107e-05
1.61113e-05
1.61118e-05
1.61123e-05
1.61127e-05
1.61131e-05
1.61136e-05
1.61139e-05
1.61143e-05
1.61147e-05
1.6115e-05
1.61153e-05
1.61156e-05
1.61159e-05
1.61162e-05
1.61165e-05
1.61168e-05
1.6117e-05
1.61173e-05
1.60883e-05
1.60899e-05
1.60913e-05
1.60926e-05
1.60938e-05
1.6095e-05
1.60962e-05
1.60974e-05
1.60986e-05
1.60997e-05
1.61008e-05
1.61018e-05
1.61028e-05
1.61038e-05
1.61047e-05
1.61056e-05
1.61064e-05
1.61072e-05
1.6108e-05
1.61087e-05
1.61094e-05
1.61101e-05
1.61107e-05
1.61113e-05
1.61118e-05
1.61123e-05
1.61128e-05
1.61133e-05
1.61137e-05
1.61142e-05
1.61146e-05
1.61149e-05
1.61153e-05
1.61156e-05
1.6116e-05
1.61163e-05
1.61166e-05
1.61169e-05
1.61172e-05
1.61174e-05
1.61177e-05
1.60871e-05
1.60887e-05
1.609e-05
1.60913e-05
1.60925e-05
1.60937e-05
1.60949e-05
1.60962e-05
1.60973e-05
1.60985e-05
1.60996e-05
1.61007e-05
1.61018e-05
1.61028e-05
1.61038e-05
1.61048e-05
1.61057e-05
1.61065e-05
1.61074e-05
1.61082e-05
1.61089e-05
1.61096e-05
1.61103e-05
1.61109e-05
1.61115e-05
1.61121e-05
1.61126e-05
1.61131e-05
1.61136e-05
1.61141e-05
1.61145e-05
1.61149e-05
1.61153e-05
1.61156e-05
1.6116e-05
1.61163e-05
1.61166e-05
1.61169e-05
1.61172e-05
1.61174e-05
1.61177e-05
1.60858e-05
1.60872e-05
1.60885e-05
1.60897e-05
1.60909e-05
1.60921e-05
1.60933e-05
1.60946e-05
1.60958e-05
1.6097e-05
1.60981e-05
1.60993e-05
1.61004e-05
1.61015e-05
1.61026e-05
1.61036e-05
1.61046e-05
1.61055e-05
1.61064e-05
1.61072e-05
1.6108e-05
1.61088e-05
1.61095e-05
1.61102e-05
1.61109e-05
1.61115e-05
1.6112e-05
1.61126e-05
1.61131e-05
1.61136e-05
1.6114e-05
1.61144e-05
1.61148e-05
1.61152e-05
1.61156e-05
1.61159e-05
1.61162e-05
1.61166e-05
1.61168e-05
1.61171e-05
1.61174e-05
1.60842e-05
1.60855e-05
1.60867e-05
1.60879e-05
1.6089e-05
1.60902e-05
1.60914e-05
1.60926e-05
1.60938e-05
1.6095e-05
1.60962e-05
1.60974e-05
1.60986e-05
1.60998e-05
1.61009e-05
1.6102e-05
1.6103e-05
1.6104e-05
1.61049e-05
1.61059e-05
1.61067e-05
1.61076e-05
1.61083e-05
1.61091e-05
1.61098e-05
1.61104e-05
1.6111e-05
1.61116e-05
1.61121e-05
1.61126e-05
1.61131e-05
1.61135e-05
1.6114e-05
1.61143e-05
1.61147e-05
1.61151e-05
1.61154e-05
1.61157e-05
1.6116e-05
1.61162e-05
1.61165e-05
1.60824e-05
1.60836e-05
1.60847e-05
1.60858e-05
1.60868e-05
1.60879e-05
1.60891e-05
1.60902e-05
1.60914e-05
1.60927e-05
1.60939e-05
1.60951e-05
1.60963e-05
1.60975e-05
1.60987e-05
1.60999e-05
1.61009e-05
1.6102e-05
1.6103e-05
1.6104e-05
1.61049e-05
1.61058e-05
1.61066e-05
1.61073e-05
1.61081e-05
1.61088e-05
1.61094e-05
1.611e-05
1.61106e-05
1.61111e-05
1.61116e-05
1.6112e-05
1.61125e-05
1.61129e-05
1.61133e-05
1.61136e-05
1.6114e-05
1.61143e-05
1.61146e-05
1.61149e-05
1.61152e-05
1.60804e-05
1.60814e-05
1.60824e-05
1.60833e-05
1.60843e-05
1.60853e-05
1.60863e-05
1.60875e-05
1.60886e-05
1.60898e-05
1.60911e-05
1.60923e-05
1.60935e-05
1.60948e-05
1.6096e-05
1.60971e-05
1.60983e-05
1.60994e-05
1.61004e-05
1.61014e-05
1.61024e-05
1.61034e-05
1.61042e-05
1.61051e-05
1.61058e-05
1.61066e-05
1.61072e-05
1.61079e-05
1.61085e-05
1.6109e-05
1.61096e-05
1.61101e-05
1.61105e-05
1.61109e-05
1.61113e-05
1.61117e-05
1.6112e-05
1.61123e-05
1.61126e-05
1.61129e-05
1.61131e-05
1.60781e-05
1.60789e-05
1.60797e-05
1.60805e-05
1.60813e-05
1.60822e-05
1.60832e-05
1.60842e-05
1.60853e-05
1.60865e-05
1.60876e-05
1.60888e-05
1.60901e-05
1.60913e-05
1.60925e-05
1.60937e-05
1.60949e-05
1.6096e-05
1.60971e-05
1.60981e-05
1.60991e-05
1.61001e-05
1.6101e-05
1.61018e-05
1.61026e-05
1.61034e-05
1.61041e-05
1.61047e-05
1.61053e-05
1.61059e-05
1.61064e-05
1.61069e-05
1.61074e-05
1.61079e-05
1.61083e-05
1.61087e-05
1.6109e-05
1.61094e-05
1.61097e-05
1.611e-05
1.61102e-05
1.60755e-05
1.60761e-05
1.60767e-05
1.60773e-05
1.6078e-05
1.60788e-05
1.60796e-05
1.60805e-05
1.60815e-05
1.60825e-05
1.60835e-05
1.60847e-05
1.60858e-05
1.60869e-05
1.60881e-05
1.60892e-05
1.60903e-05
1.60914e-05
1.60925e-05
1.60936e-05
1.60947e-05
1.60957e-05
1.60966e-05
1.60976e-05
1.60984e-05
1.60993e-05
1.61e-05
1.61008e-05
1.61014e-05
1.61021e-05
1.61027e-05
1.61032e-05
1.61037e-05
1.61042e-05
1.61046e-05
1.6105e-05
1.61054e-05
1.61057e-05
1.6106e-05
1.61063e-05
1.61065e-05
1.60726e-05
1.6073e-05
1.60733e-05
1.60738e-05
1.60743e-05
1.60748e-05
1.60755e-05
1.60761e-05
1.60769e-05
1.60776e-05
1.60785e-05
1.60794e-05
1.60804e-05
1.60814e-05
1.60826e-05
1.60838e-05
1.6085e-05
1.60861e-05
1.60873e-05
1.60884e-05
1.60894e-05
1.60904e-05
1.60914e-05
1.60923e-05
1.60931e-05
1.6094e-05
1.60947e-05
1.60954e-05
1.60961e-05
1.60967e-05
1.60973e-05
1.60978e-05
1.60983e-05
1.60988e-05
1.60992e-05
1.60996e-05
1.61e-05
1.61003e-05
1.61007e-05
1.6101e-05
1.61012e-05
1.60693e-05
1.60695e-05
1.60696e-05
1.60698e-05
1.607e-05
1.60702e-05
1.60705e-05
1.60708e-05
1.60712e-05
1.60715e-05
1.60719e-05
1.60723e-05
1.60728e-05
1.60732e-05
1.60736e-05
1.60741e-05
1.60745e-05
1.60749e-05
1.60753e-05
1.60757e-05
1.60762e-05
1.60766e-05
1.60771e-05
1.60776e-05
1.60782e-05
1.60787e-05
1.60792e-05
1.60797e-05
1.60802e-05
1.60807e-05
1.60812e-05
1.60817e-05
1.60821e-05
1.60825e-05
1.60829e-05
1.60833e-05
1.60837e-05
1.6084e-05
1.60843e-05
1.60846e-05
1.60849e-05
0.00365564
0.00709758
0.0101102
0.0122506
0.0133738
0.0134724
0.012555
0.0106275
0.00778197
0.00419941
0.00104384
0.000192108
1.00016e-05
1.08365e-05
1.77598e-05
1.68553e-05
1.60079e-05
1.60558e-05
1.60998e-05
1.60998e-05
1.61038e-05
1.61068e-05
1.61072e-05
1.6107e-05
1.61063e-05
1.61051e-05
1.61034e-05
1.61015e-05
1.60996e-05
1.60979e-05
1.60964e-05
1.60952e-05
1.60944e-05
1.60938e-05
1.60934e-05
1.60932e-05
1.60929e-05
1.60927e-05
1.60924e-05
1.60922e-05
1.60919e-05
1.60915e-05
1.60912e-05
1.60908e-05
1.60903e-05
1.60898e-05
1.60892e-05
1.60886e-05
1.60879e-05
1.60871e-05
1.60862e-05
1.60852e-05
1.60841e-05
1.60829e-05
1.60816e-05
1.60801e-05
1.60786e-05
1.6077e-05
1.60754e-05
1.60738e-05
1.60724e-05
1.60714e-05
1.60712e-05
1.60719e-05
1.60734e-05
1.60755e-05
1.60782e-05
1.60812e-05
1.60845e-05
1.60881e-05
1.60919e-05
1.60962e-05
1.60997e-05
1.61083e-05
0.00625651
0.0108442
0.0143677
0.016656
0.0178043
0.0179008
0.0169879
0.0150862
0.012258
0.00854649
0.0042136
0.000811687
0.00017273
1.00041e-05
1.0333e-05
1.72937e-05
1.6867e-05
1.59679e-05
1.60453e-05
1.6116e-05
1.6107e-05
1.61049e-05
1.61083e-05
1.61084e-05
1.61071e-05
1.61059e-05
1.61044e-05
1.61025e-05
1.61004e-05
1.60985e-05
1.60969e-05
1.60956e-05
1.60947e-05
1.60941e-05
1.60937e-05
1.60934e-05
1.60931e-05
1.60929e-05
1.60926e-05
1.60923e-05
1.6092e-05
1.60917e-05
1.60914e-05
1.60909e-05
1.60905e-05
1.609e-05
1.60894e-05
1.60887e-05
1.6088e-05
1.60872e-05
1.60863e-05
1.60853e-05
1.60842e-05
1.6083e-05
1.60817e-05
1.60803e-05
1.60787e-05
1.60772e-05
1.60756e-05
1.6074e-05
1.60726e-05
1.60716e-05
1.60713e-05
1.60719e-05
1.60733e-05
1.60754e-05
1.6078e-05
1.6081e-05
1.60843e-05
1.60878e-05
1.60916e-05
1.60959e-05
1.60994e-05
1.61078e-05
0.00874308
0.0147474
0.018984
0.0215278
0.0227606
0.022892
0.0220069
0.0201437
0.0173586
0.0136998
0.00918559
0.00421626
0.000751859
0.000171146
1.00015e-05
1.00903e-05
1.70792e-05
1.74797e-05
1.60582e-05
1.59929e-05
1.61137e-05
1.61167e-05
1.61055e-05
1.61081e-05
1.61096e-05
1.61075e-05
1.61051e-05
1.61032e-05
1.61013e-05
1.60993e-05
1.60975e-05
1.60961e-05
1.60951e-05
1.60944e-05
1.60939e-05
1.60936e-05
1.60933e-05
1.6093e-05
1.60928e-05
1.60925e-05
1.60922e-05
1.60919e-05
1.60915e-05
1.60911e-05
1.60907e-05
1.60901e-05
1.60895e-05
1.60889e-05
1.60882e-05
1.60873e-05
1.60865e-05
1.60855e-05
1.60844e-05
1.60831e-05
1.60818e-05
1.60804e-05
1.60789e-05
1.60774e-05
1.60759e-05
1.60743e-05
1.60729e-05
1.60718e-05
1.60715e-05
1.60719e-05
1.60733e-05
1.60753e-05
1.60778e-05
1.60808e-05
1.6084e-05
1.60875e-05
1.60912e-05
1.60955e-05
1.6099e-05
1.61073e-05
0.0111946
0.0188381
0.0239309
0.0268507
0.0282574
0.0284849
0.0276704
0.0258731
0.0231478
0.0195545
0.0151193
0.00984632
0.00436145
0.00075181
0.00019948
1.00003e-05
1.00003e-05
1.4855e-05
1.78885e-05
1.6303e-05
1.59553e-05
1.60997e-05
1.61343e-05
1.61094e-05
1.61035e-05
1.6108e-05
1.61082e-05
1.61049e-05
1.61019e-05
1.60999e-05
1.60983e-05
1.60967e-05
1.60955e-05
1.60946e-05
1.60941e-05
1.60938e-05
1.60935e-05
1.60932e-05
1.6093e-05
1.60927e-05
1.60924e-05
1.60921e-05
1.60917e-05
1.60913e-05
1.60908e-05
1.60903e-05
1.60897e-05
1.6089e-05
1.60883e-05
1.60875e-05
1.60866e-05
1.60856e-05
1.60845e-05
1.60833e-05
1.6082e-05
1.60806e-05
1.60791e-05
1.60776e-05
1.60761e-05
1.60746e-05
1.60731e-05
1.6072e-05
1.60716e-05
1.6072e-05
1.60732e-05
1.60751e-05
1.60776e-05
1.60805e-05
1.60837e-05
1.60872e-05
1.60909e-05
1.60951e-05
1.60985e-05
1.61068e-05
0.0137835
0.0231738
0.029161
0.0325668
0.0342588
0.0346708
0.0339945
0.0323156
0.0296923
0.0261858
0.0218498
0.0166822
0.010734
0.0047673
0.000881075
0.00027981
1e-05
1e-05
1.36371e-05
1.81288e-05
1.67277e-05
1.59011e-05
1.60165e-05
1.6148e-05
1.61339e-05
1.6104e-05
1.61015e-05
1.61063e-05
1.61057e-05
1.61018e-05
1.60986e-05
1.60969e-05
1.60959e-05
1.60951e-05
1.60945e-05
1.6094e-05
1.60936e-05
1.60934e-05
1.60931e-05
1.60929e-05
1.60926e-05
1.60922e-05
1.60919e-05
1.60914e-05
1.6091e-05
1.60905e-05
1.60899e-05
1.60892e-05
1.60885e-05
1.60876e-05
1.60867e-05
1.60857e-05
1.60846e-05
1.60834e-05
1.60822e-05
1.60808e-05
1.60793e-05
1.60779e-05
1.60764e-05
1.60749e-05
1.60734e-05
1.60723e-05
1.60718e-05
1.6072e-05
1.60731e-05
1.6075e-05
1.60774e-05
1.60802e-05
1.60834e-05
1.60868e-05
1.60905e-05
1.60947e-05
1.60981e-05
1.61062e-05
0.0171964
0.0278159
0.03461
0.0385874
0.0406822
0.0413868
0.0409407
0.0394586
0.0370073
0.0336459
0.0294362
0.0244175
0.0185858
0.0120308
0.00555825
0.00124983
0.000413424
1.25626e-05
1.00173e-05
1.1088e-05
1.76539e-05
1.77564e-05
1.61139e-05
1.58506e-05
1.60735e-05
1.61615e-05
1.61264e-05
1.60959e-05
1.60953e-05
1.61019e-05
1.61028e-05
1.60994e-05
1.60962e-05
1.60948e-05
1.60944e-05
1.60943e-05
1.6094e-05
1.60936e-05
1.60933e-05
1.6093e-05
1.60927e-05
1.60924e-05
1.6092e-05
1.60916e-05
1.60911e-05
1.60906e-05
1.609e-05
1.60894e-05
1.60886e-05
1.60878e-05
1.60869e-05
1.60859e-05
1.60848e-05
1.60836e-05
1.60824e-05
1.6081e-05
1.60796e-05
1.60782e-05
1.60767e-05
1.60752e-05
1.60737e-05
1.60726e-05
1.60719e-05
1.60721e-05
1.60731e-05
1.60748e-05
1.60771e-05
1.60799e-05
1.6083e-05
1.60864e-05
1.609e-05
1.60942e-05
1.60975e-05
1.61056e-05
0.0218988
0.0327782
0.0402129
0.0448026
0.0474006
0.0485114
0.0484052
0.0472216
0.0450386
0.0419139
0.0379062
0.0330715
0.0274446
0.0210245
0.0139173
0.00690398
0.0018627
0.000163243
2.69859e-05
1.00034e-05
1.00064e-05
1.40665e-05
1.85908e-05
1.70537e-05
1.5881e-05
1.58737e-05
1.61177e-05
1.61837e-05
1.61345e-05
1.60939e-05
1.60885e-05
1.60962e-05
1.61e-05
1.60984e-05
1.60954e-05
1.60937e-05
1.60934e-05
1.60936e-05
1.60936e-05
1.60933e-05
1.60929e-05
1.60925e-05
1.60921e-05
1.60918e-05
1.60913e-05
1.60908e-05
1.60902e-05
1.60895e-05
1.60888e-05
1.6088e-05
1.60871e-05
1.60861e-05
1.6085e-05
1.60838e-05
1.60826e-05
1.60813e-05
1.60799e-05
1.60785e-05
1.6077e-05
1.60755e-05
1.60741e-05
1.60728e-05
1.60721e-05
1.60721e-05
1.6073e-05
1.60746e-05
1.60768e-05
1.60795e-05
1.60826e-05
1.6086e-05
1.60895e-05
1.60937e-05
1.6097e-05
1.61049e-05
0.0274833
0.0380187
0.0459055
0.0510811
0.0542439
0.0558617
0.0562099
0.0554424
0.0536456
0.0508769
0.0471876
0.0426325
0.0372646
0.0311164
0.0241901
0.0165888
0.00901034
0.00328678
0.000254768
0.000198543
1e-05
1.00173e-05
1.0717e-05
1.66072e-05
1.84294e-05
1.66105e-05
1.57141e-05
1.58055e-05
1.60881e-05
1.6186e-05
1.61466e-05
1.60969e-05
1.6082e-05
1.60889e-05
1.60969e-05
1.60987e-05
1.60965e-05
1.6094e-05
1.60928e-05