/*--------------------------------*- C++ -*----------------------------------*\
| =========                 |                                                 |
| \\      /  F ield         | OpenFOAM: The Open Source CFD Toolbox           |
|  \\    /   O peration     | Version:  2312                                  |
|   \\  /    A nd           | Website:  www.openfoam.com                      |
|    \\/     M anipulation  |                                                 |
\*---------------------------------------------------------------------------*/
FoamFile
{
    version     2.0;
    format      ascii;
    arch        "LSB;label=32;scalar=64";
    class       volScalarField;
    location    "800";
    object      turbulenceProperties:epsilon;
}
// * * * * * * * * * * * * * * * * * * * * * * * * * * * * * * * * * * * * * //

dimensions      [0 2 -3 0 0 0 0];

internalField   nonuniform List<scalar> 
11040
(
95.2745
99.8452
3.56609
1.16247
17.409
19.121
18.0518
15.8675
13.7938
12.4972
11.3396
10.3444
9.566
8.97246
8.51155
8.281
8.26256
8.48162
8.91462
9.56584
10.4695
11.6082
13.0116
14.7403
16.812
19.2805
22.048
24.7251
26.9891
28.4549
28.7347
27.5543
25.0379
21.644
18.0869
12.0246
4.7266
1.75492
0.298231
2.26001
7.06014
0.864817
2.86642
28.1589
51.5699
49.7885
5.35118
0.588547
0.0760175
0.00609761
0.0033792
0.0222693
0.0429908
0.0633045
0.0818382
0.0980258
0.114123
0.132144
0.152153
0.172275
0.192762
0.213892
0.236673
0.254239
0.258304
0.245815
0.222073
0.191609
0.153709
0.113501
0.078153
0.0542696
0.0449279
0.0415469
0.0473829
0.0656201
0.101023
0.162862
0.25785
0.59814
0.726883
8.48168
0.328739
0.257898
1.05635
14.8771
96.897
75.5688
16.6258
2.47111
0.628257
0.243923
0.0858785
0.0307126
0.00808923
0.000854015
0.000603906
0.00314446
0.00648133
0.00989163
0.0128745
0.015102
0.0164695
0.0168214
0.0153414
0.0121489
0.00847323
0.00536346
0.00307004
0.00140382
0.000335426
0.000549488
0.00410015
0.0149811
0.0386639
0.0821103
0.154847
0.272484
0.455217
0.697205
1.40756
2.21369
3.59191
0.16932
0.124343
0.0831148
0.198303
14.9207
90.3806
92.972
32.2854
5.43003
1.65795
0.639409
0.310817
0.166293
0.0898469
0.053312
0.0326033
0.0221462
0.016355
0.0134762
0.0125044
0.0126435
0.0138103
0.0162775
0.0199032
0.0236233
0.0263602
0.02727
0.0259466
0.0228681
0.0201499
0.0219725
0.0347571
0.0674394
0.133682
0.252186
0.452736
0.773573
1.20711
2.21474
3.82966
2.4808
0.0939974
0.076544
0.0866238
0.0218884
0.0382282
9.66787
68.6238
99.0556
51.0931
11.8569
3.29487
1.26314
0.65057
0.359387
0.22973
0.154237
0.114696
0.0915321
0.0788103
0.0727341
0.070155
0.0697447
0.0714472
0.0749512
0.0781556
0.0794134
0.0775403
0.0719102
0.0631269
0.0538358
0.0495404
0.0595857
0.0984055
0.186863
0.353112
0.639945
1.10365
1.7499
2.9169
5.2154
2.85866
0.0489593
0.0412825
0.0390895
0.0477706
0.00441387
0.00208048
4.50089
42.5533
92.7368
68.4557
24.7285
6.14066
2.37115
1.10929
0.64539
0.409171
0.291746
0.226051
0.189038
0.16979
0.159551
0.154351
0.152638
0.15389
0.155054
0.153761
0.148013
0.136348
0.118874
0.098516
0.0823473
0.0832688
0.121548
0.225981
0.43494
0.803144
1.40199
2.25439
3.49859
6.13998
3.78052
0.0255376
0.0233269
0.0205772
0.0232832
0.0249402
0.000800159
8.36523e-07
1.30998
21.1174
70.4463
78.4265
42.4324
13.2464
4.15195
1.87958
1.03667
0.658845
0.466658
0.362564
0.309015
0.28032
0.266027
0.259609
0.258838
0.258764
0.255544
0.245791
0.22666
0.19723
0.160393
0.124632
0.106311
0.131465
0.237006
0.471464
0.899024
1.59975
2.6074
3.88977
6.48759
4.73131
0.0136025
0.0130065
0.0126184
0.0116506
0.0135997
0.0149872
2.08736e-05
1.17157e-09
0.196985
7.82278
40.9747
73.9523
58.5555
26.601
8.37828
3.20824
1.63399
1.00518
0.694326
0.537356
0.454964
0.41698
0.399956
0.395975
0.395843
0.39266
0.38041
0.353772
0.309739
0.250604
0.185614
0.133929
0.126741
0.208362
0.436207
0.880464
1.62157
2.69199
3.97079
6.18265
5.27217
0.00742189
0.00721461
0.00724295
0.00712467
0.00658199
0.00834882
0.00770475
0.000110665
9.38908e-05
0.000368987
1.84276
17.3384
51.6465
64.7734
42.8115
18.0585
6.18125
2.70814
1.52179
1.01585
0.766453
0.65262
0.600019
0.581535
0.577508
0.573993
0.560441
0.527658
0.469183
0.38432
0.281311
0.180598
0.11729
0.141511
0.317084
0.716439
1.41263
2.42792
3.62175
5.29841
5.08529
0.00409432
0.00402236
0.00408161
0.00417096
0.00410314
0.00385748
0.00484108
0.00393849
0.000365673
4.26268e-06
0.002072
0.204031
4.93354
25.261
52.7415
53.5706
32.449
13.676
5.14278
2.46469
1.51468
1.12471
0.94673
0.868441
0.836926
0.823251
0.806547
0.768196
0.695439
0.583631
0.43805
0.277085
0.136505
0.0692676
0.142395
0.427494
0.986264
1.82939
2.8299
3.98456
4.16518
0.00227818
0.00225312
0.00229883
0.00237194
0.00243961
0.0023965
0.00233137
0.00265034
0.00262505
0.000702437
1.83616e-06
7.11922e-05
3.23747e-05
0.737883
7.92992
28.6455
48.3602
44.2872
26.2704
11.5673
4.74576
2.51627
1.7576
1.44017
1.28913
1.21508
1.16859
1.11362
1.02622
0.891349
0.705504
0.481825
0.254401
0.0754475
0.0102675
0.126344
0.47492
1.06029
1.77733
2.49188
2.78042
0.00127277
0.00126516
0.0012898
0.00133953
0.00139295
0.00143615
0.00142778
0.00139897
0.00148957
0.00161601
0.000891452
4.80834e-07
1.15192e-07
0.00117409
0.0362172
1.36988
9.53412
27.9012
42.2412
37.5846
22.9133
11.2571
5.49252
3.21855
2.35231
2.00484
1.83164
1.70171
1.56489
1.39159
1.1668
0.891905
0.590664
0.307977
0.103232
0.0392825
0.159979
0.466368
0.876464
1.24484
1.4329
0.000711865
0.000710617
0.000722995
0.000751472
0.000787837
0.000823232
0.000851897
0.000859489
0.000847154
0.000866578
0.000967802
0.000730559
3.50125e-05
2.00336e-07
1.09448e-05
0.0028514
0.0815023
1.65919
9.23857
24.4469
36.028
33.4048
23.3007
14.1728
8.26832
5.12957
3.63407
2.94323
2.5915
2.33088
2.05053
1.7203
1.35451
0.992621
0.68617
0.485132
0.425535
0.506984
0.671502
0.796588
0.781987
0.000397491
0.00039835
0.000404316
0.000419682
0.000441698
0.000465769
0.000488806
0.000508718
0.000519903
0.000517929
0.00051877
0.000572599
0.000538554
0.000175026
2.10513e-08
3.12423e-09
8.20955e-05
0.00431322
0.0978471
1.48191
7.52849
19.095
29.1675
31.1548
26.4271
19.8284
14.0139
9.69036
6.82561
5.06472
4.00896
3.34657
2.87388
2.4871
2.1631
1.91507
1.76375
1.70709
1.72246
1.72824
1.49138
0.00022097
0.000222294
0.00022514
0.000233271
0.000245825
0.000260637
0.000276195
0.000291357
0.000305116
0.000315449
0.000318128
0.000319227
0.000339544
0.00034736
0.000268596
1.92436e-05
1.45076e-07
1.94562e-11
0.000256138
0.0036549
0.069312
0.909012
4.20863
11.0379
19.4733
25.6111
27.268
25.3101
21.7247
17.7932
14.0818
10.8969
8.4094
6.63894
5.49709
4.84756
4.56199
4.49554
4.53088
4.59884
4.23207
0.000122021
0.000123154
0.00012451
0.00012875
0.000135701
0.000144281
0.000153783
0.000163789
0.000173767
0.000183107
0.00019105
0.000195513
0.000198445
0.000202382
0.000221216
0.000197298
0.000118778
4.75342e-07
1.51844e-08
8.7805e-13
0.000312205
0.00181508
0.0136695
0.222243
1.21617
3.83759
8.41928
14.1599
19.4791
23.0785
24.5826
24.3363
22.9051
20.7795
18.3835
16.0542
14.0407
12.4279
11.2728
10.6635
9.83386
6.71682e-05
6.79523e-05
6.86209e-05
7.08429e-05
7.46345e-05
7.94345e-05
8.49309e-05
9.09501e-05
9.72992e-05
0.000103689
0.000109826
0.000115366
0.000119823
0.000122476
0.000125911
0.00013167
0.000140612
0.000111233
4.136e-05
2.50082e-08
3.9428e-09
3.92667e-13
2.31368e-05
0.000924862
5.25298e-09
0.0113904
0.115782
0.544284
1.66296
3.78552
6.96758
10.9096
15.076
18.918
22.0381
24.2103
25.4473
25.8335
25.6166
25.3042
24.0433
3.76905e-05
3.82105e-05
3.85886e-05
3.98307e-05
4.19727e-05
4.4718e-05
4.79147e-05
5.14974e-05
5.5374e-05
5.94271e-05
6.35149e-05
6.75018e-05
7.12618e-05
7.46049e-05
7.71355e-05
7.93567e-05
8.21238e-05
8.83582e-05
8.97761e-05
6.75692e-05
1.97287e-05
1.19393e-08
2.72092e-09
5.7066e-12
2.87275e-13
2.8639e-05
0.00068949
0.00083112
0.000175905
0.00916109
0.0704905
0.285701
0.809942
1.82505
3.47398
5.80238
8.74562
12.1563
15.7838
19.5662
22.5409
2.19488e-05
2.22985e-05
2.25342e-05
2.32702e-05
2.45352e-05
2.61663e-05
2.80898e-05
3.02847e-05
3.27113e-05
3.53062e-05
3.8e-05
4.07187e-05
4.33894e-05
4.59581e-05
4.8322e-05
5.04154e-05
5.20064e-05
5.39002e-05
5.65214e-05
6.01975e-05
5.92915e-05
4.24879e-05
1.87228e-05
1.83451e-07
5.76077e-09
2.01914e-10
1.22901e-12
0
1.10952e-08
1.98536e-05
0.000468254
0.000545611
0.000272791
0.000366274
0.00627655
0.0410021
0.149237
0.402903
0.888543
1.7112
2.90922
1.32561e-05
1.34863e-05
1.3638e-05
1.409e-05
1.48608e-05
1.58572e-05
1.70414e-05
1.84058e-05
1.9935e-05
2.15977e-05
2.3361e-05
2.51912e-05
2.70466e-05
2.88848e-05
3.06655e-05
3.2358e-05
3.39039e-05
3.52581e-05
3.64461e-05
3.79622e-05
4.0077e-05
4.19883e-05
4.17291e-05
3.32237e-05
1.88549e-05
6.79451e-06
5.23337e-08
2.525e-09
1.41219e-10
3.52002e-11
8.36905e-14
0
0
5.23881e-08
1.32557e-05
0.000306231
0.00046204
0.0001741
5.10035e-05
9.27448e-06
0.00331905
8.22486e-06
8.375e-06
8.47525e-06
8.7605e-06
9.24183e-06
9.86496e-06
1.06095e-05
1.14726e-05
1.24467e-05
1.35166e-05
1.46652e-05
1.5877e-05
1.71321e-05
1.84066e-05
1.9676e-05
2.09166e-05
2.21096e-05
2.32326e-05
2.42546e-05
2.51748e-05
2.60487e-05
2.71987e-05
2.85143e-05
3.02248e-05
3.02202e-05
2.8612e-05
2.28505e-05
1.43165e-05
6.63392e-06
1.92675e-06
5.57861e-09
7.5736e-10
8.10185e-11
3.28981e-11
8.48347e-12
1.28082e-13
0
0
0
1.18586e-10
4.2764e-06
5.2143e-06
5.3124e-06
5.38062e-06
5.56487e-06
5.87169e-06
6.26899e-06
6.74543e-06
7.29985e-06
7.92831e-06
8.6228e-06
9.37378e-06
1.01734e-05
1.10115e-05
1.1875e-05
1.27503e-05
1.36235e-05
1.44809e-05
1.53102e-05
1.61005e-05
1.68452e-05
1.75072e-05
1.81121e-05
1.86953e-05
1.94201e-05
2.03014e-05
2.11666e-05
2.21754e-05
2.23462e-05
2.1296e-05
1.94293e-05
1.56145e-05
1.06765e-05
6.07861e-06
2.76887e-06
8.24074e-07
1.47706e-08
6.52501e-10
4.6137e-11
2.54255e-11
1.21662e-11
4.44954e-12
3.36276e-06
3.42706e-06
3.4744e-06
3.59547e-06
3.79416e-06
4.05132e-06
4.36048e-06
4.72099e-06
5.13057e-06
5.58467e-06
6.07799e-06
6.60611e-06
7.16369e-06
7.74303e-06
8.33612e-06
8.93483e-06
9.53076e-06
1.01154e-05
1.06808e-05
1.12242e-05
1.17263e-05
1.21791e-05
1.25899e-05
1.29507e-05
1.33026e-05
1.36629e-05
1.41062e-05
1.46341e-05
1.51772e-05
1.5626e-05
1.61073e-05
1.61646e-05
1.57153e-05
1.47526e-05
1.34299e-05
1.13825e-05
8.83831e-06
6.1623e-06
3.84232e-06
2.07027e-06
8.75568e-07
2.19909e-06
2.24147e-06
2.27486e-06
2.35558e-06
2.48597e-06
2.65455e-06
2.85753e-06
3.09443e-06
3.36379e-06
3.66289e-06
3.98861e-06
4.33823e-06
4.70862e-06
5.09527e-06
5.49319e-06
5.89732e-06
6.30245e-06
6.70309e-06
7.09368e-06
7.47166e-06
7.82397e-06
8.14572e-06
8.44212e-06
8.70206e-06
8.92703e-06
9.12293e-06
9.29543e-06
9.45824e-06
9.62859e-06
9.80462e-06
1.00088e-05
1.02361e-05
1.04606e-05
1.06599e-05
1.08037e-05
1.09433e-05
1.0965e-05
1.0809e-05
1.04662e-05
9.91532e-06
9.31398e-06
1.45456e-06
1.48265e-06
1.50648e-06
1.56093e-06
1.64744e-06
1.75911e-06
1.89366e-06
2.05067e-06
2.22913e-06
2.42734e-06
2.64334e-06
2.87538e-06
3.12151e-06
3.37894e-06
3.64445e-06
3.91477e-06
4.1865e-06
4.456e-06
4.71946e-06
4.97502e-06
5.21323e-06
5.4308e-06
5.63112e-06
5.80728e-06
5.95928e-06
6.08909e-06
6.19717e-06
6.28383e-06
6.351e-06
6.40151e-06
6.43737e-06
6.4637e-06
6.48431e-06
6.50355e-06
6.5205e-06
6.53892e-06
6.55798e-06
6.57692e-06
6.59362e-06
6.58996e-06
6.59356e-06
9.71149e-07
9.89899e-07
1.00708e-06
1.04419e-06
1.10213e-06
1.1768e-06
1.26674e-06
1.37158e-06
1.49059e-06
1.62265e-06
1.76648e-06
1.92093e-06
2.08465e-06
2.25582e-06
2.43234e-06
2.61205e-06
2.79264e-06
2.97167e-06
3.1465e-06
3.3158e-06
3.47296e-06
3.61584e-06
3.74689e-06
3.86108e-06
3.95829e-06
4.03983e-06
4.10633e-06
4.15805e-06
4.19535e-06
4.21894e-06
4.22938e-06
4.22747e-06
4.21393e-06
4.19036e-06
4.15838e-06
4.11847e-06
4.0717e-06
4.02037e-06
3.96747e-06
3.91083e-06
3.85522e-06
6.53422e-07
6.66027e-07
6.78525e-07
7.04059e-07
7.43217e-07
7.93547e-07
8.54107e-07
9.24567e-07
1.00438e-06
1.0928e-06
1.18892e-06
1.29198e-06
1.40102e-06
1.51479e-06
1.6319e-06
1.75087e-06
1.87013e-06
1.98802e-06
2.10272e-06
2.21328e-06
2.31514e-06
2.40702e-06
2.49081e-06
2.56299e-06
2.62332e-06
2.67267e-06
2.71151e-06
2.74012e-06
2.75891e-06
2.76846e-06
2.76934e-06
2.7622e-06
2.74746e-06
2.72594e-06
2.69845e-06
2.66526e-06
2.62677e-06
2.58386e-06
2.5382e-06
2.48818e-06
2.43897e-06
4.42442e-07
4.50995e-07
4.60167e-07
4.77897e-07
5.04586e-07
5.38774e-07
5.79833e-07
6.27472e-07
6.81285e-07
7.40735e-07
8.05205e-07
8.74138e-07
9.46862e-07
1.02249e-06
1.10007e-06
1.1786e-06
1.25701e-06
1.33413e-06
1.40873e-06
1.48015e-06
1.54526e-06
1.60337e-06
1.65596e-06
1.7006e-06
1.73712e-06
1.76612e-06
1.78795e-06
1.80283e-06
1.81109e-06
1.81316e-06
1.80951e-06
1.80065e-06
1.78695e-06
1.76904e-06
1.74749e-06
1.72255e-06
1.69454e-06
1.66402e-06
1.63204e-06
1.59763e-06
1.56337e-06
3.01141e-07
3.07007e-07
3.13799e-07
3.26228e-07
3.44574e-07
3.67973e-07
3.95994e-07
4.28387e-07
4.64847e-07
5.04988e-07
5.48372e-07
5.9459e-07
6.43165e-07
6.93464e-07
7.44828e-07
7.96565e-07
8.47938e-07
8.98148e-07
9.46352e-07
9.92097e-07
1.03328e-06
1.06953e-06
1.10203e-06
1.12914e-06
1.15073e-06
1.16725e-06
1.17897e-06
1.18607e-06
1.18879e-06
1.18747e-06
1.18244e-06
1.17406e-06
1.16262e-06
1.14853e-06
1.1322e-06
1.11381e-06
1.0936e-06
1.07191e-06
1.04944e-06
1.02581e-06
1.00135e-06
2.05821e-07
2.09904e-07
2.1498e-07
2.23781e-07
2.36504e-07
2.52639e-07
2.71886e-07
2.94036e-07
3.18859e-07
3.46074e-07
3.75367e-07
4.06434e-07
4.38935e-07
4.72424e-07
5.06423e-07
5.40464e-07
5.74045e-07
6.06618e-07
6.37612e-07
6.66723e-07
6.92543e-07
7.14911e-07
7.34738e-07
7.50927e-07
7.63404e-07
7.72493e-07
7.7841e-07
7.813e-07
7.81344e-07
7.78776e-07
7.7384e-07
7.6679e-07
7.57825e-07
7.4723e-07
7.35278e-07
7.22096e-07
7.07839e-07
6.92736e-07
6.77204e-07
6.61204e-07
6.43974e-07
1.41134e-07
1.44026e-07
1.47859e-07
1.54156e-07
1.63058e-07
1.74271e-07
1.87578e-07
2.02812e-07
2.19796e-07
2.38327e-07
2.58176e-07
2.79116e-07
3.00906e-07
3.23231e-07
3.45744e-07
3.68127e-07
3.90041e-07
4.11116e-07
4.30966e-07
4.49392e-07
4.65459e-07
4.79117e-07
4.91063e-07
5.00565e-07
5.07588e-07
5.12368e-07
5.15072e-07
5.15811e-07
5.14719e-07
5.1196e-07
5.07708e-07
5.02138e-07
4.95388e-07
4.87647e-07
4.79097e-07
4.69823e-07
4.59928e-07
4.49554e-07
4.38962e-07
4.28247e-07
4.1625e-07
9.70182e-08
9.91108e-08
1.02032e-07
1.06587e-07
1.12874e-07
1.20729e-07
1.29993e-07
1.40534e-07
1.52218e-07
1.64895e-07
1.78398e-07
1.92558e-07
2.07204e-07
2.22113e-07
2.37036e-07
2.51756e-07
2.66045e-07
2.79657e-07
2.92333e-07
3.03948e-07
3.13885e-07
3.22148e-07
3.29264e-07
3.34748e-07
3.38584e-07
3.40948e-07
3.41966e-07
3.41719e-07
3.40303e-07
3.37834e-07
3.34431e-07
3.30213e-07
3.25273e-07
3.19734e-07
3.13715e-07
3.07275e-07
3.00478e-07
2.93412e-07
2.86241e-07
2.79107e-07
2.7078e-07
6.6811e-08
6.83603e-08
7.06074e-08
7.39371e-08
7.84224e-08
8.39716e-08
9.04695e-08
9.78117e-08
1.05897e-07
1.14615e-07
1.23843e-07
1.33456e-07
1.4333e-07
1.5331e-07
1.6322e-07
1.72908e-07
1.82226e-07
1.91009e-07
1.99087e-07
2.06381e-07
2.12488e-07
2.17436e-07
2.21617e-07
2.24711e-07
2.26714e-07
2.27754e-07
2.27926e-07
2.27289e-07
2.25912e-07
2.23875e-07
2.21258e-07
2.18143e-07
2.1459e-07
2.1068e-07
2.06491e-07
2.02058e-07
1.97427e-07
1.92646e-07
1.87823e-07
1.83092e-07
1.77348e-07
4.6062e-08
4.72366e-08
4.89788e-08
5.14394e-08
5.46722e-08
5.86275e-08
6.32217e-08
6.83731e-08
7.40054e-08
8.00369e-08
8.63775e-08
9.29349e-08
9.96184e-08
1.06321e-07
1.1292e-07
1.1931e-07
1.25393e-07
1.31064e-07
1.36212e-07
1.40788e-07
1.44532e-07
1.47477e-07
1.49914e-07
1.51629e-07
1.52624e-07
1.52994e-07
1.52804e-07
1.521e-07
1.50928e-07
1.49342e-07
1.47397e-07
1.45146e-07
1.42632e-07
1.39903e-07
1.37012e-07
1.33982e-07
1.30841e-07
1.27616e-07
1.24381e-07
1.21247e-07
1.17275e-07
3.17753e-08
3.26855e-08
3.40459e-08
3.58831e-08
3.82374e-08
4.10838e-08
4.43603e-08
4.80041e-08
5.19575e-08
5.61596e-08
6.05438e-08
6.50424e-08
6.95892e-08
7.411e-08
7.85213e-08
8.27471e-08
8.67252e-08
9.03876e-08
9.36641e-08
9.65243e-08
9.88017e-08
1.00527e-07
1.01915e-07
1.02823e-07
1.03257e-07
1.03284e-07
1.02954e-07
1.02298e-07
1.01348e-07
1.00143e-07
9.87184e-08
9.71093e-08
9.53433e-08
9.34524e-08
9.14695e-08
8.94088e-08
8.72895e-08
8.51243e-08
8.29668e-08
8.08904e-08
7.81813e-08
2.19214e-08
2.26401e-08
2.3708e-08
2.50934e-08
2.68264e-08
2.88955e-08
3.12546e-08
3.38554e-08
3.6654e-08
3.9605e-08
4.26592e-08
4.5767e-08
4.88799e-08
5.19476e-08
5.49132e-08
5.77239e-08
6.034e-08
6.27196e-08
6.4819e-08
6.66208e-08
6.80198e-08
6.90406e-08
6.98392e-08
7.03192e-08
7.04867e-08
7.03899e-08
7.00634e-08
6.95288e-08
6.88084e-08
6.79272e-08
6.69096e-08
6.57789e-08
6.45528e-08
6.32519e-08
6.18981e-08
6.05001e-08
5.90706e-08
5.7614e-08
5.61713e-08
5.47942e-08
5.29123e-08
1.51179e-08
1.56939e-08
1.65358e-08
1.75901e-08
1.88796e-08
2.03994e-08
2.21151e-08
2.39896e-08
2.59892e-08
2.80801e-08
3.02256e-08
3.23895e-08
3.45364e-08
3.66311e-08
3.8635e-08
4.05114e-08
4.22344e-08
4.37785e-08
4.51165e-08
4.62383e-08
4.70783e-08
4.76569e-08
4.80878e-08
4.83066e-08
4.83198e-08
4.81625e-08
4.78595e-08
4.74262e-08
4.68782e-08
4.62324e-08
4.5505e-08
4.47111e-08
4.38624e-08
4.29715e-08
4.20526e-08
4.11102e-08
4.01538e-08
3.91818e-08
3.82297e-08
3.73101e-08
3.60631e-08
1.04191e-08
1.08854e-08
1.15513e-08
1.2361e-08
1.33308e-08
1.44587e-08
1.5719e-08
1.70832e-08
1.85258e-08
2.00211e-08
2.15423e-08
2.30628e-08
2.45576e-08
2.6003e-08
2.73736e-08
2.86446e-08
2.98002e-08
3.08254e-08
3.17047e-08
3.24324e-08
3.29679e-08
3.33238e-08
3.35825e-08
3.3699e-08
3.36783e-08
3.35448e-08
3.33159e-08
3.30021e-08
3.26135e-08
3.21616e-08
3.16575e-08
3.11112e-08
3.05303e-08
2.99231e-08
2.92995e-08
2.86623e-08
2.80178e-08
2.73626e-08
2.67247e-08
2.61141e-08
2.5225e-08
7.1751e-09
7.55464e-09
8.08243e-09
8.70953e-09
9.44656e-09
1.02922e-08
1.12267e-08
1.22285e-08
1.32787e-08
1.4358e-08
1.54464e-08
1.65242e-08
1.75729e-08
1.8575e-08
1.95131e-08
2.03698e-08
2.11348e-08
2.17995e-08
2.23552e-08
2.27994e-08
2.31085e-08
2.32939e-08
2.34153e-08
2.34428e-08
2.33812e-08
2.32484e-08
2.30569e-08
2.28139e-08
2.25266e-08
2.22024e-08
2.18485e-08
2.14712e-08
2.10755e-08
2.06661e-08
2.02492e-08
1.98258e-08
1.94012e-08
1.89691e-08
1.85584e-08
1.81397e-08
1.76036e-08
4.93678e-09
5.24643e-09
5.6653e-09
6.15422e-09
6.71915e-09
7.35857e-09
8.05746e-09
8.79931e-09
9.56996e-09
1.03557e-08
1.11422e-08
1.19156e-08
1.26632e-08
1.33745e-08
1.40391e-08
1.46461e-08
1.51885e-08
1.56614e-08
1.60591e-08
1.63802e-08
1.66094e-08
1.67507e-08
1.68477e-08
1.68789e-08
1.68473e-08
1.67656e-08
1.66424e-08
1.64828e-08
1.62917e-08
1.60744e-08
1.58361e-08
1.55813e-08
1.53136e-08
1.50363e-08
1.4754e-08
1.44679e-08
1.4181e-08
1.38889e-08
1.36106e-08
1.33411e-08
1.29119e-08
3.39343e-09
3.64723e-09
3.98104e-09
4.36408e-09
4.79867e-09
5.28369e-09
5.80865e-09
6.36151e-09
6.9314e-09
7.50776e-09
8.08011e-09
8.63807e-09
9.17123e-09
9.66874e-09
1.01212e-08
1.05218e-08
1.0868e-08
1.11591e-08
1.13941e-08
1.1573e-08
1.16885e-08
1.17475e-08
1.17795e-08
1.17703e-08
1.17228e-08
1.16459e-08
1.15457e-08
1.14255e-08
1.12884e-08
1.11376e-08
1.09762e-08
1.08067e-08
1.06311e-08
1.04514e-08
1.02699e-08
1.00864e-08
9.90482e-09
9.71738e-09
9.54998e-09
9.34671e-09
9.16819e-09
2.33326e-09
2.54236e-09
2.81025e-09
3.1123e-09
3.44699e-09
3.81344e-09
4.20574e-09
4.61698e-09
5.04018e-09
5.46734e-09
5.88985e-09
6.30079e-09
6.69614e-09
7.07471e-09
7.43358e-09
7.76449e-09
8.05966e-09
8.31519e-09
8.52888e-09
8.70119e-09
8.82664e-09
8.90477e-09
8.95991e-09
8.98141e-09
8.97167e-09
8.93749e-09
8.88339e-09
8.81206e-09
8.72611e-09
8.62836e-09
8.52143e-09
8.40767e-09
8.2888e-09
8.16638e-09
8.04292e-09
7.919e-09
7.79583e-09
7.67066e-09
7.55316e-09
7.44765e-09
7.21344e-09
1.61222e-09
1.78269e-09
1.9961e-09
2.23378e-09
2.49188e-09
2.76883e-09
3.06055e-09
3.36319e-09
3.6739e-09
3.98918e-09
4.30283e-09
4.60513e-09
4.88404e-09
5.12834e-09
5.33401e-09
5.50765e-09
5.65711e-09
5.78435e-09
5.88877e-09
5.96855e-09
6.02139e-09
6.05136e-09
6.07065e-09
6.07219e-09
6.05715e-09
6.0298e-09
5.99284e-09
5.94766e-09
5.89548e-09
5.83767e-09
5.77546e-09
5.70981e-09
5.64159e-09
5.57136e-09
5.50015e-09
5.42725e-09
5.35597e-09
5.27826e-09
5.21944e-09
5.10296e-09
5.11926e-09
1.12346e-09
1.25926e-09
1.42337e-09
1.60327e-09
1.79688e-09
2.00472e-09
2.2241e-09
2.45039e-09
2.67918e-09
2.90795e-09
3.13738e-09
3.37155e-09
3.61533e-09
3.87108e-09
4.13138e-09
4.3739e-09
4.58148e-09
4.75442e-09
4.8963e-09
5.0114e-09
5.09812e-09
5.15448e-09
5.19581e-09
5.21741e-09
5.22148e-09
5.21203e-09
5.19177e-09
5.16246e-09
5.12581e-09
5.08361e-09
5.0375e-09
4.98899e-09
4.93907e-09
4.88872e-09
4.83948e-09
4.79216e-09
4.74628e-09
4.70285e-09
4.65876e-09
4.65094e-09
4.46937e-09
7.82931e-10
8.93627e-10
1.01903e-09
1.14896e-09
1.28367e-09
1.42793e-09
1.58466e-09
1.75397e-09
1.93241e-09
2.1117e-09
2.27925e-09
2.42135e-09
2.52874e-09
2.60014e-09
2.64805e-09
2.70087e-09
2.7716e-09
2.84875e-09
2.92341e-09
2.98974e-09
3.0463e-09
3.09495e-09
3.13794e-09
3.17184e-09
3.1968e-09
3.2146e-09
3.2264e-09
3.23273e-09
3.23409e-09
3.23106e-09
3.22417e-09
3.21374e-09
3.20024e-09
3.18376e-09
3.16476e-09
3.14243e-09
3.11991e-09
3.08868e-09
3.076e-09
2.98342e-09
3.12033e-09
5.43671e-10
6.44773e-10
7.53608e-10
8.57091e-10
9.52448e-10
1.04385e-09
1.13631e-09
1.23542e-09
1.34784e-09
1.48117e-09
1.64294e-09
1.83891e-09
2.06968e-09
2.32966e-09
2.59838e-09
2.82573e-09
2.98943e-09
3.11584e-09
3.21653e-09
3.29695e-09
3.3552e-09
3.39217e-09
3.41692e-09
3.42815e-09
3.42825e-09
3.42003e-09
3.40551e-09
3.38625e-09
3.36376e-09
3.33955e-09
3.31496e-09
3.29127e-09
3.26928e-09
3.24988e-09
3.23422e-09
3.22374e-09
3.21633e-09
3.21799e-09
3.20994e-09
3.2797e-09
3.06912e-09
3.97354e-10
4.82574e-10
5.74359e-10
6.65885e-10
7.52919e-10
8.33195e-10
9.03339e-10
9.60117e-10
1.00226e-09
1.03087e-09
1.04899e-09
1.06054e-09
1.06976e-09
1.07754e-09
1.08789e-09
1.12645e-09
1.19589e-09
1.2754e-09
1.35779e-09
1.43793e-09
1.51423e-09
1.58634e-09
1.65474e-09
1.71836e-09
1.77637e-09
1.82892e-09
1.87617e-09
1.91803e-09
1.95433e-09
1.98493e-09
2.00972e-09
2.02848e-09
2.04117e-09
2.04739e-09
2.04723e-09
2.03977e-09
2.02767e-09
2.00222e-09
1.99097e-09
1.88641e-09
2.05387e-09
4.68181e-10
5.91312e-10
6.63123e-10
6.77062e-10
6.57965e-10
6.43757e-10
6.67041e-10
7.45998e-10
8.829e-10
1.06706e-09
1.27979e-09
1.50002e-09
1.70851e-09
1.89438e-09
2.04698e-09
2.12528e-09
2.13252e-09
2.10684e-09
2.06688e-09
2.02011e-09
1.96404e-09
1.91405e-09
1.86017e-09
1.80588e-09
1.753e-09
1.70196e-09
1.65293e-09
1.60613e-09
1.56168e-09
1.5196e-09
1.47973e-09
1.44196e-09
1.40578e-09
1.37085e-09
1.33717e-09
1.30527e-09
1.27229e-09
1.2428e-09
1.20158e-09
1.2094e-09
1.04253e-09
548.787
366.204
211.409
118.18
60.9794
28.3021
11.1739
3.23944
0.476162
0.0289335
0.0185239
0.00320569
1.00234e-08
8.16621e-06
6.8931e-05
4.73988e-05
3.21828e-05
2.49972e-05
1.9402e-05
1.4824e-05
1.13105e-05
8.57018e-06
6.45542e-06
4.83394e-06
3.59524e-06
2.65794e-06
1.94589e-06
1.4161e-06
1.02081e-06
7.30709e-07
5.18112e-07
3.65392e-07
2.55767e-07
1.7817e-07
1.23473e-07
8.51221e-08
5.83952e-08
3.98607e-08
2.70282e-08
1.82405e-08
1.22186e-08
8.10453e-09
5.3291e-09
3.46092e-09
2.20902e-09
1.38896e-09
8.50452e-10
5.06857e-10
2.98441e-10
1.77028e-10
1.09727e-10
8.26004e-11
7.70101e-11
8.60987e-11
1.03095e-10
1.20747e-10
1.41929e-10
1.5996e-10
1.76828e-10
1.90031e-10
2.00635e-10
2.07755e-10
2.12138e-10
2.13568e-10
2.13321e-10
2.09521e-10
2.06703e-10
1.98434e-10
1.954e-10
1.7946e-10
1.86609e-10
1.53587e-10
1.96336e-10
1.48585e-10
298.709
439.235
310.672
190.735
109.152
57.8337
27.5744
11.0187
3.16507
0.446637
0.0294335
0.0122146
0.00227709
2.24385e-08
2.36874e-06
5.14072e-05
3.75753e-05
2.50137e-05
1.9465e-05
1.50134e-05
1.13978e-05
8.61207e-06
6.47678e-06
4.84248e-06
3.59577e-06
2.65625e-06
1.94319e-06
1.41282e-06
1.01793e-06
7.28249e-07
5.16015e-07
3.63431e-07
2.54106e-07
1.76685e-07
1.22234e-07
8.41007e-08
5.75528e-08
3.9183e-08
2.64757e-08
1.78023e-08
1.18867e-08
7.83859e-09
5.13083e-09
3.31419e-09
2.10123e-09
1.31675e-09
7.99657e-10
4.74925e-10
2.80602e-10
1.68837e-10
1.07599e-10
8.46962e-11
8.12174e-11
9.12248e-11
1.08066e-10
1.25047e-10
1.44948e-10
1.61573e-10
1.77003e-10
1.88736e-10
1.97932e-10
2.03946e-10
2.07315e-10
2.07824e-10
2.07054e-10
2.02642e-10
1.99678e-10
1.91207e-10
1.88463e-10
1.71923e-10
1.80642e-10
1.45751e-10
1.91712e-10
1.42973e-10
102.029
307.036
321.086
239.966
157.173
94.6859
52.3806
25.7125
10.3985
2.9689
0.413218
0.0294144
0.00916966
0.00180111
5.97727e-09
4.41084e-07
3.96539e-05
3.22315e-05
1.98687e-05
1.49427e-05
1.15524e-05
8.71169e-06
6.51812e-06
4.86407e-06
3.60628e-06
2.65795e-06
1.94396e-06
1.41108e-06
1.01585e-06
7.25858e-07
5.14197e-07
3.61559e-07
2.52528e-07
1.75222e-07
1.20975e-07
8.30492e-08
5.66809e-08
3.84722e-08
2.59113e-08
1.73406e-08
1.15367e-08
7.56809e-09
4.92691e-09
3.16482e-09
1.99553e-09
1.24468e-09
7.50931e-10
4.48075e-10
2.67033e-10
1.63442e-10
1.09223e-10
8.9523e-11
8.7843e-11
9.79761e-11
1.13861e-10
1.30696e-10
1.48375e-10
1.63515e-10
1.77096e-10
1.8724e-10
1.95038e-10
1.99571e-10
2.01959e-10
2.01714e-10
2.00168e-10
1.95669e-10
1.91913e-10
1.83556e-10
1.81121e-10
1.64259e-10
1.74132e-10
1.3786e-10
1.86513e-10
1.37204e-10
38.7972
177.619
262.677
247.232
190.168
130.9
82.7178
47.5416
23.965
9.85048
2.84641
0.411767
0.0304759
0.00728379
0.00168726
8.1201e-10
6.39716e-10
2.1229e-05
2.66297e-05
1.60673e-05
1.14492e-05
8.82099e-06
6.63104e-06
4.91272e-06
3.63113e-06
2.67395e-06
1.95466e-06
1.41646e-06
1.01854e-06
7.26794e-07
5.14438e-07
3.61126e-07
2.51835e-07
1.74381e-07
1.20117e-07
8.22633e-08
5.59882e-08
3.78814e-08
2.54296e-08
1.69479e-08
1.12266e-08
7.33069e-09
4.74858e-09
3.03385e-09
1.90442e-09
1.1821e-09
7.10857e-10
4.26286e-10
2.56612e-10
1.60106e-10
1.11673e-10
9.43749e-11
9.3895e-11
1.03774e-10
1.18522e-10
1.34817e-10
1.50425e-10
1.64126e-10
1.75902e-10
1.8466e-10
1.91088e-10
1.94524e-10
1.96016e-10
1.95144e-10
1.93053e-10
1.88435e-10
1.84331e-10
1.76004e-10
1.73984e-10
1.56866e-10
1.67955e-10
1.30341e-10
1.81654e-10
1.31748e-10
18.4705
96.639
184.276
215.988
196.866
155.685
111.8
73.5886
43.7842
22.7117
9.5916
2.87895
0.458002
0.0351443
0.00662474
0.0019048
9.32659e-13
1.40227e-20
1.23026e-05
2.13534e-05
1.32413e-05
8.68154e-06
6.60893e-06
5.01418e-06
3.69213e-06
2.69858e-06
1.9696e-06
1.42773e-06
1.02601e-06
7.30946e-07
5.16578e-07
3.62039e-07
2.52028e-07
1.74158e-07
1.19666e-07
8.17469e-08
5.54822e-08
3.74234e-08
2.50378e-08
1.66274e-08
1.09668e-08
7.13013e-09
4.59824e-09
2.92404e-09
1.82853e-09
1.13085e-09
6.79782e-10
4.09353e-10
2.49184e-10
1.58825e-10
1.14588e-10
9.89593e-11
9.90594e-11
1.08383e-10
1.21942e-10
1.37152e-10
1.50949e-10
1.63251e-10
1.7336e-10
1.80926e-10
1.86048e-10
1.88749e-10
1.89482e-10
1.88072e-10
1.85712e-10
1.80888e-10
1.76896e-10
1.6856e-10
1.6703e-10
1.49701e-10
1.6209e-10
1.23204e-10
1.77086e-10
1.26653e-10
10.6231
52.2341
117.252
165.435
177.377
161.156
131.158
97.7439
66.7554
41.1175
22.0739
9.71524
3.1144
0.569827
0.048617
0.00720617
0.00225319
1.20997e-05
3.38774e-08
2.6144e-06
1.5536e-05
1.17224e-05
6.83607e-06
4.8465e-06
3.71413e-06
2.76252e-06
2.00118e-06
1.44053e-06
1.03466e-06
7.37783e-07
5.20997e-07
3.64383e-07
2.53038e-07
1.74465e-07
1.19594e-07
8.14901e-08
5.51557e-08
3.70912e-08
2.47368e-08
1.63718e-08
1.07567e-08
6.96651e-09
4.47546e-09
2.83521e-09
1.76803e-09
1.0916e-09
6.57457e-10
3.98489e-10
2.45848e-10
1.6056e-10
1.19037e-10
1.04381e-10
1.04426e-10
1.12855e-10
1.25114e-10
1.38781e-10
1.50885e-10
1.61709e-10
1.70302e-10
1.76687e-10
1.80706e-10
1.82657e-10
1.82775e-10
1.80928e-10
1.78376e-10
1.73432e-10
1.6962e-10
1.61334e-10
1.60284e-10
1.42823e-10
1.56427e-10
1.16475e-10
1.72647e-10
1.21907e-10
7.32436
28.6906
70.3435
114.436
141.642
146.779
134.783
112.869
87.0777
61.6581
39.4202
22.0755
10.2754
3.60111
0.782908
0.0828646
0.00867103
0.000677265
6.60201e-05
4.24953e-09
6.52054e-09
6.24755e-06
9.92767e-06
5.97548e-06
3.65285e-06
2.67835e-06
2.03463e-06
1.48507e-06
1.05578e-06
7.46149e-07
5.25965e-07
3.68074e-07
2.55334e-07
1.75568e-07
1.19958e-07
8.14926e-08
5.5011e-08
3.68918e-08
2.45336e-08
1.61845e-08
1.05957e-08
6.83934e-09
4.37988e-09
2.76662e-09
1.72258e-09
1.06363e-09
6.43172e-10
3.93534e-10
2.46698e-10
1.65143e-10
1.25243e-10
1.10854e-10
1.10327e-10
1.17518e-10
1.28306e-10
1.40233e-10
1.50678e-10
1.59971e-10
1.67157e-10
1.72356e-10
1.75439e-10
1.76603e-10
1.76197e-10
1.74009e-10
1.71266e-10
1.66317e-10
1.62625e-10
1.54448e-10
1.53845e-10
1.36334e-10
1.50987e-10
1.10193e-10
1.68344e-10
1.17485e-10
5.83468
16.1705
40.7518
73.2181
102.052
119.003
122.322
114.267
98.4991
78.6374
57.7932
38.5155
22.6828
11.3038
4.40706
1.15937
0.165065
0.0156339
0.000813605
0.000472669
6.88863e-12
1.51898e-08
7.36635e-07
5.82886e-06
5.40589e-06
3.07092e-06
1.92924e-06
1.42196e-06
1.07125e-06
7.7275e-07
5.39833e-07
3.73324e-07
2.57767e-07
1.77172e-07
1.20945e-07
8.19346e-08
5.51058e-08
3.6825e-08
2.44197e-08
1.60654e-08
1.04852e-08
6.7496e-09
4.31105e-09
2.71711e-09
1.6912e-09
1.04575e-09
6.36235e-10
3.93603e-10
2.51157e-10
1.71902e-10
1.32833e-10
1.1804e-10
1.16558e-10
1.222e-10
1.31338e-10
1.41496e-10
1.50281e-10
1.58075e-10
1.63915e-10
1.68005e-10
1.70212e-10
1.70672e-10
1.69803e-10
1.67351e-10
1.64457e-10
1.59542e-10
1.5597e-10
1.47933e-10
1.47751e-10
1.30269e-10
1.4581e-10
1.04363e-10
1.64207e-10
1.13348e-10
4.89758
9.39475
22.978
43.9949
67.3117
86.8594
98.8329
102.105
97.4287
86.5332
71.5398
54.694
38.1652
23.7975
12.8146
5.61295
1.79421
0.354322
0.0382344
0.00282616
0.0011889
9.73134e-06
7.24899e-10
1.62465e-08
1.07129e-06
3.84873e-06
3.11137e-06
1.69178e-06
1.02454e-06
7.33826e-07
5.44173e-07
3.87901e-07
2.66397e-07
1.80258e-07
1.21868e-07
8.23704e-08
5.54004e-08
3.69699e-08
2.44407e-08
1.602e-08
1.04197e-08
6.69336e-09
4.26814e-09
2.68692e-09
1.67373e-09
1.03752e-09
6.36223e-10
3.98342e-10
2.58835e-10
1.80648e-10
1.41602e-10
1.25807e-10
1.22979e-10
1.26835e-10
1.34155e-10
1.42529e-10
1.49648e-10
1.55991e-10
1.6054e-10
1.6361e-10
1.64988e-10
1.64855e-10
1.63577e-10
1.6091e-10
1.57926e-10
1.53059e-10
1.49637e-10
1.41768e-10
1.41973e-10
1.24596e-10
1.40873e-10
9.89675e-11
1.60226e-10
1.09454e-10
3.83124
5.46474
12.4268
24.7876
40.8726
57.4658
71.5262
80.9447
84.7323
82.8368
75.9
65.0741
51.8817
38.0485
25.2463
14.7669
7.28745
2.815
0.75625
0.119315
0.0116044
0.000358774
0.000345399
0