/*--------------------------------*- C++ -*----------------------------------*\
| =========                 |                                                 |
| \\      /  F ield         | OpenFOAM: The Open Source CFD Toolbox           |
|  \\    /   O peration     | Version:  2312                                  |
|   \\  /    A nd           | Website:  www.openfoam.com                      |
|    \\/     M anipulation  |                                                 |
\*---------------------------------------------------------------------------*/
FoamFile
{
    version     2.0;
    format      ascii;
    arch        "LSB;label=32;scalar=64";
    class       volSymmTensorField;
    location    "800";
    object      turbulenceProperties:R;
}
// * * * * * * * * * * * * * * * * * * * * * * * * * * * * * * * * * * * * * //

dimensions      [0 2 -2 0 0 0 0];

internalField   nonuniform List<symmTensor> 
11040
(
(0.283161 0.0751582 -1.3619e-22 0.246747 9.25966e-21 0.276782)
(0.35156 0.0742952 8.14592e-21 0.226848 1.14863e-19 0.30555)
(0.0547268 0.00595353 -1.80874e-20 0.040552 5.62033e-20 0.0462667)
(0.0269164 0.0089292 -5.87922e-20 0.0355249 3.33675e-20 0.0306598)
(0.118474 0.0462083 -2.1308e-20 0.250017 1.90734e-19 0.18394)
(0.13026 0.0568614 -2.91422e-19 0.250166 1.06255e-19 0.189223)
(0.129875 0.0595356 1.66813e-19 0.230788 -1.09575e-18 0.179979)
(0.123744 0.0578133 2.31646e-19 0.205792 -1.60187e-19 0.164593)
(0.11608 0.0543536 9.90971e-20 0.181114 -2.87144e-20 0.148492)
(0.111898 0.052258 9.21482e-20 0.164946 1.46425e-19 0.138451)
(0.10731 0.0496127 -8.14539e-20 0.150492 3.47178e-19 0.128911)
(0.103179 0.0470751 -1.21456e-19 0.138058 2.61075e-19 0.120669)
(0.0998348 0.044826 2.02291e-20 0.127778 -1.4926e-19 0.113898)
(0.097414 0.043015 2.50955e-20 0.119688 1.4608e-19 0.108641)
(0.095658 0.0414928 -1.1266e-20 0.112966 1.08627e-20 0.104435)
(0.0955305 0.0407836 -4.25974e-21 0.108704 -1.87444e-19 0.10225)
(0.0971193 0.0409113 5.17548e-20 0.106629 -6.15446e-22 0.102028)
(0.100703 0.0419641 -5.10379e-21 0.106783 3.4085e-19 0.103918)
(0.106102 0.0437939 -2.9397e-20 0.108724 3.00165e-21 0.107609)
(0.113347 0.0463578 4.78065e-21 0.112271 -4.97895e-20 0.113032)
(0.122733 0.049736 2.26347e-20 0.117525 3.81816e-20 0.120365)
(0.133924 0.0538327 -2.49028e-20 0.124391 1.1584e-19 0.129395)
(0.146794 0.0586647 9.9404e-22 0.133006 -9.56855e-20 0.140157)
(0.16172 0.0642922 1.28494e-20 0.143358 2.47207e-19 0.152813)
(0.178862 0.0707347 -7.52719e-20 0.155394 -2.2321e-19 0.167397)
(0.198907 0.0783015 -4.03717e-20 0.16967 -5.23604e-19 0.184534)
(0.221303 0.0867432 1.10024e-20 0.185666 -2.44756e-19 0.20369)
(0.24313 0.0948402 3.29408e-20 0.200985 7.0229e-20 0.222199)
(0.262516 0.101879 -2.22449e-20 0.214201 -2.01178e-19 0.238409)
(0.277232 0.107043 1.36402e-20 0.223687 -4.7086e-19 0.250397)
(0.284899 0.109472 1.19818e-19 0.227723 3.38804e-19 0.256133)
(0.283515 0.108414 1.97402e-20 0.224779 -2.813e-20 0.253856)
(0.273414 0.104092 1.03603e-19 0.215307 9.54037e-19 0.243957)
(0.258105 0.0980402 -9.02876e-20 0.202359 5.83337e-19 0.229692)
(0.244598 0.0931421 4.55125e-20 0.191718 1.03725e-20 0.217365)
(0.195438 0.0747931 1.27565e-19 0.154631 9.12814e-19 0.174055)
(0.102803 0.0392925 7.90427e-21 0.0839697 1.74633e-19 0.092595)
(0.061183 0.0247224 -4.02474e-20 0.0544378 5.13922e-19 0.0566359)
(0.019724 0.0094949 -4.28652e-19 0.0301329 -1.11157e-18 0.0243458)
(0.0559699 -0.0270083 -9.32468e-22 0.0875809 -9.45964e-19 0.0697698)
(0.0870157 -0.0181997 2.01382e-19 0.209241 5.40386e-20 0.137976)
(0.0241776 -0.00176841 1.74696e-22 0.0212437 -5.10218e-22 0.0219862)
(0.0597528 0.00137128 2.06296e-20 0.0384424 3.99588e-21 0.0411394)
(0.20165 0.027375 4.8719e-20 0.111357 -2.57018e-19 0.158473)
(0.397844 0.0304788 7.34561e-20 0.166282 -1.66506e-19 0.283088)
(0.788525 -0.0209631 8.19316e-20 0.300852 -4.88221e-19 0.543978)
(0.248821 -0.0484237 5.60838e-19 0.116481 -1.19111e-18 0.181886)
(0.0743059 -0.0188388 -8.15727e-19 0.0400678 3.19702e-18 0.0558128)
(0.023882 -0.00760988 -8.19675e-19 0.0150907 2.11543e-18 0.0197458)
(0.00553058 -0.00227914 -7.38118e-20 0.00470665 -1.51751e-19 0.00528518)
(0.00249938 0.00118968 -1.01984e-19 0.00478549 3.95722e-20 0.00380655)
(0.00693001 0.0034472 4.51088e-19 0.0112172 -1.13389e-18 0.00903987)
(0.00973968 0.00484521 -1.92918e-21 0.0145735 -7.32801e-20 0.0120069)
(0.0119081 0.005887 -1.62402e-19 0.0164262 6.64566e-19 0.0140228)
(0.0135279 0.00660648 -1.1019e-19 0.017708 3.15559e-20 0.0153948)
(0.0148055 0.00711911 -4.33328e-20 0.0183053 -1.6647e-19 0.0163166)
(0.0160484 0.00758233 1.03248e-20 0.0188545 5.70438e-19 0.0171769)
(0.0175023 0.00811848 -1.4121e-20 0.0195988 1.90204e-19 0.0182426)
(0.019204 0.00874081 -8.82792e-21 0.0205428 -5.31795e-19 0.019533)
(0.0209803 0.00936528 -2.2875e-20 0.0214983 -2.46243e-20 0.020859)
(0.0228441 0.00998732 -7.13985e-21 0.0224232 7.94627e-20 0.0222281)
(0.0248404 0.0106194 -1.06094e-20 0.0233516 -1.45921e-20 0.0236758)
(0.0270145 0.0112909 3.01963e-20 0.0243838 -2.67364e-19 0.0252663)
(0.028849 0.0118215 2.30919e-20 0.0251939 3.76838e-19 0.0265615)
(0.0298406 0.0120097 -4.5333e-20 0.0253255 -3.43941e-19 0.0271168)
(0.0298143 0.0118058 -6.34466e-21 0.0246739 2.79192e-19 0.026807)
(0.0293018 0.0114481 7.28149e-20 0.0237341 9.0365e-19 0.026135)
(0.0285418 0.0110447 1.36401e-19 0.0227343 5.00314e-19 0.0253289)
(0.0267788 0.0103242 -3.36518e-20 0.0211381 1.39241e-19 0.0237648)
(0.0239814 0.00930726 -9.00973e-20 0.0190008 2.77935e-19 0.0214685)
(0.020517 0.00815645 4.39406e-20 0.016692 4.9534e-19 0.0188023)
(0.0172917 0.00722041 -1.09184e-19 0.0150237 -7.55905e-19 0.0165923)
(0.0154261 0.00695139 -5.46151e-20 0.0152093 -1.23732e-18 0.0160121)
(0.0138818 0.00681744 -1.26484e-19 0.0167809 -2.58395e-18 0.0163283)
(0.0135408 0.00691252 7.06422e-20 0.0206344 -1.28079e-18 0.0184125)
(0.0148572 0.00729428 -9.2903e-20 0.0272433 1.19701e-19 0.0228473)
(0.017832 0.00803553 -4.31124e-19 0.0366536 -3.93743e-18 0.0298121)
(0.0227956 0.00960285 -6.93631e-20 0.0493798 -3.44177e-19 0.0394174)
(0.030066 0.0122108 -4.99371e-19 0.066646 -2.35513e-18 0.0509753)
(0.0458098 0.0157266 1.23941e-18 0.108677 5.37139e-18 0.0829449)
(0.0650357 0.0303019 8.18052e-19 0.119361 4.85304e-18 0.0882286)
(0.246177 -0.112805 -3.99609e-19 0.44328 -6.70576e-19 0.415737)
(0.0146086 -0.00148392 -1.89051e-22 0.0129939 -2.72569e-22 0.0139429)
(0.0121911 -0.00193847 -4.96362e-21 0.0126472 -1.2707e-20 0.0123133)
(0.0338978 0.00357131 1.56557e-20 0.0212876 7.78063e-20 0.0270106)
(0.156298 0.0163936 5.27044e-20 0.0794849 8.1442e-20 0.118837)
(0.90766 0.04791 -7.48899e-21 0.350563 -3.73596e-20 0.632451)
(1.23035 -0.0348661 -3.03333e-19 0.469522 1.18985e-18 0.847578)
(0.615107 -0.0975643 2.5528e-20 0.268894 1.00143e-20 0.440922)
(0.221531 -0.0539233 9.46307e-20 0.116913 -2.45721e-18 0.163786)
(0.100466 -0.028488 -1.67558e-19 0.0579892 2.56479e-20 0.0785354)
(0.0592474 -0.0176169 2.397e-19 0.0352729 -6.99875e-19 0.0475954)
(0.0327521 -0.010494 -4.40913e-19 0.0208243 1.04044e-18 0.0269294)
(0.0183458 -0.00632976 7.66388e-19 0.0125906 -2.08589e-18 0.0154409)
(0.00913299 -0.00306679 -3.97079e-20 0.00606412 -6.91775e-20 0.00768609)
(0.00307365 -0.000845122 1.54776e-19 0.00172774 -9.12433e-19 0.00240622)
(0.00240153 0.000744484 2.44646e-20 0.00147138 9.54292e-19 0.00199953)
(0.00477424 0.00190334 -7.91281e-20 0.00388893 -3.64491e-19 0.0043826)
(0.00668107 0.00268226 -3.37911e-21 0.00550496 -6.13811e-19 0.0061458)
(0.0082284 0.00323072 4.20082e-20 0.00657707 -4.38736e-19 0.00745753)
(0.00945828 0.00360318 1.95824e-20 0.00727297 -2.48809e-20 0.00840726)
(0.0104269 0.00381266 2.6059e-20 0.00762595 2.77233e-20 0.00906599)
(0.0111874 0.00389436 2.73385e-21 0.00774381 8.40433e-20 0.00949648)
(0.0117642 0.00382671 -4.43814e-20 0.0075991 1.3377e-19 0.00972073)
(0.0118529 0.00349562 -3.73684e-20 0.00702384 -4.41725e-19 0.00948064)
(0.0112867 0.00285904 -3.96939e-20 0.00600464 -1.77442e-19 0.00868319)
(0.0101854 0.00201694 8.30214e-20 0.00478733 -2.791e-19 0.00750815)
(0.008774 0.00111012 -1.44726e-20 0.00364756 -2.61227e-19 0.00621185)
(0.00711667 0.00027208 -2.27306e-19 0.00273037 2.65529e-19 0.00489431)
(0.00502771 -0.000368069 -7.81908e-20 0.00198596 -1.07294e-18 0.0034334)
(0.00231389 -0.000627827 1.91906e-19 0.00134622 2.65365e-19 0.00169818)
(0.00147249 -0.000384415 2.61939e-19 0.00345345 1.11383e-18 0.00227204)
(0.00387807 0.000253209 -1.86178e-19 0.0100254 6.26121e-19 0.00671868)
(0.00773377 0.000922763 4.31276e-19 0.0199715 2.59387e-18 0.0135902)
(0.0130683 0.00225464 1.80043e-19 0.0333858 8.00972e-19 0.0229495)
(0.0201024 0.00445502 -3.99715e-19 0.0505243 9.00015e-19 0.0350601)
(0.0291682 0.00768001 -4.77707e-19 0.0719487 -9.4971e-19 0.0504086)
(0.0408549 0.0122569 3.2544e-19 0.0987786 1.98859e-18 0.0700377)
(0.0560665 0.0189316 3.01484e-19 0.131996 -2.09282e-18 0.094817)
(0.0749887 0.0277709 5.29088e-19 0.170189 1.90749e-18 0.122232)
(0.108746 0.038446 -4.31343e-19 0.254456 -9.51869e-19 0.187299)
(0.177266 0.0849882 2.01681e-20 0.311462 -5.05171e-19 0.235553)
(0.193195 0.00702383 4.42858e-19 0.51001 1.69212e-18 0.354012)
(0.0107309 -0.00104247 -6.00274e-23 0.00913268 -2.80381e-22 0.00999175)
(0.00842169 -0.00100239 -1.35735e-22 0.00854409 9.67993e-22 0.00857982)
(0.00661693 -0.00109583 -7.72879e-21 0.00749723 -1.77448e-20 0.00707194)
(0.0126592 0.000774978 -1.05964e-20 0.00925596 -2.07823e-20 0.010879)
(0.210156 0.0197929 3.71057e-20 0.0896931 4.39507e-20 0.150643)
(1.05317 0.0425822 2.40765e-19 0.402738 8.63679e-21 0.733478)
(1.58631 -0.0448702 2.56721e-19 0.605202 -1.39201e-18 1.09291)
(1.03852 -0.137637 9.03992e-19 0.433904 -1.41381e-18 0.742513)
(0.413396 -0.0946963 -4.11182e-19 0.210604 1.2275e-18 0.302937)
(0.214647 -0.0578293 2.31887e-19 0.119655 4.00059e-19 0.164851)
(0.124949 -0.0360371 -3.53949e-19 0.0728023 1.12509e-18 0.0988028)
(0.0819093 -0.0258018 -5.81049e-19 0.0513437 1.26336e-18 0.0666851)
(0.0566491 -0.0187456 4.66021e-19 0.0371604 -9.53207e-19 0.0470544)
(0.0396461 -0.0137805 -1.17991e-19 0.0274268 9.37813e-19 0.0334353)
(0.0293888 -0.0103863 -2.00429e-19 0.0206859 -1.05774e-18 0.0250094)
(0.0223901 -0.00789843 -1.12376e-19 0.0157377 -4.5682e-19 0.0190175)
(0.0182184 -0.00630976 5.36502e-20 0.0125524 2.25456e-19 0.015349)
(0.0156326 -0.00520949 1.14889e-19 0.0103459 1.31167e-20 0.0129749)
(0.0142384 -0.00457249 3.11661e-20 0.0090947 5.35864e-20 0.0116492)
(0.0137882 -0.00430277 -1.21656e-20 0.00857442 -7.71637e-20 0.0111843)
(0.0139278 -0.00432482 -2.73782e-20 0.00862493 -1.96437e-19 0.0112742)
(0.0146965 -0.00458727 2.65962e-20 0.00914222 -2.79873e-19 0.0119183)
(0.0161792 -0.00514546 2.31511e-20 0.0102332 -1.26868e-19 0.0132125)
(0.0181497 -0.0060041 8.69542e-21 0.0119133 1.17792e-19 0.0150476)
(0.0200814 -0.00698261 -6.86061e-20 0.0138742 7.08525e-19 0.0169929)
(0.0215564 -0.007905 2.52328e-19 0.0158158 -8.07921e-19 0.0187)
(0.0221889 -0.00863553 1.80903e-19 0.0175462 -6.22322e-19 0.0198834)
(0.0216067 -0.00904157 1.99038e-19 0.0189865 1.52199e-18 0.020317)
(0.0196233 -0.00898459 -6.33892e-20 0.0203242 4.05612e-19 0.0199981)
(0.0167616 -0.0083622 -5.57547e-19 0.0225457 -5.94212e-19 0.0196829)
(0.0149049 -0.00708625 1.78591e-19 0.0280925 -1.0773e-18 0.0215346)
(0.0165586 -0.00495403 -4.49817e-19 0.0400299 6.55948e-19 0.0283365)
(0.022702 -0.00148167 3.9965e-19 0.0596631 -5.56294e-19 0.041236)
(0.0335184 0.00363941 4.53195e-19 0.0875029 -1.41499e-18 0.0605575)
(0.0491504 0.0107124 4.46388e-19 0.124125 8.25068e-19 0.0866465)
(0.0703437 0.0202306 4.76825e-19 0.171345 1.78704e-18 0.120995)
(0.0984429 0.0335007 3.87553e-19 0.230673 1.87748e-18 0.165017)
(0.13396 0.0515467 -5.7974e-19 0.298119 -2.33943e-18 0.214197)
(0.186584 0.0709308 3.28876e-20 0.423456 -8.15583e-19 0.311244)
(0.314896 0.152948 -2.07734e-19 0.54304 -1.68994e-18 0.416705)
(0.232782 0.0888505 -4.80814e-19 0.526619 -8.1028e-19 0.386013)
(0.00800711 -0.000752597 5.32586e-22 0.00681931 1.2809e-21 0.00740746)
(0.00684332 -0.000821103 -8.31944e-22 0.00654432 -1.64375e-21 0.00666423)
(0.00684699 -0.000894676 4.50296e-21 0.00738912 9.15351e-21 0.00711519)
(0.00338491 -0.00038899 5.16209e-21 0.00376819 9.07683e-21 0.00356634)
(0.0052478 0.00015554 -4.87486e-21 0.0042082 -7.24473e-21 0.00470815)
(0.189563 0.0145938 3.27638e-20 0.0773398 -1.07356e-20 0.133677)
(1.00168 0.0299724 -7.26414e-20 0.381208 -8.91792e-21 0.696673)
(1.79106 -0.0473467 -2.53533e-19 0.682884 3.1737e-19 1.23373)
(1.51365 -0.16827 4.04415e-19 0.614333 -1.82002e-19 1.07346)
(0.726466 -0.15292 9.3814e-21 0.351731 1.80544e-19 0.534454)
(0.369968 -0.0965225 3.62382e-19 0.202902 -2.35061e-18 0.279421)
(0.218488 -0.0622688 -2.58514e-19 0.126369 3.99033e-19 0.171535)
(0.147776 -0.0452867 -2.92195e-19 0.0902705 2.33506e-19 0.119605)
(0.104325 -0.0342703 3.38199e-19 0.0679883 -2.32883e-18 0.0862846)
(0.0793163 -0.0275268 2.68194e-19 0.0546886 1.33771e-19 0.0670382)
(0.0623089 -0.0223689 1.69325e-19 0.0446222 1.78007e-19 0.0534316)
(0.0520501 -0.0191497 -1.57554e-19 0.0383654 6.31235e-19 0.0451598)
(0.0454191 -0.0169204 -1.03356e-20 0.0339782 1.38517e-19 0.0396831)
(0.0414188 -0.0156239 3.69778e-20 0.0314771 -6.72735e-20 0.0364136)
(0.0393719 -0.0150087 4.77973e-20 0.0303131 5.00156e-20 0.034835)
(0.038458 -0.0148439 -1.01167e-20 0.0300978 2.32382e-19 0.0342578)
(0.0385451 -0.0149858 -8.976e-20 0.0304582 2.29995e-19 0.03448)
(0.0396947 -0.0154645 1.23111e-19 0.0314533 1.76134e-19 0.0355502)
(0.0416751 -0.0163016 1.52075e-19 0.033198 4.03392e-19 0.037422)
(0.043779 -0.0172923 -1.78638e-19 0.0353402 -9.89877e-20 0.0395487)
(0.0454123 -0.0182493 -1.34008e-19 0.0375587 2.04971e-18 0.0414787)
(0.0459742 -0.0189973 8.27556e-20 0.0396303 -3.14875e-20 0.0427997)
(0.0448315 -0.0193326 -2.96256e-19 0.0414233 -8.34759e-19 0.0431305)
(0.0415315 -0.0190278 -5.04641e-19 0.0431026 -1.61069e-18 0.042327)
(0.0362794 -0.0178238 3.66787e-19 0.0455728 -6.63226e-19 0.0409459)
(0.0308383 -0.0153942 1.22287e-19 0.0513303 1.76657e-18 0.0411139)
(0.0291688 -0.011316 2.64283e-19 0.0650183 -1.06895e-18 0.0471328)
(0.0351833 -0.00506938 -2.36372e-19 0.0911315 2.97507e-18 0.063218)
(0.0500577 0.00384829 -9.04017e-19 0.131343 1.47279e-19 0.0907623)
(0.0735923 0.0159403 -3.39061e-19 0.185958 6.22907e-19 0.129787)
(0.106328 0.0319183 -4.616e-19 0.25683 7.4489e-19 0.181782)
(0.150085 0.053793 -6.51778e-20 0.345787 -3.72381e-20 0.248557)
(0.206894 0.0842344 2.30231e-20 0.44737 7.41606e-20 0.324602)
(0.277167 0.114597 -2.93404e-20 0.602193 1.62332e-18 0.447308)
(0.46122 0.224757 -1.96141e-20 0.794155 -1.12068e-18 0.612119)
(0.355683 0.174028 6.20201e-19 0.646189 -7.49215e-19 0.510752)
(0.00579728 -0.00051673 -5.25064e-22 0.00489493 -8.92978e-22 0.00535141)
(0.00508553 -0.000611034 2.71265e-21 0.00474334 4.43289e-21 0.00490544)
(0.00470824 -0.000598791 -1.3348e-21 0.0048498 -2.91945e-21 0.00477353)
(0.00497379 -0.000631669 -1.30989e-21 0.00559722 -3.50536e-21 0.00529046)
(0.00157529 -9.55644e-05 3.02582e-22 0.00169648 7.29257e-22 0.00163516)
(0.00120942 6.7832e-06 -1.53235e-22 0.00109415 -1.51407e-22 0.00114919)
(0.128305 0.00757555 -2.33794e-20 0.0518187 -2.40383e-20 0.089937)
(0.801648 0.0177796 -7.93895e-20 0.304559 9.80411e-20 0.556127)
(1.81519 -0.0455693 -1.6817e-19 0.691085 -1.61795e-19 1.25322)
(1.94224 -0.179675 -3.69745e-19 0.772927 -9.67367e-19 1.36264)
(1.21261 -0.222541 3.75164e-19 0.55196 5.60265e-19 0.891459)
(0.595443 -0.148736 6.03656e-19 0.317988 -8.29843e-19 0.444828)
(0.357505 -0.101466 -8.08445e-19 0.206983 6.23382e-19 0.278165)
(0.235814 -0.0710456 3.5293e-19 0.142271 1.08262e-18 0.188981)
(0.170106 -0.0554832 1.85336e-20 0.109993 4.77674e-19 0.140597)
(0.128849 -0.0445013 -2.28291e-19 0.0883248 -8.58403e-20 0.108813)
(0.104465 -0.0378736 1.60488e-19 0.0756609 -8.97823e-19 0.0900074)
(0.0890583 -0.0332745 -3.42059e-20 0.0668547 5.83968e-19 0.077941)
(0.0794244 -0.0304392 7.05013e-20 0.0615857 -1.11045e-19 0.0704534)
(0.0740784 -0.0289291 4.68458e-20 0.0588643 2.03443e-19 0.0664768)
(0.0711237 -0.028238 -6.30632e-20 0.0578236 -2.93388e-19 0.0644584)
(0.070059 -0.0280697 2.98551e-20 0.0576919 1.19251e-20 0.0638696)
(0.0707009 -0.0283925 1.42412e-20 0.0584165 1.01613e-19 0.0645469)
(0.072718 -0.0292409 -2.96409e-19 0.0601933 -3.41514e-19 0.0664504)
(0.0751665 -0.0303558 3.217e-19 0.0626091 -8.03562e-19 0.0688814)
(0.077211 -0.0315011 4.52952e-20 0.0652857 -4.30825e-19 0.0712413)
(0.0779198 -0.0324135 -5.37202e-19 0.0678672 -4.31774e-19 0.0728867)
(0.0762222 -0.0327582 5.19516e-20 0.0700243 -9.73608e-19 0.0731176)
(0.071171 -0.0321424 8.48507e-19 0.0716903 -1.18823e-19 0.0714291)
(0.0625077 -0.030114 3.38379e-19 0.0735622 1.42554e-18 0.0680444)
(0.0518384 -0.0261251 -4.13064e-19 0.0782169 -7.79895e-19 0.0650492)
(0.0445703 -0.0195557 -4.96952e-19 0.0919674 6.39209e-19 0.0682979)
(0.0485145 -0.00972544 -2.13344e-19 0.123415 -3.17014e-18 0.0860206)
(0.0672342 0.00412335 7.83532e-19 0.176723 -1.97605e-18 0.12204)
(0.100057 0.0227488 6.2913e-19 0.251641 -1.7999e-18 0.17585)
(0.146727 0.0470823 -1.3799e-19 0.349078 -6.25986e-20 0.248158)
(0.209269 0.0798173 1.38005e-19 0.470406 1.44824e-18 0.340554)
(0.291263 0.12501 3.78489e-20 0.608673 -8.17376e-19 0.44705)
(0.380789 0.169119 -2.60029e-19 0.784428 7.5343e-19 0.591099)
(0.604788 0.295941 -5.53029e-19 1.03768 1.78013e-18 0.804419)
(0.529092 0.267288 -5.16022e-19 0.845284 -8.924e-19 0.696935)
(0.00421021 -0.00035231 -1.26975e-22 0.00351246 -2.33573e-22 0.00386461)
(0.00386525 -0.000442227 2.96906e-22 0.00351797 3.47149e-22 0.0036917)
(0.00347747 -0.00044172 -1.38879e-21 0.00345654 -1.84957e-21 0.00346584)
(0.00354055 -0.000458831 -2.20286e-21 0.00383993 -2.75872e-21 0.00368793)
(0.00354839 -0.000402815 -7.55433e-22 0.00408231 -8.8158e-22 0.00381748)
(0.000722443 -2.01695e-05 2.09875e-22 0.00075536 2.90466e-22 0.000738971)
(3.19697e-05 -2.72926e-08 -4.7972e-25 3.17776e-05 -7.26568e-25 3.1868e-05)
(0.0592097 0.00228518 1.84037e-20 0.0249098 2.02546e-20 0.0419045)
(0.537041 0.00788071 2.37904e-19 0.203963 2.28985e-19 0.371441)
(1.57769 -0.0394749 -1.70683e-19 0.600018 3.87746e-19 1.09204)
(2.19604 -0.164629 -2.70827e-19 0.86119 6.49048e-19 1.52571)
(1.79251 -0.274064 2.74836e-19 0.77212 -1.0692e-18 1.29772)
(1.0001 -0.232495 4.3984e-19 0.506902 1.32164e-18 0.752464)
(0.55003 -0.152589 -7.87508e-19 0.315133 -2.97504e-19 0.420902)
(0.359713 -0.108685 3.33892e-19 0.218265 -1.34579e-18 0.286636)
(0.258304 -0.0828955 -2.23303e-19 0.164562 7.72108e-19 0.212007)
(0.196881 -0.0677817 1.38447e-19 0.134473 7.58178e-19 0.166119)
(0.158925 -0.0576046 1.5874e-19 0.114952 3.90209e-19 0.137181)
(0.135517 -0.0512112 -8.27024e-20 0.1032 3.44777e-19 0.119284)
(0.122436 -0.0476217 9.23815e-21 0.0967727 -9.98078e-19 0.109593)
(0.115006 -0.0457409 2.17139e-20 0.0937443 4.25833e-19 0.104318)
(0.111764 -0.044977 -1.31284e-19 0.0926223 -8.48545e-21 0.102175)
(0.111662 -0.0450911 1.23237e-19 0.0930014 -4.7924e-19 0.102313)
(0.113942 -0.0460515 2.04568e-19 0.0950124 -7.10097e-20 0.104474)
(0.117191 -0.0474634 -1.78798e-19 0.098018 1.03569e-18 0.107604)
(0.120165 -0.0489864 -3.24476e-19 0.101478 -9.09823e-19 0.110821)
(0.121481 -0.0502268 4.11701e-19 0.104805 -5.42947e-19 0.113142)
(0.119482 -0.0506714 2.09737e-19 0.107338 1.64087e-18 0.113406)
(0.112497 -0.0497043 1.44298e-19 0.108584 1.79725e-18 0.110538)
(0.0995471 -0.0466517 -2.03924e-19 0.108807 -3.26465e-19 0.104185)
(0.081585 -0.0407146 -1.98053e-20 0.110206 -1.18785e-18 0.0959178)
(0.0646977 -0.0310275 -4.05951e-19 0.120005 -3.56672e-19 0.0923796)
(0.0617585 -0.016671 -1.93261e-19 0.152009 1.49305e-18 0.106942)
(0.0820859 0.00340082 9.53892e-20 0.21613 2.29301e-18 0.149172)
(0.124742 0.0302124 1.35258e-18 0.311536 7.5833e-19 0.218138)
(0.18735 0.064847 2.18752e-19 0.436358 -8.46326e-19 0.312157)
(0.271229 0.110383 -1.58224e-18 0.589991 -7.41809e-19 0.431276)
(0.380179 0.171082 3.207e-20 0.763298 -2.16123e-19 0.568864)
(0.493009 0.231153 -2.33947e-20 0.955958 -1.87246e-18 0.732541)
(0.736755 0.363343 -1.34737e-19 1.24417 5.99703e-19 0.97519)
(0.719539 0.363417 4.33471e-19 1.07556 1.59693e-18 0.902959)
(0.00308304 -0.000246543 -2.62391e-23 0.00255258 -5.41704e-24 0.00282119)
(0.00291722 -0.000315549 -5.37766e-22 0.00259614 -7.32636e-22 0.00275606)
(0.00276637 -0.000345538 5.21614e-22 0.00266448 7.08065e-22 0.00271452)
(0.00255608 -0.000329131 2.39096e-21 0.0026624 3.20229e-21 0.00260733)
(0.00265613 -0.00033615 4.73966e-22 0.00298757 6.59567e-22 0.00281875)
(0.00271874 -0.000292624 4.07239e-22 0.00319827 2.1376e-22 0.00295902)
(0.000141862 -7.67942e-07 -1.55746e-23 0.000143403 -1.7159e-23 0.000142641)
(1.61053e-06 -4.53978e-10 -9.76615e-28 1.61045e-06 -6.63707e-28 1.61047e-06)
(0.0171544 0.000167637 -9.07879e-21 0.0087266 -1.30756e-20 0.0128736)
(0.288321 0.00159632 1.70628e-19 0.10961 1.92254e-19 0.198925)
(1.13491 -0.0282227 -2.78087e-19 0.431625 -6.82379e-19 0.785491)
(2.13954 -0.137978 -1.05498e-19 0.831627 8.49565e-19 1.48456)
(2.27884 -0.280072 1.48248e-19 0.940924 -1.02588e-18 1.61519)
(1.59868 -0.32205 -3.52398e-19 0.753425 -3.92471e-19 1.19177)
(0.887689 -0.235458 9.35788e-19 0.489357 -2.70573e-19 0.679757)
(0.538622 -0.161652 3.84335e-19 0.327314 8.32548e-19 0.423169)
(0.376197 -0.120243 -3.50999e-19 0.239479 5.15133e-19 0.306476)
(0.286485 -0.0973989 -3.81799e-19 0.19303 4.40547e-19 0.240698)
(0.230271 -0.0832767 -6.13427e-19 0.166081 -3.64906e-20 0.19864)
(0.196712 -0.0745919 4.79334e-19 0.150312 -6.09151e-19 0.173756)
(0.17734 -0.0696494 1.93768e-19 0.142053 8.43509e-19 0.159604)
(0.168637 -0.0674599 -3.51828e-19 0.138579 -2.05338e-19 0.153543)
(0.166372 -0.0669891 1.23089e-19 0.138005 3.53963e-19 0.152118)
(0.168666 -0.0680165 9.24467e-20 0.140205 2.34906e-19 0.154391)
(0.173129 -0.0698647 1.7353e-20 0.14405 -3.76612e-19 0.158566)
(0.177799 -0.0720007 -2.35818e-20 0.148686 5.30371e-19 0.163231)
(0.180629 -0.0738309 3.3732e-19 0.153143 1.37832e-18 0.166888)
(0.179158 -0.0745939 3.0819e-19 0.156248 -5.46039e-19 0.167716)
(0.170641 -0.0733419 -4.53399e-19 0.156766 3.90132e-20 0.163721)
(0.153092 -0.0691527 -9.88243e-19 0.154247 -1.14379e-18 0.153695)
(0.126075 -0.0609296 2.50914e-19 0.149767 7.12967e-20 0.137961)
(0.0944603 -0.0475016 5.66804e-19 0.149514 -1.05694e-18 0.122033)
(0.075199 -0.0276713 6.31959e-19 0.171418 3.29812e-19 0.123382)
(0.0901755 -0.000122358 -4.26247e-19 0.237778 -1.7287e-19 0.164055)
(0.141229 0.0363657 -7.71954e-19 0.349966 1.52496e-18 0.245622)
(0.220925 0.0828712 -6.08435e-19 0.499846 -1.43594e-18 0.360732)
(0.327639 0.14226 9.73513e-19 0.68214 -2.24809e-19 0.505418)
(0.462991 0.217498 2.62209e-20 0.884226 3.68655e-19 0.671261)
(0.602484 0.293609 2.07219e-19 1.09093 -3.5588e-19 0.852962)
(0.844526 0.421006 -1.66586e-19 1.37741 -8.24981e-19 1.10038)
(0.892366 0.448359 -4.57626e-19 1.27868 5.38483e-19 1.08362)
(0.0022836 -0.000175123 -8.44481e-23 0.00187932 -2.87091e-23 0.00208382)
(0.00218936 -0.000225853 -4.52762e-22 0.00191683 -7.03876e-22 0.00205273)
(0.0021244 -0.000255479 1.89183e-21 0.00198972 2.1541e-21 0.00205685)
(0.00203448 -0.000262386 -2.53835e-22 0.00204585 -3.25752e-22 0.00204022)
(0.00188738 -0.000238484 6.68106e-22 0.00203437 6.20492e-22 0.00195995)
(0.00204882 -0.000258122 -6.70239e-22 0.00237897 -6.09333e-22 0.00221117)
(0.00194061 -0.000183297 1.37422e-21 0.00229958 1.84173e-21 0.00211947)
(0.00029156 -3.45346e-06 3.57139e-23 0.00029983 2.98969e-23 0.000295735)
(0.000252504 -6.01306e-06 1.60568e-24 0.00026226 2.94355e-23 0.000257371)
(0.000516359 -3.21619e-06 2.09097e-22 0.000478708 1.85239e-22 0.000497112)
(0.109923 -0.000877563 -4.84942e-21 0.0421052 5.23591e-21 0.0758042)
(0.65009 -0.0176066 -3.19019e-19 0.24759 -2.14658e-19 0.449311)
(1.69464 -0.0989789 1.98606e-19 0.655357 -3.93624e-19 1.17662)
(2.44775 -0.245116 -4.85677e-19 0.984151 9.28351e-19 1.71321)
(2.22954 -0.36714 -2.59866e-19 0.980884 -9.3191e-19 1.61897)
(1.46264 -0.348263 5.45883e-19 0.747945 7.40556e-19 1.11686)
(0.845024 -0.245199 3.41045e-19 0.498615 -1.54726e-18 0.659426)
(0.5498 -0.175623 1.65821e-19 0.352316 5.76666e-19 0.442331)
(0.405942 -0.136921 -7.365e-19 0.272013 -1.1259e-18 0.338189)
(0.324297 -0.116267 2.9825e-19 0.2314 1.19152e-18 0.27902)
(0.275593 -0.104485 7.46902e-20 0.210471 -8.77093e-19 0.243553)
(0.251531 -0.0987163 -3.28113e-19 0.20114 4.30852e-19 0.226537)
(0.24218 -0.0965601 2.46051e-19 0.19808 5.30093e-21 0.220046)
(0.242422 -0.0971852 -4.17213e-20 0.199839 2.68872e-20 0.221008)
(0.247752 -0.0994027 -8.93336e-20 0.204454 7.37546e-19 0.226014)
(0.254505 -0.102205 1.09644e-19 0.21029 -1.75944e-19 0.23233)
(0.259649 -0.104723 -7.64695e-19 0.215871 5.91543e-21 0.237719)
(0.259883 -0.105962 -3.75239e-19 0.219532 1.90858e-19 0.239692)
(0.251348 -0.104674 -1.94263e-19 0.219286 -1.21925e-18 0.235332)
(0.230357 -0.0994734 9.46323e-19 0.213328 1.00242e-19 0.221897)
(0.194353 -0.088878 1.59458e-19 0.200859 8.17862e-19 0.197705)
(0.144591 -0.071332 2.90953e-19 0.184581 9.03911e-19 0.164705)
(0.0954087 -0.0453571 -6.02415e-19 0.179731 2.69998e-19 0.137701)
(0.0866443 -0.00948164 4.95041e-19 0.226162 -1.20371e-18 0.156529)
(0.13966 0.0375325 2.81695e-19 0.343961 -1.42039e-19 0.241894)
(0.236229 0.0964842 1.01942e-18 0.51263 3.15119e-19 0.374798)
(0.36591 0.169203 -1.50049e-18 0.716234 4.73168e-19 0.541453)
(0.525249 0.256303 -1.26368e-19 0.937136 1.02168e-19 0.729584)
(0.69 0.344754 2.91112e-19 1.15196 4.59661e-19 0.924672)
(0.914691 0.459843 4.79939e-19 1.40996 1.00449e-20 1.15738)
(1.01088 0.504379 7.56261e-20 1.39074 -1.17854e-18 1.1919)
(0.00169964 -0.000125891 -3.3222e-22 0.00139235 -3.86407e-22 0.00154767)
(0.00164375 -0.000162741 1.34596e-21 0.00142203 1.40726e-21 0.00153294)
(0.00161073 -0.000186847 -3.15182e-22 0.00147757 -2.80214e-22 0.00154416)
(0.0015794 -0.000199755 -2.4784e-21 0.0015425 -2.61624e-21 0.00156104)
(0.00151718 -0.000196219 -2.32712e-22 0.00157912 -3.10849e-22 0.00154827)
(0.0014252 -0.000176109 2.43318e-21 0.00157714 2.60452e-21 0.0015007)
(0.0015423 -0.000187229 -7.00833e-22 0.00183085 -9.24866e-22 0.00168465)
(0.00138373 -0.00011537 -4.77462e-21 0.00164783 -4.74898e-21 0.00151475)
(0.000481974 -1.06258e-05 4.80109e-22 0.000512003 4.63963e-22 0.000497055)
(6.54802e-05 -2.56184e-07 7.60083e-25 6.61545e-05 -7.31416e-25 6.5821e-05)
(0.00131239 -0.00024574 -1.02373e-21 0.00104606 -1.69143e-21 0.00117269)
(0.0237859 -0.000816091 -8.46568e-21 0.00992225 -4.79095e-21 0.0167702)
(0.280532 -0.00945851 -1.8797e-19 0.107224 -1.23912e-19 0.193672)
(1.05287 -0.0587519 1.73027e-19 0.4065 -1.32699e-19 0.73056)
(2.11514 -0.184231 -6.42528e-19 0.838328 6.67921e-19 1.47626)
(2.59404 -0.341762 5.99867e-19 1.08595 -3.96108e-19 1.83923)
(2.17026 -0.430101 -5.03448e-19 1.01654 7.54265e-19 1.6118)
(1.40628 -0.373288 -1.09049e-19 0.769418 -1.87139e-19 1.09577)
(0.852358 -0.264994 -2.40381e-19 0.533076 -3.57302e-19 0.679024)
(0.582966 -0.196932 2.88981e-19 0.394216 -1.03731e-18 0.479838)
(0.453048 -0.161512 4.54135e-19 0.322058 3.29945e-19 0.386814)
(0.386995 -0.145089 -2.43055e-19 0.291196 -9.98339e-19 0.34046)
(0.355545 -0.137936 -2.27508e-19 0.279705 4.49477e-19 0.318453)
(0.345419 -0.136439 7.0309e-19 0.278653 -5.85156e-19 0.312353)
(0.347854 -0.138344 -4.11719e-19 0.283455 4.89973e-20 0.315635)
(0.356494 -0.141978 -5.66136e-19 0.291133 -3.6868e-19 0.323643)
(0.36582 -0.145751 1.00142e-18 0.298913 -1.41679e-18 0.332205)
(0.370022 -0.147883 -2.05689e-20 0.303651 1.06917e-18 0.336731)
(0.363545 -0.146653 -7.29793e-22 0.302321 -6.5227e-20 0.332892)
(0.341496 -0.140438 -5.98357e-19 0.292202 1.05403e-18 0.316863)
(0.299453 -0.127508 6.43851e-20 0.270771 -6.36182e-19 0.285188)
(0.234097 -0.10585 -1.17044e-20 0.236272 3.28963e-19 0.235332)
(0.148736 -0.073654 -6.8269e-19 0.192806 -5.75286e-19 0.170989)
(0.077268 -0.0294313 3.6763e-19 0.173798 1.71593e-18 0.12581)
(0.106707 0.0278122 -5.21575e-19 0.264126 2.85042e-19 0.185696)
(0.218508 0.0982104 -4.89168e-19 0.441449 6.81761e-22 0.330468)
(0.370803 0.181738 6.99308e-19 0.657015 -1.84688e-18 0.514304)
(0.550754 0.276282 -7.71037e-20 0.885281 7.72329e-19 0.717097)
(0.733795 0.369999 -1.58283e-19 1.09935 -9.11863e-19 0.918087)
(0.93228 0.468075 -1.38478e-18 1.3179 -6.52152e-19 1.12469)
(1.05044 0.517822 -3.07756e-19 1.36198 -1.97111e-19 1.19354)
(0.00126975 -9.15335e-05 -2.94759e-22 0.00103676 -2.39992e-22 0.00115439)
(0.00123514 -0.000118246 -1.23025e-21 0.00105929 -1.10944e-21 0.00114738)
(0.00121762 -0.000136763 -6.81894e-23 0.00110007 -1.86277e-22 0.00115887)
(0.00120417 -0.000148716 -2.00375e-22 0.00115006 -1.68656e-22 0.00117717)
(0.00118706 -0.000153364 1.75867e-21 0.00120058 1.73287e-21 0.00119386)
(0.00114322 -0.000145942 9.41349e-22 0.00122297 7.64484e-22 0.00118316)
(0.00109589 -0.000132734 -1.30574e-21 0.00123851 -1.24832e-21 0.00116703)
(0.00113338 -0.000128223 -9.75112e-22 0.00136032 -3.68806e-22 0.00124584)
(0.00111388 -9.48049e-05 -6.28452e-22 0.00136297 -6.34149e-22 0.00123717)
(0.00062256 -2.10155e-05 -1.09817e-21 0.000692533 -1.08257e-21 0.0006575)
(4.49387e-05 -1.02223e-07 -1.5727e-24 4.52924e-05 -1.07684e-24 4.51171e-05)
(0.000212252 -6.01352e-06 -1.98407e-23 0.000224194 -8.9552e-24 0.000218269)
(0.000160213 -1.33277e-06 5.45559e-23 0.0001541 5.31698e-23 0.000157104)
(0.074817 -0.00379562 -2.72145e-19 0.028996 -2.24023e-19 0.051744)
(0.478418 -0.0277624 7.24557e-19 0.185103 6.2329e-19 0.331646)
(1.38717 -0.111591 -3.43547e-19 0.546105 -4.09076e-19 0.967328)
(2.37786 -0.265162 1.48117e-18 0.968973 9.11514e-19 1.67117)
(2.66892 -0.42155 6.40717e-19 1.16368 7.71445e-19 1.91831)
(2.16396 -0.483233 -1.83491e-18 1.06909 -2.63879e-19 1.63689)
(1.42933 -0.408984 5.95724e-19 0.825488 -1.17031e-18 1.13455)
(0.906808 -0.299288 2.83471e-19 0.59928 1.41838e-18 0.739033)
(0.657044 -0.234022 -5.88809e-20 0.470667 -8.01907e-19 0.553107)
(0.553216 -0.2046 5.78821e-19 0.410809 6.23016e-19 0.480264)
(0.508206 -0.193239 -3.44769e-19 0.389175 -6.84487e-19 0.450661)
(0.492041 -0.190984 3.94365e-19 0.387094 5.13077e-20 0.44133)
(0.493451 -0.193581 -5.54778e-19 0.394194 8.51768e-19 0.444645)
(0.503492 -0.198081 1.06587e-19 0.404051 7.26383e-19 0.453964)
(0.513266 -0.201724 -1.81641e-19 0.411475 -1.8829e-18 0.46223)