/*--------------------------------*- C++ -*----------------------------------*\
| =========                 |                                                 |
| \\      /  F ield         | OpenFOAM: The Open Source CFD Toolbox           |
|  \\    /   O peration     | Version:  2312                                  |
|   \\  /    A nd           | Website:  www.openfoam.com                      |
|    \\/     M anipulation  |                                                 |
\*---------------------------------------------------------------------------*/
FoamFile
{
    version     2.0;
    format      ascii;
    arch        "LSB;label=32;scalar=64";
    class       volVectorField;
    location    "800";
    object      U;
}
// * * * * * * * * * * * * * * * * * * * * * * * * * * * * * * * * * * * * * //

dimensions      [0 1 -1 0 0 0 0];

internalField   nonuniform List<vector> 
11040
(
(-0.58268 8.75239 -3.46022e-19)
(0.792428 5.8074 -2.09185e-18)
(-0.02134 -0.112294 -2.28833e-17)
(-1.37223 -1.16399 -1.17196e-17)
(-1.40694 -0.701403 -4.30659e-18)
(-1.3854 -0.604472 -1.69428e-17)
(-1.36905 -0.513486 3.0767e-17)
(-1.32426 -0.427762 2.23598e-17)
(-1.28732 -0.357791 4.40516e-18)
(-1.25927 -0.301587 1.22623e-18)
(-1.23408 -0.256175 -2.09236e-17)
(-1.20966 -0.21469 3.04825e-18)
(-1.19094 -0.178293 8.5239e-18)
(-1.17547 -0.145989 7.16034e-18)
(-1.16395 -0.115544 -6.84362e-18)
(-1.15838 -0.0879126 1.18413e-17)
(-1.15765 -0.0614483 5.52488e-18)
(-1.16434 -0.0360558 -1.41589e-17)
(-1.17923 -0.0111846 -4.27596e-19)
(-1.20238 0.0137125 2.31135e-18)
(-1.23403 0.0388372 -2.59643e-18)
(-1.27217 0.0623483 -8.96352e-18)
(-1.31914 0.0832713 9.12418e-18)
(-1.37765 0.103579 -9.33055e-18)
(-1.44644 0.12406 9.60744e-18)
(-1.52208 0.144629 1.712e-17)
(-1.59912 0.164985 7.24713e-18)
(-1.67032 0.184294 6.77707e-18)
(-1.7287 0.201497 7.09452e-18)
(-1.7657 0.215206 9.40908e-18)
(-1.77099 0.223938 -1.66705e-17)
(-1.73446 0.226679 -1.27889e-17)
(-1.65947 0.223288 -3.90677e-17)
(-1.5405 0.211472 -2.28183e-17)
(-1.37328 0.188172 2.49693e-18)
(-1.1528 0.151469 -3.6183e-17)
(-0.868146 0.100984 9.81698e-19)
(-0.520439 0.0353656 -2.68768e-17)
(-0.150626 -0.037308 4.31194e-17)
(0.594643 -0.139264 3.55334e-17)
(0.0491645 -0.518797 -6.15004e-18)
(1.43872 7.92006 2.0845e-19)
(3.02999 8.44798 -2.39383e-19)
(2.66055 5.2379 7.12937e-18)
(0.753198 1.24438 1.16272e-18)
(-1.03096 -0.701139 -5.18745e-19)
(-1.25143 -0.581394 5.94265e-18)
(-1.34452 -0.515271 -9.3311e-19)
(-1.35264 -0.449838 -1.28537e-17)
(-1.34675 -0.388392 5.70172e-19)
(-1.34469 -0.332713 -4.21077e-18)
(-1.3408 -0.289076 6.39155e-18)
(-1.33322 -0.247922 -2.26178e-17)
(-1.32974 -0.209575 -1.78098e-18)
(-1.32765 -0.176001 -1.60981e-17)
(-1.32892 -0.143109 7.27586e-18)
(-1.3357 -0.112679 -2.95206e-18)
(-1.34811 -0.0831072 -4.78531e-18)
(-1.36761 -0.0540365 -4.85603e-18)
(-1.3941 -0.0250955 -6.31197e-19)
(-1.42867 0.00464423 3.77616e-19)
(-1.47155 0.0354415 1.34456e-18)
(-1.52186 0.0647519 3.85264e-18)
(-1.58011 0.090649 -5.92486e-18)
(-1.64543 0.11568 -1.34795e-18)
(-1.71319 0.140553 -1.63169e-18)
(-1.77787 0.16455 3.34503e-18)
(-1.8344 0.186965 2.02134e-18)
(-1.87789 0.206973 -1.1163e-17)
(-1.903 0.223573 -9.04315e-19)
(-1.90513 0.235573 6.61874e-18)
(-1.88156 0.242108 8.38935e-18)
(-1.83078 0.242883 1.7106e-17)
(-1.74268 0.235934 1.4132e-17)
(-1.61175 0.219081 6.92395e-18)
(-1.43368 0.190439 -3.20292e-18)
(-1.20389 0.148751 1.28832e-17)
(-0.913566 0.0914699 -9.9555e-18)
(-0.563279 0.0113043 7.44252e-18)
(-0.191715 -0.0827818 -3.06909e-18)
(0.531514 -0.194121 -4.2885e-18)
(0.573699 -0.461077 5.80193e-18)
(1.82114 7.05183 -1.61855e-20)
(3.326 8.13804 1.09006e-18)
(4.13042 7.8879 -2.02095e-18)
(3.42917 5.37456 -3.20397e-18)
(1.46777 2.00522 3.09143e-19)
(-0.447829 -0.201608 -4.12556e-18)
(-1.02891 -0.427514 -8.77228e-18)
(-1.20949 -0.418625 -8.0806e-18)
(-1.26241 -0.375064 5.85998e-18)
(-1.29677 -0.327779 2.66789e-19)
(-1.32157 -0.291652 3.56572e-18)
(-1.33376 -0.254257 1.16834e-17)
(-1.3464 -0.215932 -9.06142e-18)
(-1.35702 -0.182724 9.97711e-18)
(-1.36892 -0.148564 -6.20674e-18)
(-1.38448 -0.116703 -2.79285e-18)
(-1.40381 -0.0852903 1.32973e-18)
(-1.42881 -0.0541378 1.88685e-18)
(-1.45963 -0.0231496 9.46982e-20)
(-1.49712 0.00878435 -9.0483e-20)
(-1.54139 0.0418475 -3.12076e-18)
(-1.59078 0.0736112 -2.62953e-18)
(-1.64464 0.101319 5.42818e-19)
(-1.70212 0.127146 -3.71033e-19)
(-1.75984 0.151733 3.18663e-18)
(-1.814 0.174501 -7.02598e-18)
(-1.86105 0.19483 -5.06225e-18)
(-1.89711 0.211971 7.32054e-18)
(-1.91793 0.225117 1.77779e-18)
(-1.9192 0.233319 -1.11101e-18)
(-1.89639 0.23557 -7.30562e-18)
(-1.84422 0.230717 3.05413e-18)
(-1.75619 0.217177 -6.85783e-18)
(-1.62707 0.193243 -9.11301e-18)
(-1.4525 0.157203 2.00669e-18)
(-1.22829 0.107988 5.13485e-18)
(-0.946133 0.0430974 7.69878e-18)
(-0.604738 -0.0461585 -7.84823e-18)
(-0.242919 -0.157468 -1.59497e-18)
(0.420908 -0.274114 -2.09825e-18)
(0.610643 -0.624154 -3.43309e-18)
(2.21994 6.62707 -5.63679e-20)
(3.12461 7.33481 -2.06586e-19)
(4.17984 8.03403 1.08065e-18)
(4.71382 7.62904 2.01209e-18)
(4.01951 5.56513 -2.82749e-19)
(2.19486 2.65127 -2.58659e-18)
(0.196765 0.354399 1.75871e-18)
(-0.733919 -0.251123 4.25412e-18)
(-1.03045 -0.307936 -3.23576e-18)
(-1.14404 -0.284907 3.67091e-18)
(-1.21691 -0.267249 -8.60245e-18)
(-1.25936 -0.242872 1.15927e-18)
(-1.2936 -0.209361 1.24775e-18)
(-1.32021 -0.179984 -7.92551e-18)
(-1.34342 -0.146781 -3.85861e-18)
(-1.36745 -0.115221 2.43807e-18)
(-1.39272 -0.0834559 4.62979e-18)
(-1.42202 -0.0514532 2.1501e-18)
(-1.45556 -0.019594 -1.33672e-19)
(-1.49422 0.0133466 1.42996e-19)
(-1.53814 0.0472383 8.14721e-19)
(-1.58559 0.0799312 2.44801e-18)
(-1.63583 0.108478 8.32202e-19)
(-1.68861 0.134607 1.4891e-18)
(-1.74175 0.158802 2.25571e-18)
(-1.79245 0.180612 1.01109e-17)
(-1.83757 0.199432 -7.37358e-19)
(-1.87339 0.21443 -1.30152e-18)
(-1.89565 0.224691 -4.47516e-18)
(-1.89965 0.229136 -3.89296e-18)
(-1.88029 0.226576 5.4355e-18)
(-1.83219 0.215701 -4.5848e-18)
(-1.7499 0.195077 1.20635e-17)
(-1.62822 0.163066 3.18539e-18)
(-1.46276 0.117961 2.51237e-18)
(-1.24956 0.0586511 5.29057e-19)
(-0.980961 -0.0169606 -1.18902e-19)
(-0.654468 -0.117316 -6.2203e-19)
(-0.3077 -0.246927 1.68668e-18)
(0.27683 -0.364029 -2.42839e-18)
(0.530971 -0.723423 6.48279e-19)
(2.67678 6.14114 1.13004e-19)
(3.35974 6.69436 -1.09532e-19)
(4.06679 7.24393 -9.49013e-19)
(4.84703 7.75586 -1.53253e-18)
(5.22681 7.44725 1.53318e-18)
(4.62657 5.82958 -1.14479e-19)
(2.97666 3.3181 4.57184e-19)
(0.988151 1.03143 2.76831e-18)
(-0.341547 -0.0327605 -1.13398e-18)
(-0.790456 -0.174277 -1.98017e-18)
(-0.99721 -0.198789 -2.80223e-18)
(-1.10435 -0.201896 -1.88389e-20)
(-1.17479 -0.183234 -9.53683e-20)
(-1.22812 -0.164446 5.00881e-18)
(-1.26846 -0.136289 3.00968e-18)
(-1.30468 -0.107476 1.1822e-19)
(-1.33776 -0.0771087 -2.00563e-18)
(-1.37216 -0.0455355 2.21902e-18)
(-1.4086 -0.013969 -3.25784e-19)
(-1.44852 0.0189776 7.7636e-19)
(-1.49252 0.0527839 -1.5871e-18)
(-1.53928 0.0856677 -1.67968e-19)
(-1.58823 0.114613 2.10198e-18)
(-1.63947 0.140943 -2.25576e-18)
(-1.69161 0.16489 -4.94645e-18)
(-1.74226 0.185939 -2.49238e-18)
(-1.78848 0.203363 5.15899e-19)
(-1.82663 0.21618 -3.97849e-18)
(-1.85243 0.223309 1.12029e-19)
(-1.86112 0.223525 3.70028e-18)
(-1.84762 0.21552 -2.89373e-18)
(-1.80678 0.197945 6.033e-19)
(-1.73352 0.169409 -8.3637e-18)
(-1.62273 0.128312 -3.97354e-18)
(-1.47009 0.0729564 -2.29122e-18)
(-1.27191 0.00220501 -2.17217e-18)
(-1.02147 -0.0855688 1.19435e-18)
(-0.716193 -0.198132 -5.40019e-20)
(-0.389822 -0.343338 8.82066e-19)
(0.110248 -0.465779 3.23983e-18)
(0.394783 -0.793774 -1.86978e-18)
(3.08045 5.7004 -1.47324e-19)
(3.59338 6.21768 2.14864e-19)
(4.1152 6.61621 2.0592e-19)
(4.69862 7.05356 5.48798e-19)
(5.33595 7.46794 -4.13819e-19)
(5.6794 7.30978 2.02589e-19)
(5.23497 6.11166 5.01197e-19)
(3.83138 4.021 1.87604e-20)
(1.90722 1.81132 -1.00682e-19)
(0.261262 0.350081 4.16192e-18)
(-0.468564 -0.0263211 4.66833e-18)
(-0.799867 -0.105042 -2.13417e-18)
(-0.959277 -0.1199 -1.35638e-18)
(-1.06676 -0.125034 6.27891e-18)
(-1.13797 -0.111349 -5.28879e-18)
(-1.19569 -0.0903358 2.31645e-18)
(-1.24261 -0.0646903 2.17874e-19)
(-1.28589 -0.035425 6.13133e-19)
(-1.32757 -0.00549168 7.23903e-19)
(-1.37022 0.0265628 -3.58082e-19)
(-1.41548 0.0595967 -7.57906e-19)
(-1.46285 0.0922659 5.49849e-19)
(-1.51209 0.121416 -9.27011e-19)
(-1.56362 0.147924 -6.53943e-19)
(-1.61656 0.171697 4.74829e-18)
(-1.66883 0.192059 -3.12576e-18)
(-1.71766 0.208084 -7.32261e-19)
(-1.75957 0.218585 4.92937e-18)
(-1.79039 0.222287 3.87661e-18)
(-1.8055 0.217811 -1.90207e-18)
(-1.8 0.203737 -1.5485e-18)
(-1.76896 0.17867 -4.88515e-19)
(-1.70755 0.141244 3.88151e-18)
(-1.61086 0.0899027 4.05227e-18)
(-1.47474 0.0230107 1.15193e-18)
(-1.29584 -0.0604909 -1.54426e-18)
(-1.06868 -0.161669 -2.19761e-19)
(-0.791622 -0.287146 -1.06016e-18)
(-0.492447 -0.444033 -2.56674e-18)
(-0.0738303 -0.576199 -1.25056e-19)
(0.216897 -0.855479 1.98049e-18)
(3.46446 5.34193 -2.81942e-20)
(3.83472 5.77855 1.63776e-19)
(4.23217 6.16816 2.72734e-20)
(4.6659 6.47248 4.53032e-19)
(5.16361 6.80699 2.28807e-19)
(5.70994 7.15932 -7.79889e-19)
(6.06383 7.15518 2.28377e-19)
(5.81122 6.35749 -2.05353e-19)
(4.70884 4.71194 -1.50877e-18)
(2.946 2.67474 3.90571e-20)
(1.14675 0.978914 -5.59442e-18)
(-0.0240002 0.174315 7.3321e-18)
(-0.513163 0.0130392 -5.89874e-18)
(-0.77845 -0.0374807 -6.59085e-19)
(-0.92268 -0.054853 2.84557e-18)
(-1.0248 -0.0538215 -1.01599e-18)
(-1.09895 -0.0410674 3.97135e-18)
(-1.15955 -0.0182166 -1.6354e-18)
(-1.21199 0.00751283 3.76702e-19)
(-1.26091 0.0372386 -2.97306e-19)
(-1.3095 0.0685713 3.09296e-19)
(-1.35865 0.100605 -4.07216e-19)
(-1.40915 0.129815 2.15149e-18)
(-1.46184 0.156534 -7.0637e-19)
(-1.51641 0.180257 -1.78194e-18)
(-1.57114 0.200048 8.35176e-19)
(-1.62348 0.214729 2.71676e-18)
(-1.67016 0.222855 -1.34109e-18)
(-1.70726 0.222914 3.6598e-20)
(-1.73039 0.213356 -1.06121e-18)
(-1.73488 0.19264 6.82938e-20)
(-1.71607 0.159306 -1.79722e-18)
(-1.66939 0.112024 -3.91769e-20)
(-1.59025 0.0493033 8.08887e-19)
(-1.47478 -0.0303448 2.70584e-18)
(-1.32006 -0.127732 -2.08853e-18)
(-1.12202 -0.243258 -2.4314e-18)
(-0.880388 -0.381853 2.00947e-18)
(-0.616047 -0.546981 -7.47837e-19)
(-0.274655 -0.691548 2.26852e-20)
(0.000788903 -0.918406 9.51461e-20)
(3.8123 5.03835 -7.6165e-21)
(4.09832 5.40165 -5.99832e-20)
(4.3946 5.74735 3.91353e-20)
(4.7297 6.04466 -2.51461e-19)
(5.10237 6.27709 -1.49794e-19)
(5.52575 6.52823 -2.56867e-19)
(6.0004 6.82969 1.09817e-18)
(6.37216 6.94981 1.78461e-19)
(6.3161 6.5107 5.23627e-19)
(5.54696 5.32018 -1.1064e-18)
(4.06581 3.57948 1.17881e-18)
(2.2599 1.81633 1.67921e-18)
(0.71897 0.595547 -4.28225e-18)
(-0.121383 0.154819 6.38378e-18)
(-0.515979 0.0597583 1.06771e-19)
(-0.738901 0.0248828 -1.29304e-18)
(-0.877282 0.00973872 -4.70707e-18)
(-0.976165 0.0151625 -3.76322e-19)
(-1.05242 0.0296692 -1.48069e-18)
(-1.11555 0.0535165 5.60141e-18)
(-1.17207 0.0811041 -3.53228e-18)
(-1.22517 0.111651 5.9569e-19)
(-1.27777 0.14066 1.18771e-18)
(-1.33189 0.167643 2.06374e-19)
(-1.38818 0.191536 4.64012e-19)
(-1.44553 0.210996 2.11793e-19)
(-1.50175 0.224521 1.10323e-18)
(-1.55386 0.230364 -6.52143e-19)
(-1.59824 0.226744 -2.65251e-18)
(-1.6308 0.211898 -7.66476e-19)
(-1.64719 0.184148 2.27571e-18)
(-1.64306 0.141963 1.06521e-18)
(-1.61418 0.0840621 8.69657e-20)
(-1.55637 0.00906713 -1.87184e-18)
(-1.46619 -0.0842494 -1.04796e-18)
(-1.34115 -0.196247 6.86488e-19)
(-1.17865 -0.326535 1.59709e-18)
(-0.979588 -0.477829 -8.85159e-19)
(-0.758479 -0.648864 6.15536e-19)
(-0.490749 -0.80397 -1.31192e-18)
(-0.250137 -0.985663 -1.9598e-19)
(4.13398 4.77705 -2.02324e-20)
(4.36331 5.08206 -1.35632e-19)
(4.59184 5.37551 2.90821e-19)
(4.84529 5.65056 3.67703e-20)
(5.13508 5.88352 -6.01895e-20)
(5.45544 6.06158 1.07787e-20)
(5.8151 6.24398 -4.26288e-19)
(6.22545 6.48854 -4.36706e-19)
(6.60383 6.68164 -6.19752e-21)
(6.71691 6.53065 -8.20096e-19)
(6.28233 5.78231 -2.70955e-19)
(5.16579 4.43014 8.04202e-19)
(3.52326 2.77618 5.10706e-19)
(1.80156 1.30802 -2.15725e-18)
(0.517151 0.441662 7.43772e-18)
(-0.137608 0.178077 -3.58842e-18)
(-0.481705 0.113244 3.11708e-18)
(-0.683198 0.0867219 -4.8752e-18)
(-0.817723 0.0758949 -1.51485e-19)
(-0.915388 0.0836808 1.64744e-18)
(-0.992245 0.101199 -2.20202e-18)
(-1.05589 0.127388 -2.91958e-19)
(-1.11359 0.155037 5.85185e-19)
(-1.17013 0.182034 -1.94131e-18)
(-1.22803 0.206364 -5.38479e-19)
(-1.28745 0.225961 -1.43261e-18)
(-1.34708 0.238852 -2.59865e-18)
(-1.40455 0.24287 9.83462e-19)
(-1.45664 0.235881 7.20383e-19)
(-1.49966 0.215886 2.33142e-18)
(-1.5296 0.181073 -9.29094e-19)
(-1.54248 0.129851 6.68188e-19)
(-1.53448 0.0609992 -7.76719e-19)
(-1.50195 -0.026671 1.88088e-18)
(-1.44193 -0.133993 -2.10872e-19)
(-1.35243 -0.26067 4.85648e-19)
(-1.23206 -0.405359 -2.41432e-18)
(-1.08244 -0.568251 1.54764e-18)
(-0.913201 -0.743865 -1.14583e-19)
(-0.716781 -0.90515 8.02136e-19)
(-0.525009 -1.05501 -8.28363e-19)
(4.43043 4.55003 -1.10262e-19)
(4.61967 4.80749 4.11351e-19)
(4.80224 5.05638 -1.45018e-19)
(4.9985 5.29411 -1.97241e-19)
(5.22117 5.51471 1.40389e-19)
(5.47253 5.70063 -3.29895e-19)
(5.74785 5.83992 1.0412e-19)
(6.05243 5.96892 1.66959e-18)
(6.40226 6.15146 -1.75243e-18)
(6.76592 6.36006 -1.76592e-19)
(6.99703 6.40746 8.75871e-20)
(6.85655 6.0403 6.56663e-20)
(6.13743 5.11878 8.75485e-19)
(4.81644 3.74337 -3.29117e-19)
(3.14233 2.24514 1.91753e-18)
(1.55296 1.03508 -2.33224e-18)
(0.460871 0.39712 1.0289e-18)
(-0.100688 0.217781 -8.98173e-19)
(-0.414867 0.171048 1.72984e-18)
(-0.606315 0.149177 1.36488e-18)
(-0.736841 0.142666 5.90792e-19)
(-0.830036 0.155158 -1.6006e-18)
(-0.903389 0.17642 1.49987e-18)
(-0.967822 0.2014 8.43311e-19)
(-1.02963 0.225762 -2.34702e-18)
(-1.09155 0.245877 1.61075e-18)
(-1.15404 0.258919 1.83439e-18)
(-1.21602 0.262072 -2.12292e-18)
(-1.27521 0.252706 2.86189e-19)
(-1.32861 0.228473 -1.81718e-18)
(-1.37283 0.18735 9.44673e-19)
(-1.40436 0.127673 -1.23706e-18)
(-1.41981 0.0483161 -3.99844e-19)
(-1.4161 -0.0515938 6.56632e-20)
(-1.39074 -0.172351 -8.28427e-19)
(-1.34223 -0.312841 2.41597e-19)
(-1.26998 -0.470602 6.89002e-19)
(-1.17581 -0.643393 -9.32806e-19)
(-1.06592 -0.822833 -1.36183e-19)
(-0.939485 -0.986726 -1.13111e-18)
(-0.805763 -1.11866 7.92113e-19)
(4.70354 4.35007 -1.12863e-19)
(4.86362 4.56892 -3.40589e-19)
(5.0144 4.77947 2.13574e-20)
(5.17113 4.98281 7.08877e-20)
(5.34481 5.17665 -3.52776e-20)
(5.54061 5.35519 -2.38338e-19)
(5.75871 5.50676 1.87988e-20)
(5.99532 5.61944 1.4609e-20)
(6.25286 5.71066 1.19875e-19)
(6.54593 5.8332 1.63547e-18)
(6.87349 6.01174 5.26205e-19)
(7.1634 6.15885 1.37661e-19)
(7.24438 6.07569 -1.06523e-18)
(6.90029 5.56756 2.368e-18)
(5.99612 4.58073 -1.96985e-18)
(4.58651 3.26557 1.18284e-18)
(2.9496 1.93161 -1.75523e-18)
(1.48241 0.914401 -4.87896e-18)
(0.505837 0.406089 3.17758e-19)
(-0.0141259 0.264389 6.4615e-18)
(-0.31144 0.228697 -3.54383e-18)
(-0.490289 0.216215 4.00918e-18)
(-0.609247 0.218983 -2.00118e-18)
(-0.699005 0.233693 3.2438e-19)
(-0.774791 0.253551 -2.11545e-19)
(-0.844597 0.272627 -1.62041e-18)
(-0.912302 0.286143 1.34961e-18)
(-0.979368 0.289697 -1.09059e-18)
(-1.04529 0.279603 8.95165e-19)
(-1.1084 0.25291 5.96166e-19)
(-1.1664 0.207329 7.78379e-20)
(-1.21665 0.141121 5.35506e-19)
(-1.25647 0.0531994 3.11645e-19)
(-1.28354 -0.057023 -1.29632e-18)
(-1.29583 -0.189229 -7.62712e-19)
(-1.29211 -0.341361 5.32171e-19)
(-1.27213 -0.509768 6.41623e-19)
(-1.23742 -0.690259 1.26383e-19)
(-1.19159 -0.872927 1.27395e-18)
(-1.13456 -1.0383 9.02318e-19)
(-1.06512 -1.16486 2.00242e-19)
(4.95465 4.17228 -1.28418e-19)
(5.09263 4.3595 6.38837e-20)
(5.2206 4.53827 3.04003e-19)
(5.34941 4.71099 -2.75789e-19)
(5.48854 4.87825 3.2204e-20)
(5.64284 5.03696 5.19412e-20)
(5.81497 5.18289 9.36392e-20)
(6.00452 5.3083 -6.90646e-19)
(6.20841 5.40273 -1.73089e-18)
(6.42647 5.46996 2.28398e-18)
(6.66873 5.54427 -1.58291e-18)
(6.94843 5.66903 -4.11057e-19)
(7.24463 5.83121 -7.09263e-19)
(7.45767 5.91454 -4.07248e-19)
(7.41385 5.73932 9.31208e-19)
(6.93485 5.16692 -4.18195e-19)
(5.93983 4.193 1.98243e-18)
(4.52097 2.97604 -1.85493e-18)
(2.94681 1.78479 -8.38765e-19)
(1.56573 0.892216 5.98137e-18)
(0.64097 0.440739 -3.5959e-18)
(0.146562 0.315145 -2.2131e-19)
(-0.124978 0.300294 8.4941e-19)
(-0.294711 0.302074 3.04698e-18)
(-0.414934 0.307543 -2.56363e-18)
(-0.510416 0.317159 -5.57779e-19)
(-0.593794 0.32655 -6.20699e-19)
(-0.671956 0.32916 3.29257e-18)
(-0.747723 0.319296 -1.44994e-18)
(-0.821807 0.292484 -4.71459e-19)
(-0.893725 0.245539 1.58933e-18)
(-0.962319 0.176256 -1.34362e-18)
(-1.02603 0.0834128 -6.67166e-19)
(-1.08359 -0.0333182 7.91441e-19)
(-1.13375 -0.172943 5.85353e-19)
(-1.17549 -0.332554 1.04078e-19)
(-1.20855 -0.507625 -3.02511e-19)
(-1.23383 -0.692849 -1.79052e-19)
(-1.25267 -0.877959 -6.34429e-19)
(-1.26382 -1.0458 5.58487e-19)
(-1.26227 -1.17681 -1.0137e-19)
(5.18491 4.01294 2.04789e-19)
(5.3056 4.17395 -4.58004e-19)
(5.41653 4.32633 4.27315e-19)
(5.52545 4.47287 1.0796e-19)
(5.63972 4.61566 -9.91343e-20)
(5.76396 4.75359 5.84439e-20)
(5.90102 4.88409 5.04926e-19)
(6.05241 5.00406 2.97502e-19)
(6.21762 5.10859 1.6352e-19)
(6.394 5.18951 8.00879e-20)
(6.57954 5.24333 -5.74353e-19)
(6.78018 5.28657 9.1029e-19)
(7.01072 5.35695 -9.01747e-20)
(7.2765 5.48017 9.36861e-19)
(7.53805 5.61834 -2.54741e-18)
(7.68641 5.65306 2.62027e-18)
(7.56229 5.43389 -7.67662e-19)
(7.02162 4.86143 -2.25698e-18)
(6.01405 3.95083 1.87935e-18)
(4.63651 2.84404 -2.18902e-18)
(3.12824 1.7665 1.62127e-18)
(1.83674 0.962122 -6.45195e-19)
(0.977965 0.536479 2.60771e-18)
(0.481612 0.396168 -1.03985e-18)
(0.189945 0.383568 -5.26563e-18)
(0.00347724 0.396947 2.87038e-18)
(-0.130467 0.403281 1.2069e-18)
(-0.23997 0.399269 -2.92161e-19)
(-0.337597 0.384494 2.27833e-19)
(-0.429782 0.355624 -6.80006e-19)
(-0.519701 0.308527 -3.24616e-18)
(-0.608718 0.239628 3.38644e-18)
(-0.696998 0.146771 -2.13783e-19)
(-0.784389 0.0292917 -9.46193e-19)
(-0.8708 -0.111802 1.02395e-18)
(-0.955624 -0.273129 -1.37547e-19)
(-1.03843 -0.449478 -2.52716e-19)
(-1.11965 -0.635102 4.56929e-19)
(-1.19893 -0.820444 2.08349e-19)
(-1.27416 -0.991354 -4.23231e-19)
(-1.34 -1.13248 -2.14491e-19)
(5.39536 3.86932 6.01914e-21)
(5.50204 4.00832 2.22937e-19)
(5.59973 4.13866 4.22627e-19)
(5.6939 4.26311 -4.98185e-19)
(5.79025 4.38439 -1.96603e-20)
(5.89268 4.50256 -1.21578e-19)
(6.0038 4.61638 -2.79456e-19)
(6.12556 4.7238 -3.27541e-19)
(6.2589 4.82256 4.56529e-19)
(6.40329 4.90942 1.42775e-18)
(6.55642 4.97892 -4.8782e-19)
(6.71625 5.02573 9.91072e-19)
(6.88489 5.05361 -1.26668e-20)
(7.0722 5.08458 -1.90888e-18)
(7.29179 5.15152 -7.72017e-19)
(7.54106 5.2658 1.76522e-18)
(7.77259 5.3812 -9.58038e-19)
(7.8816 5.39123 1.28444e-18)
(7.7284 5.17283 -1.85479e-18)
(7.19334 4.64886 1.22341e-19)
(6.23298 3.83508 -1.59182e-19)
(4.98852 2.88483 3.82398e-18)
(3.69689 1.98244 -1.1774e-19)
(2.54745 1.25447 -2.45045e-18)
(1.6709 0.779502 -4.98536e-19)
(1.08298 0.549203 -7.92811e-19)
(0.707641 0.480883 -2.73589e-18)
(0.461827 0.47979 3.42556e-18)
(0.288508 0.483277 -2.79885e-18)
(0.15099 0.465782 -9.4222e-20)
(0.0283152 0.422605 7.78943e-19)
(-0.0896352 0.354494 -4.69308e-19)
(-0.207248 0.26218 3.57996e-19)
(-0.326688 0.146344 -1.45642e-19)
(-0.448874 0.00846238 1.67289e-18)
(-0.574265 -0.148428 -1.47113e-18)
(-0.702432 -0.320011 1.06469e-19)
(-0.83356 -0.501394 7.01752e-20)
(-0.966132 -0.684321 9.05338e-20)
(-1.09769 -0.857422 -3.06147e-20)
(-1.2252 -1.00916 2.52913e-19)
(5.58692 3.73938 -3.6465e-19)
(5.68191 3.85962 1.71932e-19)
(5.76892 3.97133 -6.35729e-19)
(5.85174 4.0771 2.94025e-19)
(5.93479 4.17986 -1.40214e-19)
(6.02119 4.28027 2.36754e-20)
(6.1133 4.37784 -7.93204e-20)
(6.2128 4.4715 8.51268e-20)
(6.32108 4.5597 -1.00156e-18)
(6.43866 4.64056 5.38778e-19)
(6.56501 4.71194 7.40199e-20)
(6.69885 4.77089 -3.46778e-18)
(6.83839 4.81284 2.19814e-18)
(6.98293 4.83528 1.59396e-19)
(7.13688 4.84598 2.00005e-18)
(7.31163 4.86734 -1.82022e-18)
(7.51869 4.92588 2.94728e-19)
(7.75164 5.02583 1.43694e-18)
(7.96394 5.12413 -1.53854e-18)
(8.06454 5.13274 5.82638e-19)
(7.92854 4.9484 1.88183e-19)
(7.48095 4.53356 -3.91666e-19)
(6.74415 3.93081 1.39063e-19)
(5.79864 3.21557 -3.96715e-19)
(4.75838 2.4803 2.5629e-18)
(3.73981 1.8109 -3.63636e-18)
(2.84366 1.27385 3.20688e-18)
(2.13207 0.90321 9.29592e-19)
(1.60807 0.688647 -1.41312e-18)
(1.23195 0.584489 -5.84217e-19)
(0.956389 0.534537 -3.42915e-19)
(0.742847 0.492315 2.32432e-18)
(0.563176 0.430276 -2.78048e-19)
(0.397899 0.338534 -2.95301e-18)
(0.235518 0.217696 6.31286e-19)
(0.0706148 0.072769 8.65675e-19)
(-0.0989171 -0.0900445 -7.34598e-19)
(-0.275451 -0.26521 7.16219e-19)
(-0.456377 -0.4452 2.45976e-19)
(-0.638389 -0.620752 1.09232e-19)
(-0.821804 -0.782384 -5.39781e-19)
(5.76018 3.6215 2.68427e-19)
(5.84518 3.72557 -3.21533e-19)
(5.92328 3.82137 6.83247e-19)
(5.99703 3.91128 -2.81528e-20)
(6.06992 3.99817 6.95595e-20)
(6.1444 4.08298 2.66222e-19)
(6.22238 4.16564 -6.24005e-20)
(6.30538 4.24563 6.37949e-20)
(6.39465 4.32212 2.68211e-19)
(6.49105 4.39379 -5.28688e-20)
(6.59478 4.4591 1.27633e-18)
(6.70576 4.51687 -1.76354e-18)
(6.82338 4.56546 3.05423e-18)
(6.9461 4.60187 -2.33189e-18)
(7.07229 4.62242 -1.09234e-18)
(7.20257 4.62683 -4.22003e-19)
(7.34271 4.624 -7.2137e-19)
(7.50418 4.63379 7.51687e-19)
(7.69679 4.67727 9.2015e-20)
(7.91558 4.75822 5.48901e-19)
(8.12048 4.8412 -2.74795e-19)
(8.23289 4.86105 3.02521e-19)
(8.18354 4.76478 1.15806e-18)
(7.93725 4.52745 -1.43691e-18)
(7.49069 4.15428 7.29062e-19)
(6.87133 3.67555 7.86833e-19)
(6.12934 3.13539 9.4035e-20)
(5.32627 2.58171 -3.65032e-18)
(4.52469 2.05896 8.63056e-19)
(3.78005 1.60283 1.8829e-18)
(3.13086 1.23435 -1.38661e-18)
(2.59043 0.955307 3.01332e-18)
(2.14938 0.750189 -2.83829e-18)
(1.78557 0.594527 3.94607e-19)
(1.47697 0.46419 9.79456e-19)
(1.20556 0.340122 -9.55054e-19)
(0.957446 0.209894 4.93946e-19)
(0.720507 0.0669722 -5.60106e-20)
(0.489163 -0.0890935 -8.31661e-19)
(0.260978 -0.25293 -3.21389e-20)
(0.0256753 -0.416202 7.27432e-21)
(5.91553 3.5142 1.55708e-20)
(5.99171 3.60422 -1.98623e-19)
(6.06206 3.68636 -6.25758e-20)
(6.12827 3.76279 3.46132e-19)
(6.19303 3.83621 -7.33553e-22)
(6.25833 3.90763 -2.52858e-20)
(6.32565 3.97715 -3.05555e-19)
(6.3963 4.04457 1.84768e-19)
(6.47131 4.10944 -1.03048e-19)
(6.55153 4.171 8.64461e-19)
(6.63741 4.22816 -1.82641e-19)
(6.72922 4.27995 -1.65851e-19)
(6.82709 4.32546 1.20925e-18)
(6.93063 4.36366 -4.65665e-19)
(7.03883 4.39294 -6.69241e-19)
(7.1502 4.4107 -5.67113e-19)
(7.26361 4.41424 -3.94267e-19)
(7.38036 4.40411 3.00548e-18)
(7.50637 4.388 -3.14674e-18)
(7.65218 4.38204 2.22952e-21)
(7.82827 4.40364 1.88836e-18)
(8.02373 4.45428 -1.67764e-18)
(8.20894 4.51485 1.62774e-18)
(8.34975 4.55495 -7.11962e-19)
(8.40996 4.5429 -8.19401e-19)
(8.36113 4.45556 2.22223e-18)
(8.18768 4.28287 -8.46273e-19)
(7.88886 4.02792 1.1612e-18)
(7.47744 3.7041 -3.17094e-18)
(6.97614 3.33095 3.97911e-19)
(6.41317 2.93038 1.38531e-18)
(5.81841 2.5241 -1.81716e-19)
(5.22077 2.13126 -3.14049e-19)
(4.6421 1.76526 1.1622e-19)
(4.09842 1.43437 -4.68749e-20)
(3.59893 1.14131 2.80614e-19)
(3.14571 0.883324 -7.56243e-19)
(2.73009 0.652919 6.09467e-19)
(2.34721 0.444903 -3.23241e-19)
(1.9931 0.255554 2.97634e-19)
(1.64769 0.0840611 2.9465e-20)
(6.04778 3.4209 9.57345e-21)
(6.11637 3.49916 -4.12727e-19)
(6.18007 3.56994 4.12161e-19)
(6.23999 3.63531 -3.79892e-19)
(6.29828 3.69775 -6.13368e-20)
(6.3565 3.75821 2.00154e-19)
(6.41585 3.81689 2.33808e-19)
(6.47735 3.87378 -9.05725e-19)
(6.54193 3.92863 -5.78087e-20)
(6.61028 3.9809 1.45684e-18)
(6.68289 4.02986 -1.93522e-18)
(6.76013 4.07483 5.15979e-19)
(6.84228 4.11503 4.88486e-19)
(6.92934 4.14962 -8.33995e-19)
(7.02109 4.17787 2.01058e-18)
(7.11694 4.19897 -2.63518e-19)
(7.21589 4.21153 -5.8592e-18)
(7.31655 4.21334 5.04223e-18)
(7.41814 4.20226 -1.85309e-18)
(7.52191 4.1786 -1.33728e-18)
(7.63367 4.14856 1.75212e-18)
(7.75833 4.12478 1.78547e-18)
(7.89861 4.11833 -2.63815e-18)
(8.05456 4.13294 2.46317e-18)
(8.21751 4.16379 -6.67887e-19)
(8.37199 4.19851 6.13634e-19)
(8.49882 4.22093 -1.13222e-18)
(8.57881 4.215 1.16578e-18)
(8.59633 4.16823 4.29236e-19)
(8.54093 4.07318 -2.19754e-18)
(8.4084 3.92802 2.60798e-19)
(8.20043 3.73585 -1.25037e-19)
(7.92395 3.50351 1.26601e-18)
(7.58742 3.23884 3.32616e-20)
(7.20224 2.95129 -7.11641e-20)
(6.78144 2.65102 -1.3254e-19)
(6.33936 2.34769 -5.00384e-20)
(5.88219 2.04591 -1.08483e-19)
(5.41979 1.75244 -3.93648e-19)
(4.96465 1.47175 3.89851e-20)
(4.50285 1.20518 6.53463e-20)
(6.1555 3.34326 1.70009e-19)
(6.2178 3.41186 3.20108e-19)
(6.27596 3.47336 -2.23371e-19)
(6.33074 3.52975 -3.74739e-19)
(6.38383 3.58329 -1.1963e-20)
(6.43654 3.63485 1.64137e-19)
(6.48983 3.68468 -1.57856e-19)
(6.54456 3.73285 2.364e-19)
(6.60148 3.77925 5.52432e-19)
(6.66119 3.82354 -1.04819e-18)
(6.72413 3.8652 -1.3529e-18)
(6.79068 3.90372 1.61453e-18)
(6.86113 3.93851 1.43923e-18)
(6.93559 3.96885 -2.14781e-18)
(7.01401 3.99402 2.52196e-18)
(7.09623 4.01339 1.72311e-18)
(7.18192 4.02644 -1.32164e-18)
(7.27047 4.03247 -2.18308e-18)
(7.36089 4.03028 -2.79025e-19)
(7.45189 4.01796 1.76537e-18)
(7.54259 3.99354 -3.48661e-18)
(7.63103 3.95875 2.75044e-18)
(7.71851 3.91866 3.41645e-19)
(7.81073 3.87945 7.26377e-19)
(7.91248 3.84772 -1.25217e-18)
(8.02649 3.82811 6.13824e-19)
(8.15202 3.82184 -5.42155e-19)
(8.28456 3.82631 -3.76203e-19)
(8.41642 3.83572 7.42273e-19)
(8.53798 3.84251 -4.75989e-19)
(8.63913 3.83873 -2.423e-19)
(8.71039 3.81724 9.51948e-19)
(8.74422 3.77269 -1.2168e-18)
(8.73513 3.70169 6.59041e-19)
(8.67982 3.603 6.12209e-20)
(8.57733 3.47761 -7.72717e-19)
(8.43011 3.3286 5.52785e-19)
(8.23877 3.15758 1.17811e-19)
(8.00643 2.9688 -2.48663e-19)
(7.7425 2.76742 -7.41038e-20)
(7.43647 2.55333 -5.97013e-20)
(6.24433 3.27777 -1.04256e-19)
(6.30127 3.33826 3.98907e-20)
(6.3547 3.39204 -8.24556e-20)
(6.40509 3.441 -1.2542e-19)
(6.45384 3.48721 9.12511e-20)
(6.50202 3.53145 -1.55168e-20)
(6.55046 3.57399 6.51103e-20)
(6.59984 3.61493 -2.30365e-19)
(6.65081 3.65424 2.95669e-20)
(6.70387 3.69169 1.38145e-19)
(6.7594 3.72688 -4.94906e-19)
(6.81774 3.75946 7.91285e-19)
(6.87917 3.78898 -1.79372e-18)
(6.94384 3.81488 1.09398e-18)
(7.01177 3.83656 6.79855e-19)
(7.08288 3.8534 4.67932e-19)
(7.157 3.86484 2.01216e-19)
(7.23389 3.87038 -3.40737e-19)
(7.3132 3.86959 -1.02062e-18)
(7.39431 3.8619 2.02245e-18)
(7.47625 3.84616 9.42659e-20)
(7.55507 3.8221 -2.21528e-18)
(7.62816 3.79008 9.98419e-19)
(7.6965 3.7507 1.11888e-18)
(7.76185 3.70589 -2.27091e-18)
(7.82695 3.65857 2.04819e-18)
(7.89499 3.61212 -1.73806e-18)
(7.9688 3.56973 7.7867e-20)
(8.05016 3.53368 5.35935e-19)
(8.13936 3.50493 1.40249e-18)
(8.23497 3.48301 -1.84822e-18)
(8.33411 3.46616 5.25453e-19)
(8.43267 3.45165 9.69773e-19)
(8.5262 3.43642 -7.6447e-19)
(8.6098 3.4173 -9.01014e-20)
(8.67855 3.39141 -2.76117e-20)
(8.72834 3.35663 1.49044e-19)
(8.75617 3.31122 -1.02168e-19)
(8.75879 3.2539 7.0084e-20)
(8.73616 3.18518 -1.21649e-19)
(8.68246 3.10313 -8.66763e-21)
(6.31853 3.22161 2.26241e-20)
(6.37077 3.27519 4.04709e-19)
(6.42002 3.32242 3.29601e-21)
(6.46655 3.36514 -2.12771e-19)
(6.51152 3.4052 5.95731e-20)
(6.55583 3.44333 -1.59535e-20)
(6.60018 3.47977 -1.74282e-19)
(6.64514 3.51466 9.60439e-20)
(6.69126 3.54799 3.54659e-19)
(6.73896 3.57961 3.67805e-20)
(6.78854 3.60922 1.42018e-19)
(6.84031 3.63653 5.61903e-19)
(6.89451 3.66122 -3.80934e-19)
(6.95129 3.68282 -7.7612e-19)
(7.0107 3.70086 6.62593e-20)
(7.0727 3.71484 -2.49048e-19)
(7.13718 3.72424 6.31303e-19)
(7.20398 3.72856 -6.01308e-19)
(7.27285 3.72732 -4.21072e-19)
(7.34352 3.72016 -1.1861e-18)
(7.41562 3.7066 1.52859e-18)
(7.48618 3.68715 7.42812e-19)
(7.5527 3.66234 -7.97902e-19)
(7.61488 3.6321 -7.76147e-19)
(7.67221 3.59647 -4.46555e-19)
(7.72466 3.55573 1.56711e-18)
(7.77277 3.5105 9.58991e-19)
(7.81762 3.46182 8.64349e-19)
(7.86071 3.41108 -1.84103e-18)
(7.90369 3.35983 5.97298e-19)
(7.94812 3.30962 -7.35495e-19)
(7.99526 3.26177 4.07328e-19)
(8.04577 3.21723 -6.43298e-19)
(8.09995 3.17651 1.00583e-18)
(8.15736 3.1397 -5.11738e-19)
(8.21689 3.10656 2.18742e-19)
(8.27672 3.07641 -4.54586e-19)
(8.33589 3.04866 3.72477e-19)
(8.39212 3.02213 -2.83584e-19)
(8.44356 2.9963 -7.86054e-21)
(8.48783 2.96999 4.88822e-20)
(6.38119 3.17283 -9.12657e-20)
(6.42926 3.22042 -3.78173e-20)
(6.47475 3.26203 -4.04638e-19)
(6.51781 3.29942 5.09594e-19)
(6.55941 3.33426 -9.50586e-20)
(6.60032 3.36718 -2.55614e-20)
(6.64112 3.39846 1.23546e-19)
(6.6823 3.42821 -2.95406e-19)
(6.72432 3.45646 1.45942e-18)
(6.76752 3.48309 -2.11391e-18)
(6.81217 3.50789 1.11767e-18)
(6.85849 3.53062 3.45786e-19)
(6.90672 3.551 -4.17512e-19)
(6.95697 3.56869 -1.75897e-18)
(7.00928 3.58329 4.47372e-19)
(7.06364 3.59439 -1.03672e-18)
(7.11998 3.60156 3.33826e-18)
(7.17817 3.60438 -9.1601e-19)
(7.23799 3.60239 -1.99093e-19)
(7.29922 3.5952 6.56086e-19)
(7.36157 3.58234 -3.18313e-18)
(7.42274 3.56436 1.93175e-18)
(7.48092 3.54206 1.1597e-18)
(7.53606 3.51575 -1.08506e-18)
(7.58774 3.48575 -2.80014e-19)
(7.63557 3.45231 9.76401e-19)
(7.67925 3.41557 -1.58714e-18)
(7.71857 3.37567 1.13447e-18)
(7.75353 3.33282 9.81869e-19)
(7.78436 3.28733 -7.14576e-19)
(7.81148 3.23967 -1.2467e-18)
(7.8355 3.19046 1.14436e-19)
(7.85713 3.14038 6.35299e-19)
(7.87721 3.09013 2.91273e-19)
(7.89649 3.04044 -7.49316e-19)
(7.91565 2.99211 7.86316e-19)
(7.93505 2.94577 -5.02225e-19)
(7.9554 2.90186 2.23289e-19)
(7.97679 2.8607 6.6417e-20)
(7.99943 2.82277 -1.92635e-19)
(8.02252 2.78812 -2.49682e-20)
(6.43457 3.13003 -2.50516e-19)
(6.47886 3.17238 2.82416e-19)
(6.52093 3.20911 2.27888e-19)
(6.56083 3.24191 1.30675e-19)
(6.59937 3.27225 -5.76608e-20)
(6.63722 3.30073 -1.51043e-19)
(6.67485 3.32758 4.84021e-19)
(6.7127 3.35295 -1.50042e-18)
(6.75115 3.37686 2.0184e-18)
(6.79047 3.39923 -1.02875e-18)
(6.83089 3.41989 -1.65582e-18)
(6.8726 3.43864 4.48609e-19)
(6.91576 3.45527 2.156e-18)
(6.96047 3.46949 1.14859e-18)
(7.00677 3.48098 -2.05333e-18)
(7.05465 3.4894 1.54954e-18)
(7.10403 3.4944 -1.21597e-18)
(7.15481 3.49563 -2.95383e-19)
(7.20682 3.49271 3.50596e-19)
(7.25984 3.4853 -1.65092e-18)
(7.31362 3.47296 4.13422e-18)