# Force and moment coefficients
# dragDir     : (1.000000e+00 0.000000e+00 0.000000e+00)
# sideDir     : (0.000000e+00 0.000000e+00 -1.000000e+00)
# liftDir     : (0.000000e+00 1.000000e+00 0.000000e+00)
# rollAxis    : (1.000000e+00 0.000000e+00 0.000000e+00)
# pitchAxis   : (0.000000e+00 0.000000e+00 -1.000000e+00)
# yawAxis     : (0.000000e+00 1.000000e+00 0.000000e+00)
# magUInf     : 7.300000e+00
# lRef        : 3.190000e-01
# Aref        : 1.595000e-03
# CofR        : (0.000000e+00 0.000000e+00 0.000000e+00)
#
# Time        	Cd            	Cd(f)         	Cd(r)         	Cl            	Cl(f)         	Cl(r)         	CmPitch       	CmRoll        	CmYaw         	Cs            	Cs(f)         	Cs(r)         
1             	9.221778e+01	-8.390149e+02	9.312326e+02	1.882363e+03	-2.180516e+03	4.062879e+03	-3.121698e+03	-8.851237e+02	4.336259e+01	-5.262321e-18	4.336259e+01	-4.336259e+01
2             	3.606417e+01	-7.759744e+02	8.120386e+02	1.688587e+03	-1.862488e+03	3.551075e+03	-2.706781e+03	-7.940065e+02	1.695807e+01	-1.811598e-17	1.695807e+01	-1.695807e+01
3             	-6.922127e+01	-9.580218e+01	2.658091e+01	1.301340e+02	5.220909e+01	7.792492e+01	-1.285791e+01	-6.119154e+01	-3.254919e+01	-3.460797e-17	-3.254919e+01	3.254919e+01
4             	-5.372744e+01	3.566895e+02	-4.104170e+02	-8.156899e+02	1.262000e+03	-2.077690e+03	1.669845e+03	3.835533e+02	-2.526369e+01	-2.156951e-17	-2.526369e+01	2.526369e+01
5             	-2.922768e+01	3.034549e+02	-3.326826e+02	-6.764261e+02	1.084727e+03	-1.761153e+03	1.422940e+03	3.180687e+02	-1.374342e+01	-1.226391e-17	-1.374342e+01	1.374342e+01
6             	9.699044e+00	-6.102375e+01	7.072279e+01	1.400905e+02	3.116877e+02	-1.715972e+02	2.416425e+02	-6.587327e+01	4.560679e+00	1.092624e-17	4.560679e+00	-4.560679e+00
7             	9.520572e+00	-3.835450e+02	3.930656e+02	8.257959e+02	-6.881625e+02	1.513958e+03	-1.101060e+03	-3.883053e+02	4.476758e+00	3.957332e-18	4.476758e+00	-4.476758e+00
8             	-2.290313e+01	-3.784674e+02	3.555643e+02	7.805203e+02	-9.050505e+02	1.685571e+03	-1.295311e+03	-3.670158e+02	-1.076950e+01	-6.985322e-18	-1.076950e+01	1.076950e+01
9             	-3.201429e+01	-1.658227e+02	1.338084e+02	3.186078e+02	-7.007594e+02	1.019367e+03	-8.600633e+02	-1.498156e+02	-1.505374e+01	-1.764904e-17	-1.505374e+01	1.505374e+01
10            	6.833409e+00	-5.033535e+01	5.716876e+01	1.143127e+02	-2.403698e+02	3.546825e+02	-2.975262e+02	-5.375205e+01	3.213202e+00	-8.104145e-18	3.213202e+00	-3.213202e+00
11            	1.246441e+01	-1.122143e+02	1.246787e+02	2.518963e+02	-8.111072e+01	3.330070e+02	-2.070589e+02	-1.184465e+02	5.861005e+00	-2.578407e-18	5.861005e+00	-5.861005e+00
12            	-3.845793e+00	-2.646961e+02	2.608503e+02	5.588310e+02	6.884926e+01	4.899818e+02	-2.105663e+02	-2.627732e+02	-1.808367e+00	2.809471e-18	-1.808367e+00	1.808367e+00
13            	-2.304594e+01	-3.144895e+02	2.914435e+02	6.443087e+02	9.553130e+01	5.487774e+02	-2.266231e+02	-3.029665e+02	-1.083665e+01	4.690416e-18	-1.083665e+01	1.083665e+01
14            	-3.672469e+01	-2.101154e+02	1.733907e+02	4.077948e+02	6.337090e+01	3.444239e+02	-1.405265e+02	-1.917530e+02	-1.726866e+01	-3.901847e-18	-1.726866e+01	1.726866e+01
15            	-5.298018e+01	1.516810e+02	-2.046612e+02	-3.789105e+02	9.567661e+01	-4.745871e+02	2.851318e+02	1.781711e+02	-2.491231e+01	-1.284023e-17	-2.491231e+01	2.491231e+01
16            	-3.177714e+01	2.643231e+02	-2.961003e+02	-5.959169e+02	-2.621594e+01	-5.697010e+02	2.717425e+02	2.802117e+02	-1.494223e+01	-2.298874e-17	-1.494223e+01	1.494223e+01
17            	-7.696333e+00	2.631647e+01	-3.401280e+01	-6.415013e+01	-1.457709e+02	8.162074e+01	-1.136958e+02	3.016464e+01	-3.618965e+00	-1.946566e-17	-3.618965e+00	3.618965e+00
18            	1.128414e+01	-4.898165e+02	5.011006e+02	1.053675e+03	-3.879512e+02	1.441626e+03	-9.147888e+02	-4.954586e+02	5.306024e+00	-6.240283e-18	5.306024e+00	-5.306024e+00
19            	-2.660158e+00	-6.653729e+02	6.627127e+02	1.412198e+03	-4.237357e+02	1.835933e+03	-1.129835e+03	-6.640428e+02	-1.250858e+00	4.667883e-19	-1.250858e+00	1.250858e+00
20            	-2.504560e+01	-4.140011e+02	3.889555e+02	8.538106e+02	-2.738576e+02	1.127668e+03	-7.007629e+02	-4.014783e+02	-1.177693e+01	-1.139497e-17	-1.177693e+01	1.177693e+01
21            	-3.280172e+01	8.112826e+01	-1.139300e+02	-2.074119e+02	1.244873e+02	-3.318992e+02	2.281932e+02	9.752913e+01	-1.542401e+01	-2.195232e-17	-1.542401e+01	1.542401e+01
22            	-1.062899e+01	3.765636e+02	-3.871926e+02	-8.121274e+02	3.448358e+02	-1.156963e+03	7.508995e+02	3.818781e+02	-4.997958e+00	-2.451268e-17	-4.997958e+00	4.997958e+00
23            	1.809605e+01	1.638621e+02	-1.457660e+02	-3.292379e+02	2.240071e+02	-5.532450e+02	3.886260e+02	1.548140e+02	8.509113e+00	-1.460376e-17	8.509113e+00	-8.509113e+00
24            	4.572033e+00	-3.485826e+02	3.531547e+02	7.461807e+02	-2.231182e+02	9.692989e+02	-5.962086e+02	-3.508687e+02	2.149859e+00	3.290626e-18	2.149859e+00	-2.149859e+00
25            	-1.654199e+01	-6.669351e+02	6.503931e+02	1.400759e+03	-4.657612e+02	1.866520e+03	-1.166141e+03	-6.586641e+02	-7.778365e+00	1.076580e-17	-7.778365e+00	7.778365e+00
26            	-4.691511e+01	-4.538543e+02	4.069392e+02	9.153104e+02	-4.172401e+02	1.332550e+03	-8.748952e+02	-4.303967e+02	-2.206040e+01	-9.004544e-18	-2.206040e+01	2.206040e+01
27            	-5.349532e+01	4.319054e+01	-9.668586e+01	-1.487352e+02	2.963068e+01	-1.783659e+02	1.039983e+02	6.993820e+01	-2.515454e+01	-3.483960e-17	-2.515454e+01	2.515454e+01
28            	-1.336104e+01	4.738573e+02	-4.872183e+02	-1.021944e+03	3.071862e+02	-1.329130e+03	8.181581e+02	4.805378e+02	-6.282623e+00	-5.207821e-17	-6.282623e+00	6.282623e+00
29            	3.614587e+01	1.811955e+02	-1.450496e+02	-3.469073e+02	9.331896e+01	-4.402262e+02	2.667726e+02	1.631225e+02	1.699649e+01	-1.524854e-17	1.699649e+01	-1.699649e+01
30            	1.927138e+01	-4.711058e+02	4.903772e+02	1.022377e+03	-5.571417e+02	1.579519e+03	-1.068330e+03	-4.807415e+02	9.061778e+00	1.655734e-17	9.061778e+00	-9.061778e+00
31            	4.017523e+01	-9.428936e+02	9.830688e+02	2.047940e+03	-6.365133e+02	2.684453e+03	-1.660483e+03	-9.629812e+02	1.889118e+01	5.808670e-17	1.889118e+01	-1.889118e+01
32            	6.861241e+00	-6.045434e+02	6.114046e+02	1.292958e+03	-3.635963e+02	1.656554e+03	-1.010075e+03	-6.079740e+02	3.226289e+00	2.905720e-17	3.226289e+00	-3.226289e+00
33            	-3.981456e+01	-2.897166e+01	-1.084290e+01	1.927692e+01	1.598752e+02	-1.405983e+02	1.502367e+02	-9.064382e+00	-1.872158e+01	-7.427896e-18	-1.872158e+01	1.872158e+01
34            	-1.598895e+02	2.135533e+03	-2.295422e+03	-4.711582e+03	6.205076e+02	-5.332090e+03	2.976299e+03	2.215477e+03	-7.518314e+01	-1.461612e-16	-7.518314e+01	7.518314e+01
35            	-1.085632e+01	1.792542e+03	-1.803398e+03	-3.823683e+03	6.646084e+02	-4.488292e+03	2.576450e+03	1.797970e+03	-5.104851e+00	-9.549583e-17	-5.104851e+00	5.104851e+00
36            	1.858969e+02	3.465809e+02	-1.606840e+02	-5.393916e+02	4.063692e+02	-9.457608e+02	6.760650e+02	2.536324e+02	8.741233e+01	2.392610e-17	8.741233e+01	-8.741233e+01
37            	1.482353e+03	-6.794318e+03	8.276671e+03	1.602549e+04	1.299363e+03	1.472612e+04	-6.713380e+03	-7.535495e+03	6.970312e+02	8.690588e-16	6.970312e+02	-6.970312e+02
38            	1.753954e+03	-7.222087e+03	8.976042e+03	1.722401e+04	1.555038e+03	1.566897e+04	-7.056967e+03	-8.099065e+03	8.247434e+02	1.037896e-15	8.247434e+02	-8.247434e+02
39            	-1.100058e+02	-2.019640e+03	1.909634e+03	4.178128e+03	-1.270844e+01	4.190836e+03	-2.101772e+03	-1.964637e+03	-5.172685e+01	2.879863e-16	-5.172685e+01	5.172685e+01
40            	-2.593874e+03	2.077243e+04	-2.336630e+04	-4.693418e+04	5.126682e+02	-4.744685e+04	2.397976e+04	2.206936e+04	-1.219690e+03	-1.403229e-15	-1.219690e+03	1.219690e+03
41            	-2.017680e+03	2.724798e+04	-2.926566e+04	-6.009285e+04	3.292882e+03	-6.338573e+04	3.333931e+04	2.825682e+04	-9.487522e+02	-1.656616e-15	-9.487522e+02	9.487522e+02
42            	1.221669e+02	9.955683e+03	-9.833516e+03	-2.104251e+04	3.341076e+03	-2.438359e+04	1.386233e+04	9.894599e+03	5.744523e+01	-6.155723e-16	5.744523e+01	-5.744523e+01
43            	2.383014e+03	-1.106427e+04	1.344728e+04	2.606394e+04	6.036277e+02	2.546032e+04	-1.242834e+04	-1.225577e+04	1.120540e+03	7.540435e-16	1.120540e+03	-1.120540e+03
44            	3.437748e+03	-2.338264e+04	2.682038e+04	5.338255e+04	-6.299414e+02	5.401249e+04	-2.732121e+04	-2.510151e+04	1.616496e+03	1.752582e-15	1.616496e+03	-1.616496e+03
45            	5.322726e+02	-1.495456e+04	1.548684e+04	3.236935e+04	-2.564235e+03	3.493359e+04	-1.874891e+04	-1.522070e+04	2.502849e+02	6.974405e-16	2.502849e+02	-2.502849e+02
46            	-2.404252e+03	1.315114e+03	-3.719366e+03	-5.353330e+03	-2.325818e+03	-3.027512e+03	3.508469e+02	2.517240e+03	-1.130526e+03	-6.365410e-16	-1.130526e+03	1.130526e+03
47            	-2.564836e+03	1.576170e+04	-1.832653e+04	-3.624715e+04	1.336730e+03	-3.758388e+04	1.946030e+04	1.704411e+04	-1.206036e+03	-1.416427e-15	-1.206036e+03	1.206036e+03
48            	-9.142595e+02	1.823197e+04	-1.914623e+04	-3.974548e+04	7.187369e+03	-4.693285e+04	2.706011e+04	1.868910e+04	-4.299026e+02	-9.461725e-16	-4.299026e+02	4.299026e+02
49            	1.569236e+03	6.876478e+03	-5.307242e+03	-1.295536e+04	6.948977e+03	-1.990433e+04	1.342666e+04	6.091860e+03	7.378852e+02	6.116407e-17	7.378852e+02	-7.378852e+02
50            	2.263795e+03	-2.837424e+03	5.101219e+03	8.441424e+03	2.794988e+03	5.646436e+03	-1.425724e+03	-3.969322e+03	1.064480e+03	4.710288e-16	1.064480e+03	-1.064480e+03
51            	1.402850e+03	-8.576408e+03	9.979258e+03	1.973086e+04	-1.557692e+03	2.128855e+04	-1.142312e+04	-9.277833e+03	6.596474e+02	7.971068e-16	6.596474e+02	-6.596474e+02
52            	2.729457e+02	-6.833670e+03	7.106615e+03	1.482317e+04	-4.335997e+03	1.915917e+04	-1.174758e+04	-6.970142e+03	1.283444e+02	7.372008e-16	1.283444e+02	-1.283444e+02
53            	-8.634423e+02	-1.702360e+03	8.389173e+02	2.702224e+03	-3.735737e+03	6.437961e+03	-5.086849e+03	-1.270638e+03	-4.060074e+02	2.116859e-16	-4.060074e+02	4.060074e+02
54            	-1.123475e+03	1.951714e+03	-3.075189e+03	-5.345274e+03	-4.153023e+02	-4.929972e+03	2.257335e+03	2.513452e+03	-5.282799e+02	-1.013005e-16	-5.282799e+02	5.282799e+02
55            	-8.949027e+02	4.475227e+03	-5.370130e+03	-1.046890e+04	4.932363e+03	-1.540126e+04	1.016681e+04	4.922679e+03	-4.208006e+02	-3.658891e-16	-4.208006e+02	4.208006e+02
56            	-6.802975e+02	4.040429e+03	-4.720726e+03	-9.316028e+03	5.091494e+03	-1.440752e+04	9.749508e+03	4.380577e+03	-3.198891e+02	-4.707994e-16	-3.198891e+02	3.198891e+02
57            	-4.932255e+02	2.355480e+03	-2.848706e+03	-5.533784e+03	2.536564e+03	-8.070348e+03	5.303456e+03	2.602093e+03	-2.319242e+02	-3.926638e-16	-2.319242e+02	2.319242e+02
58            	6.157486e+01	1.460103e+00	6.011476e+01	6.236945e+01	4.019715e+01	2.217230e+01	9.012426e+00	-2.932733e+01	2.895370e+01	-1.904799e-16	2.895370e+01	-2.895370e+01
59            	4.102100e+02	-1.161489e+03	1.571699e+03	2.906290e+03	-6.380902e+02	3.544381e+03	-2.091235e+03	-1.366594e+03	1.928887e+02	-4.578837e-17	1.928887e+02	-1.928887e+02
60            	3.403351e+02	-1.853319e+03	2.193654e+03	4.303281e+03	-1.028086e+03	5.331367e+03	-3.179727e+03	-2.023486e+03	1.600322e+02	7.864000e-17	1.600322e+02	-1.600322e+02
61            	2.385485e+02	-1.862596e+03	2.101144e+03	4.214777e+03	-3.574171e+02	4.572194e+03	-2.464806e+03	-1.981870e+03	1.121701e+02	1.979877e-16	1.121701e+02	-1.121701e+02
62            	3.074277e+02	-8.149878e+02	1.122416e+03	2.060106e+03	1.479840e+03	5.802653e+02	4.497875e+02	-9.687017e+02	1.445585e+02	2.066839e-16	1.445585e+02	-1.445585e+02
63            	3.045512e+02	6.624878e+01	2.383024e+02	1.829504e+02	2.479770e+03	-2.296820e+03	2.388295e+03	-8.602684e+01	1.432059e+02	1.574694e-16	1.432059e+02	-1.432059e+02
64            	2.001770e+02	8.392538e+02	-6.390768e+02	-1.571958e+03	2.770750e+03	-4.342708e+03	3.556729e+03	7.391653e+02	9.412712e+01	8.521234e-17	9.412712e+01	-9.412712e+01
65            	1.190246e+02	1.100642e+03	-9.816176e+02	-2.214136e+03	2.201508e+03	-4.415644e+03	3.308576e+03	1.041130e+03	5.596769e+01	4.680940e-17	5.596769e+01	-5.596769e+01
66            	6.161555e+01	7.807441e+02	-7.191286e+02	-1.594865e+03	8.332694e+02	-2.428134e+03	1.630702e+03	7.499363e+02	2.897283e+01	1.162255e-17	2.897283e+01	-2.897283e+01
67            	2.250800e+01	5.219389e+02	-4.994309e+02	-1.086057e+03	1.021265e+02	-1.188183e+03	6.451547e+02	5.106849e+02	1.058370e+01	-2.565140e-17	1.058370e+01	-1.058370e+01
68            	-4.514886e+01	3.688677e+02	-4.140166e+02	-8.324670e+02	-2.471150e+02	-5.853520e+02	1.691185e+02	3.914422e+02	-2.122987e+01	-5.048300e-17	-2.122987e+01	2.122987e+01
69            	-9.104897e+01	4.077974e+02	-4.988464e+02	-9.640645e+02	-2.006497e+01	-9.439996e+02	4.619673e+02	4.533219e+02	-4.281299e+01	-5.036627e-17	-4.281299e+01	4.281299e+01
70            	-6.162002e+01	4.952734e+02	-5.568934e+02	-1.118804e+03	4.940357e+02	-1.612840e+03	1.053438e+03	5.260834e+02	-2.897493e+01	-2.937689e-17	-2.897493e+01	2.897493e+01
71            	4.421765e+00	4.864652e+02	-4.820434e+02	-1.029847e+03	8.306031e+02	-1.860451e+03	1.345527e+03	4.842543e+02	2.079200e+00	-6.838504e-18	2.079200e+00	-2.079200e+00
72            	3.775830e+01	4.233098e+02	-3.855515e+02	-8.600892e+02	7.399024e+02	-1.599992e+03	1.169947e+03	4.044307e+02	1.775469e+01	5.643421e-18	1.775469e+01	-1.775469e+01
73            	-4.573989e+00	3.380166e+02	-3.425906e+02	-7.237124e+02	3.932825e+02	-1.116995e+03	7.551388e+02	3.403036e+02	-2.150779e+00	8.088718e-19	-2.150779e+00	2.150779e+00
74            	-6.746117e+01	2.455862e+02	-3.130473e+02	-5.940136e+02	7.240463e+01	-6.664182e+02	3.694114e+02	2.793167e+02	-3.172155e+01	-1.226716e-17	-3.172155e+01	3.172155e+01
75            	-1.054706e+02	1.634316e+02	-2.689023e+02	-4.597151e+02	-5.880804e+01	-4.009070e+02	1.710495e+02	2.161670e+02	-4.959434e+01	-2.188155e-17	-4.959434e+01	4.959434e+01
76            	-1.052215e+02	9.449486e+01	-1.997164e+02	-3.128446e+02	-6.338558e+01	-2.494590e+02	9.303673e+01	1.471056e+02	-4.947720e+01	-2.955212e-17	-4.947720e+01	4.947720e+01
77            	-7.855259e+01	4.106106e+01	-1.196136e+02	-1.708508e+02	-3.389915e+01	-1.369516e+02	5.152624e+01	8.033735e+01	-3.693695e+01	-3.381613e-17	-3.693695e+01	3.693695e+01
78            	-6.004134e+01	1.386985e+01	-7.391119e+01	-9.334051e+01	-2.467954e+01	-6.866097e+01	2.199072e+01	4.389052e+01	-2.823261e+01	-3.652353e-17	-2.823261e+01	2.823261e+01
79            	-5.447333e+01	1.795484e+01	-7.242817e+01	-9.610727e+01	-5.700453e+01	-3.910273e+01	-8.950898e+00	4.519150e+01	-2.561442e+01	-3.543047e-17	-2.561442e+01	2.561442e+01
80            	-5.267336e+01	3.199051e+01	-8.466387e+01	-1.240425e+02	-1.229141e+02	-1.128386e+00	-6.089286e+01	5.832719e+01	-2.476804e+01	-3.106261e-17	-2.476804e+01	2.476804e+01
81            	-4.739533e+01	9.145751e+00	-5.654108e+01	-6.984700e+01	-2.474254e+02	1.775784e+02	-2.125019e+02	3.284342e+01	-2.228620e+01	-2.660944e-17	-2.228620e+01	2.228620e+01
82            	-3.542042e+01	-3.461334e+01	-8.070732e-01	3.594733e+01	-3.420289e+02	3.779762e+02	-3.600026e+02	-1.690313e+01	-1.665537e+01	-2.348398e-17	-1.665537e+01	1.665537e+01
83            	-2.501635e+01	-6.882270e+01	4.380635e+01	1.197622e+02	-3.657288e+02	4.854911e+02	-4.256100e+02	-5.631453e+01	-1.176317e+01	-2.277912e-17	-1.176317e+01	1.176317e+01
84            	-1.691710e+01	-8.940135e+01	7.248425e+01	1.721383e+02	-3.594228e+02	5.315612e+02	-4.454920e+02	-8.094280e+01	-7.954749e+00	-2.247282e-17	-7.954749e+00	7.954749e+00
85            	-1.028533e+01	-9.972119e+01	8.943587e+01	2.011370e+02	-3.384266e+02	5.395637e+02	-4.389952e+02	-9.457853e+01	-4.836360e+00	-2.069514e-17	-4.836360e+00	4.836360e+00
86            	-5.922597e+00	-9.955555e+01	9.363296e+01	2.054238e+02	-3.128800e+02	5.183038e+02	-4.155919e+02	-9.659425e+01	-2.784920e+00	-1.843980e-17	-2.784920e+00	2.784920e+00
87            	-3.849331e+00	-9.342921e+01	8.957987e+01	1.945997e+02	-2.992015e+02	4.938011e+02	-3.965013e+02	-9.150454e+01	-1.810030e+00	-1.625982e-17	-1.810030e+00	1.810030e+00
88            	-8.900547e-01	-8.475693e+01	8.386688e+01	1.793033e+02	-2.981654e+02	4.774688e+02	-3.878171e+02	-8.431190e+01	-4.185210e-01	-1.381302e-17	-4.185210e-01	4.185210e-01
89            	4.489778e+00	-7.690887e+01	8.139865e+01	1.683337e+02	-3.105439e+02	4.788776e+02	-3.947107e+02	-7.915376e+01	2.111181e+00	-1.102110e-17	2.111181e+00	-2.111181e+00
90            	1.102341e+01	-7.417532e+01	8.519873e+01	1.694677e+02	-3.344668e+02	5.039345e+02	-4.192007e+02	-7.968703e+01	5.183423e+00	-8.502582e-18	5.183423e+00	-5.183423e+00
91            	1.651503e+01	-7.645539e+01	9.297042e+01	1.801561e+02	-3.582007e+02	5.383568e+02	-4.482788e+02	-8.471290e+01	7.765686e+00	-7.081066e-18	7.765686e+00	-7.765686e+00
92            	2.005932e+01	-8.087993e+01	1.009392e+02	1.933344e+02	-3.720870e+02	5.654214e+02	-4.687542e+02	-9.090959e+01	9.432281e+00	-6.590315e-18	9.432281e+00	-9.432281e+00
93            	2.242435e+01	-8.439755e+01	1.068219e+02	2.033300e+02	-3.746954e+02	5.780254e+02	-4.763604e+02	-9.560973e+01	1.054437e+01	-6.755994e-18	1.054437e+01	-1.054437e+01
94            	2.394413e+01	-8.435481e+01	1.082989e+02	2.048551e+02	-3.638420e+02	5.686972e+02	-4.662696e+02	-9.632687e+01	1.125900e+01	-7.316794e-18	1.125900e+01	-1.125900e+01
95            	2.458428e+01	-8.035569e+01	1.049400e+02	1.970311e+02	-3.440804e+02	5.411114e+02	-4.425959e+02	-9.264783e+01	1.156001e+01	-7.910497e-18	1.156001e+01	-1.156001e+01
96            	2.414277e+01	-7.515247e+01	9.929524e+01	1.854961e+02	-3.236851e+02	5.091812e+02	-4.164331e+02	-8.722385e+01	1.135240e+01	-8.346884e-18	1.135240e+01	-1.135240e+01
97            	2.305314e+01	-7.064793e+01	9.370107e+01	1.747578e+02	-3.069957e+02	4.817535e+02	-3.943746e+02	-8.217450e+01	1.084003e+01	-8.394630e-18	1.084003e+01	-1.084003e+01
98            	2.199929e+01	-6.902302e+01	9.102230e+01	1.701815e+02	-2.974773e+02	4.676588e+02	-3.825680e+02	-8.002266e+01	1.034449e+01	-8.084511e-18	1.034449e+01	-1.034449e+01
99            	2.185197e+01	-6.963239e+01	9.148436e+01	1.713208e+02	-2.928827e+02	4.642035e+02	-3.785431e+02	-8.055837e+01	1.027522e+01	-7.150937e-18	1.027522e+01	-1.027522e+01
100           	2.294476e+01	-6.904226e+01	9.198702e+01	1.712278e+02	-2.839284e+02	4.551562e+02	-3.695423e+02	-8.051464e+01	1.078907e+01	-5.955292e-18	1.078907e+01	-1.078907e+01
101           	2.450334e+01	-6.344064e+01	8.794398e+01	1.609723e+02	-2.611599e+02	4.221322e+02	-3.416460e+02	-7.569231e+01	1.152195e+01	-5.249891e-18	1.152195e+01	-1.152195e+01
102           	2.504862e+01	-5.174101e+01	7.678963e+01	1.366709e+02	-2.215665e+02	3.582374e+02	-2.899020e+02	-6.426532e+01	1.177835e+01	-5.072737e-18	1.177835e+01	-1.177835e+01
103           	2.414258e+01	-3.529811e+01	5.944069e+01	1.007389e+02	-1.705833e+02	2.713222e+02	-2.209527e+02	-4.736940e+01	1.135231e+01	-5.320596e-18	1.135231e+01	-1.135231e+01
104           	2.254725e+01	-1.989870e+01	4.244595e+01	6.629314e+01	-1.262414e+02	1.925345e+02	-1.593879e+02	-3.117232e+01	1.060215e+01	-5.652778e-18	1.060215e+01	-1.060215e+01
105           	2.101616e+01	-8.263408e+00	2.927957e+01	3.992070e+01	-9.493389e+01	1.348546e+02	-1.148942e+02	-1.877149e+01	9.882207e+00	-5.736849e-18	9.882207e+00	-9.882207e+00
106           	1.984084e+01	-2.089778e-01	2.004982e+01	2.154185e+01	-7.452043e+01	9.606229e+01	-8.529136e+01	-1.012940e+01	9.329549e+00	-5.591652e-18	9.329549e+00	-9.329549e+00
107           	1.902029e+01	7.015629e+00	1.200466e+01	5.305004e+00	-5.677377e+01	6.207878e+01	-5.942628e+01	-2.494516e+00	8.943710e+00	-5.189525e-18	8.943710e+00	-8.943710e+00
108           	1.850441e+01	1.595806e+01	2.546348e+00	-1.426112e+01	-3.487880e+01	2.061768e+01	-2.774824e+01	6.705856e+00	8.701132e+00	-4.508953e-18	8.701132e+00	-8.701132e+00
109           	1.803698e+01	2.760038e+01	-9.563406e+00	-3.951750e+01	-6.652668e+00	-3.286483e+01	1.310608e+01	1.858189e+01	8.481337e+00	-3.658876e-18	8.481337e+00	-8.481337e+00
110           	1.762629e+01	3.833497e+01	-2.070868e+01	-6.278307e+01	1.838852e+01	-8.117160e+01	4.978006e+01	2.952182e+01	8.288223e+00	-3.070520e-18	8.288223e+00	-8.288223e+00
111           	1.694516e+01	4.692436e+01	-2.997920e+01	-8.177411e+01	3.638044e+01	-1.181546e+02	7.726749e+01	3.845178e+01	7.967942e+00	-2.878246e-18	7.967942e+00	-7.967942e+00
112           	1.658481e+01	5.398638e+01	-3.740157e+01	-9.717586e+01	5.043965e+01	-1.476155e+02	9.902758e+01	4.569398e+01	7.798499e+00	-2.796404e-18	7.798499e+00	-7.798499e+00
113           	1.673406e+01	6.085685e+01	-4.412279e+01	-1.116283e+02	6.616292e+01	-1.777913e+02	1.219771e+02	5.248982e+01	7.868680e+00	-2.565570e-18	7.868680e+00	-7.868680e+00
114           	1.636251e+01	6.899128e+01	-5.262878e+01	-1.293227e+02	8.814791e+01	-2.174706e+02	1.528092e+02	6.081003e+01	7.693970e+00	-2.195494e-18	7.693970e+00	-7.693970e+00
115           	1.503650e+01	7.805407e+01	-6.301756e+01	-1.500062e+02	1.130283e+02	-2.630344e+02	1.880313e+02	7.053581e+01	7.070457e+00	-1.718298e-18	7.070457e+00	-7.070457e+00
116           	1.430610e+01	8.501045e+01	-7.070436e+01	-1.655767e+02	1.296300e+02	-2.952068e+02	2.124184e+02	7.785740e+01	6.727005e+00	-1.106419e-18	6.727005e+00	-6.727005e+00
117           	1.440573e+01	8.839574e+01	-7.399001e+01	-1.726702e+02	1.350653e+02	-3.077355e+02	2.214004e+02	8.119288e+01	6.773854e+00	-6.289315e-19	6.773854e+00	-6.773854e+00
118           	1.448543e+01	8.911209e+01	-7.462667e+01	-1.741089e+02	1.350713e+02	-3.091802e+02	2.221257e+02	8.186938e+01	6.811330e+00	-4.288631e-19	6.811330e+00	-6.811330e+00
119           	1.394985e+01	8.839711e+01	-7.444727e+01	-1.731579e+02	1.350609e+02	-3.082187e+02	2.216398e+02	8.142219e+01	6.559490e+00	-4.893745e-19	6.559490e+00	-6.559490e+00
120           	1.303365e+01	8.716317e+01	-7.412951e+01	-1.715079e+02	1.369217e+02	-3.084296e+02	2.226756e+02	8.064634e+01	6.128678e+00	-6.387831e-19	6.128678e+00	-6.128678e+00
121           	1.236139e+01	8.557363e+01	-7.321224e+01	-1.688423e+02	1.383107e+02	-3.071530e+02	2.227319e+02	7.939293e+01	5.812564e+00	-6.463439e-19	5.812564e+00	-5.812564e+00
122           	1.227831e+01	8.313857e+01	-7.086026e+01	-1.637521e+02	1.356762e+02	-2.994283e+02	2.175522e+02	7.699942e+01	5.773501e+00	-4.159008e-19	5.773501e+00	-5.773501e+00
123           	1.255008e+01	7.895771e+01	-6.640763e+01	-1.545718e+02	1.268844e+02	-2.814562e+02	2.041703e+02	7.268267e+01	5.901291e+00	-3.602301e-20	5.901291e+00	-5.901291e+00
124           	1.274541e+01	7.312027e+01	-6.037486e+01	-1.419498e+02	1.140636e+02	-2.560134e+02	1.850385e+02	6.674757e+01	5.993142e+00	3.028950e-19	5.993142e+00	-5.993142e+00
125           	1.264649e+01	6.621345e+01	-5.356696e+01	-1.273665e+02	1.005284e+02	-2.278949e+02	1.642116e+02	5.989021e+01	5.946624e+00	5.310762e-19	5.946624e+00	-5.946624e+00
126           	1.234892e+01	5.854240e+01	-4.619347e+01	-1.113691e+02	8.738297e+01	-1.987521e+02	1.430675e+02	5.236794e+01	5.806704e+00	6.509011e-19	5.806704e+00	-5.806704e+00
127           	1.201283e+01	5.042644e+01	-3.841362e+01	-9.446660e+01	7.479404e+01	-1.692606e+02	1.220273e+02	4.442003e+01	5.648665e+00	6.987917e-19	5.648665e+00	-5.648665e+00
128           	1.176533e+01	4.162192e+01	-2.985658e+01	-7.600547e+01	6.121902e+01	-1.372245e+02	9.922175e+01	3.573925e+01	5.532287e+00	6.959386e-19	5.532287e+00	-5.532287e+00
129           	1.156953e+01	3.211659e+01	-2.054706e+01	-5.599902e+01	4.647246e+01	-1.024715e+02	7.447197e+01	2.633183e+01	5.440220e+00	6.621565e-19	5.440220e+00	-5.440220e+00
130           	1.130467e+01	2.158271e+01	-1.027804e+01	-3.387860e+01	3.005958e+01	-6.393818e+01	4.699888e+01	1.593038e+01	5.315675e+00	5.468104e-19	5.315675e+00	-5.315675e+00
131           	1.094341e+01	1.015665e+01	7.867535e-01	-9.963325e+00	1.260023e+01	-2.256355e+01	1.758189e+01	4.684949e+00	5.145802e+00	3.511897e-19	5.145802e+00	-5.145802e+00
132           	1.042012e+01	-2.532299e+00	1.295241e+01	1.646541e+01	-6.609169e+00	2.307458e+01	-1.484187e+01	-7.742357e+00	4.899741e+00	-1.417042e-20	4.899741e+00	-4.899741e+00
133           	9.751808e+00	-1.606823e+01	2.582003e+01	4.454118e+01	-2.662541e+01	7.116660e+01	-4.889601e+01	-2.094413e+01	4.585490e+00	-6.366120e-19	4.585490e+00	-4.585490e+00
134           	8.842251e+00	-2.946156e+01	3.830382e+01	7.205719e+01	-4.499706e+01	1.170542e+02	-8.102565e+01	-3.388269e+01	4.157798e+00	-1.448315e-18	4.157798e+00	-4.157798e+00
135           	7.558604e+00	-4.290155e+01	5.046016e+01	9.927462e+01	-6.256748e+01	1.618421e+02	-1.122048e+02	-4.668086e+01	3.554203e+00	-2.453107e-18	3.554203e+00	-3.554203e+00
136           	5.833306e+00	-5.690333e+01	6.273664e+01	1.272172e+02	-8.080382e+01	2.080210e+02	-1.444124e+02	-5.981999e+01	2.742934e+00	-3.706724e-18	2.742934e+00	-2.742934e+00
137           	3.946973e+00	-6.946133e+01	7.340830e+01	1.519180e+02	-9.471135e+01	2.466294e+02	-1.706704e+02	-7.143482e+01	1.855943e+00	-4.966562e-18	1.855943e+00	-1.855943e+00
138           	9.627317e-01	-8.279032e+01	8.375305e+01	1.770911e+02	-1.116147e+02	2.887059e+02	-2.001603e+02	-8.327168e+01	4.526952e-01	-6.533614e-18	4.526952e-01	-4.526952e-01
139           	-2.340681e+00	-9.590833e+01	9.356765e+01	2.014761e+02	-1.273256e+02	3.288017e+02	-2.280636e+02	-9.473799e+01	-1.100634e+00	-8.136808e-18	-1.100634e+00	1.100634e+00
140           	-5.874401e+00	-1.079342e+02	1.020598e+02	2.232937e+02	-1.406009e+02	3.638946e+02	-2.522477e+02	-1.049970e+02	-2.762258e+00	-9.603510e-18	-2.762258e+00	2.762258e+00
141           	-9.851184e+00	-1.191197e+02	1.092685e+02	2.428528e+02	-1.522159e+02	3.950687e+02	-2.736423e+02	-1.141941e+02	-4.632218e+00	-1.096337e-17	-4.632218e+00	4.632218e+00
142           	-1.420529e+01	-1.297578e+02	1.155525e+02	2.608465e+02	-1.625856e+02	4.234321e+02	-2.930088e+02	-1.226551e+02	-6.679602e+00	-1.221161e-17	-6.679602e+00	6.679602e+00
143           	-1.864161e+01	-1.396686e+02	1.210270e+02	2.772064e+02	-1.712449e+02	4.484513e+02	-3.098481e+02	-1.303478e+02	-8.765647e+00	-1.326700e-17	-8.765647e+00	8.765647e+00
144           	-2.305516e+01	-1.489853e+02	1.259301e+02	2.923267e+02	-1.785368e+02	4.708635e+02	-3.247002e+02	-1.374577e+02	-1.084098e+01	-1.412046e-17	-1.084098e+01	1.084098e+01
145           	-2.748218e+01	-1.578130e+02	1.303309e+02	3.063930e+02	-1.849077e+02	4.913007e+02	-3.381042e+02	-1.440719e+02	-1.292266e+01	-1.481093e-17	-1.292266e+01	1.292266e+01
146           	-3.187703e+01	-1.661795e+02	1.343024e+02	3.195124e+02	-1.907556e+02	5.102680e+02	-3.505118e+02	-1.502409e+02	-1.498920e+01	-1.536742e-17	-1.498920e+01	1.498920e+01
147           	-3.614620e+01	-1.741014e+02	1.379552e+02	3.318202e+02	-1.964661e+02	5.282864e+02	-3.623763e+02	-1.560283e+02	-1.699665e+01	-1.574267e-17	-1.699665e+01	1.699665e+01
148           	-4.017153e+01	-1.815064e+02	1.413349e+02	3.432880e+02	-2.021503e+02	5.454383e+02	-3.737943e+02	-1.614207e+02	-1.888943e+01	-1.607078e-17	-1.888943e+01	1.888943e+01
149           	-4.390286e+01	-1.884740e+02	1.445711e+02	3.541379e+02	-2.078240e+02	5.619620e+02	-3.848930e+02	-1.665225e+02	-2.064398e+01	-1.658519e-17	-2.064398e+01	2.064398e+01
150           	-4.732558e+01	-1.950077e+02	1.476821e+02	3.643934e+02	-2.128916e+02	5.772850e+02	-3.950883e+02	-1.713449e+02	-2.225341e+01	-1.710650e-17	-2.225341e+01	2.225341e+01
151           	-5.054098e+01	-2.009401e+02	1.503991e+02	3.735907e+02	-2.164874e+02	5.900781e+02	-4.032828e+02	-1.756696e+02	-2.376535e+01	-1.769692e-17	-2.376535e+01	2.376535e+01
152           	-5.350274e+01	-2.060770e+02	1.525742e+02	3.813658e+02	-2.186142e+02	5.999800e+02	-4.092971e+02	-1.793256e+02	-2.515803e+01	-1.824053e-17	-2.515803e+01	2.515803e+01
153           	-5.600546e+01	-2.104788e+02	1.544734e+02	3.880658e+02	-2.201067e+02	6.081725e+02	-4.141396e+02	-1.824761e+02	-2.633485e+01	-1.872542e-17	-2.633485e+01	2.633485e+01
154           	-5.809089e+01	-2.143346e+02	1.562437e+02	3.940483e+02	-2.215035e+02	6.155518e+02	-4.185276e+02	-1.852892e+02	-2.731547e+01	-1.907644e-17	-2.731547e+01	2.731547e+01
155           	-5.972498e+01	-2.178453e+02	1.581203e+02	3.997767e+02	-2.234770e+02	6.232537e+02	-4.233654e+02	-1.879828e+02	-2.808385e+01	-1.934501e-17	-2.808385e+01	2.808385e+01
156           	-6.099399e+01	-2.211242e+02	1.601302e+02	4.054005e+02	-2.259613e+02	6.313618e+02	-4.286615e+02	-1.906272e+02	-2.868056e+01	-1.955409e-17	-2.868056e+01	2.868056e+01
157           	-6.173032e+01	-2.242322e+02	1.625018e+02	4.112271e+02	-2.293532e+02	6.405804e+02	-4.349668e+02	-1.933670e+02	-2.902680e+01	-1.954793e-17	-2.902680e+01	2.902680e+01
158           	-6.198152e+01	-2.272399e+02	1.652584e+02	4.173566e+02	-2.334750e+02	6.508316e+02	-4.421533e+02	-1.962492e+02	-2.914492e+01	-1.945483e-17	-2.914492e+01	2.914492e+01
159           	-6.168293e+01	-2.300487e+02	1.683658e+02	4.236475e+02	-2.382630e+02	6.619105e+02	-4.500868e+02	-1.992073e+02	-2.900451e+01	-1.923554e-17	-2.900451e+01	2.900451e+01
160           	-6.091679e+01	-2.326222e+02	1.717054e+02	4.299351e+02	-2.432983e+02	6.732333e+02	-4.582658e+02	-2.021638e+02	-2.864426e+01	-1.897975e-17	-2.864426e+01	2.864426e+01
161           	-5.968232e+01	-2.348524e+02	1.751701e+02	4.359906e+02	-2.485644e+02	6.845549e+02	-4.665596e+02	-2.050112e+02	-2.806379e+01	-1.868074e-17	-2.806379e+01	2.806379e+01
162           	-5.804751e+01	-2.367824e+02	1.787349e+02	4.418335e+02	-2.539983e+02	6.958317e+02	-4.749150e+02	-2.077587e+02	-2.729507e+01	-1.837464e-17	-2.729507e+01	2.729507e+01
163           	-5.602533e+01	-2.384047e+02	1.823794e+02	4.474337e+02	-2.598097e+02	7.072434e+02	-4.835265e+02	-2.103920e+02	-2.634420e+01	-1.810348e-17	-2.634420e+01	2.634420e+01
164           	-5.370196e+01	-2.399672e+02	1.862652e+02	4.532271e+02	-2.659846e+02	7.192117e+02	-4.925981e+02	-2.131162e+02	-2.525171e+01	-1.786133e-17	-2.525171e+01	2.525171e+01
165           	-5.106581e+01	-2.406694e+02	1.896036e+02	4.575236e+02	-2.712742e+02	7.287978e+02	-5.000360e+02	-2.151365e+02	-2.401214e+01	-1.760460e-17	-2.401214e+01	2.401214e+01