/*--------------------------------*- C++ -*----------------------------------*\
| =========                 |                                                 |
| \\      /  F ield         | OpenFOAM: The Open Source CFD Toolbox           |
|  \\    /   O peration     | Version:  2312                                  |
|   \\  /    A nd           | Website:  www.openfoam.com                      |
|    \\/     M anipulation  |                                                 |
\*---------------------------------------------------------------------------*/
FoamFile
{
    version     2.0;
    format      ascii;
    arch        "LSB;label=32;scalar=64";
    class       volScalarField;
    location    "400";
    object      div(phi);
}
// * * * * * * * * * * * * * * * * * * * * * * * * * * * * * * * * * * * * * //

dimensions      [0 0 -1 0 0 0 0];

internalField   nonuniform List<scalar> 
11040
(
-0.00102155
0.00127579
0.0022795
0.00470352
-0.00581334
-0.00629836
0.00224309
0.000153234
-0.0023707
-0.00698795
-0.0049857
-0.0166517
-0.000539773
0.00493971
-0.00440322
-0.0120696
-0.020335
-0.0451878
0.0158765
-0.0426814
0.122366
0.210049
0.225039
0.141419
-0.0711919
0.0957097
-0.158171
0.0927577
-0.182554
0.0123898
-0.202968
-0.0329969
-0.176105
-0.0931904
-0.155891
-0.134164
-0.154624
-0.152597
-0.141549
-0.358524
-0.339011
-0.00201029
-0.000514844
-0.000885418
-0.00253398
-0.00517261
-0.00363732
0.0022383
0.00277496
0.00367779
0.00210388
0.00266224
0.00246317
0.00317383
0.015484
0.00922456
0.0160316
0.0134671
0.0251866
0.0483502
0.0343703
0.102372
0.146386
0.173645
0.170194
0.08212
0.110732
-0.00613123
0.05606
-0.0807435
-0.0328358
-0.142244
-0.0919503
-0.157537
-0.12965
-0.142475
-0.125557
-0.112193
-0.107777
-0.116523
-0.193125
-0.173996
2.69664e-05
0.00058365
0.000581448
0.00081386
-0.000661982
-0.00167234
-0.000534755
-0.000328527
-0.00198229
-0.00200678
-0.00193981
-0.00526566
0.00143052
-0.00196653
-0.0026602
-0.00864782
-0.00815958
-0.0216855
-0.00175265
-0.02582
0.0118474
0.0232422
0.0179174
-0.011887
-0.0420685
-0.00753651
-0.0547233
0.00197316
-0.05398
-0.00513569
-0.0513295
-0.00886403
-0.0387277
-0.0152998
-0.0289931
-0.021165
-0.0279392
-0.0217768
-0.0174897
-0.0686944
-0.048106
0.00113211
0.0014145
0.000809529
0.000587601
-0.000623009
-0.0006323
-0.000891937
-0.000803498
-0.000418775
0.000526841
0.00107767
0.00144831
0.00294805
0.00442966
0.00482341
0.00725935
0.00919129
0.0170582
0.0217093
0.0247941
0.0453964
0.0659169
0.0684182
0.0689853
0.0398127
0.0413336
0.0060827
0.010892
-0.0274462
-0.0252651
-0.0543265
-0.0479146
-0.0628366
-0.056066
-0.0562215
-0.0500151
-0.0430395
-0.0390269
-0.0404563
-0.0543221
-0.0420051
0.00311386
0.000944731
0.00125475
0.000269773
0.000399773
-3.78948e-05
-7.47612e-05
-0.000194946
-0.000407322
-0.000535154
-0.0010187
-0.00145335
0.000558013
-0.000326238
-0.00026101
-0.00148983
-0.000823115
-0.00267476
-0.00165964
-0.00497221
0.00301653
0.0102371
0.00625213
-0.00747444
-0.0147516
-0.0143826
-0.0172432
-0.0150573
-0.0195822
-0.0188235
-0.0220058
-0.0202626
-0.0220311
-0.0195496
-0.020448
-0.0190553
-0.0212376
-0.0164915
-0.0170451
-0.0223896
-0.0161723
-0.000728881
0.0020243
-2.93804e-05
0.00137993
-9.95378e-05
5.17171e-05
0.00017311
-0.000125578
-0.000100682
-0.000485454
-0.000589387
0.000186052
0.00180138
0.00231827
0.00332413
0.00379821
0.00706187
0.00834707
0.0128101
0.0145173
0.0279807
0.0341224
0.0375651
0.0275274
0.0214458
0.01105
0.00550105
-0.00432034
-0.00949239
-0.0185015
-0.0212798
-0.0263031
-0.025867
-0.0262091
-0.02368
-0.0218516
-0.0188692
-0.0145253
-0.0137174
-0.0109735
-0.00887448
0.00159229
0.000123114
0.00222787
-0.000166288
7.65136e-05
-7.76397e-05
-2.8387e-05
0.000280144
8.16118e-05
0.000183613
5.58329e-05
0.00080515
0.00132677
0.0015242
0.00141235
0.00237969
0.00267419
0.00303985
0.00275744
0.00399893
0.00585341
0.010637
0.00693854
0.00162375
-0.00643012
-0.00433475
-0.0100184
-0.00771551
-0.0138443
-0.0122201
-0.0169076
-0.015248
-0.0177731
-0.0155725
-0.0157075
-0.014686
-0.0133946
-0.0115782
-0.00766382
-0.00679617
-0.00136435
0.000374424
0.00136397
0.00125667
-0.000421326
-0.000131278
-0.00080277
0.000242094
-0.000163138
0.000278239
-0.000228399
6.3507e-05
-0.00039731
0.000585895
0.00089952
0.00193047
0.0029971
0.00322631
0.00444209
0.00455662
0.00901013
0.0127224
0.018712
0.0138534
0.010119
0.00613075
0.003172
-0.00330595
-0.00407838
-0.00906843
-0.00939722
-0.0128833
-0.0125865
-0.014273
-0.0127218
-0.0126962
-0.0113647
-0.0101271
-0.00743205
-0.00560331
-0.00302789
-0.00257889
-0.000658436
0.00273011
-0.00111231
0.000667085
-0.0018223
2.16744e-05
-0.000778282
0.000240812
-0.000472381
-3.15976e-05
-0.000619518
0.000297455
0.000299757
0.00139134
0.00231571
0.0027924
0.00381001
0.00242429
0.00455178
0.00401567
0.00829485
0.00799148
0.00845217
0.00335208
0.00156744
-0.0047359
-0.00250335
-0.00818668
-0.00576846
-0.0104828
-0.00839682
-0.0114997
-0.00960569
-0.0105303
-0.00872243
-0.00823849
-0.00654203
-0.00435662
-0.00241045
-0.000338701
0.000652671
0.00167464
-0.000592116
0.00107078
-0.0015127
-0.000263872
-0.000974935
-0.000112422
-0.000489185
-0.000223674
-0.00056792
8.60447e-05
-0.000186701
0.000476306
0.000399738
0.000440212
0.000597026
-0.000283263
-0.00129826
0.000847581
0.0026059
0.00527277
0.00544384
0.00331575
-2.30657e-05
-0.00244964
0.00339994
-0.0139435
0.000145604
-0.0141314
-0.00176697
-0.0128082
-0.00373413
-0.0108434
-0.00491239
-0.00822788
-0.00495886
-0.00479212
-0.00308431
-0.0010549
-0.000467927
0.00158386
0.000252601
0.000393416
-0.000119813
-0.000390426
-0.000482978
-0.000438692
-0.000326504
-0.000323634
-0.000478852
-4.73065e-05
-0.000519039
3.68534e-06
-0.000318116
-0.000364902
-0.000508836
-0.000900459
-0.00210753
0.000297925
-0.000172248
0.00375886
0.00322751
0.00381162
0.000385975
-0.000557598
0.00689573
-0.0101407
0.00441133
-0.0166268
0.00149887
-0.015294
-0.000221404
-0.0125393
-0.00212038
-0.00975538
-0.00380148
-0.0064716
-0.00457122
-0.00338558
-0.0042229
-0.00142561
-0.00425807
0.000167982
0.000102456
-7.41769e-05
-0.000220326
-0.000185415
-0.000338864
-0.000142973
-0.00039567
-5.4314e-05
-0.000401432
-0.000247102
-0.000409001
-0.00062623
-0.000615164
-0.000850201
-0.00132248
2.39243e-05
-0.001374
0.00050329
-0.000667181
0.000582476
-0.00241096
-0.00244022
-0.000178223
0.0015295
0.0015514
-0.00708439
-0.0038646
-0.00974807
-0.00521467
-0.00901588
-0.00553861
-0.00777159
-0.00601164
-0.00635166
-0.00652298
-0.00455081
-0.00640243
-0.00327799
-0.00624637
-0.00292868
-9.86098e-05
2.23699e-05
-0.000186679
-8.80595e-05
-0.000214907
-0.000210191
-0.000149829
-0.000212587
-1.51907e-05
-0.000299504
-0.000102059
-0.00046952
-0.000467206
-0.000538848
-0.000824682
-6.24548e-05
-0.00151387
-0.000356703
-0.00171142
-0.00102838
-0.00330876
-0.00254332
-0.00787532
0.00748106
-0.007277
0.0105187
-0.0134019
0.00405638
-0.0156862
0.000609804
-0.0142551
-0.00163084
-0.0117963
-0.00321998
-0.00934682
-0.00403037
-0.0068607
-0.00414929
-0.00481422
-0.00366512
-0.003478
-0.000200011
6.69251e-07
-0.000295628
-5.13919e-05
-0.000350914
-0.000115908
-0.000282574
-0.000178517
-0.00013762
-0.000154948
-4.332e-05
-0.000347172
-4.80419e-05
-0.000436368
-1.57348e-05
-0.000940859
-0.000278985
-0.00127705
-0.000932936
-0.00203979
-0.00107814
-0.00431362
0.00209805
-0.00675673
0.0121658
-0.0114098
0.0113225
-0.0166486
0.00662157
-0.0174175
0.00242903
-0.0151863
-0.000924444
-0.0111883
-0.00344659
-0.00707328
-0.00505761
-0.00352882
-0.00496583
-0.00103913
-0.00357983
-0.000241178
-1.55637e-06
-0.000364533
-3.15183e-05
-0.000463728
-5.71154e-05
-0.000474703
-7.66679e-05
-0.000346016
-0.000120186
-0.000209584
-0.000142621
-0.000111925
-0.000189373
2.6267e-05
-0.000172492
-0.000251505
-0.000588649
-0.000698293
-0.000568336
-0.00108402
-0.000604716
-0.00152884
0.00204177
-0.00132947
0.00298924
-0.00361586
0.000673038
-0.00655648
-0.00216866
-0.00741402
-0.00385839
-0.00720273
-0.00489487
-0.00590354
-0.0054466
-0.00419586
-0.00484412
-0.00254353
-0.00352596
-0.00114021
-0.000254891
6.83395e-06
-0.000409813
-8.57051e-06
-0.000547235
3.08974e-06
-0.000625787
-2.82861e-05
-0.000610857
-4.2288e-05
-0.00051502
-9.42689e-05
-0.000415324
-8.66025e-05
-0.000291643
-8.67799e-05
-0.000207122
-0.000175144
-0.000305038
-0.000259386
-0.000532988
-0.000113142
-0.000888054
0.000525226
-0.00126128
0.00116168
-0.00264394
0.000670301
-0.00450744
-0.000476766
-0.00556599
-0.00174122
-0.00541155
-0.00248906
-0.00449683
-0.00296754
-0.00344874
-0.0032407
-0.00244075
-0.00299232
-0.0013749
-0.000277357
1.24888e-05
-0.000445933
7.14204e-06
-0.000608709
3.39687e-05
-0.000746713
3.23096e-05
-0.000825617
3.41695e-05
-0.000817682
6.67671e-06
-0.000799646
-2.84e-05
-0.000768663
-5.4057e-05
-0.000734528
-0.000141531
-0.000789653
-0.000191675
-0.00105458
-0.000200628
-0.00151516
-1.62833e-05
-0.00203019
0.000272697
-0.00275259
0.000477071
-0.00368073
0.000432616
-0.00435529
2.69949e-05
-0.00436978
-0.000547302
-0.00377257
-0.00121235
-0.00299144
-0.00175743
-0.00201036
-0.00230773
-0.00120989
-0.00022828
-2.08664e-05
-0.000392926
-1.39858e-05
-0.000547352
2.12904e-05
-0.000702049
5.16189e-05
-0.000825588
8.33689e-05
-0.000887686
7.08899e-05
-0.000942856
2.6633e-05
-0.000998421
-3.84704e-05
-0.00104651
-0.000147858
-0.00114718
-0.000214638
-0.00142561
-0.000294733
-0.00191308
-0.000310378
-0.00234065
-0.000213987
-0.00270042
-4.94308e-05
-0.0030158
0.000164733
-0.00325706
0.00033417
-0.0032615
0.000314935
-0.00287097
-3.84859e-06
-0.00213109
-0.000468423
-0.00130173
-0.00108576
5.29688e-05
-0.000243204
-1.30859e-06
-0.000338291
-1.86967e-05
-0.000473554
-4.14013e-06
-0.000621944
2.9102e-05
-0.000774271
5.57868e-05
-0.000885487
6.66061e-05
-0.000984685
4.05569e-05
-0.00107399
-9.06748e-06
-0.00115854
-0.00010724
-0.0012715
-0.000154993
-0.00154345
-0.000255344
-0.00202643
-0.000321298
-0.00243722
-0.000298889
-0.00271243
-0.000171661
-0.00282756
2.53708e-05
-0.0028148
0.000209205
-0.00268128
0.000357018
-0.00238737
0.000413414
-0.00183581
0.000151435
-0.000569423
-0.00100635
0.000129594
5.68541e-05
-0.000200876
-3.20614e-05
-0.000221705
-0.000174193
-0.000183411
-0.000314524
-0.000160748
-0.00046007
-0.000111072
-0.000575921
-9.43069e-05
-0.000666787
-7.55225e-05
-0.000743564
-0.000128246
-0.000810171
-0.000206785
-0.00088734
-0.000294302
-0.00112888
-0.000325157
-0.00156773
-0.000364767
-0.00196034
-0.000362361
-0.00227697
-0.000317102
-0.00247312
-0.000259198
-0.00258011
-0.000166657
-0.00254904
-0.000231547
-0.00235654
-0.000624793
-0.00203234
-0.00119778
-0.00182689
-0.00193347
-0.000493371
-0.000297028
0.000292866
-0.000436231
0.000339366
-0.000634406
0.000435206
-0.000871224
0.000571827
-0.0010922
0.000737848
-0.00135168
0.000880737
-0.00149459
0.000982625
-0.00168913
0.0010453
-0.00179853
0.00104367
-0.00196107
0.00100279
-0.00206711
0.000947196
-0.00232114
0.000904122
-0.00241959
0.000861702
-0.00236194
0.000863102
-0.0021919
0.000798434
-0.00163423
0.00059248
-0.00108721
0.000292229
-0.000411462
-3.23346e-05
0.000514063
-0.000151323
0.0017213
-0.000479974
0.00267807
3.42279e-05
-4.48783e-05
7.06937e-05
-0.00016412
3.72614e-05
-0.000264207
3.82526e-05
-0.000385366
6.97283e-05
-0.000513286
0.000105318
-0.000641888
0.000135532
-0.00073991
0.000140237
-0.000856038
0.000114681
-0.00094778
3.34113e-05
-0.0010874
-4.103e-05
-0.0012919
-0.000106306
-0.0015629
-0.000177658
-0.00169253
-0.000242577
-0.00194307
-0.000413197
-0.00182751
-0.000946268
-0.00210256
-0.00152953
-0.00226101
-0.00244653
-0.00181941
-0.00327506
-0.00220439
-0.0034706
-0.00092681
-0.00357662
-0.000175655
0.000130611
-7.87679e-05
3.5951e-05
-0.000106596
-5.0806e-05
-0.000108818
-0.000142627
-7.82319e-05
-0.000245733
-6.52672e-05
-0.00034318
-1.91298e-05
-0.000431435
-3.05181e-05
-0.00051442
-3.30898e-05
-0.000597205
-0.00011243
-0.000718915
-0.000103987
-0.00089516
-0.000152711
-0.00109463
-0.000196404
-0.00123491
-0.000419475
-0.00134175
-0.000831174
-0.00162339
-0.00124624
-0.00141169
-0.00189082
-0.00121854
-0.00216913
-0.000940565
-0.00196336
0.000578917
-0.00144131
0.00175875
-0.000924886
0.00011175
-0.000109219
0.000187705
-0.000206608
0.000196995
-0.000323764
0.000241113
-0.000449981
0.000313092
-0.000558547
0.000392728
-0.000671229
0.00045623
-0.000725271
0.00048267
-0.000781732
0.00048386
-0.000796694
0.00044884
-0.000794976
0.00042403
-0.000748382
0.000423757
-0.000594708
0.00040089
-0.000357383
0.000298438
5.43811e-05
9.04801e-05
0.000657478
-0.000278464
0.00106832
-0.000734964
0.00162275
-0.00128651
0.00204198
-0.0016897
0.00216727
-0.00148931
0.00291662
-0.000617949
-0.000122711
0.000110681
-8.7842e-06
4.62222e-05
-8.21194e-05
1.69954e-05
-0.000135304
1.33291e-05
-0.000198801
2.80912e-05
-0.000255776
4.57063e-05
-0.000316552
5.38208e-05
-0.000360429
4.36429e-05
-0.000412828
1.38319e-05
-0.000436007
-3.21811e-05
-0.000477956
-6.97383e-05
-0.000470297
-0.000113076
-0.000470596
-0.000202655
-0.000260595
-0.000431055
-9.94638e-05
-0.000645356
7.21108e-05
-0.00100956
0.000437742
-0.00126919
0.000518329
-0.00151458
0.00084452
-0.00149058
0.00122078
-0.00128522
0.00179275
4.80631e-05
-3.9058e-05
7.40312e-05
-3.97203e-05
1.34057e-05
-4.87151e-05
-3.13975e-05
-5.59091e-05
-7.49585e-05
-3.19547e-05
-0.000119131
-2.65429e-05
-0.000162776
-9.47446e-06
-0.000203392
-2.79542e-05
-0.000239648
-5.80738e-05
-0.000274283
-0.00010016
-0.000310494
-0.000174088
-0.000335006
-0.000298823
-0.000304338
-0.000474533
-0.00029015
-0.00056961
3.93506e-05
-0.000716155
0.000264601
-0.00073496
0.000661368
-0.000747114
0.00107779
-0.000754145
0.00136421
-0.00080049
0.00168993
-0.000721297
0.00187641
-0.00010178
0.000108407
-6.06211e-05
8.47682e-05
-8.62692e-05
8.36736e-05
-0.000134991
9.88827e-05
-0.000172211
0.000123916
-0.000201608
0.000147737
-0.00021799
0.000155289
-0.000210724
0.000139627
-0.000198041
9.2418e-05
-0.000137491
9.13647e-06
-7.94506e-05
-8.19637e-05
2.86589e-05
-0.000193552
0.000213828
-0.000284452
0.000505767
-0.000378118
0.000738563
-0.000433831
0.0010754
-0.000525071
0.00124565
-0.00061975
0.00137272
-0.000765187
0.00146152
-0.000859297
0.00159632
-0.000889396
0.001753
4.66547e-05
-5.69343e-05
6.46377e-05
-6.03047e-06
2.55481e-05
-2.45786e-05
1.38852e-05
-4.79641e-05
1.27194e-05
-6.40004e-05
1.78665e-05
-8.60752e-05
1.92642e-05
-9.48513e-05
1.07501e-05
-0.000118067
-1.91336e-05
-0.000115044
-9.60658e-05
-0.000137274
-0.000148971
-0.000159657
-0.00027219
-0.000101115
-0.000425775
-0.000117813
-0.000543468
-4.84294e-05
-0.00068993
0.000100652
-0.000772
0.000159027
-0.000852017
0.000303235
-0.000846885
0.000450196
-0.000821805
0.000638036
-0.000737533
0.000833905
-0.000810892
-5.44837e-05
6.96711e-05
-2.85066e-05
3.11214e-05
-5.6822e-06
5.34263e-06
-2.80174e-06
-8.97756e-06
5.61675e-06
-2.03427e-05
1.0459e-05
-3.14589e-05
1.93428e-05
-4.03247e-05
4.92989e-06
-5.14365e-05
-2.8797e-05
-8.54656e-05
-4.62482e-05
-6.35435e-05
-0.000133528
-6.19165e-05
-0.000214404
-8.37045e-05
-0.000293287
4.77986e-05
-0.0003972
6.14776e-05
-0.000458034
0.000169466
-0.000487837
0.000287568
-0.000499006
0.000407484
-0.0005003
0.000503593
-0.00049246
0.000604532
-0.000469656
0.000711739
-0.000546186
3.41018e-05
-6.41016e-05
5.36265e-05
-3.16549e-05
2.35757e-05
-1.86013e-05
2.29681e-05
-1.73345e-05
2.57483e-05
-1.136e-05
2.69456e-05
1.06818e-05
1.90594e-05
2.8054e-05
2.94982e-06
5.27592e-05
-4.00005e-05
0.00010356
-0.000103233
0.000107283
-0.000148627
0.000179827
-0.000204243
0.000291228
-0.000239893
0.000358247
-0.000256503
0.000496489
-0.000274003
0.00059766
-0.000287298
0.000645535
-0.000324107
0.000691186
-0.000340399
0.000716619
-0.000361288
0.000737874
-0.000349156
0.000756867
-0.000365416
-3.6478e-05
5.10908e-05
-4.08209e-05
2.30459e-05
-6.97168e-06
3.53819e-06
-4.15427e-06
4.69715e-06
-2.82739e-06
7.67722e-06
4.15089e-06
4.72088e-06
9.75369e-06
7.85756e-06
1.35705e-05
-1.72171e-05
3.49951e-05
-5.60078e-05
1.7493e-05
-6.94803e-05
6.94814e-05
-8.51205e-05
0.000147226
-8.20273e-05
0.000240887
-7.47914e-05
0.00034977
-7.83704e-05
0.000436729
-0.000112933
0.000482281
-0.00014027
0.000529184
-0.000162855
0.000567719
-0.000164568
0.000611172
-0.000171584
0.000638931
-0.0001365
0.00068517
2.37603e-05
-4.23576e-05
3.63701e-05
-1.93925e-05
-3.47848e-06
-1.68471e-06
-1.17713e-05
8.77096e-06
-8.96613e-06
1.49104e-05
-4.54328e-06
2.39844e-05
1.19389e-05
1.0709e-05
2.29413e-05
1.73153e-06
2.46292e-05
-5.14065e-06
6.90493e-05
-2.99893e-05
0.000106034
-2.59626e-05
0.00017036
-3.68199e-05
0.000254059
-6.79808e-05
0.000294788
-0.00012473
0.000292037
-0.000181144
0.000317506
-0.000210971
0.000358589
-0.000211535
0.000418178
-0.00019727
0.000468035
-0.000183283
0.000514423
-0.000157581
0.000558246
-1.95666e-05
3.51568e-05
-3.19535e-05
1.44008e-05
-1.38978e-05
-1.37584e-05
7.21312e-06
-1.52168e-05
2.7215e-05
-2.00579e-05
5.45589e-05
-3.04976e-05
8.18244e-05
-4.01903e-05
0.000118094
-5.74837e-05
0.000161663
-6.85559e-05
0.000191126
-6.78214e-05
0.000255997
-6.28937e-05
0.000348796
-6.35829e-05
0.000376644
-9.07374e-05
0.000429036
-0.000126446
0.000419692
-0.000178814
0.000413394
-0.000205688
0.000423337
-0.000215676
0.000449313
-0.000202839
0.000479264
-0.000200519
0.000500794
-0.000157415
0.000509324
1.57614e-05
-2.55795e-05
2.94433e-05
-2.01222e-05
1.46151e-06
-3.01872e-06
-9.47535e-07
6.23976e-06
3.43207e-06
1.8656e-05
7.53872e-06
3.46243e-05
1.12057e-05
5.89028e-05
9.64799e-06
8.74531e-05
1.47289e-05
0.000116423
2.81268e-05
0.000176759
3.84841e-05
0.00023624
4.71983e-05
0.000274805
2.64439e-05
0.000322191
-5.69721e-06
0.000312938
-6.34887e-05
0.000300922
-9.97269e-05
0.000309486
-0.000120796
0.000324469
-0.000118909
0.000348879
-0.000105582
0.00037978
-7.46782e-05
0.000406189
-9.97018e-05
-8.54987e-06
2.46614e-05
-1.62763e-05
1.81821e-05
-4.29349e-06
3.22555e-06
-9.58303e-07
1.03919e-05
4.23541e-06
2.08748e-05
8.96166e-06
3.75558e-05
1.11527e-05
5.79731e-05
1.69526e-05
8.6115e-05
2.18999e-05
0.000125455
3.23254e-05
0.000163088
4.7107e-05
0.000221623
3.83617e-05
0.000248333
1.89153e-05
0.000266638
-2.02001e-05
0.000259112
-6.03433e-05
0.000252391
-8.83452e-05
0.000262434
-0.000100381
0.000273902
-9.977e-05
0.000296101
-8.91786e-05
0.000315346
-7.07229e-05
0.000339784
-9.66971e-05
1.07776e-05
-1.20206e-05
2.23837e-05
-5.43782e-06
8.62005e-06
-5.92809e-06
1.15276e-05
-3.80911e-06
1.81982e-05
6.25738e-06
2.15159e-05
2.19984e-05
2.32785e-05
4.40487e-05
2.2814e-05
7.13468e-05
2.71432e-05
0.000101981
3.53468e-05
0.000145427
2.84499e-05
0.000169291
1.75775e-05
0.000195853
-1.44663e-05
0.000199371
-4.03098e-05
0.000201405
-6.75433e-05
0.000213532
-7.44241e-05
0.00023012
-8.10929e-05
0.000253282
-7.27116e-05
0.00026889
-7.00224e-05
0.000294805
-6.07898e-05
0.000301152
-8.61874e-05
-2.84244e-06
1.58619e-05
-5.76826e-06
1.4878e-05
-3.32161e-06
9.20455e-06
-1.36505e-05
2.37062e-05
-1.67134e-05
4.17325e-05
-2.12481e-05
6.3518e-05
-2.60719e-05
8.89716e-05
-2.77849e-05
0.000115363
-2.59092e-05
0.000149673
-2.58707e-05
0.000169712
-3.14185e-05
0.000192469
-4.8194e-05
0.00019242
-6.65905e-05
0.000194608
-8.34177e-05
0.000201018
-8.97139e-05
0.0002177
-9.36235e-05
0.000235174
-8.92049e-05
0.000257815
-7.93158e-05
0.000281063
-6.14467e-05
0.000314112
-4.12271e-05
0.000335133
-5.35465e-05
6.86808e-06
-5.09487e-06
1.3542e-05
1.67772e-06
4.65305e-06
-1.73915e-06
2.69817e-06
-1.79474e-07
1.04423e-05
2.65007e-06
2.09504e-05
5.02513e-06
3.62332e-05
7.5283e-06
5.60565e-05
1.38397e-05
8.15798e-05
1.85856e-05
0.000102039
1.27958e-05
0.000116691
2.85637e-06
0.0001265
-1.92027e-05
0.000130727
-3.32513e-05
0.000143253
-4.34399e-05
0.000160063
-4.56718e-05
0.000180827
-4.74096e-05
0.000201695
-4.37967e-05
0.000225035
-4.21121e-05
0.000247965
-5.23039e-05
0.000271892
-3.59759e-05
0.000286353
-2.87974e-07
9.66702e-06
-1.35631e-06
8.93189e-06
2.69276e-06
-5.01572e-07
2.5709e-06
-5.26864e-07
8.33608e-06
2.02629e-06
1.69364e-05
4.49603e-06
2.93315e-05
9.24723e-06
4.74458e-05
1.10272e-05
6.76957e-05
1.00738e-05
7.55775e-05
4.23071e-07
8.76183e-05
-1.75719e-05
8.43987e-05
-3.81034e-05
8.69185e-05
-5.08321e-05
9.7529e-05
-5.7138e-05
0.00011276
-5.91352e-05
0.000129924
-5.91615e-05
0.000147801
-5.7987e-05
0.000166392
-5.85217e-05
0.000184033
-7.48046e-05
0.000201643
-7.19875e-05
0.000212903
4.86283e-06
-2.68547e-06
8.1687e-06
1.56367e-06
3.6472e-06
3.91077e-06
-3.01542e-06
6.1722e-06
5.9947e-08
8.45735e-06
7.97633e-06
1.00462e-05
2.09386e-05
9.95965e-06
3.57458e-05
1.14912e-05
4.91751e-05
5.12054e-06
6.09724e-05
-3.97453e-06
6.08154e-05
-1.79235e-05
6.60983e-05
-2.92018e-05
7.35719e-05
-3.54011e-05
8.87099e-05
-3.74442e-05
0.000104474
-3.73641e-05
0.000125722
-3.7082e-05
0.000144767
-3.65143e-05
0.00016749
-3.76876e-05
0.000191685
-5.07128e-05
0.000210408
-4.76529e-05
0.000233525
3.91071e-07
6.86586e-06
-1.73322e-06
5.81135e-06
5.11918e-06
-2.45336e-06
8.18955e-06
-7.41894e-06
1.4198e-05
-8.8334e-06
2.30883e-05
-9.51245e-06
3.27252e-05
-9.24184e-06
4.68243e-05
-1.00515e-05
5.31841e-05
-1.12405e-05
6.38243e-05
-1.45685e-05
6.90594e-05
-2.05175e-05
7.66824e-05
-2.60698e-05
8.29783e-05
-3.29131e-05
9.08087e-05
-3.84687e-05
9.67198e-05
-4.69764e-05
0.00010327
-5.59014e-05
0.000108135
-6.6296e-05
0.000116101
-7.67063e-05
0.00012782
-9.93113e-05
0.000133256
-0.000103555
0.000150158
4.72253e-06
-2.55681e-06
6.907e-06
3.97595e-07
3.85713e-06
4.50551e-06
5.86417e-08
3.20199e-06
7.62462e-07
6.47321e-06
1.85461e-06
1.17025e-05
3.08139e-06
1.9819e-05
3.16857e-06
2.6457e-05
5.06308e-06
3.48085e-05
3.87372e-06
4.16661e-05
-3.8034e-07
4.2536e-05
-4.62294e-06
4.98696e-05
-1.02235e-05
5.51319e-05
-1.3686e-05
6.3273e-05
-1.71201e-05
7.33059e-05
-2.03586e-05
8.34212e-05
-2.55253e-05
9.43171e-05
-2.73714e-05
0.000106005
-2.67047e-05
0.000126411
-2.36723e-05
0.000143981
-5.12544e-05
2.11315e-07
7.89103e-06
-5.13591e-06
6.70149e-06
2.59339e-06
2.22416e-06
8.78679e-07
3.65954e-06
2.40752e-06
5.76764e-06
1.87737e-06
8.91384e-06
1.10658e-06
1.22424e-05
1.8912e-06
1.79468e-05
-1.13892e-06
1.99096e-05
-5.63645e-06
1.57126e-05
-1.51864e-05
1.56629e-05
-2.76012e-05
5.13384e-06
-4.10465e-05
1.71918e-06
-5.02268e-05
2.01576e-06
-5.78345e-05
7.69141e-06
-6.55786e-05
1.29636e-05
-7.47447e-05
2.02424e-05
-8.15634e-05
2.77629e-05
-8.56807e-05
4.41957e-05
-8.84983e-05
5.89363e-05
-0.000103686
6.16045e-06
-6.531e-06
3.83034e-06
-6.98586e-06
2.79691e-06
1.46043e-06
5.47515e-06
5.82943e-06
5.92441e-06
7.78477e-06
5.36404e-06
8.1944e-06
4.27989e-06
9.56671e-06
2.2812e-06
9.27747e-06
-8.86442e-07
6.41911e-06
-7.75418e-06
1.56098e-06
-1.70687e-05
-9.31298e-06
-2.63554e-05
-1.42104e-05
-3.2694e-05
-1.48183e-05
-3.5274e-05
-8.39416e-06
-3.72338e-05
-1.48689e-06
-3.90049e-05
9.78382e-06
-4.26494e-05
1.92957e-05
-4.59725e-05
2.98414e-05
-5.21783e-05
4.11724e-05
-6.34631e-05
4.63376e-05
-8.07624e-05
3.38323e-06
7.27268e-06
-3.84416e-06
9.50343e-06
2.27766e-06
1.05498e-05
7.28255e-06
1.3299e-05
1.26071e-05
1.4078e-05
1.15714e-05
1.37949e-05
7.98156e-06
1.24118e-05
2.51236e-06
8.81892e-06
-4.7452e-06
2.683e-06
-1.23417e-05
-5.27884e-06
-1.93956e-05
-1.1398e-05
-2.43908e-05
-1.53151e-05
-2.67962e-05
-1.52986e-05
-2.81692e-05
-1.47554e-05
-2.97877e-05
-1.1244e-05
-3.32952e-05
-8.45891e-06
-3.81961e-05
-2.69355e-06
-4.25861e-05
2.36526e-06
-4.51784e-05
1.44867e-05
-4.92014e-05
2.64438e-05
-5.91109e-05
1.13057e-05
8.72395e-06
1.60503e-05
7.31677e-06
1.73957e-05
1.39911e-05
2.07964e-05
2.01434e-05
1.90187e-05
2.30793e-05
1.783e-05
2.39382e-05
1.68084e-05
2.21925e-05
1.50525e-05
1.81771e-05
1.19624e-05
1.32562e-05
8.42816e-06
7.69798e-06
5.58127e-06
3.44828e-06
3.66798e-06
-9.18807e-08
3.00209e-06
-2.75245e-06
2.90775e-06
-4.69627e-06
3.33732e-06
-6.62746e-06
3.45913e-06
-6.87566e-06
3.26979e-06
-8.74411e-06
3.0023e-06
-7.47885e-06
1.75136e-06
-8.51802e-06
-7.65766e-06
-3.77661e-06
-2.29447e-05
1.2852e-05
1.37818e-05
1.11844e-05
1.57918e-05
1.60563e-05
2.01768e-05
1.86807e-05
1.89155e-05
2.16466e-05
1.77107e-05
2.60906e-05
1.68918e-05
3.03219e-05
1.50328e-05
3.27347e-05
1.2548e-05
3.20128e-05
8.45306e-06
2.95792e-05
5.73503e-06
2.59036e-05
1.40208e-06
2.05647e-05
-1.37725e-06
1.31387e-05
-6.16483e-06
3.01663e-06
-8.42344e-06
-9.22518e-06
-1.14058e-05
-2.35345e-05
-1.10212e-05
-3.83838e-05
-8.79354e-06
-5.21231e-05
-5.96886e-06
-6.36854e-05
2.09251e-06
-7.07678e-05
4.20759e-06
-6.8064e-05
2.47996e-06
2.58163e-06
3.43702e-06
4.3406e-06
5.66848e-06
5.91971e-06
6.83708e-06
7.71891e-06
7.88277e-06
1.09716e-05
9.103e-06
1.58454e-05
9.74155e-06
2.23617e-05
1.05729e-05
2.9378e-05
1.00578e-05
3.59168e-05
1.02211e-05
4.30141e-05
9.92881e-06
5.03988e-05
9.32986e-06
5.80986e-05
7.00092e-06
6.58959e-05
2.59242e-06
7.36469e-05
-4.21447e-06
8.10377e-05
-1.47881e-05
8.7566e-05
-2.80788e-05
9.33827e-05
-4.63476e-05
9.68997e-05
-6.64441e-05
0.0001032
-8.92286e-05
9.36194e-05
-0.000121892
-0.341355
-0.292742
0.309882
0.130432
-0.0822637
-0.00865953
0.00309561
-0.0315204
0.020763
-0.0515763
0.00739688
-0.0786116
-0.0428573
-0.0655372
-0.00919957
-0.0818759
0.05137
-0.131224
0.126034
-0.104379
0.109479
0.00394138
0.0167476
0.00661587
0.0140368
0.0289112
0.00713255
0.0050838
0.00905019
0.0489108
-0.012487
0.0313096
-0.0165479
-0.0100554
0.0103176
-0.00817273
0.00137806
-0.00182943
0.00614367
-0.0130407
-0.00101849
0.00046605
-0.00688698
-0.00412105
-0.00382555
-0.0024114
-0.00494291
-0.00180305
-0.000788916
-0.00298281
-0.000288618
-0.00157027
-0.000838169
-0.00167617
-0.00413561
0.00219657
-0.00205915
0.00106342
-0.00191449
0.000840708
-0.0025591
0.00208576
-3.643e-06
-0.00063694
0.00087669
-0.000365312
0.000860606
0.000211084
0.000125468
0.000467476
-0.000165228
0.000228544
-0.000154936
-7.21595e-05
-0.0549536
-0.013433
0.121829
0.0904625
0.0258664
0.0227436
0.0186195
-0.00236102
0.0119017
-0.00403298
0.00522249
-0.0144242
-0.0143997
-0.0222774
-0.00729675
-0.0368941
0.0176102
-0.0405584
0.0233375
-0.0426224
0.0151106
-0.0134167
-0.00125698
-0.00774311
-0.0025105
-0.000501188
-0.00633403
-0.0046409
-0.00429852
0.00563164
-0.00785431
0.000933406
-0.00632866
-0.00519572
0.000435112
-0.00520631
-0.000424505
-0.0017603
0.000159109
-0.00343102
-0.000294544
-2.8141e-05
-0.00111285
-0.000794332
-0.000329402
-0.000154403
-0.000290762
0.000414194
0.000660067
-0.000185243
0.000855321
0.000186451
0.00053502
0.000132976
3.01406e-05
0.0013808
1.7705e-05
0.00112964
-6.33598e-05
0.000891587
-5.55725e-05
0.00100964
0.000384846
8.03136e-05
0.000575539
0.000163272
0.000374829
0.00019267
0.000101458
0.000225865
-4.36206e-05
0.000144551
-8.31528e-05
-1.53942e-05
-0.0833682
-0.0422093
-0.0177171
-0.0278295
-0.0335474
-0.0282491
-0.0220367
-0.0246037
-0.0124797
-0.0147955
-0.00884298
-0.0137878
-0.009661
-0.0166467
-0.00102324
-0.0216208
0.0217572
-0.0130067
0.0265819
-0.00674004
0.0295584
0.0148515
0.0235984
0.0178835
0.0189822
0.0161768
0.0119496
0.0162271
0.0122857
0.0185202
0.00526791
0.00900396
0.00214081
0.00202179
0.0045381
-0.0010011
0.0013545
8.97602e-05
0.000607617
-0.00261513
-0.000868282
-0.00072105
-0.00217479
-0.00144255
-0.00187593
-0.00188646
-0.0018931
-0.00170568
-0.00151176
-0.00217625
-0.00128787
-0.00175677
-0.00147621
-0.00173312
-0.00156328
-0.0004809
-0.00152376
-0.000408383
-0.00133081
-0.000324677
-0.000949811
2.38504e-05
-0.000418684
-0.000518132
0.000107155
-0.000204047
0.000144384
2.39335e-06
1.22986e-05
0.000131262
-3.94661e-05
7.29678e-05
-4.72785e-05
-4.50723e-05
-0.020194
0.00716547
0.0419438
0.0431243
0.0275697
0.0188794
0.0121788
0.000995808
0.00225968
-0.0014197
-0.000693414
-0.00568197
-0.00849251
-0.0107758
-0.00745081
-0.0177651
0.00564239
-0.0166323
0.00572136
-0.0178346
0.00618988
-0.00506017
0.00394144
0.000429634
0.00354176
0.00327583
-0.00151466
-0.000464056
-0.000103624
0.00411124
-0.00256507
-0.000304262
-0.0024804
-0.00245106
-0.00162282
-0.00323007
-0.000149115
-0.0018028
-0.000888583
-0.00180049
-0.000398889
-0.000822018
-0.000786264
-0.000655276
-0.000478432
-0.000318433
-0.000196088
-1.74118e-05
0.000268655
-0.000239552
0.000436434
-0.000100792
0.00015906
-8.94813e-05
0.00012911
0.000630324
5.89059e-05
0.000740659
1.27865e-05
0.000586012
7.2925e-05
0.000544303
0.000272659
0.000111632
0.000417742
0.000160314
0.000261496
0.000171394
9.74228e-05
0.000167192
4.18982e-06
0.000144422
-6.21302e-05
-1.12967e-05
-0.0229879
-0.0129242
-0.0132106
-0.0157083
-0.0147699
-0.0144597
-0.0147549
-0.0141696
-0.0116452
-0.00902297
-0.00779059
-0.00657975
-0.00606085
-0.00615257
-0.00192179
-0.00371534
0.0109896
0.00353986
0.0106156
0.00578773
0.014667
0.0121683
0.0160296
0.0134747
0.013624
0.0123019
0.0103631
0.0113777
0.0113317
0.011427
0.00618433
0.00517161
0.00363874
0.00264278
0.00179516
-0.000199657
0.00202512
5.32629e-05
-2.19278e-05
-0.00115864
-0.000118362
-0.000867434
-0.00136278
-0.000908268
-0.00125124
-0.00121915
-0.00120679
-0.00129376
-0.00109805
-0.00140743
-0.000979994
-0.00137477
-0.00122846
-0.00136834
-0.00112927
-0.000742354
-0.00102593
-0.000403779
-0.000904021
-0.000342859
-0.000671242
-0.000236846
-0.000373391
-0.000367299
1.80151e-05
-0.000169578
4.68963e-05
-1.30709e-05
-1.05372e-05
6.02696e-05
-1.08213e-05
2.98178e-05
-2.96123e-05
-4.5538e-05
-0.00291738
0.00424404
0.0135522
0.0176979
0.0170089
0.0134816
0.00893846
0.00391346
0.00157692
0.000180636
-0.000557086
-0.0029915
-0.00517383
-0.00630161
-0.0050003
-0.00732932
-0.000951314
-0.00682062
0.000799038
-0.00586827
0.00340525
-0.000108217
0.0052153
0.00387397
0.00480744
0.00325817
0.000414723
0.00157751
0.00252056
0.0040928
-0.000247364
0.000379795
-0.00139635
-0.00150824
-0.0024311
-0.0016439
-5.50441e-05
-0.00180745
-0.00106839
-0.000990784
-0.000467703
-0.0012365
-0.000744375
-0.000573502
-0.00061598
-0.000409429
-0.000290652
-0.000278041
9.11395e-06
-0.000310821
0.000157968
-0.000230873
-7.67243e-05
-0.000186996
2.6859e-05
0.00025226
5.31836e-05
0.000452525
3.29364e-05
0.00035906
6.19211e-05
0.000300925
0.000192955
0.000119179
0.000296778
0.000133298
0.000208359
0.000156653
9.37757e-05
0.000125023
3.94257e-05
0.000140249
-4.25808e-05
-8.71272e-06
-0.00140263
0.00225263
0.000366359
-0.000900266
-0.000952774
-0.00237105
-0.00402912
-0.0052998
-0.0055145
-0.00475922
-0.00428622
-0.00445461
-0.00449277
-0.00397772
-0.000762286
0.000230876
0.00465191
0.0034806
0.00593578