/*--------------------------------*- C++ -*----------------------------------*\
| =========                 |                                                 |
| \\      /  F ield         | OpenFOAM: The Open Source CFD Toolbox           |
|  \\    /   O peration     | Version:  2312                                  |
|   \\  /    A nd           | Website:  www.openfoam.com                      |
|    \\/     M anipulation  |                                                 |
\*---------------------------------------------------------------------------*/
FoamFile
{
    version     2.0;
    format      ascii;
    arch        "LSB;label=32;scalar=64";
    class       volScalarField;
    location    "400";
    object      magR;
}
// * * * * * * * * * * * * * * * * * * * * * * * * * * * * * * * * * * * * * //

dimensions      [0 2 -2 0 0 0 0];

internalField   nonuniform List<scalar> 
11040
(
0.398685
0.496159
0.108367
0.0339153
0.243688
0.301795
0.287811
0.264785
0.238039
0.222387
0.204471
0.188456
0.173288
0.157216
0.138853
0.118511
0.0940257
0.0639276
0.0299253
0.0235703
0.0207304
0.0192435
0.0202777
0.0255216
0.0366652
0.0632623
0.117921
0.177533
0.240199
0.299616
0.352738
0.38393
0.392746
0.388915
0.339946
0.201945
0.131428
0.039517
0.0974592
0.358646
0.574513
0.0370339
0.0705136
0.244012
0.412473
0.924096
0.394971
0.116643
0.0438827
0.0149706
0.00308702
0.0125391
0.0182576
0.0222328
0.0247936
0.0261514
0.0268838
0.0269126
0.0267516
0.0268564
0.0281186
0.0321838
0.0396966
0.0514904
0.0697479
0.0912121
0.109565
0.119494
0.123801
0.121227
0.116096
0.114403
0.115495
0.124783
0.139909
0.158239
0.181119
0.216451
0.267635
0.312038
0.400087
0.552813
0.0226912
0.019858
0.0355162
0.151496
0.933056
1.43347
0.882395
0.329442
0.156121
0.0903813
0.0500553
0.027063
0.0109428
0.00861249
0.0153189
0.0222662
0.0272711
0.0308372
0.0337067
0.0379788
0.0456529
0.0584108
0.0757381
0.0962236
0.113046
0.121135
0.120199
0.11537
0.11419
0.114678
0.120952
0.134837
0.155077
0.18472
0.22855
0.289598
0.37342
0.479627
0.624097
0.864507
0.922419
0.0167104
0.0136682
0.012466
0.0132918
0.186323
1.04963
1.80989
1.39137
0.60931
0.320882
0.181365
0.116156
0.0715937
0.0404394
0.0188596
0.0148149
0.0256656
0.0358306
0.043118
0.0497181
0.0597461
0.0762788
0.0959437
0.114329
0.1244
0.124536
0.118975
0.116058
0.112959
0.112143
0.116641
0.131152
0.163595
0.220904
0.304712
0.417761
0.565627
0.752191
1.00959
1.45126
1.32695
0.0122764
0.01099
0.0113786
0.00700209
0.00502012
0.159991
0.972245
1.99832
1.90067
1.04053
0.527994
0.315551
0.201568
0.128504
0.0778045
0.0378628
0.0186209
0.0306918
0.0444133
0.0538227
0.0641821
0.0803353
0.0979875
0.111578
0.11588
0.113559
0.112854
0.111655
0.109462
0.102996
0.0962181
0.107006
0.158846
0.255072
0.389643
0.564324
0.787945
1.07274
1.42656
2.06176
1.86573
0.00883388
0.00805686
0.00760213
0.00859739
0.00358133
0.0010185
0.102029
0.763469
1.95386
2.31594
1.62981
0.85046
0.512491
0.323034
0.209478
0.126829
0.0646124
0.0242387
0.0284218
0.0418931
0.050678
0.0627531
0.0771793
0.0885624
0.0955431
0.104306
0.116166
0.127182
0.130284
0.116873
0.0852432
0.0632665
0.136821
0.280479
0.473262
0.716733
1.02357
1.41008
1.84649
2.61135
2.46571
0.00635401
0.00604878
0.00563394
0.00578584
0.00635393
0.00192866
2.11138e-05
0.0420274
0.500012
1.63969
2.51896
2.2604
1.39167
0.783742
0.505312
0.328086
0.200093
0.107917
0.0447511
0.0153153
0.0120676
0.0233575
0.0448544
0.0696506
0.0974542
0.129524
0.163782
0.192217
0.205893
0.193835
0.147533
0.0603601
0.0847868
0.278192
0.531795
0.846752
1.23707
1.71313
2.2159
3.01534
2.99376
0.004625
0.00450083
0.00441558
0.00419268
0.00439668
0.0049373
0.000723377
7.13626e-07
0.00915906
0.260591
1.15182
2.36723
2.72778
2.10375
1.25601
0.765272
0.500757
0.317233
0.181507
0.102694
0.0663394
0.0639153
0.0848892
0.121446
0.167148
0.218074
0.2707
0.317002
0.345124
0.341099
0.292672
0.188798
0.02276
0.214839
0.52668
0.909803
1.3742
1.91498
2.46037
3.19904
3.28757
0.00340778
0.00334747
0.00333285
0.00329345
0.00312908
0.00341524
0.00356668
0.000981246
0.000246876
1.40213e-05
0.0930222
0.646117
1.82545
2.82791
2.77413
1.97997
1.19687
0.755634
0.487927
0.310556
0.209874
0.184347
0.197622
0.237897
0.294583
0.361609
0.43408
0.502235
0.550862
0.562251
0.520019
0.409682
0.223183
0.0632452
0.412729
0.852065
1.36993
1.94173
2.49484
3.10735
3.23982
0.0025268
0.00249668
0.00250229
0.00251465
0.00248601
0.00238076
0.0025899
0.00255782
0.00122975
7.67459e-05
0.00119407
0.0212514
0.277916
1.1267
2.39493
3.10582
2.776
1.91413
1.1694
0.743063
0.498821
0.389752
0.367376
0.400194
0.466419
0.553892
0.653342
0.751523
0.830017
0.867976
0.845911
0.746682
0.561955
0.313671
0.265433
0.665079
1.19163
1.7524
2.26679
2.71937
2.82254
0.00188281
0.00186775
0.00187737
0.00189667
0.00191299
0.00189049
0.00184089
0.00191495
0.00202164
0.00126504
2.71041e-06
0.000233273
3.8463e-06
0.0735073
0.517163
1.57458
2.80451
3.27401
2.77972
1.88327
1.15749
0.788243
0.650505
0.635539
0.6892
0.787481
0.914031
1.05094
1.17638
1.2638
1.28842
1.22997
1.08232
0.869408
0.675622
0.697864
1.02105
1.46603
1.86793
2.13227
2.13281
0.00140672
0.00139971
0.00140645
0.00142609
0.00144644
0.0014608
0.00145169
0.00141928
0.00143771
0.00156296
0.00116655
0.000110656
1.36842e-05
0.00107164
0.00795602
0.156833
0.757749
1.91997
3.0669
3.37183
2.78302
1.9183
1.30818
1.04349
0.993859
1.06118
1.1937
1.35949
1.53116
1.68051
1.78208
1.8155
1.77193
1.66482
1.54008
1.46771
1.51286
1.67031
1.83689
1.85615
1.62588
0.0010523
0.00104988
0.00105386
0.00106906
0.00108916
0.00110722
0.00112002
0.00112009
0.00109908
0.00110086
0.00115938
0.00105964
0.000348663
3.32609e-05
8.56291e-05
1.29751e-09
0.025601
0.237834
0.934016
2.12128
3.19081
3.42191
2.92236
2.26351
1.79433
1.58404
1.56582
1.68124
1.87325
2.08115
2.2645
2.40447
2.4953
2.54584
2.57849
2.62208
2.69311
2.77662
2.81611
2.70572
2.30484
0.000787116
0.000787335
0.000789346
0.000800227
0.000817032
0.000834523
0.000849856
0.000861885
0.000866013
0.000856985
0.000850292
0.000884928
0.000870619
0.00060672
6.2636e-07
2.23642e-06
0.000521494
0.000669475
0.0419463
0.290379
1.00982
2.12081
3.08788
3.45982
3.29131
2.95906
2.68433
2.51392
2.45112
2.50317
2.66626
2.89512
3.13578
3.36057
3.57104
3.77797
3.98398
4.16887
4.29944
4.31073
3.98646
0.000587951
0.000589623
0.000590525
0.000598174
0.00061131
0.000626289
0.000640943
0.00065417
0.00066509
0.000671454
0.00066939
0.000663354
0.00067387
0.000690555
0.000591744
0.000144007
1.86771e-05
1.4118e-05
0.00079427
0.000128326
0.0453632
0.275015
0.839317
1.71405
2.64073
3.31845
3.65971
3.80215
3.85987
3.83398
3.75091
3.69189
3.74271
3.93709
4.24895
4.62254
5.00487
5.34701
5.62354
5.81927
5.6912
0.000438098
0.00044038
0.000440736
0.000446109
0.000456117
0.000468164
0.000480679
0.00049303
0.000504498
0.000514165
0.000521196
0.000522952
0.000521188
0.000518074
0.000540654
0.000501884
0.00039192
7.99802e-06
4.40959e-06
2.00066e-06
0.0011898
0.00160547
0.0275794
0.149142
0.47601
1.05435
1.83775
2.69732
3.50585
4.19405
4.73428
5.09489
5.26485
5.30565
5.3315
5.44187
5.67659
6.00576
6.37247
6.75089
6.87096
0.000326213
0.000328566
0.000328742
0.000332617
0.000340199
0.00034958
0.000359729
0.000370155
0.000380501
0.000390158
0.00039853
0.000405123
0.000409235
0.000409077
0.000409467
0.000411612
0.000419499
0.000362332
0.000202943
9.73556e-07
1.9631e-06
2.48298e-05
0.000530018
0.00256968
0.0049024
0.0396082
0.158517
0.426817
0.899519
1.59776
2.48851
3.48624
4.47317
5.3378
6.01381
6.48965
6.80756
7.02808
7.21406
7.43844
7.54736
0.000245451
0.000247672
0.00024791
0.00025094
0.00025687
0.000264289
0.000272494
0.000281171
0.00029001
0.000298688
0.000306771
0.000313924
0.000319897
0.000324386
0.000326272
0.000326789
0.000326823
0.00033367
0.000324362
0.00027399
0.000114532
1.22289e-05
1.26907e-06
2.26484e-10
6.11961e-05
0.000741837
0.00252471
0.000770603
0.0163882
0.0790412
0.240053
0.565858
1.11134
1.89199
2.86454
3.93002
4.97438
5.90705
6.68019
7.31636
7.72237
0.00018819
0.000190225
0.000190557
0.000193054
0.000197819
0.000203808
0.000210527
0.00021781
0.000225409
0.000233092
0.00024058
0.000247591
0.000253895
0.000259379
0.000263743
0.000266913
0.000267947
0.000269718
0.000271309
0.000275229
0.000257605
0.000207471
0.000105883
2.20311e-08
1.4611e-06
3.10592e-07
0
5.13357e-06
0.000248309
0.00147753
0.00347838
0.000125532
0.0146681
0.0755791
0.229251
0.525127
0.998991
1.65765
2.46765
3.38135
4.28133
0.000146901
0.000148683
0.000149069
0.000151163
0.00015505
0.000159934
0.000165464
0.000171538
0.000177989
0.000184629
0.000191308
0.000197831
0.000204034
0.000209755
0.000214862
0.000219277
0.000222815
0.00022538
0.00022709
0.000229616
0.000233451
0.000234104
0.000222125
0.000181143
0.000127331
3.04455e-05
4.88682e-06
9.81729e-07
3.428e-07
0
0
7.0208e-07
0.000248023
0.00174018
0.00355962
0.000908937
0.00820014
0.0348189
0.110265
0.259921
0.503887
0.000116177
0.000117703
0.000118117
0.000119893
0.000123098
0.000127114
0.000131701
0.000136772
0.000142231
0.000147905
0.000153716
0.000159535
0.000165261
0.000170768
0.000175971
0.000180761
0.000185123
0.000188954
0.000192275
0.000194953
0.000197922
0.000201714
0.000206912
0.000209421
0.000206016
0.000186999
0.000148916
0.00010618
3.9245e-05
5.30934e-06
9.11892e-07
6.07949e-07
1.65053e-07
0
0
1.02921e-05
0.000271877
0.00149051
0.00335841
0.0046547
0.00521767
9.28284e-05
9.41181e-05
9.45413e-05
9.60614e-05
9.87188e-05
0.000102048
0.000105864
0.000110111
0.000114716
0.000119552
0.000124544
0.000129634
0.000134733
0.000139769
0.000144675
0.000149385
0.000153862
0.000158072
0.000162039
0.000165708
0.000169135
0.000172551
0.000176397
0.000181437
0.000187092
0.000194051
0.000196782
0.000194293
0.000182138
0.000157769
0.000119462
8.17759e-05
2.37376e-05
3.75382e-06
7.65483e-07
5.12074e-07
2.90507e-07
2.20648e-08
0
0
0
7.47661e-05
7.58475e-05
7.62637e-05
7.7568e-05
7.97784e-05
8.25476e-05
8.57293e-05
8.92891e-05
9.31628e-05
9.72674e-05
0.000101524
0.000105912
0.000110362
0.00011483
0.000119258
0.000123616
0.000127861
0.000131983
0.000135974
0.000139848
0.000143601
0.000147278
0.000150877
0.000154649
0.000158745
0.000163785
0.000169972
0.000176592
0.000183494
0.000189044
0.00018986
0.000186691
0.000175781
0.000155363
0.0001261
8.67335e-05
5.17162e-05
4.14602e-06
1.52738e-06
5.63262e-07
4.46698e-07
6.06024e-05
6.15003e-05
6.19002e-05
6.30185e-05
6.4863e-05
6.71701e-05
6.98277e-05
7.28093e-05
7.60621e-05
7.95305e-05
8.31435e-05
8.68846e-05
9.07145e-05
9.45932e-05
9.84824e-05
0.000102359
0.000106192
0.000109972
0.000113693
0.000117356
0.000120963
0.000124518
0.000128013
0.000131467
0.000134937
0.000138485
0.00014231
0.000146528
0.000151347
0.000156856
0.000162904
0.000168838
0.000174945
0.000179838
0.000182218
0.000180462
0.000176293
0.000165075
0.000147465
0.000123845
0.00010177
4.93691e-05
5.01102e-05
5.04882e-05
5.14446e-05
5.2986e-05
5.49083e-05
5.71297e-05
5.96233e-05
6.23506e-05
6.52672e-05
6.83189e-05
7.14843e-05
7.47464e-05
7.80645e-05
8.14164e-05
8.47786e-05
8.81328e-05
9.14634e-05
9.47699e-05
9.80422e-05
0.00010128
0.000104466
0.000107588
0.000110642
0.000113653
0.000116646
0.000119624
0.000122616
0.000125646
0.000128769
0.000132077
0.000135602
0.0001394
0.000143503
0.000147859
0.000152337
0.000156413
0.000160897
0.000164542
0.000165918
0.000167984
4.03796e-05
4.09875e-05
4.13384e-05
4.21554e-05
4.34437e-05
4.50453e-05
4.6901e-05
4.89831e-05
5.12649e-05
5.37068e-05
5.62724e-05
5.89346e-05
6.16856e-05
6.44912e-05
6.73357e-05
7.01971e-05
7.30642e-05
7.59187e-05
7.87599e-05
8.1576e-05
8.436e-05
8.70896e-05
8.97482e-05
9.23195e-05
9.48155e-05
9.72555e-05
9.96408e-05
0.000101975
0.000104249
0.000106462
0.000108611
0.000110715
0.000112765
0.000114789
0.000116824
0.000118914
0.000120965
0.00012311
0.000125495
0.000127673
0.000131196
3.31298e-05
3.36289e-05
3.39495e-05
3.4646e-05
3.57218e-05
3.70573e-05
3.86052e-05
4.03422e-05
4.22451e-05
4.42826e-05
4.64273e-05
4.86546e-05
5.0954e-05
5.33049e-05
5.56875e-05
5.80875e-05
6.04919e-05
6.28877e-05
6.52673e-05
6.76234e-05
6.99399e-05
7.21996e-05
7.43861e-05
7.64758e-05
7.8474e-05
8.03966e-05
8.22436e-05
8.40117e-05
8.57022e-05
8.73144e-05
8.88439e-05
9.02889e-05
9.16416e-05
9.29056e-05
9.40914e-05
9.51951e-05
9.61855e-05
9.70913e-05
9.80071e-05
9.86987e-05
0.000100374
2.72496e-05
2.7657e-05
2.79468e-05
2.85412e-05
2.94396e-05
3.05535e-05
3.18433e-05
3.32903e-05
3.48733e-05
3.65684e-05
3.83528e-05
4.02059e-05
4.21166e-05
4.40714e-05
4.60488e-05
4.80385e-05
5.00287e-05
5.20074e-05
5.39655e-05
5.58966e-05
5.77834e-05
5.96079e-05
6.13639e-05
6.30208e-05
6.45834e-05
6.60581e-05
6.74525e-05
6.876e-05
6.99843e-05
7.11218e-05
7.21758e-05
7.31441e-05
7.40241e-05
7.48198e-05
7.55416e-05
7.61826e-05
7.67185e-05
7.71742e-05
7.75947e-05
7.78422e-05
7.87459e-05
2.2455e-05
2.27882e-05
2.30488e-05
2.35554e-05
2.43063e-05
2.52351e-05
2.63088e-05
2.75121e-05
2.88256e-05
3.0231e-05
3.17087e-05
3.32426e-05
3.48213e-05
3.64335e-05
3.80608e-05
3.96935e-05
4.13209e-05
4.29326e-05
4.45205e-05
4.60779e-05
4.75865e-05
4.90322e-05
5.04132e-05
5.16992e-05
5.28949e-05
5.40055e-05
5.50333e-05
5.59746e-05
5.68325e-05
5.76068e-05
5.82999e-05
5.89121e-05
5.94417e-05
5.98943e-05
6.02782e-05
6.05918e-05
6.0819e-05
6.0985e-05
6.11008e-05
6.11358e-05
6.15119e-05
1.85304e-05
1.8802e-05
1.90367e-05
1.94687e-05
2.00968e-05
2.0871e-05
2.1765e-05
2.27636e-05
2.38517e-05
2.50127e-05
2.62318e-05
2.74946e-05
2.87917e-05
3.01109e-05
3.14395e-05
3.27659e-05
3.40829e-05
3.53795e-05
3.6648e-05
3.78838e-05
3.90687e-05
4.01915e-05
4.12559e-05
4.22339e-05
4.31252e-05
4.39382e-05
4.46757e-05
4.53355e-05
4.59169e-05
4.64232e-05
4.6856e-05
4.72179e-05
4.75081e-05
4.77325e-05
4.78968e-05
4.80005e-05
4.80342e-05
4.80211e-05
4.79471e-05
4.78672e-05
4.78391e-05
1.53059e-05
1.55292e-05
1.57399e-05
1.6109e-05
1.66356e-05
1.72818e-05
1.80259e-05
1.88541e-05
1.97535e-05
2.07106e-05
2.17125e-05
2.27479e-05
2.38076e-05
2.48815e-05
2.59583e-05
2.70281e-05
2.80834e-05
2.9116e-05
3.01172e-05
3.10855e-05
3.20008e-05
3.28577e-05
3.36613e-05
3.43894e-05
3.50395e-05
3.56201e-05
3.6132e-05
3.65771e-05
3.69543e-05
3.72665e-05
3.75151e-05
3.7703e-05
3.78303e-05
3.79012e-05
3.79207e-05
3.78885e-05
3.78003e-05
3.76767e-05
3.74849e-05
3.73486e-05
3.70152e-05
1.26494e-05
1.28342e-05
1.30248e-05
1.33414e-05
1.37838e-05
1.4324e-05
1.49433e-05
1.56297e-05
1.63719e-05
1.71587e-05
1.79792e-05
1.88245e-05
1.96855e-05
2.05546e-05
2.14215e-05
2.22775e-05
2.31155e-05
2.39301e-05
2.47122e-05
2.54616e-05
2.61594e-05
2.68028e-05
2.73998e-05
2.79306e-05
2.83936e-05
2.87959e-05
2.91388e-05
2.94229e-05
2.96491e-05
2.98196e-05
2.99364e-05
3.00014e-05
3.00161e-05
2.99839e-05
2.99086e-05
2.97896e-05
2.96264e-05
2.9438e-05
2.91773e-05
2.90204e-05
2.8461e-05
1.04562e-05
1.06116e-05
1.0784e-05
1.10573e-05
1.14304e-05
1.18826e-05
1.23983e-05
1.29671e-05
1.35787e-05
1.42244e-05
1.48942e-05
1.55811e-05
1.62771e-05
1.69762e-05
1.76689e-05
1.83483e-05
1.9008e-05
1.96431e-05
2.02468e-05
2.08192e-05
2.13431e-05
2.18164e-05
2.22508e-05
2.26276e-05
2.29463e-05
2.32125e-05
2.34287e-05
2.35947e-05
2.37115e-05
2.3781e-05
2.38058e-05
2.37874e-05
2.37281e-05
2.36304e-05
2.34974e-05
2.33287e-05
2.31252e-05
2.29051e-05
2.26116e-05
2.24595e-05
2.17409e-05
8.64211e-06
8.77468e-06
8.93254e-06
9.16953e-06
9.4857e-06
9.8654e-06
1.02959e-05
1.07672e-05
1.12714e-05
1.18001e-05
1.23459e-05
1.29019e-05
1.34625e-05
1.40212e-05
1.45714e-05
1.5106e-05
1.5621e-05
1.61112e-05
1.65723e-05
1.70034e-05
1.73909e-05
1.77317e-05
1.80402e-05
1.82999e-05
1.8511e-05
1.8677e-05
1.88009e-05
1.8883e-05
1.89243e-05
1.89262e-05
1.88911e-05
1.88205e-05
1.87163e-05
1.8581e-05
1.84165e-05
1.8223e-05
1.80021e-05
1.77713e-05
1.74676e-05
1.73327e-05
1.65091e-05
7.1399e-06
7.25567e-06
7.40056e-06
7.60804e-06
7.87761e-06
8.19799e-06
8.55823e-06
8.94967e-06
9.36523e-06
9.79793e-06
1.02417e-05
1.06904e-05
1.11397e-05
1.15839e-05
1.20177e-05
1.2435e-05
1.28326e-05
1.32064e-05
1.35527e-05
1.38713e-05
1.41503e-05
1.43879e-05
1.45978e-05
1.47669e-05
1.4895e-05
1.49858e-05
1.50414e-05
1.50625e-05
1.50499e-05
1.5005e-05
1.49295e-05
1.4825e-05
1.46935e-05
1.4537e-05
1.43568e-05
1.41532e-05
1.39282e-05
1.36985e-05
1.33987e-05
1.3284e-05
1.24044e-05
5.89477e-06
5.99814e-06
6.1326e-06
6.31557e-06
6.54738e-06
6.81925e-06
7.12195e-06
7.44787e-06
7.79082e-06
8.145e-06
8.50515e-06
8.86645e-06
9.22503e-06
9.57661e-06
9.91648e-06
1.024e-05
1.05446e-05
1.0827e-05
1.10846e-05
1.13177e-05
1.15155e-05
1.1677e-05
1.18154e-05
1.19203e-05
1.19908e-05
1.20302e-05
1.20404e-05
1.20221e-05
1.19759e-05
1.19033e-05
1.18056e-05
1.16843e-05
1.15413e-05
1.13781e-05
1.11958e-05
1.09946e-05
1.07766e-05
1.05573e-05
1.02717e-05
1.01794e-05
9.28116e-06
4.86245e-06
4.95709e-06
5.08243e-06
5.24566e-06
5.4467e-06
5.67891e-06
5.93471e-06
6.20702e-06
6.49087e-06
6.78092e-06
7.07315e-06
7.36319e-06
7.64816e-06
7.92441e-06
8.1883e-06
8.43566e-06
8.66476e-06
8.87322e-06
9.05869e-06
9.22183e-06
9.35379e-06
9.45377e-06
9.53403e-06
9.58671e-06
9.61132e-06
9.61034e-06
9.58539e-06
9.53748e-06
9.46728e-06
9.37594e-06
9.26459e-06
9.1345e-06
8.98729e-06
8.82433e-06
8.6462e-06
8.45328e-06
8.24738e-06
8.04283e-06
7.77777e-06
7.70409e-06
6.8255e-06
4.0065e-06
4.09506e-06
4.21296e-06
4.35998e-06
4.53603e-06
4.73623e-06
4.95343e-06
5.18217e-06
5.4176e-06
5.65583e-06
5.89278e-06
6.12561e-06
6.35131e-06
6.56802e-06
6.77219e-06
6.96124e-06
7.13337e-06
7.28759e-06
7.42161e-06
7.53659e-06
7.62459e-06
7.68526e-06
7.72962e-06
7.7513e-06
7.74974e-06
7.72719e-06
7.68489e-06
7.6237e-06
7.54424e-06
7.44752e-06
7.33453e-06
7.20622e-06
7.06422e-06
6.90962e-06
6.74312e-06
6.565e-06
6.37699e-06
6.19181e-06
5.95255e-06
5.89875e-06
5.05948e-06
3.29741e-06
3.38185e-06
3.49326e-06
3.62722e-06
3.7832e-06
3.95713e-06
4.14299e-06
4.33593e-06
4.53193e-06
4.72777e-06
4.92004e-06
5.10636e-06
5.28404e-06
5.45163e-06
5.6061e-06
5.74537e-06
5.86857e-06
5.9751e-06
6.06323e-06
6.13394e-06
6.18127e-06
6.20512e-06
6.21541e-06
6.20741e-06
6.18089e-06
6.13769e-06
6.07905e-06
6.00568e-06
5.91822e-06
5.81737e-06
5.70402e-06
5.57885e-06
5.44333e-06
5.29825e-06
5.14414e-06
4.98111e-06
4.81096e-06
4.64402e-06
4.43106e-06
4.38593e-06
3.62043e-06
2.71031e-06
2.79204e-06
2.89807e-06
3.02123e-06
3.1608e-06
3.31336e-06
3.47357e-06
3.6372e-06
3.80102e-06
3.96229e-06
4.11858e-06
4.26802e-06
4.409e-06
4.54067e-06
4.66103e-06
4.76796e-06
4.8612e-06
4.94031e-06
5.00429e-06
5.05361e-06
5.08364e-06
5.09349e-06
5.09194e-06
5.07504e-06
5.04276e-06
4.99659e-06
4.93768e-06
4.86669e-06
4.78424e-06
4.69107e-06
4.58793e-06
4.4755e-06
4.355e-06
4.22725e-06
4.09284e-06
3.95206e-06
3.80634e-06
3.66405e-06
3.48401e-06
3.45439e-06
2.7689e-06
2.22456e-06
2.30489e-06
2.40649e-06
2.52082e-06
2.64655e-06
2.78094e-06
2.91957e-06
3.05906e-06
3.19658e-06
3.32991e-06
3.45689e-06
3.57578e-06
3.68491e-06
3.78298e-06
3.86837e-06
3.94004e-06
3.99826e-06
4.0431e-06
4.07429e-06
4.09229e-06
4.09398e-06
4.07968e-06
4.05667e-06
4.02201e-06
3.97585e-06
3.91941e-06
3.85378e-06
3.77947e-06
3.69703e-06
3.60692e-06
3.50985e-06
3.40619e-06
3.297e-06
3.18275e-06
3.06403e-06
2.94074e-06
2.81496e-06
2.69141e-06
2.54177e-06
2.50642e-06
1.94703e-06
1.82456e-06
1.90449e-06
2.00284e-06
2.10988e-06
2.22364e-06
2.34175e-06
2.46128e-06
2.57965e-06
2.69513e-06
2.80588e-06
2.91039e-06
3.00747e-06
3.09683e-06
3.17854e-06
3.2518e-06
3.31438e-06
3.36576e-06
3.40585e-06
3.43456e-06
3.4523e-06
3.45658e-06
3.44626e-06
3.42826e-06
3.40027e-06
3.36246e-06
3.31575e-06
3.26117e-06
3.19929e-06
3.13081e-06
3.05623e-06
2.97633e-06
2.89166e-06
2.80317e-06
2.71136e-06
2.61705e-06
2.52035e-06
2.42301e-06
2.32786e-06
2.21512e-06
2.19518e-06
1.73171e-06
1.50001e-06
1.57946e-06
1.67387e-06
1.77387e-06
1.87686e-06
1.98085e-06
2.08351e-06
2.18316e-06
2.279e-06
2.36999e-06
2.4547e-06
2.53092e-06
2.59636e-06
2.64903e-06
2.68853e-06
2.71638e-06
2.73462e-06
2.74387e-06
2.74421e-06
2.7357e-06
2.71723e-06
2.68946e-06
2.65668e-06
2.61741e-06
2.57189e-06
2.52095e-06
2.46527e-06
2.40527e-06
2.34142e-06
2.27417e-06
2.20401e-06
2.13135e-06
2.05694e-06
1.98125e-06
1.9049e-06
1.82761e-06
1.75248e-06
1.67733e-06
1.60144e-06
1.55896e-06
1.2868e-06
1.23833e-06
1.31632e-06
1.40445e-06
1.49466e-06
1.58542e-06
1.67608e-06
1.76507e-06
1.85072e-06
1.93159e-06
2.00701e-06
2.07723e-06
2.14356e-06
2.20744e-06
2.26972e-06
2.32836e-06
2.3779e-06
2.41535e-06
2.44194e-06
2.45861e-06
2.46642e-06
2.46422e-06
2.45131e-06
2.43274e-06
2.40744e-06
2.37587e-06
2.33899e-06
2.29768e-06
2.2526e-06
2.20436e-06
2.15364e-06
2.10114e-06
2.04751e-06
1.99339e-06
1.93934e-06
1.88625e-06
1.83419e-06
1.78499e-06
1.73706e-06
1.68989e-06
1.67694e-06
1.44543e-06
1.01953e-06
1.09802e-06
1.18058e-06
1.25972e-06
1.33534e-06
1.40935e-06
1.48281e-06
1.55558e-06
1.62652e-06
1.69274e-06
1.75023e-06
1.79483e-06
1.82395e-06
1.83736e-06
1.83882e-06
1.83658e-06
1.8348e-06
1.83104e-06
1.8236e-06
1.81155e-06
1.79453e-06
1.77325e-06
1.74951e-06
1.7227e-06
1.69306e-06
1.66128e-06
1.62786e-06
1.59326e-06
1.55786e-06
1.52209e-06
1.48632e-06
1.45097e-06
1.4166e-06
1.38352e-06
1.35235e-06
1.32246e-06
1.29758e-06
1.26951e-06
1.25951e-06
1.21011e-06
1.18516e-06
8.36637e-07
9.23646e-07
1.0098e-06
1.08543e-06
1.14988e-06
1.20627e-06
1.25767e-06
1.30704e-06
1.35732e-06
1.41138e-06
1.47141e-06
1.53878e-06
1.61263e-06
1.69046e-06
1.76542e-06
1.82377e-06
1.86113e-06
1.88557e-06
1.9003e-06
1.9069e-06
1.90502e-06
1.89513e-06
1.88054e-06
1.86109e-06
1.83771e-06
1.81137e-06
1.78294e-06
1.75309e-06
1.72258e-06
1.69212e-06
1.66247e-06
1.63431e-06
1.60827e-06
1.58494e-06
1.56533e-06
1.54975e-06
1.53975e-06
1.53227e-06
1.53651e-06
1.54039e-06
1.49013e-06
7.14018e-07
7.99705e-07
8.81615e-07
9.55505e-07
1.02061e-06
1.07726e-06
1.12427e-06
1.16035e-06
1.18485e-06
1.19825e-06
1.20189e-06
1.19764e-06
1.18795e-06
1.17394e-06
1.15841e-06
1.15327e-06
1.15957e-06
1.16846e-06
1.17697e-06
1.18309e-06
1.18632e-06
1.18684e-06
1.18573e-06
1.18301e-06
1.17883e-06
1.17364e-06
1.16802e-06
1.16223e-06
1.15659e-06
1.15125e-06
1.14651e-06
1.14244e-06
1.1392e-06
1.13661e-06
1.135e-06
1.13342e-06
1.13458e-06
1.13014e-06
1.14206e-06
1.09942e-06
1.15324e-06
8.18652e-07
9.50925e-07
1.03063e-06
1.05694e-06
1.04578e-06
1.0206e-06
1.00492e-06
1.01523e-06
1.05667e-06
1.12325e-06
1.20358e-06
1.28609e-06
1.3621e-06
1.42751e-06
1.47895e-06
1.50422e-06
1.50432e-06
1.49122e-06
1.47146e-06
1.44793e-06
1.42013e-06
1.3932e-06
1.36446e-06
1.3356e-06
1.30784e-06
1.28173e-06
1.25769e-06
1.23624e-06
1.21787e-06
1.20297e-06
1.19193e-06
1.18517e-06
1.18298e-06
1.18565e-06
1.19379e-06
1.20731e-06
1.22853e-06
1.25043e-06
1.29722e-06
1.28611e-06
1.41584e-06
10.8647
10.9813
9.03649
7.8639
7.28586
6.70919
5.87281
4.72147
3.29934
1.79006
0.513363
0.359235
0.34709
0.0532561
0.00284039
1.33086e-06
0.000206955
0.00046181
0.000412738
0.000342163
0.000306947
0.000272072
0.000248066
0.000227603
0.000209761
0.000193623
0.000177323
0.000162165
0.000147119
0.000133827
0.000120283
0.000108984
9.83022e-05
8.88983e-05
8.09627e-05
7.40079e-05
6.80335e-05
6.29384e-05
5.86711e-05
5.48567e-05
5.14314e-05
4.83816e-05
4.55171e-05
4.27271e-05
4.00284e-05
3.74252e-05
3.48349e-05
3.2308e-05
2.98448e-05
2.74267e-05
2.50814e-05
2.27979e-05
2.06111e-05
1.85137e-05
1.64836e-05
1.45488e-05
1.27571e-05
1.10417e-05
9.48873e-06
8.04494e-06
6.77537e-06
5.598e-06
4.65388e-06
3.84266e-06
3.16001e-06
2.68074e-06
2.30236e-06
2.05633e-06
1.95832e-06
1.78034e-06
1.89189e-06
1.59644e-06
1.92544e-06
1.52847e-06
10.2973
14.6054
12.7432
10.7536
9.54357
8.68691
7.83006
6.73132
5.27764
3.53982
1.77044
0.369244
0.355001
0.222133
0.0152058
0.000283657
1.59056e-05
0.000369293
0.000446746
0.00036127
0.000315637
0.00027762
0.000250792
0.000227991
0.00020867
0.000191912
0.000175487
0.00016034
0.000145258
0.000132247
0.0001188
0.000107386
9.68343e-05
8.71529e-05
7.91973e-05
7.218e-05
6.60405e-05
6.08437e-05
5.65042e-05
5.2609e-05
4.90819e-05
4.60223e-05
4.31708e-05
4.03858e-05
3.7734e-05
3.52285e-05
3.27134e-05
3.02836e-05
2.79618e-05
2.56586e-05
2.34323e-05
2.12849e-05
1.9222e-05
1.72605e-05
1.53362e-05
1.35299e-05
1.18735e-05
1.02727e-05
8.84519e-06
7.51066e-06
6.34912e-06
5.26915e-06
4.42645e-06
3.69365e-06
3.07308e-06
2.64063e-06
2.3027e-06
2.06593e-06
1.96506e-06
1.77589e-06
1.88073e-06
1.56332e-06
1.89798e-06
1.47272e-06
7.97134
14.9642
15.18
13.3318
11.8228
10.8004
9.95684
8.96354
7.5952
5.79722
3.72214
1.72025
0.251821
0.317413
0.127068
0.00267796
5.33282e-05
4.33472e-08
0.000356591
0.000398239
0.000333458
0.000288853
0.000257625
0.000231299
0.000209248
0.000190425
0.000173746
0.00015813
0.000142761
0.000129437
0.000116423
0.000104704
9.43626e-05
8.45158e-05
7.64776e-05
6.94224e-05
6.31643e-05
5.79043e-05
5.35156e-05
4.95842e-05
4.60258e-05
4.30026e-05
4.02098e-05
3.74998e-05
3.49525e-05
3.25827e-05
3.02058e-05
2.79252e-05
2.57757e-05
2.36328e-05
2.15674e-05
1.95888e-05
1.76854e-05
1.58857e-05
1.41027e-05
1.24626e-05
1.09544e-05
9.50196e-06
8.21111e-06
7.0143e-06
5.96595e-06
5.01921e-06
4.27433e-06
3.62367e-06
3.07767e-06
2.69083e-06
2.37634e-06
2.14389e-06
2.02935e-06
1.83457e-06
1.89696e-06
1.56998e-06
1.88798e-06
1.44105e-06
6.13607
13.6283
16.1044
15.3512
14.0435
12.9798
12.116
11.1953
9.96431
8.26552
6.11782
3.75593
1.60332
0.154713
0.262022
0.0735649
0.000877811
9.78398e-07
3.66845e-06
0.000329213
0.000353218
0.000301025
0.000264644
0.000235193
0.000210447
0.000189636
0.000172068
0.000155853
0.000140284
0.000126611
0.00011378
0.000101874
9.15808e-05
8.16871e-05
7.35583e-05
6.64447e-05
6.01061e-05
5.4797e-05
5.03657e-05
4.64199e-05
4.28671e-05
3.98987e-05
3.71809e-05
3.45749e-05
3.21589e-05
2.99272e-05
2.77134e-05
2.56016e-05
2.36207e-05
2.16489e-05
1.97553e-05
1.79466e-05
1.62079e-05
1.45681e-05
1.294e-05
1.14665e-05
1.00987e-05
8.79731e-06
7.63691e-06
6.57644e-06
5.63721e-06
4.81702e-06
4.15753e-06
3.57654e-06
3.09927e-06
2.74497e-06
2.45133e-06
2.21926e-06
2.0919e-06
1.88974e-06
1.9188e-06
1.58197e-06
1.88104e-06
1.41516e-06
4.91499
11.6182
15.6434
16.4154
15.8084
14.9451
14.1262
13.287
12.2366
10.7679
8.77451
6.33408
3.74886
1.5003
0.107489
0.207425
0.0458974
0.00631976
4.42335e-07
3.37898e-05
0.000319106
0.000319589
0.000271606
0.000238334
0.000211633
0.000189255
0.000170458
0.000153566
0.000137852
0.00012395
0.000111093
9.9095e-05
8.87388e-05
7.88393e-05
7.06335e-05
6.34343e-05
5.70357e-05
5.16927e-05
4.7218e-05
4.32644e-05
3.97479e-05
3.68421e-05
3.42099e-05
3.17201e-05
2.94469e-05
2.73621e-05
2.53158e-05
2.33767e-05
2.15652e-05
1.97666e-05
1.80453e-05
1.64041e-05
1.48278e-05
1.3345e-05
1.18739e-05
1.05548e-05
9.32378e-06
8.16487e-06
7.12947e-06
6.19344e-06
5.3585e-06
4.6459e-06
4.05998e-06
3.53643e-06
3.11709e-06
2.78291e-06
2.5139e-06
2.27898e-06
2.14147e-06
1.92922e-06
1.94097e-06
1.59351e-06
1.87508e-06
1.39397e-06
4.11653
9.48383
14.2197
16.4173
16.8107
16.4143
15.7774
15.0676
14.2286
13.0756
11.4229
9.19518
6.51914
3.75537
1.4353
0.108387
0.165426
0.0296841
0.00439304
2.80217e-06
5.87279e-05
0.000302813
0.000292378
0.000244986
0.000213452
0.000189486
0.000169416
0.000151727
0.000135685
0.000121581
0.000108601
9.65149e-05
8.60427e-05
7.6113e-05
6.78158e-05
6.05124e-05
5.405e-05
4.86723e-05
4.41538e-05
4.01943e-05
3.67283e-05
3.38891e-05
3.13472e-05
2.89806e-05
2.68511e-05
2.49202e-05
2.30402e-05
2.12702e-05
1.96292e-05
1.80026e-05
1.64502e-05
1.49742e-05
1.35566e-05
1.22282e-05
1.09103e-05
9.73699e-06
8.64108e-06
7.61602e-06
6.70093e-06
5.87765e-06
5.14138e-06
4.51727e-06
3.99552e-06
3.52216e-06
3.14592e-06
2.82871e-06
2.57539e-06
2.33767e-06
2.18996e-06
1.9686e-06
1.96564e-06
1.61262e-06
1.87371e-06
1.38261e-06
3.66202
7.52434
12.3039
15.4867
16.8882
17.1371
16.8407
16.3451
15.7504
14.9551
13.7617
11.9878
9.58394
6.71734
3.80268
1.41307
0.139563
0.137226
0.0207084
0.00346277
4.40924e-06
5.32494e-05
0.000271171
0.000265353
0.000220075
0.000190781
0.000169191
0.000150586
0.000134003
0.000119585
0.000106433
9.42146e-05
8.36039e-05
7.36082e-05
6.51823e-05
5.77585e-05
5.12288e-05
4.57973e-05
4.12266e-05
3.72633e-05
3.38511e-05
3.10779e-05
2.86262e-05
2.63856e-05
2.43979e-05
2.26194e-05
2.09039e-05
1.92983e-05
1.78235e-05
1.63646e-05
1.49759e-05
1.36608e-05
1.23976e-05
1.12193e-05
1.0049e-05
9.01666e-06
8.05131e-06
7.15266e-06
6.35139e-06
5.63138e-06
4.98549e-06
4.43573e-06
3.9699e-06
3.5405e-06
3.19486e-06
2.89337e-06
2.64474e-06
2.40418e-06
2.24501e-06
2.01675e-06
1.99504e-06
1.64192e-06
1.8779e-06
1.37959e-06
3.38551
5.87275
10.2614
13.8935
16.0583
16.9696
17.1262
16.9396
16.6294
16.2027
15.5112
14.3356
12.4997
9.97187
6.95593
3.90411
1.43885
0.185303
0.119069
0.0166499
0.00319476
3.66212e-06
2.72931e-05
0.000228336
0.000239095
0.000197759
0.000170102
0.000150086
0.000132927
0.00011804
0.000104647
9.22455e-05
8.14569e-05
7.13664e-05
6.27805e-05
5.52249e-05
4.86215e-05
4.31155e-05
3.84832e-05
3.45139e-05
3.11486e-05
2.84364e-05
2.60719e-05
2.39549e-05
2.21054e-05
2.04721e-05
1.89172e-05
1.74717e-05
1.61548e-05
1.48567e-05
1.36257e-05
1.24649e-05
1.13504e-05
1.03153e-05
9.28665e-06
8.3894e-06
7.54713e-06
6.76723e-06
6.07046e-06
5.44558e-06
4.87952e-06
4.39468e-06
3.97719e-06
3.5842e-06
3.26203e-06
2.97293e-06
2.72383e-06
2.4799e-06
2.30858e-06
2.07483e-06
2.03145e-06
1.68074e-06
1.88846e-06
1.38219e-06
3.0471
4.52057
8.28722
11.9069
14.4901
15.9214
16.5455
16.7288
16.7378
16.6707
16.4598
15.9147
14.809
12.969
10.3765
7.24893
4.07242
1.51696
0.244213
0.109446
0.015606
0.00349867
1.55825e-06
3.07364e-06
0.000175907
0.00021145
0.000177388
0.000150915
0.000132388
0.000117035
0.000103316
9.06931e-05
7.9672e-05
6.94403e-05
6.06577e-05
5.29504e-05
4.62574e-05
4.06546e-05
3.59499e-05
3.1973e-05
2.8647e-05
2.59846e-05
2.3703e-05
2.17045e-05
1.99858e-05
1.84887e-05
1.70866e-05
1.57946e-05
1.46271e-05
1.34812e-05
1.2401e-05
1.13871e-05
1.04134e-05
9.51327e-06
8.6197e-06
7.84915e-06
7.1212e-06
6.4512e-06
5.84842e-06
5.31001e-06
4.81291e-06
4.3857e-06
4.00956e-06
3.64578e-06
3.34282e-06
3.06214e-06
2.81197e-06
2.56461e-06
2.3811e-06
2.14234e-06
2.07667e-06
1.72969e-06
1.90735e-06
1.39069e-06
2.49627
3.3606
6.43308
9.70348
12.3777
14.1364
15.1451
15.6886
16.0219
16.2869
16.4919
16.5144
16.149
15.1657
13.3929
10.8002
7.60789
4.31714
1.66325
0.325451
0.106439
0.0171399
0.00440263
1.21557e-06
1.22743e-05
0.000104758
0.000181101
0.000157962