/*--------------------------------*- C++ -*----------------------------------*\
| =========                 |                                                 |
| \\      /  F ield         | OpenFOAM: The Open Source CFD Toolbox           |
|  \\    /   O peration     | Version:  2312                                  |
|   \\  /    A nd           | Website:  www.openfoam.com                      |
|    \\/     M anipulation  |                                                 |
\*---------------------------------------------------------------------------*/
FoamFile
{
    version     2.0;
    format      ascii;
    arch        "LSB;label=32;scalar=64";
    class       volVectorField;
    location    "400";
    object      momentError;
}
// * * * * * * * * * * * * * * * * * * * * * * * * * * * * * * * * * * * * * //

dimensions      [0 1 -2 0 0 0 0];

internalField   nonuniform List<vector> 
11040
(
(-0.979977 -1.8014 -2.05458e-17)
(0.211035 -22.8697 -5.63931e-16)
(-3.43318 -12.5572 3.63516e-15)
(-0.500079 0.979441 6.04369e-16)
(-0.363344 -0.374224 2.93698e-15)
(-0.189225 0.0797355 -1.93374e-15)
(-0.323418 -0.0437439 -4.66423e-15)
(-0.281577 -0.047744 -8.65232e-16)
(-0.229619 -0.0546003 -3.12781e-16)
(-0.206461 -0.0581172 1.654e-15)
(-0.175761 -0.0750358 8.05479e-16)
(-0.118363 -0.0735398 -4.15933e-16)
(-0.0689374 -0.0701061 -7.46197e-16)
(-0.0221697 -0.068968 5.53231e-16)
(0.0309822 -0.0635751 -3.16795e-16)
(0.0869716 -0.0543468 -7.52844e-16)
(0.151685 -0.0425014 5.80127e-16)
(0.211624 -0.0415591 5.40743e-16)
(0.259501 -0.0386117 -1.75532e-16)
(0.305013 -0.027824 -4.84916e-17)
(0.338013 -0.0224565 3.53232e-16)
(0.379738 -0.0226562 -1.46971e-16)
(0.409106 -0.0223997 9.46763e-17)
(0.449895 -0.017791 1.42279e-16)
(0.481325 0.00410557 -6.67362e-16)
(0.485659 0.0110025 -6.39977e-16)
(0.265536 0.0339678 -3.16093e-16)
(-0.0921548 0.0880515 -1.98291e-16)
(-0.573626 0.161142 -7.66749e-16)
(-1.08783 0.235427 2.67583e-16)
(-1.69758 0.32587 8.83009e-16)
(-2.30274 0.463027 1.84229e-15)
(-2.84107 0.720228 2.42777e-15)
(-2.77058 0.820649 -1.10627e-16)
(-2.768 0.464198 1.2766e-15)
(-2.85253 0.224085 8.02033e-16)
(-2.00222 0.368903 6.62266e-16)
(-1.93949 0.359424 3.73918e-16)
(-2.72533 0.476859 -5.04086e-16)
(-1.96613 0.111293 -2.40416e-15)
(-6.46272 -0.222858 -1.32194e-15)
(-3.96891 13.7096 6.73043e-16)
(-10.5416 2.3558 2.20356e-15)
(-11.9049 -16.9249 4.59688e-15)
(-5.90925 -9.64566 -7.71399e-16)
(-1.50639 -0.0678944 -2.40775e-16)
(-0.167518 0.166508 3.65979e-19)
(-0.403395 0.0558198 1.36475e-15)
(-0.466703 -0.0653695 7.18303e-16)
(-0.349643 -0.028667 -1.43521e-16)
(-0.291028 0.013149 -5.9891e-16)
(-0.239066 0.000171672 1.30026e-15)
(-0.149501 -0.0129817 9.2213e-16)
(-0.0732645 -0.0144828 1.00136e-15)
(-0.00326013 -0.0282013 -4.30487e-17)
(0.0741232 -0.0380818 -1.4078e-16)
(0.156623 -0.045642 3.07211e-16)
(0.249851 -0.0507304 2.62692e-16)
(0.354758 -0.0576654 2.67269e-16)
(0.468404 -0.0688362 -4.3875e-18)
(0.58422 -0.0792537 -5.49751e-17)
(0.694344 -0.0790644 -6.20916e-17)
(0.810098 -0.073117 2.451e-16)
(0.892365 -0.0600353 4.75094e-17)
(1.01127 -0.041129 3.15554e-16)
(0.953787 -0.000472981 -3.60252e-16)
(0.567835 0.0833786 -6.45886e-16)
(-0.0800151 0.17826 2.46014e-16)
(-0.959727 0.282815 2.85308e-16)
(-1.98412 0.418304 -5.30885e-16)
(-3.05448 0.566965 -8.31032e-16)
(-4.00118 0.712277 -5.91439e-16)
(-4.68667 0.820266 -1.46406e-15)
(-5.2262 0.906677 9.10861e-17)
(-6.11188 1.04211 1.01519e-15)
(-6.74023 1.09744 -5.71713e-16)
(-6.54457 1.12496 9.5484e-17)
(-6.38275 1.14476 -6.16562e-17)
(-6.89091 1.21631 9.66201e-16)
(-6.58104 0.966586 -6.42136e-16)
(-5.47832 0.714809 -1.76746e-16)
(-12.1599 0.456058 1.09654e-16)
(-1.66426 1.62383 9.84888e-17)
(-2.96906 11.0312 -9.57327e-16)
(-6.81752 4.2182 -5.42206e-15)
(-11.7507 -16.7783 2.08206e-15)
(-8.85885 -11.169 8.31417e-16)
(-2.14868 -1.15659 1.31913e-16)
(-0.333835 0.242149 1.25756e-15)
(-0.507212 -0.055538 3.37412e-16)
(-0.457257 -0.133296 -3.46886e-16)
(-0.371686 -0.0513276 -7.24103e-17)
(-0.291214 -0.0225705 -1.00631e-15)
(-0.176951 -0.0296499 4.12026e-16)
(-0.0808778 -0.0189486 1.47998e-17)
(0.00425706 -0.0314773 2.66368e-16)
(0.096988 -0.0439244 5.66939e-16)
(0.196773 -0.0565852 -1.50251e-17)
(0.311264 -0.0724217 -2.35715e-16)
(0.441375 -0.0860033 -5.57477e-17)
(0.57742 -0.0994248 1.06145e-17)
(0.713902 -0.115221 7.12195e-17)
(0.845557 -0.12129 1.37082e-16)
(0.970193 -0.113258 -1.04231e-16)
(1.04284 -0.0825096 1.27821e-16)
(1.03806 -0.0304737 -1.19339e-16)
(0.750969 0.0568971 6.27585e-17)
(0.132711 0.181257 2.84768e-16)
(-0.738953 0.315842 -1.10432e-16)
(-1.80202 0.46631 -1.03249e-16)
(-2.93182 0.631972 1.4458e-16)
(-4.01907 0.797886 4.54e-16)
(-5.00051 0.955952 -2.87945e-16)
(-5.86026 1.08632 -3.13054e-16)
(-6.86035 1.23987 -1.00073e-16)
(-7.90049 1.39608 1.16564e-16)
(-8.81059 1.54565 -4.76295e-16)
(-9.34272 1.66768 -1.34254e-15)
(-9.48215 1.75066 1.44517e-17)
(-10.1833 1.65436 4.73159e-16)
(-9.95149 1.29001 1.04714e-16)
(-9.28394 1.06084 8.45194e-16)
(-16.8565 1.05599 1.20918e-16)
(-2.47072 2.59016 -2.75023e-16)
(-2.5125 4.2121 6.27166e-17)
(-0.89873 10.5863 1.26531e-15)
(-4.3607 2.34263 -5.77736e-16)
(-11.4831 -13.2653 -1.23573e-15)
(-10.005 -11.3198 2.0719e-15)
(-3.5296 -2.84602 9.87814e-16)
(-0.419185 0.445906 3.09372e-16)
(-0.477283 -0.0868499 -2.0806e-16)
(-0.414327 -0.0740854 3.74985e-16)
(-0.387642 -0.0959502 6.1507e-16)
(-0.25624 -0.0809932 -6.90727e-16)
(-0.127943 -0.0486412 5.70351e-16)
(-0.0297872 -0.0530476 2.85066e-16)
(0.0744945 -0.0681904 8.11466e-17)
(0.182355 -0.0833485 -2.80485e-16)
(0.303779 -0.108254 -2.61163e-16)
(0.442921 -0.130065 -1.86101e-16)
(0.586382 -0.146889 3.10804e-17)
(0.723759 -0.159433 -4.61841e-17)
(0.840271 -0.156628 1.92492e-17)
(0.933172 -0.128036 -4.75166e-17)
(0.956844 -0.063721 -1.39188e-16)
(0.81884 0.0466655 8.7745e-18)
(0.383457 0.206832 -4.71104e-16)
(-0.340003 0.392088 -1.81347e-16)
(-1.298 0.583379 3.44208e-16)
(-2.39947 0.770219 5.51327e-17)
(-3.54229 0.941662 4.46215e-16)
(-4.69432 1.10217 -2.25015e-16)
(-5.81473 1.26709 4.31802e-16)
(-6.839 1.41325 -4.37533e-16)
(-8.01829 1.58612 -3.8146e-16)
(-9.27171 1.75307 3.90995e-16)
(-10.4162 1.91569 -1.20052e-16)
(-11.2214 2.06885 -9.03326e-17)
(-11.6224 2.15592 -5.25864e-16)
(-12.4851 1.8692 4.60401e-16)
(-12.4141 1.48906 -2.2225e-16)
(-12.4502 1.46499 -1.05735e-16)
(-19.9756 1.2837 7.94234e-16)
(-2.08771 2.86048 1.98446e-16)
(-2.49829 2.28806 -9.95588e-17)
(-2.0765 5.49484 1.52829e-17)
(-0.62129 10.257 5.06571e-16)
(-3.56263 3.14402 1.47238e-16)
(-9.9616 -9.44039 -3.53868e-16)
(-10.6097 -10.9597 -5.06889e-16)
(-4.98873 -4.37831 -1.1253e-15)
(-0.801064 0.086612 2.02276e-16)
(-0.429526 -0.00240556 -7.71733e-17)
(-0.411297 -0.0881451 3.4875e-16)
(-0.352428 -0.146617 1.54763e-16)
(-0.222572 -0.105881 -2.76883e-16)
(-0.106745 -0.0866399 -4.99024e-16)
(0.0107881 -0.102801 1.77741e-16)
(0.125133 -0.116678 -1.71629e-17)
(0.246829 -0.151242 -1.01034e-16)
(0.387101 -0.181284 -1.86464e-16)
(0.530074 -0.202315 -3.81025e-17)
(0.660486 -0.20768 3.04872e-17)
(0.748904 -0.186028 1.0789e-16)
(0.779981 -0.129139 -1.67809e-16)
(0.726692 -0.0223535 -5.12318e-17)
(0.48348 0.153725 2.49122e-16)
(-0.0157278 0.373879 1.65735e-16)
(-0.774063 0.623003 -3.12514e-16)
(-1.70418 0.854944 1.47527e-16)
(-2.74435 1.04557 2.04378e-16)
(-3.87866 1.21718 -1.92825e-16)
(-5.08424 1.38921 1.75367e-16)
(-6.28779 1.56226 -7.15626e-17)
(-7.3981 1.7122 6.40955e-16)
(-8.66314 1.88874 1.30702e-16)
(-10.0617 2.05465 -4.07082e-17)
(-11.3682 2.20485 1.30229e-16)
(-12.3601 2.3681 2.77602e-16)
(-12.9911 2.43606 -1.19015e-16)
(-14.0451 2.02142 1.98086e-16)
(-14.2224 1.8925 6.22568e-17)
(-15.2113 1.73463 -2.40624e-16)
(-21.4244 1.55515 -2.20309e-16)
(-2.0313 2.44782 2.07636e-17)
(-1.7439 2.38172 -1.04112e-16)
(-1.70561 2.25617 -2.24761e-16)
(-1.30942 5.49847 2.68293e-16)
(-0.0959596 8.99249 -6.57305e-16)
(-2.29397 4.49006 1.01002e-16)
(-7.81275 -5.72344 -4.27836e-16)
(-10.2578 -10.0635 -6.48098e-16)
(-6.2576 -5.63897 1.34975e-16)
(-1.74959 -0.937958 -2.12073e-16)
(-0.268628 0.246903 -3.74406e-17)
(-0.381124 -0.0982296 5.43805e-18)
(-0.295415 -0.121913 8.04426e-18)
(-0.214945 -0.146143 -2.4824e-16)
(-0.0898831 -0.147567 1.24333e-17)
(0.0330795 -0.152071 -1.37436e-16)
(0.150433 -0.194686 -1.23493e-16)
(0.286048 -0.232028 -4.47478e-17)
(0.417909 -0.259145 -3.80976e-17)
(0.534145 -0.253477 5.95546e-17)
(0.591041 -0.205409 2.48908e-17)
(0.564492 -0.117615 2.08701e-17)
(0.447903 0.0297154 -1.82625e-17)
(0.148808 0.259479 -7.98775e-17)
(-0.379671 0.545528 1.05888e-16)
(-1.079 0.841576 4.11495e-16)
(-1.91239 1.09103 -2.66489e-16)
(-2.89515 1.29577 -3.05168e-16)
(-4.02701 1.48944 -1.68634e-16)
(-5.25923 1.67859 9.65641e-17)
(-6.50677 1.85708 3.223e-16)
(-7.66865 2.00445 -1.04761e-16)
(-8.94813 2.16982 -1.88601e-16)
(-10.4395 2.32846 -3.22256e-16)
(-11.8521 2.45738 -1.24938e-16)
(-12.9818 2.6084 5.27063e-16)
(-13.8274 2.64064 2.58986e-16)
(-15.0387 2.21531 -2.0106e-17)
(-15.7631 2.1872 4.41571e-16)
(-16.9204 1.46381 -3.13774e-16)
(-21.6854 2.64092 -1.8607e-16)
(-1.68733 2.12964 7.24565e-17)
(-1.53488 2.15908 -3.93906e-17)
(-1.13622 1.86394 -4.57257e-17)
(-1.31276 2.32574 -1.57218e-16)
(-0.809729 4.80465 -2.31366e-16)
(0.252792 7.70458 2.11525e-16)
(-0.914243 5.44275 2.64912e-16)
(-5.48424 -2.43985 -9.12725e-17)
(-9.00043 -8.10612 6.31218e-16)
(-7.23776 -6.44853 -3.45179e-16)
(-3.1179 -2.30951 1.98413e-16)
(-0.420189 0.132679 -3.87999e-17)
(-0.312483 -0.0321811 4.44094e-16)
(-0.269274 -0.126725 -4.94969e-16)
(-0.183564 -0.173949 9.07744e-17)
(-0.0885112 -0.201989 -1.15838e-16)
(0.0222401 -0.234499 1.59911e-17)
(0.150735 -0.276397 6.59349e-17)
(0.266804 -0.311219 1.30545e-17)
(0.36352 -0.295514 -1.80278e-16)
(0.388245 -0.216396 1.52843e-16)
(0.326566 -0.0905622 -1.10971e-16)
(0.170695 0.0964763 -9.21053e-17)
(-0.144471 0.373041 1.45176e-16)
(-0.61359 0.710583 -1.44849e-16)
(-1.21359 1.03029 -6.6694e-17)
(-1.96886 1.30427 -8.61312e-17)
(-2.91023 1.54643 -1.23393e-16)
(-4.02508 1.77252 -5.34512e-17)
(-5.25774 1.98175 1.63551e-16)
(-6.52564 2.16609 6.33446e-17)
(-7.72175 2.30818 1.47805e-16)
(-8.9674 2.44747 -1.9193e-16)
(-10.5164 2.59734 -3.51863e-16)
(-12.0064 2.70715 -1.87526e-16)
(-13.2516 2.83097 4.0282e-16)
(-14.2976 2.82001 2.70366e-17)
(-15.6037 2.45845 -1.60963e-17)
(-16.6783 2.51591 1.87325e-16)
(-18.1387 2.10043 2.48061e-16)
(-22.3347 3.08243 -2.1661e-16)
(-1.39963 1.84017 -2.90094e-17)
(-1.30198 1.87044 1.11886e-16)
(-0.970827 1.65773 8.95726e-18)
(-0.958596 1.86464 -9.71616e-17)
(-1.02868 2.22302 -1.5857e-18)
(-0.582163 3.88274 4.60048e-16)
(0.394971 6.31737 -3.17521e-16)
(0.0596496 5.80991 -5.80757e-16)
(-3.21954 0.5041 9.72604e-17)
(-7.10965 -5.47792 3.35154e-16)
(-7.68136 -6.70236 1.12756e-15)
(-4.61068 -3.70652 -1.31868e-15)
(-1.44424 -0.77253 5.60882e-16)
(-0.154203 0.167054 -9.72462e-17)
(-0.22475 -0.097943 -3.06152e-16)
(-0.15942 -0.181911 3.56616e-16)
(-0.0908259 -0.251577 3.43911e-17)
(-0.0171797 -0.314319 3.00151e-16)
(0.093002 -0.351537 -1.94531e-16)
(0.183239 -0.334392 -1.53368e-16)
(0.204539 -0.227317 2.21202e-16)
(0.13879 -0.0604354 -7.32476e-17)
(-0.0185837 0.166506 -1.33429e-16)
(-0.29426 0.477178 3.87028e-17)
(-0.686994 0.83317 7.58044e-17)
(-1.20944 1.18155 -6.15544e-17)
(-1.90471 1.49965 -1.19626e-16)
(-2.79948 1.7923 1.9177e-16)
(-3.87808 2.06107 2.18779e-16)
(-5.08972 2.2994 -8.98262e-17)
(-6.35805 2.49637 -1.96213e-16)
(-7.58714 2.63794 -6.99238e-17)
(-8.7649 2.7347 1.39699e-16)
(-10.3379 2.87705 1.02561e-16)
(-11.8966 2.97668 -3.06975e-17)
(-13.2552 3.06554 -1.1159e-16)
(-14.4791 3.01867 2.33246e-16)
(-15.8279 2.75045 -2.56917e-16)
(-17.1058 2.82607 6.01656e-17)
(-18.6961 2.65234 8.86378e-17)
(-22.0558 3.35218 1.851e-16)
(-1.13127 1.55526 -4.7005e-17)
(-1.06895 1.61637 1.8486e-17)
(-0.81969 1.40967 -4.91366e-17)
(-0.725547 1.50836 -2.57089e-16)
(-0.747835 1.74573 6.48498e-17)
(-0.778744 1.98167 -4.29967e-18)
(-0.459954 3.01034 -6.37187e-17)
(0.348681 4.92944 3.29265e-16)
(0.555332 5.56538 -1.81911e-16)
(-1.36525 2.62836 4.92781e-16)
(-4.93348 -2.58011 4.50308e-17)
(-7.13764 -5.7394 -2.11032e-16)
(-5.86917 -4.72573 4.77724e-17)
(-2.85544 -2.0466 -2.37527e-16)
(-0.621724 -0.21282 -3.23744e-16)
(-0.0702318 0.0609108 1.86488e-17)
(-0.143942 -0.165825 1.33137e-16)
(-0.0934627 -0.271998 2.36648e-16)
(-0.059026 -0.355945 -5.72019e-17)
(-0.00478651 -0.36961 -1.38306e-16)
(0.0544762 -0.251476 1.59288e-16)
(0.0333137 -0.0523287 3.51885e-18)
(-0.0920289 0.209528 -2.24398e-17)
(-0.307914 0.539653 8.21327e-17)
(-0.632458 0.913895 8.56188e-17)
(-1.08909 1.30087 1.29715e-16)
(-1.72254 1.67556 3.83465e-17)
(-2.55581 2.03043 8.6645e-18)
(-3.57803 2.3549 -5.55014e-17)
(-4.74789 2.63544 -1.19754e-17)
(-6.00009 2.85831 -1.1934e-16)
(-7.25385 3.0098 2.2408e-17)
(-8.41496 3.06875 -5.80821e-17)
(-9.89992 3.18584 -6.85109e-17)
(-11.5134 3.2827 3.76816e-17)
(-12.9898 3.33688 8.50748e-17)
(-14.3624 3.26675 3.50383e-17)
(-15.7211 3.06991 1.21481e-17)
(-17.0886 3.11026 -1.08487e-16)
(-18.6196 3.05102 1.58528e-16)
(-21.1028 3.47334 5.2314e-17)
(-0.896142 1.30067 1.72231e-16)
(-0.861192 1.3718 -5.48444e-17)
(-0.686237 1.23599 -1.89137e-16)
(-0.60812 1.23474 2.50023e-16)
(-0.577974 1.42674 1.59524e-16)
(-0.594055 1.61621 -5.76569e-17)
(-0.598684 1.74315 2.4171e-16)
(-0.394349 2.29839 -5.90524e-16)
(0.196719 3.65611 -1.14966e-16)
(0.686177 4.84016 1.10762e-15)
(-0.110923 3.86283 4.35747e-17)
(-2.75327 0.196996 -9.27573e-17)
(-5.66414 -3.74353 -5.17162e-16)
(-6.38795 -4.93553 3.52841e-16)
(-4.40364 -3.3258 -8.32871e-16)
(-1.78844 -1.1882 1.81615e-16)
(-0.277005 -0.0739512 -2.80951e-17)
(-0.0498864 -0.0506592 1.95097e-16)
(-0.122112 -0.252587 -9.1123e-17)
(-0.109478 -0.33701 -2.41656e-16)
(-0.0830146 -0.287121 1.53762e-16)
(-0.0503737 -0.0942641 -5.82022e-17)
(-0.0870058 0.209177 -7.03059e-17)
(-0.226981 0.566315 9.25497e-17)
(-0.479422 0.960419 9.14536e-17)
(-0.864737 1.38754 -6.40688e-17)
(-1.42225 1.823 4.93959e-17)
(-2.17441 2.24901 8.30989e-17)
(-3.1176 2.6449 1.3446e-17)
(-4.22134 2.98827 -5.39503e-17)
(-5.43303 3.26098 4.49555e-17)
(-6.68332 3.44068 5.8084e-17)
(-7.8836 3.50766 6.62423e-17)
(-9.16931 3.54843 4.5773e-17)
(-10.8005 3.64224 1.13976e-16)
(-12.3745 3.66885 -1.29762e-16)
(-13.8558 3.58063 5.41845e-17)
(-15.2078 3.39645 2.27836e-18)
(-16.5896 3.33954 3.72096e-17)
(-17.9461 3.23258 -1.32235e-17)
(-19.6506 3.32683 -1.8468e-17)
(-0.696481 1.07491 3.72281e-17)
(-0.677434 1.14953 1.31122e-16)
(-0.556988 1.05914 1.01508e-16)
(-0.501318 1.06869 -9.51608e-18)
(-0.455138 1.11607 -7.47341e-17)
(-0.450564 1.30504 -2.29417e-17)
(-0.461862 1.47191 9.64793e-17)
(-0.462264 1.54603 -1.19295e-16)
(-0.352046 1.79418 2.77622e-16)
(0.026151 2.63387 -3.95717e-16)
(0.558879 3.8417 -8.09249e-16)
(0.512747 4.1149 -2.03983e-16)
(-0.984002 2.23956 3.02683e-16)
(-3.67713 -1.20033 -3.6106e-16)
(-5.7555 -3.86939 -3.42457e-16)
(-5.53822 -4.0442 4.72824e-16)
(-3.4521 -2.4693 -9.09038e-17)
(-1.27402 -0.820389 5.14161e-16)
(-0.198884 -0.111596 3.9844e-17)
(-0.09195 -0.139981 -2.58116e-16)
(-0.165005 -0.245431 2.2687e-17)
(-0.150385 -0.14837 -2.4155e-17)
(-0.11174 0.128623 -6.4856e-18)
(-0.1391 0.509064 -7.67082e-17)
(-0.277284 0.938278 1.72569e-16)
(-0.555523 1.40566 -1.28877e-17)
(-0.999924 1.89825 -8.98354e-17)
(-1.63263 2.40124 2.81255e-17)
(-2.46038 2.88498 -2.48425e-17)
(-3.46531 3.31775 3.28615e-17)
(-4.6051 3.66671 -1.19929e-16)
(-5.82236 3.90304 2.74361e-17)
(-7.04433 4.00733 6.61541e-17)
(-8.21457 3.9946 1.17466e-16)
(-9.6727 4.06256 9.49921e-17)
(-11.2746 4.07719 -7.82177e-17)
(-12.7975 3.96624 -1.05996e-16)
(-14.1237 3.7206 -7.41458e-17)
(-15.4797 3.50793 -2.05604e-16)
(-16.6562 3.22012 -1.92251e-16)
(-17.8182 2.92138 -1.27857e-16)
(-0.529835 0.878972 7.99939e-17)
(-0.52034 0.952084 1.09885e-16)
(-0.437094 0.894463 -2.06198e-16)
(-0.402752 0.916192 -4.58929e-17)
(-0.365521 0.93625 1.6875e-16)
(-0.343241 1.01829 -8.16003e-17)
(-0.347033 1.18531 -1.65912e-17)
(-0.352894 1.32918 -4.1065e-18)
(-0.355549 1.38659 6.41796e-16)
(-0.311943 1.47135 -2.39287e-16)
(-0.10526 1.90255 -5.60139e-16)
(0.316799 2.81587 7.13829e-16)
(0.628224 3.64897 3.6946e-16)
(0.0982634 3.268 4.63724e-17)
(-1.73786 1.13069 1.05207e-16)
(-4.15332 -1.76821 -2.68098e-16)
(-5.5863 -3.58719 -8.5104e-17)
(-4.94882 -3.36361 1.77489e-16)
(-3.00184 -2.02219 3.88365e-16)
(-1.17047 -0.752256 -5.40445e-16)
(-0.305567 -0.17307 1.06707e-17)
(-0.194564 -0.0625166 -1.1825e-17)
(-0.228145 0.0295744 -7.01248e-17)
(-0.167867 0.354389 -2.16656e-17)
(-0.14503 0.783947 1.27354e-16)
(-0.249373 1.27712 6.97839e-17)
(-0.513108 1.8183 -9.71913e-17)
(-0.954683 2.39118 -6.76284e-17)
(-1.58775 2.9606 1.39641e-17)
(-2.40838 3.48707 -1.74609e-17)
(-3.39327 3.93311 3.72964e-17)
(-4.50334 4.26836 -3.33028e-17)
(-5.69068 4.47257 4.99769e-17)
(-6.87845 4.52263 -5.70996e-18)
(-8.10809 4.51542 -9.95785e-17)
(-9.54305 4.48803 -2.52339e-17)
(-11.0015 4.34591 1.5896e-17)
(-12.281 4.02638 6.95174e-17)
(-13.6032 3.65432 -1.69493e-17)
(-14.6577 3.1241 -4.95009e-17)
(-15.5591 2.41371 -2.30243e-17)
(-0.39424 0.71127 -7.80225e-17)
(-0.388881 0.779278 5.56869e-17)
(-0.331292 0.745106 -2.39225e-17)
(-0.309626 0.772722 -1.89265e-16)
(-0.286164 0.799971 2.15902e-17)
(-0.263724 0.829767 1.1271e-16)
(-0.256563 0.931433 -1.7935e-17)
(-0.259921 1.06876 -6.99451e-17)
(-0.262482 1.19252 -1.69242e-17)
(-0.26807 1.25678 -2.01768e-16)
(-0.262739 1.28284 2.68705e-16)
(-0.174139 1.44887 2.16519e-17)
(0.0891162 1.99469 -1.75569e-16)
(0.460716 2.84099 -2.14357e-16)
(0.524745 3.33911 2.52749e-16)
(-0.332838 2.59853 3.34039e-16)
(-2.18883 0.601751 -1.14287e-15)
(-4.31023 -1.78739 9.29051e-16)
(-5.37168 -3.15996 1.50975e-16)
(-4.69728 -2.92456 -4.04234e-16)
(-2.9904 -1.8522 2.65103e-16)
(-1.48889 -0.829649 -8.68139e-17)
(-0.651767 -0.115662 -6.47768e-17)
(-0.380545 0.299363 -1.84491e-17)
(-0.251056 0.631403 1.88908e-16)
(-0.161529 1.0453 3.94529e-18)
(-0.179317 1.53584 -2.22621e-17)
(-0.348561 2.1125 -1.491e-16)
(-0.695997 2.74435 8.8097e-17)
(-1.21896 3.36373 1.45074e-16)
(-1.90915 3.92289 8.00294e-18)
(-2.75579 4.38221 -6.32886e-17)
(-3.73466 4.70975 -2.41099e-17)
(-4.79594 4.86801 -3.37823e-18)
(-5.90154 4.87102 -1.01916e-16)
(-7.0534 4.80554 2.45285e-17)
(-8.30782 4.64588 6.85036e-18)
(-9.57379 4.29302 -4.6231e-17)
(-10.8345 3.78287 -2.45316e-18)
(-11.8145 3.02466 3.46929e-17)
(-12.7249 2.04558 5.74854e-17)
(-0.285696 0.569433 8.95984e-17)
(-0.28153 0.63033 -6.81897e-17)
(-0.241273 0.612242 -9.73071e-17)
(-0.226714 0.642444 -4.21486e-17)
(-0.211892 0.672632 2.69127e-16)
(-0.196039 0.69889 -9.75687e-17)
(-0.181789 0.741389 -9.98318e-17)
(-0.181294 0.845964 1.15061e-16)
(-0.183075 0.960263 6.87513e-17)
(-0.184079 1.069 -2.96702e-16)
(-0.190029 1.14485 -1.93811e-16)
(-0.199841 1.16512 -1.02568e-16)
(-0.179428 1.20991 -3.8283e-16)
(-0.05345 1.46126 2.69525e-16)
(0.220966 2.04803 1.04198e-15)
(0.506644 2.7928 -5.74186e-16)
(0.382597 3.08477 -1.46632e-16)
(-0.585919 2.2532 2.31396e-16)
(-2.31618 0.494102 -2.57806e-16)
(-4.23504 -1.47667 7.28576e-16)
(-5.20252 -2.63754 -1.47864e-16)
(-5.01916 -2.76169 -3.50868e-16)
(-3.80878 -2.05197 -5.02217e-16)
(-2.39199 -1.02633 2.52728e-16)
(-1.26992 0.0806404 2.76575e-16)
(-0.639959 0.996015 3.56024e-17)
(-0.282 1.6665 1.7438e-17)
(-0.0760933 2.25201 7.86182e-18)
(-0.0586909 2.80381 1.55176e-17)
(-0.238318 3.30457 8.16656e-17)
(-0.581727 3.7339 7.49109e-17)
(-1.04379 4.10771 -1.30311e-16)
(-1.61333 4.49696 1.41547e-17)
(-2.32297 4.81394 3.81478e-18)
(-3.13576 4.96903 -7.53834e-17)
(-4.0226 4.94575 1.1268e-17)
(-4.94342 4.78874 1.05323e-16)
(-5.82609 4.40319 -4.92029e-17)
(-6.89343 3.86395 -3.18686e-17)
(-7.95812 3.05525 -2.11565e-17)
(-9.04152 2.00897 1.02457e-17)
(-0.200695 0.45114 -2.54648e-17)
(-0.195962 0.503354 4.79664e-17)
(-0.167116 0.495638 3.39175e-17)
(-0.156211 0.525679 9.29682e-17)
(-0.145531 0.556178 -8.86866e-17)
(-0.134782 0.584545 6.30612e-17)
(-0.123484 0.61129 -6.13179e-17)
(-0.11496 0.673923 7.84562e-18)
(-0.11371 0.766265 1.00209e-16)
(-0.112517 0.862143 7.41326e-17)
(-0.110925 0.957978 -2.77538e-16)
(-0.113282 1.03623 5.69841e-16)
(-0.124231 1.07828 5.14582e-16)
(-0.132699 1.09529 -4.79924e-16)
(-0.0947387 1.18104 -3.42643e-16)
(0.0513612 1.48441 -2.58732e-16)
(0.31307 2.06593 6.14997e-16)
(0.533752 2.72045 -6.07148e-16)
(0.337601 2.94471 1.44041e-16)
(-0.589895 2.24394 2.94587e-16)
(-2.16373 0.739302 -1.96908e-16)
(-4.08048 -0.918389 -2.19577e-16)
(-5.33774 -2.089 9.49137e-17)
(-5.54324 -2.47628 1.36169e-16)
(-4.90039 -2.15771 -2.08726e-16)
(-3.6823 -1.22197 5.01828e-17)
(-2.26677 0.196794 1.82148e-16)
(-1.13845 1.70279 -3.33059e-16)
(-0.407076 2.89334 9.7637e-17)
(0.0651724 3.70151 9.85382e-17)
(0.314269 4.24247 -4.03607e-17)
(0.326727 4.60826 -1.18871e-16)
(0.137482 4.82967 5.72295e-17)
(-0.185537 4.88846 1.48167e-16)
(-0.585138 4.81653 -2.53838e-18)
(-1.02434 4.68645 8.8181e-18)
(-1.51242 4.57982 -4.2191e-17)
(-2.08141 4.27786 -3.42707e-17)
(-2.67836 3.85453 -7.14016e-17)
(-3.32804 3.15531 1.37798e-17)
(-4.17128 2.19003 5.45296e-17)
(-0.13574 0.353369 -4.28698e-17)
(-0.129929 0.397133 5.85508e-17)
(-0.108404 0.395316 -4.89079e-17)
(-0.0989282 0.422908 -1.89157e-16)
(-0.0898108 0.451571 6.2196e-17)
(-0.0810078 0.479235 2.40284e-17)
(-0.0718346 0.506816 -6.16782e-17)
(-0.0621719 0.540374 -7.20784e-17)
(-0.0548612 0.60925 -9.60711e-19)
(-0.0498739 0.689713 1.69366e-17)
(-0.0442777 0.771948 -2.10359e-16)
(-0.038307 0.852819 2.02867e-16)
(-0.034603 0.931268 -1.78801e-16)
(-0.038068 0.992854 -4.73582e-16)
(-0.0486673 1.0261 6.48959e-16)
(-0.0483 1.0581 2.7741e-16)
(0.00630223 1.17897 1.55396e-16)
(0.163712 1.50589 -6.32607e-18)
(0.412642 2.06394 -1.37442e-16)
(0.613466 2.65356 -1.17318e-16)
(0.460893 2.89129 -5.27543e-17)
(-0.338319 2.57237 1.46637e-16)
(-1.64776 1.64287 -2.88589e-16)
(-3.24863 0.348205 -9.70883e-18)
(-4.59612 -0.865167 9.40791e-17)
(-5.37964 -1.64376 -8.67746e-17)
(-5.41461 -1.80489 -2.68703e-16)
(-4.72385 -1.26062 3.43969e-16)
(-3.42874 -0.0145156 3.26034e-16)
(-1.95694 1.66592 -2.59467e-16)
(-0.752133 3.29581 -1.12797e-16)
(0.120873 4.51986 -3.68653e-17)
(0.7605 5.24564 -3.34837e-17)
(1.18415 5.53259 1.79982e-16)
(1.39737 5.53939 -6.76725e-17)
(1.4214 5.35423 -3.85716e-17)
(1.3041 5.009 5.16821e-17)
(1.0638 4.4526 -1.85305e-19)
(0.790929 3.82169 7.00571e-17)
(0.487056 3.07378 5.44833e-17)
(0.130765 2.37337 2.32879e-18)
(-0.0864542 0.271717 3.03017e-18)
(-0.0800246 0.308292 6.73085e-17)
(-0.0633873 0.309856 2.96578e-17)
(-0.0543623 0.334043 -2.73751e-17)
(-0.0455302 0.359523 -9.73529e-17)
(-0.0369354 0.38475 1.90924e-17)
(-0.0281707 0.410683 -1.97828e-17)
(-0.0189598 0.437462 -2.22558e-17)
(-0.00781788 0.477575 4.90076e-17)
(0.0021261 0.544161 -5.93027e-17)
(0.0124157 0.613623 -1.34508e-16)
(0.0234923 0.681919 1.22497e-16)
(0.0354983 0.752318 -2.01112e-16)
(0.0471547 0.82492 -1.49881e-16)
(0.0556147 0.894463 2.456e-16)
(0.057727 0.949109 1.69702e-16)
(0.0567738 0.985312 2.53389e-16)
(0.073936 1.03554 -4.39992e-16)
(0.14847 1.17635 -2.35026e-16)
(0.321909 1.49644 7.6425e-16)
(0.578153 2.00152 -3.92455e-16)
(0.827218 2.68207 -8.25218e-17)
(0.820432 3.10949 7.57642e-17)
(0.44661 3.16146 -2.4692e-16)
(-0.348922 2.75702 4.10297e-16)
(-1.47052 1.94103 -2.73539e-16)
(-2.69361 0.899779 -3.19226e-16)
(-3.71701 -0.0826657 1.92882e-16)
(-4.2975 -0.718615 1.29914e-16)
(-4.29729 -0.800873 4.47114e-16)
(-3.65261 -0.245075 -2.75981e-16)
(-2.48477 0.858914 -2.13877e-16)
(-1.1318 2.23778 1.39185e-16)
(0.099287 3.54678 5.73788e-18)
(1.12565 4.55635 -4.57696e-17)
(1.96659 5.1389 4.8391e-17)
(2.63688 5.28644 -5.43333e-18)
(3.08319 5.00532 3.32397e-17)
(3.39737 4.51037 -3.24992e-17)
(3.5377 3.80497 4.38018e-18)
(3.56746 2.99325 -1.35599e-17)
(-0.055419 0.21967 -2.79841e-17)
(-0.0475577 0.247452 2.23894e-17)
(-0.0337568 0.249992 -3.36597e-18)
(-0.0243572 0.269178 7.39786e-18)
(-0.0149831 0.289506 1.10939e-16)
(-0.0056949 0.309909 6.32415e-17)
(0.00382683 0.331224 -8.9853e-19)
(0.0138518 0.35388 -7.77801e-17)
(0.0246228 0.378756 8.04722e-17)
(0.0392927 0.426309 -1.25065e-16)
(0.0544616 0.484104 -5.41103e-18)
(0.0705543 0.542172 2.7766e-16)
(0.0882061 0.601553 -2.07807e-16)
(0.107426 0.662804 8.70008e-17)
(0.128146 0.727346 -5.0918e-17)
(0.149357 0.794663 -5.54827e-16)
(0.168602 0.858726 9.86077e-16)
(0.184348 0.910077 2.90154e-16)
(0.202746 0.949843 -8.38859e-16)
(0.245037 1.00804 7.46924e-16)
(0.351627 1.15193 -6.86133e-17)
(0.586519 1.52064 -5.9768e-16)
(0.895882 2.0117 1.03759e-16)
(1.2272 2.58778 2.56774e-16)
(1.48114 3.12155 -4.51191e-16)
(1.54679 3.47372 1.33523e-17)
(1.33604 3.51961 9.11533e-17)
(0.82356 3.18564 2.62416e-17)
(0.0733972 2.49911 -3.1162e-16)
(-0.75548 1.60739 2.88919e-16)
(-1.4657 0.743165 3.94726e-16)
(-1.8939 0.132762 -7.18405e-17)
(-1.91607 -0.0720978 -1.6236e-16)
(-1.47647 0.1605 -2.52721e-16)
(-0.63549 0.746647 5.98828e-17)
(0.439355 1.5167 1.70861e-17)
(1.56427 2.27888 4.19847e-17)
(2.59117 2.85036 3.63891e-17)
(3.54244 3.18019 6.30304e-17)
(4.33035 3.17786 2.47229e-17)
(5.05642 2.89933 -2.85552e-17)
(-0.0344533 0.18004 -2.89047e-17)
(-0.0259723 0.200704 -5.02299e-17)
(-0.0141579 0.203133 -8.10137e-18)
(-0.00471101 0.217955 8.9928e-17)
(0.00487991 0.233706 5.82543e-17)
(0.0145632 0.249618 2.88073e-17)
(0.0246386 0.266477 3.53828e-18)
(0.0353467 0.284661 -4.65552e-17)
(0.0467252 0.304123 -5.36826e-17)
(0.0613608 0.331751 -3.55386e-17)
(0.080139 0.378836 2.71176e-16)
(0.0999441 0.426835 7.1067e-17)
(0.121724 0.476085 -4.58625e-16)
(0.145587 0.526419 1.27396e-16)
(0.171842 0.578219 1.47485e-16)
(0.200979 0.632506 -7.0202e-16)
(0.233348 0.690394 8.4053e-18)
(0.268188 0.750346 3.69417e-16)
(0.303878 0.80645 4.48912e-16)
(0.339817 0.850687 -2.76343e-16)
(0.383427 0.886997 1.25696e-16)
(0.487982 0.998467 2.67688e-16)
(0.642973 1.14958 -5.09054e-16)
(0.885044 1.39376 -1.92144e-16)
(1.21871 1.74276 5.96397e-17)
(1.62405 2.17649 1.76723e-16)
(2.05422 2.64036 -9.14451e-17)
(2.43934 3.04944 1.87431e-16)
(2.70257 3.30311 -1.15884e-16)
(2.78025 3.30776 -1.62912e-17)
(2.64797 3.0109 2.21329e-16)
(2.33885 2.4476 -1.75916e-16)
(1.94337 1.72405 -6.6519e-17)
(1.57488 0.982952 2.45141e-16)
(1.34629 0.370743 -2.74345e-16)
(1.3551 -0.0208753 1.67581e-16)
(1.60742 -0.192706 9.775e-17)
(2.11988 -0.156717 -1.84341e-16)
(2.86979 -0.0140805 5.50572e-17)
(3.71508 0.160212 7.5268e-17)
(4.68763 0.28972 3.39972e-18)
(-0.0198522 0.14763 -6.96983e-18)
(-0.0114617 0.162895 -2.54543e-17)
(-0.00123734 0.16478 -1.62103e-17)
(0.00785405 0.176068 5.6581e-17)
(0.0172319 0.18807 -6.73747e-18)
(0.0268409 0.200208 -2.77013e-17)
(0.0369884 0.213204 2.53865e-17)
(0.0478894 0.22735 3.70864e-18)
(0.0596285 0.242666 1.59764e-17)
(0.0727642 0.26002 -1.9343e-17)
(0.0926762 0.293276 4.17165e-17)
(0.114507 0.331279 -5.50115e-17)
(0.138498 0.370455 4.91605e-17)
(0.164911 0.410422 2.26156e-16)
(0.193987 0.451095 -2.8824e-16)
(0.226132 0.492465 -1.47039e-16)
(0.262064 0.534991 -7.89223e-17)
(0.302622 0.579444 5.96411e-17)
(0.348419 0.62618 2.25499e-16)
(0.399103 0.672856 -1.13333e-16)
(0.453237 0.714062 -3.1292e-16)
(0.544598 0.788481 2.56723e-16)
(0.637895 0.842513 2.7694e-16)
(0.76209 0.901897 -4.80432e-16)
(0.934714 0.983489 2.15146e-16)
(1.17389 1.10461 1.40667e-16)
(1.4922 1.2774 -2.45068e-16)
(1.88998 1.50148 4.78121e-16)
(2.35097 1.75861 -1.3117e-16)
(2.8416 2.01108 -3.99414e-16)
(3.31564 2.20536 9.6983e-18)
(3.72326 2.28041 4.43364e-16)
(4.02863 2.18654 -3.66815e-16)
(4.20418 1.89969 -1.28003e-16)
(4.28481 1.45344 2.68779e-16)
(4.26311 0.830955 3.06268e-17)
(4.28271 0.21472 -5.78861e-17)
(4.26184 -0.378366 -2.74793e-17)
(4.38962 -0.927224 2.46714e-17)
(4.61201 -1.37461 -1.54112e-18)
(5.01946 -1.7197 4.93324e-17)
(-0.00975904 0.120917 1.63676e-17)
(-0.00187575 0.132045 -2.7579e-17)
(0.0069688 0.133236 -5.55721e-18)
(0.0154253 0.141667 -1.37905e-17)
(0.0242603 0.150602 2.98444e-17)
(0.0334133 0.159601 -1.52718e-17)
(0.043191 0.169308 -1.97518e-18)
(0.0537963 0.17995 9.70277e-18)
(0.0653297 0.19153 -1.98598e-17)
(0.0780101 0.204227 -2.12298e-17)
(0.0954736 0.224017 3.27077e-18)
(0.117908 0.25309 -6.63758e-17)
(0.142294 0.282959 -4.53364e-17)
(0.16919 0.313158 1.0263e-16)
(0.198805 0.343522 8.02361e-17)
(0.231426 0.373798 5.51193e-18)
(0.267504 0.403806 -3.61039e-17)
(0.307681 0.433381 -6.16083e-17)
(0.35294 0.46272 1.34879e-16)
(0.404304 0.492018 1.7065e-16)
(0.462517 0.52084 1.09547e-17)
(0.559629 0.57741 -2.97431e-16)
(0.652768 0.618626 -3.32495e-17)
(0.756784 0.65007 1.98187e-16)
(0.873767 0.669397 2.79808e-16)
(1.01044 0.678127 -1.42659e-16)
(1.1767 0.681234 -3.58314e-16)
(1.38328 0.685808 -3.20403e-16)
(1.63917 0.698286 1.1974e-16)
(1.9491 0.722275 2.60555e-16)
(2.31091 0.755095 -3.90566e-17)
(2.71372 0.785777 9.51176e-17)
(3.13757 0.792727 -1.94304e-17)
(3.54847 0.749184 2.68382e-17)
(3.93793 0.627013 -2.03396e-16)
(4.28265 0.40831 1.26725e-16)
(4.56481 0.0631461 9.09107e-18)
(4.75178 -0.368301 6.71362e-17)
(4.93778 -0.902216 -9.65006e-17)
(5.04413 -1.49105 1.27181e-16)
(5.23396 -2.07271 -2.50592e-17)
(-0.00292882 0.0987917 3.81355e-17)
(0.0042392 0.106768 -1.90309e-17)
(0.011833 0.107278 3.84634e-17)
(0.0194948 0.113407 -3.95124e-17)
(0.0275489 0.119865 -6.0658e-17)
(0.0359795 0.126295 2.01109e-17)
(0.0450447 0.133269 -1.67043e-18)
(0.0549662 0.140948 4.08546e-17)
(0.0658222 0.149297 -9.23184e-17)
(0.0778516 0.158467 1.6558e-17)
(0.092174 0.169406 1.53071e-16)
(0.113574 0.189981 -1.82311e-16)
(0.136947 0.211737 -3.4963e-17)
(0.162667 0.233405 2.07727e-16)
(0.190917 0.254703 1.49239e-16)
(0.221889 0.2753 8.43473e-17)
(0.255854 0.294876 -1.65268e-16)
(0.293173 0.312997 -4.13846e-16)
(0.334412 0.329231 2.60585e-16)
(0.380126 0.343064 -1.23477e-16)
(0.431435 0.354256 2.28589e-16)
(0.518645 0.382514 3.15426e-16)
(0.603909 0.402085 -5.27717e-16)
(0.69928 0.415919 1.63322e-18)
(0.802554 0.420484 2.88505e-16)
(0.912915 0.412177 -1.86686e-16)
(1.03081 0.387924 1.02197e-17)
(1.15737 0.345946 2.21437e-16)
(1.29521 0.285969 -3.94349e-16)
(1.44765 0.209447 -1.4036e-16)
(1.61842 0.118579 3.79658e-16)
(1.8102 0.0161296 2.63526e-16)
(2.02353 -0.0972785 -1.3524e-16)
(2.24853 -0.221916 -2.67283e-16)
(2.49071 -0.364374 1.287e-16)
(2.7363 -0.531879 4.92799e-17)
(2.97478 -0.736779 -1.44241e-16)
(3.16188 -0.976526 1.39975e-16)