/*--------------------------------*- C++ -*----------------------------------*\
| =========                 |                                                 |
| \\      /  F ield         | OpenFOAM: The Open Source CFD Toolbox           |
|  \\    /   O peration     | Version:  2312                                  |
|   \\  /    A nd           | Website:  www.openfoam.com                      |
|    \\/     M anipulation  |                                                 |
\*---------------------------------------------------------------------------*/
FoamFile
{
    version     2.0;
    format      ascii;
    arch        "LSB;label=32;scalar=64";
    class       volScalarField;
    location    "400";
    object      nut;
}
// * * * * * * * * * * * * * * * * * * * * * * * * * * * * * * * * * * * * * //

dimensions      [0 2 -1 0 0 0 0];

internalField   nonuniform List<scalar> 
11040
(
3.06278e-05
4.96174e-05
1.85887e-05
2.82834e-05
0.000158884
0.000167986
0.000159513
0.000151185
0.000138611
0.000131916
0.000123433
0.000115943
0.000108713
0.000101138
9.18883e-05
8.10443e-05
6.61631e-05
4.3893e-05
1.55065e-05
1.37267e-05
1.54072e-05
1.8221e-05
2.25952e-05
2.97709e-05
3.91375e-05
6.15861e-05
0.00010291
0.000133136
0.000158541
0.000180944
0.000202829
0.000219339
0.000233361
0.000253048
0.000257744
0.000195191
0.000207578
0.000227429
0.000258804
0.000297396
0.000363857
3.83388e-06
3.01389e-05
5.3007e-05
0.000105327
0.000518798
0.000606427
0.000531843
0.000501049
0.000433228
0.000405173
0.000370167
0.000344428
0.000323443
0.000307888
0.000291267
0.000277376
0.000263007
0.000251603
0.000245067
0.000246977
0.00025905
0.000278058
0.000303474
0.000339554
0.000374143
0.000398661
0.000414839
0.000433511
0.000456592
0.000492301
0.000561797
0.000635382
0.000714804
0.000800487
0.000890876
0.000979595
0.00108038
0.00119828
0.00134003
0.0014955
0.00204562
5.84699e-06
7.87026e-06
2.71859e-05
4.59453e-05
0.000333113
0.000836883
0.0011222
0.00112297
0.000979926
0.000923059
0.000843832
0.000785315
0.000735581
0.000701197
0.000663601
0.000631736
0.000597053
0.000566188
0.000542924
0.000542133
0.000567818
0.000612744
0.000661634
0.000706458
0.000734092
0.000752768
0.000781076
0.000847214
0.000987937
0.00114531
0.00131061
0.00148033
0.0016553
0.00183712
0.00202936
0.00223271
0.00245597
0.00271595
0.00304048
0.00343235
0.00455963
6.45159e-06
5.09788e-06
9.69361e-06
9.666e-06
9.98809e-05
0.000481224
0.00113145
0.00160664
0.00171307
0.00166596
0.00153191
0.00143132
0.00133813
0.00127284
0.00120003
0.00113891
0.00107098
0.00100772
0.000950387
0.000931314
0.000967938
0.00104882
0.00110819
0.00113962
0.00115871
0.00119996
0.00130826
0.00154167
0.00180998
0.0020928
0.00238524
0.00268308
0.00298789
0.00330225
0.00363189
0.00398294
0.00436651
0.00481236
0.00537517
0.00609161
0.00779395
6.13098e-06
5.8787e-06
6.19197e-06
5.86536e-06
3.37548e-06
0.000126007
0.000571941
0.00135356
0.00208323
0.00235259
0.00241112
0.00233589
0.00218216
0.00208204
0.00196366
0.00186059
0.00173842
0.0016243
0.00150458
0.0014349
0.00144992
0.00154037
0.00159193
0.00162091
0.00167231
0.00181383
0.00213648
0.00252865
0.00295708
0.0034065
0.00386713
0.00433204
0.00480218
0.00528202
0.00577924
0.00630615
0.00688036
0.00754899
0.00839411
0.00951318
0.0117766
6.08017e-06
6.1832e-06
5.8608e-06
6.65604e-06
2.44554e-06
4.772e-07
0.000116682
0.000589272
0.00147736
0.00247745
0.00304096
0.00326169
0.00330105
0.00321817
0.00301648
0.00286993
0.00268026
0.00249278
0.00227391
0.0021063
0.00201457
0.00206848
0.00212511
0.00220026
0.00237967
0.00277132
0.0032894
0.00387829
0.00451659
0.00518295
0.00585965
0.00653453
0.00720613
0.00788187
0.00857045
0.0092928
0.0100761
0.0109898
0.0121453
0.0137173
0.0165464
6.11227e-06
6.13077e-06
6.04518e-06
6.24277e-06
6.35808e-06
9.69402e-07
1.04278e-09
6.74079e-05
0.000528046
0.00146044
0.00270215
0.00370468
0.0041694
0.00439407
0.00443105
0.00430586
0.00399817
0.00372763
0.0033712
0.00307137
0.00281233
0.0027354
0.00280992
0.00305171
0.0034765
0.00409102
0.0048492
0.00569544
0.00660025
0.00753941
0.00848862
0.00942605
0.0103416
0.011239
0.0121314
0.0130517
0.0140393
0.0151924
0.0166565
0.0186834
0.0221043
6.11784e-06
6.11374e-06
6.13204e-06
6.04535e-06
6.43205e-06
6.63894e-06
1.84634e-07
1.44569e-12
1.50564e-05
0.000403029
0.00129312
0.00269108
0.00415706
0.00509305
0.0055627
0.00577985
0.00576964
0.0055095
0.00497217
0.00451843
0.00404273
0.00384958
0.00392516
0.00431514
0.0049747
0.00585243
0.00689963
0.00806575
0.00930327
0.0105837
0.0118721
0.0131323
0.0143419
0.0155027
0.0166234
0.0177212
0.0188701
0.02021
0.0219274
0.0243489
0.0283092
6.11696e-06
6.12038e-06
6.11268e-06
6.13778e-06
5.98767e-06
6.92755e-06
6.13623e-06
4.78835e-07
8.7635e-08
2.18659e-10
0.000232326
0.000993241
0.00240357
0.00423127
0.00583131
0.0067388
0.00721294
0.00735356
0.00716996
0.00666654
0.00593018
0.00556854
0.00556504
0.00605683
0.0069437
0.00812931
0.0095352
0.011095
0.0127503
0.0144551
0.0161632
0.017818
0.0193747
0.0208337
0.022204
0.0234811
0.0247137
0.0261175
0.0279467
0.0305745
0.0348437
6.11718e-06
6.11931e-06
6.11906e-06
6.12087e-06
6.11474e-06
6.01997e-06
7.08733e-06
5.72071e-06
1.15202e-06
6.89128e-09
1.04212e-05
9.20464e-05
0.000650663
0.00190246
0.00385895
0.00606588
0.00774653
0.00862803
0.00901322
0.00896251
0.0085792
0.00810287
0.00789306
0.00838527
0.00950692
0.0110805
0.0129584
0.015033
0.0172172
0.0194457
0.0216666
0.0237991
0.0257575
0.0275334
0.0291612
0.0306102
0.0318675
0.0331508
0.0348405
0.0373187
0.041358
6.11619e-06
6.11942e-06
6.12131e-06
6.11848e-06
6.13379e-06
6.0828e-06
6.1367e-06
6.81924e-06
6.52392e-06
2.04528e-06
9.82844e-12
2.05722e-07
4.11743e-11
0.000303847
0.00126219
0.00307703
0.00558566
0.00812814
0.00985302
0.0106479
0.010891
0.0108159
0.0108415
0.0113697
0.0126028
0.0144965
0.0168972
0.0196536
0.022627
0.0256816
0.0286747
0.0314549
0.0338993
0.0359973
0.0378712
0.0394845
0.0406822
0.0416997
0.0429512
0.04479
0.0479009
6.11502e-06
6.11836e-06
6.11949e-06
6.12115e-06
6.11993e-06
6.12922e-06
6.09354e-06
6.12597e-06
6.60889e-06
7.13858e-06
3.1481e-06
2.3836e-08
4.89629e-10
1.37558e-05
5.99655e-05
0.00064728
0.00206172
0.00445158
0.00748223
0.0103132
0.0120783
0.0128546
0.0133443
0.0140719
0.0154386
0.0175736
0.0204151
0.0238123
0.0275849
0.0315523
0.0355376
0.0393761
0.0429244
0.046067
0.0486685
0.0505466
0.0515989
0.0521804
0.0529312
0.0537132
0.0552398
6.11367e-06
6.11677e-06
6.11807e-06
6.11899e-06
6.12026e-06
6.1208e-06
6.12488e-06
6.10769e-06
6.09191e-06
6.48572e-06
7.06532e-06
4.88658e-06
4.07677e-07
3.37769e-09
4.02396e-08
3.03561e-17
0.000225601
0.00106946
0.00295103
0.00588313
0.00939073
0.0124782
0.0144514
0.0157927
0.0173986
0.0197021
0.0228258
0.0267023
0.031143
0.0359272
0.0408374
0.045673
0.0502557
0.0544397
0.0580876
0.0610682
0.0632953
0.0647409
0.0653385
0.06513
0.0650538
6.11209e-06
6.11494e-06
6.11608e-06
6.11699e-06
6.11799e-06
6.11916e-06
6.12004e-06
6.12488e-06
6.10827e-06
6.09121e-06
6.33028e-06
7.08884e-06
6.21834e-06
2.34166e-06
1.91667e-12
2.46869e-11
2.9479e-06
6.51335e-06
0.000401609
0.00151007
0.0038
0.00705936
0.0106824
0.0141447
0.0171386
0.0199687
0.0233177
0.0274959
0.0324097
0.0378409
0.0435456
0.0492837
0.0548311
0.0600129
0.0646757
0.0686868
0.0719592
0.0744699
0.0762112
0.077242
0.0777445
6.11034e-06
6.11292e-06
6.11394e-06
6.11474e-06
6.11563e-06
6.11668e-06
6.11776e-06
6.11921e-06
6.12257e-06
6.11387e-06
6.08917e-06
6.20939e-06
6.77612e-06
7.05246e-06
4.39845e-06
1.961e-07
2.53699e-09
1.57973e-09
1.13141e-05
2.90626e-07
0.000512274
0.00176639
0.00396786
0.0070322
0.0107221
0.0148871
0.0194946
0.0245192
0.0299985
0.0359834
0.0423731
0.048931
0.0553998
0.0615752
0.0672844
0.0723774
0.076749
0.0803634
0.0831946
0.0852611
0.0866452
6.10849e-06
6.11089e-06
6.11181e-06
6.11248e-06
6.11322e-06
6.11408e-06
6.11509e-06
6.1161e-06
6.11788e-06
6.11975e-06
6.11855e-06
6.09006e-06
6.1496e-06
6.39257e-06
7.27528e-06
6.00697e-06
2.96651e-06
9.07962e-10
2.1434e-10
4.86992e-11
3.16297e-05
4.96789e-05
0.000444705
0.00137574
0.00313629
0.00573538
0.00924456
0.0138055
0.0196235
0.0266453
0.0343565
0.0421785
0.0498086
0.0571375
0.0640528
0.0704034
0.0760617
0.0809843
0.0851258
0.0884686
0.0910466
6.10665e-06
6.10885e-06
6.10961e-06
6.11011e-06
6.11068e-06
6.11137e-06
6.11221e-06
6.11314e-06
6.11425e-06
6.11556e-06
6.11814e-06
6.11663e-06
6.10631e-06
6.08672e-06
6.27134e-06
6.70614e-06
7.21867e-06
5.04545e-06
1.26232e-06
2.06506e-11
6.43983e-11
1.05596e-08
7.24014e-06
0.000140011
0.000144319
0.000647905
0.0017079
0.00350906
0.00628706
0.0103487
0.0159957
0.0233519
0.0320901
0.0414397
0.0505818
0.0590095
0.0665522
0.0732525
0.0791234
0.084157
0.0883745
6.10475e-06
6.10659e-06
6.10711e-06
6.10744e-06
6.10788e-06
6.10848e-06
6.10924e-06
6.11014e-06
6.11112e-06
6.1123e-06
6.11358e-06
6.11566e-06
6.1165e-06
6.1119e-06
6.08564e-06
6.14006e-06
6.37758e-06
7.05503e-06
6.90793e-06
4.54883e-06
6.23107e-07
4.97035e-09
3.92886e-11
1.07892e-18
8.62483e-08
1.6247e-05
0.000132848
1.26828e-05
0.000373457
0.00121912
0.00281663
0.00553223
0.00970899
0.0155848
0.0231399
0.0319887
0.0414394
0.0508143
0.0595402
0.0672906
0.0739903
6.10276e-06
6.10417e-06
6.10449e-06
6.10472e-06
6.10513e-06
6.10572e-06
6.10647e-06
6.10736e-06
6.10834e-06
6.10942e-06
6.11065e-06
6.11212e-06
6.11345e-06
6.11682e-06
6.11242e-06
6.10319e-06
6.07782e-06
6.22309e-06
6.56958e-06
7.2032e-06
6.5404e-06
3.92038e-06
8.11018e-07
2.48265e-14
7.60042e-11
2.5761e-12
0
6.09173e-10
1.74057e-06
6.15044e-05
0.000201871
4.73614e-07
0.00041603
0.00153367
0.00363431
0.00698146
0.0117402
0.0179161
0.0252631
0.0333579
0.041716
6.10078e-06
6.10185e-06
6.10207e-06
6.10232e-06
6.10277e-06
6.10343e-06
6.10422e-06
6.10513e-06
6.10611e-06
6.10716e-06
6.10832e-06
6.10963e-06
6.11097e-06
6.11268e-06
6.11507e-06
6.11678e-06
6.10724e-06
6.08934e-06
6.09999e-06
6.29281e-06
6.76156e-06
7.18434e-06
6.66575e-06
4.21827e-06
1.73966e-06
7.40403e-08
1.32382e-09
3.75209e-11
3.41715e-12
0
0
1.15386e-11
1.76195e-06
7.79619e-05
0.0002511
5.56662e-05
0.000470729
0.00134946
0.00314329
0.00586218
0.00958641
6.09883e-06
6.09968e-06
6.09993e-06
6.1003e-06
6.10089e-06
6.10166e-06
6.10254e-06
6.1035e-06
6.10452e-06
6.10557e-06
6.10668e-06
6.10789e-06
6.10923e-06
6.11059e-06
6.11228e-06
6.1144e-06
6.11727e-06
6.11411e-06
6.10067e-06
6.07888e-06
6.13616e-06
6.34932e-06
6.77731e-06
7.12181e-06
6.98783e-06
5.59115e-06
3.18505e-06
1.31827e-06
1.35997e-07
1.79899e-09
3.85702e-11
1.2955e-11
7.65298e-13
0
0
2.43448e-09
1.85852e-06
4.9568e-05
0.000176804
0.000338492
0.000590224
6.09697e-06
6.09774e-06
6.09813e-06
6.09871e-06
6.09948e-06
6.1004e-06
6.10138e-06
6.10241e-06
6.10345e-06
6.10451e-06
6.10559e-06
6.10674e-06
6.10798e-06
6.10931e-06
6.11074e-06
6.11226e-06
6.11437e-06
6.11672e-06
6.11842e-06
6.11102e-06
6.09401e-06
6.08878e-06
6.14286e-06
6.32862e-06
6.62351e-06
7.06423e-06
7.20813e-06
6.86863e-06
5.71032e-06
3.85995e-06
1.8859e-06
7.14244e-07
4.72336e-08
9.1405e-10
2.9757e-11
1.07186e-11
2.88026e-12
1.44672e-14
0
0
0
6.09524e-06
6.09607e-06
6.09672e-06
6.09754e-06
6.09852e-06
6.09957e-06
6.10065e-06
6.10172e-06
6.10279e-06
6.10385e-06
6.10492e-06
6.10602e-06
6.10719e-06
6.10843e-06
6.10976e-06
6.11118e-06
6.1127e-06
6.11446e-06
6.11678e-06
6.11922e-06
6.11847e-06
6.11171e-06
6.09668e-06
6.09276e-06
6.11865e-06
6.23038e-06
6.45443e-06
6.74522e-06
7.08245e-06
7.31195e-06
7.13203e-06
6.56503e-06
5.42263e-06
3.84407e-06
2.23512e-06
9.12077e-07
2.74875e-07
1.48747e-09
1.69403e-10
1.96808e-11
1.05812e-11
6.09369e-06
6.09472e-06
6.09566e-06
6.09674e-06
6.0979e-06
6.09906e-06
6.1002e-06
6.10131e-06
6.10238e-06
6.10344e-06
6.10449e-06
6.10555e-06
6.10666e-06
6.10784e-06
6.10908e-06
6.11041e-06
6.11181e-06
6.11331e-06
6.11492e-06
6.11693e-06
6.11931e-06
6.12152e-06
6.12124e-06
6.11551e-06
6.1045e-06
6.09209e-06
6.09862e-06
6.14046e-06
6.24166e-06
6.41614e-06
6.65609e-06
6.90798e-06
7.18399e-06
7.35409e-06
7.29118e-06
6.86414e-06
6.23224e-06
5.15112e-06
3.82784e-06
2.50319e-06
1.51994e-06
6.09235e-06
6.09367e-06
6.09493e-06
6.09623e-06
6.09751e-06
6.09875e-06
6.09992e-06
6.10104e-06
6.10212e-06
6.10317e-06
6.1042e-06
6.10523e-06
6.10629e-06
6.1074e-06
6.10857e-06
6.10981e-06
6.11112e-06
6.11252e-06
6.11399e-06
6.11554e-06
6.1173e-06
6.11937e-06
6.12187e-06
6.124e-06
6.12463e-06
6.12149e-06
6.11361e-06
6.10328e-06
6.09539e-06
6.09732e-06
6.12303e-06
6.17838e-06
6.27468e-06
6.41591e-06
6.59763e-06
6.80627e-06
6.99955e-06
7.23393e-06
7.37777e-06
7.35321e-06
7.19496e-06
6.09126e-06
6.09292e-06
6.09445e-06
6.09591e-06
6.09727e-06
6.09854e-06
6.09972e-06
6.10084e-06
6.10191e-06
6.10295e-06
6.10396e-06
6.10497e-06
6.10599e-06
6.10705e-06
6.10816e-06
6.10933e-06
6.11056e-06
6.11186e-06
6.11324e-06
6.11468e-06
6.11622e-06
6.11783e-06
6.11959e-06
6.12162e-06
6.12389e-06
6.12617e-06
6.12763e-06
6.12739e-06
6.12466e-06
6.11892e-06
6.11093e-06
6.10327e-06
6.09862e-06
6.10085e-06
6.11528e-06
6.14874e-06
6.19895e-06
6.27634e-06
6.38153e-06
6.51315e-06
6.64402e-06
6.09042e-06
6.09241e-06
6.09414e-06
6.09569e-06
6.09709e-06
6.09836e-06
6.09954e-06
6.10066e-06
6.10172e-06
6.10274e-06
6.10375e-06
6.10474e-06
6.10573e-06
6.10675e-06
6.10782e-06
6.10893e-06
6.1101e-06
6.11132e-06
6.11261e-06
6.11396e-06
6.11539e-06
6.11688e-06
6.1184e-06
6.11998e-06
6.12166e-06
6.1235e-06
6.12554e-06
6.12767e-06
6.1297e-06
6.1313e-06
6.1319e-06
6.13113e-06
6.12876e-06
6.1247e-06
6.11917e-06
6.11317e-06
6.10812e-06
6.10475e-06
6.10485e-06
6.11265e-06
6.12414e-06
6.08982e-06
6.09207e-06
6.09393e-06
6.09551e-06
6.09691e-06
6.09818e-06
6.09936e-06
6.10046e-06
6.10152e-06
6.10254e-06
6.10353e-06
6.10451e-06
6.10548e-06
6.10648e-06
6.10751e-06
6.10857e-06
6.10969e-06
6.11085e-06
6.11207e-06
6.11334e-06
6.11468e-06
6.11608e-06
6.1175e-06
6.11896e-06
6.12044e-06
6.12195e-06
6.12353e-06
6.12519e-06
6.12696e-06
6.12886e-06
6.13086e-06
6.13286e-06
6.13474e-06
6.13635e-06
6.13748e-06
6.13789e-06
6.13757e-06
6.13632e-06
6.13418e-06
6.13118e-06
6.12845e-06
6.08942e-06
6.09183e-06
6.09373e-06
6.09531e-06
6.0967e-06
6.09797e-06
6.09914e-06
6.10024e-06
6.10129e-06
6.10231e-06
6.10329e-06
6.10427e-06
6.10523e-06
6.1062e-06
6.1072e-06
6.10824e-06
6.10931e-06
6.11043e-06
6.11159e-06
6.1128e-06
6.11407e-06
6.11539e-06
6.11673e-06
6.1181e-06
6.11949e-06
6.12092e-06
6.12236e-06
6.12383e-06
6.12533e-06
6.12688e-06
6.12848e-06
6.13015e-06
6.13191e-06
6.13375e-06
6.13567e-06
6.13762e-06
6.13958e-06
6.14148e-06
6.14329e-06
6.14489e-06
6.14635e-06
6.08915e-06
6.09162e-06
6.09352e-06
6.09508e-06
6.09646e-06
6.09772e-06
6.09888e-06
6.09998e-06
6.10103e-06
6.10204e-06
6.10303e-06
6.104e-06
6.10496e-06
6.10592e-06
6.1069e-06
6.10791e-06
6.10896e-06
6.11003e-06
6.11116e-06
6.11232e-06
6.11353e-06
6.11479e-06
6.11606e-06
6.11737e-06
6.11869e-06
6.12005e-06
6.12142e-06
6.12283e-06
6.12426e-06
6.12572e-06
6.1272e-06
6.12872e-06
6.13027e-06
6.13186e-06
6.1335e-06
6.1352e-06
6.13697e-06
6.13879e-06
6.14069e-06
6.14268e-06
6.14451e-06
6.08894e-06
6.0914e-06
6.09326e-06
6.09481e-06
6.09617e-06
6.09741e-06
6.09857e-06
6.09967e-06
6.10072e-06
6.10174e-06
6.10273e-06
6.1037e-06
6.10465e-06
6.10561e-06
6.10658e-06
6.10758e-06
6.1086e-06
6.10965e-06
6.11075e-06
6.11187e-06
6.11305e-06
6.11426e-06
6.11548e-06
6.11673e-06
6.11801e-06
6.11931e-06
6.12064e-06
6.12199e-06
6.12338e-06
6.12479e-06
6.12624e-06
6.12772e-06
6.12923e-06
6.13078e-06
6.13237e-06
6.134e-06
6.13567e-06
6.13739e-06
6.13916e-06
6.14101e-06
6.14273e-06
6.08873e-06
6.09113e-06
6.09295e-06
6.09447e-06
6.09582e-06
6.09705e-06
6.09821e-06
6.09931e-06
6.10036e-06
6.10138e-06
6.10238e-06
6.10336e-06
6.10432e-06
6.10527e-06
6.10624e-06
6.10723e-06
6.10824e-06
6.10927e-06
6.11034e-06
6.11144e-06
6.11258e-06
6.11376e-06
6.11495e-06
6.11617e-06
6.11741e-06
6.11867e-06
6.11996e-06
6.12128e-06
6.12264e-06
6.12402e-06
6.12544e-06
6.1269e-06
6.12839e-06
6.12992e-06
6.1315e-06
6.13311e-06
6.13478e-06
6.13649e-06
6.13825e-06
6.14007e-06
6.14179e-06
6.08848e-06
6.0908e-06
6.09258e-06
6.09407e-06
6.09539e-06
6.09662e-06
6.09778e-06
6.09888e-06
6.09995e-06
6.10098e-06
6.10199e-06
6.10297e-06
6.10394e-06
6.1049e-06
6.10587e-06
6.10685e-06
6.10786e-06
6.10888e-06
6.10994e-06
6.11102e-06
6.11214e-06
6.11329e-06
6.11446e-06
6.11564e-06
6.11686e-06
6.1181e-06
6.11936e-06
6.12066e-06
6.12199e-06
6.12335e-06
6.12475e-06
6.12619e-06
6.12766e-06
6.12918e-06
6.13074e-06
6.13235e-06
6.134e-06
6.13569e-06
6.13745e-06
6.13925e-06
6.14097e-06
6.08816e-06
6.09041e-06
6.09213e-06
6.09358e-06
6.09489e-06
6.09612e-06
6.09728e-06
6.0984e-06
6.09948e-06
6.10052e-06
6.10155e-06
6.10255e-06
6.10353e-06
6.10451e-06
6.10548e-06
6.10647e-06
6.10747e-06
6.10849e-06
6.10953e-06
6.1106e-06
6.11171e-06
6.11284e-06
6.11398e-06
6.11515e-06
6.11634e-06
6.11756e-06
6.11881e-06
6.12009e-06
6.1214e-06
6.12274e-06
6.12412e-06
6.12554e-06
6.127e-06
6.1285e-06
6.13004e-06
6.13163e-06
6.13326e-06
6.13493e-06
6.13666e-06
6.13842e-06
6.14011e-06
6.08777e-06
6.08993e-06
6.09159e-06
6.09301e-06
6.09431e-06
6.09554e-06
6.09671e-06
6.09785e-06
6.09895e-06
6.10002e-06
6.10106e-06
6.10208e-06
6.10309e-06
6.10408e-06
6.10506e-06
6.10605e-06
6.10706e-06
6.10808e-06
6.10912e-06
6.11019e-06
6.11128e-06
6.1124e-06
6.11353e-06
6.11468e-06
6.11586e-06
6.11706e-06
6.11829e-06
6.11955e-06
6.12084e-06
6.12216e-06
6.12352e-06
6.12492e-06
6.12635e-06
6.12783e-06
6.12934e-06
6.1309e-06
6.1325e-06
6.13413e-06
6.13582e-06
6.13753e-06
6.13918e-06
6.0873e-06
6.08935e-06
6.09095e-06
6.09235e-06
6.09364e-06
6.09488e-06
6.09607e-06
6.09723e-06
6.09835e-06
6.09945e-06
6.10052e-06
6.10156e-06
6.10259e-06
6.1036e-06
6.1046e-06
6.10561e-06
6.10662e-06
6.10765e-06
6.10869e-06
6.10975e-06
6.11084e-06
6.11195e-06
6.11307e-06
6.11421e-06
6.11537e-06
6.11656e-06
6.11777e-06
6.11901e-06
6.12028e-06
6.12158e-06
6.12292e-06
6.12429e-06
6.12569e-06
6.12713e-06
6.12861e-06
6.13012e-06
6.13167e-06
6.13325e-06
6.13488e-06
6.13652e-06
6.13812e-06
6.08671e-06
6.08866e-06
6.09021e-06
6.09158e-06
6.09288e-06
6.09412e-06
6.09533e-06
6.09652e-06
6.09767e-06
6.09879e-06
6.09989e-06
6.10097e-06
6.10202e-06
6.10306e-06
6.10408e-06
6.1051e-06
6.10613e-06
6.10716e-06
6.10821e-06
6.10928e-06
6.11036e-06
6.11147e-06
6.11258e-06
6.11371e-06
6.11486e-06
6.11603e-06
6.11722e-06
6.11844e-06
6.11968e-06
6.12096e-06
6.12226e-06
6.1236e-06
6.12496e-06
6.12636e-06
6.12779e-06
6.12925e-06
6.13074e-06
6.13226e-06
6.13382e-06
6.13537e-06
6.1369e-06
6.08602e-06
6.08785e-06
6.08935e-06
6.0907e-06
6.09199e-06
6.09325e-06
6.09448e-06
6.09569e-06
6.09687e-06
6.09802e-06
6.09915e-06
6.10026e-06
6.10134e-06
6.1024e-06
6.10345e-06
6.1045e-06
6.10554e-06
6.10659e-06
6.10765e-06
6.10872e-06
6.10981e-06
6.11091e-06
6.11202e-06
6.11314e-06
6.11427e-06
6.11543e-06
6.1166e-06
6.11779e-06
6.11901e-06
6.12025e-06
6.12152e-06
6.12281e-06
6.12413e-06
6.12547e-06
6.12684e-06
6.12823e-06
6.12965e-06
6.13108e-06
6.13256e-06
6.13401e-06
6.13544e-06
6.08519e-06
6.08692e-06
6.08836e-06
6.08969e-06
6.09098e-06
6.09224e-06
6.09348e-06
6.09471e-06
6.09591e-06
6.09709e-06
6.09825e-06
6.09938e-06
6.1005e-06
6.1016e-06
6.10267e-06
6.10374e-06
6.10481e-06
6.10588e-06
6.10695e-06
6.10803e-06
6.10912e-06
6.11022e-06
6.11132e-06
6.11244e-06
6.11356e-06
6.11469e-06
6.11584e-06
6.11701e-06
6.11819e-06
6.1194e-06
6.12062e-06
6.12186e-06
6.12313e-06
6.12441e-06
6.12571e-06
6.12703e-06
6.12837e-06
6.12971e-06
6.13109e-06
6.13244e-06
6.13378e-06
6.08421e-06
6.08583e-06
6.08722e-06
6.08852e-06
6.08979e-06
6.09105e-06
6.09229e-06
6.09352e-06
6.09473e-06
6.09594e-06
6.09712e-06
6.09829e-06
6.09944e-06
6.10057e-06
6.10168e-06
6.10278e-06
6.10388e-06
6.10496e-06
6.10605e-06
6.10714e-06
6.10824e-06
6.10935e-06
6.11045e-06
6.11155e-06
6.11266e-06
6.11377e-06
6.1149e-06
6.11604e-06
6.11718e-06
6.11834e-06
6.11951e-06
6.1207e-06
6.1219e-06
6.12311e-06
6.12433e-06
6.12556e-06
6.1268e-06
6.12804e-06
6.1293e-06
6.13053e-06
6.13174e-06
6.08308e-06
6.08459e-06
6.08591e-06
6.08717e-06
6.08841e-06
6.08963e-06
6.09085e-06
6.09208e-06
6.0933e-06
6.09452e-06
6.09573e-06
6.09693e-06
6.09812e-06
6.09928e-06
6.10043e-06
6.10156e-06
6.10268e-06
6.10379e-06
6.1049e-06
6.106e-06
6.10711e-06
6.10821e-06
6.10931e-06
6.1104e-06
6.11149e-06
6.11259e-06
6.11369e-06
6.11479e-06
6.1159e-06
6.11701e-06
6.11813e-06
6.11925e-06
6.12039e-06
6.12152e-06
6.12267e-06
6.12381e-06
6.12496e-06
6.12611e-06
6.12727e-06
6.12839e-06
6.1295e-06
6.08178e-06
6.08317e-06
6.08441e-06
6.0856e-06
6.08677e-06
6.08795e-06
6.08914e-06
6.09035e-06
6.09157e-06
6.0928e-06
6.09403e-06
6.09525e-06
6.09647e-06
6.09767e-06
6.09885e-06
6.10001e-06
6.10116e-06
6.1023e-06
6.10343e-06
6.10455e-06
6.10567e-06
6.10678e-06
6.10787e-06
6.10896e-06
6.11004e-06
6.11112e-06
6.11219e-06
6.11325e-06
6.11432e-06
6.11538e-06
6.11644e-06
6.11749e-06
6.11855e-06
6.1196e-06
6.12064e-06
6.12168e-06
6.12272e-06
6.12374e-06
6.12476e-06
6.12574e-06
6.12671e-06
6.08028e-06
6.08155e-06
6.08268e-06
6.08377e-06
6.08485e-06
6.08596e-06
6.0871e-06
6.08828e-06
6.08949e-06
6.09072e-06
6.09196e-06
6.0932e-06
6.09444e-06
6.09567e-06
6.09688e-06
6.09808e-06
6.09927e-06
6.10043e-06
6.10158e-06
6.10272e-06
6.10384e-06
6.10495e-06
6.10604e-06
6.10711e-06
6.10818e-06
6.10923e-06
6.11026e-06
6.11129e-06
6.11231e-06
6.11333e-06
6.11433e-06
6.11532e-06
6.11631e-06
6.11729e-06
6.11826e-06
6.11922e-06
6.12017e-06
6.12111e-06
6.12204e-06
6.12293e-06
6.12381e-06
6.07858e-06
6.07969e-06
6.08068e-06
6.08164e-06
6.08262e-06
6.08365e-06
6.08472e-06
6.08585e-06
6.08702e-06
6.08823e-06
6.08946e-06
6.0907e-06
6.09195e-06
6.09319e-06
6.09443e-06
6.09564e-06
6.09685e-06
6.09804e-06
6.09921e-06
6.10037e-06
6.10151e-06
6.10263e-06
6.10373e-06
6.10481e-06
6.10586e-06
6.1069e-06
6.10792e-06
6.10891e-06
6.10989e-06
6.11085e-06
6.11179e-06
6.11272e-06
6.11362e-06
6.11451e-06
6.11537e-06
6.11621e-06
6.11704e-06
6.11783e-06
6.11861e-06
6.11935e-06
6.12006e-06
6.07664e-06
6.07756e-06
6.07839e-06
6.0792e-06
6.08005e-06
6.08097e-06
6.08195e-06
6.083e-06
6.0841e-06
6.08525e-06
6.08644e-06
6.08765e-06
6.08888e-06
6.09011e-06
6.09135e-06
6.09259e-06
6.09381e-06
6.09502e-06
6.0962e-06
6.09736e-06
6.0985e-06
6.09962e-06
6.1007e-06
6.10176e-06
6.10279e-06
6.10379e-06
6.10477e-06
6.10573e-06
6.10667e-06
6.10758e-06
6.10847e-06
6.10934e-06
6.11019e-06
6.11101e-06
6.11182e-06
6.1126e-06
6.11336e-06
6.1141e-06
6.11481e-06
6.1155e-06
6.11615e-06
6.07443e-06
6.07513e-06
6.07576e-06
6.07641e-06
6.07712e-06
6.07789e-06
6.07874e-06
6.07965e-06
6.08063e-06
6.08167e-06
6.08276e-06
6.08389e-06
6.08505e-06
6.08623e-06
6.08741e-06
6.08859e-06
6.08977e-06
6.09096e-06
6.09213e-06
6.0933e-06
6.09445e-06
6.09558e-06
6.09668e-06
6.09775e-06
6.0988e-06
6.09981e-06
6.10079e-06
6.10173e-06
6.10264e-06
6.10352e-06
6.10436e-06
6.10517e-06
6.10594e-06
6.10668e-06
6.10739e-06
6.10805e-06
6.10869e-06
6.10928e-06
6.10984e-06
6.11036e-06
6.11084e-06
6.07192e-06
6.07237e-06
6.07278e-06
6.07323e-06
6.07374e-06
6.07431e-06
6.07495e-06
6.07565e-06
6.07642e-06
6.07726e-06
6.07815e-06
6.07912e-06
6.08014e-06
6.08124e-06
6.08239e-06
6.0836e-06
6.08481e-06
6.08602e-06
6.08722e-06
6.08838e-06
6.08952e-06
6.09062e-06
6.09169e-06
6.09271e-06
6.09371e-06
6.09466e-06
6.09558e-06
6.09646e-06
6.0973e-06
6.09811e-06
6.09888e-06
6.09962e-06
6.10032e-06
6.10099e-06
6.10162e-06
6.10222e-06
6.10279e-06
6.10333e-06
6.10382e-06
6.10429e-06
6.10473e-06
6.0691e-06
6.06925e-06
6.06941e-06
6.06959e-06
6.0698e-06
6.07005e-06
6.07034e-06
6.07067e-06
6.07104e-06
6.07146e-06
6.07193e-06
6.07244e-06
6.07301e-06
6.07363e-06
6.07428e-06
6.07504e-06
6.07575e-06
6.07643e-06
6.07709e-06
6.07776e-06
6.07841e-06
6.07907e-06
6.07973e-06
6.08038e-06
6.08103e-06
6.08165e-06
6.08227e-06
6.08286e-06
6.08342e-06
6.08396e-06
6.08446e-06
6.08494e-06
6.08538e-06
6.08578e-06
6.08614e-06
6.08647e-06
6.08674e-06
6.08697e-06
6.08715e-06
6.08731e-06
6.08743e-06
0.00559701
0.00964973
0.0122203
0.0148435
0.0181618
0.0214198
0.0235853
0.0241687
0.0230964
0.0204965
0.0165845
0.011566
0.00569546
0.00101728
7.33355e-05
4.33677e-11
1.16078e-06
6.70546e-06
6.66888e-06
6.22004e-06
6.17329e-06
6.1921e-06
6.20282e-06
6.21153e-06
6.22047e-06
6.22862e-06
6.23525e-06
6.24013e-06
6.24333e-06
6.24518e-06
6.2461e-06
6.24645e-06
6.24657e-06
6.24666e-06
6.24688e-06
6.24733e-06
6.24803e-06
6.24896e-06
6.25005e-06
6.25122e-06
6.25231e-06
6.25326e-06
6.25397e-06
6.25437e-06
6.25441e-06
6.25407e-06
6.25335e-06
6.25222e-06
6.25067e-06
6.24869e-06
6.24625e-06
6.24333e-06
6.23992e-06
6.236e-06
6.23158e-06
6.22666e-06
6.22129e-06
6.21551e-06
6.20941e-06
6.20306e-06
6.19654e-06
6.18991e-06
6.18328e-06
6.1767e-06
6.17027e-06
6.16407e-06
6.15826e-06
6.15299e-06
6.14843e-06
6.14428e-06
6.14018e-06
6.13587e-06
6.13209e-06
6.12444e-06
0.00892481
0.0139532
0.0167736
0.0192793
0.022399
0.0255333
0.0277119
0.0284133
0.0275157
0.0251012
0.0213463
0.0164626
0.0105345
0.0040162
0.000363964
1.67121e-06
7.12115e-09
4.29564e-06
7.39207e-06
6.50832e-06
6.1944e-06
6.19085e-06
6.20763e-06
6.21901e-06
6.22941e-06
6.23859e-06
6.24588e-06
6.25115e-06
6.25452e-06
6.25635e-06
6.25712e-06
6.25726e-06
6.25719e-06
6.25711e-06
6.2572e-06
6.25754e-06
6.25815e-06
6.25898e-06
6.25997e-06
6.261e-06
6.26191e-06
6.26263e-06
6.26307e-06
6.26315e-06
6.26283e-06
6.26208e-06
6.26092e-06
6.25933e-06
6.25728e-06
6.25477e-06
6.25179e-06
6.24831e-06
6.24432e-06
6.23981e-06
6.23479e-06
6.2293e-06
6.22336e-06
6.21705e-06
6.21045e-06
6.20363e-06
6.19669e-06
6.18968e-06
6.18274e-06
6.17594e-06
6.1694e-06
6.16322e-06
6.15757e-06
6.15256e-06
6.14831e-06
6.1444e-06
6.14047e-06
6.13634e-06
6.1327e-06
6.12538e-06
0.0122503
0.0184736
0.0217016
0.0241261
0.0270173
0.030021
0.0322563
0.0331632
0.0325527
0.0304432
0.0269543
0.0222675
0.0164895
0.00946914
0.00272151
6.24484e-05
7.33179e-08
6.03167e-14
4.57562e-06
7.10831e-06
6.39403e-06
6.21321e-06
6.21847e-06
6.22947e-06
6.23951e-06
6.24931e-06
6.25733e-06
6.26309e-06
6.26672e-06
6.26859e-06
6.26923e-06
6.26914e-06
6.26879e-06
6.26847e-06
6.26834e-06
6.2685e-06
6.26895e-06
6.26962e-06
6.27042e-06
6.27125e-06
6.27192e-06
6.27234e-06
6.27243e-06
6.27212e-06
6.27138e-06
6.27017e-06
6.26852e-06
6.26641e-06
6.26383e-06
6.26076e-06
6.25719e-06
6.25312e-06
6.24852e-06
6.2434e-06
6.23779e-06
6.2317e-06
6.2252e-06
6.21835e-06
6.21125e-06
6.20397e-06
6.19662e-06
6.18927e-06
6.18207e-06
6.17512e-06
6.16855e-06
6.16249e-06
6.15704e-06
6.1523e-06
6.14828e-06
6.14458e-06
6.14081e-06
6.13682e-06
6.13334e-06
6.12637e-06
0.0156998
0.0232316
0.0269979
0.029438
0.0321234
0.0349852
0.0372804
0.0384307
0.0381752
0.0364589
0.0333327
0.0289197
0.0233381
0.016461
0.00832251
0.00186694
1.2614e-05
2.83106e-11
4.8834e-10
4.54907e-06
6.59651e-06
6.24989e-06
6.21225e-06
6.24015e-06
6.2528e-06
6.26178e-06
6.26988e-06
6.27597e-06
6.27981e-06
6.28173e-06
6.28226e-06
6.28196e-06
6.28132e-06
6.28071e-06
6.2803e-06
6.2802e-06
6.28039e-06
6.2808e-06
6.28134e-06
6.28187e-06
6.28222e-06
6.28227e-06
6.28196e-06
6.28121e-06
6.27998e-06
6.27827e-06
6.27607e-06
6.2734e-06
6.27024e-06
6.26658e-06
6.26241e-06
6.25772e-06
6.2525e-06
6.24676e-06
6.24054e-06
6.23386e-06
6.22679e-06
6.21941e-06
6.21181e-06
6.2041e-06
6.19637e-06
6.18873e-06
6.18133e-06
6.17432e-06
6.16781e-06
6.16191e-06
6.15667e-06
6.15217e-06
6.14833e-06
6.14479e-06
6.14117e-06
6.13733e-06
6.13401e-06
6.12739e-06
0.0194851
0.0282562
0.0326117
0.0351918
0.0377445
0.0404713
0.0428112
0.0442074
0.0443408
0.0430831
0.0404131
0.0363824
0.0310733
0.0244687
0.0163007
0.00726737
0.00134226
0.000232401
6.52285e-12
4.70597e-08
5.03704e-06
6.51924e-06
6.19476e-06
6.20283e-06
6.2542e-06
6.27406e-06
6.28366e-06
6.29018e-06
6.29418e-06
6.29602e-06
6.29633e-06
6.2957e-06
6.29469e-06
6.29371e-06
6.29298e-06
6.29258e-06
6.29248e-06
6.29257e-06
6.29274e-06
6.29288e-06
6.29281e-06
6.29241e-06
6.29161e-06
6.29035e-06
6.28859e-06
6.28632e-06
6.28355e-06
6.28028e-06
6.27652e-06
6.27224e-06
6.26743e-06
6.26211e-06
6.25625e-06
6.24989e-06
6.24305e-06
6.23577e-06
6.22814e-06
6.22023e-06
6.21216e-06
6.20404e-06
6.19598e-06
6.18812e-06
6.18061e-06
6.1736e-06
6.16721e-06
6.16149e-06
6.15647e-06
6.15217e-06
6.14842e-06
6.14503e-06
6.14155e-06
6.13784e-06
6.13471e-06
6.12847e-06
0.0239935
0.0335648
0.0384619
0.0413077
0.0438386
0.0464673
0.0488373
0.0504597
0.0509875
0.050231
0.0481012
0.0445767
0.0396758
0.0334081
0.0256144
0.0160809
0.00639878
0.00096341
0.000170374
2.9226e-10
1.6566e-07
5.43419e-06
6.681e-06
6.25885e-06
6.22307e-06
6.27225e-06
6.29488e-06
6.30445e-06
6.30956e-06
6.31173e-06
6.31189e-06
6.31089e-06
6.30936e-06
6.3078e-06
6.30649e-06
6.30558e-06
6.30505e-06
6.30476e-06
6.30455e-06
6.30425e-06
6.30372e-06
6.30279e-06
6.30143e-06
6.29958e-06
6.29722e-06
6.29434e-06
6.29094e-06
6.28705e-06
6.28265e-06
6.27772e-06
6.27227e-06
6.26629e-06
6.25979e-06
6.25279e-06
6.24533e-06
6.23747e-06
6.22927e-06
6.22086e-06
6.21235e-06
6.20386e-06
6.19554e-06
6.18753e-06
6.17996e-06
6.17301e-06
6.16678e-06
6.16125e-06
6.15644e-06
6.15229e-06
6.14862e-06
6.14528e-06
6.14193e-06
6.13836e-06
6.13542e-06
6.1296e-06
0.0295178
0.0391285
0.044445
0.0476564
0.0502917
0.0528896
0.0552908
0.0571132
0.05802
0.0577836
0.0562599
0.0533615
0.0490353
0.0432492
0.0359227
0.0268026
0.0159093
0.00577599
0.000733141
0.000140034
8.33113e-10
1.62235e-07
5.35515e-06
6.86242e-06
6.35806e-06
6.25832e-06
6.29628e-06
6.31727e-06
6.32461e-06
6.32766e-06
6.32823e-06
6.32721e-06
6.32544e-06
6.32348e-06
6.32161e-06
6.31997e-06
6.31866e-06
6.31762e-06
6.31674e-06
6.31584e-06
6.31476e-06
6.31329e-06
6.31135e-06
6.3089e-06
6.3059e-06
6.30236e-06
6.29829e-06
6.29372e-06
6.28864e-06
6.28305e-06
6.27693e-06
6.27029e-06
6.26314e-06
6.2555e-06
6.24742e-06
6.23897e-06
6.23024e-06
6.22134e-06
6.21242e-06
6.20362e-06
6.1951e-06
6.187e-06
6.17945e-06
6.17261e-06
6.16654e-06
6.16121e-06
6.15657e-06
6.15253e-06
6.14892e-06
6.14559e-06
6.14232e-06
6.13887e-06
6.13615e-06
6.13078e-06
0.0358271
0.0448216
0.0504324
0.0540574
0.0569121
0.0595672
0.0620249
0.0640289
0.0652893
0.0655708
0.0646946
0.062522
0.0589352
0.0538347
0.0471235
0.0386414
0.0280893
0.0159052
0.00544642
0.000638599
0.000139052
6.79115e-10
5.23513e-08
4.78692e-06
7.05866e-06
6.50912e-06
6.30327e-06
6.32086e-06
6.34007e-06
6.3445e-06
6.34475e-06
6.34344e-06
6.34129e-06
6.33903e-06
6.33698e-06
6.33519e-06
6.33354e-06