/*--------------------------------*- C++ -*----------------------------------*\
| =========                 |                                                 |
| \\      /  F ield         | OpenFOAM: The Open Source CFD Toolbox           |
|  \\    /   O peration     | Version:  2312                                  |
|   \\  /    A nd           | Website:  www.openfoam.com                      |
|    \\/     M anipulation  |                                                 |
\*---------------------------------------------------------------------------*/
FoamFile
{
    version     2.0;
    format      ascii;
    arch        "LSB;label=32;scalar=64";
    class       volScalarField;
    location    "400";
    object      nuTilda;
}
// * * * * * * * * * * * * * * * * * * * * * * * * * * * * * * * * * * * * * //

dimensions      [0 2 -1 0 0 0 0];

internalField   nonuniform List<scalar> 
11040
(
6.70286e-05
8.19201e-05
5.61567e-05
6.50535e-05
0.000170381
0.000178549
0.000170942
0.000163553
0.000152578
0.000146831
0.000139653
0.000133417
0.00012749
0.00012138
0.000114055
0.000105645
9.43541e-05
7.75617e-05
5.29311e-05
5.09257e-05
5.28223e-05
5.57857e-05
6.00123e-05
6.63123e-05
7.38776e-05
9.09169e-05
0.0001228
0.000147872
0.000170075
0.000190336
0.000210601
0.000226128
0.000239445
0.000258303
0.000262825
0.000203483
0.000215049
0.000233798
0.000263847
0.000301288
0.000366502
3.52261e-05
6.66207e-05
8.44769e-05
0.000124746
0.000520117
0.000607396
0.0005331
0.000502463
0.00043511
0.000407319
0.000372726
0.000347369
0.000326761
0.000311533
0.000295315
0.000281812
0.000267902
0.000256913
0.000250638
0.00025247
0.000264084
0.000282474
0.000307219
0.000342576
0.000376649
0.000400876
0.000416888
0.000435391
0.00045829
0.000493765
0.000562924
0.000636265
0.000715502
0.000801044
0.000891326
0.000979967
0.00108069
0.00119853
0.00134023
0.00149566
0.00204571
3.95849e-05
4.30864e-05
6.4111e-05
7.91318e-05
0.000336249
0.000837394
0.00112249
0.00112325
0.000980299
0.000923479
0.000844334
0.000785894
0.000736241
0.000701923
0.000664411
0.000632629
0.000598052
0.000567298
0.00054413
0.000543342
0.000568922
0.000613693
0.000662449
0.000707172
0.000734754
0.000753399
0.000781661
0.000847712
0.000988303
0.00114559
0.00131082
0.00148049
0.00165543
0.00183722
0.00202945
0.00223279
0.00245603
0.002716
0.00304052
0.00343238
0.00455965
4.07004e-05
3.80968e-05
4.5802e-05
4.57632e-05
0.000120376
0.000482755
0.00113173
0.00160678
0.0017132
0.00166609
0.00153206
0.0014315
0.00133833
0.00127307
0.00120028
0.00113919
0.00107129
0.00100807
0.000950783
0.000931726
0.000968319
0.00104915
0.00110848
0.0011399
0.00115898
0.00120021
0.00130847
0.00154183
0.00181009
0.00209288
0.0023853
0.00268313
0.00298793
0.00330229
0.00363192
0.00398296
0.00436653
0.00481238
0.00537518
0.00609162
0.00779395
4.01174e-05
3.96452e-05
4.02298e-05
3.96199e-05
3.40306e-05
0.000141818
0.000573029
0.00135376
0.00208331
0.00235266
0.00241118
0.00233596
0.00218224
0.00208212
0.00196376
0.0018607
0.00173854
0.00162444
0.00150474
0.00143508
0.00145009
0.00154052
0.00159207
0.00162104
0.00167244
0.00181394
0.00213656
0.0025287
0.00295712
0.00340653
0.00386716
0.00433206
0.0048022
0.00528203
0.00577925
0.00630616
0.00688037
0.007549
0.00839411
0.00951318
0.0117766
4.00233e-05
4.02136e-05
3.96112e-05
4.10628e-05
3.12173e-05
2.04495e-05
0.000134028
0.000590297
0.00147752
0.00247751
0.00304099
0.00326172
0.00330108
0.0032182
0.00301652
0.00286997
0.00268031
0.00249284
0.00227398
0.00210638
0.00201466
0.00206856
0.00212519
0.00220033
0.00237973
0.00277137
0.00328944
0.00387831
0.00451661
0.00518296
0.00585966
0.00653454
0.00720614
0.00788188
0.00857046
0.0092928
0.0100761
0.0109898
0.0121453
0.0137173
0.0165464
4.00828e-05
4.0117e-05
3.99582e-05
4.03228e-05
4.05323e-05
2.4516e-05
4.3956e-06
9.52906e-05
0.00052932
0.00146061
0.0027022
0.00370471
0.00416942
0.00439409
0.00443107
0.00430588
0.00399819
0.00372766
0.00337124
0.00307141
0.00281237
0.00273545
0.00280997
0.00305175
0.00347653
0.00409104
0.00484922
0.00569545
0.00660026
0.00753942
0.00848863
0.00942605
0.0103416
0.011239
0.0121314
0.0130517
0.0140393
0.0151924
0.0166565
0.0186834
0.0221043
4.00931e-05
4.00856e-05
4.01194e-05
3.99585e-05
4.06654e-05
4.10328e-05
1.60796e-05
8.4813e-07
5.24353e-05
0.000405198
0.00129334
0.00269113
0.00415708
0.00509306
0.00556271
0.00577986
0.00576965
0.00550951
0.00497219
0.00451845
0.00404275
0.00384961
0.00392518
0.00431515
0.00497472
0.00585244
0.00689964
0.00806576
0.00930328
0.0105837
0.0118721
0.0131323
0.0143419
0.0155027
0.0166234
0.0177212
0.0188701
0.02021
0.0219274
0.0243489
0.0283092
4.00915e-05
4.00978e-05
4.00836e-05
4.013e-05
3.98507e-05
4.15337e-05
4.01271e-05
2.04673e-05
1.333e-05
2.97436e-06
0.000238459
0.000993603
0.00240363
0.00423129
0.00583132
0.00673881
0.00721295
0.00735357
0.00716996
0.00666655
0.00593019
0.00556855
0.00556505
0.00605684
0.00694371
0.00812932
0.00953521
0.011095
0.0127503
0.0144551
0.0161632
0.017818
0.0193747
0.0208337
0.022204
0.0234811
0.0247137
0.0261175
0.0279467
0.0305745
0.0348437
4.00919e-05
4.00958e-05
4.00954e-05
4.00987e-05
4.00874e-05
3.99111e-05
4.18055e-05
3.93429e-05
2.56331e-05
7.04896e-06
4.68027e-05
0.000114179
0.000651505
0.00190256
0.00385897
0.00606589
0.00774654
0.00862804
0.00901323
0.00896252
0.0085792
0.00810287
0.00789307
0.00838527
0.00950692
0.0110805
0.0129584
0.015033
0.0172172
0.0194457
0.0216666
0.0237991
0.0257575
0.0275334
0.0291612
0.0306102
0.0318675
0.0331508
0.0348405
0.0373187
0.041358
4.00901e-05
4.0096e-05
4.00996e-05
4.00943e-05
4.01226e-05
4.00282e-05
4.0128e-05
4.13472e-05
4.08294e-05
2.97755e-05
1.36951e-06
1.65243e-05
1.95931e-06
0.000307584
0.00126241
0.00307707
0.00558567
0.00812814
0.00985303
0.0106479
0.010891
0.0108159
0.0108415
0.0113697
0.0126028
0.0144965
0.0168972
0.0196536
0.022627
0.0256816
0.0286747
0.0314549
0.0338993
0.0359973
0.0378712
0.0394845
0.0406822
0.0416997
0.0429512
0.04479
0.0479009
4.00879e-05
4.00941e-05
4.00962e-05
4.00992e-05
4.0097e-05
4.01142e-05
4.00481e-05
4.01082e-05
4.09799e-05
4.18919e-05
3.33968e-05
9.6166e-06
3.63852e-06
5.09595e-05
8.97013e-05
0.000648131
0.00206181
0.0044516
0.00748223
0.0103132
0.0120783
0.0128546
0.0133443
0.0140719
0.0154386
0.0175736
0.0204151
0.0238123
0.0275849
0.0315523
0.0355376
0.0393761
0.0429244
0.046067
0.0486685
0.0505466
0.0515989
0.0521804
0.0529312
0.0537132
0.0552398
4.00854e-05
4.00911e-05
4.00935e-05
4.00953e-05
4.00976e-05
4.00986e-05
4.01062e-05
4.00743e-05
4.00451e-05
4.07614e-05
4.17683e-05
3.7652e-05
1.96471e-05
5.8974e-06
1.09649e-05
5.74124e-08
0.000232062
0.00106977
0.00295107
0.00588314
0.00939073
0.0124782
0.0144514
0.0157927
0.0173986
0.0197021
0.0228258
0.0267023
0.031143
0.0359272
0.0408374
0.045673
0.0502557
0.0544397
0.0580876
0.0610682
0.0632953
0.0647409
0.0653385
0.06513
0.0650538
4.00825e-05
4.00878e-05
4.00899e-05
4.00916e-05
4.00934e-05
4.00956e-05
4.00972e-05
4.01061e-05
4.00754e-05
4.00438e-05
4.0482e-05
4.18081e-05
4.02781e-05
3.08598e-05
9.10082e-07
1.7241e-06
3.28127e-05
4.08106e-05
0.000403792
0.00151023
0.00380002
0.00705937
0.0106824
0.0141447
0.0171386
0.0199687
0.0233177
0.0274959
0.0324097
0.0378409
0.0435456
0.0492837
0.0548311
0.0600129
0.0646757
0.0686868
0.0719592
0.0744699
0.0762112
0.077242
0.0777445
4.00792e-05
4.0084e-05
4.00859e-05
4.00874e-05
4.0089e-05
4.0091e-05
4.0093e-05
4.00957e-05
4.01019e-05
4.00858e-05
4.004e-05
4.02617e-05
4.12725e-05
4.17465e-05
3.65746e-05
1.63258e-05
5.49001e-06
4.87669e-06
4.79787e-05
1.80319e-05
0.000513627
0.00176651
0.00396788
0.0070322
0.0107221
0.0148871
0.0194946
0.0245192
0.0299985
0.0359834
0.0423731
0.048931
0.0553998
0.0615752
0.0672844
0.0723774
0.076749
0.0803634
0.0831946
0.0852611
0.0866452
4.00758e-05
4.00803e-05
4.0082e-05
4.00832e-05
4.00846e-05
4.00862e-05
4.00881e-05
4.00899e-05
4.00932e-05
4.00967e-05
4.00945e-05
4.00417e-05
4.01518e-05
4.05945e-05
4.21205e-05
3.98868e-05
3.28681e-05
4.24604e-06
2.95956e-06
2.04328e-06
6.78586e-05
8.19665e-05
0.000446493
0.00137593
0.00313633
0.00573539
0.00924457
0.0138055
0.0196235
0.0266453
0.0343565
0.0421785
0.0498086
0.0571375
0.0640528
0.0704034
0.0760617
0.0809843
0.0851258
0.0884686
0.0910466
4.00724e-05
4.00765e-05
4.00779e-05
4.00788e-05
4.00799e-05
4.00812e-05
4.00827e-05
4.00844e-05
4.00865e-05
4.00889e-05
4.00937e-05
4.00909e-05
4.00718e-05
4.00355e-05
4.03749e-05
4.11506e-05
4.20262e-05
3.79875e-05
2.62475e-05
1.64884e-06
2.19112e-06
7.84335e-06
4.2062e-05
0.000153788
0.000157532
0.000648754
0.00170802
0.00350909
0.00628707
0.0103487
0.0159957
0.0233519
0.0320901
0.0414397
0.0505818
0.0590095
0.0665522
0.0732525
0.0791234
0.084157
0.0883745
4.00689e-05
4.00723e-05
4.00733e-05
4.00739e-05
4.00747e-05
4.00758e-05
4.00772e-05
4.00789e-05
4.00807e-05
4.00829e-05
4.00853e-05
4.00891e-05
4.00907e-05
4.00821e-05
4.00335e-05
4.01342e-05
4.05675e-05
4.17509e-05
4.15001e-05
3.69145e-05
2.18887e-05
6.49566e-06
1.93648e-06
2.49282e-08
1.32767e-05
5.37317e-05
0.000147627
4.96873e-05
0.000375972
0.00121937
0.00281668
0.00553224
0.00970899
0.0155849
0.0231399
0.0319887
0.0414394
0.0508143
0.0595402
0.0672906
0.0739903
4.00652e-05
4.00678e-05
4.00684e-05
4.00688e-05
4.00696e-05
4.00707e-05
4.00721e-05
4.00737e-05
4.00755e-05
4.00776e-05
4.00798e-05
4.00825e-05
4.0085e-05
4.00912e-05
4.00831e-05
4.0066e-05
4.00189e-05
4.02868e-05
4.09104e-05
4.20003e-05
4.08587e-05
3.54408e-05
2.34168e-05
3.07024e-07
2.28379e-06
9.79907e-07
0
3.84278e-06
2.85397e-05
9.08556e-05
0.000209706
2.04103e-05
0.000418068
0.00153382
0.00363434
0.00698147
0.0117402
0.0179161
0.0252631
0.0333579
0.041716
4.00615e-05
4.00635e-05
4.00639e-05
4.00644e-05
4.00652e-05
4.00664e-05
4.00679e-05
4.00696e-05
4.00714e-05
4.00734e-05
4.00755e-05
4.00779e-05
4.00804e-05
4.00836e-05
4.0088e-05
4.00912e-05
4.00735e-05
4.00403e-05
4.00601e-05
4.0414e-05
4.12472e-05
4.19687e-05
4.10799e-05
3.61573e-05
2.85357e-05
1.27774e-05
4.66586e-06
1.91432e-06
1.05162e-06
0
0
1.42555e-06
2.86311e-05
0.000103286
0.00025643
8.64757e-05
0.000472328
0.00134966
0.00314333
0.00586219
0.00958642
4.00579e-05
4.00595e-05
4.006e-05
4.00606e-05
4.00617e-05
4.00632e-05
4.00648e-05
4.00666e-05
4.00685e-05
4.00704e-05
4.00725e-05
4.00747e-05
4.00772e-05
4.00797e-05
4.00828e-05
4.00868e-05
4.00921e-05
4.00862e-05
4.00613e-05
4.00209e-05
4.0127e-05
4.05164e-05
4.12746e-05
4.18637e-05
4.16367e-05
3.90911e-05
3.35019e-05
2.65445e-05
1.48875e-05
5.03778e-06
1.92756e-06
1.46742e-06
7.23438e-07
0
0
5.43368e-06
2.90347e-05
8.18827e-05
0.000186551
0.000341533
0.000591246
4.00545e-05
4.00559e-05
4.00566e-05
4.00577e-05
4.00591e-05
4.00608e-05
4.00627e-05
4.00646e-05
4.00665e-05
4.00685e-05
4.00705e-05
4.00726e-05
4.00749e-05
4.00773e-05
4.008e-05
4.00828e-05
4.00867e-05
4.00911e-05
4.00942e-05
4.00805e-05
4.0049e-05
4.00393e-05
4.01394e-05
4.0479e-05
4.10056e-05
4.17665e-05
4.20086e-05
4.14325e-05
3.93228e-05
3.52911e-05
2.91465e-05
2.26664e-05
1.14145e-05
4.25314e-06
1.80652e-06
1.39952e-06
1.00763e-06
2.6825e-07
0
0
0
4.00513e-05
4.00528e-05
4.0054e-05
4.00555e-05
4.00573e-05
4.00593e-05
4.00613e-05
4.00633e-05
4.00653e-05
4.00672e-05
4.00692e-05
4.00712e-05
4.00734e-05
4.00757e-05
4.00782e-05
4.00808e-05
4.00836e-05
4.00869e-05
4.00912e-05
4.00957e-05
4.00943e-05
4.00818e-05
4.00539e-05
4.00467e-05
4.00946e-05
4.03002e-05
4.07055e-05
4.12188e-05
4.17973e-05
4.21814e-05
4.18809e-05
4.09024e-05
3.87579e-05
3.52515e-05
3.04816e-05
2.41343e-05
1.77795e-05
4.80385e-06
2.79049e-06
1.62913e-06
1.39501e-06
4.00484e-05
4.00503e-05
4.00521e-05
4.00541e-05
4.00562e-05
4.00584e-05
4.00605e-05
4.00625e-05
4.00645e-05
4.00665e-05
4.00684e-05
4.00704e-05
4.00724e-05
4.00746e-05
4.00769e-05
4.00794e-05
4.0082e-05
4.00847e-05
4.00877e-05
4.00914e-05
4.00959e-05
4.00999e-05
4.00994e-05
4.00888e-05
4.00684e-05
4.00454e-05
4.00575e-05
4.01349e-05
4.03208e-05
4.06369e-05
4.10629e-05
4.15001e-05
4.19682e-05
4.22511e-05
4.21469e-05
4.14248e-05
4.03036e-05
3.8207e-05
3.5211e-05
3.14111e-05
2.75463e-05
4.00459e-05
4.00484e-05
4.00507e-05
4.00531e-05
4.00555e-05
4.00578e-05
4.006e-05
4.0062e-05
4.0064e-05
4.0066e-05
4.00679e-05
4.00698e-05
4.00717e-05
4.00738e-05
4.0076e-05
4.00783e-05
4.00807e-05
4.00833e-05
4.0086e-05
4.00889e-05
4.00921e-05
4.0096e-05
4.01006e-05
4.01045e-05
4.01057e-05
4.00999e-05
4.00853e-05
4.00662e-05
4.00516e-05
4.00551e-05
4.01027e-05
4.02048e-05
4.0381e-05
4.06364e-05
4.096e-05
4.13248e-05
4.16567e-05
4.20516e-05
4.22902e-05
4.22497e-05
4.19865e-05
4.00439e-05
4.0047e-05
4.00498e-05
4.00525e-05
4.0055e-05
4.00574e-05
4.00596e-05
4.00617e-05
4.00636e-05
4.00656e-05
4.00674e-05
4.00693e-05
4.00712e-05
4.00732e-05
4.00752e-05
4.00774e-05
4.00797e-05
4.00821e-05
4.00846e-05
4.00873e-05
4.00901e-05
4.00931e-05
4.00964e-05
4.01001e-05
4.01043e-05
4.01085e-05
4.01112e-05
4.01108e-05
4.01058e-05
4.00951e-05
4.00803e-05
4.00662e-05
4.00575e-05
4.00617e-05
4.00884e-05
4.01502e-05
4.02426e-05
4.0384e-05
4.05746e-05
4.08103e-05
4.10417e-05
4.00423e-05
4.0046e-05
4.00492e-05
4.00521e-05
4.00547e-05
4.00571e-05
4.00593e-05
4.00613e-05
4.00633e-05
4.00652e-05
4.0067e-05
4.00689e-05
4.00707e-05
4.00726e-05
4.00746e-05
4.00766e-05
4.00788e-05
4.00811e-05
4.00834e-05
4.00859e-05
4.00886e-05
4.00914e-05
4.00942e-05
4.00971e-05
4.01002e-05
4.01036e-05
4.01074e-05
4.01113e-05
4.01151e-05
4.0118e-05
4.01191e-05
4.01177e-05
4.01133e-05
4.01058e-05
4.00956e-05
4.00845e-05
4.00751e-05
4.00689e-05
4.00691e-05
4.00835e-05
4.01048e-05
4.00412e-05
4.00454e-05
4.00488e-05
4.00518e-05
4.00544e-05
4.00567e-05
4.00589e-05
4.0061e-05
4.00629e-05
4.00648e-05
4.00666e-05
4.00685e-05
4.00703e-05
4.00721e-05
4.0074e-05
4.0076e-05
4.0078e-05
4.00802e-05
4.00824e-05
4.00848e-05
4.00873e-05
4.00899e-05
4.00925e-05
4.00952e-05
4.00979e-05
4.01007e-05
4.01037e-05
4.01067e-05
4.011e-05
4.01135e-05
4.01172e-05
4.01209e-05
4.01244e-05
4.01273e-05
4.01294e-05
4.01302e-05
4.01296e-05
4.01273e-05
4.01233e-05
4.01178e-05
4.01128e-05
4.00405e-05
4.0045e-05
4.00485e-05
4.00514e-05
4.0054e-05
4.00563e-05
4.00585e-05
4.00605e-05
4.00625e-05
4.00644e-05
4.00662e-05
4.0068e-05
4.00698e-05
4.00716e-05
4.00734e-05
4.00754e-05
4.00773e-05
4.00794e-05
4.00816e-05
4.00838e-05
4.00862e-05
4.00886e-05
4.00911e-05
4.00936e-05
4.00962e-05
4.00988e-05
4.01015e-05
4.01042e-05
4.0107e-05
4.01098e-05
4.01128e-05
4.01159e-05
4.01191e-05
4.01225e-05
4.01261e-05
4.01297e-05
4.01333e-05
4.01368e-05
4.01402e-05
4.01431e-05
4.01458e-05
4.004e-05
4.00446e-05
4.00481e-05
4.0051e-05
4.00535e-05
4.00559e-05
4.0058e-05
4.00601e-05
4.0062e-05
4.00639e-05
4.00657e-05
4.00675e-05
4.00693e-05
4.00711e-05
4.00729e-05
4.00748e-05
4.00767e-05
4.00787e-05
4.00808e-05
4.00829e-05
4.00852e-05
4.00875e-05
4.00898e-05
4.00923e-05
4.00947e-05
4.00972e-05
4.00998e-05
4.01024e-05
4.0105e-05
4.01077e-05
4.01104e-05
4.01132e-05
4.01161e-05
4.01191e-05
4.01221e-05
4.01252e-05
4.01285e-05
4.01319e-05
4.01353e-05
4.0139e-05
4.01424e-05
4.00396e-05
4.00441e-05
4.00476e-05
4.00505e-05
4.0053e-05
4.00553e-05
4.00575e-05
4.00595e-05
4.00614e-05
4.00633e-05
4.00652e-05
4.00669e-05
4.00687e-05
4.00705e-05
4.00723e-05
4.00741e-05
4.0076e-05
4.0078e-05
4.008e-05
4.00821e-05
4.00843e-05
4.00865e-05
4.00888e-05
4.00911e-05
4.00934e-05
4.00958e-05
4.00983e-05
4.01008e-05
4.01034e-05
4.0106e-05
4.01087e-05
4.01114e-05
4.01142e-05
4.01171e-05
4.012e-05
4.0123e-05
4.01261e-05
4.01293e-05
4.01325e-05
4.01359e-05
4.01391e-05
4.00392e-05
4.00436e-05
4.0047e-05
4.00498e-05
4.00523e-05
4.00546e-05
4.00568e-05
4.00588e-05
4.00608e-05
4.00627e-05
4.00645e-05
4.00663e-05
4.00681e-05
4.00699e-05
4.00717e-05
4.00735e-05
4.00754e-05
4.00773e-05
4.00793e-05
4.00813e-05
4.00834e-05
4.00856e-05
4.00878e-05
4.009e-05
4.00923e-05
4.00947e-05
4.00971e-05
4.00995e-05
4.0102e-05
4.01046e-05
4.01072e-05
4.01099e-05
4.01126e-05
4.01155e-05
4.01184e-05
4.01214e-05
4.01244e-05
4.01276e-05
4.01309e-05
4.01342e-05
4.01374e-05
4.00387e-05
4.0043e-05
4.00463e-05
4.00491e-05
4.00516e-05
4.00538e-05
4.0056e-05
4.0058e-05
4.006e-05
4.00619e-05
4.00638e-05
4.00656e-05
4.00674e-05
4.00692e-05
4.0071e-05
4.00728e-05
4.00747e-05
4.00766e-05
4.00785e-05
4.00805e-05
4.00826e-05
4.00847e-05
4.00869e-05
4.00891e-05
4.00913e-05
4.00936e-05
4.00959e-05
4.00983e-05
4.01008e-05
4.01033e-05
4.01059e-05
4.01086e-05
4.01113e-05
4.01141e-05
4.0117e-05
4.012e-05
4.0123e-05
4.01261e-05
4.01294e-05
4.01327e-05
4.01359e-05
4.00381e-05
4.00423e-05
4.00455e-05
4.00482e-05
4.00506e-05
4.00529e-05
4.00551e-05
4.00571e-05
4.00591e-05
4.00611e-05
4.0063e-05
4.00648e-05
4.00666e-05
4.00684e-05
4.00703e-05
4.00721e-05
4.00739e-05
4.00758e-05
4.00778e-05
4.00797e-05
4.00818e-05
4.00839e-05
4.0086e-05
4.00882e-05
4.00904e-05
4.00926e-05
4.00949e-05
4.00973e-05
4.00997e-05
4.01022e-05
4.01048e-05
4.01074e-05
4.01101e-05
4.01128e-05
4.01157e-05
4.01186e-05
4.01216e-05
4.01247e-05
4.01279e-05
4.01312e-05
4.01343e-05
4.00374e-05
4.00414e-05
4.00445e-05
4.00471e-05
4.00496e-05
4.00518e-05
4.0054e-05
4.00561e-05
4.00581e-05
4.00601e-05
4.00621e-05
4.0064e-05
4.00658e-05
4.00676e-05
4.00695e-05
4.00713e-05
4.00732e-05
4.00751e-05
4.0077e-05
4.0079e-05
4.0081e-05
4.00831e-05
4.00852e-05
4.00873e-05
4.00895e-05
4.00917e-05
4.0094e-05
4.00963e-05
4.00987e-05
4.01011e-05
4.01036e-05
4.01062e-05
4.01089e-05
4.01116e-05
4.01144e-05
4.01173e-05
4.01202e-05
4.01232e-05
4.01264e-05
4.01295e-05
4.01326e-05
4.00365e-05
4.00403e-05
4.00433e-05
4.00459e-05
4.00483e-05
4.00506e-05
4.00528e-05
4.0055e-05
4.0057e-05
4.00591e-05
4.00611e-05
4.0063e-05
4.00649e-05
4.00668e-05
4.00686e-05
4.00705e-05
4.00724e-05
4.00743e-05
4.00762e-05
4.00782e-05
4.00802e-05
4.00822e-05
4.00843e-05
4.00864e-05
4.00886e-05
4.00908e-05
4.0093e-05
4.00953e-05
4.00976e-05
4.01001e-05
4.01025e-05
4.01051e-05
4.01077e-05
4.01103e-05
4.0113e-05
4.01158e-05
4.01187e-05
4.01216e-05
4.01246e-05
4.01277e-05
4.01306e-05
4.00355e-05
4.00391e-05
4.00419e-05
4.00445e-05
4.00469e-05
4.00492e-05
4.00514e-05
4.00536e-05
4.00558e-05
4.00579e-05
4.00599e-05
4.00619e-05
4.00638e-05
4.00658e-05
4.00677e-05
4.00695e-05
4.00715e-05
4.00734e-05
4.00753e-05
4.00773e-05
4.00793e-05
4.00813e-05
4.00834e-05
4.00855e-05
4.00876e-05
4.00898e-05
4.0092e-05
4.00942e-05
4.00965e-05
4.00989e-05
4.01013e-05
4.01038e-05
4.01063e-05
4.01089e-05
4.01115e-05
4.01142e-05
4.0117e-05
4.01198e-05
4.01227e-05
4.01255e-05
4.01284e-05
4.00342e-05
4.00376e-05
4.00403e-05
4.00429e-05
4.00453e-05
4.00476e-05
4.00499e-05
4.00521e-05
4.00543e-05
4.00564e-05
4.00585e-05
4.00606e-05
4.00626e-05
4.00646e-05
4.00665e-05
4.00684e-05
4.00704e-05
4.00723e-05
4.00743e-05
4.00763e-05
4.00783e-05
4.00803e-05
4.00824e-05
4.00844e-05
4.00865e-05
4.00887e-05
4.00908e-05
4.0093e-05
4.00953e-05
4.00976e-05
4.00999e-05
4.01023e-05
4.01048e-05
4.01072e-05
4.01098e-05
4.01124e-05
4.0115e-05
4.01176e-05
4.01203e-05
4.0123e-05
4.01257e-05
4.00326e-05
4.00358e-05
4.00385e-05
4.0041e-05
4.00434e-05
4.00457e-05
4.0048e-05
4.00503e-05
4.00525e-05
4.00547e-05
4.00568e-05
4.0059e-05
4.0061e-05
4.00631e-05
4.00651e-05
4.0067e-05
4.0069e-05
4.0071e-05
4.0073e-05
4.0075e-05
4.0077e-05
4.0079e-05
4.00811e-05
4.00831e-05
4.00852e-05
4.00873e-05
4.00894e-05
4.00916e-05
4.00938e-05
4.0096e-05
4.00983e-05
4.01006e-05
4.01029e-05
4.01053e-05
4.01077e-05
4.01101e-05
4.01126e-05
4.01151e-05
4.01176e-05
4.01201e-05
4.01226e-05
4.00308e-05
4.00338e-05
4.00364e-05
4.00388e-05
4.00412e-05
4.00435e-05
4.00458e-05
4.00481e-05
4.00503e-05
4.00526e-05
4.00548e-05
4.00569e-05
4.00591e-05
4.00612e-05
4.00632e-05
4.00653e-05
4.00673e-05
4.00693e-05
4.00713e-05
4.00733e-05
4.00754e-05
4.00774e-05
4.00794e-05
4.00815e-05
4.00835e-05
4.00856e-05
4.00877e-05
4.00898e-05
4.00919e-05
4.00941e-05
4.00962e-05
4.00984e-05
4.01006e-05
4.01029e-05
4.01051e-05
4.01074e-05
4.01097e-05
4.0112e-05
4.01143e-05
4.01166e-05
4.01188e-05
4.00287e-05
4.00315e-05
4.0034e-05
4.00363e-05
4.00386e-05
4.00409e-05
4.00431e-05
4.00454e-05
4.00477e-05
4.00499e-05
4.00522e-05
4.00544e-05
4.00566e-05
4.00588e-05
4.00609e-05
4.0063e-05
4.00651e-05
4.00671e-05
4.00692e-05
4.00712e-05
4.00733e-05
4.00753e-05
4.00773e-05
4.00794e-05
4.00814e-05
4.00834e-05
4.00854e-05
4.00875e-05
4.00895e-05
4.00916e-05
4.00937e-05
4.00957e-05
4.00978e-05
4.00999e-05
4.01021e-05
4.01042e-05
4.01063e-05
4.01084e-05
4.01106e-05
4.01126e-05
4.01147e-05
4.00263e-05
4.00289e-05
4.00312e-05
4.00334e-05
4.00356e-05
4.00377e-05
4.004e-05
4.00422e-05
4.00445e-05
4.00467e-05
4.0049e-05
4.00513e-05
4.00535e-05
4.00558e-05
4.0058e-05
4.00601e-05
4.00622e-05
4.00644e-05
4.00665e-05
4.00685e-05
4.00706e-05
4.00727e-05
4.00747e-05
4.00767e-05
4.00787e-05
4.00807e-05
4.00827e-05
4.00846e-05
4.00866e-05
4.00886e-05
4.00905e-05
4.00925e-05
4.00944e-05
4.00964e-05
4.00983e-05
4.01002e-05
4.01021e-05
4.0104e-05
4.01059e-05
4.01077e-05
4.01095e-05
4.00235e-05
4.00259e-05
4.0028e-05
4.003e-05
4.0032e-05
4.00341e-05
4.00362e-05
4.00384e-05
4.00406e-05
4.00429e-05
4.00452e-05
4.00475e-05
4.00498e-05
4.00521e-05
4.00543e-05
4.00565e-05
4.00587e-05
4.00609e-05
4.0063e-05
4.00651e-05
4.00672e-05
4.00693e-05
4.00713e-05
4.00733e-05
4.00752e-05
4.00772e-05
4.00791e-05
4.0081e-05
4.00829e-05
4.00848e-05
4.00866e-05
4.00885e-05
4.00903e-05
4.00921e-05
4.00939e-05
4.00957e-05
4.00974e-05
4.00992e-05
4.01009e-05
4.01025e-05
4.01042e-05
4.00203e-05
4.00224e-05
4.00243e-05
4.0026e-05
4.00279e-05
4.00298e-05
4.00318e-05
4.00339e-05
4.0036e-05
4.00383e-05
4.00405e-05
4.00429e-05
4.00452e-05
4.00475e-05
4.00498e-05
4.0052e-05
4.00543e-05
4.00565e-05
4.00586e-05
4.00608e-05
4.00629e-05
4.0065e-05
4.0067e-05
4.0069e-05
4.0071e-05
4.00729e-05
4.00748e-05
4.00766e-05
4.00784e-05
4.00802e-05
4.00819e-05
4.00837e-05
4.00853e-05
4.0087e-05
4.00886e-05
4.00901e-05
4.00916e-05
4.00931e-05
4.00946e-05
4.00959e-05
4.00972e-05
4.00167e-05
4.00185e-05
4.002e-05
4.00215e-05
4.00231e-05
4.00248e-05
4.00266e-05
4.00286e-05
4.00306e-05
4.00327e-05
4.00349e-05
4.00372e-05
4.00395e-05
4.00418e-05
4.00441e-05
4.00464e-05
4.00486e-05
4.00509e-05
4.00531e-05
4.00552e-05
4.00573e-05
4.00594e-05
4.00614e-05
4.00634e-05
4.00653e-05
4.00671e-05
4.00689e-05
4.00707e-05
4.00724e-05
4.00741e-05
4.00758e-05
4.00774e-05
4.0079e-05
4.00805e-05
4.0082e-05
4.00834e-05
4.00848e-05
4.00862e-05
4.00875e-05
4.00888e-05
4.009e-05
4.00126e-05
4.00139e-05
4.00151e-05
4.00163e-05
4.00176e-05
4.00191e-05
4.00206e-05
4.00223e-05
4.00242e-05
4.00261e-05
4.00281e-05
4.00302e-05
4.00324e-05
4.00346e-05
4.00367e-05
4.00389e-05
4.00411e-05
4.00433e-05
4.00455e-05
4.00477e-05
4.00498e-05
4.00519e-05
4.00539e-05
4.00559e-05
4.00579e-05
4.00597e-05
4.00616e-05
4.00633e-05
4.0065e-05
4.00666e-05
4.00682e-05
4.00697e-05
4.00711e-05
4.00725e-05
4.00738e-05
4.0075e-05
4.00762e-05
4.00773e-05
4.00783e-05
4.00793e-05
4.00802e-05
4.0008e-05
4.00088e-05
4.00096e-05
4.00104e-05
4.00114e-05
4.00124e-05
4.00136e-05
4.00149e-05
4.00163e-05
4.00179e-05
4.00196e-05
4.00213e-05
4.00233e-05
4.00253e-05
4.00274e-05
4.00297e-05
4.00319e-05
4.00342e-05
4.00364e-05
4.00386e-05
4.00407e-05
4.00427e-05
4.00447e-05
4.00466e-05
4.00484e-05
4.00502e-05
4.00519e-05
4.00535e-05
4.00551e-05
4.00566e-05
4.0058e-05
4.00594e-05
4.00607e-05
4.00619e-05
4.00631e-05
4.00642e-05
4.00653e-05
4.00663e-05
4.00672e-05
4.00681e-05
4.00689e-05
4.00027e-05
4.0003e-05
4.00033e-05
4.00036e-05
4.0004e-05
4.00045e-05
4.0005e-05
4.00057e-05
4.00063e-05
4.00071e-05
4.0008e-05
4.00089e-05
4.001e-05
4.00111e-05
4.00124e-05
4.00138e-05
4.00151e-05
4.00164e-05
4.00176e-05
4.00188e-05
4.002e-05
4.00213e-05
4.00225e-05
4.00237e-05
4.00249e-05
4.00261e-05
4.00272e-05
4.00283e-05
4.00293e-05
4.00303e-05
4.00313e-05
4.00322e-05
4.0033e-05
4.00337e-05
4.00344e-05
4.0035e-05
4.00355e-05
4.00359e-05
4.00363e-05
4.00366e-05
4.00368e-05
0.00559702
0.00964973
0.0122203
0.0148435
0.0181618
0.0214198
0.0235853
0.0241687
0.0230964
0.0204965
0.0165845
0.0115661
0.00569547
0.00101762
9.97672e-05
1.9849e-06
2.56834e-05
4.11494e-05
4.10854e-05
4.02812e-05
4.01954e-05
4.023e-05
4.02497e-05
4.02657e-05
4.0282e-05
4.02969e-05
4.03091e-05
4.0318e-05
4.03238e-05
4.03272e-05
4.03289e-05
4.03295e-05
4.03298e-05
4.03299e-05
4.03303e-05
4.03311e-05
4.03324e-05
4.03341e-05
4.03361e-05
4.03382e-05
4.03402e-05
4.0342e-05
4.03433e-05
4.0344e-05
4.03441e-05
4.03434e-05
4.03421e-05
4.03401e-05
4.03372e-05
4.03336e-05
4.03292e-05
4.03238e-05
4.03176e-05
4.03104e-05
4.03023e-05
4.02934e-05
4.02835e-05
4.02729e-05
4.02618e-05
4.02501e-05
4.02381e-05
4.0226e-05
4.02138e-05
4.02017e-05
4.01899e-05
4.01785e-05
4.01678e-05
4.0158e-05
4.01496e-05
4.0142e-05
4.01344e-05
4.01265e-05
4.01195e-05
4.01053e-05
0.00892482
0.0139532
0.0167736
0.0192793
0.022399
0.0255333
0.0277119
0.0284133
0.0275157
0.0251012
0.0213463
0.0164626
0.0105346
0.00401622
0.000366608
2.82374e-05
7.10706e-06
3.63379e-05
4.23138e-05
4.08017e-05
4.02342e-05
4.02277e-05
4.02585e-05
4.02794e-05
4.02984e-05
4.03152e-05
4.03285e-05
4.03381e-05
4.03443e-05
4.03476e-05
4.0349e-05
4.03493e-05
4.03491e-05
4.0349e-05
4.03492e-05
4.03498e-05
4.03509e-05
4.03524e-05
4.03542e-05
4.03561e-05
4.03577e-05
4.03591e-05
4.03599e-05
4.036e-05
4.03594e-05
4.03581e-05
4.03559e-05
4.0353e-05
4.03493e-05
4.03447e-05
4.03393e-05
4.03329e-05
4.03256e-05
4.03174e-05
4.03082e-05
4.02982e-05
4.02873e-05
4.02758e-05
4.02637e-05
4.02512e-05
4.02384e-05
4.02256e-05
4.02128e-05
4.02003e-05
4.01883e-05
4.01769e-05
4.01665e-05
4.01573e-05
4.01494e-05
4.01422e-05
4.0135e-05
4.01273e-05
4.01206e-05
4.01071e-05
0.0122503
0.0184736
0.0217016
0.0241261
0.0270173
0.030021
0.0322563
0.0331632
0.0325527
0.0304432
0.0269543
0.0222675
0.0164895
0.00946914
0.00272156
9.15639e-05
1.2746e-05
3.83313e-07
3.69743e-05
4.18409e-05
4.05971e-05
4.02687e-05
4.02784e-05
4.02985e-05
4.03168e-05
4.03348e-05
4.03494e-05
4.03599e-05
4.03665e-05
4.03699e-05
4.03711e-05
4.03709e-05
4.03703e-05
4.03697e-05
4.03695e-05
4.03698e-05
4.03706e-05
4.03718e-05
4.03733e-05
4.03748e-05
4.0376e-05
4.03767e-05
4.03769e-05
4.03764e-05
4.0375e-05
4.03728e-05
4.03698e-05
4.03659e-05
4.03612e-05
4.03556e-05
4.03491e-05
4.03417e-05
4.03333e-05
4.0324e-05
4.03137e-05
4.03026e-05
4.02907e-05
4.02781e-05
4.02651e-05
4.02518e-05
4.02383e-05
4.02248e-05
4.02116e-05
4.01988e-05
4.01867e-05
4.01756e-05
4.01655e-05
4.01568e-05
4.01494e-05
4.01425e-05
4.01356e-05
4.01282e-05
4.01218e-05
4.01089e-05
0.0156998
0.0232316
0.0269979
0.029438
0.0321234
0.0349852
0.0372804
0.0384307
0.0381752
0.0364589
0.0333327
0.0289197
0.0233381
0.016461
0.00832252
0.00186705
4.96039e-05
1.78416e-06
3.63613e-06
3.6915e-05
4.0958e-05
4.03358e-05
4.0267e-05
4.0318e-05
4.03411e-05
4.03575e-05
4.03723e-05
4.03834e-05
4.03904e-05
4.03938e-05
4.03948e-05
4.03943e-05
4.03931e-05
4.0392e-05
4.03912e-05
4.03911e-05
4.03914e-05
4.03922e-05
4.03931e-05
4.03941e-05
4.03947e-05
4.03948e-05
4.03943e-05
4.03929e-05
4.03907e-05
4.03875e-05
4.03835e-05
4.03787e-05
4.03729e-05
4.03663e-05
4.03587e-05
4.03501e-05
4.03406e-05
4.03301e-05
4.03187e-05
4.03065e-05
4.02936e-05
4.02801e-05
4.02662e-05
4.0252e-05
4.02378e-05
4.02238e-05
4.02102e-05
4.01973e-05
4.01853e-05
4.01745e-05
4.01648e-05
4.01565e-05
4.01494e-05
4.01429e-05
4.01362e-05
4.01292e-05
4.0123e-05
4.01108e-05
0.0194851
0.0282562
0.0326117
0.0351918
0.0377445
0.0404713
0.0428112
0.0442074
0.0443408
0.0430831
0.0404131
0.0363824
0.0310733
0.0244687
0.0163007
0.00726738
0.00134246
0.00023853
1.2361e-06
1.14039e-05
3.797e-05
4.08211e-05
4.02349e-05
4.02497e-05
4.03437e-05
4.03799e-05
4.03974e-05
4.04092e-05
4.04165e-05
4.04198e-05
4.04204e-05
4.04192e-05
4.04174e-05
4.04156e-05
4.04143e-05
4.04136e-05
4.04134e-05
4.04136e-05
4.04139e-05
4.04141e-05
4.0414e-05
4.04133e-05
4.04118e-05
4.04095e-05
4.04063e-05
4.04022e-05
4.03972e-05
4.03912e-05
4.03844e-05
4.03766e-05
4.03678e-05
4.03581e-05
4.03474e-05
4.03358e-05
4.03233e-05
4.031e-05
4.02961e-05
4.02816e-05
4.02668e-05
4.02519e-05
4.02371e-05
4.02227e-05
4.02089e-05
4.0196e-05
4.01842e-05
4.01737e-05
4.01645e-05
4.01565e-05
4.01496e-05
4.01434e-05
4.01369e-05
4.01301e-05
4.01243e-05
4.01128e-05
0.0239935
0.0335648
0.0384619
0.0413077
0.0438386
0.0464673
0.0488373
0.0504597
0.0509875
0.050231
0.0481012
0.0445767
0.0396758
0.0334081
0.0256144
0.0160809
0.00639879
0.000963795
0.000180707
3.19813e-06
1.5646e-05
3.8781e-05
4.11066e-05
4.03522e-05
4.02868e-05
4.03766e-05
4.04178e-05
4.04351e-05
4.04444e-05
4.04484e-05
4.04487e-05
4.04468e-05
4.04441e-05
4.04412e-05
4.04389e-05
4.04372e-05
4.04362e-05
4.04357e-05
4.04353e-05
4.04348e-05
4.04338e-05
4.04321e-05
4.04297e-05
4.04263e-05
4.0422e-05
4.04168e-05
4.04106e-05
4.04035e-05
4.03955e-05
4.03866e-05
4.03766e-05
4.03657e-05
4.03539e-05
4.03411e-05
4.03275e-05
4.03131e-05
4.02981e-05
4.02827e-05
4.02671e-05
4.02516e-05
4.02363e-05
4.02216e-05
4.02077e-05
4.01949e-05
4.01834e-05
4.01733e-05
4.01644e-05
4.01567e-05
4.015e-05
4.01438e-05
4.01377e-05
4.0131e-05
4.01256e-05
4.01149e-05
0.0295178
0.0391285
0.044445
0.0476564
0.0502917
0.0528896
0.0552908
0.0571132
0.05802
0.0577836
0.0562599
0.0533615
0.0490353
0.0432492
0.0359227
0.0268026
0.0159093
0.005776
0.000733805
0.000153808
4.15567e-06
1.55639e-05
3.86227e-05
4.14218e-05
4.05322e-05
4.03512e-05
4.04203e-05
4.04584e-05
4.04717e-05
4.04772e-05
4.04783e-05
4.04764e-05
4.04732e-05
4.04697e-05
4.04663e-05
4.04633e-05
4.04609e-05
4.04591e-05
4.04574e-05
4.04558e-05
4.04539e-05
4.04512e-05
4.04477e-05
4.04432e-05
4.04378e-05
4.04314e-05
4.0424e-05
4.04156e-05
4.04064e-05
4.03962e-05
4.03851e-05
4.0373e-05
4.036e-05
4.0346e-05
4.03313e-05
4.03159e-05
4.02999e-05
4.02836e-05
4.02673e-05
4.02511e-05
4.02355e-05
4.02206e-05
4.02068e-05
4.01942e-05
4.0183e-05
4.01732e-05
4.01646e-05
4.01572e-05
4.01505e-05
4.01444e-05
4.01384e-05
4.0132e-05
4.0127e-05
4.01171e-05
0.0358271
0.0448216
0.0504324
0.0540574
0.0569121
0.0595672
0.0620249
0.0640289
0.0652893
0.0655708
0.0646946
0.062522
0.0589352
0.0538347
0.0471235
0.0386414
0.0280893
0.0159052
0.00544643
0.000639473
0.000152959
3.94865e-06
1.17128e-05
3.74379e-05
4.1757e-05
4.08031e-05
4.0433e-05
4.04649e-05
4.04997e-05
4.05077e-05
4.05082e-05
4.05058e-05
4.05019e-05
4.04978e-05
4.04941e-05
4.04909e-05
4.04879e-05
4.0485e-05
4.04819e-05
4.04786e-05