/*--------------------------------*- C++ -*----------------------------------*\
| =========                 |                                                 |
| \\      /  F ield         | OpenFOAM: The Open Source CFD Toolbox           |
|  \\    /   O peration     | Version:  2312                                  |
|   \\  /    A nd           | Website:  www.openfoam.com                      |
|    \\/     M anipulation  |                                                 |
\*---------------------------------------------------------------------------*/
FoamFile
{
    version     2.0;
    format      ascii;
    arch        "LSB;label=32;scalar=64";
    class       volScalarField;
    location    "400";
    object      p;
}
// * * * * * * * * * * * * * * * * * * * * * * * * * * * * * * * * * * * * * //

dimensions      [0 2 -2 0 0 0 0];

internalField   nonuniform List<scalar> 
11040
(
-14.3266
-20.6467
-15.8358
-15.1338
-15.0785
-14.8973
-14.7094
-14.5565
-14.4472
-14.3638
-14.2872
-14.2225
-14.1596
-14.093
-14.0256
-13.9503
-13.869
-13.7833
-13.6987
-13.6284
-13.5814
-13.57
-13.5928
-13.6501
-13.7474
-13.8899
-14.0883
-14.3281
-14.5989
-14.865
-15.1088
-15.2969
-15.4224
-15.4849
-15.5135
-15.5409
-15.5914
-15.768
-16.3693
-17.1246
-18.6456
-4.53636
-11.0079
-14.3134
-14.9761
-15.0266
-14.9093
-14.7204
-14.5621
-14.4491
-14.3654
-14.2886
-14.2241
-14.1624
-14.0966
-14.0301
-13.9557
-13.8748
-13.7893
-13.7042
-13.6326
-13.5832
-13.5693
-13.5895
-13.6436
-13.7372
-13.8762
-14.0713
-14.3093
-14.5799
-14.8483
-15.0959
-15.2891
-15.4201
-15.4887
-15.524
-15.5584
-15.6135
-15.7876
-16.3969
-17.118
-19.1522
1.34124
-5.28602
-10.7499
-13.8507
-14.7824
-14.8496
-14.7241
-14.566
-14.447
-14.3635
-14.2869
-14.2228
-14.1629
-14.0982
-14.0333
-13.9603
-13.8806
-13.7957
-13.7104
-13.6374
-13.5858
-13.5688
-13.5853
-13.6353
-13.7247
-13.8606
-14.0538
-14.2912
-14.5619
-14.8324
-15.0837
-15.283
-15.4216
-15.4993
-15.5448
-15.5913
-15.6581
-15.8374
-16.4686
-17.1625
-19.4464
4.81445
-1.79907
-7.23621
-11.0662
-13.537
-14.5499
-14.6261
-14.5617
-14.4446
-14.3601
-14.2828
-14.2194
-14.1625
-14.099
-14.0364
-13.9654
-13.8872
-13.8028
-13.717
-13.642
-13.5873
-13.5663
-13.5782
-13.6239
-13.7099
-13.8439
-14.0353
-14.2723
-14.5428
-14.816
-15.0717
-15.2792
-15.428
-15.5184
-15.5779
-15.64
-15.7227
-15.9186
-16.5744
-17.259
-19.5786
6.92191
1.60924
-3.58137
-7.82251
-11.0052
-13.1831
-14.2177
-14.3965
-14.4269
-14.3582
-14.2789
-14.2125
-14.16
-14.0981
-14.0389
-13.9707
-13.8946
-13.8112
-13.7244
-13.6464
-13.5871
-13.5604
-13.5664
-13.6072
-13.6896
-13.8219
-14.0113
-14.2479
-14.5187
-14.7957
-15.058
-15.2764
-15.4388
-15.5462
-15.6249
-15.7072
-15.8115
-16.0363
-16.7073
-17.4036
-19.6321
8.06615
3.94346
-0.488746
-4.70364
-8.18706
-10.816
-12.7186
-13.7988
-14.1906
-14.2852
-14.2766
-14.2064
-14.1555
-14.0932
-14.0391
-13.9747
-13.9021
-13.8203
-13.7322
-13.6498
-13.5836
-13.5493
-13.548
-13.5832
-13.6621
-13.7926
-13.9804
-14.217
-14.4891
-14.7715
-15.0425
-15.2752
-15.4554
-15.585
-15.6887
-15.7965
-15.9287
-16.1922
-16.8629
-17.5943
-19.6409
8.61052
5.33099
1.76113
-1.91807
-5.37681
-8.28323
-10.5236
-12.2117
-13.3566
-13.9373
-14.1063
-14.1886
-14.1533
-14.0876
-14.0349
-13.9752
-13.9077
-13.829
-13.74
-13.6519
-13.5759
-13.5313
-13.5212
-13.5502
-13.6253
-13.7541
-13.941
-14.1781
-14.4526
-14.7418
-15.0245
-15.275
-15.4781
-15.6354
-15.7702
-15.9091
-16.0764
-16.3823
-17.038
-17.8156
-19.6047
8.73776
6.09585
3.27084
0.255741
-2.80977
-5.71431
-8.22135
-10.1919
-11.7102
-12.8624
-13.5772
-13.9155
-14.0518
-14.0887
-14.0327
-13.9737
-13.9082
-13.8351
-13.7468
-13.6527
-13.5641
-13.5052
-13.4835
-13.5047
-13.5755
-13.7028
-13.8892
-14.1275
-14.4059
-14.7041
-15.0016
-15.2743
-15.5056
-15.6966
-15.8681
-16.0434
-16.2515
-16.5953
-17.2247
-18.0294
-19.5176
8.59424
6.42884
4.17139
1.74831
-0.804709
-3.38015
-5.85467
-8.05611
-9.84004
-11.2265
-12.3211
-13.1381
-13.6346
-13.8638
-13.9841
-13.9809
-13.9091
-13.8386
-13.7494
-13.6522
-13.5497
-13.4726
-13.435
-13.4455
-13.5103
-13.6349
-13.8203
-14.0605
-14.3441
-14.6536
-14.9689
-15.268
-15.5335
-15.7637
-15.9763
-16.1922
-16.4423
-16.8123
-17.405
-18.1886
-19.3739
8.26367
6.45612
4.62464
2.68213
0.603703
-1.56194
-3.74655
-5.87282
-7.82493
-9.47013
-10.7557
-11.782
-12.6293
-13.2485
-13.6141
-13.8011
-13.8922
-13.8504
-13.7528
-13.6507
-13.5328
-13.4364
-13.3787
-13.3734
-13.428
-13.5467
-13.7298
-13.9708
-14.2606
-14.5822
-14.9178
-15.2462
-15.5508
-15.8251
-16.0816
-16.3391
-16.6266
-17.0066
-17.5491
-18.2551
-19.162
7.8065
6.27417
4.76125
3.18947
1.50907
-0.272682
-2.12001
-3.9858
-5.81955
-7.54978
-9.06934
-10.3011
-11.2779
-12.0939
-12.768
-13.2569
-13.5478
-13.707
-13.752
-13.6592
-13.5191
-13.4006
-13.317
-13.2909
-13.3299
-13.4382
-13.6147
-13.8555
-14.1492
-14.4834
-14.8386
-15.1977
-15.5417
-15.8622
-16.1617
-16.4568
-16.7707
-17.1433
-17.6201
-18.2071
-18.8736
7.26586
5.94845
4.67656
3.3856
2.02101
0.568928
-0.961081
-2.54355
-4.14408
-5.72686
-7.24832
-8.64532
-9.83949
-10.7958
-11.5696
-12.2342
-12.7866
-13.1879
-13.4206
-13.5287
-13.5081
-13.3812
-13.2606
-13.2048
-13.2203
-13.3112
-13.4785
-13.7147
-14.0115
-14.3547
-14.7286
-15.1141
-15.4941
-15.8562
-16.1955
-16.5191
-16.8427
-17.1911
-17.5888
-18.0438
-18.5157
6.67406
5.52836
4.4423
3.3647
2.24322
1.05706
-0.197385
-1.51325
-2.87287
-4.24895
-5.61265
-6.94298
-8.20937
-9.35145
-10.3055
-11.0647
-11.6918
-12.2382
-12.6915
-13.0075
-13.1561
-13.2081
-13.2093
-13.1588
-13.1286
-13.1811
-13.3267
-13.553
-13.8505
-14.2014
-14.5901
-14.9961
-15.4043
-15.7992
-16.1716
-16.5167
-16.8401
-17.1543
-17.4709
-17.8034
-18.13
6.05544
5.05006
4.11051
3.19716
2.26213
1.28398
0.253976
-0.829745
-1.96307
-3.13221
-4.31487
-5.49249
-6.65318
-7.78031
-8.84071
-9.78044
-10.5526
-11.164
-11.6699
-12.1063
-12.4606
-12.6634
-12.746
-12.8434
-12.9853
-13.1169
-13.2375
-13.4106
-13.6705
-14.0142
-14.4134
-14.8438
-15.2778
-15.7004
-16.0963
-16.4584
-16.7826
-17.0712
-17.3264
-17.57
-17.8028
5.42823
4.54026
3.71926
2.93495
2.14433
1.3276
0.475157
-0.418407
-1.35535
-2.33154
-3.33574
-4.35447
-5.37506
-6.38504
-7.37484
-8.33058
-9.22254
-10.0045
-10.6416
-11.1401
-11.5632
-11.8705
-12.0533
-12.1996
-12.3369
-12.5372
-12.8634
-13.2464
-13.6006
-13.9272
-14.2743
-14.6652
-15.0914
-15.5304
-15.9565
-16.3481
-16.6909
-16.982
-17.2162
-17.416
-17.5973
4.81007
4.02219
3.29897
2.61763
1.94012
1.24898
0.535367
-0.207084
-0.98311
-1.79312
-2.63305
-3.49658
-4.37632
-5.26064
-6.13878
-7.00268
-7.84677
-8.65988
-9.41898
-10.0832
-10.6332
-11.0357
-11.3024
-11.5095
-11.697
-11.8821
-12.0854
-12.3653
-12.8034
-13.3814
-13.9879
-14.5322
-15.0028
-15.4264
-15.8235
-16.1967
-16.5387
-16.8449
-17.1002
-17.3109
-17.4935
4.22145
3.52049
2.87972
2.28199
1.69409
1.10114
0.495556
-0.128572
-0.7769
-1.45144
-2.15179
-2.87564
-3.62066
-4.38014
-5.1463
-5.90971
-6.66325
-7.40124
-8.12089
-8.81469
-9.46825
-10.0387
-10.4978
-10.8582
-11.1523
-11.4095
-11.6536
-11.9037
-12.1806
-12.5089
-12.9391
-13.5018
-14.1623
-14.8355
-15.4456
-15.9595
-16.3774
-16.719
-16.988
-17.2014
-17.3892
3.69672
3.06806
2.49516
1.96383
1.44505
0.926419
0.401626
-0.134444
-0.687234
-1.25907
-1.8512
-2.46325
-3.09535
-3.74407
-4.40562
-5.07371
-5.74258
-6.40552
-7.0585
-7.69854
-8.3243
-8.91316
-9.45069
-9.93408
-10.364
-10.7468
-11.0994
-11.4383
-11.7793
-12.1315
-12.5033
-12.8975
-13.3234
-13.7989
-14.3315
-14.9037
-15.4742
-16.0082
-16.4609
-16.822
-17.12
3.24626
2.67716
2.15975
1.68145
1.21682
0.755417
0.291928
-0.178163
-0.659837
-1.15558
-1.66683
-2.19395
-2.73811
-3.29766
-3.87108
-4.45465
-5.04538
-5.63841
-6.23004
-6.81513
-7.39086
-7.93369
-8.43354
-8.89982
-9.34174
-9.76528
-10.1776
-10.5825
-10.9876
-11.3978
-11.8182
-12.2456
-12.6748
-13.1018
-13.5228
-13.9356
-14.3425
-14.7591
-15.1736
-15.5721
-15.9635
2.86131
2.34277
1.87207
1.43747
1.01684
0.601115
0.185944
-0.232809
-0.659378
-1.09633
-1.545
-2.00608
-2.48097
-2.96909
-3.46995
-3.98137
-4.50174
-5.02806
-5.55833
-6.0893
-6.61937
-7.12697
-7.59928
-8.0416
-8.45936
-8.85748
-9.24387
-9.62384
-10.0035
-10.3848
-10.7709
-11.1615
-11.557
-11.9561
-12.3565
-12.7508
-13.1292
-13.4918
-13.8305
-14.1354
-14.423
2.53001
2.0558
1.62512
1.22792
0.844048
0.466462
0.0906814
-0.286215
-0.668698
-1.05829
-1.4572
-1.8652
-2.28459
-2.71426
-3.15534
-3.60546
-4.06502
-4.53083
-5.00306
-5.47825
-5.95713
-6.42033
-6.85735
-7.26988
-7.66123
-8.03176
-8.38606
-8.72564
-9.05533
-9.37684
-9.69393
-10.0071
-10.3171
-10.6229
-10.9239
-11.2177
-11.5006
-11.7724
-12.0302
-12.2671
-12.4841
2.24399
1.80879
1.41367
1.04875
0.697028
0.351716
0.00971717
-0.332496
-0.677796
-1.02863
-1.38591
-1.75072
-2.12358
-2.5053
-2.89539
-3.29397
-3.69977
-4.11244
-4.53032
-4.95284
-5.37851
-5.79305
-6.18499
-6.55767
-6.91087
-7.24637
-7.56452
-7.86707
-8.15423
-8.42748
-8.6869
-8.93318
-9.16646
-9.38717
-9.59598
-9.79128
-9.97281
-10.1376
-10.2884
-10.4186
-10.5343
1.99592
1.59598
1.23244
0.896402
0.572858
0.256087
-0.0568026
-0.368809
-0.682538
-1.00001
-1.32217
-1.64991
-1.98367
-2.3241
-2.67094
-3.02436
-3.3835
-3.74815
-4.11708
-4.48983
-4.8652
-5.23084
-5.5768
-5.90538
-6.21592
-6.50938
-6.78567
-7.04569
-7.2894
-7.5172
-7.72902
-7.92478
-8.10444
-8.26742
-8.41459
-8.5441
-8.65647
-8.75039
-8.82962
-8.88915
-8.93547
1.78049
1.41229
1.07746
0.767278
0.469199
0.177764
-0.109132
-0.39463
-0.680493
-0.968951
-1.26033
-1.55596
-1.85564
-2.16031
-2.46926
-2.78317
-3.10084
-3.42258
-3.74689
-4.07378
-4.40172
-4.72043
-5.02124
-5.30587
-5.5733
-5.82393
-6.05756
-6.27448
-6.47484
-6.65847
-6.82603
-6.97661
-7.11126
-7.22877
-7.33098
-7.41541
-7.48381
-7.53408
-7.56985
-7.58721
-7.59094
1.59278
1.25385
0.944925
0.658511
0.383332
0.115083
-0.148643
-0.410072
-0.671316
-0.933637
-1.19798
-1.46481
-1.73463
-2.00729
-2.28303
-2.56144
-2.84243
-3.12523
-3.40947
-3.69408
-3.97852
-4.25316
-4.51165
-4.75446
-4.98112
-5.19131
-5.38507
-5.5625
-5.72338
-5.86819
-5.99653
-6.10919
-6.20556
-6.28694
-6.35261
-6.40373
-6.43908
-6.46053
-6.46792
-6.46225
-6.44381
1.42929
1.11696
0.831946
0.567203
0.313166
0.0659729
-0.176462
-0.41617
-0.654905
-0.893793
-1.13356
-1.37463
-1.61736
-1.86154
-2.10722
-2.35402
-2.60175
-2.84969
-3.09737
-3.34381
-3.58832
-3.82281
-4.04211
-4.24658
-4.43559
-4.60902
-4.76665
-4.9088
-5.03523
-5.1466
-5.24251
-5.32401
-5.39065
-5.44385
-5.48316
-5.51003
-5.52361
-5.52566
-5.51622
-5.49655
-5.46719
1.28658
0.99893
0.73575
0.491095
0.256464
0.028743
-0.194194
-0.413898
-0.632099
-0.849522
-1.06696
-1.28452
-1.50268
-1.72101
-1.93956
-2.15777
-2.37549
-2.59195
-2.80665
-3.01865
-3.22712
-3.42544
-3.60937
-3.77945
-3.93481
-4.07574
-4.2018
-4.31379
-4.41111
-4.49492
-4.56466
-4.62181
-4.6657
-4.69804
-4.71835
-4.72828
-4.72708
-4.71651
-4.69659
-4.66872
-4.63333
1.16219
0.897045
0.654197
0.42798
0.211429
0.00159845
-0.203204
-0.404575
-0.603733
-0.801545
-0.998372
-1.19454
-1.39014
-1.58502
-1.77881
-1.97122
-2.16176
-2.34992
-2.535
-2.71616
-2.8926
-3.05876
-3.21162
-3.35134
-3.4777
-3.59038
-3.6899
-3.77612
-3.84977
-3.91074
-3.96008
-3.99764
-4.02462
-4.04096
-4.0481
-4.04583
-4.03545
-4.0167
-3.99151
-3.95936
-3.92247
1.05358
0.809395
0.585129
0.376093
0.176248
-0.0169263
-0.204986
-0.389301
-0.570917
-0.750544
-0.928462
-1.10489
-1.27986
-1.45321
-1.62452
-1.79344
-1.95949
-2.12212
-2.28068
-2.43439
-2.58248
-2.72037
-2.84599
-2.95944
-3.06064
-3.14943
-3.22645
-3.2916
-3.34572
-3.38881
-3.4219
-3.445
-3.45927
-3.46475
-3.46273
-3.45315
-3.43719
-3.4147
-3.38726
-3.35462
-3.3185
0.958954
0.733887
0.526949
0.33374
0.149438
-0.0282978
-0.200803
-0.369306
-0.534664
-0.697467
-0.857937
-1.01619
-1.17225
-1.32587
-1.47673
-1.62434
-1.76835
-1.90809
-2.04315
-2.17255
-2.29586
-2.40916
-2.51136
-2.60235
-2.68245
-2.75134
-2.80992
-2.85806
-2.89681
-2.92604
-2.94694
-2.95943
-2.96473
-2.96279
-2.95489
-2.94094
-2.92208
-2.89811
-2.87044
-2.83886
-2.8048
0.876418
0.669147
0.478006
0.299569
0.129621
-0.0337657
-0.191861
-0.34568
-0.495985
-0.643227
-0.787595
-0.929142
-1.06784
-1.20348
-1.33571
-1.46414
-1.58829
-1.70775
-1.82188
-1.93014
-2.0318
-2.1242
-2.20627
-2.27859
-2.34086
-2.39364
-2.43705
-2.47192
-2.49834
-2.51723
-2.5287
-2.53373
-2.53245
-2.52585
-2.51405
-2.498
-2.47773
-2.45403
-2.42713
-2.39783
-2.36636
0.804619
0.613552
0.437137
0.272244
0.115627
-0.0344765
-0.179207
-0.319422
-0.455787
-0.588649
-0.718174
-0.844363
-0.967183
-1.08643
-1.20179
-1.31291
-1.41935
-1.52075
-1.61657
-1.70639
-1.78955
-1.86406
-1.92932
-1.98595
-2.03374
-2.07332
-2.10483
-2.12911
-2.14626
-2.15718
-2.16199
-2.16162
-2.15618
-2.14657
-2.13289
-2.11597
-2.09585
-2.0732
-2.04819
-2.02152
-1.99332
0.742127
0.566067
0.40304
0.250739
0.106407
-0.0314256
-0.16377
-0.29143
-0.414879
-0.534518
-0.650355
-0.762524
-0.870815
-0.975225
-1.07531
-1.17097
-1.26161
-1.34718
-1.42697
-1.50089
-1.56822
-1.62767
-1.67884
-1.72256
-1.75851
-1.78749
-1.80954
-1.82562
-1.83574
-1.84083
-1.84092
-1.83694
-1.82892
-1.81769
-1.80329
-1.7865
-1.76727
-1.74624
-1.72346
-1.69955
-1.67458
0.687895
0.525459
0.374846
0.234039
0.101062
-0.02545
-0.146397
-0.262437
-0.374036
-0.481457
-0.584816
-0.684095
-0.77928
-0.870181
-0.956675
-1.03842
-1.11525
-1.18678
-1.25285
-1.313
-1.36714
-1.41386
-1.45363
-1.48665
-1.51333
-1.53378
-1.54878
-1.55849
-1.56367
-1.56444
-1.56154
-1.5551
-1.54583
-1.53377
-1.5196
-1.50334
-1.48557
-1.46619
-1.44585
-1.42446
-1.40262
0.640836
0.490922
0.351546
0.221374
0.0987857
-0.0173192
-0.127774
-0.233139
-0.333833
-0.43008
-0.522008
-0.609599
-0.692879
-0.771683
-0.845962
-0.915441
-0.980039
-1.03944
-1.09359
-1.14213
-1.18505
-1.22131
-1.25157
-1.27601
-1.29511
-1.30899
-1.31835
-1.32338
-1.32476
-1.32261
-1.31759
-1.30981
-1.29987
-1.2878
-1.27417
-1.25899
-1.24273
-1.22531
-1.20725
-1.18844
-1.16941
0.600128
0.461511
0.332458
0.211933
0.0988909
-0.00768944
-0.108508
-0.204101
-0.294796
-0.380852
-0.462364
-0.539378
-0.61192
-0.679909
-0.74333
-0.80202
-0.855948
-0.904907
-0.948909
-0.9877
-1.02136
-1.04913
-1.07177
-1.0895
-1.10277
-1.11169
-1.11694
-1.11867
-1.1175
-1.11353
-1.10733
-1.09898
-1.08899
-1.07737
-1.06461
-1.05068
-1.036
-1.02046
-1.00451
-0.987992
-0.971421
0.56496
0.436601
0.316821
0.205124
0.100748
0.00289119
-0.0891518
-0.175768
-0.257382
-0.334117
-0.406231
-0.473656
-0.536608
-0.594917
-0.648772
-0.697947
-0.742618
-0.782524
-0.817885
-0.848397
-0.87432
-0.895038
-0.911453
-0.923696
-0.932285
-0.937286
-0.939355
-0.938592
-0.935585
-0.93038
-0.923505
-0.914969
-0.905249
-0.894311
-0.882586
-0.870004
-0.856945
-0.843261
-0.829371
-0.815039
-0.800812
0.534693
0.4155
0.304124
0.200363
0.10387
0.0139089
-0.070104
-0.148595
-0.221884
-0.29023
-0.353779
-0.412676
-0.466988
-0.516831
-0.562206
-0.603249
-0.639909
-0.672325
-0.700437
-0.724386
-0.744104
-0.75955
-0.77121
-0.779621
-0.78485
-0.787366
-0.787341
-0.785259
-0.781224
-0.775661
-0.768623
-0.760493
-0.751284
-0.741333
-0.730618
-0.719442
-0.707747
-0.695759
-0.683465
-0.670991
-0.658506
0.508662
0.397668
0.293778
0.197196
0.107803
0.0249983
-0.0517572
-0.122859
-0.188627
-0.249355
-0.305228
-0.356446
-0.40312
-0.445421
-0.483404
-0.517265
-0.547004
-0.572829
-0.594739
-0.612923
-0.627376
-0.638173
-0.645798
-0.650757
-0.653134
-0.653361
-0.651589
-0.648246
-0.643422
-0.637479
-0.630454
-0.622665
-0.614115
-0.605075
-0.595515
-0.585676
-0.575502
-0.565168
-0.554658
-0.544024
-0.533493
0.486322
0.382497
0.28527
0.195095
0.112116
0.0357846
-0.034403
-0.0988119
-0.157796
-0.211657
-0.260658
-0.305034
-0.344986
-0.380741
-0.412433
-0.440309
-0.464447
-0.485086
-0.502298
-0.516308
-0.527156
-0.534963
-0.540192
-0.543273
-0.544286
-0.543582
-0.541289
-0.537755
-0.533048
-0.527459
-0.521012
-0.513967
-0.506308
-0.498261
-0.489787
-0.48109
-0.472106
-0.46299
-0.453721
-0.444319
-0.43503
0.467337
0.369695
0.278204
0.193661
0.116377
0.0458687
-0.0183441
-0.0767001
-0.129526
-0.177232
-0.220063
-0.258365
-0.292317
-0.322234
-0.348249
-0.370684
-0.389626
-0.405384
-0.418056
-0.427915
-0.435027
-0.439588
-0.442041
-0.442795
-0.441923
-0.439755
-0.436394
-0.432157
-0.42709
-0.421454
-0.415253
-0.408707
-0.401786
-0.394678
-0.387329
-0.379906
-0.372338
-0.364746
-0.357104
-0.349379
-0.341867
0.451538
0.359169
0.272607
0.19286
0.12048
0.0550759
-0.00384443
-0.0567153
-0.103997
-0.146119
-0.183474
-0.216402
-0.245258
-0.270347
-0.291996
-0.31044
-0.325934
-0.338671
-0.348904
-0.356766
-0.362485
-0.366098
-0.368104
-0.368682
-0.368034
-0.366258
-0.36358
-0.36008
-0.355948
-0.351222
-0.346062
-0.340474
-0.3346
-0.328418
-0.322059
-0.315482
-0.308809
-0.301958
-0.295114
-0.288027
-0.281193
0.438052
0.350189
0.26794
0.1925
0.124441
0.0634826
0.00918557
-0.0388838
-0.0812268
-0.118353
-0.150753
-0.178823
-0.202922
-0.22332
-0.240337
-0.254263
-0.265422
-0.274056
-0.280455
-0.284787
-0.287288
-0.288054
-0.287575
-0.286022
-0.283582
-0.280372
-0.276591
-0.272327
-0.267732
-0.262848
-0.2578
-0.252592
-0.247328
-0.241984
-0.236654
-0.23129
-0.225985
-0.220649
-0.215435
-0.210072
-0.205067
0.425341
0.340713
0.262121
0.190661
0.126888
0.0703277
0.0204581
-0.0232072
-0.061148
-0.0938727
-0.121927
-0.145871
-0.166284
-0.183667
-0.198409
-0.21074
-0.220854
-0.228953
-0.235273
-0.239995
-0.2433
-0.245288
-0.246262
-0.246361
-0.245686
-0.244331
-0.2424
-0.239963
-0.237102
-0.233855
-0.230292
-0.226433
-0.222345
-0.218025
-0.213541
-0.208875
-0.204096
-0.199153
-0.19417
-0.18895
-0.183897
0.414548
0.331552
0.254951
0.186289
0.12606
0.0737363
0.0284563
-0.0105467
-0.0440215
-0.0725652
-0.0966388
-0.116565
-0.132643
-0.145193
-0.154703
-0.161717
-0.166719
-0.169997
-0.171796
-0.172289
-0.171664
-0.170036
-0.167736
-0.164911
-0.161664
-0.158102
-0.154327
-0.150415
-0.146432
-0.142423
-0.138431
-0.134477
-0.13059
-0.12677
-0.123043
-0.119391
-0.115845
-0.112354
-0.109
-0.105577
-0.10248
0.411638
0.330213
0.254435
0.186321
0.127092
0.076577
0.0341597
-0.00107991
-0.0301907
-0.0542774
-0.07443
-0.0915556
-0.106401
-0.119382
-0.13063
-0.140042
-0.147648
-0.153717
-0.158557
-0.162391
-0.165363
-0.167598
-0.169238
-0.170361
-0.170993
-0.1712
-0.170997
-0.170438
-0.169522
-0.168296
-0.166757
-0.164948
-0.162866
-0.16055
-0.157997
-0.155246
-0.152294
-0.149164
-0.145885
-0.142389
-0.138889
0.414111
0.335868
0.262572
0.195907
0.137114
0.0865083
0.0439367
0.00901861
-0.0188204
-0.0403114
-0.0561816
-0.0672596
-0.0742948
-0.0782133
-0.0798816
-0.0802451
-0.0796243
-0.0782184
-0.0760532
-0.0733338
-0.0701159
-0.0665266
-0.0627163
-0.0588334
-0.0548938
-0.0509903
-0.0471471
-0.043424
-0.0398347
-0.0363959
-0.0331208
-0.0299986
-0.0270483
-0.0242335
-0.0215813
-0.01904
-0.01665
-0.0143362
-0.0121737
-0.00999376
-0.00806532
0.395274
0.315142
0.244421
0.183147
0.130868
0.086617
0.0493494
0.0181138
-0.00796316
-0.0296729
-0.0477615
-0.062869
-0.0756084
-0.0864207
-0.0957098
-0.103701
-0.110677
-0.116553
-0.121727
-0.126405
-0.13084
-0.135017
-0.139001
-0.142661
-0.146109
-0.149237
-0.152142
-0.154703
-0.157024
-0.158991
-0.160718
-0.162092
-0.163237
-0.164045
-0.164645
-0.164928
-0.165027
-0.164831
-0.164492
-0.163839
-0.163124
-18.4753
-18.1317
-16.1702
-13.9194
-12.1918
-11.1524
-10.631
-10.3463
-10.1406
-9.9776
-9.80648
-9.66851
-9.52698
-9.35992
-9.09573
-8.73973
-8.25312
-7.71089
-7.04635
-6.38678
-5.63862
-4.93604
-4.2191
-3.54408
-2.91289
-2.33797
-1.82615
-1.36929
-0.983633
-0.65459
-0.392517
-0.163274
0.00245357
0.141787
0.242399
0.310161
0.360617
0.385359
0.398001
0.393953
0.386452
0.367043
0.34197
0.316223
0.28658
0.255061
0.224417
0.193696
0.163056
0.134046
0.108053
0.0810907
0.0580181
0.036077
0.0163823
0.000271215
-0.0184396
-0.0290867
-0.0429072
-0.049601
-0.0587221
-0.0611324
-0.0663119
-0.0668428
-0.0649715
-0.0640953
-0.0598565
-0.0552769
-0.0519664
-0.0422078
-0.0432784
-0.0204053
-0.0463704
0.0334261
-19.5329
-18.9216
-16.8085
-14.4167
-12.635
-11.5886
-11.0471
-10.7212
-10.4609
-10.2349
-10.0086
-9.81887
-9.63993
-9.45701
-9.18399
-8.81434
-8.31736
-7.75724
-7.08391
-6.4059
-5.65106
-4.93653
-4.21247
-3.53171
-2.89635
-2.31884
-1.80399
-1.34628
-0.960191
-0.632005
-0.36873
-0.141393
0.0247543
0.162679
0.261739
0.328883
0.377823
0.40142
0.412713
0.407988
0.398972
0.378359
0.35233
0.325448
0.294513
0.261976
0.230343
0.19843
0.166829
0.137014
0.110001
0.0822816
0.0583977
0.0357733
0.0154907
-0.00162771
-0.0206446
-0.032068
-0.0461868
-0.0534751
-0.0627573
-0.0657255
-0.0709239
-0.0715588
-0.0697938
-0.0688131
-0.0644875
-0.0596871
-0.0560947
-0.0460828
-0.0466193
-0.0235059
-0.0486025
0.0315661
-20.2245
-19.6962
-17.5303
-15.014
-13.1513
-12.0629
-11.4843
-11.1178
-10.8116
-10.5317
-10.2531
-10.011
-9.78486
-9.57562
-9.29462
-8.91229
-8.40249
-7.82339
-7.13643
-6.43768
-5.67222
-4.94277
-4.20949
-3.52083
-2.87977
-2.29807
-1.78004
-1.32108
-0.934258
-0.606469
-0.342728
-0.117182
0.0487253
0.184971
0.282492
0.348671
0.395867
0.418179
0.428006
0.42239
0.411762
0.389863
0.362866
0.334688
0.302559
0.268962
0.23623
0.203256
0.170741
0.140039
0.112077
0.0835991
0.058915
0.0356074
0.0146537
-0.00328983
-0.022674
-0.0348232
-0.0492591
-0.0571106
-0.0665938
-0.0700595
-0.0752874
-0.0760376
-0.0743922
-0.0732907
-0.0689305
-0.0639054
-0.060049
-0.0497752
-0.0498393
-0.0264848
-0.0506875
0.0298056
-20.7883
-20.3748
-18.2604
-15.6592
-13.6927
-12.5269
-11.8966
-11.4974
-11.1641
-10.851
-10.534
-10.2464
-9.97247
-9.72115
-9.4256
-9.0352
-8.51178
-7.9129
-7.2075
-6.48615
-5.70546
-4.95785
-4.21254
-3.51332
-2.86451
-2.27673
-1.75505
-1.29429
-0.906182
-0.578351
-0.314595
-0.0907207
0.0744655
0.208751
0.304715
0.369625
0.41488
0.435707
0.443975
0.437262
0.424892
0.401637
0.373677
0.34402
0.310814
0.276109
0.242207
0.2083
0.174894
0.143236
0.114395
0.085148
0.0596868
0.0356913
0.014006
-0.00460127
-0.0244164
-0.0372431
-0.0520293
-0.0604139
-0.0701402
-0.0740579
-0.0793204
-0.0802177
-0.0787088
-0.0774764
-0.0731481
-0.067892
-0.0637989
-0.0532576
-0.0529159
-0.0293067
-0.052618
0.0281542
-21.185
-20.8911
-18.9397
-16.341
-14.2822
-13.0172
-12.3173
-11.8821
-11.5302
-11.1974
-10.854
-10.5274
-10.2089
-9.90649
-9.57858
-9.17927
-8.64617
-8.02586
-7.29849
-6.55021
-5.75004
-4.98011
-4.21955
-3.50699
-2.84842
-2.25318
-1.72678
-1.26366
-0.87418
-0.546314
-0.282816
-0.0609041
0.103184
0.235099
0.329215
0.392405
0.435338
0.454437
0.460921
0.452757
0.438484
0.413824
0.384699
0.35352
0.319145
0.283275
0.248195
0.21331
0.178979
0.146361
0.116639
0.0866353
0.0603955
0.0357248
0.0133112
-0.00590794
-0.0261771
-0.0396355
-0.0547773
-0.0636463
-0.0736243
-0.0779268
-0.0832236
-0.0842822
-0.0828695
-0.0815224
-0.0771943
-0.071721
-0.0673938
-0.0566002
-0.055851
-0.0320222
-0.0543955
0.0265711
-21.3782
-21.1985
-19.485
-17.0001
-14.901
-13.5385
-12.7565
-12.2786
-11.9115
-11.5696
-11.2125
-10.8568
-10.4994
-10.1472
-9.77154
-9.34747
-8.80714
-8.16777
-7.41537
-6.6346
-5.80919
-5.01197
-4.2318
-3.50243
-2.8315
-2.22718
-1.69485
-1.22875
-0.837741
-0.509923
-0.246848
-0.0272654
0.135363
0.2645
0.356351
0.417455
0.457634
0.47473
0.479177
0.469279
0.452883
0.426727
0.396268
0.363489
0.327837
0.290759
0.254497
0.218558
0.183269
0.149695
0.119068
0.0883076
0.0612768
0.0359356
0.0128112
-0.00705217
-0.0277703
-0.0418682
-0.0573574
-0.0667161
-0.0769402
-0.0816221
-0.0869512
-0.0881953
-0.0868724
-0.0854282
-0.0810833
-0.0754052
-0.0708495
-0.0598271
-0.058652
-0.0346223
-0.0560316
0.0250668
-21.3697
-21.2806
-19.8357
-17.5735
-15.5168
-14.0854
-13.2197
-12.691
-12.3066
-11.9616
-11.6023
-11.23
-10.8428
-10.4475
-10.0216
-9.55292
-8.99306
-8.33782
-7.5621
-6.74342
-5.8856
-5.05459
-4.24933
-3.49897
-2.81247
-2.19695
-1.65729
-1.18767
-0.794968
-0.467504
-0.205183
0.0114172
0.172091
0.297862
0.386846
0.445245
0.48222
0.496945
0.498939
0.486979
0.468248
0.440416
0.408405
0.373943
0.336887
0.298542
0.26104
0.223996
0.187711
0.15319
0.121615
0.0901041
0.062265
0.0362574
0.0124321
-0.00809588
-0.0292467
-0.0439863
-0.0598057
-0.0696568
-0.0801062
-0.0851769
-0.0905382
-0.0919663
-0.0907274
-0.0891893
-0.0848177
-0.0789501
-0.0741645
-0.0629337
-0.0613141
-0.0371261
-0.0575089
0.0236388
-21.1569
-21.1384
-19.9617
-17.9971
-16.0782
-14.6341
-13.7011
-13.1177
-12.7103
-12.3631
-12.0095
-11.6343
-11.2308
-10.8039
-10.3357
-9.8159
-9.21525
-8.53414
-7.73817
-6.88147
-5.98405
-5.11127
-4.27375
-3.49711
-2.79116
-2.16191
-1.61338
-1.13964
-0.744896
-0.418112
-0.157011
0.0558922
0.213889
0.335604
0.42103
0.476061
0.509325
0.521246
0.520369
0.506003
0.484673
0.45497
0.421246
0.384941
0.346413
0.306733
0.267939
0.229771
0.192477
0.156991
0.124457
0.0921973
0.0635371
0.0368716
0.0123372
-0.00884249
-0.030414
-0.0458061
-0.0619454
-0.0723101
-0.0829772
-0.0884695
-0.0938641
-0.0954835
-0.0943569
-0.0927251
-0.0883572
-0.0823156
-0.0773104
-0.0658935
-0.0638348
-0.0394967
-0.058842
0.0222934
-20.7522
-20.7794
-19.8688
-18.2394
-16.5364
-15.1528
-14.1885
-13.5565
-13.1196
-12.765
-12.4182
-12.0493
-11.6434
-11.1996
-10.7023
-10.1401
-9.48939
-8.76133
-7.93624
-7.04373
-6.10416
-5.18237
-4.30404
-3.49465
-2.76467
-2.11885
-1.55992
-1.08143
-0.684832
-0.359147
-0.100136
0.108182
0.262467
0.379141
0.459995
0.510787
0.539656
0.548136
0.543801
0.526587
0.502361
0.470498
0.434808
0.396519
0.356387
0.315276
0.275115
0.235765
0.197439
0.160959
0.127452
0.094445
0.0649705
0.0376377
0.0124052
-0.00942185
-0.0313965
-0.0474336
-0.0638765
-0.0747507
-0.0856268
-0.0915441
-0.0969715
-0.0987812
-0.0977708
-0.0960502
-0.0917001
-0.0855033
-0.0802829
-0.0686989
-0.0662012
-0.0417653
-0.0600152
0.0210149
-20.2057
-20.2456
-19.5795
-18.3011
-16.8637
-15.6037
-14.6548
-13.9929
-13.5256
-13.1566
-12.812
-12.452
-12.0535
-11.6079
-11.0981
-10.5102
-9.81932
-9.03463
-8.15905
-7.22239
-6.24004
-5.26645
-4.33967
-3.48984
-2.73036
-2.06479
-1.4939
-1.01013
-0.61201
-0.288224
-0.0324756
0.169968
0.319233
0.429587
0.50469
0.550183
0.573809
0.578076
0.56962
0.549019
0.521517
0.487172
0.44924
0.408785
0.366924
0.324277
0.282689
0.242104
0.20271
0.165212
0.130717
0.096969
0.0666678
0.0386784
0.0127451
-0.00969719
-0.0320844
-0.0487469
-0.0655001
-0.0768716
-0.0879664
-0.0943114
-0.0997729
-0.101787
-0.100907
-0.0991107
-0.0948007
-0.0884674
-0.0830426
-0.0713201
-0.0683942
-0.0438729
-0.061033
0.0198187
-19.5776
-19.6115
-19.1436
-18.2027
-17.0602
-15.9715
-15.0791
-14.4083
-13.9151
-13.5258
-13.1751
-12.8199
-12.4307
-11.9917
-11.4835
-10.8877
-10.1766
-9.3476
-8.41159
-7.41165
-6.37733
-5.35103
-4.37281
-3.47696
-2.68233
-1.99355
-1.40922
-0.920332
-0.52165
-0.20125
0.0494526
0.244281
0.386619
0.488988
0.556762
0.595593
0.612886
0.611899
0.598496
0.573844
0.54258
0.505305
0.464779
0.42197
0.378171
0.333851
0.290734
0.248826
0.208303
0.169752
0.13424
0.0997288
0.0686023
0.0399315
0.0133253
-0.00975926
-0.03253
-0.0498284
-0.066866
-0.0787446
-0.0900515
-0.0968161
-0.102315
-0.104541
-0.103794
-0.101938
-0.0976729
-0.0912208
-0.0855993
-0.0737626
-0.0704062
-0.0458581
-0.0618752
0.0186996
-18.925
-18.9539
-18.6388
-17.9896
-17.1438
-16.2628
-15.4669
-14.8129
-14.2945
-13.8709
-13.4975
-13.1345
-12.7468
-12.3143
-11.8115
-11.2201
-10.5065
-9.65812
-8.67654
-7.60677
-6.50336
-5.41714
-4.38591
-3.4434
-2.61163
-1.89738
-1.29864
-0.805271
-0.407899
-0.0931865
0.14966
0.334393
0.467135
0.559348
0.617762
0.648213
0.657771
0.650292
0.630938
0.601427
0.565798
0.525083
0.481565
0.436152
0.3902
0.344065
0.299317
0.256015
0.214315
0.174678
0.138135
0.102838
0.0708902
0.0415179
0.0142715
-0.00947196
-0.0325991
-0.0505487
-0.0678487
-0.0802531
-0.0917684
-0.0989664
-0.104507
-0.106962
-0.106365
-0.104469
-0.100267
-0.0937188
-0.0879141
-0.0760002
-0.0722222
-0.0476577
-0.0625542
0.0176724
-18.3099
-18.3403
-18.14
-17.7249
-17.1478
-16.4887
-15.8296
-15.2245
-14.6942
-14.2281
-13.8063
-13.4005
-12.9899
-12.5453
-12.0413
-11.4509
-10.7426
-9.89298
-8.89321
-7.77348
-6.59772
-5.43986
-4.35108
-3.36304
-2.49696
-1.76031
-1.15001
-0.654583
-0.262015
0.0432129
0.274109
0.445084
0.564581
0.643681
0.69005
0.709909
0.709918
0.694362
0.667829
0.632456
0.591717
0.546919
0.499948
0.451622
0.403234
0.355096
0.30857
0.263771
0.220809
0.180052
0.142426
0.106338
0.0735462
0.043465
0.0155771
-0.00883544
-0.0323179
-0.0509164
-0.06848
-0.0814164
-0.0931465
-0.100768
-0.106379
-0.109067
-0.108633
-0.106723
-0.102595
-0.095977
-0.0900031
-0.0780399
-0.0738427
-0.0493287
-0.0630631
0.0167245
-17.8297
-17.865
-17.736
-17.4786
-17.1096
-16.6575
-16.155
-15.6377
-15.1269
-14.6322
-14.1494
-13.6751
-13.1949
-12.6915
-12.1484
-11.5392
-10.8217
-9.97325
-8.97245
-7.83487
-6.61062
-5.38433
-4.23281
-3.20048
-2.30581
-1.554
-0.941006
-0.45219
-0.0715599
0.217848
0.430832
0.582524
0.683742
0.745565
0.776382
0.782706
0.770825
0.745185
0.709929
0.667438
0.620675
0.571039
0.520066
0.468432
0.417307
0.366947
0.318502
0.272105
0.227804
0.185898
0.147154
0.110271
0.0766322
0.045837
0.0173246
-0.00775229
-0.0315763
-0.0508257
-0.0686412
-0.0821273
-0.0940676
-0.10213
-0.107827
-0.110769
-0.110514
-0.108623
-0.104591
-0.0979372
-0.091812
-0.0798413
-0.075243
-0.0507939
-0.0634131
0.0158714
-17.5566
-17.6049
-17.5287
-17.3636
-17.1204
-16.8072
-16.4348
-16.0139
-15.5557
-15.0666
-14.547
-13.9997
-13.4238
-12.8181
-12.1796
-11.4862
-10.7171
-9.84365
-8.83618
-7.69779
-6.46053
-5.19542
-3.99063
-2.91515
-1.99912
-1.24402
-0.640059
-0.17118
0.183291
0.444386
0.629712
0.754419
0.830751
0.869731
0.880342
0.869279
0.842464
0.804239
0.75836
0.707235
0.653336
0.597984
0.542361
0.486963
0.432736
0.379896
0.329343
0.281196
0.235456
0.192329
0.152432
0.114726
0.0802259
0.0487001
0.0195607
-0.0061872
-0.0303614
-0.0502483
-0.0683405
-0.0823725
-0.0945485
-0.103039
-0.108869
-0.112066
-0.112019
-0.110181
-0.106263
-0.0996074
-0.0933533
-0.0814076
-0.0764223
-0.0521119
-0.0635968
0.0151046
-17.4642
-17.5272
-17.4933
-17.3914
-17.2316
-17.0113
-16.7285
-16.3792
-15.9647
-15.4858
-14.945
-14.3454
-13.6882
-12.972
-12.1967
-11.369
-10.4849
-9.51992
-8.46084
-7.30928
-6.07431
-4.80919
-3.5857
-2.47922
-1.54364
-0.794389
-0.216154
0.217682
0.530765
0.747134
0.887967
0.971858
1.01281
1.02133
1.00578
0.972524
0.926893
0.872974
0.814092
0.752496
0.690112
0.628013
0.566976
0.507273
0.449535
0.39393
0.341068
0.291022
0.243746
0.199339
0.158261
0.119709
0.0843474
0.0520893
0.0223315
-0.00406686
-0.0286035