/*--------------------------------*- C++ -*----------------------------------*\
| =========                 |                                                 |
| \\      /  F ield         | OpenFOAM: The Open Source CFD Toolbox           |
|  \\    /   O peration     | Version:  2312                                  |
|   \\  /    A nd           | Website:  www.openfoam.com                      |
|    \\/     M anipulation  |                                                 |
\*---------------------------------------------------------------------------*/
FoamFile
{
    version     2.0;
    format      ascii;
    arch        "LSB;label=32;scalar=64";
    class       surfaceScalarField;
    location    "400";
    object      phi;
}
// * * * * * * * * * * * * * * * * * * * * * * * * * * * * * * * * * * * * * //

dimensions      [0 3 -1 0 0 0 0];

oriented        oriented;

internalField   nonuniform List<scalar> 
21876
(
0.00826381
0.000427095
-0.00869092
0.00289249
0.00537134
-0.000573077
0.00346559
-0.00145587
0.000882848
-0.00134321
-0.000112728
-0.00132708
-1.62078e-05
-0.00127063
-5.64259e-05
-0.00121145
-5.91707e-05
-0.00117136
-4.01312e-05
-0.00114041
-3.10666e-05
-0.00110446
-3.60397e-05
-0.00107197
-3.27924e-05
-0.00103675
-3.52331e-05
-0.000991571
-4.50763e-05
-0.000940691
-5.09804e-05
-0.0008758
-6.51849e-05
-0.000798154
-7.81744e-05
-0.000708466
-9.09414e-05
-0.000608677
-9.93186e-05
-0.000507946
-0.000102085
-0.00041449
-8.92965e-05
-0.000355567
-5.191e-05
-0.000342238
-5.81491e-06
-0.000386525
4.90173e-05
-0.000497449
0.00010854
-0.000663195
0.000168956
-0.000869112
0.000200603
-0.00108053
0.000214543
-0.00128422
0.000197536
-0.00144986
0.000166056
-0.00155966
0.000102927
-0.00158379
2.30182e-05
-0.00152061
-6.91489e-05
-0.00136708
-0.000156711
-0.00111778
-0.000254621
-0.000764433
-0.000357931
-0.000312185
-0.000457509
0.000274627
-0.000592067
0.000971541
-0.000701767
0.00152249
-0.000563253
-0.00211968
0.0036306
0.0109297
-0.00117763
-0.00932502
0.010158
0.00614304
0.00554173
0.00808186
0.000745803
0.00567874
-0.00133939
0.00197239
-0.00150571
0.000150055
-0.00153897
-2.31284e-05
-0.00151997
-7.81257e-05
-0.0015024
-5.76305e-05
-0.00148897
-4.44496e-05
-0.00146436
-6.05939e-05
-0.00143691
-6.01831e-05
-0.00140352
-6.8549e-05
-0.00135619
-9.20054e-05
-0.00129876
-0.000108149
-0.00122378
-0.000139685
-0.00113137
-0.000170164
-0.00102219
-0.000199267
-0.000900442
-0.000219314
-0.000781564
-0.000219633
-0.000683878
-0.000182741
-0.000640475
-8.93577e-05
-0.000668174
2.89485e-05
-0.000779449
0.000167227
-0.000973564
0.000306004
-0.00122641
0.000426324
-0.00150815
0.000482092
-0.00177543
0.000484123
-0.00200067
0.000419462
-0.00215677
0.000320807
-0.00223947
0.000179768
-0.00224223
2.19934e-05
-0.00216178
-0.000156098
-0.00198036
-0.000343504
-0.00168636
-0.000554547
-0.00126877
-0.00078073
-0.000724295
-0.00100663
-5.2911e-05
-0.00126796
0.000828367
-0.0015879
0.00179119
-0.00153413
-0.0037191
0.00338339
0.0125577
-0.00339342
-0.0103419
0.0142945
0.00440622
0.0129019
0.00947446
0.00807634
0.0105044
0.00243121
0.00761751
-0.000741867
0.0033231
-0.00151117
0.000746162
-0.00167453
8.52318e-05
-0.00172439
-7.82263e-06
-0.00176282
-6.07126e-06
-0.00177311
-5.03511e-05
-0.0017687
-6.47459e-05
-0.00175274
-8.44668e-05
-0.00171557
-0.000129236
-0.00166243
-0.000161378
-0.00158558
-0.00021685
-0.00148449
-0.000271571
-0.00136132
-0.000323334
-0.00122426
-0.000356447
-0.00109406
-0.000351056
-0.000996189
-0.000280015
-0.000970125
-0.000114268
-0.00103649
9.62012e-05
-0.00120641
0.000336561
-0.00146931
0.000566805
-0.00178758
0.000744219
-0.00211905
0.000810841
-0.00241837
0.000783541
-0.00266477
0.000663162
-0.00284127
0.000497051
-0.00294349
0.000279413
-0.00295738
3.54385e-05
-0.00287082
-0.000244595
-0.00266505
-0.000550046
-0.00232853
-0.000892535
-0.00184825
-0.00126208
-0.00121913
-0.00163715
-0.000429376
-0.00205883
0.000604373
-0.00262254
0.00177778
-0.00271103
-0.00499847
0.00305473
0.0142386
-0.00596007
-0.011672
0.0165199
0.00212498
0.0178889
0.00810545
0.016326
0.0120673
0.0112546
0.0126889
0.00479764
0.00978005
0.000345293
0.00519849
-0.00131718
0.00174768
-0.0017118
0.000386788
-0.00189867
0.000180815
-0.00200059
5.16034e-05
-0.00205695
-8.33647e-06
-0.00208881
-5.24969e-05
-0.00208573
-0.000132146
-0.0020579
-0.000189007
-0.00199772
-0.000276706
-0.00190399
-0.000364865
-0.00177984
-0.000446621
-0.00163613
-0.000498983
-0.00149973
-0.000486025
-0.00140508
-0.000371854
-0.00139936
-0.000116004
-0.00150636
0.000207352
-0.00173225
0.000566625
-0.00205337
0.000890342
-0.00242045
0.0011138
-0.00278767
0.00117843
-0.00311813
0.00111467
-0.00339854
0.000941899
-0.00361159
0.000708558
-0.00374523
0.000409742
-0.00377894
6.62229e-05
-0.0036959
-0.000331474
-0.00347507
-0.000774324
-0.00310257
-0.00126849
-0.00256378
-0.00180395
-0.00185191
-0.00235166
-0.000942078
-0.00297108
0.000208246
-0.00377536
0.00153509
-0.00404123
-0.00611177
0.00264582
0.0160638
-0.00875671
-0.013267
0.0184388
-0.000249972
0.020731
0.00581326
0.0221288
0.0106695
0.0206563
0.0141613
0.0154877
0.0149487
0.0082859
0.0124002
0.00227543
0.00775815
-0.000700856
0.00336306
-0.00159778
0.00107772
-0.00199112
0.000444904
-0.00220165
0.000202123
-0.00234621
9.20895e-05
-0.00242457
-5.37974e-05
-0.00246076
-0.000152832
-0.00245011
-0.000287437
-0.00239126
-0.000423764
-0.00228784
-0.000550206
-0.00215221
-0.000634729
-0.00201808
-0.000620504
-0.00193083
-0.000458878
-0.00194734
-9.87312e-05
-0.00209256
0.000353028
-0.00236358
0.000837095
-0.00272449
0.00125016
-0.00312278
0.00151103
-0.00352083
0.0015752
-0.00389246
0.00148518
-0.00422251
0.00127049
-0.00448698
0.000971635
-0.00466594
0.000587057
-0.00473399
0.000132766
-0.00466986
-0.00039724
-0.00444896
-0.000996688
-0.00405395
-0.00166503
-0.00346931
-0.00239002
-0.00268682
-0.00313574
-0.00167346
-0.00398569
-0.000449584
-0.00500051
0.000981759
-0.00547425
-0.00715082
0.0020196
0.0182273
-0.0118459
-0.0151382
0.0209346
-0.00295712
0.0232996
0.00344822
0.0256444
0.00832479
0.0271803
0.0126254
0.0260362
0.0160929
0.0210485
0.017388
0.0132769
0.0155297
0.00557957
0.0110604
0.000765894
0.00589137
-0.00117043
0.0023812
-0.00190705
0.00093876
-0.00233913
0.000524271
-0.00260321
0.000210423
-0.00277865
2.28158e-05
-0.0028788
-0.000187033
-0.00290622
-0.000395837
-0.00286499
-0.000590798
-0.00276713
-0.000731548
-0.00265281
-0.000733563
-0.00257895
-0.000530159
-0.00261335
-6.12378e-05
-0.00278183
0.00052491
-0.00307418
0.00113194
-0.00345109
0.00162901
-0.00386985
0.00193079
-0.00430511
0.00201096
-0.00473287
0.00191255
-0.00512983
0.00166659
-0.00546446
0.00130458
-0.00570946
0.000830128
-0.00583482
0.000255737
-0.00581461
-0.000419801
-0.00562001
-0.00119367
-0.00522948
-0.00205773
-0.00462733
-0.00299416
-0.00380475
-0.00396003
-0.00273099
-0.00506079
-0.00148298
-0.00624977
-1.07484e-05
-0.00694749
-0.00816689
0.00100451
0.0208458
-0.0153169
-0.0173747
0.0240072
-0.00611859
0.0266456
0.000810003
0.028991
0.00597935
0.0313409
0.0102755
0.0330983
0.0143354
0.0325216
0.0179647
0.0280967
0.0199546
0.0201091
0.019048
0.0109239
0.0150766
0.00375924
0.00954584
-1.56746e-05
0.00471373
-0.00151417
0.00202286
-0.00229665
0.000993012
-0.00278894
0.000515221
-0.00312182
0.000146045
-0.0033306
-0.000186822
-0.00342982
-0.000491292
-0.00342777
-0.000733319
-0.00336696
-0.000793953
-0.00331531
-0.000581143
-0.00335513
-2.02342e-05
-0.0035204
0.000690946
-0.00380494
0.00141666
-0.0041807
0.00200406
-0.00462016
0.00236977
-0.00510399
0.00249368
-0.00560391
0.00241162
-0.00608812
0.00214927
-0.00651772
0.00173282
-0.00685847
0.00116901
-0.00707525
0.000470825
-0.00713774
-0.000359287
-0.00701291
-0.00132023
-0.00667467
-0.00239772
-0.00610713
-0.00356333
-0.00530194
-0.00476671
-0.00424098
-0.00612304
-0.00303449
-0.00745712
-0.0016219
-0.00836083
-0.00917345
-0.000615493
0.0240388
-0.0193124
-0.0200434
0.0276521
-0.00973172
0.0307626
-0.00230039
0.0333614
0.00338053
0.0356438
0.00799306
0.0379544
0.0120248
0.0399519
0.0159672
0.0401194
0.0197872
0.0366594
0.0225079
0.0290592
0.0226768
0.0189284
0.0196767
0.00922231
0.0144197
0.00269705
0.00854818
-0.000471118
0.00416126
-0.00190492
0.00194922
-0.00279613
0.00103756
-0.0033869
0.000404304
-0.00377981
-9.78631e-05
-0.00398813
-0.000524442
-0.00405293
-0.000727973
-0.00404666
-0.000585639
-0.00407891
1.45706e-05
-0.00421501
0.000828927
-0.00447031
0.00167335
-0.00483615
0.00237073
-0.00529901
0.00283306
-0.005841
0.00303523
-0.00642909
0.00299915
-0.00702413
0.00274309
-0.00758078
0.00228819
-0.00805763
0.00164411
-0.00841418
0.000825666
-0.00861585
-0.000159548
-0.00862697
-0.00131085
-0.00841728
-0.00260914
-0.00796956
-0.0040126
-0.00727656
-0.00546107
-0.00633803
-0.00706259
-0.00526875
-0.00852716
-0.00403529
-0.0095947
-0.0101253
-0.00308379
0.027912
-0.0239993
-0.0232251
0.0320877
-0.0139072
0.035705
-0.00591783
0.038777
0.00030853
0.0413111
0.00545881
0.0434879
0.00984803
0.0456902
0.0137649
0.0478589
0.0176185
0.0488187
0.021548
0.0466783
0.0248172
0.0402031
0.0261518
0.0298816
0.0247413
0.0181314
0.0202984
0.00823799
0.0140548
0.00215304
0.00803445
-0.000810465
0.00400142
-0.00238915
0.00198351
-0.00344233
0.00095566
-0.00411252
0.000146447
-0.00448263
-0.000357213
-0.00461379
-0.000453054
-0.00465616
5.8276e-05
-0.00474706
0.000921244
-0.00495354
0.00188039
-0.00529669
0.00271414
-0.00577729
0.00331287
-0.00637965
0.00363717
-0.0070685
0.00368663
-0.00779919
0.00347282
-0.00852098
0.00300824
-0.00918531
0.00230705
-0.00974616
0.0013846
-0.0101642
0.000256904
-0.0104036
-0.00107317
-0.0104322
-0.00258201
-0.0102299
-0.0042163
-0.00979
-0.00590204
-0.00912671
-0.00772661
-0.00833377
-0.00932051
-0.00740906
-0.0105195
-0.0109337
-0.00660056
0.032591
-0.0295688
-0.0270212
0.0374878
-0.0188041
0.0416948
-0.0101247
0.0452843
-0.00328111
0.0482932
0.00244988
0.0507453
0.00739574
0.052793
0.0117172
0.0548216
0.0155898
0.0570224
0.0193473
0.0586581
0.0231814
0.0580086
0.0268013
0.0532775
0.0294723
0.0438663
0.0297097
0.0311579
0.0267633
0.0181384
0.021054
0.00801185
0.014128
0.00197504
0.00802027
-0.00114505
0.00407552
-0.00296933
0.00197088
-0.00411236
0.000786337
-0.00468479
0.000120495
-0.00487954
0.000254162
-0.00495362
0.000996007
-0.00509336
0.00202012
-0.00538732
0.0030076
-0.00586165
0.0037879
-0.00651057
0.00428324
-0.00729917
0.00447526
-0.00818262
0.00435339
-0.00910482
0.00393008
-0.0100129
0.0032125
-0.0108539
0.00222488
-0.0115847
0.000985489
-0.0121699
-0.000488988
-0.0125782
-0.00217537
-0.012786
-0.00400955
-0.0127856
-0.00590339
-0.0125953
-0.00791752
-0.0122685
-0.00964749
-0.0118075
-0.0109806
-0.0114577
-0.0112832
0.0382267
-0.0362482
-0.0315473
0.0440368
-0.0246141
0.0489851
-0.015073
0.0531776
-0.00747364
0.0566971
-0.00106976
0.0596179
0.0044749
0.0619767
0.00935838
0.0638891
0.0136773
0.0656978
0.0175384
0.0677558
0.0211233
0.0698017
0.0247554
0.0705392
0.0287348
0.0679798
0.032269
0.0605996
0.0341435
0.0484691
0.0331844
0.0336075
0.0289895
0.0193135
0.0223138
0.00856407
0.014825
0.00208805
0.00844686
-0.00139839
0.00427371
-0.00331594
0.00203889
-0.00419612
0.00113532
-0.00450006
0.00130004
-0.00463837
0.00215829
-0.00486156
0.00323254
-0.00528506
0.00420883
-0.00593645
0.00493574
-0.00680017
0.00533478
-0.00782867
0.00538227
-0.00897055
0.00506811
-0.0101641
0.004406
-0.0113573
0.00341491
-0.0124992
0.00212687
-0.0135589
0.00056825
-0.0145022
-0.00123295
-0.0153067
-0.00320668
-0.0159585
-0.00525278
-0.0164707
-0.00740608
-0.0168441
-0.00927516
-0.0170501
-0.010775
-0.0114812
-0.0170276
0.0450056
-0.0443101
-0.0369437
0.0519632
-0.0315716
0.0578453
-0.0209551
0.0627858
-0.0124143
0.0669057
-0.00518962
0.0703204
0.00106013
0.0731286
0.0065501
0.0753833
0.0114226
0.0771677
0.0157541
0.0787408
0.0195501
0.0805157
0.0229804
0.0826473
0.0266031
0.0843985
0.0305178
0.0840286
0.0345133
0.0794976
0.0377152
0.0696198
0.0388669
0.0549719
0.0369617
0.0379613
0.0318352
0.0220223
0.024386
0.0100338
0.016262
0.00273597
0.00933691
-0.000741997
0.00461252
-0.0022817
0.00283897
-0.0029144
0.00279093
-0.0032281
0.00354672
-0.00359465
0.00457587
-0.00419492
0.00553379
-0.00506914
0.0062078
-0.0062019
0.00651201
-0.00754436
0.00640896
-0.00904059
0.00589944
-0.0106312
0.00500378
-0.0122653
0.00375864
-0.0139085
0.00220955
-0.0155259
0.000382558
-0.0170953
-0.00163931
-0.0185958
-0.00375368
-0.0200325
-0.00597133
-0.0213483
-0.0079604
-0.0224735
-0.00965162
-0.0106962
-0.0232595
0.0531536
-0.0540838
-0.0433799
0.0615408
-0.0399588
0.0685939
-0.0280083
0.0744735
-0.0182939
0.079337
-0.0100531
0.0833364
-0.00293934
0.086613
0.0032734
0.0892848
0.00875077
0.0914241
0.0136148
0.0930888
0.0178853
0.0944515
0.0216177
0.0958997
0.0251548
0.0978105
0.0286068
0.100028
0.0322959
0.101401
0.0363413
0.0999345
0.0403338
0.093617
0.0432787
0.0815085
0.0439436
0.0644546
0.0414392
0.0450262
0.03569
0.0267469
0.0276149
0.013751
0.0176074
0.0061318
0.010455
0.00249066
0.00643502
0.000968286
0.00506624
0.000230606
0.00531765
-0.000418679
0.00617788
-0.0012645
0.00705518
-0.00242558
0.00766705
-0.00390074
0.00788435
-0.00565864
0.0076519
-0.00764039
0.00698491
-0.00979948
0.00591325
-0.0120962
0.00450508
-0.0144889
0.00277164
-0.016941
0.000811344
-0.0194225
-0.00127479
-0.0219349
-0.00346054
-0.0243795
-0.00551762
-0.0266602
-0.00737225
-0.00876878
-0.0285889
0.062945
-0.0659676
-0.0510612
0.0731033
-0.0501172
0.0816154
-0.0365205
0.0886713
-0.0253498
0.0944657
-0.0158477
0.0991922
-0.00766583
0.103028
-0.000562837
0.106135
0.00564358
0.108648
0.0111023
0.110653
0.0158796
0.112207
0.0200638
0.113425
0.0239369
0.114579
0.0274531
0.116096
0.0307789
0.118238
0.034199
0.120571
0.0380003
0.121656
0.0421938
0.119343
0.0462556
0.111623
0.0491593
0.0976044
0.0497072
0.0781655
0.0470533
0.0574995
0.0382713
0.0386642
0.0292913
0.0242121
0.0208838
0.0149933
0.014291
0.0100594
0.010246
0.00768164
0.00856109
0.00630822
0.0084206
0.00504598
0.00893246
0.00349534
0.00942669
0.00157043
0.00957796
-0.000731703
0.00927987
-0.00335842
0.00853953
-0.00628777
0.00742918
-0.00945941
0.00594166
-0.0128278
0.00417645
-0.0163385
0.00223358
-0.0199959
0.000195164
-0.0236648
-0.00185105
-0.0272414
-0.00379607
-0.00547502
-0.0305368
0.0747127
-0.0804442
-0.0602362
0.087055
-0.0624595
0.0973742
-0.04684
0.105896
-0.0338713
0.112856
-0.022808
0.118492
-0.0133026
0.123028
-0.00509894
0.126663
0.00200853
0.129573
0.00819208
0.131902
0.0135506
0.133757
0.0182087
0.135219
0.0224754
0.136349
0.0263224
0.137307
0.0298209
0.138434
0.0330727
0.140157
0.0362771
0.14262
0.0397302
0.145196
0.0436796
0.146277
0.0480782
0.143602
0.0523812
0.135091
0.0555639
0.120954
0.0524073
0.102562
0.0476831
0.0821618
0.041285
0.0623951
0.0340569
0.0457305
0.0269124
0.0335434
0.020746
0.0256828
0.0162816
0.0209311
0.0136803
0.0178544
0.0125021
0.015341
0.0120869
0.0127523
0.0118664
0.00980546
0.0114821
0.00641009
0.0108217
0.00259493
0.00975339
-0.00157811
0.00834634
-0.00603185
0.00668491
-0.0107709
0.00493145
-0.0156273
0.00300388
-0.0205166
0.00109122
-0.000735733
-0.0252566
0.0888595
-0.0980998
-0.0712042
0.103886
-0.0774865
0.116435
-0.0593886
0.126772
-0.044209
0.135185
-0.0312212
0.141963
-0.02008
0.147376
-0.0105132
0.151675
-0.00229006
0.155076
0.00479099
0.157763
0.010863
0.159891
0.0160801
0.161599
0.0207681
0.162971
0.02495
0.164061
0.028731
0.164945
0.0321884
0.165826
0.0353953
0.167084
0.0384724
0.169132
0.0416317
0.172045
0.0451652
0.175117
0.0493083
0.17667
0.0540103
0.174605
0.0544729
0.167882
0.0544048
0.156276
0.0528917
0.140471
0.0498614
0.12187
0.0455144
0.102348
0.0402658
0.0839846
0.0346453
0.0684365
0.029225
0.0563883
0.0245499
0.0475093
0.0209618
0.0409273
0.0184471
0.0356834
0.0167221
0.0309939
0.0155095
0.026369
0.014375
0.0215395
0.0131737
0.0164042
0.0118177
0.010858
0.0104753
0.00505003
0.00881015
-0.000965919
0.00710506
0.00531417
-0.00701678
0.105868
-0.119645
-0.084323
0.124187
-0.0958056
0.139476
-0.0746785
0.152057
-0.0567895
0.162273
-0.0414382
0.170475
-0.0282822
0.176993
-0.0170317
0.18213
-0.00742691
0.186152
0.000767767
0.189291
0.00772417
0.191739
0.0136314
0.193675
0.0188323
0.195236
0.0233886
0.196526
0.0274405
0.197608
0.0311059
0.198525
0.0344785
0.199364
0.0376324
0.200355
0.0406409
0.20189
0.0436287
0.204396
0.0468026
0.207945
0.05046
0.211466
0.0509519
0.21389
0.0519788
0.213967
0.0528152
0.210661
0.0531649
0.203418
0.0527576
0.192261
0.0514208
0.17779
0.0491159
0.161058
0.0459535
0.14345
0.0421585
0.126379
0.0380286
0.110942
0.0338842
0.0976447
0.0300156
0.0863948
0.0267588
0.0768534
0.0239131
0.068536
0.0214899
0.0609858
0.0193653
0.0537065
0.017753
0.0465865
0.0159284
0.0394366
0.0142529
0.0124736
0.0322762
0.11449
-0.143454
-0.0906816
0.134724
-0.116039
0.15161
-0.0915651
0.165497
-0.0706773
0.176765
-0.0527063
0.185795
-0.0373128
0.19295
-0.0241876
0.198563
-0.0130397
0.202927
-0.0035972
0.206299
0.00435265
0.208894
0.0110354
0.21091
0.0168162
0.212503
0.0217946
0.213806
0.0261371
0.214923
0.0299879
0.215929
0.0334731
0.21686
0.0367001
0.21775
0.0397506
0.218683
0.0426943
0.219885
0.0456002
0.221739
0.0486043
0.224259
0.0484314
0.227528
0.0487073
0.231239
0.0491042
0.234756
0.0496454
0.237271
0.0502424
0.237959
0.0507295
0.236164
0.0509112
0.231499
0.050615
0.223939
0.0497186
0.213783
0.0481805
0.201627
0.0460406
0.188237
0.0434031
0.174355
0.040641
0.160717
0.0375479
0.147828
0.0343791
0.135934
0.0312573
0.124852
0.0288347
0.114669
0.0261092
0.105139
0.0237826
0.0214375
0.0961748
0.121523
-0.169197
-0.09578
0.143395
-0.137911
0.16165
-0.109821
0.176661
-0.0856892
0.188836
-0.0648822
0.198587
-0.0470628
0.2063
-0.0319016
0.212334
-0.0190744
0.217007
-0.00827066
0.220594
0.000765252
0.223331
0.0082976
0.22543
0.0147174
0.22706
0.0201633
0.228367
0.02483
0.229468
0.0288849
0.230466
0.032475
0.231435
0.0357299
0.232426
0.0387595
0.233458
0.0416604
0.234555
0.0445036
0.235794
0.0473622
0.237099
0.0471266
0.238763
0.0470407
0.241031
0.046836
0.244027
0.046646
0.247705
0.0465643
0.251798
0.0466322
0.25588
0.0468298
0.259402
0.0470895
0.261817
0.0473036
0.262643
0.0473511
0.261564
0.0471194
0.258443
0.0465216
0.25331
0.0457746
0.246384
0.0444709
0.238028
0.0427352
0.228671
0.0406126
0.218536
0.0389695
0.208145
0.0364995
0.197688
0.0342391
0.0316868
0.187439
0.129251
-0.19702
-0.101428
0.152885
-0.161546
0.172615
-0.12955
0.18884
-0.101915
0.202
-0.0780423
0.212535
-0.0575982
0.220863
-0.0402305
0.227369
-0.0255804
0.232393
-0.0132953
0.236233
-0.00307551
0.239144
0.00538556
0.241354
0.012507
0.243048
0.0184685
0.244384
0.0234944
0.245489
0.0277789
0.246474
0.0314897
0.247428
0.0347746
0.248429
0.0377582
0.249532
0.0405563
0.250772
0.0432628
0.25216
0.0459719
0.253435
0.045851
0.254701
0.0457724
0.256076
0.0454604
0.25772
0.0449995
0.25982
0.0444638
0.262524
0.0439245
0.265916
0.0434376
0.269956
0.0430459
0.274497
0.0427626
0.279269
0.0425754
0.283946
0.0424424
0.288166
0.0422984
0.291615
0.0423253
0.294003
0.0420797
0.295153
0.0415842
0.294987
0.0407756
0.293465
0.0404907
0.29069
0.0392724
0.286766
0.0381605
0.036554
0.281898
0.137686
-0.227081
-0.107626
0.163219
-0.187078
0.184536
-0.150869
0.202072
-0.11945
0.216294
-0.0922663
0.227682
-0.0689844
0.236679
-0.0492298
0.243704
-0.0326037
0.249117
-0.0187112
0.253246
-0.00720257
0.256358
0.00227067
0.258704
0.0101622
0.260479
0.0166912
0.261859
0.0221163
0.262977
0.0266577
0.26396
0.0305085
0.264898
0.0338339
0.265882
0.0367759
0.266975
0.03946
0.268246
0.0419932
0.269732
0.0444817
0.271172
0.0444128
0.27261
0.0443304
0.274062
0.0440099
0.275543
0.0435144
0.277119
0.042889
0.27887
0.0421706
0.280915
0.0413933
0.283365
0.0405931
0.286327
0.0398019
0.289852
0.0390471
0.29395
0.0383461
0.298548
0.037698
0.303551
0.0373235
0.308771
0.0368589
0.314006
0.0363493
0.319049
0.0357332
0.323765
0.0357738
0.327942
0.0350977
0.33147
0.0346319
0.0337753
0.334253
0.146858
-0.25955
-0.114389
0.174435
-0.214656
0.197466
-0.1739
0.216413
-0.138397
0.231785
-0.107638
0.244091
-0.0812916
0.253817
-0.0589556
0.261403
-0.0401915
0.267248
-0.0245552
0.271692
-0.0116477
0.275034
-0.00107153
0.277533
0.00766172
0.279408
0.0148163
0.280839
0.0206836
0.281982
0.025515
0.282962
0.0295273
0.283887
0.0329084
0.284846
0.0358159
0.285915
0.0383903
0.287159
0.0407471
0.28864
0.0430008
0.2901
0.0429502
0.291615
0.0428152
0.293189
0.0424326
0.294827
0.0418757
0.296524
0.0411897
0.298286
0.040408
0.300124
0.0395519
0.302073
0.0386434
0.304174
0.0376975
0.306488
0.0367309
0.309075
0.0357562
0.311991
0.0347793
0.31529
0.0340206
0.318986
0.0331597
0.323064
0.0322683
0.327474
0.031318
0.332216
0.0310288
0.337147
0.0301607
0.342205
0.0295724
0.028721
0.347254
0.156805
-0.294617
-0.121739
0.186589
-0.24444
0.211466
-0.198777
0.231936
-0.158867
0.248547
-0.12425
0.261849
-0.0945933
0.272361
-0.0694682
0.28056
-0.0483907
0.28687
-0.0308662
0.291662
-0.0164401
0.295255
-0.00466496
0.297927
0.00498879
0.299913
0.0128301
0.301408
0.0191883
0.302577
0.0243457
0.303556
0.0285467
0.304463
0.0320013
0.305391
0.0348864
0.306424
0.037357
0.307629
0.0395411
0.309068
0.0415612
0.310487
0.0415295
0.311966
0.0413354
0.313521
0.0408754
0.315166
0.0402297
0.316903
0.0394502
0.318734
0.0385762
0.320649
0.0376342
0.322643
0.0366476
0.324707
0.0356303
0.326841
0.034595
0.329047
0.0335479
0.331334
0.0324887
0.333729
0.0316226
0.336246
0.0306393
0.338906
0.0296068
0.341718
0.0285029
0.344736
0.0280116
0.347926
0.0269681
0.351309
0.0261921
0.0251869
0.354842
0.167577
-0.332487
-0.129706
0.199741
-0.276605
0.226612
-0.225647
0.248727
-0.180982
0.266677
-0.1422
0.281053
-0.10897
0.292417
-0.0808312
0.301277
-0.0572527
0.308095
-0.037683
0.313264
-0.0216107
0.317132
-0.00853173
0.319992
0.00212612
0.322102
0.0107219
0.323665
0.017623
0.324865
0.0231474
0.325842
0.0275674
0.326726
0.0311184
0.327614
0.0339965
0.328598
0.0363745
0.329744
0.0383922
0.331123
0.0401839
0.332474
0.0401757
0.333882
0.0399289
0.335358
0.0393978
0.33692
0.0386685
0.338574
0.0377963
0.340325
0.0368252
0.342174
0.0357859
0.344115
0.0347061
0.346143
0.0336039
0.348243
0.0324943
0.350407
0.0313863
0.352615
0.0302792
0.354871
0.0293703
0.357148
0.0283594
0.359449
0.0273102
0.361751
0.0261977
0.36409
0.0256766
0.366428
0.0246272
0.368791
0.0238344
0.0228231
0.371154
0.179226
-0.373387
-0.138328
0.213965
-0.311342
0.24299
-0.254672
0.266883
-0.204875
0.28628
-0.161598
0.301819
-0.124509
0.314103
-0.093115
0.323682
-0.0668316
0.331046
-0.0450486
0.336627
-0.0271908
0.34079
-0.0126961
0.343858
-0.000942266
0.346099
0.00848012
0.34774
0.0159823
0.348968
0.021918
0.349944
0.0265919
0.350796
0.030265
0.351636
0.0331561
0.352554
0.0354551
0.353629
0.0373177
0.354922
0.0388887
0.356187
0.0389111
0.357497
0.0386175
0.358871
0.0380231
0.360319
0.0372188
0.361851
0.0362644
0.363468
0.035207
0.365172
0.0340805
0.366963
0.0329152
0.368834
0.0317317
0.370781
0.0305476
0.372791
0.0293735
0.37486
0.0282117
0.376975
0.027252
0.379127
0.0262087
0.381291
0.0251423
0.383462
0.0240292
0.385638
0.0234971
0.387798
0.0224702
0.389929
0.0217005
0.0207291
0.392027
0.191819
-0.417561
-0.147644
0.22934
-0.348863
0.260696
-0.286028
0.286512
-0.230692
0.307477
-0.182562
0.324274
-0.141307
0.337554
-0.106395
0.34791
-0.0771876
0.355869
-0.0530083
0.361894
-0.0332153
0.366379
-0.0171822
0.369671
-0.00423383
0.372055
0.00609503
0.373776
0.0142608
0.375036
0.0206577
0.376004
0.0256238
0.376819
0.0294488
0.3776
0.0323754
0.37844
0.0346134
0.379423
0.0363344
0.380614
0.0376964
0.381767
0.0377578
0.382958
0.0374257
0.384205
0.0367751
0.385519
0.0359033
0.386908
0.0348745
0.388374
0.0337396
0.389917
0.0325358
0.391537
0.0312954
0.393226
0.0300411
0.394982
0.0287919
0.396794
0.0275598
0.398659
0.026348
0.40057
0.02534
0.402519
0.0242618
0.404487
0.0231721
0.406472
0.0220482
0.408473
0.0214943
0.410472
0.0204746
0.412458
0.019713
0.0187651
0.414426
0.205423
-0.465281
-0.157704
0.245957
-0.389397
0.279836
-0.319907
0.307737
-0.258592
0.330398
-0.205224
0.34856
-0.159469
0.362921
-0.120757
0.37412
-0.0883861
0.382723
-0.0616129
0.38923
-0.0397213
0.394064
-0.0220174
0.397598
-0.00776644
0.400136
0.00355514
0.401944
0.0124538
0.403235
0.0193661
0.404192
0.0246674
0.404962
0.0286776
0.405672
0.031666
0.406421
0.0338633
0.407297
0.0354592
0.408367
0.0366259
0.409388
0.0367366
0.410439
0.0363748
0.411537
0.0356757
0.412698
0.0347432
0.413926
0.033646
0.415228
0.0324394
0.416599
0.0311633
0.418044
0.0298532
0.41955
0.028533
0.421122
0.0272236
0.422743
0.0259375
0.424415
0.0246793
0.426128
0.0236257
0.427879
0.0225142
0.429649
0.0214003
0.431438
0.0202625
0.433247
0.0196832
0.435063
0.018663
0.436874
0.0178997
0.0169631
0.43868
0.220116
-0.51684
-0.168556
0.263914
-0.433196
0.300529
-0.356521
0.330689
-0.288751
0.355192
-0.229726
0.374834
-0.179112
0.390369
-0.136291
0.402483
-0.1005
0.411788
-0.070918
0.418817
-0.0467514
0.424032
-0.0272317
0.427826
-0.0115612
0.430533
0.000847975
0.432432
0.0105547
0.433755
0.0180426
0.434696
0.023726
0.435415
0.0279588
0.436042
0.0310378
0.436688
0.0332174
0.43744
0.0347065
0.438372
0.0356931
0.439244
0.0358637
0.440137
0.0354807
0.441072
0.0347401
0.442062
0.0337521
0.443116
0.0325909
0.444238
0.0313157
0.445431
0.0299699
0.44669
0.0285913
0.448018
0.0272062
0.449402
0.0258363
0.450845
0.0244957
0.452332
0.0231892
0.45387
0.0220886
0.455441
0.0209403
0.457044
0.0197984
0.458663
0.0186413
0.460316
0.0180321
0.461973
0.017004
0.463643
0.0162318
0.0152969
0.465307
0.235981
-0.572562
-0.180259
0.283321
-0.480536
0.322903
-0.396104
0.355515
-0.321363
0.382018
-0.256229
0.403269
-0.200363
0.42008
-0.153102
0.43319
-0.11361
0.443258
-0.0809861
0.450859
-0.0543518
0.456486
-0.0328589
0.460565
-0.0156407
0.463454
-0.00204087
0.465452
0.00855696
0.466808
0.0166862
0.46773
0.0228039
0.468388
0.0273003
0.468923
0.0305024
0.46945
0.0326898
0.470064
0.0340924
0.470841
0.0349153
0.471548
0.0351566
0.472266
0.0347613
0.473021
0.0339852
0.473825
0.0329461
0.474693
0.0317234
0.475626
0.0303807
0.476631
0.0289651
0.477704
0.0275169
0.478846
0.0260644
0.48005
0.0246308
0.481315
0.0232311
0.482631
0.0218713
0.484004
0.0207175
0.485417
0.0195256
0.486869
0.0183477
0.488346
0.0171627
0.489865
0.016515
0.491399
0.0154693
0.492955
0.014678
0.0137341
0.494516
0.253112
-0.6328
-0.192873
0.304295
-0.531719
0.3471
-0.438909
0.382377
-0.35664
0.411054
-0.284906
0.434056
-0.223365
0.452257
-0.171303
0.466453
-0.127806
0.477353
-0.0918865
0.485577
-0.062575
0.491655
-0.0389373
0.496046
-0.0200313
0.499133
-0.00512787
0.501238
0.00645197
0.502629
0.015295
0.503529
0.0219049
0.504119
0.0267102
0.50455
0.0300713
0.504945
0.0322945
0.505405
0.033633
0.50601
0.0343098
0.506535
0.0346329
0.507062
0.0342329
0.507622
0.033427
0.508227
0.0323392
0.508897
0.0310559
0.509631
0.0296446
0.510442
0.0281569
0.511322
0.0266351
0.512279
0.0251104
0.513302
0.023607
0.514394
0.0221414
0.515544
0.0207203
0.516759
0.019505
0.518023
0.0182602
0.519337
0.0170366
0.520685
0.0158133
0.522086
0.0151169
0.523512
0.0140423
0.524971
0.0132209
0.0122564
0.526448
0.271608
-0.697943
-0.206466
0.326967
-0.587077
0.373275
-0.485218
0.41145
-0.394815
0.442494
-0.31595
0.467404
-0.248275
0.487121
-0.191019
0.502502
-0.143188
0.514313
-0.103697
0.523218
-0.07148
0.529791
-0.0455101
0.534523
-0.0247636
0.537828
-0.00843264
0.540051
0.00422887
0.541481
0.0138656
0.542354
0.0210309
0.542869
0.0261956
0.543185
0.029755
0.543434
0.0320454
0.543723
0.0333439
0.54414
0.0338937
0.544463
0.0343088
0.544785
0.033912
0.545131
0.03308
0.545527
0.0319455
0.545982
0.0306004
0.54651
0.029118
0.547113
0.0275534
0.547798
0.0259525
0.54856
0.0243482
0.549402
0.0227671
0.550317
0.0212266
0.551304
0.0197348
0.552361
0.0184478
0.553484
0.0171398
0.554661
0.0158593
0.55589
0.0145865
0.557176
0.0138299
0.558506
0.0127151
0.559874
0.0118519
0.0108554
0.561278
0.291579
-0.768415
-0.221107
0.351477
-0.646976
0.401597
-0.535337
0.442928
-0.436147
0.476552
-0.349574
0.503543
-0.275266
0.524915
-0.212392
0.541594
-0.159866
0.554401
-0.116504
0.564054
-0.0811328
0.57117
-0.0526261
0.576278
-0.0298717
0.579823
-0.0119776
0.582177
0.00187527
0.583649
0.0123936
0.584495
0.0201846
0.584927
0.0257642
0.585116
0.029566
0.585204
0.0319577
0.585305
0.033243
0.585513
0.0336861
0.585618
0.0342037
0.585715
0.0338168
0.585832
0.0329623
0.585999
0.0317809
0.586227
0.0303718
0.586533
0.0288136
0.58692
0.0271661
0.587396
0.0254783
0.587957
0.0237859
0.588608
0.0221174
0.589342
0.0204918
0.59016
0.0189183
0.591058
0.0175484
0.592035
0.0161655
0.593077
0.0148164
0.594183
0.0134823
0.595359
0.0126537
0.596589
0.0114868
0.59787
0.0105702
0.00953053
0.599197
0.313144
-0.844683
-0.236876
0.377982
-0.711813
0.432252
-0.589608
0.477024
-0.480918
0.513462
-0.386013
0.542726
-0.30453
0.565909
-0.235575
0.584007
-0.177965
0.597908
-0.130404
0.608383
-0.0916079
0.616098
-0.0603405
0.621621
-0.0353953
0.625433
-0.0157885
0.627932
-0.000623963
0.629453
0.0108734
0.63027
0.0193675
0.630612
0.0254241
0.63066
0.0295168
0.630572
0.0320484
0.630464
0.0333499
0.630443
0.0337095
0.630307
0.0343394
0.630157
0.0339695
0.630024
0.033095
0.629942
0.0318663
0.629923
0.0303896
0.62999
0.0287503
0.630143
0.0270123
0.630395
0.0252289
0.630741
0.0234384
0.63119
0.0216718
0.631731
0.0199494
0.632369
0.0182824
0.633099
0.0168173
0.63392
0.0153471
0.634818
0.0139171
0.635793
0.0125096
0.63685
0.0115964
0.637973
0.0103659
0.639158
0.0093841
0.00829036
0.640401
0.336432
-0.92726
-0.253855
0.40665
-0.782032
0.465444
-0.648401
0.513968
-0.529442
0.55348
-0.425525
0.58523
-0.33628
0.610396
-0.260741
0.630053
-0.197622
0.645155
-0.145506
0.656536
-0.102988
0.664912
-0.068716
0.670896
-0.0413788
0.675004
-0.0198959
0.677667
-0.00328641
0.679244
0.00929689
0.680032
0.0185807
0.680273
0.0251826
0.68017
0.0296213
0.679884
0.0323353
0.679549
0.0336869
0.679271
0.0339881
0.678872
0.0347409
0.678447
0.0343944
0.678042
0.0335025
0.677684
0.0322251
0.677399
0.030677
0.6772
0.0289497
0.677102
0.0271131
0.677106
0.0252242
0.677221
0.023325
0.677444
0.0214485
0.677778
0.0196176
0.678215
0.0178445
0.678763
0.0162716
0.679408
0.0147014
0.680149
0.0131782
0.680973
0.011685
0.681896
0.0106748
0.682893
0.00936893
0.683968
0.00831065
0.00715232
0.685106
0.361583
-1.01671
-0.272133
0.437667
-0.858115
0.501396