/*--------------------------------*- C++ -*----------------------------------*\
| =========                 |                                                 |
| \\      /  F ield         | OpenFOAM: The Open Source CFD Toolbox           |
|  \\    /   O peration     | Version:  2312                                  |
|   \\  /    A nd           | Website:  www.openfoam.com                      |
|    \\/     M anipulation  |                                                 |
\*---------------------------------------------------------------------------*/
FoamFile
{
    version     2.0;
    format      ascii;
    arch        "LSB;label=32;scalar=64";
    class       volScalarField;
    location    "400";
    object      turbulenceProperties:k;
}
// * * * * * * * * * * * * * * * * * * * * * * * * * * * * * * * * * * * * * //

dimensions      [0 2 -2 0 0 0 0];

internalField   nonuniform List<scalar> 
11040
(
0.337462
0.41582
0.0924357
0.0287502
0.199151
0.246477
0.235195
0.216527
0.194897
0.182224
0.167734
0.154774
0.142496
0.129473
0.114592
0.0980895
0.0782064
0.0536925
0.0255823
0.0201768
0.0177231
0.016418
0.0172473
0.0216067
0.0308724
0.0527111
0.0970769
0.14545
0.196303
0.244506
0.287576
0.312835
0.319902
0.316655
0.276763
0.164689
0.107131
0.0321973
0.0793461
0.291839
0.467402
0.0319665
0.0600415
0.204051
0.339404
0.751348
0.321113
0.0948492
0.0356798
0.0121755
0.00251832
0.0101988
0.0148521
0.018089
0.020175
0.0212844
0.0218846
0.0219131
0.0217868
0.0218756
0.0229014
0.026203
0.032309
0.0418977
0.0567409
0.0741908
0.0891108
0.0971815
0.100679
0.098581
0.0944013
0.0930161
0.0938977
0.101444
0.113737
0.128636
0.147238
0.175963
0.217564
0.253659
0.325436
0.455616
0.019549
0.0170785
0.030121
0.127109
0.759046
1.16531
0.717308
0.267862
0.126917
0.0734729
0.0406919
0.0220016
0.00889759
0.00700544
0.0124547
0.0181025
0.0221715
0.0250712
0.0274047
0.0308782
0.0371169
0.0474879
0.0615732
0.0782258
0.091901
0.0984766
0.0977152
0.093788
0.0928273
0.0932235
0.0983223
0.109609
0.126062
0.150158
0.185787
0.235413
0.303555
0.389887
0.507344
0.702799
0.749827
0.0143886
0.0117831
0.0107052
0.0114147
0.153485
0.853463
1.47128
1.13106
0.495344
0.260857
0.147431
0.0944229
0.0581987
0.0328735
0.0153311
0.0120433
0.0208639
0.0291272
0.0350514
0.0404169
0.0485686
0.062008
0.0779935
0.092939
0.101126
0.101236
0.0967159
0.0943443
0.0918242
0.0911606
0.0948171
0.106613
0.132985
0.179571
0.247698
0.339594
0.459795
0.611458
0.820713
1.17978
1.07867
0.0105735
0.00946766
0.00979971
0.00603219
0.00433416
0.131198
0.790457
1.62444
1.54506
0.845841
0.42926
0.256512
0.163854
0.10446
0.063247
0.0307785
0.0151368
0.0249493
0.0361035
0.0437524
0.0521736
0.0653044
0.0796538
0.0907012
0.0941986
0.0923116
0.0917381
0.0907639
0.0889806
0.0837243
0.0782149
0.0869843
0.129125
0.207346
0.316738
0.458735
0.640515
0.872034
1.15967
1.67606
1.51664
0.00760885
0.00693897
0.00654914
0.00740153
0.00309453
0.000881647
0.0837834
0.620705
1.58829
1.88261
1.32489
0.691382
0.416619
0.262592
0.170284
0.103098
0.052523
0.0197036
0.0231039
0.0340547
0.0411958
0.0510117
0.0627386
0.0719918
0.0776663
0.0847893
0.0944308
0.103385
0.105907
0.0950055
0.0692935
0.0514292
0.11122
0.227999
0.384711
0.582626
0.832055
1.14625
1.50103
2.12282
2.00436
0.00547272
0.00520975
0.0048528
0.0049828
0.00547151
0.00166875
1.82851e-05
0.0349408
0.406533
1.3329
2.04765
1.83749
1.13128
0.637174
0.41077
0.266699
0.162655
0.0877254
0.0363779
0.01245
0.0098097
0.0189872
0.0364618
0.0566184
0.0792197
0.105289
0.133137
0.156252
0.167369
0.157567
0.119929
0.0490668
0.068923
0.226141
0.432292
0.688317
1.0056
1.3926
1.80131
2.45121
2.43362
0.0039835
0.00387657
0.00380308
0.00361137
0.00378584
0.0042506
0.000626353
6.18018e-07
0.00783248
0.211922
0.936321
1.9243
2.21739
1.71017
1.02101
0.622138
0.407063
0.257876
0.147546
0.0834798
0.0539268
0.0519563
0.0690058
0.0987224
0.135873
0.17727
0.22005
0.257688
0.280549
0.277277
0.23791
0.153473
0.0185058
0.174642
0.428135
0.739571
1.11708
1.55667
2.00003
2.6005
2.67249
0.00293512
0.00288316
0.00287059
0.00283659
0.00269537
0.00293953
0.00307193
0.000849401
0.000213783
1.21428e-05
0.0757712
0.525238
1.4839
2.29878
2.25509
1.60954
0.972968
0.614284
0.396632
0.25245
0.170606
0.149854
0.160646
0.193384
0.239464
0.293949
0.35286
0.408263
0.447791
0.45705
0.422719
0.333027
0.181424
0.0514177
0.335505
0.692637
1.1136
1.57842
2.02804
2.52595
2.63372
0.00217633
0.00215038
0.00215521
0.00216586
0.0021412
0.00205072
0.00222885
0.00220379
0.00106385
6.64635e-05
0.0010248
0.0175376
0.225939
0.915891
1.94682
2.5247
2.25663
1.556
0.950646
0.604053
0.405488
0.316828
0.298638
0.325315
0.379148
0.450254
0.531096
0.610907
0.674714
0.705571
0.687634
0.606971
0.456809
0.254981
0.215769
0.540637
0.968668
1.42451
1.84266
2.21056
2.29452
0.00162166
0.00160869
0.00161697
0.0016336
0.00164763
0.00162832
0.00158553
0.00164836
0.00174063
0.00109348
2.34728e-06
0.000201981
3.33099e-06
0.0598112
0.420404
1.27996
2.27976
2.66142
2.25967
1.53091
0.940958
0.64078
0.52879
0.516627
0.560246
0.640137
0.743009
0.854302
0.956271
1.02733
1.04735
0.999829
0.879809
0.706735
0.549208
0.567288
0.830005
1.19172
1.51843
1.73331
1.73381
0.00121161
0.00120557
0.00121137
0.00122829
0.00124581
0.00125818
0.00125037
0.00122242
0.00123778
0.00134501
0.00100735
9.58288e-05
1.18509e-05
0.000917325
0.00663338
0.127502
0.61597
1.56073
2.49305
2.74094
2.26237
1.5594
1.06344
0.848286
0.807903
0.862628
0.970355
1.10512
1.24467
1.36607
1.44864
1.47581
1.44039
1.35332
1.25192
1.19309
1.22979
1.35778
1.49319
1.50885
1.32168
0.000906344
0.000904258
0.000907683
0.000920775
0.000938093
0.000953644
0.000964666
0.000964735
0.000946658
0.000947871
0.000997769
0.000913636
0.000301835
2.88047e-05
7.41541e-05
1.12367e-09
0.0208568
0.193338
0.759255
1.72437
2.59379
2.78165
2.37565
1.84007
1.4586
1.28771
1.27288
1.36667
1.52275
1.69175
1.84079
1.95457
2.02841
2.06949
2.09603
2.13147
2.18921
2.25709
2.2892
2.19947
1.87359
0.000677944
0.000678132
0.000679863
0.000689235
0.000703708
0.000718772
0.000731978
0.000742335
0.000745901
0.000738136
0.000732223
0.000761561
0.000749799
0.0005243
5.42443e-07
1.9368e-06
0.000450405
0.000576424
0.0341125
0.236048
0.820878
1.72399
2.51011
2.81246
2.67552
2.40552
2.18211
2.04355
1.99255
2.03484
2.16739
2.35342
2.54905
2.73178
2.90287
3.07108
3.23855
3.38884
3.49499
3.50419
3.2406
0.000506404
0.000507843
0.00050862
0.000515207
0.000526521
0.000539422
0.000552043
0.000563435
0.000572838
0.000578324
0.000576558
0.000571301
0.000580079
0.000594304
0.000510424
0.000124691
1.61748e-05
1.22265e-05
0.000681193
0.000111103
0.0368831
0.223558
0.682274
1.39334
2.14663
2.69755
2.97495
3.0908
3.13776
3.11665
3.04908
3.00112
3.04245
3.20045
3.45395
3.75762
4.06842
4.34654
4.57133
4.73047
4.62638
0.000377336
0.0003793
0.000379606
0.000384235
0.000392854
0.00040323
0.000414008
0.000424646
0.000434523
0.000442849
0.000448905
0.000450428
0.000448886
0.000446112
0.000465209
0.000432313
0.000338489
6.92648e-06
3.81882e-06
1.73262e-06
0.00100614
0.0013446
0.0224262
0.121238
0.386945
0.857074
1.49389
2.19263
2.84989
3.40931
3.84847
4.14164
4.27979
4.31293
4.33394
4.42366
4.61447
4.88204
5.18013
5.48778
5.5854
0.000280969
0.000282995
0.000283147
0.000286484
0.000293015
0.000301095
0.000309836
0.000318815
0.000327726
0.000336043
0.000343253
0.000348932
0.000352476
0.000352346
0.000352627
0.000354344
0.000360977
0.000312363
0.000175546
8.43124e-07
1.70009e-06
2.1503e-05
0.000456071
0.00210365
0.00401151
0.0322005
0.128858
0.346957
0.731212
1.29881
2.02289
2.83394
3.63621
4.33905
4.88858
5.27539
5.53381
5.71307
5.86425
6.04667
6.13522
0.000211409
0.000213321
0.000213526
0.000216136
0.000221244
0.000227634
0.0002347
0.000242173
0.000249786
0.00025726
0.000264222
0.000270383
0.000275527
0.000279394
0.000281025
0.000281457
0.000281429
0.000287162
0.000279185
0.000236306
9.91293e-05
1.05905e-05
1.09905e-06
1.96141e-10
5.2993e-05
0.000633826
0.00206853
0.000660186
0.0133289
0.0642531
0.195137
0.459981
0.903396
1.53798
2.32856
3.19469
4.04363
4.80179
5.43027
5.94741
6.2775
0.00016209
0.000163843
0.000164128
0.000166278
0.000170383
0.000175541
0.000181328
0.000187601
0.000194145
0.000200763
0.000207212
0.000213251
0.00021868
0.000223402
0.000227162
0.000229895
0.00023079
0.000232287
0.000233589
0.000236837
0.000221795
0.000179034
9.1628e-05
1.90795e-08
1.26535e-06
2.68981e-07
0
4.4458e-06
0.000214695
0.00123113
0.00283591
0.000108665
0.0119282
0.0614382
0.186357
0.426872
0.812072
1.34749
2.00593
2.74868
3.48026
0.000126527
0.000128062
0.000128394
0.000130199
0.000133546
0.000137752
0.000142515
0.000147747
0.000153303
0.000159022
0.000164774
0.000170393
0.000175735
0.000180662
0.000185061
0.000188863
0.000191912
0.000194124
0.000195595
0.000197739
0.000200961
0.000201452
0.000191227
0.000156274
0.000110094
2.63647e-05
4.2321e-06
8.50203e-07
2.96873e-07
0
0
6.08019e-07
0.000214443
0.00144164
0.00289835
0.000759195
0.00666763
0.0283044
0.0896336
0.211288
0.409606
0.000100065
0.000101379
0.000101736
0.000103265
0.000106026
0.000109485
0.000113435
0.000117803
0.000122505
0.000127392
0.000132396
0.000137409
0.00014234
0.000147083
0.000151564
0.000155689
0.000159446
0.000162746
0.000165609
0.000167918
0.000170467
0.000173702
0.000178113
0.000180221
0.00017731
0.000161134
0.000128589
9.18411e-05
3.39828e-05
4.59801e-06
7.89721e-07
5.26499e-07
1.4294e-07
0
0
8.91324e-06
0.000235047
0.00124839
0.0027413
0.00378645
0.00424201
7.99543e-05
8.10652e-05
8.14296e-05
8.27388e-05
8.50276e-05
8.78947e-05
9.11817e-05
9.48393e-05
9.88058e-05
0.000102971
0.000107271
0.000111655
0.000116046
0.000120383
0.000124609
0.000128666
0.000132522
0.000136147
0.000139564
0.000142725
0.000145679
0.000148622
0.000151927
0.000156243
0.000161073
0.000167002
0.000169332
0.000167237
0.00015693
0.000136152
0.000103276
7.07725e-05
2.05564e-05
3.2509e-06
6.62928e-07
4.43469e-07
2.51586e-07
1.91087e-08
0
0
0
6.43971e-05
6.53285e-05
6.56869e-05
6.68103e-05
6.87141e-05
7.10991e-05
7.38395e-05
7.69056e-05
8.0242e-05
8.37772e-05
8.74434e-05
9.1223e-05
9.50557e-05
9.89039e-05
0.000102717
0.000106471
0.000110127
0.000113677
0.000117114
0.00012045
0.000123683
0.000126851
0.000129952
0.000133202
0.000136726
0.000141054
0.000146355
0.000152018
0.000157914
0.000162659
0.000163385
0.000160735
0.00015149
0.000134078
0.00010898
7.50492e-05
4.47759e-05
3.59056e-06
1.32275e-06
4.87799e-07
3.86852e-07
5.21978e-05
5.29711e-05
5.33156e-05
5.42787e-05
5.58673e-05
5.78544e-05
6.01434e-05
6.27114e-05
6.5513e-05
6.85002e-05
7.16121e-05
7.48343e-05
7.8133e-05
8.14736e-05
8.48233e-05
8.81618e-05
9.14633e-05
9.47189e-05
9.7924e-05
0.000101079
0.000104185
0.000107246
0.000110257
0.000113232
0.000116223
0.000119279
0.000122574
0.000126202
0.000130341
0.000135066
0.000140245
0.000145323
0.000150544
0.000154732
0.000156789
0.000155333
0.000151826
0.000142297
0.000127264
0.000107006
8.80105e-05
4.25224e-05
4.31607e-05
4.34862e-05
4.43099e-05
4.56375e-05
4.72931e-05
4.92064e-05
5.13541e-05
5.37031e-05
5.62152e-05
5.88436e-05
6.157e-05
6.43795e-05
6.72373e-05
7.01243e-05
7.30201e-05
7.5909e-05
7.87776e-05
8.16254e-05
8.44437e-05
8.72325e-05
8.99762e-05
9.26652e-05
9.52951e-05
9.78887e-05
0.000100466
0.000103033
0.00010561
0.000108221
0.00011091
0.000113757
0.000116788
0.000120049
0.000123568
0.000127298
0.000131131
0.000134618
0.000138449
0.00014157
0.000142756
0.000144553
3.47796e-05
3.53032e-05
3.56054e-05
3.6309e-05
3.74186e-05
3.8798e-05
4.03963e-05
4.21896e-05
4.4155e-05
4.62581e-05
4.84678e-05
5.07608e-05
5.31302e-05
5.55467e-05
5.79966e-05
6.0461e-05
6.29304e-05
6.53889e-05
6.7836e-05
7.02614e-05
7.26591e-05
7.501e-05
7.72998e-05
7.95143e-05
8.1664e-05
8.37654e-05
8.58197e-05
8.783e-05
8.97893e-05
9.16956e-05
9.35466e-05
9.53597e-05
9.71262e-05
9.8869e-05
0.00010062
0.000102417
0.000104179
0.00010602
0.000108064
0.000109927
0.000112948
2.85353e-05
2.89652e-05
2.92412e-05
2.98411e-05
3.07677e-05
3.19179e-05
3.32511e-05
3.47471e-05
3.63861e-05
3.8141e-05
3.99882e-05
4.19066e-05
4.3887e-05
4.59118e-05
4.79639e-05
5.00311e-05
5.21019e-05
5.41653e-05
5.62148e-05
5.82441e-05
6.02392e-05
6.21854e-05
6.40686e-05
6.58683e-05
6.75893e-05
6.92451e-05
7.08357e-05
7.23585e-05
7.38144e-05
7.52028e-05
7.65201e-05
7.77648e-05
7.89299e-05
8.00189e-05
8.10406e-05
8.19916e-05
8.28451e-05
8.36255e-05
8.44143e-05
8.50093e-05
8.64515e-05
2.34706e-05
2.38214e-05
2.4071e-05
2.4583e-05
2.53567e-05
2.63161e-05
2.7427e-05
2.86733e-05
3.00367e-05
3.14967e-05
3.30336e-05
3.46296e-05
3.62753e-05
3.7959e-05
3.96621e-05
4.13758e-05
4.30899e-05
4.47941e-05
4.64806e-05
4.81438e-05
4.97689e-05
5.13402e-05
5.28526e-05
5.42797e-05
5.56254e-05
5.68955e-05
5.80964e-05
5.92225e-05
6.02768e-05
6.12565e-05
6.21642e-05
6.2998e-05
6.37559e-05
6.44412e-05
6.50627e-05
6.56148e-05
6.60763e-05
6.64689e-05
6.68312e-05
6.70446e-05
6.78231e-05
1.93409e-05
1.96279e-05
1.98523e-05
2.02886e-05
2.09353e-05
2.17353e-05
2.26601e-05
2.36964e-05
2.48278e-05
2.60383e-05
2.7311e-05
2.86321e-05
2.99918e-05
3.13804e-05
3.27819e-05
3.41882e-05
3.55899e-05
3.6978e-05
3.83456e-05
3.9687e-05
4.09863e-05
4.22314e-05
4.34208e-05
4.45284e-05
4.55582e-05
4.65147e-05
4.73998e-05
4.82106e-05
4.89494e-05
4.96162e-05
5.02131e-05
5.07404e-05
5.11964e-05
5.15862e-05
5.19167e-05
5.21867e-05
5.23823e-05
5.25252e-05
5.26249e-05
5.26549e-05
5.29789e-05
1.59606e-05
1.61945e-05
1.63966e-05
1.67687e-05
1.73096e-05
1.79765e-05
1.87465e-05
1.96066e-05
2.05437e-05
2.15437e-05
2.25936e-05
2.36813e-05
2.47985e-05
2.59347e-05
2.7079e-05
2.82214e-05
2.93557e-05
3.04725e-05
3.1565e-05
3.26294e-05
3.36499e-05
3.46169e-05
3.55337e-05
3.6376e-05
3.71436e-05
3.78438e-05
3.8479e-05
3.90472e-05
3.95479e-05
3.9984e-05
4.03566e-05
4.06683e-05
4.09182e-05
4.11114e-05
4.12529e-05
4.13421e-05
4.13711e-05
4.13597e-05
4.12959e-05
4.12271e-05
4.12028e-05
1.31832e-05
1.33756e-05
1.35571e-05
1.38749e-05
1.43285e-05
1.4885e-05
1.55259e-05
1.62392e-05
1.70139e-05
1.78382e-05
1.87012e-05
1.9593e-05
2.05057e-05
2.14306e-05
2.2358e-05
2.32794e-05
2.41884e-05
2.50777e-05
2.594e-05
2.6774e-05
2.75623e-05
2.83003e-05
2.89925e-05
2.96195e-05
3.01795e-05
3.06795e-05
3.11204e-05
3.15037e-05
3.18285e-05
3.20974e-05
3.23114e-05
3.24733e-05
3.25828e-05
3.26439e-05
3.26606e-05
3.26329e-05
3.25569e-05
3.24503e-05
3.22851e-05
3.21676e-05
3.18805e-05
1.08952e-05
1.10543e-05
1.12185e-05
1.14911e-05
1.18722e-05
1.23374e-05
1.28709e-05
1.3462e-05
1.41013e-05
1.47789e-05
1.54857e-05
1.62137e-05
1.69553e-05
1.77038e-05
1.84505e-05
1.91878e-05
1.99095e-05
2.06111e-05
2.12847e-05
2.19302e-05
2.25312e-05
2.30853e-05
2.35994e-05
2.40566e-05
2.44554e-05
2.48018e-05
2.50972e-05
2.53418e-05
2.55366e-05
2.56834e-05
2.5784e-05
2.58399e-05
2.58526e-05
2.58248e-05
2.57599e-05
2.56574e-05
2.55168e-05
2.53545e-05
2.51299e-05
2.49947e-05
2.45129e-05
9.0061e-06
9.13993e-06
9.28844e-06
9.52382e-06
9.8452e-06
1.02347e-05
1.06788e-05
1.11687e-05
1.16954e-05
1.22516e-05
1.28285e-05
1.34201e-05
1.40196e-05
1.46217e-05
1.52183e-05
1.58035e-05
1.63716e-05
1.69187e-05
1.74386e-05
1.79317e-05
1.83829e-05
1.87905e-05
1.91646e-05
1.94891e-05
1.97636e-05
1.99929e-05
2.0179e-05
2.0322e-05
2.04226e-05
2.04824e-05
2.05038e-05
2.04879e-05
2.04368e-05
2.03526e-05
2.0238e-05
2.00927e-05
1.99174e-05
1.97278e-05
1.9475e-05
1.9344e-05
1.8725e-05
7.44362e-06
7.55779e-06
7.69375e-06
7.89786e-06
8.17017e-06
8.4972e-06
8.86796e-06
9.27393e-06
9.70817e-06
1.01635e-05
1.06337e-05
1.11125e-05
1.15954e-05
1.20766e-05
1.25504e-05
1.30109e-05
1.34544e-05
1.38766e-05
1.42738e-05
1.46451e-05
1.49788e-05
1.52724e-05
1.5538e-05
1.57617e-05
1.59435e-05
1.60864e-05
1.61932e-05
1.62638e-05
1.62994e-05
1.63011e-05
1.62708e-05
1.62099e-05
1.61202e-05
1.60036e-05
1.58619e-05
1.56952e-05
1.55049e-05
1.53062e-05
1.50446e-05
1.49283e-05
1.4219e-05
6.14974e-06
6.24944e-06
6.37423e-06
6.55293e-06
6.7851e-06
7.06104e-06
7.37132e-06
7.70846e-06
8.06638e-06
8.43907e-06
8.82126e-06
9.20774e-06
9.59469e-06
9.97734e-06
1.03509e-05
1.07103e-05
1.10528e-05
1.13747e-05
1.1673e-05
1.19474e-05
1.21877e-05
1.23923e-05
1.25731e-05
1.27188e-05
1.28291e-05
1.29072e-05
1.29551e-05
1.29732e-05
1.29624e-05
1.29237e-05
1.28586e-05
1.27686e-05
1.26554e-05
1.25206e-05
1.23654e-05
1.219e-05
1.19962e-05
1.17983e-05
1.15401e-05
1.14413e-05
1.06837e-05
5.07729e-06
5.16631e-06
5.28211e-06
5.43971e-06
5.63936e-06
5.87352e-06
6.13424e-06
6.41495e-06
6.71033e-06
7.01538e-06
7.32558e-06
7.63676e-06
7.9456e-06
8.24841e-06
8.54114e-06
8.81981e-06
9.08209e-06
9.32538e-06
9.54725e-06
9.74796e-06
9.91834e-06
1.00574e-05
1.01766e-05
1.0267e-05
1.03277e-05
1.03616e-05
1.03704e-05
1.03546e-05
1.03148e-05
1.02522e-05
1.01681e-05
1.00636e-05
9.9404e-06
9.79988e-06
9.64284e-06
9.46954e-06
9.28176e-06
9.09284e-06
8.8469e-06
8.76738e-06
7.99371e-06
4.18813e-06
4.26963e-06
4.37759e-06
4.51818e-06
4.69133e-06
4.89133e-06
5.11165e-06
5.34619e-06
5.59067e-06
5.84049e-06
6.09218e-06
6.34199e-06
6.58743e-06
6.82536e-06
7.05265e-06
7.2657e-06
7.46301e-06
7.64255e-06
7.80229e-06
7.9428e-06
8.05645e-06
8.14256e-06
8.21167e-06
8.25704e-06
8.27823e-06
8.27737e-06
8.25588e-06
8.21461e-06
8.15414e-06
8.07546e-06
7.97955e-06
7.86749e-06
7.74068e-06
7.60032e-06
7.44689e-06
7.28072e-06
7.10337e-06
6.92719e-06
6.69888e-06
6.63541e-06
5.8787e-06
3.45088e-06
3.52716e-06
3.6287e-06
3.75533e-06
3.90696e-06
4.07939e-06
4.26646e-06
4.46348e-06
4.66625e-06
4.87143e-06
5.07552e-06
5.27606e-06
5.47045e-06
5.65709e-06
5.83295e-06
5.99577e-06
6.14402e-06
6.27685e-06
6.39227e-06
6.4913e-06
6.56709e-06
6.61934e-06
6.65754e-06
6.6762e-06
6.67485e-06
6.65542e-06
6.61898e-06
6.56628e-06
6.49783e-06
6.41452e-06
6.3172e-06
6.20667e-06
6.08436e-06
5.9512e-06
5.80779e-06
5.65437e-06
5.49243e-06
5.33293e-06
5.12686e-06
5.08051e-06
4.35766e-06
2.84013e-06
2.91286e-06
3.00881e-06
3.12419e-06
3.25854e-06
3.40834e-06
3.56842e-06
3.7346e-06
3.90342e-06
4.07209e-06
4.23769e-06
4.39817e-06
4.5512e-06
4.69554e-06
4.82858e-06
4.94853e-06
5.05465e-06
5.14639e-06
5.2223e-06
5.2832e-06
5.32395e-06
5.34449e-06
5.35335e-06
5.34645e-06
5.32361e-06
5.28639e-06
5.23588e-06
5.17268e-06
5.09735e-06
5.01048e-06
4.91285e-06
4.80504e-06
4.6883e-06
4.56334e-06
4.4306e-06
4.29019e-06
4.14364e-06
3.99985e-06
3.81642e-06
3.77755e-06
3.11823e-06
2.33445e-06
2.40485e-06
2.49616e-06
2.60224e-06
2.72246e-06
2.85385e-06
2.99184e-06
3.13277e-06
3.27387e-06
3.41278e-06
3.54739e-06
3.6761e-06
3.79752e-06
3.91093e-06
4.01459e-06
4.10669e-06
4.18699e-06
4.25512e-06
4.31023e-06
4.35271e-06
4.37856e-06
4.38704e-06
4.38571e-06
4.37115e-06
4.34333e-06
4.30357e-06
4.25283e-06
4.19168e-06
4.12066e-06
4.04041e-06
3.95157e-06
3.85473e-06
3.75094e-06
3.64091e-06
3.52514e-06
3.40388e-06
3.27837e-06
3.15581e-06
3.00074e-06
2.97522e-06
2.38482e-06
1.91606e-06
1.98525e-06
2.07276e-06
2.17123e-06
2.27953e-06
2.39528e-06
2.51468e-06
2.63482e-06
2.75327e-06
2.8681e-06
2.97747e-06
3.07987e-06
3.17386e-06
3.25832e-06
3.33187e-06
3.39359e-06
3.44374e-06
3.48236e-06
3.50922e-06
3.52471e-06
3.52617e-06
3.51385e-06
3.49403e-06
3.46417e-06
3.42441e-06
3.3758e-06
3.31927e-06
3.25526e-06
3.18426e-06
3.10664e-06
3.02302e-06
2.93374e-06
2.83969e-06
2.74129e-06
2.63904e-06
2.53284e-06
2.4245e-06
2.3181e-06
2.1892e-06
2.15876e-06
1.67695e-06
1.57154e-06
1.64038e-06
1.72509e-06
1.81729e-06
1.91527e-06
2.017e-06
2.11994e-06
2.2219e-06
2.32136e-06
2.41675e-06
2.50676e-06
2.59038e-06
2.66734e-06
2.73771e-06
2.80082e-06
2.85472e-06
2.89897e-06
2.93349e-06
2.95822e-06
2.97349e-06
2.97718e-06
2.96829e-06
2.95279e-06
2.92867e-06
2.8961e-06
2.85587e-06
2.80886e-06
2.75556e-06
2.69657e-06
2.63234e-06
2.56352e-06
2.49059e-06
2.41437e-06
2.33529e-06
2.25406e-06
2.17077e-06
2.08693e-06
2.00498e-06
1.90787e-06
1.89069e-06
1.49152e-06
1.292e-06
1.36043e-06
1.44174e-06
1.52788e-06
1.61658e-06
1.70615e-06
1.79457e-06
1.8804e-06
1.96295e-06
2.04132e-06
2.11427e-06
2.17992e-06
2.23628e-06
2.28164e-06
2.31566e-06
2.33965e-06
2.35536e-06
2.36333e-06
2.36362e-06
2.35629e-06
2.34038e-06
2.31646e-06
2.28823e-06
2.2544e-06
2.2152e-06
2.17132e-06
2.12336e-06
2.07168e-06
2.01668e-06
1.95876e-06
1.89833e-06
1.83574e-06
1.77166e-06
1.70646e-06
1.6407e-06
1.57413e-06
1.50941e-06
1.44469e-06
1.37931e-06
1.34276e-06
1.10831e-06
1.06661e-06
1.13378e-06
1.20969e-06
1.28739e-06
1.36556e-06
1.44365e-06
1.5203e-06
1.59407e-06
1.66372e-06
1.72868e-06
1.78916e-06
1.84629e-06
1.90131e-06
1.95495e-06
2.00545e-06
2.04812e-06
2.08038e-06
2.10328e-06
2.11764e-06
2.12437e-06
2.12248e-06
2.11135e-06
2.09536e-06
2.07357e-06
2.04638e-06
2.01461e-06
1.97903e-06
1.9402e-06
1.89865e-06
1.85496e-06
1.80974e-06
1.76355e-06
1.71693e-06
1.67037e-06
1.62464e-06
1.5798e-06
1.53743e-06
1.49614e-06
1.45552e-06
1.44435e-06
1.24496e-06
8.78156e-07
9.45756e-07
1.01687e-06
1.08503e-06
1.15016e-06
1.21391e-06
1.27718e-06
1.33986e-06
1.40096e-06
1.45799e-06
1.50751e-06
1.54592e-06
1.571e-06
1.58256e-06
1.58381e-06
1.5819e-06
1.58037e-06
1.57713e-06
1.57073e-06
1.56036e-06
1.54571e-06
1.52738e-06
1.50694e-06
1.48385e-06
1.45832e-06
1.43095e-06
1.40216e-06
1.37236e-06
1.34186e-06
1.31105e-06
1.28024e-06
1.24979e-06
1.22018e-06
1.19169e-06
1.16484e-06
1.13908e-06
1.11765e-06
1.09347e-06
1.08485e-06
1.04234e-06
1.02079e-06
7.20636e-07
7.95582e-07
8.6979e-07
9.34928e-07
9.90437e-07
1.039e-06
1.08327e-06
1.12579e-06
1.16909e-06
1.21565e-06
1.26736e-06
1.32539e-06
1.389e-06
1.45605e-06
1.52064e-06
1.57091e-06
1.6031e-06
1.62416e-06
1.63686e-06
1.64255e-06
1.64093e-06
1.63241e-06
1.61985e-06
1.60309e-06
1.58296e-06
1.56027e-06
1.53578e-06
1.51006e-06
1.48377e-06
1.45754e-06
1.43199e-06
1.40773e-06
1.38529e-06
1.36519e-06
1.3483e-06
1.33486e-06
1.32625e-06
1.3198e-06
1.32345e-06
1.32677e-06
1.2835e-06
6.15018e-07
6.88825e-07
7.5937e-07
8.23007e-07
8.79082e-07
9.2788e-07
9.6837e-07
9.99449e-07
1.02054e-06
1.03209e-06
1.03523e-06
1.03159e-06
1.02328e-06
1.01128e-06
9.97971e-07
9.93608e-07
9.99061e-07
1.00674e-06
1.01408e-06
1.01936e-06
1.02214e-06
1.02259e-06
1.02163e-06
1.01927e-06
1.01566e-06
1.01118e-06
1.00632e-06
1.00132e-06
9.96435e-07
9.91818e-07
9.87723e-07
9.84194e-07
9.8139e-07
9.79139e-07
9.77735e-07
9.76363e-07
9.77342e-07
9.73512e-07
9.83748e-07
9.47069e-07
9.93354e-07
7.05553e-07
8.19683e-07
8.88404e-07
9.11015e-07
9.01261e-07
8.79392e-07
8.65709e-07
8.74477e-07
9.10146e-07
9.67552e-07
1.03684e-06
1.10803e-06
1.17362e-06
1.23007e-06
1.27446e-06
1.29628e-06
1.29637e-06
1.28508e-06
1.26804e-06
1.24776e-06
1.2238e-06
1.20058e-06
1.1758e-06
1.15092e-06
1.12698e-06
1.10446e-06
1.08372e-06
1.06521e-06
1.04935e-06
1.03649e-06
1.02695e-06
1.02109e-06
1.01918e-06
1.02144e-06
1.02843e-06
1.04005e-06
1.0583e-06
1.07714e-06
1.11743e-06
1.10781e-06
1.21956e-06
8.83241
8.92664
7.3457
6.3925
5.92262
5.45384
4.77396
3.83805
2.68201
1.45513
0.417309
0.292021
0.282148
0.0432926
0.00235659
1.15255e-06
0.000179034
0.000397558
0.000355325
0.000294679
0.00026436
0.00023432
0.000213644
0.000196018
0.000180651
0.000166751
0.000152713
0.000139658
0.0001267
0.000115253
0.000103588
9.38571e-05
8.46582e-05
7.65596e-05
6.97254e-05
6.37358e-05
5.85906e-05
5.42026e-05
5.05276e-05
4.72426e-05
4.42927e-05
4.16662e-05
3.91993e-05
3.67965e-05
3.44723e-05
3.22305e-05
2.99998e-05
2.78236e-05
2.57024e-05
2.362e-05
2.16002e-05
1.96337e-05
1.77504e-05
1.59442e-05
1.41959e-05
1.25297e-05
1.09867e-05
9.50938e-06
8.17199e-06
6.92859e-06
5.83522e-06
4.82125e-06
4.00815e-06
3.3095e-06
2.72159e-06
2.30882e-06
1.98295e-06
1.77106e-06
1.68665e-06
1.53337e-06
1.62945e-06
1.37499e-06
1.65837e-06
1.31649e-06
8.3706
11.8726
10.3588
8.74149
7.75789
7.06152
6.36499
5.47184
4.29015
2.87749
1.43917
0.300155
0.288579
0.18057
0.0123677
0.000245273
1.37745e-05
0.000318572
0.000384368
0.000311058
0.00027184
0.000239099
0.000215991
0.000196351
0.00017971
0.000165277
0.00015113
0.000138084
0.000125096
0.000113891
0.00010231
9.24807e-05
8.33933e-05
7.50558e-05
6.82044e-05
6.21611e-05
5.68738e-05
5.23983e-05
4.86611e-05
4.53065e-05
4.2269e-05
3.9634e-05
3.71784e-05
3.47799e-05
3.24962e-05
3.03385e-05
2.81726e-05
2.60801e-05
2.40805e-05
2.20971e-05
2.01799e-05
1.83306e-05
1.65541e-05
1.48649e-05
1.32077e-05
1.16522e-05
1.02257e-05
8.84713e-06
7.61774e-06
6.46845e-06
5.46812e-06
4.53804e-06
3.81229e-06
3.18117e-06
2.64673e-06
2.27428e-06
1.98325e-06
1.77933e-06
1.69247e-06
1.52954e-06
1.61984e-06
1.34646e-06
1.63473e-06
1.26846e-06
6.47993
12.1643
12.3397
10.8373
9.61065
8.77959
8.09384
7.28639
6.17408
4.71251
3.0257
1.39838
0.204703
0.258024
0.103293
0.00223055
4.61804e-05
3.75398e-08
0.00030754
0.000342715
0.00028714
0.000248768
0.000221873
0.000199198
0.000180206
0.000163994
0.000149629
0.000136181
0.000122944
0.000111469
0.000100262
9.01696e-05
8.12638e-05
7.2784e-05
6.58615e-05
5.97857e-05
5.43963e-05
4.98664e-05
4.60869e-05
4.27012e-05
3.96367e-05
3.70332e-05
3.46281e-05
3.22943e-05
3.01006e-05
2.80598e-05
2.60128e-05
2.40489e-05
2.21978e-05
2.03524e-05
1.85738e-05
1.68698e-05
1.52307e-05
1.36808e-05
1.21454e-05
1.07329e-05
9.43417e-06
8.18332e-06
7.07166e-06
6.04096e-06
5.13812e-06
4.32277e-06
3.68127e-06
3.12091e-06
2.65068e-06
2.31752e-06
2.04667e-06
1.84647e-06
1.74783e-06
1.58008e-06
1.63382e-06
1.3522e-06
1.62612e-06
1.24119e-06
4.98797
11.0783
13.0912
12.4789
11.4159
10.5511
9.84897
9.10059
8.0999
6.71897
4.97312
3.05317
1.30333
0.125771
0.212996
0.0598007
0.000752073
8.47317e-07
3.17697e-06
0.000283934
0.000304102
0.000259243
0.000227919
0.00020255
0.000181236
0.000163313
0.000148182
0.000134218
0.00012081
0.000109035
9.79851e-05
8.7732e-05
7.88674e-05
7.03472e-05
6.33469e-05
5.72208e-05
5.17621e-05
4.719e-05
4.33738e-05
3.99757e-05
3.69162e-05
3.43599e-05
3.20193e-05
2.97752e-05
2.76946e-05
2.57727e-05
2.38663e-05
2.20477e-05
2.03418e-05
1.86438e-05
1.70131e-05
1.54555e-05
1.39582e-05
1.25461e-05
1.1144e-05
9.87514e-06
8.69716e-06
7.57645e-06
6.57713e-06
5.66386e-06
4.85499e-06
4.14864e-06
3.58068e-06
3.08032e-06
2.66928e-06
2.36415e-06
2.11125e-06
1.91139e-06
1.8017e-06
1.62759e-06
1.65262e-06
1.36253e-06
1.62013e-06
1.2189e-06
3.99535
9.44438
12.7164
13.344
12.8505
12.1487
11.4831
10.8009
9.947
8.75317
7.13273
5.14892
3.04742
1.21958
0.0873929
0.168614
0.0373102
0.00514774
3.83073e-07
2.92615e-05
0.0002751
0.000275168
0.000233918
0.000205262
0.000182258
0.000162984
0.000146794
0.000132246
0.000118714
0.000106742
9.56695e-05
8.53374e-05
7.64191e-05
6.78939e-05
6.08274e-05
5.46277e-05
4.91174e-05
4.45162e-05
4.06627e-05
3.7258e-05
3.42297e-05
3.17273e-05
2.94605e-05
2.73165e-05
2.53589e-05
2.35635e-05
2.18014e-05
2.01315e-05
1.85715e-05
1.70227e-05
1.55404e-05
1.41271e-05
1.27696e-05
1.14927e-05
1.02259e-05
9.0899e-06
8.0298e-06
7.03177e-06
6.1401e-06
5.33401e-06
4.61496e-06
4.00126e-06
3.49667e-06
3.04578e-06
2.68463e-06
2.39682e-06
2.16515e-06
1.96282e-06
1.84439e-06
1.6616e-06
1.67172e-06
1.37247e-06
1.615e-06
1.20064e-06
3.34631
7.70933
11.5591
13.3455
13.6653
13.3431
12.8253
12.2483
11.5663
10.629
9.28556
7.47468
5.29935
3.05271
1.16674
0.0881174
0.134473
0.0241308
0.00358721
2.42675e-06
5.08518e-05
0.000260965
0.000251704
0.000210981
0.00018383
0.000163183
0.000145896
0.000130661
0.000116846
0.0001047
9.3522e-05
8.31144e-05
7.40963e-05
6.55453e-05
5.84003e-05
5.21108e-05
4.65457e-05
4.19147e-05
3.80235e-05
3.46138e-05
3.1629e-05
2.91841e-05
2.69951e-05
2.4957e-05
2.31233e-05
2.14605e-05
1.98416e-05
1.83173e-05
1.69042e-05
1.55035e-05
1.41666e-05
1.28956e-05
1.16749e-05
1.05309e-05
9.39597e-06
8.3856e-06
7.44184e-06
6.55908e-06
5.77103e-06
5.06204e-06
4.42797e-06
3.89049e-06
3.44115e-06
3.03349e-06
2.70946e-06
2.43627e-06
2.2181e-06
2.01337e-06
1.88616e-06
1.69551e-06
1.69297e-06
1.38893e-06
1.61382e-06
1.19086e-06
2.97693
6.11648
10.0018
12.589
13.7283
13.9306
13.6897
13.2868
12.8034
12.1569
11.1867
9.74478
7.7907
5.46047
3.09116
1.14868
0.113454
0.11155
0.0168349
0.00283475
3.81851e-06
4.61082e-05
0.000233711
0.000228404
0.000189511
0.000164299
0.000145701
0.000129678
0.000115396
0.00010298
9.16538e-05
8.11324e-05
7.19952e-05
6.33875e-05
5.61316e-05
4.97387e-05
4.41157e-05
3.94385e-05
3.55024e-05
3.20894e-05
2.9151e-05
2.67629e-05
2.46516e-05
2.27222e-05
2.10105e-05
1.9479e-05
1.80018e-05
1.66191e-05
1.53491e-05
1.40929e-05
1.28969e-05
1.17645e-05
1.06767e-05
9.66207e-06
8.65424e-06
7.76523e-06
6.93391e-06
6.16003e-06
5.47e-06
4.84995e-06
4.29371e-06
3.82026e-06
3.41909e-06
3.04928e-06
2.75161e-06
2.49197e-06
2.27784e-06
2.07065e-06
1.93357e-06
1.73698e-06
1.71829e-06
1.41417e-06
1.61744e-06
1.18826e-06
2.75229
4.77392
8.34141
11.2939
13.0536
13.7945
13.9218
13.77
13.5179
13.171
12.609
11.6533
10.1609
8.10605
5.65442
3.17362
1.16963
0.150633
0.0967907
0.013536
0.00261563
3.17149e-06
2.36353e-05
0.00019689
0.000205768
0.000170273
0.000146486
0.000129247
0.000114468
0.000101648
9.01146e-05
7.94356e-05
7.01453e-05
6.14562e-05
5.40627e-05
4.75563e-05
4.18699e-05
3.71286e-05
3.31395e-05
2.97214e-05
2.68235e-05
2.44879e-05
2.24518e-05
2.06288e-05
1.90361e-05
1.76297e-05
1.62907e-05
1.5046e-05
1.3912e-05
1.27942e-05
1.17341e-05
1.07346e-05
9.77481e-06
8.88351e-06
7.99768e-06
7.22502e-06
6.49971e-06
5.82809e-06
5.22805e-06
4.68993e-06
4.20245e-06
3.7849e-06
3.42536e-06
3.08692e-06
2.80946e-06
2.56049e-06
2.34595e-06
2.13587e-06
1.98832e-06
1.78701e-06
1.74965e-06
1.4476e-06
1.62653e-06
1.1905e-06
2.47728
3.67473
6.73667
9.67901
11.7789
12.9424
13.4497
13.5987
13.6061
13.5515
13.38
12.9369
12.0381
10.5424
8.43494
5.89259
3.31043
1.23313
0.198519
0.0889676
0.0126872
0.00285705
1.34948e-06
2.66185e-06
0.000151831
0.000181975
0.000152711
0.000129955
0.000114003
0.000100781
8.89671e-05
7.80975e-05
6.86072e-05
5.97967e-05
5.22339e-05
4.55971e-05
3.98336e-05
3.5009e-05
3.09577e-05
2.7533e-05
2.46689e-05
2.23763e-05
2.04116e-05
1.86907e-05
1.72107e-05
1.59216e-05
1.47142e-05
1.36017e-05
1.25963e-05
1.16096e-05
1.06794e-05
9.80633e-06
8.96791e-06
8.19277e-06
7.42329e-06
6.75974e-06
6.13288e-06
5.55592e-06
5.03683e-06
4.57317e-06
4.14508e-06
3.77717e-06
3.45324e-06
3.13995e-06
2.87905e-06
2.63731e-06
2.42186e-06
2.20882e-06
2.05078e-06
1.84515e-06
1.7886e-06
1.48975e-06
1.6428e-06
1.19782e-06
2.02954
2.73181
5.22945
7.88788
10.0617
11.4914
12.3113
12.7532
13.0241
13.2395
13.4061
13.4245
13.1274
12.3281
10.887
8.77941
6.18439
3.50937
1.35204