/*--------------------------------*- C++ -*----------------------------------*\
| =========                 |                                                 |
| \\      /  F ield         | OpenFOAM: The Open Source CFD Toolbox           |
|  \\    /   O peration     | Version:  2312                                  |
|   \\  /    A nd           | Website:  www.openfoam.com                      |
|    \\/     M anipulation  |                                                 |
\*---------------------------------------------------------------------------*/
FoamFile
{
    version     2.0;
    format      ascii;
    arch        "LSB;label=32;scalar=64";
    class       volSymmTensorField;
    location    "400";
    object      turbulenceProperties:R;
}
// * * * * * * * * * * * * * * * * * * * * * * * * * * * * * * * * * * * * * //

dimensions      [0 2 -2 0 0 0 0];

internalField   nonuniform List<symmTensor> 
11040
(
(0.238258 0.0571383 8.98977e-23 0.205779 5.12979e-21 0.230887)
(0.331587 0.0647586 7.53703e-21 0.212547 8.54797e-20 0.287506)
(0.072807 0.00757422 -1.10671e-20 0.0511079 5.83859e-20 0.0609566)
(0.018605 0.004814 -2.91235e-20 0.0202624 2.10074e-20 0.0186331)
(0.0864194 0.0336871 -1.64503e-20 0.178422 1.35654e-19 0.133461)
(0.113338 0.0489548 -2.25498e-19 0.216147 8.37864e-20 0.163468)
(0.113243 0.051293 1.30681e-19 0.200617 -8.43882e-19 0.156531)
(0.108725 0.0502689 1.83599e-19 0.180072 -1.23674e-19 0.144258)
(0.101846 0.0471072 7.54886e-20 0.158018 -2.26428e-20 0.12993)
(0.0983947 0.0453701 7.32842e-20 0.144539 1.12886e-19 0.121515)
(0.0932479 0.0424645 -6.33844e-20 0.130372 2.668e-19 0.111848)
(0.0883512 0.0396046 -8.98398e-20 0.117976 1.95288e-19 0.103221)
(0.0832904 0.0366179 1.58578e-20 0.106686 -1.1314e-19 0.0950158)
(0.0773244 0.0331963 1.96254e-20 0.095317 1.0215e-19 0.0863046)
(0.0698458 0.0290328 -9.28947e-21 0.0829679 1.06885e-20 0.0763694)
(0.0609169 0.0242456 -3.42615e-21 0.0699184 -1.26988e-19 0.0653437)
(0.0494583 0.0183193 3.11916e-20 0.0548708 -3.27873e-21 0.0520837)
(0.0345858 0.0109511 -1.63806e-21 0.037051 1.39867e-19 0.0357481)
(0.0167972 0.0033745 -4.54291e-21 0.0173336 4.49341e-22 0.0170338)
(0.0133451 0.00252293 7.32222e-22 0.013577 -7.60705e-21 0.0134314)
(0.0118103 0.00233831 4.50408e-21 0.0118366 8.44098e-21 0.0117994)
(0.0110521 0.00233369 -4.82115e-21 0.0108452 3.25967e-20 0.0109386)
(0.0117687 0.00268382 -1.38591e-21 0.0112187 -4.02132e-20 0.0115072)
(0.0149955 0.00375155 6.06954e-21 0.0137829 8.55997e-20 0.0144349)
(0.0217825 0.0059379 -3.07444e-20 0.0193289 -9.2098e-20 0.0206333)
(0.0378858 0.0118727 -1.59763e-20 0.0323054 -2.54069e-19 0.035231)
(0.0709226 0.0251134 1.23996e-20 0.0583703 -1.58765e-19 0.0648608)
(0.107126 0.0393725 1.46066e-20 0.0866283 1.11104e-20 0.097145)
(0.145332 0.0542836 -1.78166e-20 0.116256 -1.60888e-19 0.131017)
(0.181739 0.0683845 1.47097e-20 0.144165 -3.59785e-19 0.163108)
(0.214358 0.081029 1.04852e-19 0.169045 3.08574e-19 0.191748)
(0.233593 0.0884897 2.51595e-20 0.183526 2.02857e-20 0.208552)
(0.239096 0.0907428 1.01131e-19 0.187505 8.98779e-19 0.213203)
(0.23672 0.0901559 -8.20062e-20 0.185642 5.7857e-19 0.210948)
(0.206337 0.0790337 4.31405e-20 0.162972 -2.24295e-21 0.184216)
(0.121368 0.0466729 1.01595e-19 0.0984953 6.97635e-19 0.109516)
(0.0762033 0.0310379 4.01539e-21 0.06684 1.61877e-19 0.071218)
(0.0169268 0.00819182 -5.90101e-21 0.0264047 6.3878e-19 0.0210632)
(0.0349705 -0.015434 -4.25829e-19 0.0703876 -1.0598e-18 0.0533341)
(0.154058 -0.0767693 3.37215e-20 0.235052 -7.70731e-19 0.194568)
(0.213689 -0.0949472 1.58957e-19 0.416985 4.66843e-20 0.304131)
(0.0228118 -0.00164842 9.94448e-23 0.0202276 -3.80823e-22 0.0208936)
(0.0503913 -0.00130377 1.56864e-20 0.0341293 5.53002e-21 0.0355622)
(0.17523 0.0217045 1.2693e-20 0.0966963 -2.15619e-19 0.136176)
(0.313644 0.0224809 4.1449e-20 0.137425 -1.20304e-19 0.227739)
(0.726554 -0.0151018 5.51924e-20 0.277578 -3.70283e-19 0.498564)
(0.295512 -0.0504006 4.62024e-19 0.131587 -9.96725e-19 0.215127)
(0.0833248 -0.020565 -6.61394e-19 0.0442686 2.56951e-18 0.062105)
(0.0293387 -0.00912349 -6.80543e-19 0.01822 1.72124e-18 0.0238009)
(0.00940103 -0.00337159 -5.88932e-20 0.00668313 -1.22482e-19 0.00826677)
(0.000909847 0.000184657 -8.60021e-20 0.00230676 3.22193e-20 0.00182003)
(0.00487912 0.00238501 3.74148e-19 0.00866356 -9.34649e-19 0.00685486)
(0.00762117 0.00382662 -1.22779e-20 0.0120757 -5.6362e-20 0.0100074)
(0.00965747 0.0048594 -1.37379e-19 0.014294 5.57678e-19 0.0122265)
(0.0109996 0.00551693 -9.95292e-20 0.0157083 4.11724e-20 0.0136421)
(0.0118529 0.00591633 -3.45074e-20 0.0162705 -1.59404e-19 0.0144454)
(0.0123504 0.00613378 7.91559e-21 0.016543 5.26834e-19 0.0148758)
(0.0125174 0.00618078 -1.03417e-20 0.0163887 1.89536e-19 0.0149201)
(0.012626 0.00618847 -1.27415e-21 0.01609 -5.43843e-19 0.0148576)
(0.0129502 0.00627639 -1.99681e-20 0.0158582 -2.53786e-20 0.0149429)
(0.0139776 0.00665801 -7.84417e-21 0.016232 1.01721e-19 0.0155932)
(0.0166872 0.00772485 -1.62756e-20 0.0180477 -6.60413e-20 0.0176712)
(0.0216226 0.00959095 2.13698e-20 0.0214388 -5.14708e-19 0.0215565)
(0.0293481 0.0123939 5.92479e-20 0.0267319 7.34971e-19 0.0277154)
(0.0412568 0.0166026 -7.69057e-20 0.0348631 -7.25787e-19 0.037362)
(0.0554142 0.0214111 1.76523e-20 0.0441848 6.3459e-19 0.0487826)
(0.0677175 0.0254044 1.09072e-19 0.0518945 1.44746e-18 0.0586096)
(0.074554 0.0274913 1.5567e-19 0.0559162 6.50867e-19 0.0638928)
(0.0774825 0.0284095 -6.06084e-21 0.0576848 2.45179e-19 0.0661915)
(0.0757381 0.0278724 -7.47612e-20 0.0565864 3.38051e-19 0.0648375)
(0.0720131 0.0268674 5.04768e-20 0.054606 5.27695e-19 0.0621834)
(0.0699531 0.026787 -1.13667e-19 0.0547009 -8.49875e-19 0.0613781)
(0.0690258 0.0274455 -5.30365e-20 0.0566544 -1.27347e-18 0.0621152)
(0.0722891 0.0300757 -1.60753e-19 0.0633069 -2.85879e-18 0.0672917)
(0.0780508 0.0340362 4.40309e-20 0.0737247 -1.51751e-18 0.0756994)
(0.0845483 0.0385607 -9.76408e-20 0.0868062 1.56046e-19 0.0859183)
(0.0922519 0.043796 -5.04836e-19 0.103388 -4.42559e-18 0.0988362)
(0.105291 0.0514993 -7.03014e-20 0.1281 -3.09433e-19 0.118536)
(0.129025 0.0631751 -6.22239e-19 0.161697 -2.92838e-18 0.144405)
(0.130538 0.0658013 1.20862e-18 0.206922 5.04214e-18 0.169857)
(0.17984 0.0876311 6.63115e-19 0.262288 3.9466e-18 0.208743)
(0.17774 -0.0490942 -5.86976e-19 0.376388 -6.69926e-19 0.357103)
(0.0138098 -0.00140283 -1.63181e-22 0.0121471 -2.09123e-22 0.0131412)
(0.0111215 -0.0016271 -4.37127e-21 0.0116615 -1.0075e-20 0.0113741)
(0.0248566 0.00212272 1.73155e-20 0.0156341 6.40004e-20 0.0197513)
(0.10927 0.00987518 4.01727e-20 0.0600067 5.89776e-20 0.0849414)
(0.727696 0.0372439 -1.0921e-20 0.281367 -3.11412e-20 0.509029)
(1.1263 -0.0271624 -2.12175e-19 0.429536 8.50503e-19 0.774792)
(0.670676 -0.0949056 2.17767e-20 0.284507 4.85837e-20 0.479434)
(0.237721 -0.0561159 5.67911e-20 0.123312 -1.98575e-18 0.17469)
(0.108069 -0.0302009 -1.28964e-19 0.0617646 2.56509e-20 0.0839991)
(0.0612067 -0.0183464 1.96865e-19 0.0367973 -5.66856e-19 0.0489418)
(0.0324969 -0.010991 -3.52709e-19 0.0219028 8.49126e-19 0.0269842)
(0.0165086 -0.00635216 6.36449e-19 0.0129729 -1.70366e-18 0.0145216)
(0.00553342 -0.00262151 -3.89239e-20 0.00645179 -5.81566e-20 0.00580996)
(0.0026679 5.29592e-05 1.37116e-19 0.00683767 -7.70833e-19 0.00450532)
(0.00535299 0.00221312 1.59966e-20 0.0113581 7.98407e-19 0.00819825)
(0.0083803 0.0039308 -6.55606e-20 0.0158542 -3.10272e-19 0.0119705)
(0.0107044 0.0052225 -3.1651e-21 0.0189168 -5.32073e-19 0.0147218)
(0.0125677 0.0062532 3.35501e-20 0.0208908 -4.00788e-19 0.0166839)
(0.0144311 0.0072576 1.6525e-20 0.0221042 -2.64509e-20 0.018274)
(0.0174838 0.00872372 2.49849e-20 0.0236309 2.97736e-20 0.0206418)
(0.0229871 0.0109886 1.48562e-20 0.0263868 9.93062e-20 0.0248599)
(0.0321299 0.0142196 -3.43817e-20 0.0310427 2.0258e-19 0.0318032)
(0.0447194 0.0180725 -5.18624e-20 0.0372373 -6.00198e-19 0.0411896)
(0.0597728 0.0221574 -4.04789e-20 0.0444092 -2.08752e-19 0.0522695)
(0.0726175 0.0250806 6.44805e-20 0.0498018 -2.93136e-19 0.0613827)
(0.0794569 0.0260638 1.21776e-20 0.0517115 -1.99327e-19 0.0657849)
(0.0798727 0.0252717 -1.72462e-19 0.0502249 2.28831e-19 0.0653327)
(0.0771323 0.0239555 -7.30452e-20 0.0476684 -9.03888e-19 0.0627752)
(0.0761043 0.0238553 1.58891e-19 0.0474051 1.95906e-19 0.0621451)
(0.0750603 0.0247378 2.19589e-19 0.0489975 9.4938e-19 0.0623891)
(0.0762844 0.0274364 -1.87188e-19 0.0546461 5.99447e-19 0.0657141)
(0.0805754 0.031999 4.31331e-19 0.0654571 2.41759e-18 0.0731846)
(0.0865625 0.0377289 1.12235e-19 0.0814217 8.51106e-19 0.0841398)
(0.0956548 0.0448296 -4.56215e-19 0.104467 8.92811e-19 0.100195)
(0.110525 0.0541199 -4.41059e-19 0.13716 -9.03604e-19 0.123889)
(0.132163 0.0661836 3.89344e-19 0.181442 1.95915e-18 0.157221)
(0.163732 0.0827108 3.22494e-19 0.239857 -2.08389e-18 0.203521)
(0.210261 0.105708 5.35646e-19 0.310366 1.93603e-18 0.259147)
(0.246228 0.12235 -4.10271e-19 0.427036 -9.66606e-19 0.341424)
(0.386084 0.19258 8.49219e-20 0.556833 -4.63656e-19 0.462681)
(0.311381 0.122665 8.07759e-19 0.6885 1.90633e-18 0.499773)
(0.0103568 -0.000995947 -3.56218e-23 0.00880125 -2.93118e-22 0.00961919)
(0.0077726 -0.000918499 -4.75555e-23 0.00787494 9.17365e-22 0.0079186)
(0.00665572 -0.00103984 -7.05465e-21 0.0075889 -1.4931e-20 0.0071658)
(0.00876925 0.000421898 -9.53716e-21 0.00649548 -1.71482e-20 0.00756473)
(0.141081 0.0120902 2.35421e-20 0.0634434 2.81341e-20 0.102445)
(0.820772 0.0316437 1.97681e-19 0.313812 6.13643e-20 0.572342)
(1.42169 -0.034868 1.94115e-19 0.541848 -1.01654e-18 0.979013)
(1.06662 -0.126582 7.00358e-19 0.437153 -1.06719e-18 0.758338)
(0.444249 -0.0976064 -3.32539e-19 0.220538 9.70436e-19 0.3259)
(0.225702 -0.0593979 1.8599e-19 0.123963 3.25126e-19 0.172049)
(0.124369 -0.0358007 -3.06303e-19 0.0724391 9.07327e-19 0.0980551)
(0.0771408 -0.0244886 -4.65767e-19 0.0486752 1.01214e-18 0.0630299)
(0.0458488 -0.0159559 3.73849e-19 0.0316819 -7.63163e-19 0.0388667)
(0.0239581 -0.00965403 -1.08713e-19 0.0199454 7.42197e-19 0.0218434)
(0.00906736 -0.00445025 -1.6544e-19 0.0113851 -8.52989e-19 0.0102097)
(0.00443702 -4.59075e-05 -8.9186e-20 0.0116603 -3.69345e-19 0.00798931)
(0.00874456 0.00352106 4.01278e-20 0.0190912 1.83007e-19 0.013892)
(0.0135117 0.00643226 8.70303e-20 0.0253347 1.51621e-20 0.0194081)
(0.0176378 0.00880788 2.50548e-20 0.0291153 4.31048e-20 0.0233498)
(0.0223124 0.0111999 -1.15468e-20 0.0315843 -6.56445e-20 0.026937)
(0.0298942 0.0143535 -3.03989e-20 0.0348605 -1.82618e-19 0.0323826)
(0.0425231 0.0185598 5.58995e-21 0.0401235 -2.83329e-19 0.0413695)
(0.0582507 0.022534 1.63071e-20 0.0456826 -1.25762e-19 0.0520537)
(0.0736286 0.0252921 -1.10482e-22 0.0501829 1.10524e-19 0.0620666)
(0.0832974 0.0257875 -5.61872e-20 0.051358 5.96409e-19 0.0675968)
(0.0856255 0.0242651 1.52295e-19 0.0491173 -6.27691e-19 0.0677296)
(0.083422 0.0218475 1.35602e-19 0.0452546 -4.59098e-19 0.0647552)
(0.0823604 0.0204097 1.50111e-19 0.0431561 1.1517e-18 0.0631721)
(0.0800805 0.0199538 -7.71356e-20 0.0421068 3.28697e-19 0.0614611)
(0.0776534 0.0214476 -4.85972e-19 0.0437231 -4.57911e-19 0.0609446)
(0.076296 0.0252246 2.30057e-19 0.0500064 -9.43455e-19 0.0633318)
(0.0778888 0.0312427 -4.75577e-19 0.0642029 5.99076e-19 0.0711337)
(0.0861939 0.0398209 6.31454e-19 0.091062 -5.71367e-19 0.0887149)
(0.104829 0.0517754 4.79086e-19 0.134588 -1.31732e-18 0.119726)
(0.134665 0.0677319 4.79071e-19 0.195793 7.50809e-19 0.164938)
(0.176067 0.0885491 5.03697e-19 0.276827 1.6685e-18 0.226295)
(0.232174 0.11643 3.89e-19 0.380087 1.80023e-18 0.307328)
(0.311947 0.155821 -6.22794e-19 0.50543 -2.31224e-18 0.405537)
(0.393166 0.193723 5.29311e-20 0.696817 -7.90021e-19 0.551442)
(0.646003 0.322722 -2.2262e-19 0.935537 -1.81922e-18 0.778024)
(0.543438 0.27186 -5.76398e-19 0.894487 -9.11243e-19 0.719409)
(0.00761916 -0.000705519 5.36481e-22 0.00648009 1.22348e-21 0.00704774)
(0.00647024 -0.000781213 -7.95332e-22 0.00617461 -1.67889e-21 0.00629046)
(0.00629215 -0.000808602 4.3544e-21 0.00677816 8.14222e-21 0.00652911)
(0.00378002 -0.000443773 5.67189e-21 0.00426779 9.30026e-21 0.00401657)
(0.00316672 5.66867e-05 -3.34434e-21 0.00262193 -4.75453e-21 0.00287969)
(0.122812 0.0086711 1.96705e-20 0.0521562 -3.30572e-21 0.0874272)
(0.76149 0.0222548 -4.80471e-20 0.289971 -1.21952e-20 0.529453)
(1.56919 -0.0381134 -2.29365e-19 0.597607 1.80049e-19 1.08208)
(1.46686 -0.148433 3.12216e-19 0.588772 -1.52998e-19 1.03448)
(0.767517 -0.151545 -7.22799e-21 0.360471 2.03724e-19 0.563694)
(0.375345 -0.0949312 2.83799e-19 0.201955 -1.84271e-18 0.281219)
(0.217968 -0.0612337 -2.13793e-19 0.124783 3.21794e-19 0.170272)
(0.135905 -0.0412234 -2.32052e-19 0.0823605 1.8883e-19 0.109442)
(0.0836475 -0.0280219 2.86155e-19 0.0555915 -1.8543e-18 0.0696809)
(0.0480917 -0.0180108 2.18677e-19 0.0361601 1.25501e-19 0.0422422)
(0.0205398 -0.00923318 1.35712e-19 0.0204977 1.39734e-19 0.0205195)
(0.00601521 -0.00200854 -1.24346e-19 0.0141601 4.90751e-19 0.0100983)
(0.010216 0.00387374 -8.10405e-21 0.0230235 1.13863e-19 0.0166591)
(0.0171436 0.00833355 2.52879e-20 0.0309779 -5.19183e-20 0.0240856)
(0.0235196 0.0118524 3.45588e-20 0.0347935 4.14002e-20 0.0291917)
(0.0321051 0.0154204 3.16085e-21 0.037457 1.90715e-19 0.034785)
(0.0458723 0.0194508 -7.85793e-20 0.0412098 1.9804e-19 0.0435268)
(0.0618371 0.0222458 8.49278e-20 0.0443925 1.56744e-19 0.0530779)
(0.0752243 0.0228631 1.41233e-19 0.0457218 3.21811e-19 0.0604563)
(0.0817375 0.0209617 -1.01865e-19 0.0438361 -7.09974e-20 0.0628237)
(0.0828759 0.0176268 -8.29363e-20 0.0401601 1.43511e-18 0.0615872)
(0.0846011 0.0143669 4.59375e-20 0.0376554 -2.84881e-20 0.0612197)
(0.085026 0.0118234 -2.42837e-19 0.0359705 -5.86225e-19 0.0605313)
(0.0835973 0.0110628 -3.87471e-19 0.0350102 -1.22207e-18 0.0593537)
(0.0774811 0.0127262 3.67903e-19 0.0341723 -5.6024e-19 0.0557952)
(0.0680266 0.017281 1.4549e-20 0.0362811 1.46514e-18 0.0521222)
(0.0641218 0.025375 2.56912e-19 0.0519475 -9.42693e-19 0.0578993)
(0.0780674 0.0378918 -5.86138e-19 0.0941654 2.71976e-18 0.086017)
(0.111478 0.0561251 -1.04412e-18 0.165116 1.68824e-19 0.138099)
(0.161198 0.0807107 -4.4786e-19 0.261488 5.75325e-19 0.210791)
(0.226882 0.112682 -5.17939e-19 0.384895 6.84063e-19 0.305692)
(0.313526 0.155379 4.41701e-20 0.539613 -2.4207e-20 0.427891)
(0.436345 0.216704 -4.31655e-20 0.729325 6.06863e-20 0.578398)
(0.564046 0.280236 3.51925e-20 0.975948 1.65548e-18 0.77935)
(0.920155 0.459744 -1.42826e-19 1.32597 -1.0155e-18 1.106)
(0.859766 0.429283 7.63354e-19 1.16129 -1.00571e-18 1.01221)
(0.00550938 -0.000479798 -5.69344e-22 0.00463272 -9.14674e-22 0.00507559)
(0.00479333 -0.000574151 2.79401e-21 0.00446308 4.15686e-21 0.00462153)
(0.00430733 -0.000546249 -1.41645e-21 0.00442847 -2.53235e-21 0.00436249)
(0.00464044 -0.000591731 -1.44735e-21 0.00522557 -3.24114e-21 0.00493706)
(0.00196629 -0.000139752 4.53842e-22 0.00215977 9.54862e-22 0.00206301)
(0.000609751 -4.6526e-07 -7.58528e-23 0.000566641 -7.61682e-23 0.000586902)
(0.0784452 0.00419909 -1.6659e-20 0.0333893 -1.72311e-20 0.0557324)
(0.598773 0.0130623 -5.38311e-20 0.227715 5.12347e-20 0.414921)
(1.5333 -0.0365594 -1.05261e-19 0.583209 -9.91907e-20 1.06008)
(1.79838 -0.152283 -3.36818e-19 0.710671 -7.62479e-19 1.25617)
(1.21886 -0.207643 2.62024e-19 0.5413 3.31656e-19 0.889627)
(0.609966 -0.146942 4.54372e-19 0.317725 -6.21478e-19 0.455072)
(0.356691 -0.0979301 -6.58339e-19 0.201601 5.17594e-19 0.274945)
(0.220317 -0.0645663 3.0834e-19 0.130053 8.67016e-19 0.174815)
(0.138695 -0.0443485 3.15865e-22 0.0879968 3.63641e-19 0.113876)
(0.080825 -0.02844 -1.75593e-19 0.0565147 -6.34497e-20 0.068857)
(0.0376534 -0.0155298 1.23943e-19 0.0323267 -6.9385e-19 0.0350659)
(0.00974203 -0.00485893 -2.5073e-20 0.016472 4.41866e-19 0.0131931)
(0.00922241 0.00315654 4.77561e-20 0.0215633 -8.04238e-20 0.0154221)
(0.0170834 0.00854497 3.39327e-20 0.0282814 1.48246e-19 0.0227446)
(0.0252022 0.0121512 -4.31419e-20 0.0297086 -2.18804e-19 0.0274809)
(0.0374608 0.0149073 1.67741e-20 0.0305452 1.33419e-20 0.0340174)
(0.0521546 0.0157392 2.21337e-20 0.0315138 6.73403e-20 0.0418089)
(0.0644 0.0140527 -2.00698e-19 0.0316003 -2.40199e-19 0.0479834)
(0.0726991 0.0102297 1.86428e-19 0.0308318 -5.65926e-19 0.0518018)
(0.0813753 0.00540334 4.61951e-20 0.0316634 -2.87655e-19 0.0565399)
(0.0912582 0.000487275 -3.82875e-19 0.0346086 -2.85867e-19 0.0629948)
(0.0997756 -0.00308977 1.15531e-19 0.0380532 -7.60374e-19 0.0689418)
(0.102023 -0.00461394 7.42998e-19 0.0391526 -1.23735e-19 0.0706379)
(0.091694 -0.00310549 1.90649e-19 0.0350304 1.12909e-18 0.0632865)
(0.0668585 0.00251853 -4.14776e-19 0.025589 -6.15638e-19 0.0461395)
(0.0417467 0.0135417 -4.53784e-19 0.0269649 5.44214e-19 0.0341468)
(0.0625309 0.0312567 1.17345e-19 0.0858791 -2.84638e-18 0.0740309)
(0.115203 0.0575921 1.06132e-18 0.189002 -1.79166e-18 0.151794)
(0.188725 0.0932683 6.75693e-19 0.324678 -1.6147e-18 0.25602)
(0.282965 0.139385 -2.82498e-19 0.493894 -5.97364e-20 0.388393)
(0.405822 0.200688 1.51466e-19 0.702678 1.34146e-18 0.55561)
(0.576739 0.287135 -1.41325e-19 0.955035 -8.17916e-19 0.760728)
(0.753714 0.378768 -4.26745e-19 1.2403 6.24807e-19 1.00805)
(1.177 0.58765 -6.23041e-19 1.66635 1.83802e-18 1.40229)
(1.21296 0.588473 -5.7698e-19 1.4601 -8.6118e-19 1.33566)
(0.00398538 -0.000324582 -1.15195e-22 0.00330939 -2.26894e-22 0.00365068)
(0.00364482 -0.00041235 2.06916e-22 0.00330102 4.04001e-22 0.00347365)
(0.00325051 -0.000413068 -1.33347e-21 0.00322008 -1.7483e-21 0.00323501)
(0.00319363 -0.000411215 -2.0776e-21 0.00345176 -2.62506e-21 0.00332022)
(0.00338357 -0.00039808 -8.27231e-22 0.00391072 -9.36283e-22 0.00364874)
(0.00107455 -4.41084e-05 4.56529e-22 0.0011502 6.03824e-22 0.00111276)
(1.22073e-05 -1.25546e-08 -1.4272e-25 1.21737e-05 -1.98753e-25 1.21891e-05)
(0.0315934 0.000995665 9.64244e-21 0.0150705 1.03821e-20 0.0232176)
(0.392547 0.00581899 1.95052e-19 0.149297 1.86863e-19 0.271223)
(1.28643 -0.0296964 -1.44774e-19 0.488976 2.09022e-19 0.890402)
(1.96449 -0.137741 -6.94938e-20 0.767205 5.49043e-19 1.3636)
(1.71513 -0.244264 2.03457e-19 0.727059 -7.99105e-19 1.2328)
(1.00975 -0.222337 3.43734e-19 0.496954 9.89469e-19 0.755856)
(0.551454 -0.145807 -6.46273e-19 0.305135 -2.14087e-19 0.417759)
(0.346881 -0.0998025 2.84273e-19 0.202386 -1.08347e-18 0.272273)
(0.22112 -0.0672204 -1.83624e-19 0.134336 6.11435e-19 0.177942)
(0.130513 -0.0434358 1.26304e-19 0.0860523 6.03105e-19 0.108744)
(0.0666113 -0.0249998 1.11118e-19 0.0501738 2.8589e-19 0.0586657)
(0.0237251 -0.0109014 -5.55012e-20 0.0247386 2.47661e-19 0.024292)
(0.00505131 -0.00189078 5.1275e-21 0.011491 -6.94878e-19 0.00835761)
(0.00537682 0.00270261 1.57262e-20 0.00770613 2.97479e-19 0.00653645)
(0.0167877 0.00390593 -8.83643e-20 0.0084963 -8.87952e-21 0.0126904)
(0.0349351 0.00254702 6.28784e-20 0.0136597 -3.37145e-19 0.0243288)
(0.0546693 -0.00134038 1.43158e-19 0.0208045 -4.70435e-20 0.037763)
(0.0753937 -0.00738251 -1.06724e-19 0.0302136 7.11019e-19 0.0528323)
(0.0983277 -0.0143534 -2.15368e-19 0.0420535 -6.31534e-19 0.0701972)
(0.122719 -0.020985 3.23989e-19 0.0547516 -4.05449e-19 0.0888027)
(0.14301 -0.026228 1.2784e-19 0.0653082 1.20853e-18 0.104185)
(0.152511 -0.0290706 1.06865e-19 0.070633 1.3323e-18 0.111594)
(0.143258 -0.0278729 -2.22705e-19 0.0669026 -2.36175e-19 0.104973)
(0.109342 -0.0208194 -9.52654e-22 0.0506571 -9.28414e-19 0.0798577)
(0.0462228 -0.00602304 -5.22634e-19 0.0193646 -2.54381e-19 0.0325462)
(0.0363 0.0182358 -1.61626e-19 0.0557843 1.31197e-18 0.0457617)
(0.110516 0.0545029 2.03039e-19 0.191307 2.00575e-18 0.150458)
(0.2105 0.103649 1.66531e-18 0.366387 6.48981e-19 0.287698)
(0.336849 0.166618 -1.94251e-19 0.580806 -7.67819e-19 0.45898)
(0.499876 0.249106 -1.90179e-18 0.840206 -7.27759e-19 0.671123)
(0.717742 0.359772 3.48123e-19 1.14238 -1.19708e-19 0.925077)
(0.943942 0.477182 -2.26229e-19 1.45073 -1.88669e-18 1.20795)
(1.38848 0.69075 -1.59811e-19 1.89168 6.17834e-19 1.62224)
(1.52841 0.723611 6.18502e-19 1.72177 1.82783e-18 1.61706)
(0.00291148 -0.000224642 -2.32411e-23 0.00239776 8.98909e-24 0.00265777)
(0.00274308 -0.000291669 -5.55591e-22 0.00242596 -6.95345e-22 0.00258408)
(0.0025903 -0.000321537 5.60403e-22 0.00248093 5.64767e-22 0.00253493)
(0.0023651 -0.000304588 2.38389e-21 0.00245108 3.00101e-21 0.00240656)
(0.00238303 -0.000300305 4.82576e-22 0.00266691 6.29417e-22 0.00252175)
(0.00259541 -0.000294183 4.33882e-22 0.00307214 3.07235e-22 0.00283365)
(0.000410708 -6.69401e-06 -1.36327e-22 0.000424368 -1.46862e-22 0.000417631)
(4.12005e-07 -2.55316e-11 -5.63216e-29 4.12019e-07 -4.76426e-29 4.12012e-07)
(0.00625078 1.89173e-05 -2.76223e-21 0.00420611 -3.62383e-21 0.00520808)
(0.204685 0.00132484 1.35851e-19 0.0780143 1.46707e-19 0.141145)
(0.90391 -0.0202247 -2.43734e-19 0.343644 -4.92247e-19 0.625087)
(1.84902 -0.112554 -1.44682e-19 0.716609 5.39408e-19 1.28298)
(2.09756 -0.240991 2.15194e-19 0.857508 -7.31656e-19 1.47972)
(1.55547 -0.294213 -2.65577e-19 0.715331 -3.11194e-19 1.14954)
(0.891904 -0.223393 7.31822e-19 0.472906 -1.56503e-19 0.677211)
(0.530351 -0.148544 3.14525e-19 0.305031 6.63766e-19 0.408895)
(0.340914 -0.100683 -3.07935e-19 0.202723 3.96119e-19 0.27049)
(0.211082 -0.0666022 -2.98576e-19 0.132372 3.46923e-19 0.172299)
(0.115451 -0.0407621 -4.70458e-19 0.0809545 -4.54879e-20 0.0986872)
(0.0608369 -0.0244779 3.68625e-19 0.050266 -3.79361e-19 0.0558567)
(0.0376886 -0.0160843 1.17514e-19 0.0342119 5.45038e-19 0.0359531)
(0.0393067 -0.014865 -2.3573e-19 0.0299304 -1.39857e-19 0.0346755)
(0.0562382 -0.0179929 8.18307e-20 0.0357626 2.51391e-19 0.0460107)
(0.0824021 -0.0245379 6.74205e-20 0.0492338 1.54214e-19 0.0658089)
(0.1141 -0.033301 1.42306e-20 0.0670859 -2.56597e-19 0.0905611)
(0.14973 -0.0428168 -6.61416e-21 0.0866443 3.56042e-19 0.118167)
(0.187294 -0.0520508 2.57374e-19 0.106087 9.38315e-19 0.146718)
(0.220625 -0.0599326 1.93262e-19 0.122965 -3.82904e-19 0.171786)
(0.240813 -0.0647439 -4.97251e-19 0.13326 1.03276e-19 0.187024)
(0.237871 -0.0641347 -8.12631e-19 0.131925 -8.31223e-19 0.184758)
(0.203481 -0.0555517 4.57105e-19 0.113858 -2.36831e-20 0.158482)
(0.130542 -0.0364396 6.09623e-19 0.0742589 -9.14928e-19 0.102145)
(0.0155603 -0.00459906 5.59829e-19 0.00940044 2.74202e-19 0.0120508)
(0.0863052 0.0427012 -7.5618e-19 0.147005 -9.92662e-20 0.115973)
(0.214426 0.106866 -9.18925e-19 0.356919 1.36368e-18 0.284924)
(0.375147 0.188011 -3.85295e-19 0.610763 -1.2815e-18 0.493233)
(0.57887 0.291322 1.34644e-18 0.910167 -1.54049e-19 0.745123)
(0.836613 0.420804 -2.99522e-19 1.24158 2.84339e-19 1.03516)
(1.10446 0.555689 3.43806e-19 1.5568 -2.8228e-19 1.3388)
(1.52401 0.75025 -6.91904e-19 1.95118 -9.85974e-19 1.7258)
(1.72275 0.798908 -4.57402e-19 1.85263 5.44339e-19 1.76961)
(0.00215185 -0.000157707 -8.7222e-23 0.00176025 -1.20006e-23 0.00195814)
(0.00205688 -0.000207047 -4.34023e-22 0.00178737 -7.15061e-22 0.00192206)
(0.00198362 -0.000235662 1.86931e-21 0.00184381 2.03956e-21 0.00191374)
(0.00189233 -0.000243373 -3.06444e-22 0.00188966 -2.17841e-22 0.00189119)
(0.00173569 -0.000220117 6.48486e-22 0.0018586 5.94961e-22 0.00179646)
(0.00182176 -0.00022831 -6.273e-22 0.00209937 -5.99772e-22 0.00195792)
(0.00186633 -0.000190588 1.52728e-21 0.00223034 1.913e-21 0.00204718)
(0.000550264 -1.34184e-05 1.40474e-22 0.000582164 1.21446e-22 0.000566374)
(0.000140998 -1.65987e-06 7.8214e-25 0.000144038 6.47877e-24 0.000142529)
(8.10147e-06 -1.47794e-09 8.46028e-26 8.08904e-06 7.56188e-26 8.0951e-06)
(0.0729142 -0.000474812 -5.96113e-22 0.0282462 4.47408e-21 0.0503821)
(0.507222 -0.0119718 -2.58046e-19 0.193067 -1.84614e-19 0.350188)
(1.42728 -0.077299 1.2097e-19 0.550484 -2.76207e-19 0.990035)
(2.191 -0.207002 -2.77288e-19 0.875342 7.26991e-19 1.53123)
(2.09408 -0.323597 -3.29209e-19 0.906019 -7.84284e-19 1.51008)
(1.4315 -0.319072 4.27497e-19 0.70701 5.64728e-19 1.08057)
(0.837814 -0.224709 2.9627e-19 0.46569 -1.2339e-18 0.642433)
(0.51821 -0.150348 9.9921e-20 0.305544 4.33774e-19 0.404816)
(0.327411 -0.101074 -5.78651e-19 0.201838 -8.85086e-19 0.264016)
(0.199081 -0.0690605 2.47486e-19 0.136932 9.44287e-19 0.168886)
(0.125683 -0.0497236 4.19201e-20 0.101446 -6.6699e-19 0.114082)
(0.106834 -0.0444075 -2.17251e-19 0.0928365 3.06417e-19 0.100037)
(0.116476 -0.0472748 1.54886e-19 0.0977444 1.6291e-20 0.107071)
(0.14428 -0.0559465 -2.27999e-20 0.113571 2.24793e-20 0.128919)
(0.183439 -0.0677821 -8.62454e-20 0.135839 4.81331e-19 0.15965)
(0.230878 -0.0809776 3.88067e-20 0.161045 -1.03338e-19 0.195976)
(0.283411 -0.0942563 -6.02356e-19 0.187043 6.78163e-20 0.235266)
(0.333436 -0.10605 -2.29331e-19 0.21089 9.14758e-20 0.272199)
(0.369727 -0.113908 -7.09528e-20 0.2273 -9.27103e-19 0.298555)
(0.379802 -0.114725 9.83585e-19 0.229621 -4.58055e-20 0.304676)
(0.352609 -0.105233 -2.41546e-20 0.211072 6.88229e-19 0.281756)
(0.278928 -0.0821399 3.69146e-19 0.16518 6.93661e-19 0.221946)
(0.154855 -0.0426813 -7.08318e-19 0.0873133 2.69797e-19 0.12068)
(0.0367074 0.0152517 9.49582e-19 0.0324159 -1.13506e-18 0.0337122)
(0.187361 0.093775 1.78906e-19 0.260474 -1.26154e-19 0.223175)
(0.381919 0.191873 1.09979e-18 0.541442 2.8632e-19 0.461913)
(0.621561 0.311481 -2.3736e-18 0.863137 3.47876e-19 0.742509)
(0.906443 0.450218 5.69443e-19 1.19986 2.07794e-19 1.05054)
(1.19704 0.588731 1.50131e-19 1.50388 4.29196e-19 1.35516)
(1.55305 0.746041 8.01383e-19 1.81859 1.35461e-19 1.68025)
(1.74372 0.789507 -4.51333e-19 1.78371 -1.32888e-18 1.74001)
(0.00159937 -0.000112087 -3.37201e-22 0.00130145 -3.87668e-22 0.00145183)
(0.00154336 -0.000147893 1.34018e-21 0.00132364 1.33612e-21 0.00143376)
(0.00150528 -0.00017147 -3.25191e-22 0.00136828 -1.77985e-22 0.00143687)
(0.00146741 -0.000184083 -2.45352e-21 0.00142032 -2.47771e-21 0.00144399)
(0.00140493 -0.000181999 -2.50114e-22 0.00144989 -3.81699e-22 0.00142758)
(0.00130367 -0.000162317 2.38716e-21 0.00143083 2.43911e-21 0.00136693)
(0.00136647 -0.000165969 -6.04111e-22 0.00160649 -7.13276e-22 0.00148474)
(0.00133453 -0.000123122 -5.43812e-21 0.00160479 -5.25674e-21 0.00146825)
(0.000676585 -2.37542e-05 1.09436e-21 0.000741803 1.03689e-21 0.000709312)
(4.41518e-05 -1.18686e-07 3.66943e-25 4.44648e-05 -1.86562e-25 4.43104e-05)
(0.000711737 -0.000109416 -4.45754e-22 0.000655837 -6.7703e-22 0.000682029)
(0.0162395 -0.00052021 -5.65731e-21 0.00718542 -3.46725e-21 0.0116502)
(0.218152 -0.00628672 -1.54841e-19 0.083291 -1.07283e-19 0.150436)
(0.881638 -0.0443516 1.48768e-19 0.339329 -6.8606e-20 0.610815)
(1.86212 -0.151294 -5.83027e-19 0.733905 3.87638e-19 1.29761)
(2.38087 -0.295275 5.38822e-19 0.985908 -2.42497e-19 1.68262)
(2.05845 -0.381403 -4.26761e-19 0.94021 5.75381e-19 1.51461)
(1.36178 -0.333004 -9.79666e-20 0.707712 -1.77267e-19 1.04251)
(0.808583 -0.227769 -1.80313e-19 0.465972 -2.76465e-19 0.626737)
(0.498051 -0.155152 2.37869e-19 0.31113 -8.01935e-19 0.398927)
(0.317404 -0.112182 3.55905e-19 0.22332 2.13241e-19 0.270251)
(0.231411 -0.0928013 -1.94585e-19 0.190369 -7.17104e-19 0.211876)
(0.210421 -0.0888452 -1.59266e-19 0.187374 3.00375e-19 0.199481)
(0.230595 -0.0966114 4.59218e-19 0.202968 -4.14307e-19 0.217067)
(0.27563 -0.111417 -2.68647e-19 0.229848 5.87669e-20 0.252818)
(0.337591 -0.129789 -3.64959e-19 0.262746 -2.81528e-19 0.300171)
(0.410181 -0.149116 7.50817e-19 0.297928 -1.0381e-18 0.354084)
(0.483459 -0.166675 -1.14302e-19 0.331035 8.70958e-19 0.407321)
(0.543973 -0.17916 8.49856e-21 0.355577 -6.5886e-20 0.449877)
(0.577032 -0.182826 -6.62167e-19 0.363683 9.42761e-19 0.470427)
(0.569385 -0.173901 2.004e-19 0.347448 -5.8314e-19 0.458436)
(0.510025 -0.148493 -2.73746e-19 0.299244 3.78953e-19 0.404674)
(0.394737 -0.103208 -6.65737e-19 0.214417 -4.56079e-19 0.304463)
(0.237284 -0.0367782 3.30314e-19 0.103146 1.48416e-18 0.169533)
(0.182276 0.0522265 -8.08268e-19 0.105801 2.89224e-19 0.143461)
(0.366398 0.162078 -3.20387e-19 0.354278 7.89283e-21 0.360598)
(0.623708 0.289762 1.00484e-18 0.667817 -1.62683e-18 0.64581)
(0.91565 0.425951 -6.45938e-19 0.98474 6.43429e-19 0.948628)
(1.19835 0.552003 -2.59733e-19 1.2575 -8.5132e-19 1.22947)
(1.46258 0.663063 -2.33722e-18 1.48584 -7.21159e-19 1.47269)
(1.58315 0.686446 4.43699e-19 1.4916 -1.46585e-19 1.5143)
(0.00119395 -8.05775e-05 -2.92897e-22 0.000967673 -2.13248e-22 0.0010817)
(0.00115978 -0.000106551 -1.23924e-21 0.00098493 -1.05093e-21 0.00107267)
(0.00113842 -0.000124661 -5.08626e-23 0.00101747 -2.0203e-22 0.00107805)
(0.00112004 -0.000136473 -1.99195e-22 0.00105803 -1.97525e-22 0.00108913)
(0.00109805 -0.000141321 1.73918e-21 0.00109873 1.6177e-21 0.00109848)
(0.00105435 -0.000135573 9.20501e-22 0.00111667 8.00352e-22 0.00108562)
(0.00099767 -0.000122384 -1.26443e-21 0.00111641 -1.16124e-21 0.00105697)
(0.00100505 -0.000115124 -8.85769e-22 0.00119334 -4.40591e-22 0.00109833)
(0.00104142 -9.67579e-05 -6.36308e-22 0.0012804 -6.34012e-22 0.00115945)
(0.000682542 -2.94238e-05 -1.58322e-21 0.000775527 -1.50658e-21 0.000728893)
(1.56463e-06 -1.35542e-10 -2.09946e-27 1.56508e-06 -1.52874e-27 1.56486e-06)
(0.000132316 -2.27557e-06 -8.20363e-24 0.00013697 -4.59061e-24 0.000134675)
(2.22136e-06 -3.15603e-10 1.40071e-26 2.21997e-06 1.32956e-26 2.22065e-06)
(0.0575402 -0.0025277 -2.18425e-19 0.0223068 -1.80129e-19 0.0397754)
(0.4048 -0.0204506 6.24607e-19 0.155927 5.32949e-19 0.280081)
(1.22666 -0.0895155 -3.10109e-19 0.479844 -3.39027e-19 0.853424)
(2.16643 -0.224697 1.28373e-18 0.874506 8.09462e-19 1.51859)
(2.48311 -0.366245 6.41205e-19 1.06417 6.86188e-19 1.77556)
(2.03259 -0.419645 -1.51142e-18 0.96839 -2.36382e-19 1.51837)
(1.32059 -0.345766 5.15745e-19 0.716162 -8.96758e-19 1.02507)
(0.778 -0.240571 1.71856e-19 0.483307 1.09571e-18 0.620608)
(0.497083 -0.179732 9.35448e-21 0.361203 -5.96155e-19 0.423273)
(0.384106 -0.155464 3.96567e-19 0.320967 4.50989e-19 0.352508)
(0.362879 -0.153808 -2.50176e-19 0.324846 -4.56327e-19 0.345529)
(0.395284 -0.166598 2.55828e-19 0.350902 1.13526e-20 0.374307)
(0.46352 -0.188455 -3.94872e-19 0.389654 6.43428e-19 0.427099)
(0.555719 -0.214553 7.68781e-20 0.434845 4.50567e-19 0.495453)
(0.658632 -0.240312 -1.56284e-19 0.480474 -1.25074e-18 0.569499)
(0.756587 -0.261003 -1.34907e-19 0.518442 2.51762e-19 0.637513)