/*--------------------------------*- C++ -*----------------------------------*\
| =========                 |                                                 |
| \\      /  F ield         | OpenFOAM: The Open Source CFD Toolbox           |
|  \\    /   O peration     | Version:  2312                                  |
|   \\  /    A nd           | Website:  www.openfoam.com                      |
|    \\/     M anipulation  |                                                 |
\*---------------------------------------------------------------------------*/
FoamFile
{
    version     2.0;
    format      ascii;
    arch        "LSB;label=32;scalar=64";
    class       volSymmTensorField;
    location    "400";
    object      turbulenceProperties:devReff;
}
// * * * * * * * * * * * * * * * * * * * * * * * * * * * * * * * * * * * * * //

dimensions      [0 2 -2 0 0 0 0];

internalField   nonuniform List<symmTensor> 
11040
(
(0.0176207 0.075794 1.19249e-22 -0.0254634 6.80467e-21 0.00784264)
(0.0653322 0.0778102 9.05606e-21 -0.0776993 1.02707e-19 0.012367)
(0.0171993 0.0116489 -1.70208e-20 -0.0161732 8.97953e-20 -0.00102612)
(-0.00076044 0.00651605 -3.94206e-20 0.00148291 2.84349e-20 -0.000722473)
(-0.0492648 0.0358074 -1.74857e-20 0.0485278 1.44192e-19 0.000737011)
(-0.0540144 0.0518691 -2.38922e-19 0.0549145 8.87741e-20 -0.000900152)
(-0.0462847 0.0545086 1.38873e-19 0.0465674 -8.96785e-19 -0.000282715)
(-0.0379832 0.0535939 1.95743e-19 0.0380827 -1.31854e-19 -9.95133e-05)
(-0.0301112 0.0505057 8.09347e-20 0.0301125 -2.42763e-20 -1.27375e-06)
(-0.0248385 0.0488094 7.88396e-20 0.0248039 1.21443e-19 3.46781e-05)
(-0.0200795 0.0459048 -6.85195e-20 0.0200522 2.88415e-19 2.72982e-05)
(-0.0161106 0.0430204 -9.75884e-20 0.0160691 2.12131e-19 4.14991e-05)
(-0.0127837 0.0399862 1.73165e-20 0.0127636 -1.23547e-19 2.0162e-05)
(-0.00987994 0.0364786 2.15658e-20 0.0098917 1.1225e-19 -1.17558e-05)
(-0.00726125 0.0321924 -1.03004e-20 0.00728891 1.18517e-20 -2.76517e-05)
(-0.0050284 0.0272373 -3.8489e-21 0.00508383 -1.42657e-19 -5.54301e-05)
(-0.00308423 0.0210881 3.59059e-20 0.00314627 -3.77429e-21 -6.2034e-05)
(-0.00148462 0.013446 -2.01126e-21 0.0015422 1.71733e-19 -5.75872e-05)
(-0.000423809 0.00555069 -7.47259e-21 0.000458496 7.39117e-22 -3.4687e-05)
(-0.000183307 0.0043609 1.26565e-21 0.0002175 -1.31488e-20 -3.41928e-05)
(-8.49184e-06 0.00385599 7.42744e-21 3.48718e-05 1.39196e-20 -2.638e-05)
(0.000165411 0.00361446 -7.46708e-21 -0.000155073 5.04864e-20 -1.03375e-05)
(0.000390242 0.0038716 -1.99927e-21 -0.000403168 -5.80104e-20 1.29259e-05)
(0.000789621 0.0050117 8.10828e-21 -0.000830298 1.14353e-19 4.06772e-05)
(0.00150778 0.00745509 -3.85998e-20 -0.00157268 -1.1563e-19 6.49022e-05)
(0.00319078 0.0138005 -1.85704e-20 -0.0032957 -2.95324e-19 0.000104919)
(0.00680762 0.0275538 1.36045e-20 -0.00696442 -1.74192e-19 0.000156798)
(0.010923 0.0423298 1.57037e-20 -0.0111148 1.19449e-20 0.000191794)
(0.0153761 0.0577075 -1.89404e-20 -0.0155343 -1.71036e-19 0.000158214)
(0.0197702 0.0721639 1.55226e-20 -0.0198803 -3.79669e-19 0.000110115)
(0.0237573 0.085024 1.10021e-19 -0.0237899 3.23788e-19 3.26046e-05)
(0.0261773 0.0925241 2.63066e-20 -0.0261725 2.12105e-20 -4.84156e-06)
(0.026935 0.0946313 1.05465e-19 -0.0268666 9.37293e-19 -6.83704e-05)
(0.0266291 0.0937187 -8.5247e-20 -0.0264672 6.01434e-19 -0.000161983)
(0.0226758 0.0821001 4.48143e-20 -0.0223717 -2.32998e-21 -0.000304104)
(0.0121676 0.049064 1.068e-19 -0.0118765 7.33376e-19 -0.000291176)
(0.00501324 0.0325332 4.20883e-21 -0.00480108 1.69676e-19 -0.000212159)
(-0.00473767 0.00855201 -6.16047e-21 0.00515699 6.66867e-19 -0.00041932)
(-0.0186195 -0.0160303 -4.42283e-19 0.018166 -1.10075e-18 0.000453549)
(-0.0418634 -0.0793507 3.48554e-20 0.0418545 -7.96647e-19 8.877e-06)
(-0.100604 -0.0975567 1.63326e-19 0.108279 4.79674e-20 -0.00767542)
(0.00541551 -0.00594805 3.58829e-22 -0.00390932 -1.37413e-21 -0.00150619)
(0.0138023 -0.00173636 2.08911e-20 -0.00785532 7.36486e-21 -0.00594701)
(0.0465905 0.0257991 1.50876e-20 -0.046759 -2.56297e-19 0.000168509)
(0.0956702 0.0246153 4.53842e-20 -0.0972796 -1.31726e-19 0.00160942)
(0.230005 -0.0153929 5.62562e-20 -0.227626 -3.7742e-19 -0.00237937)
(0.0827792 -0.0512317 4.69643e-19 -0.0838482 -1.01316e-18 0.00106896)
(0.0204698 -0.0209517 -6.7383e-19 -0.0193208 2.61783e-18 -0.001149)
(0.00566296 -0.00930558 -6.94125e-19 -0.00567762 1.7556e-18 1.46536e-05)
(0.00131369 -0.00344942 -6.02526e-20 -0.00146695 -1.25309e-19 0.000153252)
(-0.000788012 0.000189215 -8.81247e-20 0.000643376 3.30145e-20 0.000144636)
(-0.00197193 0.00244944 3.84256e-19 0.00191475 -9.59898e-19 5.7186e-05)
(-0.00234645 0.00393772 -1.26344e-20 0.00223736 -5.79984e-20 0.000109088)
(-0.0024761 0.00500964 -1.41627e-19 0.00230375 5.7492e-19 0.000172351)
(-0.00253 0.00569611 -1.02762e-19 0.00233165 4.25096e-20 0.000198358)
(-0.00241689 0.00611946 -3.56921e-20 0.00215232 -1.64876e-19 0.000264567)
(-0.0023201 0.00635492 8.20097e-21 0.00202368 5.45827e-19 0.000296423)
(-0.00217081 0.00641578 -1.07349e-20 0.00184759 1.96742e-19 0.000323219)
(-0.00197398 0.00643443 -1.32479e-21 0.00162766 -5.65458e-19 0.000346321)
(-0.0017002 0.0065325 -2.07829e-20 0.00132644 -2.64142e-20 0.000373763)
(-0.00134227 0.00692759 -8.16178e-21 0.0010035 1.05839e-19 0.000338771)
(-0.000811629 0.00802305 -1.69039e-20 0.000601317 -6.85907e-20 0.000210312)
(8.63147e-05 0.00993587 2.21384e-20 -0.000104097 -5.33218e-19 1.77821e-05)
(0.00146295 0.0128023 6.12002e-20 -0.00123942 7.59189e-19 -0.000223523)
(0.0035305 0.0170916 -7.91706e-20 -0.00305147 -7.47162e-19 -0.000479034)
(0.00611275 0.0219834 1.81242e-20 -0.00541672 6.51551e-19 -0.000696033)
(0.00851877 0.0260416 1.11808e-19 -0.00770113 1.48377e-18 -0.000817639)
(0.0100017 0.028154 1.59422e-19 -0.0090853 6.66557e-19 -0.000916436)
(0.010602 0.0290648 -6.20065e-21 -0.00965243 2.50834e-19 -0.000949531)
(0.0102368 0.0284828 -7.63986e-20 -0.0093343 3.45454e-19 -0.000902488)
(0.00926334 0.0274131 5.15022e-20 -0.00849732 5.38414e-19 -0.000766018)
(0.00808379 0.0272638 -1.15691e-19 -0.00743992 -8.65003e-19 -0.000643875)
(0.00652845 0.0278774 -5.38713e-20 -0.00603757 -1.29351e-18 -0.00049088)
(0.00472505 0.0304964 -1.63002e-19 -0.00438275 -2.89878e-18 -0.00034229)
(0.00225363 0.0344614 4.4581e-20 -0.00212646 -1.53647e-18 -0.000127167)
(-0.00122288 0.0389935 -9.87368e-20 0.00106037 1.57798e-19 0.000162509)
(-0.00596706 0.0442431 -5.09989e-19 0.00528259 -4.47076e-18 0.00068447)
(-0.0121293 0.0519759 -7.09521e-20 0.0108908 -3.12298e-19 0.00123854)
(-0.0161512 0.0637023 -6.27432e-19 0.0167937 -2.95282e-18 -0.000642478)
(-0.0388552 0.0662923 1.21764e-18 0.0380985 5.07976e-18 0.000756722)
(-0.0373649 0.088217 6.67549e-19 0.0456337 3.97299e-18 -0.00826883)
(-0.12662 -0.0493342 -5.89845e-19 0.0729997 -6.73201e-19 0.0536198)
(0.00210605 -0.00380207 -4.42266e-22 -0.00240019 -5.66781e-22 0.000294136)
(-0.000599952 -0.0036945 -9.92543e-21 0.000626241 -2.28764e-20 -2.62888e-05)
(0.00653264 0.00290354 2.36848e-20 -0.00608218 8.75421e-20 -0.000450463)
(0.0298701 0.0120245 4.89163e-20 -0.0301159 7.18141e-20 0.000245827)
(0.22832 0.0383619 -1.12488e-20 -0.231408 -3.2076e-20 0.00308808)
(0.353597 -0.027487 -2.1471e-19 -0.351489 8.60666e-19 -0.0021076)
(0.194186 -0.0957513 2.19707e-20 -0.195425 4.90166e-20 0.00123911)
(0.0596736 -0.0566156 5.72968e-20 -0.0557547 -2.00344e-18 -0.00391891)
(0.0236978 -0.0305091 -1.3028e-19 -0.0230796 2.59127e-20 -0.000618168)
(0.0123572 -0.0185452 1.98998e-19 -0.0123167 -5.72997e-19 -4.05768e-05)
(0.00543255 -0.0111212 -3.56889e-19 -0.00528712 8.59189e-19 -0.000145429)
(0.00186437 -0.00643305 6.44554e-19 -0.00171643 -1.72535e-18 -0.000147939)
(-0.000403714 -0.00265715 -3.94531e-20 0.000527132 -5.89472e-20 -0.000123418)
(-0.00203095 5.37144e-05 1.39071e-19 0.00219828 -7.81826e-19 -0.000167329)
(-0.00299458 0.00224647 1.62376e-20 0.00310102 8.10438e-19 -0.000106443)
(-0.00374643 0.00399302 -6.65984e-20 0.00384581 -3.15183e-19 -9.93731e-05)
(-0.00414486 0.00530998 -3.21811e-21 0.0042051 -5.40984e-19 -6.024e-05)
(-0.00421968 0.00636364 3.41426e-20 0.00425048 -4.07867e-19 -3.08053e-05)
(-0.00390935 0.00739128 1.68294e-20 0.00390505 -2.69381e-20 4.30136e-06)
(-0.0031589 0.00888464 2.54458e-20 0.00310159 3.03228e-20 5.73086e-05)
(-0.0017884 0.0111821 1.51178e-20 0.00167112 1.01055e-19 0.000117287)
(0.000478942 0.0144517 -3.49428e-20 -0.000625929 2.05886e-19 0.000146987)
(0.00372612 0.0183456 -5.26463e-20 -0.00386905 -6.09269e-19 0.000142924)
(0.00773022 0.022471 -4.10519e-20 -0.00785087 -2.11707e-19 0.00012065)
(0.0115048 0.0254223 6.53588e-20 -0.0116217 -2.97129e-19 0.000116942)
(0.0139892 0.0264101 1.23394e-20 -0.0141248 -2.01975e-19 0.000135552)
(0.0149178 0.0255952 -1.7467e-19 -0.0151095 2.3176e-19 0.000191668)
(0.0147794 0.0242382 -7.39074e-20 -0.0150323 -9.14557e-19 0.000252837)
(0.0143633 0.0240968 1.605e-19 -0.0146263 1.97889e-19 0.000262928)
(0.0130241 0.0249538 2.21506e-19 -0.0132663 9.5767e-19 0.000242184)
(0.0108181 0.0276457 -1.88616e-19 -0.0109853 6.04021e-19 0.000167165)
(0.00755371 0.0322152 4.34245e-19 -0.0076667 2.43392e-18 0.000112991)
(0.00253645 0.0379568 1.12913e-19 -0.00263549 8.56248e-19 9.90362e-05)
(-0.00447511 0.0450736 -4.58699e-19 0.00438483 8.97671e-19 9.02797e-05)
(-0.013399 0.0543866 -4.43232e-19 0.0133679 -9.08057e-19 3.11173e-05)
(-0.0248898 0.06648 3.91088e-19 0.0246092 1.96792e-18 0.000280564)
(-0.0387955 0.0830476 3.23807e-19 0.03764 -2.09238e-18 0.00115545)
(-0.0498463 0.106097 5.37618e-19 0.0506273 1.94316e-18 -0.000781035)
(-0.0923034 0.122753 -4.1162e-19 0.0890985 -9.69785e-19 0.00320483)
(-0.0826886 0.193141 8.51693e-20 0.0885577 -4.65007e-19 -0.00586903)
(-0.188917 0.122934 8.0953e-19 0.189029 1.91051e-18 -0.000111842)
(0.00194922 -0.00253967 -9.08357e-23 -0.00201749 -7.47451e-22 6.82767e-05)
(-0.000245172 -0.00272023 -1.4084e-22 5.79369e-05 2.71687e-21 0.000187236)
(-0.000977376 -0.00211256 -1.43323e-20 0.000918475 -3.03339e-20 5.89014e-05)
(0.00235892 0.000858374 -1.94039e-20 -0.00226718 -3.48889e-20 -9.17364e-05)
(0.042638 0.0133006 2.58991e-20 -0.0427722 3.09508e-20 0.000134198)
(0.257029 0.0323012 2.01789e-19 -0.260466 6.26394e-20 0.00343693)
(0.444737 -0.0351761 1.95831e-19 -0.442883 -1.02552e-18 -0.00185427)
(0.31453 -0.12737 7.04717e-19 -0.318857 -1.07383e-18 0.00432693)
(0.114685 -0.0981762 -3.34481e-19 -0.110331 9.76101e-19 -0.00435389)
(0.0521079 -0.0597545 1.87106e-19 -0.0502414 3.27078e-19 -0.0018664)
(0.0262513 -0.0360344 -3.08302e-19 -0.0260172 9.1325e-19 -0.000234059)
(0.0142913 -0.0246597 -4.69021e-19 -0.0143732 1.01921e-18 8.18493e-05)
(0.00710237 -0.0160752 3.76643e-19 -0.00717045 -7.68867e-19 6.80842e-05)
(0.00205849 -0.00972988 -1.09567e-19 -0.00198569 7.48028e-19 -7.28057e-05)
(-0.00116298 -0.00448734 -1.66818e-19 0.00117407 -8.60097e-19 -1.10839e-05)
(-0.00362339 -4.63106e-05 -8.99691e-20 0.00366329 -3.72588e-19 -3.99064e-05)
(-0.00521293 0.00355394 4.05025e-20 0.00523036 1.84716e-19 -1.74306e-05)
(-0.00596509 0.00649609 8.78939e-20 0.00597523 1.53126e-20 -1.01401e-05)
(-0.00579011 0.00890056 2.53185e-20 0.00580815 4.35583e-20 -1.80448e-05)
(-0.00468187 0.0113202 -1.16708e-20 0.00468952 -6.63494e-20 -7.65239e-06)
(-0.00251057 0.0145018 -3.07129e-20 0.00250702 -1.84505e-19 3.55203e-06)
(0.0011957 0.0187367 5.64324e-21 -0.00122679 -2.8603e-19 3.109e-05)
(0.0063115 0.0227373 1.64543e-20 -0.00637002 -1.26897e-19 5.85169e-05)
(0.0117716 0.025514 -1.11452e-22 -0.0118798 1.11494e-19 0.0001082)
(0.0160171 0.0260101 -5.66721e-20 -0.016198 6.01557e-19 0.000180953)
(0.0182858 0.0244673 1.53564e-19 -0.0185266 -6.32922e-19 0.000240788)
(0.0190896 0.0220145 1.36638e-19 -0.0193696 -4.62607e-19 0.000280074)
(0.0195905 0.0205421 1.51085e-19 -0.0198682 1.15917e-18 0.000277705)
(0.0189686 0.0200641 -7.75618e-20 -0.0192149 3.30513e-19 0.000246313)
(0.0169604 0.0215501 -4.88294e-19 -0.0171321 -4.60099e-19 0.000171758)
(0.0131394 0.0253303 2.31022e-19 -0.0132603 -9.4741e-19 0.000120932)
(0.00683907 0.0313591 -4.7735e-19 -0.00689786 6.01309e-19 5.87895e-05)
(-0.00247126 0.0399541 6.33568e-19 0.00241309 -5.73279e-19 5.81669e-05)
(-0.0149307 0.0519322 4.80537e-19 0.0149186 -1.32131e-18 1.21886e-05)
(-0.0305507 0.0679184 4.8039e-19 0.0307455 7.52877e-19 -0.000194786)
(-0.0504559 0.0887714 5.04961e-19 0.0505571 1.67268e-18 -0.000101237)
(-0.0745265 0.116696 3.89891e-19 0.073726 1.80435e-18 0.000800441)
(-0.0958897 0.156145 -6.24088e-19 0.097995 -2.31704e-18 -0.00210523)
(-0.154262 0.194083 5.30296e-20 0.149953 -7.91491e-19 0.00430847)
(-0.140749 0.323252 -2.22985e-19 0.14926 -1.82221e-18 -0.00851147)
(-0.175899 0.272209 -5.77138e-19 0.175601 -9.12412e-19 0.000298068)
(0.00150014 -0.00185626 1.41151e-21 -0.00149684 3.21905e-21 -3.30095e-06)
(0.000428031 -0.0021101 -2.14824e-21 -0.000370472 -4.53479e-21 -5.75595e-05)
(-0.000630183 -0.00211449 1.13867e-20 0.000640732 2.12919e-20 -1.0549e-05)
(-0.000653085 -0.00120037 1.5342e-20 0.000666311 2.51565e-20 -1.32263e-05)
(0.00109871 0.000224623 -1.32521e-20 -0.00106004 -1.884e-20 -3.86633e-05)
(0.0381522 0.00935924 2.12316e-20 -0.0381111 -3.56806e-21 -4.10275e-05)
(0.238619 0.0226439 -4.88872e-20 -0.241144 -1.24085e-20 0.00252547)
(0.48982 -0.0383949 -2.31059e-19 -0.488937 1.81379e-19 -0.000883326)
(0.43892 -0.149146 3.13714e-19 -0.443383 -1.53732e-19 0.00446304)
(0.204489 -0.15219 -7.25871e-21 -0.204288 2.0459e-19 -0.000200735)
(0.0895419 -0.095325 2.84976e-19 -0.0845673 -1.85035e-18 -0.00497461)
(0.0471609 -0.0614959 -2.14708e-19 -0.0464224 3.23172e-19 -0.000738532)
(0.0267913 -0.0414123 -2.33115e-19 -0.0269987 1.89695e-19 0.000207352)
(0.0140748 -0.0281565 2.8753e-19 -0.014116 -1.8632e-18 4.11532e-05)
(0.00595725 -0.0181025 2.1979e-19 -0.00603518 1.2614e-19 7.79302e-05)
(2.09111e-05 -0.00928281 1.36441e-19 -2.13881e-05 1.40485e-19 4.76953e-07)
(-0.00409947 -0.00202009 -1.25062e-19 0.00409231 4.93574e-19 7.1583e-06)
(-0.0064564 0.00389759 -8.15395e-21 0.00642999 1.14564e-19 2.64021e-05)
(-0.00697146 0.00838894 2.5456e-20 0.00695475 -5.22634e-20 1.67107e-05)
(-0.00568803 0.011935 3.47997e-20 0.00566444 4.16888e-20 2.35977e-05)
(-0.00269577 0.0155267 3.18265e-21 0.00269307 1.9203e-19 2.69419e-06)
(0.00235121 0.0195771 -7.90894e-20 -0.00234163 1.99326e-19 -9.58623e-06)
(0.00878947 0.0223856 8.54613e-20 -0.00876469 1.57729e-19 -2.47802e-05)
(0.0148479 0.0230041 1.42104e-19 -0.0148367 3.23796e-19 -1.12414e-05)
(0.0190516 0.021087 -1.02474e-19 -0.0190764 -7.14219e-20 2.47614e-05)
(0.0214525 0.0177239 -8.33936e-20 -0.0214988 1.44302e-18 4.6363e-05)
(0.0235521 0.0144341 4.61525e-20 -0.0236134 -2.86214e-20 6.12373e-05)
(0.0246137 0.0118702 -2.43797e-19 -0.0246358 -5.88543e-19 2.21138e-05)
(0.024359 0.0111002 -3.88781e-19 -0.0243925 -1.22621e-18 3.34416e-05)
(0.0217285 0.0127636 3.68983e-19 -0.0217074 -5.61885e-19 -2.11092e-05)
(0.0159243 0.0173257 1.45867e-20 -0.0159032 1.46893e-18 -2.11051e-05)
(0.00614641 0.0254335 2.57505e-19 -0.00605593 -9.44869e-19 -9.04826e-05)
(-0.00803256 0.0379707 -5.87358e-19 0.00809898 2.72543e-18 -6.64214e-05)
(-0.0268035 0.0562314 -1.04609e-18 0.0269356 1.69144e-19 -0.00013211)
(-0.0500476 0.0808503 -4.48635e-19 0.0504166 5.7632e-19 -0.000368956)
(-0.0790661 0.112861 -5.1876e-19 0.0791975 6.85148e-19 -0.000131432)
(-0.113649 0.155605 4.42343e-20 0.112767 -2.42422e-20 0.000881884)
(-0.145203 0.216991 -4.32227e-20 0.148165 6.07667e-20 -0.00296201)
(-0.209318 0.28057 3.52344e-20 0.203075 1.65745e-18 0.00624297)
(-0.197427 0.460227 -1.42976e-19 0.208813 -1.01657e-18 -0.0113856)
(-0.151453 0.429647 7.64002e-19 0.150332 -1.00657e-18 0.00112137)
(0.00115525 -0.00126892 -1.50574e-21 -0.00116325 -2.41903e-21 7.99372e-06)
(0.000438009 -0.00150272 7.31271e-21 -0.000426349 1.08797e-20 -1.16599e-05)
(-0.000159031 -0.00147829 -3.83327e-21 0.000168795 -6.85319e-21 -9.76367e-06)
(-0.00073549 -0.00148074 -3.62185e-21 0.000728721 -8.11062e-21 6.7684e-06)
(-0.000492296 -0.000711207 2.30964e-21 0.000492354 4.85937e-21 -5.84107e-08)
(0.000482722 -1.0215e-05 -1.66539e-21 -0.000463777 -1.67231e-21 -1.89441e-05)
(0.0245255 0.00455897 -1.80867e-20 -0.0243918 -1.87078e-20 -0.000133773)
(0.188109 0.013284 -5.47446e-20 -0.189246 5.21042e-20 0.00113699)
(0.477647 -0.0368069 -1.05973e-19 -0.478873 -9.98621e-20 0.00122641)
(0.545499 -0.152897 -3.38177e-19 -0.5466 -7.65557e-19 0.00110155)
(0.3367 -0.208326 2.62886e-19 -0.343086 3.32746e-19 0.00638644)
(0.149502 -0.147393 4.55765e-19 -0.143635 -6.23383e-19 -0.00586672)
(0.0791845 -0.0982268 -6.60333e-19 -0.0763753 5.19162e-19 -0.00280921)
(0.0453958 -0.0647669 3.09298e-19 -0.0451483 8.6971e-19 -0.000247537)
(0.0252558 -0.0444955 3.16913e-22 -0.0256102 3.64847e-19 0.000354428)
(0.0121349 -0.0285391 -1.76205e-19 -0.0122601 -6.36708e-20 0.000125164)
(0.00264789 -0.0155877 1.24405e-19 -0.00269867 -6.96439e-19 5.07776e-05)
(-0.00340732 -0.00487842 -2.51736e-20 0.00334968 4.43639e-19 5.76406e-05)
(-0.00620738 0.00317042 4.79661e-20 0.00618783 -8.07774e-20 1.95541e-05)
(-0.00564647 0.00858554 3.40938e-20 0.00560479 1.4895e-19 4.16767e-05)
(-0.00227289 0.0122116 -4.3356e-20 0.00225581 -2.1989e-19 1.70831e-05)
(0.00346971 0.0149794 1.68552e-20 -0.00347933 1.34064e-20 9.62159e-06)
(0.0103774 0.0158133 2.22378e-20 -0.0103605 6.76572e-20 -1.69418e-05)
(0.01648 0.0141166 -2.0161e-19 -0.0164688 -2.41291e-19 -1.11697e-05)
(0.0210094 0.0102727 1.87211e-19 -0.0210338 -5.68304e-19 2.43554e-05)
(0.0249388 0.00542284 4.63618e-20 -0.0249525 -2.88693e-19 1.37394e-05)
(0.0283904 0.000488757 -3.84039e-19 -0.0284314 -2.86736e-19 4.10563e-05)
(0.0309316 -0.00309774 1.15828e-19 -0.0309499 -7.62335e-19 1.83327e-05)
(0.0314879 -0.00462415 7.44644e-19 -0.0315214 -1.24009e-19 3.3545e-05)
(0.0284117 -0.00311148 1.91017e-19 -0.0283612 1.13127e-18 -5.05305e-05)
(0.0206981 0.00252282 -4.15484e-19 -0.0206418 -6.16689e-19 -5.6268e-05)
(0.00747199 0.0135624 -4.54479e-19 -0.00733248 5.45047e-19 -0.000139508)
(-0.0116322 0.0313001 1.17507e-19 0.0117484 -2.85033e-18 -0.000116203)
(-0.0368435 0.0576651 1.06267e-18 0.0370495 -1.79393e-18 -0.000206034)
(-0.0678286 0.0933771 6.76481e-19 0.068283 -1.61658e-18 -0.000454382)
(-0.105565 0.139535 -2.82802e-19 0.10559 -5.98007e-20 -2.48443e-05)
(-0.149029 0.200887 1.51616e-19 0.148122 1.3428e-18 0.000907878)
(-0.187599 0.287397 -1.41453e-19 0.191041 -8.1866e-19 -0.00344267)
(-0.247178 0.37908 -4.27097e-19 0.239808 6.25322e-19 0.00737027)
(-0.238385 0.588079 -6.23495e-19 0.251316 1.83936e-18 -0.012931)
(-0.123358 0.588828 -5.77329e-19 0.123936 -8.61701e-19 -0.000578167)
(0.000888072 -0.000855615 -3.0366e-22 -0.000893871 -5.98104e-22 5.79956e-06)
(0.000451654 -0.00108494 5.44421e-22 -0.000452937 1.06297e-21 1.28313e-06)
(4.06387e-05 -0.00109637 -3.53931e-21 -4.0128e-05 -4.64035e-21 -5.10662e-07)
(-0.000333668 -0.00106992 -5.40562e-21 0.000337965 -6.83002e-21 -4.29688e-06)
(-0.0006795 -0.00102418 -2.1283e-21 0.00067675 -2.40887e-21 2.75011e-06)
(-0.00042945 -0.000499115 5.16591e-21 0.000426517 6.83265e-21 2.93253e-06)
(0.000165583 -0.000120407 -1.36879e-21 -0.000156749 -1.90619e-21 -8.83353e-06)
(0.00953078 0.00114337 1.10729e-20 -0.00944324 1.19223e-20 -8.75358e-05)
(0.123826 0.00592918 1.98746e-19 -0.12403 1.90402e-19 0.000204336)
(0.400551 -0.0298997 -1.45765e-19 -0.402363 2.10453e-19 0.00181169)
(0.601606 -0.13825 -6.9751e-20 -0.600106 5.51075e-19 -0.00150014)
(0.491455 -0.244923 2.04006e-19 -0.499279 -8.01262e-19 0.0078238)
(0.256179 -0.222871 3.44559e-19 -0.257851 9.91842e-19 0.00167189)
(0.126959 -0.146139 -6.47744e-19 -0.11992 -2.14574e-19 -0.00703946)
(0.0731992 -0.100028 2.84915e-19 -0.0716219 -1.08591e-18 -0.00157724)
(0.0434214 -0.0673765 -1.8405e-19 -0.0435643 6.12855e-19 0.000142856)
(0.0221318 -0.0435445 1.2662e-19 -0.0224403 6.04613e-19 0.000308502)
(0.00814948 -0.0250668 1.11416e-19 -0.00833204 2.86656e-19 0.000182564)
(-0.000528412 -0.0109337 -5.56658e-20 0.00048817 2.48396e-19 4.02419e-05)
(-0.00325924 -0.00189693 5.14419e-21 0.00320141 -6.9714e-19 5.78323e-05)
(-0.00116712 0.00271222 1.57822e-20 0.00117048 2.98537e-19 -3.35891e-06)
(0.00414467 0.00392021 -8.86873e-20 -0.00417706 -8.91199e-21 3.23809e-05)
(0.0106651 0.00255609 6.31022e-20 -0.010686 -3.38344e-19 2.09767e-05)
(0.0169792 -0.00134477 1.43627e-19 -0.0169966 -4.71977e-20 1.74601e-05)
(0.0226454 -0.00740374 -1.07031e-19 -0.0226646 7.13064e-19 1.91687e-05)
(0.0282037 -0.0143885 -2.15894e-19 -0.0282081 -6.33078e-19 4.40944e-06)
(0.0340316 -0.0210283 3.24657e-19 -0.0340764 -4.06285e-19 4.48508e-05)
(0.0389105 -0.0262741 1.28065e-19 -0.0389278 1.21065e-18 1.73372e-05)
(0.0409939 -0.0291146 1.07027e-19 -0.0410084 1.33432e-18 1.45241e-05)
(0.0382644 -0.0279099 -2.23e-19 -0.0381925 -2.36488e-19 -7.1857e-05)
(0.0294246 -0.0208439 -9.53776e-22 -0.0293298 -9.29507e-19 -9.48047e-05)
(0.0135259 -0.00602943 -5.23188e-19 -0.0133608 -2.54651e-19 -0.00016513)
(-0.009658 0.0182535 -1.61783e-19 0.00984513 1.31324e-18 -0.000187125)
(-0.04028 0.0545514 2.0322e-19 0.0405826 2.00753e-18 -0.00030268)
(-0.0777592 0.103734 1.66668e-18 0.0782567 6.49516e-19 -0.000497526)
(-0.122123 0.166746 -1.944e-19 0.122021 -7.68407e-19 0.000102233)
(-0.170647 0.249284 -1.90315e-18 0.169926 -7.28277e-19 0.00072174)
(-0.210796 0.360009 3.48352e-19 0.214121 -1.19787e-19 -0.00332464)
(-0.257087 0.477469 -2.26365e-19 0.250009 -1.88782e-18 0.00707818)
(-0.245786 0.69112 -1.59897e-19 0.257685 6.18165e-19 -0.0118987)
(-0.0940408 0.723939 6.18781e-19 0.099399 1.82866e-18 -0.00535817)
(0.000673947 -0.000591833 -6.12302e-23 -0.000679482 2.36823e-23 5.53505e-06)
(0.000418293 -0.000768741 -1.46435e-21 -0.00041752 -1.83269e-21 -7.73133e-07)
(0.000144469 -0.000845893 1.47429e-21 -0.000143266 1.48578e-21 -1.20271e-06)
(-0.000112748 -0.000808426 6.32724e-21 0.000115453 7.96517e-21 -2.70411e-06)
(-0.000359872 -0.000767192 1.23284e-21 0.000365361 1.60798e-21 -5.48862e-06)
(-0.0005973 -0.000737302 1.08742e-21 0.000597513 7.70011e-22 -2.13728e-07)
(-0.000378458 -0.00036925 -7.51994e-21 0.000375038 -8.10108e-21 3.4194e-06)
(-4.64773e-05 -0.000176606 -3.89584e-22 4.91168e-05 -3.2955e-22 -2.63952e-06)
(0.00171263 3.14815e-05 -4.59681e-21 -0.00169004 -6.03066e-21 -2.25865e-05)
(0.064977 0.00135771 1.39221e-19 -0.064837 1.50347e-19 -0.00014001)
(0.28186 -0.0203811 -2.45619e-19 -0.282739 -4.96054e-19 0.000879779)
(0.568255 -0.112972 -1.4522e-19 -0.568363 5.41412e-19 0.000108079)
(0.620786 -0.24157 2.15711e-19 -0.622245 -7.33416e-19 0.00145883)
(0.416174 -0.294791 -2.66098e-19 -0.42562 -3.11805e-19 0.00944567)
(0.21161 -0.223795 7.33137e-19 -0.208141 -1.56785e-19 -0.00346853)
(0.115792 -0.148801 3.1507e-19 -0.109918 6.64914e-19 -0.00587404)
(0.0696587 -0.100857 -3.08469e-19 -0.0687716 3.96805e-19 -0.000887167)
(0.0392354 -0.0667231 -2.99118e-19 -0.0396178 3.47553e-19 0.000382447)
(0.0171211 -0.0408441 -4.71404e-19 -0.0174447 -4.55794e-20 0.000323677)
(0.00519514 -0.0245321 3.69441e-19 -0.00539912 -3.802e-19 0.000203979)
(0.0017417 -0.0161241 1.17804e-19 -0.00174357 5.46386e-19 1.86454e-06)
(0.00468131 -0.0149036 -2.36342e-19 -0.0047194 -1.40221e-19 3.80878e-05)
(0.0102604 -0.0180388 8.20391e-20 -0.0102673 2.52031e-19 6.90795e-06)
(0.0166256 -0.0245948 6.75767e-20 -0.0166196 1.54572e-19 -6.07949e-06)
(0.0235648 -0.033368 1.42592e-20 -0.0235436 -2.57113e-19 -2.12419e-05)
(0.0316034 -0.04289 -6.62546e-21 -0.0315898 3.5665e-19 -1.35666e-05)
(0.0406535 -0.0521263 2.57747e-19 -0.0406719 9.39675e-19 1.83943e-05)
(0.0488937 -0.0600069 1.93501e-19 -0.0488872 -3.83378e-19 -6.5057e-06)
(0.0538385 -0.0648134 -4.97786e-19 -0.0538301 1.03387e-19 -8.36916e-06)
(0.0530696 -0.0641953 -8.13399e-19 -0.0529766 -8.32008e-19 -9.30684e-05)
(0.0449122 -0.0555985 4.5749e-19 -0.0447868 -2.3703e-20 -0.00012546)
(0.028248 -0.0364674 6.10087e-19 -0.0280777 -9.15624e-19 -0.000170357)
(0.00322533 -0.00460227 5.60219e-19 -0.00293879 2.74393e-19 -0.00028654)
(-0.0301421 0.0427288 -7.56667e-19 0.030597 -9.93302e-20 -0.000454854)
(-0.0710398 0.10693 -9.19478e-19 0.0715393 1.3645e-18 -0.000499535)
(-0.117967 0.188117 -3.85512e-19 0.117782 -1.28222e-18 0.000185106)
(-0.165938 0.291476 1.34716e-18 0.165534 -1.54131e-19 0.000403356)
(-0.201269 0.421013 -2.9967e-19 0.203897 2.8448e-19 -0.00262769)
(-0.229 0.555942 3.43963e-19 0.22355 -2.82409e-19 0.00545056)
(-0.209741 0.750558 -6.92188e-19 0.217605 -9.86379e-19 -0.00786354)
(-0.058935 0.79919 -4.57563e-19 0.0709935 5.44531e-19 -0.0120585)
(0.000514053 -0.000415527 -2.29812e-22 -0.000517724 -3.16192e-23 3.67129e-06)
(0.000354984 -0.000545338 -1.14317e-21 -0.00035487 -1.88339e-21 -1.14481e-07)
(0.000184246 -0.000621192 4.9274e-21 -0.000184281 5.37617e-21 3.5227e-08)
(3.3321e-06 -0.00063989 -8.05718e-22 -3.68178e-06 -5.7276e-22 3.49678e-07)
(-0.000163486 -0.000587733 1.73152e-21 0.000164707 1.5886e-21 -1.22099e-06)
(-0.000337031 -0.000557879 -1.53281e-21 0.000341335 -1.46555e-21 -4.30429e-06)
(-0.000477603 -0.000501183 4.01624e-21 0.000479631 5.03055e-21 -2.02839e-06)
(-0.000350215 -0.000293649 3.07413e-21 0.00034788 2.65773e-21 2.33454e-06)
(-0.000175398 -0.000191067 9.00318e-23 0.000174549 7.45769e-22 8.49554e-07)
(0.000286709 -6.75924e-05 3.86925e-21 -0.000282014 3.45837e-21 -4.69522e-06)
(0.0233642 -0.000495249 -6.21771e-22 -0.0232265 4.66666e-21 -0.00013777)
(0.158645 -0.0120924 -2.60644e-19 -0.158674 -1.86472e-19 2.87892e-05)
(0.439836 -0.0776206 1.21473e-19 -0.440608 -2.77356e-19 0.000771775)
(0.660035 -0.207492 -2.77943e-19 -0.658735 7.2871e-19 -0.00130013)
(0.591699 -0.324152 -3.29773e-19 -0.598396 -7.85629e-19 0.00669733)
(0.359002 -0.319546 4.28131e-19 -0.366559 5.65566e-19 0.00755686)
(0.189431 -0.22502 2.96681e-19 -0.183209 -1.23561e-18 -0.0062212)
(0.108834 -0.150552 1.00057e-19 -0.104121 4.34364e-19 -0.00471384)
(0.0630777 -0.101215 -5.79458e-19 -0.0626712 -8.8632e-19 -0.000406476)
(0.0308274 -0.0691641 2.47857e-19 -0.031415 9.45703e-19 0.000587619)
(0.0119662 -0.0498075 4.19907e-20 -0.012312 -6.68115e-19 0.000345796)
(0.00694421 -0.0444873 -2.17642e-19 -0.00707887 3.06967e-19 0.000134655)
(0.00939543 -0.0473598 1.55165e-19 -0.00936944 1.63203e-20 -2.59915e-05)
(0.0153819 -0.0560389 -2.28376e-20 -0.0153775 2.25164e-20 -4.40353e-06)
(0.0238307 -0.0678797 -8.63696e-20 -0.0238379 4.82025e-19 7.23681e-06)
(0.034955 -0.0810772 3.88544e-20 -0.0349643 -1.03465e-19 9.30745e-06)
(0.0482211 -0.0943552 -6.02988e-19 -0.0482473 6.78874e-20 2.62579e-05)
(0.0613163 -0.106146 -2.29538e-19 -0.0613404 9.15583e-20 2.41572e-05)
(0.0712557 -0.113998 -7.10085e-20 -0.0712836 -9.27831e-19 2.78227e-05)
(0.0751546 -0.114805 9.84265e-19 -0.0751304 -4.58372e-20 -2.41863e-05)
(0.0708404 -0.105298 -2.41696e-20 -0.0707839 6.88654e-19 -5.64665e-05)
(0.0569421 -0.082186 3.69353e-19 -0.0568702 6.9405e-19 -7.19359e-05)
(0.0339229 -0.0427033 -7.08683e-19 -0.0336532 2.69936e-19 -0.000269714)
(0.00243005 0.015259 9.50038e-19 -0.00186348 -1.13561e-18 -0.000566575)
(-0.0363254 0.0938173 1.78986e-19 0.0368207 -1.2621e-19 -0.000495307)
(-0.0798731 0.191954 1.10026e-18 0.079718 2.86442e-19 0.000155165)
(-0.12089 0.311607 -2.37456e-18 0.120783 3.48017e-19 0.000106632)
(-0.145893 0.450391 5.69661e-19 0.147638 2.07874e-19 -0.00174458)
(-0.155043 0.588942 1.50185e-19 0.151908 4.2935e-19 0.0031349)
(-0.13096 0.746285 8.01645e-19 0.134671 1.35505e-19 -0.00371116)
(-0.0120938 0.789733 -4.51463e-19 0.0279013 -1.32926e-18 -0.0158076)
(0.000391226 -0.000295321 -8.88437e-22 -0.00039372 -1.0214e-21 2.49401e-06)
(0.000289172 -0.000389575 3.53025e-21 -0.000289629 3.51956e-21 4.56207e-07)
(0.000180363 -0.000451693 -8.56629e-22 -0.000180515 -4.68854e-22 1.51389e-07)
(6.19173e-05 -0.00048483 -6.46197e-21 -6.2131e-05 -6.52569e-21 2.13716e-07)
(-5.93996e-05 -0.00047964 -6.59149e-22 5.91012e-05 -1.00593e-21 2.98418e-07)
(-0.00016891 -0.000431949 6.35256e-21 0.000169477 6.4908e-21 -5.6682e-07)
(-0.000287931 -0.000400147 -1.45649e-21 0.000290733 -1.71969e-21 -2.80127e-06)
(-0.000370053 -0.000338345 -1.49441e-20 0.000372638 -1.44457e-20 -2.58489e-06)
(-0.000316045 -0.000229949 1.05938e-20 0.000315285 1.00374e-20 7.59852e-07)
(-0.000228251 -0.000172345 5.32841e-22 0.000226187 -2.70908e-22 2.06457e-06)
(5.59189e-05 -0.000214409 -8.73493e-22 -5.36222e-05 -1.3267e-21 -2.29675e-06)
(0.0050419 -0.000576726 -6.27193e-21 -0.00499586 -3.84393e-21 -4.60333e-05)
(0.0685633 -0.00638334 -1.57221e-19 -0.06837 -1.08931e-19 -0.00019333)
(0.272469 -0.0445847 1.4955e-19 -0.272691 -6.89667e-20 0.000222055)
(0.565702 -0.151686 -5.84538e-19 -0.565434 3.88643e-19 -0.000267415)
(0.698889 -0.295762 5.3971e-19 -0.698372 -2.42896e-19 -0.000516422)
(0.554738 -0.381896 -4.27312e-19 -0.564942 5.76124e-19 0.0102035)
(0.324819 -0.33339 -9.80801e-20 -0.330002 -1.77473e-19 0.0051823)
(0.175013 -0.228022 -1.80513e-19 -0.167978 -2.76772e-19 -0.0070347)
(0.0954547 -0.155326 2.38135e-19 -0.0916748 -8.0283e-19 -0.00377994)
(0.0471341 -0.112313 3.5632e-19 -0.0470597 2.13489e-19 -7.43851e-05)
(0.0202171 -0.0929159 -1.94825e-19 -0.0208757 -7.17989e-19 0.000658536)
(0.0113434 -0.0889577 -1.59468e-19 -0.0117332 3.00756e-19 0.000389846)
(0.0137351 -0.0967266 4.59765e-19 -0.0139257 -4.14801e-19 0.000190564)
(0.0228891 -0.111534 -2.6893e-19 -0.0229418 5.88287e-20 5.27459e-05)
(0.0374553 -0.129906 -3.65288e-19 -0.0374569 -2.81782e-19 1.58405e-06)
(0.0561603 -0.149231 7.51397e-19 -0.0561796 -1.0389e-18 1.9337e-05)
(0.076238 -0.166785 -1.14378e-19 -0.0762876 8.71538e-19 4.95584e-05)
(0.0942183 -0.179264 8.5035e-21 -0.0942864 -6.59243e-20 6.81119e-05)
(0.106706 -0.18292 -6.62507e-19 -0.106752 9.43246e-19 4.63278e-05)
(0.111013 -0.173982 2.00493e-19 -0.111026 -5.83409e-19 1.31849e-05)
(0.105422 -0.148555 -2.73861e-19 -0.105448 3.79112e-19 2.60341e-05)
(0.090233 -0.103248 -6.65995e-19 -0.0901569 -4.56256e-19 -7.60946e-05)
(0.0673211 -0.0367915 3.30434e-19 -0.0668662 1.4847e-18 -0.000454882)
(0.0384435 0.0522444 -8.08545e-19 -0.0380584 2.89324e-19 -0.00038516)
(0.00597565 0.162131 -3.20492e-19 -0.00614908 7.89541e-21 0.000173431)
(-0.0220772 0.289853 1.00516e-18 0.0220455 -1.62734e-18 3.16779e-05)
(-0.0340327 0.42608 -6.46133e-19 0.035078 6.43623e-19 -0.00104534)
(-0.0300996 0.552161 -2.59808e-19 0.0290667 -8.51564e-19 0.00103295)
(-0.0111283 0.663241 -2.33784e-18 0.0121425 -7.21353e-19 -0.00101417)