/*--------------------------------*- C++ -*----------------------------------*\
| =========                 |                                                 |
| \\      /  F ield         | OpenFOAM: The Open Source CFD Toolbox           |
|  \\    /   O peration     | Version:  2312                                  |
|   \\  /    A nd           | Website:  www.openfoam.com                      |
|    \\/     M anipulation  |                                                 |
\*---------------------------------------------------------------------------*/
FoamFile
{
    version     2.0;
    format      ascii;
    arch        "LSB;label=32;scalar=64";
    class       volScalarField;
    location    "400";
    object      turbulenceProperties:L;
}
// * * * * * * * * * * * * * * * * * * * * * * * * * * * * * * * * * * * * * //

dimensions      [0 1 0 0 0 0 0];

internalField   nonuniform List<scalar> 
11040
(
0.000454046
0.000478536
0.000780154
0.0015242
0.00139497
0.00131383
0.00128785
0.00128442
0.00126345
0.00125778
0.00124749
0.00124137
0.00123714
0.00123689
0.00123748
0.00124254
0.00125145
0.00127211
0.00144332
0.0016006
0.00173256
0.00184512
0.00187159
0.00178112
0.00161343
0.00147349
0.00144479
0.00141774
0.00140254
0.00140599
0.00143427
0.00147644
0.00154598
0.00167621
0.00182433
0.0018313
0.00239948
0.00475819
0.00342042
0.00203652
0.00195751
0.00120903
0.00107189
0.000701494
0.000784676
0.00219104
0.00391392
0.00632064
0.00971321
0.0143988
0.0296381
0.0134768
0.0104081
0.00887153
0.00800892
0.00739154
0.00695622
0.00660865
0.00635598
0.00618818
0.00609221
0.0059574
0.00573851
0.00548064
0.00525149
0.00504933
0.00490361
0.00488313
0.00501048
0.00532983
0.00586815
0.00673969
0.00758194
0.0082029
0.0086731
0.00907453
0.00932547
0.00940716
0.00938265
0.00971679
0.00957349
0.0110666
0.00154361
0.00166568
0.00147487
0.000840589
0.00140929
0.00283255
0.00483947
0.00792485
0.0100477
0.0124404
0.0152837
0.0193467
0.0285005
0.0306225
0.021739
0.0171692
0.014666
0.0130826
0.0120022
0.0112906
0.0107829
0.0102832
0.00974824
0.00923251
0.00885017
0.00876653
0.00913076
0.0101075
0.0118446
0.0137004
0.0152646
0.0163288
0.0170251
0.0173124
0.0171925
0.0168036
0.0162774
0.0158829
0.0155871
0.0149503
0.0192274
0.00180258
0.00198605
0.00212863
0.00206101
0.00112684
0.00190812
0.00340695
0.00551675
0.00888839
0.0119115
0.0145697
0.0170106
0.0202571
0.0256388
0.0353969
0.0379047
0.0270819
0.021568
0.0185438
0.016923
0.0160439
0.0153845
0.0144934
0.0136532
0.013308
0.0137739
0.0153633
0.0183293
0.0218118
0.0253111
0.0282858
0.0300059
0.0299184
0.0284555
0.0266467
0.0249572
0.0235139
0.0224722
0.0216654
0.0204787
0.0274021
0.00210053
0.00221826
0.00218229
0.00277895
0.00329379
0.00143218
0.00235346
0.00387845
0.00612001
0.00934078
0.0134381
0.0168415
0.0196853
0.0235234
0.0285126
0.0387276
0.0515985
0.0375528
0.0289172
0.0250521
0.0231814
0.0220123
0.0205982
0.0196543
0.0198975
0.0218004
0.0257578
0.0306486
0.0361985
0.0429889
0.0504913
0.0536344
0.0487983
0.0423567
0.0374965
0.033998
0.0313918
0.0295184
0.0284627
0.0268318
0.0349181
0.00247578
0.00259335
0.00266699
0.00251527
0.00394732
0.00842333
0.00169483
0.00273588
0.00428092
0.00659333
0.00964706
0.0143238
0.0186748
0.022932
0.0266925
0.0326378
0.0427052
0.064847
0.0546278
0.0416789
0.0362447
0.0334429
0.0309813
0.0299444
0.0311803
0.0347531
0.0390872
0.0440436
0.050678
0.0614007
0.0812821
0.105215
0.0789005
0.0602743
0.0504552
0.044455
0.0403353
0.0374815
0.0361979
0.034378
0.0426762
0.00291952
0.00299247
0.00309978
0.00306094
0.00292218
0.00572807
0.121878
0.00188941
0.00303138
0.0046196
0.00689539
0.00997955
0.0143139
0.0201006
0.0252452
0.0304454
0.0361993
0.0459561
0.0645416
0.100513
0.103685
0.0724882
0.0537343
0.0468316
0.0451023
0.0460374
0.0485279
0.0526121
0.0589105
0.0693545
0.0895046
0.155384
0.143838
0.0862997
0.0673738
0.0574435
0.0511214
0.0470091
0.0453168
0.0435747
0.0517392
0.00342206
0.0034689
0.00350244
0.00359329
0.00351393
0.00331888
0.0110725
1.50865
0.00259831
0.00321403
0.00488055
0.00708381
0.0101938
0.0142209
0.0201021
0.0267574
0.0330208
0.0396166
0.0472664
0.0571042
0.0635688
0.061669
0.0545615
0.0501485
0.04928
0.0507561
0.0537076
0.0580186
0.0641359
0.0733921
0.0888771
0.122403
0.384966
0.135458
0.0927683
0.0752442
0.065193
0.0591477
0.0566159
0.0551342
0.0632322
0.00398663
0.00402244
0.00403114
0.00405554
0.00415861
0.00399582
0.00389708
0.00857875
0.0206635
0.181768
0.00316349
0.00500615
0.00720501
0.0101904
0.0141793
0.0193955
0.0267013
0.0342596
0.0415712
0.0484488
0.0524253
0.0525264
0.0506996
0.0502926
0.0518133
0.0547504
0.0586136
0.0634055
0.0695748
0.0780742
0.0907762
0.112742
0.166096
0.335489
0.139975
0.103023
0.085515
0.0759083
0.0716575
0.0702453
0.0783987
0.00462975
0.00465763
0.0046524
0.00464098
0.00466754
0.00476808
0.00459219
0.00459609
0.00707235
0.050537
0.00691629
0.00316654
0.00500486
0.00725915
0.010099
0.0139399
0.0188298
0.0252567
0.0337552
0.0421077
0.0491957
0.052565
0.0527403
0.0536827
0.0563774
0.0602977
0.0649284
0.0702307
0.0765371
0.0845322
0.0954071
0.111544
0.139157
0.199102
0.229234
0.152013
0.11823
0.101422
0.0937199
0.0916526
0.0996971
0.00536337
0.00538501
0.00537123
0.00534378
0.00532122
0.00535186
0.00542449
0.00533351
0.00518404
0.00670343
0.609208
0.0192621
0.427565
0.00459251
0.00710946
0.00993136
0.0135083
0.018193
0.0239341
0.0314238
0.0409971
0.0493374
0.0544398
0.0577604
0.061482
0.0661603
0.0715792
0.0776435
0.0844901
0.0925202
0.102311
0.114867
0.131967
0.156355
0.186599
0.191423
0.163055
0.139481
0.127276
0.124226
0.132835
0.00620492
0.0062205
0.0062056
0.00616276
0.00611924
0.00608926
0.0061076
0.00617763
0.00614955
0.00591291
0.00684709
0.0361145
0.166371
0.00750851
0.00410342
0.00662787
0.00959263
0.0130113
0.0173035
0.0227464
0.0293219
0.0375882
0.0472505
0.0557894
0.062719
0.0690906
0.0756754
0.0827114
0.0902849
0.0985742
0.107815
0.118355
0.130597
0.144597
0.158829
0.168976
0.1699
0.163517
0.15817
0.159672
0.175452
0.00717412
0.00718246
0.00716892
0.00711779
0.00705181
0.00699409
0.0069541
0.00695349
0.00701924
0.00702401
0.00686279
0.00713226
0.0146307
0.083876
0.0385164
5.91987
0.00586805
0.00888384
0.0123667
0.0163592
0.0212913
0.0273193
0.0342365
0.0425116
0.0526037
0.0633978
0.0738758
0.083404
0.0921542
0.100861
0.109907
0.11929
0.128848
0.138182
0.146506
0.152737
0.156206
0.157352
0.157687
0.160358
0.173542
0.00829499
0.00829391
0.00828338
0.00822689
0.00814188
0.00805613
0.00798315
0.00792738
0.00790801
0.0079491
0.00798724
0.00785617
0.00789013
0.00961039
1.55454
0.59774
0.0102638
0.00900812
0.00798311
0.0113504
0.015315
0.0196322
0.0246201
0.0307977
0.0382597
0.0470126
0.0576392
0.0702337
0.0838378
0.0968648
0.108005
0.117307
0.125403
0.132584
0.138611
0.143119
0.146009
0.147715
0.148856
0.150671
0.157698
0.00959758
0.00958405
0.00957676
0.00951537
0.0094126
0.00929939
0.00919251
0.00909914
0.00902424
0.0089811
0.00899418
0.00903882
0.00898911
0.00889172
0.009548
0.024648
0.11599
0.141522
0.00854125
0.0249986
0.00976572
0.0136424
0.0175408
0.0217537
0.0267221
0.0330976
0.0412709
0.050926
0.0618384
0.0744265
0.0886083
0.103136
0.115975
0.125681
0.132198
0.136338
0.138941
0.140752
0.142083
0.143142
0.147093
0.0111184
0.0110897
0.0110853
0.0110183
0.0108968
0.0107557
0.0106148
0.010481
0.0103613
0.0102635
0.010194
0.0101759
0.0101952
0.0102351
0.0100607
0.0103844
0.0118368
0.201473
0.324934
0.580533
0.00838758
0.00841938
0.010887
0.0144294
0.0184106
0.0226216
0.0276183
0.0340438
0.0424456
0.0526934
0.0639491
0.0756788
0.0879149
0.100463
0.112348
0.122228
0.129293
0.133835
0.136571
0.137899
0.140671
0.0128848
0.0128386
0.0128352
0.0127603
0.0126173
0.0124469
0.0122701
0.0120961
0.0119305
0.011782
0.0116577
0.0115624
0.0115038
0.0115052
0.0115073
0.011498
0.011418
0.0121978
0.0172858
0.926397
0.565948
0.0842759
0.0101592
0.012257
0.00909076
0.0132013
0.0173743
0.0217534
0.026847
0.0331575
0.0410663
0.0506519
0.0614492
0.0726421
0.0835358
0.0938132
0.103305
0.111907
0.119308
0.124969
0.130281
0.0148539
0.0147873
0.0147802
0.0146907
0.0145202
0.014315
0.0140978
0.0138786
0.0136656
0.0134656
0.0132871
0.0131349
0.0130118
0.0129212
0.0128827
0.0128749
0.0128856
0.0127918
0.0129646
0.0140286
0.0244668
0.131842
0.748727
0.45096
0.0415815
0.00922889
0.0118688
0.00877199
0.0118913
0.0175653
0.0232828
0.0297852
0.0372996
0.0458877
0.0553716
0.0653508
0.0752483
0.0846747
0.0932973
0.100753
0.107833
0.0169638
0.0168729
0.0168582
0.0167489
0.0165459
0.016301
0.0160388
0.0157685
0.0155005
0.0152429
0.0150039
0.01479
0.0146053
0.0144502
0.01433
0.0142442
0.0142154
0.0141759
0.0141538
0.0140953
0.0145236
0.0161483
0.0248307
13.8158
0.642559
2.12733
0
0.264321
0.015278
0.00963563
0.0143818
0.0240114
0.0139775
0.0225956
0.0307413
0.0390182
0.0475714
0.0563572
0.0651325
0.0734692
0.0816518
0.0192002
0.0190848
0.0190602
0.0189277
0.018689
0.0184014
0.0180914
0.0177682
0.0174433
0.0171269
0.0168253
0.0165457
0.0162923
0.0160687
0.0158767
0.0157161
0.0155903
0.0155004
0.0154425
0.015368
0.0152714
0.0152818
0.0156491
0.0172641
0.0213359
0.0600296
0.245905
0.856187
1.95471
0
0
1.17321
0.015275
0.0100314
0.0173935
0.0117391
0.0211216
0.0292933
0.0383375
0.0465684
0.0546944
0.0215901
0.0214498
0.0214121
0.0212531
0.0209746
0.0206406
0.0202781
0.0198986
0.0195131
0.0191352
0.0187702
0.0184247
0.0181028
0.0178086
0.0175435
0.0173096
0.0171046
0.0169301
0.0167825
0.0166656
0.0165434
0.0164
0.0162224
0.016152
0.016274
0.0169929
0.0191569
0.0238194
0.0492298
0.227067
0.88531
1.24265
3.39534
0
0
0.157056
0.0145412
0.00873017
0.013015
0.020267
0.0331476
0.0241531
0.0239871
0.0239334
0.0237433
0.0234216
0.0230365
0.0226175
0.0221772
0.0217275
0.0212836
0.0208528
0.0204394
0.020049
0.0196846
0.019348
0.0190406
0.0187617
0.0185104
0.0182825
0.0180785
0.0178933
0.017715
0.0175241
0.0172908
0.0170482
0.0167746
0.0166702
0.0167481
0.0172231
0.0185231
0.0219173
0.0285845
0.0717495
0.29384
0.99811
1.38643
2.16915
14.738
0
0
0
0.0269127
0.0267203
0.0266473
0.0264224
0.0260539
0.0256132
0.0251335
0.0246275
0.0241102
0.0235961
0.0230962
0.0226127
0.0221522
0.0217171
0.0213102
0.0209313
0.020581
0.0202572
0.0199579
0.0196797
0.0194208
0.0191763
0.0189453
0.0187125
0.0184712
0.018192
0.0178734
0.0175573
0.017252
0.0170173
0.0169646
0.0170622
0.0175208
0.0186673
0.0211302
0.0271527
0.0396179
0.263119
0.568573
1.22526
1.4868
0.0298925
0.0296736
0.0295777
0.0293142
0.0288945
0.0283941
0.0278486
0.0272725
0.0266831
0.0260949
0.0255217
0.0249663
0.0244337
0.0239276
0.0234505
0.0230023
0.0225834
0.022192
0.0218259
0.0214827
0.0211602
0.0208561
0.0205694
0.020297
0.0200335
0.0197744
0.0195073
0.0192273
0.0189256
0.0186027
0.0182727
0.0179697
0.0176777
0.0174514
0.0173312
0.0173777
0.0175349
0.0180731
0.0191622
0.0212038
0.0240812
0.0331191
0.0328734
0.0327503
0.0324445
0.0319693
0.0314048
0.0307883
0.0301377
0.0294714
0.0288054
0.0281548
0.0275245
0.0269173
0.0263391
0.0257913
0.0252748
0.0247893
0.0243339
0.0239058
0.0235036
0.0231249
0.0227698
0.0224371
0.0221255
0.0218305
0.0215484
0.0212778
0.0210159
0.0207604
0.0205073
0.0202506
0.0199895
0.0197223
0.019449
0.0191749
0.0189087
0.0186781
0.0184382
0.0182469
0.0181687
0.0180413
0.0366204
0.036348
0.0361936
0.0358414
0.0353061
0.0346729
0.0339802
0.0332503
0.032502
0.0317546
0.0310224
0.0303137
0.0296302
0.0289786
0.02836
0.0277761
0.0272258
0.0267092
0.0262231
0.0257666
0.025338
0.0249379
0.0245659
0.0242216
0.0239008
0.0235993
0.0233152
0.0230469
0.0227938
0.0225552
0.0223304
0.0221166
0.0219143
0.0217204
0.0215315
0.0213439
0.021166
0.0209868
0.0207948
0.0206278
0.0203604
0.040429
0.0401282
0.0399385
0.0395352
0.0389355
0.0382277
0.0374536
0.0366386
0.035804
0.0349707
0.0341536
0.0333628
0.0326014
0.0318745
0.0311853
0.0305344
0.0299215
0.0293462
0.0288064
0.0283002
0.0278277
0.0273889
0.0269835
0.0266125
0.0262716
0.0259557
0.0256628
0.0253915
0.02514
0.024907
0.0246917
0.0244933
0.0243116
0.0241453
0.0239922
0.0238523
0.0237287
0.0236175
0.0235069
0.023425
0.0232296
0.0445782
0.044249
0.0440192
0.0435586
0.042889
0.0421002
0.0412389
0.0403329
0.039407
0.0384829
0.0375771
0.0367011
0.035859
0.0350549
0.0342941
0.0335765
0.032902
0.0322701
0.0316794
0.0311275
0.0306152
0.0301432
0.0297089
0.0293159
0.0289592
0.0286343
0.028337
0.0280664
0.02782
0.0275968
0.0273948
0.027213
0.0270509
0.0269069
0.0267781
0.0266653
0.026572
0.0264933
0.0264212
0.0263789
0.0262268
0.0491072
0.0487472
0.0484712
0.0479474
0.0472012
0.0463246
0.0453696
0.0443666
0.0433441
0.0423247
0.0413269
0.0403623
0.0394369
0.0385546
0.0377215
0.0369377
0.0362031
0.0355172
0.0348782
0.0342839
0.0337362
0.0332353
0.032777
0.032367
0.0319992
0.0316686
0.0313717
0.0311069
0.0308714
0.0306634
0.0304808
0.0303221
0.030187
0.0300729
0.0299772
0.0298997
0.029844
0.0298035
0.0297755
0.0297671
0.0296761
0.0540578
0.0536665
0.0533349
0.0527401
0.0519098
0.050938
0.0498811
0.0487749
0.0476496
0.0465307
0.0454368
0.0443812
0.0433701
0.0424096
0.041504
0.0406554
0.0398623
0.0391252
0.0384422
0.0378102
0.0372326
0.036709
0.0362325
0.0358107
0.0354388
0.0351096
0.0348188
0.0345647
0.0343453
0.0341576
0.0339997
0.0338693
0.0337659
0.0336866
0.033629
0.0335928
0.0335813
0.0335861
0.0336122
0.0336405
0.0336506
0.0594801
0.0590514
0.0586551
0.0579797
0.0570548
0.0559783
0.0548109
0.0535937
0.0523595
0.0511356
0.0499421
0.0487924
0.0476943
0.0466538
0.0456761
0.0447632
0.0439142
0.0431286
0.0424059
0.0417403
0.0411392
0.0405994
0.040112
0.0396853
0.0393156
0.038994
0.038717
0.0384809
0.0382842
0.0381237
0.0379974
0.0379027
0.0378391
0.0378039
0.0377944
0.0378107
0.037855
0.0379172
0.0380144
0.0380839
0.0382552
0.0654282
0.0649561
0.0644794
0.0637102
0.0626796
0.0614867
0.0601992
0.0588629
0.0575133
0.0561794
0.0548827
0.0536365
0.0524506
0.0513299
0.0502807
0.0493054
0.0484036
0.0475728
0.0468141
0.0461202
0.0455011
0.0449518
0.0444596
0.0440353
0.043675
0.043369
0.0431133
0.0429048
0.0427411
0.0426189
0.0425359
0.04249
0.0424798
0.0425028
0.0425565
0.0426417
0.0427592
0.0428961
0.0430876
0.0432042
0.0436269
0.0719638
0.0714355
0.0708624
0.0699816
0.0688302
0.0675081
0.0660895
0.0646241
0.0631522
0.0617024
0.0602993
0.0589552
0.0576813
0.0564812
0.0553632
0.0543287
0.0533779
0.052508
0.0517194
0.0510036
0.050374
0.0498248
0.0493363
0.0489239
0.0485832
0.048304
0.0480809
0.0479116
0.0477937
0.047724
0.0476994
0.047718
0.0477779
0.0478768
0.0480124
0.0481859
0.0483977
0.04863
0.048945
0.0491106
0.049916
0.0791571
0.0785574
0.0778606
0.0768483
0.075557
0.0740891
0.072524
0.0709191
0.0693151
0.0677448
0.0662304
0.064788
0.0634249
0.0621486
0.0609642
0.0598759
0.0588809
0.0579784
0.0571663
0.0564372
0.055805
0.0552664
0.054792
0.0544021
0.0540912
0.0538505
0.053673
0.0535565
0.0534982
0.0534957
0.0535456
0.0536463
0.0537957
0.0539915
0.0542324
0.0545198
0.0548537
0.055209
0.0556872
0.0559039
0.0572816
0.0870869
0.08639
0.0855406
0.0843666
0.0829109
0.081275
0.0795463
0.0777876
0.0760425
0.0743447
0.0727165
0.0711743
0.0697246
0.0683746
0.0671297
0.0659939
0.0649636
0.064038
0.0632147
0.0624848
0.0618659
0.0613532
0.0609106
0.0605611
0.0603004
0.0601177
0.0600067
0.0599651
0.0599904
0.0600804
0.0602324
0.0604446
0.0607147
0.0610409
0.0614231
0.0618637
0.0623617
0.0628828
0.0635828
0.0638572
0.0660827
0.095844
0.0950152
0.0939683
0.0925976
0.090944
0.0891131
0.0871991
0.0852701
0.0833725
0.08154
0.0797952
0.0781528
0.0766191
0.0751998
0.0739001
0.0727235
0.071666
0.0707251
0.0698987
0.0691756
0.0685791
0.0681036
0.0677037
0.0674054
0.0672072
0.0670973
0.0670691
0.0671206
0.0672501
0.0674554
0.0677341
0.0680851
0.068506
0.0689957
0.0695556
0.0701895
0.0708963
0.0716293
0.0726185
0.0729475
0.0763964
0.105528
0.104517
0.103221
0.101603
0.0997103
0.0976508
0.0955235
0.0934051
0.0913403
0.0893657
0.0875005
0.0857601
0.0841476
0.0826681
0.0813254
0.0801245
0.0790584
0.0781245
0.0773209
0.0766342
0.076092
0.0756888
0.0753699
0.0751628
0.0750668
0.0750709
0.0751688
0.0753577
0.0756369
0.0760048
0.0764605
0.0770034
0.0776319
0.0783458
0.0791491
0.0800476
0.0810411
0.0820656
0.0834527
0.0838512
0.0890851
0.116256
0.114992
0.113373
0.111445
0.109262
0.106928
0.104558
0.102224
0.099979
0.0978512
0.0958641
0.0940249
0.0923395
0.0908037
0.0894247
0.0882024
0.0871321
0.0862055
0.0854239
0.0847701
0.0842798
0.0839468
0.0837059
0.0835891
0.0835978
0.08372
0.0839505
0.084287
0.0847301
0.0852789
0.0859336
0.0866957
0.0875631
0.0885377
0.0896245
0.0908326
0.0921624
0.0935309
0.0953925
0.095827
0.103471
0.128147
0.126538
0.124504
0.122184
0.119639
0.116981
0.114327
0.111755
0.109312
0.107025
0.104913
0.102982
0.101236
0.0996681
0.0982858
0.0970876
0.0960634
0.0952036
0.0945095
0.0939635
0.0936034
0.0934238
0.0933467
0.0934072
0.0936077
0.093937
0.0943893
0.0949645
0.095664
0.0964901
0.0974445
0.098532
0.0997515
0.101108
0.102612
0.104278
0.106107
0.107998
0.110563
0.111131
0.122317
0.141346
0.139263
0.136692
0.133878
0.130889
0.127841
0.124858
0.122018
0.11936
0.116906
0.114667
0.112642
0.110827
0.109209
0.10779
0.106575
0.105548
0.1047
0.104029
0.103521
0.103215
0.103115
0.103131
0.103303
0.103634
0.104112
0.104732
0.105493
0.106399
0.10745
0.108652
0.110009
0.111521
0.113194
0.115038
0.117069
0.11929
0.121584
0.124687
0.125221
0.139865
0.156016
0.153274
0.150004
0.146564
0.143041
0.139542
0.13619
0.133049
0.130156
0.127524
0.125161
0.123063
0.121227
0.119646
0.118319
0.117238
0.116382
0.115735
0.115292
0.115038
0.115015
0.115217
0.115544
0.116041
0.116713
0.117551
0.118548
0.119708
0.121036
0.122539
0.124222
0.126099
0.12817
0.130451
0.132955
0.135714
0.138713
0.141862
0.145979
0.147005
0.166792
0.17227
0.168618
0.164426
0.160202
0.15605
0.152065
0.148327
0.144885
0.141747
0.138922
0.136406
0.134187
0.132237
0.130527
0.129049
0.127825
0.126846
0.126098
0.12557
0.125248
0.125171
0.125358
0.125687
0.126204
0.126912
0.127803
0.128869
0.13011
0.131525
0.133121
0.134896
0.136858
0.139001
0.141336
0.14386
0.146595
0.149511
0.152536
0.15637
0.15708
0.176855
0.189994
0.185155
0.179858
0.174716
0.169855
0.165337
0.161213
0.157491
0.154145
0.151157
0.148527
0.146274
0.14442
0.142977
0.141924
0.141195
0.140724
0.140487
0.140479
0.140697
0.141175
0.141903
0.142776
0.143844
0.145111
0.146571
0.148217
0.150055
0.152088
0.15432
0.156758
0.159408
0.162266
0.165337
0.168619
0.172148
0.1758
0.179695
0.183905
0.186392
0.205162
0.209106
0.202818
0.196352
0.190335
0.184808
0.17974
0.175151
0.171051
0.167433
0.164257
0.161458
0.158941
0.156625
0.154462
0.152505
0.150908
0.149734
0.148918
0.148412
0.148177
0.148244
0.148635
0.149201
0.149984
0.150977
0.152163
0.153526
0.155055
0.156743
0.158578
0.160548
0.162637
0.164831
0.167112
0.169449
0.171837
0.174189
0.176577
0.179024
0.179716
0.193573
0.230452
0.222064
0.214159
0.207323
0.201369
0.19601
0.191094
0.186571
0.182458
0.178855
0.175893
0.173695
0.172304
0.171674
0.171606
0.171711
0.171795
0.171971
0.172322
0.172894
0.173712
0.174752
0.175934
0.177298
0.178844
0.180547
0.182391
0.184362
0.186445
0.188624
0.190881
0.193193
0.195523
0.197847
0.200115
0.202365
0.204297
0.206543
0.207363
0.211549
0.213771
0.254393
0.242115
0.231557
0.223345
0.216997
0.211866
0.207492
0.203536
0.199732
0.19587
0.191833
0.187588
0.183242
0.178974
0.175133
0.172308
0.17057
0.169461
0.168803
0.168511
0.168595
0.169035
0.16969
0.170575
0.171657
0.172901
0.174274
0.175753
0.177303
0.178892
0.180481
0.18203
0.183499
0.184846
0.186
0.186934
0.187541
0.187999
0.18774
0.187505
0.190639
0.275369
0.260199
0.247819
0.238046
0.230329
0.224191
0.219454
0.216016
0.213772
0.212573
0.212251
0.212626
0.213488
0.214752
0.21618
0.216655
0.216063
0.215238
0.214459
0.213904
0.213613
0.213567
0.213668
0.213915
0.214296
0.214771
0.21529
0.215827
0.216356
0.216859
0.217309
0.217699
0.21801
0.218261
0.218418
0.218572
0.218463
0.218892
0.217751
0.221928
0.216696
0.257094
0.238525
0.229114
0.226253
0.227474
0.230286
0.232099
0.230932
0.226362
0.219545
0.212083
0.205157
0.199342
0.194715
0.191293
0.189677
0.189671
0.190503
0.191779
0.193331
0.195216
0.197094
0.199161
0.201302
0.20343
0.205493
0.207451
0.209246
0.210821
0.212125
0.213109
0.21372
0.21392
0.213684
0.212957
0.211764
0.20993
0.208087
0.204301
0.205186
0.19556
0.0068768
0.0117934
0.016464
0.0214372
0.0272503
0.0334914
0.039416
0.0450472
0.0514972
0.0620438
0.0937439
0.0781533
0.0391526
0.0178587
0.00759344
0.722171
0.0172295
0.0108551
0.0114804
0.0125859
0.0132861
0.0141129
0.0147805
0.0154312
0.0160746
0.0167316
0.0174841
0.0182833
0.0191957
0.0201265
0.0212295
0.022303
0.0234835
0.0246943
0.0258763
0.0270649
0.0282283
0.0293488
0.0303974
0.0314366
0.0324667
0.0334745
0.0345118
0.0356209
0.0368021
0.0380604
0.03945
0.0409636
0.0426202
0.044459
0.0464908
0.0487631
0.0512841
0.0541103
0.0573447
0.0610377
0.0651818
0.070061
0.0755754
0.0820754
0.089433
0.0983869
0.107904
0.118746
0.130942
0.142163
0.153397
0.162312
0.166321
0.174434
0.169211
0.184202
0.167725
0.188243
0.0112639
0.0147867
0.0190301
0.0238105
0.0293648
0.0350854
0.0401086
0.0443532
0.0485081
0.0540326
0.0649733
0.109722
0.0716066
0.0345116
0.0120373
0.0143321
0.110559
0.0120889
0.0110747
0.0122624
0.0131029
0.0139711
0.0147002
0.0154185
0.0161171
0.0168066
0.017576
0.0183878
0.0193191
0.0202472
0.0213625
0.0224691
0.0236617
0.0249413
0.0261641
0.0274065
0.0286521
0.0298508
0.030976
0.0321023
0.0332359
0.034323
0.0354385
0.03664
0.0379056
0.0392303
0.0407103
0.0423117
0.044033
0.0459664
0.0480999
0.0504674
0.0531056
0.056041
0.059452
0.0632949
0.0675642
0.0726363
0.0782767
0.0849447
0.0923863
0.10141
0.110641
0.121117
0.13278
0.143238
0.153386
0.161934
0.166035
0.174653
0.169713
0.186144
0.168934
0.191775
0.0175724
0.0193409
0.0225584
0.0267605
0.0318226
0.0369962
0.0414005
0.0448611
0.0478378
0.0512075
0.0565828
0.0687589
0.13308
0.0680691
0.0309209
0.00720924
0.0454104
9.03667
0.0122966
0.0117121
0.0127576
0.0136978
0.0145046
0.0153084
0.0160954
0.0168728
0.0176646
0.0185167
0.0194882
0.0204668
0.0215805
0.0227562
0.0239706
0.0253285
0.0266264
0.0279466
0.0292984
0.0306003
0.0318304
0.0330683
0.0343229
0.035509
0.0367214
0.0380251
0.0393862
0.0407932
0.0423676
0.0440633
0.0458634
0.0478971
0.0501374
0.0526078
0.0553655
0.0584165
0.0619981
0.0659502
0.070342
0.0755252
0.081243
0.087899
0.0953069
0.103905
0.112592
0.12228
0.132681
0.141895
0.15099
0.158962
0.163384
0.171837
0.168985
0.185748
0.169381
0.193871
0.0256685
0.0254865
0.0272465
0.0304292
0.0347166
0.0393282
0.0433764
0.0465171
0.0489791
0.0513595
0.054579
0.0604349
0.0746461
0.169486
0.0658474
0.0278787
0.00821402
0.888372
0.321432
0.012798
0.0124061
0.0134198
0.0143106
0.0151817
0.0160503
0.0169086
0.0177514
0.0186524
0.0196604
0.020695
0.0218307
0.0230711
0.0243331
0.0257645
0.0271508
0.0285672
0.0300358
0.0314572
0.032812
0.0341782
0.0355664
0.0368657
0.0381893
0.0396022
0.0410627
0.0425659
0.044233
0.0460207
0.047911
0.0500447
0.0523874
0.054963
0.0578349
0.0610017
0.0647242
0.0687554
0.0732622
0.078492
0.0842421
0.090778
0.0980464
0.106063
0.114162
0.123083
0.132218
0.140489
0.148663
0.15624
0.160924
0.16931
0.168021
0.185043
0.169694
0.195636
0.0355954
0.0335735
0.0333934
0.0351778
0.038447
0.0423985
0.0461315
0.0491173
0.0513365
0.0531733
0.055254
0.0585467
0.0649966
0.0809048
0.201344
0.0646249
0.0253779
0.0121406
1.58725
0.0601641
0.0129977
0.0130381
0.0141251
0.0150793
0.0160053
0.0169264
0.0178359
0.0187918
0.0198342
0.0209171
0.0220944
0.0233936
0.0247209
0.026227
0.0277085
0.0292386
0.0308351
0.0323895
0.0338895
0.0354041
0.036937
0.038366
0.0398145
0.0413473
0.0429133
0.0445178
0.0462815
0.0481622
0.0501436
0.0523743
0.0548144
0.05749
0.0604674
0.0637368
0.067568
0.0716641
0.0762462
0.0814755
0.0871887
0.0935427
0.100564
0.107998
0.115525
0.123779
0.131839
0.139528
0.146801
0.154179
0.15905
0.167569
0.167059
0.184372
0.169964
0.197118
0.0478939
0.0441412
0.0413084
0.0412889
0.0433029
0.0464503
0.0497951
0.0526473
0.0547438
0.0562593
0.0576396
0.0595362
0.0629338
0.0698199
0.0865898
0.19781
0.0637161
0.0226552
0.0110219
0.392126
0.0393421
0.0133494
0.0136409
0.0148762
0.0159351
0.016916
0.0178914
0.0189063
0.0199931
0.0211211
0.0223478
0.0237056
0.0251067
0.026694
0.0282798
0.0299377
0.0316768
0.0333809
0.0350473
0.0367329
0.038427
0.0400041
0.0415943
0.043259
0.0449412
0.0466493
0.0485146
0.0504921
0.0525595
0.0548816
0.0574117
0.0601734
0.0632396
0.0665844
0.0704894
0.0746134
0.0792012
0.0843604
0.0899335
0.0960226
0.102665
0.109525
0.116453
0.124029
0.131233
0.138393
0.145038
0.152231
0.15728
0.165885
0.166007
0.183276
0.170026
0.197927
0.0624696
0.0577713
0.0513162
0.049045
0.049563
0.0517433
0.0545665
0.0572132
0.0592085
0.0605149
0.0614209
0.0624182
0.0641489
0.0675823
0.0746067
0.0913162
0.172468
0.0631483
0.0206511
0.0105601
0.274277
0.041415
0.0141048
0.0143307
0.0157016
0.0168576
0.0179034
0.0189787
0.0201194
0.021298
0.0225756
0.0239948
0.0254718
0.027146
0.0288471
0.0306447
0.032539
0.0344144
0.0362718
0.0381519
0.0400285
0.041776
0.0435279
0.045338
0.0471481
0.048966
0.0509347
0.0530104
0.0551589
0.0575638
0.0601723
0.0630006
0.0661304
0.0695143
0.0734486
0.0775369
0.082051
0.0870501
0.0923751
0.0980997
0.104258
0.110527
0.116828
0.123707
0.130224
0.136838
0.143123
0.150111
0.155339
0.163893
0.16478
0.181634
0.169836
0.198144
0.0788559
0.0749064
0.0637616
0.0587357
0.0575186
0.058563
0.0606999
0.0630054
0.064842
0.0659735
0.066527
0.0668771
0.0675114
0.0690441
0.0723624
0.0792037
0.0948385
0.14964
0.0639241
0.0200699
0.0109333
0.308733
0.0660883
0.0153647
0.0151117
0.0165739
0.0178559
0.0190106
0.0202018
0.0214383
0.0227689
0.0242511
0.0258069
0.0275708
0.0293954
0.0313416
0.033402
0.0354705
0.0375444
0.0396443
0.0417306
0.0436751
0.045612
0.0475843
0.0495343
0.0514714
0.0535441
0.055714
0.0579389
0.0604157
0.0630843
0.0659543
0.0691147
0.0724971
0.0764044
0.0803837
0.0847476
0.0894949
0.0944884
0.0997591
0.105384
0.111041
0.116721
0.12295
0.128876
0.134995
0.14103
0.147802
0.153186
0.161583
0.163297
0.179525
0.169361
0.197958
0.0980945
0.0961318
0.0791168
0.0707382
0.0674803
0.0672215
0.0684925
0.0702803
0.0718355
0.0727559
0.073008
0.0728488
0.0726684
0.0729249
0.0741614
0.0771906
0.0834724
0.0972327
0.13288
0.0666275
0.0212959
0.0122975
0.571543
0.328399
0.0175603
0.0160701
0.0175129
0.0189618
0.0202437
0.021532
0.0229171
0.0244597
0.0260963
0.0279524
0.0299072
0.0320095
0.0342467
0.0365301
0.0388467
0.0411916
0.0435167
0.0456912
0.0478391
0.0499922
0.0520965
0.0541636
0.0563409
0.0585986
0.0608909
0.0634243
0.0661272
0.0690062
0.0721579
0.075492
0.0793058
0.0831045
0.0872456
0.0916609
0.0962653
0.101025
0.10611
0.111155
0.116249
0.121908
0.12731
0.133014
0.138803
0.145341
0.150835
0.159017
0.161509
0.176967
0.168521
0.197353
0.123705
0.123152
0.0983034
0.0857514
0.0799646
0.0780886
0.0782808
0.0793532
0.0804515
0.0810571
0.0809934
0.0803899
0.0795459
0.0788301
0.0786314
0.0794472
0.0819635
0.0873786
0.0985397
0.120563
0.0720177
0.0247949
0.0150469
0.669401
0.112964
0.0235472
0.0173343
0.0185725
0.0201869
0.0215955
0.0230196
0.0246093
0.0263211
0.0282652
0.0303483
0.0326097
0.0350342
0.037554
0.0401421
0.0427657
0.0453653
0.0478088
0.0501968
0.0525504
0.0548243
0.0570301
0.0593117
0.0616491
0.0639944
0.066562
0.0692663
0.0721139
0.0752068
0.0784395
0.0820826
0.0856406
0.0894767
0.0935098
0.0976693
0.101917
0.106464
0.110936
0.115492
0.120654
0.125611
0.130963
0.136498
0.142782
0.148345
0.156284
0.159453
0.174044
0.167277
0.196273
0.166761
0.164715
0.124484
0.105563
0.0962459
0.0920206
0.0906183
0.0906096
0.0910133
0.0911435
0.0906845
0.0896376
0.0882033
0.0866751
0.0853545
0.0845924
0.0848163
0.08663
0.0908592
0.0990807
0.111775
0.0797318
0.0314226
0.086323
0.166999
0.166165
0.0338005
0.0192972
0.0196763
0.0214538
0.0230924
0.0247241
0.0264862
0.0285056
0.0307079
0.0331182
0.0357255
0.0384868
0.0413634
0.0442984
0.0472167
0.0499817
0.052651
0.0552343
0.0576993
0.0600522
0.062435
0.0648378
0.0672139
0.0697825
0.0724495
0.0752168
0.0781933
0.0812632
0.0846614
0.0879231
0.0913825
0.0949955
0.0986801
0.102439
0.106463
0.110419
0.114501
0.119216
0.123805
0.128845
0.134135
0.140161
0.145757
0.153442
0.15719
0.170891
0.16567
0.194765
0.250341
0.287651
0.171803
0.136546
0.120186
0.111708
0.107378
0.105327
0.104303
0.103476
0.102392
0.10083
0.0988135
0.0965479
0.0942628
0.0922267
0.0907404
0.0902203
0.0911327
0.0939805
0.0992784
0.105732
0.0877094
0.0422956
0.015358
0.0136239
0.281342
0.083998
0.0228464
0.0209933
0.0227176
0.0247382
0.0266167
0.0286649
0.0309602
0.0335188
0.0363155
0.03932
0.0424872
0.0457465
0.0490084
0.0521317
0.05512
0.0579668
0.0606507
0.0631688
0.0656575
0.0681152
0.0704998
0.0730299
0.0756135
0.0782415
0.0810408
0.0838776
0.086973
0.0898825
0.0929303
0.0960882
0.0993085
0.1026
0.106138
0.109632
0.113305
0.117616
0.12189
0.12665
0.131717
0.137493
0.143087
0.150508
0.154752
0.167621
0.163753
0.1929
0.204326
0.285782
0.32498
0.210559
0.168022
0.147068
0.135427
0.128403
0.123727
0.12034
0.117506
0.114735
0.111832
0.108771
0.105557
0.102375
0.0994283
0.0970535
0.0956251
0.0955063
0.0968892
0.0996396
0.102128
0.092829
0.0568596
0.0192899
0.0175465
0.05749
0.14705
0.0442693
0.0238449
0.0241699
0.0264098
0.0287538
0.0310958
0.0336956
0.0366415
0.039906
0.0434082
0.0470506
0.0507182
0.0542554
0.0576003
0.0607279
0.063628
0.0662998
0.0688762
0.0713707
0.0737421
0.076203
0.0786657
0.0811047
0.0836741
0.0862172
0.0889616
0.0914803
0.0941032
0.0967936
0.0995727
0.102431
0.105526
0.108618
0.111931
0.115873
0.119869
0.124373
0.129231
0.134767
0.140323
0.147471
0.152134
0.164257
0.161547
0.19069
0.165516
0.18184
0.210648
0.270669
0.333929
0.262897
0.210543
0.18189
0.163836
0.151681
0.142864
0.135837
0.129969
0.124838
0.12012
0.11562
0.111191
0.10708
0.103597
0.101123
0.0998918
0.0998795
0.100643
0.100755
0.0952713
0.073339
0.0381275
0.0144126
0.391751
0.438296
0.807203
0.0361281
0.0264657
0.0278453
0.0307872
0.0337881
0.0367996
0.040104
0.0437875
0.0477769
0.0519152
0.0559975
0.0598596
0.0634126
0.0666201
0.0694755
0.0721142
0.0745861
0.0768723
0.0791931
0.0814713
0.0836765
0.0859801
0.0882051
0.0905796
0.0927042
0.0949149
0.0971451
0.0995166
0.101967
0.104683
0.107418
0.110427
0.114014
0.11777
0.122029
0.126687
0.131984
0.137473
0.144349
0.149341
0.160815
0.15906
0.188105