/*--------------------------------*- C++ -*----------------------------------*\
| =========                 |                                                 |
| \\      /  F ield         | OpenFOAM: The Open Source CFD Toolbox           |
|  \\    /   O peration     | Version:  2312                                  |
|   \\  /    A nd           | Website:  www.openfoam.com                      |
|    \\/     M anipulation  |                                                 |
\*---------------------------------------------------------------------------*/
FoamFile
{
    version     2.0;
    format      ascii;
    arch        "LSB;label=32;scalar=64";
    class       volScalarField;
    location    "400";
    object      turbulenceProperties:epsilon;
}
// * * * * * * * * * * * * * * * * * * * * * * * * * * * * * * * * * * * * * //

dimensions      [0 2 -3 0 0 0 0];

internalField   nonuniform List<scalar> 
11040
(
70.9445
92.0717
5.91918
0.525535
10.4686
15.3041
14.5533
12.8897
11.19
10.1622
9.0485
8.05987
7.14439
6.18899
5.1508
4.0626
2.87166
1.60705
0.465831
0.294223
0.223771
0.187342
0.198863
0.293002
0.552441
1.34954
3.43994
6.42916
10.1896
14.1297
17.6677
19.4733
19.2311
17.4676
13.1141
5.99682
2.40124
0.199512
1.07372
12.7206
26.8235
0.776761
2.25533
21.5907
41.4063
48.842
7.63935
0.7594
0.114013
0.0153315
0.000700645
0.0125579
0.0285756
0.0450613
0.0587935
0.0690302
0.0764745
0.0806538
0.0831361
0.0859132
0.093476
0.116991
0.166291
0.25712
0.422906
0.657618
0.891378
1.01943
1.04764
0.954241
0.812171
0.691638
0.623568
0.647221
0.726713
0.835418
0.995499
1.28931
1.7772
2.1604
3.18647
4.56632
0.29096
0.220174
0.582413
8.85857
77.105
72.9739
20.6273
2.87447
0.739419
0.263051
0.08825
0.0277176
0.00483879
0.00314626
0.010506
0.02331
0.0369883
0.0498599
0.0621097
0.0789666
0.108969
0.165359
0.257539
0.389392
0.517262
0.579234
0.54969
0.466937
0.39235
0.341378
0.331875
0.36517
0.431986
0.552268
0.765358
1.11693
1.68831
2.51861
3.80952
6.4756
5.54886
0.157331
0.105823
0.0855018
0.09723
8.7683
67.8976
86.0712
35.8282
6.44494
1.83789
0.638436
0.280271
0.113887
0.0381991
0.00881205
0.00572938
0.018285
0.0378721
0.058149
0.078895
0.109624
0.164919
0.246945
0.340991
0.397067
0.384263
0.321696
0.259782
0.209617
0.178682
0.169607
0.190629
0.266348
0.439412
0.760191
1.30295
2.17873
3.49611
5.63899
10.2821
6.71784
0.0850513
0.0682392
0.0730447
0.0277021
0.0142346
5.45224
49.0673
87.7158
51.5639
13.6846
3.43893
1.26754
0.553636
0.235834
0.0916653
0.0229104
0.00593059
0.0172435
0.0389807
0.0600263
0.0844732
0.124575
0.179334
0.228372
0.238754
0.211398
0.177255
0.146602
0.120486
0.0925983
0.0711869
0.0785958
0.15624
0.366272
0.781165
1.50166
2.68324
4.53304
7.20954
13.2882
8.78929
0.0440502
0.0366239
0.032654
0.0415987
0.00716593
0.00051067
2.35121
29.3706
76.8317
64.3751
25.9751
6.59479
2.3661
0.964189
0.432566
0.166663
0.0463155
0.00700826
0.0105632
0.024776
0.0379069
0.0566086
0.083346
0.105996
0.114065
0.116735
0.121988
0.124019
0.11175
0.0783667
0.0368745
0.0182145
0.0772465
0.296791
0.777103
1.64379
3.0919
5.38002
8.34802
14.7833
10.926
0.0227864
0.020648
0.0179201
0.0188816
0.0227581
0.00195552
1.05415e-07
0.568007
14.0503
54.7363
69.8241
41.0118
13.8127
4.15776
1.71357
0.743348
0.297771
0.0929024
0.0176644
0.00227096
0.00153975
0.00593071
0.0212906
0.0472693
0.0812332
0.12194
0.164489
0.1929
0.190986
0.148185
0.0762466
0.0114937
0.0206706
0.204758
0.693198
1.63352
3.2413
5.74432
8.76608
14.4716
12.057
0.0120723
0.011433
0.0110031
0.00992425
0.0108926
0.0137204
0.00023263
5.29161e-11
0.0438369
4.98766
30.5035
61.9191
53.224
25.8413
8.43309
3.01349
1.29237
0.543154
0.197025
0.0694042
0.0323701
0.0315553
0.0545913
0.101636
0.166999
0.241628
0.315811
0.370472
0.380709
0.326891
0.214542
0.0807116
0.00107454
0.0885322
0.496195
1.38893
2.97582
5.39562
8.20915
12.4981
11.3532
0.00655412
0.00632405
0.00626916
0.00612109
0.0055292
0.00655378
0.00717892
0.000474162
2.48564e-05
3.82509e-08
1.08336
12.4943
41.2243
56.2001
39.2439
17.2994
5.90604
2.30916
0.987352
0.43019
0.220868
0.181471
0.20868
0.27785
0.371622
0.478303
0.587608
0.676028
0.70769
0.650308
0.497493
0.280101
0.0764478
0.00571047
0.228128
0.919399
2.25806
4.29266
6.62269
9.39077
8.95833
0.00360338
0.00351795
0.00353379
0.00356876
0.00348803
0.00320035
0.00376516
0.00369869
0.000806193
1.76176e-06
0.000779414
0.120518
3.52596
19.8409
44.1968
47.2864
29.582
12.6275
4.51201
1.83203
0.862425
0.557468
0.508459
0.567941
0.680441
0.823317
0.979506
1.11717
1.18984
1.15205
0.982059
0.696608
0.364568
0.10626
0.0718433
0.429693
1.325
2.75454
4.38547
5.89236
5.72846
0.00200071
0.00196881
0.00198912
0.00203026
0.00206519
0.00201737
0.00191242
0.0020618
0.00230183
0.000886343
9.69981e-10
2.44875e-05
2.33636e-09
0.523365
6.30006
23.959
41.8713
39.2146
23.3203
9.90482
3.65833
1.70832
1.16062
1.05637
1.12073
1.27202
1.47023
1.67107
1.81864
1.84931
1.72146
1.43013
1.02754
0.62439
0.358408
0.366769
0.762025
1.5326
2.41559
3.01843
2.82405
0.00111683
0.00110572
0.00111639
0.00114777
0.00118076
0.00120428
0.00118951
0.00113681
0.0011636
0.00137079
0.000767263
4.26819e-06
4.02932e-08
0.000608013
0.021634
1.12871
8.28101
24.6237
37.3805
32.7806
19.0693
8.51266
3.8137
2.30115
1.90249
1.90545
2.0755
2.30798
2.52724
2.66152
2.65733
2.48908
2.17505
1.78905
1.44916
1.26726
1.31897
1.58989
1.89554
1.90732
1.42302
0.000624961
0.000622081
0.000626801
0.000645011
0.0006695
0.00069188
0.000707956
0.000708094
0.000681839
0.000682685
0.000754617
0.00063623
5.88941e-05
3.02858e-07
2.7242e-06
4.55132e-17
0.084345
1.57237
8.7904
22.7439
32.239
27.9039
17.5738
9.64772
5.50263
3.78733
3.19417
3.14767
3.35049
3.58478
3.73391
3.76407
3.68416
3.54017
3.40349
3.34776
3.40733
3.54106
3.60919
3.34247
2.42822
0.000349669
0.000349859
0.000351647
0.000361407
0.000376744
0.000393045
0.000407619
0.00041923
0.000423289
0.000414542
0.000407615
0.00043957
0.000427577
0.000205263
4.22282e-11
7.4096e-10
0.000153031
0.000252442
0.129682
1.66025
7.97964
18.9458
26.5418
25.1647
18.7955
13.0401
9.18922
6.8346
5.51257
4.92392
4.85446
5.05718
5.33264
5.59575
5.86307
6.17906
6.55886
6.93959
7.21249
7.15375
6.07845
0.000195104
0.000196212
0.000196813
0.000201943
0.000210909
0.000221371
0.00023185
0.000241516
0.000249643
0.000254454
0.000252921
0.000248237
0.000255386
0.000267737
0.000198457
9.28223e-06
9.21545e-08
4.96377e-08
0.000342031
7.69762e-06
0.119184
1.27315
5.27925
12.4232
19.3395
21.9958
20.4295
17.5327
14.7691
12.1475
9.87327
8.28317
7.51885
7.48563
7.97865
8.77883
9.70492
10.5789
11.3032
11.8106
11.116
0.000108325
0.000109455
0.000109632
0.000112321
0.000117417
0.000123701
0.000130402
0.000137189
0.000143644
0.0001492
0.00015331
0.000154365
0.000153282
0.000151271
0.00016388
0.000142232
8.64497e-05
1.48673e-08
3.77381e-09
6.4552e-10
0.000625223
0.000962262
0.0506882
0.48072
2.14827
5.7635
10.8633
15.6709
18.6248
19.6302
19.399
18.3007
16.5483
14.6499
13.1959
12.5078
12.5977
13.2439
14.1851
15.3185
15.419
6.00611e-05
6.09301e-05
6.09953e-05
6.24415e-05
6.53205e-05
6.89724e-05
7.30351e-05
7.73293e-05
8.17123e-05
8.59119e-05
8.96374e-05
9.26284e-05
9.45228e-05
9.44585e-05
9.45544e-05
9.53231e-05
9.86984e-05
7.43687e-05
2.21096e-05
1.37315e-10
6.43596e-10
1.94414e-07
0.000157532
0.00129348
0.00459245
0.0719215
0.43746
1.54372
3.82693
7.33527
11.5121
15.4765
18.5413
20.445
21.261
21.2226
20.7061
20.0507
19.5583
19.5504
19.1666
3.40036e-05
3.46213e-05
3.46879e-05
3.55411e-05
3.72405e-05
3.94227e-05
4.19083e-05
4.46194e-05
4.74686e-05
5.03517e-05
5.31137e-05
5.56188e-05
5.77551e-05
5.93888e-05
6.00887e-05
6.02638e-05
6.02048e-05
6.25087e-05
5.91235e-05
4.25481e-05
6.62837e-06
4.29537e-08
2.52861e-10
9.13772e-19
1.52444e-06
0.00028411
0.00130247
0.000317748
0.0212638
0.152358
0.608354
1.72104
3.78263
6.82987
10.5445
14.3573
17.7559
20.419
22.2867
23.6545
23.9668
1.99891e-05
2.04237e-05
2.04949e-05
2.10354e-05
2.20867e-05
2.34442e-05
2.50154e-05
2.6776e-05
2.86766e-05
3.06648e-05
3.26665e-05
3.45979e-05
3.63819e-05
3.79698e-05
3.92591e-05
4.02105e-05
4.05271e-05
4.10363e-05
4.14464e-05
4.24896e-05
3.7371e-05
2.43758e-05
5.80409e-06
3.0344e-14
3.63986e-10
1.07743e-11
0
5.8274e-09
3.38335e-05
0.000736647
0.00172547
7.75175e-06
0.0153148
0.110743
0.430008
1.17452
2.52771
4.56061
7.16736
10.1921
13.0657
1.21802e-05
1.24775e-05
1.25422e-05
1.28972e-05
1.35688e-05
1.44371e-05
1.54526e-05
1.6608e-05
1.78804e-05
1.92393e-05
2.06563e-05
2.20889e-05
2.34956e-05
2.48315e-05
2.60552e-05
2.71365e-05
2.80207e-05
2.86719e-05
2.91073e-05
2.97305e-05
3.0653e-05
3.07443e-05
2.77662e-05
1.85938e-05
8.89643e-06
3.70553e-07
5.81766e-09
1.50451e-10
1.35964e-11
0
0
6.64012e-11
3.37808e-05
0.000896615
0.00147408
0.000292803
0.00423556
0.0267112
0.115018
0.342691
0.787569
7.61817e-06
7.81947e-06
7.87467e-06
8.11313e-06
8.55276e-06
9.11989e-06
9.78986e-06
1.05583e-05
1.14178e-05
1.23469e-05
1.3336e-05
1.43649e-05
1.54145e-05
1.64588e-05
1.74767e-05
1.84409e-05
1.93415e-05
2.01506e-05
2.08666e-05
2.14539e-05
2.21065e-05
2.29374e-05
2.40776e-05
2.46129e-05
2.3839e-05
1.97785e-05
1.25072e-05
6.07164e-06
6.61213e-07
7.13481e-09
1.30255e-10
5.05152e-11
2.61435e-12
0
0
2.78408e-08
4.07205e-05
0.000830205
0.00181206
0.00188903
0.00136958
4.86377e-06
4.99984e-06
5.04489e-06
5.2084e-06
5.50054e-06
5.87772e-06
6.32555e-06
6.84318e-06
7.42754e-06
8.0669e-06
8.75467e-06
9.48481e-06
1.02456e-05
1.10257e-05
1.18133e-05
1.25949e-05
1.3361e-05
1.41019e-05
1.48185e-05
1.54979e-05
1.61468e-05
1.6806e-05
1.7559e-05
1.85595e-05
1.97031e-05
2.11403e-05
2.17194e-05
2.12186e-05
1.87556e-05
1.40931e-05
7.86857e-06
3.42254e-06
2.13444e-07
3.27775e-09
8.88583e-11
3.49999e-11
9.55824e-12
2.84503e-14
0
0
0
3.15518e-06
3.2471e-06
3.28282e-06
3.39605e-06
3.59234e-06
3.84604e-06
4.14822e-06
4.49985e-06
4.89874e-06
5.33987e-06
5.81745e-06
6.3312e-06
6.87435e-06
7.44219e-06
8.02714e-06
8.62451e-06
9.22692e-06
9.83133e-06
1.04348e-05
1.10376e-05
1.16381e-05
1.22422e-05
1.28487e-05
1.34994e-05
1.42221e-05
1.51313e-05
1.62775e-05
1.75414e-05
1.89004e-05
2.00313e-05
2.02282e-05
1.96252e-05
1.74866e-05
1.36658e-05
8.8471e-06
3.93449e-06
1.24267e-06
4.24885e-09
4.39656e-10
4.56885e-11
2.65906e-11
2.07299e-06
2.13486e-06
2.16271e-06
2.24154e-06
2.37467e-06
2.54659e-06
2.75208e-06
2.9921e-06
3.2654e-06
3.56997e-06
3.90169e-06
4.26068e-06
4.64456e-06
5.0502e-06
5.47398e-06
5.91332e-06
6.36448e-06
6.8256e-06
7.29531e-06
7.77289e-06
8.25794e-06
8.75027e-06
9.24849e-06
9.75453e-06
1.02769e-05
1.0825e-05
1.14309e-05
1.21161e-05
1.29198e-05
1.38651e-05
1.49352e-05
1.60192e-05
1.71693e-05
1.81227e-05
1.86134e-05
1.83057e-05
1.75307e-05
1.54328e-05
1.2311e-05
8.57785e-06
5.63384e-06
1.37572e-06
1.41733e-06
1.43878e-06
1.4938e-06
1.58465e-06
1.7017e-06
1.84216e-06
2.00648e-06
2.19423e-06
2.4043e-06
2.63437e-06
2.88413e-06
3.15335e-06
3.43951e-06
3.7412e-06
4.05656e-06
4.38386e-06
4.72143e-06
5.06894e-06
5.42499e-06
5.7892e-06
6.15907e-06
6.53265e-06
6.90867e-06
7.28983e-06
7.67887e-06
8.07636e-06
8.48579e-06
8.91075e-06
9.35905e-06
9.84497e-06
1.03747e-05
1.09587e-05
1.1605e-05
1.23078e-05
1.3049e-05
1.37405e-05
1.45178e-05
1.51687e-05
1.54258e-05
1.58291e-05
9.20335e-07
9.48248e-07
9.64547e-07
1.00304e-06
1.06528e-06
1.14527e-06
1.24156e-06
1.35424e-06
1.48334e-06
1.62801e-06
1.78726e-06
1.96036e-06
2.14763e-06
2.34742e-06
2.55905e-06
2.78114e-06
3.01295e-06
3.25295e-06
3.50097e-06
3.75577e-06
4.01647e-06
4.28056e-06
4.54586e-06
4.81003e-06
5.07358e-06
5.33801e-06
5.60302e-06
5.8686e-06
6.1334e-06
6.39672e-06
6.65774e-06
6.91848e-06
7.17727e-06
7.4371e-06
7.70257e-06
7.97936e-06
8.25496e-06
8.54706e-06
8.87665e-06
9.18095e-06
9.6876e-06
6.1953e-07
6.38332e-07
6.50553e-07
6.77517e-07
7.20242e-07
7.75097e-07
8.41195e-07
9.18591e-07
1.00729e-06
1.10679e-06
1.21659e-06
1.33611e-06
1.46538e-06
1.60371e-06
1.75026e-06
1.90437e-06
2.06528e-06
2.23209e-06
2.40419e-06
2.58089e-06
2.76073e-06
2.94198e-06
3.12285e-06
3.30075e-06
3.47546e-06
3.64781e-06
3.8173e-06
3.98316e-06
4.14503e-06
4.30241e-06
4.45445e-06
4.60055e-06
4.73948e-06
4.87122e-06
4.99649e-06
5.11454e-06
5.22165e-06
5.32054e-06
5.42138e-06
5.49796e-06
5.68589e-06
4.19126e-07
4.31748e-07
4.40839e-07
4.59789e-07
4.89188e-07
5.26903e-07
5.72324e-07
6.25517e-07
6.86416e-07
7.54764e-07
8.30218e-07
9.12377e-07
1.00115e-06
1.09624e-06
1.19681e-06
1.30246e-06
1.41261e-06
1.52656e-06
1.64366e-06
1.76339e-06
1.88444e-06
2.0053e-06
2.12517e-06
2.24148e-06
2.35399e-06
2.46271e-06
2.56775e-06
2.66824e-06
2.76408e-06
2.85464e-06
2.93985e-06
3.01923e-06
3.09229e-06
3.1591e-06
3.22033e-06
3.27521e-06
3.32145e-06
3.36104e-06
3.3978e-06
3.41957e-06
3.49948e-06
2.84611e-07
2.93118e-07
2.99856e-07
3.13181e-07
3.33464e-07
3.59433e-07
3.90669e-07
4.27219e-07
4.68985e-07
5.15829e-07
5.67487e-07
6.23715e-07
6.84358e-07
7.49194e-07
8.17608e-07
8.89254e-07
9.63663e-07
1.0403e-06
1.11867e-06
1.19829e-06
1.27804e-06
1.35686e-06
1.43436e-06
1.50846e-06
1.57903e-06
1.64603e-06
1.70926e-06
1.76823e-06
1.82283e-06
1.87283e-06
1.91815e-06
1.95863e-06
1.99398e-06
2.02445e-06
2.05046e-06
2.07184e-06
2.08738e-06
2.09877e-06
2.10674e-06
2.10913e-06
2.13515e-06
1.9382e-07
1.99539e-07
2.04551e-07
2.13939e-07
2.27963e-07
2.45865e-07
2.67377e-07
2.92474e-07
3.21099e-07
3.5312e-07
3.88377e-07
4.2667e-07
4.67874e-07
5.1173e-07
5.57881e-07
6.05943e-07
6.5563e-07
7.06459e-07
7.58024e-07
8.10001e-07
8.61458e-07
9.1168e-07
9.60603e-07
1.00668e-06
1.04961e-06
1.08955e-06
1.12643e-06
1.15994e-06
1.18987e-06
1.21625e-06
1.23902e-06
1.25823e-06
1.27373e-06
1.28578e-06
1.29464e-06
1.30024e-06
1.30206e-06
1.30134e-06
1.29732e-06
1.29299e-06
1.29146e-06
1.32234e-07
1.3612e-07
1.39838e-07
1.4647e-07
1.56203e-07
1.68572e-07
1.83401e-07
2.00639e-07
2.20238e-07
2.42095e-07
2.66084e-07
2.92066e-07
3.19909e-07
3.49418e-07
3.80315e-07
4.12306e-07
4.45131e-07
4.78463e-07
5.11931e-07
5.45377e-07
5.77963e-07
6.09325e-07
6.39492e-07
6.6745e-07
6.92921e-07
7.1607e-07
7.36796e-07
7.55054e-07
7.70704e-07
7.83775e-07
7.9426e-07
8.02234e-07
8.07651e-07
8.10677e-07
8.11506e-07
8.10122e-07
8.06349e-07
8.01077e-07
7.92933e-07
7.87171e-07
7.73177e-07
9.03168e-08
9.29733e-08
9.57549e-08
1.00465e-07
1.07239e-07
1.15808e-07
1.26038e-07
1.37881e-07
1.51286e-07
1.66177e-07
1.82449e-07
2.00007e-07
2.18721e-07
2.38457e-07
2.58995e-07
2.80107e-07
3.01574e-07
3.23202e-07
3.44672e-07
3.65893e-07
3.86221e-07
4.05451e-07
4.23709e-07
4.40283e-07
4.54999e-07
4.67981e-07
4.7919e-07
4.88577e-07
4.96113e-07
5.01833e-07
5.05768e-07
5.07962e-07
5.08459e-07
5.07365e-07
5.04815e-07
5.00804e-07
4.95327e-07
4.89041e-07
4.80414e-07
4.75257e-07
4.57109e-07
6.17125e-08
6.35598e-08
6.56418e-08
6.90104e-08
7.37462e-08
7.96961e-08
8.67629e-08
9.49056e-08
1.04068e-07
1.14201e-07
1.25208e-07
1.37024e-07
1.49537e-07
1.62658e-07
1.76202e-07
1.90013e-07
2.0392e-07
2.17775e-07
2.31365e-07
2.44631e-07
2.57096e-07
2.68624e-07
2.79425e-07
2.88968e-07
2.97164e-07
3.04096e-07
3.09785e-07
3.14189e-07
3.17305e-07
3.19167e-07
3.19831e-07
3.19335e-07
3.17742e-07
3.15129e-07
3.11588e-07
3.07128e-07
3.01792e-07
2.96071e-07
2.88529e-07
2.8466e-07
2.66733e-07
4.21569e-08
4.34597e-08
4.50371e-08
4.74582e-08
5.07872e-08
5.49341e-08
5.98323e-08
6.54357e-08
7.17068e-08
7.85908e-08
8.603e-08
9.39519e-08
1.02294e-07
1.1096e-07
1.19838e-07
1.28792e-07
1.37722e-07
1.46501e-07
1.55007e-07
1.63175e-07
1.70697e-07
1.77452e-07
1.83678e-07
1.89004e-07
1.93389e-07
1.96871e-07
1.99491e-07
2.01235e-07
2.02115e-07
2.02156e-07
2.01406e-07
1.99901e-07
1.97692e-07
1.94843e-07
1.91406e-07
1.87404e-07
1.82886e-07
1.78226e-07
1.72185e-07
1.69534e-07
1.53805e-07
2.87749e-08
2.97153e-08
3.09137e-08
3.26712e-08
3.50272e-08
3.7934e-08
4.13409e-08
4.52088e-08
4.95044e-08
5.41843e-08
5.92032e-08
6.45043e-08
7.00394e-08
7.57371e-08
8.15144e-08
8.72732e-08
9.29439e-08
9.84362e-08
1.03666e-07
1.08596e-07
1.13009e-07
1.16835e-07
1.20269e-07
1.23071e-07
1.25214e-07
1.26745e-07
1.27687e-07
1.28043e-07
1.27828e-07
1.27066e-07
1.25789e-07
1.24034e-07
1.21843e-07
1.19261e-07
1.16322e-07
1.13045e-07
1.09478e-07
1.05896e-07
1.01311e-07
9.95824e-08
8.68312e-08
1.96139e-08
2.03077e-08
2.12281e-08
2.25136e-08
2.41965e-08
2.62475e-08
2.86293e-08
3.13094e-08
3.4259e-08
3.74445e-08
4.08289e-08
4.43712e-08
4.80324e-08
5.17632e-08
5.55022e-08
5.91828e-08
6.27549e-08
6.61619e-08
6.93473e-08
7.22936e-08
7.48426e-08
7.69557e-08
7.87908e-08
8.01953e-08
8.11463e-08
8.16802e-08
8.18187e-08
8.15689e-08
8.09432e-08
7.99635e-08
7.86565e-08
7.70478e-08
7.51725e-08
7.30619e-08
7.07387e-08
6.82186e-08
6.55396e-08
6.28985e-08
5.95417e-08
5.84758e-08
4.86107e-08
1.33457e-08
1.38701e-08
1.45804e-08
1.55318e-08
1.6745e-08
1.82032e-08
1.98799e-08
2.17459e-08
2.37802e-08
2.59528e-08
2.82378e-08
3.0601e-08
3.30153e-08
3.54432e-08
3.78428e-08
4.01636e-08
4.23746e-08
4.44378e-08
4.63147e-08
4.79976e-08
4.93808e-08
5.04419e-08
5.13017e-08
5.18699e-08
5.21363e-08
5.21254e-08
5.18548e-08
5.13375e-08
5.05842e-08
4.96125e-08
4.84409e-08
4.70897e-08
4.55838e-08
4.39455e-08
4.21889e-08
4.0327e-08
3.8386e-08
3.65053e-08
3.41385e-08
3.34946e-08
2.62905e-08
9.06073e-09
9.46564e-09
1.00185e-08
1.07298e-08
1.16138e-08
1.26614e-08
1.38493e-08
1.51578e-08
1.65663e-08
1.80551e-08
1.95996e-08
2.11789e-08
2.27682e-08
2.43483e-08
2.58855e-08
2.73507e-08
2.87199e-08
2.9975e-08
3.10875e-08
3.2058e-08
3.28108e-08
3.33349e-08
3.37207e-08
3.39099e-08
3.38961e-08
3.36989e-08
3.33308e-08
3.2802e-08
3.21216e-08
3.13031e-08
3.03603e-08
2.93071e-08
2.81633e-08
2.69439e-08
2.56609e-08
2.4323e-08
2.29496e-08
2.16359e-08
1.99961e-08
1.96361e-08
1.44459e-08
6.13734e-09
6.45564e-09
6.88795e-09
7.4263e-09
8.0787e-09
8.83856e-09
9.68826e-09
1.06116e-08
1.15926e-08
1.26161e-08
1.3663e-08
1.47173e-08
1.57593e-08
1.67747e-08
1.77387e-08
1.86308e-08
1.94384e-08
2.01504e-08
2.07491e-08
2.12358e-08
2.15646e-08
2.17312e-08
2.18033e-08
2.1747e-08
2.15615e-08
2.1261e-08
2.08566e-08
2.03561e-08
1.97674e-08
1.90994e-08
1.83622e-08
1.75651e-08
1.67219e-08
1.58423e-08
1.4934e-08
1.40024e-08
1.3062e-08
1.21712e-08
1.10804e-08
1.08558e-08
7.39702e-09
4.14643e-09
4.40026e-09
4.74075e-09
5.15223e-09
5.63924e-09
6.19669e-09
6.81039e-09
7.46708e-09
8.15483e-09
8.86146e-09
9.57426e-09
1.02816e-08
1.0972e-08
1.16371e-08
1.22621e-08
1.28311e-08
1.33378e-08
1.37753e-08
1.41344e-08
1.44143e-08
1.4586e-08
1.46425e-08
1.46336e-08
1.45365e-08
1.43521e-08
1.40904e-08
1.37601e-08
1.33672e-08
1.2918e-08
1.24197e-08
1.18795e-08
1.13043e-08
1.07038e-08
1.00849e-08
9.45378e-09
8.81455e-09
8.17647e-09
7.57653e-09
6.8502e-09
6.73417e-09
4.32669e-09
2.79336e-09
2.99871e-09
3.2689e-09
3.58686e-09
3.95357e-09
4.36526e-09
4.81128e-09
5.28197e-09
5.76753e-09
6.25866e-09
6.74506e-09
7.21692e-09
7.66413e-09
8.07744e-09
8.44617e-09
8.76197e-09
9.02281e-09
9.22628e-09
9.36913e-09
9.45202e-09
9.45979e-09
9.3938e-09
9.28806e-09
9.12997e-09
8.92157e-09
8.67003e-09
8.38208e-09
8.0619e-09
7.71401e-09
7.34249e-09
6.95255e-09
6.54792e-09
6.1348e-09
5.71698e-09
5.29841e-09
4.88057e-09
4.47196e-09
4.08803e-09
3.64604e-09
3.54533e-09
2.13938e-09
1.87914e-09
2.04737e-09
2.26426e-09
2.51276e-09
2.79102e-09
3.09536e-09
3.41938e-09
3.75616e-09
4.09998e-09
4.44383e-09
4.781e-09
5.10525e-09
5.41309e-09
5.70248e-09
5.96836e-09
6.20027e-09
6.39396e-09
6.54713e-09
6.65796e-09
6.72687e-09
6.74352e-09
6.70329e-09
6.63343e-09
6.5255e-09
6.38115e-09
6.20509e-09
6.00245e-09
5.7768e-09
5.5321e-09
5.27167e-09
4.99961e-09
4.71918e-09
4.43474e-09
4.14898e-09
3.86535e-09
3.58495e-09
3.31336e-09
3.05824e-09
2.76918e-09
2.71951e-09
1.69242e-09
1.27009e-09
1.40818e-09
1.58155e-09
1.77616e-09
1.98838e-09
2.21481e-09
2.45031e-09
2.69029e-09
2.93167e-09
3.17043e-09
3.40108e-09
3.61556e-09
3.80492e-09
3.96083e-09
4.07981e-09
4.16476e-09
4.22087e-09
4.24946e-09
4.25048e-09
4.22415e-09
4.16727e-09
4.08252e-09
3.9836e-09
3.86667e-09
3.73336e-09
3.58692e-09
3.43021e-09
3.26523e-09
3.09417e-09
2.91898e-09
2.74165e-09
2.56383e-09
2.38793e-09
2.21542e-09
2.04795e-09
1.88513e-09
1.7333e-09
1.58784e-09
1.44738e-09
1.37167e-09
9.34501e-10
8.65606e-10
9.78062e-10
1.11341e-09
1.26103e-09
1.41882e-09
1.58573e-09
1.75857e-09
1.93337e-09
2.10602e-09
2.27367e-09
2.43554e-09
2.59355e-09
2.75042e-09
2.9078e-09
3.05997e-09
3.19156e-09
3.29287e-09
3.36575e-09
3.41187e-09
3.43357e-09
3.42743e-09
3.39159e-09
3.34039e-09
3.27126e-09
3.18602e-09
3.08787e-09
2.97975e-09
2.86395e-09
2.74259e-09
2.61782e-09
2.49173e-09
2.36615e-09
2.24272e-09
2.12272e-09
2.00808e-09
1.89876e-09
1.79826e-09
1.70296e-09
1.61174e-09
1.5871e-09
1.17916e-09
5.86757e-10
6.80568e-10
7.86755e-10
8.95773e-10
1.00653e-09
1.1212e-09
1.24111e-09
1.36592e-09
1.49333e-09
1.61739e-09
1.72912e-09
1.81835e-09
1.87781e-09
1.90553e-09
1.90855e-09
1.90392e-09
1.90025e-09
1.89247e-09
1.87713e-09
1.85242e-09
1.81778e-09
1.77493e-09
1.72772e-09
1.67517e-09
1.61804e-09
1.55786e-09
1.49581e-09
1.43288e-09
1.36991e-09
1.30771e-09
1.24697e-09
1.18835e-09
1.13271e-09
1.08043e-09
1.03229e-09
9.87138e-10
9.50335e-10
9.09665e-10
8.9537e-10
8.26584e-10
7.92751e-10
3.95139e-10
4.816e-10
5.75632e-10
6.65076e-10
7.46394e-10
8.21378e-10
8.92858e-10
9.64328e-10
1.03994e-09
1.12442e-09
1.22211e-09
1.33657e-09
1.46794e-09
1.61307e-09
1.75935e-09
1.87759e-09
1.95533e-09
2.00704e-09
2.03854e-09
2.05272e-09
2.04868e-09
2.02745e-09
1.99636e-09
1.95527e-09
1.90644e-09
1.85219e-09
1.79449e-09
1.73488e-09
1.67501e-09
1.61629e-09
1.56013e-09
1.5077e-09
1.46002e-09
1.41795e-09
1.38308e-09
1.35565e-09
1.33821e-09
1.32522e-09
1.33256e-09
1.33925e-09
1.25332e-09
2.87804e-10
3.61026e-10
4.38759e-10
5.15378e-10
5.87999e-10
6.55091e-10
7.13509e-10
7.60041e-10
7.92458e-10
8.10491e-10
8.15425e-10
8.09703e-10
7.96711e-10
7.78122e-10
7.5778e-10
7.51166e-10
7.59432e-10
7.71148e-10
7.82428e-10
7.90596e-10
7.94914e-10
7.95603e-10
7.9411e-10
7.9045e-10
7.84853e-10
7.77945e-10
7.70479e-10
7.62842e-10
7.55416e-10
7.4843e-10
7.42261e-10
7.36965e-10
7.3277e-10
7.2941e-10
7.27319e-10
7.25278e-10
7.26732e-10
7.21046e-10
7.36288e-10
6.82405e-10
7.50734e-10
3.78777e-10
5.11229e-10
6.00544e-10
6.31503e-10
6.18051e-10
5.88421e-10
5.70252e-10
5.81861e-10
6.30296e-10
7.12311e-10
8.17977e-10
9.34162e-10
1.04804e-09
1.15127e-09
1.23587e-09
1.27854e-09
1.27872e-09
1.25653e-09
1.22344e-09
1.18462e-09
1.13954e-09
1.09672e-09
1.05191e-09
1.00786e-09
9.66363e-10
9.28129e-10
8.93598e-10
8.63333e-10
8.37817e-10
8.17407e-10
8.02421e-10
7.93296e-10
7.90324e-10
7.93836e-10
8.04728e-10
8.23017e-10
8.52161e-10
8.82763e-10
9.50037e-10
9.33758e-10
1.13164e-09
627.211
371.598
198.699
123.885
86.9122
62.4889
43.4837
27.4271
14.0149
4.64873
0.472525
0.331785
0.628978
0.0828807
0.00247553
2.81535e-10
2.28462e-05
0.000119991
9.58659e-05
6.60419e-05
5.31593e-05
4.17619e-05
3.47158e-05
2.92231e-05
2.482e-05
2.1147e-05
1.77358e-05
1.4833e-05
1.22079e-05
1.01016e-05
8.16034e-06
6.69916e-06
5.45034e-06
4.45743e-06
3.69715e-06
3.08924e-06
2.61059e-06
2.2342e-06
1.9415e-06
1.69725e-06
1.49191e-06
1.32021e-06
1.16851e-06
1.02964e-06
9.03682e-07
7.89967e-07
6.84403e-07
5.88714e-07
5.02372e-07
4.24269e-07
3.54814e-07
2.93152e-07
2.39614e-07
1.93333e-07
1.53262e-07
1.19397e-07
9.18032e-08
6.87755e-08
5.07917e-08
3.6512e-08
2.58982e-08
1.76801e-08
1.22197e-08
8.33122e-09
5.63428e-09
4.05491e-09
2.9911e-09
2.38607e-09
2.16407e-09
1.78864e-09
2.01982e-09
1.43826e-09
2.09221e-09
1.31853e-09
353.286
454.601
287.878
178.357
120.912
87.8824
65.7872
47.4195
30.1007
14.8439
4.36633
0.246266
0.355734
0.36533
0.0187754
4.40399e-05
7.59804e-08
7.72873e-05
0.000111808
7.35137e-05
5.62062e-05
4.3483e-05
3.54821e-05
2.93219e-05
2.45615e-05
2.0774e-05
1.73695e-05
1.45e-05
1.19003e-05
9.86394e-06
7.95993e-06
6.50387e-06
5.2885e-06
4.28389e-06
3.53749e-06
2.93837e-06
2.45976e-06
2.08786e-06
1.80065e-06
1.56094e-06
1.35865e-06
1.19453e-06
1.0511e-06
9.19853e-07
8.03021e-07
6.99925e-07
6.03556e-07
5.17231e-07
4.40964e-07
3.71318e-07
3.09683e-07
2.55527e-07
2.08401e-07
1.68042e-07
1.32665e-07
1.03258e-07
7.95256e-08
5.95294e-08
4.41356e-08
3.18233e-08
2.27421e-08
1.5664e-08
1.10547e-08
7.69766e-09
5.3286e-09
3.93451e-09
2.99201e-09
2.40841e-09
2.17902e-09
1.7797e-09
1.99607e-09
1.37919e-09
2.03298e-09
1.22407e-09
154.244
360.442
315.739
219.064
153.842
115.541
91.3918
72.0411
52.695
32.8267
15.284
3.95176
0.114355
0.316389
0.176415
0.00240111
1.13557e-06
1.31255e-13
7.20693e-05
8.90115e-05
6.2669e-05
4.70676e-05
3.74398e-05
3.01773e-05
2.46964e-05
2.04521e-05
1.70256e-05
1.41024e-05
1.14941e-05
9.44852e-06
7.64406e-06
6.18263e-06
5.02167e-06
4.02834e-06
3.29851e-06
2.718e-06
2.25005e-06
1.8909e-06
1.61513e-06
1.38653e-06
1.19466e-06
1.04287e-06
9.11813e-07
7.93049e-07
6.8897e-07
5.98715e-07
5.14552e-07
4.39792e-07
3.74696e-07
3.1499e-07
2.62344e-07
2.1642e-07
1.7641e-07
1.42336e-07
1.12182e-07
8.7608e-08
6.76898e-08
5.09312e-08
3.80345e-08
2.7756e-08
2.008e-08
1.42131e-08
1.03079e-08
7.4088e-09
5.3445e-09
4.08553e-09
3.18643e-09
2.59359e-09
2.32392e-09
1.89926e-09
2.03066e-09
1.39097e-09
2.01161e-09
1.172e-09
71.3126
237.73
285.653
238.043
182.561
143.195
117.089
96.9782
77.3376
55.7205
33.3887
14.5051
3.27534
0.0432435
0.245301
0.0861924
0.000412587
1.44262e-10
2.89476e-09
6.14277e-05
7.02389e-05
5.11089e-05
3.9509e-05
3.12004e-05
2.49786e-05
2.02818e-05
1.66972e-05
1.36982e-05
1.10979e-05
9.03994e-06
7.30053e-06
5.85262e-06
4.72966e-06
3.76296e-06
3.05132e-06
2.48969e-06
2.03733e-06
1.69331e-06
1.43051e-06
1.21514e-06
1.03626e-06
8.97713e-07
7.79577e-07
6.7413e-07
5.83212e-07
5.05081e-07
4.33124e-07
3.69635e-07
3.14653e-07
2.64318e-07
2.20105e-07
1.8165e-07
1.48162e-07
1.19703e-07
9.4445e-08
7.41634e-08
5.75266e-08
4.36572e-08
3.29008e-08
2.43989e-08
1.79281e-08
1.30912e-08
9.75228e-09
7.21734e-09
5.4198e-09
4.25161e-09
3.39071e-09
2.77917e-09
2.46937e-09
2.01519e-09
2.07768e-09
1.4123e-09
1.99682e-09
1.13028e-09
36.8655
142.052
223.134
227.688
196.879
164.107
138.602
118.751
100.414
80.027
56.6502
32.7909
13.449
2.73542
0.0210842
0.176045
0.0466623
0.0049988
2.45438e-11
4.32305e-07
5.76836e-05
5.75258e-05
4.16184e-05
3.20453e-05
2.52608e-05
2.01992e-05
1.63851e-05
1.32981e-05
1.07157e-05
8.66327e-06
6.95922e-06
5.53724e-06
4.44037e-06
3.50493e-06
2.81331e-06
2.26905e-06
1.83438e-06
1.5068e-06
1.25722e-06
1.0555e-06
8.90893e-07
7.65395e-07
6.59935e-07
5.67377e-07
4.88973e-07
4.22191e-07
3.6141e-07
3.0817e-07
2.62264e-07
2.20347e-07
1.83646e-07
1.51764e-07
1.24002e-07
1.00444e-07
7.95228e-08
6.28375e-08
4.90367e-08
3.76056e-08
2.86738e-08
2.16398e-08
1.61992e-08
1.21776e-08
9.30006e-09
7.05641e-09
5.48232e-09
4.36994e-09
3.56603e-09
2.93074e-09
2.58779e-09
2.10028e-09
2.12597e-09
1.43298e-09
1.98419e-09
1.09667e-09
21.0016
79.6824
156.326
194.022
191.687
172.416
151.564
133.789
118.07
101.211
80.6627
56.4014
31.8517
12.5525
2.39153
0.0217283
0.127171
0.0271875
0.00320304
1.58414e-09
1.51455e-06
5.18912e-05
4.81031e-05
3.38497e-05
2.5701e-05
2.02486e-05
1.61845e-05
1.29806e-05
1.03806e-05
8.33463e-06
6.64995e-06
5.25224e-06
4.17433e-06
3.26648e-06
2.59315e-06
2.0647e-06
1.64725e-06
1.33578e-06
1.09927e-06
9.10961e-07
7.6063e-07
6.47583e-07
5.54083e-07
4.73581e-07
4.06548e-07
3.50184e-07
2.99346e-07
2.55124e-07
2.17282e-07
1.82768e-07
1.5261e-07
1.26456e-07
1.03651e-07
8.43351e-08
6.71383e-08
5.34769e-08
4.21183e-08
3.27196e-08
2.53303e-08
1.94893e-08
1.4913e-08
1.15127e-08
9.00713e-09
6.9996e-09
5.58423e-09
4.51496e-09
3.74261e-09
3.08363e-09
2.7063e-09
2.18688e-09
2.18037e-09
1.46756e-09
1.98129e-09
1.07887e-09
13.5103
43.0251
101.284
149.649
168.636
165.114
152.527
139.096
127.141
115.094
100.097
80.0808
55.7003
31.0237
11.9698
2.21529
0.0364086
0.0969448
0.0173802
0.00234847
4.47027e-09
1.2422e-06
4.1623e-05
3.95793e-05
2.73018e-05
2.05277e-05
1.61414e-05
1.27853e-05
1.0124e-05
8.06251e-06
6.38657e-06
5.00445e-06
3.94074e-06
3.05479e-06
2.39548e-06
1.88091e-06
1.47968e-06
1.18256e-06
9.58295e-07
7.82905e-07
6.46089e-07
5.4457e-07
4.62042e-07
3.92549e-07
3.35638e-07
2.88494e-07
2.464e-07
2.10006e-07
1.79139e-07
1.51019e-07
1.26478e-07
1.05244e-07
8.66838e-08
7.09926e-08
5.69563e-08
4.58569e-08
3.6565e-08
2.88594e-08
2.27566e-08
1.78904e-08
1.40224e-08
1.11008e-08
8.892e-09
7.07267e-09
5.75932e-09
4.72376e-09
3.94689e-09
3.26159e-09
2.84408e-09
2.29516e-09
2.24606e-09
1.52137e-09
1.99017e-09
1.07416e-09
9.51454
22.881
62.0843
106.181
134.732
143.753
140.616
133.262
125.948
119.053
110.587
97.7412
78.8325
54.9249
30.5317
11.7292
2.19166
0.0641966
0.0774047
0.0128936
0.00201046
3.00603e-09
2.85693e-07
2.95458e-05
3.20948e-05
2.2028e-05
1.63153e-05
1.27004e-05
9.9614e-06
7.85488e-06
6.1735e-06
4.79705e-06
3.74063e-06
2.87132e-06
2.22202e-06
1.71938e-06
1.33279e-06
1.04804e-06
8.3494e-07
6.71592e-07
5.47016e-07
4.55906e-07
3.83248e-07
3.2354e-07
2.75514e-07
2.36311e-07
2.01782e-07
1.72127e-07
1.47163e-07
1.24467e-07
1.04698e-07
8.76229e-08
7.26564e-08
6.0012e-08
4.86418e-08
3.96983e-08
3.21288e-08
2.58329e-08
2.0788e-08
1.67293e-08
1.34327e-08
1.08963e-08
8.92469e-09
7.24837e-09
6.00403e-09
4.9871e-09
4.18647e-09
3.47028e-09
3.00742e-09
2.42927e-09
2.32879e-09
1.59415e-09
2.01262e-09
1.07821e-09
6.5313
12.0407
36.3146
69.9478
98.438
113.814
118.334
117.245
114.8
112.666
110.153
104.955
94.4441
77.1283
54.2785
30.4493
11.8568
2.3141
0.109377
0.0654449
0.0110265
0.00204052
4.50696e-10
2.17298e-09
1.75062e-05
2.51003e-05
1.77064e-05
1.28378e-05
9.88019e-06
7.72081e-06
6.01682e-06
4.63646e-06
3.57814e-06
2.71818e-06
2.07413e-06
1.58055e-06
1.20625e-06
9.31752e-07
7.28584e-07
5.76308e-07
4.62649e-07
3.80655e-07
3.16748e-07
2.65595e-07
2.25202e-07
1.92732e-07
1.64613e-07
1.40664e-07
1.20641e-07
1.02483e-07
8.67205e-08
7.31229e-08
6.11554e-08
5.10419e-08
4.19056e-08
3.47498e-08
2.86046e-08
2.34764e-08
1.92951e-08
1.59067e-08
1.30685e-08
1.08518e-08
9.07056e-09
7.49954e-09
6.30513e-09
5.29087e-09
4.46176e-09
3.71138e-09
3.19931e-09
2.58991e-09
2.43362e-09
1.68835e-09
2.05306e-09
1.0915e-09
3.84052
6.02443
19.9893
42.4504
65.583
81.9696
90.674
94.307
95.9994
97.6559
99.5836
100.537
98.2495
90.226
75.0667
53.8023
30.8324
12.3629
2.62154
0.185458
0.0580686
0.0108997
0.00234451
2.6513e-10
5.04108e-08
6.01566e-06
1.84527e-05
1.40272e-05
1.00003e-05
7.63035e-06
5.91159e-06
4.52604e-06
3.4584e-06
2.60054e-06
1.95663e-06
1.46768e-06