/*--------------------------------*- C++ -*----------------------------------*\
| =========                 |                                                 |
| \\      /  F ield         | OpenFOAM: The Open Source CFD Toolbox           |
|  \\    /   O peration     | Version:  2312                                  |
|   \\  /    A nd           | Website:  www.openfoam.com                      |
|    \\/     M anipulation  |                                                 |
\*---------------------------------------------------------------------------*/
FoamFile
{
    version     2.0;
    format      ascii;
    arch        "LSB;label=32;scalar=64";
    class       volScalarField;
    location    "400";
    object      turbulenceProperties:nuEff;
}
// * * * * * * * * * * * * * * * * * * * * * * * * * * * * * * * * * * * * * //

dimensions      [0 2 -1 0 0 0 0];

internalField   nonuniform List<scalar> 
11040
(
4.06278e-05
5.96174e-05
2.85887e-05
3.82834e-05
0.000168884
0.000177986
0.000169513
0.000161185
0.000148611
0.000141916
0.000133433
0.000125943
0.000118713
0.000111138
0.000101888
9.10443e-05
7.61631e-05
5.3893e-05
2.55065e-05
2.37267e-05
2.54072e-05
2.8221e-05
3.25952e-05
3.97709e-05
4.91375e-05
7.15861e-05
0.00011291
0.000143136
0.000168541
0.000190944
0.000212829
0.000229339
0.000243361
0.000263048
0.000267744
0.000205191
0.000217578
0.000237429
0.000268804
0.000307396
0.000373857
1.38339e-05
4.01389e-05
6.3007e-05
0.000115327
0.000528798
0.000616427
0.000541843
0.000511049
0.000443228
0.000415173
0.000380167
0.000354428
0.000333443
0.000317888
0.000301267
0.000287376
0.000273007
0.000261603
0.000255067
0.000256977
0.00026905
0.000288058
0.000313474
0.000349554
0.000384143
0.000408661
0.000424839
0.000443511
0.000466592
0.000502301
0.000571797
0.000645382
0.000724804
0.000810487
0.000900876
0.000989595
0.00109038
0.00120828
0.00135003
0.0015055
0.00205562
1.5847e-05
1.78703e-05
3.71859e-05
5.59453e-05
0.000343113
0.000846883
0.0011322
0.00113297
0.000989926
0.000933059
0.000853832
0.000795315
0.000745581
0.000711197
0.000673601
0.000641736
0.000607053
0.000576188
0.000552924
0.000552133
0.000577818
0.000622744
0.000671634
0.000716458
0.000744092
0.000762768
0.000791076
0.000857214
0.000997937
0.00115531
0.00132061
0.00149033
0.0016653
0.00184712
0.00203936
0.00224271
0.00246597
0.00272595
0.00305048
0.00344235
0.00456963
1.64516e-05
1.50979e-05
1.96936e-05
1.9666e-05
0.000109881
0.000491224
0.00114145
0.00161664
0.00172307
0.00167596
0.00154191
0.00144132
0.00134813
0.00128284
0.00121003
0.00114891
0.00108098
0.00101772
0.000960387
0.000941314
0.000977938
0.00105882
0.00111819
0.00114962
0.00116871
0.00120996
0.00131826
0.00155167
0.00181998
0.0021028
0.00239524
0.00269308
0.00299789
0.00331225
0.00364189
0.00399294
0.00437651
0.00482236
0.00538517
0.00610161
0.00780395
1.6131e-05
1.58787e-05
1.6192e-05
1.58654e-05
1.33755e-05
0.000136007
0.000581941
0.00136356
0.00209323
0.00236259
0.00242112
0.00234589
0.00219216
0.00209204
0.00197366
0.00187059
0.00174842
0.0016343
0.00151458
0.0014449
0.00145992
0.00155037
0.00160193
0.00163091
0.00168231
0.00182383
0.00214648
0.00253865
0.00296708
0.0034165
0.00387713
0.00434204
0.00481218
0.00529202
0.00578924
0.00631615
0.00689036
0.00755899
0.00840411
0.00952318
0.0117866
1.60802e-05
1.61832e-05
1.58608e-05
1.6656e-05
1.24455e-05
1.04772e-05
0.000126682
0.000599272
0.00148736
0.00248745
0.00305096
0.00327169
0.00331105
0.00322817
0.00302648
0.00287993
0.00269026
0.00250278
0.00228391
0.0021163
0.00202457
0.00207848
0.00213511
0.00221026
0.00238967
0.00278132
0.0032994
0.00388829
0.00452659
0.00519295
0.00586965
0.00654453
0.00721613
0.00789187
0.00858045
0.0093028
0.0100861
0.0109998
0.0121553
0.0137273
0.0165564
1.61123e-05
1.61308e-05
1.60452e-05
1.62428e-05
1.63581e-05
1.09694e-05
1.0001e-05
7.74079e-05
0.000538046
0.00147044
0.00271215
0.00371468
0.0041794
0.00440407
0.00444105
0.00431586
0.00400817
0.00373763
0.0033812
0.00308137
0.00282233
0.0027454
0.00281992
0.00306171
0.0034865
0.00410102
0.0048592
0.00570544
0.00661025
0.00754941
0.00849862
0.00943605
0.0103516
0.011249
0.0121414
0.0130617
0.0140493
0.0152024
0.0166665
0.0186934
0.0221143
1.61178e-05
1.61137e-05
1.6132e-05
1.60454e-05
1.64321e-05
1.66389e-05
1.01846e-05
1e-05
2.50564e-05
0.000413029
0.00130312
0.00270108
0.00416706
0.00510305
0.0055727
0.00578985
0.00577964
0.0055195
0.00498217
0.00452843
0.00405273
0.00385958
0.00393516
0.00432514
0.0049847
0.00586243
0.00690963
0.00807575
0.00931327
0.0105937
0.0118821
0.0131423
0.0143519
0.0155127
0.0166334
0.0177312
0.0188801
0.02022
0.0219374
0.0243589
0.0283192
1.6117e-05
1.61204e-05
1.61127e-05
1.61378e-05
1.59877e-05
1.69275e-05
1.61362e-05
1.04788e-05
1.00876e-05
1.00002e-05
0.000242326
0.00100324
0.00241357
0.00424127
0.00584131
0.0067488
0.00722294
0.00736356
0.00717996
0.00667654
0.00594018
0.00557854
0.00557504
0.00606683
0.0069537
0.00813931
0.0095452
0.011105
0.0127603
0.0144651
0.0161732
0.017828
0.0193847
0.0208437
0.022214
0.0234911
0.0247237
0.0261275
0.0279567
0.0305845
0.0348537
1.61172e-05
1.61193e-05
1.61191e-05
1.61209e-05
1.61147e-05
1.602e-05
1.70873e-05
1.57207e-05
1.1152e-05
1.00069e-05
2.04212e-05
0.000102046
0.000660663
0.00191246
0.00386895
0.00607588
0.00775653
0.00863803
0.00902322
0.00897251
0.0085892
0.00811287
0.00790306
0.00839527
0.00951692
0.0110905
0.0129684
0.015043
0.0172272
0.0194557
0.0216766
0.0238091
0.0257675
0.0275434
0.0291712
0.0306202
0.0318775
0.0331608
0.0348505
0.0373287
0.041368
1.61162e-05
1.61194e-05
1.61213e-05
1.61185e-05
1.61338e-05
1.60828e-05
1.61367e-05
1.68192e-05
1.65239e-05
1.20453e-05
1e-05
1.02057e-05
1e-05
0.000313847
0.00127219
0.00308703
0.00559566
0.00813814
0.00986302
0.0106579
0.010901
0.0108259
0.0108515
0.0113797
0.0126128
0.0145065
0.0169072
0.0196636
0.022637
0.0256916
0.0286847
0.0314649
0.0339093
0.0360073
0.0378812
0.0394945
0.0406922
0.0417097
0.0429612
0.0448
0.0479109
1.6115e-05
1.61184e-05
1.61195e-05
1.61211e-05
1.61199e-05
1.61292e-05
1.60935e-05
1.6126e-05
1.66089e-05
1.71386e-05
1.31481e-05
1.00238e-05
1.00005e-05
2.37558e-05
6.99655e-05
0.00065728
0.00207172
0.00446158
0.00749223
0.0103232
0.0120883
0.0128646
0.0133543
0.0140819
0.0154486
0.0175836
0.0204251
0.0238223
0.0275949
0.0315623
0.0355476
0.0393861
0.0429344
0.046077
0.0486785
0.0505566
0.0516089
0.0521904
0.0529412
0.0537232
0.0552498
1.61137e-05
1.61168e-05
1.61181e-05
1.6119e-05
1.61203e-05
1.61208e-05
1.61249e-05
1.61077e-05
1.60919e-05
1.64857e-05
1.70653e-05
1.48866e-05
1.04077e-05
1.00034e-05
1.00402e-05
1e-05
0.000235601
0.00107946
0.00296103
0.00589313
0.00940073
0.0124882
0.0144614
0.0158027
0.0174086
0.0197121
0.0228358
0.0267123
0.031153
0.0359372
0.0408474
0.045683
0.0502657
0.0544497
0.0580976
0.0610782
0.0633053
0.0647509
0.0653485
0.06514
0.0650638
1.61121e-05
1.61149e-05
1.61161e-05
1.6117e-05
1.6118e-05
1.61192e-05
1.612e-05
1.61249e-05
1.61083e-05
1.60912e-05
1.63303e-05
1.70888e-05
1.62183e-05
1.23417e-05
1e-05
1e-05
1.29479e-05
1.65133e-05
0.000411609
0.00152007
0.00381
0.00706936
0.0106924
0.0141547
0.0171486
0.0199787
0.0233277
0.0275059
0.0324197
0.0378509
0.0435556
0.0492937
0.0548411
0.0600229
0.0646857
0.0686968
0.0719692
0.0744799
0.0762212
0.077252
0.0777545
1.61103e-05
1.61129e-05
1.61139e-05
1.61147e-05
1.61156e-05
1.61167e-05
1.61178e-05
1.61192e-05
1.61226e-05
1.61139e-05
1.60892e-05
1.62094e-05
1.67761e-05
1.70525e-05
1.43984e-05
1.01961e-05
1.00025e-05
1.00016e-05
2.13141e-05
1.02906e-05
0.000522274
0.00177639
0.00397786
0.0070422
0.0107321
0.0148971
0.0195046
0.0245292
0.0300085
0.0359934
0.0423831
0.048941
0.0554098
0.0615852
0.0672944
0.0723874
0.076759
0.0803734
0.0832046
0.0852711
0.0866552
1.61085e-05
1.61109e-05
1.61118e-05
1.61125e-05
1.61132e-05
1.61141e-05
1.61151e-05
1.61161e-05
1.61179e-05
1.61197e-05
1.61186e-05
1.60901e-05
1.61496e-05
1.63926e-05
1.72753e-05
1.6007e-05
1.29665e-05
1.00009e-05
1.00002e-05
1e-05
4.16297e-05
5.96789e-05
0.000454705
0.00138574
0.00314629
0.00574538
0.00925456
0.0138155
0.0196335
0.0266553
0.0343665
0.0421885
0.0498186
0.0571475
0.0640628
0.0704134
0.0760717
0.0809943
0.0851358
0.0884786
0.0910566
1.61066e-05
1.61089e-05
1.61096e-05
1.61101e-05
1.61107e-05
1.61114e-05
1.61122e-05
1.61131e-05
1.61142e-05
1.61156e-05
1.61181e-05
1.61166e-05
1.61063e-05
1.60867e-05
1.62713e-05
1.67061e-05
1.72187e-05
1.50454e-05
1.12623e-05
1e-05
1.00001e-05
1.00106e-05
1.72401e-05
0.000150011
0.000154319
0.000657905
0.0017179
0.00351906
0.00629706
0.0103587
0.0160057
0.0233619
0.0321001
0.0414497
0.0505918
0.0590195
0.0665622
0.0732625
0.0791334
0.084167
0.0883845
1.61047e-05
1.61066e-05
1.61071e-05
1.61074e-05
1.61079e-05
1.61085e-05
1.61092e-05
1.61101e-05
1.61111e-05
1.61123e-05
1.61136e-05
1.61157e-05
1.61165e-05
1.61119e-05
1.60856e-05
1.61401e-05
1.63776e-05
1.7055e-05
1.69079e-05
1.45488e-05
1.06231e-05
1.0005e-05
1e-05
1e-05
1.00862e-05
2.6247e-05
0.000142848
2.26828e-05
0.000383457
0.00122912
0.00282663
0.00554223
0.00971899
0.0155948
0.0231499
0.0319987
0.0414494
0.0508243
0.0595502
0.0673006
0.0740003
1.61028e-05
1.61042e-05
1.61045e-05
1.61047e-05
1.61051e-05
1.61057e-05
1.61065e-05
1.61074e-05
1.61083e-05
1.61094e-05
1.61106e-05
1.61121e-05
1.61134e-05
1.61168e-05
1.61124e-05
1.61032e-05
1.60778e-05
1.62231e-05
1.65696e-05
1.72032e-05
1.65404e-05
1.39204e-05
1.0811e-05
1e-05
1.00001e-05
1e-05
1e-05
1.00006e-05
1.17406e-05
7.15044e-05
0.000211871
1.04736e-05
0.00042603
0.00154367
0.00364431
0.00699146
0.0117502
0.0179261
0.0252731
0.0333679
0.041726
1.61008e-05
1.61019e-05
1.61021e-05
1.61023e-05
1.61028e-05
1.61034e-05
1.61042e-05
1.61051e-05
1.61061e-05
1.61072e-05
1.61083e-05
1.61096e-05
1.6111e-05
1.61127e-05
1.61151e-05
1.61168e-05
1.61072e-05
1.60893e-05
1.61e-05
1.62928e-05
1.67616e-05
1.71843e-05
1.66657e-05
1.42183e-05
1.17397e-05
1.0074e-05
1.00013e-05
1e-05
1e-05
1e-05
1e-05
1e-05
1.17619e-05
8.79619e-05
0.0002611
6.56662e-05
0.000480729
0.00135946
0.00315329
0.00587218
0.00959641
1.60988e-05
1.60997e-05
1.60999e-05
1.61003e-05
1.61009e-05
1.61017e-05
1.61025e-05
1.61035e-05
1.61045e-05
1.61056e-05
1.61067e-05
1.61079e-05
1.61092e-05
1.61106e-05
1.61123e-05
1.61144e-05
1.61173e-05
1.61141e-05
1.61007e-05
1.60789e-05
1.61362e-05
1.63493e-05
1.67773e-05
1.71218e-05
1.69878e-05
1.55912e-05
1.31851e-05
1.13183e-05
1.0136e-05
1.00018e-05
1e-05
1e-05
1e-05
1e-05
1e-05
1.00024e-05
1.18585e-05
5.9568e-05
0.000186804
0.000348492
0.000600224
1.6097e-05
1.60977e-05
1.60981e-05
1.60987e-05
1.60995e-05
1.61004e-05
1.61014e-05
1.61024e-05
1.61034e-05
1.61045e-05
1.61056e-05
1.61067e-05
1.6108e-05
1.61093e-05
1.61107e-05
1.61123e-05
1.61144e-05
1.61167e-05
1.61184e-05
1.6111e-05
1.6094e-05
1.60888e-05
1.61429e-05
1.63286e-05
1.66235e-05
1.70642e-05
1.72081e-05
1.68686e-05
1.57103e-05
1.386e-05
1.18859e-05
1.07142e-05
1.00472e-05
1.00009e-05
1e-05
1e-05
1e-05
1e-05
1e-05
1e-05
1e-05
1.60952e-05
1.60961e-05
1.60967e-05
1.60975e-05
1.60985e-05
1.60996e-05
1.61006e-05
1.61017e-05
1.61028e-05
1.61039e-05
1.61049e-05
1.6106e-05
1.61072e-05
1.61084e-05
1.61098e-05
1.61112e-05
1.61127e-05
1.61145e-05
1.61168e-05
1.61192e-05
1.61185e-05
1.61117e-05
1.60967e-05
1.60928e-05
1.61187e-05
1.62304e-05
1.64544e-05
1.67452e-05
1.70825e-05
1.73119e-05
1.7132e-05
1.6565e-05
1.54226e-05
1.38441e-05
1.22351e-05
1.09121e-05
1.02749e-05
1.00015e-05
1.00002e-05
1e-05
1e-05
1.60937e-05
1.60947e-05
1.60957e-05
1.60967e-05
1.60979e-05
1.60991e-05
1.61002e-05
1.61013e-05
1.61024e-05
1.61034e-05
1.61045e-05
1.61056e-05
1.61067e-05
1.61078e-05
1.61091e-05
1.61104e-05
1.61118e-05
1.61133e-05
1.61149e-05
1.61169e-05
1.61193e-05
1.61215e-05
1.61212e-05
1.61155e-05
1.61045e-05
1.60921e-05
1.60986e-05
1.61405e-05
1.62417e-05
1.64161e-05
1.66561e-05
1.6908e-05
1.7184e-05
1.73541e-05
1.72912e-05
1.68641e-05
1.62322e-05
1.51511e-05
1.38278e-05
1.25032e-05
1.15199e-05
1.60924e-05
1.60937e-05
1.60949e-05
1.60962e-05
1.60975e-05
1.60987e-05
1.60999e-05
1.6101e-05
1.61021e-05
1.61032e-05
1.61042e-05
1.61052e-05
1.61063e-05
1.61074e-05
1.61086e-05
1.61098e-05
1.61111e-05
1.61125e-05
1.6114e-05
1.61155e-05
1.61173e-05
1.61194e-05
1.61219e-05
1.6124e-05
1.61246e-05
1.61215e-05
1.61136e-05
1.61033e-05
1.60954e-05
1.60973e-05
1.6123e-05
1.61784e-05
1.62747e-05
1.64159e-05
1.65976e-05
1.68063e-05
1.69996e-05
1.72339e-05
1.73778e-05
1.73532e-05
1.7195e-05
1.60913e-05
1.60929e-05
1.60944e-05
1.60959e-05
1.60973e-05
1.60985e-05
1.60997e-05
1.61008e-05
1.61019e-05
1.61029e-05
1.6104e-05
1.6105e-05
1.6106e-05
1.61071e-05
1.61082e-05
1.61093e-05
1.61106e-05
1.61119e-05
1.61132e-05
1.61147e-05
1.61162e-05
1.61178e-05
1.61196e-05
1.61216e-05
1.61239e-05
1.61262e-05
1.61276e-05
1.61274e-05
1.61247e-05
1.61189e-05
1.61109e-05
1.61033e-05
1.60986e-05
1.61008e-05
1.61153e-05
1.61487e-05
1.6199e-05
1.62763e-05
1.63815e-05
1.65131e-05
1.6644e-05
1.60904e-05
1.60924e-05
1.60941e-05
1.60957e-05
1.60971e-05
1.60984e-05
1.60995e-05
1.61007e-05
1.61017e-05
1.61027e-05
1.61037e-05
1.61047e-05
1.61057e-05
1.61068e-05
1.61078e-05
1.61089e-05
1.61101e-05
1.61113e-05
1.61126e-05
1.6114e-05
1.61154e-05
1.61169e-05
1.61184e-05
1.612e-05
1.61217e-05
1.61235e-05
1.61255e-05
1.61277e-05
1.61297e-05
1.61313e-05
1.61319e-05
1.61311e-05
1.61288e-05
1.61247e-05
1.61192e-05
1.61132e-05
1.61081e-05
1.61047e-05
1.61048e-05
1.61127e-05
1.61241e-05
1.60898e-05
1.60921e-05
1.60939e-05
1.60955e-05
1.60969e-05
1.60982e-05
1.60994e-05
1.61005e-05
1.61015e-05
1.61025e-05
1.61035e-05
1.61045e-05
1.61055e-05
1.61065e-05
1.61075e-05
1.61086e-05
1.61097e-05
1.61108e-05
1.61121e-05
1.61133e-05
1.61147e-05
1.61161e-05
1.61175e-05
1.6119e-05
1.61204e-05
1.6122e-05
1.61235e-05
1.61252e-05
1.6127e-05
1.61289e-05
1.61309e-05
1.61329e-05
1.61347e-05
1.61363e-05
1.61375e-05
1.61379e-05
1.61376e-05
1.61363e-05
1.61342e-05
1.61312e-05
1.61285e-05
1.60894e-05
1.60918e-05
1.60937e-05
1.60953e-05
1.60967e-05
1.6098e-05
1.60991e-05
1.61002e-05
1.61013e-05
1.61023e-05
1.61033e-05
1.61043e-05
1.61052e-05
1.61062e-05
1.61072e-05
1.61082e-05
1.61093e-05
1.61104e-05
1.61116e-05
1.61128e-05
1.61141e-05
1.61154e-05
1.61167e-05
1.61181e-05
1.61195e-05
1.61209e-05
1.61224e-05
1.61238e-05
1.61253e-05
1.61269e-05
1.61285e-05
1.61302e-05
1.61319e-05
1.61338e-05
1.61357e-05
1.61376e-05
1.61396e-05
1.61415e-05
1.61433e-05
1.61449e-05
1.61463e-05
1.60891e-05
1.60916e-05
1.60935e-05
1.60951e-05
1.60965e-05
1.60977e-05
1.60989e-05
1.61e-05
1.6101e-05
1.6102e-05
1.6103e-05
1.6104e-05
1.6105e-05
1.61059e-05
1.61069e-05
1.61079e-05
1.6109e-05
1.611e-05
1.61112e-05
1.61123e-05
1.61135e-05
1.61148e-05
1.61161e-05
1.61174e-05
1.61187e-05
1.612e-05
1.61214e-05
1.61228e-05
1.61243e-05
1.61257e-05
1.61272e-05
1.61287e-05
1.61303e-05
1.61319e-05
1.61335e-05
1.61352e-05
1.6137e-05
1.61388e-05
1.61407e-05
1.61427e-05
1.61445e-05
1.60889e-05
1.60914e-05
1.60933e-05
1.60948e-05
1.60962e-05
1.60974e-05
1.60986e-05
1.60997e-05
1.61007e-05
1.61017e-05
1.61027e-05
1.61037e-05
1.61047e-05
1.61056e-05
1.61066e-05
1.61076e-05
1.61086e-05
1.61097e-05
1.61107e-05
1.61119e-05
1.6113e-05
1.61143e-05
1.61155e-05
1.61167e-05
1.6118e-05
1.61193e-05
1.61206e-05
1.6122e-05
1.61234e-05
1.61248e-05
1.61262e-05
1.61277e-05
1.61292e-05
1.61308e-05
1.61324e-05
1.6134e-05
1.61357e-05
1.61374e-05
1.61392e-05
1.6141e-05
1.61427e-05
1.60887e-05
1.60911e-05
1.6093e-05
1.60945e-05
1.60958e-05
1.60971e-05
1.60982e-05
1.60993e-05
1.61004e-05
1.61014e-05
1.61024e-05
1.61034e-05
1.61043e-05
1.61053e-05
1.61062e-05
1.61072e-05
1.61082e-05
1.61093e-05
1.61103e-05
1.61114e-05
1.61126e-05
1.61138e-05
1.6115e-05
1.61162e-05
1.61174e-05
1.61187e-05
1.612e-05
1.61213e-05
1.61226e-05
1.6124e-05
1.61254e-05
1.61269e-05
1.61284e-05
1.61299e-05
1.61315e-05
1.61331e-05
1.61348e-05
1.61365e-05
1.61383e-05
1.61401e-05
1.61418e-05
1.60885e-05
1.60908e-05
1.60926e-05
1.60941e-05
1.60954e-05
1.60966e-05
1.60978e-05
1.60989e-05
1.60999e-05
1.6101e-05
1.6102e-05
1.6103e-05
1.61039e-05
1.61049e-05
1.61059e-05
1.61069e-05
1.61079e-05
1.61089e-05
1.61099e-05
1.6111e-05
1.61121e-05
1.61133e-05
1.61145e-05
1.61156e-05
1.61169e-05
1.61181e-05
1.61194e-05
1.61207e-05
1.6122e-05
1.61234e-05
1.61248e-05
1.61262e-05
1.61277e-05
1.61292e-05
1.61307e-05
1.61323e-05
1.6134e-05
1.61357e-05
1.61375e-05
1.61393e-05
1.6141e-05
1.60882e-05
1.60904e-05
1.60921e-05
1.60936e-05
1.60949e-05
1.60961e-05
1.60973e-05
1.60984e-05
1.60995e-05
1.61005e-05
1.61015e-05
1.61025e-05
1.61035e-05
1.61045e-05
1.61055e-05
1.61065e-05
1.61075e-05
1.61085e-05
1.61095e-05
1.61106e-05
1.61117e-05
1.61128e-05
1.6114e-05
1.61152e-05
1.61163e-05
1.61176e-05
1.61188e-05
1.61201e-05
1.61214e-05
1.61227e-05
1.61241e-05
1.61255e-05
1.6127e-05
1.61285e-05
1.613e-05
1.61316e-05
1.61333e-05
1.61349e-05
1.61367e-05
1.61384e-05
1.61401e-05
1.60878e-05
1.60899e-05
1.60916e-05
1.6093e-05
1.60943e-05
1.60955e-05
1.60967e-05
1.60978e-05
1.60989e-05
1.61e-05
1.61011e-05
1.61021e-05
1.61031e-05
1.61041e-05
1.61051e-05
1.61061e-05
1.61071e-05
1.61081e-05
1.61091e-05
1.61102e-05
1.61113e-05
1.61124e-05
1.61135e-05
1.61147e-05
1.61159e-05
1.61171e-05
1.61183e-05
1.61195e-05
1.61208e-05
1.61222e-05
1.61235e-05
1.61249e-05
1.61264e-05
1.61278e-05
1.61293e-05
1.61309e-05
1.61325e-05
1.61341e-05
1.61358e-05
1.61375e-05
1.61392e-05
1.60873e-05
1.60894e-05
1.6091e-05
1.60923e-05
1.60936e-05
1.60949e-05
1.60961e-05
1.60972e-05
1.60983e-05
1.60994e-05
1.61005e-05
1.61016e-05
1.61026e-05
1.61036e-05
1.61046e-05
1.61056e-05
1.61066e-05
1.61076e-05
1.61087e-05
1.61098e-05
1.61108e-05
1.6112e-05
1.61131e-05
1.61142e-05
1.61154e-05
1.61166e-05
1.61178e-05
1.6119e-05
1.61203e-05
1.61216e-05
1.61229e-05
1.61243e-05
1.61257e-05
1.61271e-05
1.61286e-05
1.61301e-05
1.61317e-05
1.61332e-05
1.61349e-05
1.61365e-05
1.61381e-05
1.60867e-05
1.60887e-05
1.60902e-05
1.60916e-05
1.60929e-05
1.60941e-05
1.60953e-05
1.60965e-05
1.60977e-05
1.60988e-05
1.60999e-05
1.6101e-05
1.6102e-05
1.61031e-05
1.61041e-05
1.61051e-05
1.61061e-05
1.61072e-05
1.61082e-05
1.61093e-05
1.61104e-05
1.61115e-05
1.61126e-05
1.61137e-05
1.61149e-05
1.6116e-05
1.61172e-05
1.61184e-05
1.61197e-05
1.6121e-05
1.61223e-05
1.61236e-05
1.6125e-05
1.61264e-05
1.61278e-05
1.61293e-05
1.61307e-05
1.61323e-05
1.61338e-05
1.61354e-05
1.61369e-05
1.6086e-05
1.60879e-05
1.60893e-05
1.60907e-05
1.6092e-05
1.60933e-05
1.60945e-05
1.60957e-05
1.60969e-05
1.6098e-05
1.60992e-05
1.61003e-05
1.61013e-05
1.61024e-05
1.61035e-05
1.61045e-05
1.61055e-05
1.61066e-05
1.61077e-05
1.61087e-05
1.61098e-05
1.61109e-05
1.6112e-05
1.61131e-05
1.61143e-05
1.61154e-05
1.61166e-05
1.61178e-05
1.6119e-05
1.61203e-05
1.61215e-05
1.61228e-05
1.61241e-05
1.61255e-05
1.61268e-05
1.61282e-05
1.61297e-05
1.61311e-05
1.61326e-05
1.6134e-05
1.61354e-05
1.60852e-05
1.60869e-05
1.60884e-05
1.60897e-05
1.6091e-05
1.60922e-05
1.60935e-05
1.60947e-05
1.60959e-05
1.60971e-05
1.60982e-05
1.60994e-05
1.61005e-05
1.61016e-05
1.61027e-05
1.61037e-05
1.61048e-05
1.61059e-05
1.6107e-05
1.6108e-05
1.61091e-05
1.61102e-05
1.61113e-05
1.61124e-05
1.61136e-05
1.61147e-05
1.61158e-05
1.6117e-05
1.61182e-05
1.61194e-05
1.61206e-05
1.61219e-05
1.61231e-05
1.61244e-05
1.61257e-05
1.6127e-05
1.61284e-05
1.61297e-05
1.61311e-05
1.61324e-05
1.61338e-05
1.60842e-05
1.60858e-05
1.60872e-05
1.60885e-05
1.60898e-05
1.6091e-05
1.60923e-05
1.60935e-05
1.60947e-05
1.60959e-05
1.60971e-05
1.60983e-05
1.60994e-05
1.61006e-05
1.61017e-05
1.61028e-05
1.61039e-05
1.6105e-05
1.61061e-05
1.61071e-05
1.61082e-05
1.61093e-05
1.61104e-05
1.61115e-05
1.61127e-05
1.61138e-05
1.61149e-05
1.6116e-05
1.61172e-05
1.61183e-05
1.61195e-05
1.61207e-05
1.61219e-05
1.61231e-05
1.61243e-05
1.61256e-05
1.61268e-05
1.6128e-05
1.61293e-05
1.61305e-05
1.61317e-05
1.60831e-05
1.60846e-05
1.60859e-05
1.60872e-05
1.60884e-05
1.60896e-05
1.60909e-05
1.60921e-05
1.60933e-05
1.60945e-05
1.60957e-05
1.60969e-05
1.60981e-05
1.60993e-05
1.61004e-05
1.61016e-05
1.61027e-05
1.61038e-05
1.61049e-05
1.6106e-05
1.61071e-05
1.61082e-05
1.61093e-05
1.61104e-05
1.61115e-05
1.61126e-05
1.61137e-05
1.61148e-05
1.61159e-05
1.6117e-05
1.61181e-05
1.61193e-05
1.61204e-05
1.61215e-05
1.61227e-05
1.61238e-05
1.6125e-05
1.61261e-05
1.61273e-05
1.61284e-05
1.61295e-05
1.60818e-05
1.60832e-05
1.60844e-05
1.60856e-05
1.60868e-05
1.60879e-05
1.60891e-05
1.60903e-05
1.60916e-05
1.60928e-05
1.6094e-05
1.60953e-05
1.60965e-05
1.60977e-05
1.60988e-05
1.61e-05
1.61012e-05
1.61023e-05
1.61034e-05
1.61046e-05
1.61057e-05
1.61068e-05
1.61079e-05
1.6109e-05
1.611e-05
1.61111e-05
1.61122e-05
1.61133e-05
1.61143e-05
1.61154e-05
1.61164e-05
1.61175e-05
1.61185e-05
1.61196e-05
1.61206e-05
1.61217e-05
1.61227e-05
1.61237e-05
1.61248e-05
1.61257e-05
1.61267e-05
1.60803e-05
1.60815e-05
1.60827e-05
1.60838e-05
1.60849e-05
1.6086e-05
1.60871e-05
1.60883e-05
1.60895e-05
1.60907e-05
1.6092e-05
1.60932e-05
1.60944e-05
1.60957e-05
1.60969e-05
1.60981e-05
1.60993e-05
1.61004e-05
1.61016e-05
1.61027e-05
1.61038e-05
1.6105e-05
1.6106e-05
1.61071e-05
1.61082e-05
1.61092e-05
1.61103e-05
1.61113e-05
1.61123e-05
1.61133e-05
1.61143e-05
1.61153e-05
1.61163e-05
1.61173e-05
1.61183e-05
1.61192e-05
1.61202e-05
1.61211e-05
1.6122e-05
1.61229e-05
1.61238e-05
1.60786e-05
1.60797e-05
1.60807e-05
1.60816e-05
1.60826e-05
1.60836e-05
1.60847e-05
1.60859e-05
1.6087e-05
1.60882e-05
1.60895e-05
1.60907e-05
1.60919e-05
1.60932e-05
1.60944e-05
1.60956e-05
1.60968e-05
1.6098e-05
1.60992e-05
1.61004e-05
1.61015e-05
1.61026e-05
1.61037e-05
1.61048e-05
1.61059e-05
1.61069e-05
1.61079e-05
1.61089e-05
1.61099e-05
1.61109e-05
1.61118e-05
1.61127e-05
1.61136e-05
1.61145e-05
1.61154e-05
1.61162e-05
1.6117e-05
1.61178e-05
1.61186e-05
1.61194e-05
1.61201e-05
1.60766e-05
1.60776e-05
1.60784e-05
1.60792e-05
1.60801e-05
1.6081e-05
1.6082e-05
1.6083e-05
1.60841e-05
1.60853e-05
1.60864e-05
1.60876e-05
1.60889e-05
1.60901e-05
1.60914e-05
1.60926e-05
1.60938e-05
1.6095e-05
1.60962e-05
1.60974e-05
1.60985e-05
1.60996e-05
1.61007e-05
1.61018e-05
1.61028e-05
1.61038e-05
1.61048e-05
1.61057e-05
1.61067e-05
1.61076e-05
1.61085e-05
1.61093e-05
1.61102e-05
1.6111e-05
1.61118e-05
1.61126e-05
1.61134e-05
1.61141e-05
1.61148e-05
1.61155e-05
1.61161e-05
1.60744e-05
1.60751e-05
1.60758e-05
1.60764e-05
1.60771e-05
1.60779e-05
1.60787e-05
1.60797e-05
1.60806e-05
1.60817e-05
1.60828e-05
1.60839e-05
1.60851e-05
1.60862e-05
1.60874e-05
1.60886e-05
1.60898e-05
1.6091e-05
1.60921e-05
1.60933e-05
1.60944e-05
1.60956e-05
1.60967e-05
1.60978e-05
1.60988e-05
1.60998e-05
1.61008e-05
1.61017e-05
1.61026e-05
1.61035e-05
1.61044e-05
1.61052e-05
1.61059e-05
1.61067e-05
1.61074e-05
1.61081e-05
1.61087e-05
1.61093e-05
1.61098e-05
1.61104e-05
1.61108e-05
1.60719e-05
1.60724e-05
1.60728e-05
1.60732e-05
1.60737e-05
1.60743e-05
1.6075e-05
1.60757e-05
1.60764e-05
1.60773e-05
1.60782e-05
1.60791e-05
1.60801e-05
1.60812e-05
1.60824e-05
1.60836e-05
1.60848e-05
1.6086e-05
1.60872e-05
1.60884e-05
1.60895e-05
1.60906e-05
1.60917e-05
1.60927e-05
1.60937e-05
1.60947e-05
1.60956e-05
1.60965e-05
1.60973e-05
1.60981e-05
1.60989e-05
1.60996e-05
1.61003e-05
1.6101e-05
1.61016e-05
1.61022e-05
1.61028e-05
1.61033e-05
1.61038e-05
1.61043e-05
1.61047e-05
1.60691e-05
1.60693e-05
1.60694e-05
1.60696e-05
1.60698e-05
1.60701e-05
1.60703e-05
1.60707e-05
1.6071e-05
1.60715e-05
1.60719e-05
1.60724e-05
1.6073e-05
1.60736e-05
1.60743e-05
1.6075e-05
1.60757e-05
1.60764e-05
1.60771e-05
1.60778e-05
1.60784e-05
1.60791e-05
1.60797e-05
1.60804e-05
1.6081e-05
1.60817e-05
1.60823e-05
1.60829e-05
1.60834e-05
1.6084e-05
1.60845e-05
1.60849e-05
1.60854e-05
1.60858e-05
1.60861e-05
1.60865e-05
1.60867e-05
1.6087e-05
1.60872e-05
1.60873e-05
1.60874e-05
0.00560701
0.00965973
0.0122303
0.0148535
0.0181718
0.0214298
0.0235953
0.0241787
0.0231064
0.0205065
0.0165945
0.011576
0.00570546
0.00102728
8.33355e-05
1e-05
1.11608e-05
1.67055e-05
1.66689e-05
1.622e-05
1.61733e-05
1.61921e-05
1.62028e-05
1.62115e-05
1.62205e-05
1.62286e-05
1.62352e-05
1.62401e-05
1.62433e-05
1.62452e-05
1.62461e-05
1.62465e-05
1.62466e-05
1.62467e-05
1.62469e-05
1.62473e-05
1.6248e-05
1.6249e-05
1.62501e-05
1.62512e-05
1.62523e-05
1.62533e-05
1.6254e-05
1.62544e-05
1.62544e-05
1.62541e-05
1.62533e-05
1.62522e-05
1.62507e-05
1.62487e-05
1.62462e-05
1.62433e-05
1.62399e-05
1.6236e-05
1.62316e-05
1.62267e-05
1.62213e-05
1.62155e-05
1.62094e-05
1.62031e-05
1.61965e-05
1.61899e-05
1.61833e-05
1.61767e-05
1.61703e-05
1.61641e-05
1.61583e-05
1.6153e-05
1.61484e-05
1.61443e-05
1.61402e-05
1.61359e-05
1.61321e-05
1.61244e-05
0.00893481
0.0139632
0.0167836
0.0192893
0.022409
0.0255433
0.0277219
0.0284233
0.0275257
0.0251112
0.0213563
0.0164726
0.0105445
0.0040262
0.000373964
1.16712e-05
1.00071e-05
1.42956e-05
1.73921e-05
1.65083e-05
1.61944e-05
1.61908e-05
1.62076e-05
1.6219e-05
1.62294e-05
1.62386e-05
1.62459e-05
1.62511e-05
1.62545e-05
1.62563e-05
1.62571e-05
1.62573e-05
1.62572e-05
1.62571e-05
1.62572e-05
1.62575e-05
1.62581e-05
1.6259e-05
1.626e-05
1.6261e-05
1.62619e-05
1.62626e-05
1.62631e-05
1.62631e-05
1.62628e-05
1.62621e-05
1.62609e-05
1.62593e-05
1.62573e-05
1.62548e-05
1.62518e-05
1.62483e-05
1.62443e-05
1.62398e-05
1.62348e-05
1.62293e-05
1.62234e-05
1.62171e-05
1.62105e-05
1.62036e-05
1.61967e-05
1.61897e-05
1.61827e-05
1.61759e-05
1.61694e-05
1.61632e-05
1.61576e-05
1.61526e-05
1.61483e-05
1.61444e-05
1.61405e-05
1.61363e-05
1.61327e-05
1.61254e-05
0.0122603
0.0184836
0.0217116
0.0241361
0.0270273
0.030031
0.0322663
0.0331732
0.0325627
0.0304532
0.0269643
0.0222775
0.0164995
0.00947914
0.00273151
7.24484e-05
1.00733e-05
1e-05
1.45756e-05
1.71083e-05
1.6394e-05
1.62132e-05
1.62185e-05
1.62295e-05
1.62395e-05
1.62493e-05
1.62573e-05
1.62631e-05
1.62667e-05
1.62686e-05
1.62692e-05
1.62691e-05
1.62688e-05
1.62685e-05
1.62683e-05
1.62685e-05
1.62689e-05
1.62696e-05
1.62704e-05
1.62712e-05
1.62719e-05
1.62723e-05
1.62724e-05
1.62721e-05
1.62714e-05
1.62702e-05
1.62685e-05
1.62664e-05
1.62638e-05
1.62608e-05
1.62572e-05
1.62531e-05
1.62485e-05
1.62434e-05
1.62378e-05
1.62317e-05
1.62252e-05
1.62184e-05
1.62112e-05
1.6204e-05
1.61966e-05
1.61893e-05
1.61821e-05
1.61751e-05
1.61686e-05
1.61625e-05
1.6157e-05
1.61523e-05
1.61483e-05
1.61446e-05
1.61408e-05
1.61368e-05
1.61333e-05
1.61264e-05
0.0157098
0.0232416
0.0270079
0.029448
0.0321334
0.0349952
0.0372904
0.0384407
0.0381852
0.0364689
0.0333427
0.0289297
0.0233481
0.016471
0.00833251
0.00187694
2.2614e-05
1e-05
1.00005e-05
1.45491e-05
1.65965e-05
1.62499e-05
1.62122e-05
1.62401e-05
1.62528e-05
1.62618e-05
1.62699e-05
1.6276e-05
1.62798e-05
1.62817e-05
1.62823e-05
1.6282e-05
1.62813e-05
1.62807e-05
1.62803e-05
1.62802e-05
1.62804e-05
1.62808e-05
1.62813e-05
1.62819e-05
1.62822e-05
1.62823e-05
1.6282e-05
1.62812e-05
1.628e-05
1.62783e-05
1.62761e-05
1.62734e-05
1.62702e-05
1.62666e-05
1.62624e-05
1.62577e-05
1.62525e-05
1.62468e-05
1.62405e-05
1.62339e-05
1.62268e-05
1.62194e-05
1.62118e-05
1.62041e-05
1.61964e-05
1.61887e-05
1.61813e-05
1.61743e-05
1.61678e-05
1.61619e-05
1.61567e-05
1.61522e-05
1.61483e-05
1.61448e-05
1.61412e-05
1.61373e-05
1.6134e-05
1.61274e-05
0.0194951
0.0282662
0.0326217
0.0352018
0.0377545
0.0404813
0.0428212
0.0442174
0.0443508
0.0430931
0.0404231
0.0363924
0.0310833
0.0244787
0.0163107
0.00727737
0.00135226
0.000242401
1e-05
1.00471e-05
1.5037e-05
1.65192e-05
1.61948e-05
1.62028e-05
1.62542e-05
1.62741e-05
1.62837e-05
1.62902e-05
1.62942e-05
1.6296e-05
1.62963e-05
1.62957e-05
1.62947e-05
1.62937e-05
1.6293e-05
1.62926e-05
1.62925e-05
1.62926e-05
1.62927e-05
1.62929e-05
1.62928e-05
1.62924e-05
1.62916e-05
1.62904e-05
1.62886e-05
1.62863e-05
1.62835e-05
1.62803e-05
1.62765e-05
1.62722e-05
1.62674e-05
1.62621e-05
1.62563e-05
1.62499e-05
1.6243e-05
1.62358e-05
1.62281e-05
1.62202e-05
1.62122e-05
1.6204e-05
1.6196e-05
1.61881e-05
1.61806e-05
1.61736e-05
1.61672e-05
1.61615e-05
1.61565e-05
1.61522e-05
1.61484e-05
1.6145e-05
1.61415e-05
1.61378e-05
1.61347e-05
1.61285e-05
0.0240035
0.0335748
0.0384719
0.0413177
0.0438486
0.0464773
0.0488473
0.0504697
0.0509975
0.050241
0.0481112
0.0445867
0.0396858
0.0334181
0.0256244
0.0160909
0.00640878
0.00097341
0.000180374
1.00003e-05
1.01657e-05
1.54342e-05
1.6681e-05
1.62588e-05
1.62231e-05
1.62722e-05
1.62949e-05
1.63044e-05
1.63096e-05
1.63117e-05
1.63119e-05
1.63109e-05
1.63094e-05
1.63078e-05
1.63065e-05
1.63056e-05
1.6305e-05
1.63048e-05
1.63045e-05
1.63043e-05
1.63037e-05
1.63028e-05
1.63014e-05
1.62996e-05
1.62972e-05
1.62943e-05
1.62909e-05
1.6287e-05
1.62826e-05
1.62777e-05
1.62723e-05
1.62663e-05
1.62598e-05
1.62528e-05
1.62453e-05
1.62375e-05
1.62293e-05
1.62209e-05
1.62123e-05
1.62039e-05
1.61955e-05
1.61875e-05
1.618e-05
1.6173e-05
1.61668e-05
1.61613e-05
1.61564e-05
1.61523e-05
1.61486e-05
1.61453e-05
1.61419e-05
1.61384e-05
1.61354e-05
1.61296e-05
0.0295278
0.0391385
0.044455
0.0476664
0.0503017
0.0528996
0.0553008
0.0571232
0.05803
0.0577936
0.0562699
0.0533715
0.0490453
0.0432592
0.0359327
0.0268126
0.0159193
0.00578599
0.000743141
0.000150034
1.00008e-05
1.01622e-05
1.53552e-05
1.68624e-05
1.63581e-05
1.62583e-05
1.62963e-05
1.63173e-05
1.63246e-05
1.63277e-05
1.63282e-05
1.63272e-05
1.63254e-05
1.63235e-05
1.63216e-05
1.632e-05
1.63187e-05
1.63176e-05
1.63167e-05
1.63158e-05
1.63148e-05
1.63133e-05
1.63113e-05
1.63089e-05
1.63059e-05
1.63024e-05
1.62983e-05
1.62937e-05
1.62886e-05
1.6283e-05
1.62769e-05
1.62703e-05
1.62631e-05
1.62555e-05
1.62474e-05
1.6239e-05
1.62302e-05
1.62213e-05
1.62124e-05
1.62036e-05
1.61951e-05
1.6187e-05
1.61794e-05
1.61726e-05
1.61665e-05
1.61612e-05
1.61566e-05
1.61525e-05
1.61489e-05
1.61456e-05
1.61423e-05
1.61389e-05
1.61362e-05
1.61308e-05
0.0358371
0.0448316
0.0504424
0.0540674
0.0569221
0.0595772
0.0620349
0.0640389
0.0652993
0.0655808
0.0647046
0.062532
0.0589452
0.0538447
0.0471335
0.0386514
0.0280993
0.0159152
0.00545642
0.000648599
0.000149052
1.00007e-05
1.00524e-05
1.47869e-05
1.70587e-05
1.65091e-05
1.63033e-05
1.63209e-05
1.63401e-05
1.63445e-05
1.63447e-05
1.63434e-05
1.63413e-05
1.6339e-05
1.6337e-05
1.63352e-05
1.63335e-05
1.63319e-05
1.63302e-05
1.63284e-05
1.63264e-05
1.6324e-05
1.63213e-05
1.63181e-05
1.63145e-05
1.63103e-05
1.63056e-05
1.63003e-05