/*--------------------------------*- C++ -*----------------------------------*\
| =========                 |                                                 |
| \\      /  F ield         | OpenFOAM: The Open Source CFD Toolbox           |
|  \\    /   O peration     | Version:  2312                                  |
|   \\  /    A nd           | Website:  www.openfoam.com                      |
|    \\/     M anipulation  |                                                 |
\*---------------------------------------------------------------------------*/
FoamFile
{
    version     2.0;
    format      ascii;
    arch        "LSB;label=32;scalar=64";
    class       volScalarField;
    location    "400";
    object      turbulenceProperties:I;
}
// * * * * * * * * * * * * * * * * * * * * * * * * * * * * * * * * * * * * * //

dimensions      [0 0 0 0 0 0 0];

internalField   nonuniform List<scalar> 
11040
(
0.0561929
0.0867329
0.458849
0.0805887
0.255348
0.285247
0.28898
0.291765
0.288144
0.287841
0.285333
0.283356
0.281411
0.279721
0.277031
0.273574
0.266443
0.24726
0.197649
0.21049
0.245014
0.291108
0.336415
0.36432
0.356435
0.350879
0.356169
0.343236
0.329567
0.320027
0.316685
0.318586
0.329673
0.356092
0.387823
0.391944
0.554174
1
0.591127
0.348748
0.454939
0.0195564
0.0230798
0.0605776
0.241185
0.72822
0.371903
0.189033
0.116863
0.0692512
0.0318612
0.0651171
0.0801611
0.090517
0.0986506
0.105578
0.113029
0.12171
0.133572
0.151401
0.17977
0.224998
0.281895
0.328664
0.346877
0.325747
0.283295
0.238017
0.202758
0.175758
0.157761
0.149681
0.149166
0.159281
0.180975
0.219026
0.291565
0.476762
1
1
0.433954
0.400696
0.016502
0.0128065
0.0163807
0.0444051
0.242039
1
0.725258
0.365206
0.241745
0.179602
0.132322
0.0974805
0.0624613
0.0564569
0.0775096
0.0975322
0.114782
0.132563
0.15401
0.184607
0.227713
0.277032
0.31058
0.312737
0.282559
0.239949
0.200076
0.170322
0.153056
0.143375
0.141851
0.148527
0.163039
0.189466
0.236009
0.31989
0.499949
1
1
0.786825
0.534764
0.0147352
0.0117028
0.00980878
0.00999906
0.0458051
0.197084
1
1
0.614172
0.391494
0.275624
0.213884
0.16493
0.123693
0.0854429
0.0777091
0.106943
0.134795
0.160965
0.190374
0.227759
0.268246
0.290076
0.282341
0.25034
0.212082
0.179462
0.158366
0.143624
0.13488
0.132817
0.139483
0.158778
0.194807
0.252431
0.346298
0.522219
0.939436
1
1
0.713979
0.0131589
0.011099
0.0102291
0.00727615
0.0060857
0.0395718
0.152429
0.571307
1
1
0.593167
0.407621
0.304362
0.233773
0.178912
0.124892
0.0894682
0.119764
0.15322
0.181371
0.210909
0.240776
0.253729
0.243016
0.215457
0.186102
0.165114
0.149432
0.137284
0.125971
0.11757
0.12248
0.151275
0.200497
0.269273
0.369966
0.538288
0.866943
1
1
0.964556
0.0114886
0.00989632
0.00886536
0.00870337
0.00518893
0.0027087
0.0296138
0.111942
0.347634
1
1
0.990786
0.608937
0.427143
0.321676
0.240518
0.169529
0.105017
0.117606
0.149734
0.171658
0.1922
0.203011
0.19778
0.183118
0.171291
0.163957
0.157717
0.148796
0.13344
0.109858
0.0931108
0.13785
0.204178
0.283435
0.387786
0.544066
0.80117
1
1
1
0.00987191
0.00885406
0.00792815
0.00754423
0.00741135
0.00381801
0.00038662
0.0180684
0.0774635
0.223954
0.655825
1
1
0.953914
0.621431
0.443197
0.323126
0.229353
0.147138
0.0876752
0.0795136
0.110371
0.146348
0.168544
0.181484
0.190634
0.196533
0.196737
0.190065
0.174396
0.146152
0.0914312
0.10815
0.200039
0.290047
0.395582
0.536157
0.732562
0.963116
1
1
0.008452
0.0077838
0.00723836
0.00665709
0.00647882
0.00651409
0.00235498
7.09339e-05
0.0081984
0.0494053
0.143322
0.36602
1
1
1
0.957612
0.630172
0.445146
0.315932
0.232132
0.186223
0.181382
0.201428
0.225736
0.244419
0.256758
0.263457
0.263729
0.256525
0.240339
0.212669
0.165746
0.0568251
0.175549
0.282145
0.388911
0.512704
0.659448
0.809869
1
1
0.0072275
0.00677134
0.0064145
0.00606763
0.00564569
0.00565537
0.00554066
0.00276959
0.00132666
0.000314672
0.026958
0.0876611
0.218465
0.525558
1
1
1
0.965163
0.631959
0.452992
0.355616
0.326542
0.327324
0.339562
0.351028
0.358531
0.361512
0.358782
0.348845
0.330235
0.301053
0.256669
0.184583
0.0970915
0.248566
0.362849
0.473024
0.58214
0.679486
0.786672
0.836466
0.00616939
0.00585523
0.00561673
0.00540353
0.00516047
0.0048606
0.00489425
0.00470149
0.00313395
0.000748697
0.00286615
0.0122286
0.0497673
0.129923
0.294853
0.677527
1
1
1
0.981286
0.672176
0.551846
0.513452
0.507416
0.508274
0.50803
0.504456
0.495833
0.480433
0.456739
0.423324
0.377383
0.314028
0.227229
0.204078
0.317569
0.419841
0.503296
0.565235
0.616518
0.637053
0.00526271
0.00504431
0.00488224
0.00474341
0.00460624
0.00442947
0.00423328
0.0041912
0.0041866
0.00321108
0.000142963
0.00128001
0.000163702
0.0233041
0.0723604
0.168769
0.358893
0.78728
1
1
1
1
0.905042
0.819498
0.776008
0.746053
0.722312
0.700386
0.676194
0.645638
0.605923
0.55463
0.490667
0.416689
0.348786
0.336908
0.387357
0.440954
0.473712
0.4869
0.478833
0.00448715
0.00433454
0.00421948
0.00413137
0.00404641
0.00395471
0.00383457
0.00369041
0.00362102
0.00368641
0.00310962
0.000928665
0.000314894
0.00270361
0.0073728
0.0350619
0.091963
0.198049
0.399106
0.83475
1
1
1
1
1
1
1
1
0.96808
0.92704
0.882238
0.827461
0.760282
0.683563
0.60672
0.543608
0.504809
0.484902
0.467065
0.43692
0.389101
0.00382494
0.00371835
0.00363479
0.0035765
0.00352766
0.00347527
0.00341473
0.00333607
0.00322961
0.00316203
0.00317948
0.00298138
0.00167191
0.000500541
0.000778022
2.98467e-06
0.0132034
0.0440832
0.104818
0.212981
0.409824
0.792585
1
1
1
1
1
1
1
1
1
1
1
1
1
0.911662
0.809154
0.71897
0.638811
0.561336
0.475048
0.00325971
0.00318577
0.00312391
0.00308432
0.0030572
0.00303076
0.00299953
0.00296187
0.00291087
0.00283948
0.00277526
0.00278107
0.00271371
0.00222762
6.99581e-05
0.00012834
0.00190483
0.00213797
0.0169873
0.0490813
0.109227
0.207359
0.36044
0.603424
0.970833
1
1
1
1
1
1
1
1
1
1
1
1
1
1
0.882358
0.739405
0.00277686
0.0027263
0.00268005
0.00265286
0.00263881
0.00262825
0.00261596
0.00259968
0.00257795
0.00254711
0.00250102
0.00244921
0.00242999
0.00242436
0.0022146
0.00107593
0.000378794
0.000320462
0.00233623
0.000938738
0.0176647
0.0472419
0.0947987
0.165176
0.265397
0.405416
0.590864
0.800377
0.972853
1
1
1
1
1
1
1
1
1
1
1
1
0.00236412
0.00233013
0.00229539
0.00227666
0.00227062
0.00226933
0.00226831
0.0022658
0.00226014
0.00224952
0.00223267
0.00220464
0.00216984
0.00213366
0.00215106
0.00204873
0.00179008
0.000252057
0.000183254
0.000120369
0.00283865
0.0032631
0.0136007
0.0333384
0.0651192
0.110088
0.171343
0.252496
0.356093
0.478319
0.605524
0.720273
0.815059
0.901602
1
1
1
1
1
1
1
0.0020139
0.00199144
0.00196547
0.00195279
0.00195172
0.00195562
0.00196098
0.00196616
0.00197007
0.00197115
0.00196815
0.0019602
0.001946
0.00192186
0.00189955
0.00188232
0.00187956
0.00173064
0.00128316
8.76762e-05
0.000122135
0.00042482
0.00191808
0.00407335
0.0056435
0.0163538
0.0342182
0.0601482
0.0957666
0.142954
0.202991
0.275464
0.357148
0.442954
0.528523
0.61251
0.69821
0.794215
0.912744
1
1
0.00172728
0.00171273
0.00169353
0.00168554
0.00168784
0.00169486
0.00170386
0.00171353
0.00172275
0.0017305
0.00173563
0.00173737
0.00173525
0.00172876
0.0017153
0.00169845
0.00168084
0.00168126
0.00164268
0.00149811
0.000960932
0.000310265
9.84054e-05
1.29052e-06
0.000658039
0.00223851
0.00400379
0.00226197
0.0102944
0.023227
0.0422282
0.0686277
0.103116
0.145756
0.195679
0.250951
0.309265
0.369144
0.429871
0.49274
0.557255
0.00149828
0.00148914
0.00147495
0.00147039
0.00147487
0.00148374
0.0014948
0.00150714
0.00151972
0.00153165
0.00154203
0.00155003
0.00155509
0.00155706
0.00155529
0.00154982
0.00153818
0.00152876
0.00151916
0.00151659
0.00145599
0.00129837
0.000921651
1.31759e-05
0.000106031
4.81693e-05
0
0.000189144
0.00129319
0.0030585
0.0046125
0.000904177
0.00957119
0.0221541
0.0397177
0.062409
0.0900142
0.122031
0.15747
0.195587
0.234459
0.00131337
0.00130778
0.00129725
0.0012951
0.00130092
0.00131075
0.00132279
0.00133638
0.00135065
0.00136477
0.00137817
0.00139014
0.00140019
0.00140788
0.00141295
0.00141531
0.00141457
0.0014106
0.00140394
0.00139978
0.00139965
0.00139085
0.00134605
0.00120933
0.00100871
0.000490141
0.000194679
8.63171e-05
5.03414e-05
0
0
6.87507e-05
0.00127303
0.00326407
0.00459538
0.00234682
0.00697634
0.0144981
0.0261653
0.04094
0.0583981
0.00116025
0.00115706
0.00114931
0.0011489
0.00115553
0.0011658
0.00117828
0.00119235
0.0012074
0.00122257
0.00123748
0.0012516
0.00126455
0.00127592
0.00128548
0.00129297
0.00129847
0.00130176
0.00130305
0.00130197
0.0013017
0.00130422
0.00131156
0.00131092
0.00129273
0.00122573
0.00108929
0.000915616
0.000553591
0.000202176
8.30699e-05
6.71412e-05
3.45804e-05
0
0
0.000262656
0.00133264
0.00303902
0.00446554
0.00521694
0.00550557
0.00103129
0.00102974
0.00102414
0.00102502
0.0010321
0.00104251
0.00105503
0.00106916
0.00108439
0.00109997
0.00111551
0.00113071
0.00114518
0.00115863
0.00117086
0.00118167
0.001191
0.00119883
0.00120534
0.0012104
0.00121431
0.00121814
0.00122363
0.00123322
0.00124482
0.00126059
0.00126289
0.00124915
0.00120473
0.00111743
0.000969119
0.000798694
0.000428349
0.000169402
7.6015e-05
6.17298e-05
4.61318e-05
1.26066e-05
0
0
0
0.00092109
0.000920676
0.000916743
0.000918567
0.000925827
0.000936146
0.000948451
0.000962361
0.000977366
0.000992911
0.00100853
0.00102408
0.0010392
0.0010537
0.00106734
0.00108003
0.00109165
0.00110223
0.00111178
0.00112044
0.00112825
0.00113563
0.00114275
0.00115053
0.00115947
0.00117173
0.00118781
0.0012051
0.00122305
0.00123645
0.00123479
0.00122077
0.00118164
0.00110863
0.000996909
0.000825181
0.00063574
0.000179538
0.000108655
6.5773e-05
5.83837e-05
0.000825855
0.000826191
0.000823581
0.000826066
0.000833344
0.000843411
0.000855349
0.000868824
0.000883371
0.000898559
0.000913918
0.000929319
0.000944522
0.00095932
0.000973534
0.000987081
0.000999857
0.00101186
0.00102312
0.00103368
0.0010436
0.0010531
0.00106231
0.00107131
0.00108036
0.0010897
0.00110009
0.0011119
0.00112586
0.00114217
0.0011602
0.00117762
0.00119551
0.00120929
0.00121494
0.00120735
0.00119211
0.00115296
0.00108959
0.000998623
0.00090546
0.00074276
0.000743589
0.000742032
0.000744963
0.000752136
0.000761833
0.0007733
0.000786197
0.000800139
0.00081474
0.000829595
0.000844539
0.000859441
0.000874062
0.000888289
0.000902014
0.000915171
0.000927718
0.000939694
0.000951086
0.000961945
0.000972341
0.000982371
0.000992029
0.00100147
0.00101083
0.00102014
0.00102953
0.00103911
0.00104909
0.00105986
0.00107149
0.0010842
0.00109808
0.00111289
0.00112816
0.001142
0.00115738
0.00116992
0.0011747
0.00118233
0.000669697
0.000670832
0.000670101
0.000673325
0.000680299
0.000689555
0.000700473
0.000712706
0.000725942
0.000739808
0.000753995
0.000768285
0.000782604
0.000796726
0.000810562
0.000823999
0.000836997
0.000849485
0.000861496
0.000873002
0.000884013
0.000894543
0.00090463
0.000914223
0.000923424
0.000932362
0.00094107
0.000949589
0.0009579
0.000966012
0.000973931
0.000981762
0.000989471
0.000997184
0.00100507
0.00101331
0.00102152
0.00103025
0.0010401
0.00104919
0.00106393
0.000605017
0.000606353
0.00060626
0.000609658
0.000616364
0.000625148
0.000635463
0.000646993
0.000659447
0.000672501
0.000685891
0.000699405
0.000712947
0.000726367
0.000739538
0.000752384
0.000764845
0.00077687
0.000788448
0.000799574
0.000810195
0.000820324
0.00082997
0.000839034
0.000847593
0.000855768
0.000863587
0.00087106
0.000878214
0.000885066
0.00089161
0.000897851
0.000903765
0.000909377
0.000914746
0.000919861
0.000924577
0.000929029
0.000933672
0.000937376
0.000945888
0.000547465
0.000548898
0.000549303
0.000552799
0.0005592
0.000567495
0.000577185
0.000587991
0.000599632
0.000611834
0.000624359
0.00063701
0.000649685
0.000662277
0.000674633
0.000686697
0.000698409
0.000709717
0.000720595
0.000731036
0.000740972
0.000750381
0.000759308
0.000767597
0.000775321
0.000782554
0.000789368
0.000795748
0.000801735
0.000807325
0.00081255
0.000817409
0.000821897
0.000826039
0.000829897
0.000833435
0.000836524
0.000839295
0.000841992
0.000843856
0.000849381
0.000496008
0.000497492
0.000498288
0.000501813
0.000507895
0.000515693
0.000524755
0.000534829
0.000545649
0.000556979
0.000568601
0.000580344
0.000592101
0.000603775
0.000615223
0.00062639
0.000637215
0.00064765
0.000657668
0.000667257
0.000676326
0.000684853
0.000692896
0.000700275
0.000707063
0.000713326
0.000719101
0.000724388
0.000729219
0.00073361
0.000737582
0.000741147
0.000744296
0.000747068
0.000749514
0.000751623
0.000753293
0.000754674
0.000755832
0.000756564
0.000759482
0.000449832
0.000451314
0.000452435
0.000455945
0.000461703
0.000469008
0.000477459
0.000486806
0.00049682
0.000507277
0.000517992
0.000528806
0.000539621
0.000550328
0.000560822
0.000571022
0.000580892
0.000590368
0.000599421
0.000608048
0.000616144
0.000623685
0.000630755
0.000637166
0.000642951
0.000648199
0.000652951
0.000657204
0.000660968
0.000664275
0.000667141
0.00066959
0.000671617
0.000673262
0.000674564
0.000675514
0.000676044
0.000676308
0.000676202
0.000676104
0.000676417
0.00040824
0.000409722
0.000411097
0.000414567
0.000420014
0.000426846
0.000434707
0.000443357
0.000452586
0.000462196
0.000472017
0.000481914
0.000491786
0.000501534
0.00051106
0.00052029
0.000529176
0.000537673
0.000545732
0.000553374
0.000560456
0.000566986
0.000573051
0.000578484
0.000583294
0.000587572
0.00059134
0.000594624
0.000597425
0.00059977
0.000601676
0.000603165
0.000604236
0.000604921
0.000605255
0.00060523
0.000604807
0.000604142
0.000602965
0.000602263
0.00059999
0.000370674
0.000372148
0.000373749
0.000377171
0.000382319
0.000388706
0.000396004
0.000403986
0.000412462
0.000421255
0.00043021
0.000439212
0.000448157
0.000456966
0.000465541
0.000473809
0.000481722
0.000489253
0.000496339
0.000503009
0.000509109
0.000514657
0.000519763
0.000524259
0.000528153
0.000531526
0.000534401
0.000536793
0.000538713
0.000540186
0.00054123
0.000541859
0.000542085
0.000541933
0.000541432
0.000540571
0.000539337
0.000537896
0.000535809
0.000534687
0.000529841
0.000336661
0.000338149
0.000339937
0.000343314
0.000348187
0.000354156
0.000360921
0.000368277
0.000376037
0.000384057
0.000392183
0.000400322
0.000408373
0.000416273
0.000423921
0.000431257
0.000438231
0.000444815
0.000450959
0.000456693
0.000461856
0.000466463
0.000470664
0.000474278
0.000477315
0.000479846
0.000481905
0.000483495
0.000484627
0.000485322
0.000485604
0.000485485
0.000484984
0.000484121
0.00048292
0.000481371
0.000479475
0.000477413
0.000474583
0.000473235
0.000465857
0.0003058
0.000307314
0.000309286
0.000312619
0.000317244
0.00032283
0.000329109
0.000335877
0.000342978
0.000350264
0.000357618
0.000364935
0.000372147
0.000379174
0.000385945
0.000392387
0.000398473
0.000404162
0.000409426
0.000414275
0.000418573
0.000422309
0.000425674
0.000428486
0.00043076
0.000432544
0.000433879
0.000434768
0.000435226
0.000435265
0.00043491
0.000434171
0.000433069
0.000431622
0.000429846
0.000427737
0.000425303
0.000422746
0.000419303
0.00041787
0.000408012
0.000277752
0.000279324
0.00028146
0.000284768
0.000289179
0.000294425
0.000300259
0.000306492
0.000312979
0.000319588
0.000326216
0.000332769
0.000339186
0.000345398
0.000351339
0.000356943
0.000362188
0.000367036
0.00037146
0.000375478
0.000378952
0.000381877
0.000384453
0.000386514
0.000388066
0.000389162
0.000389832
0.000390084
0.000389928
0.000389377
0.00038845
0.00038716
0.000385528
0.000383572
0.0003813
0.000378709
0.000375816
0.000372838
0.000368873
0.00036743
0.000355196
0.000252223
0.00025388
0.000256189
0.000259483
0.000263719
0.000268667
0.000274103
0.000279852
0.000285777
0.000291765
0.000297721
0.000303567
0.000309247
0.000314704
0.000319877
0.000324713
0.000329189
0.000333278
0.000336956
0.000340246
0.000343004
0.000345232
0.000347137
0.00034857
0.000349525
0.000350051
0.000350176
0.000349908
0.000349254
0.000348228
0.000346848
0.000345124
0.000343078
0.000340726
0.000338074
0.000335116
0.000331874
0.000328578
0.000324205
0.000322845
0.000308371
0.000228964
0.000230742
0.000233218
0.000236527
0.000240623
0.000245314
0.000250402
0.000255715
0.000261137
0.000266557
0.000271901
0.000277092
0.00028209
0.000286842
0.0002913
0.000295407
0.000299152
0.000302513
0.000305465
0.000308036
0.00031009
0.000311628
0.000312859
0.000313656
0.000314015
0.000313974
0.00031356
0.000312784
0.000311653
0.00031018
0.000308376
0.000306254
0.000303834
0.00030113
0.000298141
0.000294865
0.000291321
0.000287757
0.000283046
0.000281771
0.000265286
0.000207757
0.000209689
0.000212345
0.000215689
0.000219681
0.000224165
0.000228942
0.000233872
0.000238836
0.00024375
0.000248533
0.000253137
0.000257513
0.000261638
0.000265459
0.000268941
0.000272066
0.000274831
0.000277206
0.000279225
0.000280751
0.000281787
0.00028254
0.000282894
0.000282839
0.000282416
0.000281643
0.000280531
0.000279086
0.000277319
0.000275242
0.000272864
0.000270206
0.000267279
0.000264087
0.000260625
0.000256916
0.000253208
0.000248317
0.000247239
0.000229023
0.000188423
0.000190541
0.000193381
0.00019679
0.000200719
0.00020503
0.000209544
0.000214129
0.000218683
0.000223135
0.000227413
0.000231476
0.000235277
0.000238801
0.000241997
0.000244835
0.000247313
0.00024943
0.000251162
0.000252538
0.000253442
0.000253879
0.000254052
0.000253863
0.000253306
0.000252416
0.000251212
0.000249704
0.000247897
0.000245798
0.000243418
0.000240762
0.00023785
0.000234692
0.000231287
0.000227626
0.000223737
0.000219853
0.000214785
0.000213718
0.000194204
0.000170792
0.000173129
0.00017617
0.000179663
0.000183561
0.000187737
0.000192026
0.000196306
0.000200493
0.000204525
0.000208352
0.000211939
0.000215263
0.000218317
0.000221067
0.000223476
0.00022555
0.000227291
0.000228684
0.000229747
0.00023038
0.000230567
0.000230505
0.000230106
0.000229364
0.00022831
0.000226964
0.000225336
0.000223432
0.000221262
0.000218835
0.000216157
0.000213249
0.000210121
0.000206776
0.000203211
0.000199452
0.00019571
0.000190863
0.000190069
0.00017019
0.000154713
0.000157311
0.000160573
0.000164177
0.000168059
0.000172113
0.000176195
0.000180204
0.000184064
0.000187724
0.000191138
0.000194274
0.000197103
0.000199604
0.000201751
0.000203528
0.000204954
0.000206038
0.00020678
0.000207194
0.000207205
0.00020682
0.00020622
0.000205328
0.000204142
0.000202689
0.000200989
0.000199049
0.000196876
0.000194473
0.000191851
0.00018901
0.000185969
0.000182732
0.000179306
0.000175674
0.000171889
0.000168087
0.000163359
0.000162229
0.000142996
0.000140108
0.000143015
0.000146532
0.000150268
0.000154138
0.000158053
0.000161914
0.000165643
0.000169196
0.000172529
0.000175611
0.000178421
0.000180965
0.000183257
0.000185286
0.000186997
0.000188385
0.000189456
0.000190213
0.000190671
0.000190764
0.00019046
0.000189948
0.000189162
0.000188102
0.000186789
0.000185247
0.000183484
0.000181515
0.000179346
0.000176994
0.000174466
0.000171785
0.000168957
0.000166001
0.000162914
0.000159745
0.000156586
0.000152755
0.000152072
0.000135078
0.000127038
0.000130265
0.000134005
0.000137852
0.000141699
0.000145474
0.0001491
0.000152532
0.000155756
0.000158752
0.000161486
0.000163902
0.000165943
0.000167559
0.000168752
0.00016958
0.000170111
0.000170368
0.000170353
0.000170069
0.000169478
0.0001686
0.000167562
0.000166314
0.00016486
0.000163219
0.000161407
0.000159433
0.000157305
0.000155033
0.000152627
0.000150093
0.000147454
0.000144719
0.000141906
0.000139001
0.000136117
0.000133169
0.000130124
0.000128389
0.000116648
0.000115434
0.000118947
0.000122795
0.000126605
0.000130318
0.000133919
0.000137356
0.000140578
0.00014355
0.000146262
0.00014874
0.000151043
0.000153227
0.000155329
0.000157281
0.000158909
0.000160123
0.000160973
0.000161498
0.000161734
0.000161646
0.000161209
0.000160587
0.000159742
0.000158686
0.000157445
0.000156046
0.000154506
0.000152842
0.000151073
0.000149221
0.000147305
0.000145347
0.000143365
0.00014139
0.000139428
0.000137547
0.00013569
0.000133838
0.000133325
0.000123785
0.000104755
0.000108668
0.00011263
0.000116293
0.000119678
0.000122897
0.000126006
0.00012901
0.000131869
0.000134481
0.000136703
0.000138395
0.000139479
0.000139962
0.000139994
0.00013989
0.000139807
0.000139651
0.000139356
0.000138887
0.000138226
0.000137399
0.000136472
0.000135419
0.000134247
0.000132979
0.000131632
0.000130224
0.000128768
0.000127279
0.000125773
0.000124267
0.000122785
0.000121341
0.000119964
0.000118629
0.000117506
0.000116226
0.000115765
0.000113472
0.000112293
9.49197e-05
9.97079e-05
0.000104222
0.000108017
0.000111137
0.000113789
0.000116149
0.00011837
0.000120591
0.000122936
0.000125494
0.000128306
0.000131321
0.000134426
0.000137349
0.000139575
0.000140976
0.000141879
0.000142415
0.000142647
0.000142564
0.000142182
0.000141624
0.000140882
0.000139987
0.000138974
0.000137873
0.000136709
0.00013551
0.000134303
0.000133118
0.000131983
0.000130924
0.000129969
0.000129161
0.000128515
0.000128099
0.000127787
0.000127963
0.000128123
0.000126018
8.77163e-05
9.28221e-05
9.74427e-05
0.00010142
0.000104789
0.000107627
0.000109919
0.00011164
0.000112785
0.000113398
0.000113552
0.000113338
0.000112871
0.0001122
0.000111456
0.000111211
0.000111514
0.00011194
0.000112345
0.000112634
0.000112785
0.000112807
0.000112751
0.000112617
0.000112414
0.000112162
0.000111888
0.000111605
0.000111328
0.000111065
0.000110831
0.000110628
0.000110466
0.000110335
0.000110251
0.000110169
0.00011022
0.00011
0.000110573
0.000108488
0.000111105
9.39604e-05
0.000101277
0.000105434
0.000106759
0.000106174
0.000104862
0.000104026
0.000104533
0.000106623
0.000109914
0.000113761
0.00011758
0.00012099
0.000123844
0.000126038
0.000127092
0.000127078
0.000126507
0.000125651
0.000124628
0.000123413
0.000122224
0.000120945
0.000119647
0.000118386
0.000117187
0.000116072
0.000115068
0.000114199
0.000113489
0.000112957
0.000112627
0.000112514
0.000112632
0.00011301
0.00011364
0.000114627
0.000115636
0.000117774
0.00011726
0.000123028
0.47537
0.354873
0.292816
0.267557
0.259225
0.249462
0.230439
0.201288
0.162872
0.116255
0.0607897
0.050251
0.0494111
0.0194651
0.00455469
0.000100981
0.00126478
0.00189933
0.00181374
0.00167146
0.00160432
0.00153149
0.00148314
0.00144024
0.00140063
0.00136167
0.00131699
0.00127128
0.00122064
0.00117206
0.00111748
0.00106869
0.00101882
0.000971894
0.000929787
0.000890723
0.000855402
0.00082383
0.000796288
0.000770709
0.000746897
0.000724957
0.000703658
0.000682201
0.000660706
0.000639213
0.000617022
0.000594506
0.000571631
0.000548192
0.000524401
0.000500088
0.000475599
0.000450811
0.000425417
0.000399666
0.000374215
0.00034809
0.000322602
0.000296945
0.000272392
0.000247468
0.000225497
0.000204763
0.000185546
0.000170753
0.000158104
0.000149274
0.000145534
0.000138613
0.000142762
0.000130967
0.000143764
0.000127839
0.69245
0.510913
0.396143
0.341266
0.316204
0.298506
0.277301
0.248574
0.211416
0.166398
0.113883
0.0509392
0.0496199
0.039436
0.0103889
0.00146902
0.000349915
0.00169633
0.00188285
0.00171497
0.00162541
0.0015464
0.00149125
0.00144194
0.00139781
0.00135671
0.00131138
0.0012654
0.0012142
0.00116639
0.00111179
0.00106197
0.00101226
0.000963305
0.00092052
0.000880525
0.000843593
0.000810773
0.000782173
0.000755453
0.0007303
0.000707693
0.000685888
0.000663822
0.000642034
0.000620682
0.000598417
0.000576023
0.000553714
0.000530605
0.000507212
0.000483519
0.00045957
0.000435532
0.000410558
0.000385601
0.000361181
0.000335882
0.000311579
0.000287003
0.000263755
0.000240143
0.000219959
0.000200784
0.000182998
0.000169486
0.000158126
0.000149628
0.000145788
0.00013844
0.000142339
0.000129598
0.000142732
0.000125481
0.898745
0.682736
0.516133
0.427721
0.383498
0.356311
0.331228
0.301374
0.264306
0.219885
0.16873
0.111083
0.041767
0.0467771
0.0298056
0.00441259
0.000638842
1.8366e-05
0.00168047
0.00179716
0.00166866
0.00157645
0.00151126
0.00145277
0.00140057
0.00135256
0.00130617
0.00125804
0.00120513
0.0011553
0.00110193
0.00104985
0.00100041
0.000949678
0.000905553
0.000864451
0.000825861
0.000791735
0.00076195
0.000734118
0.000707863
0.000684712
0.000662547
0.000640229
0.00061845
0.000597418
0.000575489
0.00055357
0.000532026
0.000509592
0.000486939
0.000464152
0.000441083
0.000418061
0.000393906
0.000370255
0.00034707
0.00032316
0.000300307
0.000277441
0.000255739
0.000234429
0.000216187
0.000198904
0.000183156
0.000171105
0.000160645
0.000152432
0.000148158
0.00014071
0.000142952
0.000129871
0.000142352
0.000124122
1
0.914421
0.670119
0.538321
0.469728
0.428595
0.395383
0.360884
0.321385
0.275895
0.224647
0.168219
0.106536
0.0326129
0.0424571
0.0226964
0.00256824
8.69944e-05
0.000170355
0.00163245
0.0017148
0.00160801
0.00153131
0.00146524
0.00140539
0.00135092
0.00130123
0.00125044
0.00119614
0.00114411
0.00109077
0.00103689
0.000986779
0.000934768
0.000889128
0.000846653
0.000806488
0.000771003
0.000739936
0.00071101
0.0006838
0.000660159
0.000637689
0.000615303
0.000593735
0.000573038
0.000551682
0.000530452
0.000509682
0.000488082
0.000466349
0.000444554
0.000422509
0.000400573
0.000377513
0.000355319
0.000333381
0.000311067
0.000289716
0.000268723
0.000248658
0.000229711
0.000213253
0.000197637
0.000183821
0.000172835
0.000163172
0.000155097
0.000150429
0.000142812
0.000143773
0.000130365
0.000142087
0.000123
1
1
0.892064
0.687993
0.583412
0.521488
0.475037
0.431875
0.386909
0.33816
0.285154
0.22814
0.16742
0.102718
0.027145
0.0378068
0.0179762
0.00675471
5.89762e-05
0.000522757
0.00162804
0.00165486
0.00155064
0.00147517
0.00141012
0.00135078
0.00129661
0.00124285
0.00118737
0.00113364
0.00107934
0.00102407
0.000972656
0.000919515
0.000872353
0.000828235
0.000786513
0.000749666
0.000717199
0.000687121
0.000659104
0.000634978
0.000612252
0.000589886
0.000568645
0.000548393
0.000527707
0.000507274
0.000487364
0.000466712
0.000446009
0.000425289
0.00040436
0.0003836
0.000361812
0.000341059
0.000320472
0.000299792
0.000280021
0.000260859
0.000242497
0.000225644
0.000210776
0.000196557
0.000184373
0.000174044
0.000165255
0.000157179
0.000152208
0.000144301
0.000144603
0.00013084
0.000141861
0.000122075
1
1
1
0.912255
0.743747
0.647752
0.579749
0.521842
0.466748
0.411213
0.353791
0.29405
0.231962
0.167551
0.100422
0.0272769
0.0338565
0.0145337
0.00568469
0.000150095
0.000698371
0.00160922
0.00160738
0.00149553
0.00141691
0.00135286
0.00129423
0.00123713
0.0011798
0.00112451
0.00106884
0.0010122
0.000959175
0.000904744
0.00085592
0.000809964
0.000766574
0.000728273
0.000694304
0.000662994
0.000634219
0.000609598
0.000586633
0.000564354
0.000543483
0.000523796
0.000503842
0.000484257
0.00046532
0.000445716
0.000426125
0.000406587
0.000386868
0.0003674
0.000346995
0.000327732
0.000308646
0.00028965
0.000271567
0.000254198
0.000237596
0.00022255
0.000209138
0.000196193
0.000185249
0.00017549
0.00016728
0.000159202
0.00015393
0.000145771
0.000145523
0.000131624
0.000141809
0.000121577
1
1
1
1
0.995255
0.834323
0.727988
0.644277
0.570982
0.502603
0.436206
0.370267
0.304035
0.237115
0.169215
0.0998794
0.0310442
0.030999
0.0122369
0.0051094
0.000190831
0.000675104
0.00154725
0.0015557
0.00143927
0.00135878
0.00129508
0.00123439
0.00117444
0.00111718
0.00105995
0.00100175
0.000947012
0.000891095
0.000840353
0.000792399
0.00074726
0.000707297
0.000671671
0.000639066
0.00060951
0.000584354
0.000561136
0.000538994
0.000518522
0.000499457
0.000480309
0.000461625
0.000443732
0.000425257
0.000406854
0.000388592
0.000370179
0.000352111
0.000333186
0.000315523
0.000298053
0.000280808
0.00026448
0.000248892
0.000234029
0.000220584
0.000208509
0.000196737
0.000186712
0.000177507
0.000169535
0.000161464
0.000155863
0.000147551
0.000146613
0.000132817
0.00014197
0.000121446
1
1
1
1
1
1
0.961736
0.827541
0.719573
0.62665
0.542762
0.464342
0.389269
0.316213
0.244286
0.172791
0.101343
0.0359822
0.0291071
0.0110922
0.00497464
0.000176611
0.000491314
0.00144365
0.0015002
0.00138459
0.00130041
0.00123445
0.0011719
0.0011121
0.00105305
0.000993085
0.000936445
0.000878898
0.000826029
0.000775967
0.000728997
0.00068716
0.000649725
0.00061574
0.000585307
0.000559545
0.000536044
0.000514051
0.000494004
0.000475569
0.000457291
0.000439581
0.000422767
0.000405479
0.000388341
0.000371428
0.000354408
0.000337813
0.000320461
0.000304492
0.000288694
0.000273244
0.000258655
0.000244828
0.000231593
0.000219615
0.000208745
0.000197985
0.000188695
0.000179956
0.000172071
0.000164004
0.000158067
0.00014967
0.000147952
0.000134383
0.000142371
0.000121564
0.901548
1
1
1
1
1
1
1
0.959546
0.814753
0.694929
0.591199
0.498171
0.41241
0.331595
0.254095
0.178707
0.105048
0.0416905
0.0282146
0.0108838
0.00528078
0.000117159
0.000167714
0.00128884
0.00143272
0.00132977
0.00124017
0.00117198
0.00110978
0.00104861
0.000986766
0.000927979
0.000868576
0.000813354
0.000761039
0.000712108
0.000668179
0.000628779
0.000593348
0.000561939
0.000535446
0.000511624
0.000489777
0.000470151
0.000452338
0.000434962
0.000418282
0.000402582
0.000386527
0.000370726
0.000355231
0.000339667
0.000324594
0.000308897
0.000294664
0.000280551
0.000266893
0.000253972
0.00024184
0.000230074
0.000219447
0.000209641
0.000199719
0.000191052
0.000182665
0.000174856
0.0001668
0.000160546
0.000152098
0.0001496
0.000136333
0.000143086
0.000121942
0.629195
0.815983
1
1
1
1
1
1
1
1
0.945921
0.785007
0.653292
0.540899
0.441629
0.351359
0.267325
0.187488
0.111596
0.0487695
0.0282172
0.011586
0.00601816
0.000105325
0.000340987
0.0010117
0.00134576
0.0012712
0.00117839
0.00110927
0.0010466
0.000983214
0.00092222
0.000860845
0.000803152
0.00074841
0.000697272
0.00065096
0.000609345
0.000572248
0.000539691
0.000512309
0.000488113
0.000466404
0.000447188
0.000429994
0.000413534
0.000397911
0.000383357
0.000368578
0.000354171
0.000340145
0.000326096
0.000312575
0.000298605
0.000286078
0.000273678
0.000261723
0.000250415
0.000239804
0.00022938
0.000219942
0.000211068
0.00020184
0.000193675
0.000185559
0.000177837
0.000169813
0.000163261
0.000154773
0.000151541
0.000138632
0.000144158
0.00012262
0.430069
0.516409
0.851292
1
1
1
1
1
1
1
1
1
0.913304
0.737798
0.597387
0.479684
0.377184
0.285032
0.200058
0.121684
0.0579238
0.0296254
0.0132144
0.000420082
0.000265258
0.000262065
0.000768873
0.00122157
0.00121562
0.00112063
0.00104627
0.000981348
0.000918904
0.000855681
0.000795533
0.000738434
0.000685062
0.000636265
0.000592269
0.000553224
0.000519194
0.000490615
0.00046587