/*--------------------------------*- C++ -*----------------------------------*\
| =========                 |                                                 |
| \\      /  F ield         | OpenFOAM: The Open Source CFD Toolbox           |
|  \\    /   O peration     | Version:  2312                                  |
|   \\  /    A nd           | Website:  www.openfoam.com                      |
|    \\/     M anipulation  |                                                 |
\*---------------------------------------------------------------------------*/
FoamFile
{
    version     2.0;
    format      ascii;
    arch        "LSB;label=32;scalar=64";
    class       volVectorField;
    location    "400";
    object      U;
}
// * * * * * * * * * * * * * * * * * * * * * * * * * * * * * * * * * * * * * //

dimensions      [0 1 -1 0 0 0 0];

internalField   nonuniform List<vector> 
11040
(
(-0.418619 8.43045 -2.51855e-19)
(0.887156 6.00531 -1.69732e-18)
(0.222835 0.492987 -1.6909e-17)
(-1.24758 -1.18101 -1.01269e-17)
(-1.28614 -0.618127 -3.73671e-18)
(-1.30131 -0.571039 -1.42792e-17)
(-1.28236 -0.482859 2.55413e-17)
(-1.23928 -0.399891 1.85132e-17)
(-1.20562 -0.333792 3.66162e-18)
(-1.1774 -0.282841 1.01381e-18)
(-1.14717 -0.239779 -1.73302e-17)
(-1.11552 -0.201829 2.53625e-18)
(-1.08205 -0.169581 7.10629e-18)
(-1.0409 -0.140314 6.03391e-18)
(-0.991253 -0.113286 -5.88546e-18)
(-0.930468 -0.0892549 1.05654e-17)
(-0.854367 -0.0668738 5.25399e-18)
(-0.763683 -0.0476417 -1.48929e-17)
(-0.659963 -0.0320314 -5.09725e-19)
(-0.550697 -0.0181676 3.11117e-18)
(-0.443625 -0.00399656 -3.94175e-18)
(-0.359277 0.00880738 -1.543e-17)
(-0.318049 0.0210049 1.70211e-17)
(-0.327655 0.0341741 -1.65098e-17)
(-0.399377 0.0499856 1.51503e-17)
(-0.529599 0.0703725 2.37018e-17)
(-0.707826 0.0956525 8.76044e-18)
(-0.89878 0.123544 7.42477e-18)
(-1.08732 0.150395 7.23498e-18)
(-1.24941 0.174753 9.13133e-18)
(-1.36906 0.193189 -1.54163e-17)
(-1.41908 0.202501 -1.17038e-17)
(-1.38652 0.199608 -3.5521e-17)
(-1.277 0.184698 -2.0806e-17)
(-1.0966 0.155575 2.29688e-18)
(-0.83823 0.109885 -3.36898e-17)
(-0.480027 0.0461657 9.57436e-19)
(-0.00990851 -0.0347353 -2.55593e-17)
(0.374807 -0.10441 3.19283e-17)
(1.24339 -0.231612 2.19468e-17)
(1.02667 -0.671933 -5.29357e-18)
(1.55352 7.30127 1.47438e-19)
(3.17059 8.06793 -1.05909e-19)
(2.8805 5.36403 5.49237e-18)
(1.07491 1.65358 8.01299e-19)
(-0.79396 -0.560515 -3.97733e-19)
(-1.1291 -0.522409 5.05297e-18)
(-1.24058 -0.480115 -7.81258e-19)
(-1.252 -0.417375 -1.05792e-17)
(-1.25083 -0.357718 4.7334e-19)
(-1.24859 -0.308012 -3.44831e-18)
(-1.23804 -0.26599 5.23119e-18)
(-1.22069 -0.22541 -1.8546e-17)
(-1.19829 -0.189615 -1.45051e-18)
(-1.16502 -0.157411 -1.31308e-17)
(-1.12117 -0.126422 5.98011e-18)
(-1.06403 -0.0992411 -2.46847e-18)
(-0.990308 -0.0740759 -4.18884e-18)
(-0.900771 -0.0519083 -4.53637e-18)
(-0.796956 -0.0330348 -6.32744e-19)
(-0.687099 -0.0180415 4.09854e-19)
(-0.587402 -0.00516424 1.53294e-18)
(-0.520577 0.00731527 4.66611e-18)
(-0.508061 0.0212834 -7.36212e-18)
(-0.559253 0.0401981 -1.54553e-18)
(-0.679603 0.0652742 -1.71132e-18)
(-0.854955 0.0963111 3.22881e-18)
(-1.06169 0.128123 1.8321e-18)
(-1.26773 0.159711 -9.684e-18)
(-1.44657 0.186919 -7.58154e-19)
(-1.57646 0.208341 5.40148e-18)
(-1.649 0.22045 6.72342e-18)
(-1.66235 0.223519 1.39698e-17)
(-1.61834 0.21603 1.14915e-17)
(-1.50876 0.196952 5.58051e-18)
(-1.32712 0.162443 -2.56156e-18)
(-1.06888 0.110341 1.02737e-17)
(-0.717459 0.0366819 -8.051e-18)
(-0.267051 -0.0601963 6.18886e-18)
(0.157912 -0.165263 -2.44946e-18)
(1.02163 -0.329175 -3.20256e-18)
(1.24138 -0.592263 5.21439e-18)
(1.88647 6.65581 -1.73274e-20)
(3.35431 7.62699 7.91896e-19)
(4.18758 7.56969 -1.56904e-18)
(3.62316 5.46334 -2.45633e-18)
(1.79164 2.32979 2.24039e-19)
(-0.159611 0.0203823 -3.1283e-18)
(-0.880306 -0.366331 -7.54054e-18)
(-1.09238 -0.381568 -6.71926e-18)
(-1.15416 -0.340185 4.87137e-18)
(-1.19438 -0.303255 2.17905e-19)
(-1.21468 -0.271883 2.89125e-18)
(-1.21972 -0.236338 9.47051e-18)
(-1.21612 -0.203586 -7.2702e-18)
(-1.19785 -0.174371 7.93914e-18)
(-1.16668 -0.144623 -4.94422e-18)
(-1.12008 -0.118707 -2.24284e-18)
(-1.05502 -0.0939777 1.09526e-18)
(-0.972643 -0.0714023 1.61514e-18)
(-0.876184 -0.0505524 8.31415e-20)
(-0.77657 -0.0312745 -8.84764e-20)
(-0.690703 -0.0115335 -3.04265e-18)
(-0.642193 0.00976305 -2.66646e-18)
(-0.651448 0.034172 5.53435e-19)
(-0.727335 0.0647688 -3.54874e-19)
(-0.870111 0.101432 2.87064e-18)
(-1.05843 0.141367 -6.04308e-18)
(-1.26326 0.177526 -4.21864e-18)
(-1.45332 0.207808 5.89633e-18)
(-1.60918 0.228547 1.38584e-18)
(-1.72186 0.241901 -8.4682e-19)
(-1.78808 0.245695 -5.54346e-18)
(-1.80397 0.240981 2.37658e-18)
(-1.76385 0.224677 -5.31717e-18)
(-1.65845 0.195455 -7.00974e-18)
(-1.48362 0.150062 1.53906e-18)
(-1.23537 0.086887 3.94827e-18)
(-0.899797 0.00297634 5.98787e-18)
(-0.471654 -0.104885 -6.25406e-18)
(-0.0346054 -0.239274 -1.27433e-18)
(0.770049 -0.404758 -1.65292e-18)
(1.09546 -0.740264 -3.04834e-18)
(2.30304 6.23497 -7.00705e-20)
(3.15443 6.88527 -1.61643e-19)
(4.14647 7.54881 7.78635e-19)
(4.71893 7.33786 1.55995e-18)
(4.17118 5.60094 -2.11699e-19)
(2.48576 2.91023 -1.9293e-18)
(0.521672 0.617021 1.29324e-18)
(-0.57134 -0.183514 3.44027e-18)
(-0.898131 -0.262336 -2.72034e-18)
(-1.03385 -0.25652 3.01812e-18)
(-1.11005 -0.248171 -7.02858e-18)
(-1.15093 -0.226714 9.42616e-19)
(-1.17699 -0.202575 1.00316e-18)
(-1.18308 -0.180873 -6.28317e-18)
(-1.17294 -0.155653 -3.05794e-18)
(-1.14526 -0.133973 1.93901e-18)
(-1.09707 -0.112302 3.75532e-18)
(-1.02973 -0.0914563 1.80246e-18)
(-0.947071 -0.0703406 -1.15128e-19)
(-0.860924 -0.0476371 1.302e-19)
(-0.789776 -0.0209252 7.74141e-19)
(-0.757879 0.0109373 2.40851e-18)
(-0.784593 0.0484829 8.15147e-19)
(-0.876643 0.0934978 1.38409e-18)
(-1.02732 0.142681 2.00188e-18)
(-1.21019 0.189614 8.62614e-18)
(-1.39676 0.225982 -6.00548e-19)
(-1.56359 0.251049 -1.01874e-18)
(-1.70228 0.26441 -3.37156e-18)
(-1.80767 0.269978 -2.87133e-18)
(-1.87423 0.26569 4.01541e-18)
(-1.89466 0.251905 -3.49522e-18)
(-1.86171 0.225175 9.2016e-18)
(-1.76653 0.184198 2.41402e-18)
(-1.60488 0.12579 1.90223e-18)
(-1.37314 0.0485496 4.03059e-19)
(-1.05906 -0.0488392 -9.05313e-20)
(-0.657822 -0.170768 -4.92157e-19)
(-0.230871 -0.331987 1.36789e-18)
(0.482166 -0.492934 -1.98884e-18)
(0.843024 -0.836649 5.7414e-19)
(2.73774 5.76314 1.83523e-19)
(3.38885 6.30497 -2.4382e-19)
(4.04252 6.78938 -6.11888e-19)
(4.77153 7.29326 -1.14992e-18)
(5.18959 7.14743 1.16504e-18)
(4.71866 5.79563 -8.58284e-20)
(3.22022 3.50865 3.5059e-19)
(1.29345 1.28256 2.01589e-18)
(-0.134593 0.0776155 -8.73589e-19)
(-0.64881 -0.12811 -1.66984e-18)
(-0.884532 -0.175919 -2.3282e-18)
(-0.997595 -0.184417 -1.54497e-20)
(-1.07105 -0.178996 -7.73983e-20)
(-1.11563 -0.172269 4.02636e-18)
(-1.137 -0.156509 2.40587e-18)
(-1.13804 -0.142668 9.50879e-20)
(-1.1156 -0.126968 -1.61344e-18)
(-1.07122 -0.109987 1.83563e-18)
(-1.00852 -0.0900976 -2.86377e-19)
(-0.939428 -0.0646038 7.12193e-19)
(-0.883735 -0.0307789 -1.53212e-18)
(-0.866498 0.0125696 -1.69374e-19)
(-0.905936 0.0642412 2.08305e-18)
(-1.00431 0.123444 -2.1194e-18)
(-1.14862 0.182947 -4.4136e-18)
(-1.31234 0.233766 -2.10575e-18)
(-1.47357 0.268175 4.12518e-19)
(-1.62068 0.288376 -3.00957e-18)
(-1.7492 0.296289 8.63007e-20)
(-1.85211 0.295088 2.66707e-18)
(-1.92157 0.282647 -2.09183e-18)
(-1.94901 0.258788 4.53927e-19)
(-1.92694 0.220404 -6.31739e-18)
(-1.8469 0.166155 -2.98635e-18)
(-1.70398 0.0931547 -1.72453e-18)
(-1.49477 0.000257265 -1.64387e-18)
(-1.20872 -0.112699 9.15375e-19)
(-0.842858 -0.251179 -4.63955e-20)
(-0.443507 -0.432035 7.14775e-19)
(0.159888 -0.591678 2.68925e-18)
(0.524277 -0.901054 -1.66552e-18)
(3.13301 5.34941 -1.96426e-19)
(3.60571 5.85091 5.5641e-19)
(4.09395 6.2283 5.24014e-20)
(4.62516 6.61431 4.23551e-19)
(5.22024 7.0264 -3.22923e-19)
(5.59082 6.98941 1.55016e-19)
(5.25517 6.00619 3.95635e-19)
(3.9981 4.12768 1.12328e-20)
(2.16633 2.01714 -7.64606e-20)
(0.506253 0.507162 3.03914e-18)
(-0.327806 0.0179006 3.66457e-18)
(-0.680515 -0.080209 -1.77668e-18)
(-0.858092 -0.112751 -1.11649e-18)
(-0.970268 -0.134458 5.13318e-18)
(-1.03841 -0.137111 -4.32395e-18)
(-1.08134 -0.137249 1.85534e-18)
(-1.09579 -0.132625 1.76876e-19)
(-1.08436 -0.123378 5.04266e-19)
(-1.04977 -0.107688 6.15254e-19)
(-1.00302 -0.0810888 -3.38512e-19)
(-0.964568 -0.0405501 -7.54321e-19)
(-0.959365 0.0147536 5.79624e-19)
(-1.00415 0.0808197 -9.44204e-19)
(-1.09704 0.153133 -6.2108e-19)
(-1.22285 0.220835 4.2133e-18)
(-1.36071 0.273871 -2.57179e-18)
(-1.49916 0.307235 -5.66447e-19)
(-1.6326 0.324713 3.63356e-18)
(-1.75529 0.328472 2.77948e-18)
(-1.85854 0.320674 -1.34076e-18)
(-1.93337 0.299647 -1.09106e-18)
(-1.97094 0.264818 -3.58817e-19)
(-1.96374 0.213639 2.90793e-18)
(-1.90398 0.144659 3.02955e-18)
(-1.78591 0.0554775 8.64225e-19)
(-1.60623 -0.0544956 -1.16767e-18)
(-1.35642 -0.18459 -1.66058e-19)
(-1.0366 -0.340582 -8.31482e-19)
(-0.681875 -0.53354 -2.07133e-18)
(-0.191597 -0.695084 -1.04901e-19)
(0.148291 -0.946584 1.77865e-18)
(3.50312 5.01656 -4.02063e-20)
(3.83938 5.43718 1.81329e-19)
(4.20412 5.81342 -1.08989e-19)
(4.60204 6.09805 2.89613e-19)
(5.051 6.39495 1.71333e-19)
(5.55717 6.7406 -5.88615e-19)
(5.92183 6.81795 1.73763e-19)
(5.75247 6.18552 -1.56193e-19)
(4.77978 4.72436 -1.16888e-18)
(3.1317 2.81238 2.21587e-20)
(1.37188 1.13658 -4.18929e-18)
(0.140784 0.247448 5.75588e-18)
(-0.393391 0.0377003 -4.9446e-18)
(-0.682069 -0.0400118 -5.42651e-19)
(-0.838488 -0.0778646 2.33781e-18)
(-0.94575 -0.10363 -8.27642e-19)
(-1.01218 -0.118554 3.23677e-18)
(-1.04713 -0.12377 -1.33784e-18)
(-1.05177 -0.118251 3.23208e-19)
(-1.03479 -0.094688 -2.68733e-19)
(-1.01582 -0.0498844 3.07122e-19)
(-1.01923 0.0163099 -4.44996e-19)
(-1.06104 0.0955536 2.22565e-18)
(-1.1387 0.179162 -6.69973e-19)
(-1.24058 0.253878 -1.55155e-18)
(-1.35474 0.310109 6.71648e-19)
(-1.47609 0.345091 2.05328e-18)
(-1.60007 0.36205 -9.69608e-19)
(-1.71961 0.362861 2.42013e-20)
(-1.82539 0.348973 -7.29615e-19)
(-1.90818 0.319221 5.31641e-20)
(-1.9592 0.272946 -1.29625e-18)
(-1.97107 0.208158 -3.27864e-20)
(-1.93709 0.123373 5.99145e-19)
(-1.85079 0.01677 2.0234e-18)
(-1.70881 -0.111265 -1.57624e-18)
(-1.50495 -0.259301 -1.86247e-18)
(-1.24235 -0.431921 1.57269e-18)
(-0.947127 -0.630529 -6.04308e-19)
(-0.569355 -0.795011 1.8828e-20)
(-0.279032 -0.980258 7.90636e-20)
(3.83877 4.737 -9.19984e-21)
(4.09509 5.08778 -1.2124e-19)
(4.36252 5.41843 9.98225e-20)
(4.66698 5.70489 -2.18226e-20)
(5.00416 5.92341 -1.12595e-19)
(5.38307 6.14844 -2.19398e-19)
(5.8168 6.43877 8.05832e-19)
(6.18299 6.60721 1.50606e-19)
(6.18039 6.28411 4.11949e-19)
(5.51342 5.24246 -8.60213e-19)
(4.14785 3.63095 9.11536e-19)
(2.41885 1.93 1.28608e-18)
(0.886517 0.691128 -3.24777e-18)
(-0.00610898 0.183163 5.05052e-18)
(-0.426656 0.0525071 8.40856e-20)
(-0.672331 -0.0161524 -1.06605e-18)
(-0.824098 -0.0650172 -3.86354e-18)
(-0.92641 -0.0967264 -3.10033e-19)
(-0.9864 -0.111793 -1.23369e-18)
(-1.01133 -0.100149 4.95971e-18)
(-1.01653 -0.0579856 -3.45356e-18)
(-1.02596 0.015058 6.49509e-19)
(-1.05965 0.104852 1.21853e-18)
(-1.11904 0.198316 1.94502e-19)
(-1.19895 0.280691 3.96158e-19)
(-1.29422 0.343012 1.61672e-19)
(-1.40256 0.382598 8.19957e-19)
(-1.51943 0.401573 -4.61631e-19)
(-1.63746 0.4012 -1.83249e-18)
(-1.74755 0.382438 -5.18754e-19)
(-1.84069 0.344521 1.54754e-18)
(-1.90841 0.286996 7.56594e-19)
(-1.9435 0.20842 6.57836e-20)
(-1.94073 0.10752 -1.38334e-18)
(-1.89345 -0.0169234 -7.82114e-19)
(-1.79809 -0.16327 5.18071e-19)
(-1.6507 -0.329059 1.22593e-18)
(-1.45613 -0.515859 -6.95958e-19)
(-1.2333 -0.71545 4.99082e-19)
(-0.964246 -0.878373 -1.09158e-18)
(-0.739906 -1.00726 -1.74692e-19)
(4.14918 4.49927 -2.56881e-20)
(4.35177 4.79404 -1.85666e-19)
(4.55467 5.076 4.79827e-19)
(4.78129 5.33893 2.10039e-21)
(5.0418 5.56383 -8.53052e-21)
(5.32896 5.73362 -2.86689e-20)
(5.64868 5.89943 -3.01428e-19)
(6.01852 6.13191 -3.13997e-19)
(6.37787 6.34819 7.53131e-22)
(6.51418 6.27057 -6.40354e-19)
(6.14839 5.63076 -2.20417e-19)
(5.12824 4.38956 6.23413e-19)
(3.5772 2.81624 4.00279e-19)
(1.91028 1.37811 -1.67085e-18)
(0.624897 0.48442 5.75409e-18)
(-0.0650213 0.168141 -2.86187e-18)
(-0.435323 0.0580559 2.55126e-18)
(-0.662853 -0.0156549 -4.0228e-18)
(-0.810852 -0.0679124 -1.20478e-19)
(-0.901622 -0.0851135 1.41499e-18)
(-0.946455 -0.0599797 -2.06275e-18)
(-0.967884 0.010758 -2.9853e-19)
(-0.994074 0.106796 5.84715e-19)
(-1.03646 0.209487 -1.80421e-18)
(-1.09759 0.301453 -4.58477e-19)
(-1.17701 0.373033 -1.11844e-18)
(-1.27397 0.420682 -1.91295e-18)
(-1.38441 0.444768 6.96793e-19)
(-1.50145 0.445825 4.99276e-19)
(-1.61679 0.424242 1.57745e-18)
(-1.72198 0.379708 -6.26439e-19)
(-1.80906 0.312034 4.57351e-19)
(-1.87117 0.220514 -5.63426e-19)
(-1.90405 0.104312 1.3911e-18)
(-1.9023 -0.037032 -1.55657e-19)
(-1.86197 -0.20072 3.67699e-19)
(-1.78087 -0.382736 -1.85629e-18)
(-1.6638 -0.580421 1.21831e-18)
(-1.5239 -0.778514 -9.25867e-20)
(-1.35834 -0.935961 6.7627e-19)
(-1.20747 -1.02542 -7.1602e-19)
(4.43534 4.29504 -1.35219e-19)
(4.60041 4.54439 5.28136e-19)
(4.75992 4.78405 -1.79739e-19)
(4.93282 5.01191 -4.55395e-19)
(5.1301 5.22348 1.05117e-19)
(5.35375 5.40415 -1.10398e-19)
(5.59849 5.53977 6.90644e-20)
(5.86755 5.66032 1.18139e-18)
(6.17916 5.83346 -1.30848e-18)
(6.51466 6.05023 -1.49346e-19)
(6.74439 6.13839 6.60137e-20)
(6.63821 5.84114 4.8752e-20)
(5.98344 5.00137 6.88907e-19)
(4.74208 3.69938 -2.57383e-19)
(3.14068 2.25051 1.5086e-18)
(1.59717 1.05625 -1.83768e-18)
(0.506964 0.390009 8.18605e-19)
(-0.0836585 0.154512 -7.28854e-19)
(-0.431992 0.0464216 1.44238e-18)
(-0.646343 -0.0211786 1.14828e-18)
(-0.772561 -0.0380969 5.12182e-19)
(-0.832757 0.00975026 -1.54325e-18)
(-0.863025 0.101857 1.43017e-18)
(-0.892994 0.211886 7.65632e-19)
(-0.937527 0.315367 -1.98381e-18)
(-1.00164 0.399672 1.26398e-18)
(-1.08648 0.459259 1.35459e-18)
(-1.18908 0.492626 -1.49181e-18)
(-1.30377 0.498963 1.99271e-19)
(-1.42341 0.478253 -1.21089e-18)
(-1.54048 0.430148 6.29493e-19)
(-1.6478 0.354994 -8.26888e-19)
(-1.73905 0.252799 -2.85906e-19)
(-1.81024 0.123582 4.48252e-20)
(-1.85819 -0.0320077 -6.17461e-19)
(-1.87873 -0.210352 1.8438e-19)
(-1.87061 -0.405556 5.34042e-19)
(-1.83739 -0.610807 -7.37016e-19)
(-1.78705 -0.807105 -1.06586e-19)
(-1.71971 -0.959068 -9.41226e-19)
(-1.64594 -1.0296 6.85957e-19)
(4.69931 4.11717 -1.36547e-19)
(4.83741 4.32983 -4.42124e-19)
(4.96728 4.53326 8.97787e-21)
(5.10292 4.72897 4.70918e-20)
(5.25451 4.91526 1.4926e-19)
(5.42633 5.08752 -1.50718e-19)
(5.61852 5.23598 -8.35367e-20)
(5.82718 5.34812 -3.17081e-20)
(6.0534 5.43708 8.10532e-20)
(6.3119 5.55512 1.22119e-18)
(6.60766 5.73608 4.08678e-19)
(6.87973 5.90373 1.08217e-19)
(6.9655 5.86065 -8.39964e-19)
(6.65058 5.40297 1.86621e-18)
(5.79501 4.46599 -1.55459e-18)
(4.44559 3.193 9.43769e-19)
(2.86907 1.88893 -1.40298e-18)
(1.44572 0.878928 -3.94219e-18)
(0.472488 0.335392 2.79714e-19)
(-0.0763271 0.130905 5.51728e-18)
(-0.400794 0.0453894 -3.05682e-18)
(-0.570898 0.0388814 3.55368e-18)
(-0.648102 0.101717 -1.80481e-18)
(-0.685563 0.207008 2.81277e-19)
(-0.719536 0.320161 -1.76631e-19)
(-0.768274 0.420101 -1.26983e-18)
(-0.838424 0.49644 9.85556e-19)
(-0.929886 0.544379 -7.71715e-19)
(-1.0387 0.561581 6.04579e-19)
(-1.15919 0.547081 4.00971e-19)
(-1.285 0.500578 5.13374e-20)
(-1.41 0.422772 3.60704e-19)
(-1.52881 0.314638 2.18391e-19)
(-1.63774 0.177156 -9.42341e-19)
(-1.73482 0.0122387 -5.71055e-19)
(-1.81685 -0.175887 3.98599e-19)
(-1.88245 -0.379701 4.94646e-19)
(-1.93352 -0.589465 1.03508e-19)
(-1.97334 -0.785446 1.03904e-18)
(-1.99904 -0.937046 7.68233e-19)
(-2.00541 -1.00976 1.66593e-19)
(4.94257 3.96081 -1.54176e-19)
(5.06047 4.14357 7.08255e-20)
(5.16933 4.31712 4.50516e-19)
(5.27907 4.48409 -4.65267e-19)
(5.39844 4.64561 1.59163e-19)
(5.53179 4.79907 -3.64453e-20)
(5.6813 4.94103 6.36703e-20)
(5.84665 5.06506 -3.91268e-19)
(6.02491 5.16091 -1.20454e-18)
(6.21526 5.23001 1.59066e-18)
(6.42711 5.30496 -1.15101e-18)
(6.67568 5.43258 -3.10023e-19)
(6.94577 5.60649 -5.52444e-19)
(7.14395 5.71218 -3.2158e-19)
(7.09912 5.56385 7.32291e-19)
(6.63266 5.01515 -3.33639e-19)
(5.66359 4.05951 1.58042e-18)
(4.28447 2.85842 -1.49226e-18)
(2.75895 1.68004 -6.81024e-19)
(1.41742 0.783139 5.02314e-18)
(0.499913 0.296417 -3.20224e-18)
(0.000309655 0.139741 -1.85928e-19)
(-0.251514 0.139647 7.57183e-19)
(-0.368082 0.214126 2.55318e-18)
(-0.423712 0.321455 -2.08343e-18)
(-0.466998 0.432551 -4.3611e-19)
(-0.522759 0.528079 -4.67288e-19)
(-0.599461 0.596276 2.32311e-18)
(-0.697382 0.631709 -9.80799e-19)
(-0.813256 0.631126 -3.28463e-19)
(-0.942294 0.594031 1.04291e-18)
(-1.07955 0.521093 -8.85338e-19)
(-1.2205 0.41431 -4.54118e-19)
(-1.36195 0.275593 5.5497e-19)
(-1.50185 0.108301 4.31306e-19)
(-1.63855 -0.0821168 7.62359e-20)
(-1.77048 -0.287537 -2.35164e-19)
(-1.89788 -0.497778 -1.41962e-19)
(-2.01997 -0.694926 -5.21611e-19)
(-2.13088 -0.853602 4.67828e-19)
(-2.21902 -0.946442 -9.48915e-20)
(5.16632 3.82223 2.45182e-19)
(5.26864 3.98032 -5.79842e-19)
(5.36208 4.12917 5.56713e-19)
(5.45363 4.27169 1.9433e-19)
(5.55009 4.41042 -2.56929e-19)
(5.65573 4.54454 -3.4791e-20)
(5.77296 4.67189 1.24058e-19)
(5.90304 4.78992 2.09839e-19)
(6.04563 4.89458 1.52132e-19)
(6.1983 4.97819 6.96544e-20)
(6.35893 5.03628 -3.83407e-19)
(6.53282 5.08399 6.7574e-19)
(6.73497 5.1601 -6.75665e-20)
(6.97294 5.29383 7.27563e-19)
(7.21016 5.44821 -1.98855e-18)
(7.33849 5.49897 2.05285e-18)
(7.19773 5.28702 -6.04312e-19)
(6.64441 4.70923 -1.79141e-18)
(5.63355 3.78596 1.50827e-18)
(4.26893 2.66818 -1.78397e-18)
(2.79074 1.58344 1.35766e-18)
(1.53533 0.771216 -5.57439e-19)
(0.714722 0.350435 2.3557e-18)
(0.271185 0.255928 -9.60614e-19)
(0.0556891 0.327211 -4.55944e-18)
(-0.046742 0.444866 2.25164e-18)
(-0.111784 0.556913 8.84114e-19)
(-0.178651 0.645916 -2.00349e-19)
(-0.262775 0.704275 1.62863e-19)
(-0.367965 0.726382 -4.45989e-19)
(-0.492712 0.708944 -2.14865e-18)
(-0.633858 0.651882 2.23457e-18)
(-0.788053 0.556904 -1.33841e-19)
(-0.952752 0.427028 -6.48009e-19)
(-1.12577 0.266692 7.38178e-19)
(-1.30494 0.0826578 -1.01897e-19)
(-1.48846 -0.116709 -2.02651e-19)
(-1.67545 -0.322235 3.59562e-19)
(-1.86282 -0.519333 1.72084e-19)
(-2.04439 -0.688472 -3.5433e-19)
(-2.20879 -0.810004 -1.88102e-19)
(5.37167 3.69865 4.75536e-21)
(5.46157 3.83612 2.8433e-19)
(5.54325 3.96444 6.29509e-19)
(5.62157 4.08643 -7.28821e-19)
(5.7018 4.20521 -5.89187e-20)
(5.78752 4.32107 3.35602e-19)
(5.88108 4.4329 -1.34737e-19)
(5.9841 4.53909 -2.12869e-19)
(6.0974 4.63776 1.94662e-19)
(6.22061 4.72624 9.22495e-19)
(6.35168 4.7995 -2.68739e-19)
(6.48859 4.85196 7.31009e-19)
(6.63313 4.88663 2.58295e-20)
(6.79502 4.92599 -1.4334e-18)
(6.98847 5.00514 -5.99198e-19)
(7.2116 5.13653 1.3725e-18)
(7.41582 5.26893 -7.46959e-19)
(7.49259 5.28509 1.00566e-18)
(7.2992 5.05278 -1.45941e-18)
(6.71736 4.49464 9.94755e-20)
(5.71361 3.63657 -1.22867e-19)
(4.44199 2.6455 3.13151e-18)
(3.15108 1.71792 -1.19676e-19)
(2.03966 0.994547 -2.14172e-18)
(1.2475 0.57983 -4.41019e-19)
(0.777682 0.473882 -6.70475e-19)
(0.528788 0.551995 -2.14194e-18)
(0.394741 0.677632 2.45013e-18)
(0.300582 0.779348 -1.86861e-18)
(0.204616 0.835857 -7.78376e-20)
(0.0906518 0.845858 4.67344e-19)
(-0.0447834 0.813101 -3.23221e-19)
(-0.20072 0.741201 2.23295e-19)
(-0.375474 0.633034 -1.07859e-19)
(-0.566922 0.492324 1.15936e-18)
(-0.772321 0.325502 -1.06893e-18)
(-0.988947 0.140684 7.64755e-20)
(-1.21527 -0.0540449 5.67009e-20)
(-1.44744 -0.247059 7.81149e-20)
(-1.67939 -0.424554 -2.49104e-20)
(-1.9035 -0.572924 2.18399e-19)
(5.55957 3.58793 -4.31165e-19)
(5.63931 3.70789 2.12613e-19)
(5.71173 3.81893 -8.571e-19)
(5.78012 3.92364 5.00178e-19)
(5.84858 4.02531 -2.98939e-19)
(5.91997 4.12481 2.01575e-19)
(5.99641 4.2217 -8.23379e-20)
(6.07935 4.31514 3.35898e-21)
(6.16999 4.40395 -5.02425e-19)
(6.2688 4.48653 2.71896e-19)
(6.37538 4.5611 5.00012e-20)
(6.48856 4.62504 -2.44849e-18)
(6.60663 4.6738 1.52378e-18)
(6.72884 4.70454 9.3271e-20)
(6.85957 4.72535 1.51213e-18)
(7.01044 4.76048 -1.39907e-18)
(7.19304 4.83863 2.23704e-19)
(7.39923 4.96205 1.11901e-18)
(7.57726 5.07835 -1.2005e-18)
(7.62816 5.08556 4.55153e-19)
(7.42133 4.87068 1.46334e-19)
(6.88632 4.3998 -3.08514e-19)
(6.0593 3.72801 1.13667e-19)
(5.03722 2.94495 -3.20555e-19)
(3.95514 2.16207 2.14553e-18)
(2.95268 1.49103 -3.11748e-18)
(2.1492 1.03041 2.7515e-18)
(1.59305 0.823861 7.8615e-19)
(1.2428 0.81588 -1.07471e-18)
(1.0223 0.893325 -4.13065e-19)
(0.865103 0.966225 -2.31239e-19)
(0.724901 0.993819 1.54708e-18)
(0.575903 0.968919 -1.51507e-19)
(0.40704 0.896805 -1.95439e-18)
(0.215866 0.785914 4.07044e-19)
(0.00424248 0.645415 6.01637e-19)
(-0.224442 0.48419 -5.26449e-19)
(-0.468322 0.308567 5.51525e-19)
(-0.722426 0.126691 2.0004e-19)
(-0.981902 -0.0521649 9.34814e-20)
(-1.24484 -0.217629 -4.73175e-19)
(5.73063 3.48836 3.2016e-19)
(5.80186 3.59323 -4.08835e-19)
(5.86677 3.68955 8.96841e-19)
(5.9275 3.77963 -1.05423e-19)
(5.98725 3.86672 -9.93201e-20)
(6.04829 3.95189 5.22122e-20)
(6.11233 4.03515 3.09323e-19)
(6.1807 4.11607 1.85756e-20)
(6.25449 4.19411 1.20014e-19)
(6.33443 4.26821 -9.71179e-21)
(6.42076 4.33708 8.37017e-19)
(6.51337 4.39975 -1.15651e-18)
(6.61172 4.45488 2.17026e-18)
(6.71432 4.49956 -1.6614e-18)
(6.81957 4.53 -8.10873e-19)
(6.92813 4.546 -3.24739e-19)
(7.04606 4.55794 -5.60482e-19)
(7.18519 4.58855 5.78511e-19)
(7.35445 4.66079 7.00891e-20)
(7.54492 4.77468 4.29303e-19)
(7.70731 4.88259 -2.14741e-19)
(7.75415 4.90506 2.34729e-19)
(7.61325 4.78152 8.95587e-19)
(7.25135 4.48759 -1.12926e-18)
(6.67441 4.0355 5.76929e-19)
(5.92632 3.46767 6.33691e-19)
(5.08067 2.84778 8.2648e-20)
(4.22589 2.25161 -3.10759e-18)
(3.44978 1.75567 7.14788e-19)
(2.81584 1.41612 1.59937e-18)
(2.33706 1.23915 -1.13418e-18)
(1.98358 1.17795 2.36204e-18)
(1.71304 1.16636 -2.09552e-18)
(1.48698 1.15152 2.84647e-19)
(1.27702 1.10588 7.0812e-19)
(1.06534 1.0225 -6.71134e-19)
(0.843238 0.90567 3.58556e-19)
(0.605464 0.762442 -3.73176e-20)
(0.353425 0.601774 -6.5519e-19)
(0.0911154 0.432577 -2.97215e-20)
(-0.186189 0.263726 2.63455e-21)
(5.88519 3.39831 1.6035e-20)
(5.9491 3.49007 -2.6395e-19)
(6.00768 3.57374 -1.17126e-19)
(6.06228 3.65139 5.43338e-19)
(6.11537 3.7261 8.26764e-20)
(6.16877 3.79899 -6.84853e-21)
(6.22381 3.87024 1.28403e-19)
(6.28164 3.93974 -5.96062e-20)
(6.34317 4.00716 -5.59711e-20)
(6.40914 4.07202 4.69259e-19)
(6.47995 4.13344 -7.64871e-20)
(6.55585 4.19064 -8.7985e-20)
(6.63695 4.24294 8.69111e-19)
(6.72285 4.28952 -2.99899e-19)
(6.81259 4.32898 -4.80736e-19)
(6.90467 4.3587 -4.26943e-19)
(6.99796 4.37594 -3.09978e-19)
(7.09406 4.38201 2.3303e-18)
(7.19948 4.38706 -2.45685e-18)
(7.3254 4.41119 -2.60936e-21)
(7.48092 4.47397 1.48373e-18)
(7.65052 4.57187 -1.31832e-18)
(7.79686 4.67465 1.27997e-18)
(7.87723 4.7406 -5.59632e-19)
(7.84917 4.72861 -6.459e-19)
(7.68193 4.61025 1.76308e-18)
(7.36361 4.3755 -6.84103e-19)
(6.90404 4.03352 9.56382e-19)
(6.33356 3.61089 -2.66841e-18)
(5.69726 3.14824 3.30603e-19)
(5.04712 2.69356 1.21686e-18)
(4.43236 2.29182 -1.50273e-19)
(3.88772 1.97241 -2.73733e-19)
(3.42303 1.7395 1.04046e-19)
(3.03014 1.5765 -3.47324e-20)
(2.69284 1.45701 2.42461e-19)
(2.39398 1.35519 -6.1968e-19)
(2.11499 1.25098 5.01053e-19)
(1.84553 1.13434 -2.64406e-19)
(1.57973 1.00222 2.50477e-19)
(1.30278 0.857201 2.46797e-20)
(6.0179 3.32034 1.50113e-20)
(6.07562 3.40105 -5.17953e-19)
(6.12892 3.47413 5.7704e-19)
(6.1786 3.54153 -5.74531e-19)
(6.22661 3.6061 -1.74506e-19)
(6.27442 3.66891 -3.19673e-19)
(6.32307 3.73023 3.70995e-19)
(6.37348 3.7901 -9.38147e-20)
(6.42645 3.84838 -1.3462e-19)
(6.48261 3.90474 7.62278e-19)
(6.54238 3.95867 -1.16972e-18)
(6.6061 4.00965 2.98449e-19)
(6.67403 4.0571 3.31652e-19)
(6.74618 4.10039 -6.00558e-19)
(6.82231 4.13903 1.48949e-18)
(6.90187 4.17244 -1.76605e-19)
(6.98381 4.19937 -4.50452e-18)
(7.06676 4.2176 3.90413e-18)
(7.15005 4.22517 -1.45629e-18)
(7.23558 4.22377 -1.06827e-18)
(7.33041 4.22305 1.38848e-18)
(7.44126 4.2392 1.43415e-18)
(7.57033 4.28413 -2.12225e-18)
(7.71406 4.35976 1.98374e-18)
(7.8576 4.45485 -5.382e-19)
(7.97775 4.54765 4.9921e-19)
(8.04742 4.61137 -9.21724e-19)
(8.04168 4.62079 9.62954e-19)
(7.9424 4.55712 3.71895e-19)
(7.74187 4.41165 -1.88962e-18)
(7.44434 4.18746 2.24273e-19)
(7.0647 3.89876 -1.22414e-19)
(6.62627 3.56855 1.18079e-18)
(6.15447 3.22257 4.68525e-20)
(5.67564 2.88608 -5.06099e-20)
(5.21247 2.57858 -1.11823e-19)
(4.78017 2.30977 -3.52006e-20)
(4.37904 2.07749 -9.23821e-20)
(4.0087 1.87648 -3.74134e-19)
(3.66697 1.69819 3.76858e-20)
(3.33519 1.53406 6.16689e-20)
(6.12693 3.25543 2.03972e-19)
(6.17961 3.32697 4.25294e-19)
(6.2286 3.39129 -2.59396e-19)
(6.27436 3.4503 -6.01544e-19)
(6.31847 3.50658 -9.98909e-20)
(6.36212 3.56113 -1.99699e-19)
(6.40615 3.61424 2.75356e-19)
(6.45134 3.66605 6.24996e-20)
(6.49835 3.71656 3.12726e-19)
(6.54773 3.76554 -5.29099e-19)
(6.59988 3.81268 -8.76442e-19)
(6.65512 3.85766 1.03353e-18)
(6.71375 3.90005 1.01423e-18)
(6.77588 3.93932 -1.55292e-18)
(6.84151 3.97498 1.86995e-18)
(6.9105 4.00663 1.33733e-18)
(6.98256 4.03403 -9.95857e-19)
(7.05712 4.05675 -1.70669e-18)
(7.13317 4.07369 -2.29944e-19)
(7.20947 4.08298 1.41771e-18)
(7.28548 4.08305 -2.82918e-18)
(7.36095 4.07666 2.24026e-18)
(7.43917 4.07077 2.81404e-19)
(7.52744 4.075 6.07447e-19)
(7.63124 4.09841 -1.03163e-18)
(7.75208 4.14599 5.16287e-19)
(7.88574 4.21616 -4.5163e-19)
(8.02207 4.30035 -3.20862e-19)
(8.14631 4.38447 6.42955e-19)
(8.24158 4.45155 -4.11596e-19)
(8.2917 4.48468 -2.147e-19)
(8.28402 4.47066 8.83788e-19)
(8.21137 4.40223 -1.14361e-18)
(8.07167 4.27796 6.46679e-19)
(7.86904 4.10298 7.21921e-20)
(7.6125 3.88781 -7.94496e-19)
(7.31585 3.64615 5.81381e-19)
(6.98867 3.38874 1.36102e-19)
(6.64416 3.12807 -2.60049e-19)
(6.29647 2.87338 -7.71139e-20)
(5.94109 2.62886 -6.4049e-20)
(6.21754 3.20055 -1.22066e-19)
(6.26599 3.2643 5.66459e-20)
(6.31133 3.32123 -1.13338e-19)
(6.35381 3.37319 -2.36502e-19)
(6.39474 3.42254 2.59824e-19)
(6.43509 3.47019 -1.37553e-19)
(6.47557 3.51644 -8.5662e-21)
(6.51683 3.56146 -7.74749e-20)
(6.55943 3.60531 -1.35802e-20)
(6.60384 3.64784 7.63385e-20)
(6.65041 3.68884 -3.17192e-19)
(6.69946 3.7281 5.3042e-19)
(6.75127 3.76536 -1.2892e-18)
(6.80601 3.80022 7.7752e-19)
(6.86376 3.83228 5.06631e-19)
(6.92451 3.8611 3.62361e-19)
(6.98816 3.88639 1.58812e-19)
(7.0546 3.90794 -2.71305e-19)
(7.12357 3.92564 -8.29277e-19)
(7.1946 3.93921 1.65299e-18)
(7.2667 3.94757 8.55442e-20)
(7.33654 3.94981 -1.84515e-18)
(7.40222 3.9457 8.35417e-19)
(7.46588 3.9368 9.54171e-19)
(7.53098 3.92664 -1.94338e-18)
(7.6022 3.92036 1.76918e-18)
(7.68436 3.92357 -1.51668e-18)
(7.78098 3.94087 5.55098e-20)
(7.89303 3.97445 4.6667e-19)
(8.01817 4.02311 1.27243e-18)
(8.15066 4.08199 -1.69183e-18)
(8.28198 4.14322 4.80261e-19)
(8.40222 4.19733 9.3101e-19)
(8.50145 4.23485 -7.3455e-19)
(8.57084 4.2473 -8.97504e-20)
(8.60331 4.22854 -2.90511e-20)
(8.59599 4.1763 1.61164e-19)
(8.54658 4.0899 -1.11525e-19)
(8.45613 3.97193 8.21174e-20)
(8.33017 3.82736 -1.42021e-19)
(8.1655 3.66005 -1.13997e-20)
(6.29379 3.15332 2.38382e-20)
(6.33853 3.21032 5.20627e-19)
(6.38067 3.26089 6.55143e-20)
(6.4203 3.30683 -3.30521e-19)
(6.45849 3.35026 6.00902e-20)
(6.49608 3.39203 5.20308e-20)
(6.53367 3.43241 -2.58498e-20)
(6.57179 3.47161 -6.37829e-21)
(6.61092 3.50969 1.79533e-19)
(6.65148 3.54659 3.75548e-20)
(6.69376 3.5821 1.01551e-19)
(6.73804 3.61614 4.18367e-19)
(6.7846 3.64847 -2.5273e-19)
(6.83361 3.67883 -5.78647e-19)
(6.8852 3.70687 5.01003e-20)
(6.93942 3.73229 -1.95998e-19)
(6.99627 3.75474 5.06338e-19)
(7.05571 3.77396 -4.92089e-19)
(7.1177 3.78974 -3.58489e-19)
(7.1822 3.80202 -1.00478e-18)
(7.24904 3.81064 1.27802e-18)
(7.31569 3.81564 6.33764e-19)
(7.37977 3.81669 -6.8948e-19)
(7.44117 3.81354 -6.84027e-19)
(7.49985 3.806 -4.11665e-19)
(7.55658 3.79442 1.38789e-18)
(7.61312 3.77995 8.76712e-19)
(7.67206 3.76463 8.11259e-19)
(7.73652 3.75111 -1.69323e-18)
(7.8095 3.74223 5.67907e-19)
(7.89333 3.74035 -6.99409e-19)
(7.98898 3.74684 3.92878e-19)
(8.09573 3.76148 -6.34399e-19)
(8.21142 3.78275 1.00777e-18)
(8.33229 3.80744 -5.11972e-19)
(8.45308 3.83124 2.35207e-19)
(8.5683 3.84944 -4.81925e-19)
(8.67339 3.85826 4.08726e-19)
(8.76338 3.85357 -3.13688e-19)
(8.83499 3.833 -9.32145e-21)
(8.88259 3.79453 5.74324e-20)
(6.35864 3.11212 -1.13391e-19)
(6.40006 3.16318 -5.99134e-20)
(6.43933 3.20819 -6.1482e-19)
(6.47638 3.24888 8.73486e-19)
(6.51216 3.28718 -7.45547e-20)
(6.54733 3.32383 -5.36576e-20)
(6.58244 3.35912 -4.27131e-21)
(6.61791 3.39324 -1.36937e-19)
(6.65419 3.42626 8.0677e-19)
(6.69159 3.45818 -1.28898e-18)
(6.7304 3.4888 7.4089e-19)
(6.77084 3.51808 2.71648e-19)
(6.81317 3.54583 -2.85873e-19)
(6.85754 3.57185 -1.35673e-18)
(6.9041 3.59585 3.40745e-19)
(6.95292 3.61759 -8.47458e-19)
(7.00407 3.63675 2.72662e-18)
(7.05754 3.65311 -7.4193e-19)
(7.11334 3.66635 -1.56101e-19)
(7.17149 3.67633 5.69569e-19)
(7.23198 3.68273 -2.75241e-18)
(7.29294 3.68583 1.67442e-18)
(7.35266 3.68577 1.03019e-18)
(7.41123 3.68286 -9.63872e-19)
(7.46835 3.67708 -2.58464e-19)
(7.5237 3.66827 8.96122e-19)
(7.57714 3.65614 -1.47856e-18)
(7.62877 3.64049 1.06573e-18)
(7.67911 3.62135 9.52322e-19)
(7.72912 3.59915 -6.7824e-19)
(7.78013 3.57468 -1.23062e-18)
(7.8337 3.54907 1.02484e-19)
(7.89138 3.52358 6.414e-19)
(7.95464 3.49945 3.09638e-19)
(8.0244 3.47764 -7.89416e-19)
(8.10084 3.45865 8.44697e-19)
(8.18312 3.44223 -5.42946e-19)
(8.27077 3.42812 2.48012e-19)
(8.36175 3.41485 7.91937e-20)
(8.45444 3.40127 -2.18927e-19)
(8.54396 3.38544 -2.92308e-20)
(6.4142 3.07579 -2.98432e-19)
(6.45262 3.12157 3.47402e-19)
(6.48925 3.16168 3.22887e-19)
(6.52394 3.19776 2.62099e-19)
(6.55749 3.23154 -3.41129e-19)
(6.59048 3.2637 2.2006e-19)
(6.62336 3.29451 1.28082e-19)
(6.65652 3.32415 -6.3461e-19)
(6.69031 3.35273 1.1455e-18)
(6.72502 3.38021 -6.37434e-19)
(6.76088 3.40647 -1.21178e-18)
(6.79808 3.43144 2.72906e-19)
(6.83685 3.45499 1.63597e-18)
(6.87732 3.47694 9.26064e-19)
(6.91962 3.49705 -1.64295e-18)
(6.96383 3.51511 1.27524e-18)
(7.01003 3.53087 -1.01198e-18)
(7.05825 3.54407 -2.58779e-19)
(7.10852 3.55445 2.92482e-19)