/*--------------------------------*- C++ -*----------------------------------*\
| =========                 |                                                 |
| \\      /  F ield         | OpenFOAM: The Open Source CFD Toolbox           |
|  \\    /   O peration     | Version:  2312                                  |
|   \\  /    A nd           | Website:  www.openfoam.com                      |
|    \\/     M anipulation  |                                                 |
\*---------------------------------------------------------------------------*/
FoamFile
{
    version     2.0;
    format      ascii;
    arch        "LSB;label=32;scalar=64";
    class       volScalarField;
    location    "450";
    object      div(phi);
}
// * * * * * * * * * * * * * * * * * * * * * * * * * * * * * * * * * * * * * //

dimensions      [0 0 -1 0 0 0 0];

internalField   nonuniform List<scalar> 
11040
(
0.00105339
0.00464105
-0.0211797
-0.0303308
0.00129273
0.0115835
-0.00916309
-0.017302
0.00606293
-0.00713696
0.00247455
0.030192
-0.0655286
-0.00535607
4.27588e-05
0.0243301
-0.031322
0.0225884
-0.0106621
0.0299738
-0.0279647
-0.0283799
-0.0245491
-0.0106096
0.0246289
0.00504302
0.0279018
0.00482182
0.0226282
0.00298778
0.0173784
-0.00397826
0.0185395
-0.00784084
0.0409009
-0.0199004
0.0302735
0.0239533
0.0627939
-0.0593451
-0.0121566
0.00280222
-0.00158677
-0.0069316
-0.0121451
-0.0110962
-0.015659
-0.0283667
-0.0268172
-0.0217354
-0.0232096
-0.0234483
-0.0268706
-0.0450855
-0.0188761
-0.0300445
-0.0145804
-0.0347429
-0.00289736
-0.0292911
0.00472335
-0.0261649
-0.0320302
-0.0358162
-0.0312235
-0.011747
-0.0193566
-0.00615514
-0.0192
-0.0103825
-0.0241773
-0.0193413
-0.035136
-0.027417
-0.0425068
-0.024775
-0.04127
-0.00228039
-0.0147154
-0.00352189
-0.0501299
-0.0151756
0.000833036
0.00359613
-0.00165208
-0.00278158
5.52291e-05
-0.000529592
-0.0057367
-0.00544945
0.00405139
0.000663806
0.00620859
0.0120446
-0.016373
-0.00463592
0.006216
0.0143869
-0.00164138
0.00908172
0.0037755
0.0139897
-0.00350782
-0.00182056
0.0010085
0.00668655
0.0149035
0.0112534
0.0150909
0.0112068
0.0132154
0.0111036
0.0120423
0.0108621
0.0133569
0.0111265
0.0221469
0.00595547
0.00698543
0.0127704
0.0223193
0.00115497
0.0227648
0.00215496
0.000785658
-0.000890968
-0.00044785
-0.000754763
-0.00253291
-0.0063996
-0.00780593
-0.00880635
-0.0110998
-0.00920248
-0.0151012
-0.0212481
-0.0169652
-0.014565
-0.0135779
-0.0153988
-0.01047
-0.0122975
-0.00524574
-0.0127049
-0.0168531
-0.0168618
-0.014674
-0.0074834
-0.00949445
-0.00559209
-0.00938865
-0.00721954
-0.0116576
-0.0107327
-0.0156752
-0.0135851
-0.0167819
-0.0112749
-0.0143248
-0.00350964
-0.00196772
0.00405201
0.00345684
0.0194352
0.00205419
0.00135147
-0.000354264
-0.00146737
-0.00110698
-0.00105817
-0.00141672
-0.00239002
-0.00280573
-0.00189414
0.000933393
0.00174453
-0.00675119
-0.00585636
-0.000842244
0.00240126
-0.00100599
0.000422559
0.00307115
0.00433256
0.000170402
0.000565
0.00239838
0.00488683
0.00665079
0.00702295
0.00631743
0.00641994
0.00523842
0.00575074
0.00430544
0.00544995
0.00406743
0.0065402
0.0069241
0.0056156
0.000802146
0.00868063
0.0088612
0.00955197
0.0165699
-0.00100626
0.000834686
-0.000547457
0.000209783
0.00037928
-9.37427e-05
-0.000258182
-0.000399354
-0.000710998
-0.000224635
0.000889891
-0.00389893
-0.00968092
-0.00906646
-0.00794917
-0.00808303
-0.00989752
-0.00782802
-0.00761694
-0.00605298
-0.0089664
-0.00879003
-0.00908328
-0.00635566
-0.00474652
-0.0043138
-0.00406805
-0.00424232
-0.00463735
-0.00469661
-0.00564307
-0.00529475
-0.00595876
-0.00370716
-0.00350555
-0.00173182
0.000315773
0.0052145
0.00768369
0.0120113
0.0161222
0.00204471
0.000593871
0.00143365
0.000861436
-0.000317211
-0.000332963
-0.00084688
-0.00096391
-0.000932872
-0.000507053
-0.000807503
-0.00327539
-0.004945
-0.00558628
-0.00281415
-0.00273193
-0.00236457
-0.00288002
-0.000632229
-0.000987904
-0.00121474
-0.00138456
-3.05842e-05
0.000912036
0.00198214
0.00145067
0.00152826
0.000747718
0.000759924
-3.25368e-05
0.000251289
-0.00053886
0.000635302
0.000497816
0.00266783
0.00136225
0.00264718
0.0046634
0.00785743
0.00905109
0.0125611
-0.000971688
0.00120796
0.00121261
-0.000498515
1.82503e-07
-0.00101661
-0.000606777
-0.000509806
7.65711e-05
0.000310734
0.000476441
0.000591143
-0.0018318
-0.0018214
-0.00185088
-0.00262824
-0.00348006
-0.00331261
-0.00280588
-0.00401333
-0.00444432
-0.00479044
-0.00326688
-0.00283275
-0.00174188
-0.00218722
-0.000866257
-0.00197551
-0.00093957
-0.00204076
-0.00107897
-0.00167831
-0.000543697
-7.59053e-05
0.000830505
0.000933342
0.00243812
0.00418537
0.00556023
0.00695169
0.00707033
0.000617959
0.00123509
-0.000448
0.000580202
-0.000905881
-1.00877e-05
-0.000165009
0.0005638
0.000432173
0.000767785
0.00119784
-0.000293357
-0.000384527
-0.00143168
-0.00208982
-0.00230835
-0.00246876
-0.00164621
-0.00190207
-0.00136604
-0.00235887
-0.00183466
-0.00206027
-0.000973236
-0.00142189
-0.000189842
-0.00156917
-0.000394617
-0.0019771
-0.000707243
-0.00204088
-0.000596071
-0.00122765
0.000568904
0.000427977
0.0017988
0.00220385
0.00407394
0.00499026
0.00586615
0.00630738
0.000337328
-0.000246668
0.000402391
-0.000777199
6.92574e-05
-0.000193013
0.00049761
0.000236065
0.00049977
0.000847038
-0.000164332
0.000311423
-0.000586048
-0.000327917
-0.000220476
0.00016912
0.000254542
0.00135227
0.000184691
-0.000674043
-0.00148053
-0.00150001
-0.000961437
-0.000726328
-0.000335767
-0.00172885
0.00187168
-0.00159177
0.0017099
-0.00174229
0.00152204
-0.00140214
0.00198098
-0.000405252
0.00256233
0.000495611
0.00333792
0.00229668
0.00441353
0.00381082
0.00467239
6.4844e-05
-0.000137259
-0.000454782
-0.000347626
-0.000424092
-0.000123936
-0.000194875
-0.000122684
0.000102749
-0.00042013
0.000361691
-0.000338492
0.000222677
0.000230383
0.000784456
0.000654303
0.00166434
0.000390375
0.000655156
-0.000948811
-0.001019
-0.00120122
-0.00070634
-0.000807678
-0.00203014
0.00114314
-0.00165598
0.00285248
-0.00131431
0.00296854
-0.00128978
0.00320284
-0.00117096
0.00353868
-0.000968519
0.00346173
-0.000405271
0.0033955
0.000546078
0.00281166
0.00109426
-0.000213453
-0.00021305
-0.000397504
-0.000446371
-0.000542887
-0.000522839
-0.000574475
-0.000483931
-0.000679105
-0.000187815
-0.000411092
0.000129122
0.000210299
0.000619518
0.000565615
0.00102995
0.000310645
0.00100036
0.00017925
0.000446057
-5.30614e-05
0.000414833
-6.05002e-05
-0.000328786
-0.00130407
-0.000925235
0.000499869
0.000120177
0.00122612
0.000296123
0.00159229
-1.90588e-05
0.00205723
-0.000303606
0.00221813
-0.000531466
0.00208576
-0.000271848
0.00159362
0.000252042
0.000757338
-0.000152799
-0.000153206
-0.000253391
-0.000294773
-0.000378701
-0.000410933
-0.000469132
-0.000529206
-0.000572462
-0.000463576
-0.000333643
-5.10022e-05
0.000104044
0.000243664
0.000441182
0.000164815
0.000887405
0.000364891
0.000866556
0.000513857
0.0010607
0.000604264
0.00156136
-0.00183588
0.000837605
-0.00336044
0.00177073
-0.0029769
0.00258867
-0.00260343
0.00254858
-0.00210721
0.00245232
-0.0015027
0.00218508
-0.000881268
0.0018651
-0.000240713
0.00167748
0.000350569
0.00152622
-7.7041e-05
-4.73134e-05
-0.00011834
-0.000119113
-0.000167007
-0.000210595
-0.000237207
-0.000298393
-0.000317016
-0.000413669
-0.000318979
-0.000249781
-0.000214969
-2.54782e-05
-0.000109358
0.000433014
0.00016288
0.000686149
0.000471046
0.000796923
0.000438383
0.00106174
-0.000355802
0.00105246
-0.00272547
0.0011837
-0.00409509
0.00234916
-0.00473335
0.00318943
-0.00482458
0.00391274
-0.00440778
0.00422887
-0.0034557
0.0039538
-0.00199933
0.00323543
-0.000182802
0.00210306
0.0017884
-6.96483e-06
-5.82577e-06
-1.7534e-05
-4.39921e-05
-2.90289e-05
-9.78701e-05
-4.74292e-05
-0.000165847
-9.8319e-05
-0.000225318
-0.000133365
-0.00023791
-0.000121869
-0.000148899
-0.000112343
-2.92296e-05
0.000144326
0.000263624
0.000322658
0.000260884
0.000342074
0.000203723
0.000315723
-0.000485607
-5.64745e-05
-0.00108854
-2.66025e-05
-0.00149137
0.00033961
-0.00161215
0.000773254
-0.00149167
0.00146083
-0.00112371
0.00186204
-0.000415239
0.00219169
0.000630063
0.00196298
0.0016129
0.00143031
2.99229e-05
1.11685e-05
5.23073e-05
-1.12545e-05
7.32322e-05
-4.19552e-05
9.19445e-05
-6.09949e-05
9.65639e-05
-9.25735e-05
8.02586e-05
-0.00010073
6.51836e-05
-9.50355e-05
4.69479e-05
-6.48559e-05
5.28119e-05
3.0733e-05
0.000100693
6.96285e-05
0.000141058
2.86277e-05
0.000182426
-0.000124465
0.000160054
-0.000352923
0.000283742
-0.000483929
0.000569425
-0.000706054
0.00096253
-0.000722567
0.00134292
-0.000605435
0.0015673
-0.000134519
0.00168222
0.000606308
0.00161834
0.00136869
0.00128223
7.49238e-05
1.69556e-05
0.000117578
1.0497e-05
0.000165483
-8.2201e-06
0.000211848
-1.4469e-05
0.000245557
-2.46092e-05
0.000245913
-2.98845e-05
0.000236181
-2.35794e-05
0.00021578
-7.62917e-06
0.000190114
4.22362e-05
0.000181779
7.80258e-05
0.000210575
0.000106541
0.000271459
8.99899e-05
0.000334507
1.02669e-05
0.000431157
-0.000109429
0.000577559
-0.00027983
0.000756528
-0.000482647
0.000932369
-0.000656531
0.00101022
-0.000570469
0.000977156
-0.000132694
0.000828972
0.000472338
0.000516987
8.1255e-05
2.01182e-05
0.000131861
1.39604e-05
0.00018089
1.18113e-06
0.000233332
-1.12628e-06
0.000280511
-1.63123e-06
0.000301821
4.52371e-06
0.000312694
1.42428e-05
0.000318002
2.50224e-05
0.000315631
4.60489e-05
0.000319287
4.68268e-05
0.000358716
3.6181e-05
0.000440681
-6.71594e-06
0.000501768
-9.90017e-05
0.000531855
-0.000230308
0.000526338
-0.000392033
0.000482969
-0.000560223
0.000393039
-0.000683981
0.000257632
-0.000661903
0.000104605
-0.000467823
-0.000106901
-0.000163659
-0.000428273
0.000111086
7.0522e-06
0.00014228
2.67426e-05
0.000192875
3.13347e-05
0.000248678
3.41444e-05
0.000305342
4.2e-05
0.000340779
4.40902e-05
0.000363754
5.22698e-05
0.000381325
6.1276e-05
0.000398511
7.81424e-05
0.000424637
6.58838e-05
0.000495135
5.13073e-05
0.000619948
1.0916e-05
0.000726111
-5.55713e-05
0.000791794
-0.000150305
0.00080509
-0.000259218
0.000757826
-0.000362026
0.000648489
-0.000433338
0.000470973
-0.000393515
0.000214045
-0.000190181
-0.000137713
0.000183831
-0.000469837
-3.87754e-05
0.000118855
-4.11173e-06
0.000139702
7.1828e-05
0.000129059
0.00013877
0.000130013
0.000203717
0.000124585
0.000250553
0.000127078
0.000282777
0.000126587
0.000310796
0.000152547
0.000335909
0.000183582
0.000361959
0.000220009
0.000437228
0.000233261
0.00057242
0.000261935
0.000693948
0.000277329
0.000796428
0.00028919
0.000877393
0.000277398
0.000940747
0.000236703
0.000970363
0.000184034
0.000942041
0.000162969
0.000834453
0.000211822
0.000607949
0.000387332
0.000250072
0.000142381
-0.000163944
0.000231634
-0.000160819
0.000331331
-0.000180347
0.000434018
-0.000210597
0.000520703
-0.000243435
0.000614784
-0.000267669
0.000653984
-0.000278876
0.000716596
-0.000280545
0.000747884
-0.000261999
0.000804844
-0.000227484
0.000836379
-0.000177721
0.000947783
-0.000121013
0.00100272
-6.57637e-05
0.00105264
-3.1913e-05
0.00107306
-1.07966e-05
0.00105433
-2.4015e-06
0.00104136
-1.17867e-05
0.000970152
-1.64701e-05
0.000809209
2.00457e-05
0.000566853
0.000174694
0.000243348
-1.09392e-05
1.04618e-05
-4.37129e-05
9.12119e-05
-5.38567e-06
0.000142841
6.88605e-06
0.000196161
4.60744e-06
0.000246573
2.09677e-06
0.000293015
-5.09615e-06
0.000321807
-4.5947e-06
0.000355778
4.55512e-06
0.000382287
3.3943e-05
0.000426886
5.26995e-05
0.000498841
6.5013e-05
0.000587657
6.68832e-05
0.000646167
5.53823e-05
0.000721107
5.39136e-05
0.000728736
0.000102967
0.000836169
0.000156739
0.000853999
0.00025423
0.000777497
0.000400091
0.000714494
0.000543454
0.000457075
0.000756281
9.0689e-05
-0.000114255
5.51095e-05
-4.89885e-05
9.53058e-05
1.37864e-05
0.000100181
6.74964e-05
9.001e-05
0.000120389
8.32323e-05
0.000164272
6.14662e-05
0.000198242
5.60853e-05
0.000226129
5.14188e-05
0.000252534
7.27037e-05
0.000294992
5.57812e-05
0.000365569
4.67205e-05
0.000442854
2.67628e-05
0.000505027
4.95228e-05
0.000563579
9.49929e-05
0.00064179
0.000158395
0.000658282
0.000217067
0.000625869
0.000217696
0.000554431
0.000167591
0.000277897
0.000157825
5.22903e-05
0.000260009
-7.23227e-05
3.52358e-05
-0.000160632
0.0001424
-0.000137927
0.000232516
-0.000146963
0.000312807
-0.000173978
0.00037565
-0.000204831
0.000443052
-0.000231742
0.000469533
-0.000245922
0.000507176
-0.000253431
0.000519308
-0.000246913
0.000543298
-0.00024023
0.000556462
-0.000243704
0.000561865
-0.000235552
0.000533024
-0.0001959
0.000467413
-0.000135717
0.000385515
-6.6548e-05
0.000289988
-2.23605e-05
0.000181822
-2.16867e-06
6.81279e-05
2.40626e-05
-7.94977e-06
4.04074e-05
-0.000150842
3.24602e-05
4.4356e-05
-9.56691e-05
-2.21521e-05
-5.14473e-05
5.81497e-05
-6.82635e-06
0.000101719
8.0709e-06
0.000145148
7.67701e-06
0.000180534
2.84276e-06
0.000217989
-3.13195e-06
0.000241663
-4.03806e-06
0.000269289
2.20756e-06
0.000285885
1.35204e-05
0.000317683
1.56218e-05
0.000353326
2.10115e-05
0.000392024
4.79867e-05
0.000376324
0.000119767
0.000414962
0.000182963
0.000391066
0.000236741
0.000336517
0.000240485
0.000308426
0.000209931
0.000191313
0.000173045
0.000128511
0.000203701
-1.35495e-05
-2.69963e-05
-1.51209e-05
-0.000108383
2.99133e-05
-4.79163e-05
6.53507e-05
4.22217e-06
8.30097e-05
4.67383e-05
6.75678e-05
8.63182e-05
6.85021e-05
0.000123689
4.76699e-05
0.00015413
5.28119e-05
0.000180106
5.04903e-05
0.000204457
6.00978e-05
0.000237254
6.47999e-05
0.000284288
9.16733e-05
0.00031815
0.000132943
0.000353134
0.000168528
0.000320788
0.000190733
0.000261363
0.000160469
0.000165442
0.000106068
2.1944e-05
5.50086e-05
-7.09699e-05
5.48321e-05
-0.000127298
6.07438e-05
-0.000153733
4.94353e-05
-0.000105921
1.37041e-05
-0.000127498
8.49136e-05
-0.00010482
0.000159042
-0.00010884
0.0002089
-0.000126753
0.000258787
-0.000146151
0.000291875
-0.00015734
0.00031589
-0.000156784
0.000328069
-0.000141163
0.000327797
-0.000111494
0.000334219
-7.84543e-05
0.000331685
-3.03484e-05
0.000304475
1.57945e-05
0.000251738
5.82486e-05
0.000177942
7.39681e-05
8.24917e-05
7.59256e-05
-8.97976e-07
7.82781e-05
-6.16434e-05
0.000107202
-9.07542e-05
0.000153584
-0.000120026
0.000199116
-0.000159459
-2.29874e-05
-3.89572e-06
-8.77362e-05
-2.39401e-05
-4.98338e-05
2.60063e-05
-1.61574e-05
6.13384e-05
-6.42179e-06
8.50547e-05
-7.10841e-06
0.000113771
-9.63117e-06
0.000134439
-9.55621e-06
0.000163956
3.3599e-06
0.000178864
3.63611e-05
0.000220821
5.56943e-05
0.000251805
0.000104119
0.000283061
0.000170253
0.000336336
0.000221074
0.000324834
0.000265509
0.000301345
0.000283784
0.000274755
0.000279381
0.000209132
0.000264726
0.000158873
0.00026129
9.37015e-05
0.000248208
4.61615e-05
0.000255893
2.80165e-05
-5.60937e-05
-5.10646e-06
-8.21403e-05
1.25906e-05
-4.24173e-05
3.65941e-05
-9.5454e-06
3.74075e-05
1.67565e-05
2.96933e-05
4.39677e-05
1.58397e-05
7.12214e-05
2.09555e-05
0.000100106
2.64553e-05
0.00013501
3.58482e-05
0.000153193
6.50648e-05
0.000188334
9.62052e-05
0.000236158
0.000132962
0.000228902
0.000164793
0.000227277
0.00017094
0.000195353
0.00015565
0.000136366
0.000139715
8.60992e-05
0.000147897
6.35543e-05
0.000172568
3.22863e-05
0.000192961
6.25153e-06
0.000214244
-1.38948e-05
4.01603e-05
-7.59702e-05
1.88223e-05
-8.4531e-05
5.51888e-05
-7.3751e-05
9.70095e-05
-8.25719e-05
0.000123865
-9.48238e-05
0.000146993
-0.000101801
0.000175611
-0.000100095
0.000188026
-8.15219e-05
0.000189239
-5.03353e-05
0.000209552
-2.02527e-05
0.000205098
1.40053e-05
0.000187376
3.28642e-05
0.000172233
3.12171e-05
0.000115152
1.46841e-05
5.57294e-05
3.71302e-06
2.05693e-05
1.92556e-05
9.14339e-06
5.87828e-05
1.76707e-06
0.000107932
2.98932e-08
0.000145062
-2.0419e-05
0.000174866
3.14041e-05
-2.77475e-05
1.69439e-05
-5.29495e-05
-5.10611e-06
-2.68582e-05
1.98916e-05
-1.06565e-05
3.8289e-05
-7.20935e-06
5.0625e-05
-2.74345e-06
7.69298e-05
-4.55337e-06
9.51184e-05
1.25525e-05
0.000113525
3.90833e-05
0.000150601
4.7993e-05
0.00015474
6.86065e-05
0.000161278
7.84465e-05
0.000168542
6.05129e-05
0.00011736
3.67534e-05
7.51137e-05
2.16167e-05
5.21297e-05
1.97684e-05
3.39628e-05
3.21195e-05
3.18665e-05
5.59902e-05
2.00975e-05
7.91444e-05
2.19004e-05
0.000101621
-6.91482e-06
-6.21817e-06
4.3673e-05
-3.58329e-05
1.6382e-05
-4.24433e-05
1.89993e-05
-1.85153e-05
2.88562e-05
8.16445e-07
2.50398e-05
2.13485e-05
1.87041e-05
4.00049e-05
2.51914e-05
6.47484e-05
2.49852e-05
9.53338e-05
3.01335e-05
9.51273e-05
5.09202e-05
0.000116407
5.83799e-05
0.000140694
6.61867e-05
0.000121682
6.86228e-05
0.000123334
6.67924e-05
0.000115664
5.96205e-05
9.61368e-05
5.54269e-05
8.54634e-05
5.88866e-05
7.1439e-05
6.78019e-05
6.72045e-05
7.52649e-05
5.30209e-05
8.72335e-05
4.07276e-05
3.08761e-05
-1.70887e-05
4.67283e-05
-4.52896e-05
2.94211e-05
-4.48037e-05
4.46693e-05
-4.02233e-05
6.59297e-05
-4.22632e-05
8.0602e-05
-4.27626e-05
0.00010025
-4.24463e-05
0.000105306
-2.93919e-05
0.000105644
-1.55227e-05
0.000119101
-1.33896e-06
0.00010279
1.06475e-05
8.95207e-05
1.08206e-05
8.05847e-05
2.02007e-06
4.72413e-05
-1.54359e-05
1.47155e-05
-2.6553e-05
3.94952e-06
-2.51043e-05
2.63266e-06
-1.36211e-05
4.1847e-06
3.13155e-06
9.88199e-06
1.51948e-05
4.10484e-06
2.26173e-05
2.13835e-06
-2.96894e-06
4.3928e-05
-2.02911e-05
2.64635e-05
-2.81047e-05
-4.78639e-06
-1.0362e-05
1.29911e-05
-8.89243e-07
2.56869e-05
2.60885e-06
3.95491e-05
2.39878e-06
4.87756e-05
1.15269e-05
5.75702e-05
1.3375e-05
7.48329e-05
1.62579e-05
6.00162e-05
2.94425e-05
7.01905e-05
2.9015e-05
6.99452e-05
2.31869e-05
4.16089e-05
1.69769e-05
4.18831e-05
1.34846e-05
3.63342e-05
1.12102e-05
3.69819e-05
1.19823e-05
3.76217e-05
1.92123e-05
4.11489e-05
2.90547e-05
4.27988e-05
3.28302e-05
5.08561e-05
3.16377e-05
2.49776e-05
-1.23166e-05
3.90171e-05
-2.55015e-05
-1.09177e-05
-8.15776e-06
-1.02907e-05
7.82831e-06
-5.14469e-07
1.90585e-05
3.73365e-06
2.70473e-05
9.54326e-06
3.83708e-05
3.31044e-06
4.31306e-05
1.11365e-05
3.78514e-05
1.97007e-05
5.27084e-05
1.29197e-05
3.45797e-05
5.70583e-06
7.64407e-06
-1.30809e-05
-6.38821e-06
-3.37481e-05
-3.77989e-05
-5.13293e-05
-4.78379e-05
-5.60956e-05
-4.66049e-05
-5.13926e-05
-3.45908e-05
-3.95037e-05
-2.30551e-05
-2.60892e-05
-1.32526e-05
-2.37296e-05
-1.92454e-06
-3.01317e-05
-2.87181e-06
3.57502e-05
-1.80129e-05
1.37915e-05
-8.26712e-06
-2.18523e-05
5.60375e-06
-6.61404e-06
1.18287e-05
5.60683e-06
1.23292e-05
1.76382e-05
7.83305e-06
2.30613e-05
1.2714e-05
3.02736e-05
1.2639e-05
4.05759e-05
1.42777e-05
2.82253e-05
1.12864e-05
1.9673e-05
-5.6749e-06
1.15556e-06
-3.07227e-05
-3.4449e-05
-5.42163e-05
-5.1306e-05
-6.4165e-05
-5.46367e-05
-6.27713e-05
-4.46513e-05
-5.55561e-05
-3.39792e-05
-4.1581e-05
-2.23829e-05
-2.98897e-05
-1.14744e-05
-2.92757e-05
-5.8627e-06
-3.73906e-05
2.02697e-05
-1.08558e-05
2.8546e-05
-1.01047e-05
-1.74243e-05
1.00512e-05
-2.09263e-05
1.81757e-05
-1.50018e-05
2.70951e-05
-1.30877e-05
2.9976e-05
-1.00267e-05
3.45086e-05
-6.95673e-06
3.03823e-05
1.29818e-06
2.69138e-05
3.19961e-06
2.22823e-05
-2.47274e-06
5.6491e-06
-1.64537e-05
-1.44722e-05
-3.13991e-05
-2.28137e-05
-3.92379e-05
-2.37468e-05
-4.12846e-05
-1.41041e-05
-3.95681e-05
-2.91718e-06
-3.51815e-05
1.28318e-05
-2.57404e-05
2.67669e-05
-1.36686e-05
4.11297e-05
-6.1624e-06
5.59454e-05
-3.66684e-06
-1.7321e-06
2.69123e-05
-1.36539e-05
9.85508e-06
3.38484e-07
-1.64217e-05
-2.54877e-06
-4.53707e-06
5.71105e-06
-4.84763e-07
9.52583e-06
1.31551e-07
1.35068e-05
-3.32849e-07
1.4496e-05
5.64059e-06
1.77303e-05
6.61242e-06
2.0079e-05
5.85183e-06
9.89809e-06
3.05821e-06
1.06914e-05
-1.19287e-06
7.94317e-06
-4.42683e-06
8.70212e-06
-5.98691e-06
1.12889e-05
-5.81106e-06
1.52741e-05
-5.17493e-06
2.15505e-05
-1.96758e-06
2.91575e-05
2.07284e-06
3.91583e-05
2.77104e-06
5.11149e-05
7.89807e-06
5.66109e-05
1.55525e-05
-1.0425e-05
2.19933e-05
-8.66619e-06
-8.83749e-06
-5.98666e-06
-4.59975e-06
-3.74772e-06
2.07677e-06
-9.58801e-07
4.43947e-06
-1.30616e-06
4.64178e-06
1.55555e-06
7.72106e-06
-5.54451e-07
6.74165e-06
2.17559e-06
1.32207e-06
-1.27583e-06
5.26411e-07
-7.40801e-06
-1.00684e-05
-1.44113e-05
-1.41538e-05
-1.69577e-05
-1.51113e-05
-1.69891e-05
-1.21638e-05
-1.53875e-05
-9.95593e-06
-1.37532e-05
-5.38206e-06
-1.15565e-05
-2.20677e-06
-1.02672e-05
2.68126e-06
-1.2988e-05
6.52045e-06
-1.86064e-05
8.036e-06
-2.5586e-06
2.0173e-05
-1.17939e-05
8.11019e-06
-3.67932e-06
-6.56715e-06
-8.54339e-06
-2.05538e-07
-9.90242e-07
2.22252e-07
2.18878e-06
-8.87973e-07
4.93409e-06
-3.11532e-06
4.23561e-06
-2.62794e-07
4.01848e-06
-2.16202e-06
3.62262e-06
-4.17168e-06
-4.83861e-06
-7.91257e-06
-8.73669e-06
-1.02063e-05
-1.12153e-05
-1.08826e-05
-1.01729e-05
-9.44278e-06
-8.46632e-06
-7.21652e-06
-3.09302e-06
-4.87959e-06
1.41336e-06
-2.2136e-06
8.52614e-06
-7.3195e-08
1.60304e-05
-1.15426e-06
2.38689e-05
-5.29863e-07
3.14536e-05
1.08229e-05
-8.58848e-06
1.69332e-05
-8.47199e-06
-2.55078e-06
-9.34206e-06
1.04142e-06
-7.2026e-06
2.11607e-06
-2.92481e-06
1.47138e-06
-6.97694e-07
-3.12092e-06
2.40411e-06
-5.6295e-06
4.9728e-06
-1.06106e-05
9.30503e-06
-1.22756e-05
1.17594e-05
-8.4979e-06
1.41396e-05
-6.99175e-06
1.33864e-05
-6.73229e-06
1.106e-05
-7.88046e-06
7.43057e-06
-1.14288e-05
2.11653e-06
-1.50843e-05
-4.22935e-06
-1.9518e-05
-1.03784e-05
-2.15603e-05
-1.64675e-05
-2.28786e-05
-2.44324e-05
-2.47494e-05
-3.2517e-05
-2.07761e-05
-3.28125e-06
1.4264e-05
-1.0409e-05
6.58241e-06
-6.05774e-06
-3.86413e-06
-1.02994e-05
-4.0168e-06
-3.55344e-06
-8.00157e-07
-1.57513e-06
-1.27656e-06
-1.31045e-06
-2.53668e-06
-1.77153e-06
-7.0664e-06
1.35127e-06
-9.34366e-06
2.93731e-06
-9.1737e-06
6.01041e-06
-1.48602e-05
8.95285e-06
-1.05973e-05
1.22242e-05
-9.41195e-06
1.32902e-05
-9.39473e-06
1.29912e-05
-9.05591e-06
1.13567e-05
-9.03431e-06
8.78372e-06
-7.03346e-06
7.91444e-06
-6.08191e-06
8.75833e-06
-3.88508e-06
6.48683e-06
3.35125e-07
3.2951e-07
6.53048e-06
-8.15498e-06
1.29956e-05
-9.89275e-06
-3.53109e-06
-8.8961e-06
-5.00438e-06
-7.49732e-06
-4.9214e-06
-3.59695e-06
-2.99147e-06
-3.49498e-06
-2.6096e-06
-7.05263e-06
-8.70374e-07
-1.05308e-05
-1.78494e-06
-1.78992e-05
-1.42221e-07
-2.521e-05
-1.45429e-06
-2.94813e-05
-3.54134e-06
-3.76985e-05
-7.02006e-06
-4.08979e-05
-9.29876e-06
-4.42991e-05
-1.17383e-05
-4.44397e-05
-1.44974e-05
-4.56596e-05
-1.83395e-05
-4.45512e-05
-2.08861e-05
-4.61621e-05
-2.21143e-05
-4.61238e-05
-2.75202e-05
-4.56773e-05
-3.03224e-05
-5.36592e-06
1.08977e-05
-6.777e-06
7.91274e-06
-5.88647e-06
-3.63488e-06
-1.41574e-05
-9.332e-06
-9.41962e-06
-8.10046e-06
-6.44778e-06
-7.74186e-06
-3.34936e-06
-8.90332e-06
-9.68972e-07
-1.35278e-05
2.64928e-06
-1.78338e-05
1.98913e-06
-2.39505e-05
5.83394e-07
-3.24193e-05
-3.22113e-06
-3.70256e-05
-5.42947e-06
-4.09981e-05
-7.16761e-06
-4.13036e-05
-7.39773e-06
-4.23703e-05
-7.75187e-06
-4.11449e-05
-7.71155e-06
-4.21417e-05
-7.07268e-06
-4.21989e-05
-6.40685e-06
-4.53943e-05
-1.14301e-05
-4.49907e-05
-1.30541e-05
3.67446e-06
-5.52492e-06
5.71039e-06
-1.25478e-05
-6.78509e-06
-1.77599e-05
-1.26466e-05
-1.93092e-05
-1.64044e-05
-1.7342e-05
-1.42654e-05
-1.70632e-05
-1.04365e-05
-1.8634e-05
-4.93613e-06
-1.99186e-05
-3.3195e-07
-2.33464e-05
3.66202e-06
-2.61118e-05
4.86727e-06
-2.84254e-05
5.71962e-06
-3.18849e-05
5.12398e-06
-3.3859e-05
5.03633e-06
-3.70729e-05
4.06045e-06
-3.8569e-05
3.00067e-06
-4.09235e-05
9.64331e-07
-4.12582e-05
-4.63998e-08
-4.37707e-05
-9.8969e-08
-4.5865e-05
-3.58058e-06
-4.60288e-05
-2.84608e-06
-7.63397e-06
-4.20448e-06
-1.62949e-05
-1.14913e-05
-2.21835e-05
-2.06761e-05
-2.90428e-05
-2.59056e-05
-2.47446e-05
-2.61912e-05
-2.27392e-05
-2.74918e-05
-1.98952e-05
-2.84403e-05
-1.44327e-05
-2.85207e-05
-7.44221e-06
-2.68287e-05
-8.48572e-07
-2.654e-05
3.80775e-06
-2.78591e-05
7.0321e-06
-3.10182e-05
9.17359e-06
-3.50753e-05
1.08523e-05
-3.90315e-05
1.22773e-05
-4.33767e-05
1.34998e-05
-4.66995e-05
1.47332e-05
-5.11965e-05
1.65846e-05
-5.41291e-05
1.92125e-05
-6.01632e-05
1.76599e-05
-5.89533e-05
2.05998e-05
-7.52058e-06
-1.05542e-05
-1.16916e-05
-1.87114e-05
-2.2053e-05
-2.67366e-05
-2.50639e-05
-2.4412e-05
-2.41199e-05
-2.46312e-05
-2.48968e-05
-2.80077e-05
-2.465e-05
-3.18114e-05
-2.17509e-05
-3.4773e-05
-1.54482e-05
-3.46114e-05
-7.4189e-06
-3.47187e-05
2.6601e-07
-3.61353e-05
7.64988e-06
-3.81319e-05
1.37669e-05
-4.19844e-05
1.85868e-05
-4.53074e-05
2.17899e-05
-5.05418e-05
2.34634e-05
-5.43656e-05
2.39635e-05
-6.06923e-05
2.39509e-05
-6.52834e-05
2.41421e-05
-7.43096e-05
2.00612e-05
-7.59244e-05
2.08286e-05
-2.59362e-06
-2.45156e-06
-4.01498e-06
-5.76476e-06
-7.41481e-06
-8.04691e-06
-8.70808e-06
-9.07316e-06
-1.00005e-05
-1.12868e-05
-1.24292e-05
-1.45841e-05
-1.58466e-05
-1.82996e-05
-1.93084e-05
-2.13142e-05
-2.27881e-05
-2.26319e-05
-2.56182e-05
-2.28728e-05
-3.04601e-05
-2.17009e-05
-3.4769e-05
-1.84173e-05
-4.10966e-05
-1.32171e-05
-4.68509e-05
-5.81438e-06
-5.45192e-05
3.09781e-06
-6.2525e-05
1.34861e-05
-7.25482e-05
2.48147e-05
-8.396e-05
3.63803e-05
-9.72229e-05
5.17914e-05
-0.000110528
6.21349e-05
-0.000128324
0.291099
-0.109544
0.213397
0.268156
-0.161992
0.00618553
0.0216401
-0.0145891
0.0341272
-0.038422
0.000684711
-0.0240904
-0.00273143
-0.0168688
0.0186175
-0.00916369
0.0127259
-0.0145421
0.00541442
-0.000191316
-0.00404191
-0.000600085
-0.00463564
-0.000234002
-0.0035005
0.00252765
-0.00723587
-0.00363937
-0.00352672
-0.00603539
-0.00522139
-0.00949729
-0.00251707
-0.00236369
-0.00527896
-0.000570866
-0.0030021
-0.00187359
-0.00760043
0.00341653
-0.00293575
-0.0074577
0.00282206
-0.00737683
0.00401703
-0.00323394
-0.00409781
0.00226852
0.000922788
-0.00189856
0.000861441
-0.00033614
2.41934e-05
-0.000527499
-0.00201617
0.00167537
-0.000872523
0.000539359
-0.000720122
0.00044132
-0.000925456
0.000968151
1.58326e-05
-0.000219373
0.000317717
-0.000220636
0.000413067
7.9014e-05
6.69941e-05
0.000123828
-1.94927e-05
9.71526e-05
-5.31573e-05
2.88979e-05
0.0890375
0.00775483
0.0712727
0.0804945
-0.022598
0.00141151
0.00480304
-0.0149675
-0.00354397
-0.0178729
-0.0139486
-0.019828
-0.0167812
-0.0198544
-0.00343756
-0.0120093
-0.000387683
-0.010396
-0.00493384
-0.00634919
-0.00681151
-0.00402101
-0.00617072
-0.00323511
-0.00498758
-0.00275729
-0.00544868
-0.00356236
-0.00317504
-0.00347292
-0.00312282
-0.00422887
-0.00259025
-0.00235011
-0.00331912
-0.00136333
-0.00223171
-0.00163338
-0.00283214
-4.02425e-05
-0.00206764
-0.00276621
-0.00039058
-0.00295968
0.000262521
-0.00169779
-0.00125274
-0.000357167
2.65812e-05
-0.00101902
0.000100575
-0.000347413
-8.88833e-05
-0.000350252
-0.000533769
0.000334085
-0.000346824
0.000233342
-0.000247189
0.000218602
-0.000145939
0.000323351
8.30249e-05
-2.62112e-05
0.000183872
1.67078e-05
0.000161731
8.68878e-05
5.4992e-05
6.28412e-05
1.63567e-05
6.28612e-05
-1.06509e-05
6.59618e-06
0.0331439
-0.00164114
0.00397208
0.00613296
-0.0100364
0.000881027
0.00399344
0.00107807
0.00957142
0.00589898
0.00883581
0.00587105
0.00747766
0.00905754
0.0127799
0.00995979
0.00961668
0.00748117
0.00326238
0.00758306
0.00208965
0.00614122
0.00195536
0.00500268
0.00161934
0.00435832
0.00130842
0.000780244
6.62735e-05
0.000583158
-0.000121751
-0.000620836
0.000211263
0.000412746
-8.57696e-05
0.000231581
-0.000320214
-9.46657e-05
-0.000922507
0.000193692
-0.000574246
-0.00118813
0.000171374
-0.00156533
0.000928884
-0.000786843
-0.000127806
1.44609e-05
0.000439485
-0.000504669
0.000373478
-0.000106652
-2.77452e-05
-0.000206048
-0.000317905
0.0002057
-0.000318204
0.000115843
-0.000289616
7.18244e-05
-0.000216623
0.000111046
-8.85329e-05
-0.000128763
6.12208e-05
-7.17316e-05
5.62351e-05
-2.24361e-05
-2.10257e-05
3.02946e-05
-1.39393e-05
2.61115e-05
-2.81354e-05
2.13868e-05
0.0439792
0.0260743
0.0347941
0.0343356
0.0093106
0.00533035
0.00198096
-0.00730258
-0.00499139
-0.00863652
-0.0104168
-0.0127068
-0.0118944
-0.0113249
-0.00587297
-0.00778897
-0.00234047
-0.00467926
-0.00391244
-0.00322184
-0.00448372
-0.00251965
-0.00436568
-0.00248586
-0.00402167
-0.00272025
-0.00441381
-0.00309999
-0.00264713
-0.0027631
-0.00279505
-0.00310867
-0.00247275
-0.00229266
-0.00247371
-0.00150618
-0.00190789
-0.00129155
-0.00172511
-0.000789238
-0.00176503
-0.00160409
-0.00103047
-0.00199613
-0.000371492
-0.00130205
-0.000594144
-0.000771244
-0.000152341
-0.000816314
-8.27802e-05
-0.000422585
-0.000220085
-0.000392755
-0.000315078
1.8907e-06
-0.000264638
0.000100056
-0.000178534
0.000110065
-5.81056e-05
0.000149161
4.54396e-05
-5.29148e-06
0.000131593
3.79184e-05
0.000101948
6.92024e-05
3.8552e-05
4.79928e-05
2.49062e-05
6.08683e-05
-2.80687e-06
8.36752e-06
0.0151011
0.00876646
0.00297546
0.000667518
0.00136923
0.00216486
0.000320157
0.00176705
0.00358933
0.00516196
0.00417242
0.00414511
0.00491904
0.00659062
0.00766961
0.00757493
0.00668839
0.00701833
0.00406015
0.00627177
0.00348266
0.00514278
0.00307256
0.00453
0.00260022
0.00425102
0.00153482
0.000990259
0.00130116
0.00169358
0.00104179
0.000869788
0.000967857
0.00109534
0.000332707
0.000359577
0.000257719
0.000599666
-0.00020013
-5.54532e-05
-0.000163011
2.68129e-05
-0.000175965
-0.000631741
0.000381155
-0.000277518
0.00023739
-0.000124583
0.00028006
-0.000177926
0.000248464
1.98321e-05
2.60088e-05
-6.40109e-05
-6.50982e-05
3.88436e-05
-0.000145307
7.98693e-05
-0.000143872
4.126e-05
-0.000102543
1.3794e-06
-7.07672e-05
-7.46914e-05
3.0137e-05
-4.61068e-05
9.14665e-06
-2.56632e-05
-2.09411e-05
1.30065e-05
-3.95659e-06
9.17637e-06
-2.65092e-05
2.0447e-05
0.0204061
0.0179937
0.0171879
0.0172075
0.0115425
0.00747888
0.00263264
-0.00101258
-0.00235708
-0.00456999
-0.00667789
-0.00781238
-0.00725219
-0.00613743
-0.00492314
-0.00505966
-0.00360611
-0.00309383
-0.00341508
-0.0022974
-0.00316953
-0.00194116
-0.00311219
-0.00207193
-0.00316319
-0.00273126
-0.00362151
-0.00256926
-0.00205699
-0.00225001
-0.00244794
-0.0025267
-0.00220348
-0.00215366
-0.00193486
-0.0014936
-0.00157549
-0.00104065
-0.00125597
-0.00102156
-0.00143194
-0.00103055
-0.00113328
-0.0014332
-0.000482353
-0.000997972
-0.000316311
-0.000766576
-0.000184796
-0.000647174
-0.00014599
-0.000411854
-0.000292915
-0.000380481
-0.000258341
-0.00013143
-0.000217516
2.20915e-06
-0.000140895
2.78285e-05
-4.81459e-05
5.75284e-05
1.69719e-05
2.82788e-06
8.71689e-05
3.35636e-05
6.99508e-05
5.64001e-05
3.07982e-05
3.68875e-05
2.91145e-05
5.88707e-05
9.0708e-07
9.5349e-06
0.0120679