/*--------------------------------*- C++ -*----------------------------------*\
| =========                 |                                                 |
| \\      /  F ield         | OpenFOAM: The Open Source CFD Toolbox           |
|  \\    /   O peration     | Version:  2312                                  |
|   \\  /    A nd           | Website:  www.openfoam.com                      |
|    \\/     M anipulation  |                                                 |
\*---------------------------------------------------------------------------*/
FoamFile
{
    version     2.0;
    format      ascii;
    arch        "LSB;label=32;scalar=64";
    class       volScalarField;
    location    "450";
    object      magR;
}
// * * * * * * * * * * * * * * * * * * * * * * * * * * * * * * * * * * * * * //

dimensions      [0 2 -2 0 0 0 0];

internalField   nonuniform List<scalar> 
11040
(
0.499566
0.524669
0.0727918
0.0706428
0.398302
0.391686
0.376483
0.34942
0.322931
0.307205
0.292709
0.28077
0.271309
0.264584
0.260231
0.259629
0.263199
0.27104
0.282346
0.297015
0.315432
0.337008
0.361847
0.390638
0.423405
0.461437
0.5049
0.548741
0.589206
0.622521
0.64416
0.649318
0.634304
0.59876
0.545273
0.487825
0.38903
0.194697
0.104103
0.0852569
0.291687
0.0406892
0.0862107
0.295993
0.571641
1.04802
0.314364
0.1008
0.0341697
0.00886309
0.00766065
0.018109
0.0242116
0.0284813
0.031653
0.0341209
0.0363189
0.0386219
0.0411974
0.0438058
0.0464673
0.0492563
0.0524883
0.0553507
0.0568156
0.0565105
0.0551
0.0537094
0.0509038
0.046386
0.0405081
0.0345802
0.0309994
0.0317805
0.0354717
0.0446069
0.0603811
0.0831402
0.115489
0.178067
0.230809
0.752135
0.024951
0.0220987
0.0534249
0.241486
1.27853
1.66952
0.817054
0.309901
0.151171
0.0957629
0.0581634
0.0369805
0.0223834
0.0125807
0.00749541
0.00591918
0.0069657
0.00853831
0.00986533
0.010812
0.0114329
0.0118267
0.0117246
0.0113049
0.011474
0.0128129
0.014994
0.0172226
0.0186652
0.0189031
0.0195211
0.025316
0.0394166
0.0607816
0.0908956
0.131688
0.184553
0.257686
0.39663
0.571675
0.808629
0.0178116
0.0154338
0.0123607
0.0213741
0.313285
1.49739
2.18898
1.4219
0.585396
0.323132
0.201541
0.143103
0.107337
0.0819671
0.0665512
0.0553533
0.048625
0.0442301
0.0419372
0.0412141
0.0415881
0.0430138
0.0458314
0.0500409
0.0548229
0.0595213
0.0635183
0.0661863
0.0670031
0.0660665
0.0648783
0.0672792
0.0790546
0.105714
0.151599
0.21899
0.308808
0.431634
0.649619
0.960507
0.913527
0.0133087
0.0120631
0.0128532
0.00612092
0.00960583
0.27831
1.42629
2.49665
2.12501
1.0435
0.561564
0.34917
0.253892
0.191301
0.156148
0.130244
0.114856
0.104726
0.0991419
0.0967336
0.0961719
0.0969205
0.0992553
0.103299
0.108142
0.113055
0.117246
0.119854
0.120088
0.117743
0.11392
0.112702
0.123007
0.156508
0.221248
0.319619
0.451486
0.626132
0.909808
1.35721
1.16534
0.00960128
0.00886323
0.00866358
0.00942398
0.002786
0.00246182
0.185493
1.12945
2.54301
2.75659
1.78114
0.90157
0.570154
0.394892
0.305149
0.244665
0.208917
0.185488
0.171621
0.164572
0.16143
0.160772
0.162528
0.166717
0.172205
0.178058
0.183229
0.18638
0.18603
0.181222
0.172339
0.163748
0.168053
0.20523
0.289259
0.421709
0.599573
0.82626
1.15633
1.68945
1.48797
0.00694817
0.00665518
0.00628159
0.00669852
0.00673843
0.00126393
9.04893e-05
0.084411
0.739625
2.19941
3.10711
2.64388
1.54329
0.875533
0.596877
0.448618
0.36191
0.306557
0.272617
0.253807
0.244135
0.240322
0.241229
0.246148
0.253374
0.261445
0.268846
0.273489
0.272864
0.264855
0.248504
0.227241
0.215762
0.245195
0.342383
0.507535
0.730892
1.00516
1.36355
1.91486
1.76633
0.0050726
0.00497276
0.00490903
0.00474514
0.00512011
0.00519402
0.000257203
6.78845e-06
0.0242866
0.382247
1.54055
2.98969
3.31813
2.47372
1.43358
0.894452
0.645041
0.511987
0.430291
0.381498
0.354169
0.342535
0.341098
0.347375
0.357952
0.369949
0.381335
0.389303
0.389732
0.378895
0.353584
0.314389
0.273316
0.270092
0.360492
0.549349
0.811609
1.12343
1.4932
2.00002
1.91258
0.0037513
0.00370651
0.00372382
0.00370088
0.0035822
0.00401266
0.00372682
0.00058074
0.000499101
0.000732414
0.134698
0.837644
2.2877
3.46612
3.36647
2.37465
1.42589
0.948042
0.717176
0.593313
0.521427
0.486644
0.474527
0.477905
0.49158
0.509739
0.527938
0.541386
0.545246
0.533736
0.500626
0.441974
0.361175
0.288588
0.319524
0.508423
0.796986
1.13248
1.49653
1.91565
1.87425
0.00278888
0.00276942
0.00279668
0.0028346
0.00281859
0.00275413
0.0030551
0.002699
0.000981447
0.000119935
0.0019811
0.0303116
0.335691
1.33329
2.85228
3.74061
3.40201
2.38871
1.50184
1.04098
0.822606
0.718889
0.671721
0.658459
0.667741
0.689442
0.716639
0.741013
0.753816
0.745755
0.708209
0.634094
0.518049
0.363565
0.229039
0.338278
0.639527
0.987407
1.33281
1.65108
1.62832
0.00208189
0.00207368
0.00209932
0.00213846
0.00217385
0.00216231
0.00214627
0.0022644
0.00222925
0.00118754
8.00379e-05
0.000432119
0.000101073
0.0812152
0.557488
1.7333
3.21046
3.92073
3.50494
2.52642
1.66809
1.21435
1.02065
0.94294
0.921415
0.930608
0.958177
0.990823
1.01655
1.02254
0.995608
0.923343
0.794517
0.602153
0.345905
0.0344867
0.323771
0.683155
1.00306
1.23368
1.20322
0.00155686
0.00155422
0.00157273
0.00160669
0.00164314
0.00167256
0.001674
0.00166625
0.00170266
0.0017878
0.00124752
7.38521e-05
2.12257e-05
0.00145795
0.00685667
0.140809
0.720945
1.95686
3.38184
4.06125
3.70215
2.84395
2.07548
1.60586
1.38289
1.30547
1.30278
1.32781
1.35791
1.37591
1.36601
1.31477
1.21067
1.04656
0.829004
0.593015
0.455866
0.554154
0.755906
0.892329
0.813107
0.00116455
0.0011647
0.00117732
0.00120304
0.00123497
0.00126607
0.00129111
0.00130258
0.00129648
0.00131181
0.00137649
0.00119059
0.000354323
3.49316e-05
0.000105331
0.00251934
0.0159185
0.177092
0.778743
1.98473
3.38656
4.16646
4.0876
3.53591
2.90165
2.39106
2.06614
1.90312
1.85241
1.85691
1.86736
1.85282
1.79788
1.69683
1.5585
1.41152
1.30091
1.26311
1.29403
1.32506
1.19542
0.000870094
0.000871652
0.000879992
0.000898505
0.000923899
0.000951303
0.000977319
0.000999801
0.00101449
0.00101568
0.00102116
0.00107578
0.0010168
0.000683199
1.2252e-05
5.49815e-06
0.000293674
0.00311377
0.0186371
0.171162
0.716646
1.76433
3.01551
3.99444
4.43081
4.3861
4.07754
3.68867
3.32395
3.0282
2.81249
2.67117
2.58535
2.52971
2.48515
2.44947
2.43272
2.43612
2.46123
2.49652
2.38366
0.000648435
0.000650586
0.000656058
0.000669162
0.000688361
0.000710507
0.000733463
0.000755478
0.000775427
0.000790968
0.000797049
0.00080401
0.000823456
0.000842998
0.000725672
0.000254526
2.71298e-05
1.13324e-06
0.000430456
0.00301929
0.0133724
0.11664
0.455521
1.12959
2.08997
3.13245
4.02202
4.62682
4.94093
5.02727
4.95633
4.78738
4.56693
4.33023
4.1118
3.9418
3.84197
3.81248
3.84997
3.94611
3.89552
0.000481455
0.000483635
0.000487226
0.000496397
0.00051057
0.000527584
0.000546078
0.000565149
0.000583796
0.000601128
0.000615787
0.000625506
0.000632475
0.000640911
0.000671632
0.00063941
0.000516453
9.40101e-05
1.41433e-05
5.20404e-07
0.000362113
0.0023103
0.00176124
0.0302993
0.148558
0.433106
0.931615
1.63441
2.47207
3.34419
4.16131
4.86588
5.42884
5.83659
6.09107
6.21442
6.2509
6.23558
6.19766
6.18615
6.04546
0.000356755
0.00035864
0.000361045
0.000367489
0.000377815
0.000390507
0.000404705
0.000419908
0.00043552
0.000450923
0.000465496
0.000478545
0.000489368
0.000496461
0.000505443
0.000517497
0.000536134
0.000489757
0.000374427
4.58045e-05
9.23244e-06
6.50381e-07
2.94979e-05
0.000736514
0.00220416
0.00048278
0.0122356
0.0625423
0.185868
0.415519
0.773057
1.26286
1.86961
2.56545
3.31428
4.0753
4.81604
5.51178
6.13592
6.71154
7.09679
0.000266741
0.000268329
0.000270092
0.000274833
0.000282525
0.000292099
0.000302954
0.000314812
0.000327305
0.000339999
0.000352543
0.00036455
0.000375753
0.000385643
0.000393689
0.000400681
0.000409359
0.000422203
0.000434747
0.000389866
0.000281467
5.92384e-05
9.08906e-06
1.61142e-06
4.48463e-08
6.85245e-06
0.000267682
0.00138333
0.00194971
0.00280482
0.00329963
0.021376
0.0667564
0.155828
0.304421
0.525895
0.826665
1.21248
1.67756
2.22707
2.8146
0.000203096
0.000204459
0.000205833
0.000209451
0.000215331
0.000222693
0.00023114
0.000240488
0.000250529
0.000260921
0.000271418
0.000281769
0.000291735
0.000301152
0.000309785
0.000317473
0.000323877
0.000330474
0.000338876
0.00035136
0.000356539
0.000325835
0.000256726
0.000154275
4.81206e-06
3.10445e-06
1.12962e-06
2.15403e-07
0
0
5.52173e-05
0.000562128
0.00142954
0.00172369
0.000812649
0.000230121
0.00232843
0.0122889
0.0365169
0.0817166
0.156699
0.000157475
0.000158598
0.00015968
0.000162487
0.000167038
0.000172757
0.000179369
0.000186744
0.000194755
0.000203189
0.000211826
0.000220542
0.000229143
0.000237467
0.00024539
0.000252831
0.000259637
0.000265762
0.000271087
0.000277341
0.000285058
0.000295019
0.000299378
0.000295291
0.000256433
0.000197184
0.000123619
2.54686e-05
4.70354e-06
1.17866e-06
7.51023e-07
3.62139e-07
2.60357e-08
0
0
4.28794e-06
3.01647e-05
0.00025197
0.000805871
0.00139541
0.00181034
0.000123757
0.000124657
0.000125516
0.000127722
0.000131281
0.000135771
0.000140984
0.000146838
0.000153218
0.000160008
0.000167033
0.000174212
0.000181421
0.000188532
0.000195436
0.000202063
0.000208338
0.000214222
0.000219598
0.000224542
0.000229108
0.00023435
0.000240674
0.000247563
0.000256108
0.000258107
0.000252107
0.000231036
0.000194626
0.000151643
0.000100694
5.14582e-05
3.98622e-06
1.89983e-06
7.92784e-07
5.98113e-07
4.21086e-07
2.50486e-07
1.10198e-07
4.3113e-09
0
9.8309e-05
9.90222e-05
9.97182e-05
0.000101472
0.000104284
0.000107835
0.000111976
0.000116643
0.000121745
0.000127199
0.000132891
0.000138736
0.000144669
0.000150586
0.000156405
0.00016207
0.000167521
0.000172718
0.000177616
0.000182234
0.000186445
0.000190264
0.000193986
0.000197632
0.000202118
0.000207358
0.00021282
0.000218575
0.000222057
0.000221716
0.000216159
0.000206051
0.000187491
0.000162278
0.000132868
0.000104535
7.7549e-05
4.81925e-05
2.26991e-05
9.50634e-07
8.9565e-07
7.87649e-05
7.93253e-05
7.98972e-05
8.13011e-05
8.35387e-05
8.63645e-05
8.9672e-05
9.34036e-05
9.74955e-05
0.000101873
0.00010647
0.000111205
0.000116041
0.000120898
0.000125709
0.000130425
0.000135009
0.000139417
0.000143612
0.000147612
0.000151321
0.00015471
0.000157836
0.000160602
0.000163093
0.000165525
0.000168054
0.000170922
0.000174197
0.000177737
0.000181285
0.000184502
0.000187766
0.000189483
0.000189136
0.000186675
0.000182387
0.000175475
0.000166414
0.000152691
0.000137278
6.35474e-05
6.39877e-05
6.4462e-05
6.55943e-05
6.73846e-05
6.96455e-05
7.22984e-05
7.52935e-05
7.8583e-05
8.20996e-05
8.58049e-05
8.96321e-05
9.35459e-05
9.74937e-05
0.00010142
0.00010528
0.000109047
0.000112687
0.000116167
0.000119496
0.000122582
0.000125411
0.000128032
0.000130353
0.000132386
0.000134166
0.000135728
0.000137104
0.00013836
0.000139569
0.000140807
0.000142085
0.000143496
0.000145036
0.000146644
0.000148195
0.000149652
0.000151019
0.000152207
0.00015326
0.000154169
5.15629e-05
5.19095e-05
5.23049e-05
5.32241e-05
5.46627e-05
5.64807e-05
5.86149e-05
6.10263e-05
6.36731e-05
6.65032e-05
6.9484e-05
7.25718e-05
7.57241e-05
7.89123e-05
8.20873e-05
8.52126e-05
8.8263e-05
9.12145e-05
9.40342e-05
9.67352e-05
9.92252e-05
0.000101493
0.000103588
0.00010543
0.00010703
0.000108416
0.0001096
0.000110586
0.000111382
0.000111994
0.000112443
0.000112745
0.000112921
0.000113
0.000113011
0.000112966
0.000112896
0.000112831
0.000112749
0.000112671
0.00011255
4.2036e-05
4.23104e-05
4.26421e-05
4.33923e-05
4.45532e-05
4.60217e-05
4.7744e-05
4.96907e-05
5.18227e-05
5.41032e-05
5.64983e-05
5.89836e-05
6.15165e-05
6.40778e-05
6.66279e-05
6.91374e-05
7.158e-05
7.39409e-05
7.61891e-05
7.8338e-05
8.03012e-05
8.20723e-05
8.3699e-05
8.51116e-05
8.63152e-05
8.7334e-05
8.81802e-05
8.88594e-05
8.93793e-05
8.9747e-05
8.99695e-05
9.00524e-05
9.0004e-05
8.98324e-05
8.95446e-05
8.91395e-05
8.86442e-05
8.8068e-05
8.73823e-05
8.66543e-05
8.56229e-05
3.44044e-05
3.46212e-05
3.49027e-05
3.5518e-05
3.64591e-05
3.76489e-05
3.90432e-05
4.06176e-05
4.23382e-05
4.41769e-05
4.61015e-05
4.80978e-05
5.01296e-05
5.21775e-05
5.42146e-05
5.62146e-05
5.81548e-05
6.00231e-05
6.17939e-05
6.34783e-05
6.50003e-05
6.63555e-05
6.75913e-05
6.86491e-05
6.95299e-05
7.02526e-05
7.08273e-05
7.1261e-05
7.15581e-05
7.17278e-05
7.17773e-05
7.17136e-05
7.15451e-05
7.12814e-05
7.09258e-05
7.04772e-05
6.99584e-05
6.93787e-05
6.86931e-05
6.80109e-05
6.68839e-05
2.82489e-05
2.84221e-05
2.86643e-05
2.91707e-05
2.99372e-05
3.09043e-05
3.2037e-05
3.33123e-05
3.47035e-05
3.61859e-05
3.77338e-05
3.93351e-05
4.09624e-05
4.25925e-05
4.42116e-05
4.57953e-05
4.7325e-05
4.87887e-05
5.0168e-05
5.14711e-05
5.26319e-05
5.36481e-05
5.45661e-05
5.53374e-05
5.5961e-05
5.64537e-05
5.68218e-05
5.70719e-05
5.72082e-05
5.72387e-05
5.71693e-05
5.70073e-05
5.67607e-05
5.64379e-05
5.60419e-05
5.55729e-05
5.50516e-05
5.4489e-05
5.38313e-05
5.32338e-05
5.20591e-05
2.32561e-05
2.3396e-05
2.3607e-05
2.40267e-05
2.46545e-05
2.54437e-05
2.63671e-05
2.7402e-05
2.85285e-05
2.97239e-05
3.09693e-05
3.22512e-05
3.35519e-05
3.48468e-05
3.61284e-05
3.73759e-05
3.85749e-05
3.97131e-05
4.07768e-05
4.17725e-05
4.26448e-05
4.33912e-05
4.40579e-05
4.4604e-05
4.50287e-05
4.53446e-05
4.55599e-05
4.56785e-05
4.57049e-05
4.5645e-05
4.55048e-05
4.52895e-05
4.5007e-05
4.46628e-05
4.426e-05
4.37983e-05
4.3296e-05
4.27648e-05
4.21446e-05
4.16293e-05
4.04256e-05
1.91858e-05
1.93028e-05
1.94885e-05
1.98396e-05
2.0357e-05
2.10041e-05
2.17588e-05
2.26011e-05
2.35142e-05
2.4479e-05
2.54806e-05
2.65057e-05
2.75424e-05
2.85698e-05
2.95797e-05
3.05582e-05
3.14921e-05
3.23713e-05
3.31848e-05
3.39383e-05
3.45846e-05
3.51229e-05
3.55961e-05
3.59709e-05
3.6247e-05
3.64335e-05
3.6538e-05
3.65642e-05
3.65164e-05
3.63986e-05
3.62167e-05
3.59741e-05
3.56786e-05
3.53348e-05
3.49453e-05
3.45097e-05
3.40436e-05
3.35595e-05
3.29926e-05
3.25642e-05
3.13695e-05
1.58553e-05
1.59554e-05
1.61214e-05
1.64189e-05
1.68474e-05
1.73809e-05
1.79998e-05
1.86875e-05
1.94286e-05
2.02083e-05
2.10133e-05
2.18328e-05
2.26574e-05
2.34705e-05
2.42623e-05
2.50252e-05
2.57475e-05
2.64213e-05
2.70375e-05
2.76016e-05
2.80734e-05
2.84529e-05
2.87796e-05
2.90262e-05
2.91926e-05
2.92863e-05
2.93136e-05
2.92774e-05
2.91816e-05
2.90299e-05
2.88274e-05
2.85774e-05
2.82864e-05
2.79581e-05
2.75947e-05
2.71957e-05
2.67736e-05
2.63417e-05
2.5833e-05
2.5486e-05
2.43256e-05
1.31202e-05
1.32089e-05
1.33594e-05
1.36144e-05
1.39723e-05
1.4415e-05
1.49249e-05
1.54884e-05
1.60913e-05
1.67225e-05
1.737e-05
1.80248e-05
1.868e-05
1.93222e-05
1.99403e-05
2.0532e-05
2.10869e-05
2.15989e-05
2.206e-05
2.24765e-05
2.28135e-05
2.30724e-05
2.32883e-05
2.34399e-05
2.35264e-05
2.35549e-05
2.35301e-05
2.3455e-05
2.33326e-05
2.31664e-05
2.29602e-05
2.27169e-05
2.24416e-05
2.21376e-05
2.18062e-05
2.14475e-05
2.10709e-05
2.06905e-05
2.02394e-05
1.99644e-05
1.8854e-05
1.08674e-05
1.09484e-05
1.10879e-05
1.13089e-05
1.16109e-05
1.19811e-05
1.24036e-05
1.2867e-05
1.33593e-05
1.38709e-05
1.43924e-05
1.49159e-05
1.54359e-05
1.59417e-05
1.64232e-05
1.68795e-05
1.73032e-05
1.76891e-05
1.80306e-05
1.83331e-05
1.85682e-05
1.87371e-05
1.8871e-05
1.89534e-05
1.89831e-05
1.89662e-05
1.8907e-05
1.88082e-05
1.86722e-05
1.85019e-05
1.83003e-05
1.80699e-05
1.7815e-05
1.75383e-05
1.72406e-05
1.69223e-05
1.65908e-05
1.62598e-05
1.58645e-05
1.56516e-05
1.46052e-05
9.00758e-06
9.0845e-06
9.21507e-06
9.40927e-06
9.6677e-06
9.97893e-06
1.03314e-05
1.07142e-05
1.11177e-05
1.15336e-05
1.19543e-05
1.2373e-05
1.27851e-05
1.31824e-05
1.35565e-05
1.39063e-05
1.42273e-05
1.45151e-05
1.47645e-05
1.49802e-05
1.5139e-05
1.52424e-05
1.53176e-05
1.53514e-05
1.53431e-05
1.52978e-05
1.52188e-05
1.51087e-05
1.49693e-05
1.4803e-05
1.46123e-05
1.43995e-05
1.41681e-05
1.39202e-05
1.36564e-05
1.33772e-05
1.30885e-05
1.28029e-05
1.24595e-05
1.22981e-05
1.13242e-05
7.46915e-06
7.54417e-06
7.66804e-06
7.84121e-06
8.06408e-06
8.32848e-06
8.62465e-06
8.94283e-06
9.27542e-06
9.61478e-06
9.95516e-06
1.02905e-05
1.06173e-05
1.0929e-05
1.1219e-05
1.14855e-05
1.17265e-05
1.19381e-05
1.21172e-05
1.2267e-05
1.23688e-05
1.24237e-05
1.2456e-05
1.24551e-05
1.24209e-05
1.2357e-05
1.22666e-05
1.21518e-05
1.20145e-05
1.18565e-05
1.16799e-05
1.14863e-05
1.12787e-05
1.10589e-05
1.08274e-05
1.05844e-05
1.03347e-05
1.00899e-05
9.79395e-06
9.67458e-06
8.77994e-06
6.19463e-06
6.26949e-06
6.38764e-06
6.54388e-06
6.73851e-06
6.9655e-06
7.21644e-06
7.48334e-06
7.759e-06
8.03759e-06
8.31388e-06
8.5834e-06
8.84249e-06
9.08726e-06
9.31166e-06
9.51384e-06
9.69334e-06
9.84768e-06
9.9738e-06
1.00752e-05
1.01371e-05
1.01599e-05
1.01646e-05
1.01426e-05
1.00939e-05
1.00215e-05
9.92848e-06
9.81613e-06
9.68604e-06
9.53981e-06
9.37932e-06
9.20598e-06
9.02223e-06
8.82955e-06
8.62846e-06
8.41923e-06
8.20543e-06
7.99745e-06
7.74494e-06
7.65933e-06
6.84644e-06
5.13739e-06
5.21304e-06
5.32665e-06
5.46903e-06
5.64124e-06
5.83831e-06
6.05335e-06
6.27894e-06
6.50933e-06
6.73938e-06
6.96488e-06
7.18215e-06
7.38823e-06
7.58028e-06
7.75345e-06
7.90572e-06
8.03768e-06
8.14769e-06
8.23375e-06
8.29827e-06
8.32957e-06
8.32836e-06
8.31248e-06
8.27523e-06
8.21672e-06
8.13958e-06
8.04607e-06
7.93771e-06
7.81592e-06
7.6821e-06
7.5377e-06
7.38396e-06
7.22285e-06
7.05554e-06
6.88245e-06
6.70387e-06
6.52257e-06
6.34743e-06
6.13473e-06
6.07403e-06
5.3511e-06
4.26006e-06
4.33696e-06
4.44629e-06
4.57797e-06
4.73204e-06
4.90528e-06
5.09117e-06
5.28365e-06
5.47769e-06
5.6691e-06
5.85433e-06
6.03041e-06
6.1949e-06
6.34614e-06
6.48019e-06
6.595e-06
6.69211e-06
6.77037e-06
6.82844e-06
6.86839e-06
6.88106e-06
6.86685e-06
6.84107e-06
6.79825e-06
6.73839e-06
6.66389e-06
6.57664e-06
6.47793e-06
6.3688e-06
6.25048e-06
6.12414e-06
5.99086e-06
5.85216e-06
5.70911e-06
5.56215e-06
5.4116e-06
5.25965e-06
5.11356e-06
4.93671e-06
4.89541e-06
4.25881e-06
3.53189e-06
3.60991e-06
3.71575e-06
3.83822e-06
3.97805e-06
4.13197e-06
4.29415e-06
4.45971e-06
4.62436e-06
4.78482e-06
4.93798e-06
5.08158e-06
5.21341e-06
5.3326e-06
5.43563e-06
5.52064e-06
5.58959e-06
5.64201e-06
5.67686e-06
5.69601e-06
5.69246e-06
5.66668e-06
5.63162e-06
5.58325e-06
5.52173e-06
5.44901e-06
5.36673e-06
5.27597e-06
5.17767e-06
5.07279e-06
4.9623e-06
4.84708e-06
4.72847e-06
4.60724e-06
4.48385e-06
4.35849e-06
4.23319e-06
4.11315e-06
3.96995e-06
3.94002e-06
3.40265e-06
2.92783e-06
3.00675e-06
3.10885e-06
3.22393e-06
3.35171e-06
3.48946e-06
3.6324e-06
3.77598e-06
3.91688e-06
4.05222e-06
4.17985e-06
4.29793e-06
4.40503e-06
4.50056e-06
4.58223e-06
4.64836e-06
4.70073e-06
4.73939e-06
4.76375e-06
4.7751e-06
4.76811e-06
4.74281e-06
4.70993e-06
4.66614e-06
4.61162e-06
4.5481e-06
4.47697e-06
4.39916e-06
4.3155e-06
4.22688e-06
4.13412e-06
4.03799e-06
3.93959e-06
3.83963e-06
3.73863e-06
3.63676e-06
3.53576e-06
3.43916e-06
3.3257e-06
3.30617e-06
2.85205e-06
2.42668e-06
2.50653e-06
2.60567e-06
2.71384e-06
2.83085e-06
2.95443e-06
3.08055e-06
3.20586e-06
3.32741e-06
3.44271e-06
3.54993e-06
3.64754e-06
3.73438e-06
3.80961e-06
3.87127e-06
3.91824e-06
3.95212e-06
3.97358e-06
3.98261e-06
3.98043e-06
3.96335e-06
3.93194e-06
3.89493e-06
3.84973e-06
3.79665e-06
3.73715e-06
3.67247e-06
3.60342e-06
3.53068e-06
3.45493e-06
3.3769e-06
3.29717e-06
3.21662e-06
3.13576e-06
3.05511e-06
2.97462e-06
2.89622e-06
2.82098e-06
2.73723e-06
2.71742e-06
2.37694e-06
2.01218e-06
2.09295e-06
2.18946e-06
2.29207e-06
2.39922e-06
2.50911e-06
2.61937e-06
2.72789e-06
2.83268e-06
2.93189e-06
3.02362e-06
3.10672e-06
3.18046e-06
3.24535e-06
3.30045e-06
3.34453e-06
3.37792e-06
3.40118e-06
3.414e-06
3.41739e-06
3.40851e-06
3.38695e-06
3.36039e-06
3.32669e-06
3.28614e-06
3.23993e-06
3.18916e-06
3.13456e-06
3.07684e-06
3.01661e-06
2.95459e-06
2.89135e-06
2.82771e-06
2.76411e-06
2.70118e-06
2.63896e-06
2.57902e-06
2.52157e-06
2.45912e-06
2.4484e-06
2.16295e-06
1.67267e-06
1.75261e-06
1.84544e-06
1.94208e-06
2.04029e-06
2.13849e-06
2.23476e-06
2.32768e-06
2.4165e-06
2.50058e-06
2.57872e-06
2.6492e-06
2.70964e-06
2.75816e-06
2.79347e-06
2.81651e-06
2.82996e-06
2.83555e-06
2.83365e-06
2.82476e-06
2.80725e-06
2.78173e-06
2.75334e-06
2.72052e-06
2.68352e-06
2.64336e-06
2.6008e-06
2.55634e-06
2.5105e-06
2.46377e-06
2.41663e-06
2.36947e-06
2.3229e-06
2.27726e-06
2.23297e-06
2.18978e-06
2.1498e-06
2.1103e-06
2.07483e-06
2.05245e-06
1.8981e-06
1.39759e-06
1.47407e-06
1.55908e-06
1.64562e-06
1.73239e-06
1.81931e-06
1.90495e-06
1.98733e-06
2.06474e-06
2.13625e-06
2.20211e-06
2.26382e-06
2.32312e-06
2.38125e-06
2.43646e-06
2.4835e-06
2.51919e-06
2.54425e-06
2.55964e-06
2.56682e-06
2.5648e-06
2.55307e-06
2.53726e-06
2.51622e-06
2.49051e-06
2.46117e-06
2.42907e-06
2.39482e-06
2.35897e-06
2.3221e-06
2.28479e-06
2.24759e-06
2.21098e-06
2.17538e-06
2.14141e-06
2.10915e-06
2.07968e-06
2.05192e-06
2.02549e-06
2.02428e-06
1.85928e-06
1.17019e-06
1.24561e-06
1.32289e-06
1.39585e-06
1.46565e-06
1.53516e-06
1.6058e-06
1.6776e-06
1.74904e-06
1.81702e-06
1.87702e-06
1.92461e-06
1.95689e-06
1.9738e-06
1.97919e-06
1.9818e-06
1.98704e-06
1.99306e-06
1.9976e-06
1.99911e-06
1.99657e-06
1.99044e-06
1.98271e-06
1.97239e-06
1.95963e-06
1.94513e-06
1.92935e-06
1.91263e-06
1.89529e-06
1.87764e-06
1.85998e-06
1.84252e-06
1.82562e-06
1.80943e-06
1.79426e-06
1.77969e-06
1.76787e-06
1.75364e-06
1.75069e-06
1.72095e-06
1.70925e-06
9.78021e-07
1.06133e-06
1.14147e-06
1.20985e-06
1.26666e-06
1.31619e-06
1.36222e-06
1.40816e-06
1.45727e-06
1.51267e-06
1.57668e-06
1.65043e-06
1.73268e-06
1.82016e-06
1.90504e-06
1.97174e-06
2.01492e-06
2.04362e-06
2.06213e-06
2.07297e-06
2.07577e-06
2.07097e-06
2.06226e-06
2.04934e-06
2.03299e-06
2.01421e-06
1.99371e-06
1.97206e-06
1.9498e-06
1.92751e-06
1.9057e-06
1.8849e-06
1.86549e-06
1.84792e-06
1.83275e-06
1.82039e-06
1.81108e-06
1.80509e-06
1.80056e-06
1.81932e-06
1.71444e-06
8.35192e-07
9.14764e-07
9.91334e-07
1.06043e-06
1.12071e-06
1.17207e-06
1.21358e-06
1.24416e-06
1.26399e-06
1.27426e-06
1.27714e-06
1.2752e-06
1.27126e-06
1.26633e-06
1.26322e-06
1.27514e-06
1.30253e-06
1.33433e-06
1.36647e-06
1.39642e-06
1.42339e-06
1.44748e-06
1.46951e-06
1.48916e-06
1.50634e-06
1.52133e-06
1.53443e-06
1.54576e-06
1.55543e-06
1.56352e-06
1.57013e-06
1.5753e-06
1.57908e-06
1.58136e-06
1.58238e-06
1.58167e-06
1.58084e-06
1.57464e-06
1.57848e-06
1.53894e-06
1.59205e-06
9.09247e-07
1.01528e-06
1.0692e-06
1.07431e-06
1.05106e-06
1.02771e-06
1.0294e-06
1.06917e-06
1.14444e-06
1.24239e-06
1.34808e-06
1.44945e-06
1.5386e-06
1.61284e-06
1.66944e-06
1.69375e-06
1.6889e-06
1.67091e-06
1.64729e-06
1.62095e-06
1.59105e-06
1.56324e-06
1.53403e-06
1.50462e-06
1.47589e-06
1.44813e-06
1.42151e-06
1.39618e-06
1.37235e-06
1.35016e-06
1.32973e-06
1.31117e-06
1.29448e-06
1.27974e-06
1.26716e-06
1.25716e-06
1.24898e-06
1.24419e-06
1.23869e-06
1.25068e-06
1.18727e-06
8.9907
7.70678
5.42964
4.48822
4.53136
4.55599
4.12144
3.21994
2.02997
0.859214
0.0603607
0.214594
0.0632176
0.000661559
3.88113e-07
3.25637e-05
0.000248855
0.000232881
0.000184835
0.000149394
0.000121108
9.75609e-05
7.78397e-05
6.23259e-05
5.0114e-05
4.13338e-05
3.49627e-05
3.09447e-05
2.81741e-05
2.602e-05
2.42082e-05
2.21629e-05
2.02492e-05
1.812e-05
1.60284e-05
1.44342e-05
1.30076e-05
1.23623e-05
1.20433e-05
1.27404e-05
1.32188e-05
1.38639e-05
1.48662e-05
1.52506e-05
1.59206e-05
1.60099e-05
1.59958e-05
1.58775e-05
1.54859e-05
1.48719e-05
1.41988e-05
1.33451e-05
1.24382e-05
1.14581e-05
1.04179e-05
9.41636e-06
8.37285e-06
7.37529e-06
6.39457e-06
5.48162e-06
4.60495e-06
3.81063e-06
3.07798e-06
2.41503e-06
1.82662e-06
1.31846e-06
8.96497e-07
5.9237e-07
4.82905e-07
5.03499e-07
7.02241e-07
7.2473e-07
9.52089e-07
8.63809e-07
9.6171
12.4882
10.0398
7.96701
7.08496
6.61012
6.00427
5.02502
3.66628
2.1504
0.822123
0.0195286
0.15083
0.0257751
0.00213315
2.78319e-06
0.000113695
0.000225373
0.000186783
0.000148343
0.000119675
9.61166e-05
7.62657e-05
6.06998e-05
4.8229e-05
3.92633e-05
3.26968e-05
2.86722e-05
2.60551e-05
2.42254e-05
2.27792e-05
2.11321e-05
1.96188e-05
1.77943e-05
1.59922e-05
1.45721e-05
1.32072e-05
1.24985e-05
1.20172e-05
1.24715e-05
1.27538e-05
1.31642e-05
1.40274e-05
1.42916e-05
1.48891e-05
1.49659e-05
1.4904e-05
1.47814e-05
1.44509e-05
1.38555e-05
1.323e-05
1.24363e-05
1.15899e-05
1.06787e-05
9.69572e-06
8.76403e-06
7.79281e-06
6.85858e-06
5.94074e-06
5.08873e-06
4.26811e-06
3.52576e-06
2.84845e-06
2.23023e-06
1.68614e-06
1.22146e-06
8.41251e-07
5.79319e-07
5.00435e-07
5.16798e-07
6.9908e-07
6.94547e-07
9.20132e-07
7.94659e-07
7.12225
13.2677
13.2334
11.2438
9.79064
8.90837
8.13919
7.1159
5.68556
3.9447
2.18798
0.784761
0.0548235
0.0973227
0.0110098
0.00080391
8.62079e-06
0.000139855
0.000201061
0.000152803
0.000120119
9.69147e-05
7.65759e-05
6.04079e-05
4.76309e-05
3.83413e-05
3.15901e-05
2.73274e-05
2.47263e-05
2.32342e-05
2.20314e-05
2.09197e-05
1.96606e-05
1.82041e-05
1.67995e-05
1.54604e-05
1.42198e-05
1.33938e-05
1.28488e-05
1.26697e-05
1.27631e-05
1.29599e-05
1.3343e-05
1.35689e-05
1.38537e-05
1.39349e-05
1.38346e-05
1.35953e-05
1.33034e-05
1.2757e-05
1.21541e-05
1.14286e-05
1.0646e-05
9.81288e-06
8.91082e-06
8.03647e-06
7.15748e-06
6.29275e-06
5.45283e-06
4.66687e-06
3.91576e-06
3.23064e-06
2.61634e-06
2.05164e-06
1.55961e-06
1.1462e-06
8.16028e-07
6.00711e-07
5.44543e-07
5.49644e-07
7.02945e-07
6.68838e-07
8.91741e-07
7.24811e-07
5.06659
11.8937
14.4234
13.7162
12.3938
11.3149
10.3763
9.29221
7.86026
6.04854
4.03666
2.15597
0.749812
0.0781807
0.0646506
0.00511576
0.000584054
1.02591e-05
0.00010754
0.000166404
0.00012707
9.67846e-05
7.7135e-05
6.09714e-05
4.75001e-05
3.75297e-05
3.05295e-05
2.60644e-05
2.34774e-05
2.21838e-05
2.12945e-05
2.06095e-05
1.96779e-05
1.85789e-05
1.7468e-05
1.62554e-05
1.51135e-05
1.42138e-05
1.3551e-05
1.29721e-05
1.2813e-05
1.27866e-05
1.27771e-05
1.28864e-05
1.29132e-05
1.29366e-05
1.2794e-05
1.24758e-05
1.21892e-05
1.16881e-05
1.11141e-05
1.0452e-05
9.73364e-06
8.97539e-06
8.15573e-06
7.34605e-06
6.55118e-06
5.75841e-06
4.99446e-06
4.27456e-06
3.59109e-06
2.96475e-06
2.40889e-06
1.89655e-06
1.45575e-06
1.08947e-06
8.06626e-07
6.27123e-07
5.82627e-07
5.74095e-07
7.03817e-07
6.40599e-07
8.63118e-07
6.57553e-07
3.75115
9.83241
13.9307
14.935
14.4063
13.498
12.521
11.4218
10.0606
8.32489
6.2576
4.08889
2.15289
0.760806
0.107523
0.0457795
0.00414243
0.000633496
7.69183e-06
6.56454e-05
0.000133445
0.000104596
7.62142e-05
5.98737e-05
4.75089e-05
3.73379e-05
2.97152e-05
2.47759e-05
2.21214e-05
2.0967e-05
2.0464e-05
2.01212e-05
1.95854e-05
1.88159e-05
1.79232e-05
1.68887e-05
1.58241e-05
1.48862e-05
1.40607e-05
1.32986e-05
1.28591e-05
1.2574e-05
1.23076e-05
1.22125e-05
1.2067e-05
1.19817e-05
1.17733e-05
1.14271e-05
1.11317e-05
1.06609e-05
1.01249e-05
9.52239e-06
8.86808e-06
8.18202e-06
7.43968e-06
6.70389e-06
5.98528e-06
5.26492e-06
4.57312e-06
3.91827e-06
3.29891e-06
2.73042e-06
2.22823e-06
1.76537e-06
1.37206e-06
1.04729e-06
8.05359e-07
6.49873e-07
6.09535e-07
5.86235e-07
6.98898e-07
6.07598e-07
8.32235e-07
5.91736e-07
2.87658
7.76352
12.4205
14.8831
15.4775
15.1049
14.3123
13.3079
12.097
10.565
8.64376
6.42927
4.17862
2.21916
0.829093
0.152899
0.0376756
0.00404375
0.00102854
4.38488e-06
2.16272e-05
0.000100937
9.28901e-05
6.2304e-05
4.54561e-05
3.59209e-05
2.90588e-05
2.40876e-05
2.11676e-05
1.99418e-05
1.96767e-05
1.97058e-05
1.95764e-05
1.91239e-05
1.8473e-05
1.76028e-05
1.66221e-05
1.56488e-05
1.47115e-05
1.37872e-05
1.30987e-05
1.25508e-05
1.20414e-05
1.17134e-05
1.13914e-05
1.11614e-05
1.08668e-05
1.04767e-05
1.01613e-05
9.70317e-06
9.20036e-06
8.64841e-06
8.05362e-06
7.43541e-06
6.76551e-06
6.10434e-06
5.45813e-06
4.80872e-06
4.18616e-06
3.59512e-06
3.03721e-06
2.52519e-06
2.07404e-06
1.65862e-06
1.30954e-06
1.02355e-06
8.14448e-07
6.76306e-07
6.35125e-07
5.97424e-07
6.92803e-07
5.75948e-07
8.02227e-07
5.28853e-07
2.32648
5.94957
10.4883
13.8322
15.4825
15.8495
15.4666
14.7109
13.746
12.5226
10.9207
8.91154
6.62985
4.34817
2.37782
0.963889
0.226963
0.03838
0.00532777
0.00204435
1.47883e-05
6.9723e-06
4.48234e-05
7.74807e-05
5.80527e-05
3.75208e-05
2.71919e-05
2.22401e-05
1.99659e-05
1.92481e-05
1.92392e-05
1.94948e-05
1.9636e-05
1.94966e-05
1.91446e-05
1.84572e-05
1.7576e-05
1.658e-05
1.55819e-05
1.45023e-05
1.36065e-05
1.28232e-05
1.20559e-05
1.14954e-05
1.09585e-05
1.05543e-05
1.0149e-05
9.67423e-06
9.31303e-06
8.84961e-06
8.3623e-06
7.84742e-06
7.30177e-06
6.74383e-06
6.14087e-06
5.54848e-06
4.97107e-06
4.38952e-06
3.8333e-06
3.30399e-06
2.80518e-06
2.34769e-06
1.94583e-06
1.57592e-06
1.26828e-06
1.01824e-06
8.3524e-07
7.10233e-07
6.65262e-07
6.14454e-07
6.90722e-07
5.51376e-07
7.76863e-07
4.71576e-07
1.98115
4.45652
8.50741
12.1466
14.5147
15.6006
15.7609
15.3989
14.7798
13.9453
12.7863
11.1937
9.17562
6.89484
4.62364
2.64582
1.18341
0.352129
0.0609345
0.00920362
0.00022335
0.000101144
2.45546e-06
1.6315e-06
3.32578e-05
4.55823e-05
3.40773e-05
2.32609e-05
1.80782e-05
1.69975e-05
1.78947e-05
1.91865e-05
1.99099e-05
2.00365e-05
1.98562e-05
1.93364e-05
1.85889e-05
1.76359e-05
1.66028e-05
1.54115e-05
1.43362e-05
1.33536e-05
1.2345e-05
1.15598e-05
1.0789e-05
1.01898e-05
9.641e-06
9.05481e-06
8.61231e-06
8.12195e-06
7.62732e-06
7.13391e-06
6.62306e-06
6.1148e-06
5.57118e-06
5.0401e-06
4.52648e-06
4.0086e-06
3.51534e-06
3.04491e-06
2.60257e-06
2.19715e-06
1.84232e-06
1.51517e-06
1.24574e-06
1.02713e-06
8.65401e-07
7.49869e-07
6.9969e-07
6.37115e-07
6.94475e-07
5.35751e-07
7.57363e-07
4.2162e-07
1.68662
3.27406
6.65026
10.1312
12.8052
14.4084
15.1038
15.2107
15.0101
14.613
13.9596
12.9178
11.4025
9.4525
7.23973
5.01571
3.03897
1.51583
0.562138
0.133595
0.021868
0.00111976
0.00137871
7.85821e-08
1.73612e-06
1.26626e-06
2.00909e-05
2.62668e-05
2.29696e-05
1.90532e-05
1.71053e-05
1.74796e-05
1.89404e-05
2.02149e-05
2.0726e-05
2.04222e-05
1.96943e-05
1.87452e-05
1.7703e-05
1.64672e-05
1.5254e-05
1.40941e-05
1.28775e-05
1.1874e-05
1.08762e-05
1.00702e-05
9.34883e-06
8.63191e-06
8.07667e-06
7.53198e-06
7.00579e-06
6.51479e-06
6.02303e-06
5.55137e-06
5.05746e-06
4.58028e-06
4.12461e-06
3.66579e-06
3.23164e-06
2.81708e-06
2.42829e-06
2.0724e-06
1.76169e-06
1.4741e-06
1.23894e-06
1.04667e-06
9.02216e-07
7.92983e-07
7.36798e-07
6.63713e-07
7.03451e-07
5.29087e-07
7.43435e-07
3.79612e-07
1.32352
2.32209
4.98061
7.98331
10.6051
12.4598
13.5556
14.1042
14.3327
14.377
14.23
13.7803
12.9019
11.5358
9.7341
7.65386
5.52069
3.56855