/*--------------------------------*- C++ -*----------------------------------*\
| =========                 |                                                 |
| \\      /  F ield         | OpenFOAM: The Open Source CFD Toolbox           |
|  \\    /   O peration     | Version:  2312                                  |
|   \\  /    A nd           | Website:  www.openfoam.com                      |
|    \\/     M anipulation  |                                                 |
\*---------------------------------------------------------------------------*/
FoamFile
{
    version     2.0;
    format      ascii;
    arch        "LSB;label=32;scalar=64";
    class       volVectorField;
    location    "450";
    object      momentError;
}
// * * * * * * * * * * * * * * * * * * * * * * * * * * * * * * * * * * * * * //

dimensions      [0 1 -2 0 0 0 0];

internalField   nonuniform List<vector> 
11040
(
(-1.21484 10.3302 -1.00835e-15)
(-0.878444 40.8723 -1.26615e-16)
(5.82262 16.0204 5.37666e-15)
(0.27206 -2.10516 6.92128e-16)
(-0.306567 0.598357 4.26823e-15)
(-0.439968 -0.21615 -2.79915e-15)
(-0.45646 -0.154942 -6.70204e-15)
(-0.466247 -0.152911 -1.27776e-15)
(-0.468247 -0.141487 -4.42815e-16)
(-0.412304 -0.123212 2.40411e-15)
(-0.370942 -0.102842 1.18313e-15)
(-0.354943 -0.0980374 -6.8214e-16)
(-0.301726 -0.0881059 -1.10281e-15)
(-0.237578 -0.0644217 7.65514e-16)
(-0.20261 -0.0551962 -4.51527e-16)
(-0.145507 -0.0430076 -1.12932e-15)
(-0.0786749 -0.0323881 8.6564e-16)
(-0.0318781 -0.0275489 7.9371e-16)
(0.0114603 -0.0222904 -2.97181e-16)
(0.0402988 -0.0190453 -6.15322e-17)
(0.068957 -0.0156796 6.772e-16)
(0.0799574 -0.0143305 -3.7225e-16)
(0.0828369 -0.0116802 3.1007e-16)
(0.0774878 -0.0103498 1.43632e-16)
(0.0487145 -0.00989581 -1.55741e-15)
(-0.0040304 -0.00396835 -1.1594e-15)
(-0.0465262 0.0046798 -5.53523e-16)
(-0.0941211 0.0128655 -4.13889e-16)
(-0.161697 0.0239243 -1.30784e-15)
(-0.239472 0.0385213 5.91657e-16)
(-0.36403 0.0611875 1.32905e-15)
(-0.630689 0.0983364 2.89321e-15)
(-0.810512 0.118501 3.52226e-15)
(-1.00088 0.189332 -2.72561e-16)
(-1.03577 0.424447 2.07736e-15)
(-1.04852 0.608512 8.71053e-16)
(-1.56481 0.191914 1.65491e-15)
(-1.70733 -0.0937394 -4.99873e-16)
(0.141316 0.378216 -1.6884e-15)
(-2.17929 -0.111691 -9.57466e-16)
(-7.16449 1.21466 -1.44156e-15)
(5.0675 -18.6788 8.76165e-16)
(20.6675 9.17943 3.28296e-15)
(22.285 28.1142 7.01775e-15)
(6.97872 12.3074 -1.31481e-15)
(0.943076 -1.18795 -5.13764e-16)
(-0.0332377 0.401695 -7.45034e-17)
(-0.368398 -0.123327 2.00662e-15)
(-0.232798 0.0235691 1.01512e-15)
(-0.354229 -0.0351505 -1.62029e-16)
(-0.328048 -0.0507493 -9.07491e-16)
(-0.290885 -0.0432494 1.99439e-15)
(-0.282686 -0.0263948 1.41398e-15)
(-0.227121 -0.0413116 1.50377e-15)
(-0.150689 -0.0229123 -1.86055e-17)
(-0.0742252 -0.0175221 -2.83301e-16)
(-0.0142248 -0.0159958 4.86692e-16)
(0.0249785 -0.010918 4.4919e-16)
(0.0668938 -0.0116065 4.26985e-16)
(0.102794 -0.00971033 -2.4266e-17)
(0.130335 -0.010292 -9.89656e-17)
(0.149099 -0.00884971 -2.78003e-16)
(0.168622 -0.00823326 4.17893e-16)
(0.173717 -0.00376183 2.81734e-16)
(0.170236 0.00107057 3.571e-16)
(0.166694 0.00259892 -4.12046e-16)
(0.160292 0.00563399 -7.6496e-16)
(0.122176 0.015192 8.41221e-16)
(0.0517898 0.0296615 6.48707e-16)
(-0.0463494 0.0496858 -7.92907e-16)
(-0.17584 0.0766912 -1.14385e-15)
(-0.31772 0.108841 -1.23537e-15)
(-0.40839 0.136219 -2.2488e-15)
(-0.655443 0.189867 -2.99237e-16)
(-0.939408 0.257202 1.19888e-15)
(-1.25888 0.332029 -9.62175e-16)
(-1.70441 0.373475 1.75789e-16)
(-2.43252 0.328565 -1.72929e-16)
(-2.94089 0.546918 7.79961e-16)
(-2.55702 0.998333 -5.41089e-16)
(-4.24725 1.11266 -6.33133e-16)
(-8.91134 1.4897 1.46111e-16)
(1.58249 0.495212 1.81969e-16)
(9.88914 -16.0188 -1.54563e-15)
(17.9126 -0.0237644 -8.81716e-15)
(23.1214 32.6489 3.23509e-15)
(12.4239 17.1231 1.1599e-15)
(1.47321 -0.198831 6.30405e-16)
(-0.270777 -0.493729 1.89567e-15)
(-0.0986145 -0.120824 4.10182e-16)
(-0.00163063 0.109129 -5.32522e-16)
(-0.0855679 0.0390979 -9.40215e-17)
(-0.0996462 -0.0268768 -1.59445e-15)
(-0.123334 -0.00268089 6.41413e-16)
(-0.0823376 -0.0391465 -4.50131e-17)
(-0.0128192 -0.0243908 3.10147e-16)
(0.043433 -0.0177455 8.6142e-16)
(0.106563 -0.0197005 -1.69053e-17)
(0.159822 -0.0115209 -3.2408e-16)
(0.212094 -0.0135273 -7.07624e-17)
(0.260268 -0.0111447 7.5472e-18)
(0.30139 -0.0145818 1.73801e-16)
(0.338578 -0.0157749 3.14619e-16)
(0.383961 -0.0205763 -1.01904e-16)
(0.418402 -0.0210541 1.35204e-16)
(0.446235 -0.0200201 -3.51303e-16)
(0.46526 -0.0193703 2.36936e-16)
(0.467815 -0.0179069 7.00427e-16)
(0.4485 -0.0113216 -3.61054e-16)
(0.409438 0.000120212 -4.55012e-16)
(0.350893 0.0172323 1.9436e-16)
(0.269709 0.0394101 8.67928e-16)
(0.156526 0.0708493 -3.5368e-16)
(-0.00374854 0.115473 -2.22718e-16)
(-0.235031 0.186258 2.54434e-16)
(-0.52509 0.280368 1.92436e-16)
(-0.873352 0.388506 -7.37103e-16)
(-1.37084 0.482435 -1.74559e-15)
(-2.238 0.57091 1.36236e-16)
(-3.24263 0.849034 6.98045e-16)
(-3.29814 1.41942 8.30221e-17)
(-4.7385 1.32327 9.38649e-16)
(-9.91108 1.25248 9.7595e-17)
(3.59386 -0.835844 -2.67553e-16)
(5.48305 -5.30918 -5.58128e-19)
(4.73757 -16.1714 1.99043e-15)
(12.9432 2.27117 -9.48263e-16)
(24.1743 28.9074 -1.75784e-15)
(16.3954 19.2686 2.83228e-15)
(3.70912 2.45577 9.15616e-16)
(-0.102465 -0.610971 4.43184e-16)
(0.236768 0.0100585 -3.08413e-16)
(0.110059 0.0472456 5.7518e-16)
(0.164905 0.0809598 8.87122e-16)
(0.0844749 0.0547825 -1.02601e-15)
(0.0589186 -0.0229086 8.8359e-16)
(0.11426 -0.0277151 4.88e-16)
(0.1574 -0.0197205 1.35022e-16)
(0.222053 -0.0297474 -4.67457e-16)
(0.2791 -0.0187997 -4.37554e-16)
(0.33798 -0.0238764 -2.35975e-16)
(0.394052 -0.0197027 4.62614e-17)
(0.445473 -0.0250853 -6.02342e-17)
(0.493316 -0.0260648 -4.96332e-17)
(0.554804 -0.0330749 -1.0009e-16)
(0.605034 -0.0353836 -2.04077e-16)
(0.648208 -0.0364681 -9.40536e-18)
(0.683401 -0.0359284 -9.22038e-16)
(0.70567 -0.0339859 -3.82602e-16)
(0.713934 -0.0281732 4.54477e-16)
(0.705272 -0.0183077 3.20801e-16)
(0.676336 -0.00161964 7.5469e-16)
(0.619612 0.0220715 -4.72707e-16)
(0.523189 0.0593775 6.00514e-16)
(0.38401 0.114055 -7.27141e-16)
(0.181401 0.19942 -6.45634e-16)
(-0.0927594 0.320389 4.35126e-16)
(-0.441408 0.470996 -1.52304e-16)
(-0.961836 0.621799 -8.35195e-17)
(-1.87151 0.778572 -5.50963e-16)
(-3.00317 1.13352 4.31841e-16)
(-3.39098 1.83516 -2.10182e-16)
(-4.68707 1.655 -1.16578e-16)
(-9.38379 1.45507 7.87476e-16)
(3.11905 -2.01191 2.27916e-16)
(4.5515 -1.4312 -1.63316e-16)
(4.70723 -8.25328 -2.21137e-16)
(3.5124 -16.3872 1.08213e-15)
(11.0372 -0.83296 2.2615e-16)
(22.6362 22.588 -5.14748e-16)
(19.9555 21.1245 -6.39236e-16)
(7.49892 7.00047 -1.44428e-15)
(0.420578 -0.908213 3.27149e-16)
(0.330652 -0.181729 -9.37584e-17)
(0.265478 0.0256095 5.03254e-16)
(0.335299 0.141888 2.19706e-16)
(0.250465 0.0483819 -4.34749e-16)
(0.244735 -0.0270872 -6.82615e-16)
(0.25654 -0.01723 2.1816e-16)
(0.306657 -0.0434279 1.03083e-17)
(0.356555 -0.0297232 -1.90043e-16)
(0.413353 -0.0385007 -2.71266e-16)
(0.470668 -0.031781 -5.18371e-17)
(0.526166 -0.0383247 5.68652e-17)
(0.579175 -0.0375087 1.53084e-16)
(0.648661 -0.0447072 -3.0101e-16)
(0.708371 -0.0457021 -5.9998e-17)
(0.762884 -0.0467341 4.94098e-16)
(0.813483 -0.0458126 2.98404e-16)
(0.856302 -0.0433863 -2.88659e-16)
(0.888944 -0.0373631 2.96038e-16)
(0.906802 -0.0269466 2.39001e-16)
(0.904835 -0.00857084 -4.37198e-16)
(0.874493 0.0186632 2.56812e-16)
(0.803846 0.0619561 -5.48993e-17)
(0.696636 0.126129 9.18681e-16)
(0.536175 0.226076 3.01722e-16)
(0.302401 0.370127 -3.008e-17)
(-0.00881859 0.55645 1.95979e-16)
(-0.491968 0.757062 3.07797e-16)
(-1.34302 0.975263 -1.46604e-16)
(-2.4275 1.40245 2.26362e-16)
(-3.00104 2.16498 2.01191e-17)
(-4.31579 1.78411 -2.43392e-16)
(-7.90285 2.07308 -2.1308e-16)
(3.14855 -1.79905 -7.2464e-17)
(3.12461 -1.92504 9.84533e-17)
(3.9968 -2.19819 2.4277e-16)
(3.63971 -8.98789 2.28032e-16)
(2.29616 -15.081 -1.04709e-15)
(8.10549 -4.78026 1.29456e-16)
(19.1227 14.9803 -6.26255e-16)
(21.8375 20.9684 -1.00786e-15)
(12.2228 11.3031 1.73301e-16)
(2.19982 0.63247 -3.80245e-16)
(0.362558 -0.329632 4.12008e-17)
(0.48359 0.00730654 2.55019e-17)
(0.384919 0.029789 -5.17412e-17)
(0.426556 0.043208 -3.74122e-16)
(0.388629 0.0210088 2.14357e-17)
(0.374376 -0.0576414 -2.10689e-16)
(0.407542 -0.0412485 -1.16847e-16)
(0.451829 -0.0572951 -9.92961e-17)
(0.503097 -0.0472784 -4.3963e-17)
(0.556076 -0.0546191 6.55237e-17)
(0.609656 -0.051203 5.63582e-17)
(0.681981 -0.0585605 3.68213e-17)
(0.747722 -0.057313 3.2086e-18)
(0.81047 -0.0573329 -2.17351e-16)
(0.872816 -0.0553036 1.4497e-16)
(0.931159 -0.05171 5.5932e-16)
(0.982578 -0.0444599 -4.72446e-16)
(1.02185 -0.0320683 -5.54678e-16)
(1.04319 -0.0106963 -1.81608e-16)
(1.03834 0.0215719 2.17692e-16)
(0.995143 0.0716865 4.14223e-16)
(0.919533 0.14606 -1.74537e-16)
(0.807355 0.26056 -3.35152e-16)
(0.628465 0.426352 -4.29512e-16)
(0.379194 0.644283 -1.22531e-16)
(-0.0259777 0.888801 6.4157e-16)
(-0.746725 1.16306 3.16601e-16)
(-1.6667 1.64146 3.0258e-18)
(-2.26558 2.40653 4.98105e-16)
(-3.36136 2.32344 -3.43477e-16)
(-6.26669 2.3574 -2.14012e-16)
(2.66419 -1.6163 6.47993e-17)
(2.67816 -1.92775 -3.11434e-17)
(2.55265 -1.75162 -1.24032e-16)
(3.34085 -2.70931 -5.47183e-16)
(2.66122 -7.91515 -4.14208e-16)
(1.29888 -13.4183 3.56294e-16)
(4.70742 -8.57768 4.51001e-16)
(14.2301 6.93538 -1.32245e-16)
(21.1912 18.2023 9.39373e-16)
(16.4901 14.1222 -5.13437e-16)
(6.74601 5.01029 2.96119e-16)
(0.625836 -0.607503 -8.50532e-17)
(0.549056 -0.202802 6.81796e-16)
(0.528931 -0.0171649 -7.40139e-16)
(0.504808 0.0168886 1.54528e-16)
(0.496848 -0.00538054 -1.93411e-16)
(0.483853 -0.0247875 -1.50579e-17)
(0.475337 -0.0740372 9.75879e-17)
(0.510379 -0.0626298 -3.25533e-18)
(0.552523 -0.0731381 -2.12616e-16)
(0.60166 -0.0665851 2.11128e-16)
(0.673013 -0.0744529 -1.69269e-16)
(0.741992 -0.0707688 -1.40412e-16)
(0.810018 -0.0696254 2.32385e-16)
(0.880558 -0.0660678 -1.51733e-16)
(0.949673 -0.0605478 -1.79049e-16)
(1.01461 -0.0512761 -1.18442e-16)
(1.07058 -0.036022 -9.71187e-17)
(1.11176 -0.0109335 -9.44507e-18)
(1.13078 0.0270393 1.98185e-16)
(1.11569 0.0843469 9.66934e-17)
(1.06926 0.167829 1.91136e-16)
(1.00866 0.295171 -2.52114e-16)
(0.894344 0.478808 -4.73009e-16)
(0.723764 0.721363 -2.04106e-16)
(0.425764 1.00203 5.30719e-16)
(-0.114498 1.32828 -5.04385e-18)
(-0.797375 1.83845 -1.95659e-17)
(-1.29426 2.54432 1.95699e-16)
(-2.09288 2.68527 2.67572e-16)
(-4.07972 2.55737 -1.93441e-16)
(2.21503 -1.48335 -1.86905e-17)
(2.27188 -1.67676 4.72181e-17)
(1.95649 -1.68105 -4.14114e-17)
(2.32051 -1.97581 6.9806e-17)
(2.7675 -2.80479 2.08842e-16)
(2.14105 -6.42805 6.93706e-16)
(0.638064 -11.4708 -5.8861e-16)
(1.82233 -10.65 -9.50014e-16)
(9.01196 -0.130639 1.77069e-16)
(17.4989 12.1808 4.99513e-16)
(18.7077 14.9622 1.64498e-15)
(11.5796 8.92123 -1.8411e-15)
(3.66173 1.8511 7.59286e-16)
(0.373551 -0.684056 -1.9127e-16)
(0.625003 -0.146226 -4.35682e-16)
(0.569167 -0.0354533 5.25567e-16)
(0.567227 -0.0198768 3.82199e-17)
(0.551522 -0.0366099 4.1603e-16)
(0.542835 -0.0550337 -2.60992e-16)
(0.541163 -0.0882183 -2.32563e-16)
(0.57481 -0.0812777 3.06311e-16)
(0.639521 -0.0919067 -9.1661e-17)
(0.708471 -0.0860046 -2.05451e-16)
(0.778657 -0.0840868 6.30245e-17)
(0.854494 -0.0793893 8.59816e-17)
(0.931159 -0.0720953 -7.41028e-17)
(1.00626 -0.0606214 -1.20762e-16)
(1.07572 -0.0423567 2.79504e-16)
(1.1345 -0.0134981 3.10249e-16)
(1.17664 0.0298008 -1.72709e-16)
(1.19157 0.0936256 -2.74712e-16)
(1.17478 0.183964 -9.57499e-17)
(1.165 0.320216 2.0807e-16)
(1.12257 0.514617 1.40795e-16)
(1.04282 0.771351 -4.85162e-17)
(0.873764 1.0763 -1.61457e-16)
(0.545685 1.44202 2.96877e-16)
(0.139162 1.95742 -2.97851e-16)
(-0.152181 2.57706 7.03998e-17)
(-0.587987 2.82074 8.28463e-17)
(-1.68757 2.62676 1.95479e-16)
(1.79621 -1.31909 -4.4379e-17)
(1.86398 -1.49652 6.85739e-18)
(1.61856 -1.40562 6.61648e-18)
(1.67778 -1.72641 -1.11095e-16)
(1.98499 -2.07472 5.84614e-17)
(2.25826 -2.61978 -7.75688e-18)
(1.79876 -4.95972 -1.69771e-16)
(0.334145 -9.10624 5.9919e-16)
(0.0355867 -10.843 -2.46361e-16)
(4.1048 -5.57338 7.43019e-16)
(11.8709 4.82183 6.83917e-17)
(17.3676 12.2122 -3.37142e-16)
(15.123 10.95 9.60227e-17)
(8.24371 5.48441 -3.28915e-16)
(2.21008 0.573345 -4.93779e-16)
(0.414326 -0.55085 5.27394e-17)
(0.638171 -0.135049 2.18579e-16)
(0.594952 -0.0523193 3.45737e-16)
(0.589287 -0.0480851 -4.85581e-17)
(0.577253 -0.0604642 -2.81488e-16)
(0.575314 -0.0749354 2.73489e-16)
(0.607191 -0.104682 1.03983e-17)
(0.664809 -0.100951 -4.45786e-17)
(0.730854 -0.100146 1.19156e-16)
(0.808216 -0.0956346 1.57861e-16)
(0.890305 -0.087361 2.10715e-16)
(0.974275 -0.0744291 3.69863e-17)
(1.05636 -0.0540933 1.2376e-17)
(1.13279 -0.0225645 -1.32685e-16)
(1.1992 0.0247767 4.74928e-18)
(1.24714 0.093297 -1.53459e-16)
(1.26787 0.188724 4.70485e-17)
(1.30211 0.326263 -8.96545e-17)
(1.33625 0.521799 -9.18204e-17)
(1.3556 0.778431 5.44309e-17)
(1.33023 1.09027 1.2452e-16)
(1.22898 1.46976 2.68445e-17)
(1.11033 1.9552 8.40578e-18)
(1.0923 2.47378 -1.10076e-16)
(1.04678 2.70487 1.77666e-16)
(0.708629 2.4626 3.97241e-17)
(1.42614 -1.16055 1.40101e-16)
(1.49667 -1.31394 -3.81648e-17)
(1.33454 -1.25405 -1.15847e-16)
(1.30939 -1.3827 1.18186e-16)
(1.43595 -1.75331 -7.99627e-17)
(1.65356 -2.06939 6.63199e-17)
(1.83131 -2.40619 5.78741e-16)
(1.52922 -3.77528 -1.04947e-15)
(0.358902 -6.78248 -2.61428e-16)
(-0.722318 -9.56891 1.79263e-15)
(0.672939 -8.35311 2.85096e-17)
(6.04214 -1.73012 -1.41902e-16)
(12.6956 6.53264 -7.65818e-16)
(15.5504 10.3514 5.0835e-16)
(12.1735 7.99297 -1.23316e-15)
(6.18068 3.52055 2.76111e-16)
(1.62812 0.135674 -6.26398e-17)
(0.465842 -0.453587 2.96076e-16)
(0.623524 -0.134569 -1.28427e-16)
(0.59266 -0.0685812 -3.26354e-16)
(0.58765 -0.0669654 2.12257e-16)
(0.611299 -0.0871913 -6.95395e-17)
(0.649016 -0.0942189 -9.90828e-17)
(0.691634 -0.108283 1.38984e-16)
(0.757926 -0.111182 1.21639e-16)
(0.839009 -0.105803 -1.2226e-16)
(0.928882 -0.094054 7.10295e-17)
(1.02323 -0.0740408 1.25355e-16)
(1.11845 -0.0426516 5.32408e-17)
(1.21127 0.00510943 -7.4906e-17)
(1.29575 0.0743662 6.55543e-17)
(1.36566 0.17086 8.50006e-17)
(1.43959 0.301738 7.53487e-17)
(1.5522 0.486817 7.29824e-17)
(1.67475 0.726713 1.41807e-16)
(1.79797 1.02099 -1.68826e-16)
(1.9186 1.37818 6.48875e-17)
(2.07192 1.79474 1.15027e-17)
(2.34681 2.1938 2.96808e-17)
(2.67679 2.33482 -2.65746e-17)
(2.93146 2.03713 -3.66594e-17)
(1.11056 -1.00785 2.58409e-17)
(1.17235 -1.14177 9.03765e-17)
(1.06932 -1.10017 7.62193e-17)
(1.04634 -1.18578 -5.82197e-17)
(1.05165 -1.3462 -3.18285e-17)
(1.18353 -1.69837 1.97274e-16)
(1.33213 -2.0053 8.9862e-17)
(1.44691 -2.23678 -3.68072e-16)
(1.28162 -2.93741 4.20223e-16)
(0.490872 -4.82433 -6.40394e-16)
(-0.743744 -7.45434 -1.30052e-15)
(-1.01617 -8.54019 -3.03441e-16)
(1.44061 -5.7765 4.57863e-16)
(6.76497 0.311716 -5.33725e-16)
(12.0254 6.25287 -5.15523e-16)
(13.2681 8.09455 7.07444e-16)
(9.95981 5.91786 -1.41965e-16)
(5.03755 2.49499 7.74633e-16)
(1.47616 0.0492722 7.27593e-17)
(0.478933 -0.399104 -4.01889e-16)
(0.584852 -0.14312 3.55071e-17)
(0.609192 -0.0920493 -3.71584e-17)
(0.641577 -0.0828542 -2.01307e-17)
(0.678627 -0.0942077 -1.17724e-16)
(0.731811 -0.104276 2.68176e-16)
(0.799576 -0.112296 -2.02764e-17)
(0.883265 -0.111491 -9.98065e-17)
(0.981655 -0.0992578 4.97754e-18)
(1.09144 -0.0749482 -4.11032e-17)
(1.21022 -0.0336729 3.39935e-17)
(1.33477 0.0294878 -1.62559e-16)
(1.4605 0.119156 2.82692e-17)
(1.58432 0.237474 1.04111e-16)
(1.76416 0.392911 1.53302e-16)
(1.99154 0.596385 1.00384e-16)
(2.26016 0.845336 -1.06253e-16)
(2.57813 1.13967 -1.18819e-16)
(2.96024 1.45167 -9.16583e-17)
(3.49236 1.70586 -2.19148e-16)
(4.13892 1.72535 -2.08484e-16)
(4.79353 1.37092 -1.2013e-16)
(0.84652 -0.865125 7.77887e-17)
(0.897608 -0.982053 6.67742e-17)
(0.829954 -0.954195 -1.18013e-16)
(0.82556 -1.03084 -4.25985e-17)
(0.811505 -1.11602 9.87322e-17)
(0.852692 -1.31344 -6.96667e-18)
(0.94207 -1.61345 -1.55082e-16)
(1.03048 -1.89288 5.79491e-17)
(1.0987 -2.07951 1.23592e-15)
(1.03107 -2.40886 -4.0942e-16)
(0.570455 -3.40853 -1.01932e-15)
(-0.409283 -5.26001 1.2154e-15)
(-1.36672 -7.10038 5.46339e-16)
(-0.98606 -7.10953 9.46056e-17)
(1.83763 -4.05672 1.36074e-16)
(6.50805 0.966148 -3.90324e-16)
(10.5063 5.18088 -1.41917e-16)
(11.1449 6.20432 2.1772e-16)
(8.41921 4.54549 6.29584e-16)
(4.48583 2.01228 -8.64453e-16)
(1.54581 0.131645 3.23416e-17)
(0.610554 -0.351503 -2.40738e-17)
(0.587756 -0.232219 -6.53154e-17)
(0.654708 -0.126155 -4.21871e-17)
(0.708945 -0.0949816 1.83559e-16)
(0.769329 -0.0983057 9.95802e-17)
(0.849517 -0.105827 -1.76969e-16)
(0.947083 -0.10803 -8.28739e-17)
(1.06062 -0.102756 3.57665e-17)
(1.19446 -0.0813648 -4.25318e-17)
(1.34804 -0.0394302 6.43334e-17)
(1.52017 0.0267514 -2.94111e-17)
(1.71027 0.11865 5.25886e-17)
(1.93622 0.233555 -1.97604e-17)
(2.25841 0.378073 -1.25155e-16)
(2.65807 0.550613 -2.34837e-17)
(3.1377 0.740161 2.4442e-17)
(3.69187 0.916242 7.60233e-17)
(4.40199 1.01236 -2.45037e-17)
(5.25333 0.903764 -4.91802e-17)
(6.13676 0.490863 -1.71988e-17)
(0.632782 -0.734125 -5.72941e-17)
(0.670962 -0.834858 3.37833e-17)
(0.625014 -0.818423 9.84951e-20)
(0.627907 -0.884653 -1.13503e-16)
(0.623579 -0.959573 1.20909e-17)
(0.621946 -1.05078 4.18685e-17)
(0.663154 -1.24393 -1.8445e-16)
(0.716398 -1.49593 -3.08062e-16)
(0.760407 -1.74235 4.10909e-17)
(0.793615 -1.92255 -3.19808e-16)
(0.771227 -2.09056 4.69646e-16)
(0.541476 -2.52316 7.29997e-17)
(-0.0748942 -3.57042 -3.07758e-16)
(-1.0191 -5.12523 -3.27716e-16)
(-1.66188 -6.28709 3.82902e-16)
(-0.974737 -5.7834 5.19005e-16)
(1.65366 -3.10439 -1.7251e-15)
(5.50833 0.75551 1.41071e-15)
(8.67149 3.85342 2.29492e-16)
(9.28609 4.68218 -5.87773e-16)
(7.35067 3.61836 4.09311e-16)
(4.61941 1.96857 -1.15864e-16)
(2.1983 0.476432 -1.20956e-16)
(1.06408 -0.216978 -8.74191e-17)
(0.808854 -0.312918 3.15897e-16)
(0.769452 -0.237495 1.05279e-17)
(0.796958 -0.159092 -4.0692e-17)
(0.894015 -0.116123 -2.04271e-16)
(1.01538 -0.104145 1.22846e-16)
(1.15951 -0.101111 2.33951e-16)
(1.32954 -0.0918845 -2.45813e-17)
(1.53086 -0.0698198 -8.1366e-17)
(1.76829 -0.0293941 -2.20048e-17)
(2.03544 0.0289984 -1.40428e-17)
(2.39263 0.0914317 -1.24455e-16)
(2.86799 0.159369 4.36485e-17)
(3.45521 0.221485 -3.38124e-18)
(4.11763 0.244497 -5.84425e-17)
(4.93593 0.180844 3.5909e-18)
(5.87863 -0.0544356 4.28736e-17)
(6.84778 -0.525386 5.0968e-17)
(0.463038 -0.615796 6.77117e-17)
(0.488958 -0.701627 -5.17273e-17)
(0.456233 -0.693336 -4.96274e-17)
(0.459384 -0.750729 -9.75933e-18)
(0.459596 -0.81385 9.86559e-17)
(0.455318 -0.876992 2.79294e-17)
(0.454629 -0.970585 1.61235e-16)
(0.487793 -1.15397 2.11322e-16)
(0.512919 -1.36076 7.54098e-17)
(0.5267 -1.57121 -6.78639e-16)
(0.531527 -1.74615 -3.47603e-16)
(0.516283 -1.85894 -7.58945e-17)
(0.414702 -2.02805 -6.17497e-16)
(0.0908564 -2.4947 4.71663e-16)
(-0.550314 -3.42425 1.61066e-15)
(-1.35497 -4.59929 -8.51829e-16)
(-1.77846 -5.3186 -2.50451e-16)
(-1.08917 -4.76388 3.40486e-16)
(1.06143 -2.70766 -3.76835e-16)
(4.12812 0.149961 1.0833e-15)
(6.76111 2.51213 -1.86034e-16)
(8.0194 3.54777 -5.57631e-16)
(7.30554 3.25153 -8.43728e-16)
(5.60718 2.34024 4.25812e-16)
(3.67189 1.20502 4.76145e-16)
(2.21686 0.292617 1.29679e-17)
(1.51748 -0.173981 6.28321e-17)
(1.28569 -0.325061 1.41655e-17)
(1.23005 -0.330172 4.55789e-18)
(1.26015 -0.276302 1.25446e-16)
(1.35078 -0.212349 9.43573e-17)
(1.4857 -0.163912 -1.69438e-16)
(1.70264 -0.140402 1.80312e-17)
(2.00755 -0.134413 -2.36913e-17)
(2.36603 -0.140854 -7.3846e-17)
(2.83664 -0.179107 6.52163e-18)
(3.41322 -0.252321 1.22231e-16)
(4.08396 -0.370116 -6.36963e-17)
(4.91128 -0.581158 -3.56963e-17)
(5.85701 -0.929787 -2.46035e-17)
(6.81819 -1.46414 1.61696e-17)
(0.33121 -0.510943 -2.57376e-17)
(0.346199 -0.582562 4.20273e-17)
(0.321083 -0.579776 6.84612e-18)
(0.321936 -0.628862 7.9122e-17)
(0.321701 -0.68191 -6.92324e-17)
(0.319257 -0.735292 1.85036e-17)
(0.314879 -0.791318 4.33765e-17)
(0.318389 -0.902107 -8.1248e-17)
(0.330499 -1.05331 2.32073e-16)
(0.335331 -1.21754 2.3103e-16)
(0.328598 -1.38874 -5.87033e-16)
(0.311583 -1.54055 1.00614e-15)
(0.28842 -1.64937 8.9199e-16)
(0.238505 -1.73064 -9.04091e-16)
(0.0923302 -1.89442 -5.36549e-16)
(-0.249246 -2.30583 -4.13714e-16)
(-0.823961 -3.03431 9.50353e-16)
(-1.47681 -3.88516 -9.07094e-16)
(-1.80202 -4.38219 1.82719e-16)
(-1.30514 -4.0089 4.67657e-16)
(0.282409 -2.61274 -3.17341e-16)
(2.71235 -0.696734 -2.87662e-16)
(4.99871 1.07917 1.46594e-16)
(6.48244 2.20531 2.09342e-16)
(6.90129 2.59167 -3.7522e-16)
(6.48948 2.44242 8.5053e-17)
(5.53462 1.92775 3.71381e-16)
(4.3443 1.22107 -6.41448e-16)
(3.30556 0.54606 1.70336e-16)
(2.65633 0.0547271 1.77423e-16)
(2.35165 -0.246996 -4.02354e-17)
(2.25125 -0.415309 -1.49009e-16)
(2.27828 -0.495002 7.09615e-18)
(2.39391 -0.51751 2.20681e-16)
(2.59045 -0.521925 4.30669e-17)
(2.8457 -0.53688 -1.90843e-17)
(3.18172 -0.59159 -5.64745e-17)
(3.60658 -0.706503 -3.35868e-17)
(4.23453 -0.975174 -8.07713e-17)
(5.08029 -1.36273 2.02317e-17)
(5.92825 -1.91147 5.58006e-17)
(0.23107 -0.419058 -3.05045e-17)
(0.237242 -0.478625 3.36199e-17)
(0.216295 -0.478879 -2.78645e-17)
(0.213716 -0.519844 -1.17974e-16)
(0.210984 -0.563786 1.38596e-17)
(0.207863 -0.608103 -1.04123e-16)
(0.202604 -0.654982 -3.23199e-17)
(0.195745 -0.713732 9.61052e-17)
(0.195018 -0.819132 -8.18443e-17)
(0.193037 -0.942465 2.81656e-18)
(0.183802 -1.07139 -3.74616e-16)
(0.163888 -1.20072 3.3177e-16)
(0.134481 -1.32726 -2.26944e-16)
(0.100564 -1.43181 -8.29866e-16)
(0.0615596 -1.50015 1.12224e-15)
(-0.00651786 -1.55859 4.22052e-16)
(-0.159905 -1.69109 2.34187e-16)
(-0.465426 -2.0018 -5.49067e-18)
(-0.935322 -2.52242 -2.18092e-16)
(-1.46488 -3.13021 -1.69623e-16)
(-1.76694 -3.52065 -8.28765e-17)
(-1.57013 -3.55513 2.13074e-16)
(-0.66776 -2.94251 -4.52843e-16)
(0.769702 -1.89694 -1.95876e-17)
(2.446 -0.688906 2.17887e-16)
(4.01605 0.37882 -2.07073e-16)
(5.18072 1.12723 -4.89662e-16)
(5.84795 1.53906 5.99094e-16)
(6.07916 1.65751 6.51212e-16)
(5.9413 1.5278 -5.05982e-16)
(5.5246 1.2058 -1.03457e-16)
(4.99107 0.774544 -1.06135e-16)
(4.51963 0.328769 -1.17619e-16)
(4.19741 -0.0713009 3.84124e-16)
(4.04856 -0.416642 -1.50648e-16)
(4.03359 -0.715839 -5.38098e-17)
(4.11697 -0.977242 8.77838e-17)
(4.22748 -1.18917 -1.88893e-17)
(4.49749 -1.40852 8.77602e-17)
(4.81896 -1.68181 7.79079e-17)
(5.23509 -2.05013 -4.73757e-18)
(0.155068 -0.339116 3.2399e-18)
(0.15506 -0.38908 4.49235e-17)
(0.136733 -0.391139 1.34899e-17)
(0.131057 -0.424751 -1.71539e-17)
(0.125643 -0.46048 -3.37952e-17)
(0.12034 -0.496712 -1.24472e-17)
(0.114201 -0.535051 8.90863e-17)
(0.106378 -0.576326 8.97282e-17)
(0.0960154 -0.63546 -3.75591e-17)
(0.0884161 -0.729064 -1.22528e-16)
(0.0760455 -0.827123 -3.05405e-16)
(0.0577195 -0.92328 2.74141e-16)
(0.0310635 -1.02127 -3.26003e-16)
(-0.00392724 -1.11914 -2.46777e-16)
(-0.0442298 -1.20878 4.28776e-16)
(-0.0859522 -1.27698 2.77457e-16)
(-0.131829 -1.31834 3.86967e-16)
(-0.202131 -1.35513 -6.6755e-16)
(-0.335944 -1.44168 -3.70846e-16)
(-0.578543 -1.64257 1.15963e-15)
(-0.940003 -1.98204 -5.88115e-16)
(-1.40924 -2.50973 -1.33501e-16)
(-1.74754 -2.9192 1.39049e-16)
(-1.84641 -3.13137 -3.96634e-16)
(-1.61245 -3.07314 6.24431e-16)
(-1.03529 -2.74224 -3.85697e-16)
(-0.172174 -2.1998 -5.1103e-16)
(0.88051 -1.55298 2.19064e-16)
(1.97998 -0.918425 1.7524e-16)
(2.96237 -0.386363 8.6034e-16)
(3.79803 0.0160672 -4.8001e-16)
(4.41882 0.258421 -3.93907e-16)
(4.8524 0.359712 2.54998e-16)
(5.0861 0.327138 1.69924e-17)
(5.16418 0.171463 -5.68709e-17)
(5.13239 -0.0789752 2.14319e-17)
(5.05226 -0.392589 1.6862e-17)
(4.93002 -0.725879 6.55305e-17)
(4.88116 -1.09783 -7.29666e-17)
(4.87542 -1.47946 2.72936e-17)
(5.00419 -1.93255 -3.41871e-17)
(0.107502 -0.288777 -1.95048e-17)
(0.101718 -0.327698 1.69598e-17)
(0.0845253 -0.330255 1.10471e-17)
(0.0757211 -0.356089 -5.1572e-18)
(0.0673634 -0.383222 5.95994e-17)
(0.0593696 -0.410777 -7.41544e-17)
(0.0511052 -0.44003 -1.55925e-16)
(0.0417457 -0.471683 1.49962e-16)
(0.0312071 -0.506727 3.78997e-16)
(0.0174445 -0.569796 -4.1616e-16)
(0.00166464 -0.646207 -7.19786e-17)
(-0.0176815 -0.721573 5.96337e-16)
(-0.0420777 -0.796649 -4.18139e-16)
(-0.0727299 -0.871257 1.40655e-16)
(-0.109918 -0.945149 -6.88252e-17)
(-0.152464 -1.01597 -8.80353e-16)
(-0.197405 -1.07719 1.5198e-15)
(-0.24187 -1.12001 4.86123e-16)
(-0.288368 -1.14211 -1.31168e-15)
(-0.351337 -1.15757 1.10906e-15)
(-0.458717 -1.20447 -8.57521e-17)
(-0.682564 -1.39868 -8.81977e-16)
(-0.971176 -1.64834 1.45566e-16)
(-1.31388 -1.95837 3.82777e-16)
(-1.66006 -2.28325 -6.6133e-16)
(-1.9477 -2.56305 4.51594e-17)
(-2.12036 -2.75215 1.11731e-16)
(-2.13881 -2.82609 8.23193e-17)
(-1.99024 -2.77838 -4.94285e-16)
(-1.65538 -2.579 3.95094e-16)
(-1.25092 -2.33805 6.02323e-16)
(-0.711146 -2.04386 -8.57573e-17)
(-0.156302 -1.73748 -2.09813e-16)
(0.367541 -1.46693 -4.04516e-16)
(0.830492 -1.26087 8.51404e-17)
(1.21272 -1.126 2.50599e-17)
(1.49927 -1.06087 6.52749e-17)
(1.68245 -1.04665 6.03724e-18)
(1.77348 -1.12099 9.2443e-17)
(1.75696 -1.25297 7.34589e-17)
(1.73163 -1.47532 -4.01335e-17)
(0.075083 -0.248624 -2.62707e-17)
(0.0657331 -0.278615 -3.2013e-17)
(0.0496275 -0.280949 1.6228e-19)
(0.0390393 -0.300583 4.79157e-17)
(0.0290373 -0.32104 3.21909e-17)
(0.0193935 -0.3418 -6.38255e-17)
(0.00965072 -0.364019 -7.21903e-18)
(-0.000690663 -0.388043 7.61424e-17)
(-0.0120139 -0.41418 -2.05085e-16)
(-0.0263175 -0.448859 -4.14088e-17)
(-0.0441703 -0.50967 6.07168e-16)
(-0.0651751 -0.570322 1.10317e-16)
(-0.0893133 -0.630155 -8.4811e-16)
(-0.117591 -0.688746 2.0338e-16)
(-0.150534 -0.745719 2.66072e-16)
(-0.18839 -0.800863 -1.11467e-15)
(-0.23101 -0.853857 1.36826e-17)
(-0.277215 -0.902641 5.83428e-16)
(-0.324352 -0.942717 6.59688e-16)
(-0.370409 -0.967935 -4.07406e-16)
(-0.414844 -0.978065 1.66352e-16)
(-0.502303 -1.04227 4.12043e-16)
(-0.606306 -1.10095 -7.44531e-16)
(-0.752219 -1.18803 -2.45147e-16)
(-0.94826 -1.31382 7.92061e-17)
(-1.19187 -1.47711 2.5001e-16)
(-1.47051 -1.66654 -1.32434e-16)
(-1.76517 -1.86393 2.59664e-16)
(-2.05159 -2.04593 -1.31318e-16)
(-2.31407 -2.19638 -6.00035e-17)
(-2.51206 -2.28455 2.88521e-16)
(-2.66478 -2.32155 -2.09555e-16)
(-2.75744 -2.29544 -8.63813e-17)
(-2.78696 -2.20499 3.26868e-16)
(-2.77297 -2.06512 -3.55425e-16)
(-2.7266 -1.88907 2.17567e-16)
(-2.68272 -1.69643 1.54079e-16)
(-2.62754 -1.49698 -2.60443e-16)
(-2.61906 -1.32836 5.12113e-17)
(-2.66504 -1.18233 9.77845e-17)
(-2.72637 -1.09867 1.96486e-17)
(0.0517673 -0.214019 -6.92767e-18)
(0.0406091 -0.237242 -1.35287e-17)
(0.0255348 -0.239074 -3.16292e-18)
(0.0143012 -0.253969 1.83339e-17)
(0.00358649 -0.269369 4.25696e-18)
(-0.0067385 -0.285036 2.65567e-18)
(-0.0171786 -0.301894 -2.31292e-17)
(-0.0280106 -0.320259 1.45815e-17)
(-0.039707 -0.340214 5.69265e-17)
(-0.052185 -0.362357 -6.21526e-17)
(-0.0709757 -0.404267 7.61692e-17)
(-0.092649 -0.45241 -8.44335e-17)
(-0.116853 -0.500163 6.19753e-17)
(-0.143912 -0.546694 3.79076e-16)
(-0.174329 -0.591529 -4.8042e-16)
(-0.208204 -0.634217 -2.21715e-16)
(-0.245698 -0.674363 -1.16292e-16)
(-0.286926 -0.711916 8.20102e-17)
(-0.331498 -0.746495 3.21016e-16)
(-0.378839 -0.776574 -1.45767e-16)
(-0.425177 -0.799994 -4.55774e-16)
(-0.500968 -0.860798 3.60198e-16)
(-0.568038 -0.898199 3.89004e-16)
(-0.641329 -0.929995 -6.42484e-16)
(-0.728091 -0.96228 2.69502e-16)
(-0.835581 -1.00132 2.04694e-16)
(-0.969355 -1.0518 -3.39252e-16)
(-1.13211 -1.11553 6.07806e-16)
(-1.32321 -1.19094 -1.62241e-16)
(-1.53788 -1.27217 -4.81445e-16)
(-1.76986 -1.35168 -6.87097e-18)
(-2.01043 -1.42006 5.42758e-16)
(-2.25003 -1.46663 -4.34906e-16)
(-2.47344 -1.47911 -1.42389e-16)
(-2.68673 -1.45714 3.03656e-16)
(-2.88284 -1.39487 1.9735e-17)
(-3.06459 -1.29178 -5.09746e-17)
(-3.19889 -1.14299 -2.80811e-17)
(-3.35176 -0.965679 2.53336e-17)
(-3.48522 -0.750708 -4.5822e-18)
(-3.62553 -0.54232 4.43281e-17)
(0.0347854 -0.184222 1.2209e-17)
(0.0230333 -0.202099 -2.07465e-17)
(0.00898312 -0.203338 -4.28552e-18)
(-0.00224729 -0.21458 6.02506e-18)
(-0.0130685 -0.226067 1.16923e-17)
(-0.0235086 -0.237803 -1.30223e-17)
(-0.0340686 -0.2505 3.43124e-17)
(-0.0449914 -0.264449 3.10024e-17)
(-0.0565191 -0.279649 -8.48162e-17)
(-0.069005 -0.296571 -5.07399e-17)
(-0.0851731 -0.32101 1.35496e-17)
(-0.106714 -0.359324 -1.10952e-16)
(-0.130598 -0.397325 -6.74623e-17)
(-0.156551 -0.433927 1.77981e-16)
(-0.18499 -0.469034 1.27939e-16)
(-0.216022 -0.502101 4.18199e-18)
(-0.249611 -0.532764 -5.06517e-17)
(-0.285816 -0.560548 -9.09689e-17)
(-0.324585 -0.5854 1.87233e-16)
(-0.366412 -0.607021 2.28965e-16)
(-0.409754 -0.626064 1.96066e-17)
(-0.483716 -0.677503 -4.13478e-16)
(-0.550896 -0.71366 -4.297e-17)
(-0.620122 -0.744289 2.62149e-16)
(-0.691612 -0.768671 3.40698e-16)
(-0.766693 -0.786874 -1.72906e-16)
(-0.84744 -0.800057 -4.52937e-16)
(-0.936545 -0.810017 -3.78277e-16)
(-1.03654 -0.818413 1.39163e-16)
(-1.14949 -0.826374 3.32593e-16)
(-1.27595 -0.833647 -6.46223e-17)
(-1.41546 -0.839358 1.16002e-16)
(-1.56601 -0.840752 -2.14199e-17)
(-1.71923 -0.83286 3.10033e-17)
(-1.88026 -0.815235 -2.17329e-16)
(-2.04205 -0.782876 1.38282e-16)
(-2.20033 -0.729534 5.01295e-18)
(-2.32626 -0.647588 6.81481e-17)
(-2.46396 -0.543136 -9.07742e-17)
(-2.57216 -0.402167 1.14314e-16)
(-2.68041 -0.256074 -2.19124e-17)
(0.0224615 -0.158386 2.95783e-17)
(0.0107266 -0.172178 -1.371e-17)
(-0.00220593 -0.172786 1.26867e-17)
(-0.013124 -0.181139 -6.74435e-18)
(-0.0236236 -0.189588 -2.2504e-17)
(-0.0338453 -0.198227 2.96792e-17)
(-0.044141 -0.207666 -4.20359e-17)
(-0.0548277 -0.218106 9.34413e-17)
(-0.0659845 -0.22958 -1.96851e-16)
(-0.0781259 -0.242351 -2.72634e-18)
(-0.091702 -0.257421 3.38823e-16)
(-0.112054 -0.285277 -3.41825e-16)
(-0.13506 -0.315122 -3.71423e-17)
(-0.15981 -0.34369 3.29345e-16)
(-0.186372 -0.370798 2.30585e-16)
(-0.21492 -0.395958 1.03047e-16)
(-0.245332 -0.418972 -2.2687e-16)
(-0.277604 -0.439297 -5.8777e-16)
(-0.311584 -0.45684 3.68769e-16)
(-0.347553 -0.470999 -1.59846e-16)
(-0.384589 -0.482579 2.91668e-16)
(-0.449933 -0.518211 4.20724e-16)
(-0.510818 -0.54313 -6.81912e-16)
(-0.575278 -0.564865 -2.1518e-18)
(-0.642926 -0.582801 3.5754e-16)
(-0.713276 -0.595898 -2.18458e-16)