/*--------------------------------*- C++ -*----------------------------------*\
| =========                 |                                                 |
| \\      /  F ield         | OpenFOAM: The Open Source CFD Toolbox           |
|  \\    /   O peration     | Version:  2312                                  |
|   \\  /    A nd           | Website:  www.openfoam.com                      |
|    \\/     M anipulation  |                                                 |
\*---------------------------------------------------------------------------*/
FoamFile
{
    version     2.0;
    format      ascii;
    arch        "LSB;label=32;scalar=64";
    class       volScalarField;
    location    "450";
    object      nuTilda;
}
// * * * * * * * * * * * * * * * * * * * * * * * * * * * * * * * * * * * * * //

dimensions      [0 2 -1 0 0 0 0];

internalField   nonuniform List<scalar> 
11040
(
7.37034e-05
8.52937e-05
5.11768e-05
9.00435e-05
0.000211339
0.000200088
0.000192534
0.000184054
0.000174543
0.000168915
0.000163232
0.000158562
0.000154399
0.000151262
0.000148918
0.000147958
0.000148642
0.000150885
0.000154253
0.000158603
0.000164042
0.000170451
0.00017767
0.000185606
0.000194317
0.000204566
0.000216753
0.000229311
0.000241516
0.000252848
0.000262656
0.000270171
0.000274693
0.000276375
0.000277282
0.000286839
0.000285587
0.000204334
0.000215124
0.000239513
0.000334047
3.67574e-05
7.31113e-05
8.64244e-05
0.000171449
0.000635465
0.000633369
0.000566736
0.000519957
0.000459205
0.000424914
0.000389989
0.000362649
0.000336553
0.000315957
0.000298281
0.000285465
0.000279103
0.0002783
0.000280332
0.000284023
0.000289461
0.000296971
0.000305092
0.000312571
0.000319581
0.000331468
0.000356142
0.000386504
0.000420671
0.000458893
0.000501499
0.000549241
0.000602216
0.000660149
0.000724707
0.00079999
0.000886764
0.000978199
0.00108503
0.00122386
0.00178488
3.8868e-05
4.62215e-05
6.69444e-05
9.90127e-05
0.000447259
0.0010242
0.00122621
0.00117047
0.00103738
0.000964004
0.000885957
0.000827871
0.000770237
0.000724778
0.000685054
0.00065199
0.000626762
0.000608121
0.000596919
0.000592121
0.00059462
0.000605424
0.000625714
0.000656915
0.000699429
0.000753681
0.00081951
0.000895606
0.000981397
0.00107672
0.00118112
0.0012944
0.0014163
0.00154728
0.00168829
0.00184315
0.00201957
0.00222627
0.00247143
0.00280237
0.0038312
4.08489e-05
3.84602e-05
4.75512e-05
4.86269e-05
0.000164436
0.000641414
0.00138879
0.00177649
0.00183958
0.00174339
0.0016098
0.00151558
0.001418
0.00134112
0.00127259
0.00121223
0.00116702
0.00113277
0.00111211
0.00110325
0.00110642
0.00112447
0.00116077
0.00121762
0.0012952
0.0013931
0.0015105
0.00164656
0.00180032
0.00197116
0.00215794
0.00235986
0.00257594
0.00280661
0.00305273
0.00331808
0.00361302
0.00396257
0.00438574
0.00496302
0.0064269
4.03308e-05
3.94584e-05
4.07765e-05
3.86664e-05
3.92401e-05
0.000201014
0.000758295
0.00165728
0.00236654
0.00256584
0.002574
0.00247739
0.00233079
0.00221216
0.00211084
0.00201414
0.00194346
0.00188815
0.00185423
0.00184022
0.00184293
0.00186705
0.00192008
0.00200564
0.00212461
0.00227726
0.00246251
0.00267871
0.00292383
0.00319627
0.00349345
0.00381322
0.00415321
0.0045132
0.00489372
0.00529842
0.00573977
0.00625316
0.00688319
0.00773981
0.00957797
4.00926e-05
4.02609e-05
3.97459e-05
4.0874e-05
2.80897e-05
2.59744e-05
0.000195185
0.000772998
0.00180975
0.00287957
0.00334882
0.00351902
0.00351222
0.0034219
0.00327625
0.00313001
0.00302617
0.00294215
0.00288787
0.00286738
0.0028693
0.00289795
0.00296851
0.00308655
0.00325404
0.00347317
0.00374337
0.00406186
0.0044244
0.00482789
0.00526719
0.00573781
0.00623474
0.00675582
0.0073005
0.00787156
0.00848183
0.0091743
0.0100258
0.0111763
0.0133367
4.00949e-05
4.01511e-05
3.99333e-05
4.05663e-05
3.94359e-05
1.96878e-05
7.44971e-06
0.000144163
0.000687262
0.00178342
0.00315726
0.00414136
0.00452014
0.00466884
0.00467471
0.00459977
0.00448868
0.00437242
0.00430033
0.00427567
0.00428036
0.00431251
0.0044014
0.00455539
0.00477692
0.0050721
0.00544296
0.00588653
0.00639421
0.00696113
0.00757767
0.00823565
0.00892551
0.00964077
0.0103785
0.0111395
0.0119346
0.0128107
0.013875
0.0153113
0.0177485
4.00824e-05
4.00789e-05
4.01118e-05
3.99951e-05
4.08912e-05
3.94923e-05
9.31015e-06
2.7062e-06
8.59381e-05
0.000522051
0.00155628
0.00312156
0.00468222
0.0055383
0.00591226
0.00606785
0.00611746
0.00609893
0.00606702
0.0060446
0.0060683
0.00613945
0.0062789
0.00650563
0.00681013
0.00719785
0.0076827
0.00827258
0.00895206
0.00971574
0.0105462
0.01143
0.0123506
0.0132929
0.014249
0.0152177
0.0162039
0.017253
0.0184897
0.0201603
0.0228205
4.00775e-05
4.00853e-05
4.00846e-05
4.01094e-05
3.99285e-05
4.18229e-05
3.82464e-05
1.50377e-05
1.89118e-05
1.97373e-05
0.000306712
0.00116713
0.00273113
0.00470613
0.00635645
0.00716372
0.00758499
0.00780552
0.00795277
0.00806056
0.00818628
0.00834975
0.00859167
0.00894066
0.00939523
0.00995284
0.0106117
0.0113765
0.0122561
0.0132477
0.0143265
0.0154724
0.0166619
0.0178627
0.0190562
0.020241
0.0214129
0.0226045
0.0239432
0.0257338
0.0284849
4.00735e-05
4.0079e-05
4.00815e-05
4.0097e-05
4.00546e-05
4.00371e-05
4.20446e-05
3.74926e-05
2.16227e-05
8.49614e-06
5.98308e-05
0.000145508
0.000732916
0.00207139
0.0041502
0.00648159
0.00823354
0.00910802
0.00964869
0.0100233
0.0103696
0.0107268
0.0111585
0.0117115
0.0124042
0.0132446
0.0142267
0.015338
0.0165575
0.0178587
0.0192231
0.0206541
0.0221395
0.0236196
0.02505
0.0264423
0.0277815
0.0290639
0.0304223
0.0321463
0.0347445
4.00705e-05
4.00746e-05
4.00797e-05
4.0077e-05
4.01064e-05
3.99916e-05
4.02566e-05
4.14947e-05
3.96024e-05
2.70369e-05
7.084e-06
2.12664e-05
1.02379e-05
0.000335924
0.00130541
0.00314242
0.00571877
0.00842549
0.010402
0.0114872
0.0122731
0.0129389
0.0136307
0.0144411
0.0154189
0.0165973
0.0179795
0.0195573
0.0213082
0.0231949
0.0251681
0.0271642
0.0291001
0.0308973
0.0325404
0.0341083
0.0355886
0.0368731
0.0381306
0.039621
0.0417341
4.00676e-05
4.00712e-05
4.00739e-05
4.00772e-05
4.00767e-05
4.00908e-05
4.00092e-05
4.02232e-05
4.09955e-05
4.11676e-05
3.21693e-05
7.43131e-06
4.2665e-06
5.44218e-05
8.84023e-05
0.000605573
0.00193348
0.00424537
0.0073257
0.0105183
0.0129535
0.014425
0.0155746
0.0167205
0.017996
0.0195026
0.0212641
0.0232865
0.0255577
0.0280396
0.0306757
0.0333964
0.03612
0.0387595
0.0412193
0.0433805
0.0450894
0.04628
0.0473052
0.0484908
0.0498533
4.00647e-05
4.00676e-05
4.00699e-05
4.00719e-05
4.00736e-05
4.00769e-05
4.00753e-05
4.00509e-05
4.0099e-05
4.07327e-05
4.15583e-05
3.68391e-05
1.86228e-05
5.71157e-06
1.10974e-05
9.91875e-05
0.000181196
0.000876402
0.0025105
0.00524181
0.00885507
0.0125909
0.0156097
0.017731
0.0195006
0.0213839
0.0234898
0.025873
0.0285659
0.0315413
0.0347363
0.0380763
0.0414793
0.0448624
0.0481286
0.0511689
0.0538691
0.0561415
0.0578878
0.0589777
0.0595217
4.00619e-05
4.00645e-05
4.00663e-05
4.00679e-05
4.00696e-05
4.0071e-05
4.00735e-05
4.00741e-05
4.00584e-05
4.00456e-05
4.04504e-05
4.17911e-05
3.96798e-05
3.04596e-05
3.80393e-06
2.52907e-06
2.11882e-05
0.000139324
0.00025148
0.00105767
0.00290454
0.00581568
0.00947081
0.0134664
0.0173361
0.0206977
0.0235761
0.0263753
0.0294228
0.0327862
0.0364089
0.0402233
0.0441562
0.0481347
0.0520635
0.0558322
0.059347
0.0625498
0.0653631
0.0677185
0.0696261
4.00597e-05
4.00619e-05
4.00634e-05
4.00646e-05
4.00658e-05
4.0067e-05
4.00684e-05
4.00699e-05
4.00727e-05
4.00663e-05
4.00119e-05
4.02881e-05
4.10926e-05
4.14748e-05
3.70206e-05
2.03308e-05
6.25036e-06
1.27126e-06
2.82727e-05
0.000157681
0.000255006
0.00101363
0.00258543
0.005036
0.00829861
0.0121998
0.0165267
0.0210576
0.0255621
0.0298957
0.0340983
0.0383178
0.0426538
0.0471052
0.0515836
0.0559672
0.0601554
0.064109
0.0677828
0.071117
0.0740701
4.00579e-05
4.00597e-05
4.00606e-05
4.00612e-05
4.00619e-05
4.00628e-05
4.00639e-05
4.00653e-05
4.00665e-05
4.00709e-05
4.00658e-05
4.00271e-05
4.01225e-05
4.05388e-05
4.17507e-05
4.02332e-05
3.45121e-05
1.3638e-05
4.98842e-06
9.43484e-07
2.74542e-05
0.000119802
8.47449e-05
0.00050283
0.00146967
0.0031033
0.00545247
0.00852393
0.0122911
0.0166945
0.0216473
0.0270211
0.0326248
0.0382481
0.0437054
0.0488855
0.0537667
0.0584113
0.062835
0.0670197
0.0709416
4.00566e-05
4.00575e-05
4.00575e-05
4.00576e-05
4.00579e-05
4.00584e-05
4.00592e-05
4.00602e-05
4.00615e-05
4.00628e-05
4.00672e-05
4.00642e-05
4.00482e-05
4.00143e-05
4.02845e-05
4.09005e-05
4.1734e-05
3.91709e-05
3.26155e-05
1.05811e-05
4.46715e-06
1.15161e-06
7.98342e-06
4.66428e-05
0.000142438
4.92471e-05
0.000337419
0.00102543
0.00216976
0.00384576
0.00611028
0.00900996
0.0125577
0.0167464
0.0215174
0.0267548
0.0323113
0.0380902
0.0439329
0.0496752
0.0551724
4.00551e-05
4.00553e-05
4.0055e-05
4.00548e-05
4.00547e-05
4.00549e-05
4.00553e-05
4.00559e-05
4.00567e-05
4.00579e-05
4.00595e-05
4.00621e-05
4.00648e-05
4.00513e-05
4.0022e-05
4.00786e-05
4.04275e-05
4.11615e-05
4.17786e-05
3.87859e-05
3.13819e-05
1.34357e-05
4.95214e-06
1.98989e-06
3.24979e-07
4.07879e-06
2.74628e-05
8.20183e-05
0.00017055
0.00032786
0.000173576
0.000631348
0.00137115
0.00247252
0.00399011
0.00597163
0.00841868
0.0113626
0.0147773
0.0186275
0.0229095
4.00536e-05
4.0054e-05
4.00532e-05
4.00525e-05
4.00521e-05
4.00519e-05
4.0052e-05
4.00523e-05
4.00529e-05
4.00538e-05
4.00549e-05
4.00563e-05
4.00586e-05
4.00619e-05
4.00562e-05
4.00404e-05
4.00199e-05
4.01439e-05
4.05617e-05
4.13798e-05
4.16328e-05
3.91057e-05
3.33882e-05
2.45082e-05
4.07739e-06
3.10687e-06
1.79278e-06
7.59635e-07
0
0
1.26957e-05
4.53301e-05
9.66275e-05
0.000171512
0.0002825
5.70694e-05
0.000161111
0.00050692
0.00108605
0.00189433
0.00301406
4.00521e-05
4.00522e-05
4.0051e-05
4.00499e-05
4.00493e-05
4.00489e-05
4.00489e-05
4.00491e-05
4.00495e-05
4.00502e-05
4.00511e-05
4.00522e-05
4.00535e-05
4.00556e-05
4.0058e-05
4.00595e-05
4.00498e-05
4.00323e-05
4.0022e-05
4.01963e-05
4.06411e-05
4.13679e-05
4.16217e-05
4.09834e-05
3.72988e-05
3.15219e-05
2.38436e-05
1.03035e-05
4.23281e-06
2.03292e-06
1.56677e-06
1.05964e-06
2.7965e-07
0
0
3.69801e-06
1.02208e-05
3.17715e-05
6.66297e-05
0.000114171
0.000177661
4.00505e-05
4.00503e-05
4.00488e-05
4.00476e-05
4.00469e-05
4.00466e-05
4.00465e-05
4.00467e-05
4.0047e-05
4.00475e-05
4.00482e-05
4.00491e-05
4.00501e-05
4.00514e-05
4.0053e-05
4.00553e-05
4.00577e-05
4.00572e-05
4.00435e-05
4.00228e-05
4.003e-05
4.01929e-05
4.0559e-05
4.10731e-05
4.17599e-05
4.17834e-05
4.09115e-05
3.84608e-05
3.43709e-05
2.93767e-05
2.31068e-05
1.59475e-05
4.29487e-06
2.87987e-06
1.81308e-06
1.54172e-06
1.27329e-06
9.72202e-07
6.42637e-07
1.27522e-07
0
4.00488e-05
4.00483e-05
4.00468e-05
4.00458e-05
4.00452e-05
4.0045e-05
4.00451e-05
4.00453e-05
4.00456e-05
4.0046e-05
4.00465e-05
4.00472e-05
4.0048e-05
4.00489e-05
4.00501e-05
4.00514e-05
4.00532e-05
4.00556e-05
4.00578e-05
4.00546e-05
4.00394e-05
4.00174e-05
4.0028e-05
4.01013e-05
4.03435e-05
4.07358e-05
4.12002e-05
4.17051e-05
4.19358e-05
4.16874e-05
4.07885e-05
3.93016e-05
3.68423e-05
3.35844e-05
2.97373e-05
2.58228e-05
2.18067e-05
1.68817e-05
1.141e-05
2.30727e-06
2.2182e-06
4.0047e-05
4.00465e-05
4.00454e-05
4.00446e-05
4.00444e-05
4.00443e-05
4.00445e-05
4.00447e-05
4.0045e-05
4.00454e-05
4.00458e-05
4.00463e-05
4.00469e-05
4.00477e-05
4.00485e-05
4.00495e-05
4.00507e-05
4.0052e-05
4.00539e-05
4.00564e-05
4.00579e-05
4.00534e-05
4.00411e-05
4.00234e-05
4.0012e-05
4.00369e-05
4.01225e-05
4.03027e-05
4.05828e-05
4.09353e-05
4.13129e-05
4.16546e-05
4.19848e-05
4.2091e-05
4.18991e-05
4.14019e-05
4.06363e-05
3.95188e-05
3.81155e-05
3.61518e-05
3.38813e-05
4.00453e-05
4.00451e-05
4.00445e-05
4.00442e-05
4.00443e-05
4.00445e-05
4.00448e-05
4.00451e-05
4.00454e-05
4.00457e-05
4.00461e-05
4.00465e-05
4.00469e-05
4.00475e-05
4.00481e-05
4.00488e-05
4.00497e-05
4.00506e-05
4.00517e-05
4.00531e-05
4.0055e-05
4.00573e-05
4.00582e-05
4.00564e-05
4.00489e-05
4.00356e-05
4.00201e-05
4.00099e-05
4.00175e-05
4.00569e-05
4.01404e-05
4.02703e-05
4.04575e-05
4.06965e-05
4.09707e-05
4.12554e-05
4.15301e-05
4.179e-05
4.20059e-05
4.22115e-05
4.2294e-05
4.00438e-05
4.0044e-05
4.00441e-05
4.00445e-05
4.0045e-05
4.00454e-05
4.00458e-05
4.00462e-05
4.00465e-05
4.00467e-05
4.0047e-05
4.00473e-05
4.00476e-05
4.0048e-05
4.00484e-05
4.00489e-05
4.00495e-05
4.00502e-05
4.0051e-05
4.00519e-05
4.00529e-05
4.00543e-05
4.00559e-05
4.00577e-05
4.00593e-05
4.00595e-05
4.00572e-05
4.00511e-05
4.00409e-05
4.00278e-05
4.00148e-05
4.00058e-05
4.00046e-05
4.00172e-05
4.00486e-05
4.0103e-05
4.01805e-05
4.02868e-05
4.04166e-05
4.05787e-05
4.07474e-05
4.00425e-05
4.00434e-05
4.00442e-05
4.00451e-05
4.0046e-05
4.00467e-05
4.00473e-05
4.00477e-05
4.0048e-05
4.00482e-05
4.00484e-05
4.00486e-05
4.00488e-05
4.0049e-05
4.00493e-05
4.00496e-05
4.005e-05
4.00505e-05
4.0051e-05
4.00517e-05
4.00524e-05
4.00532e-05
4.0054e-05
4.0055e-05
4.00563e-05
4.00577e-05
4.00593e-05
4.00607e-05
4.00612e-05
4.00603e-05
4.00574e-05
4.00522e-05
4.00445e-05
4.00348e-05
4.00236e-05
4.00121e-05
4.00019e-05
3.99945e-05
3.99914e-05
3.99951e-05
4.00029e-05
4.00416e-05
4.00433e-05
4.00447e-05
4.0046e-05
4.00471e-05
4.00481e-05
4.00488e-05
4.00493e-05
4.00497e-05
4.005e-05
4.00501e-05
4.00502e-05
4.00503e-05
4.00504e-05
4.00505e-05
4.00507e-05
4.00509e-05
4.00512e-05
4.00516e-05
4.0052e-05
4.00525e-05
4.0053e-05
4.00535e-05
4.00541e-05
4.00547e-05
4.00554e-05
4.00562e-05
4.00571e-05
4.00582e-05
4.00593e-05
4.00604e-05
4.00612e-05
4.00616e-05
4.00612e-05
4.00598e-05
4.00573e-05
4.00535e-05
4.00482e-05
4.00416e-05
4.00335e-05
4.00254e-05
4.00411e-05
4.00435e-05
4.00454e-05
4.0047e-05
4.00482e-05
4.00493e-05
4.00501e-05
4.00508e-05
4.00513e-05
4.00517e-05
4.00519e-05
4.00521e-05
4.00522e-05
4.00522e-05
4.00522e-05
4.00522e-05
4.00523e-05
4.00524e-05
4.00526e-05
4.00528e-05
4.0053e-05
4.00533e-05
4.00537e-05
4.0054e-05
4.00544e-05
4.00547e-05
4.00551e-05
4.00555e-05
4.00558e-05
4.00562e-05
4.00566e-05
4.00571e-05
4.00575e-05
4.0058e-05
4.00584e-05
4.00587e-05
4.00588e-05
4.00587e-05
4.00584e-05
4.00576e-05
4.00565e-05
4.0041e-05
4.0044e-05
4.00462e-05
4.00478e-05
4.00492e-05
4.00503e-05
4.00512e-05
4.0052e-05
4.00527e-05
4.00532e-05
4.00536e-05
4.00539e-05
4.00541e-05
4.00542e-05
4.00542e-05
4.00541e-05
4.00541e-05
4.00541e-05
4.00541e-05
4.00542e-05
4.00543e-05
4.00544e-05
4.00545e-05
4.00546e-05
4.00548e-05
4.00549e-05
4.00551e-05
4.00552e-05
4.00553e-05
4.00554e-05
4.00554e-05
4.00554e-05
4.00554e-05
4.00553e-05
4.00553e-05
4.00553e-05
4.00554e-05
4.00556e-05
4.00561e-05
4.00567e-05
4.00574e-05
4.00412e-05
4.00444e-05
4.00467e-05
4.00485e-05
4.00499e-05
4.00512e-05
4.00522e-05
4.00531e-05
4.00538e-05
4.00545e-05
4.0055e-05
4.00554e-05
4.00558e-05
4.0056e-05
4.00562e-05
4.00563e-05
4.00564e-05
4.00564e-05
4.00563e-05
4.00563e-05
4.00563e-05
4.00562e-05
4.00562e-05
4.00563e-05
4.00563e-05
4.00563e-05
4.00564e-05
4.00564e-05
4.00565e-05
4.00565e-05
4.00566e-05
4.00567e-05
4.00569e-05
4.00572e-05
4.00576e-05
4.0058e-05
4.00586e-05
4.00592e-05
4.00601e-05
4.00609e-05
4.00619e-05
4.00415e-05
4.00448e-05
4.00472e-05
4.0049e-05
4.00505e-05
4.00518e-05
4.0053e-05
4.0054e-05
4.00548e-05
4.00556e-05
4.00563e-05
4.00568e-05
4.00573e-05
4.00577e-05
4.0058e-05
4.00583e-05
4.00585e-05
4.00587e-05
4.00588e-05
4.00589e-05
4.0059e-05
4.0059e-05
4.00591e-05
4.00592e-05
4.00593e-05
4.00594e-05
4.00596e-05
4.00598e-05
4.006e-05
4.00603e-05
4.00606e-05
4.0061e-05
4.00615e-05
4.00621e-05
4.00627e-05
4.00634e-05
4.00642e-05
4.00651e-05
4.00661e-05
4.00671e-05
4.00683e-05
4.00417e-05
4.0045e-05
4.00474e-05
4.00492e-05
4.00508e-05
4.00523e-05
4.00535e-05
4.00546e-05
4.00557e-05
4.00566e-05
4.00574e-05
4.0058e-05
4.00587e-05
4.00592e-05
4.00597e-05
4.00601e-05
4.00604e-05
4.00607e-05
4.0061e-05
4.00613e-05
4.00616e-05
4.00618e-05
4.00621e-05
4.00623e-05
4.00626e-05
4.00629e-05
4.00632e-05
4.00636e-05
4.0064e-05
4.00644e-05
4.00649e-05
4.00655e-05
4.00662e-05
4.00669e-05
4.00676e-05
4.00685e-05
4.00694e-05
4.00704e-05
4.00715e-05
4.00725e-05
4.00737e-05
4.00417e-05
4.0045e-05
4.00474e-05
4.00493e-05
4.0051e-05
4.00525e-05
4.00539e-05
4.00551e-05
4.00563e-05
4.00573e-05
4.00583e-05
4.00591e-05
4.00599e-05
4.00605e-05
4.00611e-05
4.00617e-05
4.00622e-05
4.00627e-05
4.00631e-05
4.00635e-05
4.00639e-05
4.00643e-05
4.00647e-05
4.00651e-05
4.00656e-05
4.0066e-05
4.00665e-05
4.0067e-05
4.00676e-05
4.00681e-05
4.00688e-05
4.00695e-05
4.00702e-05
4.0071e-05
4.00719e-05
4.00728e-05
4.00738e-05
4.00748e-05
4.0076e-05
4.0077e-05
4.00783e-05
4.00415e-05
4.00447e-05
4.00471e-05
4.00491e-05
4.00509e-05
4.00525e-05
4.0054e-05
4.00554e-05
4.00567e-05
4.00579e-05
4.0059e-05
4.006e-05
4.00609e-05
4.00617e-05
4.00625e-05
4.00632e-05
4.00638e-05
4.00644e-05
4.0065e-05
4.00656e-05
4.00661e-05
4.00667e-05
4.00672e-05
4.00678e-05
4.00683e-05
4.00689e-05
4.00695e-05
4.00701e-05
4.00708e-05
4.00715e-05
4.00722e-05
4.0073e-05
4.00738e-05
4.00747e-05
4.00756e-05
4.00766e-05
4.00776e-05
4.00787e-05
4.00798e-05
4.00808e-05
4.00821e-05
4.00411e-05
4.00443e-05
4.00467e-05
4.00487e-05
4.00505e-05
4.00523e-05
4.00539e-05
4.00555e-05
4.00569e-05
4.00583e-05
4.00595e-05
4.00607e-05
4.00617e-05
4.00627e-05
4.00636e-05
4.00644e-05
4.00652e-05
4.0066e-05
4.00667e-05
4.00674e-05
4.00681e-05
4.00688e-05
4.00695e-05
4.00701e-05
4.00708e-05
4.00715e-05
4.00722e-05
4.0073e-05
4.00737e-05
4.00745e-05
4.00753e-05
4.00762e-05
4.00771e-05
4.0078e-05
4.00789e-05
4.00799e-05
4.00809e-05
4.0082e-05
4.00831e-05
4.00841e-05
4.00853e-05
4.00405e-05
4.00435e-05
4.00459e-05
4.0048e-05
4.005e-05
4.00518e-05
4.00536e-05
4.00553e-05
4.00569e-05
4.00584e-05
4.00598e-05
4.00611e-05
4.00623e-05
4.00635e-05
4.00645e-05
4.00655e-05
4.00665e-05
4.00674e-05
4.00682e-05
4.00691e-05
4.00699e-05
4.00707e-05
4.00715e-05
4.00723e-05
4.00731e-05
4.00739e-05
4.00747e-05
4.00755e-05
4.00764e-05
4.00772e-05
4.00781e-05
4.0079e-05
4.00799e-05
4.00809e-05
4.00818e-05
4.00828e-05
4.00838e-05
4.00848e-05
4.00859e-05
4.00868e-05
4.0088e-05
4.00396e-05
4.00425e-05
4.00449e-05
4.0047e-05
4.00491e-05
4.00511e-05
4.0053e-05
4.00548e-05
4.00566e-05
4.00582e-05
4.00598e-05
4.00613e-05
4.00627e-05
4.0064e-05
4.00652e-05
4.00663e-05
4.00674e-05
4.00685e-05
4.00695e-05
4.00705e-05
4.00714e-05
4.00724e-05
4.00733e-05
4.00742e-05
4.00751e-05
4.0076e-05
4.00769e-05
4.00778e-05
4.00787e-05
4.00796e-05
4.00805e-05
4.00815e-05
4.00824e-05
4.00834e-05
4.00843e-05
4.00853e-05
4.00863e-05
4.00873e-05
4.00883e-05
4.00892e-05
4.00903e-05
4.00383e-05
4.00412e-05
4.00436e-05
4.00458e-05
4.00479e-05
4.005e-05
4.0052e-05
4.0054e-05
4.00559e-05
4.00577e-05
4.00594e-05
4.0061e-05
4.00626e-05
4.0064e-05
4.00654e-05
4.00667e-05
4.0068e-05
4.00692e-05
4.00704e-05
4.00715e-05
4.00726e-05
4.00737e-05
4.00747e-05
4.00757e-05
4.00767e-05
4.00777e-05
4.00787e-05
4.00796e-05
4.00806e-05
4.00816e-05
4.00825e-05
4.00835e-05
4.00845e-05
4.00854e-05
4.00864e-05
4.00873e-05
4.00883e-05
4.00892e-05
4.00902e-05
4.0091e-05
4.00921e-05
4.00368e-05
4.00395e-05
4.00419e-05
4.00441e-05
4.00463e-05
4.00485e-05
4.00506e-05
4.00527e-05
4.00547e-05
4.00566e-05
4.00585e-05
4.00603e-05
4.0062e-05
4.00636e-05
4.00651e-05
4.00666e-05
4.0068e-05
4.00694e-05
4.00707e-05
4.0072e-05
4.00732e-05
4.00744e-05
4.00756e-05
4.00767e-05
4.00778e-05
4.00789e-05
4.00799e-05
4.0081e-05
4.0082e-05
4.0083e-05
4.0084e-05
4.0085e-05
4.0086e-05
4.00869e-05
4.00879e-05
4.00888e-05
4.00897e-05
4.00906e-05
4.00916e-05
4.00923e-05
4.00933e-05
4.00349e-05
4.00375e-05
4.00399e-05
4.00421e-05
4.00443e-05
4.00465e-05
4.00487e-05
4.00508e-05
4.00529e-05
4.00549e-05
4.00569e-05
4.00589e-05
4.00607e-05
4.00625e-05
4.00642e-05
4.00658e-05
4.00674e-05
4.00689e-05
4.00704e-05
4.00718e-05
4.00732e-05
4.00745e-05
4.00758e-05
4.0077e-05
4.00782e-05
4.00794e-05
4.00805e-05
4.00816e-05
4.00827e-05
4.00838e-05
4.00848e-05
4.00858e-05
4.00868e-05
4.00877e-05
4.00887e-05
4.00896e-05
4.00905e-05
4.00913e-05
4.00922e-05
4.00929e-05
4.00938e-05
4.00327e-05
4.00351e-05
4.00374e-05
4.00396e-05
4.00418e-05
4.00439e-05
4.00461e-05
4.00483e-05
4.00504e-05
4.00526e-05
4.00547e-05
4.00567e-05
4.00587e-05
4.00606e-05
4.00625e-05
4.00643e-05
4.0066e-05
4.00677e-05
4.00693e-05
4.00709e-05
4.00724e-05
4.00738e-05
4.00752e-05
4.00766e-05
4.00779e-05
4.00791e-05
4.00803e-05
4.00815e-05
4.00826e-05
4.00837e-05
4.00848e-05
4.00858e-05
4.00868e-05
4.00877e-05
4.00887e-05
4.00896e-05
4.00904e-05
4.00912e-05
4.0092e-05
4.00927e-05
4.00935e-05
4.003e-05
4.00323e-05
4.00345e-05
4.00365e-05
4.00386e-05
4.00407e-05
4.00428e-05
4.0045e-05
4.00472e-05
4.00494e-05
4.00516e-05
4.00537e-05
4.00558e-05
4.00579e-05
4.00599e-05
4.00619e-05
4.00638e-05
4.00656e-05
4.00673e-05
4.0069e-05
4.00707e-05
4.00723e-05
4.00738e-05
4.00752e-05
4.00766e-05
4.0078e-05
4.00792e-05
4.00805e-05
4.00816e-05
4.00828e-05
4.00838e-05
4.00849e-05
4.00859e-05
4.00868e-05
4.00877e-05
4.00886e-05
4.00894e-05
4.00902e-05
4.00909e-05
4.00915e-05
4.00923e-05
4.00269e-05
4.0029e-05
4.0031e-05
4.00329e-05
4.00348e-05
4.00367e-05
4.00388e-05
4.00409e-05
4.00431e-05
4.00453e-05
4.00476e-05
4.00498e-05
4.00521e-05
4.00542e-05
4.00564e-05
4.00585e-05
4.00605e-05
4.00625e-05
4.00644e-05
4.00662e-05
4.0068e-05
4.00697e-05
4.00713e-05
4.00728e-05
4.00743e-05
4.00757e-05
4.0077e-05
4.00783e-05
4.00795e-05
4.00807e-05
4.00818e-05
4.00829e-05
4.00839e-05
4.00848e-05
4.00857e-05
4.00866e-05
4.00874e-05
4.00881e-05
4.00889e-05
4.00895e-05
4.00902e-05
4.00233e-05
4.00252e-05
4.00269e-05
4.00285e-05
4.00302e-05
4.0032e-05
4.0034e-05
4.0036e-05
4.00381e-05
4.00404e-05
4.00426e-05
4.00449e-05
4.00472e-05
4.00495e-05
4.00517e-05
4.00539e-05
4.00561e-05
4.00581e-05
4.00602e-05
4.00621e-05
4.0064e-05
4.00659e-05
4.00676e-05
4.00693e-05
4.00708e-05
4.00723e-05
4.00738e-05
4.00751e-05
4.00764e-05
4.00776e-05
4.00788e-05
4.00799e-05
4.00809e-05
4.00818e-05
4.00827e-05
4.00835e-05
4.00843e-05
4.0085e-05
4.00857e-05
4.00862e-05
4.00868e-05
4.00192e-05
4.00207e-05
4.00221e-05
4.00235e-05
4.0025e-05
4.00266e-05
4.00283e-05
4.00302e-05
4.00322e-05
4.00343e-05
4.00365e-05
4.00388e-05
4.00411e-05
4.00434e-05
4.00457e-05
4.00479e-05
4.00502e-05
4.00524e-05
4.00545e-05
4.00566e-05
4.00585e-05
4.00605e-05
4.00623e-05
4.0064e-05
4.00656e-05
4.00672e-05
4.00687e-05
4.00701e-05
4.00714e-05
4.00727e-05
4.00738e-05
4.00749e-05
4.0076e-05
4.00769e-05
4.00779e-05
4.00787e-05
4.00795e-05
4.00802e-05
4.00809e-05
4.00814e-05
4.0082e-05
4.00145e-05
4.00156e-05
4.00167e-05
4.00177e-05
4.00189e-05
4.00203e-05
4.00218e-05
4.00234e-05
4.00252e-05
4.00271e-05
4.00291e-05
4.00312e-05
4.00334e-05
4.00356e-05
4.00378e-05
4.004e-05
4.00423e-05
4.00445e-05
4.00467e-05
4.00489e-05
4.0051e-05
4.0053e-05
4.0055e-05
4.00569e-05
4.00587e-05
4.00604e-05
4.0062e-05
4.00636e-05
4.0065e-05
4.00663e-05
4.00676e-05
4.00688e-05
4.00699e-05
4.00709e-05
4.00718e-05
4.00727e-05
4.00734e-05
4.00741e-05
4.00748e-05
4.00753e-05
4.00758e-05
4.00092e-05
4.00099e-05
4.00105e-05
4.00113e-05
4.00121e-05
4.00131e-05
4.00142e-05
4.00154e-05
4.00168e-05
4.00183e-05
4.00199e-05
4.00216e-05
4.00235e-05
4.00256e-05
4.00277e-05
4.003e-05
4.00324e-05
4.00347e-05
4.0037e-05
4.00392e-05
4.00413e-05
4.00434e-05
4.00454e-05
4.00473e-05
4.00491e-05
4.00508e-05
4.00525e-05
4.0054e-05
4.00555e-05
4.00568e-05
4.00581e-05
4.00593e-05
4.00604e-05
4.00614e-05
4.00623e-05
4.00632e-05
4.0064e-05
4.00647e-05
4.00654e-05
4.0066e-05
4.00665e-05
4.00031e-05
4.00034e-05
4.00036e-05
4.00039e-05
4.00043e-05
4.00047e-05
4.00052e-05
4.00058e-05
4.00064e-05
4.00071e-05
4.00079e-05
4.00087e-05
4.00097e-05
4.00107e-05
4.00117e-05
4.0013e-05
4.00142e-05
4.00154e-05
4.00166e-05
4.00179e-05
4.00192e-05
4.00206e-05
4.0022e-05
4.00234e-05
4.00248e-05
4.00262e-05
4.00275e-05
4.00288e-05
4.00301e-05
4.00314e-05
4.00325e-05
4.00336e-05
4.00347e-05
4.00357e-05
4.00366e-05
4.00374e-05
4.00382e-05
4.00389e-05
4.00395e-05
4.00401e-05
4.00406e-05
0.00390887
0.00592164
0.00698813
0.00876996
0.0124156
0.0166999
0.0196661
0.0203932
0.018954
0.0157924
0.0113825
0.00615716
0.00151512
4.41611e-05
1.26496e-06
1.27102e-05
3.86645e-05
4.11443e-05
4.03072e-05
4.01457e-05
4.01599e-05
4.01511e-05
4.01337e-05
4.01235e-05
4.012e-05
4.01189e-05
4.01182e-05
4.01174e-05
4.01166e-05
4.01156e-05
4.01138e-05
4.01107e-05
4.01059e-05
4.00994e-05
4.00919e-05
4.00853e-05
4.0082e-05
4.00815e-05
4.00829e-05
4.00855e-05
4.00888e-05
4.00923e-05
4.00958e-05
4.00989e-05
4.01014e-05
4.01033e-05
4.01045e-05
4.0105e-05
4.01049e-05
4.01041e-05
4.01029e-05
4.01013e-05
4.00993e-05
4.00969e-05
4.00941e-05
4.00908e-05
4.00871e-05
4.00828e-05
4.00778e-05
4.00723e-05
4.00661e-05
4.00592e-05
4.00515e-05
4.0043e-05
4.00342e-05
4.00266e-05
4.00223e-05
4.00234e-05
4.00302e-05
4.00404e-05
4.00524e-05
4.00656e-05
4.00768e-05
4.00984e-05
0.00686258
0.00988933
0.0114014
0.0132478
0.0166843
0.0207767
0.023712
0.0245418
0.0232486
0.0202121
0.0158937
0.0106441
0.00482283
0.000791235
0.000110334
3.71907e-06
2.60073e-05
4.058e-05
4.06387e-05
4.01283e-05
4.013e-05
4.01272e-05
4.01244e-05
4.01312e-05
4.01302e-05
4.01232e-05
4.0118e-05
4.01166e-05
4.01167e-05
4.01161e-05
4.0114e-05
4.01102e-05
4.01047e-05
4.00977e-05
4.00902e-05
4.00844e-05
4.00823e-05
4.00831e-05
4.00856e-05
4.00892e-05
4.00934e-05
4.00976e-05
4.01017e-05
4.01053e-05
4.01083e-05
4.01105e-05
4.01119e-05
4.01125e-05
4.01124e-05
4.01116e-05
4.01103e-05
4.01085e-05
4.01063e-05
4.01036e-05
4.01004e-05
4.00967e-05
4.00924e-05
4.00875e-05
4.00819e-05
4.00757e-05
4.00689e-05
4.00613e-05
4.0053e-05
4.00439e-05
4.00346e-05
4.00266e-05
4.00223e-05
4.00237e-05
4.00306e-05
4.00408e-05
4.00526e-05
4.00658e-05
4.00768e-05
4.00979e-05
0.00974341
0.0140627
0.0162132
0.0181691
0.0213629
0.0252214
0.0281586
0.0291909
0.0281731
0.0253826
0.021229
0.0160773
0.0100315
0.00383023
0.000435303
6.45567e-05
7.09339e-06
3.15699e-05
4.20949e-05
4.05379e-05
4.00109e-05
4.01708e-05
4.01499e-05
4.00924e-05
4.01006e-05
4.01253e-05
4.01304e-05
4.0123e-05
4.01167e-05
4.01144e-05
4.0113e-05
4.01097e-05
4.01038e-05
4.00963e-05
4.00889e-05
4.00839e-05
4.00829e-05
4.00849e-05
4.00885e-05
4.00931e-05
4.00981e-05
4.01031e-05
4.01078e-05
4.01119e-05
4.01153e-05
4.01178e-05
4.01194e-05
4.01202e-05
4.01201e-05
4.01193e-05
4.01179e-05
4.01159e-05
4.01134e-05
4.01103e-05
4.01067e-05
4.01025e-05
4.00976e-05
4.00921e-05
4.0086e-05
4.00791e-05
4.00716e-05
4.00634e-05
4.00545e-05
4.00447e-05
4.0035e-05
4.00268e-05
4.00226e-05
4.00242e-05
4.00311e-05
4.00412e-05
4.00529e-05
4.00659e-05
4.00768e-05
4.00973e-05
0.0126074
0.0184266
0.0213819
0.0235724
0.026576
0.0301815
0.0331059
0.0343751
0.0337097
0.0312602
0.0273515
0.0223349
0.0163879
0.00956082
0.00326315
0.000255033
5.89603e-05
8.37502e-06
3.01457e-05
4.20779e-05
4.09028e-05
3.99146e-05
4.01328e-05
4.02478e-05
4.01506e-05
4.00774e-05
4.00865e-05
4.01169e-05
4.01274e-05
4.01217e-05
4.01134e-05
4.01073e-05
4.01018e-05
4.00952e-05
4.00884e-05
4.00839e-05
4.00835e-05
4.00867e-05
4.00914e-05
4.0097e-05
4.01029e-05
4.01086e-05
4.0114e-05
4.01186e-05
4.01224e-05
4.01252e-05
4.01271e-05
4.01279e-05
4.01279e-05
4.01271e-05
4.01255e-05
4.01233e-05
4.01205e-05
4.01171e-05
4.0113e-05
4.01083e-05
4.01029e-05
4.00968e-05
4.009e-05
4.00825e-05
4.00743e-05
4.00655e-05
4.00559e-05
4.00456e-05
4.00355e-05
4.00272e-05
4.0023e-05
4.00249e-05
4.00317e-05
4.00416e-05
4.00531e-05
4.00658e-05
4.00765e-05
4.00964e-05
0.0156109
0.0230158
0.0268572
0.0294227
0.0323471
0.0357249
0.0386122
0.0401115
0.0398374
0.0378068
0.0342405
0.0294358
0.0236363
0.0168922
0.00943715
0.00302117
0.000252998
6.82763e-05
7.88009e-06
2.57368e-05
4.1616e-05
4.12999e-05
3.9673e-05
3.97867e-05
4.02124e-05
4.02992e-05
4.01776e-05
4.00806e-05
4.00743e-05
4.01035e-05
4.01188e-05
4.01145e-05
4.01032e-05
4.00934e-05
4.00871e-05
4.00841e-05
4.00846e-05
4.00885e-05
4.00942e-05
4.01007e-05
4.01075e-05
4.0114e-05
4.012e-05
4.01252e-05
4.01295e-05
4.01326e-05
4.01347e-05
4.01357e-05
4.01357e-05
4.01349e-05
4.01332e-05
4.01307e-05
4.01276e-05
4.01238e-05
4.01192e-05
4.0114e-05
4.0108e-05
4.01013e-05
4.00939e-05
4.00858e-05
4.0077e-05
4.00675e-05
4.00573e-05
4.00466e-05
4.00362e-05
4.00278e-05
4.00238e-05
4.00257e-05
4.00323e-05
4.0042e-05
4.00531e-05
4.00656e-05
4.00761e-05
4.00952e-05
0.0190227
0.0278288
0.0325552
0.0356312
0.0386232
0.0418469
0.0446893
0.0463928
0.0465185
0.0449653
0.0418436
0.0373709
0.0317871
0.0252455
0.0177745
0.0097914
0.00327739
0.000300409
0.000107307
6.48495e-06
1.62332e-05
4.01359e-05
4.37063e-05
4.03961e-05
3.92007e-05
3.96384e-05
4.01862e-05
4.03424e-05
4.02275e-05
4.00998e-05
4.00654e-05
4.0085e-05
4.01021e-05
4.01007e-05
4.00911e-05
4.00845e-05
4.00845e-05
4.00895e-05
4.00966e-05
4.01042e-05
4.01117e-05
4.01191e-05
4.01258e-05
4.01316e-05
4.01364e-05
4.01399e-05
4.01422e-05
4.01434e-05
4.01435e-05
4.01426e-05
4.01408e-05
4.01381e-05
4.01347e-05
4.01305e-05
4.01255e-05
4.01197e-05
4.01131e-05
4.01058e-05
4.00978e-05
4.00891e-05
4.00796e-05
4.00695e-05
4.00588e-05
4.00477e-05
4.00371e-05
4.00287e-05
4.00247e-05
4.00266e-05
4.0033e-05
4.00423e-05
4.00531e-05
4.00652e-05
4.00755e-05
4.00938e-05
0.0232255
0.0328143
0.0383655
0.0420613
0.0452768
0.0484595
0.0512823
0.0531671
0.0536824
0.052644
0.0500602
0.0460582
0.040826
0.0345498
0.0273359
0.0192503
0.0108391
0.00398649
0.000493749
0.000228869
1.30058e-05
1.02242e-05
2.95003e-05
4.49458e-05
4.43392e-05
4.05072e-05
3.90914e-05
3.94049e-05
4.00629e-05
4.03641e-05
4.02983e-05
4.0144e-05
4.00681e-05
4.00667e-05
4.00842e-05
4.00915e-05
4.00908e-05
4.00915e-05
4.00973e-05
4.01062e-05
4.01154e-05
4.01238e-05
4.01312e-05
4.01376e-05
4.01429e-05
4.01469e-05
4.01496e-05
4.0151e-05
4.01512e-05
4.01503e-05
4.01483e-05
4.01455e-05
4.01417e-05
4.01371e-05
4.01316e-05
4.01254e-05
4.01183e-05
4.01104e-05
4.01017e-05
4.00923e-05
4.00823e-05
4.00716e-05
4.00604e-05
4.0049e-05
4.00382e-05
4.00299e-05
4.00259e-05
4.00277e-05
4.00337e-05
4.00426e-05
4.0053e-05
4.00646e-05
4.00746e-05
4.00921e-05
0.0282425
0.0378728
0.0441574
0.0485276
0.0521044
0.0553802
0.0582462
0.060311
0.0612026
0.0606989
0.0587288
0.0553329
0.0506257
0.0447624
0.0378939
0.0301195
0.0215488
0.0128026
0.00541189
0.00109714
4.9562e-05
3.787e-05
6.75812e-06
6.27967e-06
3.26536e-05
4.46404e-05
4.41607e-05
4.09304e-05
3.90571e-05
3.89993e-05
3.97219e-05
4.02319e-05
4.03053e-05
4.01798e-05