/*--------------------------------*- C++ -*----------------------------------*\
| =========                 |                                                 |
| \\      /  F ield         | OpenFOAM: The Open Source CFD Toolbox           |
|  \\    /   O peration     | Version:  2312                                  |
|   \\  /    A nd           | Website:  www.openfoam.com                      |
|    \\/     M anipulation  |                                                 |
\*---------------------------------------------------------------------------*/
FoamFile
{
    version     2.0;
    format      ascii;
    arch        "LSB;label=32;scalar=64";
    class       volScalarField;
    location    "450";
    object      p;
}
// * * * * * * * * * * * * * * * * * * * * * * * * * * * * * * * * * * * * * //

dimensions      [0 2 -2 0 0 0 0];

internalField   nonuniform List<scalar> 
11040
(
-22.0464
-26.9853
-22.0871
-21.4866
-21.3572
-21.1656
-20.9775
-20.824
-20.7108
-20.6357
-20.5695
-20.518
-20.4802
-20.4455
-20.4219
-20.4022
-20.3916
-20.3861
-20.3887
-20.3978
-20.413
-20.4343
-20.4689
-20.5152
-20.5677
-20.6221
-20.6702
-20.7041
-20.7108
-20.6791
-20.5949
-20.4486
-20.2314
-19.9426
-19.5829
-19.1615
-18.7225
-18.4083
-18.2738
-18.0585
-18.7683
-10.38
-16.8606
-20.8679
-21.289
-21.3043
-21.1645
-20.9789
-20.8223
-20.7044
-20.6289
-20.5626
-20.5101
-20.4725
-20.4377
-20.414
-20.3943
-20.3835
-20.3779
-20.3802
-20.3891
-20.4045
-20.4259
-20.46
-20.5059
-20.5583
-20.6131
-20.6621
-20.6974
-20.7064
-20.6779
-20.5977
-20.4557
-20.2436
-19.9606
-19.6074
-19.1928
-18.759
-18.446
-18.3143
-18.091
-19.254
-3.21892
-10.3643
-16.8877
-20.2487
-21.0297
-21.1097
-20.9796
-20.8223
-20.6942
-20.6191
-20.5541
-20.5002
-20.4635
-20.4282
-20.4046
-20.3848
-20.3738
-20.3682
-20.3701
-20.3785
-20.3939
-20.4159
-20.4499
-20.4952
-20.5475
-20.6025
-20.6522
-20.6889
-20.7001
-20.6745
-20.5986
-20.4618
-20.256
-19.9804
-19.6363
-19.2331
-18.8116
-18.5073
-18.3876
-18.1512
-19.5386
0.986585
-6.37398
-12.5908
-17.0943
-19.8082
-20.806
-20.8915
-20.8197
-20.6844
-20.6062
-20.5426
-20.4864
-20.4516
-20.416
-20.3926
-20.3729
-20.3615
-20.3559
-20.3574
-20.3656
-20.3808
-20.4033
-20.4372
-20.4822
-20.5345
-20.5899
-20.6408
-20.6793
-20.6936
-20.6723
-20.602
-20.4723
-20.2751
-20.0093
-19.677
-19.288
-18.8828
-18.5909
-18.4846
-18.2583
-19.6669
3.73526
-2.31008
-8.25369
-13.2148
-16.9572
-19.404
-20.4934
-20.6382
-20.6736
-20.6009
-20.5339
-20.4678
-20.4365
-20.4008
-20.3782
-20.3587
-20.347
-20.3413
-20.3424
-20.3501
-20.365
-20.3878
-20.4217
-20.4663
-20.5186
-20.5745
-20.6271
-20.6681
-20.6865
-20.6706
-20.6078
-20.4873
-20.3014
-20.0486
-19.7315
-19.3607
-18.9768
-18.701
-18.6027
-18.4145
-19.7112
5.33998
0.597721
-4.53603
-9.46363
-13.57
-16.6774
-18.8737
-20.0429
-20.4024
-20.535
-20.5343
-20.4547
-20.4212
-20.3813
-20.3606
-20.3422
-20.3303
-20.3249
-20.3253
-20.3327
-20.347
-20.3697
-20.4032
-20.4473
-20.4997
-20.5563
-20.6107
-20.655
-20.6785
-20.6697
-20.6164
-20.5078
-20.3365
-20.1003
-19.8024
-19.4545
-19.0968
-18.8399
-18.7434
-18.6158
-19.7107
6.24196
2.43337
-1.73826
-6.06269
-10.1438
-13.5918
-16.2694
-18.2627
-19.5308
-20.1617
-20.3292
-20.4464
-20.4209
-20.3673
-20.3406
-20.3217
-20.3106
-20.3062
-20.3063
-20.3133
-20.3267
-20.3489
-20.3817
-20.4249
-20.4771
-20.5345
-20.5912
-20.6396
-20.6694
-20.6697
-20.6282
-20.5347
-20.3815
-20.1661
-19.8919
-19.5714
-19.2445
-19.0068
-18.9068
-18.8427
-19.6842
6.64843
3.55188
0.223443
-3.33986
-6.97702
-10.4295
-13.4232
-15.8038
-17.6276
-18.967
-19.7575
-20.1191
-20.299
-20.3782
-20.3353
-20.3055
-20.2873
-20.2836
-20.2843
-20.2918
-20.3045
-20.3256
-20.3571
-20.399
-20.4508
-20.5088
-20.5681
-20.6214
-20.6591
-20.6704
-20.6436
-20.5685
-20.4374
-20.2474
-20.0014
-19.7126
-19.4188
-19.1977
-19.0893
-19.066
-19.6413
6.7273
4.1693
1.48874
-1.39527
-4.44181
-7.52221
-10.482
-13.1263
-15.297
-16.9971
-18.3107
-19.2494
-19.8259
-20.0872
-20.27
-20.3208
-20.278
-20.2642
-20.2586
-20.2665
-20.2791
-20.2993
-20.3294
-20.3696
-20.4205
-20.4791
-20.5411
-20.5999
-20.6467
-20.671
-20.6618
-20.6087
-20.5038
-20.3435
-20.1299
-19.8757
-19.6145
-19.4047
-19.2811
-19.2581
-19.5827
6.57729
4.42807
2.23541
-0.0950459
-2.5903
-5.19537
-7.82629
-10.3856
-12.742
-14.7556
-16.3606
-17.634
-18.6555
-19.3814
-19.8266
-20.0604
-20.2399
-20.2802
-20.2467
-20.2439
-20.2496
-20.2672
-20.297
-20.3358
-20.3859
-20.445
-20.5099
-20.5748
-20.6317
-20.6709
-20.6815
-20.6533
-20.5779
-20.451
-20.2728
-20.054
-19.8213
-19.6154
-19.4664
-19.3999
-19.5033
6.2705
4.43772
2.61359
0.712496
-1.31928
-3.47512
-5.71414
-7.97736
-10.1999
-12.2996
-14.1661
-15.7184
-16.9695
-17.9956
-18.8207
-19.4186
-19.7963
-20.0317
-20.2153
-20.2611
-20.2354
-20.2368
-20.2589
-20.2933
-20.3436
-20.4045
-20.4734
-20.5451
-20.6134
-20.6688
-20.7011
-20.6995
-20.6559
-20.5636
-20.4211
-20.2349
-20.0237
-19.8131
-19.6263
-19.484
-19.4004
5.85855
4.27528
2.7324
1.15856
-0.504176
-2.27294
-4.13882
-6.07134
-8.02721
-9.95979
-11.8171
-13.5361
-15.0436
-16.2943
-17.3163
-18.1734
-18.8726
-19.3991
-19.749
-19.9941
-20.1874
-20.2561
-20.2489
-20.257
-20.2955
-20.3525
-20.4244
-20.5052
-20.5873
-20.6614
-20.7171
-20.7439
-20.7322
-20.6744
-20.565
-20.4059
-20.2068
-19.9824
-19.7472
-19.5159
-19.2823
5.38074
3.99866
2.67468
1.35162
-0.0254973
-1.48062
-3.02007
-4.63702
-6.30957
-8.00371
-9.68259
-11.3189
-12.8824
-14.3199
-15.5716
-16.6135
-17.4809
-18.2246
-18.8454
-19.3324
-19.6657
-19.9051
-20.1347
-20.2807
-20.3187
-20.3329
-20.3776
-20.4512
-20.5404
-20.6331
-20.7146
-20.7724
-20.7946
-20.7716
-20.694
-20.5583
-20.3665
-20.1251
-19.8395
-19.5239
-19.1771
4.8667
3.65084
2.50155
1.37368
0.217752
-0.990327
-2.2621
-3.60167
-5.00439
-6.45285
-7.91969
-9.38167
-10.8223
-12.2224
-13.5543
-14.776
-15.8437
-16.7449
-17.5132
-18.1877
-18.7829
-19.22
-19.4946
-19.721
-19.9836
-20.2464
-20.4235
-20.5091
-20.5607
-20.6179
-20.6863
-20.7528
-20.8007
-20.8116
-20.7696
-20.662
-20.4841
-20.2353
-19.9149
-19.5402
-19.1218
4.33877
3.26371
2.25774
1.2854
0.303136
-0.711196
-1.76933
-2.87954
-4.04506
-5.26085
-6.51238
-7.78384
-9.05994
-10.3244
-11.5641
-12.7667
-13.9129
-14.9725
-15.9159
-16.7327
-17.4698
-18.0789
-18.529
-18.9038
-19.2206
-19.4704
-19.708
-20.0002
-20.3258
-20.6044
-20.786
-20.877
-20.9024
-20.8784
-20.8054
-20.6784
-20.489
-20.2306
-19.8972
-19.5028
-19.0634
3.81792
2.86461
1.97883
1.1329
0.289076
-0.572017
-1.46098
-2.38658
-3.35472
-4.36676
-5.41676
-6.49717
-7.59895
-8.70912
-9.81398
-10.9027
-11.9677
-13.0022
-13.9958
-14.9272
-15.7809
-16.5121
-17.1097
-17.6204
-18.0678
-18.4602
-18.807
-19.1071
-19.3574
-19.5865
-19.8394
-20.1282
-20.4125
-20.6339
-20.7452
-20.7298
-20.5895
-20.3381
-19.9795
-19.5323
-19.0319
3.32705
2.48107
1.69861
0.957832
0.226491
-0.51191
-1.26627
-2.04458
-2.8531
-3.69547
-4.57052
-5.47562
-6.40669
-7.35666
-8.31581
-9.27384
-10.2208
-11.1492
-12.0543
-12.9324
-13.7772
-14.5573
-15.2514
-15.8613
-16.3996
-16.8846
-17.3263
-17.7276
-18.0907
-18.4191
-18.7077
-18.944
-19.1191
-19.2424
-19.3215
-19.3588
-19.3414
-19.2591
-19.0846
-18.8145
-18.4857
2.89486
2.13935
1.44313
0.787779
0.145623
-0.497156
-1.14789
-1.81353
-2.49951
-3.20979
-3.94538
-4.7063
-5.49098
-6.29575
-7.11485
-7.94166
-8.76814
-9.58675
-10.3902
-11.1735
-11.9318
-12.6391
-13.2826
-13.8681
-14.3977
-14.8761
-15.3074
-15.698
-16.054
-16.3794
-16.6724
-16.9303
-17.1488
-17.3254
-17.4478
-17.5028
-17.4761
-17.3702
-17.1773
-16.8945
-16.5775
2.52789
1.84743
1.22238
0.63644
0.065626
-0.501697
-1.07174
-1.65058
-2.24305
-2.85273
-3.48098
-4.12917
-4.79689
-5.48213
-6.18129
-6.89028
-7.60362
-8.31578
-9.02028
-9.71106
-10.3814
-11.0041
-11.5644
-12.0682
-12.5182
-12.9205
-13.2802
-13.6018
-13.8875
-14.1398
-14.3594
-14.5471
-14.7011
-14.8189
-14.8951
-14.924
-14.8992
-14.8205
-14.6844
-14.4817
-14.2419
2.21848
1.60225
1.03745
0.509575
-0.00243614
-0.508292
-1.01347
-1.52314
-2.04159
-2.57179
-3.11518
-3.67344
-4.24691
-4.83435
-5.4333
-6.04095
-6.65333
-7.26623
-7.87457
-8.47339
-9.05701
-9.60222
-10.095
-10.5381
-10.9314
-11.277
-11.5773
-11.8353
-12.0531
-12.2333
-12.3773
-12.4859
-12.5593
-12.5966
-12.5973
-12.561
-12.4877
-12.3751
-12.2238
-12.0322
-11.8049
1.95633
1.39586
0.883402
0.405091
-0.056837
-0.511219
-0.962299
-1.41512
-1.87285
-2.33856
-2.81294
-3.298
-3.79402
-4.30076
-4.81577
-5.33754
-5.86245
-6.3878
-6.90881
-7.42191
-7.92153
-8.38897
-8.81204
-9.19279
-9.52973
-9.82422
-10.077
-10.2899
-10.4636
-10.6001
-10.7002
-10.7653
-10.7966
-10.7952
-10.7622
-10.6988
-10.6062
-10.4837
-10.3343
-10.1597
-9.96086
1.73325
1.22237
0.755716
0.320999
-0.0977466
-0.50757
-0.912795
-1.31723
-1.72423
-2.13576
-2.553
-2.97691
-3.40872
-3.8476
-4.29236
-4.74089
-5.19117
-5.64011
-6.08463
-6.52075
-6.94449
-7.33937
-7.69638
-8.01605
-8.29774
-8.54157
-8.74884
-8.92027
-9.05726
-9.16065
-9.23198
-9.27228
-9.2831
-9.2655
-9.22125
-9.15157
-9.05832
-8.94247
-8.80698
-8.65393
-8.48517
1.54296
1.07624
0.650493
0.254191
-0.126345
-0.497383
-0.862614
-1.22551
-1.58885
-1.95435
-2.32293
-2.69534
-3.07256
-3.45413
-3.839
-4.22535
-4.61143
-4.99468
-5.3725
-5.74148
-6.09819
-6.42905
-6.72704
-6.99241
-7.22451
-7.4233
-7.58993
-7.72507
-7.83004
-7.90579
-7.95387
-7.97548
-7.97224
-7.94548
-7.89695
-7.82811
-7.74067
-7.63586
-7.51581
-7.38272
-7.23743
1.38
0.953246
0.563999
0.202234
-0.144445
-0.480972
-0.81115
-1.13754
-1.46302
-1.78854
-2.11534
-2.4434
-2.77397
-3.10637
-3.44011
-3.77312
-4.10428
-4.43096
-4.75137
-5.06218
-5.36087
-5.63596
-5.88254
-6.1005
-6.28958
-6.44955
-6.58167
-6.6865
-6.76542
-6.81939
-6.84993
-6.85836
-6.84622
-6.81495
-6.76613
-6.70137
-6.62209
-6.52962
-6.42561
-6.31215
-6.18966
1.24033
0.849502
0.493401
0.162503
-0.153551
-0.4595
-0.758281
-1.05264
-1.34455
-1.63532
-1.92541
-2.21528
-2.50528
-2.79551
-3.08491
-3.37233
-3.65601
-3.93443
-4.20529
-4.46649
-4.71515
-4.94274
-5.14502
-5.32271
-5.47502
-5.60248
-5.70575
-5.78595
-5.84403
-5.88128
-5.89893
-5.89839
-5.88109
-5.84833
-5.80171
-5.74252
-5.67227
-5.59179
-5.5029
-5.40693
-5.3048
1.12023
0.762184
0.43594
0.133106
-0.155473
-0.433784
-0.704625
-0.970293
-1.23257
-1.49249
-1.75046
-2.00678
-2.26164
-2.51507
-2.76625
-3.01412
-3.25717
-3.49399
-3.72265
-3.94137
-4.14773
-4.33492
-4.49998
-4.64367
-4.76545
-4.86591
-4.94578
-5.00615
-5.04798
-5.07245
-5.08081
-5.07429
-5.05425
-5.02183
-4.97848
-4.92527
-4.86359
-4.79409
-4.71836
-4.63738
-4.55202
1.01697
0.688564
0.389593
0.112059
-0.151487
-0.405004
-0.650588
-0.890686
-1.12642
-1.35904
-1.58851
-1.81541
-2.03938
-2.26079
-2.47867
-2.69243
-2.90037
-3.1016
-3.29418
-3.47688
-3.64748
-3.80079
-3.9347
-4.05016
-4.14675
-4.22517
-4.28614
-4.33073
-4.35992
-4.37477
-4.37645
-4.36606
-4.34486
-4.3138
-4.2742
-4.22692
-4.17318
-4.11345
-4.04911
-3.98086
-3.90947
0.927923
0.626716
0.352332
0.0979893
-0.14303
-0.373918
-0.596918
-0.813821
-1.02598
-1.23406
-1.43842
-1.63909
-1.83613
-2.02933
-2.21841
-2.40237
-2.58027
-2.75078
-2.9128
-3.06483
-3.20553
-3.33039
-3.43857
-3.53066
-3.60673
-3.66728
-3.71325
-3.74551
-3.76506
-3.77289
-3.76999
-3.75745
-3.73623
-3.70732
-3.67161
-3.63008
-3.58348
-3.53248
-3.47788
-3.42061
-3.36088
0.851216
0.574641
0.322815
0.0894308
-0.131007
-0.341508
-0.543974
-0.740108
-0.930976
-1.11723
-1.2991
-1.47664
-1.64983
-1.81845
-1.98229
-2.14054
-2.29239
-2.43674
-2.57267
-2.69895
-2.81452
-2.9159
-3.00282
-3.07591
-3.13538
-3.18172
-3.21584
-3.23862
-3.25094
-3.2537
-3.2478
-3.23417
-3.21363
-3.18705
-3.15518
-3.11885
-3.07864
-3.03513
-2.98895
-2.94085
-2.89099
0.784988
0.531047
0.299565
0.0854108
-0.116452
-0.308346
-0.492346
-0.669635
-0.84146
-1.00807
-1.16996
-1.32689
-1.4791
-1.6261
-1.76796
-1.90384
-2.03329
-2.1552
-2.26899
-2.37356
-2.46822
-2.55017
-2.61966
-2.67728
-2.72337
-2.75841
-2.78328
-2.79877
-2.8057
-2.80488
-2.7971
-2.78316
-2.76378
-2.73968
-2.71149
-2.67988
-2.64532
-2.60829
-2.56928
-2.52889
-2.48724
0.727909
0.494417
0.281671
0.0848273
-0.0999965
-0.275157
-0.442295
-0.602722
-0.757253
-0.906405
-1.05031
-1.18908
-1.32259
-1.45075
-1.57328
-1.6899
-1.79992
-1.90277
-1.9977
-2.08415
-2.16131
-2.22734
-2.28255
-2.32774
-2.36312
-2.38933
-2.40704
-2.41707
-2.42012
-2.41692
-2.40816
-2.3945
-2.37658
-2.35494
-2.33019
-2.30275
-2.27316
-2.24163
-2.20872
-2.17473
-2.13996
0.678601
0.4639
0.267998
0.087067
-0.0823995
-0.242297
-0.394264
-0.539374
-0.678435
-0.81184
-0.939777
-1.06232
-1.1794
-1.29091
-1.39668
-1.49652
-1.5899
-1.67643
-1.75547
-1.82663
-1.88935
-1.94228
-1.98594
-2.02111
-2.04803
-2.06728
-2.07954
-2.08552
-2.08585
-2.08116
-2.07202
-2.059
-2.04264
-2.0234
-2.00174
-1.97804
-1.9527
-1.92592
-1.89813
-1.86956
-1.84045
0.636128
0.438356
0.257964
0.0913117
-0.0640829
-0.210249
-0.348403
-0.479769
-0.604833
-0.724181
-0.837798
-0.945958
-1.04848
-1.14543
-1.23655
-1.32188
-1.40095
-1.47354
-1.53916
-1.5976
-1.64839
-1.69063
-1.72496
-1.75211
-1.77237
-1.78629
-1.79444
-1.79746
-1.79591
-1.79033
-1.78122
-1.76905
-1.75427
-1.73725
-1.71838
-1.69796
-1.67631
-1.65358
-1.63012
-1.60608
-1.5817
0.599457
0.417211
0.250671
0.0971791
-0.0456252
-0.179238
-0.305009
-0.423867
-0.53644
-0.643078
-0.744008
-0.8393
-0.929043
-1.01312
-1.09157
-1.16428
-1.23112
-1.29182
-1.34619
-1.39394
-1.43493
-1.46844
-1.49527
-1.51605
-1.53111
-1.5409
-1.54597
-1.54689
-1.54414
-1.53817
-1.52941
-1.51824
-1.50503
-1.4901
-1.47374
-1.45621
-1.43773
-1.41847
-1.39865
-1.37843
-1.35799
0.567916
0.399574
0.245769
0.104003
-0.0272724
-0.149591
-0.264139
-0.371759
-0.473049
-0.568344
-0.6579
-0.741814
-0.820215
-0.893068
-0.960443
-1.0223
-1.07863
-1.12927
-1.17411
-1.21304
-1.24598
-1.27244
-1.29324
-1.30899
-1.31998
-1.32664
-1.32947
-1.32893
-1.32543
-1.31938
-1.31112
-1.30098
-1.28926
-1.27621
-1.26207
-1.24705
-1.23133
-1.21502
-1.19832
-1.18131
-1.16419
0.540726
0.38507
0.242559
0.111566
-0.00937249
-0.121494
-0.225889
-0.323397
-0.414528
-0.499672
-0.579068
-0.652889
-0.721285
-0.784293
-0.84202
-0.894528
-0.941865
-0.983985
-1.02088
-1.05249
-1.07883
-1.09962
-1.11566
-1.12748
-1.13539
-1.13974
-1.14096
-1.13948
-1.13564
-1.12978
-1.12218
-1.11311
-1.10281
-1.09149
-1.07933
-1.06651
-1.05315
-1.03935
-1.02527
-1.01094
-0.996584
0.517423
0.373022
0.240844
0.119398
0.00782705
-0.0950512
-0.190345
-0.278699
-0.360736
-0.436755
-0.507118
-0.571961
-0.631539
-0.685919
-0.735281
-0.77972
-0.819371
-0.854272
-0.884471
-0.91
-0.930928
-0.947104
-0.959295
-0.968
-0.973465
-0.976049
-0.976108
-0.974007
-0.970035
-0.964471
-0.957552
-0.949497
-0.940498
-0.930715
-0.920309
-0.909396
-0.8981
-0.886469
-0.874658
-0.862638
-0.850666
0.497408
0.363196
0.240093
0.127342
0.0241672
-0.0704659
-0.157488
-0.237646
-0.311459
-0.379343
-0.441603
-0.498515
-0.550296
-0.597149
-0.639226
-0.676747
-0.709859
-0.7387
-0.763363
-0.783947
-0.800561
-0.813142
-0.822433
-0.828853
-0.832644
-0.834088
-0.833509
-0.831193
-0.827395
-0.822329
-0.816198
-0.809172
-0.801408
-0.793033
-0.78417
-0.774918
-0.765364
-0.755554
-0.745604
-0.735478
-0.72542
0.480291
0.355004
0.24015
0.135062
0.0394351
-0.0477298
-0.127355
-0.20012
-0.266558
-0.327122
-0.382167
-0.432015
-0.476932
-0.517168
-0.55293
-0.584466
-0.611968
-0.635623
-0.655588
-0.671977
-0.684954
-0.694522
-0.701364
-0.705837
-0.708176
-0.708619
-0.707459
-0.704922
-0.701238
-0.696571
-0.6911
-0.684947
-0.678253
-0.671103
-0.663606
-0.655822
-0.647833
-0.639657
-0.631402
-0.622993
-0.6147
0.465572
0.34821
0.240482
0.142344
0.0534784
-0.0269847
-0.0999259
-0.166018
-0.225824
-0.279819
-0.328413
-0.371979
-0.410842
-0.445306
-0.475624
-0.502085
-0.524926
-0.544373
-0.560616
-0.57381
-0.584131
-0.591618
-0.596885
-0.600229
-0.601851
-0.601943
-0.600751
-0.598453
-0.595237
-0.591228
-0.586573
-0.581365
-0.575715
-0.569688
-0.563373
-0.556815
-0.55008
-0.543177
-0.536204
-0.529074
-0.52206
0.453172
0.342502
0.241057
0.148877
0.0660381
-0.00838157
-0.0752431
-0.135286
-0.189074
-0.23715
-0.279965
-0.317923
-0.35141
-0.380735
-0.406231
-0.428152
-0.446807
-0.462391
-0.475186
-0.485308
-0.493013
-0.498325
-0.501851
-0.503807
-0.504414
-0.503804
-0.502222
-0.499789
-0.496689
-0.493001
-0.488866
-0.484338
-0.479523
-0.47445
-0.469204
-0.463801
-0.458303
-0.452698
-0.447076
-0.441324
-0.435735
0.442947
0.338107
0.241894
0.154903
0.0772017
0.00806952
-0.0533916
-0.107914
-0.156205
-0.198878
-0.236462
-0.269418
-0.298164
-0.3231
-0.344574
-0.362934
-0.378443
-0.39139
-0.401964
-0.410384
-0.416792
-0.421319
-0.424362
-0.426194
-0.42689
-0.426643
-0.42555
-0.423786
-0.421411
-0.41856
-0.415272
-0.41165
-0.407719
-0.403559
-0.399187
-0.394662
-0.389995
-0.385215
-0.380369
-0.375384
-0.370503
0.434144
0.33421
0.242792
0.160347
0.087237
0.0227016
-0.0340393
-0.0837336
-0.127092
-0.164833
-0.197599
-0.225944
-0.250313
-0.271082
-0.28856
-0.303106
-0.315003
-0.324592
-0.332088
-0.337755
-0.341722
-0.344165
-0.345442
-0.345812
-0.345324
-0.344174
-0.342432
-0.340268
-0.337713
-0.334896
-0.331829
-0.32861
-0.325237
-0.321783
-0.31824
-0.314663
-0.311039
-0.307396
-0.303755
-0.300036
-0.296482
0.425119
0.328941
0.241511
0.163536
0.094996
0.0350975
-0.0171125
-0.0623548
-0.101346
-0.134745
-0.163204
-0.18739
-0.207943
-0.225474
-0.240406
-0.25308
-0.263659
-0.2724
-0.279445
-0.285035
-0.289268
-0.292313
-0.294403
-0.295743
-0.296345
-0.296369
-0.295838
-0.294888
-0.293521
-0.291841
-0.289841
-0.287607
-0.285129
-0.282478
-0.279639
-0.276674
-0.273566
-0.270358
-0.267057
-0.26363
-0.260243
0.417252
0.322902
0.237862
0.16299
0.0984891
0.043232
-0.00397381
-0.0442959
-0.0786651
-0.107879
-0.132497
-0.152946
-0.169544
-0.182685
-0.192807
-0.200538
-0.206341
-0.210642
-0.213613
-0.215501
-0.216378
-0.216413
-0.215829
-0.214822
-0.213388
-0.211684
-0.209723
-0.207636
-0.205406
-0.203136
-0.200798
-0.198471
-0.19612
-0.193806
-0.191493
-0.189228
-0.186977
-0.184768
-0.182593
-0.180395
-0.178353
0.416733
0.323991
0.239733
0.165592
0.102251
0.0491898
0.00528053
-0.0306867
-0.060077
-0.0842109
-0.104295
-0.121378
-0.136212
-0.149296
-0.160712
-0.1704
-0.178277
-0.184638
-0.189726
-0.193848
-0.197101
-0.199682
-0.201699
-0.203292
-0.204427
-0.205228
-0.205664
-0.205837
-0.205701
-0.205347
-0.204725
-0.20392
-0.202882
-0.201692
-0.200301
-0.198785
-0.197098
-0.195307
-0.193376
-0.191343
-0.189231
0.421128
0.331585
0.249822
0.176984
0.113948
0.060629
0.016535
-0.019042
-0.0469162
-0.0679905
-0.0831809
-0.0934222
-0.0996333
-0.102796
-0.103894
-0.103888
-0.103182
-0.101972
-0.100254
-0.0981724
-0.0957345
-0.0930518
-0.09023
-0.0874205
-0.084571
-0.0818079
-0.0790797
-0.0764997
-0.0739965
-0.0716622
-0.0694162
-0.0673374
-0.0653433
-0.0634994
-0.0617236
-0.0600763
-0.0584837
-0.0569909
-0.0555404
-0.0541298
-0.0528198
0.402894
0.312144
0.233874
0.167317
0.111442
0.0648234
0.0260537
-0.00608062
-0.0326226
-0.0544761
-0.0724386
-0.0872094
-0.099391
-0.109489
-0.117881
-0.124902
-0.130804
-0.135557
-0.139493
-0.142947
-0.146125
-0.149128
-0.151962
-0.154589
-0.157058
-0.159349
-0.16151
-0.163495
-0.165358
-0.167048
-0.168632
-0.170054
-0.171391
-0.172579
-0.173704
-0.174696
-0.175645
-0.17648
-0.177286
-0.178005
-0.178669
-18.3016
-16.4592
-13.9335
-11.539
-9.72945
-8.6485
-8.12699
-7.78196
-7.44563
-7.10387
-6.7336
-6.36994
-5.97531
-5.52876
-5.04264
-4.54182
-4.03016
-3.53708
-3.06407
-2.62712
-2.22736
-1.86605
-1.54831
-1.26824
-1.02832
-0.821856
-0.649667
-0.503705
-0.384308
-0.287034
-0.20789
-0.145071
-0.0938921
-0.0560833
-0.025895
-0.00239499
0.0135261
0.0266115
0.0345117
0.0419914
0.0435687
0.0469025
0.0490179
0.0463076
0.0490036
0.0442745
0.0447854
0.0430807
0.0398493
0.0374234
0.0365997
0.0331617
0.0313258
0.0290802
0.0270041
0.0259685
0.022321
0.0218203
0.0190135
0.0181697
0.0156159
0.014861
0.0121906
0.0107899
0.00954281
0.00736628
0.00598976
0.00402919
0.00144534
0.00121596
-0.00473497
0.00225631
-0.0205578
0.0261131
-19.0796
-17.2496
-14.6106
-12.0524
-10.168
-9.07694
-8.52525
-8.12189
-7.71462
-7.30185
-6.87324
-6.46328
-6.04633
-5.58728
-5.08893
-4.57535
-4.05371
-3.55137
-3.07158
-2.62888
-2.22488
-1.86051
-1.54047
-1.25885
-1.01782
-0.810701
-0.637953
-0.491783
-0.372275
-0.274908
-0.195979
-0.133118
-0.0823779
-0.0447343
-0.0147086
0.00835435
0.0240663
0.036753
0.0444549
0.0511276
0.0525463
0.0555107
0.0567068
0.0539145
0.0555592
0.050576
0.0504945
0.0478912
0.0441979
0.0412486
0.0397302
0.0357765
0.0333836
0.0306488
0.0281568
0.0264599
0.0225597
0.0215728
0.0184942
0.0172685
0.0145214
0.0134071
0.0106118
0.0090526
0.00764669
0.0054042
0.0039484
0.00199302
-0.000560585
-0.000735924
-0.00651527
0.00059309
-0.0218504
0.0252362
-19.5911
-18.0956
-15.4208
-12.7094
-10.7164
-9.56522
-8.95444
-8.48855
-8.01525
-7.53436
-7.04632
-6.58202
-6.13009
-5.65656
-5.1459
-4.61789
-4.08412
-3.57048
-3.08234
-2.63249
-2.22347
-1.85537
-1.5326
-1.24925
-1.00702
-0.799256
-0.626019
-0.479804
-0.360313
-0.263094
-0.184385
-0.121716
-0.0713403
-0.0339027
-0.00418076
0.018479
0.0339502
0.0462349
0.0536242
0.0597309
0.0609647
0.0634389
0.0639832
0.0609877
0.0618067
0.0565276
0.0558114
0.0525312
0.0483945
0.0449009
0.042758
0.0383215
0.0353928
0.0321995
0.029269
0.0270116
0.0228422
0.0213877
0.0180432
0.0164526
0.013504
0.0120603
0.00914038
0.00742068
0.00585723
0.00355982
0.00200829
6.34476e-05
-0.00246314
-0.00258005
-0.00821392
-0.000986286
-0.0230513
0.0244045
-20.0048
-18.8222
-16.2491
-13.4485
-11.3288
-10.0722
-9.37917
-8.85539
-8.33175
-7.79594
-7.25374
-6.73349
-6.23394
-5.73524
-5.21226
-4.67085
-4.12279
-3.59588
-3.09732
-2.63885
-2.22366
-1.85103
-1.52494
-1.23958
-0.995968
-0.787592
-0.613941
-0.467755
-0.348394
-0.251564
-0.173133
-0.110903
-0.0608896
-0.0237507
0.00552854
0.0278432
0.043006
0.0548905
0.0618793
0.0676429
0.0686029
0.0705268
0.0706459
0.0673399
0.0675359
0.0619472
0.0605789
0.0568251
0.0522874
0.0482475
0.0455667
0.040691
0.0372734
0.0336505
0.0302766
0.0275714
0.023121
0.0212372
0.0176321
0.015708
0.0125516
0.0108214
0.00778168
0.00589348
0.00418295
0.00183594
0.000182244
-0.0017439
-0.00425013
-0.00431074
-0.00981173
-0.00246811
-0.0241415
0.0236296
-20.2702
-19.3514
-17.0114
-14.2343
-12.0105
-10.6243
-9.82546
-9.23659
-8.66834
-8.08616
-7.49379
-6.91849
-6.36498
-5.82539
-5.28308
-4.7299
-4.16838
-3.62682
-3.11583
-2.64711
-2.2245
-1.84646
-1.51652
-1.22885
-0.983753
-0.774731
-0.600811
-0.454883
-0.335853
-0.239526
-0.161632
-0.0999536
-0.0505049
-0.0137864
0.0149795
0.0368299
0.0516391
0.0630584
0.0696563
0.0750157
0.0757506
0.0771309
0.0768421
0.0732628
0.072868
0.0670067
0.0650188
0.0608337
0.0559245
0.0513752
0.0481893
0.0429114
0.0390245
0.0350046
0.0311971
0.0280851
0.0233596
0.0210669
0.0172112
0.0149717
0.0116076
0.00961919
0.00646317
0.00440537
0.0025632
0.000161116
-0.00157149
-0.00348153
-0.00596212
-0.00597006
-0.0113278
-0.00388259
-0.0251369
0.0228982
-20.3827
-19.6681
-17.6277
-14.998
-12.7375
-11.2277
-10.3081
-9.64392
-9.031
-8.4085
-7.77049
-7.14125
-6.53131
-5.93954
-5.36204
-4.79157
-4.2185
-3.66298
-3.13836
-2.65752
-2.22593
-1.84158
-1.50722
-1.21699
-0.970305
-0.760748
-0.586648
-0.441152
-0.322715
-0.227113
-0.15
-0.0890247
-0.0403509
-0.0041843
0.0240235
0.0453132
0.0597144
0.0706278
0.0768884
0.0817843
0.0823116
0.0831985
0.0825009
0.0787229
0.0777331
0.0716715
0.0691252
0.0645194
0.0592889
0.0542807
0.050622
0.044977
0.0406562
0.0362652
0.0320607
0.0285577
0.0235797
0.020895
0.0168069
0.0142615
0.0107043
0.00846797
0.00520141
0.00297389
0.0010064
-0.00145224
-0.00325232
-0.00514999
-0.00760573
-0.00757065
-0.0127703
-0.00524378
-0.0260472
0.0221866
-20.3611
-19.7829
-18.0464
-15.6671
-13.4617
-11.866
-10.8267
-10.0779
-9.41639
-8.75693
-8.07892
-7.3991
-6.73287
-6.0846
-5.45834
-4.856
-4.26777
-3.69984
-3.16256
-2.6691
-2.227
-1.83528
-1.49585
-1.20285
-0.95464
-0.74473
-0.570744
-0.426071
-0.308582
-0.214007
-0.137973
-0.0779506
-0.0302812
0.00518745
0.0326563
0.0532641
0.0672012
0.0775611
0.0834609
0.0878852
0.0882611
0.0886829
0.0876104
0.0837004
0.0821383
0.0759595
0.0728902
0.0679234
0.0624065
0.0570091
0.0528999
0.046945
0.0422146
0.0374899
0.0329126
0.0290286
0.0238205
0.0207547
0.0164518
0.0136045
0.00986892
0.00737956
0.00400884
0.00161783
-0.000476017
-0.00298488
-0.00485617
-0.0067446
-0.00917278
-0.00909923
-0.014139
-0.00654807
-0.0268718
0.0214991
-20.215
-19.7171
-18.2543
-16.1808
-14.1253
-12.5074
-11.3708
-10.5352
-9.81976
-9.12398
-8.41154
-7.6876
-6.96819
-6.26343
-5.58198
-4.93314
-4.31606
-3.73269
-3.18399
-2.67919
-2.22644
-1.82721
-1.48207
-1.18602
-0.936327
-0.726385
-0.552937
-0.409568
-0.293471
-0.200396
-0.125784
-0.0670651
-0.0206529
0.0139502
0.0405135
0.0603442
0.0737259
0.0835337
0.0890553
0.0930529
0.0932696
0.0932869
0.0919154
0.0879304
0.0858696
0.0796673
0.0761266
0.0709026
0.0651582
0.0594429
0.0549349
0.0487319
0.0436389
0.0386207
0.0337084
0.0294854
0.0240738
0.0206521
0.016155
0.0130205
0.00912077
0.00638672
0.00292009
0.00037034
-0.00184919
-0.00440292
-0.0063527
-0.00823266
-0.0106373
-0.0105332
-0.0154136
-0.00777401
-0.0275961
0.0208342
-19.9641
-19.5007
-18.2761
-16.5109
-14.6732
-13.1081
-11.9165
-11.0037
-10.2301
-9.49559
-8.75179
-7.99133
-7.22594
-6.46857
-5.73202
-5.02988
-4.36981
-3.75857
-3.19546
-2.68113
-2.21947
-1.81341
-1.46314
-1.16456
-0.913763
-0.704184
-0.531873
-0.390493
-0.276486
-0.185463
-0.112798
-0.0558063
-0.0110066
0.0224027
0.0478137
0.0666844
0.0794239
0.0885819
0.0937016
0.0972627
0.0973805
0.0970271
0.095429
0.0914241
0.0889471
0.0828017
0.0788593
0.0734614
0.0675567
0.0616002
0.0567458
0.0503624
0.0449533
0.0396856
0.0344719
0.0299388
0.0243505
0.020594
0.0159206
0.0125116
0.00845817
0.0054857
0.00193027
-0.00077535
-0.00311796
-0.00571533
-0.0077448
-0.00961891
-0.0119975
-0.0118696
-0.0165902
-0.00892452
-0.0282169
0.0202018
-19.6472
-19.1801
-18.1501
-16.67
-15.0703
-13.6182
-12.4245
-11.4587
-10.6305
-9.85488
-9.08055
-8.29033
-7.48863
-6.68715
-5.90074
-5.14626
-4.43704
-3.78522
-3.19582
-2.66822
-2.20028
-1.78956
-1.43557
-1.1355
-0.884947
-0.677183
-0.507117
-0.368482
-0.257328
-0.169101
-0.0991107
-0.0444561
-0.00169068
0.0301878
0.0542075
0.0719256
0.083896
0.0923502
0.0970695
0.100205
0.100248
0.0996078
0.097873
0.0939285
0.0911504
0.0851667
0.0809267
0.0754618
0.0694764
0.0633721
0.0582423
0.0517463
0.046083
0.0406163
0.0351527
0.0303614
0.024629
0.020573
0.0157426
0.012083
0.00788566
0.00469348
0.00105547
-0.00180223
-0.00426257
-0.00690481
-0.00901133
-0.0108826
-0.0132392
-0.0130986
-0.017657
-0.0099847
-0.0287288
0.0195921
-19.3056
-18.8134
-17.9257
-16.6951
-15.3225
-14.0063
-12.8527
-11.865
-10.9946
-10.1798
-9.37486
-8.55919
-7.73036
-6.89609
-6.07016
-5.27083
-4.51507
-3.81877
-3.19272
-2.64096
-2.16148
-1.74766
-1.39409
-1.09508
-0.846156
-0.641547
-0.475621
-0.341793
-0.23501
-0.150498
-0.0838915
-0.032214
0.0078362
0.0376042
0.0598518
0.0761855
0.0872262
0.0948759
0.0991444
0.101867
0.10188
0.10105
0.0992542
0.0954715
0.0924981
0.0867775
0.0823595
0.0769244
0.0709521
0.0647999
0.0594718
0.0529449
0.0470949
0.0414796
0.0358181
0.0307943
0.0249514
0.0206176
0.0156537
0.0117542
0.00742704
0.00401998
0.000302517
-0.00270509
-0.0052829
-0.00797201
-0.0101567
-0.0120316
-0.0143665
-0.014224
-0.0186188
-0.0109683
-0.0291356
0.0190099
-18.9784
-18.4527
-17.6593
-16.6281
-15.4597
-14.2811
-13.1827
-12.1932
-11.2936
-10.4441
-9.60938
-8.7708
-7.92186
-7.0659
-6.21397
-5.38272
-4.59076
-3.85562
-3.19218
-2.60941
-2.10902
-1.68578
-1.33191
-1.03781
-0.795214
-0.596516
-0.435938
-0.308021
-0.207354
-0.128817
-0.0673788
-0.0196619
0.0171686
0.0443752
0.0644183
0.0789681
0.0888402
0.0956139
0.0994282
0.101786
0.101803
0.100907
0.099174
0.0956861
0.0926862
0.0873663
0.0829333
0.0776604
0.0718331
0.065744
0.0603302
0.0538559
0.0479108
0.0422037
0.0364178
0.0312113
0.0253034
0.0207269
0.0156573
0.0115397
0.00709792
0.00348983
-0.000301985
-0.00345449
-0.00614831
-0.00888623
-0.0111509
-0.013036
-0.015356
-0.0152255
-0.0194586
-0.0118514
-0.0294326
0.0184452
-18.7073
-18.1466
-17.4045
-16.5101
-15.508
-14.4599
-13.4247
-12.4407
-11.5139
-10.6293
-9.76361
-8.9017
-8.0359
-7.16701
-6.3013
-5.45398
-4.64139
-3.88088
-3.18901
-2.57812
-2.05394
-1.61463
-1.2536
-0.960941
-0.725789
-0.537513
-0.387329
-0.26812
-0.17435
-0.101979
-0.046775
-0.00507817
0.0266342
0.0502626
0.0678094
0.0804017
0.0889057
0.0945666
0.0978244
0.0998361
0.0999605
0.0991475
0.0976203
0.0945598
0.0917052
0.0869279
0.0826585
0.0776905
0.0721385
0.0662487
0.0608584
0.0545434
0.0485924
0.0428629
0.0370165
0.0316698
0.0257342
0.0209461
0.0157935
0.0114727
0.00692821
0.00312658
-0.000741489
-0.0040365
-0.00684969
-0.00964237
-0.011993
-0.0138994
-0.0162077
-0.0161028
-0.020178
-0.0126488
-0.02962
0.0179082
-18.5361
-17.9482
-17.2252
-16.4001
-15.4997
-14.5492
-13.5781
-12.6103
-11.6636
-10.7401
-9.8338
-8.94028
-8.05584
-7.17603
-6.30534
-5.45518
-4.63875
-3.87103
-3.16706
-2.54028
-1.99906
-1.54458
-1.17317
-0.876309
-0.643609
-0.463301
-0.324818
-0.218768
-0.137159
-0.0740764
-0.0253558
0.0112623
0.0378372
0.0564965
0.0696665
0.0793567
0.0863366
0.0910822
0.0938656
0.0955297
0.0957349
0.0951695
0.0940549
0.0916414
0.0891777
0.0851318
0.0812538
0.076784
0.0716753
0.0661541
0.0609301
0.0548931
0.0490491
0.0433802
0.037557
0.0321386
0.0262289
0.0212742
0.0160665
0.0115687
0.00693397
0.00295372
-0.000987325
-0.00442207
-0.00735452
-0.010209
-0.0126494
-0.0145872
-0.0168933
-0.0168322
-0.0207572
-0.0133304
-0.0296958
0.0173892
-18.4282
-17.8397
-17.1298
-16.3357
-15.4775
-14.5729
-13.6379
-12.6882
-11.7347
-10.7813
-9.83156
-8.89548
-7.98063
-7.08627
-6.21241
-5.36596
-4.55865
-3.80097
-3.10382
-2.47968
-1.93598
-1.47631
-1.09849
-0.79755
-0.56398
-0.386915
-0.255531
-0.159897
-0.0909084
-0.0410532
-0.00417064
0.0238794
0.045385
0.061062
0.0712884
0.0777283
0.0815135
0.0843451
0.0865934
0.0884216
0.0890822
0.0890121
0.0884276
0.0868396
0.085032
0.0819519
0.0787349
0.0749583
0.0704831
0.0655045
0.0606093
0.0549818
0.049366
0.0438483
0.0381293
0.0326981
0.0268541
0.0217733
0.0165311
0.011875
0.00715722
0.00300753
-0.00101563
-0.0045891
-0.00764958
-0.0105774
-0.0131162
-0.0151016
-0.0174155
-0.0174171
-0.0212011
-0.0139165
-0.0296616
0.0168993
-18.3126
-17.6901
-16.9676
-16.1818
-15.3544
-14.4895
-13.5878
-12.6533
-11.6918
-10.7135
-9.73249
-8.76391