/*--------------------------------*- C++ -*----------------------------------*\
| =========                 |                                                 |
| \\      /  F ield         | OpenFOAM: The Open Source CFD Toolbox           |
|  \\    /   O peration     | Version:  2312                                  |
|   \\  /    A nd           | Website:  www.openfoam.com                      |
|    \\/     M anipulation  |                                                 |
\*---------------------------------------------------------------------------*/
FoamFile
{
    version     2.0;
    format      ascii;
    arch        "LSB;label=32;scalar=64";
    class       surfaceScalarField;
    location    "450";
    object      phi;
}
// * * * * * * * * * * * * * * * * * * * * * * * * * * * * * * * * * * * * * //

dimensions      [0 3 -1 0 0 0 0];

oriented        oriented;

internalField   nonuniform List<scalar> 
21876
(
0.00823523
0.00115257
-0.00938779
0.00213259
0.00610269
-0.00102123
0.0031536
-0.00166156
0.000639989
-0.00153397
-0.000127571
-0.00148616
-4.76628e-05
-0.0014436
-4.26886e-05
-0.00139871
-4.51346e-05
-0.00136361
-3.50052e-05
-0.00134797
-1.57566e-05
-0.00133232
-1.56072e-05
-0.00131847
-1.32912e-05
-0.00131416
-5.61454e-06
-0.00130973
-4.54926e-06
-0.00131334
3.61157e-06
-0.00132195
9.20463e-06
-0.0013395
1.67369e-05
-0.00136512
2.62418e-05
-0.00140004
3.46025e-05
-0.00144472
4.56295e-05
-0.00149983
5.41597e-05
-0.00156075
5.99816e-05
-0.00163375
7.21745e-05
-0.00172027
8.61699e-05
-0.00181796
9.85066e-05
-0.00192417
0.000106384
-0.00203274
0.00010951
-0.00213765
0.000105068
-0.00223025
9.33639e-05
-0.00230087
7.07254e-05
-0.00233573
3.54401e-05
-0.00232225
-1.36081e-05
-0.00225432
-6.73083e-05
-0.0021259
-0.000128681
-0.00192581
-0.000198694
-0.00164672
-0.000279767
-0.00125764
-0.000388059
-0.000703458
-0.000553353
-8.36531e-05
-0.000617652
0.000425787
-0.000511477
-0.00247532
0.0029007
0.0118669
-0.000383312
-0.0103309
0.0103942
0.00757536
0.00481452
0.00873315
-5.24236e-06
0.00545958
-0.00174196
0.00160899
-0.00176252
-2.73528e-05
-0.00178101
-2.46675e-05
-0.00177811
-4.85147e-05
-0.00176818
-4.53474e-05
-0.00177372
-1.06936e-05
-0.00177804
-1.17842e-05
-0.0017808
-1.11528e-05
-0.00179325
5.73118e-06
-0.00180682
8.52632e-06
-0.0018293
2.52478e-05
-0.00185783
3.73067e-05
-0.00189534
5.31381e-05
-0.00194167
7.24767e-05
-0.00199868
9.05535e-05
-0.00206751
0.000114647
-0.00215073
0.000136288
-0.00224329
0.000151241
-0.00234872
0.00017615
-0.0024636
0.000199774
-0.00258166
0.000216087
-0.0026977
0.000221635
-0.00280498
0.000216536
-0.00289709
0.000196396
-0.00296572
0.000161561
-0.00300406
0.000108078
-0.00300628
3.68647e-05
-0.00296727
-5.40682e-05
-0.00287321
-0.000162498
-0.00270822
-0.000295439
-0.00245999
-0.000447955
-0.00211726
-0.000624205
-0.00165965
-0.000845759
-0.00104639
-0.00116724
-0.000247591
-0.00141659
0.000654451
-0.00141561
-0.00424058
0.00241908
0.0136606
-0.00267702
-0.0113668
0.0153696
0.00586636
0.0131618
0.0109409
0.00740739
0.011214
0.00150152
0.00751485
-0.00138135
0.00285551
-0.00187388
0.000467742
-0.00200638
8.38672e-05
-0.00205065
-9.86629e-07
-0.00210023
3.89127e-05
-0.00214061
2.8752e-05
-0.00216711
1.56872e-05
-0.00220059
3.87174e-05
-0.0022317
3.94872e-05
-0.00226992
6.36811e-05
-0.00231377
8.16865e-05
-0.00236649
0.000105791
-0.00242894
0.000135309
-0.00250273
0.000164505
-0.00258917
0.000201749
-0.00269036
0.000237296
-0.00279917
0.000259961
-0.00291846
0.000295498
-0.00304483
0.000326469
-0.00317294
0.000344946
-0.00329845
0.000347704
-0.00341524
0.000334077
-0.00351722
0.000298936
-0.00359648
0.000241481
-0.00364531
0.000157461
-0.00365424
4.6402e-05
-0.00361221
-9.55579e-05
-0.00350472
-0.000269313
-0.00331649
-0.000483113
-0.00303235
-0.000730975
-0.00263804
-0.00101821
-0.00211584
-0.00136761
-0.0014234
-0.00185903
-0.000508885
-0.00232997
0.000580561
-0.002505
-0.00552179
0.00186292
0.0155227
-0.00534167
-0.0128579
0.0179793
0.00340976
0.0191222
0.00979798
0.0167334
0.0136028
0.0107112
0.013537
0.00373445
0.00983221
-0.000522107
0.00472413
-0.00182442
0.00138597
-0.00213811
0.000312447
-0.00229603
0.000196482
-0.00241774
0.000150161
-0.0024944
9.18167e-05
-0.00256598
0.000109512
-0.00262467
9.75013e-05
-0.00268441
0.000122817
-0.00274706
0.000143726
-0.0028165
0.000174499
-0.00289559
0.000213865
-0.00298583
0.000254084
-0.00308934
0.000304953
-0.00320811
0.000355282
-0.00333406
0.00038489
-0.00347053
0.000430947
-0.00361487
0.000469926
-0.00376273
0.000492352
-0.00390988
0.000494274
-0.00404995
0.000473807
-0.00417593
0.000424349
-0.00427845
0.000343559
-0.00434732
0.000225615
-0.00437012
6.85501e-05
-0.00433332
-0.000133317
-0.00422145
-0.000382013
-0.00401744
-0.000688156
-0.00370353
-0.00104558
-0.00326297
-0.00145965
-0.00267866
-0.00195214
-0.00190943
-0.00262838
-0.000913614
-0.00332554
0.000302693
-0.00372109
-0.00652681
0.00130891
0.0175116
-0.00821973
-0.0146335
0.0200424
0.000879058
0.0224788
0.00736155
0.0236154
0.012466
0.0213653
0.0157871
0.0152111
0.0159864
0.00726197
0.0126732
0.00122098
0.00742688
-0.00142383
0.00295715
-0.00212359
0.00089617
-0.00248129
0.000507901
-0.00268301
0.000293609
-0.00284285
0.000269041
-0.00296194
0.000216308
-0.00306362
0.00022446
-0.00315859
0.000238822
-0.003253
0.000268857
-0.00335436
0.00031525
-0.00346485
0.000364772
-0.00358883
0.000429237
-0.00372919
0.000495654
-0.00387753
0.000533278
-0.00403814
0.00059173
-0.00420904
0.000641192
-0.00438648
0.000670283
-0.00456587
0.000674181
-0.00474018
0.000648593
-0.00490101
0.000585652
-0.00503715
0.000480089
-0.00513598
0.000324869
-0.00518267
0.00011556
-0.00516145
-0.000154133
-0.00505514
-0.000488017
-0.00484431
-0.000898492
-0.00450898
-0.00138039
-0.00403046
-0.00193774
-0.00339231
-0.00259023
-0.00255978
-0.00346025
-0.00151678
-0.00436787
-0.000224317
-0.00501284
-0.00738993
0.000640041
0.0198775
-0.0114042
-0.0166931
0.0226936
-0.001937
0.0252429
0.00481227
0.0277145
0.00999441
0.0290263
0.0144754
0.0271977
0.017815
0.021237
0.0186339
0.0125674
0.0160965
0.00447808
0.0110464
-0.0001707
0.00554494
-0.00182438
0.00216162
-0.00248006
0.00094908
-0.00287519
0.000663624
-0.00314237
0.000482946
-0.00334133
0.000422904
-0.00350509
0.000402039
-0.00364746
0.000410519
-0.00378669
0.000453878
-0.00392759
0.000505057
-0.0040796
0.000580723
-0.00424791
0.000663139
-0.004425
0.000709564
-0.00461691
0.000782819
-0.00482265
0.00084636
-0.00503912
0.000886327
-0.00526123
0.000895898
-0.0054811
0.000868088
-0.00568879
0.000792965
-0.00587125
0.000662123
-0.00601349
0.000466685
-0.00609825
0.000199809
-0.00610733
-0.000145532
-0.0060214
-0.000574496
-0.00581881
-0.00110142
-0.00547782
-0.0017217
-0.00497876
-0.00243696
-0.00430672
-0.00326224
-0.00343831
-0.00432818
-0.00238479
-0.0054207
-0.00108411
-0.00631242
-0.00819839
-0.000274183
0.02271
-0.0149823
-0.0191318
0.0259865
-0.00521345
0.0287584
0.00204041
0.0312866
0.0074662
0.0337698
0.0119922
0.0353823
0.0162024
0.0342598
0.0197564
0.0289651
0.0213912
0.0200461
0.0199654
0.010136
0.015455
0.00278144
0.00951615
-0.000839813
0.00457012
-0.00216791
0.00199137
-0.00288013
0.00119475
-0.00333099
0.000873543
-0.00366288
0.000733692
-0.00391556
0.000662995
-0.00413341
0.000671453
-0.00433056
0.000702146
-0.00452765
0.000777713
-0.00473466
0.000870012
-0.0049479
0.000922643
-0.00517771
0.00101263
-0.0054255
0.00109425
-0.00568975
0.0011508
-0.00596519
0.0011715
-0.00624306
0.00114613
-0.00651194
0.00106193
-0.00675688
0.000907146
-0.00696061
0.000670414
-0.00710328
0.000342511
-0.00716414
-8.4735e-05
-0.00712148
-0.00061709
-0.0069521
-0.00127074
-0.00663315
-0.00204036
-0.00614527
-0.00292469
-0.00547683
-0.00393039
-0.00461897
-0.00518552
-0.00360329
-0.0064355
-0.00237746
-0.00753723
-0.00898388
-0.00159058
0.0261288
-0.0190908
-0.0220204
0.0298779
-0.00896245
0.0331183
-0.00119989
0.0358584
0.00472609
0.0383191
0.00953151
0.0407774
0.013744
0.0427203
0.0178134
0.0425139
0.0215976
0.0383934
0.0240858
0.0299558
0.0238925
0.0189773
0.0204947
0.00864416
0.0149033
0.00189904
0.00873634
-0.00118177
0.00427538
-0.00248489
0.00217648
-0.00329159
0.00154012
-0.00382775
0.00119877
-0.00423786
0.00108118
-0.00456284
0.00102678
-0.00485008
0.00106443
-0.00512236
0.00114167
-0.00538624
0.00118587
-0.00566269
0.00128863
-0.00595898
0.00139015
-0.00627788
0.00146946
-0.00661571
0.00150903
-0.00696389
0.00149419
-0.00730984
0.00140761
-0.00763681
0.00123399
-0.00792527
0.0009586
-0.00815281
0.000569902
-0.00829603
5.82523e-05
-0.00833101
-0.000582181
-0.00823381
-0.00136795
-0.00798154
-0.00229252
-0.00755643
-0.00334967
-0.00695238
-0.0045341
-0.00617526
-0.00596206
-0.00526649
-0.00734352
-0.00420434
-0.00859844
-0.00972033
-0.00346694
0.0302475
-0.0238998
-0.0254384
0.0345665
-0.0132814
0.0383324
-0.00496578
0.04155
0.00150853
0.0442303
0.0068511
0.0465793
0.011395
0.0489395
0.0154533
0.0511314
0.0194058
0.0518971
0.0233201
0.0493562
0.0264335
0.0423067
0.0275444
0.0312668
0.0259431
0.0186784
0.0213247
0.00806421
0.0148894
0.0016292
0.00861124
-0.00130606
0.00447509
-0.00273166
0.00262404
-0.0036755
0.00202478
-0.00433019
0.00168118
-0.00483945
0.00157347
-0.00525793
0.00155974
-0.00561618
0.00154382
-0.00596289
0.001635
-0.0063201
0.0017472
-0.00670112
0.00185024
-0.00710806
0.00191594
-0.00753596
0.00192183
-0.00797315
0.00184474
-0.00840257
0.00166308
-0.0088029
0.00135881
-0.00914952
0.000916184
-0.00941635
0.000324977
-0.00957758
-0.000421148
-0.00960937
-0.00133607
-0.00948972
-0.00241209
-0.00920376
-0.00363533
-0.00875223
-0.00498527
-0.00815263
-0.00656098
-0.00744632
-0.00804899
-0.00664161
-0.00940217
-0.010339
-0.00602194
0.035189
-0.0296022
-0.0294865
0.0402393
-0.0183318
0.044608
-0.00933439
0.0483606
-0.00224417
0.0515267
0.00368502
0.054132
0.00878964
0.056348
0.0132373
0.058537
0.0172169
0.0608143
0.0210428
0.0623983
0.0248497
0.0616013
0.0283414
0.0566596
0.0308848
0.0468969
0.0310874
0.0335728
0.0282134
0.019613
0.022571
0.00852713
0.015561
0.00195972
0.00919149
-0.00116056
0.0051453
-0.00281763
0.00333829
-0.00395111
0.00270681
-0.00475725
0.00236557
-0.00534948
0.00213573
-0.005848
0.00213333
-0.00631076
0.0022098
-0.00677803
0.00231744
-0.00726792
0.00240548
-0.00778565
0.00243993
-0.00832612
0.00238489
-0.00887527
0.00221257
-0.0094135
0.00189669
-0.00991565
0.00141864
-0.0103551
0.000764103
-0.0107042
-7.15602e-05
-0.0109403
-0.00110014
-0.0110417
-0.00231011
-0.0109974
-0.00367956
-0.0108131
-0.00516885
-0.0105133
-0.00686036
-0.0101308
-0.00843063
-0.00968461
-0.00984754
-0.0107344
-0.00928822
0.041101
-0.0364261
-0.0342771
0.0470759
-0.0243067
0.0521964
-0.014455
0.056567
-0.00661479
0.0602652
-1.32662e-05
0.0633583
0.00569654
0.0658831
0.0107124
0.0679673
0.0151327
0.0699391
0.019071
0.0720999
0.0226889
0.0741731
0.0262682
0.0749406
0.0301172
0.0725065
0.0335215
0.0653001
0.0354199
0.053146
0.0347253
0.0377616
0.0309455
0.0223394
0.024614
0.0103099
0.0171749
0.00306625
0.0105821
-0.00056465
0.00633748
-0.00256315
0.0043638
-0.00384141
0.00341368
-0.0047558
0.00304753
-0.00548046
0.00293426
-0.0061291
0.00296556
-0.00675678
0.00303346
-0.00739759
0.00308032
-0.00806392
0.00305193
-0.00875514
0.00290347
-0.00945767
0.00259997
-0.0101522
0.00211284
-0.0108135
0.00142626
-0.0114176
0.000532158
-0.0119424
-0.000574359
-0.0123692
-0.00188361
-0.012687
-0.00336091
-0.0129035
-0.00495239
-0.0130431
-0.00671996
-0.0131229
-0.00835066
-0.0131497
-0.00982007
-0.0107663
-0.0131175
0.0481647
-0.0446447
-0.0399461
0.0552987
-0.0314408
0.0613651
-0.0205214
0.0664965
-0.0117463
0.0708121
-0.00432896
0.0744241
0.00208444
0.0774244
0.00771188
0.0798656
0.0126914
0.0818368
0.0170997
0.0835843
0.0209413
0.0854776
0.0243749
0.0876621
0.0279328
0.0895055
0.0316782
0.0894542
0.0354713
0.0855589
0.0386207
0.0764472
0.0400575
0.062247
0.0388143
0.0448864
0.0345358
0.0276589
0.0278097
0.0139934
0.0200032
0.00538704
0.0129701
0.0011196
0.00768125
-0.00116027
0.00532739
-0.00267762
0.00445151
-0.00383664
0.00412417
-0.00480479
0.00400132
-0.00569337
0.00396905
-0.00656711
0.00392572
-0.00745705
0.00379379
-0.00837311
0.00351611
-0.00930864
0.00304886
-0.0102499
0.00236754
-0.0111783
0.00146115
-0.0120809
0.000328131
-0.012938
-0.00102579
-0.0137414
-0.00255772
-0.0144915
-0.00420161
-0.0152122
-0.00599934
-0.0158935
-0.00766891
-0.0165206
-0.00919291
-0.0102674
-0.0170193
0.0565986
-0.0545868
-0.0466566
0.0651742
-0.0400164
0.0724239
-0.0277712
0.0785072
-0.0178297
0.0835815
-0.00940336
0.087797
-0.00213116
0.0912927
0.00421597
0.0941819
0.00980213
0.0965358
0.0147456
0.0984153
0.0190617
0.0999809
0.0228092
0.101578
0.0263352
0.103553
0.0297039
0.105833
0.033191
0.107516
0.0369378
0.106878
0.0406958
0.101963
0.0437291
0.0914878
0.0450115
0.0756423
0.0436556
0.0563217
0.039324
0.0367379
0.0325543
0.0215339
0.0228855
0.0115465
0.0153154
0.00581663
0.0101807
0.00259207
0.00734906
0.000521804
0.00607027
-0.00106138
0.00555292
-0.00242827
0.00529146
-0.00370716
0.00507367
-0.00497321
0.00478117
-0.00625733
0.00433396
-0.00757421
0.00368361
-0.00892351
0.00281138
-0.0103079
0.00171198
-0.0117104
0.000377474
-0.0131214
-0.00114699
-0.0145311
-0.00279122
-0.0159603
-0.00457027
-0.0173683
-0.00626027
-0.0187228
-0.00783821
-0.00906752
-0.0199222
0.0666681
-0.0666491
-0.0546058
0.0770251
-0.0503735
0.0857453
-0.0364914
0.0930174
-0.0251018
0.099036
-0.0154221
0.103996
-0.00709071
0.108072
0.000139374
0.111425
0.00644893
0.114186
0.0119847
0.116441
0.0168065
0.118248
0.0210023
0.119717
0.024866
0.121079
0.0283417
0.122702
0.0315677
0.124868
0.034772
0.127357
0.0382073
0.129121
0.0419646
0.128372
0.0457612
0.123134
0.0488934
0.112056
0.0504024
0.0951774
0.0494334
0.0756887
0.0423747
0.0561849
0.0348189
0.0391854
0.0271807
0.0261936
0.0203396
0.017334
0.0149304
0.0116978
0.0111871
0.00807991
0.0089105
0.00550928
0.00764203
0.00340707
0.0068849
0.00146989
0.00626886
-0.000438914
0.00559426
-0.00239091
0.00476131
-0.00441955
0.00374261
-0.00652723
0.00248354
-0.0086981
0.00102573
-0.0109195
-0.00057071
-0.013206
-0.00228233
-0.0154851
-0.0039812
-0.0177109
-0.00561144
-0.007002
-0.0197756
0.0786948
-0.081311
-0.0640329
0.0912432
-0.062922
0.101779
-0.0470277
0.110527
-0.0338495
0.117723
-0.0226182
0.123606
-0.012974
0.128401
-0.00465477
0.132304
0.00254567
0.135491
0.00879723
0.138104
0.0141939
0.140248
0.0188581
0.142009
0.0231045
0.143451
0.0269001
0.144701
0.0303169
0.146032
0.0334414
0.147816
0.0364232
0.150291
0.0394896
0.153183
0.0428697
0.155434
0.0466417
0.155275
0.0505618
0.150715
0.0539938
0.141128
0.0519615
0.127073
0.0488747
0.109897
0.0443563
0.0913472
0.0388891
0.0732417
0.0330353
0.0571329
0.0272959
0.0439663
0.0220762
0.0339301
0.0176784
0.0265839
0.0142301
0.0211931
0.0116601
0.0170288
0.00975763
0.0135325
0.00825849
0.0103126
0.00696181
0.0071722
0.00562506
0.00400791
0.00418978
0.000789472
0.00264898
-0.0025536
0.00106111
-0.00592709
-0.000606586
-0.00928762
-0.00224999
-0.00378571
-0.0125031
0.0930687
-0.0991529
-0.0752267
0.108304
-0.0781573
0.121073
-0.059797
0.131643
-0.0444193
0.1403
-0.0312749
0.147333
-0.0200073
0.153018
-0.0103392
0.157601
-0.00203713
0.161299
0.0050986
0.164296
0.0111966
0.166745
0.0164093
0.168785
0.021065
0.170506
0.0251793
0.171966
0.0288565
0.173232
0.0321751
0.174452
0.0352036
0.17591
0.0380318
0.177976
0.0408032
0.18089
0.0437279
0.184432
0.0470198
0.187648
0.0507785
0.188807
0.050802
0.186899
0.050783
0.181305
0.0499501
0.172005
0.0481892
0.159513
0.0455277
0.144688
0.0421207
0.128564
0.0382
0.112221
0.0340221
0.0966377
0.0298126
0.0825424
0.0257561
0.0703082
0.0219913
0.0599665
0.0186012
0.0512337
0.0156942
0.0437988
0.0130611
0.0373031
0.0106854
0.0314518
0.00850151
0.0259052
0.00660816
0.0206288
0.00467092
0.0155142
0.00286558
0.00110954
0.0106199
0.110258
-0.120877
-0.0885329
0.12878
-0.0966794
0.144287
-0.0753044
0.157099
-0.0572307
0.16756
-0.0417362
0.176021
-0.0284684
0.182815
-0.0171324
0.188243
-0.00746588
0.192575
0.000766923
0.196038
0.00773349
0.198827
0.0136212
0.201118
0.0187735
0.203051
0.0232463
0.204732
0.0271755
0.206233
0.0306746
0.2076
0.0338363
0.208898
0.0367338
0.210273
0.0394283
0.212
0.0420015
0.214448
0.044572
0.217892
0.0473345
0.221768
0.0469258
0.225597
0.0469548
0.228621
0.0469259
0.230072
0.0467391
0.229337
0.0462626
0.226067
0.0453911
0.220203
0.0440634
0.211948
0.0422781
0.201681
0.0400784
0.189894
0.0375445
0.177115
0.0347693
0.163876
0.0318412
0.150558
0.0290118
0.137567
0.0260523
0.125157
0.0230953
0.113475
0.0201845
0.102332
0.017751
0.0919248
0.0150789
0.0821143
0.0126765
0.0102734
0.0729508
0.11861
-0.144837
-0.0946499
0.139017
-0.117086
0.156092
-0.0923792
0.170182
-0.0713206
0.181666
-0.0532205
0.190928
-0.0377298
0.198331
-0.0245349
0.204207
-0.0133421
0.208853
-0.00387866
0.212521
0.00406551
0.215429
0.0107132
0.217774
0.0164288
0.219713
0.0213072
0.221378
0.025511
0.222874
0.0291787
0.22428
0.0324302
0.225647
0.0353676
0.227006
0.0380694
0.228406
0.0406014
0.229966
0.0430121
0.231921
0.0453803
0.234217
0.044629
0.237075
0.0440982
0.240503
0.0434978
0.244329
0.0429131
0.248229
0.0423629
0.251797
0.0418233
0.25462
0.0412402
0.256342
0.040557
0.2567
0.0397202
0.255551
0.0386942
0.252861
0.0374587
0.248695
0.0360076
0.243137
0.0345683
0.236365
0.0328246
0.228572
0.0308879
0.219974
0.0287828
0.210562
0.0271624
0.200673
0.0249675
0.19036
0.02299
0.0207822
0.17985
0.125326
-0.170702
-0.0994606
0.147338
-0.139099
0.165749
-0.11079
0.18093
-0.0865013
0.193289
-0.0655788
0.203235
-0.0476765
0.211161
-0.0324603
0.217423
-0.0196037
0.22234
-0.00879509
0.226185
0.000220315
0.229195
0.00770385
0.23158
0.0140441
0.233511
0.019376
0.235132
0.0238905
0.236561
0.0277504
0.237895
0.0310961
0.239214
0.0340495
0.240572
0.0367113
0.242003
0.0391706
0.243524
0.0414916
0.245165
0.0437394
0.246712
0.0430824
0.248339
0.0424721
0.250191
0.041646
0.252403
0.0407023
0.255055
0.0397107
0.258156
0.0387225
0.261632
0.0377645
0.26534
0.0368498
0.269089
0.0359706
0.272673
0.0351115
0.275882
0.0342487
0.278537
0.0333534
0.28049
0.0326155
0.281622
0.0316929
0.281863
0.0306469
0.28119
0.0294552
0.279549
0.0288041
0.276993
0.0275233
0.273529
0.0264541
0.0250881
0.269222
0.132776
-0.198619
-0.10486
0.156521
-0.162844
0.176376
-0.130644
0.192739
-0.102864
0.206049
-0.0788888
0.216748
-0.0583746
0.225253
-0.0409658
0.23195
-0.0262998
0.237179
-0.0140243
0.241238
-0.00383808
0.24438
0.00456233
0.246831
0.0115932
0.248777
0.0174303
0.250372
0.0222954
0.251746
0.0263775
0.253002
0.0298398
0.25423
0.0328222
0.2555
0.0354413
0.25687
0.0378013
0.258377
0.0399847
0.260042
0.0420751
0.261577
0.0415477
0.263046
0.0410047
0.264474
0.0402183
0.265913
0.0392637
0.267432
0.0381924
0.269106
0.0370494
0.271002
0.0358695
0.273167
0.0346861
0.275616
0.0335212
0.278337
0.0323919
0.281281
0.0313056
0.284377
0.0302582
0.28755
0.0294429
0.290695
0.028549
0.293708
0.0276348
0.296493
0.0266704
0.298994
0.0263039
0.301105
0.0254134
0.302776
0.0247827
0.0239283
0.303936
0.140968
-0.228746
-0.11084
0.166583
-0.18846
0.187998
-0.152058
0.205639
-0.120506
0.219983
-0.0932311
0.231499
-0.0698917
0.240641
-0.0501071
0.247819
-0.0334777
0.253401
-0.0196056
0.257705
-0.00814253
0.261007
0.00126155
0.263546
0.00905392
0.265524
0.0154531
0.267107
0.0207128
0.268434
0.0250513
0.269618
0.0286551
0.270756
0.0316856
0.271922
0.0342756
0.27318
0.0365438
0.274581
0.0385839
0.276166
0.0404919
0.277662
0.0400508
0.279129
0.0395393
0.280561
0.0387866
0.281957
0.0378692
0.283316
0.0368328
0.284652
0.0357151
0.28598
0.0345419
0.287328
0.0333402
0.28872
0.0321288
0.290187
0.0309262
0.291749
0.0297443
0.293421
0.0285875
0.295214
0.0276499
0.297122
0.0266424
0.299126
0.0256306
0.301203
0.024594
0.303354
0.0241531
0.305524
0.0232444
0.307693
0.0226134
0.0218054
0.309817
0.149924
-0.261259
-0.117411
0.177559
-0.216095
0.200658
-0.175157
0.219684
-0.139532
0.235146
-0.108693
0.247553
-0.0822982
0.257388
-0.0599428
0.265096
-0.0411846
0.271069
-0.0255785
0.275651
-0.0127243
0.279137
-0.00222449
0.281786
0.00640573
0.283811
0.0134278
0.285394
0.019131
0.286682
0.0237633
0.2878
0.0275379
0.288848
0.0306377
0.289909
0.033215
0.29105
0.0354034
0.292324
0.0373102
0.293775
0.0390409
0.295149
0.0386781
0.296508
0.0381801
0.297862
0.0374343
0.299208
0.0365227
0.300546
0.0354962
0.301867
0.0343946
0.303165
0.033245
0.304432
0.0320731
0.305667
0.0308955
0.306866
0.0297274
0.308033
0.0285781
0.309171
0.0274495
0.310293
0.02653
0.3114
0.0255359
0.312501
0.0245306
0.313601
0.0234946
0.314719
0.0230357
0.315852
0.0221124
0.31701
0.0214557
0.0206212
0.318196
0.159679
-0.296347
-0.12459
0.189497
-0.245913
0.214419
-0.200079
0.234942
-0.160056
0.251617
-0.125366
0.264989
-0.0956709
0.275581
-0.0705341
0.283867
-0.0494705
0.290271
-0.0319824
0.295163
-0.0176154
0.298859
-0.00592023
0.301636
0.00362877
0.303725
0.0113396
0.305318
0.0175384
0.306575
0.022506
0.30763
0.0264833
0.308591
0.0296772
0.309547
0.0322598
0.310568
0.0343822
0.311714
0.0361654
0.313027
0.0377273
0.314262
0.0374443
0.315482
0.0369606
0.316699
0.0362183
0.317917
0.0353042
0.319142
0.0342723
0.320371
0.0331661
0.321601
0.0320158
0.322825
0.0308491
0.324038
0.0296841
0.325229
0.0285367
0.326392
0.027416
0.327519
0.0263233
0.328609
0.0254416
0.329652
0.0244927
0.330648
0.023536
0.331593
0.0225499
0.332496
0.0221329
0.333353
0.0212559
0.33417
0.0206386
0.0198393
0.334952
0.170279
-0.334221
-0.132406
0.202458
-0.278092
0.229351
-0.226973
0.251497
-0.182202
0.269485
-0.143355
0.283907
-0.110092
0.29532
-0.0819481
0.304239
-0.058388
0.311116
-0.0388597
0.31635
-0.0228486
0.320281
-0.00985144
0.323207
0.000703832
0.325373
0.00917331
0.326988
0.0159243
0.328222
0.0212715
0.32922
0.0254866
0.330095
0.0288012
0.330947
0.03141
0.331847
0.0334811
0.332862
0.0351523
0.334035
0.0365527
0.33513
0.0363514
0.336207
0.0358825
0.337283
0.0351438
0.338361
0.0342255
0.339449
0.0331853
0.340547
0.0320685
0.341656
0.030908
0.342771
0.0297329
0.343893
0.0285629
0.345015
0.0274148
0.346133
0.0262984
0.347241
0.0252155
0.348338
0.0243452
0.349415
0.0234158
0.350467
0.0224844
0.351488
0.0215286
0.352484
0.021137
0.353444
0.0202962
0.354368
0.0197136
0.018951
0.355257
0.181777
-0.375106
-0.140892
0.216511
-0.312826
0.245539
-0.256001
0.269442
-0.206105
0.288856
-0.162768
0.304416
-0.125652
0.316726
-0.0942568
0.326333
-0.0679955
0.333729
-0.0462552
0.33934
-0.0284594
0.343534
-0.0140445
0.346627
-0.00238965
0.348887
0.0069146
0.350533
0.0142777
0.351753
0.0200528
0.352697
0.0245428
0.353491
0.0280077
0.354237
0.0306644
0.355018
0.0327012
0.355898
0.0342718
0.356932
0.0355195
0.357882
0.0354016
0.358818
0.034948
0.359751
0.0342108
0.360692
0.0332853
0.361646
0.0322319
0.362616
0.0310993
0.363602
0.0299219
0.364606
0.0287306
0.365623
0.0275459
0.366653
0.0263854
0.367693
0.0252594
0.368739
0.02417
0.369792
0.0232926
0.370847
0.0223618
0.371899
0.0214329
0.372945
0.0204835
0.37399
0.0200916
0.375026
0.0192613
0.376052
0.0186877
0.0179373
0.377066
0.194233
-0.419251
-0.150088
0.231734
-0.350327
0.263077
-0.287344
0.288886
-0.231914
0.309847
-0.18373
0.326645
-0.14245
0.339929
-0.10754
0.350289
-0.0783553
0.358253
-0.0542188
0.364279
-0.0344856
0.368764
-0.0185286
0.372047
-0.00567267
0.374415
0.00454748
0.376105
0.0125882
0.377316
0.0188423
0.378211
0.023648
0.378925
0.0272939
0.379567
0.0300224
0.380227
0.0320423
0.380974
0.033525
0.381866
0.0346281
0.382671
0.0345966
0.383462
0.0341582
0.384253
0.0334204
0.385056
0.032483
0.385878
0.0314104
0.386724
0.0302542
0.387596
0.0290512
0.388493
0.0278337
0.389416
0.0266237
0.390363
0.0254394
0.391331
0.0242916
0.392319
0.0231829
0.393327
0.0222848
0.39435
0.0213384
0.395386
0.0203973
0.39643
0.0194389
0.397492
0.0190303
0.398558
0.0181942
0.399634
0.0176125
0.0168578
0.400713
0.207716
-0.466928
-0.160038
0.248216
-0.390829
0.282069
-0.321197
0.309946
-0.259792
0.332589
-0.206372
0.350733
-0.160595
0.365078
-0.121885
0.37626
-0.0895372
0.384846
-0.0628043
0.39133
-0.0409694
0.396138
-0.0233352
0.399633
-0.00916894
0.402126
0.00205569
0.40387
0.010844
0.40508
0.0176331
0.40593
0.0227976
0.406567
0.0266584
0.407105
0.0294837
0.407643
0.0315056
0.408255
0.0329132
0.409004
0.0338801
0.409663
0.0339378
0.410307
0.033515
0.410954
0.0327737
0.411618
0.0318195
0.412308
0.0307208
0.413031
0.0295325
0.413788
0.0282939
0.414583
0.0270394
0.415415
0.0257922
0.416283
0.0245716
0.417185
0.0233892
0.41812
0.0222479
0.41909
0.0213157
0.420088
0.0203401
0.421112
0.0193733
0.422158
0.0183928
0.423235
0.0179542
0.424329
0.0170998
0.425444
0.0164976
0.0157273
0.426574
0.2223
-0.518435
-0.170794
0.266054
-0.434583
0.30263
-0.357773
0.332754
-0.289917
0.357224
-0.230842
0.376835
-0.180206
0.392338
-0.137387
0.404418
-0.101617
0.413685
-0.0720719
0.420673
-0.0479562
0.425837
-0.0284994
0.429572
-0.0129035
0.432207
-0.000579319
0.434019
0.00903325
0.435234
0.0164173
0.436045
0.021988
0.436603
0.0260996
0.437039
0.0290495
0.437452
0.0310927
0.437927
0.0324394
0.438528
0.0332785
0.439038
0.0334292
0.439532
0.0330218
0.440032
0.0322744
0.440555
0.0312981
0.441111
0.030166
0.441708
0.0289365
0.442351
0.0276522
0.443042
0.0263493
0.443782
0.0250528
0.444571
0.0237832
0.445409
0.0225529
0.446292
0.0213656
0.447222
0.0203858
0.448196
0.0193676
0.449208
0.0183619
0.450255
0.0173465
0.451344
0.0168649
0.452464
0.0159803
0.453616
0.0153462
0.0145497
0.454794
0.238068
-0.574095
-0.182408
0.285354
-0.48187
0.324888
-0.397307
0.357455
-0.322484
0.383914
-0.257302
0.405122
-0.201414
0.421888
-0.154153
0.43495
-0.114679
0.444966
-0.0820872
0.452507
-0.0554976
0.458067
-0.034059
0.462069
-0.016905
0.464867
-0.00337701
0.466758
0.00714244
0.467988
0.0151873
0.468762
0.0212152
0.469245
0.025617
0.469574
0.0287207
0.46986
0.0308072
0.470193
0.0321073
0.470644
0.0328279
0.470999
0.0330751
0.471338
0.0326834
0.471687
0.0319268
0.472062
0.0309228
0.47248
0.0297496
0.472947
0.0284699
0.473471
0.0271292
0.474055
0.0257664
0.4747
0.0244085
0.475406
0.0230772
0.476174
0.021786
0.477
0.0205398
0.477887
0.0194992
0.478829
0.0184256
0.479823
0.0173685
0.480864
0.0163062
0.48196
0.0157693
0.483097
0.0148435
0.484277
0.0141665
0.013334
0.485493
0.255111
-0.634264
-0.194942
0.306234
-0.532992
0.348983
-0.440058
0.384207
-0.357708
0.412832
-0.285927
0.435782
-0.224364
0.453928
-0.1723
0.468066
-0.128817
0.478902
-0.0929238
0.487055
-0.0636494
0.493052
-0.0400573
0.497353
-0.0212042
0.500335
-0.00635971
0.502321
0.00515745
0.503573
0.0139343
0.504314
0.0204756
0.50472
0.0252105
0.504942
0.0285007
0.505095
0.0306536
0.50528
0.0319237
0.505572
0.0325354
0.505765
0.0328834
0.505941
0.0325075
0.50613
0.0317389
0.506352
0.0307015
0.506623
0.0294796
0.506953
0.0281401
0.50735
0.0267325
0.507818
0.0252983
0.50836
0.0238668
0.508976
0.0224612
0.509665
0.0210966
0.510427
0.0197788
0.511261
0.0186647
0.512164
0.0175234
0.513129
0.0164028
0.514154
0.0152823
0.515244
0.0146786
0.516387
0.0137011
0.517582
0.0129712
0.012094
0.518823
0.273528
-0.699331
-0.208461
0.32882
-0.588284
0.375068
-0.486305
0.413184
-0.395826
0.444171
-0.316914
0.469022
-0.249215
0.488677
-0.191955
0.503993
-0.144133
0.515732
-0.104662
0.524557
-0.0724749
0.531042
-0.0465411
0.535674
-0.0258365
0.538866
-0.00955133
0.540962
0.003062
0.542247
0.0126498
0.542957
0.0197656
0.543287
0.0248814
0.543394
0.0283936
0.54341
0.0306395
0.543436
0.0318974
0.543561
0.0324121
0.54358
0.0328651
0.543582
0.032506
0.543599
0.0317226
0.543655
0.0306463
0.543767
0.0293679
0.543949
0.0279593
0.544207
0.0264742
0.544549
0.0249572
0.544976
0.02344
0.545489
0.021948
0.546088
0.0204974
0.546772
0.0190956
0.547541
0.0178958
0.54839
0.0166746
0.549313
0.0154793
0.550306
0.0142897
0.551377
0.013608
0.552509
0.0125692
0.553704
0.0117769
0.0108465
0.554951
0.293426
-0.769723
-0.223035
0.353254
-0.648111
0.403309
-0.53636
0.444578
-0.437095
0.47814
-0.350477
0.505069
-0.276144
0.526376
-0.213262
0.542984
-0.160741
0.555715
-0.117393
0.565284
-0.0820434
0.572307
-0.0535637
0.577311
-0.0308404
0.580739
-0.0129797
0.582963
0.000838714
0.58429
0.0113234
0.584974
0.0190818
0.585225
0.024631
0.585214
0.0284053
0.585081
0.0307736
0.584938
0.0320406
0.584879
0.0324717
0.58471
0.033035
0.584523
0.032694
0.584353
0.0318934
0.584227
0.0307732
0.584164
0.0294309
0.58418
0.0279441
0.584284
0.0263711
0.584482
0.02476
0.584777
0.0231453
0.585171
0.0215545
0.585663
0.0200059
0.586251
0.0185079
0.586937
0.0172102
0.587714
0.0158977
0.588577
0.0146165
0.58952
0.0133473
0.590551
0.0125768
0.591653
0.0114674
0.592827
0.0106034
0.00961191
0.594062
0.314924
-0.845906
-0.238739
0.379688
-0.712876
0.433891
-0.590562
0.478598
-0.481803
0.514974
-0.386852
0.544173
-0.305344
0.56729
-0.236377
0.585316
-0.178768
0.599139
-0.131215
0.609528
-0.0924331
0.61715
-0.0611837
0.622568
-0.0362595
0.626265
-0.0166747
0.628635
-0.00153236
0.630015
0.00994468
0.630676
0.0184208
0.630846
0.0244621
0.630708
0.0285434
0.630414
0.031068
0.630087
0.0323681
0.629827
0.0327323
0.629451
0.0334117
0.629055
0.033091
0.628676
0.0322716
0.628348
0.0311026
0.628089
0.0296892
0.627918
0.0281154
0.627845
0.0264443
0.627877
0.0247279
0.628018
0.0230042
0.62827
0.0213029
0.628631
0.0196441
0.629101
0.0180382
0.629681
0.0166308
0.630363
0.0152156
0.631141
0.0138377
0.63201
0.0124789
0.632978
0.0116089
0.634026
0.0104198
0.635154
0.00947526
0.00841494
0.636351
0.338147
-0.928397
-0.255657
0.40829
-0.783018
0.467015
-0.649288
0.515475
-0.530262
0.554924
-0.426301
0.586609
-0.33703
0.611709
-0.261477
0.631295
-0.198354
0.646321
-0.146241
0.657618
-0.10373
0.665902
-0.0694674
0.671785
-0.0421418
0.675781
-0.0206708
0.678322
-0.00407248
0.679765
0.00850195
0.680407
0.0177797
0.680491
0.0243787
0.680217
0.0288183
0.679747
0.0315376
0.679216
0.0328997
0.678732
0.0332171
0.678125
0.0340197
0.677493
0.0337224
0.676882
0.0328834
0.676324
0.0316615
0.675843
0.0301705
0.675457
0.028501
0.67518
0.026722
0.675018
0.0248897
0.674977
0.0230454
0.675058
0.0212218
0.675262
0.0194412
0.675584
0.0177158
0.676028
0.0161869
0.676586
0.0146578
0.677252
0.0131726
0.678016
0.0117141
0.678891
0.0107343
0.679855
0.00945655
0.680908
0.00842262
0.00728588
0.682037
0.363236
-1.01776
-0.273875
0.439242
-0.859025
0.502903
-0.712947
0.555461
-0.58282
0.598272
-0.469112
0.632681
-0.371439
0.659957