/*--------------------------------*- C++ -*----------------------------------*\
| =========                 |                                                 |
| \\      /  F ield         | OpenFOAM: The Open Source CFD Toolbox           |
|  \\    /   O peration     | Version:  2312                                  |
|   \\  /    A nd           | Website:  www.openfoam.com                      |
|    \\/     M anipulation  |                                                 |
\*---------------------------------------------------------------------------*/
FoamFile
{
    version     2.0;
    format      ascii;
    arch        "LSB;label=32;scalar=64";
    class       volScalarField;
    location    "450";
    object      turbulenceProperties:epsilon;
}
// * * * * * * * * * * * * * * * * * * * * * * * * * * * * * * * * * * * * * //

dimensions      [0 2 -3 0 0 0 0];

internalField   nonuniform List<scalar> 
11040
(
102.858
99.003
2.8017
1.69915
22.4469
22.9491
22.0498
19.8874
17.9342
16.7848
15.7836
14.9627
14.3599
13.9493
13.7135
13.7417
14.055
14.6761
15.5671
16.7398
18.2362
20.0129
22.1114
24.6438
27.6278
31.1411
35.1553
39.2213
42.9077
45.7288
47.1182
46.5331
43.6693
38.6739
31.9673
24.7277
15.7958
5.55081
1.50605
0.906988
7.6029
0.93884
3.11932
31.0724
57.2366
51.4074
4.64118
0.533633
0.0668095
0.00510166
0.00411844
0.0250496
0.0481548
0.0718017
0.0944905
0.116334
0.137758
0.159355
0.181841
0.204095
0.226639
0.24984
0.276479
0.299225
0.307689
0.297679
0.272803
0.241174
0.19956
0.152212
0.106391
0.0709401
0.0520641
0.0499303
0.0567767
0.0818189
0.135823
0.232168
0.40574
0.87068
1.29537
9.58015
0.35227
0.267991
1.27452
18.0342
108.747
80.9281
16.1895
2.44126
0.655104
0.282902
0.113556
0.0491252
0.019345
0.00649457
0.00243921
0.00159831
0.00230259
0.00356574
0.00484959
0.00587224
0.00653836
0.00687158
0.00653437
0.00578623
0.00559808
0.00647801
0.00815839
0.00984921
0.0105574
0.00987065
0.00959739
0.0147279
0.0326266
0.0710082
0.145525
0.279779
0.501493
0.886923
1.89367
3.47029
5.07518
0.178671
0.134869
0.0830903
0.246498
17.9447
103.971
102.597
33.843
5.54201
1.78112
0.750307
0.401796
0.24161
0.148971
0.103493
0.0751615
0.0602468
0.0513556
0.047027
0.045784
0.0464851
0.0489286
0.0538113
0.0611548
0.0690045
0.0756224
0.0794259
0.0791122
0.0741518
0.0658449
0.0580016
0.0570368
0.0721436
0.118404
0.223863
0.429775
0.784851
1.39813
2.86187
5.52966
3.86136
0.0999004
0.0822485
0.0930596
0.0212059
0.0521758
11.532
79.7854
111.842
56.7422
12.6201
3.6442
1.46341
0.822397
0.491924
0.343479
0.250442
0.201843
0.172725
0.157628
0.151205
0.149235
0.149609
0.152571
0.158206
0.163677
0.166896
0.165996
0.159463
0.146664
0.128976
0.110464
0.0990488
0.108332
0.161387
0.297439
0.573321
1.05602
1.86432
3.57647
7.07915
4.21641
0.0520268
0.0443162
0.0423964
0.0500121
0.00424295
0.0032436
5.27856
49.0786
106.258
78.4691
28.1713
6.87091
2.7526
1.35509
0.845139
0.568693
0.428875
0.347734
0.303277
0.28087
0.270068
0.265223
0.264604
0.267773
0.270984
0.271441
0.266688
0.254303
0.23259
0.202274
0.167675
0.138957
0.134696
0.185388
0.340799
0.671806
1.2603
2.21281
3.96614
7.59572
4.93664
0.0272463
0.0249933
0.0222782
0.025291
0.0256652
0.000774584
2.51722e-06
1.49214
23.6731
80.657
90.9252
50.1936
15.6682
4.88406
2.26631
1.30106
0.867685
0.639117
0.513905
0.448003
0.414056
0.398232
0.393138
0.395499
0.399627
0.40073
0.394868
0.377833
0.346246
0.29965
0.242331
0.186446
0.155093
0.185434
0.33587
0.687613
1.331
2.34518
3.98489
7.12197
5.2271
0.0145225
0.0139566
0.0136
0.0127108
0.0147619
0.015247
2.26968e-05
8.55267e-09
0.210332
8.3258
45.3474
85.1453
69.922
32.8581
10.3371
3.92183
2.02252
1.27804
0.907464
0.715971
0.614657
0.568277
0.551
0.55155
0.559464
0.565405
0.56283
0.544768
0.504531
0.43938
0.352506
0.257139
0.179854
0.163185
0.271198
0.589693
1.20879
2.17524
3.58589
5.90037
4.76645
0.00794237
0.00775367
0.00782627
0.00772964
0.00724512
0.00903762
0.00786568
0.000145456
0.000118802
0.000260362
1.7624
17.8769
56.9817
75.9109
53.0179
23.4083
7.9716
3.42483
1.92318
1.29862
0.987596
0.84339
0.77933
0.759612
0.764819
0.776296
0.781015
0.766094
0.72129
0.639425
0.520194
0.375418
0.232804
0.13864
0.159313
0.379748
0.882071
1.68712
2.78144
4.2405
3.66719
0.00438986
0.00432874
0.00441434
0.0045347
0.0044841
0.00428153
0.00523442
0.00412802
0.000484509
4.71836e-06
0.00190197
0.190571
4.57262
25.5191
58.29
64.1922
41.8005
18.6296
6.95209
3.21557
1.94048
1.43263
1.20241
1.10084
1.06887
1.06717
1.07343
1.06454
1.0205
0.926024
0.775849
0.578868
0.360456
0.166407
0.0622721
0.128685
0.437764
0.997507
1.73629
2.52167
2.26932
0.0024463
0.00242701
0.00248737
0.00258101
0.00266693
0.00263946
0.00259868
0.00288149
0.00280798
0.000763345
1.92085e-06
9.33335e-05
3.6713e-06
0.584724
7.07968
28.4292
53.5933
54.2521
35.1194
16.5233
6.74218
3.38984
2.27264
1.83082
1.63734
1.55158
1.51842
1.49266
1.44208
1.34043
1.17113
0.933271
0.645045
0.348956
0.109337
0.001037
0.0875879
0.376363
0.784626
1.14226
1.03157
0.00136802
0.00136338
0.00139603
0.00145697
0.00152382
0.00157882
0.00158188
0.0015664
0.00163191
0.00179818
0.000873492
1.67464e-06
1.04963e-07
0.00109007
0.0163034
0.97383
7.99367
26.8214
46.4234
46.6283
31.4642
16.6741
8.22443
4.58718
3.16048
2.59855
2.37344
2.2514
2.14536
2.00764
1.80882
1.53915
1.20665
0.840287
0.495783
0.241055
0.137051
0.19731
0.359178
0.488293
0.39435
0.000765444
0.000765643
0.00078232
0.000816871
0.000860797
0.000904692
0.00094083
0.000957685
0.000948616
0.000969475
0.00106453
0.000803403
5.94911e-05
3.28769e-07
4.14601e-06
0.00195922
0.0419411
1.06416
7.18305
22.3461
38.5128
40.9974
31.8296
20.9697
12.8391
7.95037
5.40494
4.16323
3.57211
3.25074
2.98505
2.681
2.31724
1.90842
1.50067
1.15783
0.934189
0.845042
0.86017
0.885282
0.713928
0.000427303
0.000428831
0.000437074
0.000455656
0.000481774
0.000510776
0.000539091
0.000564178
0.000580899
0.000582278
0.000587944
0.000649665
0.000584075
0.000259661
3.30254e-08
5.42376e-09
4.30477e-05
0.00210353
0.0412116
0.823687
5.25787
15.9161
28.5505
35.2325
33.674
27.6392
20.9719
15.3405
11.1661
8.31717
6.46101
5.27537
4.50143
3.95337
3.52736
3.19549
2.96527
2.82133
2.75582
2.73681
2.42676
0.000237322
0.000238898
0.000242932
0.000252733
0.000267443
0.000284927
0.000303635
0.000322135
0.00033937
0.000353114
0.000358614
0.000364644
0.000381579
0.000399386
0.00029846
3.18189e-05
2.07403e-07
1.6337e-10
0.000101449
0.00174024
0.0209204
0.399135
2.38652
7.53417
15.6514
23.9163
29.106
30.2298
28.399
25.1392
21.4233
17.7863
14.5402
11.8367
9.74629
8.25568
7.29682
6.74207
6.50262
6.51131
6.09227
0.000130833
0.00013202
0.000133988
0.000139079
0.000147134
0.000157103
0.00016831
0.000180271
0.000192362
0.000203951
0.000214023
0.000220853
0.000225747
0.000231546
0.000253261
0.000230658
0.000150816
3.6432e-06
5.03815e-08
2.968e-11
7.12654e-05
0.00135482
0.00112136
0.0543145
0.446536
1.7974
4.73323
9.31886
14.7847
19.92
23.7868
26.0555
26.8623
26.4843
25.2428
23.4913
21.6101
19.7943
18.1775
16.9792
15.3197
7.18372e-05
7.2598e-05
7.3575e-05
7.62248e-05
8.05685e-05
8.60726e-05
9.24449e-05
9.95207e-05
0.000107058
0.000114764
0.000122301
0.000129255
0.000135173
0.000139131
0.00014411
0.000150795
0.000161391
0.000135649
7.883e-05
7.66165e-07
2.0319e-08
5.12156e-11
2.76795e-07
0.000296848
0.00103018
0.000125154
0.0132126
0.113433
0.473456
1.335
2.90831
5.26338
8.27698
11.6865
15.1798
18.4585
21.3454
23.7164
25.4829
26.9639
27.1455
4.01596e-05
4.06391e-05
4.11749e-05
4.26333e-05
4.50532e-05
4.81582e-05
5.18038e-05
5.59388e-05
6.04663e-05
6.52474e-05
7.01501e-05
7.50095e-05
7.969e-05
8.39429e-05
8.74891e-05
9.06111e-05
9.44905e-05
0.000100288
0.000106105
8.60143e-05
4.43006e-05
1.43648e-06
2.07314e-08
4.13268e-10
1.29359e-13
1.06967e-08
3.89462e-05
0.000713966
0.000669433
0.00071464
0.00188307
0.0215258
0.0966468
0.292031
0.690626
1.37716
2.41375
3.84727
5.66289
7.91753
10.2826
2.32817e-05
2.35952e-05
2.39134e-05
2.47616e-05
2.61714e-05
2.79916e-05
3.01552e-05
3.26438e-05
3.54264e-05
3.84264e-05
4.15804e-05
4.48122e-05
4.8038e-05
5.11888e-05
5.41665e-05
5.68904e-05
5.92118e-05
6.16293e-05
6.47285e-05
6.94046e-05
7.14016e-05
6.00484e-05
3.71595e-05
1.25111e-05
5.27407e-09
1.91643e-09
1.92767e-10
4.56271e-12
0
0
1.21517e-06
0.000174352
0.000647915
0.000520226
6.97033e-05
2.6438e-05
0.00101229
0.00886242
0.0365121
0.104821
0.242251
1.3997e-05
1.41974e-05
1.43919e-05
1.49023e-05
1.57487e-05
1.68457e-05
1.81599e-05
1.96839e-05
2.14088e-05
2.33031e-05
2.53264e-05
2.74534e-05
2.96363e-05
3.18284e-05
3.39876e-05
3.60799e-05
3.80494e-05
3.98678e-05
4.14825e-05
4.3399e-05
4.57911e-05
4.89329e-05
5.03446e-05
4.90858e-05
3.72668e-05
2.17574e-05
7.96017e-06
2.33834e-07
5.13383e-09
2.23481e-10
7.96561e-11
1.52316e-11
4.04448e-14
0
0
3.98846e-09
3.26734e-07
3.55701e-05
0.000291042
0.000519652
0.000553489
8.64475e-06
8.77096e-06
8.8923e-06
9.20772e-06
9.72795e-06
1.04048e-05
1.12191e-05
1.21702e-05
1.32507e-05
1.44511e-05
1.57478e-05
1.71306e-05
1.85776e-05
2.00624e-05
2.15586e-05
2.30453e-05
2.44987e-05
2.59022e-05
2.72194e-05
2.84605e-05
2.96292e-05
3.09874e-05
3.26494e-05
3.44908e-05
3.68246e-05
3.73982e-05
3.5787e-05
3.02206e-05
2.14122e-05
1.27004e-05
5.22477e-06
1.17284e-06
3.71424e-09
6.91014e-10
9.54823e-11
5.01162e-11
2.25746e-11
6.98007e-12
1.09836e-12
7.48902e-16
0
5.45511e-06
5.53456e-06
5.61266e-06
5.8118e-06
6.13837e-06
6.56362e-06
7.0774e-06
7.67958e-06
8.36607e-06
9.13241e-06
9.96804e-06
1.08642e-05
1.18132e-05
1.27993e-05
1.38075e-05
1.48258e-05
1.58398e-05
1.68377e-05
1.78062e-05
1.87444e-05
1.96213e-05
2.04346e-05
2.12414e-05
2.20431e-05
2.30405e-05
2.42232e-05
2.54786e-05
2.68274e-05
2.76649e-05
2.76058e-05
2.63188e-05
2.40046e-05
1.99238e-05
1.4856e-05
9.7751e-06
5.83825e-06
3.03459e-06
1.05506e-06
1.95141e-07
1.54871e-10
1.34795e-10
3.50175e-06
3.55175e-06
3.60316e-06
3.73091e-06
3.9391e-06
4.2101e-06
4.53874e-06
4.92435e-06
5.36526e-06
5.85781e-06
6.39846e-06
6.98018e-06
7.60053e-06
8.25001e-06
8.91976e-06
9.6015e-06
1.02882e-05
1.0971e-05
1.16411e-05
1.22984e-05
1.29242e-05
1.35099e-05
1.40616e-05
1.45596e-05
1.50151e-05
1.54653e-05
1.59379e-05
1.64787e-05
1.71028e-05
1.77861e-05
1.84802e-05
1.91188e-05
1.97766e-05
2.01316e-05
2.0073e-05
1.95895e-05
1.87459e-05
1.74014e-05
1.56857e-05
1.32114e-05
1.06401e-05
2.27938e-06
2.31108e-06
2.34547e-06
2.42859e-06
2.56297e-06
2.73784e-06
2.95038e-06
3.1999e-06
3.4856e-06
3.80454e-06
4.1557e-06
4.53468e-06
4.93934e-06
5.36502e-06
5.80582e-06
6.25617e-06
6.71192e-06
7.16748e-06
7.61686e-06
8.05969e-06
8.48135e-06
8.87722e-06
9.25215e-06
9.59071e-06
9.89236e-06
1.01606e-05
1.03989e-05
1.06112e-05
1.08062e-05
1.09948e-05
1.11882e-05
1.13885e-05
1.16097e-05
1.18521e-05
1.2106e-05
1.2352e-05
1.2584e-05
1.28028e-05
1.29943e-05
1.31639e-05
1.33162e-05
1.50071e-06
1.52095e-06
1.54421e-06
1.59896e-06
1.68657e-06
1.80061e-06
1.93926e-06
2.1021e-06
2.2884e-06
2.49635e-06
2.72514e-06
2.97272e-06
3.23658e-06
3.51486e-06
3.80338e-06
4.0985e-06
4.39717e-06
4.69616e-06
4.99099e-06
5.28181e-06
5.5572e-06
5.81413e-06
6.05665e-06
6.27389e-06
6.46575e-06
6.6342e-06
6.78005e-06
6.90266e-06
7.00248e-06
7.07993e-06
7.13708e-06
7.17558e-06
7.19805e-06
7.20787e-06
7.20875e-06
7.20194e-06
7.19165e-06
7.18137e-06
7.16835e-06
7.15508e-06
7.13624e-06
9.97393e-07
1.01045e-06
1.02636e-06
1.06279e-06
1.12041e-06
1.19549e-06
1.28664e-06
1.3937e-06
1.51586e-06
1.65221e-06
1.80172e-06
1.96372e-06
2.13599e-06
2.31757e-06
2.5057e-06
2.698e-06
2.89201e-06
3.08592e-06
3.27642e-06
3.46385e-06
3.63963e-06
3.80194e-06
3.95414e-06
4.08872e-06
4.20516e-06
4.30501e-06
4.38882e-06
4.45668e-06
4.50897e-06
4.54615e-06
4.56876e-06
4.57724e-06
4.57241e-06
4.5551e-06
4.52609e-06
4.48536e-06
4.43577e-06
4.37837e-06
4.31049e-06
4.23892e-06
4.13854e-06
6.68117e-07
6.7656e-07
6.87605e-07
7.12061e-07
7.50294e-07
8.00062e-07
8.60417e-07
9.31202e-07
1.01177e-06
1.10155e-06
1.19963e-06
1.30577e-06
1.41842e-06
1.53667e-06
1.65901e-06
1.78367e-06
1.90891e-06
2.03353e-06
2.15529e-06
2.27439e-06
2.38476e-06
2.48523e-06
2.57865e-06
2.66e-06
2.72869e-06
2.7857e-06
2.83146e-06
2.86623e-06
2.89018e-06
2.90389e-06
2.90789e-06
2.90272e-06
2.8891e-06
2.86785e-06
2.83931e-06
2.80353e-06
2.76244e-06
2.71688e-06
2.66349e-06
2.6109e-06
2.52514e-06
4.50433e-07
4.55967e-07
4.6377e-07
4.80299e-07
5.05872e-07
5.3908e-07
5.79322e-07
6.2636e-07
6.79767e-07
7.3908e-07
8.03664e-07
8.73321e-07
9.47074e-07
1.02395e-06
1.10328e-06
1.18374e-06
1.26414e-06
1.34354e-06
1.42058e-06
1.49534e-06
1.56355e-06
1.6245e-06
1.68057e-06
1.72842e-06
1.76759e-06
1.79885e-06
1.82239e-06
1.83846e-06
1.84725e-06
1.84922e-06
1.84474e-06
1.83429e-06
1.81846e-06
1.79783e-06
1.77269e-06
1.74314e-06
1.71059e-06
1.67581e-06
1.63559e-06
1.59949e-06
1.52969e-06
3.0528e-07
3.08963e-07
3.14559e-07
3.25841e-07
3.43091e-07
3.65405e-07
3.92408e-07
4.23817e-07
4.59378e-07
4.98683e-07
5.41347e-07
5.87089e-07
6.35397e-07
6.85387e-07
7.36731e-07
7.88487e-07
8.39885e-07
8.9018e-07
9.38508e-07
9.84901e-07
1.02646e-06
1.06271e-06
1.09562e-06
1.12294e-06
1.14443e-06
1.16054e-06
1.17159e-06
1.1777e-06
1.17906e-06
1.17597e-06
1.16876e-06
1.15772e-06
1.14332e-06
1.12591e-06
1.10569e-06
1.08274e-06
1.05805e-06
1.03225e-06
1.00252e-06
9.78154e-07
9.22404e-07
2.07772e-07
2.10312e-07
2.14376e-07
2.2217e-07
2.33906e-07
2.49013e-07
2.67229e-07
2.88318e-07
3.12084e-07
3.38219e-07
3.66462e-07
3.96541e-07
4.28167e-07
4.60704e-07
4.93852e-07
5.27066e-07
5.59775e-07
5.91466e-07
6.21566e-07
6.50113e-07
6.75109e-07
6.96289e-07
7.15178e-07
7.30317e-07
7.41571e-07
7.49222e-07
7.53527e-07
7.54608e-07
7.52635e-07
7.47789e-07
7.4033e-07
7.30445e-07
7.18496e-07
7.04713e-07
6.89262e-07
6.72186e-07
6.54151e-07
6.35678e-07
6.1438e-07
5.98529e-07
5.55417e-07
1.41897e-07
1.43693e-07
1.46698e-07
1.52162e-07
1.60207e-07
1.70514e-07
1.82873e-07
1.97112e-07
2.13056e-07
2.30499e-07
2.49229e-07
2.69045e-07
2.89753e-07
3.10922e-07
3.32254e-07
3.53477e-07
3.74176e-07
3.94017e-07
4.12611e-07
4.30007e-07
4.44831e-07
4.5694e-07
4.67492e-07
4.75537e-07
4.81006e-07
4.84099e-07
4.85003e-07
4.83805e-07
4.80644e-07
4.75659e-07
4.69047e-07
4.60944e-07
4.51604e-07
4.41183e-07
4.29787e-07
4.17448e-07
4.04589e-07
3.9164e-07
3.76659e-07
3.66607e-07
3.33982e-07
9.7164e-08
9.84814e-08
1.00738e-07
1.0462e-07
1.10193e-07
1.17284e-07
1.25729e-07
1.35402e-07
1.46148e-07
1.57837e-07
1.70297e-07
1.83378e-07
1.96951e-07
2.10726e-07
2.24423e-07
2.37939e-07
2.50975e-07
2.63309e-07
2.74672e-07
2.8514e-07
2.93756e-07
3.0046e-07
3.06111e-07
3.10108e-07
3.124e-07
3.13158e-07
3.12499e-07
3.10507e-07
3.07274e-07
3.02912e-07
2.97542e-07
2.9127e-07
2.84253e-07
2.76605e-07
2.68383e-07
2.59625e-07
2.50589e-07
2.41622e-07
2.312e-07
2.24958e-07
2.00631e-07
6.66615e-08
6.76585e-08
6.93932e-08
7.21867e-08
7.60938e-08
8.1022e-08
8.6838e-08
9.34473e-08
1.00733e-07
1.08597e-07
1.16916e-07
1.25576e-07
1.34484e-07
1.43441e-07
1.52236e-07
1.60813e-07
1.68988e-07
1.7661e-07
1.83494e-07
1.89701e-07
1.946e-07
1.98154e-07
2.00996e-07
2.02755e-07
2.03392e-07
2.03029e-07
2.01764e-07
1.99661e-07
1.96782e-07
1.9321e-07
1.89022e-07
1.84292e-07
1.79128e-07
1.73608e-07
1.67764e-07
1.61625e-07
1.55356e-07
1.49217e-07
1.4205e-07
1.38262e-07
1.20393e-07
4.57975e-08
4.65826e-08
4.79309e-08
4.99722e-08
5.27547e-08
5.62058e-08
6.02466e-08
6.47928e-08
6.97654e-08
7.50816e-08
8.06596e-08
8.64075e-08
9.22599e-08
9.80819e-08
1.03728e-07
1.09151e-07
1.14247e-07
1.18916e-07
1.23038e-07
1.26658e-07
1.29358e-07
1.31131e-07
1.32427e-07
1.33012e-07
1.32869e-07
1.32084e-07
1.30724e-07
1.2884e-07
1.26473e-07
1.23677e-07
1.20512e-07
1.17027e-07
1.13295e-07
1.09365e-07
1.05259e-07
1.00999e-07
9.6686e-08
9.25119e-08
8.76156e-08
8.53612e-08
7.23758e-08
3.14896e-08
3.21252e-08
3.31886e-08
3.47043e-08
3.6705e-08
3.91512e-08
4.1985e-08
4.51398e-08
4.85596e-08
5.21777e-08
5.59374e-08
5.97691e-08
6.36256e-08
6.74164e-08
7.10414e-08
7.44566e-08
7.76131e-08
8.044e-08
8.28715e-08
8.49331e-08
8.63473e-08
8.71151e-08
8.75697e-08
8.75569e-08
8.70758e-08
8.61825e-08
8.49256e-08
8.33431e-08
8.14703e-08
7.93418e-08
7.69958e-08
7.44643e-08
7.17968e-08
6.90253e-08
6.61653e-08
6.32291e-08
6.02809e-08
5.74584e-08
5.41371e-08
5.28253e-08
4.35071e-08
2.166e-08
2.21864e-08
2.30303e-08
2.41707e-08
2.56297e-08
2.73854e-08
2.9394e-08
3.16083e-08
3.39797e-08
3.64635e-08
3.90132e-08
4.15836e-08
4.41318e-08
4.66087e-08
4.89388e-08
5.1087e-08
5.30328e-08
5.4735e-08
5.61458e-08
5.72935e-08
5.79991e-08
5.82601e-08
5.83136e-08
5.80622e-08
5.75049e-08
5.66837e-08
5.56357e-08
5.43836e-08
5.29516e-08
5.13647e-08
4.9651e-08
4.78325e-08
4.5942e-08
4.40006e-08
4.20191e-08
4.00059e-08
3.79998e-08
3.60978e-08
3.38542e-08
3.31098e-08
2.64547e-08
1.48975e-08
1.53393e-08
1.60151e-08
1.68826e-08
1.79625e-08
1.92393e-08
2.06826e-08
2.22527e-08
2.39156e-08
2.56358e-08
2.73799e-08
2.91147e-08
3.08093e-08
3.24318e-08
3.39304e-08
3.52761e-08
3.64635e-08
3.74684e-08
3.8264e-08
3.88659e-08
3.91595e-08
3.91481e-08
3.89988e-08
3.865e-08
3.81053e-08
3.73931e-08
3.65388e-08
3.55612e-08
3.44782e-08
3.33076e-08
3.20671e-08
3.07723e-08
2.9444e-08
2.80957e-08
2.6734e-08
2.53646e-08
2.40111e-08
2.2739e-08
2.12405e-08
2.08222e-08
1.61606e-08
1.02438e-08
1.06169e-08
1.11588e-08
1.18295e-08
1.26391e-08
1.35814e-08
1.46301e-08
1.57572e-08
1.69357e-08
1.81399e-08
1.93446e-08
2.05257e-08
2.16606e-08
2.27311e-08
2.37015e-08
2.45486e-08
2.52768e-08
2.58714e-08
2.6317e-08
2.66258e-08
2.6724e-08
2.66137e-08
2.64141e-08
2.60844e-08
2.56271e-08
2.50634e-08
2.44114e-08
2.36841e-08
2.28927e-08
2.205e-08
2.11676e-08
2.02561e-08
1.9329e-08
1.83956e-08
1.74607e-08
1.65282e-08
1.5613e-08
1.47577e-08
1.37546e-08
1.35253e-08
1.02364e-08
7.04117e-09
7.35561e-09
7.79322e-09
8.31536e-09
8.93222e-09
9.63676e-09
1.0408e-08
1.1226e-08
1.20702e-08
1.29223e-08
1.37627e-08
1.45748e-08
1.53407e-08
1.60502e-08
1.66763e-08
1.72019e-08
1.76342e-08
1.79665e-08
1.8189e-08
1.83119e-08
1.8289e-08
1.81237e-08
1.79001e-08
1.75939e-08
1.72082e-08
1.67579e-08
1.62556e-08
1.57104e-08
1.51304e-08
1.45236e-08
1.38978e-08
1.32598e-08
1.26188e-08
1.198e-08
1.13469e-08
1.07212e-08
1.01136e-08
9.54815e-09
8.89488e-09
8.76124e-09
6.53436e-09
4.83866e-09
5.10299e-09
5.4554e-09
5.86671e-09
6.34096e-09
6.87285e-09
7.44739e-09
8.04773e-09
8.65951e-09
9.26824e-09
9.86117e-09
1.04262e-08
1.09522e-08
1.14324e-08
1.1851e-08
1.21954e-08
1.24717e-08
1.26777e-08
1.28083e-08
1.28693e-08
1.28317e-08
1.26958e-08
1.25204e-08
1.22886e-08
1.20031e-08
1.16747e-08
1.13123e-08
1.09225e-08
1.0511e-08
1.00837e-08
9.64591e-09
9.20252e-09
8.75945e-09
8.32057e-09
7.88855e-09
7.46451e-09
7.05564e-09
6.67535e-09
6.24216e-09
6.16905e-09
4.59075e-09
3.32399e-09
3.54632e-09
3.83237e-09
4.15715e-09
4.52332e-09
4.92685e-09
5.35646e-09
5.80104e-09
6.24923e-09
6.68982e-09
7.11294e-09
7.50946e-09
7.87122e-09
8.19153e-09
8.45881e-09
8.66525e-09
8.81571e-09
8.9117e-09
8.95222e-09
8.94237e-09
8.86575e-09
8.72578e-09
8.56224e-09
8.36466e-09
8.13552e-09
7.8825e-09
7.61202e-09
7.32843e-09
7.03551e-09
6.73684e-09
6.43597e-09
6.13562e-09
5.83949e-09
5.54959e-09
5.26778e-09
4.99384e-09
4.73407e-09
4.49128e-09
4.22854e-09
4.16758e-09
3.18864e-09
2.28546e-09
2.47258e-09
2.70587e-09
2.96542e-09
3.24915e-09
3.55358e-09
3.87274e-09
4.20024e-09
4.52913e-09
4.85191e-09
5.16023e-09
5.44772e-09
5.70937e-09
5.94468e-09
6.14824e-09
6.31353e-09
6.44021e-09
6.52916e-09
6.57847e-09
6.59151e-09
6.55726e-09
6.47453e-09
6.37336e-09
6.24617e-09
6.09478e-09
5.92458e-09
5.74035e-09
5.54546e-09
5.34307e-09
5.13592e-09
4.92688e-09
4.71824e-09
4.51281e-09
4.31207e-09
4.11795e-09
3.93043e-09
3.75391e-09
3.58851e-09
3.41295e-09
3.38326e-09
2.64038e-09
1.57929e-09
1.73384e-09
1.92237e-09
2.12897e-09
2.34973e-09
2.58135e-09
2.81895e-09
3.05824e-09
3.29609e-09
3.5294e-09
3.75343e-09
3.96137e-09
4.14416e-09
4.29389e-09
4.40449e-09
4.47743e-09
4.52029e-09
4.53813e-09
4.53203e-09
4.50362e-09
4.44794e-09
4.36743e-09
4.27873e-09
4.17731e-09
4.06446e-09
3.94369e-09
3.8177e-09
3.68829e-09
3.55718e-09
3.42599e-09
3.29612e-09
3.16874e-09
3.04539e-09
2.92689e-09
2.81414e-09
2.70632e-09
2.6084e-09
2.51342e-09
2.42963e-09
2.37751e-09
2.03334e-09
1.10257e-09
1.22654e-09
1.37207e-09
1.52863e-09
1.69406e-09
1.86831e-09
2.04834e-09
2.22931e-09
2.40635e-09
2.5759e-09
2.73716e-09
2.89272e-09
3.04623e-09
3.20057e-09
3.35068e-09
3.4813e-09
3.58206e-09
3.65368e-09
3.698e-09
3.71876e-09
3.71289e-09
3.67901e-09
3.63357e-09
3.57355e-09
3.50087e-09
3.41886e-09
3.33025e-09
3.23699e-09
3.14079e-09
3.04337e-09
2.94635e-09
2.85116e-09
2.75904e-09
2.6709e-09
2.58812e-09
2.51073e-09
2.44105e-09
2.3763e-09
2.31549e-09
2.31269e-09
1.95106e-09
7.72975e-10
8.75808e-10
9.87853e-10
1.09983e-09
1.21256e-09
1.33031e-09
1.45554e-09
1.5886e-09
1.72677e-09
1.86359e-09
1.98871e-09
2.09081e-09
2.16152e-09
2.19903e-09
2.21106e-09
2.21691e-09
2.22865e-09
2.24217e-09
2.2524e-09
2.25581e-09
2.25008e-09
2.23628e-09
2.21894e-09
2.19589e-09
2.16757e-09
2.13559e-09
2.10107e-09
2.0648e-09
2.02752e-09
1.98994e-09
1.95266e-09
1.91616e-09
1.88117e-09
1.84794e-09
1.81707e-09
1.78767e-09
1.76399e-09
1.73571e-09
1.72986e-09
1.67163e-09
1.64892e-09
5.39966e-10
6.35876e-10
7.35526e-10
8.26274e-10
9.05678e-10
9.77887e-10
1.04747e-09
1.11931e-09
1.19874e-09
1.2916e-09
1.40323e-09
1.53756e-09
1.69462e-09
1.87008e-09
2.04861e-09
2.19462e-09
2.29181e-09
2.35757e-09
2.40048e-09
2.42578e-09
2.43233e-09
2.42108e-09
2.40075e-09
2.37075e-09
2.33305e-09
2.29013e-09
2.24373e-09
2.19525e-09
2.14595e-09
2.09715e-09
2.04996e-09
2.00543e-09
1.96432e-09
1.92748e-09
1.89595e-09
1.87045e-09
1.85135e-09
1.8391e-09
1.82988e-09
1.86819e-09
1.65902e-09
3.93772e-10
4.72379e-10
5.54758e-10
6.34782e-10
7.08998e-10
7.75467e-10
8.3137e-10
8.73794e-10
9.01865e-10
9.16581e-10
9.20745e-10
9.18017e-10
9.12435e-10
9.05505e-10
9.01198e-10
9.18383e-10
9.58275e-10
1.00561e-09
1.05461e-09
1.10131e-09
1.14421e-09
1.18323e-09
1.21946e-09
1.25224e-09
1.28125e-09
1.30684e-09
1.3294e-09
1.34906e-09
1.36596e-09
1.38015e-09
1.39182e-09
1.40095e-09
1.40765e-09
1.41169e-09
1.41349e-09
1.4122e-09
1.4107e-09
1.39963e-09
1.40644e-09
1.3369e-09
1.43067e-09
4.67157e-10
5.82636e-10
6.46162e-10
6.52231e-10
6.24095e-10
5.96434e-10
5.98221e-10
6.45295e-10
7.39458e-10
8.71657e-10
1.02652e-09
1.18694e-09
1.33765e-09
1.47002e-09
1.57511e-09
1.62136e-09
1.61203e-09
1.5778e-09
1.53344e-09
1.48472e-09
1.43039e-09
1.38077e-09
1.32959e-09
1.27904e-09
1.23061e-09
1.18468e-09
1.14148e-09
1.10111e-09
1.06379e-09
1.02961e-09
9.9864e-10
9.70904e-10
9.46306e-10
9.24832e-10
9.06701e-10
8.92411e-10
8.80811e-10
8.74034e-10
8.66288e-10
8.83121e-10
7.95783e-10
615.046
298.252
125.446
68.3014
49.1776
36.9598
25.6837
15.1178
6.46484
1.39006
0.00952299
0.222407
0.0784357
0.00024307
1.91147e-11
4.22852e-07
3.50522e-05
3.05139e-05
1.92704e-05
1.25943e-05
8.2764e-06
5.371e-06
3.41921e-06
2.19216e-06
1.41729e-06
9.64161e-07
6.89842e-07
5.40399e-07
4.47962e-07
3.82085e-07
3.30729e-07
2.77208e-07
2.31403e-07
1.85301e-07
1.44994e-07
1.17588e-07
9.54935e-08
8.6255e-08
8.18612e-08
9.16099e-08
9.86189e-08
1.08478e-07
1.24729e-07
1.31261e-07
1.43046e-07
1.44656e-07
1.44401e-07
1.42273e-07
1.35341e-07
1.24821e-07
1.13778e-07
1.00508e-07
8.73119e-08
7.40954e-08
6.12525e-08
5.00422e-08
3.95659e-08
3.07e-08
2.30785e-08
1.69593e-08
1.19687e-08
8.19595e-09
5.34744e-09
3.29207e-09
1.88333e-09
9.81237e-10
4.53676e-10
1.98076e-10
1.31633e-10
1.43095e-10
2.78348e-10
2.96453e-10
5.11634e-10
4.21143e-10
400.761
468.936
262.888
142.471
89.4635
62.5344
45.2096
30.5947
17.1922
6.80308
1.26452
0.00106977
0.140267
0.0249703
0.00125828
1.6851e-09
6.9208e-06
2.86283e-05
1.96604e-05
1.24183e-05
8.08232e-06
5.21348e-06
3.28241e-06
2.07922e-06
1.31264e-06
8.6998e-07
6.03328e-07
4.63945e-07
3.83115e-07
3.31198e-07
2.92835e-07
2.52023e-07
2.17222e-07
1.78701e-07
1.44342e-07
1.19847e-07
9.84487e-08
8.81658e-08
8.15066e-08
8.77832e-08
9.18029e-08
9.78055e-08
1.1105e-07
1.15272e-07
1.25109e-07
1.26403e-07
1.25359e-07
1.23305e-07
1.17852e-07
1.08341e-07
9.87796e-08
8.72841e-08
7.58078e-08
6.43572e-08
5.30543e-08
4.33483e-08
3.42734e-08
2.65487e-08
1.99188e-08
1.46153e-08
1.02817e-08
7.0163e-09
4.57962e-09
2.80751e-09
1.60479e-09
8.42169e-10
3.99485e-10
1.89445e-10
1.41364e-10
1.50755e-10
2.75851e-10
2.72273e-10
4.77875e-10
3.56415e-10
154.812
372.222
321.183
206.904
133.426
93.5631
69.9568
51.581
34.1185
18.2294
6.70558
1.13904
0.00891266
0.0735329
0.00828601
0.000296774
2.22989e-08
1.09477e-05
2.26667e-05
1.31616e-05
8.1448e-06
5.29981e-06
3.30894e-06
2.05948e-06
1.28037e-06
8.29593e-07
5.63154e-07
4.21437e-07
3.45034e-07
3.04648e-07
2.73925e-07
2.4698e-07
2.18147e-07
1.87026e-07
1.59281e-07
1.34903e-07
1.14121e-07
1.01248e-07
9.31752e-08
9.0594e-08
9.19333e-08
9.47903e-08
1.00475e-07
1.03905e-07
1.08312e-07
1.09584e-07
1.08013e-07
1.04308e-07
9.98766e-08
9.18404e-08
8.33658e-08
7.37102e-08
6.3962e-08
5.43428e-08
4.48115e-08
3.64492e-08
2.89124e-08
2.23486e-08
1.67811e-08
1.22924e-08
8.65415e-09
5.89086e-09
3.86366e-09
2.37588e-09
1.37298e-09
7.41581e-10
3.75886e-10
2.03692e-10
1.67379e-10
1.70525e-10
2.78907e-10
2.52492e-10
4.4884e-10
2.96524e-10
60.5463
228.278
289.313
237.324
171.868
126.137
96.7069
74.6916
54.5001
34.8007
17.715
6.1884
1.02014
0.019012
0.0380879
0.00306149
0.000166894
3.42803e-08
6.42095e-06
1.55271e-05
9.0919e-06
5.289e-06
3.35759e-06
2.09723e-06
1.27319e-06
7.94943e-07
5.26037e-07
3.83386e-07
3.1105e-07
2.77721e-07
2.55906e-07
2.3971e-07
2.18533e-07
1.94808e-07
1.7221e-07
1.49134e-07
1.28916e-07
1.14024e-07
1.03636e-07
9.49691e-08
9.26527e-08
9.22704e-08
9.21318e-08
9.37141e-08
9.4103e-08
9.44431e-08
9.23721e-08
8.7835e-08
8.38453e-08
7.70932e-08
6.97077e-08
6.16505e-08
5.34673e-08
4.5462e-08
3.75381e-08
3.0455e-08
2.42213e-08
1.87141e-08
1.40783e-08
1.03125e-08
7.27851e-09
4.96107e-09
3.27524e-09
2.03026e-09
1.1962e-09
6.69996e-10
3.67274e-10
2.21998e-10
1.9161e-10
1.86034e-10
2.79598e-10
2.31625e-10
4.20489e-10
2.44059e-10
26.803
124.903
214.864
225.426
190.785
151.652
120.735
96.7118
75.5495
54.5086
34.0058
16.8893
5.83101
1.01892
0.0364295
0.0206276
0.00202364
0.000176366
1.87001e-08
2.30006e-06
1.00028e-05
6.15225e-06
3.28154e-06
2.02472e-06
1.27345e-06
7.86382e-07
4.98231e-07
3.46449e-07
2.76193e-07
2.48101e-07
2.36332e-07
2.28483e-07
2.16481e-07
1.99811e-07
1.81304e-07
1.60979e-07
1.41325e-07
1.25067e-07
1.11578e-07
9.98098e-08
9.33203e-08
8.92263e-08
8.54839e-08
8.41669e-08
8.2173e-08
8.10146e-08
7.82205e-08
7.36878e-08
6.99266e-08
6.41366e-08
5.78503e-08
5.11704e-08
4.43802e-08
3.77795e-08
3.12355e-08
2.53629e-08
2.02172e-08
1.56438e-08
1.1803e-08
8.66495e-09
6.14224e-09
4.20782e-09
2.80239e-09
1.75911e-09
1.06261e-09
6.19123e-10
3.6612e-10
2.38396e-10
2.09716e-10
1.93985e-10
2.75704e-10
2.08377e-10
3.90941e-10
1.97658e-10
12.9354
64.4025
140.909
184.857
184.43
162.125
136.3
113.512
93.5416
73.8145
53.095
32.8903
16.334
5.8006
1.14997
0.0709974
0.0128787
0.0016219
0.000301099
5.51803e-09
2.08824e-07
5.74941e-06
4.80334e-06
2.18902e-06
1.16846e-06
7.29012e-07
4.76452e-07
3.27242e-07
2.5279e-07
2.24434e-07
2.18525e-07
2.19162e-07
2.16283e-07
2.06401e-07
1.92595e-07
1.74881e-07
1.55938e-07
1.38208e-07
1.22145e-07
1.07278e-07
9.6828e-08
8.88966e-08
8.18249e-08
7.7427e-08
7.32281e-08
7.03001e-08
6.66368e-08
6.19382e-08
5.82655e-08
5.313e-08
4.77667e-08
4.22076e-08
3.66019e-08
3.11987e-08
2.58306e-08
2.10289e-08
1.68126e-08
1.30501e-08
9.88995e-09
7.29457e-09
5.20633e-09
3.59899e-09
2.42794e-09
1.55279e-09
9.6798e-10
5.91362e-10
3.74429e-10
2.58183e-10
2.27695e-10
2.01461e-10
2.70916e-10
1.87234e-10
3.63264e-10
1.57891e-10
6.93073
32.0766
85.26
135.262
157.429
154.146
138.708
121.036
104.664
88.5762
70.841
51.2716
32.0147
16.2721
6.15041
1.43515
0.141318
0.0109875
0.00171028
0.000545437
8.81618e-08
1.7459e-08
1.11063e-06
3.31981e-06
1.86994e-06
7.93646e-07
4.18213e-07
2.79595e-07
2.24998e-07
2.08945e-07
2.08789e-07
2.14462e-07
2.17623e-07
2.14544e-07
2.06858e-07
1.92265e-07
1.74346e-07
1.55146e-07
1.37026e-07
1.18693e-07
1.04481e-07
9.27953e-08
8.20208e-08
7.45705e-08
6.7767e-08
6.28588e-08
5.81233e-08
5.28125e-08
4.89425e-08
4.4193e-08
3.94601e-08
3.47507e-08
3.00864e-08
2.56645e-08
2.12807e-08
1.73732e-08
1.39457e-08
1.08738e-08
8.29286e-09
6.16095e-09
4.44121e-09
3.11082e-09
2.13706e-09
1.40181e-09
9.07937e-10
5.8525e-10
3.9379e-10
2.84736e-10
2.49815e-10
2.1311e-10
2.69293e-10
1.716e-10
3.40663e-10
1.25554e-10
4.1337
15.5936
48.7386
90.4065
120.231
130.678
126.816
116.912
106.132
95.2699
82.7776
67.3349
49.4514
31.58
16.7755
6.91116
1.93253
0.287993
0.0204012
0.0022959
2.67196e-05
5.79569e-06
1.76615e-09
7.51802e-10
6.22025e-07
1.15097e-06
6.4495e-07
3.04636e-07
1.84866e-07
1.6344e-07
1.80887e-07
2.07684e-07
2.23597e-07
2.26524e-07
2.22523e-07
2.11037e-07
1.95026e-07
1.75534e-07
1.55568e-07
1.34042e-07
1.15988e-07
1.0063e-07
8.60012e-08
7.54069e-08
6.56852e-08
5.8591e-08
5.24495e-08
4.62652e-08
4.18538e-08
3.72235e-08
3.28279e-08
2.87182e-08
2.47528e-08
2.10997e-08
1.75151e-08
1.43352e-08
1.15626e-08
9.06837e-09
6.97411e-09
5.23256e-09
3.82279e-09
2.72465e-09
1.91572e-09
1.29581e-09
8.75954e-10
5.95512e-10
4.22741e-10
3.17402e-10
2.7634e-10
2.29118e-10
2.72227e-10
1.62014e-10
3.23782e-10
1.00375e-10
2.50885
7.4307
26.435
55.7065
82.8894
99.0468
103.839
101.77
97.2808
92.1466
85.7066
76.4104
63.4483
47.7083
31.5904
17.8068
8.11948
2.7396
0.589503
0.0668253
0.00518424
0.000195933
0.000190198
8.07505e-13
9.22881e-10
4.84829e-10
2.27552e-07
3.82754e-07
2.90565e-07
2.03101e-07
1.65292e-07
1.72882e-07
2.02789e-07
2.30668e-07
2.4233e-07
2.35313e-07
2.18896e-07
1.98327e-07
1.76878e-07
1.53035e-07
1.3131e-07
1.12098e-07
9.35792e-08
7.95608e-08
6.67503e-08
5.72229e-08
4.93179e-08
4.20438e-08
3.68088e-08
3.20116e-08
2.76952e-08
2.39494e-08
2.04705e-08
1.73902e-08
1.44337e-08
1.18387e-08
9.60052e-09
7.58357e-09
5.89382e-09
4.4788e-09
3.32794e-09
2.42401e-09
1.75171e-09
1.22649e-09
8.66418e-10
6.18376e-10
4.59472e-10
3.54948e-10
3.06428e-10
2.48648e-10
2.7931e-10
1.58011e-10
3.11988e-10
8.13838e-11
1.31986
3.36213
13.4409
31.3098
51.3926
66.9887
75.7309
79.1944
80.0035
79.8719
78.8496
75.7829
69.3534
59.0919
45.9109
31.8453
19.2449
9.78965
3.96672
1.17351
0.225611
0.0248432
0.0016546
0.000414993
5.79919e-05
6.05535e-12
3.11586e-10
6.06445e-10