/*--------------------------------*- C++ -*----------------------------------*\
| =========                 |                                                 |
| \\      /  F ield         | OpenFOAM: The Open Source CFD Toolbox           |
|  \\    /   O peration     | Version:  2312                                  |
|   \\  /    A nd           | Website:  www.openfoam.com                      |
|    \\/     M anipulation  |                                                 |
\*---------------------------------------------------------------------------*/
FoamFile
{
    version     2.0;
    format      ascii;
    arch        "LSB;label=32;scalar=64";
    class       volScalarField;
    location    "450";
    object      turbulenceProperties:nuEff;
}
// * * * * * * * * * * * * * * * * * * * * * * * * * * * * * * * * * * * * * //

dimensions      [0 2 -1 0 0 0 0];

internalField   nonuniform List<scalar> 
11040
(
4.89152e-05
6.4093e-05
2.39436e-05
7.04217e-05
0.000213618
0.00020153
0.00019334
0.000184062
0.000173536
0.000167239
0.00016082
0.0001555
0.000150715
0.000147085
0.000144357
0.000143236
0.000144035
0.000146647
0.000150548
0.000155546
0.000161739
0.000168962
0.000177012
0.000185767
0.000195279
0.000206356
0.000219394
0.000232701
0.000245532
0.000257371
0.000267569
0.000275355
0.00028003
0.000281767
0.000282703
0.000292554
0.000291265
0.000206107
0.000217659
0.000243433
0.00034087
1.44789e-05
4.81613e-05
6.55979e-05
0.000170081
0.00064458
0.000642478
0.000575624
0.000528636
0.000467514
0.000432941
0.00039765
0.000369948
0.000343423
0.000322412
0.000304311
0.000291139
0.000284582
0.000283754
0.00028585
0.000289654
0.000295252
0.000302967
0.000311295
0.00031895
0.000326114
0.000338243
0.000363342
0.000394123
0.000428658
0.0004672
0.00051008
0.000558058
0.000611231
0.000669329
0.000734026
0.000809432
0.000896309
0.000987825
0.00109472
0.00123362
0.00179477
1.5478e-05
1.9995e-05
4.05267e-05
8.23394e-05
0.000455477
0.00103385
0.00123597
0.00118021
0.00104705
0.000973619
0.000895501
0.000837349
0.000779634
0.000734097
0.000694292
0.00066115
0.000635852
0.000617155
0.000605916
0.000601102
0.00060361
0.000614449
0.000634801
0.000666087
0.000708698
0.000763052
0.000828977
0.00090516
0.000991026
0.00108641
0.00119087
0.00130419
0.00142612
0.00155713
0.00169816
0.00185304
0.00202948
0.0022362
0.00248137
0.00281233
0.00384117
1.65349e-05
1.52748e-05
2.09848e-05
2.18234e-05
0.000162186
0.000650546
0.00139861
0.00178638
0.00184948
0.00175327
0.00161966
0.00152542
0.00142782
0.00135092
0.00128237
0.00122199
0.00117676
0.00114249
0.00112182
0.00111296
0.00111613
0.00113419
0.00117051
0.00122738
0.00130499
0.00140291
0.00152034
0.00165642
0.00181021
0.00198107
0.00216787
0.0023698
0.00258588
0.00281656
0.00306269
0.00332805
0.00362299
0.00397255
0.00439573
0.00497301
0.00643689
1.62472e-05
1.57807e-05
1.64942e-05
1.53769e-05
1.56676e-05
0.00020253
0.000767673
0.00166714
0.00237647
0.00257579
0.00258394
0.00248734
0.00234072
0.00222209
0.00212076
0.00202405
0.00195336
0.00189805
0.00186413
0.00185012
0.00185282
0.00187695
0.00192998
0.00201555
0.00213454
0.00228719
0.00247245
0.00268866
0.00293379
0.00320623
0.00350342
0.00382319
0.00416319
0.00452318
0.0049037
0.00530841
0.00574976
0.00626315
0.00689318
0.0077498
0.00958797
1.61176e-05
1.62089e-05
1.5932e-05
1.6549e-05
1.1638e-05
1.12124e-05
0.000196222
0.0007824
0.00181964
0.00288953
0.00335879
0.00352899
0.00352219
0.00343187
0.00328622
0.00313998
0.00303613
0.00295211
0.00289783
0.00287733
0.00287925
0.0029079
0.00297847
0.00309651
0.00326401
0.00348314
0.00375334
0.00407184
0.00443438
0.00483787
0.00527717
0.0057478
0.00624473
0.00676581
0.0073105
0.00788155
0.00849182
0.0091843
0.0100358
0.0111863
0.0133467
1.61188e-05
1.61492e-05
1.60318e-05
1.6377e-05
1.5769e-05
1.0411e-05
1.00086e-05
0.000138779
0.000696505
0.0017933
0.00316723
0.00415134
0.00453012
0.00467883
0.00468469
0.00460975
0.00449866
0.0043824
0.00431031
0.00428565
0.00429034
0.00432249
0.00441138
0.00456538
0.0047869
0.00508208
0.00545295
0.00589652
0.0064042
0.00697112
0.00758766
0.00824565
0.00893551
0.00965077
0.0103885
0.0111495
0.0119446
0.0128207
0.013885
0.0153213
0.0177585
1.6112e-05
1.61102e-05
1.61279e-05
1.6065e-05
1.65587e-05
1.57985e-05
1.00209e-05
1.00001e-05
6.49504e-05
0.000530741
0.00156613
0.00313152
0.00469221
0.00554829
0.00592225
0.00607784
0.00612745
0.00610892
0.00607701
0.00605459
0.00607829
0.00614944
0.00628889
0.00651562
0.00682012
0.00720784
0.0076927
0.00828257
0.00896206
0.00972574
0.0105562
0.01144
0.0123606
0.0133029
0.014259
0.0152277
0.0162139
0.017263
0.0184997
0.0201703
0.0228305
1.61094e-05
1.61136e-05
1.61132e-05
1.61266e-05
1.60293e-05
1.70976e-05
1.51703e-05
1.01415e-05
1.03508e-05
1.04151e-05
0.000312954
0.00117687
0.00274108
0.00471611
0.00636644
0.00717371
0.00759499
0.00781551
0.00796277
0.00807055
0.00819628
0.00835974
0.00860167
0.00895066
0.00940522
0.00996284
0.0106217
0.0113865
0.0122661
0.0132577
0.0143365
0.0154824
0.0166719
0.0178727
0.0190662
0.020251
0.0214229
0.0226145
0.0239532
0.0257438
0.0284949
1.61072e-05
1.61102e-05
1.61116e-05
1.61199e-05
1.6097e-05
1.60876e-05
1.72297e-05
1.48122e-05
1.0594e-05
1.00145e-05
3.23993e-05
0.000140364
0.00074225
0.00208131
0.00416018
0.00649158
0.00824353
0.00911801
0.00965869
0.0100333
0.0103796
0.0107368
0.0111685
0.0117215
0.0124142
0.0132546
0.0142367
0.015348
0.0165675
0.0178687
0.0192331
0.020664
0.0221495
0.0236296
0.02506
0.0264523
0.0277915
0.0290739
0.0304323
0.0321563
0.0347545
1.61056e-05
1.61078e-05
1.61106e-05
1.61091e-05
1.6125e-05
1.60631e-05
1.62066e-05
1.69048e-05
1.58562e-05
1.14149e-05
1.0007e-05
1.05565e-05
1.00306e-05
0.000342782
0.0013152
0.00315238
0.00572876
0.00843548
0.010412
0.0114972
0.0122831
0.0129489
0.0136407
0.0144511
0.0154289
0.0166073
0.0179895
0.0195673
0.0213182
0.0232049
0.0251781
0.0271742
0.0291101
0.0309073
0.0325504
0.0341183
0.0355986
0.0368831
0.0381406
0.039631
0.0417441
1.6104e-05
1.6106e-05
1.61074e-05
1.61092e-05
1.6109e-05
1.61166e-05
1.60726e-05
1.61884e-05
1.66178e-05
1.67159e-05
1.27376e-05
1.00085e-05
1.00009e-05
2.68984e-05
6.82336e-05
0.000614599
0.00194338
0.00425535
0.00733569
0.0105283
0.0129635
0.014435
0.0155846
0.0167305
0.018006
0.0195126
0.0212741
0.0232965
0.0255677
0.0280496
0.0306857
0.0334064
0.03613
0.0387695
0.0412293
0.0433905
0.0450994
0.04629
0.0473152
0.0485008
0.0498633
1.61025e-05
1.61041e-05
1.61053e-05
1.61064e-05
1.61073e-05
1.61091e-05
1.61082e-05
1.6095e-05
1.6121e-05
1.64696e-05
1.69419e-05
1.45152e-05
1.03301e-05
1.0003e-05
1.00422e-05
8.25703e-05
0.000180913
0.000885936
0.00252044
0.0052518
0.00886506
0.0126009
0.0156197
0.017741
0.0195106
0.0213939
0.0234998
0.025883
0.0285759
0.0315513
0.0347463
0.0380863
0.0414893
0.0448724
0.0481386
0.0511789
0.0538791
0.0561515
0.0578978
0.0589877
0.0595317
1.6101e-05
1.61024e-05
1.61034e-05
1.61042e-05
1.61051e-05
1.61059e-05
1.61072e-05
1.61076e-05
1.60991e-05
1.60922e-05
1.63129e-05
1.70788e-05
1.5897e-05
1.2229e-05
1.00006e-05
1.00001e-05
1.05485e-05
0.00013304
0.000255945
0.00106735
0.0029145
0.00582567
0.00948081
0.0134764
0.0173461
0.0207077
0.0235861
0.0263853
0.0294328
0.0327962
0.0364189
0.0402333
0.0441662
0.0481447
0.0520735
0.0558422
0.059357
0.0625598
0.0653731
0.0677285
0.0696361
1.60998e-05
1.6101e-05
1.61018e-05
1.61024e-05
1.61031e-05
1.61037e-05
1.61045e-05
1.61053e-05
1.61068e-05
1.61034e-05
1.6074e-05
1.62238e-05
1.6673e-05
1.68932e-05
1.45965e-05
1.04664e-05
1.00043e-05
1e-05
1.16792e-05
0.00015449
0.000259619
0.00102328
0.00259537
0.00504599
0.00830861
0.0122098
0.0165367
0.0210676
0.0255721
0.0299057
0.0341083
0.0383278
0.0426638
0.0471152
0.0515936
0.0559772
0.0601654
0.064119
0.0677928
0.071127
0.0740801
1.60988e-05
1.60998e-05
1.61003e-05
1.61006e-05
1.6101e-05
1.61015e-05
1.6102e-05
1.61028e-05
1.61035e-05
1.61058e-05
1.61031e-05
1.60822e-05
1.61337e-05
1.63617e-05
1.70549e-05
1.61938e-05
1.35554e-05
1.0096e-05
1.00017e-05
1e-05
1.15006e-05
0.000109162
6.33632e-05
0.000511419
0.0014795
0.00311326
0.00546246
0.00853392
0.0123011
0.0167045
0.0216573
0.0270311
0.0326348
0.0382581
0.0437154
0.0488955
0.0537767
0.0584213
0.062845
0.0670297
0.0709516
1.60981e-05
1.60986e-05
1.60986e-05
1.60987e-05
1.60988e-05
1.60991e-05
1.60995e-05
1.61e-05
1.61007e-05
1.61015e-05
1.61038e-05
1.61022e-05
1.60936e-05
1.60753e-05
1.62218e-05
1.6564e-05
1.70451e-05
1.5632e-05
1.28823e-05
1.00349e-05
1.00011e-05
1e-05
1.00113e-05
2.03029e-05
0.000136741
2.23222e-05
0.000344305
0.00103509
0.00217969
0.00385573
0.00612027
0.00901996
0.0125677
0.0167564
0.0215274
0.0267648
0.0323213
0.0381002
0.0439429
0.0496852
0.0551824
1.60973e-05
1.60974e-05
1.60973e-05
1.60971e-05
1.60971e-05
1.60972e-05
1.60974e-05
1.60977e-05
1.60982e-05
1.60988e-05
1.60997e-05
1.61011e-05
1.61026e-05
1.60952e-05
1.60795e-05
1.611e-05
1.63003e-05
1.67124e-05
1.70714e-05
1.54367e-05
1.24944e-05
1.00904e-05
1.00017e-05
1e-05
1e-05
1.00008e-05
1.15024e-05
5.97473e-05
0.000169074
0.000334564
0.000172458
0.000640452
0.00138096
0.00248246
0.00400009
0.00598162
0.00842868
0.0113726
0.0147873
0.0186375
0.0229195
1.60965e-05
1.60967e-05
1.60963e-05
1.60959e-05
1.60957e-05
1.60956e-05
1.60956e-05
1.60958e-05
1.60961e-05
1.60966e-05
1.60972e-05
1.6098e-05
1.60992e-05
1.6101e-05
1.60979e-05
1.60894e-05
1.60784e-05
1.61453e-05
1.63744e-05
1.68381e-05
1.69856e-05
1.55986e-05
1.31451e-05
1.09682e-05
1.00008e-05
1.00003e-05
1e-05
1e-05
1e-05
1e-05
1.00722e-05
1.93609e-05
7.91822e-05
0.000170151
0.000288085
2.95069e-05
0.000158409
0.000515531
0.00109574
0.00190423
0.00302402
1.60957e-05
1.60957e-05
1.60951e-05
1.60945e-05
1.60942e-05
1.6094e-05
1.6094e-05
1.60941e-05
1.60943e-05
1.60947e-05
1.60951e-05
1.60957e-05
1.60964e-05
1.60976e-05
1.60989e-05
1.60997e-05
1.60945e-05
1.6085e-05
1.60794e-05
1.61738e-05
1.64185e-05
1.68312e-05
1.6979e-05
1.66109e-05
1.47229e-05
1.25365e-05
1.08701e-05
1.00314e-05
1.00009e-05
1e-05
1e-05
1e-05
1e-05
1e-05
1e-05
1.00005e-05
1.00304e-05
1.26128e-05
4.01497e-05
0.000102036
0.000177002
1.60948e-05
1.60947e-05
1.60939e-05
1.60933e-05
1.60929e-05
1.60927e-05
1.60927e-05
1.60928e-05
1.6093e-05
1.60932e-05
1.60936e-05
1.6094e-05
1.60946e-05
1.60953e-05
1.60962e-05
1.60974e-05
1.60987e-05
1.60984e-05
1.60911e-05
1.60799e-05
1.60838e-05
1.61719e-05
1.63729e-05
1.66619e-05
1.70604e-05
1.70743e-05
1.65702e-05
1.52751e-05
1.3502e-05
1.19432e-05
1.077e-05
1.01787e-05
1.0001e-05
1.00002e-05
1e-05
1e-05
1e-05
1e-05
1e-05
1e-05
1e-05
1.60939e-05
1.60936e-05
1.60928e-05
1.60923e-05
1.6092e-05
1.60919e-05
1.60919e-05
1.6092e-05
1.60922e-05
1.60924e-05
1.60927e-05
1.6093e-05
1.60935e-05
1.6094e-05
1.60946e-05
1.60953e-05
1.60963e-05
1.60976e-05
1.60987e-05
1.6097e-05
1.60888e-05
1.6077e-05
1.60827e-05
1.61222e-05
1.62541e-05
1.64714e-05
1.67346e-05
1.7028e-05
1.71647e-05
1.70176e-05
1.65009e-05
1.56993e-05
1.45166e-05
1.32143e-05
1.20353e-05
1.11853e-05
1.0614e-05
1.02239e-05
1.00472e-05
1.00001e-05
1.00001e-05
1.6093e-05
1.60927e-05
1.60921e-05
1.60917e-05
1.60915e-05
1.60915e-05
1.60916e-05
1.60917e-05
1.60919e-05
1.60921e-05
1.60923e-05
1.60926e-05
1.60929e-05
1.60933e-05
1.60938e-05
1.60943e-05
1.60949e-05
1.60957e-05
1.60967e-05
1.6098e-05
1.60988e-05
1.60964e-05
1.60897e-05
1.60802e-05
1.60741e-05
1.60875e-05
1.61337e-05
1.62318e-05
1.63861e-05
1.65836e-05
1.67994e-05
1.69983e-05
1.7194e-05
1.72576e-05
1.71429e-05
1.68509e-05
1.64158e-05
1.58123e-05
1.51069e-05
1.4216e-05
1.3321e-05
1.6092e-05
1.60919e-05
1.60916e-05
1.60914e-05
1.60915e-05
1.60916e-05
1.60917e-05
1.60919e-05
1.60921e-05
1.60923e-05
1.60924e-05
1.60926e-05
1.60929e-05
1.60932e-05
1.60935e-05
1.60939e-05
1.60944e-05
1.60949e-05
1.60955e-05
1.60962e-05
1.60973e-05
1.60985e-05
1.6099e-05
1.6098e-05
1.6094e-05
1.60868e-05
1.60785e-05
1.60729e-05
1.60771e-05
1.60983e-05
1.61434e-05
1.62141e-05
1.63167e-05
1.64494e-05
1.66037e-05
1.67663e-05
1.69255e-05
1.70782e-05
1.72065e-05
1.73301e-05
1.73801e-05
1.60912e-05
1.60913e-05
1.60914e-05
1.60916e-05
1.60918e-05
1.60921e-05
1.60923e-05
1.60925e-05
1.60927e-05
1.60928e-05
1.60929e-05
1.60931e-05
1.60933e-05
1.60935e-05
1.60937e-05
1.6094e-05
1.60943e-05
1.60947e-05
1.60951e-05
1.60956e-05
1.60961e-05
1.60968e-05
1.60977e-05
1.60987e-05
1.60996e-05
1.60997e-05
1.60985e-05
1.60951e-05
1.60896e-05
1.60826e-05
1.60756e-05
1.60707e-05
1.60701e-05
1.60769e-05
1.60938e-05
1.61231e-05
1.61652e-05
1.62231e-05
1.62942e-05
1.63838e-05
1.64779e-05
1.60905e-05
1.6091e-05
1.60915e-05
1.60919e-05
1.60924e-05
1.60928e-05
1.60931e-05
1.60933e-05
1.60935e-05
1.60936e-05
1.60937e-05
1.60938e-05
1.60939e-05
1.6094e-05
1.60942e-05
1.60943e-05
1.60946e-05
1.60948e-05
1.60951e-05
1.60955e-05
1.60958e-05
1.60963e-05
1.60967e-05
1.60973e-05
1.60979e-05
1.60987e-05
1.60996e-05
1.61003e-05
1.61006e-05
1.61001e-05
1.60986e-05
1.60957e-05
1.60916e-05
1.60863e-05
1.60803e-05
1.60742e-05
1.60687e-05
1.60647e-05
1.6063e-05
1.6065e-05
1.60692e-05
1.609e-05
1.60909e-05
1.60917e-05
1.60924e-05
1.6093e-05
1.60935e-05
1.60939e-05
1.60942e-05
1.60944e-05
1.60946e-05
1.60946e-05
1.60947e-05
1.60947e-05
1.60948e-05
1.60948e-05
1.60949e-05
1.60951e-05
1.60952e-05
1.60954e-05
1.60956e-05
1.60959e-05
1.60962e-05
1.60964e-05
1.60968e-05
1.60971e-05
1.60975e-05
1.60979e-05
1.60984e-05
1.6099e-05
1.60996e-05
1.61002e-05
1.61006e-05
1.61008e-05
1.61006e-05
1.60999e-05
1.60985e-05
1.60965e-05
1.60936e-05
1.609e-05
1.60857e-05
1.60813e-05
1.60898e-05
1.60911e-05
1.60921e-05
1.60929e-05
1.60936e-05
1.60942e-05
1.60946e-05
1.6095e-05
1.60952e-05
1.60955e-05
1.60956e-05
1.60957e-05
1.60957e-05
1.60957e-05
1.60957e-05
1.60957e-05
1.60958e-05
1.60959e-05
1.60959e-05
1.60961e-05
1.60962e-05
1.60964e-05
1.60965e-05
1.60967e-05
1.60969e-05
1.60971e-05
1.60973e-05
1.60975e-05
1.60977e-05
1.60979e-05
1.60981e-05
1.60984e-05
1.60986e-05
1.60989e-05
1.60991e-05
1.60992e-05
1.60993e-05
1.60993e-05
1.60991e-05
1.60986e-05
1.60981e-05
1.60897e-05
1.60913e-05
1.60925e-05
1.60934e-05
1.60941e-05
1.60947e-05
1.60952e-05
1.60956e-05
1.6096e-05
1.60963e-05
1.60965e-05
1.60966e-05
1.60967e-05
1.60968e-05
1.60968e-05
1.60968e-05
1.60968e-05
1.60968e-05
1.60968e-05
1.60968e-05
1.60968e-05
1.60969e-05
1.6097e-05
1.60971e-05
1.60971e-05
1.60972e-05
1.60973e-05
1.60974e-05
1.60974e-05
1.60974e-05
1.60975e-05
1.60975e-05
1.60974e-05
1.60974e-05
1.60974e-05
1.60974e-05
1.60975e-05
1.60976e-05
1.60979e-05
1.60982e-05
1.60986e-05
1.60898e-05
1.60916e-05
1.60928e-05
1.60937e-05
1.60945e-05
1.60952e-05
1.60957e-05
1.60962e-05
1.60966e-05
1.6097e-05
1.60973e-05
1.60975e-05
1.60977e-05
1.60978e-05
1.60979e-05
1.6098e-05
1.6098e-05
1.6098e-05
1.6098e-05
1.6098e-05
1.60979e-05
1.60979e-05
1.60979e-05
1.60979e-05
1.60979e-05
1.6098e-05
1.6098e-05
1.6098e-05
1.6098e-05
1.60981e-05
1.60981e-05
1.60982e-05
1.60983e-05
1.60984e-05
1.60986e-05
1.60989e-05
1.60992e-05
1.60995e-05
1.61e-05
1.61004e-05
1.6101e-05
1.609e-05
1.60918e-05
1.6093e-05
1.6094e-05
1.60948e-05
1.60955e-05
1.60961e-05
1.60967e-05
1.60972e-05
1.60976e-05
1.60979e-05
1.60982e-05
1.60985e-05
1.60987e-05
1.60989e-05
1.6099e-05
1.60991e-05
1.60992e-05
1.60993e-05
1.60993e-05
1.60994e-05
1.60994e-05
1.60995e-05
1.60995e-05
1.60996e-05
1.60996e-05
1.60997e-05
1.60998e-05
1.60999e-05
1.61001e-05
1.61003e-05
1.61005e-05
1.61008e-05
1.61011e-05
1.61014e-05
1.61018e-05
1.61022e-05
1.61027e-05
1.61032e-05
1.61038e-05
1.61044e-05
1.60901e-05
1.60919e-05
1.60931e-05
1.60941e-05
1.6095e-05
1.60958e-05
1.60965e-05
1.60971e-05
1.60976e-05
1.60981e-05
1.60985e-05
1.60989e-05
1.60992e-05
1.60995e-05
1.60998e-05
1.61e-05
1.61002e-05
1.61003e-05
1.61005e-05
1.61006e-05
1.61008e-05
1.61009e-05
1.61011e-05
1.61012e-05
1.61013e-05
1.61015e-05
1.61017e-05
1.61019e-05
1.61021e-05
1.61023e-05
1.61026e-05
1.61029e-05
1.61033e-05
1.61036e-05
1.61041e-05
1.61045e-05
1.6105e-05
1.61055e-05
1.61061e-05
1.61067e-05
1.61074e-05
1.60901e-05
1.60918e-05
1.60931e-05
1.60942e-05
1.60951e-05
1.60959e-05
1.60966e-05
1.60973e-05
1.60979e-05
1.60985e-05
1.6099e-05
1.60995e-05
1.60999e-05
1.61002e-05
1.61006e-05
1.61009e-05
1.61011e-05
1.61014e-05
1.61016e-05
1.61018e-05
1.61021e-05
1.61023e-05
1.61025e-05
1.61027e-05
1.6103e-05
1.61032e-05
1.61035e-05
1.61037e-05
1.6104e-05
1.61043e-05
1.61047e-05
1.61051e-05
1.61055e-05
1.61059e-05
1.61064e-05
1.61069e-05
1.61074e-05
1.61079e-05
1.61086e-05
1.61091e-05
1.61098e-05
1.609e-05
1.60917e-05
1.6093e-05
1.60941e-05
1.6095e-05
1.60959e-05
1.60967e-05
1.60975e-05
1.60982e-05
1.60988e-05
1.60994e-05
1.60999e-05
1.61004e-05
1.61009e-05
1.61013e-05
1.61016e-05
1.6102e-05
1.61023e-05
1.61026e-05
1.61029e-05
1.61032e-05
1.61035e-05
1.61038e-05
1.61041e-05
1.61044e-05
1.61047e-05
1.61051e-05
1.61054e-05
1.61058e-05
1.61061e-05
1.61065e-05
1.6107e-05
1.61074e-05
1.61079e-05
1.61084e-05
1.61089e-05
1.61095e-05
1.611e-05
1.61106e-05
1.61112e-05
1.61119e-05
1.60898e-05
1.60915e-05
1.60927e-05
1.60938e-05
1.60948e-05
1.60958e-05
1.60967e-05
1.60975e-05
1.60983e-05
1.6099e-05
1.60997e-05
1.61003e-05
1.61009e-05
1.61014e-05
1.61019e-05
1.61023e-05
1.61028e-05
1.61032e-05
1.61036e-05
1.6104e-05
1.61043e-05
1.61047e-05
1.61051e-05
1.61054e-05
1.61058e-05
1.61062e-05
1.61065e-05
1.61069e-05
1.61074e-05
1.61078e-05
1.61082e-05
1.61087e-05
1.61092e-05
1.61097e-05
1.61102e-05
1.61107e-05
1.61112e-05
1.61118e-05
1.61124e-05
1.61129e-05
1.61136e-05
1.60894e-05
1.60911e-05
1.60923e-05
1.60935e-05
1.60945e-05
1.60955e-05
1.60965e-05
1.60974e-05
1.60983e-05
1.60991e-05
1.60998e-05
1.61006e-05
1.61012e-05
1.61018e-05
1.61024e-05
1.61029e-05
1.61034e-05
1.61039e-05
1.61044e-05
1.61048e-05
1.61053e-05
1.61057e-05
1.61062e-05
1.61066e-05
1.6107e-05
1.61074e-05
1.61079e-05
1.61083e-05
1.61088e-05
1.61092e-05
1.61097e-05
1.61102e-05
1.61107e-05
1.61112e-05
1.61117e-05
1.61123e-05
1.61128e-05
1.61134e-05
1.61139e-05
1.61144e-05
1.61151e-05
1.60889e-05
1.60905e-05
1.60918e-05
1.6093e-05
1.60941e-05
1.60951e-05
1.60962e-05
1.60972e-05
1.60981e-05
1.6099e-05
1.60998e-05
1.61006e-05
1.61014e-05
1.61021e-05
1.61027e-05
1.61034e-05
1.6104e-05
1.61045e-05
1.61051e-05
1.61056e-05
1.61061e-05
1.61066e-05
1.61071e-05
1.61076e-05
1.61081e-05
1.61086e-05
1.61091e-05
1.61095e-05
1.611e-05
1.61105e-05
1.6111e-05
1.61115e-05
1.6112e-05
1.61126e-05
1.61131e-05
1.61136e-05
1.61141e-05
1.61147e-05
1.61152e-05
1.61157e-05
1.61163e-05
1.60883e-05
1.60898e-05
1.60911e-05
1.60923e-05
1.60934e-05
1.60946e-05
1.60956e-05
1.60967e-05
1.60977e-05
1.60987e-05
1.60996e-05
1.61005e-05
1.61013e-05
1.61021e-05
1.61029e-05
1.61036e-05
1.61043e-05
1.61049e-05
1.61055e-05
1.61061e-05
1.61067e-05
1.61073e-05
1.61079e-05
1.61084e-05
1.6109e-05
1.61095e-05
1.611e-05
1.61105e-05
1.61111e-05
1.61116e-05
1.61121e-05
1.61126e-05
1.61132e-05
1.61137e-05
1.61142e-05
1.61147e-05
1.61152e-05
1.61157e-05
1.61163e-05
1.61167e-05
1.61173e-05
1.60874e-05
1.60889e-05
1.60902e-05
1.60914e-05
1.60926e-05
1.60937e-05
1.60949e-05
1.6096e-05
1.60971e-05
1.60981e-05
1.60991e-05
1.61001e-05
1.6101e-05
1.61019e-05
1.61027e-05
1.61035e-05
1.61043e-05
1.6105e-05
1.61057e-05
1.61064e-05
1.61071e-05
1.61077e-05
1.61084e-05
1.6109e-05
1.61096e-05
1.61101e-05
1.61107e-05
1.61113e-05
1.61118e-05
1.61124e-05
1.61129e-05
1.61134e-05
1.6114e-05
1.61145e-05
1.6115e-05
1.61155e-05
1.6116e-05
1.61165e-05
1.6117e-05
1.61174e-05
1.61179e-05
1.60864e-05
1.60878e-05
1.60891e-05
1.60903e-05
1.60915e-05
1.60927e-05
1.60938e-05
1.6095e-05
1.60961e-05
1.60972e-05
1.60983e-05
1.60993e-05
1.61003e-05
1.61013e-05
1.61022e-05
1.61031e-05
1.6104e-05
1.61048e-05
1.61056e-05
1.61063e-05
1.61071e-05
1.61078e-05
1.61085e-05
1.61092e-05
1.61098e-05
1.61104e-05
1.6111e-05
1.61116e-05
1.61122e-05
1.61128e-05
1.61133e-05
1.61139e-05
1.61144e-05
1.61149e-05
1.61154e-05
1.61159e-05
1.61164e-05
1.61169e-05
1.61173e-05
1.61177e-05
1.61182e-05
1.60852e-05
1.60865e-05
1.60878e-05
1.60889e-05
1.60901e-05
1.60913e-05
1.60925e-05
1.60936e-05
1.60948e-05
1.60959e-05
1.60971e-05
1.60982e-05
1.60992e-05
1.61003e-05
1.61013e-05
1.61023e-05
1.61032e-05
1.61041e-05
1.6105e-05
1.61058e-05
1.61066e-05
1.61074e-05
1.61082e-05
1.61089e-05
1.61096e-05
1.61103e-05
1.61109e-05
1.61115e-05
1.61122e-05
1.61127e-05
1.61133e-05
1.61139e-05
1.61144e-05
1.61149e-05
1.61154e-05
1.61159e-05
1.61164e-05
1.61168e-05
1.61173e-05
1.61176e-05
1.61181e-05
1.60838e-05
1.6085e-05
1.60862e-05
1.60873e-05
1.60884e-05
1.60895e-05
1.60907e-05
1.60919e-05
1.6093e-05
1.60942e-05
1.60954e-05
1.60966e-05
1.60977e-05
1.60988e-05
1.60999e-05
1.6101e-05
1.6102e-05
1.6103e-05
1.61039e-05
1.61048e-05
1.61057e-05
1.61066e-05
1.61074e-05
1.61082e-05
1.61089e-05
1.61096e-05
1.61103e-05
1.6111e-05
1.61116e-05
1.61122e-05
1.61128e-05
1.61134e-05
1.61139e-05
1.61144e-05
1.61149e-05
1.61154e-05
1.61158e-05
1.61162e-05
1.61166e-05
1.6117e-05
1.61174e-05
1.60821e-05
1.60832e-05
1.60843e-05
1.60853e-05
1.60863e-05
1.60874e-05
1.60885e-05
1.60897e-05
1.60908e-05
1.6092e-05
1.60932e-05
1.60945e-05
1.60957e-05
1.60968e-05
1.6098e-05
1.60991e-05
1.61002e-05
1.61013e-05
1.61023e-05
1.61033e-05
1.61042e-05
1.61052e-05
1.6106e-05
1.61069e-05
1.61077e-05
1.61084e-05
1.61091e-05
1.61098e-05
1.61105e-05
1.61111e-05
1.61117e-05
1.61123e-05
1.61128e-05
1.61134e-05
1.61138e-05
1.61143e-05
1.61147e-05
1.61151e-05
1.61155e-05
1.61159e-05
1.61162e-05
1.60802e-05
1.60812e-05
1.60821e-05
1.6083e-05
1.60839e-05
1.60849e-05
1.60859e-05
1.6087e-05
1.60882e-05
1.60894e-05
1.60906e-05
1.60918e-05
1.6093e-05
1.60943e-05
1.60955e-05
1.60967e-05
1.60978e-05
1.60989e-05
1.61e-05
1.61011e-05
1.61021e-05
1.61031e-05
1.61041e-05
1.61049e-05
1.61058e-05
1.61066e-05
1.61074e-05
1.61081e-05
1.61088e-05
1.61095e-05
1.61101e-05
1.61107e-05
1.61112e-05
1.61117e-05
1.61122e-05
1.61126e-05
1.61131e-05
1.61134e-05
1.61138e-05
1.61141e-05
1.61144e-05
1.6078e-05
1.60788e-05
1.60795e-05
1.60803e-05
1.60811e-05
1.60819e-05
1.60829e-05
1.60839e-05
1.6085e-05
1.60861e-05
1.60873e-05
1.60885e-05
1.60897e-05
1.6091e-05
1.60922e-05
1.60934e-05
1.60946e-05
1.60958e-05
1.6097e-05
1.60981e-05
1.60992e-05
1.61002e-05
1.61012e-05
1.61021e-05
1.6103e-05
1.61038e-05
1.61046e-05
1.61054e-05
1.61061e-05
1.61068e-05
1.61074e-05
1.6108e-05
1.61086e-05
1.61091e-05
1.61096e-05
1.611e-05
1.61105e-05
1.61108e-05
1.61112e-05
1.61115e-05
1.61118e-05
1.60754e-05
1.6076e-05
1.60766e-05
1.60772e-05
1.60778e-05
1.60785e-05
1.60794e-05
1.60802e-05
1.60812e-05
1.60822e-05
1.60833e-05
1.60844e-05
1.60856e-05
1.60868e-05
1.6088e-05
1.60892e-05
1.60904e-05
1.60916e-05
1.60928e-05
1.60939e-05
1.60951e-05
1.60962e-05
1.60973e-05
1.60983e-05
1.60992e-05
1.61002e-05
1.6101e-05
1.61019e-05
1.61026e-05
1.61034e-05
1.61041e-05
1.61047e-05
1.61053e-05
1.61058e-05
1.61063e-05
1.61068e-05
1.61072e-05
1.61076e-05
1.61079e-05
1.61082e-05
1.61085e-05
1.60726e-05
1.60729e-05
1.60733e-05
1.60737e-05
1.60741e-05
1.60747e-05
1.60753e-05
1.60759e-05
1.60767e-05
1.60775e-05
1.60783e-05
1.60793e-05
1.60803e-05
1.60814e-05
1.60826e-05
1.60838e-05
1.60851e-05
1.60863e-05
1.60875e-05
1.60887e-05
1.60899e-05
1.6091e-05
1.60921e-05
1.60931e-05
1.60941e-05
1.6095e-05
1.60959e-05
1.60967e-05
1.60975e-05
1.60982e-05
1.60989e-05
1.60996e-05
1.61002e-05
1.61007e-05
1.61012e-05
1.61017e-05
1.61021e-05
1.61025e-05
1.61029e-05
1.61032e-05
1.61035e-05
1.60693e-05
1.60694e-05
1.60696e-05
1.60697e-05
1.60699e-05
1.60702e-05
1.60704e-05
1.60707e-05
1.60711e-05
1.60714e-05
1.60719e-05
1.60723e-05
1.60728e-05
1.60734e-05
1.60739e-05
1.60746e-05
1.60753e-05
1.60759e-05
1.60766e-05
1.60773e-05
1.6078e-05
1.60787e-05
1.60795e-05
1.60802e-05
1.6081e-05
1.60817e-05
1.60824e-05
1.60832e-05
1.60838e-05
1.60845e-05
1.60851e-05
1.60857e-05
1.60863e-05
1.60868e-05
1.60873e-05
1.60878e-05
1.60882e-05
1.60886e-05
1.60889e-05
1.60892e-05
1.60895e-05
0.00391885
0.00593163
0.00699813
0.00877995
0.0124256
0.0167099
0.0196761
0.0204032
0.018964
0.0158024
0.0113925
0.00616715
0.00152497
1.85653e-05
1e-05
1.00725e-05
1.5376e-05
1.67025e-05
1.62342e-05
1.61463e-05
1.6154e-05
1.61492e-05
1.61398e-05
1.61343e-05
1.61324e-05
1.61318e-05
1.61314e-05
1.61309e-05
1.61305e-05
1.613e-05
1.6129e-05
1.61273e-05
1.61247e-05
1.61212e-05
1.61172e-05
1.61136e-05
1.61118e-05
1.61116e-05
1.61123e-05
1.61137e-05
1.61155e-05
1.61174e-05
1.61193e-05
1.61209e-05
1.61223e-05
1.61233e-05
1.6124e-05
1.61243e-05
1.61242e-05
1.61238e-05
1.61231e-05
1.61222e-05
1.61212e-05
1.61199e-05
1.61184e-05
1.61166e-05
1.61146e-05
1.61122e-05
1.61096e-05
1.61066e-05
1.61032e-05
1.60995e-05
1.60954e-05
1.60908e-05
1.60861e-05
1.6082e-05
1.60796e-05
1.60802e-05
1.60839e-05
1.60894e-05
1.60958e-05
1.6103e-05
1.6109e-05
1.61207e-05
0.00687258
0.00989932
0.0114114
0.0132578
0.0166943
0.0207867
0.023722
0.0245518
0.0232586
0.0202221
0.0159037
0.0106541
0.00483281
0.000800663
9.71196e-05
1.00005e-05
1.12183e-05
1.63845e-05
1.64172e-05
1.61369e-05
1.61378e-05
1.61363e-05
1.61347e-05
1.61384e-05
1.61379e-05
1.61341e-05
1.61313e-05
1.61305e-05
1.61306e-05
1.61303e-05
1.61291e-05
1.61271e-05
1.61241e-05
1.61203e-05
1.61163e-05
1.61131e-05
1.6112e-05
1.61124e-05
1.61138e-05
1.61157e-05
1.6118e-05
1.61203e-05
1.61225e-05
1.61244e-05
1.6126e-05
1.61272e-05
1.6128e-05
1.61283e-05
1.61283e-05
1.61279e-05
1.61271e-05
1.61262e-05
1.61249e-05
1.61235e-05
1.61218e-05
1.61197e-05
1.61174e-05
1.61148e-05
1.61118e-05
1.61084e-05
1.61047e-05
1.61007e-05
1.60962e-05
1.60912e-05
1.60862e-05
1.6082e-05
1.60796e-05
1.60804e-05
1.60841e-05
1.60896e-05
1.6096e-05
1.61031e-05
1.6109e-05
1.61204e-05
0.00975341
0.0140727
0.0162232
0.0181791
0.0213729
0.0252314
0.0281686
0.0292009
0.0281831
0.0253926
0.021239
0.0160873
0.0100415
0.00384021
0.000443422
3.77031e-05
1.00071e-05
1.25511e-05
1.72599e-05
1.63612e-05
1.60735e-05
1.61599e-05
1.61486e-05
1.61175e-05
1.61219e-05
1.61352e-05
1.6138e-05
1.6134e-05
1.61306e-05
1.61293e-05
1.61286e-05
1.61268e-05
1.61236e-05
1.61195e-05
1.61156e-05
1.61128e-05
1.61123e-05
1.61134e-05
1.61154e-05
1.61178e-05
1.61205e-05
1.61232e-05
1.61258e-05
1.6128e-05
1.61298e-05
1.61312e-05
1.61321e-05
1.61325e-05
1.61324e-05
1.6132e-05
1.61312e-05
1.61302e-05
1.61288e-05
1.61271e-05
1.61252e-05
1.61229e-05
1.61203e-05
1.61173e-05
1.6114e-05
1.61103e-05
1.61062e-05
1.61018e-05
1.6097e-05
1.60917e-05
1.60864e-05
1.6082e-05
1.60798e-05
1.60807e-05
1.60844e-05
1.60898e-05
1.60961e-05
1.61031e-05
1.6109e-05
1.61201e-05
0.0126174
0.0184366
0.0213919
0.0235824
0.026586
0.0301915
0.0331159
0.0343851
0.0337197
0.0312702
0.0273615
0.0223449
0.0163979
0.00957082
0.00327312
0.000259646
3.14697e-05
1.00137e-05
1.21434e-05
1.72497e-05
1.65653e-05
1.60218e-05
1.61393e-05
1.62018e-05
1.6149e-05
1.61094e-05
1.61143e-05
1.61307e-05
1.61364e-05
1.61333e-05
1.61288e-05
1.61255e-05
1.61225e-05
1.6119e-05
1.61153e-05
1.61128e-05
1.61127e-05
1.61144e-05
1.61169e-05
1.61199e-05
1.61231e-05
1.61262e-05
1.61291e-05
1.61316e-05
1.61337e-05
1.61352e-05
1.61362e-05
1.61367e-05
1.61367e-05
1.61362e-05
1.61354e-05
1.61342e-05
1.61326e-05
1.61308e-05
1.61286e-05
1.6126e-05
1.61231e-05
1.61198e-05
1.61161e-05
1.61121e-05
1.61077e-05
1.61029e-05
1.60977e-05
1.60922e-05
1.60867e-05
1.60822e-05
1.608e-05
1.6081e-05
1.60847e-05
1.609e-05
1.60962e-05
1.61031e-05
1.61089e-05
1.61196e-05
0.0156209
0.0230258
0.0268672
0.0294327
0.0323571
0.0357349
0.0386222
0.0401215
0.0398474
0.0378168
0.0342505
0.0294458
0.0236463
0.0169022
0.00944715
0.00303113
0.000257527
4.21373e-05
1.00108e-05
1.11701e-05
1.69757e-05
1.67919e-05
1.58934e-05
1.59536e-05
1.61825e-05
1.62298e-05
1.61636e-05
1.61111e-05
1.61077e-05
1.61235e-05
1.61317e-05
1.61294e-05
1.61233e-05
1.6118e-05
1.61146e-05
1.61129e-05
1.61132e-05
1.61153e-05
1.61184e-05
1.61219e-05
1.61256e-05
1.61291e-05
1.61324e-05
1.61352e-05
1.61375e-05
1.61392e-05
1.61403e-05
1.61409e-05
1.61409e-05
1.61404e-05
1.61395e-05
1.61382e-05
1.61365e-05
1.61344e-05
1.6132e-05
1.61291e-05
1.61259e-05
1.61223e-05
1.61183e-05
1.61139e-05
1.61091e-05
1.6104e-05
1.60985e-05
1.60927e-05
1.60871e-05
1.60826e-05
1.60804e-05
1.60814e-05
1.6085e-05
1.60902e-05
1.60962e-05
1.6103e-05
1.61086e-05
1.6119e-05
0.0190327
0.0278388
0.0325652
0.0356412
0.0386332
0.0418569
0.0446993
0.0464028
0.0465285
0.0449753
0.0418536
0.0373809
0.0317971
0.0252555
0.0177845
0.0098014
0.00328736
0.000306494
9.32052e-05
1.00049e-05
1.01917e-05
1.6141e-05
1.82669e-05
1.6283e-05
1.56473e-05
1.58752e-05
1.61683e-05
1.62535e-05
1.61908e-05
1.61214e-05
1.61029e-05
1.61135e-05
1.61227e-05
1.6122e-05
1.61167e-05
1.61132e-05
1.61132e-05
1.61159e-05
1.61197e-05
1.61238e-05
1.61279e-05
1.61319e-05
1.61355e-05
1.61387e-05
1.61412e-05
1.61432e-05
1.61444e-05
1.61451e-05
1.61451e-05
1.61446e-05
1.61436e-05
1.61422e-05
1.61403e-05
1.6138e-05
1.61353e-05
1.61322e-05
1.61287e-05
1.61247e-05
1.61204e-05
1.61156e-05
1.61105e-05
1.61051e-05
1.60993e-05
1.60933e-05
1.60876e-05
1.60831e-05
1.60809e-05
1.60819e-05
1.60854e-05
1.60904e-05
1.60962e-05
1.61027e-05
1.61083e-05
1.61182e-05
0.0232355
0.0328243
0.0383755
0.0420713
0.0452868
0.0484695
0.0512923
0.0531771
0.0536924
0.052654
0.0500702
0.0460682
0.040836
0.0345598
0.0273459
0.0192603
0.0108491
0.00399646
0.000502286
0.000232234
1.00795e-05
1.00304e-05
1.19744e-05
1.90948e-05
1.86839e-05
1.63442e-05
1.55913e-05
1.57529e-05
1.61015e-05
1.62654e-05
1.62294e-05
1.61454e-05
1.61043e-05
1.61036e-05
1.6113e-05
1.6117e-05
1.61166e-05
1.6117e-05
1.61201e-05
1.61249e-05
1.61299e-05
1.61344e-05
1.61384e-05
1.61419e-05
1.61448e-05
1.6147e-05
1.61484e-05
1.61492e-05
1.61493e-05
1.61488e-05
1.61477e-05
1.61462e-05
1.61441e-05
1.61416e-05
1.61387e-05
1.61353e-05
1.61314e-05
1.61272e-05
1.61225e-05
1.61174e-05
1.6112e-05
1.61062e-05
1.61002e-05
1.6094e-05
1.60882e-05
1.60837e-05
1.60816e-05
1.60825e-05
1.60858e-05
1.60906e-05
1.60962e-05
1.61024e-05
1.61078e-05
1.61173e-05
0.0282525
0.0378828
0.0441674
0.0485376
0.0521144
0.0553902
0.0582562
0.060321
0.0612126
0.0607089
0.0587388
0.0553429
0.0506357
0.0447724
0.0379039
0.0301295
0.0215588
0.0128126
0.00542188
0.00110684
2.25796e-05
1.49894e-05
1.00058e-05
1.00043e-05
1.28949e-05
1.88865e-05
1.85651e-05
1.65809e-05
1.55738e-05
1.55444e-05
1.59192e-05
1.61931e-05
1.62332e-05
1.61648e-05
1.61105e-05
1.60993e-05
1.61096e-05
1.61196e-05
1.61242e-05
1.61269e-05