/*--------------------------------*- C++ -*----------------------------------*\
| =========                 |                                                 |
| \\      /  F ield         | OpenFOAM: The Open Source CFD Toolbox           |
|  \\    /   O peration     | Version:  2312                                  |
|   \\  /    A nd           | Website:  www.openfoam.com                      |
|    \\/     M anipulation  |                                                 |
\*---------------------------------------------------------------------------*/
FoamFile
{
    version     2.0;
    format      ascii;
    arch        "LSB;label=32;scalar=64";
    class       volScalarField;
    location    "450";
    object      turbulenceProperties:k;
}
// * * * * * * * * * * * * * * * * * * * * * * * * * * * * * * * * * * * * * //

dimensions      [0 2 -2 0 0 0 0];

internalField   nonuniform List<scalar> 
11040
(
0.420868
0.438791
0.0623193
0.0588881
0.324713
0.319476
0.307196
0.28526
0.263816
0.251088
0.23937
0.22972
0.222088
0.216669
0.213171
0.212707
0.215611
0.221967
0.231127
0.243011
0.257931
0.27541
0.295537
0.318877
0.345449
0.37629
0.411532
0.447085
0.4799
0.50691
0.524436
0.528571
0.516314
0.487371
0.443828
0.397019
0.316621
0.158777
0.0848579
0.0694828
0.237569
0.0351041
0.0730623
0.247251
0.467117
0.852025
0.255586
0.0819796
0.0277841
0.00721528
0.00623607
0.014734
0.0196996
0.0231734
0.0257576
0.0277693
0.029562
0.0314388
0.0335354
0.0356577
0.037822
0.040089
0.0427156
0.0450415
0.0462304
0.0459792
0.0448273
0.043689
0.0414008
0.0377216
0.0329383
0.0281174
0.0252084
0.0258495
0.0288602
0.0362996
0.0491385
0.0676393
0.0939141
0.144892
0.187697
0.61643
0.0215024
0.018973
0.0452116
0.200425
1.03964
1.35717
0.664191
0.251988
0.122891
0.0778487
0.0472831
0.0300627
0.0181966
0.0102275
0.00609369
0.00481222
0.00566309
0.00694166
0.00802054
0.00879024
0.00929497
0.00961506
0.00953199
0.00919065
0.00932793
0.0104162
0.0121891
0.0140008
0.0151738
0.015368
0.0158715
0.0205826
0.0320447
0.049412
0.07389
0.107049
0.150022
0.209472
0.322493
0.464879
0.657335
0.0153358
0.013303
0.0106037
0.0183239
0.256167
1.21736
1.77942
1.15587
0.475978
0.262686
0.163832
0.116328
0.0872548
0.0666313
0.0540997
0.044997
0.0395276
0.035955
0.0340912
0.0335033
0.0338073
0.0349662
0.0372567
0.0406785
0.0445657
0.0483849
0.0516339
0.0538027
0.0544665
0.0537051
0.0527392
0.0546908
0.0642629
0.0859344
0.123234
0.178015
0.251028
0.350878
0.528129
0.780937
0.742616
0.0114615
0.0103929
0.0110669
0.0052753
0.00827669
0.226992
1.15951
2.02952
1.72744
0.848281
0.456561
0.28384
0.206389
0.155508
0.126932
0.105875
0.0933659
0.0851315
0.080592
0.0786343
0.0781777
0.0787862
0.0806842
0.0839716
0.087908
0.0919015
0.0953084
0.0974288
0.0976183
0.0957127
0.0926044
0.0916145
0.0999916
0.127224
0.179851
0.259816
0.36701
0.508983
0.739632
1.10344
0.947332
0.00826956
0.00763329
0.00746311
0.00811388
0.00240907
0.00212959
0.151333
0.918183
2.0672
2.24082
1.44791
0.733013
0.463506
0.321004
0.248054
0.198887
0.169827
0.150782
0.139509
0.133779
0.131225
0.130691
0.132118
0.135523
0.139984
0.144742
0.148945
0.151507
0.151223
0.147314
0.140093
0.133109
0.136609
0.16683
0.235136
0.342804
0.487388
0.671664
0.94002
1.37349
1.20958
0.00598444
0.00573194
0.00541071
0.00576815
0.00580552
0.00109417
7.83654e-05
0.0691943
0.601288
1.78789
2.52575
2.14926
1.25453
0.711851
0.485211
0.364679
0.294194
0.249198
0.221608
0.206318
0.198456
0.195356
0.196093
0.200092
0.205966
0.212527
0.218543
0.222317
0.221809
0.215299
0.202007
0.184722
0.175391
0.199317
0.278321
0.412571
0.594137
0.817089
1.10846
1.55668
1.43584
0.00436904
0.00428305
0.0042281
0.00408716
0.00440829
0.00447482
0.00022274
5.87897e-06
0.0202919
0.310787
1.25231
2.4303
2.69728
2.01096
1.16538
0.727202
0.524356
0.416191
0.349781
0.310117
0.287901
0.278444
0.277275
0.282378
0.290976
0.300729
0.309984
0.316461
0.31681
0.308001
0.287425
0.255565
0.222176
0.219555
0.293042
0.446561
0.659751
0.91323
1.21383
1.62586
1.55473
0.00323101
0.00319242
0.00320733
0.00318753
0.00308557
0.00345324
0.00321251
0.000502868
0.000432091
0.000634041
0.109601
0.680926
1.85966
2.81759
2.73661
1.9304
1.15916
0.770751
0.582992
0.482301
0.423864
0.395589
0.385739
0.388485
0.399601
0.414363
0.429157
0.440088
0.443226
0.433869
0.406955
0.359277
0.293597
0.234591
0.259739
0.413293
0.647864
0.920586
1.21652
1.55723
1.52359
0.00240208
0.00238531
0.00240879
0.00244143
0.00242769
0.00237219
0.00262888
0.00232725
0.000849483
0.000103865
0.00168527
0.0248424
0.2729
1.08382
2.3186
3.04071
2.76552
1.94181
1.22092
0.846306
0.668696
0.58438
0.546038
0.535256
0.542801
0.560442
0.58255
0.602363
0.612771
0.606218
0.575697
0.51545
0.421118
0.29554
0.186185
0.274984
0.519866
0.802655
1.08343
1.34216
1.32369
0.00179315
0.00178607
0.00180815
0.00184187
0.00187232
0.00186248
0.00184844
0.00194903
0.00192048
0.00102708
6.93144e-05
0.00037403
8.75291e-05
0.0660682
0.453183
1.40899
2.60976
3.18713
2.84921
2.05376
1.35604
0.987261
0.829695
0.766509
0.749015
0.756485
0.778894
0.805431
0.826345
0.831212
0.809322
0.750578
0.645856
0.489485
0.281184
0.0280358
0.263191
0.555331
0.815383
1.00286
0.978109
0.00134093
0.00133866
0.0013546
0.00138385
0.00141524
0.00144057
0.00144187
0.00143505
0.00146587
0.00153904
0.00107766
6.39573e-05
1.8382e-05
0.00124507
0.00572085
0.114477
0.586053
1.59072
2.74908
3.30135
3.00951
2.31192
1.68716
1.30554
1.12424
1.06122
1.05902
1.07937
1.10383
1.11847
1.11042
1.06877
0.984144
0.850739
0.673891
0.482058
0.370571
0.450469
0.614474
0.725376
0.660969
0.00100303
0.00100317
0.00101404
0.00103619
0.00106368
0.00109047
0.00111204
0.00112193
0.00111665
0.00112952
0.00118474
0.00102687
0.000306757
3.02516e-05
9.1216e-05
0.00209076
0.0129981
0.143963
0.633035
1.61337
2.75291
3.38689
3.32281
2.87446
2.35876
1.94371
1.67969
1.54715
1.50584
1.50947
1.51796
1.50615
1.46149
1.37934
1.26689
1.14741
1.0575
1.02677
1.05191
1.07716
0.97176
0.000749421
0.000750762
0.000757945
0.000773889
0.000795761
0.000819363
0.00084177
0.000861134
0.000873791
0.000874818
0.000879374
0.000925817
0.000875931
0.000590449
1.06106e-05
4.76154e-06
0.000254198
0.00255446
0.0151764
0.139139
0.582556
1.43421
2.45129
3.24706
3.60177
3.56548
3.31473
2.99855
2.70201
2.46165
2.28638
2.1715
2.10167
2.0564
2.02016
1.99115
1.97754
1.98031
2.00072
2.02941
1.93773
0.000558504
0.000560356
0.000565069
0.000576356
0.000592891
0.000611966
0.000631737
0.000650699
0.00066788
0.000681267
0.000686522
0.000692429
0.000708907
0.000725596
0.000625839
0.000220329
2.3495e-05
9.81414e-07
0.000372204
0.00247056
0.0108885
0.0948184
0.37029
0.918237
1.69892
2.54635
3.26948
3.76111
4.01646
4.08671
4.02906
3.89168
3.71243
3.52001
3.34248
3.20433
3.12319
3.0992
3.12966
3.20785
3.16668
0.000414683
0.00041656
0.000419653
0.000427552
0.000439759
0.000454413
0.000470342
0.000486768
0.000502828
0.000517755
0.000530383
0.000538763
0.000544742
0.000551901
0.000578017
0.000550687
0.00044581
8.14078e-05
1.22484e-05
4.50683e-07
0.000313161
0.00190343
0.00147258
0.0246356
0.120762
0.352069
0.757302
1.3286
2.00953
2.71847
3.38271
3.95544
4.41306
4.74453
4.95142
5.0517
5.08135
5.06888
5.03804
5.02868
4.91439
0.000307278
0.000308901
0.000310972
0.000316523
0.000325416
0.000336349
0.000348577
0.000361672
0.000375118
0.000388384
0.000400935
0.000412176
0.0004215
0.000427616
0.000435299
0.000445551
0.000461409
0.000422002
0.000323405
3.96666e-05
7.99552e-06
5.63246e-07
2.55456e-05
0.000632168
0.00180731
0.00041372
0.00995349
0.0508415
0.151091
0.337773
0.628412
1.02657
1.51979
2.08543
2.69415
3.31278
3.91492
4.48048
4.98784
5.45576
5.76904
0.000229747
0.000231115
0.000232633
0.000236718
0.000243343
0.000251589
0.000260938
0.000271152
0.000281912
0.000292845
0.000303649
0.000313991
0.000323639
0.000332159
0.000339095
0.000345108
0.000352525
0.00036346
0.000374145
0.000335986
0.000243197
5.12976e-05
7.87134e-06
1.39553e-06
3.8838e-08
5.93439e-06
0.000231495
0.00115852
0.00159333
0.00228184
0.00269582
0.0173783
0.0542663
0.126671
0.247462
0.427496
0.671989
0.985618
1.36367
1.81037
2.28798
0.000174929
0.000176103
0.000177287
0.000180403
0.000185468
0.000191809
0.000199084
0.000207136
0.000215784
0.000224735
0.000233776
0.000242691
0.000251275
0.000259386
0.000266822
0.000273445
0.000278964
0.00028463
0.00029181
0.000302441
0.000306861
0.000280766
0.000221691
0.000133485
4.16736e-06
2.68854e-06
9.78277e-07
1.86545e-07
0
0
4.78163e-05
0.000482856
0.00118773
0.00140852
0.00066151
0.000196153
0.00190455
0.00999171
0.029685
0.0664271
0.12738
0.000135635
0.000136603
0.000137535
0.000139952
0.000143872
0.000148799
0.000154493
0.000160846
0.000167745
0.000175009
0.000182449
0.000189956
0.000197364
0.000204533
0.000211357
0.000217766
0.000223629
0.000228907
0.000233495
0.000238862
0.000245458
0.000253945
0.000257666
0.000254227
0.00022113
0.000170368
0.000106969
2.20558e-05
4.07338e-06
1.02075e-06
6.50405e-07
3.13622e-07
2.25476e-08
0
0
3.71346e-06
2.61226e-05
0.000217688
0.000682094
0.00115156
0.00147859
0.000106593
0.000107369
0.000108109
0.000110009
0.000113074
0.000116942
0.000121432
0.000126474
0.000131969
0.000137818
0.000143868
0.000150051
0.000156261
0.000162385
0.000168332
0.000174039
0.000179444
0.000184512
0.000189143
0.000193404
0.000197336
0.000201836
0.000207247
0.000213127
0.00022041
0.000222127
0.000217056
0.000199134
0.000168013
0.00013109
8.71402e-05
4.45566e-05
3.45217e-06
1.6453e-06
6.86571e-07
5.17981e-07
3.64672e-07
2.16927e-07
9.54342e-08
3.73369e-09
0
8.46751e-05
8.52894e-05
8.58889e-05
8.73993e-05
8.98213e-05
9.28804e-05
9.64471e-05
0.000100466
0.000104861
0.000109558
0.000114461
0.000119495
0.000124605
0.000129702
0.000134714
0.000139593
0.000144288
0.000148764
0.000152983
0.000156961
0.000160588
0.00016388
0.000167085
0.000170219
0.000174064
0.000178543
0.000183206
0.000188113
0.000191088
0.000190818
0.000186116
0.000177535
0.000161709
0.000140123
0.00011485
9.04295e-05
6.71206e-05
4.17271e-05
1.96572e-05
8.23273e-07
7.75655e-07
6.78415e-05
6.83242e-05
6.88168e-05
7.0026e-05
7.19533e-05
7.43873e-05
7.7236e-05
8.04501e-05
8.39745e-05
8.77446e-05
9.17044e-05
9.57825e-05
9.99482e-05
0.000104131
0.000108276
0.000112337
0.000116285
0.000120082
0.000123695
0.00012714
0.000130334
0.000133254
0.000135947
0.000138331
0.000140477
0.00014257
0.000144742
0.0001472
0.000150001
0.000153024
0.00015605
0.000158793
0.000161575
0.000163044
0.000162762
0.000160683
0.00015705
0.000151176
0.000143457
0.000131729
0.000118525
5.47344e-05
5.51137e-05
5.55223e-05
5.64975e-05
5.80395e-05
5.99868e-05
6.22718e-05
6.48516e-05
6.76849e-05
7.07138e-05
7.39052e-05
7.72016e-05
8.05726e-05
8.39729e-05
8.73545e-05
9.06793e-05
9.39241e-05
9.70594e-05
0.000100056
0.000102923
0.000105582
0.000108018
0.000110275
0.000112275
0.000114026
0.00011556
0.000116906
0.000118092
0.000119174
0.000120213
0.000121274
0.000122368
0.000123572
0.000124884
0.000126252
0.00012757
0.000128807
0.000129967
0.000130975
0.000131867
0.000132644
4.4412e-05
4.47105e-05
4.50511e-05
4.58428e-05
4.70819e-05
4.86477e-05
5.0486e-05
5.25629e-05
5.48427e-05
5.72803e-05
5.98477e-05
6.25072e-05
6.52224e-05
6.79684e-05
7.07031e-05
7.3395e-05
7.60222e-05
7.85644e-05
8.09931e-05
8.33194e-05
8.5464e-05
8.74174e-05
8.92221e-05
9.08082e-05
9.21864e-05
9.33795e-05
9.44002e-05
9.52495e-05
9.5935e-05
9.64631e-05
9.68506e-05
9.71108e-05
9.72626e-05
9.73299e-05
9.73383e-05
9.72965e-05
9.72333e-05
9.71727e-05
9.7096e-05
9.7021e-05
9.69098e-05
3.62063e-05
3.64427e-05
3.67284e-05
3.73745e-05
3.83744e-05
3.96393e-05
4.11227e-05
4.27994e-05
4.46357e-05
4.66e-05
4.86629e-05
5.08035e-05
5.29851e-05
5.51912e-05
5.73876e-05
5.95491e-05
6.16529e-05
6.36864e-05
6.56228e-05
6.74736e-05
6.91646e-05
7.069e-05
7.20911e-05
7.33077e-05
7.43443e-05
7.52218e-05
7.59506e-05
7.65356e-05
7.69833e-05
7.73e-05
7.74918e-05
7.75634e-05
7.7522e-05
7.73745e-05
7.7127e-05
7.67786e-05
7.63523e-05
7.58562e-05
7.52657e-05
7.46385e-05
7.37499e-05
2.96331e-05
2.98198e-05
3.00623e-05
3.05922e-05
3.14028e-05
3.24276e-05
3.36285e-05
3.49845e-05
3.64666e-05
3.80502e-05
3.97079e-05
4.14274e-05
4.31774e-05
4.49412e-05
4.66959e-05
4.84185e-05
5.00896e-05
5.16987e-05
5.32239e-05
5.46748e-05
5.59857e-05
5.71529e-05
5.82173e-05
5.91284e-05
5.9887e-05
6.05094e-05
6.10044e-05
6.1378e-05
6.16339e-05
6.17799e-05
6.18226e-05
6.17676e-05
6.16226e-05
6.13954e-05
6.10891e-05
6.07029e-05
6.02562e-05
5.97569e-05
5.91667e-05
5.85792e-05
5.76087e-05
2.43313e-05
2.44804e-05
2.4689e-05
2.51252e-05
2.57854e-05
2.66183e-05
2.7594e-05
2.86924e-05
2.98906e-05
3.11674e-05
3.25006e-05
3.38799e-05
3.52815e-05
3.66855e-05
3.80801e-05
3.94442e-05
4.07617e-05
4.20224e-05
4.32104e-05
4.43328e-05
4.53326e-05
4.62078e-05
4.69985e-05
4.76628e-05
4.82e-05
4.86243e-05
4.89414e-05
4.91568e-05
4.92741e-05
4.93004e-05
4.92407e-05
4.91011e-05
4.88887e-05
4.86106e-05
4.82695e-05
4.78656e-05
4.74166e-05
4.6932e-05
4.63655e-05
4.58509e-05
4.48392e-05
2.00309e-05
2.01514e-05
2.03331e-05
2.06946e-05
2.12353e-05
2.1915e-05
2.27103e-05
2.36017e-05
2.4572e-05
2.56016e-05
2.66743e-05
2.77784e-05
2.88987e-05
3.0014e-05
3.11179e-05
3.21924e-05
3.3225e-05
3.42054e-05
3.51216e-05
3.59792e-05
3.67305e-05
3.73734e-05
3.79477e-05
3.8418e-05
3.87838e-05
3.90559e-05
3.92414e-05
3.93435e-05
3.93663e-05
3.93146e-05
3.91939e-05
3.90084e-05
3.87651e-05
3.84687e-05
3.81217e-05
3.7724e-05
3.72914e-05
3.68339e-05
3.62997e-05
3.58559e-05
3.48191e-05
1.65251e-05
1.66259e-05
1.67858e-05
1.70882e-05
1.75338e-05
1.80911e-05
1.87412e-05
1.94666e-05
2.02531e-05
2.10841e-05
2.19468e-05
2.28297e-05
2.37226e-05
2.46075e-05
2.54774e-05
2.63202e-05
2.71246e-05
2.78818e-05
2.85825e-05
2.92315e-05
2.97881e-05
3.02518e-05
3.06594e-05
3.09822e-05
3.122e-05
3.13806e-05
3.14707e-05
3.14932e-05
3.1452e-05
3.13506e-05
3.11938e-05
3.09849e-05
3.07304e-05
3.04343e-05
3.00988e-05
2.97236e-05
2.93222e-05
2.89052e-05
2.84169e-05
2.80479e-05
2.70189e-05
1.36565e-05
1.37427e-05
1.38856e-05
1.41419e-05
1.45109e-05
1.49704e-05
1.55035e-05
1.60958e-05
1.67341e-05
1.74057e-05
1.8099e-05
1.88048e-05
1.95151e-05
2.02154e-05
2.08974e-05
2.15545e-05
2.21766e-05
2.2757e-05
2.32877e-05
2.37736e-05
2.41799e-05
2.45068e-05
2.47882e-05
2.50006e-05
2.51439e-05
2.52246e-05
2.52482e-05
2.52169e-05
2.51344e-05
2.50038e-05
2.48294e-05
2.4614e-05
2.43634e-05
2.40806e-05
2.37676e-05
2.34239e-05
2.30604e-05
2.26883e-05
2.22502e-05
2.19513e-05
2.09518e-05
1.13007e-05
1.1377e-05
1.15067e-05
1.17263e-05
1.20346e-05
1.24158e-05
1.2855e-05
1.33404e-05
1.38597e-05
1.44033e-05
1.4961e-05
1.5525e-05
1.60893e-05
1.66424e-05
1.71748e-05
1.76844e-05
1.81624e-05
1.86033e-05
1.90005e-05
1.93592e-05
1.96495e-05
1.98725e-05
2.00585e-05
2.0189e-05
2.02635e-05
2.0288e-05
2.02667e-05
2.0202e-05
2.00966e-05
1.99534e-05
1.97758e-05
1.95663e-05
1.93291e-05
1.90673e-05
1.87818e-05
1.84729e-05
1.81486e-05
1.78209e-05
1.74323e-05
1.71954e-05
1.62391e-05
9.36028e-06
9.43004e-06
9.55018e-06
9.74053e-06
1.00007e-05
1.03194e-05
1.06834e-05
1.10825e-05
1.15065e-05
1.19472e-05
1.23964e-05
1.28473e-05
1.32951e-05
1.37308e-05
1.41455e-05
1.45385e-05
1.49034e-05
1.52358e-05
1.55299e-05
1.57904e-05
1.5993e-05
1.61384e-05
1.62537e-05
1.63247e-05
1.63503e-05
1.63357e-05
1.62848e-05
1.61997e-05
1.60825e-05
1.59358e-05
1.57622e-05
1.55638e-05
1.53442e-05
1.51059e-05
1.48495e-05
1.45753e-05
1.42898e-05
1.40047e-05
1.36642e-05
1.34808e-05
1.25795e-05
7.7584e-06
7.82464e-06
7.93709e-06
8.10435e-06
8.32693e-06
8.59499e-06
8.8986e-06
9.22825e-06
9.57583e-06
9.93399e-06
1.02964e-05
1.0657e-05
1.1012e-05
1.13541e-05
1.16763e-05
1.19777e-05
1.22541e-05
1.2502e-05
1.27168e-05
1.29025e-05
1.30394e-05
1.31284e-05
1.31931e-05
1.32222e-05
1.32152e-05
1.31761e-05
1.31081e-05
1.30133e-05
1.28932e-05
1.27499e-05
1.25857e-05
1.24024e-05
1.2203e-05
1.19895e-05
1.17623e-05
1.15219e-05
1.12732e-05
1.10271e-05
1.07314e-05
1.05924e-05
9.75354e-06
6.43332e-06
6.49793e-06
6.60461e-06
6.75375e-06
6.94571e-06
7.17344e-06
7.42852e-06
7.70257e-06
7.98903e-06
8.28132e-06
8.57449e-06
8.86332e-06
9.1448e-06
9.41329e-06
9.66306e-06
9.89261e-06
1.01001e-05
1.02824e-05
1.04367e-05
1.05657e-05
1.06533e-05
1.07006e-05
1.07285e-05
1.07277e-05
1.06982e-05
1.06432e-05
1.05653e-05
1.04664e-05
1.03481e-05
1.02121e-05
1.006e-05
9.89321e-06
9.71441e-06
9.52507e-06
9.32565e-06
9.11639e-06
8.90133e-06
8.69045e-06
8.43555e-06
8.33273e-06
7.56217e-06
5.33556e-06
5.40002e-06
5.50178e-06
5.63635e-06
5.80398e-06
5.99949e-06
6.21562e-06
6.44549e-06
6.68292e-06
6.92287e-06
7.16083e-06
7.39297e-06
7.61613e-06
7.82694e-06
8.02022e-06
8.19435e-06
8.34896e-06
8.48189e-06
8.59051e-06
8.67787e-06
8.73115e-06
8.75078e-06
8.75481e-06
8.73592e-06
8.6939e-06
8.63161e-06
8.55145e-06
8.45468e-06
8.34263e-06
8.21667e-06
8.07845e-06
7.92914e-06
7.77087e-06
7.60492e-06
7.43171e-06
7.2515e-06
7.06735e-06
6.88822e-06
6.67072e-06
6.59698e-06
5.89684e-06
4.42493e-06
4.49008e-06
4.58793e-06
4.71056e-06
4.85889e-06
5.02862e-06
5.21384e-06
5.40813e-06
5.60657e-06
5.80471e-06
5.99893e-06
6.18606e-06
6.36355e-06
6.52896e-06
6.67812e-06
6.80926e-06
6.92292e-06
7.01767e-06
7.09179e-06
7.14736e-06
7.17431e-06
7.17327e-06
7.15959e-06
7.1275e-06
7.07711e-06
7.01066e-06
6.93011e-06
6.83678e-06
6.73188e-06
6.61662e-06
6.49224e-06
6.35983e-06
6.22105e-06
6.07695e-06
5.92786e-06
5.77405e-06
5.61789e-06
5.46705e-06
5.28384e-06
5.23156e-06
4.6089e-06
3.66927e-06
3.7355e-06
3.82967e-06
3.94308e-06
4.07578e-06
4.22499e-06
4.3851e-06
4.55088e-06
4.718e-06
4.88286e-06
5.0424e-06
5.19406e-06
5.33573e-06
5.46599e-06
5.58145e-06
5.68033e-06
5.76397e-06
5.83137e-06
5.88138e-06
5.91579e-06
5.9267e-06
5.91446e-06
5.89225e-06
5.85536e-06
5.80381e-06
5.73963e-06
5.66448e-06
5.57947e-06
5.48547e-06
5.38356e-06
5.27474e-06
5.15994e-06
5.04047e-06
4.91726e-06
4.79068e-06
4.66101e-06
4.53013e-06
4.40431e-06
4.25198e-06
4.21641e-06
3.66811e-06
3.04209e-06
3.10928e-06
3.20044e-06
3.30592e-06
3.42636e-06
3.55893e-06
3.69861e-06
3.84121e-06
3.98302e-06
4.12122e-06
4.25314e-06
4.37682e-06
4.49036e-06
4.59302e-06
4.68176e-06
4.75498e-06
4.81436e-06
4.85951e-06
4.88952e-06
4.90601e-06
4.90295e-06
4.88074e-06
4.85054e-06
4.80888e-06
4.75589e-06
4.69325e-06
4.62238e-06
4.54421e-06
4.45954e-06
4.3692e-06
4.27404e-06
4.1748e-06
4.07263e-06
3.96822e-06
3.86194e-06
3.75396e-06
3.64604e-06
3.54265e-06
3.41931e-06
3.39353e-06
2.9307e-06
2.5218e-06
2.58977e-06
2.67771e-06
2.77683e-06
2.88689e-06
3.00553e-06
3.12864e-06
3.2523e-06
3.37366e-06
3.49023e-06
3.60015e-06
3.70186e-06
3.7941e-06
3.87638e-06
3.94672e-06
4.00367e-06
4.04877e-06
4.08207e-06
4.10305e-06
4.11282e-06
4.1068e-06
4.085e-06
4.05669e-06
4.01897e-06
3.97201e-06
3.9173e-06
3.85603e-06
3.78901e-06
3.71695e-06
3.64062e-06
3.56072e-06
3.47792e-06
3.39317e-06
3.30707e-06
3.22008e-06
3.13234e-06
3.04535e-06
2.96214e-06
2.86442e-06
2.8476e-06
2.45647e-06
2.09015e-06
2.15893e-06
2.24431e-06
2.33748e-06
2.43826e-06
2.5447e-06
2.65333e-06
2.76126e-06
2.86594e-06
2.96526e-06
3.0576e-06
3.14167e-06
3.21646e-06
3.28126e-06
3.33436e-06
3.37481e-06
3.40399e-06
3.42248e-06
3.43025e-06
3.42837e-06
3.41366e-06
3.38661e-06
3.35472e-06
3.31579e-06
3.27007e-06
3.21882e-06
3.16311e-06
3.10363e-06
3.04098e-06
2.97573e-06
2.90853e-06
2.83985e-06
2.77048e-06
2.70083e-06
2.63137e-06
2.56204e-06
2.49451e-06
2.42971e-06
2.35757e-06
2.34051e-06
2.04726e-06
1.73314e-06
1.8027e-06
1.88583e-06
1.97421e-06
2.0665e-06
2.16115e-06
2.25611e-06
2.34958e-06
2.43983e-06
2.52528e-06
2.60429e-06
2.67586e-06
2.73937e-06
2.79525e-06
2.84271e-06
2.88067e-06
2.90944e-06
2.92946e-06
2.94051e-06
2.94343e-06
2.93577e-06
2.9172e-06
2.89432e-06
2.8653e-06
2.83037e-06
2.79057e-06
2.74684e-06
2.69981e-06
2.65009e-06
2.59821e-06
2.54479e-06
2.49033e-06
2.43551e-06
2.38073e-06
2.32653e-06
2.27294e-06
2.22131e-06
2.17183e-06
2.11804e-06
2.1088e-06
1.86295e-06
1.44071e-06
1.50956e-06
1.58952e-06
1.67276e-06
1.75735e-06
1.84193e-06
1.92484e-06
2.00487e-06
2.08138e-06
2.15379e-06
2.2211e-06
2.28179e-06
2.33385e-06
2.37564e-06
2.40605e-06
2.42589e-06
2.43748e-06
2.44229e-06
2.44065e-06
2.43299e-06
2.41791e-06
2.39593e-06
2.37148e-06
2.3432e-06
2.31134e-06
2.27675e-06
2.24009e-06
2.20179e-06
2.16231e-06
2.12206e-06
2.08145e-06
2.04084e-06
2.00072e-06
1.96142e-06
1.92327e-06
1.88606e-06
1.85163e-06
1.81761e-06
1.78706e-06
1.76778e-06
1.63483e-06
1.20378e-06
1.26966e-06
1.34287e-06
1.41742e-06
1.49215e-06
1.56701e-06
1.64078e-06
1.71173e-06
1.7784e-06
1.83999e-06
1.89671e-06
1.94987e-06
2.00094e-06
2.05101e-06
2.09856e-06
2.13908e-06
2.16982e-06
2.1914e-06
2.20466e-06
2.21084e-06
2.2091e-06
2.199e-06
2.18538e-06
2.16726e-06
2.14511e-06
2.11984e-06
2.09219e-06
2.06269e-06
2.03181e-06
2.00005e-06
1.96791e-06
1.93587e-06
1.90434e-06
1.87367e-06
1.84441e-06
1.81663e-06
1.79124e-06
1.76733e-06
1.74457e-06
1.74351e-06
1.60141e-06
1.00792e-06
1.07287e-06
1.13944e-06
1.20228e-06
1.2624e-06
1.32227e-06
1.38311e-06
1.44496e-06
1.50649e-06
1.56504e-06
1.61672e-06
1.65771e-06
1.68551e-06
1.70007e-06
1.70472e-06
1.70697e-06
1.71149e-06
1.71668e-06
1.72059e-06
1.7219e-06
1.71971e-06
1.71444e-06
1.70778e-06
1.69889e-06
1.6879e-06
1.6754e-06
1.66181e-06
1.6474e-06
1.63247e-06
1.61727e-06
1.60205e-06
1.58701e-06
1.57245e-06
1.5585e-06
1.54543e-06
1.53288e-06
1.52269e-06
1.51044e-06
1.50789e-06
1.4823e-06
1.47219e-06
8.42413e-07
9.14173e-07
9.83199e-07
1.04209e-06
1.09101e-06
1.13367e-06
1.17332e-06
1.21289e-06
1.25519e-06
1.3029e-06
1.35803e-06
1.42155e-06
1.4924e-06
1.56776e-06
1.64089e-06
1.69836e-06
1.73557e-06
1.76029e-06
1.77624e-06
1.78558e-06
1.78799e-06
1.78386e-06
1.77635e-06
1.76522e-06
1.75113e-06
1.73495e-06
1.71729e-06
1.69864e-06
1.67946e-06
1.66025e-06
1.64147e-06
1.62354e-06
1.60682e-06
1.59168e-06
1.57861e-06
1.56796e-06
1.55994e-06
1.55477e-06
1.55087e-06
1.56702e-06
1.47669e-06
7.19387e-07
7.87926e-07
8.53871e-07
9.13383e-07
9.65303e-07
1.00954e-06
1.0453e-06
1.07163e-06
1.08871e-06
1.09756e-06
1.10005e-06
1.09842e-06
1.09508e-06
1.09092e-06
1.08832e-06
1.09865e-06
1.12226e-06
1.14964e-06
1.17732e-06
1.20311e-06
1.22632e-06
1.24706e-06
1.26601e-06
1.28291e-06
1.29769e-06
1.31059e-06
1.32185e-06
1.33159e-06
1.33991e-06
1.34685e-06
1.35253e-06
1.35696e-06
1.36021e-06
1.36216e-06
1.36303e-06
1.36241e-06
1.36168e-06
1.35633e-06
1.35963e-06
1.32559e-06
1.37129e-06
7.83555e-07
8.75058e-07
9.21528e-07
9.25846e-07
9.05657e-07
8.8536e-07
8.86685e-07
9.20912e-07
9.85816e-07
1.07032e-06
1.16151e-06
1.24898e-06
1.3259e-06
1.38996e-06
1.43879e-06
1.45976e-06
1.45555e-06
1.44002e-06
1.41963e-06
1.3969e-06
1.37111e-06
1.34711e-06
1.32191e-06
1.29654e-06
1.27176e-06
1.2478e-06
1.22484e-06
1.20299e-06
1.18243e-06
1.16328e-06
1.14565e-06
1.12963e-06
1.11523e-06
1.1025e-06
1.09164e-06
1.08301e-06
1.07595e-06
1.0718e-06
1.06704e-06
1.07736e-06
1.0227e-06
7.30926
6.26479
4.41371
3.64844
3.6835
3.70353
3.35029
2.61746
1.65015
0.698449
0.0490794
0.174445
0.0513895
0.000568634
3.36116e-07
2.81991e-05
0.000214475
0.00020048
0.000159182
0.000128669
0.000104307
8.40268e-05
6.70419e-05
5.36804e-05
4.31626e-05
3.56003e-05
3.01129e-05
2.66523e-05
2.4266e-05
2.24108e-05
2.08503e-05
1.90888e-05
1.74405e-05
1.56067e-05
1.38053e-05
1.24322e-05
1.12035e-05
1.06477e-05
1.0373e-05
1.09733e-05
1.13854e-05
1.1941e-05
1.28042e-05
1.31353e-05
1.37123e-05
1.37893e-05
1.37771e-05
1.36752e-05
1.33379e-05
1.28091e-05
1.22293e-05
1.1494e-05
1.07129e-05
9.86884e-06
8.97288e-06
8.1103e-06
7.21154e-06
6.35235e-06
5.50767e-06
4.72135e-06
3.96628e-06
3.28214e-06
2.65111e-06
2.08011e-06
1.5733e-06
1.13562e-06
7.72178e-07
5.10224e-07
4.15939e-07
4.33673e-07
6.04852e-07
6.2422e-07
8.20056e-07
7.44023e-07
7.81772
10.1516
8.16129
6.47632
5.75931
5.37331
4.88082
4.08479
2.98029
1.74804
0.668297
0.0159071
0.122609
0.0209536
0.00176258
2.41032e-06
9.83507e-05
0.00019407
0.000160835
0.000127765
0.000103074
8.27838e-05
6.56866e-05
5.22797e-05
4.15389e-05
3.3817e-05
2.81614e-05
2.46951e-05
2.2441e-05
2.08652e-05
1.96195e-05
1.8201e-05
1.68976e-05
1.53262e-05
1.37742e-05
1.25511e-05
1.13755e-05
1.0765e-05
1.03505e-05
1.07417e-05
1.09849e-05
1.13384e-05
1.20818e-05
1.23093e-05
1.28239e-05
1.289e-05
1.28367e-05
1.27311e-05
1.24464e-05
1.19336e-05
1.13949e-05
1.07113e-05
9.9823e-06
9.19754e-06
8.35088e-06
7.54843e-06
6.71193e-06
5.9073e-06
5.11678e-06
4.38295e-06
3.67616e-06
3.03677e-06
2.45341e-06
1.92094e-06
1.45231e-06
1.05207e-06
7.24594e-07
4.98985e-07
4.3104e-07
4.45129e-07
6.02133e-07
5.98221e-07
7.92539e-07
6.84461e-07
5.78964
10.7852
10.7573
9.13999
7.95873
7.24154
6.61628
5.78446
4.62175
3.20662
1.77859
0.637926
0.0445739
0.0791129
0.00895288
0.000681477
7.46578e-06
0.000120834
0.000173007
0.000131582
0.000103462
8.34695e-05
6.59529e-05
5.20292e-05
4.10242e-05
3.30228e-05
2.7208e-05
2.35367e-05
2.12965e-05
2.00113e-05
1.89755e-05
1.8018e-05
1.69336e-05
1.56791e-05
1.44694e-05
1.33161e-05
1.22475e-05
1.15361e-05
1.10667e-05
1.09124e-05
1.09928e-05
1.11623e-05
1.14922e-05
1.16868e-05
1.1932e-05
1.2002e-05
1.19156e-05
1.17095e-05
1.14581e-05
1.09874e-05
1.04682e-05
9.84331e-06
9.16932e-06
8.45175e-06
7.67483e-06
6.92176e-06
6.16471e-06
5.41993e-06
4.69653e-06
4.01959e-06
3.37267e-06
2.78258e-06
2.25349e-06
1.76711e-06
1.34333e-06
9.87246e-07
7.02866e-07
5.17407e-07
4.69027e-07
4.73419e-07
6.05459e-07
5.76081e-07
7.68085e-07
6.2431e-07
4.1186
9.66828
11.7247
11.1498
10.0748
9.19781
8.43481
7.55356
6.38954
4.91681
3.28136
1.75257
0.609516
0.0635558
0.052554
0.00416553
0.000497155
8.88449e-06
9.29477e-05
0.000143187
0.000109404
8.33672e-05
6.6435e-05
5.25108e-05
4.09106e-05
3.23245e-05
2.62951e-05
2.24489e-05
2.02207e-05
1.91066e-05
1.83407e-05
1.77508e-05
1.69485e-05
1.6002e-05
1.50452e-05
1.40008e-05
1.30172e-05
1.22424e-05
1.16714e-05
1.11728e-05
1.10357e-05
1.1013e-05
1.10048e-05
1.10989e-05
1.1122e-05
1.11421e-05
1.10192e-05
1.07452e-05
1.04983e-05
1.00668e-05
9.57241e-06
9.00219e-06
8.38346e-06
7.7304e-06
7.02445e-06
6.32709e-06
5.6425e-06
4.9597e-06
4.30173e-06
3.68168e-06
3.09303e-06
2.55357e-06
2.07481e-06
1.63354e-06
1.25387e-06
9.38388e-07
6.94768e-07
5.40157e-07
5.0183e-07
4.94479e-07
6.06209e-07
5.51763e-07
7.43431e-07
5.66393e-07
3.0493
7.99269
11.3242
12.1405
11.7107
10.9725
10.1782
9.28471
8.17815
6.76724
5.08675
3.32382
1.75007
0.618454
0.0874059
0.0372139
0.00337312
0.000535547
6.66125e-06
5.67884e-05
0.000114852
9.00369e-05
6.56557e-05
5.15763e-05
4.09171e-05
3.2156e-05
2.55927e-05
2.13395e-05
1.90533e-05
1.80587e-05
1.76254e-05
1.73302e-05
1.68687e-05
1.62061e-05
1.54373e-05
1.45462e-05
1.36294e-05
1.28215e-05
1.21104e-05
1.1454e-05
1.10755e-05
1.08299e-05
1.06004e-05
1.05184e-05
1.03931e-05
1.03197e-05
1.01402e-05
9.84198e-06
9.58751e-06
9.182e-06
8.7204e-06
8.20148e-06
7.63794e-06
7.04706e-06
6.40771e-06
5.77399e-06
5.15508e-06
4.53465e-06
3.93882e-06
3.37481e-06
2.84136e-06
2.35174e-06
1.9192e-06
1.52054e-06
1.18178e-06
9.02059e-07
6.93676e-07
5.59751e-07
5.25006e-07
5.04935e-07
6.01972e-07
5.2334e-07
7.16834e-07
5.09715e-07
2.3384
6.31091
10.0965
12.0984
12.5815
12.2786
11.6344
10.8178
9.83352
8.58822
7.02644
5.2263
3.39677
1.80394
0.673964
0.12429
0.0306262
0.00329053
0.000850772
3.7974e-06
1.87263e-05
8.69353e-05
7.9862e-05
5.36548e-05
3.91669e-05
3.0945e-05
2.50272e-05
2.07442e-05
1.82305e-05
1.71758e-05
1.69477e-05
1.69726e-05
1.6861e-05
1.64713e-05
1.59108e-05
1.51613e-05
1.43167e-05
1.34783e-05
1.26709e-05
1.18748e-05
1.12817e-05
1.08099e-05
1.03711e-05
1.00886e-05
9.81123e-06
9.61311e-06
9.35931e-06
9.02333e-06
8.75171e-06
8.35713e-06
7.92408e-06
7.4487e-06
6.93643e-06
6.40399e-06
5.82704e-06
5.25759e-06
4.70103e-06
4.14171e-06
3.60552e-06
3.09648e-06
2.61596e-06
2.17496e-06
1.78639e-06
1.4286e-06
1.12793e-06
8.81603e-07
7.01504e-07
5.82518e-07
5.47047e-07
5.14573e-07
5.96723e-07
4.9608e-07
6.90994e-07
4.55563e-07
1.89132
4.83637
8.52583
11.2441
12.5856
12.8839
12.5727
11.9584
11.174
10.1795
8.87733
7.24412
5.38935
3.53459
1.93291
0.783538
0.184497
0.0311988
0.00433192
0.00166565
1.28061e-05
6.03801e-06
3.87472e-05
6.65686e-05
4.98935e-05
3.23104e-05
2.34309e-05
1.91613e-05
1.71968e-05
1.65763e-05
1.65691e-05
1.67905e-05
1.69127e-05
1.67926e-05
1.64893e-05
1.58972e-05
1.51382e-05
1.42804e-05
1.34206e-05
1.24907e-05
1.17191e-05
1.10444e-05
1.03835e-05
9.90076e-06
9.43835e-06
9.09016e-06
8.74107e-06
8.33218e-06
8.02108e-06
7.62195e-06
7.20225e-06
6.7588e-06
6.28886e-06
5.80833e-06
5.28903e-06
4.77882e-06
4.28153e-06
3.78065e-06
3.3016e-06
2.84572e-06
2.41611e-06
2.02208e-06
1.67597e-06
1.35737e-06
1.09239e-06
8.77037e-07
7.19413e-07
6.11741e-07
5.73004e-07
5.29241e-07
5.94932e-07
4.74918e-07
6.69153e-07
4.06242e-07
1.6107
3.62269
6.91564
9.87389
11.7989
12.6816
12.8119
12.5176
12.0144
11.3361
10.3938
9.09924
7.45879
5.60476
3.75852
2.15076
0.961986
0.286243
0.0495332
0.00748171
0.000191362
8.71998e-05
2.12648e-06
1.41291e-06
2.87255e-05
3.91693e-05
2.92907e-05
2.00267e-05
1.5578e-05
1.46471e-05
1.54153e-05
1.65242e-05
1.71467e-05
1.72567e-05
1.71022e-05
1.66547e-05
1.60107e-05
1.51898e-05
1.42999e-05
1.32738e-05
1.23476e-05
1.15012e-05
1.06325e-05
9.95618e-06
9.2923e-06
8.7762e-06
8.30353e-06
7.79866e-06
7.41754e-06
6.99521e-06
6.56921e-06
6.14426e-06
5.70428e-06
5.26654e-06
4.79835e-06
4.34095e-06
3.8986e-06
3.45256e-06
3.02774e-06
2.62257e-06
2.24159e-06
1.89242e-06
1.58681e-06
1.30504e-06
1.07298e-06
8.84693e-07
7.4539e-07
6.4588e-07
6.02657e-07
5.48759e-07
5.98165e-07
4.61462e-07
6.52362e-07
3.6323e-07
1.37132
2.66148
5.40598
8.23555
10.4092
11.7125
12.2778
12.3647
12.2016
11.8788
11.3477
10.5008
9.26901
7.68386
5.88512
4.07723
2.47036
1.23221
0.456957
0.108598
0.0177763
0.000913726
0.00112193
6.80541e-08
1.50351e-06
1.09661e-06
1.73493e-05
2.25746e-05
1.97269e-05
1.63902e-05
1.47355e-05
1.50634e-05
1.63185e-05
1.74116e-05
1.78498e-05
1.75887e-05
1.69626e-05
1.61454e-05
1.52476e-05
1.41831e-05
1.3138e-05
1.2139e-05
1.10911e-05
1.02268e-05
9.36737e-06
8.67318e-06
8.05187e-06
7.4344e-06
6.95619e-06
6.48707e-06
6.03388e-06
5.611e-06
5.18747e-06
4.78126e-06
4.35588e-06
3.94491e-06
3.55246e-06
3.1573e-06
2.78339e-06
2.42634e-06
2.09149e-06
1.78497e-06
1.51736e-06
1.26966e-06
1.06712e-06
9.01519e-07
7.77099e-07
6.83014e-07
6.3462e-07
5.71669e-07
6.05896e-07
4.55725e-07
6.4037e-07
3.27067e-07
1.07615
1.88762
4.04873
6.48957
8.62083