/*--------------------------------*- C++ -*----------------------------------*\
| =========                 |                                                 |
| \\      /  F ield         | OpenFOAM: The Open Source CFD Toolbox           |
|  \\    /   O peration     | Version:  2312                                  |
|   \\  /    A nd           | Website:  www.openfoam.com                      |
|    \\/     M anipulation  |                                                 |
\*---------------------------------------------------------------------------*/
FoamFile
{
    version     2.0;
    format      ascii;
    arch        "LSB;label=32;scalar=64";
    class       volSymmTensorField;
    location    "450";
    object      turbulenceProperties:devReff;
}
// * * * * * * * * * * * * * * * * * * * * * * * * * * * * * * * * * * * * * //

dimensions      [0 2 -2 0 0 0 0];

internalField   nonuniform List<symmTensor> 
11040
(
(0.017224 0.09995 -3.31369e-22 -0.0278043 1.39136e-20 0.0105803)
(0.0654034 0.0883036 9.47111e-21 -0.0776849 1.46466e-19 0.0122815)
(0.0106156 0.00895871 -3.46699e-20 -0.00887538 9.31561e-20 -0.00174027)
(-0.00796586 0.013583 -9.09099e-20 0.00809991 4.5104e-20 -0.000134049)
(-0.081203 0.0575112 -2.51512e-20 0.0816567 2.31762e-19 -0.000453619)
(-0.0704354 0.0678098 -3.45561e-19 0.070924 1.28732e-19 -0.000488582)
(-0.0602057 0.0722745 2.00377e-19 0.0602079 -1.31071e-18 -2.22086e-06)
(-0.0499057 0.0715224 2.79405e-19 0.0498228 -1.86714e-19 8.29487e-05)
(-0.0407896 0.0693375 1.21187e-19 0.0406698 -3.38552e-20 0.000119802)
(-0.0341529 0.0683742 1.13441e-19 0.0339323 1.8057e-19 0.000220618)
(-0.0285767 0.0668221 -1.00951e-19 0.0283887 4.27092e-19 0.000187938)
(-0.0237999 0.0653882 -1.50821e-19 0.0235905 3.35762e-19 0.00020942)
(-0.0196639 0.064168 2.74267e-20 0.0194301 -1.87196e-19 0.000233805)
(-0.016111 0.0633225 3.20309e-20 0.0158895 1.93139e-19 0.000221479)
(-0.0128977 0.0628695 -1.39676e-20 0.0126573 1.20395e-20 0.000240473)
(-0.0100386 0.0631966 -3.40583e-21 0.00980478 -2.41149e-19 0.000233873)
(-0.00737173 0.0644698 6.69111e-20 0.00713174 1.11735e-21 0.000239994)
(-0.00476777 0.0667314 -8.08763e-21 0.0045187 4.42564e-19 0.000249065)
(-0.00207882 0.0697759 -3.73236e-20 0.00182146 4.12951e-21 0.000257367)
(0.000807758 0.073568 6.50955e-21 -0.00107957 -6.37856e-20 0.000271811)
(0.00399588 0.0781916 2.89569e-20 -0.00426355 4.7562e-20 0.000267674)
(0.00724937 0.0835028 -3.31778e-20 -0.00750252 1.4274e-19 0.000253146)
(0.0103352 0.0895626 2.96992e-21 -0.0106015 -1.14794e-19 0.000266327)
(0.0135649 0.0965313 1.52769e-20 -0.0138487 3.04424e-19 0.000283824)
(0.0170998 0.104399 -9.02276e-20 -0.0173852 -2.7065e-19 0.000285441)
(0.0209983 0.113489 -4.94186e-20 -0.0212669 -6.32935e-19 0.000268644)
(0.0253221 0.123823 1.40211e-20 -0.025566 -2.93596e-19 0.000243964)
(0.0298129 0.134147 4.56271e-20 -0.0300145 9.00385e-20 0.000201608)
(0.0342267 0.143553 -2.37461e-20 -0.0343683 -2.36231e-19 0.000141577)
(0.0382316 0.151161 1.1886e-20 -0.0382885 -5.55249e-19 5.69275e-05)
(0.0414186 0.155919 1.36728e-19 -0.0413804 3.83939e-19 -3.82531e-05)
(0.0433429 0.156721 2.77206e-22 -0.0432038 -5.63038e-20 -0.000139081)
(0.0437084 0.152708 9.03054e-20 -0.0434662 1.07805e-18 -0.000242227)
(0.0422942 0.143862 -1.09207e-19 -0.0419446 6.34866e-19 -0.000349619)
(0.0390001 0.130881 3.54135e-20 -0.0385613 1.86965e-20 -0.000438808)
(0.0345486 0.117184 1.1447e-19 -0.0339515 9.41028e-19 -0.000597136)
(0.0260868 0.0939275 1.92012e-20 -0.0251495 2.90192e-19 -0.00093729)
(0.0107402 0.047597 -6.23455e-20 -0.00973963 5.19592e-19 -0.00100058)
(-0.000304378 0.0260557 -4.69929e-19 0.000566762 -1.22958e-18 -0.000262383)
(-0.0125509 -0.0164371 -1.91495e-20 0.014267 -1.16756e-18 -0.00171613)
(-0.0672339 -0.00758662 2.55623e-19 0.0756688 6.98328e-20 -0.00843493)
(0.00598829 -0.00608756 7.21957e-22 -0.0042682 -1.92944e-21 -0.00172009)
(0.0177334 0.00330122 2.81803e-20 -0.0108602 3.21006e-21 -0.00687315)
(0.054244 0.0344068 7.64783e-20 -0.0563797 -3.19538e-19 0.00213567)
(0.137615 0.0362197 9.57011e-20 -0.137471 -1.99414e-19 -0.000144038)
(0.258384 -0.0248793 9.77342e-20 -0.258012 -5.50247e-19 -0.000372578)
(0.0615759 -0.0486941 6.11367e-19 -0.0596842 -1.28656e-18 -0.00189167)
(0.017009 -0.0188608 -9.00883e-19 -0.0154719 3.54009e-18 -0.00153704)
(0.00434696 -0.00734784 -9.04922e-19 -0.00409065 2.32768e-18 -0.000256314)
(0.000537217 -0.00213439 -8.25822e-20 -0.000284021 -1.78228e-19 -0.000253196)
(-0.00106723 0.00147585 -1.14637e-19 0.00127403 4.3457e-20 -0.000206801)
(-0.00207833 0.00389469 5.01474e-19 0.00239448 -1.25239e-18 -0.000316149)
(-0.00236543 0.00545062 -9.51751e-21 0.00273699 -9.14997e-20 -0.000371563)
(-0.00223525 0.00668347 -1.83946e-19 0.00255578 7.34683e-19 -0.000320524)
(-0.00204805 0.00757973 -1.27854e-19 0.00239147 2.46972e-20 -0.000343414)
(-0.00170497 0.0083172 -4.69131e-20 0.00202505 -1.7804e-19 -0.000320086)
(-0.00134282 0.00895253 1.08473e-20 0.00166645 6.22751e-19 -0.000323628)
(-0.000946304 0.00959313 -1.77427e-20 0.00127138 2.04362e-19 -0.000325074)
(-0.000513273 0.0102797 -1.27307e-20 0.000846103 -5.745e-19 -0.00033283)
(-3.72577e-05 0.0109521 -2.54338e-20 0.000386295 -2.67005e-20 -0.000349038)
(0.000498509 0.011615 -7.64309e-21 -0.00014507 8.49466e-20 -0.000353439)
(0.00109924 0.0122813 -1.08447e-20 -0.000746016 -1.15625e-20 -0.000353227)
(0.0017433 0.0130282 3.57688e-20 -0.00138717 -2.81165e-19 -0.000356133)
(0.00233107 0.0136664 2.09708e-20 -0.00195372 4.01923e-19 -0.000377359)
(0.00283066 0.0139482 -4.97905e-20 -0.00244458 -3.65732e-19 -0.000386087)
(0.00320026 0.0137903 -9.08106e-21 -0.0028313 2.92333e-19 -0.000368959)
(0.0034398 0.013364 8.02967e-20 -0.00310221 9.64422e-19 -0.000337589)
(0.0035994 0.0129475 1.47688e-19 -0.00330251 5.32016e-19 -0.000296892)
(0.0035454 0.0122144 -4.86859e-20 -0.00331026 1.34871e-19 -0.000235141)
(0.00320628 0.011113 -9.71929e-20 -0.00307381 2.82564e-19 -0.000132468)
(0.00254789 0.00974406 5.37484e-20 -0.00255659 5.04073e-19 8.7014e-06)
(0.00162179 0.00841062 -9.55821e-20 -0.00180419 -7.42148e-19 0.000182399)
(0.000495521 0.00764058 -2.14421e-20 -0.000855935 -1.26896e-18 0.000360414)
(-0.000967298 0.00779894 -7.5814e-20 0.000397732 -2.54002e-18 0.000569566)
(-0.00314661 0.00825332 1.1237e-19 0.00232033 -1.19777e-18 0.000826283)
(-0.00603456 0.00943171 -1.07059e-19 0.00486651 1.02144e-19 0.00116804)
(-0.00976389 0.0116843 -3.49407e-19 0.00813021 -3.76817e-18 0.00163368)
(-0.0142293 0.015376 -1.17888e-19 0.0123144 -3.78521e-19 0.0019149)
(-0.0203481 0.020581 -4.29308e-19 0.0186001 -2.16374e-18 0.00174802)
(-0.0354444 0.0278745 1.2912e-18 0.0308885 5.63966e-18 0.00455587)
(-0.029701 0.0468605 9.60401e-19 0.0333955 5.74928e-18 -0.00369447)
(-0.15105 -0.111226 -4.15962e-19 0.0949589 -7.97594e-19 0.056091)
(0.00216344 -0.00435793 -5.82701e-22 -0.00241238 -8.76872e-22 0.00024894)
(-0.000335253 -0.00407236 -1.03252e-20 0.000507546 -2.75566e-20 -0.000172293)
(0.00936439 0.00547172 1.91258e-20 -0.00889726 1.09189e-19 -0.000467127)
(0.0504331 0.0220026 6.51786e-20 -0.0514623 1.02621e-19 0.00102916)
(0.312772 0.0535215 -6.30936e-21 -0.314231 -4.24217e-20 0.00145934)
(0.409745 -0.0401219 -3.54303e-19 -0.408393 1.36073e-18 -0.00135264)
(0.173529 -0.102465 1.80545e-20 -0.171948 -9.34564e-21 -0.00158179)
(0.0544668 -0.0550384 9.78585e-20 -0.0502667 -2.68677e-18 -0.00420008)
(0.0232237 -0.029252 -1.8117e-19 -0.0227669 2.5737e-20 -0.000456728)
(0.014072 -0.0188052 2.66028e-19 -0.0143986 -7.67583e-19 0.000326615)
(0.00797193 -0.0118608 -4.8412e-19 -0.00814006 1.1489e-18 0.00016813)
(0.00467742 -0.00784555 8.57354e-19 -0.0046372 -2.29918e-18 -4.02181e-05)
(0.00308243 -0.00456747 -4.99142e-20 -0.00313972 -7.355e-20 5.72898e-05)
(0.00202718 -0.00236275 1.78106e-19 -0.00201306 -9.9374e-19 -1.41196e-05)
(0.0016331 -0.000841064 2.18269e-20 -0.00166846 1.04376e-18 3.53637e-05)
(0.00143625 0.00023269 -9.07228e-20 -0.00145514 -3.98386e-19 1.8885e-05)
(0.00143006 0.000946488 -2.20996e-21 -0.00145205 -6.70856e-19 2.19847e-05)
(0.00152135 0.00145716 4.87013e-20 -0.00154264 -4.78388e-19 2.1283e-05)
(0.00167041 0.00177551 2.16329e-20 -0.00168761 -2.66808e-20 1.72073e-05)
(0.00186028 0.00191882 2.8808e-20 -0.00187733 3.01618e-20 1.70485e-05)
(0.0020682 0.0019285 -6.35954e-22 -0.00208016 9.1066e-20 1.1965e-05)
(0.00232864 0.00176385 -5.19981e-20 -0.00234794 1.41614e-19 1.92985e-05)
(0.00258656 0.00129172 -3.94549e-20 -0.00261144 -4.7594e-19 2.48857e-05)
(0.00274795 0.000457605 -4.37054e-20 -0.00277001 -1.91914e-19 2.20561e-05)
(0.00276112 -0.0006168 9.48936e-20 -0.00277586 -3.00985e-19 1.47347e-05)
(0.00260252 -0.00179796 -2.87954e-20 -0.0026059 -2.93393e-19 3.37588e-06)
(0.0022263 -0.00296056 -2.54179e-19 -0.00221128 2.82383e-19 -1.50265e-05)
(0.00156089 -0.00395713 -6.3495e-20 -0.00151315 -1.12177e-18 -4.77412e-05)
(0.00054996 -0.00456761 2.09102e-19 -0.000456682 2.87823e-19 -9.32776e-05)
(-0.000860635 -0.00455141 2.71917e-19 0.00101242 1.16421e-18 -0.000151789)
(-0.00278213 -0.00382371 -2.31702e-19 0.00299078 6.29925e-19 -0.000208648)
(-0.00550503 -0.00261325 4.68714e-19 0.0057615 2.71844e-18 -0.000256461)
(-0.00944597 -0.00112697 1.42613e-19 0.00976024 7.77298e-19 -0.000314269)
(-0.0146297 0.00165693 -4.97343e-19 0.0150016 9.26893e-19 -0.000371846)
(-0.0212909 0.00609113 -4.87085e-19 0.0215974 -9.95178e-19 -0.000306557)
(-0.0295818 0.012882 3.85966e-19 0.029631 1.99819e-18 -4.91393e-05)
(-0.0390872 0.0227374 4.2573e-19 0.0391074 -2.15705e-18 -2.01756e-05)
(-0.0517456 0.0358821 4.30826e-19 0.0521124 1.96574e-18 -0.000366747)
(-0.0816801 0.0557467 -4.73159e-19 0.0767208 -1.00817e-18 0.00495931)
(-0.0746354 0.114692 -1.51896e-20 0.08355 -5.60347e-19 -0.00891459)
(-0.194281 0.0419307 4.22098e-19 0.192097 1.9435e-18 0.00218434)
(0.0019985 -0.0027389 -1.87933e-22 -0.00211741 -6.94084e-22 0.000118911)
(-0.000298014 -0.00305319 -5.37888e-22 0.000104734 2.91388e-21 0.000193281)
(-0.000834888 -0.00213094 -1.52556e-20 0.00083093 -3.61235e-20 3.95829e-06)
(0.00362494 0.00167319 -2.03934e-20 -0.00353186 -4.12781e-20 -9.3075e-05)
(0.073557 0.024143 4.60084e-20 -0.0743022 5.38972e-20 0.000745204)
(0.365723 0.0470451 2.64698e-19 -0.369348 -1.55644e-20 0.0036252)
(0.5362 -0.0524011 2.93871e-19 -0.533906 -1.57764e-18 -0.00229323)
(0.31243 -0.150383 1.01481e-18 -0.316652 -1.58551e-18 0.00422139)
(0.106868 -0.0992144 -4.6277e-19 -0.0994725 1.35987e-18 -0.00739555)
(0.0511462 -0.0612731 2.58271e-19 -0.0492245 4.34269e-19 -0.00192176)
(0.0298813 -0.0393896 -4.02364e-19 -0.0299173 1.2352e-18 3.59535e-05)
(0.0188595 -0.0296223 -6.39942e-19 -0.0188965 1.39476e-18 3.6976e-05)
(0.0130108 -0.0228832 5.15029e-19 -0.0131508 -1.04718e-18 0.000140018)
(0.00894316 -0.0180671 -1.44917e-19 -0.00883693 1.02554e-18 -0.00010623)
(0.00680663 -0.0148788 -2.29882e-19 -0.00677625 -1.16331e-18 -3.03823e-05)
(0.00539321 -0.0125054 -1.19373e-19 -0.00534093 -5.01533e-19 -5.22867e-05)
(0.00456884 -0.0110579 6.89952e-20 -0.00453408 2.49657e-19 -3.47534e-05)
(0.00405172 -0.0101023 1.3243e-19 -0.00402698 1.18923e-20 -2.47354e-05)
(0.00370135 -0.00963423 3.42224e-20 -0.00368309 5.96411e-20 -1.82611e-05)
(0.00345467 -0.00953478 -1.31945e-20 -0.00344868 -8.61976e-20 -5.98886e-06)
(0.00323012 -0.00971034 -2.89131e-20 -0.00322113 -2.15638e-19 -8.99213e-06)
(0.00312023 -0.0101128 3.52453e-20 -0.00310787 -3.08543e-19 -1.23522e-05)
(0.00315081 -0.0108224 2.73081e-20 -0.00314977 -1.41801e-19 -1.03777e-06)
(0.00315793 -0.0118888 1.28695e-20 -0.00316626 1.30625e-19 8.329e-06)
(0.00304483 -0.0131216 -7.10043e-20 -0.00305542 7.71629e-19 1.05858e-05)
(0.0027645 -0.0143533 3.04892e-19 -0.00277771 -8.67925e-19 1.32141e-05)
(0.00222297 -0.0154312 1.93382e-19 -0.00223949 -6.63817e-19 1.65272e-05)
(0.00129485 -0.0161853 2.0639e-19 -0.00131807 1.62552e-18 2.32207e-05)
(-0.000196153 -0.016429 -8.93681e-20 0.00016843 4.33027e-19 2.77229e-05)
(-0.00246663 -0.0160064 -6.17805e-19 0.00243223 -6.30567e-19 3.43976e-05)
(-0.00581882 -0.0147986 2.33755e-19 0.00578102 -1.13788e-18 3.78018e-05)
(-0.0105872 -0.0126421 -5.27935e-19 0.0105456 7.07123e-19 4.16077e-05)
(-0.0170934 -0.00909922 5.58275e-19 0.0170684 -5.90153e-19 2.5004e-05)
(-0.0256421 -0.00344744 5.40938e-19 0.0256403 -1.49776e-18 1.76596e-06)
(-0.0367782 0.0049793 5.2402e-19 0.0367319 8.77518e-19 4.62301e-05)
(-0.0507603 0.0173728 5.17127e-19 0.0505777 1.89509e-18 0.000182649)
(-0.0667188 0.0351006 4.01823e-19 0.0670048 1.95793e-18 -0.000285904)
(-0.0869386 0.0587549 -6.26878e-19 0.08833 -2.431e-18 -0.00139138)
(-0.130848 0.0935611 9.80429e-20 0.125217 -8.71925e-19 0.00563164)
(-0.120551 0.197412 -3.35711e-19 0.131416 -1.84325e-18 -0.0108649)
(-0.168164 0.148641 -4.9873e-19 0.16448 -9.00984e-19 0.0036836)
(0.00158763 -0.0020374 1.38821e-21 -0.00157527 3.41703e-21 -1.2363e-05)
(0.000426557 -0.00232999 -2.36378e-21 -0.000372243 -4.49076e-21 -5.43149e-05)
(-0.000730339 -0.00236625 1.16645e-20 0.000738284 2.45194e-20 -7.94434e-06)
(-0.000515253 -0.00109422 1.45939e-20 0.000537849 2.6313e-20 -2.25951e-05)
(0.00182722 0.000544683 -1.59742e-20 -0.00178974 -2.40473e-20 -3.74842e-05)
(0.0673352 0.0170654 4.05111e-20 -0.067622 -1.49587e-20 0.000286868)
(0.348896 0.0315018 -8.38568e-20 -0.352692 -9.34405e-21 0.00379638)
(0.611487 -0.0559065 -2.63471e-19 -0.60836 3.62475e-19 -0.00312692)
(0.480941 -0.189121 4.5138e-19 -0.488463 -1.95528e-19 0.00752225)
(0.196891 -0.165396 1.03675e-20 -0.192275 1.66977e-19 -0.00461535)
(0.0913346 -0.104891 3.90061e-19 -0.0856528 -2.57991e-18 -0.00568181)
(0.0515358 -0.0685177 -2.83588e-19 -0.0507002 4.37322e-19 -0.000835601)
(0.0338585 -0.0519848 -3.20586e-19 -0.0343618 2.58277e-19 0.000503249)
(0.0226582 -0.040982 3.87963e-19 -0.022795 -2.5585e-18 0.000136817)
(0.0162337 -0.0346292 3.05712e-19 -0.0162974 1.59315e-19 6.37381e-05)
(0.0120855 -0.029552 1.87919e-19 -0.0120397 1.91706e-19 -4.58285e-05)
(0.00953412 -0.0264977 -1.80323e-19 -0.00948768 6.93561e-19 -4.64382e-05)
(0.00788904 -0.0244366 -4.97604e-21 -0.00785823 1.50917e-19 -3.08082e-05)
(0.00670699 -0.0233676 4.03398e-20 -0.00667749 -7.51818e-20 -2.94926e-05)
(0.00584645 -0.0229874 5.58079e-20 -0.00583332 5.5784e-20 -1.31352e-05)
(0.00511203 -0.0230208 -1.64035e-20 -0.00509422 2.59011e-19 -1.78148e-05)
(0.00464742 -0.0233053 -1.0027e-19 -0.00462059 2.53583e-19 -2.6832e-05)
(0.00451263 -0.0239104 1.43771e-19 -0.00449091 1.94387e-19 -2.17179e-05)
(0.00446532 -0.0249205 1.59591e-19 -0.00445298 4.44116e-19 -1.23414e-05)
(0.00434716 -0.0261375 -2.1485e-19 -0.0043393 -1.11325e-19 -7.86309e-06)
(0.00405275 -0.0273929 -1.58573e-19 -0.00405088 2.2233e-18 -1.87299e-06)
(0.00340257 -0.0285059 9.39712e-20 -0.00340059 -3.27854e-20 -1.98576e-06)
(0.0021802 -0.0292561 -3.42102e-19 -0.00218504 -8.98479e-19 4.84708e-06)
(6.58241e-05 -0.0293853 -5.38393e-19 -7.0765e-05 -1.72508e-18 4.94082e-06)
(-0.0032901 -0.0286157 4.2629e-19 0.00327631 -7.07266e-19 1.37912e-05)
(-0.00832155 -0.0265913 9.80617e-20 0.00830634 1.89828e-18 1.52118e-05)
(-0.0154194 -0.0228454 2.99854e-19 0.0153985 -1.15676e-18 2.0874e-05)
(-0.0249906 -0.0167225 -3.90894e-19 0.024991 3.23851e-18 -4.04715e-07)
(-0.0375221 -0.00742016 -1.06478e-18 0.0375282 1.6528e-19 -6.06574e-06)
(-0.0537603 0.00609666 -4.32358e-19 0.0536804 6.81401e-19 7.99101e-05)
(-0.0739117 0.0256018 -5.78917e-19 0.0736376 8.19974e-19 0.000274163)
(-0.0963343 0.0533541 -2.24916e-20 0.0967241 -4.97894e-20 -0.000389829)
(-0.122688 0.0900817 2.45979e-20 0.124445 8.45914e-20 -0.00175642)
(-0.174849 0.140844 2.53279e-20 0.168346 1.71169e-18 0.0065031)
(-0.165367 0.282362 2.04539e-19 0.179308 -1.2324e-18 -0.0139401)
(-0.138284 0.250081 4.78717e-19 0.13242 -8.39999e-19 0.0058635)
(0.00120487 -0.00142136 -1.32796e-21 -0.00121416 -2.32678e-21 9.28799e-06)
(0.000456397 -0.00165958 7.02573e-21 -0.000439898 1.1987e-20 -1.64989e-05)
(-0.000212529 -0.00167793 -3.50688e-21 0.000221155 -8.41997e-21 -8.62679e-06)
(-0.000820553 -0.00162045 -3.14709e-21 0.00081228 -9.13983e-21 8.27251e-06)
(-0.000410805 -0.000652628 2.02713e-21 0.000414531 5.1661e-21 -3.72579e-06)
(0.000770409 8.5463e-05 -1.97055e-21 -0.000750803 -1.91128e-21 -1.96055e-05)
(0.0456065 0.00843767 -2.66972e-20 -0.0455688 -2.75294e-20 -3.76525e-05)
(0.277113 0.0168228 -9.20704e-20 -0.279576 1.19415e-19 0.00246312)
(0.621696 -0.055377 -1.96309e-19 -0.620496 -1.86993e-19 -0.00119938)
(0.640657 -0.205086 -3.91774e-19 -0.644574 -1.0724e-18 0.00391747)
(0.353135 -0.249718 4.31438e-19 -0.360519 6.62564e-19 0.00738415)
(0.152449 -0.163284 6.63777e-19 -0.142494 -9.31329e-19 -0.00995509)
(0.0833487 -0.113074 -8.8904e-19 -0.0794469 6.86006e-19 -0.00390182)
(0.0533638 -0.0805303 4.08757e-19 -0.0532753 1.17861e-18 -8.84344e-05)
(0.0358176 -0.0653488 5.86762e-21 -0.0363087 5.19924e-19 0.00049111)
(0.0251215 -0.0542714 -2.46278e-19 -0.0253662 -9.46867e-20 0.000244716)
(0.0183628 -0.0477043 1.79543e-19 -0.01836 -1.0006e-18 -2.75436e-06)
(0.0142279 -0.0431046 -3.58642e-20 -0.0142017 6.4926e-19 -2.62047e-05)
(0.0113937 -0.0404284 8.18779e-20 -0.0113494 -1.24026e-19 -4.43158e-05)
(0.00950442 -0.039137 5.10814e-20 -0.00949425 2.26845e-19 -1.017e-05)
(0.00805894 -0.0386752 -7.36314e-20 -0.00804366 -3.26957e-19 -1.52881e-05)
(0.00719808 -0.0386798 3.62612e-20 -0.00717939 1.36367e-20 -1.86951e-05)
(0.00693389 -0.0391607 1.132e-20 -0.00691914 1.10944e-19 -1.4741e-05)
(0.00690201 -0.0402007 -3.31662e-19 -0.00689488 -3.76109e-19 -7.13148e-06)
(0.00686942 -0.0415602 3.77989e-19 -0.00686633 -8.81555e-19 -3.08374e-06)
(0.00664831 -0.0430368 3.14332e-20 -0.0066491 -4.67233e-19 7.94971e-07)
(0.00596704 -0.0444039 -5.87502e-19 -0.00596335 -4.70515e-19 -3.6893e-06)
(0.00450092 -0.0453409 9.18846e-20 -0.00450036 -1.05433e-18 -5.56642e-07)
(0.00178531 -0.0454342 9.48277e-19 -0.00178044 -1.35049e-19 -4.87243e-06)
(-0.00266917 -0.0442051 3.41367e-19 0.00266469 1.53056e-18 4.4818e-06)
(-0.00943849 -0.041037 -4.61967e-19 0.0094312 -8.33776e-19 7.2891e-06)
(-0.0190198 -0.0351951 -5.49511e-19 0.0190057 7.0559e-19 1.4153e-05)
(-0.0319134 -0.0258089 -1.5276e-19 0.0319263 -3.48546e-18 -1.29046e-05)
(-0.0487084 -0.0118021 9.77363e-19 0.048719 -2.1885e-18 -1.05613e-05)
(-0.0702084 0.00826889 7.34032e-19 0.0700946 -1.97595e-18 0.000113761)
(-0.0963418 0.0367981 -2.27226e-19 0.0959999 -4.13605e-20 0.000341863)
(-0.124344 0.0768642 1.26276e-19 0.124823 1.56094e-18 -0.000478079)
(-0.15444 0.128682 -4.35504e-20 0.156201 -8.58696e-19 -0.00176039)
(-0.206665 0.19568 -5.25264e-19 0.199718 8.33892e-19 0.00694679)
(-0.196893 0.357619 -6.13882e-19 0.211574 1.91182e-18 -0.0146813)
(-0.116148 0.344827 -2.39092e-19 0.111111 -1.0267e-18 0.00503785)
(0.000932192 -0.000974414 -3.53916e-22 -0.000938189 -6.25472e-22 5.99759e-06)
(0.000457035 -0.00120928 9.10428e-22 -0.000456736 8.34123e-22 -2.98381e-07)
(1.52431e-05 -0.00122355 -3.80485e-21 -1.32963e-05 -5.08321e-21 -1.94678e-06)
(-0.00041492 -0.00122551 -5.83166e-21 0.000418428 -7.21807e-21 -3.50799e-06)
(-0.000744571 -0.00109317 -1.99464e-21 0.000741208 -2.3358e-21 3.36357e-06)
(-0.000403683 -0.000484521 5.05986e-21 0.000402894 7.09273e-21 7.88433e-07)
(0.000292584 -8.84052e-05 -1.40961e-21 -0.000282332 -2.21278e-21 -1.02526e-05)
(0.0206612 0.00233852 2.22296e-20 -0.0205717 2.44899e-20 -8.94866e-05)
(0.182393 0.00565714 2.564e-19 -0.183183 2.46664e-19 0.000789989)
(0.535901 -0.0506361 -1.88949e-19 -0.53802 4.53868e-19 0.00211934)
(0.737968 -0.188961 -3.40562e-19 -0.734513 7.07076e-19 -0.00345552)
(0.559278 -0.312499 3.23533e-19 -0.571647 -1.19409e-18 0.0123687)
(0.270255 -0.263425 4.67885e-19 -0.269665 1.47302e-18 -0.00059006)
(0.132058 -0.171547 -8.60165e-19 -0.122106 -3.54725e-19 -0.00995147)
(0.0790476 -0.123386 3.76628e-19 -0.0763778 -1.46438e-18 -0.00266974)
(0.0537091 -0.0954516 -2.48278e-19 -0.0541743 8.471e-19 0.000465182)
(0.036909 -0.0802827 1.67975e-19 -0.0373468 8.47813e-19 0.000437728)
(0.0266405 -0.069981 1.70596e-19 -0.0269142 4.35433e-19 0.00027371)
(0.0197978 -0.063631 -9.10899e-20 -0.0197784 3.87838e-19 -1.94173e-05)
(0.015582 -0.0600543 9.19434e-21 -0.0155577 -1.13238e-18 -2.42853e-05)
(0.0126956 -0.0583146 2.60366e-20 -0.0126487 4.86869e-19 -4.68817e-05)
(0.0111234 -0.0576831 -1.50344e-19 -0.0110879 -1.12245e-20 -3.54818e-05)
(0.0106548 -0.0579925 1.49513e-19 -0.0106343 -5.3805e-19 -2.04638e-05)
(0.0106755 -0.0592055 2.24426e-19 -0.0106632 -7.84919e-20 -1.22858e-05)
(0.0108445 -0.0609623 -2.09674e-19 -0.0108401 1.14356e-18 -4.36808e-06)
(0.0108396 -0.0629573 -3.50954e-19 -0.0108387 -9.98411e-19 -8.09762e-07)
(0.010287 -0.0648727 4.69432e-19 -0.0102877 -5.96112e-19 7.62739e-07)
(0.00874091 -0.0662339 2.128e-19 -0.0087439 1.77991e-18 2.99394e-06)
(0.00559667 -0.0664113 1.53499e-19 -0.00559681 1.93937e-18 1.39306e-07)
(0.000207884 -0.0646819 -2.31796e-19 -0.000215323 -3.45478e-19 7.43872e-06)
(-0.0081478 -0.0601334 -9.65601e-21 0.00813462 -1.27651e-18 1.31826e-05)
(-0.0200993 -0.0517193 -4.77121e-19 0.0200794 -3.80188e-19 1.99116e-05)
(-0.0361738 -0.0382889 -2.19383e-19 0.0361791 1.64036e-18 -5.35589e-06)
(-0.0569553 -0.0184129 1.30881e-19 0.0569542 2.5106e-18 1.16479e-06)
(-0.083085 0.00975443 1.60656e-18 0.0829253 7.85124e-19 0.000159705)
(-0.113921 0.0490979 1.09113e-19 0.113552 -8.78261e-19 0.000368852)
(-0.145357 0.103022 -1.92099e-18 0.145909 -7.51097e-19 -0.000551578)
(-0.175758 0.170385 2.60339e-19 0.177202 -2.66705e-19 -0.00144422)
(-0.219752 0.252482 -1.22231e-19 0.213385 -1.96029e-18 0.00636748)
(-0.206083 0.415722 -1.40944e-19 0.219014 6.34144e-19 -0.0129304)
(-0.100658 0.419201 5.11688e-19 0.099572 1.73203e-18 0.00108631)
(0.000706355 -0.000684985 -7.3712e-23 -0.00071249 -3.491e-23 6.13466e-06)
(0.000423899 -0.000869292 -1.39748e-21 -0.000422437 -1.98329e-21 -1.46216e-06)
(0.000125909 -0.000945809 1.32243e-21 -0.000123868 2.0615e-21 -2.04105e-06)
(-0.000158906 -0.000909477 6.38914e-21 0.000162501 8.77583e-21 -3.59425e-06)
(-0.000446031 -0.000877636 1.17843e-21 0.00045111 1.6834e-21 -5.07907e-06)
(-0.000658037 -0.000776977 1.08181e-21 0.000657338 4.38631e-22 6.99523e-07)
(-0.000397267 -0.000380046 -7.81825e-21 0.00039482 -8.62441e-21 2.44692e-06)
(4.54305e-06 -0.00017087 -3.4655e-22 -5.91841e-07 -2.05628e-22 -3.95121e-06)
(0.00536378 4.84405e-05 -1.15662e-20 -0.00531572 -1.70375e-20 -4.80684e-05)
(0.0948481 -0.000559452 1.81383e-19 -0.0948837 2.0627e-19 3.56005e-05)
(0.37536 -0.0375227 -2.94607e-19 -0.377059 -7.48036e-19 0.00169869)
(0.714385 -0.160825 -1.03245e-19 -0.712644 9.46784e-19 -0.00174131)
(0.743747 -0.319691 1.43857e-19 -0.746697 -1.12652e-18 0.0029503)
(0.469426 -0.371597 -3.69203e-19 -0.482988 -4.37697e-19 0.0135621)
(0.224739 -0.271086 1.03719e-18 -0.21826 -3.04134e-19 -0.00647925)
(0.119875 -0.185085 4.15189e-19 -0.110888 9.2579e-19 -0.00898678)
(0.0766508 -0.138183 -4.06421e-19 -0.0746469 5.49683e-19 -0.00200385)
(0.0533963 -0.112907 -4.26909e-19 -0.0541442 5.04084e-19 0.000747912)
(0.0373215 -0.0981679 -6.86344e-19 -0.0377813 -4.00924e-20 0.000459849)
(0.0272029 -0.0890851 5.6164e-19 -0.0274897 -6.84922e-19 0.000286741)
(0.0205772 -0.0840313 1.98013e-19 -0.020565 9.49656e-19 -1.21961e-05)
(0.017183 -0.0818927 -3.90528e-19 -0.0171168 -2.28155e-19 -6.62582e-05)
(0.0160439 -0.0817611 1.43682e-19 -0.0159876 3.89516e-19 -5.62566e-05)
(0.0160045 -0.0833252 1.04786e-19 -0.0159542 2.67881e-19 -5.03189e-05)
(0.0164799 -0.0858563 2.20941e-20 -0.0164524 -4.16905e-19 -2.75228e-05)
(0.016913 -0.0887485 -2.65537e-20 -0.0168937 5.87349e-19 -1.93352e-05)
(0.0167851 -0.0915918 3.78312e-19 -0.0167751 1.51094e-18 -1.00252e-05)
(0.0155241 -0.0937766 3.27967e-19 -0.0155251 -5.93982e-19 9.62795e-07)
(0.012367 -0.0943413 -5.23556e-19 -0.0123797 5.22718e-20 1.2661e-05)
(0.00652479 -0.0922638 -1.07433e-18 -0.00655348 -1.22967e-18 2.86908e-05)
(-0.00287639 -0.086262 3.12663e-19 0.00283917 5.81078e-20 3.72198e-05)
(-0.0165751 -0.0749303 6.38007e-19 0.0165262 -1.17995e-18 4.88958e-05)
(-0.0350508 -0.0567646 6.99077e-19 0.0350229 3.63012e-19 2.79176e-05)
(-0.0587041 -0.0300238 -5.45545e-19 0.0586586 -1.57901e-19 4.54992e-05)
(-0.0877662 0.00745234 -9.22483e-19 0.0875484 1.70123e-18 0.000217836)
(-0.120726 0.0586488 -6.03942e-19 0.120364 -1.58992e-18 0.000362282)
(-0.152207 0.126379 1.22694e-18 0.152756 -2.92441e-19 -0.000549042)
(-0.178718 0.207457 -8.30304e-20 0.179643 4.29101e-19 -0.000924438)
(-0.20811 0.300634 3.27202e-19 0.203303 -3.94376e-19 0.00480635)
(-0.188261 0.447946 -4.69298e-19 0.197891 -8.11096e-19 -0.00962954)
(-0.0823022 0.458973 -5.41079e-19 0.0856785 5.6032e-19 -0.00337631)
(0.000538204 -0.000489785 -2.1916e-22 -0.000542585 -9.95784e-23 4.38149e-06)
(0.000359296 -0.000624856 -1.22545e-21 -0.000358419 -1.83523e-21 -8.76644e-07)
(0.000171015 -0.000703527 5.03846e-21 -0.000170426 5.83433e-21 -5.8903e-07)
(-2.86077e-05 -0.000718682 -5.99058e-22 2.86904e-05 -1.00887e-21 -8.26885e-08)
(-0.000216398 -0.000663165 1.81906e-21 0.000218094 1.68969e-21 -1.69625e-06)
(-0.000421135 -0.000637179 -1.63808e-21 0.000425318 -1.44446e-21 -4.18343e-06)
(-0.000531554 -0.000521112 3.92559e-21 0.000532816 5.39565e-21 -1.26218e-06)
(-0.000379087 -0.000298754 3.18405e-21 0.00037709 2.59115e-21 1.99608e-06)
(-0.000179421 -0.000199034 2.54085e-23 0.000179584 1.05253e-21 -1.62624e-07)
(0.000356237 -8.37783e-05 4.30234e-21 -0.00035131 3.7591e-21 -4.92687e-06)
(0.0336822 -0.00200644 -5.14332e-21 -0.0335727 6.08511e-21 -0.000109555)
(0.204472 -0.0234857 -3.31741e-19 -0.204835 -2.18997e-19 0.000362929)
(0.547061 -0.116487 2.16882e-19 -0.548297 -4.2774e-19 0.00123573)
(0.80159 -0.27912 -5.29228e-19 -0.797898 1.02008e-18 -0.00369218)
(0.70137 -0.421195 -2.72538e-19 -0.710762 -1.02667e-18 0.00939226)
(0.405272 -0.408645 5.9021e-19 -0.416967 8.06471e-19 0.0116951)
(0.200531 -0.287512 3.82571e-19 -0.191366 -1.69636e-18 -0.00916507)
(0.112688 -0.204183 1.64061e-19 -0.104046 6.43214e-19 -0.00864153)
(0.0749312 -0.15867 -8.15206e-19 -0.0731624 -1.2447e-18 -0.00176882)
(0.0525884 -0.134806 3.38066e-19 -0.0534834 1.2904e-18 0.000895081)
(0.0370573 -0.121718 7.23942e-20 -0.0375932 -9.57539e-19 0.000535921)
(0.0284575 -0.115328 -3.65885e-19 -0.0287196 4.81657e-19 0.000262118)
(0.0246229 -0.113207 2.76334e-19 -0.0246414 -4.15441e-21 1.85371e-05)
(0.0234846 -0.114299 -5.82516e-20 -0.0233792 2.78364e-20 -0.000105315)
(0.0239435 -0.117604 -1.02032e-19 -0.0238592 8.27206e-19 -8.4262e-05)
(0.0249703 -0.12191 1.11586e-19 -0.0249004 -1.99296e-19 -6.99653e-05)
(0.025706 -0.126283 -8.65634e-19 -0.0256603 5.09519e-21 -4.56471e-05)
(0.0253433 -0.129692 -4.02085e-19 -0.0253147 2.11072e-19 -2.86539e-05)
(0.0229919 -0.131076 -2.0024e-19 -0.0229846 -1.33193e-18 -7.28849e-06)
(0.0177044 -0.129049 1.06824e-18 -0.0177246 9.2411e-20 2.01915e-05)
(0.0084742 -0.121875 1.4508e-19 -0.00852939 8.90665e-19 5.51889e-05)
(-0.00551469 -0.107714 3.4173e-19 0.00541353 9.8325e-19 0.000101163)
(-0.0246413 -0.084633 -6.95335e-19 0.0245294 3.16577e-19 0.000111948)
(-0.0489651 -0.0506745 6.28734e-19 0.0488214 -1.39486e-18 0.000143682)
(-0.0780247 -0.00363585 2.95759e-19 0.0777282 -1.5098e-19 0.000296523)
(-0.109337 0.0589134 1.16562e-18 0.108994 3.2526e-19 0.00034262)
(-0.136654 0.13812 -1.91761e-18 0.137086 6.51052e-19 -0.000431632)
(-0.155183 0.228448 1.09407e-19 0.155632 2.49354e-20 -0.00044961)
(-0.167315 0.32521 3.00453e-19 0.164496 5.04326e-19 0.00281907)
(-0.141833 0.444254 7.38304e-19 0.147826 -1.56333e-20 -0.00599301)
(-0.054149 0.453531 -2.31184e-19 0.0604843 -1.16284e-18 -0.00633527)
(0.000408795 -0.000354414 -8.70856e-22 -0.00041198 -1.01488e-21 3.18521e-06)
(0.000291662 -0.000452638 3.56779e-21 -0.000291561 3.80547e-21 -1.01209e-07)
(0.000170245 -0.000516399 -8.18702e-22 -0.000170138 -8.85019e-22 -1.07678e-07)
(3.8238e-05 -0.000549655 -6.58927e-21 -3.82697e-05 -7.0777e-21 3.17807e-08)
(-9.73501e-05 -0.00053947 -5.94736e-22 9.72641e-05 -7.18945e-22 8.59641e-08)
(-0.000222133 -0.000487327 6.55297e-21 0.000223065 7.13667e-21 -9.31982e-07)
(-0.000362725 -0.000452915 -1.74418e-21 0.000365663 -2.40135e-21 -2.938e-06)
(-0.000419698 -0.000349274 -1.46016e-20 0.000421739 -1.4602e-20 -2.04135e-06)
(-0.000346069 -0.000227457 1.07841e-20 0.000345321 1.04107e-20 7.48649e-07)
(-0.00025421 -0.000173433 5.29108e-22 0.000252656 -6.34646e-22 1.55413e-06)
(9.02323e-05 -0.000369497 -1.44688e-21 -8.54959e-05 -2.46986e-21 -4.73642e-06)
(0.00737539 -0.00126719 -9.9093e-21 -0.00732176 -5.33978e-21 -5.36347e-05)
(0.0821013 -0.0120681 -1.89343e-19 -0.0820086 -1.21419e-19 -9.27171e-05)
(0.31922 -0.0680525 1.79553e-19 -0.31986 -1.42841e-19 0.000640441)
(0.66551 -0.208467 -6.93607e-19 -0.665208 6.96068e-19 -0.000302126)
(0.829819 -0.385501 6.56752e-19 -0.826769 -4.17794e-19 -0.00305012)
(0.658082 -0.497827 -5.54358e-19 -0.671252 8.15933e-19 0.0131702)
(0.370229 -0.446066 -1.24657e-19 -0.380481 -2.48141e-19 0.0102517)
(0.189029 -0.316743 -2.60369e-19 -0.179155 -3.92744e-19 -0.00987399)
(0.108306 -0.231617 3.27111e-19 -0.0990715 -1.15602e-18 -0.00923403)
(0.0728432 -0.187507 5.05363e-19 -0.0707189 3.89007e-19 -0.00212432)
(0.0533747 -0.166998 -2.75405e-19 -0.0543639 -1.1178e-18 0.000989254)
(0.0420806 -0.158338 -2.44671e-19 -0.0429947 5.01494e-19 0.000914141)
(0.0365226 -0.156458 7.81667e-19 -0.0369503 -6.3963e-19 0.000427763)
(0.0348567 -0.159187 -4.67352e-19 -0.0349759 5.98108e-20 0.000119287)
(0.0355069 -0.164481 -6.12753e-19 -0.0354045 -3.93961e-19 -0.000102336)
(0.0371181 -0.170919 1.11534e-18 -0.0369753 -1.56151e-18 -0.000142801)
(0.0384193 -0.176712 -3.99135e-20 -0.03829 1.18758e-18 -0.000129302)
(0.0381121 -0.17996 -1.02142e-21 -0.0380259 -8.28892e-20 -8.62408e-05)
(0.0349735 -0.178578 -6.79814e-19 -0.0349417 1.16407e-18 -3.17465e-05)
(0.0279197 -0.170526 8.60944e-20 -0.0279459 -7.08958e-19 2.61311e-05)
(0.0161829 -0.153857 -4.05415e-20 -0.0162672 3.91755e-19 8.43303e-05)
(-0.00055025 -0.126391 -7.60971e-19 0.000412081 -6.27506e-19 0.000138168)
(-0.0220094 -0.0859541 4.01535e-19 0.0217792 1.91717e-18 0.000230221)
(-0.0469113 -0.0306535 -6.3601e-19 0.0465197 3.65579e-19 0.000391595)
(-0.0720114 0.0406546 -5.17002e-19 0.0716196 -1.77172e-20 0.000391795)
(-0.0909605 0.126695 8.82225e-19 0.0911298 -2.07902e-18 -0.000169247)
(-0.0986938 0.219703 -2.40155e-19 0.0988254 9.28395e-19 -0.000131579)
(-0.0952494 0.31103 -1.87121e-19 0.0941843 -9.52748e-19 0.00106515)