/*--------------------------------*- C++ -*----------------------------------*\
| =========                 |                                                 |
| \\      /  F ield         | OpenFOAM: The Open Source CFD Toolbox           |
|  \\    /   O peration     | Version:  2312                                  |
|   \\  /    A nd           | Website:  www.openfoam.com                      |
|    \\/     M anipulation  |                                                 |
\*---------------------------------------------------------------------------*/
FoamFile
{
    version     2.0;
    format      ascii;
    arch        "LSB;label=32;scalar=64";
    class       volSymmTensorField;
    location    "450";
    object      turbulenceProperties:R;
}
// * * * * * * * * * * * * * * * * * * * * * * * * * * * * * * * * * * * * * //

dimensions      [0 2 -2 0 0 0 0];

internalField   nonuniform List<symmTensor> 
11040
(
(0.294281 0.0795167 -2.63626e-22 0.258458 1.10691e-20 0.288996)
(0.347726 0.0745262 7.99339e-21 0.226963 1.23613e-19 0.302892)
(0.0477282 0.00521712 -2.01901e-20 0.0363776 5.42496e-20 0.0405327)
(0.032424 0.0116542 -7.80006e-20 0.0462084 3.86992e-20 0.0391437)
(0.139074 0.0548189 -2.39738e-20 0.294309 2.20912e-19 0.216043)
(0.146044 0.064445 -3.28414e-19 0.280389 1.22345e-19 0.21252)
(0.147705 0.0685363 1.90013e-19 0.261891 -1.24291e-18 0.204795)
(0.142979 0.0676366 2.64225e-19 0.237289 -1.7657e-19 0.190252)
(0.137438 0.0653419 1.14204e-19 0.214204 -3.19043e-20 0.17599)
(0.135281 0.0642858 1.06657e-19 0.199296 1.69773e-19 0.1676)
(0.13278 0.0626671 -9.46736e-20 0.186203 4.00535e-19 0.159756)
(0.130877 0.0611831 -1.41122e-19 0.17522 3.1417e-19 0.153343)
(0.129699 0.0599104 2.56069e-20 0.166199 -1.74775e-19 0.148277)
(0.12943 0.0590174 2.98532e-20 0.159255 1.80008e-19 0.144652)
(0.13011 0.0585144 -1.30001e-20 0.153895 1.12055e-20 0.142338)
(0.132467 0.0587845 -3.16805e-21 0.150925 -2.24313e-19 0.142022)
(0.136881 0.0599938 6.22656e-20 0.150377 1.03978e-21 0.143964)
(0.143535 0.062181 -7.53612e-21 0.152189 4.12385e-19 0.14821)
(0.152144 0.0651411 -3.48444e-20 0.155785 3.85522e-21 0.154325)
(0.162763 0.0688383 6.09105e-21 0.160997 -5.96848e-20 0.162261)
(0.175703 0.0733572 2.71666e-20 0.167954 4.46214e-20 0.172205)
(0.190427 0.0785607 -3.12141e-20 0.176548 1.34292e-19 0.183845)
(0.206776 0.0845029 2.80214e-21 0.187022 -1.08309e-19 0.197276)
(0.22542 0.091335 1.44545e-20 0.199482 2.88037e-19 0.212854)
(0.246523 0.0990531 -8.56071e-20 0.213804 -2.5679e-19 0.23057)
(0.270841 0.107989 -4.70237e-20 0.230624 -6.02263e-19 0.251116)
(0.298523 0.118179 1.3382e-20 0.249954 -2.80214e-19 0.274588)
(0.326589 0.128382 4.36664e-20 0.269332 8.61692e-20 0.29825)
(0.352766 0.137706 -2.2779e-20 0.286965 -2.2661e-19 0.320069)
(0.374686 0.145287 1.14241e-20 0.301139 -5.33675e-19 0.337995)
(0.389495 0.150092 1.31618e-19 0.30979 3.6959e-19 0.349587)
(0.394149 0.151029 2.67138e-22 0.310746 -5.42591e-20 0.352246)
(0.386357 0.147255 8.70806e-20 0.302295 1.03955e-18 0.343976)
(0.365707 0.138756 -1.05332e-19 0.284458 6.12335e-19 0.324576)
(0.333506 0.126251 3.41608e-20 0.258688 1.80352e-20 0.295462)
(0.298047 0.113178 1.10557e-19 0.231888 9.08862e-19 0.264103)
(0.236272 0.0907027 1.8542e-20 0.186795 2.80229e-19 0.210176)
(0.116071 0.0452876 -5.93206e-20 0.0965844 4.94382e-19 0.104899)
(0.0562815 0.0248586 -4.48339e-19 0.0571127 -1.17309e-18 0.0563216)
(0.0342865 -0.0157619 -1.83628e-20 0.0600028 -1.1196e-18 0.0446762)
(0.0931179 -0.00736405 2.48124e-19 0.231828 6.77841e-20 0.150192)
(0.0252551 -0.00188313 2.2333e-22 0.0220824 -5.96854e-22 0.0228706)
(0.0627595 0.00261577 2.23291e-20 0.0401029 2.54354e-21 0.0432621)
(0.210809 0.0291617 6.48196e-20 0.117049 -2.70826e-19 0.166644)
(0.440936 0.0340902 9.00743e-20 0.182023 -1.87689e-19 0.311276)
(0.822392 -0.0244933 9.62179e-20 0.314008 -5.4171e-19 0.56765)
(0.231008 -0.0479362 6.01851e-19 0.111635 -1.26654e-18 0.168528)
(0.0713665 -0.0185331 -8.85232e-19 0.0394499 3.47859e-18 0.0531427)
(0.0227875 -0.00720884 -8.87804e-19 0.0145095 2.28365e-18 0.0182713)
(0.00533591 -0.00208874 -8.08158e-20 0.00453224 -1.74416e-19 0.00456241)
(0.0031148 0.00144176 -1.1199e-19 0.00540198 4.24532e-20 0.00395535)
(0.00779662 0.00379675 4.88863e-19 0.0121569 -1.2209e-18 0.00951449)
(0.0108316 0.00530328 -9.26024e-21 0.0157961 -8.90264e-20 0.0127716)
(0.0132788 0.00648885 -1.7859e-19 0.0179303 7.1329e-19 0.0151378)
(0.0151872 0.00734463 -1.23888e-19 0.019489 2.39312e-20 0.016839)
(0.0168639 0.00804389 -4.53715e-20 0.0204714 -1.72189e-19 0.0182033)
(0.0184113 0.00864503 1.04747e-20 0.0213172 6.01361e-19 0.0193955)
(0.0200461 0.00925603 -1.71192e-20 0.0221859 1.97181e-19 0.0206455)
(0.0218618 0.00991746 -1.22821e-20 0.0231732 -5.54253e-19 0.0220359)
(0.0237358 0.0105689 -2.4544e-20 0.0241446 -2.57665e-20 0.023435)
(0.025696 0.011214 -7.37922e-21 0.0250746 8.20139e-20 0.0248734)
(0.027788 0.0118654 -1.04774e-20 0.0260053 -1.11709e-20 0.0263848)
(0.0301628 0.0125981 3.45882e-20 0.0271357 -2.71884e-19 0.0281327)
(0.0322838 0.0132273 2.02971e-20 0.0281367 3.89012e-19 0.0296624)
(0.0335622 0.0135109 -4.82295e-20 0.0284523 -3.54265e-19 0.0304463)
(0.0337549 0.0133674 -8.8026e-21 0.0279083 2.83369e-19 0.0302951)
(0.0332229 0.0129689 7.79228e-20 0.0268743 9.35909e-19 0.0295572)
(0.0326264 0.0125912 1.43624e-19 0.0259144 5.17373e-19 0.0288373)
(0.031056 0.0119045 -4.74506e-20 0.0243742 1.31449e-19 0.0273713)
(0.0282792 0.0108537 -9.49255e-20 0.0221456 2.75973e-19 0.0250183)
(0.0244523 0.0095355 5.2598e-20 0.019457 4.93284e-19 0.0219674)
(0.0203349 0.00824573 -9.37083e-20 0.0169761 -7.27598e-19 0.0189237)
(0.0172922 0.00750366 -2.10579e-20 0.015965 -1.24623e-18 0.0171595)
(0.0162815 0.00767135 -7.45737e-20 0.0176242 -2.49847e-18 0.0177932)
(0.0161406 0.00813002 1.10691e-19 0.0215258 -1.17987e-18 0.0200541)
(0.0182474 0.00930322 -1.056e-19 0.0289999 1.00752e-19 0.0253519)
(0.0231158 0.0115399 -3.4509e-19 0.0407888 -3.72161e-18 0.0343725)
(0.0310223 0.0152044 -1.16573e-19 0.0572698 -3.74298e-19 0.0469864)
(0.0424673 0.0203727 -4.24962e-19 0.0810212 -2.14184e-18 0.0643398)
(0.0614738 0.0276199 1.27941e-18 0.127201 5.58814e-18 0.101109)
(0.0956709 0.0464806 9.52616e-19 0.158256 5.70268e-18 0.121467)
(0.260745 -0.110606 -4.13645e-19 0.505383 -7.9315e-19 0.466732)
(0.0151006 -0.00154236 -2.06229e-22 0.0134812 -3.10342e-22 0.014423)
(0.0124811 -0.00203567 -5.1613e-21 0.0129024 -1.37749e-20 0.0125625)
(0.0371948 0.00412157 1.44065e-20 0.0234392 8.22469e-20 0.0297892)
(0.177925 0.0193304 5.72628e-20 0.0884042 9.01576e-20 0.134521)
(0.998996 0.0523464 -6.17084e-21 0.385759 -4.14903e-20 0.694518)
(1.31056 -0.0397338 -3.50876e-19 0.500339 1.34757e-18 0.903442)
(0.614919 -0.101636 1.79084e-20 0.272237 -9.27002e-21 0.441225)
(0.221998 -0.0545721 9.70293e-20 0.118152 -2.66401e-18 0.163828)
(0.104929 -0.0289727 -1.79439e-19 0.0593775 2.54912e-20 0.0814747)
(0.0658266 -0.0186121 2.63296e-19 0.0376484 -7.59699e-19 0.0522224)
(0.039405 -0.0117283 -4.78714e-19 0.0234729 1.13607e-18 0.0316883)
(0.0246633 -0.00775186 8.47115e-19 0.01546 -2.27172e-18 0.020002)
(0.0151739 -0.00450888 -4.9274e-20 0.00903161 -7.26066e-20 0.0121876)
(0.00881793 -0.00233057 1.7568e-19 0.00483272 -9.80204e-19 0.00680443)
(0.00567203 -0.00082895 2.15125e-20 0.00241803 1.02872e-18 0.00409732)
(0.00462267 0.000229171 -8.93506e-20 0.00177502 -3.92361e-19 0.00322674)
(0.00518297 0.000931602 -2.17521e-21 0.00234618 -6.60305e-19 0.00379703)
(0.00612448 0.00143355 4.79122e-20 0.00311014 -4.70637e-19 0.00464871)
(0.00698987 0.0017462 2.12759e-20 0.00368727 -2.62405e-20 0.00536395)
(0.00768949 0.0018869 2.83288e-20 0.00401407 2.966e-20 0.00587693)
(0.00823059 0.00189655 -6.25418e-22 0.00415095 8.95573e-20 0.00620842)
(0.00870078 0.00173514 -5.11518e-20 0.00410032 1.39309e-19 0.00642903)
(0.00890047 0.00127137 -3.88333e-20 0.00378435 -4.68442e-19 0.00637915)
(0.0088338 0.000450735 -4.30493e-20 0.00339868 -1.89033e-19 0.00614883)
(0.00894078 -0.000608097 9.35546e-20 0.00348193 -2.96738e-19 0.00623315)
(0.00951253 -0.0017744 -2.8418e-20 0.00437237 -2.89548e-19 0.00694745)
(0.0103255 -0.00292484 -2.51113e-19 0.00594149 2.78977e-19 0.00811125)
(0.0108775 -0.00391341 -6.27935e-20 0.00783743 -1.10938e-18 0.00928665)
(0.0106603 -0.00452152 2.06992e-19 0.00966381 2.84919e-19 0.0100235)
(0.00939262 -0.00450952 2.69414e-19 0.0112484 1.1535e-18 0.0100949)
(0.00782222 -0.0037916 -2.29757e-19 0.0135467 6.24635e-19 0.0103741)
(0.00825888 -0.00259321 4.6512e-19 0.019439 2.6976e-18 0.0134672)
(0.0119834 -0.00111907 1.41613e-19 0.0310549 7.71848e-19 0.0210511)
(0.0184055 0.00164629 -4.94149e-19 0.0478465 9.2094e-19 0.0325719)
(0.0280945 0.00605527 -4.84217e-19 0.0707302 -9.89317e-19 0.0489552)
(0.0419436 0.0128125 3.83883e-19 0.100837 1.98741e-18 0.0713169)
(0.0611201 0.0226254 4.23633e-19 0.138929 -2.14642e-18 0.0999947)
(0.0881337 0.0357216 4.289e-19 0.191527 1.95695e-18 0.139283)
(0.133644 0.055522 -4.71252e-19 0.291407 -1.00411e-18 0.219934)
(0.235549 0.114284 -1.51356e-20 0.393172 -5.58354e-19 0.301036)
(0.244448 0.0418215 4.20999e-19 0.629821 1.93844e-18 0.440402)
(0.0110137 -0.00108246 -7.42743e-23 0.00938702 -2.74314e-22 0.0102709)
(0.00876578 -0.00105435 -1.85748e-22 0.00890486 1.00624e-21 0.00893544)
(0.00663211 -0.00111547 -7.98579e-21 0.0075041 -1.89094e-20 0.00707121)
(0.0141798 0.000906496 -1.10486e-20 0.0103024 -2.23635e-20 0.0121655)
(0.2398 0.0226544 4.31716e-20 0.101057 5.05741e-20 0.171477)
(1.17167 0.0463219 2.60629e-19 0.447902 -1.53252e-20 0.815143)
(1.71865 -0.0520265 2.9177e-19 0.656194 -1.56636e-18 1.18401)
(1.08126 -0.149542 1.00913e-18 0.455704 -1.57663e-18 0.77478)
(0.423609 -0.098678 -4.60267e-19 0.218384 1.35252e-18 0.309963)
(0.225979 -0.0609236 2.56798e-19 0.126181 4.31792e-19 0.173214)
(0.138918 -0.0391464 -3.9988e-19 0.0794888 1.22757e-18 0.109257)
(0.0962881 -0.0294281 -6.35747e-19 0.0587796 1.38562e-18 0.077589)
(0.0710895 -0.0227229 5.11422e-19 0.0451112 -1.03984e-18 0.0583089)
(0.0532979 -0.0179333 -1.43844e-19 0.0356494 1.01795e-18 0.0443155)
(0.04282 -0.0147628 -2.28089e-19 0.0293431 -1.15424e-18 0.0360363)
(0.0353471 -0.012403 -1.18396e-19 0.0247008 -4.97429e-19 0.0299462)
(0.0308817 -0.010964 6.84089e-20 0.0218562 2.47535e-19 0.0263173)
(0.0279862 -0.0100138 1.31271e-19 0.0199783 1.17882e-20 0.0239455)
(0.0263958 -0.00954835 3.39173e-20 0.0190772 5.91094e-20 0.0227093)
(0.0257592 -0.00944911 -1.3076e-20 0.0189179 -8.54231e-20 0.0223296)
(0.0257394 -0.00962334 -2.8654e-20 0.0193459 -2.13706e-19 0.0225293)
(0.0264035 -0.0100236 3.49346e-20 0.0202304 -3.05823e-19 0.0232986)
(0.0279617 -0.0107299 2.70748e-20 0.0217149 -1.4059e-19 0.0248368)
(0.0302512 -0.011792 1.27646e-20 0.0239786 1.2956e-19 0.0271273)
(0.032732 -0.0130211 -7.04602e-20 0.0266785 7.65716e-19 0.029721)
(0.0350014 -0.014251 3.02719e-19 0.0294987 -8.61739e-19 0.0322697)
(0.0366309 -0.0153297 1.9211e-19 0.0321978 -6.59451e-19 0.034439)
(0.0371555 -0.0160876 2.05144e-19 0.0345583 1.61571e-18 0.0358915)
(0.036116 -0.0163382 -8.88744e-20 0.0364785 4.30635e-19 0.0363386)
(0.0333492 -0.0159256 -6.14686e-19 0.0382234 -6.27384e-19 0.0358376)
(0.0293675 -0.0147304 2.32677e-19 0.0409138 -1.13263e-18 0.0351971)
(0.0259181 -0.0125888 -5.25707e-19 0.0469616 7.04139e-19 0.036502)
(0.0258146 -0.00906403 5.56116e-19 0.0598444 -5.8787e-19 0.0428668)
(0.0317386 -0.0034352 5.39017e-19 0.0828389 -1.49244e-18 0.0572914)
(0.0454976 0.00496304 5.2231e-19 0.118768 8.74653e-19 0.0822018)
(0.0680692 0.0173206 5.15573e-19 0.169103 1.88939e-18 0.118859)
(0.100817 0.0350038 4.00714e-19 0.234172 1.95253e-18 0.167067)
(0.147199 0.058607 -6.253e-19 0.322026 -2.42488e-18 0.232531)
(0.221536 0.0933483 9.78198e-20 0.477018 -8.69942e-19 0.357705)
(0.400316 0.197015 -3.35036e-19 0.651777 -1.83954e-18 0.509782)
(0.327175 0.14841 -4.97955e-19 0.659302 -8.99585e-19 0.498755)
(0.00825145 -0.000783398 5.33778e-22 0.00703529 1.31388e-21 0.00763624)
(0.00708488 -0.000853513 -8.6589e-22 0.00679227 -1.64504e-21 0.00690873)
(0.00709039 -0.000931652 4.59261e-21 0.00766862 9.65391e-21 0.00737482)
(0.00333669 -0.000382622 5.10311e-21 0.00370494 9.20099e-21 0.00350896)
(0.00617877 0.000197034 -5.77851e-21 0.00487037 -8.69886e-21 0.00550423)
(0.215338 0.0162228 3.85109e-20 0.0870445 -1.42201e-20 0.1516)
(1.11736 0.0310914 -8.27644e-20 0.424909 -9.22233e-21 0.776754)
(1.96083 -0.0555712 -2.61891e-19 0.748303 3.60301e-19 1.34991)
(1.63055 -0.188325 4.49481e-19 0.665221 -1.94706e-19 1.15912)
(0.761647 -0.164754 1.03272e-20 0.373992 1.66329e-19 0.560923)
(0.395355 -0.104485 3.88552e-19 0.219053 -2.56992e-18 0.298714)
(0.240555 -0.0682423 -2.82448e-19 0.13873 4.35563e-19 0.188395)
(0.171306 -0.0517627 -3.19216e-19 0.103377 2.57173e-19 0.138094)
(0.126228 -0.0407975 3.86217e-19 0.0809793 -2.54699e-18 0.103808)
(0.100779 -0.0344659 3.04271e-19 0.0684008 1.58564e-19 0.0846849)
(0.0826089 -0.029406 1.86991e-19 0.0586029 1.90759e-19 0.0705375)
(0.0717292 -0.0263621 -1.79399e-19 0.0528048 6.90011e-19 0.0621977)
(0.0646018 -0.0243079 -4.94983e-21 0.0489375 1.50122e-19 0.0567237)
(0.060399 -0.0232423 4.01234e-20 0.0470863 -7.47785e-20 0.0536987)
(0.0582377 -0.0228631 5.55063e-20 0.0466211 5.54825e-20 0.0524098)
(0.0572029 -0.0228966 -1.63149e-20 0.0470518 2.57613e-19 0.0521008)
(0.0571468 -0.0231811 -9.97361e-20 0.0479281 2.52232e-19 0.0524974)
(0.0582787 -0.0237865 1.43026e-19 0.0493218 1.9338e-19 0.0537678)
(0.0604242 -0.0247969 1.58799e-19 0.0515502 4.41912e-19 0.0559688)
(0.0629321 -0.026015 -2.13843e-19 0.0542863 -1.10803e-19 0.0585975)
(0.0653027 -0.0272732 -1.57879e-19 0.0572345 2.21358e-18 0.0612658)
(0.0669278 -0.0283906 9.35911e-20 0.0601521 -3.26528e-20 0.063537)
(0.0671246 -0.0291473 -3.4083e-19 0.0627756 -8.95137e-19 0.0649573)
(0.0651445 -0.0292851 -5.36558e-19 0.0650083 -1.7192e-18 0.0650838)
(0.0605287 -0.0285265 4.2496e-19 0.0670746 -7.0506e-19 0.0638222)
(0.0534385 -0.0265154 9.77818e-20 0.0700189 1.89286e-18 0.0617514)
(0.0456973 -0.0227857 2.9907e-19 0.0764346 -1.15373e-18 0.0610971)
(0.0417305 -0.0166824 -3.89955e-19 0.091592 3.23074e-18 0.0666606)
(0.047377 -0.00740376 -1.06243e-18 0.122261 1.64915e-19 0.0848102)
(0.0662497 0.00608423 -4.31477e-19 0.173471 6.80011e-19 0.11998)
(0.0994381 0.0255536 -5.77826e-19 0.246709 8.1843e-19 0.173484)
(0.148506 0.0532613 -2.24525e-20 0.341229 -4.97028e-20 0.244284)
(0.21683 0.0899379 2.45587e-20 0.463568 8.44563e-20 0.337569)
(0.318492 0.14064 2.52912e-20 0.66119 1.70921e-18 0.499582)
(0.570474 0.281998 2.04275e-19 0.914704 -1.23081e-18 0.721706)
(0.493415 0.24982 4.78217e-19 0.763836 -8.39123e-19 0.637412)
(0.00597036 -0.000539491 -5.04038e-22 0.0050522 -8.83148e-22 0.00551657)
(0.00526369 -0.000635711 2.69125e-21 0.00492036 4.59169e-21 0.00508254)
(0.00489627 -0.000624745 -1.30572e-21 0.00505775 -3.13502e-21 0.00497219)
(0.00508453 -0.000641267 -1.24541e-21 0.0057307 -3.61695e-21 0.00541253)
(0.00154823 -9.18552e-05 2.85312e-22 0.00166439 7.27111e-22 0.00160553)
(0.00150303 9.2411e-06 -2.13075e-22 0.00133854 -2.06666e-22 0.00141761)
(0.144171 0.00800767 -2.53366e-20 0.0576424 -2.61264e-20 0.100853)
(0.885693 0.0166078 -9.08936e-20 0.336119 1.17889e-19 0.614554)
(1.99641 -0.0550727 -1.9523e-19 0.761048 -1.85965e-19 1.37694)
(2.13232 -0.204377 -3.90418e-19 0.851536 -1.06869e-18 1.49778)
(1.31736 -0.248975 4.30153e-19 0.605831 6.60591e-19 0.972639)
(0.640692 -0.162821 6.61896e-19 0.346585 -9.2869e-19 0.478748)
(0.392116 -0.112753 -8.86516e-19 0.229783 6.84059e-19 0.305114)
(0.267211 -0.0802956 4.07565e-19 0.160883 1.17517e-18 0.213915)
(0.201078 -0.0651499 5.84976e-21 0.129171 5.18342e-19 0.165859)
(0.157633 -0.0540985 -2.45493e-19 0.107306 -9.43852e-20 0.132835)
(0.13152 -0.0475472 1.78952e-19 0.0949183 -9.97303e-19 0.113215)
(0.114701 -0.0429586 -3.57427e-20 0.0863678 6.47061e-19 0.100495)
(0.104361 -0.0402889 8.15953e-20 0.0816959 -1.23598e-19 0.092962)
(0.0986575 -0.039001 5.09039e-20 0.0797249 2.26056e-19 0.089176)
(0.0955145 -0.0385409 -7.33756e-20 0.0794679 -3.25821e-19 0.0874683)
(0.0943005 -0.0385467 3.61365e-20 0.0799724 1.35898e-20 0.0871085)
(0.0949892 -0.0390292 1.1282e-20 0.0811827 1.10571e-19 0.0880639)
(0.0972285 -0.0400709 -3.30591e-19 0.0834761 -3.74894e-19 0.0903416)
(0.100171 -0.0414329 3.7683e-19 0.0864772 -8.78855e-19 0.0933194)
(0.103124 -0.0429133 3.13429e-20 0.0898646 -4.65892e-19 0.0964954)
(0.105248 -0.0442856 -5.85937e-19 0.0933494 -4.69261e-19 0.0992932)
(0.105494 -0.0452296 9.16589e-20 0.0965151 -1.05174e-18 0.101004)
(0.102596 -0.0453317 9.46139e-19 0.0990386 -1.34744e-19 0.10081)
(0.0955454 -0.0441138 3.40662e-19 0.100868 1.5274e-18 0.0982135)
(0.0839748 -0.0409593 -4.61092e-19 0.102809 -8.32196e-19 0.0934027)
(0.0697526 -0.0351339 -5.48555e-19 0.107712 7.04363e-19 0.0887535)
(0.0592105 -0.0257676 -1.52516e-19 0.122948 -3.47988e-18 0.09106)
(0.0625835 -0.0117847 9.75919e-19 0.159867 -2.18527e-18 0.111209)
(0.086645 0.00825758 7.33028e-19 0.226756 -1.97325e-18 0.156871)
(0.132317 0.0367515 -2.26937e-19 0.324414 -4.1308e-20 0.228878)
(0.200727 0.0767737 1.26127e-19 0.449601 1.5591e-18 0.324448)
(0.293504 0.128542 -4.3503e-20 0.603807 -8.57761e-19 0.446018)
(0.420221 0.195485 -5.2474e-19 0.826199 8.33061e-19 0.63362)
(0.718945 0.357299 -6.13333e-19 1.12705 1.91011e-18 0.900993)
(0.690323 0.344569 -2.38913e-19 0.917412 -1.02593e-18 0.811419)
(0.00434349 -0.000369893 -1.34349e-22 0.00363349 -2.37433e-22 0.00399191)
(0.00399532 -0.000460464 3.46667e-22 0.00364738 3.17612e-22 0.00382118)
(0.00361288 -0.000460349 -1.43154e-21 0.00360214 -1.91251e-21 0.00360641)
(0.00368387 -0.000477198 -2.27077e-21 0.00400836 -2.81062e-21 0.00384407)
(0.00359795 -0.000399932 -7.2973e-22 0.00414151 -8.54542e-22 0.00387158)
(0.000713509 -1.91281e-05 1.99756e-22 0.000745352 2.8001e-22 0.000729477)
(5.24949e-05 -7.59252e-08 -1.21062e-24 5.20011e-05 -1.9004e-24 5.22348e-05)
(0.0653019 0.00217001 2.06278e-20 0.0270402 2.27252e-20 0.0460465)
(0.580634 0.00557592 2.52719e-19 0.220306 2.43122e-19 0.401638)
(1.72484 -0.0503537 -1.87895e-19 0.656907 4.51337e-19 1.19403)
(2.41947 -0.188364 -3.39487e-19 0.951643 7.04843e-19 1.68039)
(1.99077 -0.311746 3.22753e-19 0.862573 -1.19122e-18 1.44518)
(1.10601 -0.262843 4.66852e-19 0.567281 1.46977e-18 0.835762)
(0.606343 -0.171181 -8.58326e-19 0.352722 -3.53967e-19 0.464637)
(0.402353 -0.123122 3.75824e-19 0.247259 -1.46126e-18 0.32081)
(0.296712 -0.0952446 -2.4774e-19 0.189063 8.45262e-19 0.243583)
(0.232956 -0.0801042 1.67602e-19 0.158866 8.45929e-19 0.196566)
(0.192712 -0.0698213 1.70207e-19 0.139279 4.34439e-19 0.166405)
(0.167491 -0.0634834 -9.08786e-20 0.128006 3.86938e-19 0.14772)
(0.153091 -0.0599142 9.17288e-21 0.122024 -1.12973e-18 0.137521)
(0.14497 -0.0581787 2.59759e-20 0.119685 4.85735e-19 0.132257)
(0.141335 -0.0575497 -1.49996e-19 0.119175 -1.11985e-20 0.130202)
(0.141359 -0.0578611 1.49174e-19 0.120118 -5.3683e-19 0.130708)
(0.144047 -0.0590758 2.23935e-19 0.122755 -7.832e-20 0.133382)
(0.148132 -0.0608349 -2.09236e-19 0.126493 1.14117e-18 0.137306)
(0.152503 -0.0628334 -3.50264e-19 0.130867 -9.96447e-19 0.141684)
(0.155963 -0.0647537 4.68572e-19 0.135426 -5.95019e-19 0.145696)
(0.156938 -0.0661216 2.1244e-19 0.139482 1.77689e-18 0.148214)
(0.153461 -0.0663076 1.53259e-19 0.142285 1.93634e-18 0.147873)
(0.14374 -0.0645892 -2.31463e-19 0.143317 -3.44983e-19 0.14354)
(0.126534 -0.0600541 -9.64328e-21 0.142795 -1.27483e-18 0.134684)
(0.103073 -0.0516565 -4.76542e-19 0.143203 -3.79727e-19 0.123168)
(0.0807939 -0.0382461 -2.19137e-19 0.153066 1.63852e-18 0.116922)
(0.0759818 -0.0183938 1.30745e-19 0.189773 2.508e-18 0.132879)
(0.102542 0.00974504 1.60502e-18 0.268393 7.84368e-19 0.185707)
(0.161229 0.0490539 1.09016e-19 0.388497 -8.77473e-19 0.275416)
(0.250856 0.102935 -1.91938e-18 0.541878 -7.50468e-19 0.39554)
(0.369105 0.170252 2.60136e-19 0.721789 -2.66497e-19 0.543283)
(0.519377 0.2523 -1.22143e-19 0.952202 -1.95887e-18 0.745334)
(0.831839 0.415451 -1.40852e-19 1.25666 6.3373e-19 1.02487)
(0.856623 0.418965 5.114e-19 1.05674 1.73105e-18 0.95831)
(0.00318065 -0.000259846 -2.79624e-23 0.00264242 -1.3243e-23 0.00291502)
(0.00301614 -0.0003297 -5.30028e-22 0.00269515 -7.52211e-22 0.00285481)
(0.00286657 -0.000359367 5.02467e-22 0.00277167 7.83282e-22 0.00281796)
(0.00266478 -0.000343354 2.41209e-21 0.00278612 3.31313e-21 0.00272342)
(0.00276219 -0.000347622 4.66763e-22 0.00311754 6.66774e-22 0.00293685)
(0.00274169 -0.000285172 3.97052e-22 0.00322447 1.6099e-22 0.00298347)
(0.000147663 -7.94332e-07 -1.63409e-23 0.000149319 -1.80258e-23 0.000148498)
(3.91938e-06 -2.56036e-09 -5.19279e-27 3.91931e-06 -3.08118e-27 3.91926e-06)
(0.0180659 4.09824e-05 -9.78544e-21 0.00903064 -1.44143e-20 0.0134873)
(0.300253 -0.000548911 1.77965e-19 0.114096 2.02383e-19 0.207226)
(1.20784 -0.0372832 -2.92726e-19 0.460225 -7.4326e-19 0.836564)
(2.3323 -0.160312 -1.02916e-19 0.909831 9.43761e-19 1.61846)
(2.54035 -0.319009 1.43551e-19 1.05308 -1.12411e-18 1.80113)
(1.80922 -0.370927 -3.68537e-19 0.858523 -4.36908e-19 1.35418)
(1.00128 -0.270629 1.03544e-18 0.559031 -3.03621e-19 0.770454)
(0.604479 -0.18478 4.14506e-19 0.374096 9.24266e-19 0.47583)
(0.426096 -0.137958 -4.05758e-19 0.275045 5.48785e-19 0.34757)
(0.33077 -0.112722 -4.2621e-19 0.223405 5.03259e-19 0.278208)
(0.270447 -0.0980063 -6.85214e-19 0.195468 -4.00265e-20 0.233646)
(0.233902 -0.088938 5.60713e-19 0.1793 -6.83791e-19 0.207031)
(0.212478 -0.0838931 1.97688e-19 0.171403 9.48094e-19 0.191922)
(0.202785 -0.0817595 -3.89893e-19 0.168541 -2.27784e-19 0.185563)
(0.200869 -0.0816311 1.43454e-19 0.168888 3.88897e-19 0.184794)
(0.204232 -0.0831973 1.04625e-19 0.172322 2.6747e-19 0.188202)
(0.21044 -0.0857304 2.20617e-20 0.177556 -4.16294e-19 0.193957)
(0.217375 -0.0886253 -2.65169e-20 0.183616 5.86534e-19 0.200466)
(0.223419 -0.0914727 3.7782e-19 0.189903 1.50897e-18 0.206646)
(0.226479 -0.0936634 3.27571e-19 0.195468 -5.93265e-19 0.210975)
(0.22356 -0.094236 -5.22972e-19 0.198841 5.22135e-20 0.211219)
(0.211852 -0.092169 -1.07323e-18 0.198787 -1.22841e-18 0.205362)
(0.188743 -0.0861803 3.12367e-19 0.194453 5.80527e-20 0.191654)
(0.153816 -0.0748648 6.3745e-19 0.186888 -1.17892e-18 0.170425)
(0.113095 -0.0567187 6.98511e-19 0.183112 3.62718e-19 0.148145)
(0.0877102 -0.0300012 -5.45135e-19 0.204985 -1.57782e-19 0.146416)
(0.107656 0.00744712 -9.21836e-19 0.282848 1.70003e-18 0.195579)
(0.177061 0.0586103 -6.03545e-19 0.417993 -1.58888e-18 0.29807)
(0.287721 0.126301 1.22619e-18 0.592495 -2.92261e-19 0.439285)
(0.430205 0.207337 -8.29823e-20 0.788358 4.28852e-19 0.607896)
(0.601223 0.300472 3.27025e-19 1.01241 -3.94162e-19 0.814024)
(0.895736 0.447724 -4.69066e-19 1.2817 -8.10693e-19 1.07428)
(0.954217 0.458772 -5.40842e-19 1.12212 5.60074e-19 1.03311)
(0.00235812 -0.000185749 -8.31154e-23 0.00194824 -3.77646e-23 0.00215567)
(0.0022646 -0.000237075 -4.64944e-22 0.00199229 -6.963e-22 0.00212795)
(0.0022031 -0.000266913 1.91155e-21 0.00207356 2.2135e-21 0.002138)
(0.00211415 -0.000273033 -2.27587e-22 0.00213592 -3.83276e-22 0.00212499)
(0.00197565 -0.000249444 6.84222e-22 0.00213908 6.35561e-22 0.00205641)
(0.00212734 -0.000264508 -6.80006e-22 0.00247872 -5.99629e-22 0.00230042)
(0.00196051 -0.000177603 1.3379e-21 0.00232327 1.83892e-21 0.00214125)
(0.000329955 -4.1692e-06 4.44343e-23 0.000340508 3.61603e-23 0.000335273)
(0.00028198 -6.74503e-06 8.61067e-25 0.000294146 3.56691e-23 0.000288055)
(0.000436891 -3.33895e-06 1.71468e-22 0.000408692 1.49817e-22 0.000422497)
(0.105673 -0.00194233 -4.97897e-21 0.0405675 5.89067e-21 0.0729614)
(0.656686 -0.0232861 -3.28922e-19 0.250856 -2.17137e-19 0.454311)
(1.78484 -0.116062 2.1609e-19 0.693474 -4.2618e-19 1.241)
(2.67828 -0.278528 -5.28106e-19 1.08219 1.01791e-18 1.87471)
(2.52467 -0.420533 -2.7211e-19 1.11476 -1.02505e-18 1.83378)
(1.69164 -0.408076 5.89387e-19 0.87055 8.05347e-19 1.29861)
(0.973041 -0.287134 3.82067e-19 0.581661 -1.69412e-18 0.763622)
(0.626378 -0.203922 1.63852e-19 0.409921 6.42391e-19 0.505203)
(0.463498 -0.158471 -8.14182e-19 0.315591 -1.24314e-18 0.386895)
(0.374057 -0.134639 3.37647e-19 0.268117 1.2888e-18 0.322428)
(0.319588 -0.121569 7.23059e-20 0.245029 -9.5637e-19 0.283111)
(0.29215 -0.11519 -3.65447e-19 0.235041 4.81081e-19 0.263988)
(0.281753 -0.113076 2.76012e-19 0.232546 -4.14958e-21 0.257178)
(0.282448 -0.114171 -5.81865e-20 0.235637 2.78053e-20 0.258885)
(0.290319 -0.117479 -1.01923e-19 0.242567 8.26326e-19 0.266317)
(0.301187 -0.121787 1.11474e-19 0.251367 -1.99096e-19 0.276172)
(0.311786 -0.126164 -8.64819e-19 0.260468 5.09039e-21 0.286059)
(0.318713 -0.129578 -4.01732e-19 0.2681 2.10887e-19 0.293363)
(0.318457 -0.130969 -2.00076e-19 0.272518 -1.33084e-18 0.295477)
(0.306937 -0.128952 1.06743e-18 0.271535 9.23413e-20 0.289266)
(0.279771 -0.12179 1.44979e-19 0.26278 8.90043e-19 0.271358)
(0.234007 -0.107645 3.4151e-19 0.244928 9.82615e-19 0.239619)
(0.171105 -0.0845823 -6.94918e-19 0.220246 3.16387e-19 0.195843)
(0.107456 -0.0506462 6.28383e-19 0.205188 -1.39408e-18 0.156538)
(0.0951755 -0.00363395 2.95604e-19 0.250847 -1.50901e-19 0.173456)
(0.166246 0.0588843 1.16504e-18 0.384469 3.25099e-19 0.275871)
(0.295319 0.138055 -1.91672e-18 0.568931 6.50748e-19 0.431478)
(0.45861 0.228347 1.09359e-19 0.769288 2.49244e-20 0.613275)
(0.643769 0.325075 3.00328e-19 0.975441 5.04115e-19 0.813832)
(0.896379 0.444081 7.38018e-19 1.18593 -1.56272e-20 1.03217)
(0.961596 0.453372 -2.31103e-19 1.07619 -1.16243e-18 1.00939)
(0.00175639 -0.00013438 -3.30195e-22 0.00144518 -3.84802e-22 0.00160259)
(0.00170083 -0.000171674 1.35317e-21 0.00147963 1.44332e-21 0.00159017)
(0.00167044 -0.000195885 -3.10557e-22 0.00154132 -3.35713e-22 0.00160582)
(0.00164214 -0.000208676 -2.50161e-21 0.00161309 -2.68704e-21 0.00162763)
(0.00158159 -0.000204333 -2.25266e-22 0.0016553 -2.72312e-22 0.00161849)
(0.0014974 -0.000184406 2.47967e-21 0.00166587 2.70054e-21 0.00158111)
(0.00160038 -0.000190046 -7.31871e-22 0.00190602 -1.00762e-21 0.00175135)
(0.00141515 -0.000113473 -4.74383e-21 0.00168852 -4.74393e-21 0.00155084)
(0.000546919 -1.27528e-05 6.04634e-22 0.000585683 5.83695e-22 0.000566364)
(6.88745e-05 -2.51692e-07 7.67858e-25 6.96101e-05 -9.21017e-25 6.92457e-05)
(0.00118589 -0.000255452 -1.0003e-21 0.0010644 -1.70754e-21 0.00112024)
(0.0234115 -0.00117691 -9.20333e-21 0.00976146 -4.95935e-21 0.0165118)
(0.262928 -0.0119055 -1.86792e-19 0.101029 -1.19784e-19 0.181842)
(1.04023 -0.0677255 1.78691e-19 0.404225 -1.42155e-19 0.723186)
(2.20964 -0.207966 -6.91939e-19 0.882122 6.94395e-19 1.54543)
(2.85568 -0.384907 6.5574e-19 1.20165 -4.17151e-19 2.0241)
(2.50097 -0.497223 -5.53686e-19 1.17325 8.14943e-19 1.85684)
(1.66437 -0.445577 -1.2452e-19 0.914478 -2.47869e-19 1.30478)
(1.00278 -0.316415 -2.60099e-19 0.634974 -3.92337e-19 0.80408)
(0.672401 -0.231386 3.26785e-19 0.465231 -1.15487e-18 0.554979)
(0.518571 -0.187326 5.04876e-19 0.375147 3.88632e-19 0.443675)
(0.442912 -0.166842 -2.75149e-19 0.335274 -1.11676e-18 0.390575)
(0.406068 -0.158196 -2.44452e-19 0.321069 5.01045e-19 0.364939)
(0.393329 -0.156324 7.81001e-19 0.319919 -6.39084e-19 0.357265)
(0.396696 -0.159059 -4.66976e-19 0.32692 5.97626e-20 0.361987)
(0.409108 -0.164357 -6.12291e-19 0.33825 -3.93664e-19 0.373526)
(0.425459 -0.170799 1.11456e-18 0.351417 -1.56041e-18 0.388224)
(0.43997 -0.176597 -3.98875e-20 0.36331 1.18681e-18 0.401446)
(0.446603 -0.179851 -1.0208e-21 0.370511 -8.28392e-20 0.408428)
(0.439099 -0.178478 -6.79434e-19 0.369223 1.16342e-18 0.404114)
(0.411703 -0.170438 8.60496e-20 0.355867 -7.08589e-19 0.383824)
(0.359808 -0.153782 -4.05219e-20 0.327374 3.91565e-19 0.343717)
(0.280195 -0.126334 -7.60627e-19 0.281157 -6.27222e-19 0.280883)
(0.175026 -0.0859177 4.01365e-19 0.218796 1.91636e-18 0.197256)
(0.0772306 -0.0306413 -6.35756e-19 0.170624 3.65433e-19 0.124515)
(0.111339 0.0406393 -5.16806e-19 0.254915 -1.77105e-20 0.183714)
(0.25565 0.12665 8.81908e-19 0.437675 -2.07827e-18 0.346408)
(0.436443 0.219627 -2.40072e-19 0.633895 9.28076e-19 0.534972)
(0.627069 0.310928 -1.8706e-19 0.81644 -9.52435e-19 0.723352)
(0.826727 0.396545 -1.76376e-18 0.966063 -5.28924e-19 0.891526)
(0.871551 0.396718 1.00961e-20 0.900144 -3.14975e-19 0.875677)
(0.00131284 -9.83194e-05 -2.96394e-22 0.00107719 -2.54146e-22 0.00119627)
(0.00127822 -0.000125347 -1.22846e-21 0.00110316 -1.13909e-21 0.00119076)
(0.00126248 -0.000143916 -7.8343e-23 0.0011484 -1.77111e-22 0.00120542)
(0.00125189 -0.000155843 -2.01605e-22 0.00120393 -1.52776e-22 0.00122791)
(0.00123689 -0.000160083 1.77625e-21 0.00125954 1.792e-21 0.00124821)
(0.00119575 -0.00015209 9.59689e-22 0.00128755 7.44883e-22 0.00124166)
(0.00115333 -0.00013847 -1.3347e-21 0.00131142 -1.29444e-21 0.00123214)
(0.00117925 -0.000129566 -9.93278e-22 0.00142011 -3.15204e-22 0.0012987)
(0.00114981 -9.39085e-05 -6.52484e-22 0.00141163 -6.5913e-22 0.00127952)
(0.000646945 -2.07243e-05 -1.15338e-21 0.000722545 -1.14537e-21 0.000684676)
(4.60248e-05 -9.38905e-08 -1.56395e-24 4.63935e-05 -1.01302e-24 4.62105e-05)
(0.000241583 -6.14297e-06 -2.01022e-23 0.000257086 -7.29282e-24 0.000249391)
(5.8817e-05 -2.89515e-07 1.0849e-23 5.78939e-05 1.05069e-23 5.83474e-05)
(0.0633136 -0.00427517 -2.5795e-19 0.0248602 -2.08598e-19 0.0439626)
(0.43456 -0.0307564 7.07351e-19 0.16973 5.97198e-19 0.302076)
(1.34378 -0.121893 -3.7056e-19 0.534308 -4.2355e-19 0.939891)
(2.46671 -0.292939 1.53707e-18 1.0146 9.3829e-19 1.73821)
(2.95669 -0.472894 7.52922e-19 1.29469 8.53128e-19 2.12288)
(2.53465 -0.563358 -1.98719e-18 1.24971 -2.89137e-19 1.91407)
(1.72881 -0.496024 6.58825e-19 0.998592 -1.20402e-18 1.38012)
(1.09035 -0.363665 2.95001e-19 0.726696 1.51891e-18 0.895028)
(0.766287 -0.277357 -5.83987e-20 0.561196 -8.8744e-19 0.64704)
(0.631011 -0.236997 6.36448e-19 0.479353 6.81541e-19 0.549026)
(0.575139 -0.220716 -3.80668e-19 0.446121 -7.79233e-19 0.511758)
(0.555578 -0.217308 4.34859e-19 0.441343 8.52015e-20 0.50111)
(0.557098 -0.220585 -6.15836e-19 0.450446 9.32614e-19 0.505425)
(0.572025 -0.227577 1.20479e-19 0.466025 7.86799e-19 0.519738)
(0.591684 -0.235345 -2.0067e-19 0.482189 -2.06577e-18 0.53699)
(0.607878 -0.241288 -2.91339e-19 0.494107 5.05074e-19 0.550704)