/*--------------------------------*- C++ -*----------------------------------*\
| =========                 |                                                 |
| \\      /  F ield         | OpenFOAM: The Open Source CFD Toolbox           |
|  \\    /   O peration     | Version:  2312                                  |
|   \\  /    A nd           | Website:  www.openfoam.com                      |
|    \\/     M anipulation  |                                                 |
\*---------------------------------------------------------------------------*/
FoamFile
{
    version     2.0;
    format      ascii;
    arch        "LSB;label=32;scalar=64";
    class       volScalarField;
    location    "450";
    object      turbulenceProperties:nut;
}
// * * * * * * * * * * * * * * * * * * * * * * * * * * * * * * * * * * * * * //

dimensions      [0 2 -1 0 0 0 0];

internalField   nonuniform List<scalar> 
11040
(
3.89152e-05
5.4093e-05
1.39436e-05
6.04217e-05
0.000203618
0.00019153
0.00018334
0.000174062
0.000163536
0.000157239
0.00015082
0.0001455
0.000140715
0.000137085
0.000134357
0.000133236
0.000134035
0.000136647
0.000140548
0.000145546
0.000151739
0.000158962
0.000167012
0.000175767
0.000185279
0.000196356
0.000209394
0.000222701
0.000235532
0.000247371
0.000257569
0.000265355
0.00027003
0.000271767
0.000272703
0.000282554
0.000281265
0.000196107
0.000207659
0.000233433
0.00033087
4.47891e-06
3.81613e-05
5.55979e-05
0.000160081
0.00063458
0.000632478
0.000565624
0.000518636
0.000457514
0.000422941
0.00038765
0.000359948
0.000333423
0.000312412
0.000294311
0.000281139
0.000274582
0.000273754
0.00027585
0.000279654
0.000285252
0.000292967
0.000301295
0.00030895
0.000316114
0.000328243
0.000353342
0.000384123
0.000418658
0.0004572
0.00050008
0.000548058
0.000601231
0.000659329
0.000724026
0.000799432
0.000886309
0.000977825
0.00108472
0.00122362
0.00178477
5.47795e-06
9.99501e-06
3.05267e-05
7.23394e-05
0.000445477
0.00102385
0.00122597
0.00117021
0.00103705
0.000963619
0.000885501
0.000827349
0.000769634
0.000724097
0.000684292
0.00065115
0.000625852
0.000607155
0.000595916
0.000591102
0.00059361
0.000604449
0.000624801
0.000656087
0.000698698
0.000753052
0.000818977
0.00089516
0.000981026
0.00107641
0.00118087
0.00129419
0.00141612
0.00154713
0.00168816
0.00184304
0.00201948
0.0022262
0.00247137
0.00280233
0.00383117
6.53486e-06
5.27483e-06
1.09848e-05
1.18234e-05
0.000152186
0.000640546
0.00138861
0.00177638
0.00183948
0.00174327
0.00160966
0.00151542
0.00141782
0.00134092
0.00127237
0.00121199
0.00116676
0.00113249
0.00111182
0.00110296
0.00110613
0.00112419
0.00116051
0.00121738
0.00129499
0.00139291
0.00151034
0.00164642
0.00180021
0.00197107
0.00215787
0.0023598
0.00257588
0.00280656
0.00305269
0.00331805
0.00361299
0.00396255
0.00438573
0.00496301
0.00642689
6.24717e-06
5.78075e-06
6.49418e-06
5.37692e-06
5.6676e-06
0.00019253
0.000757673
0.00165714
0.00236647
0.00256579
0.00257394
0.00247734
0.00233072
0.00221209
0.00211076
0.00201405
0.00194336
0.00188805
0.00185413
0.00184012
0.00184282
0.00186695
0.00191998
0.00200555
0.00212454
0.00227719
0.00246245
0.00267866
0.00292379
0.00319623
0.00349342
0.00381319
0.00415319
0.00451318
0.0048937
0.00529841
0.00573976
0.00625315
0.00688318
0.0077398
0.00957797
6.11756e-06
6.20892e-06
5.93198e-06
6.54903e-06
1.63801e-06
1.2124e-06
0.000186222
0.0007724
0.00180964
0.00287953
0.00334879
0.00351899
0.00351219
0.00342187
0.00327622
0.00312998
0.00302613
0.00294211
0.00288783
0.00286733
0.00286925
0.0028979
0.00296847
0.00308651
0.00325401
0.00347314
0.00374334
0.00406184
0.00442438
0.00482787
0.00526717
0.0057378
0.00623473
0.00675581
0.0073005
0.00787155
0.00848182
0.0091743
0.0100258
0.0111763
0.0133367
6.11878e-06
6.1492e-06
6.03182e-06
6.37696e-06
5.76901e-06
4.11011e-07
8.5957e-09
0.000128779
0.000686505
0.0017833
0.00315723
0.00414134
0.00452012
0.00466883
0.00467469
0.00459975
0.00448866
0.0043724
0.00430031
0.00427565
0.00428034
0.00431249
0.00440138
0.00455538
0.0047769
0.00507208
0.00544295
0.00588652
0.0063942
0.00696112
0.00757766
0.00823565
0.00892551
0.00964077
0.0103785
0.0111395
0.0119346
0.0128107
0.013875
0.0153113
0.0177485
6.11204e-06
6.11016e-06
6.12792e-06
6.06501e-06
6.55873e-06
5.79847e-06
2.09447e-08
1.49845e-10
5.49504e-05
0.000520741
0.00155613
0.00312152
0.00468221
0.00553829
0.00591225
0.00606784
0.00611745
0.00609892
0.00606701
0.00604459
0.00606829
0.00613944
0.00627889
0.00650562
0.00681012
0.00719784
0.0076827
0.00827257
0.00895206
0.00971574
0.0105462
0.01143
0.0123506
0.0132929
0.014249
0.0152177
0.0162039
0.017253
0.0184897
0.0201603
0.0228205
6.10942e-06
6.11362e-06
6.11323e-06
6.12663e-06
6.02926e-06
7.09763e-06
5.17025e-06
1.41528e-07
3.50776e-07
4.15088e-07
0.000302954
0.00116687
0.00273108
0.00470611
0.00635644
0.00716371
0.00758499
0.00780551
0.00795277
0.00806055
0.00818628
0.00834974
0.00859167
0.00894066
0.00939522
0.00995284
0.0106117
0.0113765
0.0122561
0.0132477
0.0143265
0.0154724
0.0166619
0.0178627
0.0190562
0.020241
0.0214129
0.0226045
0.0239432
0.0257338
0.0284849
6.10723e-06
6.11019e-06
6.11157e-06
6.1199e-06
6.09701e-06
6.08761e-06
7.2297e-06
4.81225e-06
5.93972e-07
1.45334e-08
2.23993e-05
0.000130364
0.00073225
0.00207131
0.00415018
0.00648158
0.00823353
0.00910801
0.00964869
0.0100233
0.0103696
0.0107268
0.0111585
0.0117115
0.0124042
0.0132446
0.0142267
0.015338
0.0165575
0.0178587
0.0192231
0.020654
0.0221395
0.0236196
0.02505
0.0264423
0.0277815
0.0290639
0.0304223
0.0321463
0.0347445
6.10563e-06
6.10784e-06
6.11056e-06
6.10912e-06
6.125e-06
6.06312e-06
6.20658e-06
6.90481e-06
5.85616e-06
1.41486e-06
7.02922e-09
5.56524e-07
3.06038e-08
0.000332782
0.0013052
0.00314238
0.00571876
0.00842548
0.010402
0.0114872
0.0122731
0.0129389
0.0136307
0.0144411
0.0154189
0.0165973
0.0179795
0.0195573
0.0213082
0.0231949
0.0251681
0.0271642
0.0291001
0.0308973
0.0325404
0.0341083
0.0355886
0.0368731
0.0381306
0.039621
0.0417341
6.10403e-06
6.10601e-06
6.10743e-06
6.10923e-06
6.10896e-06
6.11657e-06
6.07257e-06
6.18839e-06
6.61778e-06
6.71585e-06
2.73756e-06
8.51114e-09
9.2559e-10
1.68984e-05
5.82336e-05
0.000604599
0.00193338
0.00424535
0.00732569
0.0105183
0.0129535
0.014425
0.0155746
0.0167205
0.017996
0.0195026
0.0212641
0.0232865
0.0255577
0.0280396
0.0306757
0.0333964
0.03612
0.0387595
0.0412193
0.0433805
0.0450894
0.04628
0.0473052
0.0484908
0.0498533
6.10246e-06
6.10405e-06
6.10527e-06
6.10636e-06
6.10731e-06
6.10907e-06
6.10822e-06
6.09502e-06
6.12103e-06
6.46965e-06
6.9419e-06
4.51517e-06
3.30094e-07
2.97182e-09
4.22133e-08
7.25703e-05
0.000170913
0.000875936
0.00251044
0.0052418
0.00885506
0.0125909
0.0156097
0.017731
0.0195006
0.0213839
0.0234898
0.025873
0.0285659
0.0315413
0.0347363
0.0380763
0.0414793
0.0448624
0.0481286
0.0511689
0.0538691
0.0561415
0.0578878
0.0589777
0.0595217
6.10099e-06
6.10236e-06
6.10336e-06
6.10423e-06
6.10511e-06
6.10587e-06
6.10724e-06
6.10756e-06
6.0991e-06
6.09218e-06
6.31286e-06
7.07883e-06
5.89697e-06
2.22904e-06
5.84912e-10
1.143e-10
5.48541e-07
0.00012304
0.000245945
0.00105735
0.0029045
0.00581567
0.00947081
0.0134664
0.0173361
0.0206977
0.0235761
0.0263753
0.0294228
0.0327862
0.0364089
0.0402233
0.0441562
0.0481347
0.0520635
0.0558322
0.059347
0.0625498
0.0653631
0.0677185
0.0696261
6.09976e-06
6.10098e-06
6.10177e-06
6.10244e-06
6.10306e-06
6.10374e-06
6.10449e-06
6.10531e-06
6.10679e-06
6.10336e-06
6.07403e-06
6.22377e-06
6.673e-06
6.89325e-06
4.59646e-06
4.66402e-07
4.26136e-09
7.29726e-12
1.67919e-06
0.00014449
0.000249619
0.00101328
0.00258537
0.00503599
0.00829861
0.0121998
0.0165267
0.0210576
0.0255621
0.0298957
0.0340983
0.0383178
0.0426538
0.0471052
0.0515836
0.0559672
0.0601554
0.064109
0.0677828
0.071117
0.0740701
6.09884e-06
6.09981e-06
6.10025e-06
6.10061e-06
6.10099e-06
6.10146e-06
6.10203e-06
6.10278e-06
6.10347e-06
6.10581e-06
6.10307e-06
6.08222e-06
6.13374e-06
6.3617e-06
7.05494e-06
6.19383e-06
3.55542e-06
9.59756e-08
1.72952e-09
2.21393e-12
1.50055e-06
9.91616e-05
5.33632e-05
0.000501419
0.0014695
0.00310326
0.00545246
0.00852392
0.0122911
0.0166945
0.0216473
0.0270211
0.0326248
0.0382481
0.0437054
0.0488855
0.0537667
0.0584113
0.062835
0.0670197
0.0709416
6.09812e-06
6.09859e-06
6.0986e-06
6.09866e-06
6.09882e-06
6.09909e-06
6.0995e-06
6.10003e-06
6.10074e-06
6.10147e-06
6.10384e-06
6.10223e-06
6.09361e-06
6.07534e-06
6.22185e-06
6.56397e-06
7.04507e-06
5.63202e-06
2.88229e-06
3.49077e-08
1.11235e-09
4.91418e-12
1.13335e-08
1.03029e-05
0.000126741
1.23222e-05
0.000334305
0.00102509
0.00216969
0.00384573
0.00611027
0.00900996
0.0125577
0.0167464
0.0215174
0.0267548
0.0323113
0.0380902
0.0439329
0.0496752
0.0551724
6.09732e-06
6.09744e-06
6.09726e-06
6.09714e-06
6.09711e-06
6.09719e-06
6.09739e-06
6.09771e-06
6.09819e-06
6.0988e-06
6.09967e-06
6.1011e-06
6.10256e-06
6.09524e-06
6.07947e-06
6.10998e-06
6.30026e-06
6.71235e-06
7.07138e-06
5.43668e-06
2.49444e-06
9.04334e-08
1.67977e-09
4.38062e-11
3.11637e-14
7.73157e-10
1.50235e-06
4.97473e-05
0.000159074
0.000324564
0.000162458
0.000630452
0.00137096
0.00247246
0.00399009
0.00597162
0.00841868
0.0113626
0.0147773
0.0186275
0.0229095
6.09648e-06
6.09669e-06
6.09629e-06
6.09592e-06
6.09568e-06
6.09558e-06
6.09562e-06
6.09581e-06
6.09612e-06
6.09658e-06
6.09717e-06
6.09796e-06
6.09919e-06
6.10097e-06
6.0979e-06
6.0894e-06
6.07836e-06
6.14531e-06
6.37441e-06
6.83808e-06
6.98556e-06
5.59864e-06
3.14507e-06
9.68207e-07
7.72097e-10
2.60304e-10
2.8862e-11
9.30347e-13
0
0
7.21736e-08
9.36085e-06
6.91822e-05
0.000160151
0.000278085
1.95069e-05
0.000148409
0.000505531
0.00108574
0.00189423
0.00301402
6.0957e-06
6.09573e-06
6.09508e-06
6.09452e-06
6.09415e-06
6.09398e-06
6.09396e-06
6.09408e-06
6.09431e-06
6.09466e-06
6.09512e-06
6.09573e-06
6.09645e-06
6.09759e-06
6.09885e-06
6.09965e-06
6.09446e-06
6.08499e-06
6.07945e-06
6.17375e-06
6.4185e-06
6.83119e-06
6.97902e-06
6.61087e-06
4.72285e-06
2.53653e-06
8.701e-07
3.13933e-08
8.96702e-10
4.77191e-11
1.68362e-11
3.5226e-12
1.70877e-14
0
0
5.22442e-10
3.03998e-08
2.6128e-06
3.01497e-05
9.20364e-05
0.000167002
6.09484e-06
6.0947e-06
6.09388e-06
6.09325e-06
6.09288e-06
6.09271e-06
6.09269e-06
6.09278e-06
6.09296e-06
6.09323e-06
6.09358e-06
6.09405e-06
6.09462e-06
6.09531e-06
6.09619e-06
6.0974e-06
6.09871e-06
6.09844e-06
6.09108e-06
6.0799e-06
6.08378e-06
6.1719e-06
6.37287e-06
6.6619e-06
7.06038e-06
7.07426e-06
6.57017e-06
5.2751e-06
3.50202e-06
1.94319e-06
7.69954e-07
1.78691e-07
9.50445e-10
1.9217e-10
3.01914e-11
1.57848e-11
7.3441e-12
2.49603e-12
4.76528e-13
7.38873e-16
0
6.09391e-06
6.09365e-06
6.09282e-06
6.09227e-06
6.09199e-06
6.09188e-06
6.0919e-06
6.092e-06
6.09216e-06
6.09239e-06
6.09267e-06
6.09302e-06
6.09346e-06
6.09398e-06
6.0946e-06
6.09532e-06
6.09629e-06
6.09757e-06
6.09874e-06
6.09704e-06
6.08884e-06
6.07701e-06
6.08268e-06
6.12224e-06
6.25409e-06
6.4714e-06
6.73458e-06
7.02804e-06
7.16473e-06
7.01764e-06
6.50091e-06
5.69933e-06
4.51661e-06
3.21427e-06
2.03534e-06
1.18531e-06
6.14014e-07
2.2392e-07
4.71599e-08
7.91773e-11
6.76416e-11
6.09295e-06
6.09268e-06
6.09206e-06
6.09167e-06
6.09151e-06
6.09151e-06
6.09158e-06
6.09171e-06
6.09188e-06
6.09208e-06
6.09231e-06
6.09258e-06
6.09291e-06
6.0933e-06
6.09377e-06
6.0943e-06
6.09492e-06
6.09565e-06
6.09668e-06
6.09801e-06
6.09883e-06
6.0964e-06
6.08974e-06
6.08022e-06
6.07408e-06
6.08747e-06
6.13375e-06
6.23176e-06
6.38607e-06
6.58363e-06
6.7994e-06
6.99834e-06
7.19395e-06
7.25755e-06
7.14287e-06
6.85086e-06
6.41584e-06
5.81234e-06
5.10688e-06
4.21595e-06
3.32095e-06
6.09203e-06
6.09189e-06
6.09158e-06
6.09141e-06
6.09146e-06
6.09158e-06
6.09174e-06
6.09191e-06
6.09208e-06
6.09226e-06
6.09244e-06
6.09265e-06
6.09289e-06
6.09318e-06
6.09352e-06
6.09392e-06
6.09437e-06
6.09489e-06
6.09547e-06
6.09623e-06
6.09728e-06
6.09847e-06
6.09897e-06
6.09799e-06
6.09397e-06
6.08679e-06
6.07846e-06
6.07294e-06
6.07706e-06
6.09826e-06
6.14341e-06
6.21409e-06
6.31675e-06
6.4494e-06
6.6037e-06
6.76627e-06
6.92547e-06
7.07818e-06
7.20653e-06
7.3301e-06
7.38008e-06
6.0912e-06
6.09132e-06
6.09138e-06
6.09158e-06
6.09184e-06
6.09206e-06
6.09228e-06
6.09248e-06
6.09265e-06
6.0928e-06
6.09294e-06
6.09309e-06
6.09326e-06
6.09346e-06
6.0937e-06
6.09398e-06
6.09431e-06
6.09468e-06
6.0951e-06
6.09559e-06
6.09614e-06
6.09685e-06
6.09772e-06
6.0987e-06
6.09956e-06
6.0997e-06
6.09845e-06
6.09514e-06
6.08964e-06
6.08261e-06
6.07558e-06
6.07072e-06
6.07012e-06
6.07687e-06
6.09382e-06
6.12315e-06
6.1652e-06
6.22307e-06
6.29422e-06
6.38382e-06
6.47789e-06
6.09052e-06
6.09101e-06
6.09145e-06
6.09193e-06
6.0924e-06
6.09279e-06
6.09311e-06
6.09334e-06
6.09348e-06
6.09359e-06
6.09369e-06
6.09378e-06
6.09389e-06
6.09401e-06
6.09416e-06
6.09435e-06
6.09456e-06
6.09482e-06
6.09511e-06
6.09546e-06
6.09584e-06
6.09625e-06
6.09672e-06
6.09727e-06
6.09793e-06
6.09873e-06
6.09958e-06
6.10031e-06
6.1006e-06
6.10013e-06
6.09856e-06
6.09574e-06
6.09161e-06
6.08634e-06
6.0803e-06
6.07416e-06
6.06866e-06
6.06467e-06
6.06298e-06
6.06502e-06
6.0692e-06
6.09003e-06
6.09094e-06
6.09172e-06
6.09242e-06
6.09302e-06
6.09351e-06
6.0939e-06
6.0942e-06
6.09441e-06
6.09456e-06
6.09461e-06
6.09465e-06
6.0947e-06
6.09476e-06
6.09484e-06
6.09494e-06
6.09506e-06
6.09522e-06
6.0954e-06
6.09563e-06
6.09588e-06
6.09615e-06
6.09645e-06
6.09676e-06
6.0971e-06
6.09748e-06
6.09791e-06
6.09841e-06
6.09898e-06
6.09959e-06
6.10017e-06
6.10061e-06
6.10079e-06
6.10059e-06
6.09987e-06
6.0985e-06
6.09646e-06
6.0936e-06
6.09003e-06
6.08565e-06
6.08132e-06
6.08976e-06
6.09107e-06
6.0921e-06
6.09293e-06
6.09361e-06
6.09416e-06
6.09461e-06
6.09497e-06
6.09525e-06
6.09546e-06
6.0956e-06
6.09569e-06
6.09572e-06
6.09573e-06
6.09573e-06
6.09575e-06
6.09579e-06
6.09585e-06
6.09594e-06
6.09606e-06
6.09619e-06
6.09635e-06
6.09652e-06
6.09671e-06
6.0969e-06
6.0971e-06
6.0973e-06
6.09749e-06
6.09769e-06
6.0979e-06
6.09813e-06
6.09836e-06
6.09861e-06
6.09885e-06
6.09907e-06
6.09924e-06
6.09932e-06
6.09927e-06
6.09906e-06
6.09864e-06
6.09806e-06
6.0897e-06
6.0913e-06
6.09248e-06
6.09339e-06
6.09412e-06
6.09472e-06
6.09523e-06
6.09564e-06
6.09599e-06
6.09626e-06
6.09647e-06
6.09663e-06
6.09674e-06
6.0968e-06
6.09682e-06
6.09679e-06
6.09677e-06
6.09676e-06
6.09677e-06
6.0968e-06
6.09685e-06
6.09691e-06
6.09698e-06
6.09705e-06
6.09714e-06
6.09722e-06
6.09729e-06
6.09736e-06
6.09741e-06
6.09745e-06
6.09746e-06
6.09746e-06
6.09744e-06
6.09742e-06
6.0974e-06
6.09741e-06
6.09747e-06
6.0976e-06
6.09785e-06
6.09819e-06
6.09857e-06
6.08979e-06
6.09156e-06
6.0928e-06
6.09375e-06
6.09452e-06
6.09518e-06
6.09574e-06
6.09622e-06
6.09663e-06
6.09697e-06
6.09725e-06
6.09748e-06
6.09766e-06
6.0978e-06
6.09789e-06
6.09795e-06
6.09798e-06
6.09799e-06
6.09798e-06
6.09795e-06
6.09793e-06
6.09792e-06
6.09792e-06
6.09793e-06
6.09795e-06
6.09797e-06
6.09799e-06
6.09801e-06
6.09804e-06
6.09807e-06
6.09811e-06
6.09818e-06
6.09829e-06
6.09845e-06
6.09864e-06
6.09889e-06
6.09919e-06
6.09954e-06
6.09998e-06
6.10044e-06
6.10097e-06
6.08995e-06
6.09176e-06
6.09302e-06
6.094e-06
6.09482e-06
6.09553e-06
6.09615e-06
6.09669e-06
6.09717e-06
6.09758e-06
6.09793e-06
6.09823e-06
6.09849e-06
6.0987e-06
6.09887e-06
6.09901e-06
6.09913e-06
6.09922e-06
6.09929e-06
6.09935e-06
6.09939e-06
6.09944e-06
6.09948e-06
6.09952e-06
6.09957e-06
6.09964e-06
6.09972e-06
6.09982e-06
6.09995e-06
6.1001e-06
6.10029e-06
6.10051e-06
6.10077e-06
6.10106e-06
6.10141e-06
6.10179e-06
6.10223e-06
6.1027e-06
6.10324e-06
6.10378e-06
6.1044e-06
6.09007e-06
6.09186e-06
6.09313e-06
6.09414e-06
6.09501e-06
6.09577e-06
6.09645e-06
6.09706e-06
6.09761e-06
6.09809e-06
6.09852e-06
6.0989e-06
6.09922e-06
6.09951e-06
6.09976e-06
6.09998e-06
6.10017e-06
6.10035e-06
6.10051e-06
6.10065e-06
6.10079e-06
6.10092e-06
6.10106e-06
6.10119e-06
6.10134e-06
6.1015e-06
6.10167e-06
6.10187e-06
6.10209e-06
6.10234e-06
6.10261e-06
6.10292e-06
6.10327e-06
6.10365e-06
6.10406e-06
6.10452e-06
6.10502e-06
6.10554e-06
6.10613e-06
6.1067e-06
6.10737e-06
6.09007e-06
6.09185e-06
6.09313e-06
6.09417e-06
6.09508e-06
6.0959e-06
6.09664e-06
6.09732e-06
6.09794e-06
6.0985e-06
6.09901e-06
6.09946e-06
6.09987e-06
6.10023e-06
6.10056e-06
6.10086e-06
6.10113e-06
6.10138e-06
6.10162e-06
6.10184e-06
6.10207e-06
6.10229e-06
6.1025e-06
6.10273e-06
6.10295e-06
6.10319e-06
6.10345e-06
6.10373e-06
6.10402e-06
6.10434e-06
6.10469e-06
6.10507e-06
6.10547e-06
6.10591e-06
6.10637e-06
6.10687e-06
6.1074e-06
6.10795e-06
6.10856e-06
6.10913e-06
6.10981e-06
6.08998e-06
6.09172e-06
6.09301e-06
6.09407e-06
6.09503e-06
6.09591e-06
6.09672e-06
6.09748e-06
6.09817e-06
6.09881e-06
6.0994e-06
6.09994e-06
6.10042e-06
6.10087e-06
6.10127e-06
6.10165e-06
6.102e-06
6.10233e-06
6.10265e-06
6.10295e-06
6.10325e-06
6.10354e-06
6.10384e-06
6.10413e-06
6.10443e-06
6.10475e-06
6.10507e-06
6.10541e-06
6.10577e-06
6.10615e-06
6.10655e-06
6.10697e-06
6.10742e-06
6.10789e-06
6.10839e-06
6.10891e-06
6.10946e-06
6.11002e-06
6.11063e-06
6.11119e-06
6.11186e-06
6.08977e-06
6.09147e-06
6.09275e-06
6.09384e-06
6.09485e-06
6.09579e-06
6.09668e-06
6.09751e-06
6.09829e-06
6.09902e-06
6.09969e-06
6.10031e-06
6.10088e-06
6.1014e-06
6.10189e-06
6.10235e-06
6.10278e-06
6.10318e-06
6.10358e-06
6.10395e-06
6.10433e-06
6.1047e-06
6.10506e-06
6.10542e-06
6.10579e-06
6.10616e-06
6.10655e-06
6.10694e-06
6.10735e-06
6.10778e-06
6.10822e-06
6.10868e-06
6.10916e-06
6.10965e-06
6.11017e-06
6.1107e-06
6.11125e-06
6.11181e-06
6.1124e-06
6.11295e-06
6.1136e-06
6.08942e-06
6.09107e-06
6.09235e-06
6.09347e-06
6.09453e-06
6.09554e-06
6.0965e-06
6.09742e-06
6.09828e-06
6.09909e-06
6.09985e-06
6.10055e-06
6.10121e-06
6.10182e-06
6.10239e-06
6.10293e-06
6.10344e-06
6.10393e-06
6.1044e-06
6.10485e-06
6.1053e-06
6.10574e-06
6.10617e-06
6.10659e-06
6.10702e-06
6.10745e-06
6.10788e-06
6.10833e-06
6.10878e-06
6.10924e-06
6.10971e-06
6.1102e-06
6.1107e-06
6.11121e-06
6.11173e-06
6.11227e-06
6.11281e-06
6.11335e-06
6.11393e-06
6.11444e-06
6.11507e-06
6.08893e-06
6.09052e-06
6.0918e-06
6.09295e-06
6.09406e-06
6.09513e-06
6.09617e-06
6.09716e-06
6.09811e-06
6.099e-06
6.09984e-06
6.10064e-06
6.10138e-06
6.10208e-06
6.10274e-06
6.10336e-06
6.10396e-06
6.10452e-06
6.10507e-06
6.1056e-06
6.10612e-06
6.10663e-06
6.10713e-06
6.10761e-06
6.1081e-06
6.10858e-06
6.10906e-06
6.10954e-06
6.11003e-06
6.11052e-06
6.11102e-06
6.11153e-06
6.11204e-06
6.11256e-06
6.11309e-06
6.11361e-06
6.11415e-06
6.11467e-06
6.11522e-06
6.11571e-06
6.1163e-06
6.08827e-06
6.08981e-06
6.09108e-06
6.09227e-06
6.09342e-06
6.09455e-06
6.09565e-06
6.09671e-06
6.09773e-06
6.0987e-06
6.09963e-06
6.10051e-06
6.10134e-06
6.10213e-06
6.10287e-06
6.10358e-06
6.10426e-06
6.10491e-06
6.10554e-06
6.10615e-06
6.10674e-06
6.10732e-06
6.10788e-06
6.10843e-06
6.10897e-06
6.1095e-06
6.11002e-06
6.11055e-06
6.11107e-06
6.11159e-06
6.11211e-06
6.11263e-06
6.11315e-06
6.11367e-06
6.1142e-06
6.11471e-06
6.11523e-06
6.11574e-06
6.11626e-06
6.11671e-06
6.11727e-06
6.08745e-06
6.08892e-06
6.09018e-06
6.09139e-06
6.09258e-06
6.09375e-06
6.09489e-06
6.096e-06
6.09708e-06
6.09813e-06
6.09913e-06
6.10009e-06
6.10101e-06
6.10189e-06
6.10272e-06
6.10352e-06
6.10429e-06
6.10502e-06
6.10573e-06
6.10642e-06
6.10709e-06
6.10773e-06
6.10836e-06
6.10897e-06
6.10956e-06
6.11014e-06
6.11071e-06
6.11126e-06
6.11182e-06
6.11236e-06
6.1129e-06
6.11344e-06
6.11396e-06
6.11449e-06
6.115e-06
6.11551e-06
6.11601e-06
6.1165e-06
6.11699e-06
6.11741e-06
6.11793e-06
6.08643e-06
6.08784e-06
6.08909e-06
6.0903e-06
6.09149e-06
6.09267e-06
6.09384e-06
6.09499e-06
6.09612e-06
6.09722e-06
6.0983e-06
6.09933e-06
6.10033e-06
6.1013e-06
6.10222e-06
6.1031e-06
6.10395e-06
6.10477e-06
6.10557e-06
6.10633e-06
6.10707e-06
6.10779e-06
6.10848e-06
6.10915e-06
6.1098e-06
6.11042e-06
6.11103e-06
6.11163e-06
6.11221e-06
6.11278e-06
6.11333e-06
6.11388e-06
6.11441e-06
6.11493e-06
6.11544e-06
6.11593e-06
6.11641e-06
6.11687e-06
6.11733e-06
6.11772e-06
6.1182e-06
6.08521e-06
6.08655e-06
6.08776e-06
6.08895e-06
6.09012e-06
6.09129e-06
6.09245e-06
6.09362e-06
6.09478e-06
6.09593e-06
6.09706e-06
6.09817e-06
6.09925e-06
6.10029e-06
6.1013e-06
6.10227e-06
6.1032e-06
6.10411e-06
6.10498e-06
6.10582e-06
6.10664e-06
6.10742e-06
6.10818e-06
6.1089e-06
6.1096e-06
6.11027e-06
6.11092e-06
6.11155e-06
6.11215e-06
6.11274e-06
6.11331e-06
6.11387e-06
6.11441e-06
6.11492e-06
6.11543e-06
6.11591e-06
6.11637e-06
6.11682e-06
6.11725e-06
6.11762e-06
6.11806e-06
6.08377e-06
6.08503e-06
6.08618e-06
6.0873e-06
6.08841e-06
6.08954e-06
6.09069e-06
6.09185e-06
6.09303e-06
6.09421e-06
6.09539e-06
6.09656e-06
6.09771e-06
6.09882e-06
6.09991e-06
6.10096e-06
6.10198e-06
6.10296e-06
6.10391e-06
6.10483e-06
6.10572e-06
6.10657e-06
6.10739e-06
6.10817e-06
6.10892e-06
6.10964e-06
6.11033e-06
6.11099e-06
6.11162e-06
6.11223e-06
6.11282e-06
6.11338e-06
6.11392e-06
6.11443e-06
6.11492e-06
6.11539e-06
6.11583e-06
6.11624e-06
6.11665e-06
6.11698e-06
6.11738e-06
6.0821e-06
6.08325e-06
6.0843e-06
6.08532e-06
6.08635e-06
6.08741e-06
6.08851e-06
6.08966e-06
6.09083e-06
6.09203e-06
6.09325e-06
6.09446e-06
6.09566e-06
6.09684e-06
6.098e-06
6.09913e-06
6.10022e-06
6.10128e-06
6.10231e-06
6.10329e-06
6.10425e-06
6.10516e-06
6.10603e-06
6.10687e-06
6.10766e-06
6.10842e-06
6.10914e-06
6.10983e-06
6.11049e-06
6.11112e-06
6.11172e-06
6.11229e-06
6.11284e-06
6.11335e-06
6.11384e-06
6.1143e-06
6.11474e-06
6.11514e-06
6.11553e-06
6.11586e-06
6.11623e-06
6.08017e-06
6.08118e-06
6.08209e-06
6.08298e-06
6.0839e-06
6.08487e-06
6.08591e-06
6.08701e-06
6.08816e-06
6.08935e-06
6.09057e-06
6.0918e-06
6.09304e-06
6.09426e-06
6.09547e-06
6.09666e-06
6.09782e-06
6.09895e-06
6.10004e-06
6.1011e-06
6.10213e-06
6.10311e-06
6.10405e-06
6.10495e-06
6.1058e-06
6.10661e-06
6.10738e-06
6.10812e-06
6.10881e-06
6.10946e-06
6.11008e-06
6.11066e-06
6.11121e-06
6.11172e-06
6.1122e-06
6.11265e-06
6.11306e-06
6.11344e-06
6.1138e-06
6.1141e-06
6.11442e-06
6.07796e-06
6.07879e-06
6.07953e-06
6.08027e-06
6.08106e-06
6.08192e-06
6.08287e-06
6.08389e-06
6.08497e-06
6.08611e-06
6.08729e-06
6.0885e-06
6.08973e-06
6.09097e-06
6.09221e-06
6.09344e-06
6.09465e-06
6.09583e-06
6.09698e-06
6.09809e-06
6.09916e-06
6.10019e-06
6.10117e-06
6.10211e-06
6.10299e-06
6.10384e-06
6.10464e-06
6.10539e-06
6.10611e-06
6.10678e-06
6.10742e-06
6.10801e-06
6.10857e-06
6.1091e-06
6.10958e-06
6.11004e-06
6.11046e-06
6.11085e-06
6.1112e-06
6.11152e-06
6.11184e-06
6.07543e-06
6.07605e-06
6.0766e-06
6.07718e-06
6.07782e-06
6.07855e-06
6.07935e-06
6.08023e-06
6.08119e-06
6.08221e-06
6.08329e-06
6.08442e-06
6.08559e-06
6.08679e-06
6.08799e-06
6.08919e-06
6.09039e-06
6.09159e-06
6.09278e-06
6.09394e-06
6.09508e-06
6.09619e-06
6.09725e-06
6.09827e-06
6.09924e-06
6.10017e-06
6.10104e-06
6.10187e-06
6.10265e-06
6.10337e-06
6.10405e-06
6.10469e-06
6.10528e-06
6.10582e-06
6.10632e-06
6.10678e-06
6.1072e-06
6.10757e-06
6.10792e-06
6.10821e-06
6.1085e-06
6.07255e-06
6.07293e-06
6.07329e-06
6.07369e-06
6.07415e-06
6.07468e-06
6.07527e-06
6.07593e-06
6.07666e-06
6.07746e-06
6.07833e-06
6.07927e-06
6.08029e-06
6.08138e-06
6.08256e-06
6.0838e-06
6.08506e-06
6.0863e-06
6.08753e-06
6.08873e-06
6.08989e-06
6.09101e-06
6.09208e-06
6.0931e-06
6.09408e-06
6.09501e-06
6.09589e-06
6.09672e-06
6.0975e-06
6.09823e-06
6.09892e-06
6.09956e-06
6.10015e-06
6.1007e-06
6.10121e-06
6.10168e-06
6.10211e-06
6.1025e-06
6.10285e-06
6.10317e-06
6.10347e-06
6.06932e-06
6.06945e-06
6.06958e-06
6.06974e-06
6.06993e-06
6.07016e-06
6.07042e-06
6.07073e-06
6.07107e-06
6.07145e-06
6.07187e-06
6.07233e-06
6.07283e-06
6.07337e-06
6.07394e-06
6.07462e-06
6.07526e-06
6.07591e-06
6.07658e-06
6.07727e-06
6.07798e-06
6.07871e-06
6.07946e-06
6.08021e-06
6.08096e-06
6.08171e-06
6.08244e-06
6.08316e-06
6.08384e-06
6.08451e-06
6.08514e-06
6.08574e-06
6.0863e-06
6.08682e-06
6.08731e-06
6.08777e-06
6.08818e-06
6.08856e-06
6.08891e-06
6.08921e-06
6.08951e-06
0.00390885
0.00592163
0.00698813
0.00876995
0.0124156
0.0166999
0.0196661
0.0203932
0.018954
0.0157924
0.0113825
0.00615715
0.00151497
8.56533e-06
7.15369e-12
7.25023e-08
5.37598e-06
6.70255e-06
6.23424e-06
6.14632e-06
6.15397e-06
6.14921e-06
6.13982e-06
6.13429e-06
6.13236e-06
6.13179e-06
6.13138e-06
6.13095e-06
6.13052e-06
6.12997e-06
6.129e-06
6.12733e-06
6.12475e-06
6.12124e-06
6.1172e-06
6.11363e-06
6.11183e-06
6.11156e-06
6.11232e-06
6.11372e-06
6.11549e-06
6.1174e-06
6.11926e-06
6.12093e-06
6.12232e-06
6.12335e-06
6.124e-06
6.12427e-06
6.12418e-06
6.12379e-06
6.12313e-06
6.12225e-06
6.12116e-06
6.11987e-06
6.11836e-06
6.11661e-06
6.11458e-06
6.11224e-06
6.10958e-06
6.10658e-06
6.10323e-06
6.09951e-06
6.09536e-06
6.09078e-06
6.08606e-06
6.08197e-06
6.07965e-06
6.08022e-06
6.08386e-06
6.0894e-06
6.09582e-06
6.10299e-06
6.109e-06
6.12069e-06
0.00686258
0.00988932
0.0114014
0.0132478
0.0166843
0.0207767
0.023712
0.0245418
0.0232486
0.0202121
0.0158937
0.0106441
0.00482281
0.000790663
8.71196e-05
5.34443e-10
1.21834e-06
6.38451e-06
6.41718e-06
6.13686e-06
6.13779e-06
6.13625e-06
6.13473e-06
6.13843e-06
6.13791e-06
6.13412e-06
6.13129e-06
6.13052e-06
6.1306e-06
6.13028e-06
6.12912e-06
6.12708e-06
6.1241e-06
6.12031e-06
6.11627e-06
6.1131e-06
6.11199e-06
6.11242e-06
6.11378e-06
6.11573e-06
6.11796e-06
6.12027e-06
6.12247e-06
6.12442e-06
6.12602e-06
6.12721e-06
6.12797e-06
6.12831e-06
6.12826e-06
6.12785e-06
6.12714e-06
6.12617e-06
6.12495e-06
6.12348e-06
6.12175e-06
6.11974e-06
6.11743e-06
6.11478e-06
6.11179e-06
6.10844e-06
6.10474e-06
6.10067e-06
6.09617e-06
6.09125e-06
6.08623e-06
6.08196e-06
6.07965e-06
6.08039e-06
6.08409e-06
6.08961e-06
6.09598e-06
6.10308e-06
6.10903e-06
6.12044e-06
0.00974341
0.0140627
0.0162132
0.0181691
0.0213629
0.0252214
0.0281586
0.0291909
0.0281731
0.0253826
0.021229
0.0160773
0.0100315
0.00383021
0.000433422
2.77031e-05
7.06657e-09
2.55109e-06
7.25986e-06
6.36121e-06
6.07348e-06
6.15989e-06
6.14857e-06
6.11746e-06
6.12187e-06
6.13523e-06
6.13798e-06
6.13399e-06
6.13057e-06
6.12934e-06
6.12858e-06
6.12678e-06
6.12359e-06
6.11954e-06
6.11558e-06
6.11284e-06
6.1123e-06
6.11339e-06
6.11535e-06
6.11783e-06
6.12054e-06
6.12324e-06
6.12578e-06
6.12801e-06
6.12983e-06
6.13119e-06
6.13206e-06
6.13247e-06
6.13243e-06
6.13201e-06
6.13124e-06
6.13016e-06
6.12879e-06
6.12713e-06
6.12517e-06
6.12289e-06
6.12027e-06
6.1173e-06
6.11397e-06
6.11028e-06
6.10623e-06
6.10181e-06
6.09696e-06
6.09171e-06
6.08644e-06
6.08205e-06
6.07977e-06
6.08066e-06
6.08436e-06
6.08983e-06
6.09611e-06
6.10311e-06
6.10899e-06
6.12008e-06
0.0126074
0.0184266
0.0213819
0.0235724
0.026576
0.0301815
0.0331059
0.0343751
0.0337097
0.0312602
0.0273515
0.0223349
0.0163879
0.00956082
0.00326312
0.000249646
2.14697e-05
1.37232e-08
2.14337e-06
7.2497e-06
6.56529e-06
6.0218e-06
6.13929e-06
6.2018e-06
6.14896e-06
6.10936e-06
6.11427e-06
6.13067e-06
6.13638e-06
6.1333e-06
6.12881e-06
6.12553e-06
6.12253e-06
6.11895e-06
6.11529e-06
6.11285e-06
6.11266e-06
6.11436e-06
6.11692e-06
6.11994e-06
6.12311e-06
6.12623e-06
6.12912e-06
6.13163e-06
6.13368e-06
6.13521e-06
6.1362e-06
6.13667e-06
6.13666e-06
6.13621e-06
6.13537e-06
6.13417e-06
6.13264e-06
6.13078e-06
6.12858e-06
6.12602e-06
6.12309e-06
6.1198e-06
6.11613e-06
6.11209e-06
6.10769e-06
6.10291e-06
6.09773e-06
6.09219e-06
6.08672e-06
6.08225e-06
6.08003e-06
6.08101e-06
6.08468e-06
6.09004e-06
6.09621e-06
6.10307e-06
6.10886e-06
6.1196e-06
0.0156109
0.0230158
0.0268572
0.0294227
0.0323471
0.0357249
0.0386122
0.0401115
0.0398374
0.0378068
0.0342405
0.0294358
0.0236363
0.0168922
0.00943715
0.00302113
0.000247527
3.21373e-05
1.07586e-08
1.17014e-06
6.97573e-06
6.79189e-06
5.8934e-06
5.95359e-06
6.18253e-06
6.22983e-06
6.16358e-06
6.11107e-06
6.10765e-06
6.12347e-06
6.13175e-06
6.12942e-06
6.12328e-06
6.118e-06
6.11459e-06
6.11294e-06
6.11322e-06
6.11533e-06
6.1184e-06
6.12193e-06
6.1256e-06
6.12914e-06
6.13239e-06
6.13521e-06
6.1375e-06
6.13921e-06
6.14033e-06
6.14088e-06
6.14089e-06
6.14042e-06
6.1395e-06
6.13819e-06
6.13649e-06
6.13441e-06
6.13196e-06
6.12912e-06
6.12589e-06
6.12227e-06
6.11825e-06
6.11387e-06
6.10912e-06
6.104e-06
6.0985e-06
6.09272e-06
6.08709e-06
6.08259e-06
6.08042e-06
6.08144e-06
6.08502e-06
6.09023e-06
6.09625e-06
6.10296e-06
6.10864e-06
6.11897e-06
0.0190227
0.0278288
0.0325552
0.0356312
0.0386232
0.0418469
0.0446893
0.0463928
0.0465185
0.0449653
0.0418436
0.0373709
0.0317871
0.0252455
0.0177745
0.0097914
0.00327736
0.000296494
8.32052e-05
4.93765e-09
1.91725e-07
6.141e-06
8.26689e-06
6.28296e-06
5.64731e-06
5.87515e-06
6.16828e-06
6.25348e-06
6.19075e-06
6.12142e-06
6.10287e-06
6.11347e-06
6.1227e-06
6.12196e-06
6.11674e-06
6.11319e-06
6.11319e-06
6.11587e-06
6.11974e-06
6.12381e-06
6.12791e-06
6.13187e-06
6.13551e-06
6.13867e-06
6.14123e-06
6.14315e-06
6.14442e-06
6.14506e-06
6.1451e-06
6.14461e-06
6.14363e-06
6.14219e-06
6.14032e-06
6.13803e-06
6.13533e-06
6.13221e-06
6.12866e-06
6.12471e-06
6.12036e-06
6.11563e-06
6.11054e-06
6.1051e-06
6.09931e-06
6.09331e-06
6.08758e-06
6.08307e-06
6.08094e-06
6.08195e-06
6.08538e-06
6.09041e-06
6.09623e-06
6.10275e-06
6.1083e-06
6.1182e-06
0.0232255
0.0328143
0.0383655
0.0420613
0.0452768
0.0484595
0.0512823
0.0531671
0.0536824
0.052644
0.0500602
0.0460582
0.040826
0.0345498
0.0273359
0.0192503
0.0108391
0.00398646
0.000492286
0.000222234
7.94537e-08
3.04397e-08
1.97445e-06
9.0948e-06
8.68386e-06
6.34419e-06
5.59132e-06
5.75288e-06
6.10151e-06
6.26539e-06
6.22937e-06
6.14536e-06
6.10431e-06
6.10359e-06
6.11299e-06
6.11698e-06
6.11658e-06
6.11695e-06
6.12009e-06
6.12492e-06
6.1299e-06
6.13443e-06
6.13844e-06
6.14191e-06
6.14478e-06
6.14696e-06
6.14841e-06
6.14916e-06
6.14926e-06
6.14877e-06
6.14772e-06
6.14617e-06
6.14413e-06
6.14163e-06
6.13868e-06
6.13528e-06
6.13143e-06
6.12715e-06
6.12247e-06
6.1174e-06
6.11197e-06
6.10622e-06
6.10017e-06
6.09401e-06
6.08822e-06
6.08371e-06
6.08159e-06
6.08252e-06
6.08576e-06
6.09056e-06
6.09615e-06
6.10244e-06
6.10784e-06
6.11728e-06
0.0282425
0.0378728
0.0441574
0.0485276
0.0521044
0.0553802
0.0582462
0.060311
0.0612026
0.0606989
0.0587288
0.0553329
0.0506257
0.0447624
0.0378939
0.0301195
0.0215488
0.0128026
0.00541188
0.00109684
1.25796e-05
4.98941e-06
5.8231e-09
4.34182e-09
2.8949e-06
8.88652e-06
8.56508e-06
6.58086e-06
5.5738e-06
5.54442e-06
5.91924e-06
6.19311e-06