/*--------------------------------*- C++ -*----------------------------------*\
| =========                 |                                                 |
| \\      /  F ield         | OpenFOAM: The Open Source CFD Toolbox           |
|  \\    /   O peration     | Version:  2312                                  |
|   \\  /    A nd           | Website:  www.openfoam.com                      |
|    \\/     M anipulation  |                                                 |
\*---------------------------------------------------------------------------*/
FoamFile
{
    version     2.0;
    format      ascii;
    arch        "LSB;label=32;scalar=64";
    class       volScalarField;
    location    "450";
    object      turbulenceProperties:L;
}
// * * * * * * * * * * * * * * * * * * * * * * * * * * * * * * * * * * * * * //

dimensions      [0 1 0 0 0 0 0];

internalField   nonuniform List<scalar> 
11040
(
0.000436175
0.000482414
0.000912419
0.00138195
0.00135449
0.00129293
0.00126882
0.00125882
0.00124152
0.0012317
0.00121921
0.00120912
0.00119762
0.00118802
0.0011793
0.00117304
0.00117046
0.00117085
0.00117287
0.0011759
0.00118033
0.0011867
0.00119394
0.00120063
0.00120757
0.00121796
0.00123395
0.00125241
0.00127313
0.00129685
0.00132444
0.00135698
0.00139597
0.00144562
0.00151984
0.00166232
0.00185332
0.00187287
0.00269699
0.00331815
0.00250258
0.00115114
0.00104031
0.000650153
0.000916531
0.00251382
0.00457465
0.00722766
0.0113904
0.0197401
0.0196479
0.0117318
0.00943474
0.00807296
0.00718872
0.00653615
0.00606272
0.00574798
0.00554938
0.005421
0.0053329
0.00527909
0.00524686
0.00524932
0.00530837
0.00544222
0.0057167
0.00622171
0.00693619
0.00790894
0.00923275
0.0109207
0.0126317
0.0136772
0.0141893
0.0138893
0.0131778
0.0124503
0.0116555
0.0104085
0.0103151
0.00830111
0.00147074
0.00160238
0.00123939
0.000817545
0.00160173
0.00321022
0.00549399
0.00851411
0.0108056
0.012616
0.0148775
0.0174349
0.0208497
0.0261691
0.0320445
0.0343193
0.030412
0.0266519
0.0243379
0.0230611
0.0225209
0.0225452
0.023402
0.025021
0.0264436
0.0269652
0.0271042
0.0276382
0.0290915
0.0317148
0.0342338
0.032945
0.0288898
0.0254168
0.022679
0.0205702
0.0190393
0.0177617
0.0158912
0.0150081
0.0172548
0.00174658
0.00186937
0.00215933
0.00165347
0.00118722
0.00212275
0.0038016
0.00603362
0.00973633
0.0124207
0.0145225
0.0162258
0.0175287
0.0189713
0.0199785
0.0208671
0.0214338
0.0218139
0.0219936
0.022009
0.0219727
0.021958
0.0219591
0.0220444
0.022403
0.0231258
0.0242729
0.0259205
0.0281679
0.0310587
0.0343117
0.0368467
0.0371043
0.0349597
0.0317536
0.0287162
0.0263316
0.0244269
0.0220365
0.0205073
0.0272326
0.00201826
0.00211671
0.0020557
0.0029689
0.00237136
0.00154096
0.0025714
0.00424783
0.00657477
0.0101725
0.01391
0.0169796
0.0187339
0.0204838
0.0216341
0.0226028
0.0232247
0.0236299
0.0238499
0.0239626
0.0240678
0.0242885
0.0246828
0.0252729
0.0261659
0.0274296
0.029126
0.0313366
0.0341709
0.0377249
0.0419187
0.0460022
0.0479591
0.0462028
0.0421359
0.0379562
0.0345959
0.0320049
0.0292248
0.0269045
0.0359329
0.00237508
0.00247279
0.00249881
0.00240132
0.0045792
0.00497851
0.0018326
0.00294567
0.00459616
0.00702415
0.0101623
0.0150084
0.0188375
0.0220537
0.02402
0.0256279
0.0268139
0.0276668
0.0282323
0.0286259
0.0289225
0.029271
0.0298213
0.0306151
0.0317581
0.0333349
0.0354176
0.0381047
0.0415447
0.0459309
0.0513854
0.0574264
0.0615953
0.0603963
0.0549747
0.0490916
0.044363
0.0408758
0.0377589
0.0348219
0.0442793
0.00279196
0.00285306
0.00293551
0.00284624
0.00283204
0.00767786
0.0452842
0.00200438
0.00323631
0.00487025
0.00725412
0.010315
0.014736
0.0202062
0.0245052
0.0278131
0.0302184
0.031983
0.0333563
0.034372
0.0350847
0.0356276
0.0362936
0.0371861
0.0384344
0.0401745
0.0425144
0.0455871
0.0495754
0.0547808
0.0615633
0.0699694
0.0778214
0.0788513
0.0718339
0.0633266
0.0565371
0.0517498
0.048122
0.0448106
0.0540852
0.00326753
0.00330015
0.00332171
0.00337786
0.00325795
0.00322598
0.0240666
0.273862
0.00225819
0.00341941
0.00507808
0.00731157
0.0104102
0.0142608
0.0199981
0.0259822
0.030848
0.0345204
0.0374582
0.0396346
0.0412966
0.0424844
0.0435409
0.0447037
0.0460995
0.0479275
0.0503865
0.053697
0.0580755
0.0639248
0.0718297
0.0825591
0.095677
0.10359
0.0961147
0.083153
0.072845
0.0659241
0.0612804
0.0577333
0.0668294
0.00379962
0.00382256
0.00381366
0.00382564
0.00388723
0.0036895
0.00380376
0.0127389
0.0124228
0.0100758
0.00338299
0.00516464
0.007313
0.0102375
0.0140306
0.0188271
0.0257248
0.0324649
0.0380327
0.0423814
0.0459137
0.0484753
0.0505127
0.0523783
0.0542704
0.0564581
0.0591488
0.0626194
0.0672217
0.0734397
0.0820042
0.0942567
0.112284
0.134667
0.136533
0.114967
0.0971413
0.0860265
0.0792669
0.0753002
0.0842655
0.00440669
0.00442219
0.00440061
0.0043712
0.00438325
0.00443411
0.00423126
0.00446896
0.00839677
0.0368634
0.00597696
0.00337611
0.00512297
0.00726529
0.00995236
0.0135726
0.0180787
0.0238665
0.0318856
0.0397846
0.0463038
0.0512378
0.0551397
0.0584522
0.0614778
0.0646015
0.0680624
0.0721621
0.0772352
0.0837536
0.0925115
0.105046
0.124576
0.158648
0.211985
0.184126
0.140695
0.118456
0.106724
0.101321
0.110271
0.00510031
0.00511044
0.00507918
0.00503245
0.0049916
0.00500385
0.00502501
0.00490673
0.00492497
0.00708548
0.0493654
0.0127351
0.0366514
0.00477221
0.00708075
0.00966672
0.0129262
0.0172331
0.022502
0.029269
0.0384847
0.04755
0.0546423
0.0602297
0.0650547
0.0696798
0.074389
0.0795726
0.0855924
0.0928981
0.102155
0.11449
0.13222
0.161258
0.224077
0.743828
0.253305
0.180677
0.154192
0.144469
0.154087
0.00589792
0.00590296
0.00586816
0.00580584
0.00574108
0.00569051
0.0056872
0.00570271
0.00565108
0.00551729
0.00665498
0.0501875
0.123378
0.00662244
0.00436108
0.00653547
0.00922233
0.0122911
0.0161334
0.0211383
0.0272653
0.0346417
0.0437833
0.0534346
0.0619748
0.0691288
0.0754507
0.0818441
0.0888257
0.0968121
0.106297
0.117958
0.13295
0.153444
0.183347
0.228147
0.270463
0.251785
0.220357
0.207896
0.223909
0.00681934
0.00681892
0.00678231
0.00670944
0.00662217
0.00654037
0.00647662
0.00644775
0.00646348
0.00643409
0.00629448
0.00673007
0.0148396
0.0831599
0.0345269
0.00801777
0.00580581
0.00843428
0.0115217
0.015069
0.0194879
0.024982
0.0312687
0.0381878
0.0463634
0.0560067
0.0661812
0.0759539
0.0850016
0.0937426
0.102949
0.113289
0.125286
0.139481
0.156136
0.174428
0.19128
0.202309
0.206095
0.2075
0.220478
0.00788924
0.00788223
0.00784482
0.0077636
0.00765619
0.00754513
0.00744406
0.00735989
0.00730621
0.00730177
0.00728796
0.00712492
0.0072932
0.00907922
0.171966
0.314777
0.01547
0.0100852
0.00745445
0.0103537
0.0138956
0.0177322
0.0220882
0.0272882
0.0333551
0.0400252
0.0472844
0.0556174
0.0653596
0.0763039
0.0879231
0.0996707
0.111219
0.122567
0.133755
0.144478
0.154101
0.162304
0.168737
0.173577
0.18264
0.00913868
0.0091236
0.0090855
0.00899612
0.0088698
0.00873049
0.0085928
0.0084667
0.00835712
0.00827452
0.00824207
0.00821063
0.00812795
0.00804139
0.00861964
0.016889
0.0902258
0.977878
0.0116307
0.0115949
0.00892404
0.0120199
0.0155142
0.0191901
0.0232481
0.0279167
0.0333746
0.0396479
0.0465741
0.0539997
0.0620298
0.0709253
0.0808348
0.0916784
0.103026
0.114165
0.124293
0.132973
0.139907
0.144989
0.151988
0.0106057
0.0105818
0.0105427
0.0104449
0.0102989
0.0101315
0.00995848
0.00978903
0.00963146
0.00949166
0.00937792
0.00930412
0.00925435
0.00920101
0.00901622
0.00920599
0.0102555
0.0331282
0.139808
1.67498
0.0127778
0.0100717
0.00828048
0.011698
0.0154427
0.0190976
0.0228785
0.027003
0.0316601
0.0369725
0.0429775
0.0496107
0.0567084
0.0641184
0.0717199
0.0794202
0.087095
0.0947349
0.102221
0.10913
0.116852
0.0123205
0.0122881
0.0122471
0.0121393
0.0119723
0.0117761
0.0115677
0.0113564
0.011151
0.0109589
0.0107861
0.010638
0.0105194
0.0104433
0.0103554
0.010248
0.0100909
0.0105012
0.012123
0.0535792
0.182831
1.35618
0.0766477
0.00879824
0.0122551
0.0110483
0.0123497
0.0166061
0.0203827
0.0241623
0.0281454
0.0324712
0.0371952
0.0423441
0.0478683
0.0536753
0.0596297
0.0657082
0.0718295
0.0776571
0.0838763
0.0142485
0.0142063
0.0141598
0.0140371
0.0138447
0.013616
0.0133698
0.0131156
0.0128629
0.0126205
0.012394
0.0121882
0.0120052
0.01185
0.0117276
0.0116261
0.0115101
0.0113532
0.0112075
0.011765
0.0140673
0.042027
0.175036
0.655475
9.64775
0.222073
0.0148604
0.00907528
0.0156111
0.0250623
0.0122138
0.0174878
0.0214927
0.025367
0.0292887
0.03335
0.0375001
0.0417919
0.0462071
0.0505524
0.0553043
0.0163291
0.0162746
0.0162201
0.0160794
0.0158583
0.015594
0.0153064
0.015006
0.0147022
0.0144065
0.0141252
0.0138633
0.0136245
0.0134099
0.0132216
0.0130602
0.0129299
0.0128031
0.0126542
0.0124524
0.0123705
0.0128735
0.014596
0.0202551
0.26505
0.377974
0.824785
2.90094
0
0
0.0447105
0.00999958
0.0103811
0.0166969
0.0401082
0.0170743
0.0134916
0.0185178
0.0230171
0.0268381
0.0308369
0.0185441
0.0184783
0.0184155
0.0182558
0.0180053
0.0177048
0.0173754
0.0170288
0.016675
0.0163252
0.015989
0.0156699
0.015373
0.0151012
0.0148555
0.0146353
0.014442
0.0142741
0.0141329
0.0139773
0.0137996
0.0135891
0.0134994
0.0135693
0.0144988
0.0167941
0.0228375
0.0727876
0.263131
0.758263
1.08202
1.8946
13.4234
0
0
0.294812
0.0671449
0.0148371
0.0100576
0.0123566
0.0168789
0.0209182
0.0208426
0.0207711
0.0205908
0.0203098
0.0199711
0.0195984
0.0192038
0.0187998
0.0183965
0.0180056
0.0176307
0.0172769
0.016948
0.016646
0.0163708
0.0161225
0.0158995
0.0157033
0.0155288
0.0153735
0.0152053
0.0150155
0.014823
0.0146013
0.0145456
0.014683
0.0152791
0.0167122
0.0194186
0.0255825
0.0416687
0.283759
0.501835
0.978999
1.22227
1.60286
2.37811
4.40653
21.435
0
0.0234699
0.0233852
0.0233034
0.0231011
0.0227875
0.0224091
0.0219909
0.0215465
0.0210902
0.0206331
0.0201864
0.0197566
0.0193473
0.0189634
0.0186073
0.0182793
0.0179795
0.017707
0.0174612
0.0172384
0.0170422
0.0168696
0.0167073
0.0165547
0.0163777
0.0161832
0.0159925
0.0158027
0.0156892
0.0156896
0.0158523
0.0161924
0.0169593
0.0183461
0.0206899
0.0242027
0.029776
0.041979
0.0733861
0.792548
0.832739
0.0262205
0.0261277
0.0260339
0.0258081
0.0254601
0.0250401
0.024574
0.0240782
0.0235675
0.0230556
0.0225524
0.0220671
0.0216023
0.021164
0.0207551
0.0203764
0.0200276
0.0197085
0.0194185
0.0191538
0.0189176
0.0187091
0.0185225
0.0183617
0.0182205
0.018087
0.0179533
0.0178083
0.0176504
0.0174881
0.0173329
0.0171976
0.0170644
0.0169926
0.016998
0.017085
0.0172516
0.0175518
0.0179995
0.0188041
0.0199274
0.0291915
0.0290909
0.0289836
0.0287324
0.0283481
0.0278842
0.0273678
0.026818
0.0262507
0.0256824
0.0251217
0.0245796
0.0240599
0.0235678
0.0231071
0.0226796
0.0222844
0.0219216
0.0215909
0.021288
0.0210184
0.0207801
0.0205663
0.0203823
0.020225
0.0200898
0.0199733
0.0198725
0.0197823
0.0196979
0.0196142
0.0195307
0.0194419
0.0193485
0.0192547
0.0191676
0.0190885
0.0190163
0.0189545
0.0189017
0.018851
0.0324068
0.0322984
0.0321761
0.0318971
0.0314745
0.0309639
0.030395
0.0297884
0.0291627
0.0285355
0.0279167
0.0273164
0.0267418
0.026196
0.0256844
0.025209
0.0247696
0.0243656
0.0239976
0.0236602
0.0233615
0.023099
0.0228643
0.0226638
0.0224938
0.0223497
0.0222284
0.0221289
0.0220493
0.0219884
0.0219439
0.0219142
0.0218971
0.0218899
0.0218901
0.0218967
0.0219067
0.0219175
0.0219313
0.0219466
0.0219666
0.0358916
0.0357751
0.0356357
0.0353264
0.0348631
0.0343024
0.0336781
0.0330119
0.0323257
0.0316371
0.0309592
0.0303
0.0296697
0.0290706
0.0285089
0.0279867
0.0275051
0.0270625
0.0266602
0.026292
0.0259687
0.025687
0.0254362
0.0252243
0.0250479
0.0249014
0.0247817
0.0246869
0.024615
0.0245645
0.0245339
0.0245224
0.0245287
0.0245516
0.0245906
0.0246459
0.0247142
0.0247946
0.0248915
0.024996
0.0251465
0.039673
0.0395488
0.0393891
0.0390465
0.0385393
0.0379255
0.0372422
0.0365134
0.0357637
0.0350116
0.034273
0.0335542
0.0328672
0.0322157
0.0316047
0.0310374
0.0305153
0.0300366
0.0296031
0.0292077
0.0288638
0.0285676
0.0283052
0.0280863
0.0279079
0.027764
0.0276512
0.027567
0.0275097
0.0274772
0.0274678
0.02748
0.0275124
0.0275632
0.0276322
0.0277198
0.0278222
0.027938
0.0280767
0.0282167
0.0284531
0.0437825
0.0436492
0.0434645
0.0430857
0.0425307
0.04186
0.0411134
0.0403188
0.0395024
0.0386849
0.0378831
0.037104
0.0363595
0.035657
0.034998
0.0343875
0.0338272
0.0333159
0.0328547
0.0324362
0.0320765
0.0317713
0.0315029
0.0312826
0.0311078
0.0309718
0.0308713
0.0308036
0.030767
0.0307588
0.0307775
0.0308212
0.0308881
0.0309763
0.0310856
0.0312165
0.031364
0.0315255
0.0317175
0.0318949
0.0322527
0.048254
0.0481098
0.0478945
0.0474745
0.0468663
0.0461338
0.0453189
0.0444549
0.0435684
0.0426834
0.0418163
0.0409769
0.0401748
0.0394213
0.0387158
0.0380642
0.037468
0.0369271
0.0364423
0.0360054
0.0356352
0.0353274
0.0350591
0.0348438
0.0346792
0.0345581
0.0344764
0.0344316
0.0344217
0.0344443
0.0344973
0.0345792
0.0346875
0.0348209
0.034979
0.0351629
0.0353663
0.0355853
0.0358462
0.0360674
0.0366005
0.0531265
0.0529656
0.052713
0.0522446
0.0515766
0.050776
0.0498877
0.0489493
0.0479896
0.0470344
0.0461008
0.0452006
0.0443417
0.0435372
0.0427875
0.0420969
0.041468
0.040901
0.0403966
0.0399456
0.0395706
0.0392662
0.0390043
0.0388006
0.0386525
0.0385535
0.0384983
0.0384845
0.0385097
0.038572
0.0386688
0.0387989
0.0389592
0.0391484
0.039366
0.0396137
0.0398839
0.0401706
0.0405144
0.04078
0.0415494
0.0584406
0.0582574
0.0579569
0.0574296
0.0566947
0.055818
0.0548501
0.0538315
0.0527949
0.0517665
0.0507653
0.0498036
0.0488889
0.0480346
0.0472443
0.0465186
0.0458615
0.0452729
0.0447541
0.0442944
0.0439207
0.0436268
0.0433785
0.0431938
0.0430705
0.0430016
0.0429815
0.0430081
0.0430787
0.0431911
0.0433426
0.0435318
0.0437552
0.0440113
0.0443003
0.0446241
0.0449746
0.0453419
0.0457862
0.0460969
0.0471837
0.064244
0.0640283
0.0636669
0.063068
0.0622551
0.0612921
0.060236
0.0591302
0.058012
0.0569068
0.0558361
0.0548126
0.0538429
0.0529406
0.0521136
0.0513573
0.050677
0.0500728
0.0495467
0.0490856
0.0487217
0.0484476
0.0482225
0.0480664
0.047978
0.0479489
0.0479742
0.048051
0.0481769
0.0483494
0.0485661
0.0488255
0.0491242
0.0494603
0.0498349
0.05025
0.050697
0.0511611
0.0517282
0.0520834
0.0535952
0.0705895
0.0703283
0.0698848
0.0691988
0.068293
0.0672301
0.0660751
0.0648745
0.0636683
0.062483
0.0613407
0.0602548
0.0592312
0.0582841
0.0574234
0.056642
0.0559443
0.0553307
0.0548043
0.0543504
0.0540051
0.0537613
0.0535703
0.0534537
0.0534119
0.0534357
0.0535193
0.0536598
0.053855
0.0541023
0.0543995
0.0547453
0.0551357
0.0555689
0.0560467
0.0565715
0.0571339
0.0577127
0.0584274
0.0588236
0.0608944
0.0775351
0.0772066
0.076658
0.0758631
0.0748425
0.0736663
0.0723989
0.0710942
0.0697921
0.0685226
0.067306
0.0661577
0.0650827
0.0640947
0.0632041
0.0624041
0.0616962
0.0610816
0.0605635
0.0601261
0.0598099
0.0596068
0.0594604
0.059395
0.059411
0.0594991
0.0596533
0.0598702
0.0601485
0.0604856
0.0608789
0.0613272
0.0618263
0.0623745
0.062974
0.0636279
0.064326
0.0650397
0.06593
0.0663612
0.0691563
0.0851464
0.0847225
0.0840358
0.083103
0.0819468
0.0806358
0.0792395
0.0778173
0.0764096
0.0750492
0.0737552
0.0725436
0.0714186
0.0703928
0.0694772
0.0686665
0.0679575
0.0673525
0.0668529
0.0664436
0.0661699
0.0660236
0.0659379
0.0659403
0.0660313
0.0662018
0.0664454
0.0667587
0.0671391
0.067585
0.0680941
0.0686657
0.0692948
0.0699803
0.0707246
0.0715319
0.072391
0.0732641
0.074363
0.0748205
0.0785401
0.0934961
0.0929368
0.0920737
0.0909682
0.0896452
0.0881727
0.0866264
0.0850679
0.0835433
0.0820829
0.0807077
0.0794307
0.0782585
0.0771975
0.0762618
0.0754473
0.0747456
0.0741576
0.0736874
0.0733157
0.0730917
0.0730098
0.0729931
0.0730721
0.0732485
0.0735125
0.0738563
0.0742779
0.0747751
0.0753462
0.0759881
0.0767004
0.0774776
0.0783185
0.0792261
0.0802046
0.0812429
0.0822927
0.0836236
0.0840898
0.0889421
0.102667
0.10192
0.100827
0.0995066
0.0979763
0.0963089
0.0945831
0.0928688
0.0912108
0.0896408
0.088178
0.0868342
0.0856149
0.0845235
0.0835745
0.0827659
0.0820838
0.081528
0.0811009
0.0807852
0.0806334
0.0806394
0.0807165
0.0808981
0.0811858
0.0815697
0.0820425
0.0826007
0.0832419
0.0839639
0.0847645
0.0856425
0.0865926
0.0876134
0.0887085
0.0898824
0.0911232
0.0923719
0.0939598
0.0944282
0.100605
0.112744
0.11174
0.110358
0.10876
0.106975
0.10507
0.103134
0.101238
0.0994295
0.0977368
0.0961785
0.0947642
0.0934979
0.0923773
0.0914171
0.0906181
0.0899584
0.0894372
0.0890563
0.0887971
0.0887155
0.0888074
0.0889748
0.0892547
0.0896504
0.0901504
0.0907465
0.0914354
0.0922157
0.0930846
0.09404
0.0950805
0.0962008
0.0973988
0.0986772
0.100041
0.101476
0.102915
0.104742
0.105183
0.112771
0.123821
0.122477
0.12072
0.118779
0.116673
0.11448
0.112298
0.110194
0.108215
0.106385
0.104723
0.103233
0.10192
0.100774
0.0998151
0.0990439
0.0984314
0.0979732
0.0976723
0.0975082
0.0975389
0.0977607
0.0980647
0.0984888
0.0990361
0.099695
0.100457
0.101317
0.102274
0.103327
0.104471
0.105705
0.107023
0.108422
0.109904
0.111474
0.113112
0.11475
0.116802
0.117245
0.126164
0.135995
0.134199
0.131978
0.129602
0.127108
0.124574
0.122099
0.119755
0.117582
0.115602
0.113824
0.11225
0.110877
0.109695
0.108713
0.107937
0.107335
0.106896
0.106623
0.106497
0.106575
0.106859
0.107231
0.107734
0.108369
0.109123
0.109987
0.110956
0.112026
0.113195
0.114458
0.115812
0.11725
0.118767
0.120361
0.122035
0.123766
0.125492
0.127615
0.127991
0.137805
0.149379
0.146981
0.144158
0.141257
0.138307
0.135384
0.132584
0.129968
0.127572
0.125418
0.12351
0.121847
0.120422
0.119228
0.118275
0.117564
0.11706
0.116743
0.116611
0.116644
0.116895
0.117361
0.117918
0.118608
0.119435
0.120382
0.121438
0.122596
0.123853
0.125204
0.126642
0.128164
0.129759
0.131422
0.133145
0.134935
0.136749
0.138561
0.140665
0.141177
0.15095
0.164044
0.160848
0.157264
0.153704
0.150233
0.146907
0.143782
0.140894
0.138264
0.135905
0.133828
0.132027
0.130488
0.129177
0.128094
0.127248
0.126618
0.126185
0.125948
0.125886
0.12605
0.126451
0.12695
0.127592
0.128377
0.12929
0.130315
0.131445
0.132673
0.133991
0.13539
0.136863
0.138395
0.139978
0.1416
0.143259
0.144915
0.146557
0.148406
0.148731
0.158241
0.179922
0.175772
0.171295
0.166979
0.162911
0.159127
0.155663
0.152525
0.149696
0.147158
0.144912
0.142972
0.141369
0.140121
0.139233
0.138663
0.138333
0.138198
0.138244
0.138462
0.138894
0.13953
0.140248
0.141092
0.142061
0.143137
0.144303
0.145553
0.146876
0.148263
0.149702
0.151185
0.152693
0.154216
0.155738
0.157267
0.158723
0.160201
0.161565
0.162444
0.16892
0.196833
0.191659
0.186362
0.181395
0.176795
0.172521
0.168599
0.165068
0.161945
0.159212
0.156814
0.154662
0.152676
0.150802
0.149084
0.147666
0.146616
0.145893
0.145454
0.145251
0.145309
0.145643
0.146096
0.146706
0.147462
0.148339
0.149316
0.15038
0.151519
0.152717
0.15396
0.155229
0.156509
0.157785
0.159032
0.160244
0.161375
0.162464
0.16352
0.16357
0.170673
0.215107
0.208495
0.202314
0.196955
0.192209
0.187807
0.183631
0.179659
0.175952
0.17263
0.169849
0.167737
0.166348
0.165635
0.16541
0.165301
0.165083
0.164834
0.164647
0.164585
0.16469
0.164944
0.165266
0.165698
0.166237
0.166856
0.167538
0.168269
0.169037
0.16983
0.170635
0.171442
0.172234
0.173004
0.173734
0.174444
0.175027
0.175736
0.175884
0.177396
0.178004
0.235289
0.225866
0.217794
0.211551
0.206754
0.202827
0.199371
0.196093
0.192761
0.189199
0.185319
0.181132
0.176781
0.172481
0.168594
0.165717
0.163932
0.162777
0.162045
0.161622
0.161513
0.161701
0.162042
0.162553
0.163206
0.163966
0.164807
0.16571
0.166654
0.167615
0.168572
0.1695
0.170381
0.171189
0.171897
0.17248
0.172923
0.17321
0.173428
0.172532
0.177731
0.254612
0.243287
0.233704
0.225962
0.219802
0.214933
0.211225
0.208613
0.206971
0.206136
0.205903
0.206056
0.206371
0.206765
0.207012
0.206038
0.203859
0.201418
0.199037
0.196893
0.195021
0.193394
0.191941
0.190673
0.189585
0.18865
0.187845
0.187157
0.186576
0.186095
0.185704
0.185401
0.18518
0.185048
0.184989
0.185031
0.185081
0.185446
0.185221
0.187584
0.184432
0.243962
0.230855
0.224959
0.224434
0.226922
0.229508
0.229337
0.225035
0.217501
0.208739
0.200378
0.193234
0.187545
0.183173
0.180039
0.178741
0.178999
0.179962
0.18125
0.18272
0.184431
0.186066
0.187832
0.189661
0.1915
0.19333
0.195135
0.196899
0.198604
0.200233
0.201768
0.203194
0.204502
0.205679
0.2067
0.207522
0.208202
0.208605
0.20907
0.208067
0.213555
0.0052794
0.0086389
0.0121459
0.0167654
0.0236214
0.0316866
0.0392326
0.0460272
0.0538777
0.0690002
0.18761
0.0538295
0.0244051
0.00916641
1.67504
0.0581896
0.0147242
0.0152859
0.017125
0.0190424
0.02115
0.0235642
0.0263801
0.0294805
0.0328765
0.0362003
0.0393606
0.0418379
0.0438468
0.0456255
0.0473019
0.0494361
0.051719
0.0546726
0.0581296
0.0612549
0.0645262
0.0661887
0.0670596
0.0651998
0.0640094
0.0625029
0.0603594
0.0595943
0.0583272
0.0581644
0.0581901
0.0584066
0.0591405
0.0603489
0.0617627
0.0637074
0.0659889
0.0687527
0.0721033
0.0758404
0.0804271
0.0856931
0.0920292
0.0993968
0.108445
0.119211
0.132641
0.149741
0.172176
0.202655
0.24576
0.302335
0.334856
0.327944
0.277693
0.273357
0.238499
0.250398
0.00896225
0.0113336
0.014573
0.0190086
0.0253858
0.0327285
0.0391914
0.0443395
0.0491742
0.055822
0.070992
0.308163
0.0502932
0.0199593
0.00966335
0.364893
0.0231575
0.0155175
0.0170475
0.019109
0.0212751
0.0237395
0.0266504
0.0298732
0.0335135
0.0371428
0.0407015
0.0434642
0.0455949
0.0472853
0.0487631
0.0506273
0.0525431
0.0551705
0.058195
0.0609641
0.0640365
0.0658272
0.0671326
0.0658993
0.0651661
0.0641427
0.0621386
0.0615619
0.0603145
0.0601597
0.0602847
0.0605342
0.0612226
0.0625242
0.063985
0.0659949
0.0683619
0.0712184
0.0747411
0.0786131
0.0833674
0.0888632
0.0954804
0.103163
0.112644
0.123934
0.137882
0.155822
0.179205
0.210548
0.253701
0.305722
0.328939
0.323696
0.27832
0.279234
0.242604
0.261065
0.0147861
0.0156359
0.0180503
0.0219448
0.0276508
0.0342234
0.0399736
0.0443186
0.0478521
0.0517584
0.0581247
0.0735015
0.173498
0.0497246
0.0167989
0.00984992
0.150318
0.0199362
0.0164963
0.0188437
0.0212311
0.0236435
0.0265977
0.0299431
0.0337214
0.0375869
0.0414094
0.0445214
0.046804
0.0482834
0.0495836
0.0508838
0.0524873
0.0545459
0.0567796
0.0591869
0.0617148
0.0635894
0.0649245
0.0653824
0.0651434
0.0646473
0.0637131
0.063181
0.0625286
0.0623465
0.0625722
0.0631206
0.0638093
0.0651615
0.0667578
0.068844
0.071329
0.074295
0.0779643
0.0820954
0.0869896
0.0927732
0.0996614
0.107726
0.117603
0.129472
0.143868
0.162463
0.186333
0.217351
0.257593
0.30023
0.315337
0.313877
0.277554
0.284549
0.246435
0.273352
0.022684
0.0216392
0.0228016
0.0257774
0.0305732
0.0363385
0.0416234
0.0456707
0.0486956
0.0514777
0.0551345
0.061605
0.076648
0.13848
0.0519761
0.0144296
0.0109139
0.126936
0.0229319
0.018132
0.0206812
0.0236484
0.0265003
0.0298132
0.033771
0.0379877
0.042119
0.0455868
0.0480338
0.0494139
0.0504344
0.0512651
0.0524639
0.0539927
0.0556825
0.0577214
0.0598624
0.0617281
0.0632204
0.0646163
0.0650169
0.0650846
0.0651095
0.0648333
0.0647665
0.0647084
0.0650682
0.0658927
0.066663
0.0680769
0.0698125
0.0719893
0.0745982
0.0776849
0.0814945
0.0858676
0.0909267
0.0969829
0.104135
0.112561
0.122805
0.135153
0.149936
0.168975
0.192865
0.222937
0.25909
0.29384
0.304858
0.30712
0.277383
0.290752
0.250488
0.286987
0.0326436
0.0297269
0.0291425
0.0308343
0.0345154
0.0393811
0.0441934
0.0480679
0.0508666
0.0530681
0.0554357
0.0589557
0.0652411
0.0784336
0.116557
0.0571862
0.0159073
0.0115468
0.151068
0.0305727
0.0202194
0.0228181
0.0266387
0.0300602
0.0337719
0.0381015
0.0426996
0.0467541
0.0494792
0.0508258
0.051448
0.051884
0.0525879
0.0536514
0.0549707
0.056629
0.0585028
0.0603181
0.0620643
0.0638185
0.0649007
0.0656332
0.0663406
0.066599
0.0669997
0.0672382
0.067831
0.0688509
0.0697586
0.0712823
0.0731444
0.0754226
0.078155
0.0813651
0.0853272
0.0898871
0.0951291
0.101427
0.108827
0.117568
0.128128
0.140834
0.155896
0.175141
0.198661
0.227382
0.259294
0.288652
0.298053
0.303924
0.278357
0.298543
0.255093
0.302521
0.0454236
0.0404499
0.0374113
0.0374056
0.0397604
0.0436071
0.0478411
0.0515051
0.0541677
0.0560267
0.0576409
0.0596906
0.0629777
0.0686345
0.0790586
0.101413
0.0683834
0.0191231
0.0135423
0.220357
0.0637644
0.0231661
0.0244146
0.0295015
0.0344706
0.0388002
0.0431799
0.0474415
0.0505964
0.0521155
0.0524621
0.0524252
0.0525999
0.0532184
0.0541469
0.0554684
0.0570812
0.0588302
0.0606763
0.0626779
0.0643051
0.0656944
0.0670706
0.0680038
0.0689588
0.0696662
0.0706047
0.0719073
0.0730147
0.0747184
0.0767326
0.079143
0.0820129
0.0853536
0.0894787
0.0941989
0.099618
0.10613
0.113747
0.122739
0.133535
0.146446
0.161588
0.18069
0.203348
0.230005
0.257844
0.282955
0.291987
0.301064
0.279579
0.306635
0.259818
0.319996
0.0616668
0.0544845
0.047978
0.0458027
0.0466024
0.0492974
0.0528108
0.0561405
0.0586404
0.0602497
0.0613509
0.0624861
0.0642152
0.0671036
0.0717954
0.0794102
0.0921442
0.082412
0.0273928
0.0204791
0.0854133
0.139638
0.0356839
0.0268827
0.0309685
0.0380249
0.0445623
0.0492936
0.0520805
0.0530738
0.053079
0.0527139
0.0525166
0.0527039
0.0531879
0.0541701
0.0555113
0.0571544
0.0589572
0.0611134
0.063094
0.0649936
0.0670309
0.0686464
0.0703085
0.0716429
0.0730598
0.0748312
0.0762686
0.0782399
0.080487
0.0830851
0.0861329
0.0896244
0.0939204
0.0988059
0.104385
0.111083
0.118868
0.128033
0.138949
0.151882
0.166826
0.18537
0.20663
0.230604
0.254615
0.276115
0.285298
0.296863
0.279999
0.313392
0.264024
0.338863
0.0812579
0.0726577
0.0613136
0.0563916
0.0553891
0.0567855
0.0594197
0.062245
0.0644745
0.0658293
0.066517
0.0669807
0.0676871
0.0690406
0.0713724
0.0749929
0.0802248
0.0873777
0.0887913
0.046316
0.0162793
0.0230861
0.288499
0.367072
0.0406702
0.0349975
0.0403878
0.0483407
0.0546503
0.0563574
0.0549797
0.0531448
0.052178
0.0520001
0.0522258
0.052921
0.0539765
0.0554175
0.0571166
0.0592836
0.0614675
0.0636901
0.0662418
0.0684558
0.0708597
0.0729139
0.0749609
0.0773495
0.0793117
0.0816707
0.084277
0.0871422
0.0904398
0.0941226
0.0986067
0.10367
0.109393
0.116243
0.124128
0.13337
0.144257
0.156999
0.171449
0.18905
0.208491
0.229604
0.250139
0.268719
0.278191
0.291536
0.279241
0.317928
0.2674
0.358363
0.105176
0.0960145
0.0781294
0.0697132
0.0665751
0.0664989
0.0680772
0.0701996
0.0719909
0.0730067
0.0732872
0.0731748
0.0730824
0.0733597
0.0742608
0.0759704
0.0785766
0.0820389
0.0861012
0.0879983
0.0751207
0.0231632
0.0324657
3.60811
0.328242
0.389197
0.0521826
0.0460461
0.049548
0.0536844
0.056231
0.055567
0.0534144
0.0517551
0.0511361
0.0515095
0.0524423
0.0537496
0.0553109
0.0573517
0.0595907
0.0619951
0.0648583
0.0675445
0.0705757
0.0733465
0.0761242
0.0792226
0.0819006
0.0848102
0.0879372
0.0911902
0.0948391
0.0987848
0.103495
0.108751
0.114599
0.121557
0.129463
0.138659
0.149344
0.161657
0.175329
0.191667
0.209063
0.227452
0.244983
0.261313
0.271095
0.285635
0.277454
0.319923
0.269891
0.377653
0.138984
0.126747
0.0995935
0.0867613
0.0809292
0.0790669
0.0793662
0.080549
0.0816794
0.0821936
0.0819858
0.0812922
0.0804716
0.07985
0.0796634
0.0800766
0.0811721
0.0829281
0.0852283
0.0876621
0.0893633
0.0863238
0.0666321
0.0647739
0.0400049
1.67819
0.426604
0.32672
0.0799464
0.0588602
0.0510821
0.0497218
0.0512182
0.0521496
0.0515376
0.0508312
0.0508943
0.0518596
0.0533875
0.055408
0.0576355
0.0600828
0.0630455
0.066044
0.0695198
0.0729069
0.0764068
0.0802372
0.083777
0.0874041
0.0912481
0.0950642
0.0992168
0.103534
0.108545
0.114013
0.119975
0.12698
0.134813
0.14381
0.154095
0.165723
0.178358
0.193179
0.208474
0.224371
0.239435
0.254014
0.264074
0.279311
0.274781
0.31921
0.271472
0.39551
0.203892
0.174141
0.128698
0.109502
0.100043
0.0957403
0.0942783
0.0941704
0.094329
0.0940764
0.0931885
0.0917993
0.0902025
0.0887016
0.0875308
0.086858
0.0867811
0.0873271
0.0884533
0.0900366
0.0918432
0.0934198
0.0933527
0.089138
0.0723416
0.382386
0.0638304
0.314358
0.782433
0.46522
0.315764
0.0745097
0.0494319
0.0458318
0.0470822
0.0495987
0.0508374
0.0511657
0.051745
0.0532284
0.0553851
0.0579523
0.0609917
0.0641461
0.0678411
0.0716549
0.0757541
0.0802558
0.0846993
0.089168
0.0939088
0.0985061
0.103364
0.108225
0.113653
0.11939
0.125462
0.132446
0.140094
0.14872
0.158385
0.169084
0.180456
0.193589
0.206846
0.220513
0.233593
0.246753
0.256984
0.272448
0.271182
0.315671
0.272001
0.409891
0.378267
0.277592
0.175321
0.143121
0.127611
0.119447
0.115178
0.112971
0.111502
0.109962
0.107992
0.105607
0.103016
0.100491
0.0982619
0.0965028
0.0953212
0.0947718
0.0948598
0.095547
0.0967487
0.0983506
0.100059
0.101467
0.101621
0.0995141
0.09144
0.0370922
0.100402
0.0479853
0.213164
0.426993
0.337084
0.111727
0.0513575
0.0437808
0.0443186
0.0476648
0.0507572
0.052531
0.0538662
0.0557332
0.0585279
0.0618212
0.0657153
0.0698159
0.0742929
0.0792909
0.084514
0.0898677
0.0955969
0.101192
0.106973
0.112622
0.11863
0.124763
0.130965
0.137868
0.145198
0.15327
0.162094
0.171649
0.181601
0.192976
0.204335
0.216076
0.227554
0.239525
0.249775
0.265081
0.266659
0.309603
0.271368
0.418352
0.242118
0.264551
0.241672
0.199897
0.17373
0.158174
0.14839
0.142055
0.137275
0.133045
0.128932
0.124739
0.120532
0.116509
0.112872
0.10978
0.107336
0.105594
0.104577
0.104273
0.104643
0.105629
0.107138
0.109027
0.111125
0.113055
0.114435
0.113193
0.111242
0.091795
0.0459173
0.167877
9.047
1.0827
0.392233
0.241863
0.0602553
0.0442552
0.0435362
0.0467083
0.0511476
0.0545695
0.0570423
0.0595845
0.0630709
0.0672871
0.0721115
0.0775108
0.0832998
0.0894014
0.0960629
0.102778
0.109681
0.116402
0.123223
0.129938
0.136343
0.143124
0.150003
0.157337
0.165121
0.173371
0.181829
0.191476
0.201133
0.211253
0.221418
0.232362
0.242503
0.257387
0.261346
0.30163
0.269584
0.41945
0.187234
0.195496
0.206516
0.219254
0.226471
0.22154
0.209036
0.196042
0.183453
0.172568
0.163251
0.154753
0.146975
0.139971
0.133846
0.128628
0.124328
0.120955
0.118501
0.116939
0.116216
0.11627
0.117027
0.118408
0.12032
0.12263
0.125181
0.127659
0.129667
0.13063
0.132657
0.136728
0.195933
0.0862373
0.0350045
2.3998
0.52324
0.300485
0.128288
0.0513737
0.0450982
0.0473743
0.0526706
0.0578153
0.0616868
0.0651672
0.0694092
0.0747812
0.081024
0.0878052
0.095279
0.103052
0.111156
0.119193
0.127121
0.134677
0.141428
0.148082
0.154391
0.160818
0.167401
0.17425
0.181225
0.189242
0.19742
0.206188
0.215281
0.225336
0.23528
0.249593
0.25546
0.292558
0.266766
0.413613
0.15487
0.159209
0.16424
0.172474
0.183753
0.198225
0.215036
0.23073
0.238444
0.235597