/*--------------------------------*- C++ -*----------------------------------*\
| =========                 |                                                 |
| \\      /  F ield         | OpenFOAM: The Open Source CFD Toolbox           |
|  \\    /   O peration     | Version:  2312                                  |
|   \\  /    A nd           | Website:  www.openfoam.com                      |
|    \\/     M anipulation  |                                                 |
\*---------------------------------------------------------------------------*/
FoamFile
{
    version     2.0;
    format      ascii;
    arch        "LSB;label=32;scalar=64";
    class       volScalarField;
    location    "450";
    object      turbulenceProperties:I;
}
// * * * * * * * * * * * * * * * * * * * * * * * * * * * * * * * * * * * * * //

dimensions      [0 0 0 0 0 0 0];

internalField   nonuniform List<scalar> 
11040
(
0.0590814
0.0931608
0.496343
0.106473
0.279011
0.288419
0.290006
0.290482
0.287754
0.286575
0.284277
0.282326
0.280074
0.278298
0.276839
0.276014
0.276041
0.276619
0.277291
0.277905
0.278509
0.27927
0.279703
0.279307
0.278216
0.277153
0.27673
0.276312
0.275987
0.276041
0.276959
0.279444
0.284082
0.290756
0.302488
0.328187
0.364184
0.366773
0.564423
0.527903
0.738033
0.0183433
0.0241413
0.0696394
0.448122
0.539404
0.277005
0.151266
0.0883679
0.0453899
0.0423099
0.0650679
0.0753127
0.081457
0.085456
0.0880207
0.0897563
0.0911839
0.0924244
0.0931936
0.0934756
0.0933798
0.0932599
0.0923896
0.0900806
0.0864527
0.0823303
0.0787177
0.0746569
0.0699839
0.0648696
0.0601485
0.0578942
0.0605065
0.0675311
0.0825486
0.109672
0.157863
0.256066
0.594198
1
1
0.0159828
0.0124596
0.0191549
0.0573802
0.356656
1
0.537151
0.293355
0.198823
0.154919
0.118504
0.0933873
0.0717264
0.0530971
0.0404218
0.035347
0.0376514
0.0408111
0.0428282
0.0436372
0.0435492
0.0429176
0.0413624
0.0392823
0.0383047
0.0392632
0.0413437
0.0433433
0.0444252
0.0443781
0.0452166
0.0522748
0.0672949
0.0880992
0.116958
0.15953
0.228323
0.359976
0.747606
1
0.880209
0.0140845
0.0114939
0.00905661
0.0121063
0.059821
0.268356
1
0.967789
0.468823
0.320628
0.239493
0.195092
0.164352
0.14034
0.123873
0.110625
0.101481
0.0945441
0.0897594
0.0865537
0.0843887
0.0832193
0.0832622
0.0842928
0.0855282
0.086528
0.0870308
0.0868594
0.0859375
0.0845503
0.0838265
0.0864694
0.096454
0.117144
0.151431
0.204335
0.288467
0.439405
0.808022
1
0.880824
0.0127166
0.010838
0.0100766
0.00633414
0.00801015
0.0515779
0.197634
0.885984
1
0.803898
0.482881
0.346781
0.278948
0.231589
0.20235
0.179363
0.163946
0.152357
0.144202
0.13836
0.133781
0.13014
0.127583
0.126033
0.124897
0.123831
0.122569
0.120903
0.11871
0.116148
0.113966
0.114453
0.122568
0.144467
0.184092
0.245621
0.340178
0.495994
0.808792
1
0.949622
0.0111886
0.00970053
0.00883536
0.00846632
0.0042679
0.00398804
0.0387403
0.138924
0.450099
1
1
0.752629
0.508638
0.382894
0.316178
0.269496
0.239532
0.217935
0.202912
0.192384
0.184342
0.177914
0.172959
0.169283
0.166249
0.163492
0.160727
0.157649
0.153972
0.149625
0.144996
0.142095
0.146815
0.168442
0.212411
0.280782
0.380962
0.530049
0.776237
1
0.981635
0.00970692
0.00871568
0.00784715
0.00759002
0.00711007
0.00288407
0.000754471
0.0243935
0.0927896
0.268454
0.870253
1
1
0.767899
0.542389
0.425416
0.357103
0.311612
0.281212
0.260771
0.246235
0.235426
0.22735
0.221258
0.216199
0.211616
0.207147
0.202348
0.196735
0.189972
0.181967
0.173989
0.171805
0.188607
0.234107
0.306832
0.407614
0.5415
0.725442
1
0.925702
0.00837579
0.0077196
0.00718177
0.00665164
0.00654927
0.00624015
0.00131133
0.000205563
0.0125274
0.0575421
0.162696
0.421914
1
1
1
0.818767
0.593368
0.477109
0.406617
0.361405
0.331551
0.31198
0.29853
0.288983
0.281321
0.274335
0.267561
0.260483
0.252322
0.242456
0.230192
0.215545
0.202022
0.204721
0.245041
0.319182
0.416615
0.531217
0.663654
0.833262
0.812631
0.00721822
0.00675876
0.00641159
0.00606536
0.00568375
0.0057536
0.00530319
0.00199307
0.00176986
0.00214533
0.0307433
0.0950536
0.234853
0.575415
1
1
1
0.907664
0.669125
0.546119
0.473278
0.429861
0.402567
0.384505
0.371606
0.360837
0.350678
0.340051
0.32823
0.31427
0.296859
0.274608
0.247023
0.222274
0.238317
0.309979
0.403577
0.500201
0.593773
0.690141
0.683778
0.00620283
0.00587973
0.00564267
0.0054352
0.00519166
0.00492813
0.00499954
0.00453336
0.00262476
0.000878603
0.00345982
0.0137092
0.0513311
0.131598
0.296942
0.68806
1
1
1
1
0.786528
0.656152
0.583881
0.539888
0.511322
0.490388
0.473256
0.457052
0.439785
0.41975
0.395312
0.364434
0.323733
0.26884
0.213173
0.260318
0.360145
0.447898
0.516542
0.568352
0.55798
0.00532145
0.0050921
0.00492958
0.00479433
0.00466062
0.0044847
0.0043174
0.00429576
0.00413638
0.00292362
0.000730372
0.00164032
0.000789618
0.0228945
0.0692186
0.159468
0.335368
0.726085
1
1
1
1
1
0.865123
0.775947
0.718148
0.67733
0.644712
0.615276
0.585361
0.551794
0.51123
0.459185
0.389082
0.287892
0.0887633
0.264592
0.37119
0.4315
0.458946
0.439141
0.00455862
0.00439521
0.00427974
0.00419342
0.00411251
0.00402437
0.00390636
0.00378492
0.00372259
0.00371812
0.00302873
0.00071464
0.00036997
0.00297062
0.00641798
0.030672
0.0806611
0.172873
0.342648
0.688645
1
1
1
1
1
1
1
1
0.950115
0.889222
0.83178
0.771772
0.703692
0.622483
0.525964
0.42013
0.345448
0.354596
0.384307
0.389153
0.35126
0.00390055
0.00378391
0.00370061
0.00364413
0.00359819
0.00355053
0.00349417
0.00342073
0.00332811
0.00326877
0.003275
0.00298363
0.00159087
0.000484868
0.000816527
0.00383944
0.00971124
0.0346014
0.0837761
0.170413
0.321405
0.588788
1
1
1
1
1
1
1
1
1
1
1
1
0.990166
0.847765
0.725039
0.633505
0.570457
0.519345
0.452062
0.00333366
0.00325064
0.00318977
0.00315226
0.00312773
0.00310564
0.00307989
0.00304754
0.00300327
0.00294081
0.00288804
0.00290667
0.00277616
0.00223613
0.000292978
0.00019094
0.00135782
0.00424183
0.0104901
0.0337767
0.0784466
0.150213
0.257415
0.417085
0.654997
0.988823
1
1
1
1
1
1
1
1
1
1
1
1
1
0.926357
0.784808
0.00284546
0.00278671
0.00274196
0.00271703
0.00270531
0.00269857
0.00269179
0.00268161
0.00266636
0.00264286
0.00260418
0.00256849
0.00255466
0.00254354
0.00232592
0.00135688
0.000433976
8.65098e-05
0.00164375
0.00417387
0.00884849
0.0273227
0.0588252
0.105298
0.169848
0.256755
0.372048
0.521717
0.705855
0.915244
1
1
1
1
1
1
1
1
1
1
1
0.00242522
0.0023838
0.00235081
0.00233429
0.0023303
0.0023322
0.00233606
0.00233949
0.00234031
0.00233704
0.00232766
0.00230877
0.00228527
0.00226552
0.00228557
0.00220127
0.00195467
0.000823033
0.000313454
5.88002e-05
0.00151491
0.00367741
0.00323275
0.0134817
0.0311446
0.056856
0.0913424
0.135613
0.19088
0.258536
0.339937
0.435707
0.545314
0.668235
0.805738
0.963233
1
1
1
1
1
0.00206649
0.00203724
0.002013
0.00200232
0.00200286
0.00200928
0.00201857
0.00202896
0.00203876
0.00204649
0.00205101
0.00205115
0.00204591
0.00203283
0.00202389
0.00202165
0.00203293
0.00192266
0.0016647
0.000575867
0.000254587
6.63462e-05
0.000438448
0.00214568
0.00359106
0.00171648
0.00850858
0.0196848
0.0352002
0.0553056
0.0802417
0.110312
0.145786
0.187096
0.234661
0.288761
0.349836
0.419202
0.497896
0.588697
0.692747
0.00177107
0.00175033
0.00173272
0.00172637
0.00172979
0.00173869
0.0017506
0.00176429
0.0017784
0.00179165
0.00180317
0.00181213
0.0018181
0.00182022
0.00181768
0.00181269
0.00181169
0.00182014
0.0018286
0.00171716
0.00144801
0.000658787
0.000255295
0.000106145
1.74587e-05
0.000212692
0.00131081
0.00290199
0.00338316
0.00404765
0.00442699
0.0113883
0.020531
0.0322217
0.0465673
0.0636786
0.0835268
0.106443
0.132472
0.162192
0.195294
0.00153409
0.00151931
0.00150646
0.00150311
0.00150827
0.00151838
0.00153156
0.00154678
0.00156309
0.00157924
0.00159448
0.00160812
0.0016196
0.00162871
0.00163506
0.00163854
0.00163858
0.00163915
0.0016443
0.00165942
0.00165821
0.00157512
0.00139108
0.00107305
0.000188399
0.000150226
8.98557e-05
3.88667e-05
0
0
0.000604257
0.0019057
0.00297317
0.00322996
0.00221546
0.00121175
0.00380636
0.00882195
0.0154461
0.0235491
0.0333934
0.00134261
0.00133185
0.00132234
0.00132096
0.00132697
0.00133743
0.00135082
0.00136632
0.00138318
0.00140046
0.00141736
0.00143343
0.00144812
0.00146104
0.00147199
0.00148094
0.00148768
0.0014923
0.0014947
0.00149975
0.00150886
0.00152442
0.00152683
0.00150945
0.00140231
0.00122681
0.000969146
0.000438704
0.000187887
9.36854e-05
7.44496e-05
5.14443e-05
1.37228e-05
0
0
0.000173616
0.000458971
0.00132209
0.00233855
0.00304096
0.00345463
0.00118416
0.00117616
0.00116907
0.00116902
0.00117539
0.00118577
0.00119887
0.00121405
0.0012306
0.00124789
0.00126514
0.00128203
0.0012981
0.00131298
0.00132641
0.0013383
0.00134858
0.00135729
0.00136426
0.00136991
0.00137454
0.00138167
0.00139263
0.00140581
0.00142425
0.00142555
0.00140608
0.00134474
0.00123403
0.00108949
0.000888082
0.000635001
0.00017675
0.000122014
7.88068e-05
6.84329e-05
5.7401e-05
4.42542e-05
2.93414e-05
5.80186e-06
0
0.00105088
0.00104486
0.00103961
0.00104046
0.00104692
0.00105695
0.00106951
0.00108403
0.00109991
0.0011166
0.00113352
0.00115028
0.00116659
0.00118209
0.00119653
0.0012098
0.00122183
0.00123258
0.00124207
0.0012505
0.00125759
0.00126375
0.00127018
0.00127691
0.00128689
0.00129974
0.00131379
0.00132925
0.00133852
0.00133718
0.00132098
0.00129122
0.00123393
0.00115061
0.00104386
0.000928457
0.000801975
0.00063407
0.000436441
8.95762e-05
8.71933e-05
0.000937232
0.000932644
0.000928795
0.000930253
0.000936617
0.000946158
0.000958032
0.000971716
0.000986702
0.00100248
0.00101865
0.00103478
0.00105069
0.00106603
0.00108059
0.00109422
0.00110687
0.00111848
0.00112902
0.00113867
0.00114721
0.00115482
0.00116189
0.00116811
0.00117382
0.00117983
0.00118668
0.00119518
0.00120555
0.00121725
0.00122941
0.00124093
0.00125307
0.00126062
0.0012619
0.00125666
0.00124563
0.00122571
0.00119786
0.00115185
0.00109653
0.000839251
0.000835736
0.000832974
0.000834836
0.00084099
0.000849977
0.000861096
0.000873867
0.000887863
0.000902592
0.000917776
0.000933015
0.000948118
0.000962835
0.000976938
0.00099028
0.00100282
0.00101448
0.00102522
0.0010352
0.0010441
0.00105211
0.00105959
0.00106619
0.00107201
0.00107724
0.00108201
0.00108647
0.00109086
0.00109547
0.00110057
0.00110618
0.00111265
0.00111995
0.00112781
0.00113576
0.00114365
0.00115148
0.00115891
0.00116609
0.00117291
0.000754004
0.000751305
0.000749383
0.00075151
0.000757384
0.000765795
0.000776129
0.00078797
0.000800921
0.000814562
0.000828634
0.000842841
0.000856928
0.00087075
0.000884071
0.000896752
0.00090873
0.000919957
0.000930353
0.000940069
0.000948748
0.000956524
0.000963747
0.000970073
0.000975607
0.000980497
0.000984825
0.000988601
0.000991863
0.000994635
0.000996994
0.000998989
0.0010007
0.00100223
0.00100368
0.00100509
0.00100657
0.00100823
0.00100997
0.00101185
0.00101361
0.000679276
0.000677213
0.000675949
0.000678237
0.000683797
0.000691637
0.000701194
0.000712121
0.000724028
0.00073658
0.0007495
0.000762597
0.000775587
0.000788367
0.000800723
0.000812526
0.000823683
0.000834175
0.000843898
0.000853002
0.000861092
0.000868282
0.000874914
0.000880653
0.000885563
0.000889794
0.000893417
0.000896464
0.000898969
0.000900961
0.000902464
0.000903487
0.000904055
0.000904186
0.000903895
0.000903152
0.000902067
0.000900669
0.000898783
0.000896738
0.000893109
0.00061336
0.000611783
0.00061105
0.000613427
0.000618665
0.000625941
0.000634754
0.000644792
0.000655698
0.000667186
0.000678977
0.000690943
0.000702819
0.000714487
0.000725791
0.000736595
0.000746803
0.000756396
0.000765275
0.000773571
0.000780884
0.000787306
0.000793186
0.000798202
0.000802392
0.000805882
0.000808737
0.000810998
0.000812684
0.000813838
0.000814489
0.00081466
0.000814382
0.00081369
0.000812582
0.000811034
0.000809153
0.000806976
0.000804219
0.000801505
0.000796127
0.000554887
0.000553704
0.000553412
0.000555819
0.000560741
0.000567476
0.000575592
0.000584783
0.000594742
0.000605203
0.000615921
0.000626782
0.000637564
0.000648104
0.000658325
0.000668082
0.000677284
0.000685897
0.000693843
0.000701234
0.000707673
0.000713235
0.00071828
0.000722506
0.00072593
0.000728673
0.00073078
0.00073229
0.000733224
0.000733625
0.000733516
0.000732929
0.000731899
0.000730463
0.000728623
0.000726362
0.000723796
0.000720984
0.000717549
0.000714516
0.000707538
0.000502772
0.000501912
0.000501989
0.000504403
0.000509027
0.000515259
0.000522727
0.000531125
0.000540197
0.000549686
0.000559393
0.000569186
0.00057891
0.000588368
0.000597526
0.000606242
0.000614441
0.000622068
0.000629062
0.000635519
0.00064106
0.000645739
0.000649937
0.000653364
0.000656032
0.00065804
0.000659449
0.000660283
0.000660566
0.00066033
0.000659609
0.000658423
0.000656816
0.000654813
0.000652419
0.000649617
0.000646526
0.00064322
0.000639231
0.00063602
0.000627452
0.000456125
0.000455562
0.000455949
0.000458364
0.000462714
0.000468487
0.000475351
0.000483021
0.000491265
0.00049985
0.000508606
0.000517395
0.000526105
0.000534551
0.000542683
0.000550403
0.000557627
0.000564303
0.000570375
0.00057593
0.000580602
0.000584443
0.000587835
0.00059051
0.000592479
0.00059382
0.000594593
0.000594824
0.000594538
0.000593758
0.00059252
0.000590839
0.000588766
0.000586322
0.000583517
0.000580333
0.000576886
0.000573271
0.00056892
0.000565735
0.000555766
0.000414237
0.000413936
0.0004146
0.000417025
0.000421123
0.000426483
0.000432794
0.0004398
0.00044728
0.000455034
0.000462903
0.000470763
0.000478523
0.00048602
0.000493178
0.000499948
0.000506241
0.000512015
0.000517212
0.000521917
0.000525779
0.000528843
0.000531491
0.000533479
0.000534812
0.000535561
0.000535779
0.000535486
0.00053471
0.000533475
0.000531816
0.00052975
0.000527327
0.000524567
0.000521478
0.000518044
0.00051437
0.000510576
0.000505998
0.000502968
0.000491751
0.000376504
0.000376452
0.000377367
0.000379811
0.00038369
0.000388685
0.000394501
0.000400909
0.000407693
0.00041469
0.000421748
0.000428756
0.000435641
0.000442262
0.000448515
0.000454399
0.000459826
0.000464756
0.000469131
0.000473044
0.000476152
0.000478501
0.000480467
0.000481833
0.000482595
0.000482825
0.000482566
0.000481842
0.000480675
0.000479092
0.000477119
0.000474779
0.00047211
0.000469138
0.000465863
0.000462277
0.00045847
0.000454586
0.000449878
0.000447086
0.00043474
0.00034242
0.000342608
0.000343775
0.000346243
0.000349944
0.000354626
0.000360004
0.000365871
0.000372032
0.000378341
0.000384663
0.000390898
0.000396985
0.000402798
0.000408234
0.000413303
0.000417939
0.000422101
0.000425733
0.00042892
0.00043135
0.000433058
0.000434415
0.00043523
0.00043549
0.000435263
0.000434593
0.000433503
0.000432012
0.000430145
0.000427926
0.000425374
0.000422529
0.000419414
0.000416027
0.000412362
0.000408501
0.000404605
0.000399856
0.000397362
0.00038404
0.000311567
0.000312004
0.000313409
0.000315918
0.000319492
0.000323892
0.000328888
0.000334272
0.000339879
0.000345568
0.00035123
0.000356766
0.000362125
0.000367202
0.000371903
0.000376233
0.000380149
0.000383613
0.000386576
0.000389114
0.000390943
0.000392097
0.000392931
0.000393274
0.000393118
0.000392521
0.000391523
0.000390147
0.000388409
0.00038633
0.000383937
0.000381246
0.000378295
0.000375104
0.000371672
0.000367996
0.000364147
0.000360296
0.000355576
0.000353408
0.000339262
0.000283584
0.000284276
0.00028592
0.000288491
0.000291958
0.000296129
0.000300794
0.000305758
0.000310877
0.000316019
0.000321091
0.000326004
0.000330713
0.000335133
0.000339178
0.000342841
0.000346109
0.000348942
0.000351309
0.00035327
0.000354564
0.000355221
0.000355591
0.000355518
0.000354997
0.000354077
0.000352797
0.000351178
0.000349242
0.000347005
0.00034449
0.00034171
0.000338701
0.000335483
0.000332054
0.000328411
0.000324619
0.000320855
0.000316217
0.000314385
0.000299593
0.000258163
0.000259125
0.000260998
0.000263647
0.000267043
0.00027103
0.000275414
0.000280024
0.000284716
0.000289382
0.000293931
0.000298296
0.000302424
0.000306264
0.00030973
0.000312809
0.000315507
0.000317798
0.000319644
0.000321113
0.000321974
0.000322243
0.000322252
0.000321862
0.000321067
0.000319914
0.000318441
0.000316664
0.0003146
0.000312268
0.000309688
0.000306878
0.000303869
0.000300678
0.000297308
0.000293756
0.000290077
0.000286451
0.000281966
0.000280475
0.000265243
0.000235037
0.00023628
0.000238387
0.000241124
0.000244485
0.000248331
0.000252492
0.000256797
0.000261125
0.000265375
0.00026947
0.00027335
0.000276973
0.000280299
0.000283253
0.000285814
0.000288004
0.000289807
0.000291196
0.00029222
0.00029268
0.000292592
0.000292266
0.000291582
0.000290536
0.000289171
0.000287518
0.000285599
0.00028343
0.000281031
0.000278421
0.000275614
0.00027264
0.000269515
0.000266241
0.000262817
0.000259292
0.000255839
0.000251567
0.000250369
0.000235046
0.000213987
0.000215522
0.000217854
0.000220708
0.000224061
0.000227809
0.000231783
0.000235834
0.000239849
0.000243741
0.000247443
0.000250904
0.000254087
0.000256972
0.000259491
0.000261618
0.000263395
0.000264806
0.000265835
0.000266525
0.000266703
0.000266378
0.000265843
0.000264988
0.00026381
0.000262349
0.000260635
0.000258689
0.000256523
0.000254156
0.000251605
0.000248885
0.000246023
0.000243033
0.000239922
0.00023669
0.00023338
0.000230153
0.000226174
0.00022526
0.000210138
0.000194818
0.000196648
0.000199215
0.00020219
0.000205572
0.000209255
0.000213077
0.000216911
0.000220655
0.000224239
0.0002276
0.0002307
0.000233502
0.000236
0.000238127
0.000239856
0.000241239
0.000242272
0.00024294
0.000243284
0.000243158
0.000242569
0.000241793
0.000240736
0.000239399
0.000237818
0.000236022
0.00023403
0.000231855
0.000229514
0.000227021
0.000224393
0.000221655
0.00021882
0.000215895
0.00021288
0.000209823
0.000206851
0.000203242
0.000202497
0.000188206
0.000177368
0.000179497
0.000182284
0.000185402
0.000188825
0.00019246
0.000196164
0.000199814
0.000203329
0.000206642
0.000209711
0.000212505
0.000215001
0.000217196
0.000219047
0.000220523
0.000221676
0.000222512
0.000223021
0.000223236
0.000223034
0.000222412
0.000221619
0.000220574
0.000219274
0.000217758
0.000216051
0.000214172
0.000212136
0.000209958
0.000207656
0.000205242
0.000202742
0.00020017
0.000197537
0.000194844
0.000192137
0.00018951
0.000186375
0.000185842
0.000172625
0.000161477
0.000163921
0.000166947
0.000170198
0.000173657
0.000177243
0.000180828
0.000184318
0.000187636
0.000190724
0.000193544
0.00019607
0.000198284
0.000200174
0.000201701
0.000202845
0.000203654
0.00020415
0.000204334
0.00020424
0.000203772
0.000202941
0.000201968
0.000200782
0.000199387
0.000197817
0.000196099
0.00019425
0.000192285
0.000190218
0.000188066
0.000185841
0.000183567
0.000181255
0.000178919
0.000176557
0.000174225
0.000171957
0.000169395
0.00016879
0.000157874
0.000147052
0.000149828
0.0001531
0.000156508
0.000159989
0.000163482
0.00016691
0.000170212
0.000173337
0.00017624
0.000178876
0.000181225
0.00018328
0.000185064
0.00018656
0.000187742
0.000188624
0.000189227
0.000189546
0.000189608
0.000189337
0.000188717
0.000187961
0.000187006
0.000185855
0.00018454
0.000183087
0.000181513
0.000179835
0.00017807
0.000176234
0.000174343
0.000172419
0.000170475
0.00016853
0.000166584
0.000164688
0.00016285
0.000160828
0.000160484
0.000150848
0.00013409
0.000137148
0.000140626
0.000144155
0.00014765
0.00015106
0.000154324
0.000157406
0.000160292
0.000162974
0.000165423
0.000167598
0.000169434
0.000170886
0.000171925
0.000172588
0.000172962
0.0001731
0.000173014
0.00017272
0.000172166
0.000171368
0.00017048
0.000169453
0.000168291
0.000167022
0.000165669
0.000164246
0.000162766
0.000161244
0.000159695
0.000158131
0.000156571
0.000155027
0.000153514
0.000152024
0.000150633
0.000149245
0.000147988
0.00014719
0.000141551
0.000122589
0.000125822
0.000129321
0.000132783
0.00013616
0.000139457
0.000142626
0.000145605
0.000148345
0.000150828
0.000153077
0.000155153
0.000157123
0.000159031
0.000160823
0.000162331
0.00016346
0.000164242
0.000164713
0.000164922
0.000164839
0.000164447
0.000163925
0.000163234
0.00016239
0.000161424
0.000160363
0.000159225
0.000158026
0.000156784
0.000155519
0.000154247
0.000152986
0.00015175
0.000150562
0.000149425
0.000148379
0.000147387
0.000146437
0.000146395
0.000140307
0.000112199
0.000115706
0.000119186
0.000122372
0.000125336
0.000128218
0.00013108
0.000133925
0.000136697
0.000139281
0.000141518
0.000143261
0.000144422
0.000145015
0.000145188
0.000145263
0.000145436
0.000145641
0.000145793
0.000145836
0.000145733
0.0001455
0.00014521
0.000144824
0.000144349
0.000143808
0.000143218
0.000142592
0.00014194
0.000141274
0.000140604
0.000139939
0.000139293
0.000138671
0.000138086
0.000137522
0.000137062
0.000136507
0.000136391
0.000135226
0.000134765
0.000102609
0.000106859
0.000110782
0.00011401
0.000116612
0.000118828
0.000120847
0.000122831
0.000124919
0.000127239
0.000129874
0.000132848
0.00013609
0.000139456
0.000142644
0.000145095
0.000146652
0.000147673
0.000148323
0.000148698
0.000148785
0.000148602
0.000148279
0.000147805
0.000147207
0.000146519
0.000145765
0.000144967
0.000144142
0.000143312
0.000142495
0.000141713
0.000140979
0.000140312
0.000139733
0.00013926
0.000138903
0.000138672
0.000138499
0.000139218
0.000135148
9.48587e-05
9.9263e-05
0.000103313
0.000106825
0.000109787
0.000112241
0.000114178
0.000115577
0.000116468
0.000116918
0.000117033
0.000116933
0.000116746
0.000116518
0.000116377
0.000116926
0.000118174
0.000119604
0.000121032
0.000122346
0.000123515
0.00012455
0.000125487
0.000126316
0.000127035
0.000127659
0.0001282
0.000128665
0.000129059
0.000129387
0.000129653
0.000129859
0.000130008
0.000130096
0.000130132
0.000130097
0.000130057
0.000129797
0.00012995
0.000128308
0.000130498
9.90153e-05
0.000104637
0.000107375
0.000107616
0.000106422
0.000105206
0.000105266
0.000107258
0.000110952
0.000115588
0.00012039
0.000124819
0.000128585
0.000131634
0.000133907
0.000134861
0.000134652
0.000133919
0.000132957
0.00013188
0.000130649
0.000129494
0.00012827
0.000127028
0.000125803
0.000124607
0.00012345
0.000122339
0.000121285
0.000120295
0.000119376
0.000118534
0.000117773
0.000117095
0.000116513
0.000116048
0.000115666
0.00011544
0.00011518
0.000115733
0.000112756
0.437439
0.288854
0.219653
0.19611
0.199904
0.202732
0.191606
0.165993
0.128582
0.0819189
0.0214681
0.040469
0.022131
0.00234561
5.73798e-05
0.000529069
0.0014699
0.00143205
0.00128572
0.00116424
0.00105518
0.000952681
0.00085539
0.000768848
0.000692041
0.000630505
0.000581427
0.000548229
0.000524102
0.000504495
0.00048732
0.0004669
0.000446845
0.000423205
0.000398507
0.000378625
0.000359869
0.000351275
0.000347173
0.000357565
0.000364724
0.000374066
0.000387921
0.000393495
0.000402653
0.000404382
0.000404815
0.000403902
0.00039945
0.000391987
0.000383514
0.000372261
0.000359803
0.000345705
0.000329962
0.000313976
0.000296299
0.000278281
0.000259272
0.000240171
0.000220219
0.000200392
0.000180142
0.000159593
0.000138808
0.000117932
9.72425e-05
7.90375e-05
7.13529e-05
7.28427e-05
8.6014e-05
8.73457e-05
0.000100126
9.52805e-05
0.767057
0.478769
0.344543
0.285099
0.265232
0.255304
0.23965
0.213342
0.176483
0.131311
0.07961
0.0121918
0.0339827
0.0141795
0.00414585
0.000154416
0.000993913
0.00140727
0.00129115
0.00115928
0.0010483
0.000945145
0.000846347
0.000758468
0.000678665
0.000614307
0.000562092
0.000527551
0.000503856
0.000486647
0.00047259
0.000455803
0.000439741
0.00041931
0.000398004
0.000380395
0.000362604
0.000353204
0.000346812
0.000353801
0.000358299
0.000364569
0.000376896
0.000381015
0.000389495
0.00039109
0.000390876
0.000389836
0.000385999
0.000378483
0.000370324
0.000359483
0.000347431
0.000333845
0.000318417
0.000302991
0.000285927
0.00026842
0.000249957
0.000231449
0.000212049
0.000192784
0.000173316
0.000153381
0.000133374
0.000113517
9.42017e-05
7.81631e-05
7.26362e-05
7.3797e-05
8.58174e-05
8.55031e-05
9.84263e-05
9.13811e-05
1
0.692989
0.484986
0.384881
0.339793
0.315979
0.29397
0.265237
0.22771
0.182568
0.131973
0.0776632
0.0204415
0.0274029
0.00931039
0.00259128
0.000273415
0.00110899
0.00133773
0.00117552
0.00104961
0.000948577
0.000847709
0.000756374
0.000674224
0.000606857
0.000552323
0.000514871
0.000490691
0.000476447
0.000464639
0.000453389
0.000440108
0.000424027
0.00040786
0.000391772
0.00037622
0.000365626
0.000358618
0.000356625
0.000358468
0.000361783
0.000367656
0.000371339
0.000375803
0.000377484
0.000376705
0.000373986
0.000370477
0.000363289
0.000355065
0.000344723
0.000333089
0.000320123
0.000305346
0.000290222
0.000274094
0.00025717
0.000239524
0.00022169
0.000203141
0.000184566
0.000166125
0.000147126
0.000128281
0.00010997
9.27814e-05
7.95939e-05
7.57689e-05
7.61042e-05
8.60512e-05
8.39019e-05
9.68909e-05
8.72679e-05
1
0.993467
0.661461
0.50696
0.431672
0.389934
0.357384
0.322768
0.282308
0.235839
0.184809
0.131087
0.0760881
0.0245093
0.022448
0.00638619
0.0022271
0.000300294
0.000979415
0.0012252
0.00107862
0.000947511
0.000850452
0.0007596
0.000673076
0.000600225
0.000542816
0.000502681
0.000477993
0.000465413
0.00045667
0.000449891
0.000440192
0.000428277
0.00041582
0.000401661
0.000387825
0.000376633
0.000368284
0.000360871
0.0003592
0.000359402
0.000359835
0.000361954
0.000362908
0.000363806
0.000362362
0.000358364
0.000354733
0.000347846
0.000339642
0.00032977
0.000318595
0.000306249
0.000292206
0.00027755
0.000262295
0.000246066
0.000229284
0.000212207
0.000194569
0.000176832
0.000159421
0.000141469
0.000123945
0.00010722
9.22482e-05
8.13258e-05
7.83733e-05
7.77769e-05
8.61016e-05
8.21081e-05
9.53184e-05
8.31165e-05
1
1
0.915944
0.668055
0.549479
0.482928
0.434835
0.390441
0.344214
0.294517
0.241674
0.186926
0.131615
0.0770562
0.0289114
0.0190058
0.00578388
0.0023276
0.00026188
0.000770856
0.00110437
0.00098417
0.00084511
0.00075256
0.00067293
0.00059849
0.000535366
0.000489962
0.000463852
0.000452333
0.000447541
0.000444399
0.000439034
0.000430894
0.000421114
0.000409338
0.000396786
0.000385405
0.000375132
0.000365388
0.000359866
0.000356436
0.000353211
0.000352425
0.00035089
0.000350206
0.000347698
0.000343068
0.000339096
0.00033231
0.000324274
0.000314859
0.000304191
0.000292486
0.000279161
0.000265211
0.000250771
0.000235339
0.000219444
0.000203208
0.000186516
0.000169723
0.000153344
0.000136501
0.000120338
0.000105129
9.21785e-05
8.27887e-05
8.01623e-05
7.85934e-05
8.57975e-05
7.99618e-05
9.35934e-05
7.88437e-05
1
1
1
0.90625
0.711697
0.606257
0.534411
0.474503
0.418246
0.36225
0.305416
0.248008
0.190838
0.134807
0.0810943
0.0347355
0.0173636
0.00575305
0.00295509
0.000199141
0.000445595
0.000966526
0.000931693
0.000767341
0.00065821
0.000586965
0.000529282
0.000482947
0.000453593
0.000441001
0.000438713
0.000439652
0.000438799
0.000434281
0.000427414
0.000417812
0.000406596
0.000395102
0.000383683
0.000372027
0.000363208
0.000356129
0.000349407
0.000345198
0.000340987
0.000338077
0.000334122
0.000328575
0.000324067
0.000317123
0.000309203
0.000300149
0.000289969
0.0002789
0.000266283
0.000253138
0.00023953
0.000224961
0.000209996
0.000194683
0.000178993
0.000163242
0.00014796
0.000132322
0.000117572
0.000103935
9.26999e-05
8.44567e-05
8.18275e-05
7.93386e-05
8.54201e-05
7.78482e-05
9.18869e-05
7.45341e-05
1
1
1
1
0.960642
0.783184
0.671054
0.585485
0.512141
0.444749
0.380262
0.317561
0.25658
0.197698
0.141377
0.0884102
0.0427144
0.017664
0.00664928
0.00416461
0.000368214
0.000254586
0.0006487
0.000854449
0.000742721
0.00059965
0.000512012
0.000464039
0.000440421
0.000433099
0.000433639
0.000437133
0.000439318
0.00043835
0.000434981
0.000427712
0.000418001
0.000406611
0.000394814
0.000381518
0.000370168
0.000359975
0.000349638
0.000342005
0.000334492
0.000328812
0.000322965
0.000315814
0.000310324
0.000302933
0.000294864
0.000285991
0.000276177
0.000265684
0.000253759
0.000241397
0.000228646
0.000214978
0.00020099
0.000186666
0.000172046
0.000157421
0.00014333
0.000128992
0.000115713
0.000103671
9.38788e-05
8.65505e-05
8.37464e-05
8.04603e-05
8.52896e-05
7.61668e-05
9.04193e-05
7.03805e-05
0.94154
1
1
1
1
1
0.876909
0.744082
0.640129
0.55212
0.473492
0.400878
0.332774
0.268648
0.208371
0.151851
0.0994063
0.0538192
0.0224554
0.00880254
0.00142112
0.00096692
0.000151932
0.000124457
0.00056344
0.000660109
0.000572356
0.000474296
0.000419067
0.000406987
0.000418116
0.000433484
0.000442169
0.00044419
0.000442822
0.000437631
0.000429744
0.000419247
0.000407455
0.000393232
0.000379924
0.000367325
0.000353805
0.000342978
0.000331925
0.000323127
0.000314831
0.000305597
0.000298486
0.000290281
0.000281678
0.000272749
0.000263097
0.000253055
0.000241762
0.000230127
0.000218231
0.000205482
0.000192511
0.000179229
0.000165742
0.00015231
0.000139481
0.000126493
0.000114689
0.000104128
9.5562e-05
8.89343e-05
8.58863e-05
8.19296e-05
8.55192e-05
7.50775e-05
8.92745e-05
6.65477e-05
0.69279
1
1
1
1
1
1
0.998622
0.832476
0.704441
0.598886
0.507619
0.426291
0.352613
0.285321
0.223582
0.166758
0.114706
0.0690047
0.0335999
0.0136706
0.00312415
0.00348718
2.73122e-05
0.000128912
0.000110447
0.000440431
0.000503453
0.000471453
0.000430385
0.000408638
0.000413702
0.000431158
0.000445967
0.000452187
0.000449535
0.000442154
0.000432078
0.00042061
0.000406375
0.000391821
0.000377322
0.000361328
0.000347601
0.000333275
0.000321251
0.000310061
0.000298421
0.000289108
0.000279597
0.000270018
0.000260706
0.000250956
0.000241172
0.0002304
0.000219429
0.000208364
0.000196539
0.000184614
0.000172423
0.000160121
0.000147943
0.00013641
0.000124778
0.000114384
0.000105119
9.75772e-05
9.14573e-05
8.8135e-05
8.36219e-05
8.60687e-05
7.46074e-05
8.84473e-05
6.31458e-05
0.517018
0.773903
1
1
1
1
1
1
1
0.948594
0.786064
0.657284
0.550355
0.458753
0.378663
0.307655
0.244068
0.18669
0.134874
0.0890412
0.0513533
0.0243515
0.00909966
0.00571861
0.00254004
4.17163e-05
9.85413e-05
0.000112781
0.000294845
0.000391031
0.000463118
0.000470772
0.000450941
0.000441917
0.000447772
0.00045501
0.000455452
0.000447759
0.000435636
0.000420467
0.000404969
0.000389232
0.00037166
0.000355467
0.000338326
0.000323195
0.000308935
0.000294681
0.000282676
0.000271349
0.000260274
0.000250138
0.000239939
0.000230163
0.000219732
0.000209351
0.000199072
0.000188186
0.000177322
0.000166276
0.000155208
0.000144333
0.00013411
0.000123814
0.000114716
0.00010657
9.98427e-05
9.4088e-05
9.04795e-05
8.55155e-05
8.69052e-05
7.47723e-05
8.79299e-05
6.02927e-05
0.362177
0.512817
0.922425
1
1
1
1