/*--------------------------------*- C++ -*----------------------------------*\
| =========                 |                                                 |
| \\      /  F ield         | OpenFOAM: The Open Source CFD Toolbox           |
|  \\    /   O peration     | Version:  2312                                  |
|   \\  /    A nd           | Website:  www.openfoam.com                      |
|    \\/     M anipulation  |                                                 |
\*---------------------------------------------------------------------------*/
FoamFile
{
    version     2.0;
    format      ascii;
    arch        "LSB;label=32;scalar=64";
    class       volVectorField;
    location    "450";
    object      U;
}
// * * * * * * * * * * * * * * * * * * * * * * * * * * * * * * * * * * * * * //

dimensions      [0 1 -1 0 0 0 0];

internalField   nonuniform List<vector> 
11040
(
(-0.657162 8.94142 -3.969e-19)
(0.76728 5.75471 -2.31012e-18)
(-0.13042 -0.389401 -2.59201e-17)
(-1.45217 -1.16371 -1.24385e-17)
(-1.49434 -0.740075 -4.57983e-18)
(-1.47137 -0.628815 -1.80852e-17)
(-1.46559 -0.535826 3.27374e-17)
(-1.43226 -0.449895 2.36303e-17)
(-1.40727 -0.379024 4.60949e-18)
(-1.39095 -0.321718 1.26909e-18)
(-1.37799 -0.275336 -2.14857e-17)
(-1.36645 -0.232725 3.09699e-18)
(-1.35997 -0.194894 8.57237e-18)
(-1.35616 -0.160802 7.14558e-18)
(-1.35569 -0.128171 -6.75908e-18)
(-1.36079 -0.0979975 1.1576e-17)
(-1.37175 -0.0686432 5.35889e-18)
(-1.39007 -0.0399631 -1.36782e-17)
(-1.41556 -0.0113663 -4.12087e-19)
(-1.44823 0.0176348 2.22646e-18)
(-1.48816 0.0470769 -2.50416e-18)
(-1.53252 0.07464 -8.65632e-18)
(-1.58385 0.0992257 8.83639e-18)
(-1.64617 0.123062 -9.06647e-18)
(-1.71862 0.147091 9.37058e-18)
(-1.79903 0.171192 1.67732e-17)
(-1.88267 0.195393 7.1275e-18)
(-1.96367 0.21892 6.67576e-18)
(-2.03526 0.240885 6.9856e-18)
(-2.08984 0.259871 9.23391e-18)
(-2.11725 0.274274 -1.62515e-17)
(-2.10545 0.282207 -1.24925e-17)
(-2.04579 0.282636 -3.7802e-17)
(-1.94107 0.274956 -2.17581e-17)
(-1.77995 0.25597 2.32177e-18)
(-1.55191 0.221308 -3.3169e-17)
(-1.25041 0.167262 9.01154e-19)
(-0.881944 0.0950796 -2.44666e-17)
(-0.421239 0.0116867 4.37826e-17)
(0.393116 -0.108066 3.93567e-17)
(-0.104048 -0.529096 -6.54633e-18)
(1.38903 8.22329 2.41981e-19)
(3.00618 8.63358 -3.05658e-19)
(2.6105 5.21289 7.94954e-18)
(0.626569 1.07618 1.34608e-18)
(-1.16311 -0.774214 -5.76349e-19)
(-1.35205 -0.626554 6.27533e-18)
(-1.4454 -0.547125 -9.99546e-19)
(-1.46327 -0.480475 -1.37475e-17)
(-1.46968 -0.418097 6.03231e-19)
(-1.48062 -0.360786 -4.4316e-18)
(-1.4901 -0.31566 6.67434e-18)
(-1.49699 -0.272845 -2.34273e-17)
(-1.50808 -0.23244 -1.8272e-18)
(-1.5208 -0.196442 -1.63933e-17)
(-1.53742 -0.160642 7.30006e-18)
(-1.5589 -0.127079 -2.9361e-18)
(-1.58493 -0.0937384 -4.73422e-18)
(-1.61665 -0.0605358 -4.79335e-18)
(-1.65419 -0.0271254 -6.22891e-19)
(-1.69873 0.00751204 3.72955e-19)
(-1.75017 0.0433428 1.33165e-18)
(-1.80782 0.0773007 3.82486e-18)
(-1.87252 0.107233 -5.90003e-18)
(-1.94412 0.13617 -1.34626e-18)
(-2.01841 0.165043 -1.63394e-18)
(-2.09085 0.193006 3.36036e-18)
(-2.15687 0.219808 2.03493e-18)
(-2.21183 0.244457 -1.12511e-17)
(-2.25026 0.266198 -9.11685e-19)
(-2.2667 0.283517 6.66619e-18)
(-2.25698 0.295402 8.46252e-18)
(-2.2189 0.300775 1.7485e-17)
(-2.14887 0.299136 1.44004e-17)
(-2.03378 0.287486 7.00911e-18)
(-1.86601 0.26333 -3.20384e-18)
(-1.63527 0.222364 1.28151e-17)
(-1.3357 0.159252 -9.89264e-18)
(-0.974523 0.0718175 7.35572e-18)
(-0.522174 -0.0303025 -3.18542e-18)
(0.273817 -0.162679 -4.52202e-18)
(0.382518 -0.477617 6.08156e-18)
(1.79826 7.27205 -1.55784e-20)
(3.33508 8.38779 1.25072e-18)
(4.14461 8.06043 -2.25523e-18)
(3.39618 5.38964 -3.56333e-18)
(1.35439 1.90114 3.48699e-19)
(-0.597346 -0.301537 -4.5362e-18)
(-1.14536 -0.472023 -9.24693e-18)
(-1.32339 -0.448035 -8.59771e-18)
(-1.38274 -0.400661 6.25695e-18)
(-1.42792 -0.351435 2.805e-19)
(-1.46493 -0.314035 3.74642e-18)
(-1.4907 -0.275447 1.22331e-17)
(-1.51745 -0.235195 -9.36016e-18)
(-1.54224 -0.199855 1.02597e-17)
(-1.56836 -0.163034 -6.29978e-18)
(-1.59725 -0.128513 -2.81987e-18)
(-1.62923 -0.093786 1.33906e-18)
(-1.66585 -0.0589892 1.89562e-18)
(-1.7072 -0.0239362 9.49644e-20)
(-1.75423 0.0124737 -9.09373e-20)
(-1.80689 0.05017 -3.14376e-18)
(-1.8635 0.0862965 -2.65718e-18)
(-1.92365 0.117851 5.50663e-19)
(-1.98719 0.147438 -3.78076e-19)
(-2.05117 0.176032 3.2593e-18)
(-2.11266 0.202837 -7.20987e-18)
(-2.16847 0.227624 -5.20683e-18)
(-2.215 0.249384 7.54209e-18)
(-2.24811 0.267581 1.83325e-18)
(-2.26347 0.280932 -1.14659e-18)
(-2.25653 0.288622 -7.59109e-18)
(-2.22212 0.289058 3.21375e-18)
(-2.15373 0.280769 -7.21117e-18)
(-2.04349 0.261433 -9.5599e-18)
(-1.88376 0.229241 2.09636e-18)
(-1.66483 0.180335 5.32132e-18)
(-1.3808 0.109091 7.89639e-18)
(-1.03806 0.0103651 -7.99978e-18)
(-0.610757 -0.107895 -1.65418e-18)
(0.120764 -0.259112 -2.19879e-18)
(0.363024 -0.65866 -3.60665e-18)
(2.18828 6.83738 -4.88931e-20)
(3.13125 7.57143 -2.31756e-19)
(4.2216 8.26824 1.24515e-18)
(4.75586 7.793 2.24084e-18)
(4.01775 5.61964 -3.16175e-19)
(2.1177 2.60478 -2.876e-18)
(0.0500198 0.25856 1.92182e-18)
(-0.856561 -0.298385 4.43964e-18)
(-1.15374 -0.335529 -3.42032e-18)
(-1.26914 -0.304606 3.86011e-18)
(-1.35037 -0.284146 -9.02015e-18)
(-1.4037 -0.259239 1.21044e-18)
(-1.45033 -0.223753 1.2907e-18)
(-1.48939 -0.192678 -8.16199e-18)
(-1.52505 -0.157037 -3.94096e-18)
(-1.56077 -0.123359 2.47901e-18)
(-1.59716 -0.0888 4.69643e-18)
(-1.63668 -0.0538491 2.17615e-18)
(-1.67946 -0.0185374 -1.35269e-19)
(-1.72659 0.0181788 1.44595e-19)
(-1.77811 0.0560245 8.26159e-19)
(-1.83232 0.0924946 2.49165e-18)
(-1.88871 0.124552 8.51217e-19)
(-1.94755 0.154187 1.53125e-18)
(-2.00707 0.182278 2.33042e-18)
(-2.06518 0.20814 1.04879e-17)
(-2.1192 0.231532 -7.66869e-19)
(-2.16588 0.251373 -1.35708e-18)
(-2.20123 0.267026 -4.66964e-18)
(-2.22071 0.277092 -4.06342e-18)
(-2.21921 0.280524 5.7265e-18)
(-2.191 0.275489 -4.89473e-18)
(-2.13007 0.260336 1.28705e-17)
(-2.02992 0.232806 3.39266e-18)
(-1.88313 0.191061 2.66461e-18)
(-1.6808 0.131455 5.55923e-19)
(-1.41732 0.0483022 -1.23849e-19)
(-1.09876 -0.0652008 -6.4383e-19)
(-0.706182 -0.201428 1.75006e-18)
(-0.064529 -0.357939 -2.56013e-18)
(0.217502 -0.768636 6.92042e-19)
(2.65598 6.34009 7.44685e-20)
(3.36558 6.90356 -4.272e-20)
(4.10796 7.46909 -1.12922e-18)
(4.91488 7.96867 -1.73517e-18)
(5.29664 7.61202 1.72014e-18)
(4.66735 5.92452 -1.27819e-19)
(2.95005 3.32985 5.01726e-19)
(0.883179 0.971416 3.07568e-18)
(-0.469848 -0.0817541 -1.22855e-18)
(-0.913698 -0.200588 -2.07304e-18)
(-1.12263 -0.212254 -2.93437e-18)
(-1.2362 -0.21294 -1.99139e-20)
(-1.31586 -0.191765 -9.92262e-20)
(-1.3796 -0.172215 5.18711e-18)
(-1.43057 -0.141907 3.09512e-18)
(-1.477 -0.111621 1.20785e-19)
(-1.51971 -0.0790201 -2.04829e-18)
(-1.56299 -0.045246 2.26114e-18)
(-1.60738 -0.0108722 -3.31501e-19)
(-1.65463 0.0251309 7.90051e-19)
(-1.70534 0.0622316 -1.61866e-18)
(-1.75829 0.0982892 -1.7195e-19)
(-1.81315 0.130411 2.16213e-18)
(-1.87048 0.160002 -2.33401e-18)
(-1.92917 0.187736 -5.14454e-18)
(-1.98752 0.212902 -2.60401e-18)
(-2.04306 0.235094 5.40917e-19)
(-2.09269 0.253131 -4.17796e-18)
(-2.13244 0.266129 1.18346e-19)
(-2.1577 0.272549 3.88903e-18)
(-2.16327 0.271106 -3.06908e-18)
(-2.14359 0.2599 6.49954e-19)
(-2.09309 0.237153 -9.00374e-18)
(-2.0059 0.200575 -4.26712e-18)
(-1.87509 0.148183 -2.4515e-18)
(-1.69269 0.0765744 -2.30942e-18)
(-1.45394 -0.0198132 1.25656e-18)
(-1.16501 -0.148526 -5.55397e-20)
(-0.814003 -0.301977 9.19898e-19)
(-0.275232 -0.465702 3.40834e-18)
(0.0105114 -0.836797 -2.01527e-18)
(3.06587 5.88553 -1.20426e-19)
(3.60373 6.41033 3.32445e-20)
(4.15108 6.81937 2.85243e-19)
(4.76437 7.26404 6.15699e-19)
(5.42495 7.66434 -4.61491e-19)
(5.7777 7.47556 2.2709e-19)
(5.32087 6.23788 5.49518e-19)
(3.87068 4.09077 2.23558e-20)
(1.87162 1.81649 -1.09299e-19)
(0.151833 0.308621 4.54504e-18)
(-0.580566 -0.0483925 4.95849e-18)
(-0.921569 -0.115794 -2.23734e-18)
(-1.08588 -0.123495 -1.4212e-18)
(-1.20149 -0.126971 6.55465e-18)
(-1.2813 -0.111716 -5.48417e-18)
(-1.34813 -0.090298 2.39083e-18)
(-1.40332 -0.0630694 2.24228e-19)
(-1.45444 -0.0323559 6.28659e-19)
(-1.50296 -0.000243422 7.40976e-19)
(-1.55194 0.0341943 -3.66455e-19)
(-1.60297 0.0699345 -7.76466e-19)
(-1.65574 0.105242 5.64895e-19)
(-1.7104 0.137288 -9.56919e-19)
(-1.76775 0.16687 -6.79015e-19)
(-1.82721 0.194388 4.95798e-18)
(-1.88734 0.219022 -3.27985e-18)
(-1.9458 0.240116 -7.70786e-19)
(-1.99959 0.256343 5.20029e-18)
(-2.04486 0.266506 4.09229e-18)
(-2.07711 0.268933 -2.00709e-18)
(-2.09133 0.262082 -1.64342e-18)
(-2.08217 0.244019 -5.29315e-19)
(-2.04448 0.212829 4.20264e-18)
(-1.9729 0.166222 4.37943e-18)
(-1.86117 0.102068 1.24019e-18)
(-1.7025 0.0173268 -1.65141e-18)
(-1.49337 -0.093111 -2.33464e-19)
(-1.24014 -0.236298 -1.11405e-18)
(-0.936537 -0.403679 -2.68955e-18)
(-0.503503 -0.575607 -1.30032e-19)
(-0.239469 -0.88289 2.11123e-18)
(3.45644 5.51315 -2.15581e-20)
(3.84877 5.95748 1.53393e-19)
(4.26721 6.35371 9.68635e-20)
(4.72471 6.66546 5.38758e-19)
(5.24879 7.00073 2.59695e-19)
(5.81756 7.33842 -8.82897e-19)
(6.1872 7.31427 2.5697e-19)
(5.93907 6.50005 -2.29383e-19)
(4.81759 4.83205 -1.64944e-18)
(2.99663 2.74941 4.46596e-20)
(1.11388 0.991276 -6.05701e-18)
(-0.11774 0.156965 7.83415e-18)
(-0.618533 0.00376714 -6.18864e-18)
(-0.896382 -0.0360736 -6.93231e-19)
(-1.04741 -0.0498293 2.98311e-18)
(-1.15803 -0.0483095 -1.06138e-18)
(-1.23966 -0.0352178 4.12988e-18)
(-1.30796 -0.0121118 -1.69295e-18)
(-1.36675 0.014981 3.8867e-19)
(-1.42145 0.0463845 -3.06255e-19)
(-1.47503 0.0798938 3.1851e-19)
(-1.52865 0.114101 -4.20265e-19)
(-1.58362 0.146027 2.22775e-18)
(-1.64133 0.17573 -7.35221e-19)
(-1.70185 0.203281 -1.86442e-18)
(-1.76411 0.227612 8.7801e-19)
(-1.82592 0.247785 2.86762e-18)
(-1.88442 0.262261 -1.41916e-18)
(-1.93595 0.269513 3.82174e-20)
(-1.97623 0.267681 -1.12172e-18)
(-2.00053 0.254986 7.32925e-20)
(-2.00384 0.229439 -1.95506e-18)
(-1.98132 0.189044 -4.36415e-20)
(-1.92824 0.13152 8.76844e-19)
(-1.83917 0.0547272 2.92219e-18)
(-1.70868 -0.0439067 -2.24163e-18)
(-1.53478 -0.16856 -2.58881e-18)
(-1.32378 -0.324559 2.12747e-18)
(-1.07355 -0.501662 -7.85286e-19)
(-0.74303 -0.678895 2.36041e-20)
(-0.518895 -0.920758 9.50556e-20)
(3.81043 5.19609 -6.72887e-21)
(4.11615 5.56529 -2.64028e-20)
(4.43112 5.91737 7.03648e-21)
(4.78571 6.21946 -3.71149e-19)
(5.18033 6.45604 -1.69533e-19)
(5.62721 6.70418 -2.77278e-19)
(6.12338 6.9899 1.25808e-18)
(6.5143 7.09332 1.92697e-19)
(6.47672 6.65229 5.78794e-19)
(5.71614 5.46815 -1.21294e-18)
(4.21094 3.71598 1.27451e-18)
(2.3367 1.90827 1.79682e-18)
(0.698942 0.618554 -4.57999e-18)
(-0.198663 0.151776 6.80319e-18)
(-0.612447 0.0623519 1.14318e-19)
(-0.849665 0.0352814 -1.36277e-18)
(-0.996203 0.0209367 -4.95322e-18)
(-1.10373 0.0259966 -3.94615e-19)
(-1.18691 0.0402472 -1.54871e-18)
(-1.25646 0.0645733 5.84414e-18)
(-1.31806 0.0936026 -3.68031e-18)
(-1.37527 0.12575 6.20973e-19)
(-1.43158 0.157325 1.23867e-18)
(-1.48968 0.187242 2.15668e-19)
(-1.55074 0.215155 4.86834e-19)
(-1.61448 0.239564 2.23097e-19)
(-1.67915 0.259184 1.16585e-18)
(-1.74221 0.272148 -6.91134e-19)
(-1.80025 0.276611 -2.81158e-18)
(-1.84927 0.270473 -8.10914e-19)
(-1.8849 0.25173 2.40563e-18)
(-1.9025 0.218307 1.16007e-18)
(-1.8976 0.168213 9.40854e-20)
(-1.86617 0.0992443 -2.03646e-18)
(-1.80374 0.00941608 -1.13742e-18)
(-1.70633 -0.103204 7.40712e-19)
(-1.57347 -0.241363 1.70699e-18)
(-1.41112 -0.40768 -9.38348e-19)
(-1.22019 -0.590301 6.51028e-19)
(-0.985465 -0.768079 -1.36689e-18)
(-0.811904 -0.95413 -2.07282e-19)
(4.13759 4.92158 -1.72115e-20)
(4.38469 5.23114 -1.07889e-19)
(4.6299 5.52975 1.85763e-19)
(4.90043 5.80938 5.48984e-20)
(5.20857 6.04538 -8.76998e-20)
(5.54904 6.22506 3.2146e-20)
(5.92984 6.40224 -4.93749e-19)
(6.35988 6.62925 -5.04437e-19)
(6.758 6.80376 -9.80621e-21)
(6.89736 6.65337 -9.14099e-19)
(6.49276 5.92892 -2.93278e-19)
(5.39128 4.60181 8.734e-19)
(3.71934 2.94006 5.43422e-19)
(1.91399 1.41766 -2.27488e-18)
(0.517383 0.474382 7.87001e-18)
(-0.196029 0.184389 -3.82223e-18)
(-0.56526 0.123705 3.31333e-18)
(-0.783002 0.102972 -5.17355e-18)
(-0.927207 0.0914417 -1.60774e-19)
(-1.03361 0.0986446 1.74284e-18)
(-1.11719 0.115928 -2.32722e-18)
(-1.18615 0.14247 -3.08189e-19)
(-1.24786 0.172239 6.1761e-19)
(-1.30805 0.201953 -2.05159e-18)
(-1.36969 0.230476 -5.69619e-19)
(-1.434 0.255501 -1.51776e-18)
(-1.50026 0.275201 -2.75653e-18)
(-1.56675 0.287302 1.04391e-18)
(-1.6306 0.289531 7.65041e-19)
(-1.68834 0.279494 2.47279e-18)
(-1.73598 0.25492 -9.83925e-19)
(-1.76934 0.213699 7.21602e-19)
(-1.78437 0.153909 -8.49673e-19)
(-1.77766 0.0735866 2.05161e-18)
(-1.74585 -0.0289378 -2.30407e-19)
(-1.68629 -0.154703 5.25305e-19)
(-1.59969 -0.304618 -2.58859e-18)
(-1.49139 -0.478201 1.6504e-18)
(-1.36431 -0.662558 -1.19585e-19)
(-1.2168 -0.836084 8.46169e-19)
(-1.09978 -0.98128 -8.65273e-19)
(4.4389 4.68163 -9.64164e-20)
(4.64432 4.9425 3.46085e-19)
(4.84203 5.19523 -1.25715e-19)
(5.05334 5.43692 -5.79102e-20)
(5.29211 5.66042 1.59272e-19)
(5.56077 5.84764 -4.47721e-19)
(5.85454 5.98672 1.23045e-19)
(6.17802 6.10952 1.93589e-18)
(6.54525 6.2739 -2.00009e-18)
(6.92674 6.45913 -1.92943e-19)
(7.1841 6.49972 9.93871e-20)
(7.08479 6.15844 7.4587e-20)
(6.41189 5.28543 9.54586e-19)
(5.11288 3.94726 -3.52554e-19)
(3.4028 2.43952 2.01321e-18)
(1.71175 1.16265 -2.42198e-18)
(0.492406 0.439237 1.07674e-18)
(-0.135037 0.22979 -9.59337e-19)
(-0.480349 0.186054 1.85617e-18)
(-0.691155 0.169442 1.46081e-18)
(-0.833298 0.161986 6.31427e-19)
(-0.935313 0.173431 -1.71368e-18)
(-1.0147 0.195378 1.60501e-18)
(-1.08397 0.221917 9.02462e-19)
(-1.14957 0.250139 -2.5166e-18)
(-1.21554 0.275928 1.72778e-18)
(-1.283 0.296485 1.96648e-18)
(-1.35168 0.308734 -2.27289e-18)
(-1.41991 0.309872 3.05616e-19)
(-1.48511 0.297071 -1.93571e-18)
(-1.5441 0.267804 1.003e-18)
(-1.59344 0.219807 -1.31918e-18)
(-1.62969 0.151293 -4.38288e-19)
(-1.64997 0.060634 7.0543e-20)
(-1.65184 -0.053217 -9.03721e-19)
(-1.63373 -0.190219 2.62154e-19)
(-1.59691 -0.349176 7.43322e-19)
(-1.54589 -0.526851 -9.97258e-19)
(-1.48427 -0.709946 -1.42516e-19)
(-1.41476 -0.876614 -1.18822e-18)
(-1.35624 -0.997487 8.32042e-19)
(4.71621 4.46902 -9.96656e-20)
(4.89108 4.69026 -2.83589e-19)
(5.05567 4.90358 2.82077e-20)
(5.22604 5.10975 8.39953e-20)
(5.41381 5.30618 -1.3597e-19)
(5.62482 5.48606 -2.86514e-19)
(5.85917 5.63741 7.47376e-20)
(6.11281 5.74853 4.0836e-20)
(6.38735 5.8337 1.41435e-19)
(6.69576 5.93922 1.86731e-18)
(7.03761 6.09075 5.93799e-19)
(7.34862 6.21869 1.54668e-19)
(7.46947 6.14789 -1.18636e-18)
(7.18647 5.69084 2.60575e-18)
(6.34667 4.77255 -2.12936e-18)
(4.96656 3.50297 1.24746e-18)
(3.28882 2.15704 -1.81434e-18)
(1.70347 1.06229 -4.99249e-18)
(0.582985 0.458763 3.25426e-19)
(-0.0172074 0.279582 6.91389e-18)
(-0.353249 0.24614 -3.85371e-18)
(-0.55506 0.239475 4.35083e-18)
(-0.686598 0.242862 -2.1727e-18)
(-0.785194 0.25736 3.52058e-19)
(-0.866739 0.27948 -2.30375e-19)
(-0.941251 0.303177 -1.76475e-18)
(-1.01333 0.324052 1.47094e-18)
(-1.08538 0.337323 -1.1864e-18)
(-1.15772 0.338971 9.72064e-19)
(-1.22937 0.325403 6.45089e-19)
(-1.29841 0.293565 8.324e-20)
(-1.36252 0.241055 5.72609e-19)
(-1.41931 0.166194 3.40353e-19)
(-1.46663 0.0677924 -1.42633e-18)
(-1.50291 -0.0545117 -8.35065e-19)
(-1.52723 -0.199492 5.80228e-19)
(-1.5407 -0.364026 6.93213e-19)
(-1.54672 -0.542815 1.36665e-19)
(-1.54821 -0.722874 1.35736e-18)
(-1.54724 -0.883266 9.59242e-19)
(-1.5463 -0.995132 2.07338e-19)
(4.97083 4.27887 -1.13996e-19)
(5.12235 4.46757 6.01396e-20)
(5.26297 4.64814 2.21342e-19)
(5.40419 4.82272 -1.69135e-19)
(5.55596 4.99172 -3.86955e-20)
(5.72361 5.15164 1.00102e-19)
(5.91007 5.29752 1.10219e-19)
(6.11484 5.42138 -8.5573e-19)
(6.33451 5.51313 -2.02056e-18)
(6.56816 5.57475 2.66815e-18)
(6.82415 5.63477 -1.82509e-18)
(7.11504 5.73273 -4.68867e-19)
(7.42512 5.86494 -8.00677e-19)
(7.66753 5.93884 -4.5631e-19)
(7.68121 5.79575 1.03633e-18)
(7.28531 5.29598 -4.55175e-19)
(6.37411 4.40696 2.12029e-18)
(4.99603 3.2442 -1.9334e-18)
(3.38198 2.04256 -8.52566e-19)
(1.87124 1.06745 6.03119e-18)
(0.782626 0.5105 -3.68489e-18)
(0.188716 0.333588 -2.35704e-19)
(-0.130274 0.315788 9.31988e-19)
(-0.327034 0.327189 3.37737e-18)
(-0.461654 0.33858 -2.84353e-18)
(-0.566469 0.351468 -6.18245e-19)
(-0.65597 0.366356 -6.88477e-19)
(-0.738848 0.377542 3.65736e-18)
(-0.819357 0.379271 -1.60865e-18)
(-0.899262 0.366509 -5.21552e-19)
(-0.978694 0.334882 1.7507e-18)
(-1.05689 0.281435 -1.47152e-18)
(-1.1328 0.204256 -7.31344e-19)
(-1.20549 0.10237 8.84281e-19)
(-1.27414 -0.0240215 6.52541e-19)
(-1.33827 -0.172436 1.1499e-19)
(-1.3985 -0.338268 -3.29388e-19)
(-1.45704 -0.515186 -1.91916e-19)
(-1.51516 -0.69134 -6.80245e-19)
(-1.57277 -0.848304 5.93592e-19)
(-1.62604 -0.962989 -1.09222e-19)
(5.20386 4.10747 1.82071e-19)
(5.33696 4.26917 -3.88774e-19)
(5.45948 4.42251 3.5367e-19)
(5.57972 4.57007 5.86411e-20)
(5.70544 4.71374 -9.43549e-21)
(5.8415 4.85231 1.10814e-19)
(5.99113 4.98273 7.17442e-19)
(6.15594 5.1014 3.46766e-19)
(6.33534 5.20317 1.69772e-19)
(6.52638 5.28028 8.60947e-20)
(6.72642 5.32867 -6.82279e-19)
(6.93992 5.36084 1.04183e-18)
(7.18003 5.40846 -1.02999e-19)
(7.45374 5.49786 1.05886e-18)
(7.73127 5.60684 -2.87479e-18)
(7.91941 5.64237 2.9402e-18)
(7.87076 5.4713 -8.52908e-19)
(7.43517 4.98804 -2.45382e-18)
(6.53333 4.17689 1.99436e-18)
(5.21521 3.13672 -2.25659e-18)
(3.67768 2.05936 1.63079e-18)
(2.26148 1.18273 -6.40854e-19)
(1.23561 0.64982 2.62892e-18)
(0.616085 0.431885 -1.08237e-18)
(0.256229 0.39452 -5.70007e-18)
(0.0300056 0.416626 3.18312e-18)
(-0.124927 0.440424 1.3656e-18)
(-0.245092 0.45052 -3.35249e-19)
(-0.349111 0.447938 2.5981e-19)
(-0.44624 0.432137 -7.75877e-19)
(-0.541149 0.399641 -3.68582e-18)
(-0.63588 0.346789 3.82675e-18)
(-0.731409 0.271014 -2.40338e-19)
(-0.828501 0.170697 -1.06924e-18)
(-0.927004 0.0459893 1.17136e-18)
(-1.02677 -0.100401 -1.56821e-19)
(-1.12777 -0.263177 -2.82239e-19)
(-1.23115 -0.435774 5.08092e-19)
(-1.3363 -0.607674 2.26097e-19)
(-1.44186 -0.763852 -4.55196e-19)
(-1.54349 -0.88755 -2.28156e-19)
(5.41635 3.95216 6.76867e-21)
(5.53436 4.09115 1.87868e-19)
(5.64266 4.2217 3.03509e-19)
(5.74716 4.34641 -3.65735e-19)
(5.85387 4.46782 3.05466e-21)
(5.96692 4.58592 -3.8231e-19)
(6.08908 4.6993 -3.6094e-19)
(6.22258 4.80547 -3.92515e-19)
(6.3684 4.90181 6.05212e-19)
(6.52589 4.98487 1.71421e-18)
(6.69256 5.04943 -6.13178e-19)
(6.86596 5.09042 1.13728e-18)
(7.04708 5.10954 -3.6338e-20)
(7.24374 5.12349 -2.17912e-18)
(7.46859 5.1604 -8.71216e-19)
(7.72333 5.23628 1.995e-18)
(7.9734 5.32368 -1.0812e-18)
(8.13142 5.34098 1.43788e-18)
(8.06907 5.18012 -2.05119e-18)
(7.66032 4.75665 1.3398e-19)
(6.83086 4.05578 -1.67198e-19)
(5.67426 3.19026 3.91944e-18)
(4.39262 2.31672 -1.23842e-19)
(3.16733 1.55297 -2.41478e-18)
(2.149 0.989295 -4.9251e-19)
(1.41285 0.659462 -8.00832e-19)
(0.929193 0.522579 -2.87649e-18)
(0.614556 0.497722 3.72304e-18)
(0.399601 0.512836 -3.10335e-18)
(0.239553 0.522512 -1.03901e-19)
(0.105957 0.506939 8.77805e-19)
(-0.0172905 0.462369 -5.41608e-19)
(-0.138269 0.390476 4.22558e-19)
(-0.261766 0.292913 -1.6919e-19)
(-0.389932 0.171384 1.96526e-18)
(-0.522565 0.0293114 -1.73332e-18)
(-0.659634 -0.127933 1.26292e-19)
(-0.80164 -0.294724 8.09223e-20)
(-0.946243 -0.462872 1.01486e-19)
(-1.0915 -0.620659 -3.45215e-20)
(-1.2353 -0.755905 2.78073e-19)
(5.60921 3.81094 -3.26951e-19)
(5.7145 3.93057 1.48667e-19)
(5.81116 4.04183 -5.07379e-19)
(5.90334 4.1472 1.74104e-19)
(5.99576 4.24943 -4.82975e-20)
(6.09168 4.34911 -7.95622e-20)
(6.1936 4.44568 -7.74898e-20)
(6.30339 4.53785 1.319e-19)
(6.42255 4.62375 -1.28892e-18)
(6.55161 4.7012 6.92608e-19)
(6.6899 4.76784 8.75367e-20)
(6.83607 4.82084 -4.04926e-18)
(6.98817 4.85605 2.58425e-18)
(7.14478 4.87052 1.98862e-19)
(7.30863 4.8689 2.2761e-18)
(7.48892 4.86799 -2.05936e-18)
(7.69707 4.89106 3.36763e-19)
(7.93292 4.94901 1.62087e-18)
(8.16442 5.01789 -1.73305e-18)
(8.31901 5.03354 6.51811e-19)
(8.28451 4.90705 2.07437e-19)
(7.97508 4.59054 -4.24411e-19)
(7.3839 4.1008 1.4707e-19)
(6.56111 3.48754 -4.08742e-19)
(5.59471 2.82142 2.57619e-18)
(4.58512 2.17422 -3.58492e-18)
(3.62815 1.60726 3.13502e-18)
(2.80259 1.16512 9.14232e-19)
(2.15078 0.865107 -1.41796e-18)
(1.66623 0.690005 -6.04591e-19)
(1.31094 0.599186 -3.64972e-19)
(1.04312 0.548991 2.53784e-18)
(0.829336 0.504428 -3.09992e-19)
(0.644137 0.442832 -3.28441e-18)
(0.47096 0.353475 7.05024e-19)
(0.300592 0.235762 9.69511e-19)
(0.129024 0.0947212 -8.6003e-19)
(-0.0470746 -0.063082 8.74754e-19)
(-0.227479 -0.22939 3.02216e-19)
(-0.410379 -0.393387 1.31552e-19)
(-0.59783 -0.543948 -6.33752e-19)
(5.78303 3.6823 2.38892e-19)
(5.8773 3.78523 -2.70759e-19)
(5.9641 3.88002 5.58448e-19)
(6.0463 3.96894 1.71755e-20)
(6.12759 4.05474 1.68529e-19)
(6.21056 4.13826 3.92398e-19)
(6.29725 4.21936 -2.80367e-19)
(6.38926 4.29747 8.95888e-20)
(6.488 4.37149 3.55192e-19)
(6.59435 4.43988 -7.87905e-20)
(6.70847 4.50088 1.53258e-18)
(6.83019 4.5531 -2.11715e-18)
(6.95888 4.59485 3.56598e-18)
(7.09291 4.62345 -2.72033e-18)
(7.23037 4.63554 -1.25435e-18)
(7.37084 4.62981 -4.76879e-19)
(7.51807 4.61158 -8.11225e-19)
(7.68132 4.59534 8.52099e-19)
(7.87089 4.59964 1.05365e-19)
(8.08834 4.63458 6.17994e-19)
(8.30919 4.68281 -3.08907e-19)
(8.47083 4.69883 3.37806e-19)
(8.51002 4.63875 1.28178e-18)
(8.38705 4.47419 -1.56795e-18)
(8.08551 4.19806 7.80598e-19)
(7.61457 3.82441 8.25361e-19)
(7.00535 3.38171 9.72521e-20)
(6.30286 2.90443 -3.6765e-18)
(5.557 2.42672 8.6109e-19)
(4.81646 1.9788 1.85361e-18)
(4.12385 1.58407 -1.36682e-18)
(3.50905 1.25578 3.00478e-18)
(2.9841 0.994357 -2.88169e-18)
(2.54215 0.787974 4.08149e-19)
(2.16825 0.619044 1.0345e-18)
(1.84611 0.47083 -1.02068e-18)
(1.56106 0.330973 5.32142e-19)
(1.29748 0.191503 -5.99471e-20)
(1.04849 0.0493434 -9.10702e-19)
(0.810105 -0.0957146 -3.37696e-20)
(0.566311 -0.240344 9.1832e-21)
(5.93821 3.56482 1.53955e-20)
(6.02265 3.65326 -1.60062e-19)
(6.10075 3.73392 -3.00226e-20)
(6.17447 3.80888 2.277e-19)
(6.24669 3.88073 -5.14274e-20)
(6.31948 3.95037 -3.64693e-20)
(6.39445 4.01788 -5.64783e-19)
(6.47297 4.08299 3.30124e-19)
(6.55615 4.14515 -1.30669e-19)
(6.64492 4.20335 1.10059e-18)
(6.73972 4.25634 -2.46833e-19)
(6.84078 4.30302 -2.11978e-19)
(6.94816 4.34227 1.40956e-18)
(7.06139 4.37293 -5.64919e-19)
(7.17945 4.3935 -7.82066e-19)
(7.30077 4.40175 -6.48899e-19)
(7.42383 4.39515 -4.40871e-19)
(7.54872 4.37299 3.39135e-18)
(7.67918 4.33947 -3.54012e-18)
(7.82331 4.30559 1.01157e-20)
(7.99173 4.28626 2.11895e-18)
(8.17988 4.2889 -1.87901e-18)
(8.36913 4.30681 1.82241e-18)
(8.53602 4.32159 -7.95325e-19)
(8.65173 4.3104 -9.08284e-19)
(8.69032 4.2534 2.44183e-18)
(8.63337 4.13799 -9.17614e-19)
(8.47268 3.96042 1.2431e-18)
(8.21078 3.72522 -3.33856e-18)
(7.85913 3.44296 4.10692e-19)
(7.43546 3.12727 1.41705e-18)
(6.96015 2.79235 -1.84022e-19)
(6.45453 2.4517 -3.15956e-19)
(5.93633 2.11594 1.16008e-19)
(5.42215 1.79381 -4.8415e-20)
(4.92561 1.49164 2.80153e-19)
(4.45601 1.21232 -7.68879e-19)
(4.01101 0.953595 6.24435e-19)
(3.59212 0.714314 -3.31809e-19)
(3.20199 0.492126 3.06221e-19)
(2.81653 0.285326 3.26738e-20)
(6.06972 3.46247 6.26841e-21)
(6.14562 3.53881 -3.5039e-19)
(6.21616 3.60777 3.12686e-19)
(6.28271 3.6713 -2.62556e-19)
(6.34753 3.73178 7.17405e-21)
(6.41231 3.7901 5.17737e-19)
(6.47833 3.84642 1.5005e-19)
(6.54665 3.90066 -1.40204e-18)
(6.61826 3.95253 -9.73453e-21)
(6.69391 4.00131 1.88419e-18)
(6.7741 4.04612 -2.40646e-18)
(6.8592 4.08615 6.4956e-19)
(6.94942 4.12049 5.82961e-19)
(7.0447 4.14818 -9.75638e-19)
(7.14473 4.16833 2.32434e-18)
(7.24889 4.18006 -3.17609e-19)
(7.35615 4.18216 -6.66956e-18)
(7.46508 4.17284 5.7221e-18)
(7.57446 4.15005 -2.08728e-18)
(7.68425 4.11292 -1.49126e-18)
(7.79784 4.06439 1.96535e-18)
(7.9177 4.0135 1.98859e-18)
(8.04683 3.97024 -2.94062e-18)
(8.18851 3.93997 2.74495e-18)
(8.33995 3.92314 -7.45784e-19)
(8.49294 3.91462 6.81913e-19)
(8.6353 3.90535 -1.25807e-18)
(8.75322 3.88484 1.28754e-18)
(8.8336 3.84344 4.68103e-19)
(8.86615 3.77391 -2.38426e-18)
(8.84411 3.67212 2.80058e-19)
(8.76462 3.53726 -1.32252e-19)
(8.62893 3.37157 1.32507e-18)
(8.44004 3.17854 3.42503e-20)
(8.20345 2.96322 -7.3142e-20)
(7.92603 2.73156 -1.35408e-19)
(7.61662 2.48989 -5.15631e-20)
(7.27824 2.24086 -1.11279e-19)
(6.91713 1.98958 -3.99599e-19)
(6.54593 1.74067 3.95745e-20)
(6.14523 1.49296 6.7013e-20)
(6.1763 3.37738 1.50085e-19)
(6.24507 3.44386 2.56373e-19)
(6.30928 3.50329 -2.025e-19)
(6.36988 3.55758 -2.34537e-19)
(6.42871 3.60889 4.28145e-20)
(6.48715 3.65804 3.91535e-19)
(6.54624 3.70524 -4.28787e-19)
(6.60686 3.75052 3.45523e-19)
(6.66982 3.79372 7.02814e-19)
(6.73575 3.83443 -1.37768e-18)
(6.80511 3.87192 -1.65595e-18)
(6.87827 3.90561 1.98232e-18)
(6.95552 3.93478 1.70777e-18)
(7.03686 3.95861 -2.52373e-18)
(7.1222 3.9763 2.93134e-18)
(7.21128 3.98708 1.96374e-18)
(7.30368 3.99029 -1.52747e-18)
(7.39877 3.98524 -2.47998e-18)
(7.49558 3.97096 -3.09995e-19)
(7.59281 3.94592 1.98053e-18)
(7.68923 3.90834 -3.8942e-18)
(7.78142 3.85919 3.0665e-18)
(7.86893 3.80205 3.78226e-19)
(7.95574 3.74059 8.02015e-19)
(8.04574 3.67954 -1.39014e-18)
(8.14218 3.623 6.78615e-19)
(8.24656 3.57346 -6.02591e-19)
(8.35802 3.53123 -4.16623e-19)
(8.47332 3.49451 8.19863e-19)
(8.58741 3.45984 -5.26872e-19)
(8.69417 3.42299 -2.6699e-19)
(8.78722 3.37971 1.03826e-18)
(8.86066 3.32629 -1.3206e-18)
(8.90957 3.2599 7.0579e-19)
(8.93003 3.17873 6.32355e-20)
(8.91946 3.08242 -8.121e-19)
(8.87711 2.97199 5.75295e-19)
(8.8022 2.8479 1.20444e-19)
(8.69447 2.71188 -2.55191e-19)
(8.55941 2.56748 -7.58045e-20)
(8.38646 2.4126 -6.06803e-20)
(6.26379 3.30574 -9.38321e-20)
(6.32646 3.36399 2.95456e-20)
(6.38522 3.41553 -6.35019e-20)
(6.44072 3.46222 -5.44168e-20)
(6.4945 3.50601 -1.58521e-20)
(6.54768 3.54767 6.17865e-20)
(6.60113 3.5874 1.13489e-19)
(6.6556 3.6253 -3.28982e-19)
(6.71175 3.66126 5.7124e-20)
(6.77011 3.69504 1.77887e-19)
(6.83105 3.72609 -6.12874e-19)
(6.89493 3.75395 9.63976e-19)
(6.96202 3.77806 -2.12501e-18)
(7.0324 3.7978 1.30224e-18)
(7.10602 3.81246 7.93352e-19)
(7.18273 3.82137 5.38328e-19)
(7.26226 3.82385 2.29165e-19)
(7.34429 3.8193 -3.87626e-19)
(7.42835 3.80716 -1.1494e-18)
(7.5138 3.78688 2.2683e-18)
(7.59978 3.75758 1.00216e-19)
(7.68221 3.71956 -2.46335e-18)
(7.7582 3.67375 1.10836e-18)
(7.82808 3.62036 1.23384e-18)
(7.89244 3.5604 -2.50166e-18)
(7.95274 3.49554 2.2519e-18)
(8.01098 3.42784 -1.9081e-18)
(8.06928 3.35943 8.91454e-20)
(8.12941 3.29217 5.90296e-19)
(8.19249 3.2274 1.53525e-18)
(8.25875 3.16577 -2.02546e-18)
(8.32751 3.10724 5.77617e-19)
(8.39718 3.05121 1.05867e-18)
(8.46591 2.99669 -8.36463e-19)
(8.5312 2.94252 -9.80393e-20)
(8.59027 2.88766 -2.97741e-20)
(8.64033 2.83128 1.60006e-19)
(8.67985 2.77269 -1.09359e-19)
(8.70626 2.71114 7.36786e-20)
(8.71837 2.64727 -1.2746e-19)
(8.71428 2.58001 -8.9171e-21)
(6.33653 3.24447 2.2138e-20)
(6.39384 3.29574 3.32997e-19)
(6.44777 3.34065 -3.76564e-20)
(6.49878 3.38099 -1.37095e-19)
(6.54813 3.41854 5.96904e-20)
(6.59678 3.45396 -6.0464e-20)
(6.64546 3.48751 -2.71523e-19)
(6.69479 3.51926 1.63525e-19)
(6.74533 3.54919 4.70674e-19)
(6.7975 3.57709 3.57149e-20)
(6.85162 3.60261 1.69008e-19)
(6.90799 3.62533 6.62922e-19)
(6.96686 3.64482 -4.67223e-19)
(7.02831 3.66058 -9.1295e-19)
(7.09232 3.67205 7.83107e-20)
(7.1588 3.67867 -2.84614e-19)
(7.22756 3.67985 7.19103e-19)
(7.29831 3.675 -6.80423e-19)
(7.37073 3.66358 -4.68224e-19)
(7.44439 3.64509 -1.31926e-18)
(7.51887 3.61904 1.71039e-18)
(7.59108 3.58616 8.24233e-19)
(7.65864 3.54764 -8.81674e-19)
(7.72132 3.50359 -8.51642e-19)
(7.77854 3.45429 -4.84068e-19)
(7.82998 3.40006 1.71789e-18)
(7.87569 3.34133 1.04356e-18)
(7.91603 3.27872 9.35057e-19)
(7.95166 3.213 -2.00174e-18)
(7.98343 3.14509 6.45549e-19)
(8.01229 3.07597 -7.9599e-19)
(8.03911 3.00659 4.40282e-19)
(8.06461 2.93783 -6.93593e-19)
(8.08942 2.87033 1.08373e-18)
(8.11379 2.80467 -5.52957e-19)
(8.13775 2.74142 2.3392e-19)
(8.16079 2.68089 -4.89268e-19)
(8.18308 2.6232 3.99788e-19)
(8.20394 2.56839 -3.04863e-19)
(8.22259 2.51689 -8.41526e-21)
(8.23941 2.46877 5.21795e-20)
(6.3977 3.19142 -7.76066e-20)
(6.45023 3.23669 -2.33499e-20)
(6.49982 3.27594 -2.68571e-19)
(6.5468 3.31091 2.72068e-19)
(6.5922 3.34318 -1.1009e-19)
(6.63685 3.37337 -6.93388e-21)
(6.68136 3.40171 2.10594e-19)
(6.72626 3.42831 -4.03149e-19)
(6.77201 3.45315 1.90631e-18)
(6.81897 3.47609 -2.68178e-18)
(6.86738 3.49687 1.37983e-18)
(6.91749 3.51515 4.00384e-19)
(6.96951 3.53058 -5.09914e-19)
(7.02351 3.54275 -2.05187e-18)
(7.07948 3.55122 5.25606e-19)
(7.13733 3.5555 -1.17831e-18)
(7.19693 3.55513 3.79561e-18)
(7.25804 3.54962 -1.04558e-18)
(7.32038 3.53848 -2.30046e-19)
(7.38357 3.52122 7.27037e-19)
(7.44726 3.49737 -3.5353e-18)
(7.50893 3.46761 2.14331e-18)
(7.5668 3.43312 1.27576e-18)
(7.62083 3.39421 -1.1935e-18)
(7.67065 3.35138 -3.05017e-19)
(7.71594 3.30507 1.06437e-18)
(7.75644 3.25565 -1.72393e-18)
(7.79197 3.20343 1.22991e-18)
(7.82239 3.14872 1.05695e-18)
(7.8477 3.09182 -7.72898e-19)
(7.86801 3.0331 -1.33778e-18)
(7.88353 2.97299 1.25021e-19)
(7.8946 2.91197 6.79218e-19)
(7.90161 2.85044 3.08518e-19)
(7.90502 2.7889 -7.95718e-19)
(7.90526 2.728 8.32922e-19)
(7.90274 2.66833 -5.32148e-19)
(7.89802 2.61013 2.35845e-19)
(7.89153 2.55388 6.94683e-20)
(7.88357 2.5002 -2.03553e-19)
(7.87501 2.44954 -2.62656e-20)
(6.44958 3.14504 -2.21276e-19)
(6.49779 3.18511 2.41923e-19)
(6.54344 3.2195 1.66232e-19)
(6.58674 3.24988 4.22877e-20)
(6.62856 3.27766 1.33408e-19)
(6.66961 3.3034 -4.04835e-19)
(6.7104 3.32734 7.31438e-19)
(6.7514 3.34958 -2.10518e-18)
(6.79297 3.37014 2.63398e-18)
(6.8354 3.38888 -1.30626e-18)
(6.87891 3.40563 -1.97804e-18)
(6.92368 3.42012 5.7448e-19)
(6.96986 3.43205 2.54596e-18)
(7.01753 3.44108 1.32118e-18)
(7.06665 3.44687 -2.36896e-18)
(7.11715 3.44901 1.76619e-18)
(7.16891 3.44714 -1.37941e-18)
(7.22172 3.44083 -3.27933e-19)
(7.27534 3.42971 3.96847e-19)
(7.32945 3.41336 -1.83086e-18)
(7.38371 3.39137 4.5776e-18)
(7.43602 3.36436 -2.09677e-18)
(7.4849 3.33334 1.76339e-19)
(7.53036 3.29857 5.36829e-19)