/*--------------------------------*- C++ -*----------------------------------*\
| =========                 |                                                 |
| \\      /  F ield         | OpenFOAM: The Open Source CFD Toolbox           |
|  \\    /   O peration     | Version:  2312                                  |
|   \\  /    A nd           | Website:  www.openfoam.com                      |
|    \\/     M anipulation  |                                                 |
\*---------------------------------------------------------------------------*/
FoamFile
{
    version     2.0;
    format      ascii;
    arch        "LSB;label=32;scalar=64";
    class       volScalarField;
    location    "0";
    object      div(phi);
}
// * * * * * * * * * * * * * * * * * * * * * * * * * * * * * * * * * * * * * //

dimensions      [0 0 -1 0 0 0 0];

internalField   nonuniform List<scalar> 
11040
(
-6348.75
-5218.62
-4134.91
-3273.36
-2602.53
-2075.35
-1650.39
-1297.26
-995.566
-731.618
-494.61
-278.327
-76.8137
113.648
295.172
469.263
637.163
799.176
956.214
1108
1255.83
1382.12
1473.75
1548.69
1615.81
1675.36
1728.77
1776.74
1820.32
1860.1
1896.85
1931.13
1963.29
1994.05
2024.08
2053.22
2081.5
2110.05
2138.84
2168.04
2197.12
1.04093e-12
0
-5.10311e-13
0
4.71237e-13
-2.22014e-13
0
0
-1.82063e-13
0
3.22481e-13
-3.77295e-14
-1.59053e-13
0
1.24298e-13
-1.16576e-13
-1.09305e-13
0
1.91788e-13
-3.58697e-13
0
0
-1.70551e-13
0
-1.70127e-13
1.69897e-13
0
0
0
0
0
0
0
3.34602e-13
0
3.34244e-13
0
6.62802e-13
0
0
-3.34771e-13
-6.19569e-13
0
0
0
3.734e-13
-3.53696e-13
1.66539e-13
-1.56421e-13
4.40402e-13
-3.45664e-13
1.30687e-13
3.06448e-14
1.00657e-13
-6.75031e-14
1.01419e-13
-4.7611e-14
0
-8.38083e-14
1.57038e-13
0
-1.37284e-13
0
0
1.39725e-13
0
-1.39439e-13
2.78521e-13
-1.39068e-13
-1.38867e-13
-1.38668e-13
2.76965e-13
0
0
0
-2.74555e-13
2.7474e-13
2.75745e-13
-2.72461e-13
2.73748e-13
0
2.75293e-13
-4.04763e-13
0
0
0
0
2.80126e-13
-3.97802e-13
-1.25123e-13
0
2.22814e-13
-3.1677e-13
0
7.00285e-14
-3.0737e-13
0
0
-1.09425e-13
0
0
0
-1.12419e-13
2.29111e-13
-1.14611e-13
-1.14521e-13
1.14448e-13
-1.14349e-13
-1.14231e-13
1.14098e-13
1.13958e-13
-2.27634e-13
2.27372e-13
-2.27159e-13
0
0
0
2.25719e-13
4.53138e-13
-4.47809e-13
0
0
-4.52584e-13
-1.12664e-13
0
0
2.36903e-13
0
-2.20433e-13
0
9.95685e-14
9.42434e-14
-2.6819e-13
8.49992e-14
-2.40465e-13
-3.77832e-14
-3.00471e-14
1.67753e-13
-2.84308e-13
5.94386e-14
1.67578e-13
0
0
-1.83886e-13
-9.37209e-14
9.3802e-14
9.37632e-14
-9.37347e-14
0
9.36137e-14
0
9.34398e-14
1.86694e-13
9.32601e-14
0
3.72665e-13
1.85383e-13
-1.85159e-13
0
0
-1.83903e-13
3.69617e-13
0
-1.85924e-13
-1.70924e-13
-3.52943e-13
0
0
0
-1.72226e-13
0
-7.87687e-14
7.494e-14
7.13954e-14
6.81323e-14
3.22323e-14
-7.61858e-14
-7.19828e-15
2.71841e-14
-1.02567e-13
7.24837e-14
1.36423e-13
-1.28198e-13
0
1.50167e-13
-7.65656e-14
-1.53334e-13
1.53338e-13
-7.66766e-14
-1.53327e-13
0
0
-7.65402e-14
-7.6486e-14
7.64355e-14
1.52798e-13
-1.5279e-13
1.52049e-13
0
0
0
-1.5095e-13
1.51714e-13
0
-1.52669e-13
1.92682e-13
5.32922e-13
2.78171e-13
0
0
1.33516e-13
0
0
5.92352e-14
-1.13422e-13
0
1.03235e-13
-1.71374e-13
1.73981e-14
-4.93988e-14
2.28287e-13
1.95912e-14
7.38642e-14
0
-1.30581e-13
1.22413e-13
6.24437e-14
6.25607e-14
0
1.25263e-13
1.25298e-13
1.25302e-13
0
-1.87868e-13
1.252e-13
-1.25157e-13
0
0
-3.73777e-13
2.48996e-13
0
-1.25197e-13
0
0
-2.48752e-13
1.25275e-13
3.82532e-13
-1.99291e-13
0
-2.10683e-13
-2.0919e-13
0
9.9875e-14
0
-9.30192e-14
8.95437e-14
1.29319e-13
-1.85049e-13
-3.91563e-14
1.48896e-13
-2.27443e-13
0
3.16735e-14
8.97324e-14
-1.40967e-13
-2.65211e-14
0
-5.08229e-14
0
-1.02022e-13
1.0214e-13
5.11119e-14
-2.04559e-13
2.55779e-13
-2.04652e-13
0
0
0
-1.02412e-13
0
0
-2.04198e-13
1.02556e-13
1.01449e-13
0
-1.01958e-13
1.0271e-13
-3.52676e-14
-2.95317e-13
0
-1.57877e-13
1.58058e-13
7.82098e-14
7.67237e-14
-7.47705e-14
7.24988e-14
-1.05318e-13
-6.79544e-14
-3.25727e-14
1.86896e-13
-2.15496e-13
1.65406e-13
1.34495e-13
-1.02046e-13
9.65796e-14
-9.12107e-14
-4.29737e-14
8.07972e-14
0
4.14017e-14
-8.29609e-14
1.66229e-13
4.16178e-14
-4.16654e-14
8.3404e-14
4.173e-14
8.35054e-14
0
0
-4.18396e-14
0
0
0
8.39109e-14
0
0
-8.34941e-14
0
-1.28881e-13
2.16793e-13
-1.14485e-13
0
0
-1.18092e-13
-1.1683e-13
0
1.12107e-13
-5.46411e-14
1.59567e-13
0
-2.46329e-14
-1.18028e-13
-1.63581e-13
1.93618e-13
2.04626e-14
-3.8832e-14
1.83782e-14
-6.94094e-14
6.53664e-14
-3.34103e-14
1.67756e-13
-1.34577e-13
6.74675e-14
0
3.38715e-14
-1.69619e-13
0
-1.36025e-13
6.80846e-14
1.02241e-13
-1.02389e-13
-3.40165e-14
0
6.8213e-14
0
1.35752e-13
-1.36556e-13
6.82901e-14
-1.37646e-13
5.60258e-14
-1.57732e-13
1.67204e-13
8.61922e-14
-8.77214e-14
0
8.81305e-14
-4.36478e-14
-1.71869e-13
1.26534e-13
2.06566e-14
-6.00901e-14
3.87008e-14
1.1179e-13
-2.2355e-14
5.02776e-14
-9.80046e-14
4.66329e-14
-1.47519e-14
-9.77268e-14
-7.90507e-14
0
5.42068e-14
-5.44128e-14
8.19142e-14
5.47798e-14
5.49277e-14
1.3764e-13
-1.10337e-13
8.29039e-14
-2.76819e-14
0
-8.3356e-14
0
-2.77328e-14
1.39048e-13
-3.91467e-13
-1.66189e-13
5.57427e-14
0
0
-1.34197e-13
0
0
0
-6.44408e-14
1.30861e-13
6.58548e-14
0
1.30556e-13
0
-1.90938e-13
-6.21138e-14
1.20713e-13
4.38151e-14
-8.45101e-14
7.78362e-14
1.29671e-14
4.95264e-14
-8.25e-14
3.35514e-14
-6.34782e-14
1.51708e-13
8.72568e-14
-1.53462e-13
2.2027e-13
-8.84754e-14
6.66014e-14
-1.33638e-13
1.56366e-13
0
0
-2.47585e-13
4.51357e-14
2.027e-13
-9.02184e-14
-4.52584e-14
6.82909e-14
-1.3538e-13
2.72561e-13
-9.09437e-14
1.83415e-13
0
0
-8.69123e-14
1.81574e-13
0
-9.60491e-14
0
-9.82036e-14
0
2.44721e-14
-1.4578e-13
2.14867e-13
-2.10099e-13
1.93158e-13
1.32173e-13
-8.37518e-14
1.31718e-13
-1.27473e-13
1.21753e-13
-1.06975e-13
8.45645e-15
1.38753e-13
-1.22378e-13
5.27825e-14
-1.77003e-14
1.42367e-13
-8.94106e-14
7.18402e-14
-1.80308e-14
9.04799e-14
-2.17887e-13
7.28684e-14
5.48406e-14
1.82583e-14
-1.82975e-14
-7.34788e-14
1.8489e-14
-3.66805e-14
1.47767e-13
9.24943e-14
-1.49291e-13
-5.42142e-14
0
0
0
0
0
-3.57452e-14
7.26078e-14
3.66156e-14
1.47046e-13
-1.65412e-13
2.18259e-13
-7.16105e-14
-1.75339e-14
-8.54627e-14
-1.5137e-13
3.14373e-14
2.8933e-14
5.91799e-14
-8.47891e-14
8.06856e-14
-2.76191e-14
6.97136e-14
-1.4054e-14
-2.83199e-14
0
1.29102e-13
-1.15403e-13
-1.44995e-14
-7.28409e-14
-8.77973e-14
-1.46957e-14
8.85612e-14
-2.95136e-14
5.92034e-14
8.92219e-14
-5.99064e-14
8.92164e-14
-1.19868e-13
1.50156e-14
0
9.53727e-14
-8.16837e-14
8.76583e-14
-4.62956e-14
0
-5.03838e-14
0
2.65915e-14
-1.08131e-13
-5.46941e-14
1.10165e-13
-8.23626e-14
2.72094e-14
5.36415e-14
-2.6302e-14
-7.70024e-14
1.12194e-13
8.43831e-14
-2.32144e-14
5.56493e-14
-3.18868e-14
-1.09322e-14
-3.31747e-14
-2.23334e-14
-5.63501e-14
0
3.43593e-14
-5.76712e-14
2.32188e-14
3.50387e-14
-5.8729e-14
1.18098e-14
2.37487e-14
0
-5.96608e-14
1.79979e-13
-1.57216e-13
2.52411e-13
-2.66633e-13
7.29269e-14
0
0
5.73075e-14
-6.16454e-14
0
3.44615e-14
-3.60431e-14
7.48621e-14
7.7207e-14
-1.58172e-13
6.04486e-14
0
3.07827e-14
3.07227e-14
-5.08098e-14
-8.02237e-14
1.67339e-13
-1.92273e-13
1.49204e-13
-8.24778e-14
-1.74087e-14
-4.17279e-14
7.73887e-14
1.52533e-13
-4.85079e-14
3.56736e-14
-1.26144e-13
1.36437e-13
-1.65158e-13
-1.47997e-13
1.02515e-13
5.63137e-14
-1.13391e-13
4.75638e-14
-4.76688e-14
-3.83296e-14
3.85822e-14
4.86524e-14
-6.77793e-14
6.83956e-14
1.96144e-14
0
-9.29104e-15
-3.99909e-14
4.31086e-14
-9.18857e-14
9.73003e-14
0
-5.35022e-14
-2.77799e-14
8.59792e-14
-8.82439e-14
0
0
7.63436e-15
-7.62688e-15
1.36351e-13
-1.42145e-13
2.20465e-14
2.96216e-14
4.16183e-14
-1.08928e-13
-3.25256e-14
-1.07448e-13
1.12581e-13
-1.38395e-14
-2.80496e-14
-7.09928e-14
2.15424e-14
7.98302e-14
-5.13041e-14
1.18352e-13
-1.93996e-13
1.80561e-13
-3.79237e-14
4.56774e-14
-1.22588e-13
9.26552e-14
2.33917e-14
1.55399e-14
4.7085e-14
7.88455e-15
-1.27559e-13
-2.15079e-14
6.18429e-14
6.67821e-14
-3.57111e-14
0
4.01591e-14
6.33175e-14
-1.10246e-13
4.57825e-14
-9.45727e-14
8.50407e-14
7.42167e-14
-1.62687e-13
5.66225e-14
6.28766e-15
1.24943e-14
-3.08582e-14
1.81904e-14
-1.85172e-14
1.43661e-13
-9.6128e-14
-6.34089e-14
9.98079e-14
-2.38738e-14
-1.36398e-13
3.38284e-14
1.71442e-13
-9.78555e-14
-1.21371e-13
1.29176e-13
2.61051e-14
5.27303e-14
-1.06484e-13
3.34542e-14
6.74328e-14
-6.12392e-14
-3.4395e-14
9.61161e-14
-5.55253e-14
3.4905e-14
0
-5.71582e-15
4.93877e-14
0
-2.86395e-14
3.05642e-14
3.24495e-14
-1.0279e-13
3.59722e-14
1.87715e-14
-1.94923e-14
-3.02093e-14
-2.06248e-14
1.2593e-13
-6.89817e-14
1.06665e-14
5.32819e-15
-5.82112e-14
7.31615e-14
-7.69787e-14
-4.44857e-14
6.30064e-14
-3.53332e-14
-1.03065e-14
5.25104e-14
-4.27637e-14
-2.71764e-14
-2.20827e-14
-4.20138e-14
3.40739e-14
8.3411e-14
8.73415e-15
2.35621e-14
6.55272e-14
-5.99876e-15
-1.21091e-13
1.10112e-13
-1.23832e-14
-4.33236e-14
-8.76839e-14
1.70278e-13
-1.02197e-13
4.60496e-14
-3.98448e-14
0
4.63696e-14
-4.96244e-14
7.92878e-14
0
2.95279e-14
-4.64297e-14
-6.45756e-14
1.6757e-14
-3.44951e-14
3.52833e-14
-1.79328e-14
4.52914e-14
4.09294e-14
0
-1.35117e-14
1.33302e-14
1.30778e-14
-4.25334e-15
-4.03032e-14
-3.22028e-14
1.84641e-14
3.76752e-14
-5.75848e-14
3.90734e-14
-1.63872e-13
1.51314e-14
7.16579e-14
1.038e-13
-6.04802e-14
-1.59807e-14
1.07463e-13
-2.52543e-13
1.40114e-13
-3.06231e-14
-9.19784e-14
1.10114e-13
9.10809e-14
-2.76977e-13
3.36734e-14
0
-3.51259e-14
0
0
0
0
-2.43655e-14
0
1.34229e-14
-2.79767e-14
-2.89229e-14
1.48592e-14
3.79358e-14
-6.16046e-14
-3.88402e-14
4.28388e-14
-2.71714e-14
2.30777e-14
1.51578e-14
5.93999e-14
-8.15901e-14
-3.59597e-14
1.18091e-13
-8.7057e-14
2.11654e-14
6.90754e-14
-1.23144e-13
1.43217e-13
-9.10005e-14
5.54607e-14
1.40733e-13
-1.18977e-13
-4.32758e-14
-6.81436e-14
1.99707e-13
-1.75092e-13
8.27747e-14
-3.81534e-14
5.13422e-15
0
-1.83666e-14
0
0
0
3.33722e-14
-8.93073e-14
5.71111e-14
-4.039e-14
0
2.23958e-14
4.68401e-14
-4.86126e-14
2.5076e-14
6.42862e-15
-6.5524e-15
1.99142e-14
-6.6843e-15
-3.34526e-14
-1.33144e-14
2.63418e-14
4.53403e-14
-3.45962e-14
-1.08414e-14
7.09548e-14
-8.44371e-14
1.77226e-14
1.0962e-14
7.39437e-14
3.96785e-15
-1.13154e-13
3.70086e-14
3.34463e-14
-9.77063e-14
-3.4395e-14
-1.00248e-13
8.84315e-14
2.38033e-13
-2.21045e-13
2.28966e-14
1.4113e-13
0
2.01515e-14
0
0
2.56287e-14
0
2.95843e-14
0
-1.68016e-14
1.77822e-14
0
3.93067e-14
-3.07008e-14
9.53632e-14
-6.54401e-14
5.57992e-15
-2.27009e-14
3.44253e-14
5.18921e-14
-4.03185e-14
4.57596e-14
-2.96488e-14
1.23812e-13
-1.09313e-13
1.24863e-14
-7.65195e-14
-9.85827e-15
-8.82731e-14
4.49488e-14
-9.13871e-14
-1.22385e-13
1.09669e-13
-5.95671e-14
3.41005e-14
9.60292e-14
4.63117e-14
-3.96173e-15
-1.16842e-13
8.10714e-14
-3.29546e-14
5.83436e-14
-1.35544e-13
-3.33262e-14
0
3.93054e-14
-2.12467e-14
0
0
-1.31601e-14
1.40237e-14
-4.46301e-14
0
-1.65273e-14
6.04249e-14
-3.58674e-14
-5.09381e-14
2.37755e-14
2.91244e-14
-3.94057e-14
1.49059e-14
-6.22778e-14
5.71129e-14
5.90579e-14
1.41531e-14
-1.06245e-14
-2.80466e-14
5.06723e-14
-3.83208e-14
7.34384e-14
-1.82416e-14
-1.86678e-14
1.27212e-13
-1.37202e-13
-6.346e-14
1.0727e-13
-1.39851e-14
2.41369e-14
6.68431e-14
-5.42929e-14
-5.0733e-14
3.72631e-14
-2.25059e-14
0
0
0
0
1.76815e-14
-1.90783e-14
0
0
-1.17377e-14
3.74298e-14
-3.96248e-14
1.39238e-14
-3.64609e-14
-7.59721e-15
4.72282e-14
-5.27106e-14
1.24596e-14
-5.92103e-14
-8.56291e-15
4.73954e-14
-1.7242e-14
-4.28693e-15
1.34709e-14
-4.64427e-15
4.79416e-15
-7.90761e-14
-6.10501e-14
5.22971e-15
2.68434e-15
-8.25645e-14
7.53889e-14
5.04483e-15
-3.01941e-14
4.73709e-14
1.87398e-14
-7.12754e-14
-6.74502e-15
-1.699e-14
-7.22776e-14
5.94735e-14
-3.03694e-14
0
-5.76406e-15
2.50755e-14
2.72634e-14
0
1.59441e-14
1.71675e-14
-1.84224e-14
1.96957e-14
-4.19438e-14
2.22442e-14
0
-2.46729e-14
1.28867e-14
1.339e-14
-6.91838e-15
7.10913e-15
3.99489e-14
-2.21343e-14
3.72539e-15
0
-7.09197e-14
5.48227e-14
-2.43493e-14
-4.19762e-15
-2.16793e-14
3.57762e-14
3.22412e-14
-4.73724e-15
-1.94636e-14
-2.49591e-15
-2.04601e-14
3.4032e-14
2.94496e-14
-4.365e-14
3.8957e-14
1.24905e-13
-1.42001e-13
-6.5933e-15
8.21698e-15
-5.76504e-14
9.89748e-14
2.40865e-15
2.09715e-14
0
-2.47219e-14
1.33606e-14
-1.43991e-14
1.54685e-14
-3.31178e-14
8.82914e-15
9.38041e-15
9.92742e-15
2.08934e-14
0
3.41888e-14
-5.31442e-14
2.73867e-14
-1.55939e-14
-1.58917e-14
6.44078e-15
-2.59522e-14
-3.24871e-15
4.77893e-14
-8.50678e-14
2.2041e-14
-2.28114e-14
-1.96445e-14
-8.10855e-15
1.25333e-14
1.28976e-14
-1.32553e-14
-4.08193e-14
4.65043e-14
4.04922e-14
8.26675e-14
3.22906e-14
-1.26883e-14
5.18809e-14
-2.62753e-14
0
4.36392e-14
0
2.01826e-15
0
-1.91357e-14
2.07503e-14
0
0
-3.90423e-14
1.39467e-14
0
0
1.67963e-14
-8.8549e-15
2.78784e-14
-4.85236e-15
-5.04172e-14
0
-1.3392e-14
8.21422e-15
-8.34982e-15
-5.62599e-15
-3.95715e-14
2.37955e-14
-3.0945e-14
3.21339e-14
-9.99649e-15
-6.55523e-14
3.56702e-14
7.36521e-15
-2.65768e-14
2.73637e-14
2.41187e-14
1.0322e-14
-1.22859e-13
2.81592e-14
2.2164e-15
5.66937e-14
-6.26742e-14
2.1198e-14
-3.85189e-14
-7.59853e-14
0
-3.0509e-14
0
1.60873e-14
0
-1.8888e-14
2.03849e-14
-1.09679e-14
2.35294e-14
-2.51518e-14
0
0
-7.51177e-15
-7.89922e-15
1.2402e-14
1.29179e-14
-2.67745e-14
9.2008e-15
4.71708e-15
2.40501e-15
-3.17014e-14
1.72089e-14
-2.85001e-14
5.40124e-15
-8.42942e-15
-2.0435e-14
-3.02844e-14
-1.25482e-14
3.89379e-14
0
-3.80288e-14
1.42458e-14
1.46578e-14
1.50657e-14
9.26006e-14
-2.9658e-14
4.05216e-15
4.15355e-15
-1.26659e-14
7.99344e-14
-1.32157e-14
0
1.85405e-14
0
-1.35504e-14
0
1.59238e-14
1.71946e-14
-2.77715e-14
9.93732e-15
-1.06326e-14
0
0
-1.91302e-14
2.68725e-14
-1.40931e-14
2.57487e-14
1.91088e-14
-1.58029e-14
1.21882e-14
4.15547e-14
-1.05672e-14
-4.27523e-15
-6.76845e-15
1.64927e-14
7.36823e-15
-1.27834e-14
0
-1.65477e-14
-2.28652e-14
-5.91552e-15
4.5849e-14
-2.83909e-14
4.22702e-14
0
-1.3743e-14
-7.0543e-14
1.99099e-14
3.15848e-14
2.27033e-14
7.75493e-15
7.91765e-15
-6.48469e-14
-2.16371e-14
-2.09875e-14
2.28648e-14
-1.24137e-14
-1.34449e-14
1.45239e-14
1.56464e-14
8.40336e-15
8.9986e-15
9.60682e-15
0
3.24975e-14
-1.14321e-14
1.80218e-14
-9.42833e-15
-3.27321e-15
-1.35704e-14
-2.09921e-14
1.61518e-14
-2.01433e-14
3.90219e-14
-5.89226e-14
3.6989e-14
-1.28775e-14
3.35771e-14
6.99343e-15
-6.06011e-14
7.55084e-15
-3.13156e-14
4.05289e-14
-3.35241e-14
4.32723e-14
2.38038e-14
-4.89488e-14
-5.03367e-14
7.59995e-14
-1.1636e-13
6.95294e-14
-8.70064e-15
8.36236e-14
0
0
1.77264e-14
-1.93187e-14
2.09837e-14
-1.13668e-14
1.22828e-14
-1.32372e-14
-2.13393e-14
0
-8.14416e-15
-2.60281e-14
4.60253e-15
4.86503e-15
-1.02446e-14
-2.41688e-14
8.41019e-15
2.03917e-14
-3.0125e-15
-2.16975e-14
4.44169e-14
-5.49068e-14
5.98297e-14
5.37555e-15
-4.68767e-14
-1.76348e-14
2.24898e-14
4.26032e-14
-4.21062e-14
2.30219e-15
-1.19409e-14
-3.71095e-14
4.86293e-14
-3.96699e-14
4.0865e-14
5.61302e-15
-7.51342e-14
-3.27278e-14
-8.66698e-14
1.54681e-13
3.19989e-14
1.05087e-13
-8.57471e-15
1.49908e-14
0
-1.77563e-14
0
1.03982e-14
-1.12094e-14
0
6.46067e-15
6.90822e-15
-1.47323e-14
1.56498e-14
0
1.74733e-14
-1.83577e-14
-2.40091e-15
5.00217e-15
1.03738e-14
-2.67626e-14
-1.37389e-14
2.80638e-14
-7.43734e-15
-1.09349e-14
1.31028e-14
-3.42976e-15
3.76508e-14
-5.80229e-14
1.17066e-14
1.82781e-14
-8.44369e-15
-1.0955e-14
-2.49814e-14
-7.05316e-15
2.42663e-15
7.01225e-14
-2.84144e-14
-4.52845e-14
-4.63761e-14
4.211e-14
-6.33441e-14
0
1.45086e-15
-1.26909e-14
0
1.50406e-14
8.15045e-15
8.81044e-15
0
-1.02165e-14
-1.09587e-14
1.75877e-14
0
-1.996e-14
7.05292e-15
-3.72555e-15
-7.84323e-15
1.85043e-14
-1.50293e-14
1.78584e-14
-9.241e-15
2.37933e-15
7.31409e-15
5.17646e-15
-1.63398e-14
1.43045e-15
-4.50211e-15
3.14427e-15
-5.59155e-14
2.57675e-14
1.07504e-14
4.47864e-14
-5.82235e-14
-4.23291e-14
5.22687e-14
-1.08116e-14
-2.23584e-14
-3.92752e-14
3.5797e-14
6.12234e-14
2.52408e-15
3.88956e-14
-8.5389e-14
9.82838e-15
1.07537e-14
0
-1.27514e-14
0
-1.49412e-14
1.61116e-14
0
-9.2983e-15
4.97693e-15
-1.5945e-14
1.13163e-14
-3.00285e-15
3.17735e-15
2.01045e-14
-3.16885e-14
-9.21398e-15
3.84211e-15
2.19328e-14
0
-8.47087e-15
1.35089e-14
-4.50973e-14
3.49782e-14
-9.19262e-15
-5.5143e-15
2.60118e-14
-4.53792e-15
7.90514e-15
-1.15508e-14
5.15919e-15
5.36932e-15
2.04622e-14
-1.34957e-14
1.99746e-15
3.92901e-14
-4.27975e-14
2.20052e-14
-2.95334e-14
3.50692e-14
0
2.08216e-15
-1.82384e-14
0
1.08185e-14
0
0
-6.83498e-15
-7.3531e-15
2.36765e-14
-2.11307e-14
2.25806e-14
0
0
-1.35482e-14
2.2901e-14
-9.04283e-15
-1.58135e-15
1.81814e-14
-2.06461e-14
-8.91535e-15
-3.67854e-15
1.37086e-14
-2.06858e-15
2.18186e-15
-9.19374e-15
-1.81344e-14
-7.62013e-15
-3.9968e-14
4.18663e-14
-1.60567e-14
2.13445e-14
-7.95065e-15
-1.4906e-14
-3.61274e-14
6.60862e-14
-2.77922e-14
5.18653e-14
-6.33522e-14
6.14254e-15
7.59979e-14
-6.97338e-14
5.29657e-15
1.54762e-14
1.68938e-14
-1.83684e-14
0
0
5.80151e-15
-6.24149e-15
6.70027e-15
0
3.83759e-15
-2.45562e-14
4.35437e-15
1.15524e-14
-7.3355e-15
5.15995e-15
-1.89935e-14
1.42178e-15
-1.4843e-15
-3.08636e-14
7.98645e-15
3.4066e-14
-9.01384e-15
3.81095e-15
1.40811e-14
-7.2107e-14
8.26169e-14
-1.40857e-14
-3.20415e-14
6.45988e-15
5.41005e-15
0
-4.87063e-14
3.99537e-14
1.59897e-15
-9.97344e-15
-1.20881e-14
-3.21106e-14
8.13348e-14
-7.06587e-14
6.31932e-14
0
1.31391e-14
-7.17364e-15
7.80058e-15
0
-9.13752e-15
9.85158e-15
-1.05982e-14
1.13783e-14
-1.21936e-14
1.95659e-14
-1.04416e-14
7.41415e-15
-1.18184e-14
-8.35246e-15
0
2.32725e-15
-1.2227e-15
-2.56049e-15
1.33536e-14
1.38706e-15
-8.8885e-15
4.7135e-15
-1.33141e-14
-1.40868e-14
3.90743e-14
2.35631e-14
-3.10407e-14
3.37562e-14
-6.98047e-14
5.64404e-14
-1.76171e-14
3.95036e-15
3.02364e-14
-4.15717e-14
1.7924e-14
-5.28756e-14
6.1202e-14
2.50858e-14
-7.44537e-14
5.74067e-14
-2.54223e-15
-1.11595e-14
1.21896e-14
-6.62796e-15
0
-7.76137e-15
0
0
1.44926e-14
5.17806e-15
0
2.95948e-15
-9.46606e-15
3.35768e-15
5.34811e-15
-1.32199e-14
1.39685e-14
-4.20485e-15
7.72802e-15
-5.77683e-15
-1.08401e-14
1.15961e-14
-2.05415e-14
4.50688e-14
-7.70883e-15
-3.26613e-14
3.45521e-15
4.56305e-15
-1.54059e-14
4.56515e-14
-5.33668e-14
5.04604e-14
8.23501e-15
-5.90962e-14
4.76354e-14
9.41386e-15
-2.6668e-14
3.35233e-14
3.79238e-14
-4.09316e-14
-5.23071e-14
-3.23716e-15
0
-1.03597e-14
5.63321e-15
-6.10368e-15
0
0
-3.82077e-15
4.10191e-15
-1.31919e-14
0
0
-2.68502e-15
1.14437e-14
1.52146e-14
-9.69014e-15
-8.55248e-15
5.42111e-15
5.71083e-15
9.99498e-15
7.32122e-15
-5.60339e-15
-4.77506e-15
-7.6218e-15
-6.75201e-15
1.43396e-15
-3.49805e-14
4.83325e-14
-1.2783e-14
2.97112e-14
-2.27971e-14
1.1008e-14
5.15882e-14
4.42001e-15
-1.73813e-14
7.76792e-14
-1.39714e-14
-5.42371e-14
3.58881e-14
2.87254e-15
0
1.83234e-15
-8.05677e-15
8.80638e-15
0
0
5.60206e-15
0
-6.48844e-15
3.48252e-15
3.73361e-15
0
0
-4.56808e-15
4.87356e-15
-2.59602e-15
-5.52234e-15
-4.39701e-15
1.70793e-14
-4.92238e-15
2.6801e-14
-2.54301e-14
9.74838e-15
-1.45715e-14
6.77265e-14
-1.30163e-14
-3.02365e-14
0
-1.42337e-14
-1.51017e-15
4.80058e-15
-2.96328e-14
4.47341e-15
-8.87481e-14
7.55485e-14
1.04564e-15
4.72395e-14
3.45913e-15
-1.80727e-14
-6.05187e-14
2.36848e-14
0
4.66761e-15
0
-7.4869e-15
8.14232e-15
8.8182e-15
0
-5.12524e-15
0
-5.91216e-15
0
6.78974e-15
-3.63294e-15
2.71904e-14
-8.29859e-15
-1.32828e-14
1.88749e-14
3.7662e-15
-1.33366e-15
-1.27253e-14
0
-7.88712e-16
6.78469e-15
5.4462e-15
5.8246e-15
-2.17858e-14
-1.99379e-14
3.19003e-14
2.51781e-15
4.01956e-15
-4.27281e-15
-2.49492e-14
3.68729e-14
-5.34701e-14
8.96742e-16
2.74492e-14
-4.19098e-14
7.88113e-14
-2.75516e-14
-1.96699e-14
8.48142e-15
0
-1.98166e-15
-5.81947e-15
0
0
0
-8.08701e-15
0
4.67574e-15
0
2.68931e-15
0
-6.17016e-15
-3.30146e-15
-8.82749e-15
-5.6609e-15
6.0453e-15
1.50477e-14
-6.87081e-15
9.74481e-15
-5.17304e-15
1.78097e-14
5.90354e-15
-2.29634e-14
-5.09507e-15
2.18423e-14
3.60622e-14
-1.35578e-14
-1.11488e-14
2.73838e-14
7.62031e-15
-1.15022e-14
1.008e-14
-4.36168e-14
3.08426e-14
2.6661e-14
1.54731e-14
-8.65951e-15
-1.82396e-14
-3.2038e-15
1.5718e-14
0
-4.48667e-15
0
0
0
0
0
7.38944e-15
-1.1903e-14
4.25598e-15
4.56227e-15
2.44444e-15
-2.61857e-15
-5.60919e-15
1.2013e-14
-9.64522e-15
0
4.59913e-15
-6.8802e-15
2.09825e-15
-5.5914e-15
-2.08241e-14
7.70689e-15
9.67438e-15
1.3378e-14
-2.31708e-14
-2.14613e-14
-2.76511e-15
-1.28549e-14
1.69588e-14
-2.27005e-15
-2.06407e-14
1.6217e-14
-1.38462e-14
2.13895e-14
1.64848e-14
6.67574e-15
1.15188e-14
-1.68781e-14
-5.85678e-14
1.05894e-13
-7.08307e-14
9.52174e-15
0
4.60031e-15
5.00232e-15
-5.41195e-15
5.83338e-15
0
0
-3.60886e-15
3.86801e-15
0
0
0
2.5529e-15
4.1061e-15
0
1.57356e-15
-1.1806e-14
0
1.83707e-14
-1.34385e-14
-2.79549e-15
5.42978e-15
-7.81077e-15
2.80825e-14
2.19519e-14
-1.71309e-14
-4.41497e-14
2.55321e-14
2.03396e-15
4.31636e-14
-4.10566e-15
2.01273e-14
-2.89595e-14
3.60225e-14
-1.38572e-14
-2.21869e-14
5.50979e-14
1.48943e-14
-6.92114e-14
0
-4.04046e-16
7.14092e-15
-3.90985e-15
0
0
4.95225e-15
0
2.85369e-15
0
-3.27765e-15
-1.7565e-15
3.76662e-15
-6.06114e-15
4.33741e-15
5.82312e-15
3.75436e-15
1.0762e-14
-2.09726e-14
-7.77584e-15
2.59129e-14
-1.07783e-14
-1.55798e-14
1.73907e-14
4.56369e-15
0
1.1696e-15
-4.33914e-15
8.60495e-15
-5.92058e-15
6.39793e-15
4.72553e-14
-3.84803e-14
-3.51045e-14
-1.91749e-14
7.64682e-14
-1.28826e-14
-5.38144e-14
1.48292e-14
-8.82759e-16
-1.43985e-14
0
5.48473e-15
0
0
0
7.80801e-15
0
0
0
-2.5909e-15
2.77573e-15
-5.95033e-15
0
5.1393e-15
-3.68215e-15
-9.90313e-16
-2.13284e-15
1.03447e-14
6.19922e-15
-1.13752e-14
7.94861e-15
-9.36708e-15
1.86616e-14
-2.02663e-14
1.50116e-14
2.58287e-15
-1.94289e-14
2.8244e-14
2.11635e-15
-3.95021e-14
3.21511e-14
7.16352e-15
-1.75004e-14
1.741e-14
-1.65922e-14
2.03103e-14
-2.55277e-14
-2.32709e-14
6.28774e-14
-2.64344e-14
-8.06535e-14
6.32569e-14
-4.65146e-15
0
0
0
-3.31397e-15
0
-3.82438e-15
0
0
0
0
1.35091e-15
0
-1.56179e-15
3.36595e-15
-2.72441e-15
3.92598e-15
5.31136e-15
-1.38148e-14
-1.24922e-15
9.49985e-15
2.21775e-15
4.63265e-15
-1.72444e-14
-8.60029e-15
9.8157e-16
3.20234e-14
-3.74926e-15
3.65417e-14
-1.75484e-14
-1.59224e-14
1.1608e-14
-3.61306e-14
-4.80512e-15
-7.00557e-15
4.7233e-14
-2.79101e-14
1.30366e-13
-1.09117e-13
-4.36626e-14
4.71735e-14
-1.92148e-13
0
0
0
1.48048e-13
-1.3852e-13
-1.29534e-13
1.21064e-13
0
0
-9.85006e-14
9.18516e-14
-8.56023e-14
7.97324e-14
0
0
0
-2.38664e-13
0
0
0
0
0
0
-7.02877e-14
0
0
-1.11119e-13
5.13167e-14
0
0
-8.06213e-14
-1.48628e-13
0
0
0
0
0
0
-4.14735e-14
-3.80918e-14
0
6.41895e-14
0
0
0
4.53647e-14
0
3.80578e-14
0
-3.18873e-14
0
2.66854e-14
-2.44016e-14
0
0
0
0
-3.10813e-14
0
0
-2.36446e-14
0
0
0
0
0
-1.36125e-14
0
0
0
-9.39002e-15
0
3.89623e-15
0
0
-1.399e-13
1.31344e-13
-1.2325e-13
1.15595e-13
1.0836e-13
-1.01524e-13
0
-8.89758e-14
-8.32279e-14
-7.78084e-14
7.27014e-14
-6.78913e-14
0
5.91043e-14
0
1.02674e-13
0
-8.89759e-14
-8.27566e-14
0
0
6.63581e-14
0
1.7133e-13
0
0
-9.08114e-14
8.40348e-14
-7.77216e-14
0
0
0
0
-5.21821e-14
0
-4.4338e-14
4.08403e-14
0
0
3.18288e-14
-2.92647e-14
-2.68956e-14
4.94158e-14
4.53778e-14
-4.16532e-14
-3.82196e-14
-3.50558e-14
-3.21422e-14
2.94602e-14
-2.69928e-14
2.47237e-14
-2.26381e-14
2.07219e-14
0
0
-1.58645e-14
1.45049e-14
-2.65167e-14
2.42317e-14
0
0
0
0
0
0
0
-1.16884e-14
1.06607e-14
9.7217e-15
-8.86392e-15
0
-3.68262e-15
0
1.23074e-13
-1.15838e-13
0
1.02477e-13
-1.92637e-13
-1.80973e-13
8.49664e-14
0
-7.4803e-14
7.01327e-14
0
0
1.72851e-13
5.39045e-14
-1.00807e-13
1.88415e-13
8.79906e-14
0
7.66304e-14
0
0
-6.20136e-14
5.7723e-14
-5.36982e-14
4.99253e-14
-4.63908e-14
4.30818e-14
0
-3.70914e-14
0
0
0
5.46175e-14
5.05232e-14
0
0
3.98635e-14
3.67973e-14
-6.78995e-14
-3.13068e-14
-2.88555e-14
0
0
0
-4.14537e-14
0
0
0
0
0
2.49083e-14
2.28492e-14
0
-3.8413e-14
0
-1.61221e-14
2.95271e-14
-1.35153e-14
0
0
0
0
0
-1.58129e-14
1.44478e-14
0
1.20524e-14
0
-2.00904e-14
0
-8.36538e-15
0
3.48057e-15
2.69448e-13
0
-9.5855e-14
0
8.51112e-14
8.01486e-14
0
0
0
6.27458e-14
-5.89519e-14
-1.10721e-13
5.1962e-14
0
-4.57083e-14
8.56725e-14
-1.60494e-13
0
1.40582e-13
0
0
-5.73871e-14
1.07151e-13
0
0
0
4.04662e-14
-7.53408e-14
3.50475e-14
0
3.02846e-14
0
0
4.84428e-14
4.49153e-14
0
-3.85474e-14
3.56808e-14
-3.30094e-14
3.05214e-14
-2.82059e-14
0
2.40508e-14
-2.21917e-14
2.0466e-14
-3.77303e-14
3.47623e-14
0
0
0
4.98646e-14
0
0
1.93423e-14
1.77582e-14
-1.62975e-14
1.49513e-14
0
0
0
0
0
0
-1.61938e-14
1.48164e-14
-1.35523e-14
1.23926e-14
2.26581e-14
-1.03541e-14
9.46068e-15
-8.64227e-15
-7.89281e-15
7.20673e-15
0
4.44325e-14
4.19742e-14
-7.9276e-14
7.48364e-14
0
-6.66135e-14
0
-5.92005e-14
0
-1.0505e-13
-4.94425e-14
-9.30407e-14
4.37508e-14
8.22539e-14
0
-3.62895e-14
0
1.2783e-13
5.99331e-14
5.617e-14
0
0
0
0
8.05789e-14
0
3.51385e-14
0
3.05767e-14
0
5.30924e-14
0
4.59879e-14
0
0
-3.69134e-14
-3.42662e-14
3.17907e-14
-2.94773e-14
2.73169e-14
0
-2.34205e-14
2.1668e-14
2.00359e-14
-1.85168e-14
1.71038e-14
-3.1581e-14
2.91412e-14
-2.68763e-14
2.47752e-14
0
2.10225e-14
1.93515e-14
0
-1.6375e-14
1.50532e-14
0
-1.27051e-14
-1.1665e-14
-1.07059e-14
0
1.8015e-14
0
0
1.38656e-14
1.26984e-14
0
-1.06404e-14
9.73564e-15
8.90524e-15
0
-7.44472e-15
0
-6.21724e-15
3.66314e-14
0
-6.55331e-14
-1.239e-13
1.17087e-13
-1.10611e-13
0
4.9304e-14
0
4.3888e-14
0
-1.17016e-13
7.34979e-14
3.46083e-14
3.2578e-14
-3.06532e-14
8.64866e-14
-5.42009e-14
1.01854e-13
-4.78277e-14
0
-4.21203e-14
3.94971e-14
3.7018e-14
0
0
3.03786e-14
-5.68211e-14
0
4.96147e-14
-4.63228e-14
2.16124e-14
0
-3.75721e-14
6.99983e-14
-3.25836e-14
0
2.81924e-14
-2.62013e-14
2.43368e-14
2.25921e-14
-4.1921e-14
1.94357e-14
1.80117e-14
1.66827e-14
1.54433e-14
5.71523e-14
0
2.44214e-14
-2.25584e-14
0
0
-1.77249e-14
1.63396e-14
-1.50552e-14
-1.38652e-14
1.27633e-14
0
0
0
0
1.67609e-14
-1.53891e-14
0
-1.2958e-14
-1.18838e-14
0
0
-9.14704e-15
8.37715e-15
0
-7.01966e-15
6.42286e-15
5.8751e-15
9.05925e-14
2.85975e-14
0
-1.53757e-13
4.84959e-14
1.37622e-13
-8.67603e-14
1.64035e-13
0
0
0
9.79172e-14
-3.08006e-14
2.90545e-14
-2.73966e-14
0
2.43293e-14
6.87374e-14
-1.29412e-13
0
-7.63484e-14
3.58861e-14
-3.3719e-14
0
5.94519e-14
-2.78894e-14
2.6153e-14
0
0
-4.29958e-14
4.02332e-14
1.88137e-14
-3.5171e-14
3.28566e-14
0
0
2.66969e-14
0
0
-2.15805e-14
-4.01598e-14
-3.73458e-14
1.73544e-14
-3.22397e-14
2.9929e-14
-1.3884e-14
-2.57485e-14
0
0
4.0921e-14
0
3.50103e-14
0
0
1.37977e-14
0
1.17431e-14
2.1651e-14
9.97475e-15
-9.18647e-15
0
0
1.43127e-14
-1.31578e-14
-1.2091e-14
0
0
0
-8.58647e-15
-7.87476e-15
0
-1.32326e-14
6.06148e-15
0
-7.46754e-14
9.43868e-14
0
-4.238e-14
-4.01457e-14
-3.80192e-14
3.59956e-14
-1.36281e-13
0
1.21984e-13
-1.15355e-13
-2.72628e-14
7.72936e-14
-2.43403e-14
-2.29867e-14
0
-8.19145e-14
1.15909e-13
-3.64326e-14
0
3.23553e-14
-3.04718e-14
2.86855e-14
5.39836e-14
0
-7.15967e-14
4.48501e-14
-4.21226e-14
1.97707e-14
1.85498e-14
-5.21862e-14
3.26087e-14
0
-2.86011e-14
2.67643e-14
2.50317e-14
0
-2.18594e-14
0
3.80923e-14
-1.77632e-14
-1.65572e-14
1.54242e-14
-1.43605e-14
1.33624e-14
-1.24265e-14
-3.46486e-14
0
-3.98388e-14
0
0
1.58835e-14
-1.47123e-14
1.362e-14
-1.26018e-14
0
-1.07707e-14
-9.94958e-15
0
0
0
0
0
-1.22342e-14
1.12624e-14
0
0
8.76252e-15
-8.05226e-15
-7.3965e-15
0
0
-5.71892e-15
1.049e-14
1.43619e-13
-1.36266e-13
1.10798e-13
-1.4011e-13
0
6.29728e-14
-1.19368e-13
5.65536e-14
5.35738e-14
-1.26844e-13
7.20585e-14
0
-4.30279e-14
-4.07039e-14
-3.84935e-14
1.09175e-13
-3.43931e-14
0
4.60315e-14
2.8972e-14
-2.7342e-14
-5.15879e-14
2.4324e-14
2.29285e-14
-4.32083e-14
-4.06953e-14
3.83118e-14
5.40778e-14
0
-3.18801e-14
0
1.40688e-14
-5.28302e-14
4.95711e-14
0
0
4.08246e-14
-1.91131e-14
0
0
1.56397e-14
0
-2.72886e-14
0
2.37532e-14
-3.32132e-14
-1.03143e-14
9.60365e-15
0
-1.66231e-14
0
1.43535e-14
0
0
2.29346e-14
-3.18854e-14
-9.84549e-15
-9.11514e-15
8.43434e-15
-7.80016e-15
0
1.33212e-14
-1.23e-14
0
1.04705e-14
0
0
8.19316e-15
-1.50857e-14
6.94093e-15
0
-5.86956e-15
-1.07882e-14
0
2.02922e-13
-8.02838e-14
-3.04877e-14
-5.78782e-14
1.3732e-13
0
-4.94429e-14
-7.03423e-14
0
0
1.99796e-14
-7.57311e-14
8.96816e-14
3.39758e-14
0
1.52266e-14
-8.64569e-14
5.45288e-14
2.57858e-14
-4.87594e-14
-6.91281e-14
4.35434e-14
-6.1691e-14
5.82471e-14
0
3.45783e-14
3.26108e-14
-3.0743e-14
2.89702e-14
-1.36441e-14
2.56926e-14
0
2.27456e-14
0
2.00993e-14
-1.88804e-14
-1.77267e-14
1.66352e-14
1.56029e-14
-4.38816e-14
1.37053e-14
1.28346e-14
0
0
-1.05064e-14
0
-9.16843e-15
0
1.59656e-14
1.48848e-14
-2.77385e-14
0
-1.20205e-14
1.1181e-14
-1.03941e-14
9.6571e-15
0
0
0
-7.15484e-15
6.62866e-15
-6.13777e-15
0
-1.05074e-14
0
-8.97462e-15
-8.2877e-15
7.64941e-15
0
0
5.99659e-15
-5.52383e-15
0
4.68062e-15
-6.96836e-14
0
1.25806e-14
1.19503e-14
-3.40493e-14
4.31109e-14
2.04656e-14
1.94275e-14
-1.65948e-13
8.74847e-14
4.98001e-14
-1.25967e-13
7.4663e-14
0
5.36834e-14
-1.01752e-13
7.23046e-14
-4.56592e-14
-1.08096e-14
3.07008e-14
-1.93712e-14
1.09971e-13
-1.73368e-14
-8.19677e-14
7.74831e-14
0
1.38334e-14
-2.61261e-14
1.23312e-14
1.16359e-14
0
-3.10461e-14
2.92608e-14
2.75667e-14
0
-1.62903e-14
3.06539e-14
-2.8828e-14
0
2.54598e-14
0
-3.36621e-14
-1.05267e-14
3.94819e-14
-9.25035e-15
-8.66461e-15
-8.11161e-15
-7.58978e-15
0
1.32674e-14
0
0
1.07957e-14
1.00673e-14
9.38261e-15
-1.7479e-14
1.62715e-14
-7.56937e-15
-7.03835e-15
-6.54082e-15
6.07496e-15
-5.63906e-15
0
9.70113e-15
-8.98976e-15
-8.32591e-15
7.70683e-15
0
6.59255e-15
6.09247e-15
-5.62736e-15
5.19506e-15
4.79352e-15
0
-1.14856e-13
6.55181e-14
1.14185e-13
-7.89328e-14
-1.31278e-13
2.67317e-14
1.01594e-13
-3.21709e-14
1.2223e-13
-1.45101e-14
-4.13341e-14
-1.30806e-14
-2.48327e-14
9.42691e-14
-4.47242e-14
-3.18215e-14
2.01213e-14
0
2.71344e-14
5.14385e-14
-3.24961e-14
-1.53932e-14
4.37384e-14
-6.90257e-14
1.30683e-14
2.47345e-14
-2.34008e-14
1.10661e-14
2.09257e-14
-1.97786e-14
0
1.76515e-14
-8.33325e-15
0
-1.48418e-14
-1.39977e-14
0
-1.24357e-14
2.34279e-14
1.10294e-14
-1.03802e-14
0
-9.18168e-15
-8.62929e-15
8.10624e-15
0
0
1.33995e-14
-1.88429e-14
1.17706e-14
-1.10232e-14
2.06355e-14
0
-2.70736e-14
8.43303e-15
-7.87588e-15
7.35138e-15
0
-6.39391e-15
0
0
1.03282e-14
-1.92144e-14
0
0
1.54118e-14
7.15153e-15
0
0
5.69713e-15
-5.27541e-15
4.88222e-15
0
0
1.89306e-13
-5.40208e-14
1.02761e-13
-1.62881e-13
7.74444e-14
-1.47273e-14
-5.60065e-14
-7.98608e-14
0
8.41646e-14
-6.85524e-14
1.08555e-14
-4.12505e-14
-9.79539e-15
1.02329e-13
-3.53331e-14