/*--------------------------------*- C++ -*----------------------------------*\
| =========                 |                                                 |
| \\      /  F ield         | OpenFOAM: The Open Source CFD Toolbox           |
|  \\    /   O peration     | Version:  2312                                  |
|   \\  /    A nd           | Website:  www.openfoam.com                      |
|    \\/     M anipulation  |                                                 |
\*---------------------------------------------------------------------------*/
FoamFile
{
    version     2.0;
    format      ascii;
    arch        "LSB;label=32;scalar=64";
    class       volScalarField;
    location    "0";
    object      magR;
}
// * * * * * * * * * * * * * * * * * * * * * * * * * * * * * * * * * * * * * //

dimensions      [0 2 -2 0 0 0 0];

internalField   nonuniform List<scalar> 
11040
(
0.766965
0.749603
0.745983
0.737844
0.726207
0.713995
0.70293
0.693691
0.686343
0.680667
0.676452
0.673414
0.671276
0.669792
0.668713
0.66783
0.666972
0.665972
0.664723
0.663099
0.661071
0.658098
0.653928
0.649273
0.644505
0.639619
0.634658
0.629644
0.62461
0.619576
0.614565
0.609596
0.604682
0.599849
0.59512
0.590488
0.585949
0.58156
0.577303
0.573196
0.56921
1.04927e-17
7.47103e-17
4.2773e-17
6.66849e-17
1.50868e-17
6.65465e-17
6.04979e-17
2.53738e-17
3.71309e-17
4.63805e-17
6.81891e-17
2.24467e-17
2.03573e-17
1.33547e-16
7.97247e-17
3.01097e-17
5.12974e-17
4.17329e-17
5.9344e-17
5.05981e-17
7.213e-17
5.13542e-17
1.98486e-17
3.02495e-17
3.33245e-17
2.29548e-17
9.7493e-18
8.5975e-17
3.68882e-17
2.53738e-17
6.45124e-17
7.65021e-17
3.19025e-17
5.12844e-17
8.00101e-17
2.89375e-17
5.70721e-17
3.89849e-17
6.61807e-17
3.66787e-17
6.86105e-17
3.51889e-17
6.50304e-17
5.12865e-17
7.93807e-17
4.5701e-17
1.80952e-17
7.1374e-17
4.53467e-17
3.39738e-17
1.25154e-16
4.12167e-17
1.3189e-17
5.62604e-17
5.33584e-17
2.2269e-17
5.29506e-17
1.75181e-17
2.47783e-17
7.50057e-17
6.34177e-17
1.2795e-16
8.63127e-17
4.8597e-17
1.94923e-17
2.01513e-17
6.58107e-17
4.9587e-17
5.76604e-17
8.22695e-17
2.16824e-17
3.25843e-17
1.27608e-17
3.57202e-17
2.7035e-17
3.906e-17
4.334e-17
2.38999e-17
3.88871e-17
6.8973e-17
8.25017e-17
6.64097e-17
5.4094e-17
5.94016e-17
5.59936e-17
1.98974e-17
2.9128e-17
1.01282e-16
8.91574e-17
1.03083e-17
3.44958e-17
5.97714e-17
7.1463e-17
4.48778e-17
1.04431e-17
3.70261e-17
5.74911e-17
7.27348e-18
3.65879e-17
1.19864e-17
4.08097e-17
7.015e-17
4.30535e-17
6.97746e-17
6.40106e-17
3.03747e-17
4.10939e-17
1.45289e-16
1.94827e-17
6.02123e-17
8.11959e-17
4.84162e-17
2.31606e-17
3.09831e-17
9.83154e-18
5.36784e-17
4.6627e-17
2.47626e-17
6.25901e-17
3.03047e-17
2.34436e-17
1.6569e-17
1.64375e-17
6.07302e-17
5.95486e-17
4.38926e-17
3.85804e-17
4.34613e-17
3.60856e-17
5.29126e-17
1.75447e-17
6.97037e-17
2.28726e-17
1.52729e-17
3.62862e-17
3.05196e-17
1.33e-17
1.2977e-17
2.49132e-17
3.56955e-17
4.07142e-17
7.01063e-18
2.76026e-17
2.75356e-17
1.90028e-17
2.81132e-17
2.61577e-17
6.15483e-17
8.0519e-17
3.98623e-17
2.13136e-17
2.87243e-17
2.31168e-17
2.52668e-18
1.51134e-17
1.0806e-17
2.65746e-17
8.86867e-18
2.31277e-17
8.54173e-18
4.11951e-17
1.02691e-17
3.90799e-17
1.23207e-17
1.06541e-17
4.51936e-17
4.13379e-17
3.88798e-17
2.1413e-17
4.60662e-17
4.46093e-17
3.27662e-17
2.89678e-17
4.16502e-17
8.88577e-17
6.92873e-17
1.22139e-17
4.65804e-17
5.28884e-18
3.67222e-17
3.17598e-17
7.68912e-18
1.24251e-17
7.35355e-17
1.54603e-17
7.18601e-17
1.06443e-17
2.05087e-17
2.64152e-17
1.69022e-17
3.31869e-17
4.59933e-17
2.90125e-17
2.09755e-17
1.24134e-17
1.53942e-17
2.35592e-17
4.11526e-17
2.61598e-17
2.43748e-17
2.25576e-17
2.32747e-17
2.10197e-17
1.65603e-17
1.46546e-17
9.28066e-18
5.59397e-17
1.69243e-17
2.69032e-17
1.22169e-17
4.32798e-17
2.08593e-17
1.00221e-17
3.67387e-17
1.86814e-17
1.97663e-17
2.54278e-17
1.44744e-17
2.62503e-17
3.03056e-17
4.75118e-17
3.05721e-17
8.44962e-18
8.0164e-18
2.77169e-17
6.55622e-18
1.32167e-17
1.51326e-17
9.14949e-18
6.78512e-17
2.17688e-17
4.68732e-17
1.50269e-17
8.82402e-18
3.68699e-17
2.46773e-17
1.88682e-17
1.87548e-17
3.87243e-17
2.71201e-17
2.43807e-17
1.54149e-17
3.25647e-17
2.08897e-17
3.52133e-17
5.93066e-18
7.80496e-18
2.46512e-17
8.83598e-18
2.28959e-17
4.75261e-18
1.42806e-17
1.91389e-17
4.87179e-18
1.55265e-17
1.20807e-17
2.90755e-17
1.52044e-17
1.23152e-17
2.34775e-17
1.87614e-17
3.71661e-17
3.49242e-17
8.88579e-18
1.25516e-17
4.52263e-17
3.02432e-17
2.98361e-17
6.32096e-18
1.99632e-17
2.0447e-17
6.40831e-18
6.29691e-18
2.63032e-17
2.97979e-17
2.07984e-17
1.1297e-17
2.83032e-17
2.4602e-17
1.22103e-17
9.62377e-18
1.19295e-17
1.20175e-17
3.99746e-17
8.91887e-18
1.88668e-18
8.55393e-18
7.70327e-18
6.70101e-18
5.19891e-18
1.63227e-17
2.36687e-17
3.08744e-18
3.01807e-17
3.0715e-17
8.80947e-18
7.03135e-18
4.77744e-18
8.29167e-18
2.85059e-17
3.6343e-17
4.47274e-17
1.09825e-17
2.87551e-17
2.8462e-17
1.16251e-17
8.81411e-18
1.54726e-17
1.18273e-17
7.785e-18
5.1987e-18
2.58822e-17
2.64002e-17
1.90104e-17
2.56146e-17
2.68952e-17
1.29194e-17
2.34718e-17
1.72929e-17
6.67083e-18
1.29141e-17
1.57461e-17
1.55563e-17
1.28178e-17
4.0998e-18
2.14866e-17
1.7644e-17
8.37709e-18
1.01356e-17
1.10542e-17
1.42427e-17
7.2335e-18
8.91464e-18
4.17369e-17
2.05551e-17
1.35458e-17
2.19764e-17
1.5413e-17
1.5719e-17
1.28776e-17
4.50165e-18
3.52948e-17
2.65239e-17
1.87325e-17
1.97252e-17
4.89368e-18
1.70402e-17
1.63429e-17
8.06697e-18
1.59985e-17
1.9324e-17
3.39e-17
1.42968e-17
2.81849e-18
1.81258e-17
1.56755e-17
1.79294e-17
1.32507e-17
1.1951e-17
2.11767e-17
1.60795e-17
1.73269e-17
2.60794e-17
5.78771e-18
1.71115e-17
1.86983e-17
7.14989e-18
1.0705e-17
1.69039e-17
1.18656e-17
2.20128e-17
1.15057e-17
1.05401e-17
9.5745e-18
1.99527e-17
1.90922e-17
1.37425e-17
1.30438e-17
2.0506e-17
4.47196e-18
9.24173e-18
2.82877e-17
3.92319e-18
1.72902e-17
7.47353e-18
1.00242e-17
3.38649e-18
1.36555e-17
1.903e-17
1.00755e-17
6.42779e-18
1.21879e-17
4.74506e-18
2.13619e-17
5.17547e-19
1.85085e-17
1.38092e-17
1.3918e-17
1.17997e-17
6.45712e-18
5.44645e-18
6.6236e-18
4.13054e-18
1.90605e-17
2.46633e-17
2.40186e-17
1.3702e-17
5.50094e-18
1.8423e-17
6.10442e-18
7.96685e-18
8.10509e-18
1.00564e-17
7.33852e-18
2.19185e-17
1.17447e-17
1.65055e-18
1.8497e-17
9.35756e-18
1.62482e-17
2.16169e-17
2.51123e-17
2.01918e-17
1.95e-17
1.05225e-17
1.59967e-17
5.2632e-18
1.94206e-17
7.74207e-18
6.32473e-18
9.80286e-18
1.79829e-17
2.19065e-17
2.55812e-17
1.60013e-17
9.35849e-18
2.60557e-18
1.12545e-17
1.3657e-17
9.29164e-18
7.7863e-18
1.30945e-17
2.16472e-17
9.45172e-18
1.35606e-17
2.16251e-17
2.16172e-17
1.06284e-17
2.2967e-17
1.9847e-17
1.48114e-17
1.20105e-17
1.0314e-17
1.41791e-17
1.27658e-17
6.95638e-18
9.57866e-18
2.61551e-18
1.30159e-17
1.56999e-17
1.82154e-17
1.79964e-17
2.24454e-17
1.44981e-17
1.48807e-17
7.99351e-18
1.52285e-17
5.90366e-18
1.19754e-17
1.12991e-17
1.40447e-17
8.75006e-18
1.13824e-17
6.98373e-18
3.41665e-18
9.425e-18
4.96874e-18
2.31562e-17
7.25439e-18
2.25333e-17
8.7328e-18
1.35451e-17
1.24763e-17
3.98583e-18
1.65641e-17
1.83497e-17
2.18563e-17
9.59967e-18
3.62818e-18
1.02416e-17
3.02854e-18
8.12251e-18
1.95445e-17
1.2568e-17
7.1236e-18
4.90265e-18
9.82641e-18
3.71444e-18
1.55319e-17
1.01056e-17
9.164e-18
1.51872e-17
1.63692e-18
1.45839e-17
2.31165e-18
1.079e-17
9.14606e-18
7.04726e-18
1.58359e-17
9.0109e-18
1.09246e-17
1.57164e-17
8.11049e-18
6.23335e-18
4.77433e-18
7.07833e-18
1.6117e-17
7.66373e-18
9.96846e-18
7.59588e-18
4.86e-18
1.34525e-17
8.83155e-18
4.58143e-18
1.0743e-17
1.82677e-17
1.91511e-17
1.06884e-17
2.99183e-18
7.54343e-18
6.18354e-18
7.38437e-18
4.60398e-18
3.43874e-18
3.01986e-18
7.07745e-18
4.27253e-18
3.31486e-18
7.89224e-18
3.62787e-18
6.20259e-18
5.18029e-18
9.49907e-18
1.76221e-17
7.152e-18
1.06121e-17
1.08689e-17
8.04232e-18
8.03359e-18
2.07207e-18
7.26863e-18
7.30215e-18
4.15702e-18
7.23412e-18
1.68358e-18
1.30858e-17
4.43035e-18
8.70308e-18
3.41305e-18
7.72415e-18
9.72516e-18
1.89783e-17
3.2503e-18
1.3951e-17
3.76702e-18
1.16018e-17
3.70346e-18
1.17376e-17
1.91336e-17
1.99575e-17
1.97198e-17
1.57821e-17
1.22023e-17
3.38812e-18
7.53142e-18
2.45111e-18
4.04589e-18
3.34045e-18
5.48899e-18
4.5042e-18
1.10346e-17
1.19469e-17
1.14731e-17
5.63621e-18
5.19519e-18
1.05149e-17
2.45946e-18
5.78235e-18
9.42987e-18
1.98328e-17
2.70538e-17
1.67609e-17
1.19336e-18
8.00485e-18
1.07171e-17
3.67539e-18
1.50107e-17
4.45962e-18
1.36487e-17
1.4076e-17
1.95972e-17
1.68982e-17
2.96081e-18
1.95247e-18
1.16472e-17
5.43916e-18
1.54637e-17
2.23491e-18
1.14753e-17
2.38349e-18
7.49889e-18
1.22161e-17
9.66983e-18
3.83774e-18
5.37852e-18
2.27124e-18
3.3769e-18
6.08646e-18
5.91295e-18
7.91555e-18
6.5101e-18
7.59732e-18
1.42112e-18
2.29668e-18
1.48047e-17
1.24595e-17
2.74102e-18
3.88562e-18
1.0538e-17
3.55183e-18
8.01494e-18
8.04195e-18
1.20153e-17
9.70954e-18
7.30376e-18
2.4954e-18
5.63532e-18
7.70081e-18
1.62015e-18
3.91164e-18
9.32127e-18
4.94269e-18
2.99679e-18
8.06161e-18
1.60464e-17
2.1824e-17
1.22838e-17
6.76225e-18
8.63896e-18
4.19479e-18
4.32933e-18
5.3068e-18
1.78862e-17
1.13956e-17
4.90945e-18
4.15054e-18
6.79571e-18
2.37603e-18
6.04152e-18
5.87542e-18
2.97839e-18
4.8852e-18
1.21764e-17
2.18705e-17
8.21384e-18
4.90699e-18
8.30578e-18
1.37616e-17
1.20282e-17
5.1032e-18
1.4578e-18
5.18769e-18
1.35298e-17
7.54692e-18
1.3577e-18
1.63771e-17
7.3811e-18
3.23416e-18
1.17455e-17
1.42804e-18
8.7763e-18
2.90726e-18
8.7761e-18
9.2271e-18
5.81879e-18
4.63959e-18
6.56065e-18
5.25322e-18
9.89851e-18
4.43754e-18
1.85474e-18
1.0315e-17
4.81458e-18
4.843e-18
9.75788e-18
8.11131e-18
1.77134e-17
3.69644e-18
3.2324e-18
3.76727e-18
3.91566e-18
1.14892e-18
5.16715e-18
5.40046e-18
5.92543e-18
2.56517e-18
1.00609e-17
7.08802e-18
4.6694e-18
8.74001e-18
5.81507e-18
6.6238e-18
5.069e-18
1.21498e-18
4.45752e-18
4.5738e-18
6.89485e-18
4.55039e-18
5.46081e-18
7.427e-18
1.96598e-18
5.17993e-18
3.84448e-18
6.85352e-18
5.11735e-18
4.28394e-18
1.50622e-18
4.30576e-18
4.39594e-18
9.65826e-18
1.28758e-18
3.35224e-18
5.32993e-18
3.93229e-18
7.66391e-18
7.85879e-18
1.39479e-17
1.92177e-17
4.06306e-18
3.25438e-18
2.59586e-18
6.84097e-18
2.6411e-18
6.4806e-18
5.89388e-18
4.95539e-18
2.97139e-18
7.61731e-18
4.6681e-18
1.98534e-18
2.2022e-18
3.28952e-18
3.44348e-18
1.53357e-18
1.05388e-18
2.79443e-18
3.16741e-18
5.77496e-18
7.27925e-18
5.61137e-18
5.50988e-18
6.16948e-18
4.18521e-18
3.12168e-18
1.32063e-18
9.24734e-18
2.16363e-18
2.56884e-18
1.18729e-17
9.9186e-18
1.20685e-18
1.95371e-17
3.13766e-17
1.14612e-17
8.5792e-18
3.12834e-18
1.80968e-17
6.08218e-18
2.18988e-17
1.58358e-18
4.02582e-18
2.47208e-18
2.65786e-18
3.40401e-18
3.38488e-18
1.56709e-18
4.03407e-18
2.08503e-18
4.70643e-18
7.02643e-18
2.5935e-18
4.38428e-18
4.48289e-19
5.63527e-18
3.03897e-18
1.69867e-18
5.75621e-18
4.14473e-18
2.54753e-18
5.36021e-18
1.36922e-17
4.87745e-18
9.33336e-18
1.16648e-17
3.69917e-18
1.9932e-18
1.23805e-17
1.03773e-17
8.62183e-18
3.80071e-18
1.15948e-17
1.28949e-17
1.25249e-17
3.51929e-18
2.24412e-17
2.14081e-17
7.70797e-18
9.3315e-18
1.12307e-18
4.1224e-18
8.11986e-19
3.44261e-18
2.28573e-18
2.83407e-18
5.84658e-18
5.40666e-18
2.30009e-18
4.45648e-18
3.79147e-18
4.99474e-18
2.45766e-18
5.18195e-18
1.86469e-18
3.27483e-18
1.91436e-18
3.63393e-18
2.12075e-18
1.81546e-18
4.58989e-18
5.75212e-18
4.74139e-18
4.21581e-18
3.29826e-18
9.0439e-18
8.62448e-18
6.54088e-18
7.73214e-18
8.02987e-18
3.81947e-18
8.83196e-18
1.4932e-18
6.92883e-18
4.61933e-18
1.9273e-18
4.68124e-18
9.01462e-18
1.0626e-17
3.33343e-18
7.92806e-18
6.26416e-18
1.96141e-18
4.32977e-18
3.13821e-18
2.72419e-18
4.27406e-18
4.08953e-18
6.94774e-18
7.48291e-19
8.24539e-19
1.3535e-18
3.67367e-18
5.39021e-19
2.65374e-18
1.04566e-17
7.92058e-18
5.55597e-18
5.76835e-18
6.00421e-18
5.51898e-18
4.92697e-18
2.15891e-18
5.49372e-18
1.18209e-17
9.26036e-18
9.38166e-19
6.33522e-18
4.71537e-18
4.82327e-18
2.61836e-18
1.70326e-18
1.11709e-17
2.58036e-18
3.00387e-18
1.10804e-18
4.50046e-18
1.60989e-17
4.85722e-18
6.70136e-18
5.73908e-18
2.87308e-18
3.38798e-18
3.4926e-18
1.87103e-18
4.75538e-19
4.25209e-18
2.92849e-18
4.98037e-18
1.54764e-18
1.30832e-18
2.73511e-18
3.16582e-18
4.20547e-18
2.1648e-18
7.02907e-18
3.021e-18
5.05185e-18
1.88702e-18
1.64417e-18
3.72286e-18
3.63208e-18
2.56684e-18
2.62235e-18
4.3632e-18
3.89884e-18
7.07033e-18
3.55569e-18
1.06613e-18
8.94437e-18
5.59657e-18
3.05639e-18
5.91492e-18
8.82767e-18
3.49597e-18
3.19978e-18
1.7364e-18
1.23238e-18
1.74607e-18
2.03432e-18
9.02021e-18
2.11571e-18
1.76215e-18
1.29378e-18
2.49254e-18
6.39833e-19
1.78024e-18
1.85064e-18
1.8821e-18
3.29589e-18
1.87681e-18
2.246e-18
1.77209e-18
7.03677e-18
7.63712e-18
8.85452e-19
1.21769e-18
4.66079e-18
5.21594e-18
2.95767e-18
1.49149e-18
4.40988e-18
4.05781e-18
8.60801e-19
6.04473e-18
2.51569e-18
1.62253e-18
3.64134e-18
3.51983e-18
5.72488e-18
4.07554e-18
3.49311e-18
2.09289e-18
4.56966e-18
8.56594e-18
1.91341e-18
6.41814e-18
3.09724e-18
7.61039e-18
4.36943e-18
1.11633e-18
5.26601e-18
5.01102e-18
7.25065e-18
3.74342e-18
1.2822e-18
1.99065e-18
2.69409e-18
3.25473e-18
2.1456e-18
3.64002e-18
7.43709e-19
1.74776e-18
1.91907e-18
2.10576e-18
2.35928e-18
4.28478e-18
3.69283e-18
5.07844e-18
2.30585e-18
4.09317e-18
1.85377e-18
6.30216e-18
4.27045e-18
1.19325e-18
4.43802e-18
6.22024e-18
4.09763e-18
3.74173e-18
1.0171e-18
4.07026e-18
5.53153e-18
4.25988e-19
7.06486e-19
1.70837e-18
5.26736e-18
2.05108e-18
4.29783e-18
9.45018e-18
1.92342e-18
4.5427e-18
1.06603e-17
1.42956e-17
6.30636e-19
5.22308e-18
6.25287e-18
2.41753e-18
1.90001e-18
1.26907e-18
9.62002e-19
1.78233e-18
1.577e-18
1.16473e-18
3.37819e-18
2.91017e-18
2.23681e-18
2.29482e-18
2.49428e-18
4.32026e-18
2.15309e-18
2.58727e-18
1.74416e-18
3.81514e-18
4.58375e-18
9.1241e-19
3.32521e-18
1.09274e-18
1.36276e-18
3.22437e-18
4.13985e-18
3.51636e-18
5.35226e-18
4.50515e-18
2.65108e-18
2.03445e-18
1.64745e-18
7.21105e-19
7.18022e-18
3.28673e-18
3.86646e-18
4.49782e-18
1.26473e-18
3.64063e-18
4.8447e-18
2.2172e-18
5.07308e-18
4.45359e-18
3.19806e-18
8.3584e-19
1.16848e-18
2.11846e-18
1.15095e-18
3.00839e-18
1.69587e-18
1.9329e-18
1.1031e-18
2.02117e-19
5.14019e-19
1.16238e-18
2.33173e-18
3.44352e-18
1.76278e-18
1.77792e-18
8.03871e-19
4.96513e-19
3.69314e-18
3.61287e-19
5.95289e-19
2.51251e-18
3.25555e-18
2.9355e-18
1.48117e-18
2.7624e-18
1.74161e-18
1.67111e-18
1.29366e-19
1.58287e-18
2.42911e-18
1.62731e-18
3.54811e-18
5.84773e-18
3.06952e-18
6.84193e-18
3.73616e-18
3.86745e-18
6.12335e-18
8.58715e-18
2.40412e-18
1.57693e-18
2.24988e-18
1.19911e-18
5.80466e-19
2.18187e-19
2.03688e-18
6.49097e-19
1.68244e-18
1.9525e-18
1.78968e-18
1.2297e-18
9.20463e-19
2.58299e-18
3.54954e-18
3.58709e-18
1.79904e-18
1.96641e-18
3.37241e-18
5.95123e-19
1.38668e-18
3.57348e-18
2.43767e-18
3.27512e-18
1.47457e-18
2.90226e-18
8.25536e-19
8.19003e-19
2.96298e-18
6.35215e-18
7.26196e-19
5.97503e-18
1.5962e-18
1.09488e-18
3.37812e-18
1.30851e-17
2.47449e-18
1.92089e-18
2.5456e-18
8.45227e-19
6.15666e-18
4.30871e-18
6.38505e-18
2.23117e-18
3.43841e-18
9.95234e-19
6.0348e-19
2.30828e-18
1.45671e-18
2.37257e-18
1.36501e-18
2.98676e-18
8.86593e-19
2.26224e-18
3.10322e-18
8.26492e-19
2.50599e-18
2.26903e-18
1.94336e-18
2.05069e-18
2.495e-18
2.59084e-18
1.47599e-18
4.20767e-18
2.18645e-18
1.82108e-18
1.36043e-18
4.10421e-18
2.22236e-18
8.82396e-19
5.4544e-18
2.80256e-18
4.1852e-18
3.09218e-18
5.85563e-18
8.70769e-18
6.18891e-18
5.39721e-18
5.25242e-18
3.08388e-18
4.38597e-18
1.8362e-18
5.89641e-19
7.06832e-18
5.58785e-19
1.7267e-19
1.6088e-18
1.45537e-18
1.38322e-18
1.77701e-18
3.30451e-18
2.09703e-18
2.68448e-18
2.69199e-18
2.35314e-18
1.22751e-18
4.04936e-18
2.79456e-18
3.02501e-18
2.94586e-18
1.04147e-18
3.65599e-18
2.77601e-18
1.23574e-18
1.27438e-18
4.08208e-18
4.10155e-18
1.81943e-18
6.79616e-18
3.41629e-18
2.34298e-18
1.16592e-18
6.85843e-18
9.17649e-18
5.3812e-18
6.08967e-18
2.73387e-18
3.27478e-18
3.71609e-18
3.03445e-18
8.63736e-18
2.85391e-18
3.30414e-18
3.81062e-18
4.09077e-18
1.31141e-18
8.77262e-19
2.20995e-18
2.46436e-18
1.10083e-18
1.48083e-18
5.14375e-19
1.93712e-18
2.54605e-18
1.06149e-18
1.97643e-18
1.20236e-18
1.78064e-18
1.36465e-18
3.0136e-18
6.95791e-19
3.46499e-18
7.64061e-19
2.31521e-18
2.55551e-18
6.31344e-18
2.45242e-18
1.30306e-18
5.42247e-18
2.88592e-18
2.97314e-18
3.973e-18
1.23634e-18
3.28447e-18
1.15462e-18
6.60216e-19
5.34985e-18
3.77918e-18
3.89581e-18
3.6253e-18
1.13069e-18
3.75657e-18
3.22679e-18
8.43927e-18
8.46555e-18
1.3496e-17
2.11968e-18
2.76354e-19
1.50974e-18
2.50181e-18
8.67952e-19
1.77906e-18
2.00733e-18
1.78965e-18
1.1941e-18
1.36931e-18
1.46964e-18
8.49946e-19
5.62377e-19
9.28263e-19
2.68888e-18
1.89071e-18
1.90397e-18
3.32891e-18
1.10586e-18
3.74886e-19
3.45139e-18
4.27238e-18
2.62365e-18
8.36863e-19
1.01733e-18
1.37423e-18
4.87357e-18
1.68735e-18
3.38725e-18
4.52908e-18
3.17973e-18
2.24987e-18
1.2716e-17
3.98388e-18
1.72994e-18
1.86951e-18
4.37539e-18
4.07562e-18
4.68943e-18
5.48829e-18
7.0271e-18
1.32036e-19
1.17861e-18
1.37185e-18
2.42735e-18
1.13575e-18
8.43867e-19
1.40269e-18
7.69805e-19
4.61856e-19
1.11621e-18
2.06551e-18
1.81361e-18
1.01227e-18
1.37102e-18
1.46231e-18
1.58483e-18
1.23548e-18
3.11091e-18
3.87943e-18
6.50587e-19
4.0454e-18
2.45348e-18
1.72506e-18
2.48413e-18
3.8405e-19
2.67806e-18
1.333e-18
8.60212e-19
1.37487e-18
5.13728e-19
2.01761e-18
1.87897e-18
3.97571e-18
2.71841e-18
2.43874e-18
6.58151e-18
1.67913e-18
5.7934e-18
4.76013e-18
6.13652e-18
1.00976e-17
1.04112e-18
9.08153e-19
9.32954e-19
5.94851e-19
7.36566e-19
1.03198e-18
1.01417e-18
8.06285e-19
2.00425e-18
9.15379e-19
1.35013e-18
1.69048e-18
6.69133e-19
1.20839e-18
6.10955e-19
2.90174e-18
7.59577e-19
2.38284e-18
4.67583e-18
1.17989e-18
1.57291e-18
1.11597e-18
2.8679e-18
6.60082e-19
3.31784e-18
2.27749e-18
1.37679e-18
1.96713e-18
1.55612e-18
5.14617e-18
1.40516e-18
1.95325e-18
3.13531e-18
7.24847e-19
2.64109e-18
7.38482e-18
3.04784e-18
2.84497e-18
4.27714e-18
2.76469e-18
2.55135e-18
3.90469e-19
1.00349e-18
7.59861e-19
9.75686e-19
1.34456e-18
8.84637e-19
2.84206e-19
1.11317e-18
1.77175e-18
1.92213e-18
1.29922e-18
7.80896e-19
1.03383e-18
9.81125e-19
1.99679e-18
1.17302e-18
1.8771e-18
1.14552e-18
1.86819e-18
2.21463e-18
2.25592e-18
1.37622e-18
1.80157e-18
8.18212e-19
6.43969e-19
1.98439e-18
8.94788e-19
7.174e-19
1.83739e-18
1.72132e-18
1.43153e-18
3.00391e-18
4.7618e-18
7.41004e-19
1.17857e-18
1.94963e-18
3.28498e-18
8.4188e-18
6.21272e-18
2.47706e-18
9.64813e-19
4.89723e-19
2.39919e-19
1.52807e-18
9.17333e-19
2.45324e-19
6.32296e-19
3.17832e-19
1.06466e-18
3.67462e-19
9.12055e-19
8.17566e-19
6.30606e-19
6.47558e-19
4.56709e-19
2.283e-19
1.19353e-18
1.11279e-18
2.28439e-18
2.94614e-18
2.20745e-18
9.72969e-19
2.0175e-18
9.35262e-19
1.82592e-18
2.78702e-18
6.84739e-18
9.04951e-18
1.78517e-18
7.88975e-18
9.38422e-19
3.46626e-18
5.64756e-19
2.47933e-18
4.32508e-18
1.9655e-18
3.9468e-18
5.68476e-18
2.2022e-18
2.22869e-18
8.57898e-18
6.01508e-18
5.31195e-19
7.62317e-19
1.98851e-18
7.59337e-19
1.05342e-18
1.25288e-18
2.15328e-19
3.18144e-19
1.57353e-18
5.31647e-19
1.79354e-18
1.30926e-18
8.20071e-19
1.65417e-18
5.45599e-19
9.21149e-19
8.23454e-19
6.28808e-19
1.32637e-18
7.53763e-19
1.32013e-18
2.77522e-18
8.08915e-19
8.34993e-19
2.93719e-18
3.10703e-18
3.09978e-18
8.81383e-19
3.33334e-18
8.89623e-18
5.63484e-18
4.5824e-18
1.83486e-18
3.68674e-18
6.46622e-18
7.03482e-18
4.75892e-18
4.16943e-18
1.71461e-18
4.88546e-18
5.59885e-18
9.10825e-19
6.25206e-19
1.58229e-18
1.25837e-18
6.26053e-19
7.27699e-19
6.50307e-19
5.80986e-19
1.46795e-18
9.49601e-19
7.79905e-19
6.97572e-19
5.33025e-19
3.86423e-19
8.22028e-19
2.71909e-18
1.86128e-18
4.42345e-19
1.67344e-18
1.66802e-19
3.75077e-19
1.00775e-18
1.92871e-18
3.15141e-18
1.88976e-19
2.81225e-18
1.60781e-18
1.95645e-18
4.15865e-19
4.94891e-18
5.77106e-18
5.77792e-18
3.05943e-18
7.73426e-19
3.28984e-18
2.88323e-18
1.45065e-18
2.77771e-18
1.64603e-18
3.3523e-18
5.18374e-18
6.46439e-19
7.04661e-19
8.49086e-19
8.09575e-19
6.31245e-19
4.21119e-19
8.33323e-19
1.53808e-18
8.64697e-19
2.22575e-19
9.96399e-19
1.04148e-18
1.03556e-18
1.46684e-18
1.12446e-18
1.7536e-18
1.27283e-18
1.36468e-19
7.35852e-19
2.10849e-18
3.27632e-19
1.16711e-18
6.21022e-19
1.67856e-18
1.34649e-18
2.69038e-18
3.2474e-18
5.43867e-18
4.0714e-18
7.29589e-19
2.28061e-18
3.65085e-19
4.97475e-18
1.85856e-18
2.99052e-18
7.49583e-18
2.10077e-18
8.61397e-19
2.90865e-18
2.18801e-18
1.62822e-18
5.76747e-19
5.92413e-19
1.35653e-18
7.92515e-19
7.6918e-19
4.42465e-19
6.80363e-19
7.59375e-19
1.08085e-18
6.09721e-19
6.75583e-19
6.08877e-19
1.09646e-18
5.92284e-19
1.28644e-18
3.03394e-19
9.25821e-19
8.69749e-19
3.68313e-19
1.98747e-18
1.69314e-18
2.95269e-18
3.18578e-18
3.05549e-18
8.6743e-19
6.1155e-19
1.01709e-18
3.35416e-18
2.01589e-19
2.81711e-18
1.99793e-18
5.19788e-19
8.99436e-18
1.75188e-18
1.0373e-18
4.12821e-18
1.36075e-18
5.14722e-18
6.28574e-19
6.20244e-18
5.67258e-19
3.59859e-19
5.06987e-19
7.72549e-19
6.21443e-19
4.97061e-19
1.72285e-19
1.55935e-19
8.23097e-19
5.69129e-19
2.92656e-19
1.2381e-18
5.7941e-19
1.54609e-18
5.28541e-19
3.80619e-19
1.33229e-18
9.48647e-19
1.26662e-18
1.77452e-18
2.72637e-19
2.45165e-18
3.94434e-19
6.93388e-19
1.40444e-18
2.21301e-18
5.07533e-19
2.88116e-18
1.24208e-18
1.00254e-18
3.02228e-18
3.9114e-18
7.54525e-19
4.04598e-18
1.34342e-18
1.57324e-18
1.63623e-18
4.19846e-18
1.55102e-18
5.18814e-18
1.68797e-18
3.16902e-19
6.47452e-19
1.03228e-18
4.92247e-19
1.01568e-18
5.28756e-19
2.73518e-19
7.45941e-19
5.9248e-19
3.92154e-19
4.23576e-19
4.09228e-19
9.5794e-19
4.97033e-19
6.68572e-19
2.75088e-19
3.16722e-19
1.59002e-18
1.25341e-18
6.93062e-19
1.98024e-18
2.56709e-18
9.00743e-19
1.96479e-18
6.24658e-19
1.27696e-18
1.10191e-18
1.37882e-18
4.11517e-18
3.32987e-18
9.73954e-19
3.89392e-18
2.41088e-18
6.87757e-19
1.72068e-18
3.87255e-18
7.4165e-19
2.54982e-18
1.9175e-18
1.36182e-18
2.43243e-18
5.55337e-18
3.43076e-19
1.98636e-19
4.88057e-19
4.21097e-19
9.44838e-19
3.16745e-19
8.29601e-19
9.02719e-19
6.56201e-19
5.36735e-19
1.00998e-18
3.05859e-19
3.77947e-19
4.16669e-19
3.2496e-19
1.05194e-18
1.48666e-18
2.05813e-18
7.35733e-19
1.34823e-18
7.54063e-19
2.68978e-19
1.18383e-18
1.40605e-18
7.55758e-19
2.04806e-19
3.38334e-19
2.48761e-18
4.97541e-19
4.04691e-19
2.56765e-18
2.12462e-18
5.93137e-19
4.66609e-18
4.47449e-18
4.54842e-18
8.34364e-19
3.07107e-19
3.30212e-18
2.69499e-18
4.4934e-18
2.5989e-19
3.68938e-19
7.88784e-19
2.66875e-19
6.10628e-19
2.8832e-19
8.47989e-19
3.50744e-19
1.76796e-19
1.54021e-19
8.4005e-19
1.36202e-19
5.00686e-19
8.85728e-19
3.61915e-19
6.02776e-19
1.2675e-18
3.04519e-19
8.53178e-19
5.40155e-19
5.47459e-19
1.59945e-18
4.62922e-19
6.17499e-19
1.43626e-18
3.11691e-18
1.15945e-18
2.44276e-18
1.91137e-18
9.82061e-19
2.19509e-18
1.27231e-18
3.71179e-18
2.10795e-19
1.37822e-18
3.84244e-18
4.25252e-18
6.26526e-18
1.54574e-18
1.22994e-18
5.68099e-18
3.34115e-19
5.01518e-19
4.52812e-19
3.07449e-19
3.43237e-19
4.61861e-19
2.82767e-19
2.53538e-19
3.1844e-19
5.2946e-19
2.6799e-19
4.11485e-19
5.08048e-19
3.72962e-19
8.1832e-19
8.79458e-20
5.13086e-19
1.18099e-18
9.87587e-19
2.54686e-18
1.27616e-18
5.24789e-19
3.87793e-19
2.40915e-18
1.61071e-18
1.44495e-19
7.75737e-19
3.87081e-19
1.76778e-18
1.96466e-18
3.05073e-18
4.01622e-18
3.47105e-18
2.08463e-18
7.79772e-18
3.76841e-18
3.73269e-18
6.08331e-18
4.63463e-18
1.54401e-18
7.41973e-19
3.82085e-19
1.32167e-19
4.97725e-19
5.109e-19
5.29866e-19
2.9582e-19
4.51738e-19
1.76294e-19
4.66305e-19
6.15776e-19
3.48321e-19
4.19834e-19
5.79317e-19
1.43909e-19
2.27442e-19
1.02882e-18
1.22574e-18
1.76956e-19
1.88604e-18
5.51419e-19
6.61072e-19
2.46597e-18
1.89782e-18
1.72146e-18
1.0077e-18
2.35853e-18
1.64632e-18
4.39398e-19
2.67962e-18
1.74043e-18
2.52399e-18
3.4582e-18
1.49131e-18
1.7492e-18
2.06762e-18
8.67136e-19
7.83571e-19
6.13893e-19
5.20189e-18
5.29047e-18
1.42919e-17
4.69636e-19
1.84573e-19
5.04533e-19
2.14612e-19
5.27534e-19
5.54958e-19
6.29998e-19
4.73888e-19
7.26336e-19
5.41317e-19
3.32767e-19
3.6757e-19
6.94517e-19
1.14877e-18
6.12102e-19
2.86002e-19
3.01952e-19
1.36107e-18
5.63569e-19
3.26966e-19
1.83836e-18
4.47872e-19
4.34421e-19
1.04771e-18
1.12047e-19
7.47567e-19
3.04584e-18
8.97574e-19
5.54363e-18
2.72899e-18
3.52848e-18
9.17587e-19
3.47055e-18
2.15997e-18
2.04757e-18
1.12851e-18
2.44012e-18
1.14172e-17
6.2573e-18
6.12095e-18
3.56372e-18
7.93618e-18
1.39734e-17
1.7034e-17
1.56095e-17
4.348e-17
4.32343e-17
4.57674e-18
3.19713e-17
4.4222e-18
2.78529e-17
1.08169e-17
3.16148e-17
2.65792e-17
1.89189e-17
2.50219e-17
2.72754e-18
4.49234e-18
5.4784e-17
2.23473e-17
1.51568e-17
3.16654e-17
5.98298e-18
7.97046e-18
1.96385e-17
2.21327e-17
6.05885e-18
1.73063e-17
4.59906e-17
1.17713e-17
5.49936e-18
7.31418e-18
4.51727e-18
3.70214e-17
2.09405e-17
4.58703e-18
3.76816e-18
1.73411e-18
1.66671e-18
1.5165e-17
1.07454e-17
1.31162e-18
1.00567e-17
2.64102e-17
4.85791e-18
1.51376e-18
2.83559e-18
1.87156e-17
1.07923e-17
6.71927e-18
1.00101e-17
2.16311e-18
2.28983e-18
1.24256e-18
6.40265e-18
2.40043e-18
1.43026e-18
3.36185e-18
9.30386e-19
1.26766e-17
2.33276e-18
4.55017e-18
1.85504e-17
3.72673e-18
3.46219e-18
1.48812e-18
7.0099e-18
1.93556e-18
6.09788e-18
1.3312e-18
3.20307e-18
6.24926e-19
3.15951e-18
3.77843e-19
2.19143e-18
1.22726e-17
9.10366e-18
1.70219e-17
9.96083e-18
3.44941e-17
3.56489e-17
2.1494e-18
2.74915e-17
1.59592e-17
2.21647e-17
6.43909e-18
2.76731e-17
2.295e-17
1.63433e-17
2.09869e-17
3.74876e-18
6.53307e-18
9.36738e-18
2.07653e-17
1.3442e-17
2.86809e-17
8.07811e-18
8.68582e-18
1.76966e-17
1.8601e-17
8.8761e-18
1.58425e-17
1.37296e-17
1.17838e-17
5.10994e-18
6.31381e-18
4.07361e-18
6.19155e-18
1.90546e-17
4.17342e-18
3.78491e-18
9.72884e-19
2.42444e-18
1.37747e-17
9.67559e-18
4.84605e-18
8.89952e-18
8.17542e-18
4.55302e-18
2.21199e-18
2.42947e-18
5.86183e-18
9.9529e-18
6.15921e-18
9.37249e-18
3.52991e-18
1.75918e-18
1.15191e-18
6.05519e-18
2.29149e-18
9.156e-19
3.24329e-18
1.22378e-18
4.11261e-18
2.10615e-18
4.27725e-18
5.83409e-18
3.50995e-18
3.36789e-18
1.42337e-18
1.96071e-18
1.72931e-18
1.60766e-18
1.27828e-18
3.0816e-18
8.47125e-19
3.02018e-18
2.35425e-19
2.17784e-18
2.11811e-18
5.54099e-18
1.0438e-17
1.08772e-17
2.99163e-17
3.00475e-17
2.26953e-17
2.49763e-17
4.03954e-18
1.9767e-17
7.23494e-18
2.2095e-17
1.96544e-17
1.69105e-17
1.78728e-17
1.12325e-17
5.87311e-18
7.45262e-18
1.78308e-17
1.06875e-17
2.44871e-17
8.28627e-18
7.41047e-18
1.47926e-17
1.67372e-17
5.80715e-18
1.3549e-17
1.2301e-17
9.60626e-18
4.86392e-18
5.5715e-18
4.06448e-18
4.86512e-18
1.69351e-17
3.20665e-18
3.02149e-18
9.24671e-19
1.12655e-18
1.23144e-17
8.78651e-18
1.40465e-18
8.24492e-18
7.45532e-18
4.3945e-18
1.41025e-18
2.72508e-18
5.50839e-18
9.04123e-18
5.67446e-18
8.5877e-18
2.06663e-18
1.73698e-18
1.05788e-18
5.63623e-18
2.01173e-18
8.15314e-19
2.95154e-18
1.0117e-18
3.83111e-18
1.76938e-18
3.85496e-18
5.05765e-18
3.22e-18
3.02589e-18
1.32682e-18
1.78393e-18
1.66934e-18
1.52717e-18
1.20727e-18
2.92527e-18
5.09503e-19
2.91045e-18
5.42755e-19
1.98811e-18
2.92802e-17
7.11767e-18
1.39231e-17
6.92651e-18
2.49001e-17
2.48579e-17
1.4015e-18
2.14386e-17
2.95853e-18
1.70754e-17
6.98064e-18
2.16005e-17
1.64259e-17
1.14885e-17
1.56437e-17
1.72337e-18
3.44803e-18
8.21195e-18
1.38793e-17
9.89203e-18
2.08774e-17
4.17319e-18
5.31394e-18
1.35374e-17
1.44362e-17
5.25039e-18
1.17659e-17
1.19168e-17
8.36684e-18
4.4041e-18
6.10234e-18
4.69525e-18
4.31375e-18
1.50305e-17
3.58502e-18
3.13223e-18
1.30565e-18
2.94555e-18
1.08824e-17
7.8737e-18
2.70409e-18
7.54374e-18
6.60852e-18
3.96952e-18
1.39713e-18
2.17939e-18
5.06684e-18
8.31834e-18
5.16154e-18
7.75943e-18
1.64686e-18
1.97875e-18
1.07869e-18
5.14974e-18
2.07536e-18
8.38523e-19
2.84176e-18
9.18003e-19
3.49937e-18
1.77813e-18
3.59287e-18
4.84482e-18
3.01702e-18
2.8013e-18
1.19761e-18
1.64198e-18
1.51095e-18
1.44221e-18
1.09504e-18
2.66417e-18
4.68724e-19
2.65694e-18
2.38647e-19
2.04658e-18
8.62662e-18
1.01964e-17
6.22865e-18
1.03913e-17
2.00961e-17
2.01417e-17
6.11513e-18
1.81019e-17
9.12045e-18
1.93702e-17
4.28841e-18
1.65086e-17
1.51667e-17
9.7418e-18
1.57634e-17
3.70959e-18
2.4243e-18
7.23509e-18
1.18339e-17
8.28301e-18
1.80243e-17
2.2964e-18
5.19031e-18
1.14288e-17
1.33633e-17
3.98058e-18
1.04059e-17
1.02798e-17
8.1157e-18
3.31536e-18
4.44343e-18
3.0693e-18
3.57688e-18
1.32532e-17
2.56888e-18
2.53183e-18
1.15089e-18
1.01369e-18
1.01645e-17
7.18649e-18
7.36725e-19
6.655e-18
5.89192e-18
3.95093e-18
1.80066e-18
2.81405e-18
4.41191e-18
7.46966e-18
4.65174e-18
7.07608e-18
1.51097e-18
1.74253e-18
1.35208e-18
4.71565e-18
2.02016e-18
1.36293e-18
2.504e-18
1.11665e-18
3.27144e-18
1.38368e-18
3.30835e-18
4.46736e-18
2.84774e-18
2.60884e-18
1.38247e-18
1.82061e-18
1.38708e-18
1.31661e-18
9.93168e-19
2.46444e-18
4.8308e-19
2.54176e-18
2.88818e-19
1.85149e-18
1.22381e-18
7.737e-18
7.14866e-18
6.73174e-18
1.78223e-17
1.78952e-17
1.64305e-18
1.5336e-17
2.32736e-18
1.18761e-17
4.55214e-18
1.66299e-17
1.08224e-17
9.66038e-18
1.08807e-17
6.41469e-18
2.8862e-18
9.54044e-18
1.14735e-17
1.19426e-17
1.55298e-17
4.7352e-18
3.92443e-18
1.01516e-17
1.04483e-17
2.85547e-18
8.59735e-18
8.74461e-18
6.20857e-18
3.57886e-18
4.11323e-18
2.4166e-18
3.33196e-18
1.17354e-17
4.87306e-18
2.82565e-18
1.24292e-18
1.0888e-18
8.81506e-18
6.43832e-18
2.84593e-18
6.51357e-18
5.70484e-18
3.18698e-18
8.30838e-19
1.65354e-18
4.53199e-18
7.03358e-18
4.32145e-18
6.69402e-18
1.61675e-18
1.39608e-18
1.74387e-18
4.48588e-18
1.64911e-18
8.65522e-19
2.33318e-18
6.60795e-19
3.00564e-18
1.69741e-18
3.2409e-18
4.13922e-18
2.74531e-18
2.53188e-18
1.13975e-18
1.65905e-18
1.41607e-18
1.36689e-18
9.72242e-19
2.41845e-18
4.14071e-19
2.36999e-18
1.4306e-19
1.80106e-18
7.21837e-18
7.23651e-18
5.89134e-18
4.93221e-18
1.51519e-17
1.45942e-17
2.76176e-18
1.4639e-17
5.9828e-18
1.12687e-17
2.68752e-18
1.21834e-17
1.15832e-17
6.79074e-18
8.98954e-18
2.24313e-18
1.85709e-18
4.11839e-18
1.23082e-17
5.48051e-18
1.31713e-17
4.85301e-18
4.46907e-18
9.80901e-18
9.39654e-18
8.34951e-18
8.93751e-18
6.9819e-18
5.30637e-18
2.59124e-18
3.19596e-18
2.43614e-18
2.88997e-18
1.05176e-17
2.27012e-18
1.92935e-18
7.52732e-19
2.63352e-18
8.46583e-18
5.70828e-18
2.14131e-18
5.51245e-18
5.93603e-18
3.27409e-18
1.39792e-18
1.69812e-18
3.72624e-18