/*--------------------------------*- C++ -*----------------------------------*\
| =========                 |                                                 |
| \\      /  F ield         | OpenFOAM: The Open Source CFD Toolbox           |
|  \\    /   O peration     | Version:  2312                                  |
|   \\  /    A nd           | Website:  www.openfoam.com                      |
|    \\/     M anipulation  |                                                 |
\*---------------------------------------------------------------------------*/
FoamFile
{
    version     2.0;
    format      ascii;
    arch        "LSB;label=32;scalar=64";
    class       volScalarField;
    location    "0";
    object      turbulenceProperties:L;
}
// * * * * * * * * * * * * * * * * * * * * * * * * * * * * * * * * * * * * * //

dimensions      [0 1 0 0 0 0 0];

internalField   nonuniform List<scalar> 
11040
(
0.000289043
0.000292566
0.000293447
0.00029517
0.000297593
0.000300171
0.000302554
0.000304582
0.000306223
0.000307506
0.00030847
0.000309168
0.000309662
0.000310005
0.000310253
0.000310455
0.00031065
0.000310878
0.000311163
0.000311536
0.000312006
0.000312701
0.000313689
0.000314806
0.000315961
0.00031716
0.000318391
0.000319651
0.00032093
0.000322226
0.000323532
0.000324842
0.000326154
0.000327459
0.000328752
0.000330034
0.000331303
0.000332545
0.000333763
0.00033495
0.000336114
4.42141e-12
8.40394e-11
3.63662e-11
7.0842e-11
7.60252e-12
7.0616e-11
6.1211e-11
1.65737e-11
2.93962e-11
4.103e-11
7.29512e-11
1.37874e-11
1.19379e-11
1.99952e-10
9.22455e-11
2.14051e-11
4.75991e-11
3.49913e-11
5.92272e-11
4.66333e-11
7.93869e-11
4.77162e-11
1.15067e-11
2.15553e-11
2.49231e-11
1.4249e-11
3.94732e-12
1.03386e-10
2.90334e-11
1.6567e-11
6.71412e-11
8.67593e-11
2.33681e-11
4.76465e-11
9.27635e-11
2.01675e-11
5.59936e-11
3.17113e-11
6.97959e-11
2.88792e-11
7.36528e-11
2.70749e-11
6.80256e-11
4.77359e-11
9.1728e-11
4.03936e-11
1.00003e-11
7.82487e-11
3.95844e-11
2.56571e-11
1.81791e-10
3.45034e-11
6.27622e-12
5.46785e-11
5.05036e-11
1.36151e-11
5.00121e-11
9.62164e-12
1.59806e-11
8.41716e-11
6.54453e-11
1.87509e-10
1.03889e-10
4.38982e-11
1.11506e-11
1.18818e-11
6.91907e-11
4.52389e-11
5.67871e-11
9.66827e-11
1.31259e-11
2.42139e-11
5.91181e-12
2.76583e-11
1.82747e-11
3.16794e-11
3.73238e-11
1.51398e-11
3.14346e-11
7.43073e-11
9.70856e-11
7.01323e-11
5.17643e-11
5.97557e-11
5.4645e-11
1.15068e-11
2.0439e-11
1.32141e-10
1.09254e-10
4.33067e-12
2.63355e-11
6.02569e-11
7.83894e-11
3.89498e-11
4.39445e-12
2.9207e-11
5.65209e-11
2.55268e-12
2.86735e-11
5.38408e-12
3.37989e-11
7.61261e-11
3.66467e-11
7.55767e-11
6.63501e-11
2.17061e-11
3.41291e-11
2.2692e-10
1.11454e-11
6.05318e-11
9.4818e-11
4.3672e-11
1.44616e-11
2.24084e-11
3.99392e-12
5.0954e-11
4.12853e-11
1.59643e-11
6.41626e-11
2.16936e-11
1.47132e-11
8.77283e-12
8.63805e-12
6.17353e-11
5.98282e-11
3.76773e-11
3.10909e-11
3.72283e-11
2.81517e-11
5.00882e-11
9.58383e-12
7.54021e-11
1.41741e-11
7.84183e-12
2.84113e-11
2.18984e-11
6.29567e-12
6.08834e-12
1.6128e-11
2.76501e-11
3.36657e-11
2.43531e-12
1.8788e-11
1.87201e-11
1.07355e-11
1.93159e-11
1.73634e-11
6.25837e-11
9.36066e-11
3.26281e-11
1.27688e-11
1.99553e-11
1.44033e-11
5.25213e-13
7.72089e-12
4.60399e-12
1.77495e-11
3.46598e-12
1.44652e-11
3.27426e-12
3.42559e-11
4.28521e-12
3.16513e-11
5.60354e-12
4.53707e-12
3.94814e-11
3.46457e-11
3.15357e-11
1.28569e-11
4.05536e-11
3.86679e-11
2.43993e-11
2.02919e-11
3.48337e-11
1.08595e-10
7.47234e-11
5.54468e-12
4.11876e-11
1.57581e-12
2.88383e-11
2.31885e-11
2.78897e-12
5.68095e-12
8.17193e-11
7.89434e-12
7.89351e-11
4.49948e-12
1.20851e-11
1.75925e-11
9.03479e-12
2.48327e-11
4.0411e-11
2.02737e-11
1.24588e-11
5.67144e-12
7.85348e-12
1.48156e-11
3.42177e-11
1.7354e-11
1.55911e-11
1.39097e-11
1.45713e-11
1.24913e-11
8.74293e-12
7.30969e-12
3.70316e-12
5.45803e-11
9.02036e-12
1.81663e-11
5.53275e-12
3.6916e-11
1.23977e-11
4.14948e-12
2.8867e-11
1.0461e-11
1.14146e-11
1.66492e-11
7.17412e-12
1.74293e-11
2.16232e-11
4.24436e-11
2.19002e-11
3.18318e-12
2.9443e-12
1.89776e-11
2.19967e-12
6.22513e-12
7.6294e-12
3.63471e-12
7.24128e-11
1.31713e-11
4.15783e-11
7.54758e-12
3.41382e-12
2.90105e-11
1.58831e-11
1.06182e-11
1.0525e-11
3.14166e-11
1.84391e-11
1.56378e-11
7.841e-12
2.40809e-11
1.24092e-11
2.71551e-11
1.89168e-12
2.85518e-12
1.59276e-11
3.41015e-12
1.42674e-11
1.36118e-12
7.00398e-12
1.08569e-11
1.40655e-12
7.95679e-12
5.44372e-12
2.038e-11
7.68918e-12
5.6056e-12
1.47642e-11
1.05512e-11
2.9356e-11
2.67501e-11
3.43298e-12
5.76789e-12
3.94339e-11
2.15489e-11
2.11154e-11
2.08282e-12
1.15682e-11
1.19971e-11
2.12022e-12
2.04891e-12
1.75347e-11
2.11567e-11
1.23389e-11
4.92145e-12
1.96046e-11
1.58391e-11
5.53141e-12
3.92343e-12
5.34253e-12
5.39753e-12
3.27532e-11
3.45104e-12
3.36335e-13
3.24576e-12
2.77486e-12
2.25258e-12
1.53581e-12
8.54377e-12
1.50454e-11
7.02854e-13
2.16186e-11
2.20543e-11
3.43565e-12
2.43203e-12
1.35285e-12
3.09669e-12
1.98571e-11
2.85987e-11
3.88235e-11
4.72288e-12
2.00002e-11
1.96774e-11
5.13708e-12
3.39139e-12
7.90739e-12
5.32538e-12
2.83236e-12
1.54457e-12
1.70868e-11
1.7574e-11
1.07673e-11
1.6854e-11
1.81323e-11
6.03912e-12
1.47551e-11
9.38686e-12
2.2322e-12
6.01366e-12
8.10559e-12
7.99314e-12
5.95199e-12
1.07846e-12
1.29076e-11
9.62173e-12
3.1469e-12
4.19852e-12
4.76158e-12
6.98589e-12
2.54385e-12
3.45514e-12
3.49588e-11
1.20843e-11
6.51688e-12
1.33472e-11
7.83951e-12
8.07705e-12
6.01099e-12
1.25413e-12
2.71659e-11
1.77287e-11
1.05722e-11
1.13534e-11
1.4057e-12
9.13873e-12
8.58771e-12
2.9718e-12
8.31052e-12
1.10693e-11
2.55807e-11
7.01204e-12
6.1883e-13
1.00594e-11
8.07492e-12
9.84767e-12
6.29946e-12
5.37403e-12
1.26304e-11
8.35629e-12
9.34567e-12
1.72577e-11
1.80984e-12
9.20074e-12
1.04866e-11
2.47688e-12
4.55711e-12
9.04084e-12
5.29547e-12
1.34489e-11
5.08997e-12
4.43812e-12
3.87287e-12
1.15473e-11
1.08663e-11
6.6021e-12
6.11848e-12
1.20486e-11
1.23391e-12
3.6599e-12
1.94979e-11
1.00681e-12
9.31502e-12
2.6524e-12
4.14034e-12
8.07957e-13
6.54358e-12
1.07555e-11
4.14365e-12
2.11145e-12
5.51719e-12
1.35257e-12
1.2796e-11
4.85435e-14
1.0316e-11
6.64905e-12
6.7749e-12
5.26637e-12
2.14378e-12
1.65886e-12
2.20897e-12
1.09843e-12
1.07917e-11
1.59777e-11
1.53243e-11
6.62832e-12
1.68078e-12
1.03265e-11
1.97656e-12
2.93866e-12
2.9897e-12
4.13763e-12
2.5792e-12
1.32965e-11
5.24618e-12
2.7476e-13
1.03066e-11
3.71746e-12
8.48668e-12
1.30683e-11
1.63227e-11
1.17894e-11
1.11683e-11
4.42298e-12
8.28911e-12
1.56726e-12
1.10881e-11
2.8046e-12
2.0692e-12
4.00137e-12
9.89509e-12
1.3406e-11
1.68769e-11
8.34653e-12
3.71952e-12
5.48321e-13
4.89158e-12
6.58704e-12
3.68738e-12
2.82961e-12
6.18524e-12
1.30692e-11
3.78835e-12
6.50526e-12
1.30712e-11
1.30885e-11
4.50997e-12
1.43774e-11
1.15308e-11
7.44601e-12
5.43133e-12
4.30509e-12
6.97043e-12
5.94523e-12
2.39312e-12
3.87183e-12
5.48045e-13
6.11502e-12
8.05947e-12
1.01058e-11
9.92421e-12
1.38668e-11
7.17393e-12
7.48333e-12
2.95368e-12
7.73331e-12
1.859e-12
5.39849e-12
4.93956e-12
6.852e-12
3.37484e-12
5.01229e-12
2.40044e-12
8.22312e-13
3.76057e-12
1.43676e-12
1.45466e-11
2.53996e-12
1.39233e-11
3.34772e-12
6.48741e-12
5.70997e-12
1.03355e-12
8.73406e-12
1.02229e-11
1.3322e-11
3.85504e-12
8.96349e-13
4.26246e-12
6.85729e-13
3.00314e-12
1.12482e-11
5.7812e-12
2.48421e-12
1.40673e-12
4.0149e-12
9.2869e-13
7.96114e-12
4.1731e-12
3.59654e-12
7.70798e-12
2.7149e-13
7.2629e-12
4.57503e-13
4.60181e-12
3.60198e-12
2.42404e-12
8.178e-12
3.50568e-12
4.68105e-12
8.09709e-12
3.00431e-12
2.01652e-12
1.35272e-12
2.45043e-12
8.42265e-12
2.77667e-12
4.07864e-12
2.73256e-12
1.38939e-12
6.44386e-12
3.42161e-12
1.28191e-12
4.58336e-12
1.0172e-11
1.09139e-11
4.55747e-12
6.71089e-13
2.69457e-12
2.00677e-12
2.62253e-12
1.29307e-12
8.33046e-13
6.88843e-13
2.46139e-12
1.15183e-12
7.82092e-13
2.88615e-12
8.98429e-13
2.00247e-12
1.52891e-12
3.79315e-12
9.64698e-12
2.48468e-12
4.47911e-12
4.6784e-12
2.98046e-12
2.96584e-12
3.86445e-13
2.56008e-12
2.57299e-12
1.09858e-12
2.53247e-12
2.86939e-13
6.13989e-12
1.21778e-12
3.35251e-12
8.16937e-13
2.78484e-12
3.94364e-12
1.07939e-11
7.61122e-13
6.7583e-12
9.51913e-13
5.12006e-12
9.26869e-13
5.22313e-12
1.09207e-11
1.16428e-11
1.14296e-11
8.18093e-12
5.55297e-12
8.08233e-13
2.68656e-12
4.98045e-13
1.06551e-12
7.91736e-13
1.67297e-12
1.24035e-12
4.7493e-12
5.36712e-12
5.06582e-12
1.73603e-12
1.54236e-12
4.41793e-12
5.00128e-13
1.8117e-12
3.76243e-12
1.15095e-11
1.83592e-11
8.94938e-12
1.70408e-13
2.95548e-12
4.55297e-12
9.13169e-13
7.59133e-12
1.23014e-12
6.56695e-12
6.88772e-12
1.13177e-11
9.06399e-12
6.61934e-13
3.53906e-13
5.1779e-12
1.64526e-12
7.92169e-12
4.33838e-13
5.07591e-12
4.80824e-13
2.68155e-12
5.56935e-12
3.92322e-12
9.75174e-13
1.62703e-12
4.44952e-13
8.04043e-13
1.95566e-12
1.87303e-12
2.90715e-12
2.15314e-12
2.71504e-12
2.22586e-13
4.52299e-13
7.4065e-12
5.73012e-12
5.91874e-13
9.92637e-13
4.46771e-12
8.67289e-13
2.96093e-12
2.976e-12
5.42982e-12
3.9444e-12
2.57804e-12
5.11843e-13
1.74009e-12
2.78492e-12
2.67792e-13
1.00824e-12
3.71384e-12
1.43181e-12
6.7648e-13
2.97921e-12
8.38964e-12
1.33102e-11
5.61302e-12
2.2953e-12
3.3171e-12
1.11361e-12
1.16816e-12
1.58612e-12
9.86541e-12
5.01838e-12
1.4172e-12
1.10079e-12
2.30195e-12
4.79167e-13
1.93976e-12
1.84604e-12
6.6728e-13
1.39962e-12
5.53605e-12
1.33145e-11
3.05444e-12
1.41648e-12
3.1016e-12
6.63738e-12
5.41859e-12
1.50248e-12
2.29209e-13
1.5384e-12
6.48598e-12
2.68608e-12
2.04995e-13
8.65025e-12
2.6124e-12
7.54186e-13
5.24062e-12
2.23233e-13
3.38563e-12
6.42575e-13
3.39611e-12
3.65467e-12
1.82329e-12
1.30138e-12
2.18221e-12
1.57175e-12
4.06429e-12
1.21125e-12
3.27299e-13
4.3208e-12
1.36928e-12
1.38502e-12
3.97224e-12
3.01712e-12
9.72854e-12
9.2508e-13
7.57149e-13
9.47378e-13
1.00555e-12
1.60296e-13
1.52175e-12
1.63827e-12
1.87907e-12
5.39302e-13
4.13996e-12
2.46547e-12
1.31724e-12
3.35617e-12
1.82444e-12
2.21653e-12
1.48862e-12
1.73531e-13
1.2193e-12
1.26728e-12
2.35795e-12
1.26835e-12
1.65386e-12
2.63471e-12
3.59264e-13
1.5276e-12
9.83008e-13
2.33724e-12
1.49977e-12
1.15434e-12
2.39604e-13
1.16266e-12
1.19438e-12
3.91126e-12
1.91223e-13
7.99926e-13
1.60476e-12
1.01682e-12
2.76189e-12
2.87394e-12
6.79827e-12
1.09946e-11
1.06869e-12
7.6084e-13
5.43398e-13
2.31811e-12
5.58319e-13
2.14618e-12
1.8538e-12
1.43115e-12
6.68302e-13
2.74161e-12
1.30671e-12
3.64947e-13
4.24287e-13
7.72955e-13
8.33259e-13
2.46458e-13
1.40166e-13
6.05219e-13
7.35138e-13
1.80898e-12
2.56076e-12
1.7352e-12
1.6761e-12
1.99675e-12
1.11349e-12
7.17104e-13
1.98969e-13
3.66492e-12
4.1434e-13
5.33814e-13
5.33808e-12
4.07402e-12
1.72281e-13
1.12745e-11
2.29328e-11
5.05663e-12
3.2779e-12
7.1874e-13
1.0045e-11
1.95663e-12
1.33745e-11
2.59064e-13
1.05452e-12
5.03861e-13
5.62258e-13
8.18788e-13
8.06812e-13
2.55032e-13
1.0533e-12
3.93154e-13
1.32375e-12
2.41728e-12
5.42374e-13
1.19607e-12
3.89443e-14
1.73352e-12
6.86894e-13
2.89066e-13
1.78963e-12
1.0984e-12
5.28668e-13
1.61668e-12
6.61025e-12
1.40625e-12
3.71539e-12
5.19608e-12
9.30887e-13
3.65356e-13
5.68394e-12
4.36063e-12
3.30026e-12
9.60194e-13
5.15293e-12
6.04425e-12
5.78092e-12
8.57196e-13
1.38692e-11
1.29175e-11
2.7893e-12
3.71691e-12
1.56309e-13
1.09049e-12
9.5867e-14
8.3404e-13
4.50032e-13
6.20331e-13
1.83884e-12
1.63952e-12
4.55042e-13
1.21887e-12
9.62002e-13
1.44849e-12
4.99352e-13
1.53451e-12
3.29962e-13
7.74383e-13
3.43584e-13
9.04817e-13
4.01141e-13
3.18336e-13
1.28225e-12
1.79267e-12
1.34793e-12
1.12626e-12
7.7959e-13
3.54663e-12
3.3075e-12
2.18051e-12
2.80465e-12
2.96739e-12
9.7332e-13
3.42515e-12
2.38096e-13
2.38153e-12
1.29488e-12
3.48508e-13
1.32242e-12
3.53338e-12
4.51664e-12
7.89889e-13
2.91532e-12
2.04821e-12
3.55992e-13
1.16723e-12
7.22382e-13
5.86053e-13
1.14481e-12
1.07197e-12
2.37808e-12
8.39849e-14
9.73124e-14
2.04692e-13
9.18524e-13
5.1295e-14
5.61472e-13
4.40853e-12
2.90783e-12
1.69667e-12
1.80771e-12
1.91723e-12
1.68506e-12
1.42365e-12
4.15036e-13
1.67486e-12
5.2979e-12
3.67774e-12
1.17761e-13
2.07859e-12
1.33395e-12
1.38076e-12
5.49563e-13
2.89292e-13
4.86391e-12
5.40948e-13
6.76333e-13
1.52236e-13
1.24268e-12
8.42542e-12
1.39581e-12
2.26308e-12
1.79629e-12
6.33138e-13
8.08344e-13
8.50777e-13
3.32171e-13
4.26874e-14
1.14597e-12
6.53588e-13
1.45098e-12
2.50446e-13
1.9391e-13
5.87914e-13
7.29768e-13
1.11829e-12
4.13133e-13
2.42977e-12
6.86929e-13
1.47139e-12
3.37365e-13
2.74203e-13
9.32506e-13
8.97044e-13
5.34671e-13
5.53543e-13
1.18242e-12
1.00271e-12
2.44855e-12
8.73783e-13
1.42664e-13
3.49058e-12
1.7189e-12
6.95052e-13
1.87603e-12
3.42078e-12
8.53255e-13
7.42935e-13
2.98793e-13
1.78523e-13
3.00677e-13
3.77525e-13
3.53423e-12
4.00025e-13
3.05313e-13
1.90679e-13
5.09951e-13
6.64383e-14
3.08879e-13
3.26627e-13
3.34597e-13
7.78968e-13
3.34635e-13
4.37115e-13
3.05647e-13
2.43303e-12
2.74886e-12
1.08764e-13
1.74492e-13
1.31343e-12
1.55144e-12
6.63036e-13
2.36323e-13
1.20877e-12
1.06198e-12
1.03855e-13
1.93332e-12
5.22615e-13
2.67987e-13
9.02587e-13
8.60557e-13
1.78501e-12
1.07213e-12
8.50244e-13
3.93595e-13
1.27303e-12
3.27194e-12
3.44003e-13
2.11768e-12
7.09933e-13
2.74134e-12
1.19204e-12
1.53835e-13
1.57647e-12
1.464e-12
2.54643e-12
9.39098e-13
1.89057e-13
3.66408e-13
5.74093e-13
7.65695e-13
4.0955e-13
8.99984e-13
8.37549e-14
2.99987e-13
3.44528e-13
3.98306e-13
4.69541e-13
1.14909e-12
9.23407e-13
1.4827e-12
4.55812e-13
1.07458e-12
3.29647e-13
2.05895e-12
1.14355e-12
1.69546e-13
1.21265e-12
2.02604e-12
1.0825e-12
9.45322e-13
1.34277e-13
1.07189e-12
1.6982e-12
3.60258e-14
7.76595e-14
2.92221e-13
1.57804e-12
3.81941e-13
1.16178e-12
3.79037e-12
3.47857e-13
1.26351e-12
4.54021e-12
7.05108e-12
6.48826e-14
1.55535e-12
2.03792e-12
4.8703e-13
3.41288e-13
1.85263e-13
1.22319e-13
3.08833e-13
2.57509e-13
1.63683e-13
8.06923e-13
6.43198e-13
4.35429e-13
4.53024e-13
5.14015e-13
1.16857e-12
4.10269e-13
5.41715e-13
2.98575e-13
9.71163e-13
1.28117e-12
1.1305e-13
7.87776e-13
1.48518e-13
2.07422e-13
7.51986e-13
1.09936e-12
8.60083e-13
1.61471e-12
1.24324e-12
5.59447e-13
3.79638e-13
2.77067e-13
7.97095e-14
2.51098e-12
7.78118e-13
9.92892e-13
1.24442e-12
1.85394e-13
9.06565e-13
1.39138e-12
4.28862e-13
1.4913e-12
1.22643e-12
7.4583e-13
9.96752e-14
1.63736e-13
4.02034e-13
1.60134e-13
6.81887e-13
2.86357e-13
3.51384e-13
1.50896e-13
1.18165e-14
4.77505e-14
1.63276e-13
4.63555e-13
8.33861e-13
3.04151e-13
3.08034e-13
9.36883e-14
4.56358e-14
9.23204e-13
2.81779e-14
5.97797e-14
5.16017e-13
7.61947e-13
6.56454e-13
2.35533e-13
5.961e-13
2.9937e-13
2.81132e-13
6.06147e-15
2.59511e-13
4.91093e-13
2.70715e-13
8.69437e-13
1.84298e-12
7.01882e-13
2.33476e-12
9.42453e-13
9.92777e-13
1.9761e-12
3.28202e-12
4.852e-13
2.58411e-13
4.40412e-13
1.71362e-13
5.73801e-14
1.32217e-14
3.76711e-13
6.84359e-14
2.83127e-13
3.55861e-13
3.11085e-13
1.78564e-13
1.15566e-13
5.38545e-13
8.66795e-13
8.8171e-13
3.14134e-13
3.58521e-13
8.07528e-13
5.99302e-14
2.12747e-13
8.81138e-13
4.95679e-13
7.6808e-13
2.33406e-13
6.4544e-13
9.75289e-14
9.63182e-14
6.65838e-13
2.08812e-12
8.02526e-14
1.90534e-12
2.61663e-13
1.48881e-13
8.09561e-13
6.1778e-12
5.0725e-13
3.47551e-13
5.2844e-13
1.00676e-13
1.99344e-12
1.16613e-12
2.10552e-12
4.34135e-13
8.31877e-13
1.28651e-13
6.1101e-14
4.57561e-13
2.2923e-13
4.74886e-13
2.06668e-13
6.68886e-13
1.08271e-13
4.42952e-13
7.08908e-13
9.75512e-14
5.17546e-13
4.45745e-13
3.52858e-13
3.83765e-13
5.11965e-13
5.43314e-13
2.34645e-13
1.12453e-12
4.21675e-13
3.18413e-13
2.07499e-13
1.08516e-12
4.30286e-13
1.07703e-13
1.66192e-12
6.07899e-13
1.11638e-12
7.0771e-13
1.84721e-12
3.3517e-12
2.00789e-12
1.63731e-12
1.57172e-12
7.05109e-13
1.19912e-12
3.24122e-13
5.93954e-14
2.45067e-12
5.43371e-14
9.31909e-15
2.66669e-13
2.29033e-13
2.10764e-13
3.07293e-13
7.80886e-13
3.93489e-13
5.70901e-13
5.72721e-13
4.67775e-13
1.7712e-13
1.06145e-12
6.08928e-13
6.86707e-13
6.57297e-13
1.38193e-13
9.1142e-13
6.01378e-13
1.792e-13
1.88045e-13
1.07595e-12
1.08344e-12
3.19886e-13
2.31082e-12
8.22821e-13
4.6864e-13
1.64474e-13
2.34199e-12
3.62584e-12
1.62956e-12
1.96018e-12
5.88477e-13
7.73799e-13
9.34886e-13
6.90108e-13
3.31187e-12
6.28766e-13
7.84149e-13
9.70771e-13
1.07834e-12
1.95689e-13
1.0652e-13
4.29125e-13
5.04737e-13
1.50581e-13
2.3362e-13
4.77986e-14
3.51688e-13
5.2633e-13
1.42985e-13
3.61599e-13
1.73003e-13
3.07904e-13
2.06617e-13
6.79692e-13
7.5456e-14
8.42208e-13
8.69981e-14
4.564e-13
5.31936e-13
2.06897e-12
5.00801e-13
1.93846e-13
1.64647e-12
6.39278e-13
6.69002e-13
1.03347e-12
1.79154e-13
7.76704e-13
1.61641e-13
6.99946e-14
1.61398e-12
9.57052e-13
1.00141e-12
8.98752e-13
1.56548e-13
9.50425e-13
7.56465e-13
3.20008e-12
3.21342e-12
6.46974e-12
4.02048e-13
1.88872e-14
2.41871e-13
5.15336e-13
1.0557e-13
3.07467e-13
3.6888e-13
3.12309e-13
1.70359e-13
2.07933e-13
2.32944e-13
1.02149e-13
5.48178e-14
1.16207e-13
5.75046e-13
3.39156e-13
3.42299e-13
7.90226e-13
1.50689e-13
2.97388e-14
8.36342e-13
1.15149e-12
5.51563e-13
1.00009e-13
1.33856e-13
2.10192e-13
1.40395e-12
2.84296e-13
8.12951e-13
1.25677e-12
7.40122e-13
4.39699e-13
5.91733e-12
1.03781e-12
2.96986e-13
3.33794e-13
1.19393e-12
1.0752e-12
1.32465e-12
1.6778e-12
2.43187e-12
6.28105e-15
1.6671e-13
2.09556e-13
4.93261e-13
1.56977e-13
1.00761e-13
2.15659e-13
8.80595e-14
4.06931e-14
1.53596e-13
3.8537e-13
3.16633e-13
1.32873e-13
2.08727e-13
2.30422e-13
2.60889e-13
1.78467e-13
7.15549e-13
9.96206e-13
6.81988e-14
1.06081e-12
5.00208e-13
2.96651e-13
5.11329e-13
3.10291e-14
5.70525e-13
2.00229e-13
1.03881e-13
2.09554e-13
4.77505e-14
3.74087e-13
3.35963e-13
1.03373e-12
5.84435e-13
4.95723e-13
2.20145e-12
2.83775e-13
1.8205e-12
1.35528e-12
1.98394e-12
4.18619e-12
1.38495e-13
1.12419e-13
1.17148e-13
5.99049e-14
8.2034e-14
1.36613e-13
1.33172e-13
9.44453e-14
3.69073e-13
1.13992e-13
2.04695e-13
2.86716e-13
7.1299e-14
1.72328e-13
6.22373e-14
6.41486e-13
8.58769e-14
4.78918e-13
1.31801e-12
1.66699e-13
2.57142e-13
1.53478e-13
6.3376e-13
6.95709e-14
7.8847e-13
4.48379e-13
2.10632e-13
3.59902e-13
2.52792e-13
1.5225e-12
2.16772e-13
3.55209e-13
7.23668e-13
8.04484e-14
5.58702e-13
2.61862e-12
6.93423e-13
6.24475e-13
1.15318e-12
5.99753e-13
5.31858e-13
3.18433e-14
1.30986e-13
8.62965e-14
1.25904e-13
2.03535e-13
1.07806e-13
1.963e-14
1.52552e-13
3.07681e-13
3.47477e-13
1.93443e-13
8.94146e-14
1.37121e-13
1.25976e-13
3.68224e-13
1.65102e-13
3.35211e-13
1.60339e-13
3.32379e-13
4.28528e-13
4.41552e-13
2.10323e-13
3.14775e-13
9.63672e-14
6.73366e-14
3.64716e-13
1.09951e-13
7.93566e-14
3.24324e-13
2.95039e-13
2.23637e-13
6.787e-13
1.3557e-12
8.28973e-14
1.66554e-13
3.54148e-13
7.7672e-13
3.18823e-12
2.02113e-12
5.08759e-13
1.23086e-13
4.44016e-14
1.53128e-14
2.46133e-13
1.14346e-13
1.59053e-14
6.52082e-14
2.32172e-14
1.42546e-13
2.89771e-14
1.12943e-13
9.63469e-14
6.52789e-14
6.7543e-14
3.9987e-14
1.41971e-14
1.70222e-13
1.52748e-13
4.50552e-13
6.59212e-13
4.27057e-13
1.24417e-13
3.7403e-13
1.17912e-13
3.21345e-13
6.07142e-13
2.33788e-12
3.5529e-12
3.10765e-13
2.89277e-12
1.18681e-13
8.42361e-13
5.50505e-14
5.09399e-13
1.17405e-12
3.60001e-13
1.02335e-12
1.76844e-12
4.25721e-13
4.32176e-13
3.27879e-12
1.92446e-12
5.01638e-14
8.67764e-14
3.66005e-13
8.57267e-14
1.40546e-13
1.82945e-13
1.29812e-14
2.32623e-14
2.57297e-13
5.07219e-14
3.12469e-13
1.94962e-13
9.64562e-14
2.76352e-13
5.24948e-14
1.1465e-13
9.72749e-14
6.50735e-14
1.98837e-13
8.51965e-14
1.98302e-13
6.02099e-13
9.47139e-14
9.95763e-14
6.56637e-13
7.14499e-13
7.11407e-13
1.07676e-13
7.93994e-13
3.46287e-12
1.74504e-12
1.27997e-12
3.24052e-13
9.23258e-13
2.14551e-12
2.4349e-12
1.35439e-12
1.11087e-12
2.92945e-13
1.40826e-12
1.72824e-12
1.13391e-13
6.45327e-14
2.5954e-13
1.84106e-13
6.4184e-14
8.095e-14
6.79415e-14
5.75833e-14
2.31874e-13
1.20222e-13
8.96331e-14
7.58898e-14
5.06662e-14
3.13857e-14
9.6636e-14
5.84532e-13
3.31199e-13
3.82101e-14
2.8207e-13
8.83842e-15
2.98061e-14
1.32e-13
3.49469e-13
7.2906e-13
1.06434e-14
6.14422e-13
2.66289e-13
3.56444e-13
3.47498e-14
1.43613e-12
1.80877e-12
1.81235e-12
6.98035e-13
8.84417e-14
7.7866e-13
6.38629e-13
2.2732e-13
6.04135e-13
2.75108e-13
8.01179e-13
1.53911e-12
6.76577e-14
7.6732e-14
1.02067e-13
9.50276e-14
6.50096e-14
3.544e-14
9.87743e-14
2.49088e-13
1.04239e-13
1.36669e-14
1.29219e-13
1.37707e-13
1.37419e-13
2.30605e-13
1.55355e-13
3.0264e-13
1.8689e-13
6.55212e-15
8.2216e-14
3.99579e-13
2.44539e-14
1.64286e-13
6.38301e-14
2.83873e-13
2.03774e-13
5.75886e-13
7.63362e-13
1.65476e-12
1.0718e-12
8.10179e-14
4.49214e-13
2.85993e-14
1.44795e-12
3.30411e-13
6.75217e-13
2.67791e-12
3.96752e-13
1.03582e-13
6.47146e-13
4.22248e-13
2.70718e-13
5.67502e-14
5.92876e-14
2.05762e-13
9.19323e-14
8.75283e-14
3.8172e-14
7.3025e-14
8.60329e-14
1.46611e-13
6.17494e-14
7.20258e-14
6.16117e-14
1.48769e-13
5.94013e-14
1.89715e-13
2.16524e-14
1.15741e-13
1.05471e-13
2.90707e-14
3.65622e-13
2.87764e-13
6.61533e-13
7.41786e-13
6.96295e-13
1.04978e-13
6.20097e-14
1.33092e-13
8.01706e-13
1.18471e-14
6.17009e-13
3.6816e-13
4.87548e-14
3.51947e-12
3.02039e-13
1.37884e-13
1.09426e-12
2.0685e-13
1.52442e-12
6.51113e-14
2.01574e-12
5.55447e-14
2.80587e-14
4.69462e-14
8.84932e-14
6.4001e-14
4.57408e-14
9.33147e-15
7.99469e-15
9.69875e-14
5.59272e-14
2.05291e-14
1.79391e-13
5.71406e-14
2.5073e-13
4.97866e-14
3.05957e-14
2.00188e-13
1.20452e-13
1.86148e-13
3.08228e-13
1.86206e-14
5.00616e-13
3.21521e-14
7.49476e-14
2.17428e-13
4.29433e-13
4.71868e-14
6.37927e-13
1.8064e-13
1.30783e-13
6.85628e-13
1.00991e-12
8.56281e-14
1.06185e-12
2.02458e-13
2.57187e-13
2.73489e-13
1.12243e-12
2.52059e-13
1.5421e-12
2.8536e-13
2.31433e-14
6.7885e-14
1.36854e-13
4.49946e-14
1.33626e-13
4.99744e-14
1.85364e-14
8.3834e-14
5.9392e-14
3.18159e-14
3.61161e-14
3.42207e-14
1.22305e-13
4.54759e-14
7.13022e-14
1.89142e-14
2.3207e-14
2.60745e-13
1.8261e-13
7.52445e-14
3.6306e-13
5.36702e-13
1.11309e-13
3.59229e-13
6.45999e-14
1.88441e-13
1.5076e-13
2.11168e-13
1.08973e-12
7.92821e-13
1.24627e-13
1.00231e-12
4.88204e-13
7.41227e-14
2.94355e-13
9.94733e-13
8.33461e-14
5.31423e-13
3.46581e-13
2.0723e-13
4.95098e-13
1.70764e-12
2.61135e-14
1.15778e-14
4.44287e-14
3.54096e-14
1.19711e-13
2.31012e-14
9.84475e-14
1.11797e-13
6.89525e-14
5.10907e-14
1.32197e-13
2.19608e-14
3.02502e-14
3.49472e-14
2.40327e-14
1.40784e-13
2.35849e-13
3.85034e-13
8.20605e-14
2.04141e-13
8.50775e-14
1.81408e-14
1.67994e-13
2.17575e-13
8.59562e-14
1.20434e-14
2.57369e-14
5.11688e-13
4.57818e-14
3.35286e-14
5.36612e-13
4.04327e-13
5.94661e-14
1.31486e-12
1.23504e-12
1.26584e-12
9.9485e-14
2.21253e-14
7.83259e-13
5.77096e-13
1.24265e-12
1.72516e-14
2.91023e-14
9.11667e-14
1.78921e-14
6.21783e-14
2.00828e-14
1.01168e-13
2.69441e-14
9.64629e-15
7.84247e-15
1.00396e-13
6.51755e-15
4.59218e-14
1.08726e-13
2.8486e-14
6.11009e-14
1.8611e-13
2.1807e-14
1.02799e-13
5.17556e-14
5.24983e-14
2.63888e-13
4.11737e-14
6.30782e-14
2.24421e-13
7.18239e-13
1.63013e-13
4.97861e-13
3.44674e-13
1.26945e-13
4.24457e-13
1.87082e-13
9.33257e-13
1.26371e-14
2.10412e-13
9.83172e-13
1.14412e-12
2.04606e-12
2.50748e-13
1.77809e-13
1.76688e-12
2.51597e-14
4.63556e-14
3.97267e-14
2.21023e-14
2.62774e-14
4.09765e-14
1.95251e-14
1.65459e-14
2.32815e-14
5.0329e-14
1.80677e-14
3.42034e-14
4.72528e-14
2.95563e-14
9.66364e-14
3.37984e-15
4.80565e-14
1.67077e-13
1.27951e-13
5.30119e-13
1.87976e-13
4.96521e-14
3.14185e-14
4.87695e-13
2.66684e-13
7.17444e-15
8.88974e-14
3.13701e-14
3.06041e-13
3.59164e-13
6.95185e-13
1.05018e-12
8.43804e-13
3.92722e-13
2.84143e-12
9.54241e-13
9.4142e-13
1.958e-12
1.30167e-12
2.5032e-13
8.34532e-14
3.06011e-14
6.23311e-15
4.56828e-14
4.73703e-14
4.99696e-14
2.08555e-14
3.93359e-14
9.65178e-15
4.13956e-14
6.26026e-14
2.6818e-14
3.5387e-14
5.76403e-14
7.08641e-15
1.41841e-14
1.36183e-13
1.77014e-13
9.705e-15
3.38145e-13
5.34182e-14
6.999e-14
5.05113e-13
3.41161e-13
2.94576e-13
1.31958e-13
4.72316e-13
2.75465e-13
3.78857e-14
5.72259e-13
2.99389e-13
5.23272e-13
8.39239e-13
2.37576e-13
3.01807e-13
3.87892e-13
1.04944e-13
9.04548e-14
6.26141e-14
1.54835e-12
1.5878e-12
7.05062e-12
4.19128e-14
1.03124e-14
4.66222e-14
1.29212e-14
4.98977e-14
5.37732e-14
6.50874e-14
4.25156e-14
8.0584e-14
5.16366e-14
2.48952e-14
2.89575e-14
7.54609e-14
1.60719e-13
6.24107e-14
1.98708e-14
2.15706e-14
2.07291e-13
5.52207e-14
2.42653e-14
3.25184e-13
3.90679e-14
3.72611e-14
1.39722e-13
4.90926e-15
8.44269e-14
6.93464e-13
1.10899e-13
1.70298e-12
5.88053e-13
8.65006e-13
1.14215e-13
8.43389e-13
4.14109e-13
3.8238e-13
1.56333e-13
4.97151e-13
5.03399e-12
2.04233e-12
1.97588e-12
8.77933e-13
2.90965e-12
6.77219e-12
9.10831e-12
8.06921e-12
3.71443e-11
3.68491e-11
1.27344e-12
2.34423e-11
1.21287e-12
1.90524e-11
4.62065e-12
2.30442e-11
1.77689e-11
1.06688e-11
1.62163e-11
5.85064e-13
1.24064e-12
5.25626e-11
1.36996e-11
7.65353e-12
2.30856e-11
1.91414e-12
2.92111e-12
1.12796e-11
1.34904e-11
1.93308e-12
9.33032e-12
4.04392e-11
5.23319e-12
1.67987e-12
2.56642e-12
1.24482e-12
2.9208e-11
1.24154e-11
1.27383e-12
9.48206e-13
2.96189e-13
2.79019e-13
7.65117e-12
4.56344e-12
1.94614e-13
4.13269e-12
1.75928e-11
1.3889e-12
2.41337e-13
6.26246e-13
1.04959e-11
4.59479e-12
2.25739e-12
4.10326e-12
4.12518e-13
4.48973e-13
1.80753e-13
2.09966e-12
4.82036e-13
2.24268e-13
7.98978e-13
1.16379e-13
5.85061e-12
4.61773e-13
1.25747e-12
1.0352e-11
9.32445e-13
8.34727e-13
2.35201e-13
2.40502e-12
3.48874e-13
1.95241e-12
1.98986e-13
7.42698e-13
6.41982e-14
7.27732e-13
3.012e-14
4.2029e-13
5.6187e-12
3.55864e-12
9.10795e-12
4.10672e-12
2.62479e-11
2.75804e-11
4.1324e-13
1.86874e-11
8.29748e-12
1.35208e-11
2.11806e-12
1.88716e-11
1.42659e-11
8.56371e-12
1.24582e-11
9.49999e-13
2.19377e-12
3.71444e-12
1.22594e-11
6.38495e-12
1.99103e-11
2.98778e-12
3.31681e-12
9.64497e-12
1.03972e-11
3.44717e-12
8.17901e-12
6.59371e-12
5.25193e-12
1.50403e-12
2.05569e-12
1.06817e-12
2.0131e-12
1.07804e-11
1.1193e-12
9.5497e-13
1.24339e-13
4.91159e-13
6.62519e-12
3.89979e-12
1.39557e-12
3.43978e-12
3.02848e-12
1.25869e-12
4.27309e-13
4.93648e-13
1.83897e-12
4.06992e-12
1.98214e-12
3.71861e-12
8.60495e-13
3.0324e-13
1.61237e-13
1.93246e-12
4.49434e-13
1.14046e-13
7.56764e-13
1.76274e-13
1.08067e-12
3.96066e-13
1.14608e-12
1.82655e-12
8.52751e-13
8.03444e-13
2.20274e-13
3.55693e-13
2.949e-13
2.64412e-13
1.87348e-13
7.00921e-13
1.01762e-13
6.79999e-13
1.50147e-14
4.16463e-13
3.99811e-13
1.69737e-12
4.37114e-12
4.64979e-12
2.11993e-11
2.13491e-11
1.41138e-11
1.61961e-11
1.06427e-12
1.13865e-11
2.5305e-12
1.34557e-11
1.1293e-11
9.03522e-12
9.79495e-12
4.90815e-12
1.84494e-12
2.63635e-12
9.75464e-12
4.52944e-12
1.57015e-11
3.10472e-12
2.61383e-12
7.37187e-12
8.87718e-12
1.82284e-12
6.46785e-12
5.59309e-12
3.85858e-12
1.39111e-12
1.7044e-12
1.065e-12
1.39155e-12
9.02925e-12
7.48512e-13
6.80582e-13
1.15197e-13
1.55056e-13
5.59917e-12
3.37534e-12
2.15791e-13
3.06752e-12
2.63727e-12
1.19378e-12
2.17005e-13
5.9111e-13
1.67533e-12
3.52316e-12
1.75168e-12
3.26183e-12
3.84931e-13
2.97666e-13
1.42052e-13
1.73498e-12
3.69692e-13
9.59871e-14
6.57403e-13
1.32289e-13
9.71511e-13
3.04925e-13
9.80727e-13
1.47365e-12
7.48841e-13
6.82328e-13
1.98152e-13
3.0869e-13
2.79837e-13
2.44604e-13
1.71937e-13
6.48382e-13
4.72403e-14
6.43315e-13
5.23932e-14
3.63179e-13
2.06658e-11
2.4607e-12
6.74757e-12
2.37479e-12
1.61193e-11
1.60598e-11
2.15164e-13
1.28827e-11
6.59376e-13
9.14532e-12
2.39893e-12
1.30244e-11
8.62692e-12
5.0473e-12
8.01623e-12
2.93888e-13
8.41371e-13
3.05255e-12
6.70011e-12
4.03487e-12
1.2359e-11
1.10762e-12
1.59436e-12
6.45408e-12
7.11038e-12
1.5675e-12
5.23378e-12
5.33384e-12
3.13597e-12
1.21129e-12
1.95554e-12
1.32593e-12
1.16161e-12
7.54961e-12
8.91225e-13
7.19689e-13
1.95798e-13
6.58504e-13
4.65103e-12
2.86278e-12
5.78115e-13
2.68656e-12
2.20115e-12
1.02725e-12
2.14185e-13
4.22058e-13
1.47814e-12
3.1093e-12
1.52177e-12
2.80125e-12
2.7503e-13
3.64145e-13
1.45232e-13
1.51439e-12
3.876e-13
1.0052e-13
6.20675e-13
1.14081e-13
8.48143e-13
3.07212e-13
8.826e-13
1.38164e-12
6.79484e-13
6.0812e-13
1.69979e-13
2.72701e-13
2.40622e-13
2.24653e-13
1.48536e-13
5.63384e-13
4.16372e-14
5.61351e-13
1.53068e-14
3.79883e-13
3.30184e-12
4.26371e-12
2.01626e-12
4.34985e-12
1.16723e-11
1.17113e-11
1.97092e-12
1.00054e-11
3.60283e-12
1.10752e-11
1.1527e-12
8.69551e-12
7.67266e-12
3.94237e-12
8.12441e-12
9.34132e-13
4.91178e-13
2.52565e-12
5.27791e-12
3.08936e-12
9.91418e-12
4.54794e-13
1.53195e-12
5.00582e-12
6.33218e-12
1.03096e-12
4.34948e-12
4.27218e-12
2.99822e-12
7.86596e-13
1.21499e-12
6.96872e-13
8.78221e-13
6.25085e-12
5.35874e-13
5.22311e-13
1.60157e-13
1.32974e-13
4.20053e-12
2.4968e-12
8.19979e-14
2.22426e-12
1.85286e-12
1.02219e-12
3.1538e-13
6.11626e-13
1.20076e-12
2.64572e-12
1.30252e-12
2.43868e-12
2.40831e-13
3.00661e-13
2.06061e-13
1.32676e-12
3.73063e-13
2.08525e-13
5.13701e-13
1.53381e-13
7.66595e-13
2.11407e-13
7.79871e-13
1.22379e-12
6.22627e-13
5.46548e-13
2.11345e-13
3.19597e-13
2.1185e-13
1.96085e-13
1.2823e-13
5.01272e-13
4.35006e-14
5.25003e-13
2.01258e-14
3.26723e-13
1.77699e-13
2.79466e-12
2.47809e-12
2.28769e-12
9.7681e-12
9.81481e-12
2.73881e-13
7.7963e-12
4.60002e-13
5.3088e-12
1.26079e-12
8.80507e-12
4.6142e-12
3.89842e-12
4.65182e-12
2.118e-12
6.35256e-13
3.84007e-12
5.06017e-12
5.37911e-12
7.93319e-12
1.34661e-12
1.00781e-12
4.19922e-12
4.37641e-12
6.25553e-13
3.26601e-12
3.35164e-12
2.00621e-12
8.86915e-13
1.08096e-12
4.88176e-13
7.89397e-13
5.20881e-12
1.4112e-12
6.16584e-13
1.79853e-13
1.47358e-13
3.39155e-12
2.1169e-12
6.24737e-13
2.15624e-12
1.76609e-12
7.39049e-13
9.81399e-14
2.77197e-13
1.25144e-12
2.41925e-12
1.16557e-12
2.24611e-12
2.6634e-13
2.13986e-13
2.98952e-13
1.23126e-12
2.74574e-13
1.04323e-13
4.62359e-13
6.96222e-14
6.75093e-13
2.86672e-13
7.55894e-13
1.09108e-12
5.89921e-13
5.2194e-13
1.5785e-13
2.77814e-13
2.18316e-13
2.07059e-13
1.24199e-13
4.87304e-13
3.45973e-14
4.72694e-13
7.07746e-15
3.13473e-13
2.52802e-12
2.5292e-12
1.85397e-12
1.43489e-12
7.64287e-12
7.22353e-12
5.99485e-13
7.2822e-12
1.90398e-12
4.9053e-12
5.70926e-13
5.51882e-12
5.11262e-12
2.2955e-12
3.49192e-12
4.3936e-13
3.32042e-13
1.08348e-12
5.60353e-12
1.66261e-12
6.19347e-12
1.39202e-12
1.2245e-12
3.99679e-12
3.73208e-12
3.14483e-12
3.46637e-12
2.39032e-12
1.58362e-12
5.41385e-13
7.41898e-13
4.92737e-13
6.40541e-13
4.42153e-12
4.43398e-13