/*--------------------------------*- C++ -*----------------------------------*\
| =========                 |                                                 |
| \\      /  F ield         | OpenFOAM: The Open Source CFD Toolbox           |
|  \\    /   O peration     | Version:  2312                                  |
|   \\  /    A nd           | Website:  www.openfoam.com                      |
|    \\/     M anipulation  |                                                 |
\*---------------------------------------------------------------------------*/
FoamFile
{
    version     2.0;
    format      ascii;
    arch        "LSB;label=32;scalar=64";
    class       volSymmTensorField;
    location    "0";
    object      turbulenceProperties:R;
}
// * * * * * * * * * * * * * * * * * * * * * * * * * * * * * * * * * * * * * //

dimensions      [0 2 -2 0 0 0 0];

internalField   nonuniform List<symmTensor> 
11040
(
(0.526661 -0.00376579 5.28563e-21 0.392406 7.43068e-22 0.396046)
(0.509764 -0.0355569 2.43218e-20 0.380785 3.41922e-21 0.393089)
(0.497602 -0.0540035 1.11517e-19 0.380589 1.56774e-20 0.397747)
(0.483592 -0.0636734 -3.09911e-20 0.378957 -4.35681e-21 0.398541)
(0.469044 -0.068849 -2.11901e-20 0.375398 -2.97896e-21 0.396195)
(0.455552 -0.0717184 -2.6705e-21 0.371229 -3.75426e-22 0.392637)
(0.443823 -0.0734118 -3.38157e-20 0.36737 -4.7539e-21 0.389092)
(0.433974 -0.0745057 -4.69549e-20 0.364241 -6.60104e-21 0.386135)
(0.425835 -0.075284 1.07385e-20 0.361933 1.50964e-21 0.383928)
(0.419127 -0.0758845 -2.81201e-20 0.360372 -3.95319e-21 0.382434)
(0.413602 -0.0763904 1.21366e-20 0.359488 1.7062e-21 0.381599)
(0.40902 -0.0768323 -3.7395e-20 0.359152 -5.25708e-21 0.381303)
(0.405144 -0.0772257 -1.78144e-20 0.359244 -2.50439e-21 0.381426)
(0.401783 -0.0775713 -8.29226e-21 0.359648 -1.16575e-21 0.381852)
(0.398763 -0.0778592 2.08028e-21 0.360239 2.92451e-22 0.382452)
(0.395939 -0.0780787 -1.70945e-20 0.360911 -2.40318e-21 0.383118)
(0.393196 -0.0782203 2.33875e-22 0.36158 3.28787e-23 0.38376)
(0.390429 -0.0782714 9.30331e-21 0.362155 1.30788e-21 0.384284)
(0.387564 -0.0782259 -3.23643e-21 0.362584 -4.54985e-22 0.384636)
(0.38453 -0.0780732 -2.27689e-21 0.362795 -3.20091e-22 0.384742)
(0.38129 -0.0778132 -1.47814e-21 0.362781 -2.078e-22 0.384594)
(0.377764 -0.0773964 8.91927e-21 0.362122 1.25389e-21 0.383764)
(0.373985 -0.0768242 -6.3731e-21 0.360577 -8.95947e-22 0.382018)
(0.370138 -0.0761862 1.61983e-21 0.358655 2.2772e-22 0.379883)
(0.366327 -0.0755252 -5.72989e-21 0.35662 -8.05522e-22 0.377632)
(0.362546 -0.0748443 1.38801e-21 0.354469 1.9513e-22 0.375261)
(0.358803 -0.0741507 -4.47418e-21 0.352235 -6.28992e-22 0.372807)
(0.355102 -0.0734481 -1.92371e-20 0.349934 -2.7044e-21 0.370285)
(0.351447 -0.0727411 -6.61789e-21 0.347592 -9.3036e-22 0.367723)
(0.347843 -0.0720323 8.04946e-21 0.345223 1.13161e-21 0.365134)
(0.344295 -0.0713248 3.45796e-21 0.342845 4.86129e-22 0.362538)
(0.340805 -0.0706205 3.92767e-20 0.340472 5.52162e-21 0.35995)
(0.337376 -0.0699206 4.78628e-20 0.338114 6.72868e-21 0.357378)
(0.334015 -0.0692276 8.52241e-21 0.33579 1.1981e-21 0.354843)
(0.330725 -0.0685424 1.19152e-20 0.333518 1.67506e-21 0.352362)
(0.327504 -0.0678648 2.73092e-20 0.331292 3.8392e-21 0.34993)
(0.32435 -0.067195 -6.65982e-21 0.329112 -9.36254e-22 0.347546)
(0.321282 -0.0665362 4.85199e-21 0.327015 6.82105e-22 0.345249)
(0.318288 -0.0658862 -2.45859e-20 0.324993 -3.45635e-21 0.343029)
(0.315377 -0.0652463 -5.36747e-21 0.323057 -7.54572e-22 0.340897)
(0.31254 -0.064615 3.38224e-21 0.321186 4.75483e-22 0.338834)
(4.74986e-18 -3.44253e-19 -4.83875e-21 6.77546e-18 -6.80244e-22 6.43371e-18)
(5.12591e-17 2.71659e-18 1.94075e-20 3.73604e-17 2.72835e-21 3.92883e-17)
(2.19163e-17 -4.18145e-18 -1.43357e-19 2.5198e-17 -2.01535e-20 2.60626e-17)
(4.52377e-17 3.57922e-18 -1.0606e-20 3.3716e-17 -1.49102e-21 3.51858e-17)
(1.00724e-17 4.27726e-19 1.8813e-21 6.73549e-18 2.64478e-22 8.96798e-18)
(4.28394e-17 -5.84625e-18 -2.25226e-20 3.59188e-17 -3.16629e-21 3.51383e-17)
(3.68187e-17 -6.08873e-18 3.47903e-21 3.47847e-17 4.8909e-22 3.19414e-17)
(1.35754e-17 2.72919e-18 4.50579e-20 1.58209e-17 6.33435e-21 1.39404e-17)
(2.25773e-17 3.93073e-18 -1.77119e-21 2.10758e-17 -2.48998e-22 1.98463e-17)
(2.82152e-17 4.94556e-18 1.2206e-20 2.62426e-17 1.71596e-21 2.48488e-17)
(3.86715e-17 8.17977e-18 -1.71393e-20 3.90508e-17 -2.40948e-21 3.86715e-17)
(1.08586e-17 1.98689e-18 5.61624e-20 1.43041e-17 7.89545e-21 1.31695e-17)
(1.39976e-17 -8.01588e-19 4.08663e-21 9.98632e-18 5.74509e-22 1.08386e-17)
(7.3892e-17 1.59037e-17 3.45219e-20 7.75253e-17 4.85318e-21 7.65427e-17)
(4.38799e-17 -9.43153e-18 -1.45583e-20 4.60527e-17 -2.04664e-21 4.61717e-17)
(1.74514e-17 3.59681e-18 5.57811e-21 1.67653e-17 7.84185e-22 1.71782e-17)
(3.14993e-17 -5.71456e-18 8.66105e-21 2.69188e-17 1.21759e-21 2.91424e-17)
(2.29487e-17 4.68425e-18 8.50763e-21 2.34147e-17 1.19602e-21 2.49572e-17)
(3.51651e-17 -6.98718e-18 1.07623e-21 3.24036e-17 1.513e-22 3.37267e-17)
(2.87975e-17 6.05225e-18 -6.33513e-22 2.84664e-17 -8.90608e-23 2.9108e-17)
(4.1509e-17 8.57605e-18 -2.23022e-21 4.13804e-17 -3.1353e-22 4.0253e-17)
(2.65952e-17 5.11591e-18 -6.65714e-21 3.28412e-17 -9.35878e-22 2.82676e-17)
(1.20036e-17 -1.65287e-18 1.06259e-20 9.7719e-18 1.49381e-21 1.22035e-17)
(1.82684e-17 3.44544e-18 2.51318e-21 1.60165e-17 3.5331e-22 1.73502e-17)
(1.89439e-17 -3.99949e-18 3.159e-21 1.89945e-17 4.44101e-22 1.89439e-17)
(1.37459e-17 2.67671e-18 -6.76415e-21 1.24743e-17 -9.50921e-22 1.29628e-17)
(6.45997e-18 -5.22541e-19 -4.27562e-21 4.44687e-18 -6.01078e-22 5.74428e-18)
(5.12127e-17 9.85914e-18 2.45818e-20 4.85299e-17 3.45577e-21 4.71105e-17)
(2.02031e-17 -4.27683e-18 2.06332e-21 2.21733e-17 2.90066e-22 2.05995e-17)
(1.7578e-17 5.14666e-19 -1.55606e-20 1.16776e-17 -2.18755e-21 1.40694e-17)
(3.65882e-17 7.69067e-18 -2.02526e-20 3.7374e-17 -2.84716e-21 3.61668e-17)
(4.35222e-17 8.89384e-18 -4.312e-20 4.50293e-17 -6.06192e-21 4.21016e-17)
(1.70207e-17 -3.60752e-18 -3.703e-20 1.86357e-17 -5.20577e-21 1.88346e-17)
(2.57433e-17 5.13166e-18 -1.86477e-20 3.14004e-17 -2.62154e-21 3.04748e-17)
(4.55714e-17 -9.42833e-18 8.75678e-21 4.43484e-17 1.23105e-21 4.66936e-17)
(1.81038e-17 -3.07603e-18 -3.5837e-20 1.4884e-17 -5.03805e-21 1.64065e-17)
(3.84386e-17 -3.79679e-18 2.80954e-20 2.848e-17 3.94972e-21 3.06554e-17)
(2.0813e-17 -3.65348e-18 -2.11909e-20 2.17733e-17 -2.97907e-21 2.42047e-17)
(3.73385e-17 7.71811e-18 8.96643e-21 3.91164e-17 1.26052e-21 3.65581e-17)
(2.54499e-17 5.12075e-19 1.32126e-20 1.78278e-17 1.85747e-21 1.94749e-17)
(3.90156e-17 8.12668e-18 -3.15878e-20 3.99186e-17 -4.4407e-21 3.82048e-17)
(2.26947e-17 -3.3661e-18 -2.91068e-22 1.81768e-17 -4.09191e-23 1.92394e-17)
(3.29765e-17 6.70222e-18 -4.55229e-20 3.95539e-17 -6.39972e-21 3.85635e-17)
(3.05595e-17 5.43337e-18 6.67657e-20 2.98583e-17 9.38609e-21 2.73103e-17)
(4.86894e-17 8.78468e-18 7.06126e-20 4.34558e-17 9.92689e-21 4.34497e-17)
(2.24313e-17 -2.47102e-18 -3.48744e-21 2.69707e-17 -4.90273e-22 2.90825e-17)
(1.14452e-17 -1.77752e-18 1.89178e-20 9.82259e-18 2.65951e-21 9.67674e-18)
(3.66992e-17 -7.49962e-18 3.306e-20 4.26833e-17 4.64766e-21 4.25801e-17)
(2.58193e-17 5.32311e-18 3.12604e-20 2.65275e-17 4.39467e-21 2.5086e-17)
(1.6144e-17 -2.38961e-18 -2.13168e-20 2.27237e-17 -2.99677e-21 1.91259e-17)
(7.70877e-17 1.33187e-17 -9.02627e-22 6.94425e-17 -1.26894e-22 6.74091e-17)
(2.07387e-17 -3.2826e-18 -1.12721e-20 2.41556e-17 -1.58467e-21 2.5762e-17)
(8.23022e-18 -7.18305e-19 -3.44756e-20 7.83178e-18 -4.84666e-21 6.62137e-18)
(3.42459e-17 -6.41219e-18 2.47717e-20 3.02087e-17 3.48247e-21 3.15856e-17)
(3.00447e-17 -6.37204e-18 -2.55904e-20 3.02552e-17 -3.59757e-21 3.07872e-17)
(1.25961e-17 -2.66808e-18 1.49248e-20 1.28198e-17 2.09816e-21 1.25961e-17)
(2.90594e-17 5.92626e-18 6.3635e-21 2.97429e-17 8.94596e-22 3.16929e-17)
(1.0722e-17 -7.28792e-19 -2.89727e-21 1.07112e-17 -4.07306e-22 8.7252e-18)
(1.31567e-17 -2.78956e-18 -3.96142e-21 1.51778e-17 -5.56907e-22 1.3962e-17)
(4.17339e-17 8.93194e-18 -1.94425e-22 4.30037e-17 -2.73327e-23 4.33043e-17)
(3.70385e-17 7.43783e-18 1.81816e-22 3.44758e-17 2.55601e-23 3.67523e-17)
(7.31895e-17 -1.53498e-17 6.14309e-21 7.26693e-17 8.63612e-22 7.25433e-17)
(4.75484e-17 1.02285e-17 5.37044e-21 5.08065e-17 7.5499e-22 4.89743e-17)
(2.72233e-17 5.76147e-18 -1.14233e-21 2.85143e-17 -1.60592e-22 2.72233e-17)
(1.04748e-17 -2.26525e-18 8.16918e-22 1.15714e-17 1.14844e-22 1.1228e-17)
(1.03619e-17 3.83025e-19 -7.31109e-21 1.11976e-17 -1.02781e-21 1.31539e-17)
(3.79328e-17 -7.80709e-18 1.68382e-20 3.77787e-17 2.36715e-21 3.66473e-17)
(3.09487e-17 5.25368e-18 1.26872e-20 2.53663e-17 1.7836e-21 2.83266e-17)
(3.27295e-17 6.61495e-18 -1.91524e-20 3.42081e-17 -2.6925e-21 3.15561e-17)
(4.44157e-17 9.60942e-18 -4.84276e-21 4.87176e-17 -6.80807e-22 4.73015e-17)
(1.32661e-17 -2.22203e-18 3.13785e-21 1.23189e-17 4.41127e-22 1.15111e-17)
(2.12419e-17 -2.58655e-18 2.14748e-20 1.74687e-17 3.01898e-21 1.70874e-17)
(8.85143e-18 -2.83531e-19 -9.50787e-21 5.95256e-18 -1.33664e-21 6.99264e-18)
(1.96459e-17 4.2342e-18 2.25712e-20 2.09883e-17 3.17312e-21 2.03372e-17)
(1.21198e-17 -6.16884e-19 3.15707e-20 1.76529e-17 4.43829e-21 1.64807e-17)
(2.16361e-17 4.26309e-18 -7.31361e-21 2.39246e-17 -1.02817e-21 2.11856e-17)
(2.05638e-17 -1.06165e-18 -1.94396e-20 2.62238e-17 -2.73287e-21 2.76684e-17)
(1.31604e-17 2.80082e-18 -3.04431e-20 1.42417e-17 -4.27976e-21 1.33974e-17)
(2.09649e-17 4.3318e-18 3.225e-20 2.39188e-17 4.53379e-21 2.15183e-17)
(3.86574e-17 -7.90574e-18 6.85376e-21 3.82502e-17 9.63519e-22 4.09244e-17)
(4.60341e-17 9.84784e-18 9.58903e-21 4.80301e-17 1.34805e-21 4.67604e-17)
(3.87041e-17 -7.79575e-18 2.36742e-20 3.61613e-17 3.32818e-21 3.85105e-17)
(3.64196e-17 -3.27795e-18 -1.9343e-21 2.76687e-17 -2.71929e-22 2.85083e-17)
(2.73126e-17 7.55894e-19 5.42906e-21 3.71975e-17 7.63231e-22 3.73869e-17)
(3.79892e-17 -2.16831e-18 -4.8575e-20 2.9062e-17 -6.8288e-21 2.89498e-17)
(1.00579e-17 2.05711e-18 -6.39191e-20 1.22426e-17 -8.9859e-21 1.16787e-17)
(1.93147e-17 -2.18149e-18 6.958e-21 1.50658e-17 9.78174e-22 1.5456e-17)
(5.53511e-17 -1.17951e-17 3.12942e-20 5.8226e-17 4.39941e-21 5.9378e-17)
(5.36296e-17 9.92694e-18 -9.20563e-21 5.0403e-17 -1.29415e-21 4.83256e-17)
(5.6076e-18 2.77913e-19 -1.43811e-20 6.88826e-18 -2.02173e-21 5.21659e-18)
(2.22523e-17 -3.09668e-18 1.18294e-20 1.84121e-17 1.66301e-21 1.8347e-17)
(3.10322e-17 -5.13617e-18 -1.32593e-20 3.40654e-17 -1.86403e-21 3.73685e-17)
(4.12589e-17 8.09737e-18 2.96374e-20 4.20328e-17 4.1665e-21 3.88171e-17)
(2.19585e-17 3.99546e-18 -3.77138e-21 2.918e-17 -5.3019e-22 2.54645e-17)
(5.90269e-18 9.64991e-19 -3.78918e-21 6.51825e-18 -5.32692e-22 5.46501e-18)
(2.30975e-17 3.99701e-18 2.27095e-20 1.96661e-17 3.19256e-21 2.04629e-17)
(3.22331e-17 -6.70662e-18 1.04494e-20 3.21322e-17 1.46901e-21 3.38204e-17)
(3.76657e-18 4.82968e-19 -6.25709e-21 4.85821e-18 -8.79638e-22 3.82723e-18)
(2.31052e-17 -3.69286e-18 -1.13835e-20 1.83754e-17 -1.60033e-21 2.09737e-17)
(7.92015e-18 -9.89655e-19 -5.08802e-21 6.03539e-18 -7.15287e-22 6.52382e-18)
(2.26877e-17 -4.77742e-18 3.0653e-22 2.30565e-17 4.30928e-23 2.39468e-17)
(3.98099e-17 -8.39494e-18 -3.2016e-22 3.95951e-17 -4.50089e-23 4.03419e-17)
(2.48627e-17 4.92872e-18 -1.80106e-21 2.52107e-17 -2.53197e-22 2.34794e-17)
(3.99645e-17 -8.06313e-18 -5.58487e-21 3.80955e-17 -7.85135e-22 4.11101e-17)
(3.61465e-17 -7.66897e-18 -1.96213e-21 3.68796e-17 -2.75841e-22 3.62361e-17)
(1.73017e-17 -3.52863e-18 -3.65901e-21 1.66997e-17 -5.14393e-22 1.78743e-17)
(2.26851e-17 -4.87546e-18 -5.79596e-21 2.41572e-17 -8.14811e-22 2.3302e-17)
(8.2e-17 1.72993e-17 -2.71632e-20 8.45491e-17 -3.81867e-21 8.14729e-17)
(9.0573e-18 1.30443e-18 2.07839e-21 1.28646e-17 2.92185e-22 1.13419e-17)
(3.53119e-17 -7.1496e-18 3.8273e-21 3.32056e-17 5.38051e-22 3.426e-17)
(4.76379e-17 -9.45258e-18 1.37441e-20 4.38281e-17 1.93218e-21 4.71572e-17)
(2.72483e-17 5.6472e-18 1.2438e-20 2.86592e-17 1.74857e-21 2.67681e-17)
(1.14207e-17 2.18635e-18 -1.81783e-20 1.4368e-17 -2.55555e-21 1.37833e-17)
(1.51945e-17 -2.72553e-18 1.6352e-20 1.90147e-17 2.29881e-21 1.87794e-17)
(6.78453e-18 -9.9253e-20 -4.57843e-20 4.43682e-18 -6.43647e-21 5.56057e-18)
(3.08469e-17 -6.42855e-18 -1.28418e-20 3.04987e-17 -1.80533e-21 3.02822e-17)
(3.03264e-17 -4.29143e-18 -1.07085e-20 2.36871e-17 -1.50543e-21 2.56218e-17)
(1.35409e-17 -2.9224e-18 -2.28666e-21 1.46217e-17 -3.21464e-22 1.41052e-17)
(3.16049e-17 6.46275e-18 6.02932e-22 3.91061e-17 8.47616e-23 3.61363e-17)
(2.08112e-17 1.18815e-18 3.00124e-21 1.49912e-17 4.21923e-22 1.60533e-17)
(1.14592e-17 -2.17389e-18 -8.73567e-21 1.48788e-17 -1.22808e-21 1.36915e-17)
(1.14389e-17 -4.41993e-19 1.34484e-20 8.16608e-18 1.89061e-21 8.75254e-18)
(9.39969e-18 -1.93928e-18 -4.80438e-21 9.54982e-18 -6.75412e-22 9.11683e-18)
(2.77168e-17 5.70691e-20 8.2964e-21 3.83507e-17 1.16633e-21 3.80677e-17)
(4.0247e-17 3.20469e-18 -1.31074e-20 3.05326e-17 -1.84267e-21 3.11999e-17)
(2.33696e-17 5.04248e-18 4.55945e-20 2.63115e-17 6.40979e-21 2.52442e-17)
(1.91747e-17 3.74131e-18 5.65682e-20 2.37919e-17 7.9525e-21 2.29504e-17)
(2.39702e-17 -4.66984e-18 -4.96461e-20 2.40182e-17 -6.97937e-21 2.63404e-17)
(2.12421e-17 3.95779e-18 2.7289e-21 2.10701e-17 3.83636e-22 1.93822e-17)
(2.78015e-17 -5.15223e-18 -5.62175e-21 3.02277e-17 -7.9032e-22 3.25578e-17)
(1.20612e-17 -5.67371e-20 -1.83224e-20 8.94402e-18 -2.57581e-21 9.07412e-18)
(3.99791e-17 -8.31935e-18 4.12832e-21 3.8881e-17 5.80369e-22 4.01264e-17)
(1.30626e-17 2.72745e-18 6.55431e-21 1.27807e-17 9.21421e-22 1.32023e-17)
(8.28148e-18 -3.39329e-19 9.57603e-21 8.05106e-18 1.34622e-21 9.98146e-18)
(2.23854e-17 -3.70432e-18 5.42467e-23 2.03833e-17 7.62614e-24 1.93044e-17)
(2.0035e-17 2.56552e-18 3.11153e-22 1.57717e-17 4.37427e-23 1.63748e-17)
(9.21977e-18 -3.42596e-19 -1.51892e-20 6.31606e-18 -2.13533e-21 7.19438e-18)
(5.97202e-18 5.4158e-19 -8.66873e-21 8.2189e-18 -1.21867e-21 8.03748e-18)
(1.68418e-17 -1.61304e-18 -3.24024e-22 1.20808e-17 -4.55521e-23 1.36335e-17)
(1.85895e-17 3.93081e-18 5.26246e-21 2.14028e-17 7.3981e-22 2.09671e-17)
(2.08594e-17 4.36845e-18 -5.61069e-21 2.50398e-17 -7.88765e-22 2.36087e-17)
(3.7829e-18 3.09684e-19 7.98668e-22 3.73558e-18 1.12279e-22 4.54887e-18)
(1.64466e-17 -3.22776e-18 -1.85901e-21 1.49544e-17 -2.61344e-22 1.57143e-17)
(1.56774e-17 -3.30217e-18 3.74246e-21 1.5744e-17 5.26125e-22 1.55804e-17)
(1.31463e-17 4.08364e-19 4.09729e-22 8.70956e-18 5.76007e-23 1.05873e-17)
(1.48003e-17 3.07044e-18 -5.25982e-21 1.74737e-17 -7.39439e-22 1.572e-17)
(1.22852e-17 -1.89886e-18 5.86955e-21 1.67771e-17 8.25155e-22 1.56402e-17)
(3.78286e-17 6.8811e-18 1.34338e-20 3.30695e-17 1.88855e-21 3.41891e-17)
(4.49806e-17 -9.63158e-18 7.082e-21 4.65054e-17 9.95605e-22 4.5954e-17)
(2.20125e-17 4.66149e-18 -1.53547e-21 2.26795e-17 -2.15861e-22 2.33802e-17)
(1.48386e-17 2.90713e-20 1.24212e-20 1.00166e-17 1.74621e-21 1.1565e-17)
(1.75588e-17 3.23705e-18 -3.647e-22 1.55795e-17 -5.12704e-23 1.5909e-17)
(1.32259e-17 -2.74894e-18 -1.25758e-20 1.33346e-17 -1.76793e-21 1.2905e-17)
(1.53693e-18 5.92333e-20 1.03098e-20 1.19303e-18 1.44937e-21 1.60979e-18)
(9.41099e-18 -2.48055e-19 -2.30341e-21 9.15743e-18 -3.23819e-22 7.47434e-18)
(7.30131e-18 -3.65269e-19 3.40884e-20 4.85191e-18 4.79224e-21 6.29686e-18)
(1.38056e-17 2.92972e-18 1.72103e-20 1.62887e-17 2.41947e-21 1.52684e-17)
(5.64581e-18 -2.9059e-19 1.05636e-20 5.20632e-18 1.48506e-21 4.41624e-18)
(1.16888e-17 2.15193e-18 1.06997e-20 1.37394e-17 1.5042e-21 1.41502e-17)
(5.51611e-18 -2.73041e-19 -6.10677e-21 4.91787e-18 -8.58505e-22 4.26603e-18)
(2.65322e-17 -3.90698e-18 1.94541e-22 2.04862e-17 2.73491e-23 2.32995e-17)
(5.15635e-18 -2.90738e-19 -4.9846e-21 7.05902e-18 -7.00747e-22 5.37293e-18)
(2.03974e-17 4.3304e-18 -1.99642e-20 2.39935e-17 -2.80662e-21 2.23158e-17)
(6.83117e-18 1.45488e-18 1.39214e-20 7.28265e-18 1.9571e-21 6.91832e-18)
(7.30999e-18 -3.17888e-20 -6.26142e-21 5.46696e-18 -8.80246e-22 5.49392e-18)
(3.04998e-17 -2.84422e-18 3.04424e-20 2.26959e-17 4.27967e-21 2.41027e-17)
(2.02198e-17 2.98477e-18 -1.68813e-20 2.48479e-17 -2.37321e-21 2.57826e-17)
(1.9273e-17 3.37839e-18 -1.47229e-20 2.34374e-17 -2.06978e-21 2.38339e-17)
(1.3978e-17 1.91267e-18 1.13402e-20 1.09717e-17 1.59424e-21 1.16378e-17)
(2.75024e-17 5.25427e-18 -6.02869e-21 2.60011e-17 -8.47528e-22 2.51881e-17)
(2.36093e-17 4.88524e-18 -9.60131e-21 2.59702e-17 -1.34978e-21 2.66534e-17)
(2.05666e-17 3.12389e-18 -5.34233e-22 1.82232e-17 -7.51038e-23 1.72927e-17)
(1.30651e-17 6.25564e-19 7.03883e-22 1.86896e-17 9.89536e-23 1.78425e-17)
(2.70374e-17 -3.857e-18 -1.69116e-20 2.08245e-17 -2.37747e-21 2.32445e-17)
(4.55635e-17 9.50502e-18 -1.34918e-20 5.40177e-17 -1.89671e-21 5.21638e-17)
(4.04862e-17 -8.21232e-18 6.57695e-21 3.80443e-17 9.24604e-22 3.97409e-17)
(8.04905e-18 9.96179e-19 4.24204e-21 6.29117e-18 5.96357e-22 6.54438e-18)
(2.44906e-17 5.23424e-18 -1.91416e-20 2.84049e-17 -2.69097e-21 2.66141e-17)
(3.56676e-18 -2.89258e-19 1.55195e-20 2.43787e-18 2.18177e-21 3.02308e-18)
(2.05286e-17 4.32741e-18 -6.50812e-21 2.16763e-17 -9.14928e-22 2.04885e-17)
(1.76745e-17 -3.78964e-18 -5.90471e-22 1.84924e-17 -8.30099e-23 1.80445e-17)
(4.48793e-18 -4.21032e-19 -1.59358e-21 3.81398e-18 -2.2403e-22 4.90715e-18)
(6.12806e-18 -1.18212e-18 -1.82157e-21 7.73738e-18 -2.56081e-22 7.35996e-18)
(4.17875e-17 -8.73292e-18 8.8322e-22 4.10815e-17 1.24165e-22 4.26738e-17)
(8.29621e-18 -1.51581e-18 1.83683e-21 9.82793e-18 2.58226e-22 8.3072e-18)
(4.07762e-17 8.55729e-18 -1.36458e-21 4.16668e-17 -1.91836e-22 4.02319e-17)
(7.20824e-18 4.75038e-19 2.36835e-21 4.84343e-18 3.32949e-22 6.11813e-18)
(9.95153e-18 -1.60381e-18 1.73647e-21 1.25516e-17 2.44117e-22 1.2605e-17)
(1.44245e-17 -3.06111e-18 -1.31405e-20 1.58925e-17 -1.84732e-21 1.47779e-17)
(1.09127e-17 -1.49585e-18 9.06084e-21 9.04033e-18 1.2738e-21 8.96621e-18)
(1.84157e-17 -3.61619e-18 2.22685e-21 1.82907e-17 3.13056e-22 2.00382e-17)
(2.50015e-17 5.3932e-18 -1.57039e-20 2.7355e-17 -2.20769e-21 2.61504e-17)
(1.49443e-17 -3.08235e-18 -1.29158e-20 1.73827e-17 -1.81574e-21 1.72405e-17)
(1.39882e-17 1.60522e-18 6.60766e-21 1.03498e-17 9.28922e-22 1.14904e-17)
(5.66996e-18 -6.80593e-19 5.62492e-21 8.21367e-18 7.90765e-22 7.31809e-18)
(8.31185e-18 -1.59538e-18 1.90597e-21 8.63008e-18 2.67946e-22 9.39814e-18)
(1.3023e-17 -2.80351e-18 -1.62382e-20 1.36678e-17 -2.28281e-21 1.35243e-17)
(2.46504e-17 -4.61711e-18 -1.81287e-20 2.16062e-17 -2.54857e-21 2.4009e-17)
(1.28839e-17 2.47899e-18 -5.50466e-21 1.63198e-17 -7.73859e-22 1.54827e-17)
(1.36193e-17 -2.90963e-18 7.85363e-21 1.41895e-17 1.10408e-21 1.37975e-17)
(1.06953e-17 -1.72911e-18 1.25169e-21 1.4317e-17 1.75965e-22 1.35462e-17)
(1.44558e-17 2.47953e-18 5.86243e-21 1.26879e-17 8.24155e-22 1.26279e-17)
(1.18542e-17 2.46596e-18 1.53519e-20 1.23837e-17 2.15821e-21 1.16527e-17)
(9.65177e-18 -1.8433e-18 7.59752e-22 8.80005e-18 1.06808e-22 9.84126e-18)
(6.62922e-18 7.63083e-20 -1.4196e-20 9.37037e-18 -1.99571e-21 9.11009e-18)
(6.1952e-18 7.93458e-20 -1.56122e-21 5.09221e-18 -2.1948e-22 4.6698e-18)
(2.60885e-17 -2.23678e-18 3.28873e-21 3.47551e-17 4.62338e-22 3.50816e-17)
(1.06524e-17 -1.76051e-18 -1.28917e-20 8.62691e-18 -1.81235e-21 9.60922e-18)
(1.81538e-17 -1.50292e-18 -1.70694e-20 1.38099e-17 -2.39965e-21 1.41064e-17)
(6.05655e-18 1.12288e-18 -6.75705e-21 7.92712e-18 -9.49923e-22 6.87097e-18)
(2.52249e-17 -4.96113e-18 2.27705e-20 2.32541e-17 3.20113e-21 2.54336e-17)
(1.43987e-17 -4.89197e-19 -6.27831e-21 1.0338e-17 -8.8262e-22 1.09743e-17)
(4.72587e-18 1.97893e-19 4.77567e-21 6.09946e-18 6.71376e-22 6.38957e-18)
(2.3551e-17 3.6298e-18 2.20854e-20 1.88724e-17 3.10483e-21 2.03116e-17)
(8.98126e-18 1.50004e-18 -7.29778e-22 1.23126e-17 -1.02594e-22 1.0594e-17)
(1.14761e-17 -2.08403e-18 2.94874e-20 1.03866e-17 4.14541e-21 1.19347e-17)
(1.46371e-17 2.79684e-18 -2.26014e-20 1.51457e-17 -3.17737e-21 1.36854e-17)
(9.99361e-18 -4.87146e-20 1.55767e-20 7.25925e-18 2.18982e-21 7.54541e-18)
(1.49113e-17 3.11839e-18 1.84852e-21 1.4674e-17 2.59869e-22 1.52302e-17)
(1.69741e-17 -3.55353e-18 -7.99122e-21 1.79326e-17 -1.12343e-21 1.68368e-17)
(2.72535e-17 -5.60971e-18 2.79721e-21 2.62283e-17 3.93238e-22 2.76361e-17)
(1.71504e-17 -3.66195e-18 -1.06406e-20 1.75835e-17 -1.49589e-21 1.74504e-17)
(3.96555e-18 4.50084e-19 4.23689e-21 5.75638e-18 5.95633e-22 4.70419e-18)
(4.41418e-18 8.8538e-19 -9.46832e-22 4.90743e-18 -1.33108e-22 4.37345e-18)
(1.79409e-17 -2.39574e-18 7.30652e-22 1.48274e-17 1.02717e-22 1.46636e-17)
(3.15373e-18 3.22044e-21 -7.4655e-22 3.89646e-18 -1.04952e-22 4.22559e-18)
(8.18576e-18 1.43061e-18 1.00734e-21 6.81911e-18 1.41614e-22 7.55523e-18)
(7.24533e-18 1.26661e-18 -5.47459e-21 9.78194e-18 -7.69632e-22 8.80935e-18)
(5.4647e-18 -2.3523e-19 1.86807e-21 5.75726e-18 2.62618e-22 4.53801e-18)
(3.76303e-17 8.0884e-18 4.89787e-21 3.92583e-17 6.88555e-22 3.89319e-17)
(1.25329e-17 -2.49832e-18 -2.40101e-21 1.18026e-17 -3.3754e-22 1.28461e-17)
(2.56068e-17 5.53458e-18 -8.20062e-21 2.74962e-17 -1.15286e-21 2.69088e-17)
(8.36623e-18 -1.79199e-18 4.24687e-21 8.63036e-18 5.97035e-22 8.65497e-18)
(6.07857e-18 1.87674e-19 -1.22107e-22 4.42537e-18 -1.71661e-23 4.61086e-18)
(1.96769e-17 4.24654e-18 3.67062e-21 2.19262e-17 5.16025e-22 2.13397e-17)
(1.34861e-17 2.88652e-18 -2.55675e-22 1.47415e-17 -3.59435e-23 1.38967e-17)
(1.06447e-17 2.26286e-18 6.97291e-21 1.08194e-17 9.80269e-22 1.07424e-17)
(9.96956e-18 2.14901e-18 1.83879e-22 1.11887e-17 2.58502e-23 1.08594e-17)
(2.42899e-17 3.32067e-18 -3.59147e-21 2.20114e-17 -5.04898e-22 2.00752e-17)
(1.43002e-17 -2.19881e-18 -1.28714e-20 1.51286e-17 -1.80949e-21 1.71014e-17)
(1.09929e-17 9.17504e-19 1.05696e-20 1.59635e-17 1.4859e-21 1.47329e-17)
(8.9161e-18 1.84272e-18 1.31012e-20 8.59732e-18 1.8418e-21 8.79873e-18)
(1.93969e-17 -3.8143e-18 -1.15004e-20 1.79894e-17 -1.61676e-21 1.82072e-17)
(9.89853e-18 -1.51554e-18 4.42173e-21 1.31358e-17 6.21617e-22 1.26987e-17)
(2.2456e-17 3.33593e-18 -1.69604e-22 1.90003e-17 -2.38434e-23 1.87733e-17)
(3.53267e-18 -3.4966e-19 -6.32273e-22 3.67976e-18 -8.88866e-23 2.98459e-18)
(4.17433e-18 -4.86121e-19 -2.55373e-22 4.23184e-18 -3.59009e-23 5.01112e-18)
(1.53972e-17 2.34066e-18 -5.22316e-21 1.38373e-17 -7.34285e-22 1.29684e-17)
(4.19872e-18 6.86019e-19 4.87312e-21 5.59694e-18 6.85076e-22 5.30832e-18)
(1.10793e-17 -1.67144e-18 2.16911e-20 1.39638e-17 3.04939e-21 1.41737e-17)
(2.48437e-18 1.00415e-19 3.49115e-21 2.59836e-18 4.90794e-22 3.10541e-18)
(8.08706e-18 1.58806e-18 2.62903e-21 8.58332e-18 3.69596e-22 7.73423e-18)
(1.28623e-17 -1.3417e-18 -3.26816e-20 9.30356e-18 -4.59446e-21 1.05214e-17)
(3.10454e-18 -3.05118e-19 -1.9813e-21 2.79393e-18 -2.78537e-22 2.47062e-18)
(1.05392e-17 8.41456e-19 -9.75754e-21 7.81762e-18 -1.37174e-21 8.21373e-18)
(7.76906e-18 -1.17661e-18 1.70143e-20 6.19748e-18 2.39192e-21 6.66376e-18)
(1.52533e-17 -2.9667e-18 -1.26032e-20 1.67824e-17 -1.77179e-21 1.7705e-17)
(8.73422e-18 -1.7537e-18 -1.10711e-20 8.91419e-18 -1.55641e-21 8.323e-18)
(7.69934e-18 1.30863e-18 1.63733e-20 6.6053e-18 2.3018e-21 6.73267e-18)
(1.32907e-17 -2.62937e-18 -1.62639e-20 1.27959e-17 -2.28642e-21 1.40352e-17)
(1.11098e-17 2.07328e-18 -2.74136e-22 1.0856e-17 -3.85387e-23 1.0105e-17)
(2.03036e-17 4.35491e-18 3.21334e-21 2.21647e-17 4.51739e-22 2.09732e-17)
(1.85227e-17 3.97849e-18 1.17914e-20 2.07576e-17 1.65767e-21 2.03489e-17)
(6.13585e-18 2.58102e-19 9.30055e-22 4.09604e-18 1.30749e-22 4.93942e-18)
(6.59923e-18 -1.38716e-18 3.59975e-21 7.40815e-18 5.06061e-22 7.43402e-18)
(2.6508e-17 -5.27517e-18 -1.33673e-20 2.58116e-17 -1.87921e-21 2.49168e-17)
(1.78308e-17 3.58123e-18 8.30942e-21 1.67423e-17 1.16816e-21 1.70517e-17)
(1.70177e-17 -3.57066e-18 -1.44316e-21 1.67726e-17 -2.02883e-22 1.71398e-17)
(3.68706e-18 -1.86352e-19 -2.95429e-21 3.10664e-18 -4.15321e-22 4.07915e-18)
(1.22175e-17 2.21877e-18 -5.29152e-22 1.095e-17 -7.43895e-23 1.09323e-17)
(9.86582e-18 -1.76081e-18 -1.24809e-21 1.28878e-17 -1.7546e-22 1.21839e-17)
(2.98673e-18 7.47783e-20 -6.02972e-22 3.94702e-18 -8.47673e-23 4.06887e-18)
(3.97266e-18 6.56634e-19 -3.25569e-21 3.3206e-18 -4.57693e-22 3.46126e-18)
(1.31328e-17 -2.42289e-18 2.021e-21 1.5857e-17 2.84117e-22 1.60063e-17)
(2.00588e-17 -1.84841e-18 8.61348e-21 1.51878e-17 1.2109e-21 1.57499e-17)
(9.40787e-18 -6.59606e-19 2.5988e-21 1.34365e-17 3.65345e-22 1.27536e-17)
(7.2544e-18 -1.10771e-18 -8.04353e-21 5.76332e-18 -1.13078e-21 6.27101e-18)
(1.30567e-17 1.30621e-18 -4.04568e-21 1.79274e-17 -5.68752e-22 1.74868e-17)
(1.47182e-17 2.73419e-18 -3.47867e-22 1.40262e-17 -4.8904e-23 1.33021e-17)
(8.48482e-18 -8.54815e-20 8.18131e-21 5.62644e-18 1.15015e-21 6.74001e-18)
(5.99256e-18 1.42194e-19 4.95032e-21 5.8331e-18 6.95928e-22 4.75821e-18)
(7.83908e-18 -1.03116e-18 -3.47227e-21 5.97193e-18 -4.88141e-22 6.56285e-18)
(7.14777e-18 -1.40021e-18 -8.47087e-21 6.47431e-18 -1.19086e-21 6.89138e-18)
(2.10468e-17 4.51583e-18 4.88969e-21 2.40046e-17 6.87405e-22 2.31947e-17)
(5.06552e-18 -1.06742e-18 -3.67986e-21 5.13327e-18 -5.17325e-22 5.02568e-18)
(1.06157e-18 -2.08423e-19 8.03224e-21 1.14089e-18 1.12919e-21 1.02175e-18)
(5.45981e-18 -8.49266e-19 1.29615e-21 4.49739e-18 1.82216e-22 4.65738e-18)
(4.48007e-18 -8.66566e-19 -6.62008e-22 4.51289e-18 -9.30668e-23 4.17148e-18)
(4.66392e-18 1.61294e-20 -4.98698e-21 3.18935e-18 -7.01083e-22 3.60262e-18)
(2.87951e-18 6.19258e-19 1.73398e-20 3.01816e-18 2.43767e-21 2.97661e-18)
(1.02085e-17 -1.71926e-18 -2.5646e-21 8.33273e-18 -3.60537e-22 9.32048e-18)
(1.11732e-17 -8.28288e-19 5.06699e-21 1.44554e-17 7.1233e-22 1.50012e-17)
(2.11303e-18 1.17133e-19 -4.76157e-21 1.41064e-18 -6.69394e-22 1.74642e-18)
(1.53807e-17 -2.50333e-18 1.17914e-20 1.74981e-17 1.65766e-21 1.88572e-17)
(1.75841e-17 -3.67939e-18 1.25926e-20 1.72607e-17 1.7703e-21 1.75841e-17)
(5.42359e-18 -1.82876e-19 1.06696e-21 5.39683e-18 1.49995e-22 4.35876e-18)
(3.87267e-18 -5.14796e-19 1.51124e-20 4.55251e-18 2.12454e-21 3.63132e-18)
(2.48147e-18 5.21474e-19 3.22126e-21 2.95818e-18 4.52853e-22 2.71506e-18)
(5.24004e-18 -8.56481e-19 -9.77793e-21 4.38587e-18 -1.37461e-21 4.53769e-18)
(1.30554e-17 3.34996e-19 -3.91343e-21 1.79374e-17 -5.50161e-22 1.78933e-17)
(2.47618e-17 -8.26887e-19 1.05913e-20 1.89061e-17 1.48895e-21 1.86778e-17)
(2.34347e-17 -4.82679e-18 -2.22451e-20 2.62598e-17 -3.12727e-21 2.67428e-17)
(6.59126e-18 -1.14628e-18 7.81643e-21 5.62586e-18 1.09885e-21 6.54923e-18)
(1.77397e-17 -3.14414e-18 -6.59437e-21 1.56624e-17 -9.27054e-22 1.57187e-17)
(1.64302e-17 3.38466e-18 1.07318e-20 1.62698e-17 1.5087e-21 1.58908e-17)
(7.38676e-18 -1.18873e-18 3.37502e-22 5.99561e-18 4.74469e-23 6.46575e-18)
(5.12889e-18 -1.04347e-18 -3.65837e-21 5.01399e-18 -5.14302e-22 4.90563e-18)
(8.46142e-18 1.66536e-18 4.87802e-21 8.62864e-18 6.85765e-22 9.37039e-18)
(7.92756e-18 8.51039e-20 6.68537e-22 6.43725e-18 9.39846e-23 5.96544e-18)
(5.15302e-18 -4.92031e-19 -1.38725e-21 4.162e-18 -1.95023e-22 4.03065e-18)
(2.82667e-18 -4.8512e-19 4.80133e-21 2.84798e-18 6.74983e-22 3.23337e-18)
(1.35423e-17 -2.80327e-18 1.39172e-21 1.52475e-17 1.95651e-22 1.54367e-17)
(1.37847e-17 2.9287e-18 3.89526e-21 1.61966e-17 5.47606e-22 1.5082e-17)
(1.30788e-17 -7.66589e-19 7.41964e-21 9.25005e-18 1.04307e-21 1.01785e-17)
(1.26494e-17 2.25587e-18 -2.94942e-21 1.5557e-17 -4.14636e-22 1.56174e-17)
(1.71594e-17 -2.51075e-18 -2.26683e-21 1.45662e-17 -3.18677e-22 1.42872e-17)
(6.58391e-18 -1.22854e-18 -7.694e-21 7.62279e-18 -1.08164e-21 7.90173e-18)
(1.48438e-17 2.39587e-18 3.20418e-21 1.25066e-17 4.50451e-22 1.27551e-17)
(7.96463e-18 -2.5942e-19 -2.44183e-21 1.08106e-17 -3.43279e-22 1.08906e-17)
(3.74753e-18 -7.99251e-19 3.06761e-21 3.82625e-18 4.31252e-22 3.8129e-18)
(8.20231e-18 1.31971e-18 -7.97915e-21 6.61851e-18 -1.12173e-21 7.22543e-18)
(7.08724e-18 6.30782e-19 9.80552e-22 1.04667e-17 1.37848e-22 9.34688e-18)
(1.0375e-17 -9.73363e-19 -2.3818e-21 8.16544e-18 -3.34839e-22 8.11098e-18)
(7.58446e-18 -1.41488e-18 1.24476e-20 6.72634e-18 1.74991e-21 7.58446e-18)
(2.38355e-18 4.26997e-19 -8.43948e-21 2.14653e-18 -1.18644e-21 2.48086e-18)
(1.09555e-17 2.27955e-18 6.22309e-22 1.32459e-17 8.74857e-23 1.24821e-17)
(8.95272e-18 -1.77657e-18 -4.89704e-21 1.06159e-17 -6.88438e-22 1.059e-17)
(5.2703e-18 8.61468e-19 5.25507e-21 4.51181e-18 7.38771e-22 4.53419e-18)
(6.91859e-18 -4.59691e-19 -2.86985e-21 5.09188e-18 -4.03451e-22 5.3398e-18)
(5.94505e-18 1.28417e-18 1.22512e-20 6.60603e-18 1.72231e-21 6.31766e-18)
(6.93929e-18 -1.20579e-18 -3.25398e-21 8.76674e-18 -4.57452e-22 8.65656e-18)
(4.55507e-18 -4.9314e-19 -2.07554e-20 4.19213e-18 -2.91785e-21 3.6761e-18)
(5.04681e-18 -9.9061e-19 -1.92031e-21 4.84713e-18 -2.69963e-22 5.34258e-18)
(2.52714e-17 4.74785e-18 1.93237e-20 2.30034e-17 2.71658e-21 2.30018e-17)
(1.17855e-17 2.38772e-18 -3.02015e-21 1.20287e-17 -4.24581e-22 1.12926e-17)
(9.19286e-18 4.00762e-20 -4.25839e-20 7.16925e-18 -5.98656e-21 6.89746e-18)
(1.17686e-17 2.5352e-18 3.84971e-20 1.32214e-17 5.41201e-21 1.25219e-17)
(8.70937e-18 -1.84889e-18 1.80546e-21 8.80471e-18 2.53817e-22 8.79475e-18)
(9.35956e-18 -1.83626e-18 -1.78776e-21 8.73348e-18 -2.51328e-22 8.74457e-18)
(5.95977e-18 -7.02305e-19 -1.36671e-21 8.18959e-18 -1.92135e-22 7.89037e-18)
(2.84316e-18 1.24292e-19 -1.06897e-20 2.67484e-18 -1.50278e-21 2.23503e-18)
(2.05598e-17 -4.2061e-18 3.09363e-21 1.95611e-17 4.34911e-22 2.01246e-17)
(1.5825e-17 2.96568e-18 -1.18357e-20 1.51369e-17 -1.66389e-21 1.43655e-17)
(8.69988e-18 7.50324e-19 9.07409e-21 1.17017e-17 1.27566e-21 1.17117e-17)
(1.14467e-17 2.33905e-18 -2.59884e-21 1.12404e-17 -3.65351e-22 1.09895e-17)
(3.39478e-18 1.11286e-19 1.70636e-21 2.33764e-18 2.39885e-22 2.6333e-18)
(7.61592e-18 -3.94276e-19 -3.19463e-21 1.12095e-17 -4.49109e-22 1.03152e-17)
(1.06229e-17 -1.415e-18 -2.63255e-21 8.64049e-18 -3.70091e-22 8.69381e-18)
(4.20999e-18 -8.82462e-19 -1.16361e-21 4.79464e-18 -1.63583e-22 4.77556e-18)
(8.16993e-18 -1.61496e-18 3.3438e-21 9.53911e-18 4.7008e-22 9.6433e-18)
(9.41997e-18 1.407e-18 -3.27839e-21 1.1672e-17 -4.60884e-22 1.20202e-17)
(2.04486e-17 -3.90669e-18 -1.9319e-21 1.85663e-17 -2.71592e-22 1.88636e-17)