/*--------------------------------*- C++ -*----------------------------------*\
| =========                 |                                                 |
| \\      /  F ield         | OpenFOAM: The Open Source CFD Toolbox           |
|  \\    /   O peration     | Version:  2312                                  |
|   \\  /    A nd           | Website:  www.openfoam.com                      |
|    \\/     M anipulation  |                                                 |
\*---------------------------------------------------------------------------*/
FoamFile
{
    version     2.0;
    format      ascii;
    arch        "LSB;label=32;scalar=64";
    class       volScalarField;
    location    "0";
    object      turbulenceProperties:I;
}
// * * * * * * * * * * * * * * * * * * * * * * * * * * * * * * * * * * * * * //

dimensions      [0 0 0 0 0 0 0];

internalField   nonuniform List<scalar> 
11040
(
0.0254621
0.0251555
0.02508
0.0249336
0.0247306
0.0245182
0.0243251
0.0241631
0.0240337
0.0239333
0.0238586
0.0238047
0.0237667
0.0237405
0.0237215
0.023706
0.0236911
0.0236738
0.0236521
0.0236237
0.0235882
0.0235357
0.0234616
0.0233784
0.0232929
0.0232048
0.0231151
0.023024
0.0229322
0.02284
0.0227479
0.0226561
0.022565
0.022475
0.0223866
0.0222997
0.0222142
0.0221313
0.0220505
0.0219724
0.0218963
9.40922e-11
2.51108e-10
1.89933e-10
2.37209e-10
1.12725e-10
2.36956e-10
2.25931e-10
1.46164e-10
1.76928e-10
1.97728e-10
2.3954e-10
1.37466e-10
1.31021e-10
3.35229e-10
2.59029e-10
1.59174e-10
2.07762e-10
1.87508e-10
2.23464e-10
2.06347e-10
2.46386e-10
2.07932e-10
1.29425e-10
1.59546e-10
1.67456e-10
1.38983e-10
9.06013e-11
2.69063e-10
1.76197e-10
1.46144e-10
2.33004e-10
2.53789e-10
1.63898e-10
2.07831e-10
2.59513e-10
1.56045e-10
2.19321e-10
1.81456e-10
2.36035e-10
1.75885e-10
2.40305e-10
1.72143e-10
2.34022e-10
2.07961e-10
2.58544e-10
1.967e-10
1.23511e-10
2.45203e-10
1.95378e-10
1.69084e-10
3.24756e-10
1.86633e-10
1.05747e-10
2.1759e-10
2.11905e-10
1.3689e-10
2.11215e-10
1.21932e-10
1.44399e-10
2.5124e-10
2.31025e-10
3.28126e-10
2.69499e-10
2.02232e-10
1.28075e-10
1.30816e-10
2.35351e-10
2.0427e-10
2.20352e-10
2.63117e-10
1.35231e-10
1.65852e-10
1.03659e-10
1.73371e-10
1.51002e-10
1.81395e-10
1.91585e-10
1.41821e-10
1.80927e-10
2.41015e-10
2.63483e-10
2.36414e-10
2.13654e-10
2.24126e-10
2.17546e-10
1.29425e-10
1.56742e-10
2.91997e-10
2.7406e-10
9.34441e-11
1.70561e-10
2.24751e-10
2.4535e-10
1.94328e-10
9.39006e-11
1.76548e-10
2.20007e-10
7.83488e-11
1.75466e-10
1.00478e-10
1.85354e-10
2.42965e-10
1.9042e-10
2.4238e-10
2.32085e-10
1.59917e-10
1.85955e-10
3.49669e-10
1.28056e-10
2.25093e-10
2.61415e-10
2.01884e-10
1.39671e-10
1.61623e-10
9.09564e-11
2.12533e-10
1.98137e-10
1.4435e-10
2.29506e-10
1.59886e-10
1.40476e-10
1.18235e-10
1.17627e-10
2.26575e-10
2.24217e-10
1.92188e-10
1.80265e-10
1.91422e-10
1.74395e-10
2.11322e-10
1.21772e-10
2.42193e-10
1.38739e-10
1.13895e-10
1.7493e-10
1.60388e-10
1.05856e-10
1.04681e-10
1.44842e-10
1.73353e-10
1.8511e-10
7.71291e-11
1.52403e-10
1.52219e-10
1.26466e-10
1.53817e-10
1.48449e-10
2.27608e-10
2.60297e-10
1.83188e-10
1.33993e-10
1.55496e-10
1.39483e-10
4.62536e-11
1.13307e-10
9.53699e-11
1.49542e-10
8.67578e-11
1.39682e-10
8.51278e-11
1.86185e-10
9.3116e-11
1.81341e-10
1.01825e-10
9.49056e-11
1.95208e-10
1.86889e-10
1.8112e-10
1.34301e-10
1.96959e-10
1.93858e-10
1.66275e-10
1.56366e-10
1.87226e-10
2.73508e-10
2.41464e-10
1.01467e-10
1.9798e-10
6.67116e-11
1.75802e-10
1.63477e-10
8.06953e-11
1.02292e-10
2.48776e-10
1.14149e-10
2.45918e-10
9.46428e-11
1.31558e-10
1.491e-10
1.19401e-10
1.67253e-10
1.96728e-10
1.56319e-10
1.329e-10
1.02235e-10
1.13952e-10
1.40801e-10
1.86116e-10
1.48423e-10
1.43216e-10
1.37871e-10
1.40023e-10
1.33016e-10
1.18101e-10
1.11258e-10
8.86933e-11
2.1746e-10
1.19337e-10
1.50703e-10
1.01394e-10
1.90885e-10
1.32682e-10
9.21223e-11
1.7586e-10
1.25379e-10
1.29078e-10
1.46386e-10
1.10566e-10
1.48637e-10
1.59713e-10
1.99973e-10
1.60392e-10
8.4331e-11
8.21664e-11
1.52914e-10
7.45565e-11
1.05459e-10
1.12857e-10
8.81435e-11
2.38949e-10
1.35387e-10
1.98605e-10
1.12453e-10
8.63204e-11
1.76151e-10
1.44105e-10
1.26004e-10
1.25634e-10
1.80892e-10
1.51454e-10
1.43359e-10
1.13891e-10
1.65548e-10
1.32723e-10
1.72313e-10
7.09005e-11
8.13289e-11
1.44239e-10
8.62895e-11
1.39043e-10
6.35338e-11
1.09685e-10
1.26941e-10
6.4232e-11
1.14449e-10
1.00848e-10
1.56591e-10
1.13151e-10
1.01837e-10
1.40638e-10
1.25738e-10
1.76848e-10
1.71452e-10
8.64817e-11
1.02811e-10
1.9513e-10
1.5953e-10
1.58453e-10
7.32123e-11
1.29655e-10
1.31238e-10
7.36479e-11
7.28128e-11
1.48936e-10
1.58556e-10
1.32472e-10
9.75134e-11
1.5458e-10
1.43972e-10
1.01386e-10
9.04181e-11
1.00219e-10
1.00562e-10
1.83422e-10
8.6633e-11
3.9868e-11
8.488e-11
8.05589e-11
7.51496e-11
6.61423e-11
1.17197e-10
1.41525e-10
5.09709e-11
1.59702e-10
1.60767e-10
8.65041e-11
7.70944e-11
6.3404e-11
8.35601e-11
1.55241e-10
1.75314e-10
1.94118e-10
9.61839e-11
1.55613e-10
1.54771e-10
9.89173e-11
8.61309e-11
1.14212e-10
1.00111e-10
8.11115e-11
6.62679e-11
1.47657e-10
1.49047e-10
1.26591e-10
1.46983e-10
1.50609e-10
1.04398e-10
1.40609e-10
1.20932e-10
7.49223e-11
1.04251e-10
1.15158e-10
1.14623e-10
1.03893e-10
5.87896e-11
1.34477e-10
1.21932e-10
8.40094e-11
9.24838e-11
9.64459e-11
1.09591e-10
7.82584e-11
8.66673e-11
1.8745e-10
1.31555e-10
1.07081e-10
1.35987e-10
1.13884e-10
1.15023e-10
1.04235e-10
6.18227e-11
1.72336e-10
1.49483e-10
1.25821e-10
1.28847e-10
6.42191e-11
1.19857e-10
1.17398e-10
8.24214e-11
1.16121e-10
1.27763e-10
1.68916e-10
1.09727e-10
4.88529e-11
1.23754e-10
1.15013e-10
1.22879e-10
1.05877e-10
1.00415e-10
1.33507e-10
1.16333e-10
1.20755e-10
1.48148e-10
6.9863e-11
1.20127e-10
1.25481e-10
7.75655e-11
9.50451e-11
1.19427e-10
9.99237e-11
1.36331e-10
9.8614e-11
9.42106e-11
9.00281e-11
1.29577e-10
1.26978e-10
1.07546e-10
1.04853e-10
1.31425e-10
6.14886e-11
8.83466e-11
1.54299e-10
5.74578e-11
1.20622e-10
7.93561e-11
9.20546e-11
5.33945e-11
1.07227e-10
1.26545e-10
9.20791e-11
7.35463e-11
1.01299e-10
6.33996e-11
1.34088e-10
2.09127e-11
1.24797e-10
1.078e-10
1.08476e-10
9.97403e-11
7.39197e-11
6.78636e-11
7.46615e-11
5.91503e-11
1.26686e-10
1.44391e-10
1.42395e-10
1.07688e-10
6.81612e-11
1.24839e-10
7.19455e-11
8.21139e-11
8.25865e-11
9.20345e-11
7.86192e-11
1.35814e-10
9.96126e-11
3.72693e-11
1.24759e-10
8.88074e-11
1.16935e-10
1.35033e-10
1.45422e-10
1.30476e-10
1.28143e-10
9.41034e-11
1.16021e-10
6.65908e-11
1.27836e-10
8.08457e-11
7.30523e-11
9.10129e-11
1.23076e-10
1.36186e-10
1.4705e-10
1.16288e-10
8.88238e-11
4.69222e-11
9.73158e-11
1.07464e-10
8.85672e-11
8.10853e-11
1.05233e-10
1.35036e-10
8.93683e-11
1.07018e-10
1.35043e-10
1.35102e-10
9.47163e-11
1.39399e-10
1.29515e-10
1.11946e-10
1.00771e-10
9.32597e-11
1.0951e-10
1.03854e-10
7.66811e-11
9.00199e-11
4.69143e-11
1.04833e-10
1.14939e-10
1.23943e-10
1.23197e-10
1.37729e-10
1.10565e-10
1.12133e-10
8.22535e-11
1.13367e-10
7.04899e-11
1.00567e-10
9.76329e-11
1.08886e-10
8.59906e-11
9.81097e-11
7.67592e-11
5.37088e-11
8.91493e-11
6.46887e-11
1.39944e-10
7.82184e-11
1.37916e-10
8.57597e-11
1.0692e-10
1.02466e-10
5.79621e-11
1.18061e-10
1.24421e-10
1.35901e-10
8.98897e-11
5.52746e-11
9.29509e-11
5.05535e-11
8.27101e-11
1.28448e-10
1.0289e-10
7.7642e-11
6.42348e-11
9.11154e-11
5.59316e-11
1.1447e-10
9.22967e-11
8.78338e-11
1.13244e-10
3.71209e-11
1.11021e-10
4.41738e-11
9.53549e-11
8.7878e-11
7.70099e-11
1.155e-10
8.70879e-11
9.58991e-11
1.15118e-10
8.27209e-11
7.24271e-11
6.34019e-11
7.72884e-11
1.16641e-10
8.05765e-11
9.1595e-11
8.01475e-11
6.39698e-11
1.0668e-10
8.63861e-11
6.22758e-11
9.52273e-11
1.24213e-10
1.27163e-10
9.50476e-11
5.01911e-11
7.97743e-11
7.23102e-11
7.9057e-11
6.2456e-11
5.39415e-11
5.06299e-11
7.74035e-11
6.00938e-11
5.28185e-11
8.16219e-11
5.53174e-11
7.22584e-11
6.60431e-11
8.94061e-11
1.22039e-10
7.76468e-11
9.44998e-11
9.5881e-11
8.25014e-11
8.23663e-11
4.1757e-11
7.84245e-11
7.8556e-11
5.9153e-11
7.81415e-11
3.7812e-11
1.04975e-10
6.12194e-11
8.58006e-11
5.35915e-11
8.06555e-11
9.05731e-11
1.26695e-10
5.23422e-11
1.08388e-10
5.6394e-11
9.88079e-11
5.5895e-11
9.94666e-11
1.27189e-10
1.29933e-10
1.29135e-10
1.15514e-10
1.01518e-10
5.34005e-11
7.96952e-11
4.54419e-11
5.85535e-11
5.30347e-11
6.80554e-11
6.15954e-11
9.6363e-11
1.00372e-10
9.84578e-11
6.89e-11
6.62362e-11
9.40675e-11
4.55051e-11
6.98868e-11
8.9164e-11
1.29435e-10
1.51235e-10
1.19023e-10
3.17832e-11
8.22702e-11
9.50163e-11
5.56182e-11
1.12669e-10
6.14259e-11
1.07355e-10
1.09075e-10
1.28712e-10
1.19529e-10
4.99618e-11
4.05505e-11
9.91786e-11
6.76777e-11
1.14281e-10
4.33986e-11
9.85231e-11
4.4912e-11
7.96457e-11
1.01617e-10
9.04165e-11
5.68496e-11
6.74267e-11
4.37661e-11
5.33081e-11
7.1691e-11
7.06667e-11
8.18194e-11
7.40271e-11
7.99758e-11
3.47429e-11
4.40057e-11
1.11747e-10
1.02586e-10
4.8133e-11
5.71869e-11
9.44195e-11
5.46707e-11
8.23208e-11
8.24602e-11
1.00762e-10
9.05789e-11
7.86074e-11
4.58577e-11
6.89536e-11
8.06562e-11
3.69516e-11
5.7485e-11
8.87785e-11
6.46143e-11
5.03252e-11
8.24898e-11
1.16488e-10
1.35861e-10
1.01882e-10
7.56218e-11
8.54974e-11
5.94215e-11
6.03764e-11
6.68567e-11
1.22953e-10
9.81495e-11
6.43938e-11
5.91927e-11
7.56946e-11
4.48603e-11
7.14961e-11
7.03256e-11
5.0096e-11
6.41264e-11
1.01414e-10
1.35876e-10
8.31784e-11
6.43828e-11
8.36043e-11
1.07737e-10
1.00692e-10
6.56603e-11
3.50841e-11
6.61795e-11
1.06912e-10
7.96905e-11
3.38024e-11
1.17682e-10
7.8955e-11
5.21827e-11
9.95775e-11
3.47765e-11
8.60822e-11
4.94699e-11
8.61709e-11
8.83045e-11
7.00355e-11
6.25895e-11
7.43588e-11
6.66542e-11
9.14875e-11
6.11098e-11
3.95077e-11
9.3373e-11
6.36597e-11
6.39027e-11
9.07915e-11
8.28382e-11
1.22382e-10
5.5859e-11
5.22509e-11
5.63042e-11
5.74339e-11
3.11416e-11
6.59399e-11
6.75816e-11
7.07426e-11
4.66635e-11
9.20518e-11
7.74462e-11
6.28427e-11
8.58318e-11
7.00503e-11
7.47466e-11
6.54579e-11
3.19761e-11
6.1245e-11
6.2038e-11
7.63036e-11
6.20554e-11
6.77953e-11
7.91792e-11
4.07541e-11
6.60242e-11
5.70014e-11
7.60795e-11
6.56208e-11
6.01374e-11
3.56067e-11
6.02816e-11
6.08248e-11
9.03245e-11
3.30278e-11
5.3217e-11
6.71176e-11
5.76475e-11
8.04332e-11
8.15066e-11
1.08601e-10
1.27476e-10
5.86117e-11
5.23357e-11
4.67814e-11
7.58714e-11
4.72057e-11
7.39473e-11
7.04241e-11
6.46043e-11
5.01215e-11
8.02359e-11
6.26748e-11
4.09679e-11
4.30778e-11
5.2612e-11
5.39461e-11
3.5943e-11
2.97793e-11
4.84921e-11
5.17396e-11
6.98519e-11
7.84313e-11
6.8889e-11
6.80979e-11
7.21897e-11
5.94195e-11
5.1313e-11
3.34679e-11
8.8387e-11
4.27385e-11
4.65047e-11
1.00191e-10
9.15604e-11
3.18992e-11
1.28548e-10
1.62874e-10
9.83982e-11
8.51593e-11
5.1352e-11
1.23694e-10
7.17028e-11
1.36079e-10
3.65457e-11
5.83514e-11
4.56181e-11
4.73164e-11
5.3632e-11
5.33692e-11
3.63551e-11
5.8329e-11
4.19973e-11
6.2946e-11
7.69382e-11
4.6752e-11
6.08534e-11
1.94319e-11
6.88668e-11
5.05821e-11
3.79052e-11
6.9602e-11
5.91498e-11
4.63548e-11
6.72835e-11
1.0759e-10
6.42276e-11
8.87909e-11
9.92946e-11
5.59757e-11
4.09832e-11
1.0231e-10
9.36591e-11
8.53525e-11
5.6557e-11
9.90189e-11
1.04427e-10
1.02888e-10
5.44578e-11
1.37737e-10
1.34512e-10
8.06985e-11
8.8803e-11
3.08812e-11
5.90075e-11
2.62375e-11
5.3963e-11
4.3932e-11
4.88924e-11
7.02341e-11
6.75988e-11
4.40945e-11
6.12378e-11
5.65925e-11
6.48642e-11
4.54816e-11
6.61236e-11
3.96145e-11
5.26444e-11
4.01524e-11
5.54481e-11
4.22797e-11
3.91437e-11
6.22813e-11
6.96412e-11
6.33271e-11
5.96457e-11
5.27621e-11
8.74257e-11
8.54149e-11
7.43395e-11
8.08462e-11
8.23806e-11
5.68136e-11
8.64159e-11
3.55318e-11
7.65571e-11
6.24851e-11
4.03433e-11
6.29249e-11
8.73166e-11
9.4763e-11
5.29934e-11
8.18959e-11
7.28045e-11
4.063e-11
6.03604e-11
5.14386e-11
4.79747e-11
5.99715e-11
5.86716e-11
7.65201e-11
2.51054e-11
2.63688e-11
3.37858e-11
5.57267e-11
2.13006e-11
4.72944e-11
9.40008e-11
8.18257e-11
6.83753e-11
6.98355e-11
7.12183e-11
6.8219e-11
6.44913e-11
4.27624e-11
6.80811e-11
9.99389e-11
8.84899e-11
2.80996e-11
7.31627e-11
6.31073e-11
6.3837e-11
4.69576e-11
3.79151e-11
9.71319e-11
4.6711e-11
5.03215e-11
3.06107e-11
6.16339e-11
1.16653e-10
6.40681e-11
7.52662e-11
6.96882e-11
4.92266e-11
5.3403e-11
5.43215e-11
3.97027e-11
2.00355e-11
5.99916e-11
4.9751e-11
6.49013e-11
3.61359e-11
3.31818e-11
4.80255e-11
5.16133e-11
5.95047e-11
4.26969e-11
7.70705e-11
5.05829e-11
6.52042e-11
3.99086e-11
3.72441e-11
5.60081e-11
5.52889e-11
4.65296e-11
4.70707e-11
6.06211e-11
5.73797e-11
7.72686e-11
5.48068e-11
2.99551e-11
8.69626e-11
6.86726e-11
5.07815e-11
7.07044e-11
8.63791e-11
5.43742e-11
5.19219e-11
3.83257e-11
3.22798e-11
3.84061e-11
4.14332e-11
8.73236e-11
4.22405e-11
3.86025e-11
3.29965e-11
4.58011e-11
2.32188e-11
3.87522e-11
3.94806e-11
3.97992e-11
5.27481e-11
3.98007e-11
4.35076e-11
3.86166e-11
7.71051e-11
8.03066e-11
2.73649e-11
3.2035e-11
6.27821e-11
6.63659e-11
4.99895e-11
3.54434e-11
6.10681e-11
5.84888e-11
2.6947e-11
7.14169e-11
4.61772e-11
3.69605e-11
5.54025e-11
5.45289e-11
6.9542e-11
5.86744e-11
5.43102e-11
4.2013e-11
6.21317e-11
8.51077e-11
4.01687e-11
7.36185e-11
5.11414e-11
8.02332e-11
6.07851e-11
3.07175e-11
6.67209e-11
6.50949e-11
7.82848e-11
5.61397e-11
3.29027e-11
4.10225e-11
4.76461e-11
5.24468e-11
4.25732e-11
5.53492e-11
2.50825e-11
3.83767e-11
4.01891e-11
4.21799e-11
4.45579e-11
6.0046e-11
5.58253e-11
6.53709e-11
4.41193e-11
5.87191e-11
3.96019e-11
7.29315e-11
5.99495e-11
3.17295e-11
6.11334e-11
7.25408e-11
5.8863e-11
5.62635e-11
2.93563e-11
5.86701e-11
6.83958e-11
1.89338e-11
2.44586e-11
3.80426e-11
6.67431e-11
4.15941e-11
6.02663e-11
8.93841e-11
4.03181e-11
6.19765e-11
9.49275e-11
1.09931e-10
2.30361e-11
6.64216e-11
7.26824e-11
4.51044e-11
4.00627e-11
3.26811e-11
2.84576e-11
3.87503e-11
3.64724e-11
3.13594e-11
5.33717e-11
4.94859e-11
4.34516e-11
4.40292e-11
4.59225e-11
6.03835e-11
4.2598e-11
4.6733e-11
3.83164e-11
5.67716e-11
6.22638e-11
2.77198e-11
5.29462e-11
3.03594e-11
3.39353e-11
5.21319e-11
5.91671e-11
5.45189e-11
6.72561e-11
6.16433e-11
4.72374e-11
4.15104e-11
3.73733e-11
2.46719e-11
7.79198e-11
5.27289e-11
5.71918e-11
6.16627e-11
3.26888e-11
5.54838e-11
6.40003e-11
4.32321e-11
6.5497e-11
6.13642e-11
5.19892e-11
2.65805e-11
3.13628e-11
4.23111e-11
3.11311e-11
5.04589e-11
3.77864e-11
4.04539e-11
3.05206e-11
1.30576e-11
2.07982e-11
3.13334e-11
4.43677e-11
5.39591e-11
3.85535e-11
3.87168e-11
2.60373e-11
2.04865e-11
5.58212e-11
1.74449e-11
2.24156e-11
4.5982e-11
5.2361e-11
4.98236e-11
3.54038e-11
4.82473e-11
3.83504e-11
3.75552e-11
1.04526e-11
3.65667e-11
4.52295e-11
3.70855e-11
5.47158e-11
7.02868e-11
5.09473e-11
7.60526e-11
5.62065e-11
5.71896e-11
7.19399e-11
8.51949e-11
4.50478e-11
3.65149e-11
4.36167e-11
3.18423e-11
2.21116e-11
1.35559e-11
4.14034e-11
2.34492e-11
3.76438e-11
4.0625e-11
3.88442e-11
3.22823e-11
2.79239e-11
4.66417e-11
5.46603e-11
5.49721e-11
3.89707e-11
4.0726e-11
5.3385e-11
2.24345e-11
3.42233e-11
5.49602e-11
4.53698e-11
5.25012e-11
3.5297e-11
4.95433e-11
2.63883e-11
2.62786e-11
5.00599e-11
7.32744e-11
2.47279e-11
7.10707e-11
3.66674e-11
3.03841e-11
5.34298e-11
1.05191e-10
4.57201e-11
4.03063e-11
4.63481e-11
2.66691e-11
7.21498e-11
6.03414e-11
7.34773e-11
4.34085e-11
5.39163e-11
2.89404e-11
2.25796e-11
4.41757e-11
3.50852e-11
4.47263e-11
3.38941e-11
5.01361e-11
2.73236e-11
4.37004e-11
5.11168e-11
2.63903e-11
4.60274e-11
4.37921e-11
4.05104e-11
4.16603e-11
4.58613e-11
4.67789e-11
3.53593e-11
5.96153e-11
4.29892e-11
3.91469e-11
3.39395e-11
5.89113e-11
4.32799e-11
2.72757e-11
6.79053e-11
4.85636e-11
5.94708e-11
5.1088e-11
7.03405e-11
8.57936e-11
7.23236e-11
6.75684e-11
6.66538e-11
5.10253e-11
6.09051e-11
3.93794e-11
2.23675e-11
7.72909e-11
2.17136e-11
1.2064e-11
3.68998e-11
3.50751e-11
3.41166e-11
3.86858e-11
5.27913e-11
4.20092e-11
4.75577e-11
4.76081e-11
4.4502e-11
3.21951e-11
5.84791e-11
4.8591e-11
5.05775e-11
4.98449e-11
2.96389e-11
5.55827e-11
4.83893e-11
3.23206e-11
3.28438e-11
5.8744e-11
5.88802e-11
3.92071e-11
7.57918e-11
5.37199e-11
4.45294e-11
3.14099e-11
7.61311e-11
8.80717e-11
6.74616e-11
7.17462e-11
4.80408e-11
5.26311e-11
5.60557e-11
5.06609e-11
8.54525e-11
4.9113e-11
5.28648e-11
5.67639e-11
5.87875e-11
3.3283e-11
2.71755e-11
4.32409e-11
4.56445e-11
3.04993e-11
3.53077e-11
2.08052e-11
4.04656e-11
4.62863e-11
2.99776e-11
4.08422e-11
3.19436e-11
3.87114e-11
3.38914e-11
5.04047e-11
2.42251e-11
5.41385e-11
2.54021e-11
4.41383e-11
4.64501e-11
7.30497e-11
4.55256e-11
3.31782e-11
6.76943e-11
4.93852e-11
5.0139e-11
5.79605e-11
3.23178e-11
5.26969e-11
3.12285e-11
2.36259e-11
6.72459e-11
5.64953e-11
5.7355e-11
5.5324e-11
3.0897e-11
5.63645e-11
5.22352e-11
8.44799e-11
8.45972e-11
1.06822e-10
4.23116e-11
1.52671e-11
3.57186e-11
4.59618e-11
2.70945e-11
3.86931e-11
4.11145e-11
3.88951e-11
3.17801e-11
3.39631e-11
3.52737e-11
2.67985e-11
2.17775e-11
2.79755e-11
4.76725e-11
3.99791e-11
4.01023e-11
5.3001e-11
3.05066e-11
1.77613e-11
5.40126e-11
6.00879e-11
4.70145e-11
2.66101e-11
2.93255e-11
3.40857e-11
6.41924e-11
3.76956e-11
5.35042e-11
6.1866e-11
5.18563e-11
4.35932e-11
1.03691e-10
5.80415e-11
3.82483e-11
3.97673e-11
6.08172e-11
5.87305e-11
6.29604e-11
6.81209e-11
7.70927e-11
1.05774e-11
3.15515e-11
3.40513e-11
4.52959e-11
3.09252e-11
2.66766e-11
3.43787e-11
2.5505e-11
1.97185e-11
3.07015e-11
4.17183e-11
3.90738e-11
2.92536e-11
3.40063e-11
3.51459e-11
3.66313e-11
3.22765e-11
5.12759e-11
5.72554e-11
2.34221e-11
5.84672e-11
4.55076e-11
3.82339e-11
4.58423e-11
1.80145e-11
4.75472e-11
3.35384e-11
2.69492e-11
3.40512e-11
2.07982e-11
4.13071e-11
3.98532e-11
5.79655e-11
4.79305e-11
4.53711e-11
7.45767e-11
3.76725e-11
6.99999e-11
6.34419e-11
7.20349e-11
9.23931e-11
2.96605e-11
2.76681e-11
2.80508e-11
2.24313e-11
2.49095e-11
2.95255e-11
2.92755e-11
2.61072e-11
4.11217e-11
2.77966e-11
3.37859e-11
3.78022e-11
2.37718e-11
3.19021e-11
2.27187e-11
4.9442e-11
2.52925e-11
4.48525e-11
6.2855e-11
3.15509e-11
3.64551e-11
3.06937e-11
4.92427e-11
2.35781e-11
5.29617e-11
4.38782e-11
3.41095e-11
4.07782e-11
3.62483e-11
6.59506e-11
3.44378e-11
4.06002e-11
5.14691e-11
2.4748e-11
4.72165e-11
7.90177e-11
5.07418e-11
4.9001e-11
6.01173e-11
4.83457e-11
4.64478e-11
1.81708e-11
2.91144e-11
2.53337e-11
2.87329e-11
3.3722e-11
2.72844e-11
1.54647e-11
3.06318e-11
3.8702e-11
4.03034e-11
3.31552e-11
2.56352e-11
2.9562e-11
2.87384e-11
4.10901e-11
3.14498e-11
3.98235e-11
3.11444e-11
3.9711e-11
4.32208e-11
4.36543e-11
3.40928e-11
3.89972e-11
2.62831e-11
2.3323e-11
4.09592e-11
2.74642e-11
2.46355e-11
3.93876e-11
3.81645e-11
3.47975e-11
5.03801e-11
6.34485e-11
2.49966e-11
3.15417e-11
4.05597e-11
5.26973e-11
8.43755e-11
7.24822e-11
4.57654e-11
2.85169e-11
2.03002e-11
1.42359e-11
3.59272e-11
2.78253e-11
1.44172e-11
2.30746e-11
1.63545e-11
2.99469e-11
1.76083e-11
2.77111e-11
2.62813e-11
2.30829e-11
2.33468e-11
1.96038e-11
1.38814e-11
3.17716e-11
3.06449e-11
4.39489e-11
4.98932e-11
4.31713e-11
2.86193e-11
4.1305e-11
2.81116e-11
3.92666e-11
4.85434e-11
7.60865e-11
8.74771e-11
3.88309e-11
8.16842e-11
2.81726e-11
5.41418e-11
2.18082e-11
4.57846e-11
6.04778e-11
4.0782e-11
5.77708e-11
6.93261e-11
4.31263e-11
4.33431e-11
8.5167e-11
7.13078e-11
2.11429e-11
2.53805e-11
4.10074e-11
2.52778e-11
2.98062e-11
3.25442e-11
1.34732e-11
1.63651e-11
3.64624e-11
2.1221e-11
3.89018e-11
3.32417e-11
2.62912e-11
3.73412e-11
2.14654e-11
2.785e-11
2.63654e-11
2.30587e-11
3.34605e-11
2.52256e-11
3.34305e-11
4.84086e-11
2.61319e-11
2.65717e-11
4.98282e-11
5.12508e-11
5.11768e-11
2.72734e-11
5.30851e-11
8.67319e-11
6.9019e-11
6.22443e-11
3.93766e-11
5.58223e-11
7.39395e-11
7.71247e-11
6.3428e-11
5.93729e-11
3.8074e-11
6.42581e-11
6.87967e-11
2.77476e-11
2.29946e-11
3.6568e-11
3.26129e-11
2.29532e-11
2.47993e-11
2.33926e-11
2.21377e-11
3.52196e-11
2.8294e-11
2.5656e-11
2.42714e-11
2.12132e-11
1.80833e-11
2.63075e-11
4.79332e-11
3.9664e-11
1.9309e-11
3.7597e-11
1.18529e-11
1.77747e-11
2.91894e-11
4.03803e-11
5.15966e-11
1.26104e-11
4.87367e-11
3.68823e-11
4.06472e-11
1.87076e-11
6.46792e-11
6.98491e-11
6.98952e-11
5.08541e-11
2.55419e-11
5.27411e-11
4.93685e-11
3.49875e-11
4.84631e-11
3.7285e-11
5.32447e-11
6.61896e-11
2.336e-11
2.43608e-11
2.67914e-11
2.61607e-11
2.30512e-11
1.88306e-11
2.65001e-11
3.60704e-11
2.69801e-11
1.37064e-11
2.89829e-11
2.96041e-11
2.95835e-11
3.51552e-11
3.08183e-11
3.84895e-11
3.27764e-11
1.07274e-11
2.49279e-11
4.22248e-11
1.66399e-11
3.13979e-11
2.29109e-11
3.76769e-11
3.37352e-11
4.76957e-11
5.23935e-11
6.78076e-11
5.86684e-11
2.48062e-11
4.39054e-11
1.75315e-11
6.48562e-11
3.96325e-11
5.02938e-11
7.96096e-11
4.2125e-11
2.69233e-11
4.9587e-11
4.30087e-11
3.70856e-11
2.20304e-11
2.2354e-11
3.38445e-11
2.58736e-11
2.54536e-11
1.93026e-11
2.3962e-11
2.53078e-11
3.02289e-11
2.26592e-11
2.38523e-11
2.26423e-11
3.03765e-11
2.23683e-11
3.29408e-11
1.59785e-11
2.7938e-11
2.7086e-11
1.76273e-11
4.09931e-11
3.78482e-11
4.99517e-11
5.18951e-11
5.08118e-11
2.70437e-11
2.2691e-11
2.92697e-11
5.32564e-11
1.30689e-11
4.8805e-11
4.10877e-11
2.0943e-11
8.72019e-11
3.8464e-11
2.96168e-11
5.90755e-11
3.39041e-11
6.59784e-11
2.30632e-11
7.24177e-11
2.18733e-11
1.74203e-11
2.06808e-11
2.55468e-11
2.29313e-11
2.05022e-11
1.20693e-11
1.14631e-11
2.63394e-11
2.19234e-11
1.56972e-11
3.23321e-11
2.20808e-11
3.61495e-11
2.10897e-11
1.79303e-11
3.35361e-11
2.8312e-11
3.27331e-11
3.8725e-11
1.51949e-11
4.552e-11
1.82293e-11
2.41705e-11
3.44725e-11
4.32513e-11
2.0716e-11
4.93504e-11
3.24069e-11
2.90994e-11
5.0551e-11
5.75167e-11
2.52681e-11
5.84864e-11
3.36624e-11
3.64572e-11
3.72118e-11
5.95781e-11
3.62132e-11
6.62325e-11
3.77426e-11
1.63371e-11
2.33861e-11
2.95429e-11
2.03901e-11
2.93087e-11
2.11162e-11
1.5172e-11
2.50904e-11
2.23671e-11
1.81655e-11
1.89496e-11
1.86121e-11
2.84565e-11
2.04626e-11
2.37721e-11
1.52744e-11
1.63521e-11
3.66245e-11
3.25243e-11
2.42024e-11
4.08971e-11
4.65884e-11
2.75768e-11
4.07528e-11
2.30026e-11
3.28669e-11
3.05114e-11
3.41384e-11
5.89938e-11
5.30589e-11
2.86355e-11
5.7372e-11
4.51406e-11
2.40815e-11
3.8135e-11
5.72272e-11
2.50416e-11
4.64352e-11
4.02688e-11
3.39249e-11
4.53521e-11
6.85224e-11
1.70081e-11
1.29691e-11
2.03043e-11
1.88252e-11
2.82538e-11
1.63272e-11
2.64709e-11
2.7617e-11
2.35081e-11
2.12723e-11
2.92039e-11
1.6054e-11
1.78625e-11
1.87429e-11
1.65438e-11
2.9823e-11
3.54197e-11
4.17061e-11
2.49122e-11
3.37554e-11
2.52138e-11
1.50633e-11
3.16323e-11
3.44802e-11
2.53003e-11
1.31406e-11
1.69259e-11
4.58531e-11
2.05084e-11
1.84858e-11
4.65858e-11
4.23914e-11
2.23764e-11
6.28048e-11
6.15073e-11
6.20144e-11
2.65635e-11
1.6094e-11
5.28448e-11
4.77291e-11
6.16334e-11
1.4813e-11
1.76337e-11
2.58015e-11
1.49941e-11
2.27115e-11
1.55827e-11
2.67125e-11
1.71865e-11
1.22036e-11
1.13898e-11
2.66444e-11
1.07085e-11
2.05293e-11
2.73618e-11
1.75083e-11
2.25796e-11
3.27308e-11
1.60164e-11
2.68553e-11
2.13642e-11
2.14659e-11
3.67711e-11
1.97958e-11
2.28206e-11
3.48381e-11
5.13401e-11
3.13166e-11
4.54363e-11
4.01948e-11
2.88119e-11
4.30835e-11
3.27877e-11
5.60231e-11
1.33531e-11
3.40976e-11
5.70046e-11
5.99593e-11
7.2779e-11
3.61504e-11
3.22368e-11
6.93058e-11
1.67984e-11
2.05937e-11
1.95611e-11
1.60884e-11
1.70436e-11
1.97642e-11
1.54371e-11
1.46082e-11
1.63696e-11
2.1166e-11
1.5043e-11
1.8609e-11
2.07257e-11
1.77249e-11
2.63075e-11
8.60331e-12
2.08426e-11
3.15747e-11
2.88879e-11
4.63971e-11
3.28398e-11
2.10707e-11
1.80896e-11
4.51249e-11
3.69005e-11
1.10568e-11
2.55857e-11
1.80803e-11
3.86331e-11
4.07503e-11
5.07848e-11
5.82713e-11
5.41727e-11
4.19819e-11
8.11981e-11
5.64399e-11
5.6186e-11
7.17195e-11
6.25941e-11
3.61298e-11
2.50523e-11
1.79313e-11
1.05504e-11
2.04936e-11
2.07429e-11
2.11155e-11
1.578e-11
1.94968e-11
1.22059e-11
1.98313e-11
2.27631e-11
1.71597e-11
1.88212e-11
2.2145e-11
1.10114e-11
1.38772e-11
2.94945e-11
3.21886e-11
1.22283e-11
3.99394e-11
2.15905e-11
2.36254e-11
4.56558e-11
4.00578e-11
3.81446e-11
2.91863e-11
4.46455e-11
3.73011e-11
1.92542e-11
4.75953e-11
3.83512e-11
4.61965e-11
5.40749e-11
3.55059e-11
3.84541e-11
4.18091e-11
2.70408e-11
2.57342e-11
2.27645e-11
6.63219e-11
6.68804e-11
1.09928e-10
1.99136e-11
1.24782e-11
2.06331e-11
1.34525e-11
2.11054e-11
2.16382e-11
2.30603e-11
2.00086e-11
2.47619e-11
2.13478e-11
1.67394e-11
1.76044e-11
2.42256e-11
3.1169e-11
2.27398e-11
1.55276e-11
1.59583e-11
3.39281e-11
2.18307e-11
1.6597e-11
3.94224e-11
1.94524e-11
1.91478e-11
2.97478e-11
9.74328e-12
2.51494e-11
5.07428e-11
2.75429e-11
6.846e-11
4.80292e-11
5.46227e-11
2.78147e-11
5.41638e-11
4.27305e-11
4.16101e-11
3.08828e-11
4.54147e-11
9.82511e-11
7.27348e-11
7.19372e-11
5.48934e-11
8.18428e-11
1.08462e-10
1.19723e-10
1.14986e-10
1.91278e-10
1.9077e-10
6.21383e-11
1.64072e-10
6.11372e-11
1.53115e-10
9.54849e-11
1.63138e-10
1.49596e-10
1.26204e-10
1.45105e-10
4.79477e-11
6.16001e-11
2.14746e-10
1.37173e-10
1.12976e-10
1.63235e-10
7.118e-11
8.19501e-11
1.28568e-10
1.36472e-10
7.1414e-11
1.20688e-10
1.96774e-10
9.95303e-11
6.81488e-11
7.84891e-11
6.16692e-11
1.7655e-10
1.32745e-10
6.21446e-11
5.63207e-11
3.8214e-11
3.74609e-11
1.12965e-10
9.50891e-11
3.32219e-11
9.19979e-11
1.491e-10
6.39622e-11
3.56923e-11
4.90473e-11
1.25518e-10
9.53064e-11
7.52031e-11
9.17789e-11
4.26757e-11
4.38975e-11
3.24137e-11
7.34091e-11
4.49497e-11
3.48302e-11
5.31959e-11
2.79892e-11
1.033e-10
4.43108e-11
6.18775e-11
1.24942e-10
5.60069e-11
5.39778e-11
3.53872e-11
7.6808e-11
4.03574e-11
7.16513e-11
3.34688e-11
5.19164e-11
2.29549e-11
5.15653e-11
1.78369e-11
4.29421e-11
1.01917e-10
8.75242e-11
1.19722e-10
9.18047e-11
1.70372e-10
1.73208e-10
4.27006e-11
1.52131e-10
1.1606e-10
1.36574e-10
7.36229e-11
1.52629e-10
1.39038e-10
1.17288e-10
1.32898e-10
5.63561e-11
7.44899e-11
8.87833e-11
1.32187e-10
1.06354e-10
1.55379e-10
8.25688e-11
8.5495e-11
1.2203e-10
1.25124e-10
8.66007e-11
1.15505e-10
1.075e-10
9.9649e-11
6.56829e-11
7.2893e-11
5.86022e-11
7.23861e-11
1.26642e-10
5.95226e-11
5.64543e-11
2.86134e-11
4.52315e-11
1.07671e-10
9.02361e-11
6.40645e-11
8.65387e-11
8.29421e-11
6.18975e-11
4.31798e-11
4.53077e-11
7.02357e-11
9.15297e-11
7.20131e-11
8.88165e-11
5.45276e-11
3.85149e-11
3.12024e-11
7.14063e-11
4.39126e-11
2.7801e-11
5.22421e-11
3.21437e-11
5.88298e-11
4.21007e-11
5.99937e-11
7.00773e-11
5.43635e-11
5.32949e-11
3.46222e-11
4.06186e-11
3.81585e-11
3.67954e-11
3.28032e-11
5.09241e-11
2.67647e-11
5.04123e-11
1.41429e-11
4.28113e-11
4.2233e-11
6.83847e-11
9.37343e-11
9.56852e-11
1.58662e-10
1.59035e-10
1.38542e-10
1.45045e-10
5.85308e-11
1.28972e-10
7.81212e-11
1.36354e-10
1.28618e-10
1.19402e-10
1.22659e-10
9.74255e-11
7.03116e-11
7.91956e-11
1.22491e-10
9.48524e-11
1.43554e-10
8.36324e-11
7.89694e-11
1.11573e-10
1.18702e-10
7.00298e-11
1.06812e-10
1.01762e-10
8.99172e-11
6.39961e-11
6.8479e-11
5.85441e-11
6.4003e-11
1.19376e-10
5.20515e-11
5.04267e-11
2.78942e-11
3.07985e-11
1.01798e-10
8.59949e-11
3.43857e-11
8.3297e-11
7.92049e-11
6.08146e-11
3.44501e-11
4.81123e-11
6.80874e-11
8.72324e-11
6.91064e-11
8.50199e-11
4.17024e-11
3.82775e-11
2.99123e-11
6.8886e-11
4.11447e-11
2.62485e-11
4.98476e-11
2.92106e-11
5.67783e-11
3.85861e-11
5.69573e-11
6.52377e-11
5.20591e-11
5.04698e-11
3.3422e-11
3.87443e-11
3.74975e-11
3.58526e-11
3.18779e-11
4.96185e-11
2.07239e-11
4.94889e-11
2.14515e-11
4.09016e-11
1.5732e-10
7.73963e-11
1.0833e-10
7.64848e-11
1.44816e-10
1.44637e-10
3.43524e-11
1.34391e-10
4.98974e-11
1.19885e-10
7.67431e-11
1.34882e-10
1.17576e-10
9.83377e-11
1.14734e-10
3.81148e-11
5.41206e-11
8.31613e-11
1.08076e-10
9.12662e-11
1.32545e-10
5.93149e-11
6.69723e-11
1.06736e-10
1.10238e-10
6.65941e-11
9.95341e-11
1.00164e-10
8.3912e-11
6.11105e-11
7.16895e-11
6.29806e-11
6.02634e-11
1.12463e-10
5.51691e-11
5.13746e-11
3.32892e-11
4.98754e-11
9.56937e-11
8.1401e-11
4.77571e-11
7.96952e-11
7.45733e-11
5.7844e-11
3.43002e-11
4.30022e-11
6.53039e-11
8.36734e-11
6.59402e-11
8.08135e-11
3.72815e-11
4.09378e-11
3.01338e-11
6.58334e-11
4.17986e-11
2.66554e-11
4.89014e-11
2.78038e-11
5.42654e-11
3.86824e-11
5.49906e-11
6.38506e-11
5.03995e-11
4.85694e-11
3.17565e-11
3.7176e-11
3.5657e-11
3.48501e-11
3.03606e-11
4.7348e-11
1.98698e-11
4.7291e-11
1.4234e-11
4.15193e-11
8.53661e-11
9.296e-11
7.2424e-11
9.35819e-11
1.30043e-10
1.30187e-10
7.1877e-11
1.23532e-10
8.7885e-11
1.27786e-10
6.01089e-11
1.17887e-10
1.1307e-10
9.05634e-11
1.15247e-10
5.60406e-11
4.52321e-11
7.80712e-11
9.98131e-11
8.34942e-11
1.23155e-10
4.40864e-11
6.60869e-11
9.80675e-11
1.0606e-10
5.79137e-11
9.35792e-11
9.30215e-11
8.26649e-11
5.29197e-11
6.11726e-11
5.08258e-11
5.48995e-11
1.05604e-10
4.65644e-11
4.61682e-11
3.11326e-11
2.9261e-11
9.24986e-11
7.77728e-11
2.49058e-11
7.48333e-11
7.04122e-11
5.77488e-11
3.90222e-11
4.86626e-11
6.09329e-11
7.92894e-11
6.26078e-11
7.71646e-11
3.56674e-11
3.84054e-11
3.38609e-11
6.29938e-11
4.12693e-11
3.39954e-11
4.59131e-11
3.06872e-11
5.24673e-11
3.41513e-11
5.27685e-11
6.132e-11
4.89526e-11
4.68716e-11
3.41479e-11
3.91953e-11
3.41751e-11
3.33054e-11
2.89088e-11
4.55398e-11
2.01619e-11
4.62474e-11
1.55938e-11
3.94845e-11
3.22301e-11
8.07501e-11
7.75781e-11
7.5538e-11
1.22547e-10
1.22742e-10
3.72295e-11
1.13674e-10
4.42541e-11
1.00007e-10
6.19319e-11
1.1838e-10
9.54404e-11
9.02255e-11
9.56991e-11
7.36221e-11
4.92814e-11
8.97731e-11
9.84212e-11
1.00447e-10
1.14336e-10
6.33064e-11
5.74768e-11
9.24889e-11
9.37719e-11
4.90292e-11
8.50562e-11
8.57932e-11
7.23034e-11
5.508e-11
5.88352e-11
4.51397e-11
5.29824e-11
9.93756e-11
6.43027e-11
4.87938e-11
3.23598e-11
3.02801e-11
8.61323e-11
7.36095e-11
4.90079e-11
7.40627e-11
6.92954e-11
5.18312e-11
2.64433e-11
3.73792e-11
6.17785e-11
7.69592e-11
6.03317e-11
7.50776e-11
3.68846e-11
3.42895e-11
3.83325e-11
6.14445e-11
3.72609e-11
2.69873e-11
4.43296e-11
2.35839e-11
5.02907e-11
3.78003e-11
5.2222e-11
5.90182e-11
4.808e-11
4.61573e-11
3.09824e-11
3.74069e-11
3.45193e-11
3.39155e-11
2.86026e-11
4.51128e-11
1.86802e-11
4.46574e-11
1.10068e-11
3.89434e-11
7.80957e-11
7.81078e-11
7.04262e-11
6.46607e-11
1.12924e-10
1.1082e-10
4.83385e-11
1.11119e-10
7.10539e-11
9.74066e-11
4.75583e-11
1.01309e-10
9.87601e-11
7.5624e-11
8.69738e-11
4.3582e-11
3.96976e-11
5.88809e-11
1.01825e-10
6.79147e-11
1.0528e-10
6.40101e-11
6.13319e-11
9.09782e-11
8.89236e-11
8.39909e-11
8.67611e-11
7.66512e-11
6.68217e-11
4.67235e-11
5.18977e-11
4.52799e-11
4.94177e-11
9.40931e-11
4.37151e-11
4.02964e-11
2.52844e-11
4.71986e-11
8.4436e-11