/*--------------------------------*- C++ -*----------------------------------*\
| =========                 |                                                 |
| \\      /  F ield         | OpenFOAM: The Open Source CFD Toolbox           |
|  \\    /   O peration     | Version:  2312                                  |
|   \\  /    A nd           | Website:  www.openfoam.com                      |
|    \\/     M anipulation  |                                                 |
\*---------------------------------------------------------------------------*/
FoamFile
{
    version     2.0;
    format      ascii;
    arch        "LSB;label=32;scalar=64";
    class       volScalarField;
    location    "0";
    object      turbulenceProperties:epsilon;
}
// * * * * * * * * * * * * * * * * * * * * * * * * * * * * * * * * * * * * * //

dimensions      [0 2 -3 0 0 0 0];

internalField   nonuniform List<scalar> 
11040
(
303.123
288.787
285.333
278.73
269.762
260.614
252.5
245.84
240.615
236.622
233.68
231.575
230.102
229.086
228.354
227.76
227.188
226.523
225.693
224.614
223.266
221.286
218.51
215.428
212.293
209.101
205.886
202.66
199.447
196.258
193.11
190.013
186.974
184.01
181.133
178.336
175.617
173.009
170.498
168.094
165.777
5.65272e-32
2.86739e-30
9.38513e-31
2.28331e-30
1.16445e-31
2.2736e-30
1.87909e-30
3.29157e-31
7.06694e-31
1.10233e-30
2.37439e-30
2.57525e-31
2.12526e-31
9.10771e-30
3.24666e-30
4.62948e-31
1.34372e-30
8.91502e-31
1.79834e-30
1.30749e-30
2.65771e-30
1.34813e-30
2.02354e-31
4.67286e-31
5.67082e-31
2.69085e-31
4.85936e-32
3.77971e-30
6.95089e-31
3.28979e-31
2.12567e-30
2.99179e-30
5.20404e-31
1.3455e-30
3.27099e-30
4.27607e-31
1.66863e-30
7.8186e-31
2.23846e-30
6.90169e-31
2.40489e-30
6.33284e-31
2.16308e-30
1.34887e-30
3.22239e-30
1.07959e-30
1.67826e-31
2.60703e-30
1.05085e-30
5.89458e-31
8.02183e-30
8.74969e-31
9.01793e-32
1.61658e-30
1.45414e-30
2.53242e-31
1.4353e-30
1.59407e-31
3.13546e-31
2.87341e-30
2.05438e-30
8.36e-30
3.80426e-30
1.20625e-30
1.94046e-31
2.11196e-31
2.21262e-30
1.25562e-30
1.70023e-30
3.45654e-30
2.41184e-31
5.4567e-31
8.32665e-32
6.51545e-31
3.74954e-31
7.80811e-31
9.71606e-31
2.91744e-31
7.72777e-31
2.43343e-30
3.47576e-30
2.25286e-30
1.50274e-30
1.81976e-30
1.61526e-30
2.02357e-31
4.35299e-31
5.24274e-30
4.0684e-30
5.49857e-32
6.1033e-31
1.84015e-30
2.61328e-30
1.02845e-30
5.60681e-32
7.00634e-31
1.68962e-30
2.71751e-32
6.83623e-31
7.35064e-32
8.51228e-31
2.51316e-30
9.48178e-31
2.48901e-30
2.09234e-30
4.71649e-31
8.62335e-31
1.07813e-29
1.93926e-31
1.85135e-30
3.36794e-30
1.19797e-30
2.74452e-31
4.92104e-31
4.936e-32
1.47146e-30
1.11148e-30
3.1312e-31
2.00087e-30
4.71286e-31
2.80836e-31
1.40938e-31
1.38059e-31
1.90058e-30
1.82271e-30
9.83894e-31
7.61531e-31
9.68294e-31
6.67088e-31
1.43821e-30
1.58573e-31
2.48135e-30
2.672e-31
1.21357e-31
6.75302e-31
4.77229e-31
9.05522e-32
8.65981e-32
3.17406e-31
6.51288e-31
8.46759e-31
2.55221e-32
3.89059e-31
3.87188e-31
1.84475e-31
4.03705e-31
3.50231e-31
1.93549e-30
3.31069e-30
8.1214e-31
2.32475e-31
4.21619e-31
2.72977e-31
3.30083e-33
1.18868e-31
5.96607e-32
3.60654e-31
4.0858e-32
2.74542e-31
3.78728e-32
8.6661e-31
5.42175e-32
7.79885e-31
7.75281e-32
5.85074e-32
1.04721e-30
8.79784e-31
7.7609e-31
2.34616e-31
1.0853e-30
1.01854e-30
5.51248e-31
4.31128e-31
8.86155e-31
4.03572e-30
2.45161e-30
7.64442e-32
1.10798e-30
1.42839e-32
6.88867e-31
5.15078e-31
3.05799e-32
7.89594e-32
2.76233e-30
1.22442e-31
2.63756e-30
5.78618e-32
2.16027e-31
3.56408e-31
1.46577e-31
5.64339e-31
1.08021e-30
4.30613e-31
2.24981e-31
7.87833e-32
1.21598e-31
2.83445e-31
8.65322e-31
3.4998e-31
3.03397e-31
2.60575e-31
2.7723e-31
2.25763e-31
1.40298e-31
1.10503e-31
4.46278e-32
1.61271e-30
1.46265e-31
3.71989e-31
7.62249e-32
9.57478e-31
2.2351e-31
5.19399e-32
6.89782e-31
1.78214e-31
2.00197e-31
3.31158e-31
1.07779e-31
3.52004e-31
4.69249e-31
1.15326e-30
4.77279e-31
3.64747e-32
3.28715e-32
3.94305e-31
2.22836e-32
8.92019e-32
1.16994e-31
4.35314e-32
2.35106e-30
2.42298e-31
1.12202e-30
1.15324e-31
4.00403e-32
6.94358e-31
3.10998e-31
1.81794e-31
1.79668e-31
7.72185e-31
3.79457e-31
3.04609e-31
1.2134e-31
5.41675e-31
2.23786e-31
6.35787e-31
1.82238e-32
3.15516e-32
3.1216e-31
3.99829e-32
2.69548e-31
1.17507e-32
1.04384e-31
1.87262e-31
1.22758e-32
1.23735e-31
7.45939e-32
4.33625e-31
1.18218e-31
7.75662e-32
2.82134e-31
1.80265e-31
7.05405e-31
6.23174e-31
4.03403e-32
8.05746e-32
1.04553e-30
4.67099e-31
4.54612e-31
2.07195e-32
2.03796e-31
2.13932e-31
2.1217e-32
2.02709e-32
3.54846e-31
4.55798e-31
2.22097e-31
6.52078e-32
4.1177e-31
3.0985e-31
7.62003e-32
4.82019e-32
7.27509e-32
7.37513e-32
8.16295e-31
4.06234e-32
1.82196e-33
3.74339e-32
3.03737e-32
2.30012e-32
1.38025e-32
1.36053e-31
2.89322e-31
4.86777e-33
4.69114e-31
4.81763e-31
4.03821e-32
2.54762e-32
1.16549e-32
3.51592e-32
4.18855e-31
6.81248e-31
1.02401e-30
6.17237e-32
4.22885e-31
4.13809e-31
6.90448e-32
3.96898e-32
1.22712e-31
7.24398e-32
3.12157e-32
1.39077e-32
3.42813e-31
3.55907e-31
1.85205e-31
3.36598e-31
3.71064e-31
8.56659e-32
2.81903e-31
1.54242e-31
2.27241e-32
8.51847e-32
1.2683e-31
1.24489e-31
8.40219e-32
8.61481e-33
2.35849e-31
1.59409e-31
3.59214e-32
5.276e-32
6.2399e-32
1.04025e-31
2.70499e-32
4.06878e-32
8.90401e-31
2.1601e-31
9.4819e-32
2.46621e-31
1.2131e-31
1.26235e-31
8.51343e-32
1.0535e-32
6.36123e-31
3.60092e-31
1.80743e-31
1.98768e-31
1.22659e-32
1.4883e-31
1.36987e-31
3.32815e-32
1.31124e-31
1.92162e-31
5.8712e-31
1.04545e-31
4.10776e-33
1.6915e-31
1.26191e-31
1.6442e-31
9.06249e-32
7.33235e-32
2.2912e-31
1.32087e-31
1.5334e-31
3.47393e-31
1.71803e-32
1.50178e-31
1.78794e-31
2.61045e-32
5.88521e-32
1.46708e-31
7.18979e-32
2.4913e-31
6.8202e-32
5.68122e-32
4.73755e-32
2.03306e-31
1.87478e-31
9.64759e-32
8.71701e-32
2.1516e-31
1.03091e-32
4.39342e-32
4.08783e-31
7.8603e-33
1.5267e-31
2.85998e-32
5.17874e-32
5.86175e-33
9.53374e-32
1.84935e-31
5.18427e-32
2.11001e-32
7.59393e-32
1.16517e-32
2.33135e-31
1.37938e-34
1.74928e-31
9.73918e-32
9.98574e-32
7.13715e-32
2.15319e-32
1.52964e-32
2.24094e-32
8.82817e-33
1.85764e-31
3.13471e-31
2.96494e-31
9.69871e-32
1.55665e-32
1.75166e-31
1.93222e-32
3.27876e-32
3.35489e-32
5.17423e-32
2.75522e-32
2.45373e-31
7.10069e-32
1.39139e-33
1.74714e-31
4.48579e-32
1.34842e-31
2.39774e-31
3.22526e-31
2.0901e-31
1.94457e-31
5.65539e-32
1.30673e-31
1.41807e-32
1.92599e-31
3.08085e-32
2.0539e-32
4.94828e-32
1.65476e-31
2.4807e-31
3.37211e-31
1.31882e-31
4.4891e-32
3.49588e-33
6.46808e-32
9.61826e-32
4.43745e-32
3.11753e-32
8.84405e-32
2.39796e-31
4.60019e-32
9.45937e-32
2.39845e-31
2.40267e-31
5.80419e-32
2.72323e-31
2.02919e-31
1.13259e-31
7.43677e-32
5.45531e-32
1.03718e-31
8.38946e-32
2.49342e-32
4.73584e-32
3.49353e-33
8.71044e-32
1.25869e-31
1.70191e-31
1.66126e-31
2.59505e-31
1.07775e-31
1.14017e-31
3.30112e-32
1.19123e-31
1.78053e-32
7.37688e-32
6.55281e-32
1.01375e-31
3.94318e-32
6.68176e-32
2.50359e-32
6.00102e-33
4.55528e-32
1.26286e-32
2.76605e-31
2.69947e-32
2.60914e-31
3.90099e-32
9.42478e-32
7.94977e-32
8.13989e-33
1.40109e-31
1.72827e-31
2.46e-31
4.70849e-32
6.73203e-33
5.38339e-32
4.71028e-33
3.37502e-32
1.96316e-31
8.08227e-32
2.62077e-32
1.22779e-32
4.97061e-32
7.05782e-33
1.23825e-31
5.23344e-32
4.29229e-32
1.18603e-31
1.36935e-33
1.09561e-31
2.74601e-33
5.96231e-32
4.30095e-32
2.53647e-32
1.28343e-31
4.14832e-32
6.09959e-32
1.26653e-31
3.37678e-32
1.98448e-32
1.16534e-32
2.57335e-32
1.33488e-31
3.04001e-32
5.0761e-32
2.9758e-32
1.20766e-32
9.34053e-32
4.01622e-32
1.08472e-32
5.93045e-32
1.71678e-31
1.88575e-31
5.88583e-32
4.57667e-33
2.92075e-32
1.9717e-32
2.8171e-32
1.09733e-32
6.10569e-33
4.73881e-33
2.58871e-32
9.40504e-33
5.61289e-33
3.20087e-32
6.75286e-33
1.96606e-32
1.372e-32
4.60798e-32
1.59967e-31
2.62142e-32
5.7513e-32
6.09499e-32
3.34109e-32
3.31925e-32
2.1926e-33
2.72803e-32
2.74638e-32
8.82979e-33
2.68887e-32
1.47422e-33
8.7577e-32
1.01298e-32
3.90843e-32
5.94878e-33
3.05195e-32
4.85333e-32
1.85815e-31
5.41313e-33
9.95313e-32
7.29412e-33
6.87401e-32
7.03937e-33
7.05912e-32
1.88732e-31
2.05552e-31
2.00548e-31
1.28404e-31
7.65967e-32
5.86442e-33
2.90918e-32
3.07516e-33
8.47724e-33
5.70537e-33
1.54701e-32
1.03809e-32
6.21846e-32
7.31977e-32
6.77707e-32
1.62525e-32
1.38811e-32
5.64679e-32
3.09232e-33
1.72038e-32
4.55828e-32
2.0242e-31
3.77265e-31
1.44733e-31
7.35919e-34
3.3038e-32
5.87808e-32
6.90098e-33
1.16216e-31
1.02671e-32
9.57917e-32
1.02081e-31
1.97933e-31
1.47209e-31
4.49362e-33
1.94996e-33
6.97774e-32
1.51295e-32
1.23008e-31
2.55827e-33
6.79508e-32
2.93421e-33
2.90196e-32
7.68981e-32
4.81985e-32
7.53273e-33
1.49063e-32
2.64602e-33
5.82392e-33
1.90503e-32
1.79847e-32
3.23197e-32
2.16574e-32
2.95037e-32
1.05077e-33
2.70444e-33
1.12459e-31
7.98719e-32
3.87093e-33
7.71312e-33
5.73177e-32
6.4426e-33
3.31193e-32
3.33442e-32
7.43401e-32
4.85458e-32
2.75357e-32
3.18927e-33
1.63031e-32
3.05206e-32
1.34454e-33
7.87517e-33
4.47996e-32
1.25707e-32
4.62576e-33
3.33921e-32
1.32791e-31
2.45709e-31
7.7703e-32
2.35847e-32
3.85349e-32
8.99121e-33
9.5832e-33
1.44086e-32
1.64815e-31
6.69259e-32
1.23999e-32
8.8535e-33
2.36757e-32
2.92074e-33
1.8844e-32
1.76399e-32
4.54207e-33
1.21953e-32
7.62856e-32
2.45817e-31
3.45211e-32
1.23915e-32
3.52336e-32
9.7164e-32
7.41353e-32
1.34046e-32
1.09266e-33
1.38337e-32
9.42202e-32
2.9085e-32
9.41529e-34
1.38319e-31
2.8026e-32
5.34746e-33
7.09066e-32
1.05484e-33
3.96e-32
4.31924e-33
3.97636e-32
4.38504e-32
1.73507e-32
1.10675e-32
2.20481e-32
1.42349e-32
5.0523e-32
1.00574e-32
1.75699e-33
5.48186e-32
1.18441e-32
1.20259e-32
4.90031e-32
3.39599e-32
1.61773e-31
7.02127e-33
5.37549e-33
7.24781e-33
7.84724e-33
6.78277e-34
1.36343e-32
1.50438e-32
1.80621e-32
3.41942e-33
5.17811e-32
2.59444e-32
1.12477e-32
3.91413e-32
1.73653e-32
2.25116e-32
1.32401e-32
7.53957e-34
1.01467e-32
1.06825e-32
2.44468e-32
1.06945e-32
1.52349e-32
2.83457e-32
1.98942e-33
1.37042e-32
7.61352e-33
2.4161e-32
1.33724e-32
9.43237e-33
1.15923e-33
9.52317e-33
9.87109e-33
4.80026e-32
8.58149e-34
5.78419e-33
1.46349e-32
7.96463e-33
3.01846e-32
3.18282e-32
1.00317e-31
1.90437e-31
8.51101e-33
5.41046e-33
3.45409e-33
2.38976e-32
3.58112e-33
2.15641e-32
1.7739e-32
1.25629e-32
4.55135e-33
2.98894e-32
1.11279e-32
2.0315e-33
2.48345e-33
5.52563e-33
6.10777e-33
1.20365e-33
5.67152e-34
3.98773e-33
5.16815e-33
1.71694e-32
2.72898e-32
1.6242e-32
1.55087e-32
1.95859e-32
8.98999e-33
4.99979e-33
9.0481e-34
4.40145e-32
2.40613e-33
3.3731e-33
7.26703e-32
5.06843e-32
7.46723e-34
1.96927e-31
5.07519e-31
6.76069e-32
3.7929e-32
5.01501e-33
1.68827e-31
1.90628e-32
2.47293e-31
1.28643e-33
8.36078e-33
3.12314e-33
3.61485e-33
5.96675e-33
5.85068e-33
1.2598e-33
8.34798e-33
2.2435e-33
1.13218e-32
2.52703e-32
3.44542e-33
9.8897e-33
1.02826e-34
1.62212e-32
4.72095e-33
1.48881e-33
1.6925e-32
8.82788e-33
3.32982e-33
1.478e-32
9.66348e-32
1.22724e-32
4.48246e-32
7.01042e-32
7.08009e-33
2.03453e-33
7.90149e-32
5.54935e-32
3.82742e-32
7.37885e-33
6.9329e-32
8.57629e-32
8.08175e-32
6.34283e-33
2.59564e-31
2.36092e-31
3.05847e-32
4.4849e-32
6.55873e-34
8.74322e-33
3.41771e-34
6.11541e-33
2.68638e-33
4.12104e-33
1.75482e-32
1.50591e-32
2.72633e-33
1.0142e-32
7.39737e-33
1.27662e-32
3.08592e-33
1.37869e-32
1.77607e-33
5.53925e-33
1.87451e-33
6.81696e-33
2.30447e-33
1.69313e-33
1.08511e-32
1.69632e-32
1.15985e-32
9.12764e-33
5.58896e-33
4.21306e-32
3.83863e-32
2.20252e-32
3.08093e-32
3.32157e-32
7.51364e-33
4.02176e-32
1.14951e-33
2.47734e-32
1.09938e-32
1.91041e-33
1.13066e-32
4.19208e-32
5.81563e-32
5.68762e-33
3.24408e-32
2.02617e-32
1.96531e-33
9.57305e-33
5.04892e-33
3.82025e-33
9.32871e-33
8.54583e-33
2.47255e-32
2.86491e-34
3.48659e-34
9.39675e-34
6.955e-33
1.4846e-34
3.60812e-33
5.63077e-32
3.23297e-32
1.57631e-32
1.71533e-32
1.85528e-32
1.56193e-32
1.24752e-32
2.41152e-33
1.54935e-32
7.19418e-32
4.42199e-32
4.49617e-34
2.06634e-32
1.14383e-32
1.19766e-32
3.50644e-33
1.49036e-33
6.41934e-32
3.43334e-33
4.62442e-33
6.33189e-34
1.04069e-32
1.33546e-31
1.2151e-32
2.31442e-32
1.7009e-32
4.23488e-33
5.86549e-33
6.27958e-33
1.79194e-33
1.1621e-34
9.34126e-33
4.41823e-33
1.27955e-32
1.22969e-33
8.74265e-34
3.83644e-33
5.11788e-33
9.04165e-33
2.39679e-33
2.54446e-32
4.72126e-33
1.3036e-32
1.8294e-33
1.38762e-33
7.09652e-33
6.73898e-33
3.38033e-33
3.54033e-33
9.7395e-33
7.81763e-33
2.57072e-32
6.507e-33
5.80667e-34
4.12452e-32
1.60389e-32
4.79586e-33
1.80231e-32
4.01492e-32
6.30398e-33
5.24136e-33
1.55598e-33
7.83012e-34
1.56907e-33
2.12538e-33
4.19343e-32
2.29593e-33
1.60141e-33
8.54894e-34
3.17356e-33
2.09605e-34
1.6264e-33
1.75218e-33
1.80942e-33
5.58302e-33
1.8097e-33
2.58406e-33
1.60375e-33
2.54902e-32
2.99949e-32
4.04409e-34
7.59528e-34
1.12043e-32
1.39902e-32
4.50359e-33
1.13811e-33
1.003e-32
8.43979e-33
3.80261e-34
1.87606e-32
3.27908e-33
1.34584e-33
6.79456e-33
6.37601e-33
1.68667e-32
8.54748e-33
6.27433e-33
2.24686e-33
1.07472e-32
3.7837e-32
1.87756e-33
2.11831e-32
4.93324e-33
2.98854e-32
9.84534e-33
6.42074e-34
1.42919e-32
1.29489e-32
2.70865e-32
7.16348e-33
8.45214e-34
2.04235e-33
3.71665e-33
5.45654e-33
2.36911e-33
6.76845e-33
2.85445e-34
1.56428e-33
1.88138e-33
2.28279e-33
2.84276e-33
9.37517e-33
7.00434e-33
1.31698e-32
2.73248e-33
8.57353e-33
1.77382e-33
2.04035e-32
9.31505e-33
7.30959e-34
1.0073e-32
1.99698e-32
8.65791e-33
7.22685e-33
5.35605e-34
8.54494e-33
1.5782e-32
9.26817e-35
2.58089e-34
1.51051e-33
1.4311e-32
2.1586e-33
9.5135e-33
4.60346e-32
1.90565e-33
1.06402e-32
5.85614e-32
1.05322e-31
2.03086e-34
1.40372e-32
2.01261e-32
2.98481e-33
1.85782e-33
8.22674e-34
4.7297e-34
1.62608e-33
1.27614e-33
6.97451e-34
5.85175e-33
4.32483e-33
2.57079e-33
2.71022e-33
3.20734e-33
9.5877e-33
2.37466e-33
3.43983e-33
1.55446e-33
7.49144e-33
1.08389e-32
4.25797e-34
5.66735e-33
6.12652e-34
9.56422e-34
5.32668e-33
8.83817e-33
6.37133e-33
1.4756e-32
1.04132e-32
3.59077e-33
2.14126e-33
1.40699e-33
2.67212e-34
2.65848e-32
5.5749e-33
7.71576e-33
1.04263e-32
8.2345e-34
6.83453e-33
1.20996e-32
2.51922e-33
1.32718e-32
1.02259e-32
5.26861e-33
3.59992e-34
6.97755e-34
2.31132e-33
6.77362e-34
4.67512e-33
1.47023e-33
1.93146e-33
6.25768e-34
2.0965e-35
1.34942e-34
6.95142e-34
2.79455e-33
6.11366e-33
1.59329e-33
1.62047e-33
3.31454e-34
1.27033e-34
7.00228e-33
6.67915e-35
1.82074e-34
3.224e-33
5.42095e-33
4.44408e-33
1.13304e-33
3.90783e-33
1.55999e-33
1.43457e-33
8.60889e-36
1.28939e-33
3.01806e-33
1.36414e-33
6.46389e-33
1.7601e-32
4.85879e-33
2.41267e-32
7.19762e-33
7.71457e-33
1.93162e-32
3.79924e-32
2.96987e-33
1.28211e-33
2.61008e-33
7.41415e-34
1.72395e-34
2.43533e-35
2.11927e-33
2.18049e-34
1.44817e-33
1.96434e-33
1.64191e-33
7.83249e-34
4.3848e-34
3.41302e-33
6.43771e-33
6.58583e-33
1.6634e-33
1.98394e-33
5.8576e-33
1.82686e-34
9.89299e-34
6.58013e-33
3.0557e-33
5.47921e-33
1.11942e-33
4.34494e-33
3.49693e-34
3.43917e-34
4.52898e-33
2.07898e-32
2.69643e-34
1.83995e-32
1.30366e-33
6.14651e-34
5.87727e-33
8.82988e-32
3.15117e-33
1.90342e-33
3.3279e-33
3.64817e-34
1.95426e-32
9.56102e-33
2.10211e-32
2.56061e-33
6.09427e-33
5.05893e-34
1.87459e-34
2.74647e-33
1.09279e-33
2.886e-33
9.51789e-34
4.55665e-33
4.01971e-34
2.63018e-33
4.92375e-33
3.498e-34
3.23674e-33
2.65231e-33
1.94227e-33
2.17235e-33
3.19029e-33
3.45338e-33
1.12735e-33
9.10904e-33
2.46309e-33
1.69367e-33
9.56894e-34
8.68634e-33
2.53038e-33
3.99157e-34
1.53341e-32
4.0113e-33
9.02106e-33
4.91266e-33
1.76548e-32
3.90717e-32
1.97317e-32
1.5032e-32
1.42345e-32
4.8886e-33
9.92333e-33
1.73428e-33
1.80515e-34
2.57368e-32
1.60314e-34
1.52759e-35
1.33703e-33
1.09154e-33
9.77022e-34
1.61528e-33
5.60135e-33
2.24605e-33
3.68913e-33
3.70482e-33
2.82852e-33
7.74818e-34
8.43422e-33
4.02035e-33
4.71923e-33
4.45169e-33
5.56534e-34
6.88337e-33
3.95403e-33
7.86971e-34
8.39187e-34
8.58811e-33
8.66799e-33
1.70413e-33
2.37974e-32
6.00597e-33
2.83549e-33
7.01951e-34
2.42265e-32
4.33898e-32
1.49372e-32
1.9109e-32
3.84133e-33
5.53368e-33
7.12068e-33
4.75042e-33
3.84539e-32
4.19593e-33
5.63259e-33
7.48742e-33
8.61356e-33
8.84974e-34
3.93327e-34
2.52128e-33
3.13037e-33
6.24029e-34
1.12078e-33
1.35123e-34
1.93369e-33
3.31019e-33
5.82412e-34
2.00669e-33
7.50896e-34
1.61956e-33
9.51478e-34
4.65507e-33
2.48371e-34
6.19539e-33
3.00277e-34
2.73718e-33
3.35729e-33
2.0536e-32
3.09787e-33
8.73883e-34
1.51443e-32
4.28972e-33
4.5577e-33
8.13901e-33
7.86704e-34
5.5614e-33
6.85877e-34
2.24696e-34
1.47471e-32
7.34667e-33
7.80417e-33
6.7561e-33
6.57213e-34
7.27891e-33
5.36901e-33
3.6733e-32
3.69374e-32
9.39058e-32
2.31142e-33
3.91802e-35
1.17387e-33
3.21832e-33
3.88656e-34
1.6165e-33
2.06074e-33
1.65052e-33
7.35637e-34
9.59562e-34
1.11646e-33
3.71952e-34
1.62208e-34
4.41727e-34
3.72489e-33
1.84236e-33
1.86517e-33
5.69086e-33
6.24622e-34
7.17698e-35
6.13792e-33
9.40137e-33
3.52346e-33
3.61602e-34
5.33366e-34
9.73491e-34
1.22455e-32
1.45615e-33
5.9101e-33
1.05645e-32
5.21492e-33
2.60446e-33
8.33701e-32
8.18461e-33
1.54344e-33
1.80363e-33
9.86614e-33
8.5802e-33
1.13322e-32
1.55297e-32
2.5474e-32
9.02719e-36
7.14702e-34
9.69564e-34
3.03583e-33
6.59614e-34
3.6523e-34
1.0074e-33
3.05172e-34
1.09028e-34
6.4074e-34
2.18447e-33
1.68106e-33
5.28152e-34
9.64451e-34
1.10037e-33
1.29853e-33
7.82685e-34
4.98534e-33
7.75012e-33
2.17043e-34
8.42737e-33
3.09298e-33
1.54112e-33
3.185e-33
7.59514e-35
3.68589e-33
9.12456e-34
3.80387e-34
9.69552e-34
1.34942e-34
2.09962e-33
1.81927e-33
8.1418e-33
3.8062e-33
3.05606e-33
2.23077e-32
1.45258e-33
1.73153e-32
1.16828e-32
1.94184e-32
5.25535e-32
5.58155e-34
4.22632e-34
4.46499e-34
1.82583e-34
2.77652e-34
5.48064e-34
5.29739e-34
3.3503e-34
2.06218e-33
4.30533e-34
9.39694e-34
1.4727e-33
2.30297e-34
7.46995e-34
1.92122e-34
4.30949e-33
2.95129e-34
2.91871e-33
1.12565e-32
7.14639e-34
1.27372e-33
6.40085e-34
4.24042e-33
2.22885e-34
5.674e-33
2.67323e-33
9.76209e-34
1.99414e-33
1.24507e-33
1.36433e-32
1.01434e-33
1.95954e-33
5.06091e-33
2.7052e-34
3.5844e-33
2.81151e-32
4.78087e-33
4.15779e-33
9.41979e-33
3.93979e-33
3.35663e-33
7.86202e-35
5.18175e-34
2.97053e-34
4.91543e-34
9.326e-34
3.9967e-34
4.12482e-35
6.34939e-34
1.61799e-33
1.90288e-33
8.7146e-34
3.1145e-34
5.50782e-34
4.91921e-34
2.05585e-33
7.05527e-34
1.81384e-33
6.78519e-34
1.79344e-33
2.5166e-33
2.6191e-33
9.74296e-34
1.66793e-33
3.44151e-34
2.13392e-34
2.02978e-33
4.10307e-34
2.65636e-34
1.73573e-33
1.52997e-33
1.05739e-33
4.64601e-33
1.16876e-32
2.81555e-34
7.1381e-34
1.95174e-33
5.56154e-33
3.65518e-32
1.99053e-32
3.16368e-33
4.76928e-34
1.22473e-34
2.96197e-35
1.20153e-33
4.32317e-34
3.11576e-35
2.04446e-34
5.15928e-35
5.80031e-34
6.93292e-35
4.25261e-34
3.44054e-34
2.04742e-34
2.14265e-34
1.06513e-34
2.67779e-35
7.3485e-34
6.3603e-34
2.69052e-33
4.46899e-33
2.50509e-33
4.83817e-34
2.09919e-33
4.50389e-34
1.7145e-33
4.00464e-33
2.41698e-32
4.22299e-32
1.63965e-33
3.21066e-32
4.54309e-34
6.19689e-33
1.63127e-34
3.16899e-33
9.64776e-33
1.99487e-33
8.03298e-33
1.66583e-32
2.49465e-33
2.54521e-33
3.79427e-32
1.86462e-32
1.44111e-34
2.99258e-34
2.03935e-33
2.94441e-34
5.69204e-34
8.08978e-34
2.37645e-35
5.17265e-35
1.27474e-33
1.46253e-34
1.65165e-33
8.80592e-34
3.44575e-34
1.40215e-33
1.53108e-34
4.33854e-34
3.4848e-34
2.03883e-34
9.04008e-34
2.92015e-34
9.00765e-34
3.96035e-33
3.36301e-34
3.59515e-34
4.44574e-33
4.9756e-33
4.94691e-33
3.99025e-34
5.72707e-33
4.08091e-32
1.63651e-32
1.08253e-32
1.73379e-33
7.00283e-33
2.15551e-32
2.55162e-32
1.16726e-32
8.96181e-33
1.51551e-33
1.22957e-32
1.61553e-32
4.27511e-34
2.01627e-34
1.28958e-33
8.15832e-34
2.00176e-34
2.72771e-34
2.15952e-34
1.7321e-34
1.10963e-33
4.62192e-34
3.12464e-34
2.50277e-34
1.46038e-34
7.71172e-35
3.45431e-34
3.80704e-33
1.78496e-33
1.00249e-34
1.44096e-33
1.42345e-35
7.19864e-35
5.2353e-34
1.91744e-33
5.11125e-33
1.82369e-35
4.06879e-33
1.33448e-33
1.96863e-33
8.83307e-35
1.26212e-32
1.71667e-32
1.7212e-32
4.82332e-33
3.06939e-34
5.58008e-33
4.28392e-33
1.08067e-33
3.97821e-33
1.39373e-33
5.79627e-33
1.38421e-32
2.1475e-34
2.53987e-34
3.71555e-34
3.37787e-34
2.03616e-34
9.06777e-35
3.5566e-34
1.22081e-33
3.82137e-34
2.54527e-35
5.08873e-34
5.53925e-34
5.5238e-34
1.10154e-33
6.50543e-34
1.58275e-33
8.32319e-34
9.55034e-36
2.78474e-34
2.29252e-33
5.52894e-35
7.0088e-34
1.98706e-34
1.45326e-33
9.34057e-34
3.73214e-33
5.43438e-33
1.5246e-32
8.54399e-33
2.73076e-34
2.67987e-33
6.81268e-35
1.276e-32
1.7793e-33
4.61424e-33
2.8967e-32
2.27092e-33
3.78927e-34
4.36027e-33
2.46755e-33
1.36416e-33
1.69876e-34
1.80078e-34
9.46227e-34
3.23197e-34
3.0272e-34
1.00116e-34
2.3776e-34
2.95844e-34
6.02186e-34
1.90116e-34
2.33432e-34
1.89552e-34
6.14034e-34
1.80539e-34
8.49138e-34
4.70095e-35
4.39366e-34
3.88168e-34
6.9628e-35
2.03651e-33
1.47988e-33
4.48998e-33
5.23056e-33
4.80729e-33
3.85751e-34
1.91186e-34
5.29313e-34
5.80136e-33
2.10375e-35
4.09165e-33
2.05538e-33
1.38739e-34
4.1701e-32
1.57856e-33
5.54874e-34
8.78356e-33
9.52905e-34
1.36663e-32
2.04041e-34
1.98345e-32
1.65082e-34
6.64151e-35
1.3192e-34
3.07178e-34
1.99415e-34
1.27423e-34
1.5303e-35
1.24522e-35
3.47107e-34
1.66599e-34
4.3786e-35
7.8809e-34
1.71436e-34
1.23155e-33
1.42668e-34
7.454e-35
9.12205e-34
4.63369e-34
8.2792e-34
1.62183e-33
3.84444e-35
3.09635e-33
7.96384e-35
2.46142e-34
1.01843e-33
2.5237e-33
1.32822e-34
4.27764e-33
7.95415e-34
5.17104e-34
4.70935e-33
7.89255e-33
2.93989e-34
8.43841e-33
9.26027e-34
1.27402e-33
1.38281e-33
9.08635e-33
1.24026e-33
1.3878e-32
1.46342e-33
5.13741e-35
2.15712e-34
5.49356e-34
1.24659e-34
5.32147e-34
1.43386e-34
3.82129e-35
2.85805e-34
1.80501e-34
7.85298e-35
9.29916e-35
8.65422e-35
4.72898e-34
1.2644e-34
2.3031e-34
3.9255e-35
5.15627e-35
1.29757e-33
8.07003e-34
2.47444e-34
2.0175e-33
3.39746e-33
4.17079e-34
1.98917e-33
2.01907e-34
8.41546e-34
6.25016e-34
9.79522e-34
8.73512e-33
5.71579e-33
4.84907e-34
7.81346e-33
2.99441e-33
2.42537e-34
1.52524e-33
7.73484e-33
2.83589e-34
3.35297e-33
1.89634e-33
9.55244e-34
3.05092e-33
1.58991e-32
6.0348e-35
2.04023e-35
1.22573e-34
9.05741e-35
4.59571e-34
5.12495e-35
3.54092e-34
4.19518e-34
2.20247e-34
1.47672e-34
5.24574e-34
4.79041e-35
7.34199e-35
8.90004e-35
5.40231e-35
5.70487e-34
1.13507e-33
2.18194e-33
2.77772e-34
9.36301e-34
2.91471e-34
3.71295e-35
7.2205e-34
1.01935e-33
2.95492e-34
2.15034e-35
5.91905e-35
3.18799e-33
1.27575e-34
8.42164e-35
3.39669e-33
2.32891e-33
1.80802e-34
1.12205e-32
1.03216e-32
1.06663e-32
3.59076e-34
4.83831e-35
5.62406e-33
3.7426e-33
1.04066e-32
3.4723e-35
6.97288e-35
3.19613e-34
3.64523e-35
1.91879e-34
4.25215e-35
3.67197e-34
6.29209e-35
1.59952e-35
1.21371e-35
3.63469e-34
9.48321e-36
1.28096e-34
4.04221e-34
6.77669e-35
1.87459e-34
8.27691e-34
4.74575e-35
3.75114e-34
1.5024e-34
1.53122e-34
1.31847e-33
1.10748e-34
1.95591e-34
1.06233e-33
5.01035e-33
6.93648e-34
3.07365e-33
1.88244e-33
4.96971e-34
2.48478e-33
8.33459e-34
7.10414e-33
2.29284e-35
9.74847e-34
7.61522e-33
9.32115e-33
2.02333e-32
1.23167e-33
7.7884e-34
1.66387e-32
5.74272e-35
1.29712e-34
1.05589e-34
4.83161e-35
6.08534e-35
1.10041e-34
4.09545e-35
3.28421e-35
5.17833e-35
1.44744e-34
3.69301e-35
8.6484e-35
1.3307e-34
7.11831e-35
3.45433e-34
3.95098e-36
1.36096e-34
7.16801e-34
5.02231e-34
3.342e-33
8.38776e-34
1.42154e-34
7.72249e-35
2.99025e-33
1.33712e-33
1.07785e-35
3.0905e-34
7.70662e-35
1.60651e-33
1.98869e-33
4.79708e-33
8.31497e-33
6.21105e-33
2.24022e-33
3.13491e-32
7.31791e-33
7.1871e-33
1.90806e-32
1.10708e-32
1.22886e-33
2.84076e-34
7.45577e-35
8.93544e-36
1.27208e-34
1.33511e-34
1.43368e-34
4.47166e-35
1.04207e-34
1.60074e-35
1.11545e-34
1.93627e-34
6.25285e-35
9.04969e-35
1.73438e-34
1.06026e-35
2.67452e-35
5.45767e-34
7.74199e-34
1.61252e-35
1.83505e-33
1.56709e-34
2.24677e-34
3.13349e-33
1.8569e-33
1.52677e-33
5.23308e-34
2.86518e-33
1.39615e-33
9.9116e-35
3.70083e-33
1.56012e-33
3.28457e-33
6.16629e-33
1.14616e-33
1.57694e-33
2.20356e-33
3.85587e-34
3.1629e-34
1.93674e-34
1.39531e-32
1.4429e-32
1.05312e-31
1.13407e-34
1.74845e-35
1.30707e-34
2.36183e-35
1.43092e-34
1.58099e-34
2.03941e-34
1.15587e-34
2.71128e-34
1.4978e-34
5.66236e-35
6.92667e-35
2.48393e-34
6.80662e-34
1.92836e-34
4.19241e-35
4.67726e-35
9.55614e-34
1.63799e-34
5.47214e-35
1.74187e-33
1.03261e-34
9.69431e-35
5.64758e-34
6.49926e-36
2.88503e-34
4.78125e-33
4.15029e-34
1.58412e-32
3.83765e-33
6.42e-33
4.31659e-34
6.20698e-33
2.40434e-33
2.16191e-33
6.56008e-34
3.0678e-33
6.72036e-32
2.01842e-32
1.93133e-32
6.54824e-33
3.23567e-32
9.98042e-32
1.4817e-31
1.26072e-31
9.65382e-31
9.55167e-31
1.07518e-32
5.22608e-31
1.00754e-32
3.96377e-31
5.99488e-32
5.10809e-31
3.61179e-31
1.8295e-31
3.19726e-31
3.81166e-33
1.03841e-32
1.53372e-30
2.55341e-31
1.17488e-31
5.12033e-31
1.85129e-32
3.25267e-32
1.97046e-31
2.50156e-31
1.87576e-32
1.53005e-31
1.08122e-30
7.07725e-32
1.55552e-32
2.73704e-32
1.04308e-32
7.00667e-31
2.23935e-31
1.07561e-32
7.25627e-33
1.53792e-33
1.42022e-33
1.17439e-31
5.89612e-32
8.785e-34
5.16599e-32
3.56414e-31
1.20708e-32
1.17042e-33
4.17353e-33
1.79006e-31
5.95019e-32
2.30667e-32
5.11699e-32
2.39203e-33
2.67795e-33
7.96079e-34
2.09432e-32
2.94407e-33
1.06137e-33
5.77505e-33
4.42595e-34
8.21191e-32
2.78023e-33
1.05724e-32
1.75743e-31
7.0959e-33
6.12213e-33
1.13091e-33
2.50997e-32
1.91309e-33
1.90081e-32
9.0491e-34
5.23913e-33
2.00235e-34
5.09885e-33
7.29989e-35
2.45231e-33
7.78079e-32
4.23209e-32
1.48162e-31
5.12274e-32
6.07626e-31
6.49098e-31
2.39761e-33
3.86286e-31
1.30849e-31
2.50906e-31
2.11882e-32
3.9137e-31
2.69509e-31
1.36477e-31
2.24966e-31
7.27456e-33
2.2204e-32
4.48092e-32
2.20191e-31
9.22683e-32
4.20353e-31
3.35202e-32
3.85305e-32
1.59923e-31
1.76767e-31
4.05627e-32
1.28364e-31
9.63126e-32
7.11107e-32
1.34231e-32
2.03604e-32
8.50548e-33
1.97999e-32
1.85505e-31
9.05254e-33
7.32536e-33
4.83414e-34
3.0186e-33
9.69261e-32
4.7815e-32
1.21482e-32
4.04468e-32
3.41305e-32
1.05861e-32
2.50706e-33
3.03901e-33
1.75499e-32
5.06163e-32
1.93949e-32
4.48764e-32
6.3754e-33
1.58693e-33
6.83592e-34
1.87495e-32
2.68162e-33
4.3081e-34
5.37185e-33
7.69889e-34
8.6384e-33
2.26569e-33
9.34253e-33
1.73921e-32
6.29902e-33
5.81813e-33
1.03624e-33
1.96311e-33
1.52901e-33
1.32196e-33
8.35043e-34
4.84992e-33
3.70076e-34
4.65787e-33
2.88534e-35
2.42258e-33
2.29429e-33
1.57717e-32
5.56719e-32
6.04535e-32
4.57023e-31
4.61334e-31
2.65686e-31
3.19196e-31
8.46409e-33
1.9954e-31
2.68607e-32
2.49297e-31
1.97358e-31
1.46587e-31
1.63247e-31
6.4973e-32
1.76259e-32
2.83692e-32
1.62352e-31
5.83762e-32
3.06266e-31
3.5281e-32
2.80465e-32
1.11758e-31
1.43178e-31
1.7345e-32
9.38691e-32
7.73354e-32
4.71425e-32
1.20964e-32
1.58589e-32
8.47178e-33
1.21016e-32
1.46457e-31
5.29389e-33
4.6632e-33
4.36614e-34
6.48874e-34
7.74476e-32
3.94396e-32
1.00822e-33
3.47184e-32
2.83824e-32
9.86447e-33
1.01579e-33
3.86427e-33
1.54992e-32
4.17593e-32
1.64481e-32
3.76812e-32
2.18116e-33
1.54816e-33
5.7735e-34
1.62393e-32
2.06679e-33
3.42342e-34
4.45264e-33
5.25056e-34
7.49503e-33
1.5987e-33
7.58998e-33
1.30628e-32
5.29699e-33
4.67915e-33
8.99858e-34
1.62508e-33
1.42577e-33
1.19159e-33
7.44736e-34
4.37137e-33
1.33023e-34
4.32588e-33
1.52713e-34
2.01839e-33
4.41753e-31
2.58775e-32
9.93205e-32
2.46798e-32
3.17179e-31
3.15619e-31
1.00432e-33
2.35245e-31
4.47047e-33
1.48973e-31
2.5015e-32
2.38701e-31
1.37822e-31
6.74407e-32
1.24969e-31
1.52201e-33
6.18718e-33
3.44926e-32
9.83902e-32
5.0036e-32
2.22582e-31
8.92686e-33
1.45085e-32
9.36028e-32
1.06504e-31
1.41835e-32
7.07832e-32
7.25932e-32
3.57551e-32
1.00578e-32
1.90487e-32
1.13467e-32
9.51166e-33
1.15366e-31
6.68077e-33
5.02384e-33
8.85634e-34
4.46259e-33
6.0475e-32
3.16637e-32
3.75142e-33
2.90919e-32
2.23036e-32
8.07378e-33
9.98227e-34
2.46607e-33
1.31159e-32
3.53502e-32
1.36346e-32
3.07595e-32
1.39321e-33
2.02555e-33
5.94648e-34
1.35465e-32
2.20134e-33
3.64067e-34
4.12409e-33
4.30985e-34
6.25367e-33
1.61471e-33
6.5947e-33
1.19868e-32
4.65316e-33
4.01324e-33
7.33451e-34
1.3775e-33
1.1658e-33
1.0638e-33
6.12752e-34
3.62451e-33
1.12414e-34
3.60707e-33
2.96044e-35
2.1431e-33
3.82986e-32
5.38551e-32
1.98414e-32
5.53107e-32
2.06246e-31
2.07166e-31
1.92487e-32
1.6794e-31
4.30231e-32
1.923e-31
9.4145e-33
1.39285e-31
1.17879e-31
4.85124e-32
1.27223e-31
7.11302e-33
3.01876e-33
2.67921e-32
7.158e-32
3.50484e-32
1.65902e-31
2.72434e-33
1.37564e-32
6.67026e-32
9.1253e-32
8.11271e-33
5.53044e-32
5.39977e-32
3.36765e-32
5.65603e-33
1.00988e-32
4.81261e-33
6.5511e-33
8.96936e-32
3.39047e-33
3.27654e-33
6.77492e-34
5.28688e-34
5.27937e-32
2.63848e-32
2.77489e-34
2.26164e-32
1.77269e-32
8.02076e-33
1.6722e-33
4.04413e-33
9.94146e-33
2.85037e-32
1.10804e-32
2.55691e-32
1.16715e-33
1.56896e-33
9.48062e-34
1.13562e-32
2.09195e-33
9.6321e-34
3.20472e-33
6.39544e-34
5.4651e-33
9.81001e-34
5.59165e-33
1.01965e-32
4.1414e-33
3.48081e-33
9.80617e-34
1.70208e-33
9.83742e-34
8.87367e-34
5.03691e-34
3.10176e-33
1.19171e-34
3.29907e-33
4.2643e-35
1.75287e-33
7.78195e-34
3.0663e-32
2.61215e-32
2.34804e-32
1.62651e-31
1.63689e-31
1.38546e-33
1.20419e-31
2.76602e-33
7.21393e-32
1.06096e-32
1.41629e-31
5.98373e-32
4.77926e-32
6.04886e-32
2.11873e-32
4.25377e-33
4.68412e-32
6.76701e-32
7.34158e-32
1.23246e-31
1.15833e-32
7.8707e-33
5.27717e-32
5.57614e-32
4.16737e-33
3.77455e-32
3.90709e-32
1.97096e-32
6.63772e-33
8.64155e-33
2.99418e-33
5.6829e-33
7.03333e-32
1.23299e-32
4.08789e-33
7.90802e-34
6.06281e-34
3.96923e-32
2.11727e-32
4.16012e-33
2.1699e-32
1.66288e-32
5.20484e-33
3.52617e-34
1.40787e-33
1.05049e-32
2.52979e-32
9.55488e-33
2.29131e-32
1.33483e-33
9.96986e-34
1.55708e-33
1.02796e-32
1.39013e-33
3.82543e-34
2.78494e-33
2.23104e-34
4.61311e-33
1.47239e-33
5.36361e-33
8.74958e-33
3.85391e-33
3.27343e-33
6.64512e-34
1.41204e-33
1.02397e-33
9.54189e-34
4.82688e-34
2.98705e-33
8.78143e-35
2.86824e-33
1.05847e-35
1.65873e-33
2.68256e-32
2.68423e-32
1.77411e-32
1.26067e-32
1.17269e-31
1.0877e-31
3.93744e-33
1.09949e-31
1.8382e-32
6.49227e-32
3.68934e-33
7.59693e-32
6.86069e-32
2.35874e-32
4.12663e-32
2.60178e-33
1.79102e-33
8.6684e-33
7.75279e-32
1.53426e-32
8.85976e-32
1.2107e-32
1.02044e-32
4.94074e-32
4.50932e-32
3.58899e-32
4.08641e-32
2.48954e-32
1.43785e-32
3.43704e-33
5.2316e-33
3.03154e-33
4.30102e-33
5.65293e-32
2.63371e-33
1.90155e-33
2.94749e-34
3.57897e-33
3.66567e-32
1.66451e-32
2.37443e-33
1.55249e-32
1.80346e-32
5.48123e-33
1.00128e-33
1.47471e-33
7.09274e-33
1.98263e-32