/*--------------------------------*- C++ -*----------------------------------*\
| =========                 |                                                 |
| \\      /  F ield         | OpenFOAM: The Open Source CFD Toolbox           |
|  \\    /   O peration     | Version:  2312                                  |
|   \\  /    A nd           | Website:  www.openfoam.com                      |
|    \\/     M anipulation  |                                                 |
\*---------------------------------------------------------------------------*/
FoamFile
{
    version     2.0;
    format      ascii;
    arch        "LSB;label=32;scalar=64";
    class       volScalarField;
    location    "0";
    object      turbulenceProperties:k;
}
// * * * * * * * * * * * * * * * * * * * * * * * * * * * * * * * * * * * * * //

dimensions      [0 2 -2 0 0 0 0];

internalField   nonuniform List<scalar> 
11040
(
0.657557
0.641819
0.637969
0.630545
0.620318
0.60971
0.600143
0.592175
0.585848
0.580967
0.577344
0.574737
0.572907
0.571641
0.570727
0.569984
0.569268
0.568434
0.567392
0.566034
0.564332
0.561825
0.55829
0.554338
0.55029
0.546138
0.541923
0.537661
0.533381
0.5291
0.524839
0.520614
0.516434
0.512324
0.508303
0.504363
0.500504
0.496773
0.493155
0.489666
0.48628
8.97951e-18
6.39539e-17
3.65885e-17
5.70697e-17
1.2888e-17
5.69483e-17
5.17724e-17
2.16683e-17
3.17497e-17
3.96533e-17
5.8197e-17
1.91661e-17
1.74113e-17
1.1398e-16
6.80522e-17
2.56975e-17
4.37802e-17
3.56603e-17
5.06477e-17
4.3186e-17
6.15712e-17
4.3852e-17
1.69895e-17
2.58176e-17
2.84411e-17
1.95915e-17
8.32556e-18
7.34265e-17
3.14879e-17
2.16625e-17
5.50645e-17
6.53265e-17
2.72455e-17
4.38093e-17
6.83067e-17
2.46971e-17
4.8787e-17
3.33955e-17
5.65065e-17
3.13763e-17
5.85695e-17
3.00555e-17
5.55469e-17
4.38641e-17
6.77974e-17
3.92422e-17
1.54723e-17
6.09813e-17
3.87164e-17
2.89968e-17
1.0697e-16
3.53281e-17
1.13417e-17
4.80201e-17
4.55436e-17
1.9006e-17
4.52476e-17
1.50792e-17
2.11483e-17
6.4021e-17
5.41333e-17
1.09201e-16
7.36646e-17
4.14804e-17
1.66371e-17
1.73567e-17
5.61794e-17
4.23208e-17
4.92468e-17
7.02174e-17
1.8548e-17
2.7899e-17
1.08983e-17
3.04857e-17
2.31267e-17
3.33731e-17
3.72279e-17
2.03998e-17
3.3201e-17
5.8916e-17
7.04123e-17
5.6688e-17
4.62983e-17
5.09485e-17
4.80005e-17
1.69896e-17
2.49183e-17
8.64775e-17
7.61791e-17
8.85623e-18
2.95057e-17
5.1233e-17
6.10544e-17
3.83015e-17
8.94297e-18
3.16133e-17
4.90929e-17
6.22601e-18
3.12272e-17
1.02397e-17
3.48455e-17
5.98734e-17
3.67764e-17
5.9585e-17
5.46311e-17
2.59378e-17
3.50721e-17
1.24011e-16
1.66319e-17
5.13887e-17
6.93116e-17
4.13378e-17
1.9786e-17
2.64943e-17
8.39096e-18
4.58139e-17
3.98176e-17
2.11339e-17
5.34236e-17
2.59278e-17
2.00148e-17
1.41788e-17
1.40332e-17
5.20676e-17
5.09897e-17
3.74626e-17
3.29585e-17
3.71644e-17
3.08472e-17
4.52935e-17
1.50397e-17
5.94933e-17
1.95228e-17
1.3157e-17
3.10365e-17
2.60908e-17
1.13651e-17
1.11142e-17
2.1278e-17
3.04797e-17
3.47539e-17
6.03368e-18
2.35576e-17
2.35009e-17
1.62216e-17
2.3997e-17
2.23512e-17
5.25436e-17
6.872e-17
3.40361e-17
1.82101e-17
2.45236e-17
1.97327e-17
2.16988e-18
1.30214e-17
9.22504e-18
2.26814e-17
7.63418e-18
1.97892e-17
7.35e-18
3.51589e-17
8.79415e-18
3.33533e-17
1.05161e-17
9.13544e-18
3.86492e-17
3.54252e-17
3.32721e-17
1.82937e-17
3.93458e-17
3.81164e-17
2.80413e-17
2.47986e-17
3.55532e-17
7.58725e-17
5.91357e-17
1.04423e-17
3.97548e-17
4.51386e-18
3.13467e-17
2.71057e-17
6.60453e-18
1.06127e-17
6.27714e-17
1.32157e-17
6.13374e-17
9.0849e-18
1.75541e-17
2.25475e-17
1.44596e-17
2.83723e-17
3.92535e-17
2.47838e-17
1.79142e-17
1.06009e-17
1.317e-17
2.01075e-17
3.51328e-17
2.23432e-17
2.08032e-17
1.92793e-17
1.98858e-17
1.79453e-17
1.41465e-17
1.25548e-17
7.9786e-18
4.79626e-17
1.44442e-17
2.3035e-17
1.04273e-17
3.69563e-17
1.78555e-17
8.60745e-18
3.13675e-17
1.59439e-17
1.68987e-17
2.17341e-17
1.23991e-17
2.24077e-17
2.58717e-17
4.0559e-17
2.60922e-17
7.21306e-18
6.84753e-18
2.37159e-17
5.63789e-18
1.12801e-17
1.29183e-17
7.87999e-18
5.79103e-17
1.85908e-17
4.00058e-17
1.28258e-17
7.5574e-18
3.14714e-17
2.10621e-17
1.61033e-17
1.60088e-17
3.31883e-17
2.32651e-17
2.08447e-17
1.31561e-17
2.77967e-17
1.78665e-17
3.01148e-17
5.09851e-18
6.70864e-18
2.11015e-17
7.55199e-18
1.96084e-17
4.09407e-18
1.22023e-17
1.63436e-17
4.18454e-18
1.32853e-17
1.03152e-17
2.48703e-17
1.29857e-17
1.05187e-17
2.00609e-17
1.60354e-17
3.17207e-17
2.98146e-17
7.58566e-18
1.07207e-17
3.86182e-17
2.58124e-17
2.54651e-17
5.43643e-18
1.70499e-17
1.74688e-17
5.50131e-18
5.37726e-18
2.2498e-17
2.54983e-17
1.7799e-17
9.64437e-18
2.42355e-17
2.10232e-17
1.04256e-17
8.29193e-18
1.01869e-17
1.02567e-17
3.4123e-17
7.61224e-18
1.61211e-18
7.30729e-18
6.58222e-18
5.72794e-18
4.43714e-18
1.39309e-17
2.03149e-17
2.63505e-18
2.5868e-17
2.62145e-17
7.58959e-18
6.02825e-18
4.07735e-18
7.0818e-18
2.44431e-17
3.11729e-17
3.82187e-17
9.38318e-18
2.45604e-17
2.42954e-17
9.92406e-18
7.52425e-18
1.32302e-17
1.01651e-17
6.67284e-18
4.45401e-18
2.21132e-17
2.25316e-17
1.62536e-17
2.19119e-17
2.30064e-17
1.10542e-17
2.00527e-17
1.48329e-17
5.69334e-18
1.10231e-17
1.34504e-17
1.33257e-17
1.09476e-17
3.50547e-18
1.83418e-17
1.50793e-17
7.15815e-18
8.67514e-18
9.43437e-18
1.21813e-17
6.21165e-18
7.61826e-18
3.56383e-17
1.75534e-17
1.16298e-17
1.87559e-17
1.31544e-17
1.34188e-17
1.10199e-17
3.87651e-18
3.01228e-17
2.26637e-17
1.60566e-17
1.68382e-17
4.18286e-18
1.45703e-17
1.39786e-17
6.8901e-18
1.36762e-17
1.65561e-17
2.89393e-17
1.22117e-17
2.42062e-18
1.55332e-17
1.34164e-17
1.53144e-17
1.13697e-17
1.02269e-17
1.80782e-17
1.37263e-17
1.47895e-17
2.22605e-17
4.95039e-18
1.46362e-17
1.59698e-17
6.10214e-18
9.16231e-18
1.44661e-17
1.0127e-17
1.88511e-17
9.8633e-18
9.00212e-18
8.22055e-18
1.70294e-17
1.63531e-17
1.1731e-17
1.11508e-17
1.75188e-17
3.83472e-18
7.91635e-18
2.41474e-17
3.34845e-18
1.47571e-17
6.38712e-18
8.59481e-18
2.8916e-18
1.16615e-17
1.62418e-17
8.59939e-18
5.48613e-18
1.04078e-17
4.07679e-18
1.82359e-17
4.43574e-19
1.57962e-17
1.17865e-17
1.19348e-17
1.00899e-17
5.54199e-18
4.6711e-18
5.65378e-18
3.54862e-18
1.62781e-17
2.11457e-17
2.05652e-17
1.1762e-17
4.71216e-18
1.5807e-17
5.24992e-18
6.83878e-18
6.91773e-18
8.59106e-18
6.26905e-18
1.87084e-17
1.00641e-17
1.4088e-18
1.57866e-17
7.99914e-18
1.38687e-17
1.84937e-17
2.1449e-17
1.72666e-17
1.66547e-17
8.98163e-18
1.36527e-17
4.49752e-18
1.65749e-17
6.62917e-18
5.41269e-18
8.40139e-18
1.53636e-17
1.8811e-17
2.19318e-17
1.37156e-17
8.00209e-18
2.23307e-18
9.60532e-18
1.17131e-17
7.95593e-18
6.66852e-18
1.12318e-17
1.84946e-17
8.1005e-18
1.1616e-17
1.84965e-17
1.85128e-17
9.09902e-18
1.97091e-17
1.70132e-17
1.27105e-17
1.02995e-17
8.82132e-18
1.21633e-17
1.09393e-17
5.96379e-18
8.21907e-18
2.23232e-18
1.11466e-17
1.33993e-17
1.55809e-17
1.53937e-17
1.92396e-17
1.23989e-17
1.27529e-17
6.86206e-18
1.30353e-17
5.03963e-18
1.02579e-17
9.66802e-18
1.20251e-17
7.49976e-18
9.76269e-18
5.97594e-18
2.92575e-18
8.06086e-18
4.24426e-18
1.98634e-17
6.20531e-18
1.92918e-17
7.45953e-18
1.15947e-17
1.06488e-17
3.40748e-18
1.4137e-17
1.57011e-17
1.87323e-17
8.19529e-18
3.09882e-18
8.76299e-18
2.59207e-18
6.93845e-18
1.67341e-17
1.07372e-17
6.11418e-18
4.18491e-18
8.42032e-18
3.17292e-18
1.32901e-17
8.64008e-18
7.82471e-18
1.30069e-17
1.3976e-18
1.25012e-17
1.97913e-18
9.22213e-18
7.8326e-18
6.01504e-18
1.35304e-17
7.69237e-18
9.32769e-18
1.3441e-17
6.94026e-18
5.32044e-18
4.07709e-18
6.05862e-18
1.37989e-17
6.58509e-18
8.5092e-18
6.51517e-18
4.15045e-18
1.15428e-17
7.5689e-18
3.93354e-18
9.19746e-18
1.56488e-17
1.64008e-17
9.16279e-18
2.55505e-18
6.45463e-18
5.30328e-18
6.33907e-18
3.95633e-18
2.95115e-18
2.59991e-18
6.07667e-18
3.66272e-18
2.82955e-18
6.75707e-18
3.10362e-18
5.29569e-18
4.42385e-18
8.10735e-18
1.51057e-17
6.11494e-18
9.05747e-18
9.32418e-18
6.90348e-18
6.88088e-18
1.7685e-18
6.23804e-18
6.25899e-18
3.54894e-18
6.19311e-18
1.45012e-18
1.11768e-17
3.80123e-18
7.46664e-18
2.91298e-18
6.59801e-18
8.32039e-18
1.62804e-17
2.77874e-18
1.19153e-17
3.2256e-18
9.90214e-18
3.16877e-18
1.00346e-17
1.64077e-17
1.71232e-17
1.69135e-17
1.35336e-17
1.04527e-17
2.89225e-18
6.44183e-18
2.09439e-18
3.47737e-18
2.85276e-18
4.69754e-18
3.84806e-18
9.41815e-18
1.02182e-17
9.83207e-18
4.81486e-18
4.44975e-18
8.9748e-18
2.10023e-18
4.95377e-18
8.06352e-18
1.69922e-17
2.31978e-17
1.43684e-17
1.02456e-18
6.86484e-18
9.15676e-18
3.13747e-18
1.28753e-17
3.82691e-18
1.16893e-17
1.20669e-17
1.68029e-17
1.44908e-17
2.53176e-18
1.66777e-18
9.97657e-18
4.64554e-18
1.32462e-17
1.91028e-18
9.84513e-18
2.04583e-18
6.43383e-18
1.04733e-17
8.29164e-18
3.27793e-18
4.61115e-18
1.94277e-18
2.88225e-18
5.21284e-18
5.06495e-18
6.78981e-18
5.55811e-18
6.48728e-18
1.22427e-18
1.96409e-18
1.26655e-17
1.06738e-17
2.3498e-18
3.31695e-18
9.04208e-18
3.03148e-18
6.87329e-18
6.89659e-18
1.02976e-17
8.32146e-18
6.26718e-18
2.1329e-18
4.82236e-18
6.59813e-18
1.38488e-18
3.35161e-18
7.99394e-18
4.23451e-18
2.56871e-18
6.90154e-18
1.37628e-17
1.87212e-17
1.05279e-17
5.80014e-18
7.41398e-18
3.58124e-18
3.69725e-18
4.53352e-18
1.53328e-17
9.7706e-18
4.20565e-18
3.55371e-18
5.81133e-18
2.04113e-18
5.18454e-18
5.01617e-18
2.54537e-18
4.1708e-18
1.04315e-17
1.87253e-17
7.01724e-18
4.20422e-18
7.08929e-18
1.17727e-17
1.02834e-17
4.37271e-18
1.24843e-18
4.44214e-18
1.1593e-17
6.44107e-18
1.15889e-18
1.40464e-17
6.32273e-18
2.76184e-18
1.0057e-17
1.22664e-18
7.51574e-18
2.48215e-18
7.53125e-18
7.9088e-18
4.97487e-18
3.97327e-18
5.60802e-18
4.5061e-18
8.48923e-18
3.78763e-18
1.5831e-18
8.84276e-18
4.11031e-18
4.14175e-18
8.36057e-18
6.95996e-18
1.51907e-17
3.16469e-18
2.76906e-18
3.21534e-18
3.34566e-18
9.8362e-19
4.41003e-18
4.63236e-18
5.07584e-18
2.20851e-18
8.59428e-18
6.08339e-18
4.00549e-18
7.47208e-18
4.97697e-18
5.66667e-18
4.34579e-18
1.03704e-18
3.8044e-18
3.90356e-18
5.90521e-18
3.90575e-18
4.66169e-18
6.35868e-18
1.68456e-18
4.42132e-18
3.29546e-18
5.87058e-18
4.36746e-18
3.66804e-18
1.2859e-18
3.68566e-18
3.75238e-18
8.27478e-18
1.10638e-18
2.8724e-18
4.56897e-18
3.3706e-18
6.5617e-18
6.73799e-18
1.19622e-17
1.64816e-17
3.48429e-18
2.77806e-18
2.21968e-18
5.8385e-18
2.26013e-18
5.54613e-18
5.03023e-18
4.2332e-18
2.54797e-18
6.52954e-18
3.98411e-18
1.70228e-18
1.88214e-18
2.80747e-18
2.95165e-18
1.31031e-18
8.99443e-19
2.38499e-18
2.71513e-18
4.94882e-18
6.23913e-18
4.81332e-18
4.7034e-18
5.28561e-18
3.58099e-18
2.67055e-18
1.13606e-18
7.92359e-18
1.85261e-18
2.1935e-18
1.01813e-17
8.50278e-18
1.03206e-18
1.67601e-17
2.69061e-17
9.82018e-18
7.35546e-18
2.67461e-18
1.55183e-17
5.21456e-18
1.87815e-17
1.35462e-18
3.4534e-18
2.11067e-18
2.27075e-18
2.91738e-18
2.88886e-18
1.34052e-18
3.45076e-18
1.7889e-18
4.01867e-18
6.00385e-18
2.21689e-18
3.75591e-18
3.82979e-19
4.81022e-18
2.59501e-18
1.45728e-18
4.91347e-18
3.54856e-18
2.17939e-18
4.59158e-18
1.17406e-17
4.18396e-18
7.99617e-18
9.99991e-18
3.17792e-18
1.70356e-18
1.06164e-17
8.89703e-18
7.38886e-18
3.24428e-18
9.94447e-18
1.10605e-17
1.07368e-17
3.00791e-18
1.92418e-17
1.83512e-17
6.60505e-18
7.99834e-18
9.67239e-19
3.5315e-18
6.98219e-19
2.9535e-18
1.95753e-18
2.42453e-18
5.00312e-18
4.63472e-18
1.97203e-18
3.80351e-18
3.24835e-18
4.26732e-18
2.09805e-18
4.43463e-18
1.59168e-18
2.81093e-18
1.63519e-18
3.11831e-18
1.81305e-18
1.55407e-18
3.93424e-18
4.91902e-18
4.06747e-18
3.60831e-18
2.82351e-18
7.75216e-18
7.39966e-18
5.60511e-18
6.62926e-18
6.88328e-18
3.27378e-18
7.57412e-18
1.2805e-18
5.94452e-18
3.96002e-18
1.65077e-18
4.01597e-18
7.73283e-18
9.10799e-18
2.84832e-18
6.80252e-18
5.37603e-18
1.67432e-18
3.69529e-18
2.68363e-18
2.33437e-18
3.64783e-18
3.49141e-18
5.93877e-18
6.39263e-19
7.05219e-19
1.15774e-18
3.14972e-18
4.60181e-19
2.26863e-18
8.96206e-18
6.79086e-18
4.74181e-18
4.9465e-18
5.14433e-18
4.72015e-18
4.21839e-18
1.85468e-18
4.70109e-18
1.01301e-17
7.94206e-18
8.00839e-19
5.42906e-18
4.03929e-18
4.13324e-18
2.23644e-18
1.45804e-18
9.56906e-18
2.21301e-18
2.56834e-18
9.50365e-19
3.85287e-18
1.38019e-17
4.16322e-18
5.74573e-18
4.92565e-18
2.45779e-18
2.89252e-18
2.99288e-18
1.59877e-18
4.07141e-19
3.65028e-18
2.51043e-18
4.27221e-18
1.32441e-18
1.11672e-18
2.33931e-18
2.7019e-18
3.59127e-18
1.84901e-18
6.02451e-18
2.59509e-18
4.31218e-18
1.61539e-18
1.40689e-18
3.18161e-18
3.10042e-18
2.19585e-18
2.24722e-18
3.72728e-18
3.33935e-18
6.05551e-18
3.04659e-18
9.10097e-19
7.67027e-18
4.78313e-18
2.61551e-18
5.07035e-18
7.56767e-18
2.99869e-18
2.7343e-18
1.48979e-18
1.05684e-18
1.49605e-18
1.74118e-18
7.73408e-18
1.80969e-18
1.51139e-18
1.10428e-18
2.12764e-18
5.46795e-19
1.52313e-18
1.58093e-18
1.60655e-18
2.82201e-18
1.60667e-18
1.91989e-18
1.51249e-18
6.02991e-18
6.54105e-18
7.59511e-19
1.04087e-18
3.99776e-18
4.4672e-18
2.53457e-18
1.27414e-18
3.78246e-18
3.46968e-18
7.36487e-19
5.17306e-18
2.16272e-18
1.38555e-18
3.11318e-18
3.01577e-18
4.90501e-18
3.49175e-18
2.99163e-18
1.79024e-18
3.91536e-18
7.34653e-18
1.63652e-18
5.49692e-18
2.65271e-18
6.52911e-18
3.74748e-18
9.5701e-19
4.51511e-18
4.29774e-18
6.21585e-18
3.19658e-18
1.09801e-18
1.70682e-18
2.3025e-18
2.78986e-18
1.8383e-18
3.10719e-18
6.38095e-19
1.49376e-18
1.63818e-18
1.8045e-18
2.0137e-18
3.6569e-18
3.16088e-18
4.33425e-18
1.97425e-18
3.49707e-18
1.59066e-18
5.39481e-18
3.64516e-18
1.02111e-18
3.79055e-18
5.33716e-18
3.51423e-18
3.21069e-18
8.7407e-19
3.49123e-18
4.74465e-18
3.63598e-19
6.06748e-19
1.46786e-18
4.51812e-18
1.75473e-18
3.68378e-18
8.10338e-18
1.64872e-18
3.89582e-18
9.13965e-18
1.2257e-17
5.38225e-19
4.4747e-18
5.35801e-18
2.0634e-18
1.62789e-18
1.08327e-18
8.21374e-19
1.52298e-18
1.34919e-18
9.97427e-19
2.88913e-18
2.48375e-18
1.91495e-18
1.96619e-18
2.13893e-18
3.69812e-18
1.84045e-18
2.2151e-18
1.48907e-18
3.26894e-18
3.93202e-18
7.79337e-19
2.84324e-18
9.34826e-19
1.16802e-18
2.75646e-18
3.55063e-18
3.01466e-18
4.58784e-18
3.85404e-18
2.26317e-18
1.74767e-18
1.41667e-18
6.17379e-19
6.15801e-18
2.81996e-18
3.31752e-18
3.85647e-18
1.08378e-18
3.12233e-18
4.15441e-18
1.89564e-18
4.35099e-18
3.81922e-18
2.7414e-18
7.16589e-19
9.97644e-19
1.81574e-18
9.82956e-19
2.58238e-18
1.44816e-18
1.65984e-18
9.4478e-19
1.7293e-19
4.3873e-19
9.95774e-19
1.99655e-18
2.95308e-18
1.50755e-18
1.52035e-18
6.87599e-19
4.25679e-19
3.16041e-18
3.08663e-19
5.09622e-19
2.14448e-18
2.78075e-18
2.51776e-18
1.27129e-18
2.36098e-18
1.49171e-18
1.43049e-18
1.10815e-19
1.35618e-18
2.07486e-18
1.39493e-18
3.03648e-18
5.01063e-18
2.63262e-18
5.86642e-18
3.20419e-18
3.31726e-18
5.24909e-18
7.36161e-18
2.05823e-18
1.35234e-18
1.92953e-18
1.02838e-18
4.95891e-19
1.86382e-19
1.73867e-18
5.57701e-19
1.43725e-18
1.67391e-18
1.53038e-18
1.057e-18
7.90858e-19
2.20645e-18
3.03033e-18
3.06499e-18
1.54036e-18
1.68224e-18
2.89057e-18
5.10477e-19
1.18792e-18
3.06367e-18
2.08775e-18
2.79565e-18
1.26363e-18
2.48952e-18
7.06265e-19
7.00408e-19
2.5417e-18
5.44564e-18
6.20181e-19
5.12302e-18
1.36366e-18
9.3635e-19
2.89542e-18
1.12228e-17
2.12012e-18
1.64775e-18
2.17876e-18
7.21376e-19
5.27977e-18
3.69297e-18
5.47586e-18
1.91115e-18
2.94839e-18
8.4948e-19
5.17104e-19
1.9793e-18
1.24851e-18
2.02895e-18
1.16518e-18
2.54945e-18
7.57218e-19
1.93694e-18
2.65016e-18
7.06373e-19
2.14871e-18
1.94507e-18
1.66448e-18
1.76031e-18
2.13324e-18
2.21945e-18
1.2681e-18
3.60463e-18
1.87441e-18
1.55431e-18
1.1683e-18
3.52e-18
1.89984e-18
7.54564e-19
4.67684e-18
2.39203e-18
3.58718e-18
2.64717e-18
5.01829e-18
7.46544e-18
5.30525e-18
4.63055e-18
4.50604e-18
2.64068e-18
3.76229e-18
1.57284e-18
5.07435e-19
6.05901e-18
4.782e-19
1.47614e-19
1.381e-18
1.2478e-18
1.18053e-18
1.51791e-18
2.82664e-18
1.78992e-18
2.29396e-18
2.29883e-18
2.00865e-18
1.05129e-18
3.46854e-18
2.39473e-18
2.59454e-18
2.51992e-18
8.90984e-19
3.13346e-18
2.37489e-18
1.05951e-18
1.09409e-18
3.50004e-18
3.51628e-18
1.55911e-18
5.82625e-18
2.92695e-18
2.01112e-18
1.00064e-18
5.87853e-18
7.86716e-18
4.61592e-18
5.22087e-18
2.3408e-18
2.80951e-18
3.18702e-18
2.6031e-18
7.40618e-18
2.44646e-18
2.83451e-18
3.26806e-18
3.50522e-18
1.12354e-18
7.49033e-19
1.89642e-18
2.11311e-18
9.43466e-19
1.2644e-18
4.39024e-19
1.6608e-18
2.17295e-18
9.11463e-19
1.69186e-18
1.03494e-18
1.51993e-18
1.16499e-18
2.57684e-18
5.95216e-19
2.97275e-18
6.54463e-19
1.97595e-18
2.18836e-18
5.4123e-18
2.10211e-18
1.11648e-18
4.64781e-18
2.47365e-18
2.54975e-18
3.40729e-18
1.05933e-18
2.81654e-18
9.89115e-19
5.66137e-19
4.58645e-18
3.2372e-18
3.33647e-18
3.10436e-18
9.68227e-19
3.22224e-18
2.7674e-18
7.23856e-18
7.25868e-18
1.15736e-17
1.81578e-18
2.36405e-19
1.294e-18
2.14259e-18
7.44572e-19
1.51849e-18
1.71449e-18
1.53439e-18
1.02437e-18
1.16993e-18
1.26196e-18
7.28395e-19
4.81016e-19
7.93781e-19
2.30505e-18
1.62111e-18
1.63111e-18
2.84914e-18
9.43914e-19
3.19959e-19
2.95893e-18
3.66201e-18
2.24186e-18
7.1819e-19
8.72241e-19
1.17839e-18
4.17939e-18
1.44121e-18
2.9035e-18
3.88194e-18
2.72739e-18
1.92745e-18
1.09051e-17
3.41683e-18
1.48378e-18
1.60397e-18
3.75144e-18
3.49842e-18
4.0205e-18
4.70658e-18
6.02799e-18
1.13475e-19
1.00969e-18
1.17601e-18
2.08096e-18
9.69994e-19
7.21784e-19
1.19874e-18
6.59775e-19
3.9436e-19
9.56016e-19
1.76521e-18
1.54852e-18
8.67967e-19
1.17291e-18
1.25284e-18
1.36097e-18
1.05662e-18
2.66668e-18
3.3249e-18
5.56412e-19
3.46713e-18
2.10045e-18
1.48266e-18
2.13147e-18
3.29149e-19
2.29295e-18
1.14085e-18
7.36608e-19
1.17601e-18
4.3873e-19
1.73059e-18
1.61092e-18
3.40788e-18
2.33007e-18
2.08788e-18
5.64094e-18
1.43944e-18
4.96981e-18
4.08223e-18
5.26297e-18
8.65814e-18
8.92281e-19
7.76435e-19
7.98058e-19
5.10333e-19
6.29325e-19
8.84177e-19
8.6927e-19
6.91299e-19
1.71509e-18
7.83659e-19
1.15776e-18
1.44937e-18
5.73149e-19
1.03225e-18
5.23495e-19
2.47935e-18
6.48828e-19
2.04042e-18
4.00706e-18
1.00964e-18
1.34791e-18
9.55526e-19
2.4594e-18
5.63851e-19
2.84491e-18
1.95273e-18
1.18004e-18
1.68656e-18
1.33266e-18
4.41147e-18
1.20286e-18
1.67186e-18
2.68682e-18
6.21189e-19
2.26116e-18
6.33277e-18
2.61142e-18
2.43532e-18
3.6656e-18
2.37061e-18
2.18814e-18
3.34881e-19
8.59731e-19
6.5094e-19
8.37345e-19
1.15338e-18
7.55048e-19
2.42564e-19
9.51678e-19
1.51919e-18
1.64751e-18
1.11493e-18
6.66527e-19
8.86367e-19
8.37667e-19
1.71246e-18
1.00318e-18
1.60851e-18
9.83796e-19
1.59944e-18
1.89466e-18
1.93286e-18
1.17888e-18
1.54245e-18
7.00646e-19
5.51713e-19
1.70157e-18
7.6503e-19
6.15556e-19
1.57349e-18
1.47729e-18
1.22812e-18
2.57433e-18
4.08308e-18
6.33732e-19
1.00906e-18
1.66853e-18
2.81658e-18
7.22068e-18
5.32854e-18
2.12432e-18
8.24804e-19
4.17969e-19
2.05549e-19
1.30916e-18
7.85281e-19
2.10817e-19
5.40025e-19
2.7128e-19
9.09598e-19
3.14472e-19
7.78847e-19
7.00547e-19
5.40415e-19
5.5284e-19
3.89785e-19
1.9544e-19
1.02382e-18
9.52495e-19
1.95903e-18
2.52481e-18
1.89032e-18
8.30739e-19
1.73041e-18
8.01526e-19
1.56384e-18
2.39004e-18
5.87166e-18
7.76129e-18
1.52933e-18
6.76739e-18
8.05007e-19
2.97311e-18
4.82377e-19
2.1261e-18
3.70969e-18
1.68687e-18
3.38503e-18
4.8746e-18
1.88638e-18
1.9054e-18
7.35679e-18
5.15726e-18
4.53391e-19
6.53351e-19
1.70557e-18
6.48072e-19
9.01069e-19
1.07422e-18
1.84115e-19
2.71632e-19
1.34845e-18
4.56747e-19
1.53491e-18
1.12076e-18
7.01077e-19
1.41423e-18
4.67329e-19
7.86676e-19
7.05038e-19
5.39281e-19
1.13556e-18
6.45397e-19
1.13352e-18
2.37679e-18
6.92609e-19
7.16115e-19
2.51823e-18
2.66408e-18
2.65639e-18
7.54439e-19
2.85818e-18
7.62962e-18
4.83151e-18
3.92957e-18
1.57261e-18
3.16054e-18
5.54496e-18
6.03299e-18
4.08044e-18
3.57538e-18
1.47029e-18
4.18794e-18
4.80044e-18
7.80904e-19
5.36288e-19
1.35628e-18
1.07876e-18
5.34355e-19
6.23768e-19
5.55012e-19
4.97061e-19
1.25809e-18
8.11961e-19
6.67612e-19
5.97495e-19
4.56412e-19
3.31665e-19
7.01948e-19
2.33033e-18
1.59565e-18
3.7815e-19
1.43367e-18
1.42494e-19
3.20442e-19
8.64161e-19
1.65381e-18
2.70015e-18
1.61287e-19
2.40911e-18
1.37969e-18
1.67574e-18
3.5496e-19
4.24302e-18
4.94842e-18
4.95496e-18
2.62299e-18
6.61683e-19
2.82127e-18
2.47198e-18
1.24157e-18
2.38214e-18
1.40998e-18
2.8754e-18
4.4435e-18
5.53465e-19
6.01907e-19
7.28007e-19
6.94137e-19
5.38928e-19
3.59645e-19
7.12265e-19
1.31962e-18
7.38301e-19
1.90542e-19
8.51979e-19
8.88893e-19
8.87653e-19
1.2535e-18
9.63301e-19
1.50255e-18
1.0896e-18
1.16717e-19
6.30255e-19
1.80834e-18
2.80831e-19
9.99875e-19
5.32389e-19
1.43978e-18
1.15428e-18
2.3073e-18
2.78419e-18
4.66339e-18
3.49104e-18
6.24117e-19
1.95515e-18
3.11733e-19
4.26627e-18
1.59312e-18
2.56551e-18
6.428e-18
1.7998e-18
7.35194e-19
2.49391e-18
1.87611e-18
1.39494e-18
4.92255e-19
5.06821e-19
1.16177e-18
6.78981e-19
6.57119e-19
3.77899e-19
5.82362e-19
6.49614e-19
9.26807e-19
5.20755e-19
5.77038e-19
5.19981e-19
9.3588e-19
5.07469e-19
1.10056e-18
2.5895e-19
7.91657e-19
7.44105e-19
3.15149e-19
1.70438e-18
1.4529e-18
2.53073e-18
2.73148e-18
2.61863e-18
7.41785e-19
5.22218e-19
8.68921e-19
2.87666e-18
1.73229e-19
2.41587e-18
1.71226e-18
4.4486e-19
7.71254e-18
1.50056e-18
8.89654e-19
3.53964e-18
1.16587e-18
4.41519e-18
5.3949e-19
5.31906e-18
4.8526e-19
3.07792e-19
4.33789e-19
6.6194e-19
5.33339e-19
4.26332e-19
1.47745e-19
1.33274e-19
7.03649e-19
4.87484e-19
2.49915e-19
1.06026e-18
4.9451e-19
1.32541e-18
4.51115e-19
3.26076e-19
1.1407e-18
8.12994e-19
1.08672e-18
1.52099e-18
2.34175e-19
2.10159e-18
3.37043e-19
5.92539e-19
1.20528e-18
1.89733e-18
4.3527e-19
2.47016e-18
1.06517e-18
8.58841e-19
2.59182e-18
3.35531e-18
6.47574e-19
3.4694e-18
1.14931e-18
1.34807e-18
1.40445e-18
3.60013e-18
1.33009e-18
4.44925e-18
1.4448e-18
2.70705e-19
5.54704e-19
8.85219e-19
4.21683e-19
8.71244e-19
4.52248e-19
2.33469e-19
6.38497e-19
5.07416e-19
3.34689e-19
3.64205e-19
3.51348e-19
8.21311e-19
4.24684e-19
5.73166e-19
2.36631e-19
2.71201e-19
1.36047e-18
1.07291e-18
5.94103e-19
1.69641e-18
2.20141e-18
7.71318e-19
1.68446e-18
5.36661e-19
1.09563e-18
9.44212e-19
1.18204e-18
3.52987e-18
2.85537e-18
8.31674e-19
3.33846e-18
2.06671e-18
5.88183e-19
1.475e-18
3.32162e-18
6.36017e-19
2.18695e-18
1.64468e-18
1.1673e-18
2.08612e-18
4.76222e-18
2.93397e-19
1.70594e-19
4.18139e-19
3.5944e-19
8.09656e-19
2.70376e-19
7.10693e-19
7.7357e-19
5.60504e-19
4.58958e-19
8.65022e-19
2.61403e-19
3.23617e-19
3.56303e-19
2.77596e-19
9.02083e-19
1.27243e-18
1.76419e-18
6.2946e-19
1.15566e-18
6.44795e-19
2.30135e-19
1.01486e-18
1.20583e-18
6.49228e-19
1.75137e-19
2.90569e-19
2.13247e-18
4.26587e-19
3.46595e-19
2.20116e-18
1.82264e-18
5.07838e-19
4.00065e-18
3.83706e-18
3.90059e-18
7.15677e-19
2.62707e-19
2.83236e-18
2.31053e-18
3.85281e-18
2.22552e-19
3.15377e-19
6.75206e-19
2.28027e-19
5.23164e-19
2.46279e-19
7.23725e-19
2.99586e-19
1.51049e-19
1.31577e-19
7.20042e-19
1.16306e-19
4.27456e-19
7.59335e-19
3.10909e-19
5.17103e-19
1.08657e-18
2.60181e-19
7.31485e-19
4.62932e-19
4.6735e-19
1.37138e-18
3.97458e-19
5.282e-19
1.23099e-18
2.67336e-18
9.94703e-19
2.09388e-18
1.63864e-18
8.41956e-19
1.88264e-18
1.09035e-18
3.18331e-18
1.80847e-19
1.17921e-18
3.29583e-18
3.64635e-18
5.37227e-18
1.32547e-18
1.05402e-18
4.87174e-18
2.86209e-19
4.30144e-19
3.88091e-19
2.62525e-19
2.94623e-19
3.96189e-19
2.41699e-19
2.16441e-19
2.71781e-19
4.54385e-19
2.29517e-19
3.5123e-19
4.35676e-19
3.18649e-19
7.01949e-19
7.50717e-20
4.40603e-19
1.01117e-18
8.464e-19
2.18337e-18
1.09382e-18
4.50302e-19
3.31897e-19
2.06528e-18
1.38105e-18
1.23995e-19
6.63954e-19
3.31555e-19
1.51379e-18
1.68425e-18
2.61585e-18
3.44393e-18
2.9765e-18
1.78759e-18
6.68708e-18
3.23085e-18
3.20185e-18
5.21699e-18
3.97386e-18
1.32396e-18
6.36562e-19
3.26115e-19
1.12897e-19
4.25971e-19
4.36398e-19
4.5222e-19
2.52557e-19
3.85542e-19
1.51107e-19
3.98886e-19
5.25541e-19
2.9865e-19
3.59286e-19
4.97389e-19
1.22979e-19
1.9532e-19
8.82323e-19
1.05087e-18
1.51662e-19
1.61789e-18
4.72793e-19
5.66113e-19
2.11416e-18
1.62749e-18
1.47574e-18
8.63978e-19
2.02162e-18
1.4112e-18
3.76007e-19
2.2976e-18
1.49177e-18
2.16453e-18
2.96576e-18
1.27864e-18
1.49979e-18
1.77291e-18
7.41626e-19
6.71686e-19
5.25606e-19
4.46127e-18
4.53673e-18
1.22564e-17
4.02201e-19
1.57925e-19
4.31791e-19
1.83547e-19
4.51786e-19
4.74886e-19
5.39357e-19
4.06048e-19
6.21887e-19
4.62222e-19
2.84199e-19
3.1433e-19
5.95242e-19
9.85348e-19
5.24467e-19
2.44543e-19
2.58297e-19
1.16752e-18
4.8337e-19
2.79385e-19
1.57627e-18
3.83788e-19
3.71862e-19
8.97543e-19
9.62844e-20
6.41504e-19
2.61153e-18
7.69419e-19
4.75355e-18
2.33968e-18
3.02616e-18
7.84683e-19
2.97553e-18
1.85192e-18
1.75607e-18
9.67339e-19
2.09188e-18
9.79085e-18
5.36574e-18
5.2487e-18
3.05623e-18
6.7937e-18
1.19316e-17
1.4538e-17
1.34101e-17
3.71085e-17
3.69117e-17
3.9162e-18
2.73031e-17
3.79102e-18
2.37782e-17
9.24728e-18
2.69931e-17
2.26979e-17
1.61544e-17
2.13557e-17
2.33175e-18
3.84865e-18
4.67732e-17
1.90847e-17
1.29455e-17
2.70254e-17
5.13879e-18
6.81152e-18
1.67652e-17
1.88899e-17
5.17264e-18
1.47733e-17
3.92718e-17
1.00475e-17
4.71045e-18
6.24833e-18
3.85729e-18
3.1614e-17
1.78725e-17
3.91699e-18
3.21722e-18
1.48112e-18
1.42332e-18
1.29429e-17
9.1708e-18
1.11942e-18
8.58422e-18
2.25477e-17
4.14947e-18
1.2921e-18
2.43992e-18
1.59793e-17
9.21275e-18
5.7361e-18
8.54341e-18
1.84717e-18
1.95445e-18
1.06562e-18
5.46569e-18
2.04926e-18
1.23043e-18
2.87013e-18
7.94561e-19
1.0823e-17
1.99143e-18
3.88339e-18
1.5833e-17
3.18147e-18
2.95512e-18
1.2701e-18
5.98354e-18
1.65193e-18
5.20707e-18
1.13613e-18
2.73372e-18
5.34434e-19
2.69687e-18
3.22688e-19
1.8703e-18
1.0535e-17
7.76965e-18
1.45376e-17
8.54821e-18
2.94403e-17
3.04284e-17
1.84933e-18
2.34735e-17
1.36619e-17
1.89182e-17
5.49758e-18
2.36275e-17
1.9607e-17
1.39525e-17
1.79136e-17
3.22127e-18
5.62782e-18
7.9948e-18
1.77225e-17
1.14723e-17
2.44867e-17
6.91477e-18
7.41355e-18
1.51036e-17
1.5879e-17
7.60655e-18
1.35315e-17
1.1721e-17
1.00714e-17
4.37573e-18
5.3891e-18
3.48316e-18
5.31442e-18
1.62668e-17
3.59343e-18
3.2325e-18
8.30393e-19
2.07504e-18
1.17583e-17
8.2586e-18
4.16275e-18
7.59567e-18
6.97742e-18
3.8859e-18
1.89107e-18
2.08204e-18
5.00335e-18
8.49707e-18
5.25978e-18
8.00079e-18
3.01563e-18
1.50454e-18
9.87467e-19
5.17152e-18
1.95579e-18
7.83911e-19
2.76813e-18
1.04794e-18
3.51027e-18
1.79773e-18
3.65053e-18
4.98081e-18
2.99751e-18
2.88082e-18
1.21578e-18
1.67338e-18
1.47682e-18
1.3732e-18
1.09139e-18
2.63022e-18
7.26557e-19
2.57761e-18
2.02872e-19
1.85893e-18
1.80904e-18
4.74311e-18
8.91132e-18
9.28612e-18
2.55325e-17
2.56526e-17
1.94674e-17
2.13379e-17
3.47467e-18
1.68709e-17
6.18989e-18
1.88574e-17
1.67784e-17
1.44601e-17
1.52597e-17
9.62699e-18
5.01417e-18
6.36133e-18
1.52178e-17
9.12519e-18
2.09013e-17
7.09405e-18
6.32504e-18
1.26259e-17
1.4291e-17
4.97406e-18
1.15714e-17
1.0503e-17
8.20031e-18
4.15387e-18
4.7562e-18
3.47625e-18
4.15476e-18
1.44537e-17
2.74797e-18
2.57909e-18
7.89174e-19
9.62064e-19
1.05106e-17
7.5005e-18
1.19923e-18
7.03726e-18
6.36281e-18
3.75112e-18
1.20372e-18
2.34778e-18
4.70195e-18
7.71793e-18
4.84374e-18
7.33139e-18
1.76387e-18
1.48604e-18
9.07493e-19
4.81291e-18
1.71701e-18
6.98802e-19
2.52019e-18
8.6542e-19
3.26972e-18
1.51011e-18
3.29037e-18
4.3166e-18
2.74877e-18
2.58349e-18
1.13295e-18
1.52251e-18
1.4261e-18
1.30373e-18
1.03068e-18
2.49708e-18
4.35599e-19
2.48406e-18
4.66726e-19
1.69678e-18
2.51023e-17
6.07554e-18
1.19026e-17
5.93328e-18
2.12704e-17
2.12181e-17
1.1969e-18
1.83183e-17
2.52523e-18
1.45773e-17
5.97343e-18
1.84523e-17
1.40211e-17
9.8081e-18
1.33514e-17
1.47344e-18
2.97078e-18
7.01435e-18
1.18468e-17
8.44822e-18
1.78184e-17
3.5684e-18
4.54921e-18
1.1555e-17
1.23256e-17
4.49797e-18
1.00482e-17
1.01759e-17
7.14156e-18
3.78771e-18
5.21263e-18
4.02309e-18
3.68343e-18
1.28281e-17
3.087e-18
2.67696e-18
1.12396e-18
2.523e-18
9.28778e-18
6.72054e-18
2.31325e-18
6.44184e-18
5.64042e-18
3.39361e-18
1.19327e-18
1.87554e-18
4.32537e-18
7.10101e-18
4.41007e-18
6.6239e-18
1.40972e-18
1.69979e-18
9.20988e-19
4.3958e-18
1.77202e-18
7.20634e-19
2.42543e-18
7.8407e-19
2.9867e-18
1.51765e-18
3.06705e-18
4.135e-18
2.57631e-18
2.39261e-18
1.02284e-18
1.40175e-18
1.28954e-18
1.23184e-18
9.34902e-19
2.27378e-18
4.00436e-19
2.26831e-18
2.05495e-19
1.74842e-18
7.39121e-18
8.7647e-18
5.31998e-18
8.88236e-18
1.71521e-17
1.71903e-17
5.23993e-18
1.54775e-17
7.83384e-18
1.6562e-17
3.66457e-18
1.40953e-17
1.29671e-17
8.3186e-18
1.34712e-17
3.1853e-18
2.0751e-18
6.18198e-18
1.01046e-17
7.07063e-18
1.53833e-17
1.97131e-18
4.42972e-18
9.75429e-18
1.1409e-17
3.40179e-18
8.88186e-18
8.7763e-18
6.93086e-18
2.8404e-18
3.79542e-18
2.62008e-18
3.0569e-18
1.13111e-17
2.19915e-18
2.16188e-18
9.83051e-19
8.68408e-19
8.67791e-18
6.13481e-18
6.2914e-19
5.67983e-18
5.02853e-18
3.38245e-18
1.54443e-18
2.4018e-18
3.76573e-18
6.37639e-18
3.97559e-18
6.03923e-18
1.29029e-18
1.496e-18
1.1629e-18
4.02476e-18
1.72743e-18
1.17215e-18
2.13806e-18
9.55123e-19
2.79205e-18
1.18293e-18
2.82419e-18
3.81373e-18
2.43051e-18
2.22825e-18
1.1827e-18
1.55817e-18
1.18458e-18
1.12506e-18
8.4763e-19
2.10343e-18
4.12296e-19
2.1693e-18
2.46631e-19
1.58124e-18
1.05358e-18
6.6135e-18
6.10412e-18
5.78731e-18
1.52318e-17
1.52803e-17
1.40579e-18
1.3106e-17
1.98633e-18
1.0144e-17
3.89022e-18
1.42135e-17
9.23868e-18
8.25666e-18
9.28883e-18
5.49746e-18
2.46327e-18
8.17406e-18
9.82477e-18
1.02334e-17
1.3259e-17
4.06481e-18
3.35066e-18
8.6761e-18
8.91848e-18
2.43812e-18
7.33765e-18
7.46536e-18
5.30228e-18
3.07704e-18
3.51091e-18
2.06663e-18
2.84714e-18
1.00162e-17
4.19376e-18
2.41476e-18
1.06208e-18
9.29953e-19
7.52449e-18
5.49557e-18
2.436e-18
5.56345e-18
4.87029e-18
2.72476e-18
7.09212e-19
1.41711e-18
3.87097e-18
6.00712e-18
3.69179e-18
5.71698e-18
1.37986e-18
1.19253e-18
1.49032e-18
3.82923e-18
1.40816e-18
7.38694e-19
1.99311e-18
5.64127e-19
2.5652e-18
1.44922e-18
2.766e-18
3.53279e-18
2.34463e-18
2.16086e-18
9.73588e-19
1.41921e-18
1.20856e-18
1.16665e-18
8.29769e-19
2.06417e-18
3.53921e-19
2.0227e-18
1.22875e-19
1.5382e-18
6.18584e-18
6.18777e-18
5.03053e-18
4.24058e-18
1.29335e-17
1.2456e-17
2.3699e-18
1.25233e-17
5.1206e-18
9.62326e-18
2.29403e-18
1.04098e-17
9.89254e-18
5.80048e-18
7.67223e-18
1.92646e-18
1.59836e-18
3.51636e-18
1.05161e-17
4.67814e-18
1.12418e-17
4.15568e-18
3.8152e-18
8.39498e-18
8.02009e-18
7.155e-18
7.63475e-18
5.95913e-18
4.52877e-18
2.2142e-18
2.73175e-18
2.07948e-18
2.47691e-18
8.97968e-18
1.93824e-18
1.64694e-18
6.4841e-19
2.25945e-18
7.23104e-18
4.87267e-18
1.84036e-18
4.70585e-18
5.07198e-18
2.79617e-18