/*--------------------------------*- C++ -*----------------------------------*\
| =========                 |                                                 |
| \\      /  F ield         | OpenFOAM: The Open Source CFD Toolbox           |
|  \\    /   O peration     | Version:  2312                                  |
|   \\  /    A nd           | Website:  www.openfoam.com                      |
|    \\/     M anipulation  |                                                 |
\*---------------------------------------------------------------------------*/
FoamFile
{
    version     2.0;
    format      ascii;
    arch        "LSB;label=32;scalar=64";
    class       volSymmTensorField;
    location    "0";
    object      turbulenceProperties:devReff;
}
// * * * * * * * * * * * * * * * * * * * * * * * * * * * * * * * * * * * * * //

dimensions      [0 2 -2 0 0 0 0];

internalField   nonuniform List<symmTensor> 
11040
(
(0.176581 -0.00753158 1.05713e-20 -0.0919305 1.48614e-21 -0.0846501)
(0.16377 -0.0711137 4.86436e-20 -0.0941881 6.83843e-21 -0.0695816)
(0.144579 -0.108007 2.23035e-19 -0.0894469 3.13548e-20 -0.0551321)
(0.126457 -0.127347 -6.19822e-20 -0.082812 -8.71361e-21 -0.0436448)
(0.110996 -0.137698 -4.23803e-20 -0.0762958 -5.95793e-21 -0.0347004)
(0.0981588 -0.143437 -5.341e-21 -0.0704875 -7.50852e-22 -0.0276713)
(0.0874555 -0.146824 -6.76314e-20 -0.0654502 -9.5078e-21 -0.0220052)
(0.0783813 -0.149011 -9.39098e-20 -0.0610845 -1.32021e-20 -0.0172968)
(0.0705393 -0.150568 2.14769e-20 -0.0572651 3.01928e-21 -0.0132742)
(0.0636323 -0.151769 -5.62402e-20 -0.0538774 -7.90639e-21 -0.00975491)
(0.0574112 -0.152781 2.42733e-20 -0.0508164 3.4124e-21 -0.0065948)
(0.0517227 -0.153665 -7.47899e-20 -0.0480117 -1.05142e-20 -0.00371102)
(0.0464122 -0.154451 -3.56288e-20 -0.045388 -5.00878e-21 -0.00102418)
(0.0413779 -0.155143 -1.65845e-20 -0.0428932 -2.33149e-21 0.00151531)
(0.036556 -0.155718 4.16056e-21 -0.0404916 5.84902e-22 0.00393562)
(0.0318991 -0.156157 -3.41889e-20 -0.0381559 -4.80636e-21 0.00625684)
(0.0273676 -0.156441 4.6775e-22 -0.0358631 6.57575e-23 0.00849551)
(0.0229459 -0.156543 1.86066e-20 -0.0336016 2.61577e-21 0.0106557)
(0.0186055 -0.156452 -6.47285e-21 -0.031355 -9.0997e-22 0.0127495)
(0.0143479 -0.156146 -4.55378e-21 -0.0291212 -6.40182e-22 0.0147733)
(0.0101372 -0.155626 -2.95627e-21 -0.0268817 -4.156e-22 0.0167444)
(0.00642861 -0.154793 1.78385e-20 -0.0248569 2.50779e-21 0.0184283)
(0.00358308 -0.153648 -1.27462e-20 -0.0232331 -1.79189e-21 0.01965)
(0.00115804 -0.152372 3.23966e-21 -0.0218073 4.55439e-22 0.0206493)
(-0.00106512 -0.15105 -1.14598e-20 -0.0204791 -1.61104e-21 0.0215442)
(-0.00309169 -0.149689 2.77601e-21 -0.0192465 3.90259e-22 0.0223382)
(-0.00495691 -0.148301 -8.94836e-21 -0.0180934 -1.25798e-21 0.0230503)
(-0.00667783 -0.146896 -3.84742e-20 -0.017012 -5.40881e-21 0.0236899)
(-0.00828063 -0.145482 -1.32358e-20 -0.0159903 -1.86072e-21 0.0242709)
(-0.00978005 -0.144065 1.60989e-20 -0.0150212 2.26323e-21 0.0248013)
(-0.0111957 -0.14265 6.91592e-21 -0.0140956 9.72257e-22 0.0252913)
(-0.0125416 -0.141241 7.85534e-20 -0.0132068 1.10432e-20 0.0257484)
(-0.0138265 -0.139841 9.57257e-20 -0.0123506 1.34574e-20 0.0261772)
(-0.0150691 -0.138455 1.70448e-20 -0.0115182 2.3962e-21 0.0265873)
(-0.0162872 -0.137085 2.38303e-20 -0.0107005 3.35012e-21 0.0269877)
(-0.0174766 -0.13573 5.46185e-20 -0.00989967 7.6784e-21 0.0273763)
(-0.0186379 -0.13439 -1.33196e-20 -0.00911553 -1.87251e-21 0.0277534)
(-0.0198 -0.133072 9.70399e-21 -0.008334 1.36421e-21 0.028134)
(-0.0209639 -0.131772 -4.91718e-20 -0.00755397 -6.9127e-21 0.0285179)
(-0.0221332 -0.130493 -1.07349e-20 -0.00677403 -1.50914e-21 0.0289072)
(-0.0232943 -0.12923 6.76447e-21 -0.00600064 9.50967e-22 0.029295)
(-2.47297e-18 -6.88506e-19 -9.67751e-21 1.57823e-18 -1.36049e-21 8.94739e-19)
(1.72463e-17 5.43318e-18 3.88149e-20 -1.0551e-17 5.4567e-21 -6.69523e-18)
(-4.95192e-18 -8.3629e-18 -2.86714e-19 1.61129e-18 -4.03069e-20 3.34064e-18)
(1.43824e-17 7.15844e-18 -2.1212e-20 -8.66107e-18 -2.98203e-21 -5.72134e-18)
(2.96094e-18 8.55453e-19 3.7626e-21 -3.71295e-18 5.28956e-22 7.52017e-19)
(9.7478e-18 -1.16925e-17 -4.50452e-20 -4.09338e-18 -6.33257e-21 -5.65442e-18)
(4.60746e-18 -1.21775e-17 6.95805e-21 5.39582e-19 9.7818e-22 -5.14704e-18)
(-1.74037e-18 5.45837e-18 9.01158e-20 2.75075e-18 1.26687e-20 -1.01038e-18)
(2.82157e-18 7.86146e-18 -3.54237e-21 -1.81239e-19 -4.97996e-22 -2.64033e-18)
(3.55936e-18 9.89112e-18 2.44121e-20 -3.85914e-19 3.43191e-21 -3.17344e-18)
(-2.52861e-19 1.63595e-17 -3.42785e-20 5.05722e-19 -4.81896e-21 -2.52861e-19)
(-3.83759e-18 3.97377e-18 1.12325e-19 3.05331e-18 1.57909e-20 7.84277e-19)
(4.78015e-18 -1.60318e-18 8.17327e-21 -3.24239e-18 1.14902e-21 -1.53777e-18)
(-4.18943e-18 3.18074e-17 6.90438e-20 3.07732e-18 9.70636e-21 1.11211e-18)
(-2.97636e-18 -1.88631e-17 -2.91165e-20 1.36923e-18 -4.09327e-21 1.60714e-18)
(6.39569e-19 7.19361e-18 1.11562e-20 -7.32688e-19 1.56837e-21 9.31186e-20)
(4.62488e-18 -1.14291e-17 1.73221e-20 -4.53597e-18 2.43518e-21 -8.89087e-20)
(-1.64963e-18 9.36849e-18 1.70153e-20 -7.17714e-19 2.39205e-21 2.36735e-18)
(2.7999e-18 -1.39744e-17 2.15247e-21 -2.72298e-18 3.02599e-22 -7.69212e-20)
(1.37835e-20 1.21045e-17 -1.26703e-21 -6.48456e-19 -1.78122e-22 6.34672e-19)
(9.2309e-19 1.71521e-17 -4.46044e-21 6.65905e-19 -6.2706e-22 -1.58899e-18)
(-5.27895e-18 1.02318e-17 -1.33143e-20 7.21315e-18 -1.87176e-21 -1.9342e-18)
(1.35456e-18 -3.30574e-18 2.12517e-20 -3.10885e-18 2.98762e-21 1.75429e-18)
(2.11334e-18 6.89088e-18 5.02637e-21 -2.39039e-18 7.06619e-22 2.77043e-19)
(-3.37136e-20 -7.99897e-18 6.318e-21 6.74272e-20 8.88201e-22 -3.37136e-20)
(1.36982e-18 5.35343e-18 -1.35283e-20 -1.17339e-18 -1.90184e-21 -1.96426e-19)
(1.8192e-18 -1.04508e-18 -8.55124e-21 -2.20701e-18 -1.20216e-21 3.87809e-19)
(4.52331e-18 1.97183e-17 4.91636e-20 -8.42342e-19 6.91154e-21 -3.68097e-18)
(-1.57765e-18 -8.55366e-18 4.12663e-21 2.36262e-18 5.80133e-22 -7.84971e-19)
(6.2726e-18 1.02933e-18 -3.11212e-20 -5.52804e-18 -4.3751e-21 -7.44561e-19)
(-2.42877e-19 1.53813e-17 -4.05052e-20 1.32867e-18 -5.69433e-21 -1.08579e-18)
(-5.76725e-20 1.77877e-17 -8.624e-20 2.95661e-18 -1.21238e-20 -2.89894e-18)
(-2.28588e-18 -7.21503e-18 -7.406e-20 9.44018e-19 -1.04115e-20 1.34186e-18)
(-6.92575e-18 1.02633e-17 -3.72954e-20 4.38852e-18 -5.24308e-21 2.53723e-18)
(6.72326e-20 -1.88567e-17 1.75136e-20 -2.37889e-18 2.4621e-21 2.31166e-18)
(3.27807e-18 -6.15207e-18 -7.1674e-20 -3.16146e-18 -1.00761e-20 -1.16603e-19)
(1.18278e-17 -7.59358e-18 5.61907e-20 -8.08931e-18 7.89944e-21 -3.73852e-18)
(-2.9013e-18 -7.30696e-18 -4.23818e-20 -9.80757e-19 -5.95815e-21 3.88206e-18)
(-6.65081e-19 1.54362e-17 1.79329e-20 2.89082e-18 2.52105e-21 -2.22574e-18)
(9.0648e-18 1.02415e-18 2.64253e-20 -6.17954e-18 3.71493e-21 -2.88526e-18)
(-6.14928e-20 1.62534e-17 -6.31756e-20 1.74453e-18 -8.88139e-21 -1.68304e-18)
(5.31546e-18 -6.7322e-18 -5.82136e-22 -3.72034e-18 -8.18381e-23 -1.59512e-18)
(-8.10961e-18 1.34044e-17 -9.10458e-20 5.04517e-18 -1.27994e-20 3.06444e-18)
(2.63359e-18 1.08667e-17 1.33531e-19 1.23128e-18 1.87722e-20 -3.86487e-18)
(6.98215e-18 1.75694e-17 1.41225e-19 -3.48503e-18 1.98538e-20 -3.49712e-18)
(-7.46041e-18 -4.94205e-18 -6.97488e-21 1.61845e-18 -9.80546e-22 5.84196e-18)
(2.26074e-18 -3.55503e-18 3.78355e-20 -9.84514e-19 5.31902e-21 -1.27622e-18)
(-7.91002e-18 -1.49992e-17 6.612e-20 4.0582e-18 9.29531e-21 3.85182e-18)
(1.66584e-20 1.06462e-17 6.25209e-20 1.43313e-18 8.78934e-21 -1.44979e-18)
(-6.37434e-18 -4.77922e-18 -4.26336e-20 6.78492e-18 -5.99354e-21 -4.10572e-19)
(1.15493e-17 2.66374e-17 -1.80525e-21 -3.74132e-18 -2.53787e-22 -7.80793e-18)
(-5.62679e-18 -6.5652e-18 -2.25443e-20 1.207e-18 -3.16933e-21 4.41979e-18)
(1.33819e-18 -1.43661e-18 -6.89512e-20 5.41317e-19 -9.69333e-21 -1.87951e-18)
(4.46494e-18 -1.28244e-17 4.95434e-20 -3.60943e-18 6.96494e-21 -8.55507e-19)
(-6.35369e-19 -1.27441e-17 -5.11809e-20 -2.1433e-19 -7.19513e-21 8.49699e-19)
(-1.49101e-19 -5.33615e-18 2.98495e-20 2.98203e-19 4.19632e-21 -1.49101e-19)
(-2.21135e-18 1.18525e-17 1.2727e-20 -8.44278e-19 1.78919e-21 3.05562e-18)
(1.33836e-18 -1.45758e-18 -5.79454e-21 1.31683e-18 -8.14611e-22 -2.65519e-18)
(-1.88434e-18 -5.57911e-18 -7.92284e-21 2.15799e-18 -1.11381e-21 -2.7365e-19)
(-1.89346e-18 1.78639e-17 -3.88849e-22 6.46156e-19 -5.46654e-23 1.2473e-18)
(1.89932e-18 1.48757e-17 3.63632e-22 -3.22609e-18 5.11203e-23 1.32677e-18)
(7.77597e-19 -3.06996e-17 1.22862e-20 -2.62797e-19 1.72722e-21 -5.148e-19)
(-3.12261e-18 2.0457e-17 1.07409e-20 3.3935e-18 1.50998e-21 -2.70893e-19)
(-8.60728e-19 1.15229e-17 -2.28466e-21 1.72146e-18 -3.21184e-22 -8.60728e-19)
(-1.2332e-18 -4.5305e-18 1.63384e-21 9.59989e-19 2.29689e-22 2.73212e-19)
(-2.41837e-18 7.66049e-19 -1.46222e-20 -7.47118e-19 -2.05562e-21 3.16549e-18)
(9.59642e-19 -1.56142e-17 3.36764e-20 6.51617e-19 4.73431e-21 -1.61126e-18)
(5.4696e-18 1.05074e-17 2.53744e-20 -5.69517e-18 3.5672e-21 2.25569e-19)
(-2.03506e-19 1.32299e-17 -3.83049e-20 2.75378e-18 -5.38499e-21 -2.55027e-18)
(-4.79184e-18 1.92188e-17 -9.68551e-21 3.81204e-18 -1.36161e-21 9.79804e-19)
(1.8015e-18 -4.44406e-18 6.27571e-21 -9.29755e-20 8.82255e-22 -1.70852e-18)
(5.28513e-18 -5.17309e-18 4.29496e-20 -2.26133e-18 6.03796e-21 -3.0238e-18)
(3.17178e-18 -5.67062e-19 -1.90157e-20 -2.62597e-18 -2.67328e-21 -5.45808e-19)
(-1.35572e-18 8.4684e-18 4.51424e-20 1.32902e-18 6.34623e-21 2.66984e-20)
(-6.596e-18 -1.23377e-18 6.31414e-20 4.47018e-18 8.87658e-21 2.12582e-18)
(-1.22539e-18 8.52618e-18 -1.46272e-20 3.35166e-18 -2.05633e-21 -2.12627e-18)
(-8.50975e-18 -2.1233e-18 -3.88792e-20 2.81028e-18 -5.46574e-21 5.69947e-18)
(-8.78784e-19 5.60164e-18 -6.08861e-20 1.28363e-18 -8.55952e-21 -4.04847e-19)
(-2.33823e-18 8.66359e-18 6.45e-20 3.56958e-18 9.06757e-21 -1.23135e-18)
(-1.23982e-18 -1.58115e-17 1.37075e-20 -2.05432e-18 1.92704e-21 3.29414e-18)
(-1.81489e-18 1.96957e-17 1.91781e-20 2.17719e-18 2.6961e-21 -3.62302e-19)
(1.8242e-18 -1.55915e-17 4.73484e-20 -3.26127e-18 6.65635e-21 1.43707e-18)
(1.11081e-17 -6.5559e-18 -3.8686e-21 -6.39373e-18 -5.43858e-22 -4.71442e-18)
(-1.33061e-17 1.51179e-18 1.08581e-20 6.46359e-18 1.52646e-21 6.84249e-18)
(1.19778e-17 -4.33663e-18 -9.715e-20 -5.87663e-18 -1.36576e-20 -6.10113e-18)
(-2.53705e-18 4.11422e-18 -1.27838e-19 1.83241e-18 -1.79718e-20 7.04634e-19)
(5.405e-18 -4.36298e-18 1.3916e-20 -3.09272e-18 1.95635e-21 -2.31228e-18)
(-4.60108e-18 -2.35901e-17 6.25883e-20 1.14854e-18 8.79882e-21 3.45255e-18)
(5.68713e-18 1.98539e-17 -1.84113e-20 -7.66193e-19 -2.5883e-21 -4.92093e-18)
(-5.931e-19 5.55826e-19 -2.87622e-20 1.96822e-18 -4.04346e-21 -1.37512e-18)
(5.1636e-18 -6.19336e-18 2.36589e-20 -2.51669e-18 3.32603e-21 -2.6469e-18)
(-6.24629e-18 -1.02723e-17 -2.65187e-20 -1.79979e-19 -3.72806e-21 6.42627e-18)
(1.11191e-18 1.61947e-17 5.92747e-20 2.65972e-18 8.33299e-21 -3.77163e-18)
(-7.15165e-18 7.99093e-18 -7.54276e-21 7.29131e-18 -1.06038e-21 -1.3966e-19)
(-1.18589e-19 1.92998e-18 -7.57835e-21 1.11254e-18 -1.06538e-21 -9.93946e-19)
(4.04404e-18 7.99401e-18 4.54191e-20 -2.81889e-18 6.38512e-21 -1.22516e-18)
(-9.9091e-19 -1.34132e-17 2.08988e-20 -1.19274e-18 2.93801e-21 2.18365e-18)
(-7.68201e-19 9.65936e-19 -1.25142e-20 1.41508e-18 -1.75928e-21 -6.46882e-19)
(4.57426e-18 -7.38572e-18 -2.27671e-20 -4.8855e-18 -3.20065e-21 3.11237e-19)
(2.18739e-18 -1.97931e-18 -1.0176e-20 -1.58212e-18 -1.43057e-21 -6.05265e-19)
(-1.08528e-18 -9.55485e-18 6.13061e-22 -3.477e-19 8.61856e-23 1.43298e-18)
(-2.11432e-19 -1.67899e-17 -6.4032e-22 -6.41076e-19 -9.00178e-23 8.52508e-19)
(6.90175e-19 9.85745e-18 -3.60211e-21 1.38622e-18 -5.06394e-22 -2.07639e-18)
(4.82319e-19 -1.61263e-17 -1.11697e-20 -3.25575e-18 -1.57027e-21 2.77343e-18)
(-5.48402e-19 -1.53379e-17 -3.92426e-21 9.17724e-19 -5.51682e-22 -3.69323e-19)
(1.96111e-20 -7.05726e-18 -7.31803e-21 -1.18444e-18 -1.02879e-21 1.16483e-18)
(-1.39273e-18 -9.75093e-18 -1.15919e-20 1.55156e-18 -1.62962e-21 -1.58834e-19)
(-1.34799e-18 3.45987e-17 -5.43264e-20 3.75013e-18 -7.63734e-21 -2.40214e-18)
(-4.06129e-18 2.60886e-18 4.15678e-21 3.55335e-18 5.8437e-22 5.0794e-19)
(2.10542e-18 -1.42992e-17 7.65459e-21 -2.10714e-18 1.0761e-21 1.72805e-21)
(2.8604e-18 -1.89052e-17 2.74882e-20 -4.75928e-18 3.86435e-21 1.89888e-18)
(-6.20487e-19 1.12944e-17 2.4876e-20 2.20131e-18 3.49714e-21 -1.58082e-18)
(-3.53985e-18 4.3727e-18 -3.63565e-20 2.35463e-18 -5.11109e-21 1.18522e-18)
(-4.93668e-18 -5.45106e-18 3.27041e-20 2.70365e-18 4.59762e-21 2.23303e-18)
(2.38111e-18 -1.98506e-19 -9.15686e-20 -2.3143e-18 -1.28729e-20 -6.68027e-20)
(6.08492e-19 -1.28571e-17 -2.56836e-20 -8.77343e-20 -3.61066e-21 -5.20758e-19)
(7.56257e-18 -8.58286e-18 -2.1417e-20 -5.71597e-18 -3.01085e-21 -1.84661e-18)
(-1.0967e-18 -5.8448e-18 -4.57332e-21 1.06481e-18 -6.42929e-22 3.18911e-20)
(-8.02174e-18 1.29255e-17 1.20586e-21 6.98072e-18 1.69523e-22 1.04102e-18)
(7.05199e-18 2.3763e-18 6.00249e-21 -4.58803e-18 8.43845e-22 -2.46395e-18)
(-3.76791e-18 -4.34779e-18 -1.74713e-20 3.07133e-18 -2.45617e-21 6.96584e-19)
(3.97281e-18 -8.83986e-19 2.68967e-20 -2.57287e-18 3.78121e-21 -1.39994e-18)
(8.8489e-20 -3.87856e-18 -9.60876e-21 3.88752e-19 -1.35082e-21 -4.77241e-19)
(-1.399e-17 1.14138e-19 1.65928e-20 7.27793e-18 2.33266e-21 6.71202e-18)
(1.25077e-17 6.40939e-18 -2.62148e-20 -6.92114e-18 -3.68534e-21 -5.58654e-18)
(-3.21099e-18 1.0085e-17 9.1189e-20 2.67274e-18 1.28196e-20 5.38251e-19)
(-5.59522e-18 7.48262e-18 1.13136e-19 3.63914e-18 1.5905e-20 1.95608e-18)
(-1.61211e-18 -9.33968e-18 -9.92922e-20 -1.51618e-18 -1.39587e-20 3.12829e-18)
(1.35458e-18 7.91558e-18 5.45781e-21 1.01066e-18 7.67273e-22 -2.36524e-18)
(-4.78837e-18 -1.03045e-17 -1.12435e-20 6.40927e-20 -1.58064e-21 4.72428e-18)
(4.06947e-18 -1.13474e-19 -3.66448e-20 -2.16483e-18 -5.15162e-21 -1.90464e-18)
(6.33951e-19 -1.66387e-17 8.25663e-21 -1.56241e-18 1.16074e-21 9.28461e-19)
(9.48099e-20 5.45489e-18 1.31086e-20 -4.68985e-19 1.84284e-21 3.74175e-19)
(-9.79707e-19 -6.78658e-19 1.91521e-20 -1.44055e-18 2.69244e-21 2.42026e-18)
(3.38872e-18 -7.40864e-18 1.08493e-22 -6.15531e-19 1.52523e-23 -2.77319e-18)
(5.28237e-18 5.13105e-18 6.22307e-22 -3.24426e-18 8.74854e-23 -2.03812e-18)
(3.28608e-18 -6.85192e-19 -3.03783e-20 -2.52136e-18 -4.27066e-21 -7.64714e-19)
(-2.87489e-18 1.08316e-18 -1.73375e-20 1.61887e-18 -2.43734e-21 1.25602e-18)
(5.31285e-18 -3.22609e-18 -6.48048e-22 -4.20904e-18 -9.11043e-23 -1.10381e-18)
(-3.46056e-18 7.86162e-18 1.05249e-20 2.16603e-18 1.47962e-21 1.29453e-18)
(-4.61981e-18 8.7369e-18 -1.12214e-20 3.74098e-18 -1.57753e-21 8.78835e-19)
(-4.79093e-19 6.19368e-19 1.59734e-21 -5.73738e-19 2.24557e-22 1.05283e-18)
(1.48292e-18 -6.45551e-18 -3.71802e-21 -1.50134e-18 -5.22689e-22 1.84173e-20)
(2.02309e-20 -6.60434e-18 7.48493e-21 1.5348e-19 1.05225e-21 -1.73711e-19)
(4.66384e-18 8.16728e-19 8.19457e-22 -4.20965e-18 1.15201e-22 -4.54195e-19)
(-2.39543e-18 6.14089e-18 -1.05196e-20 2.95146e-18 -1.47888e-21 -5.5603e-19)
(-5.23124e-18 -3.79772e-18 1.17391e-20 3.75255e-18 1.65031e-21 1.47869e-18)
(5.59911e-18 1.37622e-17 2.68675e-20 -3.91914e-18 3.77711e-21 -1.67997e-18)
(-1.66549e-18 -1.92632e-17 1.4164e-20 1.38414e-18 1.99121e-21 2.81354e-19)
(-1.3564e-18 9.32298e-18 -3.07095e-21 -2.24673e-20 -4.31721e-22 1.37887e-18)
(5.39708e-18 5.81425e-20 2.48425e-20 -4.24699e-18 3.49242e-21 -1.15009e-18)
(2.4194e-18 6.47411e-18 -7.294e-22 -1.53921e-18 -1.02541e-22 -8.8019e-19)
(1.41429e-19 -5.49788e-18 -2.51515e-20 3.58902e-19 -3.53586e-21 -5.00331e-19)
(1.80694e-19 1.18467e-19 2.06195e-20 -5.07106e-19 2.89874e-21 3.26412e-19)
(1.46014e-18 -4.9611e-19 -4.60682e-21 9.53018e-19 -6.47638e-22 -2.41316e-18)
(2.30257e-18 -7.30539e-19 6.81769e-20 -2.59623e-18 9.58448e-21 2.93669e-19)
(-2.63055e-18 5.85945e-18 3.44207e-20 2.33553e-18 4.83894e-21 2.95021e-19)
(1.11271e-18 -5.8118e-19 2.11273e-20 2.33725e-19 2.97013e-21 -1.34643e-18)
(-3.00809e-18 4.30385e-18 2.13995e-20 1.09323e-18 3.00839e-21 1.91487e-18)
(1.23221e-18 -5.46082e-19 -1.22135e-20 3.57338e-20 -1.71701e-21 -1.26794e-18)
(6.18574e-18 -7.81395e-18 3.89082e-22 -5.90614e-18 5.46982e-23 -2.79596e-19)
(-1.41282e-18 -5.81475e-19 -9.96919e-21 2.3925e-18 -1.40149e-21 -9.79679e-19)
(-3.67641e-18 8.66079e-18 -3.99284e-20 3.51588e-18 -5.61323e-21 1.60527e-19)
(-3.59089e-19 2.90976e-18 2.78427e-20 5.43874e-19 3.9142e-21 -1.84785e-19)
(2.4394e-18 -6.35777e-20 -1.25228e-20 -1.24666e-18 -1.76049e-21 -1.19274e-18)
(9.46729e-18 -5.68844e-18 6.08848e-20 -6.1404e-18 8.55934e-21 -3.32689e-18)
(-6.79396e-18 5.96953e-18 -3.37626e-20 2.4623e-18 -4.74642e-21 4.33167e-18)
(-5.81688e-18 6.75677e-18 -2.94458e-20 2.51195e-18 -4.13956e-21 3.30493e-18)
(3.56427e-18 3.82534e-18 2.26805e-20 -2.44825e-18 3.18848e-21 -1.11602e-18)
(2.54369e-18 1.05085e-17 -1.20574e-20 -4.588e-19 -1.69506e-21 -2.08489e-18)
(-3.60335e-18 9.77049e-18 -1.92026e-20 1.1184e-18 -2.69955e-21 2.48495e-18)
(3.74481e-18 6.24778e-18 -1.06847e-21 -9.41967e-19 -1.50208e-22 -2.80284e-18)
(-6.9346e-18 1.25113e-18 1.40777e-21 4.31436e-18 1.97907e-22 2.62025e-18)
(6.67056e-18 -7.71401e-18 -3.38232e-20 -5.75535e-18 -4.75494e-21 -9.15203e-19)
(-1.00363e-17 1.901e-17 -2.69835e-20 6.87204e-18 -3.79341e-21 3.16429e-18)
(2.12486e-18 -1.64246e-17 1.31539e-20 -2.75897e-18 1.84921e-21 6.34113e-19)
(2.17503e-18 1.99236e-18 8.48409e-21 -1.34073e-18 1.19271e-21 -8.34305e-19)
(-4.02517e-18 1.04685e-17 -3.82832e-20 3.80336e-18 -5.38195e-21 2.21815e-19)
(1.11505e-18 -5.78517e-19 3.1039e-20 -1.14273e-18 4.36354e-21 2.76845e-20)
(-7.38426e-19 8.65482e-18 -1.30162e-20 1.55698e-18 -1.82986e-21 -8.18556e-19)
(-7.91914e-19 -7.57929e-18 -1.18094e-21 8.4389e-19 -1.6602e-22 -5.19764e-20)
(1.69824e-19 -8.42064e-19 -3.18717e-21 -1.17808e-18 -4.4806e-22 1.00825e-18)
(-1.89414e-18 -2.36424e-18 -3.64314e-21 1.32449e-18 -5.12161e-22 5.69651e-19)
(-1.20291e-19 -1.74658e-17 1.76644e-21 -1.53215e-18 2.48331e-22 1.65245e-18)
(-1.02848e-18 -3.03162e-18 3.67365e-21 2.03496e-18 5.16452e-22 -1.00648e-18)
(-2.30817e-19 1.71146e-17 -2.72915e-21 1.5503e-18 -3.83671e-22 -1.31948e-18)
(2.30328e-18 9.50077e-19 4.7367e-21 -2.42633e-18 6.65898e-22 1.23056e-19)
(-3.50239e-18 -3.20761e-18 3.47293e-21 1.69786e-18 4.88234e-22 1.80453e-18)
(-1.21428e-18 -6.12222e-18 -2.6281e-20 1.72169e-18 -3.69464e-21 -5.07414e-19)
(2.54596e-18 -2.99171e-18 1.81217e-20 -1.19886e-18 2.54759e-21 -1.3471e-18)
(-9.98341e-19 -7.23237e-18 4.4537e-21 -1.24828e-18 6.26113e-22 2.24662e-18)
(-2.33489e-18 1.07864e-17 -3.14078e-20 2.37205e-18 -4.41539e-21 -3.71536e-20)
(-3.15639e-18 -6.16471e-18 -2.58316e-20 1.72037e-18 -3.63147e-21 1.43602e-18)
(4.09074e-18 3.21043e-18 1.32153e-20 -3.186e-18 1.85784e-21 -9.04748e-19)
(-2.79457e-18 -1.36119e-18 1.12498e-20 2.29286e-18 1.58153e-21 5.01709e-19)
(-9.36352e-19 -3.19077e-18 3.81194e-21 -2.99887e-19 5.35892e-22 1.23624e-18)
(-7.6408e-19 -5.60702e-18 -3.24765e-20 5.25472e-19 -4.56562e-21 2.38608e-19)
(2.45713e-18 -9.23421e-18 -3.62573e-20 -3.63135e-18 -5.09714e-21 1.17422e-18)
(-4.0232e-18 4.95798e-18 -1.10093e-20 2.84871e-18 -1.54772e-21 1.17449e-18)
(-4.98927e-19 -5.81926e-18 1.57073e-20 6.41443e-19 2.20817e-21 -1.42516e-19)
(-4.31506e-18 -3.45823e-18 2.50337e-21 2.92828e-18 3.51931e-22 1.38678e-18)
(2.39725e-18 4.95907e-18 1.17249e-20 -1.13868e-18 1.64831e-21 -1.25857e-18)
(-2.18685e-19 4.93192e-18 3.07038e-20 8.4036e-19 4.31642e-21 -6.21675e-19)
(4.41479e-19 -3.6866e-18 1.5195e-21 -1.26194e-18 2.13616e-22 8.20463e-19)
(-3.48134e-18 1.52617e-19 -2.8392e-20 2.00095e-18 -3.99142e-21 1.48039e-18)
(1.75226e-18 1.58692e-19 -3.12244e-21 -4.53725e-19 -4.38961e-22 -1.29854e-18)
(-1.17731e-17 -4.47356e-18 6.57746e-21 5.56012e-18 9.24676e-22 6.213e-18)
(2.04573e-18 -3.52101e-18 -2.57835e-20 -2.00518e-18 -3.6247e-21 -4.05509e-20)
(5.59421e-18 -3.00583e-18 -3.41387e-20 -3.09364e-18 -4.79931e-21 -2.50056e-18)
(-1.79e-18 2.24576e-18 -1.35141e-20 1.95115e-18 -1.89985e-21 -1.61157e-19)
(1.17482e-18 -9.92225e-18 4.5541e-20 -2.76688e-18 6.40227e-21 1.59206e-18)
(4.99012e-18 -9.78394e-19 -1.25566e-20 -3.13142e-18 -1.76524e-21 -1.85871e-18)
(-2.02486e-18 3.95786e-19 9.55134e-21 7.22327e-19 1.34275e-21 1.30253e-18)
(5.27869e-18 7.2596e-18 4.41709e-20 -4.07854e-18 6.20965e-21 -1.20016e-18)
(-3.29603e-18 3.00008e-18 -1.45956e-21 3.36663e-18 -2.05188e-22 -7.06003e-20)
(4.20675e-19 -4.16806e-18 5.89748e-20 -1.75842e-18 8.29082e-21 1.33775e-18)
(2.95443e-19 5.59369e-18 -4.52029e-20 1.31251e-18 -6.35473e-21 -1.60795e-18)
(3.45504e-18 -9.74292e-20 3.11535e-20 -2.01367e-18 4.37964e-21 -1.44137e-18)
(-5.44785e-20 6.23678e-18 3.69703e-21 -5.28973e-19 5.19738e-22 5.83451e-19)
(-5.47535e-19 -7.10705e-18 -1.59824e-20 1.36951e-18 -2.24685e-21 -8.21973e-19)
(4.28344e-19 -1.12194e-17 5.59441e-21 -1.62197e-18 7.86477e-22 1.19363e-18)
(-4.88676e-19 -7.32391e-18 -2.12813e-20 3.7737e-19 -2.99177e-21 1.11306e-19)
(-1.68631e-18 9.00168e-19 8.47379e-21 1.89534e-18 1.19127e-21 -2.09029e-19)
(-3.01681e-19 1.77076e-18 -1.89366e-21 6.84817e-19 -2.66216e-22 -3.83136e-19)
(4.2605e-18 -4.79147e-18 1.4613e-21 -1.96646e-18 2.05434e-22 -2.29404e-18)
(-1.20972e-18 6.44088e-21 -1.4931e-21 2.75734e-19 -2.09904e-22 9.3399e-19)
(1.33145e-18 2.86121e-18 2.01468e-21 -1.40184e-18 2.83229e-22 7.03843e-20)
(-2.73375e-18 2.53321e-18 -1.09492e-20 2.33946e-18 -1.53926e-21 3.9429e-19)
(4.22761e-19 -4.7046e-19 3.73614e-21 1.00787e-18 5.25236e-22 -1.43063e-18)
(-1.95301e-18 1.61768e-17 9.79574e-21 1.3029e-18 1.37711e-21 6.50108e-19)
(2.78002e-19 -4.99665e-18 -4.80203e-21 -1.18249e-18 -6.75081e-22 9.0449e-19)
(-2.12756e-18 1.10692e-17 -1.64012e-20 1.65118e-18 -2.30573e-21 4.76381e-19)
(-3.68575e-19 -3.58399e-18 8.49373e-21 1.59675e-19 1.19407e-21 2.08899e-19)
(2.08061e-18 3.75348e-19 -2.44214e-22 -1.22579e-18 -3.43322e-23 -8.54822e-19)
(-2.60807e-18 8.49309e-18 7.34125e-21 1.89051e-18 1.03205e-21 7.17553e-19)
(-1.11074e-18 5.77304e-18 -5.11351e-22 1.40014e-18 -7.1887e-23 -2.89395e-19)
(-1.81654e-19 4.52573e-18 1.39458e-20 1.67784e-19 1.96054e-21 1.38694e-20)
(-1.40597e-18 4.29802e-18 3.67759e-22 1.03227e-18 5.17005e-23 3.73703e-19)
(4.32888e-18 6.64133e-18 -7.18295e-21 -2.28314e-19 -1.0098e-21 -4.10056e-18)
(-2.41973e-18 -4.39763e-18 -2.57427e-20 -7.62952e-19 -3.61898e-21 3.18269e-18)
(-5.80705e-18 1.83501e-18 2.11391e-20 4.13408e-18 2.97179e-21 1.67297e-18)
(2.90765e-19 3.68544e-18 2.62025e-20 -3.46787e-19 3.68361e-21 5.60217e-20)
(1.73147e-18 -7.62861e-18 -2.30009e-20 -1.08354e-18 -3.23352e-21 -6.47933e-19)
(-4.02498e-18 -3.03108e-18 8.84345e-21 2.4496e-18 1.24323e-21 1.57538e-18)
(4.75888e-18 6.67186e-18 -3.39208e-22 -2.15237e-18 -4.76867e-23 -2.60652e-18)
(2.67323e-19 -6.9932e-19 -1.26455e-21 5.61509e-19 -1.77773e-22 -8.28831e-19)
(-5.96199e-19 -9.72241e-19 -5.10745e-22 -4.8118e-19 -7.18018e-23 1.07738e-18)
(2.65918e-18 4.68132e-18 -1.04463e-20 -4.60642e-19 -1.46857e-21 -2.19854e-18)
(-1.67188e-18 1.37204e-18 9.74625e-21 1.12456e-18 1.37015e-21 5.47322e-19)
(-3.98598e-18 -3.34287e-18 4.33822e-20 1.78315e-18 6.09878e-21 2.20283e-18)
(-4.90017e-19 2.0083e-19 6.98229e-21 -2.62034e-19 9.81588e-22 7.5205e-19)
(-9.56152e-20 3.17611e-18 5.25806e-21 8.96893e-19 7.39192e-22 -8.01278e-19)
(3.93301e-18 -2.68341e-18 -6.53632e-20 -3.18438e-18 -9.18893e-21 -7.48631e-19)
(6.29684e-19 -6.10235e-19 -3.96261e-21 8.47404e-21 -5.57073e-22 -6.38158e-19)
(3.36471e-18 1.68291e-18 -1.95151e-20 -2.07847e-18 -2.74348e-21 -1.28625e-18)
(1.78459e-18 -2.35323e-18 3.40287e-20 -1.35857e-18 4.78384e-21 -4.26019e-19)
(-2.65382e-18 -5.9334e-18 -2.52063e-20 4.0431e-19 -3.54357e-21 2.24951e-18)
(1.5417e-19 -3.5074e-18 -2.21422e-20 5.14101e-19 -3.11281e-21 -6.68271e-19)
(1.37381e-18 2.61725e-18 3.27466e-20 -8.14278e-19 4.6036e-21 -5.59533e-19)
(-1.66444e-19 -5.25874e-18 -3.25278e-20 -1.15607e-18 -4.57285e-21 1.32251e-18)
(8.38999e-19 4.14657e-18 -5.48272e-22 3.31449e-19 -7.70775e-23 -1.17045e-18)
(-1.68713e-18 8.70982e-18 6.42667e-21 2.03505e-18 9.03478e-22 -3.47922e-19)
(-2.7074e-18 7.95698e-18 2.35828e-20 1.76244e-18 3.31533e-21 9.44958e-19)
(2.15749e-18 5.16204e-19 1.86011e-21 -1.92212e-18 2.61499e-22 -2.35369e-19)
(-1.0958e-18 -2.77431e-18 7.19949e-21 5.22024e-19 1.01212e-21 5.73776e-19)
(1.52516e-18 -1.05503e-17 -2.67347e-20 1.32202e-19 -3.75842e-21 -1.65736e-18)
(1.24516e-18 7.16246e-18 1.66188e-20 -9.32018e-19 2.33632e-21 -3.13146e-19)
(8.19612e-20 -7.14132e-18 -2.88632e-21 -4.08111e-19 -4.05766e-22 3.2615e-19)
(1.25557e-19 -3.72703e-19 -5.90857e-21 -1.03529e-18 -8.30642e-22 9.09732e-19)
(1.70184e-18 4.43755e-18 -1.0583e-21 -8.33211e-19 -1.48779e-22 -8.68629e-19)
(-3.56003e-18 -3.52162e-18 -2.49618e-21 2.48386e-18 -3.5092e-22 1.07618e-18)
(-1.36161e-18 1.49557e-19 -1.20594e-21 5.58952e-19 -1.69535e-22 8.02659e-19)
(7.7564e-19 1.31327e-18 -6.51138e-21 -5.28486e-19 -9.15386e-22 -2.47153e-19)
(-3.73184e-18 -4.84579e-18 4.04199e-21 1.71666e-18 5.68233e-22 2.01518e-18)
(6.11989e-18 -3.69681e-18 1.7227e-20 -3.622e-18 2.42181e-21 -2.49789e-18)
(-4.91626e-18 -1.31921e-18 5.19759e-21 3.141e-18 7.30691e-22 1.77525e-18)
(1.64964e-18 -2.21542e-18 -1.60871e-20 -1.33251e-18 -2.26156e-21 -3.17131e-19)
(-6.20046e-18 2.61243e-18 -8.09135e-21 3.54086e-18 -1.1375e-21 2.65961e-18)
(1.40544e-18 5.46837e-18 -6.95734e-22 2.14552e-20 -9.7808e-23 -1.4269e-18)
(3.0688e-18 -1.70963e-19 1.63626e-20 -2.64797e-18 2.3003e-21 -4.20831e-19)
(9.29204e-19 2.84388e-19 9.90063e-21 6.10295e-19 1.39186e-21 -1.5395e-18)
(2.09559e-18 -2.06232e-18 -6.94454e-21 -1.63871e-18 -9.76281e-22 -4.56881e-19)
(6.19899e-19 -2.80042e-18 -1.69417e-20 -7.27019e-19 -2.38171e-21 1.0712e-19)
(-3.40374e-18 9.03167e-18 9.77938e-21 2.51174e-18 1.37481e-21 8.91994e-19)
(-1.86047e-20 -2.13483e-18 -7.35973e-21 1.16895e-19 -1.03465e-21 -9.82907e-20)
(-2.6327e-20 -4.16847e-19 1.60645e-20 1.32308e-19 2.25839e-21 -1.05981e-19)
(1.17656e-18 -1.69853e-18 2.5923e-21 -7.48278e-19 3.64433e-22 -4.28286e-19)
(1.83852e-19 -1.73313e-18 -1.32402e-21 2.49479e-19 -1.86134e-22 -4.33331e-19)
(1.69057e-18 3.22587e-20 -9.97397e-21 -1.25855e-18 -1.40217e-21 -4.3202e-19)
(-1.57163e-19 1.23852e-18 3.46796e-20 1.20128e-19 4.87535e-21 3.70351e-20)
(1.84257e-18 -3.43852e-18 -5.12919e-21 -1.90903e-18 -7.21075e-22 6.64597e-20)
(-4.74014e-18 -1.65658e-18 1.0134e-20 1.82434e-18 1.42466e-21 2.9158e-18)
(7.12664e-19 2.34266e-19 -9.52314e-21 -6.92112e-19 -1.33879e-21 -2.05525e-20)
(-3.72932e-18 -5.00666e-18 2.35828e-20 5.05549e-19 3.31533e-21 3.22377e-18)
(2.15619e-19 -7.35878e-18 2.51852e-20 -4.31239e-19 3.5406e-21 2.15619e-19)
(7.27723e-19 -3.65752e-19 2.13391e-21 6.74207e-19 2.99991e-22 -1.40193e-18)
(-2.92327e-19 -1.02959e-18 3.02248e-20 1.06736e-18 4.24908e-21 -7.75032e-19)
(-4.73535e-19 1.04295e-18 6.44252e-21 4.79884e-19 9.05706e-22 -6.34895e-21)
(1.03768e-18 -1.71296e-18 -1.95559e-20 -6.70656e-19 -2.74921e-21 -3.6702e-19)
(-6.47989e-18 6.69992e-19 -7.82687e-21 3.28402e-18 -1.10032e-21 3.19587e-18)
(7.95987e-18 -1.65377e-18 2.11826e-20 -3.75164e-18 2.97791e-21 -4.20823e-18)
(-4.08879e-18 -9.65357e-18 -4.44901e-20 1.56134e-18 -6.25453e-21 2.52745e-18)
(6.71621e-19 -2.29256e-18 1.56329e-20 -1.25918e-18 2.19771e-21 5.87561e-19)
(2.73216e-18 -6.28828e-18 -1.31887e-20 -1.42233e-18 -1.85411e-21 -1.30983e-18)
(4.66616e-19 6.76932e-18 2.14635e-20 1.45743e-19 3.01739e-21 -6.12359e-19)
(1.54144e-18 -2.37746e-18 6.75005e-22 -1.24086e-18 9.48939e-23 -3.00586e-19)
(2.25441e-19 -2.08694e-18 -7.31673e-21 -4.35775e-21 -1.0286e-21 -2.21083e-19)
(-7.17458e-19 3.33072e-18 9.75605e-21 -3.8302e-19 1.37153e-21 1.10048e-18)
(2.30162e-18 1.70208e-19 1.33707e-21 -6.79005e-19 1.87969e-22 -1.62262e-18)
(1.40893e-18 -9.84062e-19 -2.7745e-21 -5.7311e-19 -3.90046e-22 -8.35818e-19)
(-2.85346e-19 -9.7024e-19 9.60266e-21 -2.42715e-19 1.34997e-21 5.28061e-19)
(-2.39973e-18 -5.60653e-18 2.78343e-21 1.01062e-18 3.91302e-22 1.38911e-18)
(-2.47282e-18 5.85741e-18 7.79052e-21 2.35102e-18 1.09521e-21 1.21794e-19)
(4.48602e-18 -1.53318e-18 1.48393e-20 -3.17142e-18 2.08614e-21 -1.3146e-18)
(-3.91709e-18 4.51174e-18 -5.89883e-21 1.89816e-18 -8.29273e-22 2.01893e-18)
(3.6436e-18 -5.02151e-18 -4.53367e-21 -1.5428e-18 -6.37355e-22 -2.1008e-18)
(-1.57113e-18 -2.45708e-18 -1.5388e-20 5.06626e-19 -2.16328e-21 1.06451e-18)
(2.95057e-18 4.79173e-18 6.40835e-21 -1.72374e-18 9.00902e-22 -1.22682e-18)
(-3.84792e-18 -5.1884e-19 -4.88366e-21 1.84393e-18 -6.86558e-22 2.00399e-18)
(-9.60652e-20 -1.5985e-18 6.13521e-21 6.13815e-20 8.62504e-22 3.46837e-20)
(1.70712e-18 2.63943e-18 -1.59583e-20 -1.46048e-18 -2.24346e-21 -2.46645e-19)
(-3.75938e-18 1.26156e-18 1.9611e-21 2.99948e-18 2.75697e-22 7.59893e-19)
(2.98237e-18 -1.94673e-18 -4.7636e-21 -1.43672e-18 -6.69678e-22 -1.54565e-18)
(5.72077e-19 -2.82976e-18 2.48951e-20 -1.14415e-18 3.49982e-21 5.72077e-19)
(9.31398e-20 8.53994e-19 -1.6879e-20 -3.80897e-19 -2.37289e-21 2.87757e-19)
(-2.5446e-18 4.5591e-18 1.24462e-21 2.03603e-18 1.74971e-22 5.08569e-19)
(-2.20027e-18 -3.55314e-18 -9.79407e-21 1.12601e-18 -1.37688e-21 1.07426e-18)
(9.96397e-19 1.72294e-18 1.05101e-20 -5.20584e-19 1.47754e-21 -4.75813e-19)
(2.27033e-18 -9.19382e-19 -5.7397e-21 -1.38309e-18 -8.06901e-22 -8.87241e-19)
(-6.8906e-19 2.56835e-18 2.45025e-20 6.32896e-19 3.44462e-21 5.61643e-20)
(-2.36315e-18 -2.41157e-18 -6.50795e-21 1.29175e-18 -9.14904e-22 1.0714e-18)
(8.2794e-19 -9.8628e-19 -4.15108e-20 1.02065e-19 -5.83569e-21 -9.30005e-19)
(-6.40564e-20 -1.98122e-18 -3.84063e-21 -4.63422e-19 -5.39925e-22 5.27478e-19)
(3.02504e-18 9.49569e-18 3.86475e-20 -1.51093e-18 5.43316e-21 -1.51411e-18)
(1.66476e-19 4.77544e-18 -6.04031e-21 6.52805e-19 -8.49162e-22 -8.19281e-19)
(2.87934e-18 8.01524e-20 -8.51679e-20 -1.16789e-18 -1.19731e-20 -1.71145e-18)
(-1.47064e-18 5.0704e-18 7.69941e-20 1.43484e-18 1.0824e-20 3.57999e-20)
(-1.20474e-19 -3.69778e-18 3.61093e-21 7.01936e-20 5.07633e-22 5.028e-20)
(8.27389e-19 -3.67253e-18 -3.57552e-21 -4.2478e-19 -5.02656e-22 -4.02609e-19)
(-2.77361e-18 -1.40461e-18 -2.73341e-21 1.68602e-18 -3.8427e-22 1.08759e-18)
(5.17625e-19 2.48583e-19 -2.13793e-20 1.80998e-19 -3.00556e-21 -6.98623e-19)
(9.55991e-19 -8.41221e-18 6.18727e-21 -1.04153e-18 8.69822e-22 8.55374e-20)
(1.43181e-18 5.93137e-18 -2.36713e-20 5.54609e-20 -3.32778e-21 -1.48727e-18)