# Force and moment coefficients
# dragDir     : (1.000000e+00 0.000000e+00 0.000000e+00)
# sideDir     : (0.000000e+00 0.000000e+00 -1.000000e+00)
# liftDir     : (0.000000e+00 1.000000e+00 0.000000e+00)
# rollAxis    : (1.000000e+00 0.000000e+00 0.000000e+00)
# pitchAxis   : (0.000000e+00 0.000000e+00 -1.000000e+00)
# yawAxis     : (0.000000e+00 1.000000e+00 0.000000e+00)
# magUInf     : 7.300000e+00
# lRef        : 3.190000e-01
# Aref        : 1.595000e-03
# CofR        : (0.000000e+00 0.000000e+00 0.000000e+00)
#
# Time        	Cd            	Cd(f)         	Cd(r)         	Cl            	Cl(f)         	Cl(r)         	CmPitch       	CmRoll        	CmYaw         	Cs            	Cs(f)         	Cs(r)         
1             	9.776662e+01	-2.276562e+02	3.254228e+02	5.881073e+02	-7.204497e+02	1.308557e+03	-1.014503e+03	-2.765395e+02	4.597177e+01	8.738143e-18	4.597177e+01	-4.597177e+01
2             	5.028749e+01	-2.335664e+02	2.838539e+02	5.501902e+02	-6.217014e+02	1.171892e+03	-8.967966e+02	-2.587101e+02	2.364616e+01	-1.928626e-18	2.364616e+01	-2.364616e+01
3             	-1.933205e+01	-8.789720e+01	6.856515e+01	1.663716e+02	-8.944950e+01	2.558211e+02	-1.726353e+02	-7.823118e+01	-9.090306e+00	-1.396600e-17	-9.090306e+00	9.090306e+00
4             	-2.585074e+01	5.038394e+01	-7.623468e+01	-1.346378e+02	2.875206e+02	-4.221584e+02	3.548395e+02	6.330931e+01	-1.215552e+01	-1.099806e-17	-1.215552e+01	1.215552e+01
5             	-9.651361e+00	6.351460e+01	-7.316596e+01	-1.453370e+02	2.510104e+02	-3.963474e+02	3.236789e+02	6.834028e+01	-4.538257e+00	-6.330703e-18	-4.538257e+00	4.538257e+00
6             	-6.690700e-01	-1.499601e+01	1.432694e+01	3.118006e+01	-3.684486e+01	6.802492e+01	-5.243489e+01	-1.466147e+01	-3.146097e-01	-7.344572e-18	-3.146097e-01	3.146097e-01
7             	-1.008763e+00	-9.597939e+01	9.497062e+01	2.030435e+02	-2.557603e+02	4.588038e+02	-3.572820e+02	-9.547501e+01	-4.743400e-01	-1.076285e-17	-4.743400e-01	4.743400e-01
8             	-1.504065e+00	-1.198971e+02	1.183931e+02	2.533819e+02	-2.753113e+02	5.286932e+02	-4.020022e+02	-1.191451e+02	-7.072406e-01	-1.002643e-17	-7.072406e-01	7.072406e-01
9             	7.873632e-01	-1.017500e+02	1.025374e+02	2.172256e+02	-1.756795e+02	3.929051e+02	-2.842923e+02	-1.021437e+02	3.702335e-01	-6.419661e-18	3.702335e-01	-3.702335e-01
10            	4.286444e-01	-7.001460e+01	7.044324e+01	1.493535e+02	-6.754777e+01	2.169013e+02	-1.422245e+02	-7.022892e+01	2.015569e-01	-3.666726e-18	2.015569e-01	-2.015569e-01
11            	-2.523178e+00	-4.866146e+01	4.613828e+01	1.008037e+02	-1.054524e+01	1.113490e+02	-6.094711e+01	-4.739987e+01	-1.186447e+00	-3.421818e-18	-1.186447e+00	1.186447e+00
12            	-4.952794e+00	-4.651800e+01	4.156520e+01	9.366180e+01	-1.896880e+01	1.126306e+02	-6.579970e+01	-4.404160e+01	-2.328900e+00	-4.885569e-18	-2.328900e+00	2.328900e+00
13            	-5.894094e+00	-5.689288e+01	5.099879e+01	1.147248e+02	-6.240492e+01	1.771297e+02	-1.197673e+02	-5.394584e+01	-2.771517e+00	-6.691452e-18	-2.771517e+00	2.771517e+00
14            	-5.690437e+00	-7.077735e+01	6.508692e+01	1.444690e+02	-1.091978e+02	2.536668e+02	-1.814323e+02	-6.793214e+01	-2.675754e+00	-7.998824e-18	-2.675754e+00	2.675754e+00
15            	-4.915434e+00	-8.021013e+01	7.529469e+01	1.653535e+02	-1.336919e+02	2.990453e+02	-2.163686e+02	-7.775241e+01	-2.311332e+00	-8.526311e-18	-2.311332e+00	2.311332e+00
16            	-3.969303e+00	-8.284167e+01	7.887237e+01	1.719559e+02	-1.312357e+02	3.031916e+02	-2.172136e+02	-8.085702e+01	-1.866444e+00	-8.450870e-18	-1.866444e+00	1.866444e+00
17            	-3.478387e+00	-7.995102e+01	7.647264e+01	1.663305e+02	-1.098752e+02	2.762057e+02	-1.930404e+02	-7.821183e+01	-1.635605e+00	-8.148879e-18	-1.635605e+00	1.635605e+00
18            	-4.322104e+00	-7.440277e+01	7.008066e+01	1.536340e+02	-8.363837e+01	2.372724e+02	-1.604554e+02	-7.224172e+01	-2.032337e+00	-7.959596e-18	-2.032337e+00	2.032337e+00
19            	-6.261623e+00	-6.986968e+01	6.360806e+01	1.419313e+02	-6.734915e+01	2.092805e+02	-1.383148e+02	-6.673887e+01	-2.944337e+00	-8.146530e-18	-2.944337e+00	2.944337e+00
20            	-8.347747e+00	-6.854084e+01	6.019309e+01	1.368871e+02	-6.754192e+01	2.044290e+02	-1.359855e+02	-6.436697e+01	-3.925273e+00	-8.757607e-18	-3.925273e+00	3.925273e+00
21            	-9.321746e+00	-7.147838e+01	6.215663e+01	1.420986e+02	-8.405566e+01	2.261542e+02	-1.551049e+02	-6.681750e+01	-4.383266e+00	-9.708482e-18	-4.383266e+00	4.383266e+00
22            	-8.788581e+00	-7.712711e+01	6.833852e+01	1.546785e+02	-1.061182e+02	2.607966e+02	-1.834574e+02	-7.273282e+01	-4.132562e+00	-1.081024e-17	-4.132562e+00	4.132562e+00
23            	-7.571917e+00	-8.206545e+01	7.449354e+01	1.664744e+02	-1.193507e+02	2.858251e+02	-2.025879e+02	-7.827950e+01	-3.560462e+00	-1.173164e-17	-3.560462e+00	3.560462e+00
24            	-6.650088e+00	-8.355021e+01	7.690013e+01	1.706122e+02	-1.161573e+02	2.867695e+02	-2.014634e+02	-8.022517e+01	-3.127000e+00	-1.222267e-17	-3.127000e+00	3.127000e+00
25            	-6.750569e+00	-8.056761e+01	7.381704e+01	1.641623e+02	-9.785714e+01	2.620195e+02	-1.799383e+02	-7.719233e+01	-3.174249e+00	-1.217358e-17	-3.174249e+00	3.174249e+00
26            	-7.862523e+00	-7.538338e+01	6.752085e+01	1.519548e+02	-7.647641e+01	2.284312e+02	-1.524538e+02	-7.145211e+01	-3.697111e+00	-1.174429e-17	-3.697111e+00	3.697111e+00
27            	-9.295114e+00	-7.125494e+01	6.195983e+01	1.416517e+02	-6.371017e+01	2.053619e+02	-1.345360e+02	-6.660739e+01	-4.370743e+00	-1.121583e-17	-4.370743e+00	4.370743e+00
28            	-1.050643e+01	-6.999005e+01	5.948361e+01	1.376737e+02	-6.337205e+01	2.010457e+02	-1.322089e+02	-6.473683e+01	-4.940329e+00	-1.078675e-17	-4.940329e+00	4.940329e+00
29            	-1.103176e+01	-7.205564e+01	6.102388e+01	1.415079e+02	-7.334692e+01	2.148548e+02	-1.441009e+02	-6.653976e+01	-5.187347e+00	-1.057695e-17	-5.187347e+00	5.187347e+00
30            	-1.086624e+01	-7.541914e+01	6.455291e+01	1.488369e+02	-8.401730e+01	2.328542e+02	-1.584358e+02	-6.998603e+01	-5.109515e+00	-1.052646e-17	-5.109515e+00	5.109515e+00
31            	-1.052546e+01	-7.730052e+01	6.677506e+01	1.532004e+02	-8.586566e+01	2.390660e+02	-1.624658e+02	-7.203779e+01	-4.949276e+00	-1.046767e-17	-4.949276e+00	4.949276e+00
32            	-1.047490e+01	-7.635160e+01	6.587670e+01	1.512361e+02	-7.564704e+01	2.268831e+02	-1.512651e+02	-7.111415e+01	-4.925503e+00	-1.030513e-17	-4.925503e+00	4.925503e+00
33            	-1.100316e+01	-7.228240e+01	6.127925e+01	1.420206e+02	-5.468552e+01	1.967061e+02	-1.256958e+02	-6.678082e+01	-5.173898e+00	-1.004023e-17	-5.173898e+00	5.173898e+00
34            	-1.202224e+01	-6.676819e+01	5.474595e+01	1.292100e+02	-3.118537e+01	1.603954e+02	-9.579039e+01	-6.075707e+01	-5.653092e+00	-9.741472e-18	-5.653092e+00	5.653092e+00
35            	-1.308907e+01	-6.243019e+01	4.934112e+01	1.188502e+02	-1.486334e+01	1.337135e+02	-7.428842e+01	-5.588566e+01	-6.154737e+00	-9.470060e-18	-6.154737e+00	6.154737e+00
36            	-1.383229e+01	-6.061350e+01	4.678121e+01	1.141964e+02	-9.354320e+00	1.235507e+02	-6.645251e+01	-5.369736e+01	-6.504211e+00	-9.260871e-18	-6.504211e+00	6.504211e+00
37            	-1.412920e+01	-6.121470e+01	4.708550e+01	1.151592e+02	-1.269754e+01	1.278567e+02	-7.027714e+01	-5.415010e+01	-6.643824e+00	-9.132233e-18	-6.643824e+00	6.643824e+00
38            	-1.406832e+01	-6.349323e+01	4.942491e+01	1.200696e+02	-2.081411e+01	1.408837e+02	-8.084892e+01	-5.645907e+01	-6.615199e+00	-9.097824e-18	-6.615199e+00	6.615199e+00
39            	-1.390448e+01	-6.616615e+01	5.226167e+01	1.259282e+02	-2.853808e+01	1.544663e+02	-9.150220e+01	-5.921391e+01	-6.538155e+00	-9.156249e-18	-6.538155e+00	6.538155e+00
40            	-1.386359e+01	-6.810017e+01	5.423658e+01	1.300847e+02	-3.241233e+01	1.624971e+02	-9.745471e+01	-6.116837e+01	-6.518931e+00	-9.286364e-18	-6.518931e+00	6.518931e+00
41            	-1.400502e+01	-6.905883e+01	5.505381e+01	1.319731e+02	-3.270244e+01	1.646755e+02	-9.868900e+01	-6.205632e+01	-6.585430e+00	-9.451768e-18	-6.585430e+00	6.585430e+00
42            	-1.425239e+01	-6.935738e+01	5.510499e+01	1.323450e+02	-3.150685e+01	1.638518e+02	-9.767934e+01	-6.223118e+01	-6.701749e+00	-9.588596e-18	-6.701749e+00	6.701749e+00
43            	-1.447133e+01	-6.953178e+01	5.506045e+01	1.324831e+02	-3.112544e+01	1.636085e+02	-9.736698e+01	-6.229612e+01	-6.804699e+00	-9.684007e-18	-6.804699e+00	6.804699e+00
44            	-1.457297e+01	-7.008603e+01	5.551306e+01	1.335537e+02	-3.297875e+01	1.665325e+02	-9.975560e+01	-6.279955e+01	-6.852491e+00	-9.741142e-18	-6.852491e+00	6.852491e+00
45            	-1.455783e+01	-7.122802e+01	5.667019e+01	1.359984e+02	-3.699530e+01	1.729937e+02	-1.049945e+02	-6.394911e+01	-6.845375e+00	-9.783360e-18	-6.845375e+00	6.845375e+00
46            	-1.449137e+01	-7.286246e+01	5.837109e+01	1.395450e+02	-4.217269e+01	1.817177e+02	-1.119452e+02	-6.561677e+01	-6.814125e+00	-9.813780e-18	-6.814125e+00	6.814125e+00
47            	-1.446339e+01	-7.456088e+01	6.009749e+01	1.431867e+02	-4.684464e+01	1.900314e+02	-1.184380e+02	-6.732918e+01	-6.800968e+00	-9.834264e-18	-6.800968e+00	6.800968e+00
48            	-1.451449e+01	-7.596638e+01	6.145189e+01	1.461214e+02	-5.005726e+01	1.961787e+02	-1.231180e+02	-6.870913e+01	-6.824994e+00	-9.826967e-18	-6.824994e+00	6.824994e+00
49            	-1.462650e+01	-7.702443e+01	6.239794e+01	1.482525e+02	-5.196873e+01	2.002212e+02	-1.260950e+02	-6.971119e+01	-6.877663e+00	-9.823136e-18	-6.877663e+00	6.877663e+00
50            	-1.476441e+01	-7.784163e+01	6.307722e+01	1.498437e+02	-5.315124e+01	2.029950e+02	-1.280731e+02	-7.045943e+01	-6.942511e+00	-9.838815e-18	-6.942511e+00	6.942511e+00
51            	-1.490246e+01	-7.848343e+01	6.358096e+01	1.510618e+02	-5.388683e+01	2.049486e+02	-1.294177e+02	-7.103219e+01	-7.007429e+00	-9.879895e-18	-7.007429e+00	7.007429e+00
52            	-1.503894e+01	-7.904716e+01	6.400822e+01	1.521155e+02	-5.442431e+01	2.065399e+02	-1.304821e+02	-7.152769e+01	-7.071602e+00	-9.938716e-18	-7.071602e+00	7.071602e+00
53            	-1.518311e+01	-7.961209e+01	6.442898e+01	1.531637e+02	-5.489897e+01	2.080626e+02	-1.314808e+02	-7.202053e+01	-7.139392e+00	-1.002152e-17	-7.139392e+00	7.139392e+00
54            	-1.534619e+01	-8.015745e+01	6.481126e+01	1.541501e+02	-5.517382e+01	2.093239e+02	-1.322488e+02	-7.248435e+01	-7.216076e+00	-1.009707e-17	-7.216076e+00	7.216076e+00
55            	-1.552495e+01	-8.063832e+01	6.511337e+01	1.549826e+02	-5.513194e+01	2.101146e+02	-1.326233e+02	-7.287585e+01	-7.300133e+00	-1.016058e-17	-7.300133e+00	7.300133e+00
56            	-1.571169e+01	-8.105545e+01	6.534375e+01	1.556711e+02	-5.484617e+01	2.105173e+02	-1.326817e+02	-7.319960e+01	-7.387943e+00	-1.020112e-17	-7.387943e+00	7.387943e+00
57            	-1.589837e+01	-8.143129e+01	6.553292e+01	1.562719e+02	-5.445319e+01	2.107251e+02	-1.325892e+02	-7.348211e+01	-7.475721e+00	-1.022692e-17	-7.475721e+00	7.475721e+00
58            	-1.607545e+01	-8.178245e+01	6.570700e+01	1.568304e+02	-5.415350e+01	2.109839e+02	-1.325687e+02	-7.374472e+01	-7.558988e+00	-1.023536e-17	-7.558988e+00	7.558988e+00
59            	-1.623862e+01	-8.213828e+01	6.589965e+01	1.574137e+02	-5.413337e+01	2.115470e+02	-1.328402e+02	-7.401896e+01	-7.635717e+00	-1.023564e-17	-7.635717e+00	7.635717e+00
60            	-1.639114e+01	-8.253910e+01	6.614797e+01	1.581039e+02	-5.449068e+01	2.125946e+02	-1.335426e+02	-7.434354e+01	-7.707431e+00	-1.023135e-17	-7.707431e+00	7.707431e+00
61            	-1.653172e+01	-8.303772e+01	6.650600e+01	1.590148e+02	-5.528249e+01	2.142973e+02	-1.347899e+02	-7.477186e+01	-7.773538e+00	-1.024016e-17	-7.773538e+00	7.773538e+00
62            	-1.666106e+01	-8.362517e+01	6.696411e+01	1.601266e+02	-5.634824e+01	2.164748e+02	-1.364115e+02	-7.529464e+01	-7.834356e+00	-1.026252e-17	-7.834356e+00	7.834356e+00
63            	-1.677970e+01	-8.425882e+01	6.747911e+01	1.613480e+02	-5.744607e+01	2.187941e+02	-1.381201e+02	-7.586897e+01	-7.890143e+00	-1.030721e-17	-7.890143e+00	7.890143e+00
64            	-1.689729e+01	-8.486383e+01	6.796654e+01	1.625096e+02	-5.832419e+01	2.208338e+02	-1.395790e+02	-7.641518e+01	-7.945433e+00	-1.035845e-17	-7.945433e+00	7.945433e+00
65            	-1.702111e+01	-8.537686e+01	6.835576e+01	1.634690e+02	-5.885133e+01	2.223203e+02	-1.405858e+02	-7.686631e+01	-8.003655e+00	-1.041005e-17	-8.003655e+00	8.003655e+00
66            	-1.715704e+01	-8.577758e+01	6.862054e+01	1.641767e+02	-5.906627e+01	2.232429e+02	-1.411546e+02	-7.719906e+01	-8.067574e+00	-1.044617e-17	-8.067574e+00	8.067574e+00
67            	-1.730205e+01	-8.612029e+01	6.881824e+01	1.647513e+02	-5.918579e+01	2.239371e+02	-1.415614e+02	-7.746927e+01	-8.135761e+00	-1.047295e-17	-8.135761e+00	8.135761e+00
68            	-1.744913e+01	-8.645857e+01	6.900944e+01	1.653143e+02	-5.937101e+01	2.246853e+02	-1.420282e+02	-7.773400e+01	-8.204922e+00	-1.049079e-17	-8.204922e+00	8.204922e+00
69            	-1.758255e+01	-8.683510e+01	6.925255e+01	1.659732e+02	-5.972856e+01	2.257018e+02	-1.427152e+02	-7.804383e+01	-8.267656e+00	-1.051520e-17	-8.267656e+00	8.267656e+00
70            	-1.769680e+01	-8.724733e+01	6.955053e+01	1.667284e+02	-6.020965e+01	2.269380e+02	-1.435738e+02	-7.839893e+01	-8.321378e+00	-1.054573e-17	-8.321378e+00	8.321378e+00
71            	-1.779400e+01	-8.768831e+01	6.989431e+01	1.675629e+02	-6.075603e+01	2.283189e+02	-1.445375e+02	-7.879131e+01	-8.367083e+00	-1.058706e-17	-8.367083e+00	8.367083e+00
72            	-1.788838e+01	-8.812151e+01	7.023312e+01	1.683838e+02	-6.124547e+01	2.296292e+02	-1.454374e+02	-7.917731e+01	-8.411465e+00	-1.062747e-17	-8.411465e+00	8.411465e+00
73            	-1.799193e+01	-8.850324e+01	7.051131e+01	1.690855e+02	-6.158569e+01	2.306712e+02	-1.461284e+02	-7.950727e+01	-8.460155e+00	-1.066252e-17	-8.460155e+00	8.460155e+00
74            	-1.811259e+01	-8.882507e+01	7.071248e+01	1.696416e+02	-6.178289e+01	2.314245e+02	-1.466037e+02	-7.976877e+01	-8.516892e+00	-1.068432e-17	-8.516892e+00	8.516892e+00
75            	-1.824140e+01	-8.913004e+01	7.088864e+01	1.701532e+02	-6.198311e+01	2.321363e+02	-1.470597e+02	-8.000934e+01	-8.577462e+00	-1.070166e-17	-8.577462e+00	8.577462e+00
76            	-1.836623e+01	-8.944579e+01	7.107956e+01	1.706920e+02	-6.226234e+01	2.329543e+02	-1.476083e+02	-8.026268e+01	-8.636159e+00	-1.071654e-17	-8.636159e+00	8.636159e+00
77            	-1.847371e+01	-8.979287e+01	7.131916e+01	1.713158e+02	-6.266946e+01	2.339853e+02	-1.483274e+02	-8.055602e+01	-8.686697e+00	-1.073885e-17	-8.686697e+00	8.686697e+00
78            	-1.856344e+01	-9.016656e+01	7.160311e+01	1.720151e+02	-6.315962e+01	2.351747e+02	-1.491672e+02	-8.088484e+01	-8.728893e+00	-1.076651e-17	-8.728893e+00	8.728893e+00
79            	-1.864115e+01	-9.054480e+01	7.190365e+01	1.727369e+02	-6.365835e+01	2.363952e+02	-1.500268e+02	-8.122423e+01	-8.765430e+00	-1.080189e-17	-8.765430e+00	8.765430e+00
80            	-1.872396e+01	-9.088167e+01	7.215771e+01	1.733652e+02	-6.402822e+01	2.373934e+02	-1.507108e+02	-8.151969e+01	-8.804370e+00	-1.083377e-17	-8.804370e+00	8.804370e+00
81            	-1.881892e+01	-9.117491e+01	7.235600e+01	1.738879e+02	-6.427805e+01	2.381659e+02	-1.512220e+02	-8.176546e+01	-8.849020e+00	-1.086264e-17	-8.849020e+00	8.849020e+00
82            	-1.892624e+01	-9.143952e+01	7.251327e+01	1.743365e+02	-6.445641e+01	2.387929e+02	-1.516246e+02	-8.197639e+01	-8.899486e+00	-1.088350e-17	-8.899486e+00	8.899486e+00
83            	-1.903736e+01	-9.171686e+01	7.267950e+01	1.748081e+02	-6.467529e+01	2.394834e+02	-1.520794e+02	-8.219818e+01	-8.951735e+00	-1.090357e-17	-8.951735e+00	8.951735e+00
84            	-1.914169e+01	-9.200142e+01	7.285973e+01	1.753024e+02	-6.492332e+01	2.402257e+02	-1.525745e+02	-8.243057e+01	-9.000795e+00	-1.092135e-17	-9.000795e+00	9.000795e+00
85            	-1.922939e+01	-9.228467e+01	7.305528e+01	1.758115e+02	-6.519239e+01	2.410039e+02	-1.530981e+02	-8.266997e+01	-9.042033e+00	-1.094415e-17	-9.042033e+00	9.042033e+00
86            	-1.930544e+01	-9.255051e+01	7.324507e+01	1.762960e+02	-6.542987e+01	2.417258e+02	-1.535779e+02	-8.289779e+01	-9.077795e+00	-1.096748e-17	-9.077795e+00	9.077795e+00
87            	-1.937671e+01	-9.280404e+01	7.342733e+01	1.767594e+02	-6.564855e+01	2.424079e+02	-1.540282e+02	-8.311568e+01	-9.111307e+00	-1.099410e-17	-9.111307e+00	9.111307e+00
88            	-1.945425e+01	-9.304022e+01	7.358597e+01	1.771792e+02	-6.582155e+01	2.430007e+02	-1.544111e+02	-8.331310e+01	-9.147768e+00	-1.101651e-17	-9.147768e+00	9.147768e+00
89            	-1.953966e+01	-9.327249e+01	7.373283e+01	1.775823e+02	-6.598931e+01	2.435716e+02	-1.547805e+02	-8.350266e+01	-9.187929e+00	-1.103776e-17	-9.187929e+00	9.187929e+00
90            	-1.963318e+01	-9.350667e+01	7.387350e+01	1.779809e+02	-6.615740e+01	2.441383e+02	-1.551479e+02	-8.369008e+01	-9.231901e+00	-1.105413e-17	-9.231901e+00	9.231901e+00
91            	-1.972443e+01	-9.374456e+01	7.402013e+01	1.783898e+02	-6.634918e+01	2.447390e+02	-1.555441e+02	-8.388235e+01	-9.274809e+00	-1.107130e-17	-9.274809e+00	9.274809e+00
92            	-1.980721e+01	-9.397525e+01	7.416804e+01	1.787924e+02	-6.653853e+01	2.453309e+02	-1.559347e+02	-8.407165e+01	-9.313734e+00	-1.108566e-17	-9.313734e+00	9.313734e+00
93            	-1.987735e+01	-9.417849e+01	7.430113e+01	1.791500e+02	-6.669426e+01	2.458443e+02	-1.562693e+02	-8.423981e+01	-9.346717e+00	-1.110437e-17	-9.346717e+00	9.346717e+00
94            	-1.994153e+01	-9.437832e+01	7.443679e+01	1.795067e+02	-6.685104e+01	2.463578e+02	-1.566044e+02	-8.440756e+01	-9.376897e+00	-1.112214e-17	-9.376897e+00	9.376897e+00
95            	-2.000426e+01	-9.458817e+01	7.458390e+01	1.798863e+02	-6.703697e+01	2.469233e+02	-1.569801e+02	-8.458603e+01	-9.406394e+00	-1.114258e-17	-9.406394e+00	9.406394e+00
96            	-2.007308e+01	-9.480117e+01	7.472809e+01	1.802661e+02	-6.721905e+01	2.474852e+02	-1.573521e+02	-8.476463e+01	-9.438751e+00	-1.115961e-17	-9.438751e+00	9.438751e+00
97            	-2.014584e+01	-9.498774e+01	7.484190e+01	1.805855e+02	-6.734583e+01	2.479313e+02	-1.576386e+02	-8.491482e+01	-9.472965e+00	-1.117593e-17	-9.472965e+00	9.472965e+00
98            	-2.022119e+01	-9.516432e+01	7.494313e+01	1.808809e+02	-6.745288e+01	2.483338e+02	-1.578933e+02	-8.505372e+01	-9.508397e+00	-1.118869e-17	-9.508397e+00	9.508397e+00
99            	-2.029084e+01	-9.534079e+01	7.504995e+01	1.811822e+02	-6.758108e+01	2.487632e+02	-1.581722e+02	-8.519537e+01	-9.541147e+00	-1.120326e-17	-9.541147e+00	9.541147e+00
100           	-2.035351e+01	-9.551129e+01	7.515778e+01	1.814781e+02	-6.770717e+01	2.491853e+02	-1.584462e+02	-8.533453e+01	-9.570616e+00	-1.121593e-17	-9.570616e+00	9.570616e+00
101           	-2.040849e+01	-9.568280e+01	7.527431e+01	1.817844e+02	-6.784932e+01	2.496337e+02	-1.587415e+02	-8.547855e+01	-9.596469e+00	-1.123154e-17	-9.596469e+00	9.596469e+00
102           	-2.046176e+01	-9.584781e+01	7.538605e+01	1.820787e+02	-6.797349e+01	2.500522e+02	-1.590128e+02	-8.561693e+01	-9.621518e+00	-1.124553e-17	-9.621518e+00	9.621518e+00
103           	-2.051482e+01	-9.601204e+01	7.549722e+01	1.823715e+02	-6.810102e+01	2.504725e+02	-1.592868e+02	-8.575463e+01	-9.646468e+00	-1.126157e-17	-9.646468e+00	9.646468e+00
104           	-2.057178e+01	-9.615232e+01	7.558053e+01	1.826093e+02	-6.817308e+01	2.507823e+02	-1.594777e+02	-8.586643e+01	-9.673251e+00	-1.127378e-17	-9.673251e+00	9.673251e+00
105           	-2.062787e+01	-9.627904e+01	7.565117e+01	1.828191e+02	-6.823270e+01	2.510518e+02	-1.596423e+02	-8.596511e+01	-9.699625e+00	-1.128658e-17	-9.699625e+00	9.699625e+00
106           	-2.068309e+01	-9.640889e+01	7.572580e+01	1.830366e+02	-6.830840e+01	2.513450e+02	-1.598267e+02	-8.606735e+01	-9.725592e+00	-1.129702e-17	-9.725592e+00	9.725592e+00
107           	-2.073241e+01	-9.655161e+01	7.581921e+01	1.832876e+02	-6.843112e+01	2.517188e+02	-1.600749e+02	-8.618541e+01	-9.748781e+00	-1.130953e-17	-9.748781e+00	9.748781e+00
108           	-2.077761e+01	-9.668318e+01	7.590557e+01	1.835194e+02	-6.853030e+01	2.520497e+02	-1.602900e+02	-8.629437e+01	-9.770036e+00	-1.132061e-17	-9.770036e+00	9.770036e+00
109           	-2.081884e+01	-9.680271e+01	7.598388e+01	1.837297e+02	-6.860959e+01	2.523393e+02	-1.604745e+02	-8.639329e+01	-9.789421e+00	-1.133484e-17	-9.789421e+00	9.789421e+00
110           	-2.085936e+01	-9.691852e+01	7.605916e+01	1.839329e+02	-6.867945e+01	2.526124e+02	-1.606459e+02	-8.648884e+01	-9.808478e+00	-1.134694e-17	-9.808478e+00	9.808478e+00
111           	-2.089930e+01	-9.702634e+01	7.612703e+01	1.841198e+02	-6.874142e+01	2.528612e+02	-1.608013e+02	-8.657669e+01	-9.827259e+00	-1.136054e-17	-9.827259e+00	9.827259e+00
112           	-2.094053e+01	-9.712265e+01	7.618212e+01	1.842807e+02	-6.878137e+01	2.530621e+02	-1.609217e+02	-8.665239e+01	-9.846645e+00	-1.137118e-17	-9.846645e+00	9.846645e+00
113           	-2.097969e+01	-9.721991e+01	7.624021e+01	1.844459e+02	-6.883903e+01	2.532850e+02	-1.610620e+02	-8.673006e+01	-9.865060e+00	-1.138347e-17	-9.865060e+00	9.865060e+00
114           	-2.101688e+01	-9.731256e+01	7.629568e+01	1.846034e+02	-6.889350e+01	2.534969e+02	-1.611952e+02	-8.680412e+01	-9.882545e+00	-1.139359e-17	-9.882545e+00	9.882545e+00
115           	-2.104918e+01	-9.740474e+01	7.635556e+01	1.847651e+02	-6.896086e+01	2.537260e+02	-1.613434e+02	-8.688015e+01	-9.897734e+00	-1.140664e-17	-9.897734e+00	9.897734e+00
116           	-2.107922e+01	-9.748421e+01	7.640499e+01	1.849022e+02	-6.900121e+01	2.539034e+02	-1.614523e+02	-8.694460e+01	-9.911857e+00	-1.141857e-17	-9.911857e+00	9.911857e+00
117           	-2.110556e+01	-9.756941e+01	7.646385e+01	1.850554e+02	-6.906355e+01	2.541189e+02	-1.615912e+02	-8.701663e+01	-9.924244e+00	-1.143359e-17	-9.924244e+00	9.924244e+00
118           	-2.113225e+01	-9.764453e+01	7.651228e+01	1.851868e+02	-6.910181e+01	2.542886e+02	-1.616952e+02	-8.707841e+01	-9.936795e+00	-1.144686e-17	-9.936795e+00	9.936795e+00
119           	-2.115814e+01	-9.771427e+01	7.655613e+01	1.853075e+02	-6.913666e+01	2.544442e+02	-1.617904e+02	-8.713520e+01	-9.948967e+00	-1.146235e-17	-9.948967e+00	9.948967e+00
120           	-2.118445e+01	-9.777015e+01	7.658570e+01	1.853984e+02	-6.914414e+01	2.545425e+02	-1.618433e+02	-8.717792e+01	-9.961342e+00	-1.147559e-17	-9.961342e+00	9.961342e+00
121           	-2.120768e+01	-9.782798e+01	7.662029e+01	1.854967e+02	-6.917138e+01	2.546680e+02	-1.619197e+02	-8.722413e+01	-9.972265e+00	-1.148039e-17	-9.972265e+00	9.972265e+00
122           	-2.122932e+01	-9.788599e+01	7.665668e+01	1.855970e+02	-6.920555e+01	2.548026e+02	-1.620041e+02	-8.727134e+01	-9.982437e+00	-1.148051e-17	-9.982437e+00	9.982437e+00
123           	-2.124748e+01	-9.794362e+01	7.669613e+01	1.857003e+02	-6.924944e+01	2.549497e+02	-1.620996e+02	-8.731987e+01	-9.990980e+00	-1.148274e-17	-9.990980e+00	9.990980e+00
124           	-2.126434e+01	-9.798919e+01	7.672485e+01	1.857793e+02	-6.926662e+01	2.550459e+02	-1.621562e+02	-8.735702e+01	-9.998906e+00	-1.147995e-17	-9.998906e+00	9.998906e+00
125           	-2.127800e+01	-9.803317e+01	7.675517e+01	1.858583e+02	-6.929106e+01	2.551493e+02	-1.622202e+02	-8.739417e+01	-1.000533e+01	-1.147517e-17	-1.000533e+01	1.000533e+01
126           	-2.129123e+01	-9.807234e+01	7.678111e+01	1.859275e+02	-6.930858e+01	2.552361e+02	-1.622723e+02	-8.742673e+01	-1.001155e+01	-1.146834e-17	-1.001155e+01	1.001155e+01
127           	-2.130346e+01	-9.811127e+01	7.680781e+01	1.859973e+02	-6.933458e+01	2.553319e+02	-1.623332e+02	-8.745954e+01	-1.001730e+01	-1.146411e-17	-1.001730e+01	1.001730e+01
128           	-2.131643e+01	-9.814267e+01	7.682624e+01	1.860503e+02	-6.934417e+01	2.553945e+02	-1.623693e+02	-8.748446e+01	-1.002340e+01	-1.145747e-17	-1.002340e+01	1.002340e+01
129           	-2.132707e+01	-9.817485e+01	7.684778e+01	1.861074e+02	-6.936720e+01	2.554746e+02	-1.624209e+02	-8.751132e+01	-1.002840e+01	-1.145257e-17	-1.002840e+01	1.002840e+01
130           	-2.133673e+01	-9.820031e+01	7.686358e+01	1.861513e+02	-6.937881e+01	2.555301e+02	-1.624544e+02	-8.753195e+01	-1.003295e+01	-1.144570e-17	-1.003295e+01	1.003295e+01
131           	-2.134323e+01	-9.822868e+01	7.688545e+01	1.862047e+02	-6.940837e+01	2.556131e+02	-1.625107e+02	-8.755707e+01	-1.003600e+01	-1.144148e-17	-1.003600e+01	1.003600e+01
132           	-2.134847e+01	-9.825026e+01	7.690179e+01	1.862450e+02	-6.942403e+01	2.556690e+02	-1.625465e+02	-8.757603e+01	-1.003847e+01	-1.143599e-17	-1.003847e+01	1.003847e+01
133           	-2.135142e+01	-9.827016e+01	7.691873e+01	1.862842e+02	-6.944205e+01	2.557262e+02	-1.625841e+02	-8.759444e+01	-1.003985e+01	-1.143321e-17	-1.003985e+01	1.003985e+01
134           	-2.135434e+01	-9.828199e+01	7.692765e+01	1.863062e+02	-6.944329e+01	2.557495e+02	-1.625964e+02	-8.760482e+01	-1.004123e+01	-1.142779e-17	-1.004123e+01	1.004123e+01
135           	-2.135573e+01	-9.829531e+01	7.693958e+01	1.863331e+02	-6.945733e+01	2.557904e+02	-1.626239e+02	-8.761744e+01	-1.004188e+01	-1.142482e-17	-1.004188e+01	1.004188e+01
136           	-2.135792e+01	-9.830334e+01	7.694542e+01	1.863478e+02	-6.945962e+01	2.558075e+02	-1.626335e+02	-8.762438e+01	-1.004291e+01	-1.141914e-17	-1.004291e+01	1.004291e+01
137           	-2.135872e+01	-9.831187e+01	7.695315e+01	1.863651e+02	-6.946885e+01	2.558340e+02	-1.626514e+02	-8.763251e+01	-1.004329e+01	-1.141533e-17	-1.004329e+01	1.004329e+01
138           	-2.135894e+01	-9.831367e+01	7.695473e+01	1.863687e+02	-6.946558e+01	2.558343e+02	-1.626500e+02	-8.763420e+01	-1.004339e+01	-1.140883e-17	-1.004339e+01	1.004339e+01
139           	-2.135654e+01	-9.831524e+01	7.695870e+01	1.863746e+02	-6.947024e+01	2.558449e+02	-1.626576e+02	-8.763697e+01	-1.004226e+01	-1.140502e-17	-1.004226e+01	1.004226e+01
140           	-2.135308e+01	-9.831143e+01	7.695836e+01	1.863702e+02	-6.946593e+01	2.558361e+02	-1.626510e+02	-8.763489e+01	-1.004063e+01	-1.139901e-17	-1.004063e+01	1.004063e+01
141           	-2.134729e+01	-9.830855e+01	7.696126e+01	1.863702e+02	-6.947071e+01	2.558409e+02	-1.626558e+02	-8.763490e+01	-1.003791e+01	-1.139609e-17	-1.003791e+01	1.003791e+01
142           	-2.134233e+01	-9.829958e+01	7.695724e+01	1.863564e+02	-6.945980e+01	2.558162e+02	-1.626380e+02	-8.762841e+01	-1.003558e+01	-1.139040e-17	-1.003558e+01	1.003558e+01
143           	-2.133607e+01	-9.829158e+01	7.695550e+01	1.863461e+02	-6.945858e+01	2.558046e+02	-1.626316e+02	-8.762354e+01	-1.003264e+01	-1.138681e-17	-1.003264e+01	1.003264e+01
144           	-2.133025e+01	-9.827787e+01	7.694762e+01	1.863231e+02	-6.944743e+01	2.557705e+02	-1.626090e+02	-8.761274e+01	-1.002990e+01	-1.137827e-17	-1.002990e+01	1.002990e+01
145           	-2.132299e+01	-9.826550e+01	7.694250e+01	1.863045e+02	-6.944520e+01	2.557497e+02	-1.625974e+02	-8.760400e+01	-1.002649e+01	-1.137283e-17	-1.002649e+01	1.002649e+01
146           	-2.131606e+01	-9.824816e+01	7.693210e+01	1.862750e+02	-6.943041e+01	2.557054e+02	-1.625679e+02	-8.759013e+01	-1.002322e+01	-1.136417e-17	-1.002322e+01	1.002322e+01
147           	-2.130653e+01	-9.823128e+01	7.692475e+01	1.862492e+02	-6.942500e+01	2.556742e+02	-1.625496e+02	-8.757801e+01	-1.001874e+01	-1.135875e-17	-1.001874e+01	1.001874e+01
148           	-2.129662e+01	-9.820873e+01	7.691211e+01	1.862118e+02	-6.940872e+01	2.556205e+02	-1.625146e+02	-8.756042e+01	-1.001409e+01	-1.135050e-17	-1.001409e+01	1.001409e+01
149           	-2.128482e+01	-9.818723e+01	7.690240e+01	1.861786e+02	-6.940106e+01	2.555797e+02	-1.624904e+02	-8.754482e+01	-1.000854e+01	-1.134579e-17	-1.000854e+01	1.000854e+01
150           	-2.127364e+01	-9.816092e+01	7.688728e+01	1.861346e+02	-6.938265e+01	2.555172e+02	-1.624499e+02	-8.752410e+01	-1.000328e+01	-1.133796e-17	-1.000328e+01	1.000328e+01
151           	-2.126124e+01	-9.813663e+01	7.687539e+01	1.860961e+02	-6.937419e+01	2.554703e+02	-1.624222e+02	-8.750601e+01	-9.997450e+00	-1.133352e-17	-9.997450e+00	9.997450e+00
152           	-2.124982e+01	-9.810797e+01	7.685814e+01	1.860473e+02	-6.935533e+01	2.554026e+02	-1.623790e+02	-8.748306e+01	-9.992081e+00	-1.132555e-17	-9.992081e+00	9.992081e+00
153           	-2.123700e+01	-9.808096e+01	7.684396e+01	1.860035e+02	-6.934494e+01	2.553484e+02	-1.623467e+02	-8.746246e+01	-9.986050e+00	-1.132099e-17	-9.986050e+00	9.986050e+00
154           	-2.122467e+01	-9.804844e+01	7.682377e+01	1.859474e+02	-6.932198e+01	2.552694e+02	-1.622957e+02	-8.743610e+01	-9.980252e+00	-1.131283e-17	-9.980252e+00	9.980252e+00
155           	-2.121006e+01	-9.801649e+01	7.680643e+01	1.858950e+02	-6.930678e+01	2.552018e+02	-1.622543e+02	-8.741146e+01	-9.973380e+00	-1.130843e-17	-9.973380e+00	9.973380e+00
156           	-2.119571e+01	-9.797873e+01	7.678302e+01	1.858300e+02	-6.927973e+01	2.551097e+02	-1.621947e+02	-8.738088e+01	-9.966635e+00	-1.130041e-17	-9.966635e+00	9.966635e+00
157           	-2.117909e+01	-9.794397e+01	7.676489e+01	1.857738e+02	-6.926602e+01	2.550398e+02	-1.621529e+02	-8.735443e+01	-9.958819e+00	-1.129655e-17	-9.958819e+00	9.958819e+00
158           	-2.116428e+01	-9.790548e+01	7.674120e+01	1.857076e+02	-6.924124e+01	2.549489e+02	-1.620951e+02	-8.732334e+01	-9.951854e+00	-1.128878e-17	-9.951854e+00	9.951854e+00
159           	-2.114727e+01	-9.787041e+01	7.672314e+01	1.856511e+02	-6.922929e+01	2.548804e+02	-1.620549e+02	-8.729678e+01	-9.943857e+00	-1.128519e-17	-9.943857e+00	9.943857e+00
160           	-2.113308e+01	-9.782895e+01	7.669587e+01	1.855781e+02	-6.919829e+01	2.547764e+02	-1.619873e+02	-8.726241e+01	-9.937187e+00	-1.127728e-17	-9.937187e+00	9.937187e+00
161           	-2.111497e+01	-9.779016e+01	7.667520e+01	1.855148e+02	-6.918256e+01	2.546974e+02	-1.619400e+02	-8.723268e+01	-9.928668e+00	-1.127362e-17	-9.928668e+00	9.928668e+00
162           	-2.110100e+01	-9.774432e+01	7.664332e+01	1.854322e+02	-6.914404e+01	2.545762e+02	-1.618601e+02	-8.719382e+01	-9.922101e+00	-1.126552e-17	-9.922101e+00	9.922101e+00
163           	-2.108089e+01	-9.770326e+01	7.662237e+01	1.853663e+02	-6.913020e+01	2.544964e+02	-1.618133e+02	-8.716281e+01	-9.912642e+00	-1.126196e-17	-9.912642e+00	9.912642e+00