/*--------------------------------*- C++ -*----------------------------------*\
| =========                 |                                                 |
| \\      /  F ield         | OpenFOAM: The Open Source CFD Toolbox           |
|  \\    /   O peration     | Version:  2312                                  |
|   \\  /    A nd           | Website:  www.openfoam.com                      |
|    \\/     M anipulation  |                                                 |
\*---------------------------------------------------------------------------*/
FoamFile
{
    version     2.0;
    format      ascii;
    arch        "LSB;label=32;scalar=64";
    class       volScalarField;
    location    "550";
    object      div(phi);
}
// * * * * * * * * * * * * * * * * * * * * * * * * * * * * * * * * * * * * * //

dimensions      [0 0 -1 0 0 0 0];

internalField   nonuniform List<scalar> 
11040
(
0.00595515
0.00349486
0.0166111
0.0184245
0.0164151
0.01152
0.0130987
0.0196634
0.0132795
0.0265708
0.00975638
0.0237425
0.021033
0.0312966
0.0180601
0.021291
0.0197735
0.0189921
0.0252898
0.0262206
0.0306778
0.0308285
0.0219236
0.0203787
0.0101299
0.0145502
0.0054108
0.0102316
0.00575743
0.00878123
0.00659854
0.00957953
0.00414343
0.0127005
0.000621254
0.0185759
0.00502251
0.0148317
0.00270201
0.123596
0.106707
0.00136463
0.00257823
0.00648172
0.0131552
0.0202724
0.0238891
0.0263509
0.0257607
0.0208477
0.0229751
0.0196991
0.0275173
0.0268819
0.031419
0.027211
0.0287935
0.0305629
0.0297055
0.0346985
0.0277591
0.0276716
0.0288403
0.0253751
0.0269372
0.0198284
0.0190908
0.0132827
0.0137807
0.01298
0.0143808
0.016972
0.0185837
0.0205609
0.0241906
0.0214526
0.0269188
0.0197851
0.0244747
0.0277171
0.0650677
0.0597151
0.00219985
0.000159056
0.00151715
0.00110933
0.00186308
0.0054587
0.0077925
0.00659845
0.00362274
0.00430669
0.0015772
0.00456809
0.00435159
0.00632463
0.00213659
0.00281765
0.0011869
0.00172442
0.00503058
0.00530332
0.00469332
0.00505972
0.00192981
0.000900422
-0.000610063
0.00101127
-0.000601547
0.000699957
-5.59638e-06
0.000207435
-8.27023e-06
-0.000391566
-0.00141189
-0.000702014
-0.00266037
-0.000163735
-0.000320289
-0.00106422
-0.00488112
0.0150474
0.00953703
-0.000102087
-0.00031368
0.000251569
1.51342e-05
0.00184242
0.00369122
0.00776052
0.00995757
0.0115636
0.0119031
0.0114777
0.0114597
0.0122404
0.0126668
0.0127389
0.0136337
0.0144189
0.0160362
0.0165527
0.0142967
0.0132182
0.0134872
0.0121995
0.0122711
0.00975283
0.00928139
0.00743278
0.00760115
0.00735558
0.00835507
0.00909413
0.0102598
0.0105686
0.0119538
0.0107941
0.012414
0.0100076
0.0111361
0.0113798
0.0190934
0.0150288
-0.00151978
0.000313251
5.05808e-06
0.00120764
0.000886962
0.00144417
0.00170609
0.00297646
0.00456156
0.00499599
0.00336613
0.00299213
0.00246609
0.00312375
0.00258969
0.00299936
0.00238312
0.00358144
0.00343543
0.00318733
0.00185024
0.0010857
0.000410511
-0.000153387
-0.000174531
0.000216231
0.000262423
0.000561851
0.000596847
0.000753439
0.000820093
0.000735953
0.000761889
0.00051868
0.000804596
0.00071741
0.00218451
0.000389708
0.00105905
0.00319656
0.00212394
0.00268643
-0.00102371
0.00108021
-0.0011238
-6.32065e-05
0.000290692
0.000192451
0.00094583
0.00166318
0.00322225
0.00351806
0.00528739
0.0065081
0.00694416
0.00697077
0.00724257
0.00817893
0.0087887
0.00900184
0.00781615
0.00721316
0.00667506
0.0064862
0.00593243
0.00536902
0.00492965
0.00468166
0.00452462
0.00467882
0.00481226
0.00530159
0.00529525
0.00559953
0.00526543
0.00541596
0.00483846
0.00485318
0.00334179
0.00387202
0.00303127
0.00272878
-0.00148523
0.000544828
-0.00253578
-0.000456159
0.000466272
0.000422513
0.00100357
0.000808699
0.00146038
0.00131371
0.00272048
0.00359123
0.00414369
0.00376844
0.00369126
0.00359493
0.0038936
0.00433901
0.00368544
0.00328234
0.00182528
0.00151509
0.00135225
0.00121616
0.00112214
0.00147256
0.00151721
0.0018089
0.00182831
0.00212156
0.00208589
0.00234313
0.00204293
0.00230392
0.00183322
0.00237164
0.00180932
0.00184258
0.000447949
0.000890078
-0.00106157
0.000899236
-0.00160481
-0.00179834
0.00102072
0.000103802
0.00173998
0.00024662
0.000821982
-0.00028321
0.000714947
-0.00035747
0.000348926
0.00167245
0.00245426
0.00303087
0.004313
0.00459818
0.00502199
0.00474626
0.00405572
0.00348745
0.00339434
0.00308057
0.0030456
0.00284758
0.00279182
0.00248255
0.0027013
0.00244784
0.00272435
0.00250116
0.00267622
0.00228334
0.00232037
0.00194023
0.00195648
0.00139128
0.000789075
0.000213894
-0.000533475
-0.000752862
0.00041673
-0.00305755
0.00148265
-0.00118177
0.00245507
-0.000307805
0.00084686
-0.00117847
0.00033648
-0.00114206
-0.000407697
0.000662307
0.00100661
0.00181357
0.00309319
0.00354135
0.0043327
0.00384492
0.00325022
0.0022762
0.00188842
0.00184239
0.00213413
0.00202701
0.00211943
0.00194143
0.00227523
0.00204892
0.00244269
0.0021412
0.00253647
0.00206398
0.00232071
0.00167218
0.00188434
0.00118091
0.00118777
0.000147761
-0.000193311
-0.00112423
-0.00140769
-0.001656
0.000799254
-0.00139656
0.00204381
-0.000166452
0.000952409
-0.000908902
0.000136252
-0.000809345
-0.000512833
0.000532396
0.000392811
0.000843151
0.00109229
0.000462698
0.00135633
0.000901228
0.00126783
0.00188669
0.00169022
0.00171056
0.0018605
0.00179634
0.00183645
0.00192218
0.00187363
0.00102103
0.0017881
0.00103326
0.00179942
0.0010271
0.00174318
0.000777257
0.00149894
0.000419999
0.00118998
-0.000207952
0.000340076
-0.00117932
-0.000760689
-0.00203605
-0.000196036
-0.000240824
0.000515196
0.000527406
0.000685414
0.000256375
0.000143818
0.000120871
-0.000113537
0.000510616
0.000368475
0.000457607
0.000744715
-0.000456164
0.000138012
-0.000533743
-0.000232474
0.000935722
0.00105999
0.00165628
0.00179979
0.00184583
0.00199503
0.00219281
0.00186927
0.00121419
0.00148195
0.000462517
0.00120419
0.000310916
0.00114288
8.94095e-05
0.00115931
-0.000227501
0.00117889
-0.000649951
0.00106648
-0.00119261
0.000699187
-0.00155245
0.000381372
0.000103548
9.45535e-05
0.000460057
0.000524839
0.000657898
0.000577758
0.000531709
0.000573503
0.000436412
0.000643098
0.000327373
0.000698519
-0.000417536
-9.59812e-05
-0.000474969
-0.000467627
0.000324094
4.80347e-05
0.000522627
0.00056061
0.000503521
0.00105029
0.00134487
0.00123131
0.00186697
0.00119951
0.00106493
0.000774495
0.000718498
0.000564819
0.000470679
0.000631515
0.000169704
0.00075513
-0.000206665
0.000983128
-0.000596766
0.00105436
-0.000817358
0.00107359
-0.000768094
0.000251342
0.000132199
0.000429584
0.00030794
0.000590679
0.000446363
0.000599024
0.000507854
0.000549246
0.000515258
0.000469831
0.000163568
-2.83401e-05
-4.66258e-05
-0.00028788
0.000162376
-0.000137892
2.99606e-05
1.8221e-05
-0.000379314
-9.32723e-05
-8.20547e-05
7.48514e-05
0.00140011
0.000573344
0.00208675
0.000617436
0.00200126
0.00026335
0.00178684
0.000132844
0.00157953
-2.56418e-05
0.00132294
-5.89444e-05
0.00102206
-0.000144341
0.000776265
-0.000199641
0.000486923
-0.000270873
0.000241202
4.92673e-05
0.000374164
0.000129369
0.00050038
0.000216244
0.000540561
0.000275797
0.000499517
0.000347343
0.000418617
0.000294008
0.000223171
0.000155674
0.000106025
6.79356e-05
-2.10925e-05
3.36089e-05
-0.000339083
-0.000201389
-0.000205897
-0.000155236
0.000399044
0.000111059
0.00159851
0.000645876
0.00233865
0.000574653
0.00255834
0.000323238
0.00261115
-0.00015406
0.00253225
-0.000646783
0.00239559
-0.00111682
0.00221083
-0.00145564
0.00180377
-0.0014425
0.00081092
0.000193346
5.01011e-06
0.000312608
4.33424e-05
0.00042657
7.81899e-05
0.00047193
0.000104059
0.000442554
0.000148807
0.000376672
0.000166318
0.000270932
0.000169297
0.00021164
0.000187724
0.000139252
2.76505e-05
-2.57137e-05
6.11819e-05
4.76116e-05
0.000215655
0.000188892
0.000640098
0.000582901
0.00112062
0.000906673
0.00146838
0.00101323
0.00160729
0.00087207
0.00157933
0.000506027
0.00147221
9.94375e-05
0.00127419
-0.000383185
0.000895196
-0.000582916
0.000367047
-0.000709821
0.000159311
-2.16646e-05
0.000262455
-2.95731e-06
0.000355035
-9.71128e-06
0.000399008
-2.12279e-05
0.000378792
-2.65304e-05
0.000309256
-9.25928e-07
0.000243924
5.18406e-05
0.00022626
0.000153917
0.000230659
0.000200302
0.000218136
0.000236847
0.000249646
0.000326514
0.000319923
0.000474956
0.000430093
0.000681963
0.000527186
0.000879014
0.000589466
0.00108637
0.000550579
0.00113599
0.000356937
0.00110907
6.10431e-05
0.00093355
-0.000245145
0.000703968
-0.000514244
0.000345759
-0.000510803
0.000134228
-3.43782e-05
0.000213414
-3.68307e-05
0.000277414
-5.92858e-05
0.000313503
-8.88939e-05
0.000303413
-0.000114835
0.000256253
-0.000104704
0.000217327
-5.26363e-05
0.000205862
3.52418e-05
0.00022004
0.000126776
0.000239982
0.000183654
0.000263772
0.000243676
0.000302406
0.000318479
0.000331328
0.000413044
0.000352912
0.000518099
0.000358172
0.000634227
0.00033849
0.000722351
0.000267823
0.000763866
0.000148146
0.000775949
7.08482e-06
0.000721147
-0.000101364
0.00055388
-0.000122442
9.30877e-05
-9.66386e-06
0.000154798
-1.27764e-05
0.000203045
-3.20094e-05
0.000235038
-6.2372e-05
0.000235484
-9.63235e-05
0.000208093
-0.000102475
0.000179392
-7.75378e-05
0.000161514
-2.21474e-05
0.000157949
4.74575e-05
0.000168359
9.652e-05
0.000187464
0.000143751
0.000223112
0.00019431
0.000251059
0.000249531
0.000268332
0.000311061
0.000268453
0.000383994
0.000244975
0.000461333
0.000195452
0.000530674
0.000131943
0.000560365
6.55552e-05
0.000508959
5.41914e-06
0.000413805
-2.27256e-05
8.59591e-05
-1.18441e-05
0.000106938
-1.71842e-05
0.000132545
-3.55516e-05
0.000150074
-6.48876e-05
0.00015333
-9.34888e-05
0.000140646
-0.000102214
0.000122904
-9.15318e-05
0.000107533
-6.46586e-05
9.51663e-05
-2.65875e-05
9.22302e-05
1.54462e-06
0.000100966
3.02689e-05
0.000126328
6.30941e-05
0.000151274
0.000100933
0.000174218
0.000144526
0.000188842
0.000196129
0.000191817
0.000264187
0.000181278
0.00034122
0.000164
0.000394625
0.000144752
0.000419013
6.92503e-05
0.000471896
0.000110209
-2.06608e-05
5.60225e-05
7.46874e-06
4.10401e-05
3.45909e-05
1.46458e-05
5.32745e-05
-1.11496e-05
6.29586e-05
-3.96787e-05
6.14466e-05
-5.65863e-05
4.95119e-05
-6.4901e-05
3.16208e-05
-6.08158e-05
1.34628e-05
-4.69946e-05
4.04934e-06
-3.52918e-05
1.43772e-05
-2.57735e-05
3.76994e-05
-8.21223e-06
6.42042e-05
2.28291e-05
9.54604e-05
5.97521e-05
0.000126617
0.000104156
0.000159266
0.000138379
0.000180157
0.000175922
0.000179361
0.000232392
0.000154782
0.000273645
0.000150739
0.000323532
2.13638e-05
0.000123586
-8.62179e-05
0.000115617
-9.97029e-05
0.000143885
-0.000121927
0.000168218
-0.000151262
0.000183168
-0.000184946
0.000193985
-0.000206918
0.000183636
-0.000213913
0.000167167
-0.000207509
0.00014065
-0.000186109
0.000115171
-0.000158731
9.2067e-05
-0.000135734
7.01157e-05
-0.000112233
4.8628e-05
-8.22504e-05
1.66241e-05
-5.09507e-05
-9.92205e-06
-6.73459e-06
-7.86542e-05
5.34261e-05
-0.000137542
0.000115657
-0.000204247
0.000165683
-0.00029131
0.000166093
-0.000388537
0.000176482
-0.000391839
-1.16856e-05
1.88453e-05
-1.98429e-05
3.98006e-05
-1.32305e-05
5.44716e-05
-1.51295e-05
7.12383e-05
-2.30295e-05
8.24716e-05
-3.15756e-05
9.29236e-05
-3.52212e-05
9.07816e-05
-3.29487e-05
9.15878e-05
-2.43701e-05
8.4043e-05
-9.78081e-06
8.50737e-05
5.87923e-06
8.92677e-05
2.29538e-05
0.000102011
4.56709e-05
0.000103986
7.01776e-05
0.000124483
0.000109004
0.000108443
0.000190294
0.00013661
0.000269131
0.000167396
0.000399746
0.000111415
0.000520852
0.000211548
0.000530516
0.0001077
0.000482583
7.68167e-05
-3.06723e-05
2.27799e-05
-3.35344e-06
2.06537e-05
1.19214e-05
1.73559e-05
2.60719e-05
9.46491e-06
3.87568e-05
6.03316e-06
4.84716e-05
3.35288e-07
5.37128e-05
4.64569e-06
5.71129e-05
1.01222e-05
5.88291e-05
2.23389e-05
6.42959e-05
2.9519e-05
7.31175e-05
4.54165e-05
8.39406e-05
6.66087e-05
9.03039e-05
0.000105359
9.6266e-05
0.000170143
0.00013191
0.00022457
0.000101894
0.00030794
7.94268e-05
0.000340102
5.67967e-05
0.000301768
-0.000129102
0.000211961
-0.000245817
0.000103905
-3.61621e-05
4.70003e-05
-3.37523e-05
4.47263e-05
-3.53576e-05
5.73314e-05
-4.16737e-05
6.85998e-05
-5.08794e-05
7.56002e-05
-6.0548e-05
7.90922e-05
-6.46273e-05
7.5162e-05
-5.97606e-05
6.71028e-05
-4.76832e-05
5.55255e-05
-3.07709e-05
3.75479e-05
-1.64051e-05
1.41596e-05
-5.91956e-06
-2.62704e-05
5.49416e-06
-6.9791e-05
2.39123e-05
-0.000132296
5.26553e-05
-0.000212759
9.79446e-05
-0.0002572
0.000151562
-0.000316184
0.000217115
-0.000359106
0.000264987
-0.000349637
0.000224383
-0.000418067
7.34615e-05
5.49293e-05
-2.97129e-05
1.04526e-05
-5.10016e-06
1.75076e-05
-1.54544e-06
2.2959e-05
-1.8247e-06
2.94137e-05
-4.54096e-06
3.32513e-05
-6.92005e-06
3.71188e-05
-5.54237e-06
3.81041e-05
8.3454e-07
4.08269e-05
1.08442e-05
3.87731e-05
2.20511e-05
3.72723e-05
3.32301e-05
2.59315e-05
4.44179e-05
1.51527e-05
6.0126e-05
-2.08364e-05
9.24537e-05
-5.29409e-05
0.000118604
-7.49382e-05
0.000164524
-0.0001247
0.000192694
-0.000127655
0.000218576
-0.000161932
0.000205445
-0.000208794
0.000162187
-0.000272493
-2.0481e-05
2.86031e-05
-8.52276e-06
1.22297e-05
3.46169e-06
7.23968e-06
7.4914e-06
4.85606e-06
1.11711e-05
6.78672e-07
1.37384e-05
-1.87769e-06
1.58156e-05
-1.39048e-06
1.81345e-05
3.40311e-06
2.08105e-05
1.35497e-05
2.33418e-05
2.19298e-05
2.41888e-05
3.89326e-05
2.10824e-05
6.06489e-05
1.07139e-05
9.03169e-05
5.16039e-06
0.000104085
-4.50435e-05
0.000123703
-7.6047e-05
0.000121067
-0.000129047
0.000115149
-0.000186186
0.000108039
-0.000221568
0.000105827
-0.000270371
8.3304e-05
-0.000285416
3.47465e-05
-3.03829e-05
2.52363e-05
-6.23566e-06
1.40498e-05
-7.82129e-06
1.32141e-05
-9.71127e-06
1.23718e-05
-1.19342e-05
8.48075e-06
-1.38287e-05
4.21993e-06
-1.22711e-05
-3.45541e-06
-6.27799e-06
-9.16615e-06
4.72535e-06
-2.24473e-05
2.02299e-05
-3.33855e-05
3.51816e-05
-5.29171e-05
5.29417e-05
-8.1504e-05
6.67373e-05
-0.000121493
7.98008e-05
-0.000150042
8.49397e-05
-0.000192528
9.19419e-05
-0.000210561
9.79544e-05
-0.000223153
0.00011118
-0.000236159
0.000116318
-0.000251913
0.000110849
-0.000274966
-2.14626e-05
3.19432e-05
-1.19156e-05
7.57905e-06
-8.82972e-07
2.80513e-06
-2.09897e-06
2.96645e-06
-2.4826e-06
2.79883e-06
-3.07007e-06
3.06565e-06
-2.2158e-06
1.69946e-06
1.13856e-06
3.07039e-06
8.33138e-06
1.51246e-06
2.33068e-05
3.06529e-06
3.30323e-05
6.51778e-06
5.57387e-05
-5.1891e-06
8.3078e-05
2.27884e-06
0.00010349
-4.17668e-06
0.000125843
-2.3868e-05
0.000134716
-2.88374e-05
0.000140237
-4.88914e-05
0.000132457
-7.19398e-05
0.000121349
-0.000101546
0.000100346
-0.000133672
9.96479e-05
1.58023e-05
-2.64742e-05
1.78965e-05
3.81091e-07
1.67744e-06
2.68298e-06
-4.87461e-06
1.38952e-06
-7.45768e-06
3.21055e-07
-7.509e-06
-9.95423e-07
-7.20072e-06
-2.50521e-06
-2.70639e-06
-2.79386e-06
6.30279e-06
2.64556e-06
1.02459e-05
-2.6567e-06
2.8026e-05
-3.73963e-06
4.34335e-05
8.13668e-07
5.71312e-05
-2.05555e-05
7.38008e-05
-2.0031e-05
8.08092e-05
-3.43809e-05
8.03667e-05
-5.35389e-05
7.53961e-05
-7.02022e-05
6.93959e-05
-8.52887e-05
6.24966e-05
-9.89439e-05
5.23382e-05
-0.000116011
5.55139e-05
-1.62626e-05
2.65179e-05
-1.18041e-05
1.27469e-05
4.64777e-06
-2.30264e-06
2.54115e-06
-1.00777e-05
3.10445e-06
-1.59463e-05
4.64391e-06
-2.48541e-05
7.78146e-06
-3.09506e-05
1.13771e-05
-3.64475e-05
1.98677e-05
-4.52543e-05
3.12466e-05
-4.28485e-05
3.80783e-05
-5.26984e-05
4.63092e-05
-6.89918e-05
4.9657e-05
-7.63349e-05
4.9302e-05
-9.70667e-05
4.79986e-05
-0.000112084
4.55255e-05
-0.000116069
4.64578e-05
-0.000120401
4.54636e-05
-0.000119615
4.56154e-05
-0.000119759
3.92649e-05
-0.000118149
3.59034e-05
9.42066e-06
-2.24801e-05
1.94273e-05
-1.67861e-06
4.98223e-06
2.59161e-06
-1.54744e-06
-3.43008e-07
-4.90533e-06
-1.35082e-06
-8.23603e-06
-4.03897e-07
-1.19932e-05
-8.32128e-07
-1.37283e-05
4.78206e-06
-1.9213e-05
1.28919e-05
-1.44239e-05
1.54521e-05
-2.29197e-05
1.82878e-05
-3.69058e-05
1.68242e-05
-5.16006e-05
1.39939e-05
-7.06266e-05
1.28418e-05
-8.35307e-05
1.66199e-05
-9.00099e-05
1.85044e-05
-9.47641e-05
1.94918e-05
-9.9541e-05
1.77397e-05
-0.000102842
1.61856e-05
-0.000105376
6.8352e-06
-0.000108552
-1.2437e-05
1.60476e-05
-1.26345e-05
1.0503e-05
7.22227e-06
2.72571e-07
6.26952e-06
-5.61192e-06
2.42665e-06
-6.81865e-06
-1.13361e-06
-8.1018e-06
-7.31359e-06
-3.89259e-06
-1.14618e-05
-1.10205e-06
-1.25924e-05
8.20433e-07
-2.18921e-05
6.45707e-06
-2.81191e-05
5.89559e-06
-3.92541e-05
7.8297e-06
-5.40707e-05
1.33741e-05
-5.91935e-05
2.33404e-05
-5.65935e-05
3.25694e-05
-5.88521e-05
3.61296e-05
-6.43746e-05
3.4278e-05
-7.21537e-05
2.99354e-05
-7.91683e-05
2.52163e-05
-8.44585e-05
1.71661e-05
-8.94586e-05
3.55202e-06
-1.66767e-05
1.2293e-05
-6.08354e-07
5.39727e-06
1.15091e-05
-6.61693e-06
1.01705e-05
-1.55763e-05
1.13692e-05
-2.40864e-05
1.39457e-05
-3.13024e-05
1.56978e-05
-3.88158e-05
1.83503e-05
-4.66034e-05
1.9088e-05
-5.03211e-05
1.72611e-05
-6.07866e-05
1.46044e-05
-7.64903e-05
1.33751e-05
-7.91509e-05
1.75782e-05
-8.69838e-05
2.34416e-05
-8.40268e-05
3.19912e-05
-8.05333e-05
3.53385e-05
-8.08848e-05
3.50736e-05
-8.2929e-05
3.08387e-05
-8.67629e-05
2.74299e-05
-8.85079e-05
1.63627e-05
-8.81306e-05
-9.04898e-06
8.41385e-06
-1.20947e-05
9.63927e-06
3.33685e-06
2.76901e-06
2.05549e-06
-3.18865e-06
-4.84139e-07
-7.92666e-06
-1.67574e-06
-1.28442e-05
-2.40029e-06
-1.90594e-05
-1.93713e-06
-2.53595e-05
-3.13113e-06
-3.11592e-05
-6.40533e-06
-4.31911e-05
-8.82855e-06
-5.40325e-05
-1.06684e-05
-5.99982e-05
-6.22431e-06
-6.76943e-05
3.26648e-07
-6.41618e-05
1.15678e-05
-6.02705e-05
1.78218e-05
-6.09043e-05
2.04143e-05
-6.25149e-05
1.87805e-05
-6.62257e-05
1.49888e-05
-7.01026e-05
7.59276e-06
-7.35427e-05
9.32718e-06
5.92589e-08
-1.2457e-05
6.30235e-06
-5.74567e-06
4.71687e-06
7.70436e-07
1.61389e-06
-3.99448e-06
-1.25152e-06
-7.78796e-06
-2.63702e-06
-1.24663e-05
-3.10763e-06
-1.76447e-05
-4.17819e-06
-2.39237e-05
-5.40462e-06
-3.21476e-05
-8.02062e-06
-3.93744e-05
-1.14931e-05
-5.0516e-05
-9.55886e-06
-5.46679e-05
-5.54337e-06
-5.7058e-05
2.68746e-06
-5.52554e-05
1.05022e-05
-5.35104e-05
1.53381e-05
-5.60232e-05
1.62975e-05
-5.80029e-05
1.4764e-05
-6.25141e-05
1.10353e-05
-6.51572e-05
5.46118e-06
-6.91273e-05
8.51293e-06
-6.75383e-06
3.26414e-06
-9.89061e-06
3.8813e-06
-9.47216e-07
4.62346e-06
-3.86346e-06
1.99748e-06
-7.04895e-06
-2.14885e-06
-7.54589e-06
-7.21089e-06
-7.18127e-06
-1.32593e-05
-6.44675e-06
-1.99221e-05
-7.18398e-06
-2.66372e-05
-9.36539e-06
-3.57291e-05
-7.92691e-06
-3.99413e-05
-5.5216e-06
-4.47656e-05
2.01932e-06
-4.51595e-05
8.02524e-06
-4.54447e-05
1.39119e-05
-4.85207e-05
1.47723e-05
-5.18155e-05
1.50636e-05
-5.69541e-05
1.19867e-05
-5.90552e-05
9.65024e-06
-6.34995e-05
5.50709e-06
-6.33731e-05
8.81446e-06
-1.47062e-06
-8.52773e-06
2.28967e-06
-5.05717e-06
3.83905e-06
-2.02025e-06
7.07232e-06
-9.67086e-06
6.83188e-06
-1.59833e-05
7.94668e-06
-2.1825e-05
9.00416e-06
-2.77366e-05
8.76288e-06
-3.29347e-05
7.07535e-06
-3.98853e-05
6.00837e-06
-4.33e-05
6.86943e-06
-4.76943e-05
1.10732e-05
-4.7022e-05
1.60803e-05
-4.71395e-05
2.05445e-05
-4.84913e-05
2.22331e-05
-5.18572e-05
2.2979e-05
-5.55409e-05
2.16079e-05
-5.9294e-05
1.88494e-05
-6.33911e-05
1.40979e-05
-6.79345e-05
8.32595e-06
-7.06621e-05
8.48428e-06
-4.90851e-06
7.25487e-07
-6.21917e-06
6.75784e-07
5.68342e-07
2.36236e-06
-2.45535e-07
2.99937e-07
-4.39011e-06
-1.12732e-06
-7.70807e-06
-1.62512e-06
-1.18445e-05
-2.07726e-06
-1.68549e-05
-3.84926e-06
-2.30286e-05
-5.35801e-06
-2.78344e-05
-3.89587e-06
-3.09035e-05
-1.27364e-06
-3.28455e-05
4.83136e-06
-3.34205e-05
8.77669e-06
-3.62871e-05
1.16126e-05
-3.99586e-05
1.21988e-05
-4.47846e-05
1.23865e-05
-4.89881e-05
1.10056e-05
-5.39966e-05
9.56642e-06
-5.79945e-05
1.03975e-05
-6.24395e-05
4.24994e-06
-6.33931e-05
-1.87359e-06
-5.64321e-06
3.62233e-07
-2.70143e-06
3.32091e-07
2.30002e-06
1.10203e-07
2.7964e-07
-3.36486e-06
-1.2747e-06
-6.13665e-06
-1.8235e-06
-9.49595e-06
-3.04436e-06
-1.42386e-05
-3.54386e-06
-1.95225e-05
-3.6262e-06
-2.12168e-05
-1.30029e-06
-2.43741e-05
3.70456e-06
-2.34031e-05
9.46718e-06
-2.40875e-05
1.30898e-05
-2.71942e-05
1.46376e-05
-3.13148e-05
1.4853e-05
-3.628e-05
1.41707e-05
-4.05998e-05
1.29042e-05
-4.55048e-05
1.14866e-05
-4.90973e-05
1.34932e-05
-5.31242e-05
1.02041e-05
-5.39333e-05
-3.63356e-06
-2.43746e-07
-4.18818e-06
9.17408e-08
4.56232e-07
5.66641e-07
2.25432e-06
-1.8452e-06
-3.14922e-07
-3.37503e-06
-3.38241e-06
-3.53879e-06
-7.34583e-06
-3.13995e-06
-1.14926e-05
-3.77321e-06
-1.5212e-05
-2.09733e-06
-1.86329e-05
3.1682e-07
-1.85322e-05
4.55598e-06
-2.01334e-05
8.1899e-06
-2.21591e-05
1.05356e-05
-2.62012e-05
1.15588e-05
-3.04471e-05
1.1851e-05
-3.58079e-05
1.18159e-05
-4.08144e-05
1.13061e-05
-4.60222e-05
1.08061e-05
-5.20757e-05
1.30279e-05
-5.56456e-05
9.67392e-06
-6.05938e-05
-1.58655e-06
-4.50878e-06
1.74724e-08
-2.15797e-06
-3.1675e-07
2.5606e-06
-9.89517e-07
3.56339e-06
-5.38631e-06
2.83632e-06
-8.52992e-06
2.70091e-06
-1.07835e-05
2.22561e-06
-1.43477e-05
1.96066e-06
-1.55014e-05
1.78642e-06
-1.87626e-05
2.66865e-06
-2.07166e-05
4.70322e-06
-2.33273e-05
6.92613e-06
-2.54198e-05
9.58673e-06
-2.76838e-05
1.17045e-05
-2.94242e-05
1.43954e-05
-3.11468e-05
1.69236e-05
-3.27938e-05
1.93359e-05
-3.47176e-05
2.12629e-05
-3.81914e-05
2.61127e-05
-3.90558e-05
2.45881e-05
-4.30355e-05
-3.18101e-06
-1.0897e-07
-3.99562e-06
2.92538e-07
-4.01443e-07
1.1087e-06
1.40005e-06
-1.33415e-07
-1.71186e-07
-2.77295e-06
-1.03583e-06
-4.45935e-06
-1.28596e-06
-6.61114e-06
-1.11616e-06
-8.04497e-06
-2.09601e-06
-1.04523e-05
-2.08596e-06
-1.27594e-05
-1.14327e-06
-1.30668e-05
-1.10053e-07
-1.60528e-05
1.66661e-06
-1.80438e-05
2.98567e-06
-2.08833e-05
4.3807e-06
-2.40663e-05
5.66247e-06
-2.75655e-05
7.26491e-06
-3.10578e-05
7.23571e-06
-3.49064e-05
5.60027e-06
-4.0477e-05
2.93239e-06
-4.57937e-05
9.45185e-06
-1.06215e-06
-4.62736e-06
8.75048e-07
-2.53137e-06
4.98981e-07
1.93765e-07
1.73269e-06
-1.08931e-07
-3.50408e-07
-2.10372e-06
-9.63772e-07
-3.31809e-06
-8.18624e-07
-3.8881e-06
-1.3217e-06
-5.12465e-06
-5.38589e-07
-5.05742e-06
4.06636e-07
-3.14897e-06
3.28436e-06
-3.24135e-06
7.45527e-06
3.38805e-07
1.23114e-05
1.11512e-06
1.57205e-05
6.3922e-07
1.84616e-05
-1.72007e-06
2.10974e-05
-4.15432e-06
2.39225e-05
-7.00163e-06
2.5459e-05
-9.80747e-06
2.53998e-05
-1.46173e-05
2.4979e-05
-1.91997e-05
2.88369e-05
-2.80946e-06
8.33245e-07
-2.74005e-06
1.2672e-06
-8.44504e-07
9.19984e-07
6.77314e-07
2.59823e-07
-2.97879e-07
-1.45893e-06
-1.00073e-06
-2.16318e-06
-1.46222e-06
-2.69537e-06
-1.57517e-06
-2.17737e-06
-1.47046e-06
-8.8418e-07
4.47896e-07
9.18591e-07
3.62946e-06
4.86628e-06
7.27112e-06
6.28176e-06
9.99756e-06
6.33224e-06
1.1355e-05
3.67876e-06
1.2249e-05
8.45876e-07
1.28775e-05
-3.48002e-06
1.3874e-05
-7.26889e-06
1.42133e-05
-1.0795e-05
1.51413e-05
-1.4358e-05
1.79541e-05
-1.58447e-05
2.30714e-05
-3.04761e-06
-3.69614e-06
-2.96045e-07
-2.35733e-06
8.52653e-07
-4.59756e-07
1.59541e-06
2.34865e-07
3.35421e-07
-6.33986e-07
-4.15164e-07
-9.00951e-07
-7.97901e-07
-5.80261e-07
-9.97338e-07
2.39363e-07
-3.45456e-07
1.92138e-06
1.02671e-06
4.0685e-06
3.10085e-06
5.37469e-06
5.02805e-06
6.33619e-06
6.45806e-06
5.80458e-06
7.47489e-06
5.32447e-06
8.42757e-06
3.64948e-06
9.83509e-06
2.19722e-06
1.14896e-05
-2.55538e-07
1.24784e-05
-2.22497e-06
1.23468e-05
-6.15408e-06
1.2925e-05
-1.02939e-05
1.62338e-05
-3.92491e-06
-3.77508e-06
-4.09614e-06
-3.34732e-07
-2.08653e-06
1.10907e-06
-2.68228e-07
1.43844e-06
-5.94005e-08
4.85519e-07
-1.15617e-07
1.69864e-07
-6.74805e-07
3.22796e-07
-1.9193e-06
7.5337e-07
-3.04397e-06
1.09152e-06
-3.85017e-06
1.73216e-06
-4.0402e-06
2.55612e-06
-4.05328e-06
3.44199e-06
-3.93716e-06
4.37158e-06
-3.86921e-06
4.7244e-06
-3.79368e-06
5.03816e-06
-3.60399e-06
4.48034e-06
-3.37636e-06
4.17679e-06
-3.66971e-06
3.07597e-06
-4.13634e-06
2.54187e-06
-2.45199e-06
9.93593e-08
2.33501e-07
-4.87518e-06
-4.30874e-06
-2.45266e-06
-2.31792e-06
-4.00605e-07
-1.06953e-06
1.16861e-06
-1.59422e-07
7.55181e-07
5.88508e-07
-1.3476e-07
1.85166e-06
-1.67105e-06
3.26717e-06
-3.78778e-06
4.46799e-06
-6.14853e-06
5.08724e-06
-8.55737e-06
5.4e-06
-1.06026e-05
6.47332e-06
-1.2103e-05
7.41971e-06
-1.26855e-05
9.52695e-06
-1.20082e-05
1.10483e-05
-1.01624e-05
1.35011e-05
-7.02662e-06
1.47347e-05
-3.18229e-06
1.65885e-05
7.6358e-07
1.77808e-05
4.44619e-06
1.95612e-05
9.58812e-06
2.05665e-05
1.22631e-05
-5.02497e-07
-6.51705e-07
-5.3657e-07
-2.75098e-07
-3.5205e-07
2.00379e-07
-5.36035e-08
3.21789e-07
1.22463e-07
3.47465e-07
5.07424e-07
3.16156e-07
1.3217e-06
7.46232e-08
2.17393e-06
-4.33223e-07
3.53691e-06
-1.3614e-06
4.59346e-06
-2.88451e-06
6.44837e-06
-5.06744e-06
8.16246e-06
-8.11426e-06
1.0803e-05
-1.18163e-05
1.3687e-05
-1.61353e-05
1.74498e-05
-2.06883e-05
2.20792e-05
-2.52896e-05
2.75288e-05
-2.9851e-05
3.4435e-05
-3.38545e-05
4.18973e-05
-3.93335e-05
4.98832e-05
-3.94565e-05
6.11074e-05
0.0980646
0.138019
-0.143965
0.0240163
-0.0514748
-0.00580058
-0.00077587
0.012269
-0.190396
0.121473
-0.0981651
0.128006
0.0380322
-0.00294493
0.0178102
0.0162225
-0.00494312
0.0488825
-0.0317275
0.0444655
-0.033847
0.00183174
-0.00155798
0.00175496
-0.00120151
0.00739161
-0.00891452
0.000163487
-0.000608392
-0.00337398
-0.00127511
-0.00505144
0.000421515
0.000651015
-0.00215743
0.000687801
-0.000719305
-8.29977e-05
-0.00233628
0.00290336
-0.000329111
-0.00165827
0.0020456
-0.00135424
0.00181374
-0.000265351
-0.000412262
0.00113633
0.000679957
9.80189e-05
0.000566502
0.000336503
0.000348832
0.000341894
0.000644967
9.05268e-05
0.00051691
1.72379e-05
0.000595439
-2.48229e-05
0.000944033
-0.000542126
0.000139716
0.000431442
-0.000216191
0.000607527
-0.00053013
3.91273e-05
-1.66857e-05
7.94955e-05
-0.000182594
5.99364e-05
1.26209e-07
4.50295e-05
0.0186235
0.0156398
-0.0430238
-0.0146132
-0.0309026
-0.0213863
-0.0172921
-0.00856302
-0.0476418
0.00800459
-0.0198139
0.0251948
0.0219537
0.00298471
0.0120883
0.0117432
-0.000124291
0.0148662
-0.00683869
0.014847
-0.00663896
0.00422635
-0.000296549
0.00292891
4.62281e-05
0.00345459
-0.00125795
0.00123357
0.00124588
0.000350191
0.000829225
-0.00021376
0.000615116
0.000489422
-0.00025481
0.000780262
3.14359e-05
0.000292239
-0.000102958
0.000959353
1.85412e-05
-0.000119276
0.000637983
-0.000204877
0.000624557
-2.42666e-05
9.15397e-05
0.000272576
0.000318413
7.22956e-05
0.000239105
0.00015275
0.000160061
0.00011519
0.000140151
-9.74898e-06
0.00013508
-7.1775e-05
0.000144835
-0.000105471
0.000126898
-0.000243044
-4.73199e-05
7.04161e-05
-0.000176416
4.4851e-05
-0.000223287
-6.86622e-05
-5.62539e-05
-3.72284e-05
-0.000121354
-2.11664e-05
-2.21586e-05
9.76627e-06
0.0224809
0.0121122
0.00137677
0.0100258
0.00783977
0.00997261
0.00984422
0.0101879
0.000512672
0.0131616
-0.00178613
0.00961112
0.00371016
-0.00170066
0.00139927
0.000702353
-0.00343176
0.00296316
-0.00401482
0.00340114
-0.00554773
-0.00127772
-0.00345658
-0.00122777
-0.00271718
-3.50189e-05
-0.0024623
-0.00228278
-0.00173023
-0.00203422
-0.00122896
-0.00154096
-0.000718358
-0.000592603
-0.00104859
-0.000199524
-0.000582032
-0.000353662
-0.000470994
0.000204363
-0.000257185
-0.000325178
0.000221259
-0.0003782
0.000372026
-0.000101591
8.02804e-05
0.000131042
0.000214188
5.24257e-05
0.00021995
0.000155228
0.00017197
0.000203789
0.000209716
0.000131165
0.000267204
0.000122071
0.000309122
0.000123839
0.000286013
2.61687e-05
0.000186679
0.000256243
1.98929e-05
0.000196254
-2.64578e-05
0.000107259
0.0001048
7.75636e-05
-2.44659e-05
8.26124e-05
2.00081e-05
3.20357e-05
0.00889698
0.00180247
-0.0127781
-0.0119735
-0.0173006
-0.0165342
-0.0147253
-0.0101427
-0.0157955
-0.00462279
-0.00338351
0.00672106
0.0108654
0.00383563
0.0075424
0.00701245
0.0010867
0.00610124
-0.00111727
0.00588894
-0.00213061
0.00205246
-0.00110767
0.000994193
-0.000976155
0.000897465
-0.000815424
0.000390546
0.000508326
-0.000196921
0.000124241
-0.000248728
4.64035e-05
4.80952e-05
1.70362e-05
0.000447431
-6.46079e-05
0.000257686
0.000140221
0.000394553
-1.83462e-05
0.000125663
0.000268588
-6.07129e-05
0.00035633
2.18401e-05
0.000183928
0.000115394
0.000242883
8.29465e-05
0.000192892
0.000147033
0.000158911
0.000124978
0.000118328
5.13245e-05
0.000110895
-1.67937e-05
0.000109597
-4.33098e-05
6.39337e-05
-9.38652e-05
-1.12462e-05
4.43928e-05
-0.000114061
3.81511e-06
-0.000115176
-4.6427e-05
-2.166e-05
-3.92179e-05
-8.94435e-05
-1.46591e-05
-1.7373e-05
1.08121e-05
0.00437895
0.00217638
0.00208673
0.00305214
0.0036573
0.00459717
0.00534911
0.00576965
0.00624868
0.0042524
0.00300369
0.000651017
-0.000368788
-0.00162738
-0.0013476
-0.00207251
-0.00301149
-0.00216952
-0.00116697
-0.00124323
-0.00175296
-0.00147946
-0.00212397
-0.0010349
-0.00164869
-0.000728008
-0.00141847
-0.00168242
-0.00139144
-0.00125266
-0.000882928
-0.000792399
-0.000608251
-0.000482681
-0.000501822
-0.000168468
-0.000563607
-0.000236834
-0.000237923
-5.07316e-05
-0.000285942
-8.67383e-05
9.6378e-06
-0.000179101
0.00014897
-3.49409e-05
0.000100551
2.64082e-05
0.000112737
4.7021e-05
0.00012364
0.000116971
0.000121608
0.000153001
0.000138801
0.000123103
0.000162468
8.6691e-05
0.000191745
9.6887e-05
0.000181373
9.08457e-05
0.000151163
0.000165626
2.68943e-05
0.000131579
3.49069e-05
9.10628e-05
9.1674e-05
4.74719e-05
-1.89336e-05
8.34186e-05
1.26662e-05
3.25345e-05
0.000862157
-0.000639287
-0.00442779
-0.00670702
-0.00909678
-0.0102696
-0.00953295
-0.00829827
-0.00727754
-0.00450504
-0.00159604
0.00118658
0.0036263
0.00297744
0.00431347
0.00423333
0.00235133
0.00336789
0.00121782
0.00260313
-8.08919e-05
0.00100373
-0.000726933
0.000170125
-0.000837528
0.000110439
-0.00049085
2.00448e-05
1.84604e-05
-0.000471983
-0.000258538
-0.000398909
-0.000133315
-7.01036e-05
0.000137983
0.000164663
-0.000100312
0.00024803
0.000157336
0.000128499
-2.41428e-05
0.000212485
0.000120059
-1.39845e-05
0.000240816
4.33497e-05
0.000194363
6.6654e-05
0.000194611
8.033e-05
0.000163622
0.000139577
0.000146511
0.000124549
0.000113838
7.95564e-05
9.59925e-05
2.05152e-05
8.84773e-05
6.06397e-07
5.56071e-05
-1.6557e-05
1.26156e-05
3.02526e-05
-6.6202e-05
2.15967e-06
-6.22977e-05
-3.21057e-05
-6.47587e-06
-3.69755e-05
-6.64557e-05
-1.03655e-05
-1.49243e-05
1.18849e-05
-0.000558813
-0.00202102
-0.0017215
-0.00231159
-0.00195508
-0.00115691
-0.000495036
0.000627505
0.00181604
0.00171783
0.00130769
0.000340989
-0.000586905
-0.000604087