/*--------------------------------*- C++ -*----------------------------------*\
| =========                 |                                                 |
| \\      /  F ield         | OpenFOAM: The Open Source CFD Toolbox           |
|  \\    /   O peration     | Version:  2312                                  |
|   \\  /    A nd           | Website:  www.openfoam.com                      |
|    \\/     M anipulation  |                                                 |
\*---------------------------------------------------------------------------*/
FoamFile
{
    version     2.0;
    format      ascii;
    arch        "LSB;label=32;scalar=64";
    class       volScalarField;
    location    "550";
    object      magR;
}
// * * * * * * * * * * * * * * * * * * * * * * * * * * * * * * * * * * * * * //

dimensions      [0 2 -2 0 0 0 0];

internalField   nonuniform List<scalar> 
11040
(
0.474478
0.530676
0.0862479
0.0530409
0.32996
0.346184
0.328239
0.299807
0.269394
0.250397
0.232
0.216001
0.202763
0.192203
0.183602
0.17866
0.177273
0.179958
0.186216
0.195844
0.209181
0.22588
0.246004
0.269978
0.298318
0.332213
0.369305
0.405238
0.436936
0.460621
0.472555
0.469678
0.453794
0.433243
0.411962
0.324138
0.172762
0.107929
0.0480406
0.114691
0.243411
0.0388637
0.0812421
0.280253
0.507976
1.00796
0.350251
0.108985
0.0389161
0.011409
0.00535914
0.0153596
0.0210788
0.0248913
0.0275207
0.0292409
0.0307953
0.0326384
0.035013
0.0375527
0.0401895
0.0429701
0.045959
0.0483274
0.049207
0.0484999
0.0473364
0.0454175
0.0418357
0.0366394
0.0304861
0.0250154
0.0225159
0.0221026
0.0259522
0.0344448
0.0469097
0.0632187
0.0835022
0.136012
0.139194
0.694782
0.0240587
0.0215789
0.0473292
0.205987
1.14197
1.56428
0.834649
0.317679
0.150464
0.0901556
0.0512686
0.0297665
0.0148184
0.00484569
0.00283439
0.00745479
0.0108669
0.0133347
0.0151472
0.0163912
0.0171751
0.0175043
0.016928
0.0153316
0.0131471
0.0109739
0.00914695
0.00775914
0.00699288
0.00872676
0.0157483
0.0286216
0.046038
0.0681897
0.0956451
0.1296
0.171184
0.216659
0.320687
0.398414
0.619814
0.0173281
0.0147278
0.0124434
0.0184386
0.264403
1.31369
2.00586
1.38226
0.584033
0.314738
0.185756
0.124762
0.0870863
0.0616931
0.0456454
0.0343263
0.027414
0.0229751
0.0206009
0.0198701
0.0202948
0.0218047
0.0245731
0.0283712
0.0324292
0.0360864
0.0388303
0.0402282
0.0403384
0.0406665
0.0450778
0.0582962
0.0822911
0.117751
0.16495
0.225608
0.301613
0.38491
0.540958
0.717669
0.633804
0.0128848
0.0116014
0.0123228
0.00634401
0.00775577
0.234024
1.23992
2.25179
1.97623
1.01271
0.531923
0.322904
0.221779
0.159029
0.12273
0.0970969
0.0815969
0.0713313
0.0653773
0.0626099
0.0618903
0.0627209
0.0651867
0.0691362
0.073587
0.077651
0.080539
0.0815055
0.0803317
0.0782643
0.0796263
0.092492
0.12393
0.175918
0.247864
0.341159
0.458237
0.589404
0.785623
1.07171
0.833835
0.00929415
0.00853411
0.00826935
0.00918286
0.0029329
0.00182172
0.156129
0.985554
2.26679
2.49385
1.64973
0.848685
0.524922
0.351274
0.259023
0.199053
0.164101
0.141426
0.12765
0.12042
0.11714
0.116578
0.118443
0.122554
0.127647
0.132507
0.135865
0.136339
0.132994
0.1265
0.121515
0.130103
0.166968
0.237177
0.338393
0.470241
0.634717
0.822038
1.05321
1.42956
1.17602
0.00670877
0.00641112
0.00601626
0.00637924
0.00664475
0.00135659
4.46705e-05
0.0712023
0.655624
1.95526
2.7819
2.37261
1.40503
0.798991
0.536047
0.390954
0.304917
0.250573
0.217687
0.199793
0.190625
0.187336
0.188414
0.193183
0.199723
0.206239
0.210763
0.210992
0.204846
0.191884
0.176011
0.172068
0.206151
0.292092
0.42482
0.599261
0.814871
1.06152
1.3296
1.7659
1.58417
0.0048948
0.00478446
0.00471275
0.00452237
0.00487529
0.00515836
0.000294247
1.7287e-06
0.0205694
0.349147
1.39769
2.68191
2.94189
2.18054
1.27629
0.797669
0.569328
0.442267
0.364337
0.318216
0.29297
0.28259
0.281103
0.286417
0.295236
0.304713
0.311805
0.312887
0.30407
0.283186
0.251689
0.223043
0.235195
0.325115
0.48704
0.705032
0.971915
1.2752
1.58528
2.03928
1.97993
0.00361439
0.00356244
0.00356828
0.00353923
0.00339633
0.00382286
0.00370127
0.000568329
0.000406181
0.000599573
0.129931
0.793617
2.10535
3.10619
2.94194
2.04596
1.23865
0.829437
0.62574
0.51242
0.447876
0.417675
0.407639
0.411175
0.422112
0.435211
0.445975
0.449381
0.439575
0.411318
0.361904
0.29756
0.255177
0.31474
0.494143
0.752418
1.06675
1.41859
1.76914
2.2067
2.28004
0.00268376
0.00265914
0.00267793
0.0027063
0.00268406
0.00259825
0.00291163
0.00264763
0.00091502
0.000102021
0.00194879
0.0327734
0.343171
1.30305
2.65664
3.33726
2.92164
2.0067
1.27208
0.897109
0.71524
0.627213
0.589151
0.580977
0.590298
0.608013
0.62577
0.634594
0.625955
0.592337
0.527055
0.426381
0.303637
0.247948
0.404138
0.695245
1.05052
1.43986
1.82105
2.22643
2.40206
0.00200134
0.00198962
0.00200909
0.00204015
0.0020686
0.00204974
0.0020188
0.00215149
0.00216519
0.00104987
7.13967e-05
0.000441389
0.000319669
0.0914227
0.591067
1.73395
3.01644
3.47683
2.9593
2.0721
1.37906
1.03465
0.891387
0.835062
0.822062
0.833841
0.855819
0.874053
0.875699
0.847832
0.777684
0.654598
0.4739
0.244812
0.165381
0.481496
0.872885
1.2876
1.68223
2.0469
2.2798
0.00149547
0.00149049
0.00150443
0.00153269
0.00156247
0.00158608
0.00158093
0.00156275
0.0016153
0.00167492
0.00113795
5.46016e-05
2.55833e-05
0.00147205
0.010849
0.175162
0.810806
2.02478
3.22876
3.60297
3.09414
2.29442
1.67742
1.34119
1.20067
1.16396
1.17039
1.18741
1.1965
1.18108
1.12487
1.01314
0.836158
0.591996
0.300187
0.222298
0.57305
0.978264
1.35398
1.66192
1.89213
0.00111811
0.00111673
0.00112607
0.00114765
0.00117475
0.00120047
0.00122079
0.00122565
0.00121591
0.00123057
0.00128346
0.0011223
0.000296418
2.91428e-05
0.000145553
0.00316459
0.0236357
0.240897
0.935423
2.15116
3.33024
3.762
3.45626
2.86874
2.31564
1.93036
1.72311
1.64501
1.63335
1.63212
1.60386
1.52796
1.39668
1.21532
1.00827
0.835095
0.797155
0.934583
1.1463
1.31359
1.42724
0.000835277
0.000835941
0.000841916
0.000857462
0.000879361
0.000902731
0.000924479
0.000942772
0.000952665
0.000950533
0.000949506
0.000997289
0.000970676
0.000577178
1.31645e-05
4.66324e-06
0.000360003
0.00492242
0.0329656
0.261952
0.940377
2.06359
3.18777
3.86126
3.97426
3.72762
3.3474
2.96629
2.65305
2.43183
2.29329
2.20644
2.1351
2.05546
1.96626
1.88183
1.82598
1.81075
1.83007
1.83434
1.71332
0.000622615
0.000624307
0.000628079
0.000639076
0.000655834
0.000675102
0.00069474
0.000713304
0.000729676
0.000741671
0.000744451
0.000744683
0.000768498
0.000779145
0.000688286
0.000207511
2.34757e-05
4.4349e-07
0.000638404
0.00514851
0.0307989
0.214933
0.703699
1.54235
2.56876
3.50563
4.14521
4.44672
4.48983
4.36645
4.13912
3.85779
3.57362
3.33321
3.16827
3.09065
3.09588
3.14998
3.21344
3.2625
3.12811
0.000462546
0.000464546
0.000466932
0.000474654
0.000487158
0.000502177
0.000518291
0.000534717
0.000550571
0.000564961
0.000576894
0.000583225
0.00058713
0.000592599
0.000621521
0.000586401
0.000459801
3.83521e-05
8.28847e-06
1.02713e-07
0.000728423
0.00344106
0.0109641
0.0885064
0.32112
0.789791
1.50248
2.38201
3.29529
4.11808
4.77192
5.22417
5.47706
5.5567
5.5081
5.38368
5.2375
5.10774
5.02698
5.0385
4.95484
0.000343085
0.000344975
0.000346555
0.000352015
0.000361216
0.000372542
0.000385095
0.000398384
0.000411921
0.000425078
0.000437317
0.00044805
0.00045641
0.000461092
0.00046737
0.000478128
0.000495362
0.000439896
0.000271748
9.49408e-06
4.32126e-06
6.17711e-08
0.000218455
0.00198116
0.0012407
0.0132027
0.0653253
0.212532
0.50337
0.971233
1.61655
2.40422
3.27434
4.15941
4.99422
5.72015
6.30576
6.74234
7.0533
7.30566
7.36775
0.000256944
0.000258633
0.000259822
0.000263887
0.000270813
0.000279446
0.000289168
0.000299691
0.000310667
0.000321731
0.000332496
0.000342649
0.000351931
0.000359951
0.000365813
0.000370869
0.000377151
0.000392225
0.000395443
0.000342051
0.000186836
5.8482e-06
3.5025e-06
2.02774e-07
2.25464e-05
0.000311895
0.00135795
0.00235793
0.00106782
0.0123375
0.0562694
0.162305
0.362676
0.686552
1.15202
1.75744
2.48431
3.30548
4.17659
5.07598
5.86733
0.000196047
0.000197545
0.000198518
0.00020167
0.000207017
0.000213718
0.000221356
0.000229761
0.000238706
0.000247911
0.000257105
0.000266053
0.000274542
0.000282453
0.000289518
0.000295631
0.000300089
0.000305447
0.000313083
0.000323869
0.000320904
0.000269191
0.000181321
1.94667e-05
4.64486e-06
1.10933e-06
7.53378e-08
0
1.28934e-05
0.000247978
0.00118519
0.00169677
0.00187622
0.00107521
0.0133457
0.0499519
0.129424
0.271574
0.494181
0.813232
1.22785
0.000152342
0.000153617
0.000154425
0.00015691
0.000161092
0.000166344
0.000172375
0.00017907
0.000186289
0.000193827
0.000201506
0.000209173
0.000216663
0.000223829
0.000230548
0.000236756
0.000242279
0.000246978
0.00025106
0.000256338
0.000263759
0.000269977
0.000269199
0.000238119
0.000177518
0.000109841
8.15979e-06
2.8753e-06
9.0721e-07
4.74362e-07
7.71228e-09
0
0
1.08521e-05
0.00029195
0.00108023
0.00155538
0.000954387
0.00185125
0.00139124
0.0119954
0.000119997
0.000121056
0.000121733
0.000123721
0.000127027
0.000131185
0.000135982
0.00014134
0.000147151
0.000153276
0.000159585
0.000165975
0.000172338
0.000178564
0.000184552
0.000190218
0.000195515
0.000200372
0.000204685
0.000208502
0.000212119
0.000216842
0.000222158
0.00022942
0.000229198
0.000222182
0.000196109
0.000153684
0.000104419
5.75539e-05
1.01817e-06
1.35409e-06
6.93247e-07
4.31565e-07
2.13465e-07
4.21221e-09
0
0
0
1.2383e-05
0.000229917
9.55507e-05
9.64209e-05
9.70012e-05
9.86097e-05
0.000101249
0.000104567
0.000108411
0.000112717
0.000117406
0.000122375
0.000127525
0.000132782
0.000138073
0.000143316
0.000148438
0.000153373
0.000158066
0.000162477
0.000166572
0.000170349
0.000173621
0.000176555
0.000179345
0.000182907
0.000187237
0.000191378
0.000196205
0.000196636
0.000191233
0.000182323
0.000161027
0.000130889
9.83949e-05
6.35425e-05
3.32564e-05
7.07935e-07
9.15765e-07
5.03286e-07
3.72808e-07
2.49716e-07
1.36237e-07
7.67449e-05
7.74562e-05
7.79584e-05
7.92715e-05
8.13941e-05
8.40602e-05
8.71562e-05
9.06309e-05
9.44216e-05
9.84493e-05
0.000102639
0.000106938
0.00011129
0.000115633
0.000119912
0.000124076
0.000128081
0.000131887
0.000135463
0.000138814
0.00014182
0.000144453
0.0001468
0.000148829
0.000150833
0.000152878
0.000155388
0.000158347
0.000161314
0.000163762
0.000166688
0.000166717
0.000163583
0.000157197
0.000148856
0.000133932
0.000114735
9.3377e-05
7.202e-05
5.03301e-05
2.90654e-05
6.20759e-05
6.26571e-05
6.30964e-05
6.41767e-05
6.58942e-05
6.80492e-05
7.0555e-05
7.33693e-05
7.64408e-05
7.97082e-05
8.3114e-05
8.66155e-05
9.01683e-05
9.37272e-05
9.72484e-05
0.000100692
0.000104022
0.000107206
0.000110213
0.000113041
0.00011559
0.000117839
0.000119867
0.000121603
0.000123071
0.000124325
0.000125399
0.000126399
0.000127436
0.000128496
0.000129819
0.000131304
0.000132724
0.000133888
0.00013463
0.00013557
0.000135214
0.000133344
0.000130044
0.00012524
0.00011942
5.05021e-05
5.09767e-05
5.13632e-05
5.22578e-05
5.3655e-05
5.54056e-05
5.74419e-05
5.97283e-05
6.22218e-05
6.48743e-05
6.76405e-05
7.04843e-05
7.33721e-05
7.62684e-05
7.9138e-05
8.19491e-05
8.46719e-05
8.72782e-05
8.97417e-05
9.20576e-05
9.41375e-05
9.59644e-05
9.76006e-05
9.89969e-05
0.000100161
0.000101118
0.000101875
0.000102438
0.000102827
0.000103061
0.000103164
0.000103186
0.000103165
0.000103127
0.000103052
0.000103015
0.000102987
0.000102919
0.000102771
0.000102467
0.000101827
4.12823e-05
4.16713e-05
4.20136e-05
4.27587e-05
4.39014e-05
4.53304e-05
4.69916e-05
4.88548e-05
5.08835e-05
5.30394e-05
5.52858e-05
5.75925e-05
5.99335e-05
6.22787e-05
6.46005e-05
6.68736e-05
6.90729e-05
7.11746e-05
7.31559e-05
7.50106e-05
7.66641e-05
7.81035e-05
7.93812e-05
8.04528e-05
8.13248e-05
8.20155e-05
8.25367e-05
8.28941e-05
8.30942e-05
8.31446e-05
8.30507e-05
8.28208e-05
8.24642e-05
8.19967e-05
8.14314e-05
8.07708e-05
8.00383e-05
7.92529e-05
7.84336e-05
7.76096e-05
7.64891e-05
3.38797e-05
3.41988e-05
3.4504e-05
3.51288e-05
3.60686e-05
3.72402e-05
3.86009e-05
4.01235e-05
4.17777e-05
4.35319e-05
4.53566e-05
4.72268e-05
4.91214e-05
5.10138e-05
5.28834e-05
5.47091e-05
5.64707e-05
5.81474e-05
5.97205e-05
6.11831e-05
6.24734e-05
6.35831e-05
6.45579e-05
6.536e-05
6.59926e-05
6.64704e-05
6.68036e-05
6.69991e-05
6.70641e-05
6.70069e-05
6.68354e-05
6.65577e-05
6.6179e-05
6.57092e-05
6.51561e-05
6.45216e-05
6.38157e-05
6.30444e-05
6.22257e-05
6.13717e-05
6.03039e-05
2.78948e-05
2.81591e-05
2.84329e-05
2.89601e-05
2.97375e-05
3.07028e-05
3.18216e-05
3.30697e-05
3.44217e-05
3.58512e-05
3.73343e-05
3.88504e-05
4.03812e-05
4.19049e-05
4.34047e-05
4.48639e-05
4.62656e-05
4.75927e-05
4.88291e-05
4.9969e-05
5.09611e-05
5.18022e-05
5.25314e-05
5.31182e-05
5.3564e-05
5.3882e-05
5.40803e-05
5.41653e-05
5.41436e-05
5.40232e-05
5.38116e-05
5.35171e-05
5.31457e-05
5.27065e-05
5.22073e-05
5.16512e-05
5.10461e-05
5.03954e-05
4.97203e-05
4.90103e-05
4.81649e-05
2.30289e-05
2.32491e-05
2.34965e-05
2.39452e-05
2.45923e-05
2.53921e-05
2.63159e-05
2.73425e-05
2.84502e-05
2.96175e-05
3.08243e-05
3.20537e-05
3.32895e-05
3.45151e-05
3.57153e-05
3.68773e-05
3.79875e-05
3.90317e-05
3.99963e-05
4.08764e-05
4.16306e-05
4.22588e-05
4.27959e-05
4.32166e-05
4.35218e-05
4.37229e-05
4.38277e-05
4.3842e-05
4.37715e-05
4.36233e-05
4.34041e-05
4.31212e-05
4.27801e-05
4.23883e-05
4.19529e-05
4.14769e-05
4.09665e-05
4.04228e-05
3.9871e-05
3.92829e-05
3.86226e-05
1.90527e-05
1.92391e-05
1.9464e-05
1.98491e-05
2.03918e-05
2.10583e-05
2.18246e-05
2.26723e-05
2.35826e-05
2.45379e-05
2.55215e-05
2.65193e-05
2.75175e-05
2.85032e-05
2.94624e-05
3.03857e-05
3.1262e-05
3.20802e-05
3.28291e-05
3.35043e-05
3.4073e-05
3.45374e-05
3.49281e-05
3.52246e-05
3.54282e-05
3.55482e-05
3.55914e-05
3.55632e-05
3.5469e-05
3.53147e-05
3.51061e-05
3.48495e-05
3.45495e-05
3.42123e-05
3.38443e-05
3.3448e-05
3.30283e-05
3.25841e-05
3.21437e-05
3.16618e-05
3.11697e-05
1.57901e-05
1.59501e-05
1.61568e-05
1.64904e-05
1.69491e-05
1.7508e-05
1.81469e-05
1.88496e-05
1.96003e-05
2.03843e-05
2.11876e-05
2.19985e-05
2.28057e-05
2.35983e-05
2.43648e-05
2.50974e-05
2.57879e-05
2.64272e-05
2.70066e-05
2.7522e-05
2.79483e-05
2.82887e-05
2.85702e-05
2.87759e-05
2.89072e-05
2.89722e-05
2.89772e-05
2.89264e-05
2.88246e-05
2.86769e-05
2.84885e-05
2.82646e-05
2.80089e-05
2.77267e-05
2.74233e-05
2.7101e-05
2.67634e-05
2.64076e-05
2.60648e-05
2.56722e-05
2.53302e-05
1.31034e-05
1.32438e-05
1.3435e-05
1.37266e-05
1.41177e-05
1.45896e-05
1.51254e-05
1.57107e-05
1.63324e-05
1.6978e-05
1.7636e-05
1.82964e-05
1.89503e-05
1.95883e-05
2.02013e-05
2.07825e-05
2.13264e-05
2.18252e-05
2.22726e-05
2.2665e-05
2.29833e-05
2.32314e-05
2.34327e-05
2.35735e-05
2.36552e-05
2.36848e-05
2.3668e-05
2.36085e-05
2.35102e-05
2.33774e-05
2.32143e-05
2.30255e-05
2.28138e-05
2.25835e-05
2.2339e-05
2.20822e-05
2.18157e-05
2.15352e-05
2.12742e-05
2.09544e-05
2.07401e-05
1.08842e-05
1.101e-05
1.11884e-05
1.14459e-05
1.17822e-05
1.21837e-05
1.2636e-05
1.31263e-05
1.36436e-05
1.41775e-05
1.47186e-05
1.52582e-05
1.57891e-05
1.63037e-05
1.67949e-05
1.72567e-05
1.76852e-05
1.80746e-05
1.84199e-05
1.87182e-05
1.89552e-05
1.91351e-05
1.9278e-05
1.93729e-05
1.94212e-05
1.9429e-05
1.94011e-05
1.93407e-05
1.92514e-05
1.91365e-05
1.89997e-05
1.88444e-05
1.8673e-05
1.84889e-05
1.82956e-05
1.80946e-05
1.78881e-05
1.76705e-05
1.7477e-05
1.72159e-05
1.71089e-05
9.04661e-06
9.16203e-06
9.32919e-06
9.55892e-06
9.85087e-06
1.01952e-05
1.05796e-05
1.0993e-05
1.14258e-05
1.18698e-05
1.23165e-05
1.27594e-05
1.3192e-05
1.36086e-05
1.40033e-05
1.43714e-05
1.47098e-05
1.50146e-05
1.52817e-05
1.55094e-05
1.56864e-05
1.58176e-05
1.59197e-05
1.5984e-05
1.60116e-05
1.60081e-05
1.59773e-05
1.59221e-05
1.58453e-05
1.57498e-05
1.56384e-05
1.55141e-05
1.53786e-05
1.52344e-05
1.50848e-05
1.49306e-05
1.47737e-05
1.46075e-05
1.44682e-05
1.42544e-05
1.42336e-05
7.52171e-06
7.62976e-06
7.78755e-06
7.99422e-06
8.25008e-06
8.54792e-06
8.87706e-06
9.22799e-06
9.59263e-06
9.96393e-06
1.0335e-05
1.07004e-05
1.10547e-05
1.13934e-05
1.17119e-05
1.20064e-05
1.22746e-05
1.25138e-05
1.27211e-05
1.28951e-05
1.30276e-05
1.31232e-05
1.3196e-05
1.3239e-05
1.32533e-05
1.32437e-05
1.32137e-05
1.31654e-05
1.31013e-05
1.30238e-05
1.29352e-05
1.28377e-05
1.27328e-05
1.26224e-05
1.25091e-05
1.23936e-05
1.22772e-05
1.21529e-05
1.20571e-05
1.18809e-05
1.19309e-05
6.2543e-06
6.35729e-06
6.50662e-06
6.69427e-06
6.92056e-06
7.18045e-06
7.46468e-06
7.76491e-06
8.07438e-06
8.38709e-06
8.69745e-06
9.0007e-06
9.29269e-06
9.56976e-06
9.82855e-06
1.00659e-05
1.02801e-05
1.04697e-05
1.06325e-05
1.07675e-05
1.0869e-05
1.0941e-05
1.09955e-05
1.10264e-05
1.10352e-05
1.10256e-05
1.10007e-05
1.09622e-05
1.0912e-05
1.08522e-05
1.07845e-05
1.07109e-05
1.06322e-05
1.055e-05
1.04665e-05
1.03821e-05
1.0298e-05
1.02068e-05
1.01443e-05
9.99893e-06
1.00989e-05
5.19953e-06
5.29903e-06
5.44088e-06
5.6125e-06
5.81454e-06
6.04338e-06
6.29089e-06
6.54994e-06
6.81461e-06
7.08004e-06
7.34145e-06
7.59504e-06
7.83732e-06
8.06548e-06
8.27694e-06
8.46935e-06
8.64134e-06
8.792e-06
8.92006e-06
9.02469e-06
9.10208e-06
9.15577e-06
9.19598e-06
9.21772e-06
9.22212e-06
9.21278e-06
9.19211e-06
9.16163e-06
9.12285e-06
9.07742e-06
9.02682e-06
8.97249e-06
8.91514e-06
8.85594e-06
8.79657e-06
8.73731e-06
8.67924e-06
8.61489e-06
8.57882e-06
8.4581e-06
8.59995e-06
4.32127e-06
4.41829e-06
4.55319e-06
4.71134e-06
4.89342e-06
5.09654e-06
5.31395e-06
5.53918e-06
5.76741e-06
5.99438e-06
6.21637e-06
6.43009e-06
6.63303e-06
6.82283e-06
6.9979e-06
7.15635e-06
7.29736e-06
7.42038e-06
7.52487e-06
7.61016e-06
7.67393e-06
7.71871e-06
7.7532e-06
7.77308e-06
7.77941e-06
7.77511e-06
7.76223e-06
7.74194e-06
7.71547e-06
7.68412e-06
7.6491e-06
7.61159e-06
7.57208e-06
7.53147e-06
7.49115e-06
7.45133e-06
7.41287e-06
7.36873e-06
7.35092e-06
7.25162e-06
7.41225e-06
3.58986e-06
3.68491e-06
3.81334e-06
3.96006e-06
4.12546e-06
4.30726e-06
4.49953e-06
4.69676e-06
4.89493e-06
5.09049e-06
5.2804e-06
5.46189e-06
5.63297e-06
5.79159e-06
5.93675e-06
6.06706e-06
6.18172e-06
6.28058e-06
6.36359e-06
6.43029e-06
6.47943e-06
6.51353e-06
6.53987e-06
6.55486e-06
6.55952e-06
6.55643e-06
6.54732e-06
6.53313e-06
6.51487e-06
6.49357e-06
6.47018e-06
6.44557e-06
6.42011e-06
6.39442e-06
6.36955e-06
6.34553e-06
6.32325e-06
6.2959e-06
6.29353e-06
6.21042e-06
6.39412e-06
2.98078e-06
3.07408e-06
3.19633e-06
3.33314e-06
3.48438e-06
3.64807e-06
3.8191e-06
3.99279e-06
4.16582e-06
4.33546e-06
4.49924e-06
4.65504e-06
4.80129e-06
4.93677e-06
5.06096e-06
5.17313e-06
5.27254e-06
5.35917e-06
5.433e-06
5.49382e-06
5.54076e-06
5.57523e-06
5.60348e-06
5.62237e-06
5.63277e-06
5.63683e-06
5.63593e-06
5.63084e-06
5.62235e-06
5.61134e-06
5.59858e-06
5.58483e-06
5.57038e-06
5.55571e-06
5.54178e-06
5.52863e-06
5.51682e-06
5.50071e-06
5.50585e-06
5.44104e-06
5.61305e-06
2.47359e-06
2.56557e-06
2.68226e-06
2.8102e-06
2.9487e-06
3.0962e-06
3.24867e-06
3.40219e-06
3.554e-06
3.70183e-06
3.84376e-06
3.97807e-06
4.10322e-06
4.2175e-06
4.32015e-06
4.41091e-06
4.48972e-06
4.55718e-06
4.61384e-06
4.65967e-06
4.69455e-06
4.7203e-06
4.74176e-06
4.75641e-06
4.76497e-06
4.76933e-06
4.77058e-06
4.76935e-06
4.76621e-06
4.76182e-06
4.75671e-06
4.7514e-06
4.74603e-06
4.74094e-06
4.7367e-06
4.73321e-06
4.73117e-06
4.72512e-06
4.73899e-06
4.68262e-06
4.87225e-06
2.05287e-06
2.14395e-06
2.25581e-06
2.37583e-06
2.50238e-06
2.63448e-06
2.7694e-06
2.90465e-06
3.03816e-06
3.16796e-06
3.29219e-06
3.40972e-06
3.52029e-06
3.62423e-06
3.72163e-06
3.81116e-06
3.89113e-06
3.96114e-06
4.02134e-06
4.0721e-06
4.11331e-06
4.14547e-06
4.17319e-06
4.19429e-06
4.20952e-06
4.22058e-06
4.22839e-06
4.23355e-06
4.23657e-06
4.23813e-06
4.23874e-06
4.23893e-06
4.23887e-06
4.23888e-06
4.23956e-06
4.24104e-06
4.24336e-06
4.24308e-06
4.25696e-06
4.22219e-06
4.36584e-06
1.70805e-06
1.79708e-06
1.9032e-06
2.01512e-06
2.13039e-06
2.24813e-06
2.36654e-06
2.48421e-06
2.60031e-06
2.71395e-06
2.82342e-06
2.92612e-06
3.01908e-06
3.0998e-06
3.1684e-06
3.22809e-06
3.28147e-06
3.32914e-06
3.3711e-06
3.40673e-06
3.43608e-06
3.46058e-06
3.48291e-06
3.50113e-06
3.51563e-06
3.5277e-06
3.53803e-06
3.54699e-06
3.55485e-06
3.562e-06
3.56875e-06
3.57534e-06
3.58183e-06
3.58832e-06
3.59508e-06
3.60193e-06
3.60946e-06
3.6135e-06
3.63197e-06
3.59248e-06
3.76841e-06
1.42695e-06
1.51175e-06
1.60889e-06
1.70939e-06
1.81167e-06
1.91593e-06
2.0208e-06
2.12435e-06
2.22514e-06
2.32275e-06
2.418e-06
2.51276e-06
2.60887e-06
2.70692e-06
2.80417e-06
2.89336e-06
2.96965e-06
3.03416e-06
3.08895e-06
3.13578e-06
3.1749e-06
3.20602e-06
3.23326e-06
3.25527e-06
3.27284e-06
3.28724e-06
3.2992e-06
3.30917e-06
3.31765e-06
3.32513e-06
3.33205e-06
3.33882e-06
3.34562e-06
3.35271e-06
3.36048e-06
3.36924e-06
3.37842e-06
3.38736e-06
3.40206e-06
3.39787e-06
3.47912e-06
1.19112e-06
1.27352e-06
1.36173e-06
1.44808e-06
1.53305e-06
1.61961e-06
1.70912e-06
1.80129e-06
1.89415e-06
1.98391e-06
2.06548e-06
2.13392e-06
2.18663e-06
2.22419e-06
2.25289e-06
2.28531e-06
2.32633e-06
2.37032e-06
2.41344e-06
2.45334e-06
2.48992e-06
2.52412e-06
2.55644e-06
2.58549e-06
2.61141e-06
2.63496e-06
2.65657e-06
2.67642e-06
2.69466e-06
2.71149e-06
2.72709e-06
2.74155e-06
2.75491e-06
2.76717e-06
2.77843e-06
2.78843e-06
2.79786e-06
2.80333e-06
2.81883e-06
2.78322e-06
2.94266e-06
9.9196e-07
1.0812e-06
1.17075e-06
1.25095e-06
1.32152e-06
1.38668e-06
1.45036e-06
1.51615e-06
1.58781e-06
1.66895e-06
1.76255e-06
1.86986e-06
1.98924e-06
2.11628e-06
2.24109e-06
2.34362e-06
2.41801e-06
2.47712e-06
2.52638e-06
2.56819e-06
2.60215e-06
2.62882e-06
2.65134e-06
2.66924e-06
2.68342e-06
2.69492e-06
2.70442e-06
2.71246e-06
2.71955e-06
2.72621e-06
2.73288e-06
2.74001e-06
2.7478e-06
2.75654e-06
2.76653e-06
2.77836e-06
2.79074e-06
2.80616e-06
2.8185e-06
2.84899e-06
2.83928e-06
8.48787e-07
9.36811e-07
1.02401e-06
1.10496e-06
1.1777e-06
1.24209e-06
1.29698e-06
1.3412e-06
1.37472e-06
1.39885e-06
1.4159e-06
1.42859e-06
1.43978e-06
1.45014e-06
1.4624e-06
1.49377e-06
1.54539e-06
1.60267e-06
1.66089e-06
1.71704e-06
1.7705e-06
1.8212e-06
1.86947e-06
1.91476e-06
1.95677e-06
1.99569e-06
2.03164e-06
2.06462e-06
2.09456e-06
2.12144e-06
2.14517e-06
2.16564e-06
2.18281e-06
2.19645e-06
2.20651e-06
2.21257e-06
2.21548e-06
2.21168e-06
2.21403e-06
2.16382e-06
2.29892e-06
9.28272e-07
1.0491e-06
1.11688e-06
1.13356e-06
1.12054e-06
1.1085e-06
1.1255e-06
1.1861e-06
1.2873e-06
1.41467e-06
1.5513e-06
1.6836e-06
1.80248e-06
1.90486e-06
1.98804e-06
2.0352e-06
2.04929e-06
2.04794e-06
2.03973e-06
2.02811e-06
2.0117e-06
1.99804e-06
1.98214e-06
1.96573e-06
1.9497e-06
1.93432e-06
1.91967e-06
1.90586e-06
1.89295e-06
1.8809e-06
1.86955e-06
1.85872e-06
1.84798e-06
1.83692e-06
1.82532e-06
1.81332e-06
1.79847e-06
1.78421e-06
1.75786e-06
1.76488e-06
1.65762e-06
7.65372
9.25292
9.05321
7.90595
6.03658
3.84313
1.80685
0.417885
0.067581
0.0101472
4.41484e-05
3.01306e-05
0.000529256
0.000513542
0.000422825
0.000369869
0.000315039
0.000262096
0.000210939
0.000172989
0.0001386
0.000112263
8.97282e-05
7.15791e-05
5.68762e-05
4.54244e-05
3.58999e-05
2.87907e-05
2.31205e-05
1.85844e-05
1.51506e-05
1.22423e-05
1.01125e-05
8.2974e-06
6.72135e-06
5.53573e-06
4.41404e-06
3.50267e-06
2.59608e-06
1.95853e-06
1.20139e-06
5.41632e-07
3.94783e-07
7.96438e-07
1.3144e-06
1.83819e-06
2.32282e-06
2.74655e-06
3.1241e-06
3.45333e-06
3.70792e-06
3.89946e-06
4.01678e-06
4.06378e-06
4.03742e-06
3.95508e-06
3.80232e-06
3.61297e-06
3.36986e-06
3.11413e-06
2.81695e-06
2.53385e-06
2.23344e-06
1.93921e-06
1.66297e-06
1.38781e-06
1.14792e-06
9.17986e-07
7.15161e-07
5.3235e-07
3.78927e-07
2.69825e-07
1.99559e-07
4.18036e-07
7.40393
12.2968
12.5539
11.1536
8.98551
6.37888
3.73043
1.53609
0.261259
0.0578927
0.000151461
3.74817e-06
8.13033e-05
0.000489504
0.000433945
0.000339636
0.000290513
0.000254994
0.000212895
0.000175616
0.000140369
0.000113234
9.10292e-05
7.31699e-05
5.84429e-05
4.68898e-05
3.72097e-05
2.98288e-05
2.40095e-05
1.92765e-05
1.5698e-05
1.26523e-05
1.039e-05
8.50863e-06
6.85393e-06
5.61257e-06
4.4502e-06
3.50943e-06
2.57367e-06
1.92143e-06
1.17438e-06
4.98039e-07
3.78858e-07
7.97757e-07
1.30273e-06
1.80295e-06
2.27175e-06
2.67251e-06
3.01809e-06
3.32451e-06
3.55401e-06
3.72276e-06
3.82042e-06
3.85308e-06
3.81114e-06
3.7256e-06
3.57065e-06
3.38438e-06
3.14755e-06
2.90406e-06
2.61889e-06
2.35135e-06
2.07324e-06
1.79332e-06
1.53754e-06
1.28027e-06
1.05726e-06
8.46609e-07
6.58872e-07
4.91232e-07
3.51481e-07
2.60245e-07
1.94236e-07
4.16953e-07
4.98082
11.7708
14.301
13.7937
11.8847
9.22826
6.22983
3.38144
1.21485
0.171274
0.0394922
0.00678721
6.14834e-06
7.73508e-05
0.000459513
0.0004094
0.00029766
0.00023254
0.000196322
0.000169303
0.000142236
0.000115507
9.25749e-05
7.43166e-05
5.96593e-05
4.80907e-05
3.84895e-05
3.08137e-05
2.4843e-05
2.00157e-05
1.62166e-05
1.31434e-05
1.06589e-05
8.70534e-06
7.03987e-06
5.69416e-06
4.51874e-06
3.53636e-06
2.61575e-06
1.85374e-06
1.1609e-06
4.86347e-07
2.53878e-07
7.41496e-07
1.24428e-06
1.71814e-06
2.16687e-06
2.55066e-06
2.86458e-06
3.14584e-06
3.35129e-06
3.49874e-06
3.57865e-06
3.59946e-06
3.55259e-06
3.45666e-06
3.30986e-06
3.1272e-06
2.90605e-06
2.67393e-06
2.41209e-06
2.15572e-06
1.90522e-06
1.64622e-06
1.41001e-06
1.17668e-06
9.69282e-07
7.8099e-07
6.10485e-07
4.60176e-07
3.34719e-07
2.63872e-07
2.01194e-07
4.23082e-07
3.4224
9.99584
14.2684
15.2624
14.204
11.9624
9.01983
5.83596
2.96887
0.952255
0.141233
0.025918
0.00444142
5.39979e-06
3.91525e-05
0.000364371
0.000410376
0.000303
0.000214557
0.000161086
0.000133125
0.000113059
9.48296e-05
7.71e-05
6.16284e-05
4.94455e-05
3.9772e-05
3.19148e-05
2.57498e-05
2.07551e-05
1.67668e-05
1.36008e-05
1.09745e-05
8.9382e-06
7.23422e-06
5.81188e-06
4.61176e-06
3.59687e-06
2.67941e-06
1.86158e-06
1.18762e-06
5.17766e-07
1.38262e-07
6.49871e-07
1.15381e-06
1.6001e-06
2.02429e-06
2.39385e-06
2.68375e-06
2.93979e-06
3.12698e-06
3.25644e-06
3.32326e-06
3.33496e-06
3.28655e-06
3.18821e-06
3.05009e-06
2.87587e-06
2.67143e-06
2.45345e-06
2.21479e-06
1.97446e-06
1.74821e-06
1.51139e-06
1.29509e-06
1.0843e-06
8.9422e-07
7.25574e-07
5.7195e-07
4.3763e-07
3.26365e-07
2.70997e-07
2.13801e-07
4.29055e-07
2.65173
8.16762
13.0595
15.4271
15.5596
14.1633
11.7235
8.63397
5.40288
2.62241
0.795494
0.132878
0.0183141
0.00483245
2.09364e-06
2.46873e-05
0.000134192
0.000276613
0.000290003
0.000221097
0.000153741
0.000112022
9.07478e-05
7.65882e-05
6.38792e-05
5.18855e-05
4.15361e-05
3.31363e-05
2.6693e-05
2.15134e-05
1.73668e-05
1.40465e-05
1.13162e-05
9.19296e-06
7.42168e-06
5.94754e-06
4.71475e-06
3.67411e-06
2.74504e-06
1.92027e-06
1.24627e-06
5.80212e-07
2.88741e-08
5.3896e-07
1.03541e-06
1.45812e-06
1.8564e-06
2.2084e-06
2.47991e-06
2.71254e-06
2.88592e-06
3.00082e-06
3.05906e-06
3.06537e-06
3.01554e-06
2.92468e-06
2.79504e-06
2.63423e-06
2.44619e-06
2.24596e-06
2.02832e-06
1.80878e-06
1.60447e-06
1.38922e-06
1.19328e-06
1.0031e-06
8.30896e-07
6.79586e-07
5.41665e-07
4.21709e-07
3.23795e-07
2.79208e-07
2.29193e-07
4.34156e-07
2.36152
6.66097
11.3313
14.5187
15.79
15.4657
13.8959
11.3553
8.21927
5.04362
2.40381
0.749072
0.145802
0.021891
0.00817541
2.91181e-05
6.81071e-06
1.78596e-05
6.92672e-05
0.000171213
0.000195588
0.000159643
0.000109553
7.77697e-05
6.19388e-05
5.18879e-05
4.31681e-05
3.4895e-05
2.79222e-05
2.23038e-05
1.79308e-05
1.44718e-05
1.16463e-05
9.43498e-06
7.59326e-06
6.07031e-06
4.81217e-06
3.74932e-06
2.80854e-06
1.98801e-06
1.31865e-06
6.61698e-07
1.50315e-07
4.52106e-07
9.18973e-07
1.31815e-06
1.6901e-06
2.01844e-06
2.27008e-06
2.4827e-06
2.64139e-06
2.74381e-06
2.79512e-06
2.79874e-06
2.7495e-06
2.66712e-06
2.54756e-06
2.40182e-06
2.23098e-06
2.04985e-06
1.85307e-06
1.65538e-06
1.47241e-06
1.27788e-06
1.10213e-06
9.31477e-07
7.76897e-07
6.41703e-07
5.1845e-07
4.11825e-07
3.26175e-07
2.90084e-07
2.47387e-07
4.40326e-07
2.31391
5.50116
9.54308
12.9424
15.0088
15.7048
15.1732
13.5293
10.9622
7.87695
4.82571
2.34852
0.818068
0.202812
0.0426756
0.000792023
0.00429041
0.00051041
3.35202e-06
1.01683e-05
2.06837e-05
9.68512e-05
0.000126815
0.000114147
7.89614e-05
5.42682e-05
4.22051e-05
3.48764e-05
2.89349e-05
2.34247e-05
1.86816e-05
1.49098e-05
1.19293e-05
9.6415e-06
7.75082e-06
6.18402e-06
4.90205e-06
3.81979e-06
2.87644e-06
2.06017e-06
1.40174e-06
7.66837e-07
3.17857e-07
4.30565e-07
8.31908e-07
1.1992e-06
1.54166e-06
1.84331e-06
2.07205e-06
2.26579e-06
2.40821e-06
2.49846e-06
2.54269e-06
2.54433e-06
2.49791e-06
2.42153e-06
2.313e-06
2.18184e-06
2.02882e-06
1.86631e-06
1.69071e-06
1.51382e-06
1.35176e-06
1.17726e-06
1.02085e-06
8.68939e-07
7.31195e-07
6.11268e-07
5.01778e-07
4.07461e-07
3.33059e-07
3.03864e-07
2.68136e-07
4.48051e-07
2.41534
4.63635
7.92118
11.09
13.5085
14.9534
15.3871
14.7765
13.1248
10.6205
7.66624
4.79059
2.48053
1.02296
0.345155
0.105001
0.0295123
0.00468735
0.00474737
0.00111273
9.52628e-07
4.83585e-06
1.18862e-07
4.88525e-05
7.94696e-05
8.0873e-05
5.68774e-05
3.81184e-05
2.85426e-05
2.31631e-05
1.91305e-05
1.55338e-05
1.2356e-05
9.85988e-06
7.8731e-06
6.27669e-06
4.984e-06
3.89078e-06
2.94987e-06
2.14201e-06
1.49751e-06
8.94892e-07
4.95509e-07
4.84063e-07
7.88981e-07
1.10992e-06
1.41619e-06
1.69015e-06
1.89543e-06
2.06863e-06
2.19465e-06
2.27259e-06
2.30915e-06
2.30834e-06
2.26501e-06
2.19371e-06
2.09578e-06
1.97803e-06
1.84249e-06
1.69749e-06
1.54247e-06
1.38513e-06
1.24298e-06
1.08787e-06
9.49662e-07
8.15499e-07
6.9354e-07
5.87917e-07
4.91182e-07
4.07896e-07
3.43679e-07
3.19629e-07
2.90779e-07
4.56734e-07
2.55752
3.99381
6.51747
9.22364
11.6203
13.4521
14.5953
14.9225
14.305
12.7268
10.368
7.6186
4.96096
2.81648
1.3989
0.631792
0.2721
0.111167
0.0373925
0.00848599
0.00555883
0.00146123
5.18299e-09
2.25732e-06
5.01209e-06
1.66825e-05
4.53065e-05
5.38991e-05
3.93401e-05
2.64985e-05
1.90537e-05
1.5051e-05
1.23745e-05
1.01272e-05
8.09291e-06
6.39061e-06
5.04291e-06
3.94319e-06
3.02002e-06
2.23115e-06
1.60226e-06
1.03516e-06
6.74596e-07
5.9411e-07
7.96899e-07
1.05818e-06
1.31987e-06
1.56311e-06
1.74488e-06
1.89473e-06
2.00426e-06
2.06961e-06
2.09788e-06
2.09355e-06
2.05225e-06
1.98601e-06
1.89756e-06
1.79193e-06
1.67271e-06
1.54418e-06
1.40845e-06
1.26961e-06
1.14605e-06
1.0095e-06
8.88371e-07
7.70821e-07
6.63592e-07
5.71142e-07
4.86053e-07
4.12434e-07
3.57352e-07
3.36756e-07
3.1472e-07
4.65921e-07
2.60706
3.4628
5.28175
7.44583
9.59127
11.4894
13.0163