/*--------------------------------*- C++ -*----------------------------------*\
| =========                 |                                                 |
| \\      /  F ield         | OpenFOAM: The Open Source CFD Toolbox           |
|  \\    /   O peration     | Version:  2312                                  |
|   \\  /    A nd           | Website:  www.openfoam.com                      |
|    \\/     M anipulation  |                                                 |
\*---------------------------------------------------------------------------*/
FoamFile
{
    version     2.0;
    format      ascii;
    arch        "LSB;label=32;scalar=64";
    class       volVectorField;
    location    "550";
    object      momentError;
}
// * * * * * * * * * * * * * * * * * * * * * * * * * * * * * * * * * * * * * //

dimensions      [0 1 -2 0 0 0 0];

internalField   nonuniform List<vector> 
11040
(
(0.965535 -2.66627 -6.33612e-16)
(-0.353076 -2.32945 -3.32042e-16)
(-0.219954 0.219384 4.72617e-15)
(0.12224 0.105376 6.79531e-16)
(0.191791 0.016372 3.79018e-15)
(0.194622 0.0694372 -2.50456e-15)
(0.188381 0.0573135 -5.95885e-15)
(0.183889 0.0522763 -1.1106e-15)
(0.175209 0.0461837 -3.98694e-16)
(0.162925 0.0397438 2.13677e-15)
(0.153574 0.0322938 1.03062e-15)
(0.148144 0.0272749 -5.70619e-16)
(0.139865 0.0227081 -9.68758e-16)
(0.131913 0.0170989 6.92183e-16)
(0.126832 0.0129549 -4.05447e-16)
(0.121336 0.00879446 -9.88561e-16)
(0.116667 0.00498546 7.57165e-16)
(0.115591 0.00200221 6.96778e-16)
(0.115288 -0.00062843 -2.56048e-16)
(0.115455 -0.00304315 -5.43126e-17)
(0.114616 -0.00521143 5.78766e-16)
(0.120111 -0.00686938 -3.12261e-16)
(0.123119 -0.00828634 2.5957e-16)
(0.124751 -0.00998712 1.31191e-16)
(0.126107 -0.0119962 -1.33563e-15)
(0.131842 -0.0146516 -1.00698e-15)
(0.143429 -0.0187541 -4.80396e-16)
(0.167447 -0.0246933 -3.41523e-16)
(0.211567 -0.0336309 -1.12552e-15)
(0.26438 -0.0424916 4.89665e-16)
(0.353425 -0.0620833 1.11835e-15)
(0.517152 -0.0762347 2.39295e-15)
(0.656559 0.00436092 2.93227e-15)
(0.867385 0.229825 -2.78239e-16)
(0.935038 0.180955 1.75415e-15)
(0.693094 -0.349979 6.1368e-16)
(0.622366 -0.506059 1.25467e-15)
(0.691536 -0.171818 -2.47258e-16)
(0.342648 -0.0702842 -1.1703e-15)
(0.345329 0.0203877 -1.10303e-15)
(1.87714 0.050713 -1.2306e-15)
(0.828533 -2.03253 7.9417e-16)
(-2.47552 -3.16671 2.88639e-15)
(-2.12336 -0.831997 6.19142e-15)
(0.114453 0.153461 -1.13684e-15)
(0.267398 0.243537 -4.08569e-16)
(0.218987 0.0678813 -3.7816e-17)
(0.217032 0.0607534 1.76691e-15)
(0.20663 0.0456568 9.11028e-16)
(0.208577 0.0464195 -1.67599e-16)
(0.198048 0.0442537 -7.912e-16)
(0.188402 0.0383633 1.72227e-15)
(0.185123 0.0312294 1.20507e-15)
(0.177139 0.0288669 1.32783e-15)
(0.170067 0.0228988 -4.26187e-17)
(0.164973 0.0179269 -2.26814e-16)
(0.161587 0.013452 4.25357e-16)
(0.162138 0.00831882 3.84672e-16)
(0.163276 0.00397822 3.71457e-16)
(0.164717 -0.000500077 -1.90239e-17)
(0.165527 -0.00476651 -8.64343e-17)
(0.164153 -0.00834004 -2.24934e-16)
(0.16968 -0.0108943 3.63273e-16)
(0.175064 -0.0130453 2.29697e-16)
(0.182809 -0.0160274 3.20548e-16)
(0.196039 -0.0198013 -3.67158e-16)
(0.221331 -0.0250587 -6.63637e-16)
(0.262874 -0.0333367 6.92435e-16)
(0.321787 -0.0451636 5.21988e-16)
(0.401391 -0.0624806 -6.77948e-16)
(0.503069 -0.0849523 -9.80651e-16)
(0.602361 -0.109689 -9.34892e-16)
(0.680057 -0.135409 -1.84896e-15)
(0.830851 -0.170486 -7.75966e-17)
(0.973108 -0.204091 1.11062e-15)
(1.10302 -0.267444 -7.52547e-16)
(1.26278 -0.337574 2.00396e-16)
(1.41379 -0.30511 -1.1954e-16)
(1.59015 -0.299095 8.25043e-16)
(1.46129 -0.29012 -6.29524e-16)
(1.37308 -0.233504 -5.41845e-16)
(2.98775 0.0694666 1.12874e-16)
(0.276354 -1.78839 1.51453e-16)
(-1.63305 -1.64328 -1.33055e-15)
(-2.50857 -2.0628 -7.56334e-15)
(-2.14205 -2.49596 2.81538e-15)
(-0.381993 -0.570718 1.05462e-15)
(0.264839 0.258548 4.23205e-16)
(0.221382 0.110582 1.64188e-15)
(0.200938 0.0597947 3.8621e-16)
(0.183438 0.0253587 -4.50974e-16)
(0.187882 0.0322416 -9.20096e-17)
(0.183757 0.0343707 -1.35039e-15)
(0.184909 0.0269083 5.62113e-16)
(0.179059 0.0271919 -3.29156e-17)
(0.172678 0.0219534 3.07271e-16)
(0.167975 0.0170646 7.50585e-16)
(0.164377 0.0136789 -1.94277e-17)
(0.162628 0.00883419 -2.85215e-16)
(0.16158 0.00518424 -5.92331e-17)
(0.160464 0.00104579 8.61738e-18)
(0.158978 -0.00277883 1.44544e-16)
(0.156137 -0.00617223 2.63744e-16)
(0.160107 -0.008636 -9.66405e-17)
(0.165086 -0.0110362 1.26843e-16)
(0.173907 -0.014967 -2.88631e-16)
(0.18921 -0.020668 1.81979e-16)
(0.21527 -0.028405 5.46571e-16)
(0.254894 -0.0396392 -2.79143e-16)
(0.310868 -0.0544313 -3.46463e-16)
(0.386262 -0.0748992 1.85637e-16)
(0.482408 -0.100303 6.96465e-16)
(0.60488 -0.130288 -3.18223e-16)
(0.771459 -0.170898 -2.57778e-16)
(0.971443 -0.222106 -1.75309e-17)
(1.19187 -0.280517 1.30576e-16)
(1.42859 -0.344838 -5.69156e-16)
(1.65056 -0.392531 -1.45692e-15)
(1.85508 -0.40581 6.95659e-17)
(2.14513 -0.42172 5.04968e-16)
(2.15704 -0.424234 7.89953e-17)
(2.13103 -0.323923 7.94799e-16)
(3.88695 0.0886598 1.21136e-16)
(0.0348862 -1.42229 -2.69362e-16)
(-0.695591 -1.66811 2.75684e-17)
(-1.37687 -1.08966 1.7235e-15)
(-2.2524 -1.95113 -8.1325e-16)
(-2.57225 -2.79162 -1.57999e-15)
(-1.06708 -1.23464 2.57369e-15)
(0.114088 0.112774 9.99135e-16)
(0.197098 0.124815 3.97689e-16)
(0.158218 0.0393886 -2.66171e-16)
(0.162888 0.0275351 5.03612e-16)
(0.152242 0.0180925 7.84748e-16)
(0.160044 0.0172412 -8.95945e-16)
(0.161573 0.0215243 7.6687e-16)
(0.156318 0.0190054 4.12357e-16)
(0.153304 0.0138536 1.11148e-16)
(0.149029 0.0114942 -4.0002e-16)
(0.145887 0.00684478 -3.75005e-16)
(0.143014 0.00415003 -2.11988e-16)
(0.140067 0.000715708 3.9954e-17)
(0.136932 -0.00195787 -5.32199e-17)
(0.132764 -0.00431881 -3.21657e-17)
(0.134397 -0.00612779 -8.21358e-17)
(0.137778 -0.00840715 -1.80524e-16)
(0.145208 -0.0127404 -3.92145e-18)
(0.158787 -0.0198278 -7.58673e-16)
(0.182326 -0.0296393 -3.15139e-16)
(0.219799 -0.0439951 3.96923e-16)
(0.275757 -0.0630752 2.57488e-16)
(0.354596 -0.0890732 6.20031e-16)
(0.459736 -0.12144 -3.76899e-16)
(0.599159 -0.161543 4.97616e-16)
(0.786231 -0.212378 -5.38562e-16)
(1.01054 -0.273931 -4.3772e-16)
(1.26349 -0.343405 4.41405e-16)
(1.54259 -0.416419 -1.20361e-16)
(1.82144 -0.480329 -8.68502e-17)
(2.08785 -0.517945 -5.41675e-16)
(2.4514 -0.514613 4.5107e-16)
(2.4971 -0.571101 -2.08123e-16)
(2.83064 -0.371269 -8.30428e-17)
(4.45533 0.0392538 6.71303e-16)
(-0.0939317 -1.17271 2.17681e-16)
(-0.376116 -1.27938 -1.40928e-16)
(-1.05947 -1.03547 -1.31384e-16)
(-1.3704 -0.451414 8.73962e-16)
(-2.1872 -1.42784 1.98104e-16)
(-2.81505 -2.75106 -4.59328e-16)
(-1.79325 -1.86888 -6.00478e-16)
(-0.312429 -0.341568 -1.35152e-15)
(0.194819 0.189737 2.65933e-16)
(0.128858 0.0573172 -9.45544e-17)
(0.128908 0.0250445 4.35647e-16)
(0.116891 -0.000803017 1.97648e-16)
(0.128207 0.00924301 -3.72781e-16)
(0.13 0.0155639 -6.15896e-16)
(0.12959 0.00993326 2.0565e-16)
(0.126639 0.00979261 2.66665e-18)
(0.123916 0.005237 -1.65311e-16)
(0.120757 0.00333037 -2.39661e-16)
(0.117226 0.000363921 -4.5228e-17)
(0.113351 -0.00143459 4.73816e-17)
(0.108156 -0.0030208 1.32601e-16)
(0.107292 -0.00428188 -2.59169e-16)
(0.108001 -0.00657285 -5.61513e-17)
(0.112272 -0.0111407 4.12994e-16)
(0.122234 -0.0191663 2.39198e-16)
(0.141953 -0.0308849 -2.55511e-16)
(0.176086 -0.0484059 2.43415e-16)
(0.229654 -0.0722333 1.87957e-16)
(0.307522 -0.104359 -3.57492e-16)
(0.413532 -0.144236 2.22381e-16)
(0.555546 -0.193556 -3.3903e-17)
(0.747677 -0.255815 7.41171e-16)
(0.980818 -0.329545 1.61072e-16)
(1.24886 -0.41105 -6.66291e-17)
(1.55093 -0.494679 1.32881e-16)
(1.86385 -0.571302 2.9339e-16)
(2.17347 -0.621642 -1.21106e-16)
(2.57786 -0.608458 2.03356e-16)
(2.78484 -0.673214 7.92081e-17)
(3.21068 -0.490611 -2.17239e-16)
(4.71955 -0.0977994 -1.97783e-16)
(-0.185036 -1.0153 -3.84983e-17)
(-0.303572 -0.91074 2.61313e-17)
(-0.739153 -0.994256 6.39239e-17)
(-1.03961 -0.673185 2.39855e-16)
(-1.23974 -0.112872 -9.05911e-16)
(-1.96217 -0.844605 1.19919e-16)
(-2.8125 -2.33702 -5.52819e-16)
(-2.42845 -2.29781 -8.70826e-16)
(-0.968385 -0.960369 1.64199e-16)
(0.0330458 0.0624349 -3.01781e-16)
(0.129664 0.109664 5.49929e-18)
(0.0850588 0.0182513 5.65165e-18)
(0.093348 0.00825074 -1.44275e-17)
(0.0891595 9.32101e-05 -3.28374e-16)
(0.0975713 0.00241699 1.08142e-17)
(0.102319 0.00850987 -1.81442e-16)
(0.101004 0.003897 -1.1005e-16)
(0.0994589 0.00313463 -8.4282e-17)
(0.0966769 0.000600741 -3.93431e-17)
(0.0931408 -0.000387926 5.56443e-17)
(0.0875653 -0.00132141 5.17236e-17)
(0.0846419 -0.00204661 3.13551e-17)
(0.0825601 -0.00442231 -7.2747e-18)
(0.083313 -0.00932264 -1.67883e-16)
(0.0891524 -0.0183784 1.26682e-16)
(0.10421 -0.0321959 4.80252e-16)
(0.13331 -0.0530144 -3.99843e-16)
(0.181602 -0.0817244 -4.51048e-16)
(0.254085 -0.120033 -1.68713e-16)
(0.354993 -0.167533 1.75239e-16)
(0.490753 -0.225875 3.53179e-16)
(0.677755 -0.299805 -1.09614e-16)
(0.908119 -0.385913 -2.30933e-16)
(1.17765 -0.479385 -3.60882e-16)
(1.48671 -0.574153 -1.47494e-16)
(1.8157 -0.663019 5.74934e-16)
(2.15371 -0.724897 2.82791e-16)
(2.58508 -0.713708 -4.70196e-17)
(2.91972 -0.783387 4.1737e-16)
(3.36704 -0.639245 -2.76722e-16)
(4.72781 -0.341013 -1.83561e-16)
(-0.206778 -0.847814 6.78431e-17)
(-0.312477 -0.763402 -3.50555e-17)
(-0.476505 -0.693188 -9.33788e-17)
(-0.769123 -0.814709 -4.03667e-16)
(-0.969005 -0.47078 -3.47651e-16)
(-1.08716 0.14187 3.04464e-16)
(-1.61723 -0.201889 3.81387e-16)
(-2.553 -1.66438 -1.18356e-16)
(-2.83211 -2.46907 8.25005e-16)
(-1.74089 -1.5528 -4.53764e-16)
(-0.463785 -0.382548 2.46166e-16)
(0.116041 0.14322 -5.84998e-17)
(0.055809 0.0409874 5.87167e-16)
(0.0573204 0.00979174 -6.47509e-16)
(0.0604303 -0.00207601 1.33696e-16)
(0.0655559 -0.00369113 -1.61673e-16)
(0.0736997 -0.000520438 -6.05279e-18)
(0.0798828 0.00301803 8.39038e-17)
(0.0795444 0.00112265 -1.59577e-18)
(0.0779071 0.00115375 -1.90925e-16)
(0.0730197 0.000813779 1.86917e-16)
(0.0688836 0.000681897 -1.44747e-16)
(0.0643404 -0.0017061 -1.24086e-16)
(0.0615374 -0.00690619 1.98095e-16)
(0.0628225 -0.0169538 -1.38203e-16)
(0.0722018 -0.0328964 -1.41492e-16)
(0.0943803 -0.0570626 -1.10123e-16)
(0.134503 -0.0907491 -8.90219e-17)
(0.197669 -0.135335 -7.76801e-18)
(0.288616 -0.19071 1.76963e-16)
(0.411375 -0.257701 6.32298e-17)
(0.585308 -0.34355 1.61605e-16)
(0.803655 -0.442441 -2.20696e-16)
(1.06415 -0.548534 -3.70849e-16)
(1.36807 -0.655836 -1.94025e-16)
(1.70024 -0.758056 4.15895e-16)
(2.05469 -0.834302 1.67759e-17)
(2.49435 -0.844447 -5.91802e-18)
(2.90862 -0.913737 1.74223e-16)
(3.3653 -0.72441 2.42488e-16)
(4.50619 -0.719491 -1.71762e-16)
(-0.212449 -0.691046 -2.26259e-17)
(-0.306562 -0.641983 7.05731e-17)
(-0.372048 -0.505035 -2.07516e-17)
(-0.554272 -0.576942 8.89276e-18)
(-0.76683 -0.629602 1.32536e-16)
(-0.903258 -0.334843 6.08273e-16)
(-0.936443 0.274067 -4.89782e-16)
(-1.22403 0.27887 -8.13822e-16)
(-2.07098 -0.800031 1.51755e-16)
(-2.8278 -2.07473 4.40158e-16)
(-2.43417 -2.02569 1.46223e-15)
(-1.18895 -0.96952 -1.64901e-15)
(-0.187939 -0.0712401 6.78872e-16)
(0.085891 0.119663 -1.40812e-16)
(0.0251697 0.0222922 -3.94766e-16)
(0.0331636 0.00166298 4.55106e-16)
(0.0381448 -0.00662893 2.8024e-17)
(0.048067 -0.00639151 3.70165e-16)
(0.0580656 -0.00150095 -2.18965e-16)
(0.0641005 0.00206091 -2.1047e-16)
(0.0626726 0.00293355 2.68832e-16)
(0.0595019 0.00388854 -7.62168e-17)
(0.0538486 0.00183002 -1.82484e-16)
(0.0479698 -0.00328888 5.77581e-17)
(0.0441676 -0.0140573 7.71668e-17)
(0.0465039 -0.0319138 -5.93715e-17)
(0.0596944 -0.0592215 -1.04161e-16)
(0.0887672 -0.0976945 2.31488e-16)
(0.138861 -0.148658 2.62997e-16)
(0.21519 -0.212239 -1.46102e-16)
(0.321014 -0.287716 -2.24686e-16)
(0.473262 -0.385465 -8.68337e-17)
(0.671366 -0.49807 1.68555e-16)
(0.913847 -0.618452 9.88204e-17)
(1.20265 -0.740918 -3.93193e-17)
(1.52741 -0.85907 -1.15512e-16)
(1.88582 -0.954137 2.68326e-16)
(2.31726 -0.995996 -2.68086e-16)
(2.77142 -1.06986 5.20886e-17)
(3.2686 -0.987899 5.85787e-17)
(4.25852 -1.0049 1.78403e-16)
(-0.204309 -0.552781 -4.56646e-17)
(-0.286008 -0.523434 1.22143e-17)
(-0.325065 -0.416791 -1.39926e-17)
(-0.411647 -0.403683 -1.68228e-16)
(-0.568213 -0.451329 6.0749e-17)
(-0.730386 -0.478276 -6.05875e-18)
(-0.830804 -0.26013 -1.29708e-16)
(-0.813537 0.290273 4.99723e-16)
(-0.924574 0.593791 -2.2667e-16)
(-1.52236 -0.0473025 6.55378e-16)
(-2.43489 -1.31875 5.12988e-17)
(-2.7697 -2.03989 -2.92072e-16)
(-1.99902 -1.55512 7.99648e-17)
(-0.835375 -0.60529 -2.97132e-16)
(-0.079245 0.0248922 -4.19568e-16)
(0.0452737 0.0812759 3.54354e-17)
(0.00542427 0.0106099 1.8351e-16)
(0.016423 -0.00419287 3.01302e-16)
(0.0255294 -0.00814125 -3.59489e-17)
(0.0370334 -0.00560409 -2.55217e-16)
(0.0467763 0.001777 2.39314e-16)
(0.0508263 0.00661377 1.41763e-17)
(0.0475775 0.00607104 -4.5833e-17)
(0.0408791 0.0018827 1.02889e-16)
(0.0330935 -0.00883991 1.39763e-16)
(0.0281334 -0.0276838 1.75095e-16)
(0.0304297 -0.0574646 3.23613e-17)
(0.0452054 -0.100387 1.79402e-17)
(0.0780763 -0.157887 -1.09663e-16)
(0.134931 -0.229968 6.53048e-18)
(0.219883 -0.315439 -1.35209e-16)
(0.34229 -0.423484 4.00845e-17)
(0.511721 -0.551338 -6.18783e-17)
(0.726885 -0.688601 -8.2843e-17)
(0.990479 -0.829828 5.85297e-17)
(1.29681 -0.967886 7.92304e-17)
(1.64512 -1.08693 3.19902e-17)
(2.05432 -1.16485 1.92007e-17)
(2.51538 -1.25334 -8.57947e-17)
(3.02761 -1.26246 1.61259e-16)
(3.88034 -1.29594 2.48737e-17)
(-0.188961 -0.432368 1.52242e-16)
(-0.258788 -0.417082 -4.45738e-17)
(-0.292556 -0.341802 -1.44374e-16)
(-0.33043 -0.310779 1.67989e-16)
(-0.430249 -0.317124 9.18509e-18)
(-0.552715 -0.336537 2.0309e-17)
(-0.677486 -0.348105 4.53524e-16)
(-0.75522 -0.207952 -8.80229e-16)
(-0.722348 0.219128 -2.05316e-16)
(-0.702138 0.673853 1.53884e-15)
(-1.01021 0.525039 3.64257e-17)
(-1.77176 -0.440735 -1.2445e-16)
(-2.52913 -1.5235 -6.75854e-16)
(-2.52168 -1.78177 4.54182e-16)
(-1.63745 -1.16927 -1.07591e-15)
(-0.618866 -0.378365 2.33602e-16)
(-0.049962 0.0516039 -4.58711e-17)
(0.0202546 0.0596472 2.65822e-16)
(-0.00489367 0.00477964 -1.10659e-16)
(0.00824633 -0.00524619 -2.92435e-16)
(0.0196673 -0.00403364 1.85639e-16)
(0.0297023 0.00148433 -6.16328e-17)
(0.0349935 0.00693376 -8.1006e-17)
(0.0336406 0.00756829 1.14717e-16)
(0.0259124 -0.000515787 1.10093e-16)
(0.0159541 -0.0185944 -9.60963e-17)
(0.00804192 -0.0494636 5.45993e-17)
(0.00744304 -0.0955502 1.11836e-16)
(0.0199846 -0.158656 4.35781e-17)
(0.0520159 -0.239363 -6.31027e-17)
(0.109039 -0.337105 5.40864e-17)
(0.194654 -0.45426 6.90807e-17)
(0.325549 -0.599301 6.8636e-17)
(0.502157 -0.756492 6.38922e-17)
(0.727791 -0.921045 1.28977e-16)
(1.00108 -1.08406 -1.41919e-16)
(1.32196 -1.2321 4.9256e-17)
(1.69413 -1.34639 6.49204e-18)
(2.1275 -1.45961 5.32409e-18)
(2.61359 -1.52979 -2.0195e-17)
(3.31991 -1.58579 -2.44199e-17)
(-0.16963 -0.33081 2.99658e-17)
(-0.227971 -0.3236 1.05756e-16)
(-0.257055 -0.272247 8.65589e-17)
(-0.28591 -0.246787 -4.04313e-17)
(-0.329426 -0.229711 -4.73766e-17)
(-0.422273 -0.233905 1.1417e-16)
(-0.519795 -0.233605 9.22913e-17)
(-0.616374 -0.234781 -2.74686e-16)
(-0.679931 -0.158852 3.67828e-16)
(-0.659889 0.12992 -5.50838e-16)
(-0.576183 0.575998 -1.11801e-15)
(-0.637337 0.786215 -2.64981e-16)
(-1.11273 0.332712 3.98133e-16)
(-1.91075 -0.667523 -4.72597e-16)
(-2.47262 -1.4844 -4.49413e-16)
(-2.24792 -1.50167 6.17591e-16)
(-1.38551 -0.91171 -1.21428e-16)
(-0.507169 -0.267054 6.70345e-16)
(-0.0521309 0.0504981 6.55304e-17)
(0.0103997 0.0513864 -3.66808e-16)
(-0.00763199 0.00682263 4.15168e-17)
(0.00275638 0.000470698 -3.47831e-17)
(0.0120525 0.00333936 -2.06693e-17)
(0.0159131 0.00675275 -1.04132e-16)
(0.0132524 0.00552918 2.34106e-16)
(0.00405734 -0.0059389 -1.31103e-17)
(-0.00965 -0.0327182 -9.00373e-17)
(-0.0233087 -0.0780364 6.4174e-19)
(-0.0312423 -0.144453 -3.08408e-17)
(-0.0270484 -0.233171 2.7018e-17)
(-0.00369154 -0.343134 -1.44186e-16)
(0.0442091 -0.470859 2.73237e-17)
(0.120617 -0.630801 8.60281e-17)
(0.242475 -0.812363 1.25486e-16)
(0.412103 -1.00573 9.20572e-17)
(0.631545 -1.19923 -8.92473e-17)
(0.900899 -1.38085 -1.06906e-16)
(1.21468 -1.53081 -6.99999e-17)
(1.58622 -1.67158 -1.81552e-16)
(2.00505 -1.77248 -1.8004e-16)
(2.5608 -1.84018 -1.10453e-16)
(-0.148231 -0.247088 7.88673e-17)
(-0.196524 -0.244004 8.31641e-17)
(-0.221026 -0.209168 -1.51196e-16)
(-0.247725 -0.192103 -4.41019e-17)
(-0.271728 -0.173514 1.25585e-16)
(-0.324206 -0.166493 -3.56653e-17)
(-0.39899 -0.160351 -1.02961e-16)
(-0.475634 -0.147243 3.49513e-17)
(-0.55011 -0.139181 1.01295e-15)
(-0.60603 -0.102619 -3.47077e-16)
(-0.604682 0.0609418 -8.4534e-16)
(-0.520933 0.404978 1.02708e-15)
(-0.449803 0.760658 4.83724e-16)
(-0.617893 0.750742 6.76197e-17)
(-1.17796 0.153923 1.32795e-16)
(-1.93319 -0.746985 -3.47954e-16)
(-2.31745 -1.32297 -1.16625e-16)
(-2.03411 -1.2747 2.1453e-16)
(-1.24754 -0.762419 5.26995e-16)
(-0.476318 -0.231405 -7.26339e-16)
(-0.0724198 0.0385902 1.85942e-17)
(-0.0047186 0.0569048 -1.58325e-17)
(-0.0106378 0.0238979 -5.97126e-17)
(-0.00988057 0.0102917 -3.99022e-17)
(-0.00752849 0.0080698 1.63678e-16)
(-0.0130269 0.00339074 8.49285e-17)
(-0.027717 -0.0137198 -1.47647e-16)
(-0.0489231 -0.0496236 -7.4692e-17)
(-0.0732437 -0.109943 2.51086e-17)
(-0.0954067 -0.197748 -2.93667e-17)
(-0.108222 -0.313437 5.8966e-17)
(-0.104725 -0.454986 -3.42749e-17)
(-0.083139 -0.623571 5.33427e-17)
(-0.0351071 -0.82987 -1.05331e-17)
(0.0554703 -1.0546 -1.11859e-16)
(0.191266 -1.28369 -2.42625e-17)
(0.374068 -1.50536 2.17441e-17)
(0.604231 -1.69042 6.22456e-17)
(0.880794 -1.85739 -2.05962e-17)
(1.19345 -1.97214 -4.48142e-17)
(1.5946 -2.0358 -1.75764e-17)
(-0.126825 -0.179706 -6.52333e-17)
(-0.166123 -0.178436 4.22013e-17)
(-0.186345 -0.154699 -8.43128e-18)
(-0.210057 -0.143375 -1.43392e-16)
(-0.231775 -0.130035 1.54641e-17)
(-0.256487 -0.117005 7.00549e-17)
(-0.306912 -0.110665 -1.21002e-16)
(-0.366133 -0.0979445 -2.17326e-16)
(-0.425534 -0.0776878 1.96037e-17)
(-0.483469 -0.0611391 -2.75877e-16)
(-0.532463 -0.0421992 3.94388e-16)
(-0.544685 0.0353074 5.25328e-17)
(-0.49011 0.249086 -2.57254e-16)
(-0.384471 0.578863 -2.83136e-16)
(-0.358354 0.810815 3.30664e-16)
(-0.574028 0.711747 4.47128e-16)
(-1.17787 0.0643203 -1.50599e-15)
(-1.84168 -0.700832 1.2274e-15)
(-2.15226 -1.14136 1.97765e-16)
(-1.89038 -1.10527 -5.22085e-16)
(-1.211 -0.697267 3.47427e-16)
(-0.55898 -0.270509 -1.09715e-16)
(-0.164605 0.00305125 -9.69135e-17)
(-0.0527505 0.0770046 -6.24296e-17)
(-0.0371631 0.0626347 2.70948e-16)
(-0.0363249 0.0345965 1.5359e-17)
(-0.0466944 0.00953092 -3.5281e-17)
(-0.0686972 -0.0190632 -1.83619e-16)
(-0.101696 -0.0648326 1.11254e-16)
(-0.142826 -0.136772 2.01721e-16)
(-0.188155 -0.241294 -1.62464e-17)
(-0.231166 -0.380371 -6.96057e-17)
(-0.263887 -0.549741 -2.9504e-17)
(-0.290165 -0.753928 -5.88321e-18)
(-0.300827 -1.00646 -1.15175e-16)
(-0.276978 -1.27611 4.14482e-17)
(-0.214068 -1.54235 -1.5227e-18)
(-0.104165 -1.76505 -5.01366e-17)
(0.0378075 -1.96269 4.0428e-18)
(0.217575 -2.09108 3.78476e-17)
(0.46443 -2.15613 4.37456e-17)
(-0.106384 -0.126652 7.61125e-17)
(-0.137882 -0.125804 -5.78733e-17)
(-0.154271 -0.109557 -6.8611e-17)
(-0.174528 -0.101654 -2.27428e-17)
(-0.19362 -0.0922605 1.65233e-16)
(-0.211364 -0.0814538 -2.03717e-17)
(-0.235808 -0.0704623 6.01315e-17)
(-0.281705 -0.0625503 1.74576e-16)
(-0.327974 -0.0467671 7.26228e-17)
(-0.373908 -0.0239734 -5.31549e-16)
(-0.418467 -0.00153699 -2.88279e-16)
(-0.45689 0.0148571 -8.84964e-17)
(-0.478221 0.0479831 -5.27448e-16)
(-0.456187 0.154729 3.94431e-16)
(-0.373478 0.377779 1.39872e-15)
(-0.276815 0.647478 -7.53798e-16)
(-0.274646 0.801393 -2.05315e-16)
(-0.510357 0.67615 3.01947e-16)
(-1.08709 0.0912419 -3.35344e-16)
(-1.68008 -0.559863 9.54973e-16)
(-1.98771 -0.949432 -1.73039e-16)
(-1.93412 -1.02717 -4.79114e-16)
(-1.47577 -0.787825 -7.04882e-16)
(-0.907733 -0.446189 3.53311e-16)
(-0.449379 -0.130029 3.91888e-16)
(-0.2215 0.049445 3.61954e-17)
(-0.148404 0.102744 3.52978e-17)
(-0.132642 0.0823657 1.72181e-17)
(-0.14634 0.0244746 1.01053e-17)
(-0.183316 -0.0529956 1.05523e-16)
(-0.235346 -0.145886 7.99996e-17)
(-0.300234 -0.258228 -1.47653e-16)
(-0.381726 -0.407022 1.79446e-17)
(-0.465946 -0.59115 -1.923e-17)
(-0.564348 -0.816559 -7.13006e-17)
(-0.670736 -1.08583 4.97214e-18)
(-0.750584 -1.38338 1.12614e-16)
(-0.794732 -1.65184 -5.91626e-17)
(-0.815894 -1.89598 -3.36571e-17)
(-0.798154 -2.06221 -1.914e-17)
(-0.719161 -2.14505 1.30094e-17)
(-0.0876639 -0.0859463 -2.56752e-17)
(-0.112405 -0.0847541 4.43827e-17)
(-0.12535 -0.073419 1.75543e-17)
(-0.142124 -0.0675314 8.50356e-17)
(-0.158296 -0.0605813 -7.73874e-17)
(-0.173661 -0.052427 3.6049e-17)
(-0.188368 -0.0431551 2.12142e-18)
(-0.216047 -0.0337599 -4.63549e-17)
(-0.251747 -0.0226239 1.80702e-16)
(-0.28785 -0.00596638 1.68997e-16)
(-0.322815 0.0167073 -4.66259e-16)
(-0.354605 0.0414533 8.37812e-16)
(-0.384407 0.0613588 7.44876e-16)
(-0.40712 0.0792936 -7.37326e-16)
(-0.407407 0.123143 -4.62976e-16)
(-0.36361 0.238933 -3.53826e-16)
(-0.273061 0.443571 8.23078e-16)
(-0.187568 0.664186 -7.98749e-16)
(-0.195085 0.778837 1.77028e-16)
(-0.410057 0.673037 3.97388e-16)
(-0.922386 0.202435 -2.67931e-16)
(-1.53246 -0.338788 -2.75866e-16)
(-1.94361 -0.742915 1.25051e-16)
(-2.05192 -0.929582 1.84047e-16)
(-1.87234 -0.887027 -3.03536e-16)
(-1.5123 -0.698971 6.57808e-17)
(-1.07658 -0.421377 2.89521e-16)
(-0.714087 -0.163073 -5.0402e-16)
(-0.508784 0.000325482 1.35569e-16)
(-0.429024 0.0580224 1.44876e-16)
(-0.419667 0.0264262 -4.11829e-17)
(-0.457024 -0.0738042 -1.3618e-16)
(-0.530054 -0.219582 4.0422e-17)
(-0.622828 -0.389673 1.77246e-16)
(-0.725425 -0.573382 2.88005e-17)
(-0.842742 -0.775072 -6.83222e-18)
(-1.00947 -1.00094 -5.1484e-17)
(-1.2332 -1.2852 -3.1019e-17)
(-1.43268 -1.55823 -6.84268e-17)
(-1.60973 -1.77515 1.7641e-17)
(-1.72683 -1.9164 5.09369e-17)
(-0.070954 -0.0556393 -3.53782e-17)
(-0.0900676 -0.0538308 4.354e-17)
(-0.0999513 -0.0456629 -3.60077e-17)
(-0.113351 -0.0409 -1.46914e-16)
(-0.126531 -0.0353777 3.29803e-17)
(-0.139393 -0.0289926 -5.31966e-17)
(-0.151869 -0.0215437 -4.3755e-17)
(-0.16628 -0.0128819 2.88597e-17)
(-0.191543 -0.00320763 -4.96332e-17)
(-0.219501 0.0094298 8.46331e-18)
(-0.247116 0.0259435 -3.107e-16)
(-0.272113 0.0467895 2.84026e-16)
(-0.295136 0.0709018 -2.11317e-16)
(-0.316587 0.0935168 -6.89046e-16)
(-0.335546 0.110622 9.34843e-16)
(-0.345486 0.129642 3.67643e-16)
(-0.332074 0.176121 2.04021e-16)
(-0.279133 0.283258 -6.85923e-18)
(-0.189844 0.458391 -1.86185e-16)
(-0.106582 0.645975 -1.51372e-16)
(-0.104731 0.756337 -7.12518e-17)
(-0.288728 0.734127 1.92577e-16)
(-0.690489 0.45021 -3.93512e-16)
(-1.16396 0.0683847 -1.3901e-17)
(-1.62102 -0.325527 1.59335e-16)
(-1.9512 -0.625487 -1.53873e-16)
(-2.07681 -0.765688 -3.99572e-16)
(-2.03654 -0.792275 4.98387e-16)
(-1.84706 -0.70113 5.14853e-16)
(-1.57203 -0.535167 -3.98875e-16)
(-1.30639 -0.362943 -1.19262e-16)
(-1.1278 -0.243414 -6.06273e-17)
(-1.05196 -0.203328 -8.57823e-17)
(-1.0504 -0.241773 2.83755e-16)
(-1.10727 -0.349058 -1.02795e-16)
(-1.20886 -0.50891 -4.77228e-17)
(-1.34156 -0.699324 6.92488e-17)
(-1.47666 -0.889505 -4.63302e-18)
(-1.66042 -1.08779 7.33631e-17)
(-1.86185 -1.27277 6.07881e-17)
(-2.10162 -1.42396 1.25806e-18)
(-0.0560634 -0.0328356 3.11574e-18)
(-0.070625 -0.0306584 5.40725e-17)
(-0.0779629 -0.0246896 2.00477e-17)
(-0.0883309 -0.0206682 -2.1521e-17)
(-0.0987227 -0.0160972 -6.0187e-17)
(-0.109052 -0.0108454 2.75481e-19)
(-0.119303 -0.00478695 4.49978e-17)
(-0.129499 0.00208878 4.38973e-17)
(-0.143547 0.0107169 -2.40028e-18)
(-0.164932 0.0211378 -9.69199e-17)
(-0.186247 0.0341489 -2.37149e-16)
(-0.20612 0.0495945 2.13436e-16)
(-0.224328 0.0681438 -2.77731e-16)
(-0.240504 0.0896195 -2.06807e-16)
(-0.254986 0.111971 3.56297e-16)
(-0.268136 0.13136 2.34213e-16)
(-0.27846 0.146155 3.35138e-16)
(-0.279579 0.163956 -5.79661e-16)
(-0.259793 0.20461 -3.16393e-16)
(-0.205346 0.293389 1.00632e-15)
(-0.118637 0.433915 -5.13416e-16)
(-0.0428669 0.617539 -1.12526e-16)
(-0.0139891 0.763512 1.10375e-16)
(-0.0902088 0.809122 -3.36772e-16)
(-0.300136 0.705029 5.4686e-16)
(-0.589985 0.530974 -3.53259e-16)
(-0.981442 0.243002 -4.38405e-16)
(-1.3425 -0.0585803 2.20729e-16)
(-1.66067 -0.304481 1.61543e-16)
(-1.88447 -0.486395 6.9002e-16)
(-2.01009 -0.593665 -3.97809e-16)
(-2.0433 -0.629175 -3.21491e-16)
(-2.00338 -0.612884 2.07883e-16)
(-1.92504 -0.574389 1.39962e-17)
(-1.87005 -0.553469 -5.2327e-17)
(-1.86855 -0.572903 3.65509e-17)
(-1.92786 -0.640244 3.0248e-18)
(-2.00856 -0.738501 5.01026e-17)
(-2.15086 -0.86434 -5.43421e-17)
(-2.30978 -0.960963 1.54262e-17)
(-2.55619 -1.0726 -2.07765e-17)
(-0.0463164 -0.018419 -2.30173e-17)
(-0.0570869 -0.015562 1.92422e-17)
(-0.0623784 -0.010788 5.05698e-18)
(-0.0700015 -0.00702708 -1.54262e-19)
(-0.0777005 -0.00291088 8.09733e-17)
(-0.0854247 0.0017189 -1.70228e-17)
(-0.0931995 0.00691305 -9.17706e-17)
(-0.101003 0.0127577 5.50929e-17)
(-0.109292 0.0193777 2.55251e-16)
(-0.123553 0.0285162 -2.95568e-16)
(-0.139963 0.0395631 -4.36772e-17)
(-0.15565 0.0522317 4.63865e-16)
(-0.170377 0.0667532 -3.31643e-16)
(-0.183547 0.0832851 1.18624e-16)
(-0.194852 0.101965 -6.21473e-17)
(-0.204318 0.122248 -7.47825e-16)
(-0.212398 0.142045 1.30542e-15)
(-0.21941 0.158259 4.02153e-16)
(-0.223842 0.170076 -1.11661e-15)
(-0.21985 0.183857 9.6484e-16)
(-0.196838 0.215383 -8.10841e-17)
(-0.15436 0.298197 -7.68817e-16)
(-0.0829806 0.412071 1.29274e-16)
(0.00166423 0.553079 3.32155e-16)
(0.0768714 0.699216 -5.78416e-16)
(0.10217 0.797815 2.83172e-17)
(0.0691496 0.837981 1.06454e-16)
(-0.0458456 0.799111 5.45227e-17)
(-0.237006 0.679662 -4.19633e-16)
(-0.487697 0.496513 3.57798e-16)
(-0.768059 0.282693 5.20482e-16)
(-1.04538 0.0711285 -7.89737e-17)
(-1.30366 -0.115183 -1.92251e-16)
(-1.50318 -0.259116 -3.41279e-16)
(-1.68711 -0.377069 7.62534e-17)
(-1.83313 -0.458839 2.2299e-17)
(-1.96133 -0.522603 5.75475e-17)
(-2.06555 -0.57387 1.99116e-17)
(-2.20904 -0.635447 7.55155e-17)
(-2.37058 -0.700846 4.66301e-17)
(-2.59881 -0.777058 -3.24079e-17)
(-0.038721 -0.00902069 -2.73938e-17)
(-0.0466377 -0.00583131 -3.96342e-17)
(-0.0504548 -0.00183414 -3.49082e-18)
(-0.0560027 0.00167771 6.59346e-17)
(-0.061661 0.0054402 4.33511e-17)
(-0.0673589 0.00958577 -2.42846e-17)
(-0.073152 0.0141669 -2.6159e-18)
(-0.0790432 0.0192077 2.36668e-17)
(-0.0850324 0.0248127 -1.40423e-16)
(-0.092917 0.0319547 -3.91499e-17)
(-0.105733 0.0416225 4.64442e-16)
(-0.117935 0.0525522 9.28227e-17)
(-0.12964 0.064753 -6.82986e-16)
(-0.140298 0.0782614 1.72223e-16)
(-0.149564 0.0930882 2.13555e-16)
(-0.157162 0.109301 -9.41166e-16)
(-0.162904 0.126896 1.47781e-17)
(-0.166927 0.145142 4.91262e-16)
(-0.169872 0.162106 5.72256e-16)
(-0.172051 0.175254 -3.52363e-16)
(-0.172617 0.184054 1.49653e-16)
(-0.175954 0.206292 3.48997e-16)
(-0.163196 0.234347 -6.44301e-16)
(-0.130983 0.281742 -2.25612e-16)
(-0.0767367 0.352519 7.2199e-17)
(-0.00301824 0.446066 2.20222e-16)
(0.0780271 0.551133 -1.14287e-16)
(0.152973 0.652003 2.2864e-16)
(0.205781 0.731751 -1.26621e-16)
(0.22252 0.775011 -3.83966e-17)
(0.193498 0.771729 2.58871e-16)
(0.113477 0.715872 -1.92212e-16)
(0.00401076 0.635687 -7.7912e-17)
(-0.181945 0.489892 2.89727e-16)
(-0.358129 0.350359 -3.19791e-16)
(-0.56571 0.213563 1.96743e-16)
(-0.767058 0.0894401 1.31679e-16)
(-0.960233 -0.014653 -2.26256e-16)
(-1.17154 -0.0985076 5.07746e-17)
(-1.34972 -0.14476 8.59733e-17)
(-1.57236 -0.196059 1.31409e-17)
(-0.0323797 -0.00268486 -6.98065e-18)
(-0.0381725 0.000579069 -1.87432e-17)
(-0.0408663 0.00400608 -9.07263e-18)
(-0.0448991 0.00723167 3.54069e-17)
(-0.0490258 0.0106408 -2.98728e-19)
(-0.0532224 0.0143595 -1.08041e-17)
(-0.0575067 0.0184161 -1.99203e-18)
(-0.061935 0.0228309 1.0139e-17)
(-0.0664413 0.0277013 3.8888e-17)
(-0.0713414 0.0331982 -4.30089e-17)
(-0.0800805 0.0414697 6.10364e-17)
(-0.0895093 0.0510089 -7.23121e-17)
(-0.0986357 0.0615044 5.67386e-17)
(-0.107071 0.0729671 3.12452e-16)
(-0.114482 0.0853396 -3.9703e-16)
(-0.120675 0.0985582 -1.89929e-16)
(-0.125413 0.112566 -9.98165e-17)
(-0.128456 0.127424 7.41006e-17)
(-0.1298 0.142963 2.78645e-16)
(-0.129576 0.15851 -1.33511e-16)
(-0.128964 0.172306 -3.90399e-16)
(-0.135621 0.194097 3.13666e-16)
(-0.139581 0.209109 3.38486e-16)
(-0.140385 0.223643 -5.69865e-16)
(-0.133492 0.241758 2.45479e-16)
(-0.115216 0.267565 1.76246e-16)
(-0.0830497 0.304421 -2.96547e-16)
(-0.0366932 0.353551 5.45564e-16)
(0.0213159 0.413341 -1.48614e-16)
(0.0853658 0.478747 -4.37074e-16)
(0.147695 0.542497 -4.85656e-19)
(0.199442 0.596644 4.86245e-16)
(0.228844 0.630865 -3.91434e-16)
(0.246404 0.651826 -1.31046e-16)
(0.227293 0.646009 2.77357e-16)
(0.183166 0.622421 2.30448e-17)
(0.112978 0.583725 -5.1246e-17)
(0.0249534 0.530595 -2.61375e-17)
(-0.082266 0.494455 2.32245e-17)
(-0.240438 0.429747 -3.3313e-18)
(-0.359207 0.397194 4.20805e-17)
(-0.0270204 0.00160341 1.40821e-17)
(-0.0312509 0.00474224 -2.36548e-17)
(-0.0330692 0.00772181 -4.745e-18)
(-0.0359625 0.0106503 -3.02134e-18)
(-0.0389276 0.0137073 1.97615e-17)
(-0.0419758 0.0170309 -1.39081e-17)
(-0.0451109 0.0206221 1.80515e-17)
(-0.0483812 0.0245107 2.16763e-17)
(-0.0517609 0.0287724 -5.52385e-17)
(-0.0553044 0.0335031 -3.80413e-17)
(-0.0604163 0.0399075 8.67751e-18)
(-0.0677245 0.0483488 -9.06883e-17)
(-0.0747059 0.0575505 -5.58932e-17)
(-0.0812422 0.0674082 1.43004e-16)
(-0.0870257 0.0779655 1.05914e-16)
(-0.0918792 0.089113 5.18492e-18)
(-0.0956642 0.100776 -4.38926e-17)
(-0.0981919 0.112836 -7.76534e-17)
(-0.0993398 0.125282 1.62873e-16)
(-0.0988222 0.138094 2.00532e-16)
(-0.0970798 0.151096 1.46222e-17)
(-0.0998176 0.173418 -3.57186e-16)
(-0.101022 0.191597 -3.85791e-17)
(-0.102805 0.208285 2.30623e-16)
(-0.104491 0.223031 3.09139e-16)
(-0.105025 0.236169 -1.59167e-16)
(-0.102936 0.249017 -4.0275e-16)
(-0.0963814 0.263454 -3.42243e-16)
(-0.0836132 0.281589 1.27368e-16)
(-0.063603 0.304948 2.93137e-16)
(-0.0363789 0.334281 -5.20723e-17)
(-0.0031836 0.36923 1.03216e-16)
(0.0338107 0.408672 -2.1438e-17)
(0.0704125 0.44846 2.91512e-17)
(0.103989 0.488861 -1.98383e-16)
(0.13052 0.526738 1.26025e-16)
(0.147616 0.560762 5.45345e-18)
(0.15247 0.585091 6.27837e-17)
(0.138605 0.607796 -8.43269e-17)
(0.133923 0.629267 1.07018e-16)