/*--------------------------------*- C++ -*----------------------------------*\
| =========                 |                                                 |
| \\      /  F ield         | OpenFOAM: The Open Source CFD Toolbox           |
|  \\    /   O peration     | Version:  2312                                  |
|   \\  /    A nd           | Website:  www.openfoam.com                      |
|    \\/     M anipulation  |                                                 |
\*---------------------------------------------------------------------------*/
FoamFile
{
    version     2.0;
    format      ascii;
    arch        "LSB;label=32;scalar=64";
    class       volScalarField;
    location    "550";
    object      nut;
}
// * * * * * * * * * * * * * * * * * * * * * * * * * * * * * * * * * * * * * //

dimensions      [0 2 -1 0 0 0 0];

internalField   nonuniform List<scalar> 
11040
(
3.74797e-05
5.48473e-05
1.59922e-05
4.66151e-05
0.000186164
0.000180985
0.000171259
0.000161366
0.000148527
0.000140735
0.000132349
0.000124989
0.000118344
0.000112937
0.000108241
0.000105406
0.000104564
0.000105912
0.00010901
0.00011355
0.000119568
0.000126838
0.000135067
0.000144112
0.000154312
0.000166626
0.000180163
0.000193411
0.000205861
0.000216881
0.000225919
0.00023249
0.000237921
0.000248029
0.0002683
0.000253567
0.000176457
0.000179958
0.000197666
0.000213863
0.000290928
4.14056e-06
3.63954e-05
5.61207e-05
0.000138781
0.000595662
0.000630572
0.000552382
0.000510823
0.000443338
0.000408939
0.000371619
0.000342259
0.000315193
0.000294334
0.000274967
0.000260868
0.000252842
0.000251231
0.000253551
0.000257958
0.000264357
0.000272637
0.000281095
0.000288728
0.000297637
0.000316614
0.000345471
0.000378422
0.000415475
0.00045637
0.000501423
0.000550996
0.000604448
0.000663546
0.000729538
0.00079489
0.000860537
0.000947433
0.00105002
0.00112621
0.001577
5.56215e-06
9.27224e-06
3.00936e-05
6.28386e-05
0.000404376
0.000953116
0.00118436
0.00115191
0.00100686
0.000935297
0.000851524
0.000788226
0.000727934
0.000682594
0.000640087
0.000606043
0.000580145
0.000560552
0.000549444
0.000545848
0.000550974
0.000565861
0.000591205
0.000627913
0.000676049
0.00073534
0.000805552
0.000886383
0.000977395
0.00107697
0.00118443
0.00129899
0.00142016
0.00154852
0.0016848
0.00182822
0.00198407
0.00217343
0.00240371
0.00262061
0.00339932
6.48388e-06
5.14536e-06
1.061e-05
1.10732e-05
0.000134394
0.000581853
0.00128495
0.00170186
0.0017791
0.00169734
0.00155367
0.00144908
0.00134368
0.0012635
0.00118714
0.00112312
0.00107625
0.00103948
0.00101805
0.00101042
0.00101797
0.00104367
0.00108995
0.00115808
0.00124739
0.00135667
0.00148494
0.00163095
0.00179358
0.00197147
0.00216292
0.0023663
0.00258038
0.00280533
0.00304204
0.00329253
0.00356621
0.00389025
0.00428903
0.0047083
0.00579189
6.19701e-06
5.77894e-06
6.37642e-06
5.4949e-06
4.63193e-06
0.000170476
0.000690115
0.00153404
0.00223793
0.00245866
0.00247917
0.00237918
0.00221616
0.00209211
0.00197642
0.00187047
0.00179644
0.00173602
0.00169961
0.00168589
0.00169438
0.00173047
0.00180003
0.00190519
0.00204497
0.00221785
0.00242194
0.00265461
0.00291355
0.00319645
0.00349985
0.00382063
0.00415649
0.00450711
0.00487333
0.00525893
0.00567777
0.00616715
0.00676907
0.00744782
0.00881089
6.09356e-06
6.18917e-06
5.88551e-06
6.60751e-06
1.78983e-06
8.19008e-07
0.000164422
0.000709678
0.00168025
0.00269746
0.00319032
0.00336783
0.00336302
0.00325925
0.0030825
0.00291485
0.00280492
0.00271155
0.00265148
0.00262801
0.00263496
0.0026795
0.00277415
0.00292304
0.00312467
0.00337758
0.00367883
0.00402357
0.00440695
0.00482537
0.00527263
0.00574291
0.00623207
0.00673899
0.00726383
0.0078116
0.00840093
0.00908066
0.00991421
0.0108992
0.0125663
6.10464e-06
6.13605e-06
6.01712e-06
6.33558e-06
5.98894e-06
4.86451e-07
2.51555e-09
0.000111468
0.000638245
0.00166815
0.00296355
0.00391731
0.00430922
0.00446409
0.00446127
0.00436343
0.00421446
0.00405967
0.00396235
0.00392408
0.00392719
0.0039761
0.00409478
0.00429213
0.00456562
0.00491468
0.00533582
0.00582116
0.00636048
0.00694889
0.00757601
0.00823125
0.00890731
0.00960173
0.010313
0.0110462
0.011825
0.0127091
0.0137891
0.0151079
0.0171145
6.11416e-06
6.11163e-06
6.13233e-06
6.0484e-06
6.54523e-06
6.13939e-06
2.89016e-08
1.07614e-11
4.46412e-05
0.000492905
0.00148028
0.00296207
0.00442929
0.00526712
0.00564579
0.00580116
0.00583262
0.00578634
0.00571915
0.00566437
0.00566504
0.00572794
0.00587291
0.00612336
0.00647635
0.00693488
0.00749731
0.00815406
0.00888304
0.00967869
0.0105253
0.0114037
0.0123009
0.0132126
0.0141343
0.0150682
0.0160436
0.0171309
0.0184443
0.02009
0.0224527
6.11265e-06
6.1165e-06
6.11197e-06
6.13305e-06
5.99528e-06
7.1294e-06
5.50847e-06
1.4452e-07
2.59855e-07
2.70403e-07
0.000295373
0.00114039
0.00264818
0.0045197
0.00605569
0.00684313
0.00725762
0.00747305
0.00760422
0.00769558
0.00780319
0.00795448
0.00819163
0.00854554
0.00901699
0.0096063
0.0103213
0.0111645
0.0121162
0.0131563
0.0142638
0.015406
0.0165575
0.0177118
0.0188614
0.0199987
0.0211581
0.0224232
0.0239179
0.0258306
0.028504
6.11235e-06
6.11405e-06
6.11396e-06
6.11911e-06
6.10112e-06
6.04059e-06
7.31902e-06
5.03802e-06
5.52571e-07
1.16182e-08
2.20001e-05
0.000136718
0.00074894
0.00208659
0.00410744
0.00630273
0.00789774
0.00873676
0.00926821
0.00964943
0.0100024
0.0103739
0.0108253
0.0114036
0.012129
0.013002
0.0140114
0.0151373
0.0163596
0.0176739
0.0190763
0.020518
0.0219468
0.0233523
0.0247322
0.026055
0.0273534
0.0287342
0.0303154
0.0323516
0.0352029
6.11143e-06
6.11244e-06
6.1137e-06
6.10956e-06
6.12708e-06
6.05815e-06
6.16813e-06
7.00962e-06
6.06721e-06
1.18662e-06
6.05638e-09
7.2158e-07
2.29756e-07
0.000355035
0.00137141
0.00324071
0.00576354
0.00829058
0.0100556
0.0110938
0.0118908
0.0126002
0.0133515
0.0142323
0.0152973
0.0165656
0.0180329
0.0196788
0.0214656
0.0233414
0.0252381
0.0270758
0.028801
0.0304428
0.0320493
0.0335228
0.0348647
0.036254
0.037784
0.0396833
0.0424224
6.11029e-06
6.11098e-06
6.11066e-06
6.11113e-06
6.10873e-06
6.11749e-06
6.06397e-06
6.15683e-06
6.765e-06
6.58533e-06
2.45691e-06
4.94438e-09
1.52693e-09
2.26127e-05
8.68821e-05
0.000698078
0.00213025
0.00451973
0.00755936
0.0105286
0.0126833
0.0141029
0.0153187
0.0165692
0.0179984
0.0196724
0.0216084
0.0238009
0.0262127
0.0287838
0.0314403
0.0340958
0.0366546
0.0390229
0.041087
0.0427214
0.0439535
0.0452144
0.0465219
0.047986
0.0501793
6.10917e-06
6.1092e-06
6.10912e-06
6.10902e-06
6.10892e-06
6.10817e-06
6.10954e-06
6.0784e-06
6.12363e-06
6.53369e-06
6.86285e-06
4.38592e-06
2.4366e-07
2.21406e-09
9.91263e-08
9.36887e-05
0.000209354
0.00107586
0.00290362
0.00580246
0.00943523
0.0129721
0.0156707
0.017689
0.0196087
0.0217096
0.0240736
0.0267492
0.0297176
0.0329159
0.0362659
0.0396769
0.0430465
0.0462761
0.0492625
0.0518929
0.0540744
0.0557464
0.0568093
0.057505
0.0589519
6.108e-06
6.1085e-06
6.10854e-06
6.10837e-06
6.10775e-06
6.10703e-06
6.1068e-06
6.10675e-06
6.08835e-06
6.09599e-06
6.31116e-06
7.04242e-06
6.01892e-06
1.70278e-06
7.00228e-10
8.94388e-11
1.10218e-06
0.000164291
0.000336047
0.00140369
0.00356906
0.00680155
0.010663
0.0146862
0.0183669
0.0215198
0.0244736
0.0276209
0.0310791
0.0348085
0.0387454
0.0428103
0.0468906
0.0508814
0.0546792
0.0581841
0.0613073
0.0639957
0.0661883
0.0678712
0.0691238
6.107e-06
6.1081e-06
6.10802e-06
6.1075e-06
6.10689e-06
6.10641e-06
6.10587e-06
6.10588e-06
6.1053e-06
6.09839e-06
6.07219e-06
6.19606e-06
6.80408e-06
6.81317e-06
4.54936e-06
3.22784e-07
3.26649e-09
1.23165e-12
5.11236e-06
0.000211443
0.000403001
0.00151071
0.0035195
0.00648886
0.0102702
0.0146335
0.0193153
0.0240185
0.0285523
0.0329821
0.0374886
0.0421441
0.0468748
0.0515658
0.0561092
0.0604064
0.06438
0.0679929
0.0711797
0.0738988
0.0761597
6.10614e-06
6.10743e-06
6.10718e-06
6.10675e-06
6.10635e-06
6.10599e-06
6.10567e-06
6.10533e-06
6.10519e-06
6.10529e-06
6.1028e-06
6.06995e-06
6.13416e-06
6.39949e-06
7.13883e-06
5.99913e-06
3.05704e-06
1.62834e-08
5.98608e-10
9.47297e-14
8.21157e-06
0.000188306
0.000240649
0.00100873
0.0024611
0.00475506
0.00791523
0.0119281
0.0167281
0.0222092
0.0281679
0.0342847
0.0402583
0.0459566
0.0513752
0.056527
0.0613913
0.0659452
0.0701283
0.073881
0.0771832
6.10528e-06
6.1066e-06
6.10651e-06
6.10615e-06
6.1058e-06
6.10542e-06
6.10511e-06
6.10484e-06
6.10467e-06
6.1043e-06
6.10544e-06
6.10212e-06
6.08798e-06
6.07376e-06
6.24773e-06
6.67164e-06
7.15341e-06
5.22361e-06
1.6399e-06
1.49811e-09
2.40067e-10
4.68701e-14
7.83808e-07
8.43566e-05
5.75408e-05
0.000355357
0.00100929
0.00228854
0.00426641
0.00705338
0.0107215
0.0152943
0.0207261
0.0269039
0.0336045
0.0404938
0.0472158
0.0535444
0.0593202
0.0644797
0.0690573
6.10424e-06
6.10535e-06
6.10512e-06
6.10465e-06
6.10423e-06
6.10392e-06
6.10371e-06
6.10358e-06
6.10341e-06
6.10329e-06
6.10312e-06
6.1038e-06
6.10297e-06
6.09453e-06
6.07121e-06
6.12054e-06
6.35e-06
6.9685e-06
7.02523e-06
4.82443e-06
1.1795e-06
8.68192e-10
2.37e-10
6.74015e-13
8.39896e-09
2.01562e-06
4.99554e-05
0.000188009
4.56408e-05
0.000379274
0.00111154
0.00235895
0.00423703
0.00685657
0.0102891
0.0145323
0.0195123
0.0251516
0.0312613
0.0376137
0.0439904
6.10302e-06
6.10378e-06
6.10338e-06
6.10282e-06
6.10236e-06
6.10204e-06
6.10184e-06
6.10173e-06
6.10169e-06
6.10169e-06
6.10169e-06
6.10178e-06
6.10189e-06
6.10305e-06
6.09704e-06
6.08601e-06
6.06603e-06
6.1785e-06
6.51424e-06
7.0678e-06
6.87673e-06
4.48504e-06
1.71264e-06
1.54817e-08
6.68136e-10
3.00133e-11
1.17858e-13
0
3.59281e-09
1.71788e-06
4.88265e-05
0.000157754
0.000311222
5.83836e-05
0.000509997
0.00129465
0.00254
0.00431638
0.00667356
0.00961104
0.0131618
6.10172e-06
6.10218e-06
6.10167e-06
6.10109e-06
6.10067e-06
6.10039e-06
6.10024e-06
6.10017e-06
6.10016e-06
6.10018e-06
6.10024e-06
6.10033e-06
6.10038e-06
6.10073e-06
6.10117e-06
6.10079e-06
6.0913e-06
6.07312e-06
6.07988e-06
6.23587e-06
6.62907e-06
7.04797e-06
6.99498e-06
5.24683e-06
2.61746e-06
8.36897e-07
3.68532e-09
3.57914e-10
2.84742e-11
6.50072e-12
1.52529e-15
0
0
3.52454e-09
3.28991e-06
5.22481e-05
0.000148443
0.000265729
0.000431008
0.000102133
0.000582692
6.10036e-06
6.10059e-06
6.10007e-06
6.09958e-06
6.09927e-06
6.09912e-06
6.09907e-06
6.09908e-06
6.09913e-06
6.0992e-06
6.09928e-06
6.09937e-06
6.09947e-06
6.09954e-06
6.09974e-06
6.10017e-06
6.10091e-06
6.09739e-06
6.0833e-06
6.06626e-06
6.09445e-06
6.27069e-06
6.57539e-06
7.06715e-06
7.10104e-06
6.57544e-06
4.87937e-06
2.72753e-06
1.09421e-06
2.79032e-07
7.21558e-11
1.05392e-10
2.32341e-11
7.78969e-12
1.70936e-12
6.23393e-16
0
0
0
7.16527e-09
3.09447e-06
6.09897e-06
6.09911e-06
6.09871e-06
6.09841e-06
6.09829e-06
6.09831e-06
6.0984e-06
6.09852e-06
6.09865e-06
6.09877e-06
6.09889e-06
6.099e-06
6.0991e-06
6.09919e-06
6.09928e-06
6.09933e-06
6.09968e-06
6.10037e-06
6.09991e-06
6.09399e-06
6.07725e-06
6.0683e-06
6.0873e-06
6.21528e-06
6.46311e-06
6.76371e-06
7.14526e-06
7.19412e-06
6.73829e-06
5.93138e-06
4.38166e-06
2.67551e-06
1.36653e-06
5.07306e-07
1.22655e-07
4.90621e-11
7.29382e-11
1.9812e-11
9.93914e-12
4.16138e-12
1.18282e-12
6.09763e-06
6.09781e-06
6.09766e-06
6.09763e-06
6.09776e-06
6.09798e-06
6.09823e-06
6.09847e-06
6.09869e-06
6.09888e-06
6.09904e-06
6.09918e-06
6.0993e-06
6.0994e-06
6.09948e-06
6.09954e-06
6.09957e-06
6.09972e-06
6.10017e-06
6.10075e-06
6.09924e-06
6.09231e-06
6.07887e-06
6.06429e-06
6.07699e-06
6.12888e-06
6.26013e-06
6.47424e-06
6.7348e-06
6.98455e-06
7.27597e-06
7.29429e-06
6.98569e-06
6.34904e-06
5.53336e-06
4.3162e-06
3.02854e-06
1.90483e-06
1.07228e-06
4.94909e-07
1.5666e-07
6.0964e-06
6.09678e-06
6.09697e-06
6.09726e-06
6.09764e-06
6.09805e-06
6.09844e-06
6.09879e-06
6.09909e-06
6.09934e-06
6.09956e-06
6.09974e-06
6.09989e-06
6.10001e-06
6.10011e-06
6.10019e-06
6.10024e-06
6.10027e-06
6.10033e-06
6.10051e-06
6.10107e-06
6.1013e-06
6.10012e-06
6.09446e-06
6.08414e-06
6.07238e-06
6.0642e-06
6.07347e-06
6.11506e-06
6.192e-06
6.32898e-06
6.51756e-06
6.73316e-06
6.94836e-06
7.13251e-06
7.33227e-06
7.37648e-06
7.22834e-06
6.89415e-06
6.38488e-06
5.76955e-06
6.09535e-06
6.09607e-06
6.09663e-06
6.09722e-06
6.09782e-06
6.09837e-06
6.09887e-06
6.0993e-06
6.09967e-06
6.09999e-06
6.10025e-06
6.10048e-06
6.10067e-06
6.10083e-06
6.10096e-06
6.10107e-06
6.10116e-06
6.10123e-06
6.10128e-06
6.1013e-06
6.1014e-06
6.10165e-06
6.10212e-06
6.10253e-06
6.10183e-06
6.09922e-06
6.0934e-06
6.08405e-06
6.07327e-06
6.06453e-06
6.06189e-06
6.07344e-06
6.10537e-06
6.16199e-06
6.24182e-06
6.3546e-06
6.49444e-06
6.65378e-06
6.82042e-06
6.98152e-06
7.12315e-06
6.09452e-06
6.09565e-06
6.09656e-06
6.09739e-06
6.09814e-06
6.09879e-06
6.09936e-06
6.09986e-06
6.10028e-06
6.10065e-06
6.10096e-06
6.10123e-06
6.10147e-06
6.10167e-06
6.10185e-06
6.10201e-06
6.10214e-06
6.10225e-06
6.10235e-06
6.10243e-06
6.1025e-06
6.10257e-06
6.10268e-06
6.10292e-06
6.10331e-06
6.10376e-06
6.10397e-06
6.10335e-06
6.10121e-06
6.09713e-06
6.09074e-06
6.08247e-06
6.07355e-06
6.06577e-06
6.06112e-06
6.06126e-06
6.06905e-06
6.08775e-06
6.1185e-06
6.16439e-06
6.21597e-06
6.09395e-06
6.09547e-06
6.09665e-06
6.09764e-06
6.09847e-06
6.09919e-06
6.09982e-06
6.10036e-06
6.10083e-06
6.10125e-06
6.10161e-06
6.10193e-06
6.10221e-06
6.10247e-06
6.10269e-06
6.10289e-06
6.10307e-06
6.10323e-06
6.10338e-06
6.1035e-06
6.10363e-06
6.10375e-06
6.10385e-06
6.10394e-06
6.10405e-06
6.10423e-06
6.10451e-06
6.10491e-06
6.10534e-06
6.10563e-06
6.10553e-06
6.10476e-06
6.10304e-06
6.10015e-06
6.09608e-06
6.09082e-06
6.08468e-06
6.07798e-06
6.07139e-06
6.06583e-06
6.06176e-06
6.09361e-06
6.09544e-06
6.09679e-06
6.09786e-06
6.09875e-06
6.09952e-06
6.10019e-06
6.10078e-06
6.1013e-06
6.10177e-06
6.10218e-06
6.10255e-06
6.10288e-06
6.10318e-06
6.10345e-06
6.10369e-06
6.10392e-06
6.10412e-06
6.10431e-06
6.10448e-06
6.10466e-06
6.10483e-06
6.10497e-06
6.10511e-06
6.10523e-06
6.10533e-06
6.10544e-06
6.10556e-06
6.10574e-06
6.10597e-06
6.10627e-06
6.10661e-06
6.10696e-06
6.10723e-06
6.10732e-06
6.10714e-06
6.1066e-06
6.10555e-06
6.10398e-06
6.10163e-06
6.09937e-06
6.09345e-06
6.09546e-06
6.09689e-06
6.09801e-06
6.09894e-06
6.09976e-06
6.10048e-06
6.10112e-06
6.10169e-06
6.1022e-06
6.10267e-06
6.10309e-06
6.10346e-06
6.10381e-06
6.10412e-06
6.10441e-06
6.10468e-06
6.10493e-06
6.10517e-06
6.10538e-06
6.10559e-06
6.1058e-06
6.10598e-06
6.10615e-06
6.1063e-06
6.10645e-06
6.10657e-06
6.10668e-06
6.10678e-06
6.10688e-06
6.10698e-06
6.10708e-06
6.10721e-06
6.10737e-06
6.10755e-06
6.10776e-06
6.10798e-06
6.10819e-06
6.10839e-06
6.10848e-06
6.1086e-06
6.09338e-06
6.09545e-06
6.09692e-06
6.09807e-06
6.09905e-06
6.09991e-06
6.10068e-06
6.10137e-06
6.10199e-06
6.10256e-06
6.10307e-06
6.10354e-06
6.10397e-06
6.10436e-06
6.10472e-06
6.10506e-06
6.10537e-06
6.10566e-06
6.10594e-06
6.10619e-06
6.10644e-06
6.10668e-06
6.10689e-06
6.10709e-06
6.10727e-06
6.10744e-06
6.10759e-06
6.10772e-06
6.10784e-06
6.10795e-06
6.10803e-06
6.10811e-06
6.10817e-06
6.10821e-06
6.10825e-06
6.10828e-06
6.1083e-06
6.10832e-06
6.10835e-06
6.10836e-06
6.10841e-06
6.09329e-06
6.09537e-06
6.09686e-06
6.09805e-06
6.09907e-06
6.09997e-06
6.10078e-06
6.10152e-06
6.1022e-06
6.10282e-06
6.10339e-06
6.10391e-06
6.10439e-06
6.10483e-06
6.10524e-06
6.10562e-06
6.10598e-06
6.10631e-06
6.10663e-06
6.10692e-06
6.10721e-06
6.10748e-06
6.10772e-06
6.10795e-06
6.10815e-06
6.10834e-06
6.1085e-06
6.10865e-06
6.10879e-06
6.1089e-06
6.109e-06
6.10908e-06
6.10914e-06
6.10919e-06
6.10921e-06
6.10922e-06
6.1092e-06
6.10917e-06
6.10912e-06
6.10903e-06
6.109e-06
6.09312e-06
6.0952e-06
6.09671e-06
6.09792e-06
6.09897e-06
6.09992e-06
6.10078e-06
6.10157e-06
6.10231e-06
6.10298e-06
6.10361e-06
6.10419e-06
6.10472e-06
6.10522e-06
6.10568e-06
6.10611e-06
6.10651e-06
6.10689e-06
6.10724e-06
6.10757e-06
6.1079e-06
6.1082e-06
6.10848e-06
6.10873e-06
6.10896e-06
6.10916e-06
6.10934e-06
6.10951e-06
6.10965e-06
6.10977e-06
6.10988e-06
6.10996e-06
6.11002e-06
6.11007e-06
6.11009e-06
6.11009e-06
6.11007e-06
6.11002e-06
6.10996e-06
6.10986e-06
6.10981e-06
6.09287e-06
6.09493e-06
6.09644e-06
6.09768e-06
6.09876e-06
6.09975e-06
6.10067e-06
6.10152e-06
6.10231e-06
6.10305e-06
6.10374e-06
6.10438e-06
6.10497e-06
6.10552e-06
6.10604e-06
6.10652e-06
6.10697e-06
6.10739e-06
6.10779e-06
6.10816e-06
6.10853e-06
6.10886e-06
6.10917e-06
6.10944e-06
6.10969e-06
6.10992e-06
6.11012e-06
6.1103e-06
6.11045e-06
6.11058e-06
6.11069e-06
6.11078e-06
6.11084e-06
6.11088e-06
6.1109e-06
6.1109e-06
6.11087e-06
6.11082e-06
6.11074e-06
6.11064e-06
6.11057e-06
6.09253e-06
6.09456e-06
6.09606e-06
6.09731e-06
6.09843e-06
6.09947e-06
6.10044e-06
6.10135e-06
6.10221e-06
6.10301e-06
6.10377e-06
6.10447e-06
6.10513e-06
6.10575e-06
6.10632e-06
6.10686e-06
6.10736e-06
6.10783e-06
6.10827e-06
6.10869e-06
6.10909e-06
6.10946e-06
6.1098e-06
6.1101e-06
6.11038e-06
6.11063e-06
6.11085e-06
6.11104e-06
6.11121e-06
6.11135e-06
6.11146e-06
6.11156e-06
6.11162e-06
6.11166e-06
6.11168e-06
6.11168e-06
6.11164e-06
6.11159e-06
6.11151e-06
6.1114e-06
6.11132e-06
6.09207e-06
6.09405e-06
6.09555e-06
6.09681e-06
6.09797e-06
6.09905e-06
6.10009e-06
6.10107e-06
6.102e-06
6.10287e-06
6.1037e-06
6.10447e-06
6.1052e-06
6.10588e-06
6.10652e-06
6.10711e-06
6.10767e-06
6.10819e-06
6.10869e-06
6.10915e-06
6.10959e-06
6.11e-06
6.11037e-06
6.11071e-06
6.11101e-06
6.11128e-06
6.11152e-06
6.11173e-06
6.11192e-06
6.11207e-06
6.1122e-06
6.1123e-06
6.11237e-06
6.11242e-06
6.11244e-06
6.11244e-06
6.11241e-06
6.11236e-06
6.11228e-06
6.11218e-06
6.11208e-06
6.09149e-06
6.09341e-06
6.09489e-06
6.09617e-06
6.09737e-06
6.09851e-06
6.0996e-06
6.10065e-06
6.10165e-06
6.1026e-06
6.1035e-06
6.10435e-06
6.10515e-06
6.1059e-06
6.1066e-06
6.10726e-06
6.10788e-06
6.10846e-06
6.10901e-06
6.10952e-06
6.11001e-06
6.11046e-06
6.11087e-06
6.11124e-06
6.11158e-06
6.11187e-06
6.11214e-06
6.11237e-06
6.11258e-06
6.11275e-06
6.11289e-06
6.113e-06
6.11309e-06
6.11315e-06
6.11318e-06
6.11318e-06
6.11316e-06
6.11312e-06
6.11304e-06
6.11296e-06
6.11286e-06
6.09078e-06
6.09262e-06
6.09408e-06
6.09538e-06
6.09661e-06
6.09781e-06
6.09896e-06
6.10008e-06
6.10115e-06
6.10217e-06
6.10314e-06
6.10407e-06
6.10494e-06
6.10576e-06
6.10654e-06
6.10727e-06
6.10795e-06
6.1086e-06
6.1092e-06
6.10977e-06
6.11031e-06
6.11081e-06
6.11126e-06
6.11167e-06
6.11204e-06
6.11237e-06
6.11266e-06
6.11292e-06
6.11315e-06
6.11334e-06
6.11351e-06
6.11364e-06
6.11374e-06
6.11381e-06
6.11386e-06
6.11388e-06
6.11387e-06
6.11384e-06
6.11378e-06
6.11371e-06
6.11362e-06
6.0899e-06
6.09167e-06
6.09311e-06
6.09442e-06
6.09569e-06
6.09693e-06
6.09813e-06
6.0993e-06
6.10044e-06
6.10153e-06
6.10257e-06
6.10357e-06
6.10452e-06
6.10542e-06
6.10627e-06
6.10707e-06
6.10782e-06
6.10853e-06
6.1092e-06
6.10982e-06
6.11042e-06
6.11097e-06
6.11147e-06
6.11192e-06
6.11233e-06
6.1127e-06
6.11303e-06
6.11332e-06
6.11358e-06
6.1138e-06
6.11398e-06
6.11414e-06
6.11426e-06
6.11435e-06
6.11442e-06
6.11446e-06
6.11447e-06
6.11445e-06
6.11441e-06
6.11436e-06
6.11428e-06
6.08886e-06
6.09055e-06
6.09196e-06
6.09328e-06
6.09457e-06
6.09583e-06
6.09707e-06
6.09829e-06
6.09947e-06
6.10062e-06
6.10173e-06
6.1028e-06
6.10382e-06
6.10479e-06
6.10572e-06
6.10659e-06
6.10742e-06
6.1082e-06
6.10893e-06
6.10962e-06
6.11027e-06
6.11087e-06
6.11142e-06
6.11193e-06
6.11238e-06
6.11279e-06
6.11316e-06
6.11348e-06
6.11377e-06
6.11402e-06
6.11424e-06
6.11442e-06
6.11457e-06
6.11468e-06
6.11477e-06
6.11483e-06
6.11487e-06
6.11488e-06
6.11486e-06
6.11484e-06
6.11478e-06
6.08764e-06
6.08924e-06
6.09061e-06
6.09192e-06
6.09321e-06
6.09448e-06
6.09574e-06
6.09698e-06
6.0982e-06
6.0994e-06
6.10056e-06
6.10169e-06
6.10278e-06
6.10382e-06
6.10482e-06
6.10577e-06
6.10667e-06
6.10752e-06
6.10832e-06
6.10907e-06
6.10978e-06
6.11045e-06
6.11105e-06
6.1116e-06
6.1121e-06
6.11256e-06
6.11297e-06
6.11333e-06
6.11365e-06
6.11394e-06
6.11418e-06
6.11439e-06
6.11457e-06
6.11471e-06
6.11483e-06
6.11491e-06
6.11497e-06
6.115e-06
6.11501e-06
6.11501e-06
6.11497e-06
6.08622e-06
6.08772e-06
6.08905e-06
6.09032e-06
6.09157e-06
6.09282e-06
6.09407e-06
6.09533e-06
6.09657e-06
6.0978e-06
6.09902e-06
6.1002e-06
6.10135e-06
6.10247e-06
6.10353e-06
6.10455e-06
6.10552e-06
6.10644e-06
6.1073e-06
6.10812e-06
6.10889e-06
6.10961e-06
6.11026e-06
6.11086e-06
6.11141e-06
6.11191e-06
6.11236e-06
6.11276e-06
6.11312e-06
6.11344e-06
6.11372e-06
6.11396e-06
6.11417e-06
6.11434e-06
6.11449e-06
6.11461e-06
6.1147e-06
6.11476e-06
6.1148e-06
6.11483e-06
6.11483e-06
6.08459e-06
6.08598e-06
6.08723e-06
6.08843e-06
6.08963e-06
6.09083e-06
6.09206e-06
6.0933e-06
6.09455e-06
6.09581e-06
6.09706e-06
6.09829e-06
6.0995e-06
6.10067e-06
6.1018e-06
6.10288e-06
6.10392e-06
6.1049e-06
6.10583e-06
6.10671e-06
6.10754e-06
6.10831e-06
6.10902e-06
6.10968e-06
6.11028e-06
6.11082e-06
6.11132e-06
6.11176e-06
6.11216e-06
6.11251e-06
6.11283e-06
6.1131e-06
6.11334e-06
6.11354e-06
6.11371e-06
6.11385e-06
6.11396e-06
6.11405e-06
6.11411e-06
6.11416e-06
6.11418e-06
6.08274e-06
6.084e-06
6.08513e-06
6.08623e-06
6.08734e-06
6.08848e-06
6.08966e-06
6.09087e-06
6.09212e-06
6.09339e-06
6.09466e-06
6.09592e-06
6.09717e-06
6.09839e-06
6.09957e-06
6.10072e-06
6.10181e-06
6.10285e-06
6.10384e-06
6.10477e-06
6.10565e-06
6.10647e-06
6.10723e-06
6.10793e-06
6.10857e-06
6.10915e-06
6.10968e-06
6.11016e-06
6.11059e-06
6.11098e-06
6.11133e-06
6.11164e-06
6.11191e-06
6.11215e-06
6.11235e-06
6.11253e-06
6.11268e-06
6.11281e-06
6.11291e-06
6.113e-06
6.11306e-06
6.08064e-06
6.08174e-06
6.08273e-06
6.0837e-06
6.08469e-06
6.08575e-06
6.08686e-06
6.08803e-06
6.08924e-06
6.09049e-06
6.09175e-06
6.09302e-06
6.09429e-06
6.09553e-06
6.09675e-06
6.09793e-06
6.09907e-06
6.10017e-06
6.10121e-06
6.1022e-06
6.10314e-06
6.10402e-06
6.10484e-06
6.1056e-06
6.1063e-06
6.10694e-06
6.10752e-06
6.10805e-06
6.10853e-06
6.10897e-06
6.10935e-06
6.1097e-06
6.11e-06
6.11026e-06
6.11049e-06
6.11069e-06
6.11086e-06
6.11101e-06
6.11113e-06
6.11123e-06
6.11131e-06
6.07828e-06
6.07919e-06
6.08e-06
6.08081e-06
6.08168e-06
6.08263e-06
6.08365e-06
6.08473e-06
6.08587e-06
6.08705e-06
6.08827e-06
6.0895e-06
6.09075e-06
6.09199e-06
6.09322e-06
6.09443e-06
6.0956e-06
6.09673e-06
6.0978e-06
6.09882e-06
6.09979e-06
6.10069e-06
6.10153e-06
6.10231e-06
6.10303e-06
6.10369e-06
6.10429e-06
6.10485e-06
6.10535e-06
6.10581e-06
6.10622e-06
6.10659e-06
6.10693e-06
6.10723e-06
6.1075e-06
6.10774e-06
6.10795e-06
6.10814e-06
6.10831e-06
6.10847e-06
6.10859e-06
6.07562e-06
6.0763e-06
6.07692e-06
6.07757e-06
6.07829e-06
6.07909e-06
6.07997e-06
6.08091e-06
6.08192e-06
6.08298e-06
6.08409e-06
6.08523e-06
6.08639e-06
6.08757e-06
6.08872e-06
6.08986e-06
6.09098e-06
6.09209e-06
6.09318e-06
6.09423e-06
6.09524e-06
6.09621e-06
6.09713e-06
6.09799e-06
6.09879e-06
6.09954e-06
6.10023e-06
6.10086e-06
6.10144e-06
6.10197e-06
6.10245e-06
6.10288e-06
6.10327e-06
6.10362e-06
6.10393e-06
6.10421e-06
6.10445e-06
6.10467e-06
6.10486e-06
6.10503e-06
6.10518e-06
6.07265e-06
6.07307e-06
6.07347e-06
6.07393e-06
6.07446e-06
6.07505e-06
6.07571e-06
6.07642e-06
6.0772e-06
6.07803e-06
6.07892e-06
6.07987e-06
6.08088e-06
6.08195e-06
6.08312e-06
6.08434e-06
6.08555e-06
6.08674e-06
6.08787e-06
6.08896e-06
6.08999e-06
6.09095e-06
6.09186e-06
6.09271e-06
6.0935e-06
6.09423e-06
6.09491e-06
6.09554e-06
6.09612e-06
6.09665e-06
6.09713e-06
6.09757e-06
6.09798e-06
6.09834e-06
6.09868e-06
6.09898e-06
6.09925e-06
6.0995e-06
6.09972e-06
6.09993e-06
6.1001e-06
6.06934e-06
6.06948e-06
6.06964e-06
6.06983e-06
6.07005e-06
6.07031e-06
6.07061e-06
6.07095e-06
6.07131e-06
6.07171e-06
6.07214e-06
6.07258e-06
6.07303e-06
6.07349e-06
6.07393e-06
6.07441e-06
6.07482e-06
6.07519e-06
6.07555e-06
6.07591e-06
6.07629e-06
6.07668e-06
6.07709e-06
6.07751e-06
6.07794e-06
6.07838e-06
6.07881e-06
6.07923e-06
6.07965e-06
6.08005e-06
6.08045e-06
6.08082e-06
6.08118e-06
6.08153e-06
6.08185e-06
6.08217e-06
6.08246e-06
6.08275e-06
6.08302e-06
6.08327e-06
6.08354e-06
0.00335497
0.00691248
0.0106036
0.0134686
0.0147681
0.0141618
0.0116678
0.00755656
0.00277002
0.000227167
2.20659e-08
1.41669e-08
5.40311e-06
6.5926e-06
5.99121e-06
6.24079e-06
6.4191e-06
6.31777e-06
6.15945e-06
6.09291e-06
6.10362e-06
6.12494e-06
6.12748e-06
6.11936e-06
6.11277e-06
6.10949e-06
6.1075e-06
6.10566e-06
6.10404e-06
6.10279e-06
6.10186e-06
6.10114e-06
6.10054e-06
6.10004e-06
6.09961e-06
6.09924e-06
6.09894e-06
6.09872e-06
6.09858e-06
6.09853e-06
6.09856e-06
6.09867e-06
6.09884e-06
6.09907e-06
6.09934e-06
6.09963e-06
6.09994e-06
6.10024e-06
6.10051e-06
6.10072e-06
6.10085e-06
6.10087e-06
6.10076e-06
6.10051e-06
6.10011e-06
6.09954e-06
6.0988e-06
6.09791e-06
6.09686e-06
6.09567e-06
6.0944e-06
6.09309e-06
6.09184e-06
6.09075e-06
6.08992e-06
6.08945e-06
6.0894e-06
6.08984e-06
6.09081e-06
6.09235e-06
6.09442e-06
6.09711e-06
6.09956e-06
6.1049e-06
0.00585038
0.0105694
0.014781
0.0178138
0.0191854
0.0186461
0.0162324
0.0121879
0.00681329
0.00179868
2.23946e-07
1.98225e-10
1.31002e-07
6.02642e-06
6.42486e-06
5.45557e-06
5.65329e-06
6.11588e-06
6.3276e-06
6.28336e-06
6.16977e-06
6.10725e-06
6.10151e-06
6.11283e-06
6.11684e-06
6.1132e-06
6.10886e-06
6.10655e-06
6.1054e-06
6.10439e-06
6.10339e-06
6.10254e-06
6.10187e-06
6.10129e-06
6.10079e-06
6.10035e-06
6.09999e-06
6.09973e-06
6.09957e-06
6.09952e-06
6.09956e-06
6.09971e-06
6.09994e-06
6.10023e-06
6.10059e-06
6.10098e-06
6.10138e-06
6.10178e-06
6.10214e-06
6.10243e-06
6.10262e-06
6.10268e-06
6.10259e-06
6.10232e-06
6.10187e-06
6.10122e-06
6.10037e-06
6.09933e-06
6.0981e-06
6.09672e-06
6.09523e-06
6.09368e-06
6.09218e-06
6.09084e-06
6.08976e-06
6.08906e-06
6.08883e-06
6.08915e-06
6.09007e-06
6.09165e-06
6.09384e-06
6.09659e-06
6.09911e-06
6.10436e-06
0.00822129
0.0143717
0.0193106
0.0226234
0.0241515
0.0237602
0.0214857
0.0175564
0.0121886
0.00584867
0.00113713
0.000180734
6.91903e-10
1.56162e-07
7.15112e-06
7.93998e-06
6.08664e-06
5.32395e-06
5.50396e-06
5.9722e-06
6.27282e-06
6.27516e-06
6.16173e-06
6.09698e-06
6.09493e-06
6.1093e-06
6.11386e-06
6.11049e-06
6.1069e-06
6.10542e-06
6.10487e-06
6.10424e-06
6.10345e-06
6.10272e-06
6.10212e-06
6.10162e-06
6.10121e-06
6.1009e-06
6.10071e-06
6.10065e-06
6.10071e-06
6.10089e-06
6.10117e-06
6.10154e-06
6.10198e-06
6.10246e-06
6.10296e-06
6.10345e-06
6.10389e-06
6.10424e-06
6.10448e-06
6.10457e-06
6.10447e-06
6.10416e-06
6.10364e-06
6.10289e-06
6.10191e-06
6.10071e-06
6.0993e-06
6.0977e-06
6.09598e-06
6.09419e-06
6.09244e-06
6.09084e-06
6.08952e-06
6.08862e-06
6.08823e-06
6.08847e-06
6.08941e-06
6.09106e-06
6.09335e-06
6.09614e-06
6.09871e-06
6.10385e-06
0.0105498
0.0183524
0.0241601
0.0278693
0.0296459
0.0294841
0.0274217
0.0236478
0.018408
0.0118572
0.00499459
0.000767786
0.000129936
7.13496e-10
5.46643e-08
6.2894e-06
1.10135e-05
8.82774e-06
6.52519e-06
5.44287e-06
5.4427e-06
5.87709e-06
6.22357e-06
6.26205e-06
6.15704e-06
6.09259e-06
6.09172e-06
6.10725e-06
6.11266e-06
6.10985e-06
6.10655e-06
6.10526e-06
6.1049e-06
6.10443e-06
6.10375e-06
6.10309e-06
6.10257e-06
6.10222e-06
6.10201e-06
6.10194e-06
6.10201e-06
6.10221e-06
6.10254e-06
6.10298e-06
6.10349e-06
6.10406e-06
6.10464e-06
6.10521e-06
6.10573e-06
6.10614e-06
6.10641e-06
6.1065e-06
6.10638e-06
6.10602e-06
6.10541e-06
6.10454e-06
6.10341e-06
6.10203e-06
6.10042e-06
6.0986e-06
6.09664e-06
6.0946e-06
6.0926e-06
6.09076e-06
6.08922e-06
6.08814e-06
6.08764e-06
6.08785e-06
6.08882e-06
6.09057e-06
6.09293e-06
6.09575e-06
6.09837e-06
6.10338e-06
0.0130371
0.0225713
0.0292835
0.033491
0.0356165
0.0357752
0.0340185
0.0304877
0.0254198
0.019005
0.0115405
0.00450025
0.000597032
0.000169967
1.4965e-10
3.07616e-08
1.25988e-06
7.22124e-06
1.11052e-05
9.61269e-06
6.95266e-06
5.57477e-06
5.46053e-06
5.84347e-06
6.1815e-06
6.24721e-06
6.16172e-06
6.0966e-06
6.09033e-06
6.10492e-06
6.11208e-06
6.11042e-06
6.10712e-06
6.10551e-06
6.10509e-06
6.10477e-06
6.10427e-06
6.10378e-06
6.10347e-06
6.10338e-06
6.10346e-06
6.10369e-06
6.10406e-06
6.10455e-06
6.10513e-06
6.10577e-06
6.10643e-06
6.10707e-06
6.10765e-06
6.1081e-06
6.10838e-06
6.10846e-06
6.1083e-06
6.10787e-06
6.10715e-06
6.10615e-06
6.10485e-06
6.10328e-06
6.10146e-06
6.09942e-06
6.09721e-06
6.09493e-06
6.09268e-06
6.09061e-06
6.08888e-06
6.08766e-06
6.08709e-06
6.08729e-06
6.08833e-06
6.09017e-06
6.09258e-06
6.09542e-06
6.09807e-06
6.10294e-06
0.0166881
0.0270969
0.0346249
0.0394055
0.0419751
0.0425494
0.0412035
0.0380378
0.0332429
0.0270444
0.0196574
0.0116095
0.0045994
0.000812273
0.000352053
4.09347e-08
3.36768e-09
3.25187e-08
6.7568e-07
5.61819e-06
1.02681e-05
1.02555e-05
7.3977e-06
5.67803e-06
5.44909e-06
5.80254e-06
6.1419e-06
6.23365e-06
6.16756e-06
6.10234e-06
6.0899e-06
6.1026e-06
6.1115e-06
6.11136e-06
6.10814e-06
6.1061e-06
6.10554e-06
6.10543e-06
6.10526e-06
6.10509e-06
6.10508e-06
6.1053e-06
6.10571e-06
6.10625e-06
6.10689e-06
6.1076e-06
6.10832e-06
6.10902e-06
6.10964e-06
6.11011e-06
6.1104e-06
6.11045e-06
6.11022e-06
6.1097e-06
6.10886e-06
6.1077e-06
6.10623e-06
6.10446e-06
6.10242e-06
6.10014e-06
6.0977e-06
6.09517e-06
6.09269e-06
6.09042e-06
6.08853e-06
6.0872e-06
6.0866e-06
6.08682e-06
6.08793e-06
6.08985e-06
6.0923e-06
6.09514e-06
6.09781e-06
6.10253e-06
0.0214347
0.0319247
0.040143
0.0455165
0.0485996
0.0496761
0.0488466
0.0461812
0.0418117
0.0359412
0.0288134
0.0207322
0.0124699
0.0056519
0.00169609
2.08979e-05
0.000272221
2.20893e-05
1.65164e-09
2.10405e-08
1.20141e-07
3.6453e-06
8.88264e-06
1.07752e-05
8.0488e-06
5.89527e-06
5.4556e-06
5.74715e-06
6.10559e-06
6.23502e-06
6.18358e-06
6.11184e-06
6.08958e-06
6.0991e-06
6.11003e-06
6.11222e-06
6.10963e-06
6.10727e-06
6.10653e-06
6.10668e-06
6.10697e-06
6.10721e-06
6.10755e-06
6.10807e-06
6.10875e-06
6.10952e-06
6.1103e-06
6.11104e-06
6.11168e-06
6.11217e-06
6.11243e-06
6.11243e-06
6.11214e-06
6.1115e-06
6.11052e-06
6.1092e-06
6.10754e-06
6.10556e-06
6.10329e-06
6.10078e-06
6.0981e-06
6.09535e-06
6.09266e-06
6.09021e-06
6.08819e-06
6.0868e-06
6.08619e-06
6.08646e-06
6.08763e-06
6.08961e-06
6.09209e-06
6.09491e-06
6.0976e-06
6.10215e-06
0.0270293
0.0370758
0.0458033
0.0517124
0.0553339
0.0569767
0.0567565
0.054723
0.0509515
0.0455886
0.0388651
0.031071
0.0226686
0.0145806
0.00804548
0.00376057
0.0014903
0.000318045
0.000422334
0.000115191
2.66635e-10
9.48228e-09
7.91702e-12
1.88285e-06
7.20768e-06
1.12681e-05
8.87148e-06
6.34064e-06
5.53156e-06
5.66014e-06
6.03422e-06