/*--------------------------------*- C++ -*----------------------------------*\
| =========                 |                                                 |
| \\      /  F ield         | OpenFOAM: The Open Source CFD Toolbox           |
|  \\    /   O peration     | Version:  2312                                  |
|   \\  /    A nd           | Website:  www.openfoam.com                      |
|    \\/     M anipulation  |                                                 |
\*---------------------------------------------------------------------------*/
FoamFile
{
    version     2.0;
    format      ascii;
    arch        "LSB;label=32;scalar=64";
    class       volScalarField;
    location    "550";
    object      nuTilda;
}
// * * * * * * * * * * * * * * * * * * * * * * * * * * * * * * * * * * * * * //

dimensions      [0 2 -1 0 0 0 0];

internalField   nonuniform List<scalar> 
11040
(
7.25737e-05
8.58606e-05
5.34583e-05
7.96422e-05
0.000195132
0.000190373
0.000181509
0.000172598
0.000161214
0.000154416
0.000147201
0.000140961
0.000135405
0.000130942
0.000127106
0.00012481
0.000124131
0.000125219
0.000127732
0.000131445
0.000136423
0.00014252
0.000149527
0.000157352
0.000166317
0.000177322
0.000189621
0.000201831
0.000213439
0.000223805
0.000232364
0.000238615
0.000243798
0.000253479
0.000273019
0.000258802
0.000186235
0.000189433
0.000205785
0.000220959
0.000294984
3.59737e-05
7.17142e-05
8.68169e-05
0.000152724
0.000596665
0.000631469
0.000553547
0.000512184
0.000445137
0.000411047
0.000374159
0.000345236
0.000318679
0.000298303
0.000279475
0.000265838
0.000258105
0.000256556
0.000258787
0.000263031
0.000269207
0.000277218
0.000285421
0.000292843
0.000301523
0.00032007
0.000348395
0.000380873
0.000417518
0.00045807
0.000502835
0.000552167
0.000605423
0.000664356
0.000730208
0.000795456
0.000861019
0.000947831
0.00105034
0.00112649
0.00157714
3.90342e-05
4.52028e-05
6.65828e-05
9.18567e-05
0.00040653
0.000953509
0.00118461
0.00115218
0.00100721
0.000935706
0.000852016
0.000788801
0.000728608
0.00068336
0.000640957
0.000607012
0.000581203
0.000561685
0.000550622
0.000547041
0.000552145
0.000566973
0.000592223
0.000628817
0.000676829
0.000736
0.000806103
0.000886838
0.000977769
0.00107728
0.00118469
0.00129921
0.00142034
0.00154867
0.00168493
0.00182833
0.00198417
0.00217351
0.00240377
0.00262067
0.00339935
4.07581e-05
3.81951e-05
4.70559e-05
4.76667e-05
0.00014895
0.000582904
0.00128516
0.00170199
0.00177922
0.00169746
0.00155382
0.00144925
0.00134388
0.00126372
0.00118739
0.00112341
0.00107656
0.00103981
0.0010184
0.00101077
0.00101831
0.001044
0.00109026
0.00115835
0.00124762
0.00135686
0.0014851
0.00163108
0.00179369
0.00197156
0.00216299
0.00236637
0.00258043
0.00280537
0.00304208
0.00329256
0.00356623
0.00389027
0.00428905
0.00470832
0.0057919
4.0239e-05
3.94549e-05
4.05654e-05
3.89016e-05
3.70992e-05
0.0001808
0.000690864
0.00153419
0.002238
0.00245872
0.00247923
0.00237924
0.00221623
0.00209219
0.00197651
0.00187057
0.00179655
0.00173614
0.00169973
0.00168602
0.00169451
0.00173059
0.00180014
0.00190528
0.00204505
0.00221792
0.002422
0.00265466
0.00291359
0.00319648
0.00349988
0.00382066
0.00415651
0.00450713
0.00487334
0.00525895
0.00567778
0.00616716
0.00676908
0.00744783
0.0088109
4.00481e-05
4.02246e-05
3.96581e-05
4.09774e-05
2.87492e-05
2.34759e-05
0.000175339
0.000710386
0.00168037
0.00269751
0.00319035
0.00336786
0.00336305
0.00325929
0.00308254
0.00291489
0.00280497
0.0027116
0.00265153
0.00262806
0.00263502
0.00267955
0.0027742
0.00292308
0.00312471
0.00337761
0.00367886
0.00402359
0.00440697
0.00482539
0.00527264
0.00574292
0.00623208
0.00673899
0.00726384
0.00781161
0.00840093
0.00908066
0.00991421
0.0108992
0.0125663
4.00687e-05
4.01268e-05
3.99058e-05
4.04916e-05
3.98531e-05
2.05497e-05
5.47838e-06
0.000129737
0.00063912
0.00166828
0.00296359
0.00391733
0.00430924
0.00446411
0.00446129
0.00436345
0.00421448
0.0040597
0.00396237
0.0039241
0.00392721
0.00397612
0.0040948
0.00429214
0.00456564
0.00491469
0.00533583
0.00582117
0.00636049
0.00694889
0.00757601
0.00823125
0.00890732
0.00960173
0.010313
0.0110462
0.011825
0.0127091
0.0137891
0.0151079
0.0171145
4.00863e-05
4.00816e-05
4.01199e-05
3.99642e-05
4.08673e-05
4.0133e-05
1.00922e-05
1.40092e-06
7.81353e-05
0.000494366
0.00148044
0.00296211
0.00442931
0.00526713
0.0056458
0.00580117
0.00583263
0.00578635
0.00571916
0.00566438
0.00566505
0.00572795
0.00587292
0.00612337
0.00647636
0.00693489
0.00749732
0.00815407
0.00888305
0.0096787
0.0105253
0.0114037
0.0123009
0.0132126
0.0141343
0.0150682
0.0160436
0.0171309
0.0184443
0.02009
0.0224527
4.00835e-05
4.00907e-05
4.00823e-05
4.01212e-05
3.98649e-05
4.18765e-05
3.89284e-05
1.51171e-05
1.75286e-05
1.77059e-05
0.000299315
0.00114067
0.00264823
0.00451972
0.0060557
0.00684314
0.00725763
0.00747305
0.00760423
0.00769558
0.0078032
0.00795449
0.00819163
0.00854554
0.009017
0.00960631
0.0103213
0.0111645
0.0121162
0.0131563
0.0142638
0.015406
0.0165575
0.0177118
0.0188614
0.0199987
0.0211581
0.0224232
0.0239179
0.0258306
0.028504
4.0083e-05
4.00861e-05
4.00859e-05
4.00955e-05
4.00622e-05
3.99497e-05
4.21931e-05
3.7972e-05
2.12278e-05
8.03315e-06
5.94588e-05
0.000150946
0.000749576
0.00208667
0.00410746
0.00630274
0.00789775
0.00873677
0.00926821
0.00964943
0.0100024
0.0103739
0.0108253
0.0114036
0.012129
0.013002
0.0140114
0.0151373
0.0163596
0.0176739
0.0190763
0.020518
0.0219468
0.0233523
0.0247322
0.026055
0.0273534
0.0287342
0.0303154
0.0323516
0.0352029
4.00813e-05
4.00831e-05
4.00855e-05
4.00778e-05
4.01102e-05
3.99824e-05
4.01859e-05
4.16738e-05
3.99992e-05
2.58302e-05
6.82486e-06
2.27257e-05
1.69918e-05
0.000357809
0.0013716
0.00324075
0.00576355
0.00829058
0.0100556
0.0110938
0.0118908
0.0126002
0.0133515
0.0142323
0.0152973
0.0165656
0.0180329
0.0196788
0.0214656
0.0233414
0.0252381
0.0270758
0.028801
0.0304428
0.0320493
0.0335228
0.0348647
0.036254
0.037784
0.0396833
0.0424224
4.00792e-05
4.00804e-05
4.00798e-05
4.00807e-05
4.00763e-05
4.00925e-05
3.99932e-05
4.01651e-05
4.12532e-05
4.09383e-05
3.12558e-05
6.48716e-06
4.83541e-06
6.00285e-05
0.00011015
0.000698811
0.00213033
0.00451975
0.00755936
0.0105286
0.0126834
0.0141029
0.0153187
0.0165692
0.0179984
0.0196724
0.0216084
0.0238009
0.0262127
0.0287838
0.0314403
0.0340958
0.0366546
0.0390229
0.041087
0.0427214
0.0439535
0.0452144
0.0465219
0.047986
0.0501793
4.00771e-05
4.00771e-05
4.0077e-05
4.00768e-05
4.00766e-05
4.00752e-05
4.00778e-05
4.002e-05
4.01038e-05
4.08468e-05
4.14225e-05
3.6546e-05
1.72459e-05
5.30624e-06
1.37492e-05
0.000115469
0.000216716
0.00107617
0.00290366
0.00580247
0.00943524
0.0129721
0.0156707
0.017689
0.0196087
0.0217096
0.0240736
0.0267492
0.0297176
0.0329159
0.0362659
0.0396769
0.0430465
0.0462761
0.0492625
0.0518929
0.0540744
0.0557464
0.0568093
0.057505
0.0589519
4.00749e-05
4.00758e-05
4.00759e-05
4.00756e-05
4.00745e-05
4.00731e-05
4.00727e-05
4.00726e-05
4.00385e-05
4.00527e-05
4.04473e-05
4.17295e-05
3.99092e-05
2.83761e-05
3.97899e-06
2.37864e-06
2.53417e-05
0.000175221
0.000339131
0.00140388
0.00356908
0.00680156
0.010663
0.0146862
0.0183669
0.0215198
0.0244736
0.0276209
0.0310791
0.0348085
0.0387454
0.0428103
0.0468906
0.0508814
0.0546792
0.0581841
0.0613073
0.0639957
0.0661883
0.0678712
0.0691238
4.00731e-05
4.00751e-05
4.0075e-05
4.0074e-05
4.00729e-05
4.0072e-05
4.0071e-05
4.0071e-05
4.00699e-05
4.00571e-05
4.00085e-05
4.02373e-05
4.1321e-05
4.13367e-05
3.69157e-05
1.85174e-05
5.84824e-06
8.14828e-07
3.81268e-05
0.00021868
0.000405169
0.00151087
0.00351953
0.00648887
0.0102702
0.0146335
0.0193153
0.0240185
0.0285523
0.0329821
0.0374886
0.0421441
0.0468748
0.0515658
0.0561092
0.0604064
0.06438
0.0679929
0.0711797
0.0738988
0.0761597
4.00715e-05
4.00739e-05
4.00734e-05
4.00726e-05
4.00719e-05
4.00712e-05
4.00706e-05
4.007e-05
4.00697e-05
4.00699e-05
4.00653e-05
4.00043e-05
4.01233e-05
4.06069e-05
4.18923e-05
3.98722e-05
3.31344e-05
8.74142e-06
3.82601e-06
4.29107e-07
4.36209e-05
0.000197107
0.000246406
0.00100908
0.00246116
0.00475508
0.00791524
0.0119281
0.0167281
0.0222092
0.0281679
0.0342847
0.0402583
0.0459566
0.0513752
0.056527
0.0613913
0.0659452
0.0701283
0.073881
0.0771832
4.00699e-05
4.00723e-05
4.00722e-05
4.00715e-05
4.00708e-05
4.00701e-05
4.00696e-05
4.00691e-05
4.00687e-05
4.00681e-05
4.00702e-05
4.0064e-05
4.00378e-05
4.00114e-05
4.03319e-05
4.10902e-05
4.19168e-05
3.83559e-05
2.80981e-05
4.81242e-06
3.04464e-06
3.59888e-07
2.32127e-05
0.000108195
8.78826e-05
0.000358126
0.00100964
0.00228861
0.00426643
0.00705339
0.0107215
0.0152943
0.0207261
0.0269039
0.0336045
0.0404938
0.0472158
0.0535444
0.0593202
0.0644797
0.0690573
4.0068e-05
4.007e-05
4.00696e-05
4.00687e-05
4.00679e-05
4.00674e-05
4.0067e-05
4.00667e-05
4.00664e-05
4.00662e-05
4.00659e-05
4.00671e-05
4.00656e-05
4.005e-05
4.00067e-05
4.00981e-05
4.05177e-05
4.16037e-05
4.17003e-05
3.75188e-05
2.579e-05
4.19875e-06
3.03487e-06
7.00828e-07
7.40668e-06
2.96611e-05
8.21756e-05
0.000196832
7.88995e-05
0.000381714
0.00111183
0.00235902
0.00423705
0.00685658
0.0102891
0.0145323
0.0195123
0.0251516
0.0312613
0.0376137
0.0439904
4.00657e-05
4.00671e-05
4.00664e-05
4.00653e-05
4.00645e-05
4.00639e-05
4.00635e-05
4.00633e-05
4.00632e-05
4.00632e-05
4.00632e-05
4.00634e-05
4.00636e-05
4.00657e-05
4.00546e-05
4.00341e-05
3.9997e-05
4.0205e-05
4.08122e-05
4.17725e-05
4.14464e-05
3.67712e-05
2.8419e-05
8.63164e-06
3.93259e-06
1.8104e-06
4.53194e-07
0
5.98918e-06
2.84417e-05
8.13214e-05
0.000169375
0.000314793
8.85148e-05
0.000511362
0.00129487
0.00254006
0.0043164
0.00667357
0.00961104
0.0131618
4.00633e-05
4.00641e-05
4.00632e-05
4.00621e-05
4.00613e-05
4.00608e-05
4.00605e-05
4.00604e-05
4.00604e-05
4.00604e-05
4.00605e-05
4.00607e-05
4.00608e-05
4.00614e-05
4.00623e-05
4.00616e-05
4.0044e-05
4.00102e-05
4.00228e-05
4.03102e-05
4.10154e-05
4.17389e-05
4.16489e-05
3.84033e-05
3.17866e-05
2.36065e-05
6.02738e-06
3.36434e-06
1.78673e-06
1.23505e-06
1.52856e-07
0
0
5.96051e-06
3.37956e-05
8.39055e-05
0.00016114
0.000270532
0.00043291
0.000122177
0.00058374
4.00608e-05
4.00612e-05
4.00602e-05
4.00593e-05
4.00587e-05
4.00585e-05
4.00584e-05
4.00584e-05
4.00585e-05
4.00586e-05
4.00588e-05
4.00589e-05
4.00591e-05
4.00593e-05
4.00596e-05
4.00604e-05
4.00618e-05
4.00553e-05
4.00291e-05
3.99975e-05
4.00498e-05
4.03737e-05
4.09207e-05
4.17714e-05
4.18287e-05
4.09208e-05
3.76366e-05
3.21378e-05
2.52942e-05
1.78471e-05
2.25432e-06
2.47828e-06
1.69815e-06
1.29218e-06
8.84407e-07
1.22218e-07
0
0
0
7.11805e-06
3.32429e-05
4.00582e-05
4.00584e-05
4.00577e-05
4.00571e-05
4.00569e-05
4.0057e-05
4.00571e-05
4.00574e-05
4.00576e-05
4.00578e-05
4.0058e-05
4.00582e-05
4.00584e-05
4.00586e-05
4.00588e-05
4.00589e-05
4.00595e-05
4.00608e-05
4.00599e-05
4.0049e-05
4.00179e-05
4.00013e-05
4.00366e-05
4.02725e-05
4.0721e-05
4.12509e-05
4.19031e-05
4.19851e-05
4.12067e-05
3.97448e-05
3.65362e-05
3.1973e-05
2.67937e-05
2.07705e-05
1.45056e-05
2.04707e-06
2.2604e-06
1.63184e-06
1.37335e-06
1.10472e-06
8.06628e-07
4.00557e-05
4.0056e-05
4.00558e-05
4.00557e-05
4.00559e-05
4.00564e-05
4.00568e-05
4.00573e-05
4.00577e-05
4.0058e-05
4.00583e-05
4.00586e-05
4.00588e-05
4.0059e-05
4.00591e-05
4.00592e-05
4.00593e-05
4.00596e-05
4.00604e-05
4.00615e-05
4.00587e-05
4.00458e-05
4.00209e-05
3.99938e-05
4.00174e-05
4.01136e-05
4.03545e-05
4.07409e-05
4.12006e-05
4.16311e-05
4.21217e-05
4.21521e-05
4.1633e-05
4.05159e-05
3.89775e-05
3.63856e-05
3.30512e-05
2.92231e-05
2.51622e-05
2.064e-05
1.54273e-05
4.00534e-05
4.00541e-05
4.00545e-05
4.0055e-05
4.00557e-05
4.00565e-05
4.00572e-05
4.00578e-05
4.00584e-05
4.00589e-05
4.00593e-05
4.00596e-05
4.00599e-05
4.00601e-05
4.00603e-05
4.00604e-05
4.00605e-05
4.00606e-05
4.00607e-05
4.0061e-05
4.00621e-05
4.00625e-05
4.00603e-05
4.00498e-05
4.00307e-05
4.00088e-05
3.99936e-05
4.00109e-05
4.0088e-05
4.02298e-05
4.04796e-05
4.08181e-05
4.11978e-05
4.15693e-05
4.18817e-05
4.22151e-05
4.22881e-05
4.20423e-05
4.14764e-05
4.05806e-05
3.94369e-05
4.00515e-05
4.00528e-05
4.00538e-05
4.00549e-05
4.0056e-05
4.00571e-05
4.0058e-05
4.00588e-05
4.00595e-05
4.00601e-05
4.00606e-05
4.0061e-05
4.00613e-05
4.00616e-05
4.00619e-05
4.00621e-05
4.00622e-05
4.00624e-05
4.00625e-05
4.00625e-05
4.00627e-05
4.00632e-05
4.0064e-05
4.00648e-05
4.00635e-05
4.00587e-05
4.00479e-05
4.00305e-05
4.00105e-05
3.99942e-05
3.99893e-05
4.00108e-05
4.007e-05
4.01746e-05
4.03211e-05
4.0526e-05
4.07769e-05
4.10589e-05
4.13493e-05
4.16259e-05
4.18659e-05
4.00499e-05
4.0052e-05
4.00537e-05
4.00553e-05
4.00566e-05
4.00579e-05
4.00589e-05
4.00598e-05
4.00606e-05
4.00613e-05
4.00619e-05
4.00624e-05
4.00628e-05
4.00632e-05
4.00635e-05
4.00638e-05
4.00641e-05
4.00643e-05
4.00645e-05
4.00646e-05
4.00647e-05
4.00649e-05
4.00651e-05
4.00655e-05
4.00662e-05
4.00671e-05
4.00674e-05
4.00663e-05
4.00623e-05
4.00548e-05
4.00429e-05
4.00276e-05
4.0011e-05
3.99965e-05
3.99879e-05
3.99881e-05
4.00026e-05
4.00374e-05
4.00944e-05
4.0179e-05
4.02738e-05
4.00489e-05
4.00517e-05
4.00539e-05
4.00557e-05
4.00573e-05
4.00586e-05
4.00598e-05
4.00608e-05
4.00616e-05
4.00624e-05
4.00631e-05
4.00637e-05
4.00642e-05
4.00647e-05
4.00651e-05
4.00655e-05
4.00658e-05
4.00661e-05
4.00664e-05
4.00666e-05
4.00668e-05
4.0067e-05
4.00672e-05
4.00674e-05
4.00676e-05
4.00679e-05
4.00685e-05
4.00692e-05
4.007e-05
4.00705e-05
4.00704e-05
4.00689e-05
4.00657e-05
4.00604e-05
4.00528e-05
4.00431e-05
4.00317e-05
4.00192e-05
4.0007e-05
3.99966e-05
3.99891e-05
4.00483e-05
4.00516e-05
4.00541e-05
4.00561e-05
4.00578e-05
4.00592e-05
4.00604e-05
4.00615e-05
4.00625e-05
4.00634e-05
4.00641e-05
4.00648e-05
4.00654e-05
4.0066e-05
4.00665e-05
4.00669e-05
4.00674e-05
4.00677e-05
4.00681e-05
4.00684e-05
4.00687e-05
4.0069e-05
4.00693e-05
4.00696e-05
4.00698e-05
4.007e-05
4.00702e-05
4.00704e-05
4.00707e-05
4.00712e-05
4.00717e-05
4.00723e-05
4.0073e-05
4.00735e-05
4.00737e-05
4.00733e-05
4.00723e-05
4.00704e-05
4.00675e-05
4.00631e-05
4.00589e-05
4.0048e-05
4.00517e-05
4.00543e-05
4.00564e-05
4.00581e-05
4.00596e-05
4.0061e-05
4.00622e-05
4.00632e-05
4.00642e-05
4.0065e-05
4.00658e-05
4.00665e-05
4.00672e-05
4.00677e-05
4.00683e-05
4.00688e-05
4.00692e-05
4.00697e-05
4.00701e-05
4.00705e-05
4.00708e-05
4.00712e-05
4.00715e-05
4.00718e-05
4.0072e-05
4.00723e-05
4.00725e-05
4.00727e-05
4.00728e-05
4.0073e-05
4.00732e-05
4.00735e-05
4.00737e-05
4.00741e-05
4.00745e-05
4.00749e-05
4.00753e-05
4.00756e-05
4.00758e-05
4.0076e-05
4.00478e-05
4.00517e-05
4.00544e-05
4.00565e-05
4.00583e-05
4.00599e-05
4.00614e-05
4.00626e-05
4.00638e-05
4.00648e-05
4.00658e-05
4.00667e-05
4.00675e-05
4.00682e-05
4.00689e-05
4.00695e-05
4.007e-05
4.00706e-05
4.00711e-05
4.00716e-05
4.0072e-05
4.00725e-05
4.00729e-05
4.00732e-05
4.00736e-05
4.00739e-05
4.00742e-05
4.00744e-05
4.00746e-05
4.00748e-05
4.0075e-05
4.00751e-05
4.00752e-05
4.00753e-05
4.00754e-05
4.00754e-05
4.00755e-05
4.00755e-05
4.00756e-05
4.00756e-05
4.00757e-05
4.00477e-05
4.00515e-05
4.00543e-05
4.00565e-05
4.00584e-05
4.006e-05
4.00615e-05
4.00629e-05
4.00642e-05
4.00653e-05
4.00664e-05
4.00673e-05
4.00682e-05
4.0069e-05
4.00698e-05
4.00705e-05
4.00712e-05
4.00718e-05
4.00724e-05
4.00729e-05
4.00735e-05
4.0074e-05
4.00744e-05
4.00748e-05
4.00752e-05
4.00755e-05
4.00759e-05
4.00761e-05
4.00764e-05
4.00766e-05
4.00768e-05
4.00769e-05
4.0077e-05
4.00771e-05
4.00772e-05
4.00772e-05
4.00771e-05
4.00771e-05
4.0077e-05
4.00768e-05
4.00768e-05
4.00473e-05
4.00512e-05
4.0054e-05
4.00562e-05
4.00582e-05
4.00599e-05
4.00615e-05
4.0063e-05
4.00644e-05
4.00656e-05
4.00668e-05
4.00679e-05
4.00688e-05
4.00698e-05
4.00706e-05
4.00714e-05
4.00722e-05
4.00729e-05
4.00735e-05
4.00741e-05
4.00747e-05
4.00753e-05
4.00758e-05
4.00763e-05
4.00767e-05
4.00771e-05
4.00774e-05
4.00777e-05
4.0078e-05
4.00782e-05
4.00784e-05
4.00785e-05
4.00787e-05
4.00787e-05
4.00788e-05
4.00788e-05
4.00787e-05
4.00787e-05
4.00785e-05
4.00784e-05
4.00783e-05
4.00469e-05
4.00507e-05
4.00535e-05
4.00558e-05
4.00578e-05
4.00596e-05
4.00613e-05
4.00629e-05
4.00644e-05
4.00657e-05
4.0067e-05
4.00682e-05
4.00693e-05
4.00703e-05
4.00713e-05
4.00722e-05
4.0073e-05
4.00738e-05
4.00745e-05
4.00752e-05
4.00759e-05
4.00765e-05
4.00771e-05
4.00776e-05
4.00781e-05
4.00785e-05
4.00788e-05
4.00792e-05
4.00795e-05
4.00797e-05
4.00799e-05
4.00801e-05
4.00802e-05
4.00803e-05
4.00803e-05
4.00803e-05
4.00802e-05
4.00801e-05
4.008e-05
4.00798e-05
4.00797e-05
4.00462e-05
4.005e-05
4.00528e-05
4.00551e-05
4.00572e-05
4.00591e-05
4.00609e-05
4.00626e-05
4.00642e-05
4.00657e-05
4.00671e-05
4.00684e-05
4.00696e-05
4.00707e-05
4.00718e-05
4.00728e-05
4.00737e-05
4.00746e-05
4.00754e-05
4.00762e-05
4.00769e-05
4.00776e-05
4.00782e-05
4.00788e-05
4.00793e-05
4.00798e-05
4.00802e-05
4.00805e-05
4.00809e-05
4.00811e-05
4.00813e-05
4.00815e-05
4.00816e-05
4.00817e-05
4.00817e-05
4.00817e-05
4.00817e-05
4.00816e-05
4.00814e-05
4.00812e-05
4.00811e-05
4.00454e-05
4.00491e-05
4.00518e-05
4.00542e-05
4.00563e-05
4.00583e-05
4.00603e-05
4.00621e-05
4.00638e-05
4.00654e-05
4.00669e-05
4.00684e-05
4.00697e-05
4.0071e-05
4.00722e-05
4.00733e-05
4.00743e-05
4.00753e-05
4.00762e-05
4.0077e-05
4.00779e-05
4.00786e-05
4.00793e-05
4.00799e-05
4.00805e-05
4.0081e-05
4.00814e-05
4.00818e-05
4.00822e-05
4.00825e-05
4.00827e-05
4.00829e-05
4.0083e-05
4.00831e-05
4.00831e-05
4.00831e-05
4.00831e-05
4.0083e-05
4.00828e-05
4.00827e-05
4.00825e-05
4.00443e-05
4.00479e-05
4.00506e-05
4.0053e-05
4.00552e-05
4.00573e-05
4.00594e-05
4.00613e-05
4.00632e-05
4.00649e-05
4.00666e-05
4.00682e-05
4.00696e-05
4.0071e-05
4.00723e-05
4.00736e-05
4.00747e-05
4.00758e-05
4.00768e-05
4.00777e-05
4.00786e-05
4.00795e-05
4.00802e-05
4.00809e-05
4.00815e-05
4.00821e-05
4.00826e-05
4.0083e-05
4.00834e-05
4.00837e-05
4.0084e-05
4.00842e-05
4.00843e-05
4.00845e-05
4.00845e-05
4.00845e-05
4.00845e-05
4.00844e-05
4.00843e-05
4.00841e-05
4.00839e-05
4.0043e-05
4.00464e-05
4.00491e-05
4.00515e-05
4.00538e-05
4.0056e-05
4.00582e-05
4.00602e-05
4.00622e-05
4.00641e-05
4.00659e-05
4.00676e-05
4.00692e-05
4.00708e-05
4.00722e-05
4.00736e-05
4.00748e-05
4.0076e-05
4.00771e-05
4.00782e-05
4.00792e-05
4.00801e-05
4.00809e-05
4.00817e-05
4.00824e-05
4.0083e-05
4.00836e-05
4.0084e-05
4.00845e-05
4.00848e-05
4.00851e-05
4.00854e-05
4.00855e-05
4.00857e-05
4.00858e-05
4.00858e-05
4.00858e-05
4.00857e-05
4.00856e-05
4.00855e-05
4.00853e-05
4.00414e-05
4.00447e-05
4.00473e-05
4.00498e-05
4.00521e-05
4.00544e-05
4.00566e-05
4.00588e-05
4.00609e-05
4.00629e-05
4.00649e-05
4.00667e-05
4.00685e-05
4.00701e-05
4.00717e-05
4.00732e-05
4.00746e-05
4.00759e-05
4.00771e-05
4.00783e-05
4.00794e-05
4.00804e-05
4.00813e-05
4.00822e-05
4.00829e-05
4.00836e-05
4.00842e-05
4.00848e-05
4.00852e-05
4.00857e-05
4.0086e-05
4.00863e-05
4.00865e-05
4.00867e-05
4.00868e-05
4.00869e-05
4.00869e-05
4.00869e-05
4.00868e-05
4.00867e-05
4.00865e-05
4.00394e-05
4.00426e-05
4.00452e-05
4.00476e-05
4.005e-05
4.00524e-05
4.00547e-05
4.00569e-05
4.00591e-05
4.00612e-05
4.00633e-05
4.00653e-05
4.00672e-05
4.0069e-05
4.00707e-05
4.00723e-05
4.00738e-05
4.00753e-05
4.00766e-05
4.00779e-05
4.00791e-05
4.00802e-05
4.00813e-05
4.00822e-05
4.0083e-05
4.00838e-05
4.00845e-05
4.00851e-05
4.00856e-05
4.00861e-05
4.00865e-05
4.00868e-05
4.00871e-05
4.00873e-05
4.00875e-05
4.00876e-05
4.00876e-05
4.00877e-05
4.00876e-05
4.00876e-05
4.00875e-05
4.00372e-05
4.00401e-05
4.00427e-05
4.00451e-05
4.00475e-05
4.00499e-05
4.00522e-05
4.00545e-05
4.00568e-05
4.0059e-05
4.00611e-05
4.00632e-05
4.00652e-05
4.00672e-05
4.0069e-05
4.00708e-05
4.00725e-05
4.0074e-05
4.00755e-05
4.00769e-05
4.00782e-05
4.00794e-05
4.00806e-05
4.00816e-05
4.00825e-05
4.00834e-05
4.00841e-05
4.00848e-05
4.00854e-05
4.00859e-05
4.00864e-05
4.00868e-05
4.00871e-05
4.00873e-05
4.00876e-05
4.00877e-05
4.00878e-05
4.00879e-05
4.00879e-05
4.00879e-05
4.00878e-05
4.00345e-05
4.00373e-05
4.00398e-05
4.00421e-05
4.00445e-05
4.00468e-05
4.00491e-05
4.00514e-05
4.00537e-05
4.0056e-05
4.00583e-05
4.00605e-05
4.00626e-05
4.00647e-05
4.00666e-05
4.00685e-05
4.00703e-05
4.0072e-05
4.00736e-05
4.00751e-05
4.00766e-05
4.00779e-05
4.00791e-05
4.00802e-05
4.00812e-05
4.00822e-05
4.0083e-05
4.00837e-05
4.00844e-05
4.0085e-05
4.00855e-05
4.0086e-05
4.00863e-05
4.00867e-05
4.00869e-05
4.00871e-05
4.00873e-05
4.00874e-05
4.00875e-05
4.00876e-05
4.00876e-05
4.00315e-05
4.00341e-05
4.00364e-05
4.00386e-05
4.00409e-05
4.00431e-05
4.00454e-05
4.00477e-05
4.005e-05
4.00523e-05
4.00546e-05
4.00569e-05
4.00592e-05
4.00613e-05
4.00634e-05
4.00654e-05
4.00674e-05
4.00692e-05
4.00709e-05
4.00725e-05
4.00741e-05
4.00755e-05
4.00768e-05
4.0078e-05
4.00791e-05
4.00801e-05
4.00811e-05
4.00819e-05
4.00826e-05
4.00833e-05
4.00839e-05
4.00844e-05
4.00848e-05
4.00852e-05
4.00855e-05
4.00857e-05
4.0086e-05
4.00861e-05
4.00862e-05
4.00863e-05
4.00864e-05
4.00281e-05
4.00304e-05
4.00325e-05
4.00346e-05
4.00366e-05
4.00387e-05
4.00409e-05
4.00432e-05
4.00455e-05
4.00478e-05
4.00502e-05
4.00525e-05
4.00548e-05
4.00571e-05
4.00593e-05
4.00614e-05
4.00635e-05
4.00654e-05
4.00672e-05
4.00689e-05
4.00706e-05
4.00721e-05
4.00735e-05
4.00748e-05
4.0076e-05
4.0077e-05
4.0078e-05
4.00789e-05
4.00797e-05
4.00804e-05
4.00811e-05
4.00817e-05
4.00822e-05
4.00826e-05
4.0083e-05
4.00833e-05
4.00836e-05
4.00838e-05
4.0084e-05
4.00842e-05
4.00843e-05
4.00242e-05
4.00262e-05
4.00281e-05
4.00299e-05
4.00317e-05
4.00337e-05
4.00357e-05
4.00379e-05
4.00401e-05
4.00425e-05
4.00448e-05
4.00472e-05
4.00495e-05
4.00518e-05
4.00541e-05
4.00563e-05
4.00584e-05
4.00604e-05
4.00623e-05
4.00642e-05
4.00659e-05
4.00676e-05
4.00691e-05
4.00705e-05
4.00718e-05
4.0073e-05
4.0074e-05
4.0075e-05
4.00759e-05
4.00767e-05
4.00774e-05
4.00781e-05
4.00786e-05
4.00791e-05
4.00795e-05
4.00799e-05
4.00802e-05
4.00805e-05
4.00807e-05
4.00809e-05
4.0081e-05
4.00198e-05
4.00215e-05
4.0023e-05
4.00245e-05
4.00261e-05
4.00279e-05
4.00298e-05
4.00318e-05
4.00339e-05
4.00361e-05
4.00383e-05
4.00406e-05
4.00429e-05
4.00452e-05
4.00475e-05
4.00498e-05
4.00519e-05
4.0054e-05
4.0056e-05
4.00579e-05
4.00597e-05
4.00614e-05
4.00629e-05
4.00644e-05
4.00657e-05
4.00669e-05
4.00681e-05
4.00691e-05
4.007e-05
4.00709e-05
4.00716e-05
4.00723e-05
4.00729e-05
4.00735e-05
4.0074e-05
4.00744e-05
4.00748e-05
4.00752e-05
4.00755e-05
4.00758e-05
4.0076e-05
4.00149e-05
4.00161e-05
4.00173e-05
4.00185e-05
4.00198e-05
4.00213e-05
4.00229e-05
4.00247e-05
4.00266e-05
4.00285e-05
4.00306e-05
4.00327e-05
4.00349e-05
4.0037e-05
4.00392e-05
4.00413e-05
4.00434e-05
4.00454e-05
4.00474e-05
4.00494e-05
4.00513e-05
4.00531e-05
4.00548e-05
4.00564e-05
4.00579e-05
4.00592e-05
4.00605e-05
4.00617e-05
4.00628e-05
4.00638e-05
4.00646e-05
4.00654e-05
4.00662e-05
4.00668e-05
4.00674e-05
4.00679e-05
4.00684e-05
4.00688e-05
4.00691e-05
4.00694e-05
4.00697e-05
4.00093e-05
4.00101e-05
4.00109e-05
4.00117e-05
4.00127e-05
4.00138e-05
4.0015e-05
4.00163e-05
4.00178e-05
4.00193e-05
4.0021e-05
4.00227e-05
4.00246e-05
4.00266e-05
4.00288e-05
4.0031e-05
4.00333e-05
4.00355e-05
4.00376e-05
4.00396e-05
4.00415e-05
4.00433e-05
4.0045e-05
4.00466e-05
4.0048e-05
4.00494e-05
4.00507e-05
4.00518e-05
4.00529e-05
4.00539e-05
4.00548e-05
4.00556e-05
4.00563e-05
4.0057e-05
4.00576e-05
4.00582e-05
4.00587e-05
4.00592e-05
4.00596e-05
4.006e-05
4.00603e-05
4.00032e-05
4.00034e-05
4.00037e-05
4.00041e-05
4.00045e-05
4.0005e-05
4.00055e-05
4.00062e-05
4.00069e-05
4.00076e-05
4.00084e-05
4.00092e-05
4.001e-05
4.00109e-05
4.00117e-05
4.00126e-05
4.00134e-05
4.0014e-05
4.00147e-05
4.00154e-05
4.00161e-05
4.00168e-05
4.00176e-05
4.00184e-05
4.00192e-05
4.002e-05
4.00208e-05
4.00216e-05
4.00223e-05
4.00231e-05
4.00238e-05
4.00245e-05
4.00252e-05
4.00258e-05
4.00264e-05
4.0027e-05
4.00276e-05
4.00281e-05
4.00286e-05
4.00291e-05
4.00296e-05
0.003355
0.00691248
0.0106036
0.0134686
0.0147681
0.0141618
0.0116679
0.00755656
0.00277006
0.00023355
9.43253e-06
8.44199e-06
3.87189e-05
4.09511e-05
3.98573e-05
4.03192e-05
4.06422e-05
4.04593e-05
4.017e-05
4.0047e-05
4.00668e-05
4.01063e-05
4.0111e-05
4.00959e-05
4.00838e-05
4.00777e-05
4.0074e-05
4.00706e-05
4.00676e-05
4.00653e-05
4.00635e-05
4.00622e-05
4.00611e-05
4.00602e-05
4.00594e-05
4.00587e-05
4.00581e-05
4.00577e-05
4.00575e-05
4.00574e-05
4.00574e-05
4.00576e-05
4.0058e-05
4.00584e-05
4.00589e-05
4.00594e-05
4.006e-05
4.00605e-05
4.0061e-05
4.00614e-05
4.00617e-05
4.00617e-05
4.00615e-05
4.0061e-05
4.00603e-05
4.00592e-05
4.00579e-05
4.00562e-05
4.00543e-05
4.00521e-05
4.00497e-05
4.00473e-05
4.0045e-05
4.00429e-05
4.00414e-05
4.00405e-05
4.00404e-05
4.00413e-05
4.00431e-05
4.00459e-05
4.00498e-05
4.00547e-05
4.00593e-05
4.00692e-05
0.00585039
0.0105694
0.014781
0.0178138
0.0191854
0.0186461
0.0162324
0.0121879
0.0068133
0.00179879
1.68822e-05
2.90229e-06
1.4748e-05
3.99232e-05
4.06525e-05
3.88235e-05
3.92123e-05
4.00895e-05
4.04771e-05
4.03968e-05
4.0189e-05
4.00735e-05
4.00629e-05
4.00839e-05
4.00913e-05
4.00846e-05
4.00765e-05
4.00722e-05
4.00701e-05
4.00682e-05
4.00664e-05
4.00648e-05
4.00636e-05
4.00625e-05
4.00616e-05
4.00607e-05
4.00601e-05
4.00596e-05
4.00593e-05
4.00592e-05
4.00593e-05
4.00596e-05
4.006e-05
4.00605e-05
4.00612e-05
4.00619e-05
4.00627e-05
4.00634e-05
4.00641e-05
4.00646e-05
4.0065e-05
4.00651e-05
4.00649e-05
4.00644e-05
4.00636e-05
4.00624e-05
4.00608e-05
4.00589e-05
4.00566e-05
4.0054e-05
4.00512e-05
4.00484e-05
4.00456e-05
4.00431e-05
4.00411e-05
4.00398e-05
4.00394e-05
4.004e-05
4.00417e-05
4.00446e-05
4.00487e-05
4.00538e-05
4.00584e-05
4.00682e-05
0.00822129
0.0143717
0.0193106
0.0226234
0.0241515
0.0237602
0.0214857
0.0175564
0.0121886
0.00584868
0.0011374
0.000190143
3.96711e-06
1.5415e-05
4.1913e-05
4.31967e-05
4.00353e-05
3.85597e-05
3.89195e-05
3.98216e-05
4.03776e-05
4.03819e-05
4.01742e-05
4.00545e-05
4.00507e-05
4.00773e-05
4.00858e-05
4.00795e-05
4.00729e-05
4.00701e-05
4.00691e-05
4.0068e-05
4.00665e-05
4.00651e-05
4.0064e-05
4.00631e-05
4.00623e-05
4.00618e-05
4.00614e-05
4.00613e-05
4.00614e-05
4.00617e-05
4.00623e-05
4.00629e-05
4.00638e-05
4.00647e-05
4.00656e-05
4.00665e-05
4.00673e-05
4.0068e-05
4.00684e-05
4.00686e-05
4.00684e-05
4.00678e-05
4.00668e-05
4.00655e-05
4.00636e-05
4.00614e-05
4.00588e-05
4.00558e-05
4.00526e-05
4.00493e-05
4.00461e-05
4.00431e-05
4.00407e-05
4.0039e-05
4.00383e-05
4.00387e-05
4.00405e-05
4.00435e-05
4.00478e-05
4.00529e-05
4.00577e-05
4.00672e-05
0.0105498
0.0183524
0.0241601
0.0278693
0.0296459
0.0294841
0.0274217
0.0236478
0.018408
0.0118572
0.0049946
0.000768392
0.000145145
3.99771e-06
1.18406e-05
4.04078e-05
4.75887e-05
4.45534e-05
4.08317e-05
3.87983e-05
3.87979e-05
3.96421e-05
4.02877e-05
4.0358e-05
4.01655e-05
4.00463e-05
4.00447e-05
4.00735e-05
4.00836e-05
4.00784e-05
4.00722e-05
4.00698e-05
4.00692e-05
4.00683e-05
4.0067e-05
4.00658e-05
4.00649e-05
4.00642e-05
4.00638e-05
4.00637e-05
4.00638e-05
4.00642e-05
4.00648e-05
4.00656e-05
4.00666e-05
4.00676e-05
4.00687e-05
4.00698e-05
4.00707e-05
4.00715e-05
4.0072e-05
4.00721e-05
4.00719e-05
4.00712e-05
4.00701e-05
4.00685e-05
4.00664e-05
4.00639e-05
4.00609e-05
4.00575e-05
4.00539e-05
4.00501e-05
4.00464e-05
4.0043e-05
4.00401e-05
4.00381e-05
4.00372e-05
4.00376e-05
4.00394e-05
4.00426e-05
4.0047e-05
4.00522e-05
4.00571e-05
4.00664e-05
0.0130371
0.0225713
0.0292835
0.033491
0.0356165
0.0357752
0.0340185
0.0304877
0.0254198
0.019005
0.0115405
0.00450026
0.000598031
0.000180339
2.70532e-06
1.02511e-05
2.62343e-05
4.20305e-05
4.77083e-05
4.56881e-05
4.15767e-05
3.9059e-05
3.88334e-05
3.95782e-05
4.02105e-05
4.03309e-05
4.01741e-05
4.00538e-05
4.00422e-05
4.00692e-05
4.00825e-05
4.00794e-05
4.00733e-05
4.00703e-05
4.00695e-05
4.00689e-05
4.0068e-05
4.00671e-05
4.00665e-05
4.00664e-05
4.00665e-05
4.00669e-05
4.00676e-05
4.00685e-05
4.00696e-05
4.00708e-05
4.0072e-05
4.00732e-05
4.00743e-05
4.00751e-05
4.00756e-05
4.00758e-05
4.00755e-05
4.00747e-05
4.00733e-05
4.00715e-05
4.00691e-05
4.00662e-05
4.00628e-05
4.0059e-05
4.00549e-05
4.00507e-05
4.00465e-05
4.00427e-05
4.00395e-05
4.00372e-05
4.00362e-05
4.00365e-05
4.00385e-05
4.00419e-05
4.00463e-05
4.00516e-05
4.00565e-05
4.00655e-05
0.0166881
0.0270969
0.0346249
0.0394055
0.0419751
0.0425494
0.0412035
0.0380378
0.0332429
0.0270444
0.0196574
0.0116095
0.00459941
0.000812814
0.000354873
1.10121e-05
5.89303e-06
1.03948e-05
2.23467e-05
3.91439e-05
4.65954e-05
4.65784e-05
4.23231e-05
3.92603e-05
3.88107e-05
3.95001e-05
4.01376e-05
4.03061e-05
4.01849e-05
4.00644e-05
4.00414e-05
4.00649e-05
4.00814e-05
4.00811e-05
4.00752e-05
4.00714e-05
4.00704e-05
4.00702e-05
4.00698e-05
4.00695e-05
4.00695e-05
4.00699e-05
4.00707e-05
4.00717e-05
4.00729e-05
4.00742e-05
4.00755e-05
4.00768e-05
4.00779e-05
4.00788e-05
4.00794e-05
4.00794e-05
4.0079e-05
4.00781e-05
4.00765e-05
4.00744e-05
4.00716e-05
4.00684e-05
4.00646e-05
4.00604e-05
4.00558e-05
4.00511e-05
4.00465e-05
4.00423e-05
4.00388e-05
4.00364e-05
4.00352e-05
4.00357e-05
4.00377e-05
4.00413e-05
4.00458e-05
4.00511e-05
4.0056e-05
4.00648e-05
0.0214347
0.0319247
0.040143
0.0455165
0.0485996
0.0496761
0.0488466
0.0461812
0.0418117
0.0359412
0.0288134
0.0207322
0.0124699
0.00565191
0.00169621
5.84172e-05
0.000276814
5.95421e-05
4.93127e-06
9.3208e-06
1.44303e-05
3.47465e-05
4.46347e-05
4.72754e-05
4.33677e-05
3.96766e-05
3.88236e-05
3.93938e-05
4.00705e-05
4.03086e-05
4.02144e-05
4.0082e-05
4.00408e-05
4.00584e-05
4.00787e-05
4.00827e-05
4.00779e-05
4.00736e-05
4.00722e-05
4.00725e-05
4.0073e-05
4.00735e-05
4.00741e-05
4.0075e-05
4.00763e-05
4.00777e-05
4.00792e-05
4.00805e-05
4.00817e-05
4.00826e-05
4.00831e-05
4.00831e-05
4.00826e-05
4.00814e-05
4.00796e-05
4.00771e-05
4.00741e-05
4.00704e-05
4.00662e-05
4.00615e-05
4.00566e-05
4.00515e-05
4.00465e-05
4.00419e-05
4.00382e-05
4.00356e-05
4.00345e-05
4.0035e-05
4.00372e-05
4.00408e-05
4.00454e-05
4.00507e-05
4.00556e-05
4.00641e-05
0.0270293
0.0370758
0.0458033
0.0517124
0.0553339
0.0569767
0.0567565
0.054723
0.0509515
0.0455886
0.0388651
0.031071
0.0226686
0.0145806
0.00804549
0.00376059
0.00149046
0.000321471
0.000424312
0.000132796
3.12559e-06
7.63496e-06
1.29743e-06
2.91341e-05
4.20078e-05
4.79195e-05
4.46182e-05
4.05007e-05
3.8974e-05
3.92256e-05