/*--------------------------------*- C++ -*----------------------------------*\
| =========                 |                                                 |
| \\      /  F ield         | OpenFOAM: The Open Source CFD Toolbox           |
|  \\    /   O peration     | Version:  2312                                  |
|   \\  /    A nd           | Website:  www.openfoam.com                      |
|    \\/     M anipulation  |                                                 |
\*---------------------------------------------------------------------------*/
FoamFile
{
    version     2.0;
    format      ascii;
    arch        "LSB;label=32;scalar=64";
    class       volScalarField;
    location    "550";
    object      p;
}
// * * * * * * * * * * * * * * * * * * * * * * * * * * * * * * * * * * * * * //

dimensions      [0 2 -2 0 0 0 0];

internalField   nonuniform List<scalar> 
11040
(
-19.0977
-24.6291
-19.8979
-19.2572
-19.1354
-18.9294
-18.7228
-18.5508
-18.4185
-18.3243
-18.2391
-18.1692
-18.1129
-18.0619
-18.023
-17.9912
-17.9689
-17.9556
-17.9509
-17.9563
-17.9695
-17.9922
-18.0274
-18.0736
-18.1253
-18.176
-18.2178
-18.24
-18.2308
-18.1779
-18.0703
-17.8991
-17.6602
-17.3557
-16.9997
-16.6174
-16.2304
-15.8967
-15.7782
-15.6682
-15.9796
-8.17947
-14.7432
-18.577
-19.08
-19.0949
-18.9415
-18.7353
-18.5591
-18.421
-18.3251
-18.2391
-18.1676
-18.1107
-18.0589
-18.0194
-17.9872
-17.9642
-17.9505
-17.9453
-17.9502
-17.9632
-17.9857
-18.0204
-18.0661
-18.1179
-18.1692
-18.2121
-18.2361
-18.2296
-18.18
-18.0762
-17.9091
-17.675
-17.3753
-17.0239
-16.6456
-16.2627
-15.9285
-15.8127
-15.6844
-16.3683
-1.52366
-8.46646
-14.6444
-17.9989
-18.8398
-18.8934
-18.7433
-18.5674
-18.4201
-18.3234
-18.2374
-18.1643
-18.1073
-18.0548
-18.0146
-17.9819
-17.9584
-17.9442
-17.9385
-17.9428
-17.9555
-17.978
-18.0124
-18.0578
-18.1094
-18.1611
-18.205
-18.2307
-18.2268
-18.1808
-18.0814
-17.9198
-17.6919
-17.3994
-17.0553
-16.6847
-16.3106
-15.9818
-15.8776
-15.7275
-16.563
2.40192
-4.65882
-10.5886
-14.933
-17.6077
-18.5981
-18.6624
-18.5682
-18.4191
-18.3193
-18.2335
-18.1582
-18.1021
-18.0486
-18.0079
-17.9746
-17.9504
-17.9357
-17.9295
-17.9331
-17.9454
-17.9681
-18.0023
-18.0474
-18.0992
-18.1516
-18.197
-18.2251
-18.2247
-18.1835
-18.0902
-17.9358
-17.7163
-17.4332
-17.0989
-16.7383
-16.3754
-16.0561
-15.9645
-15.8074
-16.6343
4.91264
-0.860178
-6.52663
-11.253
-14.8348
-17.2088
-18.2713
-18.4062
-18.4116
-18.3191
-18.231
-18.1487
-18.0946
-18.0401
-17.9993
-17.9655
-17.9405
-17.9252
-17.9183
-17.9213
-17.933
-17.9556
-17.9896
-18.0345
-18.0866
-18.1401
-18.1875
-18.219
-18.2233
-18.1885
-18.1032
-17.9585
-17.7502
-17.4797
-17.1585
-16.8113
-16.4629
-16.1579
-16.0745
-15.9277
-16.6662
6.34383
1.83131
-3.04139
-7.71761
-11.6146
-14.5745
-16.6884
-17.8207
-18.1701
-18.2626
-18.232
-18.1415
-18.0856
-18.0281
-17.9881
-17.9542
-17.9284
-17.9128
-17.9051
-17.9073
-17.9182
-17.9405
-17.9741
-18.0187
-18.0712
-18.1261
-18.1762
-18.212
-18.2226
-18.1961
-18.1213
-17.9893
-17.7956
-17.5414
-17.2376
-16.9081
-16.5784
-16.293
-16.2107
-16.0925
-16.7067
7.11577
3.50287
-0.44323
-4.53466
-8.40041
-11.6598
-14.1915
-16.0937
-17.3239
-17.9128
-18.0627
-18.1341
-18.0836
-18.0176
-17.9732
-17.9393
-17.9137
-17.8982
-17.8898
-17.8912
-17.901
-17.9225
-17.9554
-17.9997
-18.0526
-18.1093
-18.1628
-18.2042
-18.2227
-18.2069
-18.1454
-18.0296
-17.8547
-17.6214
-17.3399
-17.0329
-16.7264
-16.4652
-16.3783
-16.3001
-16.7761
7.42107
4.49156
1.35066
-2.01006
-5.44394
-8.70502
-11.5235
-13.7566
-15.4851
-16.7652
-17.5206
-17.849
-17.9906
-18.0224
-17.9647
-17.9244
-17.894
-17.8798
-17.8716
-17.8729
-17.8814
-17.9017
-17.9334
-17.9769
-18.0302
-18.0888
-18.1465
-18.1947
-18.2232
-18.2207
-18.1762
-18.0807
-17.9292
-17.722
-17.4683
-17.1891
-16.9103
-16.6759
-16.5832
-16.5434
-16.8812
7.42045
5.00735
2.48393
-0.228559
-3.09378
-5.99459
-8.78451
-11.2678
-13.2926
-14.883
-16.1308
-17.0283
-17.5547
-17.7859
-17.9203
-17.928
-17.8794
-17.8597
-17.8479
-17.8507
-17.8586
-17.8777
-17.9078
-17.9502
-18.0035
-18.0641
-18.1265
-18.1828
-18.2233
-18.2371
-18.2131
-18.1425
-18.0197
-17.8444
-17.6242
-17.3779
-17.1309
-16.9237
-16.8272
-16.811
-17.0223
7.20685
5.18475
3.1262
0.940244
-1.39969
-3.84329
-6.31481
-8.72216
-10.9324
-12.804
-14.2867
-15.4794
-16.4466
-17.1312
-17.5254
-17.7326
-17.858
-17.8598
-17.8284
-17.8257
-17.8297
-17.8481
-17.8775
-17.9187
-17.972
-18.0346
-18.1021
-18.1674
-18.2216
-18.2542
-18.2544
-18.2131
-18.1242
-17.9863
-17.8051
-17.5965
-17.3836
-17.2016
-17.1028
-17.0866
-17.1933
6.84803
5.12816
3.42042
1.64208
-0.25818
-2.2744
-4.36918
-6.48928
-8.5747
-10.5424
-12.277
-13.702
-14.8521
-15.8136
-16.5914
-17.1452
-17.4763
-17.688
-17.815
-17.8231
-17.8043
-17.8136
-17.8384
-17.8784
-17.933
-17.9984
-18.0716
-18.1469
-18.2161
-18.2695
-18.2967
-18.2883
-18.2371
-18.1405
-18.0019
-17.8337
-17.6549
-17.4943
-17.3903
-17.3517
-17.3754
6.39214
4.91013
3.46968
2.0019
0.451088
-1.19857
-2.93895
-4.74224
-6.56919
-8.37752
-10.1166
-11.718
-13.1032
-14.2378
-15.1734
-15.9745
-16.6312
-17.1129
-17.4229
-17.6494
-17.7851
-17.8081
-17.8066
-17.8326
-17.8821
-17.9486
-18.0287
-18.1161
-18.2025
-18.2787
-18.3348
-18.3611
-18.3494
-18.2952
-18.1991
-18.069
-17.9202
-17.7739
-17.6575
-17.5808
-17.5366
5.87577
4.58521
3.35248
2.12244
0.841937
-0.511503
-1.94354
-3.44805
-5.00497
-6.58304
-8.14913
-9.6784
-11.1378
-12.4666
-13.6028
-14.5379
-15.329
-16.0217
-16.6034
-17.0462
-17.3423
-17.58
-17.7642
-17.8404
-17.8605
-17.8982
-17.9696
-18.0632
-18.1663
-18.2669
-18.3543
-18.4173
-18.4461
-18.4338
-18.3778
-18.2816
-18.1547
-18.0113
-17.8697
-17.7446
-17.6387
5.32651
4.19371
3.12634
2.08096
1.00948
-0.111032
-1.29102
-2.53415
-3.83623
-5.1814
-6.5443
-7.90398
-9.24661
-10.5538
-11.7932
-12.9143
-13.8734
-14.6746
-15.3692
-15.9904
-16.5331
-16.9225
-17.18
-17.4368
-17.7024
-17.8934
-17.9915
-18.0529
-18.1252
-18.2191
-18.3228
-18.4181
-18.4874
-18.5185
-18.5024
-18.4382
-18.3287
-18.1825
-18.0105
-17.8328
-17.6623
4.76515
3.76555
2.83341
1.93474
1.02691
0.0887686
-0.890535
-1.91827
-2.99744
-4.12367
-5.28379
-6.46296
-7.64714
-8.82242
-9.97811
-11.1012
-12.1665
-13.1349
-13.9769
-14.6973
-15.3573
-15.9017
-16.3026
-16.6414
-16.927
-17.1928
-17.4992
-17.8256
-18.0952
-18.2725
-18.3785
-18.4454
-18.4894
-18.5118
-18.5044
-18.4562
-18.3602
-18.2184
-18.032
-17.8158
-17.5905
4.21132
3.32642
2.50719
1.72726
0.949414
0.155086
-0.665585
-1.52051
-2.41505
-3.35053
-4.3218
-5.32206
-6.3429
-7.37204
-8.39748
-9.41064
-10.406
-11.3756
-12.3035
-13.1595
-13.9295
-14.5742
-15.0896
-15.5329
-15.9275
-16.2775
-16.5815
-16.8481
-17.1197
-17.4399
-17.7977
-18.1305
-18.3782
-18.5177
-18.5539
-18.503
-18.3791
-18.1904
-17.9365
-17.6407
-17.3366
3.68689
2.90262
2.17993
1.49812
0.82525
0.145482
-0.549498
-1.26701
-2.01288
-2.79035
-3.5985
-4.43518
-5.29701
-6.17727
-7.06696
-7.95658
-8.83779
-9.70502
-10.5554
-11.385
-12.1852
-12.9186
-13.5576
-14.1088
-14.5916
-15.0235
-15.4133
-15.7666
-16.0874
-16.3725
-16.62
-16.8432
-17.0632
-17.2897
-17.5017
-17.6649
-17.7451
-17.7262
-17.5937
-17.3651
-17.0807
3.22266
2.5229
1.88042
1.27782
0.68756
0.0964341
-0.502441
-1.11542
-1.74777
-2.40294
-3.08192
-3.78484
-4.51078
-5.25644
-6.01671
-6.78535
-7.55521
-8.3195
-9.07247
-9.81066
-10.5309
-11.209
-11.8306
-12.3971
-12.9081
-13.3671
-13.7809
-14.1583
-14.5055
-14.8249
-15.118
-15.3832
-15.6125
-15.7983
-15.9297
-16.0041
-16.0213
-15.9912
-15.9001
-15.7461
-15.5661
2.82673
2.19688
1.62034
1.08172
0.557131
0.0354772
-0.489061
-1.02204
-1.56819
-2.13075
-2.71099
-3.30998
-3.92786
-4.56305
-5.21259
-5.87275
-6.53885
-7.20582
-7.868
-8.51965
-9.15502
-9.74792
-10.2844
-10.7718
-11.2151
-11.6203
-11.9916
-12.3321
-12.6443
-12.9302
-13.1909
-13.4255
-13.6299
-13.7998
-13.9282
-14.0091
-14.035
-14.0077
-13.919
-13.7612
-13.5718
2.49092
1.92062
1.39969
0.914271
0.443511
-0.0219179
-0.487036
-0.956648
-1.4349
-1.92465
-2.42713
-2.94367
-3.4749
-4.02002
-4.57721
-5.14398
-5.71705
-6.29271
-6.86678
-7.43479
-7.99207
-8.51553
-8.99069
-9.42088
-9.80715
-10.1521
-10.4592
-10.732
-10.9737
-11.1862
-11.3703
-11.5257
-11.6521
-11.7483
-11.8127
-11.8427
-11.8352
-11.7887
-11.7004
-11.5629
-11.3884
2.20436
1.68574
1.21278
0.772668
0.347405
-0.0710767
-0.487016
-0.904726
-1.32767
-1.75843
-2.19803
-2.64774
-3.10824
-3.57923
-4.05937
-4.54703
-5.03967
-5.53453
-6.02817
-6.51702
-6.9971
-7.44941
-7.86162
-8.23553
-8.57068
-8.86777
-9.12795
-9.35263
-9.54328
-9.70135
-9.82832
-9.92523
-9.99309
-10.0317
-10.0417
-10.0221
-9.97341
-9.89338
-9.78461
-9.6455
-9.47917
1.95874
1.4858
1.05482
0.654193
0.268161
-0.11005
-0.484314
-0.85825
-1.235
-1.61659
-2.00412
-2.39838
-2.80025
-3.20937
-3.62492
-4.04546
-4.46919
-4.89374
-5.3164
-5.73399
-6.14312
-6.52774
-6.87787
-7.19466
-7.47756
-7.72684
-7.94317
-8.1273
-8.28006
-8.40231
-8.49487
-8.55863
-8.59438
-8.60313
-8.5861
-8.54424
-8.47872
-8.38982
-8.28054
-8.1509
-8.00429
1.74745
1.31517
0.921439
0.555594
0.204012
-0.139163
-0.477347
-0.813733
-1.151
-1.49087
-1.83426
-2.18179
-2.53414
-2.89104
-3.2518
-3.61524
-3.97987
-4.34373
-4.70455
-5.05962
-5.40603
-5.73043
-6.02468
-6.28958
-6.52448
-6.72947
-6.90507
-7.05195
-7.17087
-7.26274
-7.32844
-7.36903
-7.38542
-7.37886
-7.35047
-7.30138
-7.23255
-7.14512
-7.04132
-6.92188
-6.78955
1.56504
1.16935
0.808893
0.474062
0.153037
-0.1592
-0.465748
-0.769367
-1.0724
-1.37624
-1.68168
-1.98917
-2.2992
-2.6115
-2.92547
-3.24007
-3.55402
-3.86565
-4.17303
-4.47384
-4.76557
-5.03722
-5.28235
-5.50162
-5.69438
-5.86078
-6.00123
-6.11649
-6.20721
-6.27446
-6.31907
-6.34234
-6.34515
-6.32894
-6.29475
-6.244
-6.17753
-6.09675
-6.00325
-5.89811
-5.78299
1.40727
1.04451
0.714027
0.407005
0.113352
-0.171356
-0.449841
-0.724592
-0.997546
-1.26994
-1.54234
-1.81516
-2.08861
-2.36251
-2.6362
-2.90883
-3.17923
-3.44598
-3.70739
-3.9615
-4.20615
-4.43235
-4.63516
-4.81515
-4.97192
-5.1056
-5.21676
-5.30602
-5.37428
-5.42239
-5.45149
-5.46258
-5.45696
-5.43561
-5.40006
-5.35124
-5.29047
-5.21849
-5.13727
-5.0472
-4.95052
1.27043
0.937587
0.634145
0.352231
0.0831983
-0.176813
-0.430259
-0.679327
-0.925675
-1.17033
-1.41375
-1.65623
-1.89787
-2.13843
-2.37732
-2.61374
-2.84667
-3.07488
-3.29692
-3.51111
-3.71565
-3.90321
-4.07013
-4.21699
-4.34358
-4.45012
-4.53726
-4.60567
-4.65625
-4.68986
-4.70764
-4.71054
-4.69979
-4.67635
-4.6416
-4.5964
-4.54195
-4.47889
-4.40897
-4.33239
-4.25137
1.15165
0.845902
0.567
0.307811
0.0610315
-0.176734
-0.407707
-0.633808
-0.856461
-1.07651
-1.29434
-1.51012
-1.72391
-1.93541
-2.14408
-2.34917
-2.54983
-2.74496
-2.93337
-3.11358
-3.28418
-3.43918
-3.57603
-3.69526
-3.79691
-3.88123
-3.949
-4.00083
-4.0377
-4.06038
-4.07001
-4.06741
-4.05379
-4.02995
-3.99716
-3.95613
-3.90794
-3.8531
-3.7931
-3.728
-3.65983
1.04835
0.767326
0.510652
0.272111
0.0454963
-0.172165
-0.382893
-0.588372
-0.789822
-0.987954
-1.18306
-1.37526
-1.56455
-1.75063
-1.93297
-2.11093
-2.28376
-2.45054
-2.61022
-2.76167
-2.90364
-3.03144
-3.14322
-3.2397
-3.32088
-3.38729
-3.43954
-3.47845
-3.50476
-3.51943
-3.52326
-3.51727
-3.50227
-3.47923
-3.44898
-3.41239
-3.37013
-3.32284
-3.27154
-3.21646
-3.15912
0.958526
0.699928
0.463518
0.243734
0.0354247
-0.164031
-0.356479
-0.543388
-0.725815
-0.90435
-1.07923
-1.25053
-1.41822
-1.582
-1.74138
-1.89581
-2.04464
-2.18712
-2.32238
-2.4495
-2.5675
-2.67266
-2.76378
-2.8416
-2.90626
-2.95831
-2.99836
-3.02724
-3.04564
-3.05445
-3.05439
-3.04637
-3.03111
-3.00943
-2.98205
-2.9497
-2.91296
-2.87233
-2.82868
-2.78212
-2.73403
0.880333
0.642222
0.424188
0.221489
0.0298217
-0.153139
-0.329038
-0.499208
-0.664516
-0.825508
-0.982334
-1.13509
-1.28367
-1.42787
-1.56719
-1.70121
-1.82933
-1.95102
-2.06551
-2.17215
-2.2701
-2.35653
-2.43067
-2.49334
-2.54467
-2.58531
-2.61582
-2.63702
-2.64951
-2.65414
-2.65153
-2.64249
-2.62762
-2.60767
-2.58319
-2.55485
-2.52307
-2.48831
-2.45124
-2.41194
-2.37162
0.812312
0.592789
0.391526
0.204357
0.0278186
-0.140158
-0.301088
-0.456118
-0.60603
-0.751258
-0.891974
-1.0282
-1.15991
-1.28685
-1.40867
-1.52494
-1.63525
-1.7391
-1.83601
-1.92536
-2.00666
-2.07758
-2.13787
-2.1882
-2.22892
-2.2605
-2.28365
-2.29897
-2.30718
-2.30887
-2.30475
-2.29536
-2.28138
-2.26327
-2.24167
-2.21697
-2.18966
-2.15996
-2.12859
-2.0954
-2.06164
0.753124
0.550559
0.364487
0.19148
0.0287001
-0.125685
-0.273039
-0.414394
-0.550413
-0.681496
-0.807786
-0.929323
-1.04607
-1.15783
-1.26433
-1.3652
-1.46014
-1.54878
-1.63076
-1.70562
-1.77304
-1.83122
-1.88021
-1.92062
-1.95286
-1.97737
-1.99484
-2.00579
-2.01089
-2.01066
-2.00571
-1.9965
-1.98362
-1.96745
-1.94852
-1.92714
-1.90373
-1.87846
-1.85192
-1.82395
-1.79566
0.701693
0.514486
0.342261
0.18211
0.0318348
-0.110194
-0.24526
-0.374223
-0.497729
-0.616074
-0.729468
-0.837889
-0.941391
-1.03977
-1.13288
-1.22037
-1.30208
-1.37769
-1.44703
-1.50972
-1.56564
-1.61334
-1.65315
-1.68558
-1.7111
-1.73008
-1.7432
-1.75091
-1.75382
-1.75234
-1.74706
-1.73834
-1.72667
-1.71238
-1.69591
-1.67751
-1.65753
-1.6361
-1.6137
-1.59017
-1.56649
0.657025
0.483779
0.32407
0.175622
0.0367084
-0.0941205
-0.218019
-0.335791
-0.447968
-0.554882
-0.656682
-0.753444
-0.845163
-0.931779
-1.01313
-1.08903
-1.15929
-1.22382
-1.28243
-1.33499
-1.38132
-1.4205
-1.45282
-1.47893
-1.49911
-1.51387
-1.52367
-1.52906
-1.53045
-1.52832
-1.52303
-1.51503
-1.50461
-1.49215
-1.47791
-1.46219
-1.44518
-1.42708
-1.40819
-1.38844
-1.36862
0.618308
0.457659
0.309316
0.171461
0.0428668
-0.0777923
-0.19157
-0.299195
-0.401146
-0.497748
-0.589163
-0.675495
-0.756772
-0.832989
-0.90405
-0.969853
-1.03028
-1.08531
-1.13485
-1.17886
-1.21727
-1.24942
-1.27569
-1.29667
-1.31264
-1.32408
-1.33138
-1.33505
-1.33543
-1.33295
-1.3279
-1.32067
-1.3115
-1.3007
-1.28848
-1.27511
-1.26072
-1.24549
-1.22965
-1.21313
-1.19662
0.5848
0.435528
0.297417
0.169177
0.0499283
-0.0614997
-0.166103
-0.264523
-0.357229
-0.444525
-0.526612
-0.603615
-0.675613
-0.742643
-0.804683
-0.861703
-0.913648
-0.960568
-1.00245
-1.03933
-1.07122
-1.09765
-1.11907
-1.13603
-1.14875
-1.1577
-1.16321
-1.16572
-1.16553
-1.16301
-1.15839
-1.15201
-1.14407
-1.13482
-1.12443
-1.11313
-1.10102
-1.08824
-1.07498
-1.06119
-1.04744
0.555888
0.416808
0.287925
0.16835
0.0575718
-0.0455002
-0.14176
-0.231849
-0.316159
-0.395065
-0.468738
-0.5374
-0.601115
-0.660025
-0.71412
-0.763486
-0.808077
-0.848038
-0.883381
-0.914239
-0.940643
-0.962323
-0.979727
-0.993366
-1.00344
-1.01037
-1.01444
-1.01606
-1.01546
-1.01298
-1.0088
-1.00322
-0.996379
-0.988517
-0.979749
-0.970273
-0.96016
-0.949536
-0.938548
-0.927134
-0.915812
0.531005
0.401035
0.280403
0.168644
0.0655036
-0.0299856
-0.118691
-0.201185
-0.277902
-0.349182
-0.415294
-0.476433
-0.532784
-0.584464
-0.631607
-0.674276
-0.712564
-0.746573
-0.776467
-0.802325
-0.824325
-0.842213
-0.856545
-0.867666
-0.875858
-0.881381
-0.884597
-0.885741
-0.885112
-0.882889
-0.87933
-0.874577
-0.868846
-0.862237
-0.854938
-0.847018
-0.838627
-0.829779
-0.820682
-0.811191
-0.801838
0.509624
0.387714
0.274455
0.169711
0.073469
-0.0151586
-0.0969901
-0.17258
-0.242373
-0.306739
-0.365989
-0.420361
-0.470088
-0.515333
-0.556278
-0.593043
-0.625758
-0.654557
-0.679642
-0.701127
-0.719213
-0.733746
-0.745284
-0.754125
-0.760527
-0.764719
-0.767024
-0.767646
-0.766842
-0.764763
-0.76163
-0.757558
-0.75273
-0.747221
-0.741191
-0.734688
-0.727838
-0.720646
-0.713282
-0.705616
-0.698109
0.491288
0.376419
0.269662
0.171199
0.0811786
-0.00121842
-0.0767809
-0.146064
-0.209524
-0.267577
-0.320579
-0.368828
-0.412602
-0.452122
-0.487622
-0.519282
-0.547276
-0.571778
-0.593012
-0.611114
-0.626301
-0.638489
-0.648188
-0.655645
-0.661077
-0.664675
-0.666714
-0.667355
-0.666816
-0.665212
-0.662729
-0.659455
-0.655543
-0.651053
-0.646119
-0.640775
-0.635134
-0.629192
-0.6231
-0.616745
-0.610514
0.475787
0.366941
0.265809
0.172856
0.0883908
0.0116407
-0.0581928
-0.121677
-0.179327
-0.231575
-0.27885
-0.321483
-0.359822
-0.394107
-0.424607
-0.451514
-0.475038
-0.495367
-0.512753
-0.527359
-0.539417
-0.548904
-0.556324
-0.561895
-0.565817
-0.56826
-0.569474
-0.569597
-0.56882
-0.567239
-0.565014
-0.562211
-0.558962
-0.555307
-0.551356
-0.54713
-0.542722
-0.538119
-0.533441
-0.528587
-0.523885
0.462961
0.359256
0.262931
0.174728
0.0950989
0.0233652
-0.04126
-0.0994166
-0.151683
-0.19859
-0.240597
-0.278115
-0.311524
-0.341192
-0.367441
-0.390568
-0.410769
-0.428255
-0.443222
-0.455865
-0.466358
-0.474754
-0.481436
-0.486611
-0.490391
-0.492957
-0.494456
-0.495046
-0.494822
-0.493911
-0.492386
-0.490355
-0.487869
-0.485017
-0.481835
-0.478402
-0.474737
-0.470895
-0.466915
-0.462794
-0.458713
0.451888
0.352515
0.260451
0.176504
0.101205
0.0339424
-0.0260043
-0.0792823
-0.126532
-0.1684
-0.205462
-0.238197
-0.266963
-0.292055
-0.313746
-0.332353
-0.348175
-0.361512
-0.372621
-0.381713
-0.388984
-0.394507
-0.398684
-0.4017
-0.403668
-0.404745
-0.405073
-0.404785
-0.403974
-0.402739
-0.401145
-0.399276
-0.397171
-0.394895
-0.392469
-0.389949
-0.387344
-0.38469
-0.382006
-0.379277
-0.376664
0.441038
0.344798
0.256325
0.17643
0.10544
0.0426321
-0.012806
-0.061529
-0.104145
-0.141278
-0.173573
-0.201706
-0.226332
-0.248017
-0.267147
-0.283924
-0.29846
-0.310895
-0.321441
-0.330289
-0.337632
-0.343552
-0.348357
-0.352161
-0.355054
-0.357141
-0.35853
-0.359305
-0.359538
-0.359295
-0.358631
-0.357605
-0.356255
-0.354635
-0.352773
-0.350716
-0.348482
-0.34611
-0.343618
-0.341036
-0.338421
0.431853
0.337122
0.250747
0.173806
0.106641
0.0483205
-0.00227818
-0.0461609
-0.084172
-0.116983
-0.145073
-0.168775
-0.188379
-0.204249
-0.216935
-0.22711
-0.235355
-0.241993
-0.247227
-0.251191
-0.25405
-0.255869
-0.256981
-0.25749
-0.257479
-0.257041
-0.256283
-0.255279
-0.254098
-0.252788
-0.251395
-0.249955
-0.248496
-0.24704
-0.2456
-0.244196
-0.242833
-0.241519
-0.24026
-0.239039
-0.237947
0.430458
0.337102
0.251444
0.175194
0.109303
0.0533508
0.0063479
-0.0328743
-0.0656175
-0.0931957
-0.116838
-0.137574
-0.156152
-0.172946
-0.187942
-0.200856
-0.211623
-0.220518
-0.227957
-0.234201
-0.239465
-0.243863
-0.247614
-0.250759
-0.253369
-0.255484
-0.257182
-0.258481
-0.259437
-0.26006
-0.260398
-0.260462
-0.260293
-0.259901
-0.259325
-0.258573
-0.257675
-0.256645
-0.255498
-0.254285
-0.252943
0.433987
0.343408
0.259814
0.184524
0.118657
0.0623491
0.015289
-0.0230635
-0.0534127
-0.0765939
-0.0935127
-0.105092
-0.112332
-0.116254
-0.118041
-0.118706
-0.118726
-0.118106
-0.116899
-0.115139
-0.112982
-0.11042
-0.10773
-0.104942
-0.102147
-0.0993517
-0.0966547
-0.0940508
-0.0916045
-0.0892956
-0.0871683
-0.0851945
-0.0834015
-0.0817592
-0.0802816
-0.0789411
-0.0777473
-0.0766707
-0.0757168
-0.0748487
-0.0741111
0.414594
0.322206
0.241576
0.17209
0.112925
0.0628292
0.0205366
-0.0150532
-0.0449045
-0.069881
-0.0907587
-0.108239
-0.122925
-0.135337
-0.145839
-0.154784
-0.16245
-0.16876
-0.174057
-0.178781
-0.183136
-0.187297
-0.191192
-0.194845
-0.198253
-0.201493
-0.20453
-0.207426
-0.210139
-0.212741
-0.215192
-0.217567
-0.219824
-0.222042
-0.224175
-0.226302
-0.228373
-0.230472
-0.232524
-0.234671
-0.236691
-14.6938
-13.489
-12.8049
-12.9525
-13.2977
-13.4846
-13.4582
-13.2
-12.716
-11.9801
-11.1421
-10.1826
-9.22366
-8.25962
-7.32425
-6.44508
-5.63738
-4.89318
-4.23679
-3.63576
-3.12179
-2.65484
-2.25514
-1.90436
-1.60086
-1.33653
-1.11072
-0.913188
-0.744566
-0.599859
-0.474933
-0.368964
-0.276684
-0.19947
-0.132881
-0.0754914
-0.0276462
0.014187
0.0490477
0.0796522
0.104091
0.126209
0.144884
0.15925
0.173195
0.183093
0.192461
0.199977
0.205687
0.210386
0.214467
0.217146
0.219077
0.22019
0.220483
0.219863
0.218791
0.215958
0.213182
0.208234
0.20333
0.195964
0.188901
0.179441
0.168495
0.157331
0.143147
0.129406
0.11238
0.0955911
0.0734755
0.0588727
0.0217673
0.0304963
-15.3545
-14.1989
-13.3762
-13.337
-13.5589
-13.6721
-13.603
-13.328
-12.8468
-12.1227
-11.2645
-10.2848
-9.30304
-8.32238
-7.37357
-6.48416
-5.66689
-4.91672
-4.25274
-3.64864
-3.12923
-2.66009
-2.25789
-1.9053
-1.60042
-1.33517
-1.10843
-0.910586
-0.741653
-0.596759
-0.471954
-0.365967
-0.274043
-0.197023
-0.130631
-0.0736217
-0.0260253
0.0154845
0.0501016
0.0802495
0.104526
0.126397
0.144691
0.158933
0.172556
0.182316
0.191492
0.198799
0.204408
0.209001
0.213
0.215637
0.217556
0.218686
0.219012
0.218527
0.217514
0.214858
0.212176
0.207437
0.202628
0.195539
0.188573
0.179262
0.168514
0.157433
0.143465
0.12978
0.112871
0.0961382
0.0741254
0.059499
0.0224425
0.0309857
-15.8112
-14.9286
-14.0413
-13.8146
-13.8962
-13.9228
-13.7977
-13.4891
-12.9927
-12.2775
-11.4105
-10.4092
-9.39748
-8.39385
-7.42757
-6.52449
-5.69592
-4.93815
-4.26649
-3.65879
-3.13414
-2.66297
-2.25827
-1.90415
-1.59808
-1.33219
-1.10472
-0.906773
-0.737696
-0.592835
-0.468199
-0.362373
-0.270812
-0.194047
-0.127979
-0.0713855
-0.0240851
0.0170561
0.0513618
0.0810909
0.105168
0.126737
0.144674
0.158766
0.172062
0.181671
0.190643
0.19774
0.203232
0.207718
0.211615
0.214205
0.216098
0.217241
0.217612
0.217203
0.216266
0.213757
0.211178
0.206621
0.20193
0.195067
0.188201
0.179047
0.168478
0.157492
0.143715
0.130089
0.113298
0.0966193
0.0747144
0.0600563
0.0230594
0.0313995
-16.2125
-15.5721
-14.7309
-14.3683
-14.3145
-14.2521
-14.0653
-13.71
-13.1785
-12.4476
-11.5734
-10.5572
-9.51193
-8.47768
-7.48812
-6.56668
-5.72462
-4.95703
-4.27752
-3.66517
-3.13568
-2.66248
-2.25546
-1.90012
-1.59318
-1.32693
-1.09905
-0.901237
-0.732259
-0.587692
-0.463363
-0.357923
-0.266802
-0.190403
-0.124797
-0.0686769
-0.0217524
0.0189667
0.0528792
0.0822162
0.106034
0.127245
0.144846
0.15875
0.171719
0.181157
0.189906
0.196799
0.202168
0.206538
0.210318
0.212859
0.214713
0.21586
0.216281
0.215898
0.215049
0.212655
0.210186
0.20578
0.201225
0.194534
0.187772
0.178783
0.168372
0.157493
0.143881
0.130315
0.113646
0.0970227
0.0752285
0.060529
0.0236117
0.0317311
-16.5484
-16.1092
-15.3923
-14.9612
-14.7917
-14.6436
-14.3945
-13.9886
-13.4124
-12.6467
-11.7482
-10.7199
-9.64597
-8.57706
-7.55779
-6.61263
-5.75337
-4.97399
-4.28533
-3.66789
-3.13338
-2.65832
-2.24916
-1.89292
-1.58542
-1.31913
-1.09121
-0.893858
-0.725227
-0.581149
-0.457363
-0.352473
-0.261963
-0.186063
-0.121041
-0.0654827
-0.019005
0.0212119
0.0546746
0.0835876
0.107107
0.127907
0.14517
0.158844
0.171489
0.18074
0.189239
0.195942
0.201184
0.205424
0.20909
0.211578
0.213388
0.214535
0.214993
0.214643
0.213876
0.21159
0.209224
0.204961
0.200534
0.194004
0.187341
0.178517
0.168251
0.157479
0.144017
0.130512
0.113962
0.097394
0.0757036
0.0609581
0.0241277
0.0319991
-16.8279
-16.5504
-15.9884
-15.553
-15.3036
-15.0821
-14.7755
-14.3203
-13.6966
-12.8873
-11.9441
-10.8878
-9.78734
-8.68624
-7.63427
-6.66122
-5.78105
-4.9876
-4.2885
-3.66544
-3.12598
-2.64925
-2.23842
-1.88169
-1.57408
-1.30816
-1.08063
-0.884088
-0.716141
-0.572837
-0.449888
-0.345751
-0.25607
-0.180839
-0.116525
-0.0616581
-0.0157163
0.0239031
0.0568545
0.0852674
0.108446
0.128791
0.145675
0.15909
0.171387
0.180428
0.188657
0.195161
0.200267
0.20436
0.207909
0.210335
0.212095
0.213232
0.21371
0.213404
0.212703
0.210523
0.208246
0.204125
0.199808
0.193443
0.18687
0.17821
0.168088
0.157413
0.144101
0.130655
0.114226
0.0977145
0.0761292
0.0613256
0.0246049
0.0322021
-17.0553
-16.9043
-16.4975
-16.1009
-15.8122
-15.5382
-15.1857
-14.6895
-14.0224
-13.1694
-12.1731
-11.0687
-9.92815
-8.79413
-7.70971
-6.70755
-5.80443
-4.99559
-4.28495
-3.65592
-3.11159
-2.63363
-2.22175
-1.8652
-1.55814
-1.29323
-1.06662
-0.871394
-0.704581
-0.562407
-0.440632
-0.337505
-0.248915
-0.174554
-0.111123
-0.0570847
-0.0118016
0.0271091
0.059482
0.0873209
0.1101
0.129946
0.14641
0.15954
0.171449
0.180263
0.188205
0.194487
0.199433
0.203371
0.206789
0.209141
0.210841
0.21196
0.212447
0.212181
0.211532
0.209455
0.207256
0.203274
0.199056
0.192858
0.186368
0.177865
0.167884
0.157301
0.144143
0.130753
0.114443
0.0979856
0.0765069
0.0616411
0.0250416
0.0323389
-17.2328
-17.1785
-16.9093
-16.5737
-16.2776
-15.9749
-15.5922
-15.0681
-14.3691
-13.4794
-12.4327
-11.272
-10.0736
-8.89345
-7.77287
-6.7411
-5.8151
-4.99128
-4.2701
-3.63582
-3.08751
-2.60905
-2.19715
-1.84169
-1.53609
-1.27304
-1.04815
-0.854873
-0.689805
-0.54927
-0.429099
-0.327353
-0.24016
-0.166922
-0.104592
-0.0515581
-0.00709303
0.0309794
0.0626685
0.0898557
0.11216
0.131446
0.147439
0.160257
0.171731
0.180298
0.187924
0.193962
0.198725
0.202498
0.20576
0.208023
0.209648
0.210733
0.211219
0.210971
0.210361
0.208373
0.206239
0.202387
0.19826
0.192222
0.185804
0.177454
0.16761
0.157113
0.144112
0.130773
0.114585
0.0981817
0.0768165
0.0618734
0.0254269
0.0323983
-17.374
-17.3792
-17.2144
-16.9454
-16.6614
-16.3473
-15.9492
-15.4113
-14.6964
-13.7852
-12.7014
-11.4907
-10.2302
-8.99029
-7.82228
-6.75563
-5.8052
-4.96674
-4.23679
-3.59955
-3.04958
-2.5723
-2.16201
-1.80911
-1.50627
-1.24615
-1.02395
-0.833527
-0.67101
-0.532765
-0.414738
-0.314835
-0.229442
-0.157665
-0.0967134
-0.0449134
-0.00145983
0.0356158
0.0665023
0.0929333
0.11467
0.133325
0.148803
0.161252
0.172254
0.180544
0.187826
0.193599
0.198156
0.201751
0.204836
0.206995
0.20853
0.209566
0.210037
0.209794
0.209207
0.207297
0.205215
0.201483
0.197435
0.191548
0.185196
0.176995
0.167283
0.156869
0.144022
0.130733
0.114666
0.0983154
0.0770648
0.0620439
0.0257644
0.0323847
-17.4885
-17.5111
-17.406
-17.191
-16.928
-16.6121
-16.2077
-15.6668
-14.9511
-14.0375
-12.9385
-11.6966
-10.3859
-9.08619
-7.86254
-6.75259
-5.77224
-4.91664
-4.17808
-3.53976
-2.99147
-2.51838
-2.11223
-1.76398
-1.46591
-1.21056
-0.99251
-0.805985
-0.64696
-0.511883
-0.396787
-0.299358
-0.216261
-0.146347
-0.0871136
-0.0368441
0.00534506
0.0412256
0.0711549
0.0966956
0.117747
0.135682
0.150578
0.162591
0.173074
0.181049
0.187945
0.193432
0.197757
0.201153
0.204038
0.206077
0.207504
0.208471
0.208908
0.20865
0.20807
0.20622
0.204176
0.200549
0.19657
0.190822
0.184525
0.17647
0.166882
0.156546
0.143852
0.13061
0.114665
0.0983707
0.07724
0.062125
0.0260502
0.0322921
-17.5725
-17.5743
-17.4851
-17.2959
-17.0446
-16.7291
-16.3204
-15.7805
-15.0734
-14.1743
-13.0855
-11.8411
-10.5072
-9.16567
-7.89189
-6.73596
-5.72044
-4.84317
-4.09343
-3.45314
-2.90791
-2.44189
-2.04362
-1.70294
-1.41168
-1.163
-0.95124
-0.770597
-0.616549
-0.485595
-0.374208
-0.280034
-0.199956
-0.132507
-0.0754322
-0.0270376
0.0135858
0.0480265
0.0767912
0.10127
0.121494
0.138613
0.152836
0.164325
0.174231
0.181834
0.188305
0.193469
0.197529
0.2007
0.20336
0.205256
0.206557
0.207437
0.207819
0.207535
0.206941
0.205142
0.203116
0.199587
0.195661
0.190045
0.183797
0.17588
0.166413
0.156152
0.14361
0.130415
0.114594
0.0983534
0.077345
0.0621396
0.0262861
0.0321266
-17.6101
-17.5626
-17.4493
-17.2524
-16.991
-16.6626
-16.2443
-15.7029
-15.0063
-14.1314
-13.0747
-11.8598
-10.5406
-9.19178
-7.89164
-6.70062
-5.65198
-4.75062
-3.98681
-3.34199
-2.79868
-2.33977
-1.95152
-1.62198
-1.34131
-1.10167
-0.897505
-0.724112
-0.577087
-0.452396
-0.346193
-0.256142
-0.179663
-0.115316
-0.0610304
-0.0150645
0.0235836
0.0563043
0.0836775
0.10689
0.126101
0.142268
0.155706
0.166576
0.175836
0.182996
0.188994
0.193781
0.197536
0.200444
0.20285
0.204572
0.205722
0.206487
0.206788
0.206458
0.205824
0.20406
0.202029
0.198586
0.194696
0.189203
0.182991
0.175205
0.165854
0.155664
0.143272
0.130123
0.114427
0.0982448
0.0773669
0.0620539
0.0264677
0.0318798
-17.576
-17.4596
-17.2907
-17.0538
-16.7532
-16.3884
-15.9449
-15.3939
-14.7043
-13.8559
-12.844
-11.6853
-10.4199
-9.10876
-7.8227
-6.62569
-5.55967
-4.64023
-3.86297
-3.21197
-2.66884
-2.21547
-1.83641
-1.51852
-1.25079
-1.02404
-0.831221
-0.666828
-0.527125
-0.409308
-0.30997
-0.226177
-0.154851
-0.0944318
-0.0433373
-0.000234792
0.0359041
0.066407
0.0920117
0.113717
0.131733
0.146809
0.159315
0.169431
0.17795
0.184577
0.190042
0.194395
0.197793
0.200394
0.202509
0.204017
0.20499
0.205607
0.205803
0.205403
0.204706
0.202958
0.200905
0.197532
0.193666
0.188283
0.182104
0.174441
0.165202
0.155082
0.142841
0.129739
0.114171
0.0980469
0.0773043
0.0618929
0.026594
0.0315597
-17.4569
-17.2555
-17.0022
-16.695
-16.3297
-15.9028
-15.4056
-14.8237
-14.1351
-13.3147
-12.3533
-11.2663
-10.0851
-8.85461
-7.63127
-6.47202
-5.42156
-4.50366
-3.72235
-3.06794
-2.52491
-2.07586
-1.70463
-1.39692
-1.14102
-0.927372
-0.748284
-0.597076
-0.468447
-0.358765
-0.265716
-0.187709
-0.122557
-0.0680843
-0.0219081
0.0174643
0.050815
0.0789241
0.102406
0.122172
0.138612
0.152368
0.163796
0.173048
0.180726
0.186713
0.191559
0.195406
0.198383
0.200627
0.202405
0.203654
0.204412
0.204842
0.204897
0.204395
0.203603
0.201845
0.199744
0.196426
0.192563
0.187278
0.181122
0.173573
0.164439
0.154387
0.142295
0.129242
0.113803
0.0977445
0.0771471
0.0616212
0.0266622
0.0311583
-17.2592
-16.9702
-16.6126
-16.2029
-15.744
-15.2317
-14.6573
-14.0145
-13.2985
-12.4955
-11.5899
-10.5845
-9.50475
-8.38474
-7.2657
-6.19132
-5.19997
-4.31763
-3.55428
-2.90848
-2.37061
-1.92746
-1.56375
-1.26528
-1.01966
-0.817227
-0.650134
-0.511781
-0.396345
-0.299127
-0.216414
-0.145561
-0.0853246
-0.035039
0.00623187
0.040249
0.068876
0.0935221
0.114617
0.132497
0.147256
0.159402
0.169403
0.177519
0.184213
0.189447
0.193598
0.196852
0.199327
0.201146
0.202532
0.203467
0.203967
0.204166
0.204043
0.203407
0.202488
0.200695
0.198525
0.195239
0.191368
0.186164
0.180028
0.172582
0.163556
0.153572
0.141628
0.128629
0.113325
0.0973343
0.0768902
0.061266
0.0266704
0.030687
-16.908
-16.5579
-16.1277
-15.6332
-15.0776
-14.4598
-13.7833
-13.0559
-12.283
-11.4619
-10.5867
-9.65949
-8.68968
-7.69541
-6.70495
-5.74878
-4.85613
-4.04761
-3.33438
-2.71959
-2.20123
-1.77153
-1.41896
-1.13059
-0.894913
-0.70254
-0.545718
-0.417784
-0.312999
-0.227036
-0.156041
-0.0966518
-0.0459185
-0.00187281
0.0359785
0.0675515
0.0929431
0.113354
0.130112
0.144583
0.157108
0.167723
0.17641
0.18327
0.188732
0.192957
0.196264
0.198831
0.200727
0.202047
0.202971
0.203527
0.203712
0.203632
0.20328
0.202468
0.201387
0.199521
0.197257
0.193975
0.190078
0.184933
0.178816
0.171455
0.162536
0.152617
0.140822
0.127881
0.112717
0.0968032
0.0765249
0.0607901
0.0266161
0.030137
-16.5875
-16.1858
-15.6702
-15.0637
-14.3931
-13.6665
-12.8919
-12.0794
-11.2379
-10.3756
-9.49919
-8.61378
-7.72573
-6.84509
-5.98267
-5.15475
-4.37972
-3.67175
-3.03774
-2.48067