/*--------------------------------*- C++ -*----------------------------------*\
| =========                 |                                                 |
| \\      /  F ield         | OpenFOAM: The Open Source CFD Toolbox           |
|  \\    /   O peration     | Version:  2312                                  |
|   \\  /    A nd           | Website:  www.openfoam.com                      |
|    \\/     M anipulation  |                                                 |
\*---------------------------------------------------------------------------*/
FoamFile
{
    version     2.0;
    format      ascii;
    arch        "LSB;label=32;scalar=64";
    class       surfaceScalarField;
    location    "550";
    object      phi;
}
// * * * * * * * * * * * * * * * * * * * * * * * * * * * * * * * * * * * * * //

dimensions      [0 3 -1 0 0 0 0];

oriented        oriented;

internalField   nonuniform List<scalar> 
21876
(
0.00826024
0.000879902
-0.00914008
0.00242265
0.00583763
-0.000851511
0.00327434
-0.00158112
0.000729817
-0.0014486
-0.000132332
-0.00140776
-4.06977e-05
-0.0013532
-5.43764e-05
-0.00129558
-5.7347e-05
-0.00124784
-4.75316e-05
-0.00121841
-2.89925e-05
-0.00118697
-3.12687e-05
-0.00115946
-2.70612e-05
-0.00113998
-1.9066e-05
-0.00112107
-1.82375e-05
-0.00111057
-1.0086e-05
-0.00110523
-4.82422e-06
-0.00110741
2.69069e-06
-0.00111887
1.19852e-05
-0.00113995
2.18375e-05
-0.00117286
3.37397e-05
-0.00121726
4.54454e-05
-0.00127095
5.4712e-05
-0.00133876
6.85473e-05
-0.00142133
8.32452e-05
-0.00151569
9.47078e-05
-0.00161687
0.000101668
-0.00171808
0.000101386
-0.00181142
9.36856e-05
-0.00188794
7.67195e-05
-0.00193621
4.85655e-05
-0.00194393
7.93948e-06
-0.00190626
-3.73503e-05
-0.00182143
-8.468e-05
-0.00168204
-0.000138958
-0.00148122
-0.000200799
-0.00121501
-0.000265577
-0.000882066
-0.000332775
-0.000427698
-0.000453858
0.000122624
-0.000550229
0.000441491
-0.000314624
-0.00217783
0.00262296
0.0115415
-0.000693256
-0.00996828
0.0103193
0.00705987
0.00509014
0.00850355
0.000292044
0.00552809
-0.00156348
0.00172349
-0.00163029
2.64872e-05
-0.00164981
-3.44162e-05
-0.00163326
-7.34377e-05
-0.0016081
-7.229e-05
-0.00159688
-3.97534e-05
-0.00158153
-4.61871e-05
-0.00156597
-4.19918e-05
-0.00155773
-2.66494e-05
-0.0015501
-2.50458e-05
-0.00155096
-8.46546e-06
-0.00155897
4.04365e-06
-0.00157686
2.15493e-05
-0.00160595
4.20803e-05
-0.00164646
6.3604e-05
-0.00170108
8.94378e-05
-0.00177111
0.00011662
-0.00185299
0.00013777
-0.00194884
0.000165428
-0.00205437
0.000189866
-0.00216262
0.000203766
-0.00226669
0.000206526
-0.00235977
0.000195011
-0.00243417
0.000168647
-0.0024824
0.000125484
-0.00249847
6.5225e-05
-0.00247828
-1.15569e-05
-0.00241257
-0.000102294
-0.00228999
-0.000206405
-0.00210123
-0.000326718
-0.00183872
-0.000462419
-0.0014965
-0.000606684
-0.00107141
-0.000757046
-0.000541299
-0.00098294
0.000150683
-0.00124106
0.000868706
-0.00102993
-0.00358026
0.00227361
0.013254
-0.0029547
-0.0109925
0.0149772
0.00533665
0.0130541
0.0104267
0.00763979
0.0109424
0.00185827
0.00750504
-0.00109938
0.00298424
-0.00168434
0.000550706
-0.00182685
6.92259e-05
-0.00186082
-3.82367e-05
-0.00189338
-7.08343e-06
-0.00191073
-2.87975e-05
-0.00191593
-3.66614e-05
-0.00192509
-1.73649e-05
-0.00193152
-1.84121e-05
-0.00194504
5.13122e-06
-0.00196538
2.44868e-05
-0.00199538
5.15966e-05
-0.00203729
8.40555e-05
-0.0020916
0.00011814
-0.00216084
0.000158927
-0.00224588
0.0002019
-0.00234126
0.000233399
-0.00244833
0.000272592
-0.00256282
0.000304405
-0.00267863
0.000319544
-0.00278967
0.00031762
-0.0028895
0.000294806
-0.00297055
0.00024974
-0.00302486
0.000179787
-0.00304387
8.42448e-05
-0.00301799
-3.74299e-05
-0.00293586
-0.000184443
-0.00278667
-0.000355672
-0.00255937
-0.000554048
-0.00224532
-0.000776609
-0.0018364
-0.00101561
-0.00132813
-0.00126534
-0.000705949
-0.00160517
9.43842e-05
-0.00204164
0.000997134
-0.00193192
-0.00455004
0.00196739
0.015041
-0.00557302
-0.0124227
0.017441
0.00293666
0.018667
0.00920061
0.0165477
0.0130617
0.0108593
0.0131936
0.00411696
0.00972664
-0.000147886
0.00481576
-0.00155984
0.00148145
-0.0019013
0.00030357
-0.00205934
0.000151324
-0.00215934
7.15795e-05
-0.00221457
1.89712e-05
-0.00226047
2.89917e-05
-0.00229244
1.40531e-05
-0.00232546
3.86903e-05
-0.00236219
6.18221e-05
-0.00240662
9.67112e-05
-0.00246274
0.00014099
-0.00253129
0.000187586
-0.00261512
0.000243582
-0.00271506
0.000302656
-0.00282472
0.000343878
-0.00294592
0.000394532
-0.00307535
0.000434575
-0.00320767
0.000452451
-0.00333672
0.00044724
-0.00345527
0.000413803
-0.00355437
0.000349308
-0.00362392
0.000249785
-0.00365258
0.000113409
-0.00362796
-6.14903e-05
-0.00353716
-0.00027462
-0.00336789
-0.000524294
-0.00310693
-0.000814278
-0.00274394
-0.00113893
-0.00226882
-0.00148996
-0.0016757
-0.00185784
-0.000952171
-0.00232801
-5.80591e-05
-0.00293505
0.000989888
-0.00297869
-0.00533914
0.00177991
0.0169709
-0.0084142
-0.0141298
0.0194454
0.000462216
0.0218439
0.00680208
0.023064
0.0118417
0.0210405
0.0152171
0.0152057
0.0155614
0.00757654
0.012445
0.00164709
0.00741101
-0.00106605
0.00301687
-0.00182768
0.000913151
-0.00218661
0.000430649
-0.00237568
0.000208168
-0.0025117
0.000165126
-0.00260261
0.000105116
-0.00267621
0.000112424
-0.00274281
0.000128583
-0.00281001
0.00016405
-0.00288596
0.000217164
-0.00297262
0.000274478
-0.0030745
0.000345688
-0.00319334
0.000421633
-0.00332243
0.000473048
-0.00346443
0.000536563
-0.00361687
0.000587008
-0.00377477
0.000610336
-0.00393143
0.000603917
-0.00407841
0.0005608
-0.00420502
0.000475963
-0.0042989
0.000343709
-0.00434618
0.000160744
-0.00433201
-7.55989e-05
-0.00424127
-0.000365305
-0.00405937
-0.00070614
-0.00377056
-0.00110305
-0.00336246
-0.00154698
-0.00282332
-0.00202905
-0.00214614
-0.00253486
-0.00131784
-0.00315628
-0.000339557
-0.00391325
0.000835449
-0.00415345
-0.00611814
0.00161461
0.0192643
-0.0115602
-0.0161181
0.0220339
-0.00230745
0.0245212
0.00431477
0.0269643
0.00939855
0.0283403
0.0138412
0.0266793
0.0172224
0.0209888
0.0181355
0.0126651
0.0157348
0.0048486
0.0108334
0.00025914
0.00550276
-0.00145718
0.00214715
-0.0021284
0.000879675
-0.00251527
0.000552366
-0.00275745
0.00034771
-0.00292767
0.000283092
-0.00305991
0.000261309
-0.00317283
0.000277553
-0.00328369
0.000328703
-0.00339841
0.000389923
-0.00352577
0.000473729
-0.00367005
0.000566577
-0.00382523
0.000628834
-0.00399546
0.000707378
-0.00417926
0.000771344
-0.00437198
0.000803549
-0.00456632
0.000798702
-0.00475258
0.000747479
-0.00491826
0.000642056
-0.00504872
0.000474589
-0.00512749
0.000239954
-0.00513702
-6.55918e-05
-0.00505935
-0.000442489
-0.00487708
-0.000887903
-0.00457169
-0.00140796
-0.00412848
-0.00198969
-0.00353449
-0.0026226
-0.00278226
-0.00328665
-0.0018585
-0.00407973
-0.000803689
-0.00496771
0.000479842
-0.00543671
-0.0069881
0.00135005
0.0220163
-0.0150956
-0.018481
0.0252444
-0.00553554
0.0279616
0.00159743
0.0304316
0.00692861
0.032889
0.0113838
0.0345389
0.0155725
0.0335131
0.0191613
0.0283967
0.0208512
0.0197616
0.0194686
0.0102301
0.0150343
0.0031425
0.00923495
-0.000406389
0.00442881
-0.00175705
0.00190332
-0.00246372
0.00105466
-0.00289359
0.000713262
-0.00319151
0.00055953
-0.00341038
0.000496764
-0.0035941
0.00051283
-0.0037612
0.000557391
-0.00393003
0.000642906
-0.00411047
0.000747228
-0.0042999
0.000818435
-0.00450623
0.000913852
-0.00472996
0.000995211
-0.00496741
0.00104113
-0.0052109
0.00104235
-0.00544961
0.000986353
-0.00566929
0.000861938
-0.00585298
0.000658485
-0.00598147
0.000368673
-0.00603418
-1.26426e-05
-0.00598986
-0.000486557
-0.00582788
-0.00104965
-0.00552681
-0.00170878
-0.00506948
-0.00244681
-0.00444208
-0.00324974
-0.00363743
-0.0040911
-0.00264394
-0.00507301
-0.00152746
-0.00608414
-0.000171463
-0.0067926
-0.00798965
0.000829972
0.0253523
-0.0191592
-0.0212887
0.0290461
-0.0092295
0.0322323
-0.00158882
0.0349139
0.00424701
0.0373174
0.0089803
0.0397503
0.0131397
0.0417095
0.0172021
0.0415338
0.021027
0.0374574
0.023545
0.0291649
0.0233268
0.018512
0.0198879
0.00863309
0.0143077
0.00223111
0.00830544
-0.000736119
0.00402212
-0.00202812
0.00200556
-0.00280439
0.00133624
-0.00330411
0.000996983
-0.00367054
0.000879851
-0.00395623
0.000843658
-0.00420673
0.000893934
-0.00444672
0.000987707
-0.00468333
0.00105551
-0.00493462
0.00116556
-0.00520653
0.00126754
-0.00549845
0.00133344
-0.00580346
0.00134774
-0.00611008
0.00129331
-0.00640245
0.00115467
-0.00666133
0.0009177
-0.00686467
0.000572386
-0.00698872
0.000111745
-0.00700863
-0.000466286
-0.00690023
-0.00115774
-0.00663917
-0.00196952
-0.00620571
-0.00288002
-0.00558539
-0.00386979
-0.00477173
-0.00490457
-0.0037567
-0.00608794
-0.00261216
-0.00722864
-0.00124504
-0.0081598
-0.00911269
-0.000122103
0.0293813
-0.0239197
-0.0246208
0.0336414
-0.0134898
0.0373459
-0.00529321
0.0405024
0.00109042
0.0431204
0.0063625
0.0454121
0.010848
0.0477484
0.014866
0.0499499
0.0188253
0.0506999
0.0227951
0.0480773
0.0259493
0.0409607
0.0270045
0.0300304
0.025238
0.0178677
0.0204682
0.00786774
0.0140223
0.00190238
0.0079713
-0.000853016
0.0040921
-0.00222837
0.00237293
-0.00311431
0.00176634
-0.00371524
0.00144508
-0.00417038
0.00134945
-0.0045407
0.00135835
-0.00486046
0.00137558
-0.00517533
0.00148078
-0.00550594
0.00159849
-0.00586088
0.00168873
-0.00623801
0.0017252
-0.00662766
0.00168334
-0.00701355
0.0015409
-0.00737447
0.00127902
-0.00768558
0.000883859
-0.00791983
0.000346408
-0.00804889
-0.000336883
-0.00804471
-0.00116153
-0.00788026
-0.00213369
-0.00753301
-0.00322695
-0.00698772
-0.00441489
-0.00623857
-0.00565352
-0.00528146
-0.00704503
-0.00417929
-0.00833084
-0.00288433
-0.00945495
-0.0103009
-0.00169635
0.0342281
-0.0295693
-0.0285786
0.0392156
-0.0184773
0.0435165
-0.00959423
0.0472009
-0.00259372
0.0502998
0.00326359
0.0528374
0.00831047
0.0549927
0.0127105
0.057158
0.01666
0.0594508
0.0205023
0.0610126
0.0243874
0.0600578
0.0279594
0.0548294
0.0304665
0.0448443
0.0304535
0.0316186
0.0272482
0.0182453
0.0213447
0.0080119
0.0143257
0.0021085
0.00827648
-0.000726933
0.004602
-0.00228258
0.00300109
-0.0033245
0.00239171
-0.0040506
0.0020848
-0.00457865
0.00190403
-0.00502451
0.001927
-0.00544839
0.00202275
-0.00588493
0.00212566
-0.00634673
0.00218739
-0.00683278
0.00216959
-0.00733092
0.00203942
-0.00782107
0.00176938
-0.00827724
0.00134039
-0.0086701
0.000739477
-0.00896811
-3.85141e-05
-0.00913935
-0.000990136
-0.00915406
-0.00211868
-0.00898673
-0.0033942
-0.00862037
-0.004781
-0.00804905
-0.00622488
-0.00727086
-0.00782315
-0.00633117
-0.00927078
-0.00521809
-0.0105682
-0.0114391
-0.00408028
0.0400424
-0.0363355
-0.0332763
0.0459493
-0.0243842
0.0509974
-0.0146422
0.0552921
-0.00688838
0.0589145
-0.000358677
0.0619329
0.0052921
0.0643824
0.0102611
0.066398
0.0146444
0.0683394
0.0185609
0.0705254
0.0222015
0.0726094
0.0258754
0.073224
0.0298519
0.0703762
0.0333014
0.0625943
0.0350299
0.0500191
0.03392
0.0347258
0.0296188
0.0200982
0.0229041
0.00924607
0.0154543
0.00295845
0.00928896
-0.000215272
0.00556584
-0.00203224
0.00390225
-0.00318101
0.00305327
-0.00399148
0.00273799
-0.00464326
0.00267509
-0.00523816
0.00272103
-0.00582763
0.00277717
-0.00643751
0.00277984
-0.00707237
0.0026744
-0.00772047
0.00241778
-0.00836023
0.00198022
-0.00896363
0.00134317
-0.00949939
0.000497265
-0.00993358
-0.000555649
-0.0102353
-0.00181703
-0.0103745
-0.00325464
-0.0103316
-0.00482406
-0.0100968
-0.00645945
-0.0096687
-0.00825157
-0.00906914
-0.00987016
-0.00829677
-0.0113409
-0.0123453
-0.00739048
0.0470079
-0.0444911
-0.0388523
0.0540686
-0.0314449
0.0600568
-0.0206304
0.0651063
-0.0119377
0.0693372
-0.00458947
0.0728644
0.00176506
0.075781
0.00734454
0.0781372
0.0122883
0.0800273
0.0166709
0.0817281
0.0205008
0.0836448
0.0239587
0.0858872
0.0276097
0.0876649
0.0315236
0.0872242
0.0354706
0.0825504
0.0385937
0.072479
0.0396901
0.0575803
0.0378029
0.0402546
0.03278
0.0240376
0.0255062
0.0119677
0.0176358
0.00476476
0.0111054
0.00122275
0.00659562
-0.000756255
0.00471742
-0.00210289
0.00402212
-0.00313608
0.0037548
-0.0040192
0.00366067
-0.00485503
0.003616
-0.00569496
0.00351457
-0.00655535
0.0032784
-0.00743195
0.002857
-0.00830814
0.0022195
-0.00915876
0.00134809
-0.00995422
0.000239857
-0.0106667
-0.00110434
-0.011264
-0.00265734
-0.0117217
-0.00436611
-0.0120236
-0.00615773
-0.0121651
-0.00810973
-0.0121407
-0.00989478
-0.0119357
-0.0115457
-0.0127601
-0.0115212
0.0553469
-0.0543651
-0.0454728
0.0638434
-0.0399413
0.0710088
-0.0277956
0.0770035
-0.0179323
0.0819856
-0.00957135
0.0861065
-0.00235574
0.0895074
0.00394381
0.0923022
0.00949363
0.0945599
0.0144134
0.0963427
0.0187182
0.0978357
0.0224659
0.0994318
0.0260137
0.101489
0.0294664
0.103826
0.0331338
0.105296
0.0371232
0.103941
0.0410451
0.0977777
0.0439663
0.0858296
0.0447281
0.0688564
0.0424794
0.0493647
0.0371274
0.0309235
0.0295466
0.0176672
0.0198519
0.00955464
0.01283
0.00506617
0.00851113
0.0024698
0.0063514
0.000696156
0.00543512
-0.000731463
0.00504386
-0.00201155
0.00479543
-0.00324382
0.00451077
-0.00447789
0.00409175
-0.00573437
0.00347604
-0.00701041
0.00262473
-0.00828957
0.00151901
-0.00955568
0.000162265
-0.0107799
-0.00143315
-0.0119343
-0.00321129
-0.0129942
-0.00509794
-0.0139554
-0.00714823
-0.014779
-0.00907121
-0.0154313
-0.0108932
-0.0123504
-0.015841
0.0653292
-0.0663545
-0.0533396
0.0756016
-0.0502137
0.0842312
-0.036425
0.0914077
-0.0251088
0.097327
-0.0154904
0.102183
-0.00721168
0.106154
-2.67559e-05
0.1094
0.00624748
0.112054
0.0117596
0.1142
0.0165721
0.115894
0.0207721
0.11726
0.0246481
0.118574
0.0281521
0.120257
0.0314506
0.122563
0.0348181
0.125079
0.0385286
0.126441
0.0426047
0.124583
0.0465854
0.117518
0.0495444
0.104268
0.0503773
0.0855417
0.0482728
0.0653014
0.0400921
0.0464383
0.0316934
0.031279
0.0236704
0.0206271
0.0170042
0.0138397
0.0122228
0.00962592
0.0092588
0.00680955
0.00761208
0.00463369
0.00668786
0.00269536
0.00603023
0.000807686
0.00536495
-0.00110601
0.00453835
-0.00306384
0.00347803
-0.00507861
0.00217673
-0.00713334
0.000622705
-0.00920943
-0.00113572
-0.0112713
-0.00303503
-0.0133213
-0.00509888
-0.0152816
-0.00711011
-0.0171087
-0.00906681
-0.0107522
-0.0187066
0.0772822
-0.0809398
-0.0626968
0.0897411
-0.0626726
0.100181
-0.0468645
0.108826
-0.0337543
0.115916
-0.0225796
0.121688
-0.0129835
0.126366
-0.00470509
0.130151
0.00246289
0.133218
0.00869259
0.13571
0.0140805
0.137731
0.0187506
0.139364
0.0230157
0.140674
0.0268425
0.141822
0.0303027
0.143143
0.033497
0.145057
0.0366146
0.147729
0.0399328
0.150623
0.0436913
0.152288
0.0478797
0.150612
0.0520533
0.143557
0.0553282
0.131085
0.0525643
0.114328
0.0484503
0.0952008
0.0427978
0.0759033
0.0363021
0.058449
0.0296777
0.0441689
0.0235395
0.033424
0.0183578
0.0257438
0.0143687
0.0202649
0.01151
0.0161348
0.00949554
0.0127122
0.00796195
0.00958747
0.00660302
0.00650961
0.00525545
0.00337047
0.00376191
0.000129699
0.00210579
-0.00320542
0.000299871
-0.00665589
-0.00164788
-0.0100943
-0.00367208
-0.0134581
-0.00570272
-0.00758204
-0.0166287
0.0916025
-0.098703
-0.0738391
0.106745
-0.0778149
0.119413
-0.0595324
0.129875
-0.0442161
0.138418
-0.0311226
0.145332
-0.019898
0.150893
-0.0102653
0.155347
-0.00199128
0.158914
0.00512595
0.161777
0.0112176
0.16409
0.0164373
0.165992
0.0211137
0.16757
0.0252651
0.168878
0.0289951
0.169995
0.0323799
0.171118
0.0354911
0.172611
0.0384406
0.174884
0.0414184
0.178076
0.0446875
0.181655
0.0484743
0.184201
0.0527829
0.183718
0.0530473
0.179193
0.0529756
0.170266
0.051725
0.157345
0.0492237
0.141411
0.0456123
0.123769
0.0411822
0.105839
0.0362878
0.0889289
0.0312795
0.0739807
0.0264591
0.0614111
0.0220656
0.051137
0.0182368
0.0427524
0.0149879
0.0357044
0.0123043
0.0295486
0.0099177
0.0239241
0.00773096
0.0185875
0.00563628
0.0132816
0.00365851
0.00802833
0.00158086
0.0027796
-0.000453743
-0.002425
-0.00237779
0.108766
-0.120349
-0.0871192
0.127194
-0.0962428
0.142597
-0.0749354
0.155296
-0.0569153
0.165639
-0.0414651
0.173975
-0.0282341
0.180638
-0.0169276
0.185929
-0.00728328
0.19012
0.000935621
0.193438
0.00789956
0.196078
0.0137972
0.198219
0.0189728
0.2
0.0234846
0.201525
0.0274704
0.202859
0.0310452
0.20405
0.0343003
0.205184
0.0373075
0.206469
0.0401336
0.208271
0.0428849
0.211015
0.0457305
0.214876
0.0489222
0.218969
0.0489546
0.222471
0.0494742
0.224335
0.0498612
0.223645
0.0499139
0.21982
0.0494379
0.212696
0.0483064
0.202505
0.0464796
0.189774
0.0440104
0.175223
0.0410114
0.159657
0.0376316
0.14387
0.0340238
0.128532
0.0303264
0.114025
0.0268123
0.100641
0.0233022
0.088437
0.0199352
0.0773298
0.0167435
0.0669509
0.0140381
0.0573022
0.0112294
0.0481485
0.00870046
0.00626227
0.0394611
0.117253
-0.144241
-0.0933618
0.137576
-0.116565
0.154555
-0.0919149
0.168542
-0.0709014
0.179915
-0.0528383
0.189059
-0.0373779
0.196338
-0.0242064
0.202084
-0.0130299
0.206595
-0.00357497
0.210124
0.00437048
0.21289
0.0110315
0.215089
0.0167738
0.21688
0.0216939
0.218395
0.0259558
0.219739
0.0297007
0.220989
0.0330507
0.222188
0.0361088
0.223369
0.0389524
0.224608
0.0416461
0.226093
0.0442452
0.228162
0.0468543
0.230801
0.0463156
0.234171
0.0461046
0.238118
0.0459145
0.242231
0.045801
0.245937
0.0457323
0.24862
0.0456231
0.249739
0.0453612
0.248902
0.0448478
0.245907
0.0440062
0.240742
0.0427976
0.233549
0.0412175
0.224586
0.0392887
0.214122
0.0372769
0.202541
0.0348833
0.190219
0.0322579
0.177506
0.0294573
0.164419
0.0271247
0.151388
0.0242612
0.138456
0.0216324
0.0188561
0.125862
0.12412
-0.170047
-0.0983126
0.146059
-0.138505
0.164386
-0.110241
0.179473
-0.0859892
0.191732
-0.0650962
0.201571
-0.0472174
0.209383
-0.0320185
0.215526
-0.0191724
0.220318
-0.00836671
0.224034
0.000654098
0.226911
0.00815425
0.229161
0.0145243
0.230954
0.0199005
0.232435
0.0244751
0.233723
0.0284127
0.234917
0.0318561
0.236096
0.03493
0.237311
0.0377378
0.238587
0.0403698
0.239943
0.0428895
0.241437
0.0453604
0.242922
0.0448305
0.244643
0.0443842
0.2468
0.043757
0.249538
0.0430637
0.252885
0.0423856
0.256736
0.041772
0.260863
0.0412339
0.264956
0.040756
0.268665
0.0402973
0.271654
0.0398087
0.273635
0.0392369
0.274393
0.0385306
0.273784
0.0378866
0.271741
0.0369266
0.268277
0.0357219
0.263474
0.0342605
0.257307
0.033292
0.250004
0.0315642
0.241641
0.0299961
0.0280608
0.232437
0.131707
-0.197916
-0.103838
0.15539
-0.162187
0.175171
-0.130023
0.191451
-0.10227
0.204671
-0.0783162
0.215273
-0.0578186
0.223675
-0.0404207
0.230262
-0.0257596
0.235377
-0.0134816
0.239317
-0.0032856
0.242337
0.00513447
0.244663
0.0121979
0.246482
0.0180812
0.24795
0.0230077
0.249194
0.0271679
0.250324
0.0307268
0.251427
0.0338267
0.252578
0.0365871
0.253832
0.0391156
0.255223
0.0414981
0.256765
0.0438189
0.258176
0.0434195
0.259536
0.0430238
0.260912
0.0423814
0.262405
0.0415709
0.264137
0.0406533
0.266225
0.0396843
0.26875
0.0387084
0.271742
0.0377642
0.275166
0.036874
0.278926
0.0360486
0.282879
0.0352838
0.286851
0.0345596
0.290667
0.0340704
0.294131
0.0334629
0.29707
0.0327836
0.299343
0.0319875
0.300845
0.0317902
0.301477
0.0309327
0.301183
0.03029
0.0293129
0.299931
0.140024
-0.228005
-0.109934
0.165587
-0.187751
0.186939
-0.151374
0.204509
-0.11984
0.218772
-0.0925788
0.230202
-0.0692489
0.23925
-0.0494691
0.246329
-0.0328388
0.251807
-0.0189594
0.256003
-0.00748186
0.259193
0.00194471
0.261619
0.00977192
0.263482
0.0162187
0.264949
0.0215404
0.266161
0.0259564
0.267232
0.0296552
0.268259
0.0327996
0.269321
0.0355254
0.270483
0.0379533
0.2718
0.0401813
0.273311
0.042308
0.274744
0.0419859
0.276151
0.0416171
0.277527
0.0410055
0.278875
0.0402223
0.280216
0.0393123
0.281588
0.0383128
0.283043
0.0372528
0.284644
0.0361629
0.286452
0.0350667
0.288513
0.0339868
0.290858
0.0329388
0.29349
0.0319278
0.2964
0.0311606
0.299536
0.0303267
0.302829
0.0294904
0.306195
0.0286213
0.309592
0.0283934
0.312886
0.027638
0.316012
0.0271651
0.0264641
0.31886
0.149096
-0.260489
-0.116612
0.176689
-0.215344
0.199736
-0.17442
0.2187
-0.138805
0.234092
-0.107971
0.246422
-0.0815789
0.256175
-0.0592218
0.263794
-0.0404573
0.269673
-0.0248391
0.274158
-0.0119664
0.277544
-0.00144097
0.28009
0.00722578
0.282012
0.0142965
0.283491
0.0200614
0.284678
0.0247699
0.285697
0.0286366
0.28665
0.0318461
0.287623
0.0345526
0.288684
0.036892
0.289892
0.0389742
0.291293
0.0409071
0.292634
0.0406446
0.293981
0.0402705
0.295338
0.0396487
0.296702
0.0388581
0.298067
0.0379474
0.299426
0.0369544
0.300774
0.0359046
0.302115
0.034822
0.303459
0.0337231
0.304823
0.0326235
0.306228
0.0315338
0.307699
0.0304573
0.309265
0.0295945
0.310944
0.0286483
0.312748
0.0276865
0.314682
0.0266886
0.316771
0.0263049
0.318985
0.0254245
0.321322
0.0248278
0.0240359
0.323751
0.15896
-0.295558
-0.123891
0.188745
-0.245129
0.213624
-0.199299
0.234096
-0.159277
0.250711
-0.124585
0.264017
-0.094885
0.274536
-0.0697407
0.282744
-0.0486652
0.289065
-0.0311605
0.29387
-0.0167712
0.297477
-0.00504763
0.300163
0.0045394
0.302161
0.012299
0.303663
0.0185588
0.304833
0.0236004
0.305803
0.0276662
0.306685
0.0309643
0.307569
0.0336688
0.308529
0.0359322
0.309625
0.0378782
0.310906
0.0396259
0.312126
0.0394255
0.313351
0.0390452
0.314595
0.038405
0.315864
0.037589
0.317161
0.036651
0.318482
0.0356334
0.319821
0.0345655
0.32117
0.0334737
0.322518
0.0323753
0.323857
0.031285
0.32518
0.0302112
0.326483
0.0291545
0.32777
0.0283072
0.329042
0.0273772
0.330302
0.0264271
0.331556
0.0254349
0.332826
0.0250345
0.334112
0.024139
0.335428
0.0235108
0.0226835
0.336781
0.169661
-0.333419
-0.1318
0.201817
-0.277284
0.228676
-0.226159
0.25078
-0.18138
0.268719
-0.142524
0.283084
-0.10925
0.294435
-0.0810922
0.303286
-0.0575154
0.310091
-0.037966
0.315249
-0.0219295
0.319103
-0.00890113
0.321949
0.00169305
0.324037
0.0102114
0.325574
0.0170216
0.326734
0.02244
0.327662
0.026739
0.328474
0.0301518
0.329269
0.0328739
0.330126
0.0350756
0.331108
0.0368956
0.332269
0.0384654
0.333364
0.0383304
0.334462
0.0379467
0.335577
0.0372899
0.336718
0.0364486
0.337889
0.0354799
0.339093
0.034429
0.34033
0.0333281
0.341598
0.0322064
0.34289
0.031083
0.3442
0.0299744
0.345521
0.0288902
0.346844
0.0278315
0.348166
0.0269854
0.349476
0.0260674
0.350765
0.0251369
0.35203
0.0241702
0.353278
0.0237867
0.354496
0.022921
0.355689
0.0223172
0.0215164
0.356856
0.181254
-0.3743
-0.140373
0.215973
-0.312003
0.244977
-0.255163
0.268848
-0.205251
0.288221
-0.161897
0.303735
-0.124764
0.315992
-0.093349
0.325543
-0.0670659
0.332877
-0.0453008
0.338424
-0.0274764
0.342552
-0.0130283
0.345578
-0.00133358
0.347771
0.00801864
0.349354
0.0154391
0.350512
0.0212818
0.3514
0.0258507
0.352146
0.0294065
0.352852
0.0321676
0.353604
0.0343234
0.354471
0.0360289
0.355508
0.0374285
0.356477
0.0373619
0.357447
0.0369763
0.358434
0.0363031
0.359447
0.0354357
0.360493
0.0344347
0.361573
0.0333482
0.362691
0.0322106
0.363845
0.0310526
0.365033
0.0298949
0.366252
0.0287549
0.3675
0.0276432
0.368769
0.0265615
0.370063
0.0256925
0.37137
0.02476
0.372686
0.0238215
0.374002
0.0228532
0.375329
0.0224601
0.376649
0.0216011
0.377964
0.0210027
0.020214
0.379266
0.193799
-0.418449
-0.149651
0.231293
-0.349497
0.26262
-0.28649
0.288406
-0.231036
0.309336
-0.182828
0.326098
-0.141525
0.339339
-0.10659
0.349653
-0.0773796
0.357567
-0.0532145
0.363541
-0.0334502
0.367971
-0.0174584
0.371199
-0.0045621
0.373513
0.00570507
0.375152
0.0138005
0.376315
0.0201182
0.377169
0.0249969
0.377849
0.0287264
0.378467
0.0315496
0.379114
0.0336766
0.379864
0.0352796
0.380775
0.0365172
0.381614
0.0365229
0.382454
0.0361366
0.383311
0.035446
0.384197
0.0345498
0.38512
0.0335125
0.386083
0.0323852
0.387088
0.031205
0.388137
0.0300042
0.389227
0.0288049
0.390357
0.0276253
0.391523
0.0264765
0.392724
0.025361
0.39396
0.0244568
0.395224
0.0234955
0.396513
0.0225327
0.39782
0.0215451
0.399158
0.0211228
0.400508
0.02025
0.401876
0.019635
0.0188372
0.403253
0.207364
-0.466135
-0.159677
0.247866
-0.389998
0.28171
-0.320334
0.309573
-0.258899
0.332194
-0.205449
0.350312
-0.159643
0.364625
-0.120904
0.375771
-0.0885257
0.384318
-0.0617614
0.390761
-0.0398929
0.395526
-0.022223
0.398979
-0.00801596
0.40143
0.00325393
0.403137
0.0120942
0.404313
0.0189422
0.405136
0.0241737
0.405752
0.0281098
0.406282
0.03102
0.406822
0.0331365
0.407452
0.0346499
0.408235
0.035734
0.408942
0.0358161
0.409648
0.0354303
0.410373
0.0347211
0.41113
0.0337926
0.411929
0.0327137
0.412775
0.0315391
0.413672
0.0303085
0.414619
0.0290562
0.415618
0.0278058
0.416666
0.0265767
0.417763
0.0253806
0.418902
0.0242207
0.420089
0.0232705
0.421314
0.0222694
0.422576
0.0212713
0.423867
0.0202531
0.4252
0.0197903
0.426557
0.0188921
0.427944
0.0182492
0.017431
0.429349
0.222025
-0.517658
-0.170503
0.265787
-0.43376
0.302363
-0.356911
0.332481
-0.289017
0.356939
-0.229907
0.376533
-0.179237
0.392014
-0.136384
0.404068
-0.10058
0.413308
-0.0710011
0.420266
-0.0468503
0.425399
-0.0273568
0.429104
-0.0117207
0.431711
0.000647147
0.433497
0.0103082
0.434693
0.0177464
0.435489
0.0233773
0.436043
0.0275559
0.436483
0.0305801
0.436914
0.0327058
0.43742
0.0341434
0.438072
0.0350826
0.438642
0.0352456
0.439211
0.0348617
0.4398
0.0341323
0.440425
0.0331678
0.441097
0.0320417
0.441824
0.0308126
0.44261
0.0295231
0.443456
0.0282099
0.444364
0.0268982
0.445332
0.0256088
0.446359
0.0243542
0.447441
0.0231386
0.448581
0.0221309
0.449772
0.0210787
0.451009
0.0200341
0.452288
0.0189747
0.453617
0.0184607
0.454982
0.0175275
0.456384
0.016847
0.016
0.457815
0.237864
-0.573339
-0.182183
0.285164
-0.48106
0.324706
-0.396452
0.357275
-0.321586
0.38373
-0.256363
0.40493
-0.200437
0.421685
-0.153139
0.434732
-0.113628
0.444731
-0.0809998
0.452254
-0.0543735
0.457796
-0.0328983
0.46178
-0.0157047
0.464562
-0.00213529
0.466441
0.0084291
0.467665
0.0165227
0.468438
0.022604
0.46893
0.0270642
0.469278
0.0302318
0.469596
0.0323881
0.469974
0.0337648
0.470489
0.0345686
0.470917
0.0348172
0.471342
0.0344364
0.471789
0.0336853
0.472277
0.0326806
0.472817
0.0315013
0.47342
0.03021
0.47409
0.0288529
0.474831
0.0274691
0.475643
0.0260858
0.476527
0.0247251
0.477481
0.023401
0.478501
0.0221182
0.47959
0.0210419
0.480741
0.0199274
0.48195
0.0188255
0.48321
0.0177144
0.484532
0.0171388
0.485898
0.016161
0.487311
0.015434
0.0145498
0.488761
0.254972
-0.633534
-0.194777
0.306114
-0.532202
0.348878
-0.439216
0.384112
-0.356819
0.412742
-0.284993
0.435693
-0.223388
0.453838
-0.171283
0.467971
-0.127762
0.478802
-0.0918305
0.486947
-0.0625191
0.492939
-0.0388902
0.497233
-0.0199993
0.500214
-0.00511547
0.5022
0.00644237
0.50346
0.0152627
0.504214
0.0218501
0.504643
0.0266349
0.504896
0.0299783
0.505096
0.032189
0.505339
0.0335211
0.505708
0.0342
0.505985
0.0345394
0.506259
0.0341633
0.506555
0.0333887
0.506896
0.0323397
0.507296
0.0311009
0.507767
0.0297398
0.508313
0.028306
0.508941
0.0268417
0.50965
0.0253763
0.510441
0.0239336
0.511313
0.0225289
0.512263
0.0211682
0.513293
0.0200121
0.514395
0.0188246
0.515565
0.0176551
0.516798
0.0164825
0.5181
0.0158354
0.519458
0.014804
0.520869
0.0140217
0.0130927
0.522327
0.273448
-0.698632
-0.208351
0.328765
-0.587519
0.375033
-0.485483
0.413166
-0.394953
0.444166
-0.315993
0.469028
-0.248249
0.488691
-0.190946
0.504013
-0.143084
0.515756
-0.103574
0.524587
-0.0713497
0.531077
-0.04538
0.535717
-0.0246392
0.538919
-0.00831786
0.541029
0.00433219
0.542334
0.0139576
0.543072
0.0211125
0.543437
0.0262692
0.543591
0.0298244
0.543664
0.0321158
0.543764
0.0334221
0.543975
0.0339882
0.544091
0.034424
0.544199
0.0340544
0.544333
0.0332551
0.544515
0.0321576
0.544763
0.0308532
0.545088
0.0294143
0.545499
0.027895
0.546
0.0263404
0.546593
0.0247825
0.547279
0.0232471
0.548057
0.021751
0.548924
0.0203014
0.549881
0.019055
0.550921
0.017784
0.55204
0.0165369
0.553228
0.0152932
0.554499
0.0145651
0.555831
0.0134717
0.557227
0.0126259
0.0116446
0.558674
0.293399
-0.769058
-0.222973
0.353256
-0.647376
0.403337
-0.535564
0.44463
-0.436245
0.478213
-0.349576
0.50516
-0.275197
0.526485
-0.21227
0.543109
-0.159708
0.555856
-0.116321
0.565441
-0.080935
0.572481
-0.0524204
0.577506
-0.0296633
0.580957
-0.0117696
0.583208
0.00208085
0.584568
0.0125974
0.585293
0.0203876
0.585593
0.025969
0.585642
0.0297762
0.585579
0.0321784
0.585521
0.0334803
0.585561
0.0339479
0.585498
0.0344864
0.585427
0.0341259
0.585381
0.0333008
0.585387
0.0321512
0.585465
0.0307752
0.585628
0.029251
0.585886
0.0276372
0.586244
0.0259825
0.586704
0.0243219
0.587268
0.0226832
0.587934
0.021085
0.588699
0.019536
0.589566
0.0181885
0.590526
0.016824
0.591573
0.0154895
0.5927
0.0141656
0.593919
0.013347
0.595206
0.0121834
0.596566
0.0112661
0.0102255
0.597985
0.314942
-0.845279
-0.238721
0.379741
-0.712174
0.433975
-0.589798
0.478711
-0.480982
0.515115
-0.38598
0.544342
-0.304423
0.567484
-0.235413
0.585537
-0.177761
0.599387
-0.13017
0.609804
-0.0913524
0.617454
-0.0600705
0.622906
-0.0351148
0.626637
-0.0155011
0.629049
-0.000331022
0.630474
0.0111717
0.631189
0.0196726
0.63142
0.0257374
0.631355
0.029842
0.631144
0.0323891
0.630912
0.0337117
0.630761
0.0340983
0.630501
0.0347466
0.630228
0.0343986
0.629982
0.0335475
0.62979
0.0323423
0.629676
0.030889
0.629655
0.029272
0.629737
0.0275551
0.629928
0.0257908
0.630233
0.0240173
0.63065
0.0222649
0.631182
0.0205541
0.631822
0.0188952
0.632574
0.0174362
0.63343
0.0159681
0.634383
0.0145366
0.635424
0.0131236
0.636566
0.0122052
0.637786
0.0109632
0.639086
0.00996662
0.0088597
0.640451
0.338205
-0.927809
-0.255676
0.408386
-0.782354
0.467147
-0.64856
0.515642
-0.529476
0.555125
-0.425463
0.586846
-0.336144
0.611981
-0.260548
0.631603
-0.197383
0.646665
-0.145233
0.658001
-0.102688
0.666327
-0.0683956
0.672254
-0.0410421
0.676298
-0.019546
0.678892
-0.00292513
0.680395
0.0096692
0.681103
0.0189644
0.681261
0.0255789
0.681071
0.0300321
0.680696
0.0327636
0.680271
0.0341362
0.679906
0.0344632
0.679423
0.0352292
0.678923
0.0348984
0.678448
0.0340216
0.678032
0.0327582
0.677698
0.0312224
0.677464
0.0295057
0.677342
0.0276773
0.677339
0.025794
0.677458
0.0238977
0.677701
0.0220213
0.678068
0.0201875
0.678554
0.0184084
0.679163
0.0168276
0.679885
0.0152459
0.680713
0.013708
0.68164
0.0121968
0.682676
0.0111693
0.683798
0.00984091
0.685007
0.00875716
0.00757695
0.68629
0.363327
-1.01721
-0.273925
0.439374
-0.858402
0.503075
-0.71226
0.555673
-0.582075
0.598525
-0.468315
0.632976