/*--------------------------------*- C++ -*----------------------------------*\
| =========                 |                                                 |
| \\      /  F ield         | OpenFOAM: The Open Source CFD Toolbox           |
|  \\    /   O peration     | Version:  2312                                  |
|   \\  /    A nd           | Website:  www.openfoam.com                      |
|    \\/     M anipulation  |                                                 |
\*---------------------------------------------------------------------------*/
FoamFile
{
    version     2.0;
    format      ascii;
    arch        "LSB;label=32;scalar=64";
    class       volScalarField;
    location    "550";
    object      turbulenceProperties:L;
}
// * * * * * * * * * * * * * * * * * * * * * * * * * * * * * * * * * * * * * //

dimensions      [0 1 0 0 0 0 0];

internalField   nonuniform List<scalar> 
11040
(
0.000442061
0.000482541
0.00085386
0.00142844
0.00137367
0.00130827
0.00128077
0.00127409
0.00125511
0.00124676
0.00123456
0.00122512
0.0012146
0.00120643
0.00119829
0.00119289
0.00119106
0.00119246
0.00119569
0.00119975
0.00120481
0.0012113
0.00121791
0.00122361
0.00123061
0.00124361
0.00126164
0.00128224
0.00130611
0.00133406
0.00136761
0.00140879
0.00146444
0.00155842
0.00172161
0.00183963
0.00181152
0.00233133
0.00379695
0.00263904
0.00241885
0.00117878
0.00105521
0.000670932
0.00086572
0.00240676
0.00432106
0.00678998
0.0105137
0.0168717
0.0227157
0.0122237
0.00962724
0.00817712
0.00727876
0.00661504
0.00613081
0.00578161
0.00554852
0.0054043
0.00530984
0.00525596
0.0052337
0.00525513
0.00534358
0.00554217
0.00595542
0.0066186
0.00753962
0.00883226
0.0106233
0.0128724
0.0148952
0.0164761
0.0166807
0.0159133
0.0148539
0.0138519
0.013277
0.011526
0.0122267
0.0076376
0.00149802
0.00161288
0.00131166
0.000824451
0.00154038
0.00308754
0.00525137
0.0082781
0.0105159
0.0126208
0.0152393
0.0185159
0.0242397
0.0397562
0.0487502
0.0284709
0.0225785
0.0196978
0.0181177
0.0173033
0.0170616
0.0173543
0.0184334
0.0205664
0.0239054
0.0284535
0.0341343
0.0407718
0.0473451
0.046693
0.0382292
0.0311004
0.0268088
0.0240186
0.0220649
0.0205686
0.0194221
0.0189115
0.0171893
0.0168125
0.0174869
0.0017704
0.00191336
0.00214568
0.00176923
0.00117021
0.00205954
0.003675
0.00586285
0.00942822
0.0122538
0.0146009
0.016617
0.0184432
0.0206055
0.0225084
0.0245568
0.026333
0.0277827
0.0287357
0.0290401
0.0289492
0.0286333
0.0281674
0.0278515
0.0280585
0.0289277
0.0305227
0.0329354
0.0361693
0.0395954
0.0412597
0.039693
0.0364307
0.0331102
0.0303352
0.0280743
0.0262989
0.0253952
0.0236164
0.0225069
0.029463
0.00205081
0.00215841
0.00209848
0.00291687
0.00263653
0.00151088
0.00251263
0.00414063
0.00644749
0.00989503
0.0137664
0.0169571
0.0190593
0.0212479
0.0228494
0.0243122
0.0254715
0.0263267
0.0269227
0.0272893
0.0275857
0.0279859
0.0285547
0.0293467
0.0305321
0.0322348
0.034564
0.037659
0.041633
0.0462746
0.0502316
0.0508791
0.0478182
0.0435209
0.0396436
0.0364648
0.0339693
0.0325334
0.0309288
0.029135
0.0390758
0.00241381
0.00251984
0.00255732
0.00243325
0.00443761
0.00598109
0.00179369
0.00289794
0.00452014
0.006918
0.0100596
0.014805
0.0187988
0.0222717
0.0245297
0.02646
0.028043
0.0292021
0.0300565
0.0306717
0.0311805
0.0317838
0.0326465
0.0338166
0.0354207
0.0375788
0.0404214
0.0441324
0.0489415
0.0549465
0.0612585
0.0644824
0.0617689
0.0560417
0.0505718
0.0461352
0.0427061
0.0405624
0.0391241
0.0369171
0.0469289
0.00284121
0.00290673
0.0029994
0.00291612
0.00285377
0.00728447
0.0750801
0.00196394
0.00319657
0.00483188
0.00719615
0.0102997
0.0147235
0.0202249
0.0246779
0.0282631
0.0309104
0.0328458
0.0343947
0.0355552
0.0364291
0.037205
0.0382057
0.0395496
0.0413752
0.0438292
0.0470715
0.0513252
0.0569154
0.0642464
0.0731347
0.0803653
0.0794524
0.0719519
0.0640821
0.0577908
0.053053
0.0499578
0.048431
0.046043
0.0550697
0.00332637
0.00336448
0.00339022
0.00345986
0.00333856
0.00324056
0.0216313
0.754222
0.00225668
0.00338803
0.00507148
0.00732542
0.0104586
0.0144457
0.0202394
0.0263049
0.0313066
0.0352383
0.0383737
0.0406672
0.0423882
0.0436389
0.0448616
0.0463387
0.0482725
0.05088
0.0543773
0.0590382
0.0652421
0.0736604
0.0849679
0.0977925
0.102725
0.0938474
0.0820247
0.0726793
0.0659083
0.0614388
0.0593281
0.0569758
0.0646244
0.00387096
0.00389913
0.00389588
0.00391212
0.00399174
0.0037806
0.00381888
0.0128462
0.0142238
0.0116563
0.00336131
0.00518565
0.00739172
0.010386
0.0142987
0.0193756
0.0264095
0.0332311
0.0389324
0.0435392
0.0472222
0.0498478
0.051962
0.0539733
0.0562084
0.0589738
0.0625938
0.0674505
0.0740124
0.0830802
0.0960264
0.114382
0.132747
0.127861
0.108668
0.0933739
0.0829657
0.0762466
0.0728273
0.0704233
0.0764516
0.00449225
0.00451302
0.00449716
0.00447361
0.00449182
0.00456447
0.00433631
0.00451236
0.00875779
0.0410883
0.00600412
0.00336849
0.00518201
0.00740331
0.0102061
0.0139729
0.0187128
0.0249781
0.0332796
0.0412591
0.0478993
0.0530503
0.0571189
0.0605922
0.0639358
0.0675316
0.0717341
0.0769582
0.0837442
0.0930039
0.106419
0.127259
0.161305
0.189934
0.157562
0.126554
0.108084
0.0969822
0.090982
0.08781
0.0919891
0.00520204
0.00521736
0.00519204
0.00515229
0.00511705
0.00513933
0.00518052
0.00503641
0.00500058
0.00763643
0.0532421
0.012292
0.0162528
0.00479123
0.00722537
0.00996735
0.0134399
0.0180072
0.0236734
0.0312125
0.0410072
0.0501674
0.0572731
0.0630764
0.0683306
0.0734713
0.0789454
0.0852475
0.0929007
0.102666
0.115907
0.135533
0.16944
0.249184
0.319173
0.195657
0.151133
0.129395
0.117983
0.112334
0.113788
0.00601788
0.00602794
0.00599994
0.00594439
0.00588741
0.0058436
0.00585205
0.00588787
0.00580572
0.00569688
0.00700112
0.0624351
0.105578
0.0069475
0.00427789
0.00676199
0.00958166
0.0128641
0.0170381
0.0224643
0.0292019
0.037707
0.0479011
0.0579418
0.0665227
0.0738485
0.0808928
0.0884597
0.0970529
0.107266
0.120057
0.137189
0.162344
0.205406
0.303712
0.366969
0.235153
0.185141
0.161921
0.150752
0.14774
0.00695967
0.00696395
0.00693501
0.00686951
0.0067898
0.00671668
0.00666055
0.00664663
0.00667424
0.00664485
0.00651614
0.00693322
0.0167687
0.0944441
0.0265231
0.00829735
0.00570218
0.00888002
0.0121589
0.0160225
0.0209396
0.0270867
0.0341376
0.0422964
0.0521877
0.0632814
0.0742715
0.0844646
0.0941732
0.104347
0.115976
0.129997
0.147517
0.170006
0.198693
0.229982
0.245286
0.23354
0.214894
0.203203
0.199849
0.00805218
0.008049
0.00802039
0.00794735
0.00784775
0.00774548
0.00765383
0.00757921
0.00753928
0.00754792
0.00755788
0.00739865
0.00746729
0.0100351
0.162214
0.352434
0.0131178
0.010095
0.00756202
0.0111088
0.0149059
0.0191756
0.0241874
0.030269
0.037313
0.0451407
0.0541742
0.0649508
0.077276
0.0903984
0.103618
0.116722
0.129966
0.143733
0.157926
0.171777
0.183745
0.192608
0.198153
0.202954
0.213875
0.00932648
0.00931387
0.00928585
0.0092056
0.00908721
0.00895658
0.00882906
0.00871342
0.00861509
0.00854494
0.00852822
0.00853056
0.0084186
0.00836123
0.00885109
0.0194375
0.100255
1.95239
0.00918988
0.0123286
0.00934827
0.0131986
0.016992
0.0211607
0.0259518
0.0316532
0.0384221
0.0461294
0.0545727
0.0639237
0.074627
0.0869002
0.100424
0.114388
0.127665
0.139158
0.148187
0.155154
0.160814
0.165697
0.174394
0.0108205
0.0107973
0.0107696
0.0106817
0.0105437
0.0103848
0.0102221
0.0100638
0.00991787
0.00979075
0.00968888
0.00963507
0.00960508
0.00957014
0.00937666
0.00960672
0.0109167
0.0642824
0.208475
5.58355
0.00871542
0.013588
0.00952237
0.0137368
0.0175897
0.0216698
0.0261524
0.0313006
0.0373208
0.0443239
0.0522228
0.0607497
0.069668
0.0789569
0.0886551
0.0986662
0.108642
0.118174
0.126675
0.133301
0.14043
0.0125639
0.0125295
0.0125009
0.0124035
0.0122445
0.012057
0.0118588
0.0116593
0.0114661
0.0112873
0.0111283
0.010994
0.0108924
0.0108364
0.01077
0.0106666
0.0105038
0.0110722
0.014661
0.173723
0.323624
7.84164
0.0173404
0.00983658
0.0101969
0.0126191
0.0159983
0.0201053
0.0243542
0.0289861
0.0341518
0.0399481
0.0463882
0.053426
0.0608998
0.0685705
0.0761504
0.0835144
0.0904605
0.0966154
0.103036
0.0145179
0.0144705
0.0144373
0.0143257
0.0141413
0.0139211
0.0136851
0.0134427
0.0132031
0.0129741
0.0127623
0.0125718
0.0124049
0.0122656
0.0121659
0.0120847
0.0119938
0.0117933
0.0117485
0.0125534
0.0181106
0.236933
0.360042
3.11271
0.0909813
0.0135115
0.00917517
0.0163919
0.00998712
0.0139146
0.0189824
0.0237147
0.0284942
0.0335138
0.0388239
0.0443962
0.050137
0.0560276
0.061951
0.0676143
0.0735512
0.0166204
0.0165573
0.0165166
0.0163871
0.016174
0.0159184
0.0156414
0.0153526
0.0150622
0.0147799
0.0145132
0.0142671
0.0140448
0.0138468
0.0136765
0.0135339
0.013432
0.0133189
0.0131727
0.0129848
0.0130323
0.0141543
0.0178974
0.0907905
0.274692
0.828233
6.33734
0
0.133686
0.0153011
0.00973136
0.0166184
0.0294203
0.0110259
0.0179252
0.0234638
0.0285949
0.0335452
0.0384475
0.0431635
0.0481053
0.0188543
0.0187759
0.0187267
0.0185777
0.018335
0.0180432
0.0177248
0.0173902
0.01705
0.0167152
0.0163936
0.0160903
0.0158098
0.0155547
0.0153263
0.015124
0.0149502
0.0148064
0.0146858
0.0145419
0.0143586
0.0142204
0.0142372
0.0150496
0.0176753
0.0243109
0.167516
0.377432
0.921904
1.53339
24.751
0
0
0.146066
0.0136683
0.0104793
0.0165104
0.0354415
0.0407419
0.0132343
0.0215841
0.0212438
0.0211507
0.0210917
0.0209216
0.0206475
0.0203177
0.019956
0.0195741
0.0191838
0.0187966
0.0184213
0.0180632
0.0177266
0.0174148
0.01713
0.016873
0.0166429
0.0164397
0.0162648
0.0161144
0.0159779
0.0158129
0.0156417
0.0154277
0.0154378
0.0156409
0.016579
0.0189636
0.0243713
0.0374936
0.774751
0.640752
1.08176
1.57167
2.70074
21.2977
0
0
0
0.125206
0.0154318
0.0238067
0.023699
0.023628
0.0234345
0.023127
0.0227571
0.0223501
0.0219189
0.0214768
0.0210363
0.0206072
0.0201951
0.0198044
0.0194388
0.0191005
0.0187907
0.0185096
0.0182567
0.0180308
0.0178295
0.0176597
0.0175118
0.0173761
0.0172139
0.01703
0.0168669
0.0166892
0.0166751
0.0168713
0.017225
0.0183039
0.0205651
0.0246778
0.0335166
0.054123
0.975009
0.815821
1.29512
1.64025
2.23437
3.53873
0.0265637
0.0264415
0.0263562
0.026137
0.0257939
0.0253816
0.0249267
0.0244442
0.0239486
0.0234536
0.0229699
0.0225035
0.0220591
0.0216409
0.0212513
0.0208917
0.0205624
0.0202635
0.0199943
0.0197516
0.0195411
0.0193617
0.0192054
0.0190731
0.0189468
0.018823
0.0186791
0.0185194
0.018369
0.0182529
0.0181191
0.0181193
0.018263
0.0185776
0.0190436
0.0200729
0.0218609
0.0247755
0.029394
0.0377533
0.0562814
0.0295359
0.0293986
0.0292961
0.0290486
0.0286675
0.02821
0.0277045
0.027168
0.0266166
0.0260654
0.0255258
0.0250046
0.024507
0.0240372
0.023598
0.023191
0.0228168
0.0224754
0.0221667
0.0218877
0.0216451
0.0214375
0.0212553
0.0211027
0.0209757
0.0208688
0.0207787
0.020697
0.0206155
0.0205358
0.0204414
0.0203409
0.0202509
0.0201832
0.0201461
0.0200973
0.0201286
0.0202531
0.0204739
0.0208162
0.0212736
0.0327458
0.0325931
0.0324703
0.0321912
0.0317694
0.0312635
0.0307044
0.0301111
0.0295016
0.0288922
0.0282953
0.0277186
0.0271677
0.0266469
0.0261593
0.0257067
0.02529
0.0249096
0.0245653
0.0242543
0.0239849
0.0237555
0.0235556
0.0233889
0.0232525
0.0231421
0.0230554
0.0229913
0.022947
0.0229202
0.0229086
0.022907
0.0229118
0.0229205
0.0229355
0.0229495
0.0229655
0.0229888
0.0230228
0.0230749
0.0231638
0.0362182
0.0360489
0.0359019
0.0355878
0.0351217
0.0345637
0.0339474
0.0332938
0.0326234
0.0319535
0.0312977
0.0306645
0.0300597
0.0294883
0.0289536
0.0284572
0.0280005
0.0275841
0.027208
0.0268695
0.0265782
0.0263321
0.0261194
0.0259448
0.0258054
0.0256965
0.0256153
0.02556
0.025529
0.0255209
0.0255348
0.0255695
0.0256239
0.0256962
0.0257848
0.0258901
0.0260089
0.0261391
0.0262781
0.0264215
0.0266192
0.0399796
0.0397928
0.0396166
0.0392628
0.0387481
0.0381338
0.0374557
0.0367383
0.0360036
0.0352708
0.0345541
0.033863
0.0332036
0.0325819
0.0320009
0.0314624
0.0309678
0.030518
0.0301135
0.0297513
0.0294425
0.0291845
0.0289633
0.0287851
0.0286468
0.0285436
0.0284724
0.0284308
0.0284171
0.0284293
0.0284657
0.028525
0.0286063
0.0287081
0.0288293
0.0289702
0.0291294
0.0293063
0.0294978
0.0297018
0.0299632
0.0440601
0.0438531
0.0436418
0.0432428
0.042674
0.0419979
0.0412531
0.0404672
0.0396646
0.0388658
0.0380861
0.0373356
0.0366211
0.0359492
0.0353227
0.0347436
0.0342132
0.0337328
0.033303
0.032921
0.032599
0.0323333
0.0321081
0.0319303
0.0317972
0.0317032
0.031645
0.0316202
0.0316266
0.0316618
0.031724
0.0318112
0.0319222
0.032055
0.0322079
0.0323808
0.0325721
0.0327816
0.0330032
0.0332411
0.0335313
0.0484921
0.0482622
0.0480077
0.047556
0.0469263
0.0461815
0.0453637
0.0445041
0.0436292
0.0427609
0.0419155
0.0411039
0.0403338
0.0396112
0.03894
0.0383216
0.0377575
0.0372491
0.0367972
0.0363989
0.0360678
0.0357987
0.0355734
0.0353998
0.0352755
0.0351943
0.0351522
0.0351465
0.0351748
0.0352345
0.0353234
0.0354391
0.0355801
0.0357442
0.0359292
0.0361348
0.0363592
0.036603
0.0368554
0.0371303
0.0374463
0.0533126
0.053054
0.0527468
0.0522329
0.0515332
0.0507113
0.0498132
0.0488733
0.0479209
0.0469788
0.0460648
0.0451899
0.0443628
0.043589
0.0428736
0.0422173
0.0416214
0.0410872
0.0406159
0.0402046
0.0398677
0.0395988
0.0393767
0.0392107
0.0390979
0.0390319
0.0390082
0.0390237
0.0390755
0.0391608
0.039277
0.0394213
0.0395921
0.0397867
0.0400025
0.0402387
0.0404936
0.0407687
0.041047
0.0413582
0.0416834
0.0585619
0.0582679
0.0578941
0.0573059
0.0565253
0.0556159
0.0546282
0.0536005
0.0525641
0.0515435
0.050557
0.0496166
0.0487306
0.0479053
0.0471458
0.0464528
0.0458266
0.045269
0.0447809
0.0443596
0.04402
0.0437544
0.0435383
0.0433825
0.0432839
0.0432354
0.0432316
0.0432696
0.043346
0.0434574
0.0436009
0.0437733
0.0439727
0.0441959
0.0444397
0.0447031
0.0449843
0.0452862
0.0455831
0.0459303
0.0462393
0.0642857
0.0639446
0.0634884
0.0628105
0.0619346
0.0609251
0.0598363
0.0587113
0.0575831
0.0564779
0.0554143
0.0544052
0.0534585
0.0525807
0.0517769
0.0510478
0.0503927
0.0498136
0.0493109
0.0488822
0.0485425
0.0482828
0.0480749
0.0479312
0.0478484
0.0478185
0.0478355
0.0478958
0.0479959
0.048132
0.0483007
0.0484984
0.0487229
0.0489707
0.049238
0.0495235
0.0498251
0.0501485
0.0504551
0.0508386
0.0511007
0.0705355
0.070132
0.069571
0.0687843
0.0677956
0.0666696
0.0654657
0.0642316
0.0630022
0.0618047
0.0606583
0.0595761
0.058566
0.0576344
0.0567855
0.0560207
0.0553379
0.0547386
0.0542232
0.0537894
0.0534522
0.0532004
0.053003
0.052873
0.0528073
0.0527967
0.0528347
0.0529171
0.0530398
0.0531987
0.05339
0.0536095
0.053855
0.0541226
0.0544077
0.0547089
0.0550238
0.0553616
0.0556673
0.0560877
0.0562629
0.0773683
0.07688
0.0761885
0.0752677
0.0741443
0.0728815
0.0715457
0.0701879
0.0688456
0.0675462
0.0663099
0.0651491
0.0640721
0.063084
0.0621886
0.0613872
0.0606771
0.0600582
0.059531
0.0590926
0.0587583
0.0585141
0.0583262
0.0582089
0.0581588
0.0581653
0.0582212
0.0583221
0.0584633
0.0586403
0.0588488
0.0590842
0.059344
0.0596241
0.0599191
0.0602276
0.0605466
0.0608901
0.0611825
0.0616396
0.0616846
0.0848491
0.0842467
0.0833893
0.0823047
0.0810187
0.0795949
0.0781057
0.0766064
0.0751365
0.0737235
0.072388
0.0711417
0.0699926
0.0689446
0.0680006
0.0671616
0.0664241
0.0657862
0.065248
0.0648065
0.0644761
0.064241
0.0640636
0.0639596
0.0639251
0.0639482
0.064021
0.0641382
0.064295
0.0644861
0.0647067
0.0649518
0.0652189
0.0655035
0.0657995
0.0661055
0.066418
0.0667568
0.0670215
0.0675165
0.067375
0.0930498
0.0922936
0.0912288
0.0899415
0.0884591
0.0868439
0.0851748
0.0835122
0.0818964
0.0803555
0.078909
0.0775685
0.0763403
0.0752273
0.0742305
0.0733503
0.072582
0.0719222
0.0713696
0.070921
0.070589
0.0703565
0.0701821
0.0700835
0.070056
0.0700863
0.0701659
0.070289
0.0704504
0.0706443
0.0708656
0.0711089
0.0713715
0.071649
0.0719344
0.0722262
0.0725205
0.0728437
0.0730678
0.0735969
0.0732317
0.102052
0.10109
0.099764
0.0982273
0.096506
0.0946616
0.0927811
0.0909282
0.0891453
0.0874586
0.0858877
0.0844419
0.0831267
0.0819427
0.0808895
0.0799656
0.0791659
0.0784849
0.0779197
0.0774668
0.0771369
0.0769105
0.0767423
0.0766519
0.0766337
0.0766726
0.0767588
0.0768865
0.0770498
0.0772424
0.0774586
0.0776928
0.0779423
0.0782024
0.0784659
0.0787316
0.0789945
0.079289
0.0794555
0.0800204
0.0793577
0.111943
0.110708
0.109056
0.10721
0.105197
0.10308
0.10095
0.0988766
0.0969008
0.0950489
0.0933367
0.0917728
0.0903583
0.0890929
0.0879716
0.0869925
0.0861482
0.0854313
0.0848362
0.0843596
0.0840086
0.0837647
0.0835783
0.0834715
0.0834377
0.0834608
0.0835301
0.0836396
0.083783
0.0839539
0.0841459
0.084353
0.0845728
0.0848006
0.0850285
0.0852554
0.0854762
0.0857319
0.0858356
0.0864214
0.0854797
0.122818
0.121224
0.119166
0.116938
0.114571
0.112127
0.109706
0.107378
0.105182
0.103143
0.101271
0.0995749
0.0980515
0.0966997
0.0955106
0.0944796
0.0935995
0.0928602
0.0922527
0.0917733
0.0914248
0.0911853
0.0910017
0.0908978
0.0908656
0.0908871
0.0909505
0.0910493
0.0911769
0.0913264
0.0914914
0.0916659
0.0918476
0.0920319
0.0922114
0.0923858
0.0925485
0.0927492
0.0927667
0.0933853
0.092034
0.134783
0.132722
0.13016
0.127461
0.124665
0.121837
0.119078
0.116459
0.114016
0.111763
0.109711
0.107859
0.106204
0.104737
0.103445
0.102317
0.101348
0.100526
0.0998411
0.0992872
0.098866
0.0985601
0.0983116
0.0981464
0.098056
0.0980208
0.0980288
0.0980732
0.0981473
0.0982437
0.0983556
0.0984767
0.0986045
0.0987345
0.0988587
0.0989762
0.099082
0.099227
0.0991807
0.0997697
0.0982289
0.147956
0.145281
0.142086
0.138814
0.135516
0.132249
0.129109
0.126163
0.123439
0.12095
0.118696
0.116676
0.114883
0.113316
0.111963
0.110805
0.109829
0.109013
0.108342
0.107808
0.107407
0.107114
0.106872
0.106707
0.106611
0.106563
0.106549
0.106563
0.106598
0.106647
0.106705
0.106765
0.106825
0.106882
0.10693
0.10697
0.106993
0.107061
0.106905
0.107546
0.105432
0.16241
0.158924
0.154934
0.15097
0.147104
0.143369
0.139834
0.13654
0.133507
0.130744
0.128254
0.126025
0.12403
0.122239
0.120629
0.119205
0.117974
0.116927
0.116049
0.115324
0.114745
0.114299
0.113919
0.113632
0.113427
0.113278
0.113174
0.113105
0.113065
0.113044
0.113036
0.113034
0.113035
0.113035
0.113026
0.113006
0.112975
0.112979
0.112795
0.113258
0.111379
0.17805
0.173584
0.168676
0.163925
0.159429
0.155199
0.151267
0.147642
0.144309
0.141256
0.138491
0.136039
0.133929
0.132174
0.130736
0.129522
0.128465
0.127543
0.126747
0.126083
0.125543
0.125098
0.124697
0.124372
0.124116
0.123904
0.123723
0.123567
0.12343
0.123306
0.12319
0.123077
0.122965
0.122854
0.122738
0.122622
0.122494
0.122426
0.122114
0.122783
0.119883
0.194798
0.189256
0.183454
0.177981
0.172884
0.168115
0.163695
0.159657
0.155999
0.152687
0.14965
0.146802
0.144073
0.14144
0.138966
0.136808
0.13504
0.133597
0.132407
0.131415
0.130604
0.129968
0.12942
0.128982
0.128636
0.128354
0.128122
0.127929
0.127765
0.127622
0.127489
0.12736
0.127231
0.127096
0.126949
0.126785
0.126612
0.126445
0.126172
0.12625
0.124766
0.213209
0.206197
0.199408
0.193371
0.187937
0.182846
0.177994
0.173381
0.169079
0.16521
0.161916
0.159299
0.157368
0.156034
0.155037
0.153933
0.152571
0.151148
0.149792
0.14857
0.147475
0.146473
0.145544
0.144725
0.144005
0.143361
0.142777
0.142247
0.141765
0.141324
0.14092
0.140548
0.140207
0.139896
0.139613
0.139363
0.139128
0.138992
0.13861
0.139493
0.135662
0.233631
0.223782
0.215054
0.208046
0.202417
0.197605
0.193219
0.188981
0.184668
0.180123
0.175276
0.170173
0.164987
0.159958
0.15544
0.152001
0.149645
0.147849
0.146401
0.145205
0.144255
0.143522
0.142911
0.142432
0.142056
0.141753
0.141504
0.141295
0.141111
0.140939
0.140768
0.140585
0.140386
0.140163
0.13991
0.139612
0.139303
0.13892
0.138615
0.137872
0.138108
0.252565
0.240407
0.229945
0.221363
0.214418
0.208787
0.204321
0.200926
0.198461
0.196742
0.195551
0.194678
0.193913
0.193213
0.192394
0.190359
0.187153
0.183781
0.180534
0.17756
0.174862
0.172412
0.170175
0.168152
0.16634
0.164712
0.16325
0.161942
0.160782
0.159761
0.158876
0.158125
0.157503
0.157014
0.156656
0.156442
0.15634
0.156475
0.156392
0.158196
0.153479
0.241447
0.227102
0.220104
0.218489
0.219775
0.220988
0.219329
0.213654
0.205076
0.195614
0.186791
0.179292
0.173272
0.168547
0.164981
0.163058
0.162498
0.162554
0.162883
0.163352
0.164019
0.164581
0.165242
0.165933
0.166616
0.167279
0.167919
0.168528
0.169104
0.169647
0.170164
0.170661
0.171158
0.171674
0.17222
0.172791
0.173504
0.174197
0.1755
0.175149
0.180732
0.00491122
0.00920339
0.0142727
0.0193999
0.0243434
0.0292569
0.0351546
0.0473422
0.0431548
0.00938057
0.0577188
0.0737787
0.010097
0.0102887
0.0113131
0.0121063
0.0131266
0.0143856
0.0160261
0.0176928
0.019767
0.0219653
0.0245693
0.0275076
0.0308582
0.0345292
0.0388402
0.043371
0.0483977
0.0539817
0.0597868
0.0665099
0.0731792
0.0807879
0.0897611
0.0989073
0.110764
0.124341
0.144429
0.166283
0.212311
0.316195
0.37033
0.260758
0.202978
0.171641
0.15269
0.140418
0.13166
0.125227
0.120852
0.117846
0.116113
0.115439
0.115815
0.117014
0.119341
0.122428
0.126767
0.131869
0.13865
0.14619
0.15571
0.167105
0.180451
0.197531
0.217193
0.242875
0.27517
0.318936
0.37803
0.447971
0.52085
0.35989
0.00870772
0.012207
0.0168954
0.0216024
0.025921
0.0298999
0.0340374
0.0398265
0.0539846
0.0302774
0.0236791
0.355898
0.0343516
0.0105156
0.0111847
0.0126055
0.0136354
0.0145739
0.0159622
0.017572
0.0196466
0.0218695
0.024391
0.0272063
0.0304422
0.0339858
0.0381507
0.0426097
0.0474934
0.0530041
0.0587354
0.0654239
0.0721957
0.0797791
0.0888891
0.0982283
0.110313
0.124222
0.145057
0.167881
0.21474
0.329742
0.378032
0.260544
0.203886
0.173311
0.154397
0.142351
0.133953
0.127631
0.123442
0.120611
0.11906
0.118554
0.119204
0.120565
0.123153
0.126496
0.131168
0.136556
0.143797
0.151757
0.161615
0.17377
0.187667
0.20566
0.226313
0.252906
0.286682
0.332015
0.39251
0.456137
0.527934
0.36035
0.014919
0.0169651
0.0206807
0.02467
0.0283728
0.031677
0.0348629
0.0386668
0.0447863
0.0572354
0.0231796
0.0093321
0.237717
0.0345126
0.0109057
0.0116057
0.0134877
0.0152307
0.0165815
0.0178774
0.0195245
0.0216664
0.0241915
0.0269941
0.030128
0.0335583
0.0375117
0.0419238
0.0466902
0.0520164
0.0577889
0.0641902
0.0712798
0.078873
0.0877078
0.0975225
0.109474
0.123749
0.143886
0.17092
0.215983
0.333683
0.461841
0.270247
0.208622
0.177538
0.15809
0.145712
0.137497
0.131206
0.127121
0.124414
0.123017
0.12266
0.123467
0.125168
0.127913
0.131595
0.13651
0.142311
0.149835
0.158494
0.168591
0.181367
0.19597
0.214521
0.23636
0.263315
0.297825
0.343035
0.402216
0.452997
0.518704
0.35773
0.0230958
0.0235091
0.0259038
0.0288914
0.0318576
0.0345249
0.0369784
0.0396449
0.0432677
0.0492106
0.0538252
0.0193296
0.00879773
0.252688
0.0548924
0.0121995
0.0118536
0.0135687
0.015913
0.0183032
0.0201338
0.0218704
0.0239075
0.026518
0.0296492
0.0330935
0.0368991
0.0411938
0.0458616
0.0510821
0.0568331
0.0631019
0.0702477
0.0778393
0.086522
0.0965302
0.108365
0.122704
0.142167
0.170561
0.213541
0.323406
0.625757
0.288671
0.216648
0.183971
0.163564
0.15041
0.142054
0.135728
0.131602
0.12896
0.127657
0.127433
0.128368
0.130332
0.13325
0.137226
0.142379
0.148568
0.156367
0.165609
0.175999
0.189284
0.20448
0.223473
0.24608
0.273185
0.307694
0.351759
0.40733
0.447003
0.503172
0.355229
0.0324242
0.0319862
0.0328181
0.0345334
0.0365683
0.0384993
0.0402382
0.0420215
0.0442906
0.0475305
0.0524032
0.0499994
0.017896
0.0104873
0.493216
0.0741138
0.0212607
0.0140613
0.0141112
0.0159739
0.0188354
0.0219544
0.0243866
0.0265697
0.0291247
0.0323237
0.0361158
0.0404259
0.0450406
0.050173
0.0558439
0.0620937
0.0691796
0.0767534
0.0854227
0.0954235
0.107175
0.121408
0.140458
0.167935
0.208456
0.305511
1.36579
0.316988
0.228701
0.192721
0.170801
0.156599
0.147778
0.1413
0.13699
0.134341
0.133056
0.132919
0.134012
0.136078
0.139197
0.143382
0.14879
0.15528
0.163397
0.173028
0.183713
0.197432
0.213025
0.232341
0.255284
0.282276
0.316178
0.358337
0.408942
0.44038
0.485991
0.35313
0.0439808
0.0425211
0.0416584
0.0418838
0.0427813
0.043819
0.0447655
0.045716
0.0469607
0.0487707
0.0513486
0.0543254
0.0487834
0.0222484
0.0158905
0.0659133
0.185425
0.0865488
0.03122
0.0177602
0.0170686
0.0188909
0.0223647
0.0263555
0.0295175
0.0322764
0.0354241
0.0394132
0.0440498
0.0492755
0.0549544
0.061173
0.0681931
0.0757641
0.084453
0.0944541
0.106085
0.120185
0.138862
0.16505
0.202656
0.286084
0.600185
0.3461
0.242759
0.202696
0.179008
0.163803
0.154458
0.147696
0.143191
0.140493
0.139198
0.139107
0.140347
0.142498
0.145802
0.15016
0.155802
0.162538
0.170949
0.180868
0.191775
0.205853
0.221658
0.241108
0.264006
0.290488
0.323179
0.362611
0.407447
0.432044
0.467789
0.350642
0.0570683
0.0551256
0.0526281
0.0512407
0.0508058
0.0507673
0.0507865
0.0508489
0.0511448
0.051864
0.0531211
0.0547899
0.055837
0.0508277
0.0332537
0.00932267
0.017105
0.0117417
0.288833
0.120972
0.0687942
0.0236685
0.0209816
0.0224324
0.026444
0.031569
0.0357588
0.0393629
0.0432627
0.0481047
0.0538564
0.0602696
0.0673743
0.0749451
0.0835908
0.0935837
0.10511
0.119072
0.137214
0.162134
0.196559
0.265751
0.412764
0.354654
0.255148
0.212513
0.18743
0.171409
0.161672
0.154606
0.149964
0.147231
0.145945
0.145897
0.147246
0.14955
0.153017
0.157548
0.16338
0.170344
0.17897
0.189135
0.20015
0.21447
0.230312
0.249633
0.272131
0.297632
0.328503
0.364548
0.403215
0.422135
0.449331
0.347601
0.0704362
0.0697357
0.0659105
0.06289
0.0609735
0.0596733
0.0585991
0.057655
0.0569591
0.0566548
0.0568488
0.0574929
0.0582914
0.0583847
0.0554623
0.0470016
0.0351375
0.0190088
0.0249363
0.0160801
0.680279
0.193523
2.98719
0.0342769
0.026232
0.0267572
0.0313271
0.0377252
0.0434896
0.0482902
0.0531935
0.0590721
0.0662294
0.0741194
0.0829346
0.0928849
0.104241
0.117982
0.135498
0.159008
0.190171
0.246005
0.330598
0.334485
0.261998
0.220896
0.195557
0.179009
0.169038
0.161807
0.157093
0.154375
0.153148
0.153175
0.154632
0.157124
0.160752
0.165466
0.171443
0.178614
0.187372
0.197726
0.208725
0.223107
0.238789
0.257682
0.279421
0.303485
0.332027
0.364353
0.396936
0.411594
0.431487
0.344277
0.0843629
0.0863414
0.0817709
0.0771474
0.0736421
0.0709156
0.0685668
0.0664592
0.0646585
0.0632789
0.0624295
0.0621215
0.0622518
0.0626187
0.0628845
0.0624754
0.0607065
0.0566132
0.0472907
0.0321152
0.0359647
0.0245865
19.0702
0.313247
0.166095
0.0661727
0.0344931
0.0326399
0.0377985
0.0453557
0.0532436
0.05989
0.0661112
0.0731482
0.0818407
0.0920753
0.103631
0.117189
0.133911
0.155801
0.183853
0.228734
0.283341
0.301924
0.260695
0.226234
0.202569
0.186142
0.17618
0.169071
0.164386
0.161769
0.160676
0.160841
0.162451
0.165137
0.168941
0.173847
0.179934
0.187271
0.196085
0.206526
0.217372
0.231605
0.246888
0.265044
0.285656
0.307909
0.333774
0.362343
0.389268
0.400992
0.414755
0.340862
0.100442
0.10535
0.100804
0.0945989
0.0893227
0.0849814
0.0811557
0.077686
0.0746125
0.0720301
0.0700509
0.0687244
0.0680337
0.0679311
0.0683967
0.0694315
0.0709638
0.0725554
0.073102
0.0707604
0.062603
0.0469438
0.0492362
0.0364917
0.043459
0.678025
0.261015
0.304725
0.0489868
0.0411519
0.0463661
0.0550526
0.0657634
0.0750479
0.0829408
0.0917098
0.102607
0.116215
0.132763
0.153362
0.178367
0.21434
0.252365
0.271133
0.251389
0.226714
0.206887
0.191901
0.182448
0.175906
0.171487
0.169151
0.168324
0.16874
0.170601
0.173504
0.177534
0.182634
0.188838
0.196268
0.205064
0.215453
0.225994
0.239855
0.25447
0.271576
0.290704
0.310864
0.333858
0.358807
0.380741
0.390528
0.399284
0.337401
0.121876
0.128989
0.124783
0.11673
0.109153
0.102743
0.0970896
0.0919548
0.0873488
0.0833533
0.0800771
0.0775897
0.0759143
0.0750496
0.0750198
0.0758921
0.0777166
0.0803576
0.0833632
0.0859615
0.0871399
0.0854254
0.0782811
0.0639147
0.0222859
0.05333
0.0292124
3.44656
0.453768
0.237582
0.0724005
0.0531451
0.0566339
0.0665584
0.0803184
0.0937255
0.104852
0.116395
0.131046
0.150515
0.174074
0.204058
0.231322
0.245924
0.237474
0.221948
0.207151
0.194958
0.186793
0.181386
0.177669
0.175934
0.175626
0.176496
0.178776
0.182015
0.186361
0.191705
0.198051
0.20553
0.214217
0.224414
0.234466
0.247716
0.261394
0.27716
0.294499
0.31237
0.332438
0.354041
0.371722
0.380298
0.385102
0.333912
0.155643
0.165589
0.160344
0.14827
0.136382
0.126424
0.117932
0.110444
0.103775
0.0979592
0.0930823
0.0891974
0.0863286
0.0844747
0.0836427
0.0838635
0.0851626
0.0874682
0.0905432
0.0939897
0.0973188
0.0999652
0.101243
0.100036
0.094258
0.0824202
0.0491336
0.0766748
0.0534243
0.0416754
0.402068
0.367985
0.212928
0.0784702
0.0727211
0.0832378
0.100186
0.11898
0.135363
0.151078
0.169443
0.193994
0.216687
0.228465
0.223906
0.213878
0.203724
0.194774
0.188483
0.184601
0.182077
0.181321
0.181873
0.183516
0.186446
0.190283
0.195089
0.200837
0.207364
0.21492
0.223391
0.233277
0.242649
0.255025
0.267522
0.281693
0.297028
0.312523
0.329735
0.348353
0.362539
0.370445
0.372204
0.330439
0.212687
0.242282
0.240294
0.210909
0.18342
0.163336
0.148183
0.136058
0.1259
0.117289
0.110115
0.104352
0.0999478
0.0968293
0.0949434
0.0942535
0.0947225
0.0962613
0.0986911
0.101743
0.105106
0.108465
0.111522
0.113916
0.115191
0.114479
0.1102
0.101551
0.0777877
0.050733
0.151597
0.0856411
2.90365
0.778552
0.42967
0.1421
0.098313
0.10476
0.126116
0.153477
0.177023
0.194076
0.205513
0.213063
0.211922
0.205447
0.198274
0.191909
0.187524
0.185203
0.184103
0.184568
0.18629
0.189038
0.192926
0.197696
0.203217
0.209616
0.216463
0.224181
0.232387
0.241847
0.250384
0.261615
0.272718
0.285116
0.298331
0.311479
0.326013
0.342034
0.353425
0.361058
0.360563
0.327026
0.225771
0.26449
0.357552
1.01194
0.350474
0.249854
0.204929
0.178041
0.159207
0.144857
0.133591
0.124776
0.118041
0.113134
0.109824
0.10794
0.107349
0.1079
0.109409
0.111646
0.114367
0.117337
0.120352
0.123231
0.125812
0.127854
0.129032
0.128687
0.126107
0.119913
0.106204
0.0419779
0.144603
0.112798
0
2.06163
0.71943
0.257081
0.135129
0.130794
0.15682
0.195035
0.215829
0.214178
0.205726
0.198042
0.19213
0.187476
0.184569
0.183586
0.183852
0.185528
0.188501
0.192511
0.19761
0.203625
0.210169
0.217543
0.22494
0.233009
0.240957
0.249936
0.257493
0.267366
0.276882
0.287397
0.298472
0.309407
0.321505
0.335303
0.344529
0.352181
0.350117
0.323708
0.178647
0.188487
0.200818
0.222096
0.254961
0.296072
0.299218
0.256982
0.217619
0.18973
0.169749
0.154849
0.143769
0.13571
0.130089
0.12643
0.124369
0.12363
0.12396
0.125118
0.126877
0.129024
0.131378
0.133792
0.13616
0.138394
0.140396
0.141987
0.143
0.142845
0.141139
0.135387
0.126903
0.101158
0.188776