/*--------------------------------*- C++ -*----------------------------------*\
| =========                 |                                                 |
| \\      /  F ield         | OpenFOAM: The Open Source CFD Toolbox           |
|  \\    /   O peration     | Version:  2312                                  |
|   \\  /    A nd           | Website:  www.openfoam.com                      |
|    \\/     M anipulation  |                                                 |
\*---------------------------------------------------------------------------*/
FoamFile
{
    version     2.0;
    format      ascii;
    arch        "LSB;label=32;scalar=64";
    class       volScalarField;
    location    "550";
    object      turbulenceProperties:epsilon;
}
// * * * * * * * * * * * * * * * * * * * * * * * * * * * * * * * * * * * * * //

dimensions      [0 2 -3 0 0 0 0];

internalField   nonuniform List<scalar> 
11040
(
94.0491
100.641
3.85159
1.07956
16.7072
18.8597
17.8011
15.6364
13.5415
12.2301
11.031
10.0006
9.18776
8.54828
8.04533
7.76393
7.68736
7.85043
8.23385
8.83994
9.70292
10.8124
12.2034
13.9442
16.0818
18.6754
21.5496
24.3487
26.7428
28.3248
28.6996
27.5999
25.211
22.0929
18.5342
12.11
4.80366
1.84277
0.335624
1.77999
5.99905
0.856162
2.81884
27.7299
50.9094
50.6469
5.77807
0.638381
0.0879729
0.00870838
0.00208672
0.0187694
0.0383217
0.057912
0.0756594
0.0912079
0.106396
0.123127
0.142559
0.162566
0.183168
0.204546
0.227177
0.243924
0.246433
0.232466
0.208543
0.176299
0.136786
0.0956829
0.0603743
0.0370453
0.0273604
0.0240905
0.0302995
0.0485727
0.082714
0.138706
0.219223
0.525255
0.511713
9.22311
0.327436
0.257129
1.00465
14.1611
95.4699
76.3158
17.4874
2.60569
0.668434
0.258322
0.0917436
0.0334054
0.00896325
0.00102192
0.00037297
0.00272319
0.0060436
0.00941674
0.0123949
0.0146094
0.0158918
0.0160748
0.0143922
0.0111181
0.00759524
0.00486614
0.00308673
0.00201922
0.00148832
0.0021041
0.00622761
0.0187527
0.0443767
0.0892837
0.161446
0.273174
0.439181
0.642202
1.27274
1.80216
3.36065
0.169149
0.122853
0.0844971
0.184746
14.1537
88.0647
93.097
33.3827
5.7024
1.73546
0.660346
0.31938
0.167814
0.0895599
0.0521788
0.0311898
0.0207589
0.0150959
0.0123924
0.0116159
0.0120279
0.0135425
0.0164698
0.0206639
0.0250657
0.0285391
0.0301905
0.0295031
0.0269757
0.0249427
0.0279351
0.042705
0.0780358
0.146966
0.265959
0.459679
0.758527
1.13247
2.02918
3.25402
2.06275
0.0936612
0.0760737
0.085591
0.0227714
0.0340921
9.08503
66.1846
98.2792
51.8929
12.4036
3.39442
1.30315
0.659948
0.359444
0.226614
0.149871
0.110202
0.0871484
0.0747749
0.0691364
0.0672179
0.0675949
0.0701932
0.0745989
0.0787368
0.0808403
0.0796375
0.0744121
0.0658603
0.0569815
0.053869
0.0665807
0.109876
0.204173
0.374869
0.658101
1.09972
1.67505
2.71162
4.58689
2.34704
0.0487571
0.04109
0.0386335
0.0474703
0.00472815
0.00171957
4.1726
40.6647
90.9284
68.5578
25.3679
6.36092
2.43652
1.12576
0.647217
0.4042
0.285479
0.219336
0.182737
0.164074
0.154849
0.150818
0.150369
0.152789
0.155056
0.154578
0.149205
0.137373
0.119344
0.0986114
0.0832739
0.0876441
0.133018
0.248216
0.468766
0.841743
1.42598
2.21284
3.32724
5.57652
3.27305
0.0254028
0.0231952
0.0204373
0.0229424
0.0249335
0.000907723
5.26602e-07
1.18447
20.0032
68.1441
77.6504
42.733
13.6222
4.25349
1.91529
1.0416
0.655993
0.459889
0.355622
0.302481
0.275139
0.26246
0.257795
0.258549
0.259797
0.257351
0.247552
0.227405
0.196174
0.157558
0.121596
0.106958
0.141874
0.264222
0.520358
0.966712
1.66976
2.63648
3.81246
6.13825
4.36045
0.0135222
0.0129195
0.012534
0.0115463
0.013385
0.0150158
3.08991e-05
3.99078e-10
0.165248
7.33583
39.2393
72.2046
58.1027
26.8449
8.57974
3.26206
1.6525
1.00518
0.690166
0.531583
0.450528
0.414566
0.400086
0.398369
0.400208
0.398126
0.385601
0.357009
0.309502
0.246379
0.178967
0.12972
0.13372
0.237884
0.499037
0.98092
1.75079
2.82266
4.05169
6.15556
5.19169
0.00737306
0.00716254
0.00718617
0.00706893
0.00651377
0.00820117
0.00775073
0.000139641
7.61871e-05
0.00016673
1.68063
16.4194
49.7707
63.478
42.5004
18.1902
6.28682
2.73784
1.53113
1.01459
0.764402
0.652144
0.603196
0.588292
0.587587
0.586303
0.573014
0.537858
0.474215
0.382384
0.273043
0.170898
0.116941
0.166311
0.384956
0.841772
1.59928
2.66869
3.8912
5.6057
5.42327
0.00406506
0.00399079
0.00404739
0.00413349
0.00406619
0.0038114
0.00475156
0.00397099
0.000418206
3.32114e-06
0.00184802
0.214491
4.67243
24.1963
51.0939
52.5448
32.1403
13.7058
5.19238
2.48038
1.52083
1.12763
0.953435
0.880142
0.854269
0.84546
0.831051
0.791079
0.712181
0.590313
0.433009
0.263474
0.124916
0.0782836
0.19637
0.55165
1.19972
2.14545
3.25281
4.55618
4.87393
0.00226059
0.00223418
0.00227811
0.00234914
0.00241492
0.00237184
0.00229959
0.00259962
0.00264646
0.000588933
1.5005e-06
9.98038e-05
4.65543e-05
0.695451
7.57414
27.5871
46.9438
43.3571
25.8984
11.5086
4.75648
2.52662
1.76963
1.45695
1.31363
1.24807
1.20775
1.1544
1.06229
0.915738
0.712571
0.470595
0.23187
0.0585411
0.025377
0.205649
0.649842
1.35983
2.22709
3.13953
3.64328
0.00126224
0.00125384
0.00127741
0.00132583
0.00137788
0.00141977
0.00141092
0.00137805
0.0014675
0.00157946
0.000723636
8.55765e-07
1.62308e-07
0.00104781
0.032604
1.30578
9.17629
26.9723
41.0077
36.663
22.4465
11.1001
5.46223
3.22872
2.38183
2.04783
1.88504
1.76153
1.62402
1.44107
1.19672
0.895186
0.567188
0.267052
0.0652166
0.034396
0.222162
0.62938
1.17178
1.71154
2.12162
0.000705593
0.00070386
0.000715682
0.000743373
0.000778897
0.000813368
0.000841144
0.000847978
0.000834371
0.000852817
0.000925944
0.000713862
4.02888e-05
2.20596e-07
8.76647e-06
0.00264138
0.0770535
1.60354
8.96086
23.7143
34.9524
32.4416
22.6686
13.8353
8.13146
5.10438
3.66794
3.00831
2.66945
2.40648
2.10921
1.74971
1.34752
0.949076
0.613641
0.399615
0.349439
0.465905
0.687786
0.892256
1.02749
0.000393776
0.000394401
0.00040006
0.000414971
0.000436439
0.000459946
0.000482375
0.000501654
0.000512282
0.000509974
0.000508337
0.000558446
0.000532005
0.000182553
3.89936e-08
3.78384e-09
6.88503e-05
0.00415047
0.0954232
1.45345
7.36759
18.6172
28.3383
30.1874
25.5716
19.2013
13.6149
9.47257
6.7347
5.05244
4.03652
3.38161
2.89088
2.46909
2.10253
1.80984
1.61719
1.52352
1.50465
1.47419
1.26279
0.000218791
0.000219981
0.000222647
0.000230512
0.000242761
0.000257235
0.000272419
0.000287172
0.000300507
0.000310478
0.000312847
0.000312859
0.000332091
0.000341339
0.000268503
2.03563e-05
1.50245e-07
2.00316e-11
0.000230838
0.00362279
0.0696752
0.909208
4.18377
10.9012
19.1051
24.9726
26.4527
24.4802
20.9948
17.1901
13.5895
10.5007
8.10139
6.40703
5.31993
4.70226
4.42692
4.33943
4.31383
4.28295
3.82067
0.000120754
0.0001218
0.000123055
0.000127159
0.000133946
0.000142333
0.000151615
0.000161377
0.000171088
0.000180149
0.000187841
0.000192016
0.000194537
0.000197915
0.000216763
0.000194175
0.0001191
4.89283e-07
1.51578e-08
7.79735e-13
0.000295499
0.00179851
0.0145597
0.230847
1.24587
3.90072
8.48072
14.1447
19.3029
22.7058
24.0387
23.6709
22.1576
19.979
17.5604
15.247
13.2868
11.7639
10.7152
10.2178
9.4584
6.64351e-05
6.71688e-05
6.77855e-05
6.99382e-05
7.36422e-05
7.83329e-05
8.37009e-05
8.95773e-05
9.57685e-05
0.000101984
0.000107941
0.000113306
0.000117582
0.000120014
0.000123201
0.000128646
0.000137682
0.000109573
4.0371e-05
2.22997e-08
3.6758e-09
2.58268e-13
2.46311e-05
0.00110763
0.000536941
0.0144909
0.125689
0.586894
1.76599
3.97674
7.2477
11.2382
15.3819
19.1217
22.0707
24.0273
25.0418
25.2456
24.938
24.6135
23.3753
3.72625e-05
3.77538e-05
3.81019e-05
3.93036e-05
4.13939e-05
4.4075e-05
4.71951e-05
5.06925e-05
5.44737e-05
5.84229e-05
6.2398e-05
6.62669e-05
6.99057e-05
7.31311e-05
7.55408e-05
7.76254e-05
8.01864e-05
8.64193e-05
8.78121e-05
6.62995e-05
1.8643e-05
7.9047e-09
2.41097e-09
3.88368e-12
1.55824e-07
5.38354e-05
0.000686749
0.000845677
0.000441316
0.0118695
0.0846842
0.332056
0.92311
2.04417
3.83547
6.31987
9.40549
12.9176
16.5927
20.3692
23.2705
2.16929e-05
2.20257e-05
2.22433e-05
2.29551e-05
2.41887e-05
2.57799e-05
2.76556e-05
2.97956e-05
3.21609e-05
3.4689e-05
3.73098e-05
3.99519e-05
4.2542e-05
4.50289e-05
4.73109e-05
4.93326e-05
5.08363e-05
5.26397e-05
5.52088e-05
5.88854e-05
5.78807e-05
4.10708e-05
1.80229e-05
1.25275e-07
4.82603e-09
1.86816e-10
4.31105e-13
0
4.58611e-08
3.3716e-05
0.000528375
0.00051062
0.00033312
0.000400392
0.0103613
0.0573018
0.196095
0.50808
1.08816
2.04615
3.40613
1.30991e-05
1.33192e-05
1.34597e-05
1.38965e-05
1.46471e-05
1.56177e-05
1.67707e-05
1.80989e-05
1.95875e-05
2.12046e-05
2.29182e-05
2.46953e-05
2.64956e-05
2.82771e-05
3.00004e-05
3.16377e-05
3.31324e-05
3.44329e-05
3.55797e-05
3.70634e-05
3.91585e-05
4.09241e-05
4.07018e-05
3.21045e-05
1.76564e-05
6.26344e-06
1.84263e-08
1.71066e-09
1.24122e-10
2.82146e-11
2.62375e-15
0
0
3.24116e-08
4.81129e-05
0.000425929
0.000451618
0.000100404
0.00023557
0.000481367
0.00733186
8.12733e-06
8.2713e-06
8.3642e-06
8.63962e-06
9.10752e-06
9.71343e-06
1.04369e-05
1.12756e-05
1.22218e-05
1.32603e-05
1.43744e-05
1.55486e-05
1.67636e-05
1.79968e-05
1.9224e-05
2.04225e-05
2.15756e-05
2.26612e-05
2.36488e-05
2.45409e-05
2.53967e-05
2.65174e-05
2.77887e-05
2.95483e-05
2.9485e-05
2.77945e-05
2.17917e-05
1.32545e-05
5.78895e-06
1.54156e-06
1.75608e-10
3.25654e-10
7.06597e-11
2.38872e-11
4.83499e-12
6.99848e-16
0
0
0
4.60881e-08
2.97898e-05
5.15317e-06
5.24746e-06
5.31081e-06
5.48841e-06
5.78616e-06
6.17163e-06
6.63366e-06
7.17116e-06
7.78015e-06
8.45262e-06
9.17904e-06
9.95141e-06
1.07603e-05
1.15929e-05
1.24364e-05
1.32771e-05
1.4102e-05
1.49e-05
1.56606e-05
1.63793e-05
1.70158e-05
1.75967e-05
1.81556e-05
1.88723e-05
1.97512e-05
2.05995e-05
2.16012e-05
2.16893e-05
2.05715e-05
1.87767e-05
1.46958e-05
9.60714e-06
5.22756e-06
1.99988e-06
4.69174e-07
8.09009e-11
1.42251e-10
3.65071e-11
1.83769e-11
7.39494e-12
1.8808e-12
3.32436e-06
3.38627e-06
3.43033e-06
3.54685e-06
3.73934e-06
3.98832e-06
4.28751e-06
4.63618e-06
5.03211e-06
5.47057e-06
5.94614e-06
6.45462e-06
6.99066e-06
7.54688e-06
8.11575e-06
8.6892e-06
9.25923e-06
9.81776e-06
1.03573e-05
1.0876e-05
1.13522e-05
1.1778e-05
1.21647e-05
1.2504e-05
1.28423e-05
1.31897e-05
1.36177e-05
1.41254e-05
1.46384e-05
1.50634e-05
1.55774e-05
1.55808e-05
1.50303e-05
1.39303e-05
1.25354e-05
1.01658e-05
7.41383e-06
4.81021e-06
2.74944e-06
1.25159e-06
3.68621e-07
2.175e-06
2.21591e-06
2.24708e-06
2.32469e-06
2.45078e-06
2.6137e-06
2.80972e-06
3.03834e-06
3.29805e-06
3.58601e-06
3.89901e-06
4.23444e-06
4.58894e-06
4.95834e-06
5.33789e-06
5.72262e-06
6.10742e-06
6.48699e-06
6.85601e-06
7.21237e-06
7.54124e-06
7.8376e-06
8.10963e-06
8.34647e-06
8.54966e-06
8.72522e-06
8.87692e-06
9.01869e-06
9.16548e-06
9.31524e-06
9.50148e-06
9.71036e-06
9.9095e-06
1.00711e-05
1.01712e-05
1.03004e-05
1.02433e-05
9.97168e-06
9.50426e-06
8.84055e-06
8.06088e-06
1.43957e-06
1.46675e-06
1.48907e-06
1.54139e-06
1.62491e-06
1.73267e-06
1.86236e-06
2.01357e-06
2.1852e-06
2.37547e-06
2.58237e-06
2.80407e-06
3.03854e-06
3.28316e-06
3.53486e-06
3.79045e-06
4.04651e-06
4.29946e-06
4.5456e-06
4.78323e-06
5.00181e-06
5.19782e-06
5.37657e-06
5.53149e-06
5.66242e-06
5.77114e-06
5.85806e-06
5.92324e-06
5.96855e-06
5.99607e-06
6.00808e-06
6.01035e-06
6.00702e-06
6.00094e-06
5.98989e-06
5.98214e-06
5.97453e-06
5.96135e-06
5.93844e-06
5.89755e-06
5.81895e-06
9.61928e-07
9.80137e-07
9.96302e-07
1.03195e-06
1.08784e-06
1.15981e-06
1.24637e-06
1.34716e-06
1.46136e-06
1.58782e-06
1.72516e-06
1.87212e-06
2.02741e-06
2.18918e-06
2.35545e-06
2.52412e-06
2.69287e-06
2.85924e-06
3.02064e-06
3.17574e-06
3.31729e-06
3.44303e-06
3.55659e-06
3.65326e-06
3.73288e-06
3.79655e-06
3.84495e-06
3.87833e-06
3.89712e-06
3.90192e-06
3.89323e-06
3.87186e-06
3.83875e-06
3.79548e-06
3.74341e-06
3.68291e-06
3.61629e-06
3.54536e-06
3.47193e-06
3.39862e-06
3.30037e-06
6.47881e-07
6.60141e-07
6.71972e-07
6.96526e-07
7.34289e-07
7.82764e-07
8.41007e-07
9.08658e-07
9.85127e-07
1.06959e-06
1.16114e-06
1.25886e-06
1.36189e-06
1.46884e-06
1.57847e-06
1.68934e-06
1.79988e-06
1.90835e-06
2.013e-06
2.11281e-06
2.20286e-06
2.28182e-06
2.35231e-06
2.41113e-06
2.45803e-06
2.49375e-06
2.51881e-06
2.53357e-06
2.53848e-06
2.53415e-06
2.5212e-06
2.50029e-06
2.47195e-06
2.43701e-06
2.3962e-06
2.34981e-06
2.29874e-06
2.24358e-06
2.18576e-06
2.12623e-06
2.05293e-06
4.39203e-07
4.47562e-07
4.56302e-07
4.73378e-07
4.99132e-07
5.32062e-07
5.71543e-07
6.17254e-07
6.68753e-07
7.25452e-07
7.86714e-07
8.51905e-07
9.20358e-07
9.91125e-07
1.06334e-06
1.13603e-06
1.20813e-06
1.27843e-06
1.34572e-06
1.40928e-06
1.4658e-06
1.51457e-06
1.55752e-06
1.59251e-06
1.61935e-06
1.63863e-06
1.65071e-06
1.65591e-06
1.65458e-06
1.64723e-06
1.63434e-06
1.6165e-06
1.59414e-06
1.5679e-06
1.53834e-06
1.50574e-06
1.47068e-06
1.43343e-06
1.39529e-06
1.35574e-06
1.30939e-06
2.99339e-07
3.0509e-07
3.11615e-07
3.23627e-07
3.41354e-07
3.63916e-07
3.90877e-07
4.21967e-07
4.56849e-07
4.95103e-07
5.36272e-07
5.799e-07
6.25477e-07
6.72382e-07
7.19954e-07
7.67565e-07
8.14474e-07
8.59866e-07
9.02889e-07
9.4306e-07
9.78179e-07
1.00792e-06
1.0337e-06
1.05413e-06
1.06907e-06
1.07897e-06
1.08415e-06
1.08485e-06
1.08137e-06
1.07406e-06
1.06329e-06
1.04948e-06
1.03293e-06
1.0141e-06
9.93377e-07
9.70959e-07
9.4721e-07
9.22233e-07
8.97224e-07
8.70953e-07
8.4192e-07
2.04894e-07
2.08921e-07
2.13834e-07
2.22376e-07
2.34704e-07
2.50296e-07
2.68842e-07
2.90129e-07
3.13894e-07
3.39841e-07
3.67628e-07
3.96936e-07
4.2738e-07
4.58545e-07
4.89926e-07
5.21113e-07
5.51605e-07
5.80856e-07
6.0829e-07
6.33568e-07
6.55257e-07
6.7324e-07
6.88558e-07
7.00298e-07
7.08414e-07
7.1322e-07
7.14957e-07
7.13825e-07
7.10047e-07
7.0388e-07
6.95589e-07
6.8546e-07
6.73707e-07
6.60622e-07
6.46485e-07
6.31436e-07
6.15686e-07
5.99236e-07
5.83149e-07
5.65795e-07
5.48345e-07
1.4073e-07
1.43595e-07
1.47341e-07
1.53486e-07
1.62143e-07
1.73012e-07
1.8587e-07
2.00542e-07
2.16833e-07
2.34525e-07
2.53373e-07
2.73138e-07
2.9355e-07
3.14309e-07
3.35058e-07
3.55508e-07
3.7534e-07
3.94179e-07
4.11651e-07
4.27514e-07
4.40861e-07
4.51665e-07
4.60699e-07
4.67354e-07
4.71627e-07
4.7375e-07
4.73914e-07
4.72254e-07
4.68936e-07
4.64144e-07
4.58062e-07
4.5089e-07
4.42769e-07
4.33893e-07
4.24449e-07
4.14532e-07
4.04266e-07
3.9359e-07
3.83437e-07
3.71974e-07
3.62129e-07
9.69143e-08
9.9001e-08
1.01879e-07
1.0635e-07
1.12496e-07
1.2014e-07
1.29127e-07
1.39313e-07
1.50557e-07
1.62694e-07
1.75549e-07
1.88942e-07
2.02687e-07
2.16565e-07
2.30331e-07
2.43775e-07
2.56701e-07
2.68849e-07
2.79983e-07
2.89935e-07
2.98136e-07
3.04605e-07
3.09907e-07
3.13641e-07
3.15819e-07
3.16611e-07
3.16162e-07
3.14573e-07
3.11958e-07
3.08444e-07
3.04156e-07
2.99229e-07
2.93752e-07
2.87851e-07
2.81651e-07
2.75213e-07
2.68609e-07
2.61747e-07
2.55441e-07
2.4782e-07
2.42776e-07
6.68673e-08
6.8421e-08
7.06554e-08
7.39445e-08
7.83542e-08
8.37842e-08
9.01201e-08
9.72485e-08
1.05066e-07
1.13448e-07
1.22272e-07
1.31402e-07
1.40706e-07
1.50027e-07
1.59202e-07
1.68076e-07
1.76527e-07
1.84386e-07
1.91497e-07
1.9775e-07
2.02788e-07
2.06656e-07
2.09753e-07
2.11823e-07
2.1288e-07
2.13052e-07
2.1244e-07
2.1112e-07
2.09174e-07
2.06686e-07
2.0374e-07
2.00424e-07
1.96794e-07
1.92931e-07
1.88918e-07
1.84792e-07
1.80598e-07
1.76231e-07
1.72391e-07
1.6728e-07
1.65206e-07
4.61946e-08
4.73805e-08
4.91248e-08
5.15737e-08
5.47718e-08
5.8668e-08
6.31744e-08
6.82072e-08
7.36846e-08
7.9521e-08
8.56198e-08
9.18878e-08
9.82242e-08
1.04525e-07
1.10676e-07
1.1657e-07
1.22124e-07
1.27237e-07
1.31805e-07
1.35761e-07
1.38878e-07
1.41211e-07
1.43039e-07
1.44197e-07
1.44694e-07
1.44631e-07
1.44075e-07
1.43082e-07
1.41704e-07
1.40002e-07
1.38028e-07
1.35842e-07
1.33479e-07
1.30988e-07
1.28427e-07
1.25816e-07
1.23186e-07
1.2043e-07
1.18144e-07
1.14678e-07
1.14344e-07
3.19341e-08
3.28578e-08
3.42307e-08
3.60714e-08
3.84171e-08
4.12409e-08
4.44778e-08
4.80636e-08
5.19369e-08
5.60351e-08
6.02867e-08
6.46239e-08
6.89739e-08
7.32648e-08
7.7419e-08
8.13611e-08
8.50357e-08
8.83826e-08
9.1335e-08
9.385e-08
9.57889e-08
9.7199e-08
9.82806e-08
9.8922e-08
9.91359e-08
9.89926e-08
9.85435e-08
9.78254e-08
9.68746e-08
9.57316e-08
9.4433e-08
9.30158e-08
9.15015e-08
8.99217e-08
8.83143e-08
8.66904e-08
8.50702e-08
8.33565e-08
8.20473e-08
7.96674e-08
8.03388e-08
2.2079e-08
2.28119e-08
2.38961e-08
2.52941e-08
2.70329e-08
2.91012e-08
3.14505e-08
3.40311e-08
3.67976e-08
3.97029e-08
4.26954e-08
4.57244e-08
4.87391e-08
5.16886e-08
5.45218e-08
5.71865e-08
5.96468e-08
6.18662e-08
6.38051e-08
6.54353e-08
6.66752e-08
6.75612e-08
6.82353e-08
6.86203e-08
6.87287e-08
6.86099e-08
6.82995e-08
6.78223e-08
6.72031e-08
6.64683e-08
6.56419e-08
6.47483e-08
6.38005e-08
6.2818e-08
6.18271e-08
6.0834e-08
5.98524e-08
5.87973e-08
5.80792e-08
5.64268e-08
5.75607e-08
1.52599e-08
1.58494e-08
1.67092e-08
1.77798e-08
1.90828e-08
2.06143e-08
2.23373e-08
2.42147e-08
2.6211e-08
2.82925e-08
3.04202e-08
3.25579e-08
3.46681e-08
3.67159e-08
3.86662e-08
4.04846e-08
4.21455e-08
4.36277e-08
4.49077e-08
4.59674e-08
4.6759e-08
4.73121e-08
4.77285e-08
4.79544e-08
4.80001e-08
4.79028e-08
4.76881e-08
4.73722e-08
4.6972e-08
4.65052e-08
4.59882e-08
4.54363e-08
4.48573e-08
4.42635e-08
4.3672e-08
4.30855e-08
4.25147e-08
4.18866e-08
4.15367e-08
4.0376e-08
4.17417e-08
1.05402e-08
1.10187e-08
1.17017e-08
1.25287e-08
1.35157e-08
1.46609e-08
1.59383e-08
1.7318e-08
1.87744e-08
2.02811e-08
2.18109e-08
2.33363e-08
2.48325e-08
2.62738e-08
2.76393e-08
2.89051e-08
3.00552e-08
3.1077e-08
3.19583e-08
3.26868e-08
3.32368e-08
3.36258e-08
3.39268e-08
3.41009e-08
3.41565e-08
3.41187e-08
3.40057e-08
3.3828e-08
3.35971e-08
3.33246e-08
3.30215e-08
3.26984e-08
3.23598e-08
3.20136e-08
3.16717e-08
3.1336e-08
3.10133e-08
3.0645e-08
3.04971e-08
2.96787e-08
3.10082e-08
7.27416e-09
7.66437e-09
8.20791e-09
8.85159e-09
9.60639e-09
1.04716e-08
1.14274e-08
1.2451e-08
1.35238e-08
1.46259e-08
1.57375e-08
1.68378e-08
1.7909e-08
1.89318e-08
1.98925e-08
2.07753e-08
2.15679e-08
2.22632e-08
2.28555e-08
2.33371e-08
2.3695e-08
2.39451e-08
2.4139e-08
2.42497e-08
2.42842e-08
2.42613e-08
2.41938e-08
2.40891e-08
2.39545e-08
2.37981e-08
2.3627e-08
2.34476e-08
2.32627e-08
2.30768e-08
2.28977e-08
2.27253e-08
2.2566e-08
2.23712e-08
2.23544e-08
2.17679e-08
2.30748e-08
5.01523e-09
5.33403e-09
5.76671e-09
6.27088e-09
6.85282e-09
7.51175e-09
8.23256e-09
8.99837e-09
9.79509e-09
1.0609e-08
1.14256e-08
1.22306e-08
1.30112e-08
1.37557e-08
1.44564e-08
1.51043e-08
1.56903e-08
1.62101e-08
1.66597e-08
1.70347e-08
1.7327e-08
1.75432e-08
1.77214e-08
1.7841e-08
1.79071e-08
1.79329e-08
1.79271e-08
1.78947e-08
1.78408e-08
1.77709e-08
1.76902e-08
1.76034e-08
1.75123e-08
1.74202e-08
1.73329e-08
1.72508e-08
1.71772e-08
1.7077e-08
1.71089e-08
1.67085e-08
1.77817e-08
3.45373e-09
3.71532e-09
4.06096e-09
4.45757e-09
4.90776e-09
5.41101e-09
5.95699e-09
6.53327e-09
7.12928e-09
7.73468e-09
8.33911e-09
8.93201e-09
9.50278e-09
1.00395e-08
1.0534e-08
1.09813e-08
1.13771e-08
1.17215e-08
1.20148e-08
1.22546e-08
1.24387e-08
1.25755e-08
1.26901e-08
1.27685e-08
1.28145e-08
1.28379e-08
1.28447e-08
1.2838e-08
1.28211e-08
1.27975e-08
1.277e-08
1.27415e-08
1.27127e-08
1.26854e-08
1.26627e-08
1.26441e-08
1.26332e-08
1.26009e-08
1.26749e-08
1.23753e-08
1.33978e-08
2.37882e-09
2.59456e-09
2.87234e-09
3.18611e-09
3.53454e-09
3.91752e-09
4.32904e-09
4.76219e-09
5.21e-09
5.66465e-09
6.11759e-09
6.56212e-09
6.99458e-09
7.41371e-09
7.81748e-09
8.19809e-09
8.54571e-09
8.85594e-09
9.12714e-09
9.35897e-09
9.54934e-09
9.69918e-09
9.8293e-09
9.92893e-09
1.00011e-08
1.00537e-08
1.0091e-08
1.01156e-08
1.013e-08
1.01374e-08
1.01403e-08
1.01413e-08
1.01409e-08
1.0141e-08
1.01442e-08
1.01513e-08
1.01624e-08
1.0161e-08
1.02277e-08
1.00612e-08
1.07575e-08
1.6468e-09
1.82293e-09
2.04457e-09
2.29211e-09
2.56182e-09
2.85281e-09
3.16122e-09
3.48337e-09
3.81654e-09
4.15739e-09
4.49952e-09
4.8328e-09
5.14471e-09
5.42346e-09
5.66614e-09
5.88159e-09
6.07767e-09
6.25551e-09
6.41419e-09
6.55046e-09
6.6638e-09
6.75915e-09
6.84662e-09
6.91843e-09
6.97585e-09
7.02378e-09
7.06497e-09
7.10077e-09
7.13228e-09
7.161e-09
7.18814e-09
7.21469e-09
7.2409e-09
7.26714e-09
7.29455e-09
7.32237e-09
7.35298e-09
7.36946e-09
7.44498e-09
7.28398e-09
8.01485e-09
1.14938e-09
1.29004e-09
1.46114e-09
1.64937e-09
1.85266e-09
2.07201e-09
2.30503e-09
2.5473e-09
2.79475e-09
3.04529e-09
3.30016e-09
3.56386e-09
3.84168e-09
4.13586e-09
4.43835e-09
4.72515e-09
4.97759e-09
5.19619e-09
5.38554e-09
5.55004e-09
5.68938e-09
5.80145e-09
5.90042e-09
5.981e-09
6.04574e-09
6.09904e-09
6.14347e-09
6.18065e-09
6.21232e-09
6.24035e-09
6.26633e-09
6.2918e-09
6.31747e-09
6.34425e-09
6.37368e-09
6.40692e-09
6.4419e-09
6.47601e-09
6.53232e-09
6.51623e-09
6.83166e-09
8.00876e-10
9.15504e-10
1.04671e-09
1.18367e-09
1.32665e-09
1.48067e-09
1.64887e-09
1.83148e-09
2.02518e-09
2.22166e-09
2.40808e-09
2.57029e-09
2.69882e-09
2.79233e-09
2.86487e-09
2.94795e-09
3.05473e-09
3.17135e-09
3.2878e-09
3.39739e-09
3.49945e-09
3.59624e-09
3.6889e-09
3.77321e-09
3.84923e-09
3.91893e-09
3.98347e-09
4.0432e-09
4.09847e-09
4.1498e-09
4.19767e-09
4.24227e-09
4.28371e-09
4.3219e-09
4.35711e-09
4.38853e-09
4.41824e-09
4.43553e-09
4.48469e-09
4.37212e-09
4.88729e-09
5.55466e-10
6.599e-10
7.73735e-10
8.83373e-10
9.85829e-10
1.08543e-09
1.18741e-09
1.29757e-09
1.42311e-09
1.57226e-09
1.75355e-09
1.97359e-09
2.23366e-09
2.52811e-09
2.83518e-09
3.10059e-09
3.30057e-09
3.46391e-09
3.60305e-09
3.72326e-09
3.82239e-09
3.9011e-09
3.96821e-09
4.02192e-09
4.06474e-09
4.09961e-09
4.12853e-09
4.15307e-09
4.17477e-09
4.1952e-09
4.21572e-09
4.23771e-09
4.26182e-09
4.28893e-09
4.32005e-09
4.35705e-09
4.39594e-09
4.44464e-09
4.48379e-09
4.58134e-09
4.5501e-09
4.06696e-10
4.95426e-10
5.91934e-10
6.89206e-10
7.82941e-10
8.70889e-10
9.49562e-10
1.0154e-09
1.06679e-09
1.10459e-09
1.13174e-09
1.15221e-09
1.17049e-09
1.18757e-09
1.20794e-09
1.26043e-09
1.34904e-09
1.45083e-09
1.55809e-09
1.66514e-09
1.77034e-09
1.87311e-09
1.9736e-09
2.07029e-09
2.16204e-09
2.24881e-09
2.33048e-09
2.40666e-09
2.4769e-09
2.54082e-09
2.59791e-09
2.64767e-09
2.68974e-09
2.72343e-09
2.74837e-09
2.76347e-09
2.77068e-09
2.76117e-09
2.767e-09
2.64294e-09
2.98317e-09
4.86925e-10
6.2211e-10
7.0509e-10
7.26163e-10
7.09316e-10
6.93877e-10
7.15115e-10
7.94169e-10
9.35628e-10
1.13021e-09
1.35939e-09
1.60149e-09
1.83593e-09
2.05062e-09
2.23378e-09
2.34103e-09
2.37348e-09
2.37022e-09
2.3511e-09
2.32426e-09
2.2867e-09
2.25563e-09
2.21976e-09
2.18302e-09
2.14746e-09
2.1136e-09
2.08159e-09
2.05164e-09
2.02384e-09
1.99805e-09
1.97392e-09
1.95103e-09
1.92846e-09
1.90539e-09
1.88133e-09
1.85661e-09
1.82627e-09
1.7974e-09
1.74463e-09
1.75866e-09
1.55119e-09
519.29
368.3
229.842
137.995
73.3729
31.0121
8.32016
0.68718
0.0490278
0.0131655
6.73007e-07
2.96859e-07
0.000158532
0.000148475
0.000100958
7.71626e-05
5.59295e-05
3.87315e-05
2.5107e-05
1.6891e-05
1.08423e-05
7.11256e-06
4.54367e-06
2.8916e-06
1.82574e-06
1.16456e-06
7.27402e-07
4.67842e-07
3.0171e-07
1.94938e-07
1.29556e-07
8.45925e-08
5.77198e-08
3.88587e-08
2.54987e-08
1.72965e-08
1.09971e-08
6.92478e-09
3.80403e-09
2.16511e-09
8.14659e-10
1.65592e-10
8.80019e-11
3.58025e-10
9.75151e-10
1.90717e-09
3.04534e-09
4.25775e-09
5.50876e-09
6.73102e-09
7.76002e-09
8.58246e-09
9.10667e-09
9.32102e-09
9.20051e-09
8.82911e-09
8.16028e-09
7.36778e-09
6.40965e-09
5.47379e-09
4.47894e-09
3.62394e-09
2.8156e-09
2.12263e-09
1.56097e-09
1.08715e-09
7.43788e-10
4.75661e-10
2.88689e-10
1.59962e-10
8.1045e-11
4.1098e-11
2.24876e-11
9.86719e-11
278.628
425.41
317.053
207.658
125.139
64.8901
25.4926
5.75686
0.297909
0.055406
1.04214e-05
2.70011e-09
2.82561e-06
0.000135289
0.000106113
6.52742e-05
4.77254e-05
3.66972e-05
2.55536e-05
1.73919e-05
1.11174e-05
7.23682e-06
4.67696e-06
3.02165e-06
1.92768e-06
1.2409e-06
7.81446e-07
5.02186e-07
3.25359e-07
2.09727e-07
1.39087e-07
9.03521e-08
6.09307e-08
4.08622e-08
2.65144e-08
1.77798e-08
1.1178e-08
6.9515e-09
3.73863e-09
2.08386e-09
7.78432e-10
1.40011e-10
8.10475e-11
3.5921e-10
9.57913e-10
1.83473e-09
2.91289e-09
4.03126e-09
5.14124e-09
6.23816e-09
7.12915e-09
7.82224e-09
8.23802e-09
8.37947e-09
8.19805e-09
7.83421e-09
7.19612e-09
6.46493e-09
5.59185e-09
4.76017e-09
3.87123e-09
3.1207e-09
2.42615e-09
1.81527e-09
1.33437e-09
9.25196e-10
6.30941e-10
4.04569e-10
2.45035e-10
1.36206e-10
6.97302e-11
3.82325e-11
2.13044e-11
9.81686e-11
89.7324
286.672
314.931
250.082
173.905
106.578
53.7133
19.3663
3.60057
0.149143
0.0407762
0.00725831
8.49288e-09
2.60976e-06
0.000118478
9.35334e-05
5.00119e-05
3.06113e-05
2.18064e-05
1.61877e-05
1.14093e-05
7.52404e-06
4.83575e-06
3.11733e-06
2.00896e-06
1.3053e-06
8.36105e-07
5.35885e-07
3.48336e-07
2.26117e-07
1.48428e-07
9.75022e-08
6.41241e-08
4.27731e-08
2.79724e-08
1.83004e-08
1.15249e-08
7.05855e-09
3.86187e-09
1.93956e-09
7.60663e-10
1.33514e-10
3.63797e-11
3.10335e-10
8.73846e-10
1.66616e-09
2.6501e-09
3.672e-09
4.63147e-09
5.58559e-09
6.33899e-09
6.90906e-09
7.22827e-09
7.31258e-09
7.12339e-09
6.74394e-09
6.18329e-09
5.5197e-09
4.76663e-09
4.03562e-09
3.28399e-09
2.62302e-09
2.04885e-09
1.52968e-09
1.1222e-09
7.81527e-10
5.30309e-10
3.44286e-10
2.10367e-10
1.19528e-10
6.32384e-11
3.93038e-11
2.2862e-11
1.01076e-10
33.0138
161.892
250.572
248.54
202.364
144.32
88.2227
42.8264
14.2381
2.27407
0.118755
0.0259987
0.00410209
6.57595e-09
5.90978e-07
7.48671e-05
9.15614e-05
5.08821e-05
2.59267e-05
1.46841e-05
1.00288e-05
7.22183e-06
5.07265e-06
3.35252e-06
2.14313e-06
1.37998e-06
8.92846e-07
5.74877e-07
3.74219e-07
2.43129e-07
1.58669e-07
1.04406e-07
6.79773e-08
4.50916e-08
2.9538e-08
1.90648e-08
1.20042e-08
7.30214e-09
4.0521e-09
1.95598e-09
7.96082e-10
1.51313e-10
1.07919e-11
2.38376e-10
7.5139e-10
1.44507e-09
2.31282e-09
3.23436e-09
4.06517e-09
4.87781e-09
5.51877e-09
5.98517e-09
6.23334e-09
6.27731e-09
6.0964e-09
5.73705e-09
5.25077e-09
4.66809e-09
4.02803e-09
3.39753e-09
2.7687e-09
2.20046e-09
1.72507e-09
1.28937e-09
9.46733e-10
6.63631e-10
4.51355e-10
2.97162e-10
1.84649e-10
1.08103e-10
6.0122e-11
4.14547e-11
2.58187e-11
1.03953e-10
16.0382
87.8844
173.184
211.308
202.126
166.735
120.138
72.7067
34.1474
10.7599
1.63053
0.116666
0.0166818
0.00388398
8.13378e-10
2.19165e-07
9.66543e-06
4.29127e-05
4.56859e-05
2.69144e-05
1.32789e-05
7.09817e-06
4.65994e-06
3.31452e-06
2.30226e-06
1.5184e-06
9.73483e-07
6.19754e-07
4.02179e-07
2.61224e-07
1.70223e-07
1.11358e-07
7.22752e-08
4.76984e-08
3.10885e-08
1.9965e-08
1.25462e-08
7.61907e-09
4.253e-09
2.08125e-09
8.76647e-10
1.90008e-10
4.71713e-13
1.6395e-10
6.05086e-10
1.2e-09
1.94506e-09
2.75263e-09
3.47105e-09
4.15279e-09
4.70062e-09
5.08239e-09
5.28158e-09
5.30339e-09
5.13241e-09
4.82779e-09
4.40931e-09
3.91655e-09
3.37739e-09
2.84715e-09
2.32211e-09
1.84666e-09
1.45306e-09
1.08935e-09
8.03729e-10
5.6796e-10
3.89694e-10
2.60687e-10
1.65612e-10
1.00381e-10
5.91789e-11
4.40055e-11
2.96683e-11
1.06446e-10
9.93703
48.6893
110.267
159.067
176.623
167.156
139.354
100.8
60.4291
27.9696
8.74082
1.43719
0.137438
0.0175334
0.0056075
3.15663e-07
1.26939e-08
1.15479e-07
2.44299e-06
1.65786e-05
2.09408e-05
1.39526e-05
6.72333e-06
3.4198e-06
2.17095e-06
1.5216e-06
1.05158e-06
6.86834e-07
4.39911e-07
2.80775e-07
1.81478e-07
1.18207e-07
7.65518e-08
5.02416e-08
3.2542e-08
2.07976e-08
1.307e-08
7.93412e-09
4.452e-09
2.23065e-09
9.81424e-10
2.47123e-10
1.27532e-11
1.15365e-10
4.76646e-10
9.80664e-10
1.61218e-09
2.29942e-09
2.90849e-09
3.47883e-09
3.93774e-09
4.24903e-09
4.40946e-09
4.4209e-09
4.26672e-09
4.01489e-09
3.66303e-09
3.25593e-09
2.80925e-09
2.37165e-09
1.93818e-09
1.54671e-09
1.22371e-09
9.21727e-10
6.85636e-10
4.89751e-10
3.4069e-10
2.32434e-10
1.5172e-10
9.57307e-11
6.00522e-11
4.75012e-11
3.45633e-11
1.095e-10
7.42782
28.1877
67.4599
109.43
137.827
147.637
140.152
117.859
85.4628
51.3336
24.0329
7.91082
1.59586
0.216409
0.0319276
0.00030872
0.0019825
0.000126651
2.81377e-09
3.54937e-08
1.81048e-07
5.30635e-06
8.90893e-06
7.09958e-06
3.47656e-06
1.66377e-06
1.00797e-06
6.87587e-07
4.7254e-07
3.09507e-07
1.96906e-07
1.25466e-07
8.03258e-08
5.24682e-08
3.39062e-08
2.15835e-08
1.35625e-08
8.23512e-09
4.66985e-09
2.3955e-09
1.10899e-09
3.31892e-10
5.70248e-11
1.04633e-10
3.90605e-10
8.11644e-10
1.3414e-09
1.91768e-09
2.42316e-09
2.89746e-09
3.27317e-09
3.52308e-09
3.64894e-09
3.65367e-09
3.52156e-09
3.30952e-09
3.01955e-09
2.68682e-09
2.3232e-09
1.96593e-09
1.61341e-09
1.29349e-09
1.03139e-09
7.82292e-10
5.88241e-10
4.26197e-10
3.01787e-10
2.10909e-10
1.4212e-10
9.37126e-11
6.26138e-11
5.21211e-11
4.06028e-11
1.13382e-10
6.41817
17.2401
40.7344
70.7207
98.0618
116.698
124.043
118.645
100.533
73.572
44.9658
21.9634
8.07132
2.13412
0.440307
0.0871786
0.0173769
0.00203573
0.00158059
0.000282349
1.80998e-10
7.27693e-09
1.81568e-12
1.31573e-06
3.54228e-06
3.5475e-06
1.79228e-06
8.19142e-07
4.60886e-07
3.03391e-07
2.06628e-07
1.36107e-07
8.61243e-08
5.48629e-08
3.49871e-08
2.22369e-08
1.402e-08
8.54383e-09
4.9112e-09
2.58959e-09
1.2657e-09
4.5199e-10
1.38579e-10
1.32249e-10
3.51332e-10
6.95292e-10
1.13194e-09
1.61223e-09
2.02765e-09
2.41513e-09
2.71835e-09
2.91487e-09
3.00941e-09
3.00729e-09
2.89548e-09
2.71608e-09
2.47902e-09
2.2083e-09
1.91605e-09
1.62636e-09
1.3429e-09
1.08292e-09
8.72064e-10
6.68008e-10
5.09059e-10
3.75387e-10
2.71505e-10
1.95103e-10
1.36181e-10
9.39129e-11
6.66708e-11
5.76698e-11
4.77482e-11
1.17824e-10
5.83879
11.1325
24.5048
43.7284
64.7781
83.7867
97.9352
104.458
100.772
86.4073
64.3996
40.7664
21.3761
9.0905
3.16859
0.968019
0.281572
0.0788453
0.0184135
0.00293172
0.00138802
0.0002745
1.59116e-15
1.43376e-09
8.94606e-09
1.36274e-07
1.16301e-06
1.58324e-06
8.53954e-07
3.94624e-07
2.0529e-07
1.28153e-07
8.65064e-08
5.78633e-08
3.69433e-08
2.30439e-08
1.43533e-08
8.77631e-09
5.14774e-09
2.80956e-09
1.44892e-09
6.04778e-10
2.56847e-10
1.99213e-10
3.58416e-10
6.31965e-10
9.83196e-10
1.37897e-09
1.71832e-09
2.02611e-09
2.26714e-09
2.41741e-09
2.48389e-09
2.47367e-09
2.37705e-09
2.22609e-09
2.03224e-09
1.8123e-09
1.57919e-09
1.34585e-09
1.11967e-09
9.09814e-10
7.41359e-10
5.75227e-10
4.4547e-10
3.35382e-10
2.48563e-10
1.84129e-10
1.33352e-10
9.60144e-11
7.20813e-11
6.40154e-11
5.59326e-11
1.22617e-10
5.0473
7.36609
14.5018
25.8651
40.0483
55.1891
69.6857
81.4125
87.5232
85.4891
74.5943
57.2379
38.1284
21.8803
10.8762
4.81779
1.98536
0.781599
0.28748