/*--------------------------------*- C++ -*----------------------------------*\
| =========                 |                                                 |
| \\      /  F ield         | OpenFOAM: The Open Source CFD Toolbox           |
|  \\    /   O peration     | Version:  2312                                  |
|   \\  /    A nd           | Website:  www.openfoam.com                      |
|    \\/     M anipulation  |                                                 |
\*---------------------------------------------------------------------------*/
FoamFile
{
    version     2.0;
    format      ascii;
    arch        "LSB;label=32;scalar=64";
    class       volScalarField;
    location    "550";
    object      turbulenceProperties:k;
}
// * * * * * * * * * * * * * * * * * * * * * * * * * * * * * * * * * * * * * //

dimensions      [0 2 -2 0 0 0 0];

internalField   nonuniform List<scalar> 
11040
(
0.40004
0.443696
0.0737163
0.0444922
0.269197
0.28251
0.268014
0.244964
0.220349
0.204969
0.190091
0.177153
0.166459
0.15793
0.15099
0.147006
0.145888
0.148059
0.153118
0.160906
0.171696
0.185209
0.2015
0.22092
0.243883
0.271341
0.301389
0.330502
0.35618
0.375352
0.384979
0.382574
0.369589
0.35278
0.33534
0.263913
0.141023
0.0880904
0.0391806
0.0934947
0.198308
0.033538
0.0689423
0.234043
0.415906
0.819475
0.284748
0.0886158
0.0316433
0.00928132
0.00436588
0.0124925
0.0171465
0.0202515
0.0223954
0.0238006
0.0250712
0.0265754
0.0285098
0.0305767
0.0327214
0.0349817
0.0374105
0.0393342
0.0400467
0.0394674
0.0385139
0.0369451
0.0340256
0.0297954
0.0247905
0.0203457
0.0183227
0.0180031
0.0211501
0.0280746
0.0382377
0.0515166
0.067952
0.110725
0.11318
0.568549
0.020732
0.0185374
0.0400652
0.171549
0.928697
1.27164
0.678491
0.258294
0.122316
0.0732899
0.0416779
0.0241983
0.0120468
0.00393937
0.00230486
0.00606082
0.00883498
0.0108415
0.0123152
0.0133266
0.0139639
0.0142314
0.0137626
0.0124644
0.0106882
0.00892124
0.00743598
0.00630823
0.0056867
0.00709727
0.0128043
0.0232683
0.0374255
0.0554318
0.0777496
0.105351
0.139157
0.176121
0.260741
0.323963
0.503852
0.0149201
0.012696
0.0106778
0.0158168
0.216589
1.06805
1.63057
1.12365
0.474829
0.255859
0.151001
0.101419
0.0707927
0.0501506
0.0371054
0.0279041
0.0222852
0.0186767
0.0167467
0.0161527
0.0164979
0.0177253
0.0199757
0.0230631
0.0263618
0.0293347
0.0315651
0.0327014
0.0327909
0.0330576
0.0366435
0.0473886
0.0668939
0.095719
0.134087
0.183395
0.24518
0.312893
0.439779
0.583494
0.515261
0.0110969
0.00999519
0.0106113
0.005467
0.00668861
0.191095
1.00802
1.83048
1.60649
0.823232
0.432449
0.262488
0.180284
0.129274
0.0997668
0.0789296
0.0663298
0.057985
0.0531449
0.0508954
0.0503104
0.0509856
0.05299
0.0562005
0.0598184
0.063122
0.0654696
0.0662552
0.0653011
0.0636204
0.0647276
0.075186
0.100742
0.143002
0.201487
0.277325
0.372498
0.479126
0.638665
0.8713
0.677897
0.0080052
0.00734997
0.00712379
0.0079059
0.00253574
0.00157645
0.127541
0.801216
1.84267
2.02723
1.34108
0.689971
0.426722
0.285548
0.210559
0.161809
0.133397
0.114964
0.103766
0.0978885
0.0952224
0.0947658
0.0962812
0.0996232
0.103763
0.107714
0.110444
0.110829
0.10811
0.102831
0.0987785
0.10576
0.135727
0.192799
0.275077
0.382256
0.515957
0.668232
0.85618
1.16218
0.956036
0.00577831
0.0055218
0.00518224
0.00549341
0.00572374
0.0011743
3.86857e-05
0.0585211
0.533009
1.58943
2.26139
1.92873
1.14214
0.649582
0.435754
0.317804
0.247865
0.203689
0.176956
0.16241
0.154957
0.152284
0.153161
0.157037
0.162353
0.16765
0.171328
0.171514
0.166517
0.155981
0.143078
0.139873
0.167579
0.23744
0.345333
0.487135
0.662402
0.862906
1.08085
1.43555
1.28778
0.0042159
0.00412087
0.00405904
0.00389534
0.00419756
0.0044428
0.000254819
1.4971e-06
0.0172696
0.283885
1.13619
2.1801
2.39144
1.7726
1.03751
0.648482
0.462804
0.359516
0.296167
0.258675
0.238153
0.229716
0.228506
0.232826
0.239995
0.247699
0.253464
0.254343
0.247176
0.230199
0.204596
0.18131
0.191188
0.264283
0.395911
0.573115
0.790062
1.03661
1.28867
1.65774
1.60947
0.00311308
0.00306833
0.00307337
0.00304829
0.00292556
0.0032898
0.00318956
0.00049212
0.000351676
0.000519113
0.10573
0.645137
1.71143
2.525
2.39151
1.66318
1.00695
0.67429
0.508659
0.416543
0.364075
0.339525
0.331366
0.334241
0.343132
0.35378
0.362529
0.365298
0.357327
0.334357
0.294189
0.241884
0.207431
0.25585
0.401685
0.611635
0.867152
1.15316
1.43813
1.79381
1.85344
0.00231153
0.00229032
0.0023065
0.00233093
0.00231181
0.00223801
0.00250524
0.00228252
0.000792018
8.83518e-05
0.00165825
0.0268395
0.27898
1.05924
2.15956
2.71283
2.37504
1.63125
1.03413
0.729295
0.581413
0.509858
0.478916
0.472271
0.479849
0.494249
0.508684
0.515856
0.508833
0.481506
0.428439
0.346601
0.246824
0.201555
0.328521
0.565159
0.853962
1.17045
1.48032
1.80985
1.95264
0.00172376
0.00171366
0.00173043
0.00175719
0.00178167
0.00176552
0.00173871
0.00185168
0.00186496
0.000908203
6.1831e-05
0.000381995
0.000276782
0.0743626
0.480479
1.40951
2.45204
2.82629
2.40566
1.68441
1.1211
0.84111
0.724603
0.678818
0.668249
0.677823
0.695688
0.710511
0.711849
0.689196
0.632173
0.532117
0.385229
0.199006
0.134438
0.391405
0.709562
1.04668
1.36747
1.66391
1.85327
0.00128806
0.00128376
0.00129577
0.00132011
0.00134576
0.00136609
0.00136171
0.00134595
0.00139049
0.00144203
0.000983265
4.72862e-05
2.21558e-05
0.00125205
0.00896491
0.142399
0.659099
1.64593
2.62464
2.92882
2.51527
1.86514
1.36361
1.09034
0.976037
0.94617
0.951405
0.965241
0.972624
0.960088
0.914395
0.823571
0.679706
0.481228
0.24402
0.180705
0.465828
0.795223
1.10064
1.35097
1.53812
0.000963032
0.000961848
0.000969893
0.000988478
0.00101182
0.00103397
0.00105148
0.00105569
0.00104726
0.00105951
0.00110474
0.000968081
0.000256646
2.52383e-05
0.000126041
0.00261051
0.0192649
0.195828
0.760399
1.74866
2.70713
3.0581
2.80964
2.33206
1.88236
1.56925
1.4008
1.33724
1.32774
1.32675
1.30378
1.24207
1.13535
0.987922
0.819614
0.678842
0.648001
0.759715
0.931816
1.0678
1.1602
0.000719429
0.00072
0.000725147
0.000738536
0.000757398
0.000777528
0.000796259
0.000812015
0.000820549
0.000818708
0.000817673
0.000858291
0.000836112
0.00049906
1.14007e-05
4.03849e-06
0.000311451
0.00402113
0.0268168
0.212941
0.764425
1.67747
2.59132
3.13879
3.23066
3.03025
2.72114
2.41128
2.15669
1.97691
1.86426
1.79362
1.73561
1.67087
1.59837
1.52973
1.48433
1.47195
1.48765
1.49112
1.39275
0.000536262
0.000537719
0.000540968
0.000550439
0.000564874
0.00058147
0.000598384
0.000614373
0.000628475
0.00063881
0.000641219
0.000641351
0.000661521
0.000670681
0.000593621
0.000179655
2.03305e-05
3.84074e-07
0.000550331
0.00419615
0.0250468
0.174718
0.572031
1.25376
2.08813
2.84971
3.36961
3.61471
3.64981
3.54954
3.36469
3.13596
2.90498
2.70959
2.57551
2.5124
2.51663
2.5606
2.61218
2.65207
2.54288
0.000398394
0.000400116
0.000402172
0.000408822
0.000419592
0.000432528
0.000446408
0.000460556
0.000474211
0.000486605
0.000496884
0.000502351
0.000505687
0.000510282
0.000534853
0.000505117
0.000397083
3.32134e-05
7.17802e-06
8.89518e-08
0.000626289
0.0028071
0.00892915
0.0719481
0.261036
0.642015
1.22136
1.93632
2.67872
3.34756
3.87906
4.24669
4.45229
4.51704
4.47753
4.37637
4.25753
4.15204
4.08639
4.0958
4.02777
0.000295502
0.000297129
0.00029849
0.000303193
0.000311118
0.000320873
0.000331685
0.000343131
0.000354791
0.000366123
0.000376664
0.000385909
0.000393115
0.000397153
0.0004025
0.000411617
0.000426281
0.000379172
0.000234982
8.2221e-06
3.74232e-06
5.34954e-08
0.000189049
0.00163822
0.00103548
0.0107389
0.0531039
0.172766
0.409185
0.789507
1.31408
1.95437
2.66169
3.38116
4.05976
4.64986
5.1259
5.4808
5.73358
5.93871
5.98932
0.000221308
0.000222762
0.000223787
0.000227288
0.000233254
0.000240689
0.000249063
0.000258126
0.00026758
0.00027711
0.000286382
0.000295127
0.000303121
0.000310031
0.000315087
0.000319428
0.000324776
0.00033758
0.000340333
0.000294935
0.000161626
5.06469e-06
3.03326e-06
1.75607e-07
1.95256e-05
0.000269604
0.00113716
0.00192354
0.000896064
0.0100342
0.0457419
0.131936
0.294817
0.558092
0.936464
1.42861
2.01948
2.687
3.39512
4.12623
4.76953
0.000168857
0.000170147
0.000170986
0.0001737
0.000178306
0.000184077
0.000190656
0.000197895
0.0002056
0.000213528
0.000221447
0.000229154
0.000236466
0.000243279
0.000249365
0.000254633
0.000258478
0.000263067
0.000269567
0.000278723
0.000276217
0.000232181
0.000156779
1.68584e-05
4.02257e-06
9.60708e-07
6.52444e-08
0
1.1166e-05
0.000214413
0.000993015
0.00138677
0.00152655
0.000897039
0.0108509
0.040606
0.105208
0.22076
0.401716
0.66107
0.998117
0.000131214
0.000132312
0.000133007
0.000135149
0.00013875
0.000143274
0.000148468
0.000154235
0.000160453
0.000166945
0.000173559
0.000180163
0.000186614
0.000192786
0.000198574
0.000203921
0.000208679
0.000212729
0.000216245
0.000220761
0.000227076
0.000232348
0.000231688
0.000205245
0.000153365
9.50507e-05
7.06656e-06
2.49008e-06
7.85667e-07
4.10809e-07
6.67903e-09
0
0
9.3982e-06
0.000252075
0.000903633
0.00127223
0.000776941
0.0015054
0.0011455
0.00975238
0.000103355
0.000104267
0.00010485
0.000106563
0.00010941
0.000112991
0.000117123
0.000121738
0.000126743
0.000132018
0.000137452
0.000142956
0.000148437
0.0001538
0.000158957
0.000163837
0.000168399
0.000172583
0.0001763
0.00017959
0.000182702
0.000186741
0.00019127
0.00019744
0.000197244
0.00019129
0.000169088
0.000132761
9.03369e-05
4.983e-05
8.81762e-07
1.17267e-06
6.0037e-07
3.73746e-07
1.84866e-07
3.64788e-09
0
0
0
1.07239e-05
0.000198549
8.22989e-05
8.30485e-05
8.35483e-05
8.49337e-05
8.72071e-05
9.00651e-05
9.33755e-05
9.70848e-05
0.000101123
0.000105403
0.000109839
0.000114367
0.000118924
0.000123439
0.000127851
0.000132102
0.000136144
0.000139943
0.00014347
0.000146724
0.000149544
0.000152073
0.000154474
0.000157524
0.00016122
0.000164743
0.000168844
0.000169209
0.000164622
0.00015706
0.0001389
0.000113074
8.51039e-05
5.50031e-05
2.87976e-05
6.13089e-07
7.93075e-07
4.35859e-07
3.22861e-07
2.16261e-07
1.17985e-07
6.61013e-05
6.6714e-05
6.71466e-05
6.82775e-05
7.01058e-05
7.24021e-05
7.50687e-05
7.80615e-05
8.13264e-05
8.47956e-05
8.84046e-05
9.2107e-05
9.58553e-05
9.95958e-05
0.000103281
0.000106868
0.000110318
0.000113596
0.000116676
0.000119562
0.000122151
0.00012442
0.000126443
0.000128192
0.000129916
0.000131672
0.000133819
0.000136342
0.000138867
0.000140945
0.000143428
0.00014345
0.00014079
0.000135367
0.000128273
0.000115535
9.90877e-05
8.07241e-05
6.23086e-05
4.35668e-05
2.51676e-05
5.34669e-05
5.39674e-05
5.43457e-05
5.52762e-05
5.67555e-05
5.86116e-05
6.07699e-05
6.31939e-05
6.58394e-05
6.86535e-05
7.15871e-05
7.46029e-05
7.76629e-05
8.07283e-05
8.37611e-05
8.67272e-05
8.95956e-05
9.23378e-05
9.49278e-05
9.73637e-05
9.95588e-05
0.000101496
0.000103242
0.000104738
0.000106004
0.000107085
0.000108011
0.000108871
0.00010976
0.000110667
0.000111793
0.000113053
0.000114255
0.000115236
0.000115857
0.000116647
0.000116336
0.000114741
0.000111933
0.000107845
0.000102887
4.34982e-05
4.39069e-05
4.42398e-05
4.50103e-05
4.62137e-05
4.77216e-05
4.94754e-05
5.14447e-05
5.35923e-05
5.58769e-05
5.82595e-05
6.07089e-05
6.31962e-05
6.56907e-05
6.81623e-05
7.05836e-05
7.29288e-05
7.51736e-05
7.72954e-05
7.92901e-05
8.10815e-05
8.26551e-05
8.40643e-05
8.52669e-05
8.627e-05
8.70939e-05
8.77466e-05
8.82322e-05
8.85676e-05
8.87705e-05
8.88589e-05
8.88772e-05
8.88568e-05
8.88195e-05
8.8749e-05
8.87085e-05
8.86744e-05
8.86038e-05
8.84639e-05
8.819e-05
8.7629e-05
3.5557e-05
3.58921e-05
3.61869e-05
3.68286e-05
3.78128e-05
3.90436e-05
4.04744e-05
4.20792e-05
4.38265e-05
4.56834e-05
4.76182e-05
4.9605e-05
5.16214e-05
5.36413e-05
5.56411e-05
5.75989e-05
5.94931e-05
6.13033e-05
6.30099e-05
6.46073e-05
6.60315e-05
6.72713e-05
6.83717e-05
6.92947e-05
7.00458e-05
7.06406e-05
7.10895e-05
7.13974e-05
7.15699e-05
7.16135e-05
7.15331e-05
7.13356e-05
7.1029e-05
7.06267e-05
7.01401e-05
6.9571e-05
6.89397e-05
6.82621e-05
6.75546e-05
6.68423e-05
6.58744e-05
2.91811e-05
2.9456e-05
2.97188e-05
3.02569e-05
3.10663e-05
3.20754e-05
3.32474e-05
3.45588e-05
3.59836e-05
3.74945e-05
3.90661e-05
4.06769e-05
4.23087e-05
4.39387e-05
4.55489e-05
4.71214e-05
4.86387e-05
5.00829e-05
5.14377e-05
5.26975e-05
5.38089e-05
5.47647e-05
5.56042e-05
5.62951e-05
5.684e-05
5.72515e-05
5.75384e-05
5.77069e-05
5.77628e-05
5.77135e-05
5.75658e-05
5.73266e-05
5.70006e-05
5.65961e-05
5.61199e-05
5.55736e-05
5.49659e-05
5.43018e-05
5.3597e-05
5.28616e-05
5.19422e-05
2.40262e-05
2.42539e-05
2.44896e-05
2.49437e-05
2.56132e-05
2.64447e-05
2.74083e-05
2.84833e-05
2.96477e-05
3.0879e-05
3.21564e-05
3.34622e-05
3.47807e-05
3.60931e-05
3.73848e-05
3.86416e-05
3.98489e-05
4.0992e-05
4.20569e-05
4.30387e-05
4.38932e-05
4.46176e-05
4.52457e-05
4.57511e-05
4.6135e-05
4.6409e-05
4.65797e-05
4.6653e-05
4.66342e-05
4.65305e-05
4.63483e-05
4.60946e-05
4.57747e-05
4.53964e-05
4.49664e-05
4.44874e-05
4.39664e-05
4.34059e-05
4.28245e-05
4.22131e-05
4.1485e-05
1.98351e-05
2.00248e-05
2.02379e-05
2.06243e-05
2.11816e-05
2.18705e-05
2.26662e-05
2.35504e-05
2.45045e-05
2.55098e-05
2.65492e-05
2.76081e-05
2.86725e-05
2.97282e-05
3.07619e-05
3.17627e-05
3.27189e-05
3.36183e-05
3.44491e-05
3.52071e-05
3.58567e-05
3.63978e-05
3.68604e-05
3.72227e-05
3.74856e-05
3.76588e-05
3.7749e-05
3.77613e-05
3.77007e-05
3.7573e-05
3.73842e-05
3.71406e-05
3.68467e-05
3.65092e-05
3.61343e-05
3.57243e-05
3.52847e-05
3.48163e-05
3.43411e-05
3.38346e-05
3.32658e-05
1.64104e-05
1.65709e-05
1.67646e-05
1.70962e-05
1.75637e-05
1.81378e-05
1.87978e-05
1.95278e-05
2.03119e-05
2.11347e-05
2.19818e-05
2.28413e-05
2.3701e-05
2.455e-05
2.53762e-05
2.61714e-05
2.69262e-05
2.76309e-05
2.82759e-05
2.88575e-05
2.93473e-05
2.97473e-05
3.00838e-05
3.03392e-05
3.05145e-05
3.06178e-05
3.06551e-05
3.06308e-05
3.05496e-05
3.04167e-05
3.0237e-05
3.00161e-05
2.97576e-05
2.94672e-05
2.91502e-05
2.8809e-05
2.84474e-05
2.80648e-05
2.76855e-05
2.72705e-05
2.68467e-05
1.36003e-05
1.3738e-05
1.39161e-05
1.42034e-05
1.45985e-05
1.50798e-05
1.56301e-05
1.62353e-05
1.68819e-05
1.75572e-05
1.82491e-05
1.89475e-05
1.96427e-05
2.03254e-05
2.09856e-05
2.16165e-05
2.22113e-05
2.27619e-05
2.32609e-05
2.37049e-05
2.40721e-05
2.43652e-05
2.46077e-05
2.47848e-05
2.48979e-05
2.49539e-05
2.49582e-05
2.49144e-05
2.48268e-05
2.46996e-05
2.45372e-05
2.43444e-05
2.41242e-05
2.38811e-05
2.36198e-05
2.33422e-05
2.30514e-05
2.2745e-05
2.24497e-05
2.21116e-05
2.1817e-05
1.12862e-05
1.14071e-05
1.15717e-05
1.18229e-05
1.21598e-05
1.25661e-05
1.30277e-05
1.35318e-05
1.40673e-05
1.46233e-05
1.51901e-05
1.57589e-05
1.6322e-05
1.68716e-05
1.73995e-05
1.79001e-05
1.83686e-05
1.87982e-05
1.91835e-05
1.95215e-05
1.97957e-05
2.00093e-05
2.01827e-05
2.03039e-05
2.03743e-05
2.03998e-05
2.03854e-05
2.03341e-05
2.02494e-05
2.0135e-05
1.99946e-05
1.9832e-05
1.96496e-05
1.94513e-05
1.92407e-05
1.90195e-05
1.87899e-05
1.85484e-05
1.83236e-05
1.80481e-05
1.78635e-05
9.37475e-06
9.48307e-06
9.63669e-06
9.85846e-06
1.01482e-05
1.04939e-05
1.08835e-05
1.13058e-05
1.17514e-05
1.22112e-05
1.26772e-05
1.3142e-05
1.35993e-05
1.40425e-05
1.44656e-05
1.48633e-05
1.52324e-05
1.55678e-05
1.58651e-05
1.61221e-05
1.63262e-05
1.64811e-05
1.66042e-05
1.66859e-05
1.67275e-05
1.67343e-05
1.67102e-05
1.66582e-05
1.65813e-05
1.64824e-05
1.63645e-05
1.62308e-05
1.60831e-05
1.59245e-05
1.5758e-05
1.5585e-05
1.54071e-05
1.52197e-05
1.5053e-05
1.48281e-05
1.47359e-05
7.79199e-06
7.89139e-06
8.03536e-06
8.23322e-06
8.48468e-06
8.78128e-06
9.11231e-06
9.46834e-06
9.84118e-06
1.02235e-05
1.06083e-05
1.09898e-05
1.13624e-05
1.17212e-05
1.20612e-05
1.23782e-05
1.26696e-05
1.29321e-05
1.31622e-05
1.33583e-05
1.35108e-05
1.36238e-05
1.37117e-05
1.37671e-05
1.37908e-05
1.37878e-05
1.37613e-05
1.37138e-05
1.36476e-05
1.35654e-05
1.34694e-05
1.33623e-05
1.32456e-05
1.31214e-05
1.29925e-05
1.28598e-05
1.27246e-05
1.25815e-05
1.24615e-05
1.22773e-05
1.22594e-05
6.47858e-06
6.57163e-06
6.70753e-06
6.88553e-06
7.1059e-06
7.36243e-06
7.64591e-06
7.94816e-06
8.26222e-06
8.58202e-06
8.90166e-06
9.21631e-06
9.52146e-06
9.81317e-06
1.00875e-05
1.03412e-05
1.05722e-05
1.07782e-05
1.09568e-05
1.11066e-05
1.12207e-05
1.1303e-05
1.13658e-05
1.14028e-05
1.14151e-05
1.14069e-05
1.1381e-05
1.13394e-05
1.12842e-05
1.12174e-05
1.11411e-05
1.10572e-05
1.09668e-05
1.08717e-05
1.07741e-05
1.06746e-05
1.05744e-05
1.04673e-05
1.03848e-05
1.02331e-05
1.02761e-05
5.38693e-06
5.47563e-06
5.60425e-06
5.76586e-06
5.96077e-06
6.18461e-06
6.42941e-06
6.688e-06
6.95454e-06
7.22388e-06
7.49119e-06
7.75237e-06
8.00386e-06
8.24249e-06
8.46539e-06
8.6698e-06
8.85434e-06
9.01758e-06
9.1578e-06
9.27406e-06
9.36152e-06
9.42352e-06
9.47042e-06
9.49711e-06
9.50461e-06
9.4964e-06
9.47489e-06
9.44174e-06
9.39854e-06
9.34702e-06
9.28873e-06
9.2253e-06
9.15753e-06
9.08675e-06
9.01479e-06
8.9421e-06
8.86966e-06
8.79113e-06
8.73728e-06
8.61209e-06
8.69819e-06
4.47845e-06
4.56414e-06
4.68631e-06
4.83413e-06
5.00814e-06
5.20524e-06
5.41842e-06
5.64154e-06
5.86949e-06
6.09811e-06
6.32325e-06
6.54167e-06
6.75034e-06
6.94685e-06
7.12898e-06
7.2947e-06
7.44283e-06
7.57259e-06
7.68288e-06
7.773e-06
7.83965e-06
7.88589e-06
7.92052e-06
7.93925e-06
7.94303e-06
7.93498e-06
7.91718e-06
7.89092e-06
7.85752e-06
7.81839e-06
7.77481e-06
7.72801e-06
7.67862e-06
7.62763e-06
7.57649e-06
7.52545e-06
7.47543e-06
7.42001e-06
7.38895e-06
7.28498e-06
7.40716e-06
3.72199e-06
3.80555e-06
3.92174e-06
4.05795e-06
4.21477e-06
4.38972e-06
4.57697e-06
4.77096e-06
4.96753e-06
5.16302e-06
5.35422e-06
5.53829e-06
5.71308e-06
5.87655e-06
6.02734e-06
6.16381e-06
6.28525e-06
6.39121e-06
6.4812e-06
6.55466e-06
6.60958e-06
6.64815e-06
6.67785e-06
6.69497e-06
6.70042e-06
6.69672e-06
6.68562e-06
6.66814e-06
6.64534e-06
6.61834e-06
6.58818e-06
6.55587e-06
6.52184e-06
6.48686e-06
6.45213e-06
6.41783e-06
6.38471e-06
6.34669e-06
6.33135e-06
6.24582e-06
6.38418e-06
3.09202e-06
3.17387e-06
3.2845e-06
3.41086e-06
3.55332e-06
3.7099e-06
3.87551e-06
4.04538e-06
4.21606e-06
4.38449e-06
4.54806e-06
4.70437e-06
4.85172e-06
4.98834e-06
5.11336e-06
5.22559e-06
5.32435e-06
5.40949e-06
5.48099e-06
5.53843e-06
5.58075e-06
5.61013e-06
5.63281e-06
5.64572e-06
5.64973e-06
5.64707e-06
5.63921e-06
5.62699e-06
5.61126e-06
5.59291e-06
5.57277e-06
5.55157e-06
5.52964e-06
5.50751e-06
5.48609e-06
5.4654e-06
5.44621e-06
5.42266e-06
5.42062e-06
5.34904e-06
5.50727e-06
2.56741e-06
2.64776e-06
2.75306e-06
2.87089e-06
3.00115e-06
3.14213e-06
3.28944e-06
3.43904e-06
3.58807e-06
3.73418e-06
3.87524e-06
4.00943e-06
4.1354e-06
4.25208e-06
4.35904e-06
4.45565e-06
4.54127e-06
4.61588e-06
4.67947e-06
4.73185e-06
4.77228e-06
4.80196e-06
4.82629e-06
4.84256e-06
4.85152e-06
4.85501e-06
4.85424e-06
4.84985e-06
4.84254e-06
4.83305e-06
4.82206e-06
4.81022e-06
4.79777e-06
4.78514e-06
4.77313e-06
4.76181e-06
4.75164e-06
4.73776e-06
4.74219e-06
4.68637e-06
4.83453e-06
2.13056e-06
2.20977e-06
2.31028e-06
2.42047e-06
2.53977e-06
2.66681e-06
2.79813e-06
2.93035e-06
3.06111e-06
3.18843e-06
3.31068e-06
3.42636e-06
3.53414e-06
3.63257e-06
3.72098e-06
3.79915e-06
3.86703e-06
3.92513e-06
3.97393e-06
4.01339e-06
4.04343e-06
4.06561e-06
4.0841e-06
4.09671e-06
4.10408e-06
4.10784e-06
4.10891e-06
4.10785e-06
4.10514e-06
4.10136e-06
4.09696e-06
4.09238e-06
4.08776e-06
4.08337e-06
4.07972e-06
4.07671e-06
4.07496e-06
4.06975e-06
4.08169e-06
4.03315e-06
4.19647e-06
1.76819e-06
1.84663e-06
1.94297e-06
2.04635e-06
2.15535e-06
2.26912e-06
2.38533e-06
2.50182e-06
2.61682e-06
2.72861e-06
2.83561e-06
2.93683e-06
3.03206e-06
3.12159e-06
3.20547e-06
3.28258e-06
3.35146e-06
3.41176e-06
3.46361e-06
3.50732e-06
3.54282e-06
3.57051e-06
3.59439e-06
3.61256e-06
3.62568e-06
3.6352e-06
3.64193e-06
3.64637e-06
3.64897e-06
3.65031e-06
3.65083e-06
3.651e-06
3.65095e-06
3.65096e-06
3.65154e-06
3.65282e-06
3.65481e-06
3.65457e-06
3.66653e-06
3.63658e-06
3.76031e-06
1.47119e-06
1.54786e-06
1.63927e-06
1.73567e-06
1.83495e-06
1.93636e-06
2.03835e-06
2.13969e-06
2.23969e-06
2.33757e-06
2.43185e-06
2.52031e-06
2.60038e-06
2.6699e-06
2.72898e-06
2.78039e-06
2.82636e-06
2.86742e-06
2.90356e-06
2.93425e-06
2.95953e-06
2.98063e-06
2.99986e-06
3.01555e-06
3.02804e-06
3.03843e-06
3.04733e-06
3.05504e-06
3.06181e-06
3.06797e-06
3.07378e-06
3.07946e-06
3.08505e-06
3.09063e-06
3.09646e-06
3.10236e-06
3.10884e-06
3.11232e-06
3.12822e-06
3.09421e-06
3.24574e-06
1.22907e-06
1.30211e-06
1.38578e-06
1.47234e-06
1.56043e-06
1.65023e-06
1.74055e-06
1.82974e-06
1.91656e-06
2.00062e-06
2.08267e-06
2.16428e-06
2.24706e-06
2.33151e-06
2.41527e-06
2.49209e-06
2.5578e-06
2.61337e-06
2.66056e-06
2.70089e-06
2.73459e-06
2.76139e-06
2.78485e-06
2.80381e-06
2.81894e-06
2.83134e-06
2.84164e-06
2.85023e-06
2.85753e-06
2.86397e-06
2.86992e-06
2.87575e-06
2.88161e-06
2.88771e-06
2.89441e-06
2.90195e-06
2.90986e-06
2.91755e-06
2.93021e-06
2.9266e-06
2.9966e-06
1.02595e-06
1.09692e-06
1.17289e-06
1.24727e-06
1.32046e-06
1.39501e-06
1.47211e-06
1.55149e-06
1.63147e-06
1.70879e-06
1.77904e-06
1.83798e-06
1.88338e-06
1.91574e-06
1.94046e-06
1.9684e-06
2.00374e-06
2.04163e-06
2.07878e-06
2.11315e-06
2.14465e-06
2.17411e-06
2.20195e-06
2.22697e-06
2.2493e-06
2.26957e-06
2.28818e-06
2.30528e-06
2.32098e-06
2.33547e-06
2.34891e-06
2.36135e-06
2.37286e-06
2.38341e-06
2.39311e-06
2.40172e-06
2.40984e-06
2.41455e-06
2.42789e-06
2.39723e-06
2.53453e-06
8.54419e-07
9.31283e-07
1.00841e-06
1.07749e-06
1.13827e-06
1.19439e-06
1.24924e-06
1.3059e-06
1.36762e-06
1.43751e-06
1.51812e-06
1.61056e-06
1.71339e-06
1.82284e-06
1.93037e-06
2.01871e-06
2.08279e-06
2.13371e-06
2.17615e-06
2.21215e-06
2.24141e-06
2.26438e-06
2.28377e-06
2.29918e-06
2.31139e-06
2.32128e-06
2.32946e-06
2.33638e-06
2.34248e-06
2.3482e-06
2.35394e-06
2.36007e-06
2.36678e-06
2.37429e-06
2.38289e-06
2.39308e-06
2.40373e-06
2.41701e-06
2.42764e-06
2.4539e-06
2.44552e-06
7.31097e-07
8.06919e-07
8.82018e-07
9.51734e-07
1.01439e-06
1.06985e-06
1.11713e-06
1.15521e-06
1.18409e-06
1.20488e-06
1.2196e-06
1.23058e-06
1.24031e-06
1.24933e-06
1.26e-06
1.28709e-06
1.33156e-06
1.38089e-06
1.43102e-06
1.47937e-06
1.52538e-06
1.56904e-06
1.61058e-06
1.64956e-06
1.68572e-06
1.71922e-06
1.75016e-06
1.77853e-06
1.8043e-06
1.82744e-06
1.84785e-06
1.86547e-06
1.88023e-06
1.89197e-06
1.90061e-06
1.90583e-06
1.90832e-06
1.90504e-06
1.90705e-06
1.86381e-06
1.98015e-06
7.99962e-07
9.04215e-07
9.62632e-07
9.76912e-07
9.65513e-07
9.54948e-07
9.69453e-07
1.02163e-06
1.1089e-06
1.21876e-06
1.33663e-06
1.45078e-06
1.55334e-06
1.64166e-06
1.71341e-06
1.75406e-06
1.76618e-06
1.76497e-06
1.75783e-06
1.74777e-06
1.73359e-06
1.72178e-06
1.70803e-06
1.69384e-06
1.67999e-06
1.66669e-06
1.65402e-06
1.64208e-06
1.63092e-06
1.6205e-06
1.61068e-06
1.60132e-06
1.59203e-06
1.58248e-06
1.57245e-06
1.56209e-06
1.54928e-06
1.53698e-06
1.51425e-06
1.52033e-06
1.42784e-06
6.22222
7.52163
7.35928
6.42668
4.90708
3.12405
1.46877
0.339696
0.0549363
0.00826651
3.82329e-05
2.60935e-05
0.000456126
0.000442135
0.000364217
0.000318535
0.000271273
0.000225705
0.000181675
0.000148998
0.000119377
9.66912e-05
7.72821e-05
6.16509e-05
4.89875e-05
3.91242e-05
3.09207e-05
2.47977e-05
1.99138e-05
1.60069e-05
1.30493e-05
1.05445e-05
8.71005e-06
7.14664e-06
5.78918e-06
4.76799e-06
3.80187e-06
3.01689e-06
2.23604e-06
1.68693e-06
1.03477e-06
4.66527e-07
3.40097e-07
6.85984e-07
1.13212e-06
1.58326e-06
2.00067e-06
2.36564e-06
2.69082e-06
2.97439e-06
3.19367e-06
3.35865e-06
3.4597e-06
3.50017e-06
3.47747e-06
3.40656e-06
3.27498e-06
3.11189e-06
2.9025e-06
2.68225e-06
2.42628e-06
2.18245e-06
1.9237e-06
1.67028e-06
1.43235e-06
1.19535e-06
9.88725e-07
7.90678e-07
6.15981e-07
4.58523e-07
3.26375e-07
2.32416e-07
1.71921e-07
3.60129e-07
6.01864
9.99595
10.205
9.06665
7.30425
5.18534
3.03244
1.24868
0.21238
0.0470611
0.000131141
3.24601e-06
7.0402e-05
0.000421641
0.000373658
0.000292693
0.000250317
0.000219626
0.000183334
0.000151237
0.000120894
9.75295e-05
7.84044e-05
6.30214e-05
5.03368e-05
4.03863e-05
3.20489e-05
2.56918e-05
2.06796e-05
1.6603e-05
1.35208e-05
1.08975e-05
8.94905e-06
7.32858e-06
5.90336e-06
4.83417e-06
3.833e-06
3.02271e-06
2.21673e-06
1.65497e-06
1.0115e-06
4.28981e-07
3.26383e-07
6.87119e-07
1.12207e-06
1.5529e-06
1.95668e-06
2.30186e-06
2.59952e-06
2.86344e-06
3.06111e-06
3.20645e-06
3.29057e-06
3.3187e-06
3.28257e-06
3.2089e-06
3.07544e-06
2.915e-06
2.71103e-06
2.50131e-06
2.25569e-06
2.02525e-06
1.78571e-06
1.54462e-06
1.32431e-06
1.10273e-06
9.10636e-07
7.292e-07
5.67499e-07
4.23107e-07
3.02736e-07
2.24167e-07
1.67337e-07
3.59209e-07
4.04891
9.56843
11.6252
11.2128
9.66101
7.50158
5.06418
2.74875
0.987545
0.139227
0.0321036
0.00553888
5.32462e-06
6.69778e-05
0.000395433
0.000352076
0.000256381
0.000200423
0.000169181
0.000145838
0.000122492
9.94726e-05
7.97316e-05
6.40099e-05
5.13854e-05
4.14208e-05
3.3151e-05
2.654e-05
2.13974e-05
1.72396e-05
1.39675e-05
1.13206e-05
9.18059e-06
7.49799e-06
6.0635e-06
4.90443e-06
3.89204e-06
3.0459e-06
2.25298e-06
1.59665e-06
9.99895e-07
4.1891e-07
2.18669e-07
6.38666e-07
1.07171e-06
1.47985e-06
1.86634e-06
2.19691e-06
2.46729e-06
2.70954e-06
2.88649e-06
3.01349e-06
3.08232e-06
3.10024e-06
3.05987e-06
2.97726e-06
2.85081e-06
2.69349e-06
2.50301e-06
2.30309e-06
2.07757e-06
1.85676e-06
1.641e-06
1.41792e-06
1.21447e-06
1.0135e-06
8.34862e-07
6.72682e-07
5.25823e-07
3.96358e-07
2.88299e-07
2.27286e-07
1.73346e-07
3.64489e-07
2.78204
8.12554
11.5987
12.4067
11.5463
9.72414
7.33215
4.744
2.41337
0.774082
0.114807
0.0210698
0.00364023
4.67635e-06
3.39053e-05
0.000313786
0.000352036
0.000260383
0.000184733
0.000138823
0.000114726
9.73976e-05
8.16692e-05
6.63979e-05
5.30786e-05
4.25882e-05
3.42563e-05
2.74884e-05
2.21783e-05
1.78765e-05
1.44414e-05
1.17145e-05
9.45241e-06
7.69854e-06
6.2309e-06
5.00582e-06
3.97215e-06
3.09802e-06
2.3078e-06
1.6034e-06
1.02291e-06
4.45961e-07
1.19099e-07
5.59746e-07
9.93785e-07
1.37818e-06
1.74354e-06
2.06184e-06
2.31154e-06
2.53206e-06
2.69329e-06
2.80479e-06
2.86235e-06
2.87242e-06
2.83073e-06
2.74603e-06
2.62707e-06
2.47701e-06
2.30093e-06
2.11319e-06
1.90763e-06
1.70063e-06
1.50576e-06
1.30179e-06
1.11549e-06
9.33928e-07
7.7021e-07
6.24951e-07
4.92633e-07
3.76939e-07
2.81106e-07
2.33422e-07
1.84214e-07
3.6964e-07
2.15557
6.63939
10.616
12.5405
12.6483
11.5132
9.52997
7.01848
4.39196
2.13173
0.646651
0.108015
0.0148894
0.00394614
1.81314e-06
2.13792e-05
0.000116077
0.000238024
0.000248757
0.000189879
0.000132323
9.65288e-05
7.82049e-05
6.59807e-05
5.5016e-05
4.4684e-05
3.57736e-05
2.85407e-05
2.29912e-05
1.85296e-05
1.4958e-05
1.20983e-05
9.74668e-06
7.91796e-06
6.39235e-06
5.12266e-06
4.06085e-06
3.16454e-06
2.36433e-06
1.65395e-06
1.07343e-06
4.99742e-07
2.49e-08
4.64211e-07
8.91804e-07
1.25589e-06
1.59893e-06
1.90211e-06
2.13596e-06
2.33632e-06
2.48565e-06
2.58462e-06
2.63478e-06
2.64022e-06
2.5973e-06
2.51904e-06
2.40739e-06
2.26888e-06
2.10692e-06
1.93447e-06
1.74702e-06
1.55793e-06
1.38196e-06
1.19656e-06
1.02779e-06
8.63989e-07
7.15668e-07
5.85341e-07
4.66548e-07
3.63226e-07
2.78892e-07
2.40496e-07
1.97471e-07
3.74045e-07
1.91966
5.41465
9.21108
11.8022
12.8355
12.5719
11.2959
9.23064
6.68138
4.09992
1.95404
0.608915
0.118522
0.017796
0.00664992
2.5216e-05
5.89823e-06
1.54664e-05
5.9949e-05
0.000147528
0.000167883
0.00013703
9.42562e-05
6.7008e-05
5.33783e-05
4.4703e-05
3.71798e-05
3.0052e-05
2.40483e-05
1.92105e-05
1.54441e-05
1.24647e-05
1.0031e-05
8.12637e-06
6.54011e-06
5.2284e-06
4.14475e-06
3.22932e-06
2.41902e-06
1.71229e-06
1.13577e-06
5.69925e-07
1.2947e-07
3.89402e-07
7.91517e-07
1.13533e-06
1.45569e-06
1.73849e-06
1.95523e-06
2.13836e-06
2.27503e-06
2.36325e-06
2.40745e-06
2.41057e-06
2.36816e-06
2.2972e-06
2.19423e-06
2.0687e-06
1.92156e-06
1.76556e-06
1.59607e-06
1.4258e-06
1.26822e-06
1.10066e-06
9.49286e-07
8.023e-07
6.69158e-07
5.52712e-07
4.46552e-07
3.54713e-07
2.80942e-07
2.49866e-07
2.13139e-07
3.79372e-07
1.88097
4.47185
7.75749
10.5208
12.2005
12.7663
12.3342
10.9978
8.9111
6.40311
3.92278
1.90909
0.665001
0.164865
0.034691
0.000674449
0.00349223
0.000434283
2.90293e-06
8.80582e-06
1.79105e-05
8.35968e-05
0.000108974
9.79379e-05
6.78991e-05
4.675e-05
3.63718e-05
3.00484e-05
2.49219e-05
2.01736e-05
1.60895e-05
1.28419e-05
1.02749e-05
8.30434e-06
6.67581e-06
5.32631e-06
4.22216e-06
3.29001e-06
2.4775e-06
1.77444e-06
1.20733e-06
6.60481e-07
2.73776e-07
3.7085e-07
7.16526e-07
1.03287e-06
1.32784e-06
1.58764e-06
1.78466e-06
1.95153e-06
2.0742e-06
2.15192e-06
2.19002e-06
2.19144e-06
2.15145e-06
2.08567e-06
1.9922e-06
1.87923e-06
1.74744e-06
1.60747e-06
1.45623e-06
1.30388e-06
1.1643e-06
1.01399e-06
8.79281e-07
7.48435e-07
6.29794e-07
5.26498e-07
4.32192e-07
3.50954e-07
2.86872e-07
2.61735e-07
2.31012e-07
3.86039e-07
1.96344
3.76885
6.43907
9.01497
10.9809
12.1555
12.508
12.0117
10.6691
8.63333
6.23182
3.89423
2.01641
0.831553
0.280574
0.0853546
0.0239906
0.00381353
0.00386053
0.000913963
8.25e-07
4.18793e-06
1.02937e-07
4.22336e-05
6.8384e-05
6.93619e-05
4.88759e-05
3.28251e-05
2.4596e-05
1.99581e-05
1.64782e-05
1.33779e-05
1.06413e-05
8.49218e-06
6.78122e-06
5.4062e-06
4.29275e-06
3.35114e-06
2.54073e-06
1.84493e-06
1.28982e-06
7.70775e-07
4.26788e-07
4.16928e-07
6.79553e-07
9.5598e-07
1.21977e-06
1.45573e-06
1.63254e-06
1.78171e-06
1.89025e-06
1.95739e-06
1.98887e-06
1.98817e-06
1.95086e-06
1.88945e-06
1.80511e-06
1.70369e-06
1.58695e-06
1.46206e-06
1.32855e-06
1.19304e-06
1.0706e-06
9.37005e-07
8.17963e-07
7.02407e-07
5.97361e-07
5.06385e-07
4.23066e-07
3.51329e-07
2.96019e-07
2.75314e-07
2.50515e-07
3.93528e-07
2.07903
3.24654
5.298
7.49782
9.44601
10.9351
11.8644
12.1304
11.6285
10.3455
8.42806
6.1931
4.03273
2.28949
1.13715
0.513579
0.221188
0.0903666
0.0303963
0.00689871
0.00451918
0.00119043
4.4886e-09
1.95489e-06
4.34048e-06
1.44413e-05
3.9062e-05
4.62461e-05
3.37923e-05
2.28081e-05
1.64173e-05
1.29698e-05
1.06601e-05
8.72202e-06
6.96972e-06
5.504e-06
4.34348e-06
3.39633e-06
2.60117e-06
1.9217e-06
1.38003e-06
8.91587e-07
5.81035e-07
5.11711e-07
6.86372e-07
9.11409e-07
1.13681e-06
1.34631e-06
1.50287e-06
1.63192e-06
1.72627e-06
1.78256e-06
1.8069e-06
1.80318e-06
1.76761e-06
1.71055e-06
1.63437e-06
1.5434e-06
1.44072e-06
1.33002e-06
1.21311e-06
1.09353e-06
9.87114e-07
8.69502e-07
7.65172e-07
6.63924e-07
5.71567e-07
4.91937e-07
4.18648e-07
3.55238e-07
3.07796e-07