/*--------------------------------*- C++ -*----------------------------------*\
| =========                 |                                                 |
| \\      /  F ield         | OpenFOAM: The Open Source CFD Toolbox           |
|  \\    /   O peration     | Version:  2312                                  |
|   \\  /    A nd           | Website:  www.openfoam.com                      |
|    \\/     M anipulation  |                                                 |
\*---------------------------------------------------------------------------*/
FoamFile
{
    version     2.0;
    format      ascii;
    arch        "LSB;label=32;scalar=64";
    class       volSymmTensorField;
    location    "550";
    object      turbulenceProperties:devReff;
}
// * * * * * * * * * * * * * * * * * * * * * * * * * * * * * * * * * * * * * //

dimensions      [0 2 -2 0 0 0 0];

internalField   nonuniform List<symmTensor> 
11040
(
(0.0181237 0.0939432 -1.54559e-22 -0.0280051 1.1484e-20 0.00988147)
(0.0678155 0.0878357 9.58226e-21 -0.0808744 1.34967e-19 0.0130589)
(0.0130414 0.0101077 -2.94167e-20 -0.0115725 9.43547e-20 -0.00146889)
(-0.00437007 0.0103285 -6.87104e-20 0.0048818 4.01436e-20 -0.000511724)
(-0.067366 0.0474771 -2.27902e-20 0.0674984 1.99001e-19 -0.000132397)
(-0.0623805 0.0594718 -3.07278e-19 0.0631419 1.11916e-19 -0.000761376)
(-0.0528557 0.0623861 1.75892e-19 0.053155 -1.15768e-18 -0.000299253)
(-0.0431758 0.0608005 2.45351e-19 0.0433419 -1.69859e-19 -0.000166124)
(-0.0343159 0.0572819 1.05512e-19 0.0344289 -3.06763e-20 -0.000113039)
(-0.0280926 0.0551652 9.83184e-20 0.0281095 1.56396e-19 -1.69361e-05)
(-0.0228636 0.0523584 -8.71845e-20 0.0228901 3.72025e-19 -2.64935e-05)
(-0.0184735 0.0496524 -1.30736e-19 0.0184639 2.79996e-19 9.53943e-06)
(-0.0148178 0.0472433 2.15109e-20 0.0147791 -1.6086e-19 3.86401e-05)
(-0.0117927 0.0452241 2.70073e-20 0.0117505 1.56957e-19 4.21586e-05)
(-0.00916111 0.0435088 -1.22503e-20 0.00909321 1.19538e-20 6.78983e-05)
(-0.00696031 0.0425824 -4.91108e-21 0.00688351 -2.02455e-19 7.68013e-05)
(-0.00502178 0.0424798 5.58271e-20 0.00492799 -8.59844e-22 9.37906e-05)
(-0.00322874 0.0433605 -5.29091e-21 0.00311955 3.66869e-19 0.000109186)
(-0.00143751 0.0450993 -3.16712e-20 0.00131299 3.17958e-21 0.000124524)
(0.000464168 0.0476371 5.06459e-21 -0.000607442 -5.33675e-20 0.000143274)
(0.00258881 0.051049 2.41457e-20 -0.00274189 4.09701e-20 0.000153074)
(0.00481922 0.0552441 -2.62583e-20 -0.00497485 1.23975e-19 0.000155631)
(0.00701554 0.0602518 7.46182e-22 -0.00718622 -1.02436e-19 0.000170677)
(0.00939249 0.0661647 1.37877e-20 -0.00957633 2.61785e-19 0.000183841)
(0.0120844 0.0731034 -7.95697e-20 -0.0122657 -2.36045e-19 0.000181331)
(0.0151632 0.081365 -4.23292e-20 -0.015332 -5.51768e-19 0.000168802)
(0.0185471 0.0903362 1.17237e-20 -0.0186892 -2.5698e-19 0.000142117)
(0.0219939 0.0989303 3.44241e-20 -0.0220932 7.29122e-20 9.93364e-05)
(0.025271 0.106413 -2.31465e-20 -0.0253051 -2.10199e-19 3.41774e-05)
(0.0280504 0.111899 1.41735e-20 -0.0280024 -4.90602e-19 -4.8012e-05)
(0.029994 0.114519 1.2469e-19 -0.0298617 3.52785e-19 -0.000132311)
(0.0308773 0.113556 1.99335e-20 -0.0306633 -2.89227e-20 -0.000214087)
(0.0307061 0.109488 1.07522e-19 -0.0304037 9.95947e-19 -0.000302356)
(0.0298603 0.104386 -9.54145e-20 -0.0294413 6.16384e-19 -0.000419069)
(0.028434 0.0992343 4.65193e-20 -0.0278055 1.10077e-20 -0.000628568)
(0.021724 0.078319 1.30372e-19 -0.0209578 9.36892e-19 -0.000766224)
(0.0103993 0.0419198 7.49426e-21 -0.00976538 1.82681e-19 -0.000633872)
(0.00423927 0.0266557 -4.41993e-20 -0.00333064 5.21562e-19 -0.000908627)
(-0.00459346 0.0109631 -4.44286e-19 0.00513713 -1.14316e-18 -0.000543668)
(-0.0138198 -0.0245879 -9.82294e-21 0.015476 -9.99529e-19 -0.00165618)
(-0.0554559 -0.0116951 2.10551e-19 0.0623976 5.65576e-20 -0.00694163)
(0.00574651 -0.00598525 5.81676e-22 -0.00412339 -1.70479e-21 -0.00162312)
(0.0167023 0.0013146 2.60187e-20 -0.00997925 4.98512e-21 -0.00672301)
(0.0522732 0.031831 5.50255e-20 -0.0536923 -3.03068e-19 0.00141908)
(0.120931 0.0318085 7.67232e-20 -0.12184 -1.75414e-19 0.000909218)
(0.249114 -0.0209602 8.23532e-20 -0.248498 -4.94929e-19 -0.000616514)
(0.0706414 -0.0503901 5.73172e-19 -0.0704563 -1.22192e-18 -0.000185111)
(0.018738 -0.0198409 -8.33396e-19 -0.0178782 3.26464e-18 -0.000859782)
(0.00482544 -0.00828583 -8.39665e-19 -0.00508289 2.16985e-18 0.000257448)
(0.000637859 -0.00272555 -7.55896e-20 -0.000837755 -1.55935e-19 0.000199896)
(-0.0010569 0.000884016 -1.04952e-19 0.000868225 4.07997e-20 0.000188678)
(-0.00207409 0.00323255 4.65874e-19 0.00203703 -1.17122e-18 3.7059e-05)
(-0.00233828 0.00470623 -5.54712e-22 0.00237577 -7.46047e-20 -3.74908e-05)
(-0.00221703 0.00580505 -1.68064e-19 0.00226201 6.89532e-19 -4.49792e-05)
(-0.002035 0.00655916 -1.13518e-19 0.00214001 3.44544e-20 -0.000105011)
(-0.00169078 0.00710518 -4.54728e-20 0.00181178 -1.74276e-19 -0.000121002)
(-0.00132871 0.00757981 1.08875e-20 0.00147912 5.96416e-19 -0.000150413)
(-0.000949628 0.00810457 -1.42732e-20 0.00112474 1.99161e-19 -0.000175112)
(-0.000550454 0.00874064 -8.63437e-21 0.000750067 -5.55363e-19 -0.000199613)
(-0.000117188 0.0093967 -2.3792e-20 0.000344987 -2.56947e-20 -0.0002278)
(0.00037313 0.0100554 -7.45553e-21 -0.000123967 8.31266e-20 -0.000249163)
(0.000929684 0.0107234 -1.11438e-20 -0.000666424 -1.61972e-20 -0.00026326)
(0.00152509 0.0114149 3.08711e-20 -0.00124817 -2.79996e-19 -0.00027692)
(0.00206407 0.0119353 2.45573e-20 -0.00176497 3.92323e-19 -0.000299099)
(0.0025054 0.0120779 -4.6893e-20 -0.00219989 -3.57218e-19 -0.000305506)
(0.00281414 0.0118273 -6.243e-21 -0.00252589 2.90549e-19 -0.000288256)
(0.00302696 0.011466 7.55872e-20 -0.00277256 9.40347e-19 -0.000254406)
(0.00310348 0.0109316 1.41248e-19 -0.0029011 5.19209e-19 -0.000202387)
(0.00293795 0.0100254 -3.44286e-20 -0.00282308 1.45343e-19 -0.000114873)
(0.00248185 0.00877756 -9.29592e-20 -0.00249769 2.87453e-19 1.58405e-05)
(0.00173603 0.00735215 4.53457e-20 -0.00192167 5.09959e-19 0.000185645)
(0.000757838 0.00611705 -1.11938e-19 -0.00112626 -7.76551e-19 0.000368421)
(-0.000506415 0.00551942 -5.47797e-20 -5.89014e-05 -1.26484e-18 0.000565317)
(-0.00234703 0.00498541 -1.27714e-19 0.00155118 -2.63441e-18 0.00079585)
(-0.00474643 0.00459401 7.14876e-20 0.00368078 -1.30467e-18 0.00106565)
(-0.00773677 0.00434866 -9.27754e-20 0.00628407 1.21361e-19 0.0014527)
(-0.0113367 0.00435537 -4.29621e-19 0.00931966 -3.93763e-18 0.00201703)
(-0.0155465 0.00509989 -6.91737e-20 0.0129756 -3.44376e-19 0.00257085)
(-0.0203397 0.00659022 -4.87213e-19 0.0181038 -2.29128e-18 0.00223588)
(-0.0336106 0.00959371 1.22305e-18 0.0293628 5.30865e-18 0.00424782)
(-0.0251376 0.0220868 8.37027e-19 0.0269369 4.93853e-18 -0.00179924)
(-0.120516 -0.122937 -3.80208e-19 0.0738406 -6.62283e-19 0.0466752)
(0.0021347 -0.0041515 -5.30811e-22 -0.00240103 -7.69937e-22 0.000266326)
(-0.000424393 -0.0039844 -1.01839e-20 0.000563676 -2.58758e-20 -0.000139282)
(0.00847982 0.00455871 2.11277e-20 -0.00795825 1.03252e-19 -0.000521569)
(0.0423064 0.0180551 5.9734e-20 -0.0429717 9.15352e-20 0.000665325)
(0.279168 0.0478475 -8.03578e-21 -0.281656 -3.78485e-20 0.00248817)
(0.384629 -0.0349249 -2.99886e-19 -0.382958 1.19109e-18 -0.00167103)
(0.179634 -0.0996619 2.99896e-20 -0.179193 1.72441e-20 -0.000441016)
(0.0562582 -0.0558111 9.83909e-20 -0.0525925 -2.49727e-18 -0.00366566)
(0.0222996 -0.0297615 -1.72145e-19 -0.0218123 2.65484e-20 -0.000487337)
(0.012237 -0.018471 2.44079e-19 -0.0124415 -7.12264e-19 0.000204516)
(0.00602264 -0.0110997 -4.49994e-19 -0.00609178 1.05962e-18 6.91442e-05)
(0.0029062 -0.00675239 7.77869e-19 -0.00288969 -2.12627e-18 -1.6513e-05)
(0.00143367 -0.0033574 -3.88135e-20 -0.00148407 -7.07556e-20 5.04036e-05)
(0.000565313 -0.00105764 1.5642e-19 -0.000560953 -9.31846e-19 -4.35986e-06)
(0.000338226 0.000601741 2.59676e-20 -0.000374945 9.75339e-19 3.67187e-05)
(0.000325096 0.00181454 -8.0211e-20 -0.000351891 -3.73318e-19 2.67951e-05)
(0.000489618 0.00264465 -3.68119e-21 -0.000521078 -6.29794e-19 3.14606e-05)
(0.000749747 0.00321545 4.27148e-20 -0.000783991 -4.51076e-19 3.42438e-05)
(0.00104812 0.00360272 2.00708e-20 -0.00107725 -2.56892e-20 2.91314e-05)
(0.00138547 0.00381644 2.66825e-20 -0.00141427 2.85454e-20 2.87976e-05)
(0.00174053 0.00388144 3.3654e-21 -0.00176574 8.65926e-20 2.52095e-05)
(0.00212714 0.00377297 -4.49424e-20 -0.00215823 1.38423e-19 3.1087e-05)
(0.00248061 0.0033691 -3.84761e-20 -0.00251327 -4.53963e-19 3.26557e-05)
(0.00272098 0.00263086 -4.04519e-20 -0.00274916 -1.81723e-19 2.81833e-05)
(0.00278465 0.00166566 8.4026e-20 -0.00279981 -2.85382e-19 1.5167e-05)
(0.00264068 0.000618405 -1.36085e-20 -0.00263867 -2.6487e-19 -2.01555e-06)
(0.00223697 -0.000390956 -2.30951e-19 -0.00220894 2.70785e-19 -2.80285e-05)
(0.00149995 -0.00122335 -8.05249e-20 -0.00143554 -1.09408e-18 -6.44148e-05)
(0.000363553 -0.0016871 1.9503e-19 -0.00025319 2.69489e-19 -0.000110363)
(-0.00125589 -0.00167005 2.65852e-19 0.0014085 1.13197e-18 -0.00015261)
(-0.00354638 -0.00130556 -1.88306e-19 0.00372656 6.36803e-19 -0.000180185)
(-0.00685819 -0.000975308 4.35467e-19 0.0070597 2.62518e-18 -0.000201501)
(-0.0111961 -4.83593e-05 1.83078e-19 0.0114064 8.12215e-19 -0.000210327)
(-0.0165644 0.00164524 -4.00054e-19 0.0167409 9.07957e-19 -0.00017647)
(-0.0230385 0.00423481 -4.78478e-19 0.0231145 -9.53185e-19 -7.60113e-05)
(-0.0308455 0.00798399 3.21389e-19 0.0306676 1.98697e-18 0.000177882)
(-0.0399938 0.0135308 2.96972e-19 0.0394162 -2.07983e-18 0.000577596)
(-0.0488653 0.020711 5.27015e-19 0.0488759 1.88566e-18 -1.06128e-05)
(-0.0743749 0.0298083 -4.24218e-19 0.0705005 -9.34208e-19 0.00387437)
(-0.0627204 0.0717908 2.06616e-20 0.0683235 -5.00144e-19 -0.00560309)
(-0.152374 -0.00983198 4.12617e-19 0.15011 1.63442e-18 0.00226354)
(0.00197804 -0.00265179 -1.52656e-22 -0.00207572 -7.11684e-22 9.76784e-05)
(-0.000279647 -0.00292654 -3.98793e-22 8.98101e-05 2.83058e-21 0.000189837)
(-0.000887747 -0.00213215 -1.49546e-20 0.0008631 -3.41463e-20 2.4647e-05)
(0.00316114 0.00139247 -2.0005e-20 -0.00306275 -3.89566e-20 -9.83867e-05)
(0.0617384 0.0202107 3.85811e-20 -0.062201 4.54828e-20 0.000462538)
(0.320891 0.0417708 2.41962e-19 -0.324689 1.26639e-20 0.00379856)
(0.49184 -0.0446823 2.55741e-19 -0.489932 -1.39201e-18 -0.00190839)
(0.307019 -0.138859 9.04865e-19 -0.31148 -1.41673e-18 0.00446113)
(0.107762 -0.0972184 -4.11001e-19 -0.101905 1.23945e-18 -0.00585749)
(0.0497645 -0.0596412 2.31664e-19 -0.0481754 4.05819e-19 -0.00158916)
(0.02657 -0.0370734 -3.54872e-19 -0.0264921 1.14182e-18 -7.78471e-05)
(0.0154198 -0.0264519 -5.88527e-19 -0.0154793 1.27837e-18 5.94593e-05)
(0.0096204 -0.0190828 4.71726e-19 -0.00972043 -9.64609e-19 0.000100034)
(0.00596425 -0.0139536 -1.15663e-19 -0.00589959 9.48881e-19 -6.46593e-05)
(0.00416826 -0.0104231 -2.01258e-19 -0.00415816 -1.07273e-18 -1.00996e-05)
(0.00314777 -0.00784165 -1.15061e-19 -0.00311758 -4.64118e-19 -3.01931e-05)
(0.00268195 -0.00619476 5.24062e-20 -0.00266131 2.28797e-19 -2.0637e-05)
(0.00251972 -0.00506541 1.15682e-19 -0.00251161 1.37445e-20 -8.10971e-06)
(0.00249203 -0.00442019 3.1742e-20 -0.0024836 5.44064e-20 -8.42428e-06)
(0.00256551 -0.00416492 -1.23839e-20 -0.00256922 -7.82866e-20 3.70645e-06)
(0.00265963 -0.00422983 -2.80108e-20 -0.002661 -1.99874e-19 1.37006e-06)
(0.00282975 -0.00456019 2.61139e-20 -0.00283195 -2.84381e-19 2.19592e-06)
(0.00306349 -0.00521103 2.33393e-20 -0.00307041 -1.28407e-19 6.91904e-06)
(0.00323855 -0.00617729 8.40546e-21 -0.00325079 1.19262e-19 1.22361e-05)
(0.00324836 -0.00727664 -6.9849e-20 -0.003259 7.18469e-19 1.06448e-05)
(0.00301983 -0.00833249 2.52581e-19 -0.00302915 -8.19443e-19 9.31882e-06)
(0.00244018 -0.00921365 1.83623e-19 -0.00245021 -6.30549e-19 1.00289e-05)
(0.00134709 -0.00977687 2.01439e-19 -0.00135829 1.54033e-18 1.11947e-05)
(-0.000457451 -0.00988138 -6.32835e-20 0.000445601 4.10215e-19 1.18497e-05)
(-0.00322033 -0.00943536 -5.62165e-19 0.00320461 -6.00088e-19 1.57161e-05)
(-0.00722691 -0.00836135 1.78489e-19 0.00720192 -1.08695e-18 2.49913e-05)
(-0.0127397 -0.00647456 -4.50994e-19 0.0127078 6.60174e-19 3.18629e-05)
(-0.0198902 -0.00332426 3.96718e-19 0.0198486 -5.59108e-19 4.16227e-05)
(-0.02881 0.00134436 4.52802e-19 0.0287626 -1.41749e-18 4.74369e-05)
(-0.0396252 0.00776887 4.4353e-19 0.039581 8.2397e-19 4.41523e-05)
(-0.0527794 0.0163232 4.71194e-19 0.0526519 1.77982e-18 0.000127475)
(-0.0683697 0.0280976 3.83717e-19 0.0680232 1.86416e-18 0.000346516)
(-0.0828047 0.0437282 -5.68457e-19 0.0838321 -2.31328e-18 -0.00102737)
(-0.119779 0.059921 2.68539e-20 0.115671 -7.99722e-19 0.00410824)
(-0.108163 0.13436 -1.89312e-19 0.116129 -1.63972e-18 -0.00796517)
(-0.143393 0.0637137 -4.65617e-19 0.13848 -7.89318e-19 0.00491305)
(0.00155152 -0.00196405 1.39481e-21 -0.00154177 3.33721e-21 -9.74841e-06)
(0.000430949 -0.00223736 -2.27742e-21 -0.000376501 -4.48403e-21 -5.44486e-05)
(-0.000693664 -0.00227728 1.15336e-20 0.000698384 2.33318e-20 -4.71917e-06)
(-0.000556655 -0.00111922 1.47553e-20 0.000574835 2.58123e-20 -1.81796e-05)
(0.00153921 0.000442666 -1.47284e-20 -0.00149895 -2.17878e-20 -4.02547e-05)
(0.0564407 0.014584 3.33242e-20 -0.0565722 -1.06708e-20 0.000131519)
(0.303388 0.0291239 -7.19745e-20 -0.30688 -9.17349e-21 0.00349189)
(0.551678 -0.0471864 -2.58495e-19 -0.549641 3.16645e-19 -0.00203688)
(0.450846 -0.167971 4.04838e-19 -0.456996 -1.85752e-19 0.00615006)
(0.194241 -0.155657 8.65286e-21 -0.191744 1.96069e-19 -0.00249628)
(0.0876602 -0.0982032 3.66097e-19 -0.0828852 -2.36191e-18 -0.00477496)
(0.0471541 -0.0636997 -2.6215e-19 -0.0465369 4.04237e-19 -0.000617126)
(0.0287486 -0.0459827 -2.95838e-19 -0.0291074 2.3612e-19 0.000358736)
(0.0179611 -0.0345604 3.37804e-19 -0.0180362 -2.35392e-18 7.50695e-05)
(0.0120596 -0.0275497 2.68727e-19 -0.0120943 1.34291e-19 3.47143e-05)
(0.00856701 -0.0222136 1.70954e-19 -0.00854605 1.80436e-19 -2.0953e-05)
(0.0065994 -0.0188928 -1.57742e-19 -0.00657888 6.3857e-19 -2.05198e-05)
(0.00550553 -0.0166066 -1.20338e-20 -0.00550195 1.40235e-19 -3.57635e-06)
(0.00482035 -0.015297 3.76383e-20 -0.00480703 -6.78223e-20 -1.33214e-05)
(0.00443228 -0.0147048 4.76418e-20 -0.0044333 5.05242e-20 1.02041e-06)
(0.00415578 -0.0146026 -9.18189e-21 -0.00414832 2.34678e-19 -7.46817e-06)
(0.00408561 -0.0148323 -9.0483e-20 -0.00407498 2.32421e-19 -1.06298e-05)
(0.00422915 -0.0154168 1.22885e-19 -0.00421652 1.77852e-19 -1.26275e-05)
(0.00440478 -0.0163668 1.54643e-19 -0.00439584 4.07227e-19 -8.94142e-06)
(0.00443751 -0.0174792 -1.77872e-19 -0.00443017 -9.96854e-20 -7.33624e-06)
(0.00417103 -0.0185593 -1.34218e-19 -0.00416468 2.06891e-18 -6.34312e-06)
(0.00340085 -0.0194264 8.29764e-20 -0.00339829 -3.19164e-20 -2.56594e-06)
(0.00184901 -0.0198653 -2.97086e-19 -0.00185023 -8.41637e-19 1.21138e-06)
(-0.000812358 -0.0196407 -5.08695e-19 0.000804975 -1.62379e-18 7.38297e-06)
(-0.00495746 -0.0184951 3.67723e-19 0.00494006 -6.68313e-19 1.74086e-05)
(-0.0109588 -0.0161087 1.24272e-19 0.0109256 1.77582e-18 3.3181e-05)
(-0.0191322 -0.0120952 2.64091e-19 0.0190845 -1.07267e-18 4.76999e-05)
(-0.0297297 -0.00600257 -2.3051e-19 0.029659 2.9776e-18 7.06551e-05)
(-0.0429613 0.00258701 -8.97631e-19 0.0428739 1.45944e-19 8.74088e-05)
(-0.0589564 0.0140605 -3.33665e-19 0.0588742 6.19633e-19 8.22414e-05)
(-0.0782581 0.0289493 -4.54361e-19 0.0780752 7.39861e-19 0.000182854)
(-0.100963 0.0488642 -7.06702e-20 0.100469 -3.55617e-20 0.000493749)
(-0.121566 0.075956 2.61931e-20 0.123004 7.22582e-20 -0.00143769)
(-0.165407 0.101096 -3.6777e-20 0.160432 1.59695e-18 0.00497463)
(-0.161156 0.20157 -3.5513e-20 0.171369 -1.09915e-18 -0.0102134)
(-0.149856 0.141304 6.16909e-19 0.142468 -7.03782e-19 0.00738873)
(0.00118412 -0.00136197 -1.39035e-21 -0.00119306 -2.35414e-21 8.93925e-06)
(0.000451419 -0.00159546 7.11188e-21 -0.00043553 1.15635e-20 -1.58887e-05)
(-0.000188022 -0.00160525 -3.60526e-21 0.000198312 -7.84524e-21 -1.02903e-05)
(-0.000790784 -0.00158112 -3.30241e-21 0.000782515 -8.79505e-21 8.2692e-06)
(-0.000426909 -0.000660384 2.09092e-21 0.000429708 5.01141e-21 -2.79925e-06)
(0.000672891 7.05875e-05 -1.83448e-21 -0.000652227 -1.80475e-21 -2.06633e-05)
(0.0382027 0.00750446 -2.39841e-20 -0.0381078 -2.4599e-20 -9.48653e-05)
(0.242001 0.0171694 -7.75694e-20 -0.243932 9.51359e-20 0.00193117)
(0.554005 -0.0453692 -1.62829e-19 -0.55441 -1.56105e-19 0.000405531)
(0.58246 -0.177735 -3.74342e-19 -0.585443 -9.6378e-19 0.00298291)
(0.332823 -0.223402 3.68436e-19 -0.339131 5.37713e-19 0.00630821)
(0.145586 -0.151187 6.04781e-19 -0.138067 -8.2521e-19 -0.00751928)
(0.0779123 -0.103 -8.14862e-19 -0.0751873 6.34698e-19 -0.00272495)
(0.0470827 -0.0719069 3.48578e-19 -0.046997 1.0923e-18 -8.57167e-05)
(0.029793 -0.0558314 2.4747e-20 -0.0301592 4.81986e-19 0.000366158)
(0.0198782 -0.0444366 -2.32656e-19 -0.0200163 -8.64434e-20 0.000138112)
(0.0140909 -0.0376122 1.61576e-19 -0.0140688 -9.05239e-19 -2.21623e-05)
(0.0107882 -0.0328924 -3.50499e-20 -0.0107854 5.88712e-19 -2.77649e-06)
(0.00867783 -0.0300204 7.02201e-20 -0.00865862 -1.1187e-19 -1.9211e-05)
(0.00741758 -0.0285277 4.74521e-20 -0.00743048 2.04895e-19 1.28991e-05)
(0.00655635 -0.0279152 -6.27948e-20 -0.00655574 -2.95396e-19 -6.09869e-07)
(0.00617648 -0.0278589 2.93726e-20 -0.00617763 1.19854e-20 1.14412e-06)
(0.00623397 -0.0283103 1.51801e-20 -0.00623046 1.02188e-19 -3.51908e-06)
(0.00644775 -0.0292879 -2.97507e-19 -0.00644458 -3.43752e-19 -3.17394e-06)
(0.00655546 -0.030533 3.19606e-19 -0.00655025 -8.09282e-19 -5.20992e-06)
(0.00630215 -0.0317919 4.84459e-20 -0.00629386 -4.33673e-19 -8.2828e-06)
(0.00537705 -0.0327857 -5.40285e-19 -0.00536978 -4.34634e-19 -7.26917e-06)
(0.0033717 -0.0331605 4.91448e-20 -0.00336483 -9.80589e-19 -6.87215e-06)
(-0.000183427 -0.0325059 8.518e-19 0.00018474 -1.19762e-19 -1.31367e-06)
(-0.00580421 -0.0303644 3.41574e-19 0.0057927 1.43448e-18 1.15105e-05)
(-0.0139924 -0.0261944 -4.14026e-19 0.0139597 -7.82877e-19 3.27311e-05)
(-0.0251734 -0.0194351 -4.97203e-19 0.0251234 6.39882e-19 4.99651e-05)
(-0.0396984 -0.00951197 -2.1765e-19 0.0396184 -3.1676e-18 8.0018e-05)
(-0.0578262 0.00419742 7.738e-19 0.0577201 -1.96873e-18 0.000106098)
(-0.0796279 0.0222768 6.22454e-19 0.0795268 -1.79042e-18 0.000101037)
(-0.105579 0.0454058 -1.2994e-19 0.105349 -6.35441e-20 0.000230048)
(-0.135543 0.0756655 1.37221e-19 0.134938 1.43612e-18 0.000604652)
(-0.162418 0.116698 5.11969e-20 0.16409 -8.10112e-19 -0.00167249)
(-0.20845 0.153986 -2.2582e-19 0.203032 7.41057e-19 0.00541833)
(-0.21609 0.269208 -5.32425e-19 0.226849 1.73543e-18 -0.0107584)
(-0.175284 0.229867 -5.37569e-19 0.167798 -8.58855e-19 0.00748611)
(0.0009148 -0.000927233 -3.35047e-22 -0.000920343 -6.14656e-22 5.54275e-06)
(0.000454129 -0.00115997 7.78303e-22 -0.000454154 9.12436e-22 2.49332e-08)
(2.65884e-05 -0.0011721 -3.70123e-21 -2.44915e-05 -4.91189e-21 -2.0969e-06)
(-0.00038353 -0.00117204 -5.67096e-21 0.000387557 -7.0709e-21 -4.02716e-06)
(-0.000721805 -0.00107741 -2.03481e-21 0.000717897 -2.36353e-21 3.90889e-06)
(-0.000400593 -0.00048175 5.02529e-21 0.000399205 6.92557e-21 1.38763e-06)
(0.000266575 -8.3294e-05 -1.3918e-21 -0.000255904 -2.10088e-21 -1.06708e-05)
(0.0171951 0.00226637 1.87498e-20 -0.0170855 2.05718e-20 -0.000109638)
(0.161789 0.00759262 2.36359e-19 -0.16237 2.2646e-19 0.000580878)
(0.476993 -0.0387235 -1.67812e-19 -0.479179 3.73633e-19 0.00218565)
(0.661935 -0.162379 -2.49351e-19 -0.66015 6.4634e-19 -0.00178438)
(0.507105 -0.272214 2.70502e-19 -0.51698 -1.05772e-18 0.00987474)
(0.251197 -0.234227 4.47874e-19 -0.251139 1.30912e-18 -5.78342e-05)
(0.123292 -0.154086 -7.95426e-19 -0.115639 -2.91646e-19 -0.00765331)
(0.0722151 -0.109805 3.31429e-19 -0.0706599 -1.35453e-18 -0.00155521)
(0.0466695 -0.0832929 -2.23269e-19 -0.047003 7.78739e-19 0.000333512)
(0.0307863 -0.0678107 1.33408e-19 -0.0310872 7.64683e-19 0.000300986)
(0.021518 -0.0573231 1.62193e-19 -0.0216753 3.92855e-19 0.000157295)
(0.0158201 -0.0508196 -8.37983e-20 -0.0157901 3.46588e-19 -3.00031e-05)
(0.0125306 -0.0472119 9.77974e-21 -0.0125345 -1.00358e-18 3.91989e-06)
(0.010445 -0.0454226 2.13277e-20 -0.0104207 4.28055e-19 -2.42157e-05)
(0.00948544 -0.0448077 -1.31092e-19 -0.00947904 -8.56067e-21 -6.40812e-06)
(0.00938031 -0.0450957 1.20886e-19 -0.00937296 -4.81754e-19 -7.35148e-06)
(0.00965364 -0.0462237 2.06614e-19 -0.00965087 -7.13347e-20 -2.76593e-06)
(0.009918 -0.0477947 -1.7756e-19 -0.00991482 1.04104e-18 -3.17842e-06)
(0.00979236 -0.0494375 -3.2714e-19 -0.00978575 -9.14828e-19 -6.6165e-06)
(0.00884406 -0.0507301 4.11144e-19 -0.00883688 -5.46284e-19 -7.1821e-06)
(0.00652448 -0.0511284 2.12437e-19 -0.00651533 1.65041e-18 -9.14682e-06)
(0.00219855 -0.0499855 1.44986e-19 -0.0021929 1.80749e-18 -5.64423e-06)
(-0.00481248 -0.0466143 -2.03901e-19 0.00480424 -3.28226e-19 8.24179e-06)
(-0.0151716 -0.0402198 -2.07007e-20 0.0151369 -1.19199e-18 3.47923e-05)
(-0.0294298 -0.0300104 -4.04604e-19 0.0293731 -3.57641e-19 5.66385e-05)
(-0.0480176 -0.0152237 -1.92847e-19 0.0479268 1.49154e-18 9.08456e-05)
(-0.0711937 0.00498788 9.33693e-20 0.0710685 2.28664e-18 0.000125209)
(-0.0988866 0.031414 1.3332e-18 0.0987683 7.60205e-19 0.000118306)
(-0.131268 0.0648065 2.32015e-19 0.130996 -8.46024e-19 0.000271641)
(-0.167661 0.107465 -1.54258e-18 0.167045 -7.42651e-19 0.00061531)
(-0.200101 0.163533 3.12885e-21 0.201749 -2.09999e-19 -0.00164794)
(-0.244756 0.215809 -4.83044e-21 0.239643 -1.84976e-18 0.00511312)
(-0.264472 0.336078 -1.30883e-19 0.274246 5.884e-19 -0.00977465)
(-0.209872 0.32614 4.0254e-19 0.204882 1.5351e-18 0.00498963)
(0.000693934 -0.000647948 -6.91296e-23 -0.000699736 -1.3714e-23 5.802e-06)
(0.000421899 -0.000829301 -1.41994e-21 -0.000420694 -1.92604e-21 -1.20565e-06)
(0.000133314 -0.000906145 1.37521e-21 -0.000131672 1.85538e-21 -1.64287e-06)
(-0.000140361 -0.000869039 6.3477e-21 0.000143713 8.47091e-21 -3.3519e-06)
(-0.000414734 -0.000840885 1.19586e-21 0.000419929 1.65828e-21 -5.1957e-06)
(-0.00063861 -0.00077277 1.08532e-21 0.000637694 5.60677e-22 9.16758e-07)
(-0.000382643 -0.000375294 -7.65637e-21 0.00037972 -8.4021e-21 2.92302e-06)
(5.56426e-06 -0.000162329 -3.52525e-22 -1.46654e-06 -2.39858e-22 -4.09772e-06)
(0.00438639 0.000168466 -9.67395e-21 -0.00433854 -1.38535e-20 -4.78473e-05)
(0.0867289 0.0015708 1.68784e-19 -0.086687 1.89305e-19 -4.19008e-05)
(0.341319 -0.027381 -2.76316e-19 -0.342746 -6.66052e-19 0.00142746)
(0.642292 -0.135373 -1.12863e-19 -0.641943 8.28904e-19 -0.000349279)
(0.662459 -0.275842 1.61786e-19 -0.665581 -1.02518e-18 0.00312149)
(0.420163 -0.320495 -3.56138e-19 -0.430501 -3.9296e-19 0.0103385)
(0.205085 -0.236971 9.2984e-19 -0.199918 -2.46405e-19 -0.00516715)
(0.110205 -0.162599 3.89785e-19 -0.103772 8.31936e-19 -0.00643337)
(0.0690901 -0.120951 -3.43902e-19 -0.0681998 5.14982e-19 -0.000890249)
(0.0461859 -0.0975282 -3.84076e-19 -0.0467729 4.4512e-19 0.000587053)
(0.0315426 -0.083167 -6.13473e-19 -0.0318604 -3.66521e-20 0.000317788)
(0.0226886 -0.0743299 4.70743e-19 -0.0228501 -6.12276e-19 0.000161578)
(0.0173244 -0.0694491 2.01927e-19 -0.01728 8.47627e-19 -4.44107e-05)
(0.0148222 -0.0674288 -3.5469e-19 -0.0147864 -2.06254e-19 -3.58234e-05)
(0.01416 -0.0671969 1.21567e-19 -0.0141192 3.55231e-19 -4.08276e-05)
(0.014408 -0.0684654 9.28039e-20 -0.0143775 2.36289e-19 -3.0412e-05)
(0.0149331 -0.0705487 1.66693e-20 -0.0149112 -3.77956e-19 -2.19206e-05)
(0.0151519 -0.0728598 -2.3887e-20 -0.015133 5.32845e-19 -1.88384e-05)
(0.0144727 -0.0747534 3.37125e-19 -0.0144627 1.38471e-18 -1.00313e-05)
(0.0121864 -0.0754187 3.10545e-19 -0.0121818 -5.48673e-19 -4.62264e-06)
(0.00746972 -0.0738596 -4.52187e-19 -0.00746992 3.96717e-20 2.02145e-07)
(-0.000525937 -0.0691292 -9.91939e-19 0.000514185 -1.14963e-18 1.17525e-05)
(-0.0126345 -0.0601283 2.49199e-19 0.0125924 7.24396e-20 4.20848e-05)
(-0.0295354 -0.0457548 5.66647e-19 0.0294652 -1.05614e-18 7.01833e-05)
(-0.0517126 -0.0250292 6.30564e-19 0.0516046 3.29909e-19 0.000107942)
(-0.0793583 0.00310234 -4.19051e-19 0.0792097 -1.76304e-19 0.000148588)
(-0.112152 0.0395668 -7.60799e-19 0.112004 1.51381e-18 0.000147613)
(-0.149722 0.0850334 -6.10346e-19 0.149408 -1.42343e-18 0.000314138)
(-0.190587 0.141528 9.42058e-19 0.190028 -2.12536e-19 0.000559215)
(-0.226824 0.212296 4.63398e-20 0.228144 3.56118e-19 -0.00131977)
(-0.267635 0.281117 1.87987e-19 0.263629 -3.50099e-19 0.00400599)
(-0.294637 0.398272 -1.01947e-19 0.301515 -8.2484e-19 -0.00687758)
(-0.240631 0.418976 -4.39076e-19 0.240206 5.29146e-19 0.000425815)
(0.000529087 -0.000460052 -2.22848e-22 -0.000533128 -7.47852e-23 4.0411e-06)
(0.000357904 -0.000593079 -1.19379e-21 -0.00035718 -1.85149e-21 -7.2349e-07)
(0.000176507 -0.000670951 4.98991e-21 -0.000176097 5.66257e-21 -4.10542e-07)
(-1.58289e-05 -0.00068755 -6.69886e-22 1.57799e-05 -8.51896e-22 4.90291e-08)
(-0.000195427 -0.000632455 1.78184e-21 0.000197041 1.64955e-21 -1.61455e-06)
(-0.000391933 -0.000612546 -1.604e-21 0.000396255 -1.456e-21 -4.32153e-06)
(-0.0005131 -0.000520807 3.94769e-21 0.000514313 5.27318e-21 -1.21292e-06)
(-0.000360895 -0.000297474 3.10261e-21 0.000358561 2.58697e-21 2.33427e-06)
(-0.000161895 -0.000192268 5.11645e-23 0.000161987 9.44493e-22 -9.24583e-08)
(0.000361248 -6.30215e-05 4.11942e-21 -0.000355774 3.63733e-21 -5.47342e-06)
(0.0325644 -0.000809645 -4.39389e-21 -0.0324226 5.28233e-21 -0.000141868)
(0.194338 -0.0168328 -3.12123e-19 -0.19462 -2.09922e-19 0.00028222)
(0.505764 -0.0960763 1.90665e-19 -0.506881 -3.83127e-19 0.00111684)
(0.720864 -0.240415 -4.62693e-19 -0.719329 9.211e-19 -0.001535)
(0.616496 -0.361838 -2.7941e-19 -0.625035 -9.23657e-19 0.0085395)
(0.355822 -0.346646 5.3796e-19 -0.36358 7.22826e-19 0.00775852)
(0.179357 -0.24609 3.39468e-19 -0.171728 -1.54731e-18 -0.00762881)
(0.102443 -0.176172 1.79047e-19 -0.0967584 5.78595e-19 -0.00568409)
(0.0671872 -0.137355 -7.40796e-19 -0.0666846 -1.1333e-18 -0.000502612)
(0.045644 -0.116352 2.95537e-19 -0.0463865 1.19612e-18 0.000742562)
(0.0318833 -0.104557 8.03695e-20 -0.0322347 -8.81046e-19 0.000351387)
(0.0246868 -0.0989362 -3.29167e-19 -0.0248157 4.33268e-19 0.000128885)
(0.0218553 -0.0971074 2.45049e-19 -0.021807 4.6733e-21 -4.82652e-05)
(0.0214075 -0.0980892 -3.69349e-20 -0.0213272 2.67665e-20 -8.02541e-05)
(0.0220917 -0.100665 -8.93274e-20 -0.0220256 7.40477e-19 -6.6148e-05)
(0.0228884 -0.103756 1.12943e-19 -0.0228273 -1.76733e-19 -6.10341e-05)
(0.0229481 -0.106423 -7.61864e-19 -0.0228991 6.44995e-21 -4.89994e-05)
(0.0213588 -0.107591 -3.79602e-19 -0.0213238 1.91268e-19 -3.49913e-05)
(0.0170844 -0.105919 -1.96022e-19 -0.0170699 -1.22509e-18 -1.4546e-05)
(0.00907404 -0.0999714 9.4669e-19 -0.00909342 1.00586e-19 1.93815e-05)
(-0.00367013 -0.0882436 1.62596e-19 0.00360053 8.20244e-19 6.96033e-05)
(-0.0219586 -0.0692302 2.8912e-19 0.0218456 9.0448e-19 0.000113015)
(-0.0463074 -0.0417082 -5.99421e-19 0.0461599 2.67873e-19 0.000147414)
(-0.076758 -0.00452896 4.85977e-19 0.0765703 -1.19124e-18 0.000187739)
(-0.112657 0.0432099 2.82211e-19 0.112464 -1.41159e-19 0.000192663)
(-0.15292 0.101838 1.00591e-18 0.152571 3.1621e-19 0.000348829)
(-0.19519 0.172433 -1.44405e-18 0.194712 4.40282e-19 0.000478745)
(-0.232242 0.256221 -1.68168e-19 0.233104 1.20625e-19 -0.000861977)
(-0.267433 0.33971 2.9479e-19 0.265028 4.49265e-19 0.002405)
(-0.295841 0.44881 4.27662e-19 0.29871 1.59771e-20 -0.00286893)
(-0.254595 0.493313 1.49015e-19 0.259148 -1.17671e-18 -0.00455265)
(0.000402245 -0.000330532 -8.76564e-22 -0.000405127 -1.017e-21 2.88234e-06)
(0.00029101 -0.000427242 3.54962e-21 -0.000291066 3.69957e-21 5.56478e-08)
(0.000174539 -0.000490479 -8.3208e-22 -0.000174521 -7.33411e-22 -1.75809e-08)
(4.78509e-05 -0.000523868 -6.53091e-21 -4.79708e-05 -6.87272e-21 1.19861e-07)
(-8.21733e-05 -0.000515466 -6.15045e-22 8.19757e-05 -8.20261e-22 1.97554e-07)
(-0.000200924 -0.000464248 6.45561e-21 0.000201719 6.88822e-21 -7.94615e-07)
(-0.000337317 -0.000437239 -1.65125e-21 0.000340285 -2.17437e-21 -2.96828e-06)
(-0.000400529 -0.000348456 -1.45919e-20 0.000402638 -1.44653e-20 -2.1086e-06)
(-0.000326693 -0.000228972 1.0457e-20 0.000325723 1.00741e-20 9.70501e-07)
(-0.00023471 -0.000175024 5.23657e-22 0.000232985 -5.04082e-22 1.72522e-06)
(0.000167655 -0.00033445 -1.40799e-21 -0.000161896 -2.32076e-21 -5.75967e-06)
(0.00806744 -0.000934068 -9.96456e-21 -0.00800091 -5.62335e-21 -6.65296e-05)
(0.0843532 -0.00903425 -1.85633e-19 -0.0842075 -1.22008e-19 -0.000145626)
(0.313946 -0.0566353 1.70167e-19 -0.3145 -1.29038e-19 0.000553847)
(0.624256 -0.179391 -6.38595e-19 -0.624095 6.44441e-19 -0.000161714)
(0.74319 -0.335277 6.01958e-19 -0.742801 -3.8794e-19 -0.000389214)
(0.567757 -0.42392 -5.00446e-19 -0.579323 7.54945e-19 0.0115657)
(0.317177 -0.371022 -1.09255e-19 -0.322555 -2.06371e-19 0.00537769)
(0.165482 -0.265142 -2.44498e-19 -0.156959 -3.57036e-19 -0.00852284)
(0.0977075 -0.197209 2.87483e-19 -0.0920825 -1.03133e-18 -0.005625)
(0.0654225 -0.161966 4.54561e-19 -0.0649797 3.36221e-19 -0.00044289)
(0.0468264 -0.145623 -2.39092e-19 -0.0476895 -1.00633e-18 0.00086305)
(0.0371107 -0.138863 -2.33686e-19 -0.0376422 4.5278e-19 0.000531489)
(0.0330809 -0.13787 7.02906e-19 -0.0332731 -5.87556e-19 0.00019217)
(0.0324903 -0.140366 -4.04179e-19 -0.0324589 4.98843e-20 -3.13639e-05)
(0.0335921 -0.144552 -5.74234e-19 -0.0334542 -3.69893e-19 -0.000137877)
(0.0349105 -0.148687 9.99095e-19 -0.034769 -1.42326e-18 -0.000141549)
(0.0350097 -0.150863 -1.28608e-20 -0.0348978 1.07507e-18 -0.00011192)
(0.032506 -0.149253 -2.29817e-21 -0.0324302 -6.5581e-20 -7.58167e-05)
(0.0261737 -0.142147 -5.95615e-19 -0.0261377 1.05984e-18 -3.60094e-05)
(0.0148846 -0.127734 6.01318e-20 -0.0149041 -6.38857e-19 1.95427e-05)
(-0.00233889 -0.104006 -8.42865e-21 0.00223692 3.26851e-19 0.000101967)
(-0.026072 -0.0693763 -6.81583e-19 0.0258834 -5.76405e-19 0.000188624)
(-0.0561995 -0.0227233 3.66272e-19 0.055922 1.71072e-18 0.000277489)
(-0.0917094 0.0365919 -5.11844e-19 0.0913974 2.75528e-19 0.000311994)
(-0.130828 0.108214 -4.88466e-19 0.130382 3.50603e-21 0.000446833)
(-0.170485 0.19157 6.75652e-19 0.16999 -1.82246e-18 0.000494572)
(-0.204506 0.285429 -4.51516e-20 0.204939 7.41327e-19 -0.000433497)