/*--------------------------------*- C++ -*----------------------------------*\
| =========                 |                                                 |
| \\      /  F ield         | OpenFOAM: The Open Source CFD Toolbox           |
|  \\    /   O peration     | Version:  2312                                  |
|   \\  /    A nd           | Website:  www.openfoam.com                      |
|    \\/     M anipulation  |                                                 |
\*---------------------------------------------------------------------------*/
FoamFile
{
    version     2.0;
    format      ascii;
    arch        "LSB;label=32;scalar=64";
    class       volSymmTensorField;
    location    "550";
    object      turbulenceProperties:R;
}
// * * * * * * * * * * * * * * * * * * * * * * * * * * * * * * * * * * * * * //

dimensions      [0 2 -2 0 0 0 0];

internalField   nonuniform List<symmTensor> 
11040
(
(0.281 0.0741572 -1.22007e-22 0.244587 9.06529e-21 0.274494)
(0.353155 0.0742907 8.10459e-21 0.227394 1.14154e-19 0.306842)
(0.0571682 0.00621895 -1.80992e-20 0.0420239 5.80536e-20 0.0482404)
(0.0260633 0.00850418 -5.6574e-20 0.033681 3.3053e-20 0.0292402)
(0.115533 0.0450568 -2.16284e-20 0.243522 1.88856e-19 0.179339)
(0.129225 0.0563578 -2.91189e-19 0.248175 1.06056e-19 0.187618)
(0.128737 0.0589442 1.66188e-19 0.228899 -1.09381e-18 0.178394)
(0.122653 0.0572525 2.31034e-19 0.204122 -1.59947e-19 0.163153)
(0.114748 0.0536685 9.88558e-20 0.179157 -2.87412e-20 0.146794)
(0.110417 0.0515055 9.17958e-20 0.162891 1.4602e-19 0.13663)
(0.10547 0.0486802 -8.10598e-20 0.14801 3.4589e-19 0.126703)
(0.100997 0.0459741 -1.21051e-19 0.135198 2.59254e-19 0.118111)
(0.0973096 0.0435623 1.98349e-20 0.1246 -1.48326e-19 0.111009)
(0.0944534 0.0415454 2.48105e-20 0.116082 1.4419e-19 0.105326)
(0.0922739 0.0398291 -1.12142e-20 0.108984 1.09428e-20 0.100722)
(0.0916465 0.0388926 -4.48554e-21 0.104291 -1.84912e-19 0.0980738)
(0.0926754 0.0387719 5.09541e-20 0.101757 -7.84791e-22 0.0973445)
(0.0957561 0.0396197 -4.83445e-21 0.101557 3.35219e-19 0.098806)
(0.100762 0.0413098 -2.90099e-20 0.103281 2.91241e-21 0.102193)
(0.107697 0.0437814 4.65467e-21 0.106712 -4.9048e-20 0.107402)
(0.116853 0.047109 2.22821e-20 0.111934 3.7808e-20 0.114605)
(0.12794 0.0512069 -2.43393e-20 0.118861 1.14915e-19 0.123617)
(0.140865 0.0560984 6.94746e-22 0.127643 -9.53745e-20 0.134492)
(0.156063 0.0618714 1.28931e-20 0.138325 2.44798e-19 0.147452)
(0.173938 0.0686543 -7.47271e-20 0.15107 -2.21679e-19 0.162759)
(0.195199 0.0767584 -3.99326e-20 0.16643 -5.20529e-19 0.181053)
(0.218498 0.0855857 1.11072e-20 0.18322 -2.43467e-19 0.201061)
(0.241248 0.0940667 3.27318e-20 0.199328 6.93277e-20 0.220429)
(0.261554 0.101484 -2.20742e-20 0.21332 -2.00461e-19 0.237486)
(0.277049 0.106967 1.35488e-20 0.223467 -4.68979e-19 0.250189)
(0.285376 0.109665 1.19404e-19 0.228057 3.37831e-19 0.256526)
(0.284653 0.108873 1.91115e-20 0.22565 -2.773e-20 0.254844)
(0.275861 0.105072 1.03185e-19 0.217216 9.55775e-19 0.246103)
(0.26389 0.10034 -9.17167e-20 0.206886 5.92496e-19 0.234784)
(0.250973 0.0956686 4.48478e-20 0.196754 1.06121e-20 0.222954)
(0.196842 0.0753475 1.25426e-19 0.155779 9.01345e-19 0.175205)
(0.103857 0.0396715 7.09233e-21 0.0847735 1.72883e-19 0.0934153)
(0.062743 0.0252524 -4.18725e-20 0.0555716 4.94105e-19 0.0578662)
(0.0217481 0.0104352 -4.22892e-19 0.0310101 -1.08811e-18 0.0256029)
(0.0491273 -0.0234895 -9.38415e-21 0.0771145 -9.5488e-19 0.0607476)
(0.0785921 -0.0113065 2.03554e-19 0.192529 5.46782e-20 0.125494)
(0.0240413 -0.00175257 1.70323e-22 0.0211513 -4.99188e-22 0.0218834)
(0.0590638 0.00103125 2.04107e-20 0.0381332 3.91063e-21 0.0406876)
(0.200396 0.0270169 4.67035e-20 0.110457 -2.57233e-19 0.157233)
(0.390074 0.0296706 7.15664e-20 0.16362 -1.63623e-19 0.278119)
(0.791318 -0.0206141 8.09935e-20 0.301921 -4.86757e-19 0.54571)
(0.259371 -0.0496034 5.64224e-19 0.120476 -1.20284e-18 0.18965)
(0.077482 -0.0194881 -8.18577e-19 0.0415169 3.20659e-18 0.0582327)
(0.0258283 -0.00812674 -8.23543e-19 0.0161102 2.12819e-18 0.021348)
(0.00681133 -0.00266543 -7.39222e-20 0.00536827 -1.52495e-19 0.00638303)
(0.00187891 0.000862914 -1.02446e-19 0.00375809 3.98258e-20 0.00309476)
(0.00630858 0.00314785 4.53666e-19 0.010312 -1.14053e-18 0.00836441)
(0.00915912 0.00457263 -5.38964e-22 0.0137394 -7.24869e-20 0.0113946)
(0.0113522 0.00562654 -1.62896e-19 0.0156935 6.68329e-19 0.0134574)
(0.0129621 0.00634363 -1.09788e-19 0.017 3.33223e-20 0.0148287)
(0.0142357 0.00685584 -4.38771e-20 0.0176153 -1.6816e-19 0.0157503)
(0.0154345 0.00729998 1.04855e-20 0.0181386 5.74397e-19 0.0165693)
(0.0168034 0.00779622 -1.37302e-20 0.0187989 1.91584e-19 0.0175485)
(0.0184772 0.00840604 -8.30385e-21 0.0197279 -5.34104e-19 0.0188146)
(0.0202718 0.00904016 -2.28892e-20 0.0207164 -2.47197e-20 0.0201653)
(0.0221735 0.00968015 -7.1773e-21 0.0216949 8.00243e-20 0.0215744)
(0.0242169 0.0103325 -1.07376e-20 0.022679 -1.56068e-20 0.0230675)
(0.0264115 0.011011 2.97788e-20 0.0237363 -2.70089e-19 0.0246732)
(0.028216 0.0115253 2.37137e-20 0.0245185 3.78845e-19 0.025934)
(0.0291193 0.0116735 -4.53232e-20 0.0245715 -3.4526e-19 0.0264025)
(0.0290343 0.0114429 -6.04006e-21 0.0238678 2.81104e-19 0.0260327)
(0.0286102 0.0111149 7.3273e-20 0.0229883 9.11556e-19 0.0254293)
(0.0276462 0.0106241 1.37275e-19 0.0218106 5.04603e-19 0.0244334)
(0.0255461 0.00976728 -3.35423e-20 0.0199333 1.41601e-19 0.0225718)
(0.0222871 0.00857126 -9.07743e-20 0.0174246 2.80697e-19 0.0198791)
(0.0182258 0.0071945 4.43734e-20 0.0146466 4.99024e-19 0.0167087)
(0.0143068 0.00599744 -1.09749e-19 0.0124596 -7.61367e-19 0.013925)
(0.0117178 0.00542104 -5.38032e-20 0.0121573 -1.24229e-18 0.0127704)
(0.00969321 0.00490427 -1.25636e-19 0.013528 -2.59153e-18 0.0127849)
(0.00942409 0.0045258 7.04263e-20 0.0177262 -1.2853e-18 0.0151499)
(0.0110842 0.00428985 -9.15209e-20 0.0249155 1.1972e-19 0.0201494)
(0.0142959 0.00430126 -4.24284e-19 0.0346956 -3.88871e-18 0.0274837)
(0.0189765 0.00504131 -6.83791e-20 0.047171 -3.40421e-19 0.0368857)
(0.0251741 0.00652138 -4.82125e-19 0.063216 -2.26734e-18 0.0475138)
(0.0405229 0.0095032 1.21151e-18 0.102902 5.25857e-18 0.0780242)
(0.050537 0.0218924 8.2966e-19 0.102153 4.89507e-18 0.07367)
(0.259277 -0.122162 -3.77813e-19 0.452408 -6.5811e-19 0.425414)
(0.0145843 -0.00148381 -1.8972e-22 0.0129632 -2.75187e-22 0.0139166)
(0.0121541 -0.00191697 -4.89965e-21 0.0126294 -1.24493e-20 0.0122912)
(0.0330749 0.0034217 1.58581e-20 0.0207368 7.7499e-20 0.0263186)
(0.150864 0.0155763 5.15331e-20 0.0772937 7.89683e-20 0.11494)
(0.891563 0.0466928 -7.84185e-21 0.344272 -3.69351e-20 0.62156)
(1.22839 -0.0345623 -2.96772e-19 0.468776 1.17872e-18 0.846105)
(0.630457 -0.0988275 2.97385e-20 0.274635 1.70997e-20 0.45189)
(0.22797 -0.0553308 9.75441e-20 0.120056 -2.47578e-18 0.168562)
(0.103624 -0.0294688 -1.70452e-19 0.0599462 2.62873e-20 0.0810614)
(0.0609675 -0.0182756 2.41497e-19 0.03655 -7.04729e-19 0.0490623)
(0.033738 -0.0109709 -4.44771e-19 0.0217642 1.04732e-18 0.0278536)
(0.019002 -0.0066678 7.68124e-19 0.0132787 -2.09963e-18 0.0161159)
(0.00944547 -0.0033119 -3.82876e-20 0.00656727 -6.97967e-20 0.00808095)
(0.0031834 -0.00104237 1.54162e-19 0.0020734 -9.18391e-19 0.00262195)
(0.0018696 0.000592485 2.55681e-20 0.0011674 9.60336e-19 0.00157273)
(0.00436036 0.00178508 -7.8909e-20 0.00369437 -3.67258e-19 0.00406691)
(0.00637131 0.00259983 -3.61881e-21 0.00537774 -6.19122e-19 0.00592091)
(0.00796429 0.00315909 4.19662e-20 0.00645743 -4.43171e-19 0.00726133)
(0.00923951 0.00353832 1.9712e-20 0.00715214 -2.523e-20 0.00823874)
(0.010245 0.00374778 2.62025e-20 0.00749559 2.80318e-20 0.00891269)
(0.0110188 0.00381225 3.30541e-21 0.007575 8.5049e-20 0.00933402)
(0.0115778 0.00370745 -4.4162e-20 0.00736685 1.36019e-19 0.00951815)
(0.0116144 0.00331306 -3.78361e-20 0.00670359 -4.46412e-19 0.00920717)
(0.0109879 0.00258962 -3.98178e-20 0.00560355 -1.78874e-19 0.00833735)
(0.00986952 0.00164138 8.28012e-20 0.00436646 -2.81222e-19 0.0071404)
(0.00855274 0.000610108 -1.34259e-20 0.00334423 -2.61316e-19 0.0059455)
(0.00716686 -0.000386162 -2.28119e-19 0.00277547 2.67465e-19 0.00492964)
(0.00568871 -0.00120971 -7.96266e-20 0.00278597 -1.08188e-18 0.00414179)
(0.00415101 -0.00167002 1.93055e-19 0.00354051 2.6676e-19 0.00368189)
(0.00348718 -0.00165469 2.63406e-19 0.00612705 1.12155e-18 0.0045803)
(0.00501953 -0.00129463 -1.8673e-19 0.0122316 6.31472e-19 0.00835754)
(0.00870638 -0.000967857 4.3214e-19 0.0225179 2.60513e-18 0.0153122)
(0.0138325 -4.80212e-05 1.81798e-19 0.036277 8.06535e-19 0.0247415)
(0.0204964 0.00163468 -3.97487e-19 0.053588 9.02131e-19 0.0367792)
(0.0289305 0.00420983 -4.75655e-19 0.0748112 -9.4756e-19 0.0517575)
(0.0395566 0.00794056 3.1964e-19 0.100735 1.97616e-18 0.0704112)
(0.0529779 0.0134629 2.95483e-19 0.13199 -2.0694e-18 0.0933459)
(0.0687723 0.0206162 5.24601e-19 0.166066 1.87703e-18 0.117403)
(0.0997605 0.0296848 -4.2246e-19 0.244036 -9.30337e-19 0.177686)
(0.153494 0.0715179 2.05831e-20 0.284039 -4.98243e-19 0.210394)
(0.183974 -0.00980314 4.11407e-19 0.485572 1.62963e-18 0.338158)
(0.0107248 -0.00104307 -6.00467e-23 0.00913027 -2.79939e-22 0.00998517)
(0.00836898 -0.00099424 -1.35483e-22 0.0084945 9.61638e-22 0.00852848)
(0.00666155 -0.00109763 -7.69861e-21 0.00756289 -1.75785e-20 0.00713125)
(0.0122056 0.000731694 -1.05119e-20 0.00893516 -2.04703e-20 0.0104928)
(0.201855 0.018811 3.59091e-20 0.0864994 4.23329e-20 0.144823)
(1.02751 0.0410651 2.37874e-19 0.392833 1.24499e-20 0.715771)
(1.57509 -0.0443373 2.53767e-19 0.600901 -1.38126e-18 1.08516)
(1.05433 -0.138048 8.9958e-19 0.439442 -1.40846e-18 0.753537)
(0.423712 -0.096675 -4.08704e-19 0.215218 1.23252e-18 0.310728)
(0.220046 -0.0592919 2.30307e-19 0.12268 4.03442e-19 0.168993)
(0.127067 -0.0368363 -3.52603e-19 0.0743445 1.13452e-18 0.10059)
(0.0829268 -0.0262706 -5.84493e-19 0.0522395 1.26961e-18 0.0676717)
(0.0567445 -0.0189418 4.68241e-19 0.0375465 -9.57483e-19 0.0472944)
(0.0393511 -0.013844 -1.14755e-19 0.0275805 9.4143e-19 0.0333696)
(0.0288704 -0.010336 -1.99577e-19 0.0206135 -1.06377e-18 0.0247269)
(0.0217228 -0.00777245 -1.14046e-19 0.0155127 -4.60022e-19 0.0185728)
(0.017514 -0.00613773 5.19237e-20 0.01222 2.26691e-19 0.0148363)
(0.0149469 -0.00501714 1.1458e-19 0.00996346 1.36136e-20 0.0124431)
(0.0136323 -0.00437719 3.14332e-20 0.00870505 5.38771e-20 0.0111561)
(0.0133088 -0.00412411 -1.22625e-20 0.00822444 -7.75194e-20 0.0107721)
(0.0136324 -0.00418868 -2.77383e-20 0.00836351 -1.97929e-19 0.011)
(0.0146197 -0.00451691 2.5866e-20 0.00901178 -2.81682e-19 0.011819)
(0.0163528 -0.00516365 2.31271e-20 0.0102746 -1.2724e-19 0.013324)
(0.0185863 -0.00612441 8.3335e-21 0.0121525 1.18241e-19 0.0153876)
(0.020797 -0.00721877 -6.92935e-20 0.0143414 7.12755e-19 0.0175851)
(0.0225542 -0.00827152 2.50733e-19 0.0165495 -8.13447e-19 0.0195657)
(0.0234673 -0.00915202 1.82395e-19 0.0186096 -6.26331e-19 0.0210534)
(0.0231398 -0.00971729 2.00211e-19 0.0204509 1.53094e-18 0.021812)
(0.0214057 -0.0098266 -6.29326e-20 0.0223037 4.07941e-19 0.0218724)
(0.0188343 -0.00938774 -5.59328e-19 0.0252268 -5.9706e-19 0.022054)
(0.0172353 -0.00832287 1.77667e-19 0.0315978 -1.08194e-18 0.0244539)
(0.0189064 -0.00644732 -4.49097e-19 0.0442468 6.57396e-19 0.0316241)
(0.0247825 -0.00331142 3.95187e-19 0.0643679 -5.56949e-19 0.0446374)
(0.035105 0.00133958 4.51194e-19 0.0924731 -1.41246e-18 0.0638599)
(0.049896 0.00774342 4.42076e-19 0.128843 8.2127e-19 0.0894353)
(0.069644 0.0162737 4.69767e-19 0.174756 1.77443e-18 0.122391)
(0.0952746 0.0280191 3.82644e-19 0.231286 1.85895e-18 0.163799)
(0.126003 0.0436161 -5.66999e-19 0.292213 -2.30735e-18 0.207571)
(0.173685 0.0597816 2.67914e-20 0.408587 -7.97862e-19 0.297284)
(0.281062 0.134075 -1.8891e-19 0.504879 -1.63624e-18 0.381048)
(0.200361 0.0636039 -4.64815e-19 0.481749 -7.87957e-19 0.348412)
(0.00799156 -0.000751448 5.33657e-22 0.00680806 1.27682e-21 0.00739422)
(0.00682129 -0.000819419 -8.34092e-22 0.00652557 -1.64225e-21 0.00664352)
(0.00680409 -0.000886697 4.49079e-21 0.00734611 9.08462e-21 0.00707234)
(0.00344726 -0.000396904 5.23263e-21 0.00384852 9.15371e-21 0.00363822)
(0.00494633 0.000140132 -4.66247e-21 0.00398456 -6.89721e-21 0.00444633)
(0.18071 0.0137759 3.14777e-20 0.0739592 -1.00795e-20 0.127521)
(0.971067 0.0287079 -7.09465e-20 0.369516 -9.04246e-21 0.675455)
(1.76842 -0.0468807 -2.56821e-19 0.674236 3.14594e-19 1.21829)
(1.51983 -0.167224 4.03037e-19 0.61603 -1.84926e-19 1.07712)
(0.742276 -0.155026 8.61781e-21 0.357854 1.95275e-19 0.546335)
(0.375607 -0.0978087 3.64626e-19 0.205747 -2.35242e-18 0.283543)
(0.221949 -0.0634331 -2.61053e-19 0.12865 4.02545e-19 0.174377)
(0.148809 -0.0457761 -2.94509e-19 0.0912125 2.3506e-19 0.120546)
(0.104058 -0.034396 3.36197e-19 0.068232 -2.34272e-18 0.0862572)
(0.07851 -0.027411 2.67374e-19 0.0544778 1.33615e-19 0.0665457)
(0.0611412 -0.0220955 1.70045e-19 0.0441191 1.79476e-19 0.0525989)
(0.0507827 -0.0187882 -1.56869e-19 0.0376774 6.35035e-19 0.0441994)
(0.0441307 -0.0165115 -1.19649e-20 0.0331862 1.39432e-19 0.0386531)
(0.0402221 -0.0152075 3.74182e-20 0.0306511 -6.74256e-20 0.0354167)
(0.0383364 -0.0146181 4.73609e-20 0.0295231 5.02263e-20 0.0339313)
(0.0376717 -0.014517 -9.12802e-21 0.0294163 2.33301e-19 0.0335329)
(0.0380525 -0.0147471 -8.99631e-20 0.0299388 2.31086e-19 0.0339798)
(0.0395325 -0.0153316 1.22206e-19 0.0311334 1.7687e-19 0.0353141)
(0.0418488 -0.0162814 1.53835e-19 0.0330941 4.051e-19 0.0374581)
(0.0442949 -0.0173941 -1.77007e-19 0.0354704 -9.92003e-20 0.0398717)
(0.0462336 -0.018476 -1.33615e-19 0.0379354 2.05962e-18 0.042075)
(0.0470333 -0.0193465 8.26352e-20 0.0402621 -3.17851e-20 0.0436438)
(0.0460122 -0.0197907 -2.95971e-19 0.0423269 -8.38479e-19 0.0441714)
(0.0427245 -0.0195735 -5.06955e-19 0.0443363 -1.61824e-18 0.0435414)
(0.0374716 -0.0184374 3.66576e-19 0.0473383 -6.66228e-19 0.042431)
(0.0322242 -0.0160628 1.23918e-19 0.0540462 1.77076e-18 0.0431848)
(0.0310418 -0.0120636 2.63401e-19 0.0691587 -1.06987e-18 0.0501716)
(0.0375029 -0.00598816 -2.29956e-19 0.0967491 2.97045e-18 0.0672317)
(0.0524686 0.00258129 -8.95644e-19 0.138114 1.45621e-19 0.095422)
(0.075489 0.0140317 -3.32981e-19 0.193078 6.18364e-19 0.134407)
(0.106774 0.0288944 -4.53499e-19 0.262811 7.38456e-19 0.185066)
(0.147547 0.0487783 -7.05459e-20 0.348624 -3.54991e-20 0.248825)
(0.198048 0.0758331 2.61507e-20 0.442222 7.21412e-20 0.317982)
(0.260614 0.100947 -3.67228e-20 0.585972 1.59459e-18 0.430744)
(0.419927 0.201299 -3.54654e-20 0.752006 -1.09768e-18 0.570667)
(0.302245 0.141144 6.1621e-19 0.594238 -7.02984e-19 0.459312)
(0.00578515 -0.000515688 -5.26433e-22 0.00488507 -8.91356e-22 0.00534019)
(0.00507256 -0.000609951 2.71889e-21 0.00473347 4.42076e-21 0.0048939)
(0.00467953 -0.000594738 -1.33573e-21 0.00482267 -2.90663e-21 0.00474538)
(0.00495597 -0.000629068 -1.31391e-21 0.00558193 -3.49922e-21 0.00527389)
(0.00162569 -0.000100254 3.17426e-22 0.00175573 7.6079e-22 0.00169007)
(0.0011019 5.34353e-06 -1.38872e-22 0.00100159 -1.36621e-22 0.0010494)
(0.121039 0.00707421 -2.2609e-20 0.0491041 -2.31887e-20 0.0849376)
(0.772783 0.0169309 -7.64916e-20 0.293601 9.3814e-20 0.536049)
(1.77917 -0.0451008 -1.61866e-19 0.677313 -1.55181e-19 1.22885)
(1.9318 -0.177078 -3.7296e-19 0.768208 -9.60221e-19 1.35446)
(1.22584 -0.222704 3.67284e-19 0.555983 5.36032e-19 0.900343)
(0.605136 -0.15074 6.02991e-19 0.322322 -8.22767e-19 0.452483)
(0.362163 -0.102695 -8.12446e-19 0.209517 6.32816e-19 0.281765)
(0.237304 -0.071687 3.47512e-19 0.143512 1.08896e-18 0.19028)
(0.170069 -0.0556508 2.4667e-20 0.110311 4.80427e-19 0.140737)
(0.127683 -0.0442847 -2.31861e-19 0.0879249 -8.61479e-20 0.10801)
(0.102972 -0.0374786 1.61002e-19 0.0749123 -9.02023e-19 0.088909)
(0.0873911 -0.0327715 -3.49212e-20 0.0658968 5.86549e-19 0.0766398)
(0.0778226 -0.0299076 6.99563e-20 0.0605513 -1.11449e-19 0.0691582)
(0.0726484 -0.0284196 4.72722e-20 0.0578567 2.04119e-19 0.0652718)
(0.0700131 -0.0278097 -6.25574e-20 0.0569506 -2.94279e-19 0.063481)
(0.0693307 -0.0277553 2.92634e-20 0.0570225 1.19409e-20 0.0631783)
(0.0703991 -0.0282086 1.51256e-20 0.0579794 1.01821e-19 0.064184)
(0.0728413 -0.0291881 -2.96492e-19 0.0599929 -3.4258e-19 0.0664123)
(0.0757098 -0.0304356 3.18586e-19 0.0626459 -8.067e-19 0.0691701)
(0.0780929 -0.031698 4.83029e-20 0.0655341 -4.32393e-19 0.0718011)
(0.0789917 -0.0326968 -5.3882e-19 0.068274 -4.33456e-19 0.073622)
(0.0772491 -0.0330782 4.90229e-20 0.0705292 -9.78158e-19 0.0738789)
(0.0718901 -0.0324323 8.49871e-19 0.0722575 -1.1949e-19 0.0720718)
(0.0627617 -0.0303016 3.40867e-19 0.0743346 1.43152e-18 0.0685654)
(0.0518864 -0.0261448 -4.13243e-19 0.0797856 -7.81395e-19 0.065885)
(0.045377 -0.0194013 -4.96339e-19 0.0955864 6.3877e-19 0.0705565)
(0.0508497 -0.00949673 -2.17301e-19 0.130039 -3.16252e-18 0.0905643)
(0.0707925 0.0041912 7.72653e-19 0.186168 -1.96581e-18 0.128639)
(0.103866 0.0222462 6.21598e-19 0.262802 -1.78796e-18 0.183486)
(0.149393 0.0453477 -1.29773e-19 0.360051 -6.34629e-20 0.255067)
(0.20859 0.0755755 1.37057e-19 0.478749 1.43441e-18 0.344575)
(0.283249 0.11657 5.11406e-20 0.609398 -8.09221e-19 0.443818)
(0.362547 0.153831 -2.25593e-19 0.773614 7.4031e-19 0.5762)
(0.558893 0.268961 -5.31937e-19 1.00143 1.73384e-18 0.764036)
(0.462212 0.229684 -5.37141e-19 0.805022 -8.58172e-19 0.644837)
(0.00419897 -0.000351478 -1.27003e-22 0.00350334 -2.32992e-22 0.00385431)
(0.00385389 -0.0004411 2.95965e-22 0.0035085 3.46972e-22 0.00368121)
(0.00346481 -0.000440321 -1.39044e-21 0.00344562 -1.84524e-21 0.00345404)
(0.00351353 -0.000454564 -2.19942e-21 0.00381258 -2.74237e-21 0.00366071)
(0.00354546 -0.000403563 -7.62176e-22 0.00408473 -8.85303e-22 0.00381729)
(0.000764284 -2.23477e-05 2.33116e-22 0.000801386 3.21267e-22 0.000782932)
(2.58575e-05 -2.09478e-08 -3.50026e-25 2.57261e-05 -5.28355e-25 2.57878e-05)
(0.0547935 0.00207979 1.72062e-20 0.0233352 1.88782e-20 0.0389134)
(0.514633 0.00747549 2.32713e-19 0.195474 2.22967e-19 0.355912)
(1.53377 -0.0384928 -1.66812e-19 0.583297 3.71407e-19 1.06179)
(2.1673 -0.161833 -2.48512e-19 0.849661 6.44166e-19 1.50581)
(1.79163 -0.271521 2.69813e-19 0.770154 -1.05503e-18 1.29567)
(1.01204 -0.233684 4.46837e-19 0.510866 1.30609e-18 0.761366)
(0.556071 -0.153741 -7.93648e-19 0.317674 -2.90994e-19 0.425418)
(0.362556 -0.10956 3.30688e-19 0.220001 -1.3515e-18 0.288951)
(0.258432 -0.0831025 -2.22759e-19 0.164974 7.76958e-19 0.212202)
(0.195957 -0.0676501 1.33092e-19 0.13423 7.62872e-19 0.165544)
(0.157258 -0.0571822 1.61795e-19 0.11417 3.9189e-19 0.135949)
(0.133751 -0.0506916 -8.35874e-20 0.10222 3.45716e-19 0.117941)
(0.120772 -0.0470919 9.75488e-21 0.0957708 -1.00103e-18 0.108277)
(0.113723 -0.0453073 2.12735e-20 0.0929106 4.26967e-19 0.103281)
(0.110984 -0.0446953 -1.30763e-19 0.0920676 -8.5392e-21 0.101516)
(0.111464 -0.0449858 1.20592e-19 0.0927569 -4.8058e-19 0.1021)
(0.114323 -0.0461163 2.06134e-19 0.095063 -7.11689e-20 0.104689)
(0.118132 -0.0476902 -1.77171e-19 0.0983424 1.03876e-18 0.108232)
(0.121539 -0.0493371 -3.26476e-19 0.102001 -9.1297e-19 0.11176)
(0.123046 -0.0506352 4.10375e-19 0.105398 -5.45262e-19 0.114211)
(0.120856 -0.0510407 2.12072e-19 0.107838 1.64758e-18 0.114333)
(0.113207 -0.049907 1.44758e-19 0.108822 1.80465e-18 0.111006)
(0.0991818 -0.0465473 -2.03608e-19 0.108785 -3.27755e-19 0.103996)
(0.0802337 -0.0401668 -2.06734e-20 0.110502 -1.19041e-18 0.0954201)
(0.0638544 -0.029974 -4.04113e-19 0.122586 -3.57207e-19 0.0933051)
(0.0637553 -0.0152066 -1.9263e-19 0.159592 1.48987e-18 0.11181)
(0.0871734 0.00498269 9.32721e-20 0.229288 2.28426e-18 0.158418)
(0.131431 0.0313836 1.33191e-18 0.328894 7.59469e-19 0.23034)
(0.193607 0.0647479 2.31806e-19 0.455634 -8.45259e-19 0.325028)
(0.274082 0.107375 -1.54127e-18 0.608506 -7.42023e-19 0.442216)
(0.375327 0.163405 3.12639e-21 0.776861 -2.09834e-19 0.573624)
(0.475986 0.215653 -4.82694e-21 0.960034 -1.84842e-18 0.725674)
(0.692736 0.335856 -1.30797e-19 1.2311 5.88011e-19 0.947264)
(0.648771 0.325949 4.02305e-19 1.06328 1.5342e-18 0.863507)
(0.0030739 -0.00024585 -2.62297e-23 0.0025451 -5.20347e-24 0.0028128)
(0.00290729 -0.000314579 -5.38626e-22 0.00258766 -7.30605e-22 0.00274679)
(0.0027567 -0.00034445 5.22753e-22 0.00265597 7.05281e-22 0.0027054)
(0.00254399 -0.000327528 2.39235e-21 0.00265106 3.19256e-21 0.00259563)
(0.0026343 -0.000332651 4.73077e-22 0.00296449 6.5601e-22 0.00279632)
(0.00271894 -0.00029396 4.12852e-22 0.00320445 2.13281e-22 0.00296222)
(0.000168776 -1.08154e-06 -2.20644e-23 0.000170973 -2.42135e-23 0.000169887)
(9.98073e-07 -1.74689e-10 -3.79366e-28 9.98066e-07 -2.58121e-28 9.98063e-07)
(0.0150967 0.000137635 -7.9035e-21 0.00796855 -1.13181e-20 0.011474)
(0.274261 0.00153957 1.65428e-19 0.104293 1.85541e-19 0.189216)
(1.09649 -0.0271972 -2.74462e-19 0.417011 -6.61583e-19 0.758875)
(2.09353 -0.134918 -1.12484e-19 0.813619 8.26115e-19 1.45305)
(2.25526 -0.27522 1.61422e-19 0.930213 -1.02287e-18 1.59741)
(1.6011 -0.319887 -3.55463e-19 0.752049 -3.92215e-19 1.19205)
(0.896398 -0.236552 9.28196e-19 0.492111 -2.45969e-19 0.686517)
(0.542337 -0.162319 3.89114e-19 0.328728 8.30504e-19 0.425899)
(0.377508 -0.120744 -3.43314e-19 0.240453 5.14101e-19 0.307647)
(0.285783 -0.09736 -3.83413e-19 0.192985 4.44352e-19 0.240263)
(0.228932 -0.0830218 -6.12402e-19 0.16564 -3.65881e-20 0.197762)
(0.195099 -0.0741989 4.69913e-19 0.14964 -6.11197e-19 0.172612)
(0.176063 -0.0693267 2.01572e-19 0.141519 8.46133e-19 0.158724)
(0.16794 -0.0673113 -3.54072e-19 0.138383 -2.05894e-19 0.153108)
(0.166473 -0.0670827 1.2136e-19 0.138242 3.54627e-19 0.152297)
(0.169602 -0.0683538 9.26526e-20 0.140863 2.35904e-19 0.155187)
(0.174907 -0.0704399 1.66436e-20 0.145108 -3.77373e-19 0.159975)
(0.180263 -0.0727549 -2.38526e-20 0.150021 5.32078e-19 0.165114)
(0.183429 -0.0746538 3.36676e-19 0.154533 1.38287e-18 0.168966)
(0.181734 -0.0753263 3.10164e-19 0.157395 -5.48001e-19 0.169558)
(0.172245 -0.0737765 -4.51679e-19 0.157323 3.96271e-20 0.164784)
(0.152941 -0.0690578 -9.90915e-19 0.15398 -1.14844e-18 0.153478)
(0.123775 -0.0600712 2.48962e-19 0.148978 7.23709e-20 0.136439)
(0.0913636 -0.0457147 5.66151e-19 0.150313 -1.05521e-18 0.120943)
(0.075788 -0.0250089 6.30051e-19 0.179021 3.29641e-19 0.127566)
(0.0968906 0.00309999 -4.18734e-19 0.255339 -1.7617e-19 0.176337)
(0.151868 0.0395388 -7.60261e-19 0.375865 1.51274e-18 0.264088)
(0.232453 0.084977 -6.09941e-19 0.531386 -1.42249e-18 0.38239)
(0.33624 0.14144 9.41471e-19 0.716617 -2.12404e-19 0.527267)
(0.464378 0.212172 4.63128e-20 0.919081 3.5591e-19 0.689751)
(0.591626 0.280965 1.87885e-19 1.1226 -3.49909e-19 0.86312)
(0.810672 0.398074 -1.01896e-19 1.40653 -8.2443e-19 1.09829)
(0.832453 0.418789 -4.3888e-19 1.31308 5.2891e-19 1.0734)
(0.0022761 -0.00017453 -8.45417e-23 0.00187313 -2.83712e-23 0.00207692)
(0.00218138 -0.000225084 -4.53064e-22 0.00191 -7.02673e-22 0.00204528)
(0.00211587 -0.000254521 1.89289e-21 0.00198211 2.14806e-21 0.00204875)
(0.00202617 -0.000261375 -2.5466e-22 0.00203819 -3.23852e-22 0.00203221)
(0.00187712 -0.000237054 6.67861e-22 0.00202423 6.18279e-22 0.00194977)
(0.00203008 -0.000254947 -6.67597e-22 0.00235813 -6.06e-22 0.0021914)
(0.00194412 -0.000184986 1.40218e-21 0.00230905 1.87299e-21 0.00212594)
(0.000322938 -4.23783e-06 4.42e-23 0.000333188 3.68541e-23 0.000328113)
(0.000230351 -4.86963e-06 1.29586e-24 0.000238554 2.39215e-23 0.000234449)
(0.000355586 -1.65925e-06 1.08458e-22 0.000336708 9.57651e-23 0.000345931)
(0.101985 -0.000783132 -4.25001e-21 0.0391259 5.10935e-21 0.0703495)
(0.62274 -0.0166865 -3.0941e-19 0.237163 -2.08097e-19 0.430371)
(1.64481 -0.0957148 1.89947e-19 0.635977 -3.81686e-19 1.14206)
(2.4026 -0.239884 -4.61671e-19 0.96559 9.19067e-19 1.6818)
(2.20982 -0.361241 -2.78949e-19 0.970337 -9.22134e-19 1.60287)
(1.46409 -0.34614 5.37175e-19 0.745738 7.21771e-19 1.11653)
(0.850408 -0.245751 3.39001e-19 0.499806 -1.54518e-18 0.663679)
(0.551832 -0.175937 1.78808e-19 0.352897 5.77821e-19 0.44385)
(0.406205 -0.137175 -7.39823e-19 0.272509 -1.13181e-18 0.338604)
(0.32328 -0.116201 2.95154e-19 0.231369 1.19457e-18 0.278437)
(0.274559 -0.104423 8.02666e-20 0.210523 -8.79919e-19 0.243068)
(0.251006 -0.098812 -3.28754e-19 0.201565 4.32724e-19 0.226479)
(0.242739 -0.096989 2.4475e-19 0.19913 4.6676e-21 0.220863)
(0.24421 -0.0979746 -3.68918e-20 0.201525 2.67352e-20 0.222747)
(0.250822 -0.100554 -8.92284e-20 0.206753 7.39657e-19 0.228688)
(0.258718 -0.103648 1.12826e-19 0.21305 -1.76549e-19 0.235792)
(0.264612 -0.10632 -7.61126e-19 0.218809 6.44371e-21 0.241637)
(0.264871 -0.107495 -3.79262e-19 0.222227 1.91096e-19 0.243497)
(0.255288 -0.105831 -1.9586e-19 0.221162 -1.22408e-18 0.238203)
(0.231972 -0.0998955 9.45971e-19 0.213818 1.00509e-19 0.222924)
(0.192458 -0.0881817 1.62482e-19 0.199724 8.1967e-19 0.196195)
(0.139312 -0.0691853 2.88933e-19 0.183088 9.03894e-19 0.161369)
(0.0920081 -0.041683 -5.99059e-19 0.18442 2.67711e-19 0.138435)
(0.0938519 -0.00452641 4.85703e-19 0.247094 -1.19057e-18 0.170754)
(0.155193 0.043187 2.82062e-19 0.380194 -1.41084e-19 0.267983)
(0.254913 0.101787 1.0054e-18 0.560251 3.16052e-19 0.408105)
(0.383003 0.172352 -1.44337e-18 0.772721 4.40074e-19 0.57858)
(0.536637 0.256106 -1.68093e-19 1.00178 1.20571e-19 0.767914)
(0.69143 0.339568 2.94667e-19 1.22367 4.49077e-19 0.961155)
(0.900146 0.448637 4.27497e-19 1.49447 1.59709e-20 1.193)
(0.981118 0.49314 1.48962e-19 1.49468 -1.1763e-18 1.23107)
(0.00169361 -0.00012539 -3.32532e-22 0.00138733 -3.85809e-22 0.00154211)
(0.0016373 -0.000162106 1.34681e-21 0.00141644 1.4037e-21 0.0015269)
(0.00160389 -0.000186097 -3.15708e-22 0.00147145 -2.78271e-22 0.00153766)
(0.00157212 -0.00019887 -2.47925e-21 0.00153574 -2.60901e-21 0.001554)
(0.00151007 -0.000195323 -2.33056e-22 0.00157227 -3.10818e-22 0.00154128)
(0.00141634 -0.000174827 2.43106e-21 0.00156797 2.59398e-21 0.00149171)
(0.00152761 -0.000184777 -6.97818e-22 0.00181397 -9.18891e-22 0.00166891)
(0.00138749 -0.000116739 -4.88855e-21 0.00165657 -4.84613e-21 0.00152097)
(0.000510905 -1.19898e-05 5.47566e-22 0.000545068 5.27518e-22 0.000528063)
(5.86288e-05 -2.0311e-07 6.07691e-25 5.91716e-05 -5.84974e-25 5.89032e-05)
(0.00122076 -0.000229935 -9.67995e-22 0.000994193 -1.59553e-21 0.00110154)
(0.0254106 -0.000870404 -9.28539e-21 0.0104374 -5.24007e-21 0.017831)
(0.269228 -0.00891522 -1.83187e-19 0.102889 -1.20401e-19 0.185843)
(1.01861 -0.0563651 1.69355e-19 0.393162 -1.28423e-19 0.706713)
(2.06245 -0.178955 -6.37044e-19 0.817128 6.42876e-19 1.43955)
(2.55057 -0.334746 6.01004e-19 1.06693 -3.87325e-19 1.80817)
(2.1504 -0.423384 -4.99813e-19 1.00477 7.5399e-19 1.59491)
(1.40432 -0.370598 -1.0913e-19 0.765315 -2.06135e-19 1.09287)
(0.854723 -0.264856 -2.44234e-19 0.53263 -3.56651e-19 0.680906)
(0.583803 -0.197005 2.87185e-19 0.39421 -1.03026e-18 0.480578)
(0.452966 -0.161804 4.54107e-19 0.322694 3.35885e-19 0.387166)
(0.386687 -0.145483 -2.38862e-19 0.292262 -1.00537e-18 0.340768)
(0.356354 -0.138735 -2.33471e-19 0.28167 4.52362e-19 0.319808)
(0.3479 -0.137749 7.0229e-19 0.281604 -5.87042e-19 0.31504)
(0.352363 -0.14025 -4.03846e-19 0.287467 4.98432e-20 0.319868)
(0.363065 -0.144441 -5.73792e-19 0.296071 -3.69609e-19 0.329361)
(0.374008 -0.148581 9.98382e-19 0.304378 -1.42225e-18 0.338981)
(0.378891 -0.150763 -1.28523e-20 0.309029 1.07436e-18 0.343792)
(0.371708 -0.149161 -2.29676e-21 0.306812 -6.5541e-20 0.339146)
(0.347163 -0.142067 -5.95278e-19 0.294881 1.05924e-18 0.320968)
(0.300503 -0.127667 6.01003e-20 0.27073 -6.38522e-19 0.285645)
(0.22873 -0.103955 -8.42455e-21 0.233303 3.26692e-19 0.23117)
(0.138489 -0.0693447 -6.81272e-19 0.190421 -5.76142e-19 0.164738)
(0.0781946 -0.0227136 3.66115e-19 0.190268 1.70999e-18 0.134647)
(0.127342 0.0365771 -5.11637e-19 0.310374 2.75416e-19 0.219326)
(0.245994 0.108173 -4.88278e-19 0.507104 3.50468e-21 0.377219)
(0.398885 0.1915 6.75405e-19 0.739236 -1.8218e-18 0.569802)
(0.575866 0.28533 -4.51359e-20 0.985168 7.41069e-19 0.779867)
(0.753763 0.378296 -1.50204e-19 1.219 -9.14682e-19 0.987872)
(0.946258 0.476606 -1.28229e-18 1.46643 -7.04484e-19 1.207)
(1.06564 0.534231 -3.98975e-19 1.54569 -1.52588e-19 1.29396)
(0.00126491 -9.11036e-05 -2.94939e-22 0.00103269 -2.39159e-22 0.00114991)
(0.00122999 -0.000117721 -1.23097e-21 0.00105479 -1.1067e-21 0.00114254)
(0.00121212 -0.000136151 -6.79655e-23 0.00109511 -1.86262e-22 0.00115363)
(0.0011983 -0.000148017 -2.00359e-22 0.00114459 -1.68535e-22 0.00117149)
(0.00118091 -0.000152584 1.75877e-21 0.00119463 1.72781e-21 0.0011878)
(0.00113712 -0.000145161 9.41169e-22 0.00121687 7.63042e-22 0.00117706)
(0.00108818 -0.000131595 -1.30343e-21 0.0012302 -1.24277e-21 0.00115904)
(0.00112228 -0.000126473 -9.7087e-22 0.00134727 -3.66815e-22 0.0012338)
(0.00111681 -9.59771e-05 -6.4405e-22 0.00137065 -6.49384e-22 0.00124245)
(0.000575466 -1.79007e-05 -9.46981e-22 0.000635498 -9.30855e-22 0.00060544)
(4.10716e-05 -8.518e-08 -1.32305e-24 4.13688e-05 -9.0269e-25 4.12215e-05)
(0.000246435 -8.04467e-06 -2.67854e-23 0.000262845 -1.20161e-23 0.000254709)
(0.000188863 -1.88925e-06 7.91086e-23 0.000180229 7.68869e-23 0.000184471)
(0.071534 -0.003559 -2.63774e-19 0.027723 -2.16548e-19 0.0494681)
(0.46205 -0.0264257 7.0769e-19 0.178676 6.06971e-19 0.320232)
(1.34838 -0.107626 -3.4054e-19 0.530529 -4.00627e-19 0.940121)
(2.32416 -0.258172 1.45863e-18 0.946522 8.9412e-19 1.63341)
(2.62406 -0.412934 6.52333e-19 1.14299 7.64424e-19 1.88552)
(2.14006 -0.475337 -1.81489e-18 1.05465 -2.56266e-19 1.61661)
(1.42246 -0.405145 5.80208e-19 0.818616 -1.15182e-18 1.12774)
(0.906328 -0.298417 2.86673e-19 0.597174 1.40593e-18 0.738692)
(0.657521 -0.234196 -7.45778e-20 0.470758 -8.05263e-19 0.553942)
(0.554259 -0.205571 5.90773e-19 0.412948 6.26142e-19 0.481998)
(0.510757 -0.194953 -3.49101e-19 0.393092 -6.91717e-19 0.453786)
(0.497155 -0.193555 3.9608e-19 0.392769 5.49436e-20 0.446574)
(0.501757 -0.197077 -5.48604e-19 0.401554 8.55645e-19 0.452336)
(0.51489 -0.202348 9.80783e-20 0.412647 7.27808e-19 0.463839)
(0.526914 -0.206419 -1.75165e-19 0.420601 -1.88971e-18 0.473506)
(0.528813 -0.20658 -2.77781e-19 0.42055 4.59115e-19 0.474335)