/*--------------------------------*- C++ -*----------------------------------*\
| =========                 |                                                 |
| \\      /  F ield         | OpenFOAM: The Open Source CFD Toolbox           |
|  \\    /   O peration     | Version:  2312                                  |
|   \\  /    A nd           | Website:  www.openfoam.com                      |
|    \\/     M anipulation  |                                                 |
\*---------------------------------------------------------------------------*/
FoamFile
{
    version     2.0;
    format      ascii;
    arch        "LSB;label=32;scalar=64";
    class       volScalarField;
    location    "550";
    object      turbulenceProperties:nuEff;
}
// * * * * * * * * * * * * * * * * * * * * * * * * * * * * * * * * * * * * * //

dimensions      [0 2 -1 0 0 0 0];

internalField   nonuniform List<scalar> 
11040
(
4.74797e-05
6.48473e-05
2.59922e-05
5.66151e-05
0.000196164
0.000190985
0.000181259
0.000171366
0.000158527
0.000150735
0.000142349
0.000134989
0.000128344
0.000122937
0.000118241
0.000115406
0.000114564
0.000115912
0.00011901
0.00012355
0.000129568
0.000136838
0.000145067
0.000154112
0.000164312
0.000176626
0.000190163
0.000203411
0.000215861
0.000226881
0.000235919
0.00024249
0.000247921
0.000258029
0.0002783
0.000263567
0.000186457
0.000189958
0.000207666
0.000223863
0.000300928
1.41406e-05
4.63954e-05
6.61207e-05
0.000148781
0.000605662
0.000640572
0.000562382
0.000520823
0.000453338
0.000418939
0.000381619
0.000352259
0.000325193
0.000304334
0.000284967
0.000270868
0.000262842
0.000261231
0.000263551
0.000267958
0.000274357
0.000282637
0.000291095
0.000298728
0.000307637
0.000326614
0.000355471
0.000388422
0.000425475
0.00046637
0.000511423
0.000560996
0.000614448
0.000673546
0.000739538
0.00080489
0.000870537
0.000957433
0.00106002
0.00113621
0.001587
1.55621e-05
1.92722e-05
4.00936e-05
7.28386e-05
0.000414376
0.000963116
0.00119436
0.00116191
0.00101686
0.000945297
0.000861524
0.000798226
0.000737934
0.000692594
0.000650087
0.000616043
0.000590145
0.000570552
0.000559444
0.000555848
0.000560974
0.000575861
0.000601205
0.000637913
0.000686049
0.00074534
0.000815552
0.000896383
0.000987395
0.00108697
0.00119443
0.00130899
0.00143016
0.00155852
0.0016948
0.00183822
0.00199407
0.00218343
0.00241371
0.00263061
0.00340932
1.64839e-05
1.51454e-05
2.061e-05
2.10732e-05
0.000144394
0.000591853
0.00129495
0.00171186
0.0017891
0.00170734
0.00156367
0.00145908
0.00135368
0.0012735
0.00119714
0.00113312
0.00108625
0.00104948
0.00102805
0.00102042
0.00102797
0.00105367
0.00109995
0.00116808
0.00125739
0.00136667
0.00149494
0.00164095
0.00180358
0.00198147
0.00217292
0.0023763
0.00259038
0.00281533
0.00305204
0.00330253
0.00357621
0.00390025
0.00429903
0.0047183
0.00580189
1.6197e-05
1.57789e-05
1.63764e-05
1.54949e-05
1.46319e-05
0.000180476
0.000700115
0.00154404
0.00224793
0.00246866
0.00248917
0.00238918
0.00222616
0.00210211
0.00198642
0.00188047
0.00180644
0.00174602
0.00170961
0.00169589
0.00170438
0.00174047
0.00181003
0.00191519
0.00205497
0.00222785
0.00243194
0.00266461
0.00292355
0.00320645
0.00350985
0.00383063
0.00416649
0.00451711
0.00488333
0.00526893
0.00568777
0.00617715
0.00677907
0.00745782
0.00882089
1.60936e-05
1.61892e-05
1.58855e-05
1.66075e-05
1.17898e-05
1.0819e-05
0.000174422
0.000719678
0.00169025
0.00270746
0.00320032
0.00337783
0.00337302
0.00326925
0.0030925
0.00292485
0.00281492
0.00272155
0.00266148
0.00263801
0.00264496
0.0026895
0.00278415
0.00293304
0.00313467
0.00338758
0.00368883
0.00403357
0.00441695
0.00483537
0.00528263
0.00575291
0.00624207
0.00674899
0.00727383
0.0078216
0.00841093
0.00909066
0.00992421
0.0109092
0.0125763
1.61046e-05
1.6136e-05
1.60171e-05
1.63356e-05
1.59889e-05
1.04865e-05
1.00025e-05
0.000121468
0.000648245
0.00167815
0.00297355
0.00392731
0.00431922
0.00447409
0.00447127
0.00437343
0.00422446
0.00406967
0.00397235
0.00393408
0.00393719
0.0039861
0.00410478
0.00430213
0.00457562
0.00492468
0.00534582
0.00583116
0.00637048
0.00695889
0.00758601
0.00824125
0.00891731
0.00961173
0.010323
0.0110562
0.011835
0.0127191
0.0137991
0.0151179
0.0171245
1.61142e-05
1.61116e-05
1.61323e-05
1.60484e-05
1.65452e-05
1.61394e-05
1.00289e-05
1e-05
5.46412e-05
0.000502905
0.00149028
0.00297207
0.00443929
0.00527712
0.00565579
0.00581116
0.00584262
0.00579634
0.00572915
0.00567437
0.00567504
0.00573794
0.00588291
0.00613336
0.00648635
0.00694488
0.00750731
0.00816406
0.00889304
0.00968869
0.0105353
0.0114137
0.0123109
0.0132226
0.0141443
0.0150782
0.0160536
0.0171409
0.0184543
0.0201
0.0224627
1.61127e-05
1.61165e-05
1.6112e-05
1.6133e-05
1.59953e-05
1.71294e-05
1.55085e-05
1.01445e-05
1.02599e-05
1.02704e-05
0.000305373
0.00115039
0.00265818
0.0045297
0.00606569
0.00685313
0.00726762
0.00748305
0.00761422
0.00770558
0.00781319
0.00796448
0.00820163
0.00855554
0.00902699
0.0096163
0.0103313
0.0111745
0.0121262
0.0131663
0.0142738
0.015416
0.0165675
0.0177218
0.0188714
0.0200087
0.0211681
0.0224332
0.0239279
0.0258406
0.028514
1.61124e-05
1.61141e-05
1.6114e-05
1.61191e-05
1.61011e-05
1.60406e-05
1.7319e-05
1.5038e-05
1.05526e-05
1.00116e-05
3.20001e-05
0.000146718
0.00075894
0.00209659
0.00411744
0.00631273
0.00790774
0.00874676
0.00927821
0.00965943
0.0100124
0.0103839
0.0108353
0.0114136
0.012139
0.013012
0.0140214
0.0151473
0.0163696
0.0176839
0.0190863
0.020528
0.0219568
0.0233623
0.0247422
0.026065
0.0273634
0.0287442
0.0303254
0.0323616
0.0352129
1.61114e-05
1.61124e-05
1.61137e-05
1.61096e-05
1.61271e-05
1.60582e-05
1.61681e-05
1.70096e-05
1.60672e-05
1.11866e-05
1.00061e-05
1.07216e-05
1.02298e-05
0.000365035
0.00138141
0.00325071
0.00577354
0.00830058
0.0100656
0.0111038
0.0119008
0.0126102
0.0133615
0.0142423
0.0153073
0.0165756
0.0180429
0.0196888
0.0214756
0.0233514
0.0252481
0.0270858
0.028811
0.0304528
0.0320593
0.0335328
0.0348747
0.036264
0.037794
0.0396933
0.0424324
1.61103e-05
1.6111e-05
1.61107e-05
1.61111e-05
1.61087e-05
1.61175e-05
1.6064e-05
1.61568e-05
1.6765e-05
1.65853e-05
1.24569e-05
1.00049e-05
1.00015e-05
3.26127e-05
9.68821e-05
0.000708078
0.00214025
0.00452973
0.00756936
0.0105386
0.0126933
0.0141129
0.0153287
0.0165792
0.0180084
0.0196824
0.0216184
0.0238109
0.0262227
0.0287938
0.0314503
0.0341058
0.0366646
0.0390329
0.041097
0.0427314
0.0439635
0.0452244
0.0465319
0.047996
0.0501893
1.61092e-05
1.61092e-05
1.61091e-05
1.6109e-05
1.61089e-05
1.61082e-05
1.61095e-05
1.60784e-05
1.61236e-05
1.65337e-05
1.68629e-05
1.43859e-05
1.02437e-05
1.00022e-05
1.00991e-05
0.000103689
0.000219354
0.00108586
0.00291362
0.00581246
0.00944523
0.0129821
0.0156807
0.017699
0.0196187
0.0217196
0.0240836
0.0267592
0.0297276
0.0329259
0.0362759
0.0396869
0.0430565
0.0462861
0.0492725
0.0519029
0.0540844
0.0557564
0.0568193
0.057515
0.0589619
1.6108e-05
1.61085e-05
1.61085e-05
1.61084e-05
1.61078e-05
1.6107e-05
1.61068e-05
1.61067e-05
1.60884e-05
1.6096e-05
1.63112e-05
1.70424e-05
1.60189e-05
1.17028e-05
1.00007e-05
1.00001e-05
1.11022e-05
0.000174291
0.000346047
0.00141369
0.00357906
0.00681155
0.010673
0.0146962
0.0183769
0.0215298
0.0244836
0.0276309
0.0310891
0.0348185
0.0387554
0.0428203
0.0469006
0.0508914
0.0546892
0.0581941
0.0613173
0.0640057
0.0661983
0.0678812
0.0691338
1.6107e-05
1.61081e-05
1.6108e-05
1.61075e-05
1.61069e-05
1.61064e-05
1.61059e-05
1.61059e-05
1.61053e-05
1.60984e-05
1.60722e-05
1.61961e-05
1.68041e-05
1.68132e-05
1.45494e-05
1.03228e-05
1.00033e-05
1e-05
1.51124e-05
0.000221443
0.000413001
0.00152071
0.0035295
0.00649886
0.0102802
0.0146435
0.0193253
0.0240285
0.0285623
0.0329921
0.0374986
0.0421541
0.0468848
0.0515758
0.0561192
0.0604164
0.06439
0.0680029
0.0711897
0.0739088
0.0761697
1.61061e-05
1.61074e-05
1.61072e-05
1.61068e-05
1.61064e-05
1.6106e-05
1.61057e-05
1.61053e-05
1.61052e-05
1.61053e-05
1.61028e-05
1.60699e-05
1.61342e-05
1.63995e-05
1.71388e-05
1.59991e-05
1.3057e-05
1.00163e-05
1.00006e-05
1e-05
1.82116e-05
0.000198306
0.000250649
0.00101873
0.0024711
0.00476506
0.00792523
0.0119381
0.0167381
0.0222192
0.0281779
0.0342947
0.0402683
0.0459666
0.0513852
0.056537
0.0614013
0.0659552
0.0701383
0.073891
0.0771932
1.61053e-05
1.61066e-05
1.61065e-05
1.61062e-05
1.61058e-05
1.61054e-05
1.61051e-05
1.61048e-05
1.61047e-05
1.61043e-05
1.61054e-05
1.61021e-05
1.6088e-05
1.60738e-05
1.62477e-05
1.66716e-05
1.71534e-05
1.52236e-05
1.16399e-05
1.00015e-05
1.00002e-05
1e-05
1.07838e-05
9.43566e-05
6.75408e-05
0.000365357
0.00101929
0.00229854
0.00427641
0.00706338
0.0107315
0.0153043
0.0207361
0.0269139
0.0336145
0.0405038
0.0472258
0.0535544
0.0593302
0.0644897
0.0690673
1.61042e-05
1.61054e-05
1.61051e-05
1.61047e-05
1.61042e-05
1.61039e-05
1.61037e-05
1.61036e-05
1.61034e-05
1.61033e-05
1.61031e-05
1.61038e-05
1.6103e-05
1.60945e-05
1.60712e-05
1.61205e-05
1.635e-05
1.69685e-05
1.70252e-05
1.48244e-05
1.11795e-05
1.00009e-05
1.00002e-05
1e-05
1.00084e-05
1.20156e-05
5.99554e-05
0.000198009
5.56408e-05
0.000389274
0.00112154
0.00236895
0.00424703
0.00686657
0.0102991
0.0145423
0.0195223
0.0251616
0.0312713
0.0376237
0.0440004
1.6103e-05
1.61038e-05
1.61034e-05
1.61028e-05
1.61024e-05
1.6102e-05
1.61018e-05
1.61017e-05
1.61017e-05
1.61017e-05
1.61017e-05
1.61018e-05
1.61019e-05
1.6103e-05
1.6097e-05
1.6086e-05
1.6066e-05
1.61785e-05
1.65142e-05
1.70678e-05
1.68767e-05
1.4485e-05
1.17126e-05
1.00155e-05
1.00007e-05
1e-05
1e-05
1e-05
1.00036e-05
1.17179e-05
5.88265e-05
0.000167754
0.000321222
6.83836e-05
0.000519997
0.00130465
0.00255
0.00432638
0.00668356
0.00962104
0.0131718
1.61017e-05
1.61022e-05
1.61017e-05
1.61011e-05
1.61007e-05
1.61004e-05
1.61002e-05
1.61002e-05
1.61002e-05
1.61002e-05
1.61002e-05
1.61003e-05
1.61004e-05
1.61007e-05
1.61012e-05
1.61008e-05
1.60913e-05
1.60731e-05
1.60799e-05
1.62359e-05
1.66291e-05
1.7048e-05
1.6995e-05
1.52468e-05
1.26175e-05
1.08369e-05
1.00037e-05
1.00004e-05
1e-05
1e-05
1e-05
1e-05
1e-05
1.00035e-05
1.32899e-05
6.22481e-05
0.000158443
0.000275729
0.000441008
0.000112133
0.000592692
1.61004e-05
1.61006e-05
1.61001e-05
1.60996e-05
1.60993e-05
1.60991e-05
1.60991e-05
1.60991e-05
1.60991e-05
1.60992e-05
1.60993e-05
1.60994e-05
1.60995e-05
1.60995e-05
1.60997e-05
1.61002e-05
1.61009e-05
1.60974e-05
1.60833e-05
1.60663e-05
1.60945e-05
1.62707e-05
1.65754e-05
1.70672e-05
1.7101e-05
1.65754e-05
1.48794e-05
1.27275e-05
1.10942e-05
1.0279e-05
1.00001e-05
1.00001e-05
1e-05
1e-05
1e-05
1e-05
1e-05
1e-05
1e-05
1.00072e-05
1.30945e-05
1.6099e-05
1.60991e-05
1.60987e-05
1.60984e-05
1.60983e-05
1.60983e-05
1.60984e-05
1.60985e-05
1.60987e-05
1.60988e-05
1.60989e-05
1.6099e-05
1.60991e-05
1.60992e-05
1.60993e-05
1.60993e-05
1.60997e-05
1.61004e-05
1.60999e-05
1.6094e-05
1.60773e-05
1.60683e-05
1.60873e-05
1.62153e-05
1.64631e-05
1.67637e-05
1.71453e-05
1.71941e-05
1.67383e-05
1.59314e-05
1.43817e-05
1.26755e-05
1.13665e-05
1.05073e-05
1.01227e-05
1e-05
1.00001e-05
1e-05
1e-05
1e-05
1e-05
1.60976e-05
1.60978e-05
1.60977e-05
1.60976e-05
1.60978e-05
1.6098e-05
1.60982e-05
1.60985e-05
1.60987e-05
1.60989e-05
1.6099e-05
1.60992e-05
1.60993e-05
1.60994e-05
1.60995e-05
1.60995e-05
1.60996e-05
1.60997e-05
1.61002e-05
1.61007e-05
1.60992e-05
1.60923e-05
1.60789e-05
1.60643e-05
1.6077e-05
1.61289e-05
1.62601e-05
1.64742e-05
1.67348e-05
1.69845e-05
1.7276e-05
1.72943e-05
1.69857e-05
1.6349e-05
1.55334e-05
1.43162e-05
1.30285e-05
1.19048e-05
1.10723e-05
1.04949e-05
1.01567e-05
1.60964e-05
1.60968e-05
1.6097e-05
1.60973e-05
1.60976e-05
1.6098e-05
1.60984e-05
1.60988e-05
1.60991e-05
1.60993e-05
1.60996e-05
1.60997e-05
1.60999e-05
1.61e-05
1.61001e-05
1.61002e-05
1.61002e-05
1.61003e-05
1.61003e-05
1.61005e-05
1.61011e-05
1.61013e-05
1.61001e-05
1.60945e-05
1.60841e-05
1.60724e-05
1.60642e-05
1.60735e-05
1.61151e-05
1.6192e-05
1.6329e-05
1.65176e-05
1.67332e-05
1.69484e-05
1.71325e-05
1.73323e-05
1.73765e-05
1.72283e-05
1.68942e-05
1.63849e-05
1.57695e-05
1.60954e-05
1.60961e-05
1.60966e-05
1.60972e-05
1.60978e-05
1.60984e-05
1.60989e-05
1.60993e-05
1.60997e-05
1.61e-05
1.61003e-05
1.61005e-05
1.61007e-05
1.61008e-05
1.6101e-05
1.61011e-05
1.61012e-05
1.61012e-05
1.61013e-05
1.61013e-05
1.61014e-05
1.61017e-05
1.61021e-05
1.61025e-05
1.61018e-05
1.60992e-05
1.60934e-05
1.60841e-05
1.60733e-05
1.60645e-05
1.60619e-05
1.60734e-05
1.61054e-05
1.6162e-05
1.62418e-05
1.63546e-05
1.64944e-05
1.66538e-05
1.68204e-05
1.69815e-05
1.71231e-05
1.60945e-05
1.60956e-05
1.60966e-05
1.60974e-05
1.60981e-05
1.60988e-05
1.60994e-05
1.60999e-05
1.61003e-05
1.61006e-05
1.6101e-05
1.61012e-05
1.61015e-05
1.61017e-05
1.61019e-05
1.6102e-05
1.61021e-05
1.61023e-05
1.61024e-05
1.61024e-05
1.61025e-05
1.61026e-05
1.61027e-05
1.61029e-05
1.61033e-05
1.61038e-05
1.6104e-05
1.61034e-05
1.61012e-05
1.60971e-05
1.60907e-05
1.60825e-05
1.60736e-05
1.60658e-05
1.60611e-05
1.60613e-05
1.6069e-05
1.60877e-05
1.61185e-05
1.61644e-05
1.6216e-05
1.6094e-05
1.60955e-05
1.60967e-05
1.60976e-05
1.60985e-05
1.60992e-05
1.60998e-05
1.61004e-05
1.61008e-05
1.61012e-05
1.61016e-05
1.61019e-05
1.61022e-05
1.61025e-05
1.61027e-05
1.61029e-05
1.61031e-05
1.61032e-05
1.61034e-05
1.61035e-05
1.61036e-05
1.61037e-05
1.61038e-05
1.61039e-05
1.61041e-05
1.61042e-05
1.61045e-05
1.61049e-05
1.61053e-05
1.61056e-05
1.61055e-05
1.61048e-05
1.6103e-05
1.61001e-05
1.60961e-05
1.60908e-05
1.60847e-05
1.6078e-05
1.60714e-05
1.60658e-05
1.60618e-05
1.60936e-05
1.60954e-05
1.60968e-05
1.60979e-05
1.60988e-05
1.60995e-05
1.61002e-05
1.61008e-05
1.61013e-05
1.61018e-05
1.61022e-05
1.61025e-05
1.61029e-05
1.61032e-05
1.61034e-05
1.61037e-05
1.61039e-05
1.61041e-05
1.61043e-05
1.61045e-05
1.61047e-05
1.61048e-05
1.6105e-05
1.61051e-05
1.61052e-05
1.61053e-05
1.61054e-05
1.61056e-05
1.61057e-05
1.6106e-05
1.61063e-05
1.61066e-05
1.6107e-05
1.61072e-05
1.61073e-05
1.61071e-05
1.61066e-05
1.61055e-05
1.6104e-05
1.61016e-05
1.60994e-05
1.60935e-05
1.60955e-05
1.60969e-05
1.6098e-05
1.60989e-05
1.60998e-05
1.61005e-05
1.61011e-05
1.61017e-05
1.61022e-05
1.61027e-05
1.61031e-05
1.61035e-05
1.61038e-05
1.61041e-05
1.61044e-05
1.61047e-05
1.61049e-05
1.61052e-05
1.61054e-05
1.61056e-05
1.61058e-05
1.6106e-05
1.61061e-05
1.61063e-05
1.61064e-05
1.61066e-05
1.61067e-05
1.61068e-05
1.61069e-05
1.6107e-05
1.61071e-05
1.61072e-05
1.61074e-05
1.61076e-05
1.61078e-05
1.6108e-05
1.61082e-05
1.61084e-05
1.61085e-05
1.61086e-05
1.60934e-05
1.60955e-05
1.60969e-05
1.60981e-05
1.60991e-05
1.60999e-05
1.61007e-05
1.61014e-05
1.6102e-05
1.61026e-05
1.61031e-05
1.61035e-05
1.6104e-05
1.61044e-05
1.61047e-05
1.61051e-05
1.61054e-05
1.61057e-05
1.61059e-05
1.61062e-05
1.61064e-05
1.61067e-05
1.61069e-05
1.61071e-05
1.61073e-05
1.61074e-05
1.61076e-05
1.61077e-05
1.61078e-05
1.61079e-05
1.6108e-05
1.61081e-05
1.61082e-05
1.61082e-05
1.61082e-05
1.61083e-05
1.61083e-05
1.61083e-05
1.61083e-05
1.61084e-05
1.61084e-05
1.60933e-05
1.60954e-05
1.60969e-05
1.6098e-05
1.60991e-05
1.61e-05
1.61008e-05
1.61015e-05
1.61022e-05
1.61028e-05
1.61034e-05
1.61039e-05
1.61044e-05
1.61048e-05
1.61052e-05
1.61056e-05
1.6106e-05
1.61063e-05
1.61066e-05
1.61069e-05
1.61072e-05
1.61075e-05
1.61077e-05
1.61079e-05
1.61082e-05
1.61083e-05
1.61085e-05
1.61087e-05
1.61088e-05
1.61089e-05
1.6109e-05
1.61091e-05
1.61091e-05
1.61092e-05
1.61092e-05
1.61092e-05
1.61092e-05
1.61092e-05
1.61091e-05
1.6109e-05
1.6109e-05
1.60931e-05
1.60952e-05
1.60967e-05
1.60979e-05
1.6099e-05
1.60999e-05
1.61008e-05
1.61016e-05
1.61023e-05
1.6103e-05
1.61036e-05
1.61042e-05
1.61047e-05
1.61052e-05
1.61057e-05
1.61061e-05
1.61065e-05
1.61069e-05
1.61072e-05
1.61076e-05
1.61079e-05
1.61082e-05
1.61085e-05
1.61087e-05
1.6109e-05
1.61092e-05
1.61093e-05
1.61095e-05
1.61097e-05
1.61098e-05
1.61099e-05
1.611e-05
1.611e-05
1.61101e-05
1.61101e-05
1.61101e-05
1.61101e-05
1.611e-05
1.611e-05
1.61099e-05
1.61098e-05
1.60929e-05
1.60949e-05
1.60964e-05
1.60977e-05
1.60988e-05
1.60998e-05
1.61007e-05
1.61015e-05
1.61023e-05
1.6103e-05
1.61037e-05
1.61044e-05
1.6105e-05
1.61055e-05
1.6106e-05
1.61065e-05
1.6107e-05
1.61074e-05
1.61078e-05
1.61082e-05
1.61085e-05
1.61089e-05
1.61092e-05
1.61094e-05
1.61097e-05
1.61099e-05
1.61101e-05
1.61103e-05
1.61105e-05
1.61106e-05
1.61107e-05
1.61108e-05
1.61108e-05
1.61109e-05
1.61109e-05
1.61109e-05
1.61109e-05
1.61108e-05
1.61107e-05
1.61106e-05
1.61106e-05
1.60925e-05
1.60946e-05
1.60961e-05
1.60973e-05
1.60984e-05
1.60995e-05
1.61004e-05
1.61014e-05
1.61022e-05
1.6103e-05
1.61038e-05
1.61045e-05
1.61051e-05
1.61057e-05
1.61063e-05
1.61069e-05
1.61074e-05
1.61078e-05
1.61083e-05
1.61087e-05
1.61091e-05
1.61095e-05
1.61098e-05
1.61101e-05
1.61104e-05
1.61106e-05
1.61108e-05
1.6111e-05
1.61112e-05
1.61113e-05
1.61115e-05
1.61116e-05
1.61116e-05
1.61117e-05
1.61117e-05
1.61117e-05
1.61116e-05
1.61116e-05
1.61115e-05
1.61114e-05
1.61113e-05
1.60921e-05
1.60941e-05
1.60955e-05
1.60968e-05
1.6098e-05
1.60991e-05
1.61001e-05
1.61011e-05
1.6102e-05
1.61029e-05
1.61037e-05
1.61045e-05
1.61052e-05
1.61059e-05
1.61065e-05
1.61071e-05
1.61077e-05
1.61082e-05
1.61087e-05
1.61091e-05
1.61096e-05
1.611e-05
1.61104e-05
1.61107e-05
1.6111e-05
1.61113e-05
1.61115e-05
1.61117e-05
1.61119e-05
1.61121e-05
1.61122e-05
1.61123e-05
1.61124e-05
1.61124e-05
1.61124e-05
1.61124e-05
1.61124e-05
1.61124e-05
1.61123e-05
1.61122e-05
1.61121e-05
1.60915e-05
1.60934e-05
1.60949e-05
1.60962e-05
1.60974e-05
1.60985e-05
1.60996e-05
1.61007e-05
1.61017e-05
1.61026e-05
1.61035e-05
1.61043e-05
1.61051e-05
1.61059e-05
1.61066e-05
1.61073e-05
1.61079e-05
1.61085e-05
1.6109e-05
1.61095e-05
1.611e-05
1.61105e-05
1.61109e-05
1.61112e-05
1.61116e-05
1.61119e-05
1.61121e-05
1.61124e-05
1.61126e-05
1.61127e-05
1.61129e-05
1.6113e-05
1.61131e-05
1.61131e-05
1.61132e-05
1.61132e-05
1.61132e-05
1.61131e-05
1.6113e-05
1.6113e-05
1.61129e-05
1.60908e-05
1.60926e-05
1.60941e-05
1.60954e-05
1.60966e-05
1.60978e-05
1.6099e-05
1.61001e-05
1.61011e-05
1.61022e-05
1.61031e-05
1.61041e-05
1.61049e-05
1.61058e-05
1.61065e-05
1.61073e-05
1.6108e-05
1.61086e-05
1.61092e-05
1.61098e-05
1.61103e-05
1.61108e-05
1.61113e-05
1.61117e-05
1.6112e-05
1.61124e-05
1.61127e-05
1.61129e-05
1.61131e-05
1.61133e-05
1.61135e-05
1.61136e-05
1.61137e-05
1.61138e-05
1.61139e-05
1.61139e-05
1.61139e-05
1.61138e-05
1.61138e-05
1.61137e-05
1.61136e-05
1.60899e-05
1.60917e-05
1.60931e-05
1.60944e-05
1.60957e-05
1.60969e-05
1.60981e-05
1.60993e-05
1.61004e-05
1.61015e-05
1.61026e-05
1.61036e-05
1.61045e-05
1.61054e-05
1.61063e-05
1.61071e-05
1.61078e-05
1.61085e-05
1.61092e-05
1.61098e-05
1.61104e-05
1.6111e-05
1.61115e-05
1.61119e-05
1.61123e-05
1.61127e-05
1.6113e-05
1.61133e-05
1.61136e-05
1.61138e-05
1.6114e-05
1.61141e-05
1.61143e-05
1.61144e-05
1.61144e-05
1.61145e-05
1.61145e-05
1.61145e-05
1.61144e-05
1.61144e-05
1.61143e-05
1.60889e-05
1.60905e-05
1.6092e-05
1.60933e-05
1.60946e-05
1.60958e-05
1.60971e-05
1.60983e-05
1.60995e-05
1.61006e-05
1.61017e-05
1.61028e-05
1.61038e-05
1.61048e-05
1.61057e-05
1.61066e-05
1.61074e-05
1.61082e-05
1.61089e-05
1.61096e-05
1.61103e-05
1.61109e-05
1.61114e-05
1.61119e-05
1.61124e-05
1.61128e-05
1.61132e-05
1.61135e-05
1.61138e-05
1.6114e-05
1.61142e-05
1.61144e-05
1.61146e-05
1.61147e-05
1.61148e-05
1.61148e-05
1.61149e-05
1.61149e-05
1.61149e-05
1.61148e-05
1.61148e-05
1.60876e-05
1.60892e-05
1.60906e-05
1.60919e-05
1.60932e-05
1.60945e-05
1.60957e-05
1.6097e-05
1.60982e-05
1.60994e-05
1.61006e-05
1.61017e-05
1.61028e-05
1.61038e-05
1.61048e-05
1.61058e-05
1.61067e-05
1.61075e-05
1.61083e-05
1.61091e-05
1.61098e-05
1.61104e-05
1.6111e-05
1.61116e-05
1.61121e-05
1.61126e-05
1.6113e-05
1.61133e-05
1.61137e-05
1.61139e-05
1.61142e-05
1.61144e-05
1.61146e-05
1.61147e-05
1.61148e-05
1.61149e-05
1.6115e-05
1.6115e-05
1.6115e-05
1.6115e-05
1.6115e-05
1.60862e-05
1.60877e-05
1.6089e-05
1.60903e-05
1.60916e-05
1.60928e-05
1.60941e-05
1.60953e-05
1.60966e-05
1.60978e-05
1.6099e-05
1.61002e-05
1.61014e-05
1.61025e-05
1.61035e-05
1.61046e-05
1.61055e-05
1.61064e-05
1.61073e-05
1.61081e-05
1.61089e-05
1.61096e-05
1.61103e-05
1.61109e-05
1.61114e-05
1.61119e-05
1.61124e-05
1.61128e-05
1.61131e-05
1.61134e-05
1.61137e-05
1.6114e-05
1.61142e-05
1.61143e-05
1.61145e-05
1.61146e-05
1.61147e-05
1.61148e-05
1.61148e-05
1.61148e-05
1.61148e-05
1.60846e-05
1.6086e-05
1.60872e-05
1.60884e-05
1.60896e-05
1.60908e-05
1.60921e-05
1.60933e-05
1.60946e-05
1.60958e-05
1.60971e-05
1.60983e-05
1.60995e-05
1.61007e-05
1.61018e-05
1.61029e-05
1.61039e-05
1.61049e-05
1.61058e-05
1.61067e-05
1.61075e-05
1.61083e-05
1.6109e-05
1.61097e-05
1.61103e-05
1.61108e-05
1.61113e-05
1.61118e-05
1.61122e-05
1.61125e-05
1.61128e-05
1.61131e-05
1.61133e-05
1.61135e-05
1.61137e-05
1.61138e-05
1.6114e-05
1.6114e-05
1.61141e-05
1.61142e-05
1.61142e-05
1.60827e-05
1.6084e-05
1.60851e-05
1.60862e-05
1.60873e-05
1.60885e-05
1.60897e-05
1.60909e-05
1.60921e-05
1.60934e-05
1.60947e-05
1.60959e-05
1.60972e-05
1.60984e-05
1.60996e-05
1.61007e-05
1.61018e-05
1.61029e-05
1.61038e-05
1.61048e-05
1.61057e-05
1.61065e-05
1.61072e-05
1.61079e-05
1.61086e-05
1.61092e-05
1.61097e-05
1.61102e-05
1.61106e-05
1.6111e-05
1.61113e-05
1.61116e-05
1.61119e-05
1.61121e-05
1.61124e-05
1.61125e-05
1.61127e-05
1.61128e-05
1.61129e-05
1.6113e-05
1.61131e-05
1.60806e-05
1.60817e-05
1.60827e-05
1.60837e-05
1.60847e-05
1.60857e-05
1.60869e-05
1.6088e-05
1.60892e-05
1.60905e-05
1.60918e-05
1.6093e-05
1.60943e-05
1.60955e-05
1.60968e-05
1.60979e-05
1.60991e-05
1.61002e-05
1.61012e-05
1.61022e-05
1.61031e-05
1.6104e-05
1.61048e-05
1.61056e-05
1.61063e-05
1.61069e-05
1.61075e-05
1.61081e-05
1.61085e-05
1.6109e-05
1.61094e-05
1.61097e-05
1.611e-05
1.61103e-05
1.61105e-05
1.61107e-05
1.61109e-05
1.6111e-05
1.61111e-05
1.61112e-05
1.61113e-05
1.60783e-05
1.60792e-05
1.608e-05
1.60808e-05
1.60817e-05
1.60826e-05
1.60836e-05
1.60847e-05
1.60859e-05
1.60871e-05
1.60883e-05
1.60895e-05
1.60907e-05
1.6092e-05
1.60932e-05
1.60944e-05
1.60956e-05
1.60967e-05
1.60978e-05
1.60988e-05
1.60998e-05
1.61007e-05
1.61015e-05
1.61023e-05
1.6103e-05
1.61037e-05
1.61043e-05
1.61048e-05
1.61054e-05
1.61058e-05
1.61062e-05
1.61066e-05
1.61069e-05
1.61072e-05
1.61075e-05
1.61077e-05
1.6108e-05
1.61081e-05
1.61083e-05
1.61085e-05
1.61086e-05
1.60756e-05
1.60763e-05
1.60769e-05
1.60776e-05
1.60783e-05
1.60791e-05
1.608e-05
1.60809e-05
1.60819e-05
1.6083e-05
1.60841e-05
1.60852e-05
1.60864e-05
1.60876e-05
1.60887e-05
1.60899e-05
1.6091e-05
1.60921e-05
1.60932e-05
1.60942e-05
1.60952e-05
1.60962e-05
1.60971e-05
1.6098e-05
1.60988e-05
1.60995e-05
1.61002e-05
1.61009e-05
1.61014e-05
1.6102e-05
1.61025e-05
1.61029e-05
1.61033e-05
1.61036e-05
1.61039e-05
1.61042e-05
1.61045e-05
1.61047e-05
1.61049e-05
1.6105e-05
1.61052e-05
1.60726e-05
1.60731e-05
1.60735e-05
1.60739e-05
1.60745e-05
1.6075e-05
1.60757e-05
1.60764e-05
1.60772e-05
1.6078e-05
1.60789e-05
1.60799e-05
1.60809e-05
1.6082e-05
1.60831e-05
1.60843e-05
1.60856e-05
1.60867e-05
1.60879e-05
1.6089e-05
1.609e-05
1.6091e-05
1.60919e-05
1.60927e-05
1.60935e-05
1.60942e-05
1.60949e-05
1.60955e-05
1.60961e-05
1.60966e-05
1.60971e-05
1.60976e-05
1.6098e-05
1.60983e-05
1.60987e-05
1.6099e-05
1.60993e-05
1.60995e-05
1.60997e-05
1.60999e-05
1.61001e-05
1.60693e-05
1.60695e-05
1.60696e-05
1.60698e-05
1.60701e-05
1.60703e-05
1.60706e-05
1.60709e-05
1.60713e-05
1.60717e-05
1.60721e-05
1.60726e-05
1.6073e-05
1.60735e-05
1.60739e-05
1.60744e-05
1.60748e-05
1.60752e-05
1.60755e-05
1.60759e-05
1.60763e-05
1.60767e-05
1.60771e-05
1.60775e-05
1.60779e-05
1.60784e-05
1.60788e-05
1.60792e-05
1.60796e-05
1.60801e-05
1.60804e-05
1.60808e-05
1.60812e-05
1.60815e-05
1.60819e-05
1.60822e-05
1.60825e-05
1.60827e-05
1.6083e-05
1.60833e-05
1.60835e-05
0.00336497
0.00692248
0.0106136
0.0134786
0.0147781
0.0141718
0.0116778
0.00756656
0.00278002
0.000237167
1.00221e-05
1.00142e-05
1.54031e-05
1.65926e-05
1.59912e-05
1.62408e-05
1.64191e-05
1.63178e-05
1.61594e-05
1.60929e-05
1.61036e-05
1.61249e-05
1.61275e-05
1.61194e-05
1.61128e-05
1.61095e-05
1.61075e-05
1.61057e-05
1.6104e-05
1.61028e-05
1.61019e-05
1.61011e-05
1.61005e-05
1.61e-05
1.60996e-05
1.60992e-05
1.60989e-05
1.60987e-05
1.60986e-05
1.60985e-05
1.60986e-05
1.60987e-05
1.60988e-05
1.60991e-05
1.60993e-05
1.60996e-05
1.60999e-05
1.61002e-05
1.61005e-05
1.61007e-05
1.61008e-05
1.61009e-05
1.61008e-05
1.61005e-05
1.61001e-05
1.60995e-05
1.60988e-05
1.60979e-05
1.60969e-05
1.60957e-05
1.60944e-05
1.60931e-05
1.60918e-05
1.60908e-05
1.60899e-05
1.60895e-05
1.60894e-05
1.60898e-05
1.60908e-05
1.60923e-05
1.60944e-05
1.60971e-05
1.60996e-05
1.61049e-05
0.00586038
0.0105794
0.014791
0.0178238
0.0191954
0.0186561
0.0162424
0.0121979
0.00682329
0.00180868
1.02239e-05
1.00002e-05
1.0131e-05
1.60264e-05
1.64249e-05
1.54556e-05
1.56533e-05
1.61159e-05
1.63276e-05
1.62834e-05
1.61698e-05
1.61073e-05
1.61015e-05
1.61128e-05
1.61168e-05
1.61132e-05
1.61089e-05
1.61066e-05
1.61054e-05
1.61044e-05
1.61034e-05
1.61025e-05
1.61019e-05
1.61013e-05
1.61008e-05
1.61004e-05
1.61e-05
1.60997e-05
1.60996e-05
1.60995e-05
1.60996e-05
1.60997e-05
1.60999e-05
1.61002e-05
1.61006e-05
1.6101e-05
1.61014e-05
1.61018e-05
1.61021e-05
1.61024e-05
1.61026e-05
1.61027e-05
1.61026e-05
1.61023e-05
1.61019e-05
1.61012e-05
1.61004e-05
1.60993e-05
1.60981e-05
1.60967e-05
1.60952e-05
1.60937e-05
1.60922e-05
1.60908e-05
1.60898e-05
1.60891e-05
1.60888e-05
1.60891e-05
1.60901e-05
1.60917e-05
1.60938e-05
1.60966e-05
1.60991e-05
1.61044e-05
0.00823129
0.0143817
0.0193206
0.0226334
0.0241615
0.0237702
0.0214957
0.0175664
0.0121986
0.00585867
0.00114713
0.000190734
1.00007e-05
1.01562e-05
1.71511e-05
1.794e-05
1.60866e-05
1.53239e-05
1.5504e-05
1.59722e-05
1.62728e-05
1.62752e-05
1.61617e-05
1.6097e-05
1.60949e-05
1.61093e-05
1.61139e-05
1.61105e-05
1.61069e-05
1.61054e-05
1.61049e-05
1.61042e-05
1.61035e-05
1.61027e-05
1.61021e-05
1.61016e-05
1.61012e-05
1.61009e-05
1.61007e-05
1.61006e-05
1.61007e-05
1.61009e-05
1.61012e-05
1.61015e-05
1.6102e-05
1.61025e-05
1.6103e-05
1.61034e-05
1.61039e-05
1.61042e-05
1.61045e-05
1.61046e-05
1.61045e-05
1.61042e-05
1.61036e-05
1.61029e-05
1.61019e-05
1.61007e-05
1.60993e-05
1.60977e-05
1.6096e-05
1.60942e-05
1.60924e-05
1.60908e-05
1.60895e-05
1.60886e-05
1.60882e-05
1.60885e-05
1.60894e-05
1.60911e-05
1.60933e-05
1.60961e-05
1.60987e-05
1.61039e-05
0.0105598
0.0183624
0.0241701
0.0278793
0.0296559
0.0294941
0.0274317
0.0236578
0.018418
0.0118672
0.00500459
0.000777786
0.000139936
1.00007e-05
1.00547e-05
1.62894e-05
2.10135e-05
1.88277e-05
1.65252e-05
1.54429e-05
1.54427e-05
1.58771e-05
1.62236e-05
1.62621e-05
1.6157e-05
1.60926e-05
1.60917e-05
1.61073e-05
1.61127e-05
1.61099e-05
1.61066e-05
1.61053e-05
1.61049e-05
1.61044e-05
1.61038e-05
1.61031e-05
1.61026e-05
1.61022e-05
1.6102e-05
1.61019e-05
1.6102e-05
1.61022e-05
1.61025e-05
1.6103e-05
1.61035e-05
1.61041e-05
1.61046e-05
1.61052e-05
1.61057e-05
1.61061e-05
1.61064e-05
1.61065e-05
1.61064e-05
1.6106e-05
1.61054e-05
1.61045e-05
1.61034e-05
1.6102e-05
1.61004e-05
1.60986e-05
1.60966e-05
1.60946e-05
1.60926e-05
1.60908e-05
1.60892e-05
1.60881e-05
1.60876e-05
1.60879e-05
1.60888e-05
1.60906e-05
1.60929e-05
1.60958e-05
1.60984e-05
1.61034e-05
0.0130471
0.0225813
0.0292935
0.033501
0.0356265
0.0357852
0.0340285
0.0304977
0.0254298
0.019015
0.0115505
0.00451025
0.000607032
0.000179967
1.00001e-05
1.00308e-05
1.12599e-05
1.72212e-05
2.11052e-05
1.96127e-05
1.69527e-05
1.55748e-05
1.54605e-05
1.58435e-05
1.61815e-05
1.62472e-05
1.61617e-05
1.60966e-05
1.60903e-05
1.61049e-05
1.61121e-05
1.61104e-05
1.61071e-05
1.61055e-05
1.61051e-05
1.61048e-05
1.61043e-05
1.61038e-05
1.61035e-05
1.61034e-05
1.61035e-05
1.61037e-05
1.61041e-05
1.61045e-05
1.61051e-05
1.61058e-05
1.61064e-05
1.61071e-05
1.61076e-05
1.61081e-05
1.61084e-05
1.61085e-05
1.61083e-05
1.61079e-05
1.61071e-05
1.61061e-05
1.61049e-05
1.61033e-05
1.61015e-05
1.60994e-05
1.60972e-05
1.60949e-05
1.60927e-05
1.60906e-05
1.60889e-05
1.60877e-05
1.60871e-05
1.60873e-05
1.60883e-05
1.60902e-05
1.60926e-05
1.60954e-05
1.60981e-05
1.61029e-05
0.0166981
0.0271069
0.0346349
0.0394155
0.0419851
0.0425594
0.0412135
0.0380478
0.0332529
0.0270544
0.0196674
0.0116195
0.0046094
0.000822273
0.000362053
1.00409e-05
1.00034e-05
1.00325e-05
1.06757e-05
1.56182e-05
2.02681e-05
2.02555e-05
1.73977e-05
1.5678e-05
1.54491e-05
1.58025e-05
1.61419e-05
1.62337e-05
1.61676e-05
1.61023e-05
1.60899e-05
1.61026e-05
1.61115e-05
1.61114e-05
1.61081e-05
1.61061e-05
1.61055e-05
1.61054e-05
1.61053e-05
1.61051e-05
1.61051e-05
1.61053e-05
1.61057e-05
1.61063e-05
1.61069e-05
1.61076e-05
1.61083e-05
1.6109e-05
1.61096e-05
1.61101e-05
1.61104e-05
1.61104e-05
1.61102e-05
1.61097e-05
1.61089e-05
1.61077e-05
1.61062e-05
1.61045e-05
1.61024e-05
1.61001e-05
1.60977e-05
1.60952e-05
1.60927e-05
1.60904e-05
1.60885e-05
1.60872e-05
1.60866e-05
1.60868e-05
1.60879e-05
1.60898e-05
1.60923e-05
1.60951e-05
1.60978e-05
1.61025e-05
0.0214447
0.0319347
0.040153
0.0455265
0.0486096
0.0496861
0.0488566
0.0461912
0.0418217
0.0359512
0.0288234
0.0207422
0.0124799
0.0056619
0.00170609
3.08979e-05
0.000282221
3.20893e-05
1.00017e-05
1.0021e-05
1.01201e-05
1.36453e-05
1.88826e-05
2.07752e-05
1.80488e-05
1.58953e-05
1.54556e-05
1.57471e-05
1.61056e-05
1.6235e-05
1.61836e-05
1.61118e-05
1.60896e-05
1.60991e-05
1.611e-05
1.61122e-05
1.61096e-05
1.61073e-05
1.61065e-05
1.61067e-05
1.6107e-05
1.61072e-05
1.61075e-05
1.61081e-05
1.61087e-05
1.61095e-05
1.61103e-05
1.6111e-05
1.61117e-05
1.61122e-05
1.61124e-05
1.61124e-05
1.61121e-05
1.61115e-05
1.61105e-05
1.61092e-05
1.61075e-05
1.61056e-05
1.61033e-05
1.61008e-05
1.60981e-05
1.60953e-05
1.60927e-05
1.60902e-05
1.60882e-05
1.60868e-05
1.60862e-05
1.60865e-05
1.60876e-05
1.60896e-05
1.60921e-05
1.60949e-05
1.60976e-05
1.61021e-05
0.0270393
0.0370858
0.0458133
0.0517224
0.0553439
0.0569867
0.0567665
0.054733
0.0509615
0.0455986
0.0388751
0.031081
0.0226786
0.0145906
0.00805548
0.00377057
0.0015003
0.000328045
0.000432334
0.000125191
1.00003e-05
1.00095e-05
1e-05
1.18829e-05
1.72077e-05
2.12681e-05
1.88715e-05
1.63406e-05
1.55316e-05
1.56601e-05
1.60342e-05
1.62325e-05
1.62128e-05
1.61337e-05
1.60943e-05
1.60955e-05