/*--------------------------------*- C++ -*----------------------------------*\
| =========                 |                                                 |
| \\      /  F ield         | OpenFOAM: The Open Source CFD Toolbox           |
|  \\    /   O peration     | Version:  2312                                  |
|   \\  /    A nd           | Website:  www.openfoam.com                      |
|    \\/     M anipulation  |                                                 |
\*---------------------------------------------------------------------------*/
FoamFile
{
    version     2.0;
    format      ascii;
    arch        "LSB;label=32;scalar=64";
    class       volScalarField;
    location    "550";
    object      turbulenceProperties:I;
}
// * * * * * * * * * * * * * * * * * * * * * * * * * * * * * * * * * * * * * //

dimensions      [0 0 0 0 0 0 0];

internalField   nonuniform List<scalar> 
11040
(
0.058891
0.0920948
1
0.095774
0.271198
0.287961
0.290082
0.291653
0.288396
0.287414
0.28486
0.282614
0.28004
0.277958
0.275841
0.274614
0.274663
0.275897
0.277549
0.279245
0.280924
0.282543
0.283419
0.283097
0.282041
0.281431
0.281158
0.280842
0.28081
0.281495
0.283666
0.288274
0.295695
0.310714
0.339143
0.357132
0.343301
0.439458
0.850242
0.463531
0.725093
0.0186449
0.0238891
0.0667214
0.345593
0.606587
0.318977
0.170026
0.102663
0.0565866
0.0393139
0.0672643
0.0798315
0.0875526
0.0927379
0.095985
0.0984206
0.10074
0.103086
0.10487
0.105893
0.10621
0.106009
0.104421
0.100873
0.0958701
0.0909707
0.0860898
0.0804865
0.0741603
0.0674593
0.0618166
0.0602706
0.0627873
0.0736679
0.095621
0.133277
0.204313
0.38062
1
0.520948
0.914898
0.0161676
0.012673
0.0183515
0.0526716
0.308076
1
0.615486
0.328295
0.219407
0.167224
0.124754
0.0948616
0.0667396
0.0380763
0.0290136
0.0467055
0.0557879
0.0608491
0.0635628
0.0644833
0.0640632
0.0625645
0.0593794
0.0544632
0.0486481
0.0430028
0.0381718
0.0344164
0.0322706
0.0359938
0.0489224
0.0678756
0.0905771
0.119374
0.159173
0.220673
0.3322
0.58997
1
0.955285
0.695566
0.0142934
0.0115635
0.00933634
0.0114472
0.0550253
0.240462
1
1
0.534326
0.356085
0.258608
0.205959
0.168515
0.139682
0.118628
0.101448
0.0892816
0.0802176
0.0742994
0.0711022
0.0697612
0.0700446
0.0719331
0.0747066
0.077244
0.0789863
0.0797455
0.0794735
0.0785551
0.0786773
0.0837395
0.0979077
0.122183
0.157839
0.209403
0.289391
0.43083
0.730917
1
1
0.6703
0.0128608
0.010915
0.0101463
0.00661466
0.00733979
0.0477518
0.181358
0.737
1
0.948594
0.540019
0.380102
0.297023
0.241438
0.206156
0.178865
0.160348
0.146446
0.136726
0.130148
0.125506
0.122339
0.120651
0.120105
0.119809
0.119219
0.118037
0.116083
0.113544
0.111556
0.113481
0.125389
0.151891
0.194448
0.256793
0.351582
0.511443
0.815345
1
1
0.767655
0.0112913
0.00976217
0.0088592
0.00858491
0.00448935
0.00350449
0.0361403
0.130359
0.410618
1
1
0.870873
0.566023
0.415461
0.334831
0.279884
0.245012
0.220128
0.202743
0.19081
0.18205
0.17548
0.170786
0.167621
0.16507
0.162541
0.159593
0.155847
0.151186
0.146277
0.144044
0.152134
0.17937
0.228031
0.299827
0.405397
0.571953
0.849747
1
1
0.909865
0.00976078
0.00876111
0.00786933
0.00759755
0.00724599
0.00306246
0.000542192
0.0229084
0.088986
0.254818
0.780625
1
1
0.875652
0.600039
0.460024
0.378735
0.325487
0.290316
0.267262
0.251136
0.239554
0.231132
0.225042
0.220012
0.215258
0.210169
0.20414
0.196703
0.187978
0.179941
0.180497
0.204089
0.256576
0.335823
0.44743
0.609309
0.843617
1
1
1
0.00840056
0.0077402
0.0072003
0.00664976
0.00655093
0.00637704
0.00143716
0.000106157
0.011833
0.0564547
0.159346
0.407408
1
1
1
0.924693
0.653461
0.515867
0.433651
0.381859
0.348215
0.326476
0.311401
0.300669
0.292002
0.284102
0.276038
0.266912
0.255789
0.242199
0.226628
0.214701
0.225518
0.276453
0.360654
0.473796
0.62232
0.808452
0.988325
1
1
0.0072185
0.00676011
0.00641101
0.00606505
0.00566407
0.00575281
0.00541597
0.00201931
0.00163365
0.00198855
0.0310822
0.0960193
0.23578
0.568748
1
1
1
1
0.734694
0.591973
0.509322
0.46087
0.430291
0.409763
0.394152
0.380516
0.367271
0.353183
0.336916
0.317122
0.292562
0.264184
0.247075
0.281434
0.367558
0.479906
0.611278
0.753611
0.876755
0.994794
0.975114
0.0061869
0.00586693
0.00563001
0.00542141
0.00517712
0.00489589
0.00499637
0.00459857
0.00259442
0.000828581
0.00351192
0.0146554
0.0539296
0.137233
0.307516
0.702567
1
1
1
1
0.864414
0.716888
0.636077
0.586983
0.553658
0.528014
0.505407
0.482687
0.457727
0.428698
0.393121
0.34742
0.291305
0.264458
0.342518
0.458762
0.576615
0.685403
0.769351
0.839951
0.856848
0.00529553
0.00507007
0.00490852
0.00477212
0.00463821
0.00445905
0.00427995
0.00428348
0.00417245
0.00281308
0.000704907
0.00169344
0.00143965
0.025143
0.0749885
0.171649
0.359394
0.770353
1
1
1
1
1
0.955162
0.853332
0.786431
0.736798
0.694657
0.654313
0.611266
0.560821
0.497131
0.411774
0.289754
0.233839
0.39147
0.514789
0.605742
0.664892
0.704428
0.723344
0.0045274
0.0043679
0.0042533
0.00416671
0.00408433
0.00399544
0.00387401
0.00374387
0.00370618
0.00368146
0.00295899
0.000627685
0.000414338
0.00304287
0.00826365
0.0356885
0.0912402
0.193284
0.381635
0.761992
1
1
1
1
1
1
1
1
1
0.950077
0.870336
0.780652
0.672333
0.535642
0.35939
0.28937
0.431676
0.52131
0.566532
0.584932
0.593231
0.00386733
0.00375432
0.0036717
0.00361501
0.00356816
0.00351879
0.00346142
0.00338348
0.00328912
0.0032333
0.00323216
0.00296141
0.00148615
0.000451464
0.000977569
0.0043835
0.0122009
0.0424138
0.09917
0.198741
0.373197
0.681722
1
1
1
1
1
1
1
1
1
1
1
1
0.864962
0.686971
0.583402
0.551012
0.537974
0.516885
0.495401
0.00330071
0.00322104
0.00316055
0.00312276
0.00309746
0.00307391
0.00304639
0.00301229
0.00296485
0.00290043
0.00284125
0.00285731
0.00277042
0.00209906
0.000309572
0.000178858
0.00152821
0.0054368
0.0144208
0.0441455
0.0979386
0.184283
0.314344
0.509265
0.789372
1
1
1
1
1
1
1
1
1
1
1
1
0.992024
0.811407
0.687027
0.581541
0.00281425
0.00275855
0.0027139
0.0026886
0.00267626
0.00266832
0.00265973
0.00264762
0.00263022
0.00260437
0.00256299
0.00251894
0.00251631
0.00249486
0.00231135
0.001249
0.000410608
5.49116e-05
0.00202785
0.00554864
0.0138741
0.0391896
0.0795593
0.138847
0.221643
0.334382
0.483782
0.670488
0.883841
1
1
1
1
1
1
1
1
1
1
1
1
0.00239664
0.00235795
0.00232487
0.00230797
0.00230347
0.0023044
0.00230668
0.00230818
0.00230693
0.00230134
0.00228996
0.00226737
0.00224056
0.00221793
0.00223963
0.00214838
0.00187946
0.000534844
0.000243481
2.6431e-05
0.0021667
0.00453744
0.00817651
0.0240801
0.0490051
0.084632
0.132391
0.194266
0.272401
0.36864
0.483143
0.613849
0.758676
0.92019
1
1
1
1
1
1
1
0.00204105
0.00201425
0.00198984
0.00197878
0.00197888
0.00198447
0.00199243
0.00200106
0.00200891
0.00201446
0.00201666
0.0020145
0.00200649
0.00199039
0.00197805
0.00197579
0.0019876
0.00185412
0.00144292
0.000266144
0.000176267
2.06236e-05
0.00120092
0.00348276
0.00275667
0.00896459
0.0204663
0.0385741
0.0631405
0.0948831
0.134519
0.182764
0.240289
0.307834
0.386021
0.475301
0.57711
0.69588
0.839284
1
1
0.00174909
0.00173055
0.0017127
0.00170598
0.001709
0.00171716
0.00172797
0.00174016
0.00175248
0.00176379
0.00177311
0.00177975
0.00178326
0.00178299
0.00177711
0.00176928
0.00176462
0.0017805
0.0017706
0.00163334
0.00119758
0.000209611
0.000159987
3.78689e-05
0.000392325
0.00143376
0.00290654
0.00375433
0.00256556
0.00867721
0.0189161
0.0331427
0.0516301
0.0747616
0.102878
0.136149
0.174765
0.219369
0.270366
0.328971
0.394552
0.00151545
0.00150261
0.00148952
0.00148583
0.00149062
0.00150007
0.00151225
0.00152621
0.00154094
0.00155539
0.0015687
0.00158023
0.00158945
0.00159624
0.00160008
0.00160094
0.00159723
0.00159592
0.00160061
0.00161348
0.00159348
0.00145051
0.00118378
0.00038528
0.000186516
9.01608e-05
2.31987e-05
0
0.00029523
0.00127785
0.00272382
0.00320088
0.00335583
0.00258478
0.0090864
0.0178747
0.0294326
0.0438826
0.0612993
0.0818653
0.105478
0.00132686
0.00131785
0.00130814
0.00130648
0.00131218
0.00132205
0.00133456
0.00134895
0.00136443
0.00138012
0.00139533
0.00140953
0.00142222
0.00143304
0.00144176
0.00144838
0.00145257
0.00145413
0.00145387
0.00145707
0.00146636
0.00147302
0.00146225
0.00136931
0.0011783
0.000923457
0.000250542
0.000147848
8.24587e-05
5.91311e-05
7.46976e-06
0
0
0.000272316
0.00139964
0.00263521
0.00311707
0.00243519
0.00339957
0.00298355
0.00879256
0.00117092
0.00116453
0.00115732
0.00115705
0.00116317
0.00117304
0.00118538
0.00119958
0.00121496
0.00123081
0.00124655
0.00126174
0.001276
0.00128898
0.00130043
0.00131019
0.00131825
0.00132454
0.00132889
0.00133159
0.00133373
0.00133967
0.00134801
0.00136271
0.00135625
0.00133095
0.00124774
0.00110294
0.000907789
0.000672671
8.92485e-05
0.000102603
7.31422e-05
5.74593e-05
4.02143e-05
5.61942e-06
0
0
0
0.000298704
0.00128098
0.00103984
0.00103532
0.00103001
0.00103072
0.00103699
0.0010466
0.00105851
0.00107217
0.00108703
0.00110249
0.00111802
0.00113327
0.00114794
0.00116171
0.00117437
0.00118576
0.00119577
0.00120439
0.00121162
0.00121758
0.00122176
0.00122506
0.00122837
0.00123474
0.00124409
0.00125324
0.00126509
0.00126357
0.00124423
0.00121392
0.0011408
0.00102896
0.000892599
0.000717609
0.000519256
7.57575e-05
8.61399e-05
6.38248e-05
5.48877e-05
4.4872e-05
3.31009e-05
0.000928107
0.000924926
0.000921094
0.000922494
0.000928725
0.000937938
0.000949261
0.000962221
0.000976328
0.000991059
0.00100598
0.00102078
0.0010352
0.00104898
0.00106192
0.00107387
0.00108473
0.00109442
0.00110293
0.00111038
0.00111643
0.00112123
0.00112533
0.00112862
0.00113222
0.00113638
0.00114263
0.00115087
0.0011595
0.00116668
0.00117598
0.00117567
0.00116483
0.00114274
0.00111337
0.00105789
0.000981128
0.000887026
0.000780707
0.000654025
0.000498034
0.000831803
0.000829608
0.000826942
0.000828822
0.000834905
0.000843653
0.000854324
0.000866499
0.000879737
0.00089359
0.000907679
0.00092174
0.000935532
0.00094884
0.000961483
0.000973324
0.000984262
0.000994221
0.00100315
0.00101114
0.00101783
0.00102337
0.00102826
0.00103221
0.00103539
0.00103802
0.00104027
0.00104256
0.00104534
0.00104853
0.00105309
0.00105859
0.00106412
0.00106893
0.00107239
0.00107694
0.0010767
0.00107077
0.0010593
0.00104168
0.00101952
0.000748028
0.000746562
0.000744821
0.000747034
0.000752903
0.000761153
0.000771147
0.000782504
0.000794829
0.00080773
0.000820879
0.000834032
0.000846985
0.00085955
0.000871565
0.000882904
0.000893467
0.000903174
0.000911967
0.000919899
0.000926617
0.000932216
0.000937129
0.000941147
0.000944346
0.000946862
0.000948749
0.000950032
0.000950798
0.000951134
0.000951123
0.000950987
0.000950878
0.000950896
0.000950938
0.000951331
0.000951935
0.000952509
0.000952862
0.000952622
0.000950972
0.000674582
0.000673671
0.000672674
0.000675111
0.000680733
0.000688482
0.000697805
0.000708353
0.000719765
0.000731703
0.000743871
0.00075605
0.000768066
0.000779743
0.00079094
0.000801545
0.00081146
0.000820606
0.000828918
0.000836427
0.000842793
0.000848086
0.000852695
0.000856403
0.000859278
0.000861435
0.000862946
0.000863841
0.000864152
0.000863908
0.000863125
0.000861829
0.000860049
0.000857845
0.000855265
0.000852297
0.000849045
0.000845585
0.000842005
0.000838428
0.000833306
0.000609776
0.00060928
0.00060889
0.000611483
0.000616846
0.000624108
0.000632784
0.000642549
0.000653079
0.000664069
0.000675262
0.000686458
0.000697506
0.000708234
0.000718528
0.000728283
0.000737412
0.000745832
0.000753478
0.000760368
0.000766179
0.000770974
0.000775107
0.000778373
0.000780814
0.000782533
0.000783596
0.000784041
0.000783906
0.00078323
0.000782045
0.000780384
0.000778261
0.000775713
0.000772768
0.000769417
0.0007657
0.000761632
0.000757306
0.000752763
0.000746929
0.000552263
0.000552099
0.000552209
0.000554906
0.000560016
0.000566817
0.000574883
0.000583907
0.000593598
0.000603682
0.000613932
0.00062417
0.000634252
0.000644027
0.000653391
0.000662256
0.000670538
0.000678159
0.000685055
0.000691233
0.000696394
0.000700602
0.000704185
0.000706949
0.000708926
0.000710213
0.000710864
0.000710921
0.000710418
0.0007094
0.000707902
0.000705965
0.000703612
0.000700887
0.000697826
0.000694433
0.000690746
0.00068677
0.00068264
0.000678259
0.000672948
0.000500981
0.000501078
0.000501611
0.000504386
0.000509256
0.000515632
0.000523131
0.000531468
0.000540374
0.000549608
0.000558966
0.000568289
0.00057744
0.000586294
0.000594748
0.000602728
0.000610161
0.000616972
0.000623097
0.00062854
0.00063303
0.000636632
0.000639655
0.000641922
0.000643451
0.000644335
0.000644631
0.000644377
0.000643609
0.000642368
0.000640692
0.000638623
0.000636186
0.000633424
0.000630377
0.000627052
0.000623486
0.000619672
0.000615797
0.000611621
0.000606886
0.000455056
0.000455381
0.000456272
0.000459109
0.000463765
0.000469756
0.000476736
0.00048444
0.000492623
0.000501071
0.000509597
0.000518064
0.000526343
0.000534329
0.000541918
0.000549052
0.000555666
0.000561696
0.000567079
0.000571814
0.000575661
0.000578689
0.000581189
0.000582997
0.000584133
0.000584678
0.000584688
0.0005842
0.000583252
0.000581883
0.000580131
0.000578038
0.000575627
0.000572941
0.000570021
0.000566879
0.000563545
0.000560001
0.000556485
0.000552586
0.0005486
0.000413781
0.000414304
0.000415518
0.00041841
0.000422877
0.000428524
0.000435035
0.000442163
0.000449686
0.000457412
0.000465175
0.000472849
0.000480323
0.000487501
0.000494288
0.000500632
0.000506483
0.00051178
0.000516472
0.000520551
0.000523809
0.000526317
0.00052835
0.000529757
0.000530557
0.000530827
0.000530621
0.000529972
0.000528918
0.000527498
0.000525748
0.000523709
0.000521406
0.000518878
0.000516165
0.000513283
0.000510256
0.000507051
0.000503962
0.000500371
0.000497274
0.000376565
0.000377281
0.000378781
0.000381728
0.000386036
0.000391379
0.000397473
0.000404084
0.000411012
0.000418084
0.000425154
0.000432106
0.000438845
0.000445284
0.000451338
0.000456961
0.000462115
0.000466746
0.000470811
0.000474298
0.000477034
0.000479088
0.00048072
0.000481792
0.000482323
0.000482384
0.000482028
0.00048129
0.000480203
0.000478803
0.000477127
0.000475212
0.000473081
0.000470771
0.000468321
0.000465745
0.000463064
0.00046023
0.000457595
0.000454309
0.000452169
0.000342913
0.000343819
0.000345589
0.000348594
0.000352771
0.000357853
0.000363581
0.000369733
0.00037613
0.000382616
0.000389064
0.000395366
0.000401443
0.000407213
0.00041261
0.000417584
0.000422112
0.000426148
0.000429655
0.000432622
0.000434903
0.000436569
0.000437863
0.00043866
0.000438979
0.000438888
0.000438437
0.00043766
0.000436589
0.000435258
0.0004337
0.00043195
0.00043003
0.00042797
0.000425809
0.000423561
0.000421244
0.00041879
0.000416615
0.000413618
0.000412477
0.000312412
0.000313518
0.000315534
0.000318608
0.000322683
0.000327546
0.000332954
0.000338703
0.000344631
0.0003506
0.000356492
0.000362219
0.000367702
0.000372879
0.000377692
0.000382095
0.00038607
0.000389587
0.000392611
0.000395136
0.000397038
0.000398394
0.000399424
0.000400018
0.000400191
0.000400014
0.000399529
0.00039877
0.000397764
0.000396546
0.000395145
0.000393593
0.000391909
0.00039012
0.000388264
0.000386349
0.000384397
0.000382317
0.000380587
0.000377861
0.000377699
0.000284707
0.00028602
0.000288277
0.000291425
0.000295427
0.000300108
0.000305243
0.000310644
0.000316162
0.000321677
0.000327082
0.0003323
0.000337263
0.000341918
0.000346217
0.000350119
0.000353612
0.000356675
0.000359283
0.000361429
0.000363013
0.000364111
0.000364925
0.000365358
0.000365426
0.000365194
0.000364704
0.000363987
0.000363069
0.000361982
0.000360753
0.00035941
0.000357969
0.000356455
0.000354901
0.000353316
0.000351717
0.000350001
0.000348693
0.000346211
0.000347027
0.000259496
0.000261032
0.000263516
0.000266751
0.000270705
0.00027524
0.000280147
0.000285251
0.000290417
0.000295537
0.00030052
0.000305295
0.000309806
0.000314007
0.000317863
0.000321338
0.000324425
0.000327112
0.000329382
0.00033123
0.00033258
0.000333501
0.00033418
0.000334528
0.000334561
0.00033434
0.000333905
0.000333282
0.000332497
0.000331576
0.000330544
0.000329429
0.000328241
0.000327002
0.000325744
0.000324472
0.000323205
0.000321825
0.000320896
0.000318647
0.000320305
0.000236522
0.000238292
0.000240999
0.000244327
0.00024826
0.000252684
0.000257404
0.000262258
0.000267123
0.000271906
0.000276523
0.000280915
0.000285033
0.000288842
0.000292313
0.000295419
0.000298152
0.00030051
0.000302483
0.000304067
0.000305206
0.000305967
0.000306523
0.00030679
0.000306788
0.000306575
0.000306188
0.000305651
0.000304987
0.000304221
0.000303375
0.000302473
0.000301523
0.000300546
0.000299567
0.000298591
0.000297636
0.000296572
0.000295996
0.00029395
0.00029646
0.000215567
0.000217583
0.000220504
0.000223939
0.000227875
0.000232216
0.000236786
0.000241429
0.000246039
0.00025053
0.000254835
0.000258899
0.000262686
0.000266167
0.000269325
0.000272139
0.000274607
0.000276729
0.000278507
0.000279935
0.000280979
0.00028169
0.000282229
0.000282516
0.000282573
0.000282449
0.000282182
0.00028179
0.000281295
0.000280719
0.000280081
0.000279403
0.000278691
0.000277962
0.000277241
0.000276531
0.000275847
0.000275057
0.00027476
0.000272934
0.000275984
0.000196444
0.000198715
0.000201845
0.000205397
0.000209357
0.000213641
0.000218086
0.00022255
0.00022694
0.00023118
0.000235215
0.000238995
0.000242494
0.000245682
0.000248552
0.000251091
0.000253293
0.000255166
0.000256718
0.000257946
0.000258831
0.000259428
0.000259883
0.000260124
0.000260171
0.000260075
0.000259868
0.00025957
0.000259197
0.000258769
0.000258305
0.00025782
0.000257321
0.000256821
0.00025634
0.000255877
0.000255451
0.000254923
0.000254903
0.000253241
0.000256994
0.000178987
0.000181519
0.00018485
0.000188528
0.000192526
0.000196771
0.000201109
0.000205416
0.00020961
0.000213633
0.000217438
0.000220986
0.000224257
0.000227235
0.000229924
0.000232318
0.000234413
0.000236216
0.000237734
0.000238971
0.000239912
0.00024059
0.000241144
0.000241505
0.000241692
0.000241751
0.000241711
0.000241587
0.000241397
0.000241157
0.000240884
0.000240593
0.00024029
0.000239986
0.000239699
0.000239431
0.000239195
0.000238866
0.000239
0.000237612
0.000241367
0.000163046
0.000165856
0.000169394
0.000173198
0.00017723
0.000181426
0.000185661
0.000189823
0.000193842
0.00019767
0.000201267
0.000204605
0.000207659
0.000210401
0.000212825
0.000214939
0.000216751
0.000218284
0.000219557
0.000220575
0.00022134
0.000221896
0.000222358
0.000222667
0.00022284
0.00022292
0.000222934
0.000222894
0.000222814
0.000222709
0.00022259
0.000222469
0.00022235
0.000222239
0.00022215
0.000222081
0.000222047
0.00022192
0.000222262
0.000220953
0.000225404
0.000148541
0.000151652
0.000155409
0.000159342
0.000163384
0.000167495
0.000171588
0.000175588
0.000179443
0.000183105
0.000186536
0.000189719
0.000192659
0.000195379
0.000197891
0.000200169
0.000202178
0.000203916
0.000205395
0.000206631
0.000207625
0.000208393
0.000209054
0.000209553
0.00020991
0.000210168
0.000210349
0.000210467
0.000210536
0.000210572
0.000210588
0.000210595
0.000210599
0.000210607
0.000210632
0.00021068
0.000210749
0.000210756
0.000211115
0.000210265
0.000213831
0.000135507
0.000138883
0.000142813
0.000146838
0.000150865
0.000154863
0.000158776
0.000162565
0.000166213
0.000169704
0.000172995
0.000176021
0.000178708
0.000181001
0.000182921
0.00018457
0.00018603
0.000187324
0.000188455
0.000189408
0.000190188
0.000190835
0.000191426
0.000191905
0.000192286
0.000192602
0.000192874
0.000193111
0.00019332
0.000193512
0.000193694
0.000193874
0.000194052
0.000194232
0.00019442
0.000194611
0.000194822
0.000194939
0.000195445
0.000194389
0.000199104
0.000123874
0.000127423
0.000131371
0.000135327
0.00013923
0.000143092
0.000146869
0.000150499
0.000153946
0.000157206
0.000160322
0.000163363
0.000166391
0.000169426
0.000172383
0.000175047
0.000177289
0.000179158
0.000180728
0.000182057
0.000183159
0.000184028
0.000184786
0.000185395
0.00018588
0.000186277
0.000186606
0.000186882
0.000187117
0.000187325
0.00018752
0.000187712
0.000187906
0.00018811
0.000188333
0.000188585
0.00018885
0.000189108
0.000189528
0.000189421
0.000191684
0.000113201
0.000116997
0.000120923
0.000124637
0.000128177
0.000131681
0.000135207
0.00013874
0.00014221
0.000145481
0.000148385
0.000150771
0.000152575
0.000153839
0.000154794
0.000155873
0.000157239
0.000158694
0.000160109
0.000161407
0.000162589
0.000163687
0.000164718
0.00016564
0.000166458
0.000167198
0.000167876
0.000168496
0.000169064
0.000169588
0.000170072
0.000170521
0.000170935
0.000171315
0.000171663
0.000171973
0.000172265
0.000172436
0.000172914
0.000171822
0.000176678
0.00010334
0.000107856
0.000112195
0.000115929
0.000119105
0.000121957
0.000124678
0.000127429
0.000130362
0.00013361
0.000137265
0.000141342
0.000145746
0.000150289
0.000154619
0.00015808
0.000160536
0.000162457
0.00016404
0.000165371
0.000166443
0.000167279
0.000167981
0.000168537
0.000168976
0.000169331
0.000169624
0.000169873
0.000170093
0.0001703
0.000170509
0.000170732
0.000170977
0.000171252
0.000171566
0.000171937
0.000172325
0.000172806
0.000173192
0.000174133
0.000173842
9.56293e-05
0.000100454
0.000105003
0.000109043
0.00011254
0.000115537
0.000118024
0.000119982
0.000121439
0.000122473
0.000123196
0.000123732
0.000124208
0.000124652
0.000125179
0.000126515
0.00012868
0.000131038
0.000133391
0.00013562
0.000137708
0.000139659
0.000141489
0.000143185
0.00014474
0.000146165
0.000147469
0.000148654
0.000149721
0.000150673
0.000151507
0.000152223
0.00015282
0.000153293
0.000153639
0.000153846
0.000153943
0.000153808
0.000153887
0.000152131
0.000156805
0.000100048
0.000106368
0.000109744
0.000110544
0.000109881
0.000109258
0.000110062
0.00011296
0.000117658
0.00012332
0.000129117
0.000134489
0.000139133
0.000143006
0.000146072
0.00014777
0.000148259
0.000148192
0.00014788
0.000147446
0.00014684
0.000146333
0.000145743
0.000145134
0.000144537
0.000143962
0.000143414
0.000142895
0.000142409
0.000141954
0.000141524
0.000141113
0.000140704
0.000140282
0.000139839
0.000139378
0.000138806
0.000138255
0.000137229
0.000137505
0.000133257
0.442512
0.351083
0.30909
0.26804
0.220811
0.168
0.111272
0.052535
0.0211136
0.00828917
0.00057273
0.000481245
0.00204749
0.002051
0.00189227
0.00179628
0.00167998
0.00155046
0.0014053
0.00128391
0.00115792
0.0010489
0.000942932
0.000846192
0.000757375
0.000679229
0.000605677
0.000543846
0.000488488
0.00043885
0.000396947
0.000357383
0.00032526
0.000294977
0.000265766
0.000241406
0.000215731
0.0001923
0.000165646
0.000143941
0.000112775
7.57455e-05
6.46856e-05
9.18799e-05
0.000118043
0.000139594
0.000156912
0.000170606
0.000181924
0.00019123
0.000198103
0.000203096
0.000206062
0.000207192
0.000206441
0.000204247
0.000200185
0.00019506
0.00018831
0.000180955
0.000172041
0.000163111
0.000153087
0.000142604
0.00013202
0.000120573
0.000109633
9.80204e-05
8.65022e-05
7.4619e-05
6.295e-05
5.31106e-05
4.56867e-05
6.60841e-05
0.746812
0.532994
0.425124
0.351958
0.288687
0.226978
0.164802
0.1023
0.0416535
0.0197249
0.00105834
0.00016956
0.000804104
0.00200305
0.00191735
0.0017228
0.00161477
0.00153035
0.0014125
0.00129415
0.00116574
0.00105379
0.000950004
0.000855717
0.000767846
0.000690166
0.000616667
0.000553584
0.000497799
0.000446947
0.000404052
0.000363312
0.000329687
0.000298703
0.00026837
0.000243072
0.00021661
0.000192483
0.000164927
0.000142569
0.000111498
7.26318e-05
6.3366e-05
9.19525e-05
0.000117512
0.000138242
0.000155168
0.000168278
0.000178797
0.000187612
0.000193929
0.00019842
0.00020094
0.000201725
0.000200549
0.000198209
0.000193968
0.000188767
0.000181972
0.000174727
0.000165866
0.000157113
0.000147482
0.000137124
0.000126935
0.000115801
0.00010521
9.41293e-05
8.30262e-05
7.16782e-05
6.06269e-05
5.21595e-05
4.50738e-05
6.59999e-05
0.987997
0.71919
0.556087
0.448964
0.366233
0.293149
0.22382
0.156558
0.0911332
0.0339843
0.0165089
0.00699045
0.000220982
0.00079826
0.00197299
0.00189051
0.0016353
0.00146292
0.00135778
0.00127159
0.00117402
0.00106469
0.000958339
0.000862632
0.00077596
0.000699051
0.000627245
0.000562684
0.000506384
0.000455443
0.000410673
0.000370295
0.000333921
0.000302132
0.000271982
0.000244829
0.000218269
0.000193217
0.000166267
0.000140031
0.000110854
7.17723e-05
5.18647e-05
8.86478e-05
0.000114839
0.000134944
0.000151534
0.000164385
0.000174175
0.000182484
0.000188298
0.000192337
0.000194456
0.00019495
0.000193604
0.000190899
0.000186728
0.000181432
0.000174832
0.000167643
0.000159168
0.000150422
0.000141369
0.000131371
0.00012155
0.000111012
0.000100734
9.04049e-05
7.99175e-05
6.93742e-05
5.91632e-05
5.2521e-05
4.58762e-05
6.64833e-05
1
0.936497
0.711542
0.564212
0.456965
0.368807
0.289997
0.216526
0.14697
0.081204
0.0312348
0.0135915
0.00576858
0.000210864
0.000577877
0.00178573
0.00191761
0.00166879
0.00141995
0.00124154
0.00113694
0.0010541
0.000970351
0.000878893
0.000788863
0.000708985
0.000637715
0.000572712
0.000515578
0.000463799
0.00041759
0.000376686
0.000338828
0.000306145
0.000275708
0.000247344
0.000220501
0.00019486
0.000168275
0.000140324
0.00011212
7.40514e-05
3.82753e-05
8.29868e-05
0.00011058
0.000130219
0.000146454
0.00015924
0.000168574
0.00017639
0.000181869
0.000185538
0.000187368
0.000187629
0.000186192
0.000183314
0.00017923
0.000173969
0.000167609
0.000160567
0.000152504
0.000143946
0.000135408
0.000125868
0.000116484
0.00010656
9.67508e-05
8.71358e-05
7.73524e-05
6.76524e-05
5.842e-05
5.32251e-05
4.72927e-05
6.69513e-05
1
1
0.909963
0.708533
0.568066
0.459087
0.366925
0.284637
0.209172
0.139092
0.0750732
0.0307758
0.0116318
0.00611728
0.000133652
0.000466447
0.00110212
0.00159707
0.00164931
0.00145331
0.00122202
0.00105013
0.00095011
0.000876549
0.000803438
0.000726435
0.00065183
0.000583666
0.000525
0.00047223
0.000425013
0.000382817
0.000344065
0.000310477
0.000279256
0.000250212
0.000222947
0.000196939
0.000170321
0.000142516
0.000114853
7.83872e-05
1.75004e-05
7.55708e-05
0.000104748
0.0001243
0.00014024
0.000152936
0.000162032
0.00016942
0.000174701
0.000178088
0.000179746
0.000179866
0.00017833
0.000175555
0.000171553
0.000166482
0.00016037
0.000153612
0.00014593
0.000137763
0.000129712
0.000120666
0.000111806
0.000102487
9.32586e-05
8.43267e-05
7.5275e-05
6.64094e-05
5.81891e-05
5.40255e-05
4.89649e-05
6.73488e-05
1
1
1
0.903128
0.712412
0.572283
0.460119
0.364605
0.28019
0.204147
0.134911
0.0740538
0.0328443
0.0129584
0.008085
0.000506795
0.000248718
0.000407641
0.000810701
0.00128253
0.00137789
0.00125232
0.00104387
0.000883915
0.0007918
0.000726885
0.000664724
0.000599058
0.000537024
0.000480883
0.000431896
0.000388587
0.000349056
0.000314541
0.000282466
0.00025278
0.000225237
0.000198942
0.000172276
0.000145005
0.000118138
8.37084e-05
3.99043e-05
6.92114e-05
9.86779e-05
0.000118177
0.000133803
0.0001462
0.000155013
0.000162069
0.00016712
0.000170274
0.000171798
0.000171847
0.000170263
0.000167628
0.000163765
0.000158952
0.000153138
0.000146739
0.000139472
0.000131782
0.000124251
0.000115722
0.000107445
9.87561e-05
9.01741e-05
8.19403e-05
7.36426e-05
6.56256e-05
5.84021e-05
5.50676e-05
5.08706e-05
6.78264e-05
1
1
1
1
0.916669
0.724636
0.579892
0.463154
0.364539
0.278907
0.203275
0.13602
0.0790707
0.0395745
0.0184474
0.00261926
0.00605552
0.00216301
0.000178687
0.000313848
0.000450706
0.000979335
0.00112355
0.00106952
0.000893646
0.000743755
0.000657744
0.000599216
0.00054682
0.000492873
0.000440879
0.000394452
0.000353291
0.000317974
0.000285384
0.000255136
0.000227329
0.000200801
0.000174344
0.000147611
0.0001218
9.01112e-05
5.80253e-05
6.75399e-05
9.38828e-05
0.000112712
0.000127783
0.000139703
0.000148086
0.000154814
0.000159558
0.000162467
0.00016384
0.000163833
0.000162269
0.000159707
0.000156028
0.000151483
0.000146021
0.000140003
0.00013321
0.000126012
0.000119043
0.000111066
0.000103402
9.53792e-05
8.74785e-05
7.99712e-05
7.24473e-05
6.5276e-05
5.90146e-05
5.636e-05
5.29605e-05
6.84192e-05
1
1
1
1
1
0.952092
0.747645
0.593535
0.470699
0.368993
0.282642
0.208101
0.143718
0.0908616
0.0529173
0.0295403
0.0158869
0.00641655
0.00652579
0.003203
9.69088e-05
0.000219576
3.45824e-05
0.000703152
0.000897658
0.000906606
0.000762915
0.000626574
0.000543417
0.000490352
0.000446247
0.000402644
0.00035956
0.000321564
0.000287635
0.000257045
0.000229222
0.000202657
0.000176553
0.000150512
0.00012589
9.73423e-05
7.24459e-05
7.16104e-05
9.14246e-05
0.00010843
0.000122466
0.000133765
0.000141623
0.000147913
0.000152306
0.000154935
0.00015612
0.000156034
0.000154504
0.000151994
0.000148506
0.000144221
0.000139142
0.000133509
0.000127227
0.000120528
0.000114146
0.00010676
9.97263e-05
9.23959e-05
8.51933e-05
7.84267e-05
7.16768e-05
6.53098e-05
5.99476e-05
5.78031e-05
5.51507e-05
6.9079e-05
1
1
1
1
1
1
1
0.785137
0.616204
0.48537
0.380099
0.293116
0.22006
0.158919
0.10994
0.0737122
0.0486724
0.0313877
0.0183649
0.00881775
0.00718517
0.00370873
7.23475e-06
0.000151535
0.000226466
0.000414113
0.00068257
0.000744161
0.00063725
0.000524375
0.00044553
0.00039652
0.000359914
0.000325907
0.000291616
0.000259365
0.000230574
0.000204018
0.000178639
0.00015361
0.000130216
0.000104691
8.45273e-05
7.93312e-05
9.18786e-05
0.000105868
0.000118222
0.000128632
0.000135873
0.000141549
0.000145538
0.000147841
0.000148793
0.000148584
0.000147055
0.000144606
0.000141296
0.000137256
0.000132565
0.000127327
0.000121565
0.000115384
0.000109598
0.000102837
9.64498e-05
8.98255e-05
8.33307e-05
7.72975e-05
7.13e-05
6.56711e-05
6.11277e-05
5.9331e-05
5.73755e-05
6.97702e-05
0.899418
1
1
1
1
1
1
1
0.843227
0.652044
0.510234
0.400231
0.312202
0.240509
0.182313
0.136337
0.101227
0.0746238
0.0537061
0.0364471
0.0219707
0.0109242
0.00764221
0.00399315
0.000572921
8.54959e-05
0.000158204
0.000138663
0.000489058
0.00058504
0.000521863
0.000434836
0.000361865
0.000317126
0.00028735
0.000260324
0.000232951
0.000205786
0.000180196
0.000156044
0.000134213
0.000111719
9.4902e-05
8.83397e-05
9.52777e-05
0.00010564
0.000115749
0.000124766
0.000131199
0.000136041
0.000139502
0.00014138
0.000142022
0.000141618
0.000140018
0.000137622
0.000134446
0.000130643
0.000126305
0.000121482
0.000116234
0.000110597
0.00010541
9.92944e-05
9.35716e-05
8.76613e-05
8.18808e-05
7.65606e-05
7.12804e-05
6.63169e-05
6.24959e-05
6.09201e-05
5.95982e-05
7.04846e-05
0.740638
0.837229
1
1
1
1
1
1
1
0.932536
0.707123
0.549398
0.432373
0.342074
0.270847
0.214379
0.169837
0.134662
0.106197