/*--------------------------------*- C++ -*----------------------------------*\
| =========                 |                                                 |
| \\      /  F ield         | OpenFOAM: The Open Source CFD Toolbox           |
|  \\    /   O peration     | Version:  2312                                  |
|   \\  /    A nd           | Website:  www.openfoam.com                      |
|    \\/     M anipulation  |                                                 |
\*---------------------------------------------------------------------------*/
FoamFile
{
    version     2.0;
    format      ascii;
    arch        "LSB;label=32;scalar=64";
    class       volVectorField;
    location    "550";
    object      U;
}
// * * * * * * * * * * * * * * * * * * * * * * * * * * * * * * * * * * * * * //

dimensions      [0 1 -1 0 0 0 0];

internalField   nonuniform List<vector> 
11040
(
(-0.57272 8.75042 -3.43844e-19)
(0.801492 5.85093 -2.08543e-18)
(0.00672176 -0.0446706 -2.26372e-17)
(-1.36321 -1.17275 -1.1787e-17)
(-1.39851 -0.695891 -4.33165e-18)
(-1.38053 -0.604522 -1.6995e-17)
(-1.36355 -0.513912 3.08226e-17)
(-1.31782 -0.428094 2.23955e-17)
(-1.27983 -0.358131 4.41648e-18)
(-1.25023 -0.301831 1.23033e-18)
(-1.22316 -0.256152 -2.1015e-17)
(-1.19693 -0.214502 3.0683e-18)
(-1.17615 -0.178148 8.58975e-18)
(-1.15824 -0.1457 7.23015e-18)
(-1.1444 -0.115275 -6.92272e-18)
(-1.1366 -0.087752 1.20036e-17)
(-1.13378 -0.0614963 5.61909e-18)
(-1.13816 -0.0364316 -1.44224e-17)
(-1.15108 -0.0119145 -4.35548e-19)
(-1.17282 0.0125578 2.35392e-18)
(-1.20375 0.037277 -2.64097e-18)
(-1.24218 0.060501 -9.10209e-18)
(-1.29063 0.0813008 9.24516e-18)
(-1.3518 0.101624 -9.42923e-18)
(-1.42443 0.122247 9.67358e-18)
(-1.50447 0.143094 1.71552e-17)
(-1.58586 0.16373 7.2404e-18)
(-1.66131 0.183305 6.75508e-18)
(-1.72366 0.200692 7.05718e-18)
(-1.76407 0.214485 9.34507e-18)
(-1.77193 0.223242 -1.65372e-17)
(-1.73725 0.226043 -1.26739e-17)
(-1.66386 0.222615 -3.86791e-17)
(-1.54653 0.210517 -2.25962e-17)
(-1.38159 0.186815 2.46653e-18)
(-1.16485 0.150289 -3.5527e-17)
(-0.88745 0.100726 9.58812e-19)
(-0.550252 0.0362268 -2.60824e-17)
(-0.186817 -0.0350921 4.26242e-17)
(0.521857 -0.13326 3.66945e-17)
(-0.0677769 -0.496852 -6.13527e-18)
(1.44958 7.88768 2.07231e-19)
(3.04952 8.44021 -2.37719e-19)
(2.69162 5.27296 7.09167e-18)
(0.795116 1.29974 1.14281e-18)
(-1.00575 -0.687916 -5.14472e-19)
(-1.23891 -0.575197 5.9774e-18)
(-1.33463 -0.512186 -9.36664e-19)
(-1.3423 -0.446968 -1.28774e-17)
(-1.33553 -0.385663 5.72124e-19)
(-1.33195 -0.330254 -4.21935e-18)
(-1.3261 -0.286666 6.41157e-18)
(-1.31662 -0.245287 -2.27356e-17)
(-1.31086 -0.207203 -1.79106e-18)
(-1.30608 -0.173662 -1.62205e-17)
(-1.30475 -0.140921 7.34293e-18)
(-1.3089 -0.11077 -2.98868e-18)
(-1.31876 -0.0815214 -4.8561e-18)
(-1.33632 -0.0529584 -4.9311e-18)
(-1.36122 -0.0245258 -6.40198e-19)
(-1.39476 0.00458026 3.82727e-19)
(-1.43741 0.034785 1.35967e-18)
(-1.48837 0.0636466 3.88797e-18)
(-1.54821 0.0893323 -5.96663e-18)
(-1.61577 0.114313 -1.35455e-18)
(-1.68623 0.139203 -1.63511e-18)
(-1.75383 0.163329 3.33876e-18)
(-1.81347 0.185925 2.01336e-18)
(-1.85987 0.206196 -1.11006e-17)
(-1.88733 0.222987 -8.97941e-19)
(-1.89115 0.235078 6.56667e-18)
(-1.86847 0.241585 8.31726e-18)
(-1.81769 0.242254 1.69414e-17)
(-1.72893 0.235081 1.39857e-17)
(-1.59707 0.217992 6.85396e-18)
(-1.41817 0.18916 -3.1685e-18)
(-1.18882 0.147733 1.27058e-17)
(-0.902429 0.0914544 -9.8123e-18)
(-0.559048 0.0128333 7.33875e-18)
(-0.196452 -0.078267 -3.02104e-18)
(0.495209 -0.1811 -4.2667e-18)
(0.506742 -0.442763 5.73639e-18)
(1.82869 7.03789 -1.61591e-20)
(3.33754 8.11225 1.09271e-18)
(4.14964 7.87979 -2.01941e-18)
(3.4648 5.40541 -3.18893e-18)
(1.5163 2.05527 3.0546e-19)
(-0.408865 -0.173324 -4.09431e-18)
(-1.00893 -0.419636 -8.85268e-18)
(-1.19407 -0.4146 -8.11305e-18)
(-1.24733 -0.3716 5.88027e-18)
(-1.28124 -0.325075 2.67358e-19)
(-1.30443 -0.28939 3.57058e-18)
(-1.31505 -0.251734 1.17227e-17)
(-1.32564 -0.2139 -9.09484e-18)
(-1.3337 -0.180805 1.00271e-17)
(-1.34306 -0.146788 -6.25793e-18)
(-1.3561 -0.115205 -2.82197e-18)
(-1.37311 -0.0840295 1.34416e-18)
(-1.39614 -0.0532914 1.90741e-18)
(-1.42534 -0.0226871 9.5517e-20)
(-1.4617 0.00871137 -9.14037e-20)
(-1.50552 0.0412836 -3.14059e-18)
(-1.55517 0.0726507 -2.64114e-18)
(-1.61001 0.100159 5.4394e-19)
(-1.669 0.125901 -3.71094e-19)
(-1.72863 0.150417 3.18008e-18)
(-1.78499 0.173189 -6.99428e-18)
(-1.83433 0.193494 -5.03115e-18)
(-1.87246 0.21064 7.26545e-18)
(-1.89484 0.223695 1.7623e-18)
(-1.89695 0.231706 -1.10052e-18)
(-1.87403 0.233606 -7.22947e-18)
(-1.82069 0.228271 3.01946e-18)
(-1.73069 0.214174 -6.77363e-18)
(-1.59914 0.189803 -8.99422e-18)
(-1.42206 0.153516 1.97854e-18)
(-1.19639 0.104566 5.06125e-18)
(-0.915958 0.0408473 7.58844e-18)
(-0.578979 -0.0459974 -7.74416e-18)
(-0.226063 -0.152649 -1.56592e-18)
(0.411209 -0.259953 -2.068e-18)
(0.576 -0.602084 -3.39096e-18)
(2.22952 6.61182 -5.65183e-20)
(3.13427 7.31268 -2.07216e-19)
(4.18886 8.00744 1.08123e-18)
(4.7314 7.62117 2.01116e-18)
(4.05517 5.58971 -2.81473e-19)
(2.24589 2.69635 -2.56272e-18)
(0.248143 0.392671 1.74925e-18)
(-0.707344 -0.239964 4.30421e-18)
(-1.00871 -0.302079 -3.2585e-18)
(-1.12519 -0.281407 3.68401e-18)
(-1.19792 -0.264991 -8.62926e-18)
(-1.23943 -0.240288 1.1639e-18)
(-1.27234 -0.207603 1.25277e-18)
(-1.29681 -0.17852 -7.9718e-18)
(-1.31782 -0.145459 -3.89019e-18)
(-1.33959 -0.11421 2.46086e-18)
(-1.36271 -0.0826073 4.67356e-18)
(-1.39009 -0.0509497 2.17023e-18)
(-1.42198 -0.0193603 -1.34661e-19)
(-1.45941 0.0131523 1.43886e-19)
(-1.50261 0.0466765 8.18442e-19)
(-1.54993 0.0790703 2.45425e-18)
(-1.60066 0.10748 8.32469e-19)
(-1.65441 0.133556 1.48631e-18)
(-1.70898 0.157692 2.24688e-18)
(-1.76137 0.179486 1.00526e-17)
(-1.80825 0.198197 -7.32046e-19)
(-1.84561 0.213042 -1.29045e-18)
(-1.8689 0.222995 -4.43363e-18)
(-1.87316 0.226985 -3.85489e-18)
(-1.85301 0.223767 5.37408e-18)
(-1.80298 0.212071 -4.52834e-18)
(-1.71783 0.190565 1.19055e-17)
(-1.59263 0.157853 3.14088e-18)
(-1.42336 0.112379 2.47591e-18)
(-1.20709 0.0533745 5.22737e-19)
(-0.938174 -0.0208617 -1.16568e-19)
(-0.613628 -0.117957 -6.13992e-19)
(-0.274124 -0.241742 1.66296e-18)
(0.291208 -0.348852 -2.39252e-18)
(0.52672 -0.697926 6.37528e-19)
(2.68469 6.12537 1.13906e-19)
(3.36828 6.67727 -1.11519e-19)
(4.07408 7.21933 -9.49324e-19)
(4.85408 7.729 -1.53412e-18)
(5.2422 7.43574 1.53237e-18)
(4.65885 5.8451 -1.13973e-19)
(3.02737 3.3566 4.54129e-19)
(1.04518 1.07436 2.72827e-18)
(-0.303306 -0.0150321 -1.12814e-18)
(-0.762913 -0.166976 -1.99946e-18)
(-0.974845 -0.195678 -2.82338e-18)
(-1.08241 -0.198983 -1.88082e-20)
(-1.15297 -0.181654 -9.5844e-20)
(-1.20488 -0.163441 5.042e-18)
(-1.24363 -0.135442 3.03125e-18)
(-1.278 -0.107012 1.19318e-19)
(-1.30918 -0.076719 -2.02251e-18)
(-1.34179 -0.0454172 2.23769e-18)
(-1.37662 -0.0140002 -3.28409e-19)
(-1.41521 0.0186255 7.80979e-19)
(-1.45828 0.052185 -1.5934e-18)
(-1.50461 0.0848731 -1.6831e-19)
(-1.55367 0.113774 2.10127e-18)
(-1.60553 0.140121 -2.25007e-18)
(-1.65871 0.164059 -4.92374e-18)
(-1.71069 0.1851 -2.47636e-18)
(-1.75832 0.202378 5.11805e-19)
(-1.79768 0.214932 -3.94313e-18)
(-1.8242 0.221576 1.10764e-19)
(-1.83283 0.221088 3.66363e-18)
(-1.8182 0.212129 -2.8592e-18)
(-1.775 0.193408 5.95421e-19)
(-1.69832 0.163676 -8.24975e-18)
(-1.58323 0.121603 -3.91779e-18)
(-1.42572 0.0657349 -2.25744e-18)
(-1.22298 -0.00469186 -2.13733e-18)
(-0.970109 -0.0908953 1.17673e-18)
(-0.663856 -0.19944 -5.39935e-20)
(-0.340945 -0.338092 8.69532e-19)
(0.146857 -0.450554 3.17675e-18)
(0.421722 -0.767498 -1.82649e-18)
(3.08795 5.68543 -1.47872e-19)
(3.6003 6.20115 2.19031e-19)
(4.12192 6.59699 2.05021e-19)
(4.70376 7.02767 5.49746e-19)
(5.34082 7.44 -4.14447e-19)
(5.69082 7.29299 2.0254e-19)
(5.26134 6.11696 5.00547e-19)
(3.87692 4.04994 1.84403e-20)
(1.96455 1.85105 -9.96838e-20)
(0.313887 0.379286 4.09441e-18)
(-0.436994 -0.0185155 4.65643e-18)
(-0.772269 -0.100497 -2.15402e-18)
(-0.934916 -0.117805 -1.36616e-18)
(-1.0428 -0.124285 6.32346e-18)
(-1.11346 -0.110873 -5.32584e-18)
(-1.17 -0.0904087 2.33409e-18)
(-1.21541 -0.0647816 2.19616e-19)
(-1.25714 -0.0357626 6.18054e-19)
(-1.29728 -0.0058629 7.28712e-19)
(-1.33856 0.0259718 -3.60673e-19)
(-1.38274 0.0588854 -7.61117e-19)
(-1.42944 0.0914659 5.50825e-19)
(-1.47853 0.120687 -9.26663e-19)
(-1.53039 0.147307 -6.52249e-19)
(-1.58411 0.171158 4.72589e-18)
(-1.63748 0.191549 -3.10521e-18)
(-1.68754 0.207422 -7.26395e-19)
(-1.73052 0.217573 4.88473e-18)
(-1.76197 0.22063 3.83913e-18)
(-1.77696 0.215206 -1.88325e-18)
(-1.77027 0.199866 -1.52968e-18)
(-1.73675 0.173292 -4.82061e-19)
(-1.67163 0.134308 3.82712e-18)
(-1.5701 0.0816488 3.99236e-18)
(-1.4282 0.0140172 1.13408e-18)
(-1.24331 -0.0692576 -1.51928e-18)
(-1.01143 -0.168791 -2.15277e-19)
(-0.730044 -0.289822 -1.04505e-18)
(-0.42941 -0.440102 -2.52494e-18)
(-0.0155103 -0.562596 -1.22286e-19)
(0.276099 -0.832862 1.91722e-18)
(3.47102 5.32781 -2.82984e-20)
(3.84061 5.76271 1.63768e-19)
(4.23748 6.15086 2.59796e-20)
(4.67055 6.45227 4.52768e-19)
(5.16655 6.78109 2.29002e-19)
(5.71202 7.13064 -7.80594e-19)
(6.07016 7.13329 2.28403e-19)
(5.82963 6.3527 -2.04945e-19)
(4.74523 4.72836 -1.50342e-18)
(2.99878 2.7067 3.84627e-20)
(1.20402 1.01209 -5.52491e-18)
(0.0187539 0.189707 7.31487e-18)
(-0.480388 0.0190951 -5.97611e-18)
(-0.750669 -0.0357191 -6.65248e-19)
(-0.896609 -0.0542113 2.86857e-18)
(-0.99911 -0.0542811 -1.02385e-18)
(-1.07251 -0.0415688 4.00117e-18)
(-1.13199 -0.0190232 -1.64781e-18)
(-1.18307 0.00675869 3.79454e-19)
(-1.23065 0.0363282 -2.98998e-19)
(-1.27804 0.0676574 3.10503e-19)
(-1.32634 0.0997057 -4.08122e-19)
(-1.37647 0.129123 2.15146e-18)
(-1.42928 0.156077 -7.0481e-19)
(-1.48447 0.179998 -1.7739e-18)
(-1.54018 0.199897 8.29755e-19)
(-1.59369 0.214455 2.69488e-18)
(-1.64147 0.222173 -1.32871e-18)
(-1.67931 0.221444 3.63953e-20)
(-1.70249 0.210689 -1.05098e-18)
(-1.706 0.18836 6.68634e-20)
(-1.68486 0.15309 -1.77275e-18)
(-1.63445 0.103778 -3.78458e-20)
(-1.55016 0.0392587 7.97397e-19)
(-1.42817 -0.0415518 2.66476e-18)
(-1.26605 -0.139055 -2.05606e-18)
(-1.06084 -0.253167 -2.3916e-18)
(-0.811289 -0.387463 1.97452e-18)
(-0.539998 -0.546541 -7.36161e-19)
(-0.194854 -0.682203 2.20077e-20)
(0.0917099 -0.904859 9.37359e-20)
(3.81791 5.02503 -7.63114e-21)
(4.10322 5.38695 -6.05944e-20)
(4.39883 5.7311 3.981e-20)
(4.73325 6.02694 -2.49749e-19)
(5.10501 6.25673 -1.49829e-19)
(5.52657 6.50307 -2.57414e-19)
(5.99961 6.801 1.09839e-18)
(6.3733 6.92436 1.78804e-19)
(6.32583 6.49685 5.23315e-19)
(5.57154 5.32348 -1.10378e-18)
(4.10784 3.59962 1.17302e-18)
(2.31356 1.84494 1.66504e-18)
(0.771793 0.619413 -4.22959e-18)
(-0.083192 0.163397 6.37832e-18)
(-0.483652 0.0628634 1.07252e-19)
(-0.710622 0.0249224 -1.30677e-18)
(-0.849978 0.00912352 -4.74751e-18)
(-0.948919 0.0138992 -3.79324e-19)
(-1.02427 0.0284949 -1.49036e-18)
(-1.08624 0.0521932 5.63433e-18)
(-1.1415 0.0798725 -3.54736e-18)
(-1.19356 0.110522 5.97452e-19)
(-1.24555 0.13989 1.18835e-18)
(-1.29961 0.16727 2.05988e-19)
(-1.35638 0.191524 4.62155e-19)
(-1.41467 0.211223 2.10521e-19)
(-1.47212 0.224703 1.09459e-18)
(-1.52549 0.230123 -6.46144e-19)
(-1.57088 0.225588 -2.62655e-18)
(-1.60387 0.209292 -7.59155e-19)
(-1.61971 0.179538 2.25013e-18)
(-1.61369 0.134893 1.04964e-18)
(-1.58133 0.074323 8.59281e-20)
(-1.51834 -0.00317765 -1.84339e-18)
(-1.4211 -0.0983974 -1.03018e-18)
(-1.2874 -0.211258 6.7426e-19)
(-1.11527 -0.340862 1.5705e-18)
(-0.904664 -0.488796 -8.71026e-19)
(-0.670993 -0.655211 6.03329e-19)
(-0.390771 -0.804444 -1.29121e-18)
(-0.129415 -0.98581 -1.90889e-19)
(4.13866 4.76456 -2.02906e-20)
(4.36723 5.06839 -1.3611e-19)
(4.59509 5.36056 2.92699e-19)
(4.84783 5.63417 3.6501e-20)
(5.13685 5.86571 -5.97278e-20)
(5.45618 6.04156 1.02699e-20)
(5.81398 6.22005 -4.26183e-19)
(6.22214 6.46092 -4.36465e-19)
(6.60051 6.65444 -6.0821e-21)
(6.71833 6.51018 -8.19676e-19)
(6.29447 5.77402 -2.70869e-19)
(5.19314 4.43626 8.01679e-19)
(3.56583 2.79437 5.08147e-19)
(1.85272 1.33091 -2.13863e-18)
(0.564538 0.457699 7.35437e-18)
(-0.101674 0.182918 -3.59015e-18)
(-0.449783 0.1142 3.15451e-18)
(-0.654153 0.0855766 -4.92297e-18)
(-0.789115 0.0743879 -1.52324e-19)
(-0.886421 0.0818196 1.65809e-18)
(-0.962159 0.0995108 -2.21275e-18)
(-1.02461 0.125865 -2.92767e-19)
(-1.08139 0.154046 5.85726e-19)
(-1.13759 0.181647 -1.93899e-18)
(-1.19574 0.20656 -5.36578e-19)
(-1.25601 0.226603 -1.42443e-18)
(-1.31695 0.239604 -2.57894e-18)
(-1.37593 0.243242 9.74664e-19)
(-1.42943 0.235251 7.13174e-19)
(-1.47339 0.213555 2.30733e-18)
(-1.50343 0.176312 -9.19329e-19)
(-1.51513 0.121993 6.5854e-19)
(-1.50427 0.0496253 -7.64778e-19)
(-1.46688 -0.0415798 1.85102e-18)
(-1.39967 -0.151995 -2.06768e-19)
(-1.30061 -0.280877 4.76906e-19)
(-1.16848 -0.426361 -2.37443e-18)
(-1.00402 -0.587876 1.52012e-18)
(-0.817068 -0.76134 -1.13601e-19)
(-0.600495 -0.920776 7.84972e-19)
(-0.380556 -1.07456 -8.13519e-19)
(4.43419 4.53837 -1.10568e-19)
(4.62263 4.79484 4.12691e-19)
(4.80449 5.04265 -1.45286e-19)
(5.00009 5.27916 -2.00361e-19)
(5.22199 5.49845 1.40331e-19)
(5.47251 5.68306 -3.27975e-19)
(5.74673 5.82055 1.03919e-19)
(6.0495 5.94652 1.66767e-18)
(6.39695 6.12567 -1.75135e-18)
(6.75914 6.33304 -1.76593e-19)
(6.99178 6.38342 8.75347e-20)
(6.85746 6.02354 6.54397e-20)
(6.1492 5.11229 8.7394e-19)
(4.84238 3.74803 -3.28111e-19)
(3.18161 2.25869 1.90786e-18)
(1.59936 1.0517 -2.31467e-18)
(0.503617 0.407691 1.01884e-18)
(-0.0659309 0.220348 -8.98786e-19)
(-0.382863 0.170503 1.74994e-18)
(-0.576074 0.147053 1.37677e-18)
(-0.706427 0.140363 5.9403e-19)
(-0.798753 0.152906 -1.6082e-18)
(-0.870941 0.174908 1.50291e-18)
(-0.934604 0.20078 8.4282e-19)
(-0.99624 0.226041 -2.34028e-18)
(-1.05872 0.246922 1.60218e-18)
(-1.12243 0.260342 1.82082e-18)
(-1.18607 0.263276 -2.1038e-18)
(-1.24705 0.252905 2.83342e-19)
(-1.30201 0.226773 -1.79817e-18)
(-1.34714 0.182774 9.35068e-19)
(-1.37846 0.11927 -1.21942e-18)
(-1.39207 0.0353196 -3.93545e-19)
(-1.38435 -0.0695305 6.57737e-20)
(-1.35231 -0.195138 -8.14247e-19)
(-1.29409 -0.339923 2.36906e-19)
(-1.20886 -0.500942 6.74994e-19)
(-1.09757 -0.675526 -9.16663e-19)
(-0.966269 -0.85652 -1.36012e-19)
(-0.814271 -1.0233 -1.11461e-18)
(-0.647464 -1.16355 7.77725e-19)
(4.70642 4.33924 -1.13208e-19)
(4.86564 4.55727 -3.41955e-19)
(5.0157 4.76693 2.12177e-20)
(5.17174 4.96925 7.05286e-20)
(5.34472 5.16198 -3.29173e-20)
(5.53971 5.33933 -2.37442e-19)
(5.7569 5.48971 1.73625e-20)
(5.99237 5.60095 1.37789e-20)
(6.24824 5.68994 1.19541e-19)
(6.53902 5.8097 1.63363e-18)
(6.86436 5.98643 5.25776e-19)
(7.1536 6.1342 1.37472e-19)
(7.23681 6.0546 -1.06431e-18)
(6.89868 5.55233 2.36503e-18)
(6.00425 4.57298 -1.96657e-18)
(4.60718 3.26601 1.17999e-18)
(2.98255 1.93916 -1.74871e-18)
(1.52288 0.925127 -4.84799e-18)
(0.544957 0.413 3.15977e-19)
(0.0201112 0.265462 6.46572e-18)
(-0.278628 0.226906 -3.58123e-18)
(-0.457983 0.213169 4.03958e-18)
(-0.576141 0.216445 -2.01085e-18)
(-0.664889 0.232277 3.24837e-19)
(-0.739964 0.253485 -2.11319e-19)
(-0.809716 0.273862 -1.61366e-18)
(-0.878203 0.288255 1.34036e-18)
(-0.94677 0.29195 -1.08115e-18)
(-1.01465 0.281014 8.85887e-19)
(-1.07981 0.252344 5.89437e-19)
(-1.13954 0.203517 7.73412e-20)
(-1.19071 0.132744 5.28696e-19)
(-1.23009 0.0390163 3.06336e-19)
(-1.25465 -0.0779126 -1.27474e-18)
(-1.26168 -0.217301 -7.50242e-19)
(-1.24934 -0.376634 5.23376e-19)
(-1.21676 -0.551812 6.30717e-19)
(-1.16465 -0.738448 1.22521e-19)
(-1.09629 -0.92753 1.25211e-18)
(-1.01157 -1.10099 8.82236e-19)
(-0.90754 -1.24004 1.99772e-19)
(4.95668 4.1623 -1.28874e-19)
(5.09377 4.34884 6.38913e-20)
(5.22099 4.52688 3.06235e-19)
(5.34909 4.69876 -2.78591e-19)
(5.48752 4.86509 3.40008e-20)
(5.64108 5.0228 5.07985e-20)
(5.81235 5.16768 9.33579e-20)
(6.00095 5.29204 -6.87332e-19)
(6.20369 5.38531 -1.72602e-18)
(6.42023 5.45095 2.27754e-18)
(6.66043 5.5232 -1.57936e-18)
(6.93779 5.64622 -4.10354e-19)
(7.23214 5.80804 -7.08321e-19)
(7.44479 5.89275 -4.06698e-19)
(7.40271 5.72018 9.29929e-19)
(6.92822 5.15122 -4.17863e-19)
(5.94096 4.18176 1.98019e-18)
(4.53295 2.97049 -1.85232e-18)
(2.97084 1.78548 -8.36395e-19)
(1.59926 0.897318 5.95347e-18)
(0.676984 0.444765 -3.56778e-18)
(0.181175 0.315197 -2.18455e-19)
(-0.0904305 0.297824 8.47672e-19)
(-0.25935 0.299316 3.06429e-18)
(-0.378558 0.306106 -2.56861e-18)
(-0.473229 0.317645 -5.56982e-19)
(-0.556566 0.328796 -6.17866e-19)
(-0.635563 0.33236 3.26762e-18)
(-0.712957 0.322232 -1.4361e-18)
(-0.789198 0.293699 -4.66488e-19)
(-0.863437 0.243395 1.57189e-18)
(-0.934017 0.168965 -1.32947e-18)
(-0.998829 0.0691949 -6.58611e-19)
(-1.05595 -0.0561187 7.78263e-19)
(-1.10329 -0.205596 5.75545e-19)
(-1.13903 -0.375928 1.02506e-19)
(-1.16211 -0.562175 -2.97265e-19)
(-1.17257 -0.758842 -1.77465e-19)
(-1.17134 -0.956092 -6.22751e-19)
(-1.1569 -1.13751 5.49985e-19)
(-1.12353 -1.28508 -9.65613e-20)
(5.18614 4.00382 2.05639e-19)
(5.30591 4.16427 -4.60535e-19)
(5.41607 4.31606 4.29853e-19)
(5.52428 4.46192 1.09755e-19)
(5.63784 4.60394 -1.02233e-19)
(5.76136 4.74107 5.66039e-20)
(5.89763 4.8707 4.98667e-19)
(6.04813 4.98976 2.96292e-19)
(6.21236 5.09338 1.63608e-19)
(6.38759 5.17338 7.98424e-20)
(6.57172 5.22605 -5.71483e-19)
(6.77058 5.26785 9.07766e-19)
(6.99897 5.33684 -9.00341e-20)
(7.26258 5.4595 9.34722e-19)
(7.52245 5.59825 -2.54181e-18)
(7.66997 5.63412 2.61469e-18)
(7.54618 5.41585 -7.66256e-19)
(7.00765 4.84402 -2.25451e-18)
(6.00521 3.93482 1.87857e-18)
(4.63662 2.83133 -2.18891e-18)
(3.14063 1.75912 1.62033e-18)
(1.86138 0.960222 -6.43185e-19)
(1.00984 0.537254 2.58922e-18)
(0.516208 0.396819 -1.02779e-18)
(0.226689 0.383394 -5.17716e-18)
(0.0421978 0.396732 2.80893e-18)
(-0.0905261 0.404368 1.19148e-18)
(-0.199586 0.402068 -2.90518e-19)
(-0.297791 0.388197 2.26287e-19)
(-0.391482 0.358709 -6.73376e-19)
(-0.483673 0.308928 -3.21394e-18)
(-0.575329 0.234971 3.35271e-18)
(-0.666076 0.13458 -2.11605e-19)
(-0.755211 0.00711045 -9.3584e-19)
(-0.841973 -0.146356 1.00892e-18)
(-0.92482 -0.321974 -1.3499e-19)
(-1.00246 -0.514134 -2.48625e-19)
(-1.07445 -0.716734 4.49351e-19)
(-1.13998 -0.920265 2.04405e-19)
(-1.19636 -1.11049 -4.16505e-19)
(-1.23792 -1.27245 -2.1033e-19)
(5.39585 3.86109 6.02908e-21)
(5.5016 3.99964 2.24371e-19)
(5.5985 4.1295 4.27673e-19)
(5.69194 4.2534 -5.03502e-19)
(5.78758 4.37407 -2.07248e-20)
(5.8893 4.49159 -1.11584e-19)
(5.99968 4.60471 -2.76771e-19)
(6.12062 4.71139 -3.256e-19)
(6.25306 4.80939 4.51303e-19)
(6.39643 4.89551 1.41881e-18)
(6.54842 4.96427 -4.83397e-19)
(6.70693 5.01026 9.87004e-19)
(6.87399 5.03713 -1.18471e-20)
(7.05944 5.0671 -1.90252e-18)
(7.27701 5.13358 -7.69776e-19)
(7.52434 5.24835 1.76e-18)
(7.75406 5.36477 -9.55176e-19)
(7.86123 5.37523 1.28097e-18)
(7.70624 5.15576 -1.85097e-18)
(7.17021 4.62949 1.22065e-19)
(6.21163 3.81381 -1.59189e-19)
(4.97294 2.86359 3.82836e-18)
(3.69126 1.96411 -1.17747e-19)
(2.55464 1.24183 -2.45008e-18)
(1.69055 0.773656 -4.96907e-19)
(1.11165 0.549264 -7.85051e-19)
(0.742466 0.484938 -2.69117e-18)
(0.501181 0.485532 3.35141e-18)
(0.330584 0.489 -2.72908e-18)
(0.193857 0.47056 -9.29052e-20)
(0.0702963 0.425244 7.56689e-19)
(-0.0498211 0.352984 -4.62023e-19)
(-0.170386 0.253832 3.54873e-19)
(-0.293119 0.128112 -1.45258e-19)
(-0.418513 -0.0230015 1.65733e-18)
(-0.546464 -0.196469 -1.44943e-18)
(-0.67545 -0.387617 1.05105e-19)
(-0.80498 -0.590889 6.81922e-20)
(-0.932881 -0.797564 8.82782e-20)
(-1.05601 -0.995448 -2.96744e-20)
(-1.17086 -1.17243 2.51308e-19)
(5.58676 3.73204 -3.66752e-19)
(5.68081 3.85193 1.72989e-19)
(5.76701 3.96326 -6.42361e-19)
(5.84908 4.0686 3.00005e-19)
(5.93142 4.17088 -1.44415e-19)
(6.01711 4.27077 2.86942e-20)
(6.1085 4.36779 -7.93716e-20)
(6.20725 4.46087 8.32483e-20)
(6.31469 4.54847 -9.89694e-19)
(6.43136 4.62873 5.32341e-19)
(6.5567 4.69952 7.37113e-20)
(6.68941 4.75792 -3.44771e-18)
(6.82769 4.7993 2.1848e-18)
(6.97079 4.82106 1.57831e-19)
(7.12311 4.83106 1.99163e-18)
(7.29611 4.85206 -1.81322e-18)
(7.50143 4.91107 2.93626e-19)
(7.73261 5.01236 1.43134e-18)
(7.94276 5.11196 -1.53263e-18)
(8.04021 5.12034 5.8058e-19)
(7.89992 4.93328 1.87665e-19)
(7.44765 4.51374 -3.91102e-19)
(6.70767 3.90587 1.39026e-19)
(5.76204 3.18669 -3.97481e-19)
(4.72588 2.45018 2.57016e-18)
(3.71626 1.78342 -3.64581e-18)
(2.83328 1.2533 3.20816e-18)
(2.1363 0.892551 9.26037e-19)
(1.62516 0.688233 -1.39877e-18)
(1.25892 0.591783 -5.7488e-19)
(0.990192 0.544781 -3.36289e-19)
(0.780382 0.500169 2.27674e-18)
(0.601483 0.431385 -2.70137e-19)
(0.434432 0.329544 -2.9005e-18)
(0.268272 0.195466 6.21402e-19)
(0.0983521 0.0337419 8.55069e-19)
(-0.0769186 -0.149581 -7.28682e-19)
(-0.259481 -0.349131 7.05797e-19)
(-0.445116 -0.55635 2.42511e-19)
(-0.63 -0.760821 1.08468e-19)
(-0.813763 -0.951788 -5.33258e-19)
(5.75942 3.61506 2.70263e-19)
(5.84348 3.71887 -3.24854e-19)
(5.92076 3.81437 6.9102e-19)
(5.99377 3.90395 -3.0425e-20)
(6.06594 3.99048 6.46125e-20)
(6.13972 4.0749 2.59009e-19)
(6.217 4.15714 -5.03265e-20)
(6.29928 4.23668 6.28682e-20)
(6.38779 4.31271 2.63703e-19)
(6.48335 4.38392 -5.11223e-20)
(6.58617 4.44879 1.26441e-18)
(6.69615 4.50613 -1.7474e-18)
(6.81268 4.55433 3.03207e-18)
(6.9342 4.59038 -2.31535e-18)
(7.05906 4.61054 -1.08554e-18)
(7.18786 4.6145 -4.19881e-19)
(7.32645 4.61139 -7.17919e-19)
(7.48643 4.62149 7.47986e-19)
(7.67764 4.6663 9.16718e-20)
(7.89489 4.74941 5.46249e-19)
(8.0974 4.83423 -2.73521e-19)
(8.20567 4.85416 3.01196e-19)
(8.15026 4.7553 1.15401e-18)
(7.89647 4.51284 -1.43383e-18)
(7.44205 4.13289 7.2875e-19)
(6.81584 3.64702 7.88202e-19)
(6.06959 3.10088 9.50112e-20)
(5.26631 2.54386 -3.66571e-18)
(4.46979 2.02184 8.64765e-19)
(3.73553 1.57103 1.88869e-18)
(3.1002 1.21135 -1.38694e-18)
(2.57414 0.941915 3.00366e-18)
(2.14547 0.744126 -2.81844e-18)
(1.79083 0.591031 3.91344e-19)
(1.48763 0.4569 9.71711e-19)
(1.21776 0.322134 -9.47914e-19)
(0.967481 0.174718 4.92092e-19)
(0.725506 0.00884683 -5.54588e-20)
(0.48622 -0.17512 -8.30349e-19)
(0.248228 -0.370162 -3.19698e-20)
(0.00209462 -0.565751 6.90091e-21)
(5.91426 3.50867 1.56003e-20)
(5.98951 3.59849 -2.0145e-19)
(6.05905 3.68042 -6.45956e-20)
(6.12451 3.7566 3.55586e-19)
(6.18857 3.82977 3.33899e-21)
(6.25318 3.9009 -2.44947e-20)
(6.31981 3.97012 -2.88417e-19)
(6.38976 4.03721 1.75409e-19)
(6.46405 4.10174 -1.01748e-19)
(6.5435 4.16297 8.50383e-19)
(6.62855 4.21981 -1.78328e-19)
(6.71948 4.2713 -1.63369e-19)
(6.81639 4.31654 1.19878e-18)
(6.91889 4.35451 -4.60035e-19)
(7.02596 4.38361 -6.62699e-19)
(7.1361 4.40122 -5.62962e-19)
(7.24816 4.40457 -3.92306e-19)
(7.36351 4.39427 2.98738e-18)
(7.48816 4.37829 -3.12862e-18)
(7.63283 4.37324 1.68808e-21)
(7.80805 4.39691 1.87804e-18)
(8.00255 4.4506 -1.66851e-18)
(8.18602 4.51418 1.61899e-18)
(8.32354 4.5561 -7.08208e-19)
(8.37832 4.54365 -8.15558e-19)
(8.32185 4.45339 2.21562e-18)
(8.13886 4.27527 -8.4468e-19)
(7.82957 4.013 1.16277e-18)
(7.4078 3.68092 -3.17938e-18)
(6.89756 3.29961 3.98727e-19)
(6.32837 2.89224 1.39342e-18)
(5.73131 2.48156 -1.8222e-19)
(5.13575 2.08721 -3.16032e-19)
(4.56305 1.72209 1.17279e-19)
(4.02773 1.39298 -4.6755e-20)
(3.53705 1.10049 2.82752e-19)
(3.09114 0.839761 -7.60457e-19)
(2.68015 0.601873 6.13649e-19)
(2.29811 0.38101 -3.26479e-19)
(1.94071 0.17407 3.00573e-19)
(1.58843 -0.0196701 2.96715e-20)
(6.0461 3.41621 9.85281e-21)
(6.11378 3.49434 -4.18454e-19)
(6.17667 3.56499 4.21102e-19)
(6.23586 3.63019 -3.89492e-19)
(6.29345 3.69245 -6.64994e-20)
(6.35099 3.75272 1.74988e-19)
(6.40967 3.8112 2.41158e-19)
(6.47051 3.86786 -8.6594e-19)
(6.5344 3.92247 -6.248e-20)
(6.60203 3.9745 1.42498e-18)
(6.67388 4.02325 -1.90052e-18)
(6.75031 4.06803 5.06288e-19)
(6.83159 4.10806 4.82694e-19)
(6.91774 4.14252 -8.24805e-19)
(7.0085 4.17069 1.99113e-18)
(7.1033 4.19176 -2.59815e-19)
(7.20112 4.20435 -5.80978e-18)
(7.30058 4.20621 5.0012e-18)
(7.40089 4.19515 -1.83934e-18)
(7.50339 4.17157 -1.32867e-18)
(7.61408 4.14195 1.74023e-18)
(7.7381 4.11947 1.77413e-18)
(7.87824 4.11544 -2.6212e-18)
(8.03434 4.13354 2.44762e-18)
(8.19725 4.16843 -6.63531e-19)
(8.35082 4.20689 6.10259e-19)
(8.47523 4.23188 -1.1262e-18)
(8.5508 4.22657 1.16125e-18)
(8.56169 4.17798 4.28991e-19)
(8.49762 4.07858 -2.19569e-18)
(8.35485 3.92678 2.60406e-19)
(8.13576 3.72618 -1.26343e-19)
(7.84804 3.48428 1.27353e-18)
(7.501 3.20963 3.42226e-20)
(7.10669 2.9123 -7.10795e-20)
(6.67869 2.60293 -1.33168e-19)
(6.23136 2.2912 -5.00521e-20)
(5.7705 1.98132 -1.09388e-19)
(5.3051 1.67934 -3.97793e-19)
(4.84655 1.389 3.93529e-20)
(4.38079 1.11102 6.60659e-20)
(6.15352 3.33933 1.72081e-19)
(6.21493 3.40787 3.26473e-19)
(6.27232 3.46929 -2.25439e-19)
(6.32638 3.52559 -3.89075e-19)
(6.37879 3.57902 -1.71105e-20)
(6.43084 3.63047 1.42879e-19)
(6.48348 3.68018 -1.31905e-19)
(6.53755 3.7282 2.26117e-19)
(6.59381 3.77445 5.38501e-19)
(6.65285 3.81859 -1.01845e-18)
(6.71507 3.8601 -1.32633e-18)
(6.78086 3.89851 1.58309e-18)
(6.85051 3.93321 1.41714e-18)
(6.92413 3.96349 -2.11712e-18)
(7.00167 3.98865 2.48995e-18)
(7.08295 4.00806 1.70494e-18)
(7.16766 4.0212 -1.30551e-18)
(7.25519 4.0274 -2.161e-18)
(7.34453 4.02542 -2.76496e-19)
(7.43438 4.01331 1.7497e-18)
(7.52391 3.98904 -3.4568e-18)
(7.61125 3.9545 2.72753e-18)
(7.69795 3.91497 3.3917e-19)
(7.78992 3.87692 7.21012e-19)
(7.8921 3.84724 -1.24273e-18)
(8.00718 3.83065 6.09383e-19)
(8.13423 3.82821 -5.37857e-19)
(8.26832 3.8369 -3.73408e-19)
(8.40123 3.85029 7.37405e-19)
(8.52281 3.86013 -4.72702e-19)
(8.62244 3.85784 -2.40946e-19)
(8.69031 3.83577 9.48865e-19)
(8.71878 3.78836 -1.21433e-18)
(8.70232 3.71209 6.58274e-19)
(8.63795 3.60602 6.14554e-20)
(8.525 3.47149 -7.73913e-19)
(8.36635 3.31206 5.54064e-19)
(8.16282 3.1297 1.18073e-19)
(7.91782 2.92913 -2.49527e-19)
(7.6409 2.71584 -7.44264e-20)
(7.32182 2.49002 -5.98004e-20)
(6.24213 3.27453 -1.05643e-19)
(6.29823 3.33501 4.09612e-20)
(6.35091 3.38876 -8.4489e-20)
(6.4006 3.43769 -1.34479e-19)
(6.44869 3.48386 1.03382e-19)
(6.49624 3.52806 -2.37789e-20)
(6.54404 3.57054 5.9002e-20)
(6.59279 3.61142 -2.19572e-19)
(6.64312 3.65064 2.65849e-20)
(6.69553 3.68801 1.34165e-19)
(6.75038 3.72312 -4.82101e-19)
(6.808 3.75566 7.73068e-19)
(6.86869 3.78516 -1.76125e-18)
(6.93258 3.81107 1.07326e-18)
(6.99968 3.83279 6.69092e-19)
(7.06993 3.84972 4.60942e-19)
(7.14316 3.86129 1.9861e-19)
(7.21914 3.86702 -3.36042e-19)
(7.2975 3.86648 -1.00818e-18)
(7.37764 3.85911 1.99982e-18)
(7.45857 3.8437 9.37106e-20)
(7.53634 3.81999 -2.19268e-18)
(7.6084 3.78829 9.88367e-19)
(7.67584 3.74924 1.10818e-18)
(7.74053 3.70486 -2.24965e-18)
(7.80541 3.65825 2.02921e-18)
(7.87382 3.61299 -1.72202e-18)
(7.94869 3.57237 7.69671e-20)
(8.03181 3.53871 5.30936e-19)
(8.12328 3.51288 1.38926e-18)
(8.22144 3.49414 -1.82997e-18)
(8.323 3.48037 5.20207e-19)
(8.42342 3.46844 9.60173e-19)
(8.51785 3.45489 -7.56945e-19)
(8.601 3.43616 -8.92879e-20)
(8.66762 3.40918 -2.73979e-20)
(8.71347 3.37173 1.47615e-19)
(8.73542 3.32205 -1.01194e-19)
(8.73024 3.25908 6.92048e-20)
(8.69799 3.18357 -1.20205e-19)
(8.6329 3.09381 -8.3569e-21)
(6.31618 3.21899 2.25955e-20)
(6.36762 3.2726 4.14381e-19)
(6.41615 3.31985 8.85886e-21)
(6.46201 3.3626 -2.23537e-19)
(6.50635 3.40268 5.97017e-20)
(6.55005 3.44082 -1.02252e-20)
(6.59378 3.47727 -1.62667e-19)
(6.63814 3.51215 8.74495e-20)
(6.68364 3.54547 3.40459e-19)
(6.73071 3.57707 3.74044e-20)
(6.77964 3.60666 1.39266e-19)
(6.83073 3.63399 5.48916e-19)
(6.88422 3.65871 -3.711e-19)
(6.94026 3.68038 -7.59756e-19)
(6.9989 3.69852 6.44422e-20)
(7.0601 3.71264 -2.4555e-19)
(7.12375 3.72222 6.2125e-19)
(7.18969 3.72675 -5.91704e-19)
(7.25768 3.72578 -4.15178e-19)
(7.32746 3.71893 -1.17056e-18)
(7.39866 3.70574 1.50784e-18)
(7.46831 3.68671 7.33301e-19)
(7.53392 3.66238 -7.8779e-19)
(7.59518 3.63259 -7.66906e-19)
(7.65161 3.59737 -4.41055e-19)
(7.70319 3.55696 1.54843e-18)
(7.75055 3.51202 9.47153e-19)
(7.79487 3.46364 8.53872e-19)
(7.83774 3.4133 -1.81853e-18)
(7.88092 3.36267 5.89731e-19)
(7.92603 3.31335 -7.25912e-19)
(7.97433 3.26673 4.01945e-19)
(8.0264 3.22374 -6.34075e-19)
(8.0824 3.18483 9.90585e-19)
(8.14166 3.14996 -5.03612e-19)
(8.20285 3.11875 2.1445e-19)
(8.26386 3.09038 -4.4585e-19)
(8.32349 3.06408 3.64531e-19)
(8.37918 3.03859 -2.77209e-19)
(8.42895 3.01336 -7.71149e-21)
(8.47019 2.98706 4.77658e-20)
(6.37876 3.17076 -9.33419e-20)
(6.42607 3.21842 -4.01566e-20)
(6.47088 3.2601 -4.25413e-19)
(6.5133 3.29757 5.45466e-19)
(6.5543 3.33247 -9.25386e-20)
(6.59462 3.36547 -2.84886e-20)
(6.63483 3.3968 1.10268e-19)
(6.67542 3.42661 -2.80423e-19)
(6.71684 3.45491 1.39633e-18)
(6.75944 3.48159 -2.03306e-18)
(6.80346 3.50643 1.08143e-18)
(6.84914 3.52922 3.38037e-19)
(6.89669 3.5497 -4.05055e-19)
(6.94623 3.56751 -1.71832e-18)
(6.9978 3.58227 4.3604e-19)
(7.05141 3.59356 -1.01737e-18)
(7.10697 3.60096 3.27602e-18)
(7.16434 3.60403 -8.98357e-19)
(7.22333 3.60235 -1.95049e-19)
(7.2837 3.59549 6.45794e-19)
(7.34518 3.58299 -3.13261e-18)
(7.40548 3.56545 1.90147e-18)
(7.46279 3.54364 1.14198e-18)
(7.51709 3.51786 -1.06871e-18)
(7.56793 3.48841 -2.75521e-19)
(7.61491 3.4555 9.61648e-19)
(7.6577 3.41924 -1.56272e-18)
(7.6961 3.37975 1.11706e-18)
(7.73013 3.33722 9.66013e-19)
(7.76002 3.29197 -7.0354e-19)
(7.78625 3.24451 -1.22569e-18)
(7.80946 3.1955 1.13082e-19)
(7.83042 3.14569 6.24114e-19)
(7.84999 3.09585 2.8499e-19)
(7.86897 3.04677 -7.33195e-19)
(7.88801 2.99932 7.68102e-19)
(7.90745 2.95417 -4.90248e-19)
(7.92795 2.91175 2.17329e-19)
(7.94951 2.87241 6.45365e-20)
(7.97228 2.83666 -1.86998e-19)
(7.99526 2.80438 -2.39736e-20)
(6.4321 3.12845 -2.55736e-19)
(6.47567 3.17092 2.89394e-19)
(6.5171 3.20776 2.38166e-19)
(6.5564 3.24068 1.46521e-19)
(6.59438 3.27114 -8.84318e-20)
(6.63166 3.29973 -1.09219e-19)
(6.66873 3.3267 4.43843e-19)
(6.70602 3.35217 -1.4027e-18)
(6.74389 3.37619 1.91922e-18)
(6.78263 3.39867 -9.83983e-19)
(6.82245 3.41943 -1.60322e-18)
(6.86353 3.43831 4.28861e-19)
(6.90605 3.45508 2.09408e-18)
(6.95009 3.46948 1.12081e-18)
(6.99569 3.48118 -2.00333e-18)
(7.04283 3.48984 1.51468e-18)
(7.09147 3.49512 -1.18948e-18)
(7.14148 3.49666 -2.89701e-19)
(7.19269 3.4941 3.4333e-19)
(7.24489 3.48707 -1.62026e-18)
(7.29783 3.47515 4.05659e-18)