/*--------------------------------*- C++ -*----------------------------------*\
| =========                 |                                                 |
| \\      /  F ield         | OpenFOAM: The Open Source CFD Toolbox           |
|  \\    /   O peration     | Version:  2312                                  |
|   \\  /    A nd           | Website:  www.openfoam.com                      |
|    \\/     M anipulation  |                                                 |
\*---------------------------------------------------------------------------*/
FoamFile
{
    version     2.0;
    format      ascii;
    arch        "LSB;label=32;scalar=64";
    class       volScalarField;
    location    "650";
    object      div(phi);
}
// * * * * * * * * * * * * * * * * * * * * * * * * * * * * * * * * * * * * * //

dimensions      [0 0 -1 0 0 0 0];

internalField   nonuniform List<scalar> 
11040
(
-0.0024204
-0.00199552
-0.00404554
-0.00315691
-0.00593299
-0.00539407
-0.0033562
-0.00457616
-0.00560295
-0.00879115
-0.00256655
-0.0115118
0.00159727
-0.0118109
-0.00586349
-0.0109719
-0.00168547
-0.00925866
-0.00631982
-0.013243
-0.0104899
-0.0100571
-0.00682549
-0.00587433
-0.00482472
-0.00637459
-0.00186259
-0.00524519
-0.00068566
-0.00287389
3.15586e-05
-0.00154871
-0.000787831
-0.000700406
-0.00277883
-0.00110989
-0.00468748
-0.00363842
-0.00528632
-0.0282013
-0.031747
-0.000831928
-0.000812183
-0.00163907
-0.00350099
-0.00617591
-0.00690745
-0.0060861
-0.00606842
-0.0049485
-0.00531994
-0.0037451
-0.00653057
-0.00324526
-0.00947453
-0.00584909
-0.00903376
-0.00657872
-0.0114893
-0.0101719
-0.0131676
-0.010627
-0.0105626
-0.00899679
-0.0106837
-0.00969332
-0.00923083
-0.00595497
-0.00591641
-0.00292371
-0.00254246
-0.000937442
-0.000459725
-0.000596127
-0.00013165
-0.00207666
-0.00196367
-0.00613739
-0.0060167
-0.0102444
-0.0152805
-0.0201665
-0.000923785
-0.000501067
-0.000371112
-6.04108e-05
-0.000665616
-0.00190805
-0.00200647
-0.00149785
-0.00188476
-0.00176693
-0.00106992
-0.00281035
0.000448962
-0.00196483
-0.00135406
-0.00270886
0.000240624
-0.00138069
-0.00183435
-0.00303223
-0.00118665
-0.00140724
-0.000404639
0.000388148
0.00022725
-0.000473869
0.000446918
-0.000756723
0.000343908
-0.00051173
0.000244356
-0.000397047
-0.000200422
-0.000171174
-0.000773064
6.88751e-05
-0.000466546
0.000585447
0.000229209
-0.00377109
-0.00571686
-0.000202631
2.02329e-05
2.12078e-05
7.45844e-05
-0.000584203
-0.00104969
-0.00207212
-0.00274397
-0.00340391
-0.00307824
-0.00305102
-0.0022478
-0.00176389
-0.00251711
-0.00287248
-0.0034455
-0.00353923
-0.00529442
-0.00543528
-0.00590596
-0.00496487
-0.00486148
-0.00445945
-0.00493772
-0.00454442
-0.00425172
-0.0031816
-0.00279101
-0.00183637
-0.00148275
-0.00101537
-0.00087083
-0.00095268
-0.00107888
-0.00165501
-0.00211418
-0.00316603
-0.00403056
-0.00551465
-0.00830975
-0.0095693
0.000322471
-0.000280616
5.56569e-05
-0.000265035
-0.000173824
-0.000391883
-0.000451887
-0.000875376
-0.00145295
-0.00170327
-0.00125271
-0.001171
-6.51237e-05
-0.000445793
-0.000791339
-0.00136032
-0.000674565
-0.00141136
-0.00155587
-0.00153199
-0.000505622
-0.00016378
-8.39604e-05
0.000191135
2.91225e-05
-0.000142886
-8.77753e-05
-0.000229957
-6.47727e-05
-0.000153644
1.00839e-05
-0.000185786
-0.000102224
-0.000306464
-0.000350182
-0.000553709
-0.000475685
-0.000612414
-0.000807207
-0.00206815
-0.00283513
-0.000892278
0.000294702
-0.000334531
0.000425315
-2.96111e-06
-7.41751e-05
-2.96426e-05
-0.000316621
-0.000584526
-0.00121756
-0.00138466
-0.00149317
-0.00126205
-0.00149878
-0.00165873
-0.00176919
-0.00203615
-0.00265957
-0.00293008
-0.00277674
-0.00236655
-0.0022579
-0.00227539
-0.00232533
-0.00224123
-0.00202591
-0.0018181
-0.0014467
-0.00126724
-0.000961859
-0.000951329
-0.000841354
-0.000976159
-0.00107163
-0.00139346
-0.00157597
-0.00208783
-0.00229517
-0.00317616
-0.00360077
-0.00418132
0.00032131
-0.000276273
0.000810901
8.0163e-05
-0.000115299
-0.000104864
-0.000263909
-0.00018969
-0.000448389
-0.000436514
-0.000948362
-0.000948359
-0.000975757
-0.000738345
-0.00104317
-0.00104123
-0.00127651
-0.00142993
-0.00144357
-0.00122828
-0.000546418
-0.000406742
-0.000507946
-0.000480868
-0.000468474
-0.000572821
-0.000491867
-0.000536222
-0.000403946
-0.000423623
-0.000347758
-0.00041329
-0.000452479
-0.000566978
-0.00070845
-0.000923998
-0.00100603
-0.0013014
-0.00130327
-0.00189547
-0.00171658
-0.000220273
0.000481765
0.000544507
-0.000305439
-2.61175e-05
-0.000518282
-8.49745e-06
-0.000244215
0.000107873
-0.000314056
0.00010316
-0.000205213
-0.000435472
-0.000726963
-0.000961225
-0.00140883
-0.00142245
-0.00166938
-0.00163106
-0.00127695
-0.00103555
-0.00105479
-0.00106529
-0.00110997
-0.00106282
-0.000969668
-0.000868608
-0.000754134
-0.000663128
-0.000566629
-0.000543096
-0.000526635
-0.000537124
-0.000630666
-0.000680641
-0.000803007
-0.000815534
-0.000886029
-0.000945791
-0.000928706
-0.00081419
-0.000219133
0.00102127
-0.000493415
0.000390514
-0.000806898
0.00013456
-0.000289955
0.000399353
-0.000179985
0.000367054
2.17568e-05
-0.000228032
-0.000355639
-0.000576221
-0.00102759
-0.00117437
-0.0015037
-0.00137132
-0.00113493
-0.000776452
-0.000556236
-0.000595596
-0.000756498
-0.000749871
-0.00073762
-0.000684939
-0.00066789
-0.000604124
-0.00056915
-0.000532274
-0.000528085
-0.000529044
-0.000592284
-0.000611953
-0.000754199
-0.00074579
-0.000899072
-0.00079883
-0.000879738
-0.000671199
-0.000638123
0.000598919
-0.0002651
0.0004946
-0.000672444
7.07533e-05
-0.000326942
0.000308489
-7.19502e-05
0.000269879
0.000108878
-0.000188416
-0.000189789
-0.000275529
-0.000404922
-0.000166783
-0.000598026
-0.000381051
-0.000638259
-0.000749506
-0.000576206
-0.000525326
-0.000630473
-0.000623069
-0.00065976
-0.00063894
-0.000593398
-0.000347602
-0.000513773
-0.000306426
-0.000453079
-0.000326253
-0.000458119
-0.000369674
-0.000519721
-0.000433392
-0.000608221
-0.000412441
-0.000586288
-0.000285548
-0.000444182
-2.10756e-05
7.59914e-05
0.000116586
-0.000133737
-0.000148893
-0.000198463
-6.76639e-05
-1.55789e-05
-1.67827e-05
4.93518e-05
-0.000143065
-0.00017565
-0.000138905
-0.000315457
0.000165609
-0.00014782
0.000161133
-7.45325e-05
-0.000426132
-0.000491109
-0.000584743
-0.000634532
-0.000626744
-0.000738839
-0.000707122
-0.000641117
-0.000380434
-0.000522894
-0.000164755
-0.000409454
-0.000147643
-0.00035159
-0.00016532
-0.000338014
-0.00016475
-0.000342069
-6.15726e-05
-0.000343285
0.000132725
-0.000324534
0.000383862
-0.000256312
-6.35531e-06
-4.016e-06
-0.000122047
-0.000137405
-0.000177908
-0.000143101
-0.000123673
-0.000145998
-7.7745e-05
-0.000214364
-6.72657e-05
-0.000280727
0.000161025
-2.63719e-05
0.000147596
8.78007e-05
-0.000168378
-0.000118094
-0.000241976
-0.000265128
-0.000189087
-0.000456154
-0.000444055
-0.000508433
-0.000522772
-0.000499301
-0.000300409
-0.000379371
-0.000218992
-0.000280124
-0.000197651
-0.000243139
-0.000180994
-0.000210413
-8.18369e-05
-0.000234212
0.000104935
-0.000265884
0.000326527
-0.000366285
0.000510965
-7.05421e-05
-2.63172e-05
-0.000128554
-7.47801e-05
-0.000174015
-0.000110685
-0.000165624
-0.000121675
-0.000137592
-0.00013259
-0.000137994
-4.08524e-05
1.08641e-05
7.95461e-06
8.12775e-05
-8.29039e-05
-1.96229e-05
-5.07181e-05
-7.62192e-05
0.00011743
-4.05532e-05
2.5636e-05
-0.000152559
-0.00037498
-0.000328508
-0.000552773
-0.000367865
-0.00051506
-0.00026076
-0.000449706
-0.000209744
-0.000422228
-0.000142931
-0.000396161
-0.000128321
-0.000338792
-7.37725e-05
-0.00029118
-7.58611e-05
-0.000228994
-6.05329e-05
-7.62574e-05
-8.87662e-06
-0.000123552
-2.94815e-05
-0.000165005
-4.98397e-05
-0.000172182
-6.22622e-05
-0.000149988
-7.79356e-05
-0.000121331
-7.36092e-05
-5.76319e-05
-4.42468e-05
-2.79227e-05
-5.49218e-05
-5.48548e-06
-6.52891e-05
0.000105285
2.75612e-05
6.81177e-05
-3.45362e-06
-0.000107163
-0.000101617
-0.000431844
-0.000277668
-0.000621193
-0.000283607
-0.000629203
-0.000245678
-0.000616055
-0.000149624
-0.000623438
-6.84578e-05
-0.000678221
0.000102362
-0.000793226
0.000300795
-0.000904532
0.000464038
-0.000882527
-6.74335e-05
2.46357e-06
-0.000111913
-7.23218e-06
-0.00015271
-1.30823e-05
-0.000167275
-1.50775e-05
-0.000152211
-2.59927e-05
-0.000124798
-3.18987e-05
-8.57096e-05
-4.36239e-05
-6.62467e-05
-6.47834e-05
-6.18232e-05
-2.1956e-05
-4.57774e-06
-2.81831e-05
-2.59746e-05
-7.69962e-05
-6.48867e-05
-0.000195269
-0.000164679
-0.000321516
-0.000240403
-0.000389225
-0.000263115
-0.000405473
-0.000237001
-0.000404331
-0.000191727
-0.000411669
-0.000108661
-0.000418089
4.05017e-05
-0.000395857
0.00013733
-0.000346139
0.000295144
-5.9408e-05
9.16271e-06
-0.000100701
4.47975e-06
-0.000136623
1.07467e-05
-0.000154216
1.82284e-05
-0.000147283
2.46393e-05
-0.000119789
1.75062e-05
-9.29467e-05
-2.93039e-06
-8.48007e-05
-4.57763e-05
-8.70134e-05
-6.9954e-05
-8.2951e-05
-8.11829e-05
-9.10408e-05
-0.000101919
-0.000108509
-0.000133485
-0.000128996
-0.000172116
-0.000140289
-0.000202955
-0.000145671
-0.000236527
-0.000134842
-0.000246593
-8.76668e-05
-0.0002641
1.49731e-05
-0.00025882
0.000161291
-0.000311339
0.000344523
-0.00034871
0.000381833
-5.5717e-05
1.26567e-05
-8.9041e-05
1.35362e-05
-0.000116407
2.37973e-05
-0.000133026
3.60724e-05
-0.000131726
4.79701e-05
-0.000113748
4.66694e-05
-9.73631e-05
2.76582e-05
-9.04611e-05
-7.28636e-06
-9.38439e-05
-4.52502e-05
-0.000100589
-6.56775e-05
-0.000108489
-8.04879e-05
-0.0001205
-9.14513e-05
-0.000127546
-9.82073e-05
-0.000131546
-0.000102085
-0.000129905
-0.000116485
-0.000119792
-0.000138824
-8.69253e-05
-0.000170659
-1.57231e-05
-0.000240277
9.29684e-05
-0.000336357
0.000178468
-0.0003863
0.000312061
-4.18002e-05
2.71024e-06
-6.91951e-05
3.62992e-06
-9.06035e-05
1.11092e-05
-0.000105984
2.13785e-05
-0.000109458
3.31014e-05
-0.000100113
3.44666e-05
-8.9201e-05
2.3516e-05
-8.221e-05
-1.86233e-07
-8.12548e-05
-2.99198e-05
-8.71029e-05
-4.86746e-05
-9.69739e-05
-6.14423e-05
-0.000115056
-6.85329e-05
-0.000130871
-7.14608e-05
-0.000144228
-7.4473e-05
-0.000152572
-8.31235e-05
-0.000148487
-9.83006e-05
-0.000120996
-0.000121678
-6.46461e-05
-0.000150952
1.20246e-05
-0.00019815
0.000132553
-0.000285486
0.000157672
-4.2213e-05
4.2222e-06
-5.34324e-05
2.78424e-06
-6.70648e-05
7.98668e-06
-7.77192e-05
1.68502e-05
-8.27531e-05
2.50991e-05
-7.93555e-05
2.67608e-05
-7.28222e-05
1.99374e-05
-6.74103e-05
5.76343e-06
-6.46707e-05
-1.36913e-05
-6.71003e-05
-2.5527e-05
-7.55422e-05
-3.39258e-05
-9.35658e-05
-3.76189e-05
-0.000113232
-3.92307e-05
-0.000133033
-4.11458e-05
-0.000152267
-4.70518e-05
-0.000164896
-6.13205e-05
-0.000166434
-8.83553e-05
-0.000154078
-0.000141344
-0.000125779
-0.000220528
-0.00010918
-0.000304465
-4.02495e-05
1.26939e-05
-3.37396e-05
-6.4332e-07
-3.17491e-05
-1.92214e-05
-2.20768e-05
-3.26912e-05
-1.41976e-05
-4.18201e-05
-5.2725e-06
-4.44109e-05
-1.05333e-06
-4.15445e-05
-2.68803e-07
-3.67188e-05
-6.97497e-06
-3.27514e-05
-1.63119e-05
-3.25349e-05
-2.35506e-05
-4.24781e-05
-2.16249e-05
-6.24608e-05
-1.86449e-05
-8.4933e-05
-1.18016e-05
-0.000109094
-5.99461e-06
-0.00013305
-2.4897e-08
-0.000153322
6.34885e-07
-0.000164376
-9.61563e-06
-0.000161014
-3.12797e-05
-0.000138509
-6.96646e-05
-6.88323e-05
-0.000155296
-2.55572e-05
-5.85222e-05
5.17815e-05
-6.78034e-05
5.34568e-05
-8.85672e-05
6.05348e-05
-0.000106427
7.07231e-05
-0.000118736
8.2023e-05
-0.000129062
8.87616e-05
-0.000126854
8.97739e-05
-0.000125966
8.65904e-05
-0.000120313
7.94376e-05
-0.000121511
7.36672e-05
-0.000122997
7.53121e-05
-0.000141633
8.21998e-05
-0.000156153
9.16988e-05
-0.000177262
0.000101371
-0.000192264
0.000105422
-0.000202515
0.000101098
-0.000219593
8.74843e-05
-0.000221726
6.11434e-05
-0.000200048
6.75822e-06
-0.000162417
-9.66034e-05
-0.000100829
5.7649e-06
-5.86843e-06
1.26317e-05
-2.46823e-05
4.16443e-06
-3.59651e-05
2.03654e-06
-4.73171e-05
3.4978e-06
-5.57591e-05
5.29433e-06
-6.26473e-05
6.61299e-06
-6.36414e-05
5.55821e-06
-6.57952e-05
2.68377e-06
-6.60665e-05
-2.45965e-06
-7.05838e-05
-4.13729e-06
-8.2628e-05
-3.77222e-06
-9.96655e-05
-3.25038e-06
-0.000119576
-5.02976e-06
-0.000144759
-1.42493e-05
-0.000167572
-3.5269e-05
-0.000222001
-5.77157e-05
-0.000253209
-8.02817e-05
-0.000269575
-0.000122658
-0.000279252
-0.000164106
-0.000261625
-0.000214713
-3.56782e-05
2.61037e-05
-1.46882e-05
8.28672e-06
-2.07999e-05
-5.34683e-06
-2.11523e-05
-1.68389e-05
-1.85907e-05
-2.70895e-05
-1.74125e-05
-3.46201e-05
-1.40496e-05
-3.92895e-05
-1.47843e-05
-4.25575e-05
-1.61765e-05
-4.5446e-05
-2.11989e-05
-5.14796e-05
-2.00009e-05
-6.44725e-05
-2.19342e-05
-8.1893e-05
-2.39676e-05
-0.000102942
-3.38705e-05
-0.000131634
-4.57313e-05
-0.000170833
-5.72449e-05
-0.000207295
-5.18043e-05
-0.000218241
-3.17116e-05
-0.000219192
-5.30176e-06
-0.000173759
-2.49599e-06
-0.000142212
-3.91962e-05
2.33511e-05
-1.87006e-05
3.32669e-05
-3.4112e-05
2.95368e-05
-5.06164e-05
3.15891e-05
-6.49241e-05
3.70129e-05
-7.55646e-05
4.33517e-05
-8.60594e-05
4.80452e-05
-8.89897e-05
4.9138e-05
-9.37878e-05
4.80745e-05
-9.41553e-05
4.49999e-05
-9.74445e-05
4.3017e-05
-9.97484e-05
4.41246e-05
-0.000104147
4.32735e-05
-0.000106521
3.67431e-05
-0.000108344
2.89111e-05
-0.000118432
2.5422e-05
-0.000116315
3.48674e-05
-0.000114646
5.62185e-05
-9.57908e-05
7.01364e-05
-8.40423e-05
6.96068e-05
-7.05658e-05
5.53327e-05
-2.23057e-05
2.21475e-05
-3.22665e-07
8.1068e-06
-1.42738e-05
3.62209e-07
-2.22304e-05
-2.16678e-06
-3.03867e-05
-1.87229e-06
-3.66576e-05
-8.54136e-07
-4.30612e-05
-4.72961e-07
-4.72992e-05
-1.91488e-06
-5.23924e-05
-4.58962e-06
-5.57181e-05
-7.49126e-06
-6.1386e-05
-8.11613e-06
-6.95252e-05
-9.24907e-06
-7.88581e-05
-1.47284e-05
-8.1341e-05
-3.07114e-05
-0.000104867
-4.20967e-05
-0.000111701
-4.49861e-05
-0.000113479
-3.39143e-05
-0.000115828
-1.02087e-05
-9.03102e-05
7.62029e-06
-8.60439e-05
-3.92198e-06
-5.96357e-05
1.11905e-05
-6.33181e-06
1.71928e-05
-9.1578e-06
5.42057e-06
-1.30895e-05
-3.14704e-06
-1.53512e-05
-1.047e-05
-1.22981e-05
-1.71643e-05
-1.22017e-05
-2.35118e-05
-9.30513e-06
-2.92364e-05
-1.15025e-05
-3.46297e-05
-1.28337e-05
-4.00296e-05
-1.51871e-05
-4.70399e-05
-1.74048e-05
-5.81913e-05
-2.37069e-05
-6.85427e-05
-3.26482e-05
-8.36714e-05
-3.87265e-05
-8.56103e-05
-3.8488e-05
-7.62961e-05
-2.23273e-05
-6.01218e-05
1.26835e-06
-2.20913e-05
2.44153e-05
-3.14012e-07
3.22181e-05
9.28909e-06
3.39787e-05
6.12733e-06
-1.67638e-05
2.33389e-05
-1.08725e-05
1.93972e-05
-1.79549e-05
1.72298e-05
-2.87199e-05
1.86065e-05
-3.6336e-05
2.21745e-05
-4.39e-05
2.6124e-05
-4.90644e-05
2.82103e-05
-5.29692e-05
2.7668e-05
-5.59078e-05
2.43245e-05
-5.6135e-05
1.86387e-05
-6.00968e-05
1.36412e-05
-6.20187e-05
5.52623e-06
-5.99344e-05
-1.60138e-06
-5.43522e-05
-8.14554e-06
-4.18721e-05
-7.75217e-06
-2.4231e-05
-2.98476e-06
-4.4171e-06
1.08326e-06
7.23698e-06
-1.17627e-06
1.22486e-05
-8.86829e-06
1.26152e-05
-1.65008e-05
1.79171e-05
1.06066e-05
-9.19099e-06
1.47371e-05
-1.70314e-07
6.33205e-06
-5.49288e-06
2.34426e-06
-1.07137e-05
1.12855e-06
-1.45825e-05
1.36744e-06
-1.95619e-05
1.53314e-06
-2.33364e-05
5.78244e-07
-2.95995e-05
-3.42508e-06
-3.34092e-05
-1.25216e-05
-4.38662e-05
-1.74278e-05
-5.30073e-05
-3.08384e-05
-6.16107e-05
-4.94925e-05
-8.24552e-05
-6.39127e-05
-8.53909e-05
-7.57952e-05
-8.55605e-05
-7.92893e-05
-8.36266e-05
-7.46798e-05
-6.81328e-05
-6.65428e-05
-5.52499e-05
-6.05109e-05
-3.75967e-05
-5.14305e-05
-2.6019e-05
-4.48622e-05
-7.90283e-06
1.48936e-05
-6.06307e-06
1.01434e-05
-3.45505e-06
4.82025e-06
-4.52321e-06
8.55017e-07
-3.85711e-06
-2.80213e-06
-2.77797e-06
-6.87716e-06
-7.62118e-07
-1.13471e-05
-3.37922e-06
-1.70009e-05
-6.82068e-06
-2.56643e-05
-9.47459e-06
-2.92239e-05
-1.90559e-05
-3.81641e-05
-2.82036e-05
-5.25722e-05
-3.80019e-05
-5.1753e-05
-4.65044e-05
-5.48631e-05
-4.68859e-05
-4.9333e-05
-4.1398e-05
-3.29624e-05
-3.44895e-05
-2.05161e-05
-3.41381e-05
-1.36742e-05
-3.74275e-05
-6.64845e-06
-3.85378e-05
4.31848e-07
-3.79952e-05
7.33218e-06
-1.39491e-05
1.34315e-05
-8.4703e-06
9.97863e-06
-8.46902e-06
1.03247e-05
-1.23978e-05
1.21323e-05
-1.52935e-05
1.40928e-05
-1.72738e-05
1.48089e-05
-2.18936e-05
1.4193e-05
-2.41853e-05
9.56999e-06
-2.43085e-05
2.20629e-06
-3.19992e-05
-3.78026e-06
-3.27143e-05
-1.07896e-05
-2.95587e-05
-1.36612e-05
-2.80026e-05
-1.1999e-05
-1.35799e-05
-7.02107e-06
2.09091e-06
-3.46954e-06
9.91558e-06
-6.20485e-06
1.23956e-05
-1.48518e-05
1.19341e-05
-2.55735e-05
1.1177e-05
-3.20404e-05
1.37119e-05
-3.54942e-05
-6.49315e-06
1.04583e-05
-9.71956e-06
6.71192e-06
-2.21689e-06
2.16973e-06
-3.07528e-06
1.36969e-06
-4.89129e-06
1.26086e-06
-6.2247e-06
1.05994e-07
-1.02101e-05
6.42919e-07
-1.35618e-05
-4.09628e-06
-1.63419e-05
-1.12249e-05
-2.63981e-05
-1.32189e-05
-2.7064e-05
-1.77878e-05
-2.71649e-05
-1.91167e-05
-2.80671e-05
-1.43604e-05
-1.42075e-05
-8.86552e-06
-3.58192e-06
-6.01268e-06
2.15378e-06
-5.41791e-06
6.33668e-06
-7.61067e-06
7.48439e-06
-1.20955e-05
9.79267e-06
-1.62269e-05
9.86738e-06
-1.863e-05
1.64807e-05
5.21813e-06
-1.0855e-05
8.41865e-06
-7.55248e-06
1.92111e-06
-3.93469e-06
-2.67578e-07
-3.02691e-06
-1.65042e-06
-2.13391e-06
-3.96289e-06
-9.30093e-07
-5.41382e-06
-3.80296e-06
-9.02786e-06
-4.71389e-06
-1.51283e-05
-6.25923e-06
-1.31652e-05
-1.20387e-05
-1.72098e-05
-1.35814e-05
-2.12685e-05
-1.57789e-05
-1.5047e-05
-1.78372e-05
-1.58511e-05
-1.97236e-05
-1.57688e-05
-2.0243e-05
-1.17223e-05
-1.97994e-05
-8.63064e-06
-2.00066e-05
-4.32139e-06
-2.08854e-05
-1.92937e-06
-2.14311e-05
2.17238e-06
-2.1217e-05
6.48595e-06
-4.54072e-06
7.82623e-06
-1.16367e-05
5.37242e-06
-8.22947e-06
1.35834e-06
-5.67382e-06
2.19106e-06
-5.95702e-06
2.54373e-06
-6.09335e-06
2.09856e-06
-8.18411e-06
1.98501e-06
-7.77348e-06
-6.20187e-07
-6.83459e-06
-2.76554e-06
-1.01607e-05
-4.38644e-06
-5.6257e-06
-5.57976e-06
-4.54437e-07
-4.98777e-06
8.60825e-07
-4.14173e-06
9.33071e-06
-1.93496e-06
1.57338e-05
-1.54638e-06
1.74452e-05
-2.54388e-06
1.81307e-05
-4.7747e-06
1.85838e-05
-7.36161e-06
1.87585e-05
-8.79517e-06
2.12524e-05
-6.82798e-06
2.24388e-05
3.98235e-06
-8.31126e-06
6.76574e-06
-8.95665e-06
1.29867e-06
-2.01545e-06
-1.34814e-07
-1.80354e-06
-3.03139e-07
-2.23166e-06
-4.65539e-07
-3.29371e-06
-1.7971e-07
-3.30369e-06
-2.13494e-06
-3.54284e-06
-2.05632e-06
-5.97086e-06
-1.58083e-06
-1.32679e-07
-3.69019e-06
-2.22922e-07
-3.31211e-06
4.18725e-07
-3.85896e-06
7.71411e-06
-4.89145e-06
6.0889e-06
-7.72917e-06
6.13449e-06
-9.17248e-06
6.20408e-06
-1.01965e-05
6.94445e-06
-1.13854e-05
7.78186e-06
-1.27678e-05
9.42053e-06
-1.13134e-05
9.63684e-06
-1.05562e-05
-2.65506e-06
6.26323e-06
-8.07557e-06
4.83999e-06
-2.10998e-06
-5.21111e-07
-2.89177e-07
-4.92646e-07
-1.71489e-07
-1.02233e-06
-3.11588e-07
-1.04081e-06
-1.28665e-06
-1.78458e-06
3.6403e-07
-1.05981e-06
-7.85306e-07
2.08607e-06
-1.73199e-06
3.66137e-07
7.38359e-07
6.5546e-06
1.43951e-06
1.25948e-05
3.98143e-06
1.56836e-05
5.50091e-06
2.18471e-05
6.67473e-06
2.40837e-05
6.07635e-06
2.53043e-05
4.78664e-06
2.43523e-05
2.65691e-06
2.43085e-05
8.31344e-07
2.42129e-05
2.26796e-06
2.40302e-05
3.14187e-06
3.40372e-06
-5.30929e-06
6.19871e-06
-4.61526e-06
1.3466e-07
-4.23122e-07
-1.54739e-07
-8.43092e-07
5.13452e-07
-1.04982e-06
4.90188e-07
-1.3851e-06
1.02722e-06
-2.80189e-07
-4.43195e-07
3.40348e-07
-2.80255e-07
-9.17471e-08
1.79828e-07
4.79295e-06
3.52409e-07
7.11478e-06
3.13938e-06
1.1922e-05
5.74393e-06
1.95238e-05
8.58049e-06
2.36543e-05
8.65668e-06
2.59976e-05
8.13692e-06
2.57915e-05
6.61005e-06
2.6091e-05
4.68222e-06
2.51173e-05
2.95191e-06
2.49935e-05
4.29164e-06
2.44092e-05
4.92925e-06
-1.563e-06
5.02605e-06
-4.74571e-06
2.59711e-06
-4.0221e-07
-2.20358e-06
-8.29641e-07
3.3769e-07
-9.15385e-07
1.46744e-06
-1.48725e-06
2.97958e-06
-2.37256e-06
3.8212e-06
-2.65722e-06
5.97762e-06
-3.40003e-06
8.52507e-06
-3.19495e-06
1.00328e-05
-2.38818e-06
1.47226e-05
-1.32779e-06
1.85954e-05
-5.69486e-07
2.04609e-05
-1.12576e-06
2.12471e-05
-1.84012e-06
2.04754e-05
-2.82539e-06
1.94249e-05
-3.4563e-06
1.72612e-05
-4.59558e-06
1.57941e-05
-5.53943e-06
1.43868e-05
-4.69917e-06
1.2371e-05
-3.92354e-06
2.67799e-06
-3.13792e-06
4.29179e-06
-2.04752e-06
-1.73183e-06
1.54105e-07
-7.83885e-07
-5.54287e-08
3.17263e-07
1.83977e-07
1.04348e-06
2.47438e-07
1.76603e-06
4.52968e-07
3.35261e-06
-1.79533e-07
4.76919e-06
1.21486e-07
5.79205e-06
-4.97884e-07
8.82219e-06
-1.20203e-06
9.05543e-06
-2.98166e-06
9.62243e-06
-4.07228e-06
1.04435e-05
-4.97147e-06
1.12316e-05
-5.25306e-06
1.22405e-05
-5.36476e-06
1.25192e-05
-5.40155e-06
1.28556e-05
-5.59275e-06
1.24186e-05
-5.91998e-06
1.18013e-05
-4.25628e-06
1.18211e-05
-8.44009e-07
3.82593e-06
-2.68566e-06
1.66756e-06
2.94116e-07
-1.65544e-06
-2.83173e-07
-4.79506e-07
6.98956e-07
2.19932e-07
1.46082e-06
5.60443e-07
2.68925e-06
3.90841e-07
3.77903e-06
1.0397e-06
5.91651e-06
5.06834e-07
7.53005e-06
3.4347e-07
8.72498e-06
-3.65415e-07
1.04963e-05
-1.13549e-06
1.16377e-05
-1.95989e-06
1.31869e-05
-2.42644e-06
1.43233e-05
-2.69378e-06
1.599e-05
-2.61594e-06
1.67862e-05
-2.48595e-06
1.8118e-05
-2.17431e-06
1.8466e-05
-2.23672e-06
1.91547e-05
4.05536e-07
1.91703e-05
2.09634e-06
-1.79411e-06
3.17762e-06
-1.06393e-06
-8.24066e-07
-2.34431e-07
-1.43124e-06
4.46203e-07
-7.05094e-07
1.35044e-06
3.36785e-07
1.49675e-06
1.50807e-06
1.64332e-06
3.38875e-06
1.2195e-06
4.92644e-06
9.01821e-07
6.34455e-06
2.98069e-07
8.11537e-06
-7.32663e-07
9.60331e-06
-1.82943e-06
1.09907e-05
-2.71852e-06
1.24001e-05
-3.48865e-06
1.37818e-05
-4.04815e-06
1.46505e-05
-4.43606e-06
1.55847e-05
-4.64508e-06
1.59193e-05
-4.70274e-06
1.6526e-05
-5.07571e-06
1.62717e-05
-3.46786e-06
1.67052e-05
-3.81319e-07
2.85278e-06
-1.4533e-06
1.43147e-06
-6.77748e-08
-1.24134e-06
-5.16911e-07
-1.91116e-06
1.74777e-06
-1.80131e-06
3.57165e-06
-2.09027e-06
5.5171e-06
-2.54423e-06
7.49664e-06
-2.94658e-06
8.98842e-06
-3.72787e-06
1.06932e-05
-4.54199e-06
1.06239e-05
-5.79316e-06
1.125e-05
-6.38626e-06
1.1976e-05
-6.74404e-06
1.30113e-05
-6.56829e-06
1.44412e-05
-6.21078e-06
1.58041e-05
-5.55974e-06
1.73543e-05
-4.9343e-06
1.84202e-05
-4.18888e-06
1.99186e-05
-4.08013e-06
2.05745e-05
-1.60885e-06
2.09895e-05
1.58608e-06
-9.07612e-07
2.39861e-06
-5.781e-07
1.98444e-07
-9.23754e-07
-7.53363e-07
-5.07358e-07
-3.48112e-07
7.36193e-07
5.71164e-08
1.83721e-06
1.72226e-07
3.13578e-06
1.4674e-07
4.80548e-06
-1.00152e-07
6.45218e-06
-4.96051e-07
7.49231e-06
-1.6649e-06
8.90512e-06
-2.84499e-06
9.23227e-06
-4.41728e-06
9.64689e-06
-5.27634e-06
1.07325e-05
-5.74798e-06
1.17804e-05
-5.78004e-06
1.30797e-05
-5.61347e-06
1.38275e-05
-5.19197e-06
1.50752e-05
-4.54874e-06
1.66652e-05
-2.67972e-06
1.77145e-05
-3.22536e-06
-5.35437e-09
2.18e-06
-7.21041e-07
1.34025e-06
-9.66068e-08
-2.12799e-08
-1.04831e-06
-3.41572e-07
-3.10714e-07
5.95198e-07
9.16178e-08
1.58898e-06
2.03674e-07
2.86026e-06
1.80648e-07
4.33081e-06
6.55913e-08
5.97859e-06
-7.67432e-07
6.67805e-06
-1.82131e-06
7.58704e-06
-3.32644e-06
7.69172e-06
-4.73374e-06
7.923e-06
-5.63144e-06
8.95314e-06
-6.04048e-06
1.00291e-05
-6.21824e-06
1.14422e-05
-6.17756e-06
1.23518e-05
-5.98405e-06
1.38392e-05
-5.55104e-06
1.55984e-05
-4.10158e-06
1.69316e-05
-4.91979e-06
1.15154e-06
-4.60984e-07
1.34776e-06
-3.06046e-07
4.99673e-07
-3.90369e-07
-4.98717e-07
-5.00098e-07
-2.78033e-07
3.93949e-07
-1.66441e-08
1.32227e-06
6.61078e-08
2.50876e-06
2.5418e-09
3.84565e-06
-6.81468e-07
4.55086e-06
-1.53189e-06
5.3138e-06
-3.00138e-06
5.35817e-06
-4.24285e-06
5.57482e-06
-5.32585e-06
6.34885e-06
-5.70564e-06
7.38892e-06
-6.00855e-06
8.79399e-06
-5.95605e-06
1.0101e-05
-6.01052e-06
1.17513e-05
-5.87866e-06
1.29019e-05
-6.03694e-06
1.48475e-05
-5.65092e-06
1.50748e-05
-6.72687e-06
8.67621e-07
1.42546e-06
1.87086e-07
1.01049e-06
-1.61543e-07
1.54408e-07
-9.84668e-07
-2.96156e-07
-7.50251e-07
1.8558e-07
-4.82309e-07
8.21277e-07
-3.19509e-07
1.70885e-06
-5.29089e-07
2.35618e-06
-9.42327e-07
3.01276e-06
-1.82352e-06
3.14834e-06
-2.57242e-06
3.55972e-06
-3.33628e-06
4.40601e-06
-3.62043e-06
5.58105e-06
-3.91578e-06
7.00103e-06
-3.97964e-06
8.38933e-06
-4.19062e-06
9.8205e-06
-4.21661e-06
1.09138e-05
-4.2075e-06
1.2273e-05
-3.92261e-06
1.39016e-05
-3.16109e-06
1.4923e-05
-4.73635e-06
1.34258e-06
1.26084e-06
1.47731e-06
1.8753e-07
7.63196e-07
-6.82958e-07
-8.45579e-08
-1.33092e-06
-2.00411e-07
-1.07548e-06
-2.94125e-07
-5.81348e-07
-6.51261e-07
6.42585e-08
-1.1257e-06
8.68623e-07
-1.7459e-06
1.44097e-06
-2.37985e-06
2.03239e-06
-2.93206e-06
2.74732e-06
-3.31293e-06
3.71244e-06
-3.64506e-06
4.71033e-06
-3.93287e-06
5.8517e-06
-4.29836e-06
7.04686e-06
-4.71068e-06
8.26948e-06
-5.19248e-06
9.79703e-06
-5.55977e-06
1.10659e-05
-6.0033e-06
1.31821e-05
-5.83143e-06
1.3829e-05
-6.34529e-06
1.61449e-06
1.44955e-06
8.5485e-07
8.07941e-07
-1.58588e-09
2.84519e-07
-1.13418e-06
6.3741e-08
-1.68269e-06
3.1202e-07
-2.36359e-06
4.60707e-07
-3.098e-06
6.22301e-07
-3.76847e-06
6.62552e-07
-4.04595e-06
6.39807e-07
-4.07068e-06
7.94665e-07
-3.74358e-06
1.25148e-06
-3.38512e-06
1.84936e-06
-3.0183e-06
2.55037e-06
-2.90078e-06
3.07921e-06
-2.98125e-06
3.57468e-06
-3.34055e-06
3.91841e-06
-3.84916e-06
4.22573e-06
-4.49344e-06
4.34673e-06
-5.34198e-06
4.63249e-06
-6.68416e-06
3.86675e-06
-8.79923e-06
1.71755e-07
2.24565e-07
1.83996e-07
7.50729e-08
8.99291e-08
-2.28826e-07
-5.9936e-08
-4.98971e-07
-5.69559e-08
-9.39411e-07
-9.44844e-08
-1.70238e-06
-1.36313e-07
-2.84647e-06
-3.57537e-07
-4.22836e-06
-6.12433e-07
-5.58687e-06
-1.02179e-06
-6.92093e-06
-1.49134e-06
-8.12773e-06
-1.93717e-06
-9.14875e-06
-2.28585e-06
-1.00007e-05
-2.46182e-06
-1.07461e-05
-2.33303e-06
-1.15368e-05
-1.99217e-06
-1.25169e-05
-1.00876e-06
-1.38056e-05
2.1713e-07
-1.55563e-05
2.48102e-06
-1.86603e-05
4.73133e-06
-2.10452e-05
9.62031e-06
-0.086303
-0.0344566
0.0238599
-0.0555846
0.0544106
0.00301552
-0.005031
0.00366609
0.0302886
-0.00423572
0.0546522
-0.0322809
-0.0104899
0.0190874
-0.0153571
0.0103228
-0.0126943
0.00636583
-0.011033
-0.00126778
-0.00270199
-0.000971937
-0.000585901
-0.000898939
-0.000432433
-0.00451467
0.00333219
-0.000392176
-0.000116137
-0.00138871
0.00156971
0.000827648
0.0014813
0.000547366
0.000749696
0.000521152
0.000559
0.000337158
0.00143373
-0.00110941
0.000443865
0.00134635
-0.000953733
0.00138828
-0.000902233
0.00047779
0.000614828
-0.00056269
-0.000350232
0.000161875
-0.000265919
-5.46532e-05
-0.000124523
-3.36171e-05
-1.06182e-05
-0.000184767
-6.80089e-05
-8.53032e-05
-9.45428e-05
-5.43095e-05
-0.000146223
1.59522e-05
-5.46354e-05
-0.000103667
3.96887e-06
-0.000170714
0.000101831
-3.81481e-05
-1.21436e-05
-6.91554e-05
7.73368e-05
-4.52537e-05
1.70827e-05
-1.79759e-06
-0.0249107
-0.00913022
0.00349579
-0.00973537
0.0158113
0.00781706
0.00508648
0.00879079
0.014481
0.0079943
0.0166213
0.0012186
-0.000105615
0.0108434
-0.00359685
0.00567224
-0.00404996
0.00251635
-0.0017168
0.000545925
0.000188765
-0.000229678
0.000330343
-0.000494827
0.000306087
-0.0011589
0.00100923
-0.000163631
-0.000178489
-0.000497888
1.0057e-06
2.33822e-05
8.71796e-05
-2.14107e-05
9.44254e-05
-0.000103305
-1.95618e-05
-9.33662e-05
-8.28134e-06
-0.00056066
-1.99016e-05
8.07311e-05
-0.000443819
0.000161292
-0.000426612
3.19477e-05
-7.32092e-05
-0.000175642
-0.000214265
-5.68836e-06
-0.000151442
-6.36794e-05
-8.34366e-05
-4.05063e-05
-4.13548e-05
-6.74631e-05
-3.59655e-05
-3.62728e-05
-4.08981e-05
-2.30989e-05
-4.52782e-05
-1.50315e-06
-2.185e-05
-3.99606e-05
4.4963e-06
-4.26209e-05
2.57863e-05
-7.8435e-06
-1.76201e-06
-1.75113e-05
3.57501e-05
-1.28945e-05
1.17256e-05
3.61638e-07
-0.0112881
-0.00311916
0.000279415
-0.00404362
-0.000161396
-0.00316645
-0.00419892
-0.0034767
-0.00495642
-0.00520379
-0.00141252
-0.00448742
-0.00352182
0.000538427
-0.00622398
7.4328e-05
-0.00506418
-0.000571897
-0.00230718
-0.00113741
-0.00109845
-0.00136311
-0.000701723
-0.00105139
-0.000342376
-0.00116577
0.000319319
2.10403e-05
0.000145911
-0.000192232
0.000361693
0.000318728
0.000404886
0.000368427
0.000483144
0.000439432
0.000495754
0.000406358
0.000443688
0.000227985
0.000384366
0.00038119
8.19187e-05
0.000472532
-6.40217e-05
0.000281972
9.52923e-05
5.58907e-05
-4.57502e-05
0.000108149
-5.43285e-05
1.71896e-05
-2.68611e-05
3.64645e-06
-1.02365e-05
-4.11081e-05
-2.26937e-05
-3.69256e-05
-3.54585e-05
-2.80088e-05
-3.62812e-05
-1.1808e-05
-2.94703e-05
-4.3154e-05
-5.7848e-06
-4.2204e-05
8.7066e-06
-2.62155e-05
-2.55202e-05
-2.8757e-05
2.04201e-05
-3.1013e-05
2.59273e-06
-3.22442e-06
-0.0117911
-0.0061641
-0.00223011
-0.00263321
0.00392258
0.004582
0.00482641
0.00612445
0.00704861
0.00584592
0.00706979
0.00424794
0.00270153
0.00534652
-0.000227725
0.0029376
-0.00173224
0.000668441
-0.000665658
-6.38111e-05
-5.38173e-05
-0.000483069
3.53909e-05
-0.000513474
0.000226722
-0.000542573
0.000590221
4.99013e-05
-5.89225e-05
-8.40804e-05
9.70181e-05
0.000157463
0.000161655
0.000129454
0.000168225
-6.68812e-06
0.000100433
-1.29162e-05
-7.27812e-05
-0.000192789
5.59619e-05
-3.93418e-05
-0.000187505
5.61781e-05
-0.000238751
3.23021e-06
-0.000136253
-5.2798e-05
-0.000154404
-1.51145e-05
-0.000111735
-5.37883e-05
-6.60866e-05
-3.89689e-05
-4.23641e-05
-4.66373e-05
-3.15122e-05
-3.16977e-05
-3.35408e-05
-2.35335e-05
-3.31738e-05
-1.33416e-05
-2.24707e-05
-3.07412e-05
-1.67674e-06
-2.532e-05
4.92329e-06
-9.66544e-06
-1.03227e-05
-9.75566e-06
2.18815e-05
-1.41988e-05
8.04176e-06
-1.02608e-06
-0.00299036
-0.00165365
-0.000617006
-0.000675201
-0.00101924
-0.00169438
-0.00153773
-0.00229423
-0.00345689
-0.00320873
-0.00230863
-0.00162369
-0.0015733
-0.00121407
-0.00279071
-0.00101882
-0.0025943
-0.00109776
-0.00117906
-0.000778101
-0.00081573
-0.000814913
-0.000601091
-0.000686122
-0.000415916
-0.00063535
-4.27013e-05
2.88637e-06
-0.000126329
-0.000185261
3.03533e-05
8.36138e-05
0.000104272
0.00012426
0.00026417
0.000235856
0.000305409
0.000249566
0.000290303
0.000263657
0.000306327
0.000212233
0.000183666
0.000266132
4.07013e-05
0.000166618
3.98556e-05
9.12804e-05
-1.25575e-06
6.77378e-05
-1.6251e-05
1.50288e-05
-1.49033e-05
2.83601e-06
-1.11534e-05
-2.39638e-05
-1.39007e-05
-2.47187e-05
-1.9904e-05
-1.91691e-05
-2.07164e-05
-1.45673e-05
-2.28553e-05
-2.59865e-05
-3.47163e-06
-2.39363e-05
-2.56588e-06
-2.01511e-05
-1.93071e-05
-1.33979e-05
1.48417e-05
-2.66708e-05