/*--------------------------------*- C++ -*----------------------------------*\
| =========                 |                                                 |
| \\      /  F ield         | OpenFOAM: The Open Source CFD Toolbox           |
|  \\    /   O peration     | Version:  2312                                  |
|   \\  /    A nd           | Website:  www.openfoam.com                      |
|    \\/     M anipulation  |                                                 |
\*---------------------------------------------------------------------------*/
FoamFile
{
    version     2.0;
    format      ascii;
    arch        "LSB;label=32;scalar=64";
    class       volScalarField;
    location    "650";
    object      magR;
}
// * * * * * * * * * * * * * * * * * * * * * * * * * * * * * * * * * * * * * //

dimensions      [0 2 -2 0 0 0 0];

internalField   nonuniform List<scalar> 
11040
(
0.479629
0.526613
0.0806831
0.0559212
0.336923
0.34369
0.324918
0.295447
0.265306
0.246053
0.228481
0.213172
0.20071
0.191436
0.184037
0.180772
0.18125
0.185442
0.192891
0.203573
0.217904
0.235427
0.256055
0.28002
0.307253
0.33892
0.374105
0.407421
0.435634
0.455113
0.462122
0.454044
0.432367
0.404616
0.379081
0.281123
0.144349
0.0835176
0.0352988
0.157919
0.282359
0.0390175
0.0825381
0.282036
0.519329
0.99115
0.325718
0.101085
0.0336768
0.00786913
0.00839503
0.0180692
0.0235507
0.0271283
0.0297583
0.0314621
0.0332152
0.0354865
0.0380788
0.0406783
0.0433118
0.0460522
0.0490131
0.051364
0.0522172
0.0512977
0.049631
0.0478262
0.0446243
0.0401786
0.0353395
0.0318281
0.031213
0.0320046
0.0361239
0.0442689
0.0565433
0.0742411
0.0959931
0.149266
0.172105
0.655302
0.0240409
0.02162
0.0491621
0.216909
1.16403
1.54886
0.792452
0.299637
0.140104
0.0830842
0.0460524
0.0254942
0.0115986
0.00267805
0.00553538
0.0100995
0.0133115
0.0157277
0.0174965
0.0187042
0.0194883
0.0198538
0.0193332
0.0177322
0.0153591
0.0126401
0.00971033
0.0062439
0.00204551
0.00573774
0.015245
0.0287659
0.0471591
0.0707275
0.100226
0.137391
0.184393
0.236113
0.34617
0.448049
0.640569
0.0172749
0.0148365
0.0122127
0.0196004
0.281233
1.3555
2.00208
1.32787
0.553191
0.296605
0.175964
0.117675
0.0826275
0.0585298
0.0433645
0.0327844
0.0262617
0.0221235
0.0198904
0.0191927
0.0194639
0.0206689
0.0229506
0.0260985
0.0293118
0.0319292
0.0334156
0.0334393
0.0322602
0.0320274
0.037793
0.0540268
0.0815302
0.120558
0.171721
0.23764
0.321923
0.416624
0.584561
0.794297
0.710492
0.0128731
0.01161
0.0124138
0.00607958
0.0085731
0.253146
1.29624
2.2699
1.92962
0.960567
0.510393
0.307515
0.212981
0.154288
0.119863
0.0958879
0.0811556
0.0714539
0.0657047
0.0629453
0.0619662
0.0623533
0.0641905
0.0673779
0.0708829
0.0738605
0.0755524
0.0753464
0.0732009
0.070755
0.0731718
0.0890679
0.124638
0.180894
0.257612
0.357365
0.484822
0.632757
0.846827
1.17504
0.959028
0.00929227
0.00852964
0.00832544
0.00921415
0.00273047
0.0021463
0.172952
1.04537
2.31837
2.47429
1.58808
0.811009
0.503763
0.339852
0.252189
0.196515
0.163377
0.142085
0.128909
0.121937
0.11842
0.117317
0.118378
0.121539
0.125489
0.129107
0.131188
0.130522
0.126398
0.119872
0.11633
0.128357
0.16974
0.244279
0.350299
0.489044
0.665218
0.873542
1.12687
1.55294
1.33279
0.00671523
0.00641751
0.00602483
0.0064452
0.00663296
0.00119197
6.39544e-05
0.0822103
0.707706
2.0382
2.80309
2.3266
1.34608
0.769613
0.518438
0.382747
0.300781
0.249979
0.218754
0.201884
0.192764
0.188952
0.189037
0.192587
0.197637
0.202542
0.205449
0.204279
0.197269
0.184441
0.170476
0.170802
0.210249
0.300411
0.437201
0.617938
0.845314
1.11455
1.40784
1.89382
1.75316
0.00490186
0.00479311
0.00471961
0.00453583
0.004932
0.00514331
0.000191461
3.63874e-06
0.0262208
0.385924
1.48574
2.75755
2.94132
2.1233
1.22495
0.772906
0.555266
0.436449
0.362442
0.319241
0.295022
0.284593
0.282023
0.285767
0.292495
0.299625
0.304305
0.303218
0.292897
0.271744
0.242114
0.218559
0.238156
0.333068
0.497707
0.719891
0.996486
1.31972
1.6541
2.14904
2.13184
0.00362143
0.00357042
0.00357734
0.00354693
0.00340876
0.00387762
0.00367348
0.000430337
0.00048229
0.00130501
0.150007
0.86539
2.21617
3.16854
2.92456
1.98796
1.1942
0.807719
0.614442
0.508563
0.447476
0.418738
0.408011
0.409837
0.417966
0.427567
0.434509
0.434225
0.421407
0.39152
0.342841
0.283093
0.250702
0.319813
0.501238
0.759912
1.07885
1.44318
1.8101
2.27096
2.37272
0.00269021
0.00266657
0.00268603
0.00271496
0.00269136
0.00260997
0.00295693
0.00261492
0.000767745
0.000129516
8.77062e-06
0.0387886
0.381593
1.40224
2.77405
3.3881
2.89826
1.95302
1.23267
0.877734
0.706046
0.623937
0.587156
0.577944
0.583999
0.596882
0.608808
0.611495
0.597227
0.559477
0.492592
0.393998
0.279097
0.242199
0.40757
0.694724
1.04619
1.4356
1.81701
2.22025
2.39466
0.0020071
0.00199616
0.00201632
0.00204792
0.00207693
0.00205675
0.00203072
0.00218287
0.00213494
0.000972713
7.81103e-05
0.000547613
0.000796364
0.106809
0.652284
1.85343
3.13718
3.52624
2.94023
2.02558
1.3437
1.01601
0.881228
0.827481
0.812519
0.819002
0.8333
0.842542
0.834945
0.798891
0.723189
0.598775
0.421989
0.201677
0.167153
0.482994
0.859527
1.25833
1.6317
1.96444
2.15555
0.0015005
0.00149612
0.00151067
0.0015395
0.00156961
0.00159376
0.00158798
0.00157305
0.00163249
0.00167492
0.00115684
2.89084e-05
3.21247e-05
0.00182864
0.0148875
0.200887
0.888596
2.15714
3.35621
3.66256
3.08909
2.26008
1.64446
1.31742
1.18146
1.14344
1.14307
1.14971
1.14672
1.1192
1.05336
0.936783
0.762131
0.530851
0.275947
0.270271
0.592615
0.963926
1.29791
1.54889
1.69512
0.0011224
0.00112154
0.00113134
0.00115346
0.00118093
0.00120706
0.00122791
0.00123266
0.00122442
0.00124053
0.00131223
0.00111932
0.000223572
2.3832e-05
0.000209368
0.0039336
0.0298872
0.273001
1.02079
2.28982
3.46944
3.84645
3.48307
2.86033
2.29066
1.89904
1.68648
1.60114
1.57915
1.56528
1.52528
1.44182
1.31036
1.14066
0.963054
0.840068
0.852123
1.00138
1.19066
1.31893
1.33637
0.000838905
0.000839976
0.000846317
0.000862297
0.000884615
0.000908354
0.000930521
0.00094932
0.000959441
0.000957692
0.00095955
0.0010161
0.000970532
0.000515233
2.26208e-06
2.73517e-06
0.000498374
0.00600023
0.0401696
0.294477
1.02429
2.20158
3.34363
3.99189
4.06117
3.77376
3.35966
2.95152
2.61603
2.37586
2.22227
2.12553
2.05083
1.9765
1.90403
1.84842
1.83122
1.86033
1.92311
1.96934
1.862
0.00062565
0.000627677
0.00063175
0.000643104
0.000660219
0.000679823
0.000699804
0.000718775
0.000735593
0.000747938
0.000751048
0.000753493
0.000781956
0.000784964
0.000676366
0.000163051
2.03787e-05
2.12527e-07
0.000874819
2.40716e-05
0.0369878
0.239557
0.764891
1.64988
2.71265
3.66178
4.29018
4.56608
4.57679
4.41996
4.16395
3.86066
3.55968
3.30681
3.13482
3.05824
3.07317
3.14564
3.23853
3.33155
3.25133
0.000465069
0.000467359
0.000469984
0.000477973
0.000490741
0.000506044
0.000522449
0.000539182
0.000555388
0.000570176
0.000582497
0.000589196
0.000594318
0.000601673
0.000631313
0.000585057
0.000440679
1.86191e-05
6.1474e-06
7.34006e-07
0.000936138
0.00397454
0.0133339
0.0989665
0.349884
0.843901
1.58604
2.49044
3.41801
4.24345
4.89135
5.33418
5.57853
5.65357
5.60596
5.48663
5.34535
5.2149
5.12675
5.12478
5.03696
0.000345175
0.000347302
0.00034906
0.000354712
0.000364113
0.000375665
0.00038846
0.000401997
0.0004158
0.00042926
0.000441835
0.000452926
0.000461638
0.000466936
0.000474376
0.000486698
0.000503332
0.000434713
0.000248759
3.44027e-06
3.29241e-06
2.77017e-08
0.000297306
0.00186597
2.89958e-07
0.0120014
0.0709563
0.224373
0.523782
0.999467
1.64876
2.43572
3.30183
4.18341
5.02095
5.76098
6.37269
6.84175
7.1826
7.45869
7.53827
0.000258679
0.000260555
0.000261885
0.000266101
0.000273188
0.000282002
0.000291925
0.000302653
0.000313845
0.000325146
0.000336166
0.000346601
0.000356184
0.00036452
0.000370721
0.000376463
0.000383851
0.00039983
0.0004006
0.000340668
0.000175053
2.63806e-06
2.944e-06
1.54325e-07
3.77916e-09
0.000255093
0.00153045
0.00253872
0.00140881
0.0130935
0.0569994
0.160891
0.354658
0.665385
1.11043
1.68996
2.38965
3.18855
4.04756
4.94957
5.76011
0.000197494
0.000199141
0.000200225
0.000203494
0.000208971
0.000215822
0.000223627
0.00023221
0.000241338
0.000250738
0.000260148
0.000269319
0.000278049
0.000286218
0.000293543
0.000299921
0.000304716
0.000310831
0.000318785
0.000329705
0.000325782
0.000270619
0.00017752
1.48495e-05
4.25586e-06
1.0722e-06
5.43136e-08
0
2.00723e-05
0.00029223
0.00125848
0.00176692
0.00168428
0.000796633
0.0112586
0.0428574
0.112158
0.237211
0.434441
0.721573
1.10113
0.000153553
0.000154945
0.000155842
0.000158423
0.000162713
0.000168092
0.000174265
0.000181115
0.000188492
0.000196199
0.000204063
0.00021192
0.00021961
0.000226985
0.00023392
0.000240342
0.000246059
0.000250994
0.000255329
0.000261009
0.000268975
0.000275326
0.000273868
0.000240161
0.000180078
0.000106372
5.88456e-06
2.59485e-06
8.88504e-07
4.48582e-07
9.1082e-09
0
0
8.05826e-06
0.000235284
0.00093854
0.00147196
0.00113322
0.000109389
0.00152667
0.00708186
0.000121008
0.00012216
0.000122912
0.000124978
0.000128379
0.000132646
0.000137569
0.00014306
0.000149014
0.000155287
0.000161754
0.000168311
0.000174848
0.000181251
0.00018742
0.000193266
0.000198736
0.00020375
0.000208215
0.00021214
0.000215946
0.000220995
0.000226625
0.000234037
0.000233413
0.000225389
0.00019742
0.000153209
0.000102626
5.45181e-05
1.20058e-06
1.39103e-06
7.01557e-07
4.5342e-07
2.37538e-07
2.45697e-08
0
0
3.12263e-06
1.93615e-05
0.000104307
9.63934e-05
9.73394e-05
9.79817e-05
9.96581e-05
0.00010238
0.000105796
0.00010975
0.000114175
0.000118992
0.000124094
0.000129385
0.000134794
0.00014024
0.00014564
0.00015092
0.000156013
0.000160859
0.000165412
0.000169638
0.000173509
0.000176881
0.000179943
0.000182853
0.000186543
0.000190972
0.000195154
0.000199898
0.000199914
0.000193649
0.000183182
0.000161553
0.000131959
0.000100227
6.70189e-05
3.7041e-05
4.11879e-06
1.44281e-06
5.34061e-07
4.05072e-07
2.91012e-07
1.85298e-07
7.74453e-05
7.82188e-05
7.87736e-05
8.01463e-05
8.23409e-05
8.50947e-05
8.82886e-05
9.18709e-05
9.57764e-05
9.99258e-05
0.000104245
0.000108681
0.000113174
0.000117662
0.000122086
0.000126395
0.000130541
0.000134483
0.000138184
0.000141638
0.000144754
0.000147509
0.000149942
0.000152037
0.000154073
0.000156141
0.000158709
0.000161711
0.000164672
0.000166963
0.000169371
0.000168975
0.000165563
0.000159156
0.000150705
0.00013741
0.000120173
0.000100119
7.88741e-05
5.89164e-05
3.96427e-05
6.2657e-05
6.32882e-05
6.37723e-05
6.49052e-05
6.6687e-05
6.89203e-05
7.15139e-05
7.4425e-05
7.76002e-05
8.09793e-05
8.45029e-05
8.81285e-05
9.18139e-05
9.55083e-05
9.91655e-05
0.000102746
0.000106211
0.000109527
0.00011266
0.000115599
0.000118271
0.000120659
0.000122802
0.000124634
0.000126178
0.000127489
0.000128614
0.000129668
0.000130774
0.000131908
0.000133235
0.000134684
0.000136043
0.000137129
0.000137793
0.000138426
0.000138124
0.000136553
0.000133703
0.000129343
0.000124956
5.09816e-05
5.1497e-05
5.19227e-05
5.28635e-05
5.43183e-05
5.61386e-05
5.82538e-05
6.06272e-05
6.32151e-05
6.59696e-05
6.88434e-05
7.18024e-05
7.48145e-05
7.78385e-05
8.08376e-05
8.37796e-05
8.66337e-05
8.93703e-05
9.19626e-05
9.43976e-05
9.66115e-05
9.85914e-05
0.000100367
0.000101893
0.000103179
0.00010425
0.000105115
0.000105781
0.000106273
0.00010662
0.000106844
0.000106994
0.000107097
0.000107183
0.000107245
0.000107325
0.000107406
0.000107468
0.00010752
0.000107303
0.000107436
4.16767e-05
4.20981e-05
4.24747e-05
4.32607e-05
4.44548e-05
4.59453e-05
4.76772e-05
4.9618e-05
5.17323e-05
5.39806e-05
5.63257e-05
5.87391e-05
6.11949e-05
6.36601e-05
6.61053e-05
6.85036e-05
7.08304e-05
7.30606e-05
7.51719e-05
7.7152e-05
7.89469e-05
8.05478e-05
8.198e-05
8.32018e-05
8.42223e-05
8.50617e-05
8.57318e-05
8.62387e-05
8.65895e-05
8.67943e-05
8.68613e-05
8.68017e-05
8.66231e-05
8.63431e-05
8.598e-05
8.55413e-05
8.50321e-05
8.44748e-05
8.39345e-05
8.32704e-05
8.2964e-05
3.42013e-05
3.45478e-05
3.48824e-05
3.55428e-05
3.65278e-05
3.77538e-05
3.9177e-05
4.07689e-05
4.24997e-05
4.43374e-05
4.6252e-05
4.82196e-05
5.02185e-05
5.22231e-05
5.42086e-05
5.61531e-05
5.80362e-05
5.98374e-05
6.15378e-05
6.31268e-05
6.45594e-05
6.5831e-05
6.69649e-05
6.79245e-05
6.87154e-05
6.93547e-05
6.98524e-05
7.02151e-05
7.0451e-05
7.0569e-05
7.05778e-05
7.04867e-05
7.02998e-05
7.0028e-05
6.96832e-05
6.92702e-05
6.8787e-05
6.82419e-05
6.76891e-05
6.69921e-05
6.66627e-05
2.81561e-05
2.84424e-05
2.87411e-05
2.92996e-05
3.01164e-05
3.11296e-05
3.23032e-05
3.36127e-05
3.50328e-05
3.65372e-05
3.81016e-05
3.97055e-05
4.13312e-05
4.29587e-05
4.45663e-05
4.61366e-05
4.76528e-05
4.9098e-05
5.04563e-05
5.17193e-05
5.28496e-05
5.38465e-05
5.47318e-05
5.54741e-05
5.60771e-05
5.65551e-05
5.6917e-05
5.71686e-05
5.73169e-05
5.73699e-05
5.73354e-05
5.72219e-05
5.70339e-05
5.67809e-05
5.64732e-05
5.61152e-05
5.57053e-05
5.52493e-05
5.47941e-05
5.42122e-05
5.39862e-05
2.32395e-05
2.34782e-05
2.37463e-05
2.42217e-05
2.4903e-05
2.57441e-05
2.67156e-05
2.77959e-05
2.89635e-05
3.01971e-05
3.14762e-05
3.27841e-05
3.41059e-05
3.54254e-05
3.67243e-05
3.79886e-05
3.92044e-05
4.03581e-05
4.14366e-05
4.24332e-05
4.33172e-05
4.40908e-05
4.47744e-05
4.53414e-05
4.57947e-05
4.61463e-05
4.64038e-05
4.65722e-05
4.66574e-05
4.66665e-05
4.66061e-05
4.64834e-05
4.63021e-05
4.60703e-05
4.57966e-05
4.54849e-05
4.51337e-05
4.47474e-05
4.43663e-05
4.38782e-05
4.37154e-05
1.92215e-05
1.94224e-05
1.9665e-05
2.00726e-05
2.06443e-05
2.13461e-05
2.21535e-05
2.30475e-05
2.40099e-05
2.50231e-05
2.60703e-05
2.71372e-05
2.82119e-05
2.92805e-05
3.03285e-05
3.13441e-05
3.2316e-05
3.32334e-05
3.40854e-05
3.4867e-05
3.55534e-05
3.61485e-05
3.66714e-05
3.70997e-05
3.74356e-05
3.76897e-05
3.78685e-05
3.79763e-05
3.80179e-05
3.79994e-05
3.79263e-05
3.78046e-05
3.76376e-05
3.74315e-05
3.71932e-05
3.69262e-05
3.66289e-05
3.63044e-05
3.59868e-05
3.55792e-05
3.54628e-05
1.59242e-05
1.60961e-05
1.6317e-05
1.66691e-05
1.71523e-05
1.7741e-05
1.84149e-05
1.91572e-05
1.99527e-05
2.07866e-05
2.16452e-05
2.25164e-05
2.33902e-05
2.42553e-05
2.51003e-05
2.59148e-05
2.66902e-05
2.74174e-05
2.8088e-05
2.8698e-05
2.92278e-05
2.96821e-05
3.00787e-05
3.03989e-05
3.06445e-05
3.08247e-05
3.09451e-05
3.10093e-05
3.10215e-05
3.09866e-05
3.09091e-05
3.07939e-05
3.06435e-05
3.0463e-05
3.02579e-05
3.00309e-05
2.97809e-05
2.951e-05
2.92462e-05
2.89081e-05
2.88251e-05
1.32087e-05
1.33586e-05
1.35614e-05
1.38683e-05
1.42794e-05
1.47762e-05
1.53412e-05
1.59599e-05
1.66194e-05
1.73074e-05
1.80126e-05
1.87248e-05
1.94357e-05
2.01361e-05
2.0817e-05
2.14696e-05
2.20871e-05
2.26624e-05
2.31889e-05
2.36634e-05
2.40706e-05
2.44156e-05
2.47147e-05
2.49524e-05
2.51301e-05
2.52555e-05
2.53336e-05
2.53675e-05
2.53606e-05
2.53167e-05
2.52397e-05
2.51335e-05
2.50002e-05
2.48437e-05
2.46686e-05
2.44768e-05
2.42674e-05
2.40421e-05
2.38233e-05
2.35441e-05
2.34823e-05
1.09661e-05
1.10995e-05
1.12869e-05
1.15567e-05
1.19093e-05
1.2331e-05
1.28071e-05
1.3325e-05
1.38737e-05
1.44431e-05
1.50235e-05
1.56068e-05
1.61856e-05
1.67531e-05
1.73017e-05
1.78242e-05
1.83153e-05
1.87695e-05
1.91815e-05
1.95494e-05
1.98609e-05
2.01211e-05
2.0345e-05
2.05193e-05
2.06456e-05
2.07304e-05
2.0778e-05
2.07908e-05
2.07717e-05
2.07238e-05
2.06503e-05
2.05543e-05
2.04374e-05
2.03028e-05
2.01539e-05
1.99924e-05
1.98176e-05
1.96304e-05
1.94486e-05
1.92192e-05
1.917e-05
9.10934e-06
9.23073e-06
9.40511e-06
9.64435e-06
9.94906e-06
1.03095e-05
1.0713e-05
1.11487e-05
1.16072e-05
1.208e-05
1.25593e-05
1.3038e-05
1.35102e-05
1.39704e-05
1.44127e-05
1.48311e-05
1.52216e-05
1.558e-05
1.59023e-05
1.61872e-05
1.6425e-05
1.66208e-05
1.67878e-05
1.69151e-05
1.70039e-05
1.70599e-05
1.70867e-05
1.70861e-05
1.70607e-05
1.70128e-05
1.69452e-05
1.68601e-05
1.67589e-05
1.6644e-05
1.65181e-05
1.63825e-05
1.62365e-05
1.60811e-05
1.59296e-05
1.5742e-05
1.56969e-05
7.56914e-06
7.68186e-06
7.84491e-06
8.05891e-06
8.32457e-06
8.63485e-06
8.97909e-06
9.34769e-06
9.73268e-06
1.0127e-05
1.05241e-05
1.09182e-05
1.13043e-05
1.16782e-05
1.20351e-05
1.23703e-05
1.26807e-05
1.29631e-05
1.32144e-05
1.3434e-05
1.36144e-05
1.37602e-05
1.38832e-05
1.39744e-05
1.40347e-05
1.4069e-05
1.40805e-05
1.40707e-05
1.40415e-05
1.39949e-05
1.3933e-05
1.38578e-05
1.37702e-05
1.36722e-05
1.35657e-05
1.34518e-05
1.333e-05
1.32012e-05
1.30747e-05
1.29221e-05
1.28782e-05
6.28954e-06
6.39609e-06
6.54932e-06
6.74228e-06
6.97594e-06
7.24519e-06
7.54091e-06
7.85469e-06
8.17982e-06
8.51037e-06
8.84085e-06
9.16652e-06
9.48334e-06
9.78787e-06
1.00765e-05
1.03457e-05
1.05929e-05
1.0816e-05
1.10128e-05
1.11828e-05
1.13205e-05
1.14297e-05
1.1521e-05
1.15868e-05
1.1628e-05
1.16487e-05
1.16514e-05
1.16374e-05
1.16081e-05
1.15654e-05
1.15107e-05
1.14455e-05
1.13707e-05
1.12877e-05
1.1198e-05
1.11025e-05
1.10007e-05
1.08935e-05
1.0787e-05
1.0664e-05
1.06146e-05
5.22538e-06
5.32754e-06
5.47197e-06
5.64739e-06
5.85471e-06
6.09022e-06
6.34612e-06
6.6151e-06
6.89141e-06
7.17002e-06
7.44645e-06
7.71674e-06
7.9776e-06
8.22629e-06
8.46006e-06
8.67622e-06
8.8728e-06
9.04822e-06
9.20099e-06
9.33099e-06
9.43405e-06
9.51344e-06
9.57865e-06
9.62341e-06
9.64852e-06
9.65745e-06
9.65238e-06
9.63447e-06
9.60484e-06
9.56481e-06
9.51563e-06
9.45847e-06
9.394e-06
9.32325e-06
9.24743e-06
9.16707e-06
9.08184e-06
8.99267e-06
8.90309e-06
8.80408e-06
8.75241e-06
4.33986e-06
4.43882e-06
4.57536e-06
4.73597e-06
4.92153e-06
5.1292e-06
5.35225e-06
5.5844e-06
5.82069e-06
6.05695e-06
6.28939e-06
6.51489e-06
6.7308e-06
6.93509e-06
7.12576e-06
7.3009e-06
7.45898e-06
7.5991e-06
7.72027e-06
7.82263e-06
7.90298e-06
7.96383e-06
8.01349e-06
8.04665e-06
8.06396e-06
8.06831e-06
8.06144e-06
8.04427e-06
8.0177e-06
7.98278e-06
7.94051e-06
7.8918e-06
7.83722e-06
7.77753e-06
7.71372e-06
7.64619e-06
7.57463e-06
7.50012e-06
7.42366e-06
7.34609e-06
7.28267e-06
3.60305e-06
3.69944e-06
3.82864e-06
3.9768e-06
4.14429e-06
4.32878e-06
4.52449e-06
4.72603e-06
4.92925e-06
5.13067e-06
5.32717e-06
5.51615e-06
5.69541e-06
5.86323e-06
6.01819e-06
6.15883e-06
6.284e-06
6.39314e-06
6.48572e-06
6.56201e-06
6.61983e-06
6.66152e-06
6.69437e-06
6.71405e-06
6.72118e-06
6.71826e-06
6.7068e-06
6.68756e-06
6.66125e-06
6.62872e-06
6.59073e-06
6.54796e-06
6.50083e-06
6.44989e-06
6.39583e-06
6.33886e-06
6.27883e-06
6.21667e-06
6.15217e-06
6.08959e-06
6.02867e-06
2.99004e-06
3.08417e-06
3.2066e-06
3.34392e-06
3.49611e-06
3.66108e-06
3.83376e-06
4.00958e-06
4.18513e-06
4.35766e-06
4.52472e-06
4.6843e-06
4.83474e-06
4.97497e-06
5.10419e-06
5.22133e-06
5.32566e-06
5.41681e-06
5.49438e-06
5.55866e-06
5.60791e-06
5.64337e-06
5.67155e-06
5.6887e-06
5.69535e-06
5.69351e-06
5.68446e-06
5.6688e-06
5.64712e-06
5.62012e-06
5.58844e-06
5.55268e-06
5.5132e-06
5.47044e-06
5.42502e-06
5.3772e-06
5.32667e-06
5.27473e-06
5.21882e-06
5.17341e-06
5.09432e-06
2.48022e-06
2.5726e-06
2.68891e-06
2.81667e-06
2.95516e-06
3.10275e-06
3.25539e-06
3.40934e-06
3.56166e-06
3.71003e-06
3.85247e-06
3.98735e-06
4.11314e-06
4.22835e-06
4.33198e-06
4.42339e-06
4.50247e-06
4.56948e-06
4.62464e-06
4.66835e-06
4.6997e-06
4.72031e-06
4.73554e-06
4.74242e-06
4.74141e-06
4.7342e-06
4.72185e-06
4.7048e-06
4.68349e-06
4.65841e-06
4.63002e-06
4.59868e-06
4.56467e-06
4.52824e-06
4.48974e-06
4.44924e-06
4.40674e-06
4.36298e-06
4.31607e-06
4.2764e-06
4.21339e-06
2.05773e-06
2.14881e-06
2.25994e-06
2.37919e-06
2.50495e-06
2.63604e-06
2.76992e-06
2.9041e-06
3.03654e-06
3.1651e-06
3.2879e-06
3.40366e-06
3.51207e-06
3.61346e-06
3.7079e-06
3.79395e-06
3.87019e-06
3.93598e-06
3.9912e-06
4.03634e-06
4.07058e-06
4.09414e-06
4.11232e-06
4.1226e-06
4.12549e-06
4.12246e-06
4.11447e-06
4.10196e-06
4.08538e-06
4.06523e-06
4.042e-06
4.01609e-06
3.98777e-06
3.95734e-06
3.92522e-06
3.89164e-06
3.85623e-06
3.82058e-06
3.77948e-06
3.75826e-06
3.6634e-06
1.71136e-06
1.80001e-06
1.90509e-06
2.01586e-06
2.12983e-06
2.24589e-06
2.3623e-06
2.47766e-06
2.59118e-06
2.70192e-06
2.80824e-06
2.90758e-06
2.99697e-06
3.07386e-06
3.138e-06
3.19187e-06
3.23818e-06
3.27766e-06
3.31034e-06
3.33592e-06
3.35391e-06
3.36551e-06
3.37389e-06
3.37701e-06
3.37511e-06
3.36928e-06
3.36018e-06
3.34809e-06
3.33323e-06
3.31587e-06
3.29627e-06
3.27461e-06
3.25106e-06
3.22571e-06
3.19873e-06
3.17003e-06
3.13989e-06
3.10848e-06
3.07459e-06
3.04545e-06
2.9959e-06
1.42914e-06
1.51313e-06
1.6088e-06
1.70769e-06
1.80829e-06
1.91057e-06
2.01308e-06
2.11382e-06
2.21122e-06
2.30469e-06
2.39496e-06
2.48388e-06
2.57334e-06
2.66412e-06
2.75373e-06
2.83513e-06
2.9034e-06
2.95927e-06
3.00439e-06
3.04054e-06
3.06757e-06
3.08521e-06
3.09807e-06
3.10471e-06
3.10579e-06
3.10244e-06
3.09543e-06
3.0852e-06
3.07217e-06
3.05677e-06
3.0394e-06
3.02044e-06
3.0001e-06
2.97864e-06
2.95639e-06
2.93366e-06
2.90986e-06
2.88724e-06
2.85767e-06
2.85834e-06
2.74402e-06
1.19375e-06
1.27513e-06
1.36142e-06
1.44558e-06
1.5281e-06
1.61198e-06
1.69861e-06
1.78768e-06
1.87713e-06
1.96299e-06
2.04001e-06
2.10318e-06
2.1498e-06
2.1804e-06
2.20082e-06
2.22299e-06
2.25223e-06
2.28365e-06
2.31348e-06
2.33946e-06
2.36102e-06
2.37891e-06
2.39406e-06
2.40516e-06
2.41227e-06
2.41605e-06
2.41693e-06
2.41508e-06
2.41066e-06
2.40383e-06
2.39475e-06
2.38349e-06
2.37021e-06
2.35491e-06
2.33766e-06
2.31826e-06
2.29737e-06
2.27391e-06
2.25039e-06
2.2185e-06
2.20648e-06
9.95702e-07
1.08378e-06
1.17107e-06
1.24841e-06
1.31571e-06
1.3772e-06
1.43684e-06
1.49829e-06
1.56529e-06
1.6414e-06
1.72936e-06
1.83025e-06
1.94221e-06
2.06079e-06
2.17628e-06
2.26899e-06
2.33271e-06
2.37995e-06
2.41608e-06
2.44374e-06
2.46251e-06
2.47301e-06
2.4787e-06
2.47916e-06
2.47523e-06
2.4679e-06
2.45787e-06
2.44566e-06
2.43173e-06
2.41658e-06
2.40061e-06
2.38423e-06
2.36767e-06
2.35121e-06
2.33518e-06
2.32011e-06
2.30497e-06
2.29321e-06
2.27251e-06
2.29678e-06
2.15153e-06
8.5188e-07
9.38258e-07
1.02302e-06
1.10088e-06
1.16986e-06
1.22972e-06
1.27937e-06
1.31783e-06
1.34533e-06
1.36343e-06
1.37459e-06
1.3816e-06
1.38727e-06
1.39208e-06
1.39845e-06
1.42281e-06
1.46588e-06
1.51343e-06
1.56075e-06
1.60492e-06
1.64525e-06
1.68176e-06
1.71494e-06
1.7444e-06
1.7699e-06
1.79163e-06
1.80983e-06
1.82453e-06
1.83576e-06
1.84353e-06
1.84784e-06
1.84864e-06
1.84596e-06
1.83963e-06
1.82968e-06
1.81576e-06
1.79879e-06
1.77595e-06
1.75525e-06
1.70488e-06
1.73371e-06
9.19355e-07
1.02978e-06
1.08753e-06
1.09689e-06
1.08114e-06
1.07198e-06
1.0965e-06
1.16598e-06
1.27377e-06
1.40339e-06
1.53775e-06
1.66389e-06
1.7736e-06
1.86455e-06
1.9345e-06
1.96672e-06
1.96533e-06
1.94872e-06
1.92532e-06
1.89837e-06
1.86657e-06
1.83733e-06
1.80577e-06
1.77345e-06
1.74114e-06
1.70902e-06
1.67712e-06
1.6455e-06
1.61416e-06
1.58304e-06
1.55199e-06
1.52088e-06
1.48936e-06
1.45715e-06
1.42419e-06
1.39072e-06
1.35494e-06
1.32014e-06
1.2735e-06
1.27004e-06
1.09001e-06
8.13813
9.51397
8.48286
6.54559
4.38451
2.57614
1.34392
0.622547
0.248989
0.0863456
0.0288308
0.000831065
0.000147678
1.30687e-06
0.000206689
0.000258094
0.000190928
0.000161017
0.000143855
0.0001264
0.000109585
9.47706e-05
8.17021e-05
7.00521e-05
5.98755e-05
5.07952e-05
4.32096e-05
3.62944e-05
3.04296e-05
2.52762e-05
2.0929e-05
1.71255e-05
1.39122e-05
1.11624e-05
8.87887e-06
6.96309e-06
5.3961e-06
4.0993e-06
3.08987e-06
2.21992e-06
1.57981e-06
1.09504e-06
6.96967e-07
4.29483e-07
2.65032e-07
1.53922e-07
1.45531e-07
1.9012e-07
1.87092e-07
1.60753e-07
1.50577e-07
1.14089e-07
8.97443e-08
7.27338e-08
8.26821e-08
1.12337e-07
1.43259e-07
1.74531e-07
2.02955e-07
2.26416e-07
2.44356e-07
2.56645e-07
2.63454e-07
2.6424e-07
2.59413e-07
2.48691e-07
2.34045e-07
2.12779e-07
1.92996e-07
1.58167e-07
1.54625e-07
1.07813e-07
2.03808e-07
1.91961e-07
7.67418
12.6587
12.2678
9.99594
7.26152
4.77064
2.87103
1.59585
0.806814
0.346049
0.114733
0.0323348
0.00180634
0.000431857
1.48267e-05
0.000127743
0.000229854
0.000178025
0.000141879
0.000125777
0.000110714
9.58669e-05
8.27067e-05
7.10096e-05
6.08173e-05
5.16536e-05
4.39972e-05
3.70509e-05
3.11165e-05
2.59143e-05
2.15101e-05
1.76866e-05
1.44368e-05
1.16661e-05
9.35681e-06
7.41303e-06
5.82092e-06
4.49511e-06
3.45816e-06
2.56555e-06
1.88107e-06
1.37442e-06
9.47973e-07
6.42815e-07
4.39156e-07
2.72826e-07
2.04031e-07
1.94192e-07
1.78113e-07
1.45151e-07
1.42528e-07
1.11882e-07
9.45115e-08
7.90529e-08
8.42414e-08
1.06028e-07
1.30361e-07
1.56827e-07
1.81592e-07
2.02275e-07
2.18119e-07
2.28635e-07
2.35485e-07
2.35305e-07
2.3051e-07
2.19996e-07
2.05225e-07
1.85799e-07
1.67093e-07
1.33032e-07
1.34621e-07
8.84003e-08
1.98286e-07
1.84611e-07
5.26201
12.2467
14.3335
12.9533
10.2555
7.38651
4.92774
3.08591
1.81583
0.973321
0.43632
0.141129
0.0356791
0.00316744
0.000919653
8.57645e-06
4.69899e-05
0.000187487
0.000164801
0.000127066
0.00010959
9.6549e-05
8.37026e-05
7.19556e-05
6.17841e-05
5.26997e-05
4.48327e-05
3.79243e-05
3.19276e-05
2.6686e-05
2.21883e-05
1.83229e-05
1.50318e-05
1.22385e-05
9.88588e-06
7.91491e-06
6.28597e-06
4.92799e-06
3.84206e-06
2.94184e-06
2.19863e-06
1.65144e-06
1.19489e-06
8.46054e-07
5.94673e-07
3.92133e-07
2.82347e-07
2.02408e-07
1.58835e-07
1.25727e-07
1.15087e-07
8.99995e-08
7.39657e-08
5.82254e-08
5.92794e-08
7.69851e-08
9.87299e-08
1.23176e-07
1.45509e-07
1.65015e-07
1.79387e-07
1.8977e-07
1.96753e-07
1.96377e-07
1.92608e-07
1.82487e-07
1.69686e-07
1.52074e-07
1.35717e-07
1.02918e-07
1.14436e-07
6.93422e-08
1.94084e-07
1.80189e-07
3.70832
10.4996
14.5334
14.7991
12.8865
10.1465
7.41029
5.10367
3.34348
2.06472
1.1556
0.535305
0.17427
0.0403019
0.00490832
0.00168895
2.76781e-06
1.69656e-06
0.000139479
0.000150101
0.000114607
9.57365e-05
8.43576e-05
7.32251e-05
6.28379e-05
5.3697e-05
4.57234e-05
3.88014e-05
3.27342e-05
2.74472e-05
2.28719e-05
1.89565e-05
1.56143e-05
1.2782e-05
1.03882e-05
8.38314e-06
6.71708e-06
5.32577e-06
4.19714e-06
3.27087e-06
2.48501e-06
1.89759e-06
1.40866e-06
1.02191e-06
7.34862e-07
5.00559e-07
3.58014e-07
2.39995e-07
1.65638e-07
1.23238e-07
1.0123e-07
7.81753e-08
6.18729e-08
4.32459e-08
3.42703e-08
4.39702e-08
6.2763e-08
8.51799e-08
1.05819e-07
1.24271e-07
1.38151e-07
1.48492e-07
1.55817e-07
1.56038e-07
1.53453e-07
1.44687e-07
1.34157e-07
1.18507e-07
1.05756e-07
7.40127e-08
1.00037e-07
5.55959e-08
1.93828e-07
1.79352e-07
2.90248
8.6096
13.4114
15.2809
14.6619
12.6099
10.0262
7.51212
5.36983
3.66859
2.35889
1.36857
0.657583
0.224752
0.049797
0.00782522
0.00270565
1.92864e-05
9.81259e-06
8.02586e-05
0.000134218
0.000106258
8.41168e-05
7.31463e-05
6.40588e-05
5.49278e-05
4.66749e-05
3.96444e-05
3.35152e-05
2.81751e-05
2.35291e-05
1.95601e-05
1.61624e-05
1.32817e-05
1.08494e-05
8.80582e-06
7.10321e-06
5.67873e-06
4.51505e-06
3.55114e-06
2.73304e-06
2.11076e-06
1.5882e-06
1.17032e-06
8.52766e-07
5.92085e-07
4.22338e-07
2.80233e-07
1.84218e-07
1.30166e-07
9.94707e-08
7.84719e-08
6.44716e-08
4.73942e-08
2.89799e-08
1.42911e-08
2.4104e-08
4.45294e-08
6.39978e-08
8.18437e-08
9.56649e-08
1.06415e-07
1.14545e-07
1.15919e-07
1.14903e-07
1.08247e-07
1.00384e-07
8.72917e-08
8.03546e-08
4.92172e-08
9.41293e-08
5.02695e-08
1.97586e-07
1.81071e-07
2.53912
6.98188
11.633
14.5555
15.3016
14.3371
12.3675
10.0239
7.74255
5.74
4.07155
2.71262
1.63109
0.823221
0.304694
0.0708389
0.0120907
0.000389123
6.54611e-07
5.35539e-06
3.64034e-05
0.000108046
0.00010176
7.65031e-05
6.30555e-05
5.52713e-05
4.78011e-05
4.06286e-05
3.42901e-05
2.8868e-05
2.41734e-05
2.01458e-05
1.66893e-05
1.3755e-05
1.12794e-05
9.19597e-06
7.45472e-06
5.99645e-06
4.79814e-06
3.79797e-06
2.94915e-06
2.2945e-06
1.74004e-06
1.29437e-06
9.49187e-07
6.64984e-07
4.7165e-07
3.10155e-07
1.98439e-07
1.33847e-07
1.00309e-07
8.50455e-08
7.80952e-08
6.84364e-08
5.43777e-08
3.67732e-08
1.85251e-08
4.30954e-09
2.12503e-08
3.86645e-08
5.26742e-08
6.41107e-08
7.35084e-08
7.65165e-08
7.76783e-08
7.38355e-08
6.98729e-08
6.03266e-08
6.31622e-08
3.40817e-08
9.71106e-08
5.4081e-08
2.04385e-07
1.84567e-07
2.44389
5.67301
9.69887
13.0148
14.8217
15.042
14.02
12.2421
10.1613
8.09452
6.20849
4.55614
3.14069
1.96634
1.05228
0.431645
0.114548
0.0210276
0.00645798
0.00048801
1.8362e-06
7.54667e-06
5.905e-05
9.46133e-05
7.57738e-05
5.6818e-05
4.73858e-05
4.12224e-05
3.52343e-05
2.96252e-05
2.47707e-05
2.0678e-05
1.71829e-05
1.42e-05
1.1675e-05
9.54996e-06
7.7705e-06
6.28005e-06
5.047e-06
4.01427e-06
3.13645e-06
2.451e-06
1.86727e-06
1.39624e-06
1.02618e-06
7.20757e-07
5.06752e-07
3.28666e-07
2.0456e-07
1.32585e-07
1.02621e-07
9.82464e-08
1.00983e-07
9.93729e-08
9.08636e-08
7.79019e-08
6.20714e-08
4.35463e-08
2.60214e-08
1.10054e-08
1.14532e-08
2.20535e-08
3.2985e-08
3.83354e-08
4.28194e-08
4.30418e-08
4.61529e-08
4.20299e-08
5.8273e-08
3.68141e-08
1.06416e-07
6.3852e-08
2.12855e-07
1.89418e-07
2.49022
4.64373
7.8807
11.0776
13.4709
14.6781
14.6965
13.7644
12.2254
10.4043
8.53827
6.75855
5.12252
3.65864
2.39397
1.36868
0.628083
0.20154
0.0390068
0.00317326
0.00216548
0
3.40007e-06
7.65522e-06
5.66031e-05
7.06276e-05
5.44442e-05
4.16659e-05
3.4998e-05
3.01703e-05
2.55157e-05
2.12545e-05
1.76211e-05
1.45821e-05
1.20255e-05
9.86569e-06
8.04858e-06
6.52569e-06
5.2605e-06
4.19915e-06
3.29653e-06
2.58219e-06
1.9723e-06
1.47864e-06
1.08644e-06
7.6267e-07
5.30425e-07
3.38798e-07
2.04904e-07
1.31187e-07
1.11033e-07
1.20451e-07
1.32124e-07
1.36921e-07
1.32528e-07
1.22452e-07
1.07908e-07
8.95695e-08
7.1043e-08
5.2368e-08
3.5744e-08
2.05136e-08
8.63991e-09
1.05013e-08
1.93386e-08
2.60293e-08
3.90253e-08
4.11778e-08
6.57807e-08
5.18598e-08
1.18951e-07
7.598e-08
2.21977e-07
1.95141e-07
2.55122
3.83201
6.27032
9.05541
11.5883
13.4169
14.324
14.3108
13.5423
12.2591
10.6968
9.02992
7.36572
5.76582
4.27234
2.93139
1.7961
0.923666
0.358768
0.0883119
0.0129149
0.00480838
0.000580811
3.47613e-07
3.4816e-06
1.5998e-05
4.93315e-05
5.15605e-05
3.89629e-05
3.00533e-05
2.51984e-05
2.1589e-05
1.81472e-05
1.49957e-05
1.23248e-05
1.0117e-05
8.27938e-06
6.73534e-06
5.44168e-06
4.35331e-06
3.42943e-06
2.68973e-06
2.05782e-06
1.54479e-06
1.13276e-06
7.93445e-07
5.45308e-07
3.43174e-07
2.03064e-07
1.3442e-07
1.28934e-07
1.51142e-07
1.6977e-07
1.79124e-07
1.77589e-07
1.69216e-07
1.55265e-07
1.36691e-07
1.17192e-07
9.7119e-08
7.87318e-08
6.18765e-08
4.72436e-08
3.98907e-08
3.7855e-08
4.11286e-08
5.28207e-08
5.62619e-08
8.07294e-08
7.02119e-08
1.32783e-07
8.85669e-08
2.31177e-07
2.01218e-07
2.47633
3.12873
4.84483
7.10744
9.47328
11.5434
13.0371
13.8069
13.8513
13.2813
12.2656
10.9677
9.51485
7.99409
6.46397
4.97605