/*--------------------------------*- C++ -*----------------------------------*\
| =========                 |                                                 |
| \\      /  F ield         | OpenFOAM: The Open Source CFD Toolbox           |
|  \\    /   O peration     | Version:  2312                                  |
|   \\  /    A nd           | Website:  www.openfoam.com                      |
|    \\/     M anipulation  |                                                 |
\*---------------------------------------------------------------------------*/
FoamFile
{
    version     2.0;
    format      ascii;
    arch        "LSB;label=32;scalar=64";
    class       volVectorField;
    location    "650";
    object      momentError;
}
// * * * * * * * * * * * * * * * * * * * * * * * * * * * * * * * * * * * * * //

dimensions      [0 1 -2 0 0 0 0];

internalField   nonuniform List<vector> 
11040
(
(-0.258639 0.0469042 -6.36465e-16)
(0.25024 -3.69013 -3.00578e-16)
(-0.563407 -2.01109 4.68859e-15)
(-0.0737809 0.189604 6.56839e-16)
(-0.0358899 -0.060517 3.75938e-15)
(-0.0173499 0.0141188 -2.47294e-15)
(-0.0283074 0.00229696 -5.8978e-15)
(-0.0315219 0.00367429 -1.10707e-15)
(-0.0347269 0.00426675 -3.95651e-16)
(-0.0415039 0.00343573 2.11187e-15)
(-0.0478522 0.00195306 1.02675e-15)
(-0.0530807 0.001548 -5.66455e-16)
(-0.0589049 0.00150678 -9.60084e-16)
(-0.0652656 0.00087918 6.79844e-16)
(-0.071704 0.000836376 -3.96957e-16)
(-0.0774445 0.00104163 -9.79428e-16)
(-0.0797015 0.00191416 7.43591e-16)
(-0.0867678 0.00292907 6.94703e-16)
(-0.0941872 0.00380944 -2.52515e-16)
(-0.0997625 0.00515132 -5.48524e-17)
(-0.104551 0.0064859 5.75174e-16)
(-0.113107 0.00773926 -3.08837e-16)
(-0.118305 0.00847224 2.58223e-16)
(-0.119933 0.00917136 1.33457e-16)
(-0.117317 0.00963855 -1.34052e-15)
(-0.112272 0.00979496 -1.01329e-15)
(-0.104734 0.00936901 -4.83887e-16)
(-0.0964068 0.00935115 -3.44703e-16)
(-0.0855019 0.0101369 -1.13318e-15)
(-0.0732401 0.0137107 4.86602e-16)
(-0.0648694 0.00894201 1.12092e-15)
(-0.053489 0.0178216 2.38268e-15)
(0.00242298 0.0998018 2.93869e-15)
(0.14483 0.345912 -2.54862e-16)
(0.1941 0.287798 1.72325e-15)
(-0.0115947 -0.202221 6.50877e-16)
(-0.0800544 -0.289368 1.16483e-15)
(0.0130704 -0.0188209 -2.32386e-17)
(0.00580618 -0.000998558 -1.0206e-15)
(0.0604986 0.00177923 -1.59198e-15)
(0.513085 -0.203294 -1.3186e-15)
(-0.833746 2.88363 7.97027e-16)
(-1.09105 0.236609 2.87671e-15)
(-1.58906 -2.91735 6.19991e-15)
(-0.887791 -1.49336 -1.12876e-15)
(-0.23295 0.0109901 -4.20333e-16)
(-0.0715252 -0.0568609 -4.93976e-17)
(-0.0517053 -0.0128293 1.75396e-15)
(-0.0735736 -0.0262901 9.06081e-16)
(-0.0714518 -0.0190812 -1.63072e-16)
(-0.0784538 -0.0145469 -7.842e-16)
(-0.0861861 -0.0136991 1.70781e-15)
(-0.0923618 -0.0135419 1.2045e-15)
(-0.0993395 -0.0107303 1.31472e-15)
(-0.108583 -0.0097143 -3.52393e-17)
(-0.115829 -0.00796733 -2.29691e-16)
(-0.124388 -0.00594519 4.20076e-16)
(-0.137202 -0.00369367 3.80479e-16)
(-0.145332 -0.000839201 3.74959e-16)
(-0.152909 0.00176388 -1.81997e-17)
(-0.159125 0.00499568 -8.64066e-17)
(-0.162797 0.00789886 -2.25217e-16)
(-0.17135 0.010111 3.62352e-16)
(-0.175282 0.0113681 2.31426e-16)
(-0.175546 0.0124877 3.20718e-16)
(-0.171924 0.0131307 -3.6639e-16)
(-0.166288 0.0131497 -6.63446e-16)
(-0.159936 0.0130401 7.02257e-16)
(-0.152303 0.0124545 5.30706e-16)
(-0.14523 0.0125917 -6.79301e-16)
(-0.139882 0.0132374 -9.79458e-16)
(-0.13907 0.0132351 -9.35472e-16)
(-0.146244 0.0112686 -1.85731e-15)
(-0.161191 0.01276 -7.12224e-17)
(-0.191301 0.0188971 1.11455e-15)
(-0.265469 -0.0120017 -7.36027e-16)
(-0.22508 -0.0475138 1.6925e-16)
(-0.101625 -0.00224946 -1.10161e-16)
(-0.057167 -0.00472976 9.01162e-16)
(-0.00369078 -0.0223304 -6.5299e-16)
(0.122097 -0.0639075 -4.06197e-16)
(0.485524 -0.285662 1.1094e-16)
(-0.264346 0.638776 1.46542e-16)
(-0.350034 2.38119 -1.31559e-15)
(-0.960728 1.04799 -7.59901e-15)
(-1.71746 -2.5237 2.77829e-15)
(-1.34078 -1.78902 1.03754e-15)
(-0.331443 -0.158116 4.72001e-16)
(-0.081082 0.00160343 1.63632e-15)
(-0.0965876 -0.0157648 3.78424e-16)
(-0.105494 -0.0241993 -4.50764e-16)
(-0.111003 -0.0191043 -9.15144e-17)
(-0.115088 -0.0129066 -1.35031e-15)
(-0.119595 -0.0139199 5.55913e-16)
(-0.125666 -0.0095315 -3.26454e-17)
(-0.135382 -0.00835497 2.96027e-16)
(-0.143352 -0.00678379 7.46851e-16)
(-0.152572 -0.00489646 -1.65715e-17)
(-0.161156 -0.00304139 -2.81865e-16)
(-0.168857 -0.000623573 -5.90874e-17)
(-0.175837 0.00162426 8.21528e-18)
(-0.181213 0.00466707 1.45108e-16)
(-0.184494 0.00737281 2.65815e-16)
(-0.193388 0.00952641 -9.45379e-17)
(-0.198374 0.0106667 1.25499e-16)
(-0.200802 0.0119343 -2.92395e-16)
(-0.200387 0.0129928 1.86298e-16)
(-0.198325 0.0135884 5.59317e-16)
(-0.195266 0.0144128 -2.86016e-16)
(-0.191761 0.0149066 -3.59567e-16)
(-0.18905 0.0160367 1.85186e-16)
(-0.187954 0.0177895 7.03922e-16)
(-0.192374 0.0206175 -3.18131e-16)
(-0.201943 0.0228394 -2.5418e-16)
(-0.212632 0.0227353 -2.75425e-17)
(-0.225094 0.0183261 1.33415e-16)
(-0.241964 0.0100724 -5.71339e-16)
(-0.24839 0.0131979 -1.46425e-15)
(-0.224076 0.0211417 4.92418e-17)
(-0.191927 -0.0028432 5.08553e-16)
(-0.130436 -0.0391291 8.82608e-17)
(0.0300308 -0.105129 8.18302e-16)
(0.329861 -0.29444 1.46114e-16)
(-0.393955 0.648482 -2.6818e-16)
(-0.298957 1.24586 2.22516e-17)
(0.0318129 2.2248 1.7364e-15)
(-0.502028 0.639527 -7.68067e-16)
(-1.62246 -1.91284 -1.55423e-15)
(-1.4912 -1.69614 2.52555e-15)
(-0.559713 -0.40716 9.13182e-16)
(-0.110339 -0.00850483 3.84602e-16)
(-0.12936 -0.0213746 -2.63407e-16)
(-0.122094 -0.0132132 5.03529e-16)
(-0.135292 -0.0146514 7.79849e-16)
(-0.135966 -0.0147326 -8.87974e-16)
(-0.137245 -0.00684773 7.6231e-16)
(-0.14539 -0.00488948 4.16828e-16)
(-0.152783 -0.00349953 1.13237e-16)
(-0.160703 -0.00129258 -3.99961e-16)
(-0.168541 0.000109174 -3.7641e-16)
(-0.175602 0.00221683 -2.10435e-16)
(-0.181906 0.0037932 3.98605e-17)
(-0.186996 0.00615173 -5.2891e-17)
(-0.190413 0.00790936 -3.53014e-17)
(-0.19966 0.00931229 -8.4057e-17)
(-0.205999 0.0097682 -1.80108e-16)
(-0.210728 0.0105601 -5.1372e-18)
(-0.213322 0.0115273 -7.71561e-16)
(-0.214294 0.0121813 -3.22677e-16)
(-0.214227 0.0134587 3.96478e-16)
(-0.214036 0.0148228 2.6887e-16)
(-0.215039 0.0172084 6.29497e-16)
(-0.218245 0.020509 -3.82855e-16)
(-0.228821 0.0256733 4.96735e-16)
(-0.246425 0.0319042 -5.39867e-16)
(-0.267535 0.0363834 -4.40135e-16)
(-0.2927 0.0365125 4.44466e-16)
(-0.322204 0.0346599 -1.1896e-16)
(-0.342422 0.0344441 -8.43852e-17)
(-0.335058 0.0263157 -5.54144e-16)
(-0.318578 -0.00547917 4.68471e-16)
(-0.266705 -0.0605285 -2.25359e-16)
(-0.127058 -0.141728 -9.66908e-17)
(0.0462199 -0.327606 7.11063e-16)
(-0.293973 0.674066 2.16687e-16)
(-0.318927 0.660534 -1.36652e-16)
(-0.0352561 1.25252 -1.33267e-16)
(0.179376 1.90769 8.37219e-16)
(-0.304577 0.776854 1.90099e-16)
(-1.28713 -1.16369 -4.28129e-16)
(-1.53347 -1.5509 -5.85408e-16)
(-0.833837 -0.722913 -1.30204e-15)
(-0.194847 -0.012863 2.68867e-16)
(-0.132602 -0.00661089 -9.51087e-17)
(-0.135023 -0.00902428 4.28834e-16)
(-0.1429 -0.0135956 1.94852e-16)
(-0.143327 -0.00555343 -3.71996e-16)
(-0.147594 -0.0010637 -6.09424e-16)
(-0.151347 0.000359222 1.9904e-16)
(-0.15717 0.0028835 4.63669e-18)
(-0.163912 0.00368749 -1.64164e-16)
(-0.170339 0.00538476 -2.3883e-16)
(-0.176332 0.00623493 -4.4997e-17)
(-0.181595 0.00787518 4.75777e-17)
(-0.185545 0.00873667 1.33053e-16)
(-0.195066 0.00937918 -2.6044e-16)
(-0.202228 0.00912758 -5.57797e-17)
(-0.208148 0.0092242 4.19792e-16)
(-0.212311 0.00967412 2.46574e-16)
(-0.215057 0.0100547 -2.51702e-16)
(-0.216999 0.0113367 2.48726e-16)
(-0.218989 0.0131737 1.89668e-16)
(-0.222306 0.0164718 -3.68777e-16)
(-0.228061 0.0211447 2.20133e-16)
(-0.242033 0.028044 -3.00583e-17)
(-0.265142 0.0365023 7.43737e-16)
(-0.293966 0.0436501 1.69244e-16)
(-0.328735 0.0468285 -6.72538e-17)
(-0.369575 0.0472366 1.35383e-16)
(-0.404383 0.0454002 3.01125e-16)
(-0.416024 0.0324065 -1.24671e-16)
(-0.422265 -0.0085633 2.10329e-16)
(-0.388698 -0.0691364 9.65567e-17)
(-0.32182 -0.1673 -2.35942e-16)
(-0.281826 -0.332628 -2.14804e-16)
(-0.260413 0.587839 -3.63786e-17)
(-0.206586 0.565874 2.21689e-17)
(-0.111459 0.622541 5.60003e-17)
(0.0389538 1.21084 2.50326e-16)
(0.240295 1.65909 -9.02776e-16)
(-0.0595372 0.951481 1.10852e-16)
(-0.857078 -0.483348 -5.4714e-16)
(-1.37827 -1.23785 -8.78954e-16)
(-1.04513 -0.881319 1.58483e-16)
(-0.395782 -0.20068 -3.07899e-16)
(-0.116867 0.0274927 3.05611e-17)
(-0.141934 -0.00846228 3.91178e-18)
(-0.138717 -0.00138614 -2.36882e-17)
(-0.145058 0.00206788 -3.25661e-16)
(-0.147526 0.00287802 1.50365e-17)
(-0.149939 0.00689121 -1.82284e-16)
(-0.154397 0.00727605 -1.0667e-16)
(-0.159575 0.00873048 -8.54375e-17)
(-0.16499 0.00885981 -3.92132e-17)
(-0.170299 0.0097607 5.59754e-17)
(-0.174754 0.00972387 5.11756e-17)
(-0.184335 0.00959819 3.14747e-17)
(-0.191851 0.00859417 -3.29333e-18)
(-0.198301 0.00791089 -1.75845e-16)
(-0.203259 0.00764774 1.25625e-16)
(-0.206907 0.00757757 4.83271e-16)
(-0.209787 0.00862158 -4.05884e-16)
(-0.212679 0.0107163 -4.63659e-16)
(-0.216778 0.0146769 -1.65623e-16)
(-0.223297 0.0205417 1.82897e-16)
(-0.237667 0.0289606 3.53687e-16)
(-0.26318 0.0393925 -1.10422e-16)
(-0.29625 0.0491199 -2.39677e-16)
(-0.337138 0.0555059 -3.68114e-16)
(-0.386672 0.0579922 -1.53021e-16)
(-0.435303 0.0554733 5.84162e-16)
(-0.468443 0.0400073 2.918e-16)
(-0.50399 -0.00697599 -5.33726e-17)
(-0.51775 -0.0694494 4.34307e-16)
(-0.507406 -0.163708 -2.835e-16)
(-0.600514 -0.282079 -1.97023e-16)
(-0.201294 0.502051 6.8314e-17)
(-0.157372 0.506559 -3.56195e-17)
(-0.0719421 0.46263 -9.33195e-17)
(-0.0385635 0.617289 -3.96948e-16)
(0.104584 1.03724 -3.3945e-16)
(0.289656 1.3843 3.00585e-16)
(0.168936 1.06592 3.73476e-16)
(-0.412732 0.0628377 -1.08977e-16)
(-1.06012 -0.84546 8.17123e-16)
(-1.08521 -0.829307 -4.57369e-16)
(-0.639099 -0.41732 2.37666e-16)
(-0.199603 -0.020373 -6.73549e-17)
(-0.139788 -0.00314031 5.96683e-16)
(-0.13612 0.0030906 -6.49715e-16)
(-0.137207 0.00639946 1.32363e-16)
(-0.140658 0.00984319 -1.63153e-16)
(-0.144399 0.00984581 -9.90793e-18)
(-0.147784 0.0118825 8.45706e-17)
(-0.152338 0.0114307 -2.3372e-18)
(-0.157401 0.0117488 -1.87439e-16)
(-0.162153 0.0109279 1.84819e-16)
(-0.171643 0.010124 -1.45753e-16)
(-0.179183 0.00832617 -1.24108e-16)
(-0.185645 0.00679687 2.00733e-16)
(-0.190749 0.00565978 -1.3529e-16)
(-0.1945 0.0049396 -1.48441e-16)
(-0.197333 0.00552555 -1.09119e-16)
(-0.199971 0.0076429 -8.385e-17)
(-0.203498 0.0120485 -3.23667e-18)
(-0.209221 0.0189384 1.74594e-16)
(-0.221424 0.0287699 6.22507e-17)
(-0.246506 0.0413775 1.62163e-16)
(-0.280639 0.0541699 -2.19947e-16)
(-0.324605 0.0644183 -3.7069e-16)
(-0.380354 0.0700551 -1.94878e-16)
(-0.441371 0.0689919 4.21208e-16)
(-0.497205 0.0541408 1.5941e-17)
(-0.564131 0.00835238 -7.9157e-18)
(-0.6297 -0.0496099 1.77758e-16)
(-0.686768 -0.148118 2.54407e-16)
(-0.867908 -0.16778 -1.79206e-16)
(-0.150675 0.425701 -2.29229e-17)
(-0.115206 0.429692 7.18116e-17)
(-0.0520325 0.377582 -1.86459e-17)
(-0.0134376 0.438495 4.23573e-18)
(0.0230919 0.556706 1.26546e-16)
(0.139542 0.837268 6.04518e-16)
(0.31471 1.1226 -4.84985e-16)
(0.338618 1.01804 -8.02135e-16)
(-0.00221615 0.489566 1.55616e-16)
(-0.590136 -0.266574 4.42296e-16)
(-0.909876 -0.631979 1.45428e-15)
(-0.771703 -0.499419 -1.60819e-15)
(-0.391286 -0.178437 6.5142e-16)
(-0.145125 0.00720459 -1.52243e-16)
(-0.129298 0.0035033 -3.97765e-16)
(-0.126222 0.00939411 4.58365e-16)
(-0.129132 0.0127752 3.08984e-17)
(-0.133588 0.0146268 3.66265e-16)
(-0.138997 0.0135384 -2.2016e-16)
(-0.143834 0.0138773 -2.09181e-16)
(-0.149122 0.0124264 2.68632e-16)
(-0.159096 0.0110664 -7.77264e-17)
(-0.167056 0.00842069 -1.81984e-16)
(-0.173523 0.00592098 5.64033e-17)
(-0.178384 0.00376794 7.60158e-17)
(-0.181571 0.00220586 -6.11553e-17)
(-0.183546 0.00208743 -1.03209e-16)
(-0.18499 0.00393941 2.3505e-16)
(-0.186849 0.00854755 2.65649e-16)
(-0.190575 0.0163095 -1.5015e-16)
(-0.198634 0.0274866 -2.27217e-16)
(-0.220798 0.0426359 -8.88622e-17)
(-0.253112 0.0592704 1.70799e-16)
(-0.297286 0.0745295 1.00439e-16)
(-0.356614 0.0854404 -3.81126e-17)
(-0.427924 0.0893218 -1.19883e-16)
(-0.505672 0.0796042 2.7227e-16)
(-0.603271 0.0426565 -2.73554e-16)
(-0.720242 -0.00196728 5.19514e-17)
(-0.852437 -0.0664446 6.16458e-17)
(-1.11456 -0.0408587 1.87692e-16)
(-0.108605 0.353492 -4.60446e-17)
(-0.0791066 0.36223 1.34024e-17)
(-0.035976 0.312936 -1.55825e-17)
(-0.0029177 0.342376 -1.72392e-16)
(0.0288577 0.401015 6.15525e-17)
(0.0648874 0.481658 -5.87524e-18)
(0.155087 0.658251 -1.28942e-16)
(0.304192 0.876619 4.93332e-16)
(0.382951 0.914623 -2.297e-16)
(0.260778 0.642718 6.53848e-16)
(-0.109032 0.15946 3.69541e-17)
(-0.549162 -0.305093 -2.97971e-16)
(-0.675713 -0.38152 9.89504e-17)
(-0.528078 -0.283376 -2.93951e-16)
(-0.26195 -0.0815415 -4.20899e-16)
(-0.122178 0.00958607 4.77799e-17)
(-0.114998 0.00883022 1.83209e-16)
(-0.114934 0.0139482 3.0288e-16)
(-0.119705 0.0163977 -3.71513e-17)
(-0.125855 0.0166077 -2.53238e-16)
(-0.133689 0.0141143 2.40126e-16)
(-0.14524 0.0124124 1.20989e-17)
(-0.15478 0.00895474 -4.34126e-17)
(-0.162381 0.00539079 1.03985e-16)
(-0.167897 0.00204656 1.39615e-16)
(-0.17098 -0.000753396 1.80298e-16)
(-0.171927 -0.00194497 3.24939e-17)
(-0.171522 -0.000704023 1.54514e-17)
(-0.170888 0.00389739 -1.16378e-16)
(-0.171675 0.0123301 6.564e-18)
(-0.175569 0.0249406 -1.32308e-16)
(-0.191335 0.0428225 4.19888e-17)
(-0.219059 0.0643043 -6.29457e-17)
(-0.260328 0.0862351 -8.51861e-17)
(-0.319823 0.105474 5.8433e-17)
(-0.397868 0.118944 8.17668e-17)
(-0.493804 0.12078 3.36456e-17)
(-0.618447 0.101702 1.72943e-17)
(-0.779684 0.0794501 -8.81531e-17)
(-0.976578 0.0595297 1.66066e-16)
(-1.29418 0.114607 2.82917e-17)
(-0.0748207 0.288843 1.53356e-16)
(-0.0502748 0.299922 -4.54291e-17)
(-0.0176791 0.265532 -1.47008e-16)
(0.00219937 0.268135 1.7195e-16)
(0.0322946 0.311638 1.52957e-17)
(0.0611793 0.355901 1.73793e-17)
(0.0952345 0.407134 4.45707e-16)
(0.162724 0.512726 -8.69529e-16)
(0.278284 0.658236 -1.9944e-16)
(0.389896 0.737795 1.52368e-15)
(0.384882 0.606103 3.90776e-17)
(0.238885 0.424744 -1.23675e-16)
(-0.100195 0.09539 -6.75553e-16)
(-0.373513 -0.150773 4.54371e-16)
(-0.469851 -0.212516 -1.07349e-15)
(-0.366355 -0.158128 2.32275e-16)
(-0.195065 -0.0431822 -4.50953e-17)
(-0.107359 0.00940192 2.67176e-16)
(-0.101357 0.0119593 -1.13329e-16)
(-0.104189 0.0160406 -2.92217e-16)
(-0.1119 0.0170725 1.84476e-16)
(-0.125314 0.0156435 -5.9746e-17)
(-0.138481 0.0105515 -8.41752e-17)
(-0.149079 0.00543008 1.17431e-16)
(-0.157125 0.000521626 1.09254e-16)
(-0.162035 -0.00387686 -1.01905e-16)
(-0.163605 -0.00661244 5.69078e-17)
(-0.162403 -0.00658892 1.12361e-16)
(-0.159567 -0.00263995 4.75258e-17)
(-0.156863 0.00611284 -6.19063e-17)
(-0.156371 0.0203951 5.31502e-17)
(-0.163323 0.0410476 7.04412e-17)
(-0.183747 0.0683115 6.7501e-17)
(-0.218424 0.098962 6.64244e-17)
(-0.273305 0.130217 1.30445e-16)
(-0.351979 0.158927 -1.44814e-16)
(-0.458028 0.180071 4.85813e-17)
(-0.600505 0.188308 7.82233e-18)
(-0.791124 0.199428 5.53465e-18)
(-1.03207 0.228676 -2.18771e-17)
(-1.38086 0.319183 -2.72417e-17)
(-0.0485906 0.232301 3.01002e-17)
(-0.0277446 0.243894 1.071e-16)
(-0.00304302 0.220504 8.78194e-17)
(0.0124049 0.220677 -3.96524e-17)
(0.0315435 0.231904 -4.86299e-17)
(0.0586244 0.272708 1.09438e-16)
(0.0858681 0.307393 9.23137e-17)
(0.116964 0.340757 -2.71059e-16)
(0.166836 0.399517 3.66034e-16)
(0.248206 0.4863 -5.45928e-16)
(0.350293 0.562248 -1.1078e-15)
(0.402479 0.53674 -2.62362e-16)
(0.390316 0.437455 3.9304e-16)
(0.251856 0.299953 -4.72261e-16)
(0.0242279 0.128523 -4.38802e-16)
(-0.19931 -0.0238207 6.10239e-16)
(-0.293876 -0.0903402 -1.13502e-16)
(-0.262163 -0.0903231 6.60449e-16)
(-0.159186 -0.0285669 5.21792e-17)
(-0.096216 0.00769733 -3.60205e-16)
(-0.090197 0.0127215 4.16681e-17)
(-0.100566 0.016293 -3.56051e-17)
(-0.114568 0.0139133 -1.8906e-17)
(-0.128237 0.00857272 -1.03672e-16)
(-0.140472 0.00126746 2.34672e-16)
(-0.149606 -0.006015 -1.45661e-17)
(-0.154611 -0.0115735 -8.80583e-17)
(-0.155404 -0.013907 3.25688e-20)
(-0.15277 -0.0115377 -3.31645e-17)
(-0.148132 -0.00316306 2.53081e-17)
(-0.143729 0.0122078 -1.43247e-16)
(-0.142684 0.0354391 2.4911e-17)
(-0.152526 0.0684427 8.7647e-17)
(-0.176392 0.109757 1.27526e-16)
(-0.220339 0.156707 9.12956e-17)
(-0.29047 0.206297 -9.12968e-17)
(-0.393372 0.254692 -1.07618e-16)
(-0.536977 0.29883 -7.27222e-17)
(-0.733544 0.352834 -1.88427e-16)
(-0.989145 0.430975 -1.85999e-16)
(-1.33672 0.55808 -1.12988e-16)
(-0.0288002 0.183903 7.93384e-17)
(-0.0110918 0.194909 8.39838e-17)
(0.00818544 0.179112 -1.53435e-16)
(0.0210251 0.181133 -4.41817e-17)
(0.0335777 0.183739 1.27591e-16)
(0.053493 0.202612 -3.74544e-17)
(0.0778541 0.233085 -9.96568e-17)
(0.103818 0.258469 3.42596e-17)
(0.132122 0.279883 1.00042e-15)
(0.169577 0.311959 -3.46469e-16)
(0.224648 0.358372 -8.35084e-16)
(0.295463 0.396583 1.01698e-15)
(0.362744 0.393911 4.82518e-16)
(0.406649 0.35658 6.26371e-17)
(0.404156 0.311816 1.35366e-16)
(0.311445 0.267667 -3.4848e-16)
(0.178594 0.211817 -1.14374e-16)
(-0.0271294 0.0786496 2.28012e-16)
(-0.150343 -6.38552e-05 5.09611e-16)
(-0.185463 -0.0468829 -7.14425e-16)
(-0.137043 -0.0233891 2.6557e-17)
(-0.0963497 0.00244796 -2.32161e-17)
(-0.0885364 0.0105827 -6.36928e-17)
(-0.0997285 0.0101629 -3.69956e-17)
(-0.11422 0.00494777 1.67861e-16)
(-0.127699 -0.00345902 8.4375e-17)
(-0.1381 -0.0125817 -1.52933e-16)
(-0.143954 -0.019555 -7.42824e-17)
(-0.14499 -0.0213669 2.94188e-17)
(-0.141789 -0.0160461 -3.30795e-17)
(-0.135987 -0.0017521 5.92696e-17)
(-0.130218 0.0230326 -2.94793e-17)
(-0.129278 0.0597926 5.22463e-17)
(-0.139667 0.111371 -1.24599e-17)
(-0.166427 0.17555 -1.12076e-16)
(-0.216739 0.25 -2.35364e-17)
(-0.299037 0.332097 2.22776e-17)
(-0.420983 0.418143 6.43373e-17)
(-0.593154 0.520352 -2.08071e-17)
(-0.825252 0.645076 -4.60053e-17)
(-1.13295 0.807602 -1.64532e-17)
(-0.0146002 0.143261 -6.56698e-17)
(0.000551352 0.15296 4.27999e-17)
(0.0158328 0.142488 -8.4145e-18)
(0.0267919 0.145214 -1.45746e-16)
(0.0375843 0.148296 1.57075e-17)
(0.0495699 0.153132 7.14929e-17)
(0.0686886 0.171529 -1.18019e-16)
(0.0909445 0.193428 -2.12253e-16)
(0.114898 0.211358 1.94984e-17)
(0.140547 0.225606 -2.74807e-16)
(0.170309 0.242952 3.91817e-16)
(0.207429 0.265857 5.16835e-17)
(0.254084 0.28381 -2.54476e-16)
(0.303592 0.27419 -2.80926e-16)
(0.348423 0.231088 3.27451e-16)
(0.423458 0.259431 4.43504e-16)
(0.419748 0.224047 -1.49597e-15)
(0.408893 0.259714 1.21807e-15)
(0.323456 0.270973 1.94836e-16)
(0.144805 0.168459 -5.21222e-16)
(-0.0141335 0.0790463 3.41995e-16)
(-0.116731 -0.00307952 -1.08458e-16)
(-0.127161 -0.0221645 -9.6968e-17)
(-0.105903 -0.0150133 -5.14393e-17)
(-0.0978214 -0.00770351 2.63851e-16)
(-0.0996768 -0.00587032 8.32792e-18)
(-0.107934 -0.00970063 -2.86075e-17)
(-0.12011 -0.017427 -1.83843e-16)
(-0.127534 -0.0243768 1.11305e-16)
(-0.129919 -0.0261655 2.09625e-16)
(-0.127246 -0.0184899 -2.14706e-17)
(-0.120914 0.00229808 -7.3559e-17)
(-0.11345 0.0381548 -2.64584e-17)
(-0.109479 0.0919875 -6.84038e-18)
(-0.116604 0.169147 -1.15283e-16)
(-0.138918 0.267403 4.23095e-17)
(-0.185443 0.384143 -2.05321e-18)
(-0.262986 0.512382 -5.1882e-17)
(-0.379572 0.662552 4.39131e-18)
(-0.548373 0.832287 3.97138e-17)
(-0.776755 1.03071 4.54779e-17)
(-0.00485314 0.109721 7.63892e-17)
(0.00807346 0.117813 -5.81075e-17)
(0.0203049 0.110951 -7.01547e-17)
(0.0298589 0.113766 -2.31649e-17)
(0.0391206 0.116704 1.68673e-16)
(0.0482412 0.119217 -2.27189e-17)
(0.0602041 0.1247 5.53334e-17)
(0.0784925 0.140737 1.72786e-16)
(0.0985027 0.155714 7.199e-17)
(0.120075 0.16784 -5.25409e-16)
(0.142943 0.176684 -2.85225e-16)
(0.166742 0.184527 -9.02891e-17)
(0.193832 0.195334 -5.23645e-16)
(0.224516 0.20313 3.91144e-16)
(0.256127 0.192186 1.39289e-15)
(0.279998 0.139281 -7.53057e-16)
(0.326407 0.0969619 -2.02197e-16)
(0.412145 0.155104 3.01264e-16)
(0.440918 0.167917 -3.34158e-16)
(0.527601 0.27663 9.53035e-16)
(0.45463 0.296457 -1.76041e-16)
(0.334116 0.249108 -4.78205e-16)
(0.175928 0.180527 -6.93864e-16)
(0.0243824 0.0769123 3.49713e-16)
(-0.0662702 0.00143309 3.89258e-16)
(-0.0935349 -0.0349795 3.81969e-17)
(-0.0987938 -0.0475834 2.92263e-17)
(-0.105374 -0.0486053 1.67182e-17)
(-0.110706 -0.0438074 1.63131e-17)
(-0.111318 -0.037433 9.81357e-17)
(-0.107755 -0.0291682 7.98441e-17)
(-0.103593 -0.015494 -1.46005e-16)
(-0.0967383 0.0117163 1.93663e-17)
(-0.0869857 0.0565379 -2.21475e-17)
(-0.0765213 0.125121 -6.94666e-17)
(-0.0690123 0.226168 5.73728e-18)
(-0.0735586 0.361242 1.10967e-16)
(-0.0933808 0.521544 -5.89451e-17)
(-0.136111 0.714169 -3.31348e-17)
(-0.213137 0.927475 -1.94008e-17)
(-0.331958 1.16345 1.26045e-17)
(0.00145096 0.0826231 -2.56662e-17)
(0.0124021 0.0889745 4.4392e-17)
(0.0222547 0.0844776 1.82175e-17)
(0.0305576 0.0869934 8.53382e-17)
(0.038605 0.0895172 -7.77877e-17)
(0.0465016 0.0916691 3.69049e-17)
(0.0543483 0.0937236 7.50309e-19)
(0.0674151 0.101096 -4.48704e-17)
(0.0836648 0.111664 1.79094e-16)
(0.101325 0.121096 1.66156e-16)
(0.120163 0.128379 -4.61699e-16)
(0.139235 0.132451 8.3237e-16)
(0.1591 0.135143 7.3926e-16)
(0.180079 0.138958 -7.30837e-16)
(0.201915 0.141998 -4.61217e-16)
(0.22269 0.134951 -3.52023e-16)
(0.237393 0.102285 8.19947e-16)
(0.246027 0.0360174 -7.97479e-16)
(0.289585 0.0155249 1.79465e-16)
(0.333728 0.00332233 3.94795e-16)
(0.462629 0.0776738 -2.66599e-16)
(0.58473 0.229582 -2.77836e-16)
(0.634882 0.323014 1.24622e-16)
(0.594864 0.336775 1.83884e-16)
(0.483948 0.305784 -3.02368e-16)
(0.334368 0.223125 7.01579e-17)
(0.175869 0.116125 2.82241e-16)
(0.05336 0.0167059 -4.97494e-16)
(-0.0129993 -0.0521988 1.37282e-16)
(-0.0461747 -0.0909873 1.42593e-16)
(-0.0662209 -0.101382 -4.30237e-17)
(-0.0758354 -0.0855058 -1.3545e-16)
(-0.074013 -0.0497563 4.65985e-17)
(-0.0624256 -0.000272112 1.72778e-16)
(-0.0440487 0.0620491 2.61036e-17)
(-0.0230538 0.140968 -3.55313e-18)
(0.00427682 0.249883 -5.22302e-17)
(0.0387886 0.404158 -3.12229e-17)
(0.0647951 0.598803 -6.83533e-17)
(0.081987 0.825931 1.8148e-17)
(0.07962 1.09047 5.06227e-17)
(0.00513341 0.0611558 -3.55206e-17)
(0.0143608 0.0659583 4.37545e-17)
(0.0223079 0.0629384 -3.63421e-17)
(0.0294468 0.0649189 -1.4748e-16)
(0.0364107 0.0668534 3.38001e-17)
(0.0432124 0.0685052 -5.18338e-17)
(0.0500464 0.0700115 -4.43501e-17)
(0.0579957 0.0721339 2.7269e-17)
(0.0705156 0.0783757 -4.85594e-17)
(0.0847995 0.0848278 8.61563e-18)
(0.0999841 0.0900124 -3.09211e-16)
(0.115368 0.093154 2.83785e-16)
(0.131215 0.094123 -2.11956e-16)
(0.147416 0.0933674 -6.85218e-16)
(0.163995 0.0925888 9.30041e-16)
(0.180563 0.0923267 3.67141e-16)
(0.195412 0.0880275 2.03592e-16)
(0.205248 0.0699747 -7.07241e-18)
(0.206019 0.025032 -1.85419e-16)
(0.210311 -0.0371712 -1.51668e-16)
(0.227688 -0.0911385 -7.10695e-17)
(0.332719 -0.0624923 1.92965e-16)
(0.438257 -0.0231108 -3.9367e-16)
(0.599002 0.0928874 -1.37302e-17)
(0.724848 0.221906 1.56463e-16)
(0.801957 0.319349 -1.52261e-16)
(0.802869 0.359385 -3.99013e-16)
(0.750115 0.352616 5.00258e-16)
(0.639611 0.297871 5.10514e-16)
(0.490188 0.203671 -3.97272e-16)
(0.343296 0.101357 -1.17018e-16)
(0.231973 0.0175084 -6.4121e-17)
(0.161088 -0.034618 -8.24877e-17)
(0.11806 -0.0511107 2.81169e-16)
(0.095205 -0.0305247 -1.00853e-16)
(0.0901877 0.0275147 -4.66628e-17)
(0.101497 0.118617 6.74329e-17)
(0.122 0.233893 -3.48919e-18)
(0.163146 0.377936 7.19429e-17)
(0.213449 0.538663 5.96077e-17)
(0.282924 0.754396 1.07069e-18)
(0.00698626 0.0440157 3.10014e-18)
(0.0146731 0.0476691 5.40045e-17)
(0.0210617 0.045655 2.03693e-17)
(0.0271019 0.0471101 -2.14801e-17)
(0.0330341 0.0484758 -6.02821e-17)
(0.0388617 0.0496138 4.41434e-19)
(0.0447042 0.0506351 4.45583e-17)
(0.0506651 0.0515917 4.34435e-17)
(0.0587825 0.0535573 -2.14459e-18)
(0.0702132 0.0577294 -9.67655e-17)
(0.0823869 0.0609614 -2.36375e-16)
(0.0946522 0.0628252 2.12923e-16)
(0.107184 0.0633193 -2.77739e-16)
(0.119826 0.0621169 -2.05943e-16)
(0.132486 0.059211 3.55888e-16)
(0.145171 0.0555421 2.34031e-16)
(0.157796 0.0524133 3.34528e-16)
(0.169271 0.0489076 -5.79399e-16)
(0.176913 0.0397377 -3.15587e-16)
(0.176094 0.0151836 1.00576e-15)
(0.164984 -0.03221 -5.13493e-16)
(0.160539 -0.107336 -1.12114e-16)
(0.177977 -0.161156 1.09676e-16)
(0.223322 -0.189655 -3.3722e-16)
(0.303269 -0.172097 5.48915e-16)
(0.426367 -0.122419 -3.54992e-16)
(0.59116 -0.0191883 -4.40069e-16)
(0.733023 0.104098 2.22586e-16)
(0.846971 0.207339 1.63379e-16)
(0.923679 0.285781 6.89525e-16)
(0.952233 0.332747 -3.98963e-16)
(0.929677 0.341127 -3.22674e-16)
(0.858741 0.316497 2.10071e-16)
(0.758393 0.274289 1.33828e-17)
(0.657287 0.233021 -5.20917e-17)
(0.575284 0.210658 3.59089e-17)
(0.520553 0.218199 3.85171e-18)
(0.483994 0.255454 4.90426e-17)
(0.478457 0.327558 -5.27766e-17)
(0.494675 0.422992 1.50214e-17)
(0.537733 0.542408 -2.01202e-17)
(0.00799024 0.0331893 -2.29547e-17)
(0.0144973 0.0355017 1.93142e-17)
(0.0197262 0.033971 5.08327e-18)
(0.0247973 0.0347258 -2.65003e-19)
(0.0297579 0.0353763 8.09697e-17)
(0.0346183 0.0358498 -1.72786e-17)
(0.0394673 0.0362452 -9.19592e-17)
(0.0444038 0.0365701 5.57428e-17)
(0.0496851 0.0369147 2.5615e-16)
(0.0581791 0.0387015 -2.9661e-16)
(0.0680924 0.0405809 -4.35292e-17)
(0.0781176 0.0414448 4.64469e-16)
(0.0882806 0.0413143 -3.31883e-16)
(0.0984291 0.0400697 1.18828e-16)
(0.108427 0.0374969 -6.22049e-17)
(0.118144 0.0334335 -7.477e-16)
(0.127564 0.0282357 1.30673e-15)
(0.136755 0.0229775 4.01094e-16)
(0.145393 0.0185891 -1.11665e-15)
(0.151951 0.013589 9.66163e-16)
(0.153061 0.00326405 -8.16929e-17)
(0.15413 -0.0215831 -7.69961e-16)
(0.141002 -0.0656944 1.29633e-16)
(0.122207 -0.125341 3.32942e-16)
(0.105537 -0.191997 -5.80038e-16)
(0.104613 -0.25263 2.81475e-17)
(0.1275 -0.2894 1.06681e-16)
(0.184372 -0.289335 5.47518e-17)
(0.275934 -0.249645 -4.20934e-16)
(0.394928 -0.173534 3.59166e-16)
(0.526945 -0.0745592 5.21673e-16)
(0.655726 0.0321639 -7.92809e-17)
(0.762873 0.135438 -1.92917e-16)
(0.864489 0.230794 -3.40798e-16)
(0.927696 0.301624 7.67174e-17)
(0.969413 0.361698 2.22755e-17)
(0.984336 0.408563 5.79754e-17)
(0.97341 0.443883 1.86895e-17)
(0.969763 0.486686 7.49789e-17)
(0.97577 0.537738 4.63863e-17)
(1.00282 0.608616 -3.19046e-17)
(0.00826948 0.0254494 -2.74385e-17)
(0.0137978 0.0267923 -3.95655e-17)
(0.0181329 0.0255185 -3.44007e-18)
(0.0223929 0.0257553 6.54507e-17)
(0.0265344 0.0258887 4.31661e-17)
(0.0305833 0.0258866 -2.51974e-17)
(0.0346124 0.0258302 -2.68496e-18)
(0.0386933 0.0257237 2.49205e-17)
(0.0428727 0.0255522 -1.42002e-16)
(0.0483049 0.0256171 -3.93774e-17)
(0.0565047 0.0266445 4.67781e-16)
(0.0648415 0.0268684 9.31041e-17)
(0.0732564 0.0263062 -6.86324e-16)
(0.0815986 0.0249012 1.73085e-16)
(0.0897439 0.0225967 2.1429e-16)
(0.0975492 0.019279 -9.44198e-16)
(0.104855 0.0148019 1.54232e-17)
(0.111573 0.00919254 4.92665e-16)
(0.117771 0.00300316 5.74028e-16)
(0.123584 -0.00271777 -3.53394e-16)
(0.128621 -0.00696994 1.50476e-16)
(0.139489 -0.0127193 3.49737e-16)
(0.143191 -0.0217757 -6.46436e-16)
(0.138558 -0.0397949 -2.2668e-16)
(0.12397 -0.0694013 7.2433e-17)
(0.0984946 -0.112663 2.21165e-16)
(0.0663619 -0.166409 -1.14776e-16)
(0.0341348 -0.223029 2.29592e-16)
(0.00907107 -0.27393 -1.26702e-16)
(-0.00103249 -0.310152 -3.90001e-17)
(0.0102834 -0.323575 2.59454e-16)
(0.0452415 -0.310823 -1.92025e-16)
(0.122764 -0.252215 -7.78863e-17)
(0.186683 -0.197164 2.90099e-16)
(0.299797 -0.104849 -3.19227e-16)
(0.403233 -0.00443938 1.96455e-16)
(0.518547 0.0952767 1.31498e-16)
(0.626617 0.192142 -2.25405e-16)
(0.744928 0.288475 5.03232e-17)
(0.840011 0.367197 8.53907e-17)
(0.950329 0.447489 1.34133e-17)
(0.00811649 0.0195423 -6.99109e-18)
(0.0128053 0.020237 -1.84165e-17)
(0.0164258 0.0191204 -8.65737e-18)
(0.020005 0.0190139 3.43897e-17)
(0.0234703 0.0188091 -2.62848e-19)
(0.0268512 0.0185005 -1.01607e-17)
(0.0302154 0.0181514 -2.80007e-18)
(0.0336181 0.0177693 1.01269e-17)
(0.0371056 0.0173157 3.96924e-17)
(0.0408423 0.0168392 -4.36385e-17)
(0.0471061 0.0168726 6.18732e-17)
(0.0540635 0.0166305 -7.27894e-17)
(0.0611152 0.0157722 5.6693e-17)
(0.0680808 0.0142608 3.14782e-16)
(0.0748427 0.0120664 -4.00177e-16)
(0.081288 0.00917553 -1.91154e-16)
(0.0872859 0.00555228 -1.00402e-16)
(0.0926705 0.00112734 7.45389e-17)
(0.0973197 -0.00414305 2.80439e-16)
(0.101202 -0.0101565 -1.34312e-16)
(0.104455 -0.0160501 -3.92528e-16)
(0.113998 -0.0227648 3.15523e-16)
(0.121495 -0.0279535 3.40331e-16)
(0.127588 -0.0328736 -5.7323e-16)
(0.130304 -0.0390078 2.46927e-16)
(0.1275 -0.0484338 1.77304e-16)
(0.117272 -0.0633657 -2.98257e-16)
(0.0985629 -0.0851386 5.48589e-16)
(0.0717557 -0.113825 -1.49503e-16)
(0.0389812 -0.147655 -4.39003e-16)
(0.00386153 -0.183282 -7.83142e-19)
(-0.029182 -0.216532 4.88678e-16)
(-0.0596351 -0.246519 -3.93109e-16)
(-0.0670739 -0.256478 -1.31223e-16)
(-0.0692317 -0.258805 2.78e-16)
(-0.0493684 -0.24446 2.26329e-17)
(-0.0116598 -0.216632 -5.09996e-17)
(0.0422306 -0.17352 -2.58688e-17)
(0.108137 -0.128564 2.31316e-17)
(0.217769 -0.059385 -3.43669e-18)
(0.311134 -0.000417208 4.19065e-17)
(0.00771021 0.0149789 1.39818e-17)
(0.0116749 0.015235 -2.35814e-17)
(0.014707 0.0142247 -4.94035e-18)
(0.0177124 0.0138957 -2.27859e-18)
(0.0206168 0.0134735 1.93359e-17)
(0.0234454 0.0129692 -1.39369e-17)
(0.0262625 0.0124328 1.89495e-17)
(0.0291134 0.0118684 2.20643e-17)
(0.0320326 0.0112456 -5.69632e-17)
(0.0350778 0.0105661 -3.88293e-17)
(0.0393306 0.00993342 9.15649e-18)
(0.0451854 0.00936397 -9.19397e-17)
(0.0511356 0.00828133 -5.67603e-17)
(0.0570188 0.00669108 1.4496e-16)
(0.0627154 0.00458202 1.07191e-16)
(0.0681264 0.00194392 4.89459e-18)
(0.0731588 -0.00120384 -4.43368e-17)
(0.0776927 -0.00485346 -7.82573e-17)
(0.081605 -0.00898538 1.64511e-16)
(0.0847609 -0.0136682 2.02299e-16)
(0.0870457 -0.0186811 1.4651e-17)
(0.0940461 -0.0256245 -3.60342e-16)
(0.0994801 -0.0321044 -3.87858e-17)
(0.104956 -0.0382211 2.32594e-16)
(0.110325 -0.0434719 3.11614e-16)
(0.115186 -0.0477032 -1.60345e-16)
(0.118767 -0.0512963 -4.0633e-16)
(0.120022 -0.0550169 -3.45121e-16)
(0.117813 -0.0598936 1.2854e-16)
(0.111224 -0.0669255 2.95822e-16)
(0.0998143 -0.0768569 -5.27763e-17)
(0.0837785 -0.0899909 1.04122e-16)