/*--------------------------------*- C++ -*----------------------------------*\
| =========                 |                                                 |
| \\      /  F ield         | OpenFOAM: The Open Source CFD Toolbox           |
|  \\    /   O peration     | Version:  2312                                  |
|   \\  /    A nd           | Website:  www.openfoam.com                      |
|    \\/     M anipulation  |                                                 |
\*---------------------------------------------------------------------------*/
FoamFile
{
    version     2.0;
    format      ascii;
    arch        "LSB;label=32;scalar=64";
    class       volScalarField;
    location    "650";
    object      nuTilda;
}
// * * * * * * * * * * * * * * * * * * * * * * * * * * * * * * * * * * * * * //

dimensions      [0 2 -1 0 0 0 0];

internalField   nonuniform List<scalar> 
11040
(
7.30995e-05
8.59167e-05
5.25504e-05
8.14476e-05
0.000196567
0.000189486
0.000180557
0.000171138
0.000159904
0.000152863
0.000145939
0.000139961
0.000134654
0.00013065
0.000127255
0.000125654
0.000125765
0.000127397
0.000130231
0.000134164
0.000139309
0.000145509
0.000152532
0.000160205
0.000168607
0.000178674
0.00019043
0.000202022
0.000212875
0.00022239
0.000229898
0.000234914
0.00023845
0.000245626
0.000264639
0.000242641
0.00017719
0.00019089
0.000208609
0.000228516
0.000294725
3.61731e-05
7.23572e-05
8.66293e-05
0.000158163
0.000603084
0.00062586
0.00055161
0.000506722
0.000441754
0.000405733
0.000370168
0.000342544
0.000316539
0.000297441
0.000279399
0.000267699
0.000262914
0.000263005
0.000265525
0.0002696
0.000275477
0.000283216
0.000291241
0.000298365
0.000305393
0.000319904
0.000347328
0.000379395
0.000415636
0.000456175
0.000501225
0.000550921
0.000604836
0.000664898
0.000733047
0.000800574
0.000870528
0.000961704
0.00107099
0.0011554
0.00160182
3.89043e-05
4.5596e-05
6.66491e-05
9.46734e-05
0.000418788
0.000968852
0.00118417
0.00114028
0.000999182
0.000922215
0.000840411
0.000780483
0.000721484
0.000679754
0.000638347
0.000605927
0.000581232
0.000562475
0.000551788
0.000548097
0.000552949
0.00056736
0.000592068
0.00062796
0.000675169
0.000733525
0.000802787
0.000882439
0.000972058
0.001071
0.00117815
0.0012928
0.00141501
0.00154545
0.00168524
0.00183419
0.0019994
0.00220058
0.00244622
0.0026811
0.0034802
4.07417e-05
3.82561e-05
4.71855e-05
4.80367e-05
0.000155373
0.000604033
0.0013118
0.00170535
0.0017709
0.00167527
0.00153166
0.00143356
0.00132918
0.00125487
0.00118038
0.00111968
0.001075
0.00103971
0.00101907
0.00101123
0.00101821
0.00104299
0.00108812
0.0011548
0.00124249
0.00135004
0.00147649
0.00162082
0.00178209
0.00195923
0.00215064
0.00235494
0.00257104
0.00279924
0.00304065
0.00329853
0.00358644
0.00393119
0.00435451
0.00480534
0.00594154
4.02476e-05
3.9406e-05
4.0647e-05
3.86504e-05
3.79269e-05
0.000190968
0.000720449
0.0015736
0.00225666
0.00246048
0.00246674
0.00235443
0.00218923
0.00207698
0.00196338
0.00186346
0.00179333
0.00173577
0.00170121
0.00168756
0.00169526
0.00172989
0.00179756
0.00190029
0.00203733
0.00220725
0.00240827
0.00263812
0.00289474
0.00317618
0.00347933
0.00380138
0.00414027
0.00449569
0.00486848
0.00526348
0.00569879
0.00621791
0.00685528
0.00758317
0.00902941
4.00446e-05
4.02112e-05
3.96753e-05
4.09513e-05
2.80866e-05
2.45182e-05
0.00018797
0.000746006
0.00173549
0.00274405
0.00320617
0.00337016
0.0033527
0.00323831
0.00305948
0.0029017
0.00279812
0.00270953
0.0026533
0.00263092
0.00263726
0.00267984
0.00277166
0.0029167
0.00311389
0.00336191
0.00365803
0.00399787
0.00437706
0.00479254
0.00523866
0.00571012
0.00620315
0.00671639
0.00724966
0.00780865
0.00841595
0.00913278
0.0100139
0.0110697
0.0128486
4.00668e-05
4.01295e-05
3.98901e-05
4.05443e-05
3.96769e-05
1.94146e-05
6.20115e-06
0.000142172
0.000677697
0.00173803
0.00304148
0.00396283
0.0043335
0.0044701
0.00445748
0.00435247
0.00420258
0.00405353
0.00396295
0.003928
0.00393157
0.00397842
0.00409329
0.00428488
0.00455142
0.00489259
0.00530522
0.00578211
0.00631385
0.00689635
0.00752016
0.00817545
0.00885562
0.00955764
0.010279
0.011025
0.0118233
0.0127479
0.0138888
0.0153019
0.0174631
4.00861e-05
4.00809e-05
4.01171e-05
3.99608e-05
4.09303e-05
3.98762e-05
8.16652e-06
2.04799e-06
8.91421e-05
0.000531831
0.00155712
0.00306848
0.00452506
0.0053198
0.00567935
0.00581759
0.00584015
0.00578817
0.00571965
0.00566669
0.00566975
0.00573273
0.00587417
0.00611694
0.00645946
0.00690547
0.00745397
0.00809633
0.00881178
0.00959599
0.0104346
0.0113098
0.0122099
0.0131298
0.0140627
0.0150107
0.0160061
0.0171319
0.0185203
0.0202817
0.0228486
4.00827e-05
4.00891e-05
4.00808e-05
4.01158e-05
3.98619e-05
4.19909e-05
3.8531e-05
1.3135e-05
1.94984e-05
2.51692e-05
0.000332013
0.00121857
0.00277375
0.00466578
0.00616771
0.00691137
0.00730562
0.00750491
0.00762593
0.00770925
0.00781166
0.00795992
0.0081937
0.00853991
0.00899873
0.00957011
0.010263
0.0110822
0.01201
0.0130286
0.0141192
0.0152508
0.0164007
0.0175629
0.0187241
0.019876
0.0210567
0.0223578
0.0239332
0.0259787
0.0288971
4.00816e-05
4.00842e-05
4.00835e-05
4.00923e-05
4.00509e-05
3.99543e-05
4.23351e-05
3.74507e-05
1.93382e-05
9.11039e-06
3.57562e-06
0.000167242
0.000807872
0.00220919
0.00428382
0.00648756
0.00803239
0.00882884
0.00933707
0.00969897
0.0100371
0.0103964
0.0108378
0.0114038
0.0121123
0.0129613
0.0139387
0.015026
0.0162063
0.0174815
0.0188509
0.020266
0.0216813
0.0230924
0.0244836
0.0258196
0.0271442
0.0285634
0.0302149
0.0323954
0.0355055
4.00794e-05
4.00807e-05
4.00828e-05
4.00743e-05
4.01078e-05
3.99676e-05
4.0209e-05
4.17995e-05
3.93933e-05
2.46648e-05
7.12834e-06
2.5773e-05
2.57656e-05
0.000399424
0.00147343
0.00341682
0.00599638
0.0085216
0.0102263
0.0112182
0.0119858
0.01267
0.0134019
0.0142619
0.0153023
0.0165379
0.0179626
0.0195557
0.021281
0.0230882
0.0249116
0.0266787
0.02836
0.0300044
0.0316206
0.0330943
0.0344716
0.0359194
0.0375075
0.0395439
0.0425117
4.00768e-05
4.00777e-05
4.00768e-05
4.00777e-05
4.00715e-05
4.00885e-05
3.99793e-05
4.01874e-05
4.13007e-05
4.06283e-05
3.1244e-05
4.6905e-06
5.43047e-06
6.86336e-05
0.000135555
0.000770895
0.00227806
0.00475385
0.00785548
0.0108199
0.0129068
0.014272
0.0154523
0.0166694
0.0180642
0.0196956
0.0215774
0.0237035
0.0260385
0.0285253
0.0310934
0.0336611
0.036136
0.0384265
0.0404106
0.0419816
0.0432589
0.0446412
0.0459885
0.0475734
0.0499327
4.00743e-05
4.00742e-05
4.00738e-05
4.00733e-05
4.00722e-05
4.0071e-05
4.00737e-05
4.00091e-05
4.01139e-05
4.08415e-05
4.16275e-05
3.61498e-05
1.48311e-05
4.77357e-06
1.65849e-05
0.000129803
0.000257354
0.0011772
0.0030948
0.00609327
0.00980007
0.0133439
0.0159797
0.0179307
0.0198007
0.0218462
0.0241418
0.0267363
0.0296111
0.0327066
0.03595
0.0392572
0.0425314
0.0456766
0.048591
0.0511617
0.053293
0.0548995
0.055905
0.0568106
0.0583208
4.0072e-05
4.00725e-05
4.00724e-05
4.00717e-05
4.00709e-05
4.00699e-05
4.00699e-05
4.00698e-05
4.00318e-05
4.00482e-05
4.04862e-05
4.18812e-05
3.95411e-05
2.64928e-05
1.63434e-06
1.81317e-06
3.00937e-05
0.000194562
0.000392155
0.0015266
0.00379734
0.00714307
0.0110925
0.0151535
0.0188021
0.0218725
0.0247315
0.0277796
0.0311259
0.0347295
0.038534
0.0424681
0.0464281
0.0503156
0.0540305
0.0574766
0.060564
0.0632323
0.0654122
0.0670776
0.0682444
4.007e-05
4.00715e-05
4.00715e-05
4.00709e-05
4.00702e-05
4.00696e-05
4.00687e-05
4.00692e-05
4.0068e-05
4.00524e-05
4.00035e-05
4.02815e-05
4.14484e-05
4.11525e-05
3.61867e-05
1.62208e-05
5.39774e-06
5.61112e-07
4.5292e-05
8.40631e-06
0.000464207
0.00163205
0.00373519
0.00681221
0.0106901
0.0151179
0.0198101
0.0244558
0.0288709
0.0331426
0.037475
0.0419596
0.0465351
0.0510919
0.0555244
0.0597375
0.0636596
0.0672568
0.0704592
0.073215
0.0755207
4.00685e-05
4.00708e-05
4.00707e-05
4.00701e-05
4.00692e-05
4.00684e-05
4.00678e-05
4.00672e-05
4.0067e-05
4.00674e-05
4.00613e-05
3.99997e-05
4.01485e-05
4.06733e-05
4.19115e-05
3.94226e-05
3.20332e-05
6.01958e-06
3.26205e-06
1.13924e-06
4.99769e-05
0.000216005
0.000286184
0.00109694
0.00262354
0.00498798
0.00821842
0.0122756
0.0170713
0.0224835
0.0283129
0.0342676
0.0400722
0.0456057
0.0508707
0.0558946
0.0606739
0.0651941
0.0693937
0.073203
0.0765965
4.00672e-05
4.00696e-05
4.00692e-05
4.00682e-05
4.00672e-05
4.00664e-05
4.00658e-05
4.00653e-05
4.0065e-05
4.00643e-05
4.00666e-05
4.00597e-05
4.00319e-05
4.00177e-05
4.03696e-05
4.11577e-05
4.188e-05
3.76877e-05
2.65273e-05
2.86232e-06
2.62912e-06
2.38849e-07
2.696e-05
0.00010194
1.12774e-06
0.000320197
0.00108355
0.00239223
0.00439688
0.00718127
0.0107948
0.0152473
0.0204882
0.02642
0.0328615
0.0395396
0.0461441
0.0524582
0.0583012
0.0635819
0.0683046
4.00655e-05
4.00674e-05
4.00668e-05
4.00658e-05
4.00649e-05
4.00643e-05
4.00639e-05
4.00636e-05
4.00633e-05
4.0063e-05
4.00627e-05
4.0064e-05
4.00617e-05
4.0045e-05
4.00029e-05
4.01145e-05
4.05697e-05
4.16537e-05
4.15494e-05
3.69961e-05
2.46429e-05
2.7866e-06
2.75213e-06
6.0552e-07
9.50452e-08
2.65197e-05
8.8191e-05
0.000208439
9.78961e-05
0.000412373
0.00114075
0.00235816
0.00416023
0.00664168
0.00986473
0.0138329
0.0184969
0.0238205
0.0296633
0.0358479
0.0421829
4.00634e-05
4.00646e-05
4.00636e-05
4.00624e-05
4.00615e-05
4.00608e-05
4.00604e-05
4.00602e-05
4.00601e-05
4.00601e-05
4.00602e-05
4.00603e-05
4.00605e-05
4.00624e-05
4.00503e-05
4.00294e-05
3.99984e-05
4.02385e-05
4.08363e-05
4.17575e-05
4.13202e-05
3.64375e-05
2.77849e-05
7.4578e-06
3.72888e-06
1.76575e-06
3.82282e-07
0
7.43119e-06
3.07261e-05
8.34367e-05
0.000169313
0.000307109
7.61101e-05
0.000453959
0.00115158
0.00226101
0.00384651
0.00595441
0.00861951
0.0118921
4.00611e-05
4.00617e-05
4.00605e-05
4.00593e-05
4.00584e-05
4.00579e-05
4.00576e-05
4.00574e-05
4.00574e-05
4.00575e-05
4.00576e-05
4.00577e-05
4.00578e-05
4.00585e-05
4.00592e-05
4.00578e-05
4.00384e-05
4.00082e-05
4.00264e-05
4.03299e-05
4.10482e-05
4.17394e-05
4.15668e-05
3.81476e-05
3.16962e-05
2.30243e-05
5.08427e-06
3.18147e-06
1.76382e-06
1.20018e-06
1.66198e-07
0
0
5.12519e-06
3.00019e-05
7.46211e-05
0.000143437
0.000252137
5.77733e-05
0.000152081
0.000384036
4.00587e-05
4.00589e-05
4.00577e-05
4.00566e-05
4.00559e-05
4.00556e-05
4.00555e-05
4.00555e-05
4.00556e-05
4.00557e-05
4.00559e-05
4.0056e-05
4.00562e-05
4.00564e-05
4.00567e-05
4.00576e-05
4.00584e-05
4.00511e-05
4.00252e-05
3.99941e-05
4.00528e-05
4.03889e-05
4.09438e-05
4.17818e-05
4.1795e-05
4.08193e-05
3.74377e-05
3.18729e-05
2.49699e-05
1.73432e-05
2.45108e-06
2.52117e-06
1.71812e-06
1.33406e-06
9.40356e-07
2.9747e-07
0
0
3.42875e-06
8.86029e-06
2.18701e-05
4.00563e-05
4.00562e-05
4.00552e-05
4.00545e-05
4.00542e-05
4.00541e-05
4.00543e-05
4.00545e-05
4.00547e-05
4.00549e-05
4.00552e-05
4.00554e-05
4.00556e-05
4.00557e-05
4.00559e-05
4.0056e-05
4.00567e-05
4.00577e-05
4.00566e-05
4.00449e-05
4.00137e-05
3.99995e-05
4.00407e-05
4.02826e-05
4.07311e-05
4.12559e-05
4.18943e-05
4.19518e-05
4.11357e-05
3.95886e-05
3.64622e-05
3.20851e-05
2.71087e-05
2.14436e-05
1.54233e-05
4.98244e-06
2.86646e-06
1.69936e-06
1.44693e-06
1.20454e-06
9.47584e-07
4.00539e-05
4.00539e-05
4.00533e-05
4.00531e-05
4.00532e-05
4.00535e-05
4.00539e-05
4.00544e-05
4.00548e-05
4.00551e-05
4.00554e-05
4.00557e-05
4.00559e-05
4.00561e-05
4.00562e-05
4.00563e-05
4.00564e-05
4.00566e-05
4.00574e-05
4.00584e-05
4.00553e-05
4.00422e-05
4.0018e-05
3.99934e-05
4.00172e-05
4.01128e-05
4.03567e-05
4.07428e-05
4.11981e-05
4.16122e-05
4.20509e-05
4.20698e-05
4.159e-05
4.05729e-05
3.91333e-05
3.68846e-05
3.39466e-05
3.04323e-05
2.65104e-05
2.25049e-05
1.81232e-05
4.00517e-05
4.0052e-05
4.0052e-05
4.00524e-05
4.0053e-05
4.00537e-05
4.00543e-05
4.00549e-05
4.00555e-05
4.0056e-05
4.00563e-05
4.00567e-05
4.00569e-05
4.00572e-05
4.00573e-05
4.00574e-05
4.00575e-05
4.00576e-05
4.00577e-05
4.0058e-05
4.0059e-05
4.00593e-05
4.0057e-05
4.00467e-05
4.00278e-05
4.00056e-05
3.99912e-05
4.001e-05
4.009e-05
4.02331e-05
4.04692e-05
4.07847e-05
4.1139e-05
4.1488e-05
4.17878e-05
4.20803e-05
4.21956e-05
4.20555e-05
4.16288e-05
4.09063e-05
3.99938e-05
4.00497e-05
4.00506e-05
4.00514e-05
4.00523e-05
4.00533e-05
4.00543e-05
4.00551e-05
4.00559e-05
4.00566e-05
4.00571e-05
4.00576e-05
4.0058e-05
4.00583e-05
4.00586e-05
4.00588e-05
4.0059e-05
4.00591e-05
4.00592e-05
4.00593e-05
4.00593e-05
4.00595e-05
4.00599e-05
4.00607e-05
4.00613e-05
4.006e-05
4.00549e-05
4.00438e-05
4.00266e-05
4.00076e-05
3.99933e-05
3.99903e-05
4.0011e-05
4.00647e-05
4.01581e-05
4.02893e-05
4.0467e-05
4.06859e-05
4.09387e-05
4.1205e-05
4.14675e-05
4.16954e-05
4.00482e-05
4.00498e-05
4.00513e-05
4.00526e-05
4.00539e-05
4.00551e-05
4.00561e-05
4.0057e-05
4.00577e-05
4.00584e-05
4.00589e-05
4.00594e-05
4.00598e-05
4.00601e-05
4.00604e-05
4.00607e-05
4.00609e-05
4.0061e-05
4.00611e-05
4.00612e-05
4.00613e-05
4.00614e-05
4.00615e-05
4.00619e-05
4.00625e-05
4.00632e-05
4.00634e-05
4.00619e-05
4.00577e-05
4.00503e-05
4.00392e-05
4.00252e-05
4.00102e-05
3.99967e-05
3.99879e-05
3.99864e-05
3.9996e-05
4.00218e-05
4.00658e-05
4.01336e-05
4.02084e-05
4.00471e-05
4.00495e-05
4.00515e-05
4.00532e-05
4.00546e-05
4.00559e-05
4.0057e-05
4.0058e-05
4.00588e-05
4.00595e-05
4.00602e-05
4.00607e-05
4.00612e-05
4.00616e-05
4.0062e-05
4.00623e-05
4.00625e-05
4.00628e-05
4.0063e-05
4.00631e-05
4.00633e-05
4.00634e-05
4.00635e-05
4.00636e-05
4.00637e-05
4.00639e-05
4.00643e-05
4.00649e-05
4.00654e-05
4.00656e-05
4.00652e-05
4.00637e-05
4.00607e-05
4.00559e-05
4.00492e-05
4.00407e-05
4.00306e-05
4.00194e-05
4.0008e-05
3.99976e-05
3.99894e-05
4.00465e-05
4.00495e-05
4.00518e-05
4.00537e-05
4.00553e-05
4.00566e-05
4.00578e-05
4.00588e-05
4.00597e-05
4.00605e-05
4.00612e-05
4.00619e-05
4.00624e-05
4.00629e-05
4.00633e-05
4.00637e-05
4.00641e-05
4.00644e-05
4.00646e-05
4.00649e-05
4.00651e-05
4.00653e-05
4.00655e-05
4.00657e-05
4.00658e-05
4.00659e-05
4.00659e-05
4.0066e-05
4.00662e-05
4.00665e-05
4.00668e-05
4.00672e-05
4.00676e-05
4.00679e-05
4.00679e-05
4.00676e-05
4.00667e-05
4.00651e-05
4.00628e-05
4.00593e-05
4.0056e-05
4.00462e-05
4.00496e-05
4.00521e-05
4.00541e-05
4.00557e-05
4.00571e-05
4.00584e-05
4.00595e-05
4.00605e-05
4.00614e-05
4.00622e-05
4.00629e-05
4.00635e-05
4.00641e-05
4.00646e-05
4.00651e-05
4.00655e-05
4.00658e-05
4.00662e-05
4.00665e-05
4.00668e-05
4.00671e-05
4.00673e-05
4.00676e-05
4.00677e-05
4.00679e-05
4.0068e-05
4.00681e-05
4.00682e-05
4.00682e-05
4.00683e-05
4.00684e-05
4.00685e-05
4.00686e-05
4.00688e-05
4.00691e-05
4.00693e-05
4.00696e-05
4.00699e-05
4.00701e-05
4.00703e-05
4.00461e-05
4.00497e-05
4.00523e-05
4.00543e-05
4.0056e-05
4.00575e-05
4.00588e-05
4.006e-05
4.00611e-05
4.00621e-05
4.0063e-05
4.00638e-05
4.00645e-05
4.00651e-05
4.00657e-05
4.00663e-05
4.00667e-05
4.00672e-05
4.00676e-05
4.0068e-05
4.00684e-05
4.00687e-05
4.0069e-05
4.00693e-05
4.00695e-05
4.00697e-05
4.00699e-05
4.00701e-05
4.00702e-05
4.00703e-05
4.00704e-05
4.00705e-05
4.00705e-05
4.00706e-05
4.00706e-05
4.00707e-05
4.00707e-05
4.00708e-05
4.00709e-05
4.0071e-05
4.0071e-05
4.00461e-05
4.00497e-05
4.00523e-05
4.00544e-05
4.00561e-05
4.00577e-05
4.00591e-05
4.00604e-05
4.00616e-05
4.00626e-05
4.00636e-05
4.00645e-05
4.00653e-05
4.0066e-05
4.00667e-05
4.00673e-05
4.00679e-05
4.00684e-05
4.00689e-05
4.00694e-05
4.00698e-05
4.00702e-05
4.00706e-05
4.00709e-05
4.00712e-05
4.00715e-05
4.00717e-05
4.00719e-05
4.00721e-05
4.00723e-05
4.00724e-05
4.00726e-05
4.00727e-05
4.00728e-05
4.00729e-05
4.0073e-05
4.00731e-05
4.00731e-05
4.00732e-05
4.00733e-05
4.00733e-05
4.00459e-05
4.00495e-05
4.00521e-05
4.00542e-05
4.00561e-05
4.00577e-05
4.00592e-05
4.00606e-05
4.00618e-05
4.0063e-05
4.00641e-05
4.0065e-05
4.00659e-05
4.00668e-05
4.00675e-05
4.00683e-05
4.00689e-05
4.00695e-05
4.00701e-05
4.00706e-05
4.00711e-05
4.00716e-05
4.0072e-05
4.00724e-05
4.00728e-05
4.00731e-05
4.00734e-05
4.00737e-05
4.00739e-05
4.00741e-05
4.00743e-05
4.00745e-05
4.00747e-05
4.00749e-05
4.0075e-05
4.00752e-05
4.00753e-05
4.00755e-05
4.00756e-05
4.00758e-05
4.00758e-05
4.00455e-05
4.00491e-05
4.00517e-05
4.00539e-05
4.00558e-05
4.00575e-05
4.00591e-05
4.00605e-05
4.00619e-05
4.00632e-05
4.00644e-05
4.00654e-05
4.00665e-05
4.00674e-05
4.00683e-05
4.00691e-05
4.00698e-05
4.00705e-05
4.00711e-05
4.00717e-05
4.00723e-05
4.00729e-05
4.00734e-05
4.00738e-05
4.00743e-05
4.00746e-05
4.0075e-05
4.00753e-05
4.00756e-05
4.00759e-05
4.00762e-05
4.00764e-05
4.00766e-05
4.00769e-05
4.00771e-05
4.00773e-05
4.00775e-05
4.00777e-05
4.00779e-05
4.00781e-05
4.00783e-05
4.0045e-05
4.00485e-05
4.00511e-05
4.00533e-05
4.00552e-05
4.0057e-05
4.00587e-05
4.00603e-05
4.00618e-05
4.00632e-05
4.00645e-05
4.00657e-05
4.00668e-05
4.00679e-05
4.00688e-05
4.00697e-05
4.00706e-05
4.00714e-05
4.00721e-05
4.00728e-05
4.00735e-05
4.00741e-05
4.00746e-05
4.00752e-05
4.00757e-05
4.00761e-05
4.00765e-05
4.00769e-05
4.00773e-05
4.00776e-05
4.00779e-05
4.00782e-05
4.00785e-05
4.00788e-05
4.00791e-05
4.00793e-05
4.00796e-05
4.00798e-05
4.00801e-05
4.00804e-05
4.00806e-05
4.00443e-05
4.00477e-05
4.00503e-05
4.00525e-05
4.00545e-05
4.00564e-05
4.00582e-05
4.00599e-05
4.00615e-05
4.0063e-05
4.00644e-05
4.00658e-05
4.0067e-05
4.00682e-05
4.00693e-05
4.00703e-05
4.00712e-05
4.00721e-05
4.00729e-05
4.00737e-05
4.00745e-05
4.00752e-05
4.00758e-05
4.00764e-05
4.0077e-05
4.00775e-05
4.0078e-05
4.00784e-05
4.00788e-05
4.00792e-05
4.00796e-05
4.008e-05
4.00803e-05
4.00806e-05
4.0081e-05
4.00813e-05
4.00816e-05
4.00819e-05
4.00822e-05
4.00826e-05
4.00829e-05
4.00433e-05
4.00466e-05
4.00492e-05
4.00514e-05
4.00535e-05
4.00555e-05
4.00574e-05
4.00592e-05
4.0061e-05
4.00626e-05
4.00642e-05
4.00656e-05
4.0067e-05
4.00683e-05
4.00695e-05
4.00706e-05
4.00717e-05
4.00727e-05
4.00736e-05
4.00745e-05
4.00753e-05
4.00761e-05
4.00769e-05
4.00775e-05
4.00782e-05
4.00787e-05
4.00793e-05
4.00798e-05
4.00803e-05
4.00807e-05
4.00812e-05
4.00816e-05
4.0082e-05
4.00824e-05
4.00828e-05
4.00832e-05
4.00835e-05
4.00839e-05
4.00843e-05
4.00846e-05
4.0085e-05
4.00421e-05
4.00453e-05
4.00478e-05
4.00501e-05
4.00522e-05
4.00543e-05
4.00563e-05
4.00583e-05
4.00602e-05
4.00619e-05
4.00636e-05
4.00652e-05
4.00667e-05
4.00682e-05
4.00695e-05
4.00708e-05
4.00719e-05
4.0073e-05
4.00741e-05
4.00751e-05
4.0076e-05
4.00769e-05
4.00777e-05
4.00785e-05
4.00792e-05
4.00798e-05
4.00805e-05
4.0081e-05
4.00816e-05
4.00821e-05
4.00826e-05
4.00831e-05
4.00836e-05
4.0084e-05
4.00844e-05
4.00849e-05
4.00853e-05
4.00857e-05
4.00861e-05
4.00866e-05
4.0087e-05
4.00406e-05
4.00436e-05
4.00461e-05
4.00484e-05
4.00506e-05
4.00528e-05
4.00549e-05
4.0057e-05
4.0059e-05
4.00609e-05
4.00627e-05
4.00644e-05
4.00661e-05
4.00676e-05
4.00691e-05
4.00705e-05
4.00718e-05
4.0073e-05
4.00742e-05
4.00753e-05
4.00763e-05
4.00773e-05
4.00782e-05
4.00791e-05
4.00799e-05
4.00806e-05
4.00813e-05
4.0082e-05
4.00826e-05
4.00832e-05
4.00838e-05
4.00843e-05
4.00848e-05
4.00853e-05
4.00858e-05
4.00863e-05
4.00868e-05
4.00873e-05
4.00877e-05
4.00882e-05
4.00887e-05
4.00387e-05
4.00417e-05
4.00441e-05
4.00464e-05
4.00487e-05
4.00509e-05
4.00531e-05
4.00552e-05
4.00573e-05
4.00593e-05
4.00613e-05
4.00631e-05
4.00649e-05
4.00666e-05
4.00682e-05
4.00697e-05
4.00712e-05
4.00725e-05
4.00738e-05
4.00751e-05
4.00762e-05
4.00773e-05
4.00783e-05
4.00793e-05
4.00802e-05
4.0081e-05
4.00818e-05
4.00825e-05
4.00832e-05
4.00839e-05
4.00845e-05
4.00851e-05
4.00857e-05
4.00863e-05
4.00868e-05
4.00873e-05
4.00879e-05
4.00884e-05
4.00889e-05
4.00894e-05
4.00899e-05
4.00366e-05
4.00393e-05
4.00417e-05
4.0044e-05
4.00463e-05
4.00485e-05
4.00508e-05
4.00529e-05
4.00551e-05
4.00572e-05
4.00592e-05
4.00612e-05
4.00631e-05
4.00649e-05
4.00667e-05
4.00684e-05
4.00699e-05
4.00714e-05
4.00729e-05
4.00742e-05
4.00755e-05
4.00767e-05
4.00778e-05
4.00789e-05
4.00799e-05
4.00808e-05
4.00816e-05
4.00825e-05
4.00832e-05
4.0084e-05
4.00847e-05
4.00853e-05
4.0086e-05
4.00866e-05
4.00872e-05
4.00877e-05
4.00883e-05
4.00889e-05
4.00894e-05
4.00899e-05
4.00905e-05
4.0034e-05
4.00366e-05
4.0039e-05
4.00412e-05
4.00434e-05
4.00456e-05
4.00478e-05
4.005e-05
4.00522e-05
4.00544e-05
4.00565e-05
4.00586e-05
4.00606e-05
4.00626e-05
4.00644e-05
4.00662e-05
4.0068e-05
4.00696e-05
4.00711e-05
4.00726e-05
4.0074e-05
4.00753e-05
4.00765e-05
4.00777e-05
4.00788e-05
4.00798e-05
4.00807e-05
4.00816e-05
4.00825e-05
4.00833e-05
4.0084e-05
4.00848e-05
4.00855e-05
4.00861e-05
4.00868e-05
4.00874e-05
4.0088e-05
4.00886e-05
4.00892e-05
4.00898e-05
4.00903e-05
4.00311e-05
4.00335e-05
4.00357e-05
4.00378e-05
4.00399e-05
4.00421e-05
4.00442e-05
4.00464e-05
4.00486e-05
4.00508e-05
4.0053e-05
4.00552e-05
4.00573e-05
4.00594e-05
4.00614e-05
4.00633e-05
4.00651e-05
4.00669e-05
4.00686e-05
4.00701e-05
4.00717e-05
4.00731e-05
4.00744e-05
4.00757e-05
4.00769e-05
4.0078e-05
4.0079e-05
4.008e-05
4.00809e-05
4.00818e-05
4.00826e-05
4.00834e-05
4.00841e-05
4.00848e-05
4.00855e-05
4.00862e-05
4.00868e-05
4.00874e-05
4.0088e-05
4.00886e-05
4.00891e-05
4.00277e-05
4.003e-05
4.0032e-05
4.00339e-05
4.00358e-05
4.00378e-05
4.00399e-05
4.0042e-05
4.00442e-05
4.00464e-05
4.00487e-05
4.00509e-05
4.00531e-05
4.00553e-05
4.00574e-05
4.00594e-05
4.00614e-05
4.00632e-05
4.0065e-05
4.00667e-05
4.00683e-05
4.00699e-05
4.00713e-05
4.00726e-05
4.00739e-05
4.00751e-05
4.00762e-05
4.00772e-05
4.00782e-05
4.00792e-05
4.008e-05
4.00809e-05
4.00817e-05
4.00824e-05
4.00832e-05
4.00839e-05
4.00845e-05
4.00852e-05
4.00858e-05
4.00864e-05
4.0087e-05
4.00239e-05
4.00259e-05
4.00276e-05
4.00293e-05
4.00311e-05
4.00329e-05
4.00348e-05
4.00369e-05
4.0039e-05
4.00412e-05
4.00434e-05
4.00457e-05
4.00479e-05
4.00501e-05
4.00523e-05
4.00544e-05
4.00564e-05
4.00584e-05
4.00603e-05
4.00621e-05
4.00638e-05
4.00655e-05
4.0067e-05
4.00685e-05
4.00699e-05
4.00712e-05
4.00724e-05
4.00735e-05
4.00746e-05
4.00756e-05
4.00765e-05
4.00774e-05
4.00783e-05
4.0079e-05
4.00798e-05
4.00805e-05
4.00812e-05
4.00818e-05
4.00824e-05
4.0083e-05
4.00836e-05
4.00196e-05
4.00212e-05
4.00227e-05
4.00241e-05
4.00256e-05
4.00272e-05
4.0029e-05
4.00309e-05
4.00329e-05
4.00349e-05
4.00371e-05
4.00392e-05
4.00414e-05
4.00436e-05
4.00458e-05
4.0048e-05
4.00501e-05
4.00521e-05
4.00541e-05
4.0056e-05
4.00578e-05
4.00594e-05
4.0061e-05
4.00626e-05
4.0064e-05
4.00653e-05
4.00666e-05
4.00678e-05
4.00689e-05
4.00699e-05
4.00709e-05
4.00718e-05
4.00727e-05
4.00735e-05
4.00743e-05
4.00751e-05
4.00758e-05
4.00765e-05
4.00772e-05
4.00778e-05
4.00784e-05
4.00147e-05
4.0016e-05
4.0017e-05
4.00182e-05
4.00194e-05
4.00208e-05
4.00223e-05
4.00239e-05
4.00257e-05
4.00275e-05
4.00294e-05
4.00314e-05
4.00335e-05
4.00356e-05
4.00376e-05
4.00397e-05
4.00417e-05
4.00437e-05
4.00457e-05
4.00476e-05
4.00495e-05
4.00513e-05
4.00531e-05
4.00547e-05
4.00563e-05
4.00578e-05
4.00592e-05
4.00606e-05
4.00618e-05
4.0063e-05
4.00641e-05
4.00651e-05
4.0066e-05
4.00669e-05
4.00678e-05
4.00686e-05
4.00693e-05
4.007e-05
4.00707e-05
4.00713e-05
4.00719e-05
4.00093e-05
4.001e-05
4.00107e-05
4.00115e-05
4.00124e-05
4.00134e-05
4.00146e-05
4.00158e-05
4.00171e-05
4.00185e-05
4.002e-05
4.00217e-05
4.00234e-05
4.00253e-05
4.00273e-05
4.00295e-05
4.00317e-05
4.00338e-05
4.00359e-05
4.00379e-05
4.00398e-05
4.00416e-05
4.00434e-05
4.0045e-05
4.00465e-05
4.0048e-05
4.00494e-05
4.00507e-05
4.00519e-05
4.00531e-05
4.00542e-05
4.00552e-05
4.00561e-05
4.0057e-05
4.00579e-05
4.00587e-05
4.00594e-05
4.00601e-05
4.00608e-05
4.00614e-05
4.0062e-05
4.00032e-05
4.00034e-05
4.00037e-05
4.0004e-05
4.00044e-05
4.00049e-05
4.00054e-05
4.00059e-05
4.00065e-05
4.00072e-05
4.00079e-05
4.00086e-05
4.00093e-05
4.001e-05
4.00107e-05
4.00115e-05
4.00122e-05
4.00128e-05
4.00135e-05
4.00142e-05
4.0015e-05
4.00158e-05
4.00167e-05
4.00177e-05
4.00187e-05
4.00196e-05
4.00207e-05
4.00217e-05
4.00227e-05
4.00237e-05
4.00246e-05
4.00256e-05
4.00265e-05
4.00273e-05
4.00282e-05
4.0029e-05
4.00298e-05
4.00305e-05
4.00312e-05
4.00319e-05
4.00326e-05
0.00364588
0.00724861
0.010174
0.011727
0.0118971
0.0110143
0.0094918
0.00765122
0.0056244
0.00345407
0.00140919
6.17617e-05
2.64409e-05
2.67503e-06
3.66963e-05
4.42116e-05
4.03906e-05
3.94992e-05
4.00098e-05
4.01345e-05
4.00867e-05
4.00754e-05
4.00798e-05
4.00797e-05
4.00774e-05
4.0075e-05
4.00727e-05
4.00706e-05
4.00688e-05
4.00674e-05
4.00661e-05
4.00648e-05
4.00633e-05
4.00616e-05
4.00597e-05
4.00577e-05
4.00556e-05
4.00535e-05
4.00514e-05
4.00492e-05
4.00469e-05
4.00447e-05
4.00424e-05
4.00401e-05
4.00378e-05
4.00356e-05
4.00337e-05
4.00319e-05
4.00305e-05
4.00293e-05
4.00282e-05
4.00271e-05
4.0026e-05
4.00248e-05
4.00235e-05
4.00221e-05
4.00206e-05
4.0019e-05
4.00175e-05
4.00162e-05
4.00151e-05
4.00145e-05
4.00144e-05
4.00149e-05
4.00158e-05
4.00173e-05
4.00194e-05
4.00221e-05
4.00254e-05
4.00294e-05
4.00339e-05
4.00397e-05
4.00443e-05
4.00589e-05
0.00620069
0.0109691
0.0144331
0.016176
0.0163943
0.0155063
0.0139445
0.0120345
0.00990882
0.00751057
0.0047484
0.00187998
0.000118276
5.01105e-05
9.65336e-06
3.05056e-05
4.46083e-05
4.15996e-05
3.95923e-05
3.98786e-05
4.01137e-05
4.0102e-05
4.00832e-05
4.0084e-05
4.00826e-05
4.00788e-05
4.00757e-05
4.00734e-05
4.00713e-05
4.00695e-05
4.0068e-05
4.00664e-05
4.00647e-05
4.00628e-05
4.00607e-05
4.00585e-05
4.00563e-05
4.0054e-05
4.00517e-05
4.00493e-05
4.0047e-05
4.00446e-05
4.00423e-05
4.004e-05
4.00378e-05
4.00357e-05
4.00339e-05
4.00324e-05
4.00311e-05
4.003e-05
4.0029e-05
4.00281e-05
4.00271e-05
4.0026e-05
4.00247e-05
4.00234e-05
4.00219e-05
4.00203e-05
4.00188e-05
4.00174e-05
4.00164e-05
4.00157e-05
4.00154e-05
4.00157e-05
4.00165e-05
4.00178e-05
4.00196e-05
4.0022e-05
4.00251e-05
4.00289e-05
4.00333e-05
4.00389e-05
4.00433e-05
4.00577e-05
0.00864959
0.0148472
0.0190538
0.0210965
0.0214327
0.0205723
0.0189765
0.0169936
0.0147883
0.0123211
0.00942912
0.00598268
0.00241871
0.000225333
8.77472e-05
7.84182e-06
1.96514e-05
4.28556e-05
4.28815e-05
4.00312e-05
3.97788e-05
4.00796e-05
4.01107e-05
4.00814e-05
4.00814e-05
4.00842e-05
4.00805e-05
4.00763e-05
4.00737e-05
4.00717e-05
4.00698e-05
4.00679e-05
4.0066e-05
4.00639e-05
4.00617e-05
4.00593e-05
4.00568e-05
4.00543e-05
4.00519e-05
4.00494e-05
4.0047e-05
4.00446e-05
4.00422e-05
4.004e-05
4.00379e-05
4.0036e-05
4.00343e-05
4.0033e-05
4.00319e-05
4.00309e-05
4.003e-05
4.00292e-05
4.00282e-05
4.00272e-05
4.0026e-05
4.00247e-05
4.00232e-05
4.00217e-05
4.00202e-05
4.00188e-05
4.00177e-05
4.00169e-05
4.00165e-05
4.00166e-05
4.00172e-05
4.00183e-05
4.00199e-05
4.0022e-05
4.00249e-05
4.00284e-05
4.00326e-05
4.00381e-05
4.00423e-05
4.00564e-05
0.0110791
0.0189229
0.0240079
0.0264687
0.027021
0.0262581
0.0246672
0.0226222
0.0203293
0.0177974
0.0148852
0.0113966
0.00726394
0.00305919
0.000400124
0.000159687
4.74845e-06
3.96887e-06
3.91522e-05
4.36816e-05
4.05995e-05
3.96995e-05
4.0026e-05
4.01507e-05
4.00983e-05
4.00737e-05
4.0079e-05
4.00809e-05
4.0077e-05
4.00735e-05
4.00714e-05
4.00695e-05
4.00673e-05
4.00649e-05
4.00624e-05
4.00599e-05
4.00572e-05
4.00546e-05
4.0052e-05
4.00494e-05
4.00469e-05
4.00445e-05
4.00422e-05
4.004e-05
4.00381e-05
4.00363e-05
4.00349e-05
4.00338e-05
4.00328e-05
4.00319e-05
4.00311e-05
4.00303e-05
4.00295e-05
4.00285e-05
4.00274e-05
4.00261e-05
4.00247e-05
4.00232e-05
4.00217e-05
4.00203e-05
4.00191e-05
4.00182e-05
4.00176e-05
4.00176e-05
4.0018e-05
4.00188e-05
4.00201e-05
4.00221e-05
4.00246e-05
4.0028e-05
4.00319e-05
4.00372e-05
4.00412e-05
4.0055e-05
0.0136838
0.0232684
0.0292521
0.032234
0.0331221
0.0325612
0.0310543
0.0289962
0.0266337
0.0240317
0.0210964
0.0176574
0.0135488
0.00876386
0.00392635
0.000734776
0.000280027
1.33105e-05
1.01598e-05
3.12591e-05
4.39766e-05
4.17272e-05
3.96881e-05
3.97947e-05
4.01453e-05
4.01585e-05
4.00896e-05
4.00722e-05
4.0078e-05
4.00783e-05
4.00739e-05
4.00703e-05
4.00681e-05
4.00659e-05
4.00632e-05
4.00604e-05
4.00575e-05
4.00547e-05
4.0052e-05
4.00494e-05
4.00469e-05
4.00445e-05
4.00423e-05
4.00402e-05
4.00384e-05
4.00369e-05
4.00357e-05
4.00347e-05
4.00338e-05
4.00331e-05
4.00323e-05
4.00316e-05
4.00308e-05
4.00299e-05
4.00288e-05
4.00276e-05
4.00263e-05
4.00248e-05
4.00233e-05
4.00218e-05
4.00205e-05
4.00195e-05
4.00189e-05
4.00186e-05
4.00188e-05
4.00194e-05
4.00205e-05
4.00221e-05
4.00244e-05
4.00274e-05
4.00312e-05
4.00362e-05
4.004e-05
4.00536e-05
0.0172536
0.0279656
0.0347285
0.038305
0.0396517
0.0394203
0.0381128
0.0361331
0.0337603
0.0311137
0.0281562
0.0247589
0.0207693
0.0160622
0.0106598
0.00520591
0.0012923
6.31106e-05
2.58981e-06
7.97186e-06
2.22019e-05
4.17758e-05
4.36244e-05
4.04244e-05
3.94382e-05
3.9874e-05
4.01568e-05
4.01333e-05
4.00748e-05
4.00669e-05
4.0075e-05
4.00754e-05
4.00704e-05
4.00661e-05
4.00633e-05
4.00607e-05
4.00579e-05
4.00549e-05
4.0052e-05
4.00494e-05
4.00469e-05
4.00446e-05
4.00425e-05
4.00406e-05
4.0039e-05
4.00377e-05
4.00366e-05
4.00357e-05
4.0035e-05
4.00343e-05
4.00336e-05
4.0033e-05
4.00322e-05
4.00314e-05
4.00304e-05
4.00292e-05
4.00279e-05
4.00264e-05
4.00249e-05
4.00234e-05
4.00221e-05
4.00209e-05
4.00201e-05
4.00197e-05
4.00197e-05
4.00201e-05
4.00209e-05
4.00222e-05
4.00242e-05
4.00269e-05
4.00304e-05
4.00352e-05
4.00388e-05
4.00522e-05
0.02208
0.0330341
0.0403804
0.0445763
0.0464833
0.0467141
0.045746
0.0439744
0.041696
0.0390747
0.0361306
0.0327826
0.0289076
0.0243861
0.0191214
0.0131597
0.00703426
0.00238651
0.000841839
8.71247e-05
4.95249e-06
1.07116e-05
3.23817e-05
4.48935e-05
4.31437e-05
4.00894e-05
3.95453e-05
3.99776e-05
4.01731e-05
4.01219e-05
4.00631e-05
4.00579e-05
4.00689e-05
4.00712e-05
4.00662e-05
4.00608e-05
4.00573e-05
4.00548e-05
4.00522e-05
4.00496e-05
4.0047e-05
4.00448e-05
4.00428e-05
4.00412e-05
4.00398e-05
4.00387e-05
4.00377e-05
4.00369e-05
4.00363e-05
4.00356e-05
4.0035e-05
4.00344e-05
4.00337e-05
4.00329e-05
4.0032e-05
4.00308e-05
4.00296e-05
4.00281e-05
4.00266e-05
4.00251e-05
4.00237e-05
4.00225e-05
4.00215e-05
4.00209e-05
4.00207e-05
4.00208e-05
4.00213e-05
4.00223e-05
4.0024e-05
4.00264e-05
4.00295e-05
4.00342e-05
4.00375e-05
4.00507e-05
0.0277912
0.0384424
0.0461506
0.050924
0.0534511
0.0542602
0.0537784
0.0523713
0.0503329
0.0478546
0.0450063
0.0417567
0.0380175
0.0336891
0.0286809
0.0229233
0.0164374
0.00972525
0.00390834
0.000463403
0.00036255
0
7.66587e-06
1.22589e-05
3.64393e-05
4.45938e-05
4.22233e-05
3.98263e-05
3.95824e-05
4.00214e-05
4.01941e-05
4.01327e-05
4.00618e-05
4.00486e-05
4.006e-05