/*--------------------------------*- C++ -*----------------------------------*\
| =========                 |                                                 |
| \\      /  F ield         | OpenFOAM: The Open Source CFD Toolbox           |
|  \\    /   O peration     | Version:  2312                                  |
|   \\  /    A nd           | Website:  www.openfoam.com                      |
|    \\/     M anipulation  |                                                 |
\*---------------------------------------------------------------------------*/
FoamFile
{
    version     2.0;
    format      ascii;
    arch        "LSB;label=32;scalar=64";
    class       volScalarField;
    location    "650";
    object      p;
}
// * * * * * * * * * * * * * * * * * * * * * * * * * * * * * * * * * * * * * //

dimensions      [0 2 -2 0 0 0 0];

internalField   nonuniform List<scalar> 
11040
(
-19.009
-24.2866
-19.6772
-19.0658
-18.9354
-18.7316
-18.5318
-18.3672
-18.2423
-18.1572
-18.0811
-18.0194
-17.9736
-17.9338
-17.9063
-17.8871
-17.8773
-17.8776
-17.8871
-17.9075
-17.936
-17.9736
-18.0225
-18.0813
-18.1434
-18.2028
-18.2511
-18.2789
-18.2749
-18.2287
-18.131
-17.9755
-17.76
-17.4887
-17.1787
-16.8588
-16.5492
-16.3097
-16.3251
-16.3847
-16.8813
-8.08682
-14.5575
-18.4277
-18.8883
-18.8961
-18.7419
-18.5426
-18.3739
-18.2432
-18.1563
-18.0796
-18.0162
-17.9699
-17.9293
-17.9012
-17.8816
-17.8713
-17.8712
-17.8802
-17.9001
-17.9285
-17.9661
-18.0146
-18.0731
-18.1355
-18.1956
-18.2451
-18.2748
-18.2735
-18.2305
-18.1363
-17.9847
-17.7737
-17.507
-17.201
-16.8849
-16.5788
-16.3381
-16.357
-16.3958
-17.285
-1.43929
-8.3319
-14.5217
-17.8464
-18.6423
-18.6964
-18.5495
-18.3807
-18.2408
-18.1529
-18.0768
-18.0115
-17.965
-17.9238
-17.8951
-17.875
-17.8642
-17.8636
-17.8721
-17.8914
-17.9195
-17.9573
-18.0057
-18.0639
-18.1264
-18.1871
-18.2379
-18.2694
-18.2707
-18.2313
-18.1414
-17.995
-17.7901
-17.5302
-17.2314
-16.9226
-16.6251
-16.389
-16.4201
-16.4368
-17.4899
2.46754
-4.55942
-10.4549
-14.7988
-17.4493
-18.4079
-18.4734
-18.3814
-18.2379
-18.1462
-18.0715
-18.0036
-17.9578
-17.9158
-17.8865
-17.866
-17.8545
-17.8536
-17.8616
-17.8804
-17.9082
-17.9462
-17.9946
-18.0527
-18.1156
-18.1772
-18.2296
-18.2637
-18.2686
-18.2338
-18.1498
-18.0104
-17.8136
-17.5629
-17.2736
-16.9746
-16.6883
-16.4619
-16.5069
-16.5169
-17.5707
4.97969
-0.776099
-6.4168
-11.1273
-14.7024
-17.056
-18.0939
-18.2256
-18.2305
-18.1432
-18.0673
-17.9917
-17.9478
-17.9052
-17.8757
-17.8548
-17.8425
-17.8412
-17.8485
-17.8667
-17.894
-17.9322
-17.9806
-18.0388
-18.1022
-18.1651
-18.2198
-18.2573
-18.267
-18.2384
-18.1622
-18.0321
-17.846
-17.6074
-17.331
-17.0452
-16.7734
-16.5625
-16.6171
-16.638
-17.61
6.40816
1.90962
-2.95067
-7.61173
-11.4933
-14.443
-16.5449
-17.6624
-17.9912
-18.0929
-18.066
-17.9817
-17.9354
-17.8907
-17.8618
-17.8411
-17.8281
-17.8265
-17.833
-17.8505
-17.8771
-17.9153
-17.9636
-18.0219
-18.086
-18.1506
-18.2082
-18.2501
-18.266
-18.2455
-18.1793
-18.0612
-17.8891
-17.6663
-17.4068
-17.1382
-16.885
-16.6958
-16.7521
-16.8025
-17.6529
7.17837
3.57815
-0.359032
-4.44159
-8.29531
-11.5412
-14.0634
-15.9607
-17.1747
-17.7513
-17.9012
-17.9763
-17.9308
-17.8778
-17.8434
-17.8235
-17.8104
-17.8093
-17.815
-17.8319
-17.8574
-17.8952
-17.9432
-18.0014
-18.0664
-18.1331
-18.1944
-18.2419
-18.2656
-18.2554
-18.202
-18.0991
-17.9447
-17.7418
-17.5038
-17.2569
-17.0267
-16.8636
-16.9146
-17.0056
-17.7153
7.48105
4.56313
1.42999
-1.92432
-5.35061
-8.6028
-11.41
-13.6343
-15.3584
-16.6302
-17.3745
-17.6929
-17.8459
-17.882
-17.8319
-17.8058
-17.7874
-17.7879
-17.7937
-17.8106
-17.835
-17.8719
-17.9191
-17.977
-18.0429
-18.112
-18.1778
-18.2322
-18.2656
-18.2682
-18.2306
-18.1467
-18.014
-17.8356
-17.6239
-17.4031
-17.1998
-17.0643
-17.107
-17.2349
-17.7975
7.47678
5.07416
2.55796
-0.149351
-3.00888
-5.90317
-8.68675
-11.1621
-13.1787
-14.7636
-16.0078
-16.8965
-17.4172
-17.6485
-17.7945
-17.808
-17.7698
-17.7647
-17.7665
-17.785
-17.8089
-17.845
-17.8911
-17.9485
-18.015
-18.0867
-18.1576
-18.2201
-18.2652
-18.2831
-18.2647
-18.2036
-18.0971
-17.9478
-17.7669
-17.5761
-17.402
-17.2918
-17.325
-17.4702
-17.8906
7.25863
5.2455
3.19409
1.01254
-1.3229
-3.76093
-6.22713
-8.63057
-10.8358
-12.7006
-14.1773
-15.3671
-16.3307
-17.0102
-17.4024
-17.6175
-17.7543
-17.7633
-17.7441
-17.7568
-17.7762
-17.8122
-17.858
-17.915
-17.9824
-18.0567
-18.1332
-18.2048
-18.263
-18.2985
-18.3022
-18.2675
-18.1913
-18.0751
-17.9283
-17.7697
-17.6247
-17.5335
-17.5537
-17.6853
-17.9788
6.89423
5.18216
3.48083
1.70697
-0.189736
-2.20184
-4.29163
-6.40749
-8.49025
-10.4556
-12.1857
-13.605
-14.7518
-15.7125
-16.4881
-17.0404
-17.3735
-17.5974
-17.7365
-17.7532
-17.7481
-17.7747
-17.816
-17.8726
-17.9422
-18.0203
-18.1031
-18.1847
-18.2574
-18.3121
-18.3401
-18.3342
-18.2902
-18.2088
-18.097
-17.9699
-17.8495
-17.7676
-17.7655
-17.8527
-18.033
6.43211
4.9566
3.52169
2.0581
0.510544
-1.13603
-2.87264
-4.67168
-6.49505
-8.30144
-10.0396
-11.6394
-13.0212
-14.1527
-15.0876
-15.8893
-16.5457
-17.0288
-17.3442
-17.5855
-17.7359
-17.77
-17.7828
-17.825
-17.8902
-17.9704
-18.0609
-18.1551
-18.2442
-18.3197
-18.3731
-18.3968
-18.385
-18.3368
-18.2561
-18.1542
-18.0485
-17.9625
-17.9235
-17.9433
-18.0171
5.90903
4.62364
3.39544
2.16901
0.891524
-0.45932
-1.88871
-3.38997
-4.94338
-6.5185
-8.08302
-9.6122
-11.0722
-12.4007
-13.5357
-14.4703
-15.2627
-15.957
-16.5405
-16.9874
-17.2918
-17.5481
-17.7511
-17.8399
-17.8719
-17.9225
-18.0039
-18.1037
-18.209
-18.3072
-18.3879
-18.4422
-18.4624
-18.4443
-18.3888
-18.3028
-18.1982
-18.0905
-17.9972
-17.9342
-17.903
5.35281
4.22383
3.15987
2.11736
1.0484
-0.0698099
-1.24785
-2.4888
-3.78827
-5.13066
-6.49125
-7.84968
-9.19263
-10.5015
-11.7432
-12.866
-13.8264
-14.6297
-15.3278
-15.953
-16.5012
-16.8981
-17.1642
-17.4382
-17.7266
-17.9343
-18.0403
-18.1044
-18.1755
-18.2626
-18.3542
-18.4336
-18.4853
-18.498
-18.466
-18.3905
-18.2783
-18.1389
-17.9837
-17.8326
-17.6964
4.78437
3.7873
2.8574
1.96072
1.05473
0.118431
-0.859394
-1.88569
-2.96319
-4.08737
-5.24551
-6.42304
-7.60647
-8.78231
-9.94015
-11.0667
-12.1363
-13.1091
-13.9561
-14.6828
-15.3517
-15.9044
-16.3122
-16.6603
-16.955
-17.2294
-17.548
-17.8883
-18.1652
-18.3381
-18.4289
-18.4723
-18.4861
-18.474
-18.4309
-18.35
-18.2262
-18.0624
-17.8609
-17.6389
-17.4136
4.22355
3.33994
2.5218
1.74291
0.966116
0.172973
-0.64672
-1.50077
-2.39448
-3.32873
-4.29868
-5.29765
-6.31767
-7.34662
-8.37296
-9.38837
-10.3876
-11.3625
-12.2971
-13.1609
-13.9407
-14.5962
-15.1222
-15.5753
-15.9792
-16.3394
-16.6531
-16.922
-17.1846
-17.4891
-17.8302
-18.146
-18.3716
-18.4806
-18.4777
-18.382
-18.2107
-17.9766
-17.6826
-17.3531
-17.0203
3.6925
2.90838
2.18567
1.50394
0.831248
0.151882
-0.542801
-1.26001
-2.00575
-2.78282
-3.59041
-4.42634
-5.28771
-6.16778
-7.05794
-7.94873
-8.83224
-9.70306
-10.5585
-11.3947
-12.203
-12.9455
-13.594
-14.1545
-14.6466
-15.0872
-15.4835
-15.84
-16.1613
-16.4428
-16.6762
-16.8685
-17.0406
-17.2094
-17.3623
-17.4708
-17.502
-17.4401
-17.2699
-17.0095
-16.6999
3.22242
2.52182
1.87837
1.27495
0.684049
0.0925264
-0.506774
-1.1201
-1.75294
-2.40847
-3.08767
-3.79054
-4.51652
-5.26232
-6.02314
-6.79273
-7.56423
-8.3309
-9.08725
-9.82987
-10.5557
-11.2398
-11.8672
-12.4389
-12.9542
-13.4165
-13.8318
-14.2082
-14.551
-14.8609
-15.138
-15.3815
-15.5842
-15.738
-15.8296
-15.8544
-15.8136
-15.7235
-15.5771
-15.3777
-15.1663
2.82144
2.18993
1.61165
1.07148
0.545548
0.022794
-0.502829
-1.03679
-1.58401
-2.14759
-2.72879
-3.32846
-3.947
-4.58282
-5.23326
-5.89455
-6.56225
-7.23127
-7.89615
-8.55113
-9.19055
-9.78775
-10.3282
-10.8186
-11.2637
-11.6692
-12.0391
-12.376
-12.6819
-12.9585
-13.2067
-13.4253
-13.6102
-13.7565
-13.8574
-13.9084
-13.9036
-13.8466
-13.7303
-13.5478
-13.3393
2.48139
1.90873
1.38544
0.897834
0.42516
-0.0419895
-0.508762
-0.979944
-1.45978
-1.9511
-2.45517
-2.97307
-3.50558
-4.0519
-4.61044
-5.1787
-5.75357
-6.33135
-6.90799
-7.479
-8.03978
-8.56685
-9.04531
-9.4782
-9.86646
-10.2125
-10.5195
-10.7908
-11.0294
-11.2369
-11.4143
-11.5612
-11.6774
-11.762
-11.8142
-11.8323
-11.8141
-11.7586
-11.6647
-11.5257
-11.3544
2.19118
1.66975
1.19383
0.751102
0.323368
-0.0972879
-0.515442
-0.93517
-1.36024
-1.79299
-2.23475
-2.68637
-3.14881
-3.62153
-4.1036
-4.59315
-5.08803
-5.58527
-6.08174
-6.57368
-7.05739
-7.51336
-7.92911
-8.30608
-8.64391
-8.9431
-9.20493
-9.43058
-9.62163
-9.7794
-9.90551
-10.0011
-10.0674
-10.1048
-10.114
-10.0947
-10.0477
-9.97141
-9.86875
-9.73896
-9.58535
1.94258
1.46634
1.03205
0.628342
0.239503
-0.141382
-0.51821
-0.894681
-1.2739
-1.658
-2.04803
-2.44482
-2.84909
-3.26061
-3.67852
-4.10157
-4.52793
-4.95539
-5.38121
-5.80235
-6.21542
-6.60424
-6.95843
-7.27914
-7.56573
-7.81854
-8.03821
-8.22558
-8.38145
-8.50687
-8.60273
-8.6701
-8.70991
-8.72336
-8.71188
-8.67656
-8.61891
-8.53943
-8.44146
-8.3252
-8.19423
1.72876
1.2929
0.895544
0.526325
0.171602
-0.174571
-0.515679
-0.854945
-1.19505
-1.53779
-1.88406
-2.23453
-2.58976
-2.94956
-3.3132
-3.67965
-4.04741
-4.41466
-4.77912
-5.13821
-5.48905
-5.81817
-6.11718
-6.38686
-6.62652
-6.83634
-7.01683
-7.16876
-7.29289
-7.39024
-7.46178
-7.50867
-7.53198
-7.53303
-7.51317
-7.47355
-7.41532
-7.33965
-7.24893
-7.14377
-7.02695
1.54438
1.1448
0.780555
0.442095
0.117729
-0.197794
-0.507501
-0.814311
-1.12044
-1.42747
-1.73607
-2.04687
-2.36015
-2.67579
-2.99308
-3.31115
-3.62867
-3.94416
-4.25561
-4.56091
-4.85751
-5.13439
-5.38486
-5.6096
-5.80792
-5.98006
-6.12646
-6.24789
-6.34511
-6.41915
-6.47104
-6.50198
-6.51311
-6.50572
-6.48115
-6.4406
-6.38518
-6.31605
-6.23507
-6.14304
-6.04182
1.38497
1.01825
0.683807
0.373052
0.0758633
-0.212268
-0.494142
-0.772243
-1.04856
-1.32432
-1.60016
-1.87647
-2.15353
-2.43105
-2.70846
-2.9849
-3.25928
-3.53021
-3.79611
-4.05503
-4.30494
-4.53671
-4.74528
-4.93119
-5.09404
-5.23399
-5.35165
-5.44769
-5.52297
-5.57845
-5.61521
-5.63437
-5.63713
-5.62466
-5.59831
-5.55916
-5.50837
-5.44685
-5.37635
-5.29744
-5.21207
1.24696
0.910024
0.602596
0.316879
0.0442372
-0.219302
-0.476241
-0.728786
-0.978622
-1.2268
-1.47381
-1.71994
-1.96537
-2.20978
-2.45263
-2.69311
-2.93028
-3.16293
-3.38968
-3.60889
-3.81886
-4.01215
-4.185
-4.33794
-4.47075
-4.5837
-4.67741
-4.75261
-4.81016
-4.851
-4.87616
-4.88671
-4.88377
-4.86843
-4.8419
-4.80519
-4.75929
-4.70499
-4.64382
-4.57619
-4.50399
1.12728
0.817499
0.53458
0.271623
0.0212062
-0.220098
-0.454614
-0.684225
-0.910431
-1.13405
-1.35555
-1.57505
-1.79271
-2.00816
-2.22092
-2.43022
-2.63525
-2.83492
-3.02811
-3.2134
-3.38941
-3.55009
-3.69277
-3.81799
-3.9257
-4.01624
-4.0903
-4.14861
-4.19202
-4.22143
-4.2378
-4.24215
-4.23545
-4.2187
-4.19295
-4.15909
-4.11796
-4.07026
-4.01723
-3.95922
-3.89784
1.02346
0.738389
0.477826
0.235561
0.00537571
-0.215799
-0.43002
-0.638999
-0.843967
-1.04567
-1.24441
-1.44034
-1.63347
-1.82351
-2.00994
-2.19213
-2.36931
-2.54062
-2.70504
-2.86144
-3.00865
-3.1419
-3.25926
-3.3614
-3.44832
-3.52049
-3.57859
-3.62336
-3.65561
-3.67619
-3.686
-3.68593
-3.67688
-3.65969
-3.63532
-3.60449
-3.56796
-3.52626
-3.48049
-3.43086
-3.3788
0.933327
0.670847
0.430623
0.207254
-0.00451542
-0.20738
-0.403221
-0.593534
-0.779386
-0.9614
-1.13982
-1.31475
-1.48616
-1.6538
-1.81716
-1.97571
-2.12876
-2.27561
-2.41539
-2.54721
-2.67011
-2.7803
-2.87656
-2.95955
-3.02939
-3.08658
-3.13182
-3.16583
-3.18938
-3.20324
-3.20824
-3.20516
-3.19481
-3.17793
-3.1553
-3.12756
-3.09535
-3.05911
-3.01975
-2.97741
-2.93335
0.855111
0.613207
0.391578
0.185436
-0.00952167
-0.19573
-0.374866
-0.548278
-0.716856
-0.881157
-1.04136
-1.19756
-1.34968
-1.49752
-1.64062
-1.77852
-1.91064
-2.0364
-2.15511
-2.26604
-2.36845
-2.45937
-2.53811
-2.60532
-2.66122
-2.70632
-2.7413
-2.76685
-2.7837
-2.79254
-2.79412
-2.78912
-2.77825
-2.76212
-2.74143
-2.7167
-2.68847
-2.6571
-2.62335
-2.58731
-2.55007
0.787231
0.564147
0.359433
0.169058
-0.0105765
-0.181594
-0.345551
-0.503612
-0.656575
-0.80489
-0.948745
-1.08818
-1.22315
-1.35345
-1.47874
-1.59859
-1.71254
-1.82013
-1.92081
-2.01401
-2.0992
-2.17404
-2.23828
-2.29255
-2.33711
-2.37247
-2.39931
-2.41827
-2.42999
-2.43514
-2.43432
-2.42818
-2.4173
-2.40223
-2.38353
-2.36166
-2.33705
-2.31002
-2.28115
-2.25056
-2.21912
0.728389
0.522429
0.333186
0.157175
-0.00845738
-0.165635
-0.315768
-0.459891
-0.598695
-0.732584
-0.861722
-0.986148
-1.10584
-1.22061
-1.3302
-1.43425
-1.53243
-1.62434
-1.70961
-1.78779
-1.85852
-1.92
-1.97228
-2.01597
-2.05136
-2.07896
-2.09939
-2.11326
-2.12114
-2.12361
-2.12123
-2.11454
-2.10405
-2.09021
-2.07349
-2.05429
-2.03295
-2.00974
-1.98513
-1.95922
-1.93272
0.677414
0.487085
0.311893
0.149025
-0.00384992
-0.148403
-0.28595
-0.417397
-0.543365
-0.664208
-0.780093
-0.891066
-0.997117
-1.09811
-1.19387
-1.2841
-1.36856
-1.44698
-1.51907
-1.58453
-1.64312
-1.6935
-1.73591
-1.77097
-1.79895
-1.82036
-1.83575
-1.8457
-1.85071
-1.85131
-1.84795
-1.84113
-1.83126
-1.81873
-1.80392
-1.78718
-1.76877
-1.74893
-1.72802
-1.70613
-1.68385
0.633339
0.457188
0.294825
0.1439
0.00268226
-0.130375
-0.256453
-0.376375
-0.490688
-0.59973
-0.703666
-0.802566
-0.896443
-0.985215
-1.06877
-1.14691
-1.21945
-1.28623
-1.34707
-1.40178
-1.45022
-1.49141
-1.52575
-1.5538
-1.57586
-1.59238
-1.6039
-1.6109
-1.61386
-1.61319
-1.60934
-1.60268
-1.5936
-1.58239
-1.56941
-1.5549
-1.53911
-1.52221
-1.50451
-1.48605
-1.46737
0.595276
0.432016
0.281262
0.141249
0.0106275
-0.111949
-0.227582
-0.337015
-0.440745
-0.539099
-0.632256
-0.72031
-0.803311
-0.881226
-0.954009
-1.02155
-1.08373
-1.14048
-1.1917
-1.2373
-1.27723
-1.31078
-1.33846
-1.36079
-1.37807
-1.3907
-1.39917
-1.40392
-1.40536
-1.40386
-1.39979
-1.39348
-1.38524
-1.37532
-1.36402
-1.35152
-1.33806
-1.32373
-1.30882
-1.29334
-1.27774
0.562497
0.410859
0.270657
0.140525
0.0195622
-0.0934735
-0.199592
-0.299476
-0.393587
-0.482254
-0.565674
-0.643979
-0.717253
-0.785523
-0.848799
-0.907048
-0.960239
-1.00835
-1.05138
-1.0893
-1.12215
-1.14943
-1.17172
-1.18948
-1.203
-1.21264
-1.21885
-1.22199
-1.22244
-1.2205
-1.2165
-1.21069
-1.20335
-1.19469
-1.18494
-1.17425
-1.16282
-1.15072
-1.13819
-1.12523
-1.11221
0.534334
0.393179
0.262462
0.141311
0.0291065
-0.0752484
-0.1727
-0.263881
-0.349246
-0.429118
-0.503739
-0.573261
-0.63783
-0.697509
-0.75238
-0.802469
-0.847819
-0.888453
-0.924452
-0.955832
-0.982699
-1.00471
-1.02251
-1.03648
-1.0469
-1.05409
-1.05847
-1.06033
-1.06003
-1.0578
-1.05393
-1.04863
-1.04214
-1.03462
-1.02626
-1.0172
-1.00757
-0.997453
-0.987019
-0.976272
-0.965523
0.510226
0.378432
0.256268
0.143201
0.038938
-0.0575262
-0.147085
-0.230337
-0.307729
-0.379614
-0.446258
-0.50787
-0.564627
-0.616667
-0.664106
-0.707064
-0.745611
-0.779863
-0.809914
-0.835874
-0.857849
-0.87568
-0.889941
-0.901028
-0.909145
-0.914619
-0.917758
-0.918878
-0.918212
-0.916015
-0.912481
-0.907824
-0.902198
-0.89577
-0.888666
-0.881023
-0.872927
-0.864462
-0.855742
-0.846799
-0.83786
0.48961
0.366153
0.251616
0.145854
0.048771
-0.040537
-0.122905
-0.198919
-0.269037
-0.333645
-0.39305
-0.44751
-0.497244
-0.542445
-0.583271
-0.619899
-0.652445
-0.681067
-0.705894
-0.727077
-0.744752
-0.758859
-0.769964
-0.77843
-0.784439
-0.788288
-0.790245
-0.790589
-0.789518
-0.787253
-0.783951
-0.779795
-0.774906
-0.769424
-0.763445
-0.757082
-0.750399
-0.743463
-0.73636
-0.729111
-0.721906
0.472027
0.355857
0.248102
0.148879
0.0582942
-0.0244976
-0.100306
-0.169702
-0.233168
-0.291125
-0.343936
-0.391914
-0.435335
-0.474444
-0.509458
-0.540609
-0.568063
-0.592017
-0.612637
-0.630097
-0.644551
-0.656006
-0.664985
-0.671794
-0.676586
-0.679613
-0.681096
-0.681267
-0.680285
-0.678332
-0.675531
-0.672035
-0.667936
-0.663352
-0.658356
-0.653045
-0.647465
-0.641677
-0.635745
-0.629693
-0.62367
0.457222
0.347331
0.24544
0.151996
0.0672318
-0.00964263
-0.079434
-0.142753
-0.200107
-0.251975
-0.298747
-0.340809
-0.378467
-0.412029
-0.441719
-0.467812
-0.490484
-0.509977
-0.52647
-0.540181
-0.551268
-0.559809
-0.566302
-0.571037
-0.574144
-0.575861
-0.576374
-0.575896
-0.574556
-0.572514
-0.569867
-0.566745
-0.563215
-0.559377
-0.555278
-0.550996
-0.546562
-0.542022
-0.537417
-0.532759
-0.528179
0.445041
0.340502
0.243659
0.155188
0.0755103
0.00391285
-0.0604053
-0.118114
-0.169817
-0.216061
-0.257317
-0.293995
-0.326491
-0.355167
-0.38037
-0.402398
-0.4215
-0.437875
-0.451739
-0.463252
-0.472614
-0.479873
-0.485495
-0.489663
-0.492521
-0.494212
-0.494926
-0.494786
-0.493933
-0.492448
-0.490448
-0.487995
-0.485183
-0.482053
-0.478682
-0.475102
-0.471371
-0.467498
-0.463552
-0.459521
-0.455524
0.434585
0.334601
0.242209
0.158211
0.0830632
0.0161512
-0.0432718
-0.0958695
-0.142318
-0.183277
-0.219346
-0.25101
-0.278658
-0.302586
-0.323091
-0.340488
-0.355109
-0.367238
-0.377149
-0.385036
-0.391113
-0.395461
-0.398543
-0.400525
-0.401544
-0.40173
-0.401258
-0.400233
-0.398778
-0.396961
-0.394876
-0.39257
-0.390114
-0.387533
-0.384882
-0.382174
-0.379454
-0.376712
-0.373999
-0.37128
-0.36868
0.424368
0.327736
0.239175
0.159425
0.0887894
0.0265048
-0.0282471
-0.0761425
-0.117815
-0.153899
-0.185055
-0.211957
-0.23528
-0.2556
-0.273333
-0.288705
-0.301864
-0.312956
-0.32219
-0.329747
-0.335824
-0.34051
-0.344151
-0.346863
-0.348746
-0.349893
-0.350428
-0.350421
-0.349962
-0.349096
-0.347895
-0.346393
-0.34465
-0.342688
-0.340557
-0.338272
-0.335875
-0.333368
-0.330797
-0.32816
-0.325511
0.415706
0.320812
0.234571
0.158027
0.0914423
0.0338673
-0.0158587
-0.0587565
-0.0957045
-0.127389
-0.154307
-0.1768
-0.195177
-0.209809
-0.221245
-0.23016
-0.237149
-0.242557
-0.246602
-0.249422
-0.251181
-0.251958
-0.252101
-0.251716
-0.250889
-0.249706
-0.248277
-0.246667
-0.244949
-0.243159
-0.241351
-0.239541
-0.237769
-0.236037
-0.234372
-0.232769
-0.231249
-0.229797
-0.228435
-0.227123
-0.225954
0.414489
0.321047
0.23565
0.159965
0.0948894
0.0399253
-0.00594509
-0.0439502
-0.0754164
-0.101688
-0.123994
-0.14337
-0.160563
-0.175962
-0.189568
-0.201128
-0.210579
-0.218207
-0.224407
-0.229456
-0.233558
-0.23685
-0.239548
-0.241713
-0.243403
-0.244671
-0.24558
-0.246162
-0.246457
-0.246486
-0.246283
-0.245864
-0.24526
-0.244482
-0.243559
-0.2425
-0.241329
-0.240053
-0.238688
-0.237266
-0.235746
0.418005
0.327279
0.243889
0.169154
0.104138
0.0489247
0.00313175
-0.0338309
-0.0627453
-0.0844894
-0.100015
-0.110277
-0.116287
-0.119087
-0.119828
-0.119539
-0.118673
-0.117285
-0.115386
-0.113037
-0.11034
-0.107331
-0.104236
-0.101124
-0.0980394
-0.0950242
-0.0921284
-0.0893808
-0.0868051
-0.0844092
-0.0822024
-0.0801807
-0.0783441
-0.0766798
-0.0751815
-0.0738344
-0.0726334
-0.0715561
-0.0706005
-0.0697271
-0.0689848
0.399411
0.307208
0.227009
0.15819
0.0998896
0.0508156
0.00967458
-0.0246683
-0.0532046
-0.0768234
-0.0963156
-0.112398
-0.125688
-0.136717
-0.145867
-0.153504
-0.159922
-0.165052
-0.169248
-0.172925
-0.176298
-0.179511
-0.182524
-0.18533
-0.187951
-0.190423
-0.192748
-0.19494
-0.197002
-0.198949
-0.20079
-0.202542
-0.204213
-0.205821
-0.207374
-0.208888
-0.210366
-0.21183
-0.213268
-0.214733
-0.216113
-15.7819
-15.1699
-14.7864
-14.6876
-14.3518
-13.7628
-12.9992
-12.1521
-11.2762
-10.4103
-9.56121
-8.75688
-7.97515
-7.23787
-6.54441
-5.88331
-5.26761
-4.68674
-4.1488
-3.64746
-3.18631
-2.76319
-2.37675
-2.02695
-1.71127
-1.42915
-1.17698
-0.9558
-0.760288
-0.589935
-0.441868
-0.314875
-0.205903
-0.113369
-0.0352051
0.0301302
0.0846018
0.129163
0.165632
0.194458
0.217862
0.235191
0.247947
0.257779
0.26295
0.266761
0.267326
0.266173
0.263691
0.259831
0.254474
0.248591
0.241754
0.234303
0.226248
0.217655
0.208772
0.199428
0.189718
0.179719
0.16931
0.158695
0.147568
0.136255
0.124555
0.112367
0.0998921
0.0870318
0.0731228
0.0607949
0.0432733
0.0360041
0.00460497
0.0271454
-16.5049
-15.8751
-15.3531
-15.0762
-14.6392
-13.988
-13.1841
-12.3068
-11.4065
-10.5189
-9.65313
-8.83356
-8.04222
-7.29477
-6.59071
-5.92122
-5.2975
-4.71013
-4.16617
-3.66002
-3.19472
-2.76814
-2.37888
-2.02684
-1.70943
-1.42595
-1.17304
-0.951177
-0.755346
-0.58483
-0.436836
-0.309969
-0.201234
-0.108961
-0.0311239
0.033896
0.0880335
0.132286
0.168426
0.197053
0.220129
0.237202
0.249821
0.259363
0.264437
0.268037
0.268453
0.267223
0.264599
0.260626
0.255185
0.249214
0.242303
0.234781
0.226665
0.218023
0.209089
0.199699
0.189955
0.179915
0.169483
0.158825
0.147683
0.13635
0.124622
0.112431
0.0999155
0.0870558
0.0731351
0.060794
0.0432721
0.035961
0.00464683
0.0270513
-17.0071
-16.5969
-16.0045
-15.5554
-15.0034
-14.2751
-13.4174
-12.4991
-11.5658
-10.6495
-9.75929
-8.91786
-8.11362
-7.35638
-6.64165
-5.96266
-5.32996
-4.73539
-4.18473
-3.67331
-3.20336
-2.77296
-2.38064
-2.02615
-1.70689
-1.422
-1.16824
-0.94568
-0.749549
-0.578902
-0.431013
-0.304321
-0.195895
-0.103964
-0.0265131
0.0381226
0.0918617
0.135745
0.171523
0.199865
0.222578
0.239379
0.251795
0.261039
0.265973
0.269343
0.269604
0.26826
0.265485
0.261391
0.25586
0.249792
0.242804
0.235207
0.227026
0.218336
0.209347
0.199915
0.190134
0.180058
0.1696
0.158909
0.14775
0.136397
0.124647
0.112448
0.0999083
0.0870471
0.0731188
0.0607644
0.0432554
0.0358972
0.00468726
0.0269441
-17.4516
-17.2366
-16.674
-16.1066
-15.4431
-14.6288
-13.7043
-12.7326
-11.756
-10.8043
-9.88445
-9.01598
-8.19141
-7.42068
-6.69608
-6.00761
-5.36509
-4.76235
-4.20431
-3.68706
-3.21194
-2.77738
-2.38174
-2.02461
-1.70337
-1.41702
-1.16232
-0.939101
-0.742711
-0.571982
-0.424258
-0.297807
-0.189776
-0.098278
-0.021291
0.0428691
0.0961361
0.139579
0.174945
0.202904
0.225224
0.241727
0.253869
0.262801
0.267552
0.270674
0.270771
0.26928
0.26634
0.262121
0.256491
0.250318
0.24325
0.235573
0.227326
0.218589
0.209543
0.200071
0.190251
0.180143
0.169655
0.158941
0.147766
0.136393
0.124627
0.112418
0.0998668
0.0870043
0.0730733
0.0607047
0.0432213
0.0358117
0.00472467
0.0268177
-17.819
-17.7641
-17.3037
-16.6878
-15.9393
-15.0448
-14.0488
-13.0143
-11.9851
-10.9901
-10.0348
-9.13458
-8.28313
-7.49074
-6.7527
-6.05526
-5.40313
-4.7914
-4.22503
-3.70118
-3.22037
-2.78118
-2.38188
-2.02188
-1.69852
-1.41063
-1.15498
-0.931088
-0.734488
-0.563768
-0.416292
-0.290189
-0.182653
-0.0916928
-0.0152746
0.0483126
0.101009
0.143929
0.178805
0.206307
0.228165
0.24432
0.256132
0.264716
0.269239
0.272082
0.271992
0.270322
0.267201
0.262842
0.257099
0.250812
0.243657
0.235895
0.22758
0.218788
0.209685
0.200172
0.190314
0.180174
0.169659
0.158923
0.147734
0.136342
0.124564
0.112346
0.0997867
0.0869242
0.0729943
0.0606128
0.0431648
0.0356978
0.00475739
0.0266648
-18.1093
-18.1798
-17.8458
-17.2453
-16.4555
-15.5027
-14.4423
-13.3431
-12.2548
-11.209
-10.2123
-9.27554
-8.39314
-7.57263
-6.81305
-6.10337
-5.44194
-4.82172
-4.24696
-3.71545
-3.22826
-2.78398
-2.38066
-2.01753
-1.69189
-1.40239
-1.1458
-0.921279
-0.724545
-0.553941
-0.406839
-0.281223
-0.174313
-0.084028
-0.00832028
0.0545681
0.106578
0.148869
0.183147
0.210117
0.231437
0.247174
0.2586
0.266784
0.271039
0.273568
0.273261
0.271388
0.268064
0.263551
0.257681
0.251269
0.244021
0.236168
0.227783
0.218932
0.209771
0.200217
0.190322
0.180151
0.169612
0.158853
0.147653
0.136245
0.124456
0.112236
0.0996687
0.0868116
0.0728867
0.0604938
0.0430886
0.0355623
0.00479014
0.0264868
-18.3237
-18.4799
-18.2677
-17.7262
-16.9434
-15.9674
-14.8637
-13.7087
-12.5618
-11.4611
-10.4177
-9.43999
-8.52294
-7.67076
-6.88304
-6.15326
-5.47913
-4.85059
-4.26832
-3.72939
-3.23511
-2.78511
-2.37742
-2.01096
-1.68291
-1.39174
-1.13425
-0.909176
-0.712434
-0.542109
-0.395549
-0.270602
-0.164495
-0.0750605
-0.000226538
0.0618123
0.112992
0.154532
0.188093
0.214426
0.235116
0.250358
0.261327
0.269048
0.272987
0.275153
0.274595
0.272487
0.268939
0.264247
0.258238
0.251688
0.244336
0.236386
0.227925
0.219013
0.209793
0.200197
0.190266
0.180065
0.169505
0.158725
0.147517
0.136097
0.124301
0.112082
0.0995096
0.0866611
0.072747
0.0603446
0.042993
0.0354006
0.00482345
0.0262839
-18.4574
-18.6598
-18.5474
-18.0852
-17.3486
-16.3888
-15.2743
-14.0854
-12.891
-11.7385
-10.647
-9.62572
-8.67127
-7.78501
-6.96606
-6.20975
-5.51559
-4.87557
-4.28515
-3.73998
-3.23929
-2.78362
-2.37116
-2.00109
-1.6706
-1.37783
-1.11954
-0.894055
-0.697505
-0.527683
-0.381911
-0.257874
-0.152814
-0.0644713
0.0092671
0.0702527
0.120423
0.161042
0.193738
0.219302
0.239256
0.253902
0.264332
0.271514
0.275083
0.276833
0.275987
0.273605
0.269812
0.264916
0.258755
0.252052
0.244588
0.236533
0.227994
0.219017
0.209739
0.200101
0.190135
0.179905
0.169326
0.158529
0.147317
0.135888
0.12409
0.111877
0.0993041
0.0864699
0.0725723
0.0601626
0.0428754
0.0352143
0.00485691
0.0260554
-18.5136
-18.7206
-18.6698
-18.2884
-17.6203
-16.7114
-15.6231
-14.433
-13.2145
-12.0239
-10.8901
-9.82692
-8.8346
-7.91333
-7.06181
-6.27613
-5.55598
-4.89719
-4.29507
-3.74337
-3.23734
-2.77667
-2.36034
-1.98672
-1.65368
-1.35938
-1.10055
-0.874973
-0.678918
-0.509933
-0.36528
-0.242496
-0.138805
-0.0518566
0.02051
0.0801909
0.129117
0.168613
0.200259
0.224898
0.243978
0.257912
0.267694
0.274255
0.277378
0.27865
0.277466
0.274767
0.270697
0.265567
0.259235
0.252363
0.244775
0.236607
0.227983
0.218939
0.2096
0.199921
0.189921
0.179666
0.169071
0.15826
0.147049
0.135615
0.123819
0.111616
0.0990491
0.0862326
0.0723583
0.0599435
0.042734
0.0349959
0.00488935
0.025798
-18.4921
-18.6631
-18.6311
-18.3128
-17.719
-16.8824
-15.8534
-14.6988
-13.4892
-12.2853
-11.1248
-10.0285
-9.00261
-8.04862
-7.16554
-6.35029
-5.60222
-4.91919
-4.29881
-3.73663
-3.22574
-2.76082
-2.341
-1.96484
-1.63047
-1.33501
-1.07578
-0.850484
-0.655446
-0.487836
-0.344774
-0.223684
-0.121795
-0.036658
0.0339559
0.0919951
0.139379
0.177484
0.207844
0.231359
0.249396
0.262462
0.271467
0.277305
0.279894
0.280612
0.279033
0.275965
0.271584
0.266186
0.259664
0.252603
0.24488
0.23659
0.227877
0.218762
0.209363
0.199643
0.189612
0.179334
0.168727
0.157908
0.146702
0.135268
0.12348
0.111293
0.0987379
0.085946
0.0721013
0.0596846
0.042565
0.0347478
0.00491988
0.0255112
-18.3871
-18.4856
-18.4308
-18.1467
-17.6198
-16.8622
-15.9131
-14.8262
-13.6614
-12.4773
-11.3158
-10.2043
-9.15623
-8.17699
-7.2673
-6.42534
-5.6507
-4.94257
-4.29987
-3.72052
-3.20023
-2.73202
-2.31009
-1.93185
-1.59667
-1.30165
-1.04346
-0.819172
-0.625576
-0.459947
-0.319211
-0.200533
-0.101041
-0.0182231
0.0501718
0.106135
0.151584
0.187962
0.216752
0.238897
0.255681
0.267693
0.275764
0.280754
0.282695
0.282775
0.280724
0.27723
0.27249
0.266788
0.260045
0.252775
0.244898
0.236478
0.227668
0.218478
0.209018
0.199257
0.189199
0.178901
0.168289
0.157466
0.146271
0.134843
0.12307
0.110906
0.0983688
0.0856065
0.0718003
0.0593851
0.0423698
0.0344646
0.00494942
0.0251938
-18.1879
-18.1911
-18.0776
-17.7905
-17.3099
-16.6295
-15.768
-14.7674
-13.6775
-12.5474
-11.4167
-10.3162
-9.26542
-8.27515
-7.34917
-6.48777
-5.69165
-4.96155
-4.29748
-3.6984
-3.16237
-2.68543
-2.26161
-1.88474
-1.55005
-1.25533
-0.998822
-0.777696
-0.587485
-0.424908
-0.287096
-0.17154
-0.0753054
0.00435433
0.0698435
0.123185
0.166235
0.200459
0.227299
0.247746
0.263007
0.273731
0.280681
0.284665
0.28582
0.285156
0.282542
0.278553
0.273399
0.26735
0.260354
0.252854
0.244803
0.236245
0.22733
0.218063
0.208542
0.198743
0.188661
0.178349
0.167736
0.156916
0.145741
0.134326
0.122577
0.110443
0.0979313
0.0852075
0.0714486
0.0590396
0.0421425
0.0341486
0.0049758
0.024847
-17.8856
-17.7829
-17.5879
-17.2666
-16.7992
-16.1768
-15.4028
-14.4973
-13.4982
-12.4469
-11.3775
-10.3179
-9.29029
-8.31002
-7.38425
-6.51608
-5.70827
-4.96364
-4.28358
-3.66798
-3.11573
-2.62506
-2.19319
-1.81539
-1.48481
-1.19486
-0.941142
-0.722261
-0.536131
-0.379139
-0.246739
-0.13571
-0.0434476
0.0323769
0.0941048
0.14395
0.183867
0.21539
0.239855
0.258236
0.271644
0.280783
0.286365
0.289151
0.289356
0.287824
0.284538
0.279969
0.274334
0.267887
0.260598
0.252839
0.244592
0.235882
0.226853
0.217506
0.207924
0.198088
0.187987
0.177666
0.167062
0.156252
0.145104
0.133712
0.121994
0.1099
0.097424
0.0847456
0.0710447
0.0586471
0.0418848
0.0337938
0.00499943
0.0244691
-17.4981
-17.2846
-16.9913
-16.6108
-16.1285
-15.5344
-14.8258
-14.0102
-13.1088
-12.1502
-11.1613
-10.1665
-9.18828
-8.24245
-7.33827
-6.48107
-5.67646
-4.92957
-4.24353
-3.61922
-3.05622
-2.554
-2.11155
-1.72674
-1.39511
-1.11056
-0.865688
-0.654172
-0.472703
-0.319667
-0.192947
-0.0889813
-0.00360922
0.0665703
0.123695
0.169492
0.205583
0.233585
0.254925
0.270665
0.281817
0.289046
0.292986
0.294332
0.293374
0.290811
0.286721
0.28147
0.27528
0.268372
0.260744
0.252695
0.244226
0.235353
0.2262
0.216772
0.207129
0.197261
0.187146
0.176825
0.166237
0.155449
0.144339
0.13298
0.121306
0.109262
0.0968321
0.0842107
0.0705787
0.0581989
0.0415873
0.0334013
0.00501603
0.0240624
-17.0678
-16.7544
-16.3594
-15.8981
-15.3698
-14.7704
-14.0941
-13.3402
-12.5212
-11.6558
-10.7587
-9.84393
-8.93116
-8.03872
-7.1769
-6.35072
-5.5675
-4.83477
-4.15717
-3.53628
-2.97242
-2.46615
-2.01814
-1.62725
-1.29066
-1.00466
-0.764275
-0.562958
-0.39367
-0.250308
-0.129749
-0.0306252
0.048689
0.111287
0.16072
0.200161
0.231349
0.255443
0.273291
0.285808
0.294045
0.298792
0.300688
0.300322
0.297981
0.294212
0.289153
0.283094
0.276251
0.268814
0.260792
0.252413
0.243695
0.234642
0.225356
0.215842
0.20614
0.196244
0.186125
0.175813
0.165253
0.154497
0.143437
0.132125
0.120505
0.108525
0.0961545
0.0835994
0.07005
0.0576962
0.0412533
0.032966
0.00502554
0.0236254
-16.5603
-16.1789
-15.7214
-15.2054
-14.633
-14.0019
-13.3151
-12.5806
-11.8088
-11.0095
-10.1887
-9.35294
-8.51553
-7.69
-6.88405
-6.10423
-5.35887
-4.65674
-4.00326
-3.40055
-2.84878
-2.34981
-1.90568
-1.51632
-1.17912
-0.891241
-0.649859
-0.451339
-0.29015
-0.159668
-0.053333
0.034311
0.106437
0.164214
0.208498
0.241053
0.264575
0.281907
0.294641
0.303387
0.308546
0.310517
0.309904
0.307352
0.303253
0.298042
0.291841
0.284842
0.277236
0.269178
0.260696
0.251944
0.242947
0.233697
0.224269
0.214666
0.204909
0.194993
0.184878
0.174589
0.164071
0.153362
0.142367
0.131118
0.119569
0.107667
0.0953713
0.0828982
0.0694456
0.0571275
0.0408706
0.0324889
0.00502177
0.0231627
-16.1773
-15.7529
-15.2283
-14.6312
-13.9874
-13.3036
-12.5864
-11.8435
-11.0815
-10.3063
-9.52495
-8.74452
-7.96993
-7.20738
-6.46399
-5.74229
-5.04675
-4.38731
-3.77075
-3.19942
-2.67347
-2.19452
-1.7659
-1.38835
-1.05921