/*--------------------------------*- C++ -*----------------------------------*\
| =========                 |                                                 |
| \\      /  F ield         | OpenFOAM: The Open Source CFD Toolbox           |
|  \\    /   O peration     | Version:  2312                                  |
|   \\  /    A nd           | Website:  www.openfoam.com                      |
|    \\/     M anipulation  |                                                 |
\*---------------------------------------------------------------------------*/
FoamFile
{
    version     2.0;
    format      ascii;
    arch        "LSB;label=32;scalar=64";
    class       surfaceScalarField;
    location    "650";
    object      phi;
}
// * * * * * * * * * * * * * * * * * * * * * * * * * * * * * * * * * * * * * //

dimensions      [0 3 -1 0 0 0 0];

oriented        oriented;

internalField   nonuniform List<scalar> 
21876
(
0.0081858
0.000944059
-0.00912988
0.00231923
0.00586654
-0.000890888
0.00321008
-0.00158216
0.000691238
-0.00144734
-0.000134894
-0.00139804
-4.93607e-05
-0.00134224
-5.58544e-05
-0.0012839
-5.84015e-05
-0.00123525
-4.87395e-05
-0.00120647
-2.89246e-05
-0.00117652
-2.99868e-05
-0.00114932
-2.74249e-05
-0.00113207
-1.72085e-05
-0.0011161
-1.6228e-05
-0.00110823
-8.003e-06
-0.00110636
-2.13993e-06
-0.00111179
5.39197e-06
-0.00112723
1.51814e-05
-0.00115188
2.44583e-05
-0.00118828
3.59858e-05
-0.00123559
4.6954e-05
-0.00129133
5.53959e-05
-0.00135974
6.8186e-05
-0.0014415
8.15652e-05
-0.00153344
9.17821e-05
-0.00163099
9.7331e-05
-0.00172683
9.57815e-05
-0.00181284
8.58307e-05
-0.00187948
6.66144e-05
-0.00191532
3.5747e-05
-0.00190903
-6.28835e-06
-0.00185689
-5.21977e-05
-0.00175622
-0.00010069
-0.00159846
-0.000157789
-0.00137527
-0.000223286
-0.00108228
-0.000293022
-0.000721328
-0.000361115
-0.000239064
-0.00048239
0.000351248
-0.000590493
0.000694792
-0.000344512
-0.00214976
0.00284347
0.0115477
-0.000621853
-0.00998185
0.0102537
0.00716057
0.00494795
0.00851582
0.00019909
0.00544005
-0.00158653
0.00165064
-0.00163461
-1.39122e-06
-0.0016484
-4.21655e-05
-0.00163055
-7.63666e-05
-0.001604
-7.53821e-05
-0.00159293
-4.01037e-05
-0.00157943
-4.35616e-05
-0.00156469
-4.23154e-05
-0.00155923
-2.27479e-05
-0.00155546
-2.02473e-05
-0.00156002
-3.60194e-06
-0.00157279
1.03528e-05
-0.00159491
2.73031e-05
-0.00162832
4.82018e-05
-0.00167281
6.85851e-05
-0.0017312
9.38685e-05
-0.00180423
0.000119537
-0.00188799
0.000138727
-0.00198416
0.000163989
-0.00208858
0.000185558
-0.00219392
0.000196728
-0.00229317
0.000196196
-0.00237927
0.00018164
-0.00244522
0.000151541
-0.00248391
0.000105181
-0.00249002
4.17548e-05
-0.00245887
-3.74737e-05
-0.00238021
-0.000130876
-0.00224266
-0.000238268
-0.00203688
-0.000363574
-0.0017541
-0.000506151
-0.00138737
-0.000659838
-0.000933049
-0.000815689
-0.000373915
-0.00104178
0.000353901
-0.00131874
0.00111444
-0.00110569
-0.0035734
0.00253725
0.013265
-0.00288952
-0.0109973
0.014977
0.00544855
0.01296
0.0105328
0.00745731
0.0109427
0.00170572
0.00740222
-0.00116609
0.00287038
-0.00170268
0.000494388
-0.00183622
5.71342e-05
-0.00186709
-4.45568e-05
-0.00189762
-9.61213e-06
-0.00191663
-2.45844e-05
-0.00192235
-3.66757e-05
-0.00193437
-1.07148e-05
-0.00194553
-9.14215e-06
-0.00196372
1.45386e-05
-0.00198983
3.63644e-05
-0.00202516
6.26391e-05
-0.00207269
9.56752e-05
-0.00213223
0.000128042
-0.00220641
0.000167911
-0.00229558
0.000208642
-0.00239383
0.000236913
-0.00250211
0.000272249
-0.00261619
0.000299657
-0.00272956
0.00031011
-0.00283622
0.000302829
-0.0029297
0.000275146
-0.003003
0.000224802
-0.00304822
0.000150418
-0.00305704
5.05436e-05
-0.00301955
-7.49511e-05
-0.0029243
-0.00022614
-0.00276037
-0.00040221
-0.00251628
-0.000607674
-0.00218232
-0.000840153
-0.00174917
-0.00109298
-0.00121082
-0.00135406
-0.000554193
-0.00169837
0.000288955
-0.00216187
0.00124406
-0.00206099
-0.00459971
0.00227008
0.0150534
-0.00551012
-0.0124328
0.0174685
0.00303343
0.0186627
0.00933858
0.0164296
0.0131758
0.0106319
0.0131999
0.00388685
0.00961543
-0.000278019
0.0046592
-0.00160532
0.00138436
-0.00192822
0.000278251
-0.00207632
0.000138386
-0.00217627
7.52709e-05
-0.00223037
1.73441e-05
-0.00227768
3.65304e-05
-0.00231446
2.75368e-05
-0.00235248
5.24403e-05
-0.0023959
7.9625e-05
-0.00244681
0.000113381
-0.00250995
0.000158549
-0.00258516
0.00020296
-0.00267546
0.000257872
-0.0027811
0.000313968
-0.00289512
0.000350643
-0.00301888
0.000395734
-0.003149
0.000429478
-0.00327976
0.000440601
-0.00340512
0.000427923
-0.00351775
0.000387592
-0.00360915
0.00031603
-0.0036693
0.000210457
-0.0036872
6.83505e-05
-0.0036505
-0.000111716
-0.00354638
-0.000330306
-0.00336236
-0.000586294
-0.00308465
-0.000885445
-0.00270191
-0.001223
-0.00220266
-0.00159236
-0.00157903
-0.00197788
-0.00081679
-0.00246087
0.000126322
-0.00310532
0.00123324
-0.00316843
-0.00546574
0.00209869
0.0169833
-0.00834818
-0.0141452
0.0194687
0.000547996
0.0218862
0.00692114
0.0230635
0.0119985
0.0209117
0.0153517
0.0149361
0.015591
0.00725537
0.0123399
0.00142301
0.00721669
-0.00116584
0.00286705
-0.00187732
0.000849795
-0.00222351
0.000421413
-0.00240623
0.000200011
-0.00253922
0.000169524
-0.0026335
0.000121795
-0.00271112
0.000130013
-0.00278468
0.000153108
-0.00285914
0.000187807
-0.00294348
0.000242796
-0.0030384
0.000297782
-0.00314865
0.000368015
-0.00327525
0.000440528
-0.00341074
0.000486125
-0.00355718
0.00054216
-0.0037119
0.000584218
-0.00386949
0.000598192
-0.00402324
0.00058166
-0.00416461
0.000528954
-0.00428329
0.0004347
-0.00436716
0.000294317
-0.00440286
0.000104039
-0.00437584
-0.000138732
-0.00427125
-0.000434917
-0.00407432
-0.000783233
-0.00376882
-0.00119097
-0.00334139
-0.00165045
-0.00277885
-0.00215493
-0.00207201
-0.00268476
-0.00120368
-0.00332924
-0.000174951
-0.00413412
0.00106062
-0.00440416
-0.00632236
0.00191703
0.0192828
-0.0114929
-0.0161381
0.0220533
-0.0022225
0.0245594
0.00441507
0.0270226
0.00953533
0.0283558
0.0140185
0.0265587
0.0173881
0.020693
0.0182055
0.0122574
0.0156523
0.00449327
0.0106312
5.8196e-05
0.00528481
-0.00154852
0.00202806
-0.00219324
0.000844653
-0.00256331
0.000539523
-0.00280294
0.000361337
-0.00297308
0.000300044
-0.00311089
0.000290803
-0.00323073
0.000307502
-0.00335086
0.000362722
-0.00347535
0.00042203
-0.00361325
0.000505675
-0.00376786
0.000594922
-0.00393214
0.000650201
-0.00410933
0.000719147
-0.00429759
0.000772261
-0.00449167
0.000792068
-0.00468409
0.0007739
-0.00486502
0.000709725
-0.00502237
0.000591918
-0.00514186
0.000413688
-0.00520776
0.000169857
-0.00520314
-0.000143446
-0.00511057
-0.000527556
-0.00491276
-0.000981135
-0.00459091
-0.00151292
-0.00412954
-0.00211195
-0.00351443
-0.00277019
-0.0027358
-0.00346359
-0.00177479
-0.00429046
-0.000675579
-0.00523362
0.000659892
-0.00573996
-0.00725537
0.00159252
0.0220409
-0.0150278
-0.018506
0.0252685
-0.0054501
0.0279896
0.00169399
0.0304819
0.00704306
0.0329651
0.0115353
0.0345834
0.0157698
0.0334248
0.0193641
0.0281026
0.0209745
0.019294
0.0194397
0.00972865
0.0148501
0.0027851
0.00897154
-0.000597227
0.00422691
-0.00186688
0.00180911
-0.00254568
0.00104008
-0.00296117
0.000715448
-0.00325816
0.000587705
-0.0034803
0.00052953
-0.00367246
0.00055475
-0.00384992
0.000599343
-0.00403125
0.000686877
-0.00422489
0.000788496
-0.00442682
0.000852086
-0.00464346
0.000935732
-0.00487464
0.00100339
-0.00511578
0.00103316
-0.00535881
0.00101687
-0.00559269
0.000943547
-0.00580357
0.000802738
-0.00597501
0.00058508
-0.00608877
0.000283578
-0.00612532
-0.000106937
-0.00606444
-0.000588485
-0.00588611
-0.00115951
-0.00556911
-0.00182998
-0.00509601
-0.00258513
-0.00445227
-0.00341402
-0.0036285
-0.00428747
-0.0026079
-0.0053112
-0.00146249
-0.00637918
-7.50431e-05
-0.00712762
-0.00829034
0.000959739
0.025383
-0.0190909
-0.0213199
0.0290777
-0.00914481
0.0322642
-0.00149241
0.0349512
0.00435597
0.037379
0.00910756
0.0398454
0.0133034
0.0417927
0.0174168
0.0415012
0.0212659
0.0372086
0.0237324
0.0286813
0.0233774
0.0178917
0.0197612
0.00807201
0.0140466
0.00186475
0.00801634
-0.000935642
0.0038404
-0.00216102
0.00194073
-0.00291058
0.00133712
-0.00339927
0.00101806
-0.00376758
0.000922866
-0.00406073
0.000892296
-0.00432405
0.000950023
-0.00457959
0.0010439
-0.00483265
0.001105
-0.00509862
0.00120156
-0.00538218
0.00128679
-0.00568132
0.00133216
-0.0059883
0.00132373
-0.00629126
0.00124638
-0.00657466
0.00108604
-0.00681991
0.000830239
-0.0070062
0.000469792
-0.00711133
-1.87727e-06
-0.00711221
-0.000587679
-0.00698618
-0.00128561
-0.00671001
-0.00210623
-0.0062647
-0.00303054
-0.00563612
-0.00404271
-0.00481629
-0.00510742
-0.00379403
-0.00633358
-0.00264816
-0.00752518
-0.0012862
-0.0084897
-0.00940391
-0.000172739
0.0294198
-0.0238513
-0.0246594
0.0336806
-0.0134056
0.0373862
-0.00519797
0.0405441
0.00119807
0.043168
0.00648359
0.045484
0.0109874
0.0478609
0.0150399
0.0500746
0.0190523
0.0507424
0.0230646
0.0479185
0.0262013
0.0405288
0.0271509
0.0293639
0.0252114
0.0171181
0.0202622
0.00725136
0.0137071
0.00151329
0.00767868
-0.00108174
0.003932
-0.00239638
0.0023325
-0.00325688
0.00178317
-0.00385047
0.00148571
-0.00431217
0.00141159
-0.00469683
0.00142847
-0.0050363
0.00144437
-0.00537105
0.00153618
-0.00571919
0.0016348
-0.00608691
0.00169976
-0.00647045
0.00170714
-0.00685924
0.00163507
-0.00723717
0.00146386
-0.00758373
0.0011767
-0.0078755
0.00076148
-0.00808756
0.000210088
-0.00819419
-0.000481134
-0.00817029
-0.0013096
-0.00799136
-0.00228527
-0.00763741
-0.00338461
-0.00709522
-0.00458503
-0.0063592
-0.00584359
-0.00542539
-0.00726752
-0.00436311
-0.0085876
-0.00312672
-0.00972621
-0.0105207
-0.00201003
0.0342761
-0.0295011
-0.0286262
0.0392643
-0.0183939
0.0435666
-0.00950014
0.0472525
-0.00248795
0.0503538
0.00338234
0.0528974
0.00844377
0.0550751
0.0128621
0.0572847
0.0168427
0.059613
0.0207363
0.0611383
0.0246761
0.0600249
0.0282642
0.0545238
0.0307125
0.04423
0.0305559
0.0307791
0.0271579
0.0173754
0.0210824
0.00732682
0.0139805
0.00167008
0.00798918
-0.00100752
0.00446066
-0.00250298
0.00298103
-0.00352131
0.0024298
-0.00424615
0.0021532
-0.00479078
0.00198886
-0.00525978
0.00200506
-0.00570824
0.00208313
-0.00616592
0.0021573
-0.00664202
0.00218311
-0.00713339
0.00212637
-0.00762757
0.00195794
-0.00810486
0.00165393
-0.00854088
0.0011974
-0.00890869
0.000577835
-0.00918044
-0.000209476
-0.00932863
-0.00116149
-0.0093283
-0.0022857
-0.00915896
-0.00355404
-0.00880849
-0.00493562
-0.0082739
-0.00637825
-0.00755756
-0.00798398
-0.00671018
-0.00943505
-0.005722
-0.0107145
-0.0115105
-0.0047322
0.0401015
-0.0362681
-0.0333346
0.0460097
-0.024302
0.0510591
-0.0145497
0.0553557
-0.00678453
0.0589807
-0.000242711
0.0620027
0.00542182
0.0644583
0.0104064
0.0664931
0.014808
0.0684775
0.0187519
0.0707158
0.0224377
0.07281
0.02617
0.07333
0.0301925
0.0702539
0.033632
0.0621441
0.0352676
0.0492366
0.0339899
0.0337264
0.0294907
0.0191015
0.022614
0.00846193
0.0151002
0.00243382
0.00900902
-0.000575992
0.00543946
-0.00232978
0.00390683
-0.00346447
0.00312339
-0.0042868
0.0028272
-0.00496535
0.0027615
-0.00559052
0.0027823
-0.00620619
0.00279869
-0.00683322
0.00275327
-0.00747361
0.00259829
-0.00811551
0.00229572
-0.00873815
0.00182001
-0.00931648
0.00115608
-0.00982319
0.000297193
-0.0102304
-0.00075434
-0.010514
-0.00200216
-0.0106527
-0.00341543
-0.0106347
-0.00495363
-0.010458
-0.00655503
-0.010129
-0.00831297
-0.00967545
-0.00988867
-0.00909577
-0.0112941
-0.0121891
-0.00841728
0.0470803
-0.0444253
-0.0389231
0.0541429
-0.0313646
0.060133
-0.0205398
0.0651848
-0.0118363
0.0694185
-0.00447649
0.0729496
0.00189065
0.0758713
0.00748478
0.0782341
0.0124451
0.08014
0.0168461
0.0818779
0.0206997
0.0838531
0.0241948
0.0861431
0.0279024
0.0878976
0.0318775
0.0873088
0.0358564
0.0823523
0.0389464
0.0719129
0.0399302
0.0566602
0.0378667
0.0391102
0.0326501
0.0228965
0.0252227
0.0110413
0.0172945
0.00410769
0.0108404
0.000733774
0.00649716
-0.00118706
0.00474789
-0.00253293
0.00410721
-0.00359164
0.00384085
-0.00451103
0.00371793
-0.0053809
0.00362304
-0.00624452
0.00346179
-0.00711437
0.0031655
-0.00798537
0.00269092
-0.00884273
0.00201338
-0.00966588
0.00112026
-0.0104314
1.11415e-05
-0.0111204
-0.00131328
-0.0117113
-0.00282448
-0.0121924
-0.00447264
-0.0125587
-0.00618866
-0.0128191
-0.00805269
-0.0129741
-0.00973361
-0.0130097
-0.0112585
-0.012316
-0.0128826
0.0554348
-0.054302
-0.0455582
0.0639341
-0.039864
0.0711023
-0.027708
0.0771001
-0.0178341
0.0820856
-0.00946202
0.0862106
-0.00223443
0.089617
0.00407839
0.0924186
0.00964342
0.0946843
0.0145803
0.0964805
0.0189034
0.0980031
0.0226721
0.0996541
0.0262514
0.101779
0.0297524
0.104153
0.0334825
0.10557
0.0375291
0.10403
0.0414709
0.0975494
0.044347
0.0852067
0.0449929
0.0678541
0.0425752
0.048106
0.0370426
0.0296282
0.0293183
0.0165388
0.0195866
0.00865637
0.0126302
0.00433377
0.00842967
0.00180312
0.00637137
2.30526e-05
0.00549778
-0.00144189
0.00508784
-0.00276619
0.00478589
-0.00403498
0.00443419
-0.00528985
0.00394561
-0.00654772
0.00327117
-0.00780893
0.0023813
-0.00906149
0.00126365
-0.0102982
-7.67353e-05
-0.0115015
-0.00162122
-0.0126592
-0.0033151
-0.0137617
-0.00508617
-0.0148217
-0.00699281
-0.0158101
-0.00874519
-0.0166963
-0.0103724
-0.0116141
-0.0173983
0.0654348
-0.0662954
-0.0534414
0.0757115
-0.0501407
0.084345
-0.0363416
0.0915259
-0.025015
0.0974495
-0.0153858
0.102311
-0.00709549
0.106287
0.000101907
0.109541
0.00638982
0.112203
0.0119174
0.11436
0.016747
0.116067
0.020965
0.117457
0.0248619
0.118817
0.0283923
0.12057
0.0317291
0.122948
0.035151
0.125494
0.0389252
0.126787
0.0430536
0.124731
0.0470486
0.117342
0.0499646
0.103689
0.050696
0.0845587
0.0484482
0.0640257
0.0401195
0.045034
0.0316218
0.0299105
0.0235531
0.0193846
0.0168971
0.0127202
0.012162
0.00856668
0.00924109
0.00574547
0.00760696
0.00352571
0.00665365
0.00153677
0.00593444
-0.000390481
0.00519813
-0.00232248
0.00431324
-0.00427858
0.00321945
-0.00627111
0.00191576
-0.0082931
0.000400453
-0.0103366
-0.00127153
-0.0123867
-0.00303646
-0.0144609
-0.00491846
-0.0165003
-0.00670616
-0.0184671
-0.00840538
-0.00981466
-0.0202669
0.0774078
-0.0808862
-0.062817
0.0898727
-0.0626056
0.100318
-0.0467871
0.10897
-0.0336665
0.116065
-0.0224811
0.121843
-0.0128739
0.126529
-0.00458351
0.130321
0.00259724
0.133398
0.00884083
0.135901
0.0142438
0.137936
0.0189303
0.139583
0.0232141
0.140914
0.0270611
0.142099
0.0305444
0.143481
0.0337689
0.145478
0.0369288
0.148228
0.0403028
0.151155
0.0441222
0.15276
0.0483589
0.150909
0.0525479
0.143564
0.0557928
0.130753
0.0529307
0.113657
0.0487171
0.0942342
0.0429762
0.0747144
0.0364168
0.0571226
0.0297536
0.0427708
0.0235927
0.0319839
0.0183937
0.0242593
0.014378
0.0187188
0.0114748
0.0145141
0.0094027
0.0110179
0.00780915
0.00783925
0.006398
0.00473809
0.00501668
0.00161238
0.0035261
-0.00158293
0.00192353
-0.00485072
0.00023135
-0.00822855
-0.00154087
-0.011605
-0.00332961
-0.0149345
-0.00507612
-0.00664233
-0.0181066
0.0917502
-0.0986572
-0.0739793
0.106901
-0.0777563
0.119577
-0.0594634
0.130047
-0.0441367
0.138599
-0.0310326
0.145522
-0.0197969
0.151091
-0.0101527
0.155554
-0.00186641
0.159132
0.00526369
0.162007
0.0113688
0.164334
0.0166027
0.166253
0.0212955
0.167849
0.0254649
0.169179
0.0292142
0.170328
0.0326198
0.171501
0.0357553
0.173068
0.0387362
0.175434
0.041756
0.178716
0.045077
0.182346
0.0489174
0.184872
0.0532675
0.184292
0.0535106
0.179609
0.0533993
0.17049
0.0520957
0.157366
0.0495401
0.141238
0.0458821
0.123411
0.0414195
0.105297
0.0365072
0.0881877
0.0314875
0.0730128
0.0266495
0.0601942
0.0222212
0.0496665
0.0183367
0.0410469
0.0150175
0.0337997
0.0122637
0.0274982
0.00982759
0.0217898
0.00763178
0.0164393
0.00558197
0.01119
0.00370815
0.00606171
0.00179895
0.000992741
-7.40162e-06
-0.00170098
-0.00394834
0.108937
-0.120314
-0.0872807
0.127377
-0.0961956
0.142791
-0.0748781
0.155502
-0.0568474
0.165856
-0.0413865
0.174203
-0.0281444
0.180877
-0.0168265
0.186181
-0.00717031
0.190383
0.00106091
0.193715
0.00803726
0.19637
0.0139475
0.198529
0.0191372
0.200329
0.0236641
0.201877
0.0276664
0.203238
0.0312588
0.204461
0.0345326
0.205637
0.0375598
0.206984
0.0404091
0.208871
0.0431893
0.211718
0.0460711
0.21568
0.0493047
0.219846
0.0493448
0.223384
0.049861
0.225253
0.050227
0.224547
0.0502454
0.220701
0.0497283
0.213563
0.0485577
0.203369
0.0467009
0.190641
0.0442149
0.176077
0.0412137
0.160453
0.0378446
0.144535
0.0342547
0.128978
0.0305751
0.114168
0.0270737
0.100428
0.0235672
0.0878593
0.0202002
0.0764258
0.0170156
0.0657915
0.0143421
0.0559954
0.0115952
0.0468174
0.00917027
0.00688466
0.038232
0.117433
-0.144218
-0.0935293
0.137768
-0.116531
0.154761
-0.0918712
0.168761
-0.0708472
0.180148
-0.0527733
0.189305
-0.0373018
0.196598
-0.0241189
0.202358
-0.0129307
0.206883
-0.00346384
0.210427
0.00449348
0.213208
0.0111662
0.215424
0.0169209
0.217234
0.0218538
0.218771
0.0261294
0.220141
0.0298889
0.221419
0.0332543
0.22265
0.0363287
0.22387
0.0391892
0.225159
0.0419007
0.22671
0.04452
0.228861
0.0471534
0.231587
0.0466187
0.235037
0.0464104
0.23905
0.0462141
0.243214
0.046082
0.24696
0.045982
0.249686
0.0458312
0.250864
0.0455231
0.250113
0.0449661
0.247236
0.0440907
0.242216
0.0428639
0.235187
0.0412841
0.226387
0.0393749
0.216058
0.037402
0.204563
0.035063
0.192258
0.0325045
0.179494
0.0297794
0.1663
0.0275358
0.153133
0.0247624
0.140068
0.0222351
0.0195662
0.127387
0.124301
-0.170038
-0.0984808
0.146255
-0.138485
0.164596
-0.110213
0.179699
-0.0859504
0.191973
-0.0650466
0.201828
-0.0471567
0.209655
-0.0319464
0.215813
-0.0190888
0.220621
-0.00827151
0.224353
0.000760819
0.227247
0.0082719
0.229515
0.0146532
0.231328
0.0200407
0.232831
0.0246268
0.234143
0.0285763
0.235365
0.0320322
0.236575
0.0351191
0.237823
0.0379405
0.239138
0.0405863
0.240538
0.04312
0.242085
0.0456059
0.24363
0.0450741
0.245413
0.0446271
0.24763
0.0439969
0.250416
0.0432961
0.253794
0.0426035
0.257659
0.0419666
0.261786
0.0413958
0.265874
0.0408774
0.269591
0.0403739
0.272613
0.0398415
0.274664
0.039233
0.275536
0.0385026
0.275086
0.037852
0.273244
0.0369054
0.270013
0.0357349
0.265465
0.0343273
0.259567
0.033434
0.252534
0.0317948
0.244439
0.03033
0.0285037
0.235501
0.131888
-0.19792
-0.104005
0.155586
-0.162184
0.175384
-0.13001
0.191681
-0.102248
0.204918
-0.0782835
0.215536
-0.0577751
0.223956
-0.0403658
0.23056
-0.0256934
0.235693
-0.0134042
0.239651
-0.00319706
0.242689
0.00523355
0.245035
0.0123072
0.246875
0.0182006
0.248365
0.0231368
0.249634
0.027307
0.250791
0.0308757
0.251924
0.0339858
0.253108
0.0367566
0.254398
0.0392959
0.255829
0.041689
0.257414
0.0440208
0.25887
0.043618
0.260278
0.0432191
0.261703
0.0425722
0.263242
0.0417563
0.265014
0.040832
0.267126
0.0398543
0.269655
0.0388663
0.272627
0.0379057
0.276007
0.0369941
0.279705
0.0361428
0.283589
0.0353491
0.287496
0.0345954
0.291269
0.0340795
0.294723
0.033451
0.297698
0.0327597
0.300062
0.0319628
0.301718
0.0317785
0.302566
0.0309468
0.302552
0.0303432
0.0294169
0.301639
0.140203
-0.228024
-0.1101
0.165783
-0.187763
0.187151
-0.151379
0.20474
-0.119836
0.219021
-0.0925647
0.23047
-0.0692239
0.239537
-0.0494333
0.246635
-0.0327918
0.252133
-0.0189017
0.256349
-0.00741338
0.259559
0.0020232
0.262007
0.00986005
0.263891
0.0163157
0.265382
0.0216459
0.266619
0.0260698
0.267719
0.0297764
0.268776
0.0329285
0.269871
0.0356619
0.271069
0.0380974
0.272425
0.0403331
0.273978
0.0424675
0.275454
0.0421425
0.276903
0.04177
0.278322
0.0411533
0.279714
0.0403638
0.281099
0.0394474
0.282511
0.0384415
0.284002
0.0373756
0.285628
0.0362799
0.287444
0.0351779
0.289495
0.0340915
0.291808
0.0330358
0.294388
0.0320155
0.29723
0.0312379
0.300288
0.030392
0.303506
0.0295427
0.306807
0.0286607
0.310163
0.0284224
0.313452
0.0276575
0.316618
0.0271778
0.0264742
0.31956
0.149272
-0.260522
-0.116774
0.176882
-0.215373
0.199947
-0.174443
0.21893
-0.13882
0.234342
-0.107976
0.246692
-0.0815742
0.256465
-0.0592066
0.264105
-0.0404316
0.270006
-0.0248029
0.274512
-0.0119201
0.277921
-0.00138513
0.28049
0.00729043
0.282437
0.014369
0.283942
0.0201411
0.285155
0.024856
0.286203
0.0287285
0.287188
0.0319434
0.288195
0.0346549
0.289293
0.036999
0.290541
0.0390856
0.291985
0.0410231
0.29337
0.0407576
0.29476
0.0403797
0.29616
0.0397528
0.297569
0.0389557
0.298978
0.038038
0.300382
0.0370376
0.301777
0.0359804
0.303165
0.0348913
0.304556
0.0337867
0.305965
0.0326825
0.307411
0.0315891
0.308917
0.0305096
0.31051
0.0296447
0.312206
0.0286959
0.314018
0.0277306
0.315951
0.0267276
0.318034
0.0263389
0.320241
0.0254498
0.322576
0.0248425
0.0240385
0.325012
0.159132
-0.295606
-0.124048
0.188934
-0.245176
0.213831
-0.199341
0.234323
-0.159311
0.250958
-0.124611
0.264285
-0.0949017
0.274826
-0.0697476
0.283057
-0.0486622
0.289402
-0.0311478
0.29423
-0.0167491
0.297862
-0.0050167
0.300574
0.0045785
0.302598
0.012345
0.304128
0.0186107
0.305327
0.0236571
0.306328
0.0277269
0.307244
0.0310283
0.308163
0.0337353
0.309162
0.0360005
0.310299
0.0379477
0.311626
0.0396962
0.312891
0.0394924
0.314163
0.0391074
0.315455
0.0384613
0.316772
0.0376384
0.318117
0.0366927
0.319488
0.0356667
0.320878
0.03459
0.32228
0.0334892
0.323684
0.0323819
0.325084
0.0312829
0.326472
0.0302008
0.327845
0.0291363
0.329207
0.0282821
0.330558
0.0273451
0.3319
0.0263882
0.333239
0.0253885
0.334596
0.0249812
0.335969
0.024077
0.337373
0.0234385
0.0226002
0.338811
0.169828
-0.333482
-0.131952
0.201999
-0.277348
0.228878
-0.226219
0.251002
-0.181435
0.268961
-0.142571
0.283348
-0.109289
0.294723
-0.0811225
0.303598
-0.0575367
0.310428
-0.0379783
0.315612
-0.0219334
0.319493
-0.00889702
0.322367
0.0017044
0.324483
0.0102287
0.32605
0.0170434
0.327242
0.0224653
0.328202
0.0267664
0.329051
0.0301803
0.329883
0.0329024
0.330781
0.0351031
0.331807
0.036921
0.333016
0.0384878
0.334159
0.0383484
0.335308
0.0379588
0.336474
0.0372948
0.337668
0.0364453
0.338893
0.0354675
0.340153
0.0344068
0.341447
0.0332956
0.342773
0.0321629
0.344127
0.031028
0.345502
0.0299075
0.346892
0.028811
0.348289
0.0277396
0.34969
0.0268806
0.351086
0.0259493
0.352469
0.0250051
0.353833
0.0240242
0.355188
0.0236263
0.35652
0.0227454
0.357832
0.0221256
0.0213094
0.359123
0.181413
-0.374377
-0.140518
0.216149
-0.312083
0.245171
-0.255242
0.269062
-0.205326
0.288457
-0.161966
0.303994
-0.124826
0.316275
-0.0934036
0.325851
-0.0671127
0.333212
-0.0453398
0.338787
-0.0275079
0.342943
-0.013053
0.345999
-0.001352
0.348223
0.00800498
0.349838
0.0154288
0.35103
0.0212732
0.351953
0.0258424
0.352736
0.0293972
0.353483
0.0321558
0.354278
0.0343077
0.355191
0.0360077
0.356279
0.0374005
0.357298
0.0373285
0.358322
0.0369352
0.359363
0.0362532
0.360433
0.0353759
0.361536
0.0343641
0.362676
0.033266
0.363856
0.0321161
0.365073
0.0309451
0.366328
0.0297738
0.367615
0.0286196
0.368933
0.0274929
0.370277
0.0263957
0.371647
0.0255106
0.373034
0.0245613
0.374434
0.0236055
0.375839
0.0226192
0.377258
0.0222071
0.378674
0.0213291
0.380089
0.0207105
0.0199033
0.381495
0.19395
-0.418539
-0.149788
0.23146
-0.349593
0.262805
-0.286587
0.288611
-0.231131
0.309563
-0.182919
0.326348
-0.141611
0.339615
-0.10667
0.349955
-0.0774528
0.357896
-0.0532813
0.363899
-0.0335108
0.368359
-0.0175134
0.371619
-0.00461214
0.373966
0.00565863
0.375638
0.0137559
0.376838
0.0200738
0.377729
0.024951
0.378449
0.0286773
0.379109
0.0314955
0.379801
0.0336158
0.380598
0.03521
0.381562
0.0364371
0.382454
0.0364361
0.383349
0.0360405
0.384262
0.0353394
0.385206
0.0344317
0.386188
0.033382
0.387212
0.0322415
0.388281
0.0310474
0.389394
0.0298319
0.39055
0.0286173
0.391748
0.0274218
0.392984
0.0262567
0.394256
0.0251242
0.395564
0.0242023
0.396902
0.023223
0.398266
0.0222419
0.399649
0.0212357
0.401063
0.0207932
0.402491
0.0199013
0.403936
0.0192661
0.0184502
0.405389
0.207507
-0.466238
-0.159807
0.248023
-0.390109
0.281885
-0.320449
0.309768
-0.259013
0.33241
-0.205562
0.350552
-0.159752
0.36489
-0.121008
0.376063
-0.0886258
0.384638
-0.0618566
0.391111
-0.0399834
0.395907
-0.0223094
0.399394
-0.0080989
0.401879
0.00317322
0.403621
0.0120139
0.404834
0.0188605
0.405697
0.0240886
0.406354
0.0280194
0.406927
0.0309223
0.407514
0.0330294
0.408193
0.034531
0.409028
0.0356009
0.409789
0.0356754
0.410551
0.035279
0.411332
0.0345579
0.412147
0.0336167
0.413005
0.0325242
0.413911
0.0313354
0.414868
0.0300898
0.415878
0.0288219
0.41694
0.0275555
0.418052
0.0263098
0.419212
0.0250968
0.420416
0.0239197
0.421667
0.0229516
0.422957
0.0219327
0.424282
0.0209169
0.425637
0.0198811
0.427031
0.019399
0.428449
0.0184835
0.429892
0.0178223
0.0169886
0.431354
0.222158
-0.517772
-0.170625
0.265934
-0.433885
0.302526
-0.357041
0.332663
-0.28915
0.357142
-0.230041
0.376759
-0.179369
0.392265
-0.136514
0.404347
-0.100708
0.413615
-0.0711252
0.420603
-0.0469714
0.425769
-0.0274753
0.429508
-0.0118375
0.43215
0.000531149
0.433972
0.0101911
0.435207
0.0176262
0.436043
0.0232519
0.436639
0.0274233
0.437123
0.0304381
0.437601
0.0325519
0.438157
0.0339749
0.438861
0.0348969
0.439484
0.0350515
0.440107
0.0346558
0.440751
0.0339137
0.441432
0.0329358
0.44216
0.0317955
0.442944
0.0305517
0.443786
0.029247
0.44469
0.0279183
0.445654
0.0265907
0.446678
0.0252852
0.447761
0.0240144
0.448898
0.0227825
0.450091
0.0217581
0.451334
0.0206896
0.452621
0.0196291
0.453948
0.0185544
0.455323
0.0180233
0.456731
0.0170756
0.458174
0.01638
0.0155207
0.459641
0.237987
-0.573463
-0.182296
0.2853
-0.481198
0.324856
-0.396598
0.357443
-0.321736
0.383919
-0.256516
0.405141
-0.200591
0.42192
-0.153293
0.434994
-0.113782
0.445022
-0.0811526
0.452576
-0.0545252
0.458149
-0.0330492
0.462167
-0.0158555
0.464986
-0.002287
0.466902
0.00827473
0.468164
0.0163637
0.468978
0.0224382
0.469512
0.0268894
0.469904
0.0300457
0.470268
0.0321881
0.470695
0.0335479
0.471259
0.034332
0.471739
0.0345719
0.472216
0.0341788
0.472714
0.0334147
0.473254
0.0323965
0.473846
0.0312032
0.4745
0.0298976
0.47522
0.028526
0.476011
0.0271275
0.476872
0.0257294
0.477803
0.0243541
0.478802
0.0230155
0.479866
0.0217185
0.480996
0.0206275
0.482186
0.0194992
0.483431
0.0183842
0.484725
0.0172609
0.486077
0.0166713
0.48747
0.0156825
0.488906
0.014944
0.0140513
0.490375
0.255084
-0.633667
-0.194881
0.306237
-0.532351
0.349015
-0.439375
0.384265
-0.356986
0.412914
-0.285166
0.435886
-0.223564
0.454054
-0.171461
0.468214
-0.127941
0.479073
-0.0920113
0.487248
-0.0627009
0.493272
-0.039073
0.4976
-0.0201838
0.500616
-0.00530255
0.502639
0.00625117
0.503937
0.0150654
0.504731
0.0216446
0.505202
0.0264189
0.505498
0.0297494
0.505741
0.0319446
0.506031
0.0332582
0.506447
0.0339157
0.506772
0.0342465
0.507093
0.0338582
0.507436
0.033071
0.507823
0.0320092
0.508269
0.0307573
0.508783
0.0293831
0.509373
0.0279363
0.510042
0.026459
0.51079
0.0249809
0.511618
0.0235258
0.512525
0.022109
0.513507
0.0207367
0.514565
0.019569
0.515694
0.0183708
0.516886
0.0171916
0.518137
0.0160102
0.519455
0.0153528
0.520823
0.0143143
0.522243
0.0135246
0.0125907
0.523703
0.273549
-0.698771
-0.208444
0.328875
-0.587677
0.375155
-0.485655
0.413303
-0.395134
0.44432
-0.316183
0.469201
-0.248445
0.488887
-0.191147
0.504234
-0.143288
0.516004
-0.103782
0.524864
-0.0715604
0.531384
-0.0455936
0.536057
-0.0248564
0.539294
-0.00853931
0.54144
0.00410521
0.542782
0.0137231
0.543558
0.0208686
0.543963
0.0260137
0.544157
0.0295549
0.544272
0.0318298
0.544413
0.0331167
0.544668
0.0336605
0.544826
0.0340883
0.544977
0.0337073
0.545151
0.0328964
0.545373
0.0317875
0.545658
0.0304716
0.54602
0.0290216
0.546465
0.0274913
0.546998
0.0259261
0.54762
0.0243582
0.548333
0.0228132
0.549134
0.0213081
0.55002
0.0198503
0.550994
0.0185955
0.552047
0.0173175
0.553174
0.0160643
0.554369
0.0148157
0.555641
0.0140811
0.55697
0.0129844
0.55836
0.0121353
0.0111528
0.559798
0.293488
-0.769202
-0.223057
0.353353
-0.647542
0.403444
-0.535746
0.444749
-0.43644
0.478348
-0.349782
0.505314
-0.27541
0.526658
-0.212491
0.543306
-0.159936
0.556077
-0.116554
0.56569
-0.0811729
0.57276
-0.0526633
0.577815
-0.0299114
0.581299
-0.0120236
0.583584
0.00182009
0.584979
0.0123281
0.585739
0.0201079
0.586076
0.0256769
0.586161
0.0294695
0.586136
0.0318548
0.586116
0.0331371
0.586194
0.0335823
0.586168
0.034114
0.586132
0.0337434
0.58612
0.0329084
0.586158
0.0317491
0.586265
0.0303639
0.586456
0.0288309
0.586738
0.0272089
0.587118
0.0255466
0.587597
0.023879
0.588176
0.022234
0.588854
0.0206303
0.589627
0.0190766
0.590498
0.0177245
0.591459
0.0163566
0.592503
0.0150198
0.593624
0.0136949
0.594832
0.0128737
0.596105
0.0117106
0.597447
0.0107939
0.00975548
0.598844
0.31502
-0.845427
-0.238795
0.379824
-0.712346
0.434066
-0.589988
0.478814
-0.481187
0.51523
-0.386198
0.544473
-0.304653
0.567633
-0.235652
0.585707
-0.17801
0.59958
-0.130426
0.610022
-0.0916153
0.617699
-0.06034
0.623179
-0.0353913
0.62694
-0.0157849
0.629383
-0.000622737
0.63084
0.0108706
0.631587
0.0193605
0.631852
0.0254127
0.631818
0.0295026
0.63164
0.032033
0.631441
0.0333365
0.631321
0.0337016
0.631091
0.0343446
0.630846
0.0339884
0.630624
0.0331295
0.630457
0.0319171
0.630363
0.0304572
0.63036
0.0288344
0.630456
0.0271124
0.630659
0.0253437
0.630972
0.0235666
0.631394
0.0218114
0.631926
0.0200986
0.632564
0.0184387
0.63331
0.0169788
0.634155
0.015511
0.635094
0.014081
0.636119
0.0126705
0.637239
0.0117532
0.638434
0.0105152
0.639705
0.00952287
0.00842107
0.64104
0.338272
-0.927959
-0.25574
0.408456
-0.78253
0.467223
-0.648755
0.515726
-0.52969
0.55522
-0.425693
0.586954
-0.336387
0.612105
-0.260803
0.631744
-0.197649
0.646827
-0.145509
0.658185
-0.102973
0.666534
-0.0686888
0.672486
-0.0413437
0.676558
-0.019856
0.679179
-0.00324404
0.680709
0.00934037
0.681445
0.0186244
0.681631
0.0252263
0.681468
0.0296655
0.68112
0.032381
0.680721
0.0337359
0.68038
0.034043
0.679919
0.0348057
0.679438
0.0344688
0.678981
0.0335868
0.678579
0.0323189
0.678257
0.0307796
0.678031
0.0290602
0.677913
0.0272299
0.677911
0.0253458
0.678028
0.0234494
0.678266
0.0215738
0.678623
0.0197416
0.679097
0.017965
0.679689
0.0163869
0.680391
0.014809
0.681196
0.013276
0.682095
0.0117707
0.683101
0.0107477
0.68419
0.00942649
0.685363
0.00835009
0.00717748
0.686606
0.363382
-1.01736
-0.27398
0.439431
-0.858578
0.503135
-0.71246
0.555739
-0.582294
0.598599
-0.468553
0.633061