/*--------------------------------*- C++ -*----------------------------------*\
| =========                 |                                                 |
| \\      /  F ield         | OpenFOAM: The Open Source CFD Toolbox           |
|  \\    /   O peration     | Version:  2312                                  |
|   \\  /    A nd           | Website:  www.openfoam.com                      |
|    \\/     M anipulation  |                                                 |
\*---------------------------------------------------------------------------*/
FoamFile
{
    version     2.0;
    format      ascii;
    arch        "LSB;label=32;scalar=64";
    class       volScalarField;
    location    "650";
    object      turbulenceProperties:k;
}
// * * * * * * * * * * * * * * * * * * * * * * * * * * * * * * * * * * * * * //

dimensions      [0 2 -2 0 0 0 0];

internalField   nonuniform List<scalar> 
11040
(
0.404234
0.440278
0.0690044
0.0468529
0.274857
0.280489
0.265321
0.241432
0.217036
0.201452
0.187243
0.174862
0.164798
0.15731
0.151342
0.148713
0.149103
0.152493
0.15852
0.167164
0.178764
0.192948
0.20965
0.229065
0.251135
0.276791
0.305292
0.33228
0.355126
0.370881
0.376507
0.369874
0.352184
0.329524
0.308615
0.228966
0.117903
0.0681627
0.0287855
0.128677
0.22995
0.0336685
0.0700026
0.235559
0.424924
0.805802
0.264805
0.0821933
0.0273832
0.00640089
0.00682867
0.0146965
0.0191583
0.0220725
0.0242172
0.0256093
0.0270411
0.0288928
0.0310034
0.0331188
0.0352606
0.0374881
0.039894
0.0418035
0.0424945
0.0417429
0.040381
0.0389048
0.0362939
0.0326737
0.0287366
0.0258825
0.0253868
0.0260386
0.029397
0.0360321
0.0460327
0.0604371
0.0780705
0.121436
0.139973
0.536548
0.0207179
0.0185686
0.0416145
0.180389
0.946603
1.2591
0.64419
0.243626
0.113894
0.0675418
0.0374378
0.0207253
0.0094298
0.00217749
0.00450093
0.00821117
0.0108226
0.0127871
0.0142253
0.0152071
0.0158446
0.0161416
0.015718
0.0144161
0.0124864
0.0102757
0.00789396
0.00507641
0.00166784
0.00466764
0.0123945
0.023385
0.0383363
0.0574945
0.0814737
0.111685
0.149895
0.191935
0.281444
0.364296
0.520717
0.0148745
0.0127894
0.010479
0.0168095
0.230185
1.10203
1.6275
1.07944
0.449765
0.241117
0.143041
0.0956578
0.0671681
0.0475791
0.0352513
0.0266507
0.0213485
0.0179844
0.0161692
0.015602
0.0158225
0.016802
0.0186567
0.0212156
0.0238277
0.0259553
0.0271635
0.0271827
0.0262242
0.026035
0.0307217
0.0439181
0.0662754
0.0980005
0.139591
0.193175
0.261689
0.338675
0.475216
0.645767
0.577583
0.0110868
0.0100029
0.0106892
0.0052397
0.00739101
0.206576
1.0538
1.8452
1.5686
0.780854
0.414941
0.249978
0.173132
0.12542
0.0974358
0.0779468
0.0659711
0.0580846
0.0534111
0.051168
0.0503721
0.0506868
0.0521802
0.0547712
0.0576203
0.0600407
0.0614161
0.0612486
0.0595045
0.0575162
0.0594808
0.0724026
0.101317
0.147047
0.209411
0.290499
0.394109
0.514369
0.688412
0.955279
0.779642
0.00800359
0.00734617
0.00717205
0.00793293
0.00236106
0.00185706
0.14116
0.849835
1.8846
2.01134
1.29096
0.659358
0.40952
0.276263
0.205003
0.159746
0.132808
0.1155
0.104789
0.0991215
0.0962629
0.0953658
0.0962286
0.0987982
0.102009
0.10495
0.106642
0.1061
0.102748
0.0974429
0.094564
0.10434
0.13798
0.198573
0.284755
0.39754
0.540751
0.710101
0.916056
1.26246
1.08345
0.00578388
0.00552729
0.00518965
0.00555008
0.00571404
0.0010319
5.53859e-05
0.0674116
0.575341
1.65685
2.27861
1.89133
1.09422
0.625701
0.421439
0.311132
0.244502
0.203206
0.177823
0.16411
0.156697
0.153597
0.153666
0.156553
0.160657
0.164645
0.167008
0.166057
0.160359
0.14993
0.138578
0.138843
0.17091
0.244201
0.355397
0.502317
0.687149
0.90601
1.14444
1.53953
1.42514
0.00422198
0.00412832
0.00406494
0.00390694
0.00424626
0.00443036
0.000165808
3.15124e-06
0.0218685
0.313773
1.20776
2.24159
2.39098
1.72607
0.995792
0.628349
0.451373
0.354787
0.294627
0.259508
0.239821
0.231343
0.229254
0.232298
0.237767
0.243563
0.247367
0.246483
0.238094
0.220898
0.196812
0.177665
0.193595
0.270748
0.404582
0.585193
0.810036
1.07279
1.34461
1.74697
1.73296
0.00311915
0.0030752
0.00308117
0.00305493
0.00293627
0.00333675
0.00316615
0.000372654
0.000417519
0.00112903
0.122033
0.70348
1.80151
2.57568
2.37739
1.61602
0.970831
0.656633
0.499475
0.413408
0.36375
0.340389
0.331669
0.333153
0.339761
0.347565
0.353209
0.352978
0.342558
0.318263
0.278693
0.230124
0.203794
0.259973
0.407452
0.617726
0.876991
1.17315
1.47141
1.84605
1.92878
0.00231708
0.00229672
0.00231348
0.00233839
0.00231811
0.00224811
0.00254403
0.00225479
0.000664646
0.000112162
7.59558e-06
0.0317081
0.31021
1.13987
2.255
2.75416
2.35604
1.58761
1.00212
0.713544
0.573939
0.507195
0.477295
0.469806
0.474728
0.485201
0.494895
0.497079
0.485481
0.454795
0.400424
0.320278
0.226876
0.196882
0.33131
0.564736
0.850436
1.16699
1.47703
1.80482
1.94665
0.00172872
0.0017193
0.00173666
0.00176389
0.00178884
0.00177158
0.00174896
0.00187856
0.0018394
0.000841612
6.7645e-05
0.000473726
0.000688914
0.0868627
0.530241
1.50664
2.55019
2.86645
2.39017
1.64658
1.09237
0.825966
0.716344
0.672655
0.660492
0.665761
0.677383
0.684895
0.67872
0.649412
0.587875
0.486739
0.343031
0.163942
0.135878
0.392622
0.698703
1.02289
1.3264
1.59688
1.75228
0.00129239
0.00128862
0.00130114
0.00132598
0.00135192
0.00137271
0.00136779
0.0013548
0.00140526
0.00144225
0.000999586
2.50354e-05
2.78207e-05
0.0015455
0.0122217
0.16331
0.722334
1.75352
2.72824
2.97727
2.51118
1.83722
1.33683
1.07103
0.960425
0.929493
0.929197
0.934594
0.932163
0.909791
0.856264
0.761504
0.61953
0.431524
0.224315
0.219701
0.481732
0.783567
1.05506
1.25908
1.37798
0.000966733
0.000965987
0.000974426
0.00099348
0.00101714
0.00103965
0.00105761
0.00106173
0.00105458
0.00106809
0.0011294
0.000965656
0.000193594
2.06391e-05
0.000181282
0.00323297
0.0243347
0.221924
0.829789
1.86138
2.82028
3.12675
2.83145
2.32522
1.86206
1.54381
1.37103
1.30158
1.28368
1.27241
1.23989
1.17205
1.06519
0.927231
0.782858
0.682885
0.692684
0.814012
0.967876
1.07215
1.08633
0.000722554
0.000723477
0.000728938
0.000742702
0.000761925
0.000782372
0.000801465
0.000817656
0.000826388
0.000824875
0.000826308
0.000874416
0.000836127
0.00044566
1.95902e-06
2.36873e-06
0.000430755
0.00489542
0.0326688
0.23938
0.832636
1.78964
2.71802
3.24497
3.30132
3.06777
2.7311
2.39927
2.1266
1.93143
1.80655
1.72785
1.6671
1.60668
1.54778
1.50257
1.48859
1.51225
1.56328
1.60086
1.51361
0.000538877
0.000540622
0.00054413
0.000553909
0.000568651
0.000585536
0.000602746
0.000619086
0.000633572
0.000644209
0.000646902
0.000648926
0.000673064
0.00067575
0.000583503
0.000141181
1.76484e-05
1.84054e-07
0.000751466
2.08464e-05
0.0300756
0.194735
0.621774
1.34118
2.2051
2.97664
3.48745
3.71174
3.72051
3.59304
3.38488
3.1383
2.89365
2.68813
2.54834
2.48607
2.49818
2.55708
2.63258
2.7082
2.64304
0.000400568
0.00040254
0.000404801
0.000411682
0.000422679
0.000435859
0.000449989
0.000464402
0.000478361
0.000491097
0.000501711
0.000507495
0.000511871
0.000518079
0.000543275
0.000504061
0.000380693
1.61245e-05
5.3238e-06
6.35668e-07
0.000801852
0.00323965
0.010852
0.0804508
0.284419
0.686
1.28928
2.02446
2.77849
3.44947
3.97614
4.33612
4.53478
4.5958
4.55709
4.46007
4.3452
4.23915
4.1675
4.16595
4.09452
0.000297302
0.000299134
0.000300648
0.000305516
0.000313613
0.000323563
0.000334584
0.000346243
0.000358132
0.000369726
0.000380556
0.00039011
0.000397619
0.000402185
0.000408527
0.000418981
0.000433148
0.000374808
0.000215167
2.97936e-06
2.85131e-06
2.39903e-08
0.000257139
0.00154671
2.51111e-07
0.00976422
0.0576811
0.182392
0.425778
0.812459
1.34027
1.97998
2.68403
3.40067
4.08149
4.68306
5.18031
5.56161
5.83869
6.06311
6.12794
0.000222802
0.000224418
0.000225564
0.000229195
0.000235299
0.000242891
0.000251438
0.000260678
0.000270318
0.000280052
0.000289543
0.000298531
0.000306785
0.000313967
0.000319315
0.000324244
0.000330537
0.000344116
0.000344797
0.000293804
0.00015146
2.28462e-06
2.54957e-06
1.33649e-07
3.27285e-09
0.000220646
0.00127708
0.00206992
0.00116983
0.0106479
0.0463353
0.130788
0.288298
0.540886
0.902662
1.37376
1.94253
2.59195
3.29023
4.02348
4.68237
0.000170103
0.000171522
0.000172455
0.000175272
0.000179989
0.00018589
0.000192612
0.000200005
0.000207867
0.000215963
0.000224068
0.000231968
0.000239487
0.000246523
0.000252833
0.000258329
0.000262463
0.0002677
0.000274473
0.000283748
0.000280432
0.000233442
0.000153512
1.286e-05
3.68568e-06
9.28556e-07
4.70369e-08
0
1.7383e-05
0.000252541
0.00105305
0.00144411
0.00137047
0.000669741
0.0091548
0.034839
0.0911722
0.192827
0.353153
0.586561
0.895104
0.000132257
0.000133456
0.000134228
0.000136451
0.000140147
0.00014478
0.000150097
0.000155996
0.00016235
0.000168989
0.000175762
0.00018253
0.000189153
0.000195505
0.000201478
0.000207009
0.000211935
0.000216189
0.000219921
0.000224781
0.000231563
0.000236952
0.000235717
0.000207027
0.00015558
9.20554e-05
5.09617e-06
2.24721e-06
7.69467e-07
3.88484e-07
7.88793e-09
0
0
6.97864e-06
0.000203365
0.000789849
0.00120675
0.000922801
9.31945e-05
0.00125008
0.00575968
0.000104225
0.000105218
0.000105866
0.000107645
0.000110574
0.00011425
0.00011849
0.00012322
0.000128348
0.000133751
0.000139321
0.000144969
0.000150599
0.000156113
0.000161427
0.000166462
0.000171174
0.000175493
0.000179341
0.000182724
0.000185998
0.000190316
0.000195114
0.000201413
0.000200874
0.000194061
0.000170232
0.00013236
8.87899e-05
4.72029e-05
1.03973e-06
1.20467e-06
6.07566e-07
3.92673e-07
2.05714e-07
2.1278e-08
0
0
2.70427e-06
1.67673e-05
9.028e-05
8.30248e-05
8.38397e-05
8.43929e-05
8.58369e-05
8.8181e-05
9.11233e-05
9.45289e-05
9.83408e-05
0.00010249
0.000106884
0.000111441
0.0001161
0.00012079
0.000125441
0.00012999
0.000134376
0.00013855
0.000142471
0.000146111
0.000149446
0.000152353
0.000154991
0.000157494
0.000160655
0.000164435
0.000167993
0.000172023
0.000172032
0.000166708
0.000157811
0.000139357
0.000113995
8.66833e-05
5.80086e-05
3.20737e-05
3.56697e-06
1.24951e-06
4.6251e-07
3.50803e-07
2.52024e-07
1.60473e-07
6.67047e-05
6.73709e-05
6.78488e-05
6.90311e-05
7.09213e-05
7.32932e-05
7.60442e-05
7.91296e-05
8.24935e-05
8.60674e-05
8.97876e-05
9.36082e-05
9.74785e-05
0.000101344
0.000105154
0.000108866
0.000112437
0.000115832
0.00011902
0.000121994
0.000124679
0.000127052
0.000129149
0.000130955
0.000132708
0.000134483
0.000136679
0.000139239
0.000141758
0.000143701
0.000145742
0.000145399
0.000142497
0.00013705
0.000129858
0.000118513
0.000103755
8.65272e-05
6.82233e-05
5.09898e-05
3.4322e-05
5.39674e-05
5.4511e-05
5.4928e-05
5.59037e-05
5.74384e-05
5.9362e-05
6.15959e-05
6.41032e-05
6.68381e-05
6.97485e-05
7.27834e-05
7.59062e-05
7.90804e-05
8.22624e-05
8.54124e-05
8.84964e-05
9.14811e-05
9.43366e-05
9.70353e-05
9.95666e-05
0.000101868
0.000103925
0.000105771
0.000107349
0.00010868
0.00010981
0.00011078
0.000111687
0.000112636
0.000113605
0.000114735
0.000115965
0.000117116
0.00011803
0.000118585
0.000119112
0.000118845
0.000117502
0.000115074
0.00011136
0.000107629
4.39113e-05
4.43551e-05
4.47218e-05
4.55321e-05
4.67851e-05
4.83529e-05
5.01748e-05
5.2219e-05
5.44479e-05
5.68204e-05
5.92956e-05
6.18442e-05
6.44386e-05
6.70432e-05
6.96264e-05
7.21604e-05
7.46186e-05
7.69757e-05
7.92084e-05
8.13058e-05
8.32125e-05
8.49179e-05
8.64472e-05
8.77612e-05
8.88692e-05
8.97921e-05
9.05372e-05
9.11118e-05
9.15363e-05
9.18362e-05
9.2029e-05
9.21569e-05
9.22439e-05
9.23141e-05
9.23611e-05
9.24231e-05
9.24827e-05
9.25248e-05
9.25581e-05
9.23593e-05
9.24635e-05
3.58968e-05
3.62597e-05
3.65841e-05
3.7261e-05
3.82895e-05
3.95732e-05
4.1065e-05
4.27366e-05
4.45576e-05
4.64941e-05
4.8514e-05
5.05927e-05
5.27079e-05
5.48312e-05
5.69372e-05
5.90028e-05
6.1007e-05
6.29279e-05
6.47463e-05
6.64518e-05
6.79978e-05
6.93767e-05
7.06102e-05
7.16626e-05
7.25415e-05
7.32645e-05
7.38416e-05
7.42783e-05
7.45805e-05
7.47572e-05
7.48153e-05
7.47645e-05
7.46111e-05
7.43704e-05
7.40579e-05
7.36802e-05
7.32412e-05
7.27603e-05
7.22935e-05
7.17193e-05
7.1453e-05
2.94582e-05
2.97566e-05
3.00447e-05
3.06135e-05
3.14619e-05
3.25178e-05
3.37436e-05
3.51147e-05
3.66055e-05
3.81883e-05
3.98374e-05
4.15321e-05
4.32537e-05
4.49803e-05
4.66905e-05
4.83652e-05
4.99872e-05
5.15386e-05
5.30031e-05
5.43718e-05
5.56056e-05
5.67008e-05
5.76775e-05
5.8504e-05
5.91852e-05
5.97358e-05
6.01645e-05
6.04769e-05
6.068e-05
6.07817e-05
6.07893e-05
6.07108e-05
6.055e-05
6.0316e-05
6.00192e-05
5.96637e-05
5.92478e-05
5.87786e-05
5.83027e-05
5.77027e-05
5.74192e-05
2.42514e-05
2.44979e-05
2.47552e-05
2.52361e-05
2.59397e-05
2.68123e-05
2.78231e-05
2.8951e-05
3.01741e-05
3.14699e-05
3.28173e-05
3.41987e-05
3.5599e-05
3.70007e-05
3.83854e-05
3.97379e-05
4.10438e-05
4.22886e-05
4.34585e-05
4.45463e-05
4.55198e-05
4.63785e-05
4.7141e-05
4.77803e-05
4.82997e-05
4.87114e-05
4.90231e-05
4.92398e-05
4.93676e-05
4.94131e-05
4.93834e-05
4.92857e-05
4.91237e-05
4.89058e-05
4.86408e-05
4.83324e-05
4.79795e-05
4.75867e-05
4.71947e-05
4.66935e-05
4.6499e-05
2.00166e-05
2.02221e-05
2.04531e-05
2.08624e-05
2.14492e-05
2.21737e-05
2.30104e-05
2.39409e-05
2.49466e-05
2.60091e-05
2.71108e-05
2.82372e-05
2.93757e-05
3.05122e-05
3.1631e-05
3.27199e-05
3.37671e-05
3.47608e-05
3.56897e-05
3.65481e-05
3.73095e-05
3.79758e-05
3.85646e-05
3.90529e-05
3.94433e-05
3.97462e-05
3.99679e-05
4.0113e-05
4.01864e-05
4.01942e-05
4.01422e-05
4.00365e-05
3.98803e-05
3.96807e-05
3.94449e-05
3.91764e-05
3.8874e-05
3.85412e-05
3.8213e-05
3.77926e-05
3.76524e-05
1.65558e-05
1.67288e-05
1.69378e-05
1.72888e-05
1.77812e-05
1.83857e-05
1.9081e-05
1.98511e-05
2.068e-05
2.15527e-05
2.24546e-05
2.33736e-05
2.42992e-05
2.52196e-05
2.61222e-05
2.69969e-05
2.78341e-05
2.86242e-05
2.9358e-05
3.00312e-05
3.06224e-05
3.1135e-05
3.15853e-05
3.19542e-05
3.22435e-05
3.24624e-05
3.26164e-05
3.27092e-05
3.27451e-05
3.27291e-05
3.26662e-05
3.25614e-05
3.24175e-05
3.224e-05
3.20348e-05
3.18048e-05
3.15487e-05
3.12693e-05
3.09956e-05
3.06446e-05
3.05444e-05
1.37157e-05
1.38638e-05
1.40541e-05
1.43573e-05
1.47735e-05
1.52805e-05
1.58609e-05
1.65003e-05
1.71854e-05
1.79037e-05
1.86432e-05
1.93936e-05
2.01462e-05
2.08913e-05
2.16191e-05
2.23206e-05
2.29884e-05
2.36148e-05
2.41924e-05
2.47178e-05
2.51741e-05
2.55654e-05
2.5907e-05
2.61828e-05
2.63943e-05
2.65495e-05
2.66532e-05
2.67085e-05
2.6719e-05
2.6689e-05
2.66222e-05
2.6523e-05
2.63934e-05
2.6238e-05
2.60613e-05
2.58658e-05
2.56505e-05
2.54171e-05
2.51899e-05
2.48987e-05
2.48272e-05
1.13769e-05
1.15059e-05
1.16806e-05
1.19449e-05
1.22991e-05
1.27269e-05
1.32135e-05
1.37464e-05
1.43144e-05
1.4907e-05
1.55144e-05
1.61279e-05
1.67401e-05
1.73434e-05
1.79299e-05
1.84919e-05
1.90238e-05
1.95193e-05
1.99727e-05
2.03815e-05
2.07321e-05
2.10293e-05
2.1287e-05
2.14916e-05
2.16447e-05
2.17527e-05
2.182e-05
2.18492e-05
2.18432e-05
2.18054e-05
2.17391e-05
2.16476e-05
2.15328e-05
2.1398e-05
2.12472e-05
2.10819e-05
2.09017e-05
2.07076e-05
2.05191e-05
2.02786e-05
2.02255e-05
9.44527e-06
9.56021e-06
9.72158e-06
9.95398e-06
1.02577e-05
1.06208e-05
1.10309e-05
1.1477e-05
1.19496e-05
1.24399e-05
1.29399e-05
1.34423e-05
1.39408e-05
1.44295e-05
1.49021e-05
1.53521e-05
1.57751e-05
1.61663e-05
1.65212e-05
1.68381e-05
1.71063e-05
1.73305e-05
1.75233e-05
1.76734e-05
1.77822e-05
1.78552e-05
1.78962e-05
1.79072e-05
1.78908e-05
1.78495e-05
1.77862e-05
1.77035e-05
1.76028e-05
1.74869e-05
1.73587e-05
1.72196e-05
1.70689e-05
1.69078e-05
1.67512e-05
1.65535e-05
1.65112e-05
7.84603e-06
7.95057e-06
8.10076e-06
8.30681e-06
8.56925e-06
8.87966e-06
9.22724e-06
9.60249e-06
9.99738e-06
1.04046e-05
1.08174e-05
1.12297e-05
1.16364e-05
1.20329e-05
1.24138e-05
1.27742e-05
1.31105e-05
1.34192e-05
1.36968e-05
1.39421e-05
1.4147e-05
1.43155e-05
1.44594e-05
1.4569e-05
1.46456e-05
1.46938e-05
1.47168e-05
1.47163e-05
1.46944e-05
1.46532e-05
1.45949e-05
1.45216e-05
1.44345e-05
1.43355e-05
1.42271e-05
1.41103e-05
1.39845e-05
1.38507e-05
1.37202e-05
1.35586e-05
1.35198e-05
6.51943e-06
6.61651e-06
6.75694e-06
6.94125e-06
7.17006e-06
7.43731e-06
7.7338e-06
8.05127e-06
8.38286e-06
8.72251e-06
9.06453e-06
9.40398e-06
9.73653e-06
1.00586e-05
1.03659e-05
1.06546e-05
1.09219e-05
1.11652e-05
1.13817e-05
1.15708e-05
1.17262e-05
1.18517e-05
1.19577e-05
1.20362e-05
1.20881e-05
1.21177e-05
1.21275e-05
1.21191e-05
1.2094e-05
1.20538e-05
1.20005e-05
1.19357e-05
1.18603e-05
1.17759e-05
1.16842e-05
1.15861e-05
1.14812e-05
1.13702e-05
1.12612e-05
1.11299e-05
1.10921e-05
5.4173e-06
5.50905e-06
5.64103e-06
5.80722e-06
6.00848e-06
6.24037e-06
6.49507e-06
6.76533e-06
7.04537e-06
7.33006e-06
7.61471e-06
7.89521e-06
8.16808e-06
8.43037e-06
8.67895e-06
8.91082e-06
9.12375e-06
9.31585e-06
9.48535e-06
9.63181e-06
9.7504e-06
9.84444e-06
9.92309e-06
9.97977e-06
1.00153e-05
1.00331e-05
1.00353e-05
1.00233e-05
9.99812e-06
9.9613e-06
9.91417e-06
9.85803e-06
9.79361e-06
9.7221e-06
9.64488e-06
9.56261e-06
9.47489e-06
9.38255e-06
9.29083e-06
9.18491e-06
9.14235e-06
4.50072e-06
4.5887e-06
4.71309e-06
4.86418e-06
5.04274e-06
5.24559e-06
5.466e-06
5.69766e-06
5.93564e-06
6.17561e-06
6.4137e-06
6.64649e-06
6.87117e-06
7.08536e-06
7.28671e-06
7.47289e-06
7.6422e-06
7.79328e-06
7.92486e-06
8.03683e-06
8.12559e-06
8.19396e-06
8.25013e-06
8.28868e-06
8.3103e-06
8.31799e-06
8.31363e-06
8.2982e-06
8.27267e-06
8.23819e-06
8.19583e-06
8.1466e-06
8.09107e-06
8.03013e-06
7.96483e-06
7.89561e-06
7.8222e-06
7.74539e-06
7.66824e-06
7.58296e-06
7.53846e-06
3.738e-06
3.82324e-06
3.94083e-06
4.07916e-06
4.23898e-06
4.41785e-06
4.60996e-06
4.80991e-06
5.01343e-06
5.21691e-06
5.41711e-06
5.61134e-06
5.7973e-06
5.97325e-06
6.13747e-06
6.28831e-06
6.42447e-06
6.54515e-06
6.64951e-06
6.73767e-06
6.80687e-06
6.85928e-06
6.90205e-06
6.93061e-06
6.94552e-06
6.94926e-06
6.94334e-06
6.92855e-06
6.90566e-06
6.87558e-06
6.83918e-06
6.79722e-06
6.75021e-06
6.69879e-06
6.64383e-06
6.58566e-06
6.52403e-06
6.45986e-06
6.394e-06
6.32719e-06
6.27257e-06
3.10338e-06
3.18639e-06
3.29768e-06
3.42528e-06
3.56954e-06
3.72844e-06
3.89701e-06
4.07059e-06
4.24562e-06
4.41911e-06
4.58835e-06
4.75112e-06
4.9055e-06
5.05005e-06
5.18351e-06
5.30465e-06
5.41245e-06
5.50645e-06
5.58618e-06
5.65189e-06
5.70169e-06
5.7376e-06
5.76589e-06
5.78283e-06
5.78897e-06
5.78645e-06
5.77658e-06
5.76001e-06
5.73735e-06
5.70932e-06
5.6766e-06
5.63976e-06
5.59917e-06
5.55529e-06
5.50873e-06
5.45966e-06
5.40796e-06
5.35442e-06
5.29886e-06
5.24496e-06
5.19249e-06
2.57538e-06
2.65645e-06
2.7619e-06
2.88017e-06
3.01126e-06
3.15335e-06
3.30207e-06
3.45351e-06
3.60471e-06
3.7533e-06
3.89719e-06
4.03464e-06
4.16421e-06
4.28499e-06
4.39628e-06
4.49717e-06
4.58703e-06
4.66554e-06
4.73234e-06
4.78771e-06
4.83012e-06
4.86066e-06
4.88493e-06
4.8997e-06
4.90542e-06
4.90384e-06
4.89604e-06
4.88255e-06
4.86388e-06
4.84061e-06
4.81333e-06
4.78253e-06
4.74853e-06
4.71169e-06
4.67257e-06
4.63138e-06
4.58786e-06
4.54312e-06
4.49496e-06
4.45585e-06
4.38774e-06
2.13627e-06
2.21583e-06
2.31601e-06
2.42605e-06
2.54533e-06
2.67245e-06
2.80392e-06
2.93652e-06
3.06771e-06
3.1955e-06
3.31818e-06
3.43435e-06
3.54269e-06
3.64192e-06
3.73117e-06
3.8099e-06
3.87801e-06
3.93572e-06
3.98323e-06
4.02088e-06
4.04787e-06
4.06562e-06
4.07874e-06
4.08466e-06
4.08379e-06
4.07758e-06
4.06694e-06
4.05226e-06
4.0339e-06
4.0123e-06
3.98785e-06
3.96085e-06
3.93155e-06
3.90018e-06
3.86702e-06
3.83213e-06
3.79553e-06
3.75784e-06
3.71743e-06
3.68326e-06
3.62899e-06
1.77237e-06
1.85082e-06
1.94654e-06
2.04924e-06
2.15756e-06
2.27047e-06
2.38578e-06
2.50135e-06
2.61542e-06
2.72615e-06
2.83191e-06
2.93161e-06
3.02499e-06
3.11232e-06
3.19366e-06
3.26776e-06
3.33343e-06
3.3901e-06
3.43765e-06
3.47653e-06
3.50602e-06
3.52631e-06
3.54197e-06
3.55082e-06
3.55331e-06
3.5507e-06
3.54381e-06
3.53303e-06
3.51875e-06
3.5014e-06
3.48139e-06
3.45907e-06
3.43468e-06
3.40847e-06
3.3808e-06
3.35187e-06
3.32137e-06
3.29067e-06
3.25527e-06
3.23699e-06
3.15529e-06
1.47404e-06
1.55039e-06
1.6409e-06
1.73631e-06
1.83446e-06
1.93443e-06
2.03469e-06
2.13405e-06
2.23183e-06
2.32721e-06
2.41878e-06
2.50434e-06
2.58133e-06
2.64756e-06
2.70279e-06
2.7492e-06
2.78908e-06
2.82308e-06
2.85123e-06
2.87326e-06
2.88876e-06
2.89875e-06
2.90596e-06
2.90865e-06
2.90701e-06
2.90199e-06
2.89415e-06
2.88373e-06
2.87093e-06
2.85598e-06
2.8391e-06
2.82044e-06
2.80015e-06
2.77832e-06
2.75508e-06
2.73035e-06
2.7044e-06
2.67734e-06
2.64815e-06
2.62305e-06
2.58037e-06
1.23096e-06
1.3033e-06
1.3857e-06
1.47087e-06
1.55752e-06
1.64562e-06
1.73391e-06
1.82067e-06
1.90457e-06
1.98508e-06
2.06282e-06
2.13941e-06
2.21646e-06
2.29465e-06
2.37183e-06
2.44194e-06
2.50074e-06
2.54887e-06
2.58773e-06
2.61887e-06
2.64215e-06
2.65734e-06
2.66841e-06
2.67413e-06
2.67506e-06
2.67217e-06
2.66614e-06
2.65732e-06
2.6461e-06
2.63283e-06
2.61787e-06
2.60153e-06
2.58401e-06
2.56553e-06
2.54636e-06
2.52678e-06
2.50629e-06
2.48679e-06
2.46133e-06
2.4619e-06
2.36345e-06
1.02821e-06
1.0983e-06
1.17263e-06
1.24511e-06
1.31619e-06
1.38844e-06
1.46305e-06
1.53977e-06
1.61681e-06
1.69076e-06
1.7571e-06
1.81151e-06
1.85166e-06
1.87802e-06
1.89561e-06
1.91472e-06
1.93992e-06
1.96698e-06
1.99268e-06
2.01506e-06
2.03363e-06
2.04904e-06
2.06209e-06
2.07165e-06
2.07777e-06
2.08103e-06
2.08178e-06
2.08018e-06
2.07637e-06
2.07048e-06
2.06265e-06
2.05296e-06
2.04152e-06
2.02833e-06
2.01347e-06
1.99676e-06
1.97876e-06
1.95855e-06
1.93829e-06
1.91083e-06
1.90046e-06
8.57641e-07
9.33507e-07
1.00869e-06
1.0753e-06
1.13327e-06
1.18622e-06
1.23759e-06
1.29052e-06
1.34823e-06
1.41378e-06
1.48954e-06
1.57644e-06
1.67288e-06
1.77504e-06
1.87455e-06
1.95442e-06
2.00932e-06
2.05002e-06
2.08114e-06
2.10496e-06
2.12113e-06
2.13018e-06
2.13507e-06
2.13546e-06
2.13207e-06
2.12575e-06
2.11711e-06
2.10658e-06
2.09458e-06
2.08151e-06
2.06775e-06
2.05363e-06
2.03936e-06
2.02518e-06
2.01137e-06
1.99838e-06
1.98534e-06
1.9752e-06
1.95737e-06
1.97828e-06
1.85316e-06
7.33761e-07
8.08164e-07
8.81163e-07
9.4822e-07
1.00763e-06
1.0592e-06
1.10196e-06
1.13508e-06
1.15878e-06
1.17438e-06
1.18402e-06
1.19012e-06
1.19509e-06
1.19934e-06
1.20493e-06
1.22599e-06
1.26309e-06
1.30404e-06
1.34478e-06
1.3828e-06
1.41751e-06
1.44893e-06
1.47748e-06
1.50283e-06
1.52476e-06
1.54346e-06
1.5591e-06
1.57175e-06
1.5814e-06
1.58807e-06
1.59176e-06
1.59243e-06
1.5901e-06
1.58464e-06
1.57606e-06
1.56405e-06
1.54942e-06
1.52974e-06
1.5119e-06
1.46852e-06
1.49334e-06
7.92255e-07
8.87533e-07
9.37295e-07
9.45254e-07
9.31505e-07
9.23439e-07
9.44456e-07
1.00432e-06
1.09729e-06
1.20912e-06
1.32505e-06
1.43388e-06
1.52855e-06
1.60701e-06
1.66734e-06
1.69512e-06
1.69389e-06
1.67953e-06
1.65931e-06
1.63604e-06
1.60859e-06
1.58335e-06
1.55612e-06
1.52823e-06
1.50035e-06
1.47264e-06
1.44512e-06
1.41783e-06
1.3908e-06
1.36395e-06
1.33717e-06
1.31034e-06
1.28316e-06
1.25539e-06
1.22697e-06
1.19811e-06
1.16728e-06
1.13729e-06
1.09709e-06
1.09412e-06
9.38972e-07
6.61595
7.73384
6.89565
5.32086
3.56413
2.09412
1.09246
0.506064
0.202402
0.0701906
0.0234373
0.000705958
0.000127738
1.13178e-06
0.000178276
0.000221835
0.000164423
0.000138721
0.000123907
0.000108866
9.43852e-05
8.16263e-05
7.03703e-05
6.03361e-05
5.1571e-05
4.37501e-05
3.72166e-05
3.12606e-05
2.62092e-05
2.17706e-05
1.80263e-05
1.47504e-05
1.19827e-05
9.6143e-06
7.64747e-06
5.99739e-06
4.64773e-06
3.53079e-06
2.66135e-06
1.91206e-06
1.36071e-06
9.43182e-07
6.00321e-07
3.69933e-07
2.28299e-07
1.32576e-07
1.25353e-07
1.63771e-07
1.61157e-07
1.38461e-07
1.29702e-07
9.82716e-08
7.73041e-08
6.26506e-08
7.12181e-08
9.67622e-08
1.23395e-07
1.50329e-07
1.74812e-07
1.95019e-07
2.10472e-07
2.21056e-07
2.26921e-07
2.27598e-07
2.2344e-07
2.14205e-07
2.0159e-07
1.83273e-07
1.66232e-07
1.36235e-07
1.33188e-07
9.28934e-08
1.75586e-07
1.65453e-07
6.23833
10.2902
9.97237
8.12561
5.90283
3.87801
2.33384
1.29725
0.655853
0.281301
0.0932658
0.0262852
0.00148886
0.000369877
1.284e-05
0.0001104
0.000197519
0.000153222
0.000122228
0.000108342
9.53568e-05
8.25697e-05
7.12354e-05
6.11607e-05
5.23821e-05
4.44894e-05
3.7895e-05
3.19122e-05
2.68009e-05
2.23202e-05
1.85268e-05
1.52336e-05
1.24345e-05
1.00481e-05
8.05912e-06
6.38493e-06
5.01363e-06
3.8717e-06
2.97857e-06
2.20975e-06
1.62019e-06
1.18381e-06
8.16514e-07
5.53674e-07
3.78271e-07
2.3499e-07
1.75736e-07
1.67282e-07
1.53435e-07
1.25025e-07
1.22779e-07
9.63779e-08
8.14197e-08
6.81012e-08
7.25683e-08
9.13349e-08
1.1229e-07
1.35083e-07
1.56415e-07
1.74227e-07
1.87875e-07
1.9693e-07
2.02831e-07
2.02677e-07
1.98545e-07
1.89491e-07
1.76766e-07
1.60035e-07
1.43921e-07
1.14588e-07
1.15957e-07
7.61884e-08
1.70832e-07
1.59141e-07
4.27751
9.95522
11.6516
10.5296
8.33664
6.00444
4.00572
2.50851
1.47607
0.791205
0.354681
0.114722
0.0290034
0.00258098
0.00076759
7.42735e-06
4.06788e-05
0.000161263
0.000141749
0.000109445
9.44033e-05
8.3158e-05
7.20923e-05
6.19756e-05
5.32148e-05
4.53903e-05
3.86145e-05
3.26644e-05
2.74994e-05
2.29848e-05
1.9111e-05
1.57816e-05
1.2947e-05
1.05411e-05
8.51481e-06
6.8172e-06
5.41418e-06
4.24454e-06
3.30922e-06
2.53385e-06
1.89372e-06
1.42242e-06
1.02918e-06
7.28726e-07
5.12204e-07
3.37754e-07
2.43192e-07
1.74339e-07
1.36811e-07
1.08292e-07
9.91295e-08
7.75198e-08
6.37107e-08
5.01522e-08
5.10599e-08
6.63118e-08
8.50399e-08
1.06096e-07
1.25332e-07
1.42133e-07
1.54512e-07
1.63454e-07
1.69469e-07
1.69146e-07
1.65899e-07
1.57182e-07
1.46155e-07
1.30986e-07
1.16897e-07
8.86503e-08
9.85727e-08
5.97897e-08
1.67219e-07
1.55355e-07
3.01447
8.53508
11.8141
12.03
10.4753
8.248
6.02376
4.14873
2.71789
1.6784
0.939376
0.435145
0.141662
0.0327612
0.0039917
0.00138169
2.39699e-06
1.46926e-06
0.000120184
0.000129051
9.86873e-05
8.24725e-05
7.26593e-05
6.3067e-05
5.4122e-05
4.62496e-05
3.93817e-05
3.34197e-05
2.81941e-05
2.36404e-05
1.96997e-05
1.63273e-05
1.34487e-05
1.10093e-05
8.94743e-06
7.22049e-06
5.7855e-06
4.58716e-06
3.61505e-06
2.81725e-06
2.14038e-06
1.63443e-06
1.21331e-06
8.80195e-07
6.32952e-07
4.31144e-07
3.08366e-07
2.06714e-07
1.42668e-07
1.0615e-07
8.71916e-08
6.73343e-08
5.32925e-08
3.72488e-08
2.95179e-08
3.78727e-08
5.40594e-08
7.33677e-08
9.11448e-08
1.07038e-07
1.18993e-07
1.279e-07
1.34209e-07
1.344e-07
1.32173e-07
1.24623e-07
1.15553e-07
1.02074e-07
9.10901e-08
6.37531e-08
8.61719e-08
4.79678e-08
1.67006e-07
1.54649e-07
2.3594
6.99867
10.902
12.4217
11.9185
10.2504
8.15023
6.10654
4.36509
2.98217
1.91752
1.1125
0.534544
0.182699
0.0404796
0.00636153
0.00220219
1.67011e-05
8.49771e-06
6.93485e-05
0.000115377
9.14482e-05
7.2463e-05
6.30093e-05
5.51724e-05
4.73078e-05
4.02011e-05
3.4146e-05
2.88667e-05
2.42673e-05
2.02657e-05
1.68472e-05
1.39208e-05
1.14397e-05
9.34473e-06
7.58455e-06
6.11808e-06
4.89117e-06
3.88888e-06
3.05865e-06
2.35401e-06
1.81804e-06
1.36795e-06
1.00802e-06
7.34504e-07
5.09976e-07
3.63769e-07
2.41372e-07
1.58671e-07
1.12116e-07
8.56763e-08
6.75896e-08
5.55308e-08
4.08217e-08
2.49612e-08
1.23096e-08
2.07617e-08
3.83545e-08
5.51232e-08
7.04942e-08
8.23989e-08
9.16586e-08
9.86608e-08
9.98444e-08
9.89695e-08
9.32362e-08
8.64636e-08
7.5187e-08
6.92115e-08
4.23978e-08
8.10854e-08
4.33944e-08
1.70248e-07
1.56143e-07
2.06403
5.67551
9.45639
11.832
12.4385
11.6545
10.0534
8.14838
6.29386
4.666
3.30973
2.20507
1.3259
0.669189
0.247683
0.0575844
0.00982855
0.000330215
5.66909e-07
4.63785e-06
3.15067e-05
9.29848e-05
8.74915e-05
6.58818e-05
5.43257e-05
4.76098e-05
4.11698e-05
3.49926e-05
2.95342e-05
2.48643e-05
2.08207e-05
1.73517e-05
1.43746e-05
1.18473e-05
9.71505e-06
7.92059e-06
6.42084e-06
5.16482e-06
4.13271e-06
3.27125e-06
2.54015e-06
1.97629e-06
1.49872e-06
1.11486e-06
8.17553e-07
5.72764e-07
4.06242e-07
2.67144e-07
1.70919e-07
1.15285e-07
8.63986e-08
7.32516e-08
6.72652e-08
5.89459e-08
4.68372e-08
3.1674e-08
1.59576e-08
3.71725e-09
1.83048e-08
3.33034e-08
4.53703e-08
5.52206e-08
6.33151e-08
6.59062e-08
6.69066e-08
6.35969e-08
6.01834e-08
5.19617e-08
5.44033e-08
2.93651e-08
8.36534e-08
4.66796e-08
1.76109e-07
1.59168e-07
1.98662
4.61154
7.88413
10.5796
12.0485
12.2275
11.3967
9.95152
8.26003
6.57997
5.04683
3.70365
2.55304
1.59842
0.855387
0.35088
0.0931152
0.0170932
0.00524989
0.000407462
1.59019e-06
6.53538e-06
5.10069e-05
8.12907e-05
6.51657e-05
4.89373e-05
4.08234e-05
3.55067e-05
3.03461e-05
2.55157e-05
2.13352e-05
1.78102e-05
1.47998e-05
1.22306e-05
1.00557e-05
8.22548e-06
6.69283e-06
5.40909e-06
4.34705e-06
3.45755e-06
2.70147e-06
2.11109e-06
1.60832e-06
1.20261e-06
8.83864e-07
6.20803e-07
4.36475e-07
2.83087e-07
1.76192e-07
1.14199e-07
8.83893e-08
8.46218e-08
8.69786e-08
8.55921e-08
7.8263e-08
6.70989e-08
5.3464e-08
3.7508e-08
2.24139e-08
9.48167e-09
9.86738e-09
1.89964e-08
2.84117e-08
3.30202e-08
3.68818e-08
3.70737e-08
3.97528e-08
3.62027e-08
5.0192e-08
3.1719e-08
9.16675e-08
5.50892e-08
1.83407e-07
1.63361e-07
2.02431
3.77485
6.40616
9.00485
10.9504
11.9317
11.9467
11.189
9.93793
8.45756
6.94069
5.49397
4.16405
2.97408
1.94603
1.11258
0.510563
0.16383
0.0317083
0.00258025
0.00176134
0
2.94452e-06
6.62922e-06
4.8827e-05
6.06925e-05
4.68445e-05
3.58911e-05
3.01507e-05
2.59865e-05
2.19756e-05
1.83061e-05
1.51772e-05
1.25598e-05
1.03577e-05
8.4974e-06
6.93233e-06
5.62066e-06
4.53094e-06
3.61679e-06
2.83935e-06
2.22408e-06
1.69878e-06
1.27358e-06
9.35773e-07
6.56903e-07
4.56865e-07
2.91814e-07
1.76488e-07
1.12994e-07
9.56347e-08
1.03747e-07
1.13801e-07
1.17933e-07
1.14149e-07
1.05471e-07
9.29435e-08
7.71484e-08
6.11913e-08
4.51062e-08
3.07877e-08
1.767e-08
7.44432e-09
9.04748e-09
1.66575e-08
2.24206e-08
3.36136e-08
3.54688e-08
5.66586e-08
4.46756e-08
1.02464e-07
6.55271e-08
1.91268e-07
1.68303e-07
2.07392
3.11502
5.09709
7.36107
9.42004
10.9065
11.6439
11.6331
11.0084
9.96529
8.69532
7.34035
5.98753
4.68699
3.47295
2.3829
1.46003
0.750841
0.291639
0.071788
0.0104985
0.00390885
0.000476843
3.01041e-07
3.0151e-06
1.38486e-05
4.25022e-05
4.43176e-05
3.35348e-05
2.58909e-05
2.17094e-05
1.85957e-05
1.56295e-05
1.29155e-05
1.06155e-05
8.71397e-06
7.13117e-06
5.80124e-06
4.68698e-06
3.74957e-06
2.95383e-06
2.31671e-06
1.77244e-06
1.33055e-06
9.75667e-07
6.83409e-07
4.69684e-07
2.95582e-07
1.74903e-07
1.15779e-07
1.11053e-07
1.30182e-07
1.46226e-07
1.54283e-07
1.52961e-07
1.45749e-07
1.33733e-07
1.17735e-07
1.0094e-07
8.36511e-08
6.78138e-08
5.32961e-08
4.06925e-08
3.43594e-08
3.26058e-08
3.54256e-08
4.54959e-08
4.84607e-08
6.95344e-08
6.04809e-08
1.14378e-07
7.63618e-08
1.99196e-07
1.7355e-07
2.01306
2.54333
3.93832
5.77758