/*--------------------------------*- C++ -*----------------------------------*\
| =========                 |                                                 |
| \\      /  F ield         | OpenFOAM: The Open Source CFD Toolbox           |
|  \\    /   O peration     | Version:  2312                                  |
|   \\  /    A nd           | Website:  www.openfoam.com                      |
|    \\/     M anipulation  |                                                 |
\*---------------------------------------------------------------------------*/
FoamFile
{
    version     2.0;
    format      ascii;
    arch        "LSB;label=32;scalar=64";
    class       volScalarField;
    location    "650";
    object      turbulenceProperties:nuEff;
}
// * * * * * * * * * * * * * * * * * * * * * * * * * * * * * * * * * * * * * //

dimensions      [0 2 -1 0 0 0 0];

internalField   nonuniform List<scalar> 
11040
(
4.81464e-05
6.4922e-05
2.51604e-05
5.89931e-05
0.000197721
0.000190016
0.000180208
0.000169732
0.000157033
0.000148941
0.000140869
0.000133799
0.000127438
0.000122582
0.000118423
0.000116449
0.000116587
0.000118598
0.00012207
0.000126847
0.000133022
0.000140364
0.000148558
0.000157376
0.000166892
0.000178125
0.000191046
0.000203617
0.00021526
0.000225381
0.000233319
0.000238603
0.000242317
0.000249834
0.000269625
0.000246711
0.000176479
0.000191548
0.000210697
0.000231862
0.000300661
1.4225e-05
4.72059e-05
6.58708e-05
0.000155042
0.000612102
0.000634948
0.000560436
0.000515332
0.000449927
0.00041357
0.000377574
0.00034952
0.000323007
0.00030345
0.000284888
0.000272796
0.000267836
0.000267931
0.000270544
0.000274764
0.00028084
0.000288823
0.000297081
0.000304398
0.000311603
0.000326445
0.000354386
0.000386924
0.000423574
0.000464462
0.000509804
0.000559745
0.000613859
0.000674089
0.000742381
0.000810016
0.000880056
0.000971318
0.00108067
0.00116513
0.00161168
1.54963e-05
1.95476e-05
4.01729e-05
7.65877e-05
0.000426757
0.000978471
0.00119391
0.00115
0.00100882
0.000931795
0.000849904
0.000789896
0.000730797
0.00068898
0.00064747
0.000614954
0.000590175
0.000571346
0.000560615
0.000556908
0.000561781
0.00057625
0.000601048
0.000637054
0.000684385
0.00074286
0.000812232
0.000891979
0.000981679
0.00108068
0.00118789
0.00130259
0.00142483
0.0015553
0.00169511
0.00184408
0.00200931
0.0022105
0.00245616
0.00269105
0.00349017
1.64747e-05
1.5175e-05
2.07074e-05
2.13592e-05
0.000151838
0.000613054
0.0013216
0.00171523
0.00178078
0.00168514
0.00154151
0.00144339
0.00133898
0.00126464
0.00119012
0.0011294
0.00108469
0.00104938
0.00102873
0.00102088
0.00102786
0.00105266
0.00109782
0.00116453
0.00125226
0.00135985
0.00148632
0.00163069
0.00179198
0.00196914
0.00216057
0.00236487
0.00258099
0.0028092
0.00305061
0.0033085
0.00359641
0.00394116
0.00436449
0.00481532
0.00595153
1.62017e-05
1.57535e-05
1.64218e-05
1.53689e-05
1.50165e-05
0.000191634
0.00072976
0.00158346
0.00226659
0.00247042
0.00247668
0.00236437
0.00219916
0.0020869
0.00197329
0.00187336
0.00180322
0.00174565
0.00171109
0.00169744
0.00170514
0.00173977
0.00180745
0.00191019
0.00204725
0.00221718
0.00241821
0.00264807
0.00290469
0.00318615
0.0034893
0.00381135
0.00415025
0.00450568
0.00487846
0.00527347
0.00570878
0.0062279
0.00686528
0.00759316
0.00903941
1.60917e-05
1.61819e-05
1.58946e-05
1.65927e-05
1.16373e-05
1.09697e-05
0.000188359
0.000755364
0.00174537
0.002754
0.00321613
0.00338013
0.00336267
0.00324828
0.00306944
0.00291166
0.00280807
0.00271949
0.00266325
0.00264086
0.00264721
0.00268979
0.00278162
0.00292666
0.00312385
0.00337188
0.003668
0.00400785
0.00438704
0.00480252
0.00524865
0.00572011
0.00621315
0.00672638
0.00725966
0.00781864
0.00842594
0.00914278
0.0100239
0.0110797
0.0128586
1.61036e-05
1.61375e-05
1.60087e-05
1.63647e-05
1.58954e-05
1.0389e-05
1.00041e-05
0.000136426
0.000686919
0.00174791
0.00305144
0.0039728
0.00434348
0.00448008
0.00446747
0.00436245
0.00421256
0.00406351
0.00397293
0.00393797
0.00394154
0.0039884
0.00410327
0.00429486
0.0045614
0.00490257
0.00531521
0.0057921
0.00632384
0.00690634
0.00753015
0.00818545
0.00886562
0.00956763
0.010289
0.011035
0.0118333
0.0127579
0.0138988
0.0153119
0.0174731
1.61141e-05
1.61113e-05
1.61308e-05
1.60466e-05
1.65808e-05
1.60013e-05
1.00124e-05
1e-05
6.92198e-05
0.000540568
0.00156697
0.00307844
0.00453505
0.00532979
0.00568934
0.00582758
0.00585014
0.00579816
0.00572964
0.00567668
0.00567974
0.00574272
0.00588416
0.00612693
0.00646945
0.00691546
0.00746396
0.00810632
0.00882178
0.00960599
0.0104446
0.0113198
0.0122199
0.0131398
0.0140727
0.0150207
0.0160161
0.0171419
0.0185303
0.0202917
0.0228586
1.61122e-05
1.61156e-05
1.61112e-05
1.61301e-05
1.59937e-05
1.71976e-05
1.53097e-05
1.00826e-05
1.03957e-05
1.10734e-05
0.000338798
0.00122833
0.0027837
0.00467577
0.0061777
0.00692137
0.00731562
0.0075149
0.00763592
0.00771924
0.00782166
0.00796992
0.0082037
0.00854991
0.00900873
0.0095801
0.010273
0.0110922
0.01202
0.0130386
0.0141292
0.0152608
0.0164107
0.0175729
0.0187341
0.019886
0.0210667
0.0223678
0.0239432
0.0259887
0.0289071
1.61116e-05
1.6113e-05
1.61126e-05
1.61174e-05
1.60951e-05
1.60431e-05
1.7405e-05
1.47928e-05
1.0383e-05
1.00192e-05
1.00005e-05
0.000165355
0.000817324
0.00221912
0.0042938
0.00649755
0.00804238
0.00883884
0.00934707
0.00970897
0.0100471
0.0104064
0.0108478
0.0114138
0.0121223
0.0129713
0.0139487
0.015036
0.0162163
0.0174914
0.0188609
0.020276
0.0216913
0.0231024
0.0244936
0.0258296
0.0271542
0.0285734
0.0302249
0.0324054
0.0355155
1.61104e-05
1.61111e-05
1.61123e-05
1.61077e-05
1.61258e-05
1.60502e-05
1.61807e-05
1.70838e-05
1.57469e-05
1.09924e-05
1.00072e-05
1.11765e-05
1.11752e-05
0.000407193
0.00148326
0.00342679
0.00600637
0.00853159
0.0102363
0.0112282
0.0119958
0.01268
0.0134119
0.0142719
0.0153123
0.0165479
0.0179726
0.0195657
0.021291
0.0230982
0.0249216
0.0266887
0.02837
0.0300144
0.0316306
0.0331043
0.0344816
0.0359294
0.0375175
0.0395539
0.0425217
1.6109e-05
1.61095e-05
1.6109e-05
1.61095e-05
1.61062e-05
1.61153e-05
1.60565e-05
1.61689e-05
1.67924e-05
1.64114e-05
1.24534e-05
1.00014e-05
1.00024e-05
4.25734e-05
0.000128524
0.000780293
0.002288
0.00476384
0.00786547
0.0108299
0.0129168
0.014282
0.0154623
0.0166794
0.0180742
0.0197056
0.0215874
0.0237135
0.0260485
0.0285353
0.0311034
0.0336711
0.036146
0.0384365
0.0404206
0.0419916
0.0432689
0.0446512
0.0459985
0.0475834
0.0499427
1.61077e-05
1.61076e-05
1.61074e-05
1.61071e-05
1.61065e-05
1.61059e-05
1.61073e-05
1.60725e-05
1.61291e-05
1.65307e-05
1.69825e-05
1.42151e-05
1.0134e-05
1.00015e-05
1.02087e-05
0.000121548
0.000262061
0.00118694
0.00310476
0.00610326
0.00981007
0.0133539
0.0159897
0.0179407
0.0198107
0.0218562
0.0241518
0.0267463
0.0296211
0.0327166
0.03596
0.0392672
0.0425414
0.0456866
0.048601
0.0511717
0.053303
0.0549095
0.055915
0.0568206
0.0583308
1.61064e-05
1.61067e-05
1.61066e-05
1.61063e-05
1.61058e-05
1.61053e-05
1.61053e-05
1.61052e-05
1.60847e-05
1.60936e-05
1.63326e-05
1.71322e-05
1.5824e-05
1.13084e-05
1e-05
1e-05
1.21294e-05
0.000195546
0.000399842
0.00153645
0.00380732
0.00715306
0.0111025
0.0151635
0.0188121
0.0218825
0.0247415
0.0277896
0.0311359
0.0347395
0.038544
0.0424781
0.0464381
0.0503256
0.0540405
0.0574866
0.060574
0.0632423
0.0654222
0.0670876
0.0682544
1.61054e-05
1.61062e-05
1.61062e-05
1.61058e-05
1.61055e-05
1.61051e-05
1.61047e-05
1.61049e-05
1.61043e-05
1.60958e-05
1.60695e-05
1.62202e-05
1.68779e-05
1.67072e-05
1.42308e-05
1.01911e-05
1.00024e-05
1e-05
1.93343e-05
1.00139e-05
0.000472552
0.00164192
0.00374516
0.0068222
0.0107001
0.0151279
0.0198201
0.0244658
0.0288809
0.0331526
0.037485
0.0419696
0.0465451
0.0511019
0.0555344
0.0597475
0.0636696
0.0672668
0.0704692
0.073225
0.0755307
1.61045e-05
1.61058e-05
1.61057e-05
1.61054e-05
1.61049e-05
1.61045e-05
1.61042e-05
1.61038e-05
1.61037e-05
1.61039e-05
1.61006e-05
1.60675e-05
1.61478e-05
1.64364e-05
1.71502e-05
1.57621e-05
1.26944e-05
1.00037e-05
1.00003e-05
1e-05
2.29231e-05
0.000218597
0.000291879
0.00110665
0.00263349
0.00499796
0.00822842
0.0122856
0.0170813
0.0224935
0.0283229
0.0342775
0.0400822
0.0456157
0.0508807
0.0559046
0.0606839
0.0652041
0.0694036
0.073213
0.0766065
1.61038e-05
1.61051e-05
1.61049e-05
1.61043e-05
1.61038e-05
1.61034e-05
1.61031e-05
1.61028e-05
1.61026e-05
1.61023e-05
1.61035e-05
1.60998e-05
1.60848e-05
1.60771e-05
1.62684e-05
1.67102e-05
1.71315e-05
1.49033e-05
1.1315e-05
1.00002e-05
1.00001e-05
1e-05
1.13994e-05
8.61963e-05
1e-05
0.000326744
0.00109325
0.00240217
0.00440686
0.00719126
0.0108048
0.0152573
0.0204982
0.02643
0.0328715
0.0395496
0.0461541
0.0524682
0.0583112
0.0635919
0.0683146
1.61029e-05
1.61039e-05
1.61036e-05
1.61031e-05
1.61026e-05
1.61023e-05
1.6102e-05
1.61019e-05
1.61017e-05
1.61016e-05
1.61014e-05
1.61021e-05
1.61009e-05
1.60919e-05
1.60692e-05
1.61294e-05
1.63788e-05
1.69978e-05
1.69367e-05
1.45854e-05
1.0989e-05
1.00002e-05
1.00002e-05
1e-05
1e-05
1.13135e-05
6.79518e-05
0.000210514
8.08629e-05
0.000420278
0.00115047
0.0023681
0.00417021
0.00665167
0.00987473
0.0138429
0.0185069
0.0238305
0.0296733
0.0358579
0.0421929
1.61018e-05
1.61024e-05
1.61019e-05
1.61013e-05
1.61007e-05
1.61004e-05
1.61002e-05
1.61001e-05
1.61e-05
1.61e-05
1.61e-05
1.61001e-05
1.61002e-05
1.61012e-05
1.60947e-05
1.60834e-05
1.60668e-05
1.61967e-05
1.65278e-05
1.70589e-05
1.68036e-05
1.43387e-05
1.1571e-05
1.00086e-05
1.00005e-05
1e-05
1e-05
1e-05
1.00085e-05
1.23036e-05
6.1626e-05
0.000167685
0.000313361
5.2008e-05
0.000462229
0.00116131
0.00227094
0.00385649
0.0059644
0.00862951
0.0119021
1.61005e-05
1.61009e-05
1.61002e-05
1.60996e-05
1.60991e-05
1.60988e-05
1.60986e-05
1.60986e-05
1.60985e-05
1.60986e-05
1.60986e-05
1.60987e-05
1.60988e-05
1.60991e-05
1.60995e-05
1.60988e-05
1.60883e-05
1.6072e-05
1.60819e-05
1.62466e-05
1.66477e-05
1.70483e-05
1.69469e-05
1.51224e-05
1.25896e-05
1.07593e-05
1.00019e-05
1.00003e-05
1e-05
1e-05
1e-05
1e-05
1e-05
1.00019e-05
1.21049e-05
5.00893e-05
0.000137923
0.00025663
3.02283e-05
0.000148036
0.000391625
1.60993e-05
1.60993e-05
1.60987e-05
1.60981e-05
1.60978e-05
1.60976e-05
1.60975e-05
1.60975e-05
1.60975e-05
1.60976e-05
1.60977e-05
1.60978e-05
1.60979e-05
1.6098e-05
1.60982e-05
1.60986e-05
1.60991e-05
1.60951e-05
1.60812e-05
1.60645e-05
1.60961e-05
1.6279e-05
1.65885e-05
1.70733e-05
1.70811e-05
1.65182e-05
1.47868e-05
1.26442e-05
1.10409e-05
1.02491e-05
1.00001e-05
1.00001e-05
1e-05
1e-05
1e-05
1e-05
1e-05
1e-05
1.00004e-05
1.00172e-05
1.0621e-05
1.60979e-05
1.60979e-05
1.60974e-05
1.6097e-05
1.60968e-05
1.60968e-05
1.60968e-05
1.6097e-05
1.60971e-05
1.60972e-05
1.60973e-05
1.60974e-05
1.60975e-05
1.60976e-05
1.60977e-05
1.60978e-05
1.60981e-05
1.60987e-05
1.60981e-05
1.60918e-05
1.6075e-05
1.60673e-05
1.60895e-05
1.62208e-05
1.64687e-05
1.67665e-05
1.714e-05
1.71743e-05
1.66976e-05
1.58489e-05
1.43494e-05
1.27108e-05
1.14293e-05
1.05749e-05
1.01565e-05
1.00017e-05
1.00002e-05
1e-05
1e-05
1e-05
1e-05
1.60966e-05
1.60966e-05
1.60963e-05
1.60962e-05
1.60963e-05
1.60965e-05
1.60967e-05
1.60969e-05
1.60971e-05
1.60973e-05
1.60975e-05
1.60976e-05
1.60977e-05
1.60978e-05
1.60979e-05
1.6098e-05
1.6098e-05
1.60981e-05
1.60986e-05
1.60991e-05
1.60974e-05
1.60904e-05
1.60773e-05
1.60641e-05
1.60769e-05
1.61285e-05
1.62613e-05
1.64753e-05
1.67333e-05
1.69735e-05
1.72335e-05
1.72448e-05
1.69604e-05
1.63806e-05
1.56127e-05
1.45355e-05
1.33447e-05
1.22215e-05
1.13118e-05
1.06946e-05
1.02965e-05
1.60955e-05
1.60956e-05
1.60957e-05
1.60958e-05
1.60962e-05
1.60965e-05
1.60969e-05
1.60972e-05
1.60975e-05
1.60978e-05
1.6098e-05
1.60982e-05
1.60983e-05
1.60984e-05
1.60985e-05
1.60986e-05
1.60986e-05
1.60986e-05
1.60987e-05
1.60989e-05
1.60994e-05
1.60995e-05
1.60983e-05
1.60928e-05
1.60826e-05
1.60706e-05
1.60629e-05
1.6073e-05
1.61162e-05
1.61938e-05
1.63232e-05
1.64988e-05
1.66995e-05
1.69009e-05
1.70768e-05
1.72511e-05
1.73205e-05
1.72362e-05
1.69832e-05
1.65673e-05
1.60643e-05
1.60944e-05
1.60949e-05
1.60953e-05
1.60958e-05
1.60963e-05
1.60969e-05
1.60973e-05
1.60977e-05
1.60981e-05
1.60984e-05
1.60987e-05
1.60989e-05
1.60991e-05
1.60992e-05
1.60993e-05
1.60994e-05
1.60995e-05
1.60995e-05
1.60996e-05
1.60996e-05
1.60997e-05
1.60999e-05
1.61003e-05
1.61007e-05
1.60999e-05
1.60972e-05
1.60912e-05
1.6082e-05
1.60717e-05
1.6064e-05
1.60624e-05
1.60735e-05
1.61025e-05
1.6153e-05
1.62244e-05
1.6322e-05
1.64435e-05
1.65856e-05
1.67373e-05
1.6889e-05
1.70223e-05
1.60936e-05
1.60945e-05
1.60952e-05
1.6096e-05
1.60967e-05
1.60973e-05
1.60978e-05
1.60983e-05
1.60987e-05
1.60991e-05
1.60994e-05
1.60996e-05
1.60998e-05
1.61e-05
1.61002e-05
1.61003e-05
1.61004e-05
1.61005e-05
1.61006e-05
1.61006e-05
1.61007e-05
1.61007e-05
1.61008e-05
1.6101e-05
1.61013e-05
1.61017e-05
1.61018e-05
1.6101e-05
1.60987e-05
1.60947e-05
1.60888e-05
1.60812e-05
1.60731e-05
1.60658e-05
1.60611e-05
1.60603e-05
1.60655e-05
1.60794e-05
1.61031e-05
1.61397e-05
1.61803e-05
1.6093e-05
1.60943e-05
1.60954e-05
1.60963e-05
1.60971e-05
1.60977e-05
1.60983e-05
1.60988e-05
1.60993e-05
1.60997e-05
1.61e-05
1.61003e-05
1.61006e-05
1.61008e-05
1.6101e-05
1.61012e-05
1.61013e-05
1.61014e-05
1.61015e-05
1.61016e-05
1.61017e-05
1.61018e-05
1.61019e-05
1.61019e-05
1.6102e-05
1.61021e-05
1.61023e-05
1.61026e-05
1.61029e-05
1.6103e-05
1.61028e-05
1.6102e-05
1.61003e-05
1.60978e-05
1.60941e-05
1.60895e-05
1.60841e-05
1.60781e-05
1.60719e-05
1.60664e-05
1.60619e-05
1.60927e-05
1.60943e-05
1.60955e-05
1.60965e-05
1.60974e-05
1.60981e-05
1.60988e-05
1.60993e-05
1.60998e-05
1.61002e-05
1.61006e-05
1.6101e-05
1.61013e-05
1.61015e-05
1.61018e-05
1.6102e-05
1.61021e-05
1.61023e-05
1.61025e-05
1.61026e-05
1.61027e-05
1.61028e-05
1.61029e-05
1.6103e-05
1.61031e-05
1.61031e-05
1.61031e-05
1.61032e-05
1.61033e-05
1.61034e-05
1.61036e-05
1.61038e-05
1.6104e-05
1.61042e-05
1.61042e-05
1.6104e-05
1.61036e-05
1.61027e-05
1.61014e-05
1.60995e-05
1.60978e-05
1.60925e-05
1.60944e-05
1.60957e-05
1.60968e-05
1.60976e-05
1.60984e-05
1.60991e-05
1.60997e-05
1.61002e-05
1.61007e-05
1.61011e-05
1.61015e-05
1.61018e-05
1.61022e-05
1.61024e-05
1.61027e-05
1.61029e-05
1.61031e-05
1.61033e-05
1.61035e-05
1.61036e-05
1.61038e-05
1.61039e-05
1.6104e-05
1.61041e-05
1.61042e-05
1.61043e-05
1.61043e-05
1.61044e-05
1.61044e-05
1.61044e-05
1.61045e-05
1.61045e-05
1.61046e-05
1.61047e-05
1.61048e-05
1.6105e-05
1.61051e-05
1.61053e-05
1.61054e-05
1.61055e-05
1.60925e-05
1.60944e-05
1.60958e-05
1.60969e-05
1.60978e-05
1.60986e-05
1.60993e-05
1.61e-05
1.61005e-05
1.61011e-05
1.61015e-05
1.6102e-05
1.61024e-05
1.61027e-05
1.6103e-05
1.61033e-05
1.61036e-05
1.61038e-05
1.61041e-05
1.61043e-05
1.61045e-05
1.61047e-05
1.61048e-05
1.6105e-05
1.61051e-05
1.61052e-05
1.61053e-05
1.61054e-05
1.61055e-05
1.61055e-05
1.61056e-05
1.61056e-05
1.61056e-05
1.61057e-05
1.61057e-05
1.61057e-05
1.61057e-05
1.61058e-05
1.61058e-05
1.61059e-05
1.61059e-05
1.60924e-05
1.60944e-05
1.60958e-05
1.60969e-05
1.60979e-05
1.60987e-05
1.60995e-05
1.61002e-05
1.61008e-05
1.61014e-05
1.61019e-05
1.61024e-05
1.61028e-05
1.61032e-05
1.61036e-05
1.61039e-05
1.61042e-05
1.61045e-05
1.61048e-05
1.6105e-05
1.61052e-05
1.61055e-05
1.61057e-05
1.61058e-05
1.6106e-05
1.61061e-05
1.61063e-05
1.61064e-05
1.61065e-05
1.61066e-05
1.61067e-05
1.61067e-05
1.61068e-05
1.61069e-05
1.61069e-05
1.6107e-05
1.6107e-05
1.6107e-05
1.61071e-05
1.61071e-05
1.61071e-05
1.60923e-05
1.60943e-05
1.60957e-05
1.60968e-05
1.60978e-05
1.60987e-05
1.60995e-05
1.61002e-05
1.61009e-05
1.61016e-05
1.61021e-05
1.61027e-05
1.61032e-05
1.61036e-05
1.6104e-05
1.61044e-05
1.61048e-05
1.61051e-05
1.61054e-05
1.61057e-05
1.6106e-05
1.61062e-05
1.61064e-05
1.61067e-05
1.61068e-05
1.6107e-05
1.61072e-05
1.61073e-05
1.61075e-05
1.61076e-05
1.61077e-05
1.61078e-05
1.61079e-05
1.6108e-05
1.61081e-05
1.61081e-05
1.61082e-05
1.61083e-05
1.61084e-05
1.61085e-05
1.61085e-05
1.60922e-05
1.60941e-05
1.60955e-05
1.60966e-05
1.60977e-05
1.60986e-05
1.60994e-05
1.61002e-05
1.6101e-05
1.61017e-05
1.61023e-05
1.61029e-05
1.61034e-05
1.61039e-05
1.61044e-05
1.61048e-05
1.61052e-05
1.61056e-05
1.6106e-05
1.61063e-05
1.61066e-05
1.61069e-05
1.61072e-05
1.61074e-05
1.61076e-05
1.61078e-05
1.6108e-05
1.61082e-05
1.61084e-05
1.61085e-05
1.61087e-05
1.61088e-05
1.61089e-05
1.61091e-05
1.61092e-05
1.61093e-05
1.61094e-05
1.61095e-05
1.61096e-05
1.61097e-05
1.61098e-05
1.60919e-05
1.60938e-05
1.60952e-05
1.60963e-05
1.60974e-05
1.60984e-05
1.60993e-05
1.61001e-05
1.61009e-05
1.61017e-05
1.61024e-05
1.6103e-05
1.61036e-05
1.61042e-05
1.61047e-05
1.61052e-05
1.61057e-05
1.61061e-05
1.61065e-05
1.61068e-05
1.61072e-05
1.61075e-05
1.61079e-05
1.61081e-05
1.61084e-05
1.61086e-05
1.61089e-05
1.61091e-05
1.61093e-05
1.61094e-05
1.61096e-05
1.61098e-05
1.61099e-05
1.61101e-05
1.61102e-05
1.61104e-05
1.61105e-05
1.61107e-05
1.61108e-05
1.61109e-05
1.61111e-05
1.60915e-05
1.60933e-05
1.60947e-05
1.60959e-05
1.6097e-05
1.6098e-05
1.6099e-05
1.60999e-05
1.61008e-05
1.61016e-05
1.61023e-05
1.61031e-05
1.61037e-05
1.61044e-05
1.6105e-05
1.61055e-05
1.6106e-05
1.61065e-05
1.61069e-05
1.61073e-05
1.61078e-05
1.61081e-05
1.61085e-05
1.61088e-05
1.61091e-05
1.61094e-05
1.61096e-05
1.61099e-05
1.61101e-05
1.61103e-05
1.61105e-05
1.61107e-05
1.61109e-05
1.61111e-05
1.61113e-05
1.61114e-05
1.61116e-05
1.61118e-05
1.6112e-05
1.61121e-05
1.61123e-05
1.6091e-05
1.60927e-05
1.60941e-05
1.60953e-05
1.60964e-05
1.60975e-05
1.60985e-05
1.60995e-05
1.61005e-05
1.61014e-05
1.61022e-05
1.6103e-05
1.61037e-05
1.61044e-05
1.61051e-05
1.61057e-05
1.61063e-05
1.61068e-05
1.61073e-05
1.61078e-05
1.61082e-05
1.61087e-05
1.6109e-05
1.61094e-05
1.61097e-05
1.61101e-05
1.61104e-05
1.61106e-05
1.61109e-05
1.61111e-05
1.61114e-05
1.61116e-05
1.61118e-05
1.6112e-05
1.61122e-05
1.61124e-05
1.61127e-05
1.61129e-05
1.61131e-05
1.61133e-05
1.61135e-05
1.60903e-05
1.6092e-05
1.60934e-05
1.60946e-05
1.60958e-05
1.60969e-05
1.6098e-05
1.6099e-05
1.61e-05
1.6101e-05
1.61019e-05
1.61028e-05
1.61036e-05
1.61044e-05
1.61051e-05
1.61058e-05
1.61064e-05
1.6107e-05
1.61075e-05
1.61081e-05
1.61086e-05
1.61091e-05
1.61095e-05
1.61099e-05
1.61103e-05
1.61107e-05
1.6111e-05
1.61113e-05
1.61116e-05
1.61119e-05
1.61122e-05
1.61124e-05
1.61127e-05
1.61129e-05
1.61131e-05
1.61134e-05
1.61136e-05
1.61138e-05
1.61141e-05
1.61143e-05
1.61145e-05
1.60895e-05
1.60911e-05
1.60925e-05
1.60937e-05
1.60949e-05
1.60961e-05
1.60972e-05
1.60983e-05
1.60994e-05
1.61004e-05
1.61014e-05
1.61023e-05
1.61032e-05
1.61041e-05
1.61049e-05
1.61056e-05
1.61063e-05
1.6107e-05
1.61076e-05
1.61082e-05
1.61088e-05
1.61093e-05
1.61098e-05
1.61103e-05
1.61107e-05
1.61111e-05
1.61115e-05
1.61118e-05
1.61122e-05
1.61125e-05
1.61128e-05
1.61131e-05
1.61134e-05
1.61136e-05
1.61139e-05
1.61142e-05
1.61144e-05
1.61147e-05
1.61149e-05
1.61152e-05
1.61154e-05
1.60885e-05
1.60901e-05
1.60914e-05
1.60926e-05
1.60938e-05
1.6095e-05
1.60962e-05
1.60974e-05
1.60985e-05
1.60996e-05
1.61006e-05
1.61016e-05
1.61026e-05
1.61035e-05
1.61044e-05
1.61052e-05
1.6106e-05
1.61067e-05
1.61074e-05
1.61081e-05
1.61087e-05
1.61093e-05
1.61098e-05
1.61104e-05
1.61108e-05
1.61113e-05
1.61117e-05
1.61121e-05
1.61125e-05
1.61128e-05
1.61132e-05
1.61135e-05
1.61138e-05
1.61141e-05
1.61144e-05
1.61147e-05
1.6115e-05
1.61153e-05
1.61156e-05
1.61158e-05
1.61161e-05
1.60873e-05
1.60888e-05
1.60901e-05
1.60913e-05
1.60926e-05
1.60938e-05
1.6095e-05
1.60961e-05
1.60973e-05
1.60984e-05
1.60995e-05
1.61006e-05
1.61016e-05
1.61026e-05
1.61036e-05
1.61045e-05
1.61053e-05
1.61061e-05
1.61069e-05
1.61076e-05
1.61083e-05
1.6109e-05
1.61096e-05
1.61101e-05
1.61107e-05
1.61112e-05
1.61116e-05
1.61121e-05
1.61125e-05
1.61129e-05
1.61133e-05
1.61136e-05
1.6114e-05
1.61143e-05
1.61146e-05
1.61149e-05
1.61152e-05
1.61155e-05
1.61158e-05
1.61161e-05
1.61164e-05
1.60859e-05
1.60874e-05
1.60886e-05
1.60898e-05
1.6091e-05
1.60922e-05
1.60934e-05
1.60946e-05
1.60957e-05
1.60969e-05
1.60981e-05
1.60992e-05
1.61003e-05
1.61013e-05
1.61023e-05
1.61033e-05
1.61042e-05
1.61051e-05
1.6106e-05
1.61067e-05
1.61075e-05
1.61082e-05
1.61089e-05
1.61095e-05
1.61101e-05
1.61106e-05
1.61111e-05
1.61116e-05
1.61121e-05
1.61125e-05
1.61129e-05
1.61133e-05
1.61137e-05
1.61141e-05
1.61144e-05
1.61147e-05
1.61151e-05
1.61154e-05
1.61157e-05
1.6116e-05
1.61163e-05
1.60844e-05
1.60857e-05
1.60869e-05
1.6088e-05
1.60891e-05
1.60903e-05
1.60914e-05
1.60926e-05
1.60938e-05
1.6095e-05
1.60962e-05
1.60973e-05
1.60985e-05
1.60996e-05
1.61007e-05
1.61017e-05
1.61027e-05
1.61037e-05
1.61046e-05
1.61054e-05
1.61062e-05
1.6107e-05
1.61077e-05
1.61084e-05
1.61091e-05
1.61097e-05
1.61102e-05
1.61107e-05
1.61112e-05
1.61117e-05
1.61122e-05
1.61126e-05
1.6113e-05
1.61134e-05
1.61137e-05
1.61141e-05
1.61144e-05
1.61147e-05
1.61151e-05
1.61154e-05
1.61157e-05
1.60826e-05
1.60838e-05
1.60848e-05
1.60859e-05
1.60869e-05
1.6088e-05
1.60891e-05
1.60903e-05
1.60914e-05
1.60926e-05
1.60938e-05
1.6095e-05
1.60962e-05
1.60974e-05
1.60985e-05
1.60996e-05
1.61007e-05
1.61017e-05
1.61027e-05
1.61036e-05
1.61044e-05
1.61053e-05
1.6106e-05
1.61068e-05
1.61074e-05
1.61081e-05
1.61087e-05
1.61093e-05
1.61098e-05
1.61103e-05
1.61108e-05
1.61112e-05
1.61116e-05
1.61121e-05
1.61124e-05
1.61128e-05
1.61132e-05
1.61135e-05
1.61139e-05
1.61142e-05
1.61145e-05
1.60805e-05
1.60816e-05
1.60825e-05
1.60834e-05
1.60843e-05
1.60853e-05
1.60864e-05
1.60875e-05
1.60886e-05
1.60898e-05
1.6091e-05
1.60922e-05
1.60934e-05
1.60946e-05
1.60958e-05
1.60969e-05
1.6098e-05
1.60991e-05
1.61001e-05
1.61011e-05
1.6102e-05
1.61029e-05
1.61037e-05
1.61045e-05
1.61053e-05
1.6106e-05
1.61066e-05
1.61072e-05
1.61078e-05
1.61084e-05
1.61089e-05
1.61093e-05
1.61098e-05
1.61102e-05
1.61106e-05
1.6111e-05
1.61114e-05
1.61117e-05
1.61121e-05
1.61124e-05
1.61127e-05
1.60782e-05
1.60791e-05
1.60798e-05
1.60806e-05
1.60814e-05
1.60823e-05
1.60832e-05
1.60843e-05
1.60853e-05
1.60864e-05
1.60876e-05
1.60888e-05
1.60899e-05
1.60911e-05
1.60923e-05
1.60935e-05
1.60946e-05
1.60957e-05
1.60968e-05
1.60978e-05
1.60987e-05
1.60997e-05
1.61005e-05
1.61013e-05
1.61021e-05
1.61028e-05
1.61035e-05
1.61041e-05
1.61047e-05
1.61053e-05
1.61058e-05
1.61063e-05
1.61068e-05
1.61073e-05
1.61077e-05
1.61081e-05
1.61085e-05
1.61089e-05
1.61092e-05
1.61096e-05
1.61099e-05
1.60756e-05
1.60762e-05
1.60768e-05
1.60774e-05
1.60781e-05
1.60788e-05
1.60796e-05
1.60805e-05
1.60814e-05
1.60824e-05
1.60835e-05
1.60846e-05
1.60857e-05
1.60868e-05
1.60879e-05
1.6089e-05
1.60901e-05
1.60912e-05
1.60922e-05
1.60933e-05
1.60943e-05
1.60953e-05
1.60962e-05
1.60971e-05
1.6098e-05
1.60988e-05
1.60995e-05
1.61002e-05
1.61009e-05
1.61016e-05
1.61021e-05
1.61027e-05
1.61032e-05
1.61037e-05
1.61042e-05
1.61046e-05
1.6105e-05
1.61053e-05
1.61057e-05
1.6106e-05
1.61063e-05
1.60726e-05
1.6073e-05
1.60734e-05
1.60738e-05
1.60743e-05
1.60749e-05
1.60755e-05
1.60761e-05
1.60768e-05
1.60776e-05
1.60784e-05
1.60793e-05
1.60802e-05
1.60812e-05
1.60823e-05
1.60835e-05
1.60847e-05
1.60858e-05
1.6087e-05
1.6088e-05
1.60891e-05
1.609e-05
1.6091e-05
1.60919e-05
1.60927e-05
1.60935e-05
1.60942e-05
1.60949e-05
1.60956e-05
1.60962e-05
1.60968e-05
1.60973e-05
1.60979e-05
1.60983e-05
1.60988e-05
1.60992e-05
1.60996e-05
1.61e-05
1.61004e-05
1.61007e-05
1.6101e-05
1.60693e-05
1.60695e-05
1.60696e-05
1.60698e-05
1.607e-05
1.60702e-05
1.60705e-05
1.60708e-05
1.60711e-05
1.60715e-05
1.60719e-05
1.60723e-05
1.60726e-05
1.6073e-05
1.60734e-05
1.60738e-05
1.60742e-05
1.60745e-05
1.60749e-05
1.60753e-05
1.60757e-05
1.60762e-05
1.60766e-05
1.60771e-05
1.60777e-05
1.60782e-05
1.60787e-05
1.60793e-05
1.60798e-05
1.60804e-05
1.60809e-05
1.60814e-05
1.60819e-05
1.60823e-05
1.60828e-05
1.60832e-05
1.60837e-05
1.60841e-05
1.60844e-05
1.60848e-05
1.60852e-05
0.00365586
0.0072586
0.010184
0.011737
0.0119071
0.0110243
0.00950179
0.00766122
0.00563439
0.00346404
0.00141901
3.45163e-05
1.12985e-05
1.00001e-05
1.44519e-05
1.85988e-05
1.628e-05
1.58021e-05
1.60729e-05
1.61402e-05
1.61143e-05
1.61082e-05
1.61106e-05
1.61106e-05
1.61094e-05
1.61081e-05
1.61068e-05
1.61056e-05
1.61047e-05
1.6104e-05
1.61032e-05
1.61025e-05
1.61017e-05
1.61008e-05
1.60998e-05
1.60987e-05
1.60976e-05
1.60964e-05
1.60953e-05
1.60941e-05
1.60929e-05
1.60917e-05
1.60904e-05
1.60892e-05
1.6088e-05
1.60868e-05
1.60858e-05
1.60848e-05
1.6084e-05
1.60834e-05
1.60828e-05
1.60822e-05
1.60816e-05
1.6081e-05
1.60803e-05
1.60795e-05
1.60787e-05
1.60778e-05
1.6077e-05
1.60763e-05
1.60758e-05
1.60755e-05
1.60754e-05
1.60756e-05
1.60762e-05
1.6077e-05
1.60781e-05
1.60795e-05
1.60813e-05
1.60834e-05
1.60859e-05
1.6089e-05
1.60915e-05
1.60994e-05
0.00621069
0.0109791
0.0144431
0.016186
0.0164042
0.0155163
0.0139545
0.0120445
0.00991882
0.00752057
0.00475838
0.00188988
0.000107241
2.30347e-05
1.00242e-05
1.22418e-05
1.88648e-05
1.69661e-05
1.58509e-05
1.60025e-05
1.6129e-05
1.61226e-05
1.61125e-05
1.61129e-05
1.61121e-05
1.61101e-05
1.61084e-05
1.61072e-05
1.61061e-05
1.61051e-05
1.61042e-05
1.61034e-05
1.61025e-05
1.61015e-05
1.61003e-05
1.60992e-05
1.60979e-05
1.60967e-05
1.60955e-05
1.60942e-05
1.60929e-05
1.60917e-05
1.60904e-05
1.60892e-05
1.6088e-05
1.60869e-05
1.60859e-05
1.60851e-05
1.60844e-05
1.60838e-05
1.60833e-05
1.60827e-05
1.60822e-05
1.60816e-05
1.60809e-05
1.60802e-05
1.60794e-05
1.60786e-05
1.60777e-05
1.6077e-05
1.60764e-05
1.60761e-05
1.60759e-05
1.60761e-05
1.60765e-05
1.60772e-05
1.60782e-05
1.60795e-05
1.60812e-05
1.60832e-05
1.60856e-05
1.60886e-05
1.6091e-05
1.60987e-05
0.00865958
0.0148571
0.0190638
0.0211065
0.0214427
0.0205823
0.0189865
0.0170036
0.0147983
0.0123311
0.00943911
0.00599267
0.00242865
0.000228498
6.73603e-05
1.00106e-05
1.0408e-05
1.77255e-05
1.77416e-05
1.60844e-05
1.59494e-05
1.61106e-05
1.61273e-05
1.61115e-05
1.61115e-05
1.6113e-05
1.6111e-05
1.61087e-05
1.61073e-05
1.61063e-05
1.61053e-05
1.61042e-05
1.61032e-05
1.61021e-05
1.61008e-05
1.60996e-05
1.60982e-05
1.60969e-05
1.60956e-05
1.60942e-05
1.60929e-05
1.60916e-05
1.60904e-05
1.60892e-05
1.6088e-05
1.6087e-05
1.60861e-05
1.60854e-05
1.60848e-05
1.60843e-05
1.60838e-05
1.60833e-05
1.60828e-05
1.60823e-05
1.60816e-05
1.60809e-05
1.60801e-05
1.60793e-05
1.60785e-05
1.60778e-05
1.60771e-05
1.60767e-05
1.60765e-05
1.60766e-05
1.60769e-05
1.60775e-05
1.60783e-05
1.60795e-05
1.6081e-05
1.60829e-05
1.60852e-05
1.60881e-05
1.60904e-05
1.6098e-05
0.0110891
0.0189329
0.0240179
0.0264787
0.027031
0.0262681
0.0246772
0.0226322
0.0203393
0.0178074
0.0148952
0.0114066
0.00727393
0.00306915
0.000407901
0.000156786
1.00014e-05
1.00007e-05
1.56224e-05
1.82509e-05
1.63954e-05
1.59074e-05
1.60816e-05
1.6149e-05
1.61206e-05
1.61073e-05
1.61102e-05
1.61112e-05
1.61091e-05
1.61072e-05
1.61061e-05
1.61051e-05
1.61039e-05
1.61026e-05
1.61013e-05
1.60999e-05
1.60984e-05
1.6097e-05
1.60956e-05
1.60942e-05
1.60929e-05
1.60916e-05
1.60904e-05
1.60892e-05
1.60881e-05
1.60872e-05
1.60864e-05
1.60858e-05
1.60853e-05
1.60848e-05
1.60844e-05
1.6084e-05
1.60835e-05
1.6083e-05
1.60824e-05
1.60817e-05
1.60809e-05
1.60801e-05
1.60793e-05
1.60785e-05
1.60779e-05
1.60774e-05
1.60771e-05
1.60771e-05
1.60773e-05
1.60777e-05
1.60785e-05
1.60795e-05
1.60809e-05
1.60827e-05
1.60848e-05
1.60876e-05
1.60898e-05
1.60973e-05
0.0136938
0.0232784
0.0292621
0.032244
0.0331321
0.0325712
0.0310643
0.0290062
0.0266437
0.0240417
0.0211064
0.0176674
0.0135588
0.00877385
0.00393632
0.000744114
0.000285536
1.00871e-05
1.00297e-05
1.24579e-05
1.84435e-05
1.70411e-05
1.59013e-05
1.59579e-05
1.61461e-05
1.61532e-05
1.6116e-05
1.61065e-05
1.61097e-05
1.61098e-05
1.61074e-05
1.61055e-05
1.61043e-05
1.61031e-05
1.61017e-05
1.61001e-05
1.60986e-05
1.60971e-05
1.60956e-05
1.60942e-05
1.60929e-05
1.60916e-05
1.60904e-05
1.60893e-05
1.60883e-05
1.60875e-05
1.60868e-05
1.60863e-05
1.60858e-05
1.60854e-05
1.6085e-05
1.60846e-05
1.60842e-05
1.60837e-05
1.60831e-05
1.60825e-05
1.60818e-05
1.6081e-05
1.60801e-05
1.60794e-05
1.60787e-05
1.60781e-05
1.60778e-05
1.60776e-05
1.60777e-05
1.60781e-05
1.60787e-05
1.60795e-05
1.60808e-05
1.60824e-05
1.60844e-05
1.60871e-05
1.60892e-05
1.60965e-05
0.0172636
0.0279756
0.0347385
0.038315
0.0396617
0.0394303
0.0381228
0.0361431
0.0337703
0.0311237
0.0281662
0.0247689
0.0207793
0.0160722
0.0106698
0.00521589
0.00130208
3.60372e-05
1.00001e-05
1.00113e-05
1.06587e-05
1.70697e-05
1.82139e-05
1.62985e-05
1.57702e-05
1.60001e-05
1.61523e-05
1.61395e-05
1.61079e-05
1.61037e-05
1.61081e-05
1.61083e-05
1.61056e-05
1.61032e-05
1.61017e-05
1.61003e-05
1.60988e-05
1.60972e-05
1.60956e-05
1.60942e-05
1.60929e-05
1.60916e-05
1.60905e-05
1.60895e-05
1.60886e-05
1.60879e-05
1.60874e-05
1.60869e-05
1.60865e-05
1.60861e-05
1.60857e-05
1.60854e-05
1.6085e-05
1.60845e-05
1.6084e-05
1.60833e-05
1.60826e-05
1.60818e-05
1.6081e-05
1.60802e-05
1.60795e-05
1.60789e-05
1.60785e-05
1.60782e-05
1.60782e-05
1.60784e-05
1.60789e-05
1.60796e-05
1.60806e-05
1.60821e-05
1.6084e-05
1.60866e-05
1.60885e-05
1.60957e-05
0.02209
0.0330441
0.0403904
0.0445863
0.0464933
0.0467241
0.045756
0.0439844
0.041706
0.0390847
0.0361406
0.0327926
0.0289176
0.0243961
0.0191314
0.0131697
0.00704426
0.00239644
0.000851334
6.65307e-05
1.00017e-05
1.00367e-05
1.28058e-05
1.90589e-05
1.79064e-05
1.61158e-05
1.58262e-05
1.60556e-05
1.61612e-05
1.61334e-05
1.61016e-05
1.60988e-05
1.61048e-05
1.6106e-05
1.61033e-05
1.61004e-05
1.60985e-05
1.60971e-05
1.60958e-05
1.60943e-05
1.60929e-05
1.60917e-05
1.60907e-05
1.60898e-05
1.60891e-05
1.60885e-05
1.60879e-05
1.60875e-05
1.60871e-05
1.60868e-05
1.60865e-05
1.60862e-05
1.60858e-05
1.60853e-05
1.60848e-05
1.60842e-05
1.60835e-05
1.60828e-05
1.6082e-05
1.60811e-05
1.60804e-05
1.60797e-05
1.60792e-05
1.60789e-05
1.60787e-05
1.60788e-05
1.60791e-05
1.60796e-05
1.60805e-05
1.60818e-05
1.60835e-05
1.6086e-05
1.60878e-05
1.60949e-05
0.0278012
0.0384524
0.0461606
0.050934
0.0534611
0.0542702
0.0537884
0.0523813
0.0503429
0.0478646
0.0450163
0.0417667
0.0380275
0.0336991
0.0286909
0.0229333
0.0164474
0.00973524
0.00391831
0.000471742
0.000369847
1e-05
1.00096e-05
1.00628e-05
1.43395e-05
1.8855e-05
1.73372e-05
1.59747e-05
1.58457e-05
1.60792e-05
1.61726e-05
1.61392e-05
1.61009e-05
1.60938e-05
1.60999e-05
1.6103e-05
1.61009e-05
1.60977e-05
1.60954e-05
1.60941e-05