/*--------------------------------*- C++ -*----------------------------------*\
| =========                 |                                                 |
| \\      /  F ield         | OpenFOAM: The Open Source CFD Toolbox           |
|  \\    /   O peration     | Version:  2312                                  |
|   \\  /    A nd           | Website:  www.openfoam.com                      |
|    \\/     M anipulation  |                                                 |
\*---------------------------------------------------------------------------*/
FoamFile
{
    version     2.0;
    format      ascii;
    arch        "LSB;label=32;scalar=64";
    class       volScalarField;
    location    "650";
    object      turbulenceProperties:I;
}
// * * * * * * * * * * * * * * * * * * * * * * * * * * * * * * * * * * * * * //

dimensions      [0 0 0 0 0 0 0];

internalField   nonuniform List<scalar> 
11040
(
0.0593338
0.0930652
1
0.0987771
0.273555
0.288577
0.290715
0.29194
0.288864
0.287594
0.285194
0.283121
0.280637
0.278767
0.276856
0.276127
0.276796
0.278157
0.279606
0.280986
0.282301
0.283588
0.284218
0.283697
0.282301
0.281217
0.280942
0.280745
0.28095
0.282057
0.284817
0.289994
0.297917
0.313674
0.345869
0.363903
0.364189
0.532215
1
0.405458
0.697288
0.0186201
0.0241268
0.0679483
0.376864
0.587174
0.30595
0.163874
0.0956843
0.0471273
0.0493144
0.0731261
0.084527
0.0914395
0.0962511
0.0991367
0.101495
0.103996
0.106168
0.107534
0.108087
0.107951
0.107406
0.10565
0.102096
0.0970555
0.0919302
0.0874745
0.0826199
0.0775005
0.0727866
0.0701674
0.0717541
0.076873
0.0891829
0.112623
0.155097
0.244412
0.505393
1
0.451765
0.70866
0.0161671
0.0126689
0.0187584
0.0548264
0.326452
1
0.589913
0.31702
0.210917
0.16016
0.117931
0.0875267
0.0588099
0.0281328
0.0401983
0.0537582
0.0608993
0.065023
0.0670674
0.0674996
0.0667787
0.065157
0.0620627
0.0573337
0.0515496
0.0453447
0.0387462
0.0305079
0.0173253
0.0290369
0.0480568
0.0682203
0.0923653
0.123281
0.166728
0.235813
0.367952
0.706762
1
0.812
0.605843
0.0142723
0.0115978
0.00923833
0.0118394
0.0575162
0.253535
1
1
0.511138
0.34236
0.249798
0.19856
0.162951
0.134835
0.114362
0.0978294
0.0860132
0.0772994
0.0715336
0.06834
0.0667147
0.0665366
0.0678191
0.069942
0.0717757
0.0727512
0.0726064
0.0713059
0.0693344
0.0691249
0.0761547
0.0939361
0.121678
0.160561
0.216207
0.303513
0.463211
0.824407
1
1
0.628706
0.0128522
0.0109208
0.0101725
0.00646775
0.00773684
0.0502316
0.191032
0.807979
1
0.889739
0.519754
0.365709
0.287759
0.235006
0.201103
0.175146
0.157229
0.143794
0.134174
0.127488
0.122485
0.118837
0.116595
0.115504
0.114664
0.113568
0.111904
0.109522
0.10665
0.104673
0.107667
0.122144
0.151683
0.197066
0.262851
0.363578
0.537224
0.879162
1
1
0.74849
0.0112901
0.00975942
0.00888791
0.00858819
0.00432556
0.00381012
0.0383649
0.137385
0.438288
1
1
0.821061
0.542437
0.401552
0.324995
0.27347
0.240055
0.216274
0.199296
0.18744
0.178357
0.171289
0.166025
0.162326
0.159287
0.156379
0.153165
0.149297
0.144699
0.140193
0.139151
0.149596
0.179519
0.23035
0.304568
0.414174
0.589348
0.886127
1
1
0.902842
0.00976661
0.00876528
0.00787446
0.00763397
0.00722957
0.00286556
0.000648993
0.0247383
0.0940196
0.269933
0.854825
1
1
0.827757
0.574527
0.445225
0.36819
0.318062
0.284295
0.261969
0.245776
0.233753
0.224724
0.218067
0.212541
0.207455
0.202213
0.196241
0.189115
0.181086
0.174502
0.177667
0.204106
0.258218
0.338663
0.452115
0.617646
0.857997
1
1
1
0.00840815
0.00774767
0.00720492
0.00665849
0.00658563
0.00635902
0.00115682
0.000153875
0.0133596
0.0600221
0.168458
0.434845
1
1
1
0.872655
0.625041
0.498497
0.42098
0.371999
0.339306
0.317583
0.301981
0.290654
0.281425
0.273167
0.264986
0.256009
0.245334
0.232582
0.218555
0.209531
0.224224
0.276914
0.361039
0.473704
0.621714
0.806382
0.978346
1
1
0.0072271
0.0067683
0.00641893
0.00607053
0.00567273
0.00579037
0.00538861
0.00175317
0.00177657
0.00293487
0.0336076
0.101888
0.249866
0.612408
1
1
1
0.954328
0.700193
0.56954
0.491843
0.445353
0.414983
0.394161
0.378049
0.364059
0.350734
0.336876
0.321149
0.302236
0.279078
0.253269
0.241239
0.279818
0.365111
0.474728
0.602511
0.739814
0.855718
0.968816
0.961132
0.00619566
0.00587568
0.00563836
0.00542922
0.00518258
0.00490478
0.00503153
0.00456455
0.00237127
0.000931144
0.000237389
0.0159687
0.0573855
0.145207
0.326353
0.760272
1
1
1
1
0.8172
0.68292
0.606903
0.55965
0.526786
0.501267
0.478894
0.456682
0.432521
0.404585
0.370399
0.32652
0.273715
0.256508
0.33751
0.449045
0.561177
0.663644
0.740905
0.806569
0.826209
0.00530414
0.00507876
0.00491714
0.00478041
0.00464617
0.00446472
0.00429006
0.00431111
0.00413853
0.00270225
0.000735195
0.00188102
0.00227017
0.0272769
0.0796295
0.181386
0.38151
0.83341
1
1
1
1
1
0.893021
0.799564
0.736914
0.689916
0.649859
0.611416
0.570277
0.521878
0.460444
0.37736
0.255893
0.228903
0.381512
0.49612
0.579974
0.632657
0.666277
0.680758
0.00453563
0.00437625
0.00426176
0.00417513
0.00409235
0.00400332
0.00388037
0.0037534
0.00372242
0.0036771
0.00297768
0.000455451
0.000462813
0.00337248
0.00964842
0.0383847
0.0965896
0.203883
0.404422
0.820476
1
1
1
1
1
1
1
1
0.94587
0.872509
0.797989
0.713954
0.61262
0.485704
0.331025
0.307458
0.424139
0.501076
0.538157
0.549005
0.547321
0.00387505
0.00376224
0.00367975
0.00362325
0.00357624
0.00352677
0.00346942
0.00339063
0.00329765
0.00324293
0.00326373
0.00295237
0.00128745
0.000406919
0.00116836
0.00486623
0.0137118
0.0453301
0.104644
0.209045
0.393978
0.728083
1
1
1
1
1
1
1
1
1
1
1
0.961545
0.788657
0.650711
0.576626
0.551091
0.534398
0.508227
0.472805
0.0033079
0.00322846
0.00316814
0.00313059
0.00310542
0.00308187
0.0030544
0.00302045
0.00297271
0.00290827
0.00285273
0.00287992
0.00276556
0.00197897
0.000127932
0.000136478
0.00179063
0.00598242
0.0159058
0.0469289
0.102991
0.193128
0.329802
0.537301
0.840123
1
1
1
1
1
1
1
1
1
1
1
1
0.960332
0.812049
0.705638
0.607324
0.00282094
0.0027655
0.00272106
0.00269604
0.00268391
0.00267609
0.00266759
0.00265564
0.00263844
0.0026126
0.00257122
0.00253029
0.00253421
0.00249974
0.00228652
0.00110413
0.00038124
3.78618e-05
0.00236019
0.000389805
0.0151759
0.0413897
0.083218
0.144608
0.230446
0.347928
0.505075
0.704029
0.935599
1
1
1
1
1
1
1
1
1
1
1
1
0.00240287
0.0023645
0.00233163
0.00231499
0.00231066
0.00231177
0.00231419
0.00231584
0.00231479
0.00230945
0.00229828
0.00227586
0.00225079
0.00223102
0.00225289
0.00214145
0.00183549
0.000371489
0.000208902
7.03588e-05
0.00244108
0.00485507
0.00898397
0.0254012
0.0510821
0.0874644
0.136175
0.199199
0.278904
0.377648
0.496486
0.634658
0.791727
0.972463
1
1
1
1
1
1
1
0.00204687
0.0020204
0.00199619
0.00198532
0.00198558
0.00199136
0.00199951
0.0020083
0.00201633
0.0020221
0.00202457
0.0020227
0.00201494
0.00199966
0.00198918
0.00198938
0.00199909
0.00183879
0.00137674
0.000159667
0.00015326
1.37519e-05
0.00139433
0.003369
4.27414e-05
0.00851182
0.0212403
0.0394628
0.0641112
0.0957682
0.135114
0.182938
0.240088
0.307645
0.38674
0.478436
0.584639
0.710078
0.862432
1
1
0.00175456
0.00173633
0.00171867
0.00171213
0.00171532
0.00172368
0.0017347
0.00174708
0.00175958
0.0017711
0.00178064
0.00178755
0.00179135
0.00179136
0.00178583
0.00177913
0.00177646
0.00179354
0.00177771
0.00162568
0.00115569
0.00014029
0.000146116
3.29018e-05
5.05799e-06
0.00129158
0.00306719
0.00387803
0.0029185
0.00889626
0.0189373
0.032796
0.0506906
0.0729857
0.100035
0.132071
0.169381
0.212731
0.2626
0.320252
0.385027
0.0015206
0.00150806
0.00149514
0.00149162
0.00149658
0.00150624
0.00151864
0.00153282
0.00154775
0.00156241
0.00157596
0.00158772
0.0015972
0.00160427
0.00160837
0.0016095
0.00160624
0.0016064
0.00161131
0.00162383
0.00160119
0.00145011
0.00116761
0.000335341
0.000177887
8.831e-05
1.9625e-05
0
0.000367124
0.00138242
0.00279637
0.00325628
0.00316903
0.00222488
0.00830796
0.0164648
0.0272132
0.040675
0.0569073
0.0762109
0.0985186
0.00133171
0.00132296
0.00131342
0.00131192
0.0013178
0.0013279
0.00134064
0.00135528
0.00137099
0.00138692
0.00140238
0.00141682
0.00142975
0.00144082
0.0014498
0.00145665
0.001461
0.00146284
0.00146288
0.00146674
0.00147698
0.00148348
0.00147062
0.00137102
0.00118293
0.000905719
0.000212027
0.000139966
8.13299e-05
5.7321e-05
8.09463e-06
0
0
0.000234235
0.00125511
0.00245971
0.00303019
0.00264781
0.000843278
0.00310417
0.00672129
0.00117545
0.00116931
0.00116226
0.00116216
0.00116848
0.00117859
0.00119119
0.00120565
0.0012213
0.00123741
0.00125341
0.00126887
0.00128339
0.00129662
0.00130831
0.0013183
0.00132655
0.00133296
0.00133741
0.00134007
0.00134241
0.00134892
0.00135777
0.0013724
0.00136456
0.00133635
0.00124787
0.00109756
0.000896874
0.000652417
9.65791e-05
0.000103646
7.33474e-05
5.8726e-05
4.23115e-05
1.3541e-05
0
0
0.000150397
0.000372884
0.000862176
0.00104406
0.00103977
0.00103463
0.00103552
0.001042
0.00105187
0.00106406
0.00107802
0.00109318
0.00110893
0.00112475
0.00114031
0.00115526
0.00116931
0.00118223
0.00119385
0.00120407
0.00121284
0.00122018
0.00122611
0.00123028
0.00123368
0.00123708
0.00124353
0.00125284
0.00126177
0.00127299
0.00126998
0.0012479
0.0012126
0.00113857
0.00102931
0.000897403
0.000734082
0.000545835
0.000182008
0.000107698
6.54922e-05
5.6996e-05
4.82604e-05
3.84629e-05
0.000932015
0.000929048
0.000925389
0.000926977
0.000933435
0.000942933
0.000954564
0.000967848
0.000982281
0.000997338
0.00101259
0.00102773
0.00104248
0.00105658
0.00106982
0.00108204
0.00109314
0.00110304
0.00111171
0.00111924
0.00112538
0.00113033
0.00113446
0.00113771
0.00114117
0.00114515
0.00115133
0.00115942
0.00116773
0.00117409
0.0011813
0.00117934
0.00116743
0.00114527
0.00111557
0.00106678
0.000999399
0.000913989
0.000812875
0.000703915
0.000578508
0.000835402
0.000833404
0.000830913
0.000832993
0.000839322
0.000848373
0.000859373
0.000871896
0.000885488
0.000899705
0.00091416
0.000928591
0.000942766
0.000956445
0.000969438
0.000981613
0.000992859
0.0010031
0.00101228
0.00102043
0.00102735
0.00103319
0.00103828
0.00104237
0.00104562
0.00104826
0.0010505
0.0010528
0.00105565
0.00105894
0.00106329
0.00106841
0.00107347
0.00107775
0.00108069
0.00108381
0.0010836
0.00107873
0.00106903
0.00105334
0.00103741
0.00075132
0.000750038
0.000748477
0.000750899
0.00075703
0.000765596
0.000775939
0.000787664
0.000800371
0.000813669
0.000827217
0.000840783
0.000854173
0.000867166
0.000879595
0.000891333
0.00090228
0.000912352
0.000921491
0.000929714
0.000936795
0.000942852
0.000948162
0.00095254
0.000956078
0.000958915
0.000961102
0.000962684
0.000963765
0.000964473
0.000964885
0.000965211
0.000965558
0.000966037
0.000966598
0.00096743
0.000968428
0.0009695
0.000970681
0.000970777
0.000972615
0.000677577
0.000676829
0.000676017
0.000678673
0.000684567
0.000692641
0.000702326
0.000713256
0.000725075
0.000737433
0.000750035
0.000762669
0.000775163
0.000787323
0.000798998
0.00081007
0.000820449
0.000830049
0.000838811
0.000846737
0.000853607
0.000859515
0.000864703
0.000868978
0.000872424
0.000875167
0.00087728
0.000878799
0.000879757
0.0008802
0.000880159
0.000879677
0.000878775
0.000877525
0.000875999
0.000874218
0.000872191
0.000870012
0.000868004
0.000865411
0.000864765
0.000612473
0.000612137
0.000611929
0.000614741
0.000620382
0.000627973
0.000637018
0.000647177
0.000658128
0.000669559
0.000681213
0.000692895
0.000704449
0.000715711
0.000726539
0.000736825
0.000746486
0.000755442
0.00076363
0.000771048
0.000777483
0.000783023
0.000787887
0.000791883
0.000795073
0.000797575
0.000799455
0.000800753
0.000801513
0.000801779
0.000801592
0.000800991
0.000799987
0.000798626
0.00079696
0.000795001
0.000792723
0.000790154
0.000787599
0.000784236
0.000783082
0.000554679
0.00055466
0.000554947
0.000557865
0.000563251
0.000570383
0.000578818
0.000588242
0.000598361
0.000608902
0.000619633
0.000630376
0.000640993
0.000651344
0.000661291
0.000670741
0.000679614
0.000687839
0.000695354
0.000702153
0.000708036
0.00071309
0.00071752
0.000721139
0.000723997
0.000726199
0.000727808
0.000728862
0.000729403
0.000729475
0.000729119
0.000728378
0.000727268
0.000725837
0.000724137
0.000722185
0.000719958
0.000717479
0.000715044
0.000711798
0.000710933
0.000503126
0.000503363
0.00050406
0.000507049
0.000512191
0.000518892
0.000526754
0.000535488
0.000544823
0.000554519
0.000564366
0.000574206
0.000583915
0.000593369
0.00060244
0.000611046
0.000619114
0.000626579
0.000633382
0.000639517
0.0006448
0.000649317
0.000653266
0.000656466
0.000658959
0.000660842
0.000662171
0.000662982
0.000663316
0.000663214
0.000662716
0.000661863
0.000660673
0.00065919
0.000657465
0.000655516
0.000653323
0.000650905
0.000648551
0.00064542
0.000644711
0.000456949
0.000457396
0.000458446
0.000461485
0.000466399
0.000472702
0.000480035
0.000488127
0.000496732
0.000505636
0.000514652
0.000523637
0.000532482
0.000541071
0.000549296
0.00055708
0.000564357
0.000571068
0.00057716
0.000582628
0.000587304
0.000591275
0.000594732
0.000597507
0.00059963
0.000601194
0.000602254
0.000602841
0.000602991
0.000602746
0.000602141
0.000601218
0.000599991
0.000598503
0.000596799
0.000594897
0.000592778
0.000590458
0.000588207
0.000585222
0.00058465
0.000415434
0.000416071
0.000417425
0.000420504
0.000425215
0.000431157
0.000438005
0.000445505
0.000453437
0.000461607
0.00046985
0.000478037
0.000486069
0.000493845
0.00050127
0.000508271
0.000514794
0.000520784
0.000526192
0.000531017
0.000535106
0.000538549
0.000541532
0.000543896
0.000545666
0.00054693
0.00054774
0.000548125
0.000548118
0.000547756
0.000547074
0.000546107
0.000544871
0.000543402
0.000541742
0.000539909
0.000537886
0.000535685
0.000533555
0.000530743
0.000530284
0.000377992
0.000378808
0.000380438
0.000383554
0.000388086
0.000393703
0.000400111
0.000407072
0.000414386
0.000421882
0.000429413
0.000436861
0.000444138
0.000451156
0.000457836
0.000464106
0.000469922
0.000475236
0.000480007
0.000484231
0.000487777
0.000490732
0.000493277
0.000495264
0.000496717
0.000497713
0.000498303
0.000498513
0.000498374
0.00049792
0.000497182
0.000496192
0.000494964
0.000493533
0.000491934
0.000490185
0.00048827
0.000486198
0.000484195
0.000481572
0.000481179
0.000344131
0.000345129
0.000347007
0.000350165
0.000354543
0.000359871
0.000365884
0.000372358
0.000379112
0.000385995
0.000392873
0.000399644
0.000406226
0.000412549
0.00041854
0.000424136
0.000429298
0.000433987
0.000438168
0.00044184
0.000444886
0.000447393
0.000449539
0.000451181
0.000452344
0.0004531
0.000453496
0.000453556
0.000453307
0.00045278
0.000452003
0.000451007
0.000449803
0.000448421
0.000446894
0.000445236
0.000443434
0.000441495
0.000439617
0.00043719
0.000436818
0.000313437
0.000314621
0.000316734
0.000319937
0.000324186
0.000329265
0.000334927
0.000340966
0.000347217
0.000353546
0.000359834
0.00036599
0.000371941
0.000377629
0.000382992
0.000387974
0.000392542
0.000396665
0.000400314
0.000403492
0.000406097
0.00040821
0.000410005
0.000411352
0.000412269
0.000412826
0.000413065
0.000413007
0.000412679
0.000412106
0.000411316
0.000410333
0.000409169
0.000407849
0.000406403
0.000404841
0.000403153
0.000401347
0.000399586
0.000397364
0.000396941
0.000285557
0.000286939
0.000289271
0.000292529
0.000296677
0.000301542
0.000306898
0.000312553
0.000318356
0.000324189
0.000329947
0.000335549
0.00034093
0.000346044
0.000350837
0.000355262
0.000359292
0.000362902
0.000366069
0.000368797
0.000371001
0.000372757
0.000374234
0.00037531
0.000376003
0.000376378
0.000376474
0.000376313
0.000375913
0.000375302
0.000374501
0.000373534
0.000372411
0.000371153
0.000369786
0.000368319
0.000366743
0.000365067
0.000363419
0.000361401
0.000360901
0.00026019
0.000261782
0.000264327
0.000267647
0.000271722
0.00027641
0.000281502
0.00028682
0.000292229
0.000297621
0.000302907
0.000308013
0.000312886
0.000317486
0.00032177
0.0003257
0.000329255
0.000332416
0.000335167
0.000337514
0.000339385
0.00034085
0.000342071
0.000342937
0.000343463
0.000343708
0.00034371
0.000343485
0.000343053
0.000342435
0.000341652
0.000340722
0.000339656
0.000338472
0.00033719
0.000335819
0.000334351
0.000332798
0.00033125
0.000329441
0.000328766
0.00023708
0.000238896
0.000241645
0.00024504
0.000249066
0.000253609
0.000258477
0.000263504
0.000268568
0.000273572
0.000278439
0.000283104
0.000287523
0.000291662
0.000295488
0.00029897
0.000302092
0.000304839
0.000307202
0.000309188
0.00031074
0.000311919
0.000312885
0.000313535
0.000313885
0.000313989
0.000313882
0.000313581
0.000313102
0.000312464
0.000311684
0.00031078
0.000309759
0.000308637
0.000307431
0.000306148
0.000304781
0.000303343
0.000301893
0.000300275
0.000299461
0.000216007
0.00021806
0.000221008
0.000224488
0.000228491
0.00023292
0.000237598
0.000242373
0.000247135
0.000251798
0.000256293
0.000260571
0.00026459
0.000268329
0.000271763
0.00027487
0.000277636
0.000280057
0.000282127
0.000283856
0.000285196
0.000286197
0.000287012
0.000287547
0.000287814
0.000287863
0.000287724
0.000287413
0.000286943
0.000286331
0.000285593
0.000284743
0.000283789
0.000282743
0.000281622
0.000280431
0.000279162
0.000277835
0.000276465
0.000275068
0.000273932
0.000196787
0.000199084
0.000202224
0.000205803
0.000209805
0.000214146
0.000218662
0.000223216
0.000227709
0.00023207
0.000236237
0.000240167
0.000243828
0.000247198
0.000250261
0.000253001
0.000255408
0.000257482
0.000259221
0.000260639
0.000261699
0.000262452
0.000263043
0.000263388
0.000263497
0.000263421
0.000263186
0.000262807
0.000262295
0.000261666
0.000260933
0.000260107
0.000259195
0.000258207
0.000257154
0.00025604
0.000254861
0.000253633
0.000252352
0.000251103
0.000249885
0.000179252
0.0001818
0.000185128
0.000188812
0.000192829
0.000197101
0.000201476
0.00020583
0.000210082
0.00021417
0.000218048
0.000221681
0.000225044
0.000228129
0.000230929
0.000233432
0.000235635
0.000237538
0.000239141
0.000240457
0.000241455
0.000242164
0.000242726
0.000243061
0.000243181
0.000243127
0.000242927
0.000242592
0.000242132
0.000241563
0.000240895
0.00024014
0.000239306
0.000238399
0.000237432
0.00023641
0.000235324
0.000234203
0.000232988
0.000232002
0.000230254
0.000163254
0.00016607
0.00016959
0.000173383
0.000177409
0.000181604
0.000185841
0.000190013
0.000194045
0.000197887
0.000201499
0.000204854
0.000207928
0.000210697
0.000213151
0.000215287
0.000217112
0.000218643
0.00021989
0.000220869
0.000221561
0.000222008
0.000222337
0.000222476
0.000222437
0.000222259
0.000221965
0.000221564
0.000221067
0.000220482
0.00021982
0.000219088
0.000218291
0.000217435
0.000216527
0.000215567
0.000214555
0.000213508
0.000212378
0.000211421
0.000209881
0.000148709
0.000151814
0.000155541
0.000159443
0.000163457
0.000167535
0.000171596
0.000175567
0.000179394
0.000183027
0.000186425
0.000189566
0.000192458
0.00019512
0.000197566
0.000199766
0.000201692
0.000203336
0.000204704
0.000205812
0.000206645
0.000207212
0.000207648
0.000207889
0.000207949
0.000207865
0.00020766
0.000207344
0.000206927
0.000206422
0.000205839
0.000205189
0.000204476
0.000203707
0.000202893
0.000202039
0.000201133
0.000200218
0.000199155
0.000198613
0.000196108
0.000135633
0.00013899
0.000142876
0.000146857
0.000150837
0.00015478
0.00015863
0.00016235
0.000165925
0.000169335
0.000172542
0.000175481
0.000178079
0.000180276
0.000182082
0.000183581
0.000184857
0.000185937
0.000186824
0.000187514
0.000187994
0.000188299
0.000188518
0.000188593
0.000188533
0.000188365
0.000188108
0.000187769
0.000187354
0.000186869
0.000186321
0.000185715
0.000185053
0.000184338
0.000183574
0.000182758
0.000181897
0.000180994
0.000180015
0.00017917
0.000177717
0.000123965
0.000127476
0.000131362
0.000135254
0.000139095
0.000142888
0.000146587
0.000150127
0.000153468
0.000156604
0.000159571
0.000162441
0.00016528
0.000168114
0.000170866
0.000173325
0.000175357
0.000176998
0.00017831
0.000179352
0.000180125
0.000180624
0.000180986
0.000181169
0.000181192
0.000181089
0.000180882
0.000180582
0.000180201
0.000179751
0.000179244
0.000178689
0.000178092
0.000177461
0.000176805
0.000176132
0.000175425
0.00017475
0.000173863
0.000173892
0.00017039
0.000113322
0.000117067
0.000120905
0.000124525
0.000127966
0.000131368
0.00013479
0.000138218
0.000141575
0.000144721
0.000147481
0.0001497
0.000151309
0.000152346
0.000153029
0.000153773
0.00015476
0.000155818
0.000156816
0.00015768
0.000158394
0.000158984
0.000159482
0.000159845
0.000160076
0.000160198
0.000160225
0.000160162
0.000160014
0.000159786
0.000159484
0.00015911
0.000158667
0.000158156
0.000157577
0.000156924
0.000156217
0.00015542
0.000154616
0.000153519
0.000153106
0.000103532
0.000107982
0.000112206
0.000115807
0.00011884
0.000121537
0.000124095
0.000126678
0.000129439
0.000132511
0.000135979
0.000139854
0.000144034
0.000148332
0.0001524
0.000155581
0.000157724
0.00015929
0.000160476
0.000161376
0.000161982
0.000162317
0.000162496
0.000162504
0.000162371
0.000162127
0.000161796
0.000161392
0.000160932
0.000160431
0.000159902
0.000159357
0.000158806
0.000158256
0.000157719
0.000157213
0.000156704
0.000156308
0.000155605
0.000156439
0.000151416
9.58011e-05
0.000100528
0.000104948
0.000108837
0.00011216
0.000114957
0.000117217
0.000118932
0.000120137
0.000120918
0.000121394
0.000121692
0.000121937
0.000122149
0.000122433
0.000123498
0.000125353
0.000127367
0.000129339
0.000131152
0.000132785
0.000134245
0.000135558
0.000136712
0.000137702
0.000138539
0.000139235
0.000139794
0.000140219
0.00014051
0.000140669
0.000140695
0.000140588
0.000140343
0.000139959
0.000139422
0.000138765
0.000137878
0.000137069
0.000135086
0.00013622
9.95633e-05
0.00010538
0.000108288
0.000108735
0.000107925
0.000107437
0.000108631
0.000111997
0.00011704
0.000122833
0.00012856
0.00013371
0.000138028
0.000141503
0.000144113
0.000145289
0.000145219
0.00014459
0.000143709
0.000142691
0.000141484
0.000140367
0.000139152
0.000137897
0.000136633
0.000135364
0.000134093
0.000132821
0.000131549
0.000130273
0.000128987
0.000127686
0.000126355
0.00012498
0.000123557
0.000122095
0.000120513
0.000118954
0.000116831
0.000116672
0.000108083
0.445738
0.345929
0.287152
0.233668
0.18254
0.136481
0.0976315
0.0664651
0.0422846
0.0251277
0.014676
0.0025758
0.00110746
0.000105273
0.00133357
0.00150084
0.00130303
0.00120648
0.00114892
0.00108468
0.00101681
0.000951583
0.000888748
0.000827429
0.000768791
0.000711324
0.000658762
0.000605974
0.000556679
0.000508825
0.000464177
0.000420804
0.000379986
0.000340909
0.00030445
0.000269908
0.00023782
0.000207434
0.000180196
0.000152806
0.000128951
0.000107386
8.56879e-05
6.72729e-05
5.28517e-05
4.02766e-05
3.91637e-05
4.47634e-05
4.44028e-05
4.11549e-05
3.98291e-05
3.46662e-05
3.07438e-05
2.76746e-05
2.95037e-05
3.43872e-05
3.88288e-05
4.28538e-05
4.62079e-05
4.88014e-05
5.06938e-05
5.19485e-05
5.26288e-05
5.27031e-05
5.22153e-05
5.11208e-05
4.95889e-05
4.72784e-05
4.50241e-05
4.07557e-05
4.02972e-05
3.36471e-05
4.62707e-05
4.48884e-05
0.716524
0.519053
0.400976
0.317616
0.250236
0.193617
0.146553
0.108169
0.0768244
0.0505195
0.0293013
0.0157038
0.00377736
0.00190197
0.000357704
0.00105822
0.00142746
0.00126739
0.00114064
0.00108167
0.0010217
0.000956798
0.000893983
0.000832902
0.000774691
0.00071722
0.000664674
0.000612212
0.000562896
0.000515187
0.000470562
0.000427632
0.000387078
0.000348512
0.000312534
0.000278491
0.000247003
0.000217216
0.000190632
0.000164271
0.000140709
0.000120306
9.99329e-05
8.23008e-05
6.80312e-05
5.36222e-05
4.63711e-05
4.52408e-05
4.3326e-05
3.91074e-05
3.87517e-05
3.43309e-05
3.15519e-05
2.88537e-05
2.97825e-05
3.34094e-05
3.7041e-05
4.06235e-05
4.37097e-05
4.61276e-05
4.78963e-05
4.9033e-05
4.97581e-05
4.97352e-05
4.92218e-05
4.80825e-05
4.64365e-05
4.41805e-05
4.18946e-05
3.73784e-05
3.76009e-05
3.04722e-05
4.56404e-05
4.40239e-05
0.917761
0.695268
0.528723
0.413075
0.326058
0.256783
0.200534
0.154839
0.11742
0.0856763
0.0574579
0.0328542
0.0166583
0.00501908
0.00276401
0.000274339
0.000647478
0.00129961
0.00122783
0.00108676
0.00101625
0.000959933
0.000899136
0.000838275
0.000780709
0.000724364
0.000670897
0.000619348
0.000570162
0.000522787
0.000477916
0.000435253
0.000394973
0.000356959
0.00032125
0.000287765
0.000256681
0.000227436
0.000200936
0.000175906
0.000152124
0.000131875
0.000112195
9.44192e-05
7.91642e-05
6.42867e-05
5.45498e-05
4.61854e-05
4.09118e-05
3.63966e-05
3.48205e-05
3.07898e-05
2.79108e-05
2.47614e-05
2.49824e-05
2.84677e-05
3.22353e-05
3.60025e-05
3.91272e-05
4.16639e-05
4.34368e-05
4.46725e-05
4.54833e-05
4.54363e-05
4.49945e-05
4.3793e-05
4.22257e-05
3.99709e-05
3.77577e-05
3.28775e-05
3.46684e-05
2.69946e-05
4.51557e-05
4.3497e-05
1
0.900894
0.680791
0.526499
0.415054
0.329949
0.262665
0.20861
0.164552
0.127516
0.0947831
0.0644411
0.0368945
0.0178696
0.00629618
0.00373938
0.0001571
0.000123993
0.0011301
0.00117965
0.00103872
0.00095571
0.000902465
0.000845476
0.000787231
0.000731116
0.000677483
0.000626441
0.000577304
0.000530185
0.000485222
0.000442718
0.000402559
0.000364806
0.000329316
0.00029616
0.000265342
0.000236441
0.000210019
0.000185485
0.00016173
0.000141363
0.00012182
0.00010377
8.80027e-05
7.26331e-05
6.14263e-05
5.02917e-05
4.17787e-05
3.60351e-05
3.26569e-05
2.86961e-05
2.55273e-05
2.13399e-05
1.89951e-05
2.15143e-05
2.57018e-05
2.99395e-05
3.33674e-05
3.61568e-05
3.81195e-05
3.95173e-05
4.0477e-05
4.05025e-05
4.01624e-05
3.89953e-05
3.75464e-05
3.52856e-05
3.3331e-05
2.78815e-05
3.24148e-05
2.41792e-05
4.51271e-05
4.3398e-05
1
1
0.87786
0.669564
0.524319
0.417689
0.335936
0.271467
0.219494
0.176351
0.138942
0.104769
0.0723281
0.0423359
0.0200429
0.00801431
0.00475856
0.000417883
0.000300389
0.000864434
0.00112277
0.00100612
0.000901061
0.000844956
0.000794742
0.000739376
0.000684463
0.000633198
0.000584149
0.000537176
0.000492154
0.000449724
0.000409577
0.000371881
0.000336559
0.000303545
0.00027287
0.000244157
0.000217833
0.000193273
0.000169613
0.000149094
0.000129352
0.000111051
9.48009e-05
7.89955e-05
6.67173e-05
5.43448e-05
4.406e-05
3.70343e-05
3.23722e-05
2.87508e-05
2.60582e-05
2.23402e-05
1.74678e-05
1.22657e-05
1.59282e-05
2.16475e-05
2.59497e-05
2.93432e-05
3.17217e-05
3.3454e-05
3.47055e-05
3.49103e-05
3.47542e-05
3.37298e-05
3.24791e-05
3.02845e-05
2.90542e-05
2.27375e-05
3.1444e-05
2.29978e-05
4.55634e-05
4.3607e-05
1
1
1
0.866661
0.667532
0.528254
0.425601
0.346875
0.284594
0.233748
0.190581
0.152153
0.116313
0.0820115
0.0498259
0.0241202
0.0100411
0.00185669
7.75617e-05
0.000223491
0.000586557
0.00101429
0.00098992
0.00086389
0.000788551
0.000741695
0.000692648
0.000641004
0.000590879
0.000543763
0.000498871
0.000456431
0.000416222
0.00037847
0.000343181
0.000310212
0.000279554
0.000250905
0.000224567
0.000199884
0.000176196
0.000155452
0.000135397
0.00011679
0.000100019
8.37186e-05
7.05056e-05
5.71731e-05
4.57295e-05
3.75545e-05
3.25087e-05
2.99312e-05
2.86799e-05
2.68457e-05
2.39281e-05
1.96757e-05
1.39645e-05
6.73936e-06
1.4954e-05
2.01689e-05
2.35391e-05
2.59669e-05
2.78028e-05
2.83638e-05
2.85759e-05
2.78579e-05
2.70978e-05
2.51766e-05
2.57596e-05
1.89231e-05
3.19383e-05
2.38526e-05
4.63411e-05
4.40272e-05
1
1
1
1
0.874622
0.678231
0.541632
0.441198
0.364097
0.302631
0.251691
0.207603
0.167678
0.130159
0.0941194
0.060003
0.0309581
0.0133454
0.00745674
0.00209411
0.000131759
0.00026886
0.000755725
0.00095951
0.000863603
0.000751954
0.000689739
0.000645721
0.00059898
0.000550879
0.000505036
0.00046246
0.000422366
0.000384573
0.000349173
0.000316148
0.000285432
0.000256785
0.000230329
0.000205507
0.000181712
0.000160672
0.000140264
0.000121302
0.000103998
8.71603e-05
7.30832e-05
5.88553e-05
4.643e-05
3.73776e-05
3.28815e-05
3.21708e-05
3.26132e-05
3.23497e-05
3.09312e-05
2.86379e-05
2.55611e-05
2.1408e-05
1.65478e-05
1.07619e-05
1.09778e-05
1.52305e-05
1.86248e-05
2.0077e-05
2.12168e-05
2.12702e-05
2.20235e-05
2.10152e-05
2.47428e-05
1.96671e-05
3.34335e-05
2.59124e-05
4.72916e-05
4.46031e-05
1
1
1
1
1
0.905754
0.704903
0.566967
0.46604
0.388417
0.326048
0.273738
0.227925
0.186186
0.146908
0.10926
0.0733692
0.0414873
0.0183217
0.0052638
0.00438292
0
0.000181579
0.000273997
0.000747521
0.00083743
0.000738902
0.000649263
0.000597108
0.000555998
0.000512618
0.000468906
0.000427766
0.000389756
0.000354412
0.000321362
0.000290519
0.000261779
0.000235167
0.000210198
0.000186302
0.000164923
0.00014416
0.000124834
0.000107011
8.96607e-05
7.47722e-05
5.97565e-05
4.64697e-05
3.71804e-05
3.4203e-05
3.56215e-05
3.73049e-05
3.7973e-05
3.7356e-05
3.59051e-05
3.37027e-05
3.07033e-05
2.73421e-05
2.34732e-05
1.93914e-05
1.46894e-05
9.53377e-06
1.05095e-05
1.42589e-05
1.65413e-05
2.0252e-05
2.08014e-05
2.62888e-05
2.33411e-05
3.53478e-05
2.82609e-05
4.82945e-05
4.52724e-05
1
1
1
1
1
1
0.966486
0.75174
0.60691
0.50171
0.420839
0.355602
0.300597
0.252302
0.208342
0.167192
0.127948
0.0904722
0.0560338
0.0278123
0.0106904
0.00656965
0.00231047
5.83997e-05
0.000185785
0.000400056
0.000703888
0.000721561
0.000629824
0.000555063
0.000509584
0.000472674
0.000434157
0.000395292
0.000358843
0.00032547
0.000294688
0.000265977
0.000239203
0.000214038
0.000190032
0.000168332
0.000147259
0.000127601
0.000109272
9.14541e-05
7.58156e-05
6.01422e-05
4.62612e-05
3.76363e-05
3.68576e-05
3.99029e-05
4.22872e-05
4.34332e-05
4.32433e-05
4.22083e-05
4.04278e-05
3.79298e-05
3.51177e-05
3.19666e-05
2.87797e-05
2.55118e-05
2.22903e-05
2.04808e-05
1.99497e-05
2.07927e-05
2.35615e-05
2.43148e-05
2.91234e-05
2.7158e-05
3.73465e-05
3.0508e-05
4.92852e-05
4.59723e-05
0.857986
1
1
1
1
1
1
1
0.825301
0.665332
0.550657
0.463057
0.392606
0.333395
0.281662
0.234952
0.191646
0.150705
0.111697
0.0750001
0.0427407
0.0194158
0.0059996
0.00478217
0.000861416
8.30538e-05
0.000178114
0.000434714
0.000638321
0.000627193
0.000540273
0.000472245
0.000430205
0.000397322
0.000363973
0.0003302
0.000298272
0.000269074
0.000242285
0.000217174
0.000193127
0.000171074
0.000149692
0.000129734
0.000110956
9.27433e-05
7.6418e-05
6.02655e-05
4.61742e-05
3.92456e-05
4.05465e-05
4.45593e-05
4.72631e-05
4.86408e-05
4.86761e-05
4.78601e-05
4.63062e-05
4.40707e-05
4.15142e-05
3.86659e-05
3.57889e-05
3.28935e-05
3.00651e-05
2.81762e-05
2.69509e-05
2.67506e-05
2.81262e-05
2.84415e-05
3.21959e-05
3.05428e-05
3.9277e-05
3.25533e-05
5.02289e-05
4.66584e-05
0.680971
0.756749
1
1
1
1
1
1
1
0.937194
0.748937
0.617118
0.51797
0.439196