/*--------------------------------*- C++ -*----------------------------------*\
| =========                 |                                                 |
| \\      /  F ield         | OpenFOAM: The Open Source CFD Toolbox           |
|  \\    /   O peration     | Version:  2312                                  |
|   \\  /    A nd           | Website:  www.openfoam.com                      |
|    \\/     M anipulation  |                                                 |
\*---------------------------------------------------------------------------*/
FoamFile
{
    version     2.0;
    format      ascii;
    arch        "LSB;label=32;scalar=64";
    class       volSymmTensorField;
    location    "650";
    object      turbulenceProperties:devReff;
}
// * * * * * * * * * * * * * * * * * * * * * * * * * * * * * * * * * * * * * //

dimensions      [0 2 -2 0 0 0 0];

internalField   nonuniform List<symmTensor> 
11040
(
(0.0179746 0.0953504 -1.72136e-22 -0.0279478 1.1666e-20 0.00997325)
(0.0668425 0.0876905 9.69822e-21 -0.0796514 1.35503e-19 0.0128089)
(0.012038 0.00961706 -2.96598e-20 -0.0105454 9.09255e-20 -0.00149261)
(-0.00519146 0.0107617 -7.06508e-20 0.00562064 3.95944e-20 -0.00042918)
(-0.068884 0.0482471 -2.19496e-20 0.0691842 1.99051e-19 -0.00030016)
(-0.0620315 0.0589467 -3.03623e-19 0.0627411 1.10359e-19 -0.000709576)
(-0.052335 0.0617304 1.74044e-19 0.0526133 -1.14467e-18 -0.000278225)
(-0.0425468 0.0598856 2.42177e-19 0.0426982 -1.69196e-19 -0.000151379)
(-0.0337805 0.0563852 1.04198e-19 0.03388 -3.02863e-20 -9.94628e-05)
(-0.0275659 0.0541802 9.69486e-20 0.0275656 1.54087e-19 3.19624e-07)
(-0.0224752 0.0515385 -8.61828e-20 0.0224833 3.68033e-19 -8.04757e-06)
(-0.0181959 0.0489756 -1.29129e-19 0.0181751 2.75269e-19 2.08219e-05)
(-0.0146168 0.0467496 2.13443e-20 0.0145591 -1.5935e-19 5.76462e-05)
(-0.0116987 0.0450436 2.69376e-20 0.011641 1.54913e-19 5.77447e-05)
(-0.00914087 0.0436298 -1.21062e-20 0.00905739 1.23423e-20 8.34803e-05)
(-0.00700468 0.0431385 -4.74036e-21 0.00691046 -2.02405e-19 9.42196e-05)
(-0.00509911 0.0435262 5.59475e-20 0.00498765 -1.14815e-21 0.000111463)
(-0.00328696 0.0448002 -5.40347e-21 0.00315701 3.67675e-19 0.000129951)
(-0.00144722 0.0468437 -3.17579e-20 0.00130055 3.17296e-21 0.000146667)
(0.000527351 0.049645 5.1254e-21 -0.000696258 -5.35466e-20 0.000168907)
(0.00274211 0.0533001 2.42823e-20 -0.00292306 4.10763e-20 0.00018095)
(0.00506271 0.0576907 -2.66321e-20 -0.00524714 1.24235e-19 0.000184429)
(0.00732895 0.0628116 1.04491e-21 -0.00752789 -1.02423e-19 0.000198943)
(0.00974941 0.0687069 1.36321e-20 -0.00995932 2.62608e-19 0.000209907)
(0.012431 0.0753501 -7.96942e-20 -0.0126341 -2.36396e-19 0.000203058)
(0.0154274 0.0830405 -4.26291e-20 -0.0156088 -5.5221e-19 0.000181498)
(0.018719 0.0915355 1.15129e-20 -0.0188654 -2.5726e-19 0.000146432)
(0.0220094 0.0994886 3.44373e-20 -0.0221037 7.33894e-20 9.43045e-05)
(0.0250565 0.106127 -2.34716e-20 -0.0250801 -2.10471e-19 2.35541e-05)
(0.0275384 0.110601 1.4472e-20 -0.0274783 -4.91407e-19 -6.01058e-05)
(0.0291289 0.112041 1.25175e-19 -0.0289857 3.54794e-19 -0.000143258)
(0.0296258 0.109836 2.36887e-20 -0.0294009 -2.4577e-20 -0.000224917)
(0.028993 0.104394 1.1232e-19 -0.0286869 9.97966e-19 -0.000306049)
(0.0275511 0.0975924 -9.26563e-20 -0.0271456 6.16155e-19 -0.000405471)
(0.0256871 0.0914698 5.10722e-20 -0.0250926 8.67427e-21 -0.000594461)
(0.018202 0.0681099 1.33666e-19 -0.0175212 9.3196e-19 -0.000680719)
(0.00793427 0.0351326 9.29967e-21 -0.00740445 1.76321e-19 -0.000529822)
(0.0018367 0.0207797 -3.29846e-20 -0.00100707 5.85523e-19 -0.000829624)
(-0.00751114 0.00426216 -4.49227e-19 0.00791881 -1.15984e-18 -0.000407672)
(-0.0184279 -0.0346414 1.09517e-20 0.0196009 -9.25661e-19 -0.00117299)
(-0.0610881 -0.0276136 1.91308e-19 0.0676058 5.22827e-20 -0.00651762)
(0.00577836 -0.00595084 5.84738e-22 -0.00414727 -1.72062e-21 -0.00163109)
(0.0170159 0.00201419 2.61681e-20 -0.0102764 5.32038e-21 -0.00673943)
(0.0522515 0.0323741 5.80394e-20 -0.0538463 -3.01113e-19 0.00159484)
(0.123983 0.0329148 7.9027e-20 -0.124686 -1.78581e-19 0.000702694)
(0.244689 -0.021046 8.29393e-20 -0.24448 -4.92019e-19 -0.000208872)
(0.0651054 -0.0479302 5.62582e-19 -0.06457 -1.19335e-18 -0.000535374)
(0.0171931 -0.0185853 -8.23392e-19 -0.0163673 3.22729e-18 -0.000825754)
(0.0039641 -0.00729688 -8.26757e-19 -0.00417906 2.13678e-18 0.000214962)
(3.3615e-05 -0.00194839 -7.50849e-20 -0.000150976 -1.51588e-19 0.000117361)
(-0.00145825 0.00154131 -1.03086e-19 0.00135268 4.03961e-20 0.000105571)
(-0.00235729 0.00383494 4.59301e-19 0.00238045 -1.1576e-18 -2.3157e-05)
(-0.00257842 0.00525427 -8.41398e-22 0.00269706 -7.3023e-20 -0.000118635)
(-0.00237973 0.0063264 -1.6631e-19 0.00249717 6.82211e-19 -0.000117442)
(-0.00216187 0.00709244 -1.1288e-19 0.0023376 3.47123e-20 -0.000175738)
(-0.00179496 0.00764068 -4.48346e-20 0.00198625 -1.73754e-19 -0.000191292)
(-0.00141282 0.00817101 1.06235e-20 0.00163043 5.9381e-19 -0.000217606)
(-0.00102891 0.00880498 -1.48323e-20 0.00127512 1.99426e-19 -0.000246205)
(-0.000609486 0.00949899 -9.15119e-21 0.000881734 -5.58466e-19 -0.000272249)
(-0.000150558 0.0101728 -2.38828e-20 0.000454732 -2.58221e-20 -0.000304174)
(0.000366461 0.0108332 -7.44516e-21 -4.2226e-05 8.33027e-20 -0.000324235)
(0.000946459 0.0114931 -1.10153e-20 -0.000610762 -1.5614e-20 -0.000335697)
(0.00155966 0.0121793 3.14003e-20 -0.00121683 -2.7932e-19 -0.000342832)
(0.0021068 0.0126973 2.38508e-20 -0.00174886 3.9226e-19 -0.000357942)
(0.00255021 0.012836 -4.70654e-20 -0.00219387 -3.57371e-19 -0.000356333)
(0.0028448 0.0125379 -6.55814e-21 -0.00251763 2.89584e-19 -0.000327172)
(0.00301247 0.0120624 7.53073e-20 -0.0027335 9.33187e-19 -0.000278966)
(0.00307067 0.0115646 1.40831e-19 -0.00285412 5.16039e-19 -0.000216553)
(0.00289911 0.0107593 -3.47483e-20 -0.00277368 1.44343e-19 -0.000125433)
(0.00246043 0.00969824 -9.27872e-20 -0.00246383 2.87326e-19 3.3993e-06)
(0.00176899 0.00858851 4.53364e-20 -0.00192915 5.12465e-19 0.000160161)
(0.00087827 0.00782107 -1.1384e-19 -0.00120372 -7.86321e-19 0.000325452)
(-0.000314439 0.00770583 -5.98294e-20 -0.000192764 -1.27591e-18 0.000507202)
(-0.00208762 0.00766642 -1.39672e-19 0.00136908 -2.68963e-18 0.000718535)
(-0.00440281 0.00790881 6.43836e-20 0.00345513 -1.35132e-18 0.000947677)
(-0.00730922 0.00847042 -9.35917e-20 0.00603204 1.29168e-19 0.00127718)
(-0.0108644 0.00941852 -4.67425e-19 0.0090844 -4.137e-18 0.00178005)
(-0.0151419 0.0113316 -6.20033e-20 0.0128457 -3.47897e-19 0.0022962)
(-0.019595 0.0142084 -5.54033e-19 0.0178919 -2.58399e-18 0.00170312)
(-0.0340532 0.0167308 1.25709e-18 0.0305892 5.41695e-18 0.00346403)
(-0.0270396 0.0308842 7.71706e-19 0.0301536 4.59735e-18 -0.00311399)
(-0.118899 -0.110844 -4.17891e-19 0.073016 -6.58333e-19 0.0458833)
(0.00213122 -0.00416076 -5.24847e-22 -0.00239643 -7.49037e-22 0.000265201)
(-0.000371745 -0.00399015 -1.02335e-20 0.000524151 -2.62984e-20 -0.000152406)
(0.0087356 0.00486151 2.0644e-20 -0.00820962 1.03237e-19 -0.000525983)
(0.0448323 0.0194426 6.12892e-20 -0.0455899 9.53757e-20 0.000757573)
(0.284453 0.0496157 -7.24894e-21 -0.28666 -3.80169e-20 0.00220718)
(0.380637 -0.0348165 -3.06747e-19 -0.379226 1.19792e-18 -0.00141137)
(0.169851 -0.0962585 2.47213e-20 -0.168991 6.3162e-21 -0.00085989)
(0.0528863 -0.0528309 9.50642e-20 -0.0494031 -2.4461e-18 -0.00348324)
(0.0207689 -0.0277008 -1.67291e-19 -0.0203485 2.5225e-20 -0.000420423)
(0.0113623 -0.0169478 2.38788e-19 -0.0116079 -6.99003e-19 0.000245685)
(0.00556581 -0.00986692 -4.40795e-19 -0.00568943 1.04006e-18 0.00012362)
(0.00260648 -0.00572976 7.66509e-19 -0.00260356 -2.09073e-18 -2.92879e-06)
(0.00134589 -0.00250583 -3.90068e-20 -0.00142691 -6.96533e-20 8.10236e-05)
(0.000584174 -0.000282511 1.54922e-19 -0.000611257 -9.20615e-19 2.70833e-05)
(0.000397862 0.00129852 2.49531e-20 -0.000458068 9.61233e-19 6.02066e-05)
(0.000424283 0.00245887 -7.96123e-20 -0.000479261 -3.67275e-19 5.49777e-05)
(0.000598199 0.00323822 -3.49754e-21 -0.000650109 -6.18365e-19 5.19102e-05)
(0.000867212 0.00379465 4.22695e-20 -0.000919976 -4.42125e-19 5.27647e-05)
(0.00116723 0.00417292 1.98008e-20 -0.00120718 -2.51063e-20 3.99436e-05)
(0.00150437 0.00438147 2.62729e-20 -0.00154099 2.79319e-20 3.66187e-05)
(0.00185311 0.00445734 2.59914e-21 -0.00188076 8.47839e-20 2.76469e-05)
(0.00222723 0.00438056 -4.50494e-20 -0.00225844 1.35043e-19 3.12084e-05)
(0.00256079 0.00403753 -3.77329e-20 -0.0025918 -4.46215e-19 3.10104e-05)
(0.00277793 0.00338803 -4.01998e-20 -0.0028035 -1.79334e-19 2.55632e-05)
(0.00281402 0.00254439 8.44943e-20 -0.00282674 -2.82327e-19 1.27134e-05)
(0.00264334 0.00166546 -1.54972e-20 -0.00264012 -2.63676e-19 -3.22075e-06)
(0.00223174 0.000904029 -2.30893e-19 -0.00220674 2.69268e-19 -2.49949e-05)
(0.00151369 0.000394427 -7.87783e-20 -0.0014582 -1.09e-18 -5.54916e-05)
(0.000422557 0.000307464 1.94711e-19 -0.000329944 2.68802e-19 -9.26134e-05)
(-0.00113417 0.000725086 2.65577e-19 0.00126139 1.1328e-18 -0.000127227)
(-0.00336719 0.00147005 -1.86924e-19 0.00351655 6.37285e-19 -0.000149358)
(-0.00660148 0.00228855 4.36228e-19 0.00676598 2.62556e-18 -0.000164501)
(-0.0108217 0.00389447 1.86482e-19 0.0109862 8.21822e-19 -0.000164494)
(-0.0160703 0.0064037 -3.94821e-19 0.0161965 9.15311e-19 -0.000126138)
(-0.0224513 0.00997787 -4.8649e-19 0.022489 -9.63267e-19 -3.77319e-05)
(-0.0302981 0.0149308 3.22795e-19 0.0300931 2.03446e-18 0.00020502)
(-0.0397735 0.0220484 2.82788e-19 0.0390977 -2.14073e-18 0.000675788)
(-0.048525 0.0313887 5.69965e-19 0.0486407 1.9574e-18 -0.000115733)
(-0.0759053 0.0408152 -4.32193e-19 0.072314 -9.5969e-19 0.00359135)
(-0.0660207 0.0850868 3.72866e-20 0.0714757 -4.91102e-19 -0.005455)
(-0.157147 0.0061044 4.86561e-19 0.15592 1.69622e-18 0.00122696)
(0.00197986 -0.00263568 -1.48575e-22 -0.00208304 -7.15502e-22 0.000103186)
(-0.000266535 -0.00294624 -3.84374e-22 7.78917e-05 2.84434e-21 0.000188643)
(-0.000835017 -0.00210487 -1.4916e-20 0.000820383 -3.43473e-20 1.46349e-05)
(0.00333762 0.00152337 -2.00069e-20 -0.00323634 -3.94333e-20 -0.000101278)
(0.0657438 0.0219313 4.02995e-20 -0.0662839 4.804e-20 0.000540128)
(0.330877 0.0443605 2.44956e-19 -0.334599 6.00534e-21 0.00372239)
(0.490762 -0.0445927 2.57775e-19 -0.489011 -1.39781e-18 -0.00175115)
(0.294028 -0.135769 9.03056e-19 -0.297991 -1.41478e-18 0.00396311)
(0.101834 -0.0925303 -4.09962e-19 -0.0958295 1.2199e-18 -0.00600402)
(0.0468864 -0.0561864 2.31254e-19 -0.0454859 3.97111e-19 -0.00140051)
(0.0253461 -0.034981 -3.50413e-19 -0.0253159 1.11661e-18 -3.02517e-05)
(0.0147045 -0.0248672 -5.77908e-19 -0.0147272 1.25708e-18 2.26713e-05)
(0.00937611 -0.0179793 4.63359e-19 -0.00947195 -9.49889e-19 9.58444e-05)
(0.00600942 -0.013084 -1.17121e-19 -0.00594893 9.36459e-19 -6.04941e-05)
(0.00430495 -0.00976075 -1.99571e-19 -0.0042824 -1.05473e-18 -2.25593e-05)
(0.00337178 -0.00733227 -1.12167e-19 -0.00334689 -4.55644e-19 -2.48941e-05)
(0.00291717 -0.00577276 5.36429e-20 -0.00289419 2.24951e-19 -2.29714e-05)
(0.00276187 -0.00469508 1.14794e-19 -0.00275754 1.31785e-20 -4.32448e-06)
(0.00272211 -0.00407399 3.11585e-20 -0.00271321 5.35276e-20 -8.90242e-06)
(0.0027797 -0.00381953 -1.21344e-20 -0.00278604 -7.70574e-20 6.33671e-06)
(0.00284774 -0.00385363 -2.72271e-20 -0.00284981 -1.96357e-19 2.06328e-06)
(0.00298217 -0.00412124 2.70123e-20 -0.00298501 -2.79949e-19 2.83774e-06)
(0.00316918 -0.00467208 2.33423e-20 -0.00317592 -1.26925e-19 6.74698e-06)
(0.00329094 -0.00550716 9.0873e-21 -0.00330361 1.17875e-19 1.26706e-05)
(0.00323696 -0.0064342 -6.82206e-20 -0.00324753 7.10577e-19 1.05697e-05)
(0.00294237 -0.00726886 2.56597e-19 -0.00295142 -8.12401e-19 9.0472e-06)
(0.00230454 -0.00787188 1.81332e-19 -0.00231404 -6.26281e-19 9.4955e-06)
(0.00116903 -0.00812003 2.00444e-19 -0.00118162 1.53298e-18 1.2592e-05)
(-0.000662836 -0.00788388 -6.4581e-20 0.000646983 4.0897e-19 1.58526e-05)
(-0.00343031 -0.00706588 -5.61376e-19 0.00340972 -5.99728e-19 2.0584e-05)
(-0.00741488 -0.00556171 1.78872e-19 0.00739023 -1.08133e-18 2.46481e-05)
(-0.0128738 -0.0031132 -4.50257e-19 0.0128454 6.57654e-19 2.83367e-05)
(-0.0199633 0.00075774 3.93389e-19 0.0199271 -5.58256e-19 3.62478e-05)
(-0.028834 0.00634104 4.48315e-19 0.0287967 -1.42368e-18 3.72021e-05)
(-0.0396395 0.0139336 4.42256e-19 0.0396341 8.30951e-19 5.35375e-06)
(-0.0529934 0.0239597 4.8025e-19 0.0529269 1.80152e-18 6.65409e-05)
(-0.0692966 0.0377099 3.94163e-19 0.0689103 1.90263e-18 0.000386362)
(-0.0841459 0.0564782 -5.86322e-19 0.0853533 -2.38319e-18 -0.00120737)
(-0.12355 0.0747624 1.77387e-20 0.119725 -8.16831e-19 0.0038253)
(-0.114527 0.153451 -1.7966e-19 0.122187 -1.69685e-18 -0.00765982)
(-0.151712 0.0877592 -4.95111e-19 0.147514 -8.19917e-19 0.00419802)
(0.00155629 -0.00195723 1.38635e-21 -0.00154605 3.34425e-21 -1.02427e-05)
(0.000441458 -0.00223875 -2.25785e-21 -0.000388312 -4.49784e-21 -5.31458e-05)
(-0.000685093 -0.0022959 1.15069e-20 0.000689151 2.34298e-20 -4.0582e-06)
(-0.000512668 -0.00108745 1.4553e-20 0.000532659 2.5671e-20 -1.9991e-05)
(0.00166544 0.000509775 -1.49999e-20 -0.00162401 -2.23737e-20 -4.14326e-05)
(0.0610474 0.0161637 3.53263e-20 -0.0612229 -1.18196e-20 0.000175575)
(0.316927 0.031728 -7.46388e-20 -0.320486 -8.7932e-21 0.003559)
(0.5561 -0.0467521 -2.51065e-19 -0.554041 3.20452e-19 -0.00205913)
(0.439078 -0.166474 4.03949e-19 -0.445451 -1.79023e-19 0.00637246)
(0.183535 -0.149143 1.12201e-20 -0.18006 1.6957e-19 -0.00347506)
(0.0839353 -0.0943292 3.60903e-19 -0.07952 -2.34117e-18 -0.00441531)
(0.0451725 -0.0604491 -2.55423e-19 -0.044649 3.94938e-19 -0.000523539)
(0.0278236 -0.0440052 -2.8941e-19 -0.0282286 2.31265e-19 0.000405026)
(0.0178306 -0.033312 3.35047e-19 -0.0179235 -2.31169e-18 9.29356e-05)
(0.0121708 -0.0267368 2.66076e-19 -0.0121808 1.31857e-19 9.95215e-06)
(0.00890512 -0.0217601 1.68258e-19 -0.00888867 1.77013e-19 -1.64505e-05)
(0.00698828 -0.0186405 -1.56559e-19 -0.0069507 6.2742e-19 -3.75785e-05)
(0.00592083 -0.0164964 -1.00978e-20 -0.00591048 1.37639e-19 -1.03483e-05)
(0.00521609 -0.0152541 3.68143e-20 -0.00518801 -6.69656e-20 -2.80788e-05)
(0.00479773 -0.0146776 4.77092e-20 -0.00478992 4.96255e-20 -7.81313e-06)
(0.0044716 -0.0145301 -1.04919e-20 -0.00445407 2.3129e-19 -1.75275e-05)
(0.00433807 -0.0146676 -8.9491e-20 -0.00432088 2.29257e-19 -1.71927e-05)
(0.00439821 -0.0151163 1.23709e-19 -0.00437877 1.75545e-19 -1.94482e-05)
(0.00447826 -0.0159003 1.50761e-19 -0.00446585 4.02843e-19 -1.24164e-05)
(0.00439326 -0.016807 -1.81247e-19 -0.00438313 -9.82559e-20 -1.01254e-05)
(0.00399663 -0.0176472 -1.35384e-19 -0.00399049 2.05233e-18 -6.13413e-06)
(0.0030867 -0.018242 8.34429e-20 -0.00308338 -3.16055e-20 -3.32491e-06)
(0.00140241 -0.0183905 -2.9984e-19 -0.00140439 -8.37733e-19 1.97165e-06)
(-0.0013784 -0.01786 -5.07385e-19 0.00137088 -1.61899e-18 7.51596e-06)
(-0.00560392 -0.0163795 3.68757e-19 0.00558788 -6.67239e-19 1.60317e-05)
(-0.0116367 -0.0136042 1.22215e-19 0.0116159 1.76475e-18 2.08217e-05)
(-0.0198044 -0.00908648 2.6415e-19 0.0197789 -1.06846e-18 2.5491e-05)
(-0.0303998 -0.00231664 -2.30701e-19 0.0303606 2.97052e-18 3.91627e-05)
(-0.043641 0.00721659 -8.97447e-19 0.0435973 1.43999e-19 4.36317e-05)
(-0.0596849 0.0200093 -3.315e-19 0.0596901 6.20739e-19 -5.19998e-06)
(-0.0792888 0.036651 -4.49028e-19 0.0792122 7.42912e-19 7.66809e-05)
(-0.102946 0.0590028 -7.26236e-20 0.102443 -3.34041e-20 0.000502686)
(-0.124442 0.0904292 2.02676e-20 0.126189 7.28191e-20 -0.0017471)
(-0.170901 0.11971 -4.0699e-20 0.166111 1.64503e-18 0.00479043)
(-0.169457 0.227421 -8.2943e-20 0.179304 -1.10729e-18 -0.00984706)
(-0.158098 0.175412 6.85004e-19 0.151476 -7.53527e-19 0.00662217)
(0.00118636 -0.0013593 -1.38782e-21 -0.00119605 -2.36385e-21 9.69014e-06)
(0.00045939 -0.00159258 7.08127e-21 -0.000443803 1.15784e-20 -1.55862e-05)
(-0.000180147 -0.00161686 -3.60037e-21 0.000189898 -7.83798e-21 -9.75069e-06)
(-0.000781474 -0.00159304 -3.29828e-21 0.000772994 -8.80279e-21 8.48015e-06)
(-0.000396372 -0.000643622 2.04615e-21 0.000400149 4.93619e-21 -3.77664e-06)
(0.00073503 9.75625e-05 -1.84767e-21 -0.000713656 -1.83815e-21 -2.13743e-05)
(0.0423621 0.00859859 -2.52524e-20 -0.0422767 -2.59726e-20 -8.53787e-05)
(0.256419 0.0193259 -8.21921e-20 -0.258538 1.02401e-19 0.00211926)
(0.566877 -0.0445914 -1.72852e-19 -0.566843 -1.67303e-19 -3.42847e-05)
(0.576703 -0.178663 -3.65102e-19 -0.580522 -9.67322e-19 0.0038189)
(0.318529 -0.218148 3.7763e-19 -0.324176 5.77907e-19 0.00564733)
(0.13907 -0.144808 6.02822e-19 -0.131094 -8.32012e-19 -0.00797589)
(0.0748255 -0.0987696 -8.00683e-19 -0.072337 6.12102e-19 -0.00248849)
(0.0458892 -0.0693135 3.49837e-19 -0.0459143 1.07358e-18 2.50931e-05)
(0.0293908 -0.0541531 1.77645e-20 -0.0297437 4.74488e-19 0.000352929)
(0.0201053 -0.0436475 -2.26132e-19 -0.0202597 -8.54763e-20 0.000154405)
(0.0145385 -0.0372573 1.59186e-19 -0.0144876 -8.89454e-19 -5.08436e-05)
(0.0113676 -0.0328688 -3.37766e-20 -0.0113579 5.7883e-19 -9.62028e-06)
(0.00927788 -0.0301663 7.01843e-20 -0.0092365 -1.10137e-19 -4.13756e-05)
(0.00800411 -0.0287558 4.64787e-20 -0.00800507 2.01906e-19 9.62405e-07)
(0.00708405 -0.0281111 -6.28492e-20 -0.00706812 -2.9131e-19 -1.59331e-05)
(0.00661718 -0.0279442 3.00107e-20 -0.00660987 1.17934e-20 -7.30316e-06)
(0.00654798 -0.0282243 1.3513e-20 -0.006535 1.01437e-19 -1.29782e-05)
(0.00661007 -0.0289978 -2.95844e-19 -0.00660258 -3.40263e-19 -7.48838e-06)
(0.00652475 -0.0300002 3.25521e-19 -0.00651632 -8.02316e-19 -8.43539e-06)
(0.00604771 -0.0309947 4.17384e-20 -0.00604062 -4.30258e-19 -7.08806e-06)
(0.00487239 -0.0317082 -5.38337e-19 -0.00486581 -4.31709e-19 -6.57616e-06)
(0.00261711 -0.0318021 5.71814e-20 -0.0026139 -9.75457e-19 -3.21748e-06)
(-0.00117325 -0.0308724 8.5445e-19 0.00117173 -1.18643e-19 1.51612e-06)
(-0.00697176 -0.0284535 3.3751e-19 0.00696015 1.43124e-18 1.16136e-05)
(-0.015256 -0.0239871 -4.15076e-19 0.01524 -7.78423e-19 1.59849e-05)
(-0.026463 -0.0168358 -4.95705e-19 0.0264447 6.36631e-19 1.83591e-05)
(-0.0409928 -0.00632593 -2.14292e-19 0.0409578 -3.15632e-18 3.50925e-05)
(-0.0590984 0.00831814 7.7261e-19 0.0590569 -1.96424e-18 4.14948e-05)
(-0.0808714 0.0278545 6.22474e-19 0.0808934 -1.7945e-18 -2.19675e-05)
(-0.107033 0.0530494 -1.26362e-19 0.106936 -6.84974e-20 9.67879e-05)
(-0.137858 0.0863409 1.44193e-19 0.137272 1.45275e-18 0.000586661)
(-0.165679 0.132961 5.29154e-20 0.167746 -8.30907e-19 -0.00206759)
(-0.213589 0.176453 -2.05234e-19 0.208189 7.4561e-19 0.00540005)
(-0.223212 0.302102 -5.54275e-19 0.233683 1.7917e-18 -0.0104715)
(-0.178342 0.273927 -6.07958e-19 0.172007 -8.79354e-19 0.00633456)
(0.000918071 -0.000925645 -3.32551e-22 -0.00092392 -6.16538e-22 5.84935e-06)
(0.000458594 -0.00115946 7.68518e-22 -0.000458812 9.21559e-22 2.17236e-07)
(3.30936e-05 -0.00117386 -3.67995e-21 -3.08301e-05 -4.91812e-21 -2.26346e-06)
(-0.00037945 -0.00118595 -5.65159e-21 0.000383494 -7.12065e-21 -4.04316e-06)
(-0.000712144 -0.00108479 -2.02337e-21 0.000708227 -2.3737e-21 3.91637e-06)
(-0.000380871 -0.000476708 4.95548e-21 0.000380011 6.88229e-21 8.59346e-07)
(0.000304012 -7.02058e-05 -1.38576e-21 -0.000292716 -2.09795e-21 -1.12958e-05)
(0.0200451 0.00278943 2.09995e-20 -0.0199268 2.31953e-20 -0.000118261)
(0.174438 0.00902162 2.44822e-19 -0.175127 2.36583e-19 0.000688534)
(0.497332 -0.0386866 -1.72265e-19 -0.499433 4.03088e-19 0.00210052)
(0.666766 -0.16399 -2.88672e-19 -0.665087 6.47657e-19 -0.00167912)
(0.494933 -0.27057 2.72178e-19 -0.505299 -1.07716e-18 0.0103666)
(0.239504 -0.226347 4.3647e-19 -0.238067 1.32966e-18 -0.00143681)
(0.118302 -0.148816 -7.7858e-19 -0.110774 -2.98118e-19 -0.00752777)
(0.0701438 -0.105965 3.31788e-19 -0.0687623 -1.3363e-18 -0.00138152)
(0.0460614 -0.0813032 -2.2113e-19 -0.0464957 7.63987e-19 0.000434341)
(0.030903 -0.0666494 1.38109e-19 -0.0311814 7.47912e-19 0.000278359)
(0.0220811 -0.0569526 1.5681e-19 -0.0222364 3.86215e-19 0.000155277)
(0.0165739 -0.050859 -8.1867e-20 -0.0165089 3.4147e-19 -6.50306e-05)
(0.01337 -0.0475144 8.99909e-21 -0.0133581 -9.88116e-19 -1.19276e-05)
(0.0112687 -0.0457669 2.17094e-20 -0.0112225 4.22006e-19 -4.62069e-05)
(0.0102257 -0.0450506 -1.30521e-19 -0.0102104 -8.17076e-21 -1.53369e-05)
(0.0099546 -0.0451295 1.24583e-19 -0.00993669 -4.76213e-19 -1.79053e-05)
(0.0100096 -0.0459994 2.02594e-19 -0.0100033 -7.04798e-20 -6.36808e-06)
(0.00998621 -0.0472598 -1.80519e-19 -0.00998205 1.0318e-18 -4.15854e-06)
(0.00951307 -0.0485718 -3.2229e-19 -0.00951097 -9.0744e-19 -2.09525e-06)
(0.00817062 -0.0495273 4.15857e-19 -0.0081689 -5.42326e-19 -1.7216e-06)
(0.00544615 -0.0496051 2.07318e-19 -0.00544578 1.64128e-18 -3.64248e-07)
(0.000735681 -0.0481781 1.45236e-19 -0.000739005 1.80056e-18 3.32396e-06)
(-0.00657766 -0.0445625 -2.05949e-19 0.0065639 -3.28047e-19 1.37532e-05)
(-0.0170974 -0.0379599 -2.15025e-20 0.0170784 -1.18571e-18 1.89503e-05)
(-0.0313724 -0.0274873 -4.06776e-19 0.0313544 -3.57787e-19 1.79903e-05)
(-0.0498695 -0.0122349 -1.9143e-19 0.0498333 1.48613e-18 3.61729e-05)
(-0.0728199 0.00886103 9.38256e-20 0.0727795 2.28612e-18 4.04528e-05)
(-0.100146 0.036837 1.33738e-18 0.100182 7.69574e-19 -3.54098e-05)
(-0.132277 0.0725836 2.34878e-19 0.13216 -8.58863e-19 0.000117738)
(-0.168871 0.118925 -1.55111e-18 0.168315 -7.62195e-19 0.000556203)
(-0.20141 0.181638 -1.03388e-20 0.203511 -2.00251e-19 -0.00210146)
(-0.246212 0.242108 -7.03646e-21 0.241116 -1.90268e-18 0.00509642)
(-0.265626 0.374567 -1.37544e-19 0.275078 6.09606e-19 -0.00945223)
(-0.201923 0.377992 4.32701e-19 0.198569 1.60649e-18 0.00335437)
(0.000696688 -0.000646887 -6.86395e-23 -0.000702692 -1.26123e-23 6.00377e-06)
(0.000425442 -0.000829329 -1.41669e-21 -0.000424482 -1.93014e-21 -9.59713e-07)
(0.000137358 -0.000906915 1.37407e-21 -0.000135841 1.84766e-21 -1.51681e-06)
(-0.000135872 -0.000872446 6.32855e-21 0.000139305 8.48689e-21 -3.43271e-06)
(-0.000413159 -0.000853059 1.19813e-21 0.000418402 1.66962e-21 -5.24286e-06)
(-0.000630956 -0.000779682 1.0735e-21 0.000629902 5.87183e-22 1.0543e-06)
(-0.000373062 -0.000378446 -7.62147e-21 0.000370374 -8.43415e-21 2.68825e-06)
(3.18065e-05 -0.00015714 -3.40327e-22 -2.71736e-05 -2.33247e-22 -4.63293e-06)
(0.00586112 0.000285714 -1.20831e-20 -0.00580022 -1.75088e-20 -6.09012e-05)
(0.0957377 0.00220446 1.78623e-19 -0.0957202 2.02163e-19 -1.74291e-05)
(0.362789 -0.0277528 -2.81526e-19 -0.364343 -7.04549e-19 0.00155356)
(0.660843 -0.137714 -9.73376e-20 -0.660071 8.73304e-19 -0.000771995)
(0.660409 -0.278952 1.34976e-19 -0.664629 -1.02804e-18 0.00422069)
(0.406147 -0.316037 -3.54239e-19 -0.416149 -3.89438e-19 0.0100013)
(0.195889 -0.228793 9.36624e-19 -0.189435 -2.93047e-19 -0.00645451)
(0.10644 -0.157764 3.79322e-19 -0.100253 8.27754e-19 -0.00618654)
(0.0678416 -0.117665 -3.49832e-19 -0.0671091 5.15036e-19 -0.000732507)
(0.0461167 -0.0959659 -3.77378e-19 -0.0467783 4.32643e-19 0.000661561)
(0.0321485 -0.0824415 -6.07489e-19 -0.0324414 -3.55524e-20 0.000292956)
(0.0236677 -0.0742877 4.77616e-19 -0.023817 -6.03765e-19 0.000149289)
(0.0184691 -0.069677 1.89336e-19 -0.0183886 8.35778e-19 -8.04864e-05)
(0.0159772 -0.067669 -3.48275e-19 -0.0159277 -2.03591e-19 -4.94906e-05)
(0.0151469 -0.0672138 1.23507e-19 -0.0150905 3.50742e-19 -5.64053e-05)
(0.0151173 -0.0681503 9.21339e-20 -0.0150837 2.328e-19 -3.35329e-05)
(0.0152465 -0.0697967 1.81015e-20 -0.0152273 -3.74762e-19 -1.91829e-05)
(0.0149638 -0.0716291 -2.32935e-20 -0.0149563 5.27706e-19 -7.46721e-06)
(0.0137051 -0.0730345 3.39128e-19 -0.0137095 1.37437e-18 4.42588e-06)
(0.0108119 -0.0732415 3.06648e-19 -0.0108264 -5.45348e-19 1.44591e-05)
(0.00551396 -0.0712954 -4.59462e-19 -0.0055351 3.78397e-20 2.11451e-05)
(-0.00294787 -0.0662736 -9.90556e-19 0.00291711 -1.14689e-18 3.07593e-05)
(-0.0152935 -0.057092 2.55496e-19 0.0152575 7.61959e-20 3.60468e-05)
(-0.0321555 -0.0425778 5.67232e-19 0.0321244 -1.04708e-18 3.10401e-05)
(-0.0540089 -0.021547 6.28612e-19 0.053961 3.28897e-19 4.782e-05)
(-0.0809792 0.00732392 -4.21793e-19 0.080932 -1.82232e-19 4.71836e-05)
(-0.112691 0.0452777 -7.60713e-19 0.112721 1.51071e-18 -2.96962e-05)
(-0.148992 0.0931919 -6.15429e-19 0.148846 -1.42553e-18 0.000146267)
(-0.188583 0.153777 9.48732e-19 0.188142 -2.04294e-19 0.000440993)
(-0.222861 0.231579 4.20054e-20 0.224643 3.5542e-19 -0.00178141)
(-0.260903 0.309529 1.87777e-19 0.256983 -3.50366e-19 0.00391973)
(-0.283569 0.438799 -1.14392e-19 0.290182 -8.61882e-19 -0.00661306)
(-0.215823 0.47286 -4.47582e-19 0.217382 5.48175e-19 -0.00155846)
(0.000531399 -0.000459402 -2.22646e-22 -0.000535572 -7.38419e-23 4.17319e-06)
(0.000360753 -0.000593142 -1.18766e-21 -0.000360169 -1.85976e-21 -5.83305e-07)
(0.000179638 -0.000671943 4.97485e-21 -0.000179335 5.67551e-21 -3.03166e-07)
(-1.24924e-05 -0.000689164 -6.72821e-22 1.23667e-05 -8.44809e-22 1.25757e-07)
(-0.000192359 -0.000635945 1.7766e-21 0.000194066 1.65592e-21 -1.70705e-06)
(-0.000392355 -0.000623675 -1.60643e-21 0.000396787 -1.46844e-21 -4.43183e-06)
(-0.000506931 -0.000525697 3.8875e-21 0.000508001 5.21631e-21 -1.06974e-06)
(-0.000354886 -0.000301584 3.07708e-21 0.00035256 2.59607e-21 2.32638e-06)
(-0.000147534 -0.000195227 5.61585e-23 0.000147976 9.50906e-22 -4.41933e-07)
(0.000424838 -6.3032e-05 4.41637e-21 -0.000418626 3.93276e-21 -6.21221e-06)
(0.0375468 -0.000723601 -5.77022e-21 -0.0373969 5.22775e-21 -0.000149871)
(0.211842 -0.017542 -3.30434e-19 -0.212204 -2.22394e-19 0.000362504)
(0.532639 -0.0996416 2.0823e-19 -0.533685 -4.06043e-19 0.00104618)
(0.735292 -0.245372 -5.11276e-19 -0.733609 9.31861e-19 -0.00168337)
(0.609336 -0.364424 -2.39324e-19 -0.619167 -9.33543e-19 0.00983083)
(0.342573 -0.340438 5.53893e-19 -0.34942 7.5674e-19 0.00684723)
(0.171975 -0.23831 3.37935e-19 -0.163263 -1.54031e-18 -0.00871174)
(0.0996405 -0.171608 1.5921e-19 -0.0941886 5.71468e-19 -0.00545189)
(0.0666414 -0.134511 -7.28198e-19 -0.0662984 -1.11237e-18 -0.000343024)
(0.0461889 -0.115104 2.96211e-19 -0.0470001 1.18007e-18 0.000811133)
(0.0331228 -0.10407 7.18862e-20 -0.0334511 -8.67608e-19 0.000328238)
(0.0262567 -0.0988002 -3.25392e-19 -0.0263743 4.25853e-19 0.00011759)
(0.0233985 -0.0968446 2.4472e-19 -0.0233199 5.10649e-21 -7.86299e-05)
(0.0226911 -0.0974667 -4.51703e-20 -0.0225989 2.76915e-20 -9.22557e-05)
(0.0228992 -0.0994467 -8.9819e-20 -0.0228325 7.32104e-19 -6.67679e-05)
(0.0230226 -0.101813 1.05507e-19 -0.0229778 -1.73491e-19 -4.47557e-05)
(0.0222713 -0.103704 -7.69997e-19 -0.0222492 7.31783e-21 -2.20663e-05)
(0.019812 -0.104121 -3.70355e-19 -0.0198133 1.90286e-19 1.27209e-06)
(0.0146907 -0.101796 -1.92978e-19 -0.014719 -1.21789e-18 2.82645e-05)
(0.00598032 -0.0953629 9.53368e-19 -0.00604201 1.03883e-19 6.16881e-05)
(-0.00713788 -0.0833656 1.58711e-19 0.00705062 8.12641e-19 8.72616e-05)
(-0.0253307 -0.0642875 2.89625e-19 0.0252451 8.98966e-19 8.55678e-05)
(-0.0490012 -0.036684 -6.0015e-19 0.048911 2.63905e-19 9.01223e-05)
(-0.0780695 0.000901076 4.92033e-19 0.0779927 -1.1783e-18 7.6761e-05)
(-0.111737 0.0497269 2.81412e-19 0.111733 -1.41803e-19 4.49363e-06)
(-0.14904 0.110405 1.01015e-18 0.148871 3.19841e-19 0.000168998)
(-0.187627 0.184765 -1.46318e-18 0.187327 4.26319e-19 0.000299754)
(-0.219499 0.274792 -1.63418e-19 0.22078 1.34671e-19 -0.00128047)
(-0.24782 0.366271 2.90057e-19 0.245546 4.5831e-19 0.00227398)
(-0.266603 0.484887 4.39932e-19 0.269364 2.5309e-20 -0.00276116)
(-0.207868 0.538817 1.34166e-19 0.214623 -1.22197e-18 -0.00675454)
(0.000404137 -0.000330157 -8.75114e-22 -0.000407104 -1.0207e-21 2.96658e-06)
(0.000293276 -0.00042743 3.54084e-21 -0.000293412 3.70744e-21 1.36128e-07)
(0.000177026 -0.000491266 -8.30219e-22 -0.000177076 -7.26842e-22 4.95746e-08)
(5.04407e-05 -0.000525334 -6.5148e-21 -5.06309e-05 -6.88859e-21 1.90211e-07)
(-7.95761e-05 -0.000517389 -6.15032e-22 7.93518e-05 -8.31925e-22 2.24351e-07)
(-0.000198835 -0.000467579 6.44215e-21 0.000199711 6.90782e-21 -8.75762e-07)
(-0.000338594 -0.000446172 -1.64987e-21 0.00034169 -2.17189e-21 -3.0962e-06)
(-0.000395645 -0.000351816 -1.43339e-20 0.000397654 -1.43057e-20 -2.00873e-06)
(-0.000321141 -0.00023189 1.027e-20 0.000320098 9.96545e-21 1.04291e-06)
(-0.000227373 -0.000178744 5.22766e-22 0.000225761 -4.91525e-22 1.61146e-06)
(7.23763e-05 -0.000104486 -4.40215e-22 -7.02946e-05 -7.27216e-22 -2.08171e-06)
(0.00962139 -0.00102887 -1.1299e-20 -0.00954536 -6.44643e-21 -7.60284e-05)
(0.0937419 -0.00968622 -1.97285e-19 -0.0936051 -1.30707e-19 -0.000136745)
(0.337905 -0.0599846 1.77251e-19 -0.338541 -1.39706e-19 0.000636749)
(0.652243 -0.186154 -6.41754e-19 -0.651806 7.04138e-19 -0.000437855)
(0.753395 -0.342349 5.92794e-19 -0.753375 -4.08616e-19 -2.00723e-05)
(0.558547 -0.425826 -5.02595e-19 -0.57129 7.5409e-19 0.0127435)
(0.305427 -0.364346 -1.07029e-19 -0.309621 -1.58796e-19 0.00419355)
(0.159321 -0.257842 -2.3698e-19 -0.149801 -3.55841e-19 -0.00951933)
(0.095707 -0.192888 2.8641e-19 -0.0902449 -1.0346e-18 -0.00546209)
(0.0657179 -0.159391 4.49779e-19 -0.0654281 3.20638e-19 -0.000289839)
(0.0483007 -0.144277 -2.42343e-19 -0.0492441 -9.84032e-19 0.0009434)
(0.0391305 -0.137798 -2.22122e-19 -0.0396578 4.42713e-19 0.000527244)
(0.0351254 -0.136598 6.99685e-19 -0.0353105 -5.80967e-19 0.000185089)
(0.034147 -0.13839 -4.15553e-19 -0.034108 5.03129e-20 -3.89848e-05)
(0.0344787 -0.141548 -5.56562e-19 -0.0343563 -3.68597e-19 -0.00012242)
(0.0347412 -0.144469 1.00473e-18 -0.0346367 -1.41038e-18 -0.000104519)
(0.0336316 -0.14539 -3.17202e-20 -0.0335772 1.06477e-18 -5.44599e-05)
(0.0299068 -0.142633 2.85036e-21 -0.0299066 -6.3219e-20 -1.25541e-07)
(0.0225168 -0.134643 -6.07543e-19 -0.0225651 1.04976e-18 4.82194e-05)
(0.010579 -0.11972 6.6783e-20 -0.0106737 -6.32318e-19 9.47664e-05)
(-0.00660431 -0.095908 -1.75437e-20 0.00646994 3.17918e-19 0.000134372)
(-0.0293306 -0.061495 -6.78432e-19 0.0291534 -5.73595e-19 0.000177158)
(-0.0572379 -0.0150574 3.67657e-19 0.0570396 1.70161e-18 0.000198369)
(-0.0890516 0.0443902 -5.15434e-19 0.0888977 2.69841e-19 0.000153948)
(-0.122947 0.116806 -4.8866e-19 0.12267 5.32824e-21 0.000277038)
(-0.155737 0.202309 6.80742e-19 0.155459 -1.82187e-18 0.000277781)
(-0.180569 0.299845 -5.79646e-20 0.181343 7.42674e-19 -0.000773548)
(-0.197628 0.39698 -1.58599e-19 0.196734 -9.21365e-19 0.000894856)