/*--------------------------------*- C++ -*----------------------------------*\
| =========                 |                                                 |
| \\      /  F ield         | OpenFOAM: The Open Source CFD Toolbox           |
|  \\    /   O peration     | Version:  2312                                  |
|   \\  /    A nd           | Website:  www.openfoam.com                      |
|    \\/     M anipulation  |                                                 |
\*---------------------------------------------------------------------------*/
FoamFile
{
    version     2.0;
    format      ascii;
    arch        "LSB;label=32;scalar=64";
    class       volScalarField;
    location    "650";
    object      turbulenceProperties:epsilon;
}
// * * * * * * * * * * * * * * * * * * * * * * * * * * * * * * * * * * * * * //

dimensions      [0 2 -3 0 0 0 0];

internalField   nonuniform List<scalar> 
11040
(
95.498
99.0394
3.39942
1.17471
17.2902
18.6777
17.5368
15.3178
13.2445
11.9332
10.7946
9.81255
9.05482
8.49991
8.07365
7.89306
7.92758
8.18794
8.65851
9.35032
10.3028
11.496
12.9521
14.7257
16.8216
19.2865
22.0176
24.588
26.6551
27.8299
27.7445
26.2041
23.4055
19.8921
16.1948
9.72205
3.52865
1.09493
0.178708
3.26023
8.07331
0.863077
2.8865
28.1441
51.3245
48.4497
5.04183
0.55113
0.06659
0.00417361
0.00517182
0.0262566
0.0482175
0.0692595
0.0887254
0.105626
0.122913
0.142875
0.164455
0.185881
0.207517
0.229562
0.252869
0.270006
0.272345
0.25675
0.229372
0.196099
0.156237
0.115583
0.081461
0.060144
0.0526427
0.0504441
0.0584877
0.0797002
0.119109
0.188815
0.285197
0.619614
0.763074
8.08752
0.327025
0.257508
1.0831
15.2306
96.2836
73.633
15.7699
2.34233
0.584211
0.2226
0.0750483
0.0247656
0.00554614
0.000313886
0.00142811
0.00500729
0.00906834
0.0130814
0.016503
0.0189867
0.020431
0.0206655
0.0187775
0.0148927
0.0103914
0.00647775
0.00349302
0.00131414
0.000128774
0.00091542
0.00586771
0.0190351
0.0467383
0.096252
0.17725
0.306024
0.505695
0.753329
1.45714
2.22746
3.506
0.168121
0.124665
0.0813199
0.208201
15.33
90.4774
90.8622
30.7464
5.14033
1.56165
0.601131
0.287234
0.152741
0.0811797
0.047374
0.0285454
0.0190782
0.0139989
0.0115447
0.0108323
0.0110643
0.0121802
0.0143948
0.0175395
0.0205628
0.0224552
0.0224881
0.0205146
0.0173655
0.0155683
0.0197485
0.036857
0.0768791
0.154393
0.288375
0.509091
0.859252
1.31297
2.33375
3.90517
2.52664
0.0934894
0.0761948
0.0868386
0.0209208
0.0416371
10.0525
69.3622
97.3656
49.0648
11.1515
3.14096
1.19435
0.616132
0.340809
0.217593
0.14672
0.109209
0.0874669
0.0754603
0.0698151
0.0673528
0.0668319
0.0681618
0.0710392
0.0733333
0.073494
0.0704809
0.0639897
0.0550431
0.0468692
0.0457583
0.0620554
0.111571
0.216436
0.405338
0.721489
1.22648
1.91477
3.11088
5.4153
3.02931
0.0487377
0.0410485
0.0391577
0.0477982
0.00407538
0.00242183
4.76863
43.5651
92.0931
66.3427
23.3913
5.80502
2.25096
1.06057
0.618139
0.395748
0.283656
0.221554
0.186233
0.168051
0.158117
0.152717
0.150342
0.150598
0.150378
0.147432
0.139902
0.126711
0.108536
0.0891553
0.0768146
0.0857967
0.138113
0.264189
0.503313
0.910748
1.56352
2.48456
3.77097
6.47901
4.11125
0.0254518
0.0232413
0.0204963
0.0234158
0.0248552
0.000684989
1.14804e-06
1.43588
21.98
71.0755
76.819
40.6202
12.4332
3.94121
1.79305
1.00085
0.640122
0.458407
0.359063
0.308538
0.281038
0.266852
0.259596
0.257391
0.255191
0.249328
0.236582
0.214605
0.183275
0.146681
0.114915
0.106108
0.148432
0.280775
0.552956
1.02988
1.79711
2.8976
4.24361
6.97014
5.23365
0.0135612
0.0129663
0.0125705
0.0116152
0.0136955
0.0149378
1.17923e-05
2.1378e-09
0.236455
8.3305
42.1551
73.6887
56.8513
25.202
7.8569
3.05402
1.56985
0.978606
0.682947
0.534793
0.45648
0.420112
0.402625
0.39698
0.39384
0.386582
0.369411
0.337676
0.289497
0.228827
0.167048
0.125592
0.138131
0.251238
0.523787
1.02662
1.84474
3.02302
4.39297
6.77138
5.91464
0.00740185
0.00719468
0.00722273
0.00709983
0.00656158
0.00843414
0.00763939
7.50045e-05
0.000112339
0.00090282
2.01841
18.2753
52.6524
63.9841
41.2371
17.0037
5.80554
2.58531
1.47213
0.997604
0.762211
0.65502
0.604145
0.584852
0.57727
0.568027
0.547016
0.505921
0.439682
0.349854
0.247544
0.156258
0.113955
0.173171
0.398993
0.863923
1.64367
2.77006
4.07083
5.90313
5.79329
0.00408463
0.00401314
0.00407193
0.00416002
0.00408845
0.00384584
0.00489771
0.00387491
0.000283715
5.69435e-06
1.64085e-08
0.270341
5.36022
26.4662
53.4164
52.6151
31.098
12.8468
4.83995
2.36226
1.47684
1.11347
0.945896
0.870964
0.837286
0.81735
0.790708
0.739982
0.654447
0.532434
0.382754
0.227771
0.106832
0.0755362
0.201746
0.555846
1.199
2.14554
3.24915
4.52479
4.80276
0.00227364
0.00224892
0.00229455
0.0023671
0.00243441
0.00238819
0.0023267
0.00267474
0.00257653
0.000498387
1.83511e-06
0.000160125
0.000338609
0.850048
8.58678
29.8957
48.8053
43.3892
25.1393
10.8757
4.48009
2.42303
1.72302
1.42764
1.2829
1.20606
1.14951
1.07941
0.974094
0.821983
0.624282
0.399613
0.186712
0.0403096
0.026275
0.209609
0.637288
1.3108
2.11077
2.90187
3.2502
0.00127075
0.00126334
0.00128803
0.00133766
0.00139052
0.00143357
0.00142358
0.0013962
0.00149866
0.00158096
0.000747808
2.0412e-07
2.71156e-07
0.0014633
0.0494749
1.55684
10.3068
29.1065
42.6388
36.866
21.9863
10.6426
5.20443
3.0967
2.29785
1.97395
1.80065
1.65823
1.50169
1.30577
1.06111
0.775224
0.477966
0.218068
0.0560316
0.051739
0.241406
0.618913
1.08923
1.49954
1.71124
0.000711029
0.000709932
0.000722393
0.00075092
0.000787115
0.000822336
0.000850988
0.000857726
0.000846064
0.000866697
0.000967219
0.00070996
2.14216e-05
1.39945e-07
1.97578e-05
0.00361315
0.10354
1.88266
10.0119
25.5877
36.5232
32.9699
22.5768
13.5688
7.8799
4.90938
3.50379
2.85136
2.5042
2.22757
1.92435
1.57466
1.20048
0.847022
0.567575
0.410169
0.405148
0.543132
0.754052
0.910528
0.910567
0.000397207
0.000398222
0.000404257
0.000419668
0.000441674
0.000465698
0.000488705
0.00050865
0.000519604
0.000517689
0.000519091
0.000579384
0.000532294
0.000142887
7.38064e-10
1.13656e-09
0.000137856
0.0055413
0.122467
1.68913
8.21567
20.1772
29.97
31.2695
26.0845
19.3624
13.5718
9.32489
6.53828
4.83361
3.81125
3.16346
2.69374
2.30871
1.99522
1.76763
1.64645
1.62749
1.68123
1.71927
1.51068
0.000220931
0.000222364
0.000225259
0.000233429
0.000246019
0.000260847
0.000276406
0.000291596
0.000305401
0.000315751
0.000318421
0.000320267
0.000343673
0.000346671
0.000259236
1.18654e-05
1.0879e-07
3.81742e-12
0.000422367
1.89077e-07
0.0876855
1.04561
4.65763
11.8822
20.4685
26.3739
27.6275
25.3505
21.5753
17.5287
13.7581
10.5626
8.097
6.36445
5.26311
4.65577
4.41161
4.37486
4.42626
4.50789
4.16251
0.000122076
0.000123281
0.000124669
0.000128944
0.000135925
0.000144535
0.000154058
0.000164084
0.000174097
0.000183491
0.00019151
0.00019597
0.000199317
0.000203983
0.000223631
0.00019348
0.000108931
9.58771e-08
7.69983e-09
6.48814e-11
0.00046782
0.00218615
0.0185171
0.265515
1.38752
4.24558
9.10166
15.0241
20.3499
23.8151
25.1277
24.6907
23.0931
20.8408
18.3705
16.0149
14.0033
12.404
11.2627
10.6687
9.84938
6.72474e-05
6.80783e-05
6.87693e-05
7.10145e-05
7.48288e-05
7.96524e-05
8.51711e-05
9.12102e-05
9.75817e-05
0.000104002
0.000110184
0.000115787
0.000120293
0.000123074
0.00012691
0.000133269
0.000142169
0.000107075
3.33198e-05
2.259e-09
1.98297e-09
4.23145e-14
4.78076e-05
0.00104497
1.00737e-11
0.0133987
0.138175
0.625777
1.85539
4.13632
7.48821
11.5702
15.8229
19.6974
22.812
24.9597
26.1702
26.5339
26.3127
26.0178
24.7396
3.77677e-05
3.83175e-05
3.87095e-05
3.9966e-05
4.21234e-05
4.48852e-05
4.80999e-05
5.17001e-05
5.55946e-05
5.96705e-05
6.37836e-05
6.78047e-05
7.16066e-05
7.50005e-05
7.75822e-05
7.99815e-05
8.30481e-05
8.97866e-05
9.01668e-05
6.57765e-05
1.61366e-05
1.31064e-09
1.62214e-09
2.09098e-12
4.96788e-16
3.50353e-05
0.000814183
0.000924822
0.000620933
0.0123722
0.0846927
0.326416
0.899042
1.98219
3.71687
6.13928
9.18015
12.6915
16.4227
20.3213
23.3887
2.20145e-05
2.23831e-05
2.26275e-05
2.33726e-05
2.46477e-05
2.62903e-05
2.82262e-05
3.04344e-05
3.28742e-05
3.5485e-05
3.81984e-05
4.09392e-05
4.36362e-05
4.62378e-05
4.8636e-05
5.07753e-05
5.24158e-05
5.45069e-05
5.72338e-05
6.10302e-05
5.96797e-05
4.15047e-05
1.71798e-05
6.78242e-08
3.94534e-09
1.72356e-10
2.0579e-13
0
1.23705e-07
4.75829e-05
0.000581245
0.000553921
0.000275202
0.000253913
0.00830793
0.0474296
0.165438
0.434993
0.942542
1.79621
3.03179
1.33082e-05
1.35506e-05
1.37079e-05
1.41658e-05
1.49435e-05
1.59478e-05
1.71407e-05
1.85147e-05
2.00536e-05
2.17272e-05
2.35037e-05
2.53485e-05
2.72214e-05
2.90803e-05
3.08845e-05
3.26036e-05
3.41748e-05
3.55623e-05
3.67993e-05
3.84243e-05
4.07183e-05
4.25617e-05
4.21387e-05
3.26672e-05
1.81614e-05
5.82336e-06
8.80478e-09
1.35487e-09
1.18291e-10
2.48725e-11
3.81587e-15
0
0
1.6577e-08
3.07071e-05
0.000358766
0.000456112
0.000151973
5.92974e-06
0.00046185
0.00388718
8.26482e-06
8.42297e-06
8.527e-06
8.81615e-06
9.30241e-06
9.93111e-06
1.06819e-05
1.15518e-05
1.25332e-05
1.36107e-05
1.4768e-05
1.59896e-05
1.72556e-05
1.85425e-05
1.98262e-05
2.10823e-05
2.22926e-05
2.34321e-05
2.44719e-05
2.54051e-05
2.63211e-05
2.75417e-05
2.89153e-05
3.07485e-05
3.05832e-05
2.86119e-05
2.20866e-05
1.31571e-05
5.56939e-06
1.36622e-06
2.54594e-10
3.46626e-10
7.27879e-11
2.67917e-11
6.17346e-12
3.71481e-14
0
0
2.03681e-09
1.25528e-07
5.49601e-06
5.24449e-06
5.34794e-06
5.41876e-06
5.60578e-06
5.91614e-06
6.31754e-06
6.79858e-06
7.35794e-06
7.99186e-06
8.69185e-06
9.44887e-06
1.02553e-05
1.11007e-05
1.1972e-05
1.2856e-05
1.37382e-05
1.46049e-05
1.54434e-05
1.62426e-05
1.69929e-05
1.76611e-05
1.82784e-05
1.88724e-05
1.96296e-05
2.05465e-05
2.14202e-05
2.24227e-05
2.24214e-05
2.10996e-05
1.89607e-05
1.47915e-05
9.76974e-06
5.4413e-06
2.25215e-06
5.98609e-07
4.27021e-09
3.97619e-10
4.195e-11
2.2269e-11
1.04868e-11
3.77108e-12
3.38534e-06
3.4533e-06
3.50246e-06
3.62559e-06
3.82686e-06
4.08711e-06
4.39968e-06
4.76395e-06
5.17759e-06
5.63593e-06
6.13368e-06
6.66677e-06
7.22946e-06
7.81415e-06
8.41277e-06
9.01714e-06
9.61844e-06
1.0208e-05
1.07776e-05
1.13231e-05
1.1827e-05
1.22817e-05
1.26911e-05
1.30489e-05
1.34001e-05
1.37588e-05
1.4206e-05
1.47319e-05
1.52543e-05
1.5659e-05
1.60875e-05
1.6011e-05
1.53988e-05
1.42772e-05
1.28452e-05
1.07016e-05
8.15521e-06
5.57531e-06
3.34915e-06
1.77195e-06
7.36186e-07
2.21591e-06
2.26078e-06
2.2955e-06
2.37778e-06
2.51012e-06
2.68106e-06
2.88664e-06
3.12642e-06
3.39888e-06
3.70132e-06
4.03044e-06
4.38371e-06
4.758e-06
5.14861e-06
5.55046e-06
5.95852e-06
6.36721e-06
6.77091e-06
7.16384e-06
7.54247e-06
7.89514e-06
8.21728e-06
8.51174e-06
8.76777e-06
8.9869e-06
9.17506e-06
9.33806e-06
9.49123e-06
9.65194e-06
9.81645e-06
1.00085e-05
1.02178e-05
1.04133e-05
1.05676e-05
1.06586e-05
1.07447e-05
1.06929e-05
1.04569e-05
1.00411e-05
9.4199e-06
8.81437e-06
1.46705e-06
1.49685e-06
1.5217e-06
1.57734e-06
1.66535e-06
1.77883e-06
1.9154e-06
2.07465e-06
2.25554e-06
2.45638e-06
2.67505e-06
2.90994e-06
3.15921e-06
3.41976e-06
3.68836e-06
3.96171e-06
4.23623e-06
4.50809e-06
4.7734e-06
5.02953e-06
5.26821e-06
5.48635e-06
5.68573e-06
5.85988e-06
6.00879e-06
6.1343e-06
6.23663e-06
6.31622e-06
6.37541e-06
6.41739e-06
6.44439e-06
6.46211e-06
6.47377e-06
6.48262e-06
6.48776e-06
6.49437e-06
6.49995e-06
6.5024e-06
6.50311e-06
6.47102e-06
6.48175e-06
9.80402e-07
1.00032e-06
1.0183e-06
1.05633e-06
1.11545e-06
1.19149e-06
1.28301e-06
1.38959e-06
1.51053e-06
1.64468e-06
1.79068e-06
1.94742e-06
2.11366e-06
2.28739e-06
2.46648e-06
2.64868e-06
2.83167e-06
3.0128e-06
3.18944e-06
3.35968e-06
3.51782e-06
3.66194e-06
3.79331e-06
3.90722e-06
4.00365e-06
4.08385e-06
4.14844e-06
4.19766e-06
4.23192e-06
4.25204e-06
4.25873e-06
4.25304e-06
4.23571e-06
4.20852e-06
4.17328e-06
4.13082e-06
4.08169e-06
4.0281e-06
3.9763e-06
3.91295e-06
3.88345e-06
6.60245e-07
6.73686e-07
6.86796e-07
7.13042e-07
7.53109e-07
8.04509e-07
8.66303e-07
9.38132e-07
1.01948e-06
1.10955e-06
1.20744e-06
1.31236e-06
1.42341e-06
1.53932e-06
1.65859e-06
1.77971e-06
1.90108e-06
2.02091e-06
2.1374e-06
2.24921e-06
2.35244e-06
2.44603e-06
2.53102e-06
2.60407e-06
2.66507e-06
2.71489e-06
2.75399e-06
2.78266e-06
2.80139e-06
2.81078e-06
2.81148e-06
2.80424e-06
2.78941e-06
2.76792e-06
2.74077e-06
2.70844e-06
2.67085e-06
2.62876e-06
2.58642e-06
2.5335e-06
2.50869e-06
4.47472e-07
4.56614e-07
4.66253e-07
4.84545e-07
5.11937e-07
5.46959e-07
5.88978e-07
6.37696e-07
6.92713e-07
7.53485e-07
8.19387e-07
8.89823e-07
9.6418e-07
1.04161e-06
1.12102e-06
1.20141e-06
1.28167e-06
1.36059e-06
1.43691e-06
1.50975e-06
1.57646e-06
1.63649e-06
1.69075e-06
1.73691e-06
1.77488e-06
1.80527e-06
1.82845e-06
1.84465e-06
1.85423e-06
1.85766e-06
1.85542e-06
1.84808e-06
1.83596e-06
1.8197e-06
1.80003e-06
1.77728e-06
1.75142e-06
1.72287e-06
1.69461e-06
1.65882e-06
1.64503e-06
3.04841e-07
3.11132e-07
3.18278e-07
3.31146e-07
3.50035e-07
3.7408e-07
4.02842e-07
4.36082e-07
4.73485e-07
5.14676e-07
5.59201e-07
6.06634e-07
6.56538e-07
7.08319e-07
7.61214e-07
8.14528e-07
8.67496e-07
9.19305e-07
9.69094e-07
1.01627e-06
1.05905e-06
1.09722e-06
1.13151e-06
1.16034e-06
1.18366e-06
1.2019e-06
1.21535e-06
1.22419e-06
1.22868e-06
1.22915e-06
1.22597e-06
1.21952e-06
1.21003e-06
1.19795e-06
1.18375e-06
1.16769e-06
1.14973e-06
1.13013e-06
1.11097e-06
1.08665e-06
1.07861e-06
2.08543e-07
2.12924e-07
2.18275e-07
2.27414e-07
2.40552e-07
2.57185e-07
2.77006e-07
2.99814e-07
3.25375e-07
3.53416e-07
3.83613e-07
4.15654e-07
4.49226e-07
4.839e-07
5.1916e-07
5.54509e-07
5.89432e-07
6.23371e-07
6.55743e-07
6.86159e-07
7.1344e-07
7.37523e-07
7.59013e-07
7.76847e-07
7.90977e-07
8.0175e-07
8.09375e-07
8.13988e-07
8.15774e-07
8.1498e-07
8.11846e-07
8.06647e-07
7.99533e-07
7.90802e-07
7.80767e-07
7.69594e-07
7.57253e-07
7.43896e-07
7.30934e-07
7.14472e-07
7.09805e-07
1.43131e-07
1.46237e-07
1.50277e-07
1.56833e-07
1.66055e-07
1.7765e-07
1.914e-07
2.07142e-07
2.24701e-07
2.43876e-07
2.64438e-07
2.86152e-07
3.08793e-07
3.32057e-07
3.55593e-07
3.79046e-07
4.02067e-07
4.24276e-07
4.45283e-07
4.64835e-07
4.82153e-07
4.97259e-07
5.10636e-07
5.21567e-07
5.30028e-07
5.36277e-07
5.40473e-07
5.42721e-07
5.43148e-07
5.41925e-07
5.39217e-07
5.35205e-07
5.29989e-07
5.23765e-07
5.16735e-07
5.09011e-07
5.00572e-07
4.91506e-07
4.82758e-07
4.7166e-07
4.68955e-07
9.84788e-08
1.00725e-07
1.03806e-07
1.08557e-07
1.15088e-07
1.23234e-07
1.32839e-07
1.43768e-07
1.55895e-07
1.6907e-07
1.83127e-07
1.97895e-07
2.13206e-07
2.28849e-07
2.44587e-07
2.60162e-07
2.75341e-07
2.89872e-07
3.03496e-07
3.16044e-07
3.27013e-07
3.36456e-07
3.44749e-07
3.51411e-07
3.56434e-07
3.6e-07
3.62231e-07
3.632e-07
3.63e-07
3.61745e-07
3.59549e-07
3.56529e-07
3.52757e-07
3.48355e-07
3.4346e-07
3.38139e-07
3.32381e-07
3.26236e-07
3.20324e-07
3.12861e-07
3.11222e-07
6.78771e-08
6.95388e-08
7.19058e-08
7.53845e-08
8.00542e-08
8.58226e-08
9.25779e-08
1.00216e-07
1.08639e-07
1.17739e-07
1.27393e-07
1.37476e-07
1.47862e-07
1.58411e-07
1.68955e-07
1.79314e-07
1.89331e-07
1.98837e-07
2.07663e-07
2.15705e-07
2.22632e-07
2.28505e-07
2.33617e-07
2.37638e-07
2.40571e-07
2.42552e-07
2.43666e-07
2.43967e-07
2.43518e-07
2.42396e-07
2.40679e-07
2.38446e-07
2.35743e-07
2.32647e-07
2.29248e-07
2.25589e-07
2.21659e-07
2.17493e-07
2.13483e-07
2.08475e-07
2.0741e-07
4.68377e-08
4.80938e-08
4.99277e-08
5.24998e-08
5.58694e-08
5.99901e-08
6.47783e-08
7.0154e-08
7.60425e-08
8.23636e-08
8.90282e-08
9.59443e-08
1.0302e-07
1.10158e-07
1.17243e-07
1.24149e-07
1.30772e-07
1.37002e-07
1.42729e-07
1.47888e-07
1.52266e-07
1.55916e-07
1.59065e-07
1.61486e-07
1.63187e-07
1.64264e-07
1.64779e-07
1.64768e-07
1.64277e-07
1.63357e-07
1.6206e-07
1.60436e-07
1.58516e-07
1.5635e-07
1.53994e-07
1.51475e-07
1.48788e-07
1.45954e-07
1.43216e-07
1.39863e-07
1.39063e-07
3.23382e-08
3.33082e-08
3.47369e-08
3.66577e-08
3.91142e-08
4.20842e-08
4.55063e-08
4.93189e-08
5.34648e-08
5.78849e-08
6.25133e-08
6.72827e-08
7.21254e-08
7.69752e-08
8.17509e-08
8.63685e-08
9.07564e-08
9.48433e-08
9.8557e-08
1.01859e-07
1.04614e-07
1.06866e-07
1.08785e-07
1.10217e-07
1.11171e-07
1.11715e-07
1.11897e-07
1.11741e-07
1.11278e-07
1.10541e-07
1.09565e-07
1.08385e-07
1.0702e-07
1.05501e-07
1.03864e-07
1.02128e-07
1.00287e-07
9.83568e-08
9.6481e-08
9.42428e-08
9.36037e-08
2.23286e-08
2.30913e-08
2.42108e-08
2.56583e-08
2.74674e-08
2.96285e-08
3.20963e-08
3.48228e-08
3.77652e-08
4.08788e-08
4.41152e-08
4.74251e-08
5.07598e-08
5.4072e-08
5.73076e-08
6.04105e-08
6.33321e-08
6.60269e-08
6.84513e-08
7.05815e-08
7.23301e-08
7.37319e-08
7.49147e-08
7.57729e-08
7.63129e-08
7.65843e-08
7.66189e-08
7.64348e-08
7.60515e-08
7.54923e-08
7.47795e-08
7.39349e-08
7.29717e-08
7.191e-08
7.07722e-08
6.95699e-08
6.82994e-08
6.69745e-08
6.56714e-08
6.41826e-08
6.35891e-08
1.54121e-08
1.60204e-08
1.69007e-08
1.80016e-08
1.93475e-08
2.09352e-08
2.27314e-08
2.4699e-08
2.68053e-08
2.90164e-08
3.12967e-08
3.36098e-08
3.59205e-08
3.81947e-08
4.03963e-08
4.24868e-08
4.44338e-08
4.62079e-08
4.77813e-08
4.9141e-08
5.02323e-08
5.10812e-08
5.17838e-08
5.22688e-08
5.25418e-08
5.2639e-08
5.25837e-08
5.23887e-08
5.20668e-08
5.16336e-08
5.1104e-08
5.04918e-08
4.98058e-08
4.90584e-08
4.82637e-08
4.74284e-08
4.65505e-08
4.56408e-08
4.47361e-08
4.37465e-08
4.32345e-08
1.06311e-08
1.11214e-08
1.1816e-08
1.266e-08
1.36715e-08
1.48495e-08
1.6169e-08
1.7602e-08
1.9123e-08
2.07067e-08
2.23264e-08
2.3956e-08
2.55701e-08
2.71457e-08
2.86588e-08
3.00847e-08
3.14015e-08
3.25923e-08
3.36398e-08
3.45377e-08
3.52508e-08
3.57956e-08
3.62433e-08
3.65438e-08
3.67012e-08
3.67407e-08
3.66781e-08
3.6522e-08
3.6281e-08
3.59656e-08
3.55857e-08
3.51504e-08
3.46658e-08
3.41397e-08
3.35818e-08
3.29963e-08
3.23816e-08
3.17476e-08
3.11036e-08
3.04569e-08
2.99334e-08
7.32773e-09
7.72496e-09
8.27393e-09
8.92661e-09
9.6943e-09
1.05766e-08
1.15545e-08
1.26068e-08
1.37142e-08
1.48578e-08
1.60176e-08
1.71741e-08
1.83083e-08
1.94031e-08
2.04422e-08
2.14087e-08
2.22876e-08
2.30685e-08
2.37413e-08
2.43031e-08
2.47332e-08
2.50457e-08
2.52932e-08
2.54421e-08
2.54961e-08
2.54739e-08
2.5387e-08
2.52415e-08
2.50433e-08
2.47992e-08
2.45157e-08
2.41985e-08
2.38514e-08
2.3479e-08
2.3087e-08
2.26776e-08
2.22501e-08
2.18117e-08
2.13614e-08
2.0929e-08
2.05123e-08
5.04643e-09
5.36913e-09
5.80381e-09
6.31151e-09
6.89907e-09
7.56547e-09
8.29591e-09
9.07425e-09
9.88617e-09
1.0718e-08
1.15555e-08
1.23849e-08
1.31931e-08
1.39695e-08
1.47045e-08
1.53871e-08
1.60081e-08
1.65607e-08
1.70384e-08
1.74393e-08
1.77497e-08
1.79748e-08
1.81547e-08
1.82646e-08
1.83072e-08
1.82954e-08
1.82373e-08
1.81369e-08
1.79984e-08
1.78266e-08
1.76262e-08
1.74013e-08
1.71547e-08
1.68896e-08
1.66103e-08
1.63187e-08
1.60135e-08
1.57026e-08
1.53715e-08
1.51052e-08
1.46469e-08
3.47228e-09
3.73572e-09
4.08112e-09
4.47815e-09
4.92931e-09
5.43391e-09
5.9817e-09
6.56079e-09
7.16009e-09
7.76902e-09
8.37697e-09
8.97378e-09
9.54883e-09
1.00912e-08
1.05919e-08
1.10435e-08
1.14419e-08
1.17849e-08
1.20711e-08
1.23004e-08
1.2466e-08
1.25756e-08
1.26569e-08
1.26936e-08
1.26882e-08
1.26496e-08
1.25836e-08
1.24929e-08
1.238e-08
1.22477e-08
1.20989e-08
1.19356e-08
1.17597e-08
1.15727e-08
1.13768e-08
1.11724e-08
1.096e-08
1.07434e-08
1.05136e-08
1.03211e-08
1.00193e-08
2.39008e-09
2.60634e-09
2.88288e-09
3.19511e-09
3.54181e-09
3.9222e-09
4.33067e-09
4.76041e-09
5.20446e-09
5.65446e-09
6.10168e-09
6.53885e-09
6.96199e-09
7.36974e-09
7.75998e-09
8.12426e-09
8.45405e-09
8.74388e-09
8.9909e-09
9.19537e-09
9.352e-09
9.46056e-09
9.54474e-09
9.59247e-09
9.6059e-09
9.59179e-09
9.55459e-09
9.49656e-09
9.41993e-09
9.32723e-09
9.2209e-09
9.10303e-09
8.9751e-09
8.83864e-09
8.69572e-09
8.54755e-09
8.39269e-09
8.23823e-09
8.06193e-09
7.97165e-09
7.57432e-09
1.6532e-09
1.82889e-09
2.04865e-09
2.2938e-09
2.56047e-09
2.84713e-09
3.14989e-09
3.46503e-09
3.78982e-09
4.12064e-09
4.45129e-09
4.77174e-09
5.06963e-09
5.33308e-09
5.55793e-09
5.75038e-09
5.91841e-09
6.06357e-09
6.18507e-09
6.28102e-09
6.34894e-09
6.3929e-09
6.42477e-09
6.43661e-09
6.42937e-09
6.40716e-09
6.37259e-09
6.32677e-09
6.27071e-09
6.20555e-09
6.13241e-09
6.05206e-09
5.96529e-09
5.87263e-09
5.77478e-09
5.6716e-09
5.56428e-09
5.45349e-09
5.3352e-09
5.23457e-09
5.06558e-09
1.15291e-09
1.2924e-09
1.46098e-09
1.6461e-09
1.84576e-09
2.06045e-09
2.28746e-09
2.52211e-09
2.75989e-09
2.99814e-09
3.23757e-09
3.48242e-09
3.73778e-09
4.00612e-09
4.28014e-09
4.5369e-09
4.75801e-09
4.94289e-09
5.09474e-09
5.21808e-09
5.31124e-09
5.37249e-09
5.41733e-09
5.44058e-09
5.44433e-09
5.43258e-09
5.40805e-09
5.37235e-09
5.32704e-09
5.27374e-09
5.21398e-09
5.14909e-09
5.07998e-09
5.00754e-09
4.93299e-09
4.85742e-09
4.77893e-09
4.70488e-09
4.60901e-09
4.61117e-09
4.24972e-09
8.04406e-10
9.1782e-10
1.04624e-09
1.17958e-09
1.31809e-09
1.46676e-09
1.62863e-09
1.80391e-09
1.98895e-09
2.17505e-09
2.34906e-09
2.49678e-09
2.60868e-09
2.68347e-09
2.73397e-09
2.78936e-09
2.86325e-09
2.94369e-09
3.02109e-09
3.08932e-09
3.14652e-09
3.19439e-09
3.23518e-09
3.26523e-09
3.28456e-09
3.29486e-09
3.29724e-09
3.29218e-09
3.28011e-09
3.26152e-09
3.2369e-09
3.20655e-09
3.17089e-09
3.13007e-09
3.08437e-09
3.03337e-09
2.97894e-09
2.9184e-09
2.85831e-09
2.77789e-09
2.74782e-09
5.59664e-10
6.63057e-10
7.74156e-10
8.79781e-10
9.77185e-10
1.07063e-09
1.16536e-09
1.26718e-09
1.38304e-09
1.52079e-09
1.68814e-09
1.89086e-09
2.12929e-09
2.39727e-09
2.67358e-09
2.90627e-09
3.07183e-09
3.19751e-09
3.29533e-09
3.37119e-09
3.42316e-09
3.4524e-09
3.46828e-09
3.46954e-09
3.45852e-09
3.43804e-09
3.41013e-09
3.37628e-09
3.33792e-09
3.29641e-09
3.25297e-09
3.20869e-09
3.16425e-09
3.12038e-09
3.07796e-09
3.03834e-09
2.9988e-09
2.96825e-09
2.91489e-09
2.9775e-09
2.61277e-09
4.09665e-10
4.96956e-10
5.90787e-10
6.84127e-10
7.72543e-10
8.53629e-10
9.23943e-10
9.80323e-10
1.02168e-09
1.04938e-09
1.06667e-09
1.07768e-09
1.0867e-09
1.09444e-09
1.10467e-09
1.14361e-09
1.21388e-09
1.29385e-09
1.37595e-09
1.45484e-09
1.5288e-09
1.59732e-09
1.66089e-09
1.71837e-09
1.76888e-09
1.81253e-09
1.84945e-09
1.87957e-09
1.90271e-09
1.91879e-09
1.92772e-09
1.92935e-09
1.92371e-09
1.9105e-09
1.88986e-09
1.86118e-09
1.82652e-09
1.78042e-09
1.73913e-09
1.64076e-09
1.69667e-09
4.77589e-10
5.99367e-10
6.68461e-10
6.79861e-10
6.60228e-10
6.48842e-10
6.78712e-10
7.67486e-10
9.16149e-10
1.1124e-09
1.33593e-09
1.5644e-09
1.77778e-09
1.96496e-09
2.11529e-09
2.18636e-09
2.18317e-09
2.1463e-09
2.09494e-09
2.03659e-09
1.96882e-09
1.90753e-09
1.84247e-09
1.77701e-09
1.71277e-09
1.65008e-09
1.58897e-09
1.52954e-09
1.47177e-09
1.4155e-09
1.36045e-09
1.3064e-09
1.25276e-09
1.19912e-09
1.14544e-09
1.0922e-09
1.0367e-09
9.84115e-10
9.15768e-10
9.10818e-10
6.70825e-10
540.248
371.32
210.315
108.639
48.0484
17.9168
5.65817
1.50623
0.327768
0.0641859
0.0175411
0.000327543
1.17321e-05
3.15144e-10
2.42126e-05
3.69857e-05
2.05571e-05
1.46525e-05
1.16818e-05
9.016e-06
6.77757e-06
5.06915e-06
3.76747e-06
2.76965e-06
2.02341e-06
1.45624e-06
1.05378e-06
7.43486e-07
5.2262e-07
3.60594e-07
2.47227e-07
1.65535e-07
1.09243e-07
7.03266e-08
4.4496e-08
2.7366e-08
1.6435e-08
9.48488e-09
5.38883e-09
2.7816e-09
1.40873e-09
6.7684e-10
2.74198e-10
1.04123e-10
3.96559e-11
1.33732e-11
1.19556e-11
2.0407e-11
1.97609e-11
1.45868e-11
1.27998e-11
7.3479e-12
4.54688e-12
2.98648e-12
3.85915e-12
7.12398e-12
1.15852e-11
1.7195e-11
2.32519e-11
2.89381e-11
3.37058e-11
3.71809e-11
3.918e-11
3.94142e-11
3.79872e-11
3.4912e-11
3.09207e-11
2.55568e-11
2.10252e-11
1.41216e-11
1.34968e-11
6.56551e-12
2.34573e-11
2.08273e-11
282.429
434.397
310.064
183.676
95.6404
43.6439
17.5773
6.29264
1.95345
0.474112
0.0824348
0.0165379
0.000839356
9.94496e-05
7.67699e-08
9.08051e-06
2.9272e-05
1.78036e-05
1.13742e-05
8.93304e-06
6.91752e-06
5.18676e-06
3.86065e-06
2.84585e-06
2.08754e-06
1.50586e-06
1.09254e-06
7.74797e-07
5.4648e-07
3.79031e-07
2.61144e-07
1.76557e-07
1.17636e-07
7.68162e-08
4.94151e-08
3.10169e-08
1.91246e-08
1.14049e-08
6.75003e-09
3.71518e-09
1.99723e-09
1.06625e-09
5.07253e-10
2.33242e-10
1.0887e-10
4.20148e-11
2.34976e-11
2.12914e-11
1.79124e-11
1.18932e-11
1.14697e-11
7.06743e-12
5.04391e-12
3.52872e-12
4.00685e-12
6.34722e-12
9.59384e-12
1.38841e-11
1.86152e-11
2.30965e-11
2.68568e-11
2.9508e-11
3.13029e-11
3.12552e-11
2.9994e-11
2.73205e-11
2.37744e-11
1.94868e-11
1.57601e-11
9.99039e-12
1.02306e-11
4.41649e-12
2.22042e-11
1.92686e-11
95.1917
300.38
320.629
236.497
145.921
78.8632
38.0503
16.6633
6.6299
2.28633
0.600366
0.0989948
0.0156505
0.00133017
0.000295461
2.31929e-08
1.06981e-06
1.96465e-05
1.5178e-05
9.11375e-06
6.78335e-06
5.26113e-06
3.95391e-06
2.9222e-06
2.15444e-06
1.56745e-06
1.13441e-06
8.11751e-07
5.75338e-07
4.01938e-07
2.77871e-07
1.89488e-07
1.27531e-07
8.45383e-08
5.51612e-08
3.53588e-08
2.23024e-08
1.37073e-08
8.33187e-09
4.88489e-09
2.7285e-09
1.53939e-09
8.05896e-10
4.04043e-10
1.99612e-10
8.67964e-11
4.49989e-11
2.31255e-11
1.42412e-11
8.92271e-12
7.47673e-12
4.57227e-12
3.08838e-12
1.91376e-12
1.98366e-12
3.34573e-12
5.50245e-12
8.56458e-12
1.19518e-11
1.5371e-11
1.8165e-11
2.03285e-11
2.18523e-11
2.17689e-11
2.09411e-11
1.87983e-11
1.62533e-11
1.30545e-11
1.03972e-11
5.97953e-12
7.39294e-12
2.7199e-12
2.1275e-11
1.83627e-11
36.9086
173.237
261.612
246.045
182.745
116.586
66.1956
34.238
16.3513
7.1227
2.6677
0.747663
0.124322
0.015788
0.00179197
0.000537502
1.88265e-09
6.46803e-10
1.10023e-05
1.25437e-05
7.40265e-06
5.17768e-06
4.0169e-06
3.02569e-06
2.22846e-06
1.62739e-06
1.17994e-06
8.49721e-07
6.0477e-07
4.25192e-07
2.95255e-07
2.02819e-07
1.37607e-07
9.22145e-08
6.09088e-08
3.9666e-08
2.54665e-08
1.60094e-08
9.94306e-09
6.03869e-09
3.48559e-09
2.03249e-09
1.12006e-09
5.89463e-10
3.04819e-10
1.41431e-10
7.23493e-11
3.25121e-11
1.54866e-11
8.57319e-12
5.78435e-12
3.44968e-12
2.16092e-12
1.05568e-12
6.62946e-13
1.09134e-12
2.22357e-12
4.09562e-12
6.32085e-12
8.71739e-12
1.07735e-11
1.24467e-11
1.3705e-11
1.3744e-11
1.32923e-11
1.18171e-11
1.01595e-11
7.92753e-12
6.31324e-12
3.0925e-12
5.64983e-12
1.75065e-12
2.12208e-11
1.81963e-11
18.3067
94.7277
182.84
215.407
192.992
145.21
96.2566
57.871
32.1934
16.653
7.84305
3.15417
0.949027
0.171391
0.0187801
0.00247845
0.000779309
1.51595e-07
3.44746e-08
3.59966e-06
1.00146e-05
6.33964e-06
3.99721e-06
3.02182e-06
2.31562e-06
1.70247e-06
1.22953e-06
8.87065e-07
6.33968e-07
4.48039e-07
3.12464e-07
2.15941e-07
1.47438e-07
9.95651e-08
6.6438e-08
4.37668e-08
2.84785e-08
1.82018e-08
1.15064e-08
7.11789e-09
4.2161e-09
2.51478e-09
1.42376e-09
7.73104e-10
4.10476e-10
1.97879e-10
1.00682e-10
4.43277e-11
1.91557e-11
9.56391e-12
5.58503e-12
3.47588e-12
2.34624e-12
1.26791e-12
4.74064e-13
1.15292e-13
3.2797e-13
1.11929e-12
2.31195e-12
3.7811e-12
5.16601e-12
6.39233e-12
7.40632e-12
7.5851e-12
7.45274e-12
6.61427e-12
5.68825e-12
4.30127e-12
3.64474e-12
1.36771e-12
5.00253e-12
1.43274e-12
2.20528e-11
1.85495e-11
11.1113
51.8321
115.872
164.466
175.586
155.052
119.335
82.6896
52.8007
31.4883
17.5075
8.83742
3.80903
1.2546
0.258974
0.0286633
0.00336379
7.07083e-05
7.78008e-11
9.11692e-09
6.73159e-07
6.55362e-06
5.76677e-06
3.30021e-06
2.24735e-06
1.72505e-06
1.28936e-06
9.31507e-07
6.63629e-07
4.70361e-07
3.29811e-07
2.29064e-07
1.57207e-07
1.06787e-07
7.1808e-08
4.77308e-08
3.13668e-08
2.02955e-08
1.29945e-08
8.1418e-09
4.90922e-09
2.97164e-09
1.70899e-09
9.45673e-10
5.08547e-10
2.49604e-10
1.25566e-10
5.42989e-11
2.22272e-11
1.01123e-11
5.67958e-12
4.08261e-12
3.44259e-12
2.6437e-12
1.66912e-12
7.63332e-13
1.9375e-13
1.05136e-14
2.54942e-13
8.43892e-13
1.56623e-12
2.32014e-12
3.05019e-12
3.30495e-12
3.40604e-12
3.0774e-12
2.75592e-12
2.05436e-12
2.25196e-12
6.56099e-13
5.32442e-12
1.65789e-12
2.35972e-11
1.92753e-11
8.04348
28.9696
69.2708
112.993
140.533
144.026
127.767
101.343
73.6345
49.8614
31.7231
18.8291
10.1465
4.71467
1.72193
0.421004
0.0554671
0.0055093
0.00147328
8.3785e-05
8.46147e-10
2.09216e-08
1.95881e-06
4.95177e-06
3.20491e-06
1.82198e-06
1.26889e-06
9.59315e-07
7.00501e-07
4.95288e-07
3.4632e-07
2.41338e-07
1.66644e-07
1.13808e-07
7.69322e-08
5.14762e-08
3.40805e-08
2.22606e-08
1.43774e-08
9.09556e-09
5.55258e-09
3.39085e-09
1.96806e-09
1.10038e-09
5.94388e-10
2.93229e-10
1.4495e-10
6.09736e-11
2.36196e-11
9.92254e-12
5.94431e-12
5.44838e-12
5.7561e-12
5.57406e-12
4.66034e-12
3.42559e-12
2.17485e-12
1.07042e-12
3.82247e-13
6.84035e-14
7.40821e-14
2.7457e-13
6.14194e-13
8.29605e-13
1.03499e-12
1.04579e-12
1.2024e-12
9.97225e-13
1.91681e-12
7.65502e-13
6.39348e-12
2.30906e-12
2.55936e-11
2.03043e-11
6.63526
16.6802
40.0157
71.6544
100.952
118.069
119.426
107.572
88.2983
67.2635
48.1664
32.5281
20.524
11.8149
5.94183
2.42998
0.713638
0.124194
0.0115762
0.000646514
0.000385061
0
3.60451e-09
2.29706e-08
1.81577e-06
2.76396e-06
1.66117e-06
9.80425e-07
6.92117e-07
5.13816e-07
3.67342e-07
2.54932e-07
1.75254e-07
1.20021e-07
8.16223e-08
5.49355e-08
3.6563e-08
2.4036e-08
1.56195e-08
9.95265e-09
6.13384e-09
3.76354e-09
2.19568e-09
1.2341e-09
6.66253e-10
3.28323e-10
1.58809e-10
6.47905e-11
2.3699e-11
9.71435e-12
6.95877e-12
8.18935e-12
9.85366e-12
1.05821e-11
9.91401e-12
8.46386e-12
6.57268e-12
4.52856e-12
2.84896e-12
1.54803e-12
7.21214e-13
2.37564e-13
4.21658e-14
6.22826e-14
2.1112e-13
3.82478e-13
8.5969e-13
9.57202e-13
2.44254e-12
1.51862e-12
7.98815e-12
3.26697e-12
2.78346e-11
2.15515e-11
5.66756
9.89661
22.5062
42.6333
66.171
86.5936
98.4805
99.7126
91.7334
78.0275
62.2559
46.9896
33.5642
22.4808
13.8291
7.55458
3.47077
1.22416
0.285365
0.0355918
0.00268209
0.000772418
7.55316e-05
2.20759e-11
4.0584e-09
1.25747e-07
1.37561e-06
1.47632e-06
8.52835e-07
5.10359e-07
3.58868e-07
2.63133e-07
1.85817e-07
1.26895e-07
8.57356e-08
5.77742e-08
3.86916e-08
2.56052e-08
1.67137e-08
1.06968e-08
6.6384e-09
4.08355e-09
2.39022e-09
1.34698e-09
7.2427e-10
3.55352e-10
1.67846e-10
6.64747e-11
2.32752e-11
1.01991e-11
9.38342e-12
1.28944e-11
1.62687e-11
1.81108e-11
1.78018e-11
1.61627e-11
1.36076e-11
1.05468e-11
7.75232e-12
5.32414e-12
3.499e-12
2.16122e-12
1.2599e-12
8.98259e-13
8.0891e-13
9.54873e-13
1.57491e-12
1.78686e-12
3.67882e-12
2.7832e-12
9.95382e-12
4.43666e-12
3.019e-11
2.29162e-11
4.46712
5.83725
12.1223
23.7803
39.8864
57.3667
72.2779
81.2997
83.0574
78.2849
69.0571
57.6228
45.7307
34.4819
24.4864
16.1099
9.5694
4.93047
2.06485
0.629649
0.117719
0.01188
0.000621678
0.000305256
3.17739e-06