/*--------------------------------*- C++ -*----------------------------------*\
| =========                 |                                                 |
| \\      /  F ield         | OpenFOAM: The Open Source CFD Toolbox           |
|  \\    /   O peration     | Version:  2312                                  |
|   \\  /    A nd           | Website:  www.openfoam.com                      |
|    \\/     M anipulation  |                                                 |
\*---------------------------------------------------------------------------*/
FoamFile
{
    version     2.0;
    format      ascii;
    arch        "LSB;label=32;scalar=64";
    class       volScalarField;
    location    "650";
    object      turbulenceProperties:nut;
}
// * * * * * * * * * * * * * * * * * * * * * * * * * * * * * * * * * * * * * //

dimensions      [0 2 -1 0 0 0 0];

internalField   nonuniform List<scalar> 
11040
(
3.81464e-05
5.4922e-05
1.51604e-05
4.89931e-05
0.000187721
0.000180016
0.000170208
0.000159732
0.000147033
0.000138941
0.000130869
0.000123799
0.000117438
0.000112582
0.000108423
0.000106449
0.000106587
0.000108598
0.00011207
0.000116847
0.000123022
0.000130364
0.000138558
0.000147376
0.000156892
0.000168125
0.000181046
0.000193617
0.00020526
0.000215381
0.000223319
0.000228603
0.000232317
0.000239834
0.000259625
0.000236711
0.000166479
0.000181548
0.000200697
0.000221862
0.000290661
4.22502e-06
3.72059e-05
5.58708e-05
0.000145042
0.000602102
0.000624948
0.000550436
0.000505332
0.000439927
0.00040357
0.000367574
0.00033952
0.000313007
0.00029345
0.000274888
0.000262796
0.000257836
0.000257931
0.000260544
0.000264764
0.00027084
0.000278823
0.000287081
0.000294398
0.000301603
0.000316445
0.000344386
0.000376924
0.000413574
0.000454462
0.000499804
0.000549745
0.000603859
0.000664089
0.000732381
0.000800016
0.000870056
0.000961318
0.00107067
0.00115513
0.00160168
5.49626e-06
9.54757e-06
3.01729e-05
6.65877e-05
0.000416757
0.000968471
0.00118391
0.00114
0.000998823
0.000921795
0.000839904
0.000779896
0.000720797
0.00067898
0.00063747
0.000604954
0.000580175
0.000561346
0.000550615
0.000546908
0.000551781
0.00056625
0.000591048
0.000627054
0.000674385
0.00073286
0.000802232
0.000881979
0.000971679
0.00107068
0.00117789
0.00129259
0.00141483
0.0015453
0.00168511
0.00183408
0.00199931
0.0022005
0.00244616
0.00268105
0.00348017
6.4747e-06
5.17496e-06
1.07074e-05
1.13592e-05
0.000141838
0.000603054
0.0013116
0.00170523
0.00177078
0.00167514
0.00153151
0.00143339
0.00132898
0.00125464
0.00118012
0.0011194
0.00107469
0.00103938
0.00101873
0.00101088
0.00101786
0.00104266
0.00108782
0.00115453
0.00124226
0.00134985
0.00147632
0.00162069
0.00178198
0.00195914
0.00215057
0.00235487
0.00257099
0.0027992
0.00304061
0.0032985
0.00358641
0.00393116
0.00435449
0.00480532
0.00594153
6.20168e-06
5.75347e-06
6.42179e-06
5.36895e-06
5.01651e-06
0.000181634
0.00071976
0.00157346
0.00225659
0.00246042
0.00246668
0.00235437
0.00218916
0.0020769
0.00196329
0.00186336
0.00179322
0.00173565
0.00170109
0.00168744
0.00169514
0.00172977
0.00179745
0.00190019
0.00203725
0.00220718
0.00240821
0.00263807
0.00289469
0.00317615
0.0034793
0.00380135
0.00414025
0.00449568
0.00486846
0.00526347
0.00569878
0.0062179
0.00685528
0.00758316
0.00902941
6.09166e-06
6.18189e-06
5.89462e-06
6.5927e-06
1.63733e-06
9.69741e-07
0.000178359
0.000745364
0.00173537
0.002744
0.00320613
0.00337013
0.00335267
0.00323828
0.00305944
0.00290166
0.00279807
0.00270949
0.00265325
0.00263086
0.00263721
0.00267979
0.00277162
0.00291666
0.00311385
0.00336188
0.003658
0.00399785
0.00437704
0.00479252
0.00523865
0.00571011
0.00620315
0.00671638
0.00724966
0.00780864
0.00841594
0.00913278
0.0100139
0.0110697
0.0128486
6.10361e-06
6.13753e-06
6.00869e-06
6.36474e-06
5.89544e-06
3.88999e-07
4.1288e-09
0.000126426
0.000676919
0.00173791
0.00304144
0.0039628
0.00433348
0.00447008
0.00445747
0.00435245
0.00420256
0.00405351
0.00396293
0.00392797
0.00393154
0.0039784
0.00409327
0.00428486
0.0045514
0.00489257
0.00530521
0.0057821
0.00631384
0.00689634
0.00752015
0.00817545
0.00885562
0.00955763
0.010279
0.011025
0.0118233
0.0127479
0.0138888
0.0153019
0.0174631
6.11406e-06
6.11125e-06
6.13082e-06
6.04656e-06
6.58082e-06
6.00128e-06
1.24083e-08
4.91499e-11
5.92198e-05
0.000530568
0.00155697
0.00306844
0.00452505
0.00531979
0.00567934
0.00581758
0.00584014
0.00578816
0.00571964
0.00566668
0.00566974
0.00573272
0.00587416
0.00611693
0.00645945
0.00690546
0.00745396
0.00809632
0.00881178
0.00959599
0.0104346
0.0113098
0.0122099
0.0131298
0.0140627
0.0150107
0.0160061
0.0171319
0.0185203
0.0202817
0.0228486
6.11221e-06
6.11565e-06
6.11117e-06
6.13012e-06
5.99367e-06
7.19761e-06
5.30974e-06
8.2643e-08
3.95652e-07
1.07344e-06
0.000328798
0.00121833
0.0027737
0.00466577
0.0061677
0.00691137
0.00730562
0.0075049
0.00762592
0.00770924
0.00781166
0.00795992
0.0081937
0.00853991
0.00899873
0.0095701
0.010263
0.0110822
0.01201
0.0130286
0.0141192
0.0152508
0.0164007
0.0175629
0.0187241
0.019876
0.0210567
0.0223578
0.0239332
0.0259787
0.0288971
6.1116e-06
6.11302e-06
6.11264e-06
6.11741e-06
6.09505e-06
6.04311e-06
7.40504e-06
4.79285e-06
3.83002e-07
1.92069e-08
4.56642e-10
0.000155355
0.000807324
0.00220912
0.0042838
0.00648755
0.00803238
0.00882884
0.00933707
0.00969897
0.0100371
0.0103964
0.0108378
0.0114038
0.0121123
0.0129613
0.0139387
0.015026
0.0162063
0.0174814
0.0188509
0.020266
0.0216813
0.0230924
0.0244836
0.0258196
0.0271442
0.0285634
0.0302149
0.0323954
0.0355055
6.11043e-06
6.11115e-06
6.11225e-06
6.10767e-06
6.12577e-06
6.05024e-06
6.18067e-06
7.0838e-06
5.74689e-06
9.92425e-07
7.20676e-09
1.1765e-06
1.1752e-06
0.000397193
0.00147326
0.00341679
0.00599637
0.00852159
0.0102263
0.0112182
0.0119858
0.01267
0.0134019
0.0142619
0.0153023
0.0165379
0.0179626
0.0195557
0.021281
0.0230882
0.0249116
0.0266787
0.02836
0.0300044
0.0316206
0.0330943
0.0344716
0.0359194
0.0375075
0.0395439
0.0425117
6.10904e-06
6.1095e-06
6.10901e-06
6.10949e-06
6.10617e-06
6.11533e-06
6.05652e-06
6.16891e-06
6.79239e-06
6.41139e-06
2.45344e-06
1.352e-09
2.42873e-09
3.25734e-05
0.000118524
0.000770293
0.002278
0.00475384
0.00785547
0.0108199
0.0129068
0.014272
0.0154523
0.0166694
0.0180642
0.0196956
0.0215774
0.0237035
0.0260385
0.0285253
0.0310934
0.0336611
0.036136
0.0384265
0.0404106
0.0419816
0.0432589
0.0446412
0.0459885
0.0475734
0.0499327
6.10769e-06
6.10762e-06
6.10738e-06
6.10712e-06
6.10652e-06
6.10588e-06
6.10733e-06
6.07251e-06
6.1291e-06
6.53073e-06
6.98245e-06
4.2151e-06
1.33962e-07
1.45033e-09
2.08724e-07
0.000111548
0.000252061
0.00117694
0.00309476
0.00609326
0.00980007
0.0133439
0.0159797
0.0179307
0.0198007
0.0218462
0.0241418
0.0267363
0.0296111
0.0327066
0.03595
0.0392572
0.0425314
0.0456766
0.048591
0.0511617
0.053293
0.0548995
0.055905
0.0568106
0.0583208
6.10641e-06
6.10671e-06
6.10662e-06
6.10628e-06
6.10584e-06
6.10527e-06
6.10526e-06
6.10522e-06
6.08473e-06
6.09359e-06
6.33262e-06
7.13221e-06
5.824e-06
1.3084e-06
1.99339e-11
3.01976e-11
2.12939e-06
0.000185546
0.000389842
0.00152645
0.00379732
0.00714306
0.0110925
0.0151535
0.0188021
0.0218725
0.0247315
0.0277796
0.0311259
0.0347295
0.038534
0.0424681
0.0464281
0.0503156
0.0540305
0.0574766
0.060564
0.0632323
0.0654122
0.0670776
0.0682444
6.10536e-06
6.10618e-06
6.10618e-06
6.10585e-06
6.10547e-06
6.10513e-06
6.10466e-06
6.10489e-06
6.10428e-06
6.09583e-06
6.06949e-06
6.22018e-06
6.87786e-06
6.70723e-06
4.23079e-06
1.91148e-07
2.37073e-09
2.76964e-13
9.3343e-06
1.39292e-08
0.000462552
0.00163192
0.00373516
0.0068122
0.0106901
0.0151179
0.0198101
0.0244558
0.0288709
0.0331426
0.037475
0.0419596
0.0465351
0.0510919
0.0555244
0.0597375
0.0636596
0.0672568
0.0704592
0.073215
0.0755207
6.10453e-06
6.1058e-06
6.10573e-06
6.10538e-06
6.10493e-06
6.1045e-06
6.10415e-06
6.10382e-06
6.10374e-06
6.10394e-06
6.10063e-06
6.06747e-06
6.14784e-06
6.43645e-06
7.15022e-06
5.76209e-06
2.69443e-06
3.66627e-09
3.16333e-10
4.70634e-12
1.29231e-05
0.000208597
0.000281879
0.00109665
0.00262349
0.00498796
0.00821842
0.0122756
0.0170713
0.0224835
0.0283129
0.0342675
0.0400722
0.0456057
0.0508707
0.0558946
0.0606739
0.0651941
0.0693936
0.073203
0.0765965
6.10382e-06
6.1051e-06
6.10494e-06
6.10435e-06
6.10381e-06
6.10339e-06
6.10306e-06
6.10279e-06
6.10263e-06
6.10228e-06
6.1035e-06
6.09977e-06
6.08482e-06
6.07713e-06
6.26843e-06
6.71021e-06
7.13148e-06
4.90334e-06
1.31498e-06
1.87529e-10
1.33489e-10
9.0932e-15
1.39944e-06
7.61963e-05
4.5192e-12
0.000316744
0.00108325
0.00239217
0.00439686
0.00718126
0.0107948
0.0152473
0.0204882
0.02642
0.0328615
0.0395396
0.0461441
0.0524582
0.0583012
0.0635819
0.0683046
6.10292e-06
6.10393e-06
6.10359e-06
6.10305e-06
6.1026e-06
6.10226e-06
6.10204e-06
6.10191e-06
6.10174e-06
6.10159e-06
6.1014e-06
6.10212e-06
6.10089e-06
6.09188e-06
6.06918e-06
6.12942e-06
6.37882e-06
6.9978e-06
6.93672e-06
4.58544e-06
9.89009e-07
1.68461e-10
1.60279e-10
3.75612e-13
2.28005e-16
1.31352e-06
5.79518e-05
0.000200514
7.08629e-05
0.000410278
0.00114047
0.0023581
0.00416021
0.00664167
0.00986473
0.0138329
0.0184969
0.0238205
0.0296633
0.0358479
0.0421829
6.10177e-06
6.10241e-06
6.1019e-06
6.10126e-06
6.10075e-06
6.10039e-06
6.10017e-06
6.10006e-06
6.10001e-06
6.10003e-06
6.10004e-06
6.10009e-06
6.1002e-06
6.10124e-06
6.09472e-06
6.08344e-06
6.06676e-06
6.19673e-06
6.52778e-06
7.05892e-06
6.80364e-06
4.33872e-06
1.57102e-06
8.63305e-09
5.40104e-10
2.71602e-11
5.96706e-14
0
8.51063e-09
2.30361e-06
5.1626e-05
0.000157685
0.000303361
4.2008e-05
0.000452229
0.00115131
0.00226094
0.00384649
0.0059544
0.00861951
0.0118921
6.10054e-06
6.10087e-06
6.10024e-06
6.09959e-06
6.09911e-06
6.0988e-06
6.09863e-06
6.09856e-06
6.09854e-06
6.09857e-06
6.09864e-06
6.09872e-06
6.09877e-06
6.09913e-06
6.09951e-06
6.09877e-06
6.08829e-06
6.07203e-06
6.08186e-06
6.24664e-06
6.64772e-06
7.04826e-06
6.94688e-06
5.12237e-06
2.58963e-06
7.59284e-07
1.8663e-09
2.86217e-10
2.70418e-11
5.79704e-12
2.13169e-15
0
0
1.92709e-09
2.10488e-06
4.00893e-05
0.000127923
0.00024663
2.02283e-05
0.000138036
0.000381625
6.09925e-06
6.09934e-06
6.0987e-06
6.09813e-06
6.09776e-06
6.09757e-06
6.0975e-06
6.0975e-06
6.09755e-06
6.09762e-06
6.09771e-06
6.09781e-06
6.0979e-06
6.09798e-06
6.09818e-06
6.09863e-06
6.09911e-06
6.09512e-06
6.08121e-06
6.06448e-06
6.09608e-06
6.27899e-06
6.58847e-06
7.07333e-06
7.08108e-06
6.51823e-06
4.78684e-06
2.64422e-06
1.04088e-06
2.49149e-07
1.00841e-10
1.1288e-10
2.43463e-11
8.8496e-12
2.18471e-12
2.18775e-14
0
0
3.86117e-10
1.7186e-08
6.21039e-07
6.09793e-06
6.0979e-06
6.09737e-06
6.09698e-06
6.0968e-06
6.09678e-06
6.09685e-06
6.09696e-06
6.09709e-06
6.09721e-06
6.09734e-06
6.09745e-06
6.09755e-06
6.09763e-06
6.09772e-06
6.09779e-06
6.09815e-06
6.09872e-06
6.0981e-06
6.09179e-06
6.07501e-06
6.06734e-06
6.08952e-06
6.22079e-06
6.46875e-06
6.76654e-06
7.14e-06
7.17426e-06
6.69764e-06
5.84894e-06
4.3494e-06
2.71081e-06
1.42934e-06
5.74923e-07
1.56496e-07
1.72124e-09
1.88618e-10
2.33001e-11
1.22466e-11
5.88167e-12
2.25266e-12
6.09664e-06
6.09664e-06
6.09634e-06
6.09622e-06
6.09628e-06
6.09646e-06
6.09668e-06
6.09691e-06
6.09712e-06
6.09731e-06
6.09748e-06
6.09762e-06
6.09773e-06
6.09783e-06
6.0979e-06
6.09795e-06
6.098e-06
6.09814e-06
6.09857e-06
6.09906e-06
6.09739e-06
6.09036e-06
6.07734e-06
6.0641e-06
6.07689e-06
6.12849e-06
6.26133e-06
6.47531e-06
6.73333e-06
6.97348e-06
7.23348e-06
7.24479e-06
6.96044e-06
6.38061e-06
5.61274e-06
4.53546e-06
3.34473e-06
2.22148e-06
1.31175e-06
6.94569e-07
2.96486e-07
6.09545e-06
6.09562e-06
6.09565e-06
6.09585e-06
6.09616e-06
6.09653e-06
6.09689e-06
6.09722e-06
6.09751e-06
6.09776e-06
6.09798e-06
6.09815e-06
6.0983e-06
6.09841e-06
6.0985e-06
6.09857e-06
6.09861e-06
6.09863e-06
6.09868e-06
6.09886e-06
6.09939e-06
6.09955e-06
6.09831e-06
6.09276e-06
6.08257e-06
6.07063e-06
6.06289e-06
6.07303e-06
6.11617e-06
6.19378e-06
6.32321e-06
6.49879e-06
6.6995e-06
6.90092e-06
7.07683e-06
7.25113e-06
7.32049e-06
7.23624e-06
6.98322e-06
6.56727e-06
6.06432e-06
6.09441e-06
6.0949e-06
6.09531e-06
6.0958e-06
6.09634e-06
6.09686e-06
6.09733e-06
6.09774e-06
6.0981e-06
6.0984e-06
6.09866e-06
6.09887e-06
6.09905e-06
6.0992e-06
6.09931e-06
6.09941e-06
6.09948e-06
6.09953e-06
6.09956e-06
6.09957e-06
6.09965e-06
6.09987e-06
6.1003e-06
6.10066e-06
6.09995e-06
6.09722e-06
6.09124e-06
6.08197e-06
6.07169e-06
6.06404e-06
6.06242e-06
6.07354e-06
6.10249e-06
6.15304e-06
6.22443e-06
6.322e-06
6.44351e-06
6.58558e-06
6.73731e-06
6.88897e-06
7.02232e-06
6.09358e-06
6.09447e-06
6.09524e-06
6.09598e-06
6.09668e-06
6.0973e-06
6.09784e-06
6.09831e-06
6.09872e-06
6.09907e-06
6.09937e-06
6.09963e-06
6.09984e-06
6.10003e-06
6.10018e-06
6.10031e-06
6.10041e-06
6.1005e-06
6.10057e-06
6.10062e-06
6.10067e-06
6.10071e-06
6.10077e-06
6.10097e-06
6.10131e-06
6.10168e-06
6.10176e-06
6.10098e-06
6.09871e-06
6.09471e-06
6.08876e-06
6.08122e-06
6.07311e-06
6.06585e-06
6.06112e-06
6.06034e-06
6.0655e-06
6.07939e-06
6.1031e-06
6.13975e-06
6.18032e-06
6.093e-06
6.09429e-06
6.09535e-06
6.09626e-06
6.09705e-06
6.09774e-06
6.09833e-06
6.09885e-06
6.0993e-06
6.09969e-06
6.10003e-06
6.10033e-06
6.10059e-06
6.10081e-06
6.101e-06
6.10117e-06
6.10131e-06
6.10143e-06
6.10154e-06
6.10163e-06
6.10173e-06
6.10181e-06
6.10186e-06
6.1019e-06
6.10196e-06
6.10207e-06
6.10228e-06
6.10258e-06
6.10287e-06
6.103e-06
6.10277e-06
6.10196e-06
6.10035e-06
6.09775e-06
6.09415e-06
6.08954e-06
6.08411e-06
6.07807e-06
6.07192e-06
6.06635e-06
6.06194e-06
6.09265e-06
6.09429e-06
6.09553e-06
6.09654e-06
6.09739e-06
6.09812e-06
6.09875e-06
6.09931e-06
6.0998e-06
6.10023e-06
6.10062e-06
6.10096e-06
6.10126e-06
6.10152e-06
6.10175e-06
6.10196e-06
6.10214e-06
6.1023e-06
6.10245e-06
6.10258e-06
6.10272e-06
6.10283e-06
6.10293e-06
6.10301e-06
6.10307e-06
6.10311e-06
6.10315e-06
6.1032e-06
6.1033e-06
6.10343e-06
6.10362e-06
6.10384e-06
6.10405e-06
6.10421e-06
6.10423e-06
6.10404e-06
6.10358e-06
6.10271e-06
6.10143e-06
6.09954e-06
6.09777e-06
6.0925e-06
6.09436e-06
6.0957e-06
6.09676e-06
6.09764e-06
6.09841e-06
6.09908e-06
6.09968e-06
6.10022e-06
6.10069e-06
6.10112e-06
6.10151e-06
6.10185e-06
6.10216e-06
6.10243e-06
6.10268e-06
6.1029e-06
6.1031e-06
6.10329e-06
6.10345e-06
6.10363e-06
6.10378e-06
6.10391e-06
6.10402e-06
6.10412e-06
6.1042e-06
6.10427e-06
6.10432e-06
6.10435e-06
6.10439e-06
6.10442e-06
6.10446e-06
6.10452e-06
6.1046e-06
6.10471e-06
6.10483e-06
6.10498e-06
6.10514e-06
6.10528e-06
6.10539e-06
6.10549e-06
6.09247e-06
6.09441e-06
6.09579e-06
6.09688e-06
6.0978e-06
6.0986e-06
6.09932e-06
6.09997e-06
6.10055e-06
6.10107e-06
6.10155e-06
6.10198e-06
6.10237e-06
6.10272e-06
6.10304e-06
6.10333e-06
6.10359e-06
6.10383e-06
6.10405e-06
6.10426e-06
6.10447e-06
6.10465e-06
6.10482e-06
6.10496e-06
6.10509e-06
6.10521e-06
6.1053e-06
6.10539e-06
6.10546e-06
6.10552e-06
6.10557e-06
6.10561e-06
6.10564e-06
6.10566e-06
6.10569e-06
6.10571e-06
6.10573e-06
6.10577e-06
6.1058e-06
6.10587e-06
6.10591e-06
6.09244e-06
6.09439e-06
6.09579e-06
6.09691e-06
6.09786e-06
6.09871e-06
6.09947e-06
6.10016e-06
6.10079e-06
6.10136e-06
6.10188e-06
6.10236e-06
6.1028e-06
6.1032e-06
6.10357e-06
6.1039e-06
6.10421e-06
6.10449e-06
6.10475e-06
6.105e-06
6.10524e-06
6.10546e-06
6.10566e-06
6.10584e-06
6.106e-06
6.10614e-06
6.10627e-06
6.10639e-06
6.10649e-06
6.10658e-06
6.10666e-06
6.10674e-06
6.1068e-06
6.10686e-06
6.10691e-06
6.10695e-06
6.107e-06
6.10703e-06
6.10706e-06
6.10711e-06
6.10711e-06
6.09234e-06
6.09429e-06
6.0957e-06
6.09684e-06
6.09782e-06
6.0987e-06
6.09951e-06
6.10025e-06
6.10093e-06
6.10156e-06
6.10214e-06
6.10267e-06
6.10316e-06
6.10361e-06
6.10402e-06
6.1044e-06
6.10475e-06
6.10508e-06
6.10539e-06
6.10567e-06
6.10595e-06
6.10621e-06
6.10644e-06
6.10665e-06
6.10685e-06
6.10702e-06
6.10718e-06
6.10733e-06
6.10746e-06
6.10758e-06
6.10769e-06
6.10779e-06
6.10789e-06
6.10798e-06
6.10807e-06
6.10814e-06
6.10822e-06
6.1083e-06
6.10837e-06
6.10845e-06
6.1085e-06
6.09215e-06
6.09408e-06
6.0955e-06
6.09665e-06
6.09766e-06
6.09859e-06
6.09944e-06
6.10024e-06
6.10098e-06
6.10166e-06
6.1023e-06
6.10289e-06
6.10343e-06
6.10394e-06
6.10441e-06
6.10484e-06
6.10524e-06
6.10561e-06
6.10596e-06
6.10629e-06
6.10661e-06
6.1069e-06
6.10717e-06
6.10742e-06
6.10764e-06
6.10785e-06
6.10804e-06
6.10822e-06
6.10838e-06
6.10853e-06
6.10867e-06
6.10881e-06
6.10893e-06
6.10905e-06
6.10917e-06
6.10928e-06
6.10939e-06
6.1095e-06
6.1096e-06
6.10972e-06
6.10982e-06
6.09187e-06
6.09377e-06
6.09517e-06
6.09634e-06
6.09738e-06
6.09835e-06
6.09926e-06
6.10012e-06
6.10092e-06
6.10167e-06
6.10237e-06
6.10303e-06
6.10363e-06
6.1042e-06
6.10472e-06
6.1052e-06
6.10566e-06
6.10608e-06
6.10647e-06
6.10685e-06
6.10721e-06
6.10755e-06
6.10785e-06
6.10813e-06
6.1084e-06
6.10864e-06
6.10886e-06
6.10907e-06
6.10926e-06
6.10944e-06
6.10962e-06
6.10978e-06
6.10994e-06
6.11009e-06
6.11023e-06
6.11038e-06
6.11052e-06
6.11066e-06
6.1108e-06
6.11094e-06
6.11108e-06
6.09147e-06
6.09332e-06
6.09471e-06
6.0959e-06
6.09698e-06
6.098e-06
6.09897e-06
6.09989e-06
6.10076e-06
6.10158e-06
6.10235e-06
6.10307e-06
6.10374e-06
6.10437e-06
6.10495e-06
6.1055e-06
6.10601e-06
6.10648e-06
6.10693e-06
6.10735e-06
6.10776e-06
6.10814e-06
6.10848e-06
6.10881e-06
6.1091e-06
6.10938e-06
6.10964e-06
6.10988e-06
6.11011e-06
6.11032e-06
6.11052e-06
6.11072e-06
6.11091e-06
6.11109e-06
6.11126e-06
6.11144e-06
6.11161e-06
6.11178e-06
6.11195e-06
6.11213e-06
6.1123e-06
6.09095e-06
6.09274e-06
6.09412e-06
6.09532e-06
6.09644e-06
6.09751e-06
6.09855e-06
6.09953e-06
6.10047e-06
6.10136e-06
6.1022e-06
6.103e-06
6.10374e-06
6.10444e-06
6.10509e-06
6.10569e-06
6.10626e-06
6.1068e-06
6.1073e-06
6.10777e-06
6.10823e-06
6.10866e-06
6.10905e-06
6.10941e-06
6.10975e-06
6.11006e-06
6.11036e-06
6.11064e-06
6.1109e-06
6.11115e-06
6.11138e-06
6.11161e-06
6.11183e-06
6.11204e-06
6.11225e-06
6.11245e-06
6.11265e-06
6.11285e-06
6.11305e-06
6.11326e-06
6.11346e-06
6.09029e-06
6.09201e-06
6.09337e-06
6.09459e-06
6.09575e-06
6.09688e-06
6.09797e-06
6.09902e-06
6.10003e-06
6.10099e-06
6.10191e-06
6.10277e-06
6.10359e-06
6.10435e-06
6.10508e-06
6.10575e-06
6.10639e-06
6.10698e-06
6.10755e-06
6.10808e-06
6.10859e-06
6.10907e-06
6.10951e-06
6.10992e-06
6.1103e-06
6.11065e-06
6.11099e-06
6.1113e-06
6.1116e-06
6.11188e-06
6.11215e-06
6.11241e-06
6.11266e-06
6.11291e-06
6.11314e-06
6.11338e-06
6.11361e-06
6.11384e-06
6.11407e-06
6.1143e-06
6.11452e-06
6.08947e-06
6.09112e-06
6.09246e-06
6.0937e-06
6.0949e-06
6.09607e-06
6.09721e-06
6.09832e-06
6.09939e-06
6.10042e-06
6.1014e-06
6.10234e-06
6.10323e-06
6.10407e-06
6.10486e-06
6.10561e-06
6.10632e-06
6.10698e-06
6.10761e-06
6.1082e-06
6.10877e-06
6.10931e-06
6.1098e-06
6.11026e-06
6.11069e-06
6.11109e-06
6.11147e-06
6.11182e-06
6.11216e-06
6.11248e-06
6.11278e-06
6.11307e-06
6.11336e-06
6.11363e-06
6.1139e-06
6.11416e-06
6.11441e-06
6.11467e-06
6.11492e-06
6.11517e-06
6.11542e-06
6.08848e-06
6.09006e-06
6.09138e-06
6.09263e-06
6.09385e-06
6.09505e-06
6.09622e-06
6.09738e-06
6.0985e-06
6.09958e-06
6.10063e-06
6.10163e-06
6.1026e-06
6.10351e-06
6.10438e-06
6.10521e-06
6.10598e-06
6.10672e-06
6.10741e-06
6.10807e-06
6.1087e-06
6.10929e-06
6.10984e-06
6.11036e-06
6.11083e-06
6.11128e-06
6.11171e-06
6.1121e-06
6.11248e-06
6.11284e-06
6.11318e-06
6.1135e-06
6.11382e-06
6.11412e-06
6.11442e-06
6.11471e-06
6.11499e-06
6.11527e-06
6.11555e-06
6.11582e-06
6.1161e-06
6.08731e-06
6.08881e-06
6.0901e-06
6.09134e-06
6.09256e-06
6.09377e-06
6.09496e-06
6.09614e-06
6.0973e-06
6.09843e-06
6.09953e-06
6.1006e-06
6.10163e-06
6.10262e-06
6.10356e-06
6.10446e-06
6.10531e-06
6.10612e-06
6.10688e-06
6.10761e-06
6.1083e-06
6.10896e-06
6.10956e-06
6.11013e-06
6.11066e-06
6.11116e-06
6.11163e-06
6.11207e-06
6.11249e-06
6.11289e-06
6.11326e-06
6.11362e-06
6.11397e-06
6.1143e-06
6.11462e-06
6.11493e-06
6.11523e-06
6.11553e-06
6.11583e-06
6.11611e-06
6.1164e-06
6.08594e-06
6.08736e-06
6.08861e-06
6.08981e-06
6.09101e-06
6.09219e-06
6.09338e-06
6.09456e-06
6.09574e-06
6.09691e-06
6.09806e-06
6.09919e-06
6.10028e-06
6.10133e-06
6.10235e-06
6.10332e-06
6.10424e-06
6.10512e-06
6.10595e-06
6.10675e-06
6.1075e-06
6.10821e-06
6.10888e-06
6.1095e-06
6.11008e-06
6.11063e-06
6.11114e-06
6.11163e-06
6.11208e-06
6.11252e-06
6.11293e-06
6.11332e-06
6.1137e-06
6.11406e-06
6.11441e-06
6.11474e-06
6.11507e-06
6.11539e-06
6.11571e-06
6.11602e-06
6.11632e-06
6.08436e-06
6.08568e-06
6.08686e-06
6.088e-06
6.08914e-06
6.09028e-06
6.09143e-06
6.09261e-06
6.0938e-06
6.09499e-06
6.09618e-06
6.09735e-06
6.0985e-06
6.09961e-06
6.10069e-06
6.10172e-06
6.10271e-06
6.10366e-06
6.10456e-06
6.10542e-06
6.10624e-06
6.10701e-06
6.10774e-06
6.10842e-06
6.10905e-06
6.10965e-06
6.11021e-06
6.11074e-06
6.11124e-06
6.11171e-06
6.11215e-06
6.11257e-06
6.11297e-06
6.11336e-06
6.11372e-06
6.11407e-06
6.11441e-06
6.11474e-06
6.11506e-06
6.11536e-06
6.11566e-06
6.08256e-06
6.08376e-06
6.08483e-06
6.08587e-06
6.08692e-06
6.08799e-06
6.08911e-06
6.09026e-06
6.09144e-06
6.09264e-06
6.09384e-06
6.09505e-06
6.09623e-06
6.0974e-06
6.09853e-06
6.09963e-06
6.10068e-06
6.10169e-06
6.10266e-06
6.10357e-06
6.10445e-06
6.10527e-06
6.10604e-06
6.10677e-06
6.10745e-06
6.10809e-06
6.10869e-06
6.10926e-06
6.10979e-06
6.11029e-06
6.11077e-06
6.11122e-06
6.11165e-06
6.11206e-06
6.11245e-06
6.11283e-06
6.11319e-06
6.11354e-06
6.11388e-06
6.11421e-06
6.11453e-06
6.08051e-06
6.08156e-06
6.08249e-06
6.0834e-06
6.08434e-06
6.08533e-06
6.08638e-06
6.08748e-06
6.08863e-06
6.0898e-06
6.091e-06
6.09221e-06
6.09342e-06
6.09461e-06
6.09578e-06
6.09691e-06
6.09801e-06
6.09908e-06
6.1001e-06
6.10108e-06
6.10202e-06
6.1029e-06
6.10374e-06
6.10453e-06
6.10527e-06
6.10597e-06
6.10663e-06
6.10724e-06
6.10782e-06
6.10836e-06
6.10887e-06
6.10935e-06
6.1098e-06
6.11023e-06
6.11063e-06
6.11101e-06
6.11138e-06
6.11172e-06
6.11206e-06
6.11237e-06
6.11267e-06
6.07818e-06
6.07905e-06
6.07982e-06
6.08058e-06
6.0814e-06
6.08228e-06
6.08323e-06
6.08425e-06
6.08532e-06
6.08644e-06
6.08758e-06
6.08875e-06
6.08994e-06
6.09112e-06
6.0923e-06
6.09347e-06
6.0946e-06
6.0957e-06
6.09676e-06
6.09777e-06
6.09874e-06
6.09965e-06
6.10051e-06
6.10133e-06
6.10209e-06
6.10281e-06
6.10349e-06
6.10413e-06
6.10473e-06
6.1053e-06
6.10583e-06
6.10633e-06
6.10681e-06
6.10726e-06
6.10769e-06
6.1081e-06
6.10849e-06
6.10886e-06
6.10922e-06
6.10956e-06
6.10989e-06
6.07557e-06
6.07621e-06
6.07679e-06
6.0774e-06
6.07807e-06
6.07882e-06
6.07963e-06
6.08051e-06
6.08145e-06
6.08244e-06
6.08347e-06
6.08455e-06
6.08565e-06
6.08677e-06
6.08788e-06
6.08898e-06
6.09007e-06
6.09116e-06
6.09223e-06
6.09328e-06
6.09429e-06
6.09528e-06
6.09622e-06
6.09712e-06
6.09797e-06
6.09877e-06
6.09953e-06
6.10025e-06
6.10092e-06
6.10155e-06
6.10214e-06
6.10269e-06
6.10321e-06
6.1037e-06
6.10415e-06
6.10458e-06
6.10498e-06
6.10535e-06
6.10571e-06
6.10603e-06
6.10635e-06
6.07262e-06
6.07302e-06
6.0734e-06
6.07383e-06
6.07431e-06
6.07486e-06
6.07546e-06
6.07612e-06
6.07683e-06
6.0776e-06
6.07841e-06
6.07929e-06
6.08022e-06
6.08124e-06
6.08234e-06
6.08351e-06
6.08469e-06
6.08584e-06
6.08696e-06
6.08803e-06
6.08906e-06
6.09004e-06
6.09097e-06
6.09185e-06
6.09269e-06
6.09348e-06
6.09422e-06
6.09492e-06
6.09559e-06
6.09621e-06
6.09679e-06
6.09734e-06
6.09786e-06
6.09834e-06
6.0988e-06
6.09923e-06
6.09963e-06
6.10002e-06
6.10037e-06
6.10072e-06
6.10104e-06
6.06934e-06
6.06947e-06
6.06962e-06
6.06979e-06
6.07e-06
6.07024e-06
6.07051e-06
6.07082e-06
6.07115e-06
6.0715e-06
6.07187e-06
6.07225e-06
6.07264e-06
6.07303e-06
6.07341e-06
6.07382e-06
6.07418e-06
6.07453e-06
6.07489e-06
6.07528e-06
6.0757e-06
6.07615e-06
6.07663e-06
6.07714e-06
6.07766e-06
6.0782e-06
6.07874e-06
6.07929e-06
6.07983e-06
6.08036e-06
6.08088e-06
6.08138e-06
6.08187e-06
6.08235e-06
6.0828e-06
6.08324e-06
6.08366e-06
6.08406e-06
6.08444e-06
6.0848e-06
6.08517e-06
0.00364586
0.0072486
0.010174
0.011727
0.0118971
0.0110143
0.00949179
0.00765122
0.00562439
0.00345404
0.00140901
2.45163e-05
1.29854e-06
1.4306e-10
4.45189e-06
8.59881e-06
6.27996e-06
5.80206e-06
6.07293e-06
6.14025e-06
6.11434e-06
6.10823e-06
6.11061e-06
6.11056e-06
6.10936e-06
6.10807e-06
6.10678e-06
6.10564e-06
6.10472e-06
6.10395e-06
6.10325e-06
6.10252e-06
6.10172e-06
6.1008e-06
6.0998e-06
6.09872e-06
6.09759e-06
6.09645e-06
6.09529e-06
6.0941e-06
6.0929e-06
6.09167e-06
6.09043e-06
6.08919e-06
6.08798e-06
6.08682e-06
6.08576e-06
6.08482e-06
6.08404e-06
6.08338e-06
6.08278e-06
6.08221e-06
6.08162e-06
6.08099e-06
6.08029e-06
6.07952e-06
6.0787e-06
6.07785e-06
6.07704e-06
6.07632e-06
6.07578e-06
6.07546e-06
6.0754e-06
6.07563e-06
6.07615e-06
6.07696e-06
6.07808e-06
6.07951e-06
6.0813e-06
6.08344e-06
6.08589e-06
6.089e-06
6.09147e-06
6.09938e-06
0.00620069
0.0109691
0.0144331
0.016176
0.0163942
0.0155063
0.0139445
0.0120345
0.00990882
0.00751057
0.00474838
0.00187988
9.72408e-05
1.30347e-05
2.42019e-08
2.24179e-06
8.86478e-06
6.9661e-06
5.85088e-06
6.00255e-06
6.12896e-06
6.12262e-06
6.11246e-06
6.11288e-06
6.11212e-06
6.11007e-06
6.10843e-06
6.10717e-06
6.10606e-06
6.1051e-06
6.10424e-06
6.10339e-06
6.10248e-06
6.10146e-06
6.10035e-06
6.09917e-06
6.09794e-06
6.0967e-06
6.09545e-06
6.0942e-06
6.09294e-06
6.09167e-06
6.0904e-06
6.08916e-06
6.08797e-06
6.08687e-06
6.08589e-06
6.08506e-06
6.08438e-06
6.0838e-06
6.08326e-06
6.08274e-06
6.08219e-06
6.0816e-06
6.08093e-06
6.0802e-06
6.07939e-06
6.07856e-06
6.07775e-06
6.07701e-06
6.07643e-06
6.07606e-06
6.07593e-06
6.07608e-06
6.0765e-06
6.0772e-06
6.07818e-06
6.07949e-06
6.08116e-06
6.0832e-06
6.08555e-06
6.08858e-06
6.09095e-06
6.0987e-06
0.00864958
0.0148471
0.0190538
0.0210965
0.0214327
0.0205723
0.0189765
0.0169936
0.0147883
0.0123211
0.00942911
0.00598267
0.00241865
0.000218498
5.73603e-05
1.05513e-08
4.08022e-07
7.72551e-06
7.74164e-06
6.08443e-06
5.94942e-06
6.11055e-06
6.12731e-06
6.11152e-06
6.11148e-06
6.11299e-06
6.11102e-06
6.10874e-06
6.10733e-06
6.10628e-06
6.10526e-06
6.10424e-06
6.10319e-06
6.10207e-06
6.10085e-06
6.09955e-06
6.09822e-06
6.09689e-06
6.09556e-06
6.09424e-06
6.09293e-06
6.09164e-06
6.09037e-06
6.08916e-06
6.08801e-06
6.08699e-06
6.08611e-06
6.08539e-06
6.0848e-06
6.08428e-06
6.0838e-06
6.08332e-06
6.08282e-06
6.08226e-06
6.08163e-06
6.08092e-06
6.08014e-06
6.07932e-06
6.0785e-06
6.07775e-06
6.07714e-06
6.07671e-06
6.07651e-06
6.07656e-06
6.07688e-06
6.07746e-06
6.07832e-06
6.07949e-06
6.08102e-06
6.08294e-06
6.08519e-06
6.08812e-06
6.0904e-06
6.09799e-06
0.0110791
0.0189229
0.0240079
0.0264687
0.027021
0.0262581
0.0246672
0.0226222
0.0203293
0.0177974
0.0148852
0.0113966
0.00726393
0.00305915
0.000397901
0.000146786
1.42005e-09
6.93135e-10
5.62244e-06
8.25091e-06
6.39537e-06
5.90736e-06
6.08163e-06
6.14901e-06
6.12065e-06
6.10734e-06
6.11023e-06
6.11124e-06
6.10913e-06
6.10722e-06
6.10608e-06
6.10506e-06
6.10389e-06
6.10261e-06
6.10127e-06
6.09987e-06
6.09845e-06
6.09702e-06
6.09561e-06
6.09424e-06
6.0929e-06
6.0916e-06
6.09036e-06
6.08919e-06
6.08812e-06
6.08719e-06
6.08643e-06
6.08581e-06
6.08528e-06
6.08482e-06
6.08439e-06
6.08396e-06
6.08349e-06
6.08297e-06
6.08237e-06
6.08169e-06
6.08093e-06
6.08012e-06
6.0793e-06
6.07854e-06
6.07788e-06
6.0774e-06
6.07712e-06
6.07708e-06
6.07729e-06
6.07775e-06
6.07847e-06
6.0795e-06
6.08089e-06
6.08267e-06
6.0848e-06
6.08764e-06
6.08981e-06
6.09726e-06
0.0136838
0.0232684
0.0292521
0.032234
0.0331221
0.0325612
0.0310543
0.0289962
0.0266337
0.0240317
0.0210964
0.0176574
0.0135488
0.00876385
0.00392632
0.000734114
0.000275536
8.71263e-08
2.96823e-08
2.45789e-06
8.44352e-06
7.04106e-06
5.90134e-06
5.95789e-06
6.14609e-06
6.15322e-06
6.11596e-06
6.10655e-06
6.10965e-06
6.10981e-06
6.10745e-06
6.10552e-06
6.1043e-06
6.10311e-06
6.10168e-06
6.10014e-06
6.0986e-06
6.0971e-06
6.09564e-06
6.09423e-06
6.09288e-06
6.09159e-06
6.09039e-06
6.08929e-06
6.08832e-06
6.08751e-06
6.08685e-06
6.0863e-06
6.08584e-06
6.08543e-06
6.08504e-06
6.08464e-06
6.08421e-06
6.08372e-06
6.08315e-06
6.08249e-06
6.08176e-06
6.08096e-06
6.08015e-06
6.07936e-06
6.07867e-06
6.07813e-06
6.07778e-06
6.07764e-06
6.07774e-06
6.07807e-06
6.07865e-06
6.07953e-06
6.08075e-06
6.0824e-06
6.0844e-06
6.08713e-06
6.08918e-06
6.0965e-06
0.0172536
0.0279656
0.0347285
0.038305
0.0396517
0.0394203
0.0381128
0.0361331
0.0337603
0.0311137
0.0281562
0.0247589
0.0207693
0.0160622
0.0106598
0.00520589
0.00129208
2.60372e-05
1.25682e-10
1.1268e-08
6.58728e-07
7.06973e-06
8.21386e-06
6.29852e-06
5.77021e-06
6.00012e-06
6.1523e-06
6.13955e-06
6.10794e-06
6.10366e-06
6.10806e-06
6.10826e-06
6.10558e-06
6.10324e-06
6.10171e-06
6.10034e-06
6.0988e-06
6.09719e-06
6.09564e-06
6.09421e-06
6.09288e-06
6.09164e-06
6.0905e-06
6.08949e-06
6.08863e-06
6.08793e-06
6.08735e-06
6.08687e-06
6.08646e-06
6.08609e-06
6.08574e-06
6.08537e-06
6.08497e-06
6.08451e-06
6.08397e-06
6.08334e-06
6.08263e-06
6.08185e-06
6.08103e-06
6.08023e-06
6.0795e-06
6.0789e-06
6.07847e-06
6.07824e-06
6.07822e-06
6.07842e-06
6.07886e-06
6.07957e-06
6.08063e-06
6.08211e-06
6.08397e-06
6.08659e-06
6.0885e-06
6.09572e-06
0.02208
0.0330341
0.0403804
0.0445763
0.0464833
0.0467141
0.045746
0.0439744
0.041696
0.0390747
0.0361306
0.0327826
0.0289076
0.0243861
0.0191214
0.0131597
0.00703426
0.00238644
0.000841334
5.65307e-05
1.68024e-09
3.66563e-08
2.80583e-06
9.05892e-06
7.90642e-06
6.11583e-06
5.8262e-06
6.0556e-06
6.16116e-06
6.13338e-06
6.10164e-06
6.09881e-06
6.10477e-06
6.10599e-06
6.10327e-06
6.10037e-06
6.09849e-06
6.09713e-06
6.09576e-06
6.09432e-06
6.09295e-06
6.09173e-06
6.09069e-06
6.0898e-06
6.08907e-06
6.08846e-06
6.08794e-06
6.08751e-06
6.08715e-06
6.08681e-06
6.08649e-06
6.08615e-06
6.08578e-06
6.08535e-06
6.08483e-06
6.08423e-06
6.08354e-06
6.08277e-06
6.08196e-06
6.08114e-06
6.08037e-06
6.07972e-06
6.07921e-06
6.07888e-06
6.07875e-06
6.07881e-06
6.0791e-06
6.07964e-06
6.08052e-06
6.08183e-06
6.08353e-06
6.08601e-06
6.08779e-06
6.09493e-06
0.0277912
0.0384424
0.0461506
0.050924
0.0534511
0.0542602
0.0537784
0.0523713
0.0503329
0.0478546
0.0450063
0.0417567
0.0380175
0.0336891
0.0286809
0.0229233
0.0164374
0.00972524
0.00390831
0.000461742
0.000359847
0
9.63661e-09
6.27775e-08
4.33947e-06
8.85499e-06
7.33722e-06
5.97468e-06
5.84569e-06
6.07916e-06
6.17257e-06
6.13924e-06
6.10094e-06
6.0938e-06
6.09995e-06