/*--------------------------------*- C++ -*----------------------------------*\
| =========                 |                                                 |
| \\      /  F ield         | OpenFOAM: The Open Source CFD Toolbox           |
|  \\    /   O peration     | Version:  2312                                  |
|   \\  /    A nd           | Website:  www.openfoam.com                      |
|    \\/     M anipulation  |                                                 |
\*---------------------------------------------------------------------------*/
FoamFile
{
    version     2.0;
    format      ascii;
    arch        "LSB;label=32;scalar=64";
    class       volSymmTensorField;
    location    "650";
    object      turbulenceProperties:R;
}
// * * * * * * * * * * * * * * * * * * * * * * * * * * * * * * * * * * * * * //

dimensions      [0 2 -2 0 0 0 0];

internalField   nonuniform List<symmTensor> 
11040
(
(0.283731 0.0755461 -1.36384e-22 0.247346 9.24298e-21 0.277391)
(0.350065 0.0741834 8.20439e-21 0.226136 1.14631e-19 0.304354)
(0.0532564 0.00579475 -1.78715e-20 0.0396488 5.47871e-20 0.0451036)
(0.0269238 0.00893744 -5.86747e-20 0.0359031 3.28827e-20 0.0308788)
(0.117838 0.0458069 -2.08395e-20 0.248923 1.88984e-19 0.182953)
(0.128226 0.0558445 -2.87644e-19 0.246432 1.04551e-19 0.18632)
(0.127449 0.0583049 1.64386e-19 0.226574 -1.08115e-18 0.176618)
(0.120914 0.0563573 2.27909e-19 0.201137 -1.59228e-19 0.160812)
(0.113061 0.0527946 9.75625e-20 0.176413 -2.83576e-20 0.144598)
(0.108586 0.0505425 9.04394e-20 0.160016 1.43741e-19 0.134302)
(0.103949 0.0478799 -8.00648e-20 0.145716 3.41907e-19 0.124821)
(0.0997388 0.0453153 -1.19478e-19 0.133391 2.54695e-19 0.116594)
(0.0963952 0.0430812 1.96695e-20 0.123282 -1.46845e-19 0.109918)
(0.094129 0.0413691 2.47401e-20 0.115565 1.42275e-19 0.104926)
(0.092526 0.0399455 -1.10839e-20 0.109188 1.13001e-20 0.100971)
(0.092739 0.0394341 -4.33329e-21 0.105459 -1.85023e-19 0.0992283)
(0.0947402 0.0397928 5.11487e-20 0.103962 -1.04967e-21 0.0995038)
(0.0986525 0.0410227 -4.94786e-21 0.104553 3.36673e-19 0.101781)
(0.104351 0.0430063 -2.91563e-20 0.106874 2.91303e-21 0.105815)
(0.111929 0.0457312 4.72134e-21 0.110801 -4.93252e-20 0.111598)
(0.121712 0.0492933 2.24569e-20 0.116473 3.79884e-20 0.119344)
(0.133334 0.0535806 -2.47347e-20 0.123758 1.15384e-19 0.128803)
(0.146602 0.0585835 9.74571e-22 0.132746 -9.55286e-20 0.139952)
(0.16184 0.0643411 1.27659e-20 0.143384 2.45921e-19 0.152907)
(0.179109 0.0708352 -7.4919e-20 0.155546 -2.22231e-19 0.167614)
(0.199089 0.0783786 -4.02359e-20 0.169795 -5.21209e-19 0.184699)
(0.221267 0.0867442 1.09103e-20 0.18565 -2.43794e-19 0.203667)
(0.242448 0.0946025 3.27461e-20 0.200502 6.97851e-20 0.221609)
(0.260643 0.101197 -2.23812e-20 0.212836 -2.00693e-19 0.236773)
(0.27357 0.105694 1.38299e-20 0.220995 -4.69604e-19 0.247196)
(0.278885 0.107239 1.1981e-19 0.223261 3.39588e-19 0.250867)
(0.274967 0.105232 2.26959e-20 0.218414 -2.3547e-20 0.246367)
(0.262585 0.100086 1.07684e-19 0.207286 9.56782e-19 0.234496)
(0.246131 0.0936861 -8.89476e-20 0.193624 5.91493e-19 0.219293)
(0.230478 0.0880773 4.9178e-20 0.181582 8.35255e-21 0.205171)
(0.170108 0.0653492 1.28248e-19 0.135833 8.94185e-19 0.151991)
(0.0860864 0.0331418 8.77271e-21 0.0716168 1.6633e-19 0.0781019)
(0.0471826 0.0196948 -3.12626e-20 0.0444873 5.54955e-19 0.0446555)
(0.0120357 0.00405987 -4.27906e-19 0.0267333 -1.10479e-18 0.018802)
(0.0681513 -0.0331474 1.04794e-20 0.10454 -8.85738e-19 0.084662)
(0.0942436 -0.0266952 1.84945e-19 0.218657 5.05438e-20 0.146999)
(0.0241619 -0.00176748 1.73675e-22 0.0212139 -5.11048e-22 0.0219612)
(0.0600797 0.00158751 2.06247e-20 0.0385689 4.19332e-21 0.0413567)
(0.201358 0.0274593 4.92283e-20 0.111368 -2.55401e-19 0.158392)
(0.399269 0.0307918 7.39298e-20 0.166639 -1.67062e-19 0.28394)
(0.777893 -0.0207021 8.15843e-20 0.296715 -4.83981e-19 0.536996)
(0.240617 -0.0471754 5.53722e-19 0.112984 -1.17455e-18 0.17601)
(0.0716819 -0.0182537 -8.087e-19 0.0387203 3.16971e-18 0.0539845)
(0.0221426 -0.00715528 -8.10714e-19 0.0141575 2.09532e-18 0.0184662)
(0.00430013 -0.00190508 -7.34161e-20 0.00411964 -1.48219e-19 0.00438201)
(0.00312946 0.00150404 -1.00593e-19 0.00587242 3.94193e-20 0.00465547)
(0.00750281 0.00373337 4.47137e-19 0.0121151 -1.12694e-18 0.00977512)
(0.0102675 0.00510394 -8.17325e-22 0.0153921 -7.09337e-20 0.0126569)
(0.0124089 0.00613054 -1.61162e-19 0.0171348 6.61091e-19 0.0146012)
(0.0140541 0.00685871 -1.0916e-19 0.0184053 3.35684e-20 0.0159748)
(0.0153409 0.00737248 -4.32609e-20 0.0189894 -1.67655e-19 0.0168883)
(0.0166664 0.00787149 1.02341e-20 0.0195981 5.72042e-19 0.0178178)
(0.0182714 0.00847624 -1.42785e-20 0.0204894 1.9198e-19 0.0190248)
(0.0200822 0.00914446 -8.80964e-21 0.0215178 -5.37623e-19 0.0204069)
(0.0219342 0.0097968 -2.3e-20 0.0225171 -2.48676e-20 0.0217863)
(0.0238602 0.0104389 -7.17419e-21 0.0234664 8.02709e-20 0.0231946)
(0.0259048 0.0110839 -1.0623e-20 0.0244031 -1.5058e-20 0.0246683)
(0.0281017 0.0117576 3.03132e-20 0.0254213 -2.69649e-19 0.026265)
(0.0299049 0.0122699 2.3048e-20 0.026179 3.79056e-19 0.0275231)
(0.0307961 0.0124143 -4.55192e-20 0.0262078 -3.45631e-19 0.027985)
(0.0305821 0.0121356 -6.34767e-21 0.0253918 2.80291e-19 0.0275119)
(0.0298408 0.0116929 7.30004e-20 0.0242709 9.046e-19 0.0266502)
(0.0289205 0.0112383 1.36857e-19 0.0231629 5.01477e-19 0.0257261)
(0.0270201 0.0104812 -3.38503e-20 0.0214939 1.40613e-19 0.0240737)
(0.0241848 0.00946928 -9.05966e-20 0.0193768 2.80542e-19 0.0217858)
(0.0208886 0.0084036 4.43603e-20 0.0172701 5.01432e-19 0.0193144)
(0.018116 0.00766766 -1.11607e-19 0.0160749 -7.70897e-19 0.0175741)
(0.0166157 0.00756816 -5.87605e-20 0.0167352 -1.25311e-18 0.0174227)
(0.0153055 0.00754153 -1.37397e-19 0.0187059 -2.64581e-18 0.0180659)
(0.0152605 0.00779148 6.34284e-20 0.0230019 -1.33127e-18 0.0205316)
(0.0168106 0.00835632 -9.2331e-20 0.0299722 1.27428e-19 0.0252814)
(0.0199582 0.00930225 -4.61654e-19 0.0396607 -4.08593e-18 0.0324466)
(0.0253215 0.0112028 -6.12988e-20 0.0529912 -3.43944e-19 0.0425615)
(0.0326538 0.0140622 -5.48329e-19 0.0697547 -2.55739e-18 0.0537326)
(0.047219 0.016576 1.24546e-18 0.111263 5.36683e-18 0.0843891)
(0.0665076 0.0306192 7.65083e-19 0.12321 4.55789e-18 0.0902279)
(0.239537 -0.110156 -4.15299e-19 0.430262 -6.54248e-19 0.403297)
(0.0145678 -0.00147575 -1.86155e-22 0.012962 -2.65671e-22 0.013906)
(0.0121975 -0.0019489 -4.99832e-21 0.0126351 -1.28449e-20 0.0123047)
(0.0343041 0.00365136 1.55052e-20 0.0215769 7.75385e-20 0.0273479)
(0.159238 0.016904 5.32867e-20 0.0806224 8.29225e-20 0.120918)
(0.908856 0.0484531 -7.07908e-21 0.351125 -3.71261e-20 0.633224)
(1.21614 -0.0344607 -3.03612e-19 0.464048 1.18568e-18 0.838)
(0.597888 -0.0954523 2.45142e-20 0.261884 6.26329e-21 0.428607)
(0.214843 -0.0523715 9.42376e-20 0.113444 -2.42483e-18 0.158964)
(0.0964924 -0.0274262 -1.65633e-19 0.0557825 2.49749e-20 0.0755131)
(0.0562682 -0.0167659 2.36225e-19 0.0335445 -6.91501e-19 0.0452709)
(0.0304588 -0.00975083 -4.35609e-19 0.019336 1.02782e-18 0.0250807)
(0.0163903 -0.00565722 7.56806e-19 0.0112463 -2.06426e-18 0.013814)
(0.007614 -0.00247154 -3.84731e-20 0.00487915 -6.87001e-20 0.00636645)
(0.00202735 -0.00027841 1.52674e-19 0.000849273 -9.07253e-19 0.00147835)
(0.00339234 0.00127846 2.45677e-20 0.00254963 9.46387e-19 0.0030599)
(0.0058915 0.00241889 -7.83177e-20 0.00500265 -3.61303e-19 0.0055282)
(0.00780315 0.00318335 -3.43828e-21 0.00657599 -6.07887e-19 0.00726611)
(0.00937679 0.00372824 4.15297e-20 0.00762088 -4.34386e-19 0.0085766)
(0.0106299 0.00409849 1.94476e-20 0.00829788 -2.46585e-20 0.00952275)
(0.0116155 0.0043028 2.58011e-20 0.00862478 2.74303e-20 0.0101741)
(0.0123832 0.004378 2.55287e-21 0.00871578 8.32747e-20 0.0105902)
(0.0129496 0.00430454 -4.42676e-20 0.0085418 1.32699e-19 0.0107917)
(0.0129969 0.00397035 -3.71051e-20 0.00793001 -4.38791e-19 0.0105092)
(0.012345 0.00333484 -3.95687e-20 0.00685123 -1.76519e-19 0.00963588)
(0.0110972 0.00250721 8.32597e-20 0.00553885 -2.78202e-19 0.00833681)
(0.00945825 0.00164304 -1.52886e-20 0.00424592 -2.60127e-19 0.00684732)
(0.0074669 0.000892899 -2.2805e-19 0.00308306 2.65953e-19 0.00523795)
(0.004881 0.000390005 -7.78951e-20 0.00194242 -1.07778e-18 0.0033294)
(0.00153014 0.000304332 1.92728e-19 0.000785307 2.66064e-19 0.00102022)
(0.00198809 0.000718376 2.63119e-19 0.00436148 1.12231e-18 0.00298571)
(0.00492413 0.00145767 -1.8535e-19 0.0117499 6.3192e-19 0.00811488)
(0.00903919 0.00227098 4.32879e-19 0.022304 2.6054e-18 0.0154268)
(0.0148118 0.00386714 1.85173e-19 0.0364667 8.16054e-19 0.0253942)
(0.0223627 0.00636253 -3.92283e-19 0.054422 9.09426e-19 0.0382044)
(0.031997 0.009919 -4.8362e-19 0.0766721 -9.57585e-19 0.0542783)
(0.0443226 0.0148498 3.21045e-19 0.104386 2.02342e-18 0.0746603)
(0.0603545 0.0219387 2.81381e-19 0.138833 -2.13007e-18 0.100603)
(0.0796513 0.0312467 5.67386e-19 0.176377 1.94854e-18 0.127842)
(0.112033 0.0406491 -4.30433e-19 0.259649 -9.55782e-19 0.191206)
(0.177089 0.0847706 3.71481e-20 0.314074 -4.89277e-19 0.23743)
(0.190448 0.00608691 4.85167e-19 0.502617 1.69136e-18 0.348368)
(0.0106944 -0.00103585 -5.83912e-23 0.00909765 -2.81198e-22 0.00995686)
(0.00843536 -0.00100473 -1.31079e-22 0.00855282 9.69975e-22 0.00859059)
(0.00655425 -0.00108839 -7.71275e-21 0.00741022 -1.77603e-20 0.00699359)
(0.0129814 0.000810155 -1.064e-20 0.00948521 -2.09713e-20 0.0111525)
(0.214871 0.0204869 3.76454e-20 0.0915383 4.48761e-20 0.153961)
(1.06017 0.0436369 2.40961e-19 0.405547 5.90738e-21 0.73835)
(1.57205 -0.0442553 2.55825e-19 0.599686 -1.38723e-18 1.08326)
(1.01194 -0.134977 8.97791e-19 0.423372 -1.40653e-18 0.723566)
(0.401105 -0.0920107 -4.0766e-19 0.204552 1.21305e-18 0.293873)
(0.207353 -0.055853 2.29882e-19 0.115529 3.94755e-19 0.159352)
(0.120542 -0.0347541 -3.4814e-19 0.0702088 1.10936e-18 0.0953304)
(0.0783745 -0.0246949 -5.73904e-19 0.0491468 1.24837e-18 0.0637944)
(0.0540848 -0.0178451 4.59898e-19 0.0353775 -9.42795e-19 0.0448739)
(0.0376813 -0.0129806 -1.16195e-19 0.0258175 9.29055e-19 0.0316594)
(0.0277696 -0.00967873 -1.97894e-19 0.0192544 -1.04587e-18 0.0234785)
(0.0211091 -0.00726735 -1.11174e-19 0.0144499 -4.5161e-19 0.0177425)
(0.0171226 -0.00571954 5.31483e-20 0.0113648 2.22877e-19 0.0142095)
(0.0147252 -0.00465034 1.137e-19 0.00925836 1.30529e-20 0.0119853)
(0.0134751 -0.00403439 3.08556e-20 0.00809263 5.30073e-20 0.0107706)
(0.0131538 -0.00378212 -1.20155e-20 0.00764258 -7.63026e-20 0.0104076)
(0.0133683 -0.00381614 -2.69622e-20 0.00772622 -1.94447e-19 0.0105503)
(0.0141552 -0.00408209 2.67557e-20 0.00824468 -2.77289e-19 0.0112041)
(0.0155781 -0.00462952 2.31297e-20 0.00929084 -1.25769e-19 0.0124445)
(0.0174064 -0.00545987 9.00926e-21 0.0108685 1.16863e-19 0.0141563)
(0.0190962 -0.00638282 -6.76758e-20 0.0126635 7.04903e-19 0.0158956)
(0.0202243 -0.00721541 2.5471e-19 0.0143738 -8.06427e-19 0.0173125)
(0.020398 -0.00781892 1.80112e-19 0.0158105 -6.22068e-19 0.0181184)
(0.0192837 -0.00807023 1.99215e-19 0.0169474 1.52358e-18 0.0181343)
(0.0168236 -0.00783988 -6.42206e-20 0.0181262 4.06687e-19 0.0174985)
(0.0139438 -0.00703 -5.58525e-19 0.020749 -5.96682e-19 0.0173771)
(0.0131006 -0.00553596 1.78044e-19 0.0278372 -1.07632e-18 0.0205057)
(0.0164594 -0.00310004 -4.48353e-19 0.0420698 6.54873e-19 0.0293069)
(0.0242976 0.000754804 3.91865e-19 0.0640335 -5.56093e-19 0.0442197)
(0.0366023 0.00631847 4.4672e-19 0.0940279 -1.41861e-18 0.0653707)
(0.0535508 0.0138879 4.40806e-19 0.132565 8.28227e-19 0.0930657)
(0.0759504 0.0238873 4.78799e-19 0.18155 1.79607e-18 0.12885)
(0.105355 0.037605 3.93067e-19 0.243178 1.89734e-18 0.174845)
(0.141851 0.0563349 -5.84834e-19 0.31092 -2.37714e-18 0.224579)
(0.193543 0.0745911 1.7698e-20 0.436261 -8.14959e-19 0.320627)
(0.316222 0.153132 -1.79287e-19 0.552445 -1.69332e-18 0.422868)
(0.233599 0.0876118 -4.94279e-19 0.532321 -8.1854e-19 0.389247)
(0.00798693 -0.00074919 5.30669e-22 0.00679942 1.28011e-21 0.00738729)
(0.0068298 -0.000817633 -8.2461e-22 0.00652675 -1.6427e-21 0.00664916)
(0.00685822 -0.000897819 4.49979e-21 0.00739562 9.16229e-21 0.00712454)
(0.00331404 -0.000379886 5.08389e-21 0.00367921 8.96785e-21 0.00348615)
(0.00548371 0.000170299 -5.01096e-21 0.00438481 -7.47431e-21 0.0049135)
(0.195579 0.0153202 3.34829e-20 0.0796892 -1.12028e-20 0.137884)
(1.01512 0.0312932 -7.3616e-20 0.386436 -8.67271e-21 0.706041)
(1.78272 -0.0464568 -2.49479e-19 0.679593 3.18429e-19 1.22809)
(1.48287 -0.16574 4.02167e-19 0.602247 -1.78233e-19 1.05208)
(0.703361 -0.148539 1.11747e-20 0.341238 1.68883e-19 0.517108)
(0.360224 -0.0939484 3.59445e-19 0.197429 -2.33172e-18 0.27223)
(0.211634 -0.0601934 -2.54343e-19 0.122192 3.93268e-19 0.166131)
(0.143118 -0.0438051 -2.88094e-19 0.0873209 2.30214e-19 0.115824)
(0.101358 -0.0331524 3.33442e-19 0.0657755 -2.30061e-18 0.0837057)
(0.0770663 -0.0266013 2.64728e-19 0.0528381 1.31189e-19 0.0649671)
(0.0608222 -0.021644 1.6736e-19 0.0431233 1.76068e-19 0.0519482)
(0.0509302 -0.0185371 -1.55691e-19 0.0370686 6.2394e-19 0.0439433)
(0.04461 -0.0164019 -1.00399e-20 0.0328465 1.3685e-19 0.0387128)
(0.040793 -0.0151649 3.65992e-20 0.0304497 -6.65743e-20 0.0355795)
(0.0388815 -0.0145911 4.74281e-20 0.0293503 4.93331e-20 0.0341042)
(0.0380268 -0.0144449 -1.04303e-20 0.0291535 2.29934e-19 0.033564)
(0.0381043 -0.0145833 -8.89766e-20 0.0294952 2.27939e-19 0.0337741)
(0.0391607 -0.0150327 1.23025e-19 0.0304322 1.74573e-19 0.0347674)
(0.0409689 -0.0158171 1.49972e-19 0.0320717 4.00735e-19 0.0365018)
(0.0427853 -0.0167249 -1.80362e-19 0.0340518 -9.7776e-20 0.0384035)
(0.0440057 -0.0175676 -1.34773e-19 0.0360546 2.04307e-18 0.040021)
(0.044018 -0.0181666 8.30978e-20 0.0378734 -3.14748e-20 0.0409407)
(0.0422295 -0.0183211 -2.98707e-19 0.0394333 -8.34569e-19 0.0408344)
(0.038296 -0.0177985 -5.05638e-19 0.0410358 -1.61341e-18 0.0396771)
(0.0327578 -0.0163281 3.676e-19 0.0439145 -6.65145e-19 0.0383601)
(0.0280505 -0.0135652 1.21864e-19 0.0512364 1.75969e-18 0.0396746)
(0.028516 -0.00906264 2.63457e-19 0.0679954 -1.06566e-18 0.0482938)
(0.0372182 -0.00231105 -2.30145e-19 0.0978322 2.96336e-18 0.0675838)
(0.0544873 0.00720057 -8.95455e-19 0.141532 1.4368e-19 0.0980749)
(0.0800446 0.0199683 -3.30821e-19 0.199175 6.19466e-19 0.139602)
(0.114528 0.0365815 -4.48176e-19 0.272728 7.41503e-19 0.193743)
(0.159974 0.0588994 -7.24964e-20 0.365003 -3.33456e-20 0.263241)
(0.21867 0.090284 2.02351e-20 0.468899 7.27022e-20 0.341168)
(0.288289 0.119536 -4.06397e-20 0.62481 1.64263e-18 0.463725)
(0.467619 0.227121 -8.28337e-20 0.815921 -1.10583e-18 0.627019)
(0.361838 0.175217 6.84246e-19 0.67107 -7.52694e-19 0.526376)
(0.00578484 -0.000514576 -5.25373e-22 0.00488295 -8.9486e-22 0.0053394)
(0.00507294 -0.000608407 2.70522e-21 0.0047279 4.42326e-21 0.00489149)
(0.00471456 -0.000599623 -1.33522e-21 0.00485179 -2.90676e-21 0.00477775)
(0.00497812 -0.000632956 -1.31049e-21 0.00559575 -3.49757e-21 0.00529199)
(0.00151827 -9.05552e-05 2.87886e-22 0.00163034 6.94504e-22 0.00157351)
(0.00130302 8.62467e-06 -1.63336e-22 0.00117495 -1.62495e-22 0.00123615)
(0.134219 0.00814209 -2.39118e-20 0.0540741 -2.45937e-20 0.0940255)
(0.819581 0.01907 -8.11039e-20 0.311441 1.01045e-19 0.568648)
(1.82003 -0.044336 -1.71861e-19 0.692803 -1.66345e-19 1.25636)
(1.9155 -0.178014 -3.63776e-19 0.762482 -9.63809e-19 1.3447)
(1.17818 -0.21747 3.76456e-19 0.537475 5.7611e-19 0.866273)
(0.578231 -0.14438 6.01038e-19 0.308865 -8.2955e-19 0.43162)
(0.347616 -0.0984759 -7.98302e-19 0.200891 6.10281e-19 0.270532)
(0.229924 -0.0691001 3.4876e-19 0.138403 1.07028e-18 0.184201)
(0.165964 -0.0539767 1.77066e-20 0.107022 4.72942e-19 0.13702)
(0.126533 -0.0434976 -2.25355e-19 0.086307 -8.51827e-20 0.106651)
(0.103025 -0.0371246 1.5862e-19 0.0741024 -8.86286e-19 0.0884877)
(0.0883256 -0.0327479 -3.36524e-20 0.0656837 5.76702e-19 0.0769903)
(0.0791024 -0.030053 6.99208e-20 0.0606575 -1.09724e-19 0.0698181)
(0.0740548 -0.0286469 4.63027e-20 0.0581062 2.01141e-19 0.0660819)
(0.0712326 -0.0280049 -6.26118e-20 0.0571339 -2.9021e-19 0.0641594)
(0.0701698 -0.0278403 2.98991e-20 0.0569919 1.17495e-20 0.0635699)
(0.0706769 -0.0281228 1.34644e-20 0.0576409 1.01072e-19 0.0641395)
(0.072453 -0.0288987 -2.94833e-19 0.0592855 -3.39101e-19 0.065858)
(0.0745098 -0.0299042 3.24478e-19 0.0615104 -7.99747e-19 0.0679975)
(0.0759966 -0.0309028 4.16147e-20 0.0639441 -4.28982e-19 0.0699597)
(0.0759538 -0.0316218 -5.3687e-19 0.0662422 -4.30532e-19 0.0710881)
(0.0733439 -0.0317228 5.70388e-20 0.068126 -9.73024e-19 0.0707301)
(0.0673279 -0.030802 8.52503e-19 0.0696675 -1.18373e-19 0.0685)
(0.0580047 -0.0283943 3.36807e-19 0.0719076 1.42826e-18 0.0649735)
(0.0478157 -0.0239414 -4.14285e-19 0.0782536 -7.7694e-19 0.0630586)
(0.0431433 -0.0168064 -4.94838e-19 0.0959585 6.35518e-19 0.0695784)
(0.05106 -0.00631575 -2.13947e-19 0.132879 -3.15124e-18 0.0920219)
(0.0733711 0.00830577 7.71461e-19 0.191351 -1.96132e-18 0.132423)
(0.109077 0.0278162 6.21617e-19 0.270619 -1.79203e-18 0.189815)
(0.158131 0.0529815 -1.262e-19 0.371826 -6.84098e-20 0.265123)
(0.222806 0.0862384 1.44022e-19 0.497609 1.45103e-18 0.361087)
(0.307903 0.132816 5.28575e-20 0.640964 -8.29998e-19 0.471335)
(0.397328 0.176277 -2.05029e-19 0.818685 7.44866e-19 0.616099)
(0.618627 0.30183 -5.53775e-19 1.07511 1.79008e-18 0.831175)
(0.544097 0.273714 -6.07485e-19 0.894174 -8.7867e-19 0.72863)
(0.00420389 -0.000350839 -1.26044e-22 0.00350573 -2.33681e-22 0.00385814)
(0.00385928 -0.000440972 2.92288e-22 0.00351036 3.50493e-22 0.00368494)
(0.00347219 -0.000440596 -1.38123e-21 0.0034482 -1.84597e-21 0.00345892)
(0.00355247 -0.00046125 -2.19807e-21 0.0038492 -2.76944e-21 0.00369848)
(0.00354523 -0.000402338 -7.50445e-22 0.00407203 -8.80378e-22 0.00381081)
(0.000673672 -1.78496e-05 1.8555e-22 0.000702162 2.57696e-22 0.000687966)
(3.70494e-05 -2.89746e-08 -5.71916e-25 3.68031e-05 -8.65846e-25 3.69193e-05)
(0.0635168 0.00258497 1.94602e-20 0.0264748 2.14951e-20 0.0448314)
(0.555459 0.00889029 2.41258e-19 0.210984 2.33139e-19 0.384239)
(1.59905 -0.0384653 -1.7128e-19 0.60799 4.00782e-19 1.10665)
(2.18366 -0.163452 -2.87726e-19 0.856168 6.45534e-19 1.5174)
(1.75457 -0.269889 2.71493e-19 0.756859 -1.07445e-18 1.27123)
(0.968434 -0.225826 4.35465e-19 0.491962 1.3266e-18 0.728048)
(0.535172 -0.148484 -7.76842e-19 0.306607 -2.97453e-19 0.409623)
(0.350946 -0.105728 3.31045e-19 0.212351 -1.33331e-18 0.279581)
(0.253377 -0.0811168 -2.20623e-19 0.161032 7.62235e-19 0.207855)
(0.193831 -0.0664911 1.37781e-19 0.131894 7.46137e-19 0.163279)
(0.157497 -0.0568125 1.56424e-19 0.113289 3.85265e-19 0.135625)
(0.135081 -0.050731 -8.16609e-20 0.102082 3.4061e-19 0.118484)
(0.122742 -0.0473937 8.97624e-21 0.0960822 -9.85607e-19 0.109394)
(0.115704 -0.0456508 2.16543e-20 0.0932703 4.20936e-19 0.104418)
(0.112598 -0.0449376 -1.30194e-19 0.0922135 -8.15027e-21 0.102383)
(0.112375 -0.0450195 1.24279e-19 0.0925318 -4.75052e-19 0.102426)
(0.114355 -0.0458923 2.02122e-19 0.0943884 -7.03157e-20 0.104362)
(0.117069 -0.0471562 -1.80124e-19 0.0971447 1.02954e-18 0.107101)
(0.119257 -0.0484727 -3.21633e-19 0.100272 -9.05589e-19 0.109761)
(0.119494 -0.0494342 4.15074e-19 0.103185 -5.41306e-19 0.111337)
(0.116141 -0.0495195 2.0696e-19 0.105268 1.63844e-18 0.110704)
(0.10764 -0.0481019 1.45007e-19 0.106168 1.79772e-18 0.106909)
(0.0933855 -0.044498 -2.0565e-19 0.106508 -3.27572e-19 0.0999674)
(0.0753107 -0.0379095 -2.14739e-20 0.109441 -1.18414e-18 0.0924044)
(0.0612281 -0.0274537 -4.06279e-19 0.123878 -3.57349e-19 0.0925801)
(0.0641268 -0.0122211 -1.91214e-19 0.163717 1.48445e-18 0.113976)
(0.090057 0.00885177 9.37275e-20 0.235504 2.28373e-18 0.162841)
(0.136883 0.0368012 1.33608e-18 0.337016 7.68826e-19 0.236896)
(0.20272 0.0725178 2.34665e-19 0.466918 -8.58085e-19 0.334995)
(0.289371 0.118824 -1.5498e-18 0.626273 -7.61551e-19 0.458655)
(0.402755 0.181496 -1.03307e-20 0.807359 -2.00094e-19 0.601907)
(0.516926 0.241934 -7.0314e-21 1.0039 -1.90131e-18 0.768054)
(0.760899 0.374322 -1.37454e-19 1.30125 6.09208e-19 1.0169)
(0.748285 0.377775 4.32453e-19 1.14855 1.60557e-18 0.953445)
(0.00307899 -0.000245444 -2.60435e-23 0.00254803 -4.78542e-24 0.00281693)
(0.00291359 -0.000314578 -5.37374e-22 0.0025912 -7.32134e-22 0.00275185)
(0.00276217 -0.00034469 5.22241e-22 0.00265833 7.02239e-22 0.00270938)
(0.00255343 -0.00032875 2.38469e-21 0.00265712 3.19798e-21 0.00260333)
(0.00266686 -0.000338573 4.7553e-22 0.0029969 6.62662e-22 0.00282876)
(0.00271694 -0.00029242 4.02615e-22 0.00318982 2.20223e-22 0.00295397)
(0.000110077 -4.69005e-07 -9.44521e-24 0.000110998 -1.04524e-23 0.000110542)
(2.10098e-06 -7.72338e-10 -1.67269e-27 2.1007e-06 -1.1464e-27 2.10081e-06)
(0.0195934 0.000244437 -1.03375e-20 0.0096167 -1.49794e-20 0.0145269)
(0.303149 0.00216368 1.75318e-19 0.115233 1.98423e-19 0.209165)
(1.16564 -0.0275756 -2.79729e-19 0.443153 -7.00053e-19 0.806714)
(2.15309 -0.137266 -9.70214e-20 0.836466 8.70467e-19 1.49362)
(2.25294 -0.278337 1.34678e-19 0.930825 -1.02577e-18 1.5982)
(1.5561 -0.315444 -3.53575e-19 0.735347 -3.88707e-19 1.1607)
(0.859406 -0.228391 9.34977e-19 0.47476 -2.92532e-19 0.657418)
(0.525157 -0.157494 3.78671e-19 0.318818 8.26334e-19 0.412724)
(0.368641 -0.117464 -3.49234e-19 0.233921 5.14156e-19 0.300184)
(0.282562 -0.0958004 -3.76727e-19 0.189827 4.31897e-19 0.237185)
(0.22851 -0.0822976 -6.06429e-19 0.164033 -3.54904e-20 0.19671)
(0.196632 -0.0741569 4.76775e-19 0.149231 -6.02701e-19 0.173155)
(0.178317 -0.0695543 1.89002e-19 0.141524 8.34306e-19 0.1598)
(0.170178 -0.0675512 -3.47669e-19 0.138329 -2.03237e-19 0.154179)
(0.167957 -0.0670996 1.23297e-19 0.137771 3.50146e-19 0.15278)
(0.169958 -0.068039 9.19835e-20 0.139806 2.3242e-19 0.154832)
(0.173734 -0.0696888 1.80735e-20 0.143308 -3.74183e-19 0.158492)
(0.177317 -0.0715255 -2.32598e-20 0.147441 5.26943e-19 0.162368)
(0.178598 -0.0729367 3.38673e-19 0.15122 1.37253e-18 0.164916)
(0.175121 -0.0731512 3.06269e-19 0.153509 -5.44675e-19 0.164337)
(0.164237 -0.0712146 -4.58941e-19 0.1532 3.77968e-20 0.15875)
(0.144321 -0.0662046 -9.89525e-19 0.15018 -1.14569e-18 0.147296)
(0.115929 -0.0570373 2.55251e-19 0.146451 7.6123e-20 0.131244)
(0.086316 -0.0425402 5.66731e-19 0.150539 -1.04615e-18 0.118474)
(0.075099 -0.0215294 6.28097e-19 0.182981 3.28627e-19 0.129111)
(0.0995811 0.00731835 -4.21472e-19 0.261369 -1.82094e-19 0.180546)
(0.15711 0.0452455 -7.60173e-19 0.382362 1.50964e-18 0.269691)
(0.241236 0.0931298 -6.15019e-19 0.538876 -1.42458e-18 0.390275)
(0.351559 0.153681 9.4814e-19 0.728048 -2.04167e-19 0.540465)
(0.492465 0.231444 4.19809e-20 0.939708 3.55212e-19 0.713416)
(0.635647 0.309362 1.87675e-19 1.15325 -3.50177e-19 0.900326)
(0.881214 0.438583 -1.14335e-19 1.45468 -8.61457e-19 1.15803)
(0.939575 0.472653 -4.47386e-19 1.37259 5.47936e-19 1.15375)
(0.00228102 -0.000174275 -8.44615e-23 0.00187626 -2.80121e-23 0.00208101)
(0.00218703 -0.000225088 -4.50698e-22 0.00191345 -7.05753e-22 0.00204991)
(0.00212225 -0.000254876 1.88703e-21 0.00198609 2.15279e-21 0.002054)
(0.00203187 -0.000261911 -2.557e-22 0.00204132 -3.21063e-22 0.00203667)
(0.00188542 -0.000238322 6.65787e-22 0.00203024 6.20561e-22 0.00195687)
(0.00206029 -0.000261023 -6.7233e-22 0.00239056 -6.14578e-22 0.00222264)
(0.00193495 -0.000182323 1.34827e-21 0.00228695 1.80913e-21 0.0021104)
(0.000245527 -2.47195e-06 2.52215e-23 0.000251326 2.12789e-23 0.000248455)
(0.000272731 -7.43024e-06 2.13736e-24 0.000283978 3.61909e-23 0.000278329)
(0.000793872 -6.1102e-06 4.28115e-22 0.000712108 3.81235e-22 0.000752087)
(0.117794 -0.000702243 -5.59991e-21 0.0450625 5.07345e-21 0.0812102)
(0.679103 -0.0173992 -3.27744e-19 0.25851 -2.20583e-19 0.469346)
(1.73173 -0.0992837 2.07482e-19 0.669238 -4.04584e-19 1.20205)
(2.45084 -0.244847 -5.10182e-19 0.985081 9.29868e-19 1.71544)
(2.19327 -0.363834 -2.38936e-19 0.96676 -9.32032e-19 1.59474)
(1.41943 -0.339947 5.53093e-19 0.728432 7.55647e-19 1.08419)
(0.818961 -0.237984 3.37473e-19 0.484181 -1.53821e-18 0.638521)
(0.537263 -0.171379 1.58998e-19 0.343692 5.70707e-19 0.432311)
(0.399538 -0.134335 -7.27244e-19 0.266772 -1.11091e-18 0.332641)
(0.321734 -0.114955 2.95828e-19 0.228666 1.17854e-18 0.276415)
(0.275581 -0.103937 7.17943e-20 0.209092 -8.66499e-19 0.242828)
(0.25315 -0.0986763 -3.24983e-19 0.200585 4.25319e-19 0.227043)
(0.244483 -0.0967266 2.44422e-19 0.197821 5.10026e-21 0.221034)
(0.244766 -0.0973527 -4.51175e-20 0.199529 2.76591e-20 0.22201)
(0.249381 -0.0993363 -8.97193e-20 0.2037 7.31291e-19 0.226441)
(0.254709 -0.101707 1.05397e-19 0.208756 -1.7331e-19 0.231666)
(0.257722 -0.103603 -7.69248e-19 0.213245 7.31071e-21 0.23545)
(0.255113 -0.104027 -3.70021e-19 0.215523 1.90115e-19 0.23532)
(0.243051 -0.101712 -1.92817e-19 0.213666 -1.21688e-18 0.228401)
(0.218151 -0.0952897 9.52637e-19 0.206138 1.03803e-19 0.212237)
(0.178662 -0.0833066 1.58598e-19 0.192841 8.12065e-19 0.185882)
(0.128102 -0.0642453 2.89435e-19 0.178644 8.98377e-19 0.153501)
(0.0868913 -0.0366617 -5.99784e-19 0.184744 2.63744e-19 0.135953)
(0.0952905 0.000900563 4.91753e-19 0.251264 -1.17763e-18 0.173392)
(0.159957 0.0497003 2.81262e-19 0.383308 -1.41727e-19 0.271639)
(0.262852 0.11035 1.00964e-18 0.560614 3.1968e-19 0.411986)
(0.397123 0.184678 -1.46249e-18 0.771899 4.26117e-19 0.58496)
(0.562697 0.274669 -1.63345e-19 1.00278 1.34611e-19 0.780819)
(0.733227 0.366118 2.89936e-19 1.22639 4.58119e-19 0.983216)
(0.964201 0.484701 4.39763e-19 1.49996 2.52992e-20 1.22794)
(1.07806 0.53863 1.34119e-19 1.5004 -1.22154e-18 1.2791)
(0.00169802 -0.000125238 -3.31956e-22 0.00139029 -3.8718e-22 0.00154585)
(0.00164241 -0.00016216 1.34334e-21 0.00141983 1.40654e-21 0.0015312)
(0.00160948 -0.000186371 -3.1496e-22 0.00147514 -2.75741e-22 0.00154234)
(0.00157807 -0.000199392 -2.47271e-21 0.00153971 -2.61459e-21 0.001559)
(0.00151527 -0.000195931 -2.32907e-22 0.00157546 -3.15043e-22 0.00154549)
(0.00142384 -0.000176128 2.42663e-21 0.00157397 2.60204e-21 0.00149841)
(0.00155196 -0.000189826 -7.01944e-22 0.00184139 -9.24037e-22 0.0016947)
(0.00137501 -0.000113987 -4.64416e-21 0.00163203 -4.635e-21 0.00150254)
(0.000431251 -8.55382e-06 3.78834e-22 0.000454905 3.67599e-22 0.000443136)
(7.43389e-05 -3.42654e-07 1.00215e-24 7.52076e-05 -9.42256e-25 7.47779e-05)
(5.06702e-06 -4.77107e-09 -2.01011e-26 5.06051e-06 -3.32062e-26 5.06362e-06)
(0.0301783 -0.000966649 -1.06157e-20 0.0121706 -6.05657e-21 0.0210673)
(0.299402 -0.00956771 -1.94871e-19 0.114347 -1.29108e-19 0.206672)
(1.0963 -0.0597143 1.76452e-19 0.4229 -1.39076e-19 0.760549)
(2.15406 -0.18572 -6.4026e-19 0.853047 7.02498e-19 1.5029)
(2.58834 -0.341822 5.91882e-19 1.08389 -4.07987e-19 1.83609)
(2.12854 -0.425297 -5.0197e-19 1.00011 7.53152e-19 1.58342)
(1.36349 -0.363934 -1.06908e-19 0.749134 -1.58616e-19 1.06259)
(0.82723 -0.257566 -2.36726e-19 0.518439 -3.5546e-19 0.658571)
(0.571304 -0.19269 2.86115e-19 0.385544 -1.03353e-18 0.470239)
(0.448279 -0.159233 4.49332e-19 0.317263 3.20319e-19 0.382337)
(0.386384 -0.144139 -2.4211e-19 0.288933 -9.83086e-19 0.339072)
(0.357291 -0.137671 -2.21917e-19 0.278575 4.42305e-19 0.318723)
(0.348299 -0.136478 6.99072e-19 0.277924 -5.80458e-19 0.313389)
(0.350604 -0.138276 -4.1521e-19 0.282405 5.02714e-20 0.316446)
(0.357919 -0.141439 -5.56133e-19 0.289137 -3.68313e-19 0.323345)
(0.364646 -0.144365 1.00401e-18 0.295318 -1.40937e-18 0.329825)
(0.364996 -0.145293 -3.16991e-20 0.297831 1.06406e-18 0.331332)
(0.353542 -0.142545 2.8486e-21 0.293766 -6.318e-20 0.323654)
(0.3257 -0.134566 -6.07196e-19 0.280644 1.04916e-18 0.303245)
(0.277523 -0.119657 6.67476e-20 0.256281 -6.31983e-19 0.267044)
(0.206917 -0.0958607 -1.7535e-20 0.219985 3.17761e-19 0.213653)
(0.121933 -0.0614666 -6.78119e-19 0.18039 -5.73331e-19 0.151427)
(0.0740416 -0.0150509 3.67498e-19 0.18827 1.70087e-18 0.131453)
(0.131858 0.0443721 -5.15224e-19 0.309735 2.69731e-19 0.221027)
(0.253591 0.11676 -4.88471e-19 0.499113 5.32618e-21 0.376768)
(0.411278 0.202234 6.80491e-19 0.722359 -1.8212e-18 0.567235)
(0.597487 0.29974 -5.79443e-20 0.959272 7.42414e-19 0.77722)
(0.787123 0.396849 -1.58546e-19 1.18135 -9.2106e-19 0.985581)
(0.99354 0.49925 -1.36019e-18 1.41266 -7.0162e-19 1.20345)
(1.13179 0.558272 -3.62891e-19 1.47338 -1.72834e-19 1.28811)
(0.00126879 -9.10372e-05 -2.94235e-22 0.00103541 -2.39172e-22 0.00115324)
(0.00123442 -0.000117802 -1.22902e-21 0.00105787 -1.10877e-21 0.00114631)
(0.001217 -0.000136398 -6.71319e-23 0.00109852 -1.87392e-22 0.0011578)
(0.00120353 -0.000148435 -2.00138e-22 0.00114828 -1.70523e-22 0.00117597)
(0.00118646 -0.000153216 1.75519e-21 0.00119863 1.73091e-21 0.00119259)
(0.00114193 -0.000145809 9.38424e-22 0.00122012 7.67824e-22 0.0011811)
(0.00109544 -0.000132983 -1.30318e-21 0.00123663 -1.24792e-21 0.00116586)
(0.00113905 -0.000129862 -9.77667e-22 0.0013664 -3.77141e-22 0.00125168)
(0.0011057 -9.35376e-05 -6.07668e-22 0.00134765 -6.14038e-22 0.00122545)
(0.000535829 -1.55303e-05 -7.91165e-22 0.000586336 -7.82237e-22 0.000561058)
(4.49206e-05 -1.04816e-07 -1.57382e-24 4.52716e-05 -1.08967e-24 4.50978e-05)
(0.000303576 -1.34283e-05 -4.38952e-23 0.000328003 -2.04001e-23 0.000315872)
(0.000483907 -9.80132e-06 4.02115e-22 0.000434923 3.94013e-22 0.000458998)
(0.0836116 -0.00404459 -2.92696e-19 0.0323234 -2.42386e-19 0.0577904)
(0.50996 -0.0287845 7.5261e-19 0.197091 6.52026e-19 0.353432)
(1.44151 -0.114212 -3.42632e-19 0.56687 -4.18099e-19 1.00489)
(2.4175 -0.268024 1.50224e-18 0.984373 9.27114e-19 1.69849)
(2.65917 -0.422044 6.08919e-19 1.1607 7.67011e-19 1.91303)
(2.12081 -0.47772 -1.8428e-18 1.05215 -2.67511e-19 1.60738)
(1.3869 -0.399166 6.01802e-19 0.805004 -1.1951e-18 1.10127)
(0.881896 -0.291649 2.83532e-19 0.584457 1.42589e-18 0.718392)
(0.646291 -0.229756 -5.03257e-20 0.461826 -7.94133e-19 0.543814)
(0.550161 -0.202418 5.6768e-19 0.405819 6.18094e-19 0.476708)
(0.509117 -0.192222 -3.39692e-19 0.386345 -6.73227e-19 0.449849)
(0.494679 -0.190374 3.90432e-19 0.384817 4.72463e-20 0.441489)
(0.495924 -0.192744 -5.57783e-19 0.391227 8.47148e-19 0.444369)
(0.503791 -0.19638 1.13556e-19 0.399274 7.21023e-19 0.4517)
(0.509448 -0.198568 -1.89064e-19 0.403841 -1.87237e-18 0.456502)
(0.504655 -0.196835 -2.64647e-19 0.40044 4.55553e-19 0.452344)