/*--------------------------------*- C++ -*----------------------------------*\
| =========                 |                                                 |
| \\      /  F ield         | OpenFOAM: The Open Source CFD Toolbox           |
|  \\    /   O peration     | Version:  2312                                  |
|   \\  /    A nd           | Website:  www.openfoam.com                      |
|    \\/     M anipulation  |                                                 |
\*---------------------------------------------------------------------------*/
FoamFile
{
    version     2.0;
    format      ascii;
    arch        "LSB;label=32;scalar=64";
    class       volScalarField;
    location    "650";
    object      turbulenceProperties:L;
}
// * * * * * * * * * * * * * * * * * * * * * * * * * * * * * * * * * * * * * //

dimensions      [0 1 0 0 0 0 0];

internalField   nonuniform List<scalar> 
11040
(
0.000442219
0.00048469
0.000876178
0.00141859
0.00136944
0.00130687
0.00128052
0.00127256
0.00125443
0.00124503
0.00123334
0.00122446
0.00121403
0.00120615
0.00119827
0.00119388
0.00119336
0.00119505
0.00119774
0.00120108
0.00120544
0.00121142
0.00121782
0.00122333
0.00122934
0.00124067
0.00125888
0.00128001
0.00130459
0.00133359
0.00136824
0.00141056
0.0014673
0.00156254
0.00173954
0.00185175
0.0018852
0.00267064
0.00449053
0.0023264
0.0022443
0.00117616
0.00105434
0.00066749
0.000886797
0.0024532
0.00444103
0.00702559
0.0111814
0.0201619
0.0179285
0.0111497
0.00903673
0.00777998
0.00697941
0.00637543
0.00594459
0.00564818
0.00545443
0.00532792
0.00524278
0.00519545
0.00517782
0.00520147
0.0052852
0.00545816
0.00581309
0.00643
0.00727188
0.00839623
0.00982618
0.0113762
0.0126257
0.0136867
0.0141603
0.0141012
0.013625
0.0129301
0.012568
0.0112223
0.0112767
0.00798509
0.00149837
0.00161459
0.00128789
0.000826571
0.00157174
0.00315281
0.00538735
0.00843565
0.0108109
0.0129573
0.0158601
0.0197962
0.0271297
0.0531916
0.0347436
0.0244167
0.0204011
0.018163
0.0168932
0.0162294
0.0160404
0.0163063
0.0172441
0.0190976
0.0220629
0.0264227
0.032993
0.0452247
0.086913
0.0572411
0.0386416
0.0308697
0.0263891
0.0235349
0.0215587
0.0200408
0.0188571
0.0183413
0.0168372
0.0162202
0.0176105
0.00177305
0.00190639
0.00216754
0.00172001
0.00118374
0.00210104
0.00375473
0.00599355
0.00964206
0.0124578
0.0147877
0.0169249
0.0187271
0.0210068
0.0229564
0.0250444
0.0268654
0.0283095
0.0292638
0.0295617
0.0295575
0.0293812
0.029089
0.0289499
0.0293916
0.0305988
0.032712
0.035897
0.0401836
0.0443381
0.0448039
0.0410324
0.0364672
0.032651
0.0297172
0.027404
0.0256
0.0246662
0.0230655
0.0218351
0.028547
0.00205178
0.00215746
0.00209115
0.00297894
0.0025076
0.00153471
0.00256268
0.00423002
0.0065793
0.0101673
0.013983
0.0171951
0.019212
0.0214151
0.0229676
0.0243719
0.0254949
0.0262984
0.0268789
0.0272414
0.0275811
0.028057
0.0287342
0.0296491
0.0309916
0.0328926
0.0354841
0.0389239
0.0433315
0.0483593
0.0520926
0.0515862
0.047496
0.0428093
0.0388475
0.0356591
0.033147
0.0316575
0.0301697
0.0283306
0.0373406
0.00241404
0.00252044
0.00254876
0.00242896
0.00462566
0.00542973
0.00182748
0.00295491
0.00461618
0.0070651
0.0103038
0.0151551
0.0191305
0.0224971
0.0246738
0.0265098
0.0280365
0.0291121
0.0299294
0.0305135
0.0310379
0.0316871
0.0326255
0.0338833
0.0356003
0.0378934
0.0409027
0.0448168
0.0498615
0.0560609
0.0622052
0.0645489
0.060978
0.0550359
0.049608
0.0452225
0.0417901
0.0395742
0.0382043
0.0359747
0.0450735
0.00283983
0.0029053
0.00299718
0.00290149
0.00285548
0.0079516
0.0589963
0.00200293
0.00326244
0.00493044
0.00735731
0.0105218
0.0151271
0.0206349
0.0250722
0.0284926
0.0310344
0.0328348
0.0343158
0.0354057
0.0362665
0.037067
0.0381288
0.0395438
0.0414635
0.0440285
0.0474029
0.0518116
0.0575729
0.0650345
0.0737648
0.0801159
0.0782176
0.070623
0.0629597
0.0568015
0.0520816
0.0489038
0.0474064
0.045032
0.053415
0.00332397
0.00336144
0.00338774
0.00345471
0.00331982
0.0032438
0.0297505
0.42997
0.0022473
0.00346685
0.00517369
0.00748367
0.0106858
0.0147855
0.0207818
0.0267986
0.0317414
0.0354835
0.0384772
0.0406184
0.0422756
0.0435213
0.0447979
0.0463427
0.0483715
0.0510925
0.054725
0.0595475
0.0659416
0.0745527
0.0858853
0.0979767
0.101329
0.0921393
0.0807303
0.0716508
0.0649385
0.0603971
0.0583202
0.0560314
0.0633774
0.00386719
0.00389476
0.00389093
0.00390783
0.00398444
0.00375514
0.00383196
0.0157599
0.0124786
0.00690464
0.00347049
0.0053051
0.00754603
0.0106157
0.0146064
0.0198523
0.0270742
0.0338184
0.0394008
0.0437816
0.0472946
0.0498185
0.0519514
0.0540258
0.056372
0.0592745
0.0630564
0.0681115
0.0749281
0.0843285
0.0976601
0.116086
0.132659
0.125777
0.10711
0.0923423
0.0821034
0.0753741
0.0720447
0.0698177
0.075977
0.00448685
0.00450671
0.00449035
0.00446644
0.00448563
0.00455424
0.00430499
0.00454025
0.00992396
0.0342774
0.20963
0.00343183
0.00529644
0.00755569
0.0104166
0.0142743
0.0191083
0.025586
0.0340581
0.0419261
0.0483779
0.0533047
0.0572821
0.0607519
0.0641911
0.0679447
0.0723495
0.0778214
0.0849309
0.094654
0.108778
0.13076
0.166211
0.190036
0.15532
0.125457
0.10748
0.0965485
0.0907813
0.0880513
0.0929226
0.00519455
0.00520878
0.0051827
0.00514247
0.00510676
0.00513043
0.00516552
0.00500196
0.00503107
0.00804975
0.0498165
0.0105807
0.00877469
0.00494867
0.00738859
0.0101645
0.0137111
0.0183788
0.024153
0.0319227
0.0418746
0.0509056
0.0578196
0.0634966
0.0687531
0.0740102
0.0796932
0.0862843
0.0943228
0.104616
0.118639
0.139632
0.176811
0.270589
0.313231
0.192857
0.150586
0.129684
0.118919
0.114265
0.117267
0.00600776
0.00601655
0.00598751
0.00593119
0.00587395
0.00582946
0.0058389
0.00586881
0.0057758
0.00569275
0.0069442
0.100839
0.0889232
0.00682263
0.0044874
0.00696559
0.00978738
0.0131087
0.017366
0.0228973
0.0297404
0.038448
0.0488004
0.0588148
0.0673063
0.0745959
0.0817361
0.0895304
0.0984781
0.109201
0.122697
0.140852
0.16764
0.213598
0.311556
0.327049
0.227584
0.184148
0.163486
0.154812
0.155322
0.00694631
0.00694899
0.00691882
0.00685215
0.00677197
0.00669826
0.00664117
0.00662758
0.00665114
0.00661803
0.00644804
0.00694515
0.0206619
0.110093
0.020299
0.00835985
0.00602435
0.00912468
0.0124056
0.0163081
0.0213085
0.0275553
0.0346763
0.0429373
0.052985
0.0642018
0.0752861
0.0855727
0.0954325
0.105874
0.11789
0.132408
0.150476
0.173209
0.200532
0.226069
0.233815
0.222189
0.207496
0.200342
0.204321
0.00803471
0.00802959
0.00799946
0.00792498
0.00782436
0.00772142
0.0076289
0.00755298
0.00751252
0.0075196
0.00751885
0.00733318
0.00746343
0.0108192
0.610441
0.52706
0.0106562
0.0101568
0.00792251
0.0113933
0.0151957
0.0194971
0.0245682
0.0307169
0.037786
0.0455991
0.0546451
0.0654872
0.0779377
0.0912491
0.104686
0.117972
0.131301
0.144946
0.158582
0.171215
0.181257
0.187757
0.191034
0.193584
0.202549
0.00930378
0.00928877
0.00925878
0.00917668
0.00905694
0.00892538
0.00879703
0.00868016
0.00858035
0.00850899
0.00849061
0.00848129
0.00834875
0.00832613
0.00893409
0.0232308
0.111983
3.39794
0.00801413
0.0827157
0.00977405
0.0135046
0.0172968
0.021479
0.0262868
0.0319961
0.0387349
0.0463513
0.0546548
0.0638447
0.0743771
0.0864875
0.0998911
0.113788
0.127006
0.138344
0.147069
0.15358
0.158568
0.162454
0.169622
0.0107911
0.0107647
0.0107346
0.0106445
0.0105051
0.010345
0.0101813
0.010022
0.00987471
0.00974582
0.00964209
0.00958604
0.00954728
0.00949912
0.0093042
0.00961106
0.0112045
0.110968
0.26214
1.28351
0.00797525
0.0138596
0.0100317
0.0141217
0.017963
0.0219903
0.0264292
0.0315034
0.0373965
0.0442036
0.0518469
0.0600899
0.0687122
0.0776798
0.0870149
0.0966426
0.106284
0.115621
0.124123
0.130961
0.138222
0.0125257
0.0124874
0.0124559
0.0123562
0.0121956
0.0120067
0.0118072
0.0116067
0.0114124
0.0112321
0.0110711
0.0109346
0.0108304
0.0107685
0.010691
0.0105741
0.0104191
0.0111354
0.0155648
0.374067
0.398962
14.0962
0.0141722
0.00956518
2.05234
0.0118324
0.0164741
0.0204536
0.0246049
0.0290918
0.0340479
0.039567
0.0456645
0.0523142
0.0593947
0.0667171
0.07403
0.0812236
0.0881027
0.0942877
0.100754
0.0144691
0.0144169
0.0143803
0.0142659
0.0140796
0.0138578
0.0136202
0.0133766
0.013136
0.0129057
0.0126924
0.0124999
0.0123305
0.0121883
0.012085
0.011995
0.01189
0.0116823
0.0116676
0.0125805
0.0189809
0.432933
0.412378
3.83771
20.5546
0.0153716
0.00921057
0.0167322
0.0105881
0.0145925
0.019351
0.02381
0.0282921
0.0329757
0.0379133
0.0430952
0.0484601
0.0540265
0.059714
0.0652578
0.0711825
0.0165593
0.0164908
0.016446
0.0163133
0.0160981
0.0158405
0.0155616
0.0152713
0.0149797
0.0146963
0.014428
0.0141802
0.0139559
0.0137553
0.0135823
0.0134366
0.0133297
0.0132039
0.0130551
0.0128688
0.01293
0.0141205
0.0181919
0.111726
0.294695
0.853033
8.10607
0
0.0962679
0.0138589
0.00966039
0.0162793
0.0302925
0.0112165
0.0173246
0.0225285
0.0273426
0.0319854
0.0365869
0.0410956
0.0458978
0.0187797
0.0186952
0.0186413
0.0184888
0.0182434
0.0179491
0.0176283
0.0172917
0.01695
0.0166137
0.0162905
0.0159856
0.0157032
0.0154461
0.0152154
0.0150107
0.0148348
0.0146874
0.0145627
0.0144117
0.0142199
0.0140816
0.0141119
0.0149834
0.0175575
0.024922
0.214699
0.408554
0.937586
1.59957
23.903
0
0
0.182739
0.0155188
0.0101669
0.015102
0.0303094
0.0249305
0.0157248
0.0184776
0.0211548
0.0210548
0.0209903
0.020816
0.0205384
0.0202054
0.0198405
0.019456
0.0190634
0.0186744
0.0182972
0.0179373
0.0175988
0.0172852
0.0169984
0.0167393
0.0165073
0.0163027
0.0161262
0.0159755
0.0158357
0.0156641
0.0154877
0.0152752
0.0152963
0.0155254
0.016524
0.0190176
0.0246842
0.0390045
0.684247
0.626787
1.06907
1.50908
2.48302
13.3692
0
0
0.358762
0.0898742
0.0256461
0.0237023
0.0235868
0.0235094
0.0233108
0.0229988
0.0226245
0.0222132
0.0217784
0.0213331
0.02089
0.0204584
0.0200437
0.0196507
0.019283
0.0189426
0.0186309
0.0183481
0.0180939
0.017867
0.0176662
0.017496
0.0173461
0.0172088
0.0170456
0.016863
0.0167031
0.0165339
0.0165361
0.0167626
0.0171804
0.0182753
0.0204704
0.0243715
0.0322347
0.0498612
0.259228
0.577198
1.23203
1.53305
1.98225
2.80029
0.0264432
0.0263122
0.0262193
0.0259938
0.0256451
0.0252267
0.0247662
0.0242786
0.0237785
0.0232795
0.0227922
0.0223222
0.0218746
0.0214534
0.0210611
0.020699
0.0203676
0.0200669
0.0197964
0.0195536
0.0193418
0.0191599
0.019003
0.0188708
0.0187465
0.0186252
0.0184827
0.0183258
0.0181807
0.0180761
0.0179709
0.0179931
0.0181512
0.0184653
0.0189297
0.0198097
0.0212941
0.0237215
0.0276469
0.0337641
0.0448799
0.0293985
0.0292516
0.0291403
0.0288849
0.0284965
0.028031
0.027518
0.0269745
0.0264169
0.0258599
0.025315
0.0247888
0.0242863
0.0238119
0.0233687
0.0229579
0.0225803
0.0222359
0.0219245
0.0216441
0.0213982
0.0211854
0.0209997
0.0208444
0.0207157
0.0206081
0.0205172
0.0204344
0.0203508
0.0202686
0.0201771
0.0200825
0.0199993
0.0199387
0.0199078
0.0198803
0.0199094
0.0200146
0.0202006
0.0204989
0.0208155
0.0325913
0.0324279
0.0322947
0.0320061
0.0315747
0.0310586
0.0304895
0.0298869
0.0292687
0.0286512
0.0280468
0.0274629
0.0269044
0.0263766
0.0258827
0.0254242
0.0250019
0.0246161
0.0242667
0.0239517
0.0236757
0.0234368
0.0232286
0.023054
0.0229098
0.0227916
0.0226972
0.0226249
0.0225717
0.0225343
0.0225106
0.0224957
0.022487
0.0224819
0.0224813
0.022481
0.0224834
0.0224903
0.0225
0.0225388
0.0225395
0.0360463
0.0358656
0.0357063
0.0353805
0.0349022
0.0343315
0.0337022
0.0330366
0.0323545
0.0316736
0.0310072
0.0303636
0.0297481
0.0291664
0.0286219
0.0281165
0.0276508
0.0272255
0.0268405
0.0264938
0.0261909
0.0259293
0.0257019
0.0255125
0.0253575
0.025232
0.0251333
0.0250592
0.0250082
0.0249784
0.0249682
0.0249761
0.0250012
0.0250411
0.0250935
0.0251577
0.0252334
0.0253176
0.025401
0.0255054
0.0255561
0.039791
0.0395912
0.039401
0.0390334
0.0385036
0.0378733
0.0371791
0.0364461
0.0356963
0.0349488
0.0342178
0.0335124
0.0328387
0.0322023
0.0316071
0.031055
0.0305471
0.0300838
0.0296653
0.0292895
0.0289628
0.0286817
0.0284378
0.0282362
0.0280733
0.0279436
0.0278439
0.0277719
0.0277254
0.0277022
0.0277005
0.0277183
0.027755
0.0278085
0.0278769
0.0279594
0.0280569
0.0281682
0.0282824
0.0284286
0.0284984
0.0438551
0.0436341
0.0434069
0.0429914
0.0424045
0.0417088
0.0409442
0.0401388
0.0393169
0.038499
0.0377005
0.0369312
0.0361976
0.0355054
0.0348591
0.0342608
0.0337114
0.0332115
0.0327615
0.032359
0.0320111
0.0317134
0.0314559
0.0312447
0.0310763
0.0309447
0.0308461
0.0307782
0.0307384
0.0307242
0.0307334
0.0307639
0.0308146
0.0308832
0.0309672
0.0310658
0.0311799
0.0313082
0.0314378
0.0316059
0.0316718
0.0482717
0.048026
0.0477543
0.0472836
0.0466325
0.0458644
0.0450229
0.0441394
0.0432406
0.0423483
0.0414789
0.0406432
0.0398479
0.0390988
0.0384011
0.0377567
0.0371667
0.0366316
0.0361518
0.0357248
0.0353584
0.0350468
0.0347783
0.0345602
0.0343887
0.0342574
0.0341623
0.0341005
0.0340693
0.034066
0.0340881
0.034133
0.0341998
0.0342857
0.0343881
0.0345057
0.0346397
0.0347889
0.034938
0.0351318
0.0351972
0.0530777
0.0528028
0.0524763
0.0519411
0.051217
0.0503681
0.0494419
0.0484736
0.0474923
0.0465209
0.0455771
0.0446722
0.0438131
0.0430063
0.0422567
0.0415666
0.0409368
0.0403678
0.0398601
0.0394109
0.0390286
0.0387061
0.0384291
0.0382067
0.0380349
0.0379065
0.0378169
0.0377632
0.0377425
0.0377517
0.0377881
0.0378489
0.0379328
0.0380371
0.0381587
0.0382964
0.0384515
0.038623
0.0387931
0.0390147
0.0390786
0.0583147
0.0580028
0.0576091
0.0569975
0.0561893
0.0552492
0.0542291
0.0531681
0.0520976
0.0510419
0.0500195
0.0490424
0.0481176
0.0472518
0.0464498
0.045714
0.0450451
0.0444437
0.0439101
0.0434409
0.0430454
0.0427148
0.0424322
0.0422082
0.0420387
0.0419157
0.0418341
0.0417908
0.0417826
0.0418061
0.0418585
0.0419368
0.0420396
0.0421639
0.0423066
0.0424662
0.0426441
0.0428394
0.0430321
0.0432831
0.0433453
0.0640288
0.0636691
0.0631914
0.0624887
0.0615827
0.0605388
0.0594137
0.0582509
0.0570836
0.0559375
0.0548318
0.0537789
0.0527863
0.0518602
0.0510051
0.050224
0.0495171
0.0488845
0.0483265
0.0478395
0.0474332
0.0470969
0.0468111
0.0465877
0.0464227
0.0463073
0.0462359
0.046205
0.0462114
0.0462514
0.0463219
0.0464197
0.0465433
0.0466896
0.0468551
0.0470384
0.0472408
0.0474617
0.0476792
0.0479611
0.0480241
0.0702716
0.0698483
0.0692664
0.0684533
0.0674326
0.0662699
0.0650266
0.0637505
0.0624773
0.0612336
0.0600391
0.0589067
0.0578439
0.056856
0.0559474
0.0551213
0.0543773
0.0537155
0.0531354
0.0526331
0.0522189
0.0518801
0.051594
0.0513744
0.0512171
0.0511122
0.0510537
0.051038
0.0510615
0.0511205
0.0512114
0.051331
0.0514775
0.0516479
0.0518383
0.0520473
0.0522764
0.0525251
0.05277
0.0530841
0.0531521
0.0771013
0.0765932
0.0758801
0.0749334
0.0737772
0.0724765
0.0710985
0.0696956
0.0683054
0.0669555
0.0656657
0.064449
0.0633129
0.0622613
0.0612987
0.0604279
0.0596478
0.058958
0.0583575
0.0578418
0.0574215
0.0570825
0.0567979
0.0565838
0.0564358
0.0563432
0.0562991
0.0563001
0.0563421
0.0564213
0.0565339
0.0566764
0.0568473
0.0570432
0.0572602
0.0574967
0.0577546
0.058033
0.0583084
0.0586548
0.058739
0.0845826
0.0839603
0.0830836
0.0819734
0.0806551
0.079193
0.0776604
0.076114
0.0745937
0.0731271
0.0717344
0.070428
0.069215
0.0680981
0.0670811
0.066166
0.0653514
0.0646358
0.0640182
0.063493
0.0630708
0.062736
0.0624575
0.0622536
0.0621197
0.0620439
0.0620188
0.0620404
0.0621049
0.0622082
0.0623463
0.0625153
0.0627138
0.0629383
0.0631848
0.0634517
0.063741
0.0640514
0.0643605
0.0647393
0.0648496
0.0927885
0.092013
0.0909307
0.0896204
0.088107
0.0864547
0.0847429
0.0830332
0.0813666
0.079771
0.078266
0.0768633
0.0755687
0.074384
0.0733112
0.0723512
0.0715021
0.0707611
0.0701262
0.069591
0.0691666
0.0688356
0.0685623
0.0683674
0.0682462
0.0681857
0.068178
0.0682191
0.0683049
0.0684311
0.0685936
0.0687887
0.0690146
0.069268
0.0695448
0.0698434
0.070166
0.0705104
0.0708577
0.0712651
0.0714309
0.101799
0.100819
0.09948
0.0979231
0.0961741
0.0942966
0.0923762
0.0904789
0.0886469
0.0869078
0.0852796
0.0837731
0.0823922
0.0811375
0.0800088
0.0790061
0.0781261
0.0773653
0.0767204
0.0761843
0.0757671
0.0754505
0.0751933
0.0750183
0.0749208
0.0748862
0.0749059
0.0749756
0.0750913
0.0752483
0.0754426
0.0756702
0.0759295
0.0762171
0.076529
0.0768638
0.0772237
0.0776057
0.0779952
0.0784326
0.0786638
0.111703
0.110451
0.108791
0.106931
0.104896
0.102751
0.100588
0.0984751
0.0964559
0.0945564
0.092793
0.0911731
0.0896992
0.0883684
0.0871784
0.0861266
0.0852093
0.0844202
0.0837553
0.0832057
0.0827818
0.0824651
0.0822093
0.0820398
0.0819518
0.0819299
0.0819649
0.0820524
0.0821884
0.082368
0.082587
0.0828416
0.0831297
0.0834481
0.0837926
0.0841619
0.0845586
0.0849777
0.0854142
0.0858641
0.0862372
0.122593
0.120986
0.118927
0.116692
0.11431
0.111848
0.109402
0.107045
0.104815
0.102738
0.100825
0.0990835
0.0975121
0.0961067
0.0948617
0.0937726
0.0928342
0.0920386
0.0913796
0.090847
0.0904496
0.0901663
0.089945
0.0898132
0.0897657
0.0897854
0.0898622
0.0899915
0.0901691
0.0903902
0.0906504
0.0909461
0.0912753
0.0916351
0.0920217
0.0924344
0.0928753
0.0933385
0.0938267
0.0943076
0.094783
0.134574
0.132505
0.129951
0.127256
0.124455
0.121619
0.11885
0.116215
0.113752
0.111478
0.109401
0.107522
0.105836
0.104334
0.103005
0.101844
0.100841
0.0999895
0.0992814
0.0987059
0.0982718
0.0979628
0.0977193
0.0975721
0.0975153
0.0975312
0.097609
0.0977439
0.0979314
0.0981666
0.0984445
0.0987611
0.0991142
0.0995009
0.0999167
0.10036
0.100835
0.101331
0.101872
0.102318
0.103109
0.147758
0.145082
0.14191
0.138654
0.135367
0.132109
0.128975
0.12603
0.123306
0.120816
0.118562
0.11654
0.114744
0.113171
0.111809
0.110648
0.109673
0.108866
0.108215
0.107707
0.107348
0.107114
0.106941
0.106864
0.106876
0.106957
0.107097
0.107291
0.107535
0.107824
0.108155
0.108523
0.108926
0.109364
0.109832
0.110331
0.110861
0.111416
0.11202
0.112539
0.113377
0.162218
0.158744
0.154792
0.150864
0.147028
0.143326
0.139821
0.136553
0.133542
0.130802
0.128337
0.126136
0.124175
0.122421
0.120852
0.119474
0.118292
0.117299
0.116486
0.115833
0.115345
0.115013
0.114758
0.114616
0.114576
0.114618
0.11473
0.114905
0.115138
0.115423
0.115754
0.116127
0.116539
0.116986
0.117464
0.11797
0.118511
0.119062
0.119708
0.120046
0.12159
0.177877
0.173442
0.168592
0.163895
0.15945
0.155276
0.151403
0.147837
0.144562
0.14157
0.138864
0.136472
0.134422
0.132731
0.131368
0.130255
0.129321
0.12854
0.127904
0.127413
0.127071
0.126852
0.126695
0.126637
0.126673
0.126783
0.126954
0.127184
0.127467
0.127801
0.12818
0.128604
0.129069
0.129575
0.130121
0.130709
0.131334
0.131997
0.132722
0.133356
0.134454
0.194648
0.18917
0.18346
0.178069
0.173045
0.16835
0.164009
0.160053
0.156489
0.153283
0.150368
0.147652
0.145064
0.142571
0.140233
0.138206
0.136571
0.135276
0.134257
0.133457
0.132868
0.132488
0.132213
0.132072
0.13205
0.132121
0.132271
0.13249
0.132771
0.133106
0.133486
0.133904
0.134358
0.134841
0.135348
0.135871
0.136426
0.13696
0.137666
0.13765
0.140488
0.212975
0.206067
0.19943
0.193539
0.188241
0.183278
0.178544
0.17404
0.169843
0.166088
0.162923
0.160458
0.15871
0.157592
0.15686
0.156076
0.155059
0.153989
0.152994
0.152142
0.151447
0.150876
0.150399
0.150052
0.149831
0.149714
0.149687
0.149745
0.149882
0.150096
0.15038
0.150735
0.151157
0.151648
0.152207
0.152843
0.153536
0.154327
0.155131
0.156242
0.156668
0.233191
0.223515
0.215025
0.208258
0.202863
0.198284
0.194126
0.190103
0.185991
0.181628
0.17695
0.172004
0.166973
0.162097
0.157737
0.15448
0.152356
0.150837
0.149705
0.148856
0.148288
0.147973
0.147804
0.147791
0.147909
0.148129
0.148431
0.148802
0.149228
0.149696
0.150193
0.150709
0.151236
0.151764
0.152285
0.152779
0.15328
0.153673
0.154372
0.153554
0.158653
0.252106
0.240222
0.230056
0.221773
0.215136
0.209834
0.205723
0.202699
0.200617
0.19928
0.198468
0.197959
0.197548
0.197198
0.19674
0.195044
0.192158
0.189118
0.186232
0.183655
0.181393
0.179416
0.177674
0.17617
0.174899
0.173836
0.172962
0.172266
0.17174
0.171379
0.17118
0.171145
0.17127
0.171565
0.172032
0.172691
0.173505
0.174617
0.175645
0.17822
0.176734
0.242619
0.229227
0.223059
0.222118
0.223751
0.224727
0.222212
0.215487
0.206157
0.196393
0.187605
0.180345
0.174672
0.170355
0.167244
0.165868
0.165929
0.166637
0.167649
0.168837
0.170272
0.171624
0.173119
0.174692
0.176308
0.177959
0.179646
0.181367
0.183121
0.184915
0.186758
0.18866
0.190648
0.192746
0.194966
0.197299
0.199889
0.202507
0.206185
0.206464
0.22287
0.00517578
0.00951758
0.0141473
0.0185638
0.0230109
0.0277923
0.03316
0.0392733
0.0456497
0.0476059
0.0336113
0.00940983
0.0202202
0.62779
0.0161541
0.0146789
0.0168525
0.0183224
0.0194006
0.0207016
0.0222313
0.0239052
0.0257464
0.027805
0.0300751
0.0326526
0.0354028
0.0386283
0.0421868
0.0462879
0.0508683
0.056234
0.062391
0.0696529
0.0780977
0.088189
0.100178
0.114936
0.132385
0.156185
0.185142
0.222376
0.278735
0.355073
0.45198
0.593082
0.609923
0.533627
0.537935
0.58034
0.599608
0.688813
0.776563
0.862511
0.809029
0.694156
0.61473
0.556957
0.516491
0.489005
0.470713
0.459307
0.453333
0.452658
0.456851
0.466595
0.480973
0.504435
0.529657
0.58506
0.591718
0.708475
0.515374
0.530932
0.00906516
0.0124861
0.0166889
0.0207211
0.0246394
0.0287523
0.0333301
0.0385821
0.0446774
0.0517079
0.0567747
0.0423417
0.0112465
0.0117534
0.0984777
0.0209906
0.0155827
0.0175048
0.0195217
0.0207433
0.0221187
0.0237693
0.0255897
0.0276171
0.0298416
0.0323804
0.0350847
0.0382321
0.0417187
0.0457146
0.0501768
0.055335
0.0612472
0.0681329
0.0760771
0.0854708
0.0964536
0.10976
0.125137
0.145284
0.16967
0.198493
0.239002
0.290238
0.351137
0.445497
0.515146
0.527998
0.551303
0.610719
0.616277
0.695544
0.756699
0.827319
0.801476
0.714472
0.644399
0.58754
0.546018
0.517358
0.498214
0.486626
0.479496
0.479679
0.484644
0.496087
0.513631
0.53981
0.569224
0.637915
0.634142
0.782239
0.522494
0.541355
0.0152711
0.0171825
0.0203825
0.0237397
0.0271051
0.030656
0.0346214
0.0391784
0.0444462
0.0505797
0.0578125
0.0644972
0.0518595
0.0161977
0.011827
0.14341
0.0398499
0.0171277
0.0182703
0.0206433
0.0222187
0.0236842
0.0254383
0.0274348
0.0296071
0.0320577
0.0347565
0.0377895
0.0411855
0.0450489
0.0494041
0.0543659
0.0600229
0.0665207
0.0740135
0.0827168
0.0928172
0.104828
0.118721
0.135675
0.156939
0.181081
0.212882
0.252988
0.301758
0.3716
0.43792
0.517205
0.583831
0.656191
0.68583
0.775487
0.855319
0.963835
0.955245
0.838393
0.740425
0.662935
0.609962
0.572787
0.549368
0.534131
0.524568
0.525069
0.530183
0.544683
0.564853
0.596658
0.631582
0.725208
0.687767
0.882895
0.528106
0.547909
0.0233008
0.0236512
0.0255049
0.0278656
0.0304851
0.0333856
0.036699
0.0405552
0.0450273
0.0501625
0.0560794
0.0630851
0.0704717
0.0617157
0.0231253
0.0157007
0.323901
0.452436
0.0196773
0.0192043
0.0217614
0.023769
0.0253354
0.0271995
0.0293587
0.031758
0.0344162
0.0373603
0.0406752
0.0444201
0.0486603
0.0534498
0.0588928
0.065091
0.0722021
0.0803737
0.0897893
0.100837
0.113588
0.12867
0.147619
0.168928
0.196064
0.230193
0.271453
0.328902
0.388902
0.474985
0.571725
0.662777
0.731248
0.832017
0.935065
1.11791
1.2551
1.1087
0.928414
0.797101
0.715214
0.660011
0.62599
0.603806
0.589447
0.589028
0.593969
0.611691
0.635238
0.675864
0.715432
0.855035
0.73556
0.985504
0.528442
0.549156
0.0325293
0.0321165
0.0323499
0.0333959
0.0350329
0.0371363
0.0397197
0.0428463
0.0465484
0.0508145
0.0556299
0.0611289
0.0676673
0.0748681
0.071259
0.033639
0.0217899
0.0739804
0.118069
0.0263618
0.0203342
0.0226662
0.0253571
0.0271969
0.0290802
0.0314052
0.0340643
0.0369603
0.0401986
0.0438429
0.0479762
0.0526187
0.0578855
0.063855
0.0706506
0.078421
0.0873148
0.0976534
0.109516
0.123488
0.140761
0.160171
0.18465
0.215104
0.25199
0.302416
0.358066
0.439568
0.542135
0.644911
0.737683
0.830448
0.916062
1.06804
1.36404
1.92975
1.49424
1.10173
0.919426
0.813166
0.752185
0.713205
0.687444
0.68336
0.686372
0.707149
0.734305
0.787406
0.820661
1.04806
0.758261
1.036
0.523386
0.546523
0.0438521
0.0428638
0.0412375
0.0406626
0.0410531
0.0421642
0.0438918
0.0462209
0.049138
0.0525956
0.0565128
0.060882
0.0658621
0.0716966
0.0782116
0.0792161
0.0475978
0.0139446
0.901493
0.180015
0.0431687
0.0224812
0.0233184
0.0266249
0.0292764
0.0312913
0.0336649
0.0365141
0.0397415
0.0433126
0.0473326
0.0518486
0.0569647
0.0627469
0.069291
0.0767395
0.0852314
0.0950311
0.106237
0.119408
0.135506
0.153625
0.17641
0.204537
0.238849
0.285359
0.338832
0.41783
0.522353
0.635989
0.734597
0.797744
0.832446
0.889173
0.997288
1.21187
1.70081
3.23447
1.58997
1.18199
1.01323
0.918612
0.857972
0.840959
0.834656
0.856072
0.879982
0.94693
0.92548
1.25834
0.74654
0.998974
0.514605
0.541304
0.057202
0.0561705
0.0525125
0.0500423
0.048899
0.0487807
0.0494804
0.0509008
0.0529753
0.0556228
0.0587266
0.062201
0.0660621
0.0704315
0.0754934
0.0811212
0.084174
0.0666531
0.0424251
0.0161304
0.389413
0.131218
0.0305585
0.0243211
0.0269709
0.0308743
0.0337771
0.0362398
0.0392127
0.0427599
0.0467574
0.0511754
0.0561404
0.0617563
0.0681074
0.0753038
0.0834815
0.0928606
0.103584
0.116146
0.131398
0.148639
0.170294
0.196935
0.229715
0.274097
0.326888
0.405895
0.514481
0.639008
0.726285
0.742264
0.732145
0.738046
0.771802
0.833475
0.933567
1.11406
1.43873
2.18589
2.1451
1.56119
1.27913
1.18702
1.12343
1.12053
1.08224
1.13387
0.963448
1.21101
0.713182
0.919725
0.504263
0.534312
0.0713245
0.0722487
0.0665807
0.061966
0.0589809
0.0573587
0.0568138
0.05717
0.0583006
0.0600856
0.0623794
0.0650508
0.068029
0.0713317
0.0750736
0.079356
0.0839998
0.087735
0.0801447
0.0333118
0.0315441
0
0.230334
0.122096
0.0308752
0.0281095
0.0317143
0.036037
0.0393051
0.0423639
0.0460811
0.0504837
0.0554373
0.0609393
0.0671067
0.0740897
0.0820274
0.0910963
0.10146
0.113561
0.128168
0.144814
0.165698
0.191369
0.223253
0.26646
0.319511
0.399781
0.51405
0.642404
0.698249
0.67041
0.640121
0.628813
0.639143
0.664906
0.708275
0.77735
0.872726
1.01619
1.22909
1.61782
2.445
2.23455
1.66538
1.43851
1.17654
1.1455
0.906904
1.02106
0.674584
0.843403
0.493792
0.526409
0.0865912
0.0912823
0.0840162
0.076974
0.0717949
0.0683475
0.0662948
0.0653846
0.0654247
0.0662475
0.0676752
0.0695433
0.0717262
0.074167
0.0769016
0.0800075
0.0835218
0.0873304
0.0906882
0.0887993
0.065902
0.0519879
0.0226525
1.22937
0.211973
0.0673425
0.0330982
0.0328371
0.0374162
0.0424156
0.0463146
0.0500754
0.0546404
0.0601039
0.0662873
0.0731598
0.0808735
0.0896673
0.0997581
0.111532
0.12566
0.14189
0.162218
0.187227
0.218642
0.261242
0.315121
0.397225
0.516375
0.634636
0.647993
0.598512
0.564731
0.549791
0.55216
0.565652
0.590509
0.629336
0.679656
0.746549
0.82907
0.935028
1.06972
1.16377
1.1945
1.14619
1.01183
0.980468
0.818755
0.877825
0.638499
0.781343
0.483866
0.51839
0.10506
0.114177
0.105941
0.0959587
0.0880353
0.0823323
0.078433
0.0759949
0.0747462
0.0744587
0.0749128
0.0759116
0.0772905
0.0789394
0.0808265
0.0829782
0.0854468
0.0882484
0.0913103
0.0940166
0.0943171
0.0871584
0.0483448
0.048894
0.0269733
0.684795
0.213641
0.0576838
0.036906
0.0381169
0.043895
0.0501079
0.0550894
0.05978
0.0653744
0.0721396
0.0799185
0.0886431
0.0984957
0.109931
0.123657
0.139627
0.159592
0.184158
0.215331
0.257619
0.312646
0.396422
0.517357
0.608631
0.589066
0.535989
0.505293
0.490944
0.49055
0.498872
0.51557
0.541674
0.574978
0.617272
0.666819
0.725423
0.793547
0.846616
0.884979
0.89152
0.847904
0.838434
0.740693
0.780653
0.607129
0.732289
0.474773
0.510763
0.130828
0.144929
0.135507
0.121006
0.109061
0.100274
0.0939738
0.0896254
0.0868057
0.085194
0.0845089
0.0845126
0.085006
0.0858378
0.0869213
0.0882294
0.0897845
0.091623
0.0937649
0.096115
0.0982288
0.0994459
0.0968018
0.0850285
0.0312948
0.0470967
0.0264686
0.139241
0.240899
0.0763554
0.0442303
0.0449633
0.0516133
0.0594708
0.0661693
0.0721375
0.0789777
0.0873921
0.0973628
0.108858
0.122324
0.137957
0.157499
0.181749
0.212898
0.25513
0.311303
0.395752
0.51214
0.568194
0.532711
0.484585
0.458272
0.445734
0.444428
0.450339
0.462773
0.482305
0.507199
0.538222
0.573928
0.614927
0.661322
0.700257
0.733422
0.750697
0.738147
0.741099
0.679942
0.712784
0.580896
0.693567
0.466714
0.503861
0.173041
0.199112
0.184934
0.158566
0.138414
0.124342
0.114392
0.107352
0.102459
0.0991724
0.0970826
0.0958836
0.0953328
0.0952382
0.0954645
0.095936
0.0966341
0.097577
0.098793
0.10029
0.101967
0.103612
0.104761
0.104413
0.0993336
0.0805901
0.050731
0.0299162
0.0325807
0.0939597
0.311938
0.121005
0.0554032
0.0536274
0.0610281
0.07116
0.0805717
0.088459
0.0968367
0.107381
0.120767
0.136756
0.156324
0.180213
0.210955
0.252834
0.309727
0.393395
0.496081
0.521454
0.482907
0.44274
0.420536
0.409973
0.408489
0.413202
0.423193
0.438879
0.458947
0.483758
0.512178
0.544439
0.580603
0.612794
0.642331
0.662739
0.663387
0.673106
0.633584
0.663605
0.559458
0.662925
0.45978
0.497939
0.232179
0.329788
0.354618
0.238498
0.188139
0.160831
0.143531
0.131747
0.12353
0.117771
0.113742
0.110955
0.109062
0.107811
0.10701
0.106535
0.106327
0.106371
0.106675
0.107253
0.108098
0.109147
0.110287
0.111233
0.111501
0.109511
0.104328
0.0862576
0.0598629
0.0334879
0.0625257
1.51517
0.448097
0.240073
0.0740116
0.064798
0.071764
0.0843553
0.0981453
0.110008
0.121403
0.135235
0.154005
0.178393
0.209873
0.25156
0.307475
0.386474
0.469695
0.476233
0.440729
0.408103
0.389705
0.381024
0.379702
0.38377
0.392264
0.405502
0.422523
0.443501
0.467562
0.494779
0.5252
0.553586
0.580784
0.602395
0.60989
0.623659
0.597922
0.626778
0.542206
0.638647
0.453996
0.493188
0.212431
0.240071
0.293631
0.356348
0.292129
0.229176
0.192838
0.170303
0.155161
0.144612
0.137153
0.131795
0.127872
0.12494
0.122701
0.120963
0.11962
0.118616
0.117918
0.117514
0.117397
0.117558
0.117968
0.118544
0.119155
0.119404
0.118757
0.116238
0.110923
0.0980631
0.033816
0.0950211
0.0494165
3.56468
0.777157
0.419645
0.134623
0.0858085
0.0872572
0.101836
0.121168
0.139891
0.157372
0.177537
0.206022
0.247267
0.303812
0.376135
0.436163
0.434254
0.405798
0.379469
0.36401
0.356884
0.35594
0.35973
0.367297
0.378874
0.393818
0.41223
0.433449
0.457467
0.484306
0.510321
0.536
0.558206
0.569876
0.586314
0.570055
0.598399
0.528431
0.619316
0.449302
0.489731
0.172881
0.179933
0.188959
0.203434
0.222407
0.241666
0.246743
0.231818
0.209478
0.18996
0.175298
0.164557
0.15649
0.150302
0.145451
0.141555
0.138398
0.135835
0.133758
0.132089
0.130786
0.129829
0.129208
0.128895
0.128833
0.128907
0.128927
0.128617
0.12748
0.124971
0.118324
0.107126
0.064997
0.130657
4.32271
0.0759942
0.182218
0.805406