/*--------------------------------*- C++ -*----------------------------------*\
| =========                 |                                                 |
| \\      /  F ield         | OpenFOAM: The Open Source CFD Toolbox           |
|  \\    /   O peration     | Version:  2312                                  |
|   \\  /    A nd           | Website:  www.openfoam.com                      |
|    \\/     M anipulation  |                                                 |
\*---------------------------------------------------------------------------*/
FoamFile
{
    version     2.0;
    format      ascii;
    arch        "LSB;label=32;scalar=64";
    class       volVectorField;
    location    "650";
    object      U;
}
// * * * * * * * * * * * * * * * * * * * * * * * * * * * * * * * * * * * * * //

dimensions      [0 1 -1 0 0 0 0];

internalField   nonuniform List<vector> 
11040
(
(-0.584744 8.72965 -3.4228e-19)
(0.784422 5.76835 -2.07543e-18)
(-0.035533 -0.141051 -2.285e-17)
(-1.3669 -1.15453 -1.16206e-17)
(-1.39863 -0.701769 -4.26953e-18)
(-1.37273 -0.600882 -1.68388e-17)
(-1.35399 -0.509495 3.06534e-17)
(-1.30729 -0.423668 2.23252e-17)
(-1.26845 -0.353624 4.40438e-18)
(-1.23906 -0.297476 1.22867e-18)
(-1.21288 -0.2523 -2.09881e-17)
(-1.18735 -0.211014 3.0592e-18)
(-1.1681 -0.174707 8.56651e-18)
(-1.15288 -0.142833 7.19399e-18)
(-1.14176 -0.112768 -6.87517e-18)
(-1.13709 -0.0855243 1.18799e-17)
(-1.13749 -0.0594394 5.52769e-18)
(-1.14576 -0.0343519 -1.41348e-17)
(-1.16261 -0.00978059 -4.26511e-19)
(-1.18797 0.0149125 2.30052e-18)
(-1.22223 0.0399107 -2.5805e-18)
(-1.26311 0.0633532 -8.90262e-18)
(-1.31268 0.084214 9.05689e-18)
(-1.3735 0.104431 -9.26124e-18)
(-1.44405 0.124749 9.54038e-18)
(-1.52063 0.145024 1.70165e-17)
(-1.59732 0.164926 7.20991e-18)
(-1.66639 0.18352 6.75249e-18)
(-1.72032 0.199693 7.08536e-18)
(-1.75013 0.212011 9.42718e-18)
(-1.74534 0.219073 -1.67324e-17)
(-1.69814 0.220101 -1.28622e-17)
(-1.61222 0.214758 -3.94752e-17)
(-1.48073 0.200484 -2.32061e-17)
(-1.29983 0.174204 2.56121e-18)
(-1.06515 0.134665 -3.73113e-17)
(-0.765459 0.0818263 1.02623e-18)
(-0.400302 0.0136358 -2.85272e-17)
(-0.0364974 -0.0569023 4.26558e-17)
(0.705882 -0.153449 3.313e-17)
(0.181795 -0.531269 -6.12388e-18)
(1.4318 7.91765 2.0573e-19)
(3.00877 8.43325 -2.3451e-19)
(2.63097 5.20495 7.09136e-18)
(0.727491 1.21051 1.16686e-18)
(-1.03287 -0.70093 -5.18851e-19)
(-1.24467 -0.580311 5.89467e-18)
(-1.33331 -0.51256 -9.25809e-19)
(-1.33943 -0.44707 -1.27933e-17)
(-1.33141 -0.385591 5.67725e-19)
(-1.32784 -0.329871 -4.20455e-18)
(-1.32296 -0.286364 6.38697e-18)
(-1.31424 -0.245717 -2.25977e-17)
(-1.3103 -0.207459 -1.78181e-18)
(-1.30855 -0.174333 -1.60911e-17)
(-1.31035 -0.141896 7.27013e-18)
(-1.31815 -0.111811 -2.94345e-18)
(-1.33198 -0.0826513 -4.7575e-18)
(-1.35308 -0.0538577 -4.81854e-18)
(-1.38158 -0.0251832 -6.26102e-19)
(-1.41848 0.00442243 3.7369e-19)
(-1.46402 0.0352139 1.33007e-18)
(-1.51701 0.064633 3.811e-18)
(-1.57752 0.0906552 -5.86161e-18)
(-1.64452 0.115776 -1.33435e-18)
(-1.71304 0.140644 -1.61739e-18)
(-1.77719 0.164442 3.32048e-18)
(-1.83163 0.186418 2.00927e-18)
(-1.87146 0.20566 -1.11144e-17)
(-1.89147 0.221207 -9.01979e-19)
(-1.88742 0.231869 6.61505e-18)
(-1.85701 0.236954 8.35277e-18)
(-1.79763 0.235988 1.70371e-17)
(-1.69884 0.226821 1.41026e-17)
(-1.55598 0.207328 6.92856e-18)
(-1.36491 0.175637 -3.21548e-18)
(-1.12189 0.130856 1.29411e-17)
(-0.818202 0.0708893 -1.00566e-17)
(-0.451257 -0.0116904 7.56881e-18)
(-0.0795632 -0.105842 -3.03922e-18)
(0.641004 -0.215255 -4.17958e-18)
(0.698172 -0.474154 5.84063e-18)
(1.81477 7.03919 -1.62644e-20)
(3.31088 8.13425 1.07031e-18)
(4.10549 7.87321 -1.99941e-18)
(3.39354 5.33773 -3.18856e-18)
(1.43347 1.96641 3.09725e-19)
(-0.460387 -0.213082 -4.1278e-18)
(-1.02544 -0.427276 -8.68983e-18)
(-1.20089 -0.417043 -8.03457e-18)
(-1.25184 -0.373771 5.82178e-18)
(-1.28416 -0.326082 2.65825e-19)
(-1.30794 -0.289585 3.55749e-18)
(-1.31899 -0.252603 1.16506e-17)
(-1.33111 -0.21403 -9.04771e-18)
(-1.34216 -0.181059 9.9543e-18)
(-1.35471 -0.147268 -6.18749e-18)
(-1.37143 -0.11559 -2.77888e-18)
(-1.39223 -0.0845281 1.32137e-18)
(-1.41894 -0.0535668 1.87248e-18)
(-1.45184 -0.0227948 9.415e-20)
(-1.49166 0.00905944 -8.92604e-20)
(-1.53849 0.0421421 -3.08826e-18)
(-1.59036 0.0740132 -2.60115e-18)
(-1.64625 0.101784 5.37477e-19)
(-1.70512 0.127593 -3.67172e-19)
(-1.76336 0.152028 3.15633e-18)
(-1.81695 0.174433 -6.96702e-18)
(-1.86219 0.194187 -5.02517e-18)
(-1.89522 0.210471 7.2759e-18)
(-1.91173 0.222533 1.76924e-18)
(-1.90737 0.229358 -1.10714e-18)
(-1.8775 0.22998 -7.23458e-18)
(-1.81659 0.223154 3.02691e-18)
(-1.71835 0.207333 -6.80261e-18)
(-1.57775 0.180812 -9.04986e-18)
(-1.39061 0.141838 1.99541e-18)
(-1.15366 0.0895711 5.11615e-18)
(-0.858839 0.0221818 7.69751e-18)
(-0.501451 -0.0686283 -7.89174e-18)
(-0.134818 -0.180773 -1.57876e-18)
(0.530441 -0.294916 -2.06165e-18)
(0.736071 -0.635594 -3.45291e-18)
(2.21243 6.61711 -5.70133e-20)
(3.11204 7.32823 -2.03188e-19)
(4.16343 8.03246 1.0623e-18)
(4.68753 7.61415 1.99179e-18)
(3.97932 5.52748 -2.81267e-19)
(2.15206 2.60733 -2.5895e-18)
(0.170442 0.330144 1.75947e-18)
(-0.735445 -0.253386 4.21315e-18)
(-1.0259 -0.308535 -3.21068e-18)
(-1.13592 -0.284788 3.65425e-18)
(-1.20719 -0.266303 -8.57368e-18)
(-1.24852 -0.242259 1.15607e-18)
(-1.28183 -0.208089 1.24546e-18)
(-1.30874 -0.178571 -7.89937e-18)
(-1.33255 -0.145629 -3.84383e-18)
(-1.35773 -0.114039 2.42451e-18)
(-1.38453 -0.0825327 4.60003e-18)
(-1.41563 -0.0505864 2.13362e-18)
(-1.45128 -0.0188619 -1.32714e-19)
(-1.49228 0.0140918 1.41815e-19)
(-1.53871 0.0480571 8.06431e-19)
(-1.58859 0.0808677 2.42202e-18)
(-1.6408 0.109431 8.23372e-19)
(-1.69497 0.135455 1.47341e-18)
(-1.74873 0.159374 2.23315e-18)
(-1.79907 0.180678 1.00194e-17)
(-1.84272 0.19877 -7.31361e-19)
(-1.87586 0.212742 -1.29247e-18)
(-1.89409 0.221724 -4.44962e-18)
(-1.89262 0.224562 -3.87581e-18)
(-1.8663 0.220101 5.37379e-18)
(-1.80976 0.20701 -4.53443e-18)
(-1.71769 0.1839 1.19389e-17)
(-1.58495 0.149148 3.15495e-18)
(-1.40733 0.101023 2.49176e-18)
(-1.18174 0.0385858 5.26309e-19)
(-0.900847 -0.039479 -1.18307e-19)
(-0.558948 -0.140654 -6.22734e-19)
(-0.204542 -0.271593 1.68131e-18)
(0.387078 -0.386014 -2.40726e-18)
(0.658439 -0.735265 6.49242e-19)
(2.66967 6.13348 1.16247e-19)
(3.34819 6.68609 -1.14833e-19)
(4.05178 7.2421 -9.29035e-19)
(4.82915 7.75781 -1.51043e-18)
(5.19873 7.43568 1.51656e-18)
(4.58304 5.79446 -1.13863e-19)
(2.92516 3.27025 4.57349e-19)
(0.946908 0.993818 2.78867e-18)
(-0.353386 -0.0413919 -1.13556e-18)
(-0.791476 -0.176504 -1.96382e-18)
(-0.992115 -0.199267 -2.78434e-18)
(-1.09773 -0.202594 -1.8855e-20)
(-1.16639 -0.182845 -9.51225e-20)
(-1.21955 -0.163323 4.98735e-18)
(-1.26011 -0.135281 2.99734e-18)
(-1.29719 -0.106154 1.17409e-19)
(-1.33166 -0.075963 -1.99233e-18)
(-1.36778 -0.0443324 2.20167e-18)
(-1.40632 -0.0128522 -3.22597e-19)
(-1.44858 0.0201704 7.68969e-19)
(-1.49514 0.0540818 -1.57014e-18)
(-1.54441 0.0870875 -1.66006e-19)
(-1.59544 0.116002 2.07886e-18)
(-1.64826 0.142151 -2.23082e-18)
(-1.70123 0.165703 -4.89501e-18)
(-1.7518 0.186093 -2.46856e-18)
(-1.79683 0.202591 5.11446e-19)
(-1.83255 0.21415 -3.94906e-18)
(-1.85455 0.219725 1.11207e-19)
(-1.85799 0.218038 3.68241e-18)
(-1.83781 0.207823 -2.85811e-18)
(-1.78888 0.187736 5.96034e-19)
(-1.70625 0.15644 -8.26765e-18)
(-1.58482 0.112365 -3.93159e-18)
(-1.42047 0.0538256 -2.26956e-18)
(-1.21023 -0.0201771 -2.15474e-18)
(-0.947711 -0.110475 1.18833e-18)
(-0.627434 -0.223567 -5.42583e-20)
(-0.291139 -0.370549 8.84867e-19)
(0.21953 -0.490344 3.23147e-18)
(0.523086 -0.808784 -1.86437e-18)
(3.07278 5.69366 -1.49703e-19)
(3.5831 6.21129 2.30375e-19)
(4.10146 6.61102 1.98183e-19)
(4.68285 7.05509 5.40967e-19)
(5.3176 7.47325 -4.08578e-19)
(5.65129 7.30376 2.0032e-19)
(5.1904 6.08247 4.98139e-19)
(3.77314 3.97243 1.8734e-20)
(1.85202 1.76365 -1.01315e-19)
(0.229903 0.326929 4.20284e-18)
(-0.475357 -0.0298236 4.66297e-18)
(-0.800346 -0.107205 -2.11634e-18)
(-0.95565 -0.120829 -1.34775e-18)
(-1.06146 -0.124558 6.24105e-18)
(-1.13212 -0.110687 -5.26107e-18)
(-1.19001 -0.088904 2.30226e-18)
(-1.23791 -0.0632831 2.1628e-19)
(-1.2826 -0.033788 6.08189e-19)
(-1.32621 -0.0038806 7.18179e-19)
(-1.37114 0.0283142 -3.53467e-19)
(-1.41901 0.0614725 -7.48968e-19)
(-1.46902 0.0942613 5.43697e-19)
(-1.52058 0.123318 -9.16398e-19)
(-1.57395 0.149554 -6.46435e-19)
(-1.62802 0.172783 4.69682e-18)
(-1.68052 0.19229 -3.09421e-18)
(-1.72847 0.207135 -7.25759e-19)
(-1.76824 0.216083 4.89138e-18)
(-1.79556 0.21789 3.852e-18)
(-1.80573 0.211155 -1.89266e-18)
(-1.79387 0.194496 -1.52893e-18)
(-1.75514 0.166557 -4.82431e-19)
(-1.68477 0.126027 3.83501e-18)
(-1.57791 0.0714058 4.00646e-18)
(-1.43056 0.00109835 1.14018e-18)
(-1.24001 -0.0858346 -1.53112e-18)
(-1.00096 -0.189708 -2.18119e-19)
(-0.709312 -0.315855 -1.0577e-18)
(-0.398317 -0.474721 -2.57032e-18)
(0.0321615 -0.604628 -1.24507e-19)
(0.343682 -0.87636 1.96602e-18)
(3.45693 5.33608 -2.88254e-20)
(3.82497 5.77328 1.65056e-19)
(4.22027 6.16325 2.09264e-20)
(4.6515 6.46945 4.44192e-19)
(5.14781 6.81052 2.25381e-19)
(5.69205 7.16787 -7.6872e-19)
(6.03763 7.15629 2.25583e-19)
(5.76852 6.33714 -2.03636e-19)
(4.64785 4.66779 -1.50514e-18)
(2.87877 2.62145 3.94359e-20)
(1.09411 0.939034 -5.64619e-18)
(-0.045508 0.162368 7.3331e-18)
(-0.521687 0.00945353 -5.82591e-18)
(-0.779307 -0.0384032 -6.52903e-19)
(-0.920949 -0.055093 2.82315e-18)
(-1.02157 -0.0526983 -1.0083e-18)
(-1.09582 -0.0396038 3.94138e-18)
(-1.15709 -0.0161863 -1.62192e-18)
(-1.21106 0.00966695 3.73073e-19)
(-1.26199 0.0396566 -2.94421e-19)
(-1.31313 0.0711617 3.06041e-19)
(-1.36505 0.103331 -4.02416e-19)
(-1.41811 0.132383 2.12603e-18)
(-1.47295 0.15872 -6.97733e-19)
(-1.52903 0.18172 -1.76175e-18)
(-1.58437 0.200413 8.26679e-19)
(-1.63623 0.213601 2.69173e-18)
(-1.68117 0.219812 -1.33035e-18)
(-1.71517 0.217568 3.6509e-20)
(-1.73376 0.205319 -1.05626e-18)
(-1.73232 0.181569 6.71249e-20)
(-1.70628 0.144928 -1.77472e-18)
(-1.65112 0.0941247 -3.84055e-20)
(-1.56233 0.0277533 7.99869e-19)
(-1.43621 -0.0556142 2.67866e-18)
(-1.27033 -0.156677 -2.07084e-18)
(-1.06071 -0.275159 -2.41628e-18)
(-0.805186 -0.414923 2.00256e-18)
(-0.528153 -0.582098 -7.48407e-19)
(-0.174076 -0.724476 2.28506e-20)
(0.122493 -0.94731 9.57304e-20)
(3.8049 5.03345 -7.70855e-21)
(4.08901 5.39722 -6.29713e-20)
(4.38351 5.7436 4.19504e-20)
(4.71678 6.04152 -2.40104e-19)
(5.08756 6.27596 -1.47689e-19)
(5.50996 6.53311 -2.54343e-19)
(5.98345 6.84101 1.08114e-18)
(6.34913 6.95812 1.76925e-19)
(6.27797 6.50163 5.19107e-19)
(5.48828 5.28604 -1.1015e-18)
(3.9919 3.52672 1.18049e-18)
(2.18869 1.76428 1.69146e-18)
(0.671571 0.56578 -4.32678e-18)
(-0.140268 0.147992 6.37131e-18)
(-0.524981 0.0577309 1.06232e-19)
(-0.741255 0.0249011 -1.27797e-18)
(-0.877569 0.0106978 -4.66082e-18)
(-0.975458 0.0171999 -3.72727e-19)
(-1.05227 0.0322086 -1.46747e-18)
(-1.11669 0.0566088 5.54392e-18)
(-1.1754 0.0845284 -3.49302e-18)
(-1.2312 0.115309 5.8792e-19)
(-1.28654 0.144126 1.17308e-18)
(-1.34315 0.170624 2.03996e-19)
(-1.4014 0.193595 4.58482e-19)
(-1.45987 0.211671 2.09305e-19)
(-1.51615 0.223333 1.09274e-18)
(-1.56707 0.226828 -6.4671e-19)
(-1.60891 0.220413 -2.63551e-18)
(-1.63751 0.20236 -7.63138e-19)
(-1.64852 0.171047 2.25896e-18)
(-1.63774 0.125033 1.05163e-18)
(-1.60097 0.0631172 8.61307e-20)
(-1.53415 -0.0159698 -1.85091e-18)
(-1.434 -0.113378 -1.03707e-18)
(-1.29845 -0.229352 6.80434e-19)
(-1.1249 -0.362924 1.58718e-18)
(-0.912994 -0.516059 -8.82229e-19)
(-0.67932 -0.689241 6.15321e-19)
(-0.398694 -0.843423 -1.31867e-18)
(-0.138216 -1.02227 -1.97765e-19)
(4.12681 4.77301 -2.05227e-20)
(4.3545 5.07852 -1.38268e-19)
(4.5815 5.3725 3.00793e-19)
(4.83345 5.64833 3.50619e-20)
(5.12165 5.8821 -5.75651e-20)
(5.4405 6.06199 8.80847e-21)
(5.79947 6.24966 -4.19266e-19)
(6.20958 6.50152 -4.29666e-19)
(6.58429 6.6961 -5.8975e-21)
(6.68549 6.53372 -8.11557e-19)
(6.23082 5.76252 -2.69478e-19)
(5.09291 4.38622 8.03086e-19)
(3.4403 2.72049 5.12953e-19)
(1.72885 1.26077 -2.17833e-18)
(0.473978 0.420217 7.51088e-18)
(-0.156886 0.17416 -3.57314e-18)
(-0.491827 0.11291 3.073e-18)
(-0.687692 0.0879643 -4.81521e-18)
(-0.820399 0.0782804 -1.50381e-19)
(-0.917636 0.0871259 1.62931e-18)
(-0.995657 0.10539 -2.17599e-18)
(-1.06145 0.132114 -2.88646e-19)
(-1.12182 0.159657 5.78107e-19)
(-1.18107 0.186137 -1.91611e-18)
(-1.24138 0.209368 -5.31822e-19)
(-1.30253 0.227282 -1.41591e-18)
(-1.36294 0.237895 -2.57223e-18)
(-1.42 0.239058 9.75385e-19)
(-1.47036 0.228693 7.15653e-19)
(-1.51022 0.204871 2.32033e-18)
(-1.53558 0.165867 -9.26294e-19)
(-1.54258 0.110197 6.599e-19)
(-1.52749 0.0367533 -7.67487e-19)
(-1.48676 -0.0555249 1.86036e-18)
(-1.41763 -0.167371 -2.08558e-19)
(-1.31845 -0.298362 4.81663e-19)
(-1.18786 -0.446701 -2.3998e-18)
(-1.02678 -0.612102 1.54176e-18)
(-0.84593 -0.789953 -1.14659e-19)
(-0.637468 -0.95123 8.05111e-19)
(-0.429152 -1.09899 -8.35401e-19)
(4.42354 4.54685 -1.11586e-19)
(4.61136 4.80479 4.1767e-19)
(4.79263 5.0542 -1.4691e-19)
(4.98759 5.29256 -2.10015e-19)
(5.20894 5.51402 1.38474e-19)
(5.45892 5.70088 -3.1868e-19)
(5.73298 5.84176 1.0226e-19)
(6.03706 5.97504 1.64278e-18)
(6.38726 6.16482 -1.72674e-18)
(6.74958 6.37854 -1.74798e-19)
(6.97302 6.4213 8.63868e-20)
(6.81559 6.03693 6.49782e-20)
(6.07333 5.09067 8.71732e-19)
(4.73217 3.69417 -3.295e-19)
(3.0528 2.18983 1.93106e-18)
(1.4797 0.993507 -2.35711e-18)
(0.418882 0.381287 1.03808e-18)
(-0.121856 0.216123 -8.93085e-19)
(-0.427028 0.172534 1.70244e-18)
(-0.613439 0.152199 1.34673e-18)
(-0.74249 0.147172 5.84444e-19)
(-0.836152 0.160806 -1.5781e-18)
(-0.911396 0.182335 1.48038e-18)
(-0.978338 0.206984 8.33027e-19)
(-1.04283 0.230194 -2.3154e-18)
(-1.10709 0.248383 1.59032e-18)
(-1.17118 0.258733 1.81397e-18)
(-1.23374 0.258482 -2.10304e-18)
(-1.29229 0.245085 2.84188e-19)
(-1.34368 0.216298 -1.80788e-18)
(-1.38448 0.170227 9.42063e-19)
(-1.41124 0.105352 -1.22257e-18)
(-1.4207 0.0207204 -3.9529e-19)
(-1.40987 -0.0843991 6.52697e-20)
(-1.37652 -0.210164 -8.20543e-19)
(-1.31942 -0.355316 2.3979e-19)
(-1.23813 -0.517056 6.84952e-19)
(-1.13421 -0.692843 -9.29349e-19)
(-1.0144 -0.874527 -1.35804e-19)
(-0.877805 -1.03874 -1.13341e-18)
(-0.731729 -1.16864 7.97072e-19)
(4.69698 4.3477 -1.14128e-19)
(4.85586 4.56701 -3.46092e-19)
(5.00551 4.77805 2.07405e-20)
(5.16115 4.98198 6.97756e-20)
(5.3337 5.17652 -2.60329e-20)
(5.52832 5.35601 -2.33684e-19)
(5.74522 5.50861 1.36361e-20)
(5.98075 5.62269 1.21835e-20)
(6.23787 5.71714 1.1777e-19)
(6.53156 5.84599 1.61203e-18)
(6.85953 6.0316 5.1919e-19)
(7.14588 6.18023 1.36008e-19)
(7.21517 6.0875 -1.05435e-18)
(6.85045 5.55895 2.35146e-18)
(5.92173 4.54773 -1.96476e-18)
(4.49375 3.21481 1.18674e-18)
(2.85511 1.87857 -1.76941e-18)
(1.40755 0.877545 -4.93373e-18)
(0.461977 0.393699 3.19599e-19)
(-0.0382581 0.264967 6.41524e-18)
(-0.326497 0.232768 -3.47994e-18)
(-0.501002 0.222085 3.94404e-18)
(-0.619237 0.225918 -1.96867e-18)
(-0.710137 0.24087 3.19898e-19)
(-0.788186 0.259859 -2.08102e-19)
(-0.860573 0.277013 -1.5979e-18)
(-0.930625 0.287548 1.33165e-18)
(-0.999349 0.287184 -1.07881e-18)
(-1.06593 0.272369 8.86819e-19)
(-1.12849 0.240311 5.92024e-19)
(-1.18461 0.188922 7.7729e-20)
(-1.23165 0.116654 5.32038e-19)
(-1.26706 0.0226316 3.07949e-19)
(-1.28855 -0.0935292 -1.28258e-18)
(-1.29435 -0.231304 -7.55889e-19)
(-1.28353 -0.388443 5.28195e-19)
(-1.25606 -0.561049 6.38078e-19)
(-1.21356 -0.744694 1.2615e-19)
(-1.15999 -0.929344 1.2725e-18)
(-1.09535 -1.09469 9.04461e-19)
(-1.01779 -1.21854 2.00529e-19)
(4.94847 4.17068 -1.29792e-19)
(5.08543 4.35835 6.42577e-20)
(5.21244 4.53759 3.1184e-19)
(5.34031 4.71087 -2.85828e-19)
(5.47849 4.87876 3.87199e-20)
(5.63182 5.03824 4.74837e-20)
(5.80291 5.18516 9.20541e-20)
(5.99143 5.31169 -6.75131e-19)
(6.1944 5.4074 -1.70358e-18)
(6.41203 5.47696 2.24751e-18)
(6.65486 5.55611 -1.55949e-18)
(6.93586 5.68805 -4.05326e-19)
(7.23177 5.85588 -7.00148e-19)
(7.43886 5.93742 -4.02656e-19)
(7.38019 5.74952 9.22349e-19)
(6.87837 5.15569 -4.16109e-19)
(5.85841 4.15876 1.98046e-18)
(4.42245 2.92653 -1.86305e-18)
(2.848 1.73475 -8.47319e-19)
(1.48714 0.85842 6.04809e-18)
(0.592601 0.430427 -3.62249e-18)
(0.117562 0.318583 -2.22343e-19)
(-0.145024 0.307992 8.37555e-19)
(-0.311116 0.31067 2.98741e-18)
(-0.431023 0.315857 -2.51582e-18)
(-0.528009 0.324045 -5.48499e-19)
(-0.613768 0.330513 -6.11592e-19)
(-0.694385 0.328916 3.24645e-18)
(-0.772112 0.313763 -1.43261e-18)
(-0.84728 0.280795 -4.66906e-19)
(-0.919165 0.227109 1.57812e-18)
(-0.986519 0.15079 -1.33762e-18)
(-1.04781 0.0508943 -6.62084e-19)
(-1.1019 -0.0726153 7.81975e-19)
(-1.14761 -0.218442 5.79544e-19)
(-1.18423 -0.383436 1.03255e-19)
(-1.2118 -0.562845 -3.00872e-19)
(-1.23144 -0.75107 -1.78279e-19)
(-1.24487 -0.937529 -6.33956e-19)
(-1.25106 -1.10443 5.58542e-19)
(-1.24495 -1.23157 -1.02814e-19)
(5.17914 4.01207 2.06928e-19)
(5.29898 4.17352 -4.64535e-19)
(5.4091 4.32635 4.3429e-19)
(5.51723 4.47341 1.1248e-19)
(5.63071 4.61678 -1.0729e-19)
(5.75414 4.75539 5.37855e-20)
(5.89035 4.8867 4.85545e-19)
(6.04086 5.0077 2.92966e-19)
(6.20521 5.11341 1.62922e-19)
(6.3808 5.19558 7.96112e-20)
(6.56589 5.25113 -5.64497e-19)
(6.76688 5.29772 8.98082e-19)
(6.99888 5.37402 -8.89153e-20)
(7.26625 5.50437 9.25288e-19)
(7.52662 5.64655 -2.51676e-18)
(7.66722 5.67727 2.59224e-18)
(7.5265 5.44421 -7.60903e-19)
(6.9621 4.85083 -2.24685e-18)
(5.92962 3.91885 1.87897e-18)
(4.53506 2.79814 -2.19979e-18)
(3.02571 1.71997 1.63574e-18)
(1.75161 0.929568 -6.52431e-19)
(0.919197 0.525172 2.62844e-18)
(0.442177 0.400533 -1.04052e-18)
(0.160477 0.394047 -5.24693e-18)
(-0.021729 0.407531 2.85207e-18)
(-0.15524 0.411087 1.19062e-18)
(-0.26639 0.402815 -2.86356e-19)
(-0.366449 0.382488 2.24239e-19)
(-0.461087 0.346863 -6.70531e-19)
(-0.552904 0.292149 -3.2099e-18)
(-0.642955 0.215197 3.35699e-18)
(-0.731246 0.114251 -2.12534e-19)
(-0.817598 -0.0109892 -9.36158e-19)
(-0.902099 -0.159127 1.00989e-18)
(-0.984216 -0.326338 -1.3606e-19)
(-1.06382 -0.507087 -2.50659e-19)
(-1.14165 -0.695349 4.54178e-19)
(-1.21774 -0.881212 2.08293e-19)
(-1.29019 -1.05008 -4.23069e-19)
(-1.35387 -1.18606 -2.15543e-19)
(5.39002 3.86913 5.94549e-21)
(5.496 4.00856 2.26197e-19)
(5.59304 4.13933 4.33482e-19)
(5.68656 4.26427 -5.10361e-19)
(5.78224 4.38608 -2.16462e-20)
(5.88401 4.50487 -9.86493e-20)
(5.99443 4.61939 -2.72142e-19)
(6.11548 4.72765 -3.21712e-19)
(6.24811 4.82743 4.43345e-19)
(6.39179 4.9155 1.40232e-18)
(6.5443 4.98627 -4.76689e-19)
(6.7037 5.0345 9.78295e-19)
(6.87246 5.06463 -1.02292e-20)
(7.06091 5.09975 -1.88449e-18)
(7.28264 5.17304 -7.63116e-19)
(7.53363 5.29394 1.74449e-18)
(7.76344 5.41215 -9.47169e-19)
(7.86395 5.41737 1.27215e-18)
(7.69386 5.18553 -1.84128e-18)
(7.1353 4.64222 1.2147e-19)
(6.15016 3.80882 -1.59651e-19)
(4.88796 2.84531 3.84154e-18)
(3.59115 1.93981 -1.1617e-19)
(2.45064 1.21979 -2.47239e-18)
(1.59338 0.761169 -5.01891e-19)
(1.02472 0.547385 -7.96413e-19)
(0.661899 0.488615 -2.73996e-18)
(0.422234 0.489028 3.42367e-18)
(0.250531 0.488367 -2.7997e-18)
(0.111754 0.463671 -9.49719e-20)
(-0.0134732 0.411905 7.77094e-19)
(-0.134259 0.334617 -4.64078e-19)
(-0.254377 0.233014 3.53905e-19)
(-0.375612 0.108216 -1.43814e-19)
(-0.498715 -0.0377626 1.65024e-18)
(-0.624329 -0.201347 -1.4458e-18)
(-0.75181 -0.377854 1.04866e-19)
(-0.881749 -0.561864 6.97689e-20)
(-1.01286 -0.74469 9.03372e-20)
(-1.14305 -0.914781 -3.08045e-20)
(-1.26948 -1.06028 2.51271e-19)
(5.58204 3.7398 -3.68063e-19)
(5.67648 3.86046 1.74076e-19)
(5.76296 3.97259 -6.4723e-19)
(5.84525 4.07882 3.04568e-19)
(5.92777 4.18207 -1.48316e-19)
(6.01364 4.28304 3.25443e-20)
(6.10518 4.38123 -7.95579e-20)
(6.20412 4.47561 8.10429e-20)
(6.31183 4.56466 -9.76851e-19)
(6.42885 4.64652 5.25587e-19)
(6.55467 4.71908 7.27951e-20)
(6.68804 4.77931 -3.41804e-18)
(6.82724 4.82258 2.16478e-18)
(6.97176 4.84663 1.55788e-19)
(7.12643 4.85996 1.97665e-18)
(7.303 4.88583 -1.79997e-18)
(7.51273 4.95064 2.90916e-19)
(7.74764 5.05664 1.4217e-18)
(7.95839 5.15734 -1.52286e-18)
(8.05108 5.16167 5.77542e-19)
(7.89941 4.96569 1.87158e-19)
(7.43084 4.53487 -3.90368e-19)
(6.67236 3.91604 1.38936e-19)
(5.709 3.18817 -3.982e-19)
(4.6581 2.44625 2.57844e-18)
(3.63786 1.77734 -3.66488e-18)
(2.74906 1.24762 3.23399e-18)
(2.0503 0.888038 9.38065e-19)
(1.53856 0.682935 -1.42217e-18)
(1.17045 0.582756 -5.87607e-19)
(0.898409 0.530711 -3.45107e-19)
(0.684901 0.481815 2.34149e-18)
(0.503009 0.410516 -2.81314e-19)
(0.334439 0.308634 -2.98764e-18)
(0.168616 0.177997 6.40862e-19)
(0.00082037 0.0244834 8.60639e-19)
(-0.171132 -0.144732 -7.21151e-19)
(-0.3496 -0.32368 7.00701e-19)
(-0.53114 -0.504142 2.41089e-19)
(-0.713006 -0.676741 1.0671e-19)
(-0.8955 -0.831861 -5.32074e-19)
(5.75577 3.62248 2.71048e-19)
(5.84034 3.72696 -3.25941e-19)
(5.91804 3.82316 6.94125e-19)
(5.9914 3.91349 -3.20355e-20)
(6.06387 4.00085 6.1221e-20)
(6.13793 4.08617 2.56078e-19)
(6.21548 4.16938 -4.42494e-20)
(6.29804 4.25 6.15554e-20)
(6.38687 4.3272 2.61033e-19)
(6.48283 4.39969 -5.08245e-20)
(6.58615 4.46596 1.25528e-18)
(6.69676 4.52484 -1.73437e-18)
(6.81408 4.57467 3.01243e-18)
(6.9366 4.61236 -2.29998e-18)
(7.06277 4.63426 -1.07928e-18)
(7.19345 4.64037 -4.17702e-19)
(7.33483 4.64028 -7.14504e-19)
(7.49867 4.65447 7.43478e-19)
(7.69441 4.70377 9.0792e-20)
(7.91573 4.79028 5.43625e-19)
(8.12009 4.87581 -2.72327e-19)
(8.22693 4.89318 3.00396e-19)
(8.16678 4.78949 1.15207e-18)
(7.90576 4.54131 -1.43129e-18)
(7.44265 4.15602 7.28401e-19)
(6.80747 3.66611 7.8853e-19)
(6.05255 3.1174 9.55156e-20)
(5.24079 2.55871 -3.668e-18)
(4.4354 2.03467 8.67178e-19)
(3.69156 1.58018 1.89546e-18)
(3.04611 1.21445 -1.39661e-18)
(2.50978 0.936914 3.03635e-18)
(2.07113 0.730342 -2.86314e-18)
(1.70731 0.570015 3.98426e-19)
(1.39661 0.432771 9.89227e-19)
(1.12168 0.301059 -9.67082e-19)
(0.869352 0.163864 5.00304e-19)
(0.628555 0.0156518 -5.70544e-20)
(0.393718 -0.143421 -8.38616e-19)
(0.163007 -0.307068 -3.2464e-20)
(-0.0738141 -0.466389 8.27385e-21)
(5.91159 3.51567 1.55927e-20)
(5.98748 3.60609 -2.01855e-19)
(6.05754 3.68861 -6.52954e-20)
(6.12346 3.76544 3.55602e-19)
(6.18794 3.83929 3.13483e-21)
(6.25293 3.91116 -2.44298e-20)
(6.31993 3.98118 -2.85129e-19)
(6.39025 4.04916 1.73249e-19)
(6.46493 4.11464 -1.00763e-19)
(6.54482 4.17689 8.4579e-19)
(6.63039 4.23483 -1.77642e-19)
(6.72193 4.28751 -1.62114e-19)
(6.81958 4.33404 1.19362e-18)
(6.92298 4.37337 -4.57758e-19)
(7.03112 4.40387 -6.60505e-19)
(7.14255 4.42285 -5.60869e-19)
(7.25625 4.42766 -3.90962e-19)
(7.37378 4.41915 2.97686e-18)
(7.5014 4.40554 -3.11781e-18)
(7.64994 4.40342 1.01778e-21)
(7.82958 4.42999 1.87205e-18)
(8.02826 4.48534 -1.66442e-18)
(8.21485 4.54872 1.61554e-18)
(8.35417 4.58867 -7.0712e-19)
(8.4097 4.57333 -8.15403e-19)
(8.35323 4.47997 2.21432e-18)
(8.17009 4.29942 -8.43537e-19)
(7.86069 4.03601 1.16102e-18)
(7.43896 3.70425 -3.1723e-18)
(6.92856 3.32438 3.98134e-19)
(6.35812 2.91865 1.38836e-18)
(5.75755 2.50858 -1.82302e-19)
(5.15542 2.11282 -3.15013e-19)
(4.57298 1.74404 1.16478e-19)
(4.02552 1.40981 -4.73006e-20)
(3.5216 1.11247 2.80995e-19)
(3.06307 0.849409 -7.59669e-19)
(2.64139 0.613699 6.1189e-19)
(2.25218 0.401196 -3.24653e-19)
(1.89188 0.209384 2.98377e-19)
(1.54107 0.0388325 2.98053e-20)
(6.04431 3.42278 9.83417e-21)
(6.11271 3.50141 -4.17784e-19)
(6.17622 3.57256 4.19996e-19)
(6.23597 3.6383 -3.89255e-19)
(6.29405 3.70113 -6.67244e-20)
(6.35206 3.76201 1.76149e-19)
(6.41119 3.82114 2.40345e-19)
(6.47247 3.87852 -8.69139e-19)
(6.53681 3.93391 -6.13321e-20)
(6.60494 3.98677 1.42495e-18)
(6.67733 4.03639 -1.90027e-18)
(6.75437 4.08209 5.05998e-19)
(6.83637 4.1231 4.81284e-19)
(6.92335 4.1586 -8.23457e-19)
(7.01508 4.18786 1.9873e-18)
(7.11101 4.21005 -2.59335e-19)
(7.21013 4.22373 -5.80041e-18)
(7.31111 4.22663 4.99305e-18)
(7.41325 4.21665 -1.83656e-18)
(7.51806 4.19433 -1.32712e-18)
(7.63165 4.16627 1.73721e-18)
(7.7591 4.14531 1.77221e-18)
(7.9028 4.14222 -2.61849e-18)
(8.06225 4.16017 2.44564e-18)
(8.22805 4.19351 -6.62997e-19)
(8.38405 4.22919 6.0999e-19)
(8.51067 4.25064 -1.12559e-18)
(8.58858 4.24182 1.16008e-18)
(8.60237 4.19053 4.27567e-19)
(8.54197 4.0899 -2.18935e-18)
(8.40371 3.93875 2.59964e-19)
(8.18974 3.74078 -1.24498e-19)
(7.90736 3.50327 1.26214e-18)
(7.56517 3.23427 3.25933e-20)
(7.17447 2.94316 -7.16742e-20)
(6.74805 2.63995 -1.3277e-19)
(6.30005 2.33409 -5.06284e-20)
(5.83631 2.02995 -1.08679e-19)
(5.36665 1.73429 -3.90692e-19)
(4.90365 1.45174 3.86849e-20)
(4.43335 1.18411 6.47235e-20)
(6.15245 3.34543 1.71618e-19)
(6.21464 3.41437 3.25041e-19)
(6.27271 3.47622 -2.25165e-19)
(6.32738 3.53296 -3.85058e-19)
(6.38035 3.58686 -1.59234e-20)
(6.43293 3.6388 1.47941e-19)
(6.48608 3.68904 -1.3867e-19)
(6.54066 3.73765 2.28869e-19)
(6.59743 3.78453 5.42313e-19)
(6.65699 3.82934 -1.0251e-18)
(6.71979 3.87157 -1.3318e-18)
(6.78621 3.91071 1.58871e-18)
(6.85658 3.94618 1.42037e-18)
(6.93099 3.97725 -2.12147e-18)
(7.00943 4.00323 2.49313e-18)
(7.09174 4.02349 1.70636e-18)
(7.17762 4.03749 -1.3071e-18)
(7.26645 4.04451 -2.16244e-18)
(7.35725 4.04329 -2.77024e-19)
(7.44876 4.03187 1.75084e-18)
(7.54019 4.00829 -3.45948e-18)
(7.62973 3.97442 2.72942e-18)
(7.71882 3.93547 3.39352e-19)
(7.81322 3.89774 7.21544e-19)
(7.91767 3.86778 -1.24333e-18)
(8.03461 3.84998 6.0963e-19)
(8.16298 3.84521 -5.3832e-19)
(8.29786 3.85047 -3.73527e-19)
(8.4312 3.85967 7.37087e-19)
(8.5532 3.86511 -4.72725e-19)
(8.65368 3.85892 -2.40669e-19)
(8.72324 3.8342 9.45229e-19)
(8.75456 3.78597 -1.20893e-18)
(8.74224 3.71114 6.53556e-19)
(8.68329 3.60892 5.99983e-20)
(8.57685 3.48059 -7.64659e-19)
(8.42556 3.32946 5.46124e-19)
(8.22997 3.1572 1.1543e-19)
(7.99318 2.96807 -2.45339e-19)
(7.72461 2.76716 -7.30265e-20)
(7.41335 2.5542 -5.85714e-20)
(6.24165 3.28013 -1.0507e-19)
(6.29856 3.34095 4.06606e-20)
(6.35196 3.39504 -8.38748e-20)
(6.4023 3.44433 -1.30046e-19)
(6.451 3.49087 9.85013e-20)
(6.49912 3.53546 -2.08203e-20)
(6.54747 3.57838 6.21872e-20)
(6.59677 3.61972 -2.24036e-19)
(6.64765 3.65945 2.7738e-20)
(6.70063 3.69736 1.35512e-19)
(6.75608 3.73305 -4.87379e-19)
(6.81435 3.76617 7.80175e-19)
(6.87575 3.79627 -1.77188e-18)
(6.94042 3.82279 1.08032e-18)
(7.00839 3.84513 6.72319e-19)
(7.0796 3.86269 4.63332e-19)
(7.1539 3.8749 1.99364e-19)
(7.23105 3.88125 -3.37666e-19)
(7.31071 3.88131 -1.01215e-18)
(7.39226 3.87446 2.00624e-18)
(7.47471 3.8595 9.3945e-20)
(7.55414 3.83609 -2.19904e-18)
(7.62791 3.80459 9.91197e-19)
(7.69712 3.76566 1.11123e-18)
(7.76356 3.72132 -2.25538e-18)
(7.83004 3.67455 2.03412e-18)
(7.89971 3.62876 -1.72588e-18)
(7.97532 3.58705 7.74149e-20)
(8.05848 3.55159 5.3211e-19)
(8.14926 3.52319 1.39139e-18)
(8.24605 3.50123 -1.83299e-18)
(8.3458 3.48385 5.21157e-19)
(8.44429 3.46834 9.60392e-19)
(8.53708 3.45172 -7.57125e-19)
(8.61933 3.43098 -8.91079e-20)
(8.68619 3.40347 -2.7228e-20)
(8.73372 3.36727 1.46898e-19)
(8.75905 3.32087 -1.00667e-19)
(8.75905 3.26314 6.87101e-20)
(8.73389 3.19479 -1.19356e-19)
(8.67759 3.11386 -8.50425e-21)
(6.31618 3.22409 2.27086e-20)
(6.36845 3.27797 4.09758e-19)
(6.41773 3.3255 5.72816e-21)
(6.46426 3.36852 -2.17539e-19)
(6.50923 3.40889 5.96311e-20)
(6.55353 3.44733 -1.32305e-20)
(6.59785 3.48412 -1.68284e-19)
(6.64279 3.51936 9.20091e-20)
(6.68887 3.55308 3.47782e-19)
(6.73653 3.58511 3.67466e-20)
(6.78609 3.61516 1.40263e-19)
(6.83784 3.64295 5.5612e-19)
(6.89205 3.66813 -3.75639e-19)
(6.94887 3.69026 -7.67922e-19)
(7.00834 3.70887 6.56344e-20)
(7.07046 3.72345 -2.46729e-19)
(7.13511 3.73348 6.25851e-19)
(7.20213 3.73846 -5.96442e-19)
(7.27131 3.73791 -4.18119e-19)
(7.34236 3.73146 -1.17763e-18)
(7.41491 3.71861 1.51701e-18)
(7.48599 3.6998 7.37559e-19)
(7.55304 3.67554 -7.92415e-19)
(7.61574 3.64571 -7.70928e-19)
(7.67361 3.61038 -4.43605e-19)
(7.72662 3.56985 1.5565e-18)
(7.77533 3.52477 9.52276e-19)
(7.82086 3.47624 8.57883e-19)
(7.86467 3.42568 -1.82764e-18)
(7.9084 3.37465 5.9248e-19)
(7.95356 3.32469 -7.29389e-19)
(8.0013 3.27709 4.03691e-19)
(8.05223 3.23276 -6.37082e-19)
(8.10657 3.1922 9.95356e-19)
(8.16381 3.15547 -5.06418e-19)
(8.22283 3.12235 2.15827e-19)
(8.28183 3.09221 -4.48713e-19)
(8.33991 3.06452 3.67066e-19)
(8.39486 3.03819 -2.79412e-19)
(8.44494 3.01277 -7.69575e-21)
(8.48784 2.98723 4.79303e-20)
(6.37915 3.17538 -9.2202e-20)
(6.42729 3.22325 -3.86497e-20)
(6.47285 3.26513 -4.12845e-19)
(6.51596 3.3028 5.23606e-19)
(6.55761 3.33791 -9.4518e-20)
(6.59854 3.37113 -2.65906e-20)
(6.63936 3.40272 1.19075e-19)
(6.68056 3.4328 -2.89576e-19)
(6.72259 3.4614 1.43579e-18)
(6.7658 3.4884 -2.08435e-18)
(6.81046 3.51359 1.10361e-18)
(6.85682 3.53673 3.42873e-19)
(6.90509 3.55756 -4.12462e-19)
(6.9554 3.5757 -1.74305e-18)
(7.0078 3.59079 4.43291e-19)
(7.0623 3.6024 -1.02869e-18)
(7.11881 3.6101 3.3122e-18)
(7.17721 3.61347 -9.08718e-19)
(7.23731 3.61206 -1.97379e-19)
(7.29886 3.60545 6.51811e-19)
(7.36159 3.59318 -3.16177e-18)
(7.42321 3.57578 1.91884e-18)
(7.48185 3.554 1.15228e-18)
(7.53745 3.52815 -1.07808e-18)
(7.58959 3.49853 -2.78224e-19)
(7.63786 3.46539 9.70033e-19)
(7.68192 3.42888 -1.57663e-18)
(7.7216 3.38916 1.12673e-18)
(7.75689 3.34645 9.74663e-19)
(7.78802 3.30111 -7.09573e-19)
(7.81542 3.25364 -1.23691e-18)
(7.8397 3.20467 1.13772e-19)
(7.86157 3.15491 6.29678e-19)
(7.88184 3.10508 2.88312e-19)
(7.90127 3.0559 -7.41795e-19)
(7.92051 3.00818 7.77766e-19)
(7.93991 2.96252 -4.96473e-19)
(7.96018 2.91937 2.20478e-19)
(7.98142 2.87903 6.52192e-20)
(8.00387 2.84198 -1.89877e-19)
(8.0267 2.80832 -2.46695e-20)
(6.4328 3.1326 -2.52495e-19)
(6.4772 3.17521 2.85053e-19)
(6.51938 3.2122 2.31469e-19)
(6.55937 3.24525 1.34974e-19)
(6.59799 3.27584 -6.75516e-20)
(6.6359 3.30458 -1.3869e-19)
(6.67359 3.33172 4.72348e-19)
(6.7115 3.35738 -1.47223e-18)
(6.74999 3.38161 1.99019e-18)
(6.78937 3.40432 -1.01613e-18)
(6.82984 3.42532 -1.64166e-18)
(6.87161 3.44445 4.42714e-19)
(6.91485 3.46146 2.1376e-18)
(6.95966 3.47608 1.14035e-18)
(7.00608 3.48799 -2.03803e-18)
(7.0541 3.49685 1.53889e-18)
(7.10366 3.5023 -1.20786e-18)
(7.15466 3.504 -2.93677e-19)
(7.20693 3.50157 3.48242e-19)
(7.26025 3.49466 -1.64108e-18)
(7.31437 3.48283 4.11007e-18)