/*--------------------------------*- C++ -*----------------------------------*\
| =========                 |                                                 |
| \\      /  F ield         | OpenFOAM: The Open Source CFD Toolbox           |
|  \\    /   O peration     | Version:  2312                                  |
|   \\  /    A nd           | Website:  www.openfoam.com                      |
|    \\/     M anipulation  |                                                 |
\*---------------------------------------------------------------------------*/
FoamFile
{
    version     2.0;
    format      ascii;
    arch        "LSB;label=32;scalar=64";
    class       volScalarField;
    location    "600";
    object      div(phi);
}
// * * * * * * * * * * * * * * * * * * * * * * * * * * * * * * * * * * * * * //

dimensions      [0 0 -1 0 0 0 0];

internalField   nonuniform List<scalar> 
11040
(
0.000965881
-6.94556e-05
0.00716693
0.0102545
0.00393282
0.0013868
0.00585574
0.00892841
0.00493217
0.00982478
0.00601749
0.00253027
0.0208763
0.00401732
0.00826641
-0.00297202
0.012513
-0.00565325
0.00977485
-0.0063055
0.00839903
0.0152112
0.0179852
0.0164054
-0.00748783
0.00305196
-0.00929403
-0.000478995
-0.00475857
-0.000898774
-0.0012749
0.000767277
-0.0010227
0.0031675
-0.00432944
0.00486708
-0.00467849
-0.0016879
-0.0108626
0.0207712
0.0111259
-0.000149731
0.000794586
0.00253994
0.00484503
0.00618414
0.00777398
0.0108428
0.0109352
0.00972251
0.0108488
0.0109812
0.0128492
0.0176967
0.0118073
0.0151033
0.00943772
0.0165808
0.00476319
0.0147473
-0.00225638
0.00805463
0.0125195
0.0146536
0.0109509
-0.00438769
-0.00248948
-0.00942409
-0.00578485
-0.00624448
-0.00306557
-0.000317213
0.00258289
0.00466983
0.00775123
0.00542525
0.00848917
0.00140431
0.00376048
0.000985124
0.013403
0.00473976
0.000374627
-0.000492549
0.000684231
0.000868573
0.000557693
0.00145613
0.0029962
0.00303861
0.00109658
0.00194588
0.000681343
8.52671e-05
0.00485478
0.000856833
0.000456017
-0.00312583
0.000419654
-0.002873
-0.000581186
-0.00287004
0.00116339
0.00303701
0.0032945
0.00358579
-0.00212194
0.00127602
-0.00179824
0.000633954
-0.000457578
0.000217923
0.000122449
-4.80852e-05
-0.000552732
-0.000265229
-0.00180442
-8.44639e-05
-0.00071117
-0.000664502
-0.00361633
0.00246482
-0.00324402
-0.000261387
-7.47136e-05
0.00032169
0.00021557
0.000565089
0.00125438
0.0027837
0.00373576
0.00439002
0.00508569
0.0047734
0.00607943
0.00725302
0.00684958
0.0065808
0.0061706
0.00680377
0.00482826
0.00514444
0.00153879
0.00406021
0.00607893
0.00582549
0.00375423
-0.00138351
-0.00178312
-0.00364048
-0.00267326
-0.00248094
-0.00101813
3.43277e-05
0.00147253
0.0020888
0.0031215
0.00234412
0.0028745
0.000758875
0.000290703
-0.00123044
-0.000722346
-0.00452818
-0.000462084
-5.56969e-05
0.000193061
0.00056645
0.000451993
0.00052437
0.00066738
0.00117539
0.00177985
0.00185192
0.00129373
0.00100775
0.00227136
0.0017175
0.00126442
0.000157018
0.000518546
-0.000105144
-0.00100124
-0.000665071
0.000105695
0.000994976
0.00107464
0.000412187
-0.000429644
-0.00028865
-0.000446199
-0.000156318
-6.9168e-05
8.28012e-05
0.000283607
0.000202454
0.00030641
-2.07079e-05
9.19619e-05
-0.000245791
0.000516817
-0.000800177
-0.00095815
-0.00124014
-0.00282431
0.000704008
-0.000194731
0.000380752
-0.000118263
-1.10603e-05
0.000127054
0.000158506
0.000336744
0.000616226
0.00094598
0.000993717
0.00205677
0.00323635
0.00329013
0.00327385
0.00325397
0.00368768
0.00288684
0.00272241
0.00191118
0.00300666
0.0030808
0.00289299
0.00123062
-0.000109406
-0.000991782
-0.0011067
-0.001058
-0.000709875
-0.000258147
0.000197198
0.000570955
0.000769827
0.000733855
0.000541872
0.000186913
-0.000426143
-0.00147288
-0.00235756
-0.00326158
-0.00431542
-0.000507255
8.33653e-05
-0.000563498
-0.000159685
0.000196535
0.000198434
0.000378014
0.000398907
0.000505517
0.000495299
0.00081794
0.00155242
0.00180987
0.00195181
0.00135962
0.00137859
0.000950012
0.00100798
0.000215484
0.000560347
0.000499766
0.000904547
0.000400395
0.000124343
-0.000427809
-0.000292873
-0.000434004
-0.000195501
-0.000152171
8.7402e-05
0.000152846
0.000316977
0.000182221
0.00022175
-0.000109839
-0.000103723
-0.000491044
-0.000946977
-0.00174691
-0.00230136
-0.00308321
0.000388669
-0.00039783
-0.000417016
0.000317997
8.46318e-05
0.000513956
0.000230716
0.00028216
4.06127e-05
0.000124745
3.40726e-06
-2.09277e-06
0.000675639
0.0007691
0.000903842
0.0010702
0.00123225
0.00111562
0.000934157
0.00131509
0.00149411
0.00160647
0.00105389
0.000476285
2.04027e-05
-0.000181505
-0.0004516
-0.000194772
-0.00030233
5.38512e-05
-2.75541e-05
0.000196773
3.21652e-05
2.86275e-05
-0.00018283
-0.000291359
-0.00060758
-0.00107307
-0.00144889
-0.00182528
-0.00179887
1.0929e-05
-0.000626322
0.000370851
-0.00022427
0.000590959
2.79144e-05
0.000204947
-0.000201719
1.3393e-05
-0.000216597
-0.000248418
0.00018503
0.000223532
0.000549072
0.000809786
0.000863294
0.000853608
0.000555723
0.000666091
0.000531392
0.000829139
0.000615821
0.000451232
5.80797e-05
-0.000101935
-0.000411933
-0.000144605
-0.000331812
3.20499e-05
-0.000135995
0.000164537
-7.88594e-05
4.34553e-05
-0.000277499
-0.000312847
-0.00064157
-0.000865788
-0.00129001
-0.00161696
-0.00182773
-0.00194477
-0.000266207
0.000211898
-0.000234623
0.000499882
2.25659e-05
0.000220624
-0.000164871
2.23274e-05
-0.000134148
-0.000180766
0.000147019
-2.36111e-06
0.000240104
0.000176072
0.000118147
-5.19955e-06
1.73887e-06
-0.000314677
1.15102e-05
0.000285967
0.000477887
0.000427913
0.000261762
-1.70527e-05
-0.000190434
0.000233106
-0.00062005
0.000138891
-0.000386031
0.000161341
-0.000240675
8.5739e-05
-0.000303983
-0.000116204
-0.000507308
-0.000393773
-0.000830197
-0.000860025
-0.00122588
-0.001267
-0.00136162
-1.72879e-06
2.22233e-05
0.00020202
0.000186901
0.000228275
0.00010693
0.000111863
9.84781e-05
2.41448e-05
0.000206875
-9.98294e-06
0.000166521
1.94717e-05
-4.29665e-05
-0.00020606
-0.000141452
-0.000456183
-0.000114365
-0.000188566
0.000233026
0.000232899
0.00027221
3.02503e-05
-7.87631e-05
0.000422461
-0.000404328
0.000242718
-0.000532146
7.5754e-05
-0.000370845
4.48254e-05
-0.000327049
3.32872e-05
-0.000382463
3.87147e-05
-0.000439785
-3.08911e-05
-0.000492037
-0.000194813
-0.000344391
-0.000274275
8.29684e-05
7.87993e-05
0.000170195
0.000195803
0.000235185
0.000226825
0.000230742
0.000217963
0.000251313
0.000144797
0.000184881
5.29529e-05
-1.76815e-05
-0.000146349
-0.000109361
-0.000258678
-8.44803e-05
-0.000287541
-8.27017e-05
-0.000165077
-1.11142e-05
-0.000187962
-0.000144047
3.90756e-05
0.000168041
0.000114457
-0.000124975
-0.0002647
-0.000203363
-0.000280629
-0.000200945
-0.000160595
-0.000244079
5.22093e-06
-0.00024816
0.000136584
-0.000182914
0.000158244
3.504e-05
2.52535e-05
0.000360935
8.67302e-05
6.65135e-05
0.000128139
0.000125174
0.000178811
0.000173325
0.000199867
0.000210855
0.000216878
0.000200473
0.000153024
7.78577e-05
1.50877e-05
-1.43325e-05
-7.12964e-05
-2.34716e-05
-0.000214209
-9.45605e-05
-0.000238646
-0.000101918
-0.000292033
-0.00012095
-0.000429707
0.000411207
-0.000269605
0.000611065
-0.000645201
0.000267443
-0.000694182
0.000106207
-0.00054329
-1.09102e-06
-0.000376625
-6.93977e-05
-0.000269344
-9.19408e-05
-0.000188901
-9.18697e-05
-0.000225532
-9.77606e-05
-0.000258768
6.59648e-05
2.94091e-05
8.82581e-05
5.77165e-05
0.000114551
9.19595e-05
0.000132183
0.000121517
0.000141042
0.000163137
0.000134242
0.000129821
0.000101072
7.02218e-05
6.7447e-05
-7.11296e-05
-6.70995e-06
-0.000165285
-6.41286e-05
-0.000188813
-4.22968e-05
-0.000270751
0.000139486
-0.000277028
0.000604592
-0.00041948
0.000494554
-0.000591487
0.000308444
-0.000590856
0.000176363
-0.000541458
7.96211e-05
-0.000548903
-8.99521e-06
-0.000484559
-0.000168763
-0.000369604
-0.00046027
-0.000109327
-0.000958294
4.19566e-05
1.19477e-05
5.67793e-05
2.61522e-05
7.31875e-05
4.42167e-05
7.99385e-05
6.53073e-05
8.37322e-05
8.88565e-05
8.25315e-05
0.00010415
7.38117e-05
8.76976e-05
6.75136e-05
5.85387e-05
-6.20897e-06
-1.27394e-05
-4.06197e-05
-9.39185e-06
-3.94335e-05
3.09201e-07
-2.38472e-05
0.000151767
4.3328e-05
0.000187164
1.14357e-05
0.0001349
-4.35398e-05
7.1686e-05
-8.55326e-05
2.16011e-05
-0.000175274
-3.12838e-05
-0.00023632
-9.7245e-05
-0.000242535
-0.000196176
-0.000166304
-0.000386725
2.10325e-05
2.73354e-05
2.06703e-06
3.46525e-05
1.05658e-05
4.25221e-05
1.88786e-05
4.28976e-05
2.71004e-05
3.67538e-05
4.19997e-05
3.10676e-05
5.66721e-05
2.72391e-05
6.95442e-05
2.80334e-05
7.29265e-05
2.72561e-05
5.6769e-05
2.29016e-05
5.23832e-05
1.90701e-05
7.15879e-05
2.50842e-05
0.000122951
4.9228e-05
0.000161633
5.68737e-05
0.000174382
6.17134e-05
0.000179008
6.57394e-05
0.000155483
5.60209e-05
9.90186e-05
6.32917e-05
2.77217e-05
0.000119811
-0.000126714
0.000242869
-0.000333249
0.000316566
1.33843e-05
-2.44689e-06
1.50185e-05
-9.34516e-08
1.52117e-05
3.82226e-06
1.08174e-05
7.76009e-06
2.25588e-06
1.48866e-05
-5.46406e-06
2.7561e-05
-1.0072e-05
4.09821e-05
-1.04521e-05
5.35099e-05
-6.97265e-06
5.7467e-05
-4.454e-06
6.28149e-05
-7.59751e-06
7.43805e-05
-6.90788e-06
9.92021e-05
-2.68105e-06
0.000129461
2.44343e-06
0.000157463
1.40332e-05
0.000170636
3.80854e-05
0.000158954
6.96567e-05
0.000119064
0.000118827
3.72623e-05
0.000203977
-0.000101278
0.000279356
-0.00025714
0.000437745
4.84922e-06
-1.44398e-06
4.02105e-06
-4.81975e-07
2.83749e-06
1.77882e-07
-1.39443e-06
-1.13806e-06
-9.42792e-06
-2.11592e-06
-1.6967e-05
8.54736e-08
-2.27474e-05
4.90708e-06
-2.61907e-05
1.05155e-05
-2.65808e-05
1.32582e-05
-2.64342e-05
1.66045e-05
-2.87185e-05
2.17411e-05
-3.27176e-05
3.14995e-05
-3.72799e-05
4.32131e-05
-4.67028e-05
5.51491e-05
-6.17634e-05
6.7875e-05
-7.34485e-05
7.48478e-05
-6.6248e-05
6.35213e-05
-2.64782e-05
2.48327e-05
3.91543e-05
-7.29196e-05
0.000154162
-0.000233732
0.000167505
-1.78405e-06
-5.64752e-07
-5.46611e-06
-4.85049e-06
-9.5357e-06
-7.71179e-06
-1.50849e-05
-1.14798e-05
-2.20255e-05
-1.51978e-05
-2.68518e-05
-1.55327e-05
-2.95332e-05
-1.48925e-05
-3.04528e-05
-1.37925e-05
-3.03962e-05
-1.43788e-05
-2.91916e-05
-1.23108e-05
-2.74125e-05
-7.94114e-06
-2.51837e-05
1.82342e-06
-2.2725e-05
1.5881e-05
-2.38239e-05
3.48626e-05
-3.24042e-05
5.68991e-05
-4.35455e-05
7.73488e-05
-5.15582e-05
8.23144e-05
-4.91816e-05
4.07934e-05
-3.10614e-05
-4.75093e-05
-5.96102e-05
-0.000123048
1.76038e-05
5.40346e-06
-9.85386e-06
3.87785e-06
-1.61743e-05
-4.71206e-06
-1.88887e-05
-1.22044e-05
-2.28111e-05
-1.9501e-05
-2.62227e-05
-2.44035e-05
-2.79114e-05
-2.70677e-05
-2.79167e-05
-2.86099e-05
-2.84919e-05
-2.86252e-05
-2.72987e-05
-2.66793e-05
-2.34448e-05
-2.41371e-05
-1.01552e-05
-2.20194e-05
1.11221e-05
-1.84447e-05
4.43893e-05
-1.43792e-05
8.07617e-05
-1.23816e-05
0.000117292
-9.11765e-06
0.000133881
-7.91297e-06
0.0001291
-1.02916e-05
0.000114887
-1.14803e-05
7.42338e-05
4.23696e-05
-9.35927e-06
8.83416e-06
-4.84622e-07
1.56366e-05
-1.90556e-05
1.07191e-05
-3.00931e-05
7.79892e-06
-3.99984e-05
5.0442e-06
-4.77653e-05
1.5203e-06
-5.41775e-05
-7.48682e-07
-5.52481e-05
-1.19795e-06
-5.8469e-05
1.59784e-06
-5.95091e-05
7.61117e-06
-6.42001e-05
1.84618e-05
-6.73296e-05
3.69003e-05
-8.25486e-05
6.42281e-05
-9.34239e-05
9.92787e-05
-0.000115726
0.000134519
-0.000132511
0.000168974
-0.00017133
0.00019887
-0.000216509
0.00021264
-0.000254075
0.000200337
-0.000279634
0.000128315
-0.000297988
9.48837e-06
-0.000252536
1.15588e-06
3.13308e-06
4.78806e-06
-8.50165e-06
-1.90304e-06
-1.45497e-05
-5.4423e-06
-1.9598e-05
-7.72279e-06
-2.3679e-05
-9.55141e-06
-2.58204e-05
-8.82709e-06
-2.61179e-05
-6.92822e-06
-2.55556e-05
-3.42279e-06
-2.49713e-05
6.13626e-07
-2.47503e-05
8.62188e-06
-2.81522e-05
2.04616e-05
-3.16926e-05
3.43589e-05
-4.24704e-05
4.44057e-05
-5.00716e-05
5.23547e-05
-7.89396e-05
6.97487e-05
-0.00011741
8.08708e-05
-0.000139099
0.000119064
-0.000197356
0.000133243
-0.00017412
9.71765e-05
-0.000233756
3.38065e-05
1.11439e-07
1.53643e-05
-5.69573e-06
8.66853e-06
-1.44863e-05
5.59629e-08
-1.6857e-05
-6.5081e-06
-1.79279e-05
-1.20606e-05
-1.82126e-05
-1.55012e-05
-1.6526e-05
-1.70555e-05
-1.40768e-05
-1.71997e-05
-1.16807e-05
-1.68038e-05
-9.93255e-06
-1.75463e-05
-4.92453e-06
-2.26416e-05
1.6383e-06
-3.01853e-05
9.16549e-06
-4.36726e-05
1.87653e-05
-6.60921e-05
3.96551e-05
-8.49591e-05
5.63176e-05
-0.000139588
0.000105599
-0.000167508
0.000141718
-0.000188197
0.000144999
-0.000253343
0.000100066
-0.000296893
1.43195e-05
7.79315e-06
3.49461e-06
2.26041e-05
-1.74391e-05
1.66801e-05
-3.09385e-05
1.51154e-05
-4.19555e-05
1.5838e-05
-5.03558e-05
1.71624e-05
-5.94381e-05
1.96282e-05
-6.30265e-05
2.28243e-05
-6.98906e-05
2.72393e-05
-7.32368e-05
3.1514e-05
-8.23705e-05
3.53657e-05
-9.27727e-05
4.07117e-05
-0.000114417
4.46836e-05
-0.000136583
4.78991e-05
-0.000171177
5.58311e-05
-0.000225819
7.69123e-05
-0.000250835
0.000114944
-0.000286219
0.000171504
-0.000296202
0.000212511
-0.000286405
0.000190955
-0.000319681
9.71933e-05
3.7169e-06
1.07296e-05
5.45147e-06
7.37369e-06
-8.27899e-06
-8.03315e-07
-1.52721e-05
-4.59603e-06
-2.17365e-05
-6.29569e-06
-2.69304e-05
-6.80794e-06
-3.18263e-05
-5.75357e-06
-3.50261e-05
-4.00564e-06
-3.81274e-05
-1.88579e-06
-4.11909e-05
7.37808e-07
-4.62564e-05
5.91035e-06
-5.86703e-05
1.07393e-05
-7.15645e-05
1.44446e-05
-9.25315e-05
1.84874e-05
-0.000131019
2.30675e-05
-0.00014931
4.69718e-05
-0.00017964
7.30673e-05
-0.000184162
0.000109901
-0.000183186
0.000118343
-0.000208721
8.52095e-05
-0.000226723
1.52232e-06
8.39426e-06
1.72326e-05
-4.83227e-06
8.84431e-06
-1.31334e-05
-9.17681e-08
-1.76892e-05
-7.44891e-06
-1.67879e-05
-1.43361e-05
-1.84198e-05
-2.06801e-05
-1.48486e-05
-2.56856e-05
-1.47498e-05
-2.99357e-05
-1.0875e-05
-3.38768e-05
-8.89101e-06
-4.02183e-05
-1.71406e-06
-5.30589e-05
4.68456e-06
-6.87992e-05
1.35284e-05
-8.55165e-05
1.62217e-05
-0.000115702
2.89495e-05
-0.000123532
4.36181e-05
-0.000138303
6.38467e-05
-0.000135111
8.28412e-05
-0.000135962
9.04986e-05
-0.000156851
8.0183e-05
-0.000171131
-1.67184e-06
1.19038e-05
1.02617e-06
2.12104e-05
-1.48633e-05
1.67309e-05
-2.91702e-05
1.66159e-05
-3.92752e-05
1.89669e-05
-5.07646e-05
2.19026e-05
-5.91568e-05
2.46422e-05
-6.77601e-05
2.68179e-05
-7.39457e-05
2.85695e-05
-8.16043e-05
3.04905e-05
-9.17843e-05
3.30611e-05
-0.000104844
3.43981e-05
-0.000119373
3.4799e-05
-0.000137733
3.60124e-05
-0.000141653
4.00471e-05
-0.000149347
4.98149e-05
-0.000139806
5.90173e-05
-0.000135991
6.69798e-05
-0.0001391
6.52839e-05
-0.000149324
5.63569e-05
-0.000160014
6.4584e-08
6.80292e-06
1.21018e-05
4.23872e-06
7.60265e-06
-5.83008e-06
1.15781e-06
-1.26007e-05
-1.13049e-06
-1.77469e-05
-1.70951e-06
-2.38593e-05
-1.4359e-06
-2.92066e-05
-9.30007e-07
-3.57725e-05
-1.79017e-06
-4.12207e-05
-3.66891e-06
-5.21747e-05
-3.81535e-06
-6.02509e-05
-5.39152e-06
-7.74901e-05
-9.22387e-06
-9.61522e-05
-1.22013e-05
-0.000103352
-9.8717e-06
-0.000115979
-6.81496e-06
-0.000116217
3.92245e-06
-0.000112018
9.83289e-06
-0.000112849
1.2004e-05
-0.000114068
9.53233e-06
-0.000123824
1.69709e-05
-1.79279e-06
3.44013e-06
2.73151e-06
1.38193e-05
-3.94702e-06
7.79487e-06
-9.67881e-06
1.5004e-06
-1.07813e-05
-4.13482e-06
-9.79686e-06
-1.03336e-05
-7.53556e-06
-1.69727e-05
-8.22064e-06
-2.42377e-05
-7.12609e-06
-3.13773e-05
-8.33646e-06
-3.92882e-05
-8.51263e-06
-5.07897e-05
-9.50117e-06
-6.48502e-05
-1.20131e-05
-7.86071e-05
-1.02601e-05
-8.19817e-05
-5.05632e-06
-8.57362e-05
3.02762e-06
-7.93557e-05
1.00717e-05
-7.68859e-05
9.77276e-06
-8.01001e-05
4.81428e-06
-8.35652e-05
-1.02197e-06
-9.07022e-05
2.70972e-06
-8.23872e-07
-2.75476e-06
1.04822e-05
-3.33554e-06
1.58992e-05
-1.29144e-05
1.44572e-05
-2.30548e-05
1.66945e-05
-3.06435e-05
1.97414e-05
-3.90451e-05
2.2222e-05
-4.88507e-05
2.33739e-05
-5.53501e-05
2.2698e-05
-6.16471e-05
2.07498e-05
-6.97396e-05
1.77602e-05
-7.77992e-05
1.46739e-05
-8.58474e-05
1.38822e-05
-9.00235e-05
1.6362e-05
-8.80485e-05
2.28864e-05
-8.03902e-05
2.73173e-05
-7.51442e-05
2.72823e-05
-7.66993e-05
1.9377e-05
-7.94104e-05
1.05216e-05
-8.37862e-05
1.49108e-06
-8.328e-05
-3.61463e-06
-3.72703e-06
-1.18198e-07
-9.95954e-07
7.97903e-06
5.06712e-08
4.30455e-06
-5.50447e-06
9.78657e-07
-1.0169e-05
-1.2321e-07
-1.42329e-05
-1.27563e-06
-2.18862e-05
-1.17674e-06
-2.73447e-05
-3.70712e-06
-3.46362e-05
-7.51191e-06
-4.42316e-05
-8.55074e-06
-5.11592e-05
-1.24911e-05
-6.12253e-05
-1.51133e-05
-7.34023e-05
-1.06383e-05
-6.96702e-05
-3.81102e-06
-6.6816e-05
3.73443e-06
-6.48265e-05
7.31557e-06
-6.52441e-05
7.33928e-06
-6.88425e-05
2.79511e-06
-7.17135e-05
-6.3572e-07
-7.66636e-05
-8.68071e-06
-7.56043e-05
-1.19383e-06
-5.17799e-06
3.33686e-06
-3.44809e-06
7.44933e-06
-5.34991e-06
3.49467e-06
-8.18833e-06
-1.03426e-06
-8.02881e-06
-6.50126e-06
-7.59037e-06
-1.25882e-05
-8.67231e-06
-2.00337e-05
-8.15586e-06
-2.86189e-05
-9.09007e-06
-3.27008e-05
-1.26412e-05
-4.24726e-05
-1.50093e-05
-5.58528e-05
-1.62078e-05
-5.88529e-05
-1.42048e-05
-6.42444e-05
-8.70078e-06
-6.27133e-05
-1.47312e-06
-6.06582e-05
3.02968e-06
-6.21332e-05
3.28363e-06
-6.49592e-05
9.99722e-07
-6.95518e-05
-6.91252e-07
-7.15834e-05
-4.68621e-06
-7.38735e-05
-4.65599e-06
-7.01367e-08
-8.04273e-06
7.03958e-06
-7.34445e-06
9.27236e-06
-1.19617e-05
9.14045e-06
-1.83738e-05
1.02031e-05
-2.43736e-05
1.12272e-05
-3.20738e-05
1.21728e-05
-3.68646e-05
1.06238e-05
-4.13432e-05
8.48482e-06
-4.8537e-05
5.32834e-06
-5.07149e-05
2.30374e-06
-5.63779e-05
2.74299e-06
-5.73496e-05
7.6695e-06
-5.3671e-05
1.56552e-05
-4.40461e-05
2.38002e-05
-4.10836e-05
2.65589e-05
-4.1857e-05
2.56027e-05
-4.55154e-05
2.10959e-05
-5.07008e-05
1.93069e-05
-5.21462e-05
1.43437e-05
-5.34679e-05
-6.98174e-07
-6.5586e-06
1.35344e-06
-5.68343e-06
4.15738e-06
-6.38746e-07
1.08177e-06
-4.59402e-06
-1.04184e-06
-8.45858e-06
-2.20514e-06
-1.32609e-05
-2.47401e-06
-1.762e-05
-4.75294e-06
-2.23656e-05
-5.50202e-06
-2.96254e-05
-7.09869e-06
-3.08393e-05
-1.13386e-05
-3.91854e-05
-1.19169e-05
-4.313e-05
-8.75503e-06
-4.01449e-05
-4.61375e-06
-4.01029e-05
1.17109e-06
-3.81443e-05
5.10933e-06
-3.9548e-05
7.30967e-06
-4.15261e-05
5.80946e-06
-4.50893e-05
2.55575e-06
-4.89642e-05
-6.94574e-07
-5.43372e-05
2.89685e-06
-4.17793e-06
4.52906e-07
-7.19363e-06
2.99891e-06
6.57595e-07
-3.87589e-08
8.37284e-07
-3.40089e-06
-1.15515e-06
-6.75407e-06
-2.4089e-06
-1.00498e-05
-4.08239e-06
-1.4621e-05
-2.75247e-06
-1.80948e-05
-5.03846e-06
-1.98797e-05
-7.959e-06
-2.73386e-05
-7.09202e-06
-2.7811e-05
-4.42247e-06
-2.32874e-05
2.26698e-06
-2.17169e-05
1.09827e-05
-1.26504e-05
1.92218e-05
-9.36413e-06
2.32122e-05
-1.03374e-05
2.35973e-05
-1.44786e-05
2.08286e-05
-1.935e-05
1.67087e-05
-2.37646e-05
1.48584e-05
-2.94295e-05
1.92636e-05
7.66443e-09
-5.75912e-06
2.00783e-06
-3.60715e-06
-2.43622e-07
2.9794e-06
-2.78116e-06
3.32083e-07
-4.15979e-06
-2.81983e-06
-4.6183e-06
-6.71158e-06
-3.76866e-06
-9.43864e-06
-5.16428e-06
-1.32288e-05
-5.3979e-06
-1.84716e-05
-6.18102e-06
-1.87642e-05
-4.68956e-06
-1.88777e-05
8.73978e-07
-1.65564e-05
1.01083e-05
-7.24892e-06
1.85736e-05
-2.69054e-06
2.37204e-05
-2.33589e-06
2.44537e-05
-6.04678e-06
2.37351e-05
-1.03973e-05
1.96882e-05
-1.45893e-05
1.65608e-05
-1.97143e-05
1.58839e-05
-2.19692e-05
2.01967e-05
-3.52302e-06
1.2729e-06
-5.30307e-06
3.75017e-07
2.38618e-06
-4.13889e-06
3.83252e-06
-5.95071e-06
3.39187e-06
-8.80903e-06
3.4007e-06
-1.09286e-05
3.08938e-06
-1.40268e-05
2.76483e-06
-1.50251e-05
9.29342e-07
-1.67816e-05
7.65908e-07
-1.73495e-05
2.70225e-06
-1.47106e-05
7.37379e-06
-9.41909e-06
1.22516e-05
-7.48524e-06
1.52058e-05
-7.74074e-06
1.60485e-05
-1.18635e-05
1.60252e-05
-1.65554e-05
1.48441e-05
-2.32877e-05
1.17581e-05
-2.93207e-05
7.12543e-06
-3.64446e-05
3.87536e-06
-4.26483e-05
5.43048e-06
2.33472e-07
-4.3188e-06
1.86354e-06
-2.38713e-06
-1.73417e-06
2.14771e-06
-9.26867e-07
2.37426e-07
-2.40664e-06
-4.87446e-07
-3.75181e-06
-7.39759e-07
-5.65571e-06
-7.17844e-07
-7.05614e-06
-2.59241e-06
-9.51658e-06
-3.01058e-06
-1.14969e-05
-2.50682e-06
-9.78907e-06
-1.28841e-06
-1.0843e-05
9.9982e-07
-1.05971e-05
2.64531e-06
-1.16975e-05
3.79948e-06
-1.36849e-05
4.16405e-06
-1.63106e-05
4.53663e-06
-1.97965e-05
3.79105e-06
-2.38671e-05
2.71272e-06
-2.85198e-05
3.32926e-06
-3.37295e-05
1.13167e-06
-3.60909e-05
-2.67126e-06
1.57532e-06
-3.74609e-06
6.94819e-07
8.83066e-07
-3.32731e-07
-1.28467e-07
-1.82448e-07
-1.26648e-06
-3.81146e-07
-2.16941e-06
-3.02453e-07
-2.85814e-06
-1.25608e-06
-4.67063e-06
-6.17304e-07
-5.50339e-06
-1.13293e-06
-4.54519e-06
4.84265e-07
-5.11354e-06
3.17509e-06
-2.09922e-06
6.31287e-06
-1.13871e-06
7.88752e-06
-1.29513e-06
8.59907e-06
-2.82435e-06
8.68039e-06
-4.25796e-06
8.68238e-06
-6.64525e-06
8.27568e-06
-8.6949e-06
7.93405e-06
-1.13311e-05
9.68239e-06
-1.36756e-05
1.13899e-05
-1.51319e-05
3.61978e-07
-2.97448e-06
1.76715e-06
-1.46312e-06
-5.26293e-07
2.40346e-07
8.0803e-08
-6.07262e-07
-8.20018e-07
-4.64771e-07
-1.50374e-06
-3.58234e-07
-2.61938e-06
1.84023e-07
-2.97996e-06
-5.80824e-07
-3.47012e-06
3.36575e-07
-3.87077e-06
1.39595e-06
-1.48699e-06
3.01992e-06
-6.27532e-07
4.11787e-06
-2.50218e-07
4.53509e-06
-1.29188e-06
4.2645e-06
-2.52266e-06
3.77776e-06
-5.33262e-06
3.37733e-06
-7.82774e-06
2.85427e-06
-1.13814e-05
2.45743e-06
-1.50619e-05
3.60573e-06
-1.83873e-05
3.80214e-06
-2.17874e-05
-1.74791e-06
1.08537e-06
-2.25772e-06
8.19995e-07
-1.93027e-07
4.69605e-07
-1.34989e-06
2.38114e-07
-1.25028e-06
-5.43101e-08
-1.08293e-06
-3.39808e-07
-2.49675e-07
-9.5513e-07
-2.12136e-07
-1.33648e-06
8.44234e-07
-2.19277e-06
9.94088e-07
-2.54136e-06
-1.27137e-07
-2.84074e-06
-7.42175e-07
-2.31929e-06
-9.46504e-07
-1.27582e-06
-9.37795e-07
1.17284e-07
-1.53591e-07
2.22383e-06
5.00325e-07
4.69661e-06
1.44237e-06
7.14248e-06
1.54134e-06
9.38278e-06
1.38431e-06
1.27901e-05
1.69318e-06
1.58163e-05
-3.95063e-07
8.78944e-08
-1.64043e-06
9.72299e-07
-7.38779e-07
2.48163e-07
-4.21619e-07
3.44512e-07
-5.32261e-07
-3.01977e-07
-6.75763e-07
-3.45269e-07
-4.16925e-07
-2.8207e-07
-2.20771e-07
-4.43924e-08
8.99862e-07
-7.45276e-07
1.42504e-06
-9.65514e-07
1.3337e-06
-1.59979e-06
3.06473e-06
-2.23959e-06
1.80053e-06
-3.02788e-06
1.35803e-06
-3.2583e-06
1.16585e-06
-3.02747e-06
6.46411e-07
-2.29841e-06
2.08314e-07
-1.10149e-06
-9.30323e-07
-5.39111e-07
-1.64332e-06
-6.44115e-07
-3.15805e-06
2.02964e-07
-5.12545e-06
3.62943e-06
-8.75427e-07
2.03523e-07
-7.38392e-07
5.14425e-07
2.70401e-07
4.3514e-07
-1.00706e-07
-2.19775e-07
-3.64264e-07
-3.91402e-07
-2.45593e-07
2.3798e-08
5.47866e-08
1.19079e-06
-1.23108e-07
2.18233e-06
4.60035e-07
4.29158e-06
2.65292e-07
6.43176e-06
9.46261e-07
7.70521e-06
1.76844e-06
1.02977e-05
3.01184e-06
1.13681e-05
3.89331e-06
1.25869e-05
4.94397e-06
1.27638e-05
6.2168e-06
1.33072e-05
7.94566e-06
1.30408e-05
9.17386e-06
1.36559e-05
9.85114e-06
1.33072e-05
1.17976e-05
1.27037e-05
1.33551e-05
-1.84121e-07
-3.3279e-07
3.7213e-07
2.9672e-07
3.45272e-07
1.84348e-07
1.9844e-07
-2.17565e-07
-2.71532e-07
-2.17391e-07
-3.75927e-07
4.25022e-07
-4.65871e-07
1.4638e-06
-4.41395e-07
3.35456e-06
-9.81592e-07
5.0202e-06
-6.34123e-07
7.15054e-06
-3.56449e-07
9.76353e-06
4.08092e-07
1.11242e-05
7.00583e-07
1.22686e-05
9.73467e-07
1.22048e-05
1.02551e-06
1.2461e-05
1.35881e-06
1.18089e-05
1.79965e-06
1.19655e-05
2.14715e-06
1.17096e-05
2.50174e-06
1.24874e-05
4.78127e-06
1.2251e-05
6.51193e-06
-8.93017e-07
-3.29661e-07
-2.28488e-08
1.43279e-07
5.29341e-07
2.9151e-07
8.7716e-09
5.91362e-08
-4.01905e-07
5.68412e-08
-4.83444e-07
6.27678e-07
-4.2316e-07
1.84494e-06
-6.36628e-07
3.1084e-06
-5.89264e-07
4.93473e-06
-7.23543e-07
6.46903e-06
-3.66147e-07
7.8564e-06
-1.65638e-07
9.49635e-06
2.81366e-07
1.06886e-05
4.84547e-07
1.21778e-05
9.41987e-07
1.30303e-05
1.48843e-06
1.40634e-05
2.42265e-06
1.42335e-05
3.08841e-06
1.50427e-05
3.50003e-06
1.51043e-05
4.92198e-06
1.44074e-05
4.84726e-06
-7.09393e-07
-7.23486e-07
-3.98629e-07
2.72832e-07
3.31371e-08
1.75268e-07
1.2635e-07
-3.46158e-07
-1.87257e-09
-5.82053e-07
-1.00092e-07
-1.54997e-07
-6.60669e-07
7.05642e-07
-1.68349e-06
1.90123e-06
-2.83888e-06
2.80043e-06
-3.86835e-06
3.89739e-06
-4.5184e-06
5.21249e-06
-4.87542e-06
6.82793e-06
-5.08763e-06
8.51316e-06
-5.23164e-06
1.01027e-05
-5.4225e-06
1.17601e-05
-5.58635e-06
1.30532e-05
-5.79378e-06
1.48649e-05
-6.13078e-06
1.60154e-05
-6.67197e-06
1.83801e-05
-5.42216e-06
1.80903e-05
-4.68752e-06
-9.19716e-07
-7.23762e-07
-2.57885e-07
-1.22236e-07
1.13964e-07
7.82711e-08
-2.67305e-07
2.04132e-07
-1.0812e-06
8.14564e-07
-2.14959e-06
1.66755e-06
-3.53218e-06
2.63685e-06
-5.12186e-06
3.40036e-06
-6.46951e-06
3.78145e-06
-7.62551e-06
4.23002e-06
-8.26235e-06
5.35471e-06
-8.63006e-06
6.5908e-06
-8.54625e-06
8.49068e-06
-8.11697e-06
9.94589e-06
-7.31275e-06
1.18178e-05
-6.1738e-06
1.29395e-05
-4.82783e-06
1.43593e-05
-3.5593e-06
1.52473e-05
-2.65108e-06
1.66788e-05
-1.47806e-06
1.63902e-05
-2.4209e-06
-7.47532e-08
-8.56531e-08
-3.63104e-08
1.81325e-08
7.92612e-09
-3.41294e-08
-2.68448e-09
-2.58208e-07
8.87865e-08
-6.67928e-07
2.79249e-07
-1.40067e-06
6.98362e-07
-2.60026e-06
9.66556e-07
-4.16008e-06
1.43402e-06
-5.89416e-06
1.59513e-06
-7.85715e-06
2.09033e-06
-9.97399e-06
2.54744e-06
-1.22898e-05
3.57649e-06
-1.47373e-05
4.89594e-06
-1.73832e-05
6.99468e-06
-2.02172e-05
9.72882e-06
-2.33106e-05
1.35729e-05
-2.67325e-05
1.83767e-05
-3.03779e-05
2.45446e-05
-3.6146e-05
3.10725e-05
-3.86732e-05
4.17172e-05
-0.0573186
0.0408468
-0.064611
-0.0505878
0.0287513
0.000594566
-0.00760761
0.0152397
-0.0479831
0.0687516
0.036154
0.0234696
0.00354515
0.0283192
-0.0139652
0.0212329
-0.0185011
0.0244826
-0.0251345
0.0124016
-0.0145606
-0.00111159
-0.00145559
-0.000923858
-0.00112433
-0.00487668
0.0015944
-0.000442237
-0.000592019
-0.00538549
0.00280577
-0.00262123
0.00325608
0.00184371
-0.000273962
0.00153107
0.000558175
0.000750889
0.000532185
0.00126963
0.000808105
0.00145195
0.000426784
0.00234631
-0.00035292
0.00112822
0.00183678
-0.000404813
-0.000245403
0.000945142
-0.000359281
0.000235349
-1.28257e-05
0.000308256
0.000914742
-0.000837146
0.000337964
-0.000317089
0.000239171
-0.000220753
0.000210172
-0.000328536
-5.30815e-05
-3.61103e-05
-0.000111791
-0.00013889
-1.0763e-05
-6.1522e-05
-3.54202e-05
-0.000118117
8.15501e-05
-5.90155e-05
2.83115e-05
7.47472e-06
-0.0219123
-0.00199729
-0.0244224
-0.0218903
-0.00233191
-0.00422919
-0.00482914
0.008444
-0.00316956
0.0179492
0.0164017
0.0143414
0.00689646
0.0156597
-0.00305929
0.0106133
-0.00727416
0.00705367
-0.00544209
0.00506224
-0.0022227
0.000945942
0.000372599
0.000432446
0.000508666
-0.000437535
0.00126559
0.000506923
0.000565085
-0.000642278
0.00108461
8.35461e-05
0.000994802
0.000837693
0.000248739
0.000808609
0.000317653
0.000396657
0.000260142
0.000344739
0.000310018
0.000364183
7.18118e-05
0.000634413
-0.000182902
0.000307369
0.000226451
-0.000116418
-0.000241512
0.000223964
-0.00027153
-5.23079e-06
-0.000130293
3.5859e-05
7.96976e-05
-0.000281771
5.0077e-05
-0.000181703
3.62032e-05
-0.000123132
2.79154e-06
-0.000114217
-4.63701e-05
-3.08107e-05
-5.06829e-05
-5.00054e-05
-1.06348e-05
-2.75971e-05
-1.6382e-05
-4.12743e-05
3.31564e-05
-2.71339e-05
1.37742e-05
2.8993e-06
-0.00282136
0.00266419
0.00118055
0.00149527
0.00529007
0.0034185
0.00150529
0.0025811
-0.00500221
0.000738541
-0.00117552
9.83518e-05
-0.00129812
0.00321153
-0.00544787
0.00267013
-0.00638977
0.00123715
-0.00388255
4.68242e-05
-0.00310994
-0.00227921
-0.0023707
-0.00213584
-0.00172256
-0.00204298
-0.000693221
-0.00152597
-0.00104756
-0.00183442
-0.000208024
-0.000641214
0.000100116
7.72898e-05
-0.00019027
0.000410642
0.000187688
0.000269283
0.000250958
0.000467327
0.000423375
0.000456369
0.000371616
0.000650814
0.000149263
0.000550622
0.000378787
0.000298541
0.000122222
0.000490909
4.69312e-05
0.000252334
0.000153203
0.000244456
0.000229044
-5.54143e-05
0.000189868
-5.03984e-05
0.000132104
-4.06466e-05
6.22696e-05
-5.65392e-05
-2.64808e-06
-4.71675e-06
-4.00628e-05
-3.38373e-05
-1.86894e-05
-2.78509e-05
-2.90354e-05
-4.19237e-05
2.17409e-05
-2.88153e-05
9.50065e-06
3.0128e-06
-0.0107487
-0.00715757
-0.0116536
-0.0113865
-0.00681221
-0.00463848
-0.00236563
0.00358767
0.00250831
0.00699088
0.00902238
0.0093891
0.00740718
0.00947508
0.00137013
0.00599051
-0.00287655
0.00224805
-0.00179437
0.00146991
-0.00108327
-0.000157629
-0.00045207
-0.000454509
-0.000193074
-0.000566744
0.000538508
0.000154132
0.000131996
-0.000321741
0.000486534
0.000271384
0.000523793
0.000550768
0.000456975
0.000589287
0.000286326
0.000392548
0.000294037
0.000311652
0.000312252
0.000302107
0.00018591
0.000407325
7.49559e-06
0.000243079
5.03278e-05
8.04888e-05
-0.000126754
0.000170371
-0.000153804
3.97399e-05
-5.51701e-05
5.36127e-05
2.37555e-06
-0.000117114
2.30232e-05
-0.000118679
1.4621e-05
-8.21483e-05
-1.62178e-05
-6.71183e-05
-3.86272e-05
-2.84949e-05
-4.01319e-05
-3.61569e-05
-1.86621e-05
-2.63388e-05
-2.20682e-05
-2.62161e-05
1.73098e-05
-2.75838e-05
9.35659e-06
1.62618e-06
-0.00182586
-0.00126111
0.000564373
0.000943113
0.00139867
0.00121683
0.00176714
0.000756694
-0.000699385
-0.00171481
-0.00135797
-0.00124191
-0.00149392
-0.000945942
-0.00294644
-0.000778693
-0.00345479
-0.00137088
-0.00140203
-0.000982675
-0.00142207
-0.00149374
-0.00159671
-0.0013773
-0.00122347
-0.00132964
-0.000768414
-0.00102451
-0.00107516
-0.00112111
-0.000515157
-0.000404852
-0.00027644
-0.000195996
-3.30343e-05
0.000179024
-3.53594e-05
0.000100175
0.00019507
0.000282197
0.0002282
0.000244209
0.000323791
0.000345613
0.000169623
0.000309019
0.000175107
0.000271822
0.000115921
0.000283349
6.73252e-05
0.000179618
0.00013051
0.000173148
0.000126902
3.26911e-05
0.000115831
-1.9884e-05
8.32573e-05
-1.62328e-05
3.63793e-05
-1.90861e-05
-3.50841e-07
-2.53847e-06
-2.45565e-05
-1.95175e-05
-1.80117e-05
-2.04592e-05
-2.1325e-05
-2.13847e-05
1.07719e-05
-1.99215e-05
8.54813e-06
3.42237e-06
-0.00501681
-0.00467453
-0.00517545
-0.00596923
-0.00486481
-0.00385588
-0.0015895
0.000492337
0.00157424
0.00342252
0.0049216
0.00572251
0.00529588
0.00507897
0.00273955
0.00326713
0.000230683
0.00119833
-7.3778e-05
0.000472704
-0.000416615
-0.000349686
-0.000523898
-0.000577739
-0.000332407
-0.000370726
0.000255811
-2.7621e-05
-0.00013946
-0.000271451
0.000260224
0.000215827
0.000415697
0.000458192
0.000539294