/*--------------------------------*- C++ -*----------------------------------*\
| =========                 |                                                 |
| \\      /  F ield         | OpenFOAM: The Open Source CFD Toolbox           |
|  \\    /   O peration     | Version:  2312                                  |
|   \\  /    A nd           | Website:  www.openfoam.com                      |
|    \\/     M anipulation  |                                                 |
\*---------------------------------------------------------------------------*/
FoamFile
{
    version     2.0;
    format      ascii;
    arch        "LSB;label=32;scalar=64";
    class       volScalarField;
    location    "600";
    object      magR;
}
// * * * * * * * * * * * * * * * * * * * * * * * * * * * * * * * * * * * * * //

dimensions      [0 2 -2 0 0 0 0];

internalField   nonuniform List<scalar> 
11040
(
0.475572
0.528082
0.0835951
0.0538034
0.329848
0.341649
0.323052
0.293891
0.263295
0.243754
0.225409
0.209344
0.196064
0.185768
0.177286
0.172773
0.171945
0.175032
0.181545
0.191443
0.205134
0.222231
0.242698
0.266776
0.294529
0.327118
0.36321
0.39743
0.426596
0.446962
0.454855
0.447713
0.427958
0.404384
0.376965
0.274948
0.142236
0.0827438
0.0348439
0.149712
0.26704
0.0388003
0.081687
0.280095
0.510818
0.994233
0.337234
0.104795
0.0361463
0.00945162
0.00699149
0.0167559
0.0223165
0.0259883
0.0286255
0.0303189
0.0319502
0.0340007
0.0366106
0.0393383
0.0421437
0.0451008
0.0482574
0.0507434
0.0516482
0.0507238
0.0491152
0.0471658
0.0436984
0.0388534
0.033516
0.0293757
0.0281743
0.0285282
0.0324923
0.0406091
0.0527634
0.0697906
0.0898236
0.142215
0.155849
0.663359
0.0239787
0.0215628
0.0480672
0.210529
1.14647
1.54638
0.808654
0.30702
0.144019
0.0853443
0.047449
0.0264928
0.0120996
0.00249337
0.00493076
0.00978808
0.0132784
0.015835
0.0177485
0.0190939
0.019981
0.0204087
0.0198949
0.0182508
0.0157788
0.0129412
0.00989469
0.00631394
0.0016485
0.00535678
0.015191
0.0291425
0.0477088
0.0711811
0.100154
0.136083
0.180882
0.228496
0.333429
0.420016
0.620896
0.0172543
0.0147464
0.0122929
0.0189845
0.271863
1.32748
1.98969
1.34404
0.564376
0.302738
0.178264
0.118732
0.0824987
0.0578847
0.0422822
0.031344
0.0245861
0.0203291
0.0180921
0.0174942
0.0179476
0.0193696
0.0218882
0.0252654
0.0287351
0.0316061
0.0333454
0.0336167
0.0327074
0.0328802
0.0391867
0.0559252
0.0837078
0.122696
0.173239
0.237442
0.318517
0.407144
0.56665
0.753549
0.668332
0.0128435
0.0115708
0.0123425
0.00618325
0.00815613
0.24326
1.26274
2.24505
1.93485
0.977131
0.51607
0.311084
0.213506
0.153291
0.118049
0.0934984
0.0784598
0.0685565
0.062758
0.0600658
0.0592973
0.0599713
0.0621471
0.0656777
0.0695516
0.0728464
0.074788
0.0747325
0.0726652
0.0704148
0.073504
0.0906739
0.127489
0.184465
0.260978
0.358943
0.482566
0.622648
0.82625
1.12679
0.902008
0.00926944
0.00850638
0.0082778
0.0091873
0.00280855
0.00198569
0.164905
1.01355
2.27915
2.4612
1.6004
0.820911
0.508111
0.340501
0.250883
0.19378
0.160131
0.138476
0.125246
0.118376
0.115178
0.114479
0.115974
0.119544
0.123911
0.12785
0.130103
0.129397
0.125028
0.118263
0.115117
0.12902
0.173122
0.249822
0.356657
0.494111
0.666387
0.866139
1.10723
1.50614
1.27489
0.00669533
0.00639735
0.00600249
0.00640013
0.00663213
0.00125321
5.35551e-05
0.0773587
0.682949
1.98993
2.77054
2.32236
1.35717
0.774655
0.520206
0.381182
0.297853
0.246035
0.214645
0.197864
0.189205
0.185983
0.186675
0.190759
0.196314
0.201562
0.204553
0.203111
0.195431
0.181718
0.167412
0.169732
0.21388
0.308638
0.448153
0.628941
0.853206
1.11497
1.39625
1.85929
1.70888
0.00488587
0.00477571
0.00470222
0.00451428
0.00489484
0.00514807
0.000226368
2.53723e-06
0.023932
0.370383
1.44317
2.70614
2.91182
2.12126
1.2318
0.774617
0.554596
0.433319
0.35857
0.315054
0.291325
0.28164
0.279953
0.284494
0.291963
0.299584
0.304343
0.302772
0.291304
0.268439
0.237202
0.21458
0.240902
0.344527
0.515222
0.740028
1.01561
1.33431
1.65992
2.14206
2.11874
0.00360854
0.00355667
0.00356239
0.003532
0.00339027
0.00384496
0.00368346
0.000473748
0.000446343
0.000998767
0.142817
0.837242
2.16208
3.11669
2.89629
1.98293
1.19599
0.806527
0.611738
0.504531
0.443729
0.415796
0.406387
0.409467
0.418746
0.429183
0.436429
0.435656
0.421318
0.38885
0.336883
0.275208
0.249174
0.333858
0.527263
0.79277
1.1145
1.47922
1.84432
2.30514
2.41169
0.00267995
0.00265556
0.00267417
0.00270206
0.00267845
0.00259372
0.00293073
0.00262414
0.000809902
0.000116705
2.5908e-06
0.0363772
0.368013
1.36405
2.71433
3.33447
2.8659
1.94126
1.22885
0.873721
0.702072
0.620372
0.585354
0.578108
0.586224
0.600878
0.61379
0.616301
0.600424
0.559476
0.487689
0.383349
0.267278
0.252691
0.443167
0.743297
1.10284
1.49908
1.888
2.30517
2.50097
0.00199895
0.00198742
0.00200685
0.00203762
0.00206584
0.00204555
0.00201645
0.00216354
0.00213397
0.0010038
7.55187e-05
0.000491452
0.00057842
0.102512
0.63427
1.81076
3.07513
3.46743
2.89863
2.00387
1.33337
1.00973
0.877579
0.826496
0.814781
0.82458
0.84147
0.851972
0.843715
0.804561
0.722905
0.589821
0.402675
0.177634
0.211053
0.546645
0.936196
1.34838
1.73844
2.09758
2.32726
0.00149406
0.00148922
0.00150322
0.00153141
0.00156082
0.00158434
0.00157814
0.00156101
0.00161798
0.00166756
0.00117154
3.58479e-05
2.81048e-05
0.00171032
0.0140624
0.195765
0.870603
2.11606
3.29372
3.59576
3.03417
2.22419
1.62445
1.30793
1.17959
1.14737
1.1517
1.1619
1.16046
1.13174
1.06102
0.935461
0.747944
0.50037
0.233889
0.299619
0.660176
1.05464
1.4126
1.69735
1.89666
0.00111735
0.00111622
0.00112562
0.00114718
0.00117411
0.00119964
0.00121994
0.00122416
0.00121466
0.00122901
0.00130195
0.00112307
0.000234759
2.45453e-05
0.000191642
0.00381107
0.0292134
0.270713
1.01018
2.25846
3.41203
3.77326
3.41179
2.80274
2.25136
1.87763
1.6806
1.60721
1.59252
1.58137
1.53949
1.44948
1.30716
1.12318
0.930482
0.800837
0.827015
1.00432
1.22016
1.37629
1.4498
0.000834977
0.000835871
0.000841888
0.00085747
0.000879365
0.000902651
0.000924315
0.00094261
0.000952217
0.000949699
0.00095014
0.00100627
0.000966342
0.000520531
3.05063e-06
2.88511e-06
0.00047156
0.00588057
0.0372193
0.292054
1.02189
2.18551
3.30395
3.92705
3.98197
3.69571
3.29304
2.90074
2.58263
2.35944
2.21967
2.13039
2.05545
1.9744
1.89064
1.82099
1.78969
1.80639
1.85685
1.88739
1.77885
0.000622625
0.000624529
0.000628362
0.000639431
0.000656235
0.000675492
0.000695091
0.000713653
0.000730033
0.000741931
0.000744498
0.00074584
0.000773797
0.000777878
0.000674898
0.00016514
2.05567e-05
3.79098e-07
0.00103405
0.00131233
0.0398162
0.241913
0.774864
1.66099
2.71447
3.64345
4.24783
4.50522
4.50717
4.34792
4.09169
3.79005
3.49493
3.25259
3.09283
3.02606
3.04511
3.11119
3.18603
3.25067
3.14019
0.000462759
0.000464948
0.000467405
0.000475197
0.000487752
0.000502807
0.000518924
0.000535346
0.000551219
0.000565638
0.000577603
0.000583836
0.000588356
0.000594916
0.000624627
0.00057955
0.000441124
3.32646e-05
7.82731e-06
2.8008e-05
0.00101269
0.00407029
0.0142814
0.104297
0.365384
0.874935
1.63199
2.54438
3.46978
4.28319
4.91133
5.32901
5.54562
5.59355
5.5224
5.38569
5.2346
5.10264
5.02009
5.02933
4.94545
0.000343421
0.000345477
0.000347121
0.000352645
0.000361903
0.000373282
0.000385875
0.00039918
0.000412731
0.000425917
0.000438206
0.000449002
0.00045738
0.000462278
0.000469142
0.000481578
0.000497703
0.000441455
0.000269541
2.46904e-05
2.17687e-06
1.73972e-08
0.000311491
0.00192305
3.30766e-05
0.0129077
0.0762007
0.241852
0.561662
1.06446
1.74389
2.558
3.44242
4.3288
5.15474
5.86688
6.43917
6.86536
7.16924
7.41647
7.47083
0.000257348
0.000259178
0.000260425
0.000264547
0.000271528
0.000280214
0.000289989
0.000300549
0.000311559
0.000322665
0.000333474
0.000343688
0.00035304
0.000361149
0.000367034
0.000372526
0.000379485
0.000395208
0.000397015
0.000331664
0.00017003
1.66503e-06
2.67789e-06
1.12375e-07
4.04909e-07
0.00025945
0.0015519
0.00270938
0.00208167
0.0164109
0.0677328
0.186133
0.40312
0.745648
1.22872
1.84786
2.58323
3.40836
4.2804
5.18092
5.97311
0.000196476
0.000198092
0.000199116
0.000202317
0.000207716
0.000214472
0.000222165
0.000230622
0.000239611
0.000248864
0.000258114
0.000267121
0.00027568
0.000283678
0.000290829
0.000297023
0.000301672
0.000307563
0.000315372
0.000328271
0.000323183
0.000267372
0.000171675
1.08329e-05
3.80152e-06
1.0712e-06
3.16267e-08
0
3.1357e-05
0.000381951
0.00142377
0.00181852
0.00225371
0.00251737
0.0172122
0.057704
0.141764
0.288219
0.513484
0.833585
1.24728
0.000152765
0.000154137
0.000154989
0.00015752
0.000161751
0.000167056
0.000173142
0.000179894
0.000187164
0.000194754
0.000202494
0.000210223
0.000217781
0.000225023
0.00023183
0.000238125
0.000243732
0.000248563
0.000252778
0.000258245
0.000266327
0.000272513
0.000270852
0.000234854
0.000175201
0.000105813
3.43257e-06
2.23499e-06
8.53125e-07
3.5887e-07
0
0
0
3.95091e-05
0.000429365
0.00123489
0.00159889
0.000873449
7.75984e-05
0.0028289
0.0130212
0.000120394
0.000121534
0.000122253
0.000124281
0.000127634
0.000131843
0.000136697
0.00014211
0.000147978
0.000154157
0.000160526
0.000166979
0.000173409
0.000179705
0.00018577
0.000191516
0.000196895
0.000201832
0.000206239
0.000210103
0.000213872
0.000218918
0.000224636
0.000232003
0.000231098
0.000223846
0.000195053
0.000148697
9.77889e-05
4.35156e-05
5.36023e-06
9.10489e-07
6.54762e-07
3.89473e-07
1.74124e-07
1.21419e-10
0
0
1.20757e-06
4.15847e-05
0.00025366
9.59142e-05
9.68529e-05
9.74698e-05
9.9116e-05
0.0001018
0.000105169
0.000109066
0.000113428
0.000118175
0.0001232
0.000128409
0.00013373
0.000139087
0.000144398
0.000149591
0.000154599
0.000159365
0.000163846
0.000168015
0.000171847
0.000175174
0.000178199
0.000181102
0.0001849
0.000189392
0.000193579
0.00019867
0.000198399
0.000192008
0.000179785
0.000156277
0.000125504
9.25344e-05
5.71702e-05
2.70798e-05
2.03907e-08
6.55002e-07
4.8565e-07
3.54007e-07
2.38507e-07
1.33442e-07
7.70711e-05
7.78405e-05
7.83759e-05
7.97246e-05
8.18889e-05
8.46036e-05
8.77511e-05
9.12803e-05
9.51273e-05
9.92124e-05
0.000103461
0.000107824
0.00011224
0.00011665
0.000120997
0.000125231
0.000129304
0.000133177
0.000136816
0.000140218
0.000143285
0.000145986
0.000148377
0.000150451
0.000152506
0.000154588
0.000157232
0.00016033
0.00016334
0.000165879
0.000168003
0.000167013
0.000163032
0.000155674
0.000146198
0.000130446
0.000111071
8.97429e-05
6.80976e-05
4.78377e-05
2.83496e-05
6.2365e-05
6.29947e-05
6.3464e-05
6.45778e-05
6.63346e-05
6.85358e-05
7.10906e-05
7.39573e-05
7.70832e-05
8.04079e-05
8.38716e-05
8.74341e-05
9.10519e-05
9.46769e-05
9.82648e-05
0.000101776
0.000105173
0.000108422
0.000111491
0.00011437
0.000116979
0.000119301
0.000121382
0.000123158
0.000124656
0.000125929
0.000127019
0.000128051
0.00012913
0.000130286
0.000131627
0.000133042
0.00013432
0.000135309
0.000135805
0.000136397
0.000135583
0.000133237
0.000129561
0.000124492
0.000118923
5.0755e-05
5.12703e-05
5.16848e-05
5.26104e-05
5.40447e-05
5.58383e-05
5.79211e-05
6.02573e-05
6.28032e-05
6.55115e-05
6.8334e-05
7.12374e-05
7.419e-05
7.71517e-05
8.00876e-05
8.29661e-05
8.57559e-05
8.84277e-05
9.09554e-05
9.33265e-05
9.54708e-05
9.73736e-05
9.9074e-05
0.000100528
0.000101743
0.000102744
0.000103537
0.00010413
0.000104546
0.000104812
0.000104957
0.000105026
0.000105044
0.000105043
0.000105004
0.000104989
0.000104962
0.000104875
0.000104718
0.000104286
0.000103985
4.15017e-05
4.19243e-05
4.22926e-05
4.30665e-05
4.42439e-05
4.57124e-05
4.74174e-05
4.93271e-05
5.14059e-05
5.36147e-05
5.59159e-05
5.82806e-05
6.06844e-05
6.30939e-05
6.54816e-05
6.78212e-05
7.00881e-05
7.22565e-05
7.43047e-05
7.62199e-05
7.79434e-05
7.94644e-05
8.08159e-05
8.19577e-05
8.28979e-05
8.36547e-05
8.42395e-05
8.4658e-05
8.49168e-05
8.50242e-05
8.49885e-05
8.4821e-05
8.45295e-05
8.41313e-05
8.3644e-05
8.3073e-05
8.24309e-05
8.17371e-05
8.10506e-05
8.02594e-05
7.96369e-05
3.40677e-05
3.44158e-05
3.47446e-05
3.53957e-05
3.63672e-05
3.75752e-05
3.89764e-05
4.05423e-05
4.22435e-05
4.40476e-05
4.59249e-05
4.78505e-05
4.98043e-05
5.17597e-05
5.36936e-05
5.55848e-05
5.74133e-05
5.91571e-05
6.07981e-05
6.23248e-05
6.36884e-05
6.48831e-05
6.59381e-05
6.68184e-05
6.75292e-05
6.80858e-05
6.84981e-05
6.87728e-05
6.89178e-05
6.89418e-05
6.88531e-05
6.86611e-05
6.83701e-05
6.79909e-05
6.75349e-05
6.70066e-05
6.64076e-05
6.57431e-05
6.50696e-05
6.42643e-05
6.36903e-05
2.80552e-05
2.83437e-05
2.86386e-05
2.919e-05
2.99962e-05
3.09948e-05
3.21506e-05
3.34388e-05
3.48341e-05
3.63104e-05
3.78432e-05
3.94114e-05
4.09981e-05
4.25827e-05
4.41448e-05
4.56678e-05
4.7135e-05
4.85286e-05
4.98328e-05
5.10384e-05
5.21053e-05
5.30322e-05
5.38447e-05
5.4514e-05
5.5043e-05
5.54455e-05
5.57297e-05
5.5902e-05
5.59693e-05
5.59398e-05
5.58215e-05
5.5623e-05
5.53493e-05
5.501e-05
5.46152e-05
5.41696e-05
5.36744e-05
5.31314e-05
5.25946e-05
5.19316e-05
5.15475e-05
2.31645e-05
2.34056e-05
2.36715e-05
2.41419e-05
2.4815e-05
2.56449e-05
2.6602e-05
2.76652e-05
2.88126e-05
3.00229e-05
3.12758e-05
3.25538e-05
3.38422e-05
3.51252e-05
3.63847e-05
3.76079e-05
3.87807e-05
3.98893e-05
4.092e-05
4.18656e-05
4.26935e-05
4.34058e-05
4.40256e-05
4.45288e-05
4.49177e-05
4.52041e-05
4.53954e-05
4.54973e-05
4.55157e-05
4.5458e-05
4.5331e-05
4.51424e-05
4.48962e-05
4.46007e-05
4.42647e-05
4.38923e-05
4.34838e-05
4.30395e-05
4.26112e-05
4.20642e-05
4.18222e-05
1.9167e-05
1.93705e-05
1.96121e-05
2.00164e-05
2.05822e-05
2.12755e-05
2.20716e-05
2.29522e-05
2.38985e-05
2.4893e-05
2.59186e-05
2.69612e-05
2.80081e-05
2.90464e-05
3.00612e-05
3.10418e-05
3.19771e-05
3.28561e-05
3.36675e-05
3.44055e-05
3.50443e-05
3.55881e-05
3.60576e-05
3.64329e-05
3.6716e-05
3.69171e-05
3.70428e-05
3.70979e-05
3.70877e-05
3.70184e-05
3.68958e-05
3.67265e-05
3.65138e-05
3.62642e-05
3.59851e-05
3.568e-05
3.53487e-05
3.49899e-05
3.46524e-05
3.42026e-05
3.40742e-05
1.58856e-05
1.60601e-05
1.62812e-05
1.66316e-05
1.71106e-05
1.76932e-05
1.83587e-05
1.90907e-05
1.98736e-05
2.06928e-05
2.15343e-05
2.23859e-05
2.32374e-05
2.40778e-05
2.48956e-05
2.56812e-05
2.64264e-05
2.71219e-05
2.77592e-05
2.83332e-05
2.88244e-05
2.92375e-05
2.95915e-05
2.98697e-05
3.0074e-05
3.02133e-05
3.02936e-05
3.03186e-05
3.02931e-05
3.02221e-05
3.01105e-05
2.99637e-05
2.97843e-05
2.95776e-05
2.93495e-05
2.91031e-05
2.88379e-05
2.85514e-05
2.8289e-05
2.792e-05
2.78814e-05
1.31827e-05
1.33351e-05
1.35388e-05
1.38451e-05
1.42539e-05
1.47464e-05
1.53055e-05
1.59166e-05
1.65668e-05
1.72435e-05
1.79356e-05
1.86326e-05
1.9326e-05
2.00069e-05
2.06663e-05
2.12957e-05
2.18892e-05
2.24392e-05
2.29394e-05
2.33854e-05
2.37624e-05
2.40758e-05
2.43424e-05
2.45484e-05
2.46955e-05
2.47912e-05
2.48409e-05
2.48477e-05
2.48156e-05
2.47488e-05
2.46512e-05
2.45271e-05
2.43788e-05
2.42103e-05
2.40266e-05
2.383e-05
2.36198e-05
2.3393e-05
2.31909e-05
2.28885e-05
2.29157e-05
1.09496e-05
1.10855e-05
1.12744e-05
1.15446e-05
1.18961e-05
1.23152e-05
1.27876e-05
1.33002e-05
1.38424e-05
1.44037e-05
1.49745e-05
1.55465e-05
1.61122e-05
1.66647e-05
1.7197e-05
1.77018e-05
1.81745e-05
1.86094e-05
1.90016e-05
1.93478e-05
1.96368e-05
1.98741e-05
2.00744e-05
2.02263e-05
2.03315e-05
2.03964e-05
2.04256e-05
2.04219e-05
2.03883e-05
2.03284e-05
2.02453e-05
2.01426e-05
2.00218e-05
1.98862e-05
1.97397e-05
1.95842e-05
1.94188e-05
1.92403e-05
1.90858e-05
1.8838e-05
1.89116e-05
9.10011e-06
9.2239e-06
9.40015e-06
9.64048e-06
9.94515e-06
1.03045e-05
1.0706e-05
1.11386e-05
1.15928e-05
1.20603e-05
1.25329e-05
1.30038e-05
1.34667e-05
1.39163e-05
1.43469e-05
1.47525e-05
1.51296e-05
1.54742e-05
1.57823e-05
1.60518e-05
1.6274e-05
1.64543e-05
1.66057e-05
1.67186e-05
1.67943e-05
1.68388e-05
1.68556e-05
1.6847e-05
1.68156e-05
1.67643e-05
1.66956e-05
1.66122e-05
1.65154e-05
1.64076e-05
1.6292e-05
1.61698e-05
1.60406e-05
1.59006e-05
1.57829e-05
1.55802e-05
1.56814e-05
7.56524e-06
7.68025e-06
7.84548e-06
8.06103e-06
8.32751e-06
8.63793e-06
8.9815e-06
9.34869e-06
9.73143e-06
1.01227e-05
1.05158e-05
1.09051e-05
1.12851e-05
1.1652e-05
1.20012e-05
1.2328e-05
1.26294e-05
1.29027e-05
1.31449e-05
1.33545e-05
1.35253e-05
1.36621e-05
1.37761e-05
1.38595e-05
1.39135e-05
1.39431e-05
1.39514e-05
1.39404e-05
1.3912e-05
1.38686e-05
1.38121e-05
1.37449e-05
1.36678e-05
1.35826e-05
1.34919e-05
1.33966e-05
1.3296e-05
1.31869e-05
1.30977e-05
1.29319e-05
1.30492e-05
6.28949e-06
6.39817e-06
6.55372e-06
6.74862e-06
6.98371e-06
7.25397e-06
7.55018e-06
7.86391e-06
8.18846e-06
8.51786e-06
8.84656e-06
9.16981e-06
9.48346e-06
9.78409e-06
1.00684e-05
1.03329e-05
1.0575e-05
1.0793e-05
1.09849e-05
1.11496e-05
1.12824e-05
1.13878e-05
1.14756e-05
1.1539e-05
1.15792e-05
1.16004e-05
1.16052e-05
1.15951e-05
1.15717e-05
1.15369e-05
1.14922e-05
1.14393e-05
1.13788e-05
1.13123e-05
1.12415e-05
1.11673e-05
1.1089e-05
1.10036e-05
1.09353e-05
1.08005e-05
1.09185e-05
5.22792e-06
5.33207e-06
5.4789e-06
5.65649e-06
5.86566e-06
6.10287e-06
6.36012e-06
6.63016e-06
6.90718e-06
7.18623e-06
7.46268e-06
7.73262e-06
7.99264e-06
8.24003e-06
8.47231e-06
8.68684e-06
8.88165e-06
9.05543e-06
9.20686e-06
9.33531e-06
9.43761e-06
9.51747e-06
9.58361e-06
9.63032e-06
9.65866e-06
9.67227e-06
9.6734e-06
9.66327e-06
9.64311e-06
9.61436e-06
9.57833e-06
9.53625e-06
9.48862e-06
9.43647e-06
9.38126e-06
9.32348e-06
9.26265e-06
9.19613e-06
9.14391e-06
9.03428e-06
9.14986e-06
4.34408e-06
4.44486e-06
4.5838e-06
4.74667e-06
4.9344e-06
5.1442e-06
5.3693e-06
5.60333e-06
5.8414e-06
6.07929e-06
6.31324e-06
6.54003e-06
6.75705e-06
6.96214e-06
7.15363e-06
7.32964e-06
7.48863e-06
7.62984e-06
7.75252e-06
7.85634e-06
7.93911e-06
8.00361e-06
8.05741e-06
8.09562e-06
8.11916e-06
8.131e-06
8.13296e-06
8.12598e-06
8.11107e-06
8.08933e-06
8.06181e-06
8.02948e-06
7.99272e-06
7.95229e-06
7.90933e-06
7.86424e-06
7.8165e-06
7.76411e-06
7.72263e-06
7.63533e-06
7.73293e-06
3.6082e-06
3.70626e-06
3.8378e-06
3.98827e-06
4.15808e-06
4.345e-06
4.54325e-06
4.7473e-06
4.95308e-06
5.15708e-06
5.3562e-06
5.54776e-06
5.72963e-06
5.89991e-06
6.05753e-06
6.20112e-06
6.32932e-06
6.44173e-06
6.53809e-06
6.61825e-06
6.68092e-06
6.7287e-06
6.76819e-06
6.79529e-06
6.81084e-06
6.81744e-06
6.81667e-06
6.80928e-06
6.79604e-06
6.77784e-06
6.75549e-06
6.72967e-06
6.70064e-06
6.66894e-06
6.63537e-06
6.60011e-06
6.56282e-06
6.52182e-06
6.4895e-06
6.41855e-06
6.50838e-06
2.99556e-06
3.09121e-06
3.21587e-06
3.35549e-06
3.51009e-06
3.67769e-06
3.85318e-06
4.03196e-06
4.21062e-06
4.38644e-06
4.55696e-06
4.72011e-06
4.87424e-06
5.01818e-06
5.15136e-06
5.27291e-06
5.38182e-06
5.47783e-06
5.56069e-06
5.63046e-06
5.68613e-06
5.72912e-06
5.76534e-06
5.7912e-06
5.80737e-06
5.81599e-06
5.81833e-06
5.815e-06
5.80662e-06
5.79388e-06
5.77747e-06
5.75798e-06
5.73564e-06
5.71085e-06
5.6843e-06
5.65624e-06
5.62616e-06
5.59327e-06
5.56543e-06
5.51285e-06
5.56958e-06
2.48568e-06
2.57945e-06
2.69785e-06
2.82788e-06
2.9688e-06
3.11911e-06
3.27476e-06
3.43192e-06
3.5877e-06
3.73982e-06
3.88629e-06
4.02546e-06
4.15577e-06
4.27564e-06
4.38424e-06
4.48109e-06
4.56589e-06
4.63897e-06
4.70067e-06
4.75121e-06
4.79024e-06
4.81958e-06
4.84401e-06
4.86062e-06
4.87e-06
4.87395e-06
4.87349e-06
4.86908e-06
4.86117e-06
4.85025e-06
4.83676e-06
4.82109e-06
4.80336e-06
4.78383e-06
4.76285e-06
4.74047e-06
4.71651e-06
4.69008e-06
4.6677e-06
4.62254e-06
4.67932e-06
2.06288e-06
2.15526e-06
2.26832e-06
2.38972e-06
2.51788e-06
2.65176e-06
2.78874e-06
2.92633e-06
3.06246e-06
3.19502e-06
3.32212e-06
3.4425e-06
3.55589e-06
3.6626e-06
3.7628e-06
3.85513e-06
3.93792e-06
4.01046e-06
4.07272e-06
4.12512e-06
4.16727e-06
4.19959e-06
4.22684e-06
4.24654e-06
4.25933e-06
4.26678e-06
4.26983e-06
4.26892e-06
4.26448e-06
4.25703e-06
4.24702e-06
4.23487e-06
4.22073e-06
4.20486e-06
4.18769e-06
4.16945e-06
4.14952e-06
4.1284e-06
4.10715e-06
4.08195e-06
4.08748e-06
1.71619e-06
1.80606e-06
1.91294e-06
2.02575e-06
2.14199e-06
2.26073e-06
2.38019e-06
2.49901e-06
2.61637e-06
2.73133e-06
2.84221e-06
2.94638e-06
3.04081e-06
3.1229e-06
3.19258e-06
3.25265e-06
3.30575e-06
3.35252e-06
3.39294e-06
3.42656e-06
3.45316e-06
3.47404e-06
3.49203e-06
3.505e-06
3.51326e-06
3.51797e-06
3.51979e-06
3.51899e-06
3.51577e-06
3.5104e-06
3.50313e-06
3.49411e-06
3.48341e-06
3.47109e-06
3.4573e-06
3.44195e-06
3.42508e-06
3.40613e-06
3.38836e-06
3.35672e-06
3.38961e-06
1.43345e-06
1.51865e-06
1.61606e-06
1.71694e-06
1.81975e-06
1.92455e-06
2.02993e-06
2.1339e-06
2.23493e-06
2.33249e-06
2.42737e-06
2.52146e-06
2.61666e-06
2.71365e-06
2.80983e-06
2.89795e-06
2.97292e-06
3.03553e-06
3.08757e-06
3.13088e-06
3.16552e-06
3.19126e-06
3.21243e-06
3.22757e-06
3.23736e-06
3.24301e-06
3.24526e-06
3.24452e-06
3.24119e-06
3.23572e-06
3.22848e-06
3.2198e-06
3.20986e-06
3.19886e-06
3.18711e-06
3.17492e-06
3.16145e-06
3.14862e-06
3.13097e-06
3.13081e-06
3.07834e-06
1.19701e-06
1.27948e-06
1.36747e-06
1.45363e-06
1.53844e-06
1.6249e-06
1.71442e-06
1.80667e-06
1.89956e-06
1.98911e-06
2.07003e-06
2.13728e-06
2.18817e-06
2.22331e-06
2.24883e-06
2.27717e-06
2.3135e-06
2.35245e-06
2.39006e-06
2.42393e-06
2.45367e-06
2.48009e-06
2.50386e-06
2.52361e-06
2.5394e-06
2.55189e-06
2.56153e-06
2.56844e-06
2.57278e-06
2.57467e-06
2.57428e-06
2.57166e-06
2.56688e-06
2.55992e-06
2.55081e-06
2.53937e-06
2.52599e-06
2.50961e-06
2.49396e-06
2.46156e-06
2.49519e-06
9.9794e-07
1.08701e-06
1.1759e-06
1.25524e-06
1.32483e-06
1.38892e-06
1.45148e-06
1.51617e-06
1.58679e-06
1.66695e-06
1.75954e-06
1.86568e-06
1.9835e-06
2.10841e-06
2.23047e-06
2.32944e-06
2.39909e-06
2.45234e-06
2.4947e-06
2.52879e-06
2.5542e-06
2.57152e-06
2.58411e-06
2.59149e-06
2.59451e-06
2.59418e-06
2.59118e-06
2.58601e-06
2.57913e-06
2.571e-06
2.56203e-06
2.55258e-06
2.54286e-06
2.53311e-06
2.52359e-06
2.51484e-06
2.50557e-06
2.49946e-06
2.48406e-06
2.51023e-06
2.39034e-06
8.54038e-07
9.41731e-07
1.02826e-06
1.1082e-06
1.1795e-06
1.24192e-06
1.29434e-06
1.33571e-06
1.36622e-06
1.38737e-06
1.40161e-06
1.41176e-06
1.42063e-06
1.42871e-06
1.43849e-06
1.467e-06
1.51512e-06
1.56813e-06
1.62121e-06
1.67135e-06
1.71789e-06
1.76077e-06
1.8004e-06
1.8363e-06
1.86818e-06
1.89622e-06
1.92058e-06
1.94129e-06
1.95829e-06
1.97159e-06
1.98112e-06
1.98681e-06
1.98862e-06
1.98639e-06
1.98005e-06
1.96926e-06
1.95474e-06
1.93402e-06
1.91463e-06
1.86315e-06
1.91098e-06
9.24449e-07
1.03854e-06
1.09975e-06
1.11177e-06
1.09759e-06
1.08909e-06
1.11391e-06
1.18422e-06
1.29398e-06
1.42688e-06
1.56557e-06
1.6968e-06
1.81201e-06
1.90867e-06
1.98446e-06
2.02232e-06
2.02616e-06
2.01449e-06
1.99587e-06
1.97365e-06
1.94646e-06
1.92193e-06
1.89502e-06
1.86732e-06
1.83963e-06
1.8121e-06
1.78475e-06
1.75761e-06
1.73065e-06
1.70376e-06
1.67671e-06
1.6493e-06
1.62109e-06
1.59167e-06
1.56085e-06
1.52878e-06
1.49327e-06
1.458e-06
1.40814e-06
1.40433e-06
1.21501e-06
7.81435
9.52083
8.94475
7.25222
4.97155
2.76314
1.13164
0.280021
0.0610723
0.00651503
0.00221807
3.80979e-06
0.000142437
0.000409994
0.000353706
0.000243719
0.000200246
0.000178511
0.000151681
0.00012871
0.000108153
9.21508e-05
7.82982e-05
6.64744e-05
5.64288e-05
4.76772e-05
4.0421e-05
3.39059e-05
2.8389e-05
2.33825e-05
1.93221e-05
1.54482e-05
1.23027e-05
9.41901e-06
6.87385e-06
4.75678e-06
2.89169e-06
1.40679e-06
7.86642e-07
1.52774e-06
2.35915e-06
3.032e-06
3.55983e-06
3.88411e-06
4.11188e-06
4.1717e-06
4.12355e-06
4.01554e-06
3.82824e-06
3.56884e-06
3.3034e-06
2.9938e-06
2.69296e-06
2.38911e-06
2.08506e-06
1.8156e-06
1.54809e-06
1.31021e-06
1.08699e-06
8.93515e-07
7.16027e-07
5.66769e-07
4.35922e-07
3.25147e-07
2.32862e-07
1.58835e-07
9.9325e-08
5.88402e-08
2.31869e-08
4.51038e-08
2.81136e-08
1.18188e-07
1.16591e-07
2.78368e-07
7.3606
12.4757
12.5345
10.624
7.92212
5.09721
2.71129
1.09865
0.296424
0.069442
0.0116457
0.00456478
9.22758e-06
2.15262e-05
0.000299963
0.000322825
0.000225035
0.000170226
0.000146817
0.000129544
0.000109928
9.32338e-05
7.9233e-05
6.73754e-05
5.72739e-05
4.83941e-05
4.10394e-05
3.44425e-05
2.88486e-05
2.37638e-05
1.9645e-05
1.57698e-05
1.2571e-05
9.7132e-06
7.1624e-06
5.04617e-06
3.17993e-06
1.62694e-06
5.11832e-07
1.00585e-06
1.84818e-06
2.51077e-06
3.05094e-06
3.3725e-06
3.61265e-06
3.6995e-06
3.6638e-06
3.58169e-06
3.4396e-06
3.20835e-06
2.97911e-06
2.7082e-06
2.44297e-06
2.17493e-06
1.8994e-06
1.66045e-06
1.42227e-06
1.20802e-06
1.0065e-06
8.32161e-07
6.71298e-07
5.35855e-07
4.17834e-07
3.17044e-07
2.32907e-07
1.66318e-07
1.11608e-07
7.31005e-08
3.94018e-08
4.6526e-08
1.89658e-08
1.12738e-07
1.16875e-07
2.72347e-07
4.97025
11.931
14.3832
13.4349
10.9286
7.85669
4.90952
2.58218
1.08065
0.338742
0.0917657
0.0209766
0.00752211
0.000154438
2.02964e-05
8.8943e-05
0.000245589
0.000213902
0.000151942
0.000123575
0.000108662
9.4225e-05
8.01479e-05
6.79938e-05
5.78762e-05
4.91027e-05
4.15391e-05
3.4938e-05
2.9299e-05
2.42488e-05
1.99525e-05
1.61448e-05
1.28404e-05
1.00156e-05
7.50403e-06
5.37849e-06
3.54314e-06
1.98373e-06
6.65141e-07
4.12668e-07
1.29269e-06
1.96715e-06
2.49351e-06
2.84139e-06
3.07022e-06
3.19527e-06
3.19162e-06
3.11931e-06
3.02154e-06
2.83541e-06
2.63881e-06
2.41289e-06
2.18558e-06
1.9574e-06
1.71768e-06
1.50356e-06
1.30041e-06
1.10946e-06
9.33096e-07
7.77266e-07
6.35073e-07
5.12917e-07
4.08451e-07
3.17882e-07
2.42046e-07
1.82128e-07
1.32745e-07
9.67906e-08
6.57826e-08
6.4929e-08
3.85412e-08
1.16501e-07
1.22292e-07
2.7138e-07
3.47958
10.1628
14.4149
15.0774
13.4611
10.6836
7.55144
4.69856
2.52454
1.14105
0.42586
0.136042
0.0356888
0.00194504
0.00203517
5.38257e-06
8.68322e-06
0.000154398
0.000209493
0.000149736
0.000108397
9.16126e-05
8.05444e-05
6.92464e-05
5.87893e-05
4.98424e-05
4.21761e-05
3.55654e-05
2.98537e-05
2.48045e-05
2.03982e-05
1.66101e-05
1.32511e-05
1.04307e-05
7.95256e-06
5.83091e-06
4.03515e-06
2.51772e-06
1.27711e-06
5.04933e-07
8.96815e-07
1.50897e-06
1.99489e-06
2.35484e-06
2.57426e-06
2.72374e-06
2.75281e-06
2.69815e-06
2.63497e-06
2.49232e-06
2.32931e-06
2.14445e-06
1.95342e-06
1.76179e-06
1.55662e-06
1.36875e-06
1.19521e-06
1.02703e-06
8.73416e-07
7.35049e-07
6.09493e-07
4.9993e-07
4.07143e-07
3.25503e-07
2.56895e-07
2.02557e-07
1.56769e-07
1.22964e-07
9.4156e-08
8.87532e-08
6.70889e-08
1.2567e-07
1.35318e-07
2.74024e-07
2.74819
8.33686
13.218
15.3691
15.0638
13.1182
10.2929
7.26976
4.59868
2.59186
1.29451
0.566339
0.20999
0.0617008
0.0109294
0.00450091
4.6109e-07
9.94598e-06
3.61436e-05
0.000130763
0.000139643
0.000101397
7.91201e-05
6.86046e-05
5.98881e-05
5.10276e-05
4.30071e-05
3.62472e-05
3.04755e-05
2.54095e-05
2.09492e-05
1.71415e-05
1.37631e-05
1.09356e-05
8.47748e-06
6.3703e-06
4.60981e-06
3.1337e-06
1.94924e-06
1.12445e-06
9.02163e-07
1.21647e-06
1.6061e-06
1.93241e-06
2.14469e-06
2.30147e-06
2.35229e-06
2.3245e-06
2.29018e-06
2.18407e-06
2.05499e-06
1.9067e-06
1.74933e-06
1.59051e-06
1.4167e-06
1.2556e-06
1.10712e-06
9.6026e-07
8.2665e-07
7.04207e-07
5.93179e-07
4.94988e-07
4.1183e-07
3.37671e-07
2.75067e-07
2.24804e-07
1.82101e-07
1.49465e-07
1.22507e-07
1.13347e-07
9.62799e-08
1.3802e-07
1.53485e-07
2.78979e-07
2.47622
6.81641
11.4543
14.515
15.5071
14.7256
12.68
9.9507
7.12376
4.6635
2.80284
1.54717
0.770459
0.327038
0.107257
0.0241915
0.00756389
0.000960903
1.85297e-06
9.13236e-06
6.83004e-05
0.000123784
9.93386e-05
7.15128e-05
5.8169e-05
5.09337e-05
4.41028e-05
3.72687e-05
3.11756e-05
2.59798e-05
2.15061e-05
1.76855e-05
1.43039e-05
1.14705e-05
9.02306e-06
6.9377e-06
5.21019e-06
3.7675e-06
2.61441e-06
1.7679e-06
1.28298e-06
1.21376e-06
1.39055e-06
1.61915e-06
1.79659e-06
1.93984e-06
2.00074e-06
1.99304e-06
1.98403e-06
1.90752e-06
1.81071e-06
1.69533e-06
1.56899e-06
1.43999e-06
1.29462e-06
1.15932e-06
1.03327e-06
9.06133e-07
7.904e-07
6.82494e-07
5.8428e-07
4.96339e-07
4.21267e-07
3.53456e-07
2.95724e-07
2.48701e-07
2.08385e-07
1.76304e-07
1.50714e-07
1.38414e-07
1.24862e-07
1.52778e-07
1.73993e-07
2.85673e-07
2.44224
5.62598
9.59988
12.9256
14.8608
15.2582
14.2848
12.2876
9.74625
7.16231
4.91028
3.16039
1.90644
1.05429
0.504672
0.189717
0.048482
0.00601972
0.00330146
0
3.71248e-06
2.17313e-06
6.43128e-05
9.52635e-05
7.2736e-05
5.23571e-05
4.27507e-05
3.72607e-05
3.20267e-05
2.67811e-05
2.20969e-05
1.81934e-05
1.48225e-05
1.20024e-05
9.56654e-06
7.5023e-06
5.80303e-06
4.3896e-06
3.25737e-06
2.39672e-06
1.79871e-06
1.48898e-06
1.40848e-06
1.47535e-06
1.56325e-06
1.6614e-06
1.71498e-06
1.71028e-06
1.7173e-06
1.66443e-06
1.59472e-06
1.50875e-06
1.41021e-06
1.30845e-06
1.18891e-06
1.07747e-06
9.71864e-07
8.6294e-07
7.6326e-07
6.68666e-07
5.81758e-07
5.02929e-07
4.34811e-07
3.7234e-07
3.18526e-07
2.74061e-07
2.35379e-07
2.03433e-07
1.78676e-07
1.63588e-07
1.52459e-07
1.69074e-07
1.95089e-07
2.93698e-07
2.54608
4.71749
7.89517
11.0134
13.4092
14.7243
14.8449
13.8481
12.002
9.71301
7.3917
5.33076
3.66057
2.38248
1.43721
0.766328
0.332249
0.103714
0.0217431
0.00647138
0.00104206
7.06929e-06
3.73116e-06
8.41477e-06
5.37952e-05
6.81694e-05
5.22203e-05
3.81568e-05
3.11115e-05
2.68377e-05
2.28025e-05
1.88942e-05
1.53821e-05
1.25047e-05
1.00875e-05
8.056e-06
6.38104e-06
4.9887e-06
3.86971e-06
2.99814e-06
2.33912e-06
1.89841e-06
1.62708e-06
1.52213e-06
1.47716e-06
1.49273e-06
1.51094e-06
1.49006e-06
1.49643e-06
1.45959e-06
1.40898e-06
1.34792e-06
1.27299e-06
1.19557e-06
1.09929e-06
1.00935e-06
9.22355e-07
8.29942e-07
7.44635e-07
6.61984e-07
5.85048e-07
5.14096e-07
4.51944e-07
3.93837e-07
3.43087e-07
3.00466e-07
2.62802e-07
2.30608e-07
2.06207e-07
1.88402e-07
1.78873e-07
1.85994e-07
2.15883e-07
3.02518e-07
2.6697
4.02037
6.40395
9.06237
11.4983
13.34
14.3364
14.3603
13.4522
11.8345
9.83711
7.78231
5.89831
4.29302
2.98155
1.93931
1.139
0.568022
0.220237
0.0568887
0.00752409
0.000156047
0.000402329
3.71065e-07
3.19774e-06
1.05815e-05
4.27222e-05
5.01856e-05
3.82788e-05
2.76952e-05
2.21545e-05
1.89113e-05
1.59719e-05
1.31594e-05
1.06542e-05
8.58389e-06
6.92175e-06
5.55593e-06
4.44851e-06
3.56453e-06
2.86465e-06
2.3442e-06
1.95266e-06
1.71098e-06
1.53418e-06
1.44445e-06
1.39855e-06
1.34163e-06
1.32839e-06
1.29615e-06
1.25548e-06
1.21322e-06
1.15746e-06
1.10085e-06
1.02525e-06
9.54262e-07
8.8411e-07
8.06532e-07
7.33919e-07
6.61816e-07
5.93522e-07
5.29309e-07
4.7216e-07
4.17556e-07
3.69059e-07
3.27595e-07
2.90448e-07
2.57638e-07
2.33166e-07
2.12567e-07
2.04004e-07
2.02909e-07
2.35849e-07
3.11617e-07
2.67088
3.41856
5.08678
7.19951
9.40754
11.4066
12.9402
13.7875
13.826
13.0872
11.7477
10.0616
8.27555
6.56828
5.03286
3.70084