/*--------------------------------*- C++ -*----------------------------------*\
| =========                 |                                                 |
| \\      /  F ield         | OpenFOAM: The Open Source CFD Toolbox           |
|  \\    /   O peration     | Version:  2312                                  |
|   \\  /    A nd           | Website:  www.openfoam.com                      |
|    \\/     M anipulation  |                                                 |
\*---------------------------------------------------------------------------*/
FoamFile
{
    version     2.0;
    format      ascii;
    arch        "LSB;label=32;scalar=64";
    class       volVectorField;
    location    "600";
    object      momentError;
}
// * * * * * * * * * * * * * * * * * * * * * * * * * * * * * * * * * * * * * //

dimensions      [0 1 -2 0 0 0 0];

internalField   nonuniform List<vector> 
11040
(
(0.298119 -1.88447 -6.08501e-16)
(0.0420913 -6.65431 -3.25959e-16)
(-0.91215 -2.52605 4.65514e-15)
(-0.0157662 0.309563 6.63439e-16)
(0.0938736 -0.0954125 3.736e-15)
(0.126708 0.0508834 -2.46341e-15)
(0.125864 0.0286243 -5.86564e-15)
(0.136636 0.0277476 -1.09557e-15)
(0.14134 0.0249503 -3.93551e-16)
(0.13804 0.0227399 2.10219e-15)
(0.134 0.0184925 1.01565e-15)
(0.131191 0.0178998 -5.58847e-16)
(0.121024 0.0174358 -9.52759e-16)
(0.107059 0.0141449 6.80188e-16)
(0.092523 0.0121951 -3.97094e-16)
(0.0763905 0.00988774 -9.70967e-16)
(0.0636999 0.00859975 7.40012e-16)
(0.0468508 0.0079019 6.87327e-16)
(0.0298297 0.00718367 -2.50092e-16)
(0.0139482 0.00719461 -5.40613e-17)
(-0.00434965 0.0075438 5.66639e-16)
(-0.0210436 0.00875093 -3.03348e-16)
(-0.0370895 0.00961782 2.52979e-16)
(-0.0513211 0.0105515 1.32555e-16)
(-0.0611889 0.0110512 -1.31919e-15)
(-0.0674096 0.0104966 -9.99351e-16)
(-0.0685294 0.00878402 -4.77214e-16)
(-0.0588169 0.0061102 -3.382e-16)
(-0.039019 0.00296722 -1.11732e-15)
(0.00499061 -0.000878675 4.78427e-16)
(0.0871349 -0.0163844 1.10528e-15)
(0.149862 -0.00960472 2.34785e-15)
(0.272206 0.0857827 2.89223e-15)
(0.462328 0.307521 -2.64784e-16)
(0.509098 0.187317 1.70103e-15)
(0.308954 -0.302643 6.32697e-16)
(0.276375 -0.355542 1.15637e-15)
(0.365539 -0.0809342 -5.53277e-17)
(0.210992 -0.0456679 -1.0238e-15)
(0.295931 -0.00255875 -1.49947e-15)
(1.66345 -0.199908 -1.27142e-15)
(-0.588091 2.53969 7.90174e-16)
(-3.54062 -1.69308 2.85199e-15)
(-3.84668 -4.49863 6.13935e-15)
(-1.0176 -1.87518 -1.11837e-15)
(-0.0843223 0.206526 -4.08924e-16)
(0.102493 0.0417206 -4.13245e-17)
(0.107177 0.0345476 1.74077e-15)
(0.0998326 0.00823923 8.99808e-16)
(0.128636 0.0151067 -1.65332e-16)
(0.133132 0.0158565 -7.78045e-16)
(0.131843 0.0101757 1.69194e-15)
(0.132552 0.00366093 1.18723e-15)
(0.121605 0.0053917 1.30494e-15)
(0.104207 0.00163574 -4.09411e-17)
(0.0868585 -0.000130792 -2.22385e-16)
(0.0669034 -0.000970822 4.1668e-16)
(0.0441375 -0.00190181 3.76256e-16)
(0.0252361 -0.00125786 3.6863e-16)
(0.00444707 -0.000959578 -1.79386e-17)
(-0.0167682 0.000582192 -8.5367e-17)
(-0.039766 0.00301891 -2.19295e-16)
(-0.0639076 0.00560516 3.5785e-16)
(-0.0852299 0.00783919 2.25051e-16)
(-0.103223 0.010127 3.18956e-16)
(-0.115048 0.0117096 -3.63699e-16)
(-0.117469 0.0115235 -6.57179e-16)
(-0.105328 0.00898862 6.8551e-16)
(-0.0771819 0.00305226 5.18247e-16)
(-0.033248 -0.00580764 -6.70273e-16)
(0.0151692 -0.0159515 -9.67785e-16)
(0.0481984 -0.0254622 -9.10967e-16)
(0.119761 -0.0442399 -1.82515e-15)
(0.192218 -0.0619871 -5.14757e-17)
(0.257739 -0.0801878 1.11159e-15)
(0.307049 -0.137238 -7.21263e-16)
(0.44421 -0.190469 1.69218e-16)
(0.614193 -0.159418 -1.10969e-16)
(0.781138 -0.168682 8.92037e-16)
(0.816188 -0.186634 -6.50341e-16)
(0.908449 -0.215322 -4.20831e-16)
(2.22046 -0.28724 1.07951e-16)
(-0.197626 -0.393063 1.46006e-16)
(-1.69493 2.19519 -1.30509e-15)
(-3.20296 -0.154081 -7.49928e-15)
(-3.90438 -5.31472 2.76063e-15)
(-1.93519 -2.72296 1.0359e-15)
(-0.207075 -0.0131732 4.39527e-16)
(0.0863954 0.101607 1.61951e-15)
(0.0628075 0.0302351 3.79679e-16)
(0.0592464 -0.012046 -4.4476e-16)
(0.0830089 0.000993487 -9.17733e-17)
(0.0932169 0.00957724 -1.32997e-15)
(0.101576 0.00169253 5.51164e-16)
(0.0941121 0.0077446 -3.04822e-17)
(0.0766158 0.00495625 3.02862e-16)
(0.05763 0.00322354 7.38626e-16)
(0.0353602 0.00335987 -1.82442e-17)
(0.013101 0.00189944 -2.80048e-16)
(-0.00951702 0.00217734 -5.80348e-17)
(-0.0336221 0.00202749 8.57507e-18)
(-0.0575317 0.00346456 1.42032e-16)
(-0.0829837 0.00581695 2.60279e-16)
(-0.110879 0.0087159 -9.51039e-17)
(-0.135325 0.0107102 1.26125e-16)
(-0.155992 0.0125322 -2.85279e-16)
(-0.169664 0.0134222 1.79969e-16)
(-0.173959 0.0123976 5.429e-16)
(-0.166611 0.00929827 -2.7632e-16)
(-0.147193 0.00297885 -3.4647e-16)
(-0.114924 -0.00555413 1.84816e-16)
(-0.0682721 -0.0171255 6.87651e-16)
(-0.00572694 -0.0314916 -3.15801e-16)
(0.0775459 -0.0527026 -2.59156e-16)
(0.177394 -0.0801315 -4.9328e-17)
(0.292981 -0.115316 1.27597e-16)
(0.421527 -0.156849 -5.57393e-16)
(0.556696 -0.187491 -1.43941e-15)
(0.7063 -0.207154 4.81125e-17)
(0.92523 -0.237695 4.90799e-16)
(1.05689 -0.279449 8.96695e-17)
(1.23418 -0.316897 7.97955e-16)
(2.55866 -0.317711 1.41531e-16)
(-0.550185 -0.0894729 -2.68719e-16)
(-0.917556 0.496008 2.58529e-17)
(-0.904988 2.25951 1.71348e-15)
(-2.36078 -0.661345 -7.72982e-16)
(-4.10034 -4.79844 -1.55036e-15)
(-2.68864 -3.18067 2.52367e-15)
(-0.549503 -0.384515 9.48946e-16)
(0.0513852 0.099759 3.85923e-16)
(0.0107342 -0.000428529 -2.60979e-16)
(0.040542 -0.00381474 4.97965e-16)
(0.0373699 -0.0126338 7.73991e-16)
(0.0575092 -0.011402 -8.80934e-16)
(0.0639188 0.00366507 7.54466e-16)
(0.0501798 0.00586991 4.0766e-16)
(0.0337496 0.00473605 1.09833e-16)
(0.0116164 0.00725679 -3.9413e-16)
(-0.0121572 0.00633284 -3.70249e-16)
(-0.0365542 0.00773022 -2.09155e-16)
(-0.0621292 0.00789672 3.93408e-17)
(-0.0875841 0.00987919 -5.24164e-17)
(-0.114461 0.012286 -3.22143e-17)
(-0.144876 0.0152815 -8.16148e-17)
(-0.172029 0.0168702 -1.78385e-16)
(-0.19605 0.0177992 -4.43266e-18)
(-0.214037 0.0174082 -7.5381e-16)
(-0.223536 0.0146417 -3.1503e-16)
(-0.221875 0.00984088 3.92503e-16)
(-0.20708 0.00145073 2.59626e-16)
(-0.176914 -0.00955783 6.16435e-16)
(-0.129322 -0.0244347 -3.72798e-16)
(-0.0656597 -0.0426506 4.88982e-16)
(0.0177255 -0.0666601 -5.24014e-16)
(0.120237 -0.0974475 -4.22945e-16)
(0.241027 -0.136408 4.45391e-16)
(0.380099 -0.180535 -1.16759e-16)
(0.532325 -0.224834 -8.53345e-17)
(0.700392 -0.266939 -5.51499e-16)
(0.942602 -0.297084 4.67473e-16)
(1.14196 -0.358818 -2.20227e-16)
(1.39038 -0.418143 -9.10603e-17)
(2.56364 -0.410914 6.90795e-16)
(-0.499472 0.130374 2.16247e-16)
(-0.740942 -0.013016 -1.3641e-16)
(-0.857771 1.00396 -1.26334e-16)
(-0.757257 2.37931 8.34285e-16)
(-2.07436 -0.0972336 1.90761e-16)
(-3.91307 -3.85845 -4.34591e-16)
(-3.33359 -3.5393 -5.87791e-16)
(-1.19019 -1.13444 -1.3124e-15)
(-0.0181834 0.155179 2.63276e-16)
(-0.00358734 0.0301775 -9.48728e-17)
(0.00951801 -0.00545864 4.25597e-16)
(0.00438067 -0.0324967 1.94254e-16)
(0.024988 -0.00987364 -3.67246e-16)
(0.0244313 0.00556362 -6.07621e-16)
(0.0154706 0.00544481 2.0107e-16)
(-0.00219801 0.0117472 3.06002e-18)
(-0.0242463 0.0110856 -1.62425e-16)
(-0.0481383 0.0133287 -2.36586e-16)
(-0.0739552 0.0135215 -4.44549e-17)
(-0.100367 0.0157848 4.65084e-17)
(-0.128714 0.0181137 1.31e-16)
(-0.16138 0.0210289 -2.56413e-16)
(-0.19128 0.0221299 -5.60079e-17)
(-0.218632 0.022227 4.1013e-16)
(-0.240703 0.020542 2.3948e-16)
(-0.254787 0.01601 -2.51403e-16)
(-0.257785 0.00886946 2.42636e-16)
(-0.247007 -0.00237292 1.85741e-16)
(-0.219971 -0.0168077 -3.58834e-16)
(-0.174902 -0.0353939 2.17812e-16)
(-0.114636 -0.0579225 -2.94648e-17)
(-0.0356741 -0.086613 7.29378e-16)
(0.06316 -0.122517 1.5585e-16)
(0.181421 -0.166505 -7.02706e-17)
(0.31977 -0.216131 1.29582e-16)
(0.473695 -0.270273 2.98871e-16)
(0.645607 -0.323512 -1.21935e-16)
(0.884269 -0.360149 2.07163e-16)
(1.08042 -0.454073 9.89763e-17)
(1.41748 -0.491623 -2.30471e-16)
(2.34606 -0.50805 -2.08021e-16)
(-0.524726 0.114304 -3.46315e-17)
(-0.527851 0.149197 1.82102e-17)
(-0.729144 0.147532 4.60411e-17)
(-0.741827 1.23549 2.47828e-16)
(-0.58336 2.29401 -8.93872e-16)
(-1.6054 0.592811 1.1324e-16)
(-3.41298 -2.69326 -5.43835e-16)
(-3.71352 -3.57895 -8.66377e-16)
(-1.9791 -1.87058 1.59858e-16)
(-0.348666 -0.159106 -3.00644e-16)
(0.027309 0.118994 1.88642e-17)
(-0.0294668 -0.0110998 2.43626e-18)
(-0.00803353 -0.0101813 -1.71852e-17)
(-0.0122341 -0.00829353 -3.22261e-16)
(-0.00765679 0.000783285 1.24241e-17)
(-0.0123748 0.0160915 -1.79493e-16)
(-0.0294959 0.0161446 -1.07739e-16)
(-0.0499331 0.0199153 -8.35834e-17)
(-0.0742314 0.0201408 -3.89168e-17)
(-0.100394 0.022501 5.48585e-17)
(-0.129627 0.024581 5.12651e-17)
(-0.163906 0.0273111 3.09245e-17)
(-0.196154 0.0277135 -6.01116e-18)
(-0.226404 0.0267798 -1.67909e-16)
(-0.251993 0.023485 1.24529e-16)
(-0.27001 0.0168412 4.7663e-16)
(-0.277211 0.00686322 -3.97859e-16)
(-0.270621 -0.00765373 -4.51632e-16)
(-0.247644 -0.0259555 -1.66192e-16)
(-0.206558 -0.0485849 1.77095e-16)
(-0.150787 -0.075743 3.4989e-16)
(-0.078265 -0.10964 -1.04683e-16)
(0.0136914 -0.150788 -2.29291e-16)
(0.124719 -0.19947 -3.61678e-16)
(0.254939 -0.254424 -1.54672e-16)
(0.400016 -0.316247 5.77536e-16)
(0.563347 -0.378589 2.87527e-16)
(0.782531 -0.424971 -5.67335e-17)
(0.994897 -0.52486 4.23384e-16)
(1.2907 -0.583222 -2.76452e-16)
(1.98716 -0.597316 -1.92424e-16)
(-0.454553 0.112481 6.83518e-17)
(-0.467634 0.173003 -3.56666e-17)
(-0.461597 0.148346 -9.11797e-17)
(-0.638742 0.255637 -3.88942e-16)
(-0.58355 1.12836 -3.37362e-16)
(-0.40335 2.11099 2.98202e-16)
(-1.04561 1.27138 3.71109e-16)
(-2.67727 -1.43245 -1.11256e-16)
(-3.7241 -3.26352 8.1155e-16)
(-2.74117 -2.39942 -4.50987e-16)
(-1.03752 -0.797986 2.37395e-16)
(-0.0482268 0.109215 -6.17596e-17)
(-0.0505999 0.0212958 5.85865e-16)
(-0.0383523 9.66264e-05 -6.41993e-16)
(-0.0336685 -0.0013362 1.31027e-16)
(-0.0344059 0.00768995 -1.59796e-16)
(-0.0386659 0.016947 -7.40419e-18)
(-0.0486918 0.0263333 8.3166e-17)
(-0.0691311 0.0272032 -1.90989e-18)
(-0.0928909 0.0301401 -1.86992e-16)
(-0.121641 0.032129 1.83515e-16)
(-0.156561 0.0348261 -1.43003e-16)
(-0.190541 0.0344576 -1.22693e-16)
(-0.22321 0.0323856 1.96679e-16)
(-0.251965 0.0272119 -1.35855e-16)
(-0.273684 0.0181086 -1.42471e-16)
(-0.285135 0.00486278 -1.09062e-16)
(-0.283217 -0.013384 -8.54044e-17)
(-0.265155 -0.0360166 -4.75126e-18)
(-0.229082 -0.0631049 1.74021e-16)
(-0.17827 -0.0949902 5.95338e-17)
(-0.113457 -0.134186 1.60004e-16)
(-0.0302702 -0.180332 -2.17906e-16)
(0.0705655 -0.233239 -3.6255e-16)
(0.187948 -0.292822 -1.94473e-16)
(0.317573 -0.360345 4.10596e-16)
(0.463028 -0.429746 1.81449e-17)
(0.64934 -0.488204 -6.06576e-18)
(0.842916 -0.587682 1.75327e-16)
(1.07145 -0.648067 2.49976e-16)
(1.54963 -0.660984 -1.75354e-16)
(-0.386294 0.116544 -2.3095e-17)
(-0.405696 0.152884 7.30861e-17)
(-0.360327 0.172775 -1.7964e-17)
(-0.440742 0.195173 1.40554e-18)
(-0.552924 0.303855 1.23018e-16)
(-0.487513 0.938949 5.99691e-16)
(-0.266007 1.84908 -4.79461e-16)
(-0.526019 1.66255 -7.96256e-16)
(-1.80461 -0.169933 1.52503e-16)
(-3.23054 -2.30172 4.36987e-16)
(-3.237 -2.65482 1.44341e-15)
(-1.88128 -1.49539 -1.60827e-15)
(-0.520825 -0.268467 6.54587e-16)
(-0.0256736 0.109998 -1.43783e-16)
(-0.0672158 0.0179649 -3.93533e-16)
(-0.0527003 0.0119703 4.51655e-16)
(-0.0547454 0.0148849 2.89207e-17)
(-0.0586166 0.0225043 3.63988e-16)
(-0.0678524 0.0307103 -2.15703e-16)
(-0.0832708 0.0375143 -2.08309e-16)
(-0.109003 0.0402803 2.65573e-16)
(-0.143099 0.0436445 -7.55624e-17)
(-0.178048 0.0428168 -1.80622e-16)
(-0.212742 0.0397664 5.65142e-17)
(-0.2447 0.0327099 7.60946e-17)
(-0.270479 0.0209416 -5.94932e-17)
(-0.286794 0.00410598 -1.0279e-16)
(-0.290485 -0.0182927 2.3032e-16)
(-0.278568 -0.0457312 2.61467e-16)
(-0.249025 -0.0778514 -1.46457e-16)
(-0.203701 -0.114402 -2.23236e-16)
(-0.147809 -0.158873 -8.79239e-17)
(-0.0748422 -0.209742 1.67183e-16)
(0.0139049 -0.266323 9.66884e-17)
(0.115637 -0.329393 -3.756e-17)
(0.225747 -0.400111 -1.14989e-16)
(0.346489 -0.473527 2.69545e-16)
(0.491053 -0.541568 -2.70319e-16)
(0.641226 -0.634611 5.0438e-17)
(0.803831 -0.686185 5.84842e-17)
(1.10056 -0.702864 1.8482e-16)
(-0.31986 0.11306 -4.59815e-17)
(-0.339669 0.14483 1.33265e-17)
(-0.304111 0.147529 -1.65332e-17)
(-0.322897 0.194907 -1.74975e-16)
(-0.397142 0.234559 6.1429e-17)
(-0.472433 0.310738 -5.81918e-18)
(-0.421137 0.735206 -1.26287e-16)
(-0.194593 1.51396 4.88262e-16)
(-0.202781 1.80708 -2.27333e-16)
(-0.988919 0.778087 6.48061e-16)
(-2.36081 -1.11192 4.07495e-17)
(-3.19202 -2.3381 -2.92548e-16)
(-2.58196 -1.93102 9.07085e-17)
(-1.29394 -0.891325 -2.92396e-16)
(-0.290826 -0.055092 -4.14391e-16)
(-0.0482099 0.0888044 4.14954e-17)
(-0.0781098 0.0265489 1.80271e-16)
(-0.0688466 0.0251302 2.98542e-16)
(-0.0736288 0.029866 -3.55511e-17)
(-0.0822559 0.0364881 -2.52089e-16)
(-0.0984842 0.0452879 2.37098e-16)
(-0.126672 0.0524787 1.33102e-17)
(-0.160711 0.0525449 -4.48156e-17)
(-0.196917 0.0492781 1.02246e-16)
(-0.232444 0.0408252 1.37943e-16)
(-0.263312 0.0265488 1.75414e-16)
(-0.286004 0.00607853 3.23619e-17)
(-0.297168 -0.0209337 1.67678e-17)
(-0.293594 -0.0537736 -1.12318e-16)
(-0.272895 -0.0916932 6.51055e-18)
(-0.234865 -0.133128 -1.31718e-16)
(-0.18892 -0.18279 4.0874e-17)
(-0.127806 -0.238154 -6.03489e-17)
(-0.0526112 -0.297821 -8.42759e-17)
(0.0319916 -0.362666 5.89659e-17)
(0.120545 -0.433427 7.72234e-17)
(0.21213 -0.506601 3.40081e-17)
(0.310546 -0.577206 1.89232e-17)
(0.404486 -0.658672 -8.53746e-17)
(0.4955 -0.709089 1.64096e-16)
(0.64849 -0.695188 2.5847e-17)
(-0.259219 0.107871 1.53821e-16)
(-0.278084 0.134044 -4.55753e-17)
(-0.255003 0.137151 -1.48123e-16)
(-0.255095 0.160098 1.74165e-16)
(-0.289779 0.214804 1.969e-17)
(-0.345269 0.257399 1.50158e-17)
(-0.397145 0.306717 4.39233e-16)
(-0.364555 0.565345 -8.60768e-16)
(-0.173873 1.14909 -1.9734e-16)
(-0.0179924 1.66236 1.5102e-15)
(-0.360086 1.32647 3.87492e-17)
(-1.3665 0.0913996 -1.22671e-16)
(-2.54003 -1.40843 -6.68762e-16)
(-2.83378 -1.94829 4.49786e-16)
(-2.06384 -1.4006 -1.06124e-15)
(-0.942308 -0.53486 2.289e-16)
(-0.212458 0.0218116 -4.34542e-17)
(-0.0707724 0.0802023 2.64066e-16)
(-0.0883573 0.0365189 -1.10797e-16)
(-0.0832525 0.0378164 -2.89439e-16)
(-0.0926003 0.0460758 1.82497e-16)
(-0.114326 0.0551095 -5.95029e-17)
(-0.142801 0.0598268 -8.14019e-17)
(-0.176785 0.0595746 1.14112e-16)
(-0.214725 0.0516946 1.09044e-16)
(-0.251519 0.0361202 -9.73416e-17)
(-0.282704 0.0124745 5.47919e-17)
(-0.3042 -0.019058 1.11174e-16)
(-0.312445 -0.0577664 4.53763e-17)
(-0.304485 -0.102428 -6.1459e-17)
(-0.279042 -0.150942 5.231e-17)
(-0.243651 -0.204923 6.88339e-17)
(-0.196949 -0.264994 6.74219e-17)
(-0.137095 -0.327178 6.52537e-17)
(-0.0705303 -0.391919 1.29454e-16)
(-0.00367755 -0.458696 -1.4213e-16)
(0.0580518 -0.525613 4.73504e-17)
(0.111018 -0.58767 7.09713e-18)
(0.146553 -0.648639 2.96937e-18)
(0.161411 -0.676016 -2.09123e-17)
(0.182183 -0.634095 -2.53223e-17)
(-0.206057 0.100606 3.03598e-17)
(-0.222012 0.122616 1.07742e-16)
(-0.207792 0.125029 8.80976e-17)
(-0.207502 0.14224 -3.85854e-17)
(-0.214176 0.168739 -4.93501e-17)
(-0.249589 0.222451 1.04963e-16)
(-0.289923 0.268985 9.24467e-17)
(-0.325994 0.304188 -2.6542e-16)
(-0.310747 0.442745 3.62825e-16)
(-0.178836 0.827064 -5.41017e-16)
(0.0267294 1.35376 -1.09776e-15)
(0.00666182 1.51049 -2.6033e-16)
(-0.534141 0.896744 3.90268e-16)
(-1.55569 -0.308145 -4.67576e-16)
(-2.41674 -1.35161 -4.37834e-16)
(-2.44466 -1.541 6.06036e-16)
(-1.68502 -1.02072 -1.14877e-16)
(-0.759223 -0.347166 6.55772e-16)
(-0.202923 0.042971 5.70269e-17)
(-0.0857913 0.0803969 -3.60258e-16)
(-0.0974459 0.0494277 4.23709e-17)
(-0.105671 0.0561081 -3.52675e-17)
(-0.125759 0.0633551 -1.96819e-17)
(-0.155447 0.0662533 -1.02757e-16)
(-0.1921 0.0619812 2.31564e-16)
(-0.232269 0.0486333 -1.33884e-17)
(-0.271879 0.0245296 -8.85379e-17)
(-0.306039 -0.00997396 4.7668e-19)
(-0.330318 -0.0541262 -3.16958e-17)
(-0.340582 -0.106246 2.54211e-17)
(-0.334017 -0.163189 -1.42308e-16)
(-0.312447 -0.222022 2.57642e-17)
(-0.285858 -0.287479 8.59276e-17)
(-0.24576 -0.353065 1.25137e-16)
(-0.199212 -0.416549 9.11124e-17)
(-0.153705 -0.475508 -8.96278e-17)
(-0.119126 -0.52832 -1.06731e-16)
(-0.104241 -0.568805 -7.01884e-17)
(-0.118302 -0.597607 -1.83666e-16)
(-0.170328 -0.583786 -1.82425e-16)
(-0.252287 -0.50217 -1.1193e-16)
(-0.160322 0.0919863 7.92228e-17)
(-0.173298 0.110777 8.49084e-17)
(-0.164105 0.112748 -1.55087e-16)
(-0.166399 0.127512 -4.42628e-17)
(-0.167177 0.143753 1.2886e-16)
(-0.18112 0.174847 -3.89324e-17)
(-0.207387 0.223701 -9.69313e-17)
(-0.234283 0.26959 3.28118e-17)
(-0.258233 0.299862 9.88069e-16)
(-0.256219 0.368092 -3.42005e-16)
(-0.178553 0.584981 -8.2558e-16)
(-0.00385701 0.978042 1.00633e-15)
(0.141282 1.33239 4.78239e-16)
(-0.00428092 1.26402 6.21248e-17)
(-0.623856 0.581651 1.34361e-16)
(-1.53256 -0.416008 -3.45049e-16)
(-2.1377 -1.10873 -1.13038e-16)
(-2.07972 -1.19154 2.22406e-16)
(-1.43157 -0.769993 5.074e-16)
(-0.674811 -0.254102 -7.06841e-16)
(-0.22403 0.0451638 2.19889e-17)
(-0.118026 0.0928544 -1.9445e-17)
(-0.118944 0.0752185 -6.12074e-17)
(-0.137365 0.0705682 -3.85326e-17)
(-0.165413 0.069838 1.64198e-16)
(-0.203501 0.0615219 8.39614e-17)
(-0.2484 0.0408697 -1.4819e-16)
(-0.293952 0.00741472 -7.41547e-17)
(-0.335415 -0.0385463 2.71487e-17)
(-0.367926 -0.0958279 -3.09404e-17)
(-0.386568 -0.160598 5.8769e-17)
(-0.389498 -0.228328 -3.12524e-17)
(-0.386469 -0.298611 5.28833e-17)
(-0.37523 -0.369777 -1.13748e-17)
(-0.355265 -0.432441 -1.11306e-16)
(-0.334244 -0.482487 -2.38892e-17)
(-0.322954 -0.516332 2.20671e-17)
(-0.331411 -0.524856 6.2765e-17)
(-0.376153 -0.509111 -2.04564e-17)
(-0.47131 -0.441755 -4.54877e-17)
(-0.609804 -0.309599 -1.68866e-17)
(-0.122452 0.0824863 -6.60951e-17)
(-0.132202 0.0984403 4.32099e-17)
(-0.12592 0.100444 -9.08186e-18)
(-0.128849 0.112674 -1.47106e-16)
(-0.130671 0.126688 1.58743e-17)
(-0.133565 0.142897 7.3062e-17)
(-0.147444 0.174515 -1.14288e-16)
(-0.164983 0.217481 -2.07165e-16)
(-0.1814 0.26052 1.79705e-17)
(-0.196158 0.291625 -2.71849e-16)
(-0.199513 0.326857 3.87008e-16)
(-0.159679 0.4307 5.03994e-17)
(-0.0420538 0.673041 -2.51611e-16)
(0.129256 1.00679 -2.78115e-16)
(0.209648 1.20569 3.24321e-16)
(0.0287916 1.07775 4.39133e-16)
(-0.586661 0.411379 -1.48182e-15)
(-1.32828 -0.36292 1.20642e-15)
(-1.78344 -0.817544 1.93224e-16)
(-1.7277 -0.868058 -5.15786e-16)
(-1.25597 -0.596201 3.38416e-16)
(-0.703376 -0.231327 -1.08672e-16)
(-0.324161 0.0235013 -9.49706e-17)
(-0.194844 0.105716 -5.4201e-17)
(-0.174193 0.103544 2.63976e-16)
(-0.182479 0.0833608 1.1591e-17)
(-0.211401 0.0611459 -3.10536e-17)
(-0.259518 0.0328404 -1.82489e-16)
(-0.313293 -0.00916069 1.1044e-16)
(-0.366605 -0.0658571 2.04687e-16)
(-0.414243 -0.134594 -1.90712e-17)
(-0.451104 -0.209811 -7.18351e-17)
(-0.473418 -0.284592 -2.79622e-17)
(-0.497856 -0.359552 -6.02591e-18)
(-0.515209 -0.42812 -1.15309e-16)
(-0.527847 -0.475354 4.22274e-17)
(-0.54213 -0.492245 -1.82503e-18)
(-0.564549 -0.466137 -5.09453e-17)
(-0.620669 -0.402473 4.39056e-18)
(-0.719336 -0.278768 3.8993e-17)
(-0.860545 -0.0898852 4.44145e-17)
(-0.0916941 0.0725872 7.6904e-17)
(-0.0985073 0.086092 -5.84753e-17)
(-0.0938838 0.0881267 -7.10157e-17)
(-0.0962695 0.0984191 -2.39916e-17)
(-0.098281 0.109914 1.72431e-16)
(-0.0996181 0.121767 -2.5533e-17)
(-0.102576 0.13836 4.93977e-17)
(-0.114167 0.169247 1.706e-16)
(-0.12453 0.205656 7.19656e-17)
(-0.133206 0.244008 -5.16312e-16)
(-0.140217 0.275974 -2.81754e-16)
(-0.142247 0.298954 -9.05912e-17)
(-0.124421 0.343832 -5.17975e-16)
(-0.0580665 0.465521 3.864e-16)
(0.0726676 0.689717 1.37837e-15)
(0.215777 0.92755 -7.45612e-16)
(0.268582 1.02881 -1.99596e-16)
(0.10299 0.923532 2.98248e-16)
(-0.436366 0.392037 -3.31225e-16)
(-0.972917 -0.192851 9.43078e-16)
(-1.41163 -0.584785 -1.73892e-16)
(-1.48825 -0.643738 -4.71789e-16)
(-1.24491 -0.511903 -6.85463e-16)
(-0.870528 -0.28101 3.44765e-16)
(-0.532908 -0.0556529 3.82859e-16)
(-0.349057 0.0720966 3.92729e-17)
(-0.290648 0.103903 2.94518e-17)
(-0.289196 0.0847367 1.68786e-17)
(-0.313997 0.041905 1.45554e-17)
(-0.352395 -0.0149102 9.94084e-17)
(-0.395096 -0.0798133 7.92263e-17)
(-0.450123 -0.15031 -1.45142e-16)
(-0.513221 -0.23196 1.90895e-17)
(-0.563413 -0.310136 -2.06988e-17)
(-0.621245 -0.382196 -7.03573e-17)
(-0.681635 -0.434609 5.55412e-18)
(-0.731297 -0.452404 1.10886e-16)
(-0.770227 -0.412597 -5.89132e-17)
(-0.82465 -0.315045 -3.32987e-17)
(-0.90109 -0.147605 -1.89572e-17)
(-1.00311 0.0934738 1.25339e-17)
(-0.0672759 0.0627857 -2.56547e-17)
(-0.071528 0.0740498 4.45516e-17)
(-0.067745 0.0760711 1.87922e-17)
(-0.0692108 0.0846949 8.56489e-17)
(-0.0706359 0.0941229 -7.82313e-17)
(-0.0717074 0.103926 3.79237e-17)
(-0.0725658 0.114453 -1.89413e-18)
(-0.0764162 0.133797 -4.27308e-17)
(-0.0826074 0.160027 1.75707e-16)
(-0.0875763 0.18971 1.62399e-16)
(-0.0903688 0.221967 -4.54e-16)
(-0.0908957 0.251103 8.21235e-16)
(-0.0895199 0.272549 7.29798e-16)
(-0.0804864 0.293672 -7.20241e-16)
(-0.0473386 0.343585 -4.56057e-16)
(0.0310272 0.458546 -3.47926e-16)
(0.15496 0.638731 8.10914e-16)
(0.271938 0.804446 -7.89233e-16)
(0.319614 0.875477 1.78535e-16)
(0.152362 0.683374 3.896e-16)
(-0.159646 0.406327 -2.62898e-16)
(-0.66673 0.0111608 -2.76215e-16)
(-0.984998 -0.270277 1.22759e-16)
(-1.15988 -0.392156 1.81532e-16)
(-1.12884 -0.376138 -2.96322e-16)
(-0.977254 -0.284911 6.68103e-17)
(-0.769248 -0.154256 2.77539e-16)
(-0.587563 -0.0408713 -4.88593e-16)
(-0.486559 0.0123256 1.34297e-16)
(-0.459536 0.00371953 1.40805e-16)
(-0.476283 -0.0428265 -4.27909e-17)
(-0.515888 -0.107718 -1.34968e-16)
(-0.56397 -0.179431 4.7378e-17)
(-0.608456 -0.248377 1.71095e-16)
(-0.645047 -0.305011 2.62166e-17)
(-0.697457 -0.353964 -3.45882e-18)
(-0.785986 -0.38721 -5.15459e-17)
(-0.863895 -0.369949 -3.13736e-17)
(-0.936801 -0.288303 -6.74435e-17)
(-1.0045 -0.12387 1.79023e-17)
(-1.06299 0.134563 5.05694e-17)
(-0.0483067 0.0533586 -3.58284e-17)
(-0.0505032 0.0627604 4.44187e-17)
(-0.0470896 0.0646507 -3.68332e-17)
(-0.0475314 0.0717539 -1.49421e-16)
(-0.0480657 0.0794108 3.49509e-17)
(-0.0486011 0.0873522 -4.84311e-17)
(-0.0488099 0.0959707 -4.50002e-17)
(-0.0490159 0.106698 2.27125e-17)
(-0.0514826 0.125184 -4.64726e-17)
(-0.0537978 0.146958 8.9831e-18)
(-0.0546777 0.170565 -3.04763e-16)
(-0.0532172 0.195405 2.80145e-16)
(-0.0496003 0.220286 -2.10449e-16)
(-0.0445034 0.24081 -6.75568e-16)
(-0.0368232 0.255479 9.17104e-16)
(-0.0196967 0.274187 3.63004e-16)
(0.0206038 0.318847 2.01335e-16)
(0.0974419 0.409003 -7.11079e-18)
(0.204714 0.533151 -1.83216e-16)
(0.318249 0.658523 -1.50116e-16)
(0.347273 0.679565 -7.01646e-17)
(0.309631 0.64437 1.91183e-16)
(0.094294 0.445378 -3.88654e-16)
(-0.150356 0.228379 -1.32479e-17)
(-0.411636 0.0320381 1.52211e-16)
(-0.59463 -0.0964122 -1.4828e-16)
(-0.689836 -0.146296 -3.90806e-16)
(-0.710074 -0.146384 4.91501e-16)
(-0.68392 -0.124047 5.00311e-16)
(-0.635727 -0.100524 -3.89256e-16)
(-0.594012 -0.095293 -1.19411e-16)
(-0.581092 -0.122333 -6.02864e-17)
(-0.601472 -0.181664 -8.11069e-17)
(-0.643683 -0.257456 2.75845e-16)
(-0.699423 -0.329688 -9.83984e-17)
(-0.758282 -0.379441 -4.68468e-17)
(-0.802984 -0.391307 6.69587e-17)
(-0.845915 -0.369898 -3.05809e-18)
(-0.884392 -0.307266 7.15486e-17)
(-0.914381 -0.195179 5.89196e-17)
(-0.975055 -0.0226196 1.69888e-18)
(-0.0335444 0.0445977 3.09467e-18)
(-0.0342777 0.0524872 5.46983e-17)
(-0.0310935 0.0542065 2.0751e-17)
(-0.0306684 0.0599784 -2.1818e-17)
(-0.0303943 0.0661045 -6.22274e-17)
(-0.0302018 0.0724629 1.35021e-18)
(-0.0298998 0.0793516 4.13493e-17)
(-0.0293644 0.0868588 4.01109e-17)
(-0.0288148 0.0976693 4.34666e-19)
(-0.0292743 0.113913 -9.48377e-17)
(-0.0286841 0.131228 -2.31374e-16)
(-0.0267041 0.148852 2.08408e-16)
(-0.0228024 0.167546 -2.73946e-16)
(-0.0168717 0.186717 -2.03113e-16)
(-0.0093777 0.204146 3.5038e-16)
(-0.000636106 0.217047 2.30708e-16)
(0.0110838 0.226064 3.30625e-16)
(0.0316916 0.239304 -5.72548e-16)
(0.0702713 0.270067 -3.11516e-16)
(0.134013 0.325626 9.93803e-16)
(0.221705 0.402975 -5.0758e-16)
(0.316906 0.483254 -1.1051e-16)
(0.384494 0.524663 1.07483e-16)
(0.393451 0.497883 -3.32321e-16)
(0.3516 0.420801 5.42565e-16)
(0.266738 0.312621 -3.52134e-16)
(0.160708 0.198632 -4.34495e-16)
(0.0568443 0.104836 2.22277e-16)
(-0.0225485 0.0479046 1.62399e-16)
(-0.0713095 0.0256407 6.76662e-16)
(-0.102335 0.0194427 -3.92845e-16)
(-0.135782 0.00811562 -3.17087e-16)
(-0.184901 -0.0216667 2.0612e-16)
(-0.251225 -0.0715958 1.32799e-17)
(-0.337228 -0.139657 -5.20925e-17)
(-0.437981 -0.214655 3.71029e-17)
(-0.545025 -0.283083 2.87765e-18)
(-0.641208 -0.325629 4.88409e-17)
(-0.73136 -0.33263 -5.25585e-17)
(-0.79816 -0.282091 1.47503e-17)
(-0.871619 -0.174007 -1.98736e-17)
(-0.0242034 0.0390343 -2.32315e-17)
(-0.0235946 0.045303 1.94558e-17)
(-0.0204548 0.0468035 4.61575e-18)
(-0.0192235 0.0512735 1.52155e-19)
(-0.0181619 0.0559257 8.2558e-17)
(-0.0172184 0.0607457 -1.28491e-17)
(-0.016277 0.065945 -8.69853e-17)
(-0.0151804 0.0716215 4.82975e-17)
(-0.0139366 0.0780409 2.46347e-16)
(-0.0126508 0.0891758 -2.86978e-16)
(-0.0109691 0.102387 -4.14291e-17)
(-0.0084347 0.115614 4.54027e-16)
(-0.00470729 0.129112 -3.25102e-16)
(0.00055653 0.142903 1.17031e-16)
(0.00749284 0.156858 -6.16533e-17)
(0.0159149 0.170095 -7.37347e-16)
(0.0253482 0.180736 1.28944e-15)
(0.0356942 0.187116 3.94881e-16)
(0.0485639 0.190419 -1.10133e-15)
(0.0682859 0.196044 9.5439e-16)
(0.100664 0.212046 -8.10889e-17)
(0.159263 0.255004 -7.60803e-16)
(0.225846 0.29744 1.28332e-16)
(0.295517 0.332348 3.28689e-16)
(0.355726 0.345134 -5.73119e-16)
(0.398387 0.327625 2.65692e-17)
(0.419828 0.280556 1.06391e-16)
(0.423503 0.214171 5.22365e-17)
(0.415937 0.142739 -4.15112e-16)
(0.403852 0.0800889 3.56599e-16)
(0.392279 0.0363768 5.15992e-16)
(0.385806 0.0168758 -7.92351e-17)
(0.378203 0.0209406 -1.92033e-16)
(0.389644 0.0471634 -3.37313e-16)
(0.372618 0.0660213 7.61315e-17)
(0.336578 0.0813534 2.2249e-17)
(0.26939 0.0839826 5.74218e-17)
(0.174182 0.0777861 1.99019e-17)
(0.0603801 0.073123 7.45278e-17)
(-0.0539864 0.0797156 4.53541e-17)
(-0.186868 0.106197 -3.16446e-17)
(-0.0176962 0.0342827 -2.74975e-17)
(-0.0162231 0.0392243 -4.01505e-17)
(-0.0131958 0.0404769 -3.73306e-18)
(-0.0114839 0.0439079 6.69492e-17)
(-0.00996432 0.0474315 4.40569e-17)
(-0.00855454 0.051069 -2.18803e-17)
(-0.00718257 0.0550013 -2.31327e-18)
(-0.00574533 0.0592696 2.05067e-17)
(-0.0041843 0.0639258 -1.36504e-16)
(-0.00222779 0.0703799 -3.91066e-17)
(4.40627e-05 0.0807446 4.55626e-16)
(0.00306322 0.091085 9.16494e-17)
(0.00679943 0.101408 -6.72375e-16)
(0.0115242 0.111638 1.70345e-16)
(0.0174061 0.121705 2.09979e-16)
(0.0245477 0.131523 -9.29601e-16)
(0.0329232 0.1408 1.52512e-17)
(0.0422596 0.148641 4.8501e-16)
(0.052066 0.153711 5.66565e-16)
(0.062294 0.154967 -3.48758e-16)
(0.0736815 0.153904 1.4894e-16)
(0.0956419 0.162776 3.44593e-16)
(0.1225 0.172335 -6.37972e-16)
(0.156358 0.185022 -2.2492e-16)
(0.194908 0.197413 7.18288e-17)
(0.233796 0.203426 2.18599e-16)
(0.267983 0.196721 -1.13291e-16)
(0.293111 0.17276 2.27086e-16)
(0.307146 0.131019 -1.26604e-16)
(0.311463 0.0760118 -3.72734e-17)
(0.310543 0.0166313 2.57515e-16)
(0.308336 -0.0391676 -1.91158e-16)
(0.327748 -0.0573489 -7.76621e-17)
(0.313027 -0.0853087 2.87901e-16)
(0.339962 -0.0713442 -3.16944e-16)
(0.354094 -0.033234 1.95122e-16)
(0.378899 0.0240816 1.29915e-16)
(0.396211 0.0977284 -2.23332e-16)
(0.414292 0.184358 5.06324e-17)
(0.414843 0.2642 8.48388e-17)
(0.395706 0.342967 1.2884e-17)
(-0.0128851 0.0299475 -6.98862e-18)
(-0.0109347 0.0338654 -1.89085e-17)
(-0.00804547 0.0348814 -9.23552e-18)
(-0.00611977 0.0375101 3.59988e-17)
(-0.00436462 0.0401768 -6.22045e-19)
(-0.00272808 0.0429335 -1.13881e-17)
(-0.0011206 0.0459148 -9.25305e-19)
(0.000497726 0.0491556 9.78591e-18)
(0.00223673 0.0526756 3.8038e-17)
(0.00409894 0.0567068 -4.19652e-17)
(0.00677475 0.0640426 6.04142e-17)
(0.0100085 0.0721439 -7.1665e-17)
(0.0137723 0.0801625 5.62826e-17)
(0.0181672 0.0880103 3.08802e-16)
(0.0233247 0.0955641 -3.92608e-16)
(0.0292882 0.102713 -1.88236e-16)
(0.036108 0.109334 -9.89145e-17)
(0.0437788 0.11531 7.37401e-17)
(0.0521309 0.120289 2.76514e-16)
(0.060902 0.12352 -1.33058e-16)
(0.0692422 0.124411 -3.86755e-16)
(0.0826084 0.129619 3.11301e-16)
(0.0950731 0.130694 3.35822e-16)
(0.10902 0.131217 -5.66544e-16)
(0.125044 0.132294 2.44635e-16)
(0.142745 0.133855 1.74767e-16)
(0.160469 0.134356 -2.94518e-16)
(0.175529 0.131194 5.43109e-16)
(0.185025 0.121553 -1.48172e-16)
(0.186595 0.103417 -4.35379e-16)
(0.178971 0.0762045 -2.73228e-19)
(0.162297 0.0414935 4.8411e-16)
(0.133825 -0.0010482 -3.89656e-16)
(0.113737 -0.0331979 -1.30471e-16)
(0.0856756 -0.0626801 2.76145e-16)
(0.0681054 -0.0751734 2.2889e-17)
(0.0597037 -0.0680943 -5.09668e-17)
(0.0594157 -0.0367372 -2.57611e-17)
(0.066484 0.00732956 2.30391e-17)
(0.11733 0.0809881 -3.37643e-18)
(0.156439 0.177054 4.1695e-17)
(-0.00927216 0.0260769 1.41502e-17)
(-0.00712219 0.0291565 -2.38165e-17)
(-0.00438904 0.0299601 -4.91484e-18)
(-0.00239965 0.0319684 -3.20025e-18)
(-0.000550374 0.0339715 2.00797e-17)
(0.0011811 0.0360539 -1.39904e-17)
(0.00288534 0.0383081 1.74102e-17)
(0.00459407 0.0407673 2.12144e-17)
(0.00637288 0.0434436 -5.41285e-17)
(0.00826518 0.0464161 -3.75751e-17)
(0.0107794 0.0509377 8.62248e-18)
(0.0140368 0.0573543 -8.99409e-17)
(0.0177707 0.0636534 -5.55789e-17)
(0.021914 0.0697064 1.41601e-16)
(0.0265566 0.0754894 1.05047e-16)
(0.0317199 0.0808617 5.06582e-18)
(0.037397 0.0857357 -4.36544e-17)
(0.0435811 0.0899775 -7.70098e-17)
(0.0502091 0.0935427 1.62034e-16)
(0.0572784 0.0962253 1.9948e-16)
(0.0642564 0.0980114 1.42749e-17)
(0.0755959 0.103737 -3.54898e-16)
(0.0853798 0.105964 -3.83749e-17)
(0.094763 0.10649 2.2949e-16)
(0.103944 0.105859 3.08335e-16)
(0.113119 0.104751 -1.58853e-16)
(0.122264 0.103821 -4.01279e-16)
(0.130945 0.103333 -3.41406e-16)
(0.138278 0.103114 1.27207e-16)
(0.142958 0.102434 2.91986e-16)
(0.143496 0.100331 -5.16492e-17)
(0.138549 0.0958336 1.02891e-16)
(0.127697 0.0888158 -2.1436e-17)
(0.109844 0.078616 2.91441e-17)
(0.0871994 0.067073 -1.9797e-16)