/*--------------------------------*- C++ -*----------------------------------*\
| =========                 |                                                 |
| \\      /  F ield         | OpenFOAM: The Open Source CFD Toolbox           |
|  \\    /   O peration     | Version:  2312                                  |
|   \\  /    A nd           | Website:  www.openfoam.com                      |
|    \\/     M anipulation  |                                                 |
\*---------------------------------------------------------------------------*/
FoamFile
{
    version     2.0;
    format      ascii;
    arch        "LSB;label=32;scalar=64";
    class       volScalarField;
    location    "600";
    object      nut;
}
// * * * * * * * * * * * * * * * * * * * * * * * * * * * * * * * * * * * * * //

dimensions      [0 2 -1 0 0 0 0];

internalField   nonuniform List<scalar> 
11040
(
3.77555e-05
5.4897e-05
1.55952e-05
4.72195e-05
0.000185924
0.000179665
0.000169788
0.000159493
0.000146535
0.000138386
0.000129978
0.000122567
0.000115848
0.000110531
0.000105849
0.000103267
0.000102805
0.000104444
0.00010772
0.000112431
0.000118645
0.000126118
0.000134518
0.00014361
0.000153523
0.000165303
0.000178679
0.00019162
0.000203598
0.000214
0.00022222
0.000227839
0.000232474
0.000242511
0.000261322
0.000234342
0.00016587
0.000180608
0.000199127
0.00021855
0.000287007
4.16514e-06
3.67577e-05
5.59541e-05
0.000141326
0.000597058
0.00062692
0.000550292
0.000506999
0.000440298
0.000404659
0.00036802
0.000339489
0.000312781
0.000292843
0.000273803
0.000260763
0.000254399
0.000254093
0.000256974
0.000261673
0.000268309
0.000276808
0.000285448
0.000293023
0.000300677
0.000316859
0.000345635
0.0003787
0.000415868
0.000457189
0.00050289
0.000553189
0.000607521
0.000667859
0.000735166
0.000800807
0.000868736
0.000957285
0.00106332
0.00114119
0.00157508
5.52365e-06
9.39274e-06
3.00913e-05
6.45751e-05
0.000409479
0.000957907
0.00118118
0.00114343
0.000999946
0.000925095
0.000841912
0.000780536
0.000720792
0.000677911
0.000635736
0.000602648
0.000577266
0.000558056
0.000547217
0.000543693
0.000548871
0.000563875
0.000589421
0.000626428
0.000674951
0.000734695
0.000805404
0.000886422
0.000977344
0.00107739
0.00118551
0.00130111
0.00142363
0.0015536
0.0016919
0.00183808
0.00199913
0.00219502
0.00243354
0.00265421
0.00341921
6.47265e-06
5.15416e-06
1.06415e-05
1.11987e-05
0.000137955
0.000591333
0.00129459
0.00169871
0.00176997
0.00168078
0.00153585
0.00143503
0.00132947
0.00125304
0.00117708
0.00111504
0.00106917
0.00103302
0.0010121
0.00100456
0.00101219
0.00103807
0.0010847
0.00115335
0.00124333
0.00135328
0.00148227
0.00162905
0.00179264
0.00197177
0.00216474
0.00237002
0.00258635
0.00281395
0.00305383
0.00330863
0.0035897
0.00392638
0.0043385
0.00476663
0.00585063
6.19509e-06
5.76091e-06
6.39618e-06
5.41861e-06
4.80677e-06
0.000176137
0.000704359
0.00155043
0.00224064
0.00245269
0.00246551
0.00235755
0.00219122
0.00207485
0.00195897
0.00185656
0.00178452
0.00172533
0.00169019
0.00167704
0.001686
0.00172258
0.00179272
0.00189859
0.00203921
0.00221291
0.00241785
0.00265147
0.00291159
0.00319601
0.00350139
0.00382473
0.00416379
0.00451817
0.00488878
0.00528024
0.00570845
0.00621702
0.00683981
0.00753719
0.0089198
6.09006e-06
6.1827e-06
5.88775e-06
6.60188e-06
1.69906e-06
8.88333e-07
0.000171907
0.000728146
0.00170623
0.00271408
0.00318973
0.00335981
0.0033473
0.00323538
0.00305408
0.00289191
0.00278559
0.00269407
0.00263653
0.00261465
0.00262299
0.00266881
0.00276452
0.00291433
0.00311691
0.0033706
0.00367251
0.00401791
0.00440215
0.00482187
0.00527104
0.00574413
0.00623722
0.00674883
0.00727914
0.00783424
0.00843554
0.0091403
0.0100048
0.0110254
0.0127378
6.10359e-06
6.13681e-06
6.01106e-06
6.35235e-06
5.9449e-06
4.25795e-07
3.1575e-09
0.000119963
0.000659713
0.0017046
0.00299948
0.00393064
0.00431079
0.00445499
0.00444506
0.00434011
0.00418633
0.00403188
0.00393839
0.00390334
0.0039095
0.00396132
0.00408209
0.00428079
0.00455529
0.00490478
0.00532584
0.00581076
0.00634967
0.00693812
0.00756604
0.00822332
0.00890329
0.00960288
0.0103202
0.0110619
0.0118551
0.0127696
0.0138949
0.0152721
0.0173599
6.11422e-06
6.11133e-06
6.1315e-06
6.04575e-06
6.56781e-06
6.07652e-06
1.73338e-08
2.40709e-11
5.33167e-05
0.000515265
0.00152419
0.00301885
0.00447237
0.00528201
0.0056494
0.00579372
0.00581715
0.00576396
0.00569264
0.00563763
0.00564132
0.00570847
0.00585673
0.00610899
0.00646291
0.00692111
0.00748188
0.00813587
0.0088615
0.00965416
0.0104985
0.011376
0.0122755
0.0131918
0.0141191
0.0150619
0.0160536
0.017174
0.0185523
0.0202838
0.0227749
6.11257e-06
6.11614e-06
6.11125e-06
6.13152e-06
5.99116e-06
7.17707e-06
5.40673e-06
1.00727e-07
3.3406e-07
6.65024e-07
0.000317155
0.00119029
0.00272403
0.0046003
0.00610544
0.00686393
0.00726489
0.00746878
0.00759081
0.00767529
0.00777986
0.00793309
0.00817454
0.00853159
0.00900332
0.00958943
0.0102991
0.0111351
0.0120777
0.0131087
0.0142077
0.0153423
0.0164909
0.0176478
0.0188006
0.0199451
0.0211231
0.0224256
0.0240008
0.0260311
0.028885
6.1123e-06
6.11364e-06
6.11328e-06
6.11733e-06
6.09688e-06
6.03731e-06
7.38336e-06
4.8968e-06
4.30596e-07
1.56054e-08
4.21143e-11
0.000147021
0.000786893
0.00216764
0.00421862
0.0064078
0.00795822
0.00876769
0.0092825
0.00965079
0.00999464
0.0103624
0.0108148
0.0113961
0.0121233
0.012993
0.0139917
0.0150991
0.0162981
0.0175913
0.0189746
0.0203946
0.0218077
0.0232112
0.0245893
0.0259123
0.0272321
0.0286567
0.0303223
0.0325128
0.0355912
6.11138e-06
6.11177e-06
6.11264e-06
6.10789e-06
6.12568e-06
6.05199e-06
6.17198e-06
7.06821e-06
5.83476e-06
1.07112e-06
6.79651e-09
9.52559e-07
6.46258e-07
0.000384985
0.00144505
0.00336547
0.00592007
0.00842887
0.010137
0.0111418
0.0119201
0.0126183
0.0133657
0.0142467
0.0153136
0.0165802
0.0180384
0.019665
0.0214207
0.0232525
0.0250916
0.026864
0.0285412
0.0301756
0.0317726
0.0332227
0.0345856
0.0360348
0.0376447
0.0397212
0.0427127
6.1101e-06
6.10991e-06
6.10943e-06
6.10982e-06
6.10631e-06
6.11566e-06
6.05739e-06
6.16012e-06
6.78261e-06
6.46827e-06
2.55608e-06
2.10664e-09
1.87799e-09
2.98304e-05
0.000111698
0.000755534
0.00224766
0.00470085
0.00777573
0.0107179
0.0128045
0.0141874
0.0153876
0.0166317
0.0180612
0.0197341
0.0216636
0.0238398
0.0262225
0.0287508
0.0313507
0.033937
0.0364143
0.0386899
0.0406421
0.0421701
0.0434115
0.0447766
0.046131
0.047768
0.0501999
6.10872e-06
6.10885e-06
6.10863e-06
6.10778e-06
6.10706e-06
6.10613e-06
6.10798e-06
6.07298e-06
6.12425e-06
6.52275e-06
7.00657e-06
4.31962e-06
1.50017e-07
1.55939e-09
1.77958e-07
0.000108421
0.000246394
0.00117046
0.0030787
0.00605741
0.00973802
0.0132535
0.0158809
0.0178549
0.0197639
0.0218584
0.0242152
0.0268776
0.0298197
0.0329768
0.0362715
0.0396147
0.0429055
0.0460467
0.0489356
0.0514614
0.0535335
0.0550767
0.0560311
0.056962
0.0585192
6.10749e-06
6.10817e-06
6.10771e-06
6.10708e-06
6.10651e-06
6.10589e-06
6.10572e-06
6.10603e-06
6.08534e-06
6.09175e-06
6.32514e-06
7.14076e-06
5.892e-06
1.35899e-06
3.67984e-11
3.41211e-11
1.9635e-06
0.000180102
0.00035851
0.00151159
0.00379843
0.00713929
0.0110807
0.015127
0.0187642
0.0218542
0.0247742
0.0279043
0.0313356
0.0350219
0.0389017
0.0428962
0.0468936
0.0507932
0.0544954
0.0579051
0.0609346
0.063528
0.0656209
0.067196
0.0682805
6.10648e-06
6.10775e-06
6.1074e-06
6.10684e-06
6.10633e-06
6.1059e-06
6.10551e-06
6.10597e-06
6.10555e-06
6.09717e-06
6.06969e-06
6.21413e-06
6.8833e-06
6.73804e-06
4.29809e-06
1.99301e-07
2.44622e-09
8.97088e-13
1.3145e-05
3.08883e-05
0.000489935
0.00163396
0.0037727
0.00687367
0.0107792
0.0152385
0.0199648
0.0246448
0.0291093
0.0334606
0.0378916
0.0424663
0.0471045
0.0516933
0.05613
0.060322
0.0641984
0.0677265
0.0708395
0.0734938
0.0756941
6.10566e-06
6.107e-06
6.10676e-06
6.10631e-06
6.10591e-06
6.10557e-06
6.10525e-06
6.10506e-06
6.10527e-06
6.10553e-06
6.10272e-06
6.06795e-06
6.14669e-06
6.43471e-06
7.17134e-06
5.78884e-06
2.7511e-06
1.18649e-08
5.19096e-10
6.9801e-09
1.54836e-05
0.000210362
0.000291496
0.00112971
0.00269959
0.00512891
0.00843988
0.0125965
0.017514
0.0230616
0.0290114
0.0350435
0.0408838
0.0464315
0.0517018
0.0567176
0.0614644
0.0659214
0.0700309
0.073732
0.0769989
6.10485e-06
6.10616e-06
6.10607e-06
6.1057e-06
6.10535e-06
6.10509e-06
6.1049e-06
6.10464e-06
6.10444e-06
6.10415e-06
6.10559e-06
6.10207e-06
6.08653e-06
6.07764e-06
6.26777e-06
6.7316e-06
7.15361e-06
5.16337e-06
1.56566e-06
9.75473e-09
5.88393e-11
3.63792e-15
1.58325e-06
8.24966e-05
5.2143e-08
0.000321988
0.00111838
0.00250586
0.00462029
0.00755067
0.011351
0.0160233
0.0214995
0.0276523
0.0342601
0.0410134
0.0475916
0.0537955
0.0594768
0.0645729
0.0691176
6.10384e-06
6.10491e-06
6.10464e-06
6.10414e-06
6.10371e-06
6.10341e-06
6.10321e-06
6.1031e-06
6.10305e-06
6.10304e-06
6.10299e-06
6.10392e-06
6.10282e-06
6.09416e-06
6.06913e-06
6.1315e-06
6.38215e-06
7.01322e-06
6.98753e-06
4.44447e-06
9.45274e-07
6.73984e-11
1.32599e-10
1.99374e-13
2.64251e-12
1.39649e-06
6.17623e-05
0.000214799
0.000102621
0.000476469
0.00128185
0.00261578
0.00458012
0.00726869
0.0107348
0.0149629
0.0198758
0.025407
0.0313881
0.0376227
0.0439181
6.10263e-06
6.10334e-06
6.10288e-06
6.10229e-06
6.10182e-06
6.1015e-06
6.10131e-06
6.10123e-06
6.10121e-06
6.10126e-06
6.10131e-06
6.10149e-06
6.10174e-06
6.10306e-06
6.09654e-06
6.08456e-06
6.06898e-06
6.20047e-06
6.54118e-06
7.17037e-06
6.85687e-06
4.31389e-06
1.48278e-06
4.58441e-09
4.26449e-10
2.6713e-11
1.99497e-14
0
2.08897e-08
3.99284e-06
6.53904e-05
0.000178187
0.000350886
0.000157462
0.000629485
0.00144564
0.00270455
0.00446775
0.00677675
0.00964129
0.0130984
6.10134e-06
6.10174e-06
6.10118e-06
6.10056e-06
6.10012e-06
6.09984e-06
6.09969e-06
6.09964e-06
6.09965e-06
6.09971e-06
6.09981e-06
6.09993e-06
6.10004e-06
6.10045e-06
6.1011e-06
6.10037e-06
6.08994e-06
6.07338e-06
6.08294e-06
6.2468e-06
6.66821e-06
7.07383e-06
6.95206e-06
4.98776e-06
2.47021e-06
7.47087e-07
6.24088e-10
2.06757e-10
2.41394e-11
3.587e-12
0
0
0
4.67981e-08
7.0025e-06
6.52756e-05
0.000160225
0.000282625
4.15229e-06
0.000218098
0.000616632
6.1e-06
6.10016e-06
6.09958e-06
6.09905e-06
6.09871e-06
6.09855e-06
6.0985e-06
6.09853e-06
6.0986e-06
6.0987e-06
6.09881e-06
6.09894e-06
6.09908e-06
6.09919e-06
6.09946e-06
6.1e-06
6.10061e-06
6.09666e-06
6.08267e-06
6.06472e-06
6.09808e-06
6.28898e-06
6.61423e-06
7.10687e-06
7.09059e-06
6.53795e-06
4.71632e-06
2.48824e-06
9.3233e-07
1.54837e-07
1.93872e-09
4.63322e-11
2.02442e-11
6.23205e-12
1.12421e-12
5.15214e-19
0
0
5.82281e-11
8.19174e-08
3.81127e-06
6.09863e-06
6.09868e-06
6.09821e-06
6.09787e-06
6.09772e-06
6.09773e-06
6.09782e-06
6.09795e-06
6.0981e-06
6.09825e-06
6.09839e-06
6.09853e-06
6.09867e-06
6.09879e-06
6.09891e-06
6.09904e-06
6.09946e-06
6.10011e-06
6.09972e-06
6.09345e-06
6.07555e-06
6.06755e-06
6.09162e-06
6.23409e-06
6.49279e-06
6.79775e-06
7.19783e-06
7.19991e-06
6.68292e-06
5.68583e-06
4.0752e-06
2.43181e-06
1.19666e-06
4.07397e-07
8.08519e-08
4.05491e-14
3.72846e-11
1.84865e-11
9.00059e-12
3.82086e-12
1.14031e-12
6.0973e-06
6.09738e-06
6.09715e-06
6.09708e-06
6.09718e-06
6.09739e-06
6.09763e-06
6.09788e-06
6.09811e-06
6.09832e-06
6.09851e-06
6.09867e-06
6.09882e-06
6.09894e-06
6.09906e-06
6.09915e-06
6.09924e-06
6.09944e-06
6.09993e-06
6.10062e-06
6.09898e-06
6.09152e-06
6.0775e-06
6.06401e-06
6.07959e-06
6.13497e-06
6.27859e-06
6.50721e-06
6.77718e-06
7.04305e-06
7.28081e-06
7.23223e-06
6.87948e-06
6.20001e-06
5.34089e-06
4.11666e-06
2.86595e-06
1.78328e-06
9.74002e-07
4.55089e-07
1.51072e-07
6.09608e-06
6.09634e-06
6.09645e-06
6.09669e-06
6.09704e-06
6.09744e-06
6.09782e-06
6.09818e-06
6.09849e-06
6.09876e-06
6.09899e-06
6.09919e-06
6.09936e-06
6.0995e-06
6.09963e-06
6.09973e-06
6.09982e-06
6.09989e-06
6.09998e-06
6.10022e-06
6.10089e-06
6.10116e-06
6.09982e-06
6.09368e-06
6.08286e-06
6.07068e-06
6.06332e-06
6.07615e-06
6.12331e-06
6.21176e-06
6.35436e-06
6.54161e-06
6.75099e-06
6.95949e-06
7.13321e-06
7.31529e-06
7.33743e-06
7.17187e-06
6.83077e-06
6.33488e-06
5.742e-06
6.09501e-06
6.0956e-06
6.09609e-06
6.09663e-06
6.09721e-06
6.09775e-06
6.09824e-06
6.09868e-06
6.09905e-06
6.09938e-06
6.09965e-06
6.09989e-06
6.1001e-06
6.10027e-06
6.10042e-06
6.10055e-06
6.10066e-06
6.10075e-06
6.10083e-06
6.10087e-06
6.10101e-06
6.10133e-06
6.10188e-06
6.10229e-06
6.10143e-06
6.09847e-06
6.09209e-06
6.08237e-06
6.07167e-06
6.06403e-06
6.06425e-06
6.07899e-06
6.11329e-06
6.1719e-06
6.25277e-06
6.36388e-06
6.49989e-06
6.65419e-06
6.81345e-06
6.96723e-06
7.10432e-06
6.09417e-06
6.09516e-06
6.09601e-06
6.0968e-06
6.09753e-06
6.09817e-06
6.09874e-06
6.09923e-06
6.09965e-06
6.10002e-06
6.10035e-06
6.10063e-06
6.10087e-06
6.10108e-06
6.10126e-06
6.10142e-06
6.10156e-06
6.10169e-06
6.1018e-06
6.10189e-06
6.10198e-06
6.10207e-06
6.10221e-06
6.10249e-06
6.1029e-06
6.10333e-06
6.10343e-06
6.10261e-06
6.10018e-06
6.09576e-06
6.08926e-06
6.08127e-06
6.07298e-06
6.06598e-06
6.06222e-06
6.06312e-06
6.07121e-06
6.08961e-06
6.11911e-06
6.16278e-06
6.21169e-06
6.09357e-06
6.09498e-06
6.09611e-06
6.09706e-06
6.09788e-06
6.09859e-06
6.0992e-06
6.09974e-06
6.10021e-06
6.10062e-06
6.10098e-06
6.1013e-06
6.10159e-06
6.10184e-06
6.10206e-06
6.10226e-06
6.10243e-06
6.10259e-06
6.10274e-06
6.10287e-06
6.103e-06
6.10312e-06
6.10322e-06
6.10331e-06
6.10343e-06
6.1036e-06
6.10388e-06
6.10424e-06
6.10461e-06
6.10478e-06
6.10453e-06
6.10359e-06
6.10176e-06
6.09884e-06
6.09484e-06
6.08977e-06
6.08387e-06
6.07745e-06
6.07111e-06
6.0657e-06
6.06165e-06
6.09322e-06
6.09496e-06
6.09627e-06
6.09731e-06
6.09818e-06
6.09893e-06
6.09959e-06
6.10017e-06
6.10068e-06
6.10114e-06
6.10154e-06
6.10191e-06
6.10223e-06
6.10252e-06
6.10278e-06
6.10302e-06
6.10323e-06
6.10343e-06
6.10361e-06
6.10377e-06
6.10394e-06
6.1041e-06
6.10423e-06
6.10435e-06
6.10444e-06
6.10453e-06
6.1046e-06
6.1047e-06
6.10484e-06
6.10503e-06
6.10527e-06
6.10553e-06
6.10578e-06
6.10594e-06
6.10593e-06
6.10566e-06
6.10505e-06
6.10398e-06
6.10242e-06
6.10017e-06
6.09794e-06
6.09307e-06
6.09502e-06
6.0964e-06
6.09749e-06
6.0984e-06
6.09919e-06
6.09989e-06
6.10051e-06
6.10107e-06
6.10157e-06
6.10202e-06
6.10243e-06
6.1028e-06
6.10313e-06
6.10343e-06
6.10371e-06
6.10396e-06
6.10419e-06
6.1044e-06
6.1046e-06
6.1048e-06
6.10498e-06
6.10514e-06
6.10529e-06
6.10541e-06
6.10552e-06
6.10561e-06
6.10568e-06
6.10573e-06
6.10578e-06
6.10583e-06
6.10588e-06
6.10595e-06
6.10603e-06
6.10614e-06
6.10626e-06
6.10639e-06
6.10652e-06
6.10661e-06
6.10666e-06
6.10662e-06
6.09303e-06
6.09504e-06
6.09646e-06
6.09758e-06
6.09852e-06
6.09936e-06
6.1001e-06
6.10077e-06
6.10137e-06
6.10192e-06
6.10242e-06
6.10287e-06
6.10329e-06
6.10366e-06
6.10401e-06
6.10432e-06
6.10461e-06
6.10488e-06
6.10513e-06
6.10536e-06
6.10559e-06
6.1058e-06
6.10598e-06
6.10615e-06
6.1063e-06
6.10642e-06
6.10653e-06
6.10663e-06
6.1067e-06
6.10675e-06
6.10679e-06
6.10681e-06
6.10682e-06
6.10681e-06
6.1068e-06
6.10677e-06
6.10674e-06
6.1067e-06
6.10666e-06
6.10665e-06
6.10656e-06
6.09298e-06
6.09498e-06
6.09642e-06
6.09757e-06
6.09855e-06
6.09943e-06
6.10021e-06
6.10093e-06
6.10158e-06
6.10218e-06
6.10273e-06
6.10323e-06
6.10369e-06
6.10412e-06
6.10451e-06
6.10487e-06
6.10519e-06
6.1055e-06
6.10579e-06
6.10605e-06
6.10631e-06
6.10655e-06
6.10676e-06
6.10695e-06
6.10712e-06
6.10726e-06
6.10739e-06
6.1075e-06
6.10759e-06
6.10766e-06
6.10771e-06
6.10775e-06
6.10777e-06
6.10777e-06
6.10776e-06
6.10773e-06
6.10768e-06
6.10762e-06
6.10754e-06
6.10747e-06
6.10733e-06
6.09283e-06
6.09484e-06
6.09629e-06
6.09746e-06
6.09848e-06
6.09939e-06
6.10022e-06
6.10099e-06
6.1017e-06
6.10235e-06
6.10295e-06
6.10351e-06
6.10402e-06
6.10449e-06
6.10493e-06
6.10533e-06
6.10571e-06
6.10605e-06
6.10638e-06
6.10668e-06
6.10697e-06
6.10724e-06
6.10748e-06
6.10769e-06
6.10788e-06
6.10805e-06
6.1082e-06
6.10832e-06
6.10843e-06
6.10851e-06
6.10858e-06
6.10863e-06
6.10867e-06
6.10868e-06
6.10868e-06
6.10867e-06
6.10864e-06
6.1086e-06
6.10854e-06
6.10848e-06
6.10836e-06
6.09261e-06
6.0946e-06
6.09605e-06
6.09724e-06
6.09829e-06
6.09924e-06
6.10012e-06
6.10094e-06
6.10171e-06
6.10242e-06
6.10308e-06
6.10369e-06
6.10426e-06
6.10479e-06
6.10528e-06
6.10573e-06
6.10615e-06
6.10654e-06
6.10691e-06
6.10724e-06
6.10758e-06
6.10788e-06
6.10815e-06
6.10839e-06
6.1086e-06
6.10879e-06
6.10896e-06
6.1091e-06
6.10923e-06
6.10933e-06
6.10942e-06
6.10948e-06
6.10953e-06
6.10956e-06
6.10958e-06
6.10958e-06
6.10957e-06
6.10955e-06
6.10951e-06
6.10948e-06
6.10938e-06
6.09229e-06
6.09425e-06
6.09569e-06
6.0969e-06
6.09797e-06
6.09897e-06
6.09991e-06
6.10079e-06
6.10162e-06
6.10239e-06
6.10312e-06
6.1038e-06
6.10443e-06
6.10501e-06
6.10556e-06
6.10606e-06
6.10653e-06
6.10697e-06
6.10738e-06
6.10776e-06
6.10813e-06
6.10846e-06
6.10877e-06
6.10904e-06
6.10928e-06
6.1095e-06
6.10969e-06
6.10985e-06
6.11e-06
6.11012e-06
6.11023e-06
6.11031e-06
6.11038e-06
6.11044e-06
6.11047e-06
6.1105e-06
6.11051e-06
6.11051e-06
6.11049e-06
6.11048e-06
6.11041e-06
6.09186e-06
6.09377e-06
6.0952e-06
6.09642e-06
6.09753e-06
6.09858e-06
6.09958e-06
6.10052e-06
6.10142e-06
6.10226e-06
6.10306e-06
6.1038e-06
6.1045e-06
6.10515e-06
6.10575e-06
6.10632e-06
6.10684e-06
6.10733e-06
6.10779e-06
6.10821e-06
6.10862e-06
6.109e-06
6.10934e-06
6.10964e-06
6.10992e-06
6.11016e-06
6.11038e-06
6.11058e-06
6.11075e-06
6.11089e-06
6.11102e-06
6.11113e-06
6.11122e-06
6.1113e-06
6.11136e-06
6.11141e-06
6.11144e-06
6.11147e-06
6.11148e-06
6.1115e-06
6.11147e-06
6.0913e-06
6.09315e-06
6.09457e-06
6.0958e-06
6.09695e-06
6.09806e-06
6.09911e-06
6.10013e-06
6.10109e-06
6.10201e-06
6.10288e-06
6.10369e-06
6.10446e-06
6.10518e-06
6.10585e-06
6.10647e-06
6.10706e-06
6.1076e-06
6.10811e-06
6.10859e-06
6.10905e-06
6.10947e-06
6.10985e-06
6.11019e-06
6.1105e-06
6.11078e-06
6.11103e-06
6.11126e-06
6.11145e-06
6.11163e-06
6.11179e-06
6.11192e-06
6.11204e-06
6.11214e-06
6.11223e-06
6.11231e-06
6.11237e-06
6.11242e-06
6.11246e-06
6.11252e-06
6.11252e-06
6.09061e-06
6.09238e-06
6.09378e-06
6.09503e-06
6.09623e-06
6.09738e-06
6.0985e-06
6.09957e-06
6.10061e-06
6.1016e-06
6.10253e-06
6.10342e-06
6.10426e-06
6.10505e-06
6.10579e-06
6.10649e-06
6.10714e-06
6.10774e-06
6.10831e-06
6.10885e-06
6.10936e-06
6.10982e-06
6.11025e-06
6.11064e-06
6.11099e-06
6.11131e-06
6.11159e-06
6.11185e-06
6.11209e-06
6.11229e-06
6.11248e-06
6.11265e-06
6.1128e-06
6.11293e-06
6.11305e-06
6.11315e-06
6.11325e-06
6.11334e-06
6.11341e-06
6.11349e-06
6.11354e-06
6.08975e-06
6.09145e-06
6.09283e-06
6.0941e-06
6.09533e-06
6.09653e-06
6.09769e-06
6.09883e-06
6.09992e-06
6.10098e-06
6.10198e-06
6.10294e-06
6.10386e-06
6.10472e-06
6.10554e-06
6.1063e-06
6.10702e-06
6.10769e-06
6.10833e-06
6.10892e-06
6.10949e-06
6.11001e-06
6.11049e-06
6.11092e-06
6.11132e-06
6.11168e-06
6.11201e-06
6.11231e-06
6.11258e-06
6.11283e-06
6.11305e-06
6.11325e-06
6.11343e-06
6.1136e-06
6.11375e-06
6.11388e-06
6.11401e-06
6.11413e-06
6.11423e-06
6.11434e-06
6.11444e-06
6.08873e-06
6.09035e-06
6.09171e-06
6.09299e-06
6.09423e-06
6.09546e-06
6.09666e-06
6.09784e-06
6.09898e-06
6.10009e-06
6.10117e-06
6.1022e-06
6.10318e-06
6.10412e-06
6.10501e-06
6.10584e-06
6.10664e-06
6.10738e-06
6.10808e-06
6.10874e-06
6.10937e-06
6.10995e-06
6.11048e-06
6.11097e-06
6.11141e-06
6.11182e-06
6.11219e-06
6.11254e-06
6.11285e-06
6.11313e-06
6.11339e-06
6.11363e-06
6.11385e-06
6.11405e-06
6.11424e-06
6.11441e-06
6.11457e-06
6.11472e-06
6.11486e-06
6.11501e-06
6.11514e-06
6.08753e-06
6.08907e-06
6.0904e-06
6.09166e-06
6.09291e-06
6.09414e-06
6.09535e-06
6.09656e-06
6.09774e-06
6.0989e-06
6.10002e-06
6.10111e-06
6.10217e-06
6.10317e-06
6.10413e-06
6.10505e-06
6.10591e-06
6.10673e-06
6.1075e-06
6.10822e-06
6.10891e-06
6.10955e-06
6.11014e-06
6.11069e-06
6.11119e-06
6.11165e-06
6.11207e-06
6.11245e-06
6.11281e-06
6.11314e-06
6.11344e-06
6.11371e-06
6.11396e-06
6.1142e-06
6.11442e-06
6.11462e-06
6.11481e-06
6.11499e-06
6.11516e-06
6.11533e-06
6.11549e-06
6.08613e-06
6.08758e-06
6.08886e-06
6.09009e-06
6.0913e-06
6.09251e-06
6.09372e-06
6.09493e-06
6.09614e-06
6.09733e-06
6.0985e-06
6.09965e-06
6.10076e-06
6.10184e-06
6.10287e-06
6.10385e-06
6.10479e-06
6.10568e-06
6.10651e-06
6.1073e-06
6.10805e-06
6.10875e-06
6.1094e-06
6.11e-06
6.11055e-06
6.11106e-06
6.11153e-06
6.11196e-06
6.11236e-06
6.11273e-06
6.11307e-06
6.11338e-06
6.11367e-06
6.11395e-06
6.1142e-06
6.11444e-06
6.11467e-06
6.11489e-06
6.11509e-06
6.1153e-06
6.11549e-06
6.08452e-06
6.08587e-06
6.08707e-06
6.08824e-06
6.08939e-06
6.09056e-06
6.09174e-06
6.09294e-06
6.09415e-06
6.09537e-06
6.09657e-06
6.09777e-06
6.09893e-06
6.10007e-06
6.10116e-06
6.10221e-06
6.10321e-06
6.10417e-06
6.10507e-06
6.10593e-06
6.10674e-06
6.1075e-06
6.10821e-06
6.10886e-06
6.10947e-06
6.11003e-06
6.11055e-06
6.11103e-06
6.11147e-06
6.11188e-06
6.11226e-06
6.11261e-06
6.11294e-06
6.11324e-06
6.11352e-06
6.11379e-06
6.11404e-06
6.11427e-06
6.1145e-06
6.11472e-06
6.11492e-06
6.08268e-06
6.08391e-06
6.08501e-06
6.08607e-06
6.08714e-06
6.08823e-06
6.08937e-06
6.09054e-06
6.09175e-06
6.09297e-06
6.0942e-06
6.09542e-06
6.09663e-06
6.09781e-06
6.09896e-06
6.10007e-06
6.10113e-06
6.10214e-06
6.10311e-06
6.10402e-06
6.10489e-06
6.1057e-06
6.10646e-06
6.10716e-06
6.10781e-06
6.10842e-06
6.10898e-06
6.1095e-06
6.10998e-06
6.11043e-06
6.11085e-06
6.11124e-06
6.1116e-06
6.11194e-06
6.11226e-06
6.11256e-06
6.11285e-06
6.11312e-06
6.11338e-06
6.11364e-06
6.11387e-06
6.0806e-06
6.08167e-06
6.08263e-06
6.08356e-06
6.08452e-06
6.08553e-06
6.08661e-06
6.08773e-06
6.0889e-06
6.0901e-06
6.09132e-06
6.09254e-06
6.09377e-06
6.09497e-06
6.09616e-06
6.0973e-06
6.09841e-06
6.09948e-06
6.1005e-06
6.10148e-06
6.10241e-06
6.10328e-06
6.1041e-06
6.10487e-06
6.10559e-06
6.10626e-06
6.10688e-06
6.10745e-06
6.10798e-06
6.10848e-06
6.10894e-06
6.10936e-06
6.10975e-06
6.11012e-06
6.11046e-06
6.11078e-06
6.11108e-06
6.11136e-06
6.11163e-06
6.11188e-06
6.11212e-06
6.07825e-06
6.07914e-06
6.07992e-06
6.08071e-06
6.08154e-06
6.08245e-06
6.08342e-06
6.08446e-06
6.08556e-06
6.08669e-06
6.08786e-06
6.08905e-06
6.09025e-06
6.09145e-06
6.09264e-06
6.09381e-06
6.09496e-06
6.09606e-06
6.09711e-06
6.09812e-06
6.09907e-06
6.09998e-06
6.10082e-06
6.10161e-06
6.10235e-06
6.10304e-06
6.10369e-06
6.10429e-06
6.10485e-06
6.10537e-06
6.10586e-06
6.10631e-06
6.10674e-06
6.10714e-06
6.10751e-06
6.10787e-06
6.1082e-06
6.10852e-06
6.10883e-06
6.10913e-06
6.1094e-06
6.07561e-06
6.07627e-06
6.07687e-06
6.07749e-06
6.07818e-06
6.07895e-06
6.07978e-06
6.08068e-06
6.08164e-06
6.08265e-06
6.08371e-06
6.0848e-06
6.08592e-06
6.08705e-06
6.08817e-06
6.08927e-06
6.09037e-06
6.09145e-06
6.09252e-06
6.09356e-06
6.09457e-06
6.09554e-06
6.09646e-06
6.09734e-06
6.09817e-06
6.09895e-06
6.09968e-06
6.10036e-06
6.101e-06
6.1016e-06
6.10215e-06
6.10266e-06
6.10314e-06
6.10358e-06
6.10399e-06
6.10438e-06
6.10473e-06
6.10507e-06
6.10538e-06
6.10567e-06
6.10595e-06
6.07264e-06
6.07305e-06
6.07345e-06
6.07388e-06
6.07439e-06
6.07495e-06
6.07557e-06
6.07625e-06
6.07698e-06
6.07776e-06
6.0786e-06
6.07949e-06
6.08044e-06
6.08147e-06
6.08259e-06
6.08377e-06
6.08495e-06
6.08611e-06
6.08722e-06
6.08829e-06
6.08931e-06
6.09028e-06
6.09119e-06
6.09205e-06
6.09287e-06
6.09363e-06
6.09435e-06
6.09502e-06
6.09565e-06
6.09624e-06
6.09679e-06
6.09731e-06
6.09779e-06
6.09824e-06
6.09866e-06
6.09906e-06
6.09943e-06
6.09978e-06
6.1001e-06
6.10042e-06
6.10071e-06
6.06934e-06
6.06948e-06
6.06963e-06
6.06981e-06
6.07003e-06
6.07028e-06
6.07056e-06
6.07087e-06
6.07121e-06
6.07158e-06
6.07196e-06
6.07236e-06
6.07275e-06
6.07315e-06
6.07353e-06
6.07394e-06
6.07429e-06
6.07461e-06
6.07495e-06
6.07531e-06
6.07569e-06
6.07611e-06
6.07655e-06
6.07702e-06
6.0775e-06
6.078e-06
6.07851e-06
6.07901e-06
6.07952e-06
6.08001e-06
6.0805e-06
6.08098e-06
6.08144e-06
6.08189e-06
6.08232e-06
6.08274e-06
6.08315e-06
6.08353e-06
6.08391e-06
6.08426e-06
6.08463e-06
0.00347618
0.00720708
0.0106199
0.0126799
0.0129713
0.0115888
0.00891087
0.0054526
0.00206451
0.000189256
5.98424e-05
4.07624e-10
7.86252e-07
8.2891e-06
8.66083e-06
5.83499e-06
5.58565e-06
6.0754e-06
6.21825e-06
6.14078e-06
6.10072e-06
6.10418e-06
6.10867e-06
6.10745e-06
6.10561e-06
6.10438e-06
6.10327e-06
6.10226e-06
6.10156e-06
6.10119e-06
6.10104e-06
6.10105e-06
6.10114e-06
6.10126e-06
6.10139e-06
6.10151e-06
6.10163e-06
6.10172e-06
6.10177e-06
6.10175e-06
6.10163e-06
6.10138e-06
6.10098e-06
6.10041e-06
6.09966e-06
6.09873e-06
6.09761e-06
6.09633e-06
6.09489e-06
6.09331e-06
6.09162e-06
6.08982e-06
6.08795e-06
6.086e-06
6.08401e-06
6.08201e-06
6.08006e-06
6.07824e-06
6.07667e-06
6.07547e-06
6.07476e-06
6.07461e-06
6.07496e-06
6.07575e-06
6.07692e-06
6.0784e-06
6.08016e-06
6.08216e-06
6.08437e-06
6.08679e-06
6.08937e-06
6.09244e-06
6.09488e-06
6.10172e-06
0.00597076
0.0108774
0.0148303
0.017083
0.017453
0.0161164
0.0134508
0.00988715
0.00590152
0.00237495
0.000407171
0.000178801
3.30587e-09
2.52709e-08
6.36746e-06
9.8634e-06
6.95075e-06
5.52278e-06
5.77263e-06
6.12939e-06
6.16626e-06
6.11323e-06
6.10048e-06
6.1069e-06
6.1087e-06
6.10658e-06
6.1048e-06
6.10392e-06
6.10334e-06
6.10293e-06
6.10274e-06
6.10273e-06
6.10282e-06
6.10292e-06
6.10303e-06
6.10313e-06
6.10322e-06
6.10328e-06
6.1033e-06
6.10325e-06
6.10308e-06
6.10277e-06
6.1023e-06
6.10164e-06
6.10079e-06
6.09975e-06
6.09852e-06
6.09712e-06
6.09555e-06
6.09385e-06
6.09204e-06
6.09013e-06
6.08814e-06
6.08611e-06
6.08404e-06
6.08197e-06
6.07998e-06
6.07815e-06
6.07659e-06
6.07544e-06
6.0748e-06
6.07469e-06
6.07505e-06
6.07582e-06
6.07694e-06
6.07838e-06
6.08008e-06
6.08202e-06
6.08416e-06
6.08652e-06
6.08903e-06
6.09202e-06
6.09438e-06
6.10102e-06
0.00835423
0.0147014
0.0193988
0.0219598
0.0224925
0.0212595
0.0186411
0.0150647
0.0109364
0.00673921
0.00316141
0.000863538
0.000357306
1.2631e-06
3.19265e-08
8.31005e-07
8.20051e-06
8.58637e-06
6.14273e-06
5.614e-06
5.96548e-06
6.17077e-06
6.14674e-06
6.10482e-06
6.10194e-06
6.10798e-06
6.10814e-06
6.10598e-06
6.1049e-06
6.10472e-06
6.10467e-06
6.10462e-06
6.10464e-06
6.10471e-06
6.10479e-06
6.10486e-06
6.1049e-06
6.10492e-06
6.10489e-06
6.10478e-06
6.10455e-06
6.10416e-06
6.1036e-06
6.10285e-06
6.10189e-06
6.10073e-06
6.09937e-06
6.09784e-06
6.09615e-06
6.09432e-06
6.09238e-06
6.09036e-06
6.08828e-06
6.08615e-06
6.08401e-06
6.08191e-06
6.0799e-06
6.07808e-06
6.07657e-06
6.07548e-06
6.07492e-06
6.07485e-06
6.07519e-06
6.07593e-06
6.07701e-06
6.07838e-06
6.08002e-06
6.08188e-06
6.08396e-06
6.08624e-06
6.08868e-06
6.09158e-06
6.09386e-06
6.10029e-06
0.0107156
0.0187215
0.0242957
0.0272801
0.0280751
0.0270273
0.0245145
0.0209616
0.0167868
0.0123866
0.00816355
0.00449992
0.00165953
9.785e-05
0.00013061
3.12858e-09
1.12293e-08
4.60333e-06
1.10552e-05
8.01637e-06
5.85914e-06
5.75129e-06
6.07831e-06
6.17449e-06
6.12883e-06
6.10096e-06
6.10432e-06
6.10973e-06
6.10903e-06
6.10697e-06
6.10629e-06
6.10646e-06
6.10664e-06
6.10667e-06
6.10666e-06
6.10666e-06
6.10665e-06
6.10661e-06
6.10651e-06
6.10632e-06
6.10601e-06
6.10553e-06
6.10487e-06
6.104e-06
6.10292e-06
6.10163e-06
6.10015e-06
6.09848e-06
6.09666e-06
6.0947e-06
6.09265e-06
6.09052e-06
6.08835e-06
6.08615e-06
6.08397e-06
6.08184e-06
6.07984e-06
6.07807e-06
6.07663e-06
6.07563e-06
6.07513e-06
6.07506e-06
6.07539e-06
6.07608e-06
6.0771e-06
6.07841e-06
6.07997e-06
6.08175e-06
6.08375e-06
6.08595e-06
6.08831e-06
6.09113e-06
6.09331e-06
6.09953e-06
0.0132696
0.0230122
0.0294786
0.0329825
0.0341515
0.0333958
0.0310851
0.0276279
0.0234518
0.0189598
0.0144968
0.0102878
0.00640398
0.00299609
0.00071467
0.000358855
3.16578e-11
2.02716e-08
3.56444e-07
6.0448e-06
9.2197e-06
6.81956e-06
5.72634e-06
5.88621e-06
6.14851e-06
6.17305e-06
6.11641e-06
6.09588e-06
6.1036e-06
6.11062e-06
6.1107e-06
6.10895e-06
6.10832e-06
6.1085e-06
6.10866e-06
6.10861e-06
6.10847e-06
6.10832e-06
6.10813e-06
6.10786e-06
6.10745e-06
6.10686e-06
6.10608e-06
6.10509e-06
6.10388e-06
6.10246e-06
6.10083e-06
6.09903e-06
6.09708e-06
6.09501e-06
6.09284e-06
6.09062e-06
6.08836e-06
6.08611e-06
6.0839e-06
6.08179e-06
6.07983e-06
6.07812e-06
6.07677e-06
6.07587e-06
6.07541e-06
6.07534e-06
6.07564e-06
6.07628e-06
6.07723e-06
6.07846e-06
6.07993e-06
6.08163e-06
6.08353e-06
6.08565e-06
6.08792e-06
6.09065e-06
6.09275e-06
6.09874e-06
0.0169969
0.0276606
0.0348944
0.0389825
0.0406331
0.0402892
0.0383057
0.0350614
0.0309721
0.0264518
0.0218577
0.0174131
0.0131411
0.00893893
0.00490447
0.00171993
0.000698343
9.59957e-05
9.60259e-10
3.10398e-08
2.25976e-06
9.57092e-06
8.55675e-06
6.19808e-06
5.63681e-06
5.93927e-06
6.18245e-06
6.18314e-06
6.11997e-06
6.09742e-06
6.10457e-06
6.11229e-06
6.11306e-06
6.11131e-06
6.11036e-06
6.11031e-06
6.11034e-06
6.11015e-06
6.10979e-06
6.10936e-06
6.10883e-06
6.10813e-06
6.10723e-06
6.10611e-06
6.10476e-06
6.10319e-06
6.10143e-06
6.0995e-06
6.09742e-06
6.09523e-06
6.09296e-06
6.09065e-06
6.08834e-06
6.08606e-06
6.08385e-06
6.08177e-06
6.07988e-06
6.07827e-06
6.07702e-06
6.0762e-06
6.07576e-06
6.07568e-06
6.07593e-06
6.07651e-06
6.07739e-06
6.07853e-06
6.07991e-06
6.08151e-06
6.08332e-06
6.08534e-06
6.08752e-06
6.09015e-06
6.09216e-06
6.09792e-06
0.0218619
0.0326753
0.0405008
0.045183
0.0473959
0.0475789
0.0460611
0.0431798
0.0393175
0.0348792
0.0302373
0.025652
0.0211967
0.0167591
0.0121803
0.00752838
0.003289
0.000612773
0.000425648
0
6.96e-09
3.12431e-09
3.55808e-06
1.02073e-05
8.35307e-06
6.07929e-06
5.62795e-06
5.94054e-06
6.17846e-06
6.18482e-06
6.12378e-06
6.09855e-06
6.10455e-06
6.11354e-06
6.11543e-06
6.11358e-06
6.11201e-06
6.11151e-06
6.11134e-06
6.11094e-06
6.11025e-06
6.10935e-06
6.10828e-06
6.10702e-06
6.10554e-06
6.10384e-06
6.10194e-06
6.09987e-06
6.09767e-06
6.09538e-06
6.09302e-06
6.09065e-06
6.0883e-06
6.08601e-06
6.08383e-06
6.0818e-06
6.08e-06
6.0785e-06
6.07736e-06
6.07661e-06
6.07618e-06
6.07607e-06
6.07628e-06
6.07679e-06
6.07757e-06
6.07862e-06
6.0799e-06
6.0814e-06
6.08309e-06
6.08501e-06
6.08709e-06
6.08963e-06
6.09154e-06
6.09707e-06
0.0275919
0.0380635
0.0462577
0.0514716
0.0542822
0.055084
0.0541655
0.0518126
0.0483562
0.0441679
0.0396157
0.0349908
0.0304316
0.0258978
0.0212268
0.0162533
0.0109795
0.0058718
0.00213614
0.00092242
0.000179977
3.48309e-08
1.24625e-08
8.29036e-08
4.43649e-06
9.56941e-06
7.97977e-06
6.02822e-06
5.62404e-06
5.92684e-06
6.17683e-06
6.19879e-06