/*--------------------------------*- C++ -*----------------------------------*\
| =========                 |                                                 |
| \\      /  F ield         | OpenFOAM: The Open Source CFD Toolbox           |
|  \\    /   O peration     | Version:  2312                                  |
|   \\  /    A nd           | Website:  www.openfoam.com                      |
|    \\/     M anipulation  |                                                 |
\*---------------------------------------------------------------------------*/
FoamFile
{
    version     2.0;
    format      ascii;
    arch        "LSB;label=32;scalar=64";
    class       volScalarField;
    location    "600";
    object      nuTilda;
}
// * * * * * * * * * * * * * * * * * * * * * * * * * * * * * * * * * * * * * //

dimensions      [0 2 -1 0 0 0 0];

internalField   nonuniform List<scalar> 
11040
(
7.27915e-05
8.5898e-05
5.3028e-05
8.01021e-05
0.000194911
0.000189164
0.000180178
0.000170924
0.000159468
0.000152384
0.000145181
0.000138927
0.000133338
0.000128971
0.000125168
0.000123087
0.000122715
0.000124034
0.000126683
0.000130526
0.000135655
0.000141912
0.000149056
0.000156914
0.000165619
0.000176131
0.000188263
0.000200171
0.00021132
0.000221088
0.000228856
0.000234188
0.0002386
0.000248188
0.000266276
0.00024038
0.000176641
0.000190028
0.000207146
0.000225383
0.000291169
3.6032e-05
7.2002e-05
8.66918e-05
0.000154929
0.000598057
0.000627827
0.000551466
0.00050838
0.000442121
0.000406811
0.000370608
0.000342513
0.000316318
0.000296849
0.000278347
0.000265737
0.000259603
0.000259309
0.000262083
0.000266615
0.000273028
0.000281261
0.000289652
0.000297025
0.000304489
0.000320309
0.000348556
0.000381148
0.000417907
0.000458883
0.000504293
0.000554351
0.000608487
0.000668659
0.000735826
0.000801364
0.000869209
0.000957675
0.00106364
0.00114146
0.00157522
3.89584e-05
4.53757e-05
6.65808e-05
9.31605e-05
0.000411581
0.000958297
0.00118143
0.00114371
0.0010003
0.000925513
0.000842416
0.000781123
0.000721479
0.000678687
0.000636618
0.000603628
0.000578334
0.000559199
0.000548404
0.000544895
0.000550052
0.000564994
0.000590446
0.000627336
0.000675733
0.000735356
0.000805954
0.000886877
0.000977718
0.0010777
0.00118576
0.00130133
0.0014238
0.00155375
0.00169203
0.00183818
0.00199922
0.00219509
0.0024336
0.00265426
0.00341924
4.07381e-05
3.82132e-05
4.70978e-05
4.78297e-05
0.000152012
0.000592352
0.00129481
0.00169883
0.00177009
0.00168091
0.001536
0.00143521
0.00132967
0.00125327
0.00117734
0.00111533
0.00106949
0.00103336
0.00101245
0.00100491
0.00101254
0.0010384
0.001085
0.00115362
0.00124356
0.00135348
0.00148243
0.00162918
0.00179275
0.00197186
0.00216482
0.00237009
0.00258641
0.00281399
0.00305387
0.00330867
0.00358973
0.0039264
0.00433851
0.00476664
0.00585064
4.02355e-05
3.94203e-05
4.0601e-05
3.87499e-05
3.74808e-05
0.000185943
0.000705078
0.00155058
0.00224071
0.00245275
0.00246557
0.00235761
0.00219129
0.00207493
0.00195906
0.00185666
0.00178463
0.00172545
0.00169032
0.00167717
0.00168613
0.0017227
0.00179283
0.00189869
0.0020393
0.00221298
0.00241791
0.00265152
0.00291164
0.00319605
0.00350142
0.00382475
0.00416381
0.00451818
0.0048888
0.00528026
0.00570846
0.00621703
0.00683982
0.0075372
0.0089198
4.00417e-05
4.02127e-05
3.96623e-05
4.09675e-05
2.83598e-05
2.39711e-05
0.000182097
0.000728819
0.00170635
0.00271412
0.00318976
0.00335984
0.00334733
0.00323542
0.00305411
0.00289195
0.00278563
0.00269412
0.00263659
0.0026147
0.00262304
0.00266886
0.00276457
0.00291438
0.00311695
0.00337063
0.00367254
0.00401793
0.00440217
0.00482188
0.00527106
0.00574415
0.00623723
0.00674884
0.00727915
0.00783425
0.00843554
0.0091403
0.0100048
0.0110254
0.0127378
4.00667e-05
4.01282e-05
3.98945e-05
4.05219e-05
3.97703e-05
1.98654e-05
5.79881e-06
0.000136752
0.000660532
0.00170472
0.00299952
0.00393066
0.00431081
0.00445501
0.00444508
0.00434013
0.00418635
0.0040319
0.00393841
0.00390337
0.00390953
0.00396135
0.00408211
0.00428081
0.0045553
0.0049048
0.00532586
0.00581077
0.00634968
0.00693813
0.00756605
0.00822333
0.0089033
0.00960289
0.0103202
0.0110619
0.0118551
0.0127696
0.0138949
0.0152721
0.0173599
4.00864e-05
4.00811e-05
4.01184e-05
3.99593e-05
4.09073e-05
4.00165e-05
8.87931e-06
1.71324e-06
8.47099e-05
0.000516603
0.00152434
0.00301889
0.00447239
0.00528203
0.00564941
0.00579373
0.00581716
0.00576397
0.00569265
0.00563764
0.00564133
0.00570848
0.00585674
0.006109
0.00646292
0.00692112
0.00748189
0.00813587
0.0088615
0.00965416
0.0104985
0.011376
0.0122755
0.0131918
0.0141191
0.0150619
0.0160536
0.017174
0.0185523
0.0202838
0.0227749
4.00834e-05
4.009e-05
4.00809e-05
4.01184e-05
3.98572e-05
4.19565e-05
3.87261e-05
1.38046e-05
1.86792e-05
2.2256e-05
0.000320599
0.00119054
0.00272408
0.00460032
0.00610545
0.00686394
0.00726489
0.00746879
0.00759082
0.0076753
0.00777987
0.0079331
0.00817455
0.0085316
0.00900333
0.00958943
0.0102991
0.0111351
0.0120777
0.0131087
0.0142077
0.0153423
0.0164909
0.0176478
0.0188006
0.0199451
0.0211231
0.0224256
0.0240008
0.0260311
0.028885
4.00829e-05
4.00854e-05
4.00847e-05
4.00922e-05
4.00543e-05
3.99435e-05
4.22994e-05
3.76738e-05
1.9922e-05
8.64886e-06
1.9704e-06
0.000159893
0.00078747
0.00216771
0.00421864
0.00640781
0.00795823
0.00876769
0.00928251
0.00965079
0.00999465
0.0103624
0.0108148
0.0113961
0.0121233
0.012993
0.0139917
0.0150991
0.0162981
0.0175913
0.0189746
0.0203946
0.0218077
0.0232112
0.0245893
0.0259123
0.0272321
0.0286567
0.0303223
0.0325128
0.0355912
4.00812e-05
4.00819e-05
4.00835e-05
4.00747e-05
4.01076e-05
3.99709e-05
4.0193e-05
4.17732e-05
3.95616e-05
2.51552e-05
7.02458e-06
2.44056e-05
2.20937e-05
0.000387355
0.00144522
0.0033655
0.00592008
0.00842887
0.010137
0.0111418
0.0119201
0.0126183
0.0133657
0.0142467
0.0153136
0.0165802
0.0180384
0.019665
0.0214207
0.0232525
0.0250916
0.026864
0.0285412
0.0301756
0.0317726
0.0332227
0.0345856
0.0360348
0.0376447
0.0397212
0.0427127
4.00788e-05
4.00785e-05
4.00776e-05
4.00783e-05
4.00718e-05
4.00891e-05
3.99809e-05
4.01712e-05
4.12838e-05
4.07302e-05
3.15863e-05
5.24065e-06
5.09222e-06
6.63622e-05
0.000129926
0.00075616
0.00224773
0.00470087
0.00777573
0.0107179
0.0128045
0.0141874
0.0153876
0.0166317
0.0180612
0.0197341
0.0216636
0.0238398
0.0262225
0.0287508
0.0313507
0.033937
0.0364143
0.0386899
0.0406421
0.0421701
0.0434115
0.0447766
0.046131
0.047768
0.0501999
4.00763e-05
4.00765e-05
4.00761e-05
4.00745e-05
4.00732e-05
4.00715e-05
4.00749e-05
4.00099e-05
4.0105e-05
4.08273e-05
4.16686e-05
3.63935e-05
1.52599e-05
4.86091e-06
1.5931e-05
0.000127252
0.00025191
0.00117072
0.00307874
0.00605742
0.00973802
0.0132535
0.0158809
0.0178549
0.0197639
0.0218584
0.0242152
0.0268776
0.0298197
0.0329768
0.0362715
0.0396147
0.0429055
0.0460467
0.0489356
0.0514614
0.0535335
0.0550767
0.0560311
0.056962
0.0585192
4.0074e-05
4.00752e-05
4.00744e-05
4.00732e-05
4.00722e-05
4.0071e-05
4.00707e-05
4.00713e-05
4.00329e-05
4.00448e-05
4.04727e-05
4.18956e-05
3.96704e-05
2.67551e-05
1.90504e-06
1.8694e-06
2.94572e-05
0.000189565
0.000361232
0.00151175
0.00379846
0.0071393
0.0110807
0.015127
0.0187642
0.0218542
0.0247742
0.0279043
0.0313356
0.0350219
0.0389017
0.0428962
0.0468936
0.0507932
0.0544954
0.0579051
0.0609346
0.063528
0.0656209
0.067196
0.0682805
4.00721e-05
4.00745e-05
4.00738e-05
4.00728e-05
4.00718e-05
4.0071e-05
4.00703e-05
4.00712e-05
4.00704e-05
4.00549e-05
4.00038e-05
4.02704e-05
4.14577e-05
4.12063e-05
3.63436e-05
1.63927e-05
5.44022e-06
7.52753e-07
5.02419e-05
6.72452e-05
0.000491413
0.00163409
0.00377273
0.00687368
0.0107792
0.0152385
0.0199648
0.0246448
0.0291093
0.0334606
0.0378916
0.0424663
0.0471045
0.0516933
0.05613
0.060322
0.0641984
0.0677265
0.0708395
0.0734938
0.0756941
4.00706e-05
4.00731e-05
4.00726e-05
4.00718e-05
4.0071e-05
4.00704e-05
4.00698e-05
4.00695e-05
4.00699e-05
4.00703e-05
4.00651e-05
4.00006e-05
4.01464e-05
4.06702e-05
4.19469e-05
3.94739e-05
3.22117e-05
8.07549e-06
3.69208e-06
7.07158e-06
5.2906e-05
0.000217663
0.000295538
0.00112999
0.00269964
0.00512892
0.00843988
0.0125965
0.017514
0.0230616
0.0290114
0.0350435
0.0408838
0.0464315
0.0517018
0.0567176
0.0614644
0.0659214
0.0700309
0.073732
0.0769989
4.00691e-05
4.00715e-05
4.00713e-05
4.00707e-05
4.007e-05
4.00695e-05
4.00692e-05
4.00687e-05
4.00683e-05
4.00678e-05
4.00704e-05
4.00639e-05
4.00351e-05
4.00186e-05
4.03684e-05
4.1195e-05
4.19172e-05
3.82322e-05
2.77601e-05
7.68928e-06
2.14222e-06
1.89958e-07
2.78412e-05
0.000106761
1.17011e-05
0.000325335
0.00111867
0.00250592
0.0046203
0.00755067
0.011351
0.0160233
0.0214995
0.0276523
0.0342601
0.0410134
0.0475916
0.0537955
0.0594768
0.0645729
0.0691176
4.00672e-05
4.00692e-05
4.00687e-05
4.00678e-05
4.0067e-05
4.00664e-05
4.0066e-05
4.00658e-05
4.00658e-05
4.00657e-05
4.00656e-05
4.00674e-05
4.00653e-05
4.00493e-05
4.00028e-05
4.01184e-05
4.05757e-05
4.16799e-05
4.16362e-05
3.66794e-05
2.43574e-05
2.2162e-06
2.62473e-06
5.16846e-07
9.86162e-07
2.69452e-05
9.10491e-05
0.000221841
0.000122568
0.00047803
0.00128207
0.00261583
0.00458014
0.0072687
0.0107348
0.0149629
0.0198758
0.025407
0.0313881
0.0376227
0.0439181
4.0065e-05
4.00663e-05
4.00654e-05
4.00643e-05
4.00635e-05
4.00629e-05
4.00625e-05
4.00624e-05
4.00623e-05
4.00624e-05
4.00625e-05
4.00629e-05
4.00633e-05
4.00658e-05
4.00537e-05
4.00315e-05
4.00025e-05
4.02454e-05
4.08601e-05
4.19453e-05
4.14122e-05
3.63802e-05
2.73691e-05
6.36565e-06
3.51499e-06
1.75843e-06
2.90688e-07
0
9.30403e-06
3.56183e-05
9.37731e-05
0.000187813
0.000353723
0.000169114
0.000630384
0.00144582
0.00270459
0.00446777
0.00677675
0.00964129
0.0130984
4.00626e-05
4.00633e-05
4.00623e-05
4.00611e-05
4.00603e-05
4.00598e-05
4.00595e-05
4.00594e-05
4.00595e-05
4.00596e-05
4.00597e-05
4.006e-05
4.00602e-05
4.00609e-05
4.00621e-05
4.00608e-05
4.00414e-05
4.00107e-05
4.00284e-05
4.03302e-05
4.10842e-05
4.17827e-05
4.15756e-05
3.78665e-05
3.13006e-05
2.29289e-05
3.8661e-06
2.93303e-06
1.71446e-06
1.06445e-06
0
0
0
1.1388e-05
4.16617e-05
9.36868e-05
0.000171578
0.000286908
3.60016e-05
0.000224955
0.000617569
4.00601e-05
4.00604e-05
4.00593e-05
4.00583e-05
4.00577e-05
4.00574e-05
4.00573e-05
4.00574e-05
4.00575e-05
4.00577e-05
4.00579e-05
4.00581e-05
4.00584e-05
4.00586e-05
4.00591e-05
4.00601e-05
4.00612e-05
4.00539e-05
4.0028e-05
3.99946e-05
4.00565e-05
4.0407e-05
4.09893e-05
4.18385e-05
4.1811e-05
4.08543e-05
3.72845e-05
3.13612e-05
2.42711e-05
1.53819e-05
5.13291e-06
2.01798e-06
1.64067e-06
1.22209e-06
7.96445e-07
2.07224e-08
0
0
2.13663e-06
1.31059e-05
3.51694e-05
4.00576e-05
4.00576e-05
4.00568e-05
4.00561e-05
4.00559e-05
4.00559e-05
4.00561e-05
4.00563e-05
4.00566e-05
4.00568e-05
4.00571e-05
4.00574e-05
4.00576e-05
4.00579e-05
4.00581e-05
4.00583e-05
4.00591e-05
4.00603e-05
4.00596e-05
4.00479e-05
4.00147e-05
3.99999e-05
4.00446e-05
4.03069e-05
4.0774e-05
4.131e-05
4.19913e-05
4.19948e-05
4.111e-05
3.92755e-05
3.58175e-05
3.11706e-05
2.58866e-05
1.96437e-05
1.30629e-05
3.47088e-07
1.9113e-06
1.60383e-06
1.33971e-06
1.0814e-06
7.99282e-07
4.00551e-05
4.00552e-05
4.00548e-05
4.00547e-05
4.00549e-05
4.00553e-05
4.00557e-05
4.00562e-05
4.00566e-05
4.0057e-05
4.00573e-05
4.00576e-05
4.00579e-05
4.00581e-05
4.00584e-05
4.00585e-05
4.00587e-05
4.00591e-05
4.006e-05
4.00612e-05
4.00582e-05
4.00444e-05
4.00183e-05
3.99933e-05
4.00222e-05
4.01248e-05
4.03881e-05
4.07997e-05
4.12744e-05
4.17306e-05
4.21297e-05
4.20488e-05
4.14512e-05
4.02445e-05
3.85939e-05
3.59168e-05
3.25659e-05
2.87216e-05
2.45459e-05
2.02042e-05
1.52868e-05
4.00528e-05
4.00533e-05
4.00535e-05
4.0054e-05
4.00546e-05
4.00553e-05
4.00561e-05
4.00567e-05
4.00573e-05
4.00578e-05
4.00582e-05
4.00586e-05
4.00589e-05
4.00592e-05
4.00594e-05
4.00596e-05
4.00598e-05
4.00599e-05
4.00601e-05
4.00605e-05
4.00617e-05
4.00622e-05
4.00598e-05
4.00484e-05
4.00283e-05
4.00057e-05
3.9992e-05
4.00158e-05
4.01033e-05
4.02661e-05
4.05255e-05
4.08608e-05
4.12288e-05
4.15883e-05
4.18829e-05
4.21869e-05
4.22236e-05
4.19478e-05
4.13672e-05
4.04903e-05
3.93839e-05
4.00508e-05
4.00519e-05
4.00528e-05
4.00539e-05
4.00549e-05
4.00559e-05
4.00568e-05
4.00576e-05
4.00583e-05
4.00589e-05
4.00595e-05
4.00599e-05
4.00603e-05
4.00606e-05
4.00609e-05
4.00611e-05
4.00613e-05
4.00615e-05
4.00616e-05
4.00617e-05
4.0062e-05
4.00626e-05
4.00636e-05
4.00643e-05
4.00627e-05
4.00573e-05
4.00454e-05
4.00274e-05
4.00075e-05
3.99933e-05
3.99937e-05
4.00211e-05
4.00847e-05
4.01929e-05
4.03411e-05
4.05427e-05
4.07867e-05
4.10596e-05
4.13372e-05
4.16015e-05
4.18342e-05
4.00493e-05
4.00511e-05
4.00527e-05
4.00542e-05
4.00555e-05
4.00567e-05
4.00578e-05
4.00587e-05
4.00595e-05
4.00601e-05
4.00607e-05
4.00613e-05
4.00617e-05
4.00621e-05
4.00624e-05
4.00627e-05
4.0063e-05
4.00632e-05
4.00634e-05
4.00636e-05
4.00638e-05
4.00639e-05
4.00642e-05
4.00647e-05
4.00655e-05
4.00663e-05
4.00664e-05
4.00649e-05
4.00604e-05
4.00522e-05
4.00402e-05
4.00254e-05
4.00099e-05
3.99969e-05
3.99899e-05
3.99916e-05
4.00067e-05
4.00408e-05
4.00955e-05
4.01761e-05
4.02659e-05
4.00482e-05
4.00508e-05
4.00529e-05
4.00546e-05
4.00562e-05
4.00575e-05
4.00586e-05
4.00596e-05
4.00605e-05
4.00612e-05
4.00619e-05
4.00625e-05
4.0063e-05
4.00635e-05
4.00639e-05
4.00643e-05
4.00646e-05
4.00649e-05
4.00652e-05
4.00654e-05
4.00657e-05
4.00659e-05
4.00661e-05
4.00662e-05
4.00664e-05
4.00668e-05
4.00673e-05
4.0068e-05
4.00686e-05
4.0069e-05
4.00685e-05
4.00667e-05
4.00634e-05
4.00579e-05
4.00505e-05
4.00411e-05
4.00302e-05
4.00183e-05
4.00065e-05
3.99964e-05
3.99889e-05
4.00475e-05
4.00508e-05
4.00532e-05
4.00551e-05
4.00567e-05
4.00581e-05
4.00593e-05
4.00604e-05
4.00614e-05
4.00622e-05
4.0063e-05
4.00636e-05
4.00642e-05
4.00648e-05
4.00653e-05
4.00657e-05
4.00661e-05
4.00664e-05
4.00668e-05
4.00671e-05
4.00674e-05
4.00677e-05
4.00679e-05
4.00681e-05
4.00683e-05
4.00685e-05
4.00686e-05
4.00688e-05
4.00691e-05
4.00694e-05
4.00699e-05
4.00703e-05
4.00708e-05
4.00711e-05
4.00711e-05
4.00706e-05
4.00695e-05
4.00675e-05
4.00646e-05
4.00604e-05
4.00563e-05
4.00473e-05
4.00509e-05
4.00534e-05
4.00554e-05
4.00571e-05
4.00586e-05
4.00599e-05
4.0061e-05
4.00621e-05
4.0063e-05
4.00638e-05
4.00646e-05
4.00653e-05
4.00659e-05
4.00665e-05
4.0067e-05
4.00674e-05
4.00679e-05
4.00683e-05
4.00686e-05
4.0069e-05
4.00693e-05
4.00696e-05
4.00699e-05
4.00701e-05
4.00703e-05
4.00705e-05
4.00706e-05
4.00707e-05
4.00708e-05
4.00709e-05
4.0071e-05
4.00711e-05
4.00713e-05
4.00715e-05
4.00717e-05
4.00719e-05
4.00722e-05
4.00723e-05
4.00724e-05
4.00724e-05
4.00472e-05
4.00509e-05
4.00535e-05
4.00556e-05
4.00574e-05
4.00589e-05
4.00603e-05
4.00615e-05
4.00626e-05
4.00637e-05
4.00646e-05
4.00654e-05
4.00662e-05
4.00669e-05
4.00675e-05
4.00681e-05
4.00686e-05
4.00691e-05
4.00696e-05
4.007e-05
4.00705e-05
4.00708e-05
4.00712e-05
4.00715e-05
4.00718e-05
4.0072e-05
4.00722e-05
4.00724e-05
4.00725e-05
4.00726e-05
4.00727e-05
4.00727e-05
4.00727e-05
4.00727e-05
4.00727e-05
4.00726e-05
4.00726e-05
4.00725e-05
4.00724e-05
4.00724e-05
4.00722e-05
4.00471e-05
4.00508e-05
4.00535e-05
4.00556e-05
4.00574e-05
4.0059e-05
4.00605e-05
4.00618e-05
4.0063e-05
4.00641e-05
4.00652e-05
4.00661e-05
4.00669e-05
4.00677e-05
4.00684e-05
4.00691e-05
4.00697e-05
4.00703e-05
4.00708e-05
4.00713e-05
4.00718e-05
4.00722e-05
4.00726e-05
4.0073e-05
4.00733e-05
4.00736e-05
4.00738e-05
4.0074e-05
4.00742e-05
4.00743e-05
4.00744e-05
4.00745e-05
4.00745e-05
4.00745e-05
4.00745e-05
4.00744e-05
4.00743e-05
4.00742e-05
4.00741e-05
4.00739e-05
4.00737e-05
4.00468e-05
4.00505e-05
4.00532e-05
4.00554e-05
4.00573e-05
4.0059e-05
4.00605e-05
4.00619e-05
4.00632e-05
4.00644e-05
4.00656e-05
4.00666e-05
4.00675e-05
4.00684e-05
4.00692e-05
4.007e-05
4.00707e-05
4.00713e-05
4.00719e-05
4.00725e-05
4.0073e-05
4.00735e-05
4.0074e-05
4.00744e-05
4.00747e-05
4.0075e-05
4.00753e-05
4.00755e-05
4.00757e-05
4.00759e-05
4.0076e-05
4.00761e-05
4.00762e-05
4.00762e-05
4.00762e-05
4.00762e-05
4.00761e-05
4.0076e-05
4.00759e-05
4.00758e-05
4.00756e-05
4.00464e-05
4.00501e-05
4.00528e-05
4.0055e-05
4.00569e-05
4.00587e-05
4.00603e-05
4.00618e-05
4.00633e-05
4.00646e-05
4.00658e-05
4.00669e-05
4.0068e-05
4.0069e-05
4.00699e-05
4.00707e-05
4.00715e-05
4.00722e-05
4.00729e-05
4.00735e-05
4.00741e-05
4.00747e-05
4.00752e-05
4.00756e-05
4.0076e-05
4.00764e-05
4.00767e-05
4.0077e-05
4.00772e-05
4.00774e-05
4.00775e-05
4.00777e-05
4.00778e-05
4.00778e-05
4.00778e-05
4.00779e-05
4.00778e-05
4.00778e-05
4.00777e-05
4.00777e-05
4.00775e-05
4.00458e-05
4.00494e-05
4.00521e-05
4.00543e-05
4.00563e-05
4.00582e-05
4.00599e-05
4.00616e-05
4.00631e-05
4.00645e-05
4.00659e-05
4.00671e-05
4.00683e-05
4.00694e-05
4.00704e-05
4.00713e-05
4.00722e-05
4.0073e-05
4.00738e-05
4.00745e-05
4.00752e-05
4.00758e-05
4.00763e-05
4.00768e-05
4.00773e-05
4.00777e-05
4.0078e-05
4.00784e-05
4.00786e-05
4.00789e-05
4.0079e-05
4.00792e-05
4.00793e-05
4.00794e-05
4.00795e-05
4.00795e-05
4.00796e-05
4.00796e-05
4.00795e-05
4.00795e-05
4.00794e-05
4.0045e-05
4.00485e-05
4.00512e-05
4.00535e-05
4.00555e-05
4.00575e-05
4.00593e-05
4.00611e-05
4.00627e-05
4.00643e-05
4.00658e-05
4.00671e-05
4.00684e-05
4.00696e-05
4.00708e-05
4.00718e-05
4.00728e-05
4.00737e-05
4.00745e-05
4.00753e-05
4.00761e-05
4.00768e-05
4.00774e-05
4.0078e-05
4.00785e-05
4.00789e-05
4.00793e-05
4.00797e-05
4.008e-05
4.00803e-05
4.00805e-05
4.00807e-05
4.00809e-05
4.0081e-05
4.00811e-05
4.00812e-05
4.00813e-05
4.00813e-05
4.00814e-05
4.00814e-05
4.00813e-05
4.0044e-05
4.00474e-05
4.005e-05
4.00523e-05
4.00544e-05
4.00565e-05
4.00585e-05
4.00603e-05
4.00621e-05
4.00638e-05
4.00654e-05
4.00669e-05
4.00684e-05
4.00697e-05
4.00709e-05
4.00721e-05
4.00732e-05
4.00742e-05
4.00751e-05
4.0076e-05
4.00769e-05
4.00776e-05
4.00783e-05
4.0079e-05
4.00795e-05
4.00801e-05
4.00805e-05
4.00809e-05
4.00813e-05
4.00816e-05
4.00819e-05
4.00822e-05
4.00824e-05
4.00826e-05
4.00828e-05
4.00829e-05
4.0083e-05
4.00831e-05
4.00832e-05
4.00833e-05
4.00833e-05
4.00427e-05
4.0046e-05
4.00486e-05
4.00509e-05
4.00531e-05
4.00552e-05
4.00573e-05
4.00593e-05
4.00612e-05
4.00631e-05
4.00648e-05
4.00664e-05
4.0068e-05
4.00695e-05
4.00708e-05
4.00721e-05
4.00733e-05
4.00744e-05
4.00755e-05
4.00765e-05
4.00774e-05
4.00783e-05
4.00791e-05
4.00798e-05
4.00805e-05
4.0081e-05
4.00816e-05
4.00821e-05
4.00825e-05
4.00829e-05
4.00832e-05
4.00835e-05
4.00838e-05
4.0084e-05
4.00843e-05
4.00845e-05
4.00846e-05
4.00848e-05
4.00849e-05
4.00851e-05
4.00852e-05
4.00411e-05
4.00443e-05
4.00468e-05
4.00492e-05
4.00514e-05
4.00537e-05
4.00558e-05
4.00579e-05
4.006e-05
4.00619e-05
4.00638e-05
4.00656e-05
4.00672e-05
4.00688e-05
4.00704e-05
4.00718e-05
4.00731e-05
4.00744e-05
4.00755e-05
4.00766e-05
4.00777e-05
4.00786e-05
4.00795e-05
4.00803e-05
4.00811e-05
4.00817e-05
4.00823e-05
4.00829e-05
4.00834e-05
4.00839e-05
4.00843e-05
4.00846e-05
4.0085e-05
4.00853e-05
4.00856e-05
4.00858e-05
4.0086e-05
4.00863e-05
4.00865e-05
4.00867e-05
4.00868e-05
4.00392e-05
4.00422e-05
4.00447e-05
4.00471e-05
4.00494e-05
4.00517e-05
4.00539e-05
4.00561e-05
4.00582e-05
4.00603e-05
4.00623e-05
4.00642e-05
4.0066e-05
4.00677e-05
4.00694e-05
4.00709e-05
4.00724e-05
4.00738e-05
4.00751e-05
4.00763e-05
4.00774e-05
4.00785e-05
4.00795e-05
4.00804e-05
4.00812e-05
4.0082e-05
4.00827e-05
4.00833e-05
4.00839e-05
4.00844e-05
4.00849e-05
4.00853e-05
4.00857e-05
4.00861e-05
4.00865e-05
4.00868e-05
4.00871e-05
4.00874e-05
4.00876e-05
4.00879e-05
4.00881e-05
4.0037e-05
4.00398e-05
4.00423e-05
4.00446e-05
4.00469e-05
4.00492e-05
4.00515e-05
4.00537e-05
4.00559e-05
4.0058e-05
4.00601e-05
4.00622e-05
4.00641e-05
4.0066e-05
4.00678e-05
4.00694e-05
4.00711e-05
4.00726e-05
4.0074e-05
4.00753e-05
4.00766e-05
4.00778e-05
4.00789e-05
4.00799e-05
4.00808e-05
4.00817e-05
4.00824e-05
4.00832e-05
4.00838e-05
4.00844e-05
4.0085e-05
4.00855e-05
4.0086e-05
4.00864e-05
4.00868e-05
4.00872e-05
4.00875e-05
4.00879e-05
4.00882e-05
4.00885e-05
4.00888e-05
4.00344e-05
4.00371e-05
4.00394e-05
4.00417e-05
4.0044e-05
4.00462e-05
4.00485e-05
4.00507e-05
4.00529e-05
4.00551e-05
4.00573e-05
4.00594e-05
4.00615e-05
4.00635e-05
4.00654e-05
4.00672e-05
4.0069e-05
4.00706e-05
4.00722e-05
4.00736e-05
4.0075e-05
4.00763e-05
4.00775e-05
4.00786e-05
4.00796e-05
4.00806e-05
4.00814e-05
4.00823e-05
4.0083e-05
4.00837e-05
4.00843e-05
4.00849e-05
4.00854e-05
4.00859e-05
4.00864e-05
4.00868e-05
4.00873e-05
4.00877e-05
4.0088e-05
4.00884e-05
4.00888e-05
4.00314e-05
4.00339e-05
4.00361e-05
4.00383e-05
4.00404e-05
4.00426e-05
4.00448e-05
4.0047e-05
4.00493e-05
4.00515e-05
4.00537e-05
4.0056e-05
4.00581e-05
4.00602e-05
4.00622e-05
4.00642e-05
4.0066e-05
4.00678e-05
4.00695e-05
4.00711e-05
4.00726e-05
4.0074e-05
4.00753e-05
4.00765e-05
4.00776e-05
4.00787e-05
4.00796e-05
4.00805e-05
4.00814e-05
4.00821e-05
4.00828e-05
4.00835e-05
4.00841e-05
4.00846e-05
4.00851e-05
4.00856e-05
4.00861e-05
4.00865e-05
4.0087e-05
4.00874e-05
4.00877e-05
4.0028e-05
4.00302e-05
4.00323e-05
4.00343e-05
4.00362e-05
4.00383e-05
4.00404e-05
4.00426e-05
4.00448e-05
4.00471e-05
4.00493e-05
4.00516e-05
4.00538e-05
4.0056e-05
4.00582e-05
4.00602e-05
4.00622e-05
4.00641e-05
4.00659e-05
4.00676e-05
4.00692e-05
4.00707e-05
4.00721e-05
4.00734e-05
4.00746e-05
4.00757e-05
4.00767e-05
4.00777e-05
4.00786e-05
4.00794e-05
4.00802e-05
4.00809e-05
4.00816e-05
4.00822e-05
4.00828e-05
4.00834e-05
4.00839e-05
4.00844e-05
4.00849e-05
4.00854e-05
4.00858e-05
4.00241e-05
4.00261e-05
4.00279e-05
4.00296e-05
4.00314e-05
4.00333e-05
4.00353e-05
4.00373e-05
4.00395e-05
4.00417e-05
4.0044e-05
4.00463e-05
4.00485e-05
4.00508e-05
4.0053e-05
4.00551e-05
4.00572e-05
4.00591e-05
4.0061e-05
4.00628e-05
4.00646e-05
4.00662e-05
4.00677e-05
4.00691e-05
4.00705e-05
4.00717e-05
4.00728e-05
4.00739e-05
4.00749e-05
4.00758e-05
4.00766e-05
4.00774e-05
4.00782e-05
4.00788e-05
4.00795e-05
4.00801e-05
4.00806e-05
4.00811e-05
4.00816e-05
4.00821e-05
4.00825e-05
4.00197e-05
4.00214e-05
4.00228e-05
4.00243e-05
4.00259e-05
4.00275e-05
4.00293e-05
4.00313e-05
4.00333e-05
4.00354e-05
4.00376e-05
4.00398e-05
4.0042e-05
4.00442e-05
4.00464e-05
4.00486e-05
4.00507e-05
4.00528e-05
4.00547e-05
4.00566e-05
4.00584e-05
4.00601e-05
4.00616e-05
4.00631e-05
4.00645e-05
4.00657e-05
4.00669e-05
4.0068e-05
4.00691e-05
4.00701e-05
4.0071e-05
4.00718e-05
4.00726e-05
4.00733e-05
4.0074e-05
4.00747e-05
4.00753e-05
4.00759e-05
4.00765e-05
4.0077e-05
4.00775e-05
4.00148e-05
4.00161e-05
4.00172e-05
4.00183e-05
4.00196e-05
4.0021e-05
4.00226e-05
4.00243e-05
4.0026e-05
4.00279e-05
4.00299e-05
4.00319e-05
4.0034e-05
4.00361e-05
4.00382e-05
4.00402e-05
4.00422e-05
4.00442e-05
4.00462e-05
4.00482e-05
4.005e-05
4.00518e-05
4.00535e-05
4.00552e-05
4.00567e-05
4.00582e-05
4.00595e-05
4.00608e-05
4.0062e-05
4.00631e-05
4.00641e-05
4.0065e-05
4.00659e-05
4.00667e-05
4.00675e-05
4.00682e-05
4.00689e-05
4.00695e-05
4.00701e-05
4.00706e-05
4.00711e-05
4.00093e-05
4.00101e-05
4.00108e-05
4.00116e-05
4.00126e-05
4.00136e-05
4.00148e-05
4.0016e-05
4.00174e-05
4.00188e-05
4.00204e-05
4.0022e-05
4.00238e-05
4.00257e-05
4.00278e-05
4.003e-05
4.00322e-05
4.00343e-05
4.00364e-05
4.00384e-05
4.00403e-05
4.00421e-05
4.00438e-05
4.00454e-05
4.00469e-05
4.00483e-05
4.00496e-05
4.00509e-05
4.0052e-05
4.00531e-05
4.00542e-05
4.00551e-05
4.0056e-05
4.00568e-05
4.00576e-05
4.00584e-05
4.0059e-05
4.00597e-05
4.00603e-05
4.00609e-05
4.00614e-05
4.00032e-05
4.00034e-05
4.00037e-05
4.00041e-05
4.00045e-05
4.00049e-05
4.00054e-05
4.0006e-05
4.00067e-05
4.00073e-05
4.00081e-05
4.00088e-05
4.00095e-05
4.00103e-05
4.0011e-05
4.00117e-05
4.00124e-05
4.0013e-05
4.00136e-05
4.00143e-05
4.0015e-05
4.00158e-05
4.00166e-05
4.00174e-05
4.00184e-05
4.00193e-05
4.00202e-05
4.00212e-05
4.00221e-05
4.0023e-05
4.00239e-05
4.00248e-05
4.00257e-05
4.00265e-05
4.00273e-05
4.00281e-05
4.00288e-05
4.00295e-05
4.00303e-05
4.00309e-05
4.00316e-05
0.00347621
0.00720709
0.0106199
0.0126799
0.0129713
0.0115888
0.00891087
0.00545261
0.00206459
0.000197984
8.9609e-05
3.47553e-06
2.32312e-05
4.37405e-05
4.43047e-05
3.95621e-05
3.90803e-05
4.00144e-05
4.02779e-05
4.01355e-05
4.00614e-05
4.00678e-05
4.00762e-05
4.00739e-05
4.00705e-05
4.00682e-05
4.00661e-05
4.00643e-05
4.0063e-05
4.00623e-05
4.0062e-05
4.0062e-05
4.00622e-05
4.00624e-05
4.00627e-05
4.00629e-05
4.00631e-05
4.00633e-05
4.00634e-05
4.00633e-05
4.00631e-05
4.00627e-05
4.00619e-05
4.00609e-05
4.00595e-05
4.00577e-05
4.00557e-05
4.00533e-05
4.00506e-05
4.00477e-05
4.00446e-05
4.00412e-05
4.00377e-05
4.00341e-05
4.00304e-05
4.00267e-05
4.00231e-05
4.00197e-05
4.00168e-05
4.00146e-05
4.00132e-05
4.0013e-05
4.00136e-05
4.00151e-05
4.00173e-05
4.002e-05
4.00233e-05
4.0027e-05
4.00311e-05
4.00356e-05
4.00404e-05
4.00461e-05
4.00506e-05
4.00633e-05
0.00597077
0.0108774
0.0148303
0.017083
0.017453
0.0161164
0.0134508
0.00988715
0.00590153
0.00237502
0.000409296
0.000188375
5.86579e-06
9.75845e-06
4.05492e-05
4.60392e-05
4.15734e-05
3.89567e-05
3.94428e-05
4.01145e-05
4.01825e-05
4.00846e-05
4.0061e-05
4.00729e-05
4.00762e-05
4.00723e-05
4.0069e-05
4.00674e-05
4.00663e-05
4.00655e-05
4.00652e-05
4.00652e-05
4.00653e-05
4.00655e-05
4.00657e-05
4.00659e-05
4.00661e-05
4.00662e-05
4.00662e-05
4.00661e-05
4.00658e-05
4.00652e-05
4.00644e-05
4.00631e-05
4.00616e-05
4.00596e-05
4.00574e-05
4.00548e-05
4.00519e-05
4.00487e-05
4.00453e-05
4.00418e-05
4.00381e-05
4.00343e-05
4.00305e-05
4.00267e-05
4.0023e-05
4.00195e-05
4.00167e-05
4.00145e-05
4.00133e-05
4.00131e-05
4.00138e-05
4.00152e-05
4.00173e-05
4.002e-05
4.00231e-05
4.00267e-05
4.00307e-05
4.00351e-05
4.00397e-05
4.00453e-05
4.00497e-05
4.0062e-05
0.00835424
0.0147014
0.0193988
0.0219598
0.0224925
0.0212595
0.0186411
0.0150647
0.0109364
0.00673921
0.00316145
0.000864017
0.000360046
2.62517e-05
1.03471e-05
2.35637e-05
4.36038e-05
4.41928e-05
4.01391e-05
3.91358e-05
3.9809e-05
4.01908e-05
4.01465e-05
4.0069e-05
4.00637e-05
4.00749e-05
4.00752e-05
4.00712e-05
4.00692e-05
4.00688e-05
4.00688e-05
4.00687e-05
4.00687e-05
4.00688e-05
4.0069e-05
4.00691e-05
4.00692e-05
4.00692e-05
4.00692e-05
4.0069e-05
4.00685e-05
4.00678e-05
4.00668e-05
4.00654e-05
4.00636e-05
4.00614e-05
4.00589e-05
4.00561e-05
4.0053e-05
4.00496e-05
4.0046e-05
4.00422e-05
4.00384e-05
4.00344e-05
4.00304e-05
4.00265e-05
4.00228e-05
4.00194e-05
4.00166e-05
4.00146e-05
4.00136e-05
4.00134e-05
4.00141e-05
4.00154e-05
4.00174e-05
4.002e-05
4.0023e-05
4.00265e-05
4.00303e-05
4.00346e-05
4.00391e-05
4.00445e-05
4.00487e-05
4.00606e-05
0.0107156
0.0187215
0.0242957
0.0272801
0.0280751
0.0270273
0.0245145
0.0209616
0.0167868
0.0123866
0.00816356
0.00449994
0.00165966
0.000118759
0.000145718
5.78548e-06
7.96499e-06
3.70358e-05
4.76431e-05
4.33169e-05
3.9608e-05
3.94018e-05
4.00199e-05
4.01976e-05
4.01135e-05
4.00619e-05
4.00681e-05
4.00781e-05
4.00768e-05
4.0073e-05
4.00718e-05
4.00721e-05
4.00724e-05
4.00725e-05
4.00724e-05
4.00724e-05
4.00724e-05
4.00723e-05
4.00722e-05
4.00718e-05
4.00712e-05
4.00703e-05
4.00691e-05
4.00675e-05
4.00655e-05
4.00631e-05
4.00604e-05
4.00573e-05
4.00539e-05
4.00503e-05
4.00465e-05
4.00425e-05
4.00385e-05
4.00344e-05
4.00304e-05
4.00264e-05
4.00227e-05
4.00194e-05
4.00167e-05
4.00149e-05
4.00139e-05
4.00138e-05
4.00144e-05
4.00157e-05
4.00176e-05
4.002e-05
4.00229e-05
4.00262e-05
4.00299e-05
4.0034e-05
4.00384e-05
4.00436e-05
4.00477e-05
4.00592e-05
0.0132696
0.0230122
0.0294786
0.0329825
0.0341515
0.0333958
0.0310851
0.0276279
0.0234518
0.0189598
0.0144968
0.0102878
0.00640399
0.00299613
0.000715369
0.000361572
1.8347e-06
9.23431e-06
1.89889e-05
3.99575e-05
4.5127e-05
4.13478e-05
3.93538e-05
3.96594e-05
4.01498e-05
4.0195e-05
4.00905e-05
4.00525e-05
4.00668e-05
4.00798e-05
4.00799e-05
4.00767e-05
4.00755e-05
4.00758e-05
4.00761e-05
4.0076e-05
4.00758e-05
4.00755e-05
4.00752e-05
4.00747e-05
4.00739e-05
4.00728e-05
4.00714e-05
4.00695e-05
4.00673e-05
4.00647e-05
4.00616e-05
4.00583e-05
4.00547e-05
4.00508e-05
4.00468e-05
4.00427e-05
4.00385e-05
4.00343e-05
4.00302e-05
4.00263e-05
4.00227e-05
4.00195e-05
4.0017e-05
4.00153e-05
4.00145e-05
4.00143e-05
4.00149e-05
4.00161e-05
4.00178e-05
4.00201e-05
4.00229e-05
4.0026e-05
4.00296e-05
4.00335e-05
4.00377e-05
4.00428e-05
4.00467e-05
4.00578e-05
0.0169969
0.0276606
0.0348944
0.0389825
0.0406331
0.0402892
0.0383057
0.0350614
0.0309721
0.0264518
0.0218577
0.0174131
0.0131411
0.00893893
0.00490448
0.00172006
0.000699075
0.000117289
4.30591e-06
1.02743e-05
3.05701e-05
4.56291e-05
4.41482e-05
4.0241e-05
3.91802e-05
3.97597e-05
4.02123e-05
4.02135e-05
4.00971e-05
4.00553e-05
4.00686e-05
4.00829e-05
4.00843e-05
4.0081e-05
4.00793e-05
4.00792e-05
4.00793e-05
4.00789e-05
4.00782e-05
4.00774e-05
4.00765e-05
4.00752e-05
4.00735e-05
4.00714e-05
4.00689e-05
4.0066e-05
4.00627e-05
4.00592e-05
4.00553e-05
4.00512e-05
4.0047e-05
4.00428e-05
4.00385e-05
4.00342e-05
4.00301e-05
4.00263e-05
4.00228e-05
4.00198e-05
4.00174e-05
4.00159e-05
4.00151e-05
4.0015e-05
4.00154e-05
4.00165e-05
4.00181e-05
4.00203e-05
4.00228e-05
4.00258e-05
4.00291e-05
4.00329e-05
4.00369e-05
4.00418e-05
4.00456e-05
4.00562e-05
0.0218619
0.0326753
0.0405008
0.045183
0.0473959
0.0475789
0.0460611
0.0431798
0.0393175
0.0348792
0.0302373
0.025652
0.0211967
0.0167591
0.0121803
0.00752839
0.00328903
0.000613722
0.000427597
0
7.06648e-06
5.7835e-06
3.45191e-05
4.65127e-05
4.38386e-05
4.00217e-05
3.9163e-05
3.97621e-05
4.02049e-05
4.02166e-05
4.01041e-05
4.00574e-05
4.00685e-05
4.00852e-05
4.00887e-05
4.00852e-05
4.00823e-05
4.00814e-05
4.00811e-05
4.00804e-05
4.00791e-05
4.00774e-05
4.00754e-05
4.00731e-05
4.00704e-05
4.00672e-05
4.00637e-05
4.00599e-05
4.00558e-05
4.00515e-05
4.00472e-05
4.00428e-05
4.00384e-05
4.00341e-05
4.00301e-05
4.00263e-05
4.0023e-05
4.00202e-05
4.00181e-05
4.00167e-05
4.00159e-05
4.00157e-05
4.00161e-05
4.0017e-05
4.00185e-05
4.00204e-05
4.00228e-05
4.00256e-05
4.00287e-05
4.00323e-05
4.00362e-05
4.00409e-05
4.00444e-05
4.00547e-05
0.0275919
0.0380635
0.0462577
0.0514716
0.0542822
0.055084
0.0541655
0.0518126
0.0483562
0.0441679
0.0396157
0.0349908
0.0304316
0.0258978
0.0212268
0.0162533
0.0109795
0.00587181
0.00213622
0.000922841
0.00018945
1.05753e-05
8.17543e-06
1.31454e-05
3.66613e-05
4.56269e-05
4.32594e-05
3.99266e-05
3.91553e-05
3.97363e-05
4.02019e-05