/*--------------------------------*- C++ -*----------------------------------*\
| =========                 |                                                 |
| \\      /  F ield         | OpenFOAM: The Open Source CFD Toolbox           |
|  \\    /   O peration     | Version:  2312                                  |
|   \\  /    A nd           | Website:  www.openfoam.com                      |
|    \\/     M anipulation  |                                                 |
\*---------------------------------------------------------------------------*/
FoamFile
{
    version     2.0;
    format      ascii;
    arch        "LSB;label=32;scalar=64";
    class       volScalarField;
    location    "600";
    object      p;
}
// * * * * * * * * * * * * * * * * * * * * * * * * * * * * * * * * * * * * * //

dimensions      [0 2 -2 0 0 0 0];

internalField   nonuniform List<scalar> 
11040
(
-18.8236
-24.2315
-19.5975
-18.9737
-18.8466
-18.6407
-18.4367
-18.2675
-18.1373
-18.0458
-17.963
-17.8945
-17.8409
-17.7932
-17.7577
-17.7306
-17.7131
-17.7062
-17.7088
-17.7232
-17.7469
-17.7813
-17.8283
-17.8867
-17.9502
-18.0118
-18.0632
-18.0936
-18.0916
-18.0455
-17.9454
-17.7842
-17.5601
-17.2771
-16.9516
-16.6134
-16.2852
-16.0205
-15.9956
-16.0118
-16.4351
-7.95865
-14.4687
-18.3162
-18.7978
-18.808
-18.6527
-18.4492
-18.2759
-18.1399
-18.0467
-17.9631
-17.8929
-17.8386
-17.7901
-17.7539
-17.7262
-17.7081
-17.7006
-17.7026
-17.7164
-17.7399
-17.774
-17.8206
-17.8785
-17.9422
-18.0045
-18.0571
-18.0895
-18.0903
-18.0475
-17.951
-17.794
-17.5744
-17.296
-16.9748
-16.6403
-16.3155
-16.0493
-16.0275
-16.0236
-16.825
-1.34599
-8.23981
-14.4015
-17.7391
-18.555
-18.6066
-18.457
-18.2839
-18.1391
-18.0449
-17.9617
-17.8897
-17.8353
-17.7859
-17.749
-17.7208
-17.702
-17.694
-17.6953
-17.7085
-17.7315
-17.7657
-17.812
-17.8695
-17.9332
-17.996
-18.0498
-18.0841
-18.0875
-18.0484
-17.9564
-17.8048
-17.5915
-17.3201
-17.0061
-16.6788
-16.3624
-16.1006
-16.0902
-16.0642
-17.0187
2.54645
-4.46877
-10.3548
-14.6905
-17.3478
-18.3166
-18.3798
-18.285
-18.1378
-18.0403
-17.958
-17.8837
-17.8299
-17.7795
-17.7419
-17.7131
-17.6936
-17.685
-17.6857
-17.6982
-17.7207
-17.755
-17.8011
-17.8585
-17.9224
-17.9861
-18.0415
-18.0784
-18.0856
-18.0513
-17.9654
-17.821
-17.616
-17.3539
-17.0496
-16.7319
-16.4264
-16.1736
-16.1761
-16.143
-17.0923
5.04064
-0.700644
-6.32989
-11.03
-14.5971
-16.9531
-17.9971
-18.1287
-18.1309
-18.0391
-17.9555
-17.8741
-17.8221
-17.7708
-17.7329
-17.7034
-17.683
-17.6738
-17.6737
-17.6853
-17.7072
-17.7414
-17.7874
-17.8447
-17.909
-17.974
-18.0317
-18.0721
-18.0842
-18.0565
-17.9786
-17.8439
-17.65
-17.4002
-17.1089
-16.8043
-16.5128
-16.2744
-16.2864
-16.2629
-17.1292
6.45722
1.97106
-2.87423
-7.52253
-11.3949
-14.3383
-16.4391
-17.5588
-17.8936
-17.9879
-17.9557
-17.8663
-17.8121
-17.7585
-17.7211
-17.6915
-17.6701
-17.6604
-17.6594
-17.6701
-17.691
-17.7249
-17.7706
-17.8279
-17.8927
-17.9594
-18.02
-18.0651
-18.0836
-18.0643
-17.997
-17.8748
-17.6953
-17.4616
-17.1874
-16.9002
-16.6268
-16.4089
-16.4234
-16.4271
-17.1756
7.21864
3.62884
-0.294512
-4.36312
-8.20572
-11.4429
-13.9583
-15.8514
-17.0687
-17.6457
-17.7929
-17.8609
-17.8091
-17.7476
-17.7051
-17.6759
-17.6543
-17.6446
-17.6427
-17.6524
-17.672
-17.7052
-17.7503
-17.8074
-17.873
-17.9417
-18.0061
-18.057
-18.0838
-18.0753
-18.0214
-17.9152
-17.754
-17.5409
-17.2885
-17.0232
-16.7723
-16.5798
-16.5903
-16.6335
-17.2492
7.51496
4.60573
1.48399
-1.85753
-5.27173
-8.51327
-11.3115
-13.5283
-15.2477
-16.5186
-17.2634
-17.5812
-17.7244
-17.7521
-17.6952
-17.6599
-17.6333
-17.6249
-17.6228
-17.6322
-17.6503
-17.6822
-17.7262
-17.7828
-17.8491
-17.9202
-17.9893
-18.0475
-18.0846
-18.0896
-18.0524
-17.9661
-17.8278
-17.64
-17.4147
-17.1762
-16.952
-16.7873
-16.7913
-16.8721
-17.3532
7.5063
5.11116
2.60433
-0.0919625
-2.94007
-5.82356
-8.59707
-11.0632
-13.0715
-14.6504
-15.8915
-16.78
-17.2968
-17.5231
-17.6573
-17.662
-17.6168
-17.6029
-17.5971
-17.6078
-17.625
-17.6556
-17.6982
-17.7539
-17.8206
-17.8943
-17.9686
-18.0355
-18.0849
-18.1063
-18.0897
-18.0276
-17.917
-17.7598
-17.5666
-17.3594
-17.1652
-17.0274
-17.0252
-17.1272
-17.4814
7.28528
5.27886
3.23521
1.06302
-1.26232
-3.69028
-6.14664
-8.5403
-10.7362
-12.5921
-14.0613
-15.2463
-16.2068
-16.8833
-17.2693
-17.4761
-17.6002
-17.6007
-17.5751
-17.5801
-17.593
-17.623
-17.6648
-17.7196
-17.7869
-17.8632
-17.9433
-18.0198
-18.0834
-18.1238
-18.1311
-18.0975
-18.0193
-17.8974
-17.7407
-17.5682
-17.4051
-17.29
-17.2805
-17.3765
-17.6201
6.91921
5.21326
3.51867
1.7526
-0.135365
-2.13835
-4.21902
-6.32569
-8.39915
-10.3552
-12.076
-13.4865
-14.6261
-15.5816
-16.3532
-16.8998
-17.2255
-17.4397
-17.5658
-17.5746
-17.5643
-17.585
-17.6221
-17.6762
-17.7452
-17.8251
-17.9117
-17.9989
-18.0782
-18.1396
-18.1734
-18.1713
-18.1286
-18.0449
-17.9268
-17.7897
-17.6554
-17.5554
-17.532
-17.5945
-17.7424
6.45624
4.98647
3.55762
2.10075
0.560631
-1.0779
-2.80624
-4.5969
-6.41169
-8.20925
-9.93846
-11.529
-12.901
-14.0231
-14.9503
-15.7462
-16.3975
-16.8734
-17.1813
-17.4127
-17.5499
-17.5762
-17.586
-17.6263
-17.6909
-17.7728
-17.8675
-17.9679
-18.0649
-18.1492
-18.2112
-18.2423
-18.2358
-18.19
-18.1083
-18.002
-17.8888
-17.7927
-17.7426
-17.7502
-17.8095
5.93286
4.65296
3.43038
2.20995
0.938903
-0.404974
-1.82697
-3.32066
-4.8663
-6.43338
-7.98956
-9.51019
-10.9612
-12.2799
-13.4042
-14.3285
-15.1126
-15.8006
-16.3783
-16.8173
-17.1145
-17.3626
-17.5533
-17.6338
-17.6653
-17.7194
-17.8066
-17.9142
-18.0291
-18.1383
-18.231
-18.2969
-18.3272
-18.3173
-18.2673
-18.184
-18.0797
-17.9708
-17.8768
-17.8137
-17.7839
5.37663
4.25299
3.19437
2.15737
1.09415
-0.0180024
-1.18954
-2.42368
-3.71615
-5.05132
-6.4044
-7.75498
-9.08976
-10.3902
-11.6226
-12.7349
-13.6838
-14.4761
-15.1651
-15.7827
-16.3229
-16.7114
-16.9742
-17.2474
-17.5288
-17.7274
-17.8319
-17.9037
-17.9881
-18.0915
-18.2006
-18.2972
-18.3649
-18.3922
-18.3726
-18.3077
-18.2041
-18.0719
-17.9243
-17.7815
-17.6564
4.80832
3.81647
2.89171
2.00021
1.09948
0.168566
-0.803548
-1.82381
-2.89503
-4.01275
-5.16422
-6.33478
-7.51088
-8.67902
-9.82892
-10.9472
-12.0075
-12.9695
-13.8042
-14.5189
-15.1771
-15.7205
-16.1215
-16.4638
-16.7559
-17.0367
-17.3653
-17.7092
-17.9852
-18.1622
-18.266
-18.3296
-18.3674
-18.3801
-18.3602
-18.2992
-18.1923
-18.0437
-17.8559
-17.646
-17.4343
4.24759
3.36907
2.55593
1.78197
1.01008
0.22186
-0.592731
-1.44144
-2.32956
-3.25805
-4.22209
-5.21496
-6.22859
-7.25082
-8.27013
-9.2783
-10.2702
-11.2375
-12.1636
-13.0173
-13.7858
-14.43
-14.9458
-15.3911
-15.7904
-16.1481
-16.461
-16.7364
-17.0193
-17.3533
-17.7207
-18.0536
-18.2906
-18.4119
-18.4252
-18.3489
-18.198
-17.9824
-17.7039
-17.3887
-17.0706
3.7164
2.93724
2.21938
1.54237
0.874315
0.199523
-0.490501
-1.20293
-1.94368
-2.71564
-3.51799
-4.34859
-5.20444
-6.0788
-6.96301
-7.84764
-8.72485
-9.58936
-10.4387
-11.269
-12.0714
-12.8077
-13.4495
-14.0043
-14.4923
-14.9306
-15.3273
-15.6882
-16.0174
-16.3094
-16.5591
-16.7779
-16.9873
-17.1978
-17.3881
-17.5243
-17.5729
-17.5202
-17.3538
-17.0934
-16.7798
3.24599
2.55021
1.91145
1.31257
0.726075
0.138858
-0.456118
-1.06508
-1.69342
-2.34436
-3.01889
-3.71704
-4.4382
-5.17909
-5.93489
-6.69935
-7.46565
-8.22712
-8.9784
-9.71629
-10.438
-11.119
-11.7445
-12.3152
-12.8305
-13.2941
-13.713
-14.0957
-14.4478
-14.7703
-15.0641
-15.3278
-15.5527
-15.7292
-15.8438
-15.8925
-15.8758
-15.807
-15.6753
-15.4824
-15.2684
2.8446
2.21777
1.64401
1.10821
0.586468
0.0677867
-0.453786
-0.983699
-1.5268
-2.08621
-2.66318
-3.25858
-3.87282
-4.50432
-5.1504
-5.80732
-6.47065
-7.13538
-7.79609
-8.4471
-9.08289
-9.6771
-10.2155
-10.7053
-11.1515
-11.5598
-11.9344
-12.2778
-12.5922
-12.8794
-13.1402
-13.3729
-13.5724
-13.7335
-13.849
-13.9135
-13.92
-13.8709
-13.7581
-13.5743
-13.3595
2.50404
1.9359
1.41697
0.933542
0.464859
0.00157142
-0.461388
-0.92878
-1.40481
-1.8923
-2.39249
-2.9065
-3.4351
-3.97753
-4.53217
-5.09658
-5.66765
-6.24173
-6.81484
-7.38257
-7.94041
-8.46505
-8.94166
-9.37346
-9.76159
-10.1085
-10.4177
-10.6924
-10.9356
-11.149
-11.3329
-11.4869
-11.6104
-11.7022
-11.7611
-11.7843
-11.7691
-11.7141
-11.617
-11.4709
-11.2891
2.21324
1.69615
1.22442
0.785666
0.361735
-0.0552676
-0.469814
-0.885992
-1.3075
-1.73672
-2.17489
-2.62294
-3.08177
-3.55093
-4.02945
-4.51553
-5.00698
-5.50091
-5.99421
-6.4832
-6.96426
-7.41799
-7.83194
-8.20762
-8.54473
-8.84373
-9.10591
-9.33239
-9.52474
-9.68417
-9.81225
-9.90986
-9.97812
-10.0168
-10.0265
-10.0064
-9.95727
-9.87701
-9.76851
-9.63067
-9.46696
1.96396
1.49188
1.06158
0.661658
0.276412
-0.101004
-0.474441
-0.847559
-1.22346
-1.60424
-1.99097
-2.38444
-2.78538
-3.19357
-3.60821
-4.02803
-4.45123
-4.87561
-5.29848
-5.71682
-6.12729
-6.51378
-6.86595
-7.18497
-7.47023
-7.72201
-7.94089
-8.12763
-8.28295
-8.40778
-8.50289
-8.56922
-8.60756
-8.619
-8.60483
-8.56611
-8.50416
-8.41943
-8.31511
-8.19138
-8.05181
1.7494
1.3175
0.92392
0.55828
0.206949
-0.135956
-0.473872
-0.809992
-1.14699
-1.48663
-1.82983
-2.17721
-2.52935
-2.88604
-3.24661
-3.61003
-3.97482
-4.33916
-4.7008
-5.05718
-5.40543
-5.73213
-6.02889
-6.2965
-6.53426
-6.74233
-6.92115
-7.07141
-7.1938
-7.2893
-7.35874
-7.40324
-7.42375
-7.42158
-7.39794
-7.35402
-7.29083
-7.20962
-7.11269
-7.00073
-6.87662
1.5642
1.16839
0.807695
0.472598
0.151414
-0.161045
-0.467765
-0.771632
-1.07486
-1.37901
-1.68474
-1.99267
-2.30307
-2.61582
-2.93022
-3.24544
-3.56015
-3.87287
-4.18161
-4.48427
-4.77829
-5.05271
-5.30076
-5.52319
-5.71927
-5.88924
-6.03342
-6.15262
-6.24745
-6.31901
-6.36815
-6.39616
-6.40399
-6.39305
-6.3645
-6.31968
-6.25953
-6.18538
-6.09897
-6.00121
-5.89397
1.40395
1.04076
0.709646
0.402027
0.107804
-0.177476
-0.456569
-0.731938
-1.00555
-1.27864
-1.55183
-1.82549
-2.09988
-2.37471
-2.64942
-2.92317
-3.1949
-3.46321
-3.72652
-3.98288
-4.23028
-4.45958
-4.66571
-4.8492
-5.00968
-5.14724
-5.2625
-5.35604
-5.42876
-5.48151
-5.51544
-5.53156
-5.53114
-5.51523
-5.4853
-5.44232
-5.38757
-5.32184
-5.24704
-5.16357
-5.07365
1.26504
0.931416
0.627085
0.344266
0.0743668
-0.186541
-0.440914
-0.690945
-0.938296
-1.18401
-1.42858
-1.67228
-1.91526
-2.15719
-2.39754
-2.63553
-2.87022
-3.10041
-3.32473
-3.54152
-3.74911
-3.94004
-4.11052
-4.2611
-4.39157
-4.50216
-4.59351
-4.66627
-4.72135
-4.7596
-4.78213
-4.78992
-4.78417
-4.76586
-4.73632
-4.69646
-4.64738
-4.58979
-4.52536
-4.4543
-4.37881
1.14445
0.837739
0.557682
0.297385
0.0494728
-0.189421
-0.4216
-0.648914
-0.872866
-1.09425
-1.31353
-1.53081
-1.74627
-1.95947
-2.16996
-2.37695
-2.57972
-2.77712
-2.96809
-3.15115
-3.32498
-3.48348
-3.62399
-3.74701
-3.85257
-3.94093
-4.01284
-4.06894
-4.11015
-4.13727
-4.15138
-4.15335
-4.14431
-4.12512
-4.09696
-4.06061
-4.01704
-3.96683
-3.91138
-3.85081
-3.78707
1.0397
0.757472
0.499518
0.259669
0.0317555
-0.187244
-0.399356
-0.606274
-0.809214
-1.00892
-1.20567
-1.39962
-1.59077
-1.77882
-1.96322
-2.14336
-2.31849
-2.48778
-2.65019
-2.80463
-2.94989
-3.08122
-3.19665
-3.29687
-3.38188
-3.45219
-3.50839
-3.55131
-3.58168
-3.6004
-3.60832
-3.60639
-3.59545
-3.57643
-3.55018
-3.51752
-3.47914
-3.43564
-3.38807
-3.33662
-3.28285
0.948641
0.688753
0.450904
0.229708
0.0199657
-0.180957
-0.37493
-0.563417
-0.747483
-0.927734
-1.10442
-1.27762
-1.44731
-1.61321
-1.77481
-1.93156
-2.08284
-2.22793
-2.36598
-2.49611
-2.61736
-2.72595
-2.82059
-2.90198
-2.97024
-3.02591
-3.06963
-3.10216
-3.12422
-3.13664
-3.14019
-3.13572
-3.12396
-3.10571
-3.08172
-3.05266
-3.01912
-2.9816
-2.94097
-2.89734
-2.8521
0.869496
0.629958
0.410455
0.206242
0.0130794
-0.171437
-0.348934
-0.520774
-0.6878
-0.8506
-1.0093
-1.16404
-1.3147
-1.46109
-1.60269
-1.7391
-1.86971
-1.99403
-2.11129
-2.22085
-2.32193
-2.4116
-2.48905
-2.55503
-2.60969
-2.65364
-2.68745
-2.71192
-2.72766
-2.73546
-2.73599
-2.73
-2.71812
-2.70106
-2.67941
-2.65378
-2.62464
-2.59241
-2.55779
-2.52086
-2.48283
0.800709
0.579748
0.376933
0.188247
0.0101668
-0.15939
-0.321957
-0.47868
-0.63035
-0.777405
-0.92003
-1.05825
-1.19204
-1.32116
-1.44527
-1.5639
-1.67667
-1.78308
-1.88265
-1.97478
-2.059
-2.13292
-2.19624
-2.24959
-2.29329
-2.32783
-2.35389
-2.37208
-2.38309
-2.38752
-2.38605
-2.37925
-2.36775
-2.35207
-2.33279
-2.31033
-2.28517
-2.25757
-2.22818
-2.19697
-2.16505
0.740979
0.536921
0.349336
0.174788
0.0104814
-0.145474
-0.294451
-0.437482
-0.575238
-0.708121
-0.836286
-0.95977
-1.07854
-1.19242
-1.30112
-1.40427
-1.50155
-1.59261
-1.67708
-1.75452
-1.8246
-1.88549
-1.93719
-1.9803
-2.01516
-2.04226
-2.06225
-2.07567
-2.08315
-2.08523
-2.0825
-2.07546
-2.06464
-2.05047
-2.03345
-2.01393
-1.9923
-1.96876
-1.94386
-1.91755
-1.89079
0.689152
0.500496
0.326744
0.165116
0.0133395
-0.130208
-0.266843
-0.397424
-0.522598
-0.642672
-0.757852
-0.868132
-0.973549
-1.07392
-1.16908
-1.2587
-1.34258
-1.42043
-1.49204
-1.55706
-1.61533
-1.66542
-1.70757
-1.74235
-1.77012
-1.79131
-1.80656
-1.81634
-1.82124
-1.8217
-1.81826
-1.81132
-1.80136
-1.78872
-1.77383
-1.75696
-1.73845
-1.71846
-1.69744
-1.67533
-1.65295
0.644258
0.469571
0.308428
0.158532
0.0182051
-0.11407
-0.23945
-0.358744
-0.472486
-0.581013
-0.684476
-0.782952
-0.876438
-0.964868
-1.04809
-1.12592
-1.19815
-1.26468
-1.3253
-1.37988
-1.42827
-1.46947
-1.50381
-1.53188
-1.55397
-1.57056
-1.58215
-1.58925
-1.59228
-1.59172
-1.58796
-1.58141
-1.5724
-1.56128
-1.54835
-1.53389
-1.51812
-1.50123
-1.48352
-1.465
-1.4463
0.605423
0.443418
0.293685
0.154499
0.0245677
-0.0974307
-0.212575
-0.321596
-0.424976
-0.523044
-0.615961
-0.703831
-0.786686
-0.864509
-0.937221
-1.00471
-1.06686
-1.12361
-1.17488
-1.22061
-1.26073
-1.29454
-1.32247
-1.34506
-1.36259
-1.3755
-1.38425
-1.38928
-1.39099
-1.38976
-1.38594
-1.37987
-1.37185
-1.36214
-1.35101
-1.33868
-1.32534
-1.31113
-1.2963
-1.28085
-1.26532
0.57192
0.421345
0.28197
0.152476
0.0320165
-0.0806273
-0.186457
-0.286125
-0.380096
-0.468684
-0.552085
-0.630424
-0.703779
-0.772183
-0.835625
-0.894066
-0.947457
-0.995812
-1.03912
-1.07739
-1.11065
-1.13841
-1.16115
-1.17936
-1.19332
-1.20341
-1.21005
-1.21363
-1.21448
-1.21294
-1.2093
-1.20384
-1.19682
-1.18845
-1.17896
-1.16852
-1.15728
-1.14537
-1.13299
-1.12013
-1.10725
0.543086
0.402811
0.272743
0.152055
0.0401849
-0.0639595
-0.161291
-0.252451
-0.337853
-0.417846
-0.492632
-0.562397
-0.627242
-0.687264
-0.742499
-0.792996
-0.838749
-0.879836
-0.916306
-0.948229
-0.97568
-0.998337
-1.01673
-1.03131
-1.0423
-1.05008
-1.055
-1.0574
-1.05759
-1.05585
-1.05242
-1.04754
-1.04143
-1.03427
-1.02622
-1.01746
-1.00808
-0.998193
-0.987956
-0.977369
-0.966797
0.518363
0.387278
0.265601
0.152837
0.0487482
-0.0476571
-0.137264
-0.22065
-0.298254
-0.37042
-0.43741
-0.499426
-0.556644
-0.609188
-0.657179
-0.700707
-0.739844
-0.774699
-0.805394
-0.832026
-0.854735
-0.87331
-0.888304
-0.900085
-0.908886
-0.915008
-0.918783
-0.920493
-0.920398
-0.918723
-0.91569
-0.911484
-0.906287
-0.90024
-0.893498
-0.886169
-0.878371
-0.870158
-0.861685
-0.852928
-0.84421
0.497186
0.374283
0.260081
0.15448
0.0574306
-0.0319602
-0.114516
-0.190807
-0.261281
-0.326313
-0.386209
-0.441215
-0.491552
-0.537396
-0.578911
-0.616247
-0.649518
-0.678869
-0.704456
-0.726418
-0.744915
-0.759841
-0.771752
-0.780978
-0.787728
-0.792274
-0.794907
-0.795878
-0.795407
-0.793689
-0.790907
-0.787221
-0.782776
-0.777692
-0.772088
-0.766056
-0.759685
-0.753022
-0.746181
-0.739147
-0.732182
0.479101
0.363339
0.255785
0.156591
0.0659149
-0.0170816
-0.0931973
-0.162991
-0.226929
-0.285428
-0.338845
-0.387482
-0.431613
-0.47147
-0.507272
-0.539227
-0.567499
-0.592271
-0.613728
-0.63203
-0.647356
-0.659671
-0.669487
-0.677086
-0.682638
-0.686378
-0.688545
-0.68935
-0.68897
-0.687567
-0.685286
-0.682259
-0.678603
-0.674417
-0.669798
-0.66482
-0.659558
-0.65405
-0.64839
-0.642572
-0.636798
0.463851
0.354238
0.252426
0.1589
0.073933
-0.00325192
-0.0734571
-0.137269
-0.195193
-0.247687
-0.29515
-0.337946
-0.376391
-0.410769
-0.441311
-0.468264
-0.491805
-0.512159
-0.52952
-0.544094
-0.556058
-0.565456
-0.572777
-0.57829
-0.582141
-0.584552
-0.585727
-0.585862
-0.5851
-0.583587
-0.581439
-0.578769
-0.575665
-0.572211
-0.568476
-0.564522
-0.560399
-0.55614
-0.551806
-0.547394
-0.543064
0.451283
0.346904
0.250035
0.161385
0.0814139
0.00941779
-0.0553937
-0.113677
-0.166022
-0.212962
-0.25496
-0.292423
-0.325736
-0.35526
-0.381331
-0.404245
-0.42423
-0.441484
-0.456213
-0.468586
-0.478796
-0.486886
-0.493299
-0.498215
-0.501774
-0.504127
-0.505459
-0.5059
-0.505583
-0.5046
-0.503061
-0.501039
-0.49862
-0.49586
-0.492827
-0.489565
-0.486126
-0.482533
-0.478843
-0.475066
-0.471306
0.440482
0.340546
0.248034
0.163773
0.0882576
0.0208833
-0.039087
-0.0923059
-0.139434
-0.181126
-0.217969
-0.250441
-0.278917
-0.303686
-0.325033
-0.34327
-0.358719
-0.371665
-0.38238
-0.391057
-0.397911
-0.403011
-0.406809
-0.409467
-0.411121
-0.411903
-0.411988
-0.411483
-0.410511
-0.409144
-0.407475
-0.405557
-0.403459
-0.401215
-0.398876
-0.396465
-0.394019
-0.391543
-0.389078
-0.386609
-0.384241
0.429954
0.333266
0.244491
0.1644
0.0933259
0.0305242
-0.0248138
-0.0733516
-0.115708
-0.152511
-0.184415
-0.212094
-0.236221
-0.257366
-0.275935
-0.292139
-0.306114
-0.317992
-0.327985
-0.336271
-0.343054
-0.348414
-0.352696
-0.356007
-0.358452
-0.36012
-0.361144
-0.36159
-0.361552
-0.361076
-0.360239
-0.359075
-0.357647
-0.355981
-0.354128
-0.352108
-0.349961
-0.347699
-0.345358
-0.342959
-0.34053
0.421047
0.326011
0.239482
0.162527
0.095445
0.0372997
-0.0130527
-0.056621
-0.0942663
-0.126662
-0.154292
-0.177487
-0.19655
-0.211843
-0.223925
-0.233473
-0.241092
-0.247116
-0.251763
-0.25516
-0.257478
-0.258783
-0.25943
-0.259514
-0.25913
-0.258356
-0.257312
-0.25606
-0.254679
-0.253202
-0.25169
-0.250158
-0.248651
-0.247172
-0.245748
-0.244379
-0.243087
-0.241859
-0.240714
-0.239628
-0.23867
0.419702
0.326072
0.240343
0.164205
0.0985875
0.0430254
-0.00348741
-0.0421599
-0.0743108
-0.101278
-0.124293
-0.144389
-0.162311
-0.178437
-0.192752
-0.204979
-0.21505
-0.223247
-0.229984
-0.235529
-0.240104
-0.243833
-0.246947
-0.249493
-0.251545
-0.253143
-0.254369
-0.255241
-0.255816
-0.256102
-0.256151
-0.255965
-0.255592
-0.255032
-0.254327
-0.253477
-0.252516
-0.251447
-0.250291
-0.249086
-0.24777
0.423148
0.332206
0.248454
0.173228
0.10763
0.0517769
0.00532133
-0.0323017
-0.0618467
-0.0841744
-0.100229
-0.110956
-0.117378
-0.120534
-0.121607
-0.121625
-0.121062
-0.119943
-0.118296
-0.116162
-0.113671
-0.110835
-0.107909
-0.104942
-0.101999
-0.0991048
-0.0963324
-0.0936918
-0.0912278
-0.0889317
-0.0868312
-0.0849077
-0.0831765
-0.0816132
-0.0802238
-0.0789838
-0.0778977
-0.0769363
-0.0761028
-0.07536
-0.0747444
0.40426
0.311715
0.231067
0.161705
0.102794
0.0530681
0.0112518
-0.0237719
-0.0529802
-0.077252
-0.0973702
-0.114049
-0.127898
-0.139451
-0.14908
-0.157155
-0.163968
-0.169447
-0.17394
-0.177886
-0.181493
-0.184929
-0.188135
-0.191125
-0.193908
-0.196544
-0.199017
-0.201367
-0.203574
-0.205684
-0.20768
-0.209609
-0.211452
-0.213259
-0.21501
-0.216752
-0.21846
-0.220185
-0.221883
-0.223652
-0.225321
-15.1998
-14.4761
-14.1825
-14.4253
-14.5407
-14.3464
-13.8628
-13.1616
-12.3072
-11.3467
-10.3707
-9.40758
-8.48209
-7.61278
-6.80736
-6.05384
-5.37027
-4.73602
-4.16669
-3.64094
-3.17241
-2.74501
-2.36296
-2.02065
-1.71501
-1.44369
-1.20257
-0.991799
-0.805311
-0.64276
-0.499916
-0.378043
-0.270658
-0.179627
-0.100998
-0.0333099
0.0238044
0.0727187
0.113884
0.148654
0.177493
0.201352
0.22096
0.237118
0.248836
0.259331
0.265715
0.270325
0.273368
0.274334
0.272832
0.271103
0.267224
0.262379
0.256316
0.248797
0.241655
0.232267
0.223122
0.212436
0.201745
0.189807
0.177763
0.164877
0.151266
0.137267
0.122531
0.10739
0.0910644
0.0759123
0.0557968
0.0449612
0.0110627
0.0283692
-15.894
-15.178
-14.7417
-14.7976
-14.8036
-14.5469
-14.0289
-13.3073
-12.4388
-11.4674
-10.475
-9.4938
-8.55251
-7.66966
-6.85213
-6.09
-5.39804
-4.75798
-4.18241
-3.65287
-3.18017
-2.75001
-2.36553
-2.02132
-1.71425
-1.44181
-1.20017
-0.988887
-0.802191
-0.639504
-0.496946
-0.375148
-0.268191
-0.177424
-0.0991097
-0.0318145
0.0249871
0.0735882
0.114459
0.148988
0.177614
0.201287
0.220823
0.236802
0.248602
0.258995
0.265386
0.270127
0.273187
0.274183
0.272803
0.271122
0.267325
0.262529
0.256503
0.249128
0.241963
0.232654
0.223515
0.212872
0.202179
0.190277
0.178219
0.165332
0.151711
0.137708
0.122936
0.107785
0.0914375
0.076262
0.056118
0.0452252
0.0113596
0.0284823
-16.3797
-15.8942
-15.3863
-15.2592
-15.1412
-14.8076
-14.24
-13.4826
-12.5863
-11.5962
-10.5854
-9.58672
-8.62939
-7.7315
-6.90013
-6.12782
-5.42652
-4.77996
-4.19785
-3.66421
-3.18709
-2.75406
-2.36703
-2.02089
-1.7124
-1.43891
-1.19669
-0.984947
-0.798111
-0.635385
-0.493106
-0.371468
-0.264967
-0.174534
-0.0966116
-0.0297699
0.0266688
0.0748956
0.115442
0.149648
0.178029
0.201504
0.220877
0.236692
0.248483
0.258765
0.265167
0.269957
0.273009
0.274041
0.272752
0.271106
0.267382
0.262627
0.256647
0.249381
0.2422
0.232968
0.223832
0.213235
0.202536
0.190674
0.178603
0.165715
0.152093
0.138078
0.123291
0.108127
0.0917622
0.0765618
0.056407
0.0454511
0.0116358
0.0285635
-16.8132
-16.5303
-16.0528
-15.7963
-15.5592
-15.1427
-14.5135
-13.7053
-12.766
-11.7432
-10.7043
-9.68467
-8.70981
-7.7966
-6.95132
-6.1674
-5.4556
-4.80149
-4.21259
-3.67433
-3.19267
-2.75661
-2.36695
-2.0189
-1.70901
-1.43459
-1.19178
-0.979665
-0.792796
-0.630155
-0.488198
-0.366827
-0.260843
-0.170822
-0.0933871
-0.0270766
0.0289319
0.0767173
0.116885
0.150683
0.178789
0.202035
0.221153
0.236817
0.248503
0.258662
0.265067
0.269821
0.272841
0.273909
0.272676
0.271051
0.267387
0.262665
0.256739
0.249548
0.242356
0.2332
0.224065
0.213515
0.202812
0.190992
0.178908
0.166021
0.152406
0.138374
0.123589
0.108412
0.0920359
0.0768088
0.0566605
0.0456346
0.0118887
0.028606
-17.1813
-17.0641
-16.6864
-16.3668
-16.034
-15.5402
-14.8467
-13.9802
-12.988
-11.9207
-10.8428
-9.79261
-8.79408
-7.86319
-7.00387
-6.20864
-5.48577
-4.82298
-4.2265
-3.68317
-3.19673
-2.7575
-2.36514
-2.01514
-1.70389
-1.42859
-1.1853
-0.972895
-0.786092
-0.623659
-0.482122
-0.361134
-0.255757
-0.166238
-0.0893957
-0.0236855
0.0318202
0.0790916
0.118806
0.152163
0.179931
0.202887
0.221717
0.237181
0.248726
0.258725
0.265099
0.269788
0.27275
0.27383
0.272629
0.271003
0.267386
0.262683
0.256808
0.249669
0.242467
0.233378
0.224244
0.213734
0.20303
0.191245
0.179149
0.166267
0.152659
0.138614
0.123832
0.108644
0.0922617
0.0770096
0.0568779
0.0457786
0.0121225
0.0286089
-17.4876
-17.5009
-17.2468
-16.9238
-16.5326
-15.9793
-15.2289
-14.304
-13.2536
-12.1333
-11.0071
-9.91656
-8.88601
-7.93083
-7.05427
-6.24758
-5.51468
-4.84346
-4.239
-3.69
-3.19854
-2.75602
-2.36093
-2.00901
-1.69646
-1.42037
-1.17674
-0.964193
-0.777597
-0.615519
-0.474564
-0.354105
-0.249474
-0.160586
-0.0844675
-0.0194701
0.0354356
0.0820966
0.121254
0.154117
0.181476
0.204066
0.222567
0.237768
0.249142
0.258935
0.265232
0.269836
0.272711
0.273779
0.272588
0.270943
0.267359
0.262663
0.256829
0.249735
0.24252
0.233493
0.224358
0.213887
0.203183
0.191431
0.179326
0.166453
0.152853
0.138801
0.124021
0.108827
0.0924433
0.0771694
0.0570612
0.0458851
0.0123406
0.028573
-17.7318
-17.841
-17.7069
-17.4193
-17.0105
-16.4252
-15.6362
-14.6639
-13.5585
-12.3821
-11.201
-10.0622
-8.99178
-8.00468
-7.10391
-6.28166
-5.53803
-4.85968
-4.24808
-3.69381
-3.1971
-2.75115
-2.35339
-1.9997
-1.68604
-1.40931
-1.16557
-0.953051
-0.766881
-0.605356
-0.465194
-0.345439
-0.241745
-0.153664
-0.0784118
-0.0142573
0.0399181
0.0858484
0.124354
0.156632
0.183488
0.205636
0.223751
0.238616
0.24978
0.259307
0.265491
0.269976
0.272738
0.273753
0.272561
0.270869
0.267306
0.2626
0.256797
0.249741
0.242507
0.233538
0.224399
0.213967
0.203263
0.191544
0.179431
0.166571
0.15298
0.138927
0.12415
0.108956
0.0925756
0.0772826
0.0572077
0.0459517
0.012542
0.0284974
-17.9101
-18.0832
-18.0481
-17.8144
-17.4192
-16.8309
-16.0288
-15.0301
-13.8841
-12.6575
-11.421
-10.2293
-9.11308
-8.08786
-7.15658
-6.31228
-5.55335
-4.86721
-4.24957
-3.69138
-3.1904
-2.74148
-2.34121
-1.9859
-1.67142
-1.39442
-1.15086
-0.938661
-0.753225
-0.592534
-0.453444
-0.33464
-0.232118
-0.145073
-0.0708867
-0.00776146
0.0455135
0.0905517
0.128273
0.159839
0.186089
0.207696
0.225331
0.239786
0.250671
0.259867
0.265889
0.2702
0.272815
0.273739
0.272524
0.270759
0.267202
0.262472
0.256691
0.249662
0.242406
0.233493
0.224346
0.213954
0.203249
0.191569
0.179451
0.166606
0.153032
0.138979
0.124212
0.109024
0.0926528
0.0773442
0.0573143
0.0459724
0.0127246
0.0283791
-18.0288
-18.2267
-18.2545
-18.0757
-17.7111
-17.1426
-16.3534
-15.3561
-14.1948
-12.9363
-11.6547
-10.4126
-9.24846
-8.18119
-7.21498
-6.34353
-5.56355
-4.86465
-4.23984
-3.67849
-3.17489
-2.72405
-2.3225
-1.9663
-1.65137
-1.37444
-1.13153
-0.92015
-0.735879
-0.576422
-0.438753
-0.321246
-0.220212
-0.134488
-0.0616076
0.00026758
0.0524277
0.096395
0.133175
0.163884
0.189387
0.210343
0.227396
0.241349
0.251874
0.260664
0.266466
0.270549
0.27297
0.273761
0.272495
0.270627
0.267053
0.262284
0.25651
0.249501
0.242214
0.233351
0.224194
0.213843
0.203139
0.191498
0.17938
0.166554
0.153001
0.138954
0.124203
0.109026
0.092671
0.0773495
0.0573774
0.0459468
0.0128879
0.0282169
-18.0901
-18.2703
-18.317
-18.1753
-17.8458
-17.3087
-16.5525
-15.5835
-14.4381
-13.177
-11.873
-10.5942
-9.38785
-8.2794
-7.27668
-6.37542
-5.57103
-4.8543
-4.21779
-3.65126
-3.14655
-2.69523
-2.29349
-1.93765
-1.62382
-1.3479
-1.10617
-0.896095
-0.713591
-0.555996
-0.420279
-0.304509
-0.205361
-0.121325
-0.0500925
0.0102283
0.0610003
0.103664
0.139294
0.168966
0.193556
0.213712
0.230054
0.243395
0.253455
0.26175
0.267254
0.271038
0.273211
0.273819
0.272469
0.270461
0.266848
0.26202
0.256239
0.249236
0.241915
0.233095
0.223929
0.213616
0.202916
0.191319
0.179204
0.166401
0.152875
0.138841
0.124113
0.108954
0.0926228
0.0772939
0.0573932
0.0458682
0.0130308
0.028009
-18.084
-18.2073
-18.2306
-18.0966
-17.7904
-17.2871
-16.5729
-15.6524
-14.5522
-13.323
-12.03
-10.7411
-9.51011
-8.36997
-7.33465
-6.40426
-5.57479
-4.83808
-4.18622
-3.60998
-3.10141
-2.65091
-2.25127
-1.89702
-1.5849
-1.31146
-1.07279
-0.86521
-0.685137
-0.529963
-0.396869
-0.283563
-0.186901
-0.105046
-0.0358655
0.022528
0.0715607
0.112623
0.146843
0.175254
0.19873
0.217914
0.233399
0.245986
0.255465
0.263165
0.268282
0.271697
0.273557
0.273927
0.27245
0.270267
0.26658
0.261679
0.255869
0.248865
0.241498
0.232719
0.22354
0.213267
0.202574
0.191022
0.178916
0.166142
0.15265
0.138637
0.123938
0.108805
0.0925067
0.0771745
0.0573596
0.0457386
0.013153
0.0277555
-17.9923
-18.0307
-17.9919
-17.8288
-17.5228
-17.0462
-16.3757
-15.5125
-14.4787
-13.3128
-12.068
-10.8053
-9.5793
-8.42835
-7.37324
-6.42033
-5.56908
-4.81346
-4.14588
-3.5576
-3.04095
-2.58779
-2.19035
-1.84098
-1.53299
-1.2626
-1.02725
-0.823805
-0.648346
-0.497081
-0.367363
-0.257081
-0.163552
-0.0846361
-0.0181776
0.0377627
0.084637
0.123739
0.156216
0.183064
0.205162
0.22315
0.237592
0.249255
0.258005
0.264985
0.269599
0.272554
0.274022
0.274093
0.272431
0.270035
0.266235
0.261242
0.255377
0.248363
0.240939
0.232197
0.223002
0.212772
0.202088
0.190587
0.178498
0.165761
0.15231
0.138325
0.123665
0.108567
0.0923114
0.0769838
0.0572705
0.0455482
0.013252
0.027455
-17.7943
-17.7314
-17.6029
-17.3779
-17.0387
-16.5646
-15.9339
-15.1335
-14.1762
-13.0943
-11.9291
-10.7304
-9.54651
-8.41639
-7.36479
-6.40502
-5.54165
-4.77299
-4.09304
-3.49404
-2.96859
-2.50955
-2.11025
-1.76379
-1.4625
-1.19964
-0.969812
-0.770411
-0.599269
-0.453446
-0.329527
-0.224123
-0.134622
-0.0591422
0.00402392
0.0567967
0.100805
0.1374
0.167722
0.192681
0.213102
0.229618
0.242771
0.253296
0.261143
0.267261
0.271241
0.27363
0.274623
0.274317
0.272414
0.269754
0.265802
0.260695
0.25475
0.247714
0.240223
0.231513
0.222302
0.212118
0.20145
0.190003
0.177938
0.165246
0.151847
0.137901
0.12329
0.108237
0.0920358
0.0767189
0.0571239
0.0453008
0.0133271
0.0271079
-17.4909
-17.3153
-17.076
-16.7645
-16.3659
-15.8654
-15.247
-14.4999
-13.6255
-12.6399
-11.574
-10.4676
-9.36083
-8.28709
-7.27062
-6.32858
-5.47146
-4.70235
-4.01862
-3.41431
-2.88321
-2.41929
-2.01667
-1.66939
-1.37106
-1.11514
-0.894982
-0.704959
-0.540373
-0.399146
-0.279844
-0.180367
-0.0973857
-0.0275519
0.0311637
0.0803172
0.121069
0.154576
0.182069
0.204549
0.222856
0.237582
0.249186
0.258329
0.265045
0.270111
0.27329
0.27498
0.275393
0.274614
0.2724
0.269417
0.265264
0.260013
0.25396
0.246886
0.239318
0.230636
0.221407
0.211273
0.200625
0.18924
0.177211
0.164575
0.151238
0.137345
0.122795
0.1078
0.0916651
0.0763692
0.0569114
0.0449848
0.0133752
0.026714
-17.1149
-16.8288
-16.4687
-16.0482
-15.5659
-15.013
-14.3768
-13.651
-12.8397
-11.9503
-10.9939
-9.99486
-8.98769
-7.99918
-7.04911
-6.1543
-5.32843
-4.57896
-3.90651
-3.30768
-2.77838
-2.31457
-1.91174
-1.56437
-1.26684
-1.01357
-0.79941
-0.618867
-0.465989
-0.335479
-0.223423
-0.128555
-0.0498387
0.0143298
0.0664136
0.109389
0.145342
0.175211
0.199697
0.219377
0.235047
0.247413
0.257014
0.264449
0.26979
0.273609
0.275794
0.276634
0.27634
0.274986
0.272375
0.269007
0.264601
0.259172
0.252984
0.245855
0.238202
0.229539
0.220298
0.210217
0.199599
0.188282
0.176304
0.163735
0.150473
0.136649
0.122174
0.10725
0.0911976
0.0759325
0.0566313
0.0446055
0.0133948
0.0262751
-16.6301
-16.266
-15.8236
-15.3186
-14.753
-14.1247
-13.4368
-12.6963
-11.9103
-11.0823
-10.2159
-9.32466
-8.42681
-7.53912
-6.6767
-5.8533
-5.08331
-4.37613
-3.73463
-3.15715
-2.64195
-2.18773
-1.7917
-1.44933
-1.15537
-0.904996
-0.693978
-0.518104
-0.372708
-0.252792
-0.153253
-0.0697411
0.00111875
0.0607777
0.109534
0.147958
0.177916
0.201553
0.220894
0.236786
0.249597
0.259496
0.26679
0.272075
0.275613
0.27788
0.278842
0.278663
0.277514
0.275458
0.272342
0.268513
0.263791
0.258141
0.251786
0.244576
0.236833
0.228178
0.218931
0.208906
0.198332
0.187091
0.175181
0.162693
0.149525
0.135786
0.121402
0.106569
0.0906147
0.0753954
0.056272
0.0441497
0.013381
0.0257921
-16.2583
-15.8298
-15.2966
-14.6845
-14.0188
-13.308
-12.5597
-11.7819
-10.9827
-10.1698
-9.35142
-8.5343
-7.72504
-6.93352
-6.16493
-5.42519
-4.72628
-4.07863
-3.48578
-2.9468
-2.46077
-2.02872
-1.64985
-1.32065
-1.03647
-0.79338
-0.588244
-0.417208
-0.276248
-0.161412
-0.0692228