/*--------------------------------*- C++ -*----------------------------------*\
| =========                 |                                                 |
| \\      /  F ield         | OpenFOAM: The Open Source CFD Toolbox           |
|  \\    /   O peration     | Version:  2312                                  |
|   \\  /    A nd           | Website:  www.openfoam.com                      |
|    \\/     M anipulation  |                                                 |
\*---------------------------------------------------------------------------*/
FoamFile
{
    version     2.0;
    format      ascii;
    arch        "LSB;label=32;scalar=64";
    class       surfaceScalarField;
    location    "600";
    object      phi;
}
// * * * * * * * * * * * * * * * * * * * * * * * * * * * * * * * * * * * * * //

dimensions      [0 3 -1 0 0 0 0];

oriented        oriented;

internalField   nonuniform List<scalar> 
21876
(
0.00821287
0.000901959
-0.00911482
0.00237608
0.0058368
-0.000864782
0.00324093
-0.00157584
0.000711172
-0.00144176
-0.000134037
-0.00139597
-4.57642e-05
-0.00133986
-5.60336e-05
-0.00128093
-5.88032e-05
-0.00123162
-4.92346e-05
-0.00120137
-3.00858e-05
-0.00116928
-3.19896e-05
-0.00114035
-2.88778e-05
-0.00112034
-1.95925e-05
-0.00110131
-1.89452e-05
-0.00109041
-1.07126e-05
-0.00108543
-5.05047e-06
-0.00108755
2.44425e-06
-0.00109951
1.18025e-05
-0.0011209
2.16779e-05
-0.00115464
3.35436e-05
-0.00119993
4.55774e-05
-0.0012547
5.52762e-05
-0.00132333
6.92269e-05
-0.00140626
8.34796e-05
-0.00150047
9.39596e-05
-0.00160053
0.000100162
-0.0016993
9.84535e-05
-0.00178801
8.87008e-05
-0.00185728
6.91057e-05
-0.00189533
3.80219e-05
-0.00189093
-4.44173e-06
-0.00184035
-5.0555e-05
-0.00174144
-9.89455e-05
-0.00158609
-0.000155245
-0.00136677
-0.000219463
-0.0010794
-0.000287207
-0.000727188
-0.000352371
-0.000258321
-0.000468925
0.000314542
-0.000573236
0.000636385
-0.00032113
-0.00212528
0.00276204
0.0115215
-0.000669445
-0.00995009
0.0102703
0.00708798
0.00501657
0.00849472
0.000253146
0.00547466
-0.00156472
0.00168392
-0.00162283
1.24667e-05
-0.0016388
-3.98815e-05
-0.00162033
-7.70764e-05
-0.00159289
-7.64864e-05
-0.00158012
-4.26364e-05
-0.0015639
-4.79729e-05
-0.00154679
-4.57001e-05
-0.00153789
-2.80515e-05
-0.00153019
-2.63372e-05
-0.00153066
-9.82586e-06
-0.00153894
3.5097e-06
-0.00155684
2.0872e-05
-0.00158661
4.17411e-05
-0.00162791
6.35019e-05
-0.00168395
8.95014e-05
-0.00175557
0.000117529
-0.00183905
0.000139267
-0.00193606
0.00016683
-0.00204213
0.000189994
-0.00214994
0.000201595
-0.00225175
0.000201866
-0.00234062
0.00018694
-0.00240892
0.000156771
-0.00244959
0.000109516
-0.00245698
4.5282e-05
-0.00242656
-3.48731e-05
-0.0023482
-0.000128809
-0.00221076
-0.000236191
-0.00200532
-0.000360362
-0.00172403
-0.000500529
-0.00136072
-0.000650162
-0.000912969
-0.000800067
-0.00036534
-0.0010164
0.000343406
-0.00128194
0.00107678
-0.00105395
-0.00350608
0.00245778
0.0132307
-0.00293255
-0.0109676
0.0149475
0.00537117
0.0129834
0.0104589
0.00753612
0.0109219
0.00178449
0.00743556
-0.00112138
0.00291837
-0.00168145
0.000520243
-0.00181903
6.05714e-05
-0.00185006
-4.54248e-05
-0.0018796
-1.3051e-05
-0.00189557
-3.198e-05
-0.00189867
-4.26044e-05
-0.00190681
-1.97584e-05
-0.00191335
-1.97738e-05
-0.00192678
3.61795e-06
-0.0019479
2.45151e-05
-0.00197857
5.15649e-05
-0.0020219
8.49504e-05
-0.00207784
0.000119416
-0.00214938
0.000160908
-0.00223694
0.000205143
-0.00233475
0.000237226
-0.00244368
0.000275924
-0.00255919
0.000305689
-0.00267478
0.00031708
-0.00278376
0.000310906
-0.00287971
0.000282798
-0.002955
0.000232094
-0.00300169
0.000156187
-0.00301112
5.47139e-05
-0.00297341
-7.2572e-05
-0.00287718
-0.00022504
-0.0027118
-0.000401602
-0.00246627
-0.000605907
-0.00213189
-0.000835
-0.00170038
-0.00108167
-0.00116691
-0.00133358
-0.000521167
-0.00166217
0.000302101
-0.00210539
0.00122813
-0.00197985
-0.00448692
0.00220881
0.0150128
-0.00554878
-0.0123965
0.0174187
0.00296527
0.01863
0.00924753
0.0164551
0.0130969
0.0107194
0.0131712
0.00399407
0.00964375
-0.000204103
0.00471849
-0.00156836
0.00142493
-0.00190007
0.000286419
-0.00205153
0.000138572
-0.00214928
6.59213e-05
-0.00220134
9.6658e-06
-0.00224513
2.43021e-05
-0.00227699
1.23633e-05
-0.00230996
3.68644e-05
-0.00234792
6.27412e-05
-0.00239367
9.76474e-05
-0.00245202
0.000143538
-0.0025231
0.000190776
-0.0026102
0.0002481
-0.00271367
0.000308862
-0.00282669
0.000350615
-0.00295056
0.00040014
-0.00308167
0.000437031
-0.0032143
0.000449626
-0.00334173
0.000438227
-0.00345658
0.000397431
-0.00354969
0.000325038
-0.00361088
0.000217228
-0.00362874
7.25097e-05
-0.00359085
-0.000110463
-0.0034844
-0.000331392
-0.00329724
-0.000588643
-0.0030161
-0.000886853
-0.00263073
-0.00122023
-0.0021309
-0.00158131
-0.00151004
-0.0019544
-0.000757111
-0.00241508
0.000168242
-0.00303082
0.00124777
-0.00305942
-0.00531439
0.00207497
0.0169383
-0.00838512
-0.0141019
0.0194159
0.000487602
0.0218245
0.00683896
0.0230224
0.011899
0.0209301
0.0152635
0.015026
0.0155479
0.00738853
0.012356
0.00153364
0.00727986
-0.00110226
0.00292239
-0.00183605
0.000872437
-0.00218666
0.000416585
-0.00237008
0.000193128
-0.00250129
0.000155619
-0.00259096
0.000102116
-0.00266367
0.000109634
-0.00273135
0.000130436
-0.00280014
0.000166467
-0.00287893
0.00022232
-0.00296898
0.000280759
-0.00307519
0.000354261
-0.00319879
0.000432466
-0.00333249
0.000484389
-0.00347834
0.00054607
-0.00363355
0.000592271
-0.00379263
0.000608676
-0.00394825
0.000593825
-0.00409166
0.000540816
-0.00421189
0.000445255
-0.0042965
0.00030183
-0.00433164
0.000107656
-0.00430254
-0.00013954
-0.00419427
-0.000439644
-0.00399238
-0.000790518
-0.00368114
-0.00119809
-0.0032483
-0.00165306
-0.00268207
-0.00214757
-0.00197471
-0.00266171
-0.00111231
-0.00327754
-9.57614e-05
-0.00404744
0.00111989
-0.00427517
-0.00614777
0.00195306
0.0192302
-0.0115274
-0.0160878
0.0219969
-0.00227912
0.0244922
0.00434368
0.0269469
0.00944431
0.0282992
0.0139112
0.0265594
0.0172876
0.0207727
0.0181427
0.0124032
0.0156494
0.00464539
0.0106802
0.000163489
0.00535438
-0.0014862
0.00206633
-0.00214133
0.000848366
-0.00251605
0.000530518
-0.00275342
0.000339687
-0.00291988
0.000276301
-0.00305178
0.000262563
-0.0031656
0.000280546
-0.00327933
0.000336268
-0.00339797
0.000399627
-0.00353069
0.000487147
-0.00368118
0.000583228
-0.00384265
0.000646138
-0.00401844
0.000722124
-0.00420662
0.000780561
-0.00440185
0.0008039
-0.00459605
0.000787937
-0.00477906
0.000723723
-0.00493803
0.000604132
-0.00505825
0.000421979
-0.00512336
0.000172743
-0.00511599
-0.000146887
-0.00501852
-0.000537063
-0.00481381
-0.000995164
-0.0044835
-0.00152833
-0.00401313
-0.00212337
-0.00338978
-0.0027709
-0.00260522
-0.00344631
-0.00164278
-0.00424012
-0.000546331
-0.0051441
0.000781958
-0.00560376
-0.0070801
0.0017139
0.02198
-0.0150593
-0.0184481
0.025204
-0.00550316
0.0279196
0.00162802
0.0304002
0.00696373
0.0328734
0.0114381
0.0345051
0.0156559
0.033397
0.0192508
0.0281563
0.0208902
0.0194295
0.0194071
0.00990933
0.0148745
0.00294052
0.00903518
-0.000492985
0.00428198
-0.00179298
0.00183064
-0.00248061
0.00102746
-0.00289817
0.000693973
-0.00319102
0.000555526
-0.00340755
0.000497164
-0.00359256
0.000521371
-0.00376313
0.000570214
-0.00393784
0.000661915
-0.0041259
0.000771346
-0.0043237
0.000844038
-0.00453795
0.000936422
-0.00476844
0.00101106
-0.00501048
0.00104589
-0.00525539
0.00103282
-0.0054917
0.000959981
-0.00570471
0.000817122
-0.00587735
0.000594603
-0.00599059
0.000285991
-0.00602421
-0.000113252
-0.00595747
-0.000603761
-0.00577031
-0.00118231
-0.00544171
-0.00185691
-0.00495496
-0.00261014
-0.00429655
-0.00342932
-0.00345854
-0.00428438
-0.00242477
-0.00527399
-0.00126729
-0.00630178
0.000132902
-0.00700421
-0.00814109
0.00119355
0.0253136
-0.0191191
-0.0212537
0.0290038
-0.00919341
0.032186
-0.00155418
0.0348667
0.00428304
0.0372821
0.00902268
0.039736
0.013202
0.0416887
0.0172981
0.0414366
0.0211423
0.0372173
0.0236264
0.0287804
0.0233115
0.0180671
0.0197485
0.00826912
0.01408
0.00202479
0.00807503
-0.000824913
0.00387723
-0.00207261
0.00194176
-0.00282758
0.0013106
-0.00331507
0.000984789
-0.00367692
0.000883351
-0.00396246
0.000855869
-0.0042174
0.000917034
-0.0044654
0.00101955
-0.00471241
0.00109127
-0.00497458
0.00119874
-0.00525665
0.00129319
-0.00555648
0.00134572
-0.00586576
0.00134208
-0.006172
0.00126616
-0.00645871
0.00110381
-0.00670643
0.00084228
-0.0068933
0.000472871
-0.00699615
-1.04109e-05
-0.00699091
-0.000608968
-0.00685443
-0.00131879
-0.00656323
-0.00214811
-0.00609852
-0.00307487
-0.00544667
-0.00408121
-0.00460073
-0.00513041
-0.00354855
-0.00632631
-0.00236912
-0.0074814
-0.000965566
-0.00840801
-0.00931009
0.00020319
0.0293409
-0.0238758
-0.0245841
0.0335969
-0.0134495
0.0372974
-0.00525461
0.0404501
0.0011303
0.0430671
0.00640577
0.0453706
0.0108985
0.0477327
0.014936
0.0499436
0.0189314
0.0506357
0.0229342
0.0478688
0.0260784
0.0405628
0.0270545
0.0294883
0.0251544
0.0173131
0.0202503
0.00745757
0.0137328
0.00168078
0.00771865
-0.000956325
0.00394782
-0.00228688
0.00231546
-0.00314877
0.00174532
-0.00373749
0.00144469
-0.00418989
0.00136952
-0.00456455
0.00139436
-0.00489496
0.00142178
-0.00522341
0.00152726
-0.00556849
0.00163828
-0.00593634
0.00171356
-0.00632271
0.00172838
-0.00671625
0.00165968
-0.00709963
0.00148714
-0.00745111
0.00119376
-0.00774592
0.000767662
-0.00795774
0.000201439
-0.00805937
-0.000507351
-0.00802441
-0.00135375
-0.0078274
-0.00234516
-0.00744771
-0.00345461
-0.00687182
-0.00465721
-0.00609431
-0.00590806
-0.00510877
-0.00731206
-0.00398441
-0.00860604
-0.00267101
-0.00972171
-0.0105183
-0.00146316
0.0341867
-0.0295215
-0.028541
0.0391699
-0.0184327
0.0434663
-0.00955111
0.0471464
-0.00254971
0.0502416
0.00331061
0.0527776
0.00836251
0.054943
0.0127706
0.0571365
0.0167379
0.0594549
0.0206158
0.0609892
0.0245441
0.0599112
0.0281324
0.0544723
0.0305934
0.0442624
0.0304602
0.0309021
0.0270931
0.0175694
0.0210514
0.00753667
0.0139806
0.00185076
0.00800137
-0.000858951
0.00445498
-0.00236406
0.0029498
-0.00337845
0.00238397
-0.00409343
0.00210945
-0.00462543
0.00195386
-0.00508382
0.00198571
-0.00552568
0.00208013
-0.00598142
0.00216926
-0.00646005
0.00220705
-0.00695769
0.00215719
-0.00746025
0.00198972
-0.00794643
0.00167986
-0.00838989
0.00121116
-0.00876184
0.000573339
-0.00903213
-0.00023704
-0.00917105
-0.00121489
-0.0091515
-0.00236473
-0.0089512
-0.00365501
-0.00855651
-0.00505198
-0.00796344
-0.0065013
-0.00717063
-0.00810505
-0.00622858
-0.00954834
-0.00512526
-0.0108253
-0.011639
-0.00400474
0.040001
-0.0362838
-0.0332388
0.0459034
-0.0243351
0.0509468
-0.0145944
0.0552367
-0.00683962
0.0588548
-0.00030744
0.0618695
0.0053478
0.0643168
0.0103233
0.0663393
0.0147154
0.0683073
0.0186478
0.0705311
0.0223203
0.072622
0.0260415
0.073156
0.0300594
0.070113
0.0335033
0.0620574
0.0351487
0.0492262
0.0338826
0.0338084
0.0293983
0.0192678
0.0225419
0.008667
0.0150557
0.00263206
0.0089847
-0.00039571
0.00541179
-0.00215054
0.00386434
-0.00327313
0.00307652
-0.00408048
0.00279307
-0.00474634
0.00274597
-0.00536408
0.0027871
-0.0059792
0.00282207
-0.00661214
0.0027902
-0.00726355
0.002641
-0.00791907
0.0023354
-0.00855565
0.00184765
-0.00914536
0.00116306
-0.00965804
0.000275553
-0.0100622
-0.000810677
-0.0103303
-0.00209675
-0.0104375
-0.00354787
-0.010369
-0.00512056
-0.0101202
-0.00675012
-0.00969304
-0.00853231
-0.009115
-0.0101264
-0.00838529
-0.0115551
-0.0124856
-0.00753882
0.046968
-0.0444356
-0.0388161
0.0540242
-0.0313912
0.0600075
-0.0205777
0.0650519
-0.011884
0.0692778
-0.00453336
0.0728008
0.00182493
0.0757138
0.00741031
0.0780672
0.0123621
0.0799606
0.0167545
0.0816823
0.0205986
0.0836408
0.024083
0.08592
0.0277803
0.0876728
0.0317504
0.0870902
0.0357313
0.0821478
0.038825
0.0717392
0.0398068
0.0565467
0.0377343
0.0390932
0.0325092
0.0229928
0.0250852
0.0112217
0.0171828
0.0043229
0.0107632
0.000955605
0.00644375
-0.000953635
0.00470227
-0.00228068
0.00407302
-0.00332225
0.00382873
-0.00423204
0.0037319
-0.00510224
0.00366036
-0.0059755
0.00351418
-0.00686207
0.0032219
-0.00775386
0.00273935
-0.00863253
0.00204166
-0.00947334
0.00111631
-0.0102485
-3.56054e-05
-0.0109338
-0.0014114
-0.0115028
-0.00297895
-0.0119384
-0.00468493
-0.0122317
-0.00645687
-0.012386
-0.00837802
-0.0124017
-0.0101107
-0.012267
-0.0116898
-0.0128046
-0.0119478
0.0553103
-0.054306
-0.0454398
0.0638025
-0.0398834
0.0709629
-0.0277381
0.0769526
-0.0178736
0.0819294
-0.00951015
0.0860454
-0.00229095
0.0894421
0.00401368
0.0922335
0.00957071
0.0944881
0.0144999
0.0962711
0.0188157
0.0977773
0.0225769
0.0994105
0.0261471
0.101521
0.0296397
0.103886
0.0333665
0.105294
0.0374171
0.103735
0.0413653
0.0972305
0.0442391
0.0848756
0.044864
0.0675525
0.0424082
0.0479006
0.0368346
0.0295777
0.0290859
0.0166375
0.019384
0.00885748
0.0124821
0.00459129
0.00833937
0.00209408
0.00632583
0.000339281
0.00548693
-0.00111053
0.00510991
-0.00243259
0.00483635
-0.00371249
0.00450153
-0.00498951
0.00401642
-0.00627723
0.00332917
-0.00757015
0.00240924
-0.00885096
0.00124506
-0.0101063
-0.000156094
-0.0113118
-0.00177351
-0.0124482
-0.00354856
-0.0135
-0.00540515
-0.0144736
-0.00740444
-0.0153389
-0.00924551
-0.0160663
-0.0109624
-0.0122884
-0.0165826
0.0652982
-0.0662925
-0.0533118
0.0755667
-0.0501519
0.0841917
-0.036363
0.0913634
-0.0250453
0.0972775
-0.0154242
0.102128
-0.00714177
0.106094
4.79769e-05
0.109336
0.00632856
0.111987
0.0118491
0.114131
0.0166723
0.115823
0.0208845
0.117195
0.0247752
0.118536
0.0282989
0.120273
0.0316296
0.12264
0.0350499
0.125174
0.0388311
0.12644
0.0429734
0.124325
0.0469783
0.11685
0.0498836
0.103114
0.0505706
0.0839508
0.0482489
0.0634756
0.039859
0.0446373
0.0313204
0.0297249
0.0232517
0.0194064
0.0166446
0.0129004
0.0119928
0.00884855
0.00916197
0.00608346
0.00760115
0.00388681
0.00669833
0.00189381
0.00600914
-5.81548e-05
0.00528122
-0.00202893
0.00437976
-0.00402976
0.00324593
-0.0060682
0.00188208
-0.00812965
0.000287945
-0.0101981
-0.00148036
-0.0122487
-0.00335466
-0.0142929
-0.00536041
-0.0162675
-0.00727109
-0.0181347
-0.00909525
-0.0106189
-0.0198047
0.0772596
-0.0808755
-0.0626766
0.0897155
-0.0626077
0.100151
-0.0467987
0.108792
-0.0336865
0.115877
-0.0225088
0.121644
-0.0129088
0.126318
-0.00462546
0.130098
0.00254857
0.133161
0.00878591
0.13565
0.0141833
0.13767
0.0188649
0.139301
0.0231443
0.140612
0.0269871
0.141776
0.0304664
0.143138
0.0336872
0.145122
0.036847
0.147866
0.0402295
0.150775
0.0440692
0.152326
0.0483327
0.150359
0.0525376
0.142841
0.0557676
0.129846
0.0528536
0.112605
0.0485619
0.09312
0.0427364
0.0736599
0.0361048
0.0562535
0.0293993
0.0421724
0.0232431
0.031672
0.0181016
0.0241891
0.0141812
0.0188167
0.0113815
0.0147064
0.0093915
0.0112441
0.00784211
0.00805324
0.00643664
0.00490731
0.00502799
0.00171551
0.0034796
-0.0015549
0.00178999
-0.00489503
-1.46637e-05
-0.00832982
-0.00192573
-0.0117386
-0.00386241
-0.0150708
-0.0057633
-0.00747095
-0.0182187
0.0915917
-0.0986377
-0.0738294
0.106732
-0.0777482
0.119398
-0.0594641
0.129856
-0.044145
0.138395
-0.0310481
0.145306
-0.0198192
0.150862
-0.0101814
0.155312
-0.00190121
0.158874
0.00522332
0.161734
0.0113237
0.164045
0.0165536
0.165947
0.021243
0.167524
0.0254099
0.168833
0.0291575
0.169958
0.0325621
0.171108
0.0356972
0.172657
0.0386798
0.175019
0.0417081
0.178301
0.0450504
0.181911
0.0489277
0.184357
0.053322
0.183617
0.0535928
0.178699
0.0534808
0.169293
0.0521418
0.155878
0.0495201
0.139499
0.0457778
0.121515
0.0412279
0.103378
0.0362389
0.0863928
0.0311661
0.0714642
0.0263103
0.0589523
0.0219034
0.0487246
0.01807
0.0403497
0.0148116
0.033272
0.0121057
0.0270623
0.00968934
0.0213779
0.00747447
0.0159971
0.00536618
0.0106769
0.00339444
0.0054502
0.00136443
0.000268077
-0.00058141
-0.00241614
-0.00478651
0.10877
-0.120285
-0.0871232
0.127198
-0.0961762
0.142601
-0.0748664
0.155298
-0.0568428
0.165639
-0.0413885
0.173972
-0.0281526
0.180632
-0.0168406
0.18592
-0.00718985
0.190107
0.0010364
0.193422
0.00800866
0.19606
0.0139158
0.1982
0.019103
0.199981
0.0236285
0.201508
0.0276306
0.202846
0.0312241
0.204043
0.0345002
0.205192
0.0375308
0.206515
0.0403849
0.208392
0.0431738
0.211246
0.0460739
0.215226
0.0493421
0.219389
0.0494296
0.222871
0.049999
0.224601
0.0504113
0.223664
0.050457
0.219502
0.0499408
0.211987
0.048742
0.201396
0.0468307
0.18829
0.0442714
0.173414
0.0411874
0.157582
0.0377348
0.141584
0.0340684
0.126071
0.030325
0.111403
0.0267734
0.0978607
0.0232316
0.085498
0.0198372
0.07424
0.0166243
0.0637298
0.0139046
0.0539911
0.0111034
0.0448023
0.00860719
0.00623807
0.0361485
0.117275
-0.144179
-0.0933807
0.137599
-0.116501
0.15458
-0.0918473
0.168567
-0.0708296
0.17994
-0.0527617
0.189084
-0.0372959
0.196361
-0.0241183
0.202107
-0.012935
0.206615
-0.00347254
0.210143
0.00448118
0.212907
0.0111513
0.215106
0.0169044
0.216898
0.0218368
0.218415
0.0261131
0.219765
0.0298746
0.221021
0.0332438
0.222228
0.0363237
0.223422
0.0391914
0.224684
0.0419115
0.226217
0.0445415
0.228368
0.0471908
0.231119
0.0466785
0.234613
0.046505
0.238669
0.0463552
0.242849
0.0462771
0.246558
0.0462317
0.249173
0.0461274
0.250154
0.0458497
0.249124
0.045301
0.245902
0.0444092
0.240495
0.0431418
0.233063
0.0415007
0.223873
0.0395147
0.213192
0.0374547
0.201401
0.0350229
0.188867
0.0323705
0.175938
0.0295539
0.162627
0.0272158
0.149374
0.0243566
0.136238
0.0217431
0.0189948
0.123481
0.124155
-0.16999
-0.098344
0.146098
-0.138444
0.164428
-0.110177
0.179519
-0.0859201
0.191779
-0.0650217
0.20162
-0.0471369
0.209433
-0.0319314
0.215576
-0.0190781
0.220368
-0.0082647
0.224085
0.000764451
0.226962
0.00827345
0.229213
0.0146537
0.231009
0.0200412
0.232493
0.0246287
0.233787
0.028581
0.234989
0.0320412
0.236178
0.0351343
0.237406
0.037964
0.238697
0.0406202
0.240072
0.0431663
0.241597
0.0456662
0.24313
0.0451456
0.244921
0.0447136
0.247173
0.0441033
0.250021
0.0434295
0.25348
0.042772
0.257431
0.0421769
0.261629
0.0416516
0.265753
0.0411772
0.269451
0.0407107
0.27239
0.0402033
0.274287
0.0396035
0.274938
0.0388636
0.274207
0.0381859
0.272036
0.0371935
0.268445
0.0359621
0.263516
0.0344824
0.257223
0.033509
0.249795
0.0317843
0.241307
0.0302315
0.0283193
0.231982
0.131754
-0.197864
-0.10388
0.155442
-0.162132
0.175228
-0.129963
0.191513
-0.102205
0.204737
-0.0782456
0.215342
-0.0577416
0.223747
-0.0403366
0.230337
-0.025668
0.235454
-0.0133821
0.239396
-0.00317768
0.242419
0.00525116
0.244748
0.0123242
0.246571
0.0182182
0.248044
0.0231563
0.249295
0.0273297
0.250433
0.0309032
0.251548
0.0340197
0.252713
0.0367988
0.253984
0.0393486
0.255396
0.0417547
0.25696
0.0441017
0.258396
0.0437095
0.259788
0.0433223
0.261204
0.0426868
0.262751
0.0418824
0.264552
0.0409711
0.26672
0.0400089
0.269332
0.03904
0.272407
0.0381021
0.275902
0.037216
0.279714
0.0363913
0.283695
0.0356228
0.287668
0.0348901
0.291464
0.0343901
0.294889
0.0337683
0.297778
0.0330739
0.299996
0.0322637
0.301445
0.0320601
0.302032
0.0311977
0.301705
0.0305582
0.02959
0.300434
0.140081
-0.22796
-0.109985
0.165651
-0.187703
0.187009
-0.151321
0.204585
-0.119782
0.218854
-0.0925141
0.230289
-0.0691771
0.239342
-0.04939
0.246426
-0.0327519
0.251909
-0.0188645
0.256109
-0.00737844
0.259304
0.00205674
0.261735
0.00989329
0.263603
0.0163499
0.265077
0.0216823
0.266296
0.0261099
0.267378
0.0298216
0.268417
0.0329803
0.269494
0.035722
0.270675
0.0381678
0.272014
0.0404159
0.27355
0.042565
0.27501
0.0422495
0.276444
0.0418883
0.277848
0.0412825
0.279228
0.040503
0.280604
0.0395952
0.282015
0.0385969
0.283518
0.0375376
0.285172
0.0364482
0.287035
0.0353528
0.289153
0.0342738
0.291549
0.0332264
0.294224
0.0322155
0.297165
0.0314486
0.30032
0.0306134
0.30362
0.0297742
0.306982
0.0289008
0.31037
0.0286721
0.313655
0.0279124
0.316776
0.0274373
0.0267344
0.319632
0.149161
-0.260452
-0.116669
0.176762
-0.215304
0.199816
-0.174375
0.218788
-0.138754
0.234188
-0.107913
0.246525
-0.0815143
0.256284
-0.0591497
0.26391
-0.0403772
0.269796
-0.0247508
0.274287
-0.0118697
0.27768
-0.00133576
0.280233
0.00733987
0.282163
0.0144198
0.283651
0.0201944
0.284848
0.0249132
0.285878
0.0287911
0.286846
0.0320128
0.287835
0.0347328
0.288916
0.0370871
0.290146
0.0391857
0.291573
0.0411372
0.292943
0.0408795
0.29432
0.0405113
0.295709
0.0398942
0.297105
0.0391067
0.298503
0.0381977
0.299895
0.0372051
0.301278
0.0361544
0.302656
0.0350703
0.304039
0.0339695
0.305445
0.0328679
0.306895
0.0317764
0.308412
0.0306984
0.310025
0.0298355
0.311749
0.0288888
0.313597
0.0279265
0.315571
0.0269272
0.317697
0.0265453
0.319947
0.0256628
0.322319
0.0250644
0.0242692
0.324785
0.159031
-0.295529
-0.123954
0.188826
-0.245098
0.213713
-0.199263
0.234194
-0.159235
0.250817
-0.124537
0.264132
-0.0948293
0.27466
-0.0696773
0.282876
-0.0485938
0.289206
-0.031081
0.29402
-0.0166834
0.297636
-0.00495158
0.300332
0.00464402
0.302339
0.0124122
0.303853
0.0186807
0.305035
0.0237313
0.306019
0.0278067
0.306917
0.0311151
0.307819
0.0338307
0.3088
0.0361062
0.30992
0.0380654
0.311229
0.0398277
0.312478
0.0396304
0.313736
0.039254
0.315014
0.0386164
0.316318
0.0378018
0.317652
0.0368643
0.319011
0.035846
0.320389
0.0347764
0.321777
0.0336821
0.323166
0.0325804
0.324548
0.0314863
0.325916
0.0304083
0.327267
0.0293471
0.328606
0.0284962
0.329933
0.027562
0.331252
0.0266075
0.332569
0.0256104
0.333906
0.0252078
0.335262
0.0243073
0.336651
0.0236744
0.0228414
0.338079
0.169738
-0.333399
-0.131868
0.201903
-0.277262
0.228772
-0.226133
0.250886
-0.181349
0.268835
-0.142485
0.28321
-0.109204
0.294572
-0.0810392
0.303432
-0.0574546
0.310249
-0.0378971
0.315418
-0.0218527
0.319283
-0.00881636
0.322141
0.00178587
0.324241
0.0103121
0.325791
0.0171301
0.326966
0.0225564
0.327909
0.0268633
0.32874
0.0302845
0.329555
0.0330154
0.330435
0.0352264
0.331444
0.0370564
0.332634
0.0386371
0.333761
0.0385035
0.334894
0.0381216
0.336044
0.0374654
0.337223
0.0366236
0.338433
0.0356532
0.33968
0.0345998
0.34096
0.0334955
0.342273
0.0323696
0.343612
0.0312412
0.344971
0.030127
0.346342
0.0290364
0.347719
0.0279707
0.349097
0.0271178
0.350467
0.0261922
0.35182
0.0252533
0.353154
0.0242775
0.354474
0.0238866
0.355771
0.0230111
0.357047
0.0223976
0.0215868
0.358302
0.181334
-0.37429
-0.140444
0.216063
-0.311991
0.245078
-0.255148
0.268959
-0.20523
0.288344
-0.16187
0.30387
-0.12473
0.316139
-0.0933079
0.325701
-0.0670173
0.333049
-0.0452446
0.338609
-0.0274126
0.342749
-0.0129571
0.34579
-0.00125481
0.347997
0.00810452
0.349596
0.0155318
0.350771
0.021381
0.351678
0.0259564
0.352444
0.0295186
0.353173
0.0322862
0.35395
0.0344486
0.354846
0.0361609
0.355915
0.0375678
0.356918
0.037501
0.357924
0.037115
0.358949
0.0364403
0.360002
0.0355703
0.36109
0.0345657
0.362215
0.0334745
0.363379
0.0323315
0.364581
0.0311672
0.36582
0.0300024
0.367092
0.0288547
0.368394
0.0277344
0.36972
0.0266436
0.371073
0.0257654
0.372442
0.0248227
0.373823
0.0238732
0.375207
0.022893
0.376604
0.022489
0.377998
0.0216173
0.37939
0.0210058
0.0202042
0.380772
0.193882
-0.418448
-0.149724
0.231386
-0.349495
0.262724
-0.286485
0.288522
-0.231027
0.309465
-0.182813
0.326239
-0.141504
0.339494
-0.106563
0.349821
-0.0773448
0.357749
-0.0531726
0.363738
-0.0334013
0.368183
-0.0174027
0.371428
-0.00449962
0.373758
0.00577389
0.375415
0.013875
0.376598
0.020198
0.377473
0.0250815
0.378176
0.0288155
0.378819
0.0316429
0.379494
0.0337739
0.380274
0.0353806
0.38122
0.0366219
0.382095
0.0366257
0.382973
0.0362371
0.38387
0.035543
0.384798
0.0346422
0.385764
0.0335992
0.386773
0.0324654
0.387827
0.0312778
0.388925
0.0300688
0.390067
0.0288605
0.39125
0.0276713
0.392472
0.0265122
0.39373
0.0253858
0.395025
0.0244704
0.39635
0.0234971
0.397702
0.0225219
0.399073
0.0215211
0.400476
0.0210861
0.401894
0.0201993
0.40333
0.0195701
0.0187587
0.404775
0.207449
-0.466144
-0.159752
0.247961
-0.390007
0.281816
-0.320341
0.309691
-0.258902
0.332325
-0.205447
0.350457
-0.159636
0.364785
-0.12089
0.375946
-0.088506
0.384508
-0.0617354
0.390968
-0.0398605
0.395749
-0.0221846
0.399222
-0.00797169
0.401692
0.00330358
0.403418
0.0121485
0.404615
0.0190004
0.405462
0.0242351
0.406103
0.0281737
0.40666
0.031086
0.40723
0.0332038
0.407893
0.034718
0.408712
0.0358022
0.409457
0.035881
0.410203
0.0354911
0.410969
0.0347765
0.411769
0.0338417
0.412613
0.0327555
0.413505
0.0315727
0.41445
0.0303331
0.415447
0.0290711
0.416498
0.0278103
0.417598
0.0265702
0.418748
0.0253625
0.419943
0.0241905
0.421185
0.023228
0.422468
0.022214
0.423787
0.0212028
0.425137
0.020171
0.426529
0.0196947
0.427945
0.0187827
0.42939
0.0181255
0.0172943
0.430854
0.22211
-0.517676
-0.170579
0.265882
-0.433779
0.30247
-0.356929
0.3326
-0.289033
0.357072
-0.229919
0.37668
-0.179244
0.392176
-0.136386
0.404247
-0.100577
0.413504
-0.0709922
0.420479
-0.046836
0.425632
-0.0273374
0.429356
-0.0116965
0.431984
0.000675768
0.433792
0.0103402
0.435012
0.0177809
0.435833
0.0234135
0.436414
0.0275928
0.436883
0.0306168
0.437345
0.0327414
0.437886
0.0341769
0.438575
0.0351131
0.439185
0.0352714
0.439794
0.0348817
0.440425
0.0341455
0.441093
0.0331732
0.44181
0.0320384
0.442583
0.0307998
0.443415
0.0295002
0.44431
0.0281763
0.445267
0.0268534
0.446285
0.0255522
0.447361
0.0242855
0.448494
0.0230574
0.449685
0.022037
0.450927
0.0209719
0.452215
0.0199143
0.453545
0.0188417
0.454925
0.0183144
0.456339
0.0173682
0.45779
0.0166744
0.0158157
0.459269
0.237949
-0.573366
-0.182259
0.285259
-0.481089
0.324812
-0.396481
0.357393
-0.321614
0.383862
-0.256388
0.405077
-0.200459
0.421847
-0.153157
0.434912
-0.113642
0.444929
-0.0810091
0.452471
-0.0543785
0.458033
-0.0328992
0.462038
-0.0157019
0.464843
-0.00212928
0.466746
0.00843732
0.467995
0.016532
0.468795
0.0226134
0.469315
0.0270725
0.469694
0.030238
0.470044
0.0323909
0.470458
0.0337629
0.47101
0.0345607
0.471478
0.0348037
0.471943
0.0344158
0.472432
0.0336567
0.472962
0.0326432
0.473546
0.0314543
0.474193
0.0301528
0.474907
0.028785
0.475694
0.02739
0.476552
0.0259952
0.477481
0.0246227
0.47848
0.0232865
0.479546
0.0219916
0.480679
0.020903
0.481875
0.0197762
0.483127
0.0186622
0.48443
0.017539
0.485793
0.0169511
0.487199
0.0159617
0.488651
0.0152228
0.0143287
0.490138
0.255055
-0.633569
-0.194852
0.306207
-0.532241
0.348982
-0.439256
0.384227
-0.356859
0.412871
-0.285032
0.435837
-0.223425
0.453998
-0.171317
0.468149
-0.127793
0.478999
-0.0918586
0.487164
-0.0625442
0.493178
-0.0389124
0.497494
-0.020019
0.500498
-0.00513323
0.50251
0.00642557
0.503796
0.0152457
0.504578
0.0218317
0.505037
0.0266138
0.505321
0.0299532
0.505554
0.0321585
0.505832
0.0334836
0.506239
0.0341541
0.506555
0.0344871
0.506868
0.034103
0.507205
0.0333197
0.507586
0.0322614
0.508028
0.0310126
0.508539
0.0296411
0.509127
0.0281966
0.509796
0.0267213
0.510546
0.0252447
0.511379
0.0237907
0.51229
0.0223747
0.513279
0.0210026
0.514347
0.0198353
0.515486
0.0186367
0.516692
0.0174564
0.517957
0.0162733
0.519293
0.0156154
0.52068
0.0145743
0.522121
0.0137821
0.0128451
0.523604
0.273529
-0.698674
-0.208424
0.328854
-0.587566
0.375132
-0.485534
0.413278
-0.395005
0.444291
-0.316045
0.469168
-0.248301
0.488847
-0.190997
0.504187
-0.143133
0.51595
-0.103622
0.524801
-0.0713954
0.531313
-0.0454241
0.535976
-0.0246821
0.539203
-0.00836022
0.541339
0.00428958
0.542671
0.0139134
0.543437
0.0210655
0.543832
0.026218
0.544018
0.0297677
0.544124
0.032052
0.544258
0.0333495
0.544507
0.0339051
0.544659
0.0343343
0.544806
0.0339563
0.544977
0.0331479
0.545197
0.0320411
0.545483
0.0307268
0.545846
0.0292779
0.546294
0.0277484
0.546831
0.0261834
0.547461
0.0246152
0.548182
0.0230695
0.548993
0.0215633
0.549892
0.0201038
0.55088
0.0188475
0.551949
0.0175671
0.553094
0.016311
0.554308
0.0150588
0.555602
0.0143217
0.556955
0.0132207
0.55837
0.0123673
0.0113802
0.559835
0.293477
-0.769107
-0.223044
0.353342
-0.647432
0.403432
-0.535624
0.444736
-0.436309
0.478333
-0.349642
0.505294
-0.275263
0.526635
-0.212337
0.543277
-0.159775
0.556043
-0.116388
0.565649
-0.0810014
0.572711
-0.0524867
0.577759
-0.0297298
0.581235
-0.0118368
0.583513
0.00201217
0.5849
0.012526
0.585653
0.0203121
0.585983
0.0258881
0.586062
0.0296883
0.586032
0.0320821
0.586007
0.0333738
0.586083
0.0338296
0.586055
0.0343614
0.586019
0.0339925
0.586008
0.0331586
0.586049
0.0319999
0.586161
0.0306146
0.586357
0.0290811
0.586647
0.0274581
0.587036
0.0257942
0.587527
0.0241246
0.588119
0.0224771
0.588812
0.0208704
0.589602
0.0193133
0.590491
0.0179578
0.591472
0.0165858
0.592539
0.0152443
0.593683
0.0139142
0.594916
0.0130888
0.596217
0.0119198
0.597587
0.0109973
0.00995306
0.599014
0.315016
-0.845334
-0.238789
0.379822
-0.712237
0.434064
-0.589867
0.478811
-0.481056
0.515227
-0.386057
0.544468
-0.304504
0.567626
-0.235495
0.585697
-0.177846
0.599565
-0.130256
0.610003
-0.0914394
0.617674
-0.0601587
0.623149
-0.0352045
0.626905
-0.0155929
0.629343
-0.000425451
0.630795
0.0110734
0.631538
0.0195691
0.631798
0.0256276
0.631762
0.0297243
0.631582
0.032262
0.631382
0.0335735
0.631264
0.0339474
0.631036
0.0345895
0.630794
0.0342335
0.630579
0.0333741
0.630418
0.0321606
0.630333
0.0306992
0.63034
0.0290741
0.630449
0.0273493
0.630665
0.0255774
0.630993
0.0237966
0.631433
0.0220372
0.631984
0.0203198
0.632642
0.0186548
0.63341
0.0171898
0.634279
0.0157164
0.635244
0.0142802
0.636294
0.0128632
0.637443
0.0119403
0.638667
0.0106952
0.639969
0.00969579
0.00858733
0.641334
0.338275
-0.927868
-0.255741
0.408461
-0.782423
0.46723
-0.648636
0.515734
-0.52956
0.555229
-0.425552
0.586963
-0.336238
0.612113
-0.260645
0.631751
-0.197484
0.646832
-0.145337
0.658188
-0.102795
0.666534
-0.068505
0.672484
-0.0411544
0.676552
-0.0196615
0.679171
-0.00304441
0.680699
0.00954511
0.681433
0.0188344
0.681619
0.0254417
0.681457
0.0298865
0.681111
0.032608
0.680714
0.0339693
0.680379
0.0342833
0.679924
0.0350437
0.679452
0.0347056
0.679004
0.0338216
0.678613
0.0325511
0.678303
0.0310085
0.678092
0.0292853
0.67799
0.0274507
0.678006
0.0255617
0.678143
0.02366
0.678401
0.0217786
0.67878
0.0199403
0.679278
0.0181574
0.679894
0.0165728
0.680623
0.0149881
0.681455
0.0134478
0.682383
0.0119349
0.683418
0.0109051
0.684537
0.00957602
0.685741
0.00849169
0.0073119
0.687017
0.363392
-1.01727
-0.273986
0.439444
-0.858475
0.503151
-0.712343
0.555757
-0.582166