/*--------------------------------*- C++ -*----------------------------------*\
| =========                 |                                                 |
| \\      /  F ield         | OpenFOAM: The Open Source CFD Toolbox           |
|  \\    /   O peration     | Version:  2312                                  |
|   \\  /    A nd           | Website:  www.openfoam.com                      |
|    \\/     M anipulation  |                                                 |
\*---------------------------------------------------------------------------*/
FoamFile
{
    version     2.0;
    format      ascii;
    arch        "LSB;label=32;scalar=64";
    class       volSymmTensorField;
    location    "600";
    object      turbulenceProperties:R;
}
// * * * * * * * * * * * * * * * * * * * * * * * * * * * * * * * * * * * * * //

dimensions      [0 2 -2 0 0 0 0];

internalField   nonuniform List<symmTensor> 
11040
(
(0.281552 0.0745654 -1.20863e-22 0.245172 9.02427e-21 0.275077)
(0.351267 0.0741267 8.17473e-21 0.226471 1.13678e-19 0.305293)
(0.0552993 0.0060153 -1.77879e-20 0.040885 5.61667e-20 0.0467566)
(0.0262167 0.00858614 -5.65452e-20 0.034336 3.25142e-20 0.0296831)
(0.115444 0.0449035 -2.09534e-20 0.243566 1.86683e-19 0.179209)
(0.127507 0.0555218 -2.86287e-19 0.24496 1.03882e-19 0.18519)
(0.126717 0.0579383 1.63429e-19 0.225296 -1.07541e-18 0.175593)
(0.120264 0.0560317 2.26787e-19 0.20011 -1.58259e-19 0.159956)
(0.112193 0.0523511 9.69442e-20 0.175115 -2.82723e-20 0.143494)
(0.10755 0.0500176 8.98858e-20 0.158579 1.42878e-19 0.133036)
(0.102534 0.0471632 -7.94137e-20 0.143824 3.39245e-19 0.123133)
(0.0979411 0.0444086 -1.1848e-19 0.131067 2.52109e-19 0.114497)
(0.094162 0.0419649 1.92669e-20 0.120514 -1.45269e-19 0.107373)
(0.0913532 0.0399938 2.43672e-20 0.112234 1.39779e-19 0.101828)
(0.0891593 0.0382925 -1.09946e-20 0.105278 1.12873e-20 0.097287)
(0.0886774 0.0374586 -4.49807e-21 0.100898 -1.812e-19 0.0948688)
(0.0899269 0.0374802 4.99805e-20 0.0987419 -1.1812e-21 0.0944391)
(0.093163 0.038431 -4.65504e-21 0.0988144 3.28739e-19 0.0961176)
(0.0982589 0.0401849 -2.85503e-20 0.100723 2.81071e-21 0.0996441)
(0.1053 0.0427232 4.56076e-21 0.104337 -4.82243e-20 0.105002)
(0.114616 0.0461388 2.19431e-20 0.109778 3.73443e-20 0.112402)
(0.125898 0.0503353 -2.39741e-20 0.116937 1.1368e-19 0.121635)
(0.138997 0.0553114 6.53133e-22 0.125913 -9.46709e-20 0.1327)
(0.154235 0.0611087 1.27062e-20 0.136669 2.41969e-19 0.145719)
(0.171746 0.0677426 -7.39872e-20 0.149147 -2.19309e-19 0.16071)
(0.192213 0.0755252 -3.95512e-20 0.163897 -5.14441e-19 0.178298)
(0.21488 0.0841223 1.08686e-20 0.180238 -2.4085e-19 0.19776)
(0.236558 0.0922077 3.19876e-20 0.195565 6.80205e-20 0.216196)
(0.255285 0.0990397 -2.22274e-20 0.208397 -1.98868e-19 0.231877)
(0.268709 0.103757 1.38887e-20 0.217017 -4.64982e-19 0.242781)
(0.274525 0.105522 1.18989e-19 0.219738 3.3757e-19 0.246931)
(0.271146 0.103746 2.30792e-20 0.215363 -2.21813e-20 0.242938)
(0.25991 0.0990677 1.08096e-19 0.205172 9.54886e-19 0.2321)
(0.245977 0.0936772 -8.93294e-20 0.193514 5.97011e-19 0.219142)
(0.229165 0.0876143 4.87344e-20 0.180611 8.11281e-21 0.203993)
(0.166354 0.0638963 1.26246e-19 0.132918 8.78942e-19 0.148627)
(0.08483 0.0326479 8.28438e-21 0.0706047 1.64592e-19 0.0769301)
(0.0467764 0.0195006 -3.15033e-20 0.044091 5.44613e-19 0.0442035)
(0.0120682 0.0042505 -4.22705e-19 0.0262718 -1.08825e-18 0.0184964)
(0.0647494 -0.031405 7.44619e-21 0.0991624 -8.8109e-19 0.0800975)
(0.0884395 -0.0230254 1.83914e-19 0.207764 5.05581e-20 0.138789)
(0.0240118 -0.00175017 1.68537e-22 0.0211082 -4.99309e-22 0.0218452)
(0.0594238 0.00128039 2.03899e-20 0.0382594 4.18286e-21 0.0409208)
(0.200134 0.0271265 4.7058e-20 0.110518 -2.54901e-19 0.157206)
(0.392432 0.0300705 7.18375e-20 0.164273 -1.64136e-19 0.279531)
(0.780414 -0.0204554 8.02799e-20 0.2977 -4.81098e-19 0.538509)
(0.249479 -0.0481875 5.54603e-19 0.116366 -1.17964e-18 0.182488)
(0.0744147 -0.0188013 -8.07447e-19 0.0399593 3.16346e-18 0.0560429)
(0.0238617 -0.0076068 -8.10982e-19 0.0150465 2.09638e-18 0.0198758)
(0.00540989 -0.00224816 -7.31175e-20 0.00464182 -1.48225e-19 0.00533022)
(0.00253613 0.00120893 -1.00633e-19 0.00485903 3.93818e-20 0.00398946)
(0.00690777 0.00345537 4.47162e-19 0.0112034 -1.12652e-18 0.00914589)
(0.00969625 0.00484307 -7.04436e-23 0.0145354 -6.99634e-20 0.0120756)
(0.0118563 0.00587698 -1.60812e-19 0.0163719 6.61149e-19 0.0140608)
(0.0134874 0.00660026 -1.08515e-19 0.0176709 3.50658e-20 0.0154311)
(0.0147573 0.00710701 -4.34147e-20 0.0182675 -1.68271e-19 0.0163322)
(0.0160078 0.00757245 1.03224e-20 0.0188255 5.72611e-19 0.0171895)
(0.0174923 0.00812101 -1.38031e-20 0.0196023 1.92303e-19 0.0182734)
(0.0193036 0.00879075 -8.24928e-21 0.0206556 -5.37666e-19 0.0196596)
(0.0212151 0.00947249 -2.2936e-20 0.0217387 -2.48859e-20 0.0211043)
(0.0232271 0.0101549 -7.19842e-21 0.0227965 8.06686e-20 0.0225978)
(0.0253891 0.0108512 -1.0745e-20 0.0238583 -1.60466e-20 0.0241819)
(0.0276962 0.0115709 2.98204e-20 0.0249864 -2.72357e-19 0.0258766)
(0.0295807 0.0121141 2.37702e-20 0.0258165 3.81467e-19 0.0272007)
(0.0305055 0.0122692 -4.55606e-20 0.025875 -3.47759e-19 0.0276833)
(0.0302913 0.0119882 -5.97499e-21 0.0250606 2.8257e-19 0.0272006)
(0.0295887 0.0115582 7.30249e-20 0.023968 9.08157e-19 0.0263658)
(0.0285853 0.011068 1.36869e-19 0.0227889 5.02988e-19 0.0253606)
(0.0265265 0.0102472 -3.29056e-20 0.0209879 1.42706e-19 0.0235668)
(0.0234473 0.00914181 -9.05064e-20 0.0186766 2.82197e-19 0.0210677)
(0.0198414 0.00796096 4.41763e-20 0.0163305 5.03277e-19 0.0183359)
(0.0166717 0.00707652 -1.12619e-19 0.014842 -7.74946e-19 0.0162649)
(0.0147896 0.00681652 -5.98286e-20 0.0152413 -1.25496e-18 0.0158061)
(0.0131682 0.00658806 -1.39207e-19 0.0170389 -2.65346e-18 0.0162273)
(0.0129636 0.00657443 6.15178e-20 0.0213023 -1.33838e-18 0.0186402)
(0.0144357 0.00679095 -9.09982e-20 0.0282885 1.27884e-19 0.0234145)
(0.0174951 0.00733256 -4.59752e-19 0.0379251 -4.05938e-18 0.0305295)
(0.0225075 0.00874205 -5.9503e-20 0.0508659 -3.4049e-19 0.0402983)
(0.0289428 0.0108655 -5.40501e-19 0.0665716 -2.51378e-18 0.0506231)
(0.0436076 0.0129816 1.2269e-18 0.107065 5.28985e-18 0.0807689)
(0.0584389 0.026049 7.62619e-19 0.113235 4.53393e-18 0.081819)
(0.245766 -0.114925 -4.01962e-19 0.433278 -6.45187e-19 0.406815)
(0.0145338 -0.00147384 -1.86054e-22 0.012923 -2.66148e-22 0.0138708)
(0.0121561 -0.00192817 -4.94102e-21 0.0126102 -1.26029e-20 0.0122772)
(0.0335663 0.00351831 1.57133e-20 0.0210846 7.71261e-20 0.0267291)
(0.15436 0.0161656 5.22408e-20 0.0786549 8.07129e-20 0.117414)
(0.895076 0.0474015 -7.44367e-21 0.345741 -3.67274e-20 0.623864)
(1.21429 -0.0342075 -2.97522e-19 0.463367 1.17172e-18 0.836514)
(0.610508 -0.0965267 2.70945e-20 0.26664 1.18059e-20 0.437572)
(0.22021 -0.0535783 9.54697e-20 0.116129 -2.43027e-18 0.162916)
(0.0990868 -0.028281 -1.6673e-19 0.0574823 2.55201e-20 0.0775842)
(0.0576335 -0.0173492 2.3663e-19 0.0346677 -6.92395e-19 0.0464564)
(0.0311785 -0.0101715 -4.36446e-19 0.0201651 1.02881e-18 0.0258022)
(0.0168471 -0.00596053 7.55375e-19 0.0118767 -2.06618e-18 0.0143503)
(0.0077361 -0.00268608 -3.74212e-20 0.00530978 -6.90036e-20 0.00662796)
(0.00175749 -0.000441806 1.51798e-19 0.000925184 -9.07838e-19 0.00137177)
(0.00289842 0.00117142 2.52377e-20 0.00239033 9.475e-19 0.00273009)
(0.00556389 0.00236642 -7.77772e-20 0.00499406 -3.62442e-19 0.00535809)
(0.0076467 0.00319835 -3.6498e-21 0.00669297 -6.10495e-19 0.00725188)
(0.00932207 0.00377882 4.12617e-20 0.00778582 -4.367e-19 0.00864107)
(0.0106831 0.00418317 1.94689e-20 0.00850822 -2.48735e-20 0.00966919)
(0.0117763 0.00441793 2.57942e-20 0.00887595 2.75737e-20 0.010396)
(0.0126369 0.00451024 3.15672e-21 0.00898297 8.36708e-20 0.0108706)
(0.0132723 0.00444112 -4.36914e-20 0.00880664 1.33796e-19 0.0111067)
(0.0133551 0.00409347 -3.73003e-20 0.00816648 -4.39688e-19 0.0108278)
(0.0127062 0.00342731 -3.93841e-20 0.00704006 -1.76452e-19 0.00992912)
(0.011422 0.002547 8.23505e-20 0.00566062 -2.7802e-19 0.00857269)
(0.00972381 0.0016124 -1.38078e-20 0.0043018 -2.58058e-19 0.00701545)
(0.00765821 0.00077662 -2.26804e-19 0.00309161 2.65902e-19 0.00533783)
(0.00497922 0.000171364 -7.93503e-20 0.00192449 -1.07891e-18 0.00336316)
(0.00132272 -2.53939e-05 1.92178e-19 0.000573895 2.65176e-19 0.000798321)
(0.00170857 0.000258843 2.63029e-19 0.00423897 1.12213e-18 0.00277002)
(0.00471669 0.00085517 -1.83496e-19 0.0119102 6.33866e-19 0.00807481)
(0.0089361 0.00148019 4.31676e-19 0.0228277 2.60492e-18 0.0156188)
(0.0146633 0.00283849 1.87416e-19 0.0372221 8.19828e-19 0.0256811)
(0.0220279 0.00503276 -3.87415e-19 0.0552502 9.09409e-19 0.0384484)
(0.0312855 0.00821013 -4.81664e-19 0.0772895 -9.53767e-19 0.0542552)
(0.0429562 0.0126387 3.15632e-19 0.104321 2.01318e-18 0.0739662)
(0.057899 0.0190275 2.74248e-19 0.137464 -2.11423e-18 0.0987186)
(0.0752458 0.0272935 5.66781e-19 0.172405 1.92998e-18 0.123835)
(0.105957 0.0355139 -4.24311e-19 0.251876 -9.40598e-19 0.184347)
(0.163322 0.0770879 3.77442e-20 0.29734 -4.84461e-19 0.222357)
(0.184362 -0.00360586 4.6712e-19 0.487076 1.65302e-18 0.338015)
(0.0106815 -0.00103509 -5.79257e-23 0.00908827 -2.81114e-22 0.00994363)
(0.00838286 -0.000996564 -1.2886e-22 0.00850213 9.63632e-22 0.00853885)
(0.00659057 -0.00108961 -7.68297e-21 0.00746377 -1.75931e-20 0.0070425)
(0.0125687 0.000770185 -1.0549e-20 0.00919573 -2.0649e-20 0.0108025)
(0.207617 0.0196243 3.65349e-20 0.0887367 4.34113e-20 0.148864)
(1.03824 0.0423227 2.38254e-19 0.397086 9.97568e-21 0.723194)
(1.56237 -0.0438224 2.52435e-19 0.595999 -1.37231e-18 1.07649)
(1.02479 -0.135312 8.90739e-19 0.427873 -1.39542e-18 0.732498)
(0.409354 -0.0936068 -4.04311e-19 0.208266 1.21173e-18 0.300084)
(0.211595 -0.0570512 2.28119e-19 0.117979 3.96025e-19 0.162631)
(0.12191 -0.0353682 -3.46366e-19 0.071363 1.1116e-18 0.0965483)
(0.0788551 -0.0250431 -5.74053e-19 0.0497963 1.24746e-18 0.064383)
(0.0537508 -0.0179459 4.59655e-19 0.0355718 -9.41473e-19 0.0448043)
(0.0370011 -0.0129545 -1.13093e-19 0.0257939 9.26887e-19 0.0313145)
(0.0268553 -0.00952982 -1.96341e-19 0.0189873 -1.04661e-18 0.0229003)
(0.0200144 -0.00702209 -1.12167e-19 0.0139816 -4.52721e-19 0.0169637)
(0.015941 -0.00539801 5.13377e-20 0.0107266 2.23035e-19 0.013305)
(0.0135261 -0.00427541 1.12791e-19 0.00851045 1.35765e-20 0.0110149)
(0.0123297 -0.00361908 3.09312e-20 0.00728563 5.29709e-20 0.00979931)
(0.0121244 -0.00334377 -1.2044e-20 0.00682816 -7.61454e-20 0.00949)
(0.0125032 -0.00337919 -2.71517e-20 0.00694262 -1.94628e-19 0.00973395)
(0.0134678 -0.00366747 2.57432e-20 0.00751676 -2.76911e-19 0.0105071)
(0.0150722 -0.00425803 2.28607e-20 0.0086374 -1.25046e-19 0.0118767)
(0.0170718 -0.00514456 8.51133e-21 0.0102938 1.16278e-19 0.0137112)
(0.0189395 -0.00614069 -6.78904e-20 0.0121907 7.02978e-19 0.0155877)
(0.0202274 -0.00705403 2.50364e-19 0.014018 -8.05251e-19 0.0171398)
(0.02054 -0.00774575 1.80056e-19 0.0155916 -6.21148e-19 0.0180813)
(0.0195301 -0.00809102 1.99153e-19 0.0168948 1.52077e-18 0.0182289)
(0.0171505 -0.00795569 -6.268e-20 0.0182874 4.0605e-19 0.0177377)
(0.0143819 -0.00724834 -5.56062e-19 0.0212382 -5.95543e-19 0.0178361)
(0.0136819 -0.00586729 1.75268e-19 0.0287675 -1.07534e-18 0.0212598)
(0.0171334 -0.00357963 -4.4475e-19 0.0434533 6.53326e-19 0.0303359)
(0.0249319 7.07463e-05 3.83576e-19 0.0657582 -5.551e-19 0.045401)
(0.0370307 0.00534625 4.42325e-19 0.0959103 -1.41386e-18 0.0665368)
(0.0535164 0.0125081 4.35831e-19 0.134222 8.24029e-19 0.0939105)
(0.0750353 0.0219054 4.73569e-19 0.182236 1.78485e-18 0.128758)
(0.102911 0.0346767 3.89723e-19 0.241917 1.88369e-18 0.173013)
(0.136589 0.0519516 -5.76138e-19 0.305785 -2.35638e-18 0.219562)
(0.185138 0.0681762 1.23829e-20 0.425289 -8.03007e-19 0.310885)
(0.295984 0.141946 -1.67421e-19 0.528398 -1.65918e-18 0.400909)
(0.214239 0.0727705 -4.83752e-19 0.505615 -8.0519e-19 0.366786)
(0.00796789 -0.000747375 5.3157e-22 0.00678441 1.27595e-21 0.00737048)
(0.00680623 -0.000815482 -8.25338e-22 0.00650534 -1.64198e-21 0.00662644)
(0.00681798 -0.000890541 4.48811e-21 0.00735421 9.09184e-21 0.00708386)
(0.00336606 -0.000386481 5.14183e-21 0.00374567 9.02434e-21 0.00354591)
(0.0052083 0.000155702 -4.80931e-21 0.00418215 -7.14397e-21 0.00467517)
(0.18788 0.0146015 3.22945e-20 0.0767384 -1.05346e-20 0.13252)
(0.988883 0.0301747 -7.1863e-20 0.376416 -8.77898e-21 0.687833)
(1.76317 -0.0460682 -2.51666e-19 0.672146 3.13981e-19 1.21467)
(1.48752 -0.164825 3.99254e-19 0.603471 -1.79761e-19 1.05471)
(0.715939 -0.150229 1.0204e-20 0.346106 1.80329e-19 0.526583)
(0.364334 -0.0949047 3.59512e-19 0.199525 -2.32356e-18 0.275255)
(0.213866 -0.0610588 -2.55412e-19 0.123837 3.94465e-19 0.168056)
(0.143228 -0.044074 -2.88802e-19 0.0878002 2.30298e-19 0.116089)
(0.100391 -0.033105 3.30638e-19 0.065667 -2.30228e-18 0.0831607)
(0.0756212 -0.0263211 2.63012e-19 0.0523043 1.3028e-19 0.0639976)
(0.0590591 -0.0212031 1.67276e-19 0.0422911 1.76815e-19 0.0506587)
(0.0490532 -0.0179877 -1.54444e-19 0.0360123 6.24691e-19 0.0424937)
(0.0426858 -0.0157765 -1.14215e-20 0.0316236 1.37198e-19 0.0371491)
(0.0389222 -0.0144979 3.67655e-20 0.0291196 -6.63249e-20 0.0339897)
(0.0371348 -0.0139125 4.67426e-20 0.0279716 4.92566e-20 0.0325481)
(0.0364861 -0.0137919 -9.40219e-21 0.0277966 2.29269e-19 0.0321224)
(0.0368023 -0.0139793 -8.85277e-20 0.0282112 2.27509e-19 0.0324874)
(0.0381178 -0.014493 1.21171e-19 0.0292566 1.73947e-19 0.0336637)
(0.0401831 -0.015346 1.50599e-19 0.0310144 3.99182e-19 0.0355807)
(0.0422652 -0.0163343 -1.76968e-19 0.0331297 -9.69506e-20 0.0376812)
(0.0437012 -0.0172564 -1.32969e-19 0.0352639 2.03645e-18 0.0394678)
(0.0438667 -0.0179308 8.22866e-20 0.0371992 -3.15217e-20 0.0405234)
(0.0421333 -0.0181514 -2.95688e-19 0.0388686 -8.31838e-19 0.0404971)
(0.0381657 -0.0176791 -5.04362e-19 0.0405886 -1.60918e-18 0.0393837)
(0.0325931 -0.016247 3.64424e-19 0.0437114 -6.63762e-19 0.0381748)
(0.0280469 -0.0135156 1.23397e-19 0.0515957 1.75443e-18 0.0398591)
(0.0289542 -0.00906829 2.61591e-19 0.0692887 -1.06199e-18 0.0491734)
(0.0380687 -0.00243609 -2.2105e-19 0.100058 2.9495e-18 0.0691425)
(0.0554714 0.00683983 -8.84989e-19 0.144395 1.42291e-19 0.100034)
(0.0807303 0.019191 -3.24441e-19 0.202094 6.14968e-19 0.14147)
(0.11428 0.0351004 -4.40178e-19 0.274657 7.35423e-19 0.194627)
(0.157837 0.056167 -7.63145e-20 0.364658 -3.22535e-20 0.262054)
(0.212796 0.0855305 2.17752e-20 0.463679 7.14027e-20 0.335826)
(0.277907 0.111745 -4.58704e-20 0.612976 1.62049e-18 0.452485)
(0.442361 0.212888 -9.38244e-20 0.788725 -1.0857e-18 0.601027)
(0.330395 0.155819 6.82794e-19 0.640255 -7.24538e-19 0.495956)
(0.00577077 -0.000513119 -5.27323e-22 0.00487092 -8.94153e-22 0.00532619)
(0.00505845 -0.000606979 2.71177e-21 0.00471571 4.40943e-21 0.00487809)
(0.004687 -0.000595777 -1.3375e-21 0.00482482 -2.88962e-21 0.00475028)
(0.00496198 -0.000630841 -1.31663e-21 0.00558102 -3.48934e-21 0.00527651)
(0.00155973 -9.43634e-05 2.99988e-22 0.00167868 7.18859e-22 0.00161847)
(0.00120314 7.14345e-06 -1.49563e-22 0.00108956 -1.48391e-22 0.00114375)
(0.127908 0.00769885 -2.32658e-20 0.051705 -2.38912e-20 0.0896734)
(0.794663 0.0183162 -7.84453e-20 0.301982 9.68237e-20 0.551293)
(1.78907 -0.0439759 -1.65808e-19 0.680985 -1.60011e-19 1.23536)
(1.90596 -0.175766 -3.65579e-19 0.758231 -9.54522e-19 1.3372)
(1.18839 -0.217485 3.68577e-19 0.540466 5.53185e-19 0.873094)
(0.585387 -0.145875 5.97797e-19 0.312047 -8.20607e-19 0.43736)
(0.350594 -0.0993258 -7.98639e-19 0.202596 6.15262e-19 0.272917)
(0.230089 -0.069422 3.43758e-19 0.13897 1.07192e-18 0.184522)
(0.164798 -0.0538616 2.20895e-20 0.106769 4.73224e-19 0.136315)
(0.12446 -0.0430371 -2.27207e-19 0.0854257 -8.49796e-20 0.10516)
(0.100707 -0.0364895 1.58287e-19 0.0728897 -8.85745e-19 0.0867425)
(0.0858651 -0.0319892 -3.40957e-20 0.0642256 5.76137e-19 0.075042)
(0.0767095 -0.0292417 6.90385e-20 0.0590687 -1.09484e-19 0.0678451)
(0.0718257 -0.0278279 4.6397e-20 0.0564691 2.00572e-19 0.0641596)
(0.0692952 -0.0272339 -6.174e-20 0.0555493 -2.89276e-19 0.06241)
(0.0685616 -0.0271451 2.91339e-20 0.0555197 1.1658e-20 0.0620368)
(0.0694091 -0.027512 1.42314e-20 0.0562999 1.0082e-19 0.06284)
(0.0715095 -0.0283674 -2.9269e-19 0.0580682 -3.3772e-19 0.064775)
(0.0738925 -0.0294575 3.18838e-19 0.0604213 -7.96778e-19 0.0671393)
(0.0756264 -0.0305281 4.42619e-20 0.0629589 -4.27312e-19 0.069271)
(0.075718 -0.031298 -5.34216e-19 0.0653083 -4.2866e-19 0.0704938)
(0.073069 -0.0314184 5.31476e-20 0.0671902 -9.7004e-19 0.0701125)
(0.0668339 -0.0304761 8.46943e-19 0.0686821 -1.17978e-19 0.0677519)
(0.0572051 -0.0280078 3.37333e-19 0.0709655 1.42423e-18 0.0640999)
(0.0469587 -0.0234622 -4.11656e-19 0.0777891 -7.74357e-19 0.0624073)
(0.0429569 -0.0162429 -4.9203e-19 0.0968507 6.32429e-19 0.0699514)
(0.0519658 -0.00574208 -2.18185e-19 0.135618 -3.13383e-18 0.093874)
(0.0750535 0.0087294 7.58658e-19 0.195643 -1.94771e-18 0.13546)
(0.11086 0.0278311 6.13912e-19 0.275668 -1.77907e-18 0.193319)
(0.159097 0.0521875 -1.19242e-19 0.376317 -6.91178e-20 0.267903)
(0.2216 0.0838417 1.43709e-19 0.500018 1.43942e-18 0.361784)
(0.302195 0.12781 6.18718e-20 0.638483 -8.23504e-19 0.467486)
(0.385494 0.167158 -1.81046e-19 0.80933 7.36404e-19 0.605351)
(0.59106 0.285701 -5.4055e-19 1.05177 1.76033e-18 0.805992)
(0.505022 0.251557 -6.21616e-19 0.86988 -8.5752e-19 0.697884)
(0.00419156 -0.000349692 -1.25848e-22 0.00349526 -2.33129e-22 0.00384666)
(0.00384703 -0.000439612 2.89836e-22 0.00349949 3.51489e-22 0.00367335)
(0.00345885 -0.000439057 -1.38141e-21 0.00343587 -1.84083e-21 0.00344609)
(0.00352716 -0.000457388 -2.19341e-21 0.00382287 -2.75534e-21 0.00367262)
(0.00354255 -0.000403211 -7.56984e-22 0.00407342 -8.8456e-22 0.0038102)
(0.000707436 -1.9526e-05 2.03204e-22 0.000739021 2.81116e-22 0.000723295)
(3.10114e-05 -2.33317e-08 -4.37656e-25 3.08321e-05 -6.59893e-25 3.09165e-05)
(0.0596707 0.00240128 1.84329e-20 0.0250942 2.03083e-20 0.0422201)
(0.536041 0.00853117 2.36788e-19 0.203628 2.2803e-19 0.370768)
(1.56113 -0.0376423 -1.68026e-19 0.593563 3.8442e-19 1.08051)
(2.15841 -0.161015 -2.67025e-19 0.846069 6.39861e-19 1.49983)
(1.75257 -0.267542 2.66868e-19 0.754639 -1.05816e-18 1.26856)
(0.977181 -0.226567 4.3891e-19 0.494659 1.30817e-18 0.734634)
(0.53898 -0.149158 -7.78824e-19 0.308081 -2.90692e-19 0.41253)
(0.351992 -0.106174 3.27498e-19 0.213182 -1.33299e-18 0.280577)
(0.252048 -0.0809631 -2.19532e-19 0.160707 7.63079e-19 0.206965)
(0.191597 -0.0660042 1.32961e-19 0.130955 7.46561e-19 0.161693)
(0.154683 -0.0560448 1.5806e-19 0.111838 3.84547e-19 0.13348)
(0.13227 -0.0498645 -8.19311e-20 0.100426 3.39371e-19 0.11627)
(0.120099 -0.0465049 9.37042e-21 0.0943619 -9.81864e-19 0.107224)
(0.113458 -0.0448338 2.11238e-20 0.0916493 4.18894e-19 0.1025)
(0.110815 -0.0442343 -1.28833e-19 0.0907748 -8.0731e-21 0.100778)
(0.111067 -0.0444355 1.2097e-19 0.0912779 -4.72754e-19 0.101149)
(0.113485 -0.0454099 2.02015e-19 0.0932813 -6.9987e-20 0.103368)
(0.11662 -0.0467695 -1.77125e-19 0.0961668 1.02486e-18 0.106377)
(0.119114 -0.0481522 -3.21075e-19 0.0993639 -9.01641e-19 0.109219)
(0.119475 -0.0491342 4.10434e-19 0.102244 -5.39193e-19 0.11084)
(0.11598 -0.0491792 2.07779e-19 0.104176 1.63243e-18 0.110058)
(0.107028 -0.0476462 1.44487e-19 0.104798 1.79156e-18 0.105903)
(0.0920815 -0.0438517 -2.03836e-19 0.104865 -3.26635e-19 0.0984874)
(0.0734677 -0.0370055 -2.18313e-20 0.107957 -1.17906e-18 0.0907509)
(0.059983 -0.0262765 -4.02039e-19 0.123947 -3.56175e-19 0.0920172)
(0.0648606 -0.010853 -1.89872e-19 0.166894 1.47628e-18 0.115968)
(0.0926458 0.0102011 9.12077e-20 0.24179 2.26991e-18 0.167343)
(0.140301 0.0377892 1.31622e-18 0.345399 7.67204e-19 0.242901)
(0.205668 0.0726243 2.44569e-19 0.475857 -8.55156e-19 0.340996)
(0.290018 0.117028 -1.51794e-18 0.63409 -7.5992e-19 0.463021)
(0.398603 0.176745 -3.07301e-20 0.811812 -1.96046e-19 0.602292)
(0.505588 0.232554 5.12186e-21 1.00282 -1.88448e-18 0.761646)
(0.734084 0.357847 -1.34937e-19 1.29036 6.01775e-19 0.998464)
(0.707178 0.35582 4.13417e-19 1.14091 1.5665e-18 0.930211)
(0.0030691 -0.000244498 -2.59793e-23 0.00253959 -4.33885e-24 0.00280771)
(0.00290308 -0.000313407 -5.38401e-22 0.00258175 -7.29952e-22 0.00274184)
(0.00275186 -0.000343458 5.23894e-22 0.00264867 6.97423e-22 0.0026994)
(0.00254099 -0.000327119 2.38565e-21 0.00264479 3.18694e-21 0.00259098)
(0.00264642 -0.000335451 4.75166e-22 0.00297473 6.59596e-22 0.00280746)
(0.00271711 -0.000293814 4.07463e-22 0.00319473 2.22131e-22 0.00295651)
(0.000130043 -6.523e-07 -1.31858e-23 0.000131336 -1.45448e-23 0.000130697)
(1.46492e-06 -3.80146e-10 -8.30013e-28 1.46482e-06 -5.72447e-28 1.46486e-06)
(0.0177669 0.000213523 -9.34538e-21 0.00896076 -1.34604e-20 0.0132925)
(0.29094 0.00212152 1.70911e-19 0.110617 1.92617e-19 0.200729)
(1.13227 -0.0266638 -2.76549e-19 0.430461 -6.80389e-19 0.783575)
(2.11286 -0.13456 -1.03364e-19 0.820717 8.46544e-19 1.46603)
(2.23122 -0.273907 1.4591e-19 0.920977 -1.01844e-18 1.58181)
(1.55617 -0.313167 -3.54117e-19 0.733174 -3.86584e-19 1.15948)
(0.864886 -0.228847 9.2515e-19 0.476058 -2.70979e-19 0.661763)
(0.526589 -0.15762 3.8097e-19 0.319074 8.21391e-19 0.413811)
(0.36796 -0.117448 -3.41797e-19 0.233842 5.11532e-19 0.299853)
(0.280173 -0.0952974 -3.76137e-19 0.188865 4.32191e-19 0.235447)
(0.225658 -0.0815783 -6.02492e-19 0.162693 -3.55631e-20 0.194607)
(0.193677 -0.0733043 4.65988e-19 0.147656 -6.00273e-19 0.170876)
(0.17579 -0.0687584 1.94521e-19 0.140035 8.30815e-19 0.157806)
(0.168232 -0.0668924 -3.47236e-19 0.137072 -2.02358e-19 0.152582)
(0.166695 -0.0666135 1.20891e-19 0.136788 3.48507e-19 0.151659)
(0.169347 -0.0677041 9.14305e-20 0.139044 2.3135e-19 0.154135)
(0.173746 -0.0694907 1.72901e-20 0.14273 -3.72271e-19 0.158192)
(0.177791 -0.0714115 -2.33766e-20 0.146939 5.24385e-19 0.162329)
(0.17926 -0.0728246 3.35478e-19 0.150617 1.36625e-18 0.164919)
(0.175574 -0.0729367 3.05947e-19 0.152593 -5.42455e-19 0.164076)
(0.163996 -0.0707744 -4.53564e-19 0.151732 3.79665e-20 0.15787)
(0.142912 -0.0654139 -9.8476e-19 0.148017 -1.14177e-18 0.145495)
(0.113206 -0.05578 2.51052e-19 0.143847 7.63729e-20 0.128586)
(0.0834405 -0.0407558 5.6213e-19 0.149085 -1.04013e-18 0.116336)
(0.0750247 -0.0192951 6.24291e-19 0.186003 3.27005e-19 0.130627)
(0.103209 0.0097561 -4.12946e-19 0.27011 -1.83589e-19 0.186806)
(0.162859 0.0474775 -7.48705e-19 0.39552 1.49687e-18 0.279259)
(0.247221 0.0945359 -6.15495e-19 0.554674 -1.41216e-18 0.401229)
(0.355437 0.153112 9.23668e-19 0.744788 -1.96496e-19 0.550936)
(0.491735 0.227959 5.53331e-20 0.956112 3.47453e-19 0.721465)
(0.627631 0.301531 1.74609e-19 1.16768 -3.46358e-19 0.903385)
(0.860289 0.424884 -7.36264e-20 1.46781 -8.59583e-19 1.15448)
(0.904711 0.455542 -4.35256e-19 1.39236 5.4152e-19 1.14754)
(0.00227306 -0.000173487 -8.45906e-23 0.00186944 -2.74419e-23 0.00207359)
(0.00217874 -0.00022416 -4.50617e-22 0.00190597 -7.05124e-22 0.002042)
(0.00211342 -0.000253805 1.88753e-21 0.00197776 2.14618e-21 0.00204541)
(0.00202322 -0.000260835 -2.57361e-22 0.00203283 -3.17579e-22 0.00202809)
(0.00187501 -0.000236921 6.65192e-22 0.00201941 6.18418e-22 0.00194627)
(0.00204279 -0.000258223 -6.69746e-22 0.00237064 -6.12104e-22 0.00220395)
(0.00193809 -0.00018399 1.3723e-21 0.00229495 1.83456e-21 0.00211594)
(0.000269948 -2.99201e-06 3.07006e-23 0.000277014 2.58463e-23 0.000273516)
(0.00025274 -6.24806e-06 1.82245e-24 0.0002625 3.03879e-23 0.000257604)
(0.000601145 -3.74976e-06 2.65123e-22 0.000551782 2.35574e-22 0.000575907)
(0.112137 -0.00061891 -5.07876e-21 0.0429339 5.02822e-21 0.077316)
(0.657047 -0.0165831 -3.20137e-19 0.250096 -2.15644e-19 0.454055)
(1.68953 -0.0963886 1.99325e-19 0.65279 -3.93222e-19 1.17276)
(2.41089 -0.240054 -4.87472e-19 0.968586 9.19121e-19 1.6876)
(2.1736 -0.358146 -2.5479e-19 0.956344 -9.20679e-19 1.57887)
(1.41753 -0.337315 5.43884e-19 0.724819 7.37143e-19 1.08153)
(0.82086 -0.237686 3.34364e-19 0.483591 -1.53019e-18 0.640106)
(0.53667 -0.170969 1.68597e-19 0.342783 5.68222e-19 0.431868)
(0.397456 -0.133894 -7.26238e-19 0.265883 -1.11015e-18 0.331215)
(0.318699 -0.114246 2.91672e-19 0.227373 1.17607e-18 0.274189)
(0.272745 -0.103235 7.60425e-20 0.207876 -8.64259e-19 0.240787)
(0.250924 -0.0981032 -3.23356e-19 0.19964 4.23985e-19 0.22543)
(0.243258 -0.0964025 2.41647e-19 0.197291 4.83984e-21 0.220148)
(0.244552 -0.0972644 -4.05764e-20 0.199352 2.73821e-20 0.221799)
(0.25013 -0.0994578 -8.88369e-20 0.203813 7.27518e-19 0.226848)
(0.256234 -0.101965 1.07596e-19 0.209007 -1.72356e-19 0.232518)
(0.259677 -0.103885 -7.60192e-19 0.213398 7.99674e-21 0.236464)
(0.256955 -0.104177 -3.70661e-19 0.215261 1.8866e-19 0.236066)
(0.244054 -0.101534 -1.9318e-19 0.212592 -1.21244e-18 0.228324)
(0.217517 -0.0945831 9.45018e-19 0.203898 1.03034e-19 0.210771)
(0.175725 -0.0818728 1.60088e-19 0.189325 8.07823e-19 0.182649)
(0.123265 -0.0619449 2.86427e-19 0.174923 8.93871e-19 0.149241)
(0.0842967 -0.0335267 -5.94237e-19 0.185655 2.61127e-19 0.135152)
(0.0995765 0.00463096 4.81728e-19 0.262147 -1.16471e-18 0.181058)
(0.168823 0.0536075 2.80764e-19 0.402572 -1.40761e-19 0.28582)
(0.27321 0.113778 9.97319e-19 0.58582 3.19208e-19 0.429842)
(0.406087 0.186524 -1.41973e-18 0.80145 4.06078e-19 0.604394)
(0.567908 0.274276 -1.91265e-19 1.03652 1.44432e-19 0.800471)
(0.732565 0.362796 2.91709e-19 1.26421 4.51431e-19 1.0017)
(0.954797 0.478088 4.06036e-19 1.54617 2.81753e-20 1.2467)
(1.06042 0.532521 1.79786e-19 1.55942 -1.21845e-18 1.30107)
(0.00169171 -0.000124586 -3.3232e-22 0.00138484 -3.86765e-22 0.00153993)
(0.00163579 -0.000161397 1.344e-21 0.00141382 1.40256e-21 0.00152487)
(0.00160247 -0.000185523 -3.15584e-22 0.00146853 -2.72323e-22 0.00153552)
(0.0015706 -0.000198442 -2.47291e-21 0.00153237 -2.6065e-21 0.00155159)
(0.00150794 -0.000195009 -2.33508e-22 0.00156796 -3.1644e-22 0.00153807)
(0.00141488 -0.000174896 2.42384e-21 0.00156426 2.59065e-21 0.00148909)
(0.00153817 -0.000187682 -6.97993e-22 0.00182518 -9.15596e-22 0.00167972)
(0.00137817 -0.000115307 -4.74126e-21 0.00163922 -4.718e-21 0.00150768)
(0.000454139 -9.53346e-06 4.25288e-22 0.000480632 4.11622e-22 0.00046745)
(6.70229e-05 -2.76482e-07 8.14016e-25 6.77314e-05 -7.57434e-25 6.7381e-05)
(1.49608e-06 -4.34924e-10 -1.85161e-27 1.49552e-06 -3.04835e-27 1.49579e-06)
(0.0282686 -0.000880251 -9.99678e-21 0.0114782 -5.7022e-21 0.0197709)
(0.288774 -0.00900387 -1.9012e-19 0.110265 -1.25804e-19 0.199305)
(1.06656 -0.0574404 1.73165e-19 0.411275 -1.34416e-19 0.73982)
(2.10788 -0.180775 -6.34883e-19 0.834337 6.77804e-19 1.47069)
(2.54793 -0.335026 5.91526e-19 1.06604 -3.98886e-19 1.80716)
(2.1067 -0.418317 -4.97333e-19 0.987475 7.49689e-19 1.56528)
(1.357 -0.360231 -1.06441e-19 0.742785 -1.73015e-19 1.05632)
(0.825354 -0.256215 -2.38689e-19 0.515544 -3.53096e-19 0.657102)
(0.568799 -0.191706 2.8302e-19 0.383399 -1.02181e-18 0.468358)
(0.445255 -0.158528 4.46615e-19 0.31591 3.2208e-19 0.380252)
(0.383465 -0.143563 -2.37161e-19 0.288045 -9.82061e-19 0.337084)
(0.355573 -0.13743 -2.25455e-19 0.278382 4.41403e-19 0.317704)
(0.34809 -0.136601 6.93467e-19 0.278351 -5.7815e-19 0.313437)
(0.352042 -0.138782 -4.05603e-19 0.283414 5.05154e-20 0.317617)
(0.360875 -0.142253 -5.58537e-19 0.290547 -3.66788e-19 0.325476)
(0.368638 -0.145305 9.94019e-19 0.296764 -1.40353e-18 0.332488)
(0.36925 -0.146113 -2.51714e-20 0.298827 1.06053e-18 0.333895)
(0.357062 -0.142961 1.94392e-21 0.293754 -6.2597e-20 0.325343)
(0.32733 -0.134286 -6.00253e-19 0.27905 1.04662e-18 0.303207)
(0.275955 -0.118355 6.35692e-20 0.252557 -6.29628e-19 0.264365)
(0.201211 -0.093262 -1.44151e-20 0.214148 3.14948e-19 0.207883)
(0.113996 -0.0574711 -6.73372e-19 0.175493 -5.71028e-19 0.145047)
(0.075977 -0.00979919 3.65351e-19 0.197653 1.68974e-18 0.137192)
(0.144533 0.0505562 -5.05904e-19 0.335572 2.62974e-19 0.240389)
(0.269781 0.123304 -4.86884e-19 0.535511 7.02679e-21 0.403149)
(0.427315 0.208285 6.62427e-19 0.767609 -1.8013e-18 0.598061)
(0.611304 0.305078 -3.65779e-20 1.01416 7.23143e-19 0.811714)
(0.797861 0.401769 -1.53412e-19 1.24761 -9.20898e-19 1.02401)
(1.00133 0.504697 -1.29557e-18 1.49651 -7.30029e-19 1.24988)
(1.14119 0.569143 -4.1916e-19 1.57883 -1.47317e-19 1.34609)
(0.0012638 -9.04925e-05 -2.94369e-22 0.00103106 -2.3805e-22 0.00114855)
(0.00122918 -0.000117173 -1.22979e-21 0.00105307 -1.10558e-21 0.00114129)
(0.00121142 -0.000135702 -6.66334e-23 0.00109322 -1.87664e-22 0.00115236)
(0.00119756 -0.000147674 -2.00093e-22 0.00114241 -1.71008e-22 0.00117005)
(0.00118017 -0.000152399 1.75481e-21 0.00119219 1.72479e-21 0.00118623)
(0.00113568 -0.000145029 9.37823e-22 0.0012135 7.67459e-22 0.00117467)
(0.00108772 -0.000131922 -1.30053e-21 0.00122797 -1.24196e-21 0.00115768)
(0.00112895 -0.000128446 -9.73783e-22 0.00135435 -3.77641e-22 0.00124062)
(0.00110408 -9.39602e-05 -6.15427e-22 0.00134799 -6.21384e-22 0.00122478)
(0.000551884 -1.6599e-05 -8.52784e-22 0.000606059 -8.40864e-22 0.000578942)
(4.3435e-05 -9.80994e-08 -1.48219e-24 4.37649e-05 -1.02523e-24 4.36015e-05)
(0.000273484 -1.07656e-05 -3.55368e-23 0.000293439 -1.65482e-23 0.000283536)
(0.000347075 -5.25885e-06 2.21014e-22 0.000320573 2.16035e-22 0.000333596)
(0.0802603 -0.00377811 -2.83426e-19 0.0310191 -2.34283e-19 0.0554642)
(0.495978 -0.0274574 7.37574e-19 0.191558 6.37604e-19 0.343659)
(1.40863 -0.110403 -3.39517e-19 0.553513 -4.09958e-19 0.981767)
(2.37013 -0.26128 1.4806e-18 0.964262 9.1117e-19 1.66511)
(2.61571 -0.413347 6.17046e-19 1.14036 7.58324e-19 1.88124)
(2.09282 -0.468958 -1.81891e-18 1.03567 -2.6039e-19 1.58419)
(1.37371 -0.393644 5.86057e-19 0.794659 -1.1751e-18 1.0895)
(0.87574 -0.288975 2.84936e-19 0.578758 1.40831e-18 0.713421)
(0.64222 -0.228303 -6.25954e-20 0.458611 -7.91828e-19 0.540867)
(0.547205 -0.201795 5.73457e-19 0.404669 6.16664e-19 0.47488)
(0.507772 -0.19224 -3.40699e-19 0.386696 -6.7312e-19 0.449242)
(0.495681 -0.19103 3.89109e-19 0.386383 4.85123e-20 0.442596)
(0.499551 -0.194005 -5.48769e-19 0.393756 8.44483e-19 0.447282)
(0.509725 -0.198051 1.06096e-19 0.402286 7.17022e-19 0.456037)
(0.516857 -0.200339 -1.83099e-19 0.406728 -1.86313e-18 0.461537)