/*--------------------------------*- C++ -*----------------------------------*\
| =========                 |                                                 |
| \\      /  F ield         | OpenFOAM: The Open Source CFD Toolbox           |
|  \\    /   O peration     | Version:  2312                                  |
|   \\  /    A nd           | Website:  www.openfoam.com                      |
|    \\/     M anipulation  |                                                 |
\*---------------------------------------------------------------------------*/
FoamFile
{
    version     2.0;
    format      ascii;
    arch        "LSB;label=32;scalar=64";
    class       volScalarField;
    location    "600";
    object      turbulenceProperties:I;
}
// * * * * * * * * * * * * * * * * * * * * * * * * * * * * * * * * * * * * * //

dimensions      [0 0 0 0 0 0 0];

internalField   nonuniform List<scalar> 
11040
(
0.0591432
0.0926266
1
0.0969904
0.272066
0.288271
0.290447
0.291893
0.288694
0.287542
0.28507
0.282937
0.280414
0.278468
0.276409
0.275438
0.275866
0.277386
0.279171
0.280935
0.282641
0.28425
0.285068
0.28459
0.283168
0.282111
0.281768
0.281467
0.281565
0.282591
0.285311
0.290564
0.298945
0.316177
0.347632
0.362389
0.3624
0.521353
1
0.413936
0.716167
0.0186446
0.0240208
0.0672923
0.359037
0.599414
0.313929
0.167749
0.0996776
0.0519721
0.0453493
0.0710443
0.0831703
0.0906683
0.0958948
0.0991343
0.10169
0.104285
0.106871
0.108734
0.109727
0.109943
0.109589
0.107808
0.104025
0.0986399
0.0932498
0.0883893
0.0830397
0.0773013
0.0718326
0.0682895
0.0690714
0.0735857
0.0858593
0.109706
0.152774
0.242331
0.502688
1
0.440428
0.743887
0.0161811
0.0126854
0.0185552
0.0537315
0.316537
1
0.605234
0.32401
0.21579
0.163839
0.120969
0.0903078
0.060911
0.0275925
0.0386595
0.0540566
0.0622612
0.0669025
0.069353
0.0700659
0.0694622
0.0678134
0.0645436
0.0595328
0.0533782
0.0467877
0.0398185
0.0311893
0.0158159
0.0284822
0.0486944
0.0697404
0.0944727
0.126017
0.170346
0.240958
0.376636
0.729232
1
0.791522
0.610028
0.0142946
0.0115916
0.00929144
0.0116555
0.056301
0.246903
1
1
0.524896
0.350368
0.254574
0.202124
0.165202
0.136309
0.115026
0.0976304
0.0850974
0.0758795
0.0699393
0.066925
0.0657095
0.0660293
0.067826
0.0703816
0.0725723
0.0738028
0.0738494
0.0727101
0.070943
0.0711476
0.0787914
0.0971928
0.125585
0.165404
0.222591
0.312713
0.478831
0.860718
1
1
0.616708
0.0128653
0.010924
0.0101687
0.00653776
0.00755101
0.0490902
0.186424
0.771282
1
0.923032
0.53203
0.373879
0.292722
0.238241
0.203265
0.176422
0.157942
0.144085
0.134277
0.127598
0.122769
0.119366
0.117406
0.116574
0.115955
0.114983
0.11336
0.11094
0.108
0.106106
0.109689
0.125398
0.156376
0.203412
0.271538
0.376231
0.558125
0.920903
1
1
0.728141
0.0112982
0.00976503
0.00888058
0.00859708
0.00439729
0.00366874
0.0374032
0.134278
0.425337
1
1
0.849707
0.55644
0.409804
0.330524
0.277106
0.242776
0.218335
0.201061
0.18913
0.180157
0.173248
0.16814
0.164553
0.161587
0.158653
0.155312
0.151205
0.14628
0.141504
0.140711
0.152618
0.184824
0.238146
0.315481
0.429907
0.613967
0.928426
1
1
0.881678
0.00976895
0.00876764
0.00787477
0.00762307
0.00724684
0.00294548
0.00059484
0.023999
0.0919769
0.263498
0.820122
1
1
0.855893
0.589908
0.454561
0.374814
0.322933
0.288381
0.265704
0.2495
0.237565
0.228609
0.221947
0.216351
0.211076
0.205516
0.199082
0.191349
0.182654
0.175763
0.180178
0.209788
0.26744
0.351744
0.470481
0.644443
0.89831
1
1
1
0.00840727
0.00774651
0.00720459
0.00665523
0.00657444
0.0063772
0.00126109
0.000128757
0.0127893
0.0587073
0.164997
0.423738
1
1
1
0.903485
0.642638
0.509978
0.429732
0.379265
0.346038
0.324142
0.308469
0.296993
0.287528
0.27888
0.27014
0.26042
0.248803
0.234931
0.219844
0.211131
0.229665
0.287505
0.376306
0.494332
0.649565
0.843804
1
1
1
0.00722398
0.00676546
0.00641609
0.00606856
0.00566805
0.00577789
0.0054085
0.00184424
0.00171324
0.0025723
0.0328027
0.0999935
0.245007
0.595695
1
1
1
0.990717
0.7218
0.584736
0.504411
0.456758
0.425882
0.40459
0.387916
0.373187
0.358932
0.343939
0.326832
0.306262
0.281169
0.253864
0.244742
0.291473
0.382841
0.49754
0.630907
0.774537
0.893706
1
0.985949
0.00619126
0.00587155
0.00563442
0.00542526
0.00517936
0.00489879
0.00501954
0.00458298
0.00244171
0.000886182
0.000129312
0.015494
0.0563737
0.142931
0.320579
0.739722
1
1
1
1
0.846461
0.705384
0.626559
0.577622
0.543427
0.516537
0.492569
0.468509
0.442254
0.41193
0.374861
0.327462
0.272415
0.266732
0.35891
0.474763
0.590378
0.696414
0.776117
0.843087
0.861853
0.00529904
0.0050739
0.00491236
0.00477563
0.00464143
0.00446049
0.00428313
0.00430081
0.00414681
0.00275188
0.000724803
0.00178667
0.00193961
0.026772
0.0786045
0.179167
0.375889
0.813463
1
1
1
1
1
0.929682
0.830828
0.76442
0.714144
0.670896
0.629158
0.584434
0.53186
0.465219
0.374966
0.244215
0.261596
0.412984
0.527176
0.61168
0.665517
0.701365
0.719667
0.00453026
0.00437105
0.00425663
0.00416999
0.00408714
0.0039981
0.00387525
0.00374617
0.00371344
0.00367708
0.00300371
0.000508497
0.000434027
0.00327266
0.00940628
0.0379888
0.0958411
0.20228
0.400234
0.805385
1
1
1
1
1
1
1
1
0.98055
0.901268
0.820447
0.729099
0.618751
0.479634
0.309255
0.32779
0.45249
0.529143
0.566409
0.579654
0.583957
0.00386969
0.00375717
0.00367471
0.00361804
0.00357095
0.00352132
0.00346387
0.00338494
0.00329075
0.00323441
0.00325799
0.00296418
0.0013226
0.000414038
0.00112074
0.00480407
0.0135977
0.0453025
0.104555
0.208624
0.392284
0.720452
1
1
1
1
1
1
1
1
1
1
1
0.974781
0.786487
0.640295
0.569434
0.551172
0.539031
0.516784
0.49021
0.00330277
0.00322359
0.00316322
0.00312553
0.00310024
0.00307655
0.00304887
0.00301472
0.00296674
0.00290157
0.00284442
0.00287209
0.00276586
0.00199395
0.000148943
0.000140523
0.00174639
0.00594008
0.0153658
0.0469585
0.103536
0.194024
0.331006
0.537623
0.834817
1
1
1
1
1
1
1
1
1
1
1
1
0.930649
0.781517
0.675325
0.580101
0.00281615
0.00276093
0.00271642
0.00269128
0.00267902
0.00267104
0.00266235
0.00265019
0.00263273
0.00260661
0.00256472
0.00252235
0.00252621
0.00249393
0.00228936
0.00111389
0.000383836
5.06876e-05
0.00256839
0.00285302
0.0158073
0.0418285
0.084424
0.146641
0.233637
0.352506
0.510491
0.707922
0.933477
1
1
1
1
1
1
1
1
1
1
1
1
0.00239848
0.00236025
0.00232732
0.00231058
0.00230616
0.00230714
0.00230937
0.00231081
0.00230953
0.0023039
0.00229247
0.00226954
0.00224372
0.0022229
0.00224566
0.00213611
0.00184067
0.000497711
0.000236254
0.000435538
0.00254197
0.00492615
0.00933185
0.0262172
0.0526013
0.0899901
0.140023
0.20477
0.286597
0.387571
0.508091
0.646696
0.802731
0.981563
1
1
1
1
1
1
1
0.00204289
0.00201654
0.00199227
0.00198135
0.00198155
0.00198721
0.00199521
0.0020038
0.00201161
0.00201712
0.00201933
0.00201719
0.00200906
0.00199324
0.00198191
0.0019828
0.00199201
0.00185683
0.00143612
0.000428664
0.000124864
1.09167e-05
0.00142939
0.00342318
0.000457635
0.00885967
0.0221296
0.0412804
0.0670624
0.100123
0.141196
0.191053
0.250476
0.320422
0.401897
0.495953
0.60484
0.73416
0.8932
1
1
0.001751
0.00173287
0.00171516
0.00170855
0.00171168
0.00171993
0.0017308
0.00174301
0.00175532
0.00176664
0.00177595
0.00178262
0.00178617
0.00178594
0.00177992
0.00177292
0.00176956
0.00178653
0.00177321
0.00160742
0.00114133
0.000111664
0.000139579
2.81106e-05
5.24016e-05
0.00130344
0.00308869
0.00401032
0.00353994
0.00999253
0.0207462
0.0355186
0.0545338
0.0781465
0.106695
0.140381
0.179473
0.224741
0.276732
0.336845
0.404604
0.00151744
0.00150498
0.00149201
0.00148844
0.00149333
0.00150289
0.00151515
0.00152917
0.00154393
0.0015584
0.00157176
0.00158331
0.00159259
0.00159945
0.00160334
0.00160422
0.0016008
0.00160061
0.00160542
0.0016231
0.00159766
0.00144406
0.00115034
0.000286888
0.000168348
8.83488e-05
1.49817e-05
0
0.000458659
0.0015783
0.00296427
0.00330068
0.00366705
0.00390537
0.0102993
0.0191849
0.030774
0.0451814
0.0624717
0.0828934
0.106362
0.00132889
0.00132023
0.00131064
0.00130909
0.0013149
0.0013249
0.00133751
0.00135199
0.00136754
0.00138328
0.00139856
0.00141282
0.00142557
0.00143646
0.00144527
0.00145196
0.00145619
0.00145791
0.00145777
0.00146122
0.00147199
0.00147822
0.00146486
0.00135805
0.00116869
0.000904632
0.000162131
0.000130011
7.97281e-05
5.12657e-05
0
0
0
0.000517798
0.0016891
0.00280136
0.00314978
0.00232315
0.000715092
0.00422181
0.00913765
0.00117296
0.0011669
0.0011598
0.00115965
0.0011659
0.0011759
0.00118837
0.00120268
0.00121817
0.0012341
0.00124992
0.0012652
0.00127954
0.0012926
0.00130413
0.00131398
0.00132211
0.00132844
0.00133286
0.00133547
0.00133781
0.00134444
0.00135367
0.00136831
0.00135966
0.00133359
0.00124208
0.00108274
0.000876554
0.000583485
0.000204225
8.38913e-05
7.08656e-05
5.44118e-05
3.62018e-05
9.50941e-07
0
0
9.33827e-05
0.000545648
0.00134083
0.00104186
0.00103764
0.00103246
0.0010333
0.0010397
0.00104947
0.00106152
0.00107533
0.00109033
0.00110589
0.00112153
0.0011369
0.00115167
0.00116554
0.0011783
0.00118978
0.00119987
0.00120853
0.00121581
0.00122174
0.00122587
0.00122923
0.00123268
0.00123957
0.00124916
0.00125817
0.00127056
0.00126664
0.00124407
0.00120279
0.00112125
0.00100506
0.000863288
0.000678721
0.000467129
1.28157e-05
7.26056e-05
6.24778e-05
5.32932e-05
4.36911e-05
3.26352e-05
0.000930082
0.000927182
0.000923485
0.00092502
0.000931404
0.000940791
0.000952285
0.000965414
0.00097968
0.000994558
0.00100961
0.00102456
0.00103912
0.00105303
0.00106608
0.00107814
0.00108909
0.00109885
0.0011074
0.00111485
0.00112091
0.00112575
0.00112979
0.00113304
0.00113661
0.00114068
0.00114719
0.00115567
0.0011642
0.00117146
0.00117773
0.00117372
0.00115976
0.00113401
0.00110014
0.0010408
0.000962155
0.000866554
0.000756342
0.000635124
0.00048983
0.000833715
0.000831781
0.000829256
0.000831283
0.000837535
0.000846475
0.000857337
0.000869704
0.000883126
0.00089716
0.000911416
0.000925645
0.000939607
0.000953076
0.000965868
0.000977851
0.000988912
0.000998973
0.00100798
0.00101599
0.00102274
0.00102838
0.00103329
0.00103722
0.00104033
0.00104285
0.00104499
0.00104723
0.00104999
0.00105338
0.00105782
0.00106284
0.00106761
0.00107155
0.00107386
0.00107685
0.00107465
0.00106668
0.00105353
0.00103463
0.00101334
0.00074986
0.000748638
0.000747048
0.000749419
0.000755471
0.000763927
0.000774133
0.000785703
0.000798237
0.00081135
0.000824695
0.000838047
0.000851211
0.000863976
0.00087618
0.000887699
0.000898429
0.000908284
0.000917209
0.00092522
0.000932057
0.000937829
0.00094286
0.000946966
0.00095023
0.000952786
0.00095468
0.000955951
0.000956699
0.000957042
0.000957099
0.000957052
0.000956998
0.000957069
0.000957156
0.000957536
0.000958021
0.000958394
0.000958596
0.000957665
0.000957496
0.000676325
0.000675636
0.000674799
0.000677406
0.000683224
0.00069119
0.000700742
0.00071152
0.000723167
0.000735339
0.000747736
0.000760147
0.000772409
0.000784324
0.000795755
0.000806583
0.000816716
0.000826064
0.00083457
0.00084223
0.000848797
0.000854353
0.000859183
0.000863097
0.000866175
0.00086853
0.000870234
0.000871319
0.000871817
0.000871762
0.000871186
0.000870131
0.000868618
0.000866717
0.000864497
0.000861964
0.000859167
0.000856184
0.00085331
0.000849926
0.000847517
0.000611415
0.000611132
0.000610907
0.000613675
0.000619244
0.000626733
0.000635651
0.000645661
0.000656445
0.000667691
0.000679143
0.000690601
0.00070192
0.000712928
0.000723497
0.000733522
0.000742917
0.000751595
0.000759497
0.000766611
0.000772702
0.000777847
0.000782304
0.000785885
0.00078865
0.000790705
0.000792114
0.000792918
0.000793158
0.000792876
0.00079211
0.0007909
0.000789255
0.000787219
0.000784843
0.000782133
0.000779085
0.000775707
0.000772321
0.000768168
0.000765448
0.000553796
0.000553831
0.000554106
0.000556986
0.000562307
0.000569343
0.000577659
0.000586943
0.000596902
0.000607263
0.000617796
0.00062832
0.000638701
0.000648795
0.000658476
0.000667655
0.000676251
0.000684185
0.000691395
0.000697868
0.000703385
0.000708026
0.000712024
0.000715206
0.000717614
0.000719349
0.000720471
0.000721018
0.000721031
0.000720557
0.000719634
0.000718307
0.000716594
0.000714544
0.000712206
0.000709599
0.000706717
0.000703556
0.000700466
0.000696539
0.000694523
0.000502404
0.000502691
0.000503386
0.000506346
0.00051143
0.000518045
0.000525798
0.000534403
0.000543588
0.000553114
0.000562772
0.000572401
0.000581877
0.000591082
0.000599887
0.000608221
0.000616008
0.000623179
0.000629672
0.000635474
0.000640385
0.00064449
0.000648007
0.000650772
0.00065282
0.000654244
0.000655101
0.00065543
0.00065527
0.000654665
0.000653655
0.000652284
0.000650572
0.000648564
0.000646314
0.000643839
0.000641134
0.000638186
0.000635376
0.000631677
0.000630298
0.000456372
0.000456869
0.000457923
0.000460944
0.00046581
0.00047204
0.000479276
0.000487252
0.00049572
0.000504468
0.000513308
0.000522097
0.00053072
0.000539073
0.000547042
0.00055456
0.000561564
0.000567989
0.00057378
0.000578922
0.000583238
0.000586817
0.000589865
0.000592229
0.000593938
0.000595081
0.000595712
0.000595866
0.000595582
0.000594902
0.000593865
0.000592514
0.000590866
0.000588965
0.000586861
0.000584574
0.000582093
0.000579399
0.000576893
0.000573443
0.000572712
0.000414988
0.000415673
0.000417042
0.000420112
0.000424787
0.000430669
0.000437435
0.000444834
0.000452644
0.000460674
0.000468758
0.000476766
0.000484595
0.000492152
0.00049934
0.000506091
0.000512357
0.000518077
0.000523205
0.000527723
0.000531483
0.000534569
0.000537183
0.000539178
0.000540582
0.00054148
0.000541922
0.000541943
0.000541576
0.000540864
0.000539841
0.000538549
0.000537002
0.000535242
0.000533314
0.000531238
0.000529005
0.000526585
0.000524392
0.000521203
0.000521114
0.000377664
0.000378528
0.00038018
0.000383297
0.000387806
0.000393377
0.000399719
0.000406595
0.000413808
0.000421182
0.000428574
0.000435863
0.000442961
0.000449782
0.000456249
0.000462292
0.000467876
0.000472947
0.000477466
0.000481415
0.00048467
0.000487315
0.000489542
0.000491216
0.000492362
0.000493057
0.000493351
0.000493276
0.000492865
0.000492154
0.000491177
0.00048997
0.000488549
0.00048695
0.000485215
0.000483362
0.000481381
0.000479235
0.000477345
0.000474413
0.000474909
0.000343908
0.000344952
0.000346861
0.000350029
0.000354397
0.000359695
0.000365659
0.000372067
0.00037874
0.000385522
0.000392285
0.000398922
0.000405351
0.000411503
0.000417311
0.00042271
0.000427671
0.00043215
0.000436115
0.00043955
0.000442352
0.000444605
0.00044649
0.000447882
0.000448805
0.000449332
0.000449511
0.00044937
0.00044894
0.000448253
0.000447341
0.000446237
0.000444954
0.000443522
0.000441982
0.000440348
0.000438611
0.000436725
0.000435115
0.000432432
0.000433444
0.000313305
0.000314536
0.000316685
0.00031991
0.00032416
0.000329225
0.000334856
0.000340849
0.000347039
0.000353292
0.000359488
0.000365538
0.000371365
0.000376915
0.000382128
0.000386948
0.00039135
0.000395302
0.000398777
0.000401765
0.000404176
0.000406096
0.000407695
0.000408858
0.000409606
0.00041001
0.000410112
0.000409939
0.000409517
0.000408879
0.000408051
0.000407062
0.000405923
0.000404662
0.000403313
0.000401889
0.000400379
0.000398738
0.000397375
0.000394934
0.000396349
0.000285504
0.000286933
0.000289308
0.000292595
0.000296758
0.000301624
0.000306966
0.000312594
0.000318359
0.00032414
0.000329832
0.000335357
0.000340646
0.000345655
0.000350335
0.000354637
0.00035854
0.000362022
0.000365059
0.000367646
0.000369713
0.000371339
0.000372687
0.000373649
0.000374245
0.000374541
0.000374581
0.000374386
0.00037398
0.000373391
0.000372644
0.000371766
0.000370764
0.000369661
0.000368489
0.000367258
0.000365958
0.00036454
0.000363398
0.000361185
0.000362925
0.000260204
0.000261843
0.000264436
0.000267793
0.000271893
0.000276596
0.000281692
0.000287003
0.000292395
0.00029776
0.000303008
0.000308066
0.00031288
0.00031741
0.000321618
0.000325467
0.000328937
0.000332013
0.000334682
0.000336939
0.000338729
0.000340126
0.000341284
0.000342102
0.0003426
0.000342841
0.00034286
0.000342678
0.000342318
0.000341802
0.000341154
0.000340394
0.00033953
0.00033858
0.000337572
0.000336515
0.000335399
0.000334175
0.000333209
0.000331224
0.000333113
0.000237149
0.000239011
0.000241812
0.000245252
0.000249313
0.000253885
0.000258772
0.000263811
0.000268879
0.000273881
0.000278737
0.000283384
0.000287777
0.000291881
0.00029567
0.000299113
0.000302193
0.000304902
0.00030723
0.000309179
0.000310706
0.000311881
0.000312849
0.000313519
0.000313908
0.000314076
0.000314058
0.000313872
0.000313537
0.000313072
0.000312499
0.000311834
0.000311085
0.000310266
0.0003094
0.000308494
0.000307538
0.000306486
0.000305673
0.000303895
0.000305898
0.000216121
0.000218218
0.000221222
0.000224751
0.000228798
0.000233268
0.000237981
0.000242786
0.000247572
0.000252255
0.000256767
0.000261056
0.000265083
0.000268821
0.000272256
0.000275364
0.000278133
0.000280559
0.000282642
0.000284383
0.000285753
0.000286806
0.000287683
0.000288295
0.00028866
0.000288832
0.000288841
0.000288702
0.000288433
0.000288051
0.000287573
0.000287015
0.000286382
0.000285688
0.00028495
0.000284175
0.000283353
0.000282446
0.000281737
0.000280187
0.000282025
0.000196934
0.000199275
0.000202473
0.000206107
0.00021016
0.00021455
0.000219116
0.000223715
0.000228253
0.000232656
0.000236865
0.000240834
0.000244533
0.000247936
0.000251037
0.00025382
0.000256271
0.000258394
0.000260192
0.000261671
0.000262812
0.000263672
0.00026438
0.000264858
0.000265122
0.000265222
0.000265189
0.000265036
0.000264777
0.000264427
0.000264002
0.000263513
0.000262965
0.000262367
0.000261733
0.000261067
0.000260361
0.000259581
0.000258973
0.00025759
0.000259427
0.000179422
0.000182012
0.0001854
0.000189143
0.000193218
0.000197548
0.000201984
0.000206399
0.000210712
0.000214864
0.000218806
0.000222504
0.000225934
0.000229083
0.000231952
0.000234535
0.000236819
0.00023881
0.00024051
0.000241927
0.000243047
0.000243903
0.000244624
0.000245132
0.000245445
0.000245606
0.000245642
0.000245565
0.000245387
0.000245122
0.000244784
0.000244384
0.000243927
0.000243419
0.000242875
0.000242299
0.00024168
0.000241
0.000240429
0.00023932
0.000240581
0.000163437
0.000166295
0.000169875
0.00017373
0.000177819
0.000182081
0.00018639
0.000190635
0.000194744
0.000198666
0.000202364
0.000205808
0.000208975
0.000211839
0.000214394
0.000216641
0.000218585
0.000220241
0.000221625
0.000222749
0.000223608
0.000224247
0.000224779
0.000225136
0.000225332
0.000225409
0.000225389
0.000225283
0.0002251
0.000224852
0.000224546
0.000224193
0.000223793
0.000223352
0.000222879
0.000222373
0.00022183
0.000221228
0.000220721
0.000219672
0.000221041
0.000148897
0.000152044
0.000155831
0.000159797
0.000163878
0.000168033
0.000172175
0.000176231
0.000180149
0.000183877
0.000187375
0.000190623
0.000193628
0.000196411
0.000198987
0.000201328
0.000203402
0.000205198
0.000206725
0.000207999
0.000209016
0.000209789
0.00021044
0.000210907
0.000211207
0.00021138
0.000211448
0.000211422
0.000211312
0.000211131
0.000210888
0.000210595
0.000210253
0.00020987
0.000209455
0.000209013
0.000208529
0.000208015
0.000207496
0.000206877
0.000207037
0.000135825
0.000139225
0.000143171
0.000147217
0.000151267
0.000155288
0.000159225
0.000163041
0.00016672
0.000170242
0.000173567
0.000176629
0.000179353
0.000181681
0.000183627
0.000185284
0.000186735
0.000188003
0.000189092
0.000189991
0.000190697
0.000191249
0.000191725
0.000192066
0.000192281
0.000192402
0.000192447
0.000192423
0.000192335
0.00019219
0.000191994
0.000191752
0.000191465
0.000191134
0.000190763
0.000190348
0.000189891
0.000189375
0.000188892
0.000188019
0.00018895
0.000124153
0.000127709
0.000131659
0.00013562
0.000139534
0.000143408
0.000147195
0.000150833
0.00015428
0.000157534
0.000160633
0.000163649
0.000166645
0.000169646
0.00017257
0.000175203
0.000177408
0.000179225
0.000180719
0.000181951
0.000182929
0.00018365
0.000184241
0.000184661
0.000184931
0.000185085
0.000185145
0.000185121
0.000185026
0.000184872
0.000184668
0.000184424
0.000184146
0.000183837
0.000183507
0.000183164
0.000182785
0.000182424
0.000181922
0.000181928
0.000180409
0.000113478
0.000117268
0.000121174
0.000124871
0.000128398
0.000131892
0.000135412
0.000138945
0.000142411
0.000145671
0.000148551
0.000150895
0.000152637
0.000153819
0.000154668
0.000155612
0.000156825
0.000158119
0.000159359
0.000160469
0.000161437
0.000162292
0.000163059
0.000163693
0.000164198
0.000164596
0.000164903
0.000165123
0.00016526
0.00016532
0.000165308
0.000165224
0.000165071
0.000164849
0.000164558
0.000164191
0.00016376
0.000163232
0.000162725
0.000161668
0.000162772
0.000103649
0.000108143
0.000112438
0.000116123
0.00011925
0.000122052
0.000124723
0.000127428
0.000130319
0.000133531
0.000137151
0.00014119
0.000145544
0.000150021
0.000154267
0.000157619
0.000159929
0.000161669
0.000163038
0.000164131
0.000164939
0.000165487
0.000165882
0.000166112
0.000166203
0.000166189
0.000166091
0.000165924
0.000165704
0.000165443
0.000165156
0.000164854
0.000164543
0.000164231
0.000163927
0.000163647
0.000163351
0.000163157
0.000162659
0.00016352
0.000159572
9.59229e-05
0.000100715
0.000105217
0.000109199
0.000112621
0.000115525
0.0001179
0.000119734
0.000121062
0.00012197
0.000122576
0.000123006
0.000123386
0.000123737
0.000124163
0.000125391
0.000127429
0.000129636
0.000131807
0.000133825
0.00013567
0.000137347
0.000138878
0.00014025
0.000141456
0.000142508
0.000143415
0.00014418
0.000144805
0.000145291
0.000145637
0.000145841
0.000145903
0.000145817
0.000145581
0.00014518
0.00014464
0.000143869
0.000143143
0.000141204
0.000143002
9.98394e-05
0.000105828
0.000108896
0.000109471
0.000108744
0.000108291
0.00010949
0.000112868
0.000117962
0.000123853
0.000129713
0.00013502
0.000139507
0.000143158
0.000145951
0.000147316
0.000147437
0.000146996
0.000146304
0.000145478
0.000144466
0.000143548
0.000142535
0.000141487
0.000140432
0.000139375
0.000138318
0.000137261
0.000136204
0.00013514
0.000134063
0.000132962
0.000131819
0.000130617
0.000129346
0.00012801
0.000126514
0.00012501
0.000122852
0.000122687
0.000114113
0.442918
0.351729
0.300249
0.249171
0.194733
0.139781
0.0877133
0.0434703
0.0204724
0.00679824
0.00407459
0.000174702
0.00108288
0.00185505
0.00174338
0.00146471
0.00134102
0.00127735
0.00118708
0.00110176
0.00101685
0.000944454
0.000875487
0.000810809
0.000750497
0.000692737
0.000640248
0.000588357
0.000539982
0.000491367
0.000447713
0.000401133
0.000358596
0.000314229
0.000268768
0.000223806
0.000174639
0.000121886
9.11871e-05
0.000127118
0.000157996
0.000179132
0.0001941
0.000202734
0.000208565
0.000210041
0.000208779
0.000205977
0.000201066
0.000194082
0.000186675
0.000177665
0.000168458
0.00015863
0.000148156
0.000138221
0.000127605
0.000117369
0.000106884
9.68896e-05
8.67205e-05
7.7143e-05
6.76456e-05
5.84146e-05
4.9429e-05
4.08192e-05
3.22758e-05
2.48404e-05
1.55921e-05
2.17481e-05
1.71764e-05
3.51974e-05
3.49745e-05
5.40003e-05
0.719039
0.525567
0.413464
0.332402
0.262438
0.198187
0.139339
0.0872377
0.0452856
0.0221434
0.00920846
0.00586675
0.000275671
0.00042658
0.00160697
0.00168291
0.00142079
0.00124765
0.0011681
0.0011053
0.00102511
0.000949951
0.000880668
0.000816257
0.00075607
0.000697905
0.000645108
0.000592978
0.000544321
0.000495344
0.000451426
0.000405276
0.000362474
0.000319087
0.00027434
0.000230503
0.000183126
0.000131069
7.35565e-05
0.00010314
0.000139833
0.000162995
0.000179675
0.000188893
0.000195476
0.000197778
0.000196778
0.000194515
0.00019057
0.000184004
0.000177262
0.000168966
0.000160438
0.000151344
0.000141399
0.000132177
0.000122305
0.000112696
0.000102849
9.35023e-05
8.3967e-05
7.50092e-05
6.62271e-05
5.76822e-05
4.94342e-05
4.17702e-05
3.42138e-05
2.76882e-05
2.03265e-05
2.20913e-05
1.41114e-05
3.43788e-05
3.50171e-05
5.34152e-05
0.915404
0.69981
0.540265
0.42761
0.338788
0.262849
0.195946
0.137381
0.0876731
0.049149
0.0258499
0.0125387
0.00762278
0.00114177
0.000419203
0.000886834
0.00148354
0.00139683
0.00118817
0.00107979
0.00101928
0.000954959
0.000885712
0.000819985
0.000760027
0.000702986
0.000649014
0.00059722
0.000548546
0.000500367
0.000454937
0.000410058
0.000366329
0.000324006
0.000280797
0.000237962
0.000193292
0.00014472
8.38382e-05
6.60605e-05
0.000116936
0.000144263
0.00016242
0.000173367
0.000180188
0.000183789
0.000183644
0.00018151
0.000178599
0.000172966
0.000166818
0.000159477
0.000151742
0.000143569
0.000134459
0.000125773
0.000116944
0.000107997
9.9025e-05
9.03641e-05
8.16691e-05
7.33855e-05
6.5479e-05
5.77583e-05
5.03945e-05
4.371e-05
3.73133e-05
3.18593e-05
2.6263e-05
2.60915e-05
2.01054e-05
3.49473e-05
3.58208e-05
5.33216e-05
1
0.897382
0.689209
0.539985
0.427819
0.336952
0.259991
0.193977
0.137867
0.0916144
0.0560598
0.0319825
0.0165914
0.00395265
0.00408301
0.000218274
0.000280001
0.00118886
0.00139246
0.00118748
0.00101814
0.000941836
0.000887954
0.000827498
0.000766004
0.000708273
0.000653979
0.000602562
0.000553717
0.000506067
0.000459988
0.000415922
0.000372136
0.000330647
0.00028906
0.00024776
0.000206269
0.000163031
0.000116164
7.30648e-05
9.73917e-05
0.000126341
0.000145265
0.000157814
0.00016498
0.000169673
0.000170539
0.000168799
0.00016677
0.000162152
0.00015672
0.000150335
0.000143449
0.000136199
0.000127994
0.000119997
0.000112111
0.000103905
9.58038e-05
8.78743e-05
8.00065e-05
7.24499e-05
6.53737e-05
5.84464e-05
5.19174e-05
4.60965e-05
4.05496e-05
3.59094e-05
3.14206e-05
3.05036e-05
2.65227e-05
3.62955e-05
3.76798e-05
5.35816e-05
1
1
0.877381
0.680056
0.536403
0.425146
0.334571
0.258909
0.195334
0.142459
0.0995465
0.065866
0.04039
0.0221212
0.00941972
0.00611597
6.45355e-05
0.000302446
0.000581158
0.00111078
0.00115413
0.000990511
0.000880278
0.000823815
0.000773168
0.000716658
0.000660414
0.000608334
0.00055947
0.000512211
0.000466165
0.000422526
0.000379258
0.000338553
0.000298444
0.000258962
0.000220462
0.000181878
0.000143507
0.000109028
9.76759e-05
0.00011343
0.000130334
0.00014295
0.000150576
0.000155955
0.000157634
0.000156664
0.000155466
0.000151784
0.000147194
0.000141749
0.000135741
0.000129403
0.000122101
0.000114927
0.000107897
0.000100468
9.32017e-05
8.60096e-05
7.89276e-05
7.20903e-05
6.57487e-05
5.95287e-05
5.37224e-05
4.8562e-05
4.37033e-05
3.95905e-05
3.58405e-05
3.44716e-05
3.17718e-05
3.80366e-05
4.01276e-05
5.40645e-05
1
1
1
0.868841
0.677222
0.535386
0.424839
0.335571
0.262153
0.201537
0.151808
0.111351
0.0783811
0.0512525
0.0295672
0.0141749
0.0080068
0.00290122
0.00013166
0.000294433
0.000809748
0.00109336
0.000985348
0.0008411
0.000762246
0.000716138
0.000668809
0.000616866
0.000565887
0.000517953
0.000472339
0.00042919
0.000386644
0.000346738
0.000307899
0.000270247
0.000234377
0.00019942
0.000166194
0.000136704
0.000116476
0.000113297
0.000121266
0.000130843
0.000137807
0.00014317
0.000145369
0.000145056
0.000144693
0.00014184
0.00013816
0.000133654
0.000128548
0.000123123
0.000116717
0.000110428
0.000104233
9.75933e-05
9.11334e-05
8.46719e-05
7.83323e-05
7.21881e-05
6.64974e-05
6.09041e-05
5.57031e-05
5.10781e-05
4.67512e-05
4.29985e-05
3.97532e-05
3.80932e-05
3.6181e-05
4.00179e-05
4.27225e-05
5.47098e-05
1
1
1
1
0.877348
0.683528
0.540524
0.430159
0.342349
0.271297
0.213395
0.166026
0.126871
0.0937076
0.0647926
0.0398701
0.0202898
0.00720993
0.00538587
0
0.000189076
0.000145526
0.000794725
0.000969379
0.000851554
0.000726153
0.000658723
0.000616934
0.000573601
0.000525903
0.000478811
0.000435335
0.000393609
0.000354698
0.000317044
0.000281033
0.000247353
0.000215256
0.000185505
0.000159166
0.000137909
0.000125482
0.00012204
0.000124892
0.00012854
0.00013249
0.00013458
0.000134365
0.000134609
0.000132488
0.000129652
0.000126079
0.000121865
0.000117359
0.000111847
0.000106456
0.000101086
9.52366e-05
8.95533e-05
8.38084e-05
7.81621e-05
7.2665e-05
6.75575e-05
6.25097e-05
5.78106e-05
5.36191e-05
4.96871e-05
4.61885e-05
4.32842e-05
4.14126e-05
3.99797e-05
4.20976e-05
4.52368e-05
5.54732e-05
1
1
1
1
1
0.905584
0.701948
0.554873
0.443601
0.356691
0.287383
0.23127
0.185095
0.146151
0.112121
0.081393
0.0535479
0.0300121
0.0138243
0.00759717
0.00307632
0.000262633
0.000191834
0.000289481
0.000733757
0.000827579
0.000727467
0.000624399
0.000565565
0.000526582
0.000486435
0.00044366
0.000400995
0.000362069
0.00032558
0.000291231
0.000259387
0.000229479
0.000202193
0.00017802
0.000157266
0.000141685
0.000131166
0.000126852
0.000124946
0.000125579
0.000126315
0.000125411
0.000125648
0.000124062
0.000121862
0.000119165
0.000115779
0.000112179
0.000107545
0.000103032
9.84745e-05
9.33957e-05
8.84521e-05
8.33871e-05
7.83817e-05
7.34665e-05
6.8875e-05
6.42885e-05
5.99979e-05
5.61426e-05
5.25018e-05
4.91768e-05
4.64995e-05
4.44426e-05
4.33044e-05
4.4153e-05
4.75853e-05
5.63e-05
1
1
1
1
1
1
0.958772
0.736596
0.581692
0.467555
0.380113
0.31116
0.255419
0.209139
0.169415
0.134037
0.101483
0.0712146
0.044284
0.0225668
0.00825074
0.00122716
0.00194755
6.08342e-05
0.000179356
0.000327504
0.000658994
0.000715202
0.000626831
0.000534993
0.000479671
0.000443985
0.000408653
0.000371443
0.000334619
0.000300642
0.00027017
0.000242186
0.000216794
0.000194112
0.00017404
0.000157444
0.00014369
0.000134489
0.000127332
0.000123528
0.000121523
0.000118996
0.000118379
0.000116905
0.000115028
0.000113049
0.000110396
0.000107639
0.000103857
0.000100178
9.64085e-05
9.20668e-05
8.78115e-05
8.3375e-05
7.8946e-05
7.45446e-05
7.03978e-05
6.61955e-05
6.2227e-05
5.86221e-05
5.5194e-05
5.19788e-05
4.94456e-05
4.72065e-05
4.62463e-05
4.61164e-05
4.97359e-05
5.71401e-05
0.90086
1
1
1
1
1
1
1
0.793687
0.625144
0.504702
0.414176
0.343448
0.286295
0.238513
0.197113
0.159932
0.125512
0.0932306
0.063278
0.037096
0.0180003
0.00540483
0.00451284
0.000984942
6.68909e-05
0.000160024
0.000296973
0.000559342
0.000614938
0.000541733
0.000458605
0.000404607
0.000371205
0.000341691
0.000310907
0.000280867
0.0002534
0.000229228
0.000207834
0.000188517
0.000171598
0.000156396
0.00014437
0.000133669
0.000125857
0.000120454
0.000115589
0.000113212
0.000111294
0.0001093
0.00010783
0.00010575
0.000103766
0.000100767
9.78868e-05
9.48533e-05
9.12187e-05
8.75864e-05
8.37232e-05
7.98037e-05
7.58499e-05
7.20768e-05
6.81896e-05
6.44685e-05
6.10438e-05
5.77662e-05
5.46099e-05
5.21569e-05
4.97354e-05
4.88682e-05
4.79599e-05
5.16793e-05
5.79577e-05
0.731361
0.817092
1
1
1
1
1
1
1
0.883265
0.691149
0.558573
0.460966
0.38552
0.324766
0.27396
0.229901
0.19038