/*--------------------------------*- C++ -*----------------------------------*\
| =========                 |                                                 |
| \\      /  F ield         | OpenFOAM: The Open Source CFD Toolbox           |
|  \\    /   O peration     | Version:  2312                                  |
|   \\  /    A nd           | Website:  www.openfoam.com                      |
|    \\/     M anipulation  |                                                 |
\*---------------------------------------------------------------------------*/
FoamFile
{
    version     2.0;
    format      ascii;
    arch        "LSB;label=32;scalar=64";
    class       volScalarField;
    location    "600";
    object      turbulenceProperties:epsilon;
}
// * * * * * * * * * * * * * * * * * * * * * * * * * * * * * * * * * * * * * //

dimensions      [0 2 -3 0 0 0 0];

internalField   nonuniform List<scalar> 
11040
(
94.2365
99.6162
3.63302
1.10478
16.7153
18.4886
17.3733
15.1763
13.0812
11.7493
10.5631
9.5363
8.7291
8.11241
7.62221
7.36658
7.31911
7.50036
7.89337
8.50885
9.3859
10.5124
11.9165
13.6545
15.7438
18.2324
20.9976
23.6171
25.7516
27.0021
27.0027
25.5584
22.916
19.6621
15.9152
9.38812
3.43706
1.07974
0.175406
2.97162
7.31072
0.853408
2.83967
27.7381
50.7249
49.1617
5.38767
0.592459
0.0764684
0.00602049
0.00358422
0.0225525
0.043297
0.0636028
0.0822585
0.0984569
0.11457
0.132843
0.154199
0.176133
0.198687
0.222161
0.246845
0.264974
0.26765
0.251787
0.224344
0.190047
0.14913
0.107496
0.0728395
0.0509254
0.0426382
0.0398641
0.0470934
0.0668787
0.103708
0.167237
0.250875
0.566551
0.633322
8.42088
0.325304
0.256485
1.03624
14.5837
95.0398
74.2065
16.4592
2.45179
0.616625
0.234036
0.0794786
0.0267219
0.00603542
0.000272487
0.00113631
0.00472121
0.00906863
0.0133385
0.0170867
0.0199027
0.0215905
0.0219285
0.0199391
0.0157923
0.010958
0.00677314
0.00361266
0.0013371
8.35674e-05
0.000793316
0.00578909
0.0194091
0.0475392
0.0969699
0.176285
0.299575
0.486662
0.707266
1.35891
1.97732
3.3527
0.167721
0.123161
0.0824416
0.195618
14.6524
88.4882
90.9195
31.6206
5.35258
1.62144
0.61521
0.292084
0.152209
0.0795016
0.045155
0.026194
0.0168076
0.0118928
0.00961404
0.0090565
0.00946031
0.0107443
0.0131307
0.0164545
0.0197447
0.0219471
0.0223041
0.0206264
0.0177442
0.0163032
0.0210928
0.0392402
0.080559
0.159081
0.292226
0.506687
0.840396
1.25542
2.20102
3.54338
2.27049
0.093063
0.0756787
0.0858555
0.0216372
0.0376973
9.53887
67.2587
96.6588
49.6826
11.5756
3.21274
1.22058
0.618591
0.336751
0.211524
0.14001
0.102572
0.0809988
0.0692871
0.0639676
0.0620101
0.062081
0.0640595
0.067556
0.0705366
0.0713049
0.0687865
0.0626329
0.0539255
0.046131
0.0458835
0.0639204
0.116073
0.223946
0.414271
0.72556
1.21304
1.85434
2.96823
5.01011
2.71284
0.048499
0.0408247
0.038712
0.0475177
0.00432191
0.00205758
4.47815
41.9194
90.5228
66.3659
23.8777
5.96571
2.29365
1.06558
0.612826
0.386107
0.27372
0.211647
0.176915
0.159363
0.150388
0.146017
0.144668
0.14581
0.146478
0.144201
0.137053
0.123915
0.10559
0.0862505
0.0747582
0.0861724
0.142886
0.274986
0.519637
0.926679
1.56538
2.44061
3.64394
6.11887
3.7946
0.0253012
0.0230956
0.0203444
0.023091
0.0248437
0.000764272
7.78629e-07
1.32371
21.0013
69.0723
76.0951
40.8035
12.7055
4.00647
1.81033
0.9955
0.630157
0.446441
0.347855
0.298245
0.272282
0.259645
0.253843
0.252769
0.251573
0.246306
0.233615
0.211111
0.17886
0.141525
0.11015
0.104173
0.15278
0.294968
0.578685
1.06333
1.82592
2.89488
4.17222
6.73135
5.0022
0.0134729
0.0128723
0.012478
0.0115051
0.0134908
0.0149603
1.71772e-05
9.50681e-10
0.20713
7.89953
40.6292
72.1327
56.373
25.3334
7.98701
3.08016
1.57225
0.968667
0.671603
0.523541
0.447353
0.413186
0.397916
0.393963
0.392197
0.385601
0.368124
0.335047
0.28475
0.22195
0.159364
0.120356
0.140579
0.267559
0.55906
1.08117
1.91056
3.08266
4.41634
6.72674
5.86105
0.00734925
0.00713935
0.00716251
0.00704014
0.00649066
0.00829374
0.00767878
9.30452e-05
9.4524e-05
0.000507166
1.895
17.5085
51.0273
62.7884
40.8563
17.0348
5.85551
2.59012
1.46595
0.986192
0.752562
0.648032
0.600749
0.584365
0.57913
0.571177
0.54993
0.506839
0.437032
0.342991
0.237526
0.146794
0.111954
0.187807
0.439705
0.93699
1.74855
2.90137
4.21434
6.06987
5.98764
0.00405351
0.00398006
0.00403604
0.00412059
0.00404928
0.00379818
0.00481201
0.00390176
0.000319568
4.50696e-06
1.06303e-09
0.249019
5.1147
25.5234
51.9313
51.5969
30.6908
12.7811
4.83813
2.35237
1.46647
1.1044
0.942099
0.872047
0.842917
0.826311
0.80066
0.748019
0.657743
0.529106
0.372728
0.214265
0.097408
0.0818016
0.237502
0.634012
1.32808
2.33185
3.49557
4.85995
5.226
0.00225521
0.00222926
0.00227304
0.00234333
0.0024085
0.00236222
0.0022942
0.00262784
0.00257328
0.000534063
1.70294e-06
0.000126787
0.000169645
0.807494
8.27752
28.9703
47.4983
42.4155
24.6479
10.7168
4.43567
2.40292
1.71341
1.42577
1.28909
1.21942
1.16723
1.09757
0.988179
0.827803
0.619315
0.385078
0.168934
0.0310941
0.041688
0.267459
0.753559
1.50031
2.38723
3.29378
3.77082
0.00125986
0.0012517
0.00127536
0.00132363
0.00137499
0.00141667
0.00140599
0.00137497
0.00147223
0.0015666
0.000768267
3.3172e-07
2.00996e-07
0.00131508
0.0461316
1.50728
10.0271
28.3241
41.4867
35.8716
21.3808
10.3688
5.09986
3.05907
2.29091
1.98366
1.82067
1.6839
1.52709
1.3247
1.06777
0.766754
0.456818
0.192425
0.0400243
0.0633017
0.298534
0.738638
1.28624
1.79343
2.13096
0.000704636
0.000703213
0.000715108
0.000742764
0.000778047
0.000812253
0.000839967
0.000845928
0.000832658
0.000850712
0.000951971
0.000714803
2.39288e-05
1.49796e-07
1.62596e-05
0.00346229
0.101083
1.86148
9.85599
25.0388
35.5496
31.9433
21.7968
13.0831
7.62597
4.79658
3.46879
2.85789
2.52898
2.25497
1.943
1.57706
1.18419
0.814664
0.526101
0.370583
0.379909
0.544568
0.790106
0.988811
1.06807
0.000393494
0.000394336
0.000400034
0.000414981
0.000436446
0.000459867
0.000482206
0.000501483
0.000511807
0.000509089
0.000508979
0.000568197
0.000527558
0.000146243
1.44922e-09
1.28404e-09
0.000122886
0.00546562
0.114168
1.67777
8.1749
19.8943
29.2941
30.3151
25.1276
18.5852
13.0164
8.96655
6.32976
4.72718
3.76635
3.14621
2.67902
2.28215
1.95047
1.70287
1.56305
1.52735
1.56239
1.57638
1.37804
0.000218798
0.000220137
0.000222849
0.000230769
0.000243058
0.000257533
0.000272695
0.000287453
0.0003008
0.000310697
0.000312891
0.000313803
0.000336527
0.00034038
0.000258132
1.22286e-05
1.11131e-07
1.40684e-11
0.000569547
0.000766202
0.0959751
1.06494
4.73231
11.935
20.3265
25.9039
26.8749
24.4901
20.7526
16.8007
13.1386
10.0583
7.7108
6.08585
5.06778
4.51412
4.29503
4.24984
4.26092
4.27539
3.87391
0.000120866
0.000122011
0.000123304
0.00012745
0.000134274
0.000142691
0.000151986
0.000161757
0.000171491
0.00018058
0.000188303
0.000192421
0.000195339
0.000199429
0.000218889
0.000189834
0.000109236
3.53996e-07
1.32796e-08
2.35013e-07
0.000533588
0.00227502
0.0205655
0.286265
1.47052
4.43817
9.38379
15.2825
20.4409
23.6551
24.7234
24.0972
22.3684
20.0378
17.5403
15.2071
13.2563
11.7447
10.7007
10.2013
9.44512
6.65653e-05
6.73643e-05
6.80072e-05
7.0189e-05
7.39226e-05
7.86445e-05
8.40405e-05
8.99357e-05
9.61457e-05
0.000102387
0.00010838
0.000113788
0.000118083
0.00012063
0.000124125
0.000130464
0.000138987
0.000110367
3.95982e-05
1.90363e-07
7.82517e-10
1.48834e-14
5.29221e-05
0.00105813
4.19399e-07
0.0152527
0.154352
0.694083
2.03029
4.46222
7.96674
12.143
16.3899
20.1503
23.0623
24.9555
25.9065
26.0532
25.6968
25.3292
24.013
3.73798e-05
3.79132e-05
3.8279e-05
3.95003e-05
4.16128e-05
4.43178e-05
4.74635e-05
5.09834e-05
5.47873e-05
5.87627e-05
6.27657e-05
6.66693e-05
7.03473e-05
7.36191e-05
7.60464e-05
7.83165e-05
8.1168e-05
8.77142e-05
8.85323e-05
6.23451e-05
1.51664e-05
4.65635e-10
1.31073e-09
1.02433e-12
1.83698e-11
3.64026e-05
0.000810937
0.000988776
0.0010741
0.0167615
0.106409
0.393839
1.05504
2.27452
4.18202
6.78577
9.98342
13.5961
17.3573
21.215
24.1567
2.1788e-05
2.21479e-05
2.23775e-05
2.31028e-05
2.43524e-05
2.59623e-05
2.78582e-05
3.00194e-05
3.24053e-05
3.49562e-05
3.76032e-05
4.02732e-05
4.28954e-05
4.54203e-05
4.77405e-05
4.97985e-05
5.13732e-05
5.33658e-05
5.60107e-05
6.04575e-05
5.87128e-05
4.05139e-05
1.60049e-05
3.33701e-08
3.05643e-09
1.71675e-10
6.0847e-14
0
3.37241e-07
8.26322e-05
0.000662578
0.000527661
0.000427528
0.00112572
0.0139779
0.0684833
0.220958
0.552882
1.15694
2.1431
3.53177
1.31719e-05
1.34096e-05
1.35583e-05
1.40047e-05
1.47671e-05
1.57518e-05
1.69204e-05
1.82658e-05
1.97719e-05
2.14081e-05
2.31436e-05
2.4944e-05
2.67697e-05
2.85797e-05
3.03349e-05
3.20048e-05
3.35313e-05
3.48764e-05
3.60676e-05
3.76151e-05
3.99159e-05
4.16895e-05
4.12142e-05
3.12477e-05
1.71571e-05
5.75384e-06
2.61328e-09
9.6512e-10
1.07522e-10
1.49917e-11
0
0
0
5.90636e-07
0.000103538
0.000498904
0.000447437
7.92637e-05
3.41183e-06
0.00106283
0.00816589
8.18121e-06
8.33685e-06
8.43573e-06
8.71793e-06
9.19478e-06
9.81123e-06
1.05469e-05
1.13988e-05
1.23595e-05
1.34132e-05
1.45444e-05
1.57373e-05
1.69726e-05
1.82276e-05
1.94786e-05
2.07022e-05
2.18813e-05
2.29927e-05
2.40093e-05
2.49196e-05
2.58176e-05
2.70251e-05
2.84059e-05
3.021e-05
2.99779e-05
2.82184e-05
2.15617e-05
1.23627e-05
5.01077e-06
8.25157e-07
7.34036e-09
1.32864e-10
6.19562e-11
1.89199e-11
3.05288e-12
2.39447e-19
0
0
2.40486e-10
6.99654e-07
3.64244e-05
5.19246e-06
5.29459e-06
5.36226e-06
5.54494e-06
5.84934e-06
6.24286e-06
6.71414e-06
7.26191e-06
7.88238e-06
8.56695e-06
9.30672e-06
1.00941e-05
1.09189e-05
1.17687e-05
1.26304e-05
1.34902e-05
1.43348e-05
1.51522e-05
1.59331e-05
1.66688e-05
1.73218e-05
1.79259e-05
1.85126e-05
1.92841e-05
2.02052e-05
2.1072e-05
2.21398e-05
2.2079e-05
2.07453e-05
1.82756e-05
1.3836e-05
8.79807e-06
4.5781e-06
1.58332e-06
2.96232e-07
2.76376e-14
6.69195e-11
3.37004e-11
1.6366e-11
6.67436e-12
1.79618e-12
3.35269e-06
3.41996e-06
3.46717e-06
3.58752e-06
3.78495e-06
4.04006e-06
4.34625e-06
4.70287e-06
5.10762e-06
5.55571e-06
6.04178e-06
6.56199e-06
7.11058e-06
7.68028e-06
8.26335e-06
8.85175e-06
9.43696e-06
1.00106e-05
1.05652e-05
1.10972e-05
1.15879e-05
1.20294e-05
1.24275e-05
1.27782e-05
1.31286e-05
1.3486e-05
1.39415e-05
1.44788e-05
1.50046e-05
1.54498e-05
1.58236e-05
1.56427e-05
1.4939e-05
1.36719e-05
1.2099e-05
9.64086e-06
6.93541e-06
4.4259e-06
2.43885e-06
1.1212e-06
3.49234e-07
2.1953e-06
2.23985e-06
2.27335e-06
2.35384e-06
2.48366e-06
2.65121e-06
2.85255e-06
3.08724e-06
3.35373e-06
3.64926e-06
3.97042e-06
4.31488e-06
4.67934e-06
5.05934e-06
5.45006e-06
5.84655e-06
6.24335e-06
6.63498e-06
7.01592e-06
7.38295e-06
7.72364e-06
8.03318e-06
8.31592e-06
8.56138e-06
8.77141e-06
8.95185e-06
9.10785e-06
9.25596e-06
9.41051e-06
9.57563e-06
9.76676e-06
9.96792e-06
1.01482e-05
1.02854e-05
1.03496e-05
1.04276e-05
1.03019e-05
9.95938e-06
9.43738e-06
8.73751e-06
7.99476e-06
1.45402e-06
1.4837e-06
1.50778e-06
1.56227e-06
1.64861e-06
1.75984e-06
1.89357e-06
2.0494e-06
2.22623e-06
2.42237e-06
2.6356e-06
2.86432e-06
3.10667e-06
3.35966e-06
3.62022e-06
3.88512e-06
4.15079e-06
4.41347e-06
4.66939e-06
4.91601e-06
5.1445e-06
5.35161e-06
5.54014e-06
5.70389e-06
5.8427e-06
5.9583e-06
6.05083e-06
6.12063e-06
6.16986e-06
6.20149e-06
6.21873e-06
6.22647e-06
6.22756e-06
6.22577e-06
6.21861e-06
6.2134e-06
6.20562e-06
6.19004e-06
6.1658e-06
6.1093e-06
6.06897e-06
9.72184e-07
9.92081e-07
1.00958e-06
1.04687e-06
1.10488e-06
1.17944e-06
1.26906e-06
1.37334e-06
1.49153e-06
1.62246e-06
1.76472e-06
1.91713e-06
2.07853e-06
2.24687e-06
2.42014e-06
2.59617e-06
2.77262e-06
2.94683e-06
3.11626e-06
3.27897e-06
3.42894e-06
3.56406e-06
3.68632e-06
3.79122e-06
3.87869e-06
3.94983e-06
4.00525e-06
4.04516e-06
4.06997e-06
4.08036e-06
4.07706e-06
4.06115e-06
4.03345e-06
3.99566e-06
3.94958e-06
3.89582e-06
3.83568e-06
3.77107e-06
3.70747e-06
3.63469e-06
3.57768e-06
6.55094e-07
6.68547e-07
6.81378e-07
7.0715e-07
7.46499e-07
7.96912e-07
8.5745e-07
9.2773e-07
1.00722e-06
1.09508e-06
1.19042e-06
1.29234e-06
1.40002e-06
1.51211e-06
1.62722e-06
1.74386e-06
1.86048e-06
1.97521e-06
2.08631e-06
2.1924e-06
2.28939e-06
2.37608e-06
2.45398e-06
2.51994e-06
2.57384e-06
2.61644e-06
2.64822e-06
2.6695e-06
2.68076e-06
2.68262e-06
2.67573e-06
2.66084e-06
2.63836e-06
2.60921e-06
2.57437e-06
2.53431e-06
2.48928e-06
2.43978e-06
2.39011e-06
2.33138e-06
2.28997e-06
4.44267e-07
4.53449e-07
4.62929e-07
4.80925e-07
5.07856e-07
5.42233e-07
5.83423e-07
6.31109e-07
6.84878e-07
7.44155e-07
8.08307e-07
8.76688e-07
9.48698e-07
1.02345e-06
1.09991e-06
1.17712e-06
1.25396e-06
1.32921e-06
1.40161e-06
1.47025e-06
1.53236e-06
1.58736e-06
1.63637e-06
1.6773e-06
1.71002e-06
1.73511e-06
1.75295e-06
1.7638e-06
1.76805e-06
1.76619e-06
1.75872e-06
1.74623e-06
1.72909e-06
1.70795e-06
1.68352e-06
1.65617e-06
1.62603e-06
1.5933e-06
1.56128e-06
1.52218e-06
1.49977e-06
3.02876e-07
3.0921e-07
3.16275e-07
3.28968e-07
3.47566e-07
3.71199e-07
3.99423e-07
4.31987e-07
4.68562e-07
5.08754e-07
5.52098e-07
5.98139e-07
6.4642e-07
6.96364e-07
7.47198e-07
7.98279e-07
8.48844e-07
8.98065e-07
9.45076e-07
9.89258e-07
1.02877e-06
1.06338e-06
1.09397e-06
1.11912e-06
1.13875e-06
1.15332e-06
1.1631e-06
1.16832e-06
1.16927e-06
1.16631e-06
1.1598e-06
1.15017e-06
1.13766e-06
1.12273e-06
1.10588e-06
1.08735e-06
1.0672e-06
1.0455e-06
1.0248e-06
9.98659e-07
9.872e-07
2.0736e-07
2.11786e-07
2.17099e-07
2.26143e-07
2.39106e-07
2.55484e-07
2.74963e-07
2.97339e-07
3.2236e-07
3.49747e-07
3.79161e-07
4.10277e-07
4.42756e-07
4.76192e-07
5.10046e-07
5.43862e-07
5.77131e-07
6.09293e-07
6.3976e-07
6.68111e-07
6.93153e-07
7.14829e-07
7.33815e-07
7.49168e-07
7.60856e-07
7.69214e-07
7.7446e-07
7.76763e-07
7.76337e-07
7.73439e-07
7.68326e-07
7.61291e-07
7.52496e-07
7.42246e-07
7.30864e-07
7.18524e-07
7.05243e-07
6.90998e-07
6.77733e-07
6.6025e-07
6.55306e-07
1.42439e-07
1.45583e-07
1.49618e-07
1.56126e-07
1.65249e-07
1.76692e-07
1.90233e-07
2.05705e-07
2.22923e-07
2.41679e-07
2.61734e-07
2.82845e-07
3.04769e-07
3.27213e-07
3.49817e-07
3.72241e-07
3.94157e-07
4.15176e-07
4.34917e-07
4.53089e-07
4.68934e-07
4.82471e-07
4.94227e-07
5.03561e-07
5.10472e-07
5.15213e-07
5.17953e-07
5.1881e-07
5.17936e-07
5.15512e-07
5.11712e-07
5.06734e-07
5.00682e-07
4.93758e-07
4.86172e-07
4.78044e-07
4.6937e-07
4.60092e-07
4.51672e-07
4.39968e-07
4.38753e-07
9.80906e-08
1.0037e-07
1.0346e-07
1.08194e-07
1.14676e-07
1.22737e-07
1.3222e-07
1.42988e-07
1.54909e-07
1.67824e-07
1.81564e-07
1.9595e-07
2.10805e-07
2.2592e-07
2.41057e-07
2.55964e-07
2.70428e-07
2.84189e-07
2.96999e-07
3.08659e-07
3.18693e-07
3.27153e-07
3.3444e-07
3.40122e-07
3.44211e-07
3.46884e-07
3.48274e-07
3.48467e-07
3.47567e-07
3.45696e-07
3.42975e-07
3.39532e-07
3.35437e-07
3.30817e-07
3.25816e-07
3.20504e-07
3.14876e-07
3.08857e-07
3.03544e-07
2.95681e-07
2.96385e-07
6.7673e-08
6.93631e-08
7.17469e-08
7.52257e-08
7.98764e-08
8.56032e-08
9.22955e-08
9.9844e-08
1.0815e-07
1.17097e-07
1.26563e-07
1.36415e-07
1.46522e-07
1.56743e-07
1.66917e-07
1.7686e-07
1.86431e-07
1.9546e-07
2.03785e-07
2.11278e-07
2.17637e-07
2.22927e-07
2.27444e-07
2.30898e-07
2.33305e-07
2.34799e-07
2.35471e-07
2.35384e-07
2.34611e-07
2.33233e-07
2.31331e-07
2.28989e-07
2.26251e-07
2.23197e-07
2.19922e-07
2.16469e-07
2.12829e-07
2.08934e-07
2.05592e-07
2.00289e-07
2.01856e-07
4.67427e-08
4.80226e-08
4.9875e-08
5.24576e-08
5.58253e-08
5.99325e-08
6.46932e-08
7.00262e-08
7.58541e-08
8.20947e-08
8.86548e-08
9.54419e-08
1.02357e-07
1.09305e-07
1.16173e-07
1.22836e-07
1.29196e-07
1.35146e-07
1.40582e-07
1.45424e-07
1.49478e-07
1.52809e-07
1.55633e-07
1.57755e-07
1.59188e-07
1.60033e-07
1.60351e-07
1.60188e-07
1.59591e-07
1.58619e-07
1.57321e-07
1.55754e-07
1.53943e-07
1.5194e-07
1.49806e-07
1.47569e-07
1.45219e-07
1.42695e-07
1.40591e-07
1.37002e-07
1.38789e-07
3.23048e-08
3.32941e-08
3.47419e-08
3.6677e-08
3.91418e-08
4.2114e-08
4.55306e-08
4.93293e-08
5.34509e-08
5.78357e-08
6.24144e-08
6.71202e-08
7.18802e-08
7.66299e-08
8.12908e-08
8.57779e-08
9.00237e-08
9.39622e-08
9.75226e-08
1.00657e-07
1.03248e-07
1.05346e-07
1.07113e-07
1.08413e-07
1.09259e-07
1.09724e-07
1.09855e-07
1.09681e-07
1.09235e-07
1.08554e-07
1.07672e-07
1.06627e-07
1.05433e-07
1.04124e-07
1.02737e-07
1.0129e-07
9.97755e-08
9.81442e-08
9.68211e-08
9.43861e-08
9.61059e-08
2.23282e-08
2.31063e-08
2.42433e-08
2.57065e-08
2.75285e-08
2.97003e-08
3.21752e-08
3.49045e-08
3.78449e-08
4.09507e-08
4.41721e-08
4.74589e-08
5.07609e-08
5.40301e-08
5.72155e-08
6.02604e-08
6.31182e-08
6.57468e-08
6.81054e-08
7.01622e-08
7.18444e-08
7.31926e-08
7.43252e-08
7.51483e-08
7.5673e-08
7.59504e-08
7.60128e-08
7.58805e-08
7.55746e-08
7.51201e-08
7.45391e-08
7.38544e-08
7.30761e-08
7.22239e-08
7.13229e-08
7.03841e-08
6.94005e-08
6.83362e-08
6.749e-08
6.58363e-08
6.72835e-08
1.5427e-08
1.60477e-08
1.69436e-08
1.80596e-08
1.94198e-08
2.10222e-08
2.28317e-08
2.48115e-08
2.69281e-08
2.91477e-08
3.14333e-08
3.37482e-08
3.60559e-08
3.83223e-08
4.05132e-08
4.25908e-08
4.45223e-08
4.62814e-08
4.78422e-08
4.91863e-08
5.02701e-08
5.11243e-08
5.18373e-08
5.23437e-08
5.26521e-08
5.28005e-08
5.28128e-08
5.27022e-08
5.24825e-08
5.21699e-08
5.17796e-08
5.13256e-08
5.08141e-08
5.02571e-08
4.96707e-08
4.90607e-08
4.84226e-08
4.77296e-08
4.7189e-08
4.60643e-08
4.72505e-08
1.06518e-08
1.11516e-08
1.18596e-08
1.27173e-08
1.37431e-08
1.49365e-08
1.62721e-08
1.77215e-08
1.92592e-08
2.08597e-08
2.2496e-08
2.41411e-08
2.57698e-08
2.73577e-08
2.88833e-08
3.0322e-08
3.16515e-08
3.28563e-08
3.39214e-08
3.48359e-08
3.55737e-08
3.61539e-08
3.66416e-08
3.69899e-08
3.72052e-08
3.73137e-08
3.73317e-08
3.72676e-08
3.71309e-08
3.6932e-08
3.66812e-08
3.63875e-08
3.60551e-08
3.56912e-08
3.53066e-08
3.49051e-08
3.44827e-08
3.4022e-08
3.36593e-08
3.29026e-08
3.37493e-08
7.34869e-09
7.75345e-09
8.31352e-09
8.97817e-09
9.75891e-09
1.0656e-08
1.16505e-08
1.27204e-08
1.38471e-08
1.50111e-08
1.61926e-08
1.73714e-08
1.8529e-08
1.96466e-08
2.07103e-08
2.17036e-08
2.26102e-08
2.34204e-08
2.41263e-08
2.47214e-08
2.51917e-08
2.55533e-08
2.58541e-08
2.60614e-08
2.61808e-08
2.62315e-08
2.62255e-08
2.61686e-08
2.60669e-08
2.59275e-08
2.57567e-08
2.55602e-08
2.53401e-08
2.5101e-08
2.48488e-08
2.45854e-08
2.43084e-08
2.40056e-08
2.37682e-08
2.32513e-08
2.39068e-08
5.06509e-09
5.39367e-09
5.83742e-09
6.35527e-09
6.95435e-09
7.63425e-09
8.38016e-09
9.17578e-09
1.00069e-08
1.086e-08
1.17208e-08
1.2575e-08
1.34096e-08
1.42131e-08
1.49775e-08
1.56926e-08
1.63475e-08
1.69359e-08
1.74521e-08
1.78927e-08
1.82482e-08
1.85251e-08
1.87601e-08
1.89287e-08
1.90345e-08
1.9091e-08
1.91063e-08
1.90844e-08
1.90294e-08
1.8946e-08
1.88388e-08
1.87119e-08
1.85669e-08
1.84067e-08
1.8236e-08
1.80564e-08
1.78648e-08
1.76565e-08
1.74812e-08
1.71524e-08
1.75073e-08
3.48759e-09
3.75563e-09
4.1083e-09
4.51383e-09
4.97491e-09
5.49136e-09
6.05307e-09
6.64797e-09
7.26517e-09
7.89425e-09
8.52466e-09
9.14611e-09
9.74781e-09
1.03182e-08
1.08489e-08
1.13335e-08
1.17665e-08
1.21461e-08
1.24713e-08
1.27409e-08
1.2951e-08
1.31101e-08
1.32433e-08
1.33342e-08
1.33857e-08
1.34074e-08
1.34048e-08
1.33806e-08
1.33371e-08
1.32772e-08
1.32035e-08
1.3118e-08
1.30217e-08
1.2916e-08
1.28029e-08
1.26829e-08
1.2555e-08
1.24147e-08
1.22964e-08
1.20596e-08
1.23577e-08
2.40207e-09
2.62199e-09
2.90429e-09
3.22347e-09
3.57847e-09
3.9691e-09
4.38972e-09
4.83355e-09
5.29367e-09
5.76185e-09
6.22934e-09
6.68894e-09
7.1368e-09
7.57152e-09
7.99144e-09
8.38837e-09
8.75248e-09
9.07787e-09
9.36191e-09
9.60429e-09
9.80157e-09
9.95413e-09
1.00837e-08
1.01779e-08
1.02393e-08
1.02751e-08
1.02898e-08
1.02854e-08
1.02639e-08
1.02281e-08
1.018e-08
1.01218e-08
1.00543e-08
9.97889e-09
9.89755e-09
9.81149e-09
9.71789e-09
9.61923e-09
9.52042e-09
9.40396e-09
9.42948e-09
1.66252e-09
1.84121e-09
2.06556e-09
2.31634e-09
2.5898e-09
2.88486e-09
3.19779e-09
3.52501e-09
3.86385e-09
4.21083e-09
4.55963e-09
4.89995e-09
5.21904e-09
5.50461e-09
5.75294e-09
5.97143e-09
6.168e-09
6.34372e-09
6.4976e-09
6.62695e-09
6.73021e-09
6.81186e-09
6.88256e-09
6.93377e-09
6.96646e-09
6.98511e-09
6.99233e-09
6.98913e-09
6.97633e-09
6.95503e-09
6.92622e-09
6.89058e-09
6.84844e-09
6.80009e-09
6.74616e-09
6.68638e-09
6.62096e-09
6.54789e-09
6.47973e-09
6.35929e-09
6.48449e-09
1.15987e-09
1.30183e-09
1.47419e-09
1.66398e-09
1.86921e-09
2.09071e-09
2.32592e-09
2.57026e-09
2.81939e-09
3.07089e-09
3.32579e-09
3.58859e-09
3.86468e-09
4.15646e-09
4.4563e-09
4.74017e-09
4.9886e-09
5.2009e-09
5.38075e-09
5.53275e-09
5.65584e-09
5.74817e-09
5.82466e-09
5.87966e-09
5.91538e-09
5.93603e-09
5.94424e-09
5.9415e-09
5.92931e-09
5.90929e-09
5.88284e-09
5.85124e-09
5.81517e-09
5.77538e-09
5.73299e-09
5.68921e-09
5.64101e-09
5.59532e-09
5.53275e-09
5.5322e-09
5.34832e-09
8.08817e-10
9.24095e-10
1.05555e-09
1.19276e-09
1.33598e-09
1.49037e-09
1.65911e-09
1.84244e-09
2.03676e-09
2.23331e-09
2.4187e-09
2.57839e-09
2.70264e-09
2.79013e-09
2.85457e-09
2.92698e-09
3.02115e-09
3.12374e-09
3.2244e-09
3.31645e-09
3.39831e-09
3.47187e-09
3.53874e-09
3.59477e-09
3.63986e-09
3.67575e-09
3.70353e-09
3.72355e-09
3.73609e-09
3.74158e-09
3.74042e-09
3.73278e-09
3.7189e-09
3.69875e-09
3.67247e-09
3.63958e-09
3.6013e-09
3.55476e-09
3.51053e-09
3.41992e-09
3.51394e-09
5.62183e-10
6.67014e-10
7.80564e-10
8.89429e-10
9.90772e-10
1.08893e-09
1.18923e-09
1.2976e-09
1.42128e-09
1.5685e-09
1.74758e-09
1.96477e-09
2.22079e-09
2.50936e-09
2.80839e-09
3.0632e-09
3.24913e-09
3.39496e-09
3.51327e-09
3.60993e-09
3.68282e-09
3.73291e-09
3.76951e-09
3.79104e-09
3.79986e-09
3.79887e-09
3.79005e-09
3.77489e-09
3.7548e-09
3.73115e-09
3.70511e-09
3.67781e-09
3.64983e-09
3.62185e-09
3.59465e-09
3.56975e-09
3.54347e-09
3.52619e-09
3.48285e-09
3.55664e-09
3.22495e-09
4.11743e-10
5.00642e-10
5.96854e-10
6.93253e-10
7.85329e-10
8.7065e-10
9.45693e-10
1.00711e-09
1.05365e-09
1.08655e-09
1.10903e-09
1.12525e-09
1.13958e-09
1.15279e-09
1.16882e-09
1.21572e-09
1.29677e-09
1.38903e-09
1.48458e-09
1.57775e-09
1.66674e-09
1.7509e-09
1.8305e-09
1.90414e-09
1.97075e-09
2.03027e-09
2.0827e-09
2.12777e-09
2.16515e-09
2.19458e-09
2.21579e-09
2.22848e-09
2.23251e-09
2.22745e-09
2.21322e-09
2.18913e-09
2.15694e-09
2.11143e-09
2.06929e-09
1.9595e-09
2.06135e-09
4.82903e-10
6.09613e-10
6.83585e-10
6.98445e-10
6.80497e-10
6.69729e-10
7.00446e-10
7.91683e-10
9.45441e-10
1.14992e-09
1.38468e-09
1.62686e-09
1.85557e-09
2.05901e-09
2.22591e-09
2.31167e-09
2.32037e-09
2.29356e-09
2.25122e-09
2.20125e-09
2.14089e-09
2.08717e-09
2.02902e-09
1.97005e-09
1.91195e-09
1.85505e-09
1.79939e-09
1.74499e-09
1.69179e-09
1.63954e-09
1.58782e-09
1.53628e-09
1.4841e-09
1.43067e-09
1.37575e-09
1.31977e-09
1.25914e-09
1.20033e-09
1.11961e-09
1.11359e-09
8.33466e-10
522.43
373.997
224.024
123.34
56.6604
19.5905
4.27342
0.427619
0.0537226
0.00641804
0.00168323
3.05247e-09
1.04743e-05
9.3559e-05
6.94303e-05
3.35652e-05
2.26805e-05
1.79881e-05
1.29784e-05
9.34861e-06
6.60205e-06
4.79286e-06
3.46011e-06
2.49401e-06
1.79719e-06
1.28297e-06
9.22172e-07
6.48859e-07
4.54885e-07
3.08592e-07
2.10724e-07
1.34697e-07
8.54284e-08
5.00742e-08
2.66687e-08
1.27711e-08
4.71963e-09
1.11704e-09
3.49285e-10
1.31737e-09
3.14134e-09
5.18876e-09
7.15255e-09
8.5151e-09
9.54301e-09
9.82277e-09
9.5974e-09
9.10122e-09
8.27207e-09
7.18909e-09
6.1595e-09
5.05907e-09
4.09343e-09
3.22184e-09
2.454e-09
1.86073e-09
1.35282e-09
9.69013e-10
6.6696e-10
4.50671e-10
2.89411e-10
1.81331e-10
1.07269e-10
5.96781e-11
3.06091e-11
1.42416e-11
5.56883e-12
1.95454e-12
3.03487e-13
1.14912e-12
4.47099e-13
7.88922e-12
7.68363e-12
4.37672e-11
269.824
425.484
315.023
196.468
106.928
47.9376
16.251
3.63019
0.44273
0.0603765
0.0098613
0.0033146
2.3248e-08
1.6268e-07
5.07184e-05
5.72537e-05
2.84503e-05
1.63934e-05
1.21835e-05
9.47068e-06
6.81849e-06
4.90597e-06
3.54336e-06
2.56209e-06
1.8514e-06
1.32183e-06
9.50599e-07
6.69555e-07
4.69729e-07
3.18735e-07
2.17823e-07
1.40362e-07
8.91949e-08
5.32506e-08
2.89545e-08
1.43723e-08
5.7074e-09
1.49404e-09
1.47927e-10
5.71109e-10
1.92799e-09
3.55815e-09
5.25376e-09
6.41968e-09
7.36642e-09
7.72491e-09
7.5766e-09
7.24081e-09
6.67773e-09
5.81007e-09
5.0095e-09
4.13987e-09
3.36871e-09
2.67009e-09
2.03644e-09
1.5563e-09
1.14185e-09
8.23755e-10
5.71848e-10
3.90905e-10
2.54382e-10
1.6209e-10
9.85521e-11
5.67411e-11
3.06216e-11
1.56156e-11
7.03151e-12
3.01703e-12
8.7651e-13
1.22334e-12
2.0368e-13
7.18026e-12
7.72086e-12
4.19008e-11
87.9309
287.921
317.115
244.411
157.896
86.3384
38.4491
13.161
3.1752
0.506299
0.079206
0.0151449
0.00467865
1.28045e-05
1.48808e-07
4.10426e-06
3.35926e-05
2.5407e-05
1.30278e-05
8.63662e-06
6.66843e-06
5.00946e-06
3.62487e-06
2.60935e-06
1.8906e-06
1.36081e-06
9.73872e-07
6.88953e-07
4.84507e-07
3.31876e-07
2.24694e-07
1.47115e-07
9.3058e-08
5.66169e-08
3.17822e-08
1.63273e-08
7.08553e-09
2.22107e-09
2.4971e-10
9.61386e-11
9.43176e-10
2.18412e-09
3.50933e-09
4.55685e-09
5.32035e-09
5.76261e-09
5.7495e-09
5.49197e-09
5.1531e-09
4.53784e-09
3.93039e-09
3.28623e-09
2.69626e-09
2.16269e-09
1.66541e-09
1.2761e-09
9.5456e-10
6.94816e-10
4.91479e-10
3.41031e-10
2.27668e-10
1.48508e-10
9.41751e-11
5.70409e-11
3.3071e-11
1.87243e-11
9.94685e-12
5.28843e-12
2.44267e-12
2.38038e-12
8.39256e-13
7.66686e-12
8.4542e-12
4.1608e-11
33.5982
164.047
254.316
247.791
191.919
125.578
69.1693
31.3173
11.2894
3.12563
0.660591
0.122298
0.0228209
0.000969068
0.000857806
7.85616e-09
2.39576e-08
1.3511e-05
2.38518e-05
1.25048e-05
6.63904e-06
4.74426e-06
3.66201e-06
2.70548e-06
1.95049e-06
1.40217e-06
1.00399e-06
7.13905e-07
5.03018e-07
3.47258e-07
2.34842e-07
1.55717e-07
9.91049e-08
6.14068e-08
3.56948e-08
1.91895e-08
9.18988e-09
3.57773e-09
9.20546e-10
1.43902e-10
4.53943e-10
1.28516e-09
2.24612e-09
3.12984e-09
3.74029e-09
4.1873e-09
4.27717e-09
4.10906e-09
3.91889e-09
3.5061e-09
3.06249e-09
2.5957e-09
2.15388e-09
1.75204e-09
1.36773e-09
1.05752e-09
8.06364e-10
5.9541e-10
4.3062e-10
3.04991e-10
2.09697e-10
1.41083e-10
9.35724e-11
5.98084e-11
3.7253e-11
2.31603e-11
1.38729e-11
8.535e-12
5.00418e-12
4.44671e-12
2.54157e-12
8.91999e-12
1.03504e-11
4.2426e-11
16.9245
89.8099
176.238
212.956
197.578
153.228
101.344
56.8813
26.8144
10.5358
3.43728
0.927056
0.204752
0.0377838
0.00496601
0.001668
3.24907e-11
3.3804e-08
6.24087e-07
9.65344e-06
1.07724e-05
5.78072e-06
3.53895e-06
2.65905e-06
2.02388e-06
1.46914e-06
1.04388e-06
7.41588e-07
5.24204e-07
3.64397e-07
2.47695e-07
1.65837e-07
1.06911e-07
6.74947e-08
4.05621e-08
2.29038e-08
1.19937e-08
5.54245e-09
2.14447e-09
7.13627e-10
4.59367e-10
8.35213e-10
1.45593e-09
2.10762e-09
2.59612e-09
2.98959e-09
3.12309e-09
3.04976e-09
2.96041e-09
2.69247e-09
2.38364e-09
2.05206e-09
1.72731e-09
1.42794e-09
1.13291e-09
8.89911e-10
6.91887e-10
5.20508e-10
3.8574e-10
2.79933e-10
1.98622e-10
1.38307e-10
9.57393e-11
6.43634e-11
4.27099e-11
2.85269e-11
1.87185e-11
1.26102e-11
8.47154e-12
7.25228e-12
5.23348e-12
1.07586e-11
1.33134e-11
4.39772e-11
10.7272
49.949
111.805
160.71
175.978
160.043
124.811
83.976
48.7221
24.4481
10.6873
4.08768
1.34321
0.355785
0.0697487
0.0101174
0.00243399
0.000239599
8.03598e-10
3.00238e-08
2.59686e-06
8.4392e-06
5.481e-06
2.88515e-06
1.9135e-06
1.46532e-06
1.0974e-06
7.8365e-07
5.48521e-07
3.80961e-07
2.61046e-07
1.76528e-07
1.15474e-07
7.4258e-08
4.59506e-08
2.71653e-08
1.53211e-08
8.01105e-09
3.85774e-09
1.76401e-09
9.29019e-10
8.31483e-10
1.09136e-09
1.47969e-09
1.82178e-09
2.12388e-09
2.25935e-09
2.24202e-09
2.22182e-09
2.05377e-09
1.85061e-09
1.62231e-09
1.38953e-09
1.17046e-09
9.46065e-10
7.58657e-10
6.02665e-10
4.63481e-10
3.52651e-10
2.62936e-10
1.92706e-10
1.39063e-10
1.00177e-10
7.05219e-11
4.93656e-11
3.49144e-11
2.4512e-11
1.75456e-11
1.28217e-11
1.08146e-11
8.80119e-12
1.31816e-11
1.71057e-11
4.61164e-11
8.11278
28.8042
67.6622
109.952
138.556
145.502
131.732
103.976
71.8401
43.7339
23.7109
11.5781
5.09863
1.9722
0.62178
0.142164
0.0212508
0.00175617
0.000758523
0
4.12762e-09
1.28035e-09
2.33878e-06
4.97048e-06
2.94317e-06
1.54739e-06
1.03359e-06
7.84187e-07
5.78718e-07
4.04655e-07
2.75562e-07
1.86825e-07
1.24004e-07
8.1304e-08
5.16515e-08
3.17663e-08
1.90059e-08
1.08751e-08
5.98847e-09
3.24202e-09
1.82603e-09
1.2513e-09
1.11968e-09
1.22852e-09
1.37927e-09
1.55792e-09
1.66005e-09
1.65098e-09
1.66457e-09
1.56367e-09
1.43545e-09
1.28488e-09
1.12253e-09
9.66376e-10
7.97877e-10
6.55322e-10
5.33158e-10
4.20349e-10
3.28849e-10
2.52389e-10
1.91046e-10
1.42779e-10
1.06722e-10
7.82586e-11
5.72718e-11
4.23978e-11
3.12738e-11
2.33608e-11
1.80207e-11
1.5106e-11
1.31212e-11
1.61428e-11
2.15022e-11
4.87465e-11
6.98634
17.3857
40.0698
70.0731
98.4981
117.036
120.98
110.058
88.5796
63.5154
41.0109
24.1492
13.0933
6.51738
2.89356
1.0744
0.298965
0.0544729
0.00658082
0.00134951
0.000171735
1.82449e-08
4.48081e-09
2.8689e-08
1.64019e-06
2.55952e-06
1.52133e-06
8.22038e-07
5.47406e-07
4.06849e-07
2.93367e-07
2.01398e-07
1.33526e-07
8.82568e-08
5.74341e-08
3.66284e-08
2.29802e-08
1.40459e-08
8.4515e-09
5.07322e-09
3.08807e-09
2.03407e-09
1.49419e-09
1.30766e-09
1.23154e-09
1.25765e-09
1.28853e-09
1.25319e-09
1.26393e-09
1.20248e-09
1.12054e-09
1.02555e-09
9.14702e-10
8.06833e-10
6.82118e-10
5.75071e-10
4.80221e-10
3.88815e-10
3.12995e-10
2.47369e-10
1.93212e-10
1.4919e-10
1.15298e-10
8.75558e-11
6.64445e-11
5.09612e-11
3.89855e-11
3.00187e-11
2.4002e-11
2.00362e-11
1.80613e-11
1.95344e-11
2.63278e-11
5.17209e-11
6.23333
10.9692
23.4108
42.3191
64.3467
84.5699
98.0027
101.026
93.0271
76.9585
57.7198
39.7086
25.3515
15.1183
8.36812
4.19465
1.81017
0.618077
0.148754
0.021574
0.00162883
1.29523e-05
4.55697e-05
2.60483e-11
3.40161e-09
5.11016e-08
1.03388e-06
1.38671e-06
8.16857e-07
4.32936e-07
2.7762e-07
2.02081e-07
1.43953e-07
9.76859e-08
6.40499e-08
4.15859e-08
2.70416e-08
1.74221e-08
1.11687e-08
7.17094e-09
4.63149e-09
3.10149e-09
2.15198e-09
1.65225e-09
1.32846e-09
1.17761e-09
1.10397e-09
1.01595e-09
9.96011e-10
9.48255e-10
8.8969e-10
8.30814e-10
7.5621e-10
6.84049e-10
5.93332e-10
5.14016e-10
4.41222e-10
3.6719e-10
3.0405e-10
2.47244e-10
1.98849e-10
1.5815e-10
1.25843e-10
9.84193e-11
7.6885e-11
6.05791e-11
4.76191e-11
3.74683e-11
3.06882e-11
2.55056e-11
2.34928e-11
2.32481e-11
3.1421e-11
5.48812e-11
5.19857
6.98678
13.3079
24.2023
38.9363
55.4718
70.8076
81.3577
84.3179
79.1139
67.6692
53.2771
39.0427
26.8869
17.4575
10.6203
5.93489
2.93635
1.21305
0.381147
0.07936
0.0101
0.000502809