/*--------------------------------*- C++ -*----------------------------------*\
| =========                 |                                                 |
| \\      /  F ield         | OpenFOAM: The Open Source CFD Toolbox           |
|  \\    /   O peration     | Version:  2312                                  |
|   \\  /    A nd           | Website:  www.openfoam.com                      |
|    \\/     M anipulation  |                                                 |
\*---------------------------------------------------------------------------*/
FoamFile
{
    version     2.0;
    format      ascii;
    arch        "LSB;label=32;scalar=64";
    class       volSymmTensorField;
    location    "600";
    object      turbulenceProperties:devReff;
}
// * * * * * * * * * * * * * * * * * * * * * * * * * * * * * * * * * * * * * //

dimensions      [0 2 -2 0 0 0 0];

internalField   nonuniform List<symmTensor> 
11040
(
(0.018069 0.0943149 -1.52875e-22 -0.0279475 1.14145e-20 0.00987856)
(0.067292 0.0876296 9.66383e-21 -0.0802364 1.34386e-19 0.0129444)
(0.0125592 0.00987244 -2.91939e-20 -0.0110979 9.2182e-20 -0.00146123)
(-0.00467976 0.0104045 -6.85201e-20 0.00515902 3.93999e-20 -0.000479267)
(-0.0674024 0.0473186 -2.20804e-20 0.0676103 1.96724e-19 -0.000207917)
(-0.0616277 0.0586121 -3.02221e-19 0.0623621 1.09664e-19 -0.000734391)
(-0.0520466 0.0613507 1.73054e-19 0.0523384 -1.13875e-18 -0.000291836)
(-0.0423442 0.0595448 2.41006e-19 0.0425077 -1.68182e-19 -0.000163493)
(-0.033551 0.0559237 1.0356e-19 0.0336647 -3.02017e-20 -0.000113672)
(-0.0273481 0.0536319 9.63811e-20 0.0273685 1.53203e-19 -2.044e-05)
(-0.0222166 0.0507917 -8.55235e-20 0.0222496 3.65345e-19 -3.30356e-05)
(-0.0179117 0.0480318 -1.28147e-19 0.0179169 2.72678e-19 -5.21805e-06)
(-0.014326 0.0455873 2.093e-20 0.0143006 -1.57809e-19 2.54264e-05)
(-0.0113976 0.0436121 2.65718e-20 0.0113725 1.52426e-19 2.51224e-05)
(-0.0088458 0.0419102 -1.20333e-20 0.00879605 1.23537e-20 4.97505e-05)
(-0.00673173 0.0410859 -4.93365e-21 0.00667257 -1.98747e-19 5.91586e-05)
(-0.00487448 0.0411259 5.48422e-20 0.00479792 -1.2961e-21 7.6569e-05)
(-0.00314338 0.0421106 -5.10073e-21 0.00304918 3.60215e-19 9.41986e-05)
(-0.0014021 0.0439154 -3.12007e-20 0.00129044 3.07163e-21 0.000111662)
(0.000457418 0.0465232 4.96641e-21 -0.000590904 -5.25135e-20 0.000133486)
(0.00254867 0.0500276 2.37926e-20 -0.00269698 4.04918e-20 0.000148313)
(0.00475755 0.0543264 -2.5875e-20 -0.00491411 1.22693e-19 0.000156552)
(0.00694085 0.0594232 7.01687e-22 -0.00711627 -1.01709e-19 0.000175417)
(0.00929934 0.0653638 1.3591e-20 -0.00948964 2.58818e-19 0.000190299)
(0.0119415 0.0721551 -7.88065e-20 -0.0121287 -2.33594e-19 0.000187158)
(0.0149289 0.080094 -4.19438e-20 -0.0151007 -5.45562e-19 0.000171813)
(0.01822 0.0888303 1.14769e-20 -0.0183613 -2.5433e-19 0.000141338)
(0.0215191 0.0970197 3.36569e-20 -0.0216132 7.15703e-20 9.41024e-05)
(0.0245824 0.103904 -2.33192e-20 -0.0246078 -2.08636e-19 2.5477e-05)
(0.0270821 0.108606 1.45377e-20 -0.0270249 -4.86711e-19 -5.72131e-05)
(0.0286959 0.11027 1.24344e-19 -0.0285566 3.52761e-19 -0.00013933)
(0.0292259 0.1083 2.40921e-20 -0.0290054 -2.31549e-20 -0.000220544)
(0.0286997 0.103329 1.12745e-19 -0.0283934 9.9596e-19 -0.00030629)
(0.0275229 0.09754 -9.3013e-20 -0.027104 6.21629e-19 -0.000418906)
(0.0255158 0.090967 5.05993e-20 -0.0248962 8.42327e-21 -0.000619597)
(0.0177822 0.0666229 1.31634e-19 -0.0170809 9.16449e-19 -0.000701348)
(0.00781969 0.0346162 8.78383e-21 -0.00726325 1.74514e-19 -0.000556441)
(0.00184985 0.0205803 -3.32476e-20 -0.000984278 5.74767e-19 -0.00086557)
(-0.00722266 0.00446396 -4.43932e-19 0.0076943 -1.14291e-18 -0.000471643)
(-0.017346 -0.032842 7.7869e-21 0.0186416 -9.21406e-19 -0.00129562)
(-0.0585286 -0.0238277 1.90322e-19 0.0649534 5.23197e-20 -0.00642478)
(0.00574752 -0.00595213 5.73175e-22 -0.00412699 -1.69809e-21 -0.00162053)
(0.0168197 0.00162872 2.5937e-20 -0.0101026 5.32081e-21 -0.00671714)
(0.0520772 0.0319745 5.54681e-20 -0.0535546 -3.00457e-19 0.0014774)
(0.121731 0.0321982 7.69206e-20 -0.122572 -1.7575e-19 0.000841099)
(0.245586 -0.020798 8.16245e-20 -0.245214 -4.89156e-19 -0.000371723)
(0.0677656 -0.0489561 5.6345e-19 -0.0674713 -1.19845e-18 -0.000294284)
(0.017929 -0.0191429 -8.2212e-19 -0.0171524 3.22094e-18 -0.000776607)
(0.00435124 -0.00775684 -8.26978e-19 -0.0046379 2.13773e-18 0.00028666)
(0.000288999 -0.00229922 -7.47782e-20 -0.000496519 -1.51591e-19 0.00020752)
(-0.00128985 0.0012388 -1.0312e-19 0.00109045 4.0355e-20 0.000199398)
(-0.0022371 0.00354926 4.59313e-19 0.00217527 -1.15713e-18 6.18321e-05)
(-0.00247704 0.00498572 -7.25186e-23 0.00250465 -7.20242e-20 -2.76141e-05)
(-0.00231164 0.00606487 -1.65953e-19 0.00234827 6.82287e-19 -3.66311e-05)
(-0.00211219 0.00682565 -1.1222e-19 0.00221425 3.62633e-20 -0.000102054)
(-0.00175695 0.00736658 -4.50003e-20 0.00188145 -1.74417e-19 -0.000124498)
(-0.00138427 0.00786285 1.07183e-20 0.00154154 5.9457e-19 -0.000157264)
(-0.00100155 0.00844023 -1.43457e-20 0.00119138 1.99862e-19 -0.000189824)
(-0.000591727 0.00913671 -8.57393e-21 0.000813427 -5.58826e-19 -0.0002217)
(-0.000142965 0.00984111 -2.38285e-20 0.000400985 -2.58544e-20 -0.000258019)
(0.000366819 0.010543 -7.47352e-21 -8.02578e-05 8.37514e-20 -0.000286561)
(0.000946679 0.0112556 -1.11455e-20 -0.000641192 -1.66446e-20 -0.000305487)
(0.00156436 0.0119889 3.08977e-20 -0.00124335 -2.82196e-19 -0.000321013)
(0.00211978 0.0125385 2.46029e-20 -0.00177625 3.94831e-19 -0.000343533)
(0.002569 0.0126879 -4.71154e-20 -0.0022195 -3.59627e-19 -0.000349499)
(0.00286605 0.0123869 -6.17371e-21 -0.00253862 2.91968e-19 -0.000327434)
(0.00304092 0.011923 7.53296e-20 -0.00275723 9.36818e-19 -0.000283688)
(0.00309403 0.0113882 1.40829e-19 -0.0028701 5.1754e-19 -0.00022393)
(0.00290758 0.0105177 -3.37745e-20 -0.00277726 1.46474e-19 -0.000130318)
(0.00244071 0.00936164 -9.26828e-20 -0.00244466 2.88982e-19 3.94931e-06)
(0.00170868 0.00813509 4.51426e-20 -0.00187898 5.14285e-19 0.0001703)
(0.000760339 0.00721724 -1.14859e-19 -0.00110577 -7.90356e-19 0.000345428)
(-0.00049821 0.00693974 -6.09101e-20 -3.84008e-05 -1.27765e-18 0.00053661)
(-0.00234796 0.0066965 -1.41498e-19 0.00158647 -2.69714e-18 0.000761494)
(-0.00474172 0.00667287 6.24389e-20 0.00372184 -1.35842e-18 0.00101988)
(-0.00771406 0.00688333 -9.22359e-20 0.00632719 1.29623e-19 0.00138687)
(-0.0112941 0.00742413 -4.65493e-19 0.00939097 -4.11007e-18 0.00190312)
(-0.0155602 0.00884268 -6.01879e-20 0.0131247 -3.4441e-19 0.00243547)
(-0.0199762 0.010979 -5.46147e-19 0.0180456 -2.54004e-18 0.00193059)
(-0.0338549 0.0131037 1.23844e-18 0.030199 5.3396e-18 0.00365588)
(-0.0262872 0.0262773 7.69301e-19 0.0289894 4.57366e-18 -0.00270216)
(-0.116924 -0.115655 -4.04514e-19 0.0717781 -6.49283e-19 0.0451463)
(0.0021301 -0.00414206 -5.22887e-22 -0.00239693 -7.47981e-22 0.000266828)
(-0.000395843 -0.00398101 -1.02015e-20 0.000541746 -2.60205e-20 -0.000145903)
(0.00857963 0.00468752 2.09351e-20 -0.00804997 1.02757e-19 -0.000529662)
(0.0433653 0.0186689 6.03307e-20 -0.0440633 9.32119e-20 0.000697986)
(0.280195 0.0485591 -7.62546e-21 -0.282555 -3.76243e-20 0.0023601)
(0.38016 -0.0345646 -3.00628e-19 -0.378601 1.18395e-18 -0.00155871)
(0.173727 -0.0973439 2.73239e-20 -0.173053 1.19058e-20 -0.000673683)
(0.0542624 -0.0540468 9.63046e-20 -0.0507292 -2.45152e-18 -0.00353318)
(0.021246 -0.0285638 -1.68397e-19 -0.0207745 2.57753e-20 -0.000471542)
(0.011504 -0.0175368 2.39188e-19 -0.0117101 -6.9988e-19 0.000206039)
(0.00552814 -0.0102924 -4.4163e-19 -0.00561613 1.04103e-18 8.79933e-05)
(0.00252096 -0.0060369 7.65053e-19 -0.00251313 -2.09265e-18 -7.82726e-06)
(0.0011945 -0.00272334 -3.79404e-20 -0.00126548 -6.99609e-20 7.09867e-05)
(0.000411999 -0.000448323 1.54037e-19 -0.000432587 -9.2123e-19 2.05879e-05)
(0.00022902 0.00118985 2.56347e-20 -0.000287065 9.62404e-19 5.80454e-05)
(0.00026283 0.00240568 -7.90678e-20 -0.00031645 -3.68457e-19 5.36203e-05)
(0.000457306 0.00325375 -3.71303e-21 -0.000512951 -6.2107e-19 5.56444e-05)
(0.000752329 0.00384653 4.20011e-20 -0.000811453 -4.44525e-19 5.91237e-05)
(0.00108233 0.00425961 1.98247e-20 -0.00113226 -2.5328e-20 4.99307e-05)
(0.00145312 0.00449919 2.62686e-20 -0.00150056 2.80808e-20 4.74389e-05)
(0.00183967 0.00459242 3.21423e-21 -0.00188086 8.51952e-20 4.11897e-05)
(0.0022496 0.00451988 -4.44663e-20 -0.00229524 1.36169e-19 4.56332e-05)
(0.00261559 0.00416292 -3.79331e-20 -0.00266106 -4.47147e-19 4.54608e-05)
(0.00285934 0.00348202 -4.00128e-20 -0.00289726 -1.79269e-19 3.79149e-05)
(0.00291273 0.00258474 8.35706e-20 -0.00293397 -2.82139e-19 2.12401e-05)
(0.00274701 0.00163435 -1.39958e-20 -0.0027488 -2.6157e-19 1.78326e-06)
(0.00232416 0.000786262 -2.2962e-19 -0.00229914 2.69204e-19 -2.50246e-05)
(0.00157449 0.000173297 -8.02454e-20 -0.00151469 -1.09108e-18 -5.97979e-05)
(0.000428753 -2.56537e-05 1.94144e-19 -0.000327738 2.67889e-19 -0.000101015)
(-0.0012084 0.000261246 2.6547e-19 0.00134549 1.13255e-18 -0.000137096)
(-0.00354689 0.000862384 -1.85044e-19 0.00370733 6.39213e-19 -0.000160444)
(-0.00691081 0.00149157 4.34993e-19 0.00708752 2.62494e-18 -0.000176714)
(-0.0112708 0.00285843 1.88733e-19 0.0114464 8.25587e-19 -0.000175608)
(-0.0166541 0.00506516 -3.89908e-19 0.016782 9.15262e-19 -0.00012791)
(-0.0231271 0.00825866 -4.84511e-19 0.0231488 -9.59404e-19 -2.1624e-05)
(-0.0309592 0.0127075 3.17349e-19 0.0307397 2.02414e-18 0.000219556)
(-0.040329 0.0191227 2.7562e-19 0.0396341 -2.12481e-18 0.000694847)
(-0.048804 0.0274178 5.69363e-19 0.0487974 1.93878e-18 6.53971e-06)
(-0.0750774 0.0356598 -4.26055e-19 0.0714419 -9.44463e-19 0.00363549)
(-0.0645936 0.0773783 3.78864e-20 0.0699295 -4.86287e-19 -0.00533586)
(-0.152567 -0.00361641 4.68486e-19 0.151032 1.65785e-18 0.00153537)
(0.00197757 -0.00263426 -1.47419e-22 -0.00207722 -7.15425e-22 9.9651e-05)
(-0.000269764 -0.00293008 -3.78873e-22 8.09011e-05 2.83325e-21 0.000188862)
(-0.000856803 -0.00211354 -1.49028e-20 0.000836975 -3.41257e-20 1.98273e-05)
(0.00324272 0.00145793 -1.99689e-20 -0.00314213 -3.90877e-20 -0.000100592)
(0.0635027 0.0210468 3.91833e-20 -0.0639945 4.65581e-20 0.000491775)
(0.324125 0.0430384 2.42283e-19 -0.327874 1.01444e-20 0.00374923)
(0.487822 -0.0441609 2.54385e-19 -0.486011 -1.38291e-18 -0.00181016)
(0.29815 -0.136108 8.95982e-19 -0.302284 -1.40363e-18 0.00413387)
(0.104037 -0.0941357 -4.06595e-19 -0.098187 1.21858e-18 -0.00584982)
(0.0478091 -0.0573906 2.29476e-19 -0.0463633 3.98381e-19 -0.00144585)
(0.0254679 -0.0355985 -3.48621e-19 -0.0254086 1.11884e-18 -5.92928e-05)
(0.0146114 -0.0252176 -5.78054e-19 -0.0146499 1.25615e-18 3.84672e-05)
(0.00910984 -0.0180809 4.63112e-19 -0.00920588 -9.48555e-19 9.60415e-05)
(0.00567623 -0.0130578 -1.13995e-19 -0.00562041 9.34284e-19 -5.58185e-05)
(0.00397451 -0.00961079 -1.98009e-19 -0.00396039 -1.0555e-18 -1.41201e-05)
(0.00305505 -0.00708506 -1.13173e-19 -0.00303195 -4.56781e-19 -2.31027e-05)
(0.00264128 -0.0054485 5.18178e-20 -0.0026219 2.25121e-19 -1.93836e-05)
(0.00253325 -0.0043168 1.13883e-19 -0.00253098 1.37079e-20 -2.26674e-06)
(0.00254977 -0.00365484 3.12368e-20 -0.00254414 5.34942e-20 -5.62593e-06)
(0.00266986 -0.00337705 -1.21639e-20 -0.0026791 -7.69034e-20 9.23956e-06)
(0.00280402 -0.00341258 -2.742e-20 -0.00281147 -1.96551e-19 7.4458e-06)
(0.00299919 -0.0037028 2.59911e-20 -0.00300916 -2.79578e-19 9.96786e-06)
(0.00323971 -0.00429728 2.30714e-20 -0.00325443 -1.26199e-19 1.47203e-05)
(0.00340883 -0.00518917 8.58512e-21 -0.00342791 1.17286e-19 1.90889e-05)
(0.00339398 -0.00619008 -6.84364e-20 -0.00340916 7.08632e-19 1.51789e-05)
(0.00312186 -0.00710615 2.52214e-19 -0.00313334 -8.11201e-19 1.1486e-05)
(0.0024857 -0.00779801 1.8127e-19 -0.0024961 -6.25339e-19 1.03972e-05)
(0.00132019 -0.00814069 2.00375e-19 -0.00133122 1.5301e-18 1.1025e-05)
(-0.000577893 -0.00800007 -6.30297e-20 0.000565327 4.08316e-19 1.25659e-05)
(-0.00345426 -0.0072851 -5.58882e-19 0.00343683 -5.98563e-19 1.7431e-05)
(-0.00758942 -0.00589439 1.76077e-19 0.00756587 -1.0803e-18 2.35432e-05)
(-0.0132297 -0.00359473 -4.46627e-19 0.0132012 6.56083e-19 2.8462e-05)
(-0.0205108 7.10199e-05 3.85059e-19 0.0204734 -5.57246e-19 3.74376e-05)
(-0.0295666 0.00536524 4.43897e-19 0.0295222 -1.41889e-18 4.43499e-05)
(-0.0404988 0.0125491 4.37258e-19 0.0404713 8.26727e-19 2.75548e-05)
(-0.0538033 0.0219716 4.75e-19 0.0537217 1.79024e-18 8.15733e-05)
(-0.0698973 0.0347733 3.90809e-19 0.0694964 1.88894e-18 0.000400868)
(-0.0842706 0.0520839 -5.77605e-19 0.0853571 -2.36238e-18 -0.00108644)
(-0.122247 0.0683333 1.24114e-20 0.118457 -8.04858e-19 0.00378996)
(-0.112682 0.142244 -1.67772e-19 0.120219 -1.66266e-18 -0.00753724)
(-0.148227 0.0728949 -4.84578e-19 0.143647 -8.06566e-19 0.00458051)
(0.00155184 -0.00195377 1.38962e-21 -0.00154197 3.33558e-21 -9.87265e-06)
(0.000438352 -0.00223103 -2.25799e-21 -0.000384823 -4.49218e-21 -5.35291e-05)
(-0.000685381 -0.00228284 1.1505e-20 0.00068921 2.33063e-20 -3.82961e-06)
(-0.000530651 -0.00109973 1.4631e-20 0.000549535 2.56787e-20 -1.88837e-05)
(0.00160106 0.000479626 -1.48146e-20 -0.00155988 -2.20063e-20 -4.11805e-05)
(0.0586517 0.0154305 3.4128e-20 -0.0588 -1.11327e-20 0.000148278)
(0.308829 0.0306031 -7.28832e-20 -0.312334 -8.90362e-21 0.0035049)
(0.550035 -0.0463653 -2.53289e-19 -0.548029 3.16006e-19 -0.002006)
(0.440912 -0.16556 4.01036e-19 -0.447085 -1.80563e-19 0.00617281)
(0.187156 -0.150841 1.02456e-20 -0.184184 1.81064e-19 -0.00297144)
(0.0849727 -0.0952897 3.6097e-19 -0.080505 -2.33299e-18 -0.00446778)
(0.0454715 -0.0613178 -2.56495e-19 -0.0449393 3.96139e-19 -0.000532217)
(0.0276479 -0.0442751 -2.9012e-19 -0.0280329 2.31349e-19 0.000384996)
(0.0174014 -0.0332646 3.32231e-19 -0.0174897 -2.31338e-18 8.83425e-05)
(0.0117063 -0.0264555 2.64354e-19 -0.0117297 1.30945e-19 2.33673e-05)
(0.00843463 -0.0213173 1.68177e-19 -0.00842366 1.77767e-19 -1.0971e-05)
(0.00657008 -0.0180885 -1.55309e-19 -0.00654394 6.28192e-19 -2.61443e-05)
(0.00556503 -0.015868 -1.14877e-20 -0.00556128 1.37993e-19 -3.74529e-06)
(0.00494075 -0.0145836 3.6983e-20 -0.00491979 -6.67173e-20 -2.09605e-05)
(0.00461062 -0.0139954 4.70213e-20 -0.00460718 4.95503e-20 -3.44538e-06)
(0.00437684 -0.0138737 -9.45795e-21 -0.00436415 2.30629e-19 -1.26875e-05)
(0.00432699 -0.0140605 -8.90416e-20 -0.00431401 2.28829e-19 -1.29745e-05)
(0.0044632 -0.0145738 1.21847e-19 -0.00444741 1.74918e-19 -1.57882e-05)
(0.00461458 -0.0154269 1.51392e-19 -0.00460245 4.01285e-19 -1.21341e-05)
(0.0045956 -0.0164144 -1.77836e-19 -0.00458471 -9.74261e-20 -1.08909e-05)
(0.00424265 -0.0173343 -1.3357e-19 -0.00423275 2.04565e-18 -9.89718e-06)
(0.00335069 -0.018005 8.26269e-20 -0.00334431 -3.16521e-20 -6.38071e-06)
(0.00163976 -0.0182198 -2.96803e-19 -0.00163718 -8.34975e-19 -2.58409e-06)
(-0.00121779 -0.0177398 -5.06094e-19 0.00121342 -1.61471e-18 4.37347e-06)
(-0.00558403 -0.0162978 3.65564e-19 0.00556898 -6.65839e-19 1.50542e-05)
(-0.0118207 -0.0135542 1.2375e-19 0.0117954 1.75944e-18 2.52812e-05)
(-0.0202374 -0.009092 2.62275e-19 0.0202027 -1.06476e-18 3.47051e-05)
(-0.0310955 -0.00244194 -2.21581e-19 0.0310425 2.95659e-18 5.29756e-05)
(-0.0445939 0.00685496 -8.86948e-19 0.0445266 1.42606e-19 6.73452e-05)
(-0.0608253 0.0192303 -3.25105e-19 0.0607862 6.16226e-19 3.91071e-05)
(-0.0803932 0.0351669 -4.41011e-19 0.0802875 7.36816e-19 0.000105697)
(-0.103861 0.0562654 -7.64482e-20 0.103322 -3.231e-20 0.000538724)
(-0.124838 0.0856681 2.18102e-20 0.126448 7.15175e-20 -0.00160999)
(-0.17013 0.111908 -4.59375e-20 0.165428 1.62285e-18 0.00470231)
(-0.168567 0.213171 -9.39488e-20 0.178257 -1.08714e-18 -0.00969038)
(-0.158652 0.155994 6.83559e-19 0.151556 -7.2535e-19 0.00709526)
(0.00118401 -0.00135567 -1.3932e-21 -0.00119343 -2.36237e-21 9.42183e-06)
(0.000456394 -0.00158872 7.09783e-21 -0.000440711 1.15413e-20 -1.56832e-05)
(-0.00018089 -0.00160767 -3.60918e-21 0.000191026 -7.79747e-21 -1.01352e-05)
(-0.000782554 -0.00158639 -3.31096e-21 0.000774152 -8.77472e-21 8.40172e-06)
(-0.000407842 -0.000649751 2.06561e-21 0.000411209 4.94979e-21 -3.367e-06)
(0.000706693 8.75575e-05 -1.8332e-21 -0.00068546 -1.81884e-21 -2.1233e-05)
(0.0403647 0.0081467 -2.46192e-20 -0.0402709 -2.52809e-20 -9.38208e-05)
(0.24872 0.0185677 -7.95227e-20 -0.250728 9.81534e-20 0.00200771)
(0.557179 -0.0442337 -1.6678e-19 -0.557402 -1.60949e-19 0.000222648)
(0.574274 -0.176414 -3.66926e-19 -0.577687 -9.58039e-19 0.00341281)
(0.32208 -0.218167 3.69732e-19 -0.327875 5.54919e-19 0.00579557)
(0.140874 -0.146309 5.99576e-19 -0.13328 -8.23049e-19 -0.00759396)
(0.0754497 -0.0996225 -8.01025e-19 -0.0729906 6.171e-19 -0.00245911)
(0.0457031 -0.0696365 3.4482e-19 -0.0456977 1.07523e-18 -5.46714e-06)
(0.0289321 -0.054038 2.21618e-20 -0.0292878 4.74774e-19 0.000355701)
(0.0195121 -0.0431859 -2.27993e-19 -0.0196571 -8.52734e-20 0.00014502)
(0.013977 -0.0366205 1.58856e-19 -0.0139397 -8.88925e-19 -3.72434e-05)
(0.0108611 -0.032108 -3.42223e-20 -0.0108588 5.78276e-19 -2.2554e-06)
(0.00886857 -0.0293526 6.93004e-20 -0.00883916 -1.099e-19 -2.94093e-05)
(0.00770359 -0.0279343 4.65745e-20 -0.00771174 2.01339e-19 8.14216e-06)
(0.00690328 -0.0273378 -6.19754e-20 -0.00689504 -2.90379e-19 -8.24003e-06)
(0.00654668 -0.0272468 2.9243e-20 -0.00654413 1.17017e-20 -2.55025e-06)
(0.00658315 -0.0276115 1.42829e-20 -0.00657348 1.01185e-19 -9.67234e-06)
(0.00674837 -0.0284647 -2.93694e-19 -0.00673907 -3.38879e-19 -9.30652e-06)
(0.00676312 -0.029552 3.19861e-19 -0.00675136 -7.99335e-19 -1.17628e-05)
(0.00635981 -0.0306187 4.43932e-20 -0.0063453 -4.2858e-19 -1.45161e-05)
(0.00522551 -0.0313833 -5.35671e-19 -0.00521254 -4.29827e-19 -1.29706e-05)
(0.00295243 -0.0314966 5.32799e-20 -0.00294097 -9.72454e-19 -1.14546e-05)
(-0.000924149 -0.0305453 8.48867e-19 0.000928229 -1.18246e-19 -4.07967e-06)
(-0.00689934 -0.0280659 3.38033e-19 0.00688956 1.42718e-18 9.78019e-06)
(-0.0154556 -0.0235067 -4.12437e-19 0.0154333 -7.75826e-19 2.23117e-05)
(-0.0270097 -0.0162712 -4.92887e-19 0.0269779 6.3353e-19 3.17594e-05)
(-0.0419207 -0.00575129 -2.18534e-19 0.041866 -3.13885e-18 5.46557e-05)
(-0.0604215 0.00874233 7.59782e-19 0.0603466 -1.9506e-18 7.4833e-05)
(-0.0825357 0.0278694 6.14755e-19 0.082499 -1.78151e-18 3.66993e-05)
(-0.108814 0.0522541 -1.19394e-19 0.108683 -6.9206e-20 0.00013099)
(-0.1397 0.0839411 1.4388e-19 0.139049 1.44112e-18 0.000651002)
(-0.167376 0.12795 6.19394e-20 0.16928 -8.24405e-19 -0.00190434)
(-0.214779 0.167325 -1.81227e-19 0.209481 7.3714e-19 0.0052979)
(-0.225418 0.28596 -5.41041e-19 0.235709 1.76193e-18 -0.0102909)
(-0.186053 0.251754 -6.22104e-19 0.179092 -8.58194e-19 0.00696111)
(0.000915701 -0.00092262 -3.32034e-22 -0.000921405 -6.15083e-22 5.70428e-06)
(0.000456858 -0.00115597 7.62126e-22 -0.000457024 9.24244e-22 1.66786e-07)
(3.1725e-05 -0.00116947 -3.67953e-21 -2.94692e-05 -4.90325e-21 -2.25582e-06)
(-0.000378565 -0.00117742 -5.64633e-21 0.000382677 -7.09284e-21 -4.11137e-06)
(-0.00071391 -0.00108146 -2.03032e-21 0.000709945 -2.37249e-21 3.96427e-06)
(-0.000387233 -0.000478104 4.97555e-21 0.00038615 6.88328e-21 1.08352e-06)
(0.000289568 -7.39162e-05 -1.38652e-21 -0.000278424 -2.09058e-21 -1.11437e-05)
(0.018788 0.00260145 1.99695e-20 -0.0186708 2.20011e-20 -0.000117247)
(0.16841 0.00866049 2.40377e-19 -0.169042 2.31486e-19 0.000631579)
(0.485562 -0.0378631 -1.69011e-19 -0.487686 3.86676e-19 0.00212344)
(0.659162 -0.161552 -2.67916e-19 -0.657552 6.41994e-19 -0.00161038)
(0.495233 -0.268223 2.67547e-19 -0.505232 -1.06085e-18 0.00999855)
(0.242251 -0.227093 4.39928e-19 -0.241391 1.3112e-18 -0.000859345)
(0.119384 -0.149493 -7.80573e-19 -0.112033 -2.91344e-19 -0.00735023)
(0.0702322 -0.106413 3.28235e-19 -0.0688892 -1.33599e-18 -0.00134306)
(0.0455791 -0.0811497 -2.20038e-19 -0.0459717 7.64837e-19 0.000392595)
(0.0302541 -0.0661618 1.33279e-19 -0.0305326 7.48344e-19 0.00027853)
(0.0214022 -0.0561838 1.58452e-19 -0.021549 3.85501e-19 0.000146857)
(0.0159883 -0.0499911 -8.21392e-20 -0.0159362 3.40233e-19 -5.20565e-05)
(0.0129036 -0.046624 9.39443e-21 -0.0128993 -9.8438e-19 -4.32629e-06)
(0.01095 -0.0449485 2.11778e-20 -0.010914 4.19966e-19 -3.59971e-05)
(0.0100507 -0.044346 -1.29159e-19 -0.0100396 -8.09347e-21 -1.10049e-05)
(0.00992644 -0.0445444 1.21267e-19 -0.0099106 -4.73912e-19 -1.58389e-05)
(0.0101305 -0.045516 2.02487e-19 -0.0101201 -7.01505e-20 -1.03561e-05)
(0.0102545 -0.0468721 -1.77514e-19 -0.0102436 1.02711e-18 -1.08584e-05)
(0.00990178 -0.0482504 -3.2173e-19 -0.0098883 -9.03479e-19 -1.3476e-05)
(0.00863814 -0.0492265 4.11205e-19 -0.00862511 -5.40206e-19 -1.30303e-05)
(0.00591888 -0.0492638 2.08137e-19 -0.00590559 1.63524e-18 -1.32972e-05)
(0.00112006 -0.0477212 1.44714e-19 -0.00111337 1.79438e-18 -6.6906e-06)
(-0.00640579 -0.0439149 -2.0413e-19 0.00639646 -3.27106e-19 9.33203e-06)
(-0.0172804 -0.0370544 -2.18602e-20 0.0172549 -1.18062e-18 2.55695e-05)
(-0.0320382 -0.0263085 -4.02528e-19 0.0320034 -3.56609e-19 3.48598e-05)
(-0.0511042 -0.0108652 -1.90085e-19 0.0510437 1.47794e-18 6.04864e-05)
(-0.0746915 0.0102117 9.13026e-20 0.0746082 2.27227e-18 8.3277e-05)
(-0.102665 0.0378259 1.3175e-18 0.102631 7.67947e-19 3.43319e-05)
(-0.135294 0.07269 2.4479e-19 0.135139 -8.55929e-19 0.00015531)
(-0.172503 0.117127 -1.51923e-18 0.171859 -7.60561e-19 0.000644946)
(-0.205794 0.176884 -3.07542e-20 0.207739 -1.962e-19 -0.00194544)
(-0.251276 0.232721 5.12555e-21 0.246309 -1.88584e-18 0.00496649)
(-0.273731 0.358081 -1.35025e-19 0.282909 6.02169e-19 -0.00917809)
(-0.219047 0.356025 4.13655e-19 0.214931 1.5674e-18 0.00411542)
(0.000694812 -0.000644383 -6.84693e-23 -0.000700725 -1.14352e-23 5.91341e-06)
(0.000424081 -0.000826238 -1.41939e-21 -0.000423063 -1.92438e-21 -1.01771e-06)
(0.000136509 -0.000903611 1.37832e-21 -0.000134996 1.83487e-21 -1.51281e-06)
(-0.000136064 -0.000868191 6.33165e-21 0.000139439 8.45831e-21 -3.37521e-06)
(-0.000411471 -0.000846202 1.19864e-21 0.0004167 1.66388e-21 -5.22958e-06)
(-0.000632344 -0.000777337 1.07802e-21 0.000631298 5.87688e-22 1.04624e-06)
(-0.000375184 -0.000376969 -7.62018e-21 0.000372368 -8.40553e-21 2.8152e-06)
(2.31965e-05 -0.000157928 -3.44821e-22 -1.87241e-05 -2.37818e-22 -4.47234e-06)
(0.00525714 0.000253571 -1.10982e-20 -0.00520069 -1.5985e-20 -5.6442e-05)
(0.0919286 0.00216269 1.74228e-19 -0.0918949 1.96355e-19 -3.3714e-05)
(0.352463 -0.0268387 -2.78363e-19 -0.353947 -6.84853e-19 0.00148368)
(0.648464 -0.135006 -1.03706e-19 -0.647955 8.49348e-19 -0.000509052)
(0.654676 -0.27452 1.46236e-19 -0.658495 -1.02072e-18 0.00381847)
(0.40733 -0.31376 -3.54788e-19 -0.417222 -3.87316e-19 0.00989206)
(0.197666 -0.229252 9.26788e-19 -0.19185 -2.71459e-19 -0.00581584)
(0.106949 -0.157892 3.81628e-19 -0.100925 8.22809e-19 -0.00602441)
(0.0675243 -0.11765 -3.42384e-19 -0.0668248 5.12411e-19 -0.000699521)
(0.0454231 -0.0954627 -3.76789e-19 -0.0460427 4.3294e-19 0.000619553)
(0.0313941 -0.0817216 -6.0355e-19 -0.0316823 -3.56255e-20 0.000288194)
(0.0229816 -0.0734343 4.66814e-19 -0.0231211 -6.01338e-19 0.000139461)
(0.0179444 -0.0688803 1.94866e-19 -0.0178732 8.32288e-19 -7.11818e-05)
(0.0156304 -0.0670096 -3.47844e-19 -0.0155834 -2.02713e-19 -4.69269e-05)
(0.0150068 -0.0667272 1.21098e-19 -0.0149513 3.49102e-19 -5.54534e-05)
(0.0151969 -0.0678149 9.15802e-20 -0.0151566 2.31728e-19 -4.0269e-05)
(0.0155475 -0.0695982 1.73168e-20 -0.015517 -3.72847e-19 -3.0405e-05)
(0.0154605 -0.0715147 -2.34103e-20 -0.0154364 5.25142e-19 -2.4116e-05)
(0.0143469 -0.0729219 3.35926e-19 -0.0143339 1.36807e-18 -1.29834e-05)
(0.0115071 -0.0730263 3.06323e-19 -0.0115021 -5.43122e-19 -5.02897e-06)
(0.00613695 -0.0708543 -4.54075e-19 -0.0061408 3.80094e-20 3.85159e-06)
(-0.00256504 -0.0654816 -9.8578e-19 0.00254514 -1.14296e-18 1.99039e-05)
(-0.0153554 -0.0558332 2.51291e-19 0.0153156 7.64457e-20 3.98745e-05)
(-0.0328754 -0.0407916 5.62624e-19 0.0328267 -1.04104e-18 4.86846e-05)
(-0.0555721 -0.0193108 6.24799e-19 0.0554965 3.27271e-19 7.55652e-05)
(-0.0835626 0.0097635 -4.13259e-19 0.0834648 -1.83728e-19 9.77825e-05)
(-0.116436 0.0475111 -7.49235e-19 0.116389 1.49793e-18 4.66364e-05)
(-0.153922 0.0945987 -6.15903e-19 0.153735 -1.41309e-18 0.000187718)
(-0.195071 0.153207 9.24243e-19 0.194522 -1.96619e-19 0.000549013)
(-0.231504 0.228092 5.53653e-20 0.233144 3.47655e-19 -0.00164032)
(-0.272081 0.301693 1.74703e-19 0.268258 -3.46544e-19 0.00382239)
(-0.300718 0.425093 -7.36627e-20 0.307101 -8.60006e-19 -0.00638292)
(-0.243597 0.455742 -4.35447e-19 0.244263 5.41758e-19 -0.000665139)
(0.000529923 -0.000457307 -2.22978e-22 -0.000534028 -7.2336e-23 4.10517e-06)
(0.000359682 -0.000590666 -1.18738e-21 -0.000359063 -1.85801e-21 -6.18489e-07)
(0.000178984 -0.000669112 4.97615e-21 -0.000178658 5.65803e-21 -3.259e-07)
(-1.26922e-05 -0.000686236 -6.77096e-22 1.25802e-05 -8.35525e-22 1.11969e-07)
(-0.000191882 -0.000632372 1.77548e-21 0.00019355 1.65064e-21 -1.66842e-06)
(-0.000390127 -0.000618013 -1.60292e-21 0.000394534 -1.46496e-21 -4.40677e-06)
(-0.000507888 -0.000524288 3.91044e-21 0.000508995 5.22765e-21 -1.10616e-06)
(-0.000355472 -0.000300033 3.0786e-21 0.00035311 2.59182e-21 2.36272e-06)
(-0.000150799 -0.000193282 5.63769e-23 0.00015112 9.4004e-22 -3.21383e-07)
(0.000398799 -6.01351e-05 4.25178e-21 -0.000392844 3.77792e-21 -5.95431e-06)
(0.0357683 -0.000638425 -5.23889e-21 -0.0356172 5.18676e-21 -0.000151038)
(0.205022 -0.0167224 -3.22826e-19 -0.205348 -2.17456e-19 0.000325296)
(0.519734 -0.0967425 2.00056e-19 -0.520808 -3.94666e-19 0.0010736)
(0.723434 -0.240576 -4.88532e-19 -0.722005 9.21119e-19 -0.00142886)
(0.604985 -0.358732 -2.55208e-19 -0.614267 -9.22187e-19 0.00928227)
(0.343405 -0.337806 5.44677e-19 -0.350317 7.38217e-19 0.00691206)
(0.172912 -0.238013 3.34824e-19 -0.164821 -1.53229e-18 -0.00809116)
(0.0996962 -0.171198 1.68823e-19 -0.0944505 5.68982e-19 -0.00524572)
(0.0660248 -0.13407 -7.27195e-19 -0.065721 -1.11161e-18 -0.000303851)
(0.0453377 -0.114395 2.92052e-19 -0.0461072 1.1776e-18 0.000769539)
(0.0323175 -0.103367 7.61403e-20 -0.0326354 -8.6537e-19 0.000317848)
(0.0256252 -0.0982269 -3.23764e-19 -0.0257237 4.24519e-19 9.85694e-05)
(0.0230538 -0.0965204 2.41942e-19 -0.0229693 4.84577e-21 -8.45202e-05)
(0.0226773 -0.0973784 -4.0624e-20 -0.0225753 2.74141e-20 -0.000102051)
(0.0232255 -0.0995683 -8.89356e-20 -0.0231431 7.28326e-19 -8.23797e-05)
(0.0236719 -0.102072 1.07708e-19 -0.023604 -1.72536e-19 -6.78811e-05)
(0.0231867 -0.103986 -7.6093e-19 -0.0231376 8.00451e-21 -4.90873e-05)
(0.02088 -0.104271 -3.70994e-19 -0.0208517 1.88829e-19 -2.82238e-05)
(0.0157437 -0.101618 -1.9334e-19 -0.0157444 -1.21344e-18 7.2869e-07)
(0.00679383 -0.0946552 9.45738e-19 -0.00683593 1.03113e-19 4.21057e-05)
(-0.00684654 -0.0819304 1.60201e-19 0.0067634 8.08391e-19 8.3134e-05)
(-0.0258948 -0.0619853 2.86613e-19 0.0257967 8.94454e-19 9.81364e-05)
(-0.0507686 -0.0335471 -5.94598e-19 0.0506512 2.61285e-19 0.000117407)
(-0.0813968 0.00463358 4.82001e-19 0.0812657 -1.16537e-18 0.000131136)
(-0.116977 0.053636 2.80913e-19 0.116896 -1.40836e-19 8.12656e-05)
(-0.156492 0.113835 9.97819e-19 0.156275 3.19368e-19 0.000217785)
(-0.197984 0.186612 -1.4204e-18 0.197567 4.0627e-19 0.000417404)
(-0.233829 0.274398 -1.9135e-19 0.234992 1.44497e-19 -0.00116276)
(-0.26704 0.362947 2.91831e-19 0.264831 4.5162e-19 0.00220813)
(-0.294535 0.478271 4.06192e-19 0.29706 2.81862e-20 -0.00252503)
(-0.246634 0.532705 1.79848e-19 0.252535 -1.21887e-18 -0.00590085)
(0.000402998 -0.000328414 -8.76009e-22 -0.000405915 -1.01953e-21 2.91715e-06)
(0.000292459 -0.000425391 3.54236e-21 -0.000292581 3.69669e-21 1.21262e-07)
(0.000176503 -0.000488998 -8.31812e-22 -0.000176536 -7.17784e-22 3.36847e-08)
(5.02709e-05 -0.000522834 -6.51539e-21 -5.04437e-05 -6.86735e-21 1.72842e-07)
(-7.93417e-05 -0.000514861 -6.16504e-22 7.91169e-05 -8.35459e-22 2.2483e-07)
(-0.000197985 -0.000464587 6.4386e-21 0.000198823 6.88171e-21 -8.37488e-07)
(-0.000336328 -0.000441879 -1.64335e-21 0.00033939 -2.15568e-21 -3.06219e-06)
(-0.000396058 -0.00035078 -1.44236e-20 0.000398111 -1.43529e-20 -2.0527e-06)
(-0.000321395 -0.000230935 1.0302e-20 0.000320355 9.97098e-21 1.03985e-06)
(-0.000228181 -0.000177447 5.22438e-22 0.000226517 -4.86124e-22 1.66412e-06)
(6.79295e-05 -0.000103273 -4.39665e-22 -6.59066e-05 -7.23831e-22 -2.0229e-06)
(0.0090027 -0.000940123 -1.06767e-20 -0.00892972 -6.09005e-21 -7.29794e-05)
(0.0904609 -0.00911829 -1.92536e-19 -0.0903166 -1.27403e-19 -0.000144328)
(0.328852 -0.0577054 1.73964e-19 -0.329456 -1.35036e-19 0.000604451)
(0.638419 -0.181204 -6.36388e-19 -0.638141 6.79411e-19 -0.000278549)
(0.742044 -0.335549 5.92449e-19 -0.742162 -3.99509e-19 0.000117843)
(0.554244 -0.418843 -4.97958e-19 -0.566389 7.50631e-19 0.0121451)
(0.305312 -0.360641 -1.06563e-19 -0.3096 -1.73213e-19 0.00428769)
(0.159526 -0.256491 -2.38946e-19 -0.150618 -3.53476e-19 -0.00890771)
(0.0953789 -0.191905 2.83313e-19 -0.0902127 -1.02287e-18 -0.0051662)
(0.0648473 -0.158686 4.47062e-19 -0.0646273 3.22403e-19 -0.000220052)
(0.0473127 -0.143702 -2.3739e-19 -0.0481996 -9.83009e-19 0.000886892)
(0.0383888 -0.137557 -2.25664e-19 -0.0388736 4.41811e-19 0.000484809)
(0.0348281 -0.136721 6.94076e-19 -0.0349721 -5.78657e-19 0.000144034)
(0.0343797 -0.138896 -4.05937e-19 -0.0343057 5.05571e-20 -7.4021e-05)
(0.0352689 -0.142362 -5.58967e-19 -0.0351123 -3.67071e-19 -0.000156524)
(0.0360338 -0.145409 9.9473e-19 -0.0358918 -1.40453e-18 -0.000141987)
(0.0352823 -0.14621 -2.5188e-20 -0.0351869 1.06123e-18 -9.5416e-05)
(0.0316951 -0.143049 1.94512e-21 -0.0316517 -6.26354e-20 -4.3396e-05)
(0.0241477 -0.134362 -6.00594e-19 -0.0241589 1.04721e-18 1.11793e-05)
(0.0116689 -0.118417 6.36027e-20 -0.0117412 -6.2996e-19 7.23001e-05)
(-0.00653982 -0.0933078 -1.44221e-20 0.00640412 3.15103e-19 0.000135704)
(-0.0308632 -0.0574974 -6.7368e-19 0.0306619 -5.7129e-19 0.000201308)
(-0.0609898 -0.00980341 3.65509e-19 0.0607385 1.69047e-18 0.00025127)
(-0.0956705 0.0505768 -5.0611e-19 0.0954459 2.63081e-19 0.000224654)
(-0.133084 0.123352 -4.87072e-19 0.132749 7.02951e-21 0.000335852)
(-0.170409 0.208361 6.6267e-19 0.17001 -1.80196e-18 0.000399493)
(-0.201158 0.305184 -3.65906e-20 0.201836 7.23395e-19 -0.000678387)
(-0.225372 0.401901 -1.53463e-19 0.224524 -9.21202e-19 0.000848464)