/*--------------------------------*- C++ -*----------------------------------*\
| =========                 |                                                 |
| \\      /  F ield         | OpenFOAM: The Open Source CFD Toolbox           |
|  \\    /   O peration     | Version:  2312                                  |
|   \\  /    A nd           | Website:  www.openfoam.com                      |
|    \\/     M anipulation  |                                                 |
\*---------------------------------------------------------------------------*/
FoamFile
{
    version     2.0;
    format      ascii;
    arch        "LSB;label=32;scalar=64";
    class       volScalarField;
    location    "600";
    object      turbulenceProperties:L;
}
// * * * * * * * * * * * * * * * * * * * * * * * * * * * * * * * * * * * * * //

dimensions      [0 1 0 0 0 0 0];

internalField   nonuniform List<scalar> 
11040
(
0.000442607
0.000483917
0.000864179
0.00142537
0.00137234
0.00130853
0.00128151
0.00127432
0.00125576
0.00124696
0.00123525
0.00122647
0.00121633
0.00120871
0.00120092
0.00119638
0.00119566
0.00119773
0.00120106
0.00120499
0.00120979
0.00121598
0.00122229
0.00122749
0.00123328
0.00124481
0.00126303
0.00128409
0.00130868
0.0013378
0.00137286
0.0014161
0.00147577
0.00157933
0.00175523
0.00185493
0.00189324
0.00267093
0.00448778
0.00235642
0.00227981
0.00117965
0.00105568
0.00067024
0.000875809
0.00242897
0.00437827
0.00689838
0.0108279
0.0184086
0.0196888
0.0115921
0.00928259
0.00794331
0.0071021
0.00647012
0.0060167
0.00569754
0.00548443
0.00534759
0.00525603
0.00520323
0.00518213
0.0052046
0.00529033
0.00547268
0.00585094
0.00649777
0.0073825
0.0085849
0.0101498
0.0119138
0.0133709
0.0145819
0.0150119
0.0147752
0.0141154
0.0133132
0.0129366
0.0114172
0.0117074
0.0078062
0.0015004
0.00161489
0.00130152
0.000826357
0.00155646
0.00312095
0.0053208
0.00835868
0.010675
0.0128303
0.0156623
0.0194355
0.0265622
0.0550412
0.036712
0.0247079
0.0203246
0.0179958
0.0166699
0.0159691
0.0157583
0.016016
0.0169524
0.0188056
0.0217857
0.0261787
0.0328132
0.045199
0.0972576
0.059605
0.0389599
0.0308717
0.0263996
0.0235857
0.0216533
0.0201808
0.0190376
0.018598
0.0170672
0.0165848
0.017574
0.0017741
0.00191217
0.00215932
0.00174539
0.00117784
0.00208202
0.00371759
0.00593462
0.00954175
0.0123724
0.0147336
0.0168687
0.0187487
0.0210965
0.0231885
0.0255138
0.0276234
0.0293522
0.0304843
0.0307701
0.0306093
0.030217
0.0297012
0.0293933
0.0297105
0.030833
0.0328781
0.0359868
0.0401465
0.0440414
0.0442899
0.0405894
0.0362048
0.0325357
0.0297153
0.0274997
0.0257601
0.0249213
0.0233411
0.0222371
0.0289831
0.00205409
0.00216115
0.00209697
0.00295412
0.00257078
0.00152424
0.00254105
0.00419115
0.00652395
0.0100491
0.0138993
0.0171192
0.0192065
0.0214634
0.0230924
0.0245914
0.0258034
0.0266888
0.0273266
0.027715
0.028043
0.0284899
0.029126
0.0300052
0.0313169
0.0332067
0.0358077
0.039282
0.0437448
0.0487791
0.0523048
0.0514417
0.047229
0.0426049
0.0387572
0.035694
0.0332807
0.031909
0.0304741
0.0287553
0.0380349
0.00241699
0.00252389
0.00255603
0.0024326
0.00454984
0.00568782
0.00181284
0.00293179
0.00457757
0.00700662
0.0102116
0.0150175
0.019018
0.0224556
0.0246946
0.0266066
0.0281928
0.0293212
0.0301726
0.0307781
0.0313021
0.031946
0.0328775
0.0341377
0.0358613
0.038178
0.0412358
0.045237
0.0504216
0.0567864
0.0629189
0.0647664
0.0607112
0.0546848
0.0493637
0.0451376
0.0418507
0.0397757
0.0385068
0.0363832
0.0456881
0.00284405
0.00290986
0.00300278
0.00291155
0.00285609
0.00768252
0.0666572
0.00198597
0.00323692
0.00489426
0.00729831
0.0104459
0.0149863
0.0204983
0.0249599
0.0284701
0.0310661
0.0329203
0.0344282
0.0355393
0.0364008
0.0372014
0.0382644
0.039695
0.0416385
0.0442456
0.0476913
0.052218
0.0581712
0.0659168
0.0748908
0.0808386
0.0779684
0.0700052
0.0624351
0.0564908
0.0519794
0.0489776
0.0476237
0.0453599
0.0537828
0.00332941
0.00336756
0.00339401
0.00346293
0.00333221
0.0032431
0.0262566
0.562965
0.0022455
0.00343748
0.00513895
0.00743232
0.0106147
0.0146876
0.0206148
0.0266593
0.0316356
0.0354626
0.0385017
0.0406778
0.0423298
0.0435639
0.0448298
0.046386
0.0484415
0.0512118
0.0549265
0.0598824
0.0664947
0.0754648
0.087301
0.09946
0.101291
0.091022
0.0796642
0.07091
0.064515
0.0602137
0.0583183
0.0561284
0.0633681
0.00387409
0.00390229
0.00389909
0.0039161
0.00399525
0.00377065
0.00382736
0.0146738
0.0132048
0.0082341
0.00343437
0.00526949
0.00750304
0.0105534
0.0145293
0.019741
0.0269032
0.0336806
0.039306
0.0437626
0.0473005
0.0498259
0.0519334
0.0539976
0.0563483
0.0592822
0.0631386
0.0683246
0.0753585
0.0851377
0.0991375
0.118444
0.133797
0.123698
0.10486
0.0907228
0.0810348
0.0746758
0.0715746
0.0694381
0.0753291
0.00449544
0.00451606
0.00450031
0.00447709
0.00449646
0.00456841
0.00432367
0.00453226
0.0095455
0.0370439
0.519495
0.00338746
0.00525706
0.00751691
0.0103704
0.0142118
0.0190385
0.0254856
0.0339119
0.0418137
0.0483092
0.0532826
0.0572483
0.0607021
0.0641271
0.067884
0.0723291
0.0778947
0.0851847
0.095249
0.110041
0.133404
0.170837
0.187006
0.149594
0.121724
0.105021
0.0947909
0.0893748
0.0867272
0.091146
0.00520514
0.00522023
0.00519492
0.00515546
0.00512044
0.00514449
0.00518361
0.00502385
0.00503342
0.0078741
0.0510336
0.0113643
0.0108494
0.00489859
0.00734933
0.0101291
0.0136725
0.0183324
0.0241135
0.0318767
0.0418063
0.0508555
0.057783
0.0634666
0.0687083
0.0739479
0.0796403
0.086285
0.0944472
0.104989
0.11952
0.141665
0.182157
0.289964
0.280098
0.181984
0.144765
0.125681
0.115632
0.111075
0.113392
0.00602071
0.00603049
0.00600232
0.00594684
0.00589047
0.00584677
0.00585709
0.00589122
0.00580137
0.00570663
0.00688755
0.085684
0.0981655
0.00688401
0.00442562
0.00692125
0.00975631
0.0130878
0.0173521
0.0228912
0.0297707
0.0385272
0.0488947
0.0588949
0.0673488
0.0746137
0.0817547
0.0895716
0.0985853
0.109454
0.123265
0.142106
0.170526
0.221516
0.340348
0.312012
0.216385
0.176585
0.157194
0.148492
0.147624
0.00696203
0.00696555
0.00693639
0.00687089
0.00679163
0.00671895
0.00666286
0.00665057
0.00667768
0.00664875
0.00647423
0.00693179
0.0199021
0.107505
0.021602
0.00832673
0.00596428
0.0091127
0.0124059
0.0163243
0.0213509
0.0276329
0.0348202
0.0431929
0.0533463
0.0646031
0.0756474
0.0858627
0.0957004
0.106205
0.118394
0.133261
0.151986
0.175965
0.205458
0.232896
0.238408
0.22258
0.205434
0.196645
0.196832
0.00805362
0.00804933
0.0080205
0.00794727
0.0078477
0.0077458
0.00765448
0.00757984
0.00754098
0.00755113
0.00755577
0.00736924
0.00748107
0.0107336
0.486886
0.505407
0.0110052
0.00999511
0.00758103
0.0113292
0.015218
0.0195583
0.0246889
0.0309152
0.0380831
0.0460396
0.0552904
0.0663544
0.0789686
0.0923372
0.105747
0.119025
0.132469
0.1464
0.160512
0.173786
0.184471
0.191431
0.195032
0.198091
0.207338
0.00932639
0.0093122
0.00928374
0.00920302
0.00908441
0.00895397
0.00882683
0.00871129
0.008613
0.00854341
0.00852788
0.0085245
0.00839287
0.00836513
0.00894232
0.0229751
0.111063
2.197
0.00760294
0.00793373
0.00997282
0.0134555
0.0173578
0.0216003
0.0264969
0.0323323
0.0392315
0.0470239
0.05553
0.0649892
0.0758653
0.0883436
0.102046
0.116083
0.12926
0.140438
0.148996
0.155506
0.160732
0.165088
0.172994
0.010818
0.0107926
0.0107642
0.0106755
0.0105372
0.0103783
0.0102158
0.0100579
0.00991204
0.00978489
0.00968292
0.00962996
0.00959549
0.00955284
0.00935489
0.00965731
0.0111893
0.0717704
0.218379
0.0835231
0.00784429
0.0138011
0.0100105
0.0141705
0.0180877
0.0222071
0.0267566
0.0319825
0.0380791
0.0451293
0.0530178
0.0614804
0.0703116
0.0795096
0.0891031
0.0989805
0.108802
0.11819
0.126586
0.133153
0.140228
0.0125577
0.0125204
0.0124907
0.0123924
0.0122329
0.012045
0.0118468
0.0116477
0.0114549
0.0112762
0.011117
0.0109824
0.0108807
0.0108226
0.0107504
0.0106312
0.0104791
0.0110519
0.0147669
0.0853459
0.54354
19.1316
0.0137262
0.00985477
0.0600619
0.0115928
0.0164123
0.0206369
0.0249681
0.0296397
0.0348119
0.0405746
0.0469299
0.053827
0.0611137
0.0685765
0.0759571
0.0831509
0.0899629
0.0960295
0.102412
0.0145065
0.0144553
0.0144206
0.0143078
0.0141226
0.013902
0.0136657
0.0134235
0.0131841
0.0129553
0.0127436
0.0125528
0.0123854
0.0122452
0.0121456
0.0120583
0.0119584
0.0117513
0.0117231
0.0127525
0.0193333
0.611033
0.442747
4.86544
1.85732
0.0151732
0.00942057
0.0172414
0.0108537
0.0151108
0.0199509
0.0245555
0.0292156
0.0340912
0.0392213
0.0445794
0.0500838
0.0557357
0.0614434
0.066942
0.0727772
0.0166022
0.0165344
0.0164918
0.0163608
0.0161467
0.0158904
0.0156128
0.0153239
0.0150337
0.0147516
0.0144848
0.0142385
0.0140158
0.0138168
0.0136456
0.013502
0.0133969
0.0132741
0.0131263
0.0129042
0.0129851
0.0142068
0.0185732
0.141494
0.321144
0.855207
12.0432
0
0.0689486
0.011898
0.0101108
0.017807
0.030167
0.0136225
0.0194588
0.0243759
0.0290919
0.0337041
0.0383011
0.0427674
0.0474995
0.0188281
0.0187442
0.0186925
0.0185417
0.0182976
0.0180047
0.0176854
0.0173503
0.0170101
0.0166753
0.0163535
0.0160501
0.0157691
0.0155133
0.0152839
0.0150805
0.0149055
0.0147591
0.014636
0.0144886
0.0142917
0.0141559
0.0141907
0.0151503
0.0178383
0.0250248
0.32227
0.45847
0.970503
1.8989
0
0
0
0.0556768
0.0112736
0.0108471
0.0173431
0.0392935
0.0263822
0.0171107
0.0219172
0.0212087
0.021109
0.0210469
0.0208744
0.0205983
0.0202668
0.0199038
0.019521
0.0191301
0.0187428
0.0183672
0.0180088
0.0176718
0.0173594
0.0170737
0.0168157
0.0165844
0.0163801
0.0162034
0.0160527
0.0159125
0.0157388
0.0155578
0.0153447
0.0153734
0.0155801
0.0166243
0.0193563
0.0255234
0.0460588
0.22389
0.865919
1.13243
1.70119
3.15074
0.177135
0
0
0.730728
0.050751
0.0146117
0.0237615
0.0236461
0.0235711
0.0233745
0.0230643
0.0226919
0.0222827
0.0218501
0.0214068
0.0209657
0.0205361
0.0201233
0.019732
0.0193658
0.0190267
0.018716
0.018434
0.0181802
0.0179532
0.0177515
0.0175811
0.0174308
0.0172919
0.017122
0.0169349
0.0167733
0.0165899
0.0166014
0.016833
0.0173344
0.0185951
0.0210917
0.0257051
0.0361338
0.0629888
13.4645
1.04902
1.32989
1.70423
2.31076
3.5919
0.0265074
0.0263761
0.0262858
0.0260625
0.0257158
0.0252999
0.0248421
0.0243571
0.0238595
0.0233632
0.0228784
0.0224108
0.0219655
0.0215463
0.0211557
0.0207951
0.0204649
0.0201652
0.0198952
0.0196524
0.0194409
0.0192597
0.019103
0.01897
0.0188427
0.018719
0.0185705
0.018407
0.0182583
0.0181413
0.0180485
0.0180973
0.0182843
0.0186578
0.0192092
0.0203503
0.0222632
0.0253745
0.0304717
0.0390544
0.0572253
0.0294673
0.0293197
0.0292111
0.0289581
0.0285721
0.0281096
0.0275999
0.0270598
0.0265054
0.0259517
0.0254102
0.0248872
0.0243877
0.0239163
0.0234756
0.0230671
0.0226915
0.022349
0.0220393
0.0217601
0.0215161
0.0213058
0.0211223
0.0209689
0.0208418
0.0207354
0.0206457
0.0205632
0.0204804
0.0203957
0.0203025
0.0202096
0.0201319
0.020078
0.0200588
0.0200344
0.020097
0.0202552
0.0205059
0.0208746
0.0213164
0.0326641
0.0324996
0.0323691
0.0320831
0.0316546
0.0311421
0.0305771
0.0299785
0.0293646
0.0287513
0.0281513
0.0275717
0.0270175
0.0264938
0.0260037
0.0255486
0.0251296
0.0247471
0.0244008
0.0240888
0.0238168
0.023583
0.0233798
0.0232101
0.023071
0.0229581
0.0228695
0.0228035
0.0227574
0.0227279
0.0227122
0.0227058
0.0227066
0.0227113
0.0227222
0.0227334
0.022749
0.0227735
0.0228071
0.0228712
0.0229199
0.0361223
0.0359399
0.0357832
0.0354603
0.0349854
0.034419
0.0337945
0.0331339
0.0324571
0.0317816
0.0311207
0.0304829
0.0298731
0.0292971
0.028758
0.0282577
0.027797
0.0273767
0.0269968
0.0266554
0.0263591
0.0261056
0.0258864
0.0257055
0.0255593
0.0254435
0.025355
0.0252922
0.0252534
0.0252371
0.0252419
0.0252661
0.0253089
0.0253681
0.0254416
0.025529
0.0256289
0.025739
0.0258504
0.0259815
0.0260874
0.0398691
0.0396671
0.0394791
0.0391145
0.0385886
0.0379633
0.0372748
0.0365479
0.0358045
0.0350637
0.0343395
0.0336415
0.0329751
0.0323463
0.0317584
0.0312135
0.0307125
0.0302564
0.0298453
0.0294775
0.0291603
0.0288906
0.0286585
0.0284691
0.0283189
0.0282029
0.0281179
0.0280618
0.0280323
0.0280274
0.0280454
0.0280845
0.028144
0.0282221
0.0283169
0.0284278
0.0285552
0.0286985
0.028846
0.0290256
0.0291557
0.043934
0.04371
0.0434847
0.0430721
0.0424895
0.0417995
0.0410414
0.0402432
0.039429
0.0386192
0.0378291
0.0370688
0.0363445
0.0356619
0.0350253
0.0344363
0.0338962
0.0334059
0.0329659
0.0325742
0.032239
0.0319561
0.0317141
0.0315188
0.031367
0.0312529
0.0311731
0.0311251
0.0311064
0.0311146
0.0311476
0.0312031
0.0312802
0.0313766
0.0314898
0.031619
0.0317644
0.0319262
0.0320886
0.0322925
0.0324123
0.0483499
0.0481006
0.0478298
0.0473617
0.0467151
0.0459532
0.0451191
0.0442437
0.0433538
0.042471
0.0416118
0.0407869
0.040003
0.0392656
0.03858
0.0379475
0.0373693
0.0368464
0.0363794
0.0359663
0.0356159
0.0353224
0.0350729
0.0348742
0.0347229
0.0346128
0.0345398
0.0345011
0.0344941
0.034516
0.0345643
0.0346365
0.0347313
0.0348462
0.0349782
0.0351263
0.0352909
0.0354726
0.0356505
0.0358815
0.0359852
0.0531533
0.0528737
0.0525473
0.052014
0.0512943
0.0504518
0.0495336
0.0485743
0.047603
0.0466425
0.0457104
0.0448179
0.0439724
0.0431794
0.0424444
0.0417686
0.0411533
0.0405991
0.0401069
0.0396745
0.0393112
0.0390098
0.038755
0.0385549
0.038406
0.0383012
0.0382362
0.0382079
0.0382131
0.0382488
0.0383123
0.0384005
0.0385123
0.0386445
0.0387941
0.0389596
0.0391418
0.0393419
0.039533
0.0397922
0.039867
0.0583854
0.0580679
0.0576726
0.057062
0.0562577
0.055324
0.0543121
0.0532608
0.0522013
0.0511577
0.0501483
0.0491852
0.0482758
0.0474258
0.0466404
0.0459216
0.0452695
0.0446854
0.0441695
0.0437198
0.0433457
0.0430385
0.0427803
0.0425806
0.0424358
0.0423378
0.0422818
0.0422643
0.0422821
0.0423317
0.0424101
0.0425139
0.0426418
0.0427905
0.0429564
0.0431379
0.0433358
0.0435527
0.0437542
0.0440423
0.0440728
0.0640921
0.0637253
0.0632443
0.0625411
0.061638
0.0606002
0.0594832
0.0583303
0.0571743
0.0560412
0.0549495
0.053912
0.0529361
0.0520277
0.0511909
0.0504288
0.0497406
0.0491273
0.0485887
0.0481233
0.04774
0.0474283
0.0471679
0.0469696
0.0468295
0.0467391
0.0466924
0.0466859
0.0467161
0.0467792
0.0468717
0.0469901
0.0471329
0.0472966
0.0474771
0.0476725
0.0478842
0.0481158
0.0483249
0.048643
0.0486141
0.0703246
0.0698926
0.0693049
0.0684895
0.0674702
0.0663124
0.0650764
0.06381
0.062548
0.0613175
0.0601375
0.059021
0.0579758
0.0570067
0.0561175
0.0553117
0.0545877
0.0539462
0.0533866
0.0529068
0.0525161
0.0522018
0.0519407
0.0517454
0.0516114
0.0515291
0.0514924
0.0514971
0.0515395
0.0516155
0.0517213
0.051853
0.0520092
0.0521862
0.0523794
0.0525871
0.0528104
0.0530549
0.0532692
0.0536184
0.053514
0.0771405
0.0766216
0.0759003
0.0749486
0.0737919
0.072494
0.0711219
0.0697275
0.0683479
0.0670103
0.0657349
0.0645338
0.0634152
0.0623826
0.0614394
0.0605889
0.0598291
0.0591594
0.0585791
0.0580854
0.0576875
0.0573706
0.0571086
0.0569156
0.0567871
0.0567121
0.0566839
0.0566984
0.0567513
0.0568381
0.056955
0.0570977
0.0572649
0.0574527
0.0576562
0.0578735
0.0581063
0.0583614
0.0585787
0.0589585
0.0587679
0.0846045
0.0839693
0.0830807
0.0819627
0.080641
0.079179
0.0776501
0.0761101
0.0745987
0.0731428
0.0717629
0.0704707
0.069274
0.0681748
0.0671759
0.0662797
0.0654841
0.0647869
0.0641874
0.0636817
0.0632785
0.0629611
0.0627
0.0625111
0.0623898
0.0623237
0.0623051
0.0623297
0.0623933
0.062491
0.0626185
0.0627715
0.0629484
0.0631454
0.0633574
0.0635825
0.0638224
0.064086
0.0643039
0.0647146
0.0644232
0.092789
0.0919982
0.0909003
0.0895784
0.0880582
0.0864025
0.084691
0.0829847
0.0813238
0.0797361
0.0782409
0.0768498
0.0755684
0.0743986
0.0733408
0.0723963
0.0715627
0.0708365
0.0702152
0.0696949
0.0692834
0.0689622
0.068698
0.0685091
0.0683901
0.0683276
0.0683136
0.0683434
0.0684125
0.0685158
0.0686489
0.0688075
0.06899
0.0691927
0.0694102
0.0696405
0.0698859
0.0701565
0.0703754
0.0708132
0.0704293
0.101774
0.100776
0.0994171
0.0978445
0.0960845
0.094199
0.0922747
0.0903763
0.0885457
0.0868098
0.085187
0.0836872
0.0823149
0.08107
0.0799512
0.0789579
0.0780874
0.0773347
0.0766962
0.0761669
0.075753
0.0754347
0.075174
0.0749916
0.0748816
0.074829
0.0748247
0.074864
0.0749422
0.0750543
0.0751953
0.0753611
0.07555
0.0757585
0.0759812
0.0762163
0.0764661
0.0767422
0.0769611
0.0774266
0.0769361
0.111649
0.110376
0.108691
0.10681
0.104759
0.102601
0.100428
0.0983087
0.096285
0.0943826
0.0926177
0.090998
0.089525
0.0881968
0.0870086
0.0859578
0.0850406
0.0842502
0.0835811
0.0830272
0.0825934
0.0822601
0.0819851
0.0817915
0.081673
0.0816136
0.0816039
0.081639
0.0817141
0.0818239
0.0819634
0.0821284
0.0823171
0.0825261
0.08275
0.0829869
0.0832399
0.0835203
0.0837444
0.0842218
0.0836886
0.122505
0.120875
0.118786
0.116524
0.11412
0.111639
0.109176
0.106805
0.104563
0.102474
0.100552
0.0988011
0.0972207
0.0958077
0.0945533
0.0934525
0.0925014
0.091691
0.091013
0.0904604
0.0900354
0.0897153
0.0894533
0.0892749
0.0891731
0.08913
0.0891352
0.0891837
0.0892706
0.0893904
0.0895383
0.0897099
0.0899041
0.0901176
0.0903454
0.0905864
0.0908434
0.0911286
0.0913553
0.0918588
0.0912227
0.13445
0.132354
0.129764
0.127036
0.124207
0.121345
0.11855
0.115892
0.113407
0.111112
0.109013
0.107113
0.105406
0.103884
0.102533
0.101344
0.100314
0.0994313
0.0986879
0.0980748
0.0975938
0.0972271
0.0969214
0.096705
0.0965704
0.0964989
0.0964797
0.0965074
0.0965772
0.0966834
0.0968207
0.0969845
0.0971733
0.0973841
0.0976113
0.0978531
0.0981144
0.0984026
0.0986485
0.0991178
0.0986118
0.147596
0.144889
0.141675
0.13838
0.135056
0.131762
0.128593
0.125615
0.122858
0.120334
0.118045
0.115987
0.114154
0.112543
0.111141
0.109934
0.108908
0.108048
0.107336
0.106764
0.106329
0.106005
0.105737
0.105557
0.105455
0.105413
0.105418
0.105466
0.105552
0.105671
0.105818
0.10599
0.106185
0.106402
0.106636
0.106888
0.107159
0.107461
0.107718
0.108243
0.107584
0.162016
0.158506
0.154506
0.150531
0.14665
0.142901
0.139348
0.136033
0.132976
0.130189
0.127675
0.125423
0.123407
0.121597
0.119967
0.118523
0.11727
0.116205
0.115314
0.11458
0.113999
0.11356
0.113193
0.112931
0.112761
0.112663
0.112623
0.112635
0.112694
0.112793
0.112926
0.113088
0.113277
0.113491
0.113723
0.113972
0.114245
0.114537
0.114833
0.115187
0.115109
0.177627
0.173152
0.168246
0.163495
0.158997
0.154766
0.150833
0.147204
0.143865
0.140805
0.138032
0.135571
0.13345
0.131684
0.13024
0.129032
0.127992
0.127097
0.126338
0.125717
0.125232
0.124855
0.124534
0.124303
0.124157
0.124075
0.124043
0.124057
0.124114
0.124209
0.124338
0.124499
0.12469
0.124911
0.12516
0.125439
0.125748
0.126097
0.126428
0.127022
0.126405
0.194355
0.188826
0.183047
0.177589
0.1725
0.167738
0.163326
0.159299
0.155657
0.152368
0.149361
0.146548
0.143858
0.141264
0.138826
0.1367
0.134965
0.133567
0.132437
0.131518
0.130797
0.130268
0.129839
0.129534
0.129339
0.129226
0.129182
0.129197
0.129263
0.129373
0.129518
0.129693
0.129893
0.130117
0.130357
0.130607
0.130885
0.131151
0.131521
0.131524
0.13264
0.212684
0.205716
0.198989
0.193002
0.187607
0.182548
0.177719
0.173123
0.168838
0.164994
0.161737
0.159173
0.157312
0.156064
0.155176
0.154208
0.152992
0.151721
0.150523
0.149468
0.14856
0.147767
0.147064
0.146488
0.146032
0.145675
0.145401
0.145206
0.145084
0.145031
0.145042
0.145116
0.145252
0.145449
0.145709
0.146037
0.146424
0.146901
0.147361
0.148328
0.147326
0.23293
0.223183
0.214582
0.207691
0.202164
0.197446
0.193144
0.188979
0.184727
0.180231
0.175426
0.170363
0.165226
0.160256
0.155809
0.152463
0.150234
0.148594
0.147327
0.146331
0.145602
0.145112
0.144758
0.144553
0.144469
0.144479
0.144563
0.144708
0.144901
0.145131
0.145385
0.145654
0.145933
0.146214
0.14649
0.146745
0.147016
0.147196
0.147652
0.14688
0.15052
0.251788
0.239778
0.22947
0.221039
0.214255
0.208801
0.20453
0.201338
0.199077
0.197553
0.196545
0.195833
0.195215
0.194654
0.193983
0.192085
0.189011
0.185792
0.182728
0.179969
0.177517
0.175345
0.173407
0.171706
0.170237
0.168975
0.167902
0.167006
0.166281
0.165721
0.165323
0.165087
0.165013
0.165107
0.165372
0.165825
0.16644
0.16733
0.168176
0.170483
0.168337
0.241949
0.228257
0.221815
0.220625
0.222066
0.222954
0.220468
0.213822
0.204542
0.194771
0.185932
0.178589
0.172812
0.168375
0.165126
0.163573
0.16342
0.163895
0.164661
0.165587
0.166742
0.167805
0.168995
0.170246
0.171525
0.172825
0.174147
0.175489
0.176853
0.178246
0.17968
0.181168
0.18274
0.184423
0.186237
0.188182
0.190407
0.192698
0.196081
0.196346
0.211096
0.00503611
0.00945965
0.014381
0.0190693
0.0235608
0.0282352
0.0339249
0.0417313
0.0338345
0.00991922
0.00776413
0.322609
0.0214687
0.0116227
0.0125442
0.0148941
0.0164211
0.017416
0.0189031
0.020515
0.0223769
0.0242423
0.0262999
0.0285431
0.0309796
0.033703
0.0366032
0.0399653
0.0436762
0.0481253
0.0529409
0.0592079
0.0663466
0.0758256
0.0887604
0.1067
0.136849
0.196201
0.262376
0.188275
0.15151
0.133645
0.12334
0.118079
0.114762
0.113935
0.114598
0.116129
0.118935
0.123181
0.128034
0.13449
0.141803
0.150549
0.161151
0.172695
0.18702
0.203289
0.223188
0.246166
0.274988
0.309082
0.352429
0.408069
0.482191
0.583818
0.73821
0.958777
1.52314
1.09455
1.384
0.676702
0.681185
0.440984
0.00891302
0.0124723
0.0169648
0.0212262
0.0251132
0.0289104
0.0330837
0.0382026
0.0438997
0.0365011
0.0153574
0.0112731
0.15967
0.0812979
0.0134496
0.0132445
0.0155683
0.0178078
0.0191865
0.0204481
0.0222005
0.0241018
0.0261436
0.0283515
0.0307505
0.0334527
0.0363265
0.039653
0.0433271
0.0477379
0.0525043
0.0586015
0.0656351
0.074669
0.0869546
0.103595
0.1305
0.182445
0.325242
0.232028
0.171177
0.146864
0.13323
0.126719
0.122435
0.120989
0.121576
0.122961
0.125475
0.129917
0.134822
0.141404
0.148882
0.157788
0.168844
0.180583
0.195117
0.211713
0.23194
0.25508
0.284002
0.317872
0.359976
0.41325
0.482142
0.570532
0.696426
0.860324
1.1709
1.07762
1.68013
0.692811
0.680362
0.445814
0.0151763
0.0172374
0.0207157
0.024264
0.0275555
0.0307176
0.0340725
0.0379684
0.0426075
0.0468951
0.0422666
0.02416
0.0168079
0.0198143
0.0813691
0.0270335
0.0150088
0.0161227
0.0188818
0.0209047
0.0223145
0.0239795
0.0259981
0.0282221
0.0305893
0.0332106
0.0361078
0.039371
0.042993
0.0472584
0.0520985
0.0579173
0.0649433
0.0735337
0.0849527
0.100345
0.123632
0.165228
0.28534
0.362238
0.204679
0.165922
0.147372
0.138056
0.132811
0.130186
0.13026
0.13176
0.133874
0.138198
0.143252
0.149808
0.157404
0.166325
0.177551
0.189771
0.204055
0.220917
0.24089
0.263934
0.291989
0.324903
0.364087
0.412706
0.472957
0.545221
0.638608
0.747803
0.906899
0.912769
1.18363
0.681552
0.665109
0.446595
0.0232652
0.0237841
0.0259165
0.0284535
0.0309909
0.0334885
0.0361295
0.0391646
0.0427889
0.0469625
0.0506639
0.0494109
0.0355799
0.010882
0.0130481
0.210499
0.141432
0.0186869
0.016596
0.0191993
0.0223346
0.0242873
0.0259279
0.0279725
0.0303537
0.0329624
0.0358336
0.0390227
0.0425923
0.0467264
0.0515265
0.0571006
0.0639295
0.0720561
0.0825227
0.0963737
0.11585
0.146664
0.205927
0.327495
0.245738
0.189446
0.164765
0.15165
0.145042
0.141006
0.140258
0.141671
0.143359
0.147403
0.152473
0.158908
0.166495
0.175315
0.18651
0.198897
0.212846
0.229611
0.248984
0.271407
0.298053
0.329096
0.364673
0.407847
0.459086
0.517002
0.58766
0.663512
0.758198
0.780903
0.897968
0.656251
0.632312
0.444426
0.0324181
0.0322783
0.032838
0.0340732
0.0356365
0.0373428
0.0392407
0.0414994
0.0442906
0.047696
0.0516026
0.0553655
0.0565983
0.0488502
0.027712
0.0218209
1.2761
0.122877
0.0460851
0.0203468
0.0200422
0.0231782
0.0261328
0.0280766
0.030076
0.0325856
0.0354872
0.0386522
0.0421548
0.0461674
0.0508452
0.0562091
0.0627294
0.0703735
0.0799276
0.092204
0.10839
0.131462
0.166685
0.219461
0.24501
0.210996
0.183628
0.167407
0.158906
0.153397
0.151731
0.152634
0.153772
0.157462
0.162331
0.168524
0.17594
0.184513
0.195503
0.207665
0.221151
0.23746
0.25593
0.277287
0.302124
0.330735
0.362592
0.400432
0.443664
0.490759
0.545265
0.601846
0.664753
0.691076
0.749767
0.626225
0.593753
0.440454
0.0437449
0.0429079
0.0417565
0.0414395
0.0417896
0.0425211
0.0435669
0.0450149
0.0469969
0.0496081
0.0528759
0.056697
0.060633
0.0633053
0.0606503
0.0447881
0.0325526
0.0152924
0.415662
0.121722
0.0286948
0.0213421
0.0236538
0.027528
0.0304711
0.0325903
0.0350517
0.0381304
0.0416811
0.0456558
0.0501815
0.0553385
0.0615332
0.0687137
0.077474
0.0883537
0.101954
0.119896
0.143928
0.175026
0.205457
0.211233
0.197348
0.182886
0.17362
0.167085
0.164522
0.164838
0.165211
0.16849
0.172935
0.178721
0.185776
0.193917
0.204514
0.216117
0.228918
0.244449
0.261733
0.281664
0.304417
0.330285
0.358508
0.391389
0.427889
0.466588
0.509726
0.554158
0.599352
0.625405
0.658448
0.595229
0.557699
0.435254
0.0566561
0.0557922
0.05294
0.0508982
0.0497934
0.0493306
0.0493572
0.0498884
0.0510059
0.0527828
0.055264
0.0584392
0.0621743
0.0661033
0.0694396
0.0700005
0.0604964
0.0320339
0.030134
0
0.229494
0.331341
0.0290614
0.0244456
0.0276058
0.0321587
0.0355429
0.0381037
0.041132
0.0449813
0.0495093
0.054558
0.0604455
0.0671744
0.0752424
0.084965
0.0966068
0.111076
0.128944
0.150323
0.173521
0.190716
0.196089
0.191593
0.186128
0.180545
0.177701
0.177944
0.177578
0.180375
0.184274
0.18945
0.195955
0.203431
0.213412
0.224175
0.236039
0.250492
0.266346
0.284562
0.305076
0.328115
0.352881
0.381336
0.412291
0.444479
0.479612
0.515893
0.550471
0.575291
0.595908
0.565831
0.526707
0.42926
0.070032
0.070975
0.066674
0.0628146
0.0600356
0.0581382
0.0569359
0.0563889
0.0565299
0.0573961
0.059013
0.0613778
0.0644176
0.0679518
0.0717097
0.0751949
0.0771445
0.0738425
0.0586728
0.0464594
0.0237294
0.13642
0.213
0.112661
0.0316649
0.0287587
0.0325035
0.0376641
0.0416639
0.0448954
0.0487464
0.0535555
0.059342
0.0658085
0.0732703
0.0819928
0.0921289
0.104195
0.118304
0.134403
0.152162
0.168903
0.182442
0.188626
0.191475
0.190472
0.18932
0.19064
0.190233
0.192617
0.196044
0.200433
0.206246
0.212818
0.221941
0.231617
0.242291
0.255424
0.269657
0.285995
0.304218
0.324532
0.346128
0.370783
0.397261
0.424502
0.453902
0.484549
0.512415
0.536078
0.550166
0.539493
0.500713
0.422951
0.0842785
0.0885026
0.0833656
0.077635
0.0729714
0.069382
0.0667043
0.0648698
0.0638718
0.0637089
0.0643735
0.0658429
0.0680485
0.0708556
0.0740909
0.0775368
0.0808712
0.0834133
0.0836757
0.0757423
0.0482563
0.0195959
0.0218775
1.14909
0.222611
0.0891698
0.0355233
0.0335279
0.0379867
0.0442189
0.0493686
0.0534709
0.0582386
0.064177
0.0713102
0.0794318
0.0884528
0.0987307
0.11034
0.123265
0.1375
0.151997
0.16654
0.177913
0.187883
0.19363
0.19678
0.20091
0.201906
0.204401
0.207683
0.211267
0.216295
0.221785
0.229815
0.238208
0.247477
0.259104
0.271619
0.286031
0.302039
0.319835
0.338638
0.360099
0.383028
0.406546
0.431762
0.45843
0.481886
0.504693
0.515173
0.516525
0.47906
0.416725
0.101122
0.108948
0.103822
0.0961235
0.0892464
0.0836359
0.0791708
0.0757809
0.0734272
0.0720687
0.0716588
0.0721419
0.0734322
0.0753992
0.0778882
0.0807318
0.0837693
0.0868004
0.0895334
0.0910096
0.0885829
0.0790246
0.0423899
0.0509243
0.0251644
0.934786
0.248172
0.0971861
0.0421266
0.0392459
0.0443122
0.0518643
0.0587508
0.064142
0.0698189
0.0768374
0.0851129
0.0943744
0.104358
0.115129
0.126945
0.139466
0.153014
0.165738
0.178976
0.190045
0.198522
0.206827
0.211117
0.214698
0.218561
0.221486
0.225789
0.230057
0.236852
0.243776
0.251528
0.261507
0.272311
0.284837
0.298788
0.314327
0.330746
0.349566
0.369709
0.390416
0.412535
0.436343
0.456837
0.479031
0.487532
0.496669
0.461042
0.410839
0.123862
0.135104
0.130424
0.120117
0.110155
0.101854
0.095087
0.0897407
0.0857249
0.0829376
0.0812786
0.080648
0.0809275
0.0819712
0.0836173
0.0857018
0.0880867
0.0906562
0.0933158
0.0958621
0.097717
0.0980497
0.0940049
0.0820095
0.0345872
0.0572525
0.0334622
1.06908
0.3157
0.167777
0.0532353
0.0464289
0.0518287
0.060599
0.0693975
0.0764346
0.0829417
0.0904857
0.0992875
0.108962
0.119303
0.130181
0.142279
0.154752
0.16874
0.182492
0.195098
0.207574
0.216464
0.222417
0.227855
0.230601
0.23435
0.237403
0.242864
0.248246
0.254412
0.262702
0.271849
0.282627
0.294715
0.308289
0.322715
0.339372
0.357316
0.375888
0.39571
0.417432
0.435915
0.457661
0.465174
0.479526
0.446077
0.405451
0.159606
0.176866
0.17207
0.155433
0.139239
0.126223
0.115919
0.107817
0.101588
0.0969883
0.0938077
0.091866
0.0909899
0.0909976
0.091705
0.0929364
0.0945452
0.0964195
0.0984869
0.100681
0.102843
0.104758
0.105917
0.105276
0.0998469
0.0870544
0.0356275
0.0702152
0.0336443
2.01404
0.492265
4.21229
0.0780498
0.0572065
0.061147
0.0708373
0.0814618
0.0899201
0.0967154
0.103976
0.112741
0.122736
0.133985
0.145783
0.159243
0.173665
0.188457
0.204006
0.217279
0.226743
0.234607
0.238127
0.241551
0.243641
0.247677
0.251598
0.256168
0.26282
0.270401
0.279612
0.290059
0.301956
0.31474
0.329628
0.345834
0.362783
0.380889
0.401065
0.418183
0.439592
0.446775
0.4647
0.43365
0.400668
0.216158
0.267468
0.281171
0.229638
0.189253
0.163317
0.145467
0.132436
0.122703
0.115472
0.110223
0.106603
0.104312
0.103089
0.102703
0.102953
0.103676
0.104741
0.106058
0.107567
0.109212
0.110923
0.112582
0.113902
0.11437
0.113105
0.10746
0.095682
0.0489954
0.0915284
0.0539185
5.1135
0.755284
0.477241
0.097517
0.0704076
0.0710191
0.0809066
0.0929862
0.103234
0.110837
0.117903
0.126826
0.13769
0.15075
0.165184
0.180628
0.19762
0.214019
0.227228
0.238113
0.243411
0.246994
0.248523
0.251213
0.253807
0.256889
0.26201
0.268163
0.275993
0.285029
0.295522
0.306967
0.320409
0.335235
0.350949
0.367763
0.386769
0.402973
0.424132
0.431445
0.451862
0.423369
0.396562
0.218798
0.254313
0.336187
0.528527
0.32441
0.237098
0.195376
0.170405
0.15347
0.141415
0.132748
0.126559
0.122248
0.119366
0.117563
0.116579
0.116216
0.116312
0.116742
0.11742
0.118294
0.119329
0.120492
0.1217
0.122814
0.123575
0.123558
0.121957
0.116608
0.107067
0.0772563
0.119767
0.0870026
7.37399
1.32118
0.553568
0.27368
0.0949748
0.0815605
0.0897931
0.102275
0.114813
0.125156
0.133808
0.143893
0.156731
0.172116
0.189718
0.207916
0.224047
0.238114
0.245981
0.250347
0.251802
0.253404
0.254886
0.256678
0.260435
0.265312
0.271938
0.279778
0.289107
0.299469
0.311721
0.32544
0.340202
0.356041
0.374152
0.389773
0.410745
0.418522
0.440692
0.414903
0.393175
0.176776
0.185202
0.195892
0.213249
0.236493
0.258422
0.255434
0.230327
0.203501
0.182655
0.167464
0.156364
0.148332
0.142575
0.138495
0.135636
0.133695
0.132438
0.131677
0.131276
0.131152
0.131261
0.131577
0.132065
0.132675
0.133323
0.1339
0.134158
0.133727
0.131942
0.127554
0.119135
0.098447
0.142772
0.135137
0.0746689