/*--------------------------------*- C++ -*----------------------------------*\
| =========                 |                                                 |
| \\      /  F ield         | OpenFOAM: The Open Source CFD Toolbox           |
|  \\    /   O peration     | Version:  2312                                  |
|   \\  /    A nd           | Website:  www.openfoam.com                      |
|    \\/     M anipulation  |                                                 |
\*---------------------------------------------------------------------------*/
FoamFile
{
    version     2.0;
    format      ascii;
    arch        "LSB;label=32;scalar=64";
    class       volScalarField;
    location    "600";
    object      turbulenceProperties:nuEff;
}
// * * * * * * * * * * * * * * * * * * * * * * * * * * * * * * * * * * * * * //

dimensions      [0 2 -1 0 0 0 0];

internalField   nonuniform List<scalar> 
11040
(
4.77555e-05
6.4897e-05
2.55952e-05
5.72195e-05
0.000195924
0.000189665
0.000179788
0.000169493
0.000156535
0.000148386
0.000139978
0.000132567
0.000125848
0.000120531
0.000115849
0.000113267
0.000112805
0.000114444
0.00011772
0.000122431
0.000128645
0.000136118
0.000144518
0.00015361
0.000163523
0.000175303
0.000188679
0.00020162
0.000213598
0.000224
0.00023222
0.000237839
0.000242474
0.000252511
0.000271322
0.000244342
0.00017587
0.000190608
0.000209127
0.00022855
0.000297007
1.41651e-05
4.67577e-05
6.59541e-05
0.000151326
0.000607058
0.00063692
0.000560292
0.000516999
0.000450298
0.000414659
0.00037802
0.000349489
0.000322781
0.000302843
0.000283803
0.000270763
0.000264399
0.000264093
0.000266974
0.000271673
0.000278309
0.000286808
0.000295448
0.000303023
0.000310677
0.000326859
0.000355635
0.0003887
0.000425868
0.000467189
0.00051289
0.000563189
0.000617521
0.000677859
0.000745166
0.000810807
0.000878736
0.000967285
0.00107332
0.00115119
0.00158508
1.55237e-05
1.93927e-05
4.00913e-05
7.45751e-05
0.000419479
0.000967907
0.00119118
0.00115343
0.00100995
0.000935095
0.000851912
0.000790536
0.000730792
0.000687911
0.000645736
0.000612648
0.000587266
0.000568056
0.000557217
0.000553693
0.000558871
0.000573875
0.000599421
0.000636428
0.000684951
0.000744695
0.000815404
0.000896422
0.000987344
0.00108739
0.00119551
0.00131111
0.00143363
0.0015636
0.0017019
0.00184808
0.00200913
0.00220502
0.00244354
0.00266421
0.00342921
1.64727e-05
1.51542e-05
2.06415e-05
2.11987e-05
0.000147955
0.000601333
0.00130459
0.00170871
0.00177997
0.00169078
0.00154585
0.00144503
0.00133947
0.00126304
0.00118708
0.00112504
0.00107917
0.00104302
0.0010221
0.00101456
0.00102219
0.00104807
0.0010947
0.00116335
0.00125333
0.00136328
0.00149227
0.00163905
0.00180264
0.00198177
0.00217474
0.00238002
0.00259635
0.00282395
0.00306383
0.00331863
0.0035997
0.00393638
0.0043485
0.00477663
0.00586063
1.61951e-05
1.57609e-05
1.63962e-05
1.54186e-05
1.48068e-05
0.000186137
0.000714359
0.00156043
0.00225064
0.00246269
0.00247551
0.00236755
0.00220122
0.00208485
0.00196897
0.00186656
0.00179452
0.00173533
0.00170019
0.00168704
0.001696
0.00173258
0.00180272
0.00190859
0.00204921
0.00222291
0.00242785
0.00266147
0.00292159
0.00320601
0.00351139
0.00383473
0.00417379
0.00452817
0.00489878
0.00529024
0.00571845
0.00622702
0.00684981
0.00754719
0.0089298
1.60901e-05
1.61827e-05
1.58878e-05
1.66019e-05
1.16991e-05
1.08883e-05
0.000181907
0.000738146
0.00171623
0.00272408
0.00319973
0.00336981
0.0033573
0.00324538
0.00306408
0.00290191
0.00279559
0.00270407
0.00264653
0.00262465
0.00263299
0.00267881
0.00277452
0.00292433
0.00312691
0.0033806
0.00368251
0.00402791
0.00441215
0.00483187
0.00528104
0.00575413
0.00624722
0.00675883
0.00728914
0.00784424
0.00844554
0.0091503
0.0100148
0.0110354
0.0127478
1.61036e-05
1.61368e-05
1.60111e-05
1.63524e-05
1.59449e-05
1.04258e-05
1.00032e-05
0.000129963
0.000669713
0.0017146
0.00300948
0.00394064
0.00432079
0.00446499
0.00445506
0.00435011
0.00419633
0.00404188
0.00394839
0.00391334
0.0039195
0.00397132
0.00409209
0.00429079
0.00456529
0.00491478
0.00533584
0.00582076
0.00635967
0.00694812
0.00757604
0.00823332
0.00891329
0.00961288
0.0103302
0.0110719
0.0118651
0.0127796
0.0139049
0.0152821
0.0173699
1.61142e-05
1.61113e-05
1.61315e-05
1.60458e-05
1.65678e-05
1.60765e-05
1.00173e-05
1e-05
6.33167e-05
0.000525265
0.00153419
0.00302885
0.00448237
0.00529201
0.0056594
0.00580372
0.00582715
0.00577396
0.00570264
0.00564763
0.00565132
0.00571847
0.00586673
0.00611899
0.00647291
0.00693111
0.00749188
0.00814587
0.0088715
0.00966416
0.0105085
0.011386
0.0122855
0.0132018
0.0141291
0.0150719
0.0160636
0.017184
0.0185623
0.0202938
0.0227849
1.61126e-05
1.61161e-05
1.61112e-05
1.61315e-05
1.59912e-05
1.71771e-05
1.54067e-05
1.01007e-05
1.03341e-05
1.0665e-05
0.000327155
0.00120029
0.00273403
0.0046103
0.00611544
0.00687393
0.00727489
0.00747878
0.00760081
0.00768529
0.00778986
0.00794309
0.00818454
0.00854159
0.00901332
0.00959943
0.0103091
0.0111451
0.0120877
0.0131187
0.0142177
0.0153523
0.0165009
0.0176578
0.0188106
0.0199551
0.0211331
0.0224356
0.0240108
0.0260411
0.028895
1.61123e-05
1.61136e-05
1.61133e-05
1.61173e-05
1.60969e-05
1.60373e-05
1.73834e-05
1.48968e-05
1.04306e-05
1.00156e-05
1e-05
0.000157021
0.000796893
0.00217764
0.00422862
0.0064178
0.00796822
0.00877769
0.0092925
0.00966079
0.0100046
0.0103724
0.0108248
0.0114061
0.0121333
0.013003
0.0140017
0.0151091
0.0163081
0.0176013
0.0189846
0.0204046
0.0218177
0.0232212
0.0245993
0.0259223
0.0272421
0.0286667
0.0303323
0.0325228
0.0356012
1.61114e-05
1.61118e-05
1.61126e-05
1.61079e-05
1.61257e-05
1.6052e-05
1.6172e-05
1.70682e-05
1.58348e-05
1.10711e-05
1.00068e-05
1.09526e-05
1.06463e-05
0.000394985
0.00145505
0.00337547
0.00593007
0.00843887
0.010147
0.0111518
0.0119301
0.0126283
0.0133757
0.0142567
0.0153236
0.0165902
0.0180484
0.019675
0.0214307
0.0232625
0.0251016
0.026874
0.0285512
0.0301856
0.0317826
0.0332327
0.0345956
0.0360448
0.0376547
0.0397312
0.0427227
1.61101e-05
1.61099e-05
1.61094e-05
1.61098e-05
1.61063e-05
1.61157e-05
1.60574e-05
1.61601e-05
1.67826e-05
1.64683e-05
1.25561e-05
1.00021e-05
1.00019e-05
3.98304e-05
0.000121698
0.000765534
0.00225766
0.00471085
0.00778573
0.0107279
0.0128145
0.0141974
0.0153976
0.0166417
0.0180712
0.0197441
0.0216736
0.0238498
0.0262325
0.0287608
0.0313607
0.033947
0.0364243
0.0386999
0.0406521
0.0421801
0.0434215
0.0447866
0.046141
0.047778
0.0502099
1.61087e-05
1.61089e-05
1.61086e-05
1.61078e-05
1.61071e-05
1.61061e-05
1.6108e-05
1.6073e-05
1.61243e-05
1.65227e-05
1.70066e-05
1.43196e-05
1.015e-05
1.00016e-05
1.0178e-05
0.000118421
0.000256394
0.00118046
0.0030887
0.00606741
0.00974802
0.0132635
0.0158909
0.0178649
0.0197739
0.0218684
0.0242252
0.0268876
0.0298297
0.0329868
0.0362815
0.0396247
0.0429155
0.0460567
0.0489456
0.0514714
0.0535435
0.0550867
0.0560411
0.056972
0.0585292
1.61075e-05
1.61082e-05
1.61077e-05
1.61071e-05
1.61065e-05
1.61059e-05
1.61057e-05
1.6106e-05
1.60853e-05
1.60918e-05
1.63251e-05
1.71408e-05
1.5892e-05
1.1359e-05
1e-05
1e-05
1.19635e-05
0.000190102
0.00036851
0.00152159
0.00380843
0.00714929
0.0110907
0.015137
0.0187742
0.0218642
0.0247842
0.0279143
0.0313456
0.0350319
0.0389117
0.0429062
0.0469036
0.0508032
0.0545054
0.0579151
0.0609446
0.063538
0.0656309
0.067206
0.0682905
1.61065e-05
1.61077e-05
1.61074e-05
1.61068e-05
1.61063e-05
1.61059e-05
1.61055e-05
1.6106e-05
1.61056e-05
1.60972e-05
1.60697e-05
1.62141e-05
1.68833e-05
1.6738e-05
1.42981e-05
1.01993e-05
1.00024e-05
1e-05
2.3145e-05
4.08883e-05
0.000499935
0.00164396
0.0037827
0.00688367
0.0107892
0.0152485
0.0199748
0.0246548
0.0291193
0.0334706
0.0379016
0.0424763
0.0471145
0.0517033
0.05614
0.060332
0.0642084
0.0677365
0.0708495
0.0735038
0.0757041
1.61057e-05
1.6107e-05
1.61068e-05
1.61063e-05
1.61059e-05
1.61056e-05
1.61053e-05
1.61051e-05
1.61053e-05
1.61055e-05
1.61027e-05
1.60679e-05
1.61467e-05
1.64347e-05
1.71713e-05
1.57888e-05
1.27511e-05
1.00119e-05
1.00005e-05
1.0007e-05
2.54836e-05
0.000220362
0.000301496
0.00113971
0.00270959
0.00513891
0.00844988
0.0126065
0.017524
0.0230716
0.0290214
0.0350535
0.0408938
0.0464415
0.0517118
0.0567276
0.0614744
0.0659314
0.0700409
0.073742
0.0770089
1.61048e-05
1.61062e-05
1.61061e-05
1.61057e-05
1.61054e-05
1.61051e-05
1.61049e-05
1.61046e-05
1.61044e-05
1.61041e-05
1.61056e-05
1.61021e-05
1.60865e-05
1.60776e-05
1.62678e-05
1.67316e-05
1.71536e-05
1.51634e-05
1.15657e-05
1.00098e-05
1.00001e-05
1e-05
1.15832e-05
9.24966e-05
1.00521e-05
0.000331988
0.00112838
0.00251586
0.00463029
0.00756067
0.011361
0.0160333
0.0215095
0.0276623
0.0342701
0.0410234
0.0476016
0.0538055
0.0594868
0.0645829
0.0691276
1.61038e-05
1.61049e-05
1.61046e-05
1.61041e-05
1.61037e-05
1.61034e-05
1.61032e-05
1.61031e-05
1.61031e-05
1.6103e-05
1.6103e-05
1.61039e-05
1.61028e-05
1.60942e-05
1.60691e-05
1.61315e-05
1.63822e-05
1.70132e-05
1.69875e-05
1.44445e-05
1.09453e-05
1.00001e-05
1.00001e-05
1e-05
1e-05
1.13965e-05
7.17623e-05
0.000224799
0.000112621
0.000486469
0.00129185
0.00262578
0.00459012
0.00727869
0.0107448
0.0149729
0.0198858
0.025417
0.0313981
0.0376327
0.0439281
1.61026e-05
1.61033e-05
1.61029e-05
1.61023e-05
1.61018e-05
1.61015e-05
1.61013e-05
1.61012e-05
1.61012e-05
1.61013e-05
1.61013e-05
1.61015e-05
1.61017e-05
1.61031e-05
1.60965e-05
1.60846e-05
1.6069e-05
1.62005e-05
1.65412e-05
1.71704e-05
1.68569e-05
1.43139e-05
1.14828e-05
1.00046e-05
1.00004e-05
1e-05
1e-05
1e-05
1.00209e-05
1.39928e-05
7.53904e-05
0.000188187
0.000360886
0.000167462
0.000639485
0.00145564
0.00271455
0.00447775
0.00678675
0.00965129
0.0131084
1.61013e-05
1.61017e-05
1.61012e-05
1.61006e-05
1.61001e-05
1.60998e-05
1.60997e-05
1.60996e-05
1.60997e-05
1.60997e-05
1.60998e-05
1.60999e-05
1.61e-05
1.61004e-05
1.61011e-05
1.61004e-05
1.60899e-05
1.60734e-05
1.60829e-05
1.62468e-05
1.66682e-05
1.70738e-05
1.69521e-05
1.49878e-05
1.24702e-05
1.07471e-05
1.00006e-05
1.00002e-05
1e-05
1e-05
1e-05
1e-05
1e-05
1.00468e-05
1.70025e-05
7.52756e-05
0.000170225
0.000292625
1.41523e-05
0.000228098
0.000626632
1.61e-05
1.61002e-05
1.60996e-05
1.6099e-05
1.60987e-05
1.60985e-05
1.60985e-05
1.60985e-05
1.60986e-05
1.60987e-05
1.60988e-05
1.60989e-05
1.60991e-05
1.60992e-05
1.60995e-05
1.61e-05
1.61006e-05
1.60967e-05
1.60827e-05
1.60647e-05
1.60981e-05
1.6289e-05
1.66142e-05
1.71069e-05
1.70906e-05
1.65379e-05
1.47163e-05
1.24882e-05
1.09323e-05
1.01548e-05
1.00019e-05
1e-05
1e-05
1e-05
1e-05
1e-05
1e-05
1e-05
1.00001e-05
1.00819e-05
1.38113e-05
1.60986e-05
1.60987e-05
1.60982e-05
1.60979e-05
1.60977e-05
1.60977e-05
1.60978e-05
1.6098e-05
1.60981e-05
1.60982e-05
1.60984e-05
1.60985e-05
1.60987e-05
1.60988e-05
1.60989e-05
1.6099e-05
1.60995e-05
1.61001e-05
1.60997e-05
1.60934e-05
1.60756e-05
1.60676e-05
1.60916e-05
1.62341e-05
1.64928e-05
1.67978e-05
1.71978e-05
1.71999e-05
1.66829e-05
1.56858e-05
1.40752e-05
1.24318e-05
1.11967e-05
1.04074e-05
1.00809e-05
1e-05
1e-05
1e-05
1e-05
1e-05
1e-05
1.60973e-05
1.60974e-05
1.60972e-05
1.60971e-05
1.60972e-05
1.60974e-05
1.60976e-05
1.60979e-05
1.60981e-05
1.60983e-05
1.60985e-05
1.60987e-05
1.60988e-05
1.60989e-05
1.60991e-05
1.60992e-05
1.60992e-05
1.60994e-05
1.60999e-05
1.61006e-05
1.6099e-05
1.60915e-05
1.60775e-05
1.6064e-05
1.60796e-05
1.6135e-05
1.62786e-05
1.65072e-05
1.67772e-05
1.7043e-05
1.72808e-05
1.72322e-05
1.68795e-05
1.62e-05
1.53409e-05
1.41167e-05
1.2866e-05
1.17833e-05
1.0974e-05
1.04551e-05
1.01511e-05
1.60961e-05
1.60963e-05
1.60964e-05
1.60967e-05
1.6097e-05
1.60974e-05
1.60978e-05
1.60982e-05
1.60985e-05
1.60988e-05
1.6099e-05
1.60992e-05
1.60994e-05
1.60995e-05
1.60996e-05
1.60997e-05
1.60998e-05
1.60999e-05
1.61e-05
1.61002e-05
1.61009e-05
1.61012e-05
1.60998e-05
1.60937e-05
1.60829e-05
1.60707e-05
1.60633e-05
1.60762e-05
1.61233e-05
1.62118e-05
1.63544e-05
1.65416e-05
1.6751e-05
1.69595e-05
1.71332e-05
1.73153e-05
1.73374e-05
1.71719e-05
1.68308e-05
1.63349e-05
1.5742e-05
1.6095e-05
1.60956e-05
1.60961e-05
1.60966e-05
1.60972e-05
1.60978e-05
1.60982e-05
1.60987e-05
1.60991e-05
1.60994e-05
1.60997e-05
1.60999e-05
1.61001e-05
1.61003e-05
1.61004e-05
1.61005e-05
1.61007e-05
1.61007e-05
1.61008e-05
1.61009e-05
1.6101e-05
1.61013e-05
1.61019e-05
1.61023e-05
1.61014e-05
1.60985e-05
1.60921e-05
1.60824e-05
1.60717e-05
1.6064e-05
1.60642e-05
1.6079e-05
1.61133e-05
1.61719e-05
1.62528e-05
1.63639e-05
1.64999e-05
1.66542e-05
1.68134e-05
1.69672e-05
1.71043e-05
1.60942e-05
1.60952e-05
1.6096e-05
1.60968e-05
1.60975e-05
1.60982e-05
1.60987e-05
1.60992e-05
1.60997e-05
1.61e-05
1.61003e-05
1.61006e-05
1.61009e-05
1.61011e-05
1.61013e-05
1.61014e-05
1.61016e-05
1.61017e-05
1.61018e-05
1.61019e-05
1.6102e-05
1.61021e-05
1.61022e-05
1.61025e-05
1.61029e-05
1.61033e-05
1.61034e-05
1.61026e-05
1.61002e-05
1.60958e-05
1.60893e-05
1.60813e-05
1.6073e-05
1.6066e-05
1.60622e-05
1.60631e-05
1.60712e-05
1.60896e-05
1.61191e-05
1.61628e-05
1.62117e-05
1.60936e-05
1.6095e-05
1.60961e-05
1.60971e-05
1.60979e-05
1.60986e-05
1.60992e-05
1.60997e-05
1.61002e-05
1.61006e-05
1.6101e-05
1.61013e-05
1.61016e-05
1.61018e-05
1.61021e-05
1.61023e-05
1.61024e-05
1.61026e-05
1.61027e-05
1.61029e-05
1.6103e-05
1.61031e-05
1.61032e-05
1.61033e-05
1.61034e-05
1.61036e-05
1.61039e-05
1.61042e-05
1.61046e-05
1.61048e-05
1.61045e-05
1.61036e-05
1.61018e-05
1.60988e-05
1.60948e-05
1.60898e-05
1.60839e-05
1.60775e-05
1.60711e-05
1.60657e-05
1.60617e-05
1.60932e-05
1.6095e-05
1.60963e-05
1.60973e-05
1.60982e-05
1.60989e-05
1.60996e-05
1.61002e-05
1.61007e-05
1.61011e-05
1.61015e-05
1.61019e-05
1.61022e-05
1.61025e-05
1.61028e-05
1.6103e-05
1.61032e-05
1.61034e-05
1.61036e-05
1.61038e-05
1.61039e-05
1.61041e-05
1.61042e-05
1.61043e-05
1.61044e-05
1.61045e-05
1.61046e-05
1.61047e-05
1.61048e-05
1.6105e-05
1.61053e-05
1.61055e-05
1.61058e-05
1.61059e-05
1.61059e-05
1.61057e-05
1.61051e-05
1.6104e-05
1.61024e-05
1.61002e-05
1.60979e-05
1.60931e-05
1.6095e-05
1.60964e-05
1.60975e-05
1.60984e-05
1.60992e-05
1.60999e-05
1.61005e-05
1.61011e-05
1.61016e-05
1.6102e-05
1.61024e-05
1.61028e-05
1.61031e-05
1.61034e-05
1.61037e-05
1.6104e-05
1.61042e-05
1.61044e-05
1.61046e-05
1.61048e-05
1.6105e-05
1.61051e-05
1.61053e-05
1.61054e-05
1.61055e-05
1.61056e-05
1.61057e-05
1.61057e-05
1.61058e-05
1.61058e-05
1.61059e-05
1.61059e-05
1.6106e-05
1.61061e-05
1.61063e-05
1.61064e-05
1.61065e-05
1.61066e-05
1.61067e-05
1.61066e-05
1.6093e-05
1.6095e-05
1.60965e-05
1.60976e-05
1.60985e-05
1.60994e-05
1.61001e-05
1.61008e-05
1.61014e-05
1.61019e-05
1.61024e-05
1.61029e-05
1.61033e-05
1.61037e-05
1.6104e-05
1.61043e-05
1.61046e-05
1.61049e-05
1.61051e-05
1.61054e-05
1.61056e-05
1.61058e-05
1.6106e-05
1.61062e-05
1.61063e-05
1.61064e-05
1.61065e-05
1.61066e-05
1.61067e-05
1.61068e-05
1.61068e-05
1.61068e-05
1.61068e-05
1.61068e-05
1.61068e-05
1.61068e-05
1.61067e-05
1.61067e-05
1.61067e-05
1.61067e-05
1.61066e-05
1.6093e-05
1.6095e-05
1.60964e-05
1.60976e-05
1.60986e-05
1.60994e-05
1.61002e-05
1.61009e-05
1.61016e-05
1.61022e-05
1.61027e-05
1.61032e-05
1.61037e-05
1.61041e-05
1.61045e-05
1.61049e-05
1.61052e-05
1.61055e-05
1.61058e-05
1.6106e-05
1.61063e-05
1.61066e-05
1.61068e-05
1.6107e-05
1.61071e-05
1.61073e-05
1.61074e-05
1.61075e-05
1.61076e-05
1.61077e-05
1.61077e-05
1.61078e-05
1.61078e-05
1.61078e-05
1.61078e-05
1.61077e-05
1.61077e-05
1.61076e-05
1.61075e-05
1.61075e-05
1.61073e-05
1.60928e-05
1.60948e-05
1.60963e-05
1.60975e-05
1.60985e-05
1.60994e-05
1.61002e-05
1.6101e-05
1.61017e-05
1.61023e-05
1.6103e-05
1.61035e-05
1.6104e-05
1.61045e-05
1.61049e-05
1.61053e-05
1.61057e-05
1.61061e-05
1.61064e-05
1.61067e-05
1.6107e-05
1.61072e-05
1.61075e-05
1.61077e-05
1.61079e-05
1.61081e-05
1.61082e-05
1.61083e-05
1.61084e-05
1.61085e-05
1.61086e-05
1.61086e-05
1.61087e-05
1.61087e-05
1.61087e-05
1.61087e-05
1.61086e-05
1.61086e-05
1.61085e-05
1.61085e-05
1.61084e-05
1.60926e-05
1.60946e-05
1.60961e-05
1.60972e-05
1.60983e-05
1.60992e-05
1.61001e-05
1.61009e-05
1.61017e-05
1.61024e-05
1.61031e-05
1.61037e-05
1.61043e-05
1.61048e-05
1.61053e-05
1.61057e-05
1.61062e-05
1.61065e-05
1.61069e-05
1.61072e-05
1.61076e-05
1.61079e-05
1.61081e-05
1.61084e-05
1.61086e-05
1.61088e-05
1.6109e-05
1.61091e-05
1.61092e-05
1.61093e-05
1.61094e-05
1.61095e-05
1.61095e-05
1.61096e-05
1.61096e-05
1.61096e-05
1.61096e-05
1.61096e-05
1.61095e-05
1.61095e-05
1.61094e-05
1.60923e-05
1.60942e-05
1.60957e-05
1.60969e-05
1.6098e-05
1.6099e-05
1.60999e-05
1.61008e-05
1.61016e-05
1.61024e-05
1.61031e-05
1.61038e-05
1.61044e-05
1.6105e-05
1.61056e-05
1.61061e-05
1.61065e-05
1.6107e-05
1.61074e-05
1.61078e-05
1.61081e-05
1.61085e-05
1.61088e-05
1.6109e-05
1.61093e-05
1.61095e-05
1.61097e-05
1.61099e-05
1.611e-05
1.61101e-05
1.61102e-05
1.61103e-05
1.61104e-05
1.61104e-05
1.61105e-05
1.61105e-05
1.61105e-05
1.61105e-05
1.61105e-05
1.61105e-05
1.61104e-05
1.60919e-05
1.60938e-05
1.60952e-05
1.60964e-05
1.60975e-05
1.60986e-05
1.60996e-05
1.61005e-05
1.61014e-05
1.61023e-05
1.61031e-05
1.61038e-05
1.61045e-05
1.61051e-05
1.61058e-05
1.61063e-05
1.61068e-05
1.61073e-05
1.61078e-05
1.61082e-05
1.61086e-05
1.6109e-05
1.61093e-05
1.61096e-05
1.61099e-05
1.61102e-05
1.61104e-05
1.61106e-05
1.61107e-05
1.61109e-05
1.6111e-05
1.61111e-05
1.61112e-05
1.61113e-05
1.61114e-05
1.61114e-05
1.61114e-05
1.61115e-05
1.61115e-05
1.61115e-05
1.61115e-05
1.60913e-05
1.60931e-05
1.60946e-05
1.60958e-05
1.6097e-05
1.60981e-05
1.60991e-05
1.61001e-05
1.61011e-05
1.6102e-05
1.61029e-05
1.61037e-05
1.61045e-05
1.61052e-05
1.61058e-05
1.61065e-05
1.61071e-05
1.61076e-05
1.61081e-05
1.61086e-05
1.6109e-05
1.61095e-05
1.61098e-05
1.61102e-05
1.61105e-05
1.61108e-05
1.6111e-05
1.61113e-05
1.61115e-05
1.61116e-05
1.61118e-05
1.61119e-05
1.6112e-05
1.61121e-05
1.61122e-05
1.61123e-05
1.61124e-05
1.61124e-05
1.61125e-05
1.61125e-05
1.61125e-05
1.60906e-05
1.60924e-05
1.60938e-05
1.6095e-05
1.60962e-05
1.60974e-05
1.60985e-05
1.60996e-05
1.61006e-05
1.61016e-05
1.61025e-05
1.61034e-05
1.61043e-05
1.61051e-05
1.61058e-05
1.61065e-05
1.61071e-05
1.61077e-05
1.61083e-05
1.61088e-05
1.61094e-05
1.61098e-05
1.61103e-05
1.61106e-05
1.6111e-05
1.61113e-05
1.61116e-05
1.61119e-05
1.61121e-05
1.61123e-05
1.61125e-05
1.61126e-05
1.61128e-05
1.61129e-05
1.6113e-05
1.61132e-05
1.61132e-05
1.61133e-05
1.61134e-05
1.61135e-05
1.61135e-05
1.60898e-05
1.60915e-05
1.60928e-05
1.60941e-05
1.60953e-05
1.60965e-05
1.60977e-05
1.60988e-05
1.60999e-05
1.6101e-05
1.6102e-05
1.61029e-05
1.61039e-05
1.61047e-05
1.61055e-05
1.61063e-05
1.6107e-05
1.61077e-05
1.61083e-05
1.61089e-05
1.61095e-05
1.611e-05
1.61105e-05
1.61109e-05
1.61113e-05
1.61117e-05
1.6112e-05
1.61123e-05
1.61126e-05
1.61128e-05
1.6113e-05
1.61132e-05
1.61134e-05
1.61136e-05
1.61137e-05
1.61139e-05
1.6114e-05
1.61141e-05
1.61142e-05
1.61143e-05
1.61144e-05
1.60887e-05
1.60904e-05
1.60917e-05
1.6093e-05
1.60942e-05
1.60955e-05
1.60967e-05
1.60978e-05
1.6099e-05
1.61001e-05
1.61012e-05
1.61022e-05
1.61032e-05
1.61041e-05
1.6105e-05
1.61058e-05
1.61066e-05
1.61074e-05
1.61081e-05
1.61087e-05
1.61094e-05
1.61099e-05
1.61105e-05
1.6111e-05
1.61114e-05
1.61118e-05
1.61122e-05
1.61125e-05
1.61128e-05
1.61131e-05
1.61134e-05
1.61136e-05
1.61138e-05
1.6114e-05
1.61142e-05
1.61144e-05
1.61146e-05
1.61147e-05
1.61149e-05
1.6115e-05
1.61151e-05
1.60875e-05
1.60891e-05
1.60904e-05
1.60917e-05
1.60929e-05
1.60941e-05
1.60954e-05
1.60966e-05
1.60977e-05
1.60989e-05
1.61e-05
1.61011e-05
1.61022e-05
1.61032e-05
1.61041e-05
1.6105e-05
1.61059e-05
1.61067e-05
1.61075e-05
1.61082e-05
1.61089e-05
1.61096e-05
1.61101e-05
1.61107e-05
1.61112e-05
1.61116e-05
1.61121e-05
1.61125e-05
1.61128e-05
1.61131e-05
1.61134e-05
1.61137e-05
1.6114e-05
1.61142e-05
1.61144e-05
1.61146e-05
1.61148e-05
1.6115e-05
1.61152e-05
1.61153e-05
1.61155e-05
1.60861e-05
1.60876e-05
1.60889e-05
1.60901e-05
1.60913e-05
1.60925e-05
1.60937e-05
1.60949e-05
1.60961e-05
1.60973e-05
1.60985e-05
1.60997e-05
1.61008e-05
1.61018e-05
1.61029e-05
1.61039e-05
1.61048e-05
1.61057e-05
1.61065e-05
1.61073e-05
1.61081e-05
1.61088e-05
1.61094e-05
1.611e-05
1.61105e-05
1.61111e-05
1.61115e-05
1.6112e-05
1.61124e-05
1.61127e-05
1.61131e-05
1.61134e-05
1.61137e-05
1.61139e-05
1.61142e-05
1.61144e-05
1.61147e-05
1.61149e-05
1.61151e-05
1.61153e-05
1.61155e-05
1.60845e-05
1.60859e-05
1.60871e-05
1.60882e-05
1.60894e-05
1.60906e-05
1.60917e-05
1.60929e-05
1.60942e-05
1.60954e-05
1.60966e-05
1.60978e-05
1.60989e-05
1.61001e-05
1.61012e-05
1.61022e-05
1.61032e-05
1.61042e-05
1.61051e-05
1.61059e-05
1.61067e-05
1.61075e-05
1.61082e-05
1.61089e-05
1.61095e-05
1.611e-05
1.61106e-05
1.6111e-05
1.61115e-05
1.61119e-05
1.61123e-05
1.61126e-05
1.61129e-05
1.61132e-05
1.61135e-05
1.61138e-05
1.6114e-05
1.61143e-05
1.61145e-05
1.61147e-05
1.61149e-05
1.60827e-05
1.60839e-05
1.6085e-05
1.60861e-05
1.60871e-05
1.60882e-05
1.60894e-05
1.60905e-05
1.60917e-05
1.6093e-05
1.60942e-05
1.60954e-05
1.60966e-05
1.60978e-05
1.6099e-05
1.61001e-05
1.61011e-05
1.61021e-05
1.61031e-05
1.6104e-05
1.61049e-05
1.61057e-05
1.61065e-05
1.61072e-05
1.61078e-05
1.61084e-05
1.6109e-05
1.61095e-05
1.611e-05
1.61104e-05
1.61108e-05
1.61112e-05
1.61116e-05
1.61119e-05
1.61123e-05
1.61126e-05
1.61128e-05
1.61131e-05
1.61134e-05
1.61136e-05
1.61139e-05
1.60806e-05
1.60817e-05
1.60826e-05
1.60836e-05
1.60845e-05
1.60855e-05
1.60866e-05
1.60877e-05
1.60889e-05
1.60901e-05
1.60913e-05
1.60925e-05
1.60938e-05
1.6095e-05
1.60962e-05
1.60973e-05
1.60984e-05
1.60995e-05
1.61005e-05
1.61015e-05
1.61024e-05
1.61033e-05
1.61041e-05
1.61049e-05
1.61056e-05
1.61063e-05
1.61069e-05
1.61075e-05
1.6108e-05
1.61085e-05
1.61089e-05
1.61094e-05
1.61098e-05
1.61101e-05
1.61105e-05
1.61108e-05
1.61111e-05
1.61114e-05
1.61116e-05
1.61119e-05
1.61121e-05
1.60783e-05
1.60791e-05
1.60799e-05
1.60807e-05
1.60815e-05
1.60824e-05
1.60834e-05
1.60845e-05
1.60856e-05
1.60867e-05
1.60879e-05
1.6089e-05
1.60902e-05
1.60914e-05
1.60926e-05
1.60938e-05
1.6095e-05
1.60961e-05
1.60971e-05
1.60981e-05
1.60991e-05
1.61e-05
1.61008e-05
1.61016e-05
1.61024e-05
1.6103e-05
1.61037e-05
1.61043e-05
1.61048e-05
1.61054e-05
1.61059e-05
1.61063e-05
1.61067e-05
1.61071e-05
1.61075e-05
1.61079e-05
1.61082e-05
1.61085e-05
1.61088e-05
1.61091e-05
1.61094e-05
1.60756e-05
1.60763e-05
1.60769e-05
1.60775e-05
1.60782e-05
1.60789e-05
1.60798e-05
1.60807e-05
1.60816e-05
1.60827e-05
1.60837e-05
1.60848e-05
1.60859e-05
1.60871e-05
1.60882e-05
1.60893e-05
1.60904e-05
1.60915e-05
1.60925e-05
1.60936e-05
1.60946e-05
1.60955e-05
1.60965e-05
1.60973e-05
1.60982e-05
1.6099e-05
1.60997e-05
1.61004e-05
1.6101e-05
1.61016e-05
1.61021e-05
1.61027e-05
1.61031e-05
1.61036e-05
1.6104e-05
1.61044e-05
1.61047e-05
1.61051e-05
1.61054e-05
1.61057e-05
1.6106e-05
1.60726e-05
1.60731e-05
1.60734e-05
1.60739e-05
1.60744e-05
1.60749e-05
1.60756e-05
1.60762e-05
1.6077e-05
1.60778e-05
1.60786e-05
1.60795e-05
1.60804e-05
1.60815e-05
1.60826e-05
1.60838e-05
1.6085e-05
1.60861e-05
1.60872e-05
1.60883e-05
1.60893e-05
1.60903e-05
1.60912e-05
1.60921e-05
1.60929e-05
1.60936e-05
1.60943e-05
1.6095e-05
1.60957e-05
1.60962e-05
1.60968e-05
1.60973e-05
1.60978e-05
1.60982e-05
1.60987e-05
1.60991e-05
1.60994e-05
1.60998e-05
1.61001e-05
1.61004e-05
1.61007e-05
1.60693e-05
1.60695e-05
1.60696e-05
1.60698e-05
1.607e-05
1.60703e-05
1.60706e-05
1.60709e-05
1.60712e-05
1.60716e-05
1.6072e-05
1.60724e-05
1.60728e-05
1.60732e-05
1.60735e-05
1.60739e-05
1.60743e-05
1.60746e-05
1.6075e-05
1.60753e-05
1.60757e-05
1.60761e-05
1.60766e-05
1.6077e-05
1.60775e-05
1.6078e-05
1.60785e-05
1.6079e-05
1.60795e-05
1.608e-05
1.60805e-05
1.6081e-05
1.60814e-05
1.60819e-05
1.60823e-05
1.60827e-05
1.60831e-05
1.60835e-05
1.60839e-05
1.60843e-05
1.60846e-05
0.00348618
0.00721708
0.0106299
0.0126899
0.0129813
0.0115988
0.00892087
0.0054626
0.00207451
0.000199256
6.98424e-05
1.00004e-05
1.07863e-05
1.82891e-05
1.86608e-05
1.5835e-05
1.55857e-05
1.60754e-05
1.62182e-05
1.61408e-05
1.61007e-05
1.61042e-05
1.61087e-05
1.61075e-05
1.61056e-05
1.61044e-05
1.61033e-05
1.61023e-05
1.61016e-05
1.61012e-05
1.6101e-05
1.61011e-05
1.61011e-05
1.61013e-05
1.61014e-05
1.61015e-05
1.61016e-05
1.61017e-05
1.61018e-05
1.61017e-05
1.61016e-05
1.61014e-05
1.6101e-05
1.61004e-05
1.60997e-05
1.60987e-05
1.60976e-05
1.60963e-05
1.60949e-05
1.60933e-05
1.60916e-05
1.60898e-05
1.60879e-05
1.6086e-05
1.6084e-05
1.6082e-05
1.60801e-05
1.60782e-05
1.60767e-05
1.60755e-05
1.60748e-05
1.60746e-05
1.6075e-05
1.60758e-05
1.60769e-05
1.60784e-05
1.60802e-05
1.60822e-05
1.60844e-05
1.60868e-05
1.60894e-05
1.60924e-05
1.60949e-05
1.61017e-05
0.00598076
0.0108874
0.0148403
0.017093
0.017463
0.0161264
0.0134608
0.00989715
0.00591152
0.00238495
0.000417171
0.000188801
1.00033e-05
1.00253e-05
1.63675e-05
1.98634e-05
1.69507e-05
1.55228e-05
1.57726e-05
1.61294e-05
1.61663e-05
1.61132e-05
1.61005e-05
1.61069e-05
1.61087e-05
1.61066e-05
1.61048e-05
1.61039e-05
1.61033e-05
1.61029e-05
1.61027e-05
1.61027e-05
1.61028e-05
1.61029e-05
1.6103e-05
1.61031e-05
1.61032e-05
1.61033e-05
1.61033e-05
1.61032e-05
1.61031e-05
1.61028e-05
1.61023e-05
1.61016e-05
1.61008e-05
1.60998e-05
1.60985e-05
1.60971e-05
1.60956e-05
1.60939e-05
1.6092e-05
1.60901e-05
1.60881e-05
1.60861e-05
1.6084e-05
1.6082e-05
1.608e-05
1.60781e-05
1.60766e-05
1.60754e-05
1.60748e-05
1.60747e-05
1.60751e-05
1.60758e-05
1.60769e-05
1.60784e-05
1.60801e-05
1.6082e-05
1.60842e-05
1.60865e-05
1.6089e-05
1.6092e-05
1.60944e-05
1.6101e-05
0.00836423
0.0147114
0.0194088
0.0219698
0.0225025
0.0212695
0.0186511
0.0150747
0.0109464
0.00674921
0.00317141
0.000873538
0.000367306
1.12631e-05
1.00319e-05
1.0831e-05
1.82005e-05
1.85864e-05
1.61427e-05
1.5614e-05
1.59655e-05
1.61708e-05
1.61467e-05
1.61048e-05
1.61019e-05
1.6108e-05
1.61081e-05
1.6106e-05
1.61049e-05
1.61047e-05
1.61047e-05
1.61046e-05
1.61046e-05
1.61047e-05
1.61048e-05
1.61049e-05
1.61049e-05
1.61049e-05
1.61049e-05
1.61048e-05
1.61045e-05
1.61042e-05
1.61036e-05
1.61028e-05
1.61019e-05
1.61007e-05
1.60994e-05
1.60978e-05
1.60961e-05
1.60943e-05
1.60924e-05
1.60904e-05
1.60883e-05
1.60862e-05
1.6084e-05
1.60819e-05
1.60799e-05
1.60781e-05
1.60766e-05
1.60755e-05
1.60749e-05
1.60748e-05
1.60752e-05
1.60759e-05
1.6077e-05
1.60784e-05
1.608e-05
1.60819e-05
1.6084e-05
1.60862e-05
1.60887e-05
1.60916e-05
1.60939e-05
1.61003e-05
0.0107256
0.0187315
0.0243057
0.0272901
0.0280851
0.0270373
0.0245245
0.0209716
0.0167968
0.0123966
0.00817355
0.00450992
0.00166953
0.00010785
0.00014061
1.00031e-05
1.00112e-05
1.46033e-05
2.10552e-05
1.80164e-05
1.58591e-05
1.57513e-05
1.60783e-05
1.61745e-05
1.61288e-05
1.6101e-05
1.61043e-05
1.61097e-05
1.6109e-05
1.6107e-05
1.61063e-05
1.61065e-05
1.61066e-05
1.61067e-05
1.61067e-05
1.61067e-05
1.61067e-05
1.61066e-05
1.61065e-05
1.61063e-05
1.6106e-05
1.61055e-05
1.61049e-05
1.6104e-05
1.61029e-05
1.61016e-05
1.61001e-05
1.60985e-05
1.60967e-05
1.60947e-05
1.60926e-05
1.60905e-05
1.60883e-05
1.60861e-05
1.6084e-05
1.60818e-05
1.60798e-05
1.60781e-05
1.60766e-05
1.60756e-05
1.60751e-05
1.60751e-05
1.60754e-05
1.60761e-05
1.60771e-05
1.60784e-05
1.608e-05
1.60818e-05
1.60837e-05
1.6086e-05
1.60883e-05
1.60911e-05
1.60933e-05
1.60995e-05
0.0132796
0.0230222
0.0294886
0.0329925
0.0341615
0.0334058
0.0310951
0.0276379
0.0234618
0.0189698
0.0145068
0.0102978
0.00641398
0.00300609
0.00072467
0.000368855
1e-05
1.00203e-05
1.03564e-05
1.60448e-05
1.92197e-05
1.68196e-05
1.57263e-05
1.58862e-05
1.61485e-05
1.6173e-05
1.61164e-05
1.60959e-05
1.61036e-05
1.61106e-05
1.61107e-05
1.61089e-05
1.61083e-05
1.61085e-05
1.61087e-05
1.61086e-05
1.61085e-05
1.61083e-05
1.61081e-05
1.61079e-05
1.61074e-05
1.61069e-05
1.61061e-05
1.61051e-05
1.61039e-05
1.61025e-05
1.61008e-05
1.6099e-05
1.60971e-05
1.6095e-05
1.60928e-05
1.60906e-05
1.60884e-05
1.60861e-05
1.60839e-05
1.60818e-05
1.60798e-05
1.60781e-05
1.60768e-05
1.60759e-05
1.60754e-05
1.60753e-05
1.60756e-05
1.60763e-05
1.60772e-05
1.60785e-05
1.60799e-05
1.60816e-05
1.60835e-05
1.60857e-05
1.60879e-05
1.60907e-05
1.60927e-05
1.60987e-05
0.0170069
0.0276706
0.0349044
0.0389925
0.0406431
0.0402992
0.0383157
0.0350714
0.0309821
0.0264618
0.0218677
0.0174231
0.0131511
0.00894893
0.00491447
0.00172993
0.000708343
0.000105996
1.0001e-05
1.0031e-05
1.22598e-05
1.95709e-05
1.85568e-05
1.61981e-05
1.56368e-05
1.59393e-05
1.61824e-05
1.61831e-05
1.612e-05
1.60974e-05
1.61046e-05
1.61123e-05
1.61131e-05
1.61113e-05
1.61104e-05
1.61103e-05
1.61103e-05
1.61101e-05
1.61098e-05
1.61094e-05
1.61088e-05
1.61081e-05
1.61072e-05
1.61061e-05
1.61048e-05
1.61032e-05
1.61014e-05
1.60995e-05
1.60974e-05
1.60952e-05
1.6093e-05
1.60907e-05
1.60883e-05
1.60861e-05
1.60839e-05
1.60818e-05
1.60799e-05
1.60783e-05
1.6077e-05
1.60762e-05
1.60758e-05
1.60757e-05
1.60759e-05
1.60765e-05
1.60774e-05
1.60785e-05
1.60799e-05
1.60815e-05
1.60833e-05
1.60853e-05
1.60875e-05
1.60902e-05
1.60922e-05
1.60979e-05
0.0218719
0.0326853
0.0405108
0.045193
0.0474059
0.0475889
0.0460711
0.0431898
0.0393275
0.0348892
0.0302473
0.025662
0.0212067
0.0167691
0.0121903
0.00753838
0.003299
0.000622773
0.000435648
1e-05
1.0007e-05
1.00031e-05
1.35581e-05
2.02073e-05
1.83531e-05
1.60793e-05
1.5628e-05
1.59405e-05
1.61785e-05
1.61848e-05
1.61238e-05
1.60985e-05
1.61046e-05
1.61135e-05
1.61154e-05
1.61136e-05
1.6112e-05
1.61115e-05
1.61113e-05
1.61109e-05
1.61103e-05
1.61093e-05
1.61083e-05
1.6107e-05
1.61055e-05
1.61038e-05
1.61019e-05
1.60999e-05
1.60977e-05
1.60954e-05
1.6093e-05
1.60906e-05
1.60883e-05
1.6086e-05
1.60838e-05
1.60818e-05
1.608e-05
1.60785e-05
1.60774e-05
1.60766e-05
1.60762e-05
1.60761e-05
1.60763e-05
1.60768e-05
1.60776e-05
1.60786e-05
1.60799e-05
1.60814e-05
1.60831e-05
1.6085e-05
1.60871e-05
1.60896e-05
1.60915e-05
1.60971e-05
0.0276019
0.0380735
0.0462677
0.0514816
0.0542922
0.055094
0.0541755
0.0518226
0.0483662
0.0441779
0.0396257
0.0350008
0.0304416
0.0259078
0.0212368
0.0162633
0.0109895
0.0058818
0.00214614
0.00093242
0.000189977
1.00348e-05
1.00125e-05
1.00829e-05
1.44365e-05
1.95694e-05
1.79798e-05
1.60282e-05
1.5624e-05
1.59268e-05
1.61768e-05
1.61988e-05
1.61358e-05
1.61007e-05
1.6102e-05
1.61123e-05
1.61166e-05
1.61154e-05
1.61132e-05
1.61119e-05
1.61112e-05
1.61105e-05