/*--------------------------------*- C++ -*----------------------------------*\
| =========                 |                                                 |
| \\      /  F ield         | OpenFOAM: The Open Source CFD Toolbox           |
|  \\    /   O peration     | Version:  2312                                  |
|   \\  /    A nd           | Website:  www.openfoam.com                      |
|    \\/     M anipulation  |                                                 |
\*---------------------------------------------------------------------------*/
FoamFile
{
    version     2.0;
    format      ascii;
    arch        "LSB;label=32;scalar=64";
    class       volScalarField;
    location    "600";
    object      turbulenceProperties:k;
}
// * * * * * * * * * * * * * * * * * * * * * * * * * * * * * * * * * * * * * //

dimensions      [0 2 -2 0 0 0 0];

internalField   nonuniform List<scalar> 
11040
(
0.400901
0.441515
0.0714704
0.0451179
0.269109
0.278829
0.263804
0.240165
0.215401
0.199582
0.184746
0.171753
0.161024
0.152708
0.145862
0.142222
0.141554
0.144048
0.149313
0.157319
0.168398
0.182235
0.198805
0.218311
0.240801
0.267204
0.296439
0.32416
0.34778
0.364254
0.370597
0.364723
0.348591
0.329317
0.306885
0.223949
0.116182
0.0675355
0.0284182
0.122005
0.217496
0.0334826
0.069302
0.233929
0.418118
0.808311
0.274167
0.0852084
0.029392
0.00769097
0.00569231
0.0136285
0.0181536
0.0211445
0.0232947
0.0246784
0.0260114
0.027684
0.0298094
0.032029
0.0343107
0.0367146
0.0392796
0.041299
0.0420319
0.0412763
0.0399613
0.0383674
0.0355406
0.0315958
0.0272539
0.0238893
0.0229185
0.0232172
0.0264531
0.0330693
0.0429749
0.0568359
0.0730688
0.115721
0.126747
0.54293
0.0206638
0.0185218
0.04069
0.175214
0.932341
1.25709
0.65736
0.249628
0.117077
0.0693788
0.0385729
0.0215371
0.00983692
0.00202722
0.00400942
0.00795802
0.0107958
0.0128745
0.0144302
0.0155241
0.0162453
0.0165928
0.0161747
0.0148377
0.0128276
0.0105205
0.00804382
0.00513343
0.00134747
0.00435878
0.0123509
0.0236913
0.0387833
0.0578632
0.0814151
0.110622
0.147041
0.185743
0.27109
0.34151
0.504727
0.0148567
0.0127119
0.0105484
0.0162834
0.222609
1.07926
1.61743
1.09258
0.458852
0.246103
0.144911
0.0965172
0.0670635
0.0470548
0.0343714
0.0254798
0.0199864
0.0165258
0.0147073
0.0142213
0.0145899
0.0157458
0.0177932
0.0205384
0.0233589
0.0256926
0.0271064
0.0273269
0.0265877
0.0267281
0.0318546
0.0454613
0.0680455
0.0997389
0.140825
0.193015
0.258921
0.330968
0.460656
0.612645
0.54332
0.0110614
0.00996901
0.010628
0.00532882
0.00703281
0.198569
1.02657
1.82499
1.57285
0.794314
0.419556
0.252879
0.173559
0.124609
0.0959616
0.0760044
0.0637796
0.0557293
0.0510157
0.0488273
0.0482026
0.0487504
0.0505191
0.0533891
0.0565381
0.0592164
0.0607947
0.0607495
0.059069
0.0572396
0.0597508
0.0737081
0.103634
0.14995
0.212147
0.291782
0.392275
0.50615
0.671684
0.916057
0.733303
0.00798394
0.00732612
0.00713105
0.00790975
0.00242844
0.00171823
0.134643
0.823969
1.85271
2.0007
1.30097
0.667397
0.413054
0.276791
0.203941
0.157523
0.130169
0.112566
0.101812
0.0962272
0.0936273
0.093059
0.0942745
0.0971764
0.100727
0.103928
0.10576
0.105186
0.101634
0.0961353
0.0935776
0.104879
0.140729
0.203078
0.289924
0.401659
0.541701
0.704082
0.900087
1.22441
1.03639
0.00576674
0.00550994
0.0051704
0.00551132
0.00571308
0.00108488
4.638e-05
0.0634924
0.555219
1.61761
2.25215
1.88788
1.10324
0.629795
0.422875
0.30986
0.242123
0.2
0.174483
0.160842
0.153803
0.151184
0.151746
0.155067
0.159582
0.163848
0.16628
0.165107
0.158864
0.147717
0.136088
0.137974
0.173861
0.250889
0.3643
0.511261
0.693565
0.906354
1.13502
1.51145
1.38915
0.00420821
0.00411333
0.00404997
0.00388838
0.00421431
0.00443418
0.000196038
2.1973e-06
0.0200101
0.301143
1.17315
2.1998
2.367
1.72441
1.00135
0.629737
0.450828
0.352243
0.291479
0.256105
0.236815
0.228943
0.227571
0.231263
0.237334
0.243529
0.247398
0.246121
0.236799
0.218212
0.19282
0.17443
0.195827
0.280063
0.418819
0.601562
0.825581
1.08466
1.34935
1.74129
1.7223
0.00310804
0.00306336
0.0030683
0.00304207
0.00292035
0.00330869
0.00317448
0.000410239
0.000386422
0.000864417
0.116194
0.680599
1.75754
2.53354
2.35441
1.61194
0.972279
0.655661
0.497277
0.41013
0.360704
0.337997
0.330348
0.332852
0.340395
0.348879
0.35477
0.354141
0.342486
0.316093
0.273849
0.223714
0.202552
0.271391
0.428608
0.644436
0.905965
1.20245
1.49924
1.87383
1.96046
0.00230824
0.00228724
0.00230327
0.00232728
0.00230698
0.00223411
0.00252154
0.00226254
0.000701111
0.000101068
2.2437e-06
0.0297589
0.299172
1.10883
2.20645
2.71057
2.32973
1.57805
0.998999
0.710278
0.570708
0.504297
0.47583
0.469939
0.476537
0.488449
0.498945
0.500986
0.48808
0.454793
0.396439
0.311621
0.217268
0.205411
0.360247
0.60422
0.896492
1.21859
1.53474
1.87386
2.03306
0.0017217
0.00171177
0.0017285
0.00175501
0.00177929
0.00176192
0.00173668
0.00186196
0.00183842
0.000868443
6.54006e-05
0.00042523
0.000500622
0.0833718
0.515598
1.47196
2.49975
2.81865
2.35634
1.62894
1.08396
0.820849
0.713377
0.671855
0.662331
0.670295
0.684024
0.692561
0.685849
0.654021
0.587643
0.479461
0.327332
0.144398
0.171564
0.444364
0.761027
1.09609
1.41317
1.70511
1.89186
0.00128684
0.00128267
0.00129473
0.00131901
0.00134435
0.00136459
0.00135932
0.00134445
0.00139278
0.00143584
0.00101219
3.10451e-05
2.43394e-05
0.00144791
0.0115574
0.159147
0.707708
1.72013
2.67744
2.92297
2.46653
1.80804
1.32056
1.0633
0.958894
0.932686
0.936211
0.944501
0.943329
0.919978
0.862494
0.760429
0.607997
0.406746
0.190127
0.243559
0.536652
0.857304
1.14829
1.37976
1.54182
0.000962378
0.000961406
0.000969503
0.000988071
0.00101127
0.00103325
0.00105074
0.0010544
0.00104618
0.00105818
0.00112052
0.000968798
0.000203279
2.12568e-05
0.000165939
0.00313403
0.0237886
0.220064
0.821165
1.83588
2.77362
3.06725
2.77349
2.27839
1.83011
1.5264
1.36624
1.30651
1.29455
1.28549
1.25145
1.17827
1.06258
0.913024
0.756381
0.650994
0.672273
0.816402
0.991861
1.11878
1.17853
0.00071917
0.00071994
0.000725122
0.000738544
0.000757403
0.000777459
0.000796119
0.000811876
0.000820165
0.000817992
0.000818209
0.000865951
0.000832469
0.000450222
2.64192e-06
2.49858e-06
0.00040764
0.00479914
0.0302734
0.237411
0.83069
1.77659
2.68576
3.19227
3.23693
3.00431
2.67694
2.35799
2.09945
1.91807
1.80442
1.7318
1.67086
1.60498
1.53689
1.48028
1.45483
1.4684
1.50942
1.53425
1.44602
0.00053627
0.00053791
0.000541212
0.000550746
0.000565219
0.000581806
0.000598687
0.000614674
0.000628782
0.000639035
0.000641261
0.000642337
0.000666038
0.000669633
0.000582202
0.000142988
1.78026e-05
3.28309e-07
0.000885564
0.00111026
0.032374
0.19665
0.629881
1.3502
2.20657
2.96174
3.45303
3.66228
3.66392
3.53447
3.32613
3.0809
2.84102
2.64406
2.5142
2.4599
2.47536
2.52906
2.5899
2.64245
2.5527
0.000398578
0.000400462
0.000402578
0.00040929
0.000420104
0.000433071
0.000446953
0.000461098
0.000474769
0.000487188
0.000497495
0.000502878
0.000506737
0.000512262
0.000537511
0.000499305
0.000381058
2.88076e-05
6.77865e-06
2.42555e-05
0.000865735
0.0033175
0.0116218
0.0847842
0.297018
0.711228
1.32663
2.06831
2.82057
3.48178
3.99238
4.33192
4.50802
4.547
4.48916
4.378
4.25517
4.14789
4.08079
4.08836
4.02013
0.000295791
0.000297561
0.000298978
0.000303736
0.000311709
0.000321511
0.000332357
0.000343816
0.000355488
0.000366845
0.00037743
0.00038673
0.000393951
0.000398173
0.00040402
0.000414567
0.000428295
0.000380535
0.000233089
2.13824e-05
1.88522e-06
1.50664e-08
0.000269362
0.001591
2.86437e-05
0.0105011
0.0619442
0.1966
0.456571
0.865291
1.41759
2.07938
2.79832
3.51885
4.19025
4.76914
5.23435
5.58081
5.82783
6.02879
6.07312
0.000221656
0.000223232
0.000224306
0.000227856
0.000233869
0.000241351
0.00024977
0.000258865
0.000268349
0.000277914
0.000287224
0.000296022
0.000304077
0.000311063
0.000316138
0.000320852
0.000326776
0.000340134
0.000341696
0.000286074
0.00014712
1.44196e-06
2.31912e-06
9.73199e-08
3.50662e-07
0.000224398
0.00129297
0.00220796
0.0017138
0.0133438
0.0550602
0.151307
0.327693
0.606131
0.998813
1.50211
2.09989
2.77063
3.4795
4.21154
4.85551
0.000169226
0.000170618
0.0001715
0.000174258
0.000178908
0.000184727
0.000191353
0.000198637
0.000206379
0.000214349
0.000222316
0.000230074
0.000237446
0.000244334
0.000250495
0.000255832
0.00025984
0.000264885
0.000271531
0.000282488
0.000278183
0.000230646
0.00014847
9.38156e-06
3.29221e-06
9.27683e-07
2.73896e-08
0
2.71554e-05
0.000329579
0.00118457
0.00148426
0.0018332
0.00205749
0.0139932
0.0469075
0.115239
0.234291
0.417407
0.677615
1.01391
0.000131578
0.00013276
0.000133494
0.000135673
0.000139318
0.000143887
0.000149129
0.000154945
0.000161206
0.000167744
0.000174411
0.000181067
0.000187577
0.000193815
0.000199678
0.0002051
0.000209931
0.000214095
0.000217723
0.000222402
0.00022928
0.000234525
0.000233119
0.000202475
0.000151383
9.15724e-05
2.97269e-06
1.93556e-06
7.38828e-07
3.1079e-07
0
0
0
3.42143e-05
0.000369535
0.00102746
0.00130653
0.0007109
6.6949e-05
0.00230516
0.0105862
0.000103697
0.000104679
0.000105298
0.000107044
0.000109933
0.000113558
0.000117738
0.000122401
0.000127455
0.000132777
0.000138263
0.000143821
0.000149359
0.000154782
0.000160006
0.000164955
0.000169588
0.00017384
0.000177638
0.00018097
0.000184211
0.000188526
0.000193397
0.000199657
0.000198881
0.000192729
0.000168202
0.00012848
8.46137e-05
3.768e-05
4.64209e-06
7.88506e-07
5.6704e-07
3.37293e-07
1.50796e-07
1.05152e-10
0
0
1.04579e-06
3.60106e-05
0.000218914
8.26121e-05
8.34206e-05
8.39519e-05
8.53699e-05
8.76818e-05
9.05833e-05
9.39402e-05
9.76971e-05
0.000101785
0.000106113
0.0001106
0.000115184
0.000119797
0.000124371
0.000128845
0.000133158
0.000137263
0.000141122
0.000144713
0.000148015
0.000150883
0.000153489
0.000155986
0.000159239
0.000163071
0.000166633
0.000170958
0.000170724
0.000165297
0.000154905
0.000134839
0.000108446
8.00475e-05
4.94918e-05
2.345e-05
1.76589e-08
5.67248e-07
4.20585e-07
3.06579e-07
2.06553e-07
1.15564e-07
6.63823e-05
6.7045e-05
6.75061e-05
6.86678e-05
7.05319e-05
7.28702e-05
7.55811e-05
7.86208e-05
8.19343e-05
8.54528e-05
8.91126e-05
9.28698e-05
9.6674e-05
0.000100472
0.000104216
0.000107863
0.000111371
0.000114707
0.000117841
0.000120772
0.000123413
0.00012574
0.000127801
0.000129589
0.000131357
0.000133144
0.000135405
0.000138046
0.000140605
0.00014276
0.000144558
0.000143712
0.000140329
0.000134072
0.000126004
0.000112548
9.59368e-05
7.7591e-05
5.89205e-05
4.14109e-05
2.45479e-05
5.37158e-05
5.42582e-05
5.46624e-05
5.56217e-05
5.71349e-05
5.90307e-05
6.12312e-05
6.37004e-05
6.63927e-05
6.92563e-05
7.22396e-05
7.5308e-05
7.84241e-05
8.15463e-05
8.46366e-05
8.76612e-05
9.05871e-05
9.33851e-05
9.60284e-05
9.85083e-05
0.000100756
0.000102755
0.000104547
0.000106078
0.00010737
0.000108466
0.000109406
0.000110294
0.000111219
0.000112206
0.000113347
0.000114548
0.000115627
0.000116459
0.000116868
0.00011736
0.000116657
0.000114655
0.000111523
0.000107205
0.000102461
4.3716e-05
4.41598e-05
4.45168e-05
4.53141e-05
4.65494e-05
4.80942e-05
4.98882e-05
5.19003e-05
5.40932e-05
5.64258e-05
5.88568e-05
6.13576e-05
6.39006e-05
6.64516e-05
6.89803e-05
7.14595e-05
7.38624e-05
7.61637e-05
7.83408e-05
8.03831e-05
8.223e-05
8.38689e-05
8.53334e-05
8.65854e-05
8.76326e-05
8.84948e-05
8.91785e-05
8.96901e-05
9.00486e-05
9.02782e-05
9.04036e-05
9.04617e-05
9.04743e-05
9.04695e-05
9.04291e-05
9.04083e-05
9.03739e-05
9.02874e-05
9.01402e-05
8.97564e-05
8.94878e-05
3.5746e-05
3.611e-05
3.64272e-05
3.70938e-05
3.81078e-05
3.93726e-05
4.08412e-05
4.2486e-05
4.42765e-05
4.61789e-05
4.8161e-05
5.01977e-05
5.22681e-05
5.43434e-05
5.64e-05
5.84151e-05
6.03676e-05
6.22353e-05
6.39994e-05
6.56489e-05
6.71334e-05
6.84434e-05
6.96075e-05
7.05909e-05
7.14007e-05
7.20525e-05
7.25562e-05
7.29167e-05
7.31398e-05
7.32326e-05
7.32022e-05
7.30584e-05
7.28079e-05
7.24653e-05
7.20458e-05
7.15539e-05
7.10004e-05
7.04017e-05
6.98086e-05
6.91246e-05
6.85857e-05
2.93431e-05
2.96429e-05
2.9926e-05
3.04868e-05
3.13235e-05
3.2364e-05
3.35708e-05
3.49195e-05
3.63848e-05
3.79386e-05
3.95556e-05
4.12141e-05
4.2897e-05
4.45811e-05
4.62468e-05
4.78757e-05
4.94506e-05
5.09526e-05
5.2366e-05
5.36809e-05
5.48554e-05
5.58844e-05
5.6793e-05
5.75513e-05
5.81635e-05
5.86429e-05
5.8998e-05
5.92346e-05
5.93594e-05
5.938e-05
5.93037e-05
5.91384e-05
5.88878e-05
5.85614e-05
5.81688e-05
5.7714e-05
5.71984e-05
5.66264e-05
5.60465e-05
5.53532e-05
5.4859e-05
2.41644e-05
2.44129e-05
2.46668e-05
2.51417e-05
2.58361e-05
2.66962e-05
2.76917e-05
2.88012e-05
3.0003e-05
3.12745e-05
3.25947e-05
3.39454e-05
3.53121e-05
3.66769e-05
3.80224e-05
3.93341e-05
4.05977e-05
4.17981e-05
4.29214e-05
4.39598e-05
4.48787e-05
4.5677e-05
4.63769e-05
4.69533e-05
4.7409e-05
4.77556e-05
4.80004e-05
4.81489e-05
4.82068e-05
4.81814e-05
4.80794e-05
4.79085e-05
4.76727e-05
4.73804e-05
4.70404e-05
4.66567e-05
4.62301e-05
4.57625e-05
4.53002e-05
4.47292e-05
4.43985e-05
1.9952e-05
2.01596e-05
2.03886e-05
2.07938e-05
2.13735e-05
2.20882e-05
2.29126e-05
2.38283e-05
2.48166e-05
2.5859e-05
2.69381e-05
2.80389e-05
2.91485e-05
3.02537e-05
3.13385e-05
3.2392e-05
3.34021e-05
3.43569e-05
3.52447e-05
3.60591e-05
3.67722e-05
3.73857e-05
3.79196e-05
3.8353e-05
3.8688e-05
3.89346e-05
3.90994e-05
3.91871e-05
3.9203e-05
3.91533e-05
3.90439e-05
3.88814e-05
3.86694e-05
3.84149e-05
3.81255e-05
3.78047e-05
3.74529e-05
3.70702e-05
3.67013e-05
3.62302e-05
3.60217e-05
1.65088e-05
1.66841e-05
1.68921e-05
1.72404e-05
1.77277e-05
1.83248e-05
1.90105e-05
1.9769e-05
2.0584e-05
2.14406e-05
2.23239e-05
2.32219e-05
2.41236e-05
2.50179e-05
2.58919e-05
2.67365e-05
2.75422e-05
2.82992e-05
2.89981e-05
2.96337e-05
3.01839e-05
3.06523e-05
3.10567e-05
3.13799e-05
3.16237e-05
3.17969e-05
3.19052e-05
3.19526e-05
3.19438e-05
3.18842e-05
3.17786e-05
3.16328e-05
3.14495e-05
3.12346e-05
3.09942e-05
3.07314e-05
3.04461e-05
3.0137e-05
2.98463e-05
2.94589e-05
2.93484e-05
1.36826e-05
1.38328e-05
1.40232e-05
1.4325e-05
1.47376e-05
1.52393e-05
1.58125e-05
1.6443e-05
1.71173e-05
1.78229e-05
1.85477e-05
1.92812e-05
2.00145e-05
2.07384e-05
2.14428e-05
2.21194e-05
2.27612e-05
2.33602e-05
2.39092e-05
2.44036e-05
2.48266e-05
2.51824e-05
2.54874e-05
2.57269e-05
2.59029e-05
2.60229e-05
2.6092e-05
2.61136e-05
2.60916e-05
2.60305e-05
2.59344e-05
2.58079e-05
2.56533e-05
2.54753e-05
2.52789e-05
2.50667e-05
2.48382e-05
2.45915e-05
2.43654e-05
2.40477e-05
2.40144e-05
1.13545e-05
1.14857e-05
1.16612e-05
1.1925e-05
1.2277e-05
1.27012e-05
1.31828e-05
1.37091e-05
1.42691e-05
1.4852e-05
1.54481e-05
1.60484e-05
1.66457e-05
1.72321e-05
1.78e-05
1.83421e-05
1.88533e-05
1.9327e-05
1.97578e-05
2.0142e-05
2.04667e-05
2.07366e-05
2.09663e-05
2.11437e-05
2.12704e-05
2.13528e-05
2.13956e-05
2.14015e-05
2.13738e-05
2.13162e-05
2.12322e-05
2.11253e-05
2.09976e-05
2.08525e-05
2.06942e-05
2.05249e-05
2.03438e-05
2.01485e-05
1.99744e-05
1.9714e-05
1.97375e-05
9.43106e-06
9.54813e-06
9.71084e-06
9.94349e-06
1.02463e-05
1.06072e-05
1.10141e-05
1.14556e-05
1.19226e-05
1.2406e-05
1.28977e-05
1.33903e-05
1.38775e-05
1.43534e-05
1.48119e-05
1.52467e-05
1.56538e-05
1.60284e-05
1.63662e-05
1.66644e-05
1.69133e-05
1.71177e-05
1.72902e-05
1.7421e-05
1.75116e-05
1.75676e-05
1.75927e-05
1.75895e-05
1.75605e-05
1.75089e-05
1.74373e-05
1.73489e-05
1.72448e-05
1.71281e-05
1.70019e-05
1.68679e-05
1.67255e-05
1.65717e-05
1.64387e-05
1.62253e-05
1.62886e-05
7.83807e-06
7.94469e-06
8.09648e-06
8.30347e-06
8.56588e-06
8.8754e-06
9.22119e-06
9.59375e-06
9.985e-06
1.03876e-05
1.07947e-05
1.12003e-05
1.15989e-05
1.19862e-05
1.2357e-05
1.27064e-05
1.30312e-05
1.3328e-05
1.35934e-05
1.38255e-05
1.40169e-05
1.41722e-05
1.43026e-05
1.43998e-05
1.4465e-05
1.45033e-05
1.45178e-05
1.45104e-05
1.44833e-05
1.44391e-05
1.438e-05
1.43081e-05
1.42247e-05
1.41319e-05
1.40323e-05
1.39271e-05
1.38158e-05
1.36952e-05
1.35939e-05
1.34193e-05
1.35065e-05
6.51607e-06
6.61512e-06
6.75743e-06
6.94308e-06
7.17259e-06
7.43995e-06
7.73587e-06
8.05213e-06
8.38177e-06
8.71881e-06
9.05737e-06
9.39262e-06
9.71997e-06
1.0036e-05
1.03367e-05
1.06182e-05
1.08778e-05
1.11132e-05
1.13218e-05
1.15023e-05
1.16494e-05
1.17672e-05
1.18654e-05
1.19373e-05
1.19838e-05
1.20092e-05
1.20164e-05
1.20069e-05
1.19825e-05
1.1945e-05
1.18964e-05
1.18385e-05
1.17721e-05
1.16988e-05
1.16206e-05
1.15385e-05
1.14519e-05
1.13579e-05
1.12811e-05
1.11383e-05
1.12393e-05
5.41724e-06
5.51084e-06
5.64482e-06
5.81268e-06
6.01516e-06
6.24793e-06
6.50306e-06
6.77327e-06
7.0528e-06
7.33651e-06
7.61962e-06
7.89803e-06
8.16817e-06
8.42711e-06
8.67198e-06
8.89975e-06
9.10834e-06
9.29608e-06
9.46136e-06
9.60318e-06
9.71762e-06
9.80838e-06
9.88398e-06
9.93857e-06
9.97321e-06
9.99148e-06
9.99559e-06
9.98688e-06
9.96674e-06
9.93673e-06
9.89822e-06
9.85266e-06
9.80061e-06
9.7433e-06
9.68234e-06
9.6184e-06
9.55096e-06
9.47744e-06
9.41858e-06
9.30247e-06
9.40416e-06
4.50291e-06
4.5926e-06
4.71906e-06
4.87201e-06
5.05217e-06
5.25648e-06
5.47804e-06
5.71063e-06
5.94923e-06
6.18957e-06
6.42768e-06
6.66017e-06
6.88413e-06
7.0972e-06
7.29725e-06
7.48203e-06
7.64982e-06
7.79949e-06
7.92992e-06
8.04054e-06
8.12865e-06
8.19743e-06
8.2544e-06
8.29462e-06
8.31903e-06
8.33075e-06
8.33172e-06
8.323e-06
8.30563e-06
8.28086e-06
8.24983e-06
8.21359e-06
8.17256e-06
8.12765e-06
8.08009e-06
8.03032e-06
7.97794e-06
7.92064e-06
7.87566e-06
7.78124e-06
7.88079e-06
3.74164e-06
3.82843e-06
3.9481e-06
4.08838e-06
4.25007e-06
4.43077e-06
4.62465e-06
4.82622e-06
5.03126e-06
5.23616e-06
5.43765e-06
5.63298e-06
5.8199e-06
5.99654e-06
6.16147e-06
6.31307e-06
6.45e-06
6.57162e-06
6.67728e-06
6.7667e-06
6.83799e-06
6.89353e-06
6.93987e-06
6.97278e-06
6.99306e-06
7.00325e-06
7.00494e-06
6.99892e-06
6.98608e-06
6.96735e-06
6.94365e-06
6.9158e-06
6.88414e-06
6.84931e-06
6.81231e-06
6.77347e-06
6.73236e-06
6.68723e-06
6.6515e-06
6.57631e-06
6.66038e-06
3.10782e-06
3.19226e-06
3.30556e-06
3.43516e-06
3.58141e-06
3.74241e-06
3.91316e-06
4.08891e-06
4.26615e-06
4.44185e-06
4.61335e-06
4.77834e-06
4.93498e-06
5.08164e-06
5.21739e-06
5.34106e-06
5.45148e-06
5.5483e-06
5.63129e-06
5.70033e-06
5.7543e-06
5.79545e-06
5.82947e-06
5.8528e-06
5.86619e-06
5.87188e-06
5.87121e-06
5.86484e-06
5.85344e-06
5.83776e-06
5.81851e-06
5.79627e-06
5.77127e-06
5.74397e-06
5.71505e-06
5.68467e-06
5.65256e-06
5.61725e-06
5.5894e-06
5.5283e-06
5.60567e-06
2.58014e-06
2.66252e-06
2.76989e-06
2.89014e-06
3.0233e-06
3.16765e-06
3.3188e-06
3.47278e-06
3.62666e-06
3.77809e-06
3.92496e-06
4.06548e-06
4.19823e-06
4.3222e-06
4.43691e-06
4.54159e-06
4.6354e-06
4.71809e-06
4.78945e-06
4.84955e-06
4.89749e-06
4.93452e-06
4.96571e-06
4.98798e-06
5.00191e-06
5.00933e-06
5.01134e-06
5.00847e-06
5.00125e-06
4.99028e-06
4.97614e-06
4.95935e-06
4.94011e-06
4.91876e-06
4.89589e-06
4.87173e-06
4.84582e-06
4.81748e-06
4.7935e-06
4.74822e-06
4.79708e-06
2.14097e-06
2.22173e-06
2.32371e-06
2.4357e-06
2.55708e-06
2.68654e-06
2.8206e-06
2.95596e-06
3.09014e-06
3.22115e-06
3.3473e-06
3.46717e-06
3.57941e-06
3.68265e-06
3.77618e-06
3.8596e-06
3.93263e-06
3.99557e-06
4.04872e-06
4.09225e-06
4.12586e-06
4.15113e-06
4.17217e-06
4.18647e-06
4.19455e-06
4.19795e-06
4.19755e-06
4.19375e-06
4.18693e-06
4.17753e-06
4.16591e-06
4.15241e-06
4.13714e-06
4.12032e-06
4.10224e-06
4.08297e-06
4.06233e-06
4.03956e-06
4.02029e-06
3.98139e-06
4.0303e-06
1.77681e-06
1.85637e-06
1.95375e-06
2.05832e-06
2.1687e-06
2.28401e-06
2.40199e-06
2.5205e-06
2.63774e-06
2.75192e-06
2.86139e-06
2.96507e-06
3.06273e-06
3.15464e-06
3.24094e-06
3.32046e-06
3.39176e-06
3.45424e-06
3.50787e-06
3.55299e-06
3.5893e-06
3.61713e-06
3.6406e-06
3.65757e-06
3.66858e-06
3.675e-06
3.67762e-06
3.67684e-06
3.67301e-06
3.66659e-06
3.65797e-06
3.6475e-06
3.63532e-06
3.62166e-06
3.60687e-06
3.59115e-06
3.57399e-06
3.5558e-06
3.53749e-06
3.51579e-06
3.52055e-06
1.47819e-06
1.5556e-06
1.64766e-06
1.74482e-06
1.84494e-06
1.94721e-06
2.0501e-06
2.15244e-06
2.25352e-06
2.35254e-06
2.44804e-06
2.53776e-06
2.61909e-06
2.6898e-06
2.7498e-06
2.80154e-06
2.84728e-06
2.88756e-06
2.92238e-06
2.95133e-06
2.97423e-06
2.99222e-06
3.00771e-06
3.01889e-06
3.026e-06
3.03005e-06
3.03162e-06
3.03093e-06
3.02815e-06
3.02353e-06
3.01726e-06
3.00949e-06
3.00028e-06
2.98967e-06
2.97779e-06
2.96457e-06
2.95003e-06
2.93371e-06
2.9184e-06
2.89115e-06
2.91947e-06
1.23467e-06
1.30805e-06
1.39195e-06
1.47884e-06
1.56739e-06
1.65766e-06
1.74842e-06
1.83797e-06
1.92499e-06
2.00901e-06
2.09074e-06
2.17178e-06
2.25377e-06
2.33731e-06
2.42015e-06
2.49605e-06
2.56062e-06
2.61455e-06
2.65937e-06
2.69668e-06
2.72652e-06
2.74868e-06
2.76691e-06
2.77995e-06
2.78838e-06
2.79325e-06
2.79518e-06
2.79454e-06
2.79168e-06
2.78696e-06
2.78072e-06
2.77324e-06
2.76468e-06
2.75521e-06
2.74508e-06
2.73458e-06
2.72297e-06
2.71192e-06
2.69672e-06
2.69659e-06
2.65139e-06
1.03102e-06
1.10205e-06
1.17783e-06
1.25205e-06
1.32509e-06
1.39957e-06
1.47667e-06
1.55612e-06
1.63613e-06
1.71326e-06
1.78296e-06
1.84088e-06
1.88471e-06
1.91498e-06
1.93697e-06
1.96139e-06
1.99269e-06
2.02625e-06
2.05864e-06
2.08782e-06
2.11343e-06
2.13619e-06
2.15666e-06
2.17367e-06
2.18726e-06
2.19802e-06
2.20632e-06
2.21227e-06
2.216e-06
2.21763e-06
2.21729e-06
2.21502e-06
2.2109e-06
2.2049e-06
2.19706e-06
2.1872e-06
2.17567e-06
2.16157e-06
2.14807e-06
2.12018e-06
2.14912e-06
8.59569e-07
9.36289e-07
1.01285e-06
1.08118e-06
1.14112e-06
1.19631e-06
1.2502e-06
1.30591e-06
1.36674e-06
1.43578e-06
1.51553e-06
1.60696e-06
1.70845e-06
1.81606e-06
1.92123e-06
2.0065e-06
2.0665e-06
2.11237e-06
2.14886e-06
2.17823e-06
2.20011e-06
2.21503e-06
2.22586e-06
2.23221e-06
2.23481e-06
2.23452e-06
2.23193e-06
2.22746e-06
2.22153e-06
2.21452e-06
2.20678e-06
2.19864e-06
2.19026e-06
2.18185e-06
2.17364e-06
2.1661e-06
2.15812e-06
2.15285e-06
2.13958e-06
2.16213e-06
2.05884e-06
7.3562e-07
8.11155e-07
8.85676e-07
9.54524e-07
1.01594e-06
1.0697e-06
1.11485e-06
1.15049e-06
1.17677e-06
1.195e-06
1.2073e-06
1.2161e-06
1.22382e-06
1.23089e-06
1.23943e-06
1.26405e-06
1.30551e-06
1.35115e-06
1.39686e-06
1.44002e-06
1.48008e-06
1.51699e-06
1.55109e-06
1.58198e-06
1.60942e-06
1.63354e-06
1.6545e-06
1.67231e-06
1.68694e-06
1.69836e-06
1.70655e-06
1.71143e-06
1.71298e-06
1.71104e-06
1.70557e-06
1.69626e-06
1.68374e-06
1.66589e-06
1.64918e-06
1.60484e-06
1.64602e-06
7.9665e-07
8.95087e-07
9.47839e-07
9.58086e-07
9.45696e-07
9.38184e-07
9.59458e-07
1.02003e-06
1.1147e-06
1.22934e-06
1.34901e-06
1.46223e-06
1.56163e-06
1.64502e-06
1.71039e-06
1.74302e-06
1.7463e-06
1.73619e-06
1.72009e-06
1.70089e-06
1.67741e-06
1.65623e-06
1.633e-06
1.60909e-06
1.58519e-06
1.56143e-06
1.53782e-06
1.5144e-06
1.49114e-06
1.46793e-06
1.4446e-06
1.42095e-06
1.39662e-06
1.37125e-06
1.34467e-06
1.31703e-06
1.28642e-06
1.25602e-06
1.21305e-06
1.20979e-06
1.04663e-06
6.35274
7.73941
7.27111
5.89527
4.04134
2.24614
0.919902
0.227627
0.0496466
0.00531454
0.00184942
3.29937e-06
0.000123263
0.000352485
0.000303999
0.000209965
0.00017255
0.000153757
0.000130632
0.000110856
9.31532e-05
7.93702e-05
6.74386e-05
5.72547e-05
4.86025e-05
4.10647e-05
3.48149e-05
2.92035e-05
2.44517e-05
2.01396e-05
1.66424e-05
1.33057e-05
1.05964e-05
8.1127e-06
5.92051e-06
4.09707e-06
2.49065e-06
1.2117e-06
6.77562e-07
1.31587e-06
2.03197e-06
2.6115e-06
3.06612e-06
3.34544e-06
3.54161e-06
3.59314e-06
3.55167e-06
3.45864e-06
3.29732e-06
3.0739e-06
2.84528e-06
2.57862e-06
2.3195e-06
2.05779e-06
1.79591e-06
1.56382e-06
1.33341e-06
1.12852e-06
9.36251e-07
7.69611e-07
6.16735e-07
4.88176e-07
3.75473e-07
2.80059e-07
2.00571e-07
1.36811e-07
8.55514e-08
5.06837e-08
1.99718e-08
3.88627e-08
2.42411e-08
1.01829e-07
1.00493e-07
2.39846e-07
5.98342
10.1414
10.1892
8.63616
6.43983
4.14348
2.20398
0.893088
0.24096
0.0564496
0.00947066
0.00372559
7.99129e-06
1.86418e-05
0.000258303
0.000277186
0.000193686
0.00014669
0.00012649
0.000111575
9.46772e-05
8.03024e-05
6.82442e-05
5.80309e-05
4.93303e-05
4.16821e-05
3.53476e-05
2.96656e-05
2.48475e-05
2.0468e-05
1.69204e-05
1.35827e-05
1.08275e-05
8.36607e-06
6.16904e-06
4.34632e-06
2.73892e-06
1.40133e-06
4.40944e-07
8.66402e-07
1.59189e-06
2.16258e-06
2.62781e-06
2.90479e-06
3.11162e-06
3.18643e-06
3.15569e-06
3.08496e-06
2.96257e-06
2.7634e-06
2.56596e-06
2.33262e-06
2.10417e-06
1.87332e-06
1.636e-06
1.43019e-06
1.22504e-06
1.0405e-06
8.66928e-07
7.16766e-07
5.78209e-07
4.6155e-07
3.59894e-07
2.73081e-07
2.00612e-07
1.43259e-07
9.61323e-08
6.29703e-08
3.39411e-08
4.0098e-08
1.63616e-08
9.71455e-08
1.00736e-07
2.34676e-07
4.04034
9.69861
11.692
10.9211
8.88381
6.38664
3.99091
2.09903
0.87845
0.275361
0.0745961
0.0170525
0.00611835
0.00013359
1.75766e-05
7.69668e-05
0.000211156
0.000183854
0.000130864
0.000106481
9.36023e-05
8.11522e-05
6.90295e-05
5.85635e-05
4.98493e-05
4.22924e-05
3.57778e-05
3.00924e-05
2.52354e-05
2.08857e-05
1.71853e-05
1.39056e-05
1.10595e-05
8.62648e-06
6.46327e-06
4.63253e-06
3.05174e-06
1.7086e-06
5.72899e-07
3.55476e-07
1.11341e-06
1.69433e-06
2.14769e-06
2.44733e-06
2.64441e-06
2.75212e-06
2.74898e-06
2.68671e-06
2.60249e-06
2.44218e-06
2.27285e-06
2.07826e-06
1.88248e-06
1.68595e-06
1.47947e-06
1.29505e-06
1.12007e-06
9.55605e-07
8.03702e-07
6.69482e-07
5.47007e-07
4.41791e-07
3.51811e-07
2.73801e-07
2.08481e-07
1.56872e-07
1.14337e-07
8.33699e-08
5.66604e-08
5.59335e-08
3.32122e-08
1.00383e-07
1.05412e-07
2.33855e-07
2.82853
8.26128
11.7178
12.2563
10.9424
8.68465
6.1385
3.81942
2.05218
0.927552
0.346178
0.110588
0.0290115
0.00160295
0.0016679
4.66143e-06
7.51981e-06
0.000133156
0.000179705
0.000128761
9.33829e-05
7.89304e-05
6.9375e-05
5.96389e-05
5.06347e-05
4.29297e-05
3.63266e-05
3.06326e-05
2.57132e-05
2.13643e-05
1.75691e-05
1.43064e-05
1.14133e-05
8.98401e-06
6.84959e-06
5.0222e-06
3.4755e-06
2.16853e-06
1.09998e-06
4.34905e-07
7.72435e-07
1.29969e-06
1.71822e-06
2.02825e-06
2.21724e-06
2.34599e-06
2.37103e-06
2.32396e-06
2.26953e-06
2.14667e-06
2.00627e-06
1.84705e-06
1.68252e-06
1.51747e-06
1.34075e-06
1.17893e-06
1.02946e-06
8.84609e-07
7.52298e-07
6.33119e-07
5.24974e-07
4.30605e-07
3.50684e-07
2.80365e-07
2.2127e-07
1.74468e-07
1.35029e-07
1.05913e-07
8.10987e-08
7.64483e-08
5.77964e-08
1.08276e-07
1.16636e-07
2.36142e-07
2.23399
6.77696
10.7448
12.4934
12.2452
10.6637
8.36698
5.90953
3.73823
2.1069
1.05229
0.460372
0.1707
0.0501564
0.00888511
0.00366093
3.99315e-07
8.61331e-06
3.12908e-05
0.000112632
0.000119964
8.72811e-05
6.81688e-05
5.91007e-05
5.15801e-05
4.39479e-05
3.7042e-05
3.12202e-05
2.62488e-05
2.18853e-05
1.80436e-05
1.4764e-05
1.18542e-05
9.41885e-06
7.30169e-06
5.48677e-06
3.97045e-06
2.69907e-06
1.67889e-06
9.68498e-07
7.77039e-07
1.04776e-06
1.38335e-06
1.6644e-06
1.84724e-06
1.98228e-06
2.02605e-06
2.00212e-06
1.97257e-06
1.88118e-06
1.77e-06
1.64228e-06
1.50673e-06
1.36994e-06
1.22024e-06
1.08148e-06
9.53591e-07
8.27098e-07
7.12017e-07
6.06553e-07
5.10923e-07
4.26348e-07
3.54721e-07
2.90845e-07
2.36923e-07
1.93629e-07
1.56849e-07
1.28738e-07
1.05518e-07
9.76305e-08
8.29364e-08
1.18913e-07
1.32281e-07
2.4042e-07
2.0129
5.541
9.31111
11.7991
12.6056
11.9703
10.3075
8.08884
5.79085
3.79092
2.2784
1.25768
0.626299
0.265846
0.0871883
0.0196652
0.00614915
0.000792233
1.60472e-06
7.90862e-06
5.90264e-05
0.000106309
8.53857e-05
6.15896e-05
5.01214e-05
4.38758e-05
3.79836e-05
3.20977e-05
2.68514e-05
2.23767e-05
1.85233e-05
1.52325e-05
1.232e-05
9.87954e-06
7.77159e-06
5.97546e-06
4.48756e-06
3.24496e-06
2.2518e-06
1.5227e-06
1.10503e-06
1.04542e-06
1.19769e-06
1.39459e-06
1.54742e-06
1.6708e-06
1.72326e-06
1.71663e-06
1.70887e-06
1.64297e-06
1.55959e-06
1.46022e-06
1.3514e-06
1.2403e-06
1.11508e-06
9.98548e-07
8.89985e-07
7.80476e-07
6.80794e-07
5.87852e-07
5.03257e-07
4.27511e-07
3.62849e-07
3.04442e-07
2.54716e-07
2.14213e-07
1.79487e-07
1.51855e-07
1.29814e-07
1.19221e-07
1.07552e-07
1.31624e-07
1.49942e-07
2.46198e-07
1.98529
4.57332
7.80367
10.5071
12.0803
12.4032
11.612
9.98852
7.92265
5.82219
3.99153
2.56905
1.54973
0.857027
0.410244
0.15422
0.0394108
0.00489399
0.0026847
0
3.21508e-06
1.88198e-06
5.55157e-05
8.17732e-05
6.25302e-05
4.50966e-05
3.68365e-05
3.20974e-05
2.75831e-05
2.30652e-05
1.90319e-05
1.56702e-05
1.27667e-05
1.03377e-05
8.23966e-06
6.46174e-06
4.99816e-06
3.78078e-06
2.80558e-06
2.0643e-06
1.54924e-06
1.28246e-06
1.21314e-06
1.27073e-06
1.34644e-06
1.43098e-06
1.47713e-06
1.47309e-06
1.47913e-06
1.4336e-06
1.37356e-06
1.29952e-06
1.21464e-06
1.12699e-06
1.02404e-06
9.28054e-07
8.37091e-07
7.43274e-07
6.57417e-07
5.75941e-07
5.01085e-07
4.33187e-07
3.74515e-07
3.20707e-07
2.74355e-07
2.36056e-07
2.02738e-07
1.75222e-07
1.53898e-07
1.40904e-07
1.31322e-07
1.4566e-07
1.6811e-07
2.53121e-07
2.06971
3.83482
6.41792
8.95268
10.9002
11.9692
12.0673
11.257
9.75634
7.89562
6.00865
4.33333
2.97565
1.9367
1.16829
0.622941
0.270082
0.0843083
0.0176749
0.00526073
0.000850436
6.12198e-06
3.23124e-06
7.28683e-06
4.64009e-05
5.8546e-05
4.49069e-05
3.28669e-05
2.68076e-05
2.3119e-05
1.96388e-05
1.62724e-05
1.32484e-05
1.07704e-05
8.68848e-06
6.93865e-06
5.49598e-06
4.29677e-06
3.33298e-06
2.5823e-06
2.01469e-06
1.63511e-06
1.40141e-06
1.31102e-06
1.27229e-06
1.2857e-06
1.30139e-06
1.28341e-06
1.2889e-06
1.25717e-06
1.21358e-06
1.16099e-06
1.09645e-06
1.02977e-06
9.46841e-07
8.69374e-07
7.94448e-07
7.14851e-07
6.41375e-07
5.70185e-07
5.03918e-07
4.42805e-07
3.89272e-07
3.39223e-07
2.9551e-07
2.588e-07
2.26358e-07
1.98628e-07
1.77611e-07
1.62277e-07
1.54072e-07
1.60232e-07
1.8602e-07
2.60728e-07
2.17022
3.26813
5.20572
7.36673
9.34684
10.8439
11.654
11.6733
10.9352
9.62018
7.9965
6.32617
4.79468
3.48976
2.42367
1.57645
0.925881
0.46174
0.179029
0.0462444
0.00611643
0.000133625
0.000332656
3.21351e-07
2.76928e-06
9.16179e-06
3.683e-05
4.30996e-05
3.29153e-05
2.38543e-05
1.90903e-05
1.6292e-05
1.37562e-05
1.13332e-05
9.17611e-06
7.39331e-06
5.96177e-06
4.78535e-06
3.8315e-06
3.07013e-06
2.46733e-06
2.01907e-06
1.68183e-06
1.47367e-06
1.3214e-06
1.24412e-06
1.20459e-06
1.15556e-06
1.14416e-06
1.11639e-06
1.08137e-06
1.04497e-06
9.96945e-07
9.48183e-07
8.83072e-07
8.21929e-07
7.61506e-07
6.94688e-07
6.32145e-07
5.70041e-07
5.11217e-07
4.55909e-07
4.06684e-07
3.59653e-07
3.17881e-07
2.82167e-07
2.5017e-07
2.2191e-07
2.00832e-07
1.8309e-07
1.75718e-07
1.74801e-07
2.03217e-07
2.68575e-07
2.17119
2.77893
4.135
5.85243
7.64731
9.27233
10.519
11.2077