/*--------------------------------*- C++ -*----------------------------------*\
| =========                 |                                                 |
| \\      /  F ield         | OpenFOAM: The Open Source CFD Toolbox           |
|  \\    /   O peration     | Version:  2312                                  |
|   \\  /    A nd           | Website:  www.openfoam.com                      |
|    \\/     M anipulation  |                                                 |
\*---------------------------------------------------------------------------*/
FoamFile
{
    version     2.0;
    format      ascii;
    arch        "LSB;label=32;scalar=64";
    class       volVectorField;
    location    "600";
    object      U;
}
// * * * * * * * * * * * * * * * * * * * * * * * * * * * * * * * * * * * * * //

dimensions      [0 1 -1 0 0 0 0];

internalField   nonuniform List<vector> 
11040
(
(-0.57442 8.72223 -3.3884e-19)
(0.792578 5.80335 -2.06254e-18)
(-0.0111755 -0.0822445 -2.25467e-17)
(-1.35966 -1.16136 -1.16298e-17)
(-1.3923 -0.6966 -4.27249e-18)
(-1.36976 -0.600538 -1.68097e-17)
(-1.35095 -0.509601 3.05652e-17)
(-1.30364 -0.423924 2.22518e-17)
(-1.26395 -0.354137 4.39294e-18)
(-1.23304 -0.298145 1.22638e-18)
(-1.20482 -0.252954 -2.09652e-17)
(-1.17708 -0.211678 3.06197e-18)
(-1.15517 -0.175493 8.58522e-18)
(-1.13678 -0.143537 7.22459e-18)
(-1.12245 -0.113475 -6.92055e-18)
(-1.11459 -0.0863143 1.19906e-17)
(-1.11193 -0.0603969 5.60488e-18)
(-1.11661 -0.0355824 -1.43597e-17)
(-1.13008 -0.011302 -4.3349e-19)
(-1.15269 0.0129884 2.3389e-18)
(-1.18487 0.0375876 -2.62133e-18)
(-1.22472 0.0607427 -9.03159e-18)
(-1.27448 0.081461 9.17086e-18)
(-1.33666 0.101641 -9.35712e-18)
(-1.40968 0.121989 9.61389e-18)
(-1.48929 0.142404 1.70966e-17)
(-1.56934 0.162449 7.22516e-18)
(-1.64164 0.181186 6.75381e-18)
(-1.69869 0.197446 7.07617e-18)
(-1.73114 0.209798 9.4051e-18)
(-1.7286 0.216897 -1.66852e-17)
(-1.683 0.217926 -1.28167e-17)
(-1.59851 0.212519 -3.93281e-17)
(-1.46865 0.198042 -2.31404e-17)
(-1.28977 0.171592 2.54991e-18)
(-1.05799 0.132329 -3.70414e-17)
(-0.763755 0.0802258 1.01726e-18)
(-0.40679 0.0128868 -2.81855e-17)
(-0.0493868 -0.0564972 4.2341e-17)
(0.67238 -0.150349 3.33953e-17)
(0.121107 -0.517723 -6.10453e-18)
(1.44236 7.88242 2.03633e-19)
(3.02551 8.42128 -2.30589e-19)
(2.65721 5.2325 7.03034e-18)
(0.762537 1.25734 1.1444e-18)
(-1.01206 -0.689593 -5.13054e-19)
(-1.23479 -0.57441 5.90338e-18)
(-1.32633 -0.509455 -9.25068e-19)
(-1.33225 -0.444141 -1.27578e-17)
(-1.32354 -0.382734 5.66986e-19)
(-1.31839 -0.327252 -4.19366e-18)
(-1.31131 -0.283873 6.37692e-18)
(-1.30018 -0.243141 -2.25979e-17)
(-1.2933 -0.205212 -1.78251e-18)
(-1.28807 -0.172241 -1.6128e-17)
(-1.28627 -0.140029 7.30117e-18)
(-1.29026 -0.110314 -2.96917e-18)
(-1.30015 -0.0815721 -4.81545e-18)
(-1.318 -0.0534083 -4.88166e-18)
(-1.34364 -0.0253401 -6.3364e-19)
(-1.37833 0.00349388 3.78115e-19)
(-1.4226 0.0335901 1.34294e-18)
(-1.47531 0.0624699 3.84024e-18)
(-1.53659 0.0881833 -5.89388e-18)
(-1.60521 0.113119 -1.33894e-18)
(-1.67605 0.137875 -1.61982e-18)
(-1.74287 0.161731 3.31737e-18)
(-1.80005 0.183769 2.00392e-18)
(-1.8425 0.203155 -1.10711e-17)
(-1.86472 0.218778 -8.97696e-19)
(-1.86241 0.229478 6.57965e-18)
(-1.83306 0.234526 8.30676e-18)
(-1.77428 0.233479 1.69312e-17)
(-1.67577 0.224186 1.40114e-17)
(-1.5331 0.204607 6.8878e-18)
(-1.34234 0.172918 -3.19511e-18)
(-1.10046 0.128418 1.28422e-17)
(-0.800271 0.0692591 -9.98624e-18)
(-0.438891 -0.0121267 7.51862e-18)
(-0.0747731 -0.104255 -3.00939e-18)
(0.626229 -0.208433 -4.15128e-18)
(0.663527 -0.46241 5.79855e-18)
(1.82176 7.02105 -1.62682e-20)
(3.32009 8.10617 1.06603e-18)
(4.12079 7.86182 -1.98892e-18)
(3.42259 5.36148 -3.1622e-18)
(1.47359 2.00799 3.05234e-19)
(-0.428786 -0.18967 -4.08585e-18)
(-1.0098 -0.420328 -8.71905e-18)
(-1.18923 -0.413446 -8.02603e-18)
(-1.24048 -0.370633 5.81304e-18)
(-1.27216 -0.323537 2.65166e-19)
(-1.29408 -0.287481 3.54652e-18)
(-1.30302 -0.250355 1.16304e-17)
(-1.31244 -0.212288 -9.03523e-18)
(-1.32019 -0.179529 9.95068e-18)
(-1.32934 -0.145934 -6.21101e-18)
(-1.34256 -0.114594 -2.79794e-18)
(-1.36001 -0.0838266 1.33159e-18)
(-1.38374 -0.0533561 1.88791e-18)
(-1.41406 -0.0230297 9.47097e-20)
(-1.45192 0.00819247 -9.00551e-20)
(-1.49764 0.0407453 -3.10415e-18)
(-1.54927 0.0722006 -2.60999e-18)
(-1.60577 0.099752 5.38162e-19)
(-1.66592 0.125401 -3.66977e-19)
(-1.72599 0.149677 3.14898e-18)
(-1.78166 0.172054 -6.93857e-18)
(-1.82906 0.191731 -4.99817e-18)
(-1.86409 0.208001 7.22963e-18)
(-1.88223 0.219959 1.75685e-18)
(-1.879 0.226637 -1.09887e-18)
(-1.8496 0.227021 -7.17807e-18)
(-1.78857 0.21991 3.00134e-18)
(-1.6898 0.203788 -6.74206e-18)
(-1.54848 0.177073 -8.96795e-18)
(-1.36066 0.138086 1.97701e-18)
(-1.12373 0.0861111 5.06973e-18)
(-0.831056 0.019638 7.63315e-18)
(-0.477532 -0.0694285 -7.83179e-18)
(-0.117835 -0.178655 -1.56055e-18)
(0.530089 -0.287064 -2.03892e-18)
(0.719689 -0.62149 -3.42504e-18)
(2.22133 6.59827 -5.73944e-20)
(3.11971 7.30336 -2.02683e-19)
(4.16964 8.00446 1.05646e-18)
(4.7006 7.60351 1.98183e-18)
(4.00774 5.54587 -2.78881e-19)
(2.19346 2.64414 -2.55842e-18)
(0.21189 0.361792 1.74407e-18)
(-0.714495 -0.243878 4.23592e-18)
(-1.00903 -0.303538 -3.21544e-18)
(-1.12122 -0.281761 3.64937e-18)
(-1.19195 -0.264425 -8.56114e-18)
(-1.23178 -0.240205 1.15524e-18)
(-1.2631 -0.206854 1.24467e-18)
(-1.28716 -0.17772 -7.90775e-18)
(-1.30799 -0.144989 -3.85976e-18)
(-1.3301 -0.113765 2.43811e-18)
(-1.35394 -0.0824686 4.62792e-18)
(-1.38234 -0.0509052 2.14743e-18)
(-1.41566 -0.0194665 -1.33329e-19)
(-1.45485 0.0130338 1.42429e-19)
(-1.50017 0.0466726 8.09103e-19)
(-1.54965 0.0792436 2.426e-18)
(-1.60216 0.10772 8.2312e-19)
(-1.65718 0.133666 1.47009e-18)
(-1.71231 0.157455 2.22427e-18)
(-1.76428 0.178717 9.9644e-18)
(-1.80965 0.196674 -7.26463e-19)
(-1.84435 0.210527 -1.28275e-18)
(-1.86381 0.219262 -4.41378e-18)
(-1.86304 0.221787 -3.84346e-18)
(-1.83677 0.216906 5.32559e-18)
(-1.77961 0.203337 -4.49097e-18)
(-1.68641 0.17975 1.18202e-17)
(-1.55225 0.144667 3.12275e-18)
(-1.37314 0.0964846 2.46639e-18)
(-1.14659 0.0344069 5.21786e-19)
(-0.866626 -0.0426003 -1.16929e-19)
(-0.527076 -0.141505 -6.17599e-19)
(-0.178012 -0.268658 1.65931e-18)
(0.40015 -0.377224 -2.37299e-18)
(0.659664 -0.719175 6.42089e-19)
(2.67694 6.11451 1.18322e-19)
(3.35508 6.666 -1.18876e-19)
(4.0566 7.21569 -9.2247e-19)
(4.83302 7.73029 -1.50377e-18)
(5.20938 7.42238 1.50842e-18)
(4.60796 5.80512 -1.12922e-19)
(2.96561 3.30111 4.5294e-19)
(0.992917 1.02925 2.74307e-18)
(-0.323212 -0.026809 -1.12595e-18)
(-0.769739 -0.17041 -1.97154e-18)
(-0.974375 -0.196857 -2.79094e-18)
(-1.07974 -0.200515 -1.87009e-20)
(-1.1477 -0.182034 -9.51495e-20)
(-1.19875 -0.163155 4.99844e-18)
(-1.23696 -0.135353 3.00657e-18)
(-1.27145 -0.106645 1.18088e-19)
(-1.30331 -0.0765752 -2.00178e-18)
(-1.33699 -0.0452257 2.21304e-18)
(-1.37335 -0.0138818 -3.24358e-19)
(-1.41385 0.0188524 7.71787e-19)
(-1.45921 0.0526149 -1.57363e-18)
(-1.50788 0.0855383 -1.66091e-19)
(-1.55891 0.114496 2.07597e-18)
(-1.61225 0.140666 -2.22361e-18)
(-1.66624 0.164161 -4.87113e-18)
(-1.7181 0.184529 -2.45302e-18)
(-1.76454 0.200881 5.07681e-19)
(-1.80154 0.212251 -3.91679e-18)
(-1.82451 0.217473 1.1022e-19)
(-1.82841 0.215322 3.65015e-18)
(-1.80802 0.204513 -2.83054e-18)
(-1.75818 0.183765 5.89937e-19)
(-1.67401 0.151823 -8.18078e-18)
(-1.55065 0.107283 -3.89014e-18)
(-1.38412 0.0486398 -2.24543e-18)
(-1.17201 -0.0249358 -2.13116e-18)
(-0.909135 -0.114035 1.1767e-18)
(-0.589523 -0.224389 -5.40969e-20)
(-0.256543 -0.367193 8.77024e-19)
(0.245868 -0.480984 3.19082e-18)
(0.54256 -0.792271 -1.83617e-18)
(3.07957 5.67572 -1.51074e-19)
(3.58862 6.19204 2.40258e-19)
(4.10607 6.58946 1.94517e-19)
(4.68527 7.0281 5.39122e-19)
(5.31918 7.44536 -4.07175e-19)
(5.65815 7.28632 1.99297e-19)
(5.20977 6.0844 4.95543e-19)
(3.80873 3.9949 1.83441e-20)
(1.89784 1.79598 -1.00082e-19)
(0.272017 0.350832 4.12888e-18)
(-0.450429 -0.0235532 4.63498e-18)
(-0.7781 -0.10396 -2.1241e-18)
(-0.93541 -0.119872 -1.35052e-18)
(-1.04075 -0.124946 6.25572e-18)
(-1.11001 -0.111409 -5.27539e-18)
(-1.16596 -0.09017 2.31014e-18)
(-1.21168 -0.0646026 2.17176e-19)
(-1.25419 -0.0353254 6.10981e-19)
(-1.29575 -0.00540792 7.20554e-19)
(-1.33892 0.0266553 -3.55197e-19)
(-1.38548 0.0598381 -7.5047e-19)
(-1.4347 0.0926955 5.43596e-19)
(-1.48602 0.121936 -9.14621e-19)
(-1.53966 0.148308 -6.43993e-19)
(-1.59449 0.171585 4.67155e-18)
(-1.64806 0.191115 -3.07314e-18)
(-1.69723 0.205831 -7.20106e-19)
(-1.73813 0.214538 4.84956e-18)
(-1.76631 0.215902 3.81779e-18)
(-1.77687 0.208555 -1.87569e-18)
(-1.76474 0.191118 -1.5137e-18)
(-1.72496 0.162309 -4.77351e-19)
(-1.65284 0.120937 3.79345e-18)
(-1.54366 0.0656811 3.96219e-18)
(-1.39354 -0.00482169 1.12748e-18)
(-1.2002 -0.0913206 -1.51405e-18)
(-0.959392 -0.1939 -2.153e-19)
(-0.666376 -0.317005 -1.04775e-18)
(-0.355696 -0.471632 -2.54434e-18)
(0.071187 -0.595946 -1.22742e-19)
(0.382061 -0.861887 1.926e-18)
(3.4628 5.31921 -2.91385e-20)
(3.8296 5.75491 1.65377e-19)
(4.2238 6.14365 1.7328e-20)
(4.65381 6.44743 4.40737e-19)
(5.14795 6.784 2.24339e-19)
(5.69096 7.13981 -7.65277e-19)
(6.03986 7.13481 2.24471e-19)
(5.78074 6.33054 -2.0232e-19)
(4.67519 4.67935 -1.49448e-18)
(2.92021 2.64659 3.8692e-20)
(1.13989 0.965885 -5.56546e-18)
(-0.0113609 0.174501 7.29098e-18)
(-0.495015 0.0136395 -5.86628e-18)
(-0.7561 -0.0382597 -6.55323e-19)
(-0.898322 -0.0560743 2.83172e-18)
(-0.998378 -0.0546871 -1.01133e-18)
(-1.0711 -0.0416279 3.95438e-18)
(-1.13057 -0.0184229 -1.6281e-18)
(-1.18265 0.00756826 3.74567e-19)
(-1.23184 0.0375534 -2.95167e-19)
(-1.28154 0.0692498 3.064e-19)
(-1.33249 0.101636 -4.02345e-19)
(-1.38512 0.131028 2.12161e-18)
(-1.44005 0.157645 -6.95004e-19)
(-1.49672 0.180824 -1.75189e-18)
(-1.55302 0.199622 8.20917e-19)
(-1.60602 0.212727 2.67005e-18)
(-1.65209 0.218669 -1.31863e-18)
(-1.68699 0.215902 3.62385e-20)
(-1.70604 0.202895 -1.04673e-18)
(-1.70442 0.178161 6.62305e-20)
(-1.67739 0.140403 -1.75562e-18)
(-1.62042 0.0884964 -3.76332e-20)
(-1.52907 0.021242 7.91196e-19)
(-1.39967 -0.0625216 2.64914e-18)
(-1.2301 -0.163286 -2.04828e-18)
(-1.01717 -0.280551 -2.38986e-18)
(-0.758033 -0.417332 1.9804e-18)
(-0.47794 -0.580623 -7.41025e-19)
(-0.12256 -0.718063 2.23232e-20)
(0.179453 -0.937775 9.43473e-20)
(3.80987 5.0176 -7.74808e-21)
(4.09277 5.38019 -6.46591e-20)
(4.38615 5.72522 4.36454e-20)
(4.71829 6.02196 -2.34325e-19)
(5.0877 6.25426 -1.4696e-19)
(5.50797 6.5077 -2.53949e-19)
(5.97966 6.81337 1.07521e-18)
(6.34668 6.93395 1.766e-19)
(6.28248 6.48752 5.16583e-19)
(5.50506 5.28625 -1.09469e-18)
(4.02346 3.54118 1.171e-18)
(2.23075 1.78645 1.67316e-18)
(0.713913 0.584459 -4.2665e-18)
(-0.109263 0.153871 6.34349e-18)
(-0.497973 0.0585893 1.05627e-19)
(-0.716789 0.0229023 -1.28493e-18)
(-0.853048 0.00811483 -4.67817e-18)
(-0.950114 0.0141651 -3.74065e-19)
(-1.02537 0.0294208 -1.47094e-18)
(-1.08815 0.0539144 5.55666e-18)
(-1.1453 0.0821887 -3.49683e-18)
(-1.19992 0.113335 5.87953e-19)
(-1.25462 0.142677 1.1707e-18)
(-1.31116 0.169639 2.03211e-19)
(-1.3699 0.192964 4.55903e-19)
(-1.42928 0.211272 2.07705e-19)
(-1.48674 0.222934 1.08382e-18)
(-1.53891 0.226167 -6.40842e-19)
(-1.58183 0.219166 -2.6111e-18)
(-1.61111 0.200206 -7.56225e-19)
(-1.62221 0.167678 2.23496e-18)
(-1.61067 0.120237 1.03981e-18)
(-1.57221 0.0568575 8.53305e-20)
(-1.50274 -0.0234958 -1.82988e-18)
(-1.39891 -0.121688 -1.02464e-18)
(-1.25883 -0.237744 6.72199e-19)
(-1.08037 -0.370468 1.56956e-18)
(-0.862551 -0.521148 -8.73089e-19)
(-0.622374 -0.691243 6.0776e-19)
(-0.335407 -0.841936 -1.30551e-18)
(-0.0637879 -1.02075 -1.93503e-19)
(4.13089 4.7582 -2.06687e-20)
(4.35741 5.06272 -1.39597e-19)
(4.58335 5.35559 3.05907e-19)
(4.83421 5.63022 3.41798e-20)
(5.12125 5.86287 -5.61992e-20)
(5.43868 6.04103 7.64539e-21)
(5.79556 6.22573 -4.16631e-19)
(6.20342 6.47515 -4.26917e-19)
(6.57782 6.6708 -5.67969e-21)
(6.68264 6.51431 -8.07446e-19)
(6.23646 5.75295 -2.68408e-19)
(5.11103 4.38822 7.97713e-19)
(3.47158 2.73259 5.08965e-19)
(1.7686 1.27744 -2.15474e-18)
(0.512027 0.431618 7.41521e-18)
(-0.127237 0.176207 -3.56244e-18)
(-0.464587 0.111296 3.09121e-18)
(-0.661961 0.0845266 -4.83626e-18)
(-0.794186 0.0747341 -1.50294e-19)
(-0.890327 0.0835959 1.63272e-18)
(-0.96677 0.102401 -2.17832e-18)
(-1.03114 0.129653 -2.88448e-19)
(-1.09054 0.157954 5.76927e-19)
(-1.14948 0.185145 -1.90889e-18)
(-1.21012 0.208969 -5.28892e-19)
(-1.27216 0.227313 -1.40573e-18)
(-1.33385 0.238071 -2.55085e-18)
(-1.39237 0.239024 9.66652e-19)
(-1.44412 0.228034 7.08969e-19)
(-1.48505 0.20316 2.29829e-18)
(-1.51091 0.162686 -9.16893e-19)
(-1.51761 0.105204 6.52418e-19)
(-1.50117 0.0298007 -7.58504e-19)
(-1.45791 -0.0643251 1.83861e-18)
(-1.38492 -0.177616 -2.05732e-19)
(-1.28054 -0.309424 4.75796e-19)
(-1.14361 -0.457724 -2.3733e-18)
(-0.97449 -0.621798 1.52416e-18)
(-0.783963 -0.797988 -1.13983e-19)
(-0.564557 -0.958108 7.94388e-19)
(-0.340556 -1.10838 -8.2576e-19)
(4.42677 4.53308 -1.12273e-19)
(4.61345 4.79019 4.2086e-19)
(4.79368 5.03868 -1.47776e-19)
(4.98764 5.27601 -2.17349e-19)
(5.20789 5.49641 1.37701e-19)
(5.45668 5.68227 -3.12876e-19)
(5.72932 5.82179 1.01394e-19)
(6.0314 5.95283 1.63121e-18)
(6.3792 6.14035 -1.71646e-18)
(6.73996 6.35377 -1.74129e-19)
(6.96426 6.39938 8.59171e-20)
(6.81129 6.02063 6.4439e-20)
(6.07725 5.08194 8.66819e-19)
(4.74755 3.69389 -3.27413e-19)
(3.08006 2.1969 1.91613e-18)
(1.51476 1.00395 -2.33491e-18)
(0.452905 0.387443 1.02643e-18)
(-0.0931114 0.21579 -8.90201e-19)
(-0.399532 0.16939 1.71178e-18)
(-0.586444 0.14793 1.35102e-18)
(-0.714496 0.143221 5.8471e-19)
(-0.806784 0.157426 -1.57893e-18)
(-0.880699 0.180044 1.47797e-18)
(-0.946915 0.205779 8.30093e-19)
(-1.01139 0.22994 -2.30294e-18)
(-1.07635 0.248879 1.57897e-18)
(-1.14174 0.259621 1.79861e-18)
(-1.20597 0.259307 -2.0832e-18)
(-1.26627 0.245304 2.815e-19)
(-1.31925 0.215344 -1.78985e-18)
(-1.36115 0.167524 9.33215e-19)
(-1.38827 0.100379 -1.20841e-18)
(-1.39702 0.0131307 -3.90651e-19)
(-1.38413 -0.0946661 6.50858e-20)
(-1.34711 -0.222892 -8.10589e-19)
(-1.28459 -0.370054 2.36695e-19)
(-1.19603 -0.533142 6.75969e-19)
(-1.08249 -0.709413 -9.18975e-19)
(-0.950633 -0.891564 -1.35537e-19)
(-0.799735 -1.05733 -1.12264e-18)
(-0.634989 -1.19226 7.87652e-19)
(4.69941 4.33497 -1.14805e-19)
(4.85715 4.5536 -3.48984e-19)
(5.00579 4.7639 2.03795e-20)
(5.16045 4.96699 6.90151e-20)
(5.332 5.16061 -2.06446e-20)
(5.52551 5.33916 -2.31223e-19)
(5.74119 5.4909 1.05652e-20)
(5.97532 5.60392 1.06212e-20)
(6.23058 5.69677 1.1671e-19)
(6.52194 5.8238 1.60175e-18)
(6.84771 6.00864 5.1625e-19)
(7.13305 6.15838 1.35165e-19)
(7.20334 6.0684 -1.0486e-18)
(6.84225 5.54353 2.33841e-18)
(5.92024 4.53683 -1.95406e-18)
(4.50211 3.20945 1.17987e-18)
(2.87468 1.87907 -1.7588e-18)
(1.43592 0.881964 -4.89336e-18)
(0.491959 0.396318 3.17813e-19)
(-0.0105361 0.263309 6.39402e-18)
(-0.298622 0.22881 -3.49443e-18)
(-0.472478 0.21754 3.95178e-18)
(-0.589342 0.222437 -1.96858e-18)
(-0.679087 0.238876 3.19056e-19)
(-0.75657 0.259384 -2.07159e-19)
(-0.829174 0.277859 -1.5872e-18)
(-0.900262 0.289265 1.3199e-18)
(-0.970655 0.289162 -1.06838e-18)
(-1.03927 0.273884 8.77205e-19)
(-1.10392 0.24061 5.85584e-19)
(-1.16184 0.187226 7.71396e-20)
(-1.21008 0.112202 5.26262e-19)
(-1.24574 0.0147783 3.04081e-19)
(-1.26611 -0.10516 -1.26667e-18)
(-1.26904 -0.246804 -7.47012e-19)
(-1.25329 -0.407664 5.22035e-19)
(-1.21858 -0.583644 6.30809e-19)
(-1.16606 -0.770272 1.23817e-19)
(-1.09955 -0.958163 1.25864e-18)
(-1.0191 -1.12796 8.91815e-19)
(-0.921836 -1.25914 2e-19)
(4.95014 4.159 -1.30568e-19)
(5.08598 4.34612 6.43921e-20)
(5.21199 4.52476 3.16249e-19)
(5.33892 4.69735 -2.9153e-19)
(5.47614 4.86451 4.2551e-20)
(5.62844 5.0232 4.48978e-20)
(5.79842 5.16933 9.12095e-20)
(5.9857 5.29513 -6.66515e-19)
(6.18727 5.39004 -1.68885e-18)
(6.40318 5.45849 2.22799e-18)
(6.64387 5.53635 -1.54749e-18)
(6.92256 5.66757 -4.02558e-19)
(7.21649 5.83593 -6.95778e-19)
(7.42241 5.9189 -4.00131e-19)
(7.36365 5.73234 9.16833e-19)
(6.86333 5.13935 -4.13899e-19)
(5.84758 4.14365 1.97062e-18)
(4.41955 2.91441 -1.85452e-18)
(2.85618 1.72777 -8.42668e-19)
(1.50655 0.857017 6.00967e-18)
(0.617859 0.430438 -3.58861e-18)
(0.14414 0.316576 -2.18965e-19)
(-0.116898 0.304399 8.32344e-19)
(-0.281369 0.307325 2.9861e-18)
(-0.400039 0.314208 -2.50775e-18)
(-0.496409 0.324467 -5.45519e-19)
(-0.58251 0.332701 -6.07036e-19)
(-0.664365 0.332122 3.2142e-18)
(-0.744034 0.317011 -1.41644e-18)
(-0.82155 0.283039 -4.61807e-19)
(-0.895854 0.227274 1.55967e-18)
(-0.96531 0.147778 -1.32297e-18)
(-1.02801 0.0436906 -6.53763e-19)
(-1.08237 -0.0848351 7.71645e-19)
(-1.12672 -0.236226 5.72219e-19)
(-1.15994 -0.407097 1.02056e-19)
(-1.18166 -0.592491 -2.97347e-19)
(-1.19258 -0.786768 -1.77188e-19)
(-1.19428 -0.979726 -6.26635e-19)
(-1.18561 -1.1541 5.53003e-19)
(-1.16121 -1.29067 -9.98684e-20)
(5.18012 4.00144 2.08217e-19)
(5.29886 4.16246 -4.68489e-19)
(5.40801 4.31482 4.38439e-19)
(5.51521 4.46134 1.15406e-19)
(5.62776 4.60413 -1.12583e-19)
(5.75023 4.74211 5.06079e-20)
(5.88541 4.87277 4.73305e-19)
(6.03478 4.99313 2.90193e-19)
(6.19788 5.09825 1.62658e-19)
(6.37208 5.17984 7.91596e-20)
(6.55556 5.23465 -5.58269e-19)
(6.75464 5.2804 8.90994e-19)
(6.98446 5.35622 -8.83095e-20)
(7.24965 5.48711 9.18606e-19)
(7.50796 5.63066 -2.49865e-18)
(7.64646 5.66232 2.57385e-18)
(7.50354 5.42852 -7.56017e-19)
(6.9375 4.83279 -2.23422e-18)
(5.90584 3.89867 1.8709e-18)
(4.51677 2.77841 -2.19256e-18)
(3.0184 1.70443 1.63108e-18)
(1.75829 0.920857 -6.49387e-19)
(0.936518 0.522007 2.60645e-18)
(0.464986 0.399852 -1.02713e-18)
(0.187003 0.393968 -5.15321e-18)
(0.0073865 0.407893 2.78962e-18)
(-0.124939 0.412827 1.17219e-18)
(-0.23607 0.406285 -2.83305e-19)
(-0.337233 0.387036 2.22006e-19)
(-0.433841 0.351324 -6.61887e-19)
(-0.528222 0.295056 -3.17003e-18)
(-0.621034 0.21496 3.31625e-18)
(-0.71183 0.109334 -2.09584e-19)
(-0.800063 -0.021989 -9.23803e-19)
(-0.885284 -0.177419 9.97118e-19)
(-0.966494 -0.352809 -1.34032e-19)
(-1.04308 -0.542375 -2.47782e-19)
(-1.11537 -0.739954 4.48791e-19)
(-1.18325 -0.935789 2.05787e-19)
(-1.24454 -1.11529 -4.18694e-19)
(-1.29408 -1.26289 -2.12944e-19)
(5.39038 3.85956 5.91581e-21)
(5.4953 3.99866 2.28284e-19)
(5.59137 4.12907 4.40838e-19)
(5.68398 4.2536 -5.18369e-19)
(5.77877 4.37497 -2.31482e-20)
(5.87962 4.49328 -8.24359e-20)
(5.9891 4.60729 -2.67269e-19)
(6.10911 4.71505 -3.17854e-19)
(6.2406 4.81435 4.3419e-19)
(6.38303 4.90199 1.38499e-18)
(6.53416 4.97236 -4.68903e-19)
(6.69202 5.02017 9.69449e-19)
(6.85902 5.04978 -8.97836e-21)
(7.04552 5.08466 -1.86884e-18)
(7.26524 5.15858 -7.57185e-19)
(7.51419 5.28122 1.73065e-18)
(7.74156 5.40125 -9.39662e-19)
(7.83858 5.40663 1.26233e-18)
(7.66356 5.17194 -1.82865e-18)
(7.09949 4.62313 1.20817e-19)
(6.11088 3.78401 -1.58848e-19)
(4.85009 2.81751 3.83352e-18)
(3.56097 1.9135 -1.15882e-19)
(2.43373 1.19996 -2.46815e-18)
(1.59143 0.750846 -4.99693e-19)
(1.03444 0.546076 -7.88064e-19)
(0.67948 0.493473 -2.69444e-18)
(0.445026 0.496581 3.3508e-18)
(0.275992 0.496247 -2.73331e-18)
(0.137601 0.47091 -9.3916e-20)
(0.0110501 0.417743 7.60485e-19)
(-0.112169 0.337777 -4.58704e-19)
(-0.235269 0.231786 3.48963e-19)
(-0.359528 0.100791 -1.42594e-19)
(-0.485396 -0.0532806 1.631e-18)
(-0.613021 -0.226733 -1.42572e-18)
(-0.741171 -0.414567 1.03492e-19)
(-0.870064 -0.61095 6.83254e-20)
(-0.998163 -0.806989 8.88592e-20)
(-1.12305 -0.990707 -3.01546e-20)
(-1.2418 -1.15005 2.50277e-19)
(5.58187 3.73129 -3.70527e-19)
(5.67527 3.85171 1.75503e-19)
(5.76082 3.96358 -6.55676e-19)
(5.84222 4.0695 3.12545e-19)
(5.92388 4.17244 -1.54287e-19)
(6.00887 4.27306 3.95134e-20)
(6.09953 4.37089 -7.96132e-20)
(6.19752 4.4649 7.8051e-20)
(6.30419 4.55359 -9.58005e-19)
(6.42008 4.63513 5.15438e-19)
(6.54468 4.70743 7.20446e-20)
(6.6767 4.76747 -3.38083e-18)
(6.81441 4.81056 2.14028e-18)
(6.95729 4.8344 1.5331e-19)
(7.11019 4.84766 1.95903e-18)
(7.28499 4.87413 -1.78457e-18)
(7.49302 4.94075 2.8842e-19)
(7.72605 5.04955 1.40921e-18)
(7.93394 5.15257 -1.50925e-18)
(8.02154 5.15643 5.72326e-19)
(7.86207 4.95608 1.85712e-19)
(7.38386 4.51763 -3.88049e-19)
(6.61679 3.89028 1.38424e-19)
(5.64828 3.15545 -3.97516e-19)
(4.59773 2.41038 2.57864e-18)
(3.58454 1.74385 -3.66703e-18)
(2.70904 1.22253 3.23107e-18)
(2.0262 0.875392 9.34035e-19)
(1.52859 0.683049 -1.40775e-18)
(1.17109 0.592469 -5.78631e-19)
(0.9061 0.54478 -3.38928e-19)
(0.696299 0.494931 2.29773e-18)
(0.51522 0.418854 -2.7375e-19)
(0.345272 0.309831 -2.93961e-18)
(0.176593 0.170261 6.3136e-19)
(0.00514644 0.00589975 8.49407e-19)
(-0.170689 -0.176057 -7.12071e-19)
(-0.352651 -0.369423 6.90754e-19)
(-0.536572 -0.565515 2.38043e-19)
(-0.719439 -0.754232 1.05984e-19)
(-0.901297 -0.925295 -5.2712e-19)
(5.75515 3.61501 2.73078e-19)
(5.83872 3.71933 -3.29591e-19)
(5.91551 3.81536 7.02964e-19)
(5.98802 3.90549 -3.512e-20)
(6.05966 3.99263 5.44026e-20)
(6.1329 4.07772 2.4676e-19)
(6.2096 4.1607 -2.86527e-20)
(6.29129 4.24107 5.99478e-20)
(6.37919 4.31803 2.54831e-19)
(6.47414 4.39033 -4.87772e-20)
(6.57637 4.45645 1.2373e-18)
(6.68579 4.51524 -1.70975e-18)
(6.80183 4.56507 2.97682e-18)
(6.92294 4.60282 -2.27313e-18)
(7.04758 4.6248 -1.06793e-18)
(7.17664 4.63104 -4.13842e-19)
(7.31641 4.63146 -7.08058e-19)
(7.47882 4.64715 7.3653e-19)
(7.67334 4.69938 8.99666e-20)
(7.89319 4.78981 5.38486e-19)
(8.09454 4.87844 -2.69784e-19)
(8.19553 4.89612 2.97645e-19)
(8.12636 4.78885 1.14248e-18)
(7.85372 4.53356 -1.42167e-18)
(7.3779 4.13898 7.24975e-19)
(6.73088 3.63942 7.86683e-19)
(5.9671 3.08266 9.61223e-20)
(5.15136 2.51951 -3.6723e-18)
(4.34837 1.99614 8.66631e-19)
(3.61342 1.54789 1.8979e-18)
(2.98124 1.19254 -1.3956e-18)
(2.4591 0.926414 3.02642e-18)
(2.03282 0.729114 -2.84486e-18)
(1.67843 0.57373 3.9558e-19)
(1.37388 0.435984 9.8247e-19)
(1.10192 0.298213 -9.60396e-19)
(0.849795 0.150134 4.98089e-19)
(0.607133 -0.0128153 -5.6579e-20)
(0.368731 -0.189291 -8.37611e-19)
(0.133329 -0.37171 -3.23142e-20)
(-0.108379 -0.549264 7.75643e-21)
(5.91061 3.50922 1.5604e-20)
(5.98554 3.59955 -2.04805e-19)
(6.05474 3.68197 -6.76817e-20)
(6.11985 3.75868 3.65255e-19)
(6.18354 3.83241 7.40458e-21)
(6.24775 3.90416 -2.35291e-20)
(6.31396 3.97405 -2.6493e-19)
(6.38347 4.0419 1.62038e-19)
(6.45731 4.10725 -9.88446e-20)
(6.5363 4.16941 8.27815e-19)
(6.6209 4.2273 -1.72552e-19)
(6.7114 4.28 -1.58752e-19)
(6.80795 4.3266 1.17863e-18)
(6.91015 4.36612 -4.50288e-19)
(7.01702 4.39689 -6.51772e-19)
(7.12707 4.41623 -5.5469e-19)
(7.2393 4.42143 -3.87469e-19)
(7.35536 4.41344 2.94773e-18)
(7.48169 4.40092 -3.08797e-18)
(7.62934 4.40108 5.69014e-22)
(7.80854 4.43153 1.85415e-18)
(8.00662 4.49181 -1.64842e-18)
(8.19142 4.55973 1.60008e-18)
(8.32666 4.60232 -7.00518e-19)
(8.37517 4.58658 -8.08733e-19)
(8.30863 4.48946 2.19944e-18)
(8.11281 4.30215 -8.38879e-19)
(7.78933 4.0299 1.15847e-18)
(7.35356 3.68848 -3.16987e-18)
(6.83068 3.29947 3.97683e-19)
(6.2508 2.88646 1.39235e-18)
(5.64509 2.47204 -1.82346e-19)
(5.04269 2.07524 -3.16288e-19)
(4.46441 1.70819 1.17346e-19)
(3.92413 1.37701 -4.70689e-20)
(3.42855 1.08221 2.83118e-19)
(2.97779 0.819464 -7.63786e-19)
(2.56229 0.580899 6.1596e-19)
(2.17687 0.36212 -3.27594e-19)
(1.81781 0.161356 3.00765e-19)
(1.46608 -0.0210773 2.97953e-20)
(6.04305 3.41727 1.01104e-20)
(6.11055 3.49587 -4.23027e-19)
(6.17325 3.56698 4.28476e-19)
(6.23223 3.63268 -3.98885e-19)
(6.28957 3.69547 -7.22649e-20)
(6.34685 3.7563 1.49422e-19)
(6.40525 3.81539 2.47506e-19)
(6.46578 3.87273 -8.26572e-19)
(6.52936 3.92808 -6.5736e-20)
(6.59668 3.98093 1.38917e-18)
(6.66822 4.03059 -1.86074e-18)
(6.74435 4.07638 4.94895e-19)
(6.82539 4.11755 4.73856e-19)
(6.91135 4.15329 -8.11957e-19)
(7.00201 4.18289 1.96207e-18)
(7.09681 4.20553 -2.54942e-19)
(7.19474 4.21977 -5.73472e-18)
(7.29446 4.22331 4.93798e-18)
(7.39531 4.21402 -1.81757e-18)
(7.49893 4.19259 -1.31462e-18)
(7.61171 4.16605 1.71998e-18)
(7.73902 4.14778 1.75565e-18)
(7.88328 4.14878 -2.5937e-18)
(8.04362 4.17194 2.42259e-18)
(8.20996 4.21086 -6.56601e-19)
(8.36533 4.25146 6.04861e-19)
(8.48932 4.27613 -1.11621e-18)
(8.56211 4.26803 1.15226e-18)
(8.5681 4.21458 4.26411e-19)
(8.49751 4.10901 -2.18193e-18)
(8.34727 3.95059 2.58899e-19)
(8.1204 3.74376 -1.25586e-19)
(7.82514 3.49659 1.26689e-18)
(7.47091 3.21787 3.35943e-20)
(7.06972 2.91762 -7.13952e-20)
(6.63494 2.60626 -1.33207e-19)
(6.18083 2.29325 -5.05694e-20)
(5.71301 1.98272 -1.09405e-19)
(5.2407 1.68092 -3.94896e-19)
(4.77571 1.392 3.91416e-20)
(4.30405 1.11744 6.54568e-20)
(6.15101 3.34073 1.73371e-19)
(6.21236 3.4097 3.30722e-19)
(6.26966 3.47156 -2.26906e-19)
(6.32361 3.52831 -3.98029e-19)
(6.37589 3.58223 -2.08946e-20)
(6.42779 3.63419 1.27157e-19)
(6.48026 3.68446 -1.13622e-19)
(6.53415 3.73309 2.18703e-19)
(6.59022 3.78001 5.28203e-19)
(6.64906 3.82488 -9.94948e-19)
(6.7111 3.8672 -1.30414e-18)
(6.77673 3.90649 1.55556e-18)
(6.84625 3.94216 1.39638e-18)
(6.91978 3.97352 -2.08788e-18)
(6.99731 3.99987 2.45707e-18)
(7.07867 4.02059 1.68525e-18)
(7.16357 4.03517 -1.28892e-18)
(7.2514 4.0429 -2.1365e-18)
(7.34118 4.0425 -2.7418e-19)
(7.43164 4.03195 1.73205e-18)
(7.52204 4.00928 -3.42378e-18)
(7.61077 3.97651 2.70177e-18)
(7.69954 3.9391 3.36244e-19)
(7.79434 3.90371 7.15126e-19)
(7.90005 3.87711 -1.2315e-18)
(8.01903 3.86373 6.04288e-19)
(8.14989 3.86412 -5.3313e-19)
(8.2872 3.87471 -3.70288e-19)
(8.42229 3.8887 7.31497e-19)
(8.54476 3.89765 -4.68949e-19)
(8.64395 3.8931 -2.3914e-19)
(8.71015 3.86774 9.41721e-19)
(8.73601 3.81649 -1.20541e-18)
(8.71624 3.73637 6.53044e-19)
(8.64815 3.62695 6.04907e-20)
(8.53135 3.48997 -7.66661e-19)
(8.3689 3.32924 5.48313e-19)
(8.16162 3.14683 1.16177e-19)
(7.91295 2.94741 -2.46786e-19)
(7.63254 2.73636 -7.35348e-20)
(7.30968 2.51365 -5.89456e-20)
(6.24011 3.27614 -1.06106e-19)
(6.29622 3.33702 4.16131e-20)
(6.34891 3.39118 -8.56417e-20)
(6.39858 3.44052 -1.37544e-19)
(6.44663 3.48713 1.09171e-19)
(6.49411 3.5318 -2.83294e-20)
(6.54184 3.57479 5.6948e-20)
(6.5905 3.61621 -2.14086e-19)
(6.64074 3.65604 2.50066e-20)
(6.69306 3.69406 1.31656e-19)
(6.74783 3.72989 -4.75411e-19)
(6.8054 3.7632 7.62863e-19)
(6.86606 3.79354 -1.73969e-18)
(6.92996 3.82037 1.05995e-18)
(6.99714 3.84309 6.61417e-19)
(7.06753 3.86111 4.5639e-19)
(7.14101 3.87387 1.9668e-19)
(7.21734 3.88089 -3.33009e-19)
(7.29618 3.88173 -9.99559e-19)
(7.37694 3.87579 1.98271e-18)
(7.45859 3.86183 9.33883e-20)
(7.53726 3.83945 -2.1755e-18)
(7.61037 3.80896 9.80761e-19)
(7.67912 3.77109 1.10041e-18)
(7.7455 3.72799 -2.23387e-18)
(7.8125 3.68282 2.01526e-18)
(7.88344 3.63915 -1.71031e-18)
(7.96112 3.60021 7.62064e-20)
(8.0471 3.5681 5.27207e-19)
(8.14123 3.54345 1.37992e-18)
(8.24159 3.52533 -1.81766e-18)
(8.34467 3.51148 5.16736e-19)
(8.44585 3.49877 9.53408e-19)
(8.54028 3.48389 -7.51695e-19)
(8.62278 3.46353 -8.85935e-20)
(8.68827 3.4349 -2.71402e-20)
(8.73275 3.39613 1.46273e-19)
(8.75325 3.34575 -1.00292e-19)
(8.74675 3.28288 6.84639e-20)
(8.71357 3.20847 -1.18929e-19)
(8.64777 3.12083 -8.36005e-21)
(6.31458 3.22072 2.26971e-20)
(6.36611 3.2747 4.17263e-19)
(6.41472 3.32232 1.0289e-20)
(6.46063 3.36544 -2.25971e-19)
(6.505 3.40592 5.96239e-20)
(6.54871 3.44448 -8.40562e-21)
(6.59245 3.48138 -1.58043e-19)
(6.6368 3.51676 8.46614e-20)
(6.6823 3.55061 3.3525e-19)
(6.72936 3.5828 3.7071e-20)
(6.7783 3.61302 1.37591e-19)
(6.82942 3.64103 5.44764e-19)
(6.88297 3.66648 -3.66628e-19)
(6.93911 3.68894 -7.53143e-19)
(6.99789 3.70794 6.41477e-20)
(7.0593 3.72297 -2.43232e-19)
(7.12325 3.73353 6.16533e-19)
(7.18957 3.73913 -5.87787e-19)
(7.25806 3.73929 -4.12893e-19)
(7.32846 3.73364 -1.1634e-18)
(7.40039 3.72171 1.49777e-18)
(7.47092 3.70392 7.28897e-19)
(7.53747 3.68069 -7.83404e-19)
(7.59973 3.65189 -7.62915e-19)
(7.65723 3.61753 -4.39384e-19)
(7.70999 3.57789 1.54046e-18)
(7.75867 3.53368 9.42957e-19)
(7.80447 3.48605 8.50198e-19)
(7.84899 3.4365 -1.81015e-18)
(7.89393 3.38669 5.87131e-19)
(7.94083 3.3382 -7.22619e-19)
(7.99083 3.29235 4.00041e-19)
(8.04442 3.24998 -6.31214e-19)
(8.10166 3.21149 9.86058e-19)
(8.16181 3.17682 -5.01446e-19)
(8.22351 3.14559 2.13547e-19)
(8.28469 3.11704 -4.43932e-19)
(8.34427 3.09052 3.62936e-19)
(8.39981 3.06488 -2.76134e-19)
(8.44948 3.03969 -7.6298e-21)
(8.49081 3.01382 4.74249e-20)
(6.37753 3.17255 -9.37214e-20)
(6.42499 3.22054 -4.03917e-20)
(6.46993 3.26255 -4.28631e-19)
(6.51246 3.30035 5.51222e-19)
(6.55355 3.33561 -9.25002e-20)
(6.59394 3.36898 -2.88318e-20)
(6.63422 3.40071 1.08521e-19)
(6.67488 3.43096 -2.77081e-19)
(6.71637 3.45974 1.38327e-18)
(6.75904 3.48693 -2.01702e-18)
(6.80314 3.51233 1.07303e-18)
(6.84892 3.53572 3.36344e-19)
(6.89661 3.55683 -4.01846e-19)
(6.94631 3.57531 -1.70856e-18)
(6.9981 3.59079 4.33848e-19)
(7.05198 3.60285 -1.0121e-18)
(7.10788 3.61107 3.2588e-18)
(7.16567 3.61502 -8.93568e-19)
(7.22517 3.61426 -1.9383e-19)
(7.28615 3.60838 6.43265e-19)
(7.34836 3.59691 -3.11968e-18)
(7.4095 3.58039 1.8936e-18)
(7.46774 3.55954 1.13805e-18)
(7.52302 3.53465 -1.0649e-18)
(7.57488 3.506 -2.74905e-19)
(7.62291 3.47379 9.58905e-19)
(7.66678 3.43813 -1.55883e-18)
(7.70629 3.39917 1.11429e-18)
(7.74146 3.3571 9.64174e-19)
(7.77253 3.31231 -7.01886e-19)
(7.8 3.26531 -1.2236e-18)
(7.8245 3.2168 1.12667e-19)
(7.84678 3.16754 6.22977e-19)
(7.86768 3.11828 2.84872e-19)
(7.88796 3.06979 -7.32839e-19)
(7.90825 3.02293 7.67952e-19)
(7.92884 2.9783 -4.90095e-19)
(7.9504 2.93636 2.17399e-19)
(7.97294 2.8974 6.43528e-20)
(7.99663 2.86191 -1.87038e-19)
(8.02052 2.82987 -2.41572e-20)
(6.43119 3.13025 -2.56022e-19)
(6.47496 3.173 2.89908e-19)
(6.51657 3.21014 2.38967e-19)
(6.55602 3.24334 1.46505e-19)
(6.59413 3.27411 -9.11089e-20)
(6.63154 3.30303 -1.0666e-19)
(6.66874 3.33035 4.41017e-19)
(6.70615 3.35621 -1.39553e-18)
(6.74415 3.38064 1.91174e-18)
(6.78303 3.40357 -9.8062e-19)
(6.82299 3.42482 -1.5997e-18)
(6.86424 3.44421 4.26955e-19)
(6.90695 3.46153 2.08787e-18)
(6.95122 3.4765 1.11804e-18)
(6.9971 3.4888 -1.99768e-18)
(7.04457 3.49811 1.51089e-18)
(7.09359 3.50407 -1.18663e-18)
(7.14405 3.50632 -2.89259e-19)
(7.19579 3.50451 3.42345e-19)
(7.24861 3.49827 -1.6171e-18)
(7.30226 3.48717 4.05001e-18)
(7.3548 3.47166 -1.8596e-18)