# Force and moment coefficients
# dragDir     : (9.702957e-01 2.419219e-01 0.000000e+00)
# sideDir     : (0.000000e+00 0.000000e+00 -1.000000e+00)
# liftDir     : (-2.419219e-01 9.702957e-01 0.000000e+00)
# rollAxis    : (9.702957e-01 2.419219e-01 0.000000e+00)
# pitchAxis   : (0.000000e+00 0.000000e+00 -1.000000e+00)
# yawAxis     : (-2.419219e-01 9.702957e-01 0.000000e+00)
# magUInf     : 1.000000e+00
# lRef        : 3.190000e-01
# Aref        : 1.595000e-03
# CofR        : (0.000000e+00 0.000000e+00 0.000000e+00)
#
# Time        	Cd            	Cd(f)         	Cd(r)         	Cl            	Cl(f)         	Cl(r)         	CmPitch       	CmRoll        	CmYaw         	Cs            	Cs(f)         	Cs(r)         
1             	3.365338e+02	-2.678684e+02	6.044022e+02	9.275144e+02	-1.198847e+03	2.126362e+03	-1.662605e+03	-4.361353e+02	1.582448e+02	4.975688e-18	1.582448e+02	-1.582448e+02
2             	2.609122e+02	-2.697885e+02	5.307007e+02	8.511868e+02	-9.938438e+02	1.845031e+03	-1.419437e+03	-4.002446e+02	1.226860e+02	-6.334761e-18	1.226860e+02	-1.226860e+02
3             	2.246990e+01	-8.981512e+01	1.122850e+02	2.148998e+02	-5.719897e+01	2.720988e+02	-1.646489e+02	-1.010501e+02	1.056578e+01	-1.719848e-17	1.056578e+01	-1.056578e+01
4             	-1.042221e+02	7.520051e+01	-1.794227e+02	-2.707493e+02	5.652103e+02	-8.359596e+02	7.005850e+02	1.273116e+02	-4.900727e+01	-1.193393e-17	-4.900727e+01	4.900727e+01
5             	-8.713446e+01	8.792828e+01	-1.750627e+02	-2.796471e+02	4.881547e+02	-7.678018e+02	6.279783e+02	1.314955e+02	-4.097232e+01	-7.086817e-18	-4.097232e+01	4.097232e+01
6             	-2.457385e-01	-8.772393e+00	8.526655e+00	1.839465e+01	-1.676893e+01	3.516358e+01	-2.596626e+01	-8.649524e+00	-1.155510e-01	-9.598259e-18	-1.155510e-01	1.155510e-01
7             	7.341539e+01	-1.100464e+02	1.834618e+02	3.120971e+02	-4.102101e+02	7.223072e+02	-5.662586e+02	-1.467541e+02	3.452134e+01	-1.506228e-17	3.452134e+01	-3.452134e+01
8             	9.050792e+01	-1.399366e+02	2.304445e+02	3.938386e+02	-4.494483e+02	8.432869e+02	-6.463676e+02	-1.851906e+02	4.255858e+01	-1.509068e-17	4.255858e+01	-4.255858e+01
9             	7.423345e+01	-1.197536e+02	1.939870e+02	3.336109e+02	-2.922936e+02	6.259045e+02	-4.590991e+02	-1.568703e+02	3.490601e+01	-1.085360e-17	3.490601e+01	-3.490601e+01
10            	4.036380e+01	-7.463413e+01	1.149979e+02	2.016421e+02	-7.186467e+01	2.735068e+02	-1.726857e+02	-9.481604e+01	1.897984e+01	-7.481919e-18	1.897984e+01	-1.897984e+01
11            	1.627968e+01	-4.545895e+01	6.173864e+01	1.139868e+02	4.166676e+01	7.232001e+01	-1.532662e+01	-5.359880e+01	7.655024e+00	-6.308026e-18	7.655024e+00	-7.655024e+00
12            	1.318699e+01	-4.505219e+01	5.823918e+01	1.098332e+02	1.987304e+01	8.996011e+01	-3.504353e+01	-5.164568e+01	6.200777e+00	-7.551049e-18	6.200777e+00	-6.200777e+00
13            	2.160766e+01	-5.998092e+01	8.158858e+01	1.505356e+02	-6.551237e+01	2.160479e+02	-1.407801e+02	-7.078475e+01	1.016034e+01	-9.731386e-18	1.016034e+01	-1.016034e+01
14            	3.445210e+01	-7.848802e+01	1.129401e+02	2.035519e+02	-1.571284e+02	3.606804e+02	-2.589044e+02	-9.571407e+01	1.620005e+01	-1.124996e-17	1.620005e+01	-1.620005e+01
15            	4.354011e+01	-8.939442e+01	1.329345e+02	2.364098e+02	-2.009070e+02	4.373168e+02	-3.191119e+02	-1.111645e+02	2.047341e+01	-1.151690e-17	2.047341e+01	-2.047341e+01
16            	4.648028e+01	-9.162751e+01	1.381078e+02	2.442852e+02	-1.939849e+02	4.382701e+02	-3.161275e+02	-1.148676e+02	2.185593e+01	-1.103568e-17	2.185593e+01	-2.185593e+01
17            	4.468355e+01	-8.829845e+01	1.329820e+02	2.352949e+02	-1.561397e+02	3.914346e+02	-2.737871e+02	-1.106402e+02	2.101107e+01	-1.071801e-17	2.101107e+01	-2.101107e+01
18            	3.905882e+01	-8.244067e+01	1.214995e+02	2.168564e+02	-1.121708e+02	3.290272e+02	-2.205990e+02	-1.019701e+02	1.836622e+01	-1.059974e-17	1.836622e+01	-1.836622e+01
19            	3.240726e+01	-7.714341e+01	1.095507e+02	1.985180e+02	-8.383254e+01	2.823506e+02	-1.830916e+02	-9.334704e+01	1.523852e+01	-1.063749e-17	1.523852e+01	-1.523852e+01
20            	2.766787e+01	-7.464048e+01	1.023084e+02	1.881556e+02	-8.082712e+01	2.689827e+02	-1.749049e+02	-8.847442e+01	1.300997e+01	-1.087837e-17	1.300997e+01	-1.300997e+01
21            	2.743495e+01	-7.643639e+01	1.038713e+02	1.917272e+02	-1.036556e+02	2.953828e+02	-1.995192e+02	-9.015386e+01	1.290045e+01	-1.134258e-17	1.290045e+01	-1.290045e+01
22            	3.214965e+01	-8.220299e+01	1.143526e+02	2.090042e+02	-1.394315e+02	3.484357e+02	-2.439336e+02	-9.827782e+01	1.511739e+01	-1.203982e-17	1.511739e+01	-1.511739e+01
23            	3.838949e+01	-8.846840e+01	1.268579e+02	2.289636e+02	-1.660664e+02	3.950300e+02	-2.805482e+02	-1.076631e+02	1.805148e+01	-1.275683e-17	1.805148e+01	-1.805148e+01
24            	4.229956e+01	-9.181522e+01	1.341148e+02	2.402389e+02	-1.698180e+02	4.100569e+02	-2.899375e+02	-1.129650e+02	1.989007e+01	-1.328719e-17	1.989007e+01	-1.989007e+01
25            	4.162560e+01	-9.039138e+01	1.320170e+02	2.364942e+02	-1.496039e+02	3.860981e+02	-2.678510e+02	-1.112042e+02	1.957317e+01	-1.354464e-17	1.957317e+01	-1.957317e+01
26            	3.690140e+01	-8.529642e+01	1.221978e+02	2.206356e+02	-1.185293e+02	3.391648e+02	-2.288470e+02	-1.037471e+02	1.735176e+01	-1.340346e-17	1.735176e+01	-1.735176e+01
27            	3.162577e+01	-8.018479e+01	1.118106e+02	2.041551e+02	-9.631123e+01	3.004663e+02	-1.983888e+02	-9.599768e+01	1.487105e+01	-1.316280e-17	1.487105e+01	-1.487105e+01
28            	2.844952e+01	-7.773755e+01	1.061871e+02	1.955732e+02	-9.222448e+01	2.877976e+02	-1.900111e+02	-9.196230e+01	1.337752e+01	-1.290842e-17	1.337752e+01	-1.337752e+01
29            	2.867425e+01	-7.894306e+01	1.076173e+02	1.983759e+02	-1.057130e+02	3.040888e+02	-2.049009e+02	-9.328019e+01	1.348319e+01	-1.280011e-17	1.348319e+01	-1.348319e+01
30            	3.159269e+01	-8.256982e+01	1.141625e+02	2.091920e+02	-1.260548e+02	3.352468e+02	-2.306508e+02	-9.836616e+01	1.485550e+01	-1.285496e-17	1.485550e+01	-1.485550e+01
31            	3.468334e+01	-8.564831e+01	1.203317e+02	2.190254e+02	-1.382391e+02	3.572645e+02	-2.477518e+02	-1.029900e+02	1.630878e+01	-1.294184e-17	1.630878e+01	-1.630878e+01
32            	3.591068e+01	-8.624870e+01	1.221594e+02	2.216073e+02	-1.349325e+02	3.565397e+02	-2.457361e+02	-1.042040e+02	1.688590e+01	-1.294240e-17	1.688590e+01	-1.688590e+01
33            	3.448571e+01	-8.377656e+01	1.182623e+02	2.148346e+02	-1.161257e+02	3.309603e+02	-2.235430e+02	-1.010194e+02	1.621585e+01	-1.286724e-17	1.621585e+01	-1.621585e+01
34            	3.055962e+01	-7.890263e+01	1.094622e+02	2.002946e+02	-8.801822e+01	2.883129e+02	-1.881655e+02	-9.418244e+01	1.436973e+01	-1.265797e-17	1.436973e+01	-1.436973e+01
35            	2.631403e+01	-7.409387e+01	1.004079e+02	1.855536e+02	-6.451602e+01	2.500696e+02	-1.572928e+02	-8.725089e+01	1.237337e+01	-1.243623e-17	1.237337e+01	-1.237337e+01
36            	2.381045e+01	-7.140795e+01	9.521841e+01	1.771794e+02	-5.466581e+01	2.318452e+02	-1.432555e+02	-8.331318e+01	1.119614e+01	-1.217910e-17	1.119614e+01	-1.119614e+01
37            	2.345001e+01	-7.094113e+01	9.439114e+01	1.758033e+02	-5.709845e+01	2.329018e+02	-1.450001e+02	-8.266614e+01	1.102665e+01	-1.191507e-17	1.102665e+01	-1.102665e+01
38            	2.484976e+01	-7.219107e+01	9.704084e+01	1.799499e+02	-6.714393e+01	2.470939e+02	-1.571189e+02	-8.461596e+01	1.168484e+01	-1.163863e-17	1.168484e+01	-1.168484e+01
39            	2.709270e+01	-7.405209e+01	1.011448e+02	1.862927e+02	-7.797506e+01	2.642677e+02	-1.711214e+02	-8.759844e+01	1.273951e+01	-1.140344e-17	1.273951e+01	-1.273951e+01
40            	2.875067e+01	-7.514871e+01	1.038994e+02	1.903878e+02	-8.277681e+01	2.731646e+02	-1.779707e+02	-8.952404e+01	1.351913e+01	-1.122404e-17	1.351913e+01	-1.351913e+01
41            	2.936294e+01	-7.507657e+01	1.044395e+02	1.908854e+02	-8.081612e+01	2.717016e+02	-1.762588e+02	-8.975804e+01	1.380702e+01	-1.111574e-17	1.380702e+01	-1.380702e+01
42            	2.896410e+01	-7.402006e+01	1.029842e+02	1.882145e+02	-7.410710e+01	2.623216e+02	-1.682144e+02	-8.850212e+01	1.361948e+01	-1.104416e-17	1.361948e+01	-1.361948e+01
43            	2.814608e+01	-7.255185e+01	1.006979e+02	1.842223e+02	-6.697345e+01	2.511957e+02	-1.590846e+02	-8.662489e+01	1.323483e+01	-1.098226e-17	1.323483e+01	-1.323483e+01
44            	2.775694e+01	-7.159294e+01	9.934987e+01	1.817692e+02	-6.416407e+01	2.459333e+02	-1.550487e+02	-8.547140e+01	1.305185e+01	-1.086986e-17	1.305185e+01	-1.305185e+01
45            	2.827335e+01	-7.154324e+01	9.981659e+01	1.822126e+02	-6.708062e+01	2.492932e+02	-1.581869e+02	-8.567991e+01	1.329468e+01	-1.070908e-17	1.329468e+01	-1.329468e+01
46            	2.969638e+01	-7.246631e+01	1.021627e+02	1.856888e+02	-7.489370e+01	2.605825e+02	-1.677381e+02	-8.731450e+01	1.396381e+01	-1.049426e-17	1.396381e+01	-1.396381e+01
47            	3.183954e+01	-7.416359e+01	1.060031e+02	1.915773e+02	-8.569929e+01	2.772766e+02	-1.814879e+02	-9.008336e+01	1.497157e+01	-1.027451e-17	1.497157e+01	-1.497157e+01
48            	3.400449e+01	-7.595271e+01	1.099572e+02	1.976842e+02	-9.565962e+01	2.933438e+02	-1.945017e+02	-9.295496e+01	1.598957e+01	-1.005563e-17	1.598957e+01	-1.598957e+01
49            	3.574878e+01	-7.722581e+01	1.129746e+02	2.022464e+02	-1.025867e+02	3.048332e+02	-2.037100e+02	-9.510020e+01	1.680977e+01	-9.886046e-18	1.680977e+01	-1.680977e+01
50            	3.700775e+01	-7.793321e+01	1.149410e+02	2.050895e+02	-1.068089e+02	3.118984e+02	-2.093536e+02	-9.643709e+01	1.740176e+01	-9.722603e-18	1.740176e+01	-1.740176e+01
51            	3.800057e+01	-7.825303e+01	1.162536e+02	2.068254e+02	-1.097215e+02	3.165469e+02	-2.131342e+02	-9.725331e+01	1.786860e+01	-9.598513e-18	1.786860e+01	-1.786860e+01
52            	3.886138e+01	-7.845032e+01	1.173117e+02	2.081603e+02	-1.123906e+02	3.205509e+02	-2.164707e+02	-9.788101e+01	1.827338e+01	-9.463729e-18	1.827338e+01	-1.827338e+01
53            	3.975022e+01	-7.865880e+01	1.184090e+02	2.095488e+02	-1.153430e+02	3.248918e+02	-2.201174e+02	-9.853391e+01	1.869133e+01	-9.349036e-18	1.869133e+01	-1.869133e+01
54            	4.067271e+01	-7.894622e+01	1.196189e+02	2.111410e+02	-1.184217e+02	3.295627e+02	-2.239922e+02	-9.928258e+01	1.912510e+01	-9.179672e-18	1.912510e+01	-1.912510e+01
55            	4.165295e+01	-7.924423e+01	1.208972e+02	2.128170e+02	-1.212637e+02	3.340807e+02	-2.276722e+02	-1.000707e+02	1.958603e+01	-9.015195e-18	1.958603e+01	-1.958603e+01
56            	4.256163e+01	-7.946748e+01	1.220291e+02	2.142580e+02	-1.232852e+02	3.375433e+02	-2.304143e+02	-1.007483e+02	2.001331e+01	-8.795084e-18	2.001331e+01	-2.001331e+01
57            	4.332454e+01	-7.944896e+01	1.227735e+02	2.150299e+02	-1.242112e+02	3.392411e+02	-2.317262e+02	-1.011112e+02	2.037204e+01	-8.588424e-18	2.037204e+01	-2.037204e+01
58            	4.389371e+01	-7.919357e+01	1.230873e+02	2.150920e+02	-1.243327e+02	3.394246e+02	-2.318787e+02	-1.011404e+02	2.063967e+01	-8.334871e-18	2.063967e+01	-2.063967e+01
59            	4.442673e+01	-7.878998e+01	1.232167e+02	2.148005e+02	-1.245141e+02	3.393146e+02	-2.319144e+02	-1.010034e+02	2.089031e+01	-8.104445e-18	2.089031e+01	-2.089031e+01
60            	4.500906e+01	-7.841718e+01	1.234262e+02	2.146268e+02	-1.254503e+02	3.400771e+02	-2.327637e+02	-1.009217e+02	2.116414e+01	-7.838140e-18	2.116414e+01	-2.116414e+01
61            	4.576385e+01	-7.815913e+01	1.239230e+02	2.148806e+02	-1.275374e+02	3.424181e+02	-2.349777e+02	-1.010411e+02	2.151905e+01	-7.609830e-18	2.151905e+01	-2.151905e+01
62            	4.667308e+01	-7.809357e+01	1.247667e+02	2.157080e+02	-1.306896e+02	3.463976e+02	-2.385436e+02	-1.014301e+02	2.194659e+01	-7.358562e-18	2.194659e+01	-2.194659e+01
63            	4.774792e+01	-7.816111e+01	1.259090e+02	2.169946e+02	-1.346094e+02	3.516040e+02	-2.431067e+02	-1.020351e+02	2.245200e+01	-7.151276e-18	2.245200e+01	-2.245200e+01
64            	4.884680e+01	-7.828305e+01	1.271298e+02	2.184224e+02	-1.387382e+02	3.571606e+02	-2.479494e+02	-1.027064e+02	2.296872e+01	-6.917576e-18	2.296872e+01	-2.296872e+01
65            	4.992891e+01	-7.833095e+01	1.282599e+02	2.196749e+02	-1.427979e+02	3.624728e+02	-2.526354e+02	-1.032954e+02	2.347755e+01	-6.720185e-18	2.347755e+01	-2.347755e+01
66            	5.095688e+01	-7.832205e+01	1.292789e+02	2.207490e+02	-1.469294e+02	3.676785e+02	-2.573039e+02	-1.038005e+02	2.396091e+01	-6.487722e-18	2.396091e+01	-2.396091e+01
67            	5.204928e+01	-7.829401e+01	1.303433e+02	2.218510e+02	-1.516162e+02	3.734672e+02	-2.625417e+02	-1.043186e+02	2.447458e+01	-6.302126e-18	2.447458e+01	-2.447458e+01
68            	5.324691e+01	-7.838151e+01	1.316284e+02	2.233106e+02	-1.572715e+02	3.805821e+02	-2.689268e+02	-1.050050e+02	2.503773e+01	-6.105577e-18	2.503773e+01	-2.503773e+01
69            	5.464141e+01	-7.862800e+01	1.332694e+02	2.253176e+02	-1.641023e+02	3.894199e+02	-2.767611e+02	-1.059487e+02	2.569345e+01	-6.003005e-18	2.569345e+01	-2.569345e+01
70            	5.615570e+01	-7.906093e+01	1.352166e+02	2.278485e+02	-1.718782e+02	3.997267e+02	-2.858025e+02	-1.071388e+02	2.640550e+01	-5.914004e-18	2.640550e+01	-2.640550e+01
71            	5.774380e+01	-7.957416e+01	1.373180e+02	2.306286e+02	-1.801146e+02	4.107432e+02	-2.954289e+02	-1.084461e+02	2.715226e+01	-5.931517e-18	2.715226e+01	-2.715226e+01
72            	5.926988e+01	-8.010269e+01	1.393726e+02	2.333754e+02	-1.883362e+02	4.217116e+02	-3.050239e+02	-1.097376e+02	2.786985e+01	-5.944996e-18	2.786985e+01	-2.786985e+01
73            	6.073779e+01	-8.055657e+01	1.412944e+02	2.359015e+02	-1.963419e+02	4.322434e+02	-3.142926e+02	-1.109255e+02	2.856009e+01	-6.047604e-18	2.856009e+01	-2.856009e+01
74            	6.210096e+01	-8.095912e+01	1.430601e+02	2.382071e+02	-2.041070e+02	4.423141e+02	-3.232105e+02	-1.120096e+02	2.920108e+01	-6.122287e-18	2.920108e+01	-2.920108e+01
75            	6.341307e+01	-8.128714e+01	1.447002e+02	2.402999e+02	-2.116462e+02	4.519460e+02	-3.317961e+02	-1.129937e+02	2.981806e+01	-6.298382e-18	2.981806e+01	-2.981806e+01
76            	6.461913e+01	-8.157022e+01	1.461893e+02	2.421843e+02	-2.188351e+02	4.610194e+02	-3.399272e+02	-1.138798e+02	3.038517e+01	-6.444704e-18	3.038517e+01	-3.038517e+01
77            	6.574861e+01	-8.176036e+01	1.475090e+02	2.437897e+02	-2.255552e+02	4.693449e+02	-3.474501e+02	-1.146347e+02	3.091627e+01	-6.693307e-18	3.091627e+01	-3.091627e+01
78            	6.672163e+01	-8.185643e+01	1.485781e+02	2.450287e+02	-2.315735e+02	4.766022e+02	-3.540879e+02	-1.152172e+02	3.137381e+01	-6.902089e-18	3.137381e+01	-3.137381e+01
79            	6.754101e+01	-8.178727e+01	1.493283e+02	2.457529e+02	-2.366827e+02	4.824356e+02	-3.595592e+02	-1.155578e+02	3.175909e+01	-7.174418e-18	3.175909e+01	-3.175909e+01
80            	6.812237e+01	-8.154352e+01	1.496659e+02	2.458527e+02	-2.406335e+02	4.864862e+02	-3.635599e+02	-1.156047e+02	3.203246e+01	-7.394338e-18	3.203246e+01	-3.203246e+01
81            	6.849295e+01	-8.106581e+01	1.495588e+02	2.452308e+02	-2.433428e+02	4.885736e+02	-3.659582e+02	-1.153123e+02	3.220672e+01	-7.628368e-18	3.220672e+01	-3.220672e+01
82            	6.860456e+01	-8.036483e+01	1.489694e+02	2.438587e+02	-2.447193e+02	4.885780e+02	-3.666486e+02	-1.146671e+02	3.225920e+01	-7.810299e-18	3.225920e+01	-3.225920e+01
83            	6.851690e+01	-7.940425e+01	1.479211e+02	2.417227e+02	-2.448119e+02	4.865345e+02	-3.656732e+02	-1.136627e+02	3.221798e+01	-7.975085e-18	3.221798e+01	-3.221798e+01
84            	6.819335e+01	-7.820887e+01	1.464022e+02	2.388364e+02	-2.435906e+02	4.824270e+02	-3.630088e+02	-1.123055e+02	3.206584e+01	-8.090318e-18	3.206584e+01	-3.206584e+01
85            	6.768153e+01	-7.674152e+01	1.444230e+02	2.351716e+02	-2.410806e+02	4.762522e+02	-3.586664e+02	-1.105823e+02	3.182517e+01	-8.170709e-18	3.182517e+01	-3.182517e+01
86            	6.693473e+01	-7.502999e+01	1.419647e+02	2.307377e+02	-2.372560e+02	4.679937e+02	-3.526248e+02	-1.084974e+02	3.147401e+01	-8.193812e-18	3.147401e+01	-3.147401e+01
87            	6.600840e+01	-7.304608e+01	1.390545e+02	2.255336e+02	-2.322245e+02	4.577581e+02	-3.449913e+02	-1.060503e+02	3.103843e+01	-8.169649e-18	3.103843e+01	-3.103843e+01
88            	6.486712e+01	-7.081481e+01	1.356819e+02	2.195749e+02	-2.260076e+02	4.455824e+02	-3.357950e+02	-1.032484e+02	3.050178e+01	-8.086186e-18	3.050178e+01	-3.050178e+01
89            	6.357875e+01	-6.831322e+01	1.318920e+02	2.128848e+02	-2.187390e+02	4.316239e+02	-3.251815e+02	-1.001026e+02	2.989596e+01	-7.949673e-18	2.989596e+01	-2.989596e+01
90            	6.213958e+01	-6.560502e+01	1.277446e+02	2.055951e+02	-2.105737e+02	4.161688e+02	-3.133713e+02	-9.667480e+01	2.921924e+01	-7.761270e-18	2.921924e+01	-2.921924e+01
91            	6.064562e+01	-6.271481e+01	1.233604e+02	1.978600e+02	-2.018059e+02	3.996659e+02	-3.007359e+02	-9.303762e+01	2.851675e+01	-7.514804e-18	2.851675e+01	-2.851675e+01
92            	5.908775e+01	-5.971612e+01	1.188039e+02	1.898263e+02	-1.925995e+02	3.824258e+02	-2.875127e+02	-8.925999e+01	2.778421e+01	-7.225997e-18	2.778421e+01	-2.778421e+01
93            	5.751407e+01	-5.659928e+01	1.141134e+02	1.815244e+02	-1.830625e+02	3.645869e+02	-2.738247e+02	-8.535632e+01	2.704424e+01	-6.886328e-18	2.704424e+01	-2.704424e+01
94            	5.586524e+01	-5.339170e+01	1.092569e+02	1.729497e+02	-1.731457e+02	3.460954e+02	-2.596205e+02	-8.132432e+01	2.626892e+01	-6.508920e-18	2.626892e+01	-2.626892e+01
95            	5.415676e+01	-5.005886e+01	1.042156e+02	1.640452e+02	-1.627945e+02	3.268397e+02	-2.448171e+02	-7.713724e+01	2.546556e+01	-6.023081e-18	2.546556e+01	-2.546556e+01
96            	5.209306e+01	-4.625124e+01	9.834431e+01	1.537533e+02	-1.507354e+02	3.044887e+02	-2.276120e+02	-7.229777e+01	2.449517e+01	-5.522798e-18	2.449517e+01	-2.449517e+01
97            	5.061594e+01	-4.322764e+01	9.384358e+01	1.457524e+02	-1.416947e+02	2.874470e+02	-2.145709e+02	-6.853561e+01	2.380060e+01	-5.055765e-18	2.380060e+01	-2.380060e+01
98            	4.879715e+01	-3.977657e+01	8.857372e+01	1.364791e+02	-1.309515e+02	2.674306e+02	-1.991911e+02	-6.417514e+01	2.294537e+01	-4.581249e-18	2.294537e+01	-2.294537e+01
99            	4.754183e+01	-3.709828e+01	8.464010e+01	1.294485e+02	-1.232641e+02	2.527126e+02	-1.879884e+02	-6.086919e+01	2.235509e+01	-4.122415e-18	2.235509e+01	-2.235509e+01
100           	4.612562e+01	-3.433135e+01	8.045696e+01	1.220582e+02	-1.149570e+02	2.370152e+02	-1.759861e+02	-5.739416e+01	2.168916e+01	-3.673906e-18	2.168916e+01	-2.168916e+01
101           	4.413782e+01	-3.088629e+01	7.502410e+01	1.126180e+02	-1.037569e+02	2.163750e+02	-1.600660e+02	-5.295520e+01	2.075446e+01	-3.178521e-18	2.075446e+01	-2.075446e+01
102           	4.231125e+01	-2.786595e+01	7.017720e+01	1.042525e+02	-9.404646e+01	1.982990e+02	-1.461727e+02	-4.902157e+01	1.989557e+01	-2.725152e-18	1.989557e+01	-1.989557e+01
103           	4.121305e+01	-2.592151e+01	6.713455e+01	9.894961e+01	-8.854085e+01	1.874905e+02	-1.380157e+02	-4.652803e+01	1.937918e+01	-2.373253e-18	1.937918e+01	-1.937918e+01
104           	3.999278e+01	-2.405158e+01	6.404437e+01	9.367536e+01	-8.259430e+01	1.762697e+02	-1.294320e+02	-4.404798e+01	1.880538e+01	-2.062667e-18	1.880538e+01	-1.880538e+01
105           	3.820123e+01	-2.163243e+01	5.983366e+01	8.662560e+01	-7.373902e+01	1.603646e+02	-1.170518e+02	-4.073304e+01	1.796296e+01	-1.756092e-18	1.796296e+01	-1.796296e+01
106           	3.693039e+01	-2.008145e+01	5.701184e+01	8.197587e+01	-6.812600e+01	1.501019e+02	-1.091139e+02	-3.854665e+01	1.736539e+01	-1.570818e-18	1.736539e+01	-1.736539e+01
107           	3.518621e+01	-1.817771e+01	5.336391e+01	7.607259e+01	-6.047020e+01	1.365428e+02	-9.850650e+01	-3.577081e+01	1.654524e+01	-1.412568e-18	1.654524e+01	-1.654524e+01
108           	3.392769e+01	-1.704300e+01	5.097069e+01	7.232123e+01	-5.561971e+01	1.279409e+02	-9.178033e+01	-3.400685e+01	1.595346e+01	-1.352934e-18	1.595346e+01	-1.595346e+01
109           	3.226996e+01	-1.570086e+01	4.797083e+01	6.770423e+01	-4.922972e+01	1.169339e+02	-8.308183e+01	-3.183584e+01	1.517396e+01	-1.313837e-18	1.517396e+01	-1.517396e+01
110           	3.109583e+01	-1.502747e+01	4.612330e+01	6.502365e+01	-4.534880e+01	1.103724e+02	-7.786062e+01	-3.057538e+01	1.462186e+01	-1.355622e-18	1.462186e+01	-1.462186e+01
111           	2.988585e+01	-1.448738e+01	4.437322e+01	6.258843e+01	-4.163330e+01	1.042217e+02	-7.292752e+01	-2.943030e+01	1.405291e+01	-1.458474e-18	1.405291e+01	-1.405291e+01
112           	2.832210e+01	-1.385664e+01	4.217874e+01	5.958429e+01	-3.695822e+01	9.654250e+01	-6.675036e+01	-2.801769e+01	1.331760e+01	-1.578548e-18	1.331760e+01	-1.331760e+01
113           	2.724301e+01	-1.365716e+01	4.090017e+01	5.801263e+01	-3.420979e+01	9.222242e+01	-6.321611e+01	-2.727866e+01	1.281019e+01	-1.736145e-18	1.281019e+01	-1.281019e+01
114           	2.620912e+01	-1.367053e+01	3.987965e+01	5.694169e+01	-3.200971e+01	8.895140e+01	-6.048056e+01	-2.677509e+01	1.232404e+01	-1.925377e-18	1.232404e+01	-1.232404e+01
115           	2.525370e+01	-1.387763e+01	3.913133e+01	5.636619e+01	-3.041256e+01	8.677876e+01	-5.859566e+01	-2.650448e+01	1.187478e+01	-2.138858e-18	1.187478e+01	-1.187478e+01
116           	2.439209e+01	-1.431035e+01	3.870243e+01	5.637026e+01	-2.952361e+01	8.589387e+01	-5.770874e+01	-2.650639e+01	1.146963e+01	-2.356845e-18	1.146963e+01	-1.146963e+01
117           	2.375433e+01	-1.497293e+01	3.872726e+01	5.710121e+01	-2.969080e+01	8.679201e+01	-5.824141e+01	-2.685010e+01	1.116975e+01	-2.583510e-18	1.116975e+01	-1.116975e+01
118           	2.335989e+01	-1.590408e+01	3.926397e+01	5.866202e+01	-3.104709e+01	8.970911e+01	-6.037810e+01	-2.758402e+01	1.098427e+01	-2.838015e-18	1.098427e+01	-1.098427e+01
119           	2.326510e+01	-1.708179e+01	4.034689e+01	6.106583e+01	-3.365605e+01	9.472188e+01	-6.418896e+01	-2.871434e+01	1.093970e+01	-3.115503e-18	1.093970e+01	-1.093970e+01
120           	2.341313e+01	-1.851432e+01	4.192745e+01	6.426975e+01	-3.734258e+01	1.016123e+02	-6.947745e+01	-3.022088e+01	1.100931e+01	-3.403517e-18	1.100931e+01	-1.100931e+01
121           	2.381096e+01	-2.014677e+01	4.395773e+01	6.816445e+01	-4.196290e+01	1.101273e+02	-7.604512e+01	-3.205225e+01	1.119638e+01	-3.695482e-18	1.119638e+01	-1.119638e+01
122           	2.436962e+01	-2.194387e+01	4.631348e+01	7.258032e+01	-4.718696e+01	1.197673e+02	-8.347712e+01	-3.412868e+01	1.145907e+01	-3.994576e-18	1.145907e+01	-1.145907e+01
123           	2.509146e+01	-2.381124e+01	4.890269e+01	7.731915e+01	-5.280488e+01	1.301240e+02	-9.146445e+01	-3.635697e+01	1.179849e+01	-4.278640e-18	1.179849e+01	-1.179849e+01
124           	2.588554e+01	-2.570620e+01	5.159174e+01	8.219348e+01	-5.848619e+01	1.406797e+02	-9.958293e+01	-3.864897e+01	1.217189e+01	-4.530855e-18	1.217189e+01	-1.217189e+01
125           	2.674807e+01	-2.754998e+01	5.429805e+01	8.703174e+01	-6.403701e+01	1.510688e+02	-1.075529e+02	-4.092402e+01	1.257746e+01	-4.749464e-18	1.257746e+01	-1.257746e+01
126           	2.760209e+01	-2.935218e+01	5.695427e+01	9.177252e+01	-6.927062e+01	1.610431e+02	-1.151569e+02	-4.315322e+01	1.297904e+01	-4.935517e-18	1.297904e+01	-1.297904e+01
127           	2.847103e+01	-3.107971e+01	5.955074e+01	9.637038e+01	-7.415967e+01	1.705301e+02	-1.223449e+02	-4.531523e+01	1.338763e+01	-5.090126e-18	1.338763e+01	-1.338763e+01
128           	2.927825e+01	-3.275443e+01	6.203268e+01	1.007903e+02	-7.853497e+01	1.793253e+02	-1.289301e+02	-4.739356e+01	1.376720e+01	-5.205629e-18	1.376720e+01	-1.376720e+01
129           	3.003141e+01	-3.431012e+01	6.434153e+01	1.048996e+02	-8.225830e+01	1.871579e+02	-1.347081e+02	-4.932582e+01	1.412135e+01	-5.261262e-18	1.412135e+01	-1.412135e+01
130           	3.065361e+01	-3.574592e+01	6.639953e+01	1.086147e+02	-8.515032e+01	1.937650e+02	-1.394577e+02	-5.107272e+01	1.441392e+01	-5.310943e-18	1.441392e+01	-1.441392e+01
131           	3.119220e+01	-3.701803e+01	6.821023e+01	1.118927e+02	-8.725476e+01	1.991475e+02	-1.432011e+02	-5.261413e+01	1.466718e+01	-5.329115e-18	1.466718e+01	-1.466718e+01
132           	3.159056e+01	-3.815031e+01	6.974087e+01	1.147243e+02	-8.853588e+01	2.032602e+02	-1.458980e+02	-5.394559e+01	1.485449e+01	-5.314274e-18	1.485449e+01	-1.485449e+01
133           	3.190561e+01	-3.911888e+01	7.102449e+01	1.171191e+02	-8.910418e+01	2.062233e+02	-1.476637e+02	-5.507169e+01	1.500264e+01	-5.336957e-18	1.500264e+01	-1.500264e+01
134           	3.208501e+01	-3.996928e+01	7.205429e+01	1.191184e+02	-8.896996e+01	2.080884e+02	-1.485292e+02	-5.601178e+01	1.508700e+01	-5.359740e-18	1.508700e+01	-1.508700e+01
135           	3.218968e+01	-4.068805e+01	7.287773e+01	1.207583e+02	-8.832043e+01	2.090787e+02	-1.486996e+02	-5.678289e+01	1.513621e+01	-5.389854e-18	1.513621e+01	-1.513621e+01
136           	3.218681e+01	-4.134264e+01	7.352945e+01	1.221473e+02	-8.725693e+01	2.094043e+02	-1.483306e+02	-5.743605e+01	1.513486e+01	-5.411222e-18	1.513486e+01	-1.513486e+01
137           	3.214345e+01	-4.192279e+01	7.406624e+01	1.233350e+02	-8.594872e+01	2.092837e+02	-1.476162e+02	-5.799452e+01	1.511448e+01	-5.420570e-18	1.511448e+01	-1.511448e+01
138           	3.201499e+01	-4.246930e+01	7.448429e+01	1.243607e+02	-8.440881e+01	2.087695e+02	-1.465891e+02	-5.847680e+01	1.505407e+01	-5.427156e-18	1.505407e+01	-1.505407e+01
139           	3.186555e+01	-4.295472e+01	7.482027e+01	1.252341e+02	-8.276575e+01	2.079998e+02	-1.453828e+02	-5.888750e+01	1.498380e+01	-5.382512e-18	1.498380e+01	-1.498380e+01
140           	3.165438e+01	-4.341632e+01	7.507071e+01	1.259912e+02	-8.103058e+01	2.070218e+02	-1.440262e+02	-5.924351e+01	1.488451e+01	-5.289127e-18	1.488451e+01	-1.488451e+01
141           	3.145191e+01	-4.383203e+01	7.528394e+01	1.266600e+02	-7.934736e+01	2.060073e+02	-1.426774e+02	-5.955799e+01	1.478930e+01	-5.134145e-18	1.478930e+01	-1.478930e+01
142           	3.122818e+01	-4.425403e+01	7.548221e+01	1.273195e+02	-7.776592e+01	2.050855e+02	-1.414257e+02	-5.986812e+01	1.468410e+01	-5.093288e-18	1.468410e+01	-1.468410e+01
143           	3.106029e+01	-4.468237e+01	7.574266e+01	1.280520e+02	-7.648383e+01	2.045358e+02	-1.405098e+02	-6.021252e+01	1.460515e+01	-5.210912e-18	1.460515e+01	-1.460515e+01
144           	3.091527e+01	-4.517631e+01	7.609159e+01	1.289482e+02	-7.555701e+01	2.045052e+02	-1.400311e+02	-6.063395e+01	1.453696e+01	-5.359262e-18	1.453696e+01	-1.453696e+01
145           	3.084870e+01	-4.571845e+01	7.656715e+01	1.300303e+02	-7.508017e+01	2.051105e+02	-1.400953e+02	-6.114280e+01	1.450566e+01	-5.520506e-18	1.450566e+01	-1.450566e+01
146           	3.080764e+01	-4.633298e+01	7.714061e+01	1.312936e+02	-7.496067e+01	2.062543e+02	-1.406075e+02	-6.173679e+01	1.448635e+01	-5.680269e-18	1.448635e+01	-1.448635e+01
147           	3.084354e+01	-4.698393e+01	7.782747e+01	1.327161e+02	-7.523326e+01	2.079494e+02	-1.415913e+02	-6.240570e+01	1.450323e+01	-5.827882e-18	1.450323e+01	-1.450323e+01
148           	3.091224e+01	-4.769403e+01	7.860627e+01	1.342993e+02	-7.582687e+01	2.101262e+02	-1.429765e+02	-6.315015e+01	1.453553e+01	-5.970503e-18	1.453553e+01	-1.453553e+01
149           	3.106941e+01	-4.843259e+01	7.950200e+01	1.360371e+02	-7.680879e+01	2.128459e+02	-1.448273e+02	-6.396729e+01	1.460944e+01	-6.098938e-18	1.460944e+01	-1.460944e+01
150           	3.126528e+01	-4.922328e+01	8.048856e+01	1.379269e+02	-7.810258e+01	2.160295e+02	-1.470660e+02	-6.485592e+01	1.470154e+01	-6.218937e-18	1.470154e+01	-1.470154e+01
151           	3.154571e+01	-5.003612e+01	8.158184e+01	1.399538e+02	-7.974687e+01	2.197006e+02	-1.497238e+02	-6.580898e+01	1.483341e+01	-6.331526e-18	1.483341e+01	-1.483341e+01
152           	3.186107e+01	-5.090051e+01	8.276158e+01	1.421274e+02	-8.167614e+01	2.238035e+02	-1.527398e+02	-6.683105e+01	1.498169e+01	-6.445111e-18	1.498169e+01	-1.498169e+01
153           	3.225794e+01	-5.178480e+01	8.404274e+01	1.444300e+02	-8.392344e+01	2.283534e+02	-1.561384e+02	-6.791377e+01	1.516831e+01	-6.538264e-18	1.516831e+01	-1.516831e+01
154           	3.267819e+01	-5.270478e+01	8.538297e+01	1.468333e+02	-8.635750e+01	2.331908e+02	-1.597742e+02	-6.904388e+01	1.536592e+01	-6.625025e-18	1.536592e+01	-1.536592e+01
155           	3.315828e+01	-5.361490e+01	8.677318e+01	1.492793e+02	-8.894739e+01	2.382267e+02	-1.635871e+02	-7.019404e+01	1.559167e+01	-6.701638e-18	1.559167e+01	-1.559167e+01
156           	3.363696e+01	-5.452503e+01	8.816200e+01	1.517239e+02	-9.154737e+01	2.432712e+02	-1.674093e+02	-7.134351e+01	1.581675e+01	-6.781523e-18	1.581675e+01	-1.581675e+01
157           	3.415817e+01	-5.539662e+01	8.955479e+01	1.541317e+02	-9.417737e+01	2.483090e+02	-1.712432e+02	-7.247571e+01	1.606184e+01	-6.841304e-18	1.606184e+01	-1.606184e+01
158           	3.467088e+01	-5.625384e+01	9.092471e+01	1.564999e+02	-9.676544e+01	2.532653e+02	-1.750154e+02	-7.358927e+01	1.630292e+01	-6.900428e-18	1.630292e+01	-1.630292e+01
159           	3.522476e+01	-5.706728e+01	9.229204e+01	1.588187e+02	-9.936979e+01	2.581885e+02	-1.787792e+02	-7.467966e+01	1.656337e+01	-6.945399e-18	1.656337e+01	-1.656337e+01
160           	3.576875e+01	-5.786549e+01	9.363424e+01	1.610947e+02	-1.019289e+02	2.630236e+02	-1.824762e+02	-7.574987e+01	1.681916e+01	-6.996934e-18	1.681916e+01	-1.681916e+01
161           	3.634226e+01	-5.860981e+01	9.495208e+01	1.632875e+02	-1.044439e+02	2.677314e+02	-1.860877e+02	-7.678095e+01	1.708884e+01	-7.029766e-18	1.708884e+01	-1.708884e+01
162           	3.687999e+01	-5.931472e+01	9.619471e+01	1.653584e+02	-1.067766e+02	2.721350e+02	-1.894558e+02	-7.775472e+01	1.734169e+01	-7.071188e-18	1.734169e+01	-1.734169e+01
163           	3.741445e+01	-5.993290e+01	9.734734e+01	1.672413e+02	-1.088920e+02	2.761334e+02	-1.925127e+02	-7.864012e+01	1.759300e+01	-7.094260e-18	1.759300e+01	-1.759300e+01
164           	3.788314e+01	-6.048033e+01	9.836347e+01	1.689039e+02	-1.106700e+02	2.795739e+02	-1.951220e+02	-7.942190e+01	1.781339e+01	-7.125782e-18	1.781339e+01	-1.781339e+01
165           	3.833130e+01	-6.092087e+01	9.925217e+01	1.703173e+02	-1.121461e+02	2.824634e+02	-1.973048e+02	-8.008652e+01	1.802412e+01	-7.137145e-18	1.802412e+01	-1.802412e+01