# Force and moment coefficients
# dragDir     : (9.563048e-01 2.923717e-01 0.000000e+00)
# sideDir     : (0.000000e+00 0.000000e+00 -1.000000e+00)
# liftDir     : (-2.923717e-01 9.563048e-01 0.000000e+00)
# rollAxis    : (9.563048e-01 2.923717e-01 0.000000e+00)
# pitchAxis   : (0.000000e+00 0.000000e+00 -1.000000e+00)
# yawAxis     : (-2.923717e-01 9.563048e-01 0.000000e+00)
# magUInf     : 1.000000e+00
# lRef        : 3.190000e-01
# Aref        : 1.595000e-03
# CofR        : (0.000000e+00 0.000000e+00 0.000000e+00)
#
# Time        	Cd            	Cd(f)         	Cd(r)         	Cl            	Cl(f)         	Cl(r)         	CmPitch       	CmRoll        	CmYaw         	Cs            	Cs(f)         	Cs(r)         
1             	4.527190e+02	-3.054575e+02	7.581765e+02	1.130998e+03	-1.480299e+03	2.611297e+03	-2.045798e+03	-5.318170e+02	2.128773e+02	2.452719e-18	2.128773e+02	-2.128773e+02
2             	3.587414e+02	-3.026029e+02	6.613443e+02	1.024997e+03	-1.213748e+03	2.238745e+03	-1.726247e+03	-4.819736e+02	1.686872e+02	-1.005049e-17	1.686872e+02	-1.686872e+02
3             	3.243742e+01	-9.355241e+01	1.259898e+02	2.334466e+02	-4.281100e+01	2.762576e+02	-1.595343e+02	-1.097711e+02	1.525271e+01	-2.018017e-17	1.525271e+01	-1.525271e+01
4             	-1.507199e+02	9.158858e+01	-2.423085e+02	-3.550439e+02	7.227091e+02	-1.077753e+03	9.002311e+02	1.669485e+02	-7.087142e+01	-1.323539e-17	-7.087142e+01	7.087142e+01
5             	-1.295013e+02	1.020266e+02	-2.315278e+02	-3.546795e+02	6.205318e+02	-9.752114e+02	7.978716e+02	1.667772e+02	-6.089402e+01	-7.782020e-18	-6.089402e+01	6.089402e+01
6             	-3.901244e-01	-1.033664e+01	9.946518e+00	2.156776e+01	-1.398107e+01	3.554883e+01	-2.476495e+01	-1.014158e+01	-1.834441e-01	-1.069577e-17	-1.834441e-01	1.834441e-01
7             	1.107054e+02	-1.261404e+02	2.368458e+02	3.859754e+02	-5.135133e+02	8.994886e+02	-7.065009e+02	-1.814931e+02	5.205584e+01	-1.702097e-17	5.205584e+01	-5.205584e+01
8             	1.318137e+02	-1.581686e+02	2.899823e+02	4.765338e+02	-5.553063e+02	1.031840e+03	-7.935732e+02	-2.240754e+02	6.198136e+01	-1.610894e-17	6.198136e+01	-6.198136e+01
9             	1.045671e+02	-1.316688e+02	2.362359e+02	3.912054e+02	-3.543313e+02	7.455366e+02	-5.499339e+02	-1.839524e+02	4.916948e+01	-1.057913e-17	4.916948e+01	-4.916948e+01
10            	5.442054e+01	-7.808240e+01	1.325029e+02	2.239224e+02	-7.311660e+01	2.970390e+02	-1.850778e+02	-1.052927e+02	2.558960e+01	-6.139984e-18	2.558960e+01	-2.558960e+01
11            	1.994253e+01	-4.638711e+01	6.632963e+01	1.198555e+02	7.226892e+01	4.758655e+01	1.234118e+01	-5.635837e+01	9.377363e+00	-5.176136e-18	9.377363e+00	-9.377363e+00
12            	1.601155e+01	-4.792987e+01	6.394143e+01	1.189565e+02	4.641014e+01	7.254634e+01	-1.306810e+01	-5.593565e+01	7.528944e+00	-7.420204e-18	7.528944e+00	-7.528944e+00
13            	3.009703e+01	-6.637585e+01	9.647288e+01	1.731625e+02	-6.820370e+01	2.413662e+02	-1.547849e+02	-8.142437e+01	1.415221e+01	-1.032747e-17	1.415221e+01	-1.415221e+01
14            	4.999166e+01	-8.724072e+01	1.372324e+02	2.386897e+02	-1.864468e+02	4.251365e+02	-3.057917e+02	-1.122365e+02	2.350705e+01	-1.169312e-17	2.350705e+01	-2.350705e+01
15            	6.436055e+01	-9.903524e+01	1.633958e+02	2.790517e+02	-2.442339e+02	5.232856e+02	-3.837598e+02	-1.312155e+02	3.026358e+01	-1.135499e-17	3.026358e+01	-3.026358e+01
16            	6.887047e+01	-1.009689e+02	1.698394e+02	2.879596e+02	-2.366238e+02	5.245833e+02	-3.806036e+02	-1.354042e+02	3.238423e+01	-1.048291e-17	3.238423e+01	-3.238423e+01
17            	6.684253e+01	-9.731350e+01	1.641560e+02	2.780293e+02	-1.923981e+02	4.704274e+02	-3.314128e+02	-1.307348e+02	3.143066e+01	-9.892368e-18	3.143066e+01	-3.143066e+01
18            	5.890255e+01	-9.067283e+01	1.495754e+02	2.554639e+02	-1.361325e+02	3.915965e+02	-2.638645e+02	-1.201241e+02	2.769712e+01	-9.717630e-18	2.769712e+01	-2.769712e+01
19            	5.011840e+01	-8.503274e+01	1.351511e+02	2.341289e+02	-1.006846e+02	3.348135e+02	-2.177491e+02	-1.100919e+02	2.356664e+01	-9.800006e-18	2.356664e+01	-2.356664e+01
20            	4.482165e+01	-8.270475e+01	1.275264e+02	2.235458e+02	-9.883051e+01	3.223763e+02	-2.106034e+02	-1.051156e+02	2.107601e+01	-9.996918e-18	2.107601e+01	-2.107601e+01
21            	4.572669e+01	-8.481035e+01	1.305370e+02	2.289861e+02	-1.293008e+02	3.582868e+02	-2.437938e+02	-1.076737e+02	2.150158e+01	-1.039901e-17	2.150158e+01	-2.150158e+01
22            	5.331376e+01	-9.114325e+01	1.444570e+02	2.505216e+02	-1.762470e+02	4.267686e+02	-3.015078e+02	-1.178001e+02	2.506916e+01	-1.100998e-17	2.506916e+01	-2.506916e+01
23            	6.260419e+01	-9.788290e+01	1.604871e+02	2.747334e+02	-2.105504e+02	4.852839e+02	-3.479172e+02	-1.291850e+02	2.943771e+01	-1.174574e-17	2.943771e+01	-2.943771e+01
24            	6.839814e+01	-1.014409e+02	1.698391e+02	2.884610e+02	-2.161764e+02	5.046374e+02	-3.604069e+02	-1.356400e+02	3.216214e+01	-1.237147e-17	3.216214e+01	-3.216214e+01
25            	6.819570e+01	-1.001113e+02	1.683070e+02	2.854181e+02	-1.940512e+02	4.794693e+02	-3.367602e+02	-1.342091e+02	3.206694e+01	-1.277005e-17	3.206694e+01	-3.206694e+01
26            	6.290260e+01	-9.500507e+01	1.579077e+02	2.689305e+02	-1.604448e+02	4.293754e+02	-2.949101e+02	-1.264564e+02	2.957802e+01	-1.284229e-17	2.957802e+01	-2.957802e+01
27            	5.727918e+01	-9.005805e+01	1.473372e+02	2.524303e+02	-1.390812e+02	3.915115e+02	-2.652963e+02	-1.186976e+02	2.693378e+01	-1.279816e-17	2.693378e+01	-2.693378e+01
28            	5.473147e+01	-8.801011e+01	1.427416e+02	2.453660e+02	-1.400372e+02	3.854032e+02	-2.627202e+02	-1.153758e+02	2.573580e+01	-1.281408e-17	2.573580e+01	-2.573580e+01
29            	5.680316e+01	-8.987934e+01	1.466825e+02	2.515441e+02	-1.625571e+02	4.141012e+02	-2.883292e+02	-1.182809e+02	2.670995e+01	-1.301927e-17	2.670995e+01	-2.670995e+01
30            	6.274394e+01	-9.459982e+01	1.573438e+02	2.679000e+02	-1.947794e+02	4.626794e+02	-3.287294e+02	-1.259718e+02	2.950342e+01	-1.332090e-17	2.950342e+01	-2.950342e+01
31            	6.888947e+01	-9.878642e+01	1.676759e+02	2.833383e+02	-2.172061e+02	5.005444e+02	-3.588752e+02	-1.332312e+02	3.239317e+01	-1.362333e-17	3.239317e+01	-3.239317e+01
32            	7.217713e+01	-1.000900e+02	1.722672e+02	2.896065e+02	-2.199426e+02	5.095491e+02	-3.647458e+02	-1.361786e+02	3.393909e+01	-1.383947e-17	3.393909e+01	-3.393909e+01
33            	7.195112e+01	-9.814825e+01	1.700994e+02	2.852366e+02	-2.046824e+02	4.899190e+02	-3.473007e+02	-1.341238e+02	3.383282e+01	-1.396144e-17	3.383282e+01	-3.383282e+01
34            	6.844440e+01	-9.364655e+01	1.620909e+02	2.719342e+02	-1.782717e+02	4.502059e+02	-3.142388e+02	-1.278687e+02	3.218389e+01	-1.397658e-17	3.218389e+01	-3.218389e+01
35            	6.424354e+01	-8.898755e+01	1.532311e+02	2.575592e+02	-1.558539e+02	4.134131e+02	-2.846335e+02	-1.211093e+02	3.020856e+01	-1.388061e-17	3.020856e+01	-3.020856e+01
36            	6.204877e+01	-8.629202e+01	1.483408e+02	2.494929e+02	-1.478341e+02	3.973270e+02	-2.725806e+02	-1.173164e+02	2.917654e+01	-1.359328e-17	2.917654e+01	-2.917654e+01
37            	6.234189e+01	-8.558391e+01	1.479258e+02	2.482987e+02	-1.524919e+02	4.007905e+02	-2.766412e+02	-1.167549e+02	2.931437e+01	-1.317085e-17	2.931437e+01	-2.931437e+01
38            	6.490185e+01	-8.649040e+01	1.513923e+02	2.529486e+02	-1.655017e+02	4.184502e+02	-2.919759e+02	-1.189413e+02	3.051811e+01	-1.259293e-17	3.051811e+01	-3.051811e+01
39            	6.859687e+01	-8.797181e+01	1.565687e+02	2.600280e+02	-1.792836e+02	4.393117e+02	-3.092976e+02	-1.222702e+02	3.225558e+01	-1.199308e-17	3.225558e+01	-3.225558e+01
40            	7.134554e+01	-8.850148e+01	1.598470e+02	2.640772e+02	-1.850726e+02	4.491499e+02	-3.171112e+02	-1.241743e+02	3.354806e+01	-1.141159e-17	3.354806e+01	-3.354806e+01
41            	7.232693e+01	-8.745553e+01	1.597825e+02	2.628964e+02	-1.809936e+02	4.438900e+02	-3.124418e+02	-1.236190e+02	3.400953e+01	-1.089709e-17	3.400953e+01	-3.400953e+01
42            	7.155913e+01	-8.493599e+01	1.564951e+02	2.567217e+02	-1.693148e+02	4.260366e+02	-2.976757e+02	-1.207156e+02	3.364850e+01	-1.035412e-17	3.364850e+01	-3.364850e+01
43            	6.996485e+01	-8.179602e+01	1.517609e+02	2.483488e+02	-1.565087e+02	4.048575e+02	-2.806831e+02	-1.167784e+02	3.289883e+01	-9.846462e-18	3.289883e+01	-3.289883e+01
44            	6.900584e+01	-7.929621e+01	1.483020e+02	2.420128e+02	-1.496970e+02	3.917098e+02	-2.707034e+02	-1.137991e+02	3.244789e+01	-9.282519e-18	3.244789e+01	-3.244789e+01
45            	6.951644e+01	-7.796418e+01	1.474806e+02	2.397230e+02	-1.511172e+02	3.908402e+02	-2.709787e+02	-1.127224e+02	3.268798e+01	-8.697285e-18	3.268798e+01	-3.268798e+01
46            	7.153125e+01	-7.774210e+01	1.492734e+02	2.413931e+02	-1.594023e+02	4.007954e+02	-2.800989e+02	-1.135077e+02	3.363539e+01	-7.994123e-18	3.363539e+01	-3.363539e+01
47            	7.462068e+01	-7.837035e+01	1.529910e+02	2.460143e+02	-1.717481e+02	4.177624e+02	-2.947553e+02	-1.156807e+02	3.508809e+01	-7.303378e-18	3.508809e+01	-3.508809e+01
48            	7.772587e+01	-7.922696e+01	1.569528e+02	2.511379e+02	-1.837122e+02	4.348501e+02	-3.092811e+02	-1.180899e+02	3.654822e+01	-6.640073e-18	3.654822e+01	-3.654822e+01
49            	8.026418e+01	-7.974560e+01	1.600098e+02	2.549399e+02	-1.931937e+02	4.481336e+02	-3.206636e+02	-1.198777e+02	3.774178e+01	-6.115539e-18	3.774178e+01	-3.774178e+01
50            	8.228740e+01	-7.985973e+01	1.621471e+02	2.573340e+02	-2.011537e+02	4.584877e+02	-3.298207e+02	-1.210034e+02	3.869313e+01	-5.643679e-18	3.869313e+01	-3.869313e+01
51            	8.421390e+01	-7.984031e+01	1.640542e+02	2.593412e+02	-2.098255e+02	4.691667e+02	-3.394961e+02	-1.219473e+02	3.959901e+01	-5.313609e-18	3.959901e+01	-3.959901e+01
52            	8.636418e+01	-8.012668e+01	1.664909e+02	2.622366e+02	-2.207951e+02	4.830318e+02	-3.519134e+02	-1.233088e+02	4.061011e+01	-5.030317e-18	4.061011e+01	-4.061011e+01
53            	8.891028e+01	-8.090392e+01	1.698142e+02	2.665969e+02	-2.343785e+02	5.009754e+02	-3.676769e+02	-1.253591e+02	4.180734e+01	-4.889877e-18	4.180734e+01	-4.180734e+01
54            	9.172201e+01	-8.211077e+01	1.738328e+02	2.721533e+02	-2.496261e+02	5.217794e+02	-3.857027e+02	-1.279718e+02	4.312947e+01	-4.771998e-18	4.312947e+01	-4.312947e+01
55            	9.452874e+01	-8.343574e+01	1.779645e+02	2.779556e+02	-2.649093e+02	5.428649e+02	-4.038871e+02	-1.307001e+02	4.444925e+01	-4.746709e-18	4.444925e+01	-4.444925e+01
56            	9.700185e+01	-8.460054e+01	1.816024e+02	2.830625e+02	-2.788209e+02	5.618833e+02	-4.203521e+02	-1.331015e+02	4.561216e+01	-4.766223e-18	4.561216e+01	-4.561216e+01
57            	9.907617e+01	-8.545979e+01	1.845360e+02	2.870955e+02	-2.910788e+02	5.781743e+02	-4.346266e+02	-1.349979e+02	4.658754e+01	-4.841360e-18	4.658754e+01	-4.658754e+01
58            	1.007557e+02	-8.607524e+01	1.868310e+02	2.901903e+02	-3.020095e+02	5.921998e+02	-4.471046e+02	-1.364531e+02	4.737730e+01	-5.015503e-18	4.737730e+01	-4.737730e+01
59            	1.021353e+02	-8.653145e+01	1.886668e+02	2.926274e+02	-3.120058e+02	6.046332e+02	-4.583195e+02	-1.375991e+02	4.802601e+01	-5.292069e-18	4.802601e+01	-4.802601e+01
60            	1.032139e+02	-8.692509e+01	1.901390e+02	2.946115e+02	-3.211270e+02	6.157385e+02	-4.684328e+02	-1.385321e+02	4.853320e+01	-5.637413e-18	4.853320e+01	-4.853320e+01
61            	1.040531e+02	-8.722510e+01	1.912782e+02	2.961418e+02	-3.293112e+02	6.254530e+02	-4.773821e+02	-1.392517e+02	4.892779e+01	-6.057174e-18	4.892779e+01	-4.892779e+01
62            	1.046050e+02	-8.738596e+01	1.919910e+02	2.970708e+02	-3.362377e+02	6.333086e+02	-4.847732e+02	-1.396885e+02	4.918732e+01	-6.499939e-18	4.918732e+01	-4.918732e+01
63            	1.048517e+02	-8.727138e+01	1.921231e+02	2.970894e+02	-3.413974e+02	6.384869e+02	-4.899421e+02	-1.396972e+02	4.930331e+01	-6.980949e-18	4.930331e+01	-4.930331e+01
64            	1.046695e+02	-8.681556e+01	1.914851e+02	2.959264e+02	-3.441823e+02	6.401087e+02	-4.921455e+02	-1.391503e+02	4.921765e+01	-7.453757e-18	4.921765e+01	-4.921765e+01
65            	1.040551e+02	-8.594174e+01	1.899968e+02	2.934147e+02	-3.444157e+02	6.378303e+02	-4.911230e+02	-1.379693e+02	4.892872e+01	-7.894184e-18	4.892872e+01	-4.892872e+01
66            	1.029622e+02	-8.466298e+01	1.876252e+02	2.895331e+02	-3.421353e+02	6.316683e+02	-4.869018e+02	-1.361441e+02	4.841481e+01	-8.258180e-18	4.841481e+01	-4.841481e+01
67            	1.015166e+02	-8.298809e+01	1.845047e+02	2.844340e+02	-3.378290e+02	6.222630e+02	-4.800460e+02	-1.337464e+02	4.773510e+01	-8.548589e-18	4.773510e+01	-4.773510e+01
68            	9.983263e+01	-8.102844e+01	1.808611e+02	2.784758e+02	-3.321708e+02	6.106467e+02	-4.714088e+02	-1.309448e+02	4.694324e+01	-8.735118e-18	4.694324e+01	-4.694324e+01
69            	9.809524e+01	-7.883215e+01	1.769274e+02	2.719576e+02	-3.257760e+02	5.977336e+02	-4.617548e+02	-1.278798e+02	4.612629e+01	-8.845697e-18	4.612629e+01	-4.612629e+01
70            	9.634002e+01	-7.647580e+01	1.728158e+02	2.650801e+02	-3.188477e+02	5.839278e+02	-4.513877e+02	-1.246458e+02	4.530095e+01	-8.871096e-18	4.530095e+01	-4.530095e+01
71            	9.463750e+01	-7.395865e+01	1.685962e+02	2.579166e+02	-3.114794e+02	5.693960e+02	-4.404377e+02	-1.212774e+02	4.450039e+01	-8.808355e-18	4.450039e+01	-4.450039e+01
72            	9.290677e+01	-7.127922e+01	1.641860e+02	2.503780e+02	-3.034748e+02	5.538528e+02	-4.286638e+02	-1.177326e+02	4.368657e+01	-8.641570e-18	4.368657e+01	-4.368657e+01
73            	9.116341e+01	-6.838567e+01	1.595491e+02	2.423706e+02	-2.949091e+02	5.372797e+02	-4.160944e+02	-1.139674e+02	4.286681e+01	-8.358013e-18	4.286681e+01	-4.286681e+01
74            	8.938359e+01	-6.530674e+01	1.546903e+02	2.339302e+02	-2.860130e+02	5.199432e+02	-4.029781e+02	-1.099985e+02	4.202990e+01	-7.938116e-18	4.202990e+01	-4.202990e+01
75            	8.758777e+01	-6.201873e+01	1.496065e+02	2.250282e+02	-2.768028e+02	5.018310e+02	-3.893169e+02	-1.058126e+02	4.118547e+01	-7.403850e-18	4.118547e+01	-4.118547e+01
76            	8.576498e+01	-5.859131e+01	1.443563e+02	2.158010e+02	-2.673635e+02	4.831645e+02	-3.752640e+02	-1.014738e+02	4.032836e+01	-6.756027e-18	4.032836e+01	-4.032836e+01
77            	8.401489e+01	-5.508137e+01	1.390963e+02	2.064755e+02	-2.580061e+02	4.644816e+02	-3.612439e+02	-9.708881e+01	3.950543e+01	-5.960495e-18	3.950543e+01	-3.950543e+01
78            	8.239354e+01	-5.162751e+01	1.340211e+02	1.974063e+02	-2.491350e+02	4.465413e+02	-3.478381e+02	-9.282428e+01	3.874304e+01	-5.170600e-18	3.874304e+01	-3.874304e+01
79            	8.088370e+01	-4.823706e+01	1.291208e+02	1.885905e+02	-2.406508e+02	4.292413e+02	-3.349460e+02	-8.867891e+01	3.803309e+01	-4.372258e-18	3.803309e+01	-3.803309e+01
80            	7.935877e+01	-4.490825e+01	1.242670e+02	1.798897e+02	-2.322574e+02	4.121471e+02	-3.222023e+02	-8.458764e+01	3.731604e+01	-3.557343e-18	3.731604e+01	-3.731604e+01
81            	7.776869e+01	-4.158328e+01	1.193520e+02	1.711278e+02	-2.237605e+02	3.948883e+02	-3.093244e+02	-8.046763e+01	3.656835e+01	-2.742234e-18	3.656835e+01	-3.656835e+01
82            	7.603089e+01	-3.826108e+01	1.142920e+02	1.622147e+02	-2.150336e+02	3.772484e+02	-2.961410e+02	-7.627652e+01	3.575120e+01	-1.921180e-18	3.575120e+01	-3.575120e+01
83            	7.418671e+01	-3.494370e+01	1.091304e+02	1.531988e+02	-2.061857e+02	3.593845e+02	-2.827851e+02	-7.203705e+01	3.488403e+01	-1.077113e-18	3.488403e+01	-3.488403e+01
84            	7.220512e+01	-3.168289e+01	1.038880e+02	1.441571e+02	-1.972299e+02	3.413870e+02	-2.693084e+02	-6.778545e+01	3.395225e+01	-3.122069e-19	3.395225e+01	-3.395225e+01
85            	7.013976e+01	-2.852061e+01	9.866037e+01	1.352358e+02	-1.882681e+02	3.235038e+02	-2.558860e+02	-6.359049e+01	3.298108e+01	4.059343e-19	3.298108e+01	-3.298108e+01
86            	6.800547e+01	-2.555701e+01	9.356249e+01	1.266637e+02	-1.794406e+02	3.061043e+02	-2.427725e+02	-5.955975e+01	3.197750e+01	9.915256e-19	3.197750e+01	-3.197750e+01
87            	6.508658e+01	-2.202750e+01	8.711409e+01	1.160539e+02	-1.672876e+02	2.833415e+02	-2.253145e+02	-5.457080e+01	3.060498e+01	1.556789e-18	3.060498e+01	-3.060498e+01
88            	6.342010e+01	-2.011795e+01	8.353805e+01	1.102209e+02	-1.612955e+02	2.715164e+02	-2.164059e+02	-5.182800e+01	2.982136e+01	1.871966e-18	2.982136e+01	-2.982136e+01
89            	6.050560e+01	-1.733683e+01	7.784243e+01	1.012073e+02	-1.498519e+02	2.510592e+02	-2.004555e+02	-4.758963e+01	2.845091e+01	2.183130e-18	2.845091e+01	-2.845091e+01
90            	5.818509e+01	-1.544843e+01	7.363351e+01	9.472379e+01	-1.413429e+02	2.360667e+02	-1.887048e+02	-4.454097e+01	2.735976e+01	2.307599e-18	2.735976e+01	-2.735976e+01
91            	5.416617e+01	-1.232136e+01	6.648753e+01	8.380011e+01	-1.255180e+02	2.093181e+02	-1.674180e+02	-3.940444e+01	2.546998e+01	2.399561e-18	2.546998e+01	-2.546998e+01
92            	5.037311e+01	-9.614904e+00	5.998802e+01	7.401111e+01	-1.109265e+02	1.849376e+02	-1.479320e+02	-3.480146e+01	2.368642e+01	2.399596e-18	2.368642e+01	-2.368642e+01
93            	4.790494e+01	-8.184230e+00	5.608917e+01	6.834405e+01	-1.018729e+02	1.702169e+02	-1.360449e+02	-3.213670e+01	2.252584e+01	2.233549e-18	2.252584e+01	-2.252584e+01
94            	4.499078e+01	-6.784860e+00	5.177564e+01	6.226933e+01	-9.087826e+01	1.531476e+02	-1.220129e+02	-2.928025e+01	2.115554e+01	2.014751e-18	2.115554e+01	-2.115554e+01
95            	4.083187e+01	-4.806818e+00	4.563869e+01	5.364039e+01	-7.463839e+01	1.282788e+02	-1.014586e+02	-2.522276e+01	1.919994e+01	1.763991e-18	1.919994e+01	-1.919994e+01
96            	3.703720e+01	-3.221028e+00	4.025823e+01	4.623294e+01	-5.999070e+01	1.062236e+02	-8.310717e+01	-2.173963e+01	1.741561e+01	1.520959e-18	1.741561e+01	-1.741561e+01
97            	3.433661e+01	-2.408428e+00	3.674504e+01	4.163318e+01	-4.974203e+01	9.137522e+01	-7.055863e+01	-1.957673e+01	1.614574e+01	1.272455e-18	1.614574e+01	-1.614574e+01
98            	3.163903e+01	-1.887714e+00	3.352674e+01	3.765737e+01	-3.964123e+01	7.729860e+01	-5.846992e+01	-1.770723e+01	1.487728e+01	9.989232e-19	1.487728e+01	-1.487728e+01
99            	2.853386e+01	-1.482564e+00	3.001642e+01	3.349392e+01	-2.802521e+01	6.151913e+01	-4.477217e+01	-1.574949e+01	1.341718e+01	6.977295e-19	1.341718e+01	-1.341718e+01
100           	2.649238e+01	-1.622713e+00	2.811509e+01	3.162120e+01	-2.041608e+01	5.203727e+01	-3.622668e+01	-1.486890e+01	1.245723e+01	4.004051e-19	1.245723e+01	-1.245723e+01
101           	2.469642e+01	-2.067023e+00	2.676344e+01	3.065639e+01	-1.385691e+01	4.451330e+01	-2.918511e+01	-1.441523e+01	1.161273e+01	8.443332e-20	1.161273e+01	-1.161273e+01
102           	2.312947e+01	-2.850804e+00	2.598027e+01	3.065705e+01	-8.477995e+00	3.913504e+01	-2.380652e+01	-1.441554e+01	1.087593e+01	-2.327243e-19	1.087593e+01	-1.087593e+01
103           	2.191910e+01	-3.942989e+00	2.586209e+01	3.169273e+01	-4.691660e+00	3.638439e+01	-2.053803e+01	-1.490254e+01	1.030679e+01	-5.417086e-19	1.030679e+01	-1.030679e+01
104           	2.104005e+01	-5.315236e+00	2.635529e+01	3.367633e+01	-2.459818e+00	3.613614e+01	-1.929798e+01	-1.583526e+01	9.893442e+00	-8.398802e-19	9.893442e+00	-9.893442e+00
105           	2.061009e+01	-7.267379e+00	2.787747e+01	3.737069e+01	-2.424444e+00	3.979513e+01	-2.110979e+01	-1.757242e+01	9.691265e+00	-1.154993e-18	9.691265e+00	-9.691265e+00
106           	2.058777e+01	-8.929870e+00	2.951764e+01	4.088252e+01	-3.583493e+00	4.446602e+01	-2.402476e+01	-1.922376e+01	9.680772e+00	-1.423790e-18	9.680772e+00	-9.680772e+00
107           	2.108542e+01	-1.098364e+01	3.206906e+01	4.577937e+01	-6.956677e+00	5.273605e+01	-2.984636e+01	-2.152635e+01	9.914775e+00	-1.711732e-18	9.914775e+00	-9.914775e+00
108           	2.251480e+01	-1.428274e+01	3.679754e+01	5.431535e+01	-1.463333e+01	6.894868e+01	-4.179101e+01	-2.554014e+01	1.058690e+01	-2.069421e-18	1.058690e+01	-1.058690e+01
109           	2.354352e+01	-1.671237e+01	4.025590e+01	6.057626e+01	-1.994938e+01	8.052564e+01	-5.023751e+01	-2.848414e+01	1.107062e+01	-2.335320e-18	1.107062e+01	-1.107062e+01
110           	2.487030e+01	-1.942233e+01	4.429263e+01	6.775025e+01	-2.671422e+01	9.446447e+01	-6.058935e+01	-3.185748e+01	1.169450e+01	-2.635344e-18	1.169450e+01	-1.169450e+01
111           	2.706454e+01	-2.308085e+01	5.014539e+01	7.786390e+01	-3.753654e+01	1.154004e+02	-7.646849e+01	-3.661312e+01	1.272627e+01	-2.975906e-18	1.272627e+01	-1.272627e+01
112           	2.862847e+01	-2.574992e+01	5.437839e+01	8.520311e+01	-4.511818e+01	1.303213e+02	-8.771973e+01	-4.006416e+01	1.346166e+01	-3.257388e-18	1.346166e+01	-1.346166e+01
113           	3.049029e+01	-2.851474e+01	5.900504e+01	9.306270e+01	-5.375047e+01	1.468132e+02	-1.002818e+02	-4.375989e+01	1.433713e+01	-3.523891e-18	1.433713e+01	-1.433713e+01
114           	3.263270e+01	-3.148265e+01	6.411535e+01	1.016525e+02	-6.345607e+01	1.651086e+02	-1.142823e+02	-4.779900e+01	1.534453e+01	-3.856994e-18	1.534453e+01	-1.534453e+01
115           	3.493486e+01	-3.450190e+01	6.943676e+01	1.105214e+02	-7.345797e+01	1.839794e+02	-1.287187e+02	-5.196933e+01	1.642705e+01	-4.148913e-18	1.642705e+01	-1.642705e+01
116           	3.713153e+01	-3.740523e+01	7.453676e+01	1.190316e+02	-8.271554e+01	2.017472e+02	-1.422314e+02	-5.597099e+01	1.745997e+01	-4.465936e-18	1.745997e+01	-1.745997e+01
117           	3.913379e+01	-4.004848e+01	7.918227e+01	1.267820e+02	-9.081119e+01	2.175932e+02	-1.542022e+02	-5.961538e+01	1.840147e+01	-4.787732e-18	1.840147e+01	-1.840147e+01
118           	4.090670e+01	-4.246230e+01	8.336900e+01	1.338006e+02	-9.781253e+01	2.316131e+02	-1.647128e+02	-6.291565e+01	1.923513e+01	-5.090558e-18	1.923513e+01	-1.923513e+01
119           	4.257798e+01	-4.469008e+01	8.726806e+01	1.403155e+02	-1.041201e+02	2.444356e+02	-1.742778e+02	-6.597907e+01	2.002099e+01	-5.391940e-18	2.002099e+01	-2.002099e+01
120           	4.414427e+01	-4.681314e+01	9.095741e+01	1.464960e+02	-1.098521e+02	2.563482e+02	-1.831002e+02	-6.888528e+01	2.075749e+01	-5.698034e-18	2.075749e+01	-2.075749e+01
121           	4.562437e+01	-4.880805e+01	9.443243e+01	1.523124e+02	-1.149967e+02	2.673090e+02	-1.911528e+02	-7.162024e+01	2.145347e+01	-6.001876e-18	2.145347e+01	-2.145347e+01
122           	4.689829e+01	-5.067720e+01	9.757548e+01	1.576420e+02	-1.192647e+02	2.769067e+02	-1.980857e+02	-7.412634e+01	2.205249e+01	-6.316009e-18	2.205249e+01	-2.205249e+01
123           	4.797589e+01	-5.235926e+01	1.003352e+02	1.623651e+02	-1.225950e+02	2.849601e+02	-2.037775e+02	-7.634721e+01	2.255920e+01	-6.599751e-18	2.255920e+01	-2.255920e+01
124           	4.880951e+01	-5.387305e+01	1.026826e+02	1.664708e+02	-1.249278e+02	2.913986e+02	-2.081632e+02	-7.827780e+01	2.295118e+01	-6.874248e-18	2.295118e+01	-2.295118e+01
125           	4.948625e+01	-5.519822e+01	1.046845e+02	1.700086e+02	-1.264414e+02	2.964500e+02	-2.114457e+02	-7.994134e+01	2.326939e+01	-7.095415e-18	2.326939e+01	-2.326939e+01
126           	5.000124e+01	-5.639338e+01	1.063946e+02	1.730979e+02	-1.272478e+02	3.003457e+02	-2.137968e+02	-8.139400e+01	2.351155e+01	-7.305241e-18	2.351155e+01	-2.351155e+01
127           	5.043394e+01	-5.745029e+01	1.078842e+02	1.758057e+02	-1.275464e+02	3.033521e+02	-2.154493e+02	-8.266726e+01	2.371502e+01	-7.457020e-18	2.371502e+01	-2.371502e+01
128           	5.075059e+01	-5.841867e+01	1.091693e+02	1.782018e+02	-1.273932e+02	3.055950e+02	-2.164941e+02	-8.379397e+01	2.386391e+01	-7.607469e-18	2.386391e+01	-2.386391e+01
129           	5.101415e+01	-5.928688e+01	1.103010e+02	1.803285e+02	-1.269618e+02	3.072902e+02	-2.171260e+02	-8.479395e+01	2.398785e+01	-7.708692e-18	2.398785e+01	-2.398785e+01
130           	5.119522e+01	-6.010503e+01	1.113003e+02	1.822610e+02	-1.263170e+02	3.085780e+02	-2.174475e+02	-8.570264e+01	2.407299e+01	-7.814682e-18	2.407299e+01	-2.407299e+01
131           	5.136781e+01	-6.086353e+01	1.122313e+02	1.840575e+02	-1.256458e+02	3.097034e+02	-2.176746e+02	-8.654743e+01	2.415414e+01	-7.875083e-18	2.415414e+01	-2.415414e+01
132           	5.152026e+01	-6.160963e+01	1.131299e+02	1.858063e+02	-1.250389e+02	3.108452e+02	-2.179420e+02	-8.736976e+01	2.422583e+01	-7.942818e-18	2.422583e+01	-2.422583e+01
133           	5.173369e+01	-6.233361e+01	1.140673e+02	1.875730e+02	-1.246903e+02	3.122633e+02	-2.184768e+02	-8.820045e+01	2.432619e+01	-7.972960e-18	2.432619e+01	-2.432619e+01
134           	5.199353e+01	-6.307964e+01	1.150732e+02	1.894358e+02	-1.246719e+02	3.141077e+02	-2.193898e+02	-8.907641e+01	2.444837e+01	-8.025358e-18	2.444837e+01	-2.444837e+01
135           	5.236365e+01	-6.383218e+01	1.161958e+02	1.914298e+02	-1.251244e+02	3.165542e+02	-2.208393e+02	-9.001400e+01	2.462241e+01	-8.038042e-18	2.462241e+01	-2.462241e+01
136           	5.281296e+01	-6.462957e+01	1.174425e+02	1.936033e+02	-1.260595e+02	3.196629e+02	-2.228612e+02	-9.103605e+01	2.483368e+01	-8.075056e-18	2.483368e+01	-2.483368e+01
137           	5.339815e+01	-6.545642e+01	1.188546e+02	1.959840e+02	-1.275820e+02	3.235661e+02	-2.255741e+02	-9.215550e+01	2.510885e+01	-8.084613e-18	2.510885e+01	-2.510885e+01
138           	5.408470e+01	-6.634764e+01	1.204323e+02	1.986094e+02	-1.296642e+02	3.282735e+02	-2.289688e+02	-9.338999e+01	2.543168e+01	-8.126861e-18	2.543168e+01	-2.543168e+01
139           	5.491091e+01	-6.727303e+01	1.221839e+02	2.014559e+02	-1.323135e+02	3.337694e+02	-2.330415e+02	-9.472848e+01	2.582018e+01	-8.141867e-18	2.582018e+01	-2.582018e+01
140           	5.582074e+01	-6.824114e+01	1.240619e+02	2.044822e+02	-1.353936e+02	3.398758e+02	-2.376347e+02	-9.615151e+01	2.624800e+01	-8.188735e-18	2.624800e+01	-2.624800e+01
141           	5.683906e+01	-6.920514e+01	1.260442e+02	2.076151e+02	-1.388631e+02	3.464783e+02	-2.426707e+02	-9.762467e+01	2.672683e+01	-8.197101e-18	2.672683e+01	-2.672683e+01
142           	5.791279e+01	-7.017677e+01	1.280896e+02	2.108232e+02	-1.426133e+02	3.534365e+02	-2.480249e+02	-9.913317e+01	2.723172e+01	-8.233281e-18	2.723172e+01	-2.723172e+01
143           	5.907688e+01	-7.112218e+01	1.301991e+02	2.140716e+02	-1.466605e+02	3.607320e+02	-2.536962e+02	-1.006606e+02	2.777910e+01	-8.226889e-18	2.777910e+01	-2.777910e+01
144           	6.028592e+01	-7.206240e+01	1.323483e+02	2.173567e+02	-1.509381e+02	3.682948e+02	-2.596165e+02	-1.022054e+02	2.834761e+01	-8.247751e-18	2.834761e+01	-2.834761e+01
145           	6.157423e+01	-7.296307e+01	1.345373e+02	2.206421e+02	-1.554624e+02	3.761045e+02	-2.657835e+02	-1.037502e+02	2.895340e+01	-8.219866e-18	2.895340e+01	-2.895340e+01
146           	6.289028e+01	-7.383840e+01	1.367287e+02	2.239030e+02	-1.601329e+02	3.840359e+02	-2.720844e+02	-1.052835e+02	2.957223e+01	-8.217914e-18	2.957223e+01	-2.957223e+01
147           	6.425632e+01	-7.464560e+01	1.389019e+02	2.270722e+02	-1.649147e+02	3.919869e+02	-2.784508e+02	-1.067738e+02	3.021457e+01	-8.163028e-18	3.021457e+01	-3.021457e+01
148           	6.560950e+01	-7.539072e+01	1.410002e+02	2.300957e+02	-1.696655e+02	3.997612e+02	-2.847134e+02	-1.081955e+02	3.085086e+01	-8.132953e-18	3.085086e+01	-3.085086e+01
149           	6.696975e+01	-7.603136e+01	1.430011e+02	2.329045e+02	-1.743491e+02	4.072536e+02	-2.908013e+02	-1.095162e+02	3.149048e+01	-8.045625e-18	3.149048e+01	-3.149048e+01
150           	6.828197e+01	-7.657993e+01	1.448619e+02	2.354665e+02	-1.788606e+02	4.143271e+02	-2.965939e+02	-1.107209e+02	3.210751e+01	-7.980036e-18	3.210751e+01	-3.210751e+01
151           	6.957440e+01	-7.700202e+01	1.465764e+02	2.377384e+02	-1.832075e+02	4.209459e+02	-3.020767e+02	-1.117892e+02	3.271524e+01	-7.854010e-18	3.271524e+01	-3.271524e+01
152           	7.079331e+01	-7.731643e+01	1.481097e+02	2.397032e+02	-1.873089e+02	4.270120e+02	-3.071604e+02	-1.127131e+02	3.328839e+01	-7.755052e-18	3.328839e+01	-3.328839e+01
153           	7.196779e+01	-7.749071e+01	1.494585e+02	2.413227e+02	-1.911848e+02	4.325075e+02	-3.118461e+02	-1.134746e+02	3.384065e+01	-7.600843e-18	3.384065e+01	-3.384065e+01
154           	7.304977e+01	-7.754769e+01	1.505975e+02	2.425943e+02	-1.947795e+02	4.373738e+02	-3.160766e+02	-1.140726e+02	3.434942e+01	-7.484077e-18	3.434942e+01	-3.434942e+01
155           	7.408310e+01	-7.746104e+01	1.515441e+02	2.435088e+02	-1.981658e+02	4.416746e+02	-3.199202e+02	-1.145026e+02	3.483531e+01	-7.314609e-18	3.483531e+01	-3.483531e+01
156           	7.501996e+01	-7.725636e+01	1.522763e+02	2.440697e+02	-2.012893e+02	4.453590e+02	-3.233242e+02	-1.147663e+02	3.527584e+01	-7.190785e-18	3.527584e+01	-3.527584e+01
157           	7.590152e+01	-7.690870e+01	1.528102e+02	2.442678e+02	-2.042063e+02	4.484741e+02	-3.263402e+02	-1.148595e+02	3.569037e+01	-7.023242e-18	3.569037e+01	-3.569037e+01
158           	7.668446e+01	-7.645073e+01	1.531352e+02	2.441264e+02	-2.068867e+02	4.510131e+02	-3.289499e+02	-1.147930e+02	3.605852e+01	-6.906225e-18	3.605852e+01	-3.605852e+01
159           	7.740532e+01	-7.585938e+01	1.532647e+02	2.436353e+02	-2.093557e+02	4.529910e+02	-3.311734e+02	-1.145620e+02	3.639748e+01	-6.750146e-18	3.639748e+01	-3.639748e+01
160           	7.800084e+01	-7.515728e+01	1.531581e+02	2.427754e+02	-2.114922e+02	4.542676e+02	-3.328799e+02	-1.141577e+02	3.667751e+01	-6.643962e-18	3.667751e+01	-3.667751e+01
161           	7.848531e+01	-7.430772e+01	1.527930e+02	2.414838e+02	-2.132288e+02	4.547126e+02	-3.339707e+02	-1.135504e+02	3.690532e+01	-6.496960e-18	3.690532e+01	-3.690532e+01
162           	7.879422e+01	-7.332445e+01	1.521187e+02	2.397212e+02	-2.144483e+02	4.541695e+02	-3.343089e+02	-1.127216e+02	3.705057e+01	-6.395048e-18	3.705057e+01	-3.705057e+01
163           	7.895783e+01	-7.217564e+01	1.511335e+02	2.374520e+02	-2.151341e+02	4.525862e+02	-3.338602e+02	-1.116546e+02	3.712751e+01	-6.253539e-18	3.712751e+01	-3.712751e+01
164           	7.897009e+01	-7.091383e+01	1.498839e+02	2.347816e+02	-2.153818e+02	4.501634e+02	-3.327726e+02	-1.103989e+02	3.713327e+01	-6.174225e-18	3.713327e+01	-3.713327e+01
165           	7.890467e+01	-6.955462e+01	1.484593e+02	2.318215e+02	-2.153222e+02	4.471437e+02	-3.312330e+02	-1.090070e+02	3.710251e+01	-6.066920e-18	3.710251e+01	-3.710251e+01