# Force and moment coefficients
# dragDir     : (9.876883e-01 1.564345e-01 0.000000e+00)
# sideDir     : (0.000000e+00 0.000000e+00 -1.000000e+00)
# liftDir     : (-1.564345e-01 9.876883e-01 0.000000e+00)
# rollAxis    : (9.876883e-01 1.564345e-01 0.000000e+00)
# pitchAxis   : (0.000000e+00 0.000000e+00 -1.000000e+00)
# yawAxis     : (-1.564345e-01 9.876883e-01 0.000000e+00)
# magUInf     : 1.000000e+00
# lRef        : 3.190000e-01
# Aref        : 1.595000e-03
# CofR        : (0.000000e+00 0.000000e+00 0.000000e+00)
#
# Time        	Cd            	Cd(f)         	Cd(r)         	Cl            	Cl(f)         	Cl(r)         	CmPitch       	CmRoll        	CmYaw         	Cs            	Cs(f)         	Cs(r)         
1             	1.936061e+02	-1.761726e+02	3.697786e+02	5.805281e+02	-7.519178e+02	1.332446e+03	-1.042182e+03	-2.729756e+02	9.103733e+01	9.247325e-18	9.103733e+01	-9.103733e+01
2             	1.387759e+02	-1.870413e+02	3.258171e+02	5.453394e+02	-6.359556e+02	1.181295e+03	-9.086253e+02	-2.564292e+02	6.525510e+01	-1.357631e-18	6.525510e+01	-6.525510e+01
3             	6.262980e+00	-7.487703e+01	8.114001e+01	1.658981e+02	-7.220485e+01	2.381030e+02	-1.551539e+02	-7.800852e+01	2.944975e+00	-1.336386e-17	2.944975e+00	-2.944975e+00
4             	-4.996108e+01	4.041826e+01	-9.037933e+01	-1.390814e+02	3.194253e+02	-4.585068e+02	3.889661e+02	6.539880e+01	-2.349267e+01	-1.033795e-17	-2.349267e+01	2.349267e+01
5             	-3.558829e+01	5.436990e+01	-8.995819e+01	-1.534689e+02	2.788320e+02	-4.323008e+02	3.555664e+02	7.216404e+01	-1.673431e+01	-5.847623e-18	-1.673431e+01	1.673431e+01
6             	1.918147e+00	-9.126845e+00	1.104499e+01	2.144939e+01	-1.966109e+01	4.111047e+01	-3.038578e+01	-1.008592e+01	9.019501e-01	-7.191828e-18	9.019501e-01	-9.019501e-01
7             	2.949055e+01	-7.641658e+01	1.059071e+02	1.938709e+02	-2.471178e+02	4.409886e+02	-3.440532e+02	-9.116185e+01	1.386703e+01	-1.118646e-17	1.386703e+01	-1.386703e+01
8             	3.725797e+01	-9.694513e+01	1.342031e+02	2.457876e+02	-2.717828e+02	5.175704e+02	-3.946766e+02	-1.155741e+02	1.751942e+01	-1.138281e-17	1.751942e+01	-1.751942e+01
9             	3.364972e+01	-8.250975e+01	1.161595e+02	2.112516e+02	-1.721666e+02	3.834182e+02	-2.777924e+02	-9.933461e+01	1.582275e+01	-8.982408e-18	1.582275e+01	-1.582275e+01
10            	2.223538e+01	-5.647715e+01	7.871253e+01	1.437517e+02	-5.982365e+01	2.035753e+02	-1.316995e+02	-6.759484e+01	1.045551e+01	-6.788333e-18	1.045551e+01	-1.045551e+01
11            	1.165266e+01	-3.877532e+01	5.042798e+01	9.485285e+01	8.386386e-01	9.401421e+01	-4.658778e+01	-4.460165e+01	5.479310e+00	-6.429804e-18	5.479310e+00	-5.479310e+00
12            	8.506020e+00	-3.687871e+01	4.538473e+01	8.747346e+01	-7.293715e+00	9.476717e+01	-5.103044e+01	-4.113172e+01	3.999696e+00	-7.440785e-18	3.999696e+00	-3.999696e+00
13            	1.079065e+01	-4.480879e+01	5.559945e+01	1.067674e+02	-4.957915e+01	1.563466e+02	-1.029629e+02	-5.020412e+01	5.073974e+00	-8.773220e-18	5.073974e+00	-5.073974e+00
14            	1.505343e+01	-5.540503e+01	7.045846e+01	1.338348e+02	-9.365827e+01	2.274931e+02	-1.605757e+02	-6.293174e+01	7.078414e+00	-9.733117e-18	7.078414e+00	-7.078414e+00
15            	1.848101e+01	-6.256585e+01	8.104687e+01	1.527082e+02	-1.159486e+02	2.686568e+02	-1.923027e+02	-7.180636e+01	8.690132e+00	-9.946387e-18	8.690132e+00	-8.690132e+00
16            	2.024259e+01	-6.463812e+01	8.488071e+01	1.589884e+02	-1.130644e+02	2.720528e+02	-1.925586e+02	-7.475942e+01	9.518461e+00	-9.610722e-18	9.518461e+00	-9.518461e+00
17            	2.027992e+01	-6.268307e+01	8.296298e+01	1.548703e+02	-9.301224e+01	2.478825e+02	-1.704474e+02	-7.282302e+01	9.536011e+00	-9.049618e-18	9.536011e+00	-9.536011e+00
18            	1.792500e+01	-5.841201e+01	7.633701e+01	1.432831e+02	-6.669704e+01	2.099802e+02	-1.383386e+02	-6.737451e+01	8.428683e+00	-8.512468e-18	8.428683e+00	-8.428683e+00
19            	1.407661e+01	-5.420313e+01	6.827974e+01	1.302401e+02	-4.615517e+01	1.763953e+02	-1.112752e+02	-6.124144e+01	6.619095e+00	-8.288112e-18	6.619095e+00	-6.619095e+00
20            	1.041973e+01	-5.184549e+01	6.226522e+01	1.213377e+02	-3.836812e+01	1.597058e+02	-9.903698e+01	-5.705535e+01	4.899562e+00	-8.266377e-18	4.899562e+00	-4.899562e+00
21            	9.174679e+00	-5.283589e+01	6.201057e+01	1.221201e+02	-4.652361e+01	1.686437e+02	-1.075836e+02	-5.742323e+01	4.314112e+00	-8.462263e-18	4.314112e+00	-4.314112e+00
22            	1.080862e+01	-5.658447e+01	6.739309e+01	1.318295e+02	-6.336722e+01	1.951967e+02	-1.292820e+02	-6.198878e+01	5.082424e+00	-8.804329e-18	5.082424e+00	-5.082424e+00
23            	1.359909e+01	-6.060870e+01	7.420780e+01	1.433549e+02	-7.602416e+01	2.193790e+02	-1.477016e+02	-6.740825e+01	6.394558e+00	-9.115934e-18	6.394558e+00	-6.394558e+00
24            	1.543995e+01	-6.242576e+01	7.786571e+01	1.491766e+02	-7.517739e+01	2.243540e+02	-1.497657e+02	-7.014573e+01	7.260162e+00	-9.214391e-18	7.260162e+00	-7.260162e+00
25            	1.469389e+01	-6.055010e+01	7.524399e+01	1.443944e+02	-5.846071e+01	2.028551e+02	-1.306579e+02	-6.789704e+01	6.909354e+00	-8.928430e-18	6.909354e+00	-6.909354e+00
26            	1.173586e+01	-5.632914e+01	6.806500e+01	1.322724e+02	-3.555228e+01	1.678247e+02	-1.016885e+02	-6.219707e+01	5.518430e+00	-8.526457e-18	5.518430e+00	-5.518430e+00
27            	8.538255e+00	-5.273505e+01	6.127331e+01	1.212289e+02	-1.981967e+01	1.410486e+02	-8.043411e+01	-5.700418e+01	4.014853e+00	-8.350484e-18	4.014853e+00	-4.014853e+00
28            	6.732883e+00	-5.181329e+01	5.854617e+01	1.173489e+02	-1.826886e+01	1.356178e+02	-7.694331e+01	-5.517973e+01	3.165932e+00	-8.157027e-18	3.165932e+00	-3.165932e+00
29            	7.095957e+00	-5.411508e+01	6.121103e+01	1.226301e+02	-3.018097e+01	1.528111e+02	-9.149602e+01	-5.766306e+01	3.336657e+00	-8.212881e-18	3.336657e+00	-3.336657e+00
30            	9.033322e+00	-5.808966e+01	6.712298e+01	1.331428e+02	-4.673769e+01	1.798805e+02	-1.133091e+02	-6.260632e+01	4.247644e+00	-8.450044e-18	4.247644e+00	-4.247644e+00
31            	1.098405e+01	-6.139810e+01	7.238214e+01	1.422530e+02	-5.761050e+01	1.998635e+02	-1.287370e+02	-6.689012e+01	5.164913e+00	-8.732131e-18	5.164913e+00	-5.164913e+00
32            	1.197405e+01	-6.287078e+01	7.484483e+01	1.464376e+02	-5.894349e+01	2.053811e+02	-1.321623e+02	-6.885780e+01	5.630431e+00	-9.009210e-18	5.630431e+00	-5.630431e+00
33            	1.163692e+01	-6.237384e+01	7.401076e+01	1.450223e+02	-5.170262e+01	1.967249e+02	-1.242138e+02	-6.819230e+01	5.471904e+00	-9.258330e-18	5.471904e+00	-5.471904e+00
34            	1.035228e+01	-6.072481e+01	7.107708e+01	1.401493e+02	-4.123769e+01	1.813870e+02	-1.113124e+02	-6.590095e+01	4.867841e+00	-9.321998e-18	4.867841e+00	-4.867841e+00
35            	9.047897e+00	-5.937057e+01	6.841846e+01	1.358823e+02	-3.436422e+01	1.702466e+02	-1.023054e+02	-6.389452e+01	4.254497e+00	-9.355283e-18	4.254497e+00	-4.254497e+00
36            	8.402543e+00	-5.914195e+01	6.754449e+01	1.347099e+02	-3.411372e+01	1.688236e+02	-1.014687e+02	-6.334322e+01	3.951039e+00	-9.359012e-18	3.951039e+00	-3.951039e+00
37            	8.604323e+00	-6.019585e+01	6.880017e+01	1.371658e+02	-3.984949e+01	1.770153e+02	-1.084324e+02	-6.449801e+01	4.045920e+00	-9.343371e-18	4.045920e+00	-4.045920e+00
38            	9.550027e+00	-6.229933e+01	7.184936e+01	1.426448e+02	-4.930923e+01	1.919540e+02	-1.206316e+02	-6.707435e+01	4.490608e+00	-9.306316e-18	4.490608e+00	-4.490608e+00
39            	1.069134e+01	-6.467359e+01	7.536493e+01	1.489076e+02	-5.812881e+01	2.070364e+02	-1.325826e+02	-7.001926e+01	5.027276e+00	-9.282069e-18	5.027276e+00	-5.027276e+00
40            	1.144465e+01	-6.640380e+01	7.784846e+01	1.533882e+02	-6.266250e+01	2.160507e+02	-1.393566e+02	-7.212613e+01	5.381498e+00	-9.287706e-18	5.381498e+00	-5.381498e+00
41            	1.160120e+01	-6.720502e+01	7.880622e+01	1.552586e+02	-6.257297e+01	2.178316e+02	-1.402023e+02	-7.300562e+01	5.455108e+00	-9.347163e-18	5.455108e+00	-5.455108e+00
42            	1.122648e+01	-6.710304e+01	7.832952e+01	1.546433e+02	-5.902723e+01	2.136705e+02	-1.363489e+02	-7.271628e+01	5.278910e+00	-9.446611e-18	5.278910e+00	-5.278910e+00
43            	1.057009e+01	-6.645245e+01	7.702254e+01	1.525617e+02	-5.416613e+01	2.067279e+02	-1.304470e+02	-7.173750e+01	4.970264e+00	-9.563763e-18	4.970264e+00	-4.970264e+00
44            	1.000433e+01	-6.586269e+01	7.586702e+01	1.507059e+02	-5.063737e+01	2.013433e+02	-1.259903e+02	-7.086485e+01	4.704232e+00	-9.654353e-18	4.704232e+00	-4.704232e+00
45            	9.703134e+00	-6.572043e+01	7.542356e+01	1.500831e+02	-4.936702e+01	1.994501e+02	-1.244086e+02	-7.057199e+01	4.562602e+00	-9.713586e-18	4.562602e+00	-4.562602e+00
46            	9.662615e+00	-6.607717e+01	7.573979e+01	1.507987e+02	-5.000286e+01	2.008016e+02	-1.254022e+02	-7.090848e+01	4.543549e+00	-9.755495e-18	4.543549e+00	-4.543549e+00
47            	9.761804e+00	-6.677207e+01	7.653388e+01	1.523820e+02	-5.154585e+01	2.039278e+02	-1.277368e+02	-7.165297e+01	4.590190e+00	-9.790941e-18	4.590190e+00	-4.590190e+00
48            	9.876793e+00	-6.751540e+01	7.739220e+01	1.540851e+02	-5.302517e+01	2.071102e+02	-1.300677e+02	-7.245380e+01	4.644260e+00	-9.829694e-18	4.644260e+00	-4.644260e+00
49            	9.932760e+00	-6.813943e+01	7.807219e+01	1.554717e+02	-5.397347e+01	2.094451e+02	-1.317093e+02	-7.310581e+01	4.670577e+00	-9.880946e-18	4.670577e+00	-4.670577e+00
50            	9.939941e+00	-6.859083e+01	7.853077e+01	1.564393e+02	-5.451415e+01	2.109535e+02	-1.327338e+02	-7.356080e+01	4.673953e+00	-9.945660e-18	4.673953e+00	-4.673953e+00
51            	9.923202e+00	-6.894441e+01	7.886762e+01	1.571735e+02	-5.493671e+01	2.121102e+02	-1.335234e+02	-7.390602e+01	4.666083e+00	-1.001613e-17	4.666083e+00	-4.666083e+00
52            	9.925419e+00	-6.929023e+01	7.921565e+01	1.579113e+02	-5.556774e+01	2.134790e+02	-1.345234e+02	-7.425294e+01	4.667125e+00	-1.008723e-17	4.667125e+00	-4.667125e+00
53            	9.942268e+00	-6.968973e+01	7.963200e+01	1.587788e+02	-5.639472e+01	2.151735e+02	-1.357841e+02	-7.466086e+01	4.675048e+00	-1.015230e-17	4.675048e+00	-4.675048e+00
54            	9.968789e+00	-7.011468e+01	8.008347e+01	1.597107e+02	-5.724524e+01	2.169559e+02	-1.371006e+02	-7.509908e+01	4.687518e+00	-1.021684e-17	4.687518e+00	-4.687518e+00
55            	9.973950e+00	-7.052267e+01	8.049662e+01	1.605839e+02	-5.780049e+01	2.183843e+02	-1.380924e+02	-7.550965e+01	4.689945e+00	-1.027535e-17	4.689945e+00	-4.689945e+00
56            	9.951444e+00	-7.085213e+01	8.080358e+01	1.612606e+02	-5.792208e+01	2.191826e+02	-1.385524e+02	-7.582785e+01	4.679362e+00	-1.033563e-17	4.679362e+00	-4.679362e+00
57            	9.887743e+00	-7.109015e+01	8.097789e+01	1.616990e+02	-5.758808e+01	2.192871e+02	-1.384376e+02	-7.603402e+01	4.649409e+00	-1.038577e-17	4.649409e+00	-4.649409e+00
58            	9.800595e+00	-7.123549e+01	8.103609e+01	1.619154e+02	-5.704384e+01	2.189593e+02	-1.380016e+02	-7.613579e+01	4.608430e+00	-1.043510e-17	4.608430e+00	-4.608430e+00
59            	9.697153e+00	-7.135304e+01	8.105019e+01	1.620554e+02	-5.654601e+01	2.186014e+02	-1.375737e+02	-7.620161e+01	4.559790e+00	-1.047353e-17	4.559790e+00	-4.559790e+00
60            	9.619094e+00	-7.150144e+01	8.112054e+01	1.622880e+02	-5.640118e+01	2.186892e+02	-1.375452e+02	-7.631099e+01	4.523085e+00	-1.052227e-17	4.523085e+00	-4.523085e+00
61            	9.577927e+00	-7.173809e+01	8.131602e+01	1.627475e+02	-5.669278e+01	2.194403e+02	-1.380665e+02	-7.652705e+01	4.503727e+00	-1.056933e-17	4.503727e+00	-4.503727e+00
62            	9.590627e+00	-7.204080e+01	8.163143e+01	1.634048e+02	-5.732377e+01	2.207286e+02	-1.390262e+02	-7.683611e+01	4.509699e+00	-1.063816e-17	4.509699e+00	-4.509699e+00
63            	9.629937e+00	-7.239729e+01	8.202722e+01	1.642047e+02	-5.807339e+01	2.222781e+02	-1.401758e+02	-7.721225e+01	4.528183e+00	-1.070225e-17	4.528183e+00	-4.528183e+00
64            	9.686074e+00	-7.275006e+01	8.243613e+01	1.650146e+02	-5.877512e+01	2.237898e+02	-1.412824e+02	-7.759309e+01	4.554580e+00	-1.078426e-17	4.554580e+00	-4.554580e+00
65            	9.706921e+00	-7.305884e+01	8.276576e+01	1.656935e+02	-5.921582e+01	2.249093e+02	-1.420626e+02	-7.791230e+01	4.564383e+00	-1.084040e-17	4.564383e+00	-4.564383e+00
66            	9.693551e+00	-7.328393e+01	8.297748e+01	1.661580e+02	-5.940168e+01	2.255596e+02	-1.424807e+02	-7.813071e+01	4.558096e+00	-1.085705e-17	4.558096e+00	-4.558096e+00
67            	9.641051e+00	-7.346966e+01	8.311071e+01	1.664971e+02	-5.944058e+01	2.259377e+02	-1.426891e+02	-7.829019e+01	4.533409e+00	-1.095871e-17	4.533409e+00	-4.533409e+00
68            	9.594520e+00	-7.363001e+01	8.322453e+01	1.667887e+02	-5.949091e+01	2.262796e+02	-1.428852e+02	-7.842727e+01	4.511530e+00	-1.083539e-17	4.511530e+00	-4.511530e+00
69            	9.558362e+00	-7.381244e+01	8.337080e+01	1.671382e+02	-5.961898e+01	2.267572e+02	-1.431881e+02	-7.859162e+01	4.494528e+00	-1.095580e-17	4.494528e+00	-4.494528e+00
70            	9.562746e+00	-7.399930e+01	8.356205e+01	1.675402e+02	-5.984312e+01	2.273833e+02	-1.436132e+02	-7.878067e+01	4.496589e+00	-1.084301e-17	4.496589e+00	-4.496589e+00
71            	9.574789e+00	-7.420666e+01	8.378145e+01	1.679940e+02	-6.008663e+01	2.280806e+02	-1.440836e+02	-7.899405e+01	4.502252e+00	-1.096380e-17	4.502252e+00	-4.502252e+00
72            	9.592843e+00	-7.439046e+01	8.398330e+01	1.684041e+02	-6.028085e+01	2.286849e+02	-1.444829e+02	-7.918688e+01	4.510741e+00	-1.087230e-17	4.510741e+00	-4.510741e+00
73            	9.572087e+00	-7.456080e+01	8.413289e+01	1.687443e+02	-6.036192e+01	2.291062e+02	-1.447341e+02	-7.934685e+01	4.500981e+00	-1.097687e-17	4.500981e+00	-4.500981e+00
74            	9.537125e+00	-7.469419e+01	8.423131e+01	1.689908e+02	-6.037389e+01	2.293647e+02	-1.448693e+02	-7.946275e+01	4.484541e+00	-1.088098e-17	4.484541e+00	-4.484541e+00
75            	9.479648e+00	-7.483680e+01	8.431645e+01	1.692330e+02	-6.039082e+01	2.296238e+02	-1.450073e+02	-7.957662e+01	4.457515e+00	-1.096731e-17	4.457515e+00	-4.457515e+00
76            	9.448444e+00	-7.496966e+01	8.441810e+01	1.694823e+02	-6.047571e+01	2.299580e+02	-1.452169e+02	-7.969388e+01	4.442842e+00	-1.087504e-17	4.442842e+00	-4.442842e+00
77            	9.430580e+00	-7.512709e+01	8.455767e+01	1.697981e+02	-6.064833e+01	2.304465e+02	-1.455474e+02	-7.984238e+01	4.434442e+00	-1.095673e-17	4.434442e+00	-4.434442e+00
78            	9.451629e+00	-7.527371e+01	8.472534e+01	1.701323e+02	-6.087763e+01	2.310100e+02	-1.459438e+02	-7.999953e+01	4.444340e+00	-1.088534e-17	4.444340e+00	-4.444340e+00
79            	9.467624e+00	-7.543804e+01	8.490566e+01	1.704988e+02	-6.112297e+01	2.316218e+02	-1.463724e+02	-8.017185e+01	4.451861e+00	-1.097624e-17	4.451861e+00	-4.451861e+00
80            	9.485867e+00	-7.557422e+01	8.506009e+01	1.708078e+02	-6.130923e+01	2.321170e+02	-1.467131e+02	-8.031716e+01	4.460439e+00	-1.091559e-17	4.460439e+00	-4.460439e+00
81            	9.464048e+00	-7.571225e+01	8.517630e+01	1.710782e+02	-6.142459e+01	2.325027e+02	-1.469637e+02	-8.044428e+01	4.450180e+00	-1.099321e-17	4.450180e+00	-4.450180e+00
82            	9.439069e+00	-7.582030e+01	8.525937e+01	1.712814e+02	-6.148120e+01	2.327626e+02	-1.471219e+02	-8.053983e+01	4.438434e+00	-1.092959e-17	4.438434e+00	-4.438434e+00
83            	9.395853e+00	-7.594262e+01	8.533847e+01	1.714956e+02	-6.154318e+01	2.330387e+02	-1.472910e+02	-8.064055e+01	4.418113e+00	-1.099609e-17	4.418113e+00	-4.418113e+00
84            	9.382152e+00	-7.604384e+01	8.542600e+01	1.716963e+02	-6.161925e+01	2.333155e+02	-1.474674e+02	-8.073492e+01	4.411670e+00	-1.093424e-17	4.411670e+00	-4.411670e+00
85            	9.370164e+00	-7.616034e+01	8.553050e+01	1.719313e+02	-6.172957e+01	2.336608e+02	-1.476952e+02	-8.084542e+01	4.406033e+00	-1.099658e-17	4.406033e+00	-4.406033e+00
86            	9.387492e+00	-7.625597e+01	8.564347e+01	1.721531e+02	-6.184529e+01	2.339984e+02	-1.479218e+02	-8.094972e+01	4.414181e+00	-1.094619e-17	4.414181e+00	-4.414181e+00
87            	9.387925e+00	-7.636638e+01	8.575431e+01	1.723883e+02	-6.196055e+01	2.343489e+02	-1.481547e+02	-8.106035e+01	4.414385e+00	-1.101034e-17	4.414385e+00	-4.414385e+00
88            	9.391938e+00	-7.645083e+01	8.584277e+01	1.725722e+02	-6.203318e+01	2.346054e+02	-1.483193e+02	-8.114680e+01	4.416272e+00	-1.096525e-17	4.416272e+00	-4.416272e+00
89            	9.363698e+00	-7.654754e+01	8.591124e+01	1.727478e+02	-6.208535e+01	2.348332e+02	-1.484593e+02	-8.122939e+01	4.402993e+00	-1.101952e-17	4.402993e+00	-4.402993e+00
90            	9.346178e+00	-7.662437e+01	8.597055e+01	1.728926e+02	-6.212811e+01	2.350207e+02	-1.485744e+02	-8.129746e+01	4.394755e+00	-1.097314e-17	4.394755e+00	-4.394755e+00
91            	9.315876e+00	-7.671968e+01	8.603555e+01	1.730631e+02	-6.219504e+01	2.352581e+02	-1.487266e+02	-8.137761e+01	4.380506e+00	-1.101949e-17	4.380506e+00	-4.380506e+00
92            	9.314221e+00	-7.679338e+01	8.610761e+01	1.732181e+02	-6.226843e+01	2.354865e+02	-1.488775e+02	-8.145050e+01	4.379728e+00	-1.097484e-17	4.379728e+00	-4.379728e+00
93            	9.305168e+00	-7.688006e+01	8.618522e+01	1.733927e+02	-6.235221e+01	2.357450e+02	-1.490486e+02	-8.153264e+01	4.375471e+00	-1.101915e-17	4.375471e+00	-4.375471e+00
94            	9.317940e+00	-7.694349e+01	8.626143e+01	1.735412e+02	-6.242315e+01	2.359644e+02	-1.491938e+02	-8.160246e+01	4.381477e+00	-1.098112e-17	4.381477e+00	-4.381477e+00
95            	9.309063e+00	-7.702032e+01	8.632939e+01	1.736952e+02	-6.248663e+01	2.361818e+02	-1.493342e+02	-8.167486e+01	4.377303e+00	-1.102572e-17	4.377303e+00	-4.377303e+00
96            	9.309186e+00	-7.707509e+01	8.638427e+01	1.738118e+02	-6.252831e+01	2.363401e+02	-1.494342e+02	-8.172968e+01	4.377360e+00	-1.099008e-17	4.377360e+00	-4.377360e+00
97            	9.285219e+00	-7.714724e+01	8.643245e+01	1.739397e+02	-6.257414e+01	2.365139e+02	-1.495440e+02	-8.178985e+01	4.366090e+00	-1.103164e-17	4.366090e+00	-4.366090e+00
98            	9.278477e+00	-7.720278e+01	8.648126e+01	1.740507e+02	-6.262329e+01	2.366740e+02	-1.496486e+02	-8.184202e+01	4.362920e+00	-1.099445e-17	4.362920e+00	-4.362920e+00
99            	9.258372e+00	-7.727449e+01	8.653286e+01	1.741818e+02	-6.268478e+01	2.368666e+02	-1.497757e+02	-8.190368e+01	4.353466e+00	-1.103423e-17	4.353466e+00	-4.353466e+00
100           	9.261776e+00	-7.732228e+01	8.658406e+01	1.742871e+02	-6.273534e+01	2.370224e+02	-1.498789e+02	-8.195317e+01	4.355067e+00	-1.098622e-17	4.355067e+00	-4.355067e+00
101           	9.250975e+00	-7.738183e+01	8.663281e+01	1.744022e+02	-6.278207e+01	2.371843e+02	-1.499832e+02	-8.200732e+01	4.349988e+00	-1.102810e-17	4.349988e+00	-4.349988e+00
102           	9.258472e+00	-7.741877e+01	8.667725e+01	1.744888e+02	-6.281290e+01	2.373017e+02	-1.500573e+02	-8.204801e+01	4.353513e+00	-1.098055e-17	4.353513e+00	-4.353513e+00
103           	9.245824e+00	-7.747222e+01	8.671804e+01	1.745890e+02	-6.284623e+01	2.374352e+02	-1.501407e+02	-8.209513e+01	4.347566e+00	-1.102262e-17	4.347566e+00	-4.347566e+00
104           	9.245516e+00	-7.750385e+01	8.674936e+01	1.746559e+02	-6.286238e+01	2.375183e+02	-1.501903e+02	-8.212661e+01	4.347421e+00	-1.097716e-17	4.347421e+00	-4.347421e+00
105           	9.225471e+00	-7.755482e+01	8.678029e+01	1.747430e+02	-6.289131e+01	2.376343e+02	-1.502628e+02	-8.216755e+01	4.337996e+00	-1.101524e-17	4.337996e+00	-4.337996e+00
106           	9.224383e+00	-7.758754e+01	8.681193e+01	1.748114e+02	-6.292081e+01	2.377322e+02	-1.503265e+02	-8.219974e+01	4.337484e+00	-1.097073e-17	4.337484e+00	-4.337484e+00
107           	9.209108e+00	-7.763694e+01	8.684605e+01	1.749002e+02	-6.296217e+01	2.378624e+02	-1.504123e+02	-8.224149e+01	4.330301e+00	-1.100658e-17	4.330301e+00	-4.330301e+00
108           	9.213252e+00	-7.766115e+01	8.687440e+01	1.749561e+02	-6.298320e+01	2.379393e+02	-1.504613e+02	-8.226778e+01	4.332250e+00	-1.096455e-17	4.332250e+00	-4.332250e+00
109           	9.201547e+00	-7.770027e+01	8.690181e+01	1.750269e+02	-6.300591e+01	2.380328e+02	-1.505194e+02	-8.230104e+01	4.326746e+00	-1.100001e-17	4.326746e+00	-4.326746e+00
110           	9.208076e+00	-7.771913e+01	8.692720e+01	1.750739e+02	-6.302009e+01	2.380940e+02	-1.505571e+02	-8.232316e+01	4.329816e+00	-1.096055e-17	4.329816e+00	-4.329816e+00
111           	9.194364e+00	-7.775479e+01	8.694915e+01	1.751352e+02	-6.303624e+01	2.381714e+02	-1.506038e+02	-8.235197e+01	4.323369e+00	-1.099524e-17	4.323369e+00	-4.323369e+00
112           	9.195742e+00	-7.777102e+01	8.696676e+01	1.751712e+02	-6.304417e+01	2.382153e+02	-1.506298e+02	-8.236889e+01	4.324017e+00	-1.095655e-17	4.324017e+00	-4.324017e+00
113           	9.178818e+00	-7.780450e+01	8.698331e+01	1.752244e+02	-6.305991e+01	2.382843e+02	-1.506721e+02	-8.239391e+01	4.316059e+00	-1.098850e-17	4.316059e+00	-4.316059e+00
114           	9.181249e+00	-7.781949e+01	8.700074e+01	1.752588e+02	-6.307629e+01	2.383351e+02	-1.507057e+02	-8.241011e+01	4.317202e+00	-1.094994e-17	4.317202e+00	-4.317202e+00
115           	9.167770e+00	-7.784901e+01	8.701678e+01	1.753073e+02	-6.309389e+01	2.384012e+02	-1.507475e+02	-8.243290e+01	4.310863e+00	-1.098132e-17	4.310863e+00	-4.310863e+00
116           	9.174347e+00	-7.785776e+01	8.703211e+01	1.753329e+02	-6.310361e+01	2.384365e+02	-1.507701e+02	-8.244494e+01	4.313956e+00	-1.094513e-17	4.313956e+00	-4.313956e+00
117           	9.163767e+00	-7.788254e+01	8.704631e+01	1.753743e+02	-6.311606e+01	2.384904e+02	-1.508032e+02	-8.246442e+01	4.308982e+00	-1.097658e-17	4.308982e+00	-4.308982e+00
118           	9.170407e+00	-7.788717e+01	8.705757e+01	1.753912e+02	-6.311926e+01	2.385105e+02	-1.508149e+02	-8.247237e+01	4.312104e+00	-1.094238e-17	4.312104e+00	-4.312104e+00
119           	9.157308e+00	-7.790909e+01	8.706640e+01	1.754239e+02	-6.312568e+01	2.385496e+02	-1.508377e+02	-8.248775e+01	4.305944e+00	-1.097269e-17	4.305944e+00	-4.305944e+00
120           	9.160374e+00	-7.791151e+01	8.707189e+01	1.754323e+02	-6.312341e+01	2.385558e+02	-1.508396e+02	-8.249170e+01	4.307386e+00	-1.093803e-17	4.307386e+00	-4.307386e+00
121           	9.145407e+00	-7.793154e+01	8.707695e+01	1.754590e+02	-6.312947e+01	2.385885e+02	-1.508590e+02	-8.250425e+01	4.300348e+00	-1.096599e-17	4.300348e+00	-4.300348e+00
122           	9.149519e+00	-7.793110e+01	8.708062e+01	1.754625e+02	-6.312860e+01	2.385911e+02	-1.508598e+02	-8.250586e+01	4.302282e+00	-1.093187e-17	4.302282e+00	-4.302282e+00
123           	9.138057e+00	-7.794711e+01	8.708517e+01	1.754843e+02	-6.313479e+01	2.386191e+02	-1.508769e+02	-8.251614e+01	4.296892e+00	-1.095988e-17	4.296892e+00	-4.296892e+00
124           	9.145834e+00	-7.794311e+01	8.708894e+01	1.754841e+02	-6.313329e+01	2.386174e+02	-1.508753e+02	-8.251603e+01	4.300549e+00	-1.092767e-17	4.300549e+00	-4.300549e+00
125           	9.136288e+00	-7.795599e+01	8.709227e+01	1.755013e+02	-6.313682e+01	2.386381e+02	-1.508875e+02	-8.252413e+01	4.296060e+00	-1.095620e-17	4.296060e+00	-4.296060e+00
126           	9.143273e+00	-7.794948e+01	8.709275e+01	1.754949e+02	-6.313058e+01	2.386255e+02	-1.508780e+02	-8.252111e+01	4.299345e+00	-1.092498e-17	4.299345e+00	-4.299345e+00
127           	9.130781e+00	-7.796014e+01	8.709092e+01	1.755043e+02	-6.312749e+01	2.386318e+02	-1.508796e+02	-8.252553e+01	4.293471e+00	-1.095239e-17	4.293471e+00	-4.293471e+00
128           	9.135358e+00	-7.795178e+01	8.708714e+01	1.754914e+02	-6.311713e+01	2.386085e+02	-1.508628e+02	-8.251946e+01	4.295623e+00	-1.092058e-17	4.295623e+00	-4.295623e+00
129           	9.121858e+00	-7.796005e+01	8.708191e+01	1.754946e+02	-6.311126e+01	2.386059e+02	-1.508586e+02	-8.252098e+01	4.289275e+00	-1.094669e-17	4.289275e+00	-4.289275e+00
130           	9.127686e+00	-7.794896e+01	8.707665e+01	1.754772e+02	-6.310089e+01	2.385781e+02	-1.508395e+02	-8.251280e+01	4.292015e+00	-1.091512e-17	4.292015e+00	-4.292015e+00
131           	9.116956e+00	-7.795451e+01	8.707146e+01	1.754776e+02	-6.309618e+01	2.385738e+02	-1.508350e+02	-8.251298e+01	4.286970e+00	-1.094115e-17	4.286970e+00	-4.286970e+00
132           	9.125467e+00	-7.794078e+01	8.706625e+01	1.754575e+02	-6.308590e+01	2.385434e+02	-1.508146e+02	-8.250351e+01	4.290972e+00	-1.091107e-17	4.290972e+00	-4.290972e+00
133           	9.116114e+00	-7.794424e+01	8.706036e+01	1.754549e+02	-6.307983e+01	2.385347e+02	-1.508073e+02	-8.250230e+01	4.286574e+00	-1.093764e-17	4.286574e+00	-4.286574e+00
134           	9.123878e+00	-7.792989e+01	8.705377e+01	1.754326e+02	-6.306766e+01	2.385003e+02	-1.507840e+02	-8.249183e+01	4.290225e+00	-1.090813e-17	4.290225e+00	-4.290225e+00
135           	9.112102e+00	-7.793153e+01	8.704363e+01	1.754236e+02	-6.305604e+01	2.384796e+02	-1.507678e+02	-8.248758e+01	4.284688e+00	-1.093415e-17	4.284688e+00	-4.284688e+00
136           	9.117926e+00	-7.791440e+01	8.703233e+01	1.753934e+02	-6.303825e+01	2.384316e+02	-1.507349e+02	-8.247337e+01	4.287426e+00	-1.090447e-17	4.287426e+00	-4.287426e+00
137           	9.105974e+00	-7.791465e+01	8.702063e+01	1.753812e+02	-6.302628e+01	2.384075e+02	-1.507169e+02	-8.246764e+01	4.281806e+00	-1.092938e-17	4.281806e+00	-4.281806e+00
138           	9.113374e+00	-7.789694e+01	8.701032e+01	1.753514e+02	-6.301164e+01	2.383630e+02	-1.506873e+02	-8.245363e+01	4.285286e+00	-1.089973e-17	4.285286e+00	-4.285286e+00
139           	9.102971e+00	-7.789564e+01	8.699861e+01	1.753376e+02	-6.299992e+01	2.383375e+02	-1.506687e+02	-8.244713e+01	4.280394e+00	-1.092479e-17	4.280394e+00	-4.280394e+00
140           	9.111628e+00	-7.787457e+01	8.698620e+01	1.753020e+02	-6.298123e+01	2.382832e+02	-1.506322e+02	-8.243039e+01	4.284464e+00	-1.089588e-17	4.284464e+00	-4.284464e+00
141           	9.102391e+00	-7.787096e+01	8.697335e+01	1.752844e+02	-6.296785e+01	2.382523e+02	-1.506101e+02	-8.242215e+01	4.280121e+00	-1.092125e-17	4.280121e+00	-4.280121e+00
142           	9.110776e+00	-7.784954e+01	8.696031e+01	1.752478e+02	-6.294982e+01	2.381976e+02	-1.505737e+02	-8.240493e+01	4.284064e+00	-1.089294e-17	4.284064e+00	-4.284064e+00
143           	9.100430e+00	-7.784719e+01	8.694762e+01	1.752318e+02	-6.293834e+01	2.381702e+02	-1.505542e+02	-8.239741e+01	4.279199e+00	-1.091809e-17	4.279199e+00	-4.279199e+00
144           	9.108106e+00	-7.782650e+01	8.693460e+01	1.751960e+02	-6.292052e+01	2.381165e+02	-1.505185e+02	-8.238055e+01	4.282808e+00	-1.088956e-17	4.282808e+00	-4.282808e+00
145           	9.096666e+00	-7.782047e+01	8.691713e+01	1.751710e+02	-6.290109e+01	2.380721e+02	-1.504866e+02	-8.236880e+01	4.277429e+00	-1.091419e-17	4.277429e+00	-4.277429e+00
146           	9.103929e+00	-7.779554e+01	8.689947e+01	1.751257e+02	-6.287680e+01	2.380025e+02	-1.504396e+02	-8.234750e+01	4.280844e+00	-1.088556e-17	4.280844e+00	-4.280844e+00
147           	9.094434e+00	-7.778935e+01	8.688379e+01	1.751024e+02	-6.286176e+01	2.379642e+02	-1.504130e+02	-8.233657e+01	4.276380e+00	-1.091019e-17	4.276380e+00	-4.276380e+00
148           	9.104115e+00	-7.776647e+01	8.687058e+01	1.750641e+02	-6.284525e+01	2.379093e+02	-1.503773e+02	-8.231852e+01	4.280932e+00	-1.088215e-17	4.280932e+00	-4.280932e+00
149           	9.095100e+00	-7.776016e+01	8.685526e+01	1.750411e+02	-6.283002e+01	2.378711e+02	-1.503505e+02	-8.230771e+01	4.276693e+00	-1.090729e-17	4.276693e+00	-4.276693e+00
150           	9.103842e+00	-7.773501e+01	8.683886e+01	1.749969e+02	-6.280732e+01	2.378042e+02	-1.503058e+02	-8.228693e+01	4.280803e+00	-1.087950e-17	4.280803e+00	-4.280803e+00
151           	9.093632e+00	-7.772677e+01	8.682040e+01	1.749685e+02	-6.278754e+01	2.377560e+02	-1.502718e+02	-8.227358e+01	4.276003e+00	-1.090452e-17	4.276003e+00	-4.276003e+00
152           	9.101746e+00	-7.770144e+01	8.680318e+01	1.749232e+02	-6.276550e+01	2.376887e+02	-1.502271e+02	-8.225231e+01	4.279818e+00	-1.087647e-17	4.279818e+00	-4.279818e+00
153           	9.091694e+00	-7.769421e+01	8.678591e+01	1.748972e+02	-6.274917e+01	2.376464e+02	-1.501978e+02	-8.224006e+01	4.275091e+00	-1.090134e-17	4.275091e+00	-4.275091e+00
154           	9.100418e+00	-7.766911e+01	8.676953e+01	1.748531e+02	-6.272826e+01	2.375814e+02	-1.501548e+02	-8.221932e+01	4.279193e+00	-1.087327e-17	4.279193e+00	-4.279193e+00
155           	9.090758e+00	-7.766025e+01	8.675101e+01	1.748240e+02	-6.270891e+01	2.375329e+02	-1.501209e+02	-8.220563e+01	4.274651e+00	-1.089816e-17	4.274651e+00	-4.274651e+00
156           	9.099641e+00	-7.763246e+01	8.673210e+01	1.747743e+02	-6.268342e+01	2.374577e+02	-1.500706e+02	-8.218228e+01	4.278828e+00	-1.087025e-17	4.278828e+00	-4.278828e+00
157           	9.090882e+00	-7.762350e+01	8.671438e+01	1.747459e+02	-6.266594e+01	2.374119e+02	-1.500389e+02	-8.216894e+01	4.274709e+00	-1.089551e-17	4.274709e+00	-4.274709e+00
158           	9.100503e+00	-7.759803e+01	8.669854e+01	1.747020e+02	-6.264659e+01	2.373486e+02	-1.499976e+02	-8.214829e+01	4.279234e+00	-1.086791e-17	4.279234e+00	-4.279234e+00
159           	9.091379e+00	-7.759015e+01	8.668153e+01	1.746755e+02	-6.263050e+01	2.373060e+02	-1.499683e+02	-8.213584e+01	4.274943e+00	-1.089338e-17	4.274943e+00	-4.274943e+00
160           	9.100033e+00	-7.756358e+01	8.666361e+01	1.746282e+02	-6.260706e+01	2.372353e+02	-1.499212e+02	-8.211359e+01	4.279012e+00	-1.086564e-17	4.279012e+00	-4.279012e+00
161           	9.090233e+00	-7.755421e+01	8.664444e+01	1.745979e+02	-6.258732e+01	2.371852e+02	-1.498863e+02	-8.209933e+01	4.274404e+00	-1.089095e-17	4.274404e+00	-4.274404e+00
162           	9.099004e+00	-7.752731e+01	8.662632e+01	1.745500e+02	-6.256427e+01	2.371143e+02	-1.498393e+02	-8.207681e+01	4.278529e+00	-1.086298e-17	4.278529e+00	-4.278529e+00
163           	9.089951e+00	-7.751865e+01	8.660860e+01	1.745220e+02	-6.254745e+01	2.370694e+02	-1.498084e+02	-8.206363e+01	4.274271e+00	-1.088848e-17	4.274271e+00	-4.274271e+00
164           	9.099591e+00	-7.749240e+01	8.659200e+01	1.744764e+02	-6.252637e+01	2.370028e+02	-1.497646e+02	-8.204220e+01	4.278805e+00	-1.086063e-17	4.278805e+00	-4.278805e+00
165           	9.090666e+00	-7.748294e+01	8.657360e+01	1.744468e+02	-6.250756e+01	2.369543e+02	-1.497310e+02	-8.202827e+01	4.274608e+00	-1.088642e-17	4.274608e+00	-4.274608e+00