# Force and moment coefficients
# dragDir     : (9.781476e-01 2.079117e-01 0.000000e+00)
# sideDir     : (0.000000e+00 0.000000e+00 -1.000000e+00)
# liftDir     : (-2.079117e-01 9.781476e-01 0.000000e+00)
# rollAxis    : (9.781476e-01 2.079117e-01 0.000000e+00)
# pitchAxis   : (0.000000e+00 0.000000e+00 -1.000000e+00)
# yawAxis     : (-2.079117e-01 9.781476e-01 0.000000e+00)
# magUInf     : 1.000000e+00
# lRef        : 3.190000e-01
# Aref        : 1.595000e-03
# CofR        : (0.000000e+00 0.000000e+00 0.000000e+00)
#
# Time        	Cd            	Cd(f)         	Cd(r)         	Cl            	Cl(f)         	Cl(r)         	CmPitch       	CmRoll        	CmYaw         	Cs            	Cs(f)         	Cs(r)         
1             	2.713504e+02	-2.348695e+02	5.062199e+02	7.880251e+02	-1.014557e+03	1.802582e+03	-1.408569e+03	-3.705447e+02	1.275942e+02	6.673786e-18	1.275942e+02	-1.275942e+02
2             	2.056918e+02	-2.405776e+02	4.462694e+02	7.303473e+02	-8.487646e+02	1.579112e+03	-1.213938e+03	-3.434235e+02	9.672029e+01	-4.346463e-18	9.672029e+01	-9.672029e+01
3             	1.562466e+01	-8.510147e+01	1.007261e+02	1.975967e+02	-6.455540e+01	2.621521e+02	-1.633537e+02	-9.291380e+01	7.347020e+00	-1.549698e-17	7.347020e+00	-7.347020e+00
4             	-7.891199e+01	6.201649e+01	-1.409285e+02	-2.157982e+02	4.629568e+02	-6.787550e+02	5.708559e+02	1.014725e+02	-3.710595e+01	-1.117083e-17	-3.710595e+01	3.710595e+01
5             	-6.330852e+01	7.554797e+01	-1.388565e+02	-2.279834e+02	4.013926e+02	-6.293760e+02	5.153843e+02	1.072022e+02	-2.976890e+01	-6.558823e-18	-2.976890e+01	2.976890e+01
6             	4.136406e-01	-8.570604e+00	8.984245e+00	1.866666e+01	-1.654708e+01	3.521373e+01	-2.588040e+01	-8.777424e+00	1.945019e-01	-8.697472e-18	1.945019e-01	-1.945019e-01
7             	5.236244e+01	-9.676915e+01	1.491316e+02	2.614745e+02	-3.388326e+02	6.003071e+02	-4.695698e+02	-1.229504e+02	2.462184e+01	-1.365930e-17	2.462184e+01	-2.462184e+01
8             	6.584559e+01	-1.241383e+02	1.899839e+02	3.340167e+02	-3.755173e+02	7.095339e+02	-5.425256e+02	-1.570611e+02	3.096187e+01	-1.353720e-17	3.096187e+01	-3.096187e+01
9             	5.640052e+01	-1.074009e+02	1.638014e+02	2.883785e+02	-2.485905e+02	5.369690e+02	-3.927798e+02	-1.356012e+02	2.652062e+01	-1.007098e-17	2.652062e+01	-2.652062e+01
10            	3.019615e+01	-6.573145e+01	9.592760e+01	1.718975e+02	-5.509257e+01	2.269900e+02	-1.410413e+02	-8.082952e+01	1.419882e+01	-7.080285e-18	1.419882e+01	-1.419882e+01
11            	1.419216e+01	-4.349306e+01	5.768521e+01	1.075862e+02	2.467730e+01	8.290893e+01	-2.911581e+01	-5.058914e+01	6.673427e+00	-6.523995e-18	6.673427e+00	-6.673427e+00
12            	1.161034e+01	-4.300241e+01	5.461275e+01	1.037975e+02	4.531567e+00	9.926589e+01	-4.736716e+01	-4.880758e+01	5.459409e+00	-7.981135e-18	5.459409e+00	-5.459409e+00
13            	1.699284e+01	-5.486991e+01	7.186275e+01	1.347591e+02	-6.130990e+01	1.960690e+02	-1.286894e+02	-6.336633e+01	7.990365e+00	-1.013898e-17	7.990365e+00	-7.990365e+00
14            	2.519836e+01	-6.950156e+01	9.469992e+01	1.746009e+02	-1.287686e+02	3.033695e+02	-2.160690e+02	-8.210074e+01	1.184876e+01	-1.138033e-17	1.184876e+01	-1.184876e+01
15            	3.127882e+01	-7.865433e+01	1.099331e+02	2.005314e+02	-1.619785e+02	3.625099e+02	-2.622442e+02	-9.429374e+01	1.470791e+01	-1.176266e-17	1.470791e+01	-1.470791e+01
16            	3.369312e+01	-8.091360e+01	1.146067e+02	2.079033e+02	-1.574711e+02	3.653744e+02	-2.614227e+02	-9.776016e+01	1.584316e+01	-1.166084e-17	1.584316e+01	-1.584316e+01
17            	3.298505e+01	-7.854530e+01	1.115303e+02	2.021138e+02	-1.294213e+02	3.315350e+02	-2.304781e+02	-9.503782e+01	1.551021e+01	-1.153815e-17	1.551021e+01	-1.551021e+01
18            	2.903795e+01	-7.370346e+01	1.027414e+02	1.876197e+02	-9.441693e+01	2.820366e+02	-1.882268e+02	-8.822243e+01	1.365421e+01	-1.147044e-17	1.365421e+01	-1.365421e+01
19            	2.372446e+01	-6.912076e+01	9.284522e+01	1.722238e+02	-7.026387e+01	2.424877e+02	-1.563758e+02	-8.098299e+01	1.115570e+01	-1.173010e-17	1.115570e+01	-1.115570e+01
20            	1.939703e+01	-6.675533e+01	8.615236e+01	1.625918e+02	-6.567115e+01	2.282630e+02	-1.469671e+02	-7.645385e+01	9.120862e+00	-1.162094e-17	9.120862e+00	-9.120862e+00
21            	1.858085e+01	-6.815208e+01	8.673293e+01	1.646944e+02	-8.213194e+01	2.468263e+02	-1.644791e+02	-7.744251e+01	8.737078e+00	-1.163049e-17	8.737078e+00	-8.737078e+00
22            	2.171335e+01	-7.296585e+01	9.467920e+01	1.782626e+02	-1.092316e+02	2.874942e+02	-1.983629e+02	-8.382252e+01	1.021004e+01	-1.182517e-17	1.021004e+01	-1.021004e+01
23            	2.621275e+01	-7.825893e+01	1.044717e+02	1.943035e+02	-1.292616e+02	3.235652e+02	-2.264134e+02	-9.136530e+01	1.232575e+01	-1.219829e-17	1.232575e+01	-1.232575e+01
24            	2.900032e+01	-8.097598e+01	1.099763e+02	2.030459e+02	-1.303300e+02	3.333760e+02	-2.318530e+02	-9.547614e+01	1.363651e+01	-1.237415e-17	1.363651e+01	-1.363651e+01
25            	2.804940e+01	-7.928094e+01	1.073303e+02	1.984300e+02	-1.105813e+02	3.090113e+02	-2.097963e+02	-9.330564e+01	1.318937e+01	-1.232212e-17	1.318937e+01	-1.318937e+01
26            	2.381196e+01	-7.430824e+01	9.812020e+01	1.833489e+02	-8.145768e+01	2.648066e+02	-1.731321e+02	-8.621422e+01	1.119685e+01	-1.193687e-17	1.119685e+01	-1.119685e+01
27            	1.904453e+01	-6.934626e+01	8.839080e+01	1.677271e+02	-5.949783e+01	2.272249e+02	-1.433614e+02	-7.886853e+01	8.955110e+00	-1.132797e-17	8.955110e+00	-8.955110e+00
28            	1.594932e+01	-6.692559e+01	8.287491e+01	1.592879e+02	-5.322168e+01	2.125095e+02	-1.328656e+02	-7.490025e+01	7.499682e+00	-1.076157e-17	7.499682e+00	-7.499682e+00
29            	1.571793e+01	-6.799333e+01	8.371126e+01	1.613125e+02	-6.255870e+01	2.238712e+02	-1.432150e+02	-7.585229e+01	7.390876e+00	-1.055167e-17	7.390876e+00	-7.390876e+00
30            	1.767911e+01	-7.124689e+01	8.892600e+01	1.703172e+02	-7.795733e+01	2.482745e+02	-1.631159e+02	-8.008644e+01	8.313063e+00	-1.059840e-17	8.313063e+00	-8.313063e+00
31            	1.980870e+01	-7.400015e+01	9.380885e+01	1.784369e+02	-8.685314e+01	2.652900e+02	-1.760716e+02	-8.390450e+01	9.314434e+00	-1.073009e-17	9.314434e+00	-9.314434e+00
32            	2.051356e+01	-7.461070e+01	9.512426e+01	1.804849e+02	-8.312407e+01	2.636089e+02	-1.733665e+02	-8.486748e+01	9.645875e+00	-1.081009e-17	9.645875e+00	-9.645875e+00
33            	1.916913e+01	-7.255971e+01	9.172884e+01	1.746935e+02	-6.681932e+01	2.415128e+02	-1.541661e+02	-8.214428e+01	9.013699e+00	-1.076023e-17	9.013699e+00	-9.013699e+00
34            	1.607540e+01	-6.866668e+01	8.474208e+01	1.631247e+02	-4.417940e+01	2.073040e+02	-1.257417e+02	-7.670438e+01	7.558966e+00	-1.067400e-17	7.558966e+00	-7.558966e+00
35            	1.299114e+01	-6.512473e+01	7.811587e+01	1.523125e+02	-2.697664e+01	1.792891e+02	-1.031329e+02	-7.162030e+01	6.108688e+00	-1.061702e-17	6.108688e+00	-6.108688e+00
36            	1.137752e+01	-6.363036e+01	7.500788e+01	1.474187e+02	-2.220511e+01	1.696238e+02	-9.591444e+01	-6.931912e+01	5.349931e+00	-1.049542e-17	5.349931e+00	-5.349931e+00
37            	1.154911e+01	-6.426438e+01	7.581348e+01	1.489495e+02	-2.873614e+01	1.776856e+02	-1.032109e+02	-7.003893e+01	5.430615e+00	-1.035664e-17	5.430615e+00	-5.430615e+00
38            	1.330818e+01	-6.677867e+01	8.008685e+01	1.561670e+02	-4.328264e+01	1.994496e+02	-1.213661e+02	-7.343276e+01	6.257766e+00	-1.023124e-17	6.257766e+00	-6.257766e+00
39            	1.575751e+01	-6.998457e+01	8.574208e+01	1.655893e+02	-5.872854e+01	2.243179e+02	-1.415232e+02	-7.786332e+01	7.409485e+00	-1.016133e-17	7.409485e+00	-7.409485e+00
40            	1.755742e+01	-7.236078e+01	8.991819e+01	1.725566e+02	-6.785791e+01	2.404145e+02	-1.541362e+02	-8.113948e+01	8.255838e+00	-1.017286e-17	8.255838e+00	-8.255838e+00
41            	1.832564e+01	-7.340612e+01	9.173176e+01	1.755966e+02	-6.991128e+01	2.455079e+02	-1.577096e+02	-8.256894e+01	8.617072e+00	-1.026294e-17	8.617072e+00	-8.617072e+00
42            	1.821664e+01	-7.339997e+01	9.161661e+01	1.754676e+02	-6.739809e+01	2.428657e+02	-1.551319e+02	-8.250829e+01	8.565820e+00	-1.039441e-17	8.565820e+00	-8.565820e+00
43            	1.769993e+01	-7.280282e+01	9.050275e+01	1.736483e+02	-6.363236e+01	2.372806e+02	-1.504565e+02	-8.165279e+01	8.322852e+00	-1.050932e-17	8.322852e+00	-8.322852e+00
44            	1.729623e+01	-7.235018e+01	8.964641e+01	1.722564e+02	-6.181230e+01	2.340687e+02	-1.479405e+02	-8.099829e+01	8.133025e+00	-1.057128e-17	8.133025e+00	-8.133025e+00
45            	1.734023e+01	-7.240994e+01	8.975017e+01	1.724303e+02	-6.297503e+01	2.354053e+02	-1.491902e+02	-8.108006e+01	8.153715e+00	-1.057827e-17	8.153715e+00	-8.153715e+00
46            	1.777561e+01	-7.305119e+01	9.082680e+01	1.742569e+02	-6.634488e+01	2.406018e+02	-1.534733e+02	-8.193899e+01	8.358437e+00	-1.055520e-17	8.358437e+00	-8.358437e+00
47            	1.842230e+01	-7.398320e+01	9.240550e+01	1.769266e+02	-7.023485e+01	2.471615e+02	-1.586982e+02	-8.319435e+01	8.662525e+00	-1.053234e-17	8.662525e+00	-8.662525e+00
48            	1.892927e+01	-7.482195e+01	9.375122e+01	1.792495e+02	-7.279209e+01	2.520416e+02	-1.624168e+02	-8.428659e+01	8.900910e+00	-1.053066e-17	8.900910e+00	-8.900910e+00
49            	1.919078e+01	-7.529303e+01	9.448381e+01	1.805294e+02	-7.341853e+01	2.539479e+02	-1.636832e+02	-8.488842e+01	9.023876e+00	-1.057346e-17	9.023876e+00	-9.023876e+00
50            	1.915700e+01	-7.539567e+01	9.455268e+01	1.807117e+02	-7.238281e+01	2.530945e+02	-1.627387e+02	-8.497417e+01	9.007996e+00	-1.063549e-17	9.007996e+00	-9.007996e+00
51            	1.896136e+01	-7.520404e+01	9.416541e+01	1.800962e+02	-7.051147e+01	2.506077e+02	-1.605596e+02	-8.468473e+01	8.916001e+00	-1.071297e-17	8.916001e+00	-8.916001e+00
52            	1.868447e+01	-7.493725e+01	9.362172e+01	1.792344e+02	-6.863129e+01	2.478657e+02	-1.582485e+02	-8.427949e+01	8.785800e+00	-1.077604e-17	8.785800e+00	-8.785800e+00
53            	1.847903e+01	-7.472404e+01	9.320308e+01	1.785625e+02	-6.731754e+01	2.458800e+02	-1.565988e+02	-8.396356e+01	8.689201e+00	-1.082000e-17	8.689201e+00	-8.689201e+00
54            	1.835063e+01	-7.466942e+01	9.302005e+01	1.783098e+02	-6.662099e+01	2.449308e+02	-1.557759e+02	-8.384474e+01	8.628823e+00	-1.083256e-17	8.628823e+00	-8.628823e+00
55            	1.833711e+01	-7.471927e+01	9.305638e+01	1.784014e+02	-6.633638e+01	2.447378e+02	-1.555371e+02	-8.388782e+01	8.622464e+00	-1.082521e-17	8.622464e+00	-8.622464e+00
56            	1.836731e+01	-7.485349e+01	9.322080e+01	1.787190e+02	-6.619402e+01	2.449130e+02	-1.555535e+02	-8.403715e+01	8.636667e+00	-1.080664e-17	8.636667e+00	-8.636667e+00
57            	1.846771e+01	-7.498853e+01	9.345624e+01	1.791129e+02	-6.619757e+01	2.453105e+02	-1.557540e+02	-8.422238e+01	8.683877e+00	-1.078470e-17	8.683877e+00	-8.683877e+00
58            	1.857137e+01	-7.512400e+01	9.369537e+01	1.795113e+02	-6.640762e+01	2.459189e+02	-1.561633e+02	-8.440969e+01	8.732619e+00	-1.075230e-17	8.732619e+00	-8.732619e+00
59            	1.873327e+01	-7.525372e+01	9.398699e+01	1.799593e+02	-6.707645e+01	2.470357e+02	-1.570561e+02	-8.462035e+01	8.808750e+00	-1.071895e-17	8.808750e+00	-8.808750e+00
60            	1.894057e+01	-7.547445e+01	9.441502e+01	1.806491e+02	-6.840014e+01	2.490493e+02	-1.587247e+02	-8.494474e+01	8.906226e+00	-1.068241e-17	8.906226e+00	-8.906226e+00
61            	1.926945e+01	-7.580274e+01	9.507219e+01	1.816970e+02	-7.048899e+01	2.521860e+02	-1.613375e+02	-8.543747e+01	9.060868e+00	-1.065667e-17	9.060868e+00	-9.060868e+00
62            	1.965681e+01	-7.625073e+01	9.590755e+01	1.830616e+02	-7.298809e+01	2.560497e+02	-1.645189e+02	-8.607914e+01	9.243016e+00	-1.064328e-17	9.243016e+00	-9.243016e+00
63            	2.011598e+01	-7.673107e+01	9.684705e+01	1.845714e+02	-7.553469e+01	2.601061e+02	-1.678204e+02	-8.678906e+01	9.458924e+00	-1.064735e-17	9.458924e+00	-9.458924e+00
64            	2.053489e+01	-7.718524e+01	9.772013e+01	1.859827e+02	-7.765014e+01	2.636329e+02	-1.706415e+02	-8.745268e+01	9.655904e+00	-1.065763e-17	9.655904e+00	-9.655904e+00
65            	2.088414e+01	-7.748129e+01	9.836543e+01	1.869837e+02	-7.902592e+01	2.660096e+02	-1.725178e+02	-8.792336e+01	9.820131e+00	-1.066755e-17	9.820131e+00	-9.820131e+00
66            	2.109504e+01	-7.763040e+01	9.872544e+01	1.875250e+02	-7.964963e+01	2.671747e+02	-1.734121e+02	-8.817792e+01	9.919296e+00	-1.066419e-17	9.919296e+00	-9.919296e+00
67            	2.124122e+01	-7.763574e+01	9.887697e+01	1.876919e+02	-7.979856e+01	2.674904e+02	-1.736445e+02	-8.825636e+01	9.988036e+00	-1.065297e-17	9.988036e+00	-9.988036e+00
68            	2.131100e+01	-7.757804e+01	9.888904e+01	1.876433e+02	-7.967267e+01	2.673160e+02	-1.734943e+02	-8.823354e+01	1.002084e+01	-1.063304e-17	1.002084e+01	-1.002084e+01
69            	2.140071e+01	-7.748340e+01	9.888411e+01	1.875374e+02	-7.955269e+01	2.670901e+02	-1.733214e+02	-8.818375e+01	1.006303e+01	-1.061889e-17	1.006303e+01	-1.006303e+01
70            	2.149882e+01	-7.742353e+01	9.892236e+01	1.875145e+02	-7.952982e+01	2.670443e+02	-1.732871e+02	-8.817294e+01	1.010917e+01	-1.060686e-17	1.010917e+01	-1.010917e+01
71            	2.166653e+01	-7.737690e+01	9.904343e+01	1.875936e+02	-7.966323e+01	2.672568e+02	-1.734600e+02	-8.821017e+01	1.018803e+01	-1.060220e-17	1.018803e+01	-1.018803e+01
72            	2.182427e+01	-7.735091e+01	9.917518e+01	1.877061e+02	-7.979167e+01	2.674977e+02	-1.736447e+02	-8.826305e+01	1.026219e+01	-1.059385e-17	1.026219e+01	-1.026219e+01
73            	2.197978e+01	-7.727957e+01	9.925936e+01	1.877197e+02	-7.983855e+01	2.675583e+02	-1.736984e+02	-8.826947e+01	1.033532e+01	-1.057778e-17	1.033532e+01	-1.033532e+01
74            	2.207713e+01	-7.718859e+01	9.926572e+01	1.876298e+02	-7.977864e+01	2.674084e+02	-1.735935e+02	-8.822716e+01	1.038109e+01	-1.054579e-17	1.038109e+01	-1.038109e+01
75            	2.218454e+01	-7.706345e+01	9.924799e+01	1.874778e+02	-7.977689e+01	2.672547e+02	-1.735158e+02	-8.815572e+01	1.043160e+01	-1.050148e-17	1.043160e+01	-1.043160e+01
76            	2.228800e+01	-7.696934e+01	9.925733e+01	1.873877e+02	-7.995879e+01	2.673465e+02	-1.736526e+02	-8.811334e+01	1.048025e+01	-1.044891e-17	1.048025e+01	-1.048025e+01
77            	2.247510e+01	-7.690670e+01	9.938180e+01	1.874534e+02	-8.051011e+01	2.679635e+02	-1.742368e+02	-8.814425e+01	1.056823e+01	-1.039364e-17	1.056823e+01	-1.056823e+01
78            	2.273601e+01	-7.693881e+01	9.967482e+01	1.877992e+02	-8.151962e+01	2.693188e+02	-1.754192e+02	-8.830682e+01	1.069092e+01	-1.034035e-17	1.069092e+01	-1.069092e+01
79            	2.310311e+01	-7.702934e+01	1.001325e+02	1.883820e+02	-8.294796e+01	2.713300e+02	-1.771390e+02	-8.858090e+01	1.086353e+01	-1.029221e-17	1.086353e+01	-1.086353e+01
80            	2.347024e+01	-7.716006e+01	1.006303e+02	1.890504e+02	-8.448024e+01	2.735307e+02	-1.790054e+02	-8.889518e+01	1.103616e+01	-1.024922e-17	1.103616e+01	-1.103616e+01
81            	2.384111e+01	-7.725212e+01	1.010932e+02	1.896406e+02	-8.594929e+01	2.755898e+02	-1.807696e+02	-8.917268e+01	1.121055e+01	-1.020114e-17	1.121055e+01	-1.121055e+01
82            	2.417505e+01	-7.733756e+01	1.015126e+02	1.901774e+02	-8.734128e+01	2.775186e+02	-1.824300e+02	-8.942509e+01	1.136758e+01	-1.015045e-17	1.136758e+01	-1.136758e+01
83            	2.454075e+01	-7.740135e+01	1.019421e+02	1.907019e+02	-8.878122e+01	2.794831e+02	-1.841321e+02	-8.967172e+01	1.153954e+01	-1.009226e-17	1.153954e+01	-1.153954e+01
84            	2.488572e+01	-7.747249e+01	1.023582e+02	1.912200e+02	-9.017151e+01	2.813915e+02	-1.857815e+02	-8.991536e+01	1.170175e+01	-1.003734e-17	1.170175e+01	-1.170175e+01
85            	2.525500e+01	-7.750828e+01	1.027633e+02	1.916888e+02	-9.149731e+01	2.831861e+02	-1.873417e+02	-9.013578e+01	1.187539e+01	-9.981214e-18	1.187539e+01	-1.187539e+01
86            	2.560437e+01	-7.753434e+01	1.031387e+02	1.921157e+02	-9.271212e+01	2.848278e+02	-1.887700e+02	-9.033652e+01	1.203967e+01	-9.932677e-18	1.203967e+01	-1.203967e+01
87            	2.597279e+01	-7.750735e+01	1.034801e+02	1.924500e+02	-9.382950e+01	2.862795e+02	-1.900545e+02	-9.049375e+01	1.221291e+01	-9.880477e-18	1.221291e+01	-1.221291e+01
88            	2.629272e+01	-7.745027e+01	1.037430e+02	1.926688e+02	-9.475354e+01	2.874224e+02	-1.910880e+02	-9.059663e+01	1.236335e+01	-9.833210e-18	1.236335e+01	-1.236335e+01
89            	2.661106e+01	-7.733575e+01	1.039468e+02	1.927638e+02	-9.554548e+01	2.883093e+02	-1.919274e+02	-9.064128e+01	1.251304e+01	-9.777034e-18	1.251304e+01	-1.251304e+01
90            	2.689105e+01	-7.720759e+01	1.040986e+02	1.927890e+02	-9.622168e+01	2.890106e+02	-1.926162e+02	-9.065311e+01	1.264470e+01	-9.724402e-18	1.264470e+01	-1.264470e+01
91            	2.718255e+01	-7.703843e+01	1.042210e+02	1.927392e+02	-9.683994e+01	2.895791e+02	-1.932095e+02	-9.062970e+01	1.278176e+01	-9.660593e-18	1.278176e+01	-1.278176e+01
92            	2.744163e+01	-7.686492e+01	1.043066e+02	1.926457e+02	-9.738229e+01	2.900280e+02	-1.937051e+02	-9.058574e+01	1.290359e+01	-9.602163e-18	1.290359e+01	-1.290359e+01
93            	2.773673e+01	-7.666278e+01	1.043995e+02	1.925296e+02	-9.797396e+01	2.905035e+02	-1.942387e+02	-9.053114e+01	1.304235e+01	-9.531843e-18	1.304235e+01	-1.304235e+01
94            	2.803852e+01	-7.647430e+01	1.045128e+02	1.924496e+02	-9.865768e+01	2.911073e+02	-1.948825e+02	-9.049356e+01	1.318426e+01	-9.464456e-18	1.318426e+01	-1.318426e+01
95            	2.838187e+01	-7.627283e+01	1.046547e+02	1.923863e+02	-9.946745e+01	2.918537e+02	-1.956606e+02	-9.046376e+01	1.334571e+01	-9.384156e-18	1.334571e+01	-1.334571e+01
96            	2.870211e+01	-7.609000e+01	1.047921e+02	1.923380e+02	-1.003273e+02	2.926653e+02	-1.964963e+02	-9.044106e+01	1.349629e+01	-9.308238e-18	1.349629e+01	-1.349629e+01
97            	2.905474e+01	-7.589636e+01	1.049511e+02	1.923011e+02	-1.013145e+02	2.936156e+02	-1.974650e+02	-9.042373e+01	1.366210e+01	-9.218637e-18	1.366210e+01	-1.366210e+01
98            	2.941645e+01	-7.573431e+01	1.051508e+02	1.923411e+02	-1.024741e+02	2.948153e+02	-1.986447e+02	-9.044254e+01	1.383218e+01	-9.132378e-18	1.383218e+01	-1.383218e+01
99            	2.984782e+01	-7.558163e+01	1.054294e+02	1.924751e+02	-1.038933e+02	2.963684e+02	-2.001309e+02	-9.050554e+01	1.403502e+01	-9.035025e-18	1.403502e+01	-1.403502e+01
100           	3.029083e+01	-7.546920e+01	1.057600e+02	1.927071e+02	-1.054798e+02	2.981869e+02	-2.018333e+02	-9.061462e+01	1.424334e+01	-8.946005e-18	1.424334e+01	-1.424334e+01
101           	3.077959e+01	-7.535340e+01	1.061330e+02	1.929805e+02	-1.072112e+02	3.001917e+02	-2.037014e+02	-9.074319e+01	1.447316e+01	-8.849765e-18	1.447316e+01	-1.447316e+01
102           	3.125882e+01	-7.525614e+01	1.065150e+02	1.932833e+02	-1.090117e+02	3.022950e+02	-2.056534e+02	-9.088555e+01	1.469851e+01	-8.759161e-18	1.469851e+01	-1.469851e+01
103           	3.177578e+01	-7.514151e+01	1.069173e+02	1.935892e+02	-1.109282e+02	3.045174e+02	-2.077228e+02	-9.102940e+01	1.494159e+01	-8.660786e-18	1.494159e+01	-1.494159e+01
104           	3.228218e+01	-7.504283e+01	1.073250e+02	1.939178e+02	-1.129143e+02	3.068321e+02	-2.098732e+02	-9.118392e+01	1.517971e+01	-8.566426e-18	1.517971e+01	-1.517971e+01
105           	3.282736e+01	-7.492825e+01	1.077556e+02	1.942538e+02	-1.150009e+02	3.092547e+02	-2.121278e+02	-9.134193e+01	1.543606e+01	-8.468448e-18	1.543606e+01	-1.543606e+01
106           	3.335972e+01	-7.482426e+01	1.081840e+02	1.945988e+02	-1.171053e+02	3.117041e+02	-2.144047e+02	-9.150412e+01	1.568639e+01	-8.376888e-18	1.568639e+01	-1.568639e+01
107           	3.391959e+01	-7.468574e+01	1.086053e+02	1.948995e+02	-1.192168e+02	3.141163e+02	-2.166666e+02	-9.164553e+01	1.594965e+01	-8.284322e-18	1.594965e+01	-1.594965e+01
108           	3.444590e+01	-7.453216e+01	1.089781e+02	1.951325e+02	-1.212332e+02	3.163658e+02	-2.187995e+02	-9.175511e+01	1.619713e+01	-8.197925e-18	1.619713e+01	-1.619713e+01
109           	3.498245e+01	-7.432524e+01	1.093077e+02	1.952630e+02	-1.231800e+02	3.184430e+02	-2.208115e+02	-9.181646e+01	1.644943e+01	-8.110148e-18	1.644943e+01	-1.644943e+01
110           	3.547986e+01	-7.409859e+01	1.095784e+02	1.953099e+02	-1.250216e+02	3.203316e+02	-2.226766e+02	-9.183852e+01	1.668332e+01	-8.026410e-18	1.668332e+01	-1.668332e+01
111           	3.598924e+01	-7.382099e+01	1.098102e+02	1.952612e+02	-1.268110e+02	3.220722e+02	-2.244416e+02	-9.181561e+01	1.692284e+01	-7.940121e-18	1.692284e+01	-1.692284e+01
112           	3.645719e+01	-7.352302e+01	1.099802e+02	1.951251e+02	-1.284872e+02	3.236123e+02	-2.260497e+02	-9.175162e+01	1.714288e+01	-7.857461e-18	1.714288e+01	-1.714288e+01
113           	3.693104e+01	-7.316772e+01	1.100988e+02	1.948734e+02	-1.300732e+02	3.249466e+02	-2.275099e+02	-9.163324e+01	1.736569e+01	-7.772810e-18	1.736569e+01	-1.736569e+01
114           	3.735817e+01	-7.278283e+01	1.101410e+02	1.945090e+02	-1.315136e+02	3.260226e+02	-2.287681e+02	-9.146192e+01	1.756654e+01	-7.692456e-18	1.756654e+01	-1.756654e+01
115           	3.778771e+01	-7.233317e+01	1.101209e+02	1.940095e+02	-1.328455e+02	3.268550e+02	-2.298502e+02	-9.122703e+01	1.776852e+01	-7.611163e-18	1.776852e+01	-1.776852e+01
116           	3.816756e+01	-7.185215e+01	1.100197e+02	1.933904e+02	-1.340322e+02	3.274226e+02	-2.307274e+02	-9.093593e+01	1.794713e+01	-7.535022e-18	1.794713e+01	-1.794713e+01
117           	3.854902e+01	-7.130952e+01	1.098585e+02	1.926420e+02	-1.351235e+02	3.277656e+02	-2.314445e+02	-9.058403e+01	1.812650e+01	-7.457549e-18	1.812650e+01	-1.812650e+01
118           	3.887736e+01	-7.073908e+01	1.096164e+02	1.917780e+02	-1.360726e+02	3.278506e+02	-2.319616e+02	-9.017776e+01	1.828089e+01	-7.384265e-18	1.828089e+01	-1.828089e+01
119           	3.920253e+01	-7.010811e+01	1.093106e+02	1.907819e+02	-1.369119e+02	3.276939e+02	-2.323029e+02	-8.970937e+01	1.843379e+01	-7.308289e-18	1.843379e+01	-1.843379e+01
120           	3.947055e+01	-6.944784e+01	1.089184e+02	1.896628e+02	-1.375927e+02	3.272555e+02	-2.324241e+02	-8.918312e+01	1.855982e+01	-7.235627e-18	1.855982e+01	-1.855982e+01
121           	3.973715e+01	-6.872701e+01	1.084642e+02	1.884133e+02	-1.381674e+02	3.265807e+02	-2.323740e+02	-8.859559e+01	1.868518e+01	-7.160554e-18	1.868518e+01	-1.868518e+01
122           	3.995065e+01	-6.797858e+01	1.079292e+02	1.870486e+02	-1.386012e+02	3.256498e+02	-2.321255e+02	-8.795390e+01	1.878557e+01	-7.090239e-18	1.878557e+01	-1.878557e+01
123           	4.016215e+01	-6.717319e+01	1.073353e+02	1.855607e+02	-1.389269e+02	3.244877e+02	-2.317073e+02	-8.725427e+01	1.888503e+01	-7.018802e-18	1.888503e+01	-1.888503e+01
124           	4.031856e+01	-6.631186e+01	1.066304e+02	1.838953e+02	-1.390868e+02	3.229821e+02	-2.310345e+02	-8.647114e+01	1.895857e+01	-6.950982e-18	1.895857e+01	-1.895857e+01
125           	4.045965e+01	-6.542400e+01	1.058837e+02	1.821571e+02	-1.391098e+02	3.212669e+02	-2.301883e+02	-8.565383e+01	1.902491e+01	-6.881197e-18	1.902491e+01	-1.902491e+01
126           	4.052816e+01	-6.452171e+01	1.050499e+02	1.803111e+02	-1.389226e+02	3.192337e+02	-2.290782e+02	-8.478579e+01	1.905713e+01	-6.810572e-18	1.905713e+01	-1.905713e+01
127           	4.057680e+01	-6.355064e+01	1.041274e+02	1.782977e+02	-1.385299e+02	3.168276e+02	-2.276788e+02	-8.383904e+01	1.908000e+01	-6.739901e-18	1.908000e+01	-1.908000e+01
128           	4.054925e+01	-6.253856e+01	1.030878e+02	1.761160e+02	-1.378867e+02	3.140028e+02	-2.259447e+02	-8.281318e+01	1.906704e+01	-6.669915e-18	1.906704e+01	-1.906704e+01
129           	4.050136e+01	-6.145556e+01	1.019569e+02	1.737619e+02	-1.370255e+02	3.107874e+02	-2.239064e+02	-8.170624e+01	1.904453e+01	-6.597432e-18	1.904453e+01	-1.904453e+01
130           	4.038041e+01	-6.034240e+01	1.007228e+02	1.712660e+02	-1.359193e+02	3.071853e+02	-2.215523e+02	-8.053260e+01	1.898765e+01	-6.529966e-18	1.898765e+01	-1.898765e+01
131           	4.024450e+01	-5.917550e+01	9.942000e+01	1.686399e+02	-1.346237e+02	3.032636e+02	-2.189436e+02	-7.929775e+01	1.892375e+01	-6.456963e-18	1.892375e+01	-1.892375e+01
132           	4.003602e+01	-5.799219e+01	9.802821e+01	1.659017e+02	-1.330963e+02	2.989979e+02	-2.160471e+02	-7.801020e+01	1.882571e+01	-6.391573e-18	1.882571e+01	-1.882571e+01
133           	3.980249e+01	-5.675859e+01	9.656108e+01	1.630299e+02	-1.313454e+02	2.943753e+02	-2.128603e+02	-7.665984e+01	1.871591e+01	-6.313378e-18	1.871591e+01	-1.871591e+01
134           	3.948335e+01	-5.549616e+01	9.497951e+01	1.600058e+02	-1.292881e+02	2.892939e+02	-2.092910e+02	-7.523784e+01	1.856584e+01	-6.243191e-18	1.856584e+01	-1.856584e+01
135           	3.912853e+01	-5.416550e+01	9.329404e+01	1.567986e+02	-1.269385e+02	2.837371e+02	-2.053378e+02	-7.372977e+01	1.839900e+01	-6.155177e-18	1.839900e+01	-1.839900e+01
136           	3.868812e+01	-5.279828e+01	9.148641e+01	1.534227e+02	-1.242633e+02	2.776860e+02	-2.009746e+02	-7.214235e+01	1.819191e+01	-6.076395e-18	1.819191e+01	-1.819191e+01
137           	3.822382e+01	-5.138046e+01	8.960428e+01	1.499138e+02	-1.213636e+02	2.712774e+02	-1.963205e+02	-7.049237e+01	1.797358e+01	-5.976512e-18	1.797358e+01	-1.797358e+01
138           	3.769544e+01	-4.996371e+01	8.765915e+01	1.463390e+02	-1.182619e+02	2.646009e+02	-1.914314e+02	-6.881143e+01	1.772513e+01	-5.891024e-18	1.772513e+01	-1.772513e+01
139           	3.715690e+01	-4.852590e+01	8.568279e+01	1.427086e+02	-1.150280e+02	2.577366e+02	-1.863823e+02	-6.710434e+01	1.747190e+01	-5.784965e-18	1.747190e+01	-1.747190e+01
140           	3.655956e+01	-4.709725e+01	8.365681e+01	1.390352e+02	-1.116240e+02	2.506592e+02	-1.811416e+02	-6.537703e+01	1.719101e+01	-5.695507e-18	1.719101e+01	-1.719101e+01
141           	3.596032e+01	-4.565197e+01	8.161229e+01	1.353243e+02	-1.081378e+02	2.434621e+02	-1.758000e+02	-6.363213e+01	1.690924e+01	-5.586031e-18	1.690924e+01	-1.690924e+01
142           	3.531059e+01	-4.421536e+01	7.952595e+01	1.315783e+02	-1.045209e+02	2.360992e+02	-1.703100e+02	-6.187065e+01	1.660373e+01	-5.493953e-18	1.660373e+01	-1.660373e+01
143           	3.466125e+01	-4.276660e+01	7.742785e+01	1.278068e+02	-1.008437e+02	2.286504e+02	-1.647471e+02	-6.009723e+01	1.629839e+01	-5.381175e-18	1.629839e+01	-1.629839e+01
144           	3.396561e+01	-4.134369e+01	7.530930e+01	1.240410e+02	-9.707631e+01	2.211173e+02	-1.590968e+02	-5.832650e+01	1.597129e+01	-5.286026e-18	1.597129e+01	-1.597129e+01
145           	3.327985e+01	-3.993571e+01	7.321555e+01	1.203175e+02	-9.332707e+01	2.136446e+02	-1.534858e+02	-5.657563e+01	1.564883e+01	-5.171800e-18	1.564883e+01	-1.564883e+01
146           	3.256432e+01	-3.858199e+01	7.114631e+01	1.166778e+02	-8.959082e+01	2.062686e+02	-1.479297e+02	-5.486415e+01	1.531238e+01	-5.076515e-18	1.531238e+01	-1.531238e+01
147           	3.187771e+01	-3.726766e+01	6.914537e+01	1.131525e+02	-8.598202e+01	1.991345e+02	-1.425583e+02	-5.320651e+01	1.498952e+01	-4.967782e-18	1.498952e+01	-1.498952e+01
148           	3.117791e+01	-3.602388e+01	6.720179e+01	1.097633e+02	-8.247283e+01	1.922361e+02	-1.373545e+02	-5.161283e+01	1.466046e+01	-4.879056e-18	1.466046e+01	-1.466046e+01
149           	3.051722e+01	-3.482983e+01	6.534705e+01	1.065214e+02	-7.914769e+01	1.856691e+02	-1.324084e+02	-5.008844e+01	1.434979e+01	-4.780883e-18	1.434979e+01	-1.434979e+01
150           	2.984985e+01	-3.371511e+01	6.356496e+01	1.034411e+02	-7.595886e+01	1.794000e+02	-1.276794e+02	-4.864004e+01	1.403598e+01	-4.702494e-18	1.403598e+01	-1.403598e+01
151           	2.923211e+01	-3.266550e+01	6.189762e+01	1.005521e+02	-7.301357e+01	1.735657e+02	-1.232896e+02	-4.728156e+01	1.374551e+01	-4.619768e-18	1.374551e+01	-1.374551e+01
152           	2.862461e+01	-3.171891e+01	6.034352e+01	9.789305e+01	-7.029267e+01	1.681857e+02	-1.192392e+02	-4.603121e+01	1.345985e+01	-4.557996e-18	1.345985e+01	-1.345985e+01
153           	2.807319e+01	-3.085056e+01	5.892375e+01	9.546002e+01	-6.785104e+01	1.633111e+02	-1.155811e+02	-4.488716e+01	1.320056e+01	-4.496705e-18	1.320056e+01	-1.320056e+01
154           	2.753191e+01	-3.009013e+01	5.762203e+01	9.326726e+01	-6.563141e+01	1.588987e+02	-1.122650e+02	-4.385608e+01	1.294604e+01	-4.454113e-18	1.294604e+01	-1.294604e+01
155           	2.704548e+01	-2.940823e+01	5.645372e+01	9.129988e+01	-6.367816e+01	1.549780e+02	-1.093281e+02	-4.293098e+01	1.271731e+01	-4.412624e-18	1.271731e+01	-1.271731e+01
156           	2.656991e+01	-2.883254e+01	5.540245e+01	8.956988e+01	-6.194007e+01	1.515099e+02	-1.067250e+02	-4.211750e+01	1.249369e+01	-4.386266e-18	1.249369e+01	-1.249369e+01
157           	2.620595e+01	-2.839670e+01	5.460265e+01	8.825598e+01	-6.070914e+01	1.489651e+02	-1.048371e+02	-4.149968e+01	1.232255e+01	-4.366489e-18	1.232255e+01	-1.232255e+01
158           	2.579807e+01	-2.800084e+01	5.379891e+01	8.698040e+01	-5.940967e+01	1.463901e+02	-1.028999e+02	-4.089987e+01	1.213075e+01	-4.352953e-18	1.213075e+01	-1.213075e+01
159           	2.541209e+01	-2.763046e+01	5.304255e+01	8.578230e+01	-5.818571e+01	1.439680e+02	-1.010769e+02	-4.033651e+01	1.194926e+01	-4.335517e-18	1.194926e+01	-1.194926e+01
160           	2.503613e+01	-2.734593e+01	5.238206e+01	8.477742e+01	-5.713494e+01	1.419124e+02	-9.952365e+01	-3.986399e+01	1.177248e+01	-4.324212e-18	1.177248e+01	-1.177248e+01
161           	2.474191e+01	-2.714760e+01	5.188951e+01	8.404280e+01	-5.641735e+01	1.404602e+02	-9.843875e+01	-3.951856e+01	1.163413e+01	-4.319805e-18	1.163413e+01	-1.163413e+01
162           	2.447914e+01	-2.706476e+01	5.154390e+01	8.358721e+01	-5.595005e+01	1.395373e+02	-9.774366e+01	-3.930433e+01	1.151057e+01	-4.328375e-18	1.151057e+01	-1.151057e+01
163           	2.427585e+01	-2.704948e+01	5.132533e+01	8.333855e+01	-5.568315e+01	1.390217e+02	-9.735242e+01	-3.918741e+01	1.141498e+01	-4.338499e-18	1.141498e+01	-1.141498e+01
164           	2.406196e+01	-2.710143e+01	5.116338e+01	8.322158e+01	-5.543852e+01	1.386601e+02	-9.704931e+01	-3.913241e+01	1.131440e+01	-4.348955e-18	1.131440e+01	-1.131440e+01
165           	2.387645e+01	-2.717486e+01	5.105131e+01	8.318050e+01	-5.522601e+01	1.384065e+02	-9.681625e+01	-3.911309e+01	1.122717e+01	-4.351638e-18	1.122717e+01	-1.122717e+01