# Force and moment coefficients
# dragDir     : (9.612617e-01 2.756374e-01 0.000000e+00)
# sideDir     : (0.000000e+00 0.000000e+00 -1.000000e+00)
# liftDir     : (-2.756374e-01 9.612617e-01 0.000000e+00)
# rollAxis    : (9.612617e-01 2.756374e-01 0.000000e+00)
# pitchAxis   : (0.000000e+00 0.000000e+00 -1.000000e+00)
# yawAxis     : (-2.756374e-01 9.612617e-01 0.000000e+00)
# magUInf     : 1.000000e+00
# lRef        : 3.190000e-01
# Aref        : 1.595000e-03
# CofR        : (0.000000e+00 0.000000e+00 0.000000e+00)
#
# Time        	Cd            	Cd(f)         	Cd(r)         	Cl            	Cl(f)         	Cl(r)         	CmPitch       	CmRoll        	CmYaw         	Cs            	Cs(f)         	Cs(r)         
1             	4.115765e+02	-2.945454e+02	7.061219e+02	1.064043e+03	-1.385774e+03	2.449817e+03	-1.917796e+03	-5.003337e+02	1.935313e+02	3.299069e-18	1.935313e+02	-1.935313e+02
2             	3.241782e+02	-2.931013e+02	6.172795e+02	9.680382e+02	-1.140077e+03	2.108115e+03	-1.624096e+03	-4.551904e+02	1.524349e+02	-8.781156e-18	1.524349e+02	-1.524349e+02
3             	2.946004e+01	-9.284659e+01	1.223066e+02	2.287796e+02	-4.888977e+01	2.776694e+02	-1.632796e+02	-1.075766e+02	1.385268e+01	-1.920099e-17	1.385268e+01	-1.385268e+01
4             	-1.339076e+02	8.639256e+01	-2.203002e+02	-3.261166e+02	6.690804e+02	-9.951970e+02	8.321387e+02	1.533464e+02	-6.296598e+01	-1.279270e-17	-6.296598e+01	6.296598e+01
5             	-1.144907e+02	9.772932e+01	-2.122200e+02	-3.295795e+02	5.759708e+02	-9.055503e+02	7.407606e+02	1.549747e+02	-5.383575e+01	-7.632551e-18	-5.383575e+01	5.383575e+01
6             	-6.600795e-01	-9.707686e+00	9.047607e+00	1.994313e+01	-1.481590e+01	3.475903e+01	-2.478747e+01	-9.377647e+00	-3.103822e-01	-1.051336e-17	-3.103822e-01	3.103822e-01
7             	9.698038e+01	-1.209193e+02	2.178997e+02	3.602776e+02	-4.782690e+02	8.385465e+02	-6.584077e+02	-1.694095e+02	4.560206e+01	-1.649539e-17	4.560206e+01	-4.560206e+01
8             	1.171535e+02	-1.526798e+02	2.698333e+02	4.492724e+02	-5.202436e+02	9.695160e+02	-7.448798e+02	-2.112566e+02	5.508786e+01	-1.598895e-17	5.508786e+01	-5.508786e+01
9             	9.404397e+01	-1.286453e+02	2.226893e+02	3.735858e+02	-3.342729e+02	7.078586e+02	-5.210658e+02	-1.756673e+02	4.422130e+01	-1.070608e-17	4.422130e+01	-4.422130e+01
10            	4.934595e+01	-7.751494e+01	1.268609e+02	2.173196e+02	-7.252502e+01	2.898446e+02	-1.811848e+02	-1.021879e+02	2.320342e+01	-6.680587e-18	2.320342e+01	-2.320342e+01
11            	1.985706e+01	-4.756262e+01	6.741968e+01	1.222645e+02	5.455546e+01	6.770905e+01	-6.576795e+00	-5.749115e+01	9.337175e+00	-5.598601e-18	9.337175e+00	-9.337175e+00
12            	1.698794e+01	-4.927365e+01	6.626159e+01	1.228525e+02	2.535852e+01	9.749395e+01	-3.606772e+01	-5.776762e+01	7.988061e+00	-7.496784e-18	7.988061e+00	-7.988061e+00
13            	2.924982e+01	-6.703959e+01	9.628941e+01	1.736732e+02	-8.089196e+01	2.545651e+02	-1.677285e+02	-8.166450e+01	1.375384e+01	-1.020524e-17	1.375384e+01	-1.375384e+01
14            	4.709282e+01	-8.762690e+01	1.347197e+02	2.364286e+02	-1.928864e+02	4.293150e+02	-3.111007e+02	-1.111733e+02	2.214396e+01	-1.173738e-17	2.214396e+01	-2.214396e+01
15            	5.828059e+01	-9.805759e+01	1.563382e+02	2.705075e+02	-2.386617e+02	5.091692e+02	-3.739155e+02	-1.271979e+02	2.740467e+01	-1.152102e-17	2.740467e+01	-2.740467e+01
16            	6.152752e+01	-9.962972e+01	1.611572e+02	2.773035e+02	-2.273453e+02	5.046488e+02	-3.659970e+02	-1.303935e+02	2.893144e+01	-1.067947e-17	2.893144e+01	-2.893144e+01
17            	5.887122e+01	-9.563416e+01	1.545054e+02	2.659817e+02	-1.813692e+02	4.473509e+02	-3.143601e+02	-1.250698e+02	2.768239e+01	-1.026552e-17	2.768239e+01	-2.768239e+01
18            	5.183613e+01	-8.926795e+01	1.411041e+02	2.449622e+02	-1.297296e+02	3.746918e+02	-2.522107e+02	-1.151860e+02	2.437436e+01	-1.007134e-17	2.437436e+01	-2.437436e+01
19            	4.386640e+01	-8.366956e+01	1.275360e+02	2.245819e+02	-9.700844e+01	3.215903e+02	-2.092994e+02	-1.056028e+02	2.062684e+01	-1.015618e-17	2.062684e+01	-2.062684e+01
20            	3.853508e+01	-8.107200e+01	1.196071e+02	2.133888e+02	-9.375809e+01	3.071468e+02	-2.004525e+02	-1.003395e+02	1.811994e+01	-1.043971e-17	1.811994e+01	-1.811994e+01
21            	3.869881e+01	-8.290630e+01	1.216051e+02	2.174638e+02	-1.203305e+02	3.377943e+02	-2.290624e+02	-1.022557e+02	1.819693e+01	-1.090534e-17	1.819693e+01	-1.819693e+01
22            	4.502814e+01	-8.898983e+01	1.340180e+02	2.371316e+02	-1.628171e+02	3.999487e+02	-2.813829e+02	-1.115039e+02	2.117311e+01	-1.160771e-17	2.117311e+01	-2.117311e+01
23            	5.319521e+01	-9.565353e+01	1.488487e+02	2.599874e+02	-1.948792e+02	4.548666e+02	-3.248729e+02	-1.222511e+02	2.501342e+01	-1.236832e-17	2.501342e+01	-2.501342e+01
24            	5.844546e+01	-9.932804e+01	1.577735e+02	2.733846e+02	-2.008397e+02	4.742244e+02	-3.375320e+02	-1.285508e+02	2.748219e+01	-1.299780e-17	2.748219e+01	-2.748219e+01
25            	5.827633e+01	-9.820980e+01	1.564861e+02	2.708267e+02	-1.804710e+02	4.512976e+02	-3.158843e+02	-1.273480e+02	2.740266e+01	-1.333760e-17	2.740266e+01	-2.740266e+01
26            	5.335637e+01	-9.328859e+01	1.466450e+02	2.551293e+02	-1.485598e+02	4.036892e+02	-2.761245e+02	-1.199668e+02	2.508920e+01	-1.336025e-17	2.508920e+01	-2.508920e+01
27            	4.792550e+01	-8.835038e+01	1.362759e+02	2.388526e+02	-1.273229e+02	3.661754e+02	-2.467492e+02	-1.123131e+02	2.253550e+01	-1.321664e-17	2.253550e+01	-2.253550e+01
28            	4.513627e+01	-8.613871e+01	1.312750e+02	2.311832e+02	-1.266039e+02	3.577871e+02	-2.421955e+02	-1.087068e+02	2.122395e+01	-1.314500e-17	2.122395e+01	-2.122395e+01
29            	4.643577e+01	-8.771812e+01	1.341539e+02	2.359239e+02	-1.457652e+02	3.816891e+02	-2.637272e+02	-1.109360e+02	2.183500e+01	-1.327354e-17	2.183500e+01	-2.183500e+01
30            	5.114920e+01	-9.203762e+01	1.431868e+02	2.501220e+02	-1.735920e+02	4.237140e+02	-2.986530e+02	-1.176122e+02	2.405135e+01	-1.354820e-17	2.405135e+01	-2.405135e+01
31            	5.608393e+01	-9.585676e+01	1.519407e+02	2.634913e+02	-1.921516e+02	4.556429e+02	-3.238973e+02	-1.238987e+02	2.637176e+01	-1.381537e-17	2.637176e+01	-2.637176e+01
32            	5.853209e+01	-9.690260e+01	1.554347e+02	2.683186e+02	-1.922563e+02	4.605749e+02	-3.264156e+02	-1.261686e+02	2.752292e+01	-1.399139e-17	2.752292e+01	-2.752292e+01
33            	5.774040e+01	-9.469644e+01	1.524368e+02	2.627851e+02	-1.747649e+02	4.375500e+02	-3.061575e+02	-1.235666e+02	2.715066e+01	-1.404965e-17	2.715066e+01	-2.715066e+01
34            	5.380331e+01	-8.978286e+01	1.435862e+02	2.481491e+02	-1.458794e+02	3.940285e+02	-2.699540e+02	-1.166845e+02	2.529936e+01	-1.399792e-17	2.529936e+01	-2.529936e+01
35            	4.922473e+01	-8.466941e+01	1.338941e+02	2.324059e+02	-1.208903e+02	3.532962e+02	-2.370933e+02	-1.092818e+02	2.314643e+01	-1.384287e-17	2.314643e+01	-2.314643e+01
36            	4.663771e+01	-8.162204e+01	1.282598e+02	2.231743e+02	-1.104457e+02	3.336201e+02	-2.220329e+02	-1.049409e+02	2.192996e+01	-1.357560e-17	2.192996e+01	-2.192996e+01
37            	4.644944e+01	-8.070949e+01	1.271589e+02	2.210334e+02	-1.127000e+02	3.337335e+02	-2.232167e+02	-1.039342e+02	2.184143e+01	-1.320988e-17	2.184143e+01	-2.184143e+01
38            	4.828388e+01	-8.142131e+01	1.297052e+02	2.244979e+02	-1.227206e+02	3.472185e+02	-2.349695e+02	-1.055633e+02	2.270402e+01	-1.274519e-17	2.270402e+01	-2.270402e+01
39            	5.114763e+01	-8.273578e+01	1.338834e+02	2.303384e+02	-1.334840e+02	3.638224e+02	-2.486532e+02	-1.083096e+02	2.405061e+01	-1.227130e-17	2.405061e+01	-2.405061e+01
40            	5.330078e+01	-8.321668e+01	1.365175e+02	2.336506e+02	-1.373041e+02	3.709547e+02	-2.541294e+02	-1.098671e+02	2.506306e+01	-1.182212e-17	2.506306e+01	-2.506306e+01
41            	5.401179e+01	-8.229950e+01	1.363113e+02	2.324561e+02	-1.324920e+02	3.649481e+02	-2.487200e+02	-1.093054e+02	2.539739e+01	-1.141461e-17	2.539739e+01	-2.539739e+01
42            	5.321093e+01	-8.002946e+01	1.332404e+02	2.267769e+02	-1.207650e+02	3.475419e+02	-2.341535e+02	-1.066349e+02	2.502082e+01	-1.100993e-17	2.502082e+01	-2.502082e+01
43            	5.170333e+01	-7.720434e+01	1.289077e+02	2.191658e+02	-1.081088e+02	3.272746e+02	-2.176917e+02	-1.030560e+02	2.431191e+01	-1.061746e-17	2.431191e+01	-2.431191e+01
44            	5.081464e+01	-7.502111e+01	1.258357e+02	2.135778e+02	-1.012367e+02	3.148145e+02	-2.080256e+02	-1.004284e+02	2.389403e+01	-1.018054e-17	2.389403e+01	-2.389403e+01
45            	5.125307e+01	-7.401255e+01	1.252656e+02	2.118991e+02	-1.021858e+02	3.140849e+02	-2.081354e+02	-9.963909e+01	2.410019e+01	-9.692695e-18	2.410019e+01	-2.410019e+01
46            	5.309908e+01	-7.417698e+01	1.272761e+02	2.142117e+02	-1.098365e+02	3.240482e+02	-2.169424e+02	-1.007265e+02	2.496822e+01	-9.120572e-18	2.496822e+01	-2.496822e+01
47            	5.611572e+01	-7.538473e+01	1.315005e+02	2.199879e+02	-1.222299e+02	3.422178e+02	-2.322239e+02	-1.034426e+02	2.638670e+01	-8.528671e-18	2.638670e+01	-2.638670e+01
48            	5.940870e+01	-7.698040e+01	1.363891e+02	2.268829e+02	-1.353227e+02	3.622056e+02	-2.487642e+02	-1.066848e+02	2.793512e+01	-7.965333e-18	2.793512e+01	-2.793512e+01
49            	6.232764e+01	-7.830275e+01	1.406304e+02	2.327989e+02	-1.465589e+02	3.793578e+02	-2.629584e+02	-1.094666e+02	2.930767e+01	-7.482211e-18	2.930767e+01	-2.930767e+01
50            	6.484704e+01	-7.921911e+01	1.440661e+02	2.374266e+02	-1.563494e+02	3.937761e+02	-2.750628e+02	-1.116426e+02	3.049234e+01	-7.015847e-18	3.049234e+01	-3.049234e+01
51            	6.725660e+01	-7.995407e+01	1.472107e+02	2.415518e+02	-1.665462e+02	4.080981e+02	-2.873222e+02	-1.135824e+02	3.162536e+01	-6.618603e-18	3.162536e+01	-3.162536e+01
52            	6.982033e+01	-8.082896e+01	1.506493e+02	2.461385e+02	-1.785546e+02	4.246931e+02	-3.016238e+02	-1.157391e+02	3.283087e+01	-6.237383e-18	3.283087e+01	-3.283087e+01
53            	7.273969e+01	-8.208644e+01	1.548261e+02	2.519170e+02	-1.928943e+02	4.448113e+02	-3.188528e+02	-1.184563e+02	3.420361e+01	-5.931695e-18	3.420361e+01	-3.420361e+01
54            	7.602239e+01	-8.374457e+01	1.597670e+02	2.589339e+02	-2.090278e+02	4.679617e+02	-3.384948e+02	-1.217558e+02	3.574721e+01	-5.622736e-18	3.574721e+01	-3.574721e+01
55            	7.943355e+01	-8.558075e+01	1.650143e+02	2.664661e+02	-2.255277e+02	4.919937e+02	-3.587607e+02	-1.252975e+02	3.735120e+01	-5.379533e-18	3.735120e+01	-3.735120e+01
56            	8.258816e+01	-8.724841e+01	1.698366e+02	2.733670e+02	-2.406339e+02	5.140009e+02	-3.773174e+02	-1.285425e+02	3.883456e+01	-5.133452e-18	3.883456e+01	-3.883456e+01
57            	8.528880e+01	-8.853711e+01	1.738259e+02	2.789793e+02	-2.537570e+02	5.327364e+02	-3.932467e+02	-1.311815e+02	4.010445e+01	-4.976490e-18	4.010445e+01	-4.010445e+01
58            	8.760133e+01	-8.947309e+01	1.770744e+02	2.834289e+02	-2.654752e+02	5.489041e+02	-4.071897e+02	-1.332738e+02	4.119185e+01	-4.839150e-18	4.119185e+01	-4.119185e+01
59            	8.965788e+01	-9.020115e+01	1.798590e+02	2.871640e+02	-2.765932e+02	5.637572e+02	-4.201752e+02	-1.350301e+02	4.215888e+01	-4.815808e-18	4.215888e+01	-4.215888e+01
60            	9.153891e+01	-9.085426e+01	1.823932e+02	2.905531e+02	-2.874121e+02	5.779652e+02	-4.326886e+02	-1.366237e+02	4.304337e+01	-4.823378e-18	4.304337e+01	-4.304337e+01
61            	9.326337e+01	-9.146438e+01	1.847278e+02	2.936843e+02	-2.978176e+02	5.915019e+02	-4.446598e+02	-1.380961e+02	4.385425e+01	-4.942166e-18	4.385425e+01	-4.385425e+01
62            	9.477159e+01	-9.197228e+01	1.867439e+02	2.963682e+02	-3.072825e+02	6.036506e+02	-4.554665e+02	-1.393581e+02	4.456344e+01	-5.175716e-18	4.456344e+01	-4.456344e+01
63            	9.595322e+01	-9.224905e+01	1.882023e+02	2.982132e+02	-3.151209e+02	6.133341e+02	-4.642275e+02	-1.402257e+02	4.511907e+01	-5.512061e-18	4.511907e+01	-4.511907e+01
64            	9.669576e+01	-9.218551e+01	1.888813e+02	2.988677e+02	-3.207448e+02	6.196125e+02	-4.701786e+02	-1.405334e+02	4.546822e+01	-5.920879e-18	4.546822e+01	-4.546822e+01
65            	9.697029e+01	-9.172399e+01	1.886943e+02	2.981781e+02	-3.240356e+02	6.222137e+02	-4.731246e+02	-1.402091e+02	4.559731e+01	-6.354842e-18	4.559731e+01	-4.559731e+01
66            	9.680384e+01	-9.087636e+01	1.876802e+02	2.961985e+02	-3.252049e+02	6.214034e+02	-4.733041e+02	-1.392783e+02	4.551905e+01	-6.802752e-18	4.551905e+01	-4.551905e+01
67            	9.626993e+01	-8.967248e+01	1.859424e+02	2.930705e+02	-3.246115e+02	6.176820e+02	-4.711467e+02	-1.378074e+02	4.526799e+01	-7.256223e-18	4.526799e+01	-4.526799e+01
68            	9.543635e+01	-8.816004e+01	1.835964e+02	2.889677e+02	-3.225393e+02	6.115070e+02	-4.670232e+02	-1.358782e+02	4.487603e+01	-7.714906e-18	4.487603e+01	-4.487603e+01
69            	9.438231e+01	-8.638377e+01	1.807661e+02	2.840693e+02	-3.192416e+02	6.033109e+02	-4.612762e+02	-1.335749e+02	4.438040e+01	-8.107481e-18	4.438040e+01	-4.438040e+01
70            	9.316771e+01	-8.439913e+01	1.775668e+02	2.785572e+02	-3.148682e+02	5.934254e+02	-4.541468e+02	-1.309830e+02	4.380927e+01	-8.402388e-18	4.380927e+01	-4.380927e+01
71            	9.183738e+01	-8.223409e+01	1.740715e+02	2.725383e+02	-3.095309e+02	5.820691e+02	-4.458000e+02	-1.281528e+02	4.318372e+01	-8.581040e-18	4.318372e+01	-4.318372e+01
72            	9.039927e+01	-7.987687e+01	1.702761e+02	2.659960e+02	-3.032658e+02	5.692619e+02	-4.362638e+02	-1.250765e+02	4.250750e+01	-8.643173e-18	4.250750e+01	-4.250750e+01
73            	8.881581e+01	-7.726263e+01	1.660784e+02	2.587527e+02	-2.959487e+02	5.547014e+02	-4.253250e+02	-1.216705e+02	4.176292e+01	-8.560953e-18	4.176292e+01	-4.176292e+01
74            	8.708643e+01	-7.436197e+01	1.614484e+02	2.507450e+02	-2.876284e+02	5.383734e+02	-4.130009e+02	-1.179052e+02	4.094973e+01	-8.346480e-18	4.094973e+01	-4.094973e+01
75            	8.523250e+01	-7.118738e+01	1.564199e+02	2.420224e+02	-2.784503e+02	5.204727e+02	-3.994615e+02	-1.138036e+02	4.007798e+01	-7.973234e-18	4.007798e+01	-4.007798e+01
76            	8.332141e+01	-6.782032e+01	1.511417e+02	2.328296e+02	-2.687250e+02	5.015547e+02	-3.851398e+02	-1.094810e+02	3.917935e+01	-7.432139e-18	3.917935e+01	-3.917935e+01
77            	8.149018e+01	-6.441352e+01	1.459037e+02	2.236373e+02	-2.591098e+02	4.827471e+02	-3.709285e+02	-1.051586e+02	3.831826e+01	-6.824002e-18	3.831826e+01	-3.831826e+01
78            	7.981778e+01	-6.107212e+01	1.408899e+02	2.147529e+02	-2.500083e+02	4.647612e+02	-3.573847e+02	-1.009810e+02	3.753187e+01	-6.164984e-18	3.753187e+01	-3.753187e+01
79            	7.826941e+01	-5.781343e+01	1.360828e+02	2.061764e+02	-2.413816e+02	4.475580e+02	-3.444698e+02	-9.694813e+01	3.680380e+01	-5.452808e-18	3.680380e+01	-3.680380e+01
80            	7.674211e+01	-5.456267e+01	1.313048e+02	1.976391e+02	-2.328762e+02	4.305152e+02	-3.316957e+02	-9.293373e+01	3.608563e+01	-4.679309e-18	3.608563e+01	-3.608563e+01
81            	7.511737e+01	-5.124955e+01	1.263669e+02	1.888655e+02	-2.241298e+02	4.129954e+02	-3.185626e+02	-8.880824e+01	3.532165e+01	-3.859710e-18	3.532165e+01	-3.532165e+01
82            	7.339109e+01	-4.786982e+01	1.212609e+02	1.798423e+02	-2.151849e+02	3.950272e+02	-3.051061e+02	-8.456537e+01	3.450992e+01	-3.022606e-18	3.450992e+01	-3.450992e+01
83            	7.164648e+01	-4.454951e+01	1.161960e+02	1.709260e+02	-2.064803e+02	3.774063e+02	-2.919433e+02	-8.037274e+01	3.368957e+01	-2.189732e-18	3.368957e+01	-3.368957e+01
84            	7.000677e+01	-4.142027e+01	1.114270e+02	1.625276e+02	-1.984879e+02	3.610156e+02	-2.797518e+02	-7.642366e+01	3.291854e+01	-1.397095e-18	3.291854e+01	-3.291854e+01
85            	6.838351e+01	-3.849900e+01	1.068825e+02	1.545890e+02	-1.908607e+02	3.454497e+02	-2.681552e+02	-7.269076e+01	3.215525e+01	-7.338343e-19	3.215525e+01	-3.215525e+01
86            	6.601514e+01	-3.494800e+01	1.009631e+02	1.445188e+02	-1.799242e+02	3.244431e+02	-2.521836e+02	-6.795557e+01	3.104160e+01	-7.815882e-20	3.104160e+01	-3.104160e+01
87            	6.451669e+01	-3.270785e+01	9.722454e+01	1.381614e+02	-1.736988e+02	3.118602e+02	-2.427795e+02	-6.496620e+01	3.033700e+01	3.883741e-19	3.033700e+01	-3.033700e+01
88            	6.180178e+01	-2.944692e+01	9.124871e+01	1.283397e+02	-1.620150e+02	2.903547e+02	-2.261848e+02	-6.034782e+01	2.906040e+01	8.403917e-19	2.906040e+01	-2.906040e+01
89            	5.984879e+01	-2.724126e+01	8.709005e+01	1.215723e+02	-1.542181e+02	2.757904e+02	-2.150042e+02	-5.716565e+01	2.814206e+01	1.137032e-18	2.814206e+01	-2.814206e+01
90            	5.682251e+01	-2.413927e+01	8.096178e+01	1.117575e+02	-1.414747e+02	2.532322e+02	-1.973535e+02	-5.255053e+01	2.671905e+01	1.377278e-18	2.671905e+01	-2.671905e+01
91            	5.391698e+01	-2.143729e+01	7.535428e+01	1.029217e+02	-1.295298e+02	2.324515e+02	-1.809906e+02	-4.839578e+01	2.535281e+01	1.509812e-18	2.535281e+01	-2.535281e+01
92            	5.173770e+01	-1.969783e+01	7.143554e+01	9.690515e+01	-1.209503e+02	2.178555e+02	-1.694029e+02	-4.556669e+01	2.432807e+01	1.508540e-18	2.432807e+01	-2.432807e+01
93            	4.818173e+01	-1.704864e+01	6.523037e+01	8.749002e+01	-1.064515e+02	1.939415e+02	-1.501965e+02	-4.113951e+01	2.265599e+01	1.506178e-18	2.265599e+01	-2.265599e+01
94            	4.454341e+01	-1.450818e+01	5.905160e+01	7.821857e+01	-9.173619e+01	1.699548e+02	-1.308455e+02	-3.677989e+01	2.094518e+01	1.474678e-18	2.094518e+01	-2.094518e+01
95            	4.181635e+01	-1.291050e+01	5.472685e+01	7.192105e+01	-8.110007e+01	1.530211e+02	-1.170606e+02	-3.381868e+01	1.966286e+01	1.362851e-18	1.966286e+01	-1.966286e+01
96            	3.892533e+01	-1.136878e+01	5.029411e+01	6.556821e+01	-6.980771e+01	1.353759e+02	-1.025918e+02	-3.083145e+01	1.830345e+01	1.214751e-18	1.830345e+01	-1.830345e+01
97            	3.525504e+01	-9.458759e+00	4.471380e+01	5.760349e+01	-5.537973e+01	1.129832e+02	-8.418147e+01	-2.708628e+01	1.657761e+01	1.054843e-18	1.657761e+01	-1.657761e+01
98            	3.268913e+01	-8.393166e+00	4.108230e+01	5.260891e+01	-4.541612e+01	9.802504e+01	-7.172058e+01	-2.473773e+01	1.537107e+01	8.569261e-19	1.537107e+01	-1.537107e+01
99            	3.029473e+01	-7.653084e+00	3.794781e+01	4.848895e+01	-3.636106e+01	8.485002e+01	-6.060554e+01	-2.280045e+01	1.424517e+01	6.202831e-19	1.424517e+01	-1.424517e+01
100           	2.797606e+01	-7.148883e+00	3.512495e+01	4.495117e+01	-2.776586e+01	7.271703e+01	-5.024144e+01	-2.113692e+01	1.315489e+01	3.620117e-19	1.315489e+01	-1.315489e+01
101           	2.528025e+01	-6.653877e+00	3.193413e+01	4.103191e+01	-1.800296e+01	5.903487e+01	-3.851891e+01	-1.929400e+01	1.188727e+01	1.128989e-19	1.188727e+01	-1.188727e+01
102           	2.360367e+01	-6.654275e+00	3.025794e+01	3.924999e+01	-1.219662e+01	5.144661e+01	-3.182162e+01	-1.845611e+01	1.109890e+01	-1.463893e-19	1.109890e+01	-1.109890e+01
103           	2.223775e+01	-7.001854e+00	2.923960e+01	3.853675e+01	-7.951897e+00	4.648865e+01	-2.722027e+01	-1.812073e+01	1.045662e+01	-4.237648e-19	1.045662e+01	-1.045662e+01
104           	2.120001e+01	-7.731209e+00	2.893122e+01	3.898438e+01	-5.286175e+00	4.427055e+01	-2.477836e+01	-1.833121e+01	9.968655e+00	-7.307036e-19	9.968655e+00	-9.968655e+00
105           	2.050012e+01	-8.856304e+00	2.935642e+01	4.063286e+01	-4.264454e+00	4.489732e+01	-2.458089e+01	-1.910636e+01	9.639553e+00	-1.050120e-18	9.639553e+00	-9.639553e+00
106           	2.024474e+01	-1.060381e+01	3.084855e+01	4.407768e+01	-5.510737e+00	4.958841e+01	-2.754958e+01	-2.072618e+01	9.519470e+00	-1.401998e-18	9.519470e+00	-9.519470e+00
107           	2.033797e+01	-1.210513e+01	3.244311e+01	4.736963e+01	-7.635700e+00	5.500533e+01	-3.132051e+01	-2.227412e+01	9.563310e+00	-1.720794e-18	9.563310e+00	-9.563310e+00
108           	2.088788e+01	-1.393951e+01	3.482739e+01	5.185547e+01	-1.185055e+01	6.370603e+01	-3.777829e+01	-2.438345e+01	9.821886e+00	-2.047502e-18	9.821886e+00	-9.821886e+00
109           	2.190355e+01	-1.628421e+01	3.818777e+01	5.792187e+01	-1.837128e+01	7.629315e+01	-4.733221e+01	-2.723599e+01	1.029948e+01	-2.408606e-18	1.029948e+01	-1.029948e+01
110           	2.336514e+01	-1.902862e+01	4.239376e+01	6.531246e+01	-2.678308e+01	9.209554e+01	-5.943931e+01	-3.071119e+01	1.098674e+01	-2.789414e-18	1.098674e+01	-1.098674e+01
111           	2.508534e+01	-2.195878e+01	4.704413e+01	7.337310e+01	-3.617334e+01	1.095464e+02	-7.285989e+01	-3.450146e+01	1.179562e+01	-3.167192e-18	1.179562e+01	-1.179562e+01
112           	2.696420e+01	-2.484926e+01	5.181345e+01	8.151801e+01	-4.592759e+01	1.274456e+02	-8.668659e+01	-3.833135e+01	1.267909e+01	-3.518206e-18	1.267909e+01	-1.267909e+01
113           	2.887151e+01	-2.762158e+01	5.649309e+01	8.944194e+01	-5.559537e+01	1.450373e+02	-1.003163e+02	-4.205734e+01	1.357594e+01	-3.856932e-18	1.357594e+01	-1.357594e+01
114           	3.083645e+01	-3.026662e+01	6.110307e+01	9.715643e+01	-6.514277e+01	1.622992e+02	-1.137210e+02	-4.568484e+01	1.449990e+01	-4.185836e-18	1.449990e+01	-1.449990e+01
115           	3.279439e+01	-3.285506e+01	6.564945e+01	1.047431e+02	-7.438292e+01	1.791260e+02	-1.267545e+02	-4.925226e+01	1.542056e+01	-4.512990e-18	1.542056e+01	-1.542056e+01
116           	3.472600e+01	-3.535447e+01	7.008047e+01	1.121125e+02	-8.310606e+01	1.952186e+02	-1.391623e+02	-5.271747e+01	1.632884e+01	-4.810972e-18	1.632884e+01	-1.632884e+01
117           	3.650585e+01	-3.773706e+01	7.424291e+01	1.190720e+02	-9.093780e+01	2.100098e+02	-1.504738e+02	-5.598998e+01	1.716576e+01	-5.089022e-18	1.716576e+01	-1.716576e+01
118           	3.814997e+01	-3.993703e+01	7.808700e+01	1.254989e+02	-9.785350e+01	2.233524e+02	-1.606029e+02	-5.901201e+01	1.793886e+01	-5.344288e-18	1.793886e+01	-1.793886e+01
119           	3.960034e+01	-4.196169e+01	8.156202e+01	1.313469e+02	-1.037434e+02	2.350903e+02	-1.694168e+02	-6.176186e+01	1.862085e+01	-5.553545e-18	1.862085e+01	-1.862085e+01
120           	4.090005e+01	-4.377296e+01	8.467300e+01	1.365809e+02	-1.086123e+02	2.451932e+02	-1.769027e+02	-6.422298e+01	1.923200e+01	-5.757408e-18	1.923200e+01	-1.923200e+01
121           	4.197559e+01	-4.539635e+01	8.737193e+01	1.411769e+02	-1.123104e+02	2.534874e+02	-1.828989e+02	-6.638414e+01	1.973774e+01	-5.954674e-18	1.973774e+01	-1.973774e+01
122           	4.285448e+01	-4.679766e+01	8.965214e+01	1.450916e+02	-1.148704e+02	2.599620e+02	-1.874162e+02	-6.822490e+01	2.015101e+01	-6.137952e-18	2.015101e+01	-2.015101e+01
123           	4.347889e+01	-4.802663e+01	9.150553e+01	1.483692e+02	-1.163101e+02	2.646793e+02	-1.904947e+02	-6.976608e+01	2.044462e+01	-6.319447e-18	2.044462e+01	-2.044462e+01
124           	4.392948e+01	-4.908411e+01	9.301359e+01	1.510972e+02	-1.168939e+02	2.679911e+02	-1.924425e+02	-7.104885e+01	2.065650e+01	-6.490538e-18	2.065650e+01	-2.065650e+01
125           	4.420069e+01	-5.003829e+01	9.423897e+01	1.534148e+02	-1.167933e+02	2.702081e+02	-1.935007e+02	-7.213863e+01	2.078402e+01	-6.651917e-18	2.078402e+01	-2.078402e+01
126           	4.439330e+01	-5.088323e+01	9.527652e+01	1.554165e+02	-1.162561e+02	2.716727e+02	-1.939644e+02	-7.307987e+01	2.087459e+01	-6.792605e-18	2.087459e+01	-2.087459e+01
127           	4.449204e+01	-5.166843e+01	9.616046e+01	1.571914e+02	-1.153462e+02	2.725376e+02	-1.939419e+02	-7.391445e+01	2.092102e+01	-6.913091e-18	2.092102e+01	-2.092102e+01
128           	4.456362e+01	-5.236976e+01	9.693338e+01	1.587590e+02	-1.141843e+02	2.729433e+02	-1.935638e+02	-7.465157e+01	2.095468e+01	-7.014318e-18	2.095468e+01	-2.095468e+01
129           	4.456715e+01	-5.302659e+01	9.759374e+01	1.601596e+02	-1.127936e+02	2.729532e+02	-1.928734e+02	-7.531017e+01	2.095634e+01	-7.089542e-18	2.095634e+01	-2.095634e+01
130           	4.455592e+01	-5.361805e+01	9.817396e+01	1.614055e+02	-1.113258e+02	2.727313e+02	-1.920285e+02	-7.589601e+01	2.095106e+01	-7.133510e-18	2.095106e+01	-2.095106e+01
131           	4.449949e+01	-5.419432e+01	9.869381e+01	1.625711e+02	-1.098635e+02	2.724346e+02	-1.911491e+02	-7.644407e+01	2.092452e+01	-7.143256e-18	2.092452e+01	-2.092452e+01
132           	4.447908e+01	-5.475857e+01	9.923765e+01	1.637493e+02	-1.086472e+02	2.723965e+02	-1.905219e+02	-7.699811e+01	2.091493e+01	-7.144472e-18	2.091493e+01	-2.091493e+01
133           	4.448430e+01	-5.537119e+01	9.985549e+01	1.650577e+02	-1.077765e+02	2.728342e+02	-1.903053e+02	-7.761334e+01	2.091738e+01	-7.121167e-18	2.091738e+01	-2.091738e+01
134           	4.459164e+01	-5.602505e+01	1.006167e+02	1.665624e+02	-1.074107e+02	2.739731e+02	-1.906919e+02	-7.832087e+01	2.096785e+01	-7.095251e-18	2.096785e+01	-2.096785e+01
135           	4.477555e+01	-5.675335e+01	1.015289e+02	1.683068e+02	-1.075428e+02	2.758496e+02	-1.916962e+02	-7.914113e+01	2.105433e+01	-7.075989e-18	2.105433e+01	-2.105433e+01
136           	4.508772e+01	-5.752568e+01	1.026134e+02	1.702812e+02	-1.082359e+02	2.785172e+02	-1.933766e+02	-8.006954e+01	2.120112e+01	-7.089579e-18	2.120112e+01	-2.120112e+01
137           	4.547956e+01	-5.835878e+01	1.038383e+02	1.724696e+02	-1.094119e+02	2.818815e+02	-1.956467e+02	-8.109856e+01	2.138538e+01	-7.101630e-18	2.138538e+01	-2.138538e+01
138           	4.598840e+01	-5.922284e+01	1.052112e+02	1.748482e+02	-1.111090e+02	2.859573e+02	-1.985332e+02	-8.221704e+01	2.162464e+01	-7.147174e-18	2.162464e+01	-2.162464e+01
139           	4.656888e+01	-6.014364e+01	1.067125e+02	1.774237e+02	-1.132761e+02	2.906998e+02	-2.019879e+02	-8.342808e+01	2.189759e+01	-7.180001e-18	2.189759e+01	-2.189759e+01
140           	4.726439e+01	-6.109476e+01	1.083591e+02	1.801860e+02	-1.159647e+02	2.961507e+02	-2.060577e+02	-8.472695e+01	2.222463e+01	-7.241839e-18	2.222463e+01	-2.222463e+01
141           	4.802922e+01	-6.209605e+01	1.101253e+02	1.831287e+02	-1.190822e+02	3.022109e+02	-2.106466e+02	-8.611066e+01	2.258427e+01	-7.264756e-18	2.258427e+01	-2.258427e+01
142           	4.889985e+01	-6.311017e+01	1.120100e+02	1.862111e+02	-1.226183e+02	3.088295e+02	-2.157239e+02	-8.756010e+01	2.299366e+01	-7.323295e-18	2.299366e+01	-2.299366e+01
143           	4.982654e+01	-6.414568e+01	1.139722e+02	1.893987e+02	-1.264443e+02	3.158430e+02	-2.211436e+02	-8.905895e+01	2.342941e+01	-7.347911e-18	2.342941e+01	-2.342941e+01
144           	5.084227e+01	-6.516351e+01	1.160058e+02	1.926434e+02	-1.305485e+02	3.231919e+02	-2.268702e+02	-9.058465e+01	2.390703e+01	-7.403512e-18	2.390703e+01	-2.390703e+01
145           	5.189294e+01	-6.617399e+01	1.180669e+02	1.959095e+02	-1.348182e+02	3.307278e+02	-2.327730e+02	-9.212046e+01	2.440107e+01	-7.411861e-18	2.440107e+01	-2.440107e+01
146           	5.300730e+01	-6.713905e+01	1.201463e+02	1.991468e+02	-1.392569e+02	3.384037e+02	-2.388303e+02	-9.364270e+01	2.492506e+01	-7.448889e-18	2.492506e+01	-2.492506e+01
147           	5.413677e+01	-6.807489e+01	1.222117e+02	2.023380e+02	-1.437840e+02	3.461220e+02	-2.449530e+02	-9.514328e+01	2.545616e+01	-7.441557e-18	2.545616e+01	-2.545616e+01
148           	5.531411e+01	-6.894835e+01	1.242625e+02	2.054475e+02	-1.484122e+02	3.538597e+02	-2.511359e+02	-9.660540e+01	2.600977e+01	-7.464063e-18	2.600977e+01	-2.600977e+01
149           	5.648315e+01	-6.977025e+01	1.262534e+02	2.084385e+02	-1.530062e+02	3.614447e+02	-2.572255e+02	-9.801182e+01	2.655948e+01	-7.435021e-18	2.655948e+01	-2.655948e+01
150           	5.766096e+01	-7.049746e+01	1.281584e+02	2.112374e+02	-1.575094e+02	3.687468e+02	-2.631281e+02	-9.932794e+01	2.711330e+01	-7.437358e-18	2.711330e+01	-2.711330e+01
151           	5.877876e+01	-7.113241e+01	1.299112e+02	2.137764e+02	-1.617399e+02	3.755163e+02	-2.686281e+02	-1.005218e+02	2.763892e+01	-7.386468e-18	2.763892e+01	-2.763892e+01
152           	5.985749e+01	-7.163410e+01	1.314916e+02	2.159903e+02	-1.656763e+02	3.816666e+02	-2.736714e+02	-1.015628e+02	2.814616e+01	-7.363109e-18	2.814616e+01	-2.814616e+01
153           	6.084557e+01	-7.201868e+01	1.328642e+02	2.178588e+02	-1.692213e+02	3.870801e+02	-2.781507e+02	-1.024415e+02	2.861077e+01	-7.282650e-18	2.861077e+01	-2.861077e+01
154           	6.177691e+01	-7.225619e+01	1.340331e+02	2.193543e+02	-1.724149e+02	3.917692e+02	-2.820920e+02	-1.031446e+02	2.904870e+01	-7.231986e-18	2.904870e+01	-2.904870e+01
155           	6.260516e+01	-7.236681e+01	1.349720e+02	2.204702e+02	-1.751815e+02	3.956517e+02	-2.854166e+02	-1.036694e+02	2.943816e+01	-7.127376e-18	2.943816e+01	-2.943816e+01
156           	6.336655e+01	-7.232329e+01	1.356898e+02	2.211873e+02	-1.775755e+02	3.987628e+02	-2.881692e+02	-1.040066e+02	2.979618e+01	-7.063301e-18	2.979618e+01	-2.979618e+01
157           	6.401791e+01	-7.214861e+01	1.361665e+02	2.215084e+02	-1.795362e+02	4.010446e+02	-2.902904e+02	-1.041576e+02	3.010247e+01	-6.950165e-18	3.010247e+01	-3.010247e+01
158           	6.459987e+01	-7.182072e+01	1.364206e+02	2.214299e+02	-1.811481e+02	4.025780e+02	-2.918630e+02	-1.041207e+02	3.037612e+01	-6.883673e-18	3.037612e+01	-3.037612e+01
159           	6.507479e+01	-7.136682e+01	1.364416e+02	2.209696e+02	-1.823698e+02	4.033395e+02	-2.928547e+02	-1.039042e+02	3.059943e+01	-6.764289e-18	3.059943e+01	-3.059943e+01
160           	6.548354e+01	-7.076959e+01	1.362531e+02	2.201342e+02	-1.832915e+02	4.034256e+02	-2.933585e+02	-1.035114e+02	3.079163e+01	-6.692337e-18	3.079163e+01	-3.079163e+01
161           	6.578746e+01	-7.005845e+01	1.358459e+02	2.189450e+02	-1.838614e+02	4.028064e+02	-2.933339e+02	-1.029522e+02	3.093454e+01	-6.567208e-18	3.093454e+01	-3.093454e+01
162           	6.601783e+01	-6.921409e+01	1.352319e+02	2.173943e+02	-1.841262e+02	4.015205e+02	-2.928233e+02	-1.022230e+02	3.104287e+01	-6.486837e-18	3.104287e+01	-3.104287e+01
163           	6.612216e+01	-6.825367e+01	1.343758e+02	2.154627e+02	-1.839722e+02	3.994349e+02	-2.917035e+02	-1.013147e+02	3.109192e+01	-6.341829e-18	3.109192e+01	-3.109192e+01
164           	6.612204e+01	-6.714757e+01	1.332696e+02	2.131103e+02	-1.833850e+02	3.964952e+02	-2.899401e+02	-1.002086e+02	3.109187e+01	-6.236940e-18	3.109187e+01	-3.109187e+01
165           	6.597757e+01	-6.592170e+01	1.318993e+02	2.103496e+02	-1.822983e+02	3.926479e+02	-2.874731e+02	-9.891049e+01	3.102394e+01	-6.077440e-18	3.102394e+01	-3.102394e+01