# Force and moment coefficients
# dragDir     : (9.455186e-01 3.255682e-01 0.000000e+00)
# sideDir     : (0.000000e+00 0.000000e+00 -1.000000e+00)
# liftDir     : (-3.255682e-01 9.455186e-01 0.000000e+00)
# rollAxis    : (9.455186e-01 3.255682e-01 0.000000e+00)
# pitchAxis   : (0.000000e+00 0.000000e+00 -1.000000e+00)
# yawAxis     : (-3.255682e-01 9.455186e-01 0.000000e+00)
# magUInf     : 1.000000e+00
# lRef        : 3.190000e-01
# Aref        : 1.595000e-03
# CofR        : (0.000000e+00 0.000000e+00 0.000000e+00)
#
# Time        	Cd            	Cd(f)         	Cd(r)         	Cl            	Cl(f)         	Cl(r)         	CmPitch       	CmRoll        	CmYaw         	Cs            	Cs(f)         	Cs(r)         
1             	5.422604e+02	-3.222535e+02	8.645139e+02	1.261929e+03	-1.671124e+03	2.933054e+03	-2.302089e+03	-5.933837e+02	2.549814e+02	7.886607e-19	2.549814e+02	-2.549814e+02
2             	4.332629e+02	-3.170479e+02	7.503108e+02	1.134958e+03	-1.360822e+03	2.495780e+03	-1.928301e+03	-5.336794e+02	2.037286e+02	-1.236706e-17	2.037286e+02	-2.037286e+02
3             	4.107247e+01	-9.637237e+01	1.374448e+02	2.486256e+02	-4.475720e+01	2.933828e+02	-1.690700e+02	-1.169086e+02	1.931307e+01	-2.245996e-17	1.931307e+01	-1.931307e+01
4             	-1.873537e+02	9.972657e+01	-2.870802e+02	-4.113046e+02	8.316199e+02	-1.242925e+03	1.037272e+03	1.934034e+02	-8.809733e+01	-1.423465e-17	-8.809733e+01	8.809733e+01
5             	-1.638785e+02	1.097681e+02	-2.736466e+02	-4.076977e+02	7.202308e+02	-1.127929e+03	9.240797e+02	1.917074e+02	-7.705886e+01	-8.149299e-18	-7.705886e+01	7.705886e+01
6             	-2.769943e+00	-9.106128e+00	6.336185e+00	1.642033e+01	5.035346e+00	1.138498e+01	-3.174817e+00	-7.721157e+00	-1.302481e+00	-1.075097e-17	-1.302481e+00	1.302481e+00
7             	1.401305e+02	-1.338193e+02	2.739498e+02	4.335944e+02	-5.805484e+02	1.014143e+03	-7.973456e+02	-2.038845e+02	6.589209e+01	-1.754601e-17	6.589209e+01	-6.589209e+01
8             	1.636891e+02	-1.666428e+02	3.303319e+02	5.284497e+02	-6.269719e+02	1.155422e+03	-8.911967e+02	-2.484873e+02	7.696980e+01	-1.637877e-17	7.696980e+01	-7.696980e+01
9             	1.277129e+02	-1.360707e+02	2.637836e+02	4.251784e+02	-3.990463e+02	8.242247e+02	-6.116355e+02	-1.999271e+02	6.005310e+01	-1.072587e-17	6.005310e+01	-6.005310e+01
10            	6.601194e+01	-7.867095e+01	1.446829e+02	2.374996e+02	-7.833314e+01	3.158327e+02	-1.970829e+02	-1.116769e+02	3.104010e+01	-5.501232e-18	3.104010e+01	-3.104010e+01
11            	2.208489e+01	-4.543795e+01	6.752284e+01	1.201150e+02	1.005504e+02	1.956454e+01	4.049294e+01	-5.648039e+01	1.038475e+01	-4.688429e-18	1.038475e+01	-1.038475e+01
12            	1.767763e+01	-4.846582e+01	6.614345e+01	1.218679e+02	7.251492e+01	4.935294e+01	1.158099e+01	-5.730463e+01	8.312364e+00	-7.192471e-18	8.312364e+00	-8.312364e+00
13            	3.739145e+01	-6.951726e+01	1.069087e+02	1.875996e+02	-6.585334e+01	2.534530e+02	-1.596531e+02	-8.821298e+01	1.758219e+01	-1.020960e-17	1.758219e+01	-1.758219e+01
14            	6.412460e+01	-9.332791e+01	1.574525e+02	2.666632e+02	-2.127190e+02	4.793822e+02	-3.460506e+02	-1.253902e+02	3.015264e+01	-1.172142e-17	3.015264e+01	-3.015264e+01
15            	8.452856e+01	-1.064111e+02	1.909397e+02	3.161830e+02	-2.939831e+02	6.101661e+02	-4.520746e+02	-1.486754e+02	3.974697e+01	-1.156691e-17	3.974697e+01	-3.974697e+01
16            	8.924124e+01	-1.050735e+02	1.943147e+02	3.183494e+02	-2.771024e+02	5.954519e+02	-4.362771e+02	-1.496941e+02	4.196296e+01	-1.058169e-17	4.196296e+01	-4.196296e+01
17            	8.569089e+01	-9.938145e+01	1.850723e+02	3.024692e+02	-2.171097e+02	5.195789e+02	-3.683443e+02	-1.422269e+02	4.029352e+01	-9.853564e-18	4.029352e+01	-4.029352e+01
18            	7.561835e+01	-9.334521e+01	1.689636e+02	2.789217e+02	-1.493081e+02	4.282298e+02	-2.887690e+02	-1.311544e+02	3.555722e+01	-9.688273e-18	3.555722e+01	-3.555722e+01
19            	6.482490e+01	-8.909830e+01	1.539232e+02	2.584129e+02	-1.074651e+02	3.658780e+02	-2.366716e+02	-1.215108e+02	3.048193e+01	-9.650931e-18	3.048193e+01	-3.048193e+01
20            	5.912109e+01	-8.727303e+01	1.463941e+02	2.484661e+02	-1.060104e+02	3.544765e+02	-2.302434e+02	-1.168336e+02	2.779989e+01	-9.586593e-18	2.779989e+01	-2.779989e+01
21            	6.099810e+01	-8.862806e+01	1.496262e+02	2.533437e+02	-1.412419e+02	3.945856e+02	-2.679138e+02	-1.191271e+02	2.868249e+01	-9.671218e-18	2.868249e+01	-2.868249e+01
22            	6.991926e+01	-9.384781e+01	1.637671e+02	2.739305e+02	-1.921964e+02	4.661269e+02	-3.291617e+02	-1.288074e+02	3.287740e+01	-9.969915e-18	3.287740e+01	-3.287740e+01
23            	8.060221e+01	-1.000836e+02	1.806858e+02	2.985515e+02	-2.285346e+02	5.270861e+02	-3.778104e+02	-1.403847e+02	3.790072e+01	-1.044299e-17	3.790072e+01	-3.790072e+01
24            	8.811661e+01	-1.037570e+02	1.918736e+02	3.143539e+02	-2.366219e+02	5.509757e+02	-3.937988e+02	-1.478153e+02	4.143414e+01	-1.109909e-17	4.143414e+01	-4.143414e+01
25            	8.941100e+01	-1.030174e+02	1.924284e+02	3.141573e+02	-2.172740e+02	5.314313e+02	-3.743526e+02	-1.477229e+02	4.204279e+01	-1.145887e-17	4.204279e+01	-4.204279e+01
26            	8.510458e+01	-9.851400e+01	1.836186e+02	3.000010e+02	-1.860916e+02	4.860926e+02	-3.360921e+02	-1.410663e+02	4.001783e+01	-1.161935e-17	4.001783e+01	-4.001783e+01
27            	7.966763e+01	-9.367433e+01	1.733420e+02	2.839273e+02	-1.655938e+02	4.495211e+02	-3.075574e+02	-1.335081e+02	3.746127e+01	-1.165536e-17	3.746127e+01	-3.746127e+01
28            	7.749818e+01	-9.161575e+01	1.691139e+02	2.772426e+02	-1.683468e+02	4.455893e+02	-3.069681e+02	-1.303648e+02	3.644115e+01	-1.173852e-17	3.644115e+01	-3.644115e+01
29            	8.022420e+01	-9.327440e+01	1.734986e+02	2.836686e+02	-1.933429e+02	4.770115e+02	-3.351772e+02	-1.333865e+02	3.772298e+01	-1.194867e-17	3.772298e+01	-3.772298e+01
30            	8.779064e+01	-9.817255e+01	1.859632e+02	3.021310e+02	-2.315133e+02	5.336443e+02	-3.825788e+02	-1.420679e+02	4.128087e+01	-1.219582e-17	4.128087e+01	-4.128087e+01
31            	9.630852e+01	-1.030587e+02	1.993672e+02	3.215795e+02	-2.622482e+02	5.838277e+02	-4.230380e+02	-1.512129e+02	4.528614e+01	-1.238165e-17	4.528614e+01	-4.528614e+01
32            	1.018638e+02	-1.052556e+02	2.071194e+02	3.321587e+02	-2.731094e+02	6.052682e+02	-4.391888e+02	-1.561875e+02	4.789832e+01	-1.249175e-17	4.789832e+01	-4.789832e+01
33            	1.035851e+02	-1.042962e+02	2.078813e+02	3.319488e+02	-2.656788e+02	5.976276e+02	-4.316532e+02	-1.560888e+02	4.870774e+01	-1.255362e-17	4.870774e+01	-4.870774e+01
34            	1.017322e+02	-1.007737e+02	2.025059e+02	3.224873e+02	-2.467615e+02	5.692488e+02	-4.080051e+02	-1.516398e+02	4.783645e+01	-1.241502e-17	4.783645e+01	-4.783645e+01
35            	9.851777e+01	-9.678043e+01	1.952982e+02	3.105769e+02	-2.299394e+02	5.405163e+02	-3.852279e+02	-1.460393e+02	4.632497e+01	-1.215630e-17	4.632497e+01	-4.632497e+01
36            	9.699164e+01	-9.447497e+01	1.914666e+02	3.040512e+02	-2.263907e+02	5.304419e+02	-3.784163e+02	-1.429708e+02	4.560736e+01	-1.176055e-17	4.560736e+01	-4.560736e+01
37            	9.827140e+01	-9.411247e+01	1.923839e+02	3.046411e+02	-2.366217e+02	5.412628e+02	-3.889423e+02	-1.432482e+02	4.620912e+01	-1.121039e-17	4.620912e+01	-4.620912e+01
38            	1.028554e+02	-9.572207e+01	1.985775e+02	3.129385e+02	-2.589921e+02	5.719306e+02	-4.154613e+02	-1.471498e+02	4.836461e+01	-1.055228e-17	4.836461e+01	-4.836461e+01
39            	1.089890e+02	-9.818617e+01	2.071752e+02	3.247009e+02	-2.833859e+02	6.080868e+02	-4.457363e+02	-1.526807e+02	5.124875e+01	-9.927613e-18	5.124875e+01	-5.124875e+01
40            	1.136299e+02	-9.956881e+01	2.131987e+02	3.325761e+02	-2.978616e+02	6.304376e+02	-4.641496e+02	-1.563837e+02	5.343097e+01	-9.436511e-18	5.343097e+01	-5.343097e+01
41            	1.157020e+02	-9.906047e+01	2.147625e+02	3.336984e+02	-3.000472e+02	6.337456e+02	-4.668964e+02	-1.569115e+02	5.440532e+01	-9.012786e-18	5.440532e+01	-5.440532e+01
42            	1.155448e+02	-9.680698e+01	2.123518e+02	3.287388e+02	-2.934744e+02	6.222132e+02	-4.578438e+02	-1.545794e+02	5.433140e+01	-8.580959e-18	5.433140e+01	-5.433140e+01
43            	1.140530e+02	-9.369234e+01	2.077454e+02	3.205288e+02	-2.840652e+02	6.045940e+02	-4.443296e+02	-1.507189e+02	5.362995e+01	-8.197284e-18	5.362995e+01	-5.362995e+01
44            	1.128872e+02	-9.106894e+01	2.039561e+02	3.137100e+02	-2.793253e+02	5.930353e+02	-4.361803e+02	-1.475125e+02	5.308174e+01	-7.824953e-18	5.308174e+01	-5.308174e+01
45            	1.131213e+02	-8.950922e+01	2.026305e+02	3.106419e+02	-2.823484e+02	5.929904e+02	-4.376694e+02	-1.460699e+02	5.319183e+01	-7.445527e-18	5.319183e+01	-5.319183e+01
46            	1.149252e+02	-8.893568e+01	2.038609e+02	3.113404e+02	-2.923988e+02	6.037392e+02	-4.480690e+02	-1.463983e+02	5.404008e+01	-7.037827e-18	5.404008e+01	-5.404008e+01
47            	1.176054e+02	-8.896234e+01	2.065677e+02	3.142470e+02	-3.054495e+02	6.196964e+02	-4.625729e+02	-1.477650e+02	5.530034e+01	-6.647510e-18	5.530034e+01	-5.530034e+01
48            	1.198847e+02	-8.889182e+01	2.087766e+02	3.165207e+02	-3.159822e+02	6.325029e+02	-4.742426e+02	-1.488342e+02	5.637214e+01	-6.317090e-18	5.637214e+01	-5.637214e+01
49            	1.209807e+02	-8.820974e+01	2.091904e+02	3.162355e+02	-3.212621e+02	6.374976e+02	-4.793798e+02	-1.487001e+02	5.688745e+01	-6.049982e-18	5.688745e+01	-5.688745e+01
50            	1.209349e+02	-8.686708e+01	2.078020e+02	3.133314e+02	-3.222216e+02	6.355531e+02	-4.788873e+02	-1.473345e+02	5.686595e+01	-5.918465e-18	5.686595e+01	-5.686595e+01
51            	1.201717e+02	-8.510227e+01	2.052740e+02	3.087667e+02	-3.211688e+02	6.299356e+02	-4.755522e+02	-1.451881e+02	5.650708e+01	-5.947014e-18	5.650708e+01	-5.650708e+01
52            	1.191002e+02	-8.324725e+01	2.023475e+02	3.036824e+02	-3.198952e+02	6.235776e+02	-4.717364e+02	-1.427974e+02	5.600324e+01	-6.100911e-18	5.600324e+01	-5.600324e+01
53            	1.179782e+02	-8.150112e+01	1.994793e+02	2.987758e+02	-3.191339e+02	6.179097e+02	-4.685218e+02	-1.404902e+02	5.547563e+01	-6.339892e-18	5.547563e+01	-5.547563e+01
54            	1.167994e+02	-7.981395e+01	1.966133e+02	2.939343e+02	-3.184044e+02	6.123387e+02	-4.653716e+02	-1.382136e+02	5.492133e+01	-6.597701e-18	5.492133e+01	-5.492133e+01
55            	1.153832e+02	-7.803386e+01	1.934171e+02	2.886428e+02	-3.164912e+02	6.051340e+02	-4.608126e+02	-1.357255e+02	5.425542e+01	-6.819892e-18	5.425542e+01	-5.425542e+01
56            	1.135864e+02	-7.604106e+01	1.896274e+02	2.824941e+02	-3.124184e+02	5.949125e+02	-4.536655e+02	-1.328342e+02	5.341051e+01	-6.956485e-18	5.341051e+01	-5.341051e+01
57            	1.113879e+02	-7.380109e+01	1.851890e+02	2.753928e+02	-3.060986e+02	5.814914e+02	-4.437950e+02	-1.294951e+02	5.237678e+01	-7.011897e-18	5.237678e+01	-5.237678e+01
58            	1.089287e+02	-7.133471e+01	1.802635e+02	2.675327e+02	-2.983250e+02	5.658577e+02	-4.320914e+02	-1.257991e+02	5.122041e+01	-7.017575e-18	5.122041e+01	-5.122041e+01
59            	1.063636e+02	-6.870989e+01	1.750735e+02	2.592230e+02	-2.900820e+02	5.493050e+02	-4.196935e+02	-1.218917e+02	5.001425e+01	-6.985012e-18	5.001425e+01	-5.001425e+01
60            	1.038489e+02	-6.598602e+01	1.698349e+02	2.507563e+02	-2.821656e+02	5.329218e+02	-4.075437e+02	-1.179105e+02	4.883177e+01	-6.916454e-18	4.883177e+01	-4.883177e+01
61            	1.013924e+02	-6.320087e+01	1.645933e+02	2.422211e+02	-2.746668e+02	5.168879e+02	-3.957773e+02	-1.138971e+02	4.767667e+01	-6.798267e-18	4.767667e+01	-4.767667e+01
62            	9.899290e+01	-6.037963e+01	1.593725e+02	2.336698e+02	-2.673198e+02	5.009896e+02	-3.841547e+02	-1.098761e+02	4.654838e+01	-6.627257e-18	4.654838e+01	-4.654838e+01
63            	9.668113e+01	-5.761522e+01	1.542964e+02	2.253326e+02	-2.599510e+02	4.852836e+02	-3.726173e+02	-1.059558e+02	4.546135e+01	-6.414284e-18	4.546135e+01	-4.546135e+01
64            	9.445868e+01	-5.487333e+01	1.493320e+02	2.171383e+02	-2.522967e+02	4.694351e+02	-3.608659e+02	-1.021027e+02	4.441631e+01	-6.163607e-18	4.441631e+01	-4.441631e+01
65            	9.210638e+01	-5.199278e+01	1.440992e+02	2.085111e+02	-2.436028e+02	4.521139e+02	-3.478584e+02	-9.804597e+01	4.331021e+01	-5.865196e-18	4.331021e+01	-4.331021e+01
66            	8.949239e+01	-4.882422e+01	1.383166e+02	1.989931e+02	-2.334986e+02	4.324917e+02	-3.329951e+02	-9.357042e+01	4.208106e+01	-5.504652e-18	4.208106e+01	-4.208106e+01
67            	8.661638e+01	-4.542563e+01	1.320420e+02	1.887073e+02	-2.223163e+02	4.110235e+02	-3.166699e+02	-8.873382e+01	4.072870e+01	-5.086321e-18	4.072870e+01	-4.072870e+01
68            	8.366918e+01	-4.193218e+01	1.256014e+02	1.781440e+02	-2.109284e+02	3.890724e+02	-3.000004e+02	-8.376677e+01	3.934287e+01	-4.630092e-18	3.934287e+01	-3.934287e+01
69            	8.076585e+01	-3.848690e+01	1.192527e+02	1.677298e+02	-1.999020e+02	3.676318e+02	-2.837669e+02	-7.886982e+01	3.797767e+01	-4.117184e-18	3.797767e+01	-3.797767e+01
70            	7.809402e+01	-3.518934e+01	1.132834e+02	1.578760e+02	-1.898223e+02	3.476982e+02	-2.687603e+02	-7.423635e+01	3.672132e+01	-3.610853e-18	3.672132e+01	-3.672132e+01
71            	7.561507e+01	-3.206249e+01	1.076776e+02	1.485902e+02	-1.805200e+02	3.291103e+02	-2.548152e+02	-6.987002e+01	3.555567e+01	-3.114967e-18	3.555567e+01	-3.555567e+01
72            	7.319652e+01	-2.899868e+01	1.021952e+02	1.395028e+02	-1.713638e+02	3.108666e+02	-2.411152e+02	-6.559694e+01	3.441843e+01	-2.618500e-18	3.441843e+01	-3.441843e+01
73            	7.059667e+01	-2.589443e+01	9.649110e+01	1.301366e+02	-1.615385e+02	2.916751e+02	-2.266068e+02	-6.119277e+01	3.319593e+01	-2.092259e-18	3.319593e+01	-3.319593e+01
74            	6.774211e+01	-2.268402e+01	9.042613e+01	1.202738e+02	-1.508026e+02	2.710764e+02	-2.109395e+02	-5.655508e+01	3.185366e+01	-1.534364e-18	3.185366e+01	-3.185366e+01
75            	6.464523e+01	-1.943105e+01	8.407628e+01	1.100628e+02	-1.393975e+02	2.494603e+02	-1.944289e+02	-5.175367e+01	3.039744e+01	-9.644478e-19	3.039744e+01	-3.039744e+01
76            	6.143870e+01	-1.620389e+01	7.764259e+01	9.979009e+01	-1.278268e+02	2.276169e+02	-1.777219e+02	-4.692324e+01	2.888967e+01	-3.991875e-19	2.888967e+01	-2.888967e+01
77            	5.826701e+01	-1.314184e+01	7.140885e+01	8.990557e+01	-1.166843e+02	2.065899e+02	-1.616371e+02	-4.227535e+01	2.739828e+01	1.244684e-19	2.739828e+01	-2.739828e+01
78            	5.531501e+01	-1.035209e+01	6.566711e+01	8.083375e+01	-1.065187e+02	1.873525e+02	-1.469356e+02	-3.800960e+01	2.601019e+01	5.758387e-19	2.601019e+01	-2.601019e+01
79            	5.251171e+01	-7.860638e+00	6.037235e+01	7.255441e+01	-9.703790e+01	1.695923e+02	-1.333151e+02	-3.411649e+01	2.469203e+01	9.574991e-19	2.469203e+01	-2.469203e+01
80            	4.970835e+01	-5.556051e+00	5.526440e+01	6.467241e+01	-8.756426e+01	1.522367e+02	-1.199005e+02	-3.041023e+01	2.337383e+01	1.274265e-18	2.337383e+01	-2.337383e+01
81            	4.669862e+01	-3.332574e+00	5.003120e+01	5.674348e+01	-7.741140e+01	1.341549e+02	-1.057831e+02	-2.668189e+01	2.195860e+01	1.553264e-18	2.195860e+01	-2.195860e+01
82            	4.342854e+01	-1.101758e+00	4.453030e+01	4.852209e+01	-6.637117e+01	1.148933e+02	-9.063221e+01	-2.281603e+01	2.042094e+01	1.783357e-18	2.042094e+01	-2.042094e+01
83            	3.993232e+01	1.102727e+00	3.882959e+01	4.011624e+01	-5.466504e+01	9.478128e+01	-7.472316e+01	-1.886343e+01	1.877695e+01	1.969303e-18	1.877695e+01	-1.877695e+01
84            	3.647689e+01	3.159267e+00	3.331763e+01	3.206839e+01	-4.319639e+01	7.526478e+01	-5.923058e+01	-1.507918e+01	1.715214e+01	2.100247e-18	1.715214e+01	-1.715214e+01
85            	3.321745e+01	4.924503e+00	2.829295e+01	2.484845e+01	-3.254865e+01	5.739710e+01	-4.497287e+01	-1.168422e+01	1.561949e+01	2.160235e-18	1.561949e+01	-1.561949e+01
86            	3.020852e+01	6.380524e+00	2.382800e+01	1.855248e+01	-2.280724e+01	4.135972e+01	-3.208348e+01	-8.723736e+00	1.420463e+01	2.149706e-18	1.420463e+01	-1.420463e+01
87            	2.731410e+01	7.563051e+00	1.975105e+01	1.295990e+01	-1.352964e+01	2.648954e+01	-2.000959e+01	-6.093997e+00	1.284362e+01	2.086863e-18	1.284362e+01	-1.284362e+01
88            	2.449523e+01	8.555175e+00	1.594006e+01	7.852593e+00	-4.504527e+00	1.235712e+01	-8.430823e+00	-3.692442e+00	1.151814e+01	1.990097e-18	1.151814e+01	-1.151814e+01
89            	2.173619e+01	9.375785e+00	1.236041e+01	3.173647e+00	4.277354e+00	-1.103707e+00	2.690531e+00	-1.492311e+00	1.022078e+01	1.876919e-18	1.022078e+01	-1.022078e+01
90            	1.912563e+01	1.003361e+01	9.092019e+00	-1.001229e+00	1.258862e+01	-1.358984e+01	1.308923e+01	4.707972e-01	8.993244e+00	1.748118e-18	8.993244e+00	-8.993244e+00
91            	1.669619e+01	1.048267e+01	6.213522e+00	-4.539525e+00	2.022969e+01	-2.476922e+01	2.249946e+01	2.134573e+00	7.850873e+00	1.603135e-18	7.850873e+00	-7.850873e+00
92            	1.456717e+01	1.068643e+01	3.880746e+00	-7.236706e+00	2.682732e+01	-3.406402e+01	3.044567e+01	3.402840e+00	6.849767e+00	1.432178e-18	6.849767e+00	-6.849767e+00
93            	1.282209e+01	1.055418e+01	2.267914e+00	-8.811060e+00	3.202439e+01	-4.083545e+01	3.642992e+01	4.143132e+00	6.029196e+00	1.237080e-18	6.029196e+00	-6.029196e+00
94            	1.153750e+01	1.007348e+01	1.464026e+00	-9.154718e+00	3.561023e+01	-4.476495e+01	4.018759e+01	4.304726e+00	5.425159e+00	1.016303e-18	5.425159e+00	-5.425159e+00
95            	1.065573e+01	9.251174e+00	1.404556e+00	-8.343570e+00	3.768370e+01	-4.602727e+01	4.185549e+01	3.923309e+00	5.010531e+00	7.755996e-19	5.010531e+00	-5.010531e+00
96            	1.017054e+01	8.140194e+00	2.030346e+00	-6.496805e+00	3.833795e+01	-4.483476e+01	4.158636e+01	3.054924e+00	4.782386e+00	5.166979e-19	4.782386e+00	-4.782386e+00
97            	1.006041e+01	6.724457e+00	3.335954e+00	-3.603108e+00	3.760027e+01	-4.120338e+01	3.940183e+01	1.694251e+00	4.730601e+00	2.451983e-19	4.730601e+00	-4.730601e+00
98            	1.036065e+01	5.043042e+00	5.317612e+00	2.919591e-01	3.539634e+01	-3.510438e+01	3.525036e+01	-1.372848e-01	4.871781e+00	-4.463297e-20	4.871781e+00	-4.871781e+00
99            	1.102992e+01	3.096629e+00	7.933287e+00	5.142979e+00	3.176774e+01	-2.662476e+01	2.919625e+01	-2.418329e+00	5.186481e+00	-3.540792e-19	5.186481e+00	-5.186481e+00
100           	1.214538e+01	8.842553e-01	1.126113e+01	1.103407e+01	2.652595e+01	-1.549188e+01	2.100892e+01	-5.188436e+00	5.710995e+00	-6.856976e-19	5.710995e+00	-5.710995e+00
101           	1.366766e+01	-1.604934e+00	1.527260e+01	1.794644e+01	1.974283e+01	-1.796386e+00	1.076961e+01	-8.438766e+00	6.426801e+00	-1.037102e-18	6.426801e+00	-6.426801e+00
102           	1.556931e+01	-4.303906e+00	1.987322e+01	2.570834e+01	1.158514e+01	1.412320e+01	-1.269026e+00	-1.208856e+01	7.320993e+00	-1.407495e-18	7.320993e+00	-7.320993e+00
103           	1.773932e+01	-7.183232e+00	2.492255e+01	3.413915e+01	2.395795e+00	3.174336e+01	-1.467378e+01	-1.605289e+01	8.341374e+00	-1.790533e-18	8.341374e+00	-8.341374e+00
104           	2.017101e+01	-1.019247e+01	3.036348e+01	4.312449e+01	-7.667679e+00	5.079217e+01	-2.922993e+01	-2.027797e+01	9.484801e+00	-2.171912e-18	9.484801e+00	-9.484801e+00
105           	2.275312e+01	-1.329291e+01	3.604603e+01	5.246373e+01	-1.823390e+01	7.069763e+01	-4.446577e+01	-2.466947e+01	1.069896e+01	-2.548479e-18	1.069896e+01	-1.069896e+01
106           	2.546978e+01	-1.642292e+01	4.189270e+01	6.200895e+01	-2.912447e+01	9.113342e+01	-6.012895e+01	-2.915781e+01	1.197638e+01	-2.916991e-18	1.197638e+01	-1.197638e+01
107           	2.824971e+01	-1.957718e+01	4.782690e+01	7.167300e+01	-4.011237e+01	1.117854e+02	-7.594888e+01	-3.370204e+01	1.328356e+01	-3.271485e-18	1.328356e+01	-1.328356e+01
108           	3.109135e+01	-2.270076e+01	5.379210e+01	8.133741e+01	-5.106474e+01	1.324021e+02	-9.173344e+01	-3.824643e+01	1.461976e+01	-3.618870e-18	1.461976e+01	-1.461976e+01
109           	3.389247e+01	-2.578123e+01	5.967370e+01	9.086708e+01	-6.166319e+01	1.525303e+02	-1.070967e+02	-4.272747e+01	1.593690e+01	-3.954331e-18	1.593690e+01	-1.593690e+01
110           	3.667804e+01	-2.878881e+01	6.546685e+01	1.002252e+02	-7.189253e+01	1.721177e+02	-1.220051e+02	-4.712783e+01	1.724673e+01	-4.277819e-18	1.724673e+01	-1.724673e+01
111           	3.936490e+01	-3.173315e+01	7.109805e+01	1.093438e+02	-8.150739e+01	1.908512e+02	-1.361793e+02	-5.141560e+01	1.851014e+01	-4.572744e-18	1.851014e+01	-1.851014e+01
112           	4.198696e+01	-3.458197e+01	7.656893e+01	1.181905e+02	-9.054921e+01	2.087397e+02	-1.496444e+02	-5.557545e+01	1.974308e+01	-4.849980e-18	1.974308e+01	-1.974308e+01
113           	4.447198e+01	-3.734165e+01	8.181363e+01	1.267018e+02	-9.888311e+01	2.255849e+02	-1.622340e+02	-5.957764e+01	2.091159e+01	-5.121318e-18	2.091159e+01	-2.091159e+01
114           	4.683467e+01	-3.996665e+01	8.680132e+01	1.347966e+02	-1.064939e+02	2.412905e+02	-1.738922e+02	-6.338398e+01	2.202257e+01	-5.366566e-18	2.202257e+01	-2.202257e+01
115           	4.897763e+01	-4.246194e+01	9.143956e+01	1.423819e+02	-1.131714e+02	2.555533e+02	-1.843623e+02	-6.695075e+01	2.303023e+01	-5.591274e-18	2.303023e+01	-2.303023e+01
116           	5.092947e+01	-4.479284e+01	9.572231e+01	1.494144e+02	-1.189546e+02	2.683690e+02	-1.936618e+02	-7.025757e+01	2.394803e+01	-5.794296e-18	2.394803e+01	-2.394803e+01
117           	5.266352e+01	-4.701073e+01	9.967424e+01	1.559750e+02	-1.238969e+02	2.798719e+02	-2.018844e+02	-7.334248e+01	2.476341e+01	-5.988265e-18	2.476341e+01	-2.476341e+01
118           	5.426174e+01	-4.910545e+01	1.033672e+02	1.621292e+02	-1.281851e+02	2.903143e+02	-2.092497e+02	-7.623632e+01	2.551492e+01	-6.180591e-18	2.551492e+01	-2.551492e+01
119           	5.570785e+01	-5.112538e+01	1.068332e+02	1.679627e+02	-1.318705e+02	2.998332e+02	-2.158519e+02	-7.897930e+01	2.619491e+01	-6.337396e-18	2.619491e+01	-2.619491e+01
120           	5.707851e+01	-5.304557e+01	1.101241e+02	1.735037e+02	-1.351067e+02	3.086105e+02	-2.218586e+02	-8.158482e+01	2.683943e+01	-6.490140e-18	2.683943e+01	-2.683943e+01
121           	5.833115e+01	-5.489246e+01	1.132236e+02	1.787634e+02	-1.378626e+02	3.166260e+02	-2.272443e+02	-8.405803e+01	2.742844e+01	-6.704325e-18	2.742844e+01	-2.742844e+01
122           	5.950899e+01	-5.662801e+01	1.161370e+02	1.837068e+02	-1.402017e+02	3.239085e+02	-2.320551e+02	-8.638251e+01	2.798229e+01	-6.944600e-18	2.798229e+01	-2.798229e+01
123           	6.056667e+01	-5.828552e+01	1.188522e+02	1.883564e+02	-1.421199e+02	3.304764e+02	-2.362982e+02	-8.856885e+01	2.847962e+01	-7.187597e-18	2.847962e+01	-2.847962e+01
124           	6.155992e+01	-5.984406e+01	1.214040e+02	1.927271e+02	-1.437515e+02	3.364785e+02	-2.401150e+02	-9.062401e+01	2.894667e+01	-7.432520e-18	2.894667e+01	-2.894667e+01
125           	6.246502e+01	-6.134941e+01	1.238144e+02	1.968909e+02	-1.451564e+02	3.420473e+02	-2.436018e+02	-9.258192e+01	2.937227e+01	-7.658116e-18	2.937227e+01	-2.937227e+01
126           	6.335487e+01	-6.278625e+01	1.261411e+02	2.008928e+02	-1.465065e+02	3.473993e+02	-2.469529e+02	-9.446369e+01	2.979069e+01	-7.879810e-18	2.979069e+01	-2.979069e+01
127           	6.420464e+01	-6.418787e+01	1.283925e+02	2.047771e+02	-1.478213e+02	3.525985e+02	-2.502099e+02	-9.629019e+01	3.019027e+01	-8.055598e-18	3.019027e+01	-3.019027e+01
128           	6.507670e+01	-6.553124e+01	1.306079e+02	2.085613e+02	-1.492151e+02	3.577764e+02	-2.534957e+02	-9.806959e+01	3.060033e+01	-8.225697e-18	3.060033e+01	-3.060033e+01
129           	6.595268e+01	-6.684857e+01	1.328012e+02	2.122943e+02	-1.507167e+02	3.630110e+02	-2.568639e+02	-9.982491e+01	3.101223e+01	-8.356188e-18	3.101223e+01	-3.101223e+01
130           	6.689057e+01	-6.811962e+01	1.350102e+02	2.159947e+02	-1.524418e+02	3.684365e+02	-2.604392e+02	-1.015649e+02	3.145325e+01	-8.486984e-18	3.145325e+01	-3.145325e+01
131           	6.786987e+01	-6.938086e+01	1.372507e+02	2.197183e+02	-1.544190e+02	3.741373e+02	-2.642781e+02	-1.033158e+02	3.191373e+01	-8.590358e-18	3.191373e+01	-3.191373e+01
132           	6.894558e+01	-7.062319e+01	1.395688e+02	2.235041e+02	-1.567664e+02	3.802705e+02	-2.685185e+02	-1.050960e+02	3.241955e+01	-8.685632e-18	3.241955e+01	-3.241955e+01
133           	7.008295e+01	-7.187453e+01	1.419575e+02	2.273747e+02	-1.594512e+02	3.868259e+02	-2.731385e+02	-1.069160e+02	3.295436e+01	-8.760368e-18	3.295436e+01	-3.295436e+01
134           	7.131286e+01	-7.310519e+01	1.444181e+02	2.312997e+02	-1.624911e+02	3.937908e+02	-2.781409e+02	-1.087616e+02	3.353269e+01	-8.836852e-18	3.353269e+01	-3.353269e+01
135           	7.259230e+01	-7.432868e+01	1.469210e+02	2.352621e+02	-1.658140e+02	4.010761e+02	-2.834450e+02	-1.106248e+02	3.413431e+01	-8.898927e-18	3.413431e+01	-3.413431e+01
136           	7.395878e+01	-7.551351e+01	1.494723e+02	2.392349e+02	-1.694572e+02	4.086921e+02	-2.890746e+02	-1.124929e+02	3.477686e+01	-8.944982e-18	3.477686e+01	-3.477686e+01
137           	7.538511e+01	-7.668277e+01	1.520679e+02	2.432382e+02	-1.734070e+02	4.166452e+02	-2.950261e+02	-1.143753e+02	3.544754e+01	-8.973096e-18	3.544754e+01	-3.544754e+01
138           	7.691860e+01	-7.781804e+01	1.547366e+02	2.472832e+02	-1.777595e+02	4.250427e+02	-3.014011e+02	-1.162773e+02	3.616862e+01	-8.989852e-18	3.616862e+01	-3.616862e+01
139           	7.853019e+01	-7.894529e+01	1.574755e+02	2.513941e+02	-1.824953e+02	4.338894e+02	-3.081923e+02	-1.182104e+02	3.692642e+01	-8.999185e-18	3.692642e+01	-3.692642e+01
140           	8.025332e+01	-8.004070e+01	1.602940e+02	2.555559e+02	-1.876606e+02	4.432165e+02	-3.154386e+02	-1.201674e+02	3.773667e+01	-8.996727e-18	3.773667e+01	-3.773667e+01
141           	8.204301e+01	-8.111994e+01	1.631629e+02	2.597541e+02	-1.931818e+02	4.529360e+02	-3.230589e+02	-1.221414e+02	3.857822e+01	-8.984671e-18	3.857822e+01	-3.857822e+01
142           	8.392895e+01	-8.215598e+01	1.660849e+02	2.639628e+02	-1.991064e+02	4.630693e+02	-3.310878e+02	-1.241205e+02	3.946503e+01	-8.948407e-18	3.946503e+01	-3.946503e+01
143           	8.587089e+01	-8.316497e+01	1.690359e+02	2.681735e+02	-2.053775e+02	4.735510e+02	-3.394643e+02	-1.261004e+02	4.037816e+01	-8.893179e-18	4.037816e+01	-4.037816e+01
144           	8.789952e+01	-8.412205e+01	1.720216e+02	2.723660e+02	-2.120459e+02	4.844119e+02	-3.482289e+02	-1.280718e+02	4.133206e+01	-8.817189e-18	4.133206e+01	-4.133206e+01
145           	8.996547e+01	-8.504079e+01	1.750063e+02	2.765167e+02	-2.190272e+02	4.955438e+02	-3.572855e+02	-1.300235e+02	4.230351e+01	-8.733352e-18	4.230351e+01	-4.230351e+01
146           	9.208189e+01	-8.588838e+01	1.779703e+02	2.805697e+02	-2.263160e+02	5.068857e+02	-3.666009e+02	-1.319293e+02	4.329870e+01	-8.624109e-18	4.329870e+01	-4.329870e+01
147           	9.419970e+01	-8.667854e+01	1.808782e+02	2.845020e+02	-2.338134e+02	5.183155e+02	-3.760645e+02	-1.337784e+02	4.429453e+01	-8.512865e-18	4.429453e+01	-4.429453e+01
148           	9.633024e+01	-8.737970e+01	1.837099e+02	2.882587e+02	-2.415074e+02	5.297661e+02	-3.856367e+02	-1.355448e+02	4.529635e+01	-8.392025e-18	4.529635e+01	-4.529635e+01
149           	9.841288e+01	-8.799936e+01	1.864122e+02	2.917910e+02	-2.492547e+02	5.410458e+02	-3.951503e+02	-1.372058e+02	4.627565e+01	-8.278596e-18	4.627565e+01	-4.627565e+01
150           	1.004612e+02	-8.851376e+01	1.889749e+02	2.950630e+02	-2.570299e+02	5.520929e+02	-4.045614e+02	-1.387443e+02	4.723880e+01	-8.163975e-18	4.723880e+01	-4.723880e+01
151           	1.024114e+02	-8.893838e+01	1.913498e+02	2.980398e+02	-2.646577e+02	5.626975e+02	-4.136776e+02	-1.401441e+02	4.815585e+01	-8.069290e-18	4.815585e+01	-4.815585e+01
152           	1.042625e+02	-8.923968e+01	1.935022e+02	3.006488e+02	-2.720584e+02	5.727072e+02	-4.223828e+02	-1.413709e+02	4.902625e+01	-7.988659e-18	4.902625e+01	-4.902625e+01
153           	1.059444e+02	-8.941767e+01	1.953621e+02	3.028158e+02	-2.790482e+02	5.818640e+02	-4.304561e+02	-1.423899e+02	4.981713e+01	-7.935909e-18	4.981713e+01	-4.981713e+01
154           	1.074633e+02	-8.943087e+01	1.968942e+02	3.044589e+02	-2.855753e+02	5.900342e+02	-4.378047e+02	-1.431625e+02	5.053133e+01	-7.895877e-18	5.053133e+01	-5.053133e+01
155           	1.087666e+02	-8.928522e+01	1.980518e+02	3.055350e+02	-2.915070e+02	5.970421e+02	-4.442745e+02	-1.436685e+02	5.114417e+01	-7.888572e-18	5.114417e+01	-5.114417e+01
156           	1.098660e+02	-8.895069e+01	1.988167e+02	3.059927e+02	-2.967819e+02	6.027746e+02	-4.497783e+02	-1.438837e+02	5.166115e+01	-7.897989e-18	5.166115e+01	-5.166115e+01
157           	1.107037e+02	-8.844240e+01	1.991461e+02	3.058024e+02	-3.012002e+02	6.070026e+02	-4.541014e+02	-1.437942e+02	5.205502e+01	-7.935834e-18	5.205502e+01	-5.205502e+01
158           	1.112813e+02	-8.774213e+01	1.990235e+02	3.049274e+02	-3.046312e+02	6.095586e+02	-4.570949e+02	-1.433828e+02	5.232664e+01	-8.000237e-18	5.232664e+01	-5.232664e+01
159           	1.115641e+02	-8.687919e+01	1.984433e+02	3.033929e+02	-3.069619e+02	6.103548e+02	-4.586583e+02	-1.426613e+02	5.245963e+01	-8.072135e-18	5.245963e+01	-5.245963e+01
160           	1.115732e+02	-8.582174e+01	1.973950e+02	3.011538e+02	-3.081682e+02	6.093220e+02	-4.587451e+02	-1.416083e+02	5.246390e+01	-8.163374e-18	5.246390e+01	-5.246390e+01
161           	1.112596e+02	-8.455563e+01	1.958152e+02	2.981277e+02	-3.081257e+02	6.062533e+02	-4.571895e+02	-1.401854e+02	5.231642e+01	-8.236995e-18	5.231642e+01	-5.231642e+01
162           	1.106346e+02	-8.301727e+01	1.936519e+02	2.941915e+02	-3.067950e+02	6.009866e+02	-4.538908e+02	-1.383346e+02	5.202254e+01	-8.305366e-18	5.202254e+01	-5.202254e+01
163           	1.096488e+02	-8.119036e+01	1.908392e+02	2.892581e+02	-3.040450e+02	5.933030e+02	-4.486740e+02	-1.360148e+02	5.155900e+01	-8.323579e-18	5.155900e+01	-5.155900e+01
164           	1.083430e+02	-7.905487e+01	1.873978e+02	2.833280e+02	-2.999124e+02	5.832404e+02	-4.415764e+02	-1.332264e+02	5.094497e+01	-8.288980e-18	5.094497e+01	-5.094497e+01
165           	1.067205e+02	-7.666311e+01	1.833836e+02	2.765163e+02	-2.944336e+02	5.709499e+02	-4.326917e+02	-1.300233e+02	5.018204e+01	-8.167797e-18	5.018204e+01	-5.018204e+01