# Force and moment coefficients
# dragDir     : (9.205049e-01 3.907311e-01 0.000000e+00)
# sideDir     : (0.000000e+00 0.000000e+00 -1.000000e+00)
# liftDir     : (-3.907311e-01 9.205049e-01 0.000000e+00)
# rollAxis    : (9.205049e-01 3.907311e-01 0.000000e+00)
# pitchAxis   : (0.000000e+00 0.000000e+00 -1.000000e+00)
# yawAxis     : (-3.907311e-01 9.205049e-01 0.000000e+00)
# magUInf     : 1.000000e+00
# lRef        : 3.190000e-01
# Aref        : 1.595000e-03
# CofR        : (0.000000e+00 0.000000e+00 0.000000e+00)
#
# Time        	Cd            	Cd(f)         	Cd(r)         	Cl            	Cl(f)         	Cl(r)         	CmPitch       	CmRoll        	CmYaw         	Cs            	Cs(f)         	Cs(r)         
1             	7.383336e+02	-3.297512e+02	1.068085e+03	1.486366e+03	-2.021580e+03	3.507945e+03	-2.764763e+03	-6.989180e+02	3.471788e+02	-2.037673e-18	3.471788e+02	-3.471788e+02
2             	6.259430e+02	-3.258207e+02	9.517638e+02	1.358498e+03	-1.721338e+03	3.079836e+03	-2.400587e+03	-6.387923e+02	2.943306e+02	-1.426644e-17	2.943306e+02	-2.943306e+02
3             	3.373532e+01	-9.160896e+01	1.253443e+02	2.306936e+02	-6.029384e+00	2.367230e+02	-1.213762e+02	-1.084766e+02	1.586301e+01	-2.912166e-17	1.586301e+01	-1.586301e+01
4             	-2.935193e+02	1.097481e+02	-4.032674e+02	-5.455066e+02	1.088201e+03	-1.633708e+03	1.360955e+03	2.565078e+02	-1.380185e+02	-1.874235e-17	-1.380185e+02	1.380185e+02
5             	-2.457856e+02	1.164658e+02	-3.622514e+02	-5.090360e+02	9.384024e+02	-1.447438e+03	1.192920e+03	2.393586e+02	-1.155732e+02	-9.134170e-18	-1.155732e+02	1.155732e+02
6             	-1.187630e+01	3.407882e-01	-1.221708e+01	-1.335320e+01	1.562301e+02	-1.695833e+02	1.629067e+02	6.278936e+00	-5.584465e+00	-5.328829e-18	-5.584465e+00	5.584465e+00
7             	2.319754e+02	-1.477072e+02	3.796826e+02	5.607911e+02	-7.065190e+02	1.267310e+03	-9.869146e+02	-2.636949e+02	1.090793e+02	-1.309250e-17	1.090793e+02	-1.090793e+02
8             	2.526353e+02	-1.832654e+02	4.359007e+02	6.583799e+02	-8.269338e+02	1.485314e+03	-1.156124e+03	-3.095830e+02	1.187940e+02	-1.660059e-17	1.187940e+02	-1.187940e+02
9             	1.703337e+02	-1.322796e+02	3.026133e+02	4.624362e+02	-5.842154e+02	1.046652e+03	-8.154335e+02	-2.174465e+02	8.009420e+01	-1.438471e-17	8.009420e+01	-8.009420e+01
10            	8.341148e+01	-6.194715e+01	1.453586e+02	2.204352e+02	-1.326886e+02	3.531238e+02	-2.429062e+02	-1.036529e+02	3.922170e+01	-5.755490e-18	3.922170e+01	-3.922170e+01
11            	4.449570e+01	-4.344172e+01	8.793743e+01	1.396998e+02	1.194405e+02	2.025935e+01	4.959056e+01	-6.568958e+01	2.092274e+01	-3.767082e-18	2.092274e+01	-2.092274e+01
12            	3.983503e+01	-6.151715e+01	1.013522e+02	1.731844e+02	1.235721e+02	4.961233e+01	3.697987e+01	-8.143467e+01	1.873121e+01	-7.397307e-18	1.873121e+01	-1.873121e+01
13            	5.720309e+01	-8.210061e+01	1.393037e+02	2.354266e+02	-4.077230e+00	2.395038e+02	-1.217905e+02	-1.107022e+02	2.689801e+01	-1.012167e-17	2.689801e+01	-2.689801e+01
14            	7.839891e+01	-9.289561e+01	1.712945e+02	2.809222e+02	-1.728285e+02	4.537507e+02	-3.132896e+02	-1.320951e+02	3.686469e+01	-1.091628e-17	3.686469e+01	-3.686469e+01
15            	7.692327e+01	-8.754292e+01	1.644662e+02	2.679697e+02	-2.228503e+02	4.908200e+02	-3.568351e+02	-1.260046e+02	3.617082e+01	-1.125984e-17	3.617082e+01	-3.617082e+01
16            	9.160635e+01	-7.569201e+01	1.672984e+02	2.583798e+02	-2.824915e+02	5.408713e+02	-4.116814e+02	-1.214952e+02	4.307509e+01	-9.361089e-18	4.307509e+01	-4.307509e+01
17            	1.158668e+02	-8.263847e+01	1.985053e+02	2.989495e+02	-2.706283e+02	5.695778e+02	-4.201030e+02	-1.405719e+02	5.448282e+01	-7.226792e-18	5.448282e+01	-5.448282e+01
18            	1.364126e+02	-1.010733e+02	2.374859e+02	3.600012e+02	-2.465486e+02	6.065499e+02	-4.265492e+02	-1.692796e+02	6.414387e+01	-6.810967e-18	6.414387e+01	-6.414387e+01
19            	1.461949e+02	-1.208608e+02	2.670557e+02	4.124845e+02	-2.030941e+02	6.155786e+02	-4.093363e+02	-1.939582e+02	6.874370e+01	-6.771837e-18	6.874370e+01	-6.874370e+01
20            	1.417440e+02	-1.186961e+02	2.604401e+02	4.031482e+02	-1.652248e+02	5.683730e+02	-3.667989e+02	-1.895681e+02	6.665077e+01	-5.314534e-18	6.665077e+01	-6.665077e+01
21            	1.171515e+02	-1.005459e+02	2.176974e+02	3.383987e+02	-1.591626e+02	4.975613e+02	-3.283619e+02	-1.591217e+02	5.508691e+01	-6.442970e-18	5.508691e+01	-5.508691e+01
22            	7.122013e+01	-6.456226e+01	1.357824e+02	2.130331e+02	-1.406315e+02	3.536647e+02	-2.471481e+02	-1.001723e+02	3.348909e+01	-7.045200e-18	3.348909e+01	-3.348909e+01
23            	7.278922e+01	-5.464699e+01	1.274362e+02	1.936151e+02	-1.476920e+02	3.413071e+02	-2.444996e+02	-9.104160e+01	3.422690e+01	-5.696489e-18	3.422690e+01	-3.422690e+01
24            	9.399731e+01	-7.258919e+01	1.665865e+02	2.543235e+02	-1.791580e+02	4.334815e+02	-3.063197e+02	-1.195878e+02	4.419936e+01	-6.988869e-18	4.419936e+01	-4.419936e+01
25            	1.174172e+02	-9.876684e+01	2.161840e+02	3.348977e+02	-2.376208e+02	5.725186e+02	-4.050697e+02	-1.574754e+02	5.521184e+01	-1.011373e-17	5.521184e+01	-5.521184e+01
26            	1.633548e+02	-1.316565e+02	2.950113e+02	4.536900e+02	-3.483493e+02	8.020393e+02	-5.751943e+02	-2.133339e+02	7.681260e+01	-1.090663e-17	7.681260e+01	-7.681260e+01
27            	1.760773e+02	-1.306108e+02	3.066881e+02	4.649945e+02	-3.650760e+02	8.300705e+02	-5.975732e+02	-2.186495e+02	8.279496e+01	-8.304261e-18	8.279496e+01	-8.279496e+01
28            	1.610647e+02	-1.141298e+02	2.751945e+02	4.139815e+02	-3.281532e+02	7.421347e+02	-5.351440e+02	-1.946622e+02	7.573575e+01	-7.367038e-18	7.573575e+01	-7.573575e+01
29            	1.160252e+02	-7.728753e+01	1.933127e+02	2.877383e+02	-2.032416e+02	4.909799e+02	-3.471108e+02	-1.353001e+02	5.455729e+01	-4.837726e-18	5.455729e+01	-5.455729e+01
30            	9.413697e+01	-6.372859e+01	1.578656e+02	2.356284e+02	-1.383884e+02	3.740168e+02	-2.562026e+02	-1.107971e+02	4.426503e+01	-4.558396e-18	4.426503e+01	-4.426503e+01
31            	1.032985e+02	-7.584682e+01	1.791453e+02	2.711416e+02	-1.723314e+02	4.434730e+02	-3.079022e+02	-1.274961e+02	4.857296e+01	-6.557435e-18	4.857296e+01	-4.857296e+01
32            	1.308803e+02	-9.682226e+01	2.277026e+02	3.450781e+02	-2.857766e+02	6.308547e+02	-4.583157e+02	-1.622624e+02	6.154247e+01	-8.643796e-18	6.154247e+01	-6.154247e+01
33            	1.649178e+02	-1.126849e+02	2.776027e+02	4.150059e+02	-4.024488e+02	8.174546e+02	-6.099517e+02	-1.951438e+02	7.754753e+01	-8.690222e-18	7.754753e+01	-7.754753e+01
34            	1.803281e+02	-1.139892e+02	2.943172e+02	4.341658e+02	-4.416423e+02	8.758081e+02	-6.587252e+02	-2.041532e+02	8.479376e+01	-7.533783e-18	8.479376e+01	-8.479376e+01
35            	1.764955e+02	-1.074622e+02	2.839577e+02	4.162099e+02	-4.093210e+02	8.255308e+02	-6.174259e+02	-1.957100e+02	8.299160e+01	-6.716554e-18	8.299160e+01	-8.299160e+01
36            	1.620243e+02	-9.620885e+01	2.582331e+02	3.768900e+02	-3.442194e+02	7.211094e+02	-5.326644e+02	-1.772210e+02	7.618696e+01	-5.496794e-18	7.618696e+01	-7.618696e+01
37            	1.497470e+02	-8.900055e+01	2.387476e+02	3.485055e+02	-2.991625e+02	6.476680e+02	-4.734153e+02	-1.638741e+02	7.041396e+01	-5.136155e-18	7.041396e+01	-7.041396e+01
38            	1.465413e+02	-8.826721e+01	2.348085e+02	3.435372e+02	-3.025700e+02	6.461072e+02	-4.743386e+02	-1.615379e+02	6.890659e+01	-5.245391e-18	6.890659e+01	-6.890659e+01
39            	1.526671e+02	-9.207750e+01	2.447446e+02	3.581542e+02	-3.482066e+02	7.063608e+02	-5.272837e+02	-1.684111e+02	7.178704e+01	-5.529203e-18	7.178704e+01	-7.178704e+01
40            	1.657484e+02	-9.799762e+01	2.637461e+02	3.846541e+02	-4.121802e+02	7.968343e+02	-6.045073e+02	-1.808718e+02	7.793813e+01	-5.424522e-18	7.793813e+01	-7.793813e+01
41            	1.775264e+02	-1.024042e+02	2.799306e+02	4.065493e+02	-4.568858e+02	8.634351e+02	-6.601604e+02	-1.911674e+02	8.347634e+01	-5.226269e-18	8.347634e+01	-8.347634e+01
42            	1.818868e+02	-1.030066e+02	2.848934e+02	4.124670e+02	-4.644968e+02	8.769637e+02	-6.707303e+02	-1.939500e+02	8.552672e+01	-5.016984e-18	8.552672e+01	-8.552672e+01
43            	1.793037e+02	-9.987873e+01	2.791824e+02	4.030684e+02	-4.443778e+02	8.474462e+02	-6.459120e+02	-1.895306e+02	8.431208e+01	-4.805254e-18	8.431208e+01	-8.431208e+01
44            	1.715640e+02	-9.386907e+01	2.654331e+02	3.820580e+02	-4.105756e+02	7.926335e+02	-6.016046e+02	-1.796511e+02	8.067274e+01	-4.672593e-18	8.067274e+01	-8.067274e+01
45            	1.631055e+02	-8.782219e+01	2.509277e+02	3.602040e+02	-3.835204e+02	7.437244e+02	-5.636224e+02	-1.693749e+02	7.669537e+01	-4.738394e-18	7.669537e+01	-7.669537e+01
46            	1.584351e+02	-8.419160e+01	2.426267e+02	3.475168e+02	-3.763407e+02	7.238574e+02	-5.500991e+02	-1.634091e+02	7.449925e+01	-4.991025e-18	7.449925e+01	-7.449925e+01
47            	1.584376e+02	-8.300071e+01	2.414383e+02	3.449868e+02	-3.878242e+02	7.328110e+02	-5.603176e+02	-1.622195e+02	7.450044e+01	-5.374285e-18	7.450044e+01	-7.450044e+01
48            	1.622971e+02	-8.340208e+01	2.456992e+02	3.499443e+02	-4.108053e+02	7.607496e+02	-5.857775e+02	-1.645506e+02	7.631525e+01	-5.734143e-18	7.631525e+01	-7.631525e+01
49            	1.674812e+02	-8.395188e+01	2.514331e+02	3.566260e+02	-4.323953e+02	7.890213e+02	-6.107083e+02	-1.676925e+02	7.875290e+01	-5.898308e-18	7.875290e+01	-7.875290e+01
50            	1.705936e+02	-8.314708e+01	2.537407e+02	3.582240e+02	-4.409860e+02	7.992100e+02	-6.200980e+02	-1.684439e+02	8.021642e+01	-5.851716e-18	8.021642e+01	-8.021642e+01
51            	1.700382e+02	-8.032445e+01	2.503627e+02	3.516307e+02	-4.341396e+02	7.857703e+02	-6.099549e+02	-1.653436e+02	7.995529e+01	-5.632092e-18	7.995529e+01	-7.995529e+01
52            	1.659855e+02	-7.567046e+01	2.416559e+02	3.374237e+02	-4.161654e+02	7.535892e+02	-5.848773e+02	-1.586632e+02	7.804959e+01	-5.271999e-18	7.804959e+01	-7.804959e+01
53            	1.605930e+02	-7.055573e+01	2.311487e+02	3.208124e+02	-3.974383e+02	7.182507e+02	-5.578445e+02	-1.508522e+02	7.551394e+01	-4.878741e-18	7.551394e+01	-7.551394e+01
54            	1.566394e+02	-6.649986e+01	2.231392e+02	3.079829e+02	-3.876380e+02	6.956209e+02	-5.416294e+02	-1.448195e+02	7.365487e+01	-4.505678e-18	7.365487e+01	-7.365487e+01
55            	1.550576e+02	-6.380035e+01	2.188580e+02	3.005600e+02	-3.882289e+02	6.887889e+02	-5.385089e+02	-1.413292e+02	7.291112e+01	-4.109130e-18	7.291112e+01	-7.291112e+01
56            	1.553292e+02	-6.197911e+01	2.173083e+02	2.969756e+02	-3.951304e+02	6.921060e+02	-5.436182e+02	-1.396437e+02	7.303882e+01	-3.694403e-18	7.303882e+01	-7.303882e+01
57            	1.560085e+02	-6.024758e+01	2.162561e+02	2.940156e+02	-4.011474e+02	6.951630e+02	-5.481552e+02	-1.382518e+02	7.335824e+01	-3.203676e-18	7.335824e+01	-7.335824e+01
58            	1.554365e+02	-5.780842e+01	2.132449e+02	2.882201e+02	-4.000454e+02	6.882654e+02	-5.441554e+02	-1.355267e+02	7.308927e+01	-2.612847e-18	7.308927e+01	-7.308927e+01
59            	1.527591e+02	-5.429951e+01	2.070586e+02	2.779108e+02	-3.902969e+02	6.682076e+02	-5.292522e+02	-1.306790e+02	7.183029e+01	-1.880914e-18	7.183029e+01	-7.183029e+01
60            	1.482931e+02	-4.997939e+01	1.982725e+02	2.639745e+02	-3.751949e+02	6.391694e+02	-5.071821e+02	-1.241259e+02	6.973029e+01	-1.063559e-18	6.973029e+01	-6.973029e+01
61            	1.432127e+02	-4.559411e+01	1.888068e+02	2.492463e+02	-3.605015e+02	6.097478e+02	-4.851246e+02	-1.172005e+02	6.734140e+01	-2.236080e-19	6.734140e+01	-6.734140e+01
62            	1.387468e+02	-4.180183e+01	1.805486e+02	2.364327e+02	-3.506099e+02	5.870426e+02	-4.688263e+02	-1.111752e+02	6.524144e+01	5.616682e-19	6.524144e+01	-6.524144e+01
63            	1.353191e+02	-3.875420e+01	1.740733e+02	2.263066e+02	-3.458340e+02	5.721405e+02	-4.589873e+02	-1.064137e+02	6.362966e+01	1.282334e-18	6.362966e+01	-6.362966e+01
64            	1.325162e+02	-3.609771e+01	1.686139e+02	2.176767e+02	-3.430406e+02	5.607173e+02	-4.518789e+02	-1.023558e+02	6.231168e+01	1.825281e-18	6.231168e+01	-6.231168e+01
65            	1.296530e+02	-3.340965e+01	1.630627e+02	2.089156e+02	-3.385690e+02	5.474846e+02	-4.430268e+02	-9.823615e+01	6.096537e+01	2.289283e-18	6.096537e+01	-6.096537e+01
66            	1.262026e+02	-3.039189e+01	1.565945e+02	1.988289e+02	-3.303251e+02	5.291539e+02	-4.297395e+02	-9.349319e+01	5.934292e+01	2.564987e-18	5.934292e+01	-5.934292e+01
67            	1.217755e+02	-2.698972e+01	1.487652e+02	1.868860e+02	-3.176648e+02	5.045508e+02	-4.111078e+02	-8.787745e+01	5.726119e+01	2.742837e-18	5.726119e+01	-5.726119e+01
68            	1.164219e+02	-2.334215e+01	1.397641e+02	1.734363e+02	-3.018093e+02	4.752456e+02	-3.885274e+02	-8.155310e+01	5.474384e+01	2.860077e-18	5.474384e+01	-5.474384e+01
69            	1.105034e+02	-1.971285e+01	1.302163e+02	1.594246e+02	-2.848881e+02	4.443127e+02	-3.646004e+02	-7.496455e+01	5.196085e+01	2.886293e-18	5.196085e+01	-5.196085e+01
70            	1.046107e+02	-1.632165e+01	1.209323e+02	1.459468e+02	-2.689745e+02	4.149213e+02	-3.419479e+02	-6.862700e+01	4.918999e+01	2.899789e-18	4.918999e+01	-4.918999e+01
71            	9.913401e+01	-1.332981e+01	1.124638e+02	1.337605e+02	-2.548627e+02	3.886233e+02	-3.217430e+02	-6.289681e+01	4.661474e+01	2.732065e-18	4.661474e+01	-4.661474e+01
72            	9.453891e+01	-1.085272e+01	1.053916e+02	1.236065e+02	-2.431443e+02	3.667508e+02	-3.049475e+02	-5.812218e+01	4.445403e+01	2.544264e-18	4.445403e+01	-4.445403e+01
73            	9.067565e+01	-8.803759e+00	9.947940e+01	1.151411e+02	-2.327631e+02	3.479042e+02	-2.903336e+02	-5.414158e+01	4.263745e+01	2.227959e-18	4.263745e+01	-4.263745e+01
74            	8.693236e+01	-6.914060e+00	9.384642e+01	1.071420e+02	-2.215482e+02	3.286902e+02	-2.751192e+02	-5.038024e+01	4.087729e+01	1.925782e-18	4.087729e+01	-4.087729e+01
75            	8.256185e+01	-4.952320e+00	8.751417e+01	9.832270e+01	-2.074351e+02	3.057578e+02	-2.565965e+02	-4.623324e+01	3.882218e+01	1.624778e-18	3.882218e+01	-3.882218e+01
76            	7.744437e+01	-2.833788e+00	8.027816e+01	8.837570e+01	-1.905811e+02	2.789568e+02	-2.347690e+02	-4.155597e+01	3.641585e+01	1.443965e-18	3.641585e+01	-3.641585e+01
77            	7.232848e+01	-8.472635e-01	7.317574e+01	7.871113e+01	-1.738876e+02	2.525987e+02	-2.132432e+02	-3.701150e+01	3.401026e+01	1.350439e-18	3.401026e+01	-3.401026e+01
78            	6.809922e+01	6.509946e-01	6.744823e+01	7.102773e+01	-1.601676e+02	2.311954e+02	-1.956815e+02	-3.339862e+01	3.202158e+01	1.281334e-18	3.202158e+01	-3.202158e+01
79            	6.455701e+01	1.638298e+00	6.291872e+01	6.516151e+01	-1.486027e+02	2.137643e+02	-1.811835e+02	-3.064021e+01	3.035596e+01	1.202532e-18	3.035596e+01	-3.035596e+01
80            	6.131169e+01	2.226479e+00	5.908521e+01	6.045979e+01	-1.376464e+02	1.981062e+02	-1.678763e+02	-2.842937e+01	2.882995e+01	1.106885e-18	2.882995e+01	-2.882995e+01
81            	5.821649e+01	2.489348e+00	5.572714e+01	5.660952e+01	-1.266831e+02	1.832926e+02	-1.549879e+02	-2.661890e+01	2.737452e+01	1.007410e-18	2.737452e+01	-2.737452e+01
82            	5.531842e+01	2.550976e+00	5.276744e+01	5.339684e+01	-1.158534e+02	1.692502e+02	-1.425518e+02	-2.510823e+01	2.601180e+01	9.098781e-19	2.601180e+01	-2.601180e+01
83            	5.266861e+01	2.455327e+00	5.021328e+01	5.078263e+01	-1.055378e+02	1.563204e+02	-1.309291e+02	-2.387898e+01	2.476580e+01	8.079031e-19	2.476580e+01	-2.476580e+01
84            	5.008185e+01	2.241499e+00	4.784035e+01	4.848678e+01	-9.526894e+01	1.437557e+02	-1.195123e+02	-2.279943e+01	2.354946e+01	7.053361e-19	2.354946e+01	-2.354946e+01
85            	4.755291e+01	1.817668e+00	4.573524e+01	4.669902e+01	-8.517667e+01	1.318757e+02	-1.085262e+02	-2.195878e+01	2.236030e+01	5.836847e-19	2.236030e+01	-2.236030e+01
86            	4.532210e+01	1.083174e+00	4.423893e+01	4.588895e+01	-7.609279e+01	1.219817e+02	-9.903726e+01	-2.157788e+01	2.131133e+01	4.165645e-19	2.131133e+01	-2.131133e+01
87            	4.370363e+01	-9.161840e-02	4.379525e+01	4.666637e+01	-6.901469e+01	1.156811e+02	-9.234788e+01	-2.194343e+01	2.055030e+01	1.925906e-19	2.055030e+01	-2.055030e+01
88            	4.270333e+01	-1.662888e+00	4.436622e+01	4.894428e+01	-6.385075e+01	1.127950e+02	-8.832289e+01	-2.301455e+01	2.007994e+01	-8.246961e-20	2.007994e+01	-2.007994e+01
89            	4.217715e+01	-3.566315e+00	4.574346e+01	5.243273e+01	-6.010081e+01	1.125335e+02	-8.631717e+01	-2.465489e+01	1.983251e+01	-3.879359e-19	1.983251e+01	-1.983251e+01
90            	4.204275e+01	-5.712818e+00	4.775557e+01	5.685472e+01	-5.749205e+01	1.143468e+02	-8.591941e+01	-2.673419e+01	1.976932e+01	-7.167418e-19	1.976932e+01	-1.976932e+01
91            	4.224467e+01	-8.065534e+00	5.031021e+01	6.207287e+01	-5.600630e+01	1.180792e+02	-8.704273e+01	-2.918787e+01	1.986427e+01	-1.055240e-18	1.986427e+01	-1.986427e+01
92            	4.250072e+01	-1.047902e+01	5.297974e+01	6.747782e+01	-5.473815e+01	1.222160e+02	-8.847706e+01	-3.172938e+01	1.998467e+01	-1.400173e-18	1.998467e+01	-1.998467e+01
93            	4.302830e+01	-1.304278e+01	5.607108e+01	7.349107e+01	-5.445911e+01	1.279502e+02	-9.120464e+01	-3.455693e+01	2.023274e+01	-1.741155e-18	2.023274e+01	-2.023274e+01
94            	4.405381e+01	-1.581990e+01	5.987372e+01	8.048755e+01	-5.590380e+01	1.363914e+02	-9.614758e+01	-3.784681e+01	2.071496e+01	-2.115472e-18	2.071496e+01	-2.071496e+01
95            	4.553859e+01	-1.884991e+01	6.438850e+01	8.851018e+01	-5.903938e+01	1.475496e+02	-1.032945e+02	-4.161920e+01	2.141313e+01	-2.502258e-18	2.141313e+01	-2.141313e+01
96            	4.729132e+01	-2.193812e+01	6.922944e+01	9.694151e+01	-6.323166e+01	1.601732e+02	-1.117024e+02	-4.558378e+01	2.223730e+01	-2.888824e-18	2.223730e+01	-2.223730e+01
97            	4.936231e+01	-2.513247e+01	7.449477e+01	1.059370e+02	-6.871033e+01	1.746473e+02	-1.216788e+02	-4.981362e+01	2.321112e+01	-3.269231e-18	2.321112e+01	-2.321112e+01
98            	5.181805e+01	-2.847052e+01	8.028857e+01	1.156472e+02	-7.560429e+01	1.912514e+02	-1.334279e+02	-5.437954e+01	2.436585e+01	-3.655978e-18	2.436585e+01	-2.436585e+01
99            	5.425563e+01	-3.169097e+01	8.594659e+01	1.250879e+02	-8.260645e+01	2.076944e+02	-1.451504e+02	-5.881878e+01	2.551205e+01	-3.987386e-18	2.551205e+01	-2.551205e+01
100           	5.677877e+01	-3.480325e+01	9.158201e+01	1.343897e+02	-8.995487e+01	2.243445e+02	-1.571497e+02	-6.319263e+01	2.669848e+01	-4.289781e-18	2.669848e+01	-2.669848e+01
101           	5.942315e+01	-3.789959e+01	9.732273e+01	1.437864e+02	-9.783228e+01	2.416187e+02	-1.697255e+02	-6.761116e+01	2.794192e+01	-4.595066e-18	2.794192e+01	-2.794192e+01
102           	6.201075e+01	-4.080838e+01	1.028191e+02	1.527239e+02	-1.055606e+02	2.582846e+02	-1.819226e+02	-7.181376e+01	2.915866e+01	-4.911578e-18	2.915866e+01	-2.915866e+01
103           	6.455199e+01	-4.358426e+01	1.081362e+02	1.613295e+02	-1.132173e+02	2.745467e+02	-1.938820e+02	-7.586025e+01	3.035360e+01	-5.042627e-18	3.035360e+01	-3.035360e+01
104           	6.708709e+01	-4.622059e+01	1.133077e+02	1.696317e+02	-1.208037e+02	2.904355e+02	-2.056196e+02	-7.976414e+01	3.154565e+01	-5.394619e-18	3.154565e+01	-3.154565e+01
105           	6.964271e+01	-4.878875e+01	1.184315e+02	1.778108e+02	-1.284250e+02	3.062358e+02	-2.173304e+02	-8.361011e+01	3.274736e+01	-5.844378e-18	3.274736e+01	-3.274736e+01
106           	7.228568e+01	-5.128840e+01	1.235741e+02	1.859371e+02	-1.361217e+02	3.220588e+02	-2.290902e+02	-8.743124e+01	3.399013e+01	-6.317191e-18	3.399013e+01	-3.399013e+01
107           	7.498806e+01	-5.374140e+01	1.287295e+02	1.940274e+02	-1.438092e+02	3.378365e+02	-2.408228e+02	-9.123543e+01	3.526084e+01	-6.736055e-18	3.526084e+01	-3.526084e+01
108           	7.770606e+01	-5.606292e+01	1.337690e+02	2.018546e+02	-1.512582e+02	3.531128e+02	-2.521855e+02	-9.491595e+01	3.653890e+01	-7.123025e-18	3.653890e+01	-3.653890e+01
109           	8.034606e+01	-5.824976e+01	1.385958e+02	2.093125e+02	-1.582508e+02	3.675633e+02	-2.629071e+02	-9.842279e+01	3.778028e+01	-7.474910e-18	3.778028e+01	-3.778028e+01
110           	8.287040e+01	-6.025021e+01	1.431206e+02	2.162510e+02	-1.646336e+02	3.808846e+02	-2.727591e+02	-1.016854e+02	3.896727e+01	-7.798796e-18	3.896727e+01	-3.896727e+01
111           	8.518761e+01	-6.209125e+01	1.472789e+02	2.226302e+02	-1.702392e+02	3.928694e+02	-2.815543e+02	-1.046851e+02	4.005687e+01	-8.073046e-18	4.005687e+01	-4.005687e+01
112           	8.732029e+01	-6.376039e+01	1.510807e+02	2.284477e+02	-1.751014e+02	4.035491e+02	-2.893252e+02	-1.074205e+02	4.105970e+01	-8.314582e-18	4.105970e+01	-4.105970e+01
113           	8.920893e+01	-6.528651e+01	1.544954e+02	2.337015e+02	-1.791442e+02	4.128457e+02	-2.959950e+02	-1.098910e+02	4.194777e+01	-8.494921e-18	4.194777e+01	-4.194777e+01
114           	9.091288e+01	-6.662979e+01	1.575427e+02	2.383700e+02	-1.824793e+02	4.208493e+02	-3.016643e+02	-1.120862e+02	4.274900e+01	-8.642767e-18	4.274900e+01	-4.274900e+01
115           	9.248742e+01	-6.783762e+01	1.603250e+02	2.426129e+02	-1.853034e+02	4.279164e+02	-3.066099e+02	-1.140813e+02	4.348938e+01	-8.728992e-18	4.348938e+01	-4.348938e+01
116           	9.409174e+01	-6.892369e+01	1.630154e+02	2.466286e+02	-1.879897e+02	4.346183e+02	-3.113040e+02	-1.159696e+02	4.424376e+01	-8.800960e-18	4.424376e+01	-4.424376e+01
117           	9.576341e+01	-6.994484e+01	1.657083e+02	2.505778e+02	-1.907361e+02	4.413139e+02	-3.160250e+02	-1.178265e+02	4.502982e+01	-8.843032e-18	4.502982e+01	-4.502982e+01
118           	9.752192e+01	-7.087546e+01	1.683974e+02	2.544268e+02	-1.936281e+02	4.480549e+02	-3.208415e+02	-1.196364e+02	4.585670e+01	-8.895010e-18	4.585670e+01	-4.585670e+01
119           	9.927293e+01	-7.173687e+01	1.710098e+02	2.581206e+02	-1.965843e+02	4.547049e+02	-3.256446e+02	-1.213733e+02	4.668006e+01	-8.916889e-18	4.668006e+01	-4.668006e+01
120           	1.010235e+02	-7.250563e+01	1.735291e+02	2.616169e+02	-1.996973e+02	4.613142e+02	-3.305058e+02	-1.230174e+02	4.750319e+01	-8.933339e-18	4.750319e+01	-4.750319e+01
121           	1.027734e+02	-7.322942e+01	1.760029e+02	2.650170e+02	-2.031107e+02	4.681277e+02	-3.356192e+02	-1.246161e+02	4.832607e+01	-8.910981e-18	4.832607e+01	-4.832607e+01
122           	1.046357e+02	-7.391147e+01	1.785472e+02	2.684477e+02	-2.071087e+02	4.755564e+02	-3.413326e+02	-1.262293e+02	4.920176e+01	-8.878727e-18	4.920176e+01	-4.920176e+01
123           	1.066614e+02	-7.460564e+01	1.812671e+02	2.720780e+02	-2.118455e+02	4.839235e+02	-3.478845e+02	-1.279363e+02	5.015427e+01	-8.817621e-18	5.015427e+01	-5.015427e+01
124           	1.089132e+02	-7.530042e+01	1.842136e+02	2.759499e+02	-2.174205e+02	4.933704e+02	-3.553955e+02	-1.297570e+02	5.121309e+01	-8.759979e-18	5.121309e+01	-5.121309e+01
125           	1.113239e+02	-7.601123e+01	1.873351e+02	2.800249e+02	-2.237142e+02	5.037392e+02	-3.637267e+02	-1.316732e+02	5.234665e+01	-8.684559e-18	5.234665e+01	-5.234665e+01
126           	1.138502e+02	-7.669393e+01	1.905441e+02	2.841631e+02	-2.306022e+02	5.147653e+02	-3.726838e+02	-1.336190e+02	5.353456e+01	-8.623705e-18	5.353456e+01	-5.353456e+01
127           	1.164235e+02	-7.736534e+01	1.937888e+02	2.883272e+02	-2.380060e+02	5.263332e+02	-3.821696e+02	-1.355771e+02	5.474458e+01	-8.550010e-18	5.474458e+01	-5.474458e+01
128           	1.191021e+02	-7.802809e+01	1.971301e+02	2.925849e+02	-2.460867e+02	5.386716e+02	-3.923791e+02	-1.375791e+02	5.600410e+01	-8.503906e-18	5.600410e+01	-5.600410e+01
129           	1.218665e+02	-7.872456e+01	2.005911e+02	2.970056e+02	-2.548198e+02	5.518254e+02	-4.033226e+02	-1.396578e+02	5.730400e+01	-8.450789e-18	5.730400e+01	-5.730400e+01
130           	1.247076e+02	-7.942917e+01	2.041367e+02	3.015251e+02	-2.640700e+02	5.655951e+02	-4.148326e+02	-1.417829e+02	5.863992e+01	-8.421471e-18	5.863992e+01	-5.863992e+01
131           	1.275303e+02	-8.013275e+01	2.076630e+02	3.060228e+02	-2.735652e+02	5.795880e+02	-4.265766e+02	-1.438979e+02	5.996722e+01	-8.395426e-18	5.996722e+01	-5.996722e+01
132           	1.303083e+02	-8.077942e+01	2.110877e+02	3.103520e+02	-2.831764e+02	5.935284e+02	-4.383524e+02	-1.459335e+02	6.127347e+01	-8.400476e-18	6.127347e+01	-6.127347e+01
133           	1.329789e+02	-8.136549e+01	2.143443e+02	3.144381e+02	-2.927959e+02	6.072340e+02	-4.500149e+02	-1.478549e+02	6.252924e+01	-8.423385e-18	6.252924e+01	-6.252924e+01
134           	1.355511e+02	-8.186089e+01	2.174120e+02	3.182268e+02	-3.024039e+02	6.206308e+02	-4.615173e+02	-1.496364e+02	6.373877e+01	-8.484238e-18	6.373877e+01	-6.373877e+01
135           	1.379556e+02	-8.228339e+01	2.202390e+02	3.216822e+02	-3.118073e+02	6.334895e+02	-4.726484e+02	-1.512612e+02	6.486942e+01	-8.559571e-18	6.486942e+01	-6.486942e+01
136           	1.401581e+02	-8.261124e+01	2.227693e+02	3.247213e+02	-3.207512e+02	6.454726e+02	-4.831119e+02	-1.526903e+02	6.590506e+01	-8.658093e-18	6.590506e+01	-6.590506e+01
137           	1.420770e+02	-8.286115e+01	2.249382e+02	3.272933e+02	-3.289548e+02	6.562481e+02	-4.926014e+02	-1.538997e+02	6.680738e+01	-8.761104e-18	6.680738e+01	-6.680738e+01
138           	1.436791e+02	-8.298549e+01	2.266646e+02	3.292613e+02	-3.361969e+02	6.654582e+02	-5.008275e+02	-1.548251e+02	6.756072e+01	-8.891127e-18	6.756072e+01	-6.756072e+01
139           	1.448901e+02	-8.296454e+01	2.278546e+02	3.305044e+02	-3.422757e+02	6.727801e+02	-5.075279e+02	-1.554096e+02	6.813014e+01	-9.016147e-18	6.813014e+01	-6.813014e+01
140           	1.457220e+02	-8.273894e+01	2.284610e+02	3.309092e+02	-3.471543e+02	6.780635e+02	-5.126089e+02	-1.556000e+02	6.852133e+01	-9.156954e-18	6.852133e+01	-6.852133e+01
141           	1.461445e+02	-8.230033e+01	2.284448e+02	3.304256e+02	-3.507727e+02	6.811983e+02	-5.159855e+02	-1.553726e+02	6.871996e+01	-9.282213e-18	6.871996e+01	-6.871996e+01
142           	1.461810e+02	-8.161305e+01	2.277941e+02	3.290029e+02	-3.530884e+02	6.820914e+02	-5.175899e+02	-1.547036e+02	6.873717e+01	-9.410894e-18	6.873717e+01	-6.873717e+01
143           	1.457943e+02	-8.069236e+01	2.264867e+02	3.266337e+02	-3.539565e+02	6.805902e+02	-5.172734e+02	-1.535895e+02	6.855531e+01	-9.500665e-18	6.855531e+01	-6.855531e+01
144           	1.450081e+02	-7.951902e+01	2.245271e+02	3.233024e+02	-3.533249e+02	6.766273e+02	-5.149761e+02	-1.520231e+02	6.818563e+01	-9.563507e-18	6.818563e+01	-6.818563e+01
145           	1.438219e+02	-7.812008e+01	2.219420e+02	3.190660e+02	-3.511994e+02	6.702654e+02	-5.107324e+02	-1.500310e+02	6.762784e+01	-9.572137e-18	6.762784e+01	-6.762784e+01
146           	1.423638e+02	-7.650728e+01	2.188711e+02	3.140857e+02	-3.479122e+02	6.619979e+02	-5.049550e+02	-1.476892e+02	6.694224e+01	-9.535718e-18	6.694224e+01	-6.694224e+01
147           	1.406967e+02	-7.471660e+01	2.154133e+02	3.085048e+02	-3.437245e+02	6.522293e+02	-4.979769e+02	-1.450650e+02	6.615833e+01	-9.440409e-18	6.615833e+01	-6.615833e+01
148           	1.388782e+02	-7.272266e+01	2.116009e+02	3.023307e+02	-3.387794e+02	6.411101e+02	-4.899447e+02	-1.421618e+02	6.530324e+01	-9.279464e-18	6.530324e+01	-6.530324e+01
149           	1.368678e+02	-7.052240e+01	2.073902e+02	2.955138e+02	-3.330255e+02	6.285393e+02	-4.807824e+02	-1.389563e+02	6.435792e+01	-9.040181e-18	6.435792e+01	-6.435792e+01
150           	1.346820e+02	-6.808799e+01	2.027700e+02	2.880124e+02	-3.265215e+02	6.145339e+02	-4.705277e+02	-1.354290e+02	6.333012e+01	-8.710499e-18	6.333012e+01	-6.333012e+01
151           	1.323002e+02	-6.543674e+01	1.977370e+02	2.798414e+02	-3.192826e+02	5.991240e+02	-4.592033e+02	-1.315869e+02	6.221014e+01	-8.300272e-18	6.221014e+01	-6.221014e+01
152           	1.298495e+02	-6.261397e+01	1.924634e+02	2.712323e+02	-3.116955e+02	5.829278e+02	-4.473117e+02	-1.275387e+02	6.105774e+01	-7.817351e-18	6.105774e+01	-6.105774e+01
153           	1.274425e+02	-5.972187e+01	1.871644e+02	2.625224e+02	-3.041720e+02	5.666944e+02	-4.354332e+02	-1.234431e+02	5.992596e+01	-7.286120e-18	5.992596e+01	-5.992596e+01
154           	1.251142e+02	-5.678478e+01	1.818990e+02	2.538004e+02	-2.967704e+02	5.505708e+02	-4.236706e+02	-1.193419e+02	5.883113e+01	-6.648974e-18	5.883113e+01	-5.883113e+01
155           	1.227579e+02	-5.379989e+01	1.765578e+02	2.449470e+02	-2.892152e+02	5.341622e+02	-4.116887e+02	-1.151789e+02	5.772317e+01	-5.978511e-18	5.772317e+01	-5.772317e+01
156           	1.202733e+02	-5.070460e+01	1.709779e+02	2.357223e+02	-2.812585e+02	5.169809e+02	-3.991197e+02	-1.108412e+02	5.655483e+01	-5.292468e-18	5.655483e+01	-5.655483e+01
157           	1.175389e+02	-4.747060e+01	1.650095e+02	2.259372e+02	-2.726654e+02	4.986025e+02	-3.856339e+02	-1.062400e+02	5.526907e+01	-4.592169e-18	5.526907e+01	-5.526907e+01
158           	1.146733e+02	-4.414171e+01	1.588150e+02	2.158106e+02	-2.638850e+02	4.796956e+02	-3.717903e+02	-1.014783e+02	5.392159e+01	-3.870049e-18	5.392159e+01	-5.392159e+01
159           	1.119355e+02	-4.089916e+01	1.528346e+02	2.060036e+02	-2.557846e+02	4.617882e+02	-3.587864e+02	-9.686689e+01	5.263424e+01	-3.156810e-18	5.263424e+01	-5.263424e+01
160           	1.094647e+02	-3.784602e+01	1.473107e+02	1.968833e+02	-2.487169e+02	4.456003e+02	-3.471586e+02	-9.257838e+01	5.147244e+01	-2.462217e-18	5.147244e+01	-5.147244e+01
161           	1.070630e+02	-3.496219e+01	1.420251e+02	1.881965e+02	-2.420268e+02	4.302234e+02	-3.361251e+02	-8.849367e+01	5.034308e+01	-1.797186e-18	5.034308e+01	-5.034308e+01
162           	1.044068e+02	-3.209330e+01	1.365001e+02	1.792710e+02	-2.346617e+02	4.139327e+02	-3.242972e+02	-8.429671e+01	4.909411e+01	-1.122193e-18	4.909411e+01	-4.909411e+01
163           	1.011950e+02	-2.910175e+01	1.302967e+02	1.694937e+02	-2.257918e+02	3.952855e+02	-3.105387e+02	-7.969923e+01	4.758384e+01	-5.044653e-19	4.758384e+01	-4.758384e+01
164           	9.760901e+01	-2.602289e+01	1.236319e+02	1.591329e+02	-2.159969e+02	3.751299e+02	-2.955634e+02	-7.482739e+01	4.589765e+01	1.087335e-19	4.589765e+01	-4.589765e+01
165           	9.417577e+01	-2.315018e+01	1.173260e+02	1.493730e+02	-2.068994e+02	3.562723e+02	-2.815858e+02	-7.023807e+01	4.428328e+01	6.085694e-19	4.428328e+01	-4.428328e+01