# Force       
# CofR        : (0.000000e+00 0.000000e+00 0.000000e+00)
#
# Time        	total_x total_y total_z	pressure_x pressure_y pressure_z	viscous_x viscous_y viscous_z
1              7.345746e+01 1.768486e+03 4.995498e-18 8.295416e+01 1.774449e+03 1.031218e-17 -9.496702e+00 -5.962790e+00 -5.316677e-18
2              2.398910e+01 1.563155e+03 1.923531e-17 3.143633e+01 1.571138e+03 1.916548e-17 -7.447227e+00 -7.982492e+00 6.983235e-20
3              -6.491375e+01 4.894038e+01 3.092212e-17 -5.897115e+01 5.297929e+01 3.079844e-17 -5.942603e+00 -4.038903e+00 1.236822e-19
4              -5.348288e+01 -8.326512e+02 1.952393e-17 -4.809928e+01 -8.338108e+02 1.825452e-17 -5.383601e+00 1.159623e+00 1.269412e-18
5              -2.479149e+01 -6.819318e+02 9.890684e-18 -2.060100e+01 -6.885331e+02 8.548036e-18 -4.190488e+00 6.601310e+00 1.342647e-18
6              -1.624094e+00 3.917214e+01 -1.821268e-18 1.731291e+00 3.454775e+01 -2.383399e-18 -3.355384e+00 4.624386e+00 5.621304e-19
7              -4.827990e+00 7.717507e+02 9.918138e-19 -2.638932e+00 7.733948e+02 3.327199e-18 -2.189058e+00 -1.644181e+00 -2.335386e-18
8              -3.032998e+01 7.766246e+02 1.172238e-17 -2.798732e+01 7.805266e+02 1.308556e-17 -2.342664e+00 -3.902008e+00 -1.363178e-18
9              -3.055613e+01 4.056356e+02 1.601099e-17 -2.749797e+01 4.087372e+02 1.599588e-17 -3.058154e+00 -3.101636e+00 1.510591e-20
10             3.281875e+00 1.018915e+02 4.757226e-18 6.520482e+00 1.014375e+02 4.634929e-18 -3.238607e+00 4.539953e-01 1.222966e-19
11             9.866615e+00 6.355237e+01 -1.320629e-18 1.200535e+01 5.786583e+01 -1.768014e-18 -2.138735e+00 5.686539e+00 4.473850e-19
12             -1.702925e+01 1.905926e+02 3.319228e-18 -1.602559e+01 1.861282e+02 2.032858e-18 -1.003655e+00 4.464335e+00 1.286370e-18
13             -4.050664e+01 3.372884e+02 5.470687e-18 -3.940316e+01 3.361707e+02 5.158291e-18 -1.103482e+00 1.117671e+00 3.123959e-19
14             -5.502948e+01 3.482693e+02 1.228366e-17 -5.389791e+01 3.513602e+02 1.262949e-17 -1.131568e+00 -3.090924e+00 -3.458344e-19
15             -4.554600e+01 2.541345e+02 1.369285e-17 -4.368549e+01 2.596361e+02 1.469801e-17 -1.860512e+00 -5.501676e+00 -1.005163e-18
16             -1.513306e+01 1.817824e+02 1.437727e-17 -1.302131e+01 1.831980e+02 1.524391e-17 -2.111746e+00 -1.415608e+00 -8.666428e-19
17             -1.244775e-02 2.658949e+02 8.742441e-18 1.950558e+00 2.626342e+02 9.254219e-18 -1.963006e+00 3.260698e+00 -5.117772e-19
18             -1.058858e+00 3.692636e+02 5.285410e-18 3.213037e-01 3.660308e+02 5.386361e-18 -1.380161e+00 3.232819e+00 -1.009506e-19
19             -1.717010e+01 4.103793e+02 5.592627e-18 -1.626969e+01 4.087125e+02 5.185482e-18 -9.004072e-01 1.666796e+00 4.071448e-19
20             -2.908162e+01 3.645905e+02 6.053992e-18 -2.855728e+01 3.649115e+02 6.035194e-18 -5.243473e-01 -3.210190e-01 1.879844e-20
21             -2.903756e+01 2.792715e+02 7.259013e-18 -2.853721e+01 2.809203e+02 6.866457e-18 -5.003448e-01 -1.648768e+00 3.925556e-19
22             -1.896125e+01 2.085646e+02 7.505020e-18 -1.805561e+01 2.096942e+02 7.429603e-18 -9.056351e-01 -1.129634e+00 7.541657e-20
23             -3.084415e+00 2.166908e+02 6.289254e-18 -1.840600e+00 2.162260e+02 6.713574e-18 -1.243815e+00 4.648009e-01 -4.243200e-19
24             -3.319021e+00 2.837294e+02 6.352422e-18 -2.113581e+00 2.820949e+02 6.948858e-18 -1.205440e+00 1.634483e+00 -5.964358e-19
25             -1.067850e+01 3.980965e+02 7.079579e-18 -9.682617e+00 3.969611e+02 7.826985e-18 -9.958836e-01 1.135428e+00 -7.474062e-19
26             -1.782887e+01 4.454814e+02 8.013664e-18 -1.704742e+01 4.452412e+02 8.378171e-18 -7.814507e-01 2.402010e-01 -3.645061e-19
27             -1.618353e+01 4.063832e+02 5.876057e-18 -1.554226e+01 4.068091e+02 6.197698e-18 -6.412732e-01 -4.259743e-01 -3.216409e-19
28             -7.422994e+00 3.194836e+02 2.907152e-18 -6.745611e+00 3.197723e+02 3.027691e-18 -6.773831e-01 -2.887316e-01 -1.205390e-19
29             -8.031741e-01 2.644505e+02 1.197297e-18 -6.829192e-02 2.642498e+02 1.249468e-18 -7.348822e-01 2.006994e-01 -5.217070e-20
30             -6.283307e-01 2.755016e+02 2.015714e-18 1.862967e-01 2.749446e+02 2.119828e-18 -8.146275e-01 5.570066e-01 -1.041143e-19
31             -2.070778e+00 3.283086e+02 3.652680e-18 -1.334647e+00 3.274364e+02 3.906530e-18 -7.361304e-01 8.722395e-01 -2.538506e-19
32             -1.811197e+00 3.900157e+02 4.057201e-18 -1.136817e+00 3.893929e+02 4.824626e-18 -6.743799e-01 6.228387e-01 -7.674254e-19
33             -3.827920e-01 4.124101e+02 3.852997e-18 2.295641e-01 4.121742e+02 4.728768e-18 -6.123561e-01 2.358997e-01 -8.757707e-19
34             1.822074e+00 3.952850e+02 3.210045e-18 2.387522e+00 3.951508e+02 3.843439e-18 -5.654471e-01 1.341300e-01 -6.333946e-19
35             4.209389e+00 3.513724e+02 2.435968e-18 4.690434e+00 3.512192e+02 2.760833e-18 -4.810453e-01 1.531990e-01 -3.248650e-19
36             5.754094e+00 3.099150e+02 2.018369e-18 6.158089e+00 3.097175e+02 2.122446e-18 -4.039949e-01 1.975282e-01 -1.040767e-19
37             7.380652e+00 2.957040e+02 1.863889e-18 7.732875e+00 2.954729e+02 1.835067e-18 -3.522228e-01 2.310867e-01 2.882185e-20
38             9.511066e+00 3.050739e+02 1.612758e-18 9.840168e+00 3.048372e+02 1.795682e-18 -3.291024e-01 2.367391e-01 -1.829247e-19
39             1.203678e+01 3.319364e+02 1.658422e-18 1.233441e+01 3.317159e+02 1.931495e-18 -2.976355e-01 2.205668e-01 -2.730733e-19
40             1.416329e+01 3.550823e+02 1.752357e-18 1.439793e+01 3.548761e+02 2.079616e-18 -2.346431e-01 2.061969e-01 -3.272585e-19
41             1.556851e+01 3.593406e+02 1.793985e-18 1.569615e+01 3.591290e+02 2.095253e-18 -1.276429e-01 2.115427e-01 -3.012688e-19
42             1.679933e+01 3.454682e+02 1.754426e-18 1.680181e+01 3.452443e+02 1.913662e-18 -2.478827e-03 2.239326e-01 -1.592360e-19
43             1.810769e+01 3.166338e+02 1.402406e-18 1.797265e+01 3.164020e+02 1.517163e-18 1.350351e-01 2.317981e-01 -1.147568e-19
44             1.936357e+01 2.892562e+02 9.933309e-19 1.910075e+01 2.890297e+02 1.076692e-18 2.628187e-01 2.265257e-01 -8.336077e-20
45             2.051990e+01 2.755909e+02 7.289617e-19 2.014659e+01 2.753749e+02 7.968938e-19 3.733034e-01 2.160079e-01 -6.793205e-20
46             2.164499e+01 2.738758e+02 6.116897e-19 2.117968e+01 2.736677e+02 7.343583e-19 4.653081e-01 2.080949e-01 -1.226685e-19
47             2.282558e+01 2.791011e+02 6.529414e-19 2.227225e+01 2.788959e+02 8.202056e-19 5.533271e-01 2.051754e-01 -1.672641e-19
48             2.402970e+01 2.841826e+02 6.654732e-19 2.338165e+01 2.839771e+02 8.809349e-19 6.480513e-01 2.054898e-01 -2.154617e-19
49             2.516603e+01 2.830747e+02 5.276158e-19 2.440476e+01 2.828712e+02 8.183110e-19 7.612651e-01 2.034930e-01 -2.906951e-19
50             2.616955e+01 2.734612e+02 2.590135e-19 2.527824e+01 2.732680e+02 5.992319e-19 8.913069e-01 1.932795e-01 -3.402184e-19
51             2.697018e+01 2.558831e+02 -1.022939e-19 2.593996e+01 2.557067e+02 2.313493e-19 1.030223e+00 1.764393e-01 -3.336433e-19
52             2.746351e+01 2.359583e+02 -5.557418e-19 2.629417e+01 2.358045e+02 -1.872339e-19 1.169336e+00 1.538291e-01 -3.685079e-19
53             2.771782e+01 2.203079e+02 -9.396059e-19 2.641721e+01 2.201752e+02 -5.530775e-19 1.300612e+00 1.326512e-01 -3.865284e-19
54             2.791882e+01 2.111572e+02 -1.214383e-18 2.650149e+01 2.110424e+02 -8.017846e-19 1.417323e+00 1.148625e-01 -4.125988e-19
55             2.825471e+01 2.072076e+02 -1.335387e-18 2.672721e+01 2.071058e+02 -8.988709e-19 1.527499e+00 1.017874e-01 -4.365164e-19
56             2.873072e+01 2.050802e+02 -1.327808e-18 2.709614e+01 2.049926e+02 -8.565797e-19 1.634584e+00 8.761461e-02 -4.712278e-19
57             2.921016e+01 2.011429e+02 -1.272201e-18 2.746564e+01 2.010711e+02 -7.219583e-19 1.744514e+00 7.183546e-02 -5.502422e-19
58             2.948348e+01 1.930324e+02 -1.183088e-18 2.762994e+01 1.929822e+02 -5.389703e-19 1.853542e+00 5.023542e-02 -6.441172e-19
59             2.944548e+01 1.807113e+02 -9.298873e-19 2.748406e+01 1.806851e+02 -3.269683e-19 1.961419e+00 2.618402e-02 -6.029190e-19
60             2.912548e+01 1.669218e+02 -5.579471e-19 2.706607e+01 1.669209e+02 -6.871944e-20 2.059410e+00 9.193924e-04 -4.892277e-19
61             2.866226e+01 1.557124e+02 -5.151844e-20 2.651037e+01 1.557325e+02 3.104232e-19 2.151890e+00 -2.013421e-02 -3.619416e-19
62             2.818862e+01 1.490033e+02 5.168427e-19 2.596244e+01 1.490405e+02 8.477618e-19 2.226183e+00 -3.718044e-02 -3.309191e-19
63             2.773591e+01 1.458775e+02 1.175615e-18 2.543835e+01 1.459282e+02 1.515964e-18 2.297557e+00 -5.076533e-02 -3.403489e-19
64             2.721586e+01 1.440557e+02 1.897458e-18 2.485619e+01 1.441206e+02 2.249961e-18 2.359676e+00 -6.486081e-02 -3.525030e-19
65             2.699547e+01 1.439010e+02 2.477284e-18 2.457387e+01 1.439794e+02 2.824839e-18 2.421603e+00 -7.834681e-02 -3.475550e-19
66             2.603795e+01 1.383307e+02 3.165797e-18 2.356906e+01 1.384236e+02 3.477841e-18 2.468887e+00 -9.296126e-02 -3.120443e-19
67             2.557724e+01 1.335932e+02 3.649245e-18 2.306192e+01 1.337007e+02 3.904194e-18 2.515317e+00 -1.074582e-01 -2.549487e-19
68             2.550271e+01 1.313227e+02 3.816321e-18 2.295894e+01 1.314421e+02 4.126661e-18 2.543766e+00 -1.193772e-01 -3.103400e-19
69             2.548310e+01 1.318965e+02 3.838704e-18 2.291091e+01 1.320210e+02 4.191428e-18 2.572181e+00 -1.244914e-01 -3.527240e-19
70             2.510245e+01 1.338632e+02 3.912300e-18 2.252150e+01 1.339887e+02 4.289570e-18 2.580952e+00 -1.255141e-01 -3.772703e-19
71             2.445854e+01 1.367904e+02 3.969233e-18 2.187526e+01 1.369155e+02 4.371195e-18 2.583281e+00 -1.251036e-01 -4.019613e-19
72             2.365431e+01 1.392125e+02 3.974562e-18 2.108876e+01 1.393405e+02 4.390916e-18 2.565549e+00 -1.279650e-01 -4.163536e-19
73             2.276410e+01 1.404224e+02 3.918962e-18 2.021137e+01 1.405540e+02 4.338755e-18 2.552728e+00 -1.315287e-01 -4.197931e-19
74             2.177486e+01 1.408234e+02 3.860126e-18 1.925055e+01 1.409585e+02 4.266120e-18 2.524313e+00 -1.350662e-01 -4.059942e-19
75             2.063106e+01 1.408747e+02 3.866384e-18 1.813146e+01 1.410107e+02 4.236487e-18 2.499601e+00 -1.360101e-01 -3.701029e-19
76             1.927157e+01 1.414548e+02 3.982942e-18 1.681526e+01 1.415889e+02 4.305185e-18 2.456314e+00 -1.341492e-01 -3.222426e-19
77             1.761742e+01 1.424428e+02 4.170017e-18 1.520525e+01 1.425725e+02 4.445023e-18 2.412169e+00 -1.297135e-01 -2.750065e-19
78             1.565018e+01 1.436115e+02 4.362672e-18 1.330130e+01 1.437367e+02 4.590072e-18 2.348882e+00 -1.252154e-01 -2.273996e-19
79             1.352024e+01 1.453172e+02 4.486564e-18 1.123542e+01 1.454370e+02 4.702841e-18 2.284820e+00 -1.197752e-01 -2.162771e-19
80             1.137342e+01 1.483723e+02 4.580141e-18 9.169861e+00 1.484870e+02 4.795133e-18 2.203560e+00 -1.146820e-01 -2.149915e-19
81             9.272492e+00 1.524046e+02 4.651062e-18 7.148623e+00 1.525110e+02 4.858241e-18 2.123869e+00 -1.064203e-01 -2.071787e-19
82             7.200122e+00 1.571164e+02 4.701590e-18 5.171357e+00 1.572136e+02 4.889088e-18 2.028765e+00 -9.722270e-02 -1.874973e-19
83             5.173795e+00 1.627175e+02 4.747903e-18 3.237588e+00 1.628025e+02 4.896156e-18 1.936207e+00 -8.495274e-02 -1.482534e-19
84             3.164459e+00 1.694264e+02 4.749899e-18 1.337082e+00 1.694993e+02 4.890866e-18 1.827377e+00 -7.292346e-02 -1.409671e-19
85             1.222914e+00 1.765854e+02 4.774021e-18 -4.968311e-01 1.766445e+02 4.867649e-18 1.719745e+00 -5.909736e-02 -9.362739e-20
86             -5.888505e-01 1.841016e+02 4.801810e-18 -2.185639e+00 1.841482e+02 4.847337e-18 1.596788e+00 -4.660562e-02 -4.552756e-20
87             -2.268550e+00 1.926193e+02 4.885460e-18 -3.747690e+00 1.926516e+02 4.866155e-18 1.479140e+00 -3.229797e-02 1.930447e-20
88             -3.848777e+00 2.022660e+02 5.039346e-18 -5.196838e+00 2.022845e+02 4.948047e-18 1.348062e+00 -1.842401e-02 9.129890e-20
89             -5.270809e+00 2.118127e+02 5.216869e-18 -6.497142e+00 2.118158e+02 5.084215e-18 1.226333e+00 -3.078634e-03 1.326545e-19
90             -6.549906e+00 2.211631e+02 5.374339e-18 -7.645929e+00 2.211529e+02 5.263951e-18 1.096023e+00 1.018778e-02 1.103886e-19
91             -7.702323e+00 2.302380e+02 5.502433e-18 -8.681499e+00 2.302141e+02 5.488374e-18 9.791764e-01 2.397473e-02 1.405911e-20
92             -8.731287e+00 2.384853e+02 5.604580e-18 -9.588084e+00 2.384499e+02 5.729809e-18 8.567969e-01 3.535119e-02 -1.252290e-19
93             -9.631689e+00 2.464242e+02 5.754104e-18 -1.038118e+01 2.463764e+02 6.007874e-18 7.494875e-01 4.780006e-02 -2.537701e-19
94             -1.041866e+01 2.540792e+02 5.947803e-18 -1.105636e+01 2.540204e+02 6.316068e-18 6.377000e-01 5.876297e-02 -3.682649e-19
95             -1.104495e+01 2.612613e+02 6.268357e-18 -1.158769e+01 2.611905e+02 6.638835e-18 5.427453e-01 7.078821e-02 -3.704780e-19
96             -1.153320e+01 2.679686e+02 6.505682e-18 -1.197557e+01 2.678874e+02 6.969227e-18 4.423680e-01 8.115079e-02 -4.635449e-19
97             -1.185490e+01 2.741235e+02 6.821911e-18 -1.221430e+01 2.740310e+02 7.289843e-18 3.593950e-01 9.243568e-02 -4.679316e-19
98             -1.203498e+01 2.799087e+02 7.269589e-18 -1.230811e+01 2.798058e+02 7.596217e-18 2.731299e-01 1.029100e-01 -3.266282e-19
99             -1.205829e+01 2.852872e+02 7.618040e-18 -1.226467e+01 2.851728e+02 7.873645e-18 2.063827e-01 1.143996e-01 -2.556050e-19
100            -1.195941e+01 2.903261e+02 7.872779e-18 -1.209401e+01 2.902022e+02 8.110407e-18 1.346045e-01 1.239466e-01 -2.376280e-19
101            -1.173583e+01 2.949786e+02 8.074573e-18 -1.181681e+01 2.948450e+02 8.304585e-18 8.098092e-02 1.335970e-01 -2.300117e-19
102            -1.142999e+01 2.992102e+02 8.231613e-18 -1.145220e+01 2.990694e+02 8.460587e-18 2.220464e-02 1.408822e-01 -2.289744e-19
103            -1.103161e+01 3.031304e+02 8.361264e-18 -1.101276e+01 3.029816e+02 8.589356e-18 -1.884589e-02 1.488102e-01 -2.280919e-19
104            -1.058509e+01 3.067456e+02 8.467687e-18 -1.052088e+01 3.065901e+02 8.692686e-18 -6.421004e-02 1.555784e-01 -2.249989e-19
105            -1.007363e+01 3.100214e+02 8.565963e-18 -9.982064e+00 3.098572e+02 8.767290e-18 -9.156365e-02 1.641699e-01 -2.013271e-19
106            -9.507100e+00 3.128091e+02 8.613034e-18 -9.383035e+00 3.126371e+02 8.800887e-18 -1.240648e-01 1.719072e-01 -1.878535e-19
107            -8.844811e+00 3.150941e+02 8.638053e-18 -8.705087e+00 3.149134e+02 8.791326e-18 -1.397239e-01 1.807069e-01 -1.532724e-19
108            -8.107193e+00 3.170329e+02 8.625186e-18 -7.946552e+00 3.168455e+02 8.741296e-18 -1.606406e-01 1.873655e-01 -1.161097e-19
109            -7.278293e+00 3.187891e+02 8.598723e-18 -7.111075e+00 3.185947e+02 8.665326e-18 -1.672186e-01 1.943761e-01 -6.660311e-20
110            -6.381062e+00 3.204648e+02 8.555643e-18 -6.201162e+00 3.202659e+02 8.578030e-18 -1.798997e-01 1.989165e-01 -2.238785e-20
111            -5.419230e+00 3.220128e+02 8.495246e-18 -5.238503e+00 3.218090e+02 8.491149e-18 -1.807274e-01 2.037124e-01 4.096440e-21
112            -4.447212e+00 3.232858e+02 8.422548e-18 -4.259251e+00 3.230794e+02 8.405835e-18 -1.879615e-01 2.064346e-01 1.671284e-20
113            -3.466621e+00 3.241758e+02 8.316397e-18 -3.282475e+00 3.239661e+02 8.320901e-18 -1.841451e-01 2.097823e-01 -4.503781e-21
114            -2.499396e+00 3.246470e+02 8.201671e-18 -2.313763e+00 3.244356e+02 8.240562e-18 -1.856329e-01 2.114472e-01 -3.889078e-20
115            -1.524859e+00 3.247227e+02 8.098204e-18 -1.348476e+00 3.245090e+02 8.171748e-18 -1.763832e-01 2.137483e-01 -7.354363e-20
116            -5.610907e-01 3.243595e+02 8.015808e-18 -3.897709e-01 3.241451e+02 8.117757e-18 -1.713197e-01 2.144489e-01 -1.019495e-19
117            3.885668e-01 3.233748e+02 7.953430e-18 5.450999e-01 3.231591e+02 8.067376e-18 -1.565331e-01 2.157689e-01 -1.139460e-19
118            1.292852e+00 3.216446e+02 7.887153e-18 1.438377e+00 3.214290e+02 8.006606e-18 -1.455249e-01 2.155465e-01 -1.194538e-19
119            2.158767e+00 3.192550e+02 7.806896e-18 2.285267e+00 3.190392e+02 7.926869e-18 -1.265000e-01 2.158349e-01 -1.199734e-19
120            2.982976e+00 3.164130e+02 7.719413e-18 3.093955e+00 3.161983e+02 7.832272e-18 -1.109798e-01 2.146467e-01 -1.128581e-19
121            3.789018e+00 3.131132e+02 7.614079e-18 3.876859e+00 3.128989e+02 7.715612e-18 -8.784045e-02 2.143334e-01 -1.015328e-19
122            4.574256e+00 3.090952e+02 7.482164e-18 4.641533e+00 3.088825e+02 7.563256e-18 -6.727785e-02 2.126951e-01 -8.109176e-20
123            5.369538e+00 3.041542e+02 7.293653e-18 5.407638e+00 3.039425e+02 7.353687e-18 -3.809972e-02 2.116716e-01 -6.003470e-20
124            6.171645e+00 2.982991e+02 7.046626e-18 6.182621e+00 2.980900e+02 7.075786e-18 -1.097661e-02 2.090911e-01 -2.915991e-20
125            7.014642e+00 2.923114e+02 6.748902e-18 6.988763e+00 2.921042e+02 6.748415e-18 2.587890e-02 2.072071e-01 4.875936e-22
126            7.904274e+00 2.864653e+02 6.428803e-18 7.842955e+00 2.862611e+02 6.385714e-18 6.131867e-02 2.041768e-01 4.308910e-20
127            8.847849e+00 2.804685e+02 6.034003e-18 8.741096e+00 2.802665e+02 5.982883e-18 1.067533e-01 2.019800e-01 5.111979e-20
128            9.808747e+00 2.738240e+02 5.587008e-18 9.656912e+00 2.736259e+02 5.526037e-18 1.518346e-01 1.981236e-01 6.097111e-20
129            1.078795e+01 2.665180e+02 5.055193e-18 1.058062e+01 2.663236e+02 5.008891e-18 2.073329e-01 1.943782e-01 4.630146e-20
130            1.181848e+01 2.593245e+02 4.484543e-18 1.155627e+01 2.591356e+02 4.459274e-18 2.622108e-01 1.888946e-01 2.526944e-20
131            1.293699e+01 2.525223e+02 3.885939e-18 1.260908e+01 2.523383e+02 3.888053e-18 3.279073e-01 1.839683e-01 -2.113368e-21
132            1.410610e+01 2.458860e+02 3.270982e-18 1.371282e+01 2.457083e+02 3.288212e-18 3.932793e-01 1.776946e-01 -1.723006e-20
133            1.526770e+01 2.389790e+02 2.617782e-18 1.479842e+01 2.388074e+02 2.651491e-18 4.692783e-01 1.716479e-01 -3.370859e-20
134            1.637765e+01 2.313657e+02 1.928145e-18 1.583340e+01 2.312022e+02 1.971473e-18 5.442482e-01 1.634928e-01 -4.332732e-20
135            1.749698e+01 2.235556e+02 1.210450e-18 1.686842e+01 2.234004e+02 1.271599e-18 6.285607e-01 1.552150e-01 -6.114912e-20
136            1.865886e+01 2.162708e+02 5.250635e-19 1.794801e+01 2.161253e+02 5.887690e-19 7.108452e-01 1.454710e-01 -6.370549e-20
137            1.985841e+01 2.097140e+02 -1.345816e-19 1.905495e+01 2.095774e+02 -4.709209e-20 8.034577e-01 1.365629e-01 -8.748954e-20
138            2.101922e+01 2.035060e+02 -7.325249e-19 2.012552e+01 2.033793e+02 -6.311489e-19 8.937050e-01 1.267206e-01 -1.013759e-19
139            2.207620e+01 1.967703e+02 -1.281635e-18 2.108487e+01 1.966532e+02 -1.184222e-18 9.913212e-01 1.170489e-01 -9.741254e-20
140            2.301375e+01 1.891032e+02 -1.830359e-18 2.192878e+01 1.889981e+02 -1.712878e-18 1.084967e+00 1.050546e-01 -1.174808e-19
141            2.390085e+01 1.814122e+02 -2.283388e-18 2.271773e+01 1.813190e+02 -2.173385e-18 1.183118e+00 9.316749e-02 -1.100031e-19
142            2.473364e+01 1.744850e+02 -2.636114e-18 2.345849e+01 1.744045e+02 -2.515532e-18 1.275146e+00 8.048036e-02 -1.205818e-19
143            2.546652e+01 1.679940e+02 -2.881049e-18 2.409542e+01 1.679247e+02 -2.728899e-18 1.371094e+00 6.928328e-02 -1.521499e-19
144            2.598597e+01 1.610638e+02 -3.014014e-18 2.452901e+01 1.610065e+02 -2.842681e-18 1.456961e+00 5.735320e-02 -1.713326e-19
145            2.631687e+01 1.535610e+02 -3.097782e-18 2.477374e+01 1.535155e+02 -2.881937e-18 1.543133e+00 4.554129e-02 -2.158446e-19
146            2.654530e+01 1.464251e+02 -3.054291e-18 2.492926e+01 1.463926e+02 -2.834456e-18 1.616036e+00 3.247263e-02 -2.198351e-19
147            2.667785e+01 1.395122e+02 -2.929144e-18 2.499035e+01 1.394915e+02 -2.713513e-18 1.687504e+00 2.068326e-02 -2.156309e-19
148            2.664554e+01 1.321351e+02 -2.768941e-18 2.490012e+01 1.321263e+02 -2.548370e-18 1.745424e+00 8.747946e-03 -2.205718e-19
149            2.642040e+01 1.246194e+02 -2.568186e-18 2.461913e+01 1.246212e+02 -2.362670e-18 1.801277e+00 -1.764841e-03 -2.055161e-19
150            2.608627e+01 1.178597e+02 -2.328962e-18 2.424498e+01 1.178721e+02 -2.153424e-18 1.841285e+00 -1.238836e-02 -1.755379e-19
151            2.567446e+01 1.120621e+02 -2.094145e-18 2.379473e+01 1.120832e+02 -1.932694e-18 1.879733e+00 -2.105858e-02 -1.614513e-19
152            2.509178e+01 1.063335e+02 -1.879768e-18 2.318893e+01 1.063630e+02 -1.728055e-18 1.902850e+00 -2.947635e-02 -1.517135e-19
153            2.431291e+01 1.002393e+02 -1.687169e-18 2.238795e+01 1.002752e+02 -1.553746e-18 1.924960e+00 -3.596201e-02 -1.334226e-19
154            2.342069e+01 9.448169e+01 -1.517626e-18 2.148894e+01 9.452420e+01 -1.399866e-18 1.931751e+00 -4.251647e-02 -1.177598e-19
155            2.252690e+01 8.993199e+01 -1.341841e-18 2.058772e+01 8.997856e+01 -1.236058e-18 1.939186e+00 -4.657132e-02 -1.057833e-19
156            2.158633e+01 8.658917e+01 -1.148689e-18 1.965262e+01 8.663892e+01 -1.054473e-18 1.933703e+00 -4.974632e-02 -9.421649e-20
157            2.049353e+01 8.381471e+01 -9.479103e-19 1.856367e+01 8.386530e+01 -8.680643e-19 1.929859e+00 -5.059065e-02 -7.984601e-20
158            1.919949e+01 8.124319e+01 -7.601979e-19 1.728875e+01 8.129479e+01 -6.963880e-19 1.910742e+00 -5.160658e-02 -6.380985e-20
159            1.782148e+01 7.919656e+01 -5.869076e-19 1.592922e+01 7.924769e+01 -5.387610e-19 1.892256e+00 -5.112195e-02 -4.814661e-20
160            1.643361e+01 7.817057e+01 -4.173257e-19 1.457375e+01 7.822105e+01 -3.838081e-19 1.859852e+00 -5.048332e-02 -3.351757e-20
161            1.504523e+01 7.849398e+01 -2.304635e-19 1.321519e+01 7.854161e+01 -2.097524e-19 1.830039e+00 -4.763483e-02 -2.071111e-20
162            1.359721e+01 7.999502e+01 -2.484462e-20 1.181212e+01 8.003934e+01 -1.582986e-20 1.785095e+00 -4.432212e-02 -9.014754e-21
163            1.208677e+01 8.230337e+01 1.786012e-19 1.034337e+01 8.234253e+01 1.875091e-19 1.743392e+00 -3.916027e-02 -8.907871e-21
164            1.052206e+01 8.533564e+01 3.825344e-19 8.835204e+00 8.537034e+01 3.919936e-19 1.686853e+00 -3.470770e-02 -9.459169e-21
165            8.978676e+00 8.926278e+01 5.820108e-19 7.344738e+00 8.929194e+01 6.059848e-19 1.633938e+00 -2.915842e-02 -2.397399e-20
166            7.464507e+00 9.407820e+01 7.978565e-19 5.898587e+00 9.410226e+01 8.382621e-19 1.565920e+00 -2.405846e-02 -4.040559e-20
167            5.975708e+00 9.966422e+01 1.072782e-18 4.472520e+00 9.968149e+01 1.092874e-18 1.503188e+00 -1.727232e-02 -2.009210e-20
168            4.496783e+00 1.061352e+02 1.362783e-18 3.069955e+00 1.061460e+02 1.376125e-18 1.426828e+00 -1.081718e-02 -1.334149e-20
169            3.033812e+00 1.135583e+02 1.697496e-18 1.677120e+00 1.135613e+02 1.692559e-18 1.356692e+00 -2.997652e-03 4.936247e-21
170            1.571087e+00 1.216966e+02 2.067060e-18 2.985765e-01 1.216926e+02 2.031318e-18 1.272511e+00 4.037982e-03 3.574190e-20
171            1.756795e-01 1.301559e+02 2.452728e-18 -1.020382e+00 1.301439e+02 2.378194e-18 1.196061e+00 1.205841e-02 7.453425e-20
172            -1.150732e+00 1.391936e+02 2.881753e-18 -2.257475e+00 1.391745e+02 2.741739e-18 1.106743e+00 1.913968e-02 1.400137e-19
173            -2.392427e+00 1.490985e+02 3.301745e-18 -3.419739e+00 1.490708e+02 3.133674e-18 1.027312e+00 2.766106e-02 1.680709e-19
174            -3.533650e+00 1.591542e+02 3.642114e-18 -4.471157e+00 1.591187e+02 3.529377e-18 9.375064e-01 3.553767e-02 1.127368e-19
175            -4.541784e+00 1.691492e+02 3.974832e-18 -5.402375e+00 1.691048e+02 3.922569e-18 8.605908e-01 4.447293e-02 5.226275e-20
176            -5.457447e+00 1.791468e+02 4.318210e-18 -6.231355e+00 1.790948e+02 4.312797e-18 7.739079e-01 5.200690e-02 5.412872e-21
177            -6.255269e+00 1.889204e+02 4.654757e-18 -6.957709e+00 1.888600e+02 4.690614e-18 7.024405e-01 6.040798e-02 -3.585695e-20
178            -6.955042e+00 1.985064e+02 4.993985e-18 -7.576303e+00 1.984389e+02 5.053755e-18 6.212608e-01 6.746269e-02 -5.977001e-20
179            -7.532341e+00 2.078597e+02 5.325995e-18 -8.088366e+00 2.077842e+02 5.402784e-18 5.560245e-01 7.555734e-02 -7.678964e-20
180            -8.000518e+00 2.169780e+02 5.649699e-18 -8.481795e+00 2.168957e+02 5.739914e-18 4.812768e-01 8.225664e-02 -9.021447e-20
181            -8.325161e+00 2.258332e+02 5.932428e-18 -8.748884e+00 2.257433e+02 6.066296e-18 4.237231e-01 8.990488e-02 -1.338682e-19
182            -8.529612e+00 2.344393e+02 6.218360e-18 -8.887643e+00 2.343435e+02 6.383502e-18 3.580304e-01 9.574883e-02 -1.651423e-19
183            -8.592460e+00 2.428113e+02 6.491344e-18 -8.903431e+00 2.427087e+02 6.694725e-18 3.109711e-01 1.025384e-01 -2.033811e-19
184            -8.554722e+00 2.508294e+02 6.779349e-18 -8.811774e+00 2.507219e+02 6.998959e-18 2.570515e-01 1.075906e-01 -2.196102e-19
185            -8.415237e+00 2.583019e+02 7.061274e-18 -8.637639e+00 2.581879e+02 7.289578e-18 2.224021e-01 1.139534e-01 -2.283039e-19
186            -8.212123e+00 2.651252e+02 7.330833e-18 -8.394063e+00 2.650064e+02 7.559238e-18 1.819401e-01 1.188674e-01 -2.284049e-19
187            -7.925206e+00 2.712894e+02 7.563987e-18 -8.085435e+00 2.711639e+02 7.800390e-18 1.602289e-01 1.254415e-01 -2.364030e-19
188            -7.578995e+00 2.767789e+02 7.774488e-18 -7.712580e+00 2.766481e+02 8.003411e-18 1.335850e-01 1.307897e-01 -2.289231e-19
189            -7.154102e+00 2.815454e+02 7.940200e-18 -7.278339e+00 2.814078e+02 8.159818e-18 1.242368e-01 1.375747e-01 -2.196177e-19
190            -6.670658e+00 2.856088e+02 8.065421e-18 -6.782040e+00 2.854663e+02 8.269553e-18 1.113826e-01 1.425290e-01 -2.041312e-19
191            -6.107424e+00 2.890292e+02 8.158261e-18 -6.221634e+00 2.888810e+02 8.339121e-18 1.142107e-01 1.482281e-01 -1.808603e-19
192            -5.483537e+00 2.918650e+02 8.224879e-18 -5.597922e+00 2.917134e+02 8.375950e-18 1.143854e-01 1.516289e-01 -1.510702e-19
193            -4.792423e+00 2.941816e+02 8.262148e-18 -4.920947e+00 2.940260e+02 8.382168e-18 1.285237e-01 1.555670e-01 -1.200203e-19
194            -4.073563e+00 2.959757e+02 8.269436e-18 -4.214667e+00 2.958182e+02 8.354376e-18 1.411047e-01 1.574789e-01 -8.493996e-20
195            -3.331747e+00 2.972059e+02 8.239140e-18 -3.496153e+00 2.970457e+02 8.282486e-18 1.644065e-01 1.602696e-01 -4.334610e-20
196            -2.592261e+00 2.977792e+02 8.157461e-18 -2.776029e+00 2.976184e+02 8.157515e-18 1.837681e-01 1.608087e-01 -5.383492e-23
197            -1.833109e+00 2.977346e+02 8.023946e-18 -2.042674e+00 2.975726e+02 7.980518e-18 2.095655e-01 1.619114e-01 4.342756e-20
198            -1.061510e+00 2.972127e+02 7.841891e-18 -1.292951e+00 2.970516e+02 7.769055e-18 2.314409e-01 1.610885e-01 7.283605e-20
199            -2.797192e-01 2.962490e+02 7.632785e-18 -5.379588e-01 2.960876e+02 7.542566e-18 2.582396e-01 1.614473e-01 9.021896e-20
200            4.755089e-01 2.947314e+02 7.388197e-18 1.932103e-01 2.945710e+02 7.320611e-18 2.822986e-01 1.604158e-01 6.758619e-20
201            1.205035e+00 2.926514e+02 7.157348e-18 8.937493e-01 2.924908e+02 7.111536e-18 3.112859e-01 1.605825e-01 4.581150e-20
202            1.905623e+00 2.901701e+02 6.943109e-18 1.568092e+00 2.900110e+02 6.917277e-18 3.375308e-01 1.590890e-01 2.583186e-20
203            2.579895e+00 2.873167e+02 6.741227e-18 2.211954e+00 2.871582e+02 6.727248e-18 3.679417e-01 1.585301e-01 1.397865e-20
204            3.198815e+00 2.839051e+02 6.529562e-18 2.803552e+00 2.837489e+02 6.525710e-18 3.952633e-01 1.561686e-01 3.852241e-21
205            3.756358e+00 2.796899e+02 6.297534e-18 3.330385e+00 2.795354e+02 6.298844e-18 4.259728e-01 1.545272e-01 -1.309702e-21
206            4.271196e+00 2.750044e+02 6.048842e-18 3.817398e+00 2.748533e+02 6.059355e-18 4.537974e-01 1.511543e-01 -1.051286e-20
207            4.781877e+00 2.702060e+02 5.798011e-18 4.296549e+00 2.700572e+02 5.821368e-18 4.853278e-01 1.488175e-01 -2.335713e-20
208            5.284821e+00 2.652028e+02 5.546434e-18 4.770322e+00 2.650575e+02 5.583636e-18 5.144995e-01 1.452345e-01 -3.720253e-20
209            5.761667e+00 2.596260e+02 5.275172e-18 5.213762e+00 2.594834e+02 5.331199e-18 5.479049e-01 1.426169e-01 -5.602733e-20
210            6.171694e+00 2.531737e+02 4.984899e-18 5.593333e+00 2.530353e+02 5.050131e-18 5.783610e-01 1.383903e-01 -6.523238e-20
211            6.534860e+00 2.459538e+02 4.661024e-18 5.921914e+00 2.458191e+02 4.737552e-18 6.129460e-01 1.347159e-01 -7.652818e-20
212            6.929082e+00 2.392285e+02 4.352503e-18 6.285116e+00 2.390986e+02 4.435401e-18 6.439658e-01 1.298893e-01 -8.289864e-20
213            7.392552e+00 2.333185e+02 4.071761e-18 6.712164e+00 2.331919e+02 4.157724e-18 6.803888e-01 1.265930e-01 -8.596219e-20
214            7.897417e+00 2.273442e+02 3.792714e-18 7.183583e+00 2.272216e+02 3.877448e-18 7.138338e-01 1.225692e-01 -8.473451e-20
215            8.385988e+00 2.207670e+02 3.471740e-18 7.632072e+00 2.206477e+02 3.573009e-18 7.539159e-01 1.192733e-01 -1.012682e-19
216            8.785218e+00 2.136478e+02 3.131141e-18 7.995263e+00 2.135336e+02 3.244016e-18 7.899554e-01 1.142736e-01 -1.128747e-19
217            9.121153e+00 2.059121e+02 2.774911e-18 8.290427e+00 2.058026e+02 2.882668e-18 8.307265e-01 1.094988e-01 -1.077571e-19
218            9.466679e+00 1.981790e+02 2.419991e-18 8.600733e+00 1.980756e+02 2.515219e-18 8.659464e-01 1.033877e-01 -9.522710e-20
219            9.897103e+00 1.917616e+02 2.106327e-18 8.990157e+00 1.916629e+02 2.204365e-18 9.069456e-01 9.866826e-02 -9.803738e-20
220            1.039140e+01 1.860323e+02 1.828255e-18 9.448025e+00 1.859386e+02 1.935189e-18 9.433755e-01 9.372559e-02 -1.069348e-19
221            1.089946e+01 1.803191e+02 1.561815e-18 9.913129e+00 1.802291e+02 1.687278e-18 9.863283e-01 8.998687e-02 -1.254630e-19