# Moment      
# CofR        : (0.000000e+00 0.000000e+00 0.000000e+00)
#
# Time        	total_x total_y total_z	pressure_x pressure_y pressure_z	viscous_x viscous_y viscous_z
1              -4.232118e+04 8.017700e+03 1.563035e+05 -4.231307e+04 7.960922e+03 1.562849e+05 -8.112095e+00 5.677728e+01 1.857308e+01
2              -3.990192e+04 4.184861e+03 1.395764e+05 -3.990670e+04 4.139046e+03 1.395694e+05 4.782835e+00 4.581441e+01 6.998148e+00
3              -1.272604e+04 -1.428609e+03 3.040185e+04 -1.272330e+04 -1.466919e+03 3.037710e+04 -2.733107e+00 3.831016e+01 2.474991e+01
4              8.596369e+03 -1.942114e+03 -4.932351e+04 8.609118e+03 -1.963407e+03 -4.937735e+04 -1.274848e+01 2.129343e+01 5.384112e+01
5              9.349087e+03 -6.357407e+02 -4.464475e+04 9.369643e+03 -6.536488e+02 -4.472741e+04 -2.055677e+01 1.790809e+01 8.265813e+01
6              -3.146013e+03 2.136250e+01 1.178113e+04 -3.120619e+03 -1.577174e+01 1.168523e+04 -2.539414e+01 3.713424e+01 9.589331e+01
7              -1.414553e+04 -1.060859e+02 5.261810e+04 -1.412363e+04 -1.613553e+02 5.253819e+04 -2.190549e+01 5.526942e+01 7.991078e+01
8              -1.828849e+04 -1.101437e+02 6.099835e+04 -1.827655e+04 -1.731553e+02 6.094686e+04 -1.193526e+01 6.301166e+01 5.148725e+01
9              -1.658123e+04 1.702346e+02 4.676095e+04 -1.657395e+04 1.049721e+02 4.672685e+04 -7.280974e+00 6.526255e+01 3.410467e+01
10             -1.179423e+04 2.314113e+02 2.499268e+04 -1.178733e+04 1.640704e+02 2.496266e+04 -6.897328e+00 6.734089e+01 3.001283e+01
11             -8.035689e+03 -2.273729e+01 1.134709e+04 -8.028013e+03 -9.233280e+01 1.131549e+04 -7.675390e+00 6.959551e+01 3.159244e+01
12             -7.153569e+03 -2.751153e+02 1.072704e+04 -7.145150e+03 -3.469432e+02 1.069364e+04 -8.419168e+00 7.182789e+01 3.339810e+01
13             -8.487154e+03 -3.827406e+02 1.852002e+04 -8.478327e+03 -4.559503e+02 1.848815e+04 -8.826118e+00 7.320976e+01 3.187174e+01
14             -1.073180e+04 -3.626901e+02 2.850537e+04 -1.072272e+04 -4.370769e+02 2.847696e+04 -9.089454e+00 7.438679e+01 2.841498e+01
15             -1.251243e+04 -2.846770e+02 3.496326e+04 -1.250347e+04 -3.607735e+02 3.493918e+04 -8.962357e+00 7.609650e+01 2.408022e+01
16             -1.322040e+04 -1.885321e+02 3.593109e+04 -1.321177e+04 -2.662434e+02 3.591001e+04 -8.637389e+00 7.771131e+01 2.107600e+01
17             -1.280157e+04 -1.317165e+02 3.204117e+04 -1.279318e+04 -2.116499e+02 3.202181e+04 -8.393586e+00 7.993336e+01 1.935506e+01
18             -1.167986e+04 -1.980128e+02 2.609207e+04 -1.167173e+04 -2.792203e+02 2.607365e+04 -8.124506e+00 8.120750e+01 1.842093e+01
19             -1.062884e+04 -3.654292e+02 2.178684e+04 -1.062059e+04 -4.469952e+02 2.176786e+04 -8.251154e+00 8.156597e+01 1.897667e+01
20             -1.019793e+04 -5.457167e+02 2.118445e+04 -1.018963e+04 -6.267324e+02 2.116534e+04 -8.305765e+00 8.101570e+01 1.910921e+01
21             -1.066969e+04 -6.275991e+02 2.462117e+04 -1.066122e+04 -7.075099e+02 2.460187e+04 -8.472537e+00 7.991087e+01 1.930378e+01
22             -1.174154e+04 -5.725607e+02 2.977668e+04 -1.173319e+04 -6.518298e+02 2.975876e+04 -8.350473e+00 7.926909e+01 1.791296e+01
23             -1.271351e+04 -4.542775e+02 3.330955e+04 -1.270522e+04 -5.331584e+02 3.329294e+04 -8.283442e+00 7.888086e+01 1.660958e+01
24             -1.304775e+04 -3.620964e+02 3.332317e+04 -1.303969e+04 -4.411362e+02 3.330841e+04 -8.057324e+00 7.903978e+01 1.476178e+01
25             -1.256541e+04 -3.581532e+02 2.996028e+04 -1.255742e+04 -4.372672e+02 2.994623e+04 -7.990108e+00 7.911398e+01 1.404898e+01
26             -1.166476e+04 -4.441722e+02 2.569129e+04 -1.165688e+04 -5.229227e+02 2.567748e+04 -7.880246e+00 7.875044e+01 1.381133e+01
27             -1.096147e+04 -5.582023e+02 2.320069e+04 -1.095369e+04 -6.363409e+02 2.318675e+04 -7.779556e+00 7.813856e+01 1.393838e+01
28             -1.076254e+04 -6.518798e+02 2.338128e+04 -1.075478e+04 -7.290562e+02 2.336683e+04 -7.763965e+00 7.717646e+01 1.445410e+01
29             -1.116200e+04 -6.843165e+02 2.591700e+04 -1.115425e+04 -7.607859e+02 2.590254e+04 -7.747394e+00 7.646939e+01 1.445888e+01
30             -1.181788e+04 -6.557335e+02 2.877066e+04 -1.181004e+04 -7.318218e+02 2.875626e+04 -7.839040e+00 7.608832e+01 1.440468e+01
31             -1.220706e+04 -6.125928e+02 2.971252e+04 -1.219928e+04 -6.888750e+02 2.969918e+04 -7.785067e+00 7.628217e+01 1.333993e+01
32             -1.206562e+04 -5.977001e+02 2.794763e+04 -1.205803e+04 -6.746598e+02 2.793586e+04 -7.595676e+00 7.695969e+01 1.176850e+01
33             -1.134709e+04 -6.362358e+02 2.373583e+04 -1.133975e+04 -7.139944e+02 2.372546e+04 -7.333549e+00 7.775860e+01 1.036980e+01
34             -1.032635e+04 -7.217093e+02 1.867939e+04 -1.031933e+04 -8.002346e+02 1.867015e+04 -7.023217e+00 7.852534e+01 9.231646e+00
35             -9.461020e+03 -8.164944e+02 1.482112e+04 -9.454153e+03 -8.955821e+02 1.481202e+04 -6.867372e+00 7.908769e+01 9.104941e+00
36             -9.004674e+03 -8.875163e+02 1.303437e+04 -8.997824e+03 -9.669196e+02 1.302481e+04 -6.850236e+00 7.940322e+01 9.554996e+00
37             -8.957599e+03 -9.216064e+02 1.301370e+04 -8.950717e+03 -1.001366e+03 1.300386e+04 -6.881994e+00 7.975945e+01 9.847102e+00
38             -9.175204e+03 -9.255298e+02 1.389878e+04 -9.168299e+03 -1.005659e+03 1.388901e+04 -6.905227e+00 8.012914e+01 9.773309e+00
39             -9.432752e+03 -9.211093e+02 1.464845e+04 -9.425952e+03 -1.001740e+03 1.463959e+04 -6.800444e+00 8.063089e+01 8.860302e+00
40             -9.546146e+03 -9.289456e+02 1.457454e+04 -9.539507e+03 -1.010109e+03 1.456682e+04 -6.638532e+00 8.116342e+01 7.722150e+00
41             -9.484140e+03 -9.551826e+02 1.374029e+04 -9.477652e+03 -1.036712e+03 1.373342e+04 -6.487502e+00 8.152958e+01 6.873419e+00
42             -9.334717e+03 -9.911320e+02 1.270293e+04 -9.328333e+03 -1.072874e+03 1.269647e+04 -6.383943e+00 8.174169e+01 6.455164e+00
43             -9.248305e+03 -1.020013e+03 1.219049e+04 -9.241976e+03 -1.101802e+03 1.218418e+04 -6.328995e+00 8.178810e+01 6.309231e+00
44             -9.328083e+03 -1.031427e+03 1.258679e+04 -9.321768e+03 -1.113154e+03 1.258052e+04 -6.314872e+00 8.172753e+01 6.272214e+00
45             -9.585030e+03 -1.026727e+03 1.379704e+04 -9.578675e+03 -1.108355e+03 1.379067e+04 -6.355405e+00 8.162800e+01 6.368954e+00
46             -9.982414e+03 -1.013848e+03 1.553348e+04 -9.976022e+03 -1.095410e+03 1.552719e+04 -6.391955e+00 8.156152e+01 6.288985e+00
47             -1.040342e+04 -1.003856e+03 1.725099e+04 -1.039701e+04 -1.085420e+03 1.724498e+04 -6.410435e+00 8.156391e+01 6.013944e+00
48             -1.074079e+04 -1.002600e+03 1.853172e+04 -1.073438e+04 -1.084198e+03 1.852605e+04 -6.412913e+00 8.159736e+01 5.674604e+00
49             -1.098470e+04 -1.007822e+03 1.940213e+04 -1.097831e+04 -1.089505e+03 1.939685e+04 -6.390743e+00 8.168272e+01 5.275232e+00
50             -1.118058e+04 -1.014268e+03 2.009111e+04 -1.117423e+04 -1.096100e+03 2.008625e+04 -6.355449e+00 8.183193e+01 4.856799e+00
51             -1.135670e+04 -1.018464e+03 2.071105e+04 -1.135038e+04 -1.100508e+03 2.070662e+04 -6.319829e+00 8.204454e+01 4.426543e+00
52             -1.151691e+04 -1.021604e+03 2.124370e+04 -1.151063e+04 -1.103931e+03 2.123974e+04 -6.286222e+00 8.232687e+01 3.954688e+00
53             -1.166310e+04 -1.026521e+03 2.167188e+04 -1.165684e+04 -1.109178e+03 2.166837e+04 -6.265237e+00 8.265743e+01 3.517758e+00
54             -1.178681e+04 -1.035335e+03 2.195436e+04 -1.178056e+04 -1.118325e+03 2.195127e+04 -6.246479e+00 8.298982e+01 3.091504e+00
55             -1.187423e+04 -1.048113e+03 2.205311e+04 -1.186800e+04 -1.131412e+03 2.205042e+04 -6.225372e+00 8.329922e+01 2.687105e+00
56             -1.193234e+04 -1.062839e+03 2.202906e+04 -1.192614e+04 -1.146383e+03 2.202669e+04 -6.207176e+00 8.354350e+01 2.363861e+00
57             -1.198074e+04 -1.077650e+03 2.198182e+04 -1.197455e+04 -1.161384e+03 2.197972e+04 -6.190548e+00 8.373359e+01 2.103432e+00
58             -1.203571e+04 -1.091385e+03 2.199391e+04 -1.202953e+04 -1.175273e+03 2.199203e+04 -6.176251e+00 8.388756e+01 1.883273e+00
59             -1.210337e+04 -1.103854e+03 2.210499e+04 -1.209721e+04 -1.187870e+03 2.210330e+04 -6.165937e+00 8.401597e+01 1.694704e+00
60             -1.218441e+04 -1.115654e+03 2.231261e+04 -1.217826e+04 -1.199778e+03 2.231111e+04 -6.154300e+00 8.412452e+01 1.504248e+00
61             -1.228072e+04 -1.127122e+03 2.260473e+04 -1.227458e+04 -1.211334e+03 2.260344e+04 -6.136201e+00 8.421109e+01 1.285510e+00
62             -1.239167e+04 -1.138064e+03 2.295667e+04 -1.238556e+04 -1.222335e+03 2.295563e+04 -6.112019e+00 8.427187e+01 1.040908e+00
63             -1.250829e+04 -1.148145e+03 2.331365e+04 -1.250220e+04 -1.232451e+03 2.331286e+04 -6.085556e+00 8.430522e+01 7.904037e-01
64             -1.262013e+04 -1.157518e+03 2.363011e+04 -1.261407e+04 -1.241834e+03 2.362955e+04 -6.059875e+00 8.431612e+01 5.539664e-01
65             -1.271679e+04 -1.166958e+03 2.387466e+04 -1.271075e+04 -1.251263e+03 2.387433e+04 -6.034343e+00 8.430464e+01 3.333649e-01
66             -1.279419e+04 -1.177138e+03 2.404863e+04 -1.278818e+04 -1.261415e+03 2.404849e+04 -6.009866e+00 8.427660e+01 1.396398e-01
67             -1.285918e+04 -1.188353e+03 2.418859e+04 -1.285320e+04 -1.272574e+03 2.418862e+04 -5.982265e+00 8.422094e+01 -3.230635e-02
68             -1.292339e+04 -1.200253e+03 2.433791e+04 -1.291743e+04 -1.284397e+03 2.433808e+04 -5.954770e+00 8.414349e+01 -1.731873e-01
69             -1.299288e+04 -1.211890e+03 2.451180e+04 -1.298696e+04 -1.295926e+03 2.451209e+04 -5.928119e+00 8.403560e+01 -2.939677e-01
70             -1.306788e+04 -1.222096e+03 2.470414e+04 -1.306198e+04 -1.306010e+03 2.470454e+04 -5.903822e+00 8.391400e+01 -3.955599e-01
71             -1.314398e+04 -1.230793e+03 2.489338e+04 -1.313810e+04 -1.314569e+03 2.489387e+04 -5.879019e+00 8.377617e+01 -4.932783e-01
72             -1.321870e+04 -1.238712e+03 2.507095e+04 -1.321284e+04 -1.322352e+03 2.507153e+04 -5.853561e+00 8.364003e+01 -5.833114e-01
73             -1.328635e+04 -1.247128e+03 2.522027e+04 -1.328052e+04 -1.330622e+03 2.522094e+04 -5.826095e+00 8.349408e+01 -6.692933e-01
74             -1.334348e+04 -1.256919e+03 2.533685e+04 -1.333768e+04 -1.340266e+03 2.533759e+04 -5.798775e+00 8.334658e+01 -7.380151e-01
75             -1.339387e+04 -1.267965e+03 2.543770e+04 -1.338810e+04 -1.351143e+03 2.543849e+04 -5.771118e+00 8.317812e+01 -7.927494e-01
76             -1.344533e+04 -1.279048e+03 2.555176e+04 -1.343959e+04 -1.362048e+03 2.555258e+04 -5.745550e+00 8.299955e+01 -8.273627e-01
77             -1.350149e+04 -1.288978e+03 2.568789e+04 -1.349577e+04 -1.371779e+03 2.568875e+04 -5.721143e+00 8.280130e+01 -8.543462e-01
78             -1.356424e+04 -1.297201e+03 2.584855e+04 -1.355854e+04 -1.379804e+03 2.584942e+04 -5.698917e+00 8.260296e+01 -8.720064e-01
79             -1.363094e+04 -1.304178e+03 2.601922e+04 -1.362526e+04 -1.386576e+03 2.602011e+04 -5.676693e+00 8.239813e+01 -8.906308e-01
80             -1.369275e+04 -1.311124e+03 2.616868e+04 -1.368710e+04 -1.393326e+03 2.616958e+04 -5.654900e+00 8.220189e+01 -9.033132e-01
81             -1.374331e+04 -1.319245e+03 2.627631e+04 -1.373768e+04 -1.401243e+03 2.627723e+04 -5.631480e+00 8.199877e+01 -9.137447e-01
82             -1.378595e+04 -1.328561e+03 2.635882e+04 -1.378035e+04 -1.410356e+03 2.635973e+04 -5.607990e+00 8.179522e+01 -9.117196e-01
83             -1.382648e+04 -1.338370e+03 2.643762e+04 -1.382090e+04 -1.419947e+03 2.643852e+04 -5.584653e+00 8.157655e+01 -9.014370e-01
84             -1.387100e+04 -1.347737e+03 2.653261e+04 -1.386544e+04 -1.429093e+03 2.653349e+04 -5.563990e+00 8.135528e+01 -8.776603e-01
85             -1.391846e+04 -1.355912e+03 2.663720e+04 -1.391292e+04 -1.437036e+03 2.663805e+04 -5.544897e+00 8.112391e+01 -8.501725e-01
86             -1.396832e+04 -1.362761e+03 2.674823e+04 -1.396280e+04 -1.443661e+03 2.674905e+04 -5.527210e+00 8.089922e+01 -8.171765e-01
87             -1.400866e+04 -1.369375e+03 2.682540e+04 -1.400315e+04 -1.450047e+03 2.682619e+04 -5.508070e+00 8.067245e+01 -7.864060e-01
88             -1.404473e+04 -1.376263e+03 2.688946e+04 -1.403925e+04 -1.456717e+03 2.689021e+04 -5.488157e+00 8.045342e+01 -7.505154e-01
89             -1.407793e+04 -1.383803e+03 2.694657e+04 -1.407247e+04 -1.464031e+03 2.694728e+04 -5.467418e+00 8.022710e+01 -7.113453e-01
90             -1.411309e+04 -1.391878e+03 2.701303e+04 -1.410764e+04 -1.471880e+03 2.701369e+04 -5.448472e+00 8.000141e+01 -6.611413e-01
91             -1.415142e+04 -1.400124e+03 2.709044e+04 -1.414599e+04 -1.479889e+03 2.709105e+04 -5.431000e+00 7.976491e+01 -6.072978e-01
92             -1.419072e+04 -1.407723e+03 2.717175e+04 -1.418530e+04 -1.487254e+03 2.717230e+04 -5.415532e+00 7.953085e+01 -5.475352e-01
93             -1.422267e+04 -1.414413e+03 2.722905e+04 -1.421727e+04 -1.493705e+03 2.722954e+04 -5.399063e+00 7.929159e+01 -4.906023e-01
94             -1.425276e+04 -1.420382e+03 2.728243e+04 -1.424738e+04 -1.499443e+03 2.728286e+04 -5.381965e+00 7.906087e+01 -4.304100e-01
95             -1.428285e+04 -1.426154e+03 2.733707e+04 -1.427748e+04 -1.504981e+03 2.733744e+04 -5.363848e+00 7.882712e+01 -3.702460e-01
96             -1.431423e+04 -1.432145e+03 2.739700e+04 -1.430888e+04 -1.510745e+03 2.739731e+04 -5.347248e+00 7.859998e+01 -3.021535e-01
97             -1.434479e+04 -1.438592e+03 2.745402e+04 -1.433946e+04 -1.516958e+03 2.745425e+04 -5.331545e+00 7.836582e+01 -2.323742e-01
98             -1.437374e+04 -1.445253e+03 2.750660e+04 -1.436842e+04 -1.523388e+03 2.750676e+04 -5.317258e+00 7.813555e+01 -1.570585e-01
99             -1.440038e+04 -1.451769e+03 2.755221e+04 -1.439508e+04 -1.529667e+03 2.755229e+04 -5.302368e+00 7.789776e+01 -8.401040e-02
100            -1.442540e+04 -1.457684e+03 2.759459e+04 -1.442011e+04 -1.535351e+03 2.759460e+04 -5.287747e+00 7.766660e+01 -7.282925e-03
101            -1.444913e+04 -1.462997e+03 2.763390e+04 -1.444386e+04 -1.540429e+03 2.763383e+04 -5.272431e+00 7.743142e+01 6.773956e-02
102            -1.447337e+04 -1.467890e+03 2.767630e+04 -1.446812e+04 -1.545096e+03 2.767615e+04 -5.258152e+00 7.720571e+01 1.483803e-01
103            -1.449774e+04 -1.472756e+03 2.771889e+04 -1.449249e+04 -1.549732e+03 2.771866e+04 -5.243943e+00 7.697572e+01 2.280707e-01
104            -1.452102e+04 -1.477715e+03 2.775903e+04 -1.451579e+04 -1.554469e+03 2.775872e+04 -5.230936e+00 7.675390e+01 3.125097e-01
105            -1.454141e+04 -1.482793e+03 2.779048e+04 -1.453619e+04 -1.559318e+03 2.779009e+04 -5.217343e+00 7.652568e+01 3.942269e-01
106            -1.456067e+04 -1.487752e+03 2.782060e+04 -1.455547e+04 -1.564057e+03 2.782012e+04 -5.204246e+00 7.630512e+01 4.797942e-01
107            -1.457993e+04 -1.492518e+03 2.785140e+04 -1.457474e+04 -1.568596e+03 2.785084e+04 -5.190561e+00 7.607851e+01 5.626339e-01
108            -1.459946e+04 -1.496856e+03 2.788464e+04 -1.459428e+04 -1.572718e+03 2.788399e+04 -5.178021e+00 7.586155e+01 6.497956e-01
109            -1.461744e+04 -1.500859e+03 2.791304e+04 -1.461228e+04 -1.576499e+03 2.791230e+04 -5.165167e+00 7.564024e+01 7.339758e-01
110            -1.463442e+04 -1.504611e+03 2.793962e+04 -1.462926e+04 -1.580041e+03 2.793880e+04 -5.153052e+00 7.542972e+01 8.217850e-01
111            -1.465028e+04 -1.508344e+03 2.796279e+04 -1.464514e+04 -1.583558e+03 2.796188e+04 -5.140140e+00 7.521403e+01 9.060740e-01
112            -1.466674e+04 -1.512014e+03 2.798945e+04 -1.466161e+04 -1.587022e+03 2.798845e+04 -5.128037e+00 7.500815e+01 9.942279e-01
113            -1.467979e+04 -1.515600e+03 2.800564e+04 -1.467468e+04 -1.590396e+03 2.800456e+04 -5.115312e+00 7.479612e+01 1.079102e+00
114            -1.469329e+04 -1.519020e+03 2.802509e+04 -1.468818e+04 -1.593615e+03 2.802392e+04 -5.103486e+00 7.459437e+01 1.168021e+00
115            -1.470763e+04 -1.522278e+03 2.804795e+04 -1.470254e+04 -1.596665e+03 2.804669e+04 -5.091168e+00 7.438700e+01 1.253192e+00
116            -1.472082e+04 -1.525227e+03 2.806855e+04 -1.471574e+04 -1.599419e+03 2.806721e+04 -5.079662e+00 7.419143e+01 1.341200e+00
117            -1.473111e+04 -1.528002e+03 2.807980e+04 -1.472604e+04 -1.601993e+03 2.807838e+04 -5.067228e+00 7.399046e+01 1.424861e+00
118            -1.474161e+04 -1.530593e+03 2.809324e+04 -1.473656e+04 -1.604394e+03 2.809173e+04 -5.055355e+00 7.380160e+01 1.511866e+00
119            -1.475264e+04 -1.533127e+03 2.810836e+04 -1.474760e+04 -1.606733e+03 2.810677e+04 -5.042748e+00 7.360649e+01 1.595046e+00
120            -1.476309e+04 -1.535492e+03 2.812317e+04 -1.475806e+04 -1.608915e+03 2.812148e+04 -5.031168e+00 7.342372e+01 1.681627e+00
121            -1.477170e+04 -1.537781e+03 2.813232e+04 -1.476668e+04 -1.611014e+03 2.813055e+04 -5.019996e+00 7.323328e+01 1.764986e+00
122            -1.477982e+04 -1.539911e+03 2.814190e+04 -1.477481e+04 -1.612967e+03 2.814004e+04 -5.010540e+00 7.305556e+01 1.852086e+00
123            -1.478713e+04 -1.541965e+03 2.814912e+04 -1.478213e+04 -1.614835e+03 2.814719e+04 -5.001680e+00 7.286960e+01 1.935885e+00
124            -1.479470e+04 -1.543790e+03 2.815894e+04 -1.478970e+04 -1.616487e+03 2.815692e+04 -4.994453e+00 7.269739e+01 2.023021e+00
125            -1.480084e+04 -1.545497e+03 2.816383e+04 -1.479585e+04 -1.618014e+03 2.816172e+04 -4.986833e+00 7.251683e+01 2.105798e+00
126            -1.480775e+04 -1.546977e+03 2.817284e+04 -1.480277e+04 -1.619329e+03 2.817065e+04 -4.980281e+00 7.235199e+01 2.191263e+00
127            -1.481345e+04 -1.548388e+03 2.817756e+04 -1.480848e+04 -1.620566e+03 2.817528e+04 -4.973859e+00 7.217783e+01 2.272687e+00
128            -1.481890e+04 -1.549648e+03 2.818310e+04 -1.481393e+04 -1.621667e+03 2.818074e+04 -4.968753e+00 7.201973e+01 2.357199e+00
129            -1.482295e+04 -1.550925e+03 2.818399e+04 -1.481799e+04 -1.622777e+03 2.818155e+04 -4.963248e+00 7.185152e+01 2.437749e+00
130            -1.482676e+04 -1.552061e+03 2.818587e+04 -1.482181e+04 -1.623761e+03 2.818335e+04 -4.958961e+00 7.170014e+01 2.521269e+00
131            -1.482999e+04 -1.553166e+03 2.818599e+04 -1.482504e+04 -1.624704e+03 2.818339e+04 -4.954164e+00 7.153812e+01 2.600690e+00
132            -1.483363e+04 -1.554038e+03 2.818924e+04 -1.482868e+04 -1.625432e+03 2.818656e+04 -4.950369e+00 7.139345e+01 2.682507e+00
133            -1.483638e+04 -1.554799e+03 2.818919e+04 -1.483143e+04 -1.626037e+03 2.818643e+04 -4.946025e+00 7.123817e+01 2.759819e+00
134            -1.483910e+04 -1.555370e+03 2.819039e+04 -1.483416e+04 -1.626471e+03 2.818755e+04 -4.942646e+00 7.110062e+01 2.839443e+00
135            -1.484073e+04 -1.555898e+03 2.818795e+04 -1.483579e+04 -1.626850e+03 2.818503e+04 -4.939333e+00 7.095192e+01 2.915468e+00
136            -1.484245e+04 -1.556349e+03 2.818735e+04 -1.483752e+04 -1.627170e+03 2.818435e+04 -4.937979e+00 7.082058e+01 2.994775e+00
137            -1.484316e+04 -1.556862e+03 2.818298e+04 -1.483823e+04 -1.627540e+03 2.817991e+04 -4.936589e+00 7.067726e+01 3.070762e+00
138            -1.484418e+04 -1.557245e+03 2.818140e+04 -1.483924e+04 -1.627796e+03 2.817825e+04 -4.936249e+00 7.055078e+01 3.149315e+00
139            -1.484420e+04 -1.557583e+03 2.817607e+04 -1.483927e+04 -1.627996e+03 2.817284e+04 -4.935059e+00 7.041241e+01 3.223688e+00
140            -1.484462e+04 -1.557707e+03 2.817386e+04 -1.483968e+04 -1.627998e+03 2.817056e+04 -4.934632e+00 7.029149e+01 3.300120e+00
141            -1.484415e+04 -1.557771e+03 2.816821e+04 -1.483922e+04 -1.627930e+03 2.816484e+04 -4.933412e+00 7.015932e+01 3.372364e+00
142            -1.484404e+04 -1.557672e+03 2.816518e+04 -1.483910e+04 -1.627718e+03 2.816173e+04 -4.933087e+00 7.004538e+01 3.446558e+00
143            -1.484291e+04 -1.557623e+03 2.815819e+04 -1.483797e+04 -1.627543e+03 2.815467e+04 -4.932048e+00 6.991969e+01 3.517017e+00
144            -1.484207e+04 -1.557512e+03 2.815362e+04 -1.483714e+04 -1.627324e+03 2.815003e+04 -4.931873e+00 6.981205e+01 3.589357e+00
145            -1.484023e+04 -1.557460e+03 2.814527e+04 -1.483530e+04 -1.627151e+03 2.814161e+04 -4.931062e+00 6.969176e+01 3.658233e+00
146            -1.483881e+04 -1.557277e+03 2.813969e+04 -1.483388e+04 -1.626866e+03 2.813596e+04 -4.931162e+00 6.958966e+01 3.728770e+00
147            -1.483627e+04 -1.557061e+03 2.813005e+04 -1.483134e+04 -1.626536e+03 2.812625e+04 -4.930650e+00 6.947454e+01 3.795954e+00
148            -1.483433e+04 -1.556672e+03 2.812368e+04 -1.482940e+04 -1.626050e+03 2.811982e+04 -4.930935e+00 6.937853e+01 3.864326e+00
149            -1.483144e+04 -1.556270e+03 2.811365e+04 -1.482651e+04 -1.625539e+03 2.810972e+04 -4.930550e+00 6.926903e+01 3.929434e+00
150            -1.482904e+04 -1.555757e+03 2.810662e+04 -1.482411e+04 -1.624936e+03 2.810262e+04 -4.930989e+00 6.917904e+01 3.995788e+00
151            -1.482578e+04 -1.555318e+03 2.809597e+04 -1.482084e+04 -1.624393e+03 2.809191e+04 -4.930828e+00 6.907491e+01 4.059129e+00
152            -1.482290e+04 -1.554796e+03 2.808795e+04 -1.481797e+04 -1.623787e+03 2.808383e+04 -4.931523e+00 6.899072e+01 4.123510e+00
153            -1.481904e+04 -1.554333e+03 2.807596e+04 -1.481411e+04 -1.623224e+03 2.807178e+04 -4.931597e+00 6.889132e+01 4.185026e+00
154            -1.481571e+04 -1.553749e+03 2.806728e+04 -1.481078e+04 -1.622562e+03 2.806303e+04 -4.932477e+00 6.881269e+01 4.247153e+00
155            -1.481156e+04 -1.553198e+03 2.805505e+04 -1.480663e+04 -1.621916e+03 2.805074e+04 -4.932774e+00 6.871788e+01 4.306728e+00
156            -1.480788e+04 -1.552505e+03 2.804574e+04 -1.480294e+04 -1.621150e+03 2.804138e+04 -4.933889e+00 6.864479e+01 4.366710e+00
157            -1.480315e+04 -1.551836e+03 2.803207e+04 -1.479821e+04 -1.620391e+03 2.802765e+04 -4.934409e+00 6.855470e+01 4.424453e+00
158            -1.479905e+04 -1.551040e+03 2.802203e+04 -1.479411e+04 -1.619527e+03 2.801755e+04 -4.935683e+00 6.848720e+01 4.482260e+00
159            -1.479424e+04 -1.550326e+03 2.800877e+04 -1.478930e+04 -1.618728e+03 2.800424e+04 -4.936388e+00 6.840193e+01 4.538037e+00
160            -1.479019e+04 -1.549532e+03 2.799937e+04 -1.478525e+04 -1.617872e+03 2.799478e+04 -4.937892e+00 6.833950e+01 4.593670e+00
161            -1.478512e+04 -1.548830e+03 2.798550e+04 -1.478018e+04 -1.617089e+03 2.798085e+04 -4.938867e+00 6.825867e+01 4.647532e+00
162            -1.478047e+04 -1.548024e+03 2.797433e+04 -1.477553e+04 -1.616225e+03 2.796963e+04 -4.940556e+00 6.820090e+01 4.700955e+00
163            -1.477482e+04 -1.547274e+03 2.795896e+04 -1.476988e+04 -1.615398e+03 2.795420e+04 -4.941671e+00 6.812456e+01 4.752787e+00
164            -1.476993e+04 -1.546394e+03 2.794755e+04 -1.476498e+04 -1.614465e+03 2.794274e+04 -4.943481e+00 6.807150e+01 4.803980e+00
165            -1.476424e+04 -1.545568e+03 2.793254e+04 -1.475929e+04 -1.613568e+03 2.792768e+04 -4.944797e+00 6.799969e+01 4.853885e+00
166            -1.475926e+04 -1.544633e+03 2.792119e+04 -1.475431e+04 -1.612584e+03 2.791629e+04 -4.946809e+00 6.795130e+01 4.902908e+00
167            -1.475337e+04 -1.543782e+03 2.790582e+04 -1.474843e+04 -1.611666e+03 2.790087e+04 -4.948315e+00 6.788386e+01 4.950823e+00
168            -1.474818e+04 -1.542850e+03 2.789403e+04 -1.474323e+04 -1.610690e+03 2.788904e+04 -4.950449e+00 6.783999e+01 4.997490e+00
169            -1.474212e+04 -1.542008e+03 2.787830e+04 -1.473717e+04 -1.609785e+03 2.787326e+04 -4.952084e+00 6.777662e+01 5.043365e+00
170            -1.473678e+04 -1.541075e+03 2.786627e+04 -1.473182e+04 -1.608812e+03 2.786118e+04 -4.954346e+00 6.773712e+01 5.087723e+00
171            -1.473055e+04 -1.540213e+03 2.785025e+04 -1.472559e+04 -1.607890e+03 2.784512e+04 -4.956138e+00 6.767759e+01 5.131692e+00
172            -1.472505e+04 -1.539247e+03 2.783794e+04 -1.472009e+04 -1.606890e+03 2.783277e+04 -4.958538e+00 6.764258e+01 5.173703e+00
173            -1.471871e+04 -1.538354e+03 2.782180e+04 -1.471375e+04 -1.605940e+03 2.781659e+04 -4.960447e+00 6.758671e+01 5.215751e+00
174            -1.471314e+04 -1.537371e+03 2.780942e+04 -1.470818e+04 -1.604927e+03 2.780416e+04 -4.962952e+00 6.755631e+01 5.255269e+00
175            -1.470671e+04 -1.536467e+03 2.779313e+04 -1.470175e+04 -1.603971e+03 2.778783e+04 -4.964947e+00 6.750371e+01 5.295489e+00
176            -1.470100e+04 -1.535489e+03 2.778041e+04 -1.469603e+04 -1.602967e+03 2.777508e+04 -4.967564e+00 6.747815e+01 5.332422e+00
177            -1.469444e+04 -1.534584e+03 2.776388e+04 -1.468947e+04 -1.602013e+03 2.775851e+04 -4.969621e+00 6.742825e+01 5.371021e+00
178            -1.468866e+04 -1.533613e+03 2.775112e+04 -1.468369e+04 -1.601021e+03 2.774572e+04 -4.972364e+00 6.740798e+01 5.405155e+00
179            -1.468213e+04 -1.532698e+03 2.773486e+04 -1.467716e+04 -1.600058e+03 2.772942e+04 -4.974444e+00 6.735991e+01 5.442381e+00
180            -1.467637e+04 -1.531735e+03 2.772223e+04 -1.467140e+04 -1.599081e+03 2.771676e+04 -4.977344e+00 6.734573e+01 5.473234e+00
181            -1.466987e+04 -1.530806e+03 2.770613e+04 -1.466489e+04 -1.598104e+03 2.770062e+04 -4.979370e+00 6.729817e+01 5.509462e+00
182            -1.466401e+04 -1.529865e+03 2.769310e+04 -1.465903e+04 -1.597157e+03 2.768757e+04 -4.982482e+00 6.729161e+01 5.536479e+00
183            -1.465748e+04 -1.528919e+03 2.767703e+04 -1.465249e+04 -1.596162e+03 2.767146e+04 -4.984354e+00 6.724254e+01 5.572649e+00
184            -1.465151e+04 -1.528015e+03 2.766360e+04 -1.464653e+04 -1.595261e+03 2.765801e+04 -4.987720e+00 6.724589e+01 5.594848e+00
185            -1.464501e+04 -1.527052e+03 2.764791e+04 -1.464002e+04 -1.594245e+03 2.764228e+04 -4.989547e+00 6.719310e+01 5.632072e+00
186            -1.463904e+04 -1.526177e+03 2.763440e+04 -1.463405e+04 -1.593384e+03 2.762875e+04 -4.993105e+00 6.720777e+01 5.648726e+00
187            -1.463264e+04 -1.525228e+03 2.761924e+04 -1.462764e+04 -1.592379e+03 2.761355e+04 -4.995048e+00 6.715142e+01 5.687067e+00
188            -1.462795e+04 -1.524456e+03 2.760901e+04 -1.462295e+04 -1.591631e+03 2.760331e+04 -4.998832e+00 6.717451e+01 5.699155e+00
189            -1.462027e+04 -1.523448e+03 2.758995e+04 -1.461527e+04 -1.590562e+03 2.758421e+04 -5.000740e+00 6.711451e+01 5.738581e+00
190            -1.461333e+04 -1.522554e+03 2.757339e+04 -1.460833e+04 -1.589703e+03 2.756764e+04 -5.004883e+00 6.714823e+01 5.745481e+00
191            -1.460884e+04 -1.521722e+03 2.756398e+04 -1.460383e+04 -1.588804e+03 2.755819e+04 -5.005577e+00 6.708217e+01 5.786361e+00
192            -1.460181e+04 -1.520832e+03 2.754714e+04 -1.459680e+04 -1.587959e+03 2.754136e+04 -5.010613e+00 6.712732e+01 5.787636e+00
193            -1.459683e+04 -1.519956e+03 2.753624e+04 -1.459182e+04 -1.587013e+03 2.753041e+04 -5.010718e+00 6.705633e+01 5.829837e+00
194            -1.458932e+04 -1.519099e+03 2.751752e+04 -1.458430e+04 -1.586210e+03 2.751170e+04 -5.016264e+00 6.711122e+01 5.826256e+00
195            -1.458449e+04 -1.518241e+03 2.750716e+04 -1.457948e+04 -1.585278e+03 2.750130e+04 -5.015615e+00 6.703731e+01 5.868875e+00
196            -1.457739e+04 -1.517410e+03 2.748980e+04 -1.457237e+04 -1.584511e+03 2.748394e+04 -5.021565e+00 6.710088e+01 5.860809e+00
197            -1.457289e+04 -1.516557e+03 2.748055e+04 -1.456787e+04 -1.583582e+03 2.747464e+04 -5.020549e+00 6.702474e+01 5.903820e+00
198            -1.456601e+04 -1.515745e+03 2.746380e+04 -1.456098e+04 -1.582841e+03 2.745790e+04 -5.026981e+00 6.709576e+01 5.891908e+00
199            -1.456153e+04 -1.514910e+03 2.745456e+04 -1.455650e+04 -1.581928e+03 2.744863e+04 -5.025652e+00 6.701839e+01 5.934805e+00
200            -1.455463e+04 -1.514132e+03 2.743758e+04 -1.454960e+04 -1.581228e+03 2.743166e+04 -5.032297e+00 6.709553e+01 5.919359e+00
201            -1.455021e+04 -1.513316e+03 2.742845e+04 -1.454518e+04 -1.580334e+03 2.742249e+04 -5.030635e+00 6.701789e+01 5.961610e+00
202            -1.454507e+04 -1.512662e+03 2.741627e+04 -1.454003e+04 -1.579762e+03 2.741032e+04 -5.037501e+00 6.709974e+01 5.943235e+00
203            -1.453755e+04 -1.511631e+03 2.739820e+04 -1.453251e+04 -1.578654e+03 2.739222e+04 -5.035688e+00 6.702286e+01 5.984630e+00
204            -1.453311e+04 -1.511053e+03 2.738808e+04 -1.452806e+04 -1.578163e+03 2.738212e+04 -5.042393e+00 6.710910e+01 5.963657e+00
205            -1.452870e+04 -1.510294e+03 2.737895e+04 -1.452366e+04 -1.577327e+03 2.737295e+04 -5.040333e+00 6.703315e+01 6.003677e+00
206            -1.452178e+04 -1.509554e+03 2.736186e+04 -1.451673e+04 -1.576676e+03 2.735588e+04 -5.047200e+00 6.712253e+01 5.980458e+00
207            -1.451764e+04 -1.508778e+03 2.735364e+04 -1.451260e+04 -1.575826e+03 2.734762e+04 -5.044976e+00 6.704840e+01 6.019156e+00
208            -1.451317e+04 -1.508177e+03 2.734343e+04 -1.450812e+04 -1.575317e+03 2.733744e+04 -5.051921e+00 6.714045e+01 5.994002e+00
209            -1.450832e+04 -1.507402e+03 2.733267e+04 -1.450327e+04 -1.574470e+03 2.732664e+04 -5.049755e+00 6.706810e+01 6.031045e+00
210            -1.450100e+04 -1.506713e+03 2.731364e+04 -1.449594e+04 -1.573875e+03 2.730763e+04 -5.056481e+00 6.716241e+01 6.004119e+00
211            -1.449715e+04 -1.506012e+03 2.730595e+04 -1.449209e+04 -1.573104e+03 2.729991e+04 -5.053817e+00 6.709255e+01 6.039200e+00
212            -1.449330e+04 -1.505464e+03 2.729751e+04 -1.448824e+04 -1.572652e+03 2.729150e+04 -5.060492e+00 6.718840e+01 6.010723e+00
213            -1.448905e+04 -1.504743e+03 2.728854e+04 -1.448399e+04 -1.571864e+03 2.728250e+04 -5.058084e+00 6.712041e+01 6.044244e+00
214            -1.448404e+04 -1.504180e+03 2.727626e+04 -1.447898e+04 -1.571397e+03 2.727025e+04 -5.064780e+00 6.721752e+01 6.014641e+00
215            -1.447918e+04 -1.503484e+03 2.726510e+04 -1.447412e+04 -1.570636e+03 2.725905e+04 -5.062087e+00 6.715214e+01 6.046194e+00
216            -1.447263e+04 -1.502888e+03 2.724824e+04 -1.446756e+04 -1.570139e+03 2.724222e+04 -5.068322e+00 6.725055e+01 6.015155e+00
217            -1.446959e+04 -1.502280e+03 2.724269e+04 -1.446452e+04 -1.569468e+03 2.723665e+04 -5.065383e+00 6.718765e+01 6.044759e+00