# Moment      
# CofR        : (0.000000e+00 0.000000e+00 0.000000e+00)
#
# Time        	total_x total_y total_z	pressure_x pressure_y pressure_z	viscous_x viscous_y viscous_z
1              -1.001083e+04 6.381004e+02 3.553327e+04 -1.002616e+04 6.720795e+02 3.559831e+04 1.533306e+01 -3.397912e+01 -6.504029e+01
2              -9.132830e+03 3.054696e+02 3.127671e+04 -9.152488e+03 3.330556e+02 3.132972e+04 1.965789e+01 -2.758596e+01 -5.300856e+01
3              -1.510285e+03 -3.488426e+02 2.364679e+03 -1.521727e+03 -3.250490e+02 2.390737e+03 1.144154e+01 -2.379365e+01 -2.605783e+01
4              3.589937e+03 -3.196400e+02 -1.675081e+04 3.589373e+03 -2.972764e+02 -1.675810e+04 5.638163e-01 -2.236357e+01 7.286483e+00
5              3.306318e+03 -1.282109e+02 -1.489973e+04 3.320320e+03 -1.102198e+02 -1.493923e+04 -1.400203e+01 -1.799109e+01 3.949910e+01
6              -6.016933e+01 1.162229e+01 -2.117923e+03 -4.770278e+01 2.569226e+01 -2.155882e+03 -1.246655e+01 -1.406997e+01 3.795962e+01
7              -3.611701e+03 9.284570e+00 1.162821e+04 -3.610631e+03 2.126943e+01 1.161001e+04 -1.070057e+00 -1.198486e+01 1.819551e+01
8              -4.394076e+03 -1.151974e+02 1.496113e+04 -4.403647e+03 -1.051686e+02 1.495764e+04 9.571453e+00 -1.002880e+01 3.491167e+00
9              -3.138455e+03 -1.096920e+02 1.103739e+04 -3.145557e+03 -9.960688e+01 1.103584e+04 7.101152e+00 -1.008512e+01 1.555146e+00
10             -1.684334e+03 5.910732e+00 4.002330e+03 -1.684163e+03 1.576319e+01 3.993466e+03 -1.716883e-01 -9.852462e+00 8.863273e+00
11             -1.175005e+03 -1.445251e+01 8.833233e+01 -1.161612e+03 -7.765891e+00 6.142485e+01 -1.339330e+01 -6.686622e+00 2.690748e+01
12             -1.346520e+03 -1.229515e+02 -1.544068e+02 -1.334562e+03 -1.188705e+02 -1.757346e+02 -1.195864e+01 -4.080978e+00 2.132782e+01
13             -1.729665e+03 -1.800060e+02 1.740779e+03 -1.726335e+03 -1.766775e+02 1.732997e+03 -3.330800e+00 -3.328548e+00 7.781616e+00
14             -1.799743e+03 -2.039774e+02 3.185849e+03 -1.804901e+03 -2.008474e+02 3.186747e+03 5.158458e+00 -3.129950e+00 -8.972693e-01
15             -1.849852e+03 -2.038502e+02 5.132232e+03 -1.858646e+03 -2.002924e+02 5.134002e+03 8.794156e+00 -3.557775e+00 -1.770464e+00
16             -2.099237e+03 -8.916007e+01 6.054510e+03 -2.101821e+03 -8.479069e+01 6.049561e+03 2.583776e+00 -4.369385e+00 4.949149e+00
17             -2.458744e+03 -4.909900e+01 6.170739e+03 -2.453118e+03 -4.536949e+01 6.154104e+03 -5.625537e+00 -3.729514e+00 1.663535e+01
18             -2.652851e+03 -7.550564e+01 5.705095e+03 -2.640544e+03 -7.431716e+01 5.685169e+03 -1.230700e+01 -1.188482e+00 1.992552e+01
19             -2.684556e+03 -1.365474e+02 4.674333e+03 -2.677002e+03 -1.356616e+02 4.664207e+03 -7.554522e+00 -8.857646e-01 1.012645e+01
20             -2.458063e+03 -1.390445e+02 4.031617e+03 -2.455892e+03 -1.378426e+02 4.028408e+03 -2.170601e+00 -1.201920e+00 3.208412e+00
21             -1.886417e+03 -1.433172e+02 3.148340e+03 -1.891415e+03 -1.430818e+02 3.151113e+03 4.998445e+00 -2.353849e-01 -2.773611e+00
22             -1.515038e+03 -1.086498e+02 2.821935e+03 -1.518792e+03 -1.075753e+02 2.821358e+03 3.754083e+00 -1.074503e+00 5.767800e-01
23             -1.590570e+03 -7.951648e+01 3.219491e+03 -1.590658e+03 -7.732306e+01 3.212738e+03 8.837600e-02 -2.193415e+00 6.753254e+00
24             -2.102574e+03 -1.172863e+02 4.494096e+03 -2.099944e+03 -1.152210e+02 4.483214e+03 -2.629838e+00 -2.065329e+00 1.088196e+01
25             -2.434597e+03 -1.698171e+02 5.447119e+03 -2.429886e+03 -1.687963e+02 5.434850e+03 -4.710855e+00 -1.020808e+00 1.226914e+01
26             -2.701009e+03 -1.693865e+02 6.394790e+03 -2.697466e+03 -1.689376e+02 6.386977e+03 -3.543418e+00 -4.488177e-01 7.812648e+00
27             -2.588273e+03 -1.218855e+02 6.051113e+03 -2.586436e+03 -1.217950e+02 6.046751e+03 -1.836984e+00 -9.047408e-02 4.362707e+00
28             -2.215999e+03 -6.044718e+01 4.703445e+03 -2.215953e+03 -6.008482e+01 4.700594e+03 -4.568158e-02 -3.623553e-01 2.850500e+00
29             -1.928130e+03 -5.991579e+01 3.659560e+03 -1.927963e+03 -5.928358e+01 3.655425e+03 -1.661865e-01 -6.322045e-01 4.134945e+00
30             -1.942039e+03 -1.006401e+02 3.813670e+03 -1.941550e+03 -9.985784e+01 3.808051e+03 -4.894018e-01 -7.822386e-01 5.618470e+00
31             -2.167279e+03 -1.291808e+02 4.887838e+03 -2.166518e+03 -1.282133e+02 4.881393e+03 -7.617005e-01 -9.674407e-01 6.444803e+00
32             -2.460405e+03 -1.154855e+02 6.230181e+03 -2.459525e+03 -1.143850e+02 6.223766e+03 -8.802683e-01 -1.100487e+00 6.414123e+00
33             -2.616688e+03 -7.848355e+01 6.926353e+03 -2.615804e+03 -7.731257e+01 6.920528e+03 -8.838506e-01 -1.170976e+00 5.824346e+00
34             -2.594070e+03 -4.888944e+01 6.782068e+03 -2.593257e+03 -4.768920e+01 6.776861e+03 -8.129561e-01 -1.200246e+00 5.206565e+00
35             -2.463070e+03 -3.264780e+01 6.150804e+03 -2.462339e+03 -3.146291e+01 6.145864e+03 -7.308669e-01 -1.184894e+00 4.940435e+00
36             -2.311216e+03 -2.714091e+01 5.521619e+03 -2.310534e+03 -2.596517e+01 5.516541e+03 -6.823904e-01 -1.175742e+00 5.077833e+00
37             -2.234373e+03 -2.685445e+01 5.340237e+03 -2.233691e+03 -2.561010e+01 5.334763e+03 -6.819482e-01 -1.244359e+00 5.473905e+00
38             -2.261513e+03 -2.480279e+01 5.686798e+03 -2.260785e+03 -2.341048e+01 5.680885e+03 -7.285756e-01 -1.392314e+00 5.912521e+00
39             -2.395022e+03 -1.584707e+01 6.485683e+03 -2.394228e+03 -1.427425e+01 6.479472e+03 -7.935503e-01 -1.572824e+00 6.210987e+00
40             -2.566924e+03 1.838815e-01 7.339762e+03 -2.566072e+03 1.913799e+00 7.333468e+03 -8.519827e-01 -1.729917e+00 6.293727e+00
41             -2.676026e+03 1.763933e+01 7.815448e+03 -2.675145e+03 1.945825e+01 7.809271e+03 -8.811551e-01 -1.818925e+00 6.176924e+00
42             -2.690605e+03 3.307032e+01 7.848251e+03 -2.689726e+03 3.490592e+01 7.842263e+03 -8.789802e-01 -1.835596e+00 5.987308e+00
43             -2.632836e+03 4.632381e+01 7.603551e+03 -2.631969e+03 4.812350e+01 7.597667e+03 -8.670470e-01 -1.799690e+00 5.883853e+00
44             -2.544365e+03 5.679306e+01 7.299324e+03 -2.543495e+03 5.853481e+01 7.293369e+03 -8.704380e-01 -1.741752e+00 5.954352e+00
45             -2.482719e+03 6.495053e+01 7.168279e+03 -2.481822e+03 6.665959e+01 7.162096e+03 -8.964711e-01 -1.709066e+00 6.182288e+00
46             -2.474430e+03 7.294196e+01 7.291634e+03 -2.473480e+03 7.466036e+01 7.285159e+03 -9.495113e-01 -1.718401e+00 6.474969e+00
47             -2.514265e+03 8.287897e+01 7.626212e+03 -2.513253e+03 8.461331e+01 7.619499e+03 -1.012104e+00 -1.734337e+00 6.713040e+00
48             -2.577519e+03 9.470444e+01 8.034390e+03 -2.576459e+03 9.642814e+01 8.027572e+03 -1.060617e+00 -1.723697e+00 6.817966e+00
49             -2.622851e+03 1.062370e+02 8.321873e+03 -2.621761e+03 1.078878e+02 8.315089e+03 -1.090322e+00 -1.650730e+00 6.784519e+00
50             -2.624481e+03 1.154615e+02 8.391354e+03 -2.623389e+03 1.169857e+02 8.384680e+03 -1.091130e+00 -1.524215e+00 6.673093e+00
51             -2.583522e+03 1.225705e+02 8.280173e+03 -2.582439e+03 1.239237e+02 8.273601e+03 -1.082620e+00 -1.353238e+00 6.571808e+00
52             -2.513499e+03 1.284782e+02 8.072650e+03 -2.512426e+03 1.296262e+02 8.066120e+03 -1.073010e+00 -1.147983e+00 6.530044e+00
53             -2.436793e+03 1.335072e+02 7.869685e+03 -2.435724e+03 1.344309e+02 7.863140e+03 -1.068481e+00 -9.237002e-01 6.544845e+00
54             -2.372397e+03 1.381372e+02 7.739865e+03 -2.371329e+03 1.388243e+02 7.733293e+03 -1.068733e+00 -6.870552e-01 6.572702e+00
55             -2.324280e+03 1.430346e+02 7.684460e+03 -2.323213e+03 1.434812e+02 7.677893e+03 -1.067044e+00 -4.466366e-01 6.566815e+00
56             -2.286493e+03 1.483950e+02 7.660508e+03 -2.285435e+03 1.485781e+02 7.654016e+03 -1.058146e+00 -1.831248e-01 6.491577e+00
57             -2.247180e+03 1.537485e+02 7.605547e+03 -2.246143e+03 1.536442e+02 7.599199e+03 -1.037073e+00 1.042624e-01 6.348008e+00
58             -2.193756e+03 1.585232e+02 7.470240e+03 -2.192751e+03 1.580939e+02 7.464088e+03 -1.005125e+00 4.293107e-01 6.152672e+00
59             -2.119614e+03 1.625042e+02 7.241387e+03 -2.118653e+03 1.617256e+02 7.235454e+03 -9.609240e-01 7.786390e-01 5.933247e+00
60             -2.027850e+03 1.655829e+02 6.945918e+03 -2.026936e+03 1.644278e+02 6.940202e+03 -9.137818e-01 1.155008e+00 5.716426e+00
61             -1.930268e+03 1.682029e+02 6.639188e+03 -1.929408e+03 1.666535e+02 6.633695e+03 -8.608637e-01 1.549463e+00 5.492269e+00
62             -1.837550e+03 1.707961e+02 6.361720e+03 -1.836733e+03 1.688540e+02 6.356432e+03 -8.167835e-01 1.942123e+00 5.288381e+00
63             -1.756279e+03 1.739245e+02 6.129609e+03 -1.755507e+03 1.715628e+02 6.124556e+03 -7.719164e-01 2.361741e+00 5.052978e+00
64             -1.683965e+03 1.774039e+02 5.921605e+03 -1.683235e+03 1.746310e+02 5.916794e+03 -7.302373e-01 2.772888e+00 4.810792e+00
65             -1.612062e+03 1.812114e+02 5.700695e+03 -1.611376e+03 1.779981e+02 5.696159e+03 -6.863060e-01 3.213290e+00 4.535439e+00
66             -1.532233e+03 1.847470e+02 5.435322e+03 -1.531598e+03 1.810840e+02 5.431079e+03 -6.354437e-01 3.662990e+00 4.242243e+00
67             -1.440869e+03 1.881786e+02 5.124019e+03 -1.440283e+03 1.840640e+02 5.120052e+03 -5.860905e-01 4.114596e+00 3.967113e+00
68             -1.345693e+03 1.915560e+02 4.803855e+03 -1.345163e+03 1.869697e+02 4.800179e+03 -5.297534e-01 4.586307e+00 3.675484e+00
69             -1.255506e+03 1.951539e+02 4.514574e+03 -1.255029e+03 1.901155e+02 4.511169e+03 -4.768586e-01 5.038378e+00 3.404130e+00
70             -1.178167e+03 1.994214e+02 4.285750e+03 -1.177739e+03 1.939311e+02 4.282616e+03 -4.281313e-01 5.490281e+00 3.133702e+00
71             -1.117093e+03 2.041452e+02 4.119968e+03 -1.116714e+03 1.982066e+02 4.117121e+03 -3.787388e-01 5.938565e+00 2.846696e+00
72             -1.065057e+03 2.089709e+02 3.983723e+03 -1.064724e+03 2.026054e+02 3.981162e+03 -3.329159e-01 6.365528e+00 2.560807e+00
73             -1.013397e+03 2.138074e+02 3.843465e+03 -1.013107e+03 2.070242e+02 3.841183e+03 -2.902933e-01 6.783224e+00 2.282435e+00
74             -9.576219e+02 2.184485e+02 3.682754e+03 -9.573770e+02 2.112552e+02 3.680758e+03 -2.448518e-01 7.193260e+00 1.995924e+00
75             -8.987220e+02 2.225666e+02 3.505820e+03 -8.985229e+02 2.149871e+02 3.504095e+03 -1.991014e-01 7.579520e+00 1.725357e+00
76             -8.397762e+02 2.261483e+02 3.327767e+03 -8.396196e+02 2.182039e+02 3.326294e+03 -1.565401e-01 7.944454e+00 1.473125e+00
77             -7.869122e+02 2.292373e+02 3.172417e+03 -7.867963e+02 2.209570e+02 3.171176e+03 -1.159362e-01 8.280342e+00 1.241230e+00
78             -7.433057e+02 2.317039e+02 3.049383e+03 -7.432246e+02 2.231140e+02 3.048356e+03 -8.109721e-02 8.589906e+00 1.026436e+00
79             -7.060095e+02 2.331232e+02 2.941933e+03 -7.059622e+02 2.242507e+02 2.941110e+03 -4.734235e-02 8.872459e+00 8.225470e-01
80             -6.696034e+02 2.331644e+02 2.826708e+03 -6.695855e+02 2.240428e+02 2.826074e+03 -1.783703e-02 9.121616e+00 6.340313e-01
81             -6.292495e+02 2.316066e+02 2.684584e+03 -6.292600e+02 2.222633e+02 2.684120e+03 1.045215e-02 9.343249e+00 4.637451e-01
82             -5.834092e+02 2.284830e+02 2.511492e+03 -5.834458e+02 2.189523e+02 2.511180e+03 3.663385e-02 9.530729e+00 3.112724e-01
83             -5.358608e+02 2.241500e+02 2.323533e+03 -5.359203e+02 2.144537e+02 2.323351e+03 5.955276e-02 9.696268e+00 1.820969e-01
84             -4.895414e+02 2.186228e+02 2.131230e+03 -4.896225e+02 2.087927e+02 2.131152e+03 8.108301e-02 9.830113e+00 7.761204e-02
85             -4.449922e+02 2.117076e+02 1.935207e+03 -4.450905e+02 2.017722e+02 1.935211e+03 9.825058e-02 9.935469e+00 -3.150550e-03
86             -4.018856e+02 2.031019e+02 1.732997e+03 -4.019976e+02 1.930931e+02 1.733063e+03 1.120158e-01 1.000885e+01 -6.598365e-02
87             -3.606557e+02 1.931080e+02 1.528216e+03 -3.607777e+02 1.830590e+02 1.528327e+03 1.219889e-01 1.004899e+01 -1.111709e-01
88             -3.209556e+02 1.821214e+02 1.321908e+03 -3.210853e+02 1.720638e+02 1.322047e+03 1.296542e-01 1.005759e+01 -1.395440e-01
89             -2.834429e+02 1.706182e+02 1.118658e+03 -2.835774e+02 1.605844e+02 1.118808e+03 1.345260e-01 1.003377e+01 -1.499618e-01
90             -2.495799e+02 1.588679e+02 9.247254e+02 -2.497159e+02 1.488884e+02 9.248652e+02 1.360175e-01 9.979495e+00 -1.397642e-01
91             -2.209705e+02 1.468733e+02 7.453741e+02 -2.211040e+02 1.369783e+02 7.454854e+02 1.335059e-01 9.894997e+00 -1.113386e-01
92             -1.993117e+02 1.346425e+02 5.865281e+02 -1.994383e+02 1.248572e+02 5.865926e+02 1.265753e-01 9.785211e+00 -6.444219e-02
93             -1.855270e+02 1.222222e+02 4.518882e+02 -1.856430e+02 1.125752e+02 4.518918e+02 1.159832e-01 9.647067e+00 -3.674727e-03
94             -1.798706e+02 1.097973e+02 3.443242e+02 -1.799721e+02 1.003148e+02 3.442483e+02 1.015520e-01 9.482429e+00 7.587404e-02
95             -1.828375e+02 9.764362e+01 2.683720e+02 -1.829225e+02 8.834881e+01 2.682082e+02 8.500465e-02 9.294815e+00 1.637928e-01
96             -1.948554e+02 8.597079e+01 2.278700e+02 -1.949199e+02 7.688274e+01 2.275991e+02 6.449247e-02 9.088051e+00 2.708860e-01
97             -2.147620e+02 7.482014e+01 2.197887e+02 -2.148037e+02 6.595572e+01 2.194027e+02 4.167964e-02 8.864424e+00 3.860139e-01
98             -2.410719e+02 6.413190e+01 2.388431e+02 -2.410867e+02 5.550572e+01 2.383236e+02 1.478344e-02 8.626184e+00 5.194335e-01
99             -2.728688e+02 5.376527e+01 2.803085e+02 -2.728556e+02 4.538693e+01 2.796541e+02 -1.322129e-02 8.378338e+00 6.543745e-01
100            -3.105387e+02 4.381780e+01 3.457813e+02 -3.104950e+02 3.569688e+01 3.449814e+02 -4.372621e-02 8.120920e+00 7.998906e-01
101            -3.553194e+02 3.441157e+01 4.399165e+02 -3.552457e+02 2.655296e+01 4.389771e+02 -7.360963e-02 7.858615e+00 9.393805e-01
102            -4.066264e+02 2.557741e+01 5.610843e+02 -4.065219e+02 1.798653e+01 5.600025e+02 -1.044425e-01 7.590878e+00 1.081820e+00
103            -4.628389e+02 1.733004e+01 7.039218e+02 -4.627047e+02 1.000695e+01 7.027062e+02 -1.341842e-01 7.323089e+00 1.215592e+00
104            -5.234970e+02 9.675395e+00 8.674255e+02 -5.233330e+02 2.620015e+00 8.660761e+02 -1.640494e-01 7.055380e+00 1.349391e+00
105            -5.877875e+02 2.615035e+00 1.048419e+03 -5.875952e+02 -4.178676e+00 1.046946e+03 -1.922938e-01 6.793710e+00 1.473151e+00
106            -6.533971e+02 -3.791006e+00 1.238131e+03 -6.531773e+02 -1.032848e+01 1.236539e+03 -2.198630e-01 6.537471e+00 1.592443e+00
107            -7.195143e+02 -9.550221e+00 1.432703e+03 -7.192691e+02 -1.584096e+01 1.431003e+03 -2.451652e-01 6.290739e+00 1.699936e+00
108            -7.866619e+02 -1.473452e+01 1.633111e+03 -7.863930e+02 -2.078907e+01 1.631312e+03 -2.688211e-01 6.054547e+00 1.798900e+00
109            -8.543553e+02 -1.939603e+01 1.837134e+03 -8.540650e+02 -2.522491e+01 1.835246e+03 -2.903233e-01 5.828879e+00 1.887728e+00
110            -9.216728e+02 -2.358510e+01 2.041111e+03 -9.213625e+02 -2.920068e+01 2.039143e+03 -3.103003e-01 5.615588e+00 1.968161e+00
111            -9.884525e+02 -2.735096e+01 2.244021e+03 -9.881242e+02 -3.276441e+01 2.241981e+03 -3.283596e-01 5.413451e+00 2.040238e+00
112            -1.054659e+03 -3.069384e+01 2.445543e+03 -1.054314e+03 -3.591702e+01 2.443440e+03 -3.445744e-01 5.223172e+00 2.102860e+00
113            -1.120608e+03 -3.358288e+01 2.646609e+03 -1.120250e+03 -3.862253e+01 2.644455e+03 -3.587049e-01 5.039652e+00 2.154369e+00
114            -1.185884e+03 -3.603609e+01 2.845491e+03 -1.185511e+03 -4.089470e+01 2.843287e+03 -3.723850e-01 4.858617e+00 2.204520e+00
115            -1.250087e+03 -3.810890e+01 3.040953e+03 -1.249701e+03 -4.278377e+01 3.038693e+03 -3.858768e-01 4.674867e+00 2.260575e+00
116            -1.312737e+03 -3.992799e+01 3.231235e+03 -1.312337e+03 -4.441941e+01 3.228912e+03 -3.996068e-01 4.491419e+00 2.323462e+00
117            -1.373099e+03 -4.162033e+01 3.413833e+03 -1.372686e+03 -4.592781e+01 3.411442e+03 -4.129924e-01 4.307481e+00 2.391193e+00
118            -1.430795e+03 -4.328188e+01 3.586922e+03 -1.430369e+03 -4.741026e+01 3.584461e+03 -4.258544e-01 4.128378e+00 2.460319e+00
119            -1.485785e+03 -4.491645e+01 3.749987e+03 -1.485347e+03 -4.886886e+01 3.747457e+03 -4.381162e-01 3.952403e+00 2.530775e+00
120            -1.538697e+03 -4.637130e+01 3.905841e+03 -1.538246e+03 -5.015147e+01 3.903235e+03 -4.510603e-01 3.780168e+00 2.606216e+00
121            -1.590090e+03 -4.748276e+01 4.057113e+03 -1.589624e+03 -5.109609e+01 4.054425e+03 -4.654796e-01 3.613326e+00 2.688381e+00
122            -1.640212e+03 -4.815493e+01 4.205125e+03 -1.639731e+03 -5.160810e+01 4.202347e+03 -4.815337e-01 3.453171e+00 2.777649e+00
123            -1.689006e+03 -4.842877e+01 4.349820e+03 -1.688508e+03 -5.173021e+01 4.346951e+03 -4.985819e-01 3.301442e+00 2.868770e+00
124            -1.735777e+03 -4.844662e+01 4.488670e+03 -1.735264e+03 -5.160755e+01 4.485713e+03 -5.133258e-01 3.160928e+00 2.956601e+00
125            -1.779868e+03 -4.832215e+01 4.619331e+03 -1.779342e+03 -5.135139e+01 4.616293e+03 -5.259266e-01 3.029240e+00 3.037885e+00
126            -1.821262e+03 -4.808385e+01 4.742124e+03 -1.820725e+03 -5.098831e+01 4.739012e+03 -5.366766e-01 2.904458e+00 3.112103e+00
127            -1.860432e+03 -4.763589e+01 4.859278e+03 -1.859886e+03 -5.041951e+01 4.856095e+03 -5.467205e-01 2.783616e+00 3.182832e+00
128            -1.898157e+03 -4.684520e+01 4.973865e+03 -1.897600e+03 -4.951196e+01 4.970614e+03 -5.562498e-01 2.666762e+00 3.251063e+00
129            -1.934788e+03 -4.561324e+01 5.087260e+03 -1.934222e+03 -4.816559e+01 5.083939e+03 -5.657134e-01 2.552351e+00 3.321493e+00
130            -1.970303e+03 -4.392227e+01 5.199558e+03 -1.969728e+03 -4.636370e+01 5.196166e+03 -5.744014e-01 2.441432e+00 3.392180e+00
131            -2.004440e+03 -4.180292e+01 5.310283e+03 -2.003856e+03 -4.413647e+01 5.306816e+03 -5.832435e-01 2.333555e+00 3.466311e+00
132            -2.037052e+03 -3.931223e+01 5.419315e+03 -2.036461e+03 -4.154205e+01 5.415775e+03 -5.916589e-01 2.229817e+00 3.539707e+00
133            -2.068274e+03 -3.648982e+01 5.527470e+03 -2.067673e+03 -3.861948e+01 5.523854e+03 -6.008486e-01 2.129657e+00 3.615661e+00
134            -2.098315e+03 -3.334618e+01 5.635830e+03 -2.097705e+03 -3.537988e+01 5.632140e+03 -6.105482e-01 2.033705e+00 3.690116e+00
135            -2.127338e+03 -2.985129e+01 5.745344e+03 -2.126716e+03 -3.179211e+01 5.741576e+03 -6.219408e-01 1.940829e+00 3.767924e+00
136            -2.155466e+03 -2.594506e+01 5.856947e+03 -2.154832e+03 -2.779841e+01 5.853103e+03 -6.342402e-01 1.853348e+00 3.844170e+00
137            -2.182858e+03 -2.158264e+01 5.971687e+03 -2.182210e+03 -2.335299e+01 5.967763e+03 -6.480908e-01 1.770354e+00 3.923878e+00
138            -2.209773e+03 -1.679575e+01 6.090335e+03 -2.209110e+03 -1.848956e+01 6.086333e+03 -6.625435e-01 1.693802e+00 4.001821e+00
139            -2.235933e+03 -1.173541e+01 6.210978e+03 -2.235255e+03 -1.335872e+01 6.206896e+03 -6.783246e-01 1.623310e+00 4.081929e+00
140            -2.260703e+03 -6.541057e+00 6.330823e+03 -2.260009e+03 -8.100691e+00 6.326664e+03 -6.943492e-01 1.559634e+00 4.159129e+00
141            -2.283459e+03 -1.269023e+00 6.447835e+03 -2.282748e+03 -2.770629e+00 6.443598e+03 -7.110347e-01 1.501605e+00 4.237510e+00
142            -2.303935e+03 4.108444e+00 6.561662e+03 -2.303208e+03 2.658678e+00 6.557350e+03 -7.272730e-01 1.449766e+00 4.312483e+00
143            -2.322007e+03 9.608755e+00 6.671990e+03 -2.321263e+03 8.204362e+00 6.667602e+03 -7.439122e-01 1.404394e+00 4.388008e+00
144            -2.337495e+03 1.519085e+01 6.777232e+03 -2.336735e+03 1.382340e+01 6.772774e+03 -7.598992e-01 1.367446e+00 4.458646e+00
145            -2.350032e+03 2.069472e+01 6.873917e+03 -2.349256e+03 1.935577e+01 6.869391e+03 -7.755122e-01 1.338947e+00 4.526736e+00
146            -2.359604e+03 2.598474e+01 6.960307e+03 -2.358814e+03 2.466581e+01 6.955719e+03 -7.898334e-01 1.318926e+00 4.588090e+00
147            -2.365605e+03 3.096054e+01 7.033124e+03 -2.364802e+03 2.965310e+01 7.028479e+03 -8.031026e-01 1.307444e+00 4.644851e+00
148            -2.366985e+03 3.559157e+01 7.088210e+03 -2.366170e+03 3.428667e+01 7.083516e+03 -8.145879e-01 1.304899e+00 4.694072e+00
149            -2.362872e+03 3.996638e+01 7.122949e+03 -2.362048e+03 3.865413e+01 7.118211e+03 -8.244252e-01 1.312259e+00 4.737814e+00
150            -2.352831e+03 4.424572e+01 7.136613e+03 -2.351999e+03 4.291531e+01 7.131840e+03 -8.319758e-01 1.330404e+00 4.773485e+00
151            -2.336596e+03 4.852630e+01 7.128219e+03 -2.335758e+03 4.716475e+01 7.123418e+03 -8.372643e-01 1.361557e+00 4.801323e+00
152            -2.314086e+03 5.279787e+01 7.096301e+03 -2.313246e+03 5.139076e+01 7.091483e+03 -8.397131e-01 1.407108e+00 4.817685e+00
153            -2.285321e+03 5.699131e+01 7.039369e+03 -2.284482e+03 5.552267e+01 7.034546e+03 -8.395198e-01 1.468640e+00 4.822986e+00
154            -2.251619e+03 6.112486e+01 6.961532e+03 -2.250783e+03 5.957852e+01 6.956718e+03 -8.363674e-01 1.546340e+00 4.814555e+00
155            -2.214082e+03 6.533749e+01 6.867532e+03 -2.213251e+03 6.369629e+01 6.862737e+03 -8.308929e-01 1.641198e+00 4.794912e+00
156            -2.172668e+03 6.978407e+01 6.758365e+03 -2.171846e+03 6.803168e+01 6.753604e+03 -8.226852e-01 1.752394e+00 4.761441e+00
157            -2.126887e+03 7.458643e+01 6.633240e+03 -2.126075e+03 7.270529e+01 6.628523e+03 -8.121258e-01 1.881142e+00 4.716818e+00
158            -2.076491e+03 7.978949e+01 6.491669e+03 -2.075693e+03 7.776265e+01 6.487014e+03 -7.980362e-01 2.026836e+00 4.654773e+00
159            -2.021632e+03 8.542019e+01 6.334681e+03 -2.020851e+03 8.322648e+01 6.330102e+03 -7.811889e-01 2.193709e+00 4.579342e+00
160            -1.963270e+03 9.149102e+01 6.166069e+03 -1.962508e+03 8.910908e+01 6.161581e+03 -7.612095e-01 2.381943e+00 4.487532e+00
161            -1.903951e+03 9.804250e+01 5.995517e+03 -1.903212e+03 9.544968e+01 5.991135e+03 -7.388678e-01 2.592815e+00 4.381668e+00
162            -1.844949e+03 1.049894e+02 5.827157e+03 -1.844235e+03 1.021638e+02 5.822894e+03 -7.147845e-01 2.825544e+00 4.263220e+00
163            -1.785497e+03 1.121542e+02 5.657305e+03 -1.784808e+03 1.090762e+02 5.653169e+03 -6.897301e-01 3.077940e+00 4.136213e+00
164            -1.723902e+03 1.193772e+02 5.479757e+03 -1.723239e+03 1.160298e+02 5.475757e+03 -6.633173e-01 3.347375e+00 4.000278e+00
165            -1.658646e+03 1.265629e+02 5.289740e+03 -1.658011e+03 1.229316e+02 5.285885e+03 -6.350945e-01 3.631252e+00 3.855662e+00
166            -1.589532e+03 1.336930e+02 5.087543e+03 -1.588927e+03 1.297656e+02 5.083839e+03 -6.050987e-01 3.927452e+00 3.704727e+00
167            -1.520588e+03 1.409032e+02 4.889127e+03 -1.520014e+03 1.366707e+02 4.885575e+03 -5.742447e-01 4.232562e+00 3.552111e+00
168            -1.456131e+03 1.481318e+02 4.709430e+03 -1.455588e+03 1.435850e+02 4.706032e+03 -5.431822e-01 4.546746e+00 3.397041e+00
169            -1.396045e+03 1.550047e+02 4.545083e+03 -1.395533e+03 1.501385e+02 4.541844e+03 -5.122687e-01 4.866184e+00 3.238978e+00
170            -1.336667e+03 1.611123e+02 4.380287e+03 -1.336186e+03 1.559280e+02 4.377206e+03 -4.815907e-01 5.184345e+00 3.080890e+00
171            -1.273227e+03 1.662070e+02 4.196982e+03 -1.272777e+03 1.607108e+02 4.194063e+03 -4.499640e-01 5.496162e+00 2.919098e+00
172            -1.202649e+03 1.702867e+02 3.985162e+03 -1.202233e+03 1.644835e+02 3.982409e+03 -4.167210e-01 5.803288e+00 2.753807e+00
173            -1.130208e+03 1.738249e+02 3.767157e+03 -1.129825e+03 1.677232e+02 3.764566e+03 -3.830585e-01 6.101747e+00 2.591082e+00
174            -1.064362e+03 1.769884e+02 3.573000e+03 -1.064013e+03 1.705940e+02 3.570573e+03 -3.497942e-01 6.394350e+00 2.426895e+00
175            -1.006201e+03 1.793623e+02 3.401558e+03 -1.005882e+03 1.726812e+02 3.399293e+03 -3.188059e-01 6.681157e+00 2.264634e+00
176            -9.500302e+02 1.803864e+02 3.227719e+03 -9.497409e+02 1.734321e+02 3.225619e+03 -2.893174e-01 6.954281e+00 2.100024e+00
177            -8.888916e+02 1.797401e+02 3.024816e+03 -8.886320e+02 1.725291e+02 3.022881e+03 -2.596048e-01 7.211045e+00 1.934709e+00
178            -8.207044e+02 1.778836e+02 2.789501e+03 -8.204760e+02 1.704356e+02 2.787732e+03 -2.284760e-01 7.447998e+00 1.768990e+00
179            -7.545178e+02 1.755915e+02 2.558856e+03 -7.543207e+02 1.679275e+02 2.557245e+03 -1.971059e-01 7.664037e+00 1.611147e+00
180            -6.967315e+02 1.729598e+02 2.354428e+03 -6.965630e+02 1.651006e+02 2.352961e+03 -1.684983e-01 7.859211e+00 1.466739e+00
181            -6.442230e+02 1.694487e+02 2.160279e+03 -6.440792e+02 1.614188e+02 2.158942e+03 -1.437472e-01 8.029965e+00 1.337036e+00
182            -5.941047e+02 1.646654e+02 1.963467e+03 -5.939824e+02 1.564905e+02 1.962247e+03 -1.222922e-01 8.174906e+00 1.220304e+00
183            -5.437131e+02 1.585883e+02 1.755246e+03 -5.436106e+02 1.502993e+02 1.754130e+03 -1.025069e-01 8.288978e+00 1.115531e+00
184            -4.953416e+02 1.518463e+02 1.548695e+03 -4.952570e+02 1.434753e+02 1.547670e+03 -8.453560e-02 8.371005e+00 1.024989e+00
185            -4.518718e+02 1.448455e+02 1.356893e+03 -4.518013e+02 1.364210e+02 1.355936e+03 -7.048411e-02 8.424557e+00 9.567581e-01
186            -4.133253e+02 1.373491e+02 1.178479e+03 -4.132648e+02 1.288999e+02 1.177571e+03 -6.044654e-02 8.449274e+00 9.078734e-01
187            -3.805610e+02 1.292184e+02 1.015200e+03 -3.805070e+02 1.207731e+02 1.014314e+03 -5.402198e-02 8.445315e+00 8.862538e-01
188            -3.554182e+02 1.207238e+02 8.747359e+02 -3.553678e+02 1.123120e+02 8.738553e+02 -5.036768e-02 8.411800e+00 8.806110e-01
189            -3.384561e+02 1.121921e+02 7.614606e+02 -3.384051e+02 1.038398e+02 7.605651e+02 -5.109018e-02 8.352301e+00 8.955526e-01
190            -3.286574e+02 1.036151e+02 6.724795e+02 -3.286037e+02 9.534619e+01 6.715621e+02 -5.374026e-02 8.268862e+00 9.174550e-01
191            -3.245929e+02 9.469768e+01 6.015781e+02 -3.245324e+02 8.653491e+01 6.006183e+02 -6.044229e-02 8.162764e+00 9.597504e-01
192            -3.261547e+02 8.538900e+01 5.487679e+02 -3.260860e+02 7.735414e+01 5.477591e+02 -6.871057e-02 8.034856e+00 1.008740e+00
193            -3.349980e+02 7.597886e+01 5.223028e+02 -3.349170e+02 6.809326e+01 5.212256e+02 -8.103603e-02 7.885592e+00 1.077182e+00
194            -3.537830e+02 6.686485e+01 5.336430e+02 -3.536876e+02 5.914685e+01 5.324917e+02 -9.541506e-02 7.718003e+00 1.151297e+00
195            -3.829519e+02 5.826862e+01 5.853033e+02 -3.828379e+02 5.073377e+01 5.840617e+02 -1.140495e-01 7.534844e+00 1.241646e+00
196            -4.205476e+02 5.011670e+01 6.697088e+02 -4.204136e+02 4.277540e+01 6.683773e+02 -1.339313e-01 7.341304e+00 1.331531e+00
197            -4.650879e+02 4.222931e+01 7.808889e+02 -4.649318e+02 3.509153e+01 7.794587e+02 -1.560484e-01 7.137782e+00 1.430259e+00
198            -5.152785e+02 3.454704e+01 9.145613e+02 -5.151004e+02 2.761939e+01 9.130358e+02 -1.781205e-01 6.927655e+00 1.525494e+00
199            -5.701370e+02 2.718078e+01 1.068602e+03 -5.699356e+02 2.046980e+01 1.066977e+03 -2.013604e-01 6.710977e+00 1.625158e+00
200            -6.294042e+02 2.029608e+01 1.242807e+03 -6.291802e+02 1.380415e+01 1.241088e+03 -2.240360e-01 6.491925e+00 1.719679e+00
201            -6.935630e+02 1.400937e+01 1.438881e+03 -6.933157e+02 7.737259e+00 1.437067e+03 -2.472943e-01 6.272115e+00 1.814164e+00
202            -7.623193e+02 8.372815e+00 1.655470e+03 -7.620494e+02 2.317425e+00 1.653569e+03 -2.699551e-01 6.055390e+00 1.901712e+00
203            -8.336571e+02 3.338858e+00 1.884281e+03 -8.333647e+02 -2.503831e+00 1.882295e+03 -2.923500e-01 5.842688e+00 1.985366e+00
204            -9.051795e+02 -1.155522e+00 2.115719e+03 -9.048661e+02 -6.793886e+00 2.113658e+03 -3.133332e-01 5.638364e+00 2.060783e+00
205            -9.756126e+02 -5.089300e+00 2.345033e+03 -9.752798e+02 -1.053178e+01 2.342902e+03 -3.328585e-01 5.442482e+00 2.130306e+00
206            -1.044255e+03 -8.440468e+00 2.569199e+03 -1.043904e+03 -1.369668e+01 2.567004e+03 -3.509778e-01 5.256215e+00 2.195212e+00
207            -1.111144e+03 -1.121922e+01 2.787669e+03 -1.110777e+03 -1.629991e+01 2.785416e+03 -3.673567e-01 5.080693e+00 2.253665e+00
208            -1.177361e+03 -1.344896e+01 3.003800e+03 -1.176979e+03 -1.836023e+01 3.001497e+03 -3.818636e-01 4.911272e+00 2.303207e+00
209            -1.243176e+03 -1.515672e+01 3.218006e+03 -1.242780e+03 -1.989955e+01 3.215649e+03 -3.964602e-01 4.742824e+00 2.356814e+00
210            -1.307559e+03 -1.639578e+01 3.426155e+03 -1.307147e+03 -2.097237e+01 3.423739e+03 -4.115625e-01 4.576583e+00 2.416502e+00
211            -1.369017e+03 -1.728278e+01 3.622661e+03 -1.368591e+03 -2.169990e+01 3.620185e+03 -4.259701e-01 4.417114e+00 2.476287e+00
212            -1.425627e+03 -1.802632e+01 3.799571e+03 -1.425188e+03 -2.229545e+01 3.797040e+03 -4.386474e-01 4.269130e+00 2.530293e+00
213            -1.476589e+03 -1.880119e+01 3.953360e+03 -1.476140e+03 -2.293179e+01 3.950781e+03 -4.495030e-01 4.130600e+00 2.579201e+00
214            -1.522129e+03 -1.962278e+01 4.085074e+03 -1.521669e+03 -2.362993e+01 4.082446e+03 -4.597180e-01 4.007146e+00 2.627122e+00
215            -1.563030e+03 -2.037816e+01 4.198483e+03 -1.562559e+03 -2.427258e+01 4.195802e+03 -4.705855e-01 3.894424e+00 2.681304e+00
216            -1.600130e+03 -2.091411e+01 4.297770e+03 -1.599648e+03 -2.471164e+01 4.295031e+03 -4.823472e-01 3.797532e+00 2.739426e+00
217            -1.634080e+03 -2.110408e+01 4.386191e+03 -1.633586e+03 -2.481866e+01 4.383389e+03 -4.944114e-01 3.714582e+00 2.801516e+00
218            -1.665313e+03 -2.089469e+01 4.465619e+03 -1.664809e+03 -2.454154e+01 4.462762e+03 -5.037594e-01 3.646845e+00 2.856688e+00
219            -1.694024e+03 -2.031875e+01 4.537033e+03 -1.693513e+03 -2.391093e+01 4.534129e+03 -5.110584e-01 3.592183e+00 2.903845e+00