/*--------------------------------*- C++ -*----------------------------------*\
| =========                 |                                                 |
| \\      /  F ield         | OpenFOAM: The Open Source CFD Toolbox           |
|  \\    /   O peration     | Version:  2312                                  |
|   \\  /    A nd           | Website:  www.openfoam.com                      |
|    \\/     M anipulation  |                                                 |
\*---------------------------------------------------------------------------*/
FoamFile
{
    version     2.0;
    format      ascii;
    arch        "LSB;label=32;scalar=64";
    class       volScalarField;
    location    "250";
    object      div(phi);
}
// * * * * * * * * * * * * * * * * * * * * * * * * * * * * * * * * * * * * * //

dimensions      [0 0 -1 0 0 0 0];

internalField   nonuniform List<scalar> 
11040
(
-0.122434
-0.0978069
-0.330724
-0.177953
-0.164019
-0.152999
-0.195054
-0.274517
-0.220765
-0.34075
-0.169778
-0.403017
-0.168974
-0.58518
-0.204471
-0.489141
-0.039812
-0.503422
-0.0438298
-0.536196
-0.532457
-0.259774
0.164808
0.211722
-0.24464
-0.199526
-0.168439
-0.383177
-0.00290846
-0.39836
0.145467
-0.453369
0.218089
-0.324387
0.332476
-0.258959
0.411214
-0.0456366
0.462742
0.221804
0.541404
-0.0542516
-0.0616774
-0.143107
-0.25253
-0.344519
-0.391698
-0.354884
-0.341101
-0.301399
-0.328506
-0.280062
-0.349255
-0.275303
-0.417512
-0.252901
-0.394375
-0.236928
-0.506027
-0.344232
-0.707858
-0.477067
-0.343064
-0.234082
-0.41346
-0.690311
-0.690261
-0.660287
-0.696694
-0.473309
-0.556242
-0.25849
-0.424517
-0.0804091
-0.210331
0.122281
-0.0165452
0.301133
0.230539
0.530754
0.517705
0.636134
-0.0318273
-0.00805977
-0.0177829
-0.0229902
-0.0780039
-0.091557
-0.0756343
-0.0447694
-0.0463714
-0.0634729
-0.0349676
-0.0902071
-0.0195497
-0.123487
-0.0255749
-0.107018
0.0184471
-0.0696842
-0.0267609
-0.0780484
-0.0535362
0.00320955
0.157405
0.231311
0.0536295
0.0899836
0.058766
0.00637322
0.0911884
-0.0277548
0.115656
-0.0650205
0.124894
-0.0418531
0.134557
-0.0393358
0.134586
-0.0147119
0.0666113
-0.00329247
0.0511065
-0.0114365
0.00431116
-0.00449808
-0.00961824
-0.0478597
-0.0847122
-0.134529
-0.155648
-0.174564
-0.151589
-0.146606
-0.129563
-0.141689
-0.140362
-0.137692
-0.148709
-0.145028
-0.230057
-0.23177
-0.305439
-0.226371
-0.166642
-0.153835
-0.24692
-0.353962
-0.37553
-0.353594
-0.352884
-0.262977
-0.264505
-0.155303
-0.17788
-0.0601615
-0.0775482
0.0339535
0.0207928
0.119509
0.118656
0.198329
0.201907
0.236944
0.0303628
-0.00595839
-0.00393723
-0.021689
-0.0174303
-0.0245032
-0.0436298
-0.0771888
-0.0620879
-0.0552907
-0.0311557
-0.0440106
-0.0258187
-0.0414583
-0.0329289
-0.0503256
-0.0286848
-0.0672761
-0.0672262
-0.0368499
-0.019284
0.024974
0.081792
0.0836035
0.0420849
0.0331441
0.0149322
0.00980194
0.0136093
0.00964417
0.0205599
0.0126977
0.0315529
0.0322904
0.0467906
0.0450565
0.0626188
0.055685
0.0509887
0.0462965
0.0531258
-0.0448484
0.0141454
-0.0125798
0.016979
0.00476612
-0.00539279
-0.00700534
-0.0222742
-0.0330794
-0.0579367
-0.061954
-0.0837715
-0.0772794
-0.0798499
-0.0693752
-0.077788
-0.0947861
-0.127349
-0.131947
-0.134758
-0.101148
-0.0823798
-0.0900762
-0.131666
-0.172953
-0.183956
-0.179499
-0.160036
-0.142626
-0.109087
-0.094397
-0.0597507
-0.0486566
-0.0141988
-0.0070443
0.0291441
0.0364921
0.0613534
0.0614518
0.0721197
0.0738614
0.029953
-0.00477048
0.0384013
0.0120917
-0.00664255
-0.00524782
-0.0162976
-0.0128039
-0.0292326
-0.0347937
-0.0725461
-0.0558661
-0.0544642
-0.0310965
-0.0472209
-0.0491148
-0.0700857
-0.0760408
-0.0726969
-0.0445891
-0.0198463
-0.00134591
-0.00239005
-0.0031644
-0.0186219
-0.0303879
-0.0322626
-0.0394802
-0.0257612
-0.0315146
-0.00987251
-0.0177053
0.00875443
0.00194642
0.0292633
0.022993
0.0467333
0.0386753
0.0454535
0.0367977
0.0393971
-0.0152758
0.027713
0.0308802
-0.0129348
0.00213599
-0.024903
-0.00132122
-0.0111878
0.00629908
-0.0166303
0.00703778
-0.0126406
-0.0318898
-0.0497881
-0.0563742
-0.077014
-0.0766152
-0.0847642
-0.0791029
-0.0567597
-0.0449852
-0.0413549
-0.0464659
-0.064878
-0.0764456
-0.0821838
-0.07175
-0.0728829
-0.0537262
-0.0532366
-0.0309476
-0.0306336
-0.00829365
-0.00813645
0.00954441
0.0116792
0.0248062
0.0229853
0.0269508
0.0224211
0.0265417
-0.00284292
0.0485663
-0.0205275
0.020561
-0.0350065
0.00834929
-0.00996016
0.0220552
-0.00334479
0.0226552
0.00743994
-0.0156351
-0.0302127
-0.0537346
-0.0774172
-0.0753305
-0.0878429
-0.0737491
-0.0545862
-0.0371339
-0.0237697
-0.029695
-0.0404494
-0.046201
-0.0547359
-0.0499286
-0.0581464
-0.0409761
-0.0507826
-0.0257032
-0.036893
-0.00974461
-0.02111
0.00459069
-0.0047996
0.0167196
0.00951341
0.0209139
0.0122305
0.0163411
0.0118467
0.0239079
-0.0121953
0.0235461
-0.0297234
0.00622623
-0.0114774
0.0186975
0.00175281
0.0172601
0.011089
-0.00853397
-0.00814875
-0.0183107
-0.0311285
-0.0194156
-0.0559918
-0.0310667
-0.0418095
-0.0491908
-0.0324532
-0.0299739
-0.0317779
-0.034201
-0.0388492
-0.0477648
-0.0376315
-0.010931
-0.0385049
0.00763193
-0.0362563
0.0194751
-0.0297008
0.0284641
-0.0200534
0.0341148
-0.00933542
0.0305541
-0.00373953
0.0215727
-0.00263964
0.010904
0.00250761
0.00371161
-0.00807249
-0.00657082
-0.00853553
-0.00123015
0.0012055
0.00160899
0.00557312
-0.00589931
-0.00548082
-0.00541643
-0.0150835
0.0115597
-0.0114163
0.00885464
-0.0130529
-0.0466802
-0.0422253
-0.0433936
-0.0402054
-0.0424255
-0.0434008
-0.0584037
-0.0336523
-0.0183836
-0.030361
0.0221735
-0.0309762
0.0393877
-0.0314961
0.0499586
-0.0301127
0.0548208
-0.0263771
0.0527924
-0.0196808
0.0407028
-0.0139563
0.0247925
-0.00463123
-0.00239555
-0.00147074
-0.00745573
-0.00787586
-0.00985904
-0.00727181
-0.00658128
-0.00688975
-0.00398928
-0.00929228
-0.00135272
-0.0116444
0.0123503
0.000645883
0.00971142
0.00497648
-0.0177292
-0.0134886
-0.0255225
-0.0243528
-0.0186702
-0.0277579
-0.0388779
-0.0175746
-0.041905
-0.013858
-0.00671784
-0.0113468
0.00847086
-0.00625919
0.018777
-0.00706709
0.0270008
-0.00584163
0.0334143
-0.00472234
0.0316028
-0.0018411
0.0236546
0.00489759
0.014808
-0.00411235
-0.00208066
-0.00703757
-0.00476457
-0.00942765
-0.00592388
-0.00888906
-0.00639548
-0.00776222
-0.00606186
-0.00590487
0.000567615
0.00378091
0.00233957
0.00724396
-0.00596208
-0.000637799
-0.00385558
-0.0057489
0.0103065
-0.000522562
0.00136969
0.00602219
-0.0384432
0.00880138
-0.0532098
0.00974093
-0.0600628
0.0309072
-0.0614741
0.0416195
-0.0547174
0.0507846
-0.04503
0.0524439
-0.0358555
0.0507259
-0.0234713
0.0421309
-0.0111305
0.0340564
-0.00366332
-0.00077944
-0.00593784
-0.00186761
-0.00805147
-0.0027129
-0.00860123
-0.00317311
-0.00795155
-0.00344294
-0.00616704
-0.00166259
-0.00190046
0.000471599
-3.93158e-05
-0.00157822
0.00164401
-0.00347281
0.0101445
0.00368478
0.00715326
0.00667561
-0.0123529
0.0102808
-0.0518609
0.00470932
-0.0854241
0.027258
-0.107187
0.0534697
-0.115056
0.0775678
-0.109852
0.0896409
-0.0998529
0.0937123
-0.0834084
0.0830937
-0.0501289
0.0533554
-0.00784779
-0.00276267
-6.94363e-05
-0.00472813
-0.000459526
-0.00675329
-0.0007955
-0.00761292
-0.000734366
-0.00717651
-0.000865327
-0.00619908
-0.000225481
-0.00418133
-0.000245585
-0.00329926
-0.00170497
-0.00309112
0.000863118
0.00107357
-0.000962696
-0.000490002
-0.00496539
-0.00269912
-0.018571
-0.0126688
-0.0365061
-0.0166921
-0.0468926
-0.00904135
-0.0503516
0.0028242
-0.0495581
0.0180098
-0.0460639
0.0268098
-0.0410434
0.0375522
-0.0259989
0.0346738
0.000558232
0.0231708
-0.00214638
0.000369362
-0.00373821
0.000233641
-0.00534477
0.000524863
-0.00613662
0.00122221
-0.00584125
0.00184121
-0.00483454
0.00205191
-0.0039884
0.00159076
-0.00423914
-0.000547074
-0.00476891
-0.0020777
-0.00447207
-0.00374036
-0.00534878
-0.00700617
-0.00623052
-0.0117885
-0.00766563
-0.0203656
-0.00664936
-0.026314
-0.00208394
-0.0321899
0.00531519
-0.032032
0.0129353
-0.0319973
0.0179919
-0.0280923
0.0198883
-0.0198482
0.0184718
-0.00728404
0.00936753
-0.00168042
0.000591197
-0.00279421
0.000758975
-0.00375359
0.00134847
-0.00423964
0.0022346
-0.00395163
0.00300012
-0.00321892
0.0033372
-0.00273628
0.00284724
-0.00292786
0.00152284
-0.00358038
-0.000252714
-0.00399336
-0.00170163
-0.0040255
-0.00364583
-0.00335504
-0.00658056
-0.00171347
-0.0110072
0.000795592
-0.015607
0.00427948
-0.0196455
0.00792019
-0.0223184
0.0110657
-0.0244358
0.012212
-0.0254697
0.0109665
-0.0228483
0.0061999
-0.0134208
0.00117344
-0.00108271
0.000203955
-0.00186101
0.000292726
-0.00246403
0.000698188
-0.00276501
0.00133547
-0.00255265
0.00201256
-0.00195897
0.00235626
-0.00140144
0.00223686
-0.00106766
0.00153406
-0.000965466
0.000472776
-0.000918245
-0.000375999
-0.000446307
-0.00130656
0.000639455
-0.0027247
0.00223843
-0.00503953
0.00407471
-0.00790983
0.00598553
-0.0111985
0.00771716
-0.0145328
0.00870833
-0.0174149
0.00832569
-0.0182602
0.00637426
-0.0159203
0.0045144
-0.0106951
-0.00182178
-0.00100617
0.000226324
-0.00117122
0.000358813
-0.00133692
0.000720982
-0.00132051
0.00124885
-0.00100159
0.00177973
-0.000445235
0.0020161
0.000174613
0.00204036
0.000738192
0.00185986
0.00129887
0.00155308
0.00181551
0.00131019
0.00273902
0.00122367
0.00426203
0.000769862
0.00584727
-0.000459025
0.00716375
-0.00256942
0.00792227
-0.0054107
0.00790854
-0.0086352
0.00687518
-0.0118605
0.00461
-0.0144543
0.00122846
-0.0152553
-0.00418875
-0.0127338
-0.00686051
0.000277815
-0.000613627
-4.85681e-05
-0.000295398
-0.000250798
0.000102185
-0.000282551
0.000547482
-9.83286e-05
0.000964015
0.000242776
0.00128782
0.000766151
0.00149287
0.00142318
0.00174509
0.00214017
0.00184256
0.00277778
0.00201106
0.00366353
0.00191101
0.00508836
0.0014611
0.00632421
0.000302906
0.00712956
-0.00135565
0.00733904
-0.00322629
0.00692884
-0.00494322
0.00574785
-0.00587435
0.00381874
-0.00549473
0.00154549
-0.00422522
0.00045295
-0.00305997
-0.00384185
-0.00155427
0.000898121
-0.00110894
0.000937259
-0.00114034
0.00101975
-0.000936314
0.00111746
-0.000548301
0.00117909
0.000120868
0.00108633
0.000917469
0.000879684
0.00208823
0.00058937
0.00323598
0.000191207
0.00463815
-0.00025704
0.00585195
-0.000649364
0.00761562
-0.00119547
0.00870548
-0.00195293
0.00903243
-0.00287573
0.00845229
-0.00364354
0.00656959
-0.00403809
0.00404989
-0.00411544
0.000899848
-0.00417621
-0.00272176
-0.00481829
-0.00663626
-0.00559079
-0.0093806
0.000115431
-0.000211928
0.000199749
-0.000381931
7.79928e-05
-0.000411275
6.0292e-05
-0.000397369
7.90896e-05
-0.000211417
0.000110257
3.57324e-05
9.8662e-05
0.000500971
9.47306e-05
0.00100135
8.57196e-05
0.00164288
0.000118162
0.00227985
8.22723e-05
0.0031183
-1.8376e-05
0.00404686
-0.00022082
0.00451132
-0.000466841
0.00498473
-0.000505882
0.00442189
0.000135898
0.00429767
0.00100646
0.00361015
0.00235872
0.00208766
0.00345302
0.00226605
0.00321689
-0.000755881
0.00266785
-0.000994138
0.000381741
-0.000275708
2.09115e-05
-0.000256841
-0.000114493
-0.000223294
-0.000174296
-0.000190838
-0.000137077
-0.000173499
-1.6775e-05
-0.000192405
0.000210479
-0.000183143
0.000494315
-0.000234741
0.000837403
-0.000154688
0.00123931
-0.000304283
0.00174862
-0.000376859
0.00228394
-0.000558034
0.00260545
-0.000365292
0.0027188
0.000136943
0.00292457
0.000778765
0.00226617
0.00178587
0.0015527
0.00225962
0.000809829
0.00193877
-0.00188523
0.0010456
-0.00410062
-8.12503e-06
0.000441494
-0.00050982
0.000306317
-0.000392562
0.000178522
-0.000400579
9.19756e-05
-0.000292363
-1.21088e-05
-0.000112459
-0.000132043
0.000179149
-0.000290567
0.000482752
-0.000479164
0.000868909
-0.000707411
0.00120599
-0.000909762
0.00155634
-0.00110533
0.00181979
-0.00129506
0.00189644
-0.0014046
0.00165782
-0.00132815
0.00100856
-0.00103744
-0.00011645
-0.000453586
-0.00106741
0.000257866
-0.00222685
0.00109226
-0.00313013
0.00166279
-0.0034541
0.00133593
-0.00467778
7.91266e-05
-0.000652986
0.000395083
-9.04499e-05
3.97333e-05
-0.000170665
-6.1966e-05
-0.000181088
-0.000105849
-0.000154697
-0.000137124
-6.93241e-05
-0.000166149
4.57649e-05
-0.000213713
0.000189528
-0.000282633
0.000331587
-0.000353215
0.000463003
-0.000384255
0.000629396
-0.000424896
0.000737821
-0.000438697
0.000837369
-0.000363249
0.000572297
-8.06763e-05
0.000320617
0.000225311
-6.22239e-05
0.000735503
-0.000695924
0.00111828
-0.000996734
0.00147924
-0.00155352
0.00149562
-0.0021413
0.00122476
-0.00290984
0.000279786
-0.000312508
0.000179828
-0.000155342
2.51007e-06
-0.000145258
-4.50962e-05
-0.000130569
-5.38604e-05
-0.000126122
-1.95518e-05
-0.000109412
3.96262e-05
-0.000140285
0.000105913
-0.000160091
0.000157924
-0.000214235
0.000209923
-0.000212331
0.000277789
-0.00021758
0.000321523
-0.000133707
0.000278477
1.11998e-05
0.000218937
0.000110602
-0.000236134
0.000316262
-0.000558449
0.000418036
-0.00109962
0.000535653
-0.00163147
0.000631871
-0.00201792
0.000757748
-0.00246672
0.000687869
-0.00271453
-0.000375593
0.000443599
-0.000244476
0.000124283
-0.000144396
6.39823e-05
-0.000134589
2.42013e-05
-9.52531e-05
-1.33276e-05
-2.21048e-05
-4.87455e-05
5.80293e-05
-9.89252e-05
0.000124449
-0.000159853
0.000158136
-0.00021057
0.000141437
-0.000216618
7.50034e-05
-0.000182694
-4.74846e-05
-0.000125128
-0.000303077
-6.85972e-05
-0.00075297
2.11706e-05
-0.00110938
0.000119269
-0.0015889
0.000307765
-0.00181874
0.000514415
-0.00200644
0.000777821
-0.00214202
0.000979258
-0.00234115
0.00105033
-0.00255121
0.000288492
-0.000341302
0.000220067
-4.36229e-05
4.78405e-05
-3.17153e-05
8.13101e-06
-3.86193e-05
-1.82083e-05
-3.36445e-05
-3.74536e-05
-1.86876e-05
-5.88304e-05
-3.5892e-06
-8.98449e-05
1.48401e-06
-0.000129772
-2.12087e-05
-0.000150113
-5.37002e-05
-0.000148342
-9.49485e-05
-0.000133675
-0.000231501
-9.70952e-05
-0.000425308
-5.91874e-05
-0.000606727
7.60214e-05
-0.000867124
0.000203563
-0.000968053
0.000416227
-0.00109055
0.000538622
-0.00122496
0.00064488
-0.00140927
0.000659283
-0.0016521
0.000852892
-0.000162757
0.00038444
-0.000201232
0.000111423
-5.31095e-05
4.82524e-05
-1.90872e-05
3.35206e-05
-1.505e-05
2.39011e-05
-1.64619e-05
1.96052e-05
-2.64323e-05
1.19742e-05
-5.95216e-05
-1.23688e-05
-9.17728e-05
-5.04034e-05
-0.000117405
-0.000100801
-0.000123107
-0.000181621
-0.00011341
-0.000291693
-9.18667e-05
-0.000491227
-3.81063e-06
-0.000579312
0.000110614
-0.000731344
0.000257749
-0.000766225
0.000402132
-0.000865534
0.00050306
-0.000976477
0.000570453
-0.00114154
0.00061183
-0.00135525
0.000772191
0.000213538
-0.000356811
0.000229099
-0.000162128
6.08114e-05
-4.54946e-05
6.29934e-05
-2.96546e-05
6.02444e-05
-2.40031e-05
5.61687e-05
-2.07806e-05
4.63597e-05
-5.8021e-05
3.77057e-05
-9.41482e-05
1.93022e-05
-0.000165609
1.82326e-05
-0.00027841
3.32615e-05
-0.000420278
7.00318e-05
-0.00058838
0.000139179
-0.000725116
0.0002201
-0.000831308
0.000339045
-0.000857258
0.000441612
-0.000899146
0.00054375
-0.000987219
0.000587149
-0.00111326
0.000648733
-0.00125809
0.000687472
-0.00137705
0.000738658
-0.000134225
0.000301091
-0.00024862
9.54899e-05
-5.05336e-05
1.23047e-05
-1.57628e-05
1.10598e-05
-1.25058e-05
4.46083e-06
-1.76041e-05
-1.41398e-05
-4.6193e-05
-1.98066e-05
-7.78458e-05
-5.7929e-05
-0.000123443
-9.67194e-05
-0.000226433
-9.88175e-05
-0.000311
-0.000112757
-0.000422898
-0.000102682
-0.000590124
-2.75154e-05
-0.000601667
6.76142e-05
-0.000652506
0.000183976
-0.000671056
0.000269706
-0.000760963
0.000343324
-0.000843934
0.000382027
-0.000982182
0.000459022
-0.00110532
0.00046845
-0.00125807
0.000160029
-0.000272285
0.000199571
-0.000173547
9.97783e-06
-6.40074e-05
-1.01044e-05
-2.73331e-05
-7.10969e-06
-1.96873e-05
-1.99255e-05
-1.94024e-05
-3.41987e-05
-5.26166e-05
-7.55431e-05
-6.10892e-05
-0.00014058
-7.90735e-05
-0.000170064
-0.000107658
-0.00027475
-0.000113742
-0.000416994
-9.50446e-05
-0.000476008
-3.37905e-05
-0.000567052
5.99914e-05
-0.000576561
0.0001756
-0.000609858
0.000263402
-0.000668176
0.000322343
-0.000784096
0.000364336
-0.000894843
0.000432966
-0.00101911
0.000484781
-0.00117182
-9.89806e-05
0.000227653
-0.000251545
9.37587e-05
-0.000143008
-1.89165e-05
-5.24707e-05
2.52949e-06
-3.64159e-05
1.12267e-05
-4.51925e-05
1.42671e-05
-9.03611e-05
2.60412e-05
-0.000129375
2.40517e-05
-0.000190199
3.53119e-05
-0.000292247
4.75697e-05
-0.000359828
7.39689e-05
-0.00047671
0.000131961
-0.000533205
0.000227803
-0.000558277
0.000341006
-0.000484803
0.000464191
-0.000499398
0.000533594
-0.000534067
0.000588807
-0.000649704
0.00061429
-0.000763959
0.000696776
-0.000875518
0.000701792
-0.000979213
0.000114634
-0.000204974
0.000172278
-0.000187618
1.89571e-05
-2.99955e-05
-1.95388e-06
-1.00297e-05
-9.81716e-07
-1.40047e-05
-6.49844e-06
-3.49107e-05
-8.03208e-06
-5.71192e-05
-3.20628e-05
-9.74332e-05
-3.33629e-05
-0.000171331
-3.58457e-05
-0.000192934
-5.69533e-05
-0.000303971
-4.05331e-05
-0.00037299
2.29961e-05
-0.000383746
9.33484e-05
-0.000397581
0.00019254
-0.000403837
0.000263198
-0.000439773
0.000329855
-0.000504404
0.000358767
-0.000582108
0.000388399
-0.000709361
0.000393422
-0.000831816
0.000520713
-6.47693e-05
0.000177103
-0.000181647
0.000117484
-4.37294e-05
-2.20041e-06
1.30263e-06
7.21643e-06
5.77396e-06
-3.86993e-06
-2.58099e-07
-1.85998e-05
-1.59221e-05
-5.09857e-05
-1.61514e-06
-8.12956e-05
-2.01439e-05
-0.000105205
-3.36294e-05
-0.000197673
-9.48711e-06
-0.00023366
4.52188e-05
-0.000213603
0.000139362
-0.000230017
0.000258156
-0.000145016
0.000373318
-0.000129439
0.000450699
-0.000146338
0.000496905
-0.000224418
0.000521796
-0.000311421
0.000541483
-0.000436413
0.000557314
-0.000565207
0.000651383
8.71264e-05
-0.000141499
0.000157721
-9.94959e-05
9.47983e-06
5.78056e-08
5.42089e-06
-3.8928e-06
1.7252e-05
-6.05711e-06
9.33816e-06
-1.9932e-05
8.32694e-06
-2.78763e-05
-1.49303e-05
-5.9228e-05
-1.62127e-05
-0.000116588
-1.39601e-05
-0.000133303
2.0699e-05
-0.000150701
9.73775e-05
-0.00015049
0.000213351
-6.22096e-05
0.000316333
-2.82805e-05
0.000396992
-2.9952e-05
0.000431396
-0.000100697
0.000469143
-0.00017439
0.000479575
-0.000276704
0.000519453
-0.000402228
0.000556868
-0.000496981
0.000637772
-4.6336e-05
0.000133905
-0.000114783
7.10909e-05
-4.85516e-06
-3.96456e-05
-1.10303e-05
1.4205e-05
-2.36016e-06
1.97795e-05
-1.49916e-07
1.22458e-05
1.26775e-06
-2.05603e-05
1.28121e-05
-4.75016e-05
1.91654e-05
-9.12908e-05
4.7272e-05
-0.000120997
9.22064e-05
-0.000113761
0.000160655
-6.7222e-05
0.000224197
-6.0795e-05
0.000269351
-7.1275e-05
0.000294954
-0.000138826
0.000318057
-0.000200782
0.000333793
-0.000315916
0.000341435
-0.000415547
0.000343098
-0.000587334
0.000350346
-0.000709374
0.000428595
5.98208e-05
-9.25809e-05
0.000110214
-4.70946e-05
-3.25768e-05
1.121e-05
-9.71232e-06
6.99569e-06
1.1895e-05
1.22374e-05
1.4317e-05
1.16638e-05
4.56763e-06
1.31388e-05
-5.65101e-06
-2.18787e-06
-3.53459e-05
1.67643e-06
-6.2073e-05
1.71872e-05
-5.10416e-05
3.82044e-05
-6.79637e-05
7.1769e-05
-7.6015e-05
9.69552e-05
-9.6777e-05
0.000125891
-0.000139088
0.000148257
-0.000182402
0.00018424
-0.000251685
0.000213282
-0.000322126
0.000262219
-0.000422182
0.000345988
-0.000510626
0.000377581
-0.000624342
-3.22818e-05
9.77727e-05
-6.83105e-05
4.79218e-05
1.40941e-05
-3.36504e-05
-1.75524e-06
-3.63721e-06
1.61679e-05
1.16883e-05
1.94221e-05
1.58595e-05
1.96303e-05
8.12631e-06
4.06893e-06
1.82215e-05
-5.96799e-06
2.05964e-05
1.42192e-06
4.66292e-05
-1.02033e-05
8.32388e-05
2.24495e-05
0.000125895
2.25953e-05
0.000156792
1.56446e-05
0.000185468
-2.30141e-05
0.000214684
-5.19603e-05
0.000251316
-0.00011337
0.00029161
-0.00016755
0.000348032
-0.000247968
0.000449953
-0.00031228
0.000500568
-0.000407029
4.06448e-05
-5.51718e-05
8.24648e-05
-2.13318e-05
-1.41697e-05
-3.09024e-06
-2.61743e-05
8.57828e-06
-1.06487e-05
2.56914e-05
3.501e-06
2.40951e-05
5.69602e-06
2.55616e-05
9.31497e-06
1.891e-05
6.66208e-06
3.26425e-05
3.12706e-06
4.90496e-05
2.83372e-05
7.25437e-05
3.45675e-05
9.13691e-05
3.44006e-05
0.000107544
8.23034e-06
0.000120418
-1.79485e-05
0.000138078
-7.58287e-05
0.000160756
-0.000124303
0.000190739
-0.000203691
0.000230425
-0.000280884
0.0003039
-0.000350981
0.000351353
-0.000454253
-2.13592e-05
6.75469e-05
-3.32314e-05
4.02155e-05
1.06539e-06
-2.34394e-05
-1.98136e-05
-3.43693e-05
2.40592e-05
-2.13491e-05
4.35435e-05
-1.71919e-05
5.38138e-05
-1.53648e-05
5.08198e-05
-8.54175e-06
5.33377e-05
-4.40875e-06
4.82767e-05
4.06119e-06
3.49112e-05
1.41421e-05
2.07274e-05
3.26726e-05
1.38322e-05
6.07843e-05
-5.60775e-06
9.40967e-05
-1.27557e-05
0.000142036
-3.63409e-05
0.000195609
-4.87157e-05
0.000258288
-8.73581e-05
0.000323227
-0.000129122
0.000421613
-0.000158928
0.000478487
-0.000241223
2.3152e-05
-2.84864e-05
5.52954e-05
-7.82833e-06
5.29774e-06
-2.54538e-05
-1.86304e-05
-1.70343e-05
-8.60972e-06
7.8926e-06
1.76135e-06
2.02064e-05
4.92751e-06
2.6369e-05
8.57345e-06
3.67895e-05
7.35147e-06
4.10013e-05
1.17952e-05
4.10435e-05
1.62033e-05
5.62396e-05
2.27015e-05
4.79677e-05
3.03075e-05
3.7423e-05
4.08335e-05
2.74345e-05
5.94402e-05
1.62611e-06
8.33813e-05
-1.96793e-05
0.000119386
-5.62721e-05
0.000150402
-8.90506e-05
0.000180834
-0.000158202
0.000207999
-0.000213178
0.000289848
-9.91618e-06
3.80564e-05
-3.63374e-06
2.71422e-05
1.39835e-06
-2.7739e-06
-2.70076e-05
-1.81108e-05
-1.41614e-05
-7.65986e-08
-1.80646e-06
1.43325e-05
5.17763e-06
2.94477e-05
7.95944e-06
3.98628e-05
1.74019e-05
5.56545e-05
2.30296e-05
7.24361e-05
3.67721e-05
8.12983e-05
5.32327e-05
0.000103713
7.39372e-05
0.000106289
9.34751e-05
0.00011217
0.000118902
9.91103e-05
0.000150531
9.4299e-05
0.000192268
7.1403e-05
0.000231654
5.33502e-05
0.000269856
-5.74113e-07
0.000305935
-4.6226e-05
0.000354322
1.81382e-06
5.14551e-06
3.29304e-05
2.34041e-05
1.01096e-05
-6.90672e-06
-2.9498e-05
-2.87062e-05
-2.7348e-05
-1.52806e-05
-1.81397e-05
2.73533e-06
-9.95373e-06
2.09487e-05
-1.06431e-06
4.10901e-05
2.52028e-06
5.59224e-05
1.10428e-05
7.18095e-05
1.77642e-05
9.18906e-05
2.82359e-05
0.000100368
3.73883e-05
0.000109073
4.81673e-05
0.000103354
6.09324e-05
0.000102622
7.78883e-05
8.44704e-05
0.000100235
7.42541e-05
0.000124681
4.8517e-05
0.000155818
2.30815e-05
0.000203579
-1.70563e-06
0.00024814
1.16162e-05
1.12195e-05
1.84923e-05
-9.78327e-07
-7.13967e-07
-2.98575e-05
-4.2713e-05
-5.2437e-05
-5.61462e-05
-4.34135e-05
-4.83001e-05
-2.87013e-05
-3.50042e-05
-8.21724e-06
-2.27221e-05
1.23594e-05
-1.0374e-05
3.51044e-05
-4.76525e-06
5.32758e-05
9.49977e-08
6.83837e-05
2.12802e-06
8.49818e-05
6.92216e-06
9.5144e-05
1.24523e-05
0.000108908
2.41197e-05
0.000112641
4.08311e-05
0.000120946
6.52008e-05
0.000114181
9.06226e-05
0.000112682
0.000116395
8.96278e-05
0.000150168
6.551e-05
0.000176729
-1.64089e-05
-1.58575e-06
-1.90036e-05
-1.31586e-05
-3.89131e-05
-5.40572e-05
-7.31745e-05
-8.66033e-05
-7.16214e-05
-8.77253e-05
-6.92535e-05
-8.05565e-05
-6.88672e-05
-6.62713e-05
-6.61705e-05
-4.54213e-05
-6.122e-05
-2.41726e-05
-5.43576e-05
-2.50386e-06
-4.87525e-05
1.85485e-05
-4.20692e-05
4.14702e-05
-3.88091e-05
6.26529e-05
-3.6553e-05
8.56649e-05
-3.87454e-05
0.000109092
-4.24512e-05
0.000128648
-4.78353e-05
0.000158145
-5.15527e-05
0.000173714
-5.20856e-05
0.000208849
-1.51705e-05
0.000204368
3.79102e-05
-7.60567e-06
-1.48784e-05
-1.68457e-05
-3.25208e-05
-4.7607e-05
-5.97653e-05
-7.908e-05
-6.36161e-05
-9.29041e-05
-5.92156e-05
-0.000110105
-5.79652e-05
-0.000127641
-5.54996e-05
-0.000142022
-5.34665e-05
-0.000144945
-4.69756e-05
-0.000140457
-4.29531e-05
-0.000127251
-3.13538e-05
-0.000106573
-2.63744e-05
-7.67818e-05
-1.52813e-05
-3.86814e-05
-1.69827e-05
5.45486e-06
-1.75857e-05
5.4161e-05
-2.98045e-05
0.000102993
-5.19071e-05
0.000146387
-7.37126e-05
0.000179525
-0.000119847
0.000178513
-0.000139116
0.000142067
-7.77769e-06
-3.60209e-06
-6.864e-06
-1.15367e-05
-1.60851e-05
-2.28563e-05
-2.36607e-05
-3.18603e-05
-2.79043e-05
-4.48851e-05
-3.33206e-05
-6.40938e-05
-3.86296e-05
-8.94322e-05
-4.6229e-05
-0.000116809
-5.01098e-05
-0.000140178
-5.59953e-05
-0.00016427
-5.99831e-05
-0.000189281
-6.39622e-05
-0.000216901
-6.14897e-05
-0.000247578
-5.4423e-05
-0.000282431
-3.65519e-05
-0.000320924
-7.68126e-06
-0.000361875
3.1586e-05
-0.000403728
9.20523e-05
-0.00044106
0.000152379
-0.000488593
0.000223996
-0.000459374
0.000316241
1.5381
0.887698
-0.626424
0.0777824
0.0953495
0.120991
0.05066
0.0972379
0.27446
0.249179
0.269718
-0.270006
-0.0491816
0.0238774
0.00892082
0.0178395
-0.0162846
0.0444811
-0.0395311
0.02936
-0.0316135
-0.00364461
-0.0128647
-0.00496936
-0.0154892
-0.0269818
0.00871894
0.00932198
-0.00584885
-0.0372512
0.0202837
0.00347966
0.00370161
0.0169783
-0.00582628
0.0144383
0.00382075
0.00690521
0.0124589
0.00722596
0.00942013
0.00916403
0.0105067
0.0271255
-0.00189628
0.0104399
0.0383273
-0.00595834
-0.00890062
0.0195266
-0.013847
0.00264142
-0.00440178
0.00381255
0.0126625
-0.0187843
0.000714528
-0.00740967
-0.0024355
-0.00405738
-0.00604107
0.000276055
-0.0026441
-0.0053382
0.000297183
-0.00802914
0.00479902
-0.00155045
-0.00048535
-0.00328427
0.00335562
-0.00147858
0.000787838
0.000231406
0.510284
0.227495
-0.154439
-0.0803747
-0.086405
-0.0481786
-0.0415071
0.0581082
0.0965275
0.150619
0.0383092
-0.049338
-0.0217926
0.0193687
0.0332991
0.0371465
0.0245362
0.0503157
0.0254305
0.0443798
0.0271014
0.0290403
0.0259689
0.0287874
0.0281595
0.0309799
0.0425202
0.0357139
0.0405066
0.0303672
0.0459723
0.038491
0.0274972
0.0189924
0.0107374
0.0171854
0.00956801
0.00938598
0.00871413
0.00472258
0.00463618
0.00137138
0.000837313
0.00504084
-0.00501467
-0.00107831
9.64342e-05
-0.00748026
-0.012153
-0.00162289
-0.0146016
-0.00709094
-0.0100051
-0.00500833
-0.00522456
-0.00962949
-0.00414463
-0.0055313
-0.00312123
-0.00261028
-0.00214125
-2.53636e-05
-0.00094764
-0.00159096
0.000818412
-0.00111069
0.00199622
0.000150281
0.000249857
-0.000364849
0.00183928
-0.000272835
0.00066824
0.000195737
0.261494
0.128054
0.0701908
0.124741
0.122138
0.131649
0.100797
0.073825
0.03897
0.0326226
0.0166554
-0.00566788
-0.00920258
0.00810446
-0.0303232
-0.0125988
-0.0390806
-0.0146347
-0.0331904
-0.0176783
-0.0319444
-0.0315446
-0.0369292
-0.0339485
-0.0366811
-0.0323101
-0.029834
-0.0429613
-0.034245
-0.045717
-0.0263804
-0.0260418
-0.0185865
-0.0156898
-0.0161996
-0.00368847
-0.00458053
-0.00163639
0.000989297
0.00250351
0.00459545
0.0043111
0.00451664
0.00731158
0.00318641
0.00955527
0.010317
0.00811377
0.00660835
0.0156299
0.0047673
0.0102275
0.00675514
0.00835973
0.00596342
-0.00044704
0.00372808
-0.000697143
0.000670134
-0.00108849
-0.00109147
-0.000826346
-0.00165308
-0.00268192
-0.000844161
-0.00245097
-0.000101791
-0.00156455
-0.00152634
-0.00173749
0.000576822
-0.00116965
1.48623e-05
-1.42691e-05
0.253358
0.138228
0.013519
-0.0170153
-0.0320413
-0.024583
-0.011188
0.0404987
0.0726841
0.0845527
0.0208776
-0.0111304
-0.0176683
0.00110283
0.00907225
0.015446
0.0111372
0.0224145
0.01288
0.0200241
0.0126541
0.012969
0.01092
0.0122019
0.0128088
0.0143021
0.02149
0.01765
0.0208794
0.0141987
0.0237889
0.0217198
0.0187312
0.0138343
0.0129018
0.0145871
0.00798374
0.0086903
0.0081973
0.00592969
0.00543892
0.00364511
0.0032867
0.00434653
-0.000311795
0.000973758
-0.000710392
-0.00180256
-0.00672357
-0.000806423
-0.00918446
-0.00406274
-0.00654232
-0.00344426
-0.00510937
-0.0060598
-0.00386665
-0.00457205
-0.00292596
-0.00246759
-0.00175972
-0.000793218
-0.00118746
-0.00134175
0.00028044
-0.000617146
0.000777666
-6.60158e-05
-0.000181382
-6.41006e-05
0.00117013
-0.000379496
0.00049039
0.000123608
0.102018
0.0748687
0.0781455
0.0811919
0.0771946
0.0680058
0.0612355
0.0380571
0.0181319
0.00825337
0.000952645
0.0119678
0.00811926
0.014996
-0.00668784
-0.00425688
-0.0190238
-0.0152525
-0.0207933
-0.0170982
-0.0215823
-0.0214943
-0.0241778
-0.0228041
-0.024568
-0.0234155
-0.0241126
-0.0275356
-0.0274154
-0.0299147
-0.0216136
-0.0197883
-0.0170598
-0.0154156
-0.0116614
-0.00574962
-0.00897111
-0.00558055
-0.000999544
0.000922991
0.000603731
0.0013383
0.00271932
0.00316242
0.00182935
0.00495581
0.00424426
0.00650006
0.00422144
0.00892257
0.00389103
0.00785627
0.00598059
0.00670911
0.00463246
0.00168424
0.00300702
0.000230834
0.000956299
-0.000297531
-0.000360672
-0.000833472
-0.00118177
-0.00157687
-0.000574661
-0.00156739
-0.000672997
-0.00125149
-0.00125174
-0.000958367
0.000270362
-0.000960673
2.8416e-05
1.10514e-05
0.0837111
0.0671252
0.034106
0.0127393
-0.0144643
-0.00796899
-0.00956622
0.0157274
0.0283094
0.0315646
0.0117018
0.00372518
-0.00188559
0.00287661
0.00118064
0.00700679
0.00476934
0.00916628
0.00538883
0.00777939
0.00437168
0.00443116
0.00299472
0.00358031
0.00437501
0.00571059
0.0097846
0.00787493
0.00833103
0.00523683
0.0113752
0.0106469
0.0116067
0.0107365
0.0122228
0.0108583
0.00671985
0.00829846
0.00744388
0.00561921
0.00516835
0.00498823
0.00461999
0.00419287
0.00213121
0.0019119
0.000341413
0.000701276
-0.00322532
3.28247e-05
-0.00550054
-0.00230509
-0.00395251
-0.00251261
-0.00395303
-0.00424713
-0.00341454
-0.0037621
-0.00262806
-0.00228314
-0.00167598
-0.00121052
-0.00131011
-0.00116682
-0.000111821
-0.000580263
0.000170786
-0.000205407
-0.000369924
8.61636e-05
0.0006875
-0.000440721
0.000360849
7.56294e-05
0.0417124
0.0349616
0.0406781
0.0376403
0.0393521
0.0299935
0.0261138
0.0189499
0.0118195
-0.000964994
0.00286085
0.00941519
0.0145875
0.0156464
0.00147231
0.00164696
-0.00622132
-0.00670189
-0.0112055
-0.0100305
-0.012866
-0.0120601
-0.0138066
-0.0131342
-0.0142391
-0.0141373
-0.0143767
-0.0184826
-0.016865
-0.0202196
-0.0150173
-0.0149991
-0.012406
-0.0103908
-0.00830013
-0.00836231
-0.00906736
-0.00515613
-0.00231465
-0.002022
-0.0019511
0.000527502
0.00099354
0.000117066
-0.000166274
0.00168862
0.000749644
0.00414461
0.00181237
0.00562762
0.00247961
0.00515288
0.00406153
0.00479391
0.00317098
0.00216499
0.0027176
0.000796119
0.00121396
0.00010902
0.000215677
-0.000478206
-0.000634891
-0.000939526
-0.000461324
-0.000947205
-0.000544767
-0.000841679
-0.00101029
-0.000562776
4.67893e-05
-0.000707875
8.49401e-05
5.00617e-05
0.0279929
0.0341229
0.0333399
0.0321476
0.0242989
0.009956
0.0176111
0.00919369
0.0148509
0.00804893
0.0126975
0.0108921
0.0146055
0.0066247
0.00428905
0.00336747
0.00255271
0.00244427
0.00202218
0.00168585
0.000730268
0.000131774
-0.000698442
-0.000297044
0.000257842
0.00138193
0.00261389
0.00135885