/*--------------------------------*- C++ -*----------------------------------*\
| =========                 |                                                 |
| \\      /  F ield         | OpenFOAM: The Open Source CFD Toolbox           |
|  \\    /   O peration     | Version:  2312                                  |
|   \\  /    A nd           | Website:  www.openfoam.com                      |
|    \\/     M anipulation  |                                                 |
\*---------------------------------------------------------------------------*/
FoamFile
{
    version     2.0;
    format      ascii;
    arch        "LSB;label=32;scalar=64";
    class       volScalarField;
    location    "250";
    object      magR;
}
// * * * * * * * * * * * * * * * * * * * * * * * * * * * * * * * * * * * * * //

dimensions      [0 2 -2 0 0 0 0];

internalField   nonuniform List<scalar> 
11040
(
0.701397
0.388844
0.0992788
0.434233
0.581278
0.485444
0.424008
0.381554
0.352781
0.332489
0.3149
0.304772
0.300458
0.303605
0.3132
0.329333
0.352976
0.388404
0.437402
0.508405
0.605697
0.731073
0.891521
1.10128
1.36655
1.67548
2.01815
2.37899
2.73481
3.08508
3.42326
3.70664
3.87375
3.894
3.73444
3.40242
2.88765
2.13304
1.13786
0.66716
0.666527
0.0582326
0.175315
0.522344
1.17577
0.472634
0.0769543
0.0210172
0.0189125
0.0302468
0.0408428
0.0486873
0.0567418
0.0657335
0.0771659
0.0921369
0.110256
0.132755
0.159067
0.190676
0.223743
0.258603
0.291965
0.319872
0.342738
0.360656
0.37188
0.369547
0.348219
0.308041
0.252496
0.205499
0.160302
0.120925
0.0973825
0.105882
0.141226
0.208972
0.311845
0.442033
0.553537
1.38979
0.0274083
0.0125597
0.118913
1.11077
1.87457
0.938111
0.248251
0.101811
0.0474518
0.0160724
0.00484582
0.0219357
0.0384812
0.0533562
0.0685297
0.0838544
0.100712
0.119859
0.138994
0.15503
0.164901
0.166372
0.157913
0.141772
0.125119
0.109915
0.0956175
0.0876017
0.0893868
0.093457
0.0878945
0.0677022
0.0581916
0.112995
0.218967
0.36711
0.567977
0.849031
1.22984
1.66225
2.41137
0.0185012
0.0208552
0.00322773
0.183068
1.37351
2.39469
1.54183
0.507296
0.23465
0.137725
0.0923225
0.0670388
0.0454466
0.0352954
0.0343767
0.040275
0.0510464
0.0631624
0.0750128
0.0854199
0.0934317
0.100382
0.109889
0.124617
0.145285
0.170726
0.197065
0.219743
0.231319
0.227003
0.20228
0.157156
0.107718
0.150328
0.316744
0.566045
0.908316
1.38138
2.02706
2.76084
3.21339
0.0144107
0.0156005
0.0115673
0.00222128
0.203499
1.40547
2.76652
2.2912
0.970452
0.464414
0.272134
0.21391
0.173365
0.153605
0.143418
0.138464
0.139523
0.145515
0.157492
0.176454
0.199905
0.224411
0.249121
0.274799
0.300747
0.326615
0.35076
0.370239
0.376085
0.362841
0.319941
0.242015
0.131237
0.168012
0.436969
0.819578
1.32903
2.00844
2.91555
3.91532
4.12663
0.0107035
0.0101703
0.0123605
0.00510954
0.000736042
0.162931
1.22548
2.94027
3.05961
1.74204
0.814563
0.506914
0.377172
0.323947
0.304904
0.296813
0.301456
0.312322
0.331032
0.357939
0.390087
0.421316
0.449294
0.475136
0.498494
0.520887
0.544584
0.566888
0.574084
0.555736
0.494256
0.377238
0.185211
0.139193
0.536301
1.06939
1.75539
2.63718
3.7713
4.96022
5.12323
0.00802004
0.00756024
0.00806529
0.0091566
0.00213127
3.59994e-05
0.0889339
0.895322
2.7209
3.64274
2.78348
1.42854
0.8449
0.607668
0.531598
0.496258
0.494972
0.505881
0.532102
0.567792
0.608154
0.645228
0.679665
0.714867
0.750584
0.785181
0.817957
0.849134
0.864236
0.845552
0.769541
0.615993
0.356592
0.0312947
0.563145
1.24737
2.0978
3.15036
4.44396
5.7335
6.07852
0.00593038
0.0058673
0.0057646
0.00635183
0.00724573
0.000244862
0.00173941
0.0347632
0.531322
2.10813
3.77848
3.78484
2.48589
1.35453
0.931269
0.760189
0.719271
0.713538
0.738036
0.776952
0.827871
0.879597
0.932219
0.991671
1.0586
1.13008
1.19997
1.25884
1.28895
1.27826
1.19736
1.01739
0.706694
0.249908
0.441797
1.25078
2.23027
3.38767
4.73791
6.03815
6.7161
0.00444724
0.00442225
0.00449431
0.00441651
0.0052454
0.0046241
0.000599004
0.00100533
0.00331421
0.227688
1.29454
3.22453
4.30805
3.70967
2.33614
1.40856
1.07001
0.959553
0.95919
0.997244
1.06214
1.1367
1.21921
1.31571
1.4276
1.55172
1.68051
1.79941
1.88471
1.90903
1.8398
1.64801
1.30406
0.784995
0.277457
0.967221
2.00453
3.17147
4.43935
5.62289
6.53239
0.00334798
0.00334482
0.00341581
0.00346922
0.00348341
0.00399943
0.00344242
0.000896715
0.000292708
0.000149143
0.0656969
0.600486
2.13627
4.01644
4.57001
3.65403
2.34322
1.54924
1.27349
1.23839
1.30961
1.41765
1.54318
1.68884
1.85811
2.0479
2.2499
2.44799
2.61393
2.71379
2.70897
2.56153
2.23414
1.69446
0.966636
0.529745
1.32796
2.37927
3.43542
4.35277
5.20787
0.00252779
0.00253332
0.00258385
0.00266192
0.00269521
0.00275355
0.00295904
0.00285954
0.00105033
0.000121079
0.0015312
0.00412383
0.180868
1.03785
2.82628
4.50505
4.71779
3.7064
2.50117
1.80871
1.6149
1.69551
1.8766
2.09161
2.33215
2.594
2.87397
3.15838
3.41454
3.6067
3.68956
3.62322
3.36612
2.88916
2.18354
1.34086
0.696308
1.06478
1.7887
2.39455
2.95592
0.00191141
0.00191819
0.00195794
0.00201576
0.00207673
0.00211612
0.00214512
0.00226916
0.00232032
0.00130761
9.86565e-05
8.757e-05
0.00410577
0.0296753
0.334065
1.41093
3.26591
4.7751
4.87268
3.92384
2.87738
2.32235
2.23172
2.42346
2.7522
3.11703
3.49564
3.87307
4.22235
4.50682
4.68806
4.72307
4.57363
4.20853
3.61714
2.84147
2.00232
1.229
0.618309
0.25669
0.488497
0.0014452
0.00145236
0.00148113
0.00152571
0.00157602
0.00162573
0.001663
0.00168322
0.00175543
0.00183554
0.00144036
9.32678e-05
1.43803e-05
0.00098097
0.000992383
0.0593953
0.44724
1.60853
3.4382
4.90816
5.12174
4.45888
3.73827
3.31973
3.24795
3.45395
3.85257
4.33744
4.81281
5.21775
5.5163
5.67358
5.65662
5.43777
5.01398
4.40724
3.70112
3.00102
2.40484
1.9302
1.55165
0.00109144
0.00109834
0.00111912
0.00115248
0.00119241
0.00123453
0.00127637
0.00130951
0.0013317
0.0013684
0.00146985
0.00133579
0.000439758
4.49027e-05
3.45267e-05
0.0026052
0.00371267
0.0735856
0.4693
1.59018
3.36303
4.91632
5.55827
5.52323
5.25663
4.99335
4.8799
4.96064
5.19282
5.50592
5.82039
6.06976
6.20021
6.17217
5.97502
5.62161
5.14089
4.59811
4.08616
3.68069
3.28999
0.000822312
0.000828688
0.000843948
0.000868622
0.000899497
0.000933768
0.000969317
0.0010046
0.00103556
0.00105758
0.00108134
0.0011595
0.00110781
0.000855193
4.32223e-05
1.26828e-05
0.000112668
0.00356239
0.00416288
0.0627345
0.392833
1.29716
2.73617
4.30304
5.54833
6.3574
6.85324
7.13717
7.27369
7.33305
7.3632
7.36745
7.32829
7.21865
7.02633
6.76014
6.40155
5.9171
5.47627
5.2324
4.9813
0.000617489
0.000623115
0.000634444
0.000652621
0.000675965
0.000702829
0.000731964
0.00076208
0.000792028
0.000820234
0.000841644
0.000867052
0.000898661
0.000946822
0.000834693
0.000516319
4.32822e-05
3.1577e-06
0.000135911
0.0035543
0.00255497
0.0312986
0.183467
0.622974
1.42985
2.53463
3.75072
4.90016
5.89199
6.69666
7.30109
7.69433
7.87847
7.86591
7.67526
7.3379
6.90664
6.44072
5.96442
5.53602
5.21917
0.000462912
0.000467655
0.000476197
0.000489642
0.000507093
0.000527624
0.00055042
0.000574764
0.000599995
0.000625423
0.000649968
0.000672141
0.000692696
0.000717479
0.000755396
0.000775283
0.000647508
0.000287031
2.95122e-05
2.47942e-06
5.86265e-05
0.00187111
0.00795867
0.00365548
0.0237548
0.100655
0.280284
0.583013
0.988667
1.44602
1.89402
2.27861
2.562
2.72658
2.76841
2.7019
2.56228
2.40416
2.26729
2.18073
2.12081
0.000350139
0.00035411
0.000360808
0.000371049
0.000384347
0.00040013
0.000417916
0.000437211
0.00045762
0.000478834
0.000500308
0.000521566
0.00054228
0.000561083
0.000582073
0.000609609
0.000653085
0.000648749
0.000539116
0.000220425
2.37813e-05
2.81343e-06
0
7.63757e-05
0.00190186
0.00753491
0.000296243
0.00751799
0.0145633
0.0223244
0.0240979
0.0171711
0.00332773
0.0288953
0.0681739
0.115763
0.166085
0.211854
0.245772
0.265817
0.264937
0.000269602
0.000272954
0.000278338
0.000286333
0.000296667
0.000309011
0.000323059
0.000338512
0.000355117
0.000372591
0.000390624
0.000408942
0.000427457
0.000445781
0.000463704
0.000481336
0.000503554
0.000533529
0.000566676
0.000562817
0.000450729
0.000258171
2.38578e-05
3.04009e-06
1.42674e-06
1.09382e-08
2.21702e-06
0.0001895
0.00110322
0.00390929
0.00746243
0.0109454
0.0144197
0.000391185
0.00801148
0.00694353
0.00604248
0.00789897
0.00634384
0.00535919
0.00573848
0.000211343
0.000214132
0.000218476
0.00022477
0.00023287
0.000242586
0.000253702
0.000266037
0.00027942
0.000293645
0.000308603
0.00032402
0.000339768
0.000355778
0.00037194
0.000388012
0.000404098
0.00042154
0.000443166
0.000471718
0.000499265
0.000511084
0.000435139
0.00031248
0.000150669
1.20979e-06
3.38537e-06
1.99204e-06
1.28459e-06
6.45485e-07
1.99119e-07
8.77498e-09
0
1.57413e-06
5.97976e-05
4.34068e-05
3.17039e-05
4.53991e-05
2.87716e-05
2.0467e-05
2.0892e-05
0.000167901
0.000170188
0.000173715
0.000178707
0.000185113
0.000192811
0.000201656
0.000211506
0.000222223
0.000233744
0.000245906
0.000258593
0.000271663
0.000285051
0.000298689
0.000312552
0.000326539
0.000340636
0.000355144
0.000371029
0.000391314
0.000417081
0.000447939
0.000461865
0.000452143
0.000405518
0.000331105
0.0002504
0.000166506
8.67582e-05
2.78301e-05
1.2772e-06
2.67392e-06
1.82288e-06
1.63931e-06
1.49024e-06
1.36481e-06
1.28478e-06
1.20348e-06
1.14134e-06
1.08118e-06
0.000134843
0.000136708
0.000139587
0.000143585
0.000148687
0.000154828
0.000161899
0.000169785
0.000178391
0.000187659
0.00019746
0.000207774
0.000218452
0.000229403
0.000240587
0.000251965
0.000263511
0.000275186
0.000287006
0.000298889
0.000311375
0.000325192
0.000341971
0.000360731
0.000380202
0.000399266
0.000411632
0.000416526
0.000412636
0.000400368
0.000381506
0.000358467
0.000333753
0.000308681
0.000287648
0.000271776
0.000259698
0.000251038
0.0002459
0.000242276
0.000241183
0.000109238
0.000110762
0.000113123
0.000116345
0.000120431
0.000125357
0.00013103
0.000137361
0.000144272
0.000151692
0.000159588
0.000167904
0.000176545
0.000185401
0.00019443
0.000203585
0.000212845
0.000222152
0.000231515
0.000240859
0.000250375
0.000260019
0.000269572
0.000279224
0.000289249
0.0002998
0.000310761
0.000321679
0.000331924
0.000340956
0.000348401
0.000354088
0.00035795
0.000360001
0.000359766
0.000358076
0.00035525
0.000351271
0.000346786
0.000340519
0.000337176
8.91397e-05
9.03831e-05
9.23256e-05
9.49387e-05
9.82354e-05
0.000102206
0.000106779
0.000111875
0.000117434
0.00012339
0.00012973
0.000136381
0.000143325
0.000150437
0.000157655
0.000164939
0.000172258
0.000179558
0.000186809
0.000193948
0.000201129
0.000208338
0.000215211
0.000221614
0.00022757
0.000233117
0.000238283
0.00024308
0.000247502
0.000251467
0.00025489
0.000257646
0.000259662
0.00026086
0.00026121
0.000260672
0.000259249
0.00025686
0.00025391
0.000249229
0.000247387
7.31743e-05
7.4198e-05
7.58086e-05
7.79424e-05
8.06174e-05
8.38356e-05
8.75359e-05
9.16539e-05
9.61339e-05
0.00010093
0.000105997
0.000111318
0.000116882
0.000122574
0.000128316
0.000134075
0.00013981
0.000145485
0.000151046
0.000156434
0.000161751
0.000167029
0.000171995
0.000176519
0.000180586
0.000184182
0.000187295
0.000189891
0.000191982
0.000193538
0.000194577
0.00019508
0.000195059
0.000194494
0.000193431
0.000191882
0.000189865
0.000187311
0.000184574
0.000180531
0.000179604
6.03786e-05
6.12202e-05
6.25663e-05
6.43229e-05
6.65076e-05
6.91287e-05
7.21376e-05
7.54768e-05
7.90997e-05
8.29673e-05
8.70304e-05
9.12997e-05
9.57377e-05
0.000100279
0.00010484
0.000109379
0.000113859
0.000118246
0.000122493
0.000126538
0.000130459
0.000134297
0.000137849
0.000141014
0.000143784
0.000146164
0.000148144
0.00014971
0.000150857
0.000151588
0.000151905
0.000151826
0.000151342
0.000150474
0.000149256
0.000147728
0.000145891
0.00014369
0.00014147
0.000138115
0.000138121
5.00291e-05
5.07389e-05
5.18696e-05
5.33214e-05
5.51176e-05
5.72657e-05
5.97241e-05
6.24432e-05
6.53832e-05
6.85104e-05
7.17834e-05
7.52029e-05
7.87365e-05
8.236e-05
8.5988e-05
8.95688e-05
9.30716e-05
9.64638e-05
9.97095e-05
0.000102748
0.000105648
0.000108454
0.000111011
0.000113244
0.000115148
0.000116736
0.000118004
0.000118957
0.000119587
0.000119913
0.000119939
0.000119684
0.000119142
0.000118337
0.000117297
0.000116061
0.00011462
0.000112927
0.000111321
0.000108664
0.000109566
4.1612e-05
4.22094e-05
4.31663e-05
4.43791e-05
4.58666e-05
4.76378e-05
4.96572e-05
5.18814e-05
5.42774e-05
5.68154e-05
5.94634e-05
6.22015e-05
6.50251e-05
6.79217e-05
7.08121e-05
7.36443e-05
7.63891e-05
7.90196e-05
8.15069e-05
8.38002e-05
8.59572e-05
8.80299e-05
8.98945e-05
9.14985e-05
9.28364e-05
9.39277e-05
9.47687e-05
9.53698e-05
9.57317e-05
9.5873e-05
9.57975e-05
9.55255e-05
9.50579e-05
9.44137e-05
9.36211e-05
9.27085e-05
9.16688e-05
9.04489e-05
8.93894e-05
8.73163e-05
8.89659e-05
3.47189e-05
3.52351e-05
3.60486e-05
3.70681e-05
3.83099e-05
3.97794e-05
4.14467e-05
4.32754e-05
4.52365e-05
4.73051e-05
4.94544e-05
5.16594e-05
5.39287e-05
5.62434e-05
5.85498e-05
6.07988e-05
6.29595e-05
6.50102e-05
6.69282e-05
6.86717e-05
7.02923e-05
7.18429e-05
7.32273e-05
7.44041e-05
7.53744e-05
7.61526e-05
7.67452e-05
7.71587e-05
7.74027e-05
7.74853e-05
7.74196e-05
7.72195e-05
7.68913e-05
7.64451e-05
7.59093e-05
7.53027e-05
7.46186e-05
7.38002e-05
7.31847e-05
7.15822e-05
7.37993e-05
2.90491e-05
2.94955e-05
3.01967e-05
3.10616e-05
3.21036e-05
3.33313e-05
3.47169e-05
3.62289e-05
3.78426e-05
3.95367e-05
4.12889e-05
4.30769e-05
4.49055e-05
4.67583e-05
4.86072e-05
5.04039e-05
5.21171e-05
5.37286e-05
5.52224e-05
5.65636e-05
5.78006e-05
5.89827e-05
6.00352e-05
6.09252e-05
6.16604e-05
6.22503e-05
6.27041e-05
6.30268e-05
6.32307e-05
6.33218e-05
6.33124e-05
6.32138e-05
6.30306e-05
6.27694e-05
6.24538e-05
6.20997e-05
6.16974e-05
6.11918e-05
6.09071e-05
5.96598e-05
6.2261e-05
2.43598e-05
2.47548e-05
2.5361e-05
2.61008e-05
2.6985e-05
2.80185e-05
2.91778e-05
3.04355e-05
3.17711e-05
3.31664e-05
3.46032e-05
3.60626e-05
3.75415e-05
3.90317e-05
4.0523e-05
4.19676e-05
4.33382e-05
4.46168e-05
4.57935e-05
4.6839e-05
4.78012e-05
4.87227e-05
4.95466e-05
5.02449e-05
5.08268e-05
5.13019e-05
5.16808e-05
5.19662e-05
5.21678e-05
5.22926e-05
5.23499e-05
5.23488e-05
5.22905e-05
5.2182e-05
5.20413e-05
5.18823e-05
5.1692e-05
5.14194e-05
5.13703e-05
5.03886e-05
5.32156e-05
2.04652e-05
2.08181e-05
2.1351e-05
2.19895e-05
2.27451e-05
2.36223e-05
2.45985e-05
2.56511e-05
2.67631e-05
2.79192e-05
2.91043e-05
3.03033e-05
3.15065e-05
3.27146e-05
3.39246e-05
3.50947e-05
3.62007e-05
3.72271e-05
3.81669e-05
3.89972e-05
3.97613e-05
4.04991e-05
4.11626e-05
4.1733e-05
4.22156e-05
4.26209e-05
4.29574e-05
4.32303e-05
4.3444e-05
4.36061e-05
4.37228e-05
4.38035e-05
4.38454e-05
4.38557e-05
4.38474e-05
4.38332e-05
4.37972e-05
4.36937e-05
4.38058e-05
4.30233e-05
4.59403e-05
1.72219e-05
1.75424e-05
1.80109e-05
1.85681e-05
1.92192e-05
1.99671e-05
2.07949e-05
2.16828e-05
2.26152e-05
2.35797e-05
2.45633e-05
2.55545e-05
2.65418e-05
2.75308e-05
2.85162e-05
2.9471e-05
3.03722e-05
3.1206e-05
3.19673e-05
3.26389e-05
3.32581e-05
3.38633e-05
3.44126e-05
3.48928e-05
3.53087e-05
3.56711e-05
3.59839e-05
3.62532e-05
3.64826e-05
3.66785e-05
3.68442e-05
3.69873e-05
3.71041e-05
3.72003e-05
3.72848e-05
3.7368e-05
3.74346e-05
3.74427e-05
3.76523e-05
3.70143e-05
3.99062e-05
1.45101e-05
1.48039e-05
1.52222e-05
1.57098e-05
1.62739e-05
1.69173e-05
1.76252e-05
1.83799e-05
1.91681e-05
1.9979e-05
2.08014e-05
2.16266e-05
2.24441e-05
2.32592e-05
2.40669e-05
2.48534e-05
2.55953e-05
2.62819e-05
2.69072e-05
2.74609e-05
2.79737e-05
2.84805e-05
2.89459e-05
2.93604e-05
2.97272e-05
3.00571e-05
3.03531e-05
3.06189e-05
3.08579e-05
3.10752e-05
3.12728e-05
3.14555e-05
3.16202e-05
3.17707e-05
3.1914e-05
3.20569e-05
3.21868e-05
3.22648e-05
3.25264e-05
3.19983e-05
3.47769e-05
1.22388e-05
1.25103e-05
1.28833e-05
1.33147e-05
1.3808e-05
1.43662e-05
1.4976e-05
1.56224e-05
1.62934e-05
1.69803e-05
1.76738e-05
1.83662e-05
1.90492e-05
1.97247e-05
2.03926e-05
2.10456e-05
2.16632e-05
2.22352e-05
2.2757e-05
2.32209e-05
2.36552e-05
2.40877e-05
2.44911e-05
2.4857e-05
2.51889e-05
2.5494e-05
2.57767e-05
2.60387e-05
2.62828e-05
2.65118e-05
2.67282e-05
2.69347e-05
2.71289e-05
2.73117e-05
2.74895e-05
2.76666e-05
2.78329e-05
2.79517e-05
2.82321e-05
2.77915e-05
3.03853e-05
1.03305e-05
1.05832e-05
1.0919e-05
1.13025e-05
1.17378e-05
1.22252e-05
1.27545e-05
1.33118e-05
1.38873e-05
1.44735e-05
1.50625e-05
1.56483e-05
1.62243e-05
1.67893e-05
1.73453e-05
1.78917e-05
1.84094e-05
1.88896e-05
1.93294e-05
1.97217e-05
2.0091e-05
2.04616e-05
2.08119e-05
2.11343e-05
2.14331e-05
2.17135e-05
2.19787e-05
2.22306e-05
2.24711e-05
2.27018e-05
2.29236e-05
2.31382e-05
2.33429e-05
2.35382e-05
2.37285e-05
2.39164e-05
2.40932e-05
2.42275e-05
2.44996e-05
2.41248e-05
2.64761e-05
8.72648e-06
8.96145e-06
9.26411e-06
9.60788e-06
9.99379e-06
1.04225e-05
1.08845e-05
1.13685e-05
1.18657e-05
1.23693e-05
1.28734e-05
1.33725e-05
1.38621e-05
1.4339e-05
1.48073e-05
1.5268e-05
1.57066e-05
1.61144e-05
1.64896e-05
1.6827e-05
1.71477e-05
1.74706e-05
1.77802e-05
1.80693e-05
1.8341e-05
1.86006e-05
1.88506e-05
1.90911e-05
1.93234e-05
1.95478e-05
1.97655e-05
1.99761e-05
2.01782e-05
2.03711e-05
2.05584e-05
2.07406e-05
2.09117e-05
2.10438e-05
2.1289e-05
2.09699e-05
2.30259e-05
7.37452e-06
7.59382e-06
7.86781e-06
8.17627e-06
8.52012e-06
8.89874e-06
9.30422e-06
9.7275e-06
1.01601e-05
1.0596e-05
1.103e-05
1.14579e-05
1.18766e-05
1.22821e-05
1.26798e-05
1.30697e-05
1.34418e-05
1.3789e-05
1.41101e-05
1.44011e-05
1.46795e-05
1.49605e-05
1.5232e-05
1.54882e-05
1.57318e-05
1.59664e-05
1.6194e-05
1.64143e-05
1.66285e-05
1.68361e-05
1.70379e-05
1.72333e-05
1.74209e-05
1.75993e-05
1.77709e-05
1.79359e-05
1.80889e-05
1.82074e-05
1.8414e-05
1.81441e-05
1.98753e-05
6.23475e-06
6.43818e-06
6.68618e-06
6.96507e-06
7.27224e-06
7.60709e-06
7.96404e-06
8.33493e-06
8.71284e-06
9.09242e-06
9.46881e-06
9.83857e-06
1.01988e-05
1.05469e-05
1.08876e-05
1.12217e-05
1.15423e-05
1.18428e-05
1.21214e-05
1.23763e-05
1.26208e-05
1.28674e-05
1.31072e-05
1.33353e-05
1.3553e-05
1.37639e-05
1.39693e-05
1.41692e-05
1.43633e-05
1.45518e-05
1.47345e-05
1.49111e-05
1.50792e-05
1.52382e-05
1.53888e-05
1.55318e-05
1.56616e-05
1.5762e-05
1.59269e-05
1.5703e-05
1.70852e-05
5.27093e-06
5.45896e-06
5.6841e-06
5.93595e-06
6.21229e-06
6.51044e-06
6.82444e-06
7.14901e-06
7.47803e-06
7.80784e-06
8.13511e-06
8.45652e-06
8.76877e-06
9.06866e-06
9.35888e-06
9.64187e-06
9.91479e-06
1.01723e-05
1.04124e-05
1.06338e-05
1.08461e-05
1.10583e-05
1.12652e-05
1.14623e-05
1.16508e-05
1.18327e-05
1.20093e-05
1.21805e-05
1.2346e-05
1.25053e-05
1.26583e-05
1.28043e-05
1.29412e-05
1.30681e-05
1.31851e-05
1.32923e-05
1.33856e-05
1.34528e-05
1.35623e-05
1.33672e-05
1.43769e-05
4.45758e-06
4.62917e-06
4.83157e-06
5.05839e-06
5.30501e-06
5.5701e-06
5.84864e-06
6.1348e-06
6.42277e-06
6.70864e-06
6.99073e-06
7.26824e-06
7.54014e-06
7.80405e-06
8.05968e-06
8.30634e-06
8.54109e-06
8.76054e-06
8.96463e-06
9.15392e-06
9.33586e-06
9.51763e-06
9.69601e-06
9.86727e-06
1.00317e-05
1.01909e-05
1.0345e-05
1.04939e-05
1.06367e-05
1.07734e-05
1.09027e-05
1.10244e-05
1.11361e-05
1.12375e-05
1.13275e-05
1.14062e-05
1.14698e-05
1.15114e-05
1.15741e-05
1.14162e-05
1.20701e-05
3.77234e-06
3.9286e-06
4.10967e-06
4.30914e-06
4.52429e-06
4.75368e-06
4.99659e-06
5.24907e-06
5.50625e-06
5.7616e-06
6.0102e-06
6.24883e-06
6.47786e-06
6.69936e-06
6.91811e-06
7.1367e-06
7.35144e-06
7.55455e-06
7.74204e-06
7.91313e-06
8.07223e-06
8.22457e-06
8.36999e-06
8.50627e-06
8.63388e-06
8.75495e-06
8.86958e-06
8.97788e-06
9.07898e-06
9.17289e-06
9.25832e-06
9.33473e-06
9.40025e-06
9.45429e-06
9.49558e-06
9.52343e-06
9.53581e-06
9.52824e-06
9.52476e-06
9.37572e-06
9.63283e-06
3.19387e-06
3.33353e-06
3.49513e-06
3.67137e-06
3.85621e-06
4.0494e-06
4.25135e-06
4.46213e-06
4.68127e-06
4.907e-06
5.13567e-06
5.36054e-06
5.57354e-06
5.76708e-06
5.93933e-06
6.0958e-06
6.24577e-06
6.3922e-06
6.53535e-06
6.67359e-06
6.80739e-06
6.93915e-06
7.0675e-06
7.18924e-06
7.30369e-06
7.41132e-06
7.51211e-06
7.60554e-06
7.6909e-06
7.7673e-06
7.83401e-06
7.89008e-06
7.93447e-06
7.96595e-06
7.98374e-06
7.98685e-06
7.97399e-06
7.94427e-06
7.90217e-06
7.78534e-06
7.76056e-06
2.70096e-06
2.81942e-06
2.95783e-06
3.11116e-06
3.27483e-06
3.44671e-06
3.62328e-06
3.79995e-06
3.97429e-06
4.14678e-06
4.32172e-06
4.50552e-06
4.70381e-06
4.91789e-06
5.14356e-06
5.36569e-06
5.56465e-06
5.73447e-06
5.87755e-06
5.9996e-06
6.10463e-06
6.19499e-06
6.27533e-06
6.34462e-06
6.4039e-06
6.45427e-06
6.4963e-06
6.52978e-06
6.55437e-06
6.5693e-06
6.57389e-06
6.56714e-06
6.5481e-06
6.51562e-06
6.46899e-06
6.40684e-06
6.32969e-06
6.23619e-06
6.12464e-06
5.98677e-06
5.59218e-06
2.28928e-06
2.38293e-06
2.48622e-06
2.5998e-06
2.72638e-06
2.87242e-06
3.03886e-06
3.2206e-06
3.40647e-06
3.58196e-06
3.73268e-06
3.84864e-06
3.92793e-06
3.9775e-06
4.01197e-06
4.06222e-06
4.15196e-06
4.26731e-06
4.39324e-06
4.51925e-06
4.64057e-06
4.75636e-06
4.8642e-06
4.96126e-06
5.04603e-06
5.11801e-06
5.17701e-06
5.22235e-06
5.25363e-06
5.27022e-06
5.27176e-06
5.25739e-06
5.22675e-06
5.17918e-06
5.11408e-06
5.03108e-06
4.92955e-06
4.81649e-06
4.66645e-06
4.55699e-06
4.04957e-06
1.95926e-06
2.04401e-06
2.12288e-06
2.19284e-06
2.25752e-06
2.32666e-06
2.41058e-06
2.51953e-06
2.66422e-06
2.85314e-06
3.08972e-06
3.36932e-06
3.67924e-06
3.99984e-06
4.31269e-06
4.56702e-06
4.72702e-06
4.83314e-06
4.90533e-06
4.9547e-06
4.98313e-06
4.99394e-06
4.99278e-06
4.98056e-06
4.95784e-06
4.92538e-06
4.88305e-06
4.83105e-06
4.76886e-06
4.69624e-06
4.61251e-06
4.51758e-06
4.41124e-06
4.29399e-06
4.16698e-06
4.03122e-06
3.89274e-06
3.74944e-06
3.62771e-06
3.45659e-06
3.30873e-06
1.70051e-06
1.78933e-06
1.87582e-06
1.95028e-06
2.00419e-06
2.03569e-06
2.04723e-06
2.04505e-06
2.03954e-06
2.04175e-06
2.06059e-06
2.09982e-06
2.15605e-06
2.21966e-06
2.27361e-06
2.35163e-06
2.47079e-06
2.60905e-06
2.75628e-06
2.90247e-06
3.04314e-06
3.17518e-06
3.29607e-06
3.40393e-06
3.49573e-06
3.56978e-06
3.62429e-06
3.65794e-06
3.66885e-06
3.65567e-06
3.61662e-06
3.5504e-06
3.45549e-06
3.33075e-06
3.17413e-06
2.98578e-06
2.76024e-06
2.51778e-06
2.18409e-06
2.02759e-06
1.16372e-06
1.51099e-06
1.51919e-06
1.56222e-06
1.72288e-06
2.03349e-06
2.46019e-06
2.94236e-06
3.42657e-06
3.87442e-06
4.26151e-06
4.57486e-06
4.81038e-06
4.97153e-06
5.0651e-06
5.10969e-06
5.06079e-06
4.95482e-06
4.84983e-06
4.7595e-06
4.68418e-06
4.61807e-06
4.5822e-06
4.55661e-06
4.53945e-06
4.52665e-06
4.51434e-06
4.50003e-06
4.48111e-06
4.4563e-06
4.42428e-06
4.38542e-06
4.34084e-06
4.29408e-06
4.24992e-06
4.21835e-06
4.20955e-06
4.24591e-06
4.31637e-06
4.5649e-06
4.47161e-06
6.26874e-06
14.7131
13.3808
10.0116
5.05583
0.63593
0.100255
0.00692479
5.98387e-05
0.00158303
0.000192325
0.0380727
1.14776
1.64171
0.614703
1.12315
2.36745
3.29183
3.9482
4.42593
4.77087
5.00521
5.11396
5.06419
4.81057
4.30793
3.5351
2.51865
1.39118
0.451525
0.0408583
0.00131852
2.11161e-07
3.48971e-05
0.000251597
0.000256578
0.000206888
0.000196971
0.000213921
0.000234241
0.000246063
0.000248811
0.000246232
0.00024019
0.000230252
0.000216514
0.000198859
0.000177407
0.000154184
0.000130262
0.000106451
8.4272e-05
6.44687e-05
4.76459e-05
3.42853e-05
2.47371e-05
1.857e-05
1.7659e-05
1.86551e-05
2.05079e-05
2.21602e-05
2.31509e-05
2.38391e-05
2.38458e-05
2.35011e-05
2.30303e-05
2.20528e-05
2.13172e-05
2.01888e-05
1.91698e-05
1.80096e-05
1.70195e-05
1.58402e-05
1.4784e-05
1.38738e-05
16.5787
18.5597
15.1643
9.71428
3.03438
0.0729874
0.0280536
7.53503e-05
1.10307e-05
0.00210483
0.170073
1.27167
1.27659
0.639368
1.24019
1.91536
2.39223
2.74664
3.06414
3.37551
3.69344
3.99545
4.23896
4.3652
4.30399
3.99181
3.38199
2.4813
1.40638
0.463156
0.0425513
0.00171155
1.50442e-06
1.97638e-05
0.000250499
0.000262858
0.000207476
0.000196494
0.000211938
0.000227749
0.000233922
0.000232103
0.000225742
0.00021499
0.000200941
0.000183678
0.000162711
0.000140542
0.000118505
9.65577e-05
7.63034e-05
5.86137e-05
4.36139e-05
3.19882e-05
2.37039e-05
1.86143e-05
1.79042e-05
1.86226e-05
2.00955e-05
2.14374e-05
2.21812e-05
2.27403e-05
2.2684e-05
2.22624e-05
2.18267e-05
2.08637e-05
2.01713e-05
1.91198e-05
1.81465e-05
1.70321e-05
1.61237e-05
1.49884e-05
1.39964e-05
1.3117e-05
14.2739
19.8455
18.9961
14.6154
7.22108
0.971507
0.128694
0.0141166
6.29797e-07
0.00659954
0.283165
1.13583
0.890344
0.893738
1.40709
1.65136
1.67926
1.62036
1.59833
1.68879
1.93107
2.30022
2.73674
3.1671
3.50731
3.673
3.57951
3.16327
2.41269
1.41972
0.493237
0.0540916
0.00284361
8.60528e-07
1.86735e-06
0.000206969
0.000264042
0.000205525
0.000189214
0.000201252
0.000212526
0.000213894
0.000208003
0.000197126
0.000182984
0.000166572
0.00014689
0.000126339
0.000106579
8.70343e-05
6.91636e-05
5.38932e-05
4.10201e-05
3.12526e-05
2.42667e-05
2.0174e-05
1.91831e-05
1.92881e-05
2.01518e-05
2.09292e-05
2.14142e-05
2.15883e-05
2.14734e-05
2.10046e-05
2.04999e-05
1.96409e-05
1.88621e-05
1.79385e-05
1.70146e-05
1.59807e-05
1.51075e-05
1.40564e-05
1.31308e-05
1.22934e-05
11.9527
19.2419
20.929
18.5512
12.2288
3.86633
0.202923
0.0461424
0.000695302
0.0114734
0.338232
1.01426
0.765627
1.2171
1.83344
2.08677
2.06365
1.87632
1.59734
1.26423
0.949142
0.844503
1.13883
1.67314
2.25791
2.77565
3.12423
3.21163
2.96574
2.35535
1.45213
0.551108
0.0770094
0.00524711
7.94369e-05
1.0043e-05
0.000127158
0.000257746
0.000212519
0.000181993
0.000185429
0.000191953
0.000189518
0.00017962
0.000165837
0.000150327
0.000132211
0.000113586
9.6046e-05
7.88243e-05
6.33448e-05
5.02855e-05
3.93432e-05
3.10995e-05
2.50787e-05
2.16152e-05
2.02325e-05
1.97969e-05
2.00792e-05
2.0364e-05
2.05651e-05
2.04408e-05
2.02432e-05
1.97464e-05
1.91886e-05
1.84086e-05
1.75981e-05
1.67735e-05
1.59106e-05
1.49566e-05
1.41293e-05
1.31506e-05
1.23002e-05
1.15072e-05
10.4374
17.9733
21.2441
20.8814
16.7944
8.51697
1.40363
0.176312
0.00165126
0.015856
0.342424
0.908057
0.783595
1.47242
2.22942
2.64885
2.79335
2.76238
2.61221
2.35662
1.99236
1.5128
0.93571
0.402735
0.709949
1.41174
2.07231
2.57522
2.82633
2.74495
2.28372
1.49509
0.637296
0.115999
0.00160451
0.000745646
5.25632e-06
8.53829e-06
0.000180589
0.00021176
0.000176534
0.000167758
0.000167969
0.000161814
0.000149803
0.000135455
0.000118979
0.000102395
8.70009e-05
7.19642e-05
5.86748e-05
4.75345e-05
3.82045e-05
3.11162e-05
2.57562e-05
2.2648e-05
2.08626e-05
2.00093e-05
1.97645e-05
1.9684e-05
1.95789e-05
1.9293e-05
1.89998e-05
1.8475e-05
1.79114e-05
1.71711e-05
1.63993e-05
1.56473e-05
1.48522e-05
1.39705e-05
1.32092e-05
1.22874e-05
1.1518e-05
1.07705e-05
9.71417
16.536
20.4687
21.5347
19.8824
13.6929
4.73837
0.464873
0.0793367
0.0233083
0.311897
0.813308
0.859988
1.6393
2.49487
3.07464
3.39968
3.54817
3.57081
3.48208
3.27414
2.92992
2.44156
1.81394
1.07219
0.275932
0.604224
1.37112
2.00112
2.39972
2.478
2.18014
1.53323
0.74213
0.178442
0.00980195
0.0019761
3.34478e-07
9.77809e-06
0.000100845
0.000186657
0.000166568
0.000148352
0.000141655
0.00013351
0.000121715
0.000107194
9.26929e-05
7.9436e-05
6.6518e-05
5.5214e-05
4.57593e-05
3.77595e-05
3.15518e-05
2.66594e-05
2.36517e-05
2.14895e-05
2.02161e-05
1.94835e-05
1.90501e-05
1.86581e-05
1.82193e-05
1.78242e-05
1.72591e-05
1.66977e-05
1.5992e-05
1.52714e-05
1.45818e-05
1.38501e-05
1.30347e-05
1.23454e-05
1.1475e-05
1.0786e-05
1.00832e-05
9.54428
15.0636
19.0148
20.8122
21.0293
17.8728
9.73346
2.18776
0.262259
0.000760467
0.260041
0.733928
0.937985
1.69611
2.56331
3.24327
3.71036
4.0126
4.19278
4.26842
4.23308
4.06664
3.75182
3.27925
2.65492
1.90008
1.05669
0.180531
0.661612
1.3902
1.91544
2.14874
2.02487
1.54481
0.851173
0.265573
0.0307959
0.00434783
0.00014193
4.77063e-06
3.01695e-05
0.000146044
0.000156928
0.000131006
0.000117565
0.0001082
9.66076e-05
8.44476e-05
7.3325e-05
6.24497e-05
5.29411e-05
4.49558e-05
3.80558e-05
3.25079e-05
2.79381e-05
2.48576e-05
2.23523e-05
2.06292e-05
1.94332e-05
1.86091e-05
1.7939e-05
1.72993e-05
1.67847e-05
1.61629e-05
1.55824e-05
1.49117e-05
1.42263e-05
1.35924e-05
1.29168e-05
1.21622e-05
1.15406e-05
1.0719e-05
1.01084e-05
9.44651e-06
9.41106
13.4906
17.0389
19.0613
20.3054
19.9484
14.7911
6.08422
0.993727
0.0960734
0.186741
0.662386
0.983409
1.64724
2.42789
3.12422
3.67651
4.0945
4.4051
4.62628
4.75533
4.77329
4.65796
4.38984
3.96014
3.37208
2.64734
1.82013
0.938036
0.0788583
0.736341
1.36502
1.7434
1.79784
1.50229
0.941632
0.371478
0.0687521
0.00196168
0.000979071
2.9359e-06
8.09603e-06
7.22847e-05
0.000128272
0.000114172
9.77123e-05
8.69231e-05
7.73682e-05
6.85398e-05
5.9617e-05
5.17034e-05
4.49598e-05
3.89604e-05
3.38826e-05
2.95134e-05
2.62791e-05
2.34513e-05
2.12918e-05
1.96491e-05
1.84203e-05
1.74483e-05
1.6572e-05
1.59086e-05
1.52139e-05
1.45893e-05
1.39368e-05
1.32714e-05
1.26824e-05
1.2058e-05
1.13574e-05
1.07982e-05
1.00192e-05
9.48502e-06
8.85995e-06
8.66013
11.4824
14.403
16.4247
18.0702
19.4605
18.0536
11.2207
3.52621
0.424708
0.147269
0.570733
0.97966
1.51934
2.13293
2.75203
3.31765
3.80278
4.20862
4.54611
4.81524
5.00104
5.08107
5.03076
4.83115
4.47123
3.95486
3.29628
2.5213
1.66948
0.796582
0.077283
0.748242
1.25362
1.48049
1.38044
0.986512
0.480001
0.1254
0.010725
9.85457e-06
3.73072e-05
3.53688e-06
2.02884e-05
9.43051e-05
9.9437e-05
8.28826e-05
7.1969e-05
6.48267e-05
5.77929e-05
5.13191e-05
4.56034e-05
4.03131e-05
3.55631e-05
3.12948e-05
2.7885e-05
2.47544e-05
2.2195e-05
2.01271e-05
1.84991e-05
1.7201e-05
1.60662e-05
1.52204e-05
1.44283e-05
1.37347e-05
1.30743e-05
1.24138e-05
1.18547e-05
1.12746e-05
1.06202e-05
1.01178e-05
9.37432e-06
8.91413e-06
8.32117e-06
6.72859
8.55299
10.7713
12.7012
14.5626
16.6557
18.1655
15.3714
7.95792
1.89728
0.282312
0.469226
0.92369
1.34951
1.75948
2.21075
2.70449
3.19487
3.65164
4.06843
4.44243
4.76246
5.00934
5.15865
5.18686
5.07384
4.80996
4.39327
3.83107
3.14219
2.35854
1.52345
0.693858
0.0918021
0.68014
1.0636
1.16014
0.957952
0.562533
0.197718
0.0333481
0.000746261
0.000585772
8.30202e-07
5.22503e-06
4.21883e-05
7.96613e-05
7.23113e-05
6.33605e-05
5.69495e-05
5.1652e-05
4.67755e-05
4.2033e-05
3.74866e-05
3.32637e-05
2.96461e-05
2.62663e-05
2.33281e-05
2.08735e-05
1.88475e-05
1.72123e-05
1.58026e-05
1.47439e-05
1.38186e-05
1.30289e-05
1.23361e-05
1.16627e-05
1.11149e-05
1.05662e-05
9.94791e-06
9.4968e-06
8.78295e-06
8.39348e-06
7.82688e-06
3.70595
4.71637
6.15269
7.78346
9.71206
12.1252
14.8923
16.1089
12.3066
5.335
1.18206
0.548502
0.851255
1.17906
1.39697
1.62515