/*--------------------------------*- C++ -*----------------------------------*\
| =========                 |                                                 |
| \\      /  F ield         | OpenFOAM: The Open Source CFD Toolbox           |
|  \\    /   O peration     | Version:  2312                                  |
|   \\  /    A nd           | Website:  www.openfoam.com                      |
|    \\/     M anipulation  |                                                 |
\*---------------------------------------------------------------------------*/
FoamFile
{
    version     2.0;
    format      ascii;
    arch        "LSB;label=32;scalar=64";
    class       volVectorField;
    location    "250";
    object      momentError;
}
// * * * * * * * * * * * * * * * * * * * * * * * * * * * * * * * * * * * * * //

dimensions      [0 1 -2 0 0 0 0];

internalField   nonuniform List<vector> 
11040
(
(-13.9632 50.2003 -3.03364e-15)
(-0.39134 46.1309 2.39301e-15)
(0.37175 -3.02365 7.41352e-15)
(-0.573082 -0.19517 -4.64589e-16)
(-0.402654 -1.5521 6.48417e-15)
(0.581466 -0.623489 -4.15237e-15)
(0.964505 -0.451702 -9.76542e-15)
(1.25376 -0.296642 -1.90072e-15)
(1.46878 -0.20284 -6.33793e-16)
(1.6559 -0.127104 3.48113e-15)
(1.75251 -0.0857017 1.65525e-15)
(1.79488 -0.0778282 -9.44072e-16)
(1.73342 -0.0926733 -1.51798e-15)
(1.60219 -0.124896 1.0769e-15)
(1.48706 -0.148941 -5.93297e-16)
(1.18662 -0.171935 -1.49095e-15)
(0.846364 -0.150994 1.08925e-15)
(0.335016 -0.101821 1.12901e-15)
(-0.261635 -0.0231572 -3.68034e-16)
(-1.09202 0.0710997 -9.64765e-17)
(-2.02605 0.207518 8.83686e-16)
(-3.22724 0.367952 -4.50433e-16)
(-4.6667 0.492373 3.9403e-16)
(-5.96513 0.640445 2.7272e-16)
(-6.92153 0.774964 -2.4998e-15)
(-7.54017 0.872535 -2.0071e-15)
(-7.5999 0.897956 -1.00545e-15)
(-7.58062 0.837127 -8.46568e-16)
(-6.99406 0.651437 -2.63501e-15)
(-6.47231 0.423236 1.37599e-15)
(-5.33997 0.223832 2.91669e-15)
(-4.02591 -0.0182473 6.79379e-15)
(-1.98475 -0.33935 8.10516e-15)
(0.413869 -0.709097 -6.52429e-16)
(0.836735 -0.76779 4.58061e-15)
(0.519769 -0.860903 2.17582e-15)
(0.390552 -1.23468 3.02522e-15)
(-0.588744 -2.60715 -1.29535e-15)
(-5.23175 -2.47547 -4.93366e-15)
(-5.51895 -0.891837 -6.33205e-16)
(3.65107 1.94825 -5.98406e-16)
(8.42384 7.82181 1.48456e-15)
(31.5218 82.8553 5.43389e-15)
(20.579 41.2359 1.23427e-14)
(7.88996 5.14 -6.56715e-16)
(-0.502734 -1.71522 -1.20064e-15)
(0.105244 -0.847079 -3.15642e-16)
(1.13676 -0.123354 3.2342e-15)
(1.46254 -0.0609548 1.54893e-15)
(1.69315 -0.0192172 -1.66766e-16)
(1.91915 -0.00125384 -1.32287e-15)
(2.0147 0.0343038 2.8616e-15)
(2.00656 -0.00176659 2.04019e-15)
(1.90384 -0.0802696 2.01391e-15)
(1.6342 -0.164897 1.24878e-17)
(1.12513 -0.283372 -3.63697e-16)
(0.556 -0.371943 5.73185e-16)
(-0.168344 -0.426414 5.21862e-16)
(-1.0899 -0.416006 7.18954e-16)
(-2.2668 -0.343933 -1.10818e-17)
(-3.62512 -0.21177 -1.57321e-16)
(-5.04208 0.0199974 -3.33624e-16)
(-6.50842 0.238281 6.69759e-16)
(-7.77969 0.436935 3.4059e-16)
(-8.72812 0.689976 6.88065e-16)
(-9.09599 0.906257 -7.489e-16)
(-8.81303 1.01647 -1.62967e-15)
(-7.97843 1.08886 1.50687e-15)
(-6.58031 1.00295 1.39176e-15)
(-4.78038 0.802884 -1.68835e-15)
(-2.42237 0.447653 -2.51616e-15)
(0.0325722 0.155697 -3.22959e-15)
(2.15959 -0.148864 -5.28509e-15)
(3.51066 -0.287577 -1.50133e-15)
(4.12107 -0.367361 2.25815e-15)
(5.50683 -0.568101 -2.41447e-15)
(6.0406 -0.562 2.66898e-16)
(6.23519 -0.29881 -1.40727e-16)
(5.65951 -0.0195271 6.23271e-16)
(2.30074 0.486062 3.73422e-16)
(0.627724 -0.0150491 -4.26244e-16)
(5.50944 0.503989 1.98329e-16)
(5.00714 3.29476 2.12222e-16)
(33.2328 11.9854 -2.4247e-15)
(43.4808 73.5138 -1.81251e-14)
(32.3022 49.8887 4.76184e-15)
(9.84336 8.25572 1.31441e-15)
(1.02436 -0.909356 2.2227e-15)
(1.0517 -0.838073 2.99455e-15)
(1.64291 -0.154429 3.3071e-16)
(1.82215 -0.0493627 -8.71368e-16)
(1.99879 -0.0494709 -1.42406e-16)
(2.01208 0.0925823 -2.39659e-15)
(1.90507 0.173146 9.08664e-16)
(1.70936 0.165411 -1.40084e-17)
(1.33888 0.145419 3.94599e-16)
(0.809561 0.0561604 1.18427e-15)
(0.145457 -0.0339779 1.45336e-17)
(-0.652636 -0.125538 -3.9945e-16)
(-1.62618 -0.182276 -7.76162e-17)
(-2.77042 -0.194018 1.79908e-17)
(-3.94612 -0.123167 2.34911e-16)
(-4.98735 0.0340209 4.57033e-16)
(-5.87744 0.153929 -1.73517e-16)
(-6.34136 0.167037 3.00408e-16)
(-6.3322 0.220959 -6.0117e-16)
(-5.78361 0.237218 5.45879e-16)
(-4.95848 0.226921 1.68434e-15)
(-3.77137 0.198736 -8.33739e-16)
(-2.32004 0.0736837 -1.00696e-15)
(-0.701885 -0.0936671 2.47523e-16)
(1.06113 -0.402472 2.05349e-15)
(2.83566 -0.67004 -7.30545e-16)
(4.70006 -0.976348 -2.51583e-16)
(6.58175 -1.18129 2.13834e-15)
(8.53547 -1.42296 6.4499e-16)
(10.3038 -1.59901 -1.92553e-15)
(11.6017 -1.56043 -3.70827e-15)
(12.6097 -1.21562 4.43253e-16)
(12.681 -0.7895 1.60091e-15)
(10.2784 -0.606256 6.87757e-17)
(10.2475 -0.440158 1.40953e-15)
(15.8677 -2.58391 -4.48192e-17)
(5.17159 12.1964 -2.62894e-16)
(20.2543 0.141415 -4.0928e-16)
(32.5004 10.4345 4.31756e-15)
(45.7183 58.5364 -1.38156e-16)
(36.3617 49.2974 -1.96464e-15)
(12.5287 11.1219 2.54519e-15)
(1.79035 -0.579068 -5.48957e-16)
(2.19728 -0.531713 3.37661e-16)
(1.97668 -0.296707 -4.70296e-16)
(2.30877 -0.162021 9.89701e-16)
(2.23558 -0.0417857 1.31294e-15)
(2.04662 0.140633 -1.45814e-15)
(1.80296 0.21684 1.27299e-15)
(1.38498 0.317095 7.5774e-16)
(0.844706 0.321292 2.20183e-16)
(0.231404 0.31806 -6.58884e-16)
(-0.443153 0.289669 -6.54682e-16)
(-1.1709 0.237736 -3.4875e-16)
(-1.96324 0.195103 6.24193e-17)
(-2.69856 0.19488 -8.03608e-17)
(-3.26985 0.243259 -7.6062e-17)
(-3.66576 0.229569 -1.43144e-16)
(-3.77787 0.0644792 -3.19459e-16)
(-3.64065 -0.0963642 -6.9385e-17)
(-3.22008 -0.268282 -1.91867e-15)
(-2.54923 -0.409076 -7.64193e-16)
(-1.60707 -0.502834 9.04875e-16)
(-0.385966 -0.668742 5.70383e-16)
(1.13859 -0.825317 1.75172e-15)
(3.01506 -1.14274 -1.11748e-15)
(5.17086 -1.45465 1.48391e-15)
(7.50449 -1.83251 -2.19133e-15)
(9.85996 -2.10471 -2.35087e-15)
(12.3037 -2.41103 4.28229e-16)
(14.6385 -2.60325 -4.07505e-16)
(16.6698 -2.57189 -9.0394e-17)
(18.5309 -2.2505 -6.91812e-16)
(19.5395 -1.8921 4.45555e-16)
(18.4703 -1.82827 -2.41323e-16)
(20.5813 -1.13849 -1.41557e-16)
(28.4864 -5.96668 1.00524e-15)
(6.09934 8.41364 2.61161e-16)
(15.0651 7.01055 -1.5808e-16)
(21.2599 -9.52199 -8.99016e-16)
(30.8589 6.71345 9.88353e-16)
(43.7685 47.4088 1.27206e-16)
(39.1373 48.3178 5.20569e-16)
(16.5091 17.2436 -7.22144e-16)
(3.75594 -1.14512 -1.16278e-15)
(2.5864 -0.619219 5.95334e-16)
(2.50408 -0.553267 -4.69383e-17)
(2.6906 -0.0199678 6.30847e-16)
(2.51231 0.21876 2.81241e-16)
(2.23152 0.266579 -6.62509e-16)
(1.84371 0.44416 -9.75025e-16)
(1.36641 0.477237 2.66218e-16)
(0.86503 0.513271 2.05242e-17)
(0.33809 0.516396 -2.70054e-16)
(-0.194237 0.465527 -4.06414e-16)
(-0.770006 0.388976 -6.3738e-17)
(-1.31243 0.333084 6.96033e-17)
(-1.7702 0.303378 2.13214e-16)
(-2.12704 0.201089 -4.99042e-16)
(-2.32635 -0.0441081 -1.28338e-16)
(-2.36193 -0.284177 8.57913e-16)
(-2.10589 -0.494648 7.02409e-16)
(-1.541 -0.713676 -7.30065e-16)
(-0.620657 -0.884032 6.22483e-16)
(0.701757 -1.14001 7.41701e-16)
(2.46056 -1.3954 -9.28875e-16)
(4.66388 -1.81025 5.33748e-16)
(7.20447 -2.22698 -3.03973e-16)
(9.91065 -2.68101 2.44448e-15)
(12.5826 -3.0028 1.50935e-15)
(15.3745 -3.31971 3.33522e-16)
(18.2606 -3.52629 6.8523e-16)
(20.952 -3.48847 4.48675e-16)
(23.6011 -3.20136 -3.3342e-16)
(25.5682 -3.00439 3.62676e-16)
(26.1443 -3.19869 -1.98884e-16)
(30.4734 -2.60312 -3.14623e-16)
(40.8889 -8.57876 -1.93929e-16)
(6.44834 6.09296 -2.11296e-16)
(9.70507 7.14661 3.70945e-16)
(15.2846 0.758245 1.19784e-15)
(19.2094 -11.5499 6.28303e-16)
(27.3755 0.995371 -1.97536e-15)
(39.804 35.3679 -1.86521e-16)
(40.7861 46.2419 -9.78836e-16)
(23.9859 23.5652 -1.53378e-15)
(6.87638 1.45543 -1.45869e-16)
(2.99007 -0.93245 -9.80405e-16)
(3.07273 -0.310003 5.22741e-16)
(2.92155 0.208013 4.61025e-17)
(2.81247 0.459841 -2.60586e-16)
(2.49319 0.65045 -4.99689e-16)
(2.06655 0.672699 9.25524e-17)
(1.66209 0.712581 -3.26764e-16)
(1.21356 0.709955 -1.17693e-16)
(0.744012 0.639521 -1.67036e-16)
(0.209017 0.528429 -6.4999e-17)
(-0.348418 0.431564 8.37491e-17)
(-0.888903 0.355728 1.08658e-16)
(-1.35668 0.211219 5.84177e-17)
(-1.69074 -0.0703254 4.30907e-17)
(-1.84498 -0.383281 -3.96159e-16)
(-1.65454 -0.680722 2.75526e-16)
(-1.06746 -0.998047 1.16689e-15)
(-0.0338735 -1.28128 -9.03734e-16)
(1.46459 -1.65142 -1.28577e-15)
(3.45671 -2.0427 -3.24429e-16)
(5.9409 -2.56934 4.94762e-16)
(8.80517 -3.10104 9.87524e-16)
(11.8477 -3.62182 -7.22985e-16)
(14.81 -3.97941 -1.2483e-15)
(17.8426 -4.27054 -1.09211e-15)
(21.2811 -4.48865 9.64725e-18)
(24.6044 -4.44732 1.14695e-15)
(27.9607 -4.22126 5.73919e-16)
(30.7971 -4.26135 2.44622e-16)
(33.028 -4.81522 8.62862e-16)
(39.0549 -4.92811 -5.24952e-16)
(50.1459 -11.7919 -3.20445e-16)
(6.32771 5.11637 5.13118e-17)
(7.40224 4.2686 2.58914e-17)
(10.6791 4.62859 -3.40701e-16)
(14.3721 -2.17987 -1.28237e-15)
(16.8405 -12.6495 -5.24957e-16)
(22.7335 -5.43831 5.68165e-16)
(34.1426 22.5211 5.92613e-16)
(41.3103 41.5637 -3.51176e-17)
(30.6914 28.4561 1.38017e-15)
(13.1468 8.07498 -1.51497e-16)
(3.57763 -1.46792 1.37829e-17)
(3.24519 -0.240595 -3.71884e-16)
(3.11703 0.366728 1.28745e-15)
(3.07934 0.86805 -1.1115e-15)
(2.78755 0.954346 2.07689e-16)
(2.43816 0.926426 -2.88939e-16)
(2.01169 0.898123 -8.67424e-17)
(1.55118 0.814926 1.54767e-16)
(1.0006 0.683442 -2.55849e-17)
(0.378547 0.56168 -2.44201e-16)
(-0.277251 0.453901 2.64953e-16)
(-0.868194 0.281732 -2.52305e-16)
(-1.32367 -0.0398841 -1.93157e-16)
(-1.57219 -0.439307 3.9219e-16)
(-1.43884 -0.862611 -3.21134e-16)
(-0.843589 -1.31594 -3.52208e-16)
(0.272322 -1.75091 -1.64871e-16)
(1.91379 -2.24639 -2.69352e-16)
(4.08892 -2.77797 -1.03589e-16)
(6.80027 -3.43288 3.99393e-16)
(9.95713 -4.0999 3.73147e-16)
(13.3149 -4.70039 4.8987e-16)
(16.578 -5.09028 -5.61641e-16)
(19.7421 -5.31808 -1.3414e-15)
(23.7403 -5.55312 -3.24672e-16)
(27.7087 -5.53773 1.40159e-15)
(31.713 -5.43858 -1.01638e-16)
(35.2938 -5.7723 -8.53524e-17)
(38.9608 -6.70548 3.03302e-16)
(45.8911 -7.77871 3.8604e-16)
(56.4715 -15.059 -2.68349e-16)
(5.7379 4.12283 2.336e-18)
(6.52598 3.21357 -5.16934e-17)
(7.67798 2.82756 -1.69185e-16)
(10.5178 2.5134 3.05806e-16)
(12.8941 -3.15772 4.75533e-16)
(14.1735 -12.3102 1.16668e-15)
(17.6539 -10.5166 -1.07789e-15)
(27.4168 10.0368 -1.38311e-15)
(37.3729 31.2411 5.61763e-16)
(34.9308 30.2549 6.49602e-16)
(20.6973 15.0348 1.91503e-15)
(6.47937 1.20882 -1.39466e-15)
(3.19975 -0.237788 5.25905e-16)
(3.27661 0.551733 -3.53034e-16)
(3.19246 0.998032 -7.3941e-16)
(3.07456 1.12365 8.04651e-16)
(2.78041 1.13506 8.72873e-17)
(2.33054 1.01667 5.57586e-16)
(1.75628 0.871579 -3.50237e-16)
(1.08169 0.747403 -3.65196e-16)
(0.325305 0.622216 4.45989e-16)
(-0.382457 0.434652 -1.38821e-16)
(-0.965841 0.0740906 -3.52616e-16)
(-1.33049 -0.421278 6.91262e-17)
(-1.30253 -0.994194 1.85638e-16)
(-0.782626 -1.62114 -2.21362e-16)
(0.30469 -2.25474 -3.41244e-16)
(1.99026 -2.92604 6.88035e-16)
(4.28345 -3.64073 7.23894e-16)
(7.18931 -4.45196 -3.73041e-16)
(10.6004 -5.27311 -7.13305e-16)
(14.2558 -5.97957 -2.08344e-16)
(17.8381 -6.41935 5.88475e-16)
(21.1258 -6.54008 5.74104e-16)
(25.5299 -6.78444 -7.21216e-17)
(30.1532 -6.82676 -5.66782e-16)
(34.8082 -6.89018 4.58789e-16)
(39.0577 -7.49216 -4.3974e-16)
(43.8452 -8.76588 1.58492e-16)
(50.8392 -10.8106 1.887e-16)
(59.8079 -18.223 2.77905e-16)
(5.05503 3.20797 -3.82877e-17)
(5.79619 2.59989 -2.71068e-17)
(5.84688 1.69184 9.77195e-17)
(7.71154 1.76418 2.01139e-16)
(9.7472 1.21065 6.57318e-17)
(11.2828 -2.98592 -2.5083e-17)
(11.6716 -10.8793 -4.19804e-16)
(13.0717 -13.2567 1.01779e-15)
(19.672 -1.1554 -5.54769e-16)
(29.7439 18.3637 1.3247e-15)
(34.2264 27.4651 -2.63638e-16)
(25.8544 19.3909 -9.41852e-16)
(12.9137 7.57361 3.78118e-16)
(3.98929 -0.027243 -4.16465e-16)
(3.04474 0.397241 -7.27736e-16)
(3.23682 0.921615 2.25179e-16)
(3.25739 1.23067 3.06987e-16)
(3.01014 1.24874 5.26609e-16)
(2.50326 1.12423 -5.4461e-17)
(1.79422 0.973545 -4.65228e-16)
(0.959782 0.830759 4.67454e-16)
(0.160579 0.644261 -2.17952e-17)
(-0.545196 0.264254 -5.72961e-17)
(-1.04748 -0.31311 2.05768e-16)
(-1.17991 -1.02942 1.89354e-16)
(-0.825624 -1.84989 4.44191e-16)
(0.120212 -2.71416 1.04966e-16)
(1.70893 -3.62757 -6.43055e-17)
(3.98014 -4.58138 -2.91539e-16)
(6.95802 -5.61432 -3.62102e-17)
(10.5305 -6.65212 -3.11289e-16)
(14.4576 -7.53649 1.02538e-16)
(18.3583 -8.05455 -3.51745e-16)
(21.9237 -8.09766 -2.37778e-16)
(26.3223 -8.24179 -2.73922e-17)
(31.5321 -8.36257 5.49e-16)
(36.8386 -8.60831 1.0003e-16)
(41.7901 -9.36594 -9.53643e-17)
(47.4404 -10.9467 -1.69428e-16)
(53.9837 -13.7995 3.07679e-16)
(60.8119 -20.7119 8.10855e-17)
(4.34688 2.4151 9.11541e-17)
(5.04279 1.97991 -8.37567e-18)
(4.87468 1.30185 9.50997e-18)
(5.8394 0.984501 -1.04504e-16)
(7.33211 0.751588 -4.40466e-16)
(8.80656 0.279629 2.57387e-16)
(9.80864 -2.51505 1.11515e-15)
(9.6766 -8.65213 -1.74437e-15)
(9.59528 -13.1673 -3.84755e-16)
(12.8447 -8.19252 2.81794e-15)
(20.9736 6.44818 1.11242e-16)
(28.1599 19.3992 -2.42433e-16)
(27.2729 20.5069 -1.1506e-15)
(18.1999 12.4287 6.726e-16)
(8.63604 4.25164 -1.36034e-15)
(3.20542 0.0461263 3.08646e-16)
(2.94052 0.626776 -6.39464e-17)
(3.16372 1.12489 5.14587e-16)
(3.00763 1.29967 -2.2661e-16)
(2.4822 1.27074 -4.43849e-16)
(1.67091 1.12511 2.75949e-16)
(0.819326 0.921245 -3.32152e-17)
(0.00445006 0.529352 -2.11618e-16)
(-0.646737 -0.0987156 2.56153e-16)
(-0.989216 -0.935579 2.25727e-16)
(-0.883904 -1.9323 -2.63919e-16)
(-0.192305 -3.04413 2.32671e-16)
(1.1674 -4.22591 1.91326e-16)
(3.23947 -5.4665 1.19054e-16)
(6.06501 -6.78273 -1.96744e-16)
(9.58323 -8.09415 1.71351e-16)
(13.5862 -9.2218 2.59397e-16)
(17.6972 -9.8791 1.27098e-16)
(21.5925 -9.97766 1.80796e-16)
(25.5537 -9.84875 2.80341e-16)
(31.0532 -10.114 -4.20082e-16)
(36.8828 -10.5582 1.34792e-16)
(42.5484 -11.4149 1.31508e-16)
(48.8918 -13.1898 1.54566e-16)
(55.0965 -16.3074 1.06522e-17)
(60.375 -21.9233 -1.41039e-16)
(3.66653 1.74356 9.60245e-18)
(4.28894 1.45422 3.02556e-17)
(4.22374 0.966744 2.76139e-17)
(4.55444 0.63886 -1.2856e-16)
(5.56623 0.315064 2.09765e-17)
(6.72639 -0.0129265 5.57396e-16)
(7.81539 -0.380572 6.35734e-17)
(8.50969 -2.02794 -8.48678e-16)
(8.26197 -6.20441 7.12281e-16)
(7.4515 -10.878 -1.03273e-15)
(8.36851 -10.7195 -2.05923e-15)
(13.2984 -2.43863 -4.13441e-16)
(20.6049 9.7155 6.0406e-16)
(24.6767 17.075 -8.759e-16)
(21.3457 15.0998 -7.26918e-16)
(13.725 8.67053 9.19673e-16)
(6.79832 2.9348 6.82082e-17)
(3.30378 0.542476 9.26486e-16)
(2.64065 0.652997 -1.59482e-16)
(2.70815 1.24173 -6.05537e-16)
(2.26544 1.38011 9.44945e-17)
(1.58536 1.31434 -8.38338e-17)
(0.762862 0.952372 -1.76125e-17)
(-0.0182225 0.268352 -1.87077e-16)
(-0.588768 -0.666249 4.35615e-16)
(-0.803086 -1.82232 -8.02217e-17)
(-0.466323 -3.16094 -2.37122e-16)
(0.534808 -4.60744 1.6137e-16)
(2.22847 -6.12189 -1.56506e-16)
(4.65788 -7.70063 1.19043e-16)
(7.80064 -9.27631 -3.26634e-16)
(11.4964 -10.6369 -1.19382e-17)
(15.4586 -11.533 2.82244e-16)
(19.3332 -11.7537 5.18568e-16)
(22.9707 -11.4433 1.64113e-16)
(27.7722 -11.7403 -3.40546e-16)
(33.6783 -12.4795 -1.99006e-16)
(39.7534 -13.4865 -3.04214e-16)
(46.4733 -15.3358 -5.40267e-16)
(52.6202 -18.1146 -4.8007e-16)
(57.3686 -22.1945 -1.76788e-16)
(3.03393 1.2002 7.78983e-17)
(3.57517 0.993892 3.51128e-18)
(3.58846 0.66572 1.41847e-17)
(3.79088 0.400999 -4.03278e-17)
(4.22966 0.123575 2.98495e-18)
(5.12914 -0.200881 1.19147e-16)
(6.02749 -0.56519 -3.59672e-16)
(6.85093 -0.875141 1.84212e-16)
(7.39674 -1.7488 2.13863e-15)
(7.26939 -4.19836 -7.92943e-16)
(6.43047 -7.87767 -1.70062e-15)
(6.08601 -10.0047 1.98263e-15)
(8.33305 -7.13644 9.17258e-16)
(13.7304 1.02775 -4.72002e-17)
(19.5223 10.1168 3.62763e-16)
(21.4375 14.2908 -6.54326e-16)
(17.847 12.0481 -1.62276e-16)
(11.4001 6.98963 6.35171e-16)
(5.87416 2.73165 4.99604e-16)
(3.16301 1.00107 -9.92918e-16)
(2.33342 0.997125 2.03328e-16)
(1.91577 1.28627 -1.56962e-16)
(1.43319 1.3219 -6.49905e-17)
(0.76618 0.877837 -1.06214e-16)
(0.130571 0.0151001 2.73136e-16)
(-0.347294 -1.25849 2.58972e-16)
(-0.402523 -2.85717 -3.21414e-16)
(0.139528 -4.60939 -1.78783e-16)
(1.31221 -6.39938 1.45476e-16)
(3.12216 -8.21688 -2.05066e-16)
(5.5999 -10.0079 7.44159e-17)
(8.65074 -11.5925 1.24603e-16)
(12.0491 -12.7233 3.58414e-17)
(15.4747 -13.1352 -1.47914e-16)
(18.8205 -13.0352 -2.70027e-16)
(22.3791 -12.9879 1.60374e-17)
(27.3905 -13.9005 1.08507e-16)
(33.0376 -14.9721 2.61734e-16)
(39.3799 -16.7086 -6.13655e-17)
(45.1508 -18.8712 -1.11242e-16)
(49.772 -21.6257 6.07848e-17)
(2.47264 0.772419 -2.65485e-17)
(2.93131 0.616225 3.87722e-19)
(2.98792 0.393443 2.74807e-17)
(3.20034 0.188967 9.93016e-18)
(3.4049 -0.0367523 3.19857e-18)
(3.93471 -0.284276 -1.02124e-16)
(4.63862 -0.609592 -4.50077e-16)
(5.33353 -0.969896 -6.33014e-16)
(5.97028 -1.26475 1.95739e-16)
(6.45034 -1.71355 -5.63771e-16)
(6.51344 -2.92112 8.40039e-16)
(5.9586 -5.21326 1.57053e-16)
(5.27528 -7.73506 -4.97014e-16)
(5.7785 -8.25171 -4.57763e-16)
(8.66604 -4.85542 5.13413e-16)
(13.7985 2.30079 7.44395e-16)
(18.4645 9.40183 -2.52452e-15)
(19.5056 12.4167 2.02472e-15)
(16.0927 10.8448 2.80725e-16)
(10.3084 7.01507 -8.32731e-16)
(5.17065 3.4738 4.27423e-16)
(2.65786 1.74618 -1.59974e-16)
(1.83904 1.21002 -2.03011e-16)
(1.24468 0.761197 -9.92325e-17)
(0.625485 0.230717 5.54803e-16)
(0.181155 -0.457753 -6.09882e-17)
(-0.00270985 -1.7131 -3.5116e-17)
(0.256263 -3.45404 -4.20355e-16)
(0.956184 -5.41376 2.20989e-16)
(2.0809 -7.46927 5.74348e-16)
(3.71932 -9.53006 -1.24102e-16)
(5.91766 -11.4137 -3.03162e-16)
(8.52928 -12.827 1.66756e-16)
(11.3379 -13.608 -1.38289e-16)
(14.1536 -13.7709 -3.41451e-16)
(17.0095 -13.5531 1.85451e-16)
(20.755 -13.9982 -6.8787e-17)
(25.6515 -14.9568 -2.22923e-16)
(31.2803 -16.3546 6.13354e-17)
(36.239 -17.6904 2.06845e-16)
(39.9419 -18.9661 -5.52003e-18)
(1.98488 0.445131 3.55977e-17)
(2.3659 0.318881 -2.98979e-17)
(2.44108 0.162809 2.68693e-17)
(2.64713 0.00458638 4.01953e-17)
(2.8291 -0.176676 -1.67061e-16)
(3.06567 -0.368841 2.11845e-16)
(3.56519 -0.604311 5.62613e-16)
(4.12588 -0.913899 3.42139e-16)
(4.66894 -1.25808 5.51848e-17)
(5.18247 -1.56063 -1.26785e-15)
(5.62212 -1.83762 -5.6097e-16)
(5.82227 -2.34915 -1.0019e-16)
(5.63585 -3.51127 -9.65034e-16)
(5.12001 -5.38745 7.85742e-16)
(4.86739 -7.12616 2.60559e-15)
(5.90517 -7.10647 -1.43319e-15)
(9.06296 -3.93563 -2.88526e-16)
(13.9721 2.19808 5.52593e-16)
(18.3741 8.36032 -5.85561e-16)
(19.7298 11.6521 1.59232e-15)
(17.0544 11.4888 -3.30893e-16)
(12.62 9.70941 -8.22468e-16)
(7.18972 6.43261 -9.97962e-16)
(3.14689 2.95802 5.61181e-16)
(1.2529 0.471515 6.94633e-16)
(0.242855 -1.36353 9.62509e-18)
(-0.397314 -3.07151 6.31156e-17)
(-0.367388 -4.48499 -7.79032e-18)
(0.277633 -5.4966 7.71449e-17)
(1.26559 -6.30838 2.0264e-16)
(2.40664 -7.31092 3.43103e-16)
(3.93395 -8.68659 -4.49364e-16)
(5.93212 -10.0077 5.52288e-17)
(8.26898 -10.8328 -1.22579e-16)
(10.7922 -11.1703 -1.3587e-16)
(13.4739 -11.2192 1.12343e-16)
(16.42 -11.29 2.06443e-16)
(20.4277 -12.2848 -1.35212e-16)
(25.1759 -13.9271 -6.73553e-17)
(29.6331 -14.9818 -1.24722e-16)
(32.2074 -15.2471 1.10008e-16)
(1.57076 0.204141 -2.79149e-17)
(1.87914 0.0954729 3.5039e-17)
(1.95844 -0.0173752 -3.62937e-17)
(2.14384 -0.145927 6.00811e-17)
(2.31527 -0.292547 -2.96539e-17)
(2.47471 -0.442347 -4.11091e-17)
(2.72513 -0.623025 2.20947e-16)
(3.17001 -0.859035 -2.1136e-16)
(3.61565 -1.14893 4.41531e-16)
(4.05129 -1.47004 4.29521e-16)
(4.47273 -1.77802 -1.05207e-15)
(4.84978 -2.02219 1.70872e-15)
(5.14283 -2.27309 1.46891e-15)
(5.239 -2.76619 -1.54111e-15)
(5.05967 -3.80394 -8.68569e-16)
(4.745 -5.39737 -6.64743e-16)
(4.83422 -6.85661 1.49653e-15)
(6.21107 -6.93354 -1.47003e-15)
(9.58934 -4.55505 3.78936e-16)
(14.9017 0.478371 6.51854e-16)
(20.4327 6.33744 -4.34977e-16)
(25.2784 11.3606 -5.44477e-16)
(26.3133 13.9229 1.85744e-16)
(24.7673 14.2997 3.22928e-16)
(20.9413 11.8673 -5.22422e-16)
(15.33 6.67687 2.08202e-16)
(9.96746 0.531808 4.42263e-16)
(6.5045 -4.749 -1.03636e-15)
(4.88254 -8.58864 3.86432e-16)
(4.3529 -11.3188 3.16187e-16)
(4.61388 -13.3413 -1.375e-16)
(5.70346 -14.8261 -2.86329e-16)
(7.63533 -15.7757 -7.36044e-17)
(10.1909 -16.1223 5.87734e-16)
(13.1235 -15.9872 9.93345e-17)
(16.0329 -15.4148 -8.06245e-17)
(18.5019 -14.4633 -1.28542e-16)
(21.1957 -14.2242 -5.46872e-17)
(24.0761 -14.8802 -2.52606e-16)
(26.3233 -13.5471 2.06434e-17)
(26.7503 -11.2736 1.70597e-16)
(1.22474 0.0360005 -1.15074e-17)
(1.46918 -0.0622113 -4.82597e-18)
(1.54216 -0.147159 4.09103e-18)
(1.69952 -0.255865 -5.84494e-18)
(1.85062 -0.378868 -6.51814e-17)
(1.99429 -0.506762 -3.24988e-16)
(2.13993 -0.64111 -1.03094e-17)
(2.41386 -0.831962 3.85577e-16)
(2.76606 -1.06747 -1.93415e-16)
(3.12234 -1.33759 -2.12763e-17)
(3.47151 -1.6359 -6.58096e-16)
(3.79881 -1.93735 6.20676e-16)
(4.12304 -2.20997 -3.73795e-16)
(4.4314 -2.433 -1.39863e-15)
(4.67374 -2.6808 1.87582e-15)
(4.76985 -3.16589 7.0061e-16)
(4.67407 -4.1495 3.65766e-16)
(4.51813 -5.68057 -1.69741e-17)
(4.76635 -7.32644 -3.48483e-16)
(6.20557 -8.25152 -2.78802e-16)
(9.64817 -7.45587 -1.26235e-16)
(16.4185 -4.78988 3.61693e-16)
(24.5276 -0.380309 -7.2421e-16)
(32.9963 4.63615 -2.99506e-18)
(40.2295 8.74802 2.1269e-16)
(45.5783 10.9924 -2.82738e-16)
(48.9092 10.8268 -7.79632e-16)
(49.9977 7.87661 1.07172e-15)
(48.9163 2.44044 1.07e-15)
(46.492 -4.37535 -9.23922e-16)
(43.8526 -11.2492 -1.97007e-16)
(41.8764 -17.2812 -3.79869e-16)
(40.8793 -22.0481 -2.53535e-16)
(40.5974 -25.3923 1.09367e-15)
(40.843 -27.5033 -4.91256e-16)
(41.1804 -28.4497 -1.6183e-16)
(40.8645 -28.38 3.09611e-16)
(40.6304 -26.6416 -2.09271e-16)
(43.2395 -25.0951 3.04051e-16)
(42.8282 -21.0562 3.21165e-16)
(40.8406 -16.2096 -4.89345e-17)
(0.935058 -0.081111 3.73246e-18)
(1.12673 -0.170226 8.45622e-18)
(1.1893 -0.235807 -1.30557e-17)
(1.31707 -0.328934 8.13796e-19)
(1.44224 -0.434204 7.78339e-17)
(1.56493 -0.544036 -5.72918e-17)
(1.6854 -0.660582 2.79508e-16)
(1.82866 -0.798748 2.73089e-16)
(2.07531 -0.994668 -2.0018e-16)
(2.35342 -1.2259 -2.29924e-16)
(2.63242 -1.48235 -6.14096e-16)
(2.89473 -1.75733 5.51567e-16)
(3.15025 -2.05225 -5.85467e-16)
(3.40579 -2.34985 -3.84469e-16)
(3.66737 -2.62313 7.7561e-16)
(3.92284 -2.8683 4.75727e-16)
(4.12997 -3.16235 6.19929e-16)
(4.21266 -3.69367 -1.09528e-15)
(4.1176 -4.70113 -5.98278e-16)
(3.87464 -6.36154 1.88597e-15)
(3.79723 -8.53739 -9.64046e-16)
(4.85178 -11.3996 -2.02827e-16)
(7.3097 -13.5155 1.93836e-16)
(11.7001 -14.6475 -6.4295e-16)
(18.0835 -14.4512 1.07619e-15)
(26.2233 -13.0196 -7.33843e-16)
(35.3309 -11.1404 -9.24162e-16)
(44.2447 -9.79151 3.82186e-16)
(52.0039 -9.68923 4.05823e-16)
(58.0372 -10.914 1.68095e-15)
(62.1614 -13.1773 -9.96078e-16)
(64.4718 -16.0054 -8.5249e-16)
(65.1529 -18.8507 5.49402e-16)
(64.2757 -21.1077 4.63282e-17)
(62.3088 -22.5233 -1.20994e-16)
(59.2722 -22.7346 -2.60506e-17)
(55.6652 -21.4811 1.06861e-16)
(50.3743 -18.54 2.22249e-16)
(44.1195 -14.6826 -2.82052e-16)
(39.2388 -9.4618 1.42819e-16)
(34.6411 -4.05867 -1.92747e-16)
(0.746209 -0.156216 -4.93546e-18)
(0.89027 -0.237925 7.84552e-18)
(0.940254 -0.292599 3.62262e-17)
(1.03647 -0.373999 -2.32306e-17)
(1.13114 -0.464656 -2.46806e-17)
(1.22476 -0.559421 -3.14969e-16)
(1.31768 -0.659944 -4.56051e-16)
(1.41147 -0.769163 5.69809e-16)
(1.54338 -0.915702 9.51952e-16)
(1.75608 -1.11825 -9.72253e-16)
(1.97228 -1.3462 -1.71437e-16)
(2.17912 -1.5891 1.17379e-15)
(2.3775 -1.85308 -8.04641e-16)
(2.56677 -2.13933 2.44212e-16)
(2.7513 -2.44599 -1.05579e-16)
(2.93665 -2.761 -1.47816e-15)
(3.12618 -3.06594 2.57389e-15)
(3.30467 -3.36465 7.83822e-16)
(3.42661 -3.72087 -2.17526e-15)
(3.39836 -4.2923 1.84711e-15)
(3.09975 -5.31722 -1.54395e-16)
(2.65253 -7.39445 -1.46956e-15)
(1.87165 -10.0954 2.49583e-16)
(0.996706 -13.4585 6.44015e-16)
(0.334178 -17.1086 -1.13807e-15)
(0.245748 -20.6031 4.90604e-17)
(0.790359 -23.4953 2.08941e-16)
(2.11468 -25.5815 1.38057e-16)
(3.93943 -26.9491 -9.91052e-16)
(5.80249 -27.5972 7.65241e-16)
(7.34302 -27.6952 1.2551e-15)
(8.20461 -27.3315 -1.85221e-16)
(8.1471 -26.4665 -4.10444e-16)
(7.12839 -24.9176 -9.01044e-16)
(5.26013 -22.7093 1.76689e-16)
(2.70209 -19.7568 8.18683e-17)
(-0.335396 -16.0018 1.08707e-16)
(-3.34014 -11.464 1.44388e-17)
(-6.78498 -6.48732 2.092e-16)
(-10.0591 -1.02051 2.16953e-16)
(-11.5729 4.20592 -8.15473e-17)
(0.606106 -0.19593 -2.38273e-17)
(0.71424 -0.269615 -1.07602e-18)
(0.753895 -0.316807 1.71399e-17)
(0.825294 -0.388348 -2.80811e-17)
(0.895533 -0.467172 -1.75339e-17)
(0.964688 -0.549445 -2.42486e-16)
(1.03388 -0.636883 -2.99996e-17)
(1.10279 -0.7323 3.19172e-16)
(1.17604 -0.838777 -5.06447e-16)
(1.31139 -1.00544 -7.30062e-17)
(1.47292 -1.20582 1.28194e-15)
(1.62952 -1.42089 1.77249e-16)
(1.77879 -1.65333 -1.62096e-15)
(1.91674 -1.9039 3.75288e-16)
(2.04237 -2.17497 4.73179e-16)
(2.15539 -2.46958 -1.94939e-15)
(2.257 -2.78706 7.20528e-17)
(2.34968 -3.11858 9.93746e-16)
(2.43403 -3.44989 1.11643e-15)
(2.49449 -3.77773 -6.85298e-16)
(2.48184 -4.14116 2.81668e-16)
(2.44144 -4.9344 6.91977e-16)
(2.06478 -5.91866 -1.26066e-15)
(1.26664 -7.32277 -4.24715e-16)
(-0.0402115 -9.19034 1.32582e-16)
(-1.86755 -11.4506 4.34726e-16)
(-4.1222 -13.8899 -2.41252e-16)
(-6.71581 -16.2884 4.71991e-16)
(-9.43992 -18.2819 -2.36622e-16)
(-12.1818 -19.666 -1.50152e-16)
(-14.8406 -20.2922 5.51837e-16)
(-17.3576 -20.0908 -3.9218e-16)
(-19.6976 -19.1235 -1.62632e-16)
(-21.7707 -17.2821 6.61829e-16)
(-23.5729 -14.7515 -6.9088e-16)
(-25.0535 -11.8473 3.94381e-16)
(-26.1481 -8.52534 3.20647e-16)
(-26.4118 -4.99109 -4.97418e-16)
(-26.4302 -1.47382 7.98927e-17)
(-25.7311 1.77791 1.78318e-16)
(-24.7307 4.81879 3.63651e-17)
(0.495008 -0.213354 -7.40117e-18)
(0.576747 -0.279055 1.02495e-17)
(0.607535 -0.320393 2.41768e-17)
(0.660687 -0.383116 -6.02034e-17)
(0.712265 -0.451633 2.31661e-17)
(0.763011 -0.523041 6.48019e-17)
(0.81322 -0.599082 -1.24003e-16)
(0.863311 -0.681566 3.51098e-17)
(0.913479 -0.772318 1.45952e-16)
(0.979263 -0.888924 -1.36875e-16)
(1.09849 -1.06313 1.6036e-16)
(1.21287 -1.25172 -1.6038e-16)
(1.32071 -1.45418 8.62036e-17)
(1.41753 -1.67119 7.09048e-16)
(1.50052 -1.90274 -9.04476e-16)
(1.56783 -2.1502 -3.97462e-16)
(1.61656 -2.41611 -1.98559e-16)
(1.64303 -2.70379 1.50007e-16)
(1.64551 -3.01268 5.50683e-16)
(1.62227 -3.33625 -2.49924e-16)
(1.57418 -3.65895 -7.73923e-16)
(1.57462 -4.21674 6.14096e-16)
(1.48093 -4.70751 6.65813e-16)
(1.24789 -5.25031 -1.10022e-15)
(0.794935 -5.87648 4.58668e-16)
(0.0499782 -6.60516 3.58384e-16)
(-1.03382 -7.4254 -6.02117e-16)
(-2.45995 -8.28053 1.06758e-15)
(-4.18283 -9.07882 -2.70381e-16)
(-6.12215 -9.71212 -8.56132e-16)
(-8.16757 -10.0792 -3.47569e-17)
(-10.206 -10.1057 9.99537e-16)
(-12.1231 -9.7537 -7.96272e-16)
(-13.7652 -8.99907 -2.56185e-16)
(-15.1782 -7.91898 5.49073e-16)
(-16.2523 -6.56091 1.13542e-17)
(-16.9316 -4.99965 -6.54054e-17)
(-17.0738 -3.28904 -4.76976e-17)
(-17.0085 -1.52259 4.25684e-17)
(-16.494 0.170178 -1.23916e-17)
(-15.8983 1.77635 6.59596e-17)
(0.405204 -0.217449 4.32312e-18)
(0.467697 -0.274883 -8.93492e-18)
(0.49104 -0.311261 -2.64957e-18)
(0.530418 -0.366112 4.87065e-17)
(0.567915 -0.425302 -2.68983e-17)
(0.604577 -0.486984 -9.85582e-18)
(0.640466 -0.55258 1.1388e-16)
(0.675983 -0.623756 7.89959e-17)
(0.71085 -0.701711 -2.22862e-16)
(0.747412 -0.788145 -1.32793e-16)
(0.819247 -0.926934 4.23665e-17)
(0.899503 -1.08856 -2.17933e-16)
(0.974591 -1.26232 -1.12936e-16)
(1.03975 -1.44671 3.42121e-16)
(1.09145 -1.64182 2.38493e-16)
(1.1273 -1.84704 -2.15894e-18)
(1.14496 -2.06239 -8.87243e-17)
(1.14003 -2.28871 -1.59237e-16)
(1.10754 -2.52745 3.28459e-16)
(1.04076 -2.77995 3.87445e-16)
(0.93801 -3.04275 3.19258e-17)
(0.8439 -3.50413 -7.11828e-16)
(0.704787 -3.90229 -7.25093e-17)
(0.517384 -4.29449 4.49839e-16)
(0.266846 -4.66501 5.75566e-16)
(-0.0665933 -5.00432 -2.84394e-16)
(-0.502431 -5.30548 -7.8207e-16)
(-1.056 -5.56104 -6.4741e-16)
(-1.72872 -5.75541 2.31005e-16)
(-2.50849 -5.86978 5.95764e-16)
(-3.36546 -5.87963 -1.35083e-16)
(-4.26055 -5.76574 2.08047e-16)
(-5.14355 -5.50975 -3.11831e-17)
(-5.94937 -5.0943 5.15333e-17)
(-6.66865 -4.54519 -3.70987e-16)
(-7.25776 -3.87966 2.38064e-16)
(-7.69382 -3.11491 3.43642e-18)
(-7.88383 -2.26994 1.12885e-16)
(-8.00205 -1.39257 -1.4217e-16)
(-7.9101 -0.526833 1.7146e-16)
(-7.78573 0.285893 -3.19577e-17)
(0.332344 -0.212732 1.21209e-17)
(0.380152 -0.262971 -1.63264e-18)
(0.397707 -0.294745 -4.49518e-17)
(0.426401 -0.342361 6.67823e-17)
(0.453441 -0.393283 6.56732e-17)
(0.479387 -0.446196 5.40409e-17)
(0.504618 -0.502468 -1.36111e-16)
(0.52893 -0.563412 2.10469e-16)
(0.552742 -0.62981 -4.41956e-16)
(0.576642 -0.703564 -6.01186e-17)
(0.609792 -0.80026 8.01314e-16)
(0.665321 -0.937357 -7.37594e-16)
(0.715919 -1.08465 -4.41646e-17)
(0.758054 -1.23918 6.44009e-16)
(0.78813 -1.40106 4.32639e-16)
(0.803455 -1.56881 1.63582e-16)
(0.802276 -1.74174 -4.0583e-16)
(0.781759 -1.91822 -1.0456e-15)
(0.738254 -2.0975 6.59731e-16)
(0.666604 -2.27784 -2.71847e-16)
(0.563365 -2.45756 4.98382e-16)
(0.44776 -2.78815 7.2665e-16)
(0.293674 -3.07223 -1.16929e-15)
(0.0990302 -3.35316 -7.4503e-18)
(-0.13628 -3.6171 6.08661e-16)
(-0.410297 -3.84928 -3.63237e-16)
(-0.720873 -4.03677 9.7065e-18)
(-1.06379 -4.16894 4.68555e-16)
(-1.43594 -4.23705 -7.85767e-16)
(-1.82989 -4.23587 -2.46413e-16)
(-2.23727 -4.16027 6.87645e-16)
(-2.64526 -4.01033 4.69815e-16)
(-3.04037 -3.78462 -2.58355e-16)
(-3.39368 -3.47968 -4.1367e-16)
(-3.71114 -3.11466 1.85327e-16)
(-3.97483 -2.70071 1.04627e-16)
(-4.17672 -2.245 -2.40076e-16)
(-4.26202 -1.75004 2.18381e-16)
(-4.32355 -1.24274 -1.56653e-16)
(-4.28047 -0.737266 3.38522e-17)
(-4.21264 -0.255818 8.5578e-17)
(0.272804 -0.202902 -9.17565e-18)
(0.309241 -0.246336 5.06422e-18)
(0.322292 -0.273979 2.36114e-17)
(0.342993 -0.315112 4.95914e-18)
(0.362171 -0.358773 -7.33917e-17)
(0.380258 -0.403939 9.9747e-17)
(0.397495 -0.451892 -1.17989e-16)
(0.413725 -0.50372 2.61258e-16)
(0.429265 -0.560012 1.89764e-16)
(0.444105 -0.62224 -8.39176e-16)
(0.459579 -0.692856 9.1661e-16)
(0.492301 -0.802342 5.14814e-16)
(0.524858 -0.925489 -6.50725e-16)
(0.550639 -1.05414 -1.02943e-15)
(0.566408 -1.18696 2.75548e-16)