/*--------------------------------*- C++ -*----------------------------------*\
| =========                 |                                                 |
| \\      /  F ield         | OpenFOAM: The Open Source CFD Toolbox           |
|  \\    /   O peration     | Version:  2312                                  |
|   \\  /    A nd           | Website:  www.openfoam.com                      |
|    \\/     M anipulation  |                                                 |
\*---------------------------------------------------------------------------*/
FoamFile
{
    version     2.0;
    format      ascii;
    arch        "LSB;label=32;scalar=64";
    class       volScalarField;
    location    "250";
    object      nut;
}
// * * * * * * * * * * * * * * * * * * * * * * * * * * * * * * * * * * * * * //

dimensions      [0 2 -1 0 0 0 0];

internalField   nonuniform List<scalar> 
11040
(
5.65255e-05
4.64788e-05
4.6859e-05
0.000222317
0.000230077
0.000204317
0.000187729
0.000175959
0.0001677
0.000162512
0.000157458
0.000154744
0.000154068
0.000156311
0.00016067
0.000166919
0.000175078
0.000185929
0.00019906
0.000215416
0.000234745
0.000256772
0.000282453
0.000313202
0.000349047
0.000386809
0.000424842
0.000461272
0.00049456
0.000527299
0.000561851
0.000594214
0.000618911
0.000634337
0.000637382
0.000628427
0.000602757
0.000538259
0.000393429
0.000393758
0.000618519
1.36528e-05
5.30885e-05
9.98621e-05
0.00053092
0.000661635
0.000566125
0.000503068
0.000457408
0.000422493
0.000407177
0.000389595
0.000379722
0.000376095
0.000384441
0.000400732
0.000421932
0.000447364
0.000476465
0.000505579
0.000529906
0.000547813
0.000559581
0.00056971
0.000586463
0.000611635
0.00064067
0.000666163
0.000682404
0.000686048
0.000683612
0.000724793
0.000801708
0.000885696
0.000981418
0.00109004
0.00121248
0.00135081
0.00150835
0.0016941
0.00204115
0.00296816
4.45445e-06
1.90102e-05
3.51964e-05
0.000332387
0.00092539
0.00119851
0.00109645
0.00101134
0.000919869
0.000887481
0.00084912
0.000826971
0.000807336
0.000799256
0.000795268
0.000796472
0.00080746
0.000833978
0.000860408
0.00087856
0.000883434
0.000876171
0.000860962
0.00085066
0.000876384
0.000945239
0.00103609
0.00115036
0.00129002
0.00145186
0.0016318
0.00182972
0.00203911
0.00226373
0.00250501
0.00277389
0.00307981
0.00343775
0.00387212
0.00455943
0.00623997
5.64791e-06
8.11192e-06
6.15112e-06
9.51497e-05
0.000538351
0.00131647
0.00179905
0.00180321
0.00163034
0.00157333
0.00149827
0.00146179
0.00142391
0.00141171
0.00140869
0.00140738
0.00140473
0.00140276
0.00139952
0.00140028
0.00140146
0.0014093
0.00142921
0.00147675
0.0015624
0.00169349
0.00187095
0.00209123
0.00234875
0.00263879
0.00295402
0.00329243
0.00364788
0.00402416
0.00442482
0.00486991
0.00538426
0.00599132
0.00673717
0.00785368
0.0102342
6.2253e-06
6.45704e-06
5.31682e-06
2.06251e-06
0.000148564
0.000698246
0.00166673
0.00248817
0.00266753
0.00258243
0.00240433
0.00234564
0.00228153
0.00226617
0.00227033
0.00227802
0.00228674
0.00229465
0.00230124
0.00232007
0.00234677
0.00238646
0.00243696
0.00251107
0.00262562
0.00280486
0.00306573
0.00340199
0.00379931
0.00424678
0.00473136
0.00524514
0.00577918
0.00633475
0.00691718
0.00755566
0.00829578
0.00917447
0.0102686
0.0118523
0.0148292
6.24084e-06
5.98908e-06
7.01314e-06
1.95665e-06
4.18966e-07
0.000165695
0.000778337
0.00193534
0.00314809
0.00362483
0.00374421
0.00365872
0.00350301
0.00342773
0.00341865
0.00344323
0.003483
0.00352833
0.00357048
0.00363367
0.00371248
0.00381001
0.00391283
0.00402487
0.0041629
0.00437205
0.00470797
0.00517428
0.00573998
0.00637889
0.00706674
0.00778621
0.00852456
0.00927715
0.0100463
0.0108653
0.0118054
0.0129377
0.0143734
0.0164187
0.0199005
6.16841e-06
6.09699e-06
6.40125e-06
6.48596e-06
5.34957e-07
2.52413e-09
0.000132021
0.000754738
0.00202652
0.00362478
0.00463494
0.00498989
0.005077
0.00507985
0.00504252
0.00503724
0.00507159
0.00514908
0.00525331
0.00538356
0.00551924
0.00566979
0.00584064
0.00603901
0.00627481
0.0065774
0.00699399
0.00758132
0.00832717
0.00918262
0.0101011
0.0110466
0.0120023
0.0129538
0.0138899
0.0148374
0.0158848
0.017173
0.0188594
0.0212833
0.0252118
6.14472e-06
6.17026e-06
6.08198e-06
6.58061e-06
6.75208e-06
1.01233e-08
4.09511e-06
8.04194e-05
0.000634257
0.00189774
0.00376783
0.00549352
0.00625964
0.00662867
0.00676492
0.00684659
0.00690564
0.00699314
0.00710968
0.00727201
0.00748077
0.0077392
0.00804424
0.00841637
0.00886604
0.00941885
0.0100951
0.0108981
0.0118145
0.0128852
0.0140461
0.015218
0.0163799
0.0175082
0.0185605
0.0195348
0.0205203
0.0217269
0.0234243
0.0259915
0.0301985
6.14548e-06
6.13496e-06
6.18742e-06
5.95625e-06
7.49431e-06
4.71845e-06
8.54372e-08
7.60087e-07
5.75831e-06
0.000426613
0.00154245
0.0034933
0.00581125
0.0074749
0.00818541
0.00857425
0.00877673
0.00894188
0.00910382
0.00931985
0.00961679
0.0100139
0.0105028
0.0111071
0.0118431
0.0127398
0.0138128
0.0150481
0.0164075
0.0178382
0.0192616
0.0206297
0.0219407
0.0231824
0.0242647
0.0251118
0.0257709
0.0264999
0.0277365
0.0298686
0.0335986
6.13769e-06
6.13924e-06
6.14998e-06
6.11575e-06
6.12699e-06
7.40743e-06
4.51109e-06
2.8358e-07
5.14379e-08
9.10062e-08
0.000227646
0.00106087
0.00284715
0.00545029
0.00808586
0.00968341
0.0104098
0.010847
0.0111438
0.01146
0.0118686
0.0124286
0.013135
0.0140144
0.015086
0.0163801
0.017911
0.0196578
0.021565
0.0235527
0.0255299
0.0274125
0.0291107
0.0305152
0.031496
0.031962
0.0319059
0.0315822
0.0317714
0.0325232
0.0346283
6.13257e-06
6.13563e-06
6.13375e-06
6.15646e-06
6.07397e-06
6.28731e-06
6.89965e-06
5.41102e-06
6.20301e-07
9.47545e-09
4.73197e-06
1.9084e-05
0.000556773
0.00195284
0.00443385
0.00763446
0.0105365
0.0121734
0.0129791
0.0135515
0.0141108
0.0148376
0.0157632
0.0169282
0.0183471
0.0200426
0.0220191
0.0242427
0.0266395
0.0291032
0.0315097
0.0337277
0.0356209
0.037059
0.0379287
0.0381653
0.0377824
0.0368781
0.0356463
0.0343632
0.0336416
6.1281e-06
6.12976e-06
6.13233e-06
6.13407e-06
6.13932e-06
6.10971e-06
6.21023e-06
6.77967e-06
6.2342e-06
1.63566e-06
8.51319e-09
1.0046e-08
7.07918e-05
0.000206033
0.00105706
0.00302183
0.00615661
0.00992369
0.0131771
0.0150409
0.0161049
0.0170665
0.0181733
0.0195788
0.0213093
0.0233724
0.0257499
0.0283867
0.0311889
0.0340246
0.0367387
0.0391647
0.0411351
0.0424911
0.0430887
0.0428299
0.0417061
0.0397887
0.0372788
0.0345523
0.0320977
6.12392e-06
6.1253e-06
6.1271e-06
6.12948e-06
6.1315e-06
6.13408e-06
6.11919e-06
6.1548e-06
6.63315e-06
6.73941e-06
3.50106e-06
1.2206e-08
2.89273e-10
2.4598e-06
8.22819e-06
0.000416814
0.00159886
0.00408949
0.00783346
0.0122276
0.0161015
0.0185396
0.0201409
0.0217591
0.0236733
0.0259799
0.0286627
0.0316336
0.034771
0.0379203
0.0409017
0.0435295
0.0456208
0.0470019
0.0475019
0.0469877
0.0453989
0.0427829
0.0392536
0.0350936
0.0307255
6.12007e-06
6.12098e-06
6.1225e-06
6.12435e-06
6.12659e-06
6.12802e-06
6.13394e-06
6.11452e-06
6.13495e-06
6.43009e-06
7.18187e-06
5.30562e-06
4.78256e-07
4.11332e-09
2.61107e-09
2.51123e-05
7.65627e-05
0.000597752
0.00203792
0.00495882
0.00929887
0.0143262
0.0189481
0.0224946
0.025182
0.0277126
0.0304946
0.0335885
0.0369044
0.0402857
0.0435341
0.046436
0.0488088
0.0504994
0.0513543
0.0512449
0.0500755
0.0477758
0.0444181
0.0401044
0.0350703
6.11647e-06
6.11704e-06
6.11829e-06
6.11988e-06
6.12172e-06
6.12353e-06
6.12596e-06
6.1292e-06
6.12054e-06
6.10991e-06
6.26975e-06
7.10448e-06
6.16694e-06
3.1872e-06
6.60115e-09
4.71819e-10
4.02574e-08
5.22774e-05
0.000105502
0.000675705
0.00224911
0.00527541
0.00952902
0.0146495
0.0200562
0.0251575
0.029638
0.0335704
0.0371922
0.0406543
0.0439511
0.046969
0.049564
0.0516071
0.0529736
0.0535579
0.053283
0.0520269
0.0495909
0.0460239
0.0414635
6.11326e-06
6.11358e-06
6.11451e-06
6.11582e-06
6.11737e-06
6.11913e-06
6.12099e-06
6.12354e-06
6.12588e-06
6.12602e-06
6.09121e-06
6.22479e-06
6.56401e-06
7.09033e-06
5.12709e-06
1.66976e-06
9.27783e-09
4.0418e-11
7.53967e-08
5.30688e-05
5.94526e-05
0.00056235
0.0017566
0.00405955
0.00745229
0.011793
0.0167891
0.0220722
0.0272858
0.0321556
0.036509
0.0402492
0.0433193
0.0456917
0.0473217
0.0481631
0.0481892
0.0473489
0.0452614
0.0419867
0.0378761
6.11059e-06
6.11039e-06
6.11089e-06
6.11188e-06
6.1132e-06
6.11475e-06
6.11647e-06
6.11849e-06
6.12057e-06
6.1244e-06
6.12307e-06
6.10845e-06
6.12936e-06
6.32089e-06
6.80515e-06
6.86155e-06
4.37302e-06
7.24054e-07
5.9052e-09
3.26476e-11
1.64218e-08
1.64223e-05
0.000175049
9.71516e-05
0.000635207
0.00178539
0.00357615
0.00598504
0.00887534
0.0120429
0.0152613
0.0183087
0.020989
0.0231672
0.0247306
0.0256078
0.0257589
0.0252175
0.0240102
0.0222013
0.0200437
6.10826e-06
6.10754e-06
6.10778e-06
6.10861e-06
6.10975e-06
6.11109e-06
6.11259e-06
6.11425e-06
6.11616e-06
6.11826e-06
6.12188e-06
6.1222e-06
6.11821e-06
6.09929e-06
6.18027e-06
6.46387e-06
7.09261e-06
6.59895e-06
4.10165e-06
5.73352e-07
5.07636e-09
5.39488e-11
0
2.94167e-08
1.61326e-05
0.000137631
6.8319e-07
0.000199011
0.000512786
0.00110273
0.00186084
0.00268901
0.00349831
0.00421195
0.00475591
0.00507805
0.00514426
0.00497854
0.00460432
0.00411634
0.00359149
6.10621e-06
6.1053e-06
6.10546e-06
6.10616e-06
6.10713e-06
6.10825e-06
6.10952e-06
6.11092e-06
6.1125e-06
6.11431e-06
6.11655e-06
6.11916e-06
6.12295e-06
6.11935e-06
6.10894e-06
6.10912e-06
6.2553e-06
6.62233e-06
7.04879e-06
6.47447e-06
3.72354e-06
1.02657e-06
6.97504e-09
8.81424e-11
1.54658e-11
7.56062e-16
2.71737e-11
1.81581e-07
5.55879e-06
4.99701e-05
0.000119196
0.000183925
0.000245092
7.00652e-07
0.00012428
0.000100829
8.0592e-05
0.00010857
7.85363e-05
5.96514e-05
6.44078e-05
6.10466e-06
6.10358e-06
6.10356e-06
6.10405e-06
6.10477e-06
6.10564e-06
6.10667e-06
6.10785e-06
6.10918e-06
6.11072e-06
6.11254e-06
6.11468e-06
6.11739e-06
6.12075e-06
6.12238e-06
6.11439e-06
6.10355e-06
6.13631e-06
6.29825e-06
6.66092e-06
6.95317e-06
6.70542e-06
4.43206e-06
2.02472e-06
4.04411e-07
2.18564e-11
1.42732e-10
4.18202e-11
1.5029e-11
3.35657e-12
2.88896e-13
5.17614e-16
0
1.48687e-11
2.06449e-08
1.05912e-08
5.55889e-09
1.13324e-08
4.5784e-09
2.36082e-09
2.5256e-09
6.10355e-06
6.10221e-06
6.10193e-06
6.10214e-06
6.10258e-06
6.1032e-06
6.10399e-06
6.10495e-06
6.10606e-06
6.10735e-06
6.10889e-06
6.11074e-06
6.11286e-06
6.11547e-06
6.11867e-06
6.12157e-06
6.12031e-06
6.1119e-06
6.10744e-06
6.14345e-06
6.30606e-06
6.61886e-06
7.06654e-06
6.97157e-06
6.18823e-06
4.5959e-06
2.81058e-06
1.46316e-06
5.87204e-07
1.44961e-07
1.36448e-08
2.65541e-11
1.09002e-10
4.8115e-11
3.74761e-11
3.02248e-11
2.50617e-11
2.22176e-11
1.97169e-11
1.81679e-11
1.67124e-11
6.10278e-06
6.10112e-06
6.10051e-06
6.10041e-06
6.10058e-06
6.10097e-06
6.10154e-06
6.1023e-06
6.10322e-06
6.10431e-06
6.1056e-06
6.10716e-06
6.10902e-06
6.11117e-06
6.11364e-06
6.11664e-06
6.11983e-06
6.12198e-06
6.12067e-06
6.11273e-06
6.10721e-06
6.13688e-06
6.27926e-06
6.50114e-06
6.75117e-06
6.98412e-06
6.99123e-06
6.76457e-06
6.29731e-06
5.64698e-06
4.90864e-06
4.17166e-06
3.5041e-06
2.92508e-06
2.49637e-06
2.20608e-06
2.00984e-06
1.8891e-06
1.83516e-06
1.82404e-06
1.83828e-06
6.10232e-06
6.1003e-06
6.09935e-06
6.09897e-06
6.09891e-06
6.09909e-06
6.09948e-06
6.10005e-06
6.10079e-06
6.10169e-06
6.10275e-06
6.10406e-06
6.10565e-06
6.10751e-06
6.10965e-06
6.11207e-06
6.1148e-06
6.11794e-06
6.12137e-06
6.12392e-06
6.1214e-06
6.11342e-06
6.11068e-06
6.13084e-06
6.18521e-06
6.28024e-06
6.4119e-06
6.56374e-06
6.71346e-06
6.84315e-06
6.94227e-06
7.00776e-06
7.04197e-06
7.04866e-06
7.01116e-06
6.96205e-06
6.91098e-06
6.86154e-06
6.82103e-06
6.78803e-06
6.7674e-06
6.1021e-06
6.09979e-06
6.09858e-06
6.09799e-06
6.09775e-06
6.09777e-06
6.09799e-06
6.09839e-06
6.09895e-06
6.09966e-06
6.10052e-06
6.10158e-06
6.1029e-06
6.10448e-06
6.10632e-06
6.10842e-06
6.11076e-06
6.11335e-06
6.11628e-06
6.11976e-06
6.12333e-06
6.12537e-06
6.12443e-06
6.12179e-06
6.12009e-06
6.12256e-06
6.13289e-06
6.15471e-06
6.18935e-06
6.23506e-06
6.28867e-06
6.3467e-06
6.40589e-06
6.46421e-06
6.51842e-06
6.56682e-06
6.60768e-06
6.64273e-06
6.67083e-06
6.69298e-06
6.70859e-06
6.10209e-06
6.09963e-06
6.09826e-06
6.09754e-06
6.09718e-06
6.09706e-06
6.09713e-06
6.09736e-06
6.09775e-06
6.09828e-06
6.09894e-06
6.09977e-06
6.10083e-06
6.10213e-06
6.10368e-06
6.10548e-06
6.10752e-06
6.10978e-06
6.11227e-06
6.11501e-06
6.11815e-06
6.12164e-06
6.12504e-06
6.12795e-06
6.13009e-06
6.13132e-06
6.13171e-06
6.13188e-06
6.13274e-06
6.13501e-06
6.13915e-06
6.14527e-06
6.15322e-06
6.16277e-06
6.17356e-06
6.18514e-06
6.19693e-06
6.2089e-06
6.22055e-06
6.23155e-06
6.24158e-06
6.10226e-06
6.09977e-06
6.09833e-06
6.09751e-06
6.09704e-06
6.09679e-06
6.09672e-06
6.0968e-06
6.09702e-06
6.09738e-06
6.09787e-06
6.09852e-06
6.09935e-06
6.1004e-06
6.10169e-06
6.10321e-06
6.10496e-06
6.10693e-06
6.10912e-06
6.1115e-06
6.1141e-06
6.117e-06
6.12016e-06
6.12355e-06
6.12711e-06
6.13073e-06
6.13428e-06
6.13765e-06
6.14078e-06
6.1437e-06
6.14649e-06
6.14925e-06
6.15208e-06
6.15505e-06
6.15825e-06
6.16172e-06
6.16553e-06
6.16957e-06
6.174e-06
6.17841e-06
6.18355e-06
6.10257e-06
6.10016e-06
6.09871e-06
6.0978e-06
6.09719e-06
6.09679e-06
6.09655e-06
6.09646e-06
6.09652e-06
6.09673e-06
6.09707e-06
6.09755e-06
6.0982e-06
6.09906e-06
6.10013e-06
6.10141e-06
6.10291e-06
6.10462e-06
6.10654e-06
6.10865e-06
6.11094e-06
6.11347e-06
6.1162e-06
6.11913e-06
6.12227e-06
6.12561e-06
6.12914e-06
6.13282e-06
6.13662e-06
6.14052e-06
6.14449e-06
6.14849e-06
6.15253e-06
6.15659e-06
6.16069e-06
6.16482e-06
6.169e-06
6.17319e-06
6.17755e-06
6.1817e-06
6.18638e-06
6.10306e-06
6.10086e-06
6.09941e-06
6.09839e-06
6.0976e-06
6.097e-06
6.09656e-06
6.09628e-06
6.09616e-06
6.09619e-06
6.09637e-06
6.09669e-06
6.09717e-06
6.09785e-06
6.09874e-06
6.09983e-06
6.10113e-06
6.10263e-06
6.10432e-06
6.10619e-06
6.10824e-06
6.1105e-06
6.11294e-06
6.11556e-06
6.11836e-06
6.12131e-06
6.12442e-06
6.12768e-06
6.13107e-06
6.13459e-06
6.13823e-06
6.14196e-06
6.14578e-06
6.14968e-06
6.15364e-06
6.15766e-06
6.16172e-06
6.16579e-06
6.17e-06
6.17397e-06
6.17838e-06
6.10376e-06
6.102e-06
6.10055e-06
6.09935e-06
6.09834e-06
6.09749e-06
6.09682e-06
6.09632e-06
6.09599e-06
6.09582e-06
6.09582e-06
6.09596e-06
6.09626e-06
6.09675e-06
6.09745e-06
6.09835e-06
6.09946e-06
6.10076e-06
6.10225e-06
6.10392e-06
6.10575e-06
6.10779e-06
6.10999e-06
6.11237e-06
6.1149e-06
6.11759e-06
6.12041e-06
6.12336e-06
6.12643e-06
6.12961e-06
6.13288e-06
6.13625e-06
6.13969e-06
6.14321e-06
6.14679e-06
6.15043e-06
6.15412e-06
6.15782e-06
6.16166e-06
6.16526e-06
6.1693e-06
6.10465e-06
6.10342e-06
6.10201e-06
6.10067e-06
6.09945e-06
6.09838e-06
6.09747e-06
6.09674e-06
6.09618e-06
6.09579e-06
6.09557e-06
6.0955e-06
6.0956e-06
6.09588e-06
6.09636e-06
6.09705e-06
6.09794e-06
6.09902e-06
6.1003e-06
6.10176e-06
6.10338e-06
6.1052e-06
6.10719e-06
6.10935e-06
6.11166e-06
6.11411e-06
6.11669e-06
6.1194e-06
6.12221e-06
6.12512e-06
6.12813e-06
6.13121e-06
6.13437e-06
6.13759e-06
6.14088e-06
6.14421e-06
6.14758e-06
6.15096e-06
6.15448e-06
6.15774e-06
6.16144e-06
6.10561e-06
6.10463e-06
6.1034e-06
6.10214e-06
6.10089e-06
6.09969e-06
6.0986e-06
6.09765e-06
6.09686e-06
6.09624e-06
6.09578e-06
6.09548e-06
6.09535e-06
6.09539e-06
6.09563e-06
6.09607e-06
6.09671e-06
6.09756e-06
6.0986e-06
6.09982e-06
6.1012e-06
6.1028e-06
6.10456e-06
6.10649e-06
6.10857e-06
6.11079e-06
6.11315e-06
6.11562e-06
6.11819e-06
6.12087e-06
6.12363e-06
6.12647e-06
6.12937e-06
6.13233e-06
6.13535e-06
6.1384e-06
6.1415e-06
6.14459e-06
6.14781e-06
6.15076e-06
6.15416e-06
6.10637e-06
6.10546e-06
6.10438e-06
6.10331e-06
6.10228e-06
6.10124e-06
6.10018e-06
6.0991e-06
6.09809e-06
6.09723e-06
6.09652e-06
6.09598e-06
6.0956e-06
6.09539e-06
6.09537e-06
6.09555e-06
6.09593e-06
6.09651e-06
6.09728e-06
6.09824e-06
6.09937e-06
6.1007e-06
6.10221e-06
6.10389e-06
6.10573e-06
6.10771e-06
6.10982e-06
6.11205e-06
6.11438e-06
6.11681e-06
6.11933e-06
6.12192e-06
6.12457e-06
6.12728e-06
6.13003e-06
6.13282e-06
6.13565e-06
6.13845e-06
6.14138e-06
6.14402e-06
6.14712e-06
6.10679e-06
6.106e-06
6.10504e-06
6.10413e-06
6.10329e-06
6.10249e-06
6.10168e-06
6.1008e-06
6.09981e-06
6.09877e-06
6.09782e-06
6.09702e-06
6.09639e-06
6.09593e-06
6.09564e-06
6.09555e-06
6.09566e-06
6.09596e-06
6.09646e-06
6.09714e-06
6.09799e-06
6.09905e-06
6.10029e-06
6.1017e-06
6.10327e-06
6.10498e-06
6.10683e-06
6.1088e-06
6.11088e-06
6.11305e-06
6.11531e-06
6.11764e-06
6.12003e-06
6.12247e-06
6.12495e-06
6.12747e-06
6.13001e-06
6.13252e-06
6.13515e-06
6.13748e-06
6.14026e-06
6.10693e-06
6.10624e-06
6.10542e-06
6.10468e-06
6.10402e-06
6.10341e-06
6.10282e-06
6.10219e-06
6.10149e-06
6.10065e-06
6.09964e-06
6.09859e-06
6.0977e-06
6.09698e-06
6.09643e-06
6.09607e-06
6.0959e-06
6.09592e-06
6.09614e-06
6.09653e-06
6.09711e-06
6.09789e-06
6.09884e-06
6.09997e-06
6.10126e-06
6.1027e-06
6.10427e-06
6.10596e-06
6.10777e-06
6.10966e-06
6.11165e-06
6.1137e-06
6.11581e-06
6.11797e-06
6.12016e-06
6.12238e-06
6.12462e-06
6.12683e-06
6.12913e-06
6.13114e-06
6.13359e-06
6.10677e-06
6.10618e-06
6.1055e-06
6.10494e-06
6.10449e-06
6.10409e-06
6.1037e-06
6.10327e-06
6.10278e-06
6.1022e-06
6.1015e-06
6.10061e-06
6.09958e-06
6.09858e-06
6.09776e-06
6.09712e-06
6.09666e-06
6.0964e-06
6.09633e-06
6.09644e-06
6.09673e-06
6.09722e-06
6.09789e-06
6.09873e-06
6.09973e-06
6.10088e-06
6.10217e-06
6.10357e-06
6.10509e-06
6.1067e-06
6.10839e-06
6.11015e-06
6.11196e-06
6.11382e-06
6.1157e-06
6.11761e-06
6.11953e-06
6.12141e-06
6.12337e-06
6.12503e-06
6.12713e-06
6.10628e-06
6.10579e-06
6.10528e-06
6.1049e-06
6.10466e-06
6.10448e-06
6.1043e-06
6.10408e-06
6.10379e-06
6.1034e-06
6.10291e-06
6.10231e-06
6.10154e-06
6.10056e-06
6.09949e-06
6.09859e-06
6.09787e-06
6.09733e-06
6.09698e-06
6.09682e-06
6.09683e-06
6.09703e-06
6.09741e-06
6.09796e-06
6.09867e-06
6.09953e-06
6.10052e-06
6.10162e-06
6.10284e-06
6.10415e-06
6.10553e-06
6.10699e-06
6.10849e-06
6.11003e-06
6.11159e-06
6.11316e-06
6.11474e-06
6.11628e-06
6.11788e-06
6.11918e-06
6.12091e-06
6.10547e-06
6.10509e-06
6.10474e-06
6.10456e-06
6.10451e-06
6.10453e-06
6.10455e-06
6.10453e-06
6.10444e-06
6.10425e-06
6.10395e-06
6.10352e-06
6.10299e-06
6.10232e-06
6.10143e-06
6.10034e-06
6.09938e-06
6.0986e-06
6.09799e-06
6.09756e-06
6.09731e-06
6.09723e-06
6.09733e-06
6.0976e-06
6.09802e-06
6.09858e-06
6.09928e-06
6.10008e-06
6.101e-06
6.10199e-06
6.10307e-06
6.1042e-06
6.10538e-06
6.10659e-06
6.10782e-06
6.10905e-06
6.11028e-06
6.11146e-06
6.11269e-06
6.11362e-06
6.11498e-06
6.10432e-06
6.10406e-06
6.10388e-06
6.10388e-06
6.10401e-06
6.10419e-06
6.10438e-06
6.10452e-06
6.1046e-06
6.10459e-06
6.10448e-06
6.10426e-06
6.1039e-06
6.10343e-06
6.10283e-06
6.10202e-06
6.10096e-06
6.09998e-06
6.09916e-06
6.0985e-06
6.09801e-06
6.09769e-06
6.09753e-06
6.09754e-06
6.09769e-06
6.09797e-06
6.09838e-06
6.09889e-06
6.0995e-06
6.10019e-06
6.10095e-06
6.10176e-06
6.10262e-06
6.10349e-06
6.10438e-06
6.10526e-06
6.10613e-06
6.10695e-06
6.10779e-06
6.10836e-06
6.10933e-06
6.10281e-06
6.10269e-06
6.10267e-06
6.10283e-06
6.10309e-06
6.10339e-06
6.10369e-06
6.10395e-06
6.10416e-06
6.10431e-06
6.10437e-06
6.10433e-06
6.10417e-06
6.10389e-06
6.10349e-06
6.10293e-06
6.10219e-06
6.10122e-06
6.10024e-06
6.09939e-06
6.09871e-06
6.09818e-06
6.09781e-06
6.09759e-06
6.0975e-06
6.09753e-06
6.09767e-06
6.09791e-06
6.09824e-06
6.09864e-06
6.0991e-06
6.0996e-06
6.10013e-06
6.10068e-06
6.10123e-06
6.10177e-06
6.10228e-06
6.10275e-06
6.10322e-06
6.10343e-06
6.10401e-06
6.10095e-06
6.10095e-06
6.10108e-06
6.10135e-06
6.10168e-06
6.10204e-06
6.10239e-06
6.10273e-06
6.10304e-06
6.1033e-06
6.10349e-06
6.10361e-06
6.10363e-06
6.10354e-06
6.10334e-06
6.10299e-06
6.1025e-06
6.10185e-06
6.101e-06
6.10004e-06
6.0992e-06
6.0985e-06
6.09795e-06
6.09754e-06
6.09724e-06
6.09706e-06
6.09697e-06
6.09697e-06
6.09705e-06
6.09718e-06
6.09736e-06
6.09757e-06
6.0978e-06
6.09804e-06
6.09826e-06
6.09847e-06
6.09864e-06
6.09876e-06
6.09885e-06
6.09871e-06
6.09891e-06
6.0987e-06
6.09883e-06
6.09906e-06
6.09937e-06
6.09971e-06
6.10007e-06
6.10043e-06
6.10079e-06
6.10115e-06
6.10149e-06
6.10178e-06
6.10203e-06
6.1022e-06
6.10228e-06
6.10227e-06
6.10213e-06
6.10184e-06
6.10142e-06
6.10086e-06
6.10017e-06
6.09932e-06
6.0985e-06
6.0978e-06
6.09723e-06
6.09677e-06
6.0964e-06
6.09612e-06
6.09592e-06
6.09577e-06
6.09567e-06
6.09561e-06
6.09557e-06
6.09554e-06
6.0955e-06
6.09544e-06
6.09535e-06
6.09522e-06
6.09504e-06
6.09479e-06
6.09439e-06
6.09424e-06
6.09607e-06
6.09629e-06
6.09655e-06
6.09683e-06
6.09712e-06
6.09742e-06
6.09775e-06
6.09811e-06
6.09848e-06
6.09885e-06
6.09922e-06
6.09955e-06
6.09983e-06
6.10005e-06
6.1002e-06
6.10024e-06
6.10015e-06
6.09994e-06
6.09962e-06
6.09917e-06
6.09863e-06
6.09795e-06
6.0972e-06
6.09653e-06
6.09594e-06
6.09544e-06
6.09501e-06
6.09463e-06
6.09431e-06
6.09401e-06
6.09374e-06
6.09348e-06
6.09322e-06
6.09294e-06
6.09263e-06
6.09229e-06
6.0919e-06
6.09148e-06
6.09099e-06
6.09052e-06
6.09004e-06
6.09302e-06
6.09328e-06
6.0935e-06
6.0937e-06
6.0939e-06
6.09412e-06
6.09438e-06
6.09469e-06
6.09503e-06
6.0954e-06
6.09578e-06
6.09616e-06
6.09651e-06
6.09682e-06
6.09708e-06
6.09726e-06
6.09734e-06
6.09732e-06
6.09719e-06
6.09697e-06
6.09665e-06
6.09624e-06
6.09574e-06
6.09517e-06
6.09458e-06
6.09403e-06
6.09354e-06
6.09309e-06
6.09267e-06
6.09228e-06
6.0919e-06
6.09152e-06
6.09115e-06
6.09077e-06
6.09039e-06
6.09001e-06
6.08965e-06
6.08934e-06
6.0891e-06
6.08903e-06
6.08897e-06
6.08954e-06
6.08978e-06
6.08991e-06
6.08999e-06
6.09009e-06
6.09022e-06
6.09039e-06
6.09061e-06
6.09086e-06
6.09116e-06
6.09148e-06
6.09182e-06
6.09217e-06
6.0925e-06
6.09281e-06
6.09308e-06
6.09329e-06
6.09342e-06
6.09348e-06
6.09347e-06
6.09338e-06
6.09323e-06
6.09302e-06
6.09276e-06
6.09245e-06
6.09211e-06
6.09175e-06
6.0914e-06
6.09105e-06
6.09073e-06
6.09045e-06
6.09021e-06
6.09003e-06
6.08992e-06
6.08989e-06
6.08995e-06
6.09013e-06
6.0904e-06
6.09084e-06
6.09138e-06
6.09199e-06
6.08558e-06
6.08575e-06
6.08578e-06
6.08576e-06
6.08577e-06
6.08581e-06
6.08587e-06
6.08595e-06
6.08606e-06
6.0862e-06
6.08637e-06
6.08656e-06
6.08677e-06
6.08701e-06
6.08727e-06
6.08755e-06
6.08779e-06
6.08799e-06
6.08814e-06
6.08823e-06
6.08827e-06
6.08826e-06
6.08821e-06
6.08813e-06
6.08802e-06
6.0879e-06
6.08778e-06
6.08766e-06
6.08757e-06
6.08751e-06
6.08749e-06
6.08753e-06
6.08764e-06
6.08783e-06
6.0881e-06
6.08847e-06
6.08896e-06
6.08954e-06
6.09028e-06
6.09111e-06
6.09198e-06
6.08113e-06
6.08121e-06
6.08116e-06
6.0811e-06
6.08105e-06
6.08099e-06
6.08092e-06
6.08082e-06
6.08071e-06
6.0806e-06
6.08049e-06
6.08042e-06
6.0804e-06
6.08044e-06
6.08049e-06
6.08056e-06
6.08067e-06
6.08083e-06
6.08103e-06
6.08125e-06
6.0815e-06
6.08176e-06
6.08203e-06
6.08231e-06
6.08261e-06
6.08292e-06
6.08325e-06
6.0836e-06
6.08399e-06
6.08442e-06
6.0849e-06
6.08544e-06
6.08605e-06
6.08675e-06
6.08753e-06
6.08841e-06
6.08941e-06
6.09049e-06
6.09176e-06
6.09303e-06
6.09451e-06
6.07614e-06
6.07615e-06
6.0761e-06
6.07606e-06
6.076e-06
6.07589e-06
6.07571e-06
6.07542e-06
6.07505e-06
6.07452e-06
6.074e-06
6.07369e-06
6.07365e-06
6.07385e-06
6.07429e-06
6.07479e-06
6.07521e-06
6.07549e-06
6.07564e-06
6.07566e-06
6.07561e-06
6.07551e-06
6.07539e-06
6.0753e-06
6.07524e-06
6.07526e-06
6.07536e-06
6.07555e-06
6.07585e-06
6.07624e-06
6.07674e-06
6.07734e-06
6.07805e-06
6.07886e-06
6.07978e-06
6.08081e-06
6.08195e-06
6.08319e-06
6.08457e-06
6.08602e-06
6.08751e-06
6.07058e-06
6.07058e-06
6.07059e-06
6.07061e-06
6.07061e-06
6.07057e-06
6.07046e-06
6.07024e-06
6.0699e-06
6.06919e-06
6.06884e-06
6.06922e-06
6.07023e-06
6.07178e-06
6.07382e-06
6.07638e-06
6.07896e-06
6.08135e-06
6.08345e-06
6.08519e-06
6.08654e-06
6.08749e-06
6.08804e-06
6.08823e-06
6.08812e-06
6.08771e-06
6.08691e-06
6.08585e-06
6.08503e-06
6.08453e-06
6.08432e-06
6.08439e-06
6.08473e-06
6.08533e-06
6.08616e-06
6.08721e-06
6.0885e-06
6.08997e-06
6.09172e-06
6.09348e-06
6.09565e-06
0.00632462
0.010134
0.0119757
0.0105178
0.00543365
0.000994032
3.92396e-05
5.74125e-09
4.78697e-06
1.10277e-07
0.000430486
0.00843357
0.0169295
0.0230906
0.0275179
0.0305327
0.0323816
0.033264
0.0333158
0.032636
0.0313079
0.0293995
0.0269805
0.0241089
0.0208402
0.0172221
0.0132825
0.0090637
0.00473225
0.00124462
0.000298886
3.35641e-11
3.44094e-07
1.06682e-05
1.10561e-05
7.05155e-06
5.68443e-06
5.89468e-06
6.44482e-06
6.76658e-06
6.82931e-06
6.7961e-06
6.77147e-06
6.77003e-06
6.77223e-06
6.76298e-06
6.73864e-06
6.70122e-06
6.65412e-06
6.601e-06
6.54539e-06
6.49135e-06
6.44313e-06
6.40512e-06
6.38091e-06
6.36864e-06
6.36142e-06
6.35586e-06
6.35023e-06
6.34382e-06
6.33645e-06
6.32827e-06
6.31955e-06
6.31066e-06
6.30192e-06
6.29358e-06
6.28588e-06
6.27897e-06
6.27295e-06
6.26779e-06
6.26341e-06
6.25964e-06
6.25657e-06
6.25106e-06
0.0104765
0.0146037
0.0164683
0.0152489
0.0100599
0.0032102
0.000224264
7.66466e-09
2.35177e-10
1.04438e-05
0.00164976
0.0113206
0.0202791
0.0264855
0.0308916
0.0339258
0.0358511
0.0368514
0.0370505
0.0365359
0.035381
0.0336461
0.031395
0.0286837
0.0255643
0.0220856
0.0182738
0.0141368
0.00966745
0.00502033
0.00128258
0.000362385
1.56435e-09
1.11322e-07
1.01534e-05
1.10539e-05
7.01351e-06
5.81039e-06
6.13667e-06
6.65469e-06
6.88974e-06
6.907e-06
6.86905e-06
6.84464e-06
6.83072e-06
6.80996e-06
6.77463e-06
6.72588e-06
6.66795e-06
6.60568e-06
6.54355e-06
6.48626e-06
6.43833e-06
6.40398e-06
6.38539e-06
6.37681e-06
6.3718e-06
6.36743e-06
6.36235e-06
6.3561e-06
6.34868e-06
6.34034e-06
6.33143e-06
6.32234e-06
6.31339e-06
6.30486e-06
6.29696e-06
6.28983e-06
6.28358e-06
6.27813e-06
6.27342e-06
6.26926e-06
6.26583e-06
6.25939e-06
0.0145241
0.0192675
0.0213126
0.0204072
0.0156389
0.00744034
0.00136326
0.000107817
7.09451e-13
6.13187e-05
0.0027528
0.0134412
0.0228699
0.0292652
0.0337925
0.0369904
0.0391277
0.0403715
0.0408288
0.0405744
0.0396786
0.0381903
0.0361682
0.033664
0.0307268
0.0274086
0.0237396
0.0197314
0.0153656
0.0105972
0.00561239
0.00156641
0.000478724
4.37103e-10
1.13445e-09
7.45158e-06
1.13881e-05
7.26755e-06
5.94353e-06
6.30945e-06
6.81349e-06
6.99375e-06
6.97915e-06
6.92968e-06
6.89147e-06
6.85465e-06
6.80691e-06
6.74666e-06
6.67834e-06
6.60785e-06
6.54063e-06
6.4818e-06
6.43571e-06
6.40568e-06
6.39249e-06
6.38698e-06
6.38373e-06
6.38022e-06
6.37546e-06
6.36921e-06
6.36162e-06
6.35304e-06
6.34388e-06
6.33453e-06
6.32535e-06
6.3166e-06
6.30847e-06
6.30112e-06
6.29459e-06
6.28884e-06
6.28377e-06
6.27917e-06
6.27537e-06
6.2679e-06
0.0185308
0.0240912
0.0263977
0.0258488
0.0217212
0.0133977
0.00434168
0.000394316
7.34407e-07
0.000115733
0.00348155
0.0148416
0.0248047
0.0315193
0.0362954
0.0397901
0.0422617
0.0438648
0.0446805
0.0447682
0.0442097
0.0430332
0.0412948
0.0390383
0.0363203
0.0331892
0.0296783
0.0258138
0.0215947
0.0169734
0.011897
0.00656639
0.00207656
0.000664892
3.29424e-06
4.03922e-08
3.3748e-06
1.17672e-05
8.51686e-06
6.34077e-06
6.42944e-06
6.90053e-06
7.06532e-06
7.03041e-06
6.96076e-06
6.89875e-06
6.83541e-06
6.76366e-06
6.68591e-06
6.60858e-06
6.53788e-06
6.47906e-06
6.43604e-06
6.41088e-06
6.40185e-06
6.39882e-06
6.39692e-06
6.39399e-06
6.38935e-06
6.38296e-06
6.37511e-06
6.36622e-06
6.35675e-06
6.34713e-06
6.33769e-06
6.3287e-06
6.32034e-06
6.31272e-06
6.30592e-06
6.29983e-06
6.29437e-06
6.28932e-06
6.28511e-06
6.27657e-06
0.0226926
0.0289894
0.0315434
0.0313888
0.0280145
0.0203951
0.00965066
0.00204396
3.54996e-06
0.0001572
0.00377266
0.0154997
0.0260703
0.0332371
0.0383899
0.0423313
0.0452666
0.0473269
0.048591
0.049116
0.0489616
0.0481602
0.0467547
0.0447766
0.0423201
0.039405
0.0360756
0.0323728
0.0283076
0.0238676
0.0189961
0.0136394
0.00797284
0.00289619
0.000138465
0.000127895
1.38074e-08
2.02474e-08
6.97434e-06
9.68978e-06
7.1536e-06
6.64165e-06
6.94365e-06
7.09271e-06
7.04552e-06
6.95214e-06
6.86363e-06
6.77784e-06
6.6915e-06
6.60889e-06
6.53625e-06
6.47866e-06
6.43933e-06
6.41892e-06
6.41315e-06
6.41205e-06
6.41114e-06
6.40855e-06
6.40386e-06
6.39722e-06
6.38903e-06
6.37979e-06
6.36999e-06
6.36007e-06
6.35036e-06
6.34112e-06
6.33251e-06
6.32463e-06
6.31752e-06
6.3111e-06
6.30522e-06
6.29968e-06
6.29504e-06
6.28536e-06
0.0272329
0.0337469
0.0364753
0.036735
0.0341914
0.0277489
0.0169195
0.00598053
0.000784579
0.000225856
0.00363335
0.015389
0.0266023
0.0343566
0.0400451
0.0445236
0.0480119
0.0506168
0.0524093
0.053445
0.0537749
0.0534325
0.052452
0.0508609
0.048711
0.0460351
0.0429129
0.0393919
0.0354924
0.0312327
0.0265804
0.0214914
0.0158832
0.00985293
0.00416952
0.000657165
0.000352002
6.54804e-11
3.67253e-08
2.8286e-06
9.17732e-06
7.97358e-06
6.87538e-06
6.91867e-06
7.04844e-06
7.0078e-06
6.90085e-06
6.79406e-06
6.6969e-06
6.60978e-06
6.53643e-06
6.48093e-06
6.44546e-06
6.42929e-06
6.42607e-06
6.4264e-06
6.42617e-06
6.42374e-06
6.41888e-06
6.4119e-06
6.40333e-06
6.3937e-06
6.38355e-06
6.37331e-06
6.36333e-06
6.35383e-06
6.34497e-06
6.33682e-06
6.3294e-06
6.32262e-06
6.31631e-06
6.31025e-06
6.30517e-06
6.29431e-06
0.0320555
0.0380286
0.0408075
0.0414624
0.0398004
0.0348021
0.0251631
0.0125415
0.00324795
9.04586e-07
0.00311972
0.0145102
0.0263037
0.0347795
0.0411039
0.0462089
0.0503315
0.0535594
0.0559523
0.0575646
0.0584464
0.058634
0.058159
0.0570458
0.0553253
0.0530243
0.0501878
0.0468626
0.0431435
0.0390619
0.0346135
0.029785
0.0244976
0.0186591
0.0122742
0.0059805
0.00160714
0.000666104
1.14155e-05
1.24691e-08
3.55376e-07
7.36415e-06
9.19334e-06
7.43485e-06
6.95333e-06
6.96034e-06
6.9204e-06
6.81552e-06
6.70635e-06
6.61318e-06
6.53923e-06
6.48608e-06
6.45428e-06
6.44154e-06
6.44026e-06
6.44163e-06
6.44182e-06
6.4394e-06
6.43428e-06
6.42691e-06
6.41791e-06
6.40789e-06
6.39738e-06
6.38684e-06
6.37658e-06
6.36683e-06
6.35772e-06
6.34929e-06
6.34156e-06
6.33441e-06
6.32765e-06
6.32105e-06
6.31551e-06
6.3034e-06
0.0363661
0.0413175
0.0439861
0.0449853
0.0442215
0.0408217
0.0332047
0.0210068
0.00850245
0.00111178
0.00232449
0.0128986
0.0250731
0.0343626
0.0413875
0.0471915
0.0520204
0.055944
0.0590064
0.0612582
0.062752
0.0635307
0.0636287
0.063071
0.06188
0.0600754
0.0576831
0.0547336
0.0512785
0.0473627
0.0431109
0.0385015
0.0335085
0.0280486
0.0219873
0.0152703
0.0084032
0.00299213
0.000224346
0.000192405
6.32649e-09
3.805e-08
2.61644e-06
8.54948e-06
8.02172e-06
7.0498e-06
6.85914e-06
6.80396e-06
6.71501e-06
6.62083e-06
6.54564e-06
6.49433e-06
6.46558e-06
6.45528e-06
6.45542e-06