/*--------------------------------*- C++ -*----------------------------------*\
| =========                 |                                                 |
| \\      /  F ield         | OpenFOAM: The Open Source CFD Toolbox           |
|  \\    /   O peration     | Version:  2312                                  |
|   \\  /    A nd           | Website:  www.openfoam.com                      |
|    \\/     M anipulation  |                                                 |
\*---------------------------------------------------------------------------*/
FoamFile
{
    version     2.0;
    format      ascii;
    arch        "LSB;label=32;scalar=64";
    class       volScalarField;
    location    "250";
    object      nuTilda;
}
// * * * * * * * * * * * * * * * * * * * * * * * * * * * * * * * * * * * * * //

dimensions      [0 2 -1 0 0 0 0];

internalField   nonuniform List<scalar> 
11040
(
8.71208e-05
7.95384e-05
7.98279e-05
0.000228947
0.000236317
0.000211993
0.000196575
0.000185781
0.000178291
0.000173625
0.000169111
0.0001667
0.000166101
0.000168091
0.000171976
0.000177586
0.000184979
0.000194916
0.000207083
0.000222423
0.000240765
0.000261888
0.000286741
0.00031673
0.000351913
0.000389158
0.000426798
0.000462936
0.00049601
0.000528577
0.000562978
0.000595222
0.000619841
0.000635223
0.000638259
0.000629329
0.000603737
0.000539486
0.000395701
0.000396027
0.000619451
5.08397e-05
8.45382e-05
0.000120361
0.000532181
0.00066245
0.000567235
0.00050447
0.0004591
0.00042447
0.000409303
0.000391912
0.000382157
0.000378576
0.000386818
0.000402924
0.000423914
0.000449131
0.000478026
0.000506968
0.000531171
0.000548998
0.000560717
0.000570806
0.000587498
0.000612588
0.000641539
0.000666966
0.00068317
0.000686806
0.000684375
0.000725473
0.000802264
0.000886151
0.00098179
0.00109034
0.00121272
0.00135101
0.00150851
0.00169423
0.00204123
0.0029682
3.67021e-05
5.65781e-05
7.07569e-05
0.000335536
0.000925807
0.00119876
0.00109675
0.00101169
0.000920291
0.000887935
0.000849616
0.000827493
0.000807884
0.000799815
0.000795833
0.000797035
0.000808007
0.000834492
0.000860891
0.000879023
0.000883892
0.000876636
0.000861444
0.000851153
0.000876849
0.000945639
0.00103643
0.00115064
0.00129024
0.00145203
0.00163193
0.00182982
0.00203919
0.0022638
0.00250506
0.00277394
0.00307985
0.00343778
0.00387214
0.00455945
0.00623997
3.92019e-05
4.34662e-05
4.01546e-05
0.000116621
0.000539578
0.00131667
0.00179916
0.00180332
0.00163047
0.00157348
0.00149843
0.00146196
0.00142409
0.00141189
0.00140887
0.00140757
0.00140491
0.00140294
0.0013997
0.00140046
0.00140165
0.00140948
0.00142938
0.00147692
0.00156255
0.00169362
0.00187105
0.00209131
0.00234881
0.00263884
0.00295406
0.00329247
0.0036479
0.00402418
0.00442484
0.00486992
0.00538427
0.00599133
0.00673717
0.00785369
0.0102342
4.02909e-05
4.07102e-05
3.85454e-05
2.98414e-05
0.000161247
0.000698977
0.00166686
0.00248823
0.00266758
0.00258249
0.00240439
0.00234571
0.0022816
0.00226624
0.00227039
0.00227809
0.00228681
0.00229472
0.00230131
0.00232014
0.00234684
0.00238652
0.00243702
0.00251113
0.00262567
0.0028049
0.00306577
0.00340202
0.00379933
0.00424679
0.00473137
0.00524515
0.00577919
0.00633476
0.00691719
0.00755567
0.00829579
0.00917448
0.0102686
0.0118523
0.0148292
4.03193e-05
3.98533e-05
4.16798e-05
2.94301e-05
1.97839e-05
0.000176483
0.000778926
0.00193544
0.00314813
0.00362485
0.00374423
0.00365874
0.00350304
0.00342776
0.00341868
0.00344326
0.00348303
0.00352836
0.00357051
0.0036337
0.00371251
0.00381003
0.00391285
0.00402489
0.00416293
0.00437207
0.00470799
0.00517429
0.00574
0.0063789
0.00706674
0.00778622
0.00852456
0.00927716
0.0100463
0.0108653
0.0118054
0.0129377
0.0143734
0.0164187
0.0199005
4.01865e-05
4.00545e-05
4.06101e-05
4.07618e-05
2.10532e-05
5.48305e-06
0.000146921
0.000755365
0.00202661
0.0036248
0.00463496
0.00498991
0.00507701
0.00507987
0.00504253
0.00503726
0.0050716
0.0051491
0.00525332
0.00538358
0.00551925
0.0056698
0.00584065
0.00603902
0.00627482
0.00657741
0.006994
0.00758132
0.00832718
0.00918262
0.0101011
0.0110466
0.0120023
0.0129538
0.0138899
0.0148374
0.0158848
0.017173
0.0188594
0.0212833
0.0252118
4.01428e-05
4.01899e-05
4.00267e-05
4.09299e-05
4.12307e-05
7.76097e-06
3.58653e-05
0.000105166
0.000635143
0.00189784
0.00376786
0.00549353
0.00625965
0.00662868
0.00676493
0.0068466
0.00690564
0.00699315
0.00710969
0.00727202
0.00748077
0.00773921
0.00804425
0.00841638
0.00886604
0.00941885
0.0100951
0.0108981
0.0118145
0.0128852
0.0140461
0.015218
0.0163799
0.0175082
0.0185605
0.0195348
0.0205203
0.0217269
0.0234244
0.0259915
0.0301985
4.01442e-05
4.01248e-05
4.02214e-05
3.97917e-05
4.24815e-05
3.72892e-05
1.32452e-05
2.30305e-05
3.94153e-05
0.000428553
0.0015426
0.00349333
0.00581126
0.0074749
0.00818542
0.00857426
0.00877674
0.00894188
0.00910383
0.00931986
0.0096168
0.0100139
0.0105028
0.0111071
0.0118431
0.0127398
0.0138128
0.0150481
0.0164075
0.0178382
0.0192616
0.0206297
0.0219407
0.0231824
0.0242647
0.0251118
0.0257709
0.0264999
0.0277365
0.0298686
0.0335986
4.01298e-05
4.01327e-05
4.01525e-05
4.00893e-05
4.01101e-05
4.23391e-05
3.68299e-05
1.79203e-05
1.16612e-05
1.3457e-05
0.000234005
0.00106119
0.0028472
0.00545031
0.00808587
0.00968341
0.0104098
0.010847
0.0111438
0.01146
0.0118686
0.0124286
0.013135
0.0140144
0.015086
0.0163801
0.017911
0.0196578
0.021565
0.0235527
0.0255299
0.0274125
0.0291107
0.0305152
0.031496
0.031962
0.0319059
0.0315822
0.0317714
0.0325232
0.0346283
4.01204e-05
4.0126e-05
4.01225e-05
4.01644e-05
4.00118e-05
4.0404e-05
4.14858e-05
3.87347e-05
2.18635e-05
7.63358e-06
3.73186e-05
5.66514e-05
0.000557921
0.00195293
0.00443386
0.00763447
0.0105365
0.0121734
0.0129791
0.0135515
0.0141108
0.0148376
0.0157632
0.0169283
0.0183471
0.0200426
0.0220191
0.0242427
0.0266395
0.0291032
0.0315097
0.0337277
0.0356209
0.037059
0.0379287
0.0381653
0.0377824
0.0368781
0.0356463
0.0343632
0.0336416
4.01121e-05
4.01152e-05
4.01199e-05
4.01231e-05
4.01328e-05
4.00781e-05
4.02633e-05
4.12787e-05
4.03071e-05
2.80791e-05
7.43175e-06
7.7461e-06
9.78424e-05
0.0002136
0.00105738
0.00302187
0.00615662
0.00992369
0.0131772
0.0150409
0.0161049
0.0170665
0.0181733
0.0195788
0.0213093
0.0233724
0.0257499
0.0283867
0.0311889
0.0340246
0.0367387
0.0391647
0.0411351
0.0424911
0.0430887
0.0428299
0.0417061
0.0397887
0.0372788
0.0345523
0.0320977
4.01044e-05
4.01069e-05
4.01103e-05
4.01146e-05
4.01184e-05
4.01232e-05
4.00956e-05
4.01614e-05
4.10226e-05
4.12087e-05
3.43683e-05
8.13298e-06
3.18993e-06
3.12655e-05
4.36466e-05
0.000418844
0.001599
0.00408951
0.00783346
0.0122276
0.0161015
0.0185396
0.0201409
0.0217591
0.0236733
0.0259799
0.0286627
0.0316336
0.034771
0.0379203
0.0409017
0.0435295
0.0456208
0.0470019
0.0475019
0.0469877
0.0453989
0.0427829
0.0392536
0.0350936
0.0307255
4.00973e-05
4.00989e-05
4.01018e-05
4.01052e-05
4.01093e-05
4.0112e-05
4.01229e-05
4.0087e-05
4.01248e-05
4.06619e-05
4.19646e-05
3.85227e-05
2.0461e-05
6.19532e-06
5.52968e-06
6.22938e-05
0.000102219
0.000598749
0.002038
0.00495884
0.00929887
0.0143262
0.0189481
0.0224946
0.025182
0.0277126
0.0304946
0.0335885
0.0369044
0.0402857
0.0435341
0.046436
0.0488088
0.0504994
0.0513543
0.0512449
0.0500755
0.0477758
0.0444181
0.0401044
0.0350703
4.00906e-05
4.00917e-05
4.0094e-05
4.00969e-05
4.01003e-05
4.01037e-05
4.01081e-05
4.01141e-05
4.00981e-05
4.00785e-05
4.0372e-05
4.18345e-05
4.01837e-05
3.3508e-05
6.97351e-06
3.60497e-06
1.09662e-05
8.39275e-05
0.000124887
0.000676486
0.00224918
0.00527542
0.00952902
0.0146495
0.0200562
0.0251575
0.029638
0.0335704
0.0371922
0.0406543
0.0439511
0.046969
0.049564
0.0516071
0.0529736
0.0535579
0.053283
0.0520269
0.0495909
0.0460239
0.0414635
4.00847e-05
4.00852e-05
4.0087e-05
4.00894e-05
4.00923e-05
4.00955e-05
4.0099e-05
4.01037e-05
4.0108e-05
4.01083e-05
4.00438e-05
4.02899e-05
4.09005e-05
4.18106e-05
3.81573e-05
2.8231e-05
7.59343e-06
1.95025e-06
1.28358e-05
8.45234e-05
8.93166e-05
0.000563475
0.00175671
0.00405957
0.0074523
0.011793
0.0167892
0.0220722
0.0272858
0.0321556
0.036509
0.0402492
0.0433193
0.0456917
0.0473217
0.0481631
0.0481892
0.0473489
0.0452614
0.0419867
0.0378761
4.00797e-05
4.00794e-05
4.00803e-05
4.00821e-05
4.00845e-05
4.00874e-05
4.00906e-05
4.00943e-05
4.00982e-05
4.01053e-05
4.01028e-05
4.00758e-05
4.01144e-05
4.0465e-05
4.13229e-05
4.14203e-05
3.65164e-05
2.27457e-05
6.78183e-06
1.84888e-06
8.75997e-06
5.39188e-05
0.000184952
0.000118205
0.000636091
0.00178551
0.00357618
0.00598505
0.00887535
0.0120429
0.0152613
0.0183087
0.020989
0.0231672
0.0247306
0.0256078
0.0257589
0.0252175
0.0240102
0.0222013
0.0200437
4.00754e-05
4.00741e-05
4.00745e-05
4.0076e-05
4.00782e-05
4.00806e-05
4.00834e-05
4.00865e-05
4.009e-05
4.00939e-05
4.01006e-05
4.01012e-05
4.00938e-05
4.00588e-05
4.02083e-05
4.07224e-05
4.18144e-05
4.09623e-05
3.58809e-05
2.14286e-05
6.53005e-06
2.09624e-06
0
1.0137e-05
5.36092e-05
0.000151733
2.24099e-05
0.000207037
0.000514136
0.00110302
0.00186095
0.00268906
0.00349833
0.00421197
0.00475592
0.00507806
0.00514427
0.00497856
0.00460434
0.00411636
0.00359152
4.00716e-05
4.00699e-05
4.00702e-05
4.00715e-05
4.00733e-05
4.00754e-05
4.00777e-05
4.00803e-05
4.00832e-05
4.00866e-05
4.00907e-05
4.00956e-05
4.01026e-05
4.00959e-05
4.00767e-05
4.0077e-05
4.03457e-05
4.10035e-05
4.17403e-05
4.07413e-05
3.49474e-05
2.48809e-05
7.0703e-06
2.36998e-06
1.53387e-06
1.28258e-07
1.76597e-06
1.60121e-05
3.90276e-05
8.21867e-05
0.000136113
0.000193072
0.000250662
2.25551e-05
0.000140365
0.000121133
0.000105298
0.000127374
0.000103725
8.94658e-05
9.30348e-05
4.00687e-05
4.00667e-05
4.00667e-05
4.00676e-05
4.00689e-05
4.00706e-05
4.00725e-05
4.00746e-05
4.00771e-05
4.008e-05
4.00833e-05
4.00873e-05
4.00923e-05
4.00985e-05
4.01015e-05
4.00868e-05
4.00667e-05
4.01273e-05
4.04239e-05
4.10714e-05
4.15775e-05
4.11493e-05
3.66513e-05
2.96963e-05
1.9607e-05
1.6724e-06
2.6735e-06
1.96695e-06
1.52292e-06
1.04693e-06
5.6706e-07
1.16666e-07
0
1.51884e-06
9.2766e-06
7.84922e-06
6.68007e-06
7.98322e-06
6.36356e-06
5.39209e-06
5.48384e-06
4.00667e-05
4.00642e-05
4.00637e-05
4.00641e-05
4.00649e-05
4.0066e-05
4.00675e-05
4.00693e-05
4.00713e-05
4.00737e-05
4.00766e-05
4.008e-05
4.00839e-05
4.00888e-05
4.00947e-05
4.01e-05
4.00977e-05
4.00821e-05
4.00739e-05
4.01405e-05
4.04381e-05
4.09975e-05
4.17704e-05
4.1609e-05
4.02229e-05
3.70194e-05
3.23964e-05
2.72743e-05
2.15595e-05
1.51287e-05
8.36301e-06
1.75581e-06
2.49923e-06
2.03712e-06
1.91375e-06
1.81358e-06
1.73061e-06
1.67927e-06
1.62988e-06
1.59688e-06
1.56388e-06
4.00653e-05
4.00622e-05
4.0061e-05
4.00609e-05
4.00612e-05
4.00619e-05
4.0063e-05
4.00644e-05
4.00661e-05
4.00681e-05
4.00705e-05
4.00734e-05
4.00768e-05
4.00808e-05
4.00854e-05
4.00909e-05
4.00968e-05
4.01008e-05
4.00984e-05
4.00837e-05
4.00735e-05
4.01283e-05
4.03893e-05
4.07889e-05
4.12291e-05
4.16304e-05
4.16425e-05
4.12524e-05
4.04222e-05
3.92e-05
3.7699e-05
3.60474e-05
3.43764e-05
3.27445e-05
3.13884e-05
3.03763e-05
2.96386e-05
2.91595e-05
2.89385e-05
2.88923e-05
2.89514e-05
4.00644e-05
4.00607e-05
4.00589e-05
4.00582e-05
4.00581e-05
4.00584e-05
4.00591e-05
4.00602e-05
4.00616e-05
4.00632e-05
4.00652e-05
4.00676e-05
4.00706e-05
4.0074e-05
4.0078e-05
4.00825e-05
4.00875e-05
4.00933e-05
4.00997e-05
4.01044e-05
4.00997e-05
4.0085e-05
4.00799e-05
4.01172e-05
4.02174e-05
4.03911e-05
4.06292e-05
4.09001e-05
4.11634e-05
4.13886e-05
4.15589e-05
4.16706e-05
4.17287e-05
4.17401e-05
4.16764e-05
4.15927e-05
4.15053e-05
4.14203e-05
4.13503e-05
4.12932e-05
4.12574e-05
4.0064e-05
4.00597e-05
4.00575e-05
4.00564e-05
4.00559e-05
4.0056e-05
4.00564e-05
4.00571e-05
4.00581e-05
4.00595e-05
4.00611e-05
4.0063e-05
4.00655e-05
4.00684e-05
4.00718e-05
4.00757e-05
4.008e-05
4.00848e-05
4.00902e-05
4.00967e-05
4.01033e-05
4.01071e-05
4.01053e-05
4.01004e-05
4.00973e-05
4.01019e-05
4.01209e-05
4.01612e-05
4.0225e-05
4.03087e-05
4.04065e-05
4.05117e-05
4.06184e-05
4.0723e-05
4.08196e-05
4.09055e-05
4.09777e-05
4.10395e-05
4.10888e-05
4.11276e-05
4.11549e-05
4.0064e-05
4.00594e-05
4.00569e-05
4.00555e-05
4.00549e-05
4.00546e-05
4.00548e-05
4.00552e-05
4.00559e-05
4.00569e-05
4.00581e-05
4.00597e-05
4.00616e-05
4.0064e-05
4.00669e-05
4.00702e-05
4.0074e-05
4.00782e-05
4.00828e-05
4.00879e-05
4.00937e-05
4.01002e-05
4.01064e-05
4.01118e-05
4.01158e-05
4.01181e-05
4.01188e-05
4.01191e-05
4.01207e-05
4.01249e-05
4.01325e-05
4.01438e-05
4.01585e-05
4.01761e-05
4.01959e-05
4.02172e-05
4.02389e-05
4.02608e-05
4.02822e-05
4.03023e-05
4.03206e-05
4.00643e-05
4.00597e-05
4.0057e-05
4.00555e-05
4.00546e-05
4.00541e-05
4.0054e-05
4.00542e-05
4.00546e-05
4.00552e-05
4.00562e-05
4.00573e-05
4.00589e-05
4.00608e-05
4.00632e-05
4.0066e-05
4.00693e-05
4.00729e-05
4.0077e-05
4.00814e-05
4.00862e-05
4.00916e-05
4.00974e-05
4.01037e-05
4.01103e-05
4.0117e-05
4.01235e-05
4.01297e-05
4.01355e-05
4.01409e-05
4.01461e-05
4.01511e-05
4.01564e-05
4.01618e-05
4.01677e-05
4.01741e-05
4.01812e-05
4.01886e-05
4.01967e-05
4.02048e-05
4.02143e-05
4.00649e-05
4.00604e-05
4.00577e-05
4.0056e-05
4.00549e-05
4.00541e-05
4.00537e-05
4.00535e-05
4.00537e-05
4.0054e-05
4.00547e-05
4.00556e-05
4.00568e-05
4.00583e-05
4.00603e-05
4.00627e-05
4.00655e-05
4.00687e-05
4.00722e-05
4.00761e-05
4.00804e-05
4.0085e-05
4.00901e-05
4.00955e-05
4.01013e-05
4.01075e-05
4.0114e-05
4.01208e-05
4.01279e-05
4.01351e-05
4.01424e-05
4.01498e-05
4.01572e-05
4.01647e-05
4.01722e-05
4.01798e-05
4.01875e-05
4.01953e-05
4.02033e-05
4.02109e-05
4.02195e-05
4.00658e-05
4.00617e-05
4.0059e-05
4.00571e-05
4.00556e-05
4.00545e-05
4.00537e-05
4.00532e-05
4.0053e-05
4.0053e-05
4.00534e-05
4.0054e-05
4.00549e-05
4.00561e-05
4.00578e-05
4.00598e-05
4.00622e-05
4.0065e-05
4.00681e-05
4.00716e-05
4.00754e-05
4.00795e-05
4.00841e-05
4.00889e-05
4.00941e-05
4.00996e-05
4.01053e-05
4.01113e-05
4.01176e-05
4.01241e-05
4.01308e-05
4.01377e-05
4.01448e-05
4.01519e-05
4.01592e-05
4.01666e-05
4.01741e-05
4.01816e-05
4.01894e-05
4.01967e-05
4.02048e-05
4.00671e-05
4.00638e-05
4.00611e-05
4.00589e-05
4.0057e-05
4.00554e-05
4.00542e-05
4.00533e-05
4.00527e-05
4.00524e-05
4.00523e-05
4.00526e-05
4.00532e-05
4.00541e-05
4.00554e-05
4.0057e-05
4.00591e-05
4.00615e-05
4.00643e-05
4.00674e-05
4.00707e-05
4.00745e-05
4.00786e-05
4.0083e-05
4.00877e-05
4.00927e-05
4.00979e-05
4.01033e-05
4.0109e-05
4.01149e-05
4.01209e-05
4.01272e-05
4.01335e-05
4.014e-05
4.01466e-05
4.01533e-05
4.01601e-05
4.01669e-05
4.0174e-05
4.01807e-05
4.01881e-05
4.00687e-05
4.00664e-05
4.00638e-05
4.00613e-05
4.00591e-05
4.00571e-05
4.00554e-05
4.00541e-05
4.0053e-05
4.00523e-05
4.00519e-05
4.00518e-05
4.00519e-05
4.00525e-05
4.00533e-05
4.00546e-05
4.00563e-05
4.00583e-05
4.00607e-05
4.00634e-05
4.00664e-05
4.00697e-05
4.00734e-05
4.00774e-05
4.00817e-05
4.00862e-05
4.0091e-05
4.0096e-05
4.01012e-05
4.01066e-05
4.01122e-05
4.01179e-05
4.01237e-05
4.01296e-05
4.01357e-05
4.01418e-05
4.01481e-05
4.01543e-05
4.01608e-05
4.01668e-05
4.01736e-05
4.00705e-05
4.00687e-05
4.00664e-05
4.00641e-05
4.00618e-05
4.00595e-05
4.00575e-05
4.00557e-05
4.00543e-05
4.00531e-05
4.00523e-05
4.00517e-05
4.00515e-05
4.00516e-05
4.0052e-05
4.00528e-05
4.0054e-05
4.00556e-05
4.00575e-05
4.00598e-05
4.00623e-05
4.00653e-05
4.00685e-05
4.00721e-05
4.0076e-05
4.00801e-05
4.00844e-05
4.0089e-05
4.00938e-05
4.00987e-05
4.01038e-05
4.01091e-05
4.01145e-05
4.01199e-05
4.01255e-05
4.01311e-05
4.01369e-05
4.01426e-05
4.01485e-05
4.01539e-05
4.01602e-05
4.00719e-05
4.00702e-05
4.00682e-05
4.00662e-05
4.00643e-05
4.00624e-05
4.00604e-05
4.00584e-05
4.00566e-05
4.0055e-05
4.00536e-05
4.00526e-05
4.00519e-05
4.00516e-05
4.00515e-05
4.00518e-05
4.00526e-05
4.00536e-05
4.00551e-05
4.00568e-05
4.00589e-05
4.00614e-05
4.00642e-05
4.00673e-05
4.00707e-05
4.00744e-05
4.00783e-05
4.00824e-05
4.00867e-05
4.00912e-05
4.00959e-05
4.01007e-05
4.01056e-05
4.01106e-05
4.01157e-05
4.01208e-05
4.0126e-05
4.01312e-05
4.01366e-05
4.01415e-05
4.01472e-05
4.00727e-05
4.00712e-05
4.00694e-05
4.00677e-05
4.00662e-05
4.00647e-05
4.00632e-05
4.00616e-05
4.00597e-05
4.00578e-05
4.00561e-05
4.00546e-05
4.00534e-05
4.00525e-05
4.0052e-05
4.00518e-05
4.0052e-05
4.00526e-05
4.00535e-05
4.00548e-05
4.00564e-05
4.00583e-05
4.00606e-05
4.00632e-05
4.00661e-05
4.00693e-05
4.00728e-05
4.00764e-05
4.00802e-05
4.00843e-05
4.00884e-05
4.00928e-05
4.00972e-05
4.01017e-05
4.01063e-05
4.01109e-05
4.01156e-05
4.01203e-05
4.01251e-05
4.01294e-05
4.01346e-05
4.00729e-05
4.00717e-05
4.00701e-05
4.00688e-05
4.00675e-05
4.00664e-05
4.00653e-05
4.00642e-05
4.00628e-05
4.00613e-05
4.00594e-05
4.00575e-05
4.00558e-05
4.00545e-05
4.00535e-05
4.00528e-05
4.00525e-05
4.00525e-05
4.00529e-05
4.00537e-05
4.00547e-05
4.00562e-05
4.00579e-05
4.006e-05
4.00624e-05
4.00651e-05
4.0068e-05
4.00711e-05
4.00745e-05
4.0078e-05
4.00817e-05
4.00855e-05
4.00894e-05
4.00934e-05
4.00974e-05
4.01015e-05
4.01057e-05
4.01098e-05
4.0114e-05
4.01177e-05
4.01222e-05
4.00726e-05
4.00715e-05
4.00703e-05
4.00693e-05
4.00684e-05
4.00677e-05
4.00669e-05
4.00661e-05
4.00652e-05
4.00642e-05
4.00629e-05
4.00612e-05
4.00593e-05
4.00575e-05
4.00559e-05
4.00548e-05
4.00539e-05
4.00534e-05
4.00533e-05
4.00535e-05
4.0054e-05
4.00549e-05
4.00562e-05
4.00577e-05
4.00596e-05
4.00617e-05
4.00641e-05
4.00667e-05
4.00695e-05
4.00725e-05
4.00756e-05
4.00789e-05
4.00823e-05
4.00857e-05
4.00892e-05
4.00927e-05
4.00963e-05
4.00997e-05
4.01034e-05
4.01064e-05
4.01103e-05
4.00717e-05
4.00708e-05
4.00699e-05
4.00692e-05
4.00687e-05
4.00684e-05
4.00681e-05
4.00677e-05
4.00671e-05
4.00664e-05
4.00655e-05
4.00644e-05
4.00629e-05
4.00611e-05
4.00592e-05
4.00575e-05
4.00561e-05
4.00551e-05
4.00545e-05
4.00542e-05
4.00542e-05
4.00546e-05
4.00553e-05
4.00563e-05
4.00576e-05
4.00592e-05
4.00611e-05
4.00631e-05
4.00654e-05
4.00678e-05
4.00704e-05
4.0073e-05
4.00758e-05
4.00787e-05
4.00816e-05
4.00845e-05
4.00874e-05
4.00902e-05
4.00932e-05
4.00956e-05
4.00988e-05
4.00702e-05
4.00695e-05
4.00689e-05
4.00685e-05
4.00685e-05
4.00685e-05
4.00685e-05
4.00685e-05
4.00683e-05
4.0068e-05
4.00674e-05
4.00666e-05
4.00656e-05
4.00644e-05
4.00627e-05
4.00607e-05
4.00589e-05
4.00575e-05
4.00564e-05
4.00556e-05
4.00551e-05
4.0055e-05
4.00552e-05
4.00556e-05
4.00564e-05
4.00575e-05
4.00588e-05
4.00603e-05
4.00619e-05
4.00638e-05
4.00658e-05
4.00679e-05
4.00701e-05
4.00723e-05
4.00746e-05
4.00769e-05
4.00791e-05
4.00813e-05
4.00836e-05
4.00853e-05
4.00878e-05
4.00681e-05
4.00676e-05
4.00673e-05
4.00673e-05
4.00675e-05
4.00679e-05
4.00682e-05
4.00685e-05
4.00686e-05
4.00686e-05
4.00684e-05
4.0068e-05
4.00673e-05
4.00664e-05
4.00653e-05
4.00638e-05
4.00619e-05
4.00601e-05
4.00585e-05
4.00573e-05
4.00564e-05
4.00558e-05
4.00555e-05
4.00555e-05
4.00558e-05
4.00563e-05
4.00571e-05
4.0058e-05
4.00592e-05
4.00605e-05
4.00619e-05
4.00634e-05
4.00649e-05
4.00666e-05
4.00682e-05
4.00698e-05
4.00715e-05
4.0073e-05
4.00745e-05
4.00756e-05
4.00774e-05
4.00653e-05
4.00651e-05
4.00651e-05
4.00653e-05
4.00658e-05
4.00664e-05
4.00669e-05
4.00674e-05
4.00678e-05
4.00681e-05
4.00682e-05
4.00681e-05
4.00678e-05
4.00673e-05
4.00666e-05
4.00655e-05
4.00642e-05
4.00624e-05
4.00605e-05
4.0059e-05
4.00577e-05
4.00567e-05
4.0056e-05
4.00556e-05
4.00555e-05
4.00555e-05
4.00558e-05
4.00562e-05
4.00568e-05
4.00576e-05
4.00584e-05
4.00594e-05
4.00603e-05
4.00614e-05
4.00624e-05
4.00634e-05
4.00643e-05
4.00652e-05
4.00661e-05
4.00664e-05
4.00675e-05
4.00618e-05
4.00619e-05
4.00621e-05
4.00626e-05
4.00632e-05
4.00639e-05
4.00645e-05
4.00652e-05
4.00657e-05
4.00662e-05
4.00666e-05
4.00668e-05
4.00668e-05
4.00667e-05
4.00663e-05
4.00656e-05
4.00647e-05
4.00635e-05
4.00619e-05
4.00602e-05
4.00586e-05
4.00573e-05
4.00563e-05
4.00555e-05
4.0055e-05
4.00546e-05
4.00545e-05
4.00545e-05
4.00546e-05
4.00549e-05
4.00552e-05
4.00556e-05
4.0056e-05
4.00565e-05
4.00569e-05
4.00573e-05
4.00576e-05
4.00578e-05
4.0058e-05
4.00577e-05
4.00581e-05
4.00577e-05
4.00579e-05
4.00584e-05
4.00589e-05
4.00596e-05
4.00602e-05
4.00609e-05
4.00616e-05
4.00622e-05
4.00629e-05
4.00634e-05
4.00639e-05
4.00642e-05
4.00643e-05
4.00643e-05
4.0064e-05
4.00635e-05
4.00627e-05
4.00617e-05
4.00604e-05
4.00588e-05
4.00573e-05
4.0056e-05
4.0055e-05
4.00541e-05
4.00534e-05
4.00529e-05
4.00525e-05
4.00523e-05
4.00521e-05
4.0052e-05
4.00519e-05
4.00518e-05
4.00517e-05
4.00516e-05
4.00515e-05
4.00512e-05
4.00509e-05
4.00504e-05
4.00497e-05
4.00494e-05
4.00528e-05
4.00532e-05
4.00537e-05
4.00542e-05
4.00548e-05
4.00553e-05
4.00559e-05
4.00566e-05
4.00573e-05
4.0058e-05
4.00586e-05
4.00593e-05
4.00598e-05
4.00602e-05
4.00605e-05
4.00605e-05
4.00604e-05
4.006e-05
4.00594e-05
4.00586e-05
4.00575e-05
4.00563e-05
4.00549e-05
4.00537e-05
4.00526e-05
4.00516e-05
4.00508e-05
4.00501e-05
4.00495e-05
4.0049e-05
4.00485e-05
4.0048e-05
4.00475e-05
4.0047e-05
4.00464e-05
4.00458e-05
4.00451e-05
4.00443e-05
4.00434e-05
4.00425e-05
4.00416e-05
4.00472e-05
4.00476e-05
4.0048e-05
4.00484e-05
4.00488e-05
4.00492e-05
4.00497e-05
4.00502e-05
4.00509e-05
4.00516e-05
4.00523e-05
4.0053e-05
4.00536e-05
4.00542e-05
4.00547e-05
4.0055e-05
4.00552e-05
4.00551e-05
4.00549e-05
4.00545e-05
4.00539e-05
4.00531e-05
4.00522e-05
4.00511e-05
4.005e-05
4.0049e-05
4.00481e-05
4.00473e-05
4.00465e-05
4.00458e-05
4.00451e-05
4.00444e-05
4.00437e-05
4.0043e-05
4.00423e-05
4.00416e-05
4.00409e-05
4.00403e-05
4.00399e-05
4.00397e-05
4.00396e-05
4.00407e-05
4.00411e-05
4.00414e-05
4.00415e-05
4.00417e-05
4.0042e-05
4.00423e-05
4.00427e-05
4.00432e-05
4.00437e-05
4.00443e-05
4.00449e-05
4.00456e-05
4.00462e-05
4.00468e-05
4.00473e-05
4.00477e-05
4.00479e-05
4.0048e-05
4.0048e-05
4.00478e-05
4.00476e-05
4.00472e-05
4.00467e-05
4.00461e-05
4.00455e-05
4.00448e-05
4.00441e-05
4.00435e-05
4.00429e-05
4.00424e-05
4.00419e-05
4.00416e-05
4.00414e-05
4.00413e-05
4.00415e-05
4.00418e-05
4.00423e-05
4.00431e-05
4.00441e-05
4.00453e-05
4.00334e-05
4.00337e-05
4.00337e-05
4.00337e-05
4.00337e-05
4.00338e-05
4.00339e-05
4.0034e-05
4.00342e-05
4.00345e-05
4.00348e-05
4.00352e-05
4.00356e-05
4.0036e-05
4.00365e-05
4.0037e-05
4.00375e-05
4.00378e-05
4.00381e-05
4.00383e-05
4.00383e-05
4.00383e-05
4.00382e-05
4.00381e-05
4.00379e-05
4.00377e-05
4.00374e-05
4.00372e-05
4.0037e-05
4.00369e-05
4.00369e-05
4.0037e-05
4.00372e-05
4.00375e-05
4.0038e-05
4.00387e-05
4.00396e-05
4.00407e-05
4.00421e-05
4.00436e-05
4.00452e-05
4.00251e-05
4.00252e-05
4.00251e-05
4.0025e-05
4.00249e-05
4.00248e-05
4.00247e-05
4.00245e-05
4.00243e-05
4.00241e-05
4.00239e-05
4.00238e-05
4.00237e-05
4.00238e-05
4.00239e-05
4.0024e-05
4.00242e-05
4.00245e-05
4.00249e-05
4.00253e-05
4.00258e-05
4.00263e-05
4.00268e-05
4.00273e-05
4.00278e-05
4.00284e-05
4.0029e-05
4.00297e-05
4.00304e-05
4.00312e-05
4.00321e-05
4.00331e-05
4.00342e-05
4.00355e-05
4.0037e-05
4.00386e-05
4.00405e-05
4.00425e-05
4.00448e-05
4.00472e-05
4.00499e-05
4.00158e-05
4.00158e-05
4.00157e-05
4.00157e-05
4.00156e-05
4.00154e-05
4.0015e-05
4.00145e-05
4.00138e-05
4.00128e-05
4.00118e-05
4.00113e-05
4.00112e-05
4.00116e-05
4.00124e-05
4.00133e-05
4.00141e-05
4.00146e-05
4.00149e-05
4.00149e-05
4.00148e-05
4.00146e-05
4.00144e-05
4.00143e-05
4.00142e-05
4.00142e-05
4.00144e-05
4.00147e-05
4.00153e-05
4.0016e-05
4.00169e-05
4.00181e-05
4.00194e-05
4.00209e-05
4.00226e-05
4.00245e-05
4.00266e-05
4.00289e-05
4.00315e-05
4.00342e-05
4.00369e-05
4.00055e-05
4.00055e-05
4.00055e-05
4.00055e-05
4.00055e-05
4.00055e-05
4.00053e-05
4.00048e-05
4.00042e-05
4.00029e-05
4.00023e-05
4.0003e-05
4.00048e-05
4.00077e-05
4.00115e-05
4.00163e-05
4.00211e-05
4.00255e-05
4.00294e-05
4.00326e-05
4.00351e-05
4.00369e-05
4.00379e-05
4.00383e-05
4.00381e-05
4.00373e-05
4.00358e-05
4.00338e-05
4.00323e-05
4.00314e-05
4.0031e-05
4.00311e-05
4.00318e-05
4.00329e-05
4.00344e-05
4.00364e-05
4.00388e-05
4.00415e-05
4.00447e-05
4.0048e-05
4.0052e-05
0.00632463
0.010134
0.0119757
0.0105178
0.00543367
0.000994394
7.39574e-05
6.73423e-06
3.7438e-05
1.41227e-05
0.000432392
0.00843357
0.0169295
0.0230906
0.0275179
0.0305327
0.0323816
0.033264
0.0333158
0.032636
0.0313079
0.0293995
0.0269805
0.0241089
0.0208402
0.0172221
0.0132825
0.0090637
0.00473227
0.00124485
0.000302742
1.86172e-06
1.88199e-05
4.71334e-05
4.76443e-05
4.1745e-05
3.92727e-05
3.96754e-05
4.06883e-05
4.12559e-05
4.13647e-05
4.13072e-05
4.12644e-05
4.12619e-05
4.12657e-05
4.12497e-05
4.12073e-05
4.1142e-05
4.10595e-05
4.0966e-05
4.08676e-05
4.07714e-05
4.06853e-05
4.0617e-05
4.05735e-05
4.05513e-05
4.05383e-05
4.05283e-05
4.05181e-05
4.05065e-05
4.04932e-05
4.04783e-05
4.04626e-05
4.04464e-05
4.04306e-05
4.04154e-05
4.04014e-05
4.03888e-05
4.03779e-05
4.03685e-05
4.03605e-05
4.03536e-05
4.0348e-05
4.0338e-05
0.0104766
0.0146037
0.0164683
0.0152489
0.0100599
0.00321023
0.000230793
7.23906e-06
3.02901e-06
4.68332e-05
0.00164989
0.0113206
0.0202791
0.0264855
0.0308916
0.0339258
0.0358511
0.0368514
0.0370505
0.0365359
0.035381
0.0336461
0.031395
0.0286837
0.0255643
0.0220856
0.0182738
0.0141368
0.00966745
0.00502034
0.0012828
0.000365051
4.86477e-06
1.41562e-05
4.64391e-05
4.76415e-05
4.16804e-05
3.95151e-05
4.01279e-05
4.10605e-05
4.14688e-05
4.14985e-05
4.14332e-05
4.13911e-05
4.13671e-05
4.13312e-05
4.12699e-05
4.11851e-05
4.10837e-05
4.09742e-05
4.08643e-05
4.07624e-05
4.06766e-05
4.0615e-05
4.05815e-05
4.05661e-05
4.0557e-05
4.05491e-05
4.054e-05
4.05287e-05
4.05153e-05
4.05002e-05
4.04841e-05
4.04676e-05
4.04514e-05
4.04359e-05
4.04215e-05
4.04086e-05
4.03972e-05
4.03873e-05
4.03787e-05
4.03711e-05
4.03649e-05
4.03531e-05
0.0145241
0.0192675
0.0213126
0.0204072
0.0156389
0.00744035
0.00136346
0.000126762
7.09863e-07
9.07163e-05
0.00275285
0.0134412
0.0228699
0.0292652
0.0337925
0.0369904
0.0391277
0.0403715
0.0408288
0.0405744
0.0396786
0.0381903
0.0361682
0.033664
0.0307268
0.0274086
0.0237396
0.0197314
0.0153656
0.0105972
0.0056124
0.00156655
0.000480271
3.53674e-06
4.48918e-06
4.24115e-05
4.8074e-05
4.21077e-05
3.97677e-05
4.04442e-05
4.13373e-05
4.16468e-05
4.16219e-05
4.15373e-05
4.14718e-05
4.14084e-05
4.13259e-05
4.12213e-05
4.11019e-05
4.0978e-05
4.08591e-05
4.07544e-05
4.0672e-05
4.06181e-05
4.05943e-05
4.05844e-05
4.05785e-05
4.05722e-05
4.05636e-05
4.05524e-05
4.05387e-05
4.05232e-05
4.05066e-05
4.04897e-05
4.04731e-05
4.04572e-05
4.04425e-05
4.04291e-05
4.04172e-05
4.04068e-05
4.03976e-05
4.03892e-05
4.03823e-05
4.03687e-05
0.0185308
0.0240912
0.0263977
0.0258488
0.0217212
0.0133977
0.0043417
0.000396579
2.28286e-05
0.000133243
0.00348158
0.0148416
0.0248047
0.0315193
0.0362954
0.0397901
0.0422617
0.0438648
0.0446805
0.0447682
0.0442097
0.0430332
0.0412948
0.0390383
0.0363203
0.0331892
0.0296783
0.0258138
0.0215947
0.0169734
0.011897
0.0065664
0.00207664
0.000665698
3.38075e-05
1.09753e-05
3.40287e-05
4.85561e-05
4.40879e-05
4.0501e-05
4.06607e-05
4.14873e-05
4.17683e-05
4.17091e-05
4.15905e-05
4.14843e-05
4.13752e-05
4.12509e-05
4.11152e-05
4.09793e-05
4.08542e-05
4.07495e-05
4.06725e-05
4.06274e-05
4.06112e-05
4.06057e-05
4.06023e-05
4.0597e-05
4.05887e-05
4.05771e-05
4.0563e-05
4.0547e-05
4.05299e-05
4.05125e-05
4.04954e-05
4.04791e-05
4.0464e-05
4.04502e-05
4.04378e-05
4.04268e-05
4.04168e-05
4.04076e-05
4.04e-05
4.03844e-05
0.0226926
0.0289894
0.0315434
0.0313888
0.0280145
0.0203951
0.00965066
0.00204405
3.44977e-05
0.000168881
0.00377268
0.0154997
0.0260703
0.0332371
0.0383899
0.0423313
0.0452666
0.0473269
0.048591
0.049116
0.0489616
0.0481602
0.0467547
0.0447766
0.0423201
0.039405
0.0360756
0.0323728
0.0283076
0.0238676
0.0189961
0.0136394
0.00797284
0.00289623
0.000152452
0.000143414
8.38785e-06
9.23154e-06
4.16137e-05
4.57966e-05
4.19172e-05
4.10376e-05
4.15613e-05
4.18146e-05
4.17347e-05
4.15758e-05
4.14239e-05
4.12755e-05
4.1125e-05
4.09799e-05
4.08513e-05
4.07488e-05
4.06784e-05
4.06418e-05
4.06315e-05
4.06295e-05
4.06279e-05
4.06232e-05
4.06148e-05
4.06028e-05
4.05881e-05
4.05714e-05
4.05538e-05
4.05359e-05
4.05183e-05
4.05016e-05
4.0486e-05
4.04718e-05
4.04589e-05
4.04472e-05
4.04366e-05
4.04265e-05
4.04181e-05
4.04005e-05
0.0272329
0.0337469
0.0364753
0.036735
0.0341914
0.0277489
0.0169195
0.00598054
0.000785159
0.000232304
0.00363338
0.015389
0.0266023
0.0343566
0.0400451
0.0445236
0.0480119
0.0506168
0.0524093
0.053445
0.0537749
0.0534325
0.052452
0.0508609
0.048711
0.0460351
0.0429129
0.0393919
0.0354924
0.0312327
0.0265804
0.0214914
0.0158832
0.00985293
0.00416954
0.00065799
0.000354822
2.20026e-06
1.07166e-05
3.24518e-05
4.50657e-05
4.32497e-05
4.14441e-05
4.15185e-05
4.17397e-05
4.16707e-05
4.14879e-05
4.13036e-05
4.11344e-05
4.09814e-05
4.08517e-05
4.07528e-05
4.06894e-05
4.06604e-05
4.06547e-05
4.06553e-05
4.06548e-05
4.06505e-05
4.06418e-05
4.06292e-05
4.06138e-05
4.05965e-05
4.05782e-05
4.05598e-05
4.05417e-05
4.05246e-05
4.05086e-05
4.04938e-05
4.04804e-05
4.04681e-05
4.04567e-05
4.04457e-05
4.04365e-05
4.04167e-05
0.0320555
0.0380286
0.0408075
0.0414624
0.0398004
0.0348021
0.0251631
0.0125415
0.00324798
2.40831e-05
0.00311975
0.0145102
0.0263037
0.0347795
0.0411039
0.0462089
0.0503315
0.0535594
0.0559523
0.0575646
0.0584464
0.058634
0.058159
0.0570458
0.0553253
0.0530243
0.0501878
0.0468626
0.0431435
0.0390619
0.0346135
0.029785
0.0244976
0.0186591
0.0122742
0.00598051
0.00160728
0.000666908
4.81091e-05
8.17652e-06
1.89744e-05
4.22678e-05
4.50889e-05
4.23841e-05
4.15778e-05
4.15898e-05
4.15214e-05
4.13408e-05
4.1151e-05
4.09874e-05
4.08566e-05
4.0762e-05
4.07052e-05
4.06824e-05
4.06801e-05
4.06826e-05
4.06829e-05
4.06786e-05
4.06694e-05
4.06562e-05
4.064e-05
4.0622e-05
4.06031e-05
4.05841e-05
4.05656e-05
4.05481e-05
4.05316e-05
4.05164e-05
4.05024e-05
4.04895e-05
4.04772e-05
4.04653e-05
4.04552e-05
4.04332e-05
0.0363661
0.0413175
0.0439861
0.0449853
0.0442215
0.0408217
0.0332047
0.0210068
0.00850245
0.00111207
0.00232456
0.0128986
0.0250731
0.0343626
0.0413875
0.0471915
0.0520204
0.055944
0.0590064
0.0612582
0.062752
0.0635307
0.0636287
0.063071
0.06188
0.0600754
0.0576831
0.0547336
0.0512785
0.0473627
0.0431109
0.0385015
0.0335085
0.0280486
0.0219873
0.0152703
0.00840321
0.00299217
0.000230871
0.000200898
6.89976e-06
1.08122e-05
3.17833e-05
4.41372e-05
4.33253e-05
4.1742e-05
4.14161e-05
4.13208e-05
4.11661e-05
4.10009e-05
4.0868e-05
4.07767e-05
4.07254e-05
4.0707e-05