/*--------------------------------*- C++ -*----------------------------------*\
| =========                 |                                                 |
| \\      /  F ield         | OpenFOAM: The Open Source CFD Toolbox           |
|  \\    /   O peration     | Version:  2312                                  |
|   \\  /    A nd           | Website:  www.openfoam.com                      |
|    \\/     M anipulation  |                                                 |
\*---------------------------------------------------------------------------*/
FoamFile
{
    version     2.0;
    format      ascii;
    arch        "LSB;label=32;scalar=64";
    class       volScalarField;
    location    "250";
    object      p;
}
// * * * * * * * * * * * * * * * * * * * * * * * * * * * * * * * * * * * * * //

dimensions      [0 2 -2 0 0 0 0];

internalField   nonuniform List<scalar> 
11040
(
-34.684
-33.0797
-30.7915
-30.8797
-30.4465
-30.126
-29.8782
-29.697
-29.5573
-29.4333
-29.331
-29.2566
-29.1971
-29.1737
-29.1781
-29.2281
-29.3228
-29.4959
-29.7573
-30.1675
-30.7375
-31.4615
-32.3339
-33.3891
-34.6148
-35.9751
-37.4057
-38.8687
-40.2188
-41.4017
-42.23
-42.6592
-42.4735
-41.6217
-39.9349
-37.5168
-34.49
-31.059
-27.2149
-24.1761
-25.3362
-20.0521
-25.5979
-30.2924
-30.6499
-30.4634
-30.1421
-29.8915
-29.7047
-29.5638
-29.4378
-29.3317
-29.2546
-29.1919
-29.1639
-29.1644
-29.2092
-29.2984
-29.4633
-29.7155
-30.1146
-30.674
-31.3877
-32.2496
-33.2944
-34.5113
-35.8651
-37.2943
-38.7604
-40.1237
-41.3251
-42.1812
-42.641
-42.494
-41.6826
-40.0452
-37.6742
-34.6905
-31.3014
-27.5293
-24.5872
-26.1313
-10.9835
-18.1717
-26.4244
-30.0006
-30.3117
-30.1334
-29.8942
-29.7001
-29.5613
-29.4363
-29.3273
-29.2489
-29.1848
-29.153
-29.1514
-29.1919
-29.2776
-29.435
-29.6793
-30.066
-30.6139
-31.3192
-32.1725
-33.2069
-34.4145
-35.7603
-37.1864
-38.6511
-40.0232
-41.236
-42.115
-42.5998
-42.4924
-41.7261
-40.1492
-37.8394
-34.9168
-31.5887
-27.9212
-25.1048
-26.7685
-6.05401
-13.7701
-20.9404
-27.0134
-29.6795
-29.9706
-29.8798
-29.6911
-29.5525
-29.4293
-29.3151
-29.2342
-29.1681
-29.1306
-29.1263
-29.1612
-29.2438
-29.3939
-29.6312
-30.0056
-30.5415
-31.2383
-32.0847
-33.1105
-34.3093
-35.6478
-37.0722
-38.5364
-39.9206
-41.1485
-42.0592
-42.5778
-42.5245
-41.8185
-40.3215
-38.0919
-35.2507
-31.9995
-28.4603
-25.7861
-27.1782
-2.05131
-9.02686
-15.8748
-22.2078
-26.9923
-29.2594
-29.6217
-29.673
-29.5537
-29.429
-29.2996
-29.2145
-29.146
-29.1006
-29.0917
-29.1181
-29.1948
-29.3351
-29.5631
-29.9222
-30.4439
-31.1299
-31.9679
-32.9839
-34.1737
-35.5057
-36.9308
-38.3983
-39.8005
-41.0516
-42.0045
-42.5703
-42.5885
-41.9641
-40.5723
-38.4499
-35.7176
-32.5678
-29.183
-26.6543
-27.4632
0.515985
-5.16964
-11.3567
-17.4295
-22.6402
-26.5522
-28.6906
-29.3201
-29.4932
-29.4467
-29.296
-29.1944
-29.1212
-29.0657
-29.0522
-29.0682
-29.1375
-29.2659
-29.4821
-29.8234
-30.328
-31.0007
-31.829
-32.8347
-34.0147
-35.3409
-36.7678
-38.2428
-39.6682
-40.9522
-41.9589
-42.5889
-42.6989
-42.183
-40.926
-38.9436
-36.3514
-33.3306
-30.1217
-27.712
-27.7518
2.17751
-2.45243
-7.59088
-13.0321
-18.1866
-22.5141
-25.8868
-28.0462
-29.0106
-29.2335
-29.3112
-29.1984
-29.1066
-29.0248
-29.0069
-29.0115
-29.0729
-29.1875
-29.3895
-29.71
-30.1939
-30.8499
-31.665
-32.6579
-33.8267
-35.1472
-36.5776
-38.0662
-39.5227
-40.8539
-41.93
-42.6476
-42.8746
-42.5021
-41.4163
-39.6152
-37.1984
-34.3379
-31.3176
-28.9661
-28.181
3.20324
-0.603406
-4.77345
-9.31085
-14.0037
-18.3963
-22.1165
-25.105
-27.3011
-28.5261
-28.9058
-29.1183
-29.1269
-29.0052
-28.9677
-28.9491
-29.0024
-29.1024
-29.2887
-29.5862
-30.046
-30.6808
-31.479
-32.457
-33.6139
-34.9292
-36.366
-37.8748
-39.373
-40.7671
-41.9344
-42.7671
-43.1445
-42.9561
-42.0881
-40.516
-38.3182
-35.6517
-32.8189
-30.438
-28.8772
3.77346
0.59821
-2.80277
-6.49718
-10.4433
-14.4665
-18.2755
-21.5697
-24.2795
-26.4271
-27.8226
-28.547
-28.7904
-28.988
-28.9748
-28.908
-28.9355
-29.0105
-29.1805
-29.4531
-29.8846
-30.4928
-31.2695
-32.2297
-33.3748
-34.6876
-36.1367
-37.6746
-39.2284
-40.7052
-41.9911
-42.9732
-43.541
-43.5847
-42.9902
-41.7051
-39.7777
-37.3426
-34.6804
-32.1859
-29.9738
4.01537
1.32535
-1.47498
-4.49493
-7.73504
-11.1412
-14.612
-17.9598
-20.9377
-23.4263
-25.4341
-26.9686
-27.947
-28.4369
-28.7084
-28.9109
-28.9239
-28.9413
-29.0743
-29.3122
-29.7127
-30.2903
-31.0415
-31.9823
-33.1175
-34.4338
-35.9028
-37.4855
-39.1106
-40.6983
-42.1324
-43.3085
-44.1106
-44.4428
-44.1801
-43.2488
-41.6487
-39.4861
-36.9678
-34.3172
-31.6182
4.01686
1.70774
-0.637128
-3.1231
-5.78713
-8.61177
-11.5589
-14.5662
-17.5147
-20.2253
-22.5322
-24.4308
-25.9943
-27.1678
-27.9342
-28.3561
-28.6941
-28.9423
-29.0409
-29.2018
-29.5444
-30.079
-30.8028
-31.7264
-32.8565
-34.1839
-35.6904
-37.3317
-39.0597
-40.7814
-42.4112
-43.8212
-44.921
-45.5906
-45.7296
-45.2148
-44.0172
-42.1641
-39.7793
-36.989
-33.9697
3.84789
1.83952
-0.155408
-2.22754
-4.42899
-6.7672
-9.23063
-11.7892
-14.3992
-16.991
-19.4429
-21.6222
-23.4593
-24.9947
-26.266
-27.2392
-27.9142
-28.358
-28.7973
-29.1799
-29.4821
-29.9225
-30.5848
-31.4757
-32.6051
-33.9596
-35.5181
-37.2505
-39.1006
-41.0016
-42.8554
-44.5615
-46.0013
-47.0785
-47.6663
-47.6497
-46.9248
-45.4533
-43.2386
-40.4043
-37.1864
3.5616
1.79565
0.0732002
-1.68048
-3.5179
-5.4599
-7.51243
-9.66465
-11.8929
-14.1622
-16.4288
-18.6333
-20.6885
-22.4982
-24.0277
-25.3275
-26.423
-27.3033
-27.9777
-28.522
-29.1606
-29.8725
-30.5639
-31.3791
-32.4507
-33.7981
-35.3949
-37.2256
-39.222
-41.33
-43.4439
-45.4823
-47.3101
-48.8383
-49.9205
-50.4356
-50.2271
-49.191
-47.2333
-44.4785
-41.1507
3.19973
1.6335
0.127377
-1.37892
-2.93311
-4.55996
-6.27391
-8.076
-9.96016
-11.9043
-13.8805
-15.8647
-17.8349
-19.7411
-21.5094
-23.0725
-24.4193
-25.599
-26.6358
-27.5401
-28.3457
-29.0993
-30.0508
-31.2682
-32.5876
-33.9732
-35.5595
-37.3896
-39.4611
-41.6777
-43.9911
-46.2743
-48.4502
-50.3557
-51.8845
-52.8408
-53.088
-52.4535
-50.8181
-48.2136
-44.828
2.79451
1.39702
0.0675327
-1.24234
-2.57451
-3.95185
-5.39321
-6.90442
-8.4892
-10.1386
-11.8377
-13.5669
-15.3156
-17.0671
-18.804
-20.4908
-22.0791
-23.5271
-24.843
-26.0728
-27.2852
-28.377
-29.3735
-30.482
-31.8423
-33.5548
-35.5686
-37.7565
-40.0174
-42.339
-44.7047
-47.0792
-49.3509
-51.4076
-53.0883
-54.2469
-54.6979
-54.276
-52.8102
-50.2513
-46.7461
2.37617
1.12454
-0.0573878
-1.20828
-2.36387
-3.54405
-4.76723
-6.04228
-7.37664
-8.76785
-10.2123
-11.6993
-13.223
-14.7677
-16.3263
-17.8905
-19.4569
-21.011
-22.5381
-24.0241
-25.5196
-26.9791
-28.3683
-29.7983
-31.3521
-33.085
-35.0098
-37.1442
-39.4707
-41.9624
-44.5241
-47.057
-49.4084
-51.4632
-53.0658
-54.0947
-54.421
-53.9386
-52.4431
-49.8096
-46.2363
1.9777
0.855192
-0.199936
-1.2188
-2.23118
-3.2538
-4.30279
-5.3875
-6.517
-7.69146
-8.91211
-10.1751
-11.4809
-12.82
-14.1856
-15.568
-16.9664
-18.3815
-19.8228
-21.2989
-22.828
-24.3778
-25.9262
-27.5266
-29.226
-31.0584
-33.0188
-35.1058
-37.2848
-39.5259
-41.7456
-43.8646
-45.749
-47.2947
-48.3516
-48.7986
-48.4864
-47.3437
-45.3493
-42.5446
-39.1199
1.62719
0.614292
-0.334794
-1.24622
-2.14447
-3.04397
-3.95822
-4.89561
-5.86516
-6.86873
-7.90867
-8.98422
-10.0982
-11.2464
-12.4263
-13.631
-14.8567
-16.1005
-17.3642
-18.6546
-19.9812
-21.3177
-22.6421
-23.973
-25.3224
-26.712
-28.1426
-29.6148
-31.0953
-32.5528
-33.9182
-35.1315
-36.0983
-36.7504
-36.9974
-36.7882
-36.0747
-34.8555
-33.1426
-30.9984
-28.519
1.33059
0.409332
-0.451633
-1.27491
-2.08089
-2.88222
-3.69044
-4.51324
-5.35849
-6.22928
-7.12771
-8.05414
-9.01126
-9.99775
-11.0127
-12.0528
-13.1152
-14.1965
-15.2938
-16.4058
-17.5309
-18.6345
-19.6899
-20.7084
-21.6908
-22.6452
-23.5646
-24.4454
-25.2642
-26.004
-26.6261
-27.1029
-27.3905
-27.4619
-27.2826
-26.8429
-26.1364
-25.1701
-23.9595
-22.544
-20.9667
1.08523
0.242609
-0.542919
-1.29192
-2.02088
-2.74141
-3.46315
-4.19329
-4.93809
-5.7014
-6.4849
-7.28951
-8.11715
-8.96745
-9.83967
-10.7321
-11.6419
-12.5665
-13.5022
-14.4467
-15.3953
-16.3148
-17.1774
-17.9865
-18.7352
-19.4248
-20.0462
-20.5961
-21.0581
-21.4242
-21.6743
-21.7991
-21.7809
-21.613
-21.2858
-20.8019
-20.1661
-19.3837
-18.4706
-17.4495
-16.3441
0.882272
0.109481
-0.610695
-1.295
-1.95826
-2.6098
-3.25895
-3.9114
-4.57292
-5.24648
-5.93426
-6.6371
-7.35614
-8.09136
-8.84129
-9.60542
-10.3799
-11.1635
-11.9502
-12.7387
-13.5204
-14.2696
-14.9602
-15.5949
-16.1625
-16.6648
-17.0914
-17.4425
-17.7059
-17.8807
-17.9561
-17.9313
-17.8003
-17.5637
-17.2219
-16.7798
-16.2463
-15.6266
-14.9363
-14.1887
-13.4026
0.716457
0.00494867
-0.656638
-1.28444
-1.88966
-2.4817
-3.06788
-3.65407
-4.24443
-4.84199
-5.44848
-6.06475
-6.69172
-7.32861
-7.97456
-8.62753
-9.28579
-9.94538
-10.6031
-11.2531
-11.8907
-12.4893
-13.0339
-13.5197
-13.9439
-14.3013
-14.5913
-14.8086
-14.9529
-15.0198
-15.0097
-14.9215
-14.7571
-14.5185
-14.2096
-13.8372
-13.4075
-12.9285
-12.4081
-11.859
-11.2873
0.580709
-0.0750028
-0.684422
-1.26136
-1.81538
-2.35461
-2.88586
-3.41412
-3.94303
-4.47504
-5.01146
-5.55321
-6.10093
-6.65361
-7.2101
-7.7682
-8.32611
-8.88004
-9.42674
-9.96043
-10.4763
-10.9523
-11.3775
-11.7481
-12.062
-12.3155
-12.5095
-12.6414
-12.7121
-12.7212
-12.6704
-12.5615
-12.3974
-12.1822
-11.9192
-11.6154
-11.2752
-10.9048
-10.5085
-10.0959
-9.66982
0.471344
-0.134656
-0.696609
-1.22792
-1.73588
-2.22817
-2.71065
-3.18793
-3.66298
-4.13783
-4.61353
-5.09074
-5.57005
-6.05018
-6.53011
-7.00709
-7.47975
-7.94409
-8.39754
-8.83418
-9.25013
-9.62714
-9.95812
-10.24
-10.4718
-10.6513
-10.78
-10.8574
-10.8851
-10.8645
-10.7977
-10.6882
-10.5382
-10.3527
-10.1338
-9.88851
-9.61869
-9.3307
-9.0263
-8.71335
-8.39247
0.383046
-0.176833
-0.696175
-1.18595
-1.65257
-2.10262
-2.5417
-2.9737
-3.40125
-3.82599
-4.24867
-4.66983
-5.08963
-5.50743
-5.9214
-6.32971
-6.72982
-7.1194
-7.49468
-7.8521
-8.18648
-8.48525
-8.74203
-8.95678
-9.12745
-9.25469
-9.3391
-9.38217
-9.3856
-9.35132
-9.28241
-9.18109
-9.05145
-8.8953
-8.71768
-8.52055
-8.30926
-8.08421
-7.85101
-7.61075
-7.36835
0.313442
-0.205236
-0.685348
-1.13749
-1.56656
-1.97862
-2.37872
-2.77036
-3.15575
-3.53628
-3.9125
-4.28468
-4.653
-5.01681
-5.37445
-5.72412
-6.06343
-6.39026
-6.70144
-6.9939
-7.26343
-7.50016
-7.70027
-7.8641
-7.99074
-8.081
-8.13642
-8.15853
-8.14953
-8.11118
-8.04677
-7.95806
-7.84882
-7.72042
-7.57712
-7.42014
-7.25378
-7.07805
-6.89743
-6.71221
-6.52638
0.258643
-0.221588
-0.666387
-1.08406
-1.4791
-1.85677
-2.22185
-2.57735
-2.92524
-3.26666
-3.60202
-3.93151
-4.25512
-4.57231
-4.88167
-5.18156
-5.46977
-5.74442
-6.00294
-6.24276
-6.46064
-6.64883
-6.80558
-6.93129
-7.02603
-7.09051
-7.12695
-7.13642
-7.12179
-7.08417
-7.02696
-6.95116
-6.86059
-6.75583
-6.64074
-6.51575
-6.38464
-6.24688
-6.10631
-5.96255
-5.8191
0.217056
-0.228872
-0.640731
-1.02717
-1.39116
-1.73775
-2.0712
-2.3943
-2.70873
-3.01545
-3.31485
-3.60696
-3.89172
-4.16862
-4.43668
-4.69427
-4.93964
-5.17095
-5.38634
-5.58362
-5.76041
-5.91083
-6.03426
-6.13165
-6.203
-6.24984
-6.27354
-6.27636
-6.25959
-6.22577
-6.1761
-6.11344
-6.03882
-5.95491
-5.86243
-5.76407
-5.66026
-5.55304
-5.44277
-5.33172
-5.21987
0.185771
-0.227905
-0.61036
-0.96798
-1.30373
-1.62205
-1.92694
-2.22088
-2.50537
-2.78125
-3.04885
-3.3082
-3.55912
-3.80129
-4.03391
-4.25565
-4.46501
-4.66046
-4.84051
-5.00355
-5.14775
-5.26879
-5.36684
-5.4431
-5.49774
-5.53237
-5.54828
-5.54766
-5.53155
-5.50227
-5.46077
-5.40949
-5.34917
-5.28199
-5.20844
-5.13071
-5.04899
-4.96495
-4.87871
-4.79217
-4.70508
0.163674
-0.221306
-0.576055
-0.907638
-1.2175
-1.51013
-1.78914
-2.0568
-2.31445
-2.56285
-2.8023
-3.03285
-3.25433
-3.4665
-3.66869
-3.85999
-4.03907
-4.2048
-4.35587
-4.49132
-4.60959
-4.70783
-4.78645
-4.84708
-4.8896
-4.91601
-4.92711
-4.92523
-4.91091
-4.8865
-4.85247
-4.8111
-4.76268
-4.70927
-4.65098
-4.58977
-4.52551
-4.45977
-4.39233
-4.32499
-4.2572
0.148641
-0.209199
-0.53943
-0.84671
-1.13308
-1.40229
-1.65782
-1.90174
-2.13528
-2.35913
-2.57361
-2.77879
-2.97457
-3.16069
-3.33678
-3.50212
-3.65578
-3.79671
-3.9241
-4.03704
-4.13486
-4.21502
-4.27901
-4.32761
-4.3617
-4.38208
-4.39069
-4.38834
-4.37677
-4.35661
-4.32966
-4.29637
-4.2584
-4.21593
-4.17057
-4.12232
-4.0726
-4.02106
-3.96914
-3.91665
-3.86469
0.13999
-0.193792
-0.500675
-0.786206
-1.05091
-1.29876
-1.53294
-1.75536
-1.96715
-2.16899
-2.36124
-2.54397
-2.71721
-2.88069
-3.03425
-3.17744
-3.30958
-3.42982
-3.53765
-3.63244
-3.71377
-3.77986
-3.83241
-3.87212
-3.89991
-3.9165
-3.92358
-3.92181
-3.91279
-3.89696
-3.87589
-3.84984
-3.82027
-3.7872
-3.75201
-3.71458
-3.67617
-3.63637
-3.59639
-3.55609
-3.51623
0.13605
-0.174949
-0.461299
-0.726307
-0.971397
-1.19969
-1.41438
-1.61728
-1.8094
-1.99147
-2.16381
-2.32663
-2.47999
-2.62369
-2.75778
-2.88196
-2.99584
-3.09871
-3.19035
-3.27017
-3.33824
-3.39309
-3.43675
-3.46965
-3.49284
-3.50672
-3.51307
-3.5122
-3.50569
-3.4937
-3.4777
-3.45771
-3.43509
-3.40971
-3.38282
-3.35416
-3.32489
-3.29453
-3.2642
-3.23374
-3.20363
0.136409
-0.154432
-0.421089
-0.667873
-0.894646
-1.10509
-1.30199
-1.48709
-1.66139
-1.82558
-1.98008
-2.12513
-2.26087
-2.38728
-2.50439
-2.61219
-2.71038
-2.79865
-2.8766
-2.94427
-3.00141
-3.04747
-3.0839
-3.11179
-3.13129
-3.14362
-3.1494
-3.14986
-3.14533
-3.13694
-3.12491
-3.11028
-3.09312
-3.07437
-3.05396
-3.03281
-3.01068
-2.98838
-2.9655
-2.94341
-2.92082
0.139785
-0.131975
-0.381387
-0.610753
-0.821056
-1.01504
-1.19563
-1.36443
-1.52247
-1.67045
-1.80884
-1.93796
-2.05804
-2.16913
-2.27135
-2.36488
-2.44958
-2.52531
-2.59183
-2.64922
-2.69737
-2.7361
-2.76684
-2.79057
-2.80741
-2.81839
-2.82405
-2.8255
-2.82299
-2.81745
-2.80903
-2.79861
-2.78624
-2.77267
-2.75783
-2.74249
-2.72642
-2.71032
-2.69376
-2.67809
-2.66181
0.145899
-0.10904
-0.341872
-0.555877
-0.7507
-0.929594
-1.09512
-1.24898
-1.39209
-1.52529
-1.64904
-1.76379
-1.86978
-1.96725
-2.05634
-2.13731
-2.21027
-2.27517
-2.33185
-2.38052
-2.42117
-2.45382
-2.47987
-2.5002
-2.51483
-2.52474
-2.5304
-2.5327
-2.53185
-2.52863
-2.52315
-2.51615
-2.50764
-2.49828
-2.48797
-2.47737
-2.46624
-2.45524
-2.44388
-2.43356
-2.42257
0.153718
-0.0853722
-0.303757
-0.503038
-0.683841
-0.848753
-1.00041
-1.14036
-1.26981
-1.38933
-1.49975
-1.60134
-1.69466
-1.77983
-1.8572
-1.92704
-1.9897
-2.04514
-2.09338
-2.13462
-2.16894
-2.1965
-2.21869
-2.2362
-2.24912
-2.25818
-2.26384
-2.26683
-2.26735
-2.26601
-2.26292
-2.25872
-2.25337
-2.24744
-2.24081
-2.23406
-2.22696
-2.22011
-2.21297
-2.20699
-2.20024
0.163065
-0.0621741
-0.266736
-0.452981
-0.620653
-0.772542
-0.911259
-1.03838
-1.15501
-1.26201
-1.36002
-1.44964
-1.53128
-1.60534
-1.67209
-1.732
-1.7854
-1.83243
-1.87315
-1.90776
-1.9365
-1.95949
-1.9782
-1.99303
-2.00424
-2.01224
-2.01768
-2.02091
-2.0224
-2.02232
-2.02116
-2.01898
-2.01626
-2.01291
-2.00941
-2.00563
-2.00201
-1.99837
-1.99497
-1.99237
-1.98942
0.173159
-0.0391493
-0.231697
-0.405573
-0.561229
-0.701162
-0.827757
-0.9428
-1.04743
-1.14264
-1.22915
-1.30762
-1.37853
-1.44239
-1.49948
-1.55039
-1.5955
-1.63506
-1.66913
-1.69799
-1.72184
-1.74089
-1.75654
-1.76913
-1.77883
-1.78602
-1.79121
-1.79473
-1.79694
-1.798
-1.79829
-1.79788
-1.79712
-1.79596
-1.79479
-1.79348
-1.79241
-1.7914
-1.79065
-1.79079
-1.79045
0.183876
-0.0171919
-0.198282
-0.361125
-0.505625
-0.634364
-0.749791
-0.853489
-0.946876
-1.03089
-1.10653
-1.17446
-1.23535
-1.28966
-1.3378
-1.38032
-1.41767
-1.4502
-1.47806
-1.50148
-1.52069
-1.53598
-1.54858
-1.55884
-1.56682
-1.5729
-1.57746
-1.58083
-1.58327
-1.58497
-1.58618
-1.58698
-1.58766
-1.58819
-1.58884
-1.58951
-1.5905
-1.59169
-1.59316
-1.59561
-1.59753
0.194516
0.00374472
-0.167379
-0.319682
-0.453732
-0.571982
-0.676773
-0.769974
-0.852738
-0.926431
-0.991693
-1.04971
-1.10094
-1.14637
-1.18616
-1.22114
-1.25147
-1.27777
-1.29996
-1.31854
-1.33354
-1.34548
-1.35533
-1.3635
-1.36994
-1.37505
-1.37907
-1.38231
-1.38494
-1.38713
-1.38907
-1.39082
-1.3926
-1.39439
-1.39638
-1.39851
-1.401
-1.40376
-1.40679
-1.41087
-1.41432
0.204873
0.0226477
-0.139367
-0.282386
-0.406593
-0.514645
-0.609002
-0.691689
-0.76428
-0.828003
-0.883816
-0.932464
-0.974738
-1.01128
-1.04286
-1.0701
-1.09373
-1.11398
-1.13111
-1.14512
-1.15635
-1.16495
-1.17212
-1.17791
-1.18253
-1.1861
-1.18904
-1.19147
-1.19365
-1.19565
-1.19763
-1.1997
-1.20196
-1.20448
-1.20727
-1.21047
-1.21399
-1.21805
-1.22225
-1.22773
-1.23238
0.214192
0.039515
-0.114796
-0.24946
-0.36503
-0.463819
-0.548306
-0.620541
-0.682472
-0.735717
-0.781673
-0.821302
-0.855404
-0.884341
-0.9086
-0.928529
-0.944974
-0.958426
-0.969469
-0.978236
-0.985138
-0.990274
-0.994698
-0.998375
-1.00149
-1.00406
-1.00641
-1.00857
-1.01078
-1.01301
-1.01543
-1.01807
-1.02101
-1.02428
-1.02791
-1.03196
-1.03638
-1.04132
-1.04643
-1.05274
-1.05824
0.222088
0.0540795
-0.0925263
-0.219058
-0.326406
-0.417001
-0.49319
-0.556772
-0.609458
-0.652745
-0.688186
-0.717235
-0.741442
-0.761909
-0.77957
-0.794637
-0.80738
-0.817627
-0.825609
-0.831344
-0.835312
-0.837663
-0.839423
-0.840558
-0.841327
-0.841722
-0.84212
-0.842515
-0.84316
-0.844016
-0.845282
-0.846921
-0.849067
-0.851688
-0.854866
-0.858581
-0.862847
-0.867721
-0.87295
-0.879349
-0.885155
0.229121
0.0665312
-0.0728654
-0.1906
-0.288147
-0.368762
-0.435411
-0.490539
-0.535962
-0.572897
-0.602166
-0.624241
-0.639742
-0.649357
-0.654342
-0.65615
-0.656517
-0.65627
-0.655803
-0.654957
-0.653894
-0.652544
-0.651651
-0.65104
-0.650822
-0.650829
-0.651299
-0.652101
-0.653426
-0.655128
-0.657369
-0.66003
-0.663251
-0.666924
-0.671142
-0.675826
-0.681027
-0.68673
-0.692753
-0.699742
-0.706201
0.237
0.0763351
-0.0600817
-0.172556
-0.262214
-0.33197
-0.385392
-0.425974
-0.457001
-0.481431
-0.50151
-0.518976
-0.534726
-0.54891
-0.560937
-0.569615
-0.574359
-0.575613
-0.574454
-0.571572
-0.567626
-0.562947
-0.558269
-0.553614
-0.549247
-0.545139
-0.541588
-0.538513
-0.536149
-0.534347
-0.533329
-0.532923
-0.533339
-0.534382
-0.536249
-0.538728
-0.541996
-0.545875
-0.550375
-0.555823
-0.561097
0.243383
0.0814637
-0.0569039
-0.171807
-0.263335
-0.332997
-0.382982
-0.415596
-0.433503
-0.439038
-0.434912
-0.423308
-0.406902
-0.387761
-0.368493
-0.351005
-0.33632
-0.323919
-0.313341
-0.303936
-0.295746
-0.288495
-0.282602
-0.277874
-0.274269
-0.271641
-0.269973
-0.269194
-0.269218
-0.270024
-0.271482
-0.273625
-0.276288
-0.279551
-0.283218
-0.28742
-0.291941
-0.296956
-0.302125
-0.307967
-0.313454
0.23456
0.0767829
-0.0530188
-0.158713
-0.243475
-0.310544
-0.362772
-0.402565
-0.431864
-0.452366
-0.4654
-0.472273
-0.473914
-0.471393
-0.465357
-0.456648
-0.446481
-0.434512
-0.421169
-0.407658
-0.3943
-0.38171
-0.369568
-0.358147
-0.34731
-0.337437
-0.328358
-0.320394
-0.31333
-0.307478
-0.302585
-0.298959
-0.296304
-0.294925
-0.294486
-0.2953
-0.296986
-0.299877
-0.303485
-0.30841
-0.313542
-22.4238
-17.1138
-16.056
-16.3585
-16.3011
-15.2801
-13.2036
-10.6421
-8.0859
-5.44817
-3.15741
-2.08224
-1.56373
-0.954329
-0.175782
0.651527
1.36856
1.94947
2.34559
2.63523
2.78792
2.88156
2.90417
2.89087
2.83998
2.76699
2.67593
2.54704
2.40677
2.25015
2.10752
1.96054
1.84273
1.75364
1.67675
1.61283
1.55772
1.51457
1.48389
1.46105
1.44869
1.4458
1.4478
1.45285
1.45751
1.48902
1.50185
1.5162
1.54452
1.55908
1.53632
1.53563
1.50022
1.45679
1.39612
1.31541
1.25122
1.16052
1.07433
0.98186
0.889444
0.800885
0.707289
0.624812
0.546024
0.461517
0.397436
0.318145
0.262407
0.199207
0.16081
0.0812929
0.101189
-0.0594409
-23.7363
-18.2122
-16.8696
-16.9497
-16.7568
-15.7197
-13.5683
-10.8678
-8.2205
-5.5072
-3.11384
-1.91716
-1.53328
-1.17429
-0.566365
0.193412
0.910988
1.52119
1.96082
2.29014
2.48292
2.60999
2.66375
2.67837
2.65411
2.60665
2.53994
2.43712
2.3234
2.18975
2.0604
1.91844
1.80178
1.71227
1.63522
1.57153
1.51738
1.47607
1.44743
1.42732
1.41779
1.41747
1.42222
1.43036
1.44029
1.47517
1.49311
1.515
1.54888
1.56894
1.5532
1.55707
1.52599
1.4853
1.42634
1.34813
1.28336
1.19239
1.10525
1.01111
0.917306
0.826106
0.730952
0.646565
0.565183
0.479455
0.412241
0.331944
0.274274
0.209875
0.169082
0.0885889
0.106591
-0.0566218
-24.4945
-19.4783
-17.8388
-17.6881
-17.3383
-16.2391
-14.0324
-11.1682
-8.37721
-5.59093
-3.10981
-1.80245
-1.53225
-1.38116
-0.920839
-0.224347
0.485135
1.11353
1.58451
1.94385
2.16836
2.32276
2.40276
2.44189
2.44182
2.41821
2.37469
2.29664
2.20926
2.1039
1.99839
1.87173
1.76108
1.67207
1.59466
1.53101
1.47773
1.43815
1.41138
1.39377
1.38683
1.38896
1.39601
1.40755
1.42173
1.45983
1.48318
1.51131
1.55024
1.57602
1.56708
1.57537
1.54884
1.51094
1.45405
1.37837
1.31308
1.22222
1.13411
1.03868
0.943312
0.850107
0.753414
0.66705
0.583439
0.496218
0.426504
0.345131
0.285594
0.219942
0.177035
0.0955884
0.111705
-0.0538878
-25.1413
-20.7122
-18.877
-18.5329
-18.081
-16.8579
-14.5905
-11.5576
-8.56111
-5.68408
-3.1399
-1.74605
-1.52065
-1.48758
-1.12843
-0.493592
0.191195
0.814869
1.29464
1.66441
1.90429
2.07227
2.16731
2.22132
2.23767
2.23102
2.20557
2.14761
2.08016
1.99736
1.91501
1.81171
1.71573
1.63227
1.55577
1.49172
1.43921
1.40127
1.3761
1.36063
1.35608
1.36046
1.36942
1.38474
1.40206
1.44309
1.47178
1.50478
1.54791
1.57949
1.57693
1.58949
1.56757
1.53265
1.47819
1.40526
1.33955
1.24937
1.16042
1.06423
0.967309
0.872786
0.774601
0.686303
0.600849
0.512006
0.440343
0.357844
0.296514
0.229568
0.184777
0.102354
0.11655
-0.0512937
-25.7243
-21.8251
-19.9074
-19.3907
-18.9151
-17.5895
-15.2121
-12.0308
-8.79514
-5.78918
-3.19728
-1.74803
-1.51671
-1.53236
-1.24238
-0.667225
-0.0213592
0.579828
1.05113
1.41619
1.65867
1.82955
1.93108
1.99313
2.02039
2.02652
2.01606
1.97668
1.92825
1.86563
1.80338
1.72454
1.65117
1.58375
1.51477
1.45202
1.40058
1.36445
1.34081
1.32754
1.32527
1.33179
1.34308
1.36216
1.38264
1.42669
1.4605
1.498
1.54501
1.58218
1.58552
1.60195
1.58456
1.55247
1.50066
1.43004
1.36414
1.27466
1.185
1.08811
0.989838
0.894079
0.794516
0.704348
0.617214
0.526849
0.45339
0.369819
0.306761
0.238553
0.192044
0.108735
0.120993
-0.0488837
-26.2786
-22.831
-20.8946
-20.2176
-19.7484
-18.4213
-15.8943
-12.552
-9.07603
-5.9005
-3.26069
-1.7741
-1.49551
-1.50922
-1.26358
-0.749252
-0.15473
0.407797
0.854861
1.20132
1.43455
1.59805
1.6978
1.76049
1.79289
1.80686
1.80796
1.78483
1.75478
1.71194
1.66835
1.61053
1.5589
1.51381
1.4633
1.40918
1.36087
1.3269
1.30463
1.29326
1.29292
1.3013
1.31517
1.33784
1.36171
1.40868
1.44732
1.48937
1.54007
1.5826
1.59163
1.6117
1.59878
1.56958
1.52064
1.45232
1.3865
1.29793
1.20781
1.11041
1.0111
0.914183
0.813424
0.721547
0.632826
0.541177
0.465915
0.381397
0.316646
0.247249
0.199039
0.114947
0.125177
-0.0465749
-26.849
-23.7689
-21.8076
-20.9523
-20.4562
-19.2233
-16.6165
-13.0787
-9.37974
-6.01631
-3.3086
-1.77821
-1.41611
-1.39242
-1.17945
-0.732914
-0.205464
0.300609
0.707438
1.02138
1.23343
1.3796
1.46876
1.52473
1.55553
1.57184
1.5796
1.56944
1.55587
1.53259
1.50841
1.47134
1.43888
1.41416
1.38747
1.35361
1.31689
1.28775
1.26766
1.25782
1.25893
1.26886
1.28517
1.31099
1.33845
1.38822
1.43161
1.47841
1.533
1.58059
1.59546
1.61903
1.6107
1.58436
1.53843
1.47238
1.40691
1.31931
1.22891
1.13108
1.0309
0.932894
0.831116
0.737657
0.647461
0.554651
0.477631
0.392287
0.325931
0.25541
0.2056
0.120846
0.129013
-0.0443673
-27.504
-24.6945
-22.6529
-21.5591
-20.949
-19.8046
-17.2569
-13.5488
-9.63002
-6.098
-3.30987
-1.71502
-1.24266
-1.16104
-0.976134
-0.607703
-0.163902
0.267986
0.618646
0.886551
1.06585
1.18497
1.25504
1.29678
1.31926
1.33202
1.34115
1.33963
1.33823
1.33218
1.32635
1.31057
1.29728
1.29003
1.28369
1.27328
1.25863
1.24326
1.2293
1.22167
1.22398
1.23517
1.25328
1.28168
1.31238
1.36435
1.41221
1.46349
1.52184
1.57417
1.59503
1.62204
1.61849
1.59517
1.55251
1.48901
1.42421
1.33793
1.24757
1.14964
1.04884
0.950044
0.847468
0.752635
0.661149
0.567331
0.488675
0.402632
0.334755
0.263194
0.211847
0.126499
0.132549
-0.0422577
-28.3554
-25.6992
-23.4838
-22.0211
-21.1402
-19.9666
-17.5504
-13.811
-9.70514
-6.0483
-3.20325
-1.53092
-0.939853
-0.797868
-0.648224
-0.372109
-0.0307616
0.308656
0.586832
0.79591
0.931511
1.01489
1.05805
1.07862
1.0862
1.08939
1.09427
1.09622
1.10265
1.10991
1.12012
1.12487
1.13198
1.14336
1.15569
1.16529
1.1736
1.18054
1.18264
1.18268
1.18751
1.20025
1.21981
1.25027
1.28375
1.33743
1.38939
1.44499
1.50689
1.56375
1.59075
1.6212
1.62252
1.60245
1.56323
1.50253
1.43872
1.35396
1.26389
1.16607
1.06492
0.96551
0.862353
0.766289
0.673679
0.578999
0.498818
0.412207
0.342902
0.27037
0.217608
0.131796
0.135706
-0.0402584
-29.5699
-26.9132
-24.404
-22.4031
-20.9938
-19.5653
-17.1916
-13.572
-9.41104
-5.69483
-2.86005
-1.14101
-0.454032
-0.275916
-0.182496
-0.0194769
0.198438
0.42632
0.615785
0.753531
0.835223
0.875141
0.884643
0.878205
0.865278
0.85367
0.849333
0.84929
0.858611
0.874507
0.896967
0.919462
0.945754
0.976317
1.00804
1.03645
1.06373
1.09121
1.11498
1.13247
1.14647
1.16287
1.18417
1.21644
1.2523
1.30706
1.36258
1.42197
1.48705
1.54806
1.58121
1.61497
1.62131
1.60471
1.5693
1.51168
1.44934
1.36644
1.27712
1.17976
1.07863
0.978983
0.875529
0.778466
0.684971
0.589653
0.508111
0.421087
0.350438
0.277043
0.222962
0.136773
0.138517
-0.0383717
-31.3526
-28.5195
-25.5659
-22.8552
-20.6144
-18.5671
-15.9811
-12.4787
-8.46796
-4.82307
-2.09667
-0.424171
0.288124
0.446109
0.44211
0.460029
0.528637
0.623182
0.70606
0.759603
0.777463
0.767047
0.73719
0.698981
0.660922
0.630067
0.611701
0.604758
0.611924
0.631415
0.661579
0.697618
0.740184
0.788688
0.839792
0.887981
0.933814
0.978592
1.02089
1.05878
1.09054
1.11777
1.14385
1.17833
1.21655
1.27221
1.33086
1.39384
1.46195
1.52696
1.56635
1.6036
1.61505
1.60239
1.57099
1.51689
1.45636
1.37565
1.28742
1.19085
1.09009
0.990431
0.886946
0.78912
0.694935
0.599164
0.516396
0.429114
0.357249
0.283084
0.227806
0.141381
0.140943
-0.036578
-33.9096
-30.7006
-27.1317
-23.5666
-20.2267
-17.1437
-13.9686
-10.3917
-6.62429
-3.24414
-0.750457
0.750176
1.37137
1.42422
1.2565
1.08388
0.967146
0.902694
0.859003
0.81464
0.758739
0.691776
0.618059
0.544738
0.478645
0.425563
0.389882
0.37197
0.37276
0.391112
0.42471
0.469482
0.524196
0.587304
0.655322
0.72234
0.786923
0.848864
0.907104
0.961586
1.01156
1.05587
1.09381
1.13391
1.1752
1.23161
1.293
1.35922
1.43013
1.49893
1.54443
1.5854
1.60199
1.59383
1.56669
1.51669
1.45836
1.38042
1.29374
1.19851
1.09858
0.999347
0.896187
0.797927
0.703346
0.607366
0.523585
0.436245
0.363302
0.288511
0.232159
0.145583
0.142983
-0.0348981
-37.2594
-33.4496
-29.0819
-24.5217
-19.9667
-15.6136
-11.4814
-7.58255
-4.0125
-1.01783
1.13389
2.36171
2.79556
2.66576
2.28113
1.86477
1.52339
1.26785
1.07474
0.916994
0.77724
0.647573
0.526435
0.416041
0.320533
0.243647
0.189101
0.157233
0.148547
0.161633
0.19443
0.243042
0.305248
0.378564
0.459461
0.542152
0.623705
0.702523
0.776824
0.846286
0.911052
0.971211
1.02491
1.07662
1.12477
1.18309
1.24701
1.31635
1.39027
1.46287
1.51477
1.55983
1.5819
1.57889
1.55648
1.51119
1.45563
1.38095
1.29636
1.20291
1.10426
1.00577
0.90327
0.804899
0.710167
0.614225
0.529629
0.442403
0.36854
0.293236
0.235949
0.149385
0.144627
-0.0333081
-40.5173
-36.032
-30.8569
-25.305
-19.6653
-14.1985
-9.18126
-4.81707
-1.32947
1.26171
3.04343
4.04051
4.28843
3.98046
3.38628
2.7362
2.16129
1.70057
1.34198
1.05887
0.826343
0.629093
0.458015
0.309898
0.185189
0.0849006
0.0114003
-0.0351238
-0.0549137
-0.0493312
-0.0204458
0.0282829
0.0938316
0.173001
0.262191
0.355989
0.450599
0.543598
0.632773
0.716871
0.79525
0.868364
0.935584
1.00037
1.05991
1.12386
1.19133
1.26358
1.34055
1.41686
1.47535
1.52488
1.55277
1.55557
1.53844
1.49856
1.44647
1.37579
1.2939
1.20294
1.10612
1.00893
0.907572
0.809534
0.715022
0.619438
0.534311
0.447437
0.372827
0.297181
0.239128
0.152685
0.145848
-0.0318484
-42.1205
-37.1331
-31.4429
-25.3593
-19.2063
-13.3173
-7.99643
-3.49538
0.0324946
2.53802
4.13925
4.97207
5.14796
4.81979
4.18184
3.43808
2.72869
2.11679
1.61704
1.21447
0.890234
0.624731
0.403868
0.219639
0.0671842
-0.0542433
-0.144896
-0.204806
-0.235309
-0.237674
-0.214214
-0.167913
-0.102275
-0.0208529
0.0724698
0.172665
0.275582
0.378393
0.478854
0.575213
0.666126
0.751115
0.829462
0.904474
0.974991
1.04747
1.12141
1.1981
1.27859
1.35893
1.4244
1.47929
1.51372
1.5233
1.5123
1.47868
1.43095
1.36497
1.28658
1.19875
1.10437
1.00896
0.909185
0.811917
0.717933
0.623027
0.537646
0.451319
0.376178
0.300346
0.241687
0.155541
0.146665
-0.0304848
-41.4022
-36.2918
-30.6063
-24.6233
-18.6812
-13.0705
-8.00571
-3.67538
-0.175155
2.47684
4.27721
5.21584
5.35412
4.91088
4.21887
3.5005
2.83211
2.23866
1.72418
1.2873
0.919634
0.610999
0.352761
0.137722
-0.0384308
-0.178357
-0.282848
-0.354011
-0.392929
-0.402407
-0.384196
-0.341229
-0.277184
-0.195808
-0.10125
0.00168452
0.108786
0.217103
0.324368
0.428689
0.528702
0.623493
0.71161
0.794687
0.872918
0.952038
1.03308
1.11637
1.20196
1.28691
1.35956
1.42063
1.46238
1.47971
1.47586
1.44938
1.40713
1.34665
1.27276
1.18887
1.0978
1.00481
0.907264
0.811325
0.718334
0.624552
0.53926
0.453801
0.378364
0.302569
0.243507
0.157797
0.147018
-0.0292682
-34.9631
-30.7704
-26.2665
-21.5862
-16.9369
-12.533
-8.51219
-4.9966
-2.05158
0.282716
2.01751
3.18715
3.85568
4.06673
3.8585
3.35458
2.73201
2.12794
1.6037
1.16723
0.804793
0.500552
0.242846
0.0247876
-0.157053
-0.302725
-0.413768
-0.489598
-0.533347
-0.546377
-0.530859
-0.489718
-0.426745
-0.346292
-0.252582
-0.149937
-0.0421907
0.06775
0.177547
0.285263
0.389585
0.489766
0.58434
0.673497
0.757045
0.839489
0.924275
1.01322
1.10545
1.19699
1.2779
1.3465
1.39671
1.42323
1.42794
1.40994
1.37451
1.32066
1.25239
1.17336
1.08645
0.996559
0.901889
0.807862
0.716321
0.624045
0.539238
0.454871
0.379428
0.30389
0.244614
0.159542
0.146966
-0.0281701
-25.8405
-23.169
-20.3398
-17.394
-14.3997
-11.4729
-8.70159
-6.17815
-3.9555
-2.08402
-0.577572
0.56015
1.35749
1.84889
2.08084
2.09781
1.9469
1.67789
1.34404
0.993674
0.660464
0.361241
0.101165
-0.120199
-0.303437
-0.450244
-0.560456
-0.636011
-0.678781
-0.690547
-0.673085
-0.629746
-0.564483
-0.481834
-0.386353
-0.282404
-0.173746
-0.0634632
0.0463395
0.154324
0.259729
0.362048
0.460093
0.553392
0.64107
0.725355
0.809956
0.899068
0.993893
1.09099
1.18049
1.25797
1.31755
1.35432
1.36858
1.36013
1.33259
1.2864
1.22468
1.15148
1.06952
0.9835
0.892379
0.800926
0.711382
0.621046