/*--------------------------------*- C++ -*----------------------------------*\
| =========                 |                                                 |
| \\      /  F ield         | OpenFOAM: The Open Source CFD Toolbox           |
|  \\    /   O peration     | Version:  2312                                  |
|   \\  /    A nd           | Website:  www.openfoam.com                      |
|    \\/     M anipulation  |                                                 |
\*---------------------------------------------------------------------------*/
FoamFile
{
    version     2.0;
    format      ascii;
    arch        "LSB;label=32;scalar=64";
    class       surfaceScalarField;
    location    "250";
    object      phi;
}
// * * * * * * * * * * * * * * * * * * * * * * * * * * * * * * * * * * * * * //

dimensions      [0 3 -1 0 0 0 0];

oriented        oriented;

internalField   nonuniform List<scalar> 
21876
(
0.00659722
0.00364727
-0.0102459
-0.000105061
0.00670121
-0.00204478
0.00193617
-0.00189014
-0.000156617
-0.0017455
-0.000146567
-0.00160549
-0.000141926
-0.00152144
-8.66611e-05
-0.00146256
-6.28329e-05
-0.00142176
-4.42018e-05
-0.00138575
-4.16116e-05
-0.00135539
-3.33347e-05
-0.00134084
-2.20912e-05
-0.00132967
-1.45496e-05
-0.00133171
-1.04707e-05
-0.00134151
5.14184e-06
-0.00136751
1.40916e-05
-0.00140805
3.95024e-05
-0.00147683
5.4813e-05
-0.00157006
9.19249e-05
-0.00170849
0.000121424
-0.00189519
0.000168596
-0.00212224
0.000218381
-0.00240068
0.000283939
-0.00273469
0.000341098
-0.00311916
0.000376276
-0.00353686
0.000411006
-0.00398104
0.00043852
-0.00444372
0.000449778
-0.00490294
0.000459127
-0.00534668
0.000430281
-0.00572618
0.000384429
-0.00601497
0.000273424
-0.00615094
0.000143366
-0.00611847
-4.35274e-05
-0.00588466
-0.000222452
-0.005451
-0.000442502
-0.00477106
-0.00066595
-0.00386714
-0.000905498
-0.00275682
-0.00109445
-0.000909941
-0.00183927
-0.00331586
0.00242438
0.0130037
0.00270875
-0.012066
0.00872492
0.0109792
0.00153035
0.0091288
-0.00196245
0.00333264
-0.00222185
0.000107765
-0.00210417
-0.000265728
-0.00199826
-0.00019849
-0.00194406
-0.000123106
-0.00191503
-7.89802e-05
-0.00189339
-6.9918e-05
-0.00187845
-5.42956e-05
-0.00188269
-2.58873e-05
-0.0018971
-6.89063e-06
-0.00193034
1.18402e-05
-0.00198093
4.86738e-05
-0.00205659
7.80129e-05
-0.00215901
0.000134405
-0.00230296
0.00018162
-0.00249174
0.000268247
-0.00274609
0.000348391
-0.00307489
0.00047763
-0.00345529
0.000584827
-0.00389238
0.000711503
-0.00438098
0.00081285
-0.00491062
0.000877761
-0.00545824
0.000930439
-0.0060036
0.000956867
-0.00652436
0.000942004
-0.00698386
0.000899198
-0.00736395
0.000787514
-0.00763172
0.00064156
-0.00778987
0.000414074
-0.00781079
0.000160974
-0.00768977
-0.000173269
-0.00736444
-0.000542699
-0.00679972
-0.00100791
-0.00594744
-0.00150577
-0.00477936
-0.00206392
-0.00327232
-0.00257937
-0.00129321
-0.00379677
-0.00615849
0.00157579
0.0158167
0.000229192
-0.0133377
0.0161341
0.0106616
0.0107529
0.0145096
0.00297448
0.0111107
-0.00152151
0.0046023
-0.00242301
0.000633981
-0.00243432
-0.000188754
-0.00238248
-0.000175938
-0.00237838
-8.41819e-05
-0.00238342
-6.64652e-05
-0.00238993
-4.87224e-05
-0.00241847
1.04823e-07
-0.00246257
3.66177e-05
-0.00252832
7.36202e-05
-0.00261854
0.000138024
-0.00273938
0.000194951
-0.00289637
0.000292107
-0.00310464
0.000387012
-0.00337054
0.000532967
-0.00371352
0.000687676
-0.00413996
0.000901369
-0.00461345
0.00105847
-0.00513392
0.00123979
-0.00569215
0.00138257
-0.00627708
0.00146535
-0.00686574
0.00152357
-0.00744039
0.00153445
-0.0079844
0.00148633
-0.00847191
0.00139126
-0.00889352
0.00120773
-0.00921761
0.00097145
-0.00943288
0.000626079
-0.00949165
0.000226014
-0.00936514
-0.000301893
-0.00899078
-0.000910255
-0.00833815
-0.00166253
-0.00735382
-0.00248333
-0.00598757
-0.00343092
-0.00421735
-0.00434621
-0.00206029
-0.005954
-0.00860453
0.000388339
0.0179604
-0.00260071
-0.0151308
0.0205665
0.00805572
0.0197523
0.0153236
0.0136211
0.0172418
0.00500695
0.0132153
-0.000732527
0.00637136
-0.00248368
0.00155888
-0.00269573
3.17881e-05
-0.00275906
-2.59829e-05
-0.00282545
-4.79867e-06
-0.00287215
-6.84275e-06
-0.00293467
5.81042e-05
-0.0030155
0.000112175
-0.00311678
0.000169362
-0.00324914
0.0002646
-0.00341536
0.000354523
-0.00362481
0.000494661
-0.00389064
0.000641182
-0.00422045
0.000850251
-0.00463091
0.00108051
-0.0051268
0.00138329
-0.00566402
0.0015856
-0.00624392
0.00181037
-0.00686095
0.00198465
-0.00750814
0.00209108
-0.00816705
0.0021597
-0.00882416
0.00217008
-0.00946463
0.00210533
-0.0100618
0.00197244
-0.0105976
0.00172737
-0.0110308
0.00139516
-0.0113354
0.000919833
-0.0114556
0.000342577
-0.0113532
-0.000409051
-0.0109635
-0.00129793
-0.010249
-0.00237577
-0.00915444
-0.00357052
-0.00762115
-0.00495686
-0.00564285
-0.00631228
-0.00332332
-0.00826106
-0.0107859
-0.00112738
0.020296
-0.00553894
-0.0173568
0.0233207
0.00503083
0.0256959
0.0129483
0.0243922
0.0185449
0.0178042
0.0198027
0.00826751
0.0159073
0.00080849
0.00901646
-0.00228543
0.00312302
-0.00287099
0.000557289
-0.00311066
0.000232728
-0.00324226
0.000123489
-0.00336417
0.00017811
-0.00349764
0.000244459
-0.00363904
0.000308742
-0.00381469
0.000438544
-0.00402385
0.000560924
-0.00428096
0.000750097
-0.00459667
0.000952707
-0.00498113
0.00123027
-0.00544981
0.00154659
-0.00601096
0.00194298
-0.00661776
0.00219426
-0.00727614
0.0024748
-0.00798506
0.00269975
-0.00874051
0.00284964
-0.00952567
0.00294732
-0.0103259
0.00297144
-0.011122
0.00290218
-0.0118821
0.00273354
-0.0125778
0.00242378
-0.0131613
0.00198015
-0.0135954
0.00135492
-0.0138192
0.000568762
-0.0137842
-0.000441693
-0.0134202
-0.00165842
-0.0126802
-0.00311238
-0.0115095
-0.0047366
-0.00984945
-0.00661266
-0.00771399
-0.00844392
-0.00526583
-0.0107057
-0.0129114
-0.00313642
0.0231206
-0.00876951
-0.0198918
0.0261579
0.00199407
0.0293502
0.0097555
0.0316753
0.0162204
0.0303654
0.0211129
0.0237052
0.0225672
0.0133629
0.0193585
0.00377082
0.0127141
-0.00136721
0.00569379
-0.00284374
0.00170644
-0.00332542
0.00060201
-0.00358621
0.000434389
-0.00382024
0.000474091
-0.00402258
0.000506273
-0.00425278
0.000664318
-0.00450836
0.000811241
-0.00481407
0.001049
-0.00517864
0.00130757
-0.00561814
0.00165905
-0.00615
0.00206678
-0.00678905
0.00257268
-0.0074871
0.00288485
-0.00825486
0.0032344
-0.00909527
0.00352825
-0.0100059
0.00374461
-0.0109695
0.0038943
-0.0119667
0.00395241
-0.0129719
0.0038928
-0.0139473
0.00369599
-0.0148563
0.00332297
-0.015646
0.00276127
-0.0162691
0.00197259
-0.0166587
0.000953877
-0.0167551
-0.000346558
-0.0164812
-0.00193296
-0.0157799
-0.00381105
-0.0145974
-0.00591576
-0.0128793
-0.00832508
-0.0106557
-0.0106619
-0.0081243
-0.0132305
-0.0151322
-0.00589675
0.0265292
-0.0124566
-0.0228406
0.0298826
-0.00135958
0.0329966
0.00664342
0.0362462
0.0129714
0.0386925
0.0186662
0.0378212
0.0234382
0.0316219
0.025557
0.0208478
0.0234875
0.00908303
0.0174568
0.00104909
0.00973825
-0.00228783
0.0039343
-0.00325955
0.00140235
-0.00379529
0.00100597
-0.00413709
0.000845747
-0.0044688
0.000992303
-0.00479294
0.00113128
-0.00515995
0.0014098
-0.00558127
0.00172175
-0.0060844
0.00215493
-0.00669074
0.00266838
-0.00742546
0.00330516
-0.00823912
0.00369835
-0.00914666
0.00414169
-0.0101538
0.00453508
-0.0112597
0.00484842
-0.0124473
0.00507846
-0.0136925
0.00519409
-0.0149637
0.00515965
-0.0162165
0.00494588
-0.0174072
0.00451026
-0.0184773
0.00383024
-0.019371
0.00286434
-0.0200132
0.00159705
-0.020336
-2.35713e-05
-0.0202523
-0.0020134
-0.019697
-0.00436377
-0.0186144
-0.00699317
-0.0169532
-0.00998194
-0.0147485
-0.0128616
-0.0122086
-0.0157663
-0.0175421
-0.00979439
0.0305355
-0.0166812
-0.026312
0.0344156
-0.00523769
0.0377867
0.00327435
0.0409117
0.00984556
0.0441529
0.0154251
0.0468463
0.0207431
0.0467851
0.0256181
0.0416599
0.0286119
0.0311289
0.0279883
0.0177925
0.0230734
0.00627453
0.0154528
-0.000275318
0.00795114
-0.00268307
0.00341089
-0.0036223
0.00178034
-0.0042391
0.00160356
-0.00471288
0.00159707
-0.00518665
0.00187518
-0.00568653
0.0022118
-0.00626686
0.00272552
-0.0069596
0.00335369
-0.00780644
0.00414572
-0.00875867
0.00464494
-0.00983518
0.00521186
-0.0110433
0.00573437
-0.0123824
0.00617716
-0.0138355
0.00652042
-0.0153766
0.00672541
-0.0169704
0.00674363
-0.0185684
0.00653658
-0.0201203
0.00605488
-0.0215623
0.00526809
-0.0228304
0.00412823
-0.0238427
0.00260824
-0.0245234
0.000656077
-0.0247778
-0.00175772
-0.0245323
-0.00460771
-0.023727
-0.00779507
-0.0223063
-0.0113995
-0.0202971
-0.0148672
-0.0178849
-0.0181754
-0.0201094
-0.015314
0.0353218
-0.0216163
-0.030387
0.0397975
-0.00970876
0.0436985
-0.000628491
0.0470659
0.0064799
0.050118
0.01237
0.0532771
0.0175847
0.0562259
0.0226683
0.0571917
0.0276482
0.053698
0.0314817
0.0444081
0.0323655
0.0306475
0.0292141
0.0159362
0.0226608
0.00491703
0.0144267
-0.000719935
0.00741104
-0.00281105
0.00368518
-0.00384038
0.00261669
-0.00459588
0.00261874
-0.00524963
0.00285494
-0.00594438
0.00341197
-0.00673946
0.00414277
-0.00771144
0.00511363
-0.00882092
0.00574943
-0.0100926
0.00647674
-0.0115333
0.00716733
-0.0131425
0.00777727
-0.0149019
0.00827147
-0.0167847
0.00859852
-0.0187537
0.00870585
-0.0207607
0.00853507
-0.0227508
0.00804072
-0.0246599
0.00717112
-0.0264174
0.00588409
-0.0279398
0.00412716
-0.0291446
0.00186158
-0.0299328
-0.000970276
-0.0302209
-0.00431683
-0.0299443
-0.00807013
-0.0290377
-0.0123026
-0.0275045
-0.0163984
-0.0254644
-0.0202128
-0.0226325
-0.0229394
0.0410204
-0.0274591
-0.0351744
0.0462281
-0.014918
0.050757
-0.00515449
0.0546614
0.00257191
0.0579779
0.0090543
0.0609091
0.0146522
0.0639041
0.0196756
0.066995
0.0245575
0.0689636
0.0295153
0.06747
0.0338606
0.0604646
0.0362184
0.0476309
0.0354934
0.0312611
0.0307939
0.0156199
0.0230476
0.00483475
0.0144674
-0.000457888
0.0079003
-0.00256519
0.00472078
-0.00375346
0.00403574
-0.00471454
0.00436376
-0.00566232
0.00508407
-0.00677521
0.00622015
-0.00804849
0.0070161
-0.0095269
0.00794808
-0.0112195
0.00885188
-0.0131253
0.00967332
-0.0152238
0.0103622
-0.0174857
0.0108582
-0.0198773
0.0110896
-0.0223461
0.0110054
-0.0248427
0.0105299
-0.0272982
0.0096306
-0.0296502
0.00823006
-0.0318115
0.00629427
-0.03371
0.00375596
-0.03524
0.00056666
-0.0363164
-0.00324229
-0.0368641
-0.00751624
-0.0368216
-0.0123458
-0.0361499
-0.0170657
-0.0348744
-0.0214888
-0.0246711
-0.0328337
0.0477811
-0.0344448
-0.0407949
0.0539289
-0.0210652
0.0592164
-0.0104433
0.063753
-0.00196576
0.0676183
0.00518762
0.0708619
0.0114084
0.0736524
0.0168853
0.0764114
0.0217988
0.0794471
0.0264805
0.0821459
0.0311607
0.0826638
0.0356995
0.0786024
0.0395539
0.0683544
0.0410392
0.0524769
0.0389272
0.0339286
0.0330135
0.0172863
0.0245444
0.00617895
0.0158254
0.000683272
0.009521
-0.00165649
0.00669359
-0.00307418
0.00649097
-0.00439683
0.00753222
-0.00582221
0.00843056
-0.00749231
0.00960707
-0.0094277
0.0107724
-0.0116268
0.0118638
-0.0140651
0.0127959
-0.0167169
0.0135023
-0.01954
0.0139183
-0.0225002
0.0139578
-0.0255294
0.0135691
-0.0285855
0.0126788
-0.0315872
0.0112443
-0.0344829
0.00918239
-0.0371855
0.00647227
-0.03962
0.00299456
-0.0416766
-0.00117245
-0.0432992
-0.00589859
-0.0444275
-0.0112072
-0.0450068
-0.0164899
-0.0449636
-0.0215259
-0.0255781
-0.0440578
0.0557938
-0.042851
-0.0473882
0.0631198
-0.0283916
0.0693659
-0.0166911
0.0746742
-0.00727576
0.0791675
0.000692183
0.082962
0.00761233
0.0861242
0.0137217
0.08878
0.0191415
0.0912777
0.0239819
0.0940508
0.0283857
0.0970547
0.0326953
0.099179
0.0374271
0.0982242
0.0419969
0.0918358
0.0453157
0.078864
0.0459877
0.0603961
0.0430136
0.0397615
0.0364552
0.0216436
0.0276352
0.00948512
0.0188445
0.00327939
0.0126891
0.000501346
0.0103041
-0.00121694
0.01014
-0.00298688
0.0113646
-0.00505748
0.0128374
-0.0074805
0.0142736
-0.0102043
0.0155153
-0.0131826
0.0164785
-0.016386
0.0171182
-0.0197655
0.0173398
-0.023278
0.0170797
-0.02686
0.0162665
-0.0304704
0.0148526
-0.0340401
0.0127604
-0.0375387
0.0099691
-0.0408667
0.00633285
-0.0439623
0.00192165
-0.0467243
-0.00312696
-0.0491516
-0.00878044
-0.0511344
-0.0144999
-0.0525974
-0.0200613
-0.0248423
-0.0533287
0.0652795
-0.0530124
-0.0551197
0.0740727
-0.0371855
0.081522
-0.0241426
0.0877988
-0.013554
0.0930626
-0.00457441
0.0974758
0.00319744
0.101177
0.0100179
0.104257
0.0160602
0.106807
0.0214289
0.109068
0.0261229
0.111473
0.0302894
0.114377
0.0345232
0.117406
0.038969
0.119045
0.0436766
0.11693
0.0481051
0.108809
0.0511331
0.0937854
0.0514785
0.0731329
0.0482863
0.050281
0.0416943
0.0300092
0.0329649
0.0159542
0.0243589
0.00884668
0.0172481
0.00548189
0.0147318
0.00323296
0.0150712
0.000909136
0.0166009
-0.00179269
0.0181964
-0.00484219
0.0195318
-0.00821664
0.0204694
-0.0118082
0.0209433
-0.0155862
0.0208342
-0.0194451
0.0201413
-0.0233841
0.0187708
-0.0273203
0.0167158
-0.0312903
0.013922
-0.0351968
0.0102592
-0.0390307
0.00574198
-0.0426836
0.000545037
-0.0461856
-0.00528738
-0.049368
-0.0113016
-0.052175
-0.0172585
-0.0225518
-0.0544528
0.0765038
-0.0653311
-0.064187
0.0871113
-0.0477934
0.0960589
-0.0330929
0.103549
-0.0210447
0.109779
-0.0108084
0.114953
-0.00197764
0.119255
0.00571318
0.12285
0.0124636
0.125849
0.0184276
0.128328
0.0236421
0.130432
0.0281826
0.132523
0.0324315
0.135065
0.0364264
0.138256
0.0404866
0.141468
0.0448925
0.142995
0.0496059
0.14042
0.0540544
0.131519
0.0571858
0.115376
0.0578418
0.0931121
0.0552304
0.0679918
0.0494829
0.0463751
0.0388681
0.0308411
0.0302597
0.0214553
0.0244621
0.0162455
0.0217854
0.0130132
0.021431
0.0102527
0.022251
0.00741089
0.0233243
0.00425322
0.0240497
0.000915435
0.0241974
-0.00264486
0.023647
-0.00622897
0.0223915
-0.0099244
0.0203596
-0.0135982
0.0176379
-0.0173827
0.0139969
-0.0211457
0.00954872
-0.0250196
0.00438031
-0.0289192
-0.00134903
-0.0327303
-0.00751372
-0.0362934
-0.0136707
-0.0192912
-0.0395576
0.0897842
-0.0802914
-0.0748259
0.102622
-0.0606314
0.113421
-0.0438951
0.12242
-0.0300437
0.129857
-0.018249
0.135986
-0.0081072
0.141029
0.000666635
0.145203
0.00828917
0.148682
0.0149449
0.151602
0.0207214
0.154041
0.0257401
0.156119
0.030354
0.158043
0.0345003
0.160218
0.0383114
0.163092
0.0420169
0.16677
0.0459265
0.170535
0.0502882
0.172667
0.0550541
0.170783
0.0597265
0.162609
0.0634037
0.147037
0.0650544
0.126491
0.0594113
0.103806
0.0529425
0.0822679
0.0459887
0.0644411
0.0396044
0.0512975
0.0345523
0.0424083
0.03113
0.0365887
0.0291157
0.032661
0.027972
0.0297056
0.0271229
0.0272431
0.0261112
0.0249729
0.0246326
0.0228324
0.0225106
0.0206736
0.0197698
0.0184945
0.0161916
0.0161515
0.0118679
0.0136464
0.00690695
0.0107798
0.00150262
0.00773782
-0.00445193
0.00443641
-0.0103689
-0.0157859
0.000944161
0.105501
-0.0984778
-0.0873173
0.121071
-0.0762006
0.134146
-0.0569737
0.145008
-0.0409059
0.153944
-0.0271893
0.161262
-0.0154247
0.167235
-0.0053103
0.172126
0.00339921
0.176153
0.0109134
0.179516
0.0173593
0.182357
0.0228958
0.184813
0.0278994
0.186957
0.0323543
0.188913
0.0363563
0.190929
0.0399981
0.193435
0.0434194
0.196874
0.0468459
0.201366
0.0505608
0.206292
0.0547965
0.210136
0.0595572
0.210713
0.0644727
0.206288
0.0638304
0.196771
0.0624548
0.183066
0.0596843
0.16682
0.0558442
0.149924
0.0514329
0.134119
0.0469301
0.120556
0.0426591
0.109772
0.038754
0.101687
0.0351839
0.0959937
0.0318086
0.0921627
0.0284401
0.0897891
0.0248937
0.0883681
0.0211675
0.0876311
0.0169416
0.0872117
0.012267
0.0869372
0.0071957
0.0864305
0.00199504
0.0854482
-0.00345652
0.083622
-0.00854788
-0.0130777
0.0809204
0.124107
-0.120594
-0.101993
0.143011
-0.0951045
0.158873
-0.072839
0.172026
-0.0540581
0.182815
-0.037982
0.191608
-0.0242167
0.198737
-0.0124439
0.204524
-0.00238522
0.209232
0.00620149
0.213111
0.0134829
0.216351
0.0196527
0.219154
0.0250994
0.221645
0.029861
0.223928
0.0340758
0.226072
0.0378515
0.228218
0.0412756
0.230624
0.0444361
0.23373
0.0474544
0.238004
0.0505185
0.243701
0.0538591
0.250471
0.0576984
0.256636
0.0576616
0.261207
0.0578803
0.263339
0.0575452
0.262696
0.0564853
0.259482
0.0546363
0.254363
0.0520498
0.248162
0.0488457
0.241748
0.0451717
0.23576
0.041154
0.230689
0.0368866
0.226688
0.032421
0.223807
0.0277841
0.221787
0.0231654
0.220426
0.0183141
0.219293
0.0133772
0.218034
0.00846438
0.216028
0.00398075
0.213048
-0.000471377
0.208832
-0.00434396
-0.00771933
0.203475
0.13255
-0.144951
-0.108195
0.153348
-0.115902
0.170791
-0.0902851
0.185238
-0.0685056
0.197069
-0.0498162
0.206682
-0.0338284
0.21444
-0.0202053
0.220693
-0.00863698
0.225733
0.00115869
0.229831
0.00938696
0.233203
0.0162785
0.236069
0.0222358
0.23859
0.0273386
0.240913
0.0317554
0.243136
0.0356277
0.245339
0.0390738
0.247587
0.0421871
0.250005
0.0450374
0.252826
0.0476962
0.256438
0.0502462
0.261298
0.0528381
0.267062
0.0518964
0.273665
0.0512775
0.280704
0.0505032
0.287671
0.0495205
0.294078
0.0482238
0.299615
0.0465172
0.304115
0.0443374
0.307616
0.0416771
0.310192
0.0385658
0.312019
0.0350681
0.313163
0.0312612
0.313726
0.0272304
0.313625
0.0232489
0.312835
0.0191123
0.311189
0.015005
0.308619
0.0110406
0.304862
0.00772114
0.299972
0.00442395
0.293878
0.00173895
-0.000582381
0.286739
0.139085
-0.171205
-0.112833
0.161483
-0.1383
0.180263
-0.109067
0.195806
-0.0840474
0.208518
-0.0625306
0.218823
-0.0441328
0.227113
-0.0284975
0.233761
-0.0152822
0.239082
-0.00416422
0.243363
0.00510819
0.246841
0.0128004
0.249744
0.0193351
0.252249
0.0248337
0.254516
0.0294915
0.256671
0.0334736
0.258825
0.0369221
0.261057
0.0399571
0.263425
0.0426713
0.265984
0.0451395
0.268825
0.047407
0.272134
0.049533
0.275704
0.0483286
0.279798
0.0471889
0.284509
0.0457935
0.289821
0.0442156
0.29557
0.0424739
0.301537
0.0405599
0.307424
0.038447
0.31299
0.0361206
0.317973
0.0335761
0.322218
0.0308333
0.325541
0.0279276
0.327872
0.0249077
0.329092
0.0220147
0.329181
0.0190291
0.328073
0.0160962
0.325832
0.0132831
0.32242
0.0111159
0.318011
0.00882875
0.312703
0.00703236
0.00540923
0.306704
0.14638
-0.199497
-0.118088
0.170501
-0.162423
0.190723
-0.129289
0.207446
-0.100772
0.221114
-0.0761987
0.232174
-0.0551926
0.241049
-0.0373736
0.248133
-0.0223652
0.253772
-0.00980293
0.258267
0.000614728
0.261876
0.00919214
0.264838
0.0163749
0.267345
0.0223278
0.269563
0.0272757
0.27163
0.031409
0.273664
0.0348909
0.275765
0.0378591
0.278013
0.0404259
0.280471
0.0426862
0.283175
0.0447059
0.286167
0.0465473
0.289079
0.0454197
0.29204
0.0442355
0.295101
0.0427352
0.298323
0.0410019
0.301707
0.0390905
0.305237
0.0370407
0.308803
0.0348789
0.312304
0.0326297
0.315563
0.0303123
0.318456
0.0279502
0.320808
0.0255684
0.322532
0.023192
0.323512
0.0210266
0.323715
0.0188309
0.323098
0.0167066
0.321706
0.0146771
0.31955
0.013266
0.316747
0.0116327
0.313381
0.0103944
0.0092038
0.309582
0.15443
-0.229987
-0.123945
0.180413
-0.188403
0.202185
-0.151064
0.220186
-0.118771
0.234884
-0.090899
0.246765
-0.067071
0.256276
-0.0468869
0.263842
-0.0299294
0.269831
-0.0157923
0.27457
-0.00412196
0.278331
0.00543133
0.281369
0.013339
0.283888
0.0198098
0.286065
0.0251011
0.288046
0.0294317
0.28995
0.0329875
0.291888
0.0359275
0.293935
0.0383786
0.296177
0.0404531
0.298652
0.04223
0.301416
0.0437939
0.304077
0.0427579
0.306713
0.0416127
0.309285
0.0401616
0.311809
0.0384922
0.314243
0.0366539
0.3166
0.0346976
0.318819
0.0326555
0.320893
0.030569
0.322736
0.028464
0.324322
0.0263737
0.325564
0.0243203
0.326437
0.0223247
0.326881
0.0205765
0.326888
0.0188256
0.326438
0.0171504
0.32556
0.0155519
0.324261
0.0145576
0.322606
0.0132795
0.320647
0.0123455
0.0113861
0.318452
0.163257
-0.262841
-0.130402
0.191243
-0.216391
0.214693
-0.174514
0.23407
-0.138149
0.249885
-0.106714
0.262651
-0.079838
0.272857
-0.0570924
0.280948
-0.0380213
0.287324
-0.0221686
0.292333
-0.00913103
0.29627
0.00149443
0.2994
0.0102084
0.301945
0.0172657
0.304089
0.022958
0.305986
0.0275346
0.307768
0.0312081
0.309536
0.0341592
0.311383
0.0365352
0.313373
0.038463
0.315569
0.0400388
0.318005
0.0413582
0.32035
0.0404194
0.32265
0.0393129
0.3249
0.0379188
0.327066
0.0363266
0.329134
0.0345937
0.331063
0.0327679
0.332841
0.0308867
0.334423
0.0289862
0.335799
0.0270956
0.336931
0.0252419
0.337811
0.0234467
0.338415
0.0217225
0.338744
0.0202538
0.338789
0.0187836
0.338563
0.0173805
0.338086
0.0160338
0.337368
0.0152793
0.336454
0.0141986
0.335367
0.0134314
0.0125949
0.334162
0.172886
-0.298255
-0.137478
0.20304
-0.246543
0.2283
-0.199775
0.249167
-0.159016
0.266189
-0.123736
0.279917
-0.0935664
0.290874
-0.0680505
0.29954
-0.0466875
0.306341
-0.0289703
0.311649
-0.0144401
0.315785
-0.00264121
0.319027
0.00696606
0.32161
0.0146823
0.323732
0.0208366
0.325554
0.0257114
0.327216
0.0295473
0.328825
0.03255
0.330475
0.0348877
0.332231
0.0367064
0.334154
0.0381183
0.336277
0.0392345
0.338291
0.0384093
0.340247
0.0373567
0.342147
0.0360233
0.343967
0.0345053
0.345703
0.0328632
0.347323
0.0311479
0.348818
0.0293971
0.350158
0.0276463
0.351337
0.0259221
0.352333
0.0242478
0.353143
0.0226407
0.35376
0.0211086
0.354187
0.0198291
0.354431
0.0185437
0.354499
0.0173139
0.354414
0.0161225
0.354179
0.0155114
0.353833
0.0145459
0.353385
0.0138726
0.0131015
0.352878
0.183364
-0.336426
-0.14519
0.215858
-0.27904
0.243078
-0.226994
0.265556
-0.181495
0.283886
-0.142065
0.298656
-0.108338
0.310432
-0.079826
0.319724
-0.0559805
0.326992
-0.0362383
0.332633
-0.0200817
0.336991
-0.00700002
0.340365
0.00359288
0.343002
0.0120445
0.345115
0.0187253
0.346873
0.0239518
0.348426
0.0279967
0.349883
0.0310905
0.351348
0.0334263
0.352884
0.0351678
0.354559
0.0364476
0.356401
0.0373898
0.358124
0.0366908
0.359777
0.0357013
0.361371
0.0344334
0.362888
0.0329852
0.364333
0.0314221
0.365683
0.0297947
0.36694
0.0281425
0.368084
0.0264998
0.369114
0.0248917
0.370022
0.0233393
0.370804
0.0218565
0.371465
0.0204484
0.372002
0.0192867
0.372433
0.0181148
0.372753
0.0169881
0.372992
0.0158872
0.373143
0.0153536
0.373242
0.014449
0.373286
0.0138203
0.0130767
0.373311
0.194733
-0.377589
-0.153576
0.229766
-0.31407
0.259105
-0.256333
0.283331
-0.20572
0.303077
-0.161813
0.318982
-0.124243
0.331647
-0.092492
0.341624
-0.0659581
0.349404
-0.0440189
0.355414
-0.0260926
0.360023
-0.0116096
0.363549
6.61405e-05
0.366259
0.00933475
0.368375
0.0166088
0.370084
0.0222436
0.371536
0.0265437
0.372858
0.0297692
0.374147
0.0321361
0.375485
0.0338312
0.376928
0.0350035
0.378524
0.0357956
0.379987
0.0352273
0.381385
0.0343049
0.382719
0.0330986
0.383994
0.0317126
0.385203
0.0302123
0.386347
0.0286516
0.38742
0.027069
0.388422
0.0254993
0.389348
0.023966
0.390198
0.0224892
0.390975
0.0210807
0.391678
0.0197438
0.392321
0.0186465
0.3929
0.0175342
0.393431
0.0164599
0.393913
0.0154016
0.39437
0.0149
0.394797
0.0140181
0.395218
0.0134014
0.0126598
0.395629
0.207059
-0.421981
-0.162664
0.244836
-0.35185
0.276474
-0.28797
0.302594
-0.23184
0.32388
-0.183099
0.341016
-0.141381
0.354651
-0.106128
0.365377
-0.0766841
0.37372
-0.0523621
0.380139
-0.0325121
0.385029
-0.0165004
0.388733
-0.00363801
0.391534
0.00653374
0.39367
0.0144722
0.395341
0.0205732
0.396707
0.0251767
0.397904
0.0285729
0.399035
0.0310041
0.400188
0.032679
0.401425
0.0337662
0.402797
0.0344243
0.404034
0.0339898
0.405208
0.033132
0.406326
0.0319807
0.407396
0.0306434
0.40842
0.0291884
0.409401
0.0276709
0.41034
0.0261303
0.411237
0.0246016
0.412096
0.023108
0.412915
0.0216688
0.413702
0.0202951
0.414453
0.0189894
0.415185
0.0179161
0.41589
0.0168248
0.416585
0.0157664
0.417264
0.0147181
0.41795
0.0142157
0.418631
0.0133312
0.419331
0.0127035
0.0119471
0.420038
0.220399
-0.469882
-0.172502
0.261157
-0.392602
0.295286
-0.322102
0.323463
-0.260016
0.346421
-0.206058
0.364899
-0.159859
0.379592
-0.120821
0.391137
-0.0882287
0.400098
-0.061324
0.40697
-0.0393842
0.412176
-0.0217068
0.416084
-0.00754599
0.418997
0.00362087
0.421171
0.0122984
0.422818
0.0189266
0.424111
0.0238827
0.425195
0.0274896
0.426182
0.0300166
0.427165
0.0316961
0.428214
0.0327166
0.429385
0.0332536
0.43042
0.0329532
0.431396
0.032156
0.432326
0.0310504
0.433221
0.0297477
0.434089
0.0283195
0.434935
0.0268228
0.435766
0.0252992
0.43658
0.0237835
0.437389
0.0223
0.438185
0.0208673
0.438984
0.0194975
0.439776
0.0181919
0.440581
0.0171126
0.441387
0.0160134
0.442211
0.0149446
0.443041
0.0138825
0.443902
0.0133566
0.444776
0.0124512
0.445686
0.0117968
0.0110138
0.446613
0.234833
-0.521578
-0.183133
0.278817
-0.436591
0.315654
-0.358937
0.346065
-0.290427
0.370844
-0.230837
0.390782
-0.179798
0.406631
-0.136669
0.419071
-0.10067
0.428714
-0.0709665
0.436087
-0.0467579
0.441648
-0.0272674
0.445788
-0.0116869
0.448836
0.000572897
0.451065
0.0100695
0.452702
0.0172891
0.453935
0.0226494
0.454917
0.0265074
0.455771
0.0291621
0.456597
0.0308701
0.457472
0.031841
0.458458
0.032267
0.45931
0.0321006
0.460106
0.0313594
0.460866
0.0302899
0.461605
0.0290083
0.462333
0.0275897
0.463061
0.0260942
0.463793
0.0245648
0.464539
0.0230384
0.465296
0.0215397
0.466075
0.0200886
0.466873
0.0186969
0.467699
0.0173672
0.46855
0.0162577
0.469436
0.0151289
0.470348
0.0140292
0.471297
0.0129359
0.47228
0.0123687
0.473304
0.0114294
0.47436
0.0107364
0.00991858
0.475457
0.250431
-0.577401
-0.19461
0.297926
-0.48408
0.337701
-0.398715
0.370542
-0.323267
0.397302
-0.257597
0.418834
-0.201329
0.435944
-0.153779
0.449367
-0.114093
0.459758
-0.0813576
0.467687
-0.0546864
0.473643
-0.0332236
0.478049
-0.0160925
0.481256
-0.0026346
0.483559
0.00776659
0.485202
0.0156462
0.486386
0.0214651
0.487276
0.0256169
0.488006
0.0284318
0.488683
0.0301921
0.489394
0.0311297
0.490206
0.0314542
0.490884
0.0314214
0.491511
0.0307315
0.492111
0.0296892
0.492703
0.028416
0.493298
0.0269916
0.493914
0.025479
0.494551
0.0239246
0.495223
0.0223668
0.495928
0.020832
0.496676
0.0193412
0.497463
0.0179073
0.498298
0.0165336
0.499178
0.0153752
0.500109
0.0141993
0.501081
0.0130532
0.502104
0.0119149
0.503176
0.0112934
0.504297
0.0103099
0.50546
0.00956968
0.00871031
0.50667
0.26729
-0.637696
-0.20699
0.318591
-0.535387
0.361566
-0.441686
0.397049
-0.358753
0.425968
-0.286515
0.449238
-0.2246
0.467728
-0.172269
0.482228
-0.128594
0.493444
-0.0925725
0.501986
-0.0632292
0.508384
-0.0396212
0.51309
-0.0207983
0.516484
-0.006028
0.51888
0.00536998
0.520543
0.0139835
0.521688
0.0203192
0.522495
0.0248101
0.523106
0.0278193
0.523641
0.0296573
0.524191
0.0305781
0.524835
0.0308108
0.525342
0.0309117
0.525804
0.0302694
0.526244
0.0292461
0.526691
0.0279703
0.527153
0.0265258
0.527652
0.0249811
0.528188
0.0233844
0.528778
0.0217778
0.529417
0.020189
0.530119
0.0186412
0.530875
0.0171478
0.531697
0.0157141
0.532577
0.0144913
0.533524
0.0132545
0.534523
0.0120493
0.535585
0.0108553
0.536706
0.0101684
0.537885
0.0091328
0.539112
0.00833789
0.00743165
0.540394
0.285496
-0.702861
-0.220334
0.340944
-0.59083
0.387393
-0.48814
0.425759
-0.397116
0.45703
-0.317787
0.482198
-0.249768
0.502197
-0.192268
0.517879
-0.144276
0.530001
-0.104695
0.539224
-0.0724515
0.546114
-0.0465114
0.551158
-0.0258431
0.554766
-0.00963619
0.557277
0.00285887
0.558974
0.0122859
0.560091
0.0192016
0.560819
0.0240806
0.561316
0.0273215
0.561708
0.029264
0.562098
0.0301869
0.562568
0.0303384
0.562905
0.0305747
0.563194
0.0299769
0.563473
0.0289666
0.563762
0.0276781
0.564085
0.0262023
0.564451
0.0246114
0.564878
0.0229584
0.565364
0.0212876
0.565924
0.0196299
0.566553
0.0180098
0.567259
0.0164429
0.568034
0.0149353
0.568892
0.0136354
0.569817
0.0123255
0.570817
0.0110509
0.571877
0.00979159
0.573016
0.0090304
0.574209
0.00793534
0.575469
0.0070797
0.00612131
0.576775
0.305162
-0.77331
-0.234709
0.365113
-0.650788
0.415353
-0.538376
0.456854
-0.438621
0.490694
-0.351626
0.517936
-0.277011
0.539588
-0.21392
0.556566
-0.161255
0.569687
-0.117816
0.57966
-0.0824252
0.587098
-0.053949
0.592523
-0.0312686
0.596376
-0.0134893
0.599023
0.000211539
0.600768
0.0105397
0.601865
0.0181043
0.602519
0.0234253
0.602901
0.026939
0.603147
0.0290164
0.60337
0.0299624
0.60366
0.0300461
0.603814
0.0304203
0.603921
0.0298663
0.604023
0.0288637
0.604143
0.027555
0.604307
0.0260375
0.604526
0.024389
0.604818
0.022667
0.605183
0.0209192
0.605634
0.0191794
0.606166
0.0174743
0.606789
0.0158213
0.607493
0.0142282
0.60829
0.0128397
0.609165
0.0114467
0.610125
0.0100934
0.611151
0.0087609
0.612266
0.00791698
0.613441
0.0067564
0.614689
0.00583416
0.00481901
0.615986
0.326393
-0.84952
-0.250186
0.391257
-0.715645
0.445619
-0.592744
0.490546
-0.483546
0.527187
-0.388271
0.556698
-0.306522
0.58016
-0.237383
0.598562
-0.179657
0.612782
-0.132036
0.623586
-0.093229
0.631631
-0.0619949
0.637483
-0.0371203
0.641613
-0.0176205
0.644419
-0.0025943
0.646227
0.00873051
0.647311
0.0170206
0.647891
0.0228431
0.648154
0.0266759
0.648245
0.0289225
0.648291
0.0299171
0.648384
0.0299497
0.648338
0.0304665
0.648244
0.0299566
0.648149
0.028959
0.648076
0.0276237
0.648059
0.0260567
0.648103
0.0243406
0.648233
0.0225391
0.648446
0.0207029
0.648759
0.0188697
0.649162
0.017068
0.649669
0.0153181
0.650265
0.013629
0.650966
0.012142
0.651753
0.0106563
0.652633
0.00921608
0.653587
0.00780277
0.654639
0.00686851
0.655755
0.00563616
0.656951
0.00464181
0.0035648
0.658201
0.349321
-0.931992
-0.266845
0.419529
-0.78586
0.478395
-0.651605
0.527054
-0.53221
0.566762
-0.427978
0.598753
-0.338514
0.6242
-0.26283
0.644165
-0.199622
0.659596
-0.147467
0.671317
-0.10495
0.680038
-0.0707159
0.686366
-0.0434483
0.69081
-0.0220651
0.693798
-0.0055829
0.695683
0.00684487
0.696758
0.0159446
0.697265
0.0223358
0.697399
0.0265393
0.697326
0.0289957
0.697172
0.030068
0.69705
0.030071
0.696778
0.0307359
0.696461
0.0302734
0.696137
0.0292791
0.695847
0.0279134
0.695611
0.0262896
0.695454
0.0244983
0.695383
0.0226075
0.695414
0.0206733
0.695544
0.0187362
0.695786
0.0168282
0.69613
0.0149711
0.696584
0.0131766
0.697142
0.0115813
0.697805
0.00999474
0.698559
0.0084592
0.699406
0.00695809
0.700345
0.00592553
0.701367
0.00461564
0.702462
0.00354318
0.00239939
0.70363
0.374073
-1.0213
-0.284768
0.450117
-0.861896
0.513889
-0.715383
0.566633
-0.584951
0.60969
-0.471036
0.6444
-0.373224
0.672023
-0.290452
0.693706
-0.221306
0.710471
-0.164232
0.723206
-0.117686
0.732676
-0.0801858
0.739535
-0.0503071
0.744332
-0.0268625
0.747527
-0.00877888
0.749503
0.00486913
0.750573
0.0148728
0.751001
0.0219078
0.750997
0.0265417
0.750738
0.0292539
0.750364
0.0304398
0.749995