/*--------------------------------*- C++ -*----------------------------------*\
| =========                 |                                                 |
| \\      /  F ield         | OpenFOAM: The Open Source CFD Toolbox           |
|  \\    /   O peration     | Version:  2312                                  |
|   \\  /    A nd           | Website:  www.openfoam.com                      |
|    \\/     M anipulation  |                                                 |
\*---------------------------------------------------------------------------*/
FoamFile
{
    version     2.0;
    format      ascii;
    arch        "LSB;label=32;scalar=64";
    class       volSymmTensorField;
    location    "250";
    object      turbulenceProperties:R;
}
// * * * * * * * * * * * * * * * * * * * * * * * * * * * * * * * * * * * * * //

dimensions      [0 2 -2 0 0 0 0];

internalField   nonuniform List<symmTensor> 
11040
(
(0.391088 0.129941 -2.0042e-21 0.376538 2.92144e-20 0.404298)
(0.246154 0.0604759 9.85379e-21 0.183924 1.79451e-19 0.222407)
(0.0499957 0.0140197 -2.11612e-19 0.0659995 2.84599e-19 0.0510654)
(0.142409 0.0501285 -3.52168e-19 0.324215 -1.58327e-19 0.241116)
(0.20201 0.0796647 -1.75092e-20 0.431082 3.45689e-19 0.313929)
(0.179163 0.0792157 -4.71559e-19 0.348203 1.71357e-19 0.264123)
(0.165443 0.0767838 2.5712e-19 0.295538 -1.73327e-18 0.230818)
(0.155772 0.0737481 3.53759e-19 0.259345 -2.6237e-19 0.207802)
(0.149664 0.0713567 1.6688e-19 0.234364 -4.50088e-20 0.192211)
(0.145713 0.0694993 1.46266e-19 0.216435 2.41981e-19 0.181141)
(0.142187 0.0675019 -1.35768e-19 0.20097 5.92237e-19 0.17159)
(0.141369 0.0666844 -2.18524e-19 0.190857 4.46558e-19 0.166075)
(0.142788 0.0668621 3.45173e-20 0.184825 -2.67604e-19 0.163664)
(0.147544 0.0686122 4.71538e-20 0.183503 2.52815e-19 0.165283)
(0.155483 0.0717766 -1.91056e-20 0.185924 3.44545e-20 0.170433)
(0.16681 0.0763931 -8.67643e-21 0.192063 -3.66006e-19 0.179093)
(0.182396 0.0827518 1.00829e-19 0.202007 -1.23526e-20 0.19189)
(0.204623 0.0918731 -9.64611e-21 0.218086 6.5158e-19 0.211055)
(0.235042 0.104178 -5.80854e-20 0.240521 3.8372e-21 0.237739)
(0.278485 0.121645 9.54414e-21 0.273764 -9.61793e-20 0.276368)
(0.338059 0.145217 4.47732e-20 0.319197 7.77546e-20 0.329428)
(0.414765 0.175253 -5.54935e-20 0.377865 2.38367e-19 0.397778)
(0.51229 0.21348 6.87563e-21 0.453639 -2.02975e-19 0.485214)
(0.639541 0.263264 2.51348e-20 0.553121 4.97022e-19 0.599364)
(0.800839 0.325972 -1.41725e-19 0.678736 -4.61964e-19 0.743593)
(0.989703 0.398613 -8.90159e-20 0.824106 -1.10034e-18 0.911482)
(1.20072 0.478691 4.2712e-20 0.98395 -5.26605e-19 1.09761)
(1.42444 0.562538 1.68107e-19 1.15107 1.51374e-19 1.29332)
(1.6471 0.644598 -1.00222e-20 1.31402 -4.46755e-19 1.48614)
(1.86759 0.724977 -3.15026e-20 1.47358 -1.0641e-18 1.67548)
(2.08188 0.802107 2.34194e-19 1.62627 7.16689e-19 1.85822)
(2.26298 0.866295 -3.45127e-19 1.75313 -1.58694e-19 2.0109)
(2.37289 0.903222 -2.77329e-19 1.82503 2.06663e-18 2.10072)
(2.39172 0.906173 -3.12247e-19 1.82904 1.18134e-18 2.11074)
(2.29901 0.867541 -7.77307e-20 1.74974 8.55107e-20 2.02332)
(2.09745 0.789698 -8.96403e-20 1.59276 1.4245e-18 1.84202)
(1.77939 0.670562 5.69559e-20 1.35377 5.12918e-19 1.56215)
(1.30885 0.497002 -9.79263e-20 1.00665 7.34296e-19 1.153)
(0.688688 0.267483 -3.35302e-19 0.548564 -1.06541e-18 0.613529)
(0.384035 0.160346 2.33256e-20 0.352451 -9.12916e-19 0.34925)
(0.247629 0.107097 2.44021e-19 0.488724 1.46685e-19 0.348063)
(0.0386479 -0.0033927 1.2476e-21 0.029757 -2.66362e-21 0.0314465)
(0.117318 0.0264437 3.14523e-20 0.0830591 -1.30715e-20 0.0931369)
(0.373718 0.069904 4.44906e-19 0.194423 -7.09259e-19 0.292582)
(0.918417 0.078791 3.55492e-19 0.369069 -2.5468e-19 0.624747)
(0.36552 -0.0369466 1.80409e-19 0.147345 -6.75923e-19 0.255613)
(0.0500555 -0.0170165 6.97756e-19 0.0350297 -1.40593e-18 0.0401274)
(0.00792505 -0.0038969 -1.03347e-18 0.0144374 4.12349e-18 0.0118367)
(0.0058972 0.0019187 -1.04708e-18 0.0141501 2.79424e-18 0.0107386)
(0.0114736 0.00561451 -1.08369e-19 0.0208956 -2.21249e-19 0.0168389)
(0.0167034 0.00838785 -1.38057e-19 0.0273009 6.01265e-20 0.0224294)
(0.0210843 0.0106083 6.67203e-19 0.0315552 -1.72469e-18 0.0265538)
(0.0258471 0.0129056 2.28909e-20 0.0355295 -1.11346e-19 0.0309209)
(0.0310724 0.0153099 -2.79764e-19 0.0401478 1.08211e-18 0.0357039)
(0.0376717 0.0182742 -1.80903e-19 0.0460658 7.55022e-20 0.0417788)
(0.0463074 0.022084 -8.56113e-20 0.0537587 -3.33186e-19 0.0497938)
(0.056777 0.0266195 1.68811e-20 0.0631368 1.12775e-18 0.059408)
(0.0699686 0.0322048 -3.79377e-20 0.0745885 3.9653e-19 0.0713488)
(0.0856009 0.0386651 -2.52263e-20 0.0879807 -1.13881e-18 0.0851138)
(0.104748 0.0463529 -4.68283e-20 0.103747 -5.33001e-20 0.10161)
(0.125349 0.0542908 -1.3216e-20 0.119824 1.71829e-19 0.118726)
(0.147761 0.0625324 -1.4174e-20 0.135848 -3.9074e-20 0.136993)
(0.169767 0.0702591 6.96898e-20 0.15052 -5.49936e-19 0.154576)
(0.188685 0.0765592 9.73036e-21 0.162363 7.31276e-19 0.169208)
(0.204771 0.0815481 -9.66339e-20 0.171598 -6.55426e-19 0.181086)
(0.218033 0.0852616 -2.41373e-20 0.17817 5.20256e-19 0.190396)
(0.227186 0.0873384 1.78943e-19 0.18137 1.71425e-18 0.196291)
(0.227891 0.0862092 2.84279e-19 0.178032 9.16652e-19 0.195117)
(0.216467 0.0807134 -2.5227e-19 0.165899 2.04047e-19 0.183975)
(0.192719 0.0709858 -1.5932e-19 0.145168 4.12503e-19 0.163085)
(0.158578 0.057951 2.03812e-19 0.117998 6.7239e-19 0.134042)
(0.129013 0.0471315 7.5858e-20 0.0954738 -9.38692e-19 0.10967)
(0.0995246 0.0370645 4.38956e-19 0.0748295 -1.78035e-18 0.0862821)
(0.0721737 0.0285953 4.04122e-19 0.0580469 -3.24664e-18 0.0663999)
(0.0519672 0.0235047 4.83933e-19 0.0513525 -1.37339e-18 0.0551429)
(0.0470224 0.0236641 -2.82419e-19 0.0638534 1.05347e-19 0.0616652)
(0.0518946 0.0251675 2.2114e-19 0.0955142 -4.56989e-18 0.082837)
(0.0695062 0.0294114 -6.46814e-19 0.149069 -5.27695e-19 0.122011)
(0.0990394 0.0367343 -1.42131e-21 0.226885 -1.76658e-18 0.182381)
(0.138406 0.048463 9.3174e-19 0.322146 4.36471e-18 0.260311)
(0.173281 0.0601802 5.1725e-19 0.40846 4.86828e-18 0.319835)
(0.406627 -0.0194221 -2.17771e-19 1.00294 -1.3576e-18 0.871512)
(0.0164944 -0.00157353 -1.93178e-22 0.0150163 -3.33129e-22 0.0157704)
(0.00806299 -0.0011845 -6.2034e-21 0.00677017 -2.87983e-20 0.00664032)
(0.0804299 0.0132978 -8.21933e-21 0.0535781 1.15181e-19 0.0666867)
(0.834171 0.130889 9.38496e-20 0.36371 2.91266e-19 0.609434)
(1.46769 0.0930112 -6.37349e-22 0.573141 -9.16764e-20 1.00702)
(0.73035 -0.0633646 -6.82587e-19 0.290948 2.35193e-18 0.503945)
(0.176753 -0.0451386 2.75285e-20 0.0972982 -1.78917e-19 0.129789)
(0.0671828 -0.021858 1.41096e-19 0.0437008 -3.07363e-18 0.0546501)
(0.0311967 -0.0101645 -2.2428e-19 0.0201503 2.04301e-20 0.0258024)
(0.0101679 -0.00365021 3.36581e-19 0.00732652 -9.59247e-19 0.00863764)
(0.00221811 0.000940655 -6.36506e-19 0.00336177 1.50469e-18 0.00234324)
(0.0111308 0.00528705 1.1043e-18 0.0127193 -3.10321e-18 0.011815)
(0.0200817 0.00935091 -2.84552e-20 0.0215593 -8.66343e-20 0.0209248)
(0.0287378 0.0130017 2.1403e-19 0.0288544 -1.40821e-18 0.0291609)
(0.0379831 0.0166565 4.29062e-20 0.0358288 1.46815e-18 0.0376168)
(0.0475947 0.0202665 -1.29836e-19 0.0426315 -5.6348e-19 0.0461236)
(0.0586091 0.0240988 -5.52538e-21 0.0496297 -9.49353e-19 0.0555277)
(0.0714354 0.0283227 7.03171e-20 0.0574131 -6.87927e-19 0.0660502)
(0.0849085 0.0322957 3.46499e-20 0.0646493 -3.89688e-20 0.0764481)
(0.097079 0.0352511 4.03763e-20 0.0699678 4.15969e-20 0.0850248)
(0.105861 0.0364231 -1.95116e-20 0.0719377 1.24883e-19 0.0903198)
(0.109418 0.0354298 -9.37042e-20 0.0700153 1.8377e-19 0.0910744)
(0.106578 0.0319876 -4.60588e-20 0.0637982 -5.96474e-19 0.0863778)
(0.0986673 0.0265469 -5.80709e-20 0.0544354 -2.28021e-19 0.0774046)
(0.0902999 0.0204115 1.62789e-19 0.0449762 -3.57098e-19 0.0681514)
(0.0826076 0.0135319 -1.77792e-19 0.0363492 -3.83126e-19 0.0597485)
(0.0745019 0.00539552 -4.36671e-19 0.0291405 3.45487e-19 0.0518149)
(0.0686502 -0.00353423 1.65493e-19 0.0265234 -1.34554e-18 0.0472518)
(0.066865 -0.0119777 3.46009e-19 0.0304667 3.90535e-19 0.0479992)
(0.065045 -0.0179446 3.11375e-19 0.0370377 1.55155e-18 0.0498753)
(0.0566858 -0.0196273 -7.9585e-19 0.0398184 8.3395e-19 0.0464348)
(0.0384154 -0.0162866 9.0359e-19 0.0368405 3.77336e-18 0.0349302)
(0.0223849 -0.00915819 -4.39533e-19 0.043076 9.37293e-19 0.0293579)
(0.0353467 0.000563862 -1.76839e-18 0.0899044 1.44834e-18 0.05861)
(0.0682325 0.0115667 -5.08982e-19 0.172141 -1.54973e-18 0.11572)
(0.116414 0.0298077 1.27142e-18 0.28496 2.56126e-18 0.195546)
(0.183186 0.0563683 1.84535e-18 0.436021 -2.99236e-18 0.304257)
(0.277914 0.0965783 -7.09492e-19 0.644167 2.63156e-18 0.45827)
(0.416267 0.165096 -8.69204e-19 0.91704 -1.11283e-18 0.66615)
(0.618185 0.276488 -2.81159e-19 1.20727 -5.21095e-19 0.8778)
(0.77641 0.284305 6.40888e-20 1.80009 2.89571e-18 1.34534)
(0.0113548 -0.00105374 -1.04827e-22 0.00980842 -2.22014e-22 0.0107209)
(0.0119094 -0.00175314 -5.72525e-22 0.0119245 1.72763e-21 0.0120318)
(0.0020966 6.02864e-05 -3.49291e-21 0.00164856 -1.25135e-20 0.0018159)
(0.131902 0.0241587 -4.55925e-20 0.06929 -1.88751e-19 0.100735)
(1.04664 0.136916 2.02368e-19 0.436472 2.81123e-19 0.750377)
(1.87654 0.0963438 2.42289e-19 0.724793 -5.25009e-19 1.29201)
(1.20142 -0.08583 4.09242e-19 0.469302 -2.76267e-18 0.83597)
(0.371475 -0.0813339 1.50193e-18 0.186431 -2.49009e-18 0.267149)
(0.163711 -0.0446321 -5.84466e-19 0.0922463 1.60553e-18 0.125562)
(0.0951979 -0.0265211 3.36263e-19 0.0539885 5.18717e-19 0.0747258)
(0.0630093 -0.018451 -4.62268e-19 0.0372142 1.56094e-18 0.0498748)
(0.0465044 -0.0128828 -8.35205e-19 0.0263882 1.80622e-18 0.0361009)
(0.0329355 -0.00753729 6.56235e-19 0.0167278 -1.38804e-18 0.0242323)
(0.0270851 -0.00371919 -1.80302e-19 0.0116118 1.35556e-18 0.0186992)
(0.0271663 -0.00018321 -3.1732e-19 0.0104324 -1.56225e-18 0.0182988)
(0.0313653 0.00279362 -1.5776e-19 0.0125495 -6.71542e-19 0.0215684)
(0.0389027 0.00540131 1.10889e-19 0.0164738 3.34482e-19 0.0276147)
(0.0477493 0.00726411 1.86801e-19 0.0205886 1.57129e-20 0.0343521)
(0.0569781 0.0080134 4.54281e-20 0.0240986 7.7759e-20 0.0408808)
(0.0657257 0.00705564 -1.47224e-20 0.0265402 -1.08362e-19 0.0466126)
(0.0727992 0.00411199 -2.4692e-20 0.0280016 -2.56905e-19 0.0511063)
(0.078568 -0.000420453 7.92487e-20 0.0296486 -3.65262e-19 0.0549924)
(0.0852719 -0.00622367 4.81839e-20 0.0331791 -1.68022e-19 0.0602168)
(0.0945546 -0.0132899 4.95656e-20 0.0399253 1.47151e-19 0.0681293)
(0.106857 -0.0212315 -2.2798e-20 0.0501488 8.77856e-19 0.0792024)
(0.121554 -0.0296428 7.57109e-19 0.0630987 -1.05371e-18 0.0929138)
(0.136441 -0.0377136 2.05919e-19 0.0768785 -7.86254e-19 0.107068)
(0.148777 -0.0445502 1.8006e-19 0.0892193 2.07139e-18 0.119259)
(0.153916 -0.0486322 -4.71397e-19 0.0967488 6.28391e-19 0.125411)
(0.148657 -0.0490508 -1.25181e-18 0.0973331 -8.28358e-19 0.123069)
(0.129176 -0.045284 1.01917e-18 0.0900495 -1.69401e-18 0.109639)
(0.0938864 -0.0373031 -1.53404e-18 0.0763084 1.14721e-18 0.0853078)
(0.0490283 -0.0246031 3.05972e-18 0.0674177 -1.13953e-18 0.0586821)
(0.0449597 -0.00573943 1.58671e-18 0.117353 -2.35644e-18 0.0820941)
(0.0972208 0.0218046 1.46839e-18 0.245412 1.29845e-18 0.172328)
(0.182818 0.0613868 9.57112e-19 0.43009 2.84653e-18 0.307361)
(0.303114 0.115832 5.36752e-19 0.680728 2.72738e-18 0.492885)
(0.472132 0.194618 -1.06748e-18 1.022 -3.22656e-18 0.751714)
(0.724251 0.325139 7.01241e-19 1.46888 -1.10564e-18 1.10245)
(1.09743 0.53118 -1.3299e-18 1.92143 -2.31853e-18 1.47027)
(1.17123 0.553741 -3.6465e-19 2.27501 -1.30102e-18 1.77909)
(0.00899089 -0.00080303 4.16686e-22 0.00757098 1.48374e-21 0.00825978)
(0.0092264 -0.00115032 -9.56846e-22 0.00869415 -2.02035e-21 0.00894507)
(0.00649649 -0.00078404 3.20328e-21 0.00679864 9.60226e-21 0.00664434)
(0.00137496 3.01045e-05 1.49432e-21 0.00119153 3.972e-21 0.00127359)
(0.15119 0.024786 -1.25749e-19 0.0706631 -2.47633e-19 0.111047)
(1.07998 0.12028 2.33441e-19 0.438678 -2.62759e-19 0.766559)
(2.16961 0.0965139 -3.25384e-19 0.834309 -3.92004e-20 1.4939)
(1.78887 -0.100885 -5.10874e-20 0.689841 8.26139e-19 1.2463)
(0.719975 -0.140083 7.67927e-19 0.339028 -9.77171e-20 0.518871)
(0.329078 -0.0848825 7.23626e-20 0.179996 1.98027e-21 0.246129)
(0.189036 -0.0519126 4.41069e-19 0.106361 -3.14711e-18 0.147036)
(0.147294 -0.0414569 -3.38798e-19 0.083991 5.26772e-19 0.11649)
(0.119263 -0.0337578 -4.04799e-19 0.068366 3.30215e-19 0.0942264)
(0.105591 -0.0301215 4.92511e-19 0.0610585 -3.3124e-18 0.0830801)
(0.0995959 -0.0273301 4.10361e-19 0.0559498 2.25446e-19 0.0776213)
(0.0970271 -0.0257293 2.51456e-19 0.0532994 2.47747e-19 0.0747868)
(0.0987489 -0.0250321 -2.43474e-19 0.0526628 9.06956e-19 0.075423)
(0.10374 -0.025402 1.13129e-20 0.0541862 1.89415e-19 0.0786509)
(0.112576 -0.0272157 5.25064e-20 0.0583822 -9.71359e-20 0.0850917)
(0.125648 -0.0309494 8.34792e-20 0.0658607 6.4809e-20 0.0953682)
(0.140726 -0.0365173 -5.35313e-20 0.0761371 3.21895e-19 0.108141)
(0.155806 -0.0427893 -1.27029e-19 0.0875728 3.12364e-19 0.121466)
(0.171013 -0.0490005 2.49993e-19 0.0991898 2.2346e-19 0.134815)
(0.187001 -0.0552496 1.00392e-19 0.111156 5.46407e-19 0.148608)
(0.203374 -0.0613546 -5.15017e-19 0.123019 -9.07872e-20 0.162558)
(0.220008 -0.0671846 -3.63754e-19 0.134453 2.73334e-18 0.176547)
(0.236002 -0.0723357 1.71261e-19 0.144705 -4.1235e-20 0.189556)
(0.249171 -0.0762867 -8.60165e-19 0.15259 -1.10041e-18 0.20017)
(0.25301 -0.0775696 -7.10044e-19 0.155155 -2.33821e-18 0.20327)
(0.243305 -0.0752875 1.21613e-18 0.150331 -1.09474e-18 0.196265)
(0.211938 -0.0679629 -4.52659e-19 0.135305 2.8569e-18 0.172914)
(0.154304 -0.0543403 6.62445e-19 0.108247 -1.76498e-18 0.130915)
(0.0682887 -0.0318702 -3.10926e-18 0.0741252 5.52617e-18 0.0709503)
(0.0499282 0.00194543 -3.1555e-18 0.131773 4.16056e-19 0.0914525)
(0.142657 0.0503094 -1.69151e-18 0.330532 1.18673e-18 0.237229)
(0.281683 0.116801 -1.92962e-18 0.606056 1.44387e-18 0.444719)
(0.469408 0.205781 6.31885e-19 0.9702 -1.25473e-19 0.721111)
(0.724043 0.329542 -2.22956e-20 1.44865 1.17518e-19 1.09262)
(1.09654 0.523129 7.13234e-19 2.05953 2.25277e-18 1.58399)
(1.61915 0.802168 2.20054e-18 2.65196 -1.23159e-18 2.09481)
(1.63963 0.821091 -8.59689e-19 2.79912 -1.35404e-18 2.27095)
(0.00665831 -0.000607875 -3.38226e-22 0.00562686 -9.17958e-22 0.00615066)
(0.00609143 -0.000700455 2.11019e-21 0.00559702 5.2916e-21 0.00583284)
(0.00704988 -0.00097175 -1.16005e-21 0.00713521 -4.78035e-21 0.00709094)
(0.00287664 -0.000206594 -2.29681e-22 0.00301244 -1.29591e-21 0.00294485)
(0.000439777 3.75988e-07 4.06455e-23 0.000410631 2.09649e-22 0.000423952)
(0.123094 0.0169373 -2.94408e-20 0.0544325 -3.31031e-20 0.0886452)
(0.947223 0.0904894 -4.90781e-20 0.377924 -2.32022e-20 0.667355)
(2.3059 0.0907614 -3.58669e-19 0.883424 8.29023e-19 1.59094)
(2.39573 -0.10121 -6.2564e-19 0.917278 -3.74865e-19 1.66127)
(1.30924 -0.213512 -1.23933e-19 0.57479 -1.43786e-18 0.948175)
(0.58319 -0.144131 6.30211e-19 0.311999 2.35637e-18 0.429548)
(0.351235 -0.09826 8.46458e-19 0.201511 -1.41725e-18 0.271439)
(0.259451 -0.0734609 -1.09375e-18 0.148762 7.26847e-19 0.20499)
(0.219897 -0.065229 5.09189e-19 0.130774 1.4889e-18 0.175999)
(0.205845 -0.0621152 1.46831e-20 0.124115 6.92176e-19 0.165751)
(0.199356 -0.0612973 -3.21588e-19 0.122365 -1.35043e-19 0.160834)
(0.20211 -0.0624495 2.43341e-19 0.124534 -1.29488e-18 0.163459)
(0.209115 -0.0649079 -3.66476e-20 0.129415 8.39168e-19 0.169237)
(0.221368 -0.0689898 1.24647e-19 0.137527 -1.61908e-19 0.179293)
(0.238913 -0.0748955 6.39511e-20 0.149247 2.88324e-19 0.193772)
(0.259208 -0.0823086 -1.10468e-19 0.16382 -4.11459e-19 0.21117)
(0.278957 -0.0894659 7.15529e-20 0.177917 1.3966e-20 0.228095)
(0.297638 -0.0953458 -3.85021e-20 0.189674 1.54275e-19 0.243143)
(0.315963 -0.100171 -4.58696e-19 0.199495 -4.66046e-19 0.257011)
(0.333317 -0.104042 8.55071e-19 0.207574 -1.19121e-18 0.269555)
(0.350446 -0.107384 -2.72704e-19 0.214744 -5.31159e-19 0.281661)
(0.368813 -0.110718 -8.35089e-19 0.222145 -5.68458e-19 0.294421)
(0.386202 -0.113673 8.7609e-19 0.228857 -1.55362e-18 0.306579)
(0.392698 -0.114033 2.05111e-18 0.230275 -3.40076e-19 0.310366)
(0.380784 -0.10987 1.08655e-20 0.222099 2.25234e-18 0.300626)
(0.337806 -0.0983933 -1.12809e-18 0.19858 -1.11796e-18 0.267169)
(0.254919 -0.077043 -1.04026e-18 0.154375 1.10193e-18 0.204015)
(0.117429 -0.041894 1.46022e-18 0.0836858 -5.87599e-18 0.0999996)
(0.0429945 0.0105905 3.71467e-18 0.107485 -3.92876e-18 0.0758204)
(0.190135 0.0839429 1.89711e-18 0.390717 -3.2939e-18 0.291059)
(0.392816 0.182372 -1.43105e-18 0.76565 1.74758e-19 0.580137)
(0.656381 0.310806 3.06839e-20 1.24512 2.37277e-18 0.952393)
(1.00185 0.482556 -1.19473e-18 1.85205 -1.24449e-18 1.43361)
(1.48621 0.732326 -3.12054e-18 2.59891 1.06266e-18 2.0462)
(2.1031 1.05167 -9.89834e-19 3.29655 2.10801e-18 2.66487)
(2.13141 1.07741 1.89849e-18 3.39406 -7.5838e-19 2.80415)
(0.00501248 -0.000430351 -1.5026e-22 0.00419353 -2.69582e-22 0.00460869)
(0.00455534 -0.000514375 5.06505e-22 0.00412837 2.46069e-22 0.00433977)
(0.00468015 -0.000606008 -1.49517e-21 0.00458328 -2.42284e-21 0.00462646)
(0.00509713 -0.000676142 -2.26008e-21 0.00541458 -3.40704e-21 0.00525647)
(0.00120991 -4.34932e-05 -5.99284e-23 0.00124973 -9.52515e-23 0.00122996)
(2.08273e-05 -3.68906e-08 1.09409e-24 2.07443e-05 1.98535e-24 2.0781e-05)
(0.0676747 0.0072048 -1.69557e-20 0.0295965 -3.30878e-20 0.0484726)
(0.695463 0.056168 1.43429e-19 0.273716 1.83305e-19 0.486521)
(2.13303 0.0735163 3.72981e-19 0.81417 4.20487e-19 1.47641)
(2.86119 -0.0763835 -1.22228e-20 1.09113 2.16635e-18 1.97)
(2.12207 -0.270909 -1.53235e-18 0.878219 5.88826e-19 1.52529)
(1.03302 -0.237934 2.13415e-19 0.524804 -2.86875e-18 0.764832)
(0.586645 -0.164078 4.77846e-19 0.338946 2.80039e-18 0.448303)
(0.414605 -0.1218 -1.11909e-18 0.245868 -3.72709e-19 0.327477)
(0.358421 -0.108475 5.06675e-19 0.216489 -1.9353e-18 0.289361)
(0.330675 -0.103963 -3.02573e-19 0.206781 1.09793e-18 0.269353)
(0.326898 -0.105418 2.54044e-19 0.209302 1.07188e-18 0.268519)
(0.332197 -0.108912 2.10034e-19 0.216307 5.75521e-19 0.273949)
(0.348424 -0.11508 -1.17099e-19 0.228509 5.08838e-19 0.288151)
(0.371475 -0.122991 3.69623e-21 0.244264 -1.4731e-18 0.307368)
(0.397583 -0.131881 4.63622e-20 0.261898 6.41193e-19 0.329246)
(0.422485 -0.139574 -2.1241e-19 0.277188 -6.80241e-21 0.349328)
(0.44765 -0.145669 3.42184e-19 0.289503 -7.26495e-19 0.367837)
(0.475005 -0.150912 2.33333e-19 0.300459 -8.25082e-20 0.386757)
(0.503575 -0.15558 -4.69474e-19 0.310719 1.50701e-18 0.405995)
(0.531564 -0.159698 -3.28834e-19 0.320286 -1.30446e-18 0.424686)
(0.558269 -0.163292 1.08757e-18 0.329152 -8.8833e-19 0.442402)
(0.583463 -0.166665 -3.1277e-20 0.337684 2.41357e-18 0.459364)
(0.596865 -0.16736 2.11954e-19 0.340674 2.62871e-18 0.467523)
(0.586147 -0.161965 -6.76689e-19 0.330912 -4.01975e-19 0.457626)
(0.534876 -0.146317 5.10943e-20 0.299854 -1.83865e-18 0.416379)
(0.429055 -0.116397 -1.64279e-18 0.239136 -3.62913e-19 0.333282)
(0.248822 -0.0670962 -3.69873e-19 0.13819 2.58964e-18 0.192732)
(0.0129868 0.00659721 8.04482e-19 0.0205972 3.9824e-18 0.0173035)
(0.220292 0.108181 4.88222e-18 0.389483 8.74304e-19 0.305779)
(0.490594 0.241444 -1.92122e-18 0.860657 -1.05242e-18 0.676702)
(0.830218 0.41002 -5.54083e-18 1.4421 -8.9167e-19 1.13826)
(1.26001 0.626023 2.7321e-18 2.15064 -4.2068e-19 1.71116)
(1.82877 0.91585 -1.21356e-18 2.98757 -2.48492e-18 2.40859)
(2.47571 1.24362 -2.11169e-19 3.75318 8.26967e-19 3.09263)
(2.59197 1.3097 9.42408e-19 3.97976 2.11524e-18 3.31074)
(0.00371683 -0.000306739 -3.34275e-23 0.00309026 -5.10112e-23 0.00340833)
(0.00356176 -0.000389606 -4.40435e-22 0.00317633 -8.96471e-22 0.00336845)
(0.00338096 -0.000418281 3.69515e-22 0.00324034 1.10428e-21 0.00330909)
(0.00358953 -0.000481665 2.4175e-21 0.00370435 4.32299e-21 0.00364346)
(0.00395269 -0.000520998 4.17661e-22 0.00436391 8.07821e-22 0.00415815)
(0.000140982 -6.53836e-07 6.4135e-25 0.000141755 2.05989e-25 0.000141372)
(0.000990835 -0.000105325 -3.17683e-21 0.00101279 -4.31755e-21 0.000997939)
(0.0262453 0.00167591 7.96222e-22 0.0122025 2.98722e-21 0.0191089)
(0.41447 0.0270746 -4.54e-20 0.161264 -1.75146e-19 0.288177)
(1.65253 0.0483433 3.64738e-19 0.628954 6.19938e-19 1.14591)
(2.9709 -0.0467126 -3.23892e-19 1.13046 -3.06691e-18 2.04166)
(2.92741 -0.272381 8.20616e-19 1.16391 2.84107e-18 2.06209)
(1.82928 -0.357631 -1.72432e-19 0.851122 -1.81585e-18 1.3613)
(0.950048 -0.255743 -8.63116e-19 0.534492 -2.66185e-19 0.718094)
(0.630318 -0.191467 1.55422e-18 0.38712 -1.42064e-18 0.49677)
(0.50882 -0.158282 4.97057e-19 0.315807 1.19624e-18 0.411278)
(0.474939 -0.152965 -6.06348e-19 0.303294 7.5204e-19 0.391152)
(0.466389 -0.154622 -5.6981e-19 0.306752 6.42301e-19 0.386918)
(0.479458 -0.161508 -8.92625e-19 0.320601 -2.30686e-20 0.399827)
(0.504089 -0.170445 8.70301e-19 0.338586 -9.51679e-19 0.420481)
(0.537865 -0.181242 1.11839e-19 0.359984 1.26385e-18 0.448091)
(0.574215 -0.191188 -4.68482e-19 0.379701 -2.86104e-19 0.476118)
(0.613922 -0.199846 2.61381e-19 0.397192 4.23841e-19 0.504474)
(0.660253 -0.208584 1.61749e-19 0.415501 3.39407e-19 0.536491)
(0.712603 -0.217931 8.80416e-20 0.435841 -5.39084e-19 0.572613)
(0.767999 -0.22787 -2.99574e-20 0.458017 7.27153e-19 0.611254)
(0.821951 -0.237444 7.37326e-19 0.479888 1.89052e-18 0.649058)
(0.867684 -0.245062 2.46423e-19 0.497901 -7.63096e-19 0.681023)
(0.892731 -0.247595 -1.67643e-18 0.505435 3.48518e-19 0.697392)
(0.888925 -0.242563 -1.8262e-18 0.497342 -1.60554e-18 0.691903)
(0.83614 -0.224351 1.7313e-18 0.462357 -2.39502e-19 0.648159)
(0.714723 -0.187005 1.67987e-18 0.388616 -1.91705e-18 0.550721)
(0.502864 -0.124139 1.17401e-18 0.263786 5.29409e-19 0.382284)
(0.188813 -0.0291579 -2.66579e-18 0.0817817 8.91659e-20 0.135703)
(0.203242 0.101623 -2.64779e-18 0.274774 2.83905e-18 0.240254)
(0.532829 0.268611 -1.81384e-20 0.821868 -2.48879e-18 0.678797)
(0.938008 0.472234 4.1355e-18 1.47766 -4.15598e-19 1.21027)
(1.4283 0.719348 -1.56508e-18 2.24079 4.06634e-19 1.83854)
(2.03285 1.02389 1.34205e-18 3.10363 -4.18178e-19 2.56635)
(2.65271 1.33493 -3.29784e-18 3.89563 -1.48164e-18 3.26839)
(2.91343 1.46856 -9.05803e-19 4.36371 6.55392e-19 3.64177)
(0.00279238 -0.000224607 -7.24196e-23 0.0023121 -8.13079e-23 0.00255615)
(0.00270163 -0.000283548 -4.65723e-22 0.00237699 -7.20356e-22 0.00253902)
(0.00266281 -0.000323076 1.8333e-21 0.00249827 2.67137e-21 0.00258035)
(0.00253218 -0.000321732 -1.0858e-22 0.00254084 -6.11675e-22 0.00253589)
(0.00289349 -0.000409734 8.46421e-22 0.00312536 9.33685e-22 0.00300637)
(0.00251449 -0.000264817 -4.58172e-22 0.0028028 -4.20914e-22 0.00265776)
(0.000342607 -4.34571e-06 2.15404e-23 0.000348992 3.8123e-23 0.000345822)
(0.00056656 -2.32051e-05 2.48818e-22 0.000593591 2.3891e-22 0.000579884)
(0.00214322 -5.0837e-06 2.8341e-23 0.00166827 8.8373e-22 0.00189932)
(0.178261 0.00806765 1.59881e-19 0.0686868 1.48005e-19 0.123357)
(1.01565 0.0233389 -1.80092e-19 0.386034 -2.03506e-20 0.702978)
(2.5323 -0.0327164 -8.9137e-19 0.960961 -2.59411e-19 1.74913)
(3.36609 -0.213671 1.25522e-18 1.30889 -1.54082e-18 2.329)
(2.80072 -0.419909 -2.08752e-18 1.19924 1.57302e-18 2.03145)
(1.66495 -0.404082 2.74666e-19 0.861886 -2.15468e-18 1.27125)
(0.958052 -0.287749 1.20592e-18 0.58612 2.18381e-18 0.746345)
(0.707491 -0.229294 5.76489e-19 0.45915 -2.39267e-18 0.573077)
(0.628945 -0.207063 8.90723e-20 0.410932 8.55032e-19 0.520148)
(0.622732 -0.209671 -1.03745e-18 0.41537 -1.54077e-18 0.521339)
(0.644775 -0.219636 4.6081e-19 0.43593 1.50072e-18 0.540598)
(0.687362 -0.233816 1.28261e-20 0.464453 -1.09485e-18 0.575003)
(0.740172 -0.248089 -4.74113e-19 0.492857 5.82258e-19 0.614997)
(0.801948 -0.261973 3.788e-19 0.52074 -7.42844e-20 0.659484)
(0.875426 -0.27713 -2.7567e-19 0.55204 1.14207e-19 0.71159)
(0.960365 -0.294333 -2.13716e-19 0.588511 1.05637e-18 0.772105)
(1.05348 -0.313616 -1.21573e-19 0.629994 -1.41347e-19 0.839283)
(1.14923 -0.333869 -1.80933e-18 0.673917 2.77248e-19 0.909011)
(1.23747 -0.352413 -1.74279e-19 0.71456 1.36884e-19 0.973418)
(1.30177 -0.36483 7.34792e-20 0.742693 -1.96885e-18 1.01966)
(1.32348 -0.365621 2.92729e-18 0.747097 -3.02306e-19 1.0331)
(1.28062 -0.34816 -5.09399e-19 0.714634 1.46497e-18 0.995866)
(1.15407 -0.306122 1.09679e-18 0.633269 1.30378e-18 0.891975)
(0.924093 -0.23274 -1.9506e-18 0.490669 6.86159e-19 0.705365)
(0.574563 -0.120319 3.29137e-18 0.27677 -2.77399e-18 0.424899)
(0.207453 0.035668 1.77872e-19 0.0924793 -1.33855e-19 0.151158)
(0.470865 0.229915 2.52854e-18 0.576163 3.58655e-19 0.525469)
(0.911689 0.45692 -7.06426e-18 1.25915 1.19663e-18 1.0881)
(1.41996 0.713656 3.13525e-18 2.01617 8.63035e-20 1.72)
(1.99052 0.99955 1.69001e-19 2.82226 5.55212e-19 2.40465)
(2.52213 1.26769 2.56236e-18 3.56752 4.51524e-19 3.05196)
(2.88048 1.44749 -2.42136e-18 4.21056 -1.88787e-18 3.52925)
(0.00210471 -0.000166104 -2.99559e-22 0.00173805 -4.1007e-22 0.00192436)
(0.0020516 -0.000209654 1.27825e-21 0.00178965 1.71919e-21 0.00192042)
(0.00204033 -0.000240001 -2.5626e-22 0.00188241 -5.7921e-22 0.00196116)
(0.00201251 -0.000255103 -2.3883e-21 0.0019714 -3.20048e-21 0.00199216)
(0.00195922 -0.000253905 -1.76382e-22 0.00204131 -1.76248e-22 0.00199993)
(0.00216831 -0.000297152 2.92805e-21 0.00242104 3.97314e-21 0.00229257)
(0.00185474 -0.000180651 -5.22528e-22 0.00210473 -8.6619e-22 0.00197864)
(0.000507774 -1.09367e-05 -2.79549e-22 0.000527361 -3.44318e-22 0.000517605)
(0.000167619 -1.5218e-06 5.45424e-23 0.000170352 6.3389e-23 0.00016899)
(8.68535e-05 -1.17221e-06 3.31303e-24 8.53792e-05 -1.09851e-23 8.60678e-05)
(0.0514837 0.000577485 -1.06446e-20 0.019979 -2.31883e-20 0.0355765)
(0.471651 0.00565128 -1.05604e-19 0.179043 -4.71989e-20 0.325589)
(1.67707 -0.0223712 -5.18818e-19 0.636125 -2.6515e-19 1.15993)
(3.14503 -0.154829 2.75382e-19 1.21072 -1.27155e-18 2.17411)
(3.52517 -0.376192 -4.09178e-19 1.42704 3.6165e-18 2.47764)
(2.68863 -0.523257 7.31301e-19 1.24775 -1.06354e-18 2.00467)
(1.62146 -0.450284 -1.03979e-18 0.917801 1.46395e-18 1.27032)
(1.02322 -0.333906 -1.71712e-19 0.672992 1.02646e-18 0.822965)
(0.823663 -0.281824 -2.93003e-19 0.563439 -5.68323e-19 0.683398)
(0.7995 -0.273239 4.33393e-19 0.542236 -1.6309e-18 0.671621)
(0.845636 -0.288685 6.41493e-19 0.572468 4.17178e-19 0.711042)
(0.92004 -0.310674 -3.78947e-19 0.616701 -1.29075e-18 0.768055)
(1.01077 -0.333817 -1.62905e-19 0.663281 4.90992e-19 0.83483)
(1.11804 -0.359067 1.07869e-18 0.714634 -8.34569e-19 0.913024)
(1.24272 -0.387673 -8.9532e-19 0.773568 3.06682e-19 1.0046)
(1.38113 -0.420007 -3.95713e-19 0.84076 -6.16468e-19 1.10756)
(1.52719 -0.454851 1.97168e-18 0.913524 -2.23162e-18 1.21713)
(1.6699 -0.489175 -9.11865e-19 0.985538 2.0048e-18 1.32446)
(1.78997 -0.517421 1.9602e-19 1.04535 -1.87069e-19 1.41437)
(1.86422 -0.532833 -2.16357e-18 1.07919 2.14798e-18 1.46862)
(1.86715 -0.52711 9.23725e-19 1.07071 -1.37902e-18 1.46633)
(1.77435 -0.491694 -1.2983e-18 1.00378 1.00469e-18 1.38637)
(1.5617 -0.417706 -1.65227e-18 0.862108 -8.05858e-19 1.20843)
(1.20729 -0.296294 7.07568e-19 0.63125 3.07303e-18 0.916291)
(0.724358 -0.123928 -2.41969e-18 0.323304 9.89771e-19 0.523879)
(0.381036 0.08807 -3.10585e-19 0.192032 -1.72057e-19 0.288189)
(0.701427 0.323354 2.77436e-18 0.737009 -3.04665e-18 0.720534)
(1.16214 0.566053 -2.40943e-18 1.41705 1.15789e-18 1.28899)
(1.62986 0.804997 -6.36648e-19 2.09404 -1.32158e-18 1.86134)
(2.0122 1.00457 -4.99153e-18 2.69777 -1.28248e-18 2.36672)
(2.34058 1.17153 2.15317e-18 3.32028 2.95202e-19 2.80613)
(0.00159008 -0.000124247 -2.84005e-22 0.00131134 -3.35633e-22 0.00145289)
(0.00155795 -0.000156074 -1.14722e-21 0.00135131 -1.36645e-21 0.00145455)
(0.0015517 -0.000178334 -1.10373e-22 0.00141558 -1.54305e-22 0.00148358)
(0.00155812 -0.000194733 -1.95594e-22 0.00149864 -1.24201e-22 0.0015285)
(0.00153518 -0.000197798 1.71017e-21 0.00155997 2.17e-21 0.00154778)
(0.00152377 -0.000197723 1.00941e-21 0.00163802 8.10264e-22 0.00158078)
(0.00158655 -0.000202237 -1.478e-21 0.00181011 -1.74012e-21 0.00169719)
(0.00151517 -0.000152261 -8.34603e-22 0.00177156 -1.66913e-22 0.00164207)
(0.00058743 -1.7217e-05 -7.70971e-23 0.000624696 -8.46556e-23 0.000606029)
(6.9628e-05 -2.36077e-07 -7.9266e-24 7.01803e-05 -9.60547e-24 6.99055e-05)
(0.000822423 -8.14135e-05 -1.04182e-21 0.000938476 -7.62304e-22 0.000879892)
(0.00283849 -0.00013979 -4.78e-22 0.00185631 -1.16037e-22 0.00233751)
(0.14212 -0.00142559 1.48272e-19 0.0540571 1.91794e-19 0.097924)
(0.814769 -0.0158214 -1.19899e-18 0.309581 -1.15333e-18 0.562972)
(2.21293 -0.0986798 1.89734e-18 0.848664 2.1267e-18 1.53333)
(3.50474 -0.284074 -1.7194e-19 1.38222 -1.19992e-18 2.43728)
(3.58373 -0.510945 3.06572e-18 1.52217 1.6872e-18 2.56422)
(2.66418 -0.608002 -5.873e-19 1.32846 1.2148e-18 2.03357)
(1.68397 -0.514058 -3.60358e-18 1.02735 -5.88122e-19 1.35503)
(1.16263 -0.404592 1.21343e-18 0.814519 -3.02738e-18 0.963783)
(1.02857 -0.364376 3.90314e-19 0.730887 2.52981e-18 0.866134)
(1.09172 -0.375769 7.87613e-20 0.746683 -1.21596e-18 0.918134)
(1.22135 -0.40918 6.77456e-19 0.811455 9.40174e-19 1.01813)
(1.37327 -0.45036 -4.15848e-19 0.894302 -9.46923e-19 1.13294)
(1.54316 -0.49602 5.16343e-19 0.986691 1.27785e-19 1.26173)
(1.72757 -0.545502 -1.09187e-18 1.08701 1.41634e-18 1.40272)
(1.92354 -0.598735 4.70909e-19 1.19496 7.16226e-19 1.55398)
(2.12234 -0.652628 -6.90872e-19 1.30429 -2.33207e-18 1.70821)
(2.30146 -0.701075 5.10159e-20 1.4029 4.12176e-19 1.84695)
(2.43677 -0.736579 1.11545e-18 1.4754 -1.25049e-18 1.95155)
(2.49818 -0.749806 -6.10823e-20 1.50349 -5.17569e-19 1.99675)
(2.46126 -0.730777 8.49947e-19 1.46793 -3.69273e-19 1.96138)
(2.29984 -0.670005 2.21546e-18 1.35129 1.37618e-19 1.82146)
(1.9951 -0.559659 -2.47388e-18 1.1391 3.92911e-19 1.56295)
(1.53951 -0.396514 -4.03464e-18 0.82867 -1.18743e-18 1.18179)
(0.991534 -0.191706 4.59333e-19 0.461733 -2.39974e-19 0.726679)
(0.544996 0.0311443 2.91196e-18 0.21117 9.48203e-19 0.375886)
(0.649179 0.249852 -1.70133e-20 0.508048 -6.19209e-19 0.573896)
(0.946547 0.43553 4.43325e-18 0.994577 1.30721e-18 0.966922)