/*--------------------------------*- C++ -*----------------------------------*\
| =========                 |                                                 |
| \\      /  F ield         | OpenFOAM: The Open Source CFD Toolbox           |
|  \\    /   O peration     | Version:  2312                                  |
|   \\  /    A nd           | Website:  www.openfoam.com                      |
|    \\/     M anipulation  |                                                 |
\*---------------------------------------------------------------------------*/
FoamFile
{
    version     2.0;
    format      ascii;
    arch        "LSB;label=32;scalar=64";
    class       volSymmTensorField;
    location    "250";
    object      turbulenceProperties:devReff;
}
// * * * * * * * * * * * * * * * * * * * * * * * * * * * * * * * * * * * * * //

dimensions      [0 2 -2 0 0 0 0];

internalField   nonuniform List<symmTensor> 
11040
(
(0.000525724 0.152929 -2.35876e-21 -0.0165988 3.43828e-20 0.0160731)
(0.0348252 0.0734875 1.19739e-20 -0.0407945 2.1806e-19 0.00596923)
(-0.00690568 0.0170116 -2.56771e-19 0.0125134 3.45334e-19 -0.00560773)
(-0.09771 0.0523833 -3.68008e-19 0.0922734 -1.65449e-19 0.00543662)
(-0.118604 0.0831272 -1.82702e-20 0.120425 3.60714e-19 -0.00182078)
(-0.0888104 0.0830928 -4.94639e-19 0.0885026 1.79744e-19 0.000307763)
(-0.0686272 0.0808739 2.70816e-19 0.0683976 -1.82559e-18 0.000229564)
(-0.0548157 0.0779393 3.73864e-19 0.0546436 -2.77281e-19 0.000172102)
(-0.0449454 0.0756118 1.76831e-19 0.0448058 -4.76927e-20 0.000139564)
(-0.0375602 0.0737759 1.55267e-19 0.037513 2.56871e-19 4.71161e-05)
(-0.031262 0.0717889 -1.4439e-19 0.0312538 6.29849e-19 8.28131e-06)
(-0.0263292 0.0709938 -2.32646e-19 0.0263566 4.75416e-19 -2.73452e-05)
(-0.022332 0.0712018 3.67577e-20 0.0224332 -2.84973e-19 -0.000101249)
(-0.0190443 0.0730016 5.01704e-20 0.019215 2.68989e-19 -0.000170747)
(-0.0160721 0.076244 -2.02947e-20 0.0162632 3.65989e-20 -0.000191122)
(-0.0132619 0.0809697 -9.19623e-21 0.0135043 -3.87933e-19 -0.000242462)
(-0.0102559 0.0874783 1.06588e-19 0.0104755 -1.30582e-20 -0.000219575)
(-0.00698834 0.0968144 -1.01649e-20 0.00719862 6.86624e-19 -0.000210283)
(-0.00286241 0.109411 -6.10034e-20 0.00289227 4.02997e-21 -2.9853e-05)
(0.00238473 0.127292 9.98719e-21 -0.00255498 -1.00644e-19 0.000170253)
(0.00955441 0.151403 4.66805e-20 -0.0101102 8.10669e-20 0.000555775)
(0.0186621 0.182079 -5.76547e-20 -0.0196754 2.47651e-19 0.00101335)
(0.0295873 0.221038 7.11906e-21 -0.0311402 -2.10161e-19 0.00155281)
(0.0435462 0.27167 2.59373e-20 -0.0456325 5.12891e-19 0.0020863)
(0.0614953 0.335311 -1.45785e-19 -0.0641052 -4.75199e-19 0.00260987)
(0.0833739 0.408918 -9.13172e-20 -0.0865042 -1.12878e-18 0.00313035)
(0.109134 0.489959 4.37173e-20 -0.112735 -5.39e-19 0.00360078)
(0.137756 0.574734 1.71752e-19 -0.141546 1.54656e-19 0.00378969)
(0.168007 0.657632 -1.02248e-20 -0.171805 -4.55789e-19 0.00379796)
(0.199081 0.738726 -3.21e-20 -0.202405 -1.08428e-18 0.00332482)
(0.230457 0.816383 2.38363e-19 -0.233267 7.29445e-19 0.00281009)
(0.258255 0.880874 -3.50936e-19 -0.260182 -1.61365e-19 0.00192723)
(0.277761 0.917815 -2.8181e-19 -0.278953 2.10002e-18 0.00119209)
(0.285655 0.920458 -3.1717e-19 -0.2859 1.19996e-18 0.000245035)
(0.2793 0.881152 -7.89502e-20 -0.278587 8.68523e-20 -0.000713507)
(0.257404 0.802265 -9.10667e-20 -0.255317 1.44716e-18 -0.00208735)
(0.217839 0.681687 5.79008e-20 -0.214836 5.21428e-19 -0.00300308)
(0.155523 0.506235 -9.97456e-20 -0.1523 7.47938e-19 -0.00322306)
(0.0735849 0.274281 -3.43825e-19 -0.0701004 -1.09249e-18 -0.00348452)
(0.0226846 0.164419 2.3918e-20 -0.00970101 -9.36101e-19 -0.0129836)
(-0.115684 0.108829 2.47966e-19 0.129309 1.49056e-19 -0.0136256)
(0.00929297 -0.00587768 2.16141e-21 -0.00611003 -4.61459e-21 -0.00318295)
(0.023149 0.0314247 3.73768e-20 -0.0175626 -1.55337e-20 -0.00558645)
(0.0955031 0.076904 4.89458e-19 -0.101746 -7.80283e-19 0.00624253)
(0.286299 0.0802751 3.62188e-19 -0.273396 -2.59477e-19 -0.0129026)
(0.111013 -0.037505 1.83136e-19 -0.110459 -6.86139e-19 -0.000554553)
(0.00846489 -0.0173171 7.10081e-19 -0.00682631 -1.43077e-18 -0.00163858)
(-0.00354374 -0.00397436 -1.05401e-18 0.00309805 4.20545e-18 0.000445686)
(-0.00446021 0.00196064 -1.06997e-18 0.00397313 2.85533e-18 0.000487079)
(-0.00504577 0.0057474 -1.10934e-19 0.00459926 -2.26486e-19 0.000446509)
(-0.00557478 0.00859385 -1.41447e-19 0.005283 6.16031e-20 0.000291781)
(-0.00544983 0.0108806 6.84328e-19 0.00528979 -1.76896e-18 0.000160036)
(-0.00504824 0.0132455 2.34937e-20 0.00488911 -1.14278e-19 0.000159134)
(-0.00469042 0.015717 -2.87203e-19 0.00462625 1.11088e-18 6.41701e-05)
(-0.00427547 0.0187496 -1.85608e-19 0.00433699 7.74661e-20 -6.15262e-05)
(-0.00373687 0.0226351 -8.77477e-20 0.00390032 -3.415e-19 -0.000163452)
(-0.00306793 0.0272504 1.72812e-20 0.00344253 1.15448e-18 -0.0003746)
(-0.00204477 0.0329246 -3.87857e-20 0.00267846 4.05394e-19 -0.000633682)
(-0.000644144 0.0394766 -2.57558e-20 0.00178557 -1.16271e-18 -0.00114143)
(0.00140698 0.0472698 -4.77545e-20 0.000386279 -5.43544e-20 -0.00179326)
(0.00412605 0.0553154 -1.34654e-20 -0.00150373 1.75071e-19 -0.00262232)
(0.00769819 0.0636739 -1.44328e-20 -0.00443172 -3.97872e-20 -0.00326647)
(0.0116847 0.0715146 7.09352e-20 -0.00790626 -5.59764e-19 -0.00377839)
(0.0155345 0.077903 9.90115e-21 -0.0112502 7.44112e-19 -0.00428436)
(0.0192757 0.0829386 -9.82816e-20 -0.0144625 -6.66602e-19 -0.00481317)
(0.0228678 0.0866556 -2.45319e-20 -0.0176469 5.28762e-19 -0.00522096)
(0.0259693 0.0887017 1.81736e-19 -0.0205616 1.74101e-18 -0.00540767)
(0.0279581 0.0875034 2.88546e-19 -0.0226494 9.30412e-19 -0.00530874)
(0.0280926 0.0818962 -2.55967e-19 -0.0232168 2.07037e-19 -0.00487583)
(0.0261036 0.0720205 -1.61643e-19 -0.0221409 4.18515e-19 -0.00396269)
(0.0220226 0.0587987 2.06793e-19 -0.0191505 6.82225e-19 -0.00287209)
(0.0178705 0.0477818 7.69046e-20 -0.0161311 -9.51643e-19 -0.00173945)
(0.0128036 0.0375268 4.44431e-19 -0.0121996 -1.80256e-18 -0.000604062)
(0.0067084 0.0289182 4.08685e-19 -0.00757784 -3.28329e-18 0.000869443)
(-0.00086235 0.0237442 4.88864e-19 -0.00148337 -1.38739e-18 0.00234572)
(-0.0105875 0.0238812 -2.8501e-19 0.00639786 1.06314e-19 0.00418963)
(-0.025059 0.0253751 2.22964e-19 0.0189204 -4.60758e-18 0.0061386)
(-0.0443483 0.0296291 -6.51602e-19 0.0358036 -5.31601e-19 0.00854476)
(-0.0708623 0.0369779 -1.43074e-21 0.0578306 -1.77829e-18 0.0130316)
(-0.102483 0.0487491 9.3724e-19 0.0823412 4.39048e-18 0.0201417)
(-0.127867 0.060475 5.19784e-19 0.108463 4.89213e-18 0.0194041)
(-0.354923 -0.0194876 -2.18505e-19 0.243395 -1.36217e-18 0.111528)
(0.00238205 -0.00510602 -6.26852e-22 -0.00241454 -1.08099e-21 3.24921e-05)
(0.00138131 -0.00180759 -9.4666e-21 -0.000591575 -4.39472e-20 -0.000789735)
(0.0173763 0.0170759 -1.05546e-20 -0.0171046 1.47907e-19 -0.000271631)
(0.238704 0.134827 9.66731e-20 -0.24591 3.00029e-19 0.00720623)
(0.456623 0.0940163 -6.44236e-22 -0.447596 -9.26671e-20 -0.00902739)
(0.223788 -0.0638933 -6.88282e-19 -0.219281 2.37155e-18 -0.00450676)
(0.0425238 -0.0455503 2.77796e-20 -0.0376553 -1.80549e-19 -0.00486849)
(0.0121236 -0.0220741 1.42492e-19 -0.0115906 -3.10402e-18 -0.000533049)
(0.00553983 -0.010275 -2.26719e-19 -0.0056267 2.06522e-20 8.6868e-05)
(0.00147362 -0.00369134 3.40373e-19 -0.00139976 -9.70055e-19 -7.38596e-05)
(-0.00042791 0.000951733 -6.44002e-19 0.000729217 1.52241e-18 -0.000301307)
(-0.000766749 0.00535098 1.11766e-18 0.000840986 -3.14073e-18 -7.42377e-05)
(-0.000783104 0.00946673 -2.88077e-20 0.000712738 -8.77074e-20 7.03658e-05)
(-0.000182164 0.0131643 2.16708e-19 -6.40733e-05 -1.42583e-18 0.000246237)
(0.000850807 0.0168659 4.34457e-20 -0.00133067 1.48661e-18 0.000479866)
(0.0021717 0.0205209 -1.31466e-19 -0.00285381 -5.70554e-19 0.000682103)
(0.00407004 0.0243972 -5.59381e-21 -0.00502052 -9.6111e-19 0.000950476)
(0.00654672 0.0286623 7.11602e-20 -0.00764369 -6.96175e-19 0.00109696)
(0.00968445 0.0326711 3.50526e-20 -0.0108102 -3.94217e-20 0.00112578)
(0.0132037 0.0356523 4.08358e-20 -0.014216 4.20703e-20 0.00101231)
(0.0166746 0.0368353 -1.97324e-20 -0.0176323 1.26296e-19 0.000957733)
(0.0194687 0.0358342 -9.47737e-20 -0.0203841 1.85868e-19 0.000915415)
(0.0212373 0.0323591 -4.65938e-20 -0.0220396 -6.03402e-19 0.000802267)
(0.0220882 0.026859 -5.87536e-20 -0.0226637 -2.30702e-19 0.000575508)
(0.0227474 0.0206444 1.64646e-19 -0.0230935 -3.61172e-19 0.000346158)
(0.0232829 0.0136751 -1.79673e-19 -0.0234649 -3.87179e-19 0.000181949)
(0.0229017 0.0054476 -4.40886e-19 -0.0228974 3.48822e-19 -4.23725e-06)
(0.0213591 -0.00356496 1.66931e-19 -0.0211339 -1.35723e-18 -0.000225276)
(0.0185641 -0.0120705 3.48692e-19 -0.0181163 3.93562e-19 -0.000447826)
(0.0144915 -0.0180682 3.13519e-19 -0.0137088 1.56223e-18 -0.000782713)
(0.00909484 -0.0197476 -8.00727e-19 -0.00787589 8.3906e-19 -0.00121895)
(0.00169594 -0.0163756 9.08529e-19 0.00011239 3.79399e-18 -0.00180833)
(-0.00926664 -0.0092031 -4.41689e-19 0.011526 9.41889e-19 -0.00225936)
(-0.026055 0.000566353 -1.7762e-18 0.0287438 1.45474e-18 -0.00268884)
(-0.0506665 0.0116129 -5.11014e-19 0.0536563 -1.55591e-18 -0.00298977)
(-0.0828573 0.0299151 1.27601e-18 0.0862964 2.57049e-18 -0.0034391)
(-0.12504 0.0565513 1.85134e-18 0.128616 -3.00208e-18 -0.00357559)
(-0.182733 0.0968592 -7.11556e-19 0.184585 2.63921e-18 -0.00185197)
(-0.250865 0.165522 -8.71449e-19 0.251202 -1.11571e-18 -0.000336794)
(-0.283519 0.277094 -2.81776e-19 0.306854 -5.22238e-19 -0.0233349)
(-0.531719 0.28476 6.41915e-20 0.493599 2.90035e-18 0.0381199)
(0.00201354 -0.00291946 -2.9043e-22 -0.00227078 -6.15104e-22 0.000257235)
(-0.000102286 -0.00391433 -1.27831e-21 -6.86951e-05 3.85737e-21 0.000170981)
(0.000637824 0.000158295 -9.1714e-21 -0.000538617 -3.2857e-20 -9.9207e-05)
(0.0345451 0.0266977 -5.03842e-20 -0.0346474 -2.08589e-19 0.000102298)
(0.307758 0.139459 2.06127e-19 -0.313747 2.86345e-19 0.00598938)
(0.583154 0.0970756 2.44129e-19 -0.577338 -5.28997e-19 -0.00581603)
(0.367892 -0.0863071 4.11517e-19 -0.368299 -2.77803e-18 0.000407336)
(0.0969915 -0.081785 1.51026e-18 -0.0890785 -2.5039e-18 -0.00791297)
(0.0367622 -0.0449059 -5.88051e-19 -0.0351413 1.61538e-18 -0.00162094)
(0.0206912 -0.0266896 3.38401e-19 -0.0207802 5.22014e-19 8.89735e-05)
(0.0130632 -0.0185741 -4.65353e-19 -0.0129041 1.57136e-18 -0.000159047)
(0.0102428 -0.0129709 -8.40919e-19 -0.010011 1.81858e-18 -0.000231849)
(0.00836193 -0.00759023 6.60844e-19 -0.00795957 -1.39779e-18 -0.000402363)
(0.00800942 -0.00374553 -1.81579e-19 -0.00757349 1.36516e-18 -0.000435933)
(0.00859439 -0.00018451 -3.19572e-19 -0.00825833 -1.57334e-18 -0.000336056)
(0.00960535 0.00281347 -1.58881e-19 -0.00934416 -6.76314e-19 -0.000261183)
(0.011319 0.00543976 1.11678e-19 -0.0112696 3.36863e-19 -4.93824e-05)
(0.0136157 0.0073159 1.88133e-19 -0.0137386 1.5825e-20 0.000122967)
(0.0164423 0.00807066 4.57527e-20 -0.0166722 7.83146e-20 0.000229891)
(0.0195717 0.00710603 -1.48275e-20 -0.0198937 -1.09135e-19 0.000322001)
(0.0223217 0.00414133 -2.48682e-20 -0.0227956 -2.58738e-19 0.000473957)
(0.0243364 -0.000423436 7.9811e-20 -0.02493 -3.67854e-19 0.000593596)
(0.0258959 -0.00626722 4.8521e-20 -0.0265614 -1.69198e-19 0.000665517)
(0.0272011 -0.0133799 4.99013e-20 -0.027798 1.48147e-19 0.000596912)
(0.0283007 -0.0213674 -2.2944e-20 -0.0287701 8.83474e-19 0.000469411)
(0.0292035 -0.0298178 7.6158e-19 -0.0295974 -1.05994e-18 0.000393818)
(0.029804 -0.0379152 2.0702e-19 -0.0300773 -7.90456e-19 0.000273337)
(0.0298336 -0.0447632 1.80921e-19 -0.0300086 2.0813e-18 0.000175088)
(0.028679 -0.0488393 -4.73404e-19 -0.0287315 6.31067e-19 5.24436e-05)
(0.0257346 -0.0492366 -1.25656e-18 -0.0257838 -8.31497e-19 4.92054e-05)
(0.0196211 -0.0454373 1.02262e-18 -0.0196382 -1.69974e-18 1.71017e-05)
(0.00874539 -0.0374164 -1.5387e-18 -0.00888606 1.1507e-18 0.000140672)
(-0.00937338 -0.0246705 3.0681e-18 0.00906645 -1.14265e-18 0.000306923)
(-0.0366 -0.00575369 1.59066e-18 0.0359733 -2.36229e-18 0.000626648)
(-0.0746012 0.0218539 1.47171e-18 0.073925 1.30139e-18 0.00067624)
(-0.124193 0.0615128 9.59078e-19 0.123587 2.85238e-18 0.000605613)
(-0.18948 0.116048 5.37749e-19 0.188835 2.73244e-18 0.000644277)
(-0.276943 0.194943 -1.06926e-18 0.273838 -3.23195e-18 0.00310495)
(-0.37483 0.325621 7.02282e-19 0.370905 -1.10728e-18 0.00392495)
(-0.399451 0.531857 -1.33159e-18 0.425589 -2.32148e-18 -0.0261381)
(-0.571099 0.554282 -3.65006e-19 0.533753 -1.30229e-18 0.0373462)
(0.00186877 -0.00209297 1.08603e-21 -0.00183202 3.86715e-21 -3.67537e-05)
(0.000691183 -0.00293181 -2.43871e-21 -0.000665354 -5.14927e-21 -2.58295e-05)
(-0.000432127 -0.00225868 9.22808e-21 0.000438321 2.76624e-20 -6.19484e-06)
(0.000555205 0.000176065 8.73944e-21 -0.000517565 2.32301e-20 -3.76393e-05)
(0.0429306 0.0264543 -1.34214e-19 -0.0430166 -2.64301e-19 8.60262e-05)
(0.322797 0.122003 2.36784e-19 -0.327687 -2.66522e-19 0.00489008)
(0.674358 0.097093 -3.27336e-19 -0.668951 -3.94356e-20 -0.00540698)
(0.549401 -0.101291 -5.12927e-20 -0.554049 8.29459e-19 0.00464844)
(0.194744 -0.140608 7.70806e-19 -0.187631 -9.80834e-20 -0.0071136)
(0.0776432 -0.0852112 7.26428e-20 -0.072016 1.98793e-21 -0.00562728)
(0.0417314 -0.0521285 4.42904e-19 -0.0412879 -3.1602e-18 -0.000443522)
(0.0315029 -0.0416337 -3.40242e-19 -0.0320704 5.29018e-19 0.000567557)
(0.0254221 -0.0339058 -4.06573e-19 -0.0256979 3.31663e-19 0.000275842)
(0.0224464 -0.0302544 4.94684e-19 -0.0222826 -3.32701e-18 -0.000163824)
(0.0219699 -0.0274505 4.12169e-19 -0.0218684 2.26439e-19 -0.000101479)
(0.0220859 -0.0258422 2.5256e-19 -0.0218338 2.48835e-19 -0.000252064)
(0.0232385 -0.0251416 -2.44538e-19 -0.0230491 9.10922e-19 -0.000189425)
(0.0249891 -0.0255127 1.13622e-20 -0.0247802 1.90241e-19 -0.000208879)
(0.0273441 -0.0273339 5.27346e-20 -0.0270848 -9.7558e-20 -0.000259282)
(0.0301517 -0.0310828 8.3839e-20 -0.0298932 6.50883e-20 -0.000258519)
(0.0325294 -0.0366729 -5.37594e-20 -0.0323346 3.23267e-19 -0.000194781)
(0.0343341 -0.0429686 -1.27561e-19 -0.0341849 3.13673e-19 -0.000149202)
(0.0361548 -0.0492015 2.51019e-19 -0.0359633 2.24377e-19 -0.000191512)
(0.0382311 -0.0554697 1.00792e-19 -0.0379158 5.48583e-19 -0.000315262)
(0.0405437 -0.0615883 -5.16978e-19 -0.0401168 -9.1133e-20 -0.000426868)
(0.043159 -0.0674241 -3.6505e-19 -0.0427018 2.74309e-18 -0.000457201)
(0.046064 -0.0725716 1.7182e-19 -0.045531 -4.13695e-20 -0.000533009)
(0.0486698 -0.0765109 -8.62694e-19 -0.0481947 -1.10364e-18 -0.000475092)
(0.049328 -0.0777738 -7.11913e-19 -0.048785 -2.34436e-18 -0.000542945)
(0.0467814 -0.0754648 1.21899e-18 -0.0464121 -1.09732e-18 -0.000369287)
(0.038634 -0.0681066 -4.53615e-19 -0.0381614 2.86294e-18 -0.000472555)
(0.023193 -0.054444 6.63708e-19 -0.0229522 -1.76834e-18 -0.000240801)
(-0.00283761 -0.0319254 -3.11464e-18 0.00300904 5.53573e-18 -0.000171437)
(-0.0411879 0.0019485 -3.16048e-18 0.040786 4.16713e-19 0.000401926)
(-0.0942848 0.0503821 -1.69395e-18 0.0938609 1.18844e-18 0.000423874)
(-0.162685 0.116955 -1.93217e-18 0.162117 1.44578e-18 0.000567357)
(-0.251135 0.206029 6.32647e-19 0.250262 -1.25625e-19 0.0008726)
(-0.364792 0.329901 -2.23199e-20 0.360605 1.17646e-19 0.00418689)
(-0.483949 0.523638 7.13929e-19 0.479976 2.25497e-18 0.00397354)
(-0.503252 0.802845 2.2024e-18 0.530436 -1.23263e-18 -0.027184)
(-0.597336 0.821645 -8.60269e-19 0.562932 -1.35495e-18 0.0344037)
(0.00133509 -0.0015819 -8.80181e-22 -0.0013491 -2.38885e-21 1.40147e-05)
(0.000670096 -0.00187001 5.63358e-21 -0.000649824 1.4127e-20 -2.02727e-05)
(-0.000102203 -0.00235736 -2.81417e-21 0.000104803 -1.15966e-20 -2.60022e-06)
(-0.00041554 -0.00126246 -1.40353e-21 0.000414297 -7.91902e-21 1.24321e-06)
(0.000372789 9.35018e-06 1.01078e-21 -0.00035203 5.21362e-21 -2.0759e-05)
(0.0364441 0.0179595 -3.12176e-20 -0.0363608 -3.5101e-20 -8.32712e-05)
(0.286692 0.091652 -4.97087e-20 -0.28992 -2.35003e-20 0.00322845)
(0.716161 0.0912304 -3.60522e-19 -0.713668 8.33307e-19 -0.00249349)
(0.739977 -0.101532 -6.27628e-19 -0.743167 -3.76056e-19 0.00318952)
(0.366179 -0.214101 -1.24275e-19 -0.370297 -1.44183e-18 0.00411833)
(0.141989 -0.144516 6.31895e-19 -0.129926 2.36267e-18 -0.0120626)
(0.0767158 -0.0985286 8.48772e-19 -0.0734175 -1.42112e-18 -0.00329832)
(0.055207 -0.0736706 -1.09687e-18 -0.0557977 7.28922e-19 0.000590661)
(0.0444697 -0.0654193 5.10674e-19 -0.0449133 1.49324e-18 0.000443614)
(0.0407265 -0.0622969 1.47261e-20 -0.0412423 6.94201e-19 0.000515782)
(0.0386162 -0.0614753 -3.22522e-19 -0.0385983 -1.35435e-19 -1.79174e-05)
(0.0388535 -0.0626288 2.4404e-19 -0.0389449 -1.29859e-18 9.13532e-05)
(0.0399723 -0.0650919 -3.67515e-20 -0.0399537 8.41546e-19 -1.86583e-05)
(0.0420898 -0.069183 1.24997e-19 -0.0419863 -1.62361e-19 -0.000103497)
(0.0450592 -0.0751016 6.41271e-20 -0.0448538 2.89118e-19 -0.000205416)
(0.0479379 -0.0825303 -1.10765e-19 -0.0477079 -4.12567e-19 -0.000229962)
(0.0507666 -0.0897007 7.17407e-20 -0.0505382 1.40026e-20 -0.000228422)
(0.0542911 -0.0955895 -3.86005e-20 -0.0539484 1.54669e-19 -0.000342613)
(0.0586185 -0.10042 -4.59835e-19 -0.0581384 -4.67204e-19 -0.000480127)
(0.0633205 -0.104292 8.57125e-19 -0.062725 -1.19407e-18 -0.000595497)
(0.0683186 -0.107629 -2.73328e-19 -0.0676946 -5.32374e-19 -0.000624049)
(0.0738435 -0.110953 -8.36863e-19 -0.0731365 -5.69666e-19 -0.000707047)
(0.0791422 -0.113893 8.77783e-19 -0.0785075 -1.55662e-18 -0.000634686)
(0.0817273 -0.114232 2.05468e-18 -0.0809792 -3.40668e-19 -0.000748074)
(0.0797389 -0.110043 1.08825e-20 -0.0791944 2.25587e-18 -0.000544473)
(0.0700532 -0.0985325 -1.12968e-18 -0.0693698 -1.11954e-18 -0.000683415)
(0.050548 -0.0771419 -1.0416e-18 -0.0501257 1.10335e-18 -0.000422296)
(0.0170774 -0.0419432 1.46193e-18 -0.0167052 -5.88288e-18 -0.000372223)
(-0.0324739 0.010602 3.71867e-18 0.0320866 -3.93299e-18 0.000387342)
(-0.100602 0.0840265 1.89899e-18 0.10018 -3.29718e-18 0.000422838)
(-0.18689 0.18254 -1.43237e-18 0.186287 1.74919e-19 0.000603533)
(-0.295165 0.31107 3.07099e-20 0.294068 2.37478e-18 0.00109713)
(-0.427644 0.482929 -1.19565e-18 0.423204 -1.24546e-18 0.0044407)
(-0.557955 0.732835 -3.12271e-18 0.555528 1.0634e-18 0.00242702)
(-0.585433 1.05231 -9.90437e-19 0.608746 2.10929e-18 -0.0233132)
(-0.645453 1.07796 1.89945e-18 0.61783 -7.58761e-19 0.0276227)
(0.00106833 -0.00112802 -3.93856e-22 -0.00107827 -7.06618e-22 9.93225e-06)
(0.000565467 -0.00135803 1.33725e-21 -0.000561799 6.4966e-22 -3.66744e-06)
(0.000128589 -0.00155271 -3.83092e-21 -0.00011962 -6.20778e-21 -8.9685e-06)
(-0.000403965 -0.00171861 -5.74464e-21 0.000402917 -8.66e-21 1.04845e-06)
(-0.00039303 -0.000856515 -1.18018e-21 0.000391171 -1.8758e-21 1.85882e-06)
(0.00017095 -0.000146189 4.33562e-21 -0.000158262 7.86745e-21 -1.26884e-05)
(0.0205397 0.00775053 -1.82401e-20 -0.0204228 -3.55941e-20 -0.000116864)
(0.213015 0.0569122 1.45329e-19 -0.21432 1.85734e-19 0.00130437)
(0.661745 0.073879 3.74822e-19 -0.663627 4.22562e-19 0.00188155)
(0.889532 -0.0765942 -1.22565e-20 -0.885415 2.17233e-18 -0.00411721)
(0.614871 -0.271494 -1.53566e-18 -0.631668 5.90097e-19 0.0167977)
(0.259318 -0.23841 2.13843e-19 -0.249913 -2.8745e-18 -0.00940491)
(0.128934 -0.164401 4.78787e-19 -0.119254 2.8059e-18 -0.00968054)
(0.0854562 -0.12204 -1.12129e-18 -0.083613 -3.73443e-19 -0.00184317)
(0.0704702 -0.10869 5.07679e-19 -0.0717432 -1.93913e-18 0.00127296)
(0.0618614 -0.104169 -3.03174e-19 -0.0622785 1.10011e-18 0.000417101)
(0.058774 -0.105626 2.54545e-19 -0.059054 1.074e-18 0.000279937)
(0.0581584 -0.109124 2.10442e-19 -0.0579565 5.76639e-19 -0.000201918)
(0.0601768 -0.115299 -1.17322e-19 -0.0599658 5.09807e-19 -0.000211066)
(0.0638912 -0.12322 3.7031e-21 -0.063556 -1.47584e-18 -0.000335198)
(0.0681302 -0.13212 4.64462e-20 -0.0678003 6.42355e-19 -0.000329867)
(0.0729462 -0.13982 -2.12785e-19 -0.072607 -6.81441e-21 -0.000339203)
(0.0794558 -0.145918 3.4277e-19 -0.0789619 -7.27739e-19 -0.000493918)
(0.087743 -0.151162 2.33719e-19 -0.0870918 -8.26448e-20 -0.00065121)
(0.096966 -0.155828 -4.70222e-19 -0.0961966 1.50942e-18 -0.000769362)
(0.106213 -0.159941 -3.29334e-19 -0.105386 -1.30644e-18 -0.000826933)
(0.115159 -0.163525 1.08912e-18 -0.114285 -8.896e-19 -0.000873705)
(0.123456 -0.166885 -3.13182e-20 -0.122648 2.41675e-18 -0.000807696)
(0.128666 -0.167561 2.12209e-19 -0.127833 2.63187e-18 -0.000832189)
(0.128058 -0.162141 -6.77426e-19 -0.127455 -4.02413e-19 -0.000603532)
(0.117957 -0.146462 5.11449e-20 -0.117298 -1.84047e-18 -0.000658281)
(0.0953171 -0.116503 -1.64428e-18 -0.094774 -3.63241e-19 -0.000543053)
(0.05562 -0.0671521 -3.70181e-19 -0.0551033 2.5918e-18 -0.00051665)
(-0.0039788 0.00660231 8.05103e-19 0.00363752 3.98547e-18 0.000341289)
(-0.0849541 0.108259 4.88574e-18 0.0843591 8.74934e-19 0.000595005)
(-0.185516 0.241607 -1.92251e-18 0.184797 -1.05313e-18 0.00071829)
(-0.306835 0.410278 -5.54432e-18 0.305433 -8.92231e-19 0.00140215)
(-0.447518 0.626387 2.73369e-18 0.443629 -4.20925e-19 0.00388928)
(-0.579849 0.916336 -1.2142e-18 0.579569 -2.48624e-18 0.000280041)
(-0.631757 1.2442 -2.11268e-19 0.646313 8.27355e-19 -0.0145557)
(-0.702467 1.31022 9.42782e-19 0.685878 2.11607e-18 0.0165888)
(0.000818938 -0.00080593 -8.7828e-23 -0.00082732 -1.34028e-22 8.38226e-06)
(0.000505555 -0.00102103 -1.15424e-21 -0.000504513 -2.34936e-21 -1.04266e-06)
(0.000187284 -0.00110602 9.77073e-22 -0.000184527 2.91994e-21 -2.75725e-06)
(-0.000141729 -0.00121361 6.09117e-21 0.00014758 1.08923e-20 -5.85121e-06)
(-0.000510005 -0.00129261 1.03623e-21 0.000510254 2.00422e-21 -2.49099e-07)
(-0.000383125 -0.000646527 6.34181e-22 0.000380947 2.03686e-22 2.17811e-06)
(-3.33389e-05 -0.000362521 -1.09344e-20 4.22255e-05 -1.48607e-20 -8.88656e-06)
(0.00793761 0.00188431 8.95231e-22 -0.0078514 3.35868e-21 -8.62099e-05)
(0.128494 0.0275015 -4.61158e-20 -0.128704 -1.77907e-19 0.000209639)
(0.512751 0.048598 3.6666e-19 -0.516217 6.23205e-19 0.00346681)
(0.925678 -0.0468366 -3.24752e-19 -0.919647 -3.07505e-18 -0.00603121)
(0.877871 -0.272877 8.2211e-19 -0.888844 2.84624e-18 0.0109728)
(0.482819 -0.358202 -1.72707e-19 -0.496906 -1.81875e-18 0.0140869)
(0.216162 -0.256129 -8.64418e-19 -0.200021 -2.66587e-19 -0.0161413)
(0.125768 -0.19175 1.55652e-18 -0.11779 -1.42274e-18 -0.00797787)
(0.0969927 -0.158514 4.97783e-19 -0.0963016 1.19798e-18 -0.000691126)
(0.0852674 -0.153186 -6.07226e-19 -0.0866264 7.53129e-19 0.00135901)
(0.079817 -0.154843 -5.70625e-19 -0.0800489 6.43219e-19 0.00023181)
(0.079608 -0.161735 -8.9388e-19 -0.0794727 -2.31011e-20 -0.000135336)
(0.0831516 -0.17068 8.71498e-19 -0.0825793 -9.52987e-19 -0.000572281)
(0.0893379 -0.181484 1.11989e-19 -0.0887815 1.26554e-18 -0.000556405)
(0.0976634 -0.191435 -4.69087e-19 -0.097102 -2.86474e-19 -0.000561319)
(0.108861 -0.200094 2.61705e-19 -0.108138 4.24368e-19 -0.000723093)
(0.122984 -0.208831 1.61941e-19 -0.122059 3.3981e-19 -0.000925097)
(0.139074 -0.218177 8.81409e-20 -0.138 -5.39692e-19 -0.00107374)
(0.155741 -0.228112 -2.99892e-20 -0.154571 7.27925e-19 -0.00117062)
(0.171822 -0.23768 7.38057e-19 -0.17058 1.8924e-18 -0.00124207)
(0.185652 -0.245287 2.46649e-19 -0.18447 -7.63796e-19 -0.00118125)
(0.194376 -0.247805 -1.67785e-18 -0.193248 3.48813e-19 -0.00112809)
(0.196354 -0.242751 -1.82762e-18 -0.195533 -1.60679e-18 -0.000821056)
(0.187388 -0.224511 1.73253e-18 -0.186661 -2.39672e-19 -0.000726742)
(0.163477 -0.187127 1.68097e-18 -0.162844 -1.91831e-18 -0.000633059)
(0.119959 -0.124214 1.17473e-18 -0.119265 5.29732e-19 -0.000694523)
(0.0534105 -0.0291746 -2.66732e-18 -0.0536815 8.92169e-20 0.000270963)
(-0.0362011 0.101678 -2.64922e-18 0.0353696 2.84058e-18 0.00083146)
(-0.145077 0.268748 -1.81477e-20 0.144111 -2.49007e-18 0.000966249)
(-0.27077 0.472464 4.13752e-18 0.269146 -4.158e-19 0.001624)
(-0.407765 0.719679 -1.5658e-18 0.405102 4.06821e-19 0.00266299)
(-0.53499 1.02433 1.34262e-18 0.53625 -4.18357e-19 -0.0012603)
(-0.619768 1.33544 -3.29911e-18 0.623625 -1.48221e-18 -0.0038567)
(-0.726451 1.46905 -9.06103e-19 0.724315 6.55609e-19 0.0021356)
(0.000627486 -0.000590091 -1.90262e-22 -0.000634326 -2.13613e-22 6.84017e-06)
(0.000427149 -0.000745731 -1.22485e-21 -0.000426651 -1.89454e-21 -4.98637e-07)
(0.000215393 -0.000845225 4.79624e-21 -0.000215069 6.98879e-21 -3.23383e-07)
(-1.1055e-05 -0.000861891 -2.90875e-22 1.21535e-05 -1.63862e-21 -1.09853e-06)
(-0.000268252 -0.000956461 1.97584e-21 0.000273006 2.17954e-21 -4.75394e-06)
(-0.000448738 -0.000826056 -1.42919e-21 0.000450578 -1.31297e-21 -1.84064e-06)
(-0.000377735 -0.00051299 2.54274e-21 0.000375941 4.50024e-21 1.79437e-06)
(-0.000190427 -0.0003285 3.52236e-21 0.000192235 3.38211e-21 -1.80852e-06)
(0.000655739 -1.39122e-05 7.75586e-23 -0.000644017 2.41843e-21 -1.17217e-05)
(0.0561111 0.00825676 1.63629e-19 -0.0560312 1.51474e-19 -7.98746e-05)
(0.316132 0.0234902 -1.8126e-19 -0.317565 -2.04825e-20 0.00143353)
(0.787083 -0.03281 -8.93921e-19 -0.788755 -2.60153e-19 0.00167224)
(1.03321 -0.214039 1.25738e-18 -1.02754 -1.54347e-18 -0.00566971)
(0.79131 -0.420471 -2.09031e-18 -0.812319 1.57513e-18 0.0210088)
(0.39941 -0.404576 2.75001e-19 -0.404639 -2.15732e-18 0.00522885)
(0.194773 -0.288085 1.20733e-18 -0.177593 2.18636e-18 -0.0171802)
(0.12773 -0.229555 5.77146e-19 -0.120893 -2.39539e-18 -0.00683674)
(0.109059 -0.207295 8.91719e-20 -0.109199 8.55988e-19 0.000139822)
(0.103031 -0.209901 -1.03859e-18 -0.104558 -1.54246e-18 0.00152719)
(0.104453 -0.219871 4.61305e-19 -0.104617 1.50233e-18 0.000163925)
(0.111873 -0.234059 1.28395e-20 -0.111269 -1.09599e-18 -0.000603758)
(0.124288 -0.248337 -4.74587e-19 -0.123275 5.8284e-19 -0.00101266)
(0.141358 -0.262222 3.79161e-19 -0.140117 -7.43551e-20 -0.00124099)
(0.162553 -0.277379 -2.75918e-19 -0.161124 1.1431e-19 -0.00142981)
(0.186862 -0.294582 -2.13896e-19 -0.185305 1.05727e-18 -0.00155683)
(0.21273 -0.313862 -1.21668e-19 -0.211092 -1.41458e-19 -0.0016385)
(0.238681 -0.334111 -1.81064e-18 -0.236973 2.77449e-19 -0.00170832)
(0.262496 -0.352647 -1.74395e-19 -0.260763 1.36975e-19 -0.00173272)
(0.280568 -0.365052 7.3524e-20 -0.278853 -1.97005e-18 -0.00171514)
(0.289084 -0.365826 2.92893e-18 -0.287622 -3.02476e-19 -0.00146221)
(0.283725 -0.34834 -5.09663e-19 -0.282552 1.46573e-18 -0.00117339)
(0.26109 -0.30627 1.09732e-18 -0.25996 1.30441e-18 -0.00112957)
(0.217483 -0.232846 -1.95149e-18 -0.216138 6.86472e-19 -0.00134475)
(0.149217 -0.120371 3.29279e-18 -0.148705 -2.77519e-18 -0.0005119)
(0.0571129 0.0356827 1.77945e-19 -0.0579079 -1.3391e-19 0.00079497)
(-0.0533218 0.230007 2.52955e-18 0.0520179 3.58797e-19 0.00130382)
(-0.174693 0.457098 -7.067e-18 0.172903 1.19709e-18 0.00178919)
(-0.298864 0.713925 3.13643e-18 0.297572 8.63361e-20 0.00129252)
(-0.415439 0.999911 1.69062e-19 0.416601 5.55412e-19 -0.00116165)
(-0.525251 1.26811 2.56322e-18 0.520491 4.51675e-19 0.00475978)
(-0.659814 1.44793 -2.42208e-18 0.670668 -1.88843e-18 -0.0108537)
(0.000479412 -0.000436733 -7.87625e-22 -0.000484639 -1.07819e-21 5.22718e-06)
(0.000344488 -0.000551152 3.36034e-21 -0.000344125 4.51951e-21 -3.62995e-07)
(0.000207529 -0.000630249 -6.72945e-22 -0.000207173 -1.52102e-21 -3.55595e-07)
(5.39844e-05 -0.000672228 -6.29346e-21 -5.43505e-05 -8.43366e-21 3.66081e-07)
(-0.000107733 -0.000668308 -4.64258e-22 0.000108328 -4.63905e-22 -5.9512e-07)
(-0.000295315 -0.000698307 6.8809e-21 0.000298605 9.33686e-21 -3.28987e-06)
(-0.000400909 -0.000581112 -1.68085e-21 0.000403251 -2.78632e-21 -2.3414e-06)
(-0.000355588 -0.000396602 -1.01374e-20 0.000354684 -1.24862e-20 9.04978e-07)
(-0.000267303 -0.000297373 1.06581e-20 0.00026676 1.23868e-20 5.42581e-07)
(8.35314e-05 -0.000129978 3.67357e-22 -7.99456e-05 -1.21806e-21 -3.58585e-06)
(0.0164982 0.000602853 -1.11122e-20 -0.0163904 -2.4207e-20 -0.000107772)
(0.147602 0.00570455 -1.066e-19 -0.147764 -4.76438e-20 0.000162417)
(0.521185 -0.0224497 -5.2064e-19 -0.523415 -2.66081e-19 0.00222996)
(0.970188 -0.155113 2.75888e-19 -0.967672 -1.27388e-18 -0.00251622)
(1.04985 -0.376657 -4.09684e-19 -1.05087 3.62097e-18 0.00102435)
(0.709009 -0.523798 7.32057e-19 -0.733356 -1.06464e-18 0.0243467)
(0.351936 -0.450717 -1.04079e-18 -0.352396 1.46536e-18 0.000459761)
(0.183665 -0.334214 -1.7187e-19 -0.166888 1.02741e-18 -0.016777)
(0.133616 -0.282077 -2.93266e-19 -0.126841 -5.68833e-19 -0.00677517)
(0.128493 -0.273477 4.33771e-19 -0.128995 -1.63232e-18 0.000502262)
(0.136035 -0.288929 6.42033e-19 -0.137363 4.1753e-19 0.00132811)
(0.151897 -0.310924 -3.79252e-19 -0.151686 -1.29179e-18 -0.000210376)
(0.174611 -0.334071 -1.63029e-19 -0.173145 4.91366e-19 -0.00146564)
(0.202952 -0.359323 1.07946e-18 -0.200742 -8.35164e-19 -0.00221004)
(0.235916 -0.38793 -8.95913e-19 -0.233549 3.06885e-19 -0.00236673)
(0.27148 -0.420264 -3.95955e-19 -0.26922 -6.16845e-19 -0.00225999)
(0.30808 -0.455105 1.97278e-18 -0.30593 -2.23287e-18 -0.00215064)
(0.343444 -0.489424 -9.12329e-19 -0.34127 2.00582e-18 -0.00217404)
(0.373576 -0.517661 1.96111e-19 -0.371383 -1.87156e-19 -0.00219249)
(0.393705 -0.533059 -2.16449e-18 -0.39165 2.1489e-18 -0.00205558)
(0.399244 -0.527317 9.24087e-19 -0.397507 -1.37956e-18 -0.00173679)
(0.386329 -0.491874 -1.29877e-18 -0.38453 1.00506e-18 -0.00179906)
(0.35107 -0.417849 -1.65284e-18 -0.348757 -8.06134e-19 -0.0023131)
(0.289108 -0.296391 7.078e-19 -0.287121 3.07404e-18 -0.00198686)
(0.200575 -0.123967 -2.42046e-18 -0.200607 9.90085e-19 3.21467e-05)
(0.0939793 0.0880976 -3.10682e-19 -0.0950835 -1.7211e-19 0.00110416)
(-0.0182349 0.323455 2.77523e-18 0.0173574 -3.04761e-18 0.000877559)
(-0.127295 0.566233 -2.4102e-18 0.127698 1.15826e-18 -0.000403013)
(-0.231957 0.805251 -6.36849e-19 0.232366 -1.32199e-18 -0.000408823)
(-0.346802 1.00488 -4.99306e-18 0.338977 -1.28287e-18 0.00782516)
(-0.481887 1.17187 2.15379e-18 0.49809 2.95287e-19 -0.0162036)
(0.00036471 -0.00032685 -7.47114e-22 -0.000368535 -8.8293e-22 3.8252e-06)
(0.000271785 -0.000410449 -3.017e-21 -0.000271641 -3.59354e-21 -1.43511e-07)
(0.000179074 -0.000469076 -2.90318e-22 -0.000178968 -4.05873e-22 -1.06591e-07)
(7.79517e-05 -0.000511041 -5.13299e-22 -7.81595e-05 -3.25942e-22 2.07817e-07)
(-3.29945e-05 -0.000523446 4.52574e-21 3.26234e-05 5.74263e-21 3.7111e-07)
(-0.000147884 -0.000512203 2.61487e-21 0.000148073 2.09899e-21 -1.889e-07)