/*--------------------------------*- C++ -*----------------------------------*\
| =========                 |                                                 |
| \\      /  F ield         | OpenFOAM: The Open Source CFD Toolbox           |
|  \\    /   O peration     | Version:  2312                                  |
|   \\  /    A nd           | Website:  www.openfoam.com                      |
|    \\/     M anipulation  |                                                 |
\*---------------------------------------------------------------------------*/
FoamFile
{
    version     2.0;
    format      ascii;
    arch        "LSB;label=32;scalar=64";
    class       volScalarField;
    location    "250";
    object      turbulenceProperties:L;
}
// * * * * * * * * * * * * * * * * * * * * * * * * * * * * * * * * * * * * * //

dimensions      [0 1 0 0 0 0 0];

internalField   nonuniform List<scalar> 
11040
(
0.000425341
0.000526939
0.00104455
0.0014055
0.00125412
0.00123071
0.00122078
0.00121599
0.00121343
0.00121708
0.00121797
0.00122032
0.00122462
0.00123291
0.00124204
0.00125091
0.00125878
0.0012647
0.00126641
0.00126195
0.00125177
0.00123958
0.00122922
0.00122182
0.00121881
0.00121732
0.00121652
0.00121539
0.00121459
0.00121867
0.00123222
0.00125202
0.00127539
0.00130364
0.00133756
0.00138169
0.0014388
0.00149587
0.00150202
0.00196268
0.0030718
0.0010169
0.000827693
0.000672863
0.00198735
0.00390231
0.00827797
0.0140868
0.0135119
0.00988129
0.00820042
0.00719168
0.00649582
0.00597863
0.00563824
0.00537485
0.00516948
0.00499144
0.00485336
0.00470123
0.00454705
0.00437139
0.00420188
0.00408662
0.00406337
0.0041303
0.00425975
0.00444259
0.00468786
0.00501085
0.00551518
0.00648083
0.00811492
0.01032
0.0127362
0.013555
0.0130512
0.0119544
0.0109262
0.0103046
0.0111014
0.0101487
0.00140281
0.00229768
0.000865836
0.00128888
0.00273847
0.00501241
0.00891224
0.0128407
0.0171097
0.0283647
0.04929
0.022627
0.0166788
0.0140227
0.0123114
0.0111464
0.0103107
0.00976117
0.00935131
0.00904113
0.00881496
0.00870389
0.00877915
0.00915482
0.0100393
0.0115516
0.0135743
0.0157445
0.0174773
0.0192353
0.0222901
0.0284662
0.0341976
0.0272632
0.0216781
0.0185406
0.0165502
0.0151101
0.014141
0.0143204
0.0162713
0.00170859
0.00162778
0.00409639
0.00110167
0.00186443
0.0034459
0.00586819
0.0102521
0.0136314
0.0171714
0.0199725
0.0228675
0.0270528
0.030433
0.0307721
0.0284046
0.0251835
0.0226079
0.0206974
0.0194061
0.0185709
0.0180165
0.0174626
0.0169438
0.0166024
0.0166003
0.0170699
0.0180681
0.0197786
0.0224311
0.0266008
0.0336363
0.0450142
0.0420344
0.0318416
0.026215
0.0228803
0.0206452
0.0191644
0.0191415
0.0231197
0.00193939
0.00186565
0.00215947
0.00505638
0.00144439
0.00238772
0.00405866
0.00665749
0.0109664
0.0153458
0.0186666
0.0205404
0.0221927
0.0234183
0.0242802
0.0247945
0.0247948
0.0243628
0.0234854
0.0223692
0.021258
0.020403
0.0197745
0.0194005
0.0193906
0.019877
0.0209646
0.0226437
0.0250909
0.0285533
0.033877
0.0431807
0.0646087
0.0625909
0.0423796
0.0338011
0.0291436
0.0262182
0.0243558
0.024258
0.0295632
0.00225046
0.0023067
0.00210127
0.00334397
0.0100413
0.00176735
0.00284958
0.00457127
0.00728907
0.0111228
0.016799
0.0208115
0.0231008
0.0243908
0.0250743
0.0255965
0.025692
0.0255696
0.0251332
0.0245979
0.0240735
0.0237726
0.0236418
0.0236482
0.0238793
0.024534
0.0258378
0.0278327
0.0306815
0.0346549
0.0407095
0.0513418
0.0802215
0.100706
0.055559
0.0425527
0.0360867
0.0322656
0.0299755
0.0298561
0.0356071
0.00259916
0.00267636
0.00259413
0.00243548
0.00575678
0.0835995
0.00199018
0.00323299
0.00497583
0.00769171
0.011251
0.0169077
0.0223674
0.0263918
0.0280097
0.0289596
0.029195
0.0293197
0.0291668
0.0289354
0.0286633
0.0285867
0.0286924
0.0289272
0.0293329
0.0300623
0.0313194
0.0333203
0.0362773
0.0404436
0.0466341
0.0570026
0.0814012
0.296534
0.074962
0.0538038
0.0444172
0.0391849
0.0362324
0.0359982
0.0414148
0.00302234
0.00303881
0.00306483
0.00292534
0.00274104
0.0269771
0.00557332
0.00228406
0.00352876
0.00529373
0.00785032
0.0114361
0.0160787
0.0230643
0.0283893
0.0318029
0.0329769
0.0335287
0.033517
0.0334127
0.033298
0.0334201
0.0337427
0.034229
0.0348993
0.0358836
0.0373233
0.0393385
0.0421453
0.0461567
0.0519871
0.0611035
0.0789129
0.141842
0.113092
0.0707412
0.0556491
0.0478079
0.043584
0.0428383
0.0471933
0.00349012
0.00349984
0.00347231
0.00350005
0.00323384
0.00341434
0.0133055
0.00810589
0.00403808
0.00363673
0.00549092
0.00787879
0.0113392
0.0157174
0.0216891
0.0292559
0.034362
0.0369698
0.0376464
0.0377974
0.0377913
0.0380395
0.0385229
0.0392169
0.0401433
0.04142
0.0431533
0.0454329
0.0484031
0.0522876
0.0575122
0.0650827
0.0778132
0.105969
0.186564
0.103411
0.0737182
0.0602653
0.0533144
0.0510138
0.0532399
0.00402237
0.00402429
0.0039824
0.00395116
0.00394326
0.00370168
0.00395795
0.00948206
0.0202234
0.0264671
0.00369385
0.00554613
0.00788936
0.0110142
0.0153187
0.0205155
0.0275415
0.0352911
0.0399928
0.041707
0.0420029
0.0422758
0.0428228
0.0436751
0.0448219
0.046357
0.0483606
0.0508841
0.0540201
0.0579036
0.0628203
0.0693668
0.0788769
0.0949408
0.129741
0.177849
0.112133
0.0829228
0.0694223
0.0631339
0.0614542
0.00462908
0.00462408
0.00457862
0.00451133
0.00448211
0.00443776
0.00429223
0.00434393
0.00808289
0.0386788
0.00593337
0.00401768
0.00531263
0.00776378
0.0106814
0.0145674
0.0196462
0.0256078
0.0332373
0.0408065
0.0449698
0.0461495
0.0466028
0.047405
0.0486566
0.0503988
0.0526029
0.0552462
0.0583866
0.0620638
0.066437
0.0717618
0.0786308
0.0883
0.103954
0.133484
0.183375
0.14474
0.107944
0.089936
0.0792454
0.00532332
0.00531393
0.00525976
0.00518381
0.00510724
0.00505896
0.00502644
0.00489868
0.00483337
0.00668472
0.0434211
0.0451533
0.00619897
0.00501555
0.0074091
0.0103033
0.0137973
0.0183922
0.0241762
0.0307509
0.0384514
0.045354
0.0492664
0.0509351
0.0520213
0.053615
0.0557782
0.0584171
0.0614718
0.0649098
0.0687195
0.0729852
0.0778993
0.083885
0.0917555
0.102902
0.119366
0.145353
0.19199
0.276085
0.185945
0.00612194
0.00610686
0.00604729
0.00595834
0.00586251
0.00577223
0.00570689
0.00567321
0.00556586
0.00544565
0.0061433
0.0427121
0.173319
0.00754011
0.00746769
0.00695901
0.00968346
0.013059
0.0171097
0.0223529
0.0288144
0.0355573
0.0421885
0.0483653
0.0531968
0.0566132
0.0591412
0.0615154
0.0641904
0.067233
0.0705295
0.0740131
0.0776851
0.0816316
0.0859158
0.0906469
0.0955722
0.10002
0.102515
0.1023
0.0998969
0.00704445
0.00702232
0.00695684
0.00685545
0.00673976
0.00662381
0.00651448
0.00643109
0.00637774
0.00629863
0.00609868
0.00635458
0.0128162
0.0704412
0.0850046
0.00534385
0.00679908
0.00893866
0.0120485
0.0159261
0.0205361
0.0261675
0.0325499
0.038764
0.0444818
0.0502266
0.0559068
0.0610749
0.0655867
0.0695312
0.0730807
0.0763346
0.0793867
0.0823228
0.0850864
0.0875331
0.0894451
0.0902325
0.0889911
0.0846602
0.0783006
0.00811565
0.00808438
0.008011
0.00789644
0.00775979
0.0076161
0.0074752
0.00734284
0.00723204
0.00715608
0.00708107
0.00686378
0.00699334
0.00799383
0.0677017
0.173616
0.0335763
0.00577193
0.0078196
0.010938
0.0145336
0.0187592
0.0233308
0.0286013
0.034484
0.0404092
0.0458514
0.0508915
0.0558505
0.0608019
0.0655973
0.070081
0.0741499
0.0777905
0.0809354
0.0834227
0.0852863
0.0866185
0.0858234
0.0814847
0.0752375
0.00936531
0.00932295
0.00923936
0.00910983
0.00895119
0.00877851
0.00860208
0.00843047
0.00826962
0.0081262
0.00802121
0.00790653
0.00777672
0.00759511
0.00803711
0.0106236
0.0648613
0.472982
0.0283505
0.00581523
0.00721233
0.0128982
0.0166102
0.0208304
0.0252405
0.0299999
0.0351094
0.0403822
0.0455255
0.0503243
0.0547215
0.0587657
0.0625047
0.0659804
0.0691778
0.0720082
0.0742624
0.0755607
0.0750565
0.0722705
0.0671361
0.0108164
0.0107614
0.0106645
0.0105171
0.0103346
0.0101316
0.00991961
0.00970733
0.0095011
0.00930608
0.00912863
0.00897634
0.0088428
0.00869482
0.00849133
0.00838395
0.00912804
0.015238
0.0830722
0.548206
0.0519383
0.00582035
0.00838181
0.00790106
0.0167134
0.0227925
0.027357
0.0317453
0.0361502
0.0405597
0.0449108
0.0491218
0.0531069
0.0568214
0.0601956
0.0630928
0.0651707
0.0658652
0.0645769
0.0608868
0.0557362
0.0124368
0.0123669
0.0122515
0.0120813
0.0118705
0.0116341
0.0113839
0.0111299
0.010879
0.0106354
0.0104047
0.0101905
0.00999384
0.00982432
0.00964828
0.00943814
0.00914509
0.00915423
0.0100107
0.017779
0.0942959
0.483324
0
0.0423668
0.00575787
0.00706191
0.0150807
0.00965762
0.0172527
0.029898
0.0485507
0.08311
0.245468
0.10035
0.0737695
0.0604457
0.0511224
0.0438064
0.0376144
0.0323352
0.028259
0.0141731
0.0140858
0.0139489
0.0137528
0.0135112
0.0132386
0.0129476
0.0126487
0.0123495
0.0120565
0.011775
0.0115084
0.0112565
0.0110226
0.0108071
0.0106073
0.0103761
0.0100954
0.00981543
0.00982308
0.0109665
0.0155809
0.0905047
0.437291
0.793416
25.9654
0.593191
0.0216742
0.0069956
0.00540827
0.00636432
0.00746224
0.00844708
0.0130927
0.00633437
0.00587364
0.00548518
0.00578928
0.00527555
0.00498757
0.00499892
0.0160077
0.0159031
0.0157442
0.0155222
0.0152499
0.0149415
0.0146105
0.0142678
0.013922
0.0135807
0.0132476
0.0129286
0.0126256
0.0123384
0.0120674
0.0118145
0.0115765
0.0113358
0.0110623
0.0107383
0.0104521
0.0103185
0.0111337
0.0134954
0.022275
0.825171
0.390169
0.592966
0.839162
1.42775
3.4919
27.437
0
0.759085
0.050001
0.0637163
0.0807529
0.061784
0.0868359
0.1118
0.109731
0.0179595
0.0178384
0.0176564
0.017408
0.0171042
0.0167593
0.0163877
0.0160016
0.015611
0.0152215
0.0148404
0.0144719
0.0141196
0.0137841
0.0134659
0.013164
0.0128789
0.0126093
0.0123488
0.0120831
0.0117728
0.0114179
0.0110409
0.0108681
0.0109475
0.0115307
0.0129042
0.0153933
0.0204086
0.0328676
0.0771238
0.783793
0.454059
0.6091
0.662675
0.713961
0.763719
0.799087
0.838052
0.869408
0.90264
0.0200404
0.0199031
0.0196968
0.0194206
0.0190845
0.0187022
0.0182893
0.0178596
0.0174235
0.0169879
0.016561
0.0161448
0.0157454
0.0153651
0.0150038
0.0146613
0.0143367
0.0140293
0.0137373
0.0134611
0.0131882
0.0129063
0.0125922
0.0122712
0.011966
0.0116898
0.0115132
0.011433
0.0114642
0.0116149
0.0118866
0.012274
0.0127619
0.0133445
0.0139148
0.014403
0.0148097
0.0151178
0.0153019
0.0154217
0.0154492
0.0222656
0.0221117
0.0218796
0.0215746
0.0212054
0.0207846
0.0203297
0.0198557
0.0193743
0.0188946
0.0184213
0.0179594
0.0175145
0.0170912
0.0166897
0.0163103
0.0159517
0.0156142
0.0152954
0.0149959
0.014708
0.0144323
0.0141741
0.0139279
0.0136871
0.0134488
0.0132162
0.0129982
0.0128045
0.0126413
0.0125114
0.0124146
0.0123495
0.0123147
0.0123164
0.0123425
0.0123884
0.0124554
0.0125333
0.0126461
0.0127075
0.0246482
0.0244779
0.0242189
0.0238832
0.023479
0.0230185
0.0225202
0.0220013
0.0214743
0.0209496
0.0204314
0.019927
0.0194384
0.0189735
0.0185342
0.0181204
0.0177314
0.0173674
0.0170272
0.0167111
0.0164102
0.0161239
0.0158643
0.0156333
0.0154273
0.0152428
0.0150772
0.0149288
0.0147967
0.014682
0.014586
0.014511
0.0144579
0.0144281
0.0144217
0.0144395
0.0144816
0.014551
0.0146372
0.0147755
0.0148314
0.0272045
0.027016
0.0267273
0.0263589
0.0259178
0.0254155
0.0248725
0.0243074
0.0237342
0.0231635
0.0226032
0.0220564
0.021525
0.0210194
0.0205438
0.020098
0.0196815
0.019294
0.0189357
0.0186069
0.0182987
0.0180075
0.0177458
0.0175171
0.0173189
0.0171491
0.017006
0.0168894
0.0167972
0.0167296
0.0166852
0.016664
0.0166653
0.0166901
0.0167365
0.0168047
0.0168944
0.0170099
0.0171363
0.0173278
0.0173731
0.0299487
0.0297419
0.0294201
0.0290155
0.028535
0.0279887
0.0273988
0.0267859
0.0261653
0.0255482
0.0249447
0.0243546
0.0237834
0.0232388
0.0227278
0.0222513
0.0218093
0.021401
0.0210269
0.0206883
0.0203752
0.0200821
0.0198219
0.0195985
0.0194089
0.0192505
0.0191217
0.0190217
0.0189494
0.0189039
0.0188843
0.0188894
0.0189197
0.0189745
0.019052
0.0191504
0.0192709
0.0194182
0.0195703
0.0198068
0.0198068
0.032901
0.0326698
0.0323116
0.0318686
0.031345
0.0307514
0.0301118
0.0294489
0.0287792
0.0281148
0.0274664
0.0268347
0.0262257
0.0256423
0.0250956
0.024589
0.024122
0.0236942
0.0233055
0.0229585
0.0226413
0.0223467
0.0220881
0.0218694
0.0216881
0.0215404
0.0214246
0.0213389
0.0212828
0.0212542
0.0212522
0.0212751
0.0213237
0.0213965
0.0214914
0.0216059
0.0217416
0.0219043
0.0220621
0.0223305
0.0222388
0.0360755
0.035819
0.0354196
0.0349322
0.034361
0.0337161
0.0330233
0.0323077
0.0315865
0.030873
0.0301778
0.0295061
0.0288584
0.0282364
0.0276542
0.0271174
0.0266258
0.026179
0.0257766
0.0254217
0.0251008
0.0248038
0.0245454
0.0243295
0.0241538
0.0240133
0.0239068
0.0238316
0.0237868
0.0237695
0.0237792
0.0238134
0.0238722
0.0239538
0.0240553
0.0241738
0.0243108
0.0244746
0.0246195
0.0249104
0.0246788
0.0394948
0.0392042
0.0387591
0.0382222
0.0375975
0.0368964
0.0361466
0.0353746
0.0345993
0.0338343
0.0330909
0.032377
0.0316885
0.0310296
0.0304124
0.0298447
0.0293282
0.0288621
0.0284457
0.0280824
0.027757
0.027456
0.0271954
0.0269797
0.0268057
0.0266687
0.0265657
0.0264947
0.0264532
0.0264394
0.0264509
0.0264855
0.0265423
0.0266199
0.0267141
0.0268218
0.0269448
0.0270942
0.0272082
0.0275114
0.0270954
0.0431775
0.0428493
0.0423487
0.0417548
0.0410714
0.0403077
0.0394951
0.038662
0.0378287
0.0370093
0.0362154
0.0354559
0.0347265
0.0340316
0.0333781
0.0327779
0.0322347
0.0317477
0.0313155
0.0309422
0.0306095
0.0303014
0.0300348
0.0298148
0.0296368
0.0294963
0.0293896
0.0293146
0.0292675
0.0292468
0.0292493
0.0292724
0.0293152
0.0293765
0.0294509
0.0295351
0.0296316
0.0297541
0.029824
0.0301345
0.0294986
0.0471508
0.0467729
0.0462104
0.0455505
0.0447978
0.0439637
0.0430813
0.0421816
0.0412854
0.0404076
0.0395597
0.0387509
0.03798
0.0372479
0.0365561
0.0359215
0.035349
0.0348389
0.0343885
0.0340027
0.0336589
0.0333392
0.0330611
0.0328307
0.0326425
0.0324912
0.0323722
0.0322834
0.0322213
0.0321831
0.0321658
0.0321665
0.0321847
0.0322185
0.0322624
0.0323121
0.0323719
0.0324579
0.0324738
0.0327889
0.0319065
0.051442
0.051004
0.0503634
0.0496266
0.0487951
0.0478804
0.0469205
0.0459476
0.0449827
0.0440415
0.0431354
0.0422733
0.0414582
0.0406855
0.0399533
0.0392817
0.038677
0.0381402
0.0376678
0.0372647
0.0369051
0.0365675
0.0362718
0.0360233
0.035817
0.0356465
0.0355069
0.0353949
0.035308
0.0352427
0.0351959
0.0351638
0.0351473
0.0351435
0.0351472
0.0351532
0.035168
0.03521
0.0351652
0.0354839
0.0343393
0.0560772
0.0555624
0.0548348
0.0540057
0.0530829
0.0520792
0.0510318
0.0499759
0.0489346
0.0479233
0.0469538
0.0460341
0.0451697
0.0443508
0.0435778
0.042866
0.0422253
0.0416574
0.0411585
0.0407329
0.0403521
0.03999
0.0396697
0.039396
0.0391634
0.0389642
0.0387948
0.0386507
0.0385292
0.0384265
0.0383403
0.0382664
0.0382064
0.0381573
0.0381143
0.0380722
0.0380387
0.0380349
0.0379292
0.038255
0.0368432
0.061093
0.0604837
0.0596468
0.0587136
0.057687
0.0565791
0.0554312
0.0542811
0.0531533
0.0520633
0.0510235
0.0500404
0.0491205
0.048252
0.0474353
0.0466787
0.0459971
0.0453923
0.0448619
0.0444073
0.0439985
0.0436054
0.0432536
0.0429473
0.0426817
0.0424471
0.0422398
0.0420563
0.0418934
0.0417469
0.0416151
0.0414944
0.0413864
0.0412886
0.0411961
0.0411046
0.0410218
0.0409725
0.0408077
0.0411434
0.0394659
0.0665209
0.0657949
0.0648354
0.0637763
0.0626266
0.0613978
0.0601346
0.0588774
0.0576521
0.0564739
0.0553547
0.0543011
0.0533185
0.0523974
0.0515321
0.0507262
0.0499978
0.0493505
0.0487814
0.0482917
0.0478464
0.047415
0.0470229
0.0466757
0.0463673
0.0460892
0.045836
0.0456051
0.045393
0.0451968
0.0450137
0.0448411
0.0446806
0.0445311
0.0443871
0.0442451
0.044113
0.0440195
0.0438006
0.0441467
0.0422208
0.0724044
0.0715348
0.0704261
0.069221
0.0679252
0.0665573
0.0651615
0.0637829
0.0624473
0.0611697
0.0599616
0.0588284
0.0577745
0.0567939
0.055876
0.055016
0.0542368
0.0535428
0.0529302
0.0524011
0.0519172
0.051445
0.0510103
0.0506198
0.0502658
0.0499403
0.0496384
0.0493564
0.0490918
0.0488419
0.0486053
0.0483796
0.0481673
0.0479673
0.0477749
0.0475871
0.0474124
0.047281
0.047018
0.0473821
0.0452294
0.0787781
0.0777384
0.0764579
0.0750776
0.0736137
0.0720839
0.0705373
0.0690195
0.067558
0.0661685
0.06486
0.063638
0.0625039
0.0614555
0.0604757
0.0595561
0.0587186
0.0579706
0.0573073
0.0567296
0.0561966
0.0556749
0.055188
0.0547448
0.0543379
0.0539575
0.0535986
0.05326
0.0529391
0.0526346
0.0523442
0.0520676
0.0518064
0.0515608
0.0513256
0.0510999
0.0508906
0.0507308
0.050438
0.0508205
0.0484988
0.0856952
0.0844487
0.0829652
0.0813852
0.0797261
0.0780116
0.0762928
0.0746145
0.0730086
0.0714913
0.0700707
0.0687496
0.0675269
0.0664028
0.0653529
0.0643706
0.0634731
0.0626687
0.0619514
0.0613221
0.0607377
0.0601646
0.0596259
0.0591307
0.0586711
0.0582386
0.057828
0.0574386
0.0570676
0.0567148
0.0563782
0.0560578
0.0557553
0.0554721
0.0552038
0.0549495
0.0547167
0.0545385
0.0542318
0.0546338
0.0522004
0.093199
0.0917148
0.0899978
0.0881777
0.0862954
0.0843748
0.0824624
0.0806069
0.0788394
0.0771763
0.0756268
0.0741921
0.0728702
0.0716574
0.0705272
0.0694691
0.0684974
0.0676227
0.0668407
0.0661486
0.0655047
0.0648738
0.0642774
0.0637255
0.0632114
0.0627252
0.0622624
0.0618218
0.0614026
0.0610037
0.0606245
0.0602644
0.0599278
0.0596145
0.0593221
0.0590485
0.0588034
0.058616
0.0583119
0.058726
0.0563007
0.101362
0.099601
0.0976086
0.0955155
0.0933671
0.0912043
0.0890814
0.0870359
0.0850997
0.0832831
0.0815907
0.0800252
0.0785875
0.0772771
0.0760694
0.0749447
0.0739059
0.0729643
0.0721178
0.0713629
0.070661
0.0699795
0.0693338
0.0687348
0.0681767
0.0676505
0.0671511
0.0666775
0.0662292
0.065806
0.0654073
0.0650332
0.0646884
0.0643737
0.0640874
0.0638284
0.0636057
0.0634468
0.06319
0.0636493
0.0613737
0.110221
0.108159
0.10587
0.103469
0.101035
0.098602
0.0962255
0.0939546
0.0918243
0.0898467
0.0880154
0.0863188
0.0847483
0.083303
0.0819712
0.080745
0.0796275
0.0786238
0.0777235
0.0769155
0.0761621
0.0754311
0.0747339
0.0740823
0.0734727
0.0728964
0.0723512
0.0718362
0.0713523
0.0708981
0.0704763
0.0700863
0.0697338
0.0694185
0.0691421
0.0689031
0.0687118
0.0685878
0.0684015
0.0688726
0.0669814
0.119813
0.117407
0.114791
0.112103
0.109405
0.106733
0.104106
0.101572
0.0991715
0.0969491
0.094923
0.093093
0.0914326
0.0899085
0.0884757
0.0871102
0.0858284
0.0846667
0.0836352
0.082726
0.0819065
0.0811442
0.080436
0.0797889
0.0791969
0.0786473
0.0781373
0.0776645
0.0772308
0.0768343
0.0764789
0.0761652
0.0758993
0.0756819
0.0755172
0.0754065
0.0753575
0.0753873
0.075401
0.0759975
0.0749766
0.130211
0.127454
0.124473
0.121449
0.118503
0.115641
0.112861
0.110164
0.107554
0.105052
0.102686
0.10051
0.0985703
0.0969024
0.095487
0.0942536
0.0931151
0.0920424
0.0910287
0.0900809
0.0891912
0.0883402
0.0875342
0.0867898
0.0861069
0.0854792
0.0849037
0.0843804
0.0839108
0.083497
0.0831406
0.0828445
0.0826124
0.0824489
0.0823568
0.0823407
0.082407
0.0825609
0.0827805
0.0833989
0.0835323
0.141593
0.138587
0.135305
0.131929
0.12859
0.125343
0.122251
0.119375
0.116728
0.114274
0.111938
0.109631
0.107295
0.104934
0.102606
0.10046
0.0986478
0.0971762
0.0959861
0.0950047
0.0941839
0.0934945
0.092894
0.0923853
0.0919567
0.091597
0.0913001
0.0910657
0.0908946
0.0907912
0.0907594
0.090806
0.0909378
0.0911642
0.0914922
0.0919349
0.0924935
0.0931844
0.0940293
0.0951052
0.0984045
0.153796
0.150744
0.14758
0.14432
0.14093
0.1373
0.133488
0.129666
0.126079
0.122952
0.120444
0.118616
0.117413
0.116679
0.116176
0.115455
0.1142
0.112646
0.11102
0.109461
0.108021
0.106698
0.105509
0.104472
0.103591
0.10286
0.102272
0.101827
0.101524
0.101364
0.101349
0.101488
0.101785
0.102251
0.1029
0.103746
0.104809
0.106032
0.107723
0.109009
0.115638
0.166243
0.16276
0.159708
0.157139
0.154871
0.152552
0.149872
0.146596
0.142561
0.137761
0.132382
0.12677
0.121312
0.116347
0.112046
0.10888
0.107022
0.105841
0.10506
0.104536
0.104237
0.104125
0.104138
0.104266
0.104505
0.104849
0.105303
0.105868
0.106557
0.107378
0.108348
0.109481
0.110793
0.112296
0.113995
0.115899
0.117943
0.120176
0.122177
0.125161
0.127932
0.17844
0.173955
0.169897
0.166622
0.164366
0.163089
0.162627
0.162709
0.16292
0.162817
0.162052
0.16051
0.158384
0.156083
0.154209
0.151633
0.147949
0.143993
0.140108
0.136545
0.13336
0.130564
0.128152
0.126109
0.124444
0.123149
0.122221
0.121659
0.121479
0.121698
0.122354
0.123491
0.125176
0.127499
0.130607
0.134664
0.140058
0.146647
0.15745
0.16342
0.215673
0.18929
0.188783
0.186166
0.177258
0.163134
0.148293
0.135587
0.125636
0.118148
0.112652
0.108725
0.106031
0.1043
0.103335
0.102886
0.103386
0.104492
0.105624
0.106627
0.107487
0.108258
0.108685
0.108994
0.109203
0.109359
0.10951
0.109686
0.109918
0.110225
0.110624
0.111113
0.111683
0.11229
0.112873
0.113295
0.113414
0.112929
0.112004
0.108914
0.110043
0.0929437
0.00667707
0.0112201
0.0153286
0.0189445
0.0275951
0.0127189
0.00371582
0.0585441
0.00583532
0.0227871
0.00897317
0.0318815
0.0535115
0.119277
0.10516
0.0803671
0.0722825
0.0677997
0.0641358
0.0605133
0.0566756
0.0526519
0.0485565
0.0445176
0.0406649
0.037097
0.033896
0.031122
0.0285221
0.0249417
0.0337443
1.87174
0.0470766
0.0150967
0.0149962
0.0162448
0.0165609
0.0159003
0.0152246
0.0148752
0.0147971
0.0148721
0.0150563
0.0153777
0.0158582
0.0165465
0.0175164
0.0187861
0.0204341
0.022599
0.0253932
0.029026
0.0337569
0.0397882
0.0468374
0.054055
0.0554306
0.0539293
0.0514344
0.0494785
0.0484069
0.0477015
0.0476932
0.0480401
0.0485271
0.0495893
0.0504362
0.0518252
0.0531836
0.0548689
0.0564413
0.0585037
0.0605569
0.0625106
0.0104207
0.0137287
0.0171273
0.0198147
0.0233888
0.0481229
0.00557493
0.0503349
0.203076
0.00521019
0.0162027
0.0406568
0.0726882
0.134143
0.112344
0.0992793
0.0938758
0.0900546
0.085722
0.0805385
0.0745603
0.0681718
0.0617568
0.0556014
0.0499059
0.0447689
0.0402436
0.0363467
0.0330152
0.029876
0.0251856
0.0357215
0.434065
0.0710056
0.0150688
0.0148157
0.0162187
0.0165864
0.015987
0.0154539
0.0152652
0.0153261
0.0155378
0.0159197
0.0164657
0.0172204
0.0182934
0.0196789
0.0214251
0.023729
0.0266861
0.0304406
0.0352821
0.0411919
0.047848
0.0539921
0.0550518
0.0539785
0.0519617
0.0503081
0.049456
0.0488427
0.0489015
0.0493606
0.0498493
0.0509849
0.0518512
0.0532564
0.0546648
0.0564235
0.0579902
0.0601454
0.0622395
0.0642905
0.0155694
0.0175165
0.0198042
0.0216188
0.0235699
0.0305719
0.0153923
0.00430985
1.75535
0.00455264
0.0209512
0.0510772
0.098148
0.125368
0.115375
0.116579
0.122286
0.128445
0.130793
0.126449
0.11564
0.101981
0.0885447
0.0766105
0.0664481
0.0579202
0.0508178
0.0449306
0.0400638
0.0360199
0.0323649
0.0272792
0.0364709
0.672907
0.405536
0.0162761
0.0148229
0.0163169
0.0169091
0.0164163
0.0160094
0.0159719
0.0161954
0.0166321
0.0172597
0.0180869
0.0192562
0.0207576
0.0225931
0.0249937
0.0280293
0.0317451
0.0363801
0.0416742
0.0472913
0.0518658
0.0531878
0.0530421
0.051892
0.0509179
0.0503365
0.0501315
0.0502636
0.0508196
0.0514395
0.0525506
0.0536229
0.0549844
0.056456
0.0582525
0.0599111
0.0621097
0.0642606
0.0664112
0.0217076
0.0222427
0.0233692
0.0243057
0.0251562
0.0275951
0.0390324
0.00747542
0.00977772
0.00502446
0.0242446
0.0596832
0.11479
0.115705
0.10856
0.111555
0.119147
0.129693
0.143177
0.161253
0.183783
0.189651
0.156718
0.12223
0.0978925
0.0806803
0.0680018
0.0583367
0.0507849
0.0447912
0.039984
0.035823
0.0303069
0.0372177
0.0262025
0.112415
0.0206959
0.0150501
0.0161676
0.0172652
0.0171105
0.0168524
0.0169741
0.0174325
0.0181362
0.0190431
0.0202997
0.0218936
0.0238005
0.0262632
0.029288
0.0328638
0.0371473
0.0417774
0.0465212
0.0501093
0.0517929
0.0523589
0.0519886
0.0516225
0.0513679
0.051522
0.051771
0.0524162
0.0531706
0.0542836
0.0555177
0.0568643
0.0583844
0.0602163
0.0619528
0.0642156
0.0663971
0.0686448
0.0284468
0.0276935
0.0277168
0.0278194
0.0276855
0.0283032
0.0329901
0.0197151
0.00573564
0.00542038
0.0261107
0.0658738
0.119265
0.110932
0.104129
0.105338
0.10969
0.115324
0.12176
0.129578
0.140483
0.158581
0.195753
0.285755
0.203417
0.134316
0.101494
0.0817006
0.0681937
0.0583437
0.0509093
0.0451768
0.0404479
0.0344397
0.0153763
0.0212149
0.177203
0.132639
0.0173808
0.0163317
0.0175952
0.0180053
0.0180192
0.0183724
0.0190902
0.0200665
0.0214017
0.0230604
0.0250078
0.0274865
0.0304311
0.0338013
0.0376974
0.0417676
0.0459073
0.048956
0.0510076
0.0520833
0.0524039
0.0525096
0.0526486
0.0530353
0.0534409
0.0541925
0.0550365
0.0562082
0.0575137
0.0588778
0.0604316
0.0623079
0.0640768
0.0664355
0.0686174
0.0709557
0.0353862
0.0336101
0.0326518
0.03206
0.0310553
0.0303705
0.0314793
0.0355243
0.0112891
0.0061563
0.0263486
0.0691074
0.116172
0.108676
0.102678
0.102836
0.105459
0.108829
0.112326
0.115995
0.12036
0.126424
0.135951
0.152942
0.190522
0.354929
0.223584
0.136245
0.101614
0.0816549
0.0683855
0.0589489
0.0519502
0.046321
0.0399754
0.026915
0.0323164
1.36816
0.115251
0.0233765
0.0173302
0.0181986
0.0191673
0.0196192
0.0202218
0.0211746
0.0225514
0.0242391
0.0261721
0.0285898
0.0313703
0.0344511
0.0379198
0.04148
0.0451253
0.0479087
0.0502611
0.0518194
0.0527836
0.0533792
0.0539351
0.0545787
0.055178
0.0560718
0.0570044
0.0582464
0.0596028
0.060994
0.0625825
0.0645085
0.0662835
0.0687497
0.0709101
0.0733369
0.0420216
0.0396824
0.0379007
0.0368086
0.0351501
0.0333397
0.0326651
0.0343402
0.0256861
0.00917648
0.0247772
0.0685935
0.109991
0.108156
0.103977
0.103917
0.105824
0.108287
0.110668
0.112843
0.115049
0.117756
0.121604
0.127582
0.137515
0.155791
0.197732
0.446688
0.214816
0.134174
0.101289
0.0822922
0.0697234
0.0608003
0.0538813
0.0470002
0.0370934
0.0409601
0.0202223
0.188358
0.050458
0.0193666
0.0189027
0.0204559
0.0215393
0.0224529
0.0237572
0.0253975
0.0272421
0.0295067
0.032037
0.0347583
0.0377733
0.0408675
0.0440831
0.0467351
0.0492847
0.0513013
0.0528551
0.0540113
0.0550087
0.0560144
0.0568641
0.0579453
0.0590123
0.0603225
0.0617562
0.0631779
0.064807
0.0667855
0.0685585
0.0711359
0.0732512
0.0757705
0.0480088
0.0455586
0.0431566
0.0417299
0.0397448
0.037016
0.0349665
0.0344913
0.0345433
0.0145304
0.0217858
0.0641837
0.102396
0.108433
0.107574
0.10813
0.109878
0.111971
0.113861
0.115346
0.116544
0.117768
0.119401
0.121915
0.125936
0.132495
0.143581
0.164307
0.214427
0.683062
0.20347
0.133463
0.10278
0.0847203
0.0726519
0.0637324
0.0558382
0.0462164
0.0210895
0.0259655
0.261139
0.126115
0.0276996
0.0208147
0.0219878
0.0236376
0.0250384
0.0265326
0.0281781
0.0302006
0.0324191
0.034758
0.0373339
0.0400321
0.0428931
0.0454565
0.0481191
0.0505
0.0525673
0.0542907
0.0557803
0.0572337
0.0584123
0.0597283
0.0609911
0.0624
0.0639426
0.0654085
0.0670784
0.0691144
0.0708793
0.0735814
0.075623
0.0782412
0.0535557
0.0511456
0.0482668
0.0465097
0.0444397
0.0412413
0.037941
0.0360318
0.0352367
0.0287311
0.0218196
0.0571967
0.0934089
0.108201
0.112836
0.115343
0.117483
0.119467
0.121065
0.122098
0.12263
0.12291
0.123245
0.123971
0.125433
0.128066
0.132459
0.139701
0.152126
0.175907
0.236503
0.694605
0.201006
0.136673
0.107041
0.0892312
0.0769383
0.0671436
0.0561655
0.0368479
0.109195
0.0403506
0.22188
0.0622362
0.0240275
0.0236493
0.0257078
0.0275127
0.0289718
0.0306741
0.0325416
0.0345135
0.0367042
0.0390772
0.0416571
0.0441311
0.0468386
0.049465
0.0519427
0.0541783
0.0561832
0.058131
0.0597216
0.0613363
0.0628633
0.0644286
0.0661179
0.0676568
0.0693732
0.0714765
0.0732271
0.0760734
0.0780102
0.0807373
0.0600698
0.0572903
0.0537054
0.0513176
0.0489732
0.0456409
0.0414554
0.038208
0.0363106
0.0332909
0.027892
0.0497134
0.0826811
0.105715
0.118804
0.125704
0.129326
0.131455
0.132725
0.133225
0.133054
0.132443
0.131681
0.131064
0.130859
0.131333
0.132751
0.135503
0.14024
0.148158
0.161816
0.188159
0.257012
0.640593
0.209421
0.144679
0.114204
0.0955407
0.0819402
0.0688716
0.0530651
0.0187023
0.0256662
0.626011
0.159512
0.0366958
0.0262866
0.0275596
0.0293288
0.0309023
0.032438
0.0340806
0.0359479
0.0380639
0.0404081
0.042803
0.0454737
0.0482519
0.0510089
0.0536786
0.0561681
0.0586172
0.0606825
0.0626784
0.0645471
0.0663321
0.0682175
0.0698758
0.0716648
0.0738558
0.0755871
0.0785963
0.0803968
0.0832508
0.0729286
0.0675955
0.0618673
0.0577597
0.0541235
0.0500763
0.0452631
0.040876
0.037879
0.0349698
0.0306933
0.0402057
0.0696669
0.0987505
0.122642
0.138826
0.147013
0.150113
0.150826
0.150296
0.148946
0.147076
0.144977
0.142931
0.141171
0.139913
0.139316
0.139571
0.140936
0.143788
0.148758
0.157073
0.171426
0.198936
0.269293
0.847879
0.229766
0.157484
0.123955
0.102803
0.0859482
0.0676199
0.0395254
0.0417868
0.0389484
0.294532
0.0818087
0.0305605
0.028965
0.0305333
0.0320598
0.033492
0.0351017
0.037006
0.0391552
0.0414666
0.0440586
0.046899
0.0498217
0.052813
0.0557126
0.0586249
0.0611906
0.0636345
0.0659253
0.0680049
0.070152
0.0719927
0.0738967
0.0762086
0.0779278
0.0811209
0.0827544
0.0857617
0.135993
0.0992455
0.0820771
0.0709049
0.0627263
0.0556925
0.0495018
0.0439982
0.0399182
0.0366692
0.0327605
0.0330577
0.0520042
0.0838069
0.117568
0.148929
0.170674
0.179508
0.180112
0.177409
0.173544
0.169285
0.164978
0.160857
0.157106
0.153893
0.151323
0.149505
0.148557
0.148613
0.149869
0.152674
0.157662
0.166024
0.180302
0.20706
0.27181
0.941444
0.263836
0.174819
0.135258
0.109598
0.0866975
0.0615801
0.0232445
0.0291346
0.76328
0.856481
0.038446
0.0304545
0.0311998
0.0326732
0.0341862
0.0359171
0.0379081
0.0401199
0.0426299
0.0454586
0.048461
0.051651
0.0548502
0.0581462
0.061189
0.0641086
0.0668822
0.0693443
0.0718325
0.0739322
0.0760011
0.0784738
0.080205
0.0836142
0.0850563
0.0882471
0.0883672
0.0748579
0.0666381
0.0612936
0.0582138
0.0555892
0.0519997
0.0473633
0.0425718
0.0388459
0.0352838
0.032771
0.0385762
0.0600168
0.0947066
0.137172
0.180506
0.213282
0.225831
0.222899
0.214452
0.205203
0.196483
0.188565
0.181506
0.175348
0.170106
0.165806
0.162476
0.160132
0.1588
0.158565
0.159596
0.162196
0.166915
0.174833
0.188313
0.213141
0.269588
0.564923
0.314607
0.195197
0.146021
0.112936
0.0822173
0.0470108
0.0424716
0.0318381
0.275864
0.0656931
0.0328487
0.0318086
0.0331408
0.0348101
0.0366816
0.0387811
0.0412013
0.0439699
0.0469812
0.0502639
0.0536492
0.0572229
0.0606722
0.0640442
0.0673211
0.0702359
0.0731444
0.0755903
0.0778914
0.0805771
0.0823615
0.0860248
0.0872648
0.090676
0.0680047
0.0582472
0.0492733
0.0419386
0.0366203
0.0343139
0.0356415
0.0396172
0.042546
0.0409205
0.0381464
0.0355473
0.0360715
0.0447184
0.0655431
0.100264
0.148548
0.203645
0.251676
0.279393
0.281233
0.268195
0.251638
0.23599
0.222232
0.210403
0.200355
0.191946
0.185056
0.179562
0.175348
0.172334
0.170485
0.169813