/*--------------------------------*- C++ -*----------------------------------*\
| =========                 |                                                 |
| \\      /  F ield         | OpenFOAM: The Open Source CFD Toolbox           |
|  \\    /   O peration     | Version:  2312                                  |
|   \\  /    A nd           | Website:  www.openfoam.com                      |
|    \\/     M anipulation  |                                                 |
\*---------------------------------------------------------------------------*/
FoamFile
{
    version     2.0;
    format      ascii;
    arch        "LSB;label=32;scalar=64";
    class       volScalarField;
    location    "250";
    object      turbulenceProperties:k;
}
// * * * * * * * * * * * * * * * * * * * * * * * * * * * * * * * * * * * * * //

dimensions      [0 2 -2 0 0 0 0];

internalField   nonuniform List<scalar> 
11040
(
0.585962
0.326243
0.0835303
0.35387
0.473511
0.395745
0.3459
0.311459
0.288119
0.271644
0.257373
0.249151
0.245638
0.248165
0.25592
0.268983
0.288146
0.316882
0.356651
0.414309
0.493342
0.595204
0.725572
0.896013
1.11158
1.36265
1.64114
1.93442
2.22363
2.50832
2.78318
3.01351
3.14931
3.16575
3.03603
2.76612
2.34765
1.73425
0.925391
0.542868
0.542208
0.0499257
0.146757
0.430362
0.956117
0.384239
0.0626063
0.0170996
0.015393
0.0246041
0.0332168
0.0395967
0.0461487
0.053462
0.0627581
0.0749299
0.0896609
0.107953
0.129348
0.155052
0.181949
0.210301
0.237432
0.260128
0.278728
0.2933
0.302424
0.30052
0.28317
0.250486
0.205309
0.167078
0.130318
0.0983103
0.0792313
0.0862705
0.115123
0.170293
0.254152
0.360431
0.450788
1.14054
0.0236406
0.0107367
0.100347
0.903658
1.52393
0.762621
0.20192
0.0827669
0.0385747
0.013066
0.00396156
0.0178325
0.0312829
0.0433766
0.0557144
0.0681749
0.0818832
0.0974494
0.113003
0.126036
0.134059
0.135254
0.128377
0.115254
0.101714
0.0893527
0.0777286
0.0712127
0.0726654
0.075979
0.0714695
0.0550931
0.0474094
0.0919306
0.178046
0.29846
0.461732
0.690175
0.999728
1.35163
1.96092
0.015942
0.0179328
0.00278053
0.150963
1.11675
1.94667
1.25335
0.412527
0.19076
0.111956
0.0750491
0.0544968
0.0369478
0.0286981
0.0279488
0.0327416
0.0414957
0.051345
0.0609787
0.0694393
0.0759536
0.0816045
0.0893339
0.101305
0.118104
0.138783
0.160194
0.178628
0.188038
0.184529
0.164432
0.127751
0.0875641
0.122203
0.257481
0.460135
0.738363
1.12292
1.64779
2.24457
2.61266
0.0124108
0.0134328
0.00996974
0.00192004
0.16645
1.14261
2.2489
1.86251
0.788937
0.377601
0.221217
0.173888
0.140928
0.124865
0.116583
0.112557
0.113417
0.118288
0.128025
0.143438
0.162502
0.182423
0.202509
0.223383
0.244476
0.265504
0.285132
0.300965
0.305718
0.294951
0.260078
0.196733
0.106682
0.136577
0.355209
0.666229
1.08036
1.63266
2.37003
3.18296
3.35485
0.00921792
0.00876064
0.010638
0.00441697
0.00063718
0.133086
0.996251
2.39013
2.48714
1.4161
0.662368
0.412093
0.306601
0.263335
0.247855
0.241277
0.245052
0.253884
0.269094
0.290966
0.317099
0.342485
0.365228
0.386235
0.405223
0.423426
0.442689
0.460819
0.466669
0.451754
0.401778
0.306654
0.150557
0.11315
0.435955
0.869301
1.42694
2.14375
3.06566
4.03226
4.16481
0.00690735
0.00651173
0.00694494
0.00788409
0.0018448
3.11763e-05
0.0728719
0.72785
2.21181
2.96116
2.26279
1.16133
0.686947
0.493975
0.432136
0.403405
0.402359
0.411226
0.432542
0.461554
0.494364
0.524501
0.552495
0.581111
0.610144
0.638268
0.664911
0.690255
0.702531
0.687343
0.625555
0.500737
0.289872
0.0254438
0.457777
1.01398
1.70529
2.56091
3.61246
4.66076
4.94123
0.00510771
0.00505327
0.00496519
0.00546867
0.00623738
0.000212055
0.00150078
0.0287783
0.431955
1.7137
3.07151
3.07671
2.02085
1.10132
0.757104
0.617952
0.584693
0.580029
0.599943
0.631578
0.67297
0.715017
0.757794
0.806122
0.860529
0.918635
0.975449
1.0233
1.04778
1.03909
0.973328
0.82703
0.574467
0.203149
0.359135
1.01675
1.81297
2.75381
3.85141
4.90836
5.45946
0.00383031
0.00380882
0.00387071
0.00380446
0.00451261
0.00398753
0.000518711
0.000870017
0.0028554
0.185152
1.05233
2.6212
3.50199
3.01571
1.89905
1.14526
0.869859
0.780012
0.77972
0.810651
0.863409
0.924013
0.991086
1.06953
1.16049
1.26138
1.36608
1.46272
1.53206
1.55184
1.49556
1.33966
1.06006
0.638116
0.225545
0.786248
1.62947
2.57806
3.60871
4.5708
5.31014
0.00288356
0.00288083
0.00294195
0.00298803
0.00300023
0.00344096
0.00296906
0.00077637
0.000253481
0.00012915
0.0535196
0.488142
1.73656
3.26493
3.71493
2.97052
1.90479
1.25959
1.03525
1.00668
1.06457
1.1524
1.25444
1.37285
1.51044
1.66472
1.82892
1.98995
2.12485
2.20602
2.2021
2.08225
1.81612
1.37742
0.78577
0.430628
1.07948
1.93409
2.79262
3.53835
4.2335
0.00217716
0.00218191
0.00222543
0.00229263
0.00232147
0.00237128
0.00254693
0.0024644
0.000909078
0.000104857
0.0013204
0.00351616
0.14705
0.843661
2.29746
3.66212
3.83506
3.01311
2.03318
1.47047
1.3128
1.37827
1.52547
1.70025
1.89579
2.10865
2.33624
2.56742
2.77565
2.93186
2.99921
2.94529
2.7363
2.34857
1.77499
1.08997
0.566026
0.865561
1.45402
1.94652
2.40294
0.00164628
0.00165212
0.00168635
0.00173614
0.00178865
0.00182262
0.00184744
0.00195333
0.00199829
0.0011307
8.54383e-05
7.58371e-05
0.00340938
0.0241905
0.271565
1.14694
2.65483
3.88164
3.961
3.18986
2.339
1.88799
1.81428
1.97003
2.23724
2.53381
2.84157
3.14839
3.43231
3.66356
3.81089
3.83935
3.71788
3.4211
2.94037
2.30984
1.62771
0.999102
0.502694
0.208837
0.397299
0.00124474
0.00125091
0.00127568
0.00131408
0.0013574
0.00140022
0.00143234
0.00144971
0.00151129
0.00158011
0.0012434
8.07714e-05
1.24537e-05
0.000847618
0.000853227
0.0483006
0.36356
1.30756
2.79489
3.9898
4.16345
3.62479
3.03884
2.69868
2.64049
2.80788
3.13178
3.52588
3.91229
4.24146
4.48415
4.61201
4.59822
4.42032
4.07583
3.58262
3.00861
2.43951
1.95488
1.56906
1.26134
0.000940052
0.000945994
0.000963893
0.000992626
0.00102701
0.00106329
0.00109932
0.00112788
0.00114697
0.00117829
0.00126484
0.00115132
0.00038067
3.88867e-05
2.99009e-05
0.00221214
0.00307709
0.0598251
0.381491
1.29264
2.73378
3.99646
4.51827
4.48991
4.2732
4.05905
3.96693
4.03269
4.22147
4.47591
4.73143
4.93407
5.0401
5.01731
4.85706
4.56978
4.17904
3.73792
3.32174
2.99202
2.67478
0.000708257
0.000713748
0.00072689
0.000748141
0.000774732
0.000804248
0.000834865
0.000865251
0.00089192
0.000910899
0.000931239
0.000997845
0.000954118
0.000738458
3.74314e-05
1.09836e-05
9.75695e-05
0.00297997
0.00342525
0.0510011
0.319331
1.05445
2.22421
3.49794
4.51026
5.16789
5.57096
5.80178
5.91273
5.96099
5.98557
5.98908
5.9573
5.86819
5.71191
5.49562
5.20424
4.81032
4.45175
4.25356
4.04951
0.000531844
0.000536689
0.000546447
0.000562102
0.000582208
0.000605344
0.000630438
0.000656375
0.000682167
0.00070646
0.000724923
0.000746722
0.000773722
0.000814826
0.000719531
0.000446451
3.74832e-05
2.73465e-06
0.000117694
0.00297215
0.00213067
0.0254465
0.149139
0.506411
1.16231
2.06038
3.04895
3.98337
4.78964
5.44373
5.93503
6.25467
6.40436
6.39414
6.23916
5.96492
5.61436
5.23561
4.84863
4.50028
4.24381
0.000398708
0.000402793
0.00041015
0.00042173
0.000436759
0.000454442
0.000474076
0.000495043
0.000516773
0.000538672
0.000559814
0.000578919
0.000596612
0.000617856
0.000650242
0.000667329
0.000558538
0.000248407
2.55582e-05
2.14724e-06
5.07712e-05
0.00159847
0.00649696
0.00301307
0.0193128
0.0818236
0.227845
0.473933
0.803688
1.17547
1.53964
1.85228
2.08266
2.21647
2.25049
2.19646
2.08299
1.95447
1.84321
1.77275
1.72433
0.000301577
0.000304997
0.000310766
0.000319586
0.00033104
0.000344633
0.000359951
0.00037657
0.000394147
0.000412418
0.000430913
0.000449222
0.000467065
0.000483267
0.000501312
0.000524901
0.000562038
0.000558538
0.00046515
0.00019079
2.05951e-05
2.43651e-06
0
6.61414e-05
0.00162509
0.00616999
0.000256389
0.00613008
0.0118408
0.0181477
0.0195891
0.0139584
0.00270815
0.0234897
0.0554185
0.0941032
0.135009
0.172215
0.199786
0.216081
0.215367
0.00023221
0.000235097
0.000239735
0.00024662
0.000255521
0.000266153
0.000278252
0.000291561
0.000305863
0.000320913
0.000336444
0.00035222
0.000368167
0.000383949
0.00039939
0.000414577
0.000433659
0.000459331
0.000487693
0.000484606
0.000389019
0.000223368
2.06614e-05
2.63279e-06
1.23559e-06
9.47277e-09
1.92e-06
0.000164084
0.000950658
0.00327365
0.00612557
0.00893086
0.0117424
0.000338553
0.00657133
0.00571866
0.00500193
0.00649556
0.00525462
0.00446882
0.00477615
0.000182032
0.000184434
0.000188175
0.000193596
0.000200573
0.000208941
0.000218515
0.000229139
0.000240665
0.000252917
0.0002658
0.000279078
0.000292642
0.00030643
0.000320349
0.000334195
0.000348053
0.000363066
0.00038164
0.000406102
0.000429712
0.000439976
0.00037533
0.000270108
0.000130434
1.0477e-06
2.93182e-06
1.72515e-06
1.11249e-06
5.59007e-07
1.72442e-07
7.59936e-09
0
1.36323e-06
5.17852e-05
3.7591e-05
2.74562e-05
3.93163e-05
2.49168e-05
1.77249e-05
1.80929e-05
0.000144615
0.000146585
0.000149622
0.000153922
0.000159439
0.000166069
0.000173688
0.000182172
0.000191402
0.000201325
0.0002118
0.000222727
0.000233984
0.000245514
0.00025726
0.0002692
0.000281247
0.000293391
0.000305888
0.000319559
0.000336984
0.000359078
0.0003855
0.000397516
0.000389407
0.00034973
0.000286005
0.000216557
0.000144119
7.51245e-05
2.41013e-05
1.10609e-06
2.31568e-06
1.57866e-06
1.41968e-06
1.29059e-06
1.18196e-06
1.11265e-06
1.04224e-06
9.88428e-07
9.3633e-07
0.000116142
0.000117748
0.000120227
0.000123671
0.000128066
0.000133355
0.000139445
0.000146237
0.00015365
0.000161632
0.000170073
0.000178957
0.000188154
0.000197585
0.000207218
0.000217017
0.000226961
0.000237016
0.000247197
0.000257433
0.000268189
0.000280083
0.000294499
0.000310596
0.000327292
0.000343635
0.000354276
0.000358557
0.000355348
0.000344974
0.000328932
0.000309267
0.000288114
0.000266608
0.000248537
0.000234885
0.000224487
0.000217024
0.000212593
0.000209462
0.000208514
9.40878e-05
9.54008e-05
9.74344e-05
0.000100209
0.000103728
0.000107971
0.000112857
0.00011831
0.000124263
0.000130654
0.000137455
0.000144617
0.000152059
0.000159687
0.000167463
0.000175348
0.000183323
0.000191339
0.000199403
0.000207451
0.000215647
0.000223955
0.000232184
0.000240493
0.000249115
0.000258181
0.000267591
0.000276957
0.000285741
0.000293484
0.000299868
0.000304745
0.00030806
0.000309824
0.000309631
0.00030819
0.00030577
0.000302358
0.000298508
0.000293122
0.000290249
7.6777e-05
7.7848e-05
7.95212e-05
8.17719e-05
8.46114e-05
8.8031e-05
9.19696e-05
9.63591e-05
0.000101147
0.000106277
0.000111738
0.000117466
0.000123447
0.000129572
0.000135789
0.000142063
0.000148366
0.000154654
0.000160898
0.000167046
0.000173231
0.00017944
0.00018536
0.000190875
0.000196005
0.000200782
0.00020523
0.000209358
0.00021316
0.000216566
0.000219505
0.000221867
0.000223591
0.000224612
0.000224904
0.000224431
0.000223198
0.000221135
0.00021859
0.000214556
0.000212967
6.30258e-05
6.39076e-05
6.52948e-05
6.71328e-05
6.94368e-05
7.22087e-05
7.53958e-05
7.89426e-05
8.28014e-05
8.69323e-05
9.12962e-05
9.58795e-05
0.000100672
0.000105575
0.00011052
0.000115479
0.00012042
0.000125307
0.000130096
0.000134736
0.000139316
0.000143862
0.000148138
0.000152034
0.000155537
0.000158634
0.000161315
0.00016355
0.000165351
0.000166691
0.000167586
0.000168018
0.000167999
0.000167511
0.000166594
0.000165258
0.00016352
0.000161318
0.000158959
0.000155476
0.000154676
5.20047e-05
5.27296e-05
5.38891e-05
5.54021e-05
5.72839e-05
5.95415e-05
6.21331e-05
6.50092e-05
6.81296e-05
7.14608e-05
7.49604e-05
7.86375e-05
8.246e-05
8.63711e-05
9.02994e-05
9.42086e-05
9.80672e-05
0.000101846
0.000105504
0.000108987
0.000112364
0.00011567
0.000118729
0.000121454
0.00012384
0.00012589
0.000127594
0.000128942
0.00012993
0.000130559
0.000130832
0.000130764
0.000130347
0.000129599
0.000128549
0.000127233
0.000125651
0.000123755
0.000121842
0.000118952
0.000118957
4.30906e-05
4.3702e-05
4.46759e-05
4.59264e-05
4.74735e-05
4.93237e-05
5.14412e-05
5.37831e-05
5.63154e-05
5.90089e-05
6.18279e-05
6.47732e-05
6.78167e-05
7.09376e-05
7.40624e-05
7.71465e-05
8.01634e-05
8.3085e-05
8.58804e-05
8.84975e-05
9.09953e-05
9.34118e-05
9.56139e-05
9.75369e-05
9.91765e-05
0.000100544
0.000101636
0.000102456
0.000102999
0.000103279
0.000103301
0.000103081
0.000102614
0.00010192
0.000101024
9.99587e-05
9.87175e-05
9.7259e-05
9.58756e-05
9.35872e-05
9.43634e-05
3.58408e-05
3.63554e-05
3.71796e-05
3.82242e-05
3.95055e-05
4.10311e-05
4.27704e-05
4.46862e-05
4.67499e-05
4.89359e-05
5.12166e-05
5.3575e-05
5.6007e-05
5.85018e-05
6.09913e-05
6.34307e-05
6.57947e-05
6.80603e-05
7.02025e-05
7.21777e-05
7.40353e-05
7.58205e-05
7.74263e-05
7.88076e-05
7.99597e-05
8.08995e-05
8.16236e-05
8.21411e-05
8.24526e-05
8.2574e-05
8.25088e-05
8.22742e-05
8.18712e-05
8.13161e-05
8.06332e-05
7.98469e-05
7.89512e-05
7.79003e-05
7.69875e-05
7.52018e-05
7.66222e-05
2.99037e-05
3.03483e-05
3.1049e-05
3.19272e-05
3.29968e-05
3.42625e-05
3.56986e-05
3.72737e-05
3.89628e-05
4.07445e-05
4.25957e-05
4.4495e-05
4.64496e-05
4.84432e-05
5.04297e-05
5.23667e-05
5.42278e-05
5.5994e-05
5.76459e-05
5.91475e-05
6.05432e-05
6.18787e-05
6.30709e-05
6.40844e-05
6.492e-05
6.559e-05
6.61003e-05
6.64563e-05
6.66663e-05
6.67372e-05
6.66804e-05
6.65079e-05
6.62251e-05
6.58406e-05
6.53789e-05
6.48563e-05
6.42668e-05
6.35618e-05
6.30315e-05
6.16511e-05
6.35604e-05
2.50203e-05
2.54048e-05
2.60087e-05
2.67537e-05
2.76512e-05
2.87087e-05
2.99021e-05
3.12045e-05
3.25944e-05
3.40536e-05
3.55627e-05
3.71028e-05
3.86777e-05
4.02736e-05
4.18661e-05
4.34136e-05
4.48891e-05
4.62771e-05
4.75636e-05
4.87188e-05
4.97841e-05
5.08022e-05
5.17086e-05
5.24751e-05
5.31082e-05
5.36162e-05
5.40069e-05
5.42848e-05
5.44603e-05
5.45386e-05
5.45303e-05
5.44453e-05
5.42873e-05
5.40622e-05
5.37903e-05
5.34851e-05
5.31385e-05
5.27029e-05
5.24575e-05
5.13831e-05
5.36233e-05
2.09813e-05
2.13215e-05
2.18436e-05
2.24809e-05
2.32425e-05
2.41326e-05
2.51312e-05
2.62145e-05
2.73649e-05
2.85667e-05
2.98042e-05
3.10612e-05
3.2335e-05
3.36186e-05
3.4903e-05
3.61473e-05
3.73278e-05
3.8429e-05
3.94425e-05
4.03429e-05
4.11716e-05
4.19653e-05
4.26748e-05
4.32763e-05
4.37774e-05
4.41865e-05
4.45127e-05
4.47585e-05
4.4932e-05
4.50394e-05
4.50886e-05
4.50875e-05
4.50372e-05
4.49437e-05
4.48224e-05
4.46853e-05
4.45213e-05
4.42864e-05
4.4244e-05
4.33984e-05
4.5833e-05
1.76269e-05
1.79308e-05
1.83898e-05
1.89398e-05
1.95906e-05
2.03461e-05
2.1187e-05
2.20936e-05
2.30514e-05
2.40472e-05
2.50679e-05
2.61007e-05
2.7137e-05
2.81776e-05
2.92198e-05
3.02276e-05
3.11802e-05
3.20642e-05
3.28736e-05
3.35888e-05
3.42468e-05
3.48823e-05
3.54538e-05
3.59449e-05
3.63606e-05
3.67096e-05
3.69994e-05
3.72343e-05
3.74184e-05
3.75579e-05
3.76583e-05
3.77277e-05
3.77637e-05
3.77725e-05
3.77653e-05
3.7753e-05
3.77219e-05
3.76326e-05
3.77291e-05
3.7055e-05
3.95673e-05
1.48334e-05
1.51094e-05
1.5513e-05
1.59928e-05
1.65537e-05
1.71978e-05
1.79109e-05
1.86756e-05
1.94788e-05
2.03095e-05
2.11567e-05
2.20104e-05
2.28608e-05
2.37126e-05
2.45614e-05
2.53838e-05
2.616e-05
2.68782e-05
2.75338e-05
2.81124e-05
2.86456e-05
2.91669e-05
2.96399e-05
3.00535e-05
3.04117e-05
3.07238e-05
3.09931e-05
3.1225e-05
3.14226e-05
3.15913e-05
3.17339e-05
3.18571e-05
3.19576e-05
3.20404e-05
3.21132e-05
3.21847e-05
3.2242e-05
3.22489e-05
3.24293e-05
3.18798e-05
3.43704e-05
1.24977e-05
1.27507e-05
1.3111e-05
1.3531e-05
1.40168e-05
1.4571e-05
1.51807e-05
1.58308e-05
1.65096e-05
1.72081e-05
1.79165e-05
1.86273e-05
1.93314e-05
2.00335e-05
2.07291e-05
2.14065e-05
2.20456e-05
2.2637e-05
2.31755e-05
2.36525e-05
2.40941e-05
2.45306e-05
2.49314e-05
2.52884e-05
2.56044e-05
2.58885e-05
2.61434e-05
2.63722e-05
2.65781e-05
2.67652e-05
2.69353e-05
2.70926e-05
2.72345e-05
2.73641e-05
2.74874e-05
2.76104e-05
2.77223e-05
2.77894e-05
2.80147e-05
2.75597e-05
2.99528e-05
1.05413e-05
1.07752e-05
1.10964e-05
1.1468e-05
1.18929e-05
1.23737e-05
1.2899e-05
1.34557e-05
1.40337e-05
1.46253e-05
1.52226e-05
1.5819e-05
1.64073e-05
1.69892e-05
1.75644e-05
1.81269e-05
1.86588e-05
1.91515e-05
1.96009e-05
2.00005e-05
2.03745e-05
2.0747e-05
2.10945e-05
2.14096e-05
2.16955e-05
2.19583e-05
2.22017e-05
2.24273e-05
2.26376e-05
2.28348e-05
2.30211e-05
2.3199e-05
2.33662e-05
2.35236e-05
2.36767e-05
2.38292e-05
2.39724e-05
2.40746e-05
2.43162e-05
2.39366e-05
2.61706e-05
8.89776e-06
9.11537e-06
9.40462e-06
9.7349e-06
1.01098e-05
1.05297e-05
1.09856e-05
1.14656e-05
1.19613e-05
1.24661e-05
1.29735e-05
1.3478e-05
1.39742e-05
1.44608e-05
1.49397e-05
1.54104e-05
1.58563e-05
1.62699e-05
1.66487e-05
1.69866e-05
1.73047e-05
1.76238e-05
1.79255e-05
1.82032e-05
1.84606e-05
1.87021e-05
1.89305e-05
1.91474e-05
1.93546e-05
1.95533e-05
1.97443e-05
1.99291e-05
2.01053e-05
2.02736e-05
2.04374e-05
2.05992e-05
2.07515e-05
2.08671e-05
2.11014e-05
2.07786e-05
2.28038e-05
7.51618e-06
7.71856e-06
7.97925e-06
8.27534e-06
8.60773e-06
8.97696e-06
9.37493e-06
9.79179e-06
1.022e-05
1.06538e-05
1.10879e-05
1.15178e-05
1.19396e-05
1.23503e-05
1.27537e-05
1.31505e-05
1.35283e-05
1.38796e-05
1.42027e-05
1.44933e-05
1.47696e-05
1.50476e-05
1.53143e-05
1.55633e-05
1.57973e-05
1.60209e-05
1.62363e-05
1.64434e-05
1.66434e-05
1.68367e-05
1.70242e-05
1.72056e-05
1.73796e-05
1.75457e-05
1.77071e-05
1.7864e-05
1.80113e-05
1.81251e-05
1.83363e-05
1.80614e-05
1.98322e-05
6.35174e-06
6.54062e-06
6.77661e-06
7.04229e-06
7.33845e-06
7.66456e-06
8.01379e-06
8.37837e-06
8.75101e-06
9.12641e-06
9.50022e-06
9.86881e-06
1.02294e-05
1.05787e-05
1.09212e-05
1.12571e-05
1.15776e-05
1.18766e-05
1.21532e-05
1.24038e-05
1.26437e-05
1.28856e-05
1.31195e-05
1.33402e-05
1.355e-05
1.3752e-05
1.39481e-05
1.41379e-05
1.43224e-05
1.45012e-05
1.46749e-05
1.48432e-05
1.50048e-05
1.51584e-05
1.53062e-05
1.54483e-05
1.55801e-05
1.56822e-05
1.58601e-05
1.56277e-05
1.71187e-05
5.37005e-06
5.54526e-06
5.75887e-06
5.99908e-06
6.26365e-06
6.55205e-06
6.85949e-06
7.17894e-06
7.50444e-06
7.83137e-06
8.15556e-06
8.47404e-06
8.78427e-06
9.08411e-06
9.37756e-06
9.66538e-06
9.9415e-06
1.02003e-05
1.04403e-05
1.06599e-05
1.08704e-05
1.10828e-05
1.12894e-05
1.14858e-05
1.16734e-05
1.18551e-05
1.2032e-05
1.22041e-05
1.23713e-05
1.25337e-05
1.2691e-05
1.28431e-05
1.29879e-05
1.31248e-05
1.32545e-05
1.33777e-05
1.34895e-05
1.35759e-05
1.37179e-05
1.35251e-05
1.47156e-05
4.53991e-06
4.70186e-06
4.89577e-06
5.1127e-06
5.3507e-06
5.6075e-06
5.87796e-06
6.1575e-06
6.44089e-06
6.72496e-06
7.00684e-06
7.28367e-06
7.55261e-06
7.81091e-06
8.06089e-06
8.30463e-06
8.5397e-06
8.76151e-06
8.96833e-06
9.15903e-06
9.34183e-06
9.52463e-06
9.70286e-06
9.87267e-06
1.00349e-05
1.01916e-05
1.03438e-05
1.04913e-05
1.06338e-05
1.0771e-05
1.09027e-05
1.10285e-05
1.11464e-05
1.12557e-05
1.13565e-05
1.14489e-05
1.15292e-05
1.1587e-05
1.16814e-05
1.15134e-05
1.2383e-05
3.83937e-06
3.98715e-06
4.16149e-06
4.35685e-06
4.56926e-06
4.79759e-06
5.0375e-06
5.28397e-06
5.532e-06
5.77822e-06
6.02118e-06
6.26021e-06
6.49439e-06
6.7217e-06
6.94188e-06
7.15433e-06
7.35652e-06
7.54554e-06
7.72133e-06
7.88437e-06
8.04108e-06
8.19765e-06
8.35129e-06
8.49881e-06
8.6404e-06
8.77755e-06
8.91031e-06
9.03852e-06
9.16152e-06
9.27927e-06
9.39068e-06
9.49548e-06
9.59172e-06
9.67905e-06
9.75658e-06
9.82437e-06
9.87913e-06
9.91489e-06
9.96896e-06
9.83302e-06
1.03961e-05
3.24917e-06
3.38376e-06
3.53971e-06
3.71152e-06
3.89683e-06
4.0944e-06
4.30363e-06
4.52109e-06
4.7426e-06
4.96254e-06
5.17665e-06
5.38219e-06
5.57945e-06
5.77023e-06
5.95864e-06
6.14692e-06
6.33187e-06
6.50682e-06
6.6683e-06
6.81567e-06
6.95271e-06
7.08393e-06
7.20918e-06
7.32656e-06
7.43648e-06
7.54076e-06
7.6395e-06
7.73278e-06
7.81986e-06
7.90075e-06
7.97434e-06
8.04015e-06
8.09658e-06
8.14313e-06
8.1787e-06
8.20269e-06
8.21336e-06
8.20684e-06
8.20384e-06
8.07553e-06
8.29693e-06
2.75093e-06
2.87122e-06
3.01041e-06
3.16221e-06
3.32141e-06
3.48781e-06
3.66175e-06
3.8433e-06
4.03204e-06
4.22647e-06
4.42342e-06
4.6171e-06
4.80057e-06
4.96726e-06
5.11562e-06
5.25039e-06
5.37956e-06
5.50569e-06
5.62899e-06
5.74805e-06
5.8633e-06
5.97679e-06
6.08734e-06
6.19219e-06
6.29078e-06
6.38348e-06
6.4703e-06
6.55078e-06
6.6243e-06
6.6901e-06
6.74757e-06
6.79586e-06
6.8341e-06
6.86122e-06
6.87654e-06
6.87922e-06
6.86815e-06
6.84255e-06
6.80629e-06
6.70572e-06
6.68432e-06
2.32639e-06
2.42842e-06
2.54764e-06
2.6797e-06
2.82067e-06
2.96872e-06
3.1208e-06
3.27296e-06
3.42313e-06
3.57169e-06
3.72238e-06
3.88068e-06
4.05147e-06
4.23586e-06
4.43024e-06
4.62157e-06
4.79294e-06
4.93921e-06
5.06245e-06
5.16758e-06
5.25804e-06
5.33586e-06
5.40506e-06
5.46474e-06
5.5158e-06
5.55919e-06
5.59539e-06
5.62423e-06
5.6454e-06
5.65826e-06
5.66222e-06
5.6564e-06
5.64e-06
5.61203e-06
5.57186e-06
5.51833e-06
5.45188e-06
5.37135e-06
5.27526e-06
5.15661e-06
4.81664e-06
1.97181e-06
2.05247e-06
2.14143e-06
2.23926e-06
2.34829e-06
2.47408e-06
2.61744e-06
2.77398e-06
2.93408e-06
3.08524e-06
3.21505e-06
3.31492e-06
3.3832e-06
3.42591e-06
3.45563e-06
3.49895e-06
3.57628e-06
3.67563e-06
3.7841e-06
3.89262e-06
3.9971e-06
4.09682e-06
4.1897e-06
4.27328e-06
4.34629e-06
4.40828e-06
4.45909e-06
4.49814e-06
4.52508e-06
4.53936e-06
4.54069e-06
4.52831e-06
4.50191e-06
4.46094e-06
4.40486e-06
4.33337e-06
4.24592e-06
4.14853e-06
4.01931e-06
3.92506e-06
3.48798e-06
1.68757e-06
1.76056e-06
1.82849e-06
1.88875e-06
1.94448e-06
2.00406e-06
2.07635e-06
2.17019e-06
2.2948e-06
2.45749e-06
2.66126e-06
2.90211e-06
3.16912e-06
3.44538e-06
3.71496e-06
3.9341e-06
4.07192e-06
4.16331e-06
4.22545e-06
4.26793e-06
4.29239e-06
4.30166e-06
4.30062e-06
4.29007e-06
4.27048e-06
4.24249e-06
4.20601e-06
4.1612e-06
4.10762e-06
4.04505e-06
3.97293e-06
3.89115e-06
3.79955e-06
3.69855e-06
3.58915e-06
3.4722e-06
3.35292e-06
3.2295e-06
3.12462e-06
2.9774e-06
2.84986e-06
1.4647e-06
1.5412e-06
1.6157e-06
1.67983e-06
1.72627e-06
1.75341e-06
1.76339e-06
1.7616e-06
1.75705e-06
1.75925e-06
1.77589e-06
1.81018e-06
1.85911e-06
1.91433e-06
1.96113e-06
2.02834e-06
2.13063e-06
2.24931e-06
2.37576e-06
2.50138e-06
2.62228e-06
2.73581e-06
2.83976e-06
2.93253e-06
3.01148e-06
3.07517e-06
3.12205e-06
3.15098e-06
3.16033e-06
3.14895e-06
3.11527e-06
3.05822e-06
2.97645e-06
2.86899e-06
2.73408e-06
2.57184e-06
2.37757e-06
2.16872e-06
1.88135e-06
1.74642e-06
1.0027e-06
1.30155e-06
1.30855e-06
1.34561e-06
1.48425e-06
1.75238e-06
2.12068e-06
2.53677e-06
2.95456e-06
3.34092e-06
3.67482e-06
3.94505e-06
4.14811e-06
4.28697e-06
4.36748e-06
4.40571e-06
4.36323e-06
4.27144e-06
4.18046e-06
4.10217e-06
4.03688e-06
3.97958e-06
3.94839e-06
3.92609e-06
3.91109e-06
3.89988e-06
3.88912e-06
3.87667e-06
3.86027e-06
3.83882e-06
3.81117e-06
3.77764e-06
3.73919e-06
3.69887e-06
3.6608e-06
3.63358e-06
3.62597e-06
3.65726e-06
3.71793e-06
3.93193e-06
3.85172e-06
5.39937e-06
11.9629
10.8771
8.13833
4.10986
0.516965
0.0814998
0.00583039
5.18215e-05
0.00136502
0.000166541
0.0309602
0.933008
1.33454
0.499689
0.913003
1.92448
2.6759
3.20946
3.59781
3.8782
4.0687
4.1571
4.11664
3.91048
3.50188
2.87365
2.04739
1.13088
0.367041
0.0332139
0.00107325
1.82871e-07
3.0212e-05
0.000215889
0.000220095
0.000178052
0.000169713
0.000184285
0.000201696
0.000211817
0.000214172
0.000211957
0.00020676
0.000198206
0.00018638
0.000171183
0.00015272
0.000132733
0.000112143
9.16482e-05
7.2557e-05
5.55092e-05
4.1026e-05
2.95227e-05
2.13012e-05
1.59912e-05
1.52066e-05
1.60644e-05
1.766e-05
1.90829e-05
1.99362e-05
2.05289e-05
2.05349e-05
2.02381e-05
1.98328e-05
1.89912e-05
1.83578e-05
1.73862e-05
1.65087e-05
1.55096e-05
1.46571e-05
1.36415e-05
1.27319e-05
1.19481e-05
13.4767
15.0871
12.327
7.89666
2.46664
0.0593347
0.0228557
6.52548e-05
9.5529e-06
0.00180645
0.138253
1.03374
1.03779
0.519784
1.00814
1.55698
1.94463
2.23272
2.49082
2.74392
3.00237
3.24786
3.44582
3.54843
3.49868
3.24491
2.74919
2.01703
1.14323
0.376496
0.0345902
0.00139249
1.30286e-06
1.71141e-05
0.000215036
0.000225483
0.000178564
0.000169284
0.000182539
0.000196071
0.000201345
0.000199776
0.000194307
0.000185057
0.000172966
0.000158109
0.000140065
0.000120986
0.000102021
8.31306e-05
6.56963e-05
5.0468e-05
3.75544e-05
2.75447e-05
2.04115e-05
1.60294e-05
1.54177e-05
1.60364e-05
1.73048e-05
1.84603e-05
1.91009e-05
1.95825e-05
1.95342e-05
1.91713e-05
1.87961e-05
1.79671e-05
1.73709e-05
1.64655e-05
1.56273e-05
1.46678e-05
1.38855e-05
1.29078e-05
1.20536e-05
1.12963e-05
11.6032
16.1323
15.4418
11.8807
5.86996
0.789733
0.10462
0.0116101
5.45421e-07
0.0054996
0.23019
0.923334
0.72394
0.726553
1.14381
1.34239
1.36507
1.3172
1.29928
1.37282
1.56976
1.86983
2.22467
2.57451
2.85107
2.98575
2.90975
2.5714
1.96125
1.15408
0.400949
0.043971
0.00231217
7.45239e-07
1.61717e-06
0.000178062
0.000226438
0.000176847
0.000162994
0.00017331
0.00018294
0.00018409
0.000179022
0.000169668
0.000157501
0.000143379
0.000126443
0.000108758
9.17529e-05
7.49315e-05
5.95491e-05
4.64038e-05
3.5321e-05
2.69112e-05
2.0896e-05
1.73719e-05
1.65187e-05
1.66091e-05
1.73529e-05
1.80224e-05
1.84402e-05
1.85902e-05
1.84915e-05
1.80879e-05
1.76534e-05
1.69138e-05
1.62432e-05
1.5448e-05
1.46525e-05
1.37621e-05
1.30103e-05
1.21051e-05
1.1308e-05
1.0587e-05
9.7164
15.6416
17.013
15.0801
9.94072
3.14292
0.16497
0.0375259
0.000601734
0.00942329
0.274955
0.824511
0.622584
0.989436
1.4904
1.69632
1.67753
1.52525
1.29846
1.02769
0.77155
0.68649
0.925747
1.36009
1.83544
2.2563
2.53966
2.61071
2.41082
1.91465
1.18043
0.447991
0.0626006
0.00426574
6.85871e-05
8.69715e-06
0.000109783
0.000220973
0.000182675
0.00015672
0.000159667
0.000165219
0.000163101
0.000154587
0.000142734
0.000129391
0.000113804
9.77777e-05
8.26846e-05
6.78632e-05
5.45394e-05
4.32976e-05
3.38772e-05
2.67793e-05
2.1595e-05
1.86127e-05
1.74221e-05
1.70471e-05
1.72902e-05
1.75355e-05
1.77088e-05
1.76019e-05
1.74319e-05
1.70042e-05
1.6524e-05
1.58524e-05
1.51546e-05
1.44446e-05
1.37016e-05
1.28801e-05
1.21677e-05
1.13249e-05
1.05927e-05
9.90976e-06
8.48475
14.6104
17.2692
16.9743
13.652
6.92338
1.141
0.143326
0.0014254
0.0129598
0.278357
0.738178
0.637101
1.19694
1.81228
2.15323
2.27069
2.24552
2.12345
1.91568
1.61957
1.22974
0.760631
0.32738
0.577112
1.14759
1.68456
2.09338
2.2975
2.23134
1.85642
1.21535
0.518053
0.0942945
0.00131374
0.000611308
4.55204e-06
7.39423e-06
0.000155428
0.000181849
0.000151915
0.000144425
0.000144571
0.000139255
0.000128923
0.000116585
0.000102411
8.81437e-05
7.48973e-05
6.19569e-05
5.05186e-05
4.09289e-05
3.28965e-05
2.67935e-05
2.21782e-05
1.95018e-05
1.79644e-05
1.72297e-05
1.7019e-05
1.69497e-05
1.68593e-05
1.66133e-05
1.6361e-05
1.59092e-05
1.5424e-05
1.47866e-05
1.41221e-05
1.34747e-05
1.279e-05
1.20308e-05
1.13753e-05
1.05815e-05
9.91893e-06
9.27535e-06
7.89692
13.442
16.6389
17.5054
16.1623
11.1308
3.85178
0.377894
0.0644961
0.0189888
0.253539
0.661168
0.699152
1.33258
2.02806
2.49935
2.76358
2.88428
2.90268
2.83056
2.66152
2.38171
1.98472
1.47454
0.871571
0.224303
0.491169
1.11457
1.6267
1.95071
2.01434
1.77222
1.24635
0.603272
0.145054
0.00796871
0.00160739
2.89667e-07
8.46778e-06
8.71073e-05
0.000160358
0.000143241
0.000127693
0.000121925
0.000114902
0.000104754
9.22652e-05
7.97905e-05
6.83845e-05
5.7268e-05
4.75388e-05
3.94002e-05
3.25131e-05
2.71683e-05
2.29557e-05
2.03658e-05
1.8504e-05
1.74076e-05
1.67768e-05
1.64037e-05
1.60663e-05
1.56886e-05
1.53485e-05
1.4862e-05
1.43787e-05
1.37711e-05
1.31507e-05
1.25569e-05
1.19269e-05
1.12248e-05
1.06313e-05
9.88179e-06
9.28851e-06
8.68331e-06
7.75887
12.2451
15.457
16.9181
17.0946
14.5287
7.91225
1.77841
0.213191
0.000658025
0.211386
0.59665
0.762535
1.37876
2.08369
2.63643
3.01612
3.26181
3.40827
3.46976
3.44104
3.30574
3.04983
2.66567
2.15817
1.54456
0.858973
0.146752
0.537819
1.13008
1.55705
1.74669
1.646
1.25576
0.691911
0.215882
0.0250339
0.00353466
0.000121714
4.13144e-06
2.61188e-05
0.000125656
0.000134816
0.00011271
0.000101187
9.31263e-05
8.31515e-05
7.26916e-05
6.31232e-05
5.37652e-05
4.55817e-05
3.87082e-05
3.2768e-05
2.79913e-05
2.40564e-05
2.14039e-05
1.92467e-05
1.7763e-05
1.67333e-05
1.60238e-05
1.54469e-05
1.48962e-05
1.44532e-05
1.39179e-05
1.34181e-05
1.28407e-05
1.22506e-05
1.17048e-05
1.11231e-05
1.04733e-05
9.93816e-06
9.23064e-06
8.70491e-06
8.135e-06
7.65054
10.9664
13.8508
15.4948
16.5061
16.2159
12.0236
4.94581
0.807793
0.0781003
0.151801
0.538484
0.799439
1.33903
1.97361
2.53966
2.98861
3.32838
3.58087
3.76067
3.86557
3.88017
3.78642
3.56847
3.21917
2.74114
2.152
1.47957
0.762522
0.0641048
0.598566
1.10962
1.41719
1.46145
1.2212
0.765445
0.301971
0.0558881
0.00159821
0.000798546
2.54255e-06
7.01111e-06
6.24496e-05
0.000110256
9.81793e-05
8.40932e-05
7.48198e-05
6.65985e-05
5.90034e-05
5.13261e-05
4.45159e-05
3.87114e-05
3.35467e-05
2.91747e-05
2.54125e-05
2.26276e-05
2.01927e-05
1.83333e-05
1.6919e-05
1.5861e-05
1.50242e-05
1.42697e-05
1.36986e-05
1.31006e-05
1.25628e-05
1.2001e-05
1.14282e-05
1.0921e-05
1.03835e-05
9.78022e-06
9.29875e-06
8.62792e-06
8.16801e-06
7.62981e-06
7.03999
9.33394
11.7081
13.3516
14.6892
15.8193
14.6756
9.1212
2.86643
0.345246
0.119714
0.463962
0.796374
1.23506
1.73385
2.23711
2.69689
3.09125
3.42115
3.69549
3.91427
4.0653
4.13036
4.08946
3.9272
3.63462
3.21488
2.67952
2.04954
1.35711
0.647535
0.062823
0.60824
1.01906
1.20348
1.12215
0.801928
0.390189
0.101937
0.00871855
8.53385e-06
3.22713e-05
3.063e-06
1.7565e-05
8.11806e-05
8.54672e-05
7.13116e-05
6.19497e-05
5.58077e-05
4.97556e-05
4.41846e-05
3.92652e-05
3.4711e-05
3.06212e-05
2.6946e-05
2.401e-05
2.13145e-05
1.91108e-05
1.73303e-05
1.59286e-05
1.4811e-05
1.3834e-05
1.31059e-05
1.24239e-05
1.18268e-05
1.12583e-05
1.06896e-05
1.02082e-05
9.70875e-06
9.14527e-06
8.71275e-06
8.07254e-06
7.67633e-06
7.16579e-06
5.46971
6.95266
8.75591
10.3247
11.838
13.5394
14.7666
12.4953
6.46893
1.54229
0.229491
0.381435
0.750867
1.097
1.43027
1.79711
2.19846
2.59708
2.96839
3.30719
3.61122
3.87136
4.07205
4.19343
4.21636
4.12448
3.90997
3.57126
3.11424
2.55426
1.91724
1.2384
0.564031
0.0746252
0.55288
0.864594
0.943069
0.778711
0.457278
0.160724
0.0271085
0.000613798
0.00047954
7.18975e-07
4.52487e-06
3.64666e-05
6.85156e-05
6.22038e-05
5.45374e-05
4.90289e-05
4.44709e-05
4.02738e-05
3.61913e-05
3.2277e-05
2.8641e-05
2.55261e-05
2.26159e-05
2.00861e-05
1.79727e-05
1.62285e-05
1.48206e-05
1.36069e-05
1.26954e-05
1.18988e-05
1.12189e-05
1.06224e-05
1.00427e-05
9.57105e-06
9.09861e-06
8.56627e-06
8.17787e-06
7.56322e-06
7.22791e-06
6.74008e-06
3.01254
3.8339
5.00147
6.32713
7.89501
9.85665
12.1058
13.0948
10.0039