/*--------------------------------*- C++ -*----------------------------------*\
| =========                 |                                                 |
| \\      /  F ield         | OpenFOAM: The Open Source CFD Toolbox           |
|  \\    /   O peration     | Version:  2312                                  |
|   \\  /    A nd           | Website:  www.openfoam.com                      |
|    \\/     M anipulation  |                                                 |
\*---------------------------------------------------------------------------*/
FoamFile
{
    version     2.0;
    format      ascii;
    arch        "LSB;label=32;scalar=64";
    class       volScalarField;
    location    "250";
    object      turbulenceProperties:I;
}
// * * * * * * * * * * * * * * * * * * * * * * * * * * * * * * * * * * * * * //

dimensions      [0 0 0 0 0 0 0];

internalField   nonuniform List<scalar> 
11040
(
0.0681273
0.126007
0.092607
0.242003
0.285894
0.28854
0.287598
0.287271
0.287574
0.289221
0.29034
0.292243
0.29503
0.299335
0.304453
0.30971
0.315034
0.319331
0.322502
0.322795
0.320785
0.317107
0.312201
0.306309
0.300403
0.294492
0.28843
0.281899
0.275194
0.269094
0.265056
0.262531
0.261647
0.262735
0.266136
0.271403
0.279172
0.28676
0.284685
0.373036
0.660911
0.0180755
0.0351621
0.150452
0.618443
0.264567
0.108385
0.060086
0.0591519
0.07658
0.0907654
0.100669
0.109531
0.118005
0.126943
0.136365
0.145226
0.153429
0.159551
0.163341
0.162417
0.15754
0.149783
0.139981
0.12926
0.118699
0.108715
0.0987568
0.0884023
0.0777685
0.0669123
0.0583283
0.0506123
0.0438981
0.040076
0.0434586
0.053896
0.0734272
0.107496
0.175021
0.348986
1
0.0144366
0.00833897
0.0303437
0.197374
1
0.438454
0.211407
0.138382
0.0951719
0.0555749
0.0306609
0.0647146
0.0846777
0.0978082
0.107742
0.114832
0.1201
0.123598
0.123914
0.120016
0.11202
0.1014
0.0892287
0.0765871
0.0655259
0.0563647
0.0487067
0.0436337
0.0417163
0.0408434
0.0383839
0.0330747
0.0305571
0.0431684
0.0624067
0.0865602
0.120096
0.174435
0.28077
0.537834
1
0.012763
0.0116015
0.00421098
0.0374001
0.194823
1
0.710548
0.34035
0.224738
0.168506
0.13601
0.113933
0.0916485
0.078517
0.0746972
0.0773474
0.0826079
0.0863513
0.0874969
0.0858191
0.0816747
0.0769122
0.0733894
0.0715243
0.0709938
0.071163
0.0712016
0.0705498
0.0685059
0.0648444
0.0591227
0.0509638
0.0418812
0.0500282
0.0751423
0.107013
0.149945
0.216349
0.337909
0.583098
0.86238
0.0117024
0.0109753
0.00832432
0.00348313
0.0382651
0.168831
0.915151
1
0.557319
0.34617
0.252587
0.216453
0.187745
0.170265
0.157515
0.147303
0.139734
0.133804
0.129375
0.126084
0.12251
0.118363
0.114115
0.109965
0.105869
0.101968
0.098214
0.0943899
0.0896886
0.0838244
0.0757063
0.0641214
0.0466639
0.0531249
0.0881171
0.127513
0.177482
0.250086
0.371651
0.575
0.74587
0.0105293
0.00933817
0.00938204
0.00544522
0.0019904
0.0326689
0.132756
0.499364
1
0.987912
0.526042
0.380776
0.308019
0.270946
0.249187
0.232382
0.22024
0.209502
0.200067
0.191341
0.182192
0.172423
0.162588
0.152952
0.143611
0.135025
0.127636
0.121159
0.11434
0.106496
0.0961085
0.0813449
0.0560129
0.0485427
0.0972244
0.143531
0.197969
0.271373
0.381993
0.537783
0.654316
0.00941042
0.00837016
0.00801971
0.00789372
0.0034984
0.000436588
0.0229239
0.0960752
0.307473
1
1
0.890333
0.567012
0.435599
0.377956
0.340344
0.316726
0.297133
0.281103
0.265734
0.249536
0.232667
0.216649
0.201886
0.188304
0.175882
0.164783
0.155149
0.145847
0.135735
0.123174
0.106103
0.0787937
0.023151
0.0992243
0.152398
0.208952
0.278636
0.372296
0.486265
0.574669
0.00826218
0.00762317
0.00705104
0.00695275
0.0069462
0.00118847
0.00301567
0.0137337
0.0641194
0.192947
0.571489
1
1
0.908234
0.634406
0.511965
0.454343
0.413649
0.383577
0.356381
0.33025
0.304721
0.281466
0.260977
0.243
0.227183
0.213086
0.200129
0.187331
0.174308
0.159369
0.14043
0.11333
0.0662118
0.0879364
0.15042
0.208087
0.271151
0.345986
0.426839
0.497425
0.00724627
0.0067725
0.00642984
0.00602302
0.00622415
0.00553563
0.00187303
0.00230194
0.00418246
0.0375348
0.116774
0.304906
0.89093
1
1
1
0.733323
0.608932
0.541432
0.489777
0.44502
0.4043
0.369047
0.33915
0.313917
0.29258
0.274303
0.257969
0.242295
0.226154
0.20819
0.186908
0.15961
0.12041
0.0705892
0.131811
0.192384
0.24857
0.305571
0.36056
0.413846
0.00632579
0.00597923
0.00573913
0.00550425
0.00525903
0.00538701
0.00477991
0.00231689
0.00125531
0.000875652
0.0186785
0.066057
0.171403
0.409849
1
1
1
1
0.866194
0.723904
0.63246
0.55938
0.499788
0.451334
0.412208
0.38056
0.354664
0.332673
0.312682
0.293158
0.272626
0.249585
0.221893
0.185984
0.136709
0.0995613
0.156433
0.209234
0.2526
0.287574
0.322796
0.00550303
0.00524934
0.00507154
0.00493329
0.00476115
0.00462119
0.00461017
0.00436554
0.00253797
0.000820785
0.00280466
0.00458971
0.0320838
0.0928247
0.215941
0.47835
1
1
1
1
0.990359
0.820293
0.708897
0.623727
0.557286
0.505592
0.465372
0.433255
0.405794
0.38076
0.356014
0.329985
0.300666
0.265783
0.22231
0.168837
0.118435
0.142778
0.180521
0.204503
0.224779
0.0047738
0.00458594
0.00445925
0.00436207
0.0042714
0.00416121
0.00404635
0.00402555
0.00394313
0.00286376
0.000755327
0.000682355
0.00446645
0.01215
0.0447783
0.112385
0.24008
0.490654
1
1
1
1
1
0.854605
0.757213
0.681635
0.62269
0.576001
0.537898
0.504908
0.47465
0.444637
0.412769
0.376531
0.333736
0.283506
0.22795
0.170323
0.114737
0.0702259
0.0925102
0.00413105
0.00399259
0.00390015
0.00383543
0.0037795
0.00372275
0.00365198
0.00356513
0.00353634
0.00351764
0.00303328
0.000748024
0.000282639
0.00225024
0.00222526
0.0172543
0.0522549
0.120091
0.239741
0.452776
0.835722
1
1
1
0.910517
0.819508
0.76875
0.733427
0.703337
0.676234
0.651083
0.626547
0.600174
0.568701
0.528258
0.475969
0.413597
0.347221
0.285653
0.233718
0.192054
0.00356741
0.00346584
0.00339837
0.00335549
0.00332323
0.00329321
0.00326128
0.00321726
0.0031604
0.00312269
0.00315803
0.00294249
0.00164868
0.000510766
0.000432278
0.00360499
0.00420836
0.0191184
0.0528049
0.115048
0.218158
0.376993
0.598271
0.830096
0.93483
0.898046
0.828572
0.782285
0.764291
0.768107
0.786967
0.818635
0.861999
0.916943
0.977456
1
0.979745
0.841007
0.66485
0.517577
0.407981
0.00307458
0.00300075
0.00295203
0.00292411
0.00290751
0.00289544
0.00288354
0.00286911
0.0028468
0.00281172
0.00277969
0.00281586
0.002697
0.00232327
0.000510649
0.000268654
0.000774824
0.0041603
0.0044087
0.0173725
0.0466032
0.0959043
0.16603
0.258882
0.373178
0.498447
0.608759
0.679098
0.712184
0.728991
0.748258
0.780885
0.836223
0.926796
1
1
1
1
1
1
0.854063
0.00264493
0.00259176
0.00255707
0.00253955
0.00253285
0.00253193
0.00253336
0.00253425
0.00253254
0.00252607
0.00250804
0.00249531
0.00249106
0.00250898
0.00231519
0.0017893
0.000507091
0.000133299
0.000847806
0.00413716
0.00344241
0.011954
0.0298874
0.0584893
0.0964751
0.142455
0.194049
0.24828
0.301903
0.351523
0.394315
0.428887
0.455425
0.474872
0.487581
0.493022
0.490596
0.480255
0.458962
0.431922
0.412285
0.00227414
0.00223615
0.00221205
0.00220189
0.00220136
0.00220689
0.00221569
0.00222561
0.00223497
0.00224244
0.00224635
0.00224455
0.00223885
0.00223896
0.00225812
0.00225029
0.0020256
0.00132783
0.000417437
0.000118034
0.000557443
0.00303821
0.00598446
0.00402072
0.010164
0.0211473
0.0360572
0.0535682
0.0722059
0.0905382
0.107323
0.121578
0.132624
0.140187
0.144177
0.144909
0.143209
0.140645
0.138641
0.138169
0.139537
0.00196575
0.00193871
0.00192262
0.00191786
0.00192146
0.00193075
0.00194365
0.00195834
0.00197353
0.00198831
0.00200157
0.00201244
0.00202049
0.00202355
0.00202925
0.00204483
0.00208447
0.00204798
0.0018422
0.00116199
0.000375084
0.000126366
0
0.000628029
0.00304186
0.00580914
0.00116582
0.00564092
0.00779727
0.00964418
0.0100484
0.00853164
0.0037887
0.0112718
0.0175217
0.0231498
0.0281704
0.0324045
0.0356547
0.0380021
0.039052
0.00171632
0.00169703
0.00168665
0.00168558
0.00169174
0.00170318
0.00171827
0.00173562
0.00175416
0.0017729
0.00179102
0.00180786
0.00182329
0.00183661
0.0018476
0.00185671
0.00187317
0.001902
0.00193426
0.00190377
0.00168455
0.00126069
0.000378553
0.000133293
8.99814e-05
7.75921e-06
0.000108811
0.000991958
0.00235922
0.0043373
0.00589614
0.00709881
0.00814448
0.00138851
0.00616332
0.00581253
0.00551403
0.00639427
0.00587104
0.00554316
0.0058814
0.00151346
0.00149954
0.00149304
0.00149428
0.00150177
0.00151409
0.00152991
0.00154815
0.00156792
0.00158837
0.00160904
0.00162911
0.00164827
0.00166638
0.0016833
0.00169862
0.00171272
0.00172847
0.00175134
0.0017859
0.00181679
0.00181964
0.0016653
0.00140098
0.000966063
8.59569e-05
0.000142816
0.000108876
8.69684e-05
6.14e-05
3.40204e-05
7.13877e-06
0
9.61966e-05
0.000596922
0.000513325
0.000443891
0.000538696
0.000435856
0.000374323
0.000385598
0.00134458
0.00133445
0.00133068
0.00133337
0.00134153
0.00135404
0.00136986
0.00138803
0.00140776
0.00142861
0.00144988
0.00147113
0.0014919
0.00151204
0.00153142
0.00155006
0.00156781
0.00158478
0.00160177
0.00162096
0.00164863
0.00168677
0.00173409
0.00174906
0.00172139
0.00162398
0.0014636
0.00127064
0.00103538
0.000747567
0.000423992
9.10751e-05
0.000132324
0.00010987
0.000104936
0.000100914
9.75444e-05
9.57165e-05
9.38018e-05
9.25866e-05
9.13921e-05
0.00120184
0.00119442
0.00119263
0.00119627
0.00120466
0.00121699
0.00123235
0.00124994
0.0012691
0.00128941
0.00131025
0.00133145
0.00135248
0.00137305
0.0013931
0.00141257
0.00143149
0.00144986
0.00146786
0.00148543
0.00150404
0.00152583
0.00155462
0.00158785
0.00162273
0.00165711
0.00167869
0.00168679
0.00167913
0.00165623
0.00162085
0.00157692
0.00152881
0.00147876
0.00143709
0.00140752
0.00138746
0.00137661
0.00137575
0.00137959
0.00139094
0.00107951
0.00107413
0.00107375
0.00107797
0.00108632
0.00109823
0.0011129
0.00112962
0.00114783
0.00116705
0.00118703
0.00120745
0.0012279
0.00124801
0.00126769
0.00128684
0.0013055
0.0013236
0.0013413
0.00135853
0.001376
0.00139399
0.0014122
0.0014312
0.00145181
0.00147444
0.00149884
0.00152401
0.0015486
0.00157151
0.00159205
0.00160993
0.00162504
0.00163738
0.00164577
0.00165191
0.00165631
0.00165875
0.00166051
0.00165829
0.00166316
0.000973596
0.000969725
0.000970365
0.000974939
0.000983116
0.000994472
0.00100833
0.00102404
0.00104112
0.00105912
0.00107788
0.001097
0.00111637
0.00113549
0.00115419
0.00117239
0.00119008
0.00120716
0.00122368
0.00123958
0.00125552
0.00127176
0.00128744
0.00130228
0.00131648
0.00133028
0.00134382
0.00135719
0.00137042
0.00138332
0.00139565
0.00140706
0.00141732
0.00142618
0.00143347
0.00143896
0.00144253
0.00144382
0.00144379
0.00143892
0.00144214
0.00088103
0.00087835
0.000879757
0.000884525
0.000892438
0.000903195
0.000916186
0.000930846
0.000946721
0.000963456
0.00098075
0.000998468
0.00101652
0.00103439
0.00105181
0.00106871
0.00108504
0.00110075
0.00111577
0.00113001
0.001144
0.00115811
0.00117155
0.00118397
0.00119546
0.00120603
0.0012157
0.0012244
0.00123218
0.00123894
0.00124472
0.0012494
0.00125297
0.00125529
0.00125643
0.00125631
0.00125491
0.00125188
0.0012483
0.00124022
0.00124271
0.000799571
0.000797784
0.00079978
0.000804658
0.00081227
0.000822406
0.000834542
0.000848155
0.000862841
0.000878285
0.000894162
0.000910483
0.000927031
0.000943491
0.000959517
0.000974993
0.000989845
0.00100403
0.00101745
0.00102998
0.00104208
0.00105409
0.00106535
0.00107554
0.00108471
0.00109292
0.00110017
0.00110641
0.00111164
0.00111584
0.00111898
0.00112107
0.00112205
0.0011219
0.0011207
0.00111851
0.00111526
0.00111066
0.00110597
0.00109673
0.00110069
0.000727355
0.000726371
0.000728801
0.000733691
0.00074099
0.000750533
0.000761847
0.000774457
0.000788001
0.000802194
0.000816745
0.00083163
0.000846652
0.00086169
0.000876335
0.00089039
0.000903791
0.000916472
0.000928363
0.000939294
0.000949689
0.000959894
0.000969312
0.000977663
0.000984985
0.00099136
0.000996791
0.00100129
0.00100482
0.00100742
0.00100909
0.00100987
0.00100968
0.00100856
0.0010066
0.00100389
0.00100034
0.000995707
0.000991424
0.000982352
0.00098924
0.000663069
0.000662691
0.000665458
0.000670356
0.000677355
0.000686339
0.000696884
0.000708554
0.00072103
0.00073405
0.00074737
0.000760851
0.000774459
0.00078813
0.000801434
0.00081414
0.000826166
0.000837451
0.00084793
0.000857433
0.000866346
0.000875044
0.000882966
0.000889891
0.000895829
0.000900893
0.000905068
0.000908397
0.000910868
0.000912547
0.000913422
0.000913556
0.000912917
0.00091156
0.00090958
0.000907078
0.000903984
0.0009
0.000896792
0.000888415
0.000898845
0.00060552
0.000605716
0.000608727
0.000613599
0.000620322
0.000628789
0.00063862
0.000649427
0.000660915
0.000672854
0.000685026
0.000697252
0.000709592
0.000721935
0.000733963
0.000745422
0.000756196
0.000766227
0.000775457
0.000783725
0.000791397
0.000798855
0.000805597
0.000811423
0.000816362
0.000820503
0.000823879
0.000826517
0.000828452
0.000829709
0.000830336
0.000830381
0.000829851
0.000828774
0.000827278
0.000825442
0.000823204
0.00082023
0.000818375
0.000810945
0.000824984
0.000553829
0.000554475
0.00055772
0.000562565
0.000569015
0.000577016
0.000586207
0.000596232
0.000606826
0.000617781
0.000628905
0.000640028
0.000651193
0.000662296
0.000673165
0.00068351
0.000693179
0.000702117
0.000710284
0.000717521
0.000724194
0.000730673
0.000736516
0.000741537
0.000745801
0.000749371
0.000752299
0.000754606
0.000756353
0.000757561
0.000758288
0.000758583
0.000758453
0.000757922
0.000757114
0.00075611
0.000754836
0.000752941
0.000752409
0.000745894
0.000763209
0.000507187
0.00050827
0.00051168
0.000516499
0.000522735
0.000530325
0.000538946
0.000548269
0.000558062
0.000568136
0.000578326
0.000588474
0.00059857
0.000608565
0.000618403
0.000627756
0.00063647
0.00064447
0.000651741
0.000658128
0.000664014
0.000669738
0.000674922
0.000679387
0.000683205
0.000686445
0.000689175
0.000691404
0.000693188
0.000694563
0.000695579
0.000696282
0.00069667
0.000696776
0.000696708
0.000696551
0.000696207
0.000695325
0.000695962
0.000690261
0.000710336
0.000464954
0.000466421
0.000470024
0.000474825
0.000480867
0.000488103
0.000496215
0.000504913
0.000513991
0.000523282
0.000532639
0.000541929
0.00055108
0.000560118
0.000569039
0.00057752
0.000585406
0.000592619
0.000599152
0.000604869
0.000610143
0.000615311
0.000620016
0.000624121
0.000627677
0.000630763
0.000633438
0.000635737
0.000637685
0.000639329
0.000640707
0.000641879
0.000642816
0.000643564
0.000644209
0.000644839
0.000645331
0.000645343
0.000646958
0.000641954
0.000664151
0.000426634
0.000428472
0.000432203
0.000437011
0.00044289
0.000449793
0.000457459
0.000465616
0.00047407
0.000482674
0.000491295
0.000499825
0.000508168
0.000516397
0.000524481
0.000532198
0.000539374
0.000545928
0.000551855
0.000557045
0.000561844
0.0005666
0.000570963
0.000574828
0.000578244
0.000581299
0.000584023
0.000586462
0.00058864
0.000590604
0.000592374
0.000594006
0.000595465
0.000596791
0.000598051
0.000599323
0.000600482
0.000601188
0.000603519
0.00059905
0.000622662
0.00039174
0.00039392
0.00039781
0.000402601
0.000408327
0.000414957
0.000422244
0.000429935
0.000437852
0.000445862
0.000453843
0.000461708
0.000469362
0.00047688
0.000484229
0.00049129
0.000497863
0.000503876
0.000509306
0.000514086
0.000518526
0.000522969
0.000527084
0.000530792
0.000534126
0.000537185
0.000539995
0.000542585
0.000544982
0.000547228
0.000549338
0.000551348
0.000553229
0.000555009
0.000556747
0.000558499
0.000560153
0.000561369
0.000564185
0.000560148
0.000584501
0.000359924
0.000362422
0.000366418
0.000371222
0.000376834
0.000383236
0.000390198
0.000397487
0.000404938
0.000412432
0.000419865
0.000427154
0.000434221
0.000441106
0.000447825
0.000454317
0.000460382
0.00046594
0.000470973
0.000475427
0.000479609
0.000483815
0.000487766
0.00049138
0.000494699
0.000497795
0.000500708
0.000503455
0.00050606
0.000508548
0.000510939
0.000513259
0.00051548
0.00051761
0.000519707
0.000521809
0.000523819
0.000525393
0.000528485
0.000524825
0.000549221
0.000330832
0.00033363
0.000337744
0.000342555
0.000348087
0.000354293
0.000360978
0.000367917
0.000374963
0.000382011
0.000388967
0.000395763
0.000402333
0.00040868
0.000414846
0.00042084
0.000426455
0.000431614
0.000436306
0.000440475
0.000444411
0.000448388
0.000452167
0.000455669
0.000458942
0.000462045
0.00046501
0.000467858
0.000470605
0.000473268
0.000475854
0.000478379
0.000480813
0.000483161
0.000485465
0.000487753
0.000489933
0.000491688
0.000494835
0.000491448
0.000515219
0.000304224
0.00030728
0.000311482
0.000316322
0.000321781
0.000327823
0.000334264
0.000340904
0.000347603
0.000354262
0.000360807
0.000367172
0.000373313
0.000379203
0.000384915
0.000390474
0.000395712
0.000400538
0.000404948
0.000408902
0.000412666
0.000416474
0.000420137
0.00042357
0.000426816
0.000429936
0.00043296
0.000435887
0.000438732
0.000441496
0.000444194
0.000446819
0.000449355
0.000451792
0.000454172
0.000456499
0.000458706
0.000460489
0.000463503
0.000460371
0.000482728
0.000279826
0.000283124
0.000287407
0.000292255
0.000297651
0.000303545
0.00030977
0.000316155
0.000322558
0.000328884
0.000335065
0.000341052
0.000346813
0.000352307
0.00035763
0.000362792
0.000367669
0.00037218
0.000376327
0.000380072
0.000383659
0.000387287
0.000390798
0.000394118
0.000397286
0.000400347
0.000403327
0.000406223
0.000409047
0.000411793
0.00041447
0.000417072
0.000419582
0.000421982
0.0004243
0.00042654
0.000428637
0.000430328
0.00043305
0.00043017
0.000450486
0.000257452
0.000260938
0.000265279
0.000270155
0.000275486
0.000281227
0.000287249
0.000293389
0.000299521
0.000305558
0.00031143
0.000317094
0.000322521
0.000327686
0.000332678
0.000337522
0.000342122
0.000346396
0.000350336
0.000353927
0.000357369
0.000360843
0.00036422
0.000367432
0.000370503
0.000373482
0.000376387
0.000379217
0.00038197
0.000384648
0.000387247
0.000389765
0.00039217
0.000394455
0.00039663
0.000398705
0.00040061
0.000402139
0.000404483
0.000401891
0.000419422
0.000236869
0.000240508
0.000244901
0.000249781
0.000255073
0.000260693
0.000266502
0.000272385
0.000278227
0.000283965
0.00028955
0.000294936
0.00030008
0.000304946
0.000309593
0.000314075
0.000318356
0.000322362
0.000326074
0.000329482
0.000332745
0.000336004
0.000339176
0.000342197
0.000345083
0.000347872
0.00035058
0.000353206
0.000355745
0.000358193
0.000360547
0.0003628
0.00036492
0.000366896
0.000368733
0.000370431
0.000371933
0.000373073
0.000374794
0.000372308
0.000386286
0.000217975
0.000221693
0.000226075
0.000230931
0.000236128
0.000241613
0.000247258
0.000252933
0.000258522
0.000263954
0.000269211
0.000274291
0.000279186
0.000283865
0.000288337
0.0002926
0.000296615
0.000300337
0.000303776
0.000306952
0.000309998
0.000313035
0.000316006
0.000318853
0.000321583
0.000324223
0.000326777
0.000329242
0.000331607
0.000333871
0.000336017
0.000338041
0.00033991
0.000341617
0.00034315
0.00034451
0.000345641
0.00034644
0.000347553
0.000345357
0.000355247
0.000200663
0.000204433
0.000208766
0.000213464
0.00021844
0.00022364
0.000229032
0.000234514
0.000239975
0.00024528
0.000250339
0.000255104
0.000259601
0.000263888
0.000268068
0.000272196
0.000276207
0.000279963
0.000283402
0.000286523
0.000289416
0.000292179
0.00029481
0.000297273
0.000299579
0.000301767
0.00030384
0.000305802
0.000307638
0.00030935
0.000310916
0.00031233
0.000313559
0.000314597
0.000315423
0.000316025
0.00031637
0.000316385
0.000316462
0.000314121
0.000318502
0.000184771
0.000188504
0.000192768
0.000197329
0.00020201
0.0002068
0.000211702
0.000216712
0.000221811
0.000226954
0.000232057
0.000236974
0.000241543
0.000245626
0.00024921
0.000252431
0.000255496
0.000258467
0.000261355
0.000264128
0.0002668
0.000269419
0.000271958
0.000274358
0.000276609
0.000278723
0.000280701
0.000282535
0.000284215
0.000285726
0.000287055
0.000288189
0.000289107
0.000289791
0.000290224
0.000290391
0.000290267
0.000289835
0.00028917
0.000287137
0.000286754
0.000170041
0.000173536
0.000177557
0.000181919
0.000186472
0.000191143
0.000195832
0.000200419
0.000204852
0.000209154
0.00021344
0.000217867
0.000222558
0.000227527
0.00023266
0.000237612
0.000241971
0.000245642
0.00024871
0.000251314
0.000253553
0.000255481
0.0002572
0.00025869
0.000259975
0.00026108
0.000262016
0.000262781
0.000263368
0.000263761
0.000263947
0.000263905
0.000263615
0.000263052
0.000262199
0.000261024
0.000259532
0.000257691
0.000255452
0.000252643
0.000244224
0.000156666
0.000159702
0.000162991
0.000166541
0.000170422
0.000174812
0.000179701
0.000184903
0.000190083
0.00019485
0.000198854
0.000201882
0.000203932
0.000205213
0.000206113
0.000207425
0.000209736
0.000212664
0.000215816
0.000218931
0.000221895
0.000224695
0.000227279
0.000229588
0.000231597
0.0002333
0.0002347
0.000235786
0.000236552
0.000236987
0.000237083
0.000236821
0.00023619
0.000235171
0.000233746
0.000231897
0.000229599
0.000227002
0.000223486
0.0002209
0.000208266
0.000145051
0.00014806
0.00015079
0.000153156
0.000155309
0.000157591
0.000160343
0.000163873
0.000168471
0.000174308
0.000181366
0.000189376
0.000197879
0.00020631
0.000214223
0.000220453
0.000224301
0.000226843
0.000228583
0.000229794
0.000230524
0.000230852
0.000230905
0.000230705
0.00023026
0.000229587
0.000228678
0.000227535
0.00022614
0.000224483
0.000222541
0.000220304
0.000217756
0.000214899
0.000211749
0.000208319
0.000204754
0.00020099
0.000197735
0.000193055
0.000188895
0.000135243
0.000138668
0.000141903
0.00014461
0.000146515
0.000147593
0.000147958
0.000147847
0.000147639
0.000147733
0.00014845
0.000149912
0.000151973
0.000154272
0.00015621
0.000158927
0.00016294
0.000167463
0.000172146
0.000176674
0.000180926
0.000184832
0.000188339
0.000191417
0.000194002
0.000196066
0.000197578
0.000198514
0.000198829
0.000198491
0.000197446
0.000195647
0.00019303
0.000189529
0.000185032
0.00017947
0.000172569
0.000164824
0.000153522
0.000147921
0.000112084
0.000127574
0.000127892
0.000129654
0.000136121
0.000147848
0.000162578
0.000177743
0.000191753
0.000203844
0.000213738
0.000221423
0.000227033
0.000230806
0.000232986
0.000234045
0.000232972
0.000230587
0.000228215
0.000226179
0.000224492
0.000223017
0.000222267
0.000221763
0.000221461
0.000221262
0.00022107
0.000220824
0.000220457
0.000219938
0.000219231
0.000218343
0.0002173
0.000216189
0.000215129
0.000214376
0.000214193
0.000215151
0.000216957
0.000223137
0.000220867
0.000261513
0.542034
0.399248
0.303956
0.191747
0.0630608
0.024881
0.00687355
0.000677065
0.0036493
0.00133693
0.0189174
0.109046
0.136411
0.0853195
0.115137
0.164181
0.188633
0.200945
0.207383
0.210805
0.212619
0.213087
0.211859
0.208028
0.200036
0.185629
0.161468
0.123832
0.0723196
0.0219433
0.00391376
5.05069e-05
0.000643167
0.00170436
0.00170479
0.00151797
0.00146672
0.0015125
0.00156592
0.00158824
0.00158096
0.0015573
0.00152359
0.00147824
0.00142145
0.00135214
0.00126864
0.00117628
0.00107685
0.000970683
0.000862254
0.000753924
0.000648567
0.000551037
0.000469122
0.000407668
0.000398927
0.000411578
0.000433296
0.000452325
0.000464353
0.000473287
0.000475428
0.000474074
0.000471331
0.000463194
0.000457303
0.000446838
0.000437149
0.000425421
0.000415075
0.000402091
0.000389605
0.000379409
0.988868
0.612048
0.433522
0.28922
0.142352
0.0211784
0.0135006
0.000757094
0.000305351
0.00440988
0.0403188
0.116567
0.121559
0.0871491
0.120219
0.145893
0.158224
0.164402
0.168798
0.172961
0.177581
0.182434
0.186932
0.190204
0.190993
0.187656
0.177664
0.157465
0.122819
0.0724728
0.0221817
0.00441448
0.000133378
0.000478514
0.00168026
0.00170337
0.00149982
0.00144465
0.00148413
0.00152201
0.00152658
0.00150554
0.00147076
0.00142241
0.00136386
0.00129458
0.00121075
0.0011196
0.00102441
0.000922466
0.000819071
0.000717945
0.000619963
0.000531964
0.000459108
0.000408169
0.000401786
0.000411396
0.000429166
0.000445194
0.00045488
0.000462642
0.00046412
0.000461845
0.000459287
0.000450972
0.00044527
0.000435269
0.000425728
0.000414108
0.000404374
0.000391485
0.000379412
0.00036923
1
0.906925
0.600873
0.405791
0.235754
0.0785013
0.028647
0.0100348
7.28985e-05
0.0077076
0.0524889
0.111347
0.102143
0.103143
0.127706
0.134734
0.13158
0.125107
0.120551
0.120688
0.126295
0.135639
0.146505
0.157169
0.166236
0.172443
0.174065
0.168676
0.152779
0.121693
0.0738877
0.0247384
0.0056292
9.97265e-05
0.000145255
0.00150875
0.00168358
0.0014716
0.00139728
0.00142532
0.00144917
0.00143917
0.00140579
0.00135637
0.00129633
0.00122823
0.0011465
0.00105837
0.000969031
0.00087396
0.000778527
0.000687579
0.000600732
0.000525538
0.000464422
0.000424935
0.000415988
0.000418857
0.000430007
0.000440183
0.000447289
0.000451146
0.000451964
0.00044902
0.000445526
0.000437973
0.000430986
0.000422009
0.000412626
0.000401495
0.000391777
0.000379457
0.000367803
0.000357748
1
1
0.84948
0.556407
0.34618
0.164706
0.0360178
0.0178754
0.00241326
0.0101084
0.0577912
0.105933
0.0951396
0.120748
0.146152
0.151766
0.146063
0.134686
0.120411
0.104139
0.0880747
0.0814703
0.0932698
0.112125
0.130068
0.145109
0.156185
0.162023
0.160598
0.148536
0.121192
0.0769899
0.0291485
0.00755988
0.00094521
0.000332364
0.00116804
0.0016393
0.001474
0.00135026
0.00134844
0.00135781
0.00133628
0.00128946
0.0012293
0.00116258
0.00108416
0.00100065
0.000917645
0.000830038
0.000743874
0.000663373
0.000587836
0.000523982
0.000472022
0.000439862
0.00042731
0.000424514
0.00042946
0.00043448
0.000438652
0.000439343
0.0004392
0.000435749
0.000431433
0.000424401
0.00041668
0.000408453
0.000399381
0.000388769
0.000379215
0.000367346
0.000356275
0.000346399
1
1
1
0.781229
0.48845
0.270471
0.0974416
0.0347036
0.00368806
0.0118643
0.0584526
0.100621
0.0966126
0.133592
0.162473
0.172629
0.171681
0.1651
0.155469
0.143369
0.128407
0.1094
0.0844839
0.054691
0.0720554
0.101481
0.123684
0.139795
0.149728
0.152069
0.143821
0.120848
0.0814053
0.0352566
0.00414339
0.00278624
0.000237129
0.000298728
0.00135462
0.00144915
0.00131027
0.00126445
0.00125304
0.00121905
0.00116395
0.00109971
0.00102523
0.000947449
0.000871299
0.000791549
0.000714823
0.000644219
0.000578791
0.000523853
0.000478242
0.000450246
0.000433997
0.000426939
0.000426293
0.000427422
0.0004283
0.000427154
0.000425844
0.000421846
0.000417191
0.000410252
0.000402598
0.000394857
0.000386212
0.000376065
0.000366974
0.000355386
0.000345037
0.000335393
1
1
1
1
0.700614
0.406708
0.193244
0.0569743
0.0245957
0.014328
0.0559319
0.0954056
0.101605
0.14219
0.174205
0.189158
0.193019
0.190869
0.185438
0.177675
0.16758
0.154633
0.13814
0.116961
0.0887204
0.0446377
0.0659003
0.0997125
0.121913
0.136201
0.142298
0.138066
0.120033
0.0861573
0.0429868
0.0100619
0.00445881
5.89827e-05
0.00031497
0.000999075
0.00134113
0.00125449
0.00117311
0.00113636
0.00109485
0.0010389
0.000970157
0.000899018
0.000830638
0.000759557
0.000692367
0.000631339
0.000574932
0.000527223
0.000486423
0.000460093
0.000440534
0.000429274
0.00042344
0.000420718
0.000418377
0.000415394
0.000412777
0.000408057
0.000403144
0.000396252
0.00038884
0.000381504
0.000373276
0.00036356
0.000355067
0.00034372
0.000334153
0.000324761
0.938483
1
1
1
1
0.609153
0.32124
0.130234
0.0447646
0.00265177
0.051028
0.0906741
0.106561
0.146239
0.179803
0.198899
0.207164
0.208944
0.207038
0.202702
0.196202
0.187281
0.17558
0.160647
0.141916
0.118333
0.0873793
0.0359569
0.0689641
0.100871
0.120383
0.130607
0.130679
0.117997
0.090283
0.0514154
0.0175514
0.00652195
0.00119233
0.000216813
0.000539124
0.0011705
0.00120095
0.00108862
0.00102385
0.000976335
0.000918259
0.000855836
0.000796233
0.000734567
0.000676928
0.000625026
0.000576678
0.000534836
0.000497786
0.000471622
0.000449326
0.000433742
0.000423053
0.000416023
0.000410473
0.000405034
0.000400845
0.000395182
0.000389753
0.000382943
0.000375607
0.000368639
0.000360778
0.000351469
0.000343575
0.000332468
0.000323729
0.000314574
0.690363
1
1
1
1
1
0.511706
0.245633
0.0901516
0.0288296
0.0430518
0.0860558
0.109576
0.145907
0.178738
0.200876
0.213289
0.21901
0.22062
0.219593
0.21642
0.21101
0.203114
0.192442
0.178749
0.161733
0.140975
0.115462
0.0822784
0.0238183
0.0731429
0.100797
0.116128
0.120976
0.113875
0.0927559
0.0594786
0.0257545
0.00432236
0.00301265
0.000167726
0.000275445
0.000814312
0.00107291
0.00100513
0.000924829
0.000868502
0.000817045
0.000768057
0.000716329
0.000667909
0.000624266
0.000582935
0.000545657
0.000511409
0.000484818
0.000460232
0.000440719
0.00042552
0.000414075
0.000405023
0.000396659
0.000390495
0.000383672
0.000377404
0.000370493
0.000363064
0.000356366
0.000348853
0.000339908
0.000332597
0.000321678
0.000313816
0.000304868
0.522531
0.690412
0.986154
1
1
1
0.885144
0.422378
0.187899
0.062031
0.0381302
0.0796842
0.10976
0.14183
0.171252
0.194493
0.210487
0.220321
0.225813
0.228413
0.228786
0.226983
0.222817
0.216039
0.206473
0.193992
0.178538
0.159938
0.137739
0.110849
0.0761203
0.0237118
0.0742761
0.0974497
0.108019
0.106879
0.0926837
0.066021
0.0340895
0.00993781
0.00030726
0.000589784
0.000179745
0.000426718
0.000910919
0.000929443
0.000845458
0.000785957
0.000745236
0.000703875
0.000664306
0.000627857
0.000592329
0.000558574
0.000526326
0.000499244
0.000472779
0.000449985
0.000430742
0.000415086
0.000402306
0.000390753
0.000382173
0.000373867
0.000366429
0.000359098
0.000351392
0.000344797
0.000337583
0.000328937
0.000322186
0.000311383
0.000304438
0.000295656
0.383032
0.463794
0.59128
0.794025
1
1
1
0.767928
0.350987
0.142853
0.0537626
0.0722727
0.106846
0.134999
0.158638
0.17964
0.19759
0.211383
0.221242
0.228077
0.232544
0.234802
0.234723
0.232069
0.226659
0.218388
0.207286
0.193386
0.176665
0.156979
0.133936
0.106493
0.0714814
0.0260161
0.0713081
0.0903575
0.0961291
0.0892353
0.0697534
0.0418825
0.0172241
0.00257066
0.0022463
8.61023e-05
0.000214363
0.000605185
0.000826295
0.00078547
0.000734933
0.000697238
0.000665243
0.000634901
0.000604078
0.00057292
0.000542237
0.000514509
0.000486857
0.000461274
0.000438673
0.000419051
0.000402556
0.000387686
0.000376322
0.00036608
0.000357102
0.000349034
0.000340823
0.000334096
0.000327035
0.000318581
0.000312362
0.000301614
0.000295611
0.00028693
0.252232
0.292862
0.354938
0.445036
0.603124
0.982108
1
1
0.675443
0.29481
0.119066
0.0797755
0.103131
0.127041
0.143375
0.157819
0.17403
0.190369
0.204691
0.216442
0.225785
0.232831
0.23749
0.239544
0.238789
0.235077
0.228426
0.218913
0.206646
0.191737
0.174246
0.154068
0.130829
0.103587
0.0696258
0.0198398
0.064521
0.0801534
0.081449