/*--------------------------------*- C++ -*----------------------------------*\
| =========                 |                                                 |
| \\      /  F ield         | OpenFOAM: The Open Source CFD Toolbox           |
|  \\    /   O peration     | Version:  2312                                  |
|   \\  /    A nd           | Website:  www.openfoam.com                      |
|    \\/     M anipulation  |                                                 |
\*---------------------------------------------------------------------------*/
FoamFile
{
    version     2.0;
    format      ascii;
    arch        "LSB;label=32;scalar=64";
    class       volScalarField;
    location    "250";
    object      turbulenceProperties:nuEff;
}
// * * * * * * * * * * * * * * * * * * * * * * * * * * * * * * * * * * * * * //

dimensions      [0 2 -1 0 0 0 0];

internalField   nonuniform List<scalar> 
11040
(
6.65255e-05
5.64788e-05
5.6859e-05
0.000232317
0.000240077
0.000214317
0.000197729
0.000185959
0.0001777
0.000172512
0.000167458
0.000164744
0.000164068
0.000166311
0.00017067
0.000176919
0.000185078
0.000195929
0.00020906
0.000225416
0.000244745
0.000266772
0.000292453
0.000323202
0.000359047
0.000396809
0.000434842
0.000471272
0.00050456
0.000537299
0.000571851
0.000604214
0.000628911
0.000644337
0.000647382
0.000638427
0.000612757
0.000548259
0.000403429
0.000403758
0.000628519
2.36528e-05
6.30885e-05
0.000109862
0.00054092
0.000671635
0.000576125
0.000513068
0.000467408
0.000432493
0.000417177
0.000399595
0.000389722
0.000386095
0.000394441
0.000410732
0.000431932
0.000457364
0.000486465
0.000515579
0.000539906
0.000557813
0.000569581
0.00057971
0.000596463
0.000621635
0.00065067
0.000676163
0.000692404
0.000696048
0.000693612
0.000734793
0.000811708
0.000895696
0.000991418
0.00110004
0.00122248
0.00136081
0.00151835
0.0017041
0.00205115
0.00297816
1.44544e-05
2.90102e-05
4.51964e-05
0.000342387
0.00093539
0.00120851
0.00110645
0.00102134
0.000929869
0.000897481
0.00085912
0.000836971
0.000817336
0.000809256
0.000805268
0.000806472
0.00081746
0.000843978
0.000870408
0.00088856
0.000893434
0.000886171
0.000870962
0.00086066
0.000886384
0.000955239
0.00104609
0.00116036
0.00130002
0.00146186
0.0016418
0.00183972
0.00204911
0.00227373
0.00251501
0.00278389
0.00308981
0.00344775
0.00388212
0.00456943
0.00624997
1.56479e-05
1.81119e-05
1.61511e-05
0.00010515
0.000548351
0.00132647
0.00180905
0.00181321
0.00164034
0.00158333
0.00150827
0.00147179
0.00143391
0.00142171
0.00141869
0.00141738
0.00141473
0.00141276
0.00140952
0.00141028
0.00141146
0.0014193
0.00143921
0.00148675
0.0015724
0.00170349
0.00188095
0.00210123
0.00235875
0.00264879
0.00296402
0.00330243
0.00365788
0.00403416
0.00443482
0.00487991
0.00539426
0.00600132
0.00674717
0.00786368
0.0102442
1.62253e-05
1.6457e-05
1.53168e-05
1.20625e-05
0.000158564
0.000708246
0.00167673
0.00249817
0.00267753
0.00259243
0.00241433
0.00235564
0.00229153
0.00227617
0.00228033
0.00228802
0.00229674
0.00230465
0.00231124
0.00233007
0.00235677
0.00239646
0.00244696
0.00252107
0.00263562
0.00281486
0.00307573
0.00341199
0.00380931
0.00425678
0.00474136
0.00525514
0.00578918
0.00634475
0.00692718
0.00756566
0.00830578
0.00918447
0.0102786
0.0118623
0.0148392
1.62408e-05
1.59891e-05
1.70131e-05
1.19566e-05
1.0419e-05
0.000175695
0.000788337
0.00194534
0.00315809
0.00363483
0.00375421
0.00366872
0.00351301
0.00343773
0.00342865
0.00345323
0.003493
0.00353833
0.00358048
0.00364367
0.00372248
0.00382001
0.00392283
0.00403487
0.0041729
0.00438205
0.00471797
0.00518428
0.00574998
0.00638889
0.00707674
0.00779621
0.00853456
0.00928715
0.0100563
0.0108753
0.0118154
0.0129477
0.0143834
0.0164287
0.0199105
1.61684e-05
1.6097e-05
1.64012e-05
1.6486e-05
1.0535e-05
1.00025e-05
0.000142021
0.000764738
0.00203652
0.00363478
0.00464494
0.00499989
0.005087
0.00508985
0.00505252
0.00504724
0.00508159
0.00515908
0.00526331
0.00539356
0.00552924
0.00567979
0.00585064
0.00604901
0.00628481
0.0065874
0.00700399
0.00759132
0.00833717
0.00919262
0.0101111
0.0110566
0.0120123
0.0129638
0.0138999
0.0148474
0.0158948
0.017183
0.0188694
0.0212933
0.0252218
1.61447e-05
1.61703e-05
1.6082e-05
1.65806e-05
1.67521e-05
1.00101e-05
1.40951e-05
9.04194e-05
0.000644257
0.00190774
0.00377783
0.00550352
0.00626964
0.00663867
0.00677492
0.00685659
0.00691564
0.00700314
0.00711968
0.00728201
0.00749077
0.0077492
0.00805424
0.00842637
0.00887604
0.00942885
0.0101051
0.0109081
0.0118245
0.0128952
0.0140561
0.015228
0.0163899
0.0175182
0.0185705
0.0195448
0.0205303
0.0217369
0.0234343
0.0260015
0.0302085
1.61455e-05
1.6135e-05
1.61874e-05
1.59562e-05
1.74943e-05
1.47185e-05
1.00854e-05
1.07601e-05
1.57583e-05
0.000436613
0.00155245
0.0035033
0.00582125
0.0074849
0.00819541
0.00858425
0.00878673
0.00895188
0.00911382
0.00932985
0.00962679
0.0100239
0.0105128
0.0111171
0.0118531
0.0127498
0.0138228
0.0150581
0.0164175
0.0178482
0.0192716
0.0206397
0.0219507
0.0231924
0.0242747
0.0251218
0.0257809
0.0265099
0.0277465
0.0298786
0.0336086
1.61377e-05
1.61392e-05
1.615e-05
1.61158e-05
1.6127e-05
1.74074e-05
1.45111e-05
1.02836e-05
1.00514e-05
1.0091e-05
0.000237646
0.00107087
0.00285715
0.00546029
0.00809586
0.00969341
0.0104198
0.010857
0.0111538
0.01147
0.0118786
0.0124386
0.013145
0.0140244
0.015096
0.0163901
0.017921
0.0196678
0.021575
0.0235627
0.0255399
0.0274225
0.0291207
0.0305252
0.031506
0.031972
0.0319159
0.0315922
0.0317814
0.0325332
0.0346383
1.61326e-05
1.61356e-05
1.61337e-05
1.61565e-05
1.6074e-05
1.62873e-05
1.68996e-05
1.5411e-05
1.06203e-05
1.00095e-05
1.4732e-05
2.9084e-05
0.000566773
0.00196284
0.00444385
0.00764446
0.0105465
0.0121834
0.0129891
0.0135615
0.0141208
0.0148476
0.0157732
0.0169382
0.0183571
0.0200526
0.0220291
0.0242527
0.0266495
0.0291132
0.0315197
0.0337377
0.0356309
0.037069
0.0379387
0.0381753
0.0377924
0.0368881
0.0356563
0.0343732
0.0336516
1.61281e-05
1.61298e-05
1.61323e-05
1.61341e-05
1.61393e-05
1.61097e-05
1.62102e-05
1.67797e-05
1.62342e-05
1.16357e-05
1.00085e-05
1.001e-05
8.07918e-05
0.000216033
0.00106706
0.00303183
0.00616661
0.00993369
0.0131871
0.0150509
0.0161149
0.0170765
0.0181833
0.0195888
0.0213193
0.0233824
0.0257599
0.0283967
0.0311989
0.0340346
0.0367487
0.0391747
0.0411451
0.0425011
0.0430987
0.0428399
0.0417161
0.0397987
0.0372888
0.0345623
0.0321077
1.61239e-05
1.61253e-05
1.61271e-05
1.61295e-05
1.61315e-05
1.61341e-05
1.61192e-05
1.61548e-05
1.66331e-05
1.67394e-05
1.35011e-05
1.00122e-05
1.00003e-05
1.24598e-05
1.82282e-05
0.000426814
0.00160886
0.00409949
0.00784346
0.0122376
0.0161115
0.0185496
0.0201509
0.0217691
0.0236833
0.0259899
0.0286727
0.0316436
0.034781
0.0379303
0.0409117
0.0435395
0.0456308
0.0470119
0.0475119
0.0469977
0.0454089
0.0427929
0.0392636
0.0351036
0.0307355
1.61201e-05
1.6121e-05
1.61225e-05
1.61243e-05
1.61266e-05
1.6128e-05
1.61339e-05
1.61145e-05
1.6135e-05
1.64301e-05
1.71819e-05
1.53056e-05
1.04783e-05
1.00041e-05
1.00026e-05
3.51123e-05
8.65627e-05
0.000607752
0.00204792
0.00496882
0.00930887
0.0143362
0.0189581
0.0225046
0.025192
0.0277226
0.0305046
0.0335985
0.0369144
0.0402957
0.0435441
0.046446
0.0488188
0.0505094
0.0513643
0.0512549
0.0500855
0.0477858
0.0444281
0.0401144
0.0350803
1.61165e-05
1.6117e-05
1.61183e-05
1.61199e-05
1.61217e-05
1.61235e-05
1.6126e-05
1.61292e-05
1.61205e-05
1.61099e-05
1.62698e-05
1.71045e-05
1.61669e-05
1.31872e-05
1.00066e-05
1.00005e-05
1.00403e-05
6.22774e-05
0.000115502
0.000685705
0.00225911
0.00528541
0.00953902
0.0146595
0.0200662
0.0251675
0.029648
0.0335804
0.0372022
0.0406643
0.0439611
0.046979
0.049574
0.0516171
0.0529836
0.0535679
0.053293
0.0520369
0.0496009
0.0460339
0.0414735
1.61133e-05
1.61136e-05
1.61145e-05
1.61158e-05
1.61174e-05
1.61191e-05
1.6121e-05
1.61235e-05
1.61259e-05
1.6126e-05
1.60912e-05
1.62248e-05
1.6564e-05
1.70903e-05
1.51271e-05
1.16698e-05
1.00093e-05
1e-05
1.00754e-05
6.30688e-05
6.94526e-05
0.00057235
0.0017666
0.00406955
0.00746229
0.011803
0.0167991
0.0220822
0.0272958
0.0321656
0.036519
0.0402592
0.0433293
0.0457017
0.0473317
0.0481731
0.0481992
0.0473589
0.0452714
0.0419967
0.0378861
1.61106e-05
1.61104e-05
1.61109e-05
1.61119e-05
1.61132e-05
1.61148e-05
1.61165e-05
1.61185e-05
1.61206e-05
1.61244e-05
1.61231e-05
1.61085e-05
1.61294e-05
1.63209e-05
1.68052e-05
1.68615e-05
1.4373e-05
1.07241e-05
1.00059e-05
1e-05
1.00164e-05
2.64223e-05
0.000185049
0.000107152
0.000645207
0.00179539
0.00358615
0.00599504
0.00888534
0.0120529
0.0152713
0.0183187
0.020999
0.0231772
0.0247406
0.0256178
0.0257689
0.0252275
0.0240202
0.0222113
0.0200537
1.61083e-05
1.61075e-05
1.61078e-05
1.61086e-05
1.61098e-05
1.61111e-05
1.61126e-05
1.61143e-05
1.61162e-05
1.61183e-05
1.61219e-05
1.61222e-05
1.61182e-05
1.60993e-05
1.61803e-05
1.64639e-05
1.70926e-05
1.65989e-05
1.41016e-05
1.05734e-05
1.00051e-05
1.00001e-05
1e-05
1.00294e-05
2.61326e-05
0.000147631
1.06832e-05
0.000209011
0.000522786
0.00111273
0.00187084
0.00269901
0.00350831
0.00422195
0.00476591
0.00508805
0.00515426
0.00498854
0.00461432
0.00412634
0.00360149
1.61062e-05
1.61053e-05
1.61055e-05
1.61062e-05
1.61071e-05
1.61082e-05
1.61095e-05
1.61109e-05
1.61125e-05
1.61143e-05
1.61165e-05
1.61192e-05
1.6123e-05
1.61194e-05
1.61089e-05
1.61091e-05
1.62553e-05
1.66223e-05
1.70488e-05
1.64745e-05
1.37235e-05
1.10266e-05
1.0007e-05
1.00001e-05
1e-05
1e-05
1e-05
1.01816e-05
1.55588e-05
5.99701e-05
0.000129196
0.000193925
0.000255092
1.07007e-05
0.00013428
0.000110829
9.0592e-05
0.00011857
8.85363e-05
6.96514e-05
7.44078e-05
1.61047e-05
1.61036e-05
1.61036e-05
1.61041e-05
1.61048e-05
1.61056e-05
1.61067e-05
1.61079e-05
1.61092e-05
1.61107e-05
1.61125e-05
1.61147e-05
1.61174e-05
1.61207e-05
1.61224e-05
1.61144e-05
1.61035e-05
1.61363e-05
1.62982e-05
1.66609e-05
1.69532e-05
1.67054e-05
1.44321e-05
1.20247e-05
1.04044e-05
1e-05
1.00001e-05
1e-05
1e-05
1e-05
1e-05
1e-05
1e-05
1e-05
1.00206e-05
1.00106e-05
1.00056e-05
1.00113e-05
1.00046e-05
1.00024e-05
1.00025e-05
1.61035e-05
1.61022e-05
1.61019e-05
1.61021e-05
1.61026e-05
1.61032e-05
1.6104e-05
1.6105e-05
1.61061e-05
1.61074e-05
1.61089e-05
1.61107e-05
1.61129e-05
1.61155e-05
1.61187e-05
1.61216e-05
1.61203e-05
1.61119e-05
1.61074e-05
1.61435e-05
1.63061e-05
1.66189e-05
1.70665e-05
1.69716e-05
1.61882e-05
1.45959e-05
1.28106e-05
1.14632e-05
1.05872e-05
1.0145e-05
1.00136e-05
1e-05
1.00001e-05
1e-05
1e-05
1e-05
1e-05
1e-05
1e-05
1e-05
1e-05
1.61028e-05
1.61011e-05
1.61005e-05
1.61004e-05
1.61006e-05
1.6101e-05
1.61015e-05
1.61023e-05
1.61032e-05
1.61043e-05
1.61056e-05
1.61072e-05
1.6109e-05
1.61112e-05
1.61136e-05
1.61166e-05
1.61198e-05
1.6122e-05
1.61207e-05
1.61127e-05
1.61072e-05
1.61369e-05
1.62793e-05
1.65011e-05
1.67512e-05
1.69841e-05
1.69912e-05
1.67646e-05
1.62973e-05
1.5647e-05
1.49086e-05
1.41717e-05
1.35041e-05
1.29251e-05
1.24964e-05
1.22061e-05
1.20098e-05
1.18891e-05
1.18352e-05
1.1824e-05
1.18383e-05
1.61023e-05
1.61003e-05
1.60994e-05
1.6099e-05
1.60989e-05
1.60991e-05
1.60995e-05
1.61e-05
1.61008e-05
1.61017e-05
1.61028e-05
1.61041e-05
1.61056e-05
1.61075e-05
1.61096e-05
1.61121e-05
1.61148e-05
1.61179e-05
1.61214e-05
1.61239e-05
1.61214e-05
1.61134e-05
1.61107e-05
1.61308e-05
1.61852e-05
1.62802e-05
1.64119e-05
1.65637e-05
1.67135e-05
1.68432e-05
1.69423e-05
1.70078e-05
1.7042e-05
1.70487e-05
1.70112e-05
1.69621e-05
1.6911e-05
1.68615e-05
1.6821e-05
1.6788e-05
1.67674e-05
1.61021e-05
1.60998e-05
1.60986e-05
1.6098e-05
1.60978e-05
1.60978e-05
1.6098e-05
1.60984e-05
1.60989e-05
1.60997e-05
1.61005e-05
1.61016e-05
1.61029e-05
1.61045e-05
1.61063e-05
1.61084e-05
1.61108e-05
1.61134e-05
1.61163e-05
1.61198e-05
1.61233e-05
1.61254e-05
1.61244e-05
1.61218e-05
1.61201e-05
1.61226e-05
1.61329e-05
1.61547e-05
1.61893e-05
1.62351e-05
1.62887e-05
1.63467e-05
1.64059e-05
1.64642e-05
1.65184e-05
1.65668e-05
1.66077e-05
1.66427e-05
1.66708e-05
1.6693e-05
1.67086e-05
1.61021e-05
1.60996e-05
1.60983e-05
1.60975e-05
1.60972e-05
1.60971e-05
1.60971e-05
1.60974e-05
1.60977e-05
1.60983e-05
1.60989e-05
1.60998e-05
1.61008e-05
1.61021e-05
1.61037e-05
1.61055e-05
1.61075e-05
1.61098e-05
1.61123e-05
1.6115e-05
1.61181e-05
1.61216e-05
1.6125e-05
1.61279e-05
1.61301e-05
1.61313e-05
1.61317e-05
1.61319e-05
1.61327e-05
1.6135e-05
1.61392e-05
1.61453e-05
1.61532e-05
1.61628e-05
1.61736e-05
1.61851e-05
1.61969e-05
1.62089e-05
1.62206e-05
1.62315e-05
1.62416e-05
1.61023e-05
1.60998e-05
1.60983e-05
1.60975e-05
1.6097e-05
1.60968e-05
1.60967e-05
1.60968e-05
1.6097e-05
1.60974e-05
1.60979e-05
1.60985e-05
1.60994e-05
1.61004e-05
1.61017e-05
1.61032e-05
1.6105e-05
1.61069e-05
1.61091e-05
1.61115e-05
1.61141e-05
1.6117e-05
1.61202e-05
1.61235e-05
1.61271e-05
1.61307e-05
1.61343e-05
1.61376e-05
1.61408e-05
1.61437e-05
1.61465e-05
1.61492e-05
1.61521e-05
1.61551e-05
1.61583e-05
1.61617e-05
1.61655e-05
1.61696e-05
1.6174e-05
1.61784e-05
1.61835e-05
1.61026e-05
1.61002e-05
1.60987e-05
1.60978e-05
1.60972e-05
1.60968e-05
1.60965e-05
1.60965e-05
1.60965e-05
1.60967e-05
1.60971e-05
1.60975e-05
1.60982e-05
1.60991e-05
1.61001e-05
1.61014e-05
1.61029e-05
1.61046e-05
1.61065e-05
1.61087e-05
1.61109e-05
1.61135e-05
1.61162e-05
1.61191e-05
1.61223e-05
1.61256e-05
1.61291e-05
1.61328e-05
1.61366e-05
1.61405e-05
1.61445e-05
1.61485e-05
1.61525e-05
1.61566e-05
1.61607e-05
1.61648e-05
1.6169e-05
1.61732e-05
1.61776e-05
1.61817e-05
1.61864e-05
1.61031e-05
1.61009e-05
1.60994e-05
1.60984e-05
1.60976e-05
1.6097e-05
1.60966e-05
1.60963e-05
1.60962e-05
1.60962e-05
1.60964e-05
1.60967e-05
1.60972e-05
1.60979e-05
1.60987e-05
1.60998e-05
1.61011e-05
1.61026e-05
1.61043e-05
1.61062e-05
1.61082e-05
1.61105e-05
1.61129e-05
1.61156e-05
1.61184e-05
1.61213e-05
1.61244e-05
1.61277e-05
1.61311e-05
1.61346e-05
1.61382e-05
1.6142e-05
1.61458e-05
1.61497e-05
1.61536e-05
1.61577e-05
1.61617e-05
1.61658e-05
1.617e-05
1.6174e-05
1.61784e-05
1.61038e-05
1.6102e-05
1.61006e-05
1.60994e-05
1.60983e-05
1.60975e-05
1.60968e-05
1.60963e-05
1.6096e-05
1.60958e-05
1.60958e-05
1.6096e-05
1.60963e-05
1.60968e-05
1.60975e-05
1.60984e-05
1.60995e-05
1.61008e-05
1.61023e-05
1.61039e-05
1.61057e-05
1.61078e-05
1.611e-05
1.61124e-05
1.61149e-05
1.61176e-05
1.61204e-05
1.61234e-05
1.61264e-05
1.61296e-05
1.61329e-05
1.61362e-05
1.61397e-05
1.61432e-05
1.61468e-05
1.61504e-05
1.61541e-05
1.61578e-05
1.61617e-05
1.61653e-05
1.61693e-05
1.61046e-05
1.61034e-05
1.6102e-05
1.61007e-05
1.60995e-05
1.60984e-05
1.60975e-05
1.60967e-05
1.60962e-05
1.60958e-05
1.60956e-05
1.60955e-05
1.60956e-05
1.60959e-05
1.60964e-05
1.6097e-05
1.60979e-05
1.6099e-05
1.61003e-05
1.61018e-05
1.61034e-05
1.61052e-05
1.61072e-05
1.61093e-05
1.61117e-05
1.61141e-05
1.61167e-05
1.61194e-05
1.61222e-05
1.61251e-05
1.61281e-05
1.61312e-05
1.61344e-05
1.61376e-05
1.61409e-05
1.61442e-05
1.61476e-05
1.6151e-05
1.61545e-05
1.61577e-05
1.61614e-05
1.61056e-05
1.61046e-05
1.61034e-05
1.61021e-05
1.61009e-05
1.60997e-05
1.60986e-05
1.60977e-05
1.60969e-05
1.60962e-05
1.60958e-05
1.60955e-05
1.60953e-05
1.60954e-05
1.60956e-05
1.60961e-05
1.60967e-05
1.60976e-05
1.60986e-05
1.60998e-05
1.61012e-05
1.61028e-05
1.61046e-05
1.61065e-05
1.61086e-05
1.61108e-05
1.61131e-05
1.61156e-05
1.61182e-05
1.61209e-05
1.61236e-05
1.61265e-05
1.61294e-05
1.61323e-05
1.61353e-05
1.61384e-05
1.61415e-05
1.61446e-05
1.61478e-05
1.61508e-05
1.61542e-05
1.61064e-05
1.61055e-05
1.61044e-05
1.61033e-05
1.61023e-05
1.61012e-05
1.61002e-05
1.60991e-05
1.60981e-05
1.60972e-05
1.60965e-05
1.6096e-05
1.60956e-05
1.60954e-05
1.60954e-05
1.60956e-05
1.60959e-05
1.60965e-05
1.60973e-05
1.60982e-05
1.60994e-05
1.61007e-05
1.61022e-05
1.61039e-05
1.61057e-05
1.61077e-05
1.61098e-05
1.6112e-05
1.61144e-05
1.61168e-05
1.61193e-05
1.61219e-05
1.61246e-05
1.61273e-05
1.613e-05
1.61328e-05
1.61356e-05
1.61385e-05
1.61414e-05
1.6144e-05
1.61471e-05
1.61068e-05
1.6106e-05
1.6105e-05
1.61041e-05
1.61033e-05
1.61025e-05
1.61017e-05
1.61008e-05
1.60998e-05
1.60988e-05
1.60978e-05
1.6097e-05
1.60964e-05
1.60959e-05
1.60956e-05
1.60956e-05
1.60957e-05
1.6096e-05
1.60965e-05
1.60971e-05
1.6098e-05
1.60991e-05
1.61003e-05
1.61017e-05
1.61033e-05
1.6105e-05
1.61068e-05
1.61088e-05
1.61109e-05
1.6113e-05
1.61153e-05
1.61176e-05
1.612e-05
1.61225e-05
1.6125e-05
1.61275e-05
1.613e-05
1.61325e-05
1.61351e-05
1.61375e-05
1.61403e-05
1.61069e-05
1.61062e-05
1.61054e-05
1.61047e-05
1.6104e-05
1.61034e-05
1.61028e-05
1.61022e-05
1.61015e-05
1.61006e-05
1.60996e-05
1.60986e-05
1.60977e-05
1.6097e-05
1.60964e-05
1.60961e-05
1.60959e-05
1.60959e-05
1.60961e-05
1.60965e-05
1.60971e-05
1.60979e-05
1.60988e-05
1.61e-05
1.61013e-05
1.61027e-05
1.61043e-05
1.6106e-05
1.61078e-05
1.61097e-05
1.61116e-05
1.61137e-05
1.61158e-05
1.6118e-05
1.61202e-05
1.61224e-05
1.61246e-05
1.61268e-05
1.61291e-05
1.61311e-05
1.61336e-05
1.61068e-05
1.61062e-05
1.61055e-05
1.61049e-05
1.61045e-05
1.61041e-05
1.61037e-05
1.61033e-05
1.61028e-05
1.61022e-05
1.61015e-05
1.61006e-05
1.60996e-05
1.60986e-05
1.60978e-05
1.60971e-05
1.60967e-05
1.60964e-05
1.60963e-05
1.60964e-05
1.60967e-05
1.60972e-05
1.60979e-05
1.60987e-05
1.60997e-05
1.61009e-05
1.61022e-05
1.61036e-05
1.61051e-05
1.61067e-05
1.61084e-05
1.61101e-05
1.6112e-05
1.61138e-05
1.61157e-05
1.61176e-05
1.61195e-05
1.61214e-05
1.61234e-05
1.6125e-05
1.61271e-05
1.61063e-05
1.61058e-05
1.61053e-05
1.61049e-05
1.61047e-05
1.61045e-05
1.61043e-05
1.61041e-05
1.61038e-05
1.61034e-05
1.61029e-05
1.61023e-05
1.61015e-05
1.61006e-05
1.60995e-05
1.60986e-05
1.60979e-05
1.60973e-05
1.6097e-05
1.60968e-05
1.60968e-05
1.6097e-05
1.60974e-05
1.6098e-05
1.60987e-05
1.60995e-05
1.61005e-05
1.61016e-05
1.61028e-05
1.61041e-05
1.61055e-05
1.6107e-05
1.61085e-05
1.611e-05
1.61116e-05
1.61132e-05
1.61147e-05
1.61163e-05
1.61179e-05
1.61192e-05
1.61209e-05
1.61055e-05
1.61051e-05
1.61047e-05
1.61046e-05
1.61045e-05
1.61045e-05
1.61046e-05
1.61045e-05
1.61044e-05
1.61042e-05
1.61039e-05
1.61035e-05
1.6103e-05
1.61023e-05
1.61014e-05
1.61003e-05
1.60994e-05
1.60986e-05
1.6098e-05
1.60976e-05
1.60973e-05
1.60972e-05
1.60973e-05
1.60976e-05
1.6098e-05
1.60986e-05
1.60993e-05
1.61001e-05
1.6101e-05
1.6102e-05
1.61031e-05
1.61042e-05
1.61054e-05
1.61066e-05
1.61078e-05
1.61091e-05
1.61103e-05
1.61115e-05
1.61127e-05
1.61136e-05
1.6115e-05
1.61043e-05
1.61041e-05
1.61039e-05
1.61039e-05
1.6104e-05
1.61042e-05
1.61044e-05
1.61045e-05
1.61046e-05
1.61046e-05
1.61045e-05
1.61043e-05
1.61039e-05
1.61034e-05
1.61028e-05
1.6102e-05
1.6101e-05
1.61e-05
1.60992e-05
1.60985e-05
1.6098e-05
1.60977e-05
1.60975e-05
1.60975e-05
1.60977e-05
1.6098e-05
1.60984e-05
1.60989e-05
1.60995e-05
1.61002e-05
1.6101e-05
1.61018e-05
1.61026e-05
1.61035e-05
1.61044e-05
1.61053e-05
1.61061e-05
1.61069e-05
1.61078e-05
1.61084e-05
1.61093e-05
1.61028e-05
1.61027e-05
1.61027e-05
1.61028e-05
1.61031e-05
1.61034e-05
1.61037e-05
1.6104e-05
1.61042e-05
1.61043e-05
1.61044e-05
1.61043e-05
1.61042e-05
1.61039e-05
1.61035e-05
1.61029e-05
1.61022e-05
1.61012e-05
1.61002e-05
1.60994e-05
1.60987e-05
1.60982e-05
1.60978e-05
1.60976e-05
1.60975e-05
1.60975e-05
1.60977e-05
1.60979e-05
1.60982e-05
1.60986e-05
1.60991e-05
1.60996e-05
1.61001e-05
1.61007e-05
1.61012e-05
1.61018e-05
1.61023e-05
1.61027e-05
1.61032e-05
1.61034e-05
1.6104e-05
1.61009e-05
1.6101e-05
1.61011e-05
1.61013e-05
1.61017e-05
1.6102e-05
1.61024e-05
1.61027e-05
1.6103e-05
1.61033e-05
1.61035e-05
1.61036e-05
1.61036e-05
1.61035e-05
1.61033e-05
1.6103e-05
1.61025e-05
1.61018e-05
1.6101e-05
1.61e-05
1.60992e-05
1.60985e-05
1.6098e-05
1.60975e-05
1.60972e-05
1.60971e-05
1.6097e-05
1.6097e-05
1.6097e-05
1.60972e-05
1.60974e-05
1.60976e-05
1.60978e-05
1.6098e-05
1.60983e-05
1.60985e-05
1.60986e-05
1.60988e-05
1.60989e-05
1.60987e-05
1.60989e-05
1.60987e-05
1.60988e-05
1.60991e-05
1.60994e-05
1.60997e-05
1.61001e-05
1.61004e-05
1.61008e-05
1.61011e-05
1.61015e-05
1.61018e-05
1.6102e-05
1.61022e-05
1.61023e-05
1.61023e-05
1.61021e-05
1.61018e-05
1.61014e-05
1.61009e-05
1.61002e-05
1.60993e-05
1.60985e-05
1.60978e-05
1.60972e-05
1.60968e-05
1.60964e-05
1.60961e-05
1.60959e-05
1.60958e-05
1.60957e-05
1.60956e-05
1.60956e-05
1.60955e-05
1.60955e-05
1.60954e-05
1.60954e-05
1.60952e-05
1.6095e-05
1.60948e-05
1.60944e-05
1.60942e-05
1.60961e-05
1.60963e-05
1.60965e-05
1.60968e-05
1.60971e-05
1.60974e-05
1.60978e-05
1.60981e-05
1.60985e-05
1.60989e-05
1.60992e-05
1.60996e-05
1.60998e-05
1.61001e-05
1.61002e-05
1.61002e-05
1.61002e-05
1.60999e-05
1.60996e-05
1.60992e-05
1.60986e-05
1.6098e-05
1.60972e-05
1.60965e-05
1.60959e-05
1.60954e-05
1.6095e-05
1.60946e-05
1.60943e-05
1.6094e-05
1.60937e-05
1.60935e-05
1.60932e-05
1.60929e-05
1.60926e-05
1.60923e-05
1.60919e-05
1.60915e-05
1.6091e-05
1.60905e-05
1.609e-05
1.6093e-05
1.60933e-05
1.60935e-05
1.60937e-05
1.60939e-05
1.60941e-05
1.60944e-05
1.60947e-05
1.6095e-05
1.60954e-05
1.60958e-05
1.60962e-05
1.60965e-05
1.60968e-05
1.60971e-05
1.60973e-05
1.60973e-05
1.60973e-05
1.60972e-05
1.6097e-05
1.60967e-05
1.60962e-05
1.60957e-05
1.60952e-05
1.60946e-05
1.6094e-05
1.60935e-05
1.60931e-05
1.60927e-05
1.60923e-05
1.60919e-05
1.60915e-05
1.60911e-05
1.60908e-05
1.60904e-05
1.609e-05
1.60897e-05
1.60893e-05
1.60891e-05
1.6089e-05
1.6089e-05
1.60895e-05
1.60898e-05
1.60899e-05
1.609e-05
1.60901e-05
1.60902e-05
1.60904e-05
1.60906e-05
1.60909e-05
1.60912e-05
1.60915e-05
1.60918e-05
1.60922e-05
1.60925e-05
1.60928e-05
1.60931e-05
1.60933e-05
1.60934e-05
1.60935e-05
1.60935e-05
1.60934e-05
1.60932e-05
1.6093e-05
1.60928e-05
1.60924e-05
1.60921e-05
1.60918e-05
1.60914e-05
1.60911e-05
1.60907e-05
1.60904e-05
1.60902e-05
1.609e-05
1.60899e-05
1.60899e-05
1.609e-05
1.60901e-05
1.60904e-05
1.60908e-05
1.60914e-05
1.6092e-05
1.60856e-05
1.60858e-05
1.60858e-05
1.60858e-05
1.60858e-05
1.60858e-05
1.60859e-05
1.6086e-05
1.60861e-05
1.60862e-05
1.60864e-05
1.60866e-05
1.60868e-05
1.6087e-05
1.60873e-05
1.60875e-05
1.60878e-05
1.6088e-05
1.60881e-05
1.60882e-05
1.60883e-05
1.60883e-05
1.60882e-05
1.60881e-05
1.6088e-05
1.60879e-05
1.60878e-05
1.60877e-05
1.60876e-05
1.60875e-05
1.60875e-05
1.60875e-05
1.60876e-05
1.60878e-05
1.60881e-05
1.60885e-05
1.6089e-05
1.60895e-05
1.60903e-05
1.60911e-05
1.6092e-05
1.60811e-05
1.60812e-05
1.60812e-05
1.60811e-05
1.6081e-05
1.6081e-05
1.60809e-05
1.60808e-05
1.60807e-05
1.60806e-05
1.60805e-05
1.60804e-05
1.60804e-05
1.60804e-05
1.60805e-05
1.60806e-05
1.60807e-05
1.60808e-05
1.6081e-05
1.60813e-05
1.60815e-05
1.60818e-05
1.6082e-05
1.60823e-05
1.60826e-05
1.60829e-05
1.60832e-05
1.60836e-05
1.6084e-05
1.60844e-05
1.60849e-05
1.60854e-05
1.60861e-05
1.60867e-05
1.60875e-05
1.60884e-05
1.60894e-05
1.60905e-05
1.60918e-05
1.6093e-05
1.60945e-05
1.60761e-05
1.60762e-05
1.60761e-05
1.60761e-05
1.6076e-05
1.60759e-05
1.60757e-05
1.60754e-05
1.60751e-05
1.60745e-05
1.6074e-05
1.60737e-05
1.60737e-05
1.60739e-05
1.60743e-05
1.60748e-05
1.60752e-05
1.60755e-05
1.60756e-05
1.60757e-05
1.60756e-05
1.60755e-05
1.60754e-05
1.60753e-05
1.60752e-05
1.60753e-05
1.60754e-05
1.60756e-05
1.60758e-05
1.60762e-05
1.60767e-05
1.60773e-05
1.6078e-05
1.60789e-05
1.60798e-05
1.60808e-05
1.6082e-05
1.60832e-05
1.60846e-05
1.6086e-05
1.60875e-05
1.60706e-05
1.60706e-05
1.60706e-05
1.60706e-05
1.60706e-05
1.60706e-05
1.60705e-05
1.60702e-05
1.60699e-05
1.60692e-05
1.60688e-05
1.60692e-05
1.60702e-05
1.60718e-05
1.60738e-05
1.60764e-05
1.6079e-05
1.60814e-05
1.60835e-05
1.60852e-05
1.60865e-05
1.60875e-05
1.6088e-05
1.60882e-05
1.60881e-05
1.60877e-05
1.60869e-05
1.60858e-05
1.6085e-05
1.60845e-05
1.60843e-05
1.60844e-05
1.60847e-05
1.60853e-05
1.60862e-05
1.60872e-05
1.60885e-05
1.609e-05
1.60917e-05
1.60935e-05
1.60957e-05
0.00633462
0.010144
0.0119857
0.0105278
0.00544365
0.00100403
4.92396e-05
1.00057e-05
1.4787e-05
1.01103e-05
0.000440486
0.00844357
0.0169395
0.0231006
0.0275279
0.0305427
0.0323916
0.033274
0.0333258
0.032646
0.0313179
0.0294095
0.0269905
0.0241189
0.0208502
0.0172321
0.0132925
0.0090737
0.00474225
0.00125462
0.000308886
1e-05
1.03441e-05
2.06682e-05
2.10561e-05
1.70515e-05
1.56844e-05
1.58947e-05
1.64448e-05
1.67666e-05
1.68293e-05
1.67961e-05
1.67715e-05
1.677e-05
1.67722e-05
1.6763e-05
1.67386e-05
1.67012e-05
1.66541e-05
1.6601e-05
1.65454e-05
1.64913e-05
1.64431e-05
1.64051e-05
1.63809e-05
1.63686e-05
1.63614e-05
1.63559e-05
1.63502e-05
1.63438e-05
1.63365e-05
1.63283e-05
1.63196e-05
1.63107e-05
1.63019e-05
1.62936e-05
1.62859e-05
1.6279e-05
1.6273e-05
1.62678e-05
1.62634e-05
1.62596e-05
1.62566e-05
1.62511e-05
0.0104865
0.0146137
0.0164783
0.0152589
0.0100699
0.0032202
0.000234264
1.00077e-05
1.00002e-05
2.04438e-05
0.00165976
0.0113306
0.0202891
0.0264955
0.0309016
0.0339358
0.0358611
0.0368614
0.0370605
0.0365459
0.035391
0.0336561
0.031405
0.0286937
0.0255743
0.0220956
0.0182838
0.0141468
0.00967745
0.00503033
0.00129258
0.000372385
1.00016e-05
1.01113e-05
2.01534e-05
2.10539e-05
1.70135e-05
1.58104e-05
1.61367e-05
1.66547e-05
1.68897e-05
1.6907e-05
1.68691e-05
1.68446e-05
1.68307e-05
1.681e-05
1.67746e-05
1.67259e-05
1.6668e-05
1.66057e-05
1.65436e-05
1.64863e-05
1.64383e-05
1.6404e-05
1.63854e-05
1.63768e-05
1.63718e-05
1.63674e-05
1.63623e-05
1.63561e-05
1.63487e-05
1.63403e-05
1.63314e-05
1.63223e-05
1.63134e-05
1.63049e-05
1.6297e-05
1.62898e-05
1.62836e-05
1.62781e-05
1.62734e-05
1.62693e-05
1.62658e-05
1.62594e-05
0.0145341
0.0192775
0.0213226
0.0204172
0.0156489
0.00745034
0.00137326
0.000117817
1e-05
7.13187e-05
0.0027628
0.0134512
0.0228799
0.0292752
0.0338025
0.0370004
0.0391377
0.0403815
0.0408388
0.0405844
0.0396886
0.0382003
0.0361782
0.033674
0.0307368
0.0274186
0.0237496
0.0197414
0.0153756
0.0106072
0.00562239
0.00157641
0.000488724
1.00004e-05
1.00011e-05
1.74516e-05
2.13881e-05
1.72675e-05
1.59435e-05
1.63095e-05
1.68135e-05
1.69938e-05
1.69792e-05
1.69297e-05
1.68915e-05
1.68547e-05
1.68069e-05
1.67467e-05
1.66783e-05
1.66078e-05
1.65406e-05
1.64818e-05
1.64357e-05
1.64057e-05
1.63925e-05
1.6387e-05
1.63837e-05
1.63802e-05
1.63755e-05
1.63692e-05
1.63616e-05
1.6353e-05
1.63439e-05
1.63345e-05
1.63254e-05
1.63166e-05
1.63085e-05
1.63011e-05
1.62946e-05
1.62888e-05
1.62838e-05
1.62792e-05
1.62754e-05
1.62679e-05
0.0185408
0.0241012
0.0264077
0.0258588
0.0217312
0.0134077
0.00435168
0.000404316
1.07344e-05
0.000125733
0.00349155
0.0148516
0.0248147
0.0315293
0.0363054
0.0398001
0.0422717
0.0438748
0.0446905
0.0447782
0.0442197
0.0430432
0.0413048
0.0390483
0.0363303
0.0331992
0.0296883
0.0258238
0.0216047
0.0169834
0.011907
0.00657639
0.00208656
0.000674892
1.32942e-05
1.00404e-05
1.33748e-05
2.17672e-05
1.85169e-05
1.63408e-05
1.64294e-05
1.69005e-05
1.70653e-05
1.70304e-05
1.69608e-05
1.68988e-05
1.68354e-05
1.67637e-05
1.66859e-05
1.66086e-05
1.65379e-05
1.64791e-05
1.6436e-05
1.64109e-05
1.64019e-05
1.63988e-05
1.63969e-05
1.6394e-05
1.63893e-05
1.6383e-05
1.63751e-05
1.63662e-05
1.63568e-05
1.63471e-05
1.63377e-05
1.63287e-05
1.63203e-05
1.63127e-05
1.63059e-05
1.62998e-05
1.62944e-05
1.62893e-05
1.62851e-05
1.62766e-05
0.0227026
0.0289994
0.0315534
0.0313988
0.0280245
0.0204051
0.00966066
0.00205396
1.355e-05
0.0001672
0.00378266
0.0155097
0.0260803
0.0332471
0.0383999
0.0423413
0.0452766
0.0473369
0.048601
0.049126
0.0489716
0.0481702
0.0467647
0.0447866
0.0423301
0.039415
0.0360856
0.0323828
0.0283176
0.0238776
0.0190061
0.0136494
0.00798284
0.00290619
0.000148465
0.000137895
1.00138e-05
1.00202e-05
1.69743e-05
1.96898e-05
1.71536e-05
1.66416e-05
1.69436e-05
1.70927e-05
1.70455e-05
1.69521e-05
1.68636e-05
1.67778e-05
1.66915e-05
1.66089e-05
1.65362e-05
1.64787e-05
1.64393e-05
1.64189e-05
1.64132e-05
1.6412e-05
1.64111e-05
1.64086e-05
1.64039e-05
1.63972e-05
1.6389e-05
1.63798e-05
1.637e-05
1.63601e-05
1.63504e-05
1.63411e-05
1.63325e-05
1.63246e-05
1.63175e-05
1.63111e-05
1.63052e-05
1.62997e-05
1.6295e-05
1.62854e-05
0.0272429
0.0337569
0.0364853
0.036745
0.0342014
0.0277589
0.0169295
0.00599053
0.000794579
0.000235856
0.00364335
0.015399
0.0266123
0.0343666
0.0400551
0.0445336
0.0480219
0.0506268
0.0524193
0.053455
0.0537849
0.0534425
0.052462
0.0508709
0.048721
0.0460451
0.0429229
0.0394019
0.0355024
0.0312427
0.0265904
0.0215014
0.0158932
0.00986293
0.00417952
0.000667165
0.000362002
1.00001e-05
1.00367e-05
1.28286e-05
1.91773e-05
1.79736e-05
1.68754e-05
1.69187e-05
1.70484e-05
1.70078e-05
1.69008e-05
1.67941e-05
1.66969e-05
1.66098e-05
1.65364e-05
1.64809e-05
1.64455e-05
1.64293e-05
1.64261e-05
1.64264e-05
1.64262e-05
1.64237e-05
1.64189e-05
1.64119e-05
1.64033e-05
1.63937e-05
1.63835e-05
1.63733e-05
1.63633e-05
1.63538e-05
1.6345e-05
1.63368e-05
1.63294e-05
1.63226e-05
1.63163e-05
1.63103e-05
1.63052e-05
1.62943e-05
0.0320655
0.0380386
0.0408175
0.0414724
0.0398104
0.0348121
0.0251731
0.0125515
0.00325795
1.09046e-05
0.00312972
0.0145202
0.0263137
0.0347895
0.0411139
0.0462189
0.0503415
0.0535694
0.0559623
0.0575746
0.0584564
0.058644
0.058169
0.0570558
0.0553353
0.0530343
0.0501978
0.0468726
0.0431535
0.0390719
0.0346235
0.029795
0.0245076
0.0186691
0.0122842
0.0059905
0.00161714
0.000676104
2.14155e-05
1.00125e-05
1.03554e-05
1.73642e-05
1.91933e-05
1.74348e-05
1.69533e-05
1.69603e-05
1.69204e-05
1.68155e-05
1.67064e-05
1.66132e-05
1.65392e-05
1.64861e-05
1.64543e-05
1.64415e-05
1.64403e-05
1.64416e-05
1.64418e-05
1.64394e-05
1.64343e-05
1.64269e-05
1.64179e-05
1.64079e-05
1.63974e-05
1.63868e-05
1.63766e-05
1.63668e-05
1.63577e-05
1.63493e-05
1.63416e-05
1.63344e-05
1.63277e-05
1.6321e-05
1.63155e-05
1.63034e-05
0.0363761
0.0413275
0.0439961
0.0449953
0.0442315
0.0408317
0.0332147
0.0210168
0.00851245
0.00112178
0.00233449
0.0129086
0.0250831
0.0343726
0.0413975
0.0472015
0.0520304
0.055954
0.0590164
0.0612682
0.062762
0.0635407
0.0636387
0.063081
0.06189
0.0600854
0.0576931
0.0547436
0.0512885
0.0473727
0.0431209
0.0385115
0.0335185
0.0280586
0.0219973
0.0152803
0.0084132
0.00300213
0.000234346
0.000202405
1.00063e-05
1.0038e-05
1.26164e-05
1.85495e-05
1.80217e-05
1.70498e-05
1.68591e-05
1.6804e-05
1.6715e-05
1.66208e-05
1.65456e-05
1.64943e-05
1.64656e-05
1.64553e-05
1.64554e-05
1.64575e-05
1.64579e-05
1.64554e-05
1.64499e-05
1.64421e-05
1.64327e-05
1.64223e-05
1.64114e-05
1.64006e-05
1.63901e-05
1.63801e-05