/*--------------------------------*- C++ -*----------------------------------*\
| =========                 |                                                 |
| \\      /  F ield         | OpenFOAM: The Open Source CFD Toolbox           |
|  \\    /   O peration     | Version:  2312                                  |
|   \\  /    A nd           | Website:  www.openfoam.com                      |
|    \\/     M anipulation  |                                                 |
\*---------------------------------------------------------------------------*/
FoamFile
{
    version     2.0;
    format      ascii;
    arch        "LSB;label=32;scalar=64";
    class       volScalarField;
    location    "250";
    object      turbulenceProperties:epsilon;
}
// * * * * * * * * * * * * * * * * * * * * * * * * * * * * * * * * * * * * * //

dimensions      [0 2 -3 0 0 0 0];

internalField   nonuniform List<scalar> 
11040
(
173.28
58.1076
3.79768
24.6104
42.6912
33.239
27.3823
23.4884
20.9424
19.1146
17.6153
16.7456
16.3352
16.4764
17.1279
18.325
20.1907
23.1761
27.6357
34.7237
45.4862
60.8706
82.6174
114.063
158
214.709
283.974
363.74
448.586
535.638
619.163
686.558
720.053
709.971
649.871
547.112
410.802
250.874
97.3853
33.4869
21.3569
1.80256
11.1612
68.9454
77.2992
10.0291
0.310946
0.0260824
0.0232247
0.064177
0.121306
0.180028
0.250777
0.339742
0.458188
0.627044
0.853375
1.16764
1.57499
2.13396
2.80464
3.62514
4.52425
5.33457
5.95067
6.31927
6.41537
6.09335
5.28176
4.11099
2.77163
1.73153
0.952587
0.490798
0.287732
0.307168
0.491784
0.965937
1.92687
3.45053
4.47985
19.7214
0.425766
0.0795613
6.03261
109.516
112.881
21.8323
1.67287
0.304704
0.0727601
0.00865203
0.000831234
0.0172931
0.0545102
0.10586
0.175519
0.262412
0.373411
0.512093
0.667489
0.813205
0.914968
0.939061
0.860915
0.702286
0.530942
0.379929
0.262323
0.198331
0.184162
0.178906
0.140848
0.0746445
0.0496001
0.167994
0.569456
1.44507
3.11503
6.23525
11.6152
18.0307
27.7299
0.19358
0.242415
0.00588129
8.74856
104.008
129.514
39.2902
4.24664
1.00432
0.358466
0.169148
0.0914154
0.0431373
0.0262492
0.0249499
0.0342723
0.055153
0.0845608
0.119546
0.154936
0.185212
0.212609
0.251245
0.312691
0.401705
0.511768
0.61719
0.68658
0.677413
0.580671
0.411876
0.22306
0.0945847
0.166995
0.674224
1.95641
4.55644
9.47082
18.1359
28.8671
30.0141
0.117143
0.13712
0.075746
0.00273406
7.72548
84.0511
136.539
62.7363
10.4998
2.48451
0.915888
0.580065
0.391711
0.30959
0.269392
0.250256
0.253128
0.27439
0.320498
0.399052
0.506344
0.627487
0.757257
0.894217
1.02434
1.13093
1.19334
1.19814
1.107
0.921828
0.643329
0.332053
0.0886193
0.132506
0.820826
2.64354
6.33128
13.0744
24.6157
38.4656
34.1539
0.0646189
0.058411
0.0858009
0.0144246
0.0002632
4.51393
57.3395
132.825
88.4219
24.895
5.27289
2.08867
1.20758
0.910372
0.808632
0.760808
0.775837
0.822073
0.91262
1.04845
1.21881
1.38537
1.53408
1.66787
1.77502
1.84535
1.87316
1.84681
1.70734
1.4397
1.02793
0.543481
0.119658
0.0621024
0.851315
3.12976
7.76149
15.9847
29.424
44.5627
39.2228
0.0362925
0.0322613
0.03666
0.0472307
0.00226166
3.42149e-07
1.62416
31.5602
108.627
108.856
49.7114
12.1627
4.18264
2.16157
1.66649
1.45379
1.43646
1.47789
1.60263
1.78068
1.99262
2.18342
2.35184
2.51631
2.66979
2.78717
2.84456
2.82805
2.66714
2.31522
1.74332
1.02141
0.315036
0.00224895
0.678924
3.11825
8.2381
17.1852
31.138
45.929
43.5792
0.0198462
0.0194239
0.0187577
0.0227159
0.0295304
1.88087e-05
0.00171413
0.351215
13.2196
69.634
112.674
77.5414
29.3584
8.23399
3.81295
2.50985
2.22774
2.16491
2.27815
2.46838
2.72431
2.97269
3.2124
3.47447
3.75849
4.03181
4.2414
4.32385
4.18156
3.77072
3.03512
2.02254
0.906633
0.106071
0.312707
2.38138
7.20791
15.7067
28.4961
41.7114
44.4146
0.0111608
0.0110362
0.0113959
0.0110166
0.015403
0.012118
0.000145894
0.000520203
0.0062088
3.59968
32.3047
88.5058
94.9668
54.7502
19.8263
6.88371
3.87951
3.06187
3.00515
3.17301
3.48831
3.83676
4.20852
4.63443
5.11718
5.62005
6.07968
6.39817
6.43761
6.07509
5.22549
3.91477
2.30477
0.790414
0.0943418
1.10778
4.63635
11.2864
21.1283
31.4763
37.7663
0.00632547
0.00631349
0.006584
0.00679259
0.00684793
0.00895987
0.00671643
0.000374872
3.27903e-05
9.11211e-06
0.550772
10.1044
47.6624
88.0115
76.8044
41.0063
15.6843
6.58203
4.32781
3.97932
4.297
4.80832
5.39117
6.05176
6.80531
7.61343
8.40395
9.06492
9.42145
9.29799
8.54745
7.11752
5.09857
2.79786
0.882162
0.261086
1.64352
5.32993
11.0459
17.3229
23.2905
0.00360596
0.00362169
0.00376764
0.00399832
0.00410056
0.00427557
0.00492067
0.00462772
0.000557207
4.56147e-06
0.00132873
0.00852726
1.7441
16.4006
53.5707
79.0496
62.8148
33.5606
14.3324
7.18016
5.49614
5.76123
6.64317
7.68472
8.81506
9.98314
11.1544
12.2356
13.0142
13.291
12.8464
11.5739
9.45875
6.69773
3.73796
1.4008
0.381589
0.914196
2.66895
4.96175
7.72363
0.00206183
0.00207648
0.0021634
0.00229304
0.00243379
0.00252735
0.00259583
0.00289578
0.00303683
0.000934586
2.98855e-06
2.40334e-06
0.00527685
0.123263
3.13854
19.5891
51.5162
68.3236
53.5797
30.4426
15.2867
9.39863
8.15058
8.92022
10.5699
12.3611
14.1109
15.7135
16.9975
17.7512
17.7886
16.9369
15.1214
12.395
9.02927
5.60567
2.85868
1.12895
0.305041
0.0568001
0.221296
0.00117872
0.00119042
0.00123804
0.00131367
0.00140172
0.00149154
0.00156081
0.00159873
0.00173449
0.00189523
0.00117273
2.79266e-06
4.16662e-08
0.00053778
0.000548394
0.250647
3.71977
18.8132
44.8732
58.5834
48.4454
31.8917
20.6324
15.0618
13.2533
13.6562
15.3985
17.6848
19.8088
21.3488
22.1224
21.9892
20.8559
18.707
15.7374
12.2922
8.9722
6.25959
4.38098
3.15693
2.33012
0.000672299
0.000680823
0.000706827
0.000749591
0.000802418
0.000860103
0.000919363
0.000967812
0.00100079
0.00105515
0.001212
0.00101016
9.52237e-05
5.65663e-07
3.16058e-07
0.00319924
0.00412518
0.268989
3.21349
15.1631
36.1668
50.1686
48.4831
40.3283
32.6309
26.7538
23.222
21.7877
21.7301
22.3781
23.1402
23.5922
23.4203
22.432
20.672
18.338
15.6942
13.1602
11.1785
10.045
9.18015
0.000381632
0.000387572
0.000401975
0.00042582
0.000456625
0.000492078
0.000530253
0.000569549
0.000605215
0.000631266
0.000659439
0.000754594
0.000692468
0.000412492
5.55823e-07
3.44518e-08
4.71651e-06
0.00463104
0.00421245
0.173026
2.04019
9.48431
23.3624
37.585
45.6422
47.7719
47.122
45.1209
42.2997
39.3316
36.6821
34.3654
32.2215
30.027
27.715
25.376
22.8738
20.0139
17.9834
17.6903
17.7972
0.000215197
0.000219136
0.000227176
0.000240378
0.00025788
0.000278782
0.000302372
0.000327761
0.000354024
0.000379688
0.000399834
0.000424067
0.000454739
0.000503205
0.000394599
0.000145906
5.81367e-07
1.57105e-09
7.40038e-06
0.00457848
0.00224068
0.0517124
0.569766
2.84275
8.15773
16.1989
24.9164
32.3495
37.8339
41.4715
43.4169
43.7386
42.6071
40.2662
37.0173
33.2436
29.4349
26.0518
23.3734
21.706
21.3973
0.000120943
0.000123434
0.000127984
0.000135313
0.000145128
0.000157117
0.000170986
0.000186443
0.000203169
0.000220751
0.00023842
0.000254981
0.000270788
0.000290237
0.000320862
0.000337865
0.00023762
4.22181e-05
2.55576e-07
9.43102e-10
1.14451e-06
0.00180421
0.0102662
0.00343962
0.0263866
0.168736
0.653239
1.6888
3.27493
5.16301
6.98975
8.43275
9.29946
9.54251
9.21582
8.47788
7.57987
6.81664
6.36749
6.36987
6.67537
6.91942e-05
7.07728e-05
7.34751e-05
7.77053e-05
8.33744e-05
9.03616e-05
9.85726e-05
0.000107884
0.00011819
0.000129401
0.000141265
0.000153524
0.000165965
0.000177689
0.000191158
0.000209368
0.00023941
0.00023694
0.000164666
2.43561e-05
1.62868e-07
1.29299e-09
0
2.08625e-06
0.00186955
0.0112768
4.4731e-05
0.00816602
0.0122715
0.0134361
0.00927915
0.00326047
9.434e-05
0.00589497
0.0290595
0.0784736
0.159447
0.268071
0.390101
0.510423
0.581156
4.1024e-05
4.20506e-05
4.37259e-05
4.62737e-05
4.96739e-05
5.38934e-05
5.89047e-05
6.46741e-05
7.11743e-05
7.83502e-05
8.61169e-05
9.43817e-05
0.00010312
0.000112152
0.000121358
0.000130763
0.000143011
0.000160231
0.000180298
0.00017845
0.000114966
3.52062e-05
1.7051e-07
1.60522e-09
2.84441e-10
4.83449e-15
7.36949e-10
1.59345e-05
0.000688483
0.00569078
0.012378
0.0185846
0.0247521
7.81796e-05
0.0138184
0.0120981
0.0105974
0.0148587
0.0118638
0.00984196
0.0108498
2.521e-05
2.58798e-05
2.69405e-05
2.8515e-05
3.06071e-05
3.32142e-05
3.63277e-05
3.9946e-05
4.40657e-05
4.86662e-05
5.375e-05
5.9254e-05
6.51531e-05
7.14364e-05
7.80735e-05
8.49699e-05
9.21662e-05
0.000100279
0.000110743
0.000125227
0.000140037
0.000146963
0.000107315
5.40508e-05
1.09887e-05
2.13547e-10
2.11414e-09
6.27903e-10
2.29761e-10
4.81001e-11
3.36864e-12
2.96744e-15
0
3.44545e-10
1.22465e-06
5.94371e-07
2.92742e-07
6.5564e-07
2.35354e-07
1.09677e-07
1.15243e-07
1.59113e-05
1.63478e-05
1.70323e-05
1.80253e-05
1.93407e-05
2.09826e-05
2.29519e-05
2.52488e-05
2.78721e-05
3.0837e-05
3.41291e-05
3.77411e-05
4.16523e-05
4.58583e-05
5.03506e-05
5.51322e-05
6.01773e-05
6.54881e-05
7.11867e-05
7.76837e-05
8.63411e-05
9.79214e-05
0.000112645
0.000119829
0.000115338
9.32023e-05
6.15901e-05
3.40179e-05
1.393e-05
3.25527e-06
2.52089e-07
2.43872e-10
1.27523e-09
5.3509e-10
4.19437e-10
3.37433e-10
2.76473e-10
2.41338e-10
2.08623e-10
1.85726e-10
1.64933e-10
1.02626e-05
1.05485e-05
1.09974e-05
1.16364e-05
1.24782e-05
1.35302e-05
1.47942e-05
1.62704e-05
1.79616e-05
1.98763e-05
2.20064e-05
2.43652e-05
2.69338e-05
2.97015e-05
3.26679e-05
3.58303e-05
3.91886e-05
4.27377e-05
4.64885e-05
5.04193e-05
5.47214e-05
5.96773e-05
6.59486e-05
7.32973e-05
8.13087e-05
8.95409e-05
9.51692e-05
9.75794e-05
9.6011e-05
9.06458e-05
8.24675e-05
7.28105e-05
6.29669e-05
5.36032e-05
4.62691e-05
4.1069e-05
3.73184e-05
3.47501e-05
3.3286e-05
3.23004e-05
3.20243e-05
6.73516e-06
6.9245e-06
7.22287e-06
7.64009e-06
8.1862e-06
8.86953e-06
9.6905e-06
1.06495e-05
1.17481e-05
1.29875e-05
1.43747e-05
1.59118e-05
1.75915e-05
1.94006e-05
2.13359e-05
2.33922e-05
2.55682e-05
2.78527e-05
3.02495e-05
3.27403e-05
3.53788e-05
3.81581e-05
4.10142e-05
4.39995e-05
4.72031e-05
5.06858e-05
5.44228e-05
5.82662e-05
6.1984e-05
6.53531e-05
6.81977e-05
7.04134e-05
7.19424e-05
7.27662e-05
7.26882e-05
7.20291e-05
7.09186e-05
6.93596e-05
6.76161e-05
6.52072e-05
6.39411e-05
4.48481e-06
4.61083e-06
4.81119e-06
5.0874e-06
5.44685e-06
5.89602e-06
6.43541e-06
7.06435e-06
7.78379e-06
8.59345e-06
9.49915e-06
1.04981e-05
1.15943e-05
1.27733e-05
1.40283e-05
1.53544e-05
1.67472e-05
1.81965e-05
1.96954e-05
2.12292e-05
2.283e-05
2.44957e-05
2.61387e-05
2.77175e-05
2.92277e-05
3.06695e-05
3.20423e-05
3.33419e-05
3.45603e-05
3.56684e-05
3.66364e-05
3.74216e-05
3.79977e-05
3.83375e-05
3.84292e-05
3.82607e-05
3.78354e-05
3.71342e-05
3.62801e-05
3.49503e-05
3.44325e-05
3.02217e-06
3.10735e-06
3.24373e-06
3.42892e-06
3.66833e-06
3.96705e-06
4.32497e-06
4.74145e-06
5.2163e-06
5.74975e-06
6.34149e-06
6.99418e-06
7.71083e-06
8.48009e-06
9.29311e-06
1.01458e-05
1.10324e-05
1.1946e-05
1.28765e-05
1.38113e-05
1.4766e-05
1.57451e-05
1.6695e-05
1.75846e-05
1.8404e-05
1.91441e-05
1.97967e-05
2.03491e-05
2.07997e-05
2.1138e-05
2.13652e-05
2.14751e-05
2.14697e-05
2.13447e-05
2.11108e-05
2.07728e-05
2.03374e-05
1.97926e-05
1.92173e-05
1.83837e-05
1.81945e-05
2.05763e-06
2.11541e-06
2.20947e-06
2.33529e-06
2.49662e-06
2.69729e-06
2.93721e-06
3.21542e-06
3.53151e-06
3.88529e-06
4.27514e-06
4.70486e-06
5.17335e-06
5.67572e-06
6.20372e-06
6.75246e-06
7.31689e-06
7.8916e-06
8.46855e-06
9.03693e-06
9.6056e-06
1.0179e-05
1.07244e-05
1.12222e-05
1.16674e-05
1.20566e-05
1.23851e-05
1.26481e-05
1.28426e-05
1.29671e-05
1.30213e-05
1.30076e-05
1.29246e-05
1.27766e-05
1.25703e-05
1.23141e-05
1.20095e-05
1.16497e-05
1.12923e-05
1.07628e-05
1.07634e-05
1.41269e-06
1.45307e-06
1.51856e-06
1.60477e-06
1.71471e-06
1.85097e-06
2.01331e-06
2.20081e-06
2.41292e-06
2.64925e-06
2.90843e-06
3.19212e-06
3.49913e-06
3.82859e-06
4.17331e-06
4.52809e-06
4.88915e-06
5.25199e-06
5.61132e-06
5.95848e-06
6.29953e-06
6.63851e-06
6.95514e-06
7.23765e-06
7.48296e-06
7.69059e-06
7.8585e-06
7.98575e-06
8.07047e-06
8.11437e-06
8.11767e-06
8.08314e-06
8.00992e-06
7.90186e-06
7.76348e-06
7.60047e-06
7.41279e-06
7.19527e-06
6.99193e-06
6.66206e-06
6.77294e-06
9.77319e-07
1.00559e-06
1.05171e-06
1.11164e-06
1.18742e-06
1.2809e-06
1.3918e-06
1.51927e-06
1.66284e-06
1.82198e-06
1.99577e-06
2.1838e-06
2.38656e-06
2.60391e-06
2.83023e-06
3.06114e-06
3.29356e-06
3.52427e-06
3.7496e-06
3.96353e-06
4.17015e-06
4.37365e-06
4.56084e-06
4.72499e-06
4.86411e-06
4.97907e-06
5.06856e-06
5.13298e-06
5.17193e-06
5.18712e-06
5.17887e-06
5.1494e-06
5.09902e-06
5.03005e-06
4.94586e-06
4.84981e-06
4.74155e-06
4.61611e-06
4.5085e-06
4.30173e-06
4.4657e-06
6.80344e-07
7.00731e-07
7.33467e-07
7.75545e-07
8.2838e-07
8.93153e-07
9.69595e-07
1.05704e-06
1.15502e-06
1.26307e-06
1.38046e-06
1.5063e-06
1.64154e-06
1.78548e-06
1.93491e-06
2.0864e-06
2.23732e-06
2.38543e-06
2.52824e-06
2.66166e-06
2.78874e-06
2.91311e-06
3.02642e-06
3.12444e-06
3.20643e-06
3.27294e-06
3.32403e-06
3.3599e-06
3.38114e-06
3.3883e-06
3.38251e-06
3.36499e-06
3.33639e-06
3.29773e-06
3.25161e-06
3.19979e-06
3.14186e-06
3.07327e-06
3.02216e-06
2.89122e-06
3.07302e-06
4.7628e-07
4.91033e-07
5.1466e-07
5.44566e-07
5.8172e-07
6.27066e-07
6.80287e-07
7.40837e-07
8.08303e-07
8.82297e-07
9.62234e-07
1.04738e-06
1.13818e-06
1.23404e-06
1.33356e-06
1.43397e-06
1.53309e-06
1.62936e-06
1.72121e-06
1.80582e-06
1.88566e-06
1.96355e-06
2.03424e-06
2.09498e-06
2.14582e-06
2.18705e-06
2.21902e-06
2.2419e-06
2.2564e-06
2.26287e-06
2.26216e-06
2.25509e-06
2.24201e-06
2.22343e-06
2.20109e-06
2.17617e-06
2.14803e-06
2.11293e-06
2.09328e-06
2.00839e-06
2.18731e-06
3.3492e-07
3.45871e-07
3.63019e-07
3.8451e-07
4.11006e-07
4.43093e-07
4.80522e-07
5.22843e-07
5.69738e-07
6.20881e-07
6.75843e-07
7.34053e-07
7.95493e-07
8.59903e-07
9.26865e-07
9.94125e-07
1.06012e-06
1.12358e-06
1.18363e-06
1.23828e-06
1.28967e-06
1.33986e-06
1.38555e-06
1.42487e-06
1.45805e-06
1.48542e-06
1.50743e-06
1.52411e-06
1.53593e-06
1.54327e-06
1.54664e-06
1.54655e-06
1.54309e-06
1.53667e-06
1.52837e-06
1.51902e-06
1.50787e-06
1.49199e-06
1.48912e-06
1.43273e-06
1.59798e-06
2.36388e-07
2.44611e-07
2.57295e-07
2.72916e-07
2.91995e-07
3.14954e-07
3.41525e-07
3.71381e-07
4.0428e-07
4.39963e-07
4.78108e-07
5.18315e-07
5.60291e-07
6.04085e-07
6.49598e-07
6.95179e-07
7.39686e-07
7.8222e-07
8.22212e-07
8.58373e-07
8.92332e-07
9.25749e-07
9.56327e-07
9.83003e-07
1.00586e-06
1.02526e-06
1.0415e-06
1.05477e-06
1.06521e-06
1.07316e-06
1.0789e-06
1.08287e-06
1.08493e-06
1.08543e-06
1.085e-06
1.08429e-06
1.08249e-06
1.07737e-06
1.08289e-06
1.04453e-06
1.19095e-06
1.674e-07
1.73689e-07
1.83091e-07
1.94594e-07
2.08482e-07
2.25023e-07
2.44071e-07
2.65358e-07
2.88674e-07
3.13822e-07
3.40552e-07
3.68591e-07
3.97623e-07
4.27809e-07
4.58982e-07
4.90236e-07
5.20674e-07
5.49654e-07
5.76797e-07
6.01288e-07
6.24314e-07
6.47241e-07
6.68403e-07
6.87185e-07
7.03659e-07
7.18171e-07
7.30813e-07
7.41787e-07
7.51197e-07
7.5928e-07
7.66145e-07
7.721e-07
7.76975e-07
7.81002e-07
7.84545e-07
7.88038e-07
7.9084e-07
7.91175e-07
8.00046e-07
7.73154e-07
8.98674e-07
1.18833e-07
1.23693e-07
1.30782e-07
1.39295e-07
1.49478e-07
1.61533e-07
1.75335e-07
1.90672e-07
2.07376e-07
2.25294e-07
2.44226e-07
2.63988e-07
2.84324e-07
3.05352e-07
3.26927e-07
3.48645e-07
3.69772e-07
3.89877e-07
4.08648e-07
4.25639e-07
4.41682e-07
4.57829e-07
4.72911e-07
4.86551e-07
4.98783e-07
5.0991e-07
5.2e-07
5.29141e-07
5.3743e-07
5.4502e-07
5.51969e-07
5.58431e-07
5.6429e-07
5.69669e-07
5.74813e-07
5.79964e-07
5.8467e-07
5.875e-07
5.9706e-07
5.77822e-07
6.82522e-07
8.45411e-08
8.83344e-08
9.36796e-08
1.00059e-07
1.0761e-07
1.16487e-07
1.26587e-07
1.3775e-07
1.49839e-07
1.62738e-07
1.76303e-07
1.90389e-07
2.04813e-07
2.19599e-07
2.34722e-07
2.49997e-07
2.64885e-07
2.79057e-07
2.9231e-07
3.04348e-07
3.15837e-07
3.27492e-07
3.38553e-07
3.48741e-07
3.58116e-07
3.66842e-07
3.7502e-07
3.82679e-07
3.89886e-07
3.96707e-07
4.03206e-07
4.09458e-07
4.15378e-07
4.20991e-07
4.26489e-07
4.31998e-07
4.37202e-07
4.40937e-07
4.49825e-07
4.35891e-07
5.21046e-07
6.02335e-08
6.32158e-08
6.72915e-08
7.2101e-08
7.77618e-08
8.43543e-08
9.18175e-08
1.00017e-07
1.08851e-07
1.18234e-07
1.28054e-07
1.38209e-07
1.48571e-07
1.591e-07
1.69813e-07
1.80681e-07
1.91289e-07
2.01399e-07
2.10886e-07
2.19533e-07
2.27833e-07
2.36313e-07
2.44474e-07
2.52107e-07
2.59284e-07
2.66113e-07
2.7265e-07
2.78936e-07
2.85002e-07
2.90883e-07
2.96592e-07
3.0217e-07
3.07537e-07
3.12703e-07
3.17775e-07
3.22826e-07
3.27615e-07
3.31275e-07
3.38755e-07
3.28468e-07
3.95614e-07
4.29806e-08
4.53263e-08
4.84398e-08
5.21016e-08
5.6371e-08
6.13108e-08
6.68675e-08
7.29462e-08
7.94665e-08
8.63546e-08
9.35367e-08
1.0093e-07
1.08457e-07
1.16048e-07
1.23753e-07
1.31574e-07
1.39242e-07
1.46567e-07
1.53471e-07
1.59818e-07
1.65968e-07
1.72276e-07
1.78437e-07
1.84286e-07
1.8987e-07
1.95281e-07
2.00566e-07
2.05716e-07
2.10751e-07
2.15673e-07
2.20502e-07
2.25226e-07
2.29805e-07
2.34217e-07
2.38543e-07
2.42789e-07
2.4681e-07
2.49938e-07
2.55794e-07
2.48182e-07
2.99231e-07
3.06948e-08
3.25475e-08
3.49385e-08
3.77318e-08
4.09721e-08
4.46944e-08
4.88602e-08
5.34069e-08
5.82633e-08
6.33693e-08
6.86666e-08
7.40984e-08
7.96125e-08
8.51414e-08
9.07456e-08
9.64121e-08
1.01981e-07
1.07318e-07
1.12374e-07
1.17057e-07
1.21628e-07
1.26328e-07
1.30955e-07
1.35397e-07
1.39691e-07
1.43887e-07
1.48018e-07
1.52074e-07
1.56068e-07
1.59989e-07
1.63845e-07
1.67624e-07
1.71293e-07
1.74819e-07
1.78243e-07
1.81568e-07
1.84679e-07
1.87106e-07
1.91375e-07
1.85807e-07
2.22954e-07
2.19401e-08
2.33951e-08
2.52322e-08
2.73811e-08
2.98494e-08
3.26614e-08
3.57984e-08
3.92103e-08
4.28465e-08
4.66611e-08
5.06042e-08
5.46336e-08
5.87071e-08
6.27833e-08
6.69052e-08
7.10753e-08
7.51945e-08
7.91603e-08
8.29297e-08
8.64548e-08
8.99041e-08
9.3452e-08
9.69686e-08
1.00372e-07
1.03677e-07
1.06929e-07
1.10144e-07
1.13318e-07
1.16444e-07
1.19521e-07
1.2254e-07
1.25495e-07
1.2834e-07
1.3106e-07
1.33663e-07
1.36158e-07
1.38443e-07
1.40223e-07
1.43172e-07
1.39176e-07
1.64753e-07
1.56812e-08
1.68199e-08
1.82358e-08
1.98876e-08
2.17823e-08
2.39233e-08
2.62866e-08
2.88463e-08
3.15626e-08
3.4408e-08
3.73529e-08
4.03627e-08
4.33985e-08
4.64177e-08
4.94363e-08
5.24712e-08
5.54838e-08
5.84036e-08
6.11937e-08
6.3824e-08
6.63972e-08
6.90213e-08
7.16286e-08
7.41578e-08
7.66158e-08
7.90272e-08
8.14044e-08
8.37421e-08
8.60327e-08
8.82672e-08
9.04397e-08
9.25387e-08
9.45279e-08
9.63897e-08
9.81243e-08
9.97266e-08
1.01131e-07
1.02148e-07
1.03819e-07
1.00854e-07
1.16665e-07
1.12152e-08
1.20952e-08
1.3176e-08
1.44421e-08
1.58846e-08
1.75118e-08
1.9307e-08
2.12424e-08
2.32834e-08
2.54022e-08
2.75833e-08
2.98167e-08
3.20892e-08
3.43748e-08
3.66637e-08
3.89421e-08
4.11744e-08
4.33175e-08
4.53595e-08
4.72953e-08
4.91943e-08
5.11288e-08
5.30634e-08
5.49546e-08
5.68011e-08
5.86187e-08
6.04053e-08
6.21562e-08
6.38595e-08
6.55115e-08
6.70941e-08
6.86e-08
6.99976e-08
7.12781e-08
7.24245e-08
7.34344e-08
7.42555e-08
7.47941e-08
7.56121e-08
7.35641e-08
8.22309e-08
8.03222e-09
8.71141e-09
9.53289e-09
1.04807e-08
1.15534e-08
1.27547e-08
1.40915e-08
1.55515e-08
1.71128e-08
1.87367e-08
2.03884e-08
2.20396e-08
2.36847e-08
2.53321e-08
2.70134e-08
2.87474e-08
3.05035e-08
3.22123e-08
3.38311e-08
3.53429e-08
3.67786e-08
3.818e-08
3.95421e-08
4.08404e-08
4.20751e-08
4.32634e-08
4.44038e-08
4.54949e-08
4.65254e-08
4.7493e-08
4.83818e-08
4.91838e-08
4.98766e-08
5.04518e-08
5.08935e-08
5.11926e-08
5.13259e-08
5.12446e-08
5.12072e-08
4.9618e-08
5.23761e-08
5.75775e-09
6.2723e-09
6.89515e-09
7.60806e-09
8.3934e-09
9.25546e-09
1.02016e-08
1.12383e-08
1.23692e-08
1.35908e-08
1.4887e-08
1.62192e-08
1.75337e-08
1.87726e-08
1.99106e-08
2.09735e-08
2.20182e-08
2.30628e-08
2.41073e-08
2.5138e-08
2.61561e-08
2.71785e-08
2.81933e-08
2.91729e-08
3.01093e-08
3.10033e-08
3.18524e-08
3.26497e-08
3.33867e-08
3.40534e-08
3.46409e-08
3.51386e-08
3.55352e-08
3.58178e-08
3.5978e-08
3.60061e-08
3.58903e-08
3.56233e-08
3.52468e-08
3.42129e-08
3.39948e-08
4.11778e-09
4.48689e-09
4.93825e-09
5.46348e-09
6.05344e-09
6.70555e-09
7.41019e-09
8.15041e-09
8.91544e-09
9.70608e-09
1.05423e-08
1.14581e-08
1.24888e-08
1.36514e-08
1.4933e-08
1.62507e-08
1.74782e-08
1.85613e-08
1.94991e-08
2.03173e-08
2.10349e-08
2.16622e-08
2.22277e-08
2.27213e-08
2.31479e-08
2.35135e-08
2.38208e-08
2.4067e-08
2.42485e-08
2.43592e-08
2.43933e-08
2.43432e-08
2.42023e-08
2.39628e-08
2.3621e-08
2.31693e-08
2.26146e-08
2.19515e-08
2.11731e-08
2.02313e-08
1.76515e-08
2.95823e-09
3.20522e-09
3.48909e-09
3.81516e-09
4.19572e-09
4.65726e-09
5.21262e-09
5.85478e-09
6.55007e-09
7.24236e-09
7.8646e-09
8.36079e-09
8.70879e-09
8.93006e-09
9.08564e-09
9.31487e-09
9.73112e-09
1.02793e-08
1.08949e-08
1.15288e-08
1.2156e-08
1.27701e-08
1.33557e-08
1.38939e-08
1.43727e-08
1.47856e-08
1.51284e-08
1.53946e-08
1.55795e-08
1.5678e-08
1.56872e-08
1.56017e-08
1.54204e-08
1.51409e-08
1.47627e-08
1.42873e-08
1.37165e-08
1.30944e-08
1.22914e-08
1.17216e-08
9.25643e-09
2.16686e-09
2.35836e-09
2.54386e-09
2.71431e-09
2.87686e-09
3.05583e-09
3.28029e-09
3.58348e-09
4.00681e-09
4.59508e-09
5.38869e-09
6.40822e-09
7.64167e-09
9.03199e-09
1.05007e-08
1.17761e-08
1.26156e-08
1.31882e-08
1.35849e-08
1.38594e-08
1.40187e-08
1.40793e-08
1.40725e-08
1.40035e-08
1.38759e-08
1.36946e-08
1.346e-08
1.31748e-08
1.28377e-08
1.24495e-08
1.20095e-08
1.15202e-08
1.09842e-08
1.0408e-08
9.80129e-09
9.17297e-09
8.55352e-09
7.93536e-09
7.42832e-09
6.74481e-09
6.17929e-09
1.63235e-09
1.80732e-09
1.98626e-09
2.14708e-09
2.26741e-09
2.33928e-09
2.36598e-09
2.3612e-09
2.349e-09
2.35489e-09
2.39967e-09
2.49322e-09
2.62983e-09
2.78837e-09
2.92637e-09
3.13039e-09
3.45408e-09
3.84959e-09
4.29459e-09
4.76074e-09
5.23208e-09
5.69494e-09
6.13592e-09
6.54335e-09
6.90044e-09
7.19541e-09
7.41646e-09
7.55454e-09
7.59942e-09
7.54476e-09
7.38427e-09
7.11625e-09
6.74077e-09
6.26282e-09
5.68765e-09
5.03265e-09
4.30104e-09
3.57859e-09
2.69304e-09
2.3206e-09
7.64968e-10
1.28898e-09
1.30289e-09
1.37772e-09
1.67625e-09
2.33657e-09
3.42193e-09
4.89649e-09
6.64216e-09
8.49287e-09
1.02753e-08
1.18421e-08
1.30925e-08
1.39838e-08
1.45139e-08
1.47689e-08
1.44854e-08
1.38823e-08
1.32971e-08
1.28036e-08
1.23992e-08
1.20497e-08
1.18615e-08
1.17279e-08
1.16384e-08
1.15718e-08
1.15081e-08
1.14346e-08
1.13381e-08
1.12124e-08
1.10515e-08
1.08579e-08
1.0638e-08
1.04098e-08
1.01966e-08
1.00455e-08
1.00034e-08
1.01768e-08
1.05172e-08
1.17627e-08
1.12876e-08
2.21808e-08
1018.24
525.36
248.876
72.267
2.21331
0.300585
0.0196867
1.04704e-06
0.00142013
1.5498e-05
0.0997566
4.64485
4.73403
0.486605
1.36314
5.45851
9.95069
13.9349
17.4839
20.7385
23.7941
26.4516
28.265
28.5427
26.4797
21.5772
14.2015
6.3495
1.28107
0.0398781
0.000171212
6.86419e-12
5.79623e-07
3.45259e-05
3.57781e-05
2.40319e-05
2.19368e-05
2.58531e-05
3.09158e-05
3.40535e-05
3.48055e-05
3.40942e-05
3.24462e-05
2.98172e-05
2.6365e-05
2.22417e-05
1.77044e-05
1.33756e-05
9.54961e-06
6.37938e-06
3.99929e-06
2.34122e-06
1.27911e-06
6.62461e-07
3.44903e-07
1.94386e-07
1.75785e-07
1.9618e-07
2.3709e-07
2.76842e-07
3.0216e-07
3.20405e-07
3.20599e-07
3.11411e-07
2.9907e-07
2.74235e-07
2.56255e-07
2.29851e-07
2.0724e-07
1.82918e-07
1.63364e-07
1.41512e-07
1.23271e-07
1.08562e-07
780.117
701.39
415.217
184.018
27.2165
0.0493507
0.101844
1.7208e-06
2.38905e-08
0.0024214
0.521321
4.24779
2.3899
0.459039
1.48052
3.21549
4.74659
6.08736
7.53533
9.27333
11.4649
14.1083
17.0191
19.7538
21.547
21.4541
18.612
12.9504
6.08374
1.27057
0.041972
0.000239023
5.62957e-10
1.63841e-07
3.4385e-05
3.75517e-05
2.41744e-05
2.182e-05
2.53483e-05
2.9192e-05
3.07532e-05
3.02737e-05
2.86436e-05
2.5984e-05
2.27008e-05
1.89703e-05
1.48895e-05
1.11118e-05
7.903e-06
5.24861e-06
3.27875e-06
1.93532e-06
1.07181e-06
5.76671e-07
3.16688e-07
1.95312e-07
1.80692e-07
1.95489e-07
2.2764e-07
2.59061e-07
2.77361e-07
2.9153e-07
2.90104e-07
2.79434e-07
2.68612e-07
2.45446e-07
2.29433e-07
2.06144e-07
1.85695e-07
1.63594e-07
1.46612e-07
1.26695e-07
1.10481e-07
9.70376e-08
417.133
607.826
503.466
311.254
99.1465
3.77207
0.361246
0.0476949
3.77055e-11
0.0147202
0.86617
2.85426
1.03123
0.8117
1.74222
2.19221
2.14309
1.93393
1.8606
2.09019
2.79461
4.11971
6.1577
8.86005
11.9045
14.6364
16.0491
15.0797
11.265
5.65576
1.28897
0.0555392
0.000500915
1.57097e-10
8.33272e-10
2.39877e-05
3.77722e-05
2.36832e-05
2.02218e-05
2.28371e-05
2.53964e-05
2.56963e-05
2.43025e-05
2.1834e-05
1.8818e-05
1.55972e-05
1.21326e-05
8.97836e-06
6.39199e-06
4.26431e-06
2.69391e-06
1.63619e-06
9.48128e-07
5.50445e-07
3.31891e-07
2.29389e-07
2.07412e-07
2.09691e-07
2.28897e-07
2.46905e-07
2.58493e-07
2.62723e-07
2.59947e-07
2.48733e-07
2.36934e-07
2.17504e-07
2.00604e-07
1.81447e-07
1.63244e-07
1.44011e-07
1.28708e-07
1.11423e-07
9.72333e-08
8.52311e-08
229.26
457
493.413
395.897
204.722
33.1779
0.282076
0.159787
0.000248057
0.0299155
0.977142
2.06122
0.703193
1.39769
2.75401
3.25426
2.99643
2.38658
1.69806
1.06161
0.605931
0.492807
0.933903
2.13233
4.17389
6.90256
9.77968
11.8817
12.1114
9.71901
5.27052
1.37538
0.0849196
0.00123005
3.56208e-06
3.74906e-08
9.13271e-06
3.58633e-05
2.50932e-05
1.86723e-05
1.9375e-05
2.07066e-05
2.0164e-05
1.81169e-05
1.54499e-05
1.26999e-05
9.82721e-06
7.25645e-06
5.19078e-06
3.49773e-06
2.25973e-06
1.42449e-06
8.72198e-07
5.45055e-07
3.54455e-07
2.63316e-07
2.30708e-07
2.20885e-07
2.27234e-07
2.33734e-07
2.38382e-07
2.3552e-07
2.30999e-07
2.19811e-07
2.07579e-07
1.91054e-07
1.74609e-07
1.58635e-07
1.42739e-07
1.26138e-07
1.12573e-07
9.75198e-08
8.5318e-08
7.46739e-08
142.76
331.357
425.447
413.07
299.381
105.76
6.07055
0.45224
0.00154172
0.0447247
0.924204
1.58201
0.70062
1.93971
3.84987
4.9287
5.12566
4.79443
4.17581
3.36229
2.41078
1.41303
0.556846
0.107712
0.354148
1.50396
3.53976
6.09155
8.39114
9.38723
8.16391
4.87324
1.51477
0.13815
0.000508855
0.000117066
9.00577e-09
2.49086e-08
1.83193e-05
2.46727e-05
1.7486e-05
1.58397e-05
1.58513e-05
1.46971e-05
1.26e-05
1.0308e-05
7.95712e-06
5.8966e-06
4.25898e-06
2.91539e-06
1.93884e-06
1.2729e-06
8.22423e-07
5.45615e-07
3.73844e-07
2.8906e-07
2.45283e-07
2.25632e-07
2.20151e-07
2.18367e-07
2.16051e-07
2.09798e-07
2.0348e-07
1.92405e-07
1.80853e-07
1.66221e-07
1.51622e-07
1.38041e-07
1.24373e-07
1.10047e-07
9.83839e-08
8.51334e-08
7.48075e-08
6.54169e-08
103.047
240.94
341.555
375.384
343.796
200.919
39.4592
1.07451
0.238408
0.0698406
0.796145
1.27828
0.826868
2.32589
4.62196
6.31358
7.15825
7.3959
7.23439
6.74605
5.9278
4.77731
3.37948
1.92371
0.701763
0.0491806
0.25298
1.41914
3.35498
5.48263
6.8694
6.57631
4.40103
1.66216
0.227083
0.00434279
0.000327672
1.87228e-11
3.51311e-08
5.71459e-06
1.92537e-05
1.54791e-05
1.23701e-05
1.12756e-05
1.00081e-05
8.32004e-06
6.45751e-06
4.83161e-06
3.55042e-06
2.4908e-06
1.71686e-06
1.17958e-06
8.03348e-07
5.60966e-07
4.00496e-07
3.15224e-07
2.60225e-07
2.30302e-07
2.13918e-07
2.04514e-07
1.96194e-07
1.87083e-07
1.79067e-07
1.67902e-07
1.57165e-07
1.44168e-07
1.31473e-07
1.19872e-07
1.08149e-07
9.57931e-08
8.59319e-08
7.42445e-08
6.55983e-08
5.73307e-08
84.5097
177.431
263.465
310.641
330.402
272.936
111.956
11.3482
0.629702
0.000302252
0.64453
1.10402
0.994752
2.4596
4.75331
6.76892
8.13336
8.93909
9.3425
9.41144
9.11661
8.38688
7.1969
5.60534
3.78842
2.02463
0.661566
0.0206802
0.301696
1.47123
3.15188
4.60943
4.97676
3.8031
1.75517
0.350677
0.0175459
0.00084303
1.09109e-05
7.32569e-09
4.34693e-07
1.1951e-05
1.36072e-05
9.61189e-06
7.76488e-06
6.57687e-06
5.24435e-06
4.00976e-06
3.025e-06
2.1954e-06
1.5784e-06
1.13849e-06
8.15965e-07
5.95442e-07
4.398e-07
3.48158e-07
2.81517e-07
2.39789e-07
2.12798e-07
1.95139e-07
1.81348e-07
1.68653e-07
1.58778e-07
1.47239e-07
1.3686e-07
1.25339e-07
1.14088e-07
1.04151e-07
9.40591e-08
8.33926e-08
7.50895e-08
6.47799e-08
5.76121e-08
5.03174e-08
72.4268
130.981
196.267
240.168
277.249
289.87
195.921
52.3996
3.45357
0.246822
0.446089
1.01162
1.14703
2.34804
4.23514
6.15033
7.72639
8.91099
9.77892
10.3891
10.7155
10.6643
10.1395
9.08544
7.53614
5.6283
3.61283
1.79981
0.510248
0.00390443
0.37398
1.43907
2.69722
3.42666
3.05221
1.7266
0.488313
0.0469749
0.000497811
0.000142802
2.55101e-09
2.41877e-08
2.92754e-06
9.13939e-06
7.26993e-06
5.36068e-06
4.24718e-06
3.36588e-06
2.64293e-06
2.00066e-06
1.50541e-06
1.13864e-06
8.5517e-07
6.46819e-07
4.90755e-07
3.89084e-07
3.09854e-07
2.55418e-07
2.17534e-07
1.91185e-07
1.71548e-07
1.54758e-07
1.42624e-07
1.30448e-07
1.19962e-07
1.09477e-07
9.92792e-08
9.06657e-08
8.19622e-08
7.2717e-08
6.57354e-08
5.65943e-08
5.07227e-08
4.42606e-08
57.3106
91.6159
136.383
172.36
208.165
250.686
243.482
125.625
22.6307
1.16017
0.311926
0.907893
1.25017
2.08441
3.32468
4.76673
6.19441
7.47542
8.5886
9.56054
10.3767
10.9581
11.1916
10.9612
10.1952
8.89073
7.15066
5.159
3.1693
1.47679
0.362026
0.00372496
0.387779
1.23679
2.0267
2.18898
1.53371
0.596472
0.0952157
0.00363024
3.75142e-08
7.46547e-07
3.96994e-09
1.94361e-07
5.00209e-06
5.48987e-06
3.84908e-06
2.91211e-06
2.36454e-06
1.88007e-06
1.48303e-06
1.1714e-06
9.15516e-07
7.12513e-07
5.51741e-07
4.38053e-07
3.45215e-07
2.77525e-07
2.28228e-07
1.92808e-07
1.66707e-07
1.45445e-07
1.30542e-07
1.17315e-07
1.06313e-07
9.63408e-08
8.6857e-08
7.92128e-08
7.16532e-08
6.3579e-08
5.77089e-08
4.95409e-08
4.47982e-08
3.90394e-08
34.9922
52.5808
79.2713
106.226
136.659
179.36
224.917
189.953
74.4556
9.45376
0.647664
0.778642
1.29307
1.7859
2.3658
3.14915
4.14163
5.23157
6.33155
7.41794
8.4749
9.45037
10.2537
10.7659
10.8714
10.48
9.56987
8.18399
6.43929
4.52748
2.69571
1.2035
0.270821
0.00522911
0.322558
0.913051
1.3177
1.18184
0.620091
0.153731
0.0138207
0.000133606
6.72291e-05
1.60018e-10
9.91513e-09
9.86071e-07
3.54513e-06
2.92505e-06
2.25646e-06
1.82544e-06
1.50225e-06
1.23228e-06
9.95211e-07
7.91606e-07
6.23297e-07
4.9509e-07
3.88637e-07
3.06557e-07
2.45446e-07
2.00123e-07
1.66913e-07
1.40701e-07
1.22487e-07
1.07601e-07
9.56599e-08
8.57617e-08
7.66587e-08
6.96297e-08
6.29272e-08
5.57808e-08
5.08387e-08
4.3485e-08
3.97157e-08
3.45375e-08
11.781
18.2484
29.7076
45.2759
67.3482
101.541
152.908
190.486
137.259
42.4365
5.04255
1.21678
1.35767
1.56134
1.62134
1.79723
2.24334
2.93637
3.79114
4.74952
5.78059
6.84989
7.90077
8.84765
9.5858
10.0016
10.0078
9.5491
8.62009
7.28136
5.65997
3.9336
2.31556
1.02477
0.234105
0.00172151
0.214689