/*--------------------------------*- C++ -*----------------------------------*\
| =========                 |                                                 |
| \\      /  F ield         | OpenFOAM: The Open Source CFD Toolbox           |
|  \\    /   O peration     | Version:  2312                                  |
|   \\  /    A nd           | Website:  www.openfoam.com                      |
|    \\/     M anipulation  |                                                 |
\*---------------------------------------------------------------------------*/
FoamFile
{
    version     2.0;
    format      ascii;
    arch        "LSB;label=32;scalar=64";
    class       volVectorField;
    location    "250";
    object      U;
}
// * * * * * * * * * * * * * * * * * * * * * * * * * * * * * * * * * * * * * //

dimensions      [0 1 -1 0 0 0 0];

internalField   nonuniform List<vector> 
11040
(
(-1.25047 9.08858 -6.13764e-19)
(0.323378 3.68694 -3.70244e-18)
(-1.33669 -2.16946 -5.43919e-17)
(-1.74561 -0.990492 -1.31004e-17)
(-1.7369 -0.919415 -5.74983e-18)
(-1.63554 -0.7028 -2.34653e-17)
(-1.56693 -0.57679 4.45368e-17)
(-1.51191 -0.47982 3.30071e-17)
(-1.46904 -0.405648 6.44702e-18)
(-1.43022 -0.345582 1.77435e-18)
(-1.3963 -0.29292 -3.01674e-17)
(-1.37225 -0.248496 4.33912e-18)
(-1.35548 -0.20985 1.18896e-17)
(-1.34754 -0.1748 9.69383e-18)
(-1.34931 -0.141429 -8.93351e-18)
(-1.36285 -0.110188 1.47718e-17)
(-1.38909 -0.0773663 6.61967e-18)
(-1.43867 -0.0439792 -1.62435e-17)
(-1.51196 -0.00484276 -4.80502e-19)
(-1.62769 0.0377113 2.45634e-18)
(-1.78566 0.0869658 -2.64976e-18)
(-1.98157 0.139439 -8.94634e-18)
(-2.21934 0.193027 8.84054e-18)
(-2.51077 0.250155 -8.82823e-18)
(-2.84863 0.311757 8.86843e-18)
(-3.21437 0.37758 1.56577e-17)
(-3.59875 0.447771 6.61323e-18)
(-3.99482 0.51935 6.17579e-18)
(-4.38459 0.591629 6.49793e-18)
(-4.75994 0.660421 8.60182e-18)
(-5.08782 0.724166 -1.49119e-17)
(-5.34298 0.775411 -1.12436e-17)
(-5.47845 0.809399 -3.36266e-17)
(-5.4683 0.819412 -1.88694e-17)
(-5.28513 0.802402 1.89827e-18)
(-4.9463 0.754515 -2.50487e-17)
(-4.43073 0.671031 6.17579e-19)
(-3.71067 0.539308 -1.4688e-17)
(-2.73874 0.333773 2.12754e-17)
(-1.61265 -0.0104645 1.96481e-17)
(-0.781059 -0.466353 -6.43291e-18)
(0.515261 10.08 3.15717e-19)
(1.93576 8.68251 -6.2849e-19)
(1.08927 3.38945 1.43449e-17)
(-0.977431 -0.843317 2.67621e-18)
(-1.66283 -0.945853 -6.43544e-19)
(-1.70967 -0.793695 7.51459e-18)
(-1.66065 -0.632283 -1.31404e-18)
(-1.62831 -0.530563 -1.9156e-17)
(-1.61032 -0.45146 8.41515e-19)
(-1.59242 -0.390093 -6.11025e-18)
(-1.5785 -0.336362 9.17194e-18)
(-1.575 -0.289501 -3.1902e-17)
(-1.5801 -0.250548 -2.43349e-18)
(-1.59679 -0.215848 -2.10667e-17)
(-1.62885 -0.182188 8.97385e-18)
(-1.67663 -0.15187 -3.44457e-18)
(-1.7444 -0.119595 -5.27904e-18)
(-1.83838 -0.088042 -5.10317e-18)
(-1.96771 -0.0493338 -6.43331e-19)
(-2.14435 -0.00594661 3.6062e-19)
(-2.37622 0.0502742 1.2565e-18)
(-2.65377 0.113783 3.56749e-18)
(-2.96952 0.179482 -5.41705e-18)
(-3.32551 0.249697 -1.22179e-18)
(-3.71099 0.326254 -1.48659e-18)
(-4.10997 0.408342 3.00793e-18)
(-4.50526 0.494857 1.83679e-18)
(-4.88051 0.580417 -1.03694e-17)
(-5.21249 0.664148 -8.61028e-19)
(-5.47978 0.736704 6.38375e-18)
(-5.6658 0.798763 8.15085e-18)
(-5.76251 0.842177 1.70903e-17)
(-5.76663 0.869913 1.44052e-17)
(-5.66791 0.873328 7.00615e-18)
(-5.45219 0.852035 -3.09096e-18)
(-5.07899 0.790746 1.16237e-17)
(-4.53662 0.689845 -8.39892e-18)
(-3.79064 0.542235 5.83082e-18)
(-2.78118 0.330595 -2.17581e-18)
(-1.57069 -0.0220371 -2.94516e-18)
(-0.630473 -0.465942 5.62544e-18)
(1.21597 8.61056 -1.04963e-20)
(2.61132 9.8038 1.65301e-18)
(3.02574 7.96881 -3.27898e-18)
(1.66276 3.56365 -6.71061e-18)
(-0.516958 -0.155172 8.33488e-19)
(-1.43899 -0.757601 -6.55665e-18)
(-1.59916 -0.674284 -1.11723e-17)
(-1.60447 -0.554147 -1.14057e-17)
(-1.61696 -0.473941 8.65059e-18)
(-1.62742 -0.414486 3.88405e-19)
(-1.63702 -0.359884 5.12933e-18)
(-1.65647 -0.307872 1.65734e-17)
(-1.68487 -0.264115 -1.2354e-17)
(-1.72415 -0.223932 1.30255e-17)
(-1.77933 -0.183498 -7.65735e-18)
(-1.85076 -0.14636 -3.27651e-18)
(-1.94252 -0.105816 1.48503e-18)
(-2.06114 -0.0664789 2.0146e-18)
(-2.21495 -0.019574 1.01593e-19)
(-2.41503 0.0319847 -8.0576e-20)
(-2.66696 0.0978351 -3.00741e-18)
(-2.95642 0.171224 -2.49927e-18)
(-3.26953 0.244285 5.36889e-19)
(-3.6053 0.318238 -3.54897e-19)
(-3.95434 0.395068 3.0782e-18)
(-4.30411 0.47397 -6.8883e-18)
(-4.64077 0.553358 -5.04625e-18)
(-4.95394 0.627868 7.45295e-18)
(-5.22971 0.698089 1.84672e-18)
(-5.45832 0.755477 -1.17567e-18)
(-5.62984 0.802642 -7.86638e-18)
(-5.73447 0.831099 3.40354e-18)
(-5.75653 0.843558 -7.89079e-18)
(-5.67472 0.827901 -1.04595e-17)
(-5.46491 0.782526 2.21453e-18)
(-5.10627 0.694012 5.37464e-18)
(-4.58526 0.563568 7.47435e-18)
(-3.86968 0.383798 -7.0516e-18)
(-2.90428 0.140351 -1.28747e-18)
(-1.74825 -0.242302 -1.59121e-18)
(-0.865353 -0.709364 -3.21001e-18)
(1.49587 7.93772 -1.13295e-20)
(2.50082 9.08675 -2.71625e-19)
(3.58145 9.57655 1.72433e-18)
(3.65094 7.65645 3.39689e-18)
(2.17492 3.85804 -6.33088e-19)
(0.0103931 0.442294 -7.22799e-18)
(-1.16869 -0.537727 3.54981e-18)
(-1.44484 -0.535359 5.23988e-18)
(-1.51994 -0.455756 -4.50684e-18)
(-1.56929 -0.407357 5.27998e-18)
(-1.60406 -0.362849 -1.24476e-17)
(-1.64376 -0.311306 1.64509e-18)
(-1.69151 -0.267091 1.70546e-18)
(-1.74723 -0.224884 -1.03718e-17)
(-1.81843 -0.180771 -4.79794e-18)
(-1.90503 -0.139161 2.88284e-18)
(-2.01131 -0.0921573 5.22941e-18)
(-2.14209 -0.0453536 2.3269e-18)
(-2.30434 0.00978337 -1.4224e-19)
(-2.50613 0.0699483 1.49201e-19)
(-2.75135 0.14408 8.08867e-19)
(-3.02431 0.224228 2.40641e-18)
(-3.31153 0.302185 8.22222e-19)
(-3.61373 0.37776 1.47258e-18)
(-3.9264 0.453012 2.26088e-18)
(-4.24158 0.5282 1.04241e-17)
(-4.55009 0.601972 -7.63139e-19)
(-4.84534 0.669661 -1.4015e-18)
(-5.11615 0.732447 -4.85993e-18)
(-5.35214 0.78203 -4.29564e-18)
(-5.53968 0.820206 6.13039e-18)
(-5.66478 0.837218 -5.38778e-18)
(-5.70831 0.834337 1.46983e-17)
(-5.64919 0.798444 3.87993e-18)
(-5.46544 0.72782 2.95403e-18)
(-5.13952 0.610078 6.17787e-19)
(-4.65772 0.446124 -1.0875e-19)
(-3.99262 0.22945 -6.21814e-19)
(-3.10135 -0.0492737 1.46612e-18)
(-2.04902 -0.450113 -1.95974e-18)
(-1.23764 -0.900154 5.95317e-19)
(2.08526 7.48789 -1.08662e-19)
(2.77081 8.16494 1.92521e-19)
(3.58911 9.11236 -1.59597e-18)
(4.36015 9.30029 -2.40855e-18)
(4.23613 7.60532 2.70189e-18)
(2.7958 4.34826 -2.47124e-19)
(0.681754 1.15125 1.19714e-18)
(-0.820255 -0.290526 7.16477e-18)
(-1.24182 -0.388851 -1.64459e-18)
(-1.40423 -0.35895 -2.58968e-18)
(-1.48393 -0.330926 -3.91493e-18)
(-1.54645 -0.287705 -2.63289e-20)
(-1.61366 -0.248108 -1.31253e-19)
(-1.68175 -0.207681 6.63016e-18)
(-1.76245 -0.162344 3.79174e-18)
(-1.85581 -0.119407 1.39581e-19)
(-1.96663 -0.0694394 -2.28835e-18)
(-2.09865 -0.0187185 2.42705e-18)
(-2.25777 0.0409531 -3.38006e-19)
(-2.4503 0.106255 8.005e-19)
(-2.68029 0.184796 -1.58254e-18)
(-2.93409 0.26814 -1.60725e-19)
(-3.20091 0.348549 2.08897e-18)
(-3.48346 0.425533 -2.24335e-18)
(-3.78022 0.501287 -5.05114e-18)
(-4.08552 0.576203 -2.62106e-18)
(-4.39152 0.648794 5.57925e-19)
(-4.69145 0.714528 -4.32832e-18)
(-4.97384 0.77323 1.35162e-19)
(-5.22658 0.816882 4.17341e-18)
(-5.43479 0.845352 -3.33639e-18)
(-5.58368 0.849463 7.30049e-19)
(-5.65464 0.828625 -1.05157e-17)
(-5.62745 0.770556 -5.03997e-18)
(-5.48146 0.672061 -2.80871e-18)
(-5.20033 0.522549 -2.49811e-18)
(-4.77086 0.322278 1.31613e-18)
(-4.17115 0.0670916 -8.63183e-20)
(-3.37317 -0.246586 8.30087e-19)
(-2.44707 -0.655655 2.60011e-18)
(-1.70156 -1.06064 -1.66841e-18)
(2.52357 7.00437 -3.38982e-22)
(3.10921 7.57028 -6.44601e-19)
(3.67701 8.1884 5.23135e-19)
(4.39165 8.94569 7.88703e-19)
(5.00059 9.06738 -6.21575e-19)
(4.84683 7.72274 3.50137e-19)
(3.55579 5.00415 9.41921e-19)
(1.52183 2.01841 7.17654e-20)
(-0.270537 0.107697 -2.61663e-19)
(-0.955319 -0.233834 7.52931e-18)
(-1.23655 -0.258257 5.70661e-18)
(-1.35701 -0.230911 -2.7653e-18)
(-1.45377 -0.202339 -1.81249e-18)
(-1.53688 -0.171476 8.31026e-18)
(-1.6263 -0.127318 -6.74314e-18)
(-1.72376 -0.0854571 2.82194e-18)
(-1.8349 -0.0341865 2.50756e-19)
(-1.96366 0.0182218 6.7841e-19)
(-2.11553 0.0802703 7.84169e-19)
(-2.297 0.148602 -3.44328e-19)
(-2.51313 0.229702 -7.3804e-19)
(-2.75325 0.315531 5.44408e-19)
(-3.00861 0.398812 -9.15381e-19)
(-3.28286 0.478928 -6.45452e-19)
(-3.57601 0.557484 4.83264e-18)
(-3.88335 0.634572 -3.24782e-18)
(-4.19699 0.707972 -7.86906e-19)
(-4.5089 0.773276 5.37852e-18)
(-4.80736 0.828394 4.32168e-18)
(-5.07986 0.866026 -2.15521e-18)
(-5.31198 0.883774 -1.78842e-18)
(-5.48929 0.873728 -5.93424e-19)
(-5.59444 0.832895 4.95664e-18)
(-5.60797 0.750307 5.27469e-18)
(-5.51013 0.620688 1.44811e-18)
(-5.28591 0.436001 -1.84188e-18)
(-4.92284 0.196161 -2.21876e-19)
(-4.40418 -0.0993915 -1.15012e-18)
(-3.71561 -0.447735 -2.3935e-18)
(-2.92486 -0.860249 -1.15843e-19)
(-2.23789 -1.21538 1.72904e-18)
(2.96422 6.57368 5.60767e-21)
(3.41502 7.09235 1.15745e-19)
(3.87437 7.54834 3.26007e-19)
(4.39077 8.06681 7.886e-19)
(5.0237 8.67477 3.45172e-19)
(5.55386 8.84283 -1.2194e-18)
(5.47489 7.90397 3.8696e-19)
(4.42015 5.74726 -3.9899e-19)
(2.54303 3.0216 -3.36294e-18)
(0.578518 0.794407 1.79714e-19)
(-0.55285 -0.0408593 -1.38908e-17)
(-0.979106 -0.134332 1.06844e-17)
(-1.18729 -0.121586 -7.07801e-18)
(-1.31289 -0.108977 -8.30054e-19)
(-1.4182 -0.0737873 3.58952e-18)
(-1.52322 -0.0392001 -1.25684e-18)
(-1.63519 0.0109065 4.7121e-18)
(-1.76102 0.0632233 -1.85755e-18)
(-1.9061 0.1267 4.05597e-19)
(-2.07812 0.197279 -3.12953e-19)
(-2.28341 0.280908 3.17701e-19)
(-2.51445 0.369904 -4.03693e-19)
(-2.76371 0.457431 2.1276e-18)
(-3.03487 0.542836 -6.84686e-19)
(-3.32848 0.62674 -1.78922e-18)
(-3.64054 0.708333 8.73288e-19)
(-3.96349 0.784552 2.89275e-18)
(-4.28877 0.850554 -1.45538e-18)
(-4.60469 0.902701 3.81526e-20)
(-4.89883 0.934194 -1.19073e-18)
(-5.15774 0.940889 8.8324e-20)
(-5.3679 0.915472 -2.18747e-18)
(-5.51351 0.853092 -4.97481e-20)
(-5.57631 0.743643 1.08426e-18)
(-5.53722 0.580241 3.51608e-18)
(-5.38313 0.357109 -2.60443e-18)
(-5.10223 0.0749521 -2.83416e-18)
(-4.68199 -0.262803 2.13266e-18)
(-4.11799 -0.646156 -7.66639e-19)
(-3.46585 -1.06234 1.0284e-20)
(-2.84058 -1.38058 9.3964e-20)
(3.37281 6.20535 -3.61866e-21)
(3.72987 6.63769 1.2388e-19)
(4.09554 7.05732 -1.10123e-19)
(4.50067 7.42714 -7.62818e-19)
(4.97282 7.8392 -2.26126e-19)
(5.53381 8.33458 -3.24872e-19)
(6.03011 8.58223 1.76191e-18)
(6.08158 8.04564 2.46433e-19)
(5.32156 6.45946 9.08891e-19)
(3.71042 4.11349 -2.26798e-18)
(1.73528 1.80513 2.87572e-18)
(0.124286 0.351515 4.73686e-18)
(-0.595175 0.0242046 -9.17415e-18)
(-0.943361 -0.011901 8.37538e-18)
(-1.11982 0.00992759 1.32367e-19)
(-1.25337 0.0283459 -1.56316e-18)
(-1.37238 0.0696527 -5.64912e-18)
(-1.49875 0.116951 -4.42392e-19)
(-1.63884 0.180549 -1.69317e-18)
(-1.80307 0.253244 6.10866e-18)
(-1.99944 0.340302 -3.71683e-18)
(-2.22379 0.433983 5.88429e-19)
(-2.46947 0.527798 1.19426e-18)
(-2.73955 0.620789 2.13122e-19)
(-3.03441 0.712566 4.61859e-19)
(-3.35026 0.801027 1.9584e-19)
(-3.68016 0.882262 1.1589e-18)
(-4.01617 0.950532 -6.88105e-19)
(-4.34771 1.00114 -2.90837e-18)
(-4.66312 1.02702 -8.56277e-19)
(-4.94992 1.02292 2.61194e-18)
(-5.1957 0.981385 1.29258e-18)
(-5.38653 0.896521 1.17073e-19)
(-5.50609 0.758572 -2.53532e-18)
(-5.53612 0.559777 -1.37633e-18)
(-5.46538 0.295974 8.58951e-19)
(-5.2832 -0.0303329 1.94087e-18)
(-4.98 -0.412023 -1.03168e-18)
(-4.55599 -0.831942 6.09183e-19)
(-4.04721 -1.25722 -1.2886e-18)
(-3.50209 -1.56365 -1.62913e-19)
(3.75161 5.87848 -5.4835e-21)
(4.04846 6.24264 4.83803e-21)
(4.33848 6.60258 -2.26526e-19)
(4.6601 6.94254 1.14995e-19)
(5.02685 7.23788 -1.77273e-19)
(5.45096 7.55241 1.03026e-19)
(5.94771 7.94949 -6.96109e-19)
(6.42685 8.25556 -7.12656e-19)
(6.61804 8.06364 -2.55331e-20)
(6.17531 7.03411 -1.37659e-18)
(4.93997 5.20049 -4.56632e-19)
(3.11378 3.01677 1.77815e-18)
(1.2483 1.17602 1.25205e-18)
(-0.0147817 0.271609 -5.55003e-18)
(-0.563238 0.125195 1.36802e-17)
(-0.858494 0.126837 -4.47421e-18)
(-1.02672 0.155606 3.62359e-18)
(-1.16903 0.189127 -5.75748e-18)
(-1.30864 0.246341 -1.86118e-19)
(-1.46686 0.318174 1.88307e-18)
(-1.65503 0.409092 -2.41182e-18)
(-1.87328 0.509337 -3.2088e-19)
(-2.11589 0.61182 6.27908e-19)
(-2.38494 0.714861 -1.99065e-18)
(-2.68018 0.817063 -5.54775e-19)
(-2.99774 0.914909 -1.45481e-18)
(-3.33121 1.00342 -2.70973e-18)
(-3.67354 1.07628 1.07103e-18)
(-4.01586 1.12727 8.06261e-19)
(-4.3482 1.14929 2.62029e-18)
(-4.65975 1.13583 -1.06243e-18)
(-4.93963 1.07935 7.91968e-19)
(-5.1764 0.972471 -9.83938e-19)
(-5.35648 0.806103 2.55973e-18)
(-5.46344 0.571869 -2.74627e-19)
(-5.48616 0.267088 6.3442e-19)
(-5.41662 -0.103842 -3.10067e-18)
(-5.24739 -0.530554 1.85823e-18)
(-4.97851 -0.989833 -1.50559e-19)
(-4.62396 -1.4347 7.88777e-19)
(-4.19158 -1.76084 -8.02811e-19)
(4.10326 5.58605 -4.32707e-20)
(4.35646 5.89418 9.52833e-20)
(4.5979 6.1972 -4.89958e-20)
(4.85396 6.49533 4.42185e-19)
(5.14447 6.77151 2.1896e-19)
(5.47345 7.00639 -8.41009e-19)
(5.84881 7.24054 1.83758e-19)
(6.28515 7.54432 2.75176e-18)
(6.74282 7.8596 -2.72826e-18)
(7.04421 7.91637 -2.34042e-19)
(6.90547 7.38796 1.48321e-19)
(6.09361 6.11939 1.28003e-19)
(4.59245 4.27965 1.69145e-18)
(2.72474 2.35238 -7.37524e-19)
(1.03502 0.910651 4.6705e-18)
(0.00775896 0.320137 -5.53988e-18)
(-0.462008 0.256383 1.80001e-18)
(-0.726334 0.288205 -1.10965e-18)
(-0.897842 0.337259 1.98346e-18)
(-1.0584 0.400582 1.59509e-18)
(-1.23832 0.490749 7.10018e-19)
(-1.44854 0.597498 -1.74096e-18)
(-1.6859 0.71116 1.66373e-18)
(-1.95154 0.82733 9.59017e-19)
(-2.24435 0.942963 -2.48833e-18)
(-2.56013 1.05302 1.70291e-18)
(-2.89263 1.15152 1.9808e-18)
(-3.23598 1.23109 -2.31552e-18)
(-3.58292 1.28507 3.34407e-19)
(-3.92536 1.30538 -2.05847e-18)
(-4.25441 1.28531 1.11491e-18)
(-4.56136 1.21595 -1.48028e-18)
(-4.83764 1.08979 -5.1986e-19)
(-5.07369 0.897243 1.04881e-19)
(-5.25651 0.63099 -1.18945e-18)
(-5.37395 0.287754 3.29574e-19)
(-5.42149 -0.125307 8.95363e-19)
(-5.39412 -0.596556 -1.22438e-18)
(-5.28896 -1.0977 -2.10887e-19)
(-5.10292 -1.57616 -1.36171e-18)
(-4.82416 -1.95293 8.52184e-19)
(4.42864 5.32125 -5.01073e-20)
(4.64971 5.58286 -6.87556e-20)
(4.85636 5.83938 5.68522e-20)
(5.06821 6.09218 1.35469e-19)
(5.30105 6.3381 -4.73513e-19)
(5.56297 6.56349 -4.39458e-19)
(5.85593 6.75262 2.64779e-19)
(6.1847 6.92509 1.25665e-19)
(6.5635 7.14208 2.08941e-19)
(6.98355 7.4158 2.55637e-18)
(7.34772 7.61029 7.88309e-19)
(7.45324 7.46502 2.09888e-19)
(7.0535 6.74421 -1.71668e-18)
(6.0036 5.40668 4.18368e-18)
(4.39042 3.68384 -3.89067e-18)
(2.57195 2.01363 2.53382e-18)
(1.04413 0.859011 -4.04796e-18)
(0.145687 0.433278 -1.05111e-17)
(-0.291599 0.422366 5.27972e-19)
(-0.54226 0.50157 8.07112e-18)
(-0.732706 0.596207 -3.97172e-18)
(-0.93126 0.705899 4.52421e-18)
(-1.15648 0.828407 -2.1842e-18)
(-1.41278 0.957947 3.7981e-19)
(-1.69761 1.08978 -2.19637e-19)
(-2.0055 1.21545 -1.81998e-18)
(-2.33028 1.32717 1.46353e-18)
(-2.66662 1.41688 -1.27624e-18)
(-3.00939 1.47678 1.01829e-18)
(-3.35203 1.49859 7.15121e-19)
(-3.68785 1.47486 1.09458e-19)
(-4.01015 1.39672 6.92075e-19)
(-4.31307 1.25558 4.22818e-19)
(-4.59112 1.0422 -1.86727e-18)
(-4.83555 0.748845 -1.20175e-18)
(-5.03512 0.372548 8.35819e-19)
(-5.18611 -0.078252 9.79947e-19)
(-5.28758 -0.589817 1.48682e-19)
(-5.3351 -1.13243 1.78704e-18)
(-5.31884 -1.65495 1.1205e-18)
(-5.22366 -2.1022 2.9089e-19)
(4.72885 5.07912 -6.06031e-20)
(4.92516 5.30227 4.52266e-20)
(5.10638 5.51923 -9.19309e-20)
(5.28739 5.73343 2.412e-19)
(5.47989 5.94374 -2.99009e-19)
(5.69193 6.14607 2.6386e-19)
(5.92753 6.33147 1.63743e-19)
(6.18737 6.48654 -1.41185e-18)
(6.47385 6.6159 -2.9917e-18)
(6.79792 6.76037 3.92514e-18)
(7.16626 6.96289 -2.58187e-18)
(7.54311 7.18933 -6.41148e-19)
(7.80595 7.28028 -1.06964e-18)
(7.75243 7.01028 -6.21742e-19)
(7.18343 6.22012 1.53542e-18)
(6.01995 4.92936 -7.20598e-19)
(4.39783 3.37134 3.83627e-18)
(2.65958 1.91722 -3.88148e-18)
(1.23819 0.945378 -1.7825e-18)
(0.392038 0.611778 1.16961e-17)
(-0.0408991 0.662782 -5.75993e-18)
(-0.295794 0.818922 -3.33915e-19)
(-0.508635 0.973081 9.21122e-19)
(-0.740922 1.11772 3.39432e-18)
(-1.0041 1.26216 -2.82197e-18)
(-1.29351 1.40088 -6.48144e-19)
(-1.59968 1.52535 -7.65252e-19)
(-1.91742 1.62783 3.89349e-18)
(-2.2425 1.69698 -1.7552e-18)
(-2.57015 1.72477 -6.38212e-19)
(-2.89508 1.70158 2.09321e-18)
(-3.21277 1.62009 -1.86342e-18)
(-3.51965 1.46955 -9.91126e-19)
(-3.81383 1.24159 1.23687e-18)
(-4.09153 0.92687 1.00757e-18)
(-4.34554 0.52434 1.91301e-19)
(-4.56969 0.0407252 -5.49272e-19)
(-4.76485 -0.506132 -3.52398e-19)
(-4.92692 -1.08739 -1.04564e-18)
(-5.04863 -1.65591 9.17267e-19)
(-5.12199 -2.17124 -9.70708e-20)
(5.00451 4.85599 9.81642e-20)
(5.18114 5.04684 -1.3372e-19)
(5.34317 5.23074 8.18369e-20)
(5.50156 5.41162 -1.29033e-19)
(5.66568 5.59022 3.35799e-19)
(5.84195 5.76436 2.95044e-19)
(6.03495 5.93098 1.43871e-18)
(6.24687 6.08409 5.10285e-19)
(6.47753 6.21345 1.89154e-19)
(6.72723 6.31476 1.06064e-19)
(7.00213 6.40813 -1.04459e-18)
(7.31496 6.53659 1.46747e-18)
(7.66456 6.72197 -1.41852e-19)
(7.99596 6.90372 1.40867e-18)
(8.17768 6.92795 -3.85754e-18)
(8.02669 6.61301 4.09913e-18)
(7.38534 5.84974 -1.27499e-18)
(6.21074 4.67658 -3.95189e-18)
(4.64207 3.29687 3.5386e-18)
(2.9823 2.02002 -4.32531e-18)
(1.61186 1.17303 3.19453e-18)
(0.786422 0.910402 -1.16803e-18)
(0.357517 1.01776 3.99644e-18)
(0.0842878 1.23662 -1.30932e-18)
(-0.151121 1.44931 -6.58803e-18)
(-0.397391 1.62153 3.30987e-18)
(-0.660905 1.75957 1.4235e-18)
(-0.93827 1.86801 -3.28533e-19)
(-1.22525 1.94196 3.17053e-19)
(-1.51645 1.97074 -8.9335e-19)
(-1.80612 1.94679 -4.73943e-18)
(-2.09044 1.86076 5.22756e-18)
(-2.36774 1.70414 -3.17186e-19)
(-2.63915 1.46508 -1.71221e-18)
(-2.90629 1.13606 2.06255e-18)
(-3.1674 0.714336 -2.84163e-19)
(-3.41788 0.208034 -5.93244e-19)
(-3.6545 -0.366348 1.0434e-18)
(-3.8746 -0.979368 4.34987e-19)
(-4.07729 -1.5892 -8.96769e-19)
(-4.25991 -2.15662 -4.07469e-19)
(5.25635 4.64919 9.4823e-21)
(5.41674 4.81263 5.78092e-20)
(5.5636 4.96865 -1.45055e-19)
(5.70499 5.12118 1.31368e-19)
(5.84841 5.27183 9.13866e-20)
(5.99877 5.41998 -1.37747e-18)
(6.16039 5.56378 -6.39091e-19)
(6.33613 5.70065 -6.13881e-19)
(6.52717 5.82683 1.12407e-18)
(6.73287 5.9351 2.70903e-18)
(6.95186 6.01845 -1.05032e-18)
(7.18713 6.08229 1.64661e-18)
(7.44951 6.15386 -1.1308e-19)
(7.75041 6.26926 -3.05613e-18)
(8.07973 6.43382 -1.16944e-18)
(8.37558 6.58239 2.66669e-18)
(8.51415 6.58329 -1.4679e-18)
(8.33744 6.29311 2.00613e-18)
(7.71506 5.62924 -3.02904e-18)
(6.61277 4.62366 2.2206e-19)
(5.14236 3.44239 -2.85356e-19)
(3.61939 2.3762 7.15434e-18)
(2.37195 1.67017 -9.59146e-20)
(1.53788 1.40674 -4.14045e-18)
(1.03903 1.47657 -7.18533e-19)
(0.718731 1.68486 -1.07537e-18)
(0.476319 1.90401 -3.74793e-18)
(0.260951 2.07967 4.66624e-18)
(0.0464485 2.19447 -4.03432e-18)
(-0.172451 2.24229 -2.58838e-19)
(-0.391988 2.2225 1.15692e-18)
(-0.605854 2.13102 -9.36704e-19)
(-0.813069 1.96493 6.52896e-19)
(-1.01672 1.71597 -3.66537e-19)
(-1.22169 1.37717 4.01159e-18)
(-1.4322 0.946071 -3.93913e-18)
(-1.6488 0.428799 3.28051e-19)
(-1.86977 -0.164803 1.89134e-19)
(-2.088 -0.806316 2.37759e-19)
(-2.3066 -1.45794 -8.58041e-20)
(-2.53322 -2.07267 7.91712e-19)
(5.48505 4.45682 -1.84379e-19)
(5.63159 4.59663 6.2063e-20)
(5.76595 4.72881 -2.09606e-20)
(5.89408 4.85711 -2.88256e-19)
(6.02181 4.98341 3.06902e-19)
(6.15328 5.10797 -4.87649e-19)
(6.29164 5.23003 -7.24822e-20)
(6.44004 5.34789 2.97223e-19)
(6.60029 5.45953 -2.31513e-18)
(6.77305 5.56228 1.24521e-18)
(6.95745 5.65173 1.34241e-19)
(7.15222 5.72218 -6.13142e-18)
(7.35793 5.77137 3.96052e-18)
(7.58004 5.80963 3.34844e-19)
(7.83036 5.86367 3.23717e-18)
(8.1185 5.96182 -2.8567e-18)
(8.43172 6.10354 4.68412e-19)
(8.71321 6.23387 2.1906e-18)
(8.85619 6.24917 -2.36779e-18)
(8.72977 6.03735 9.18603e-19)
(8.21385 5.52754 3.09719e-19)
(7.32059 4.7789 -6.65893e-19)
(6.18863 3.93603 2.41494e-19)
(4.98959 3.14628 -7.24697e-19)
(3.89138 2.53939 4.58479e-18)
(3.01312 2.18818 -6.26773e-18)
(2.38936 2.07673 5.27622e-18)
(1.97426 2.11879 1.58957e-18)
(1.69532 2.21304 -2.07464e-18)
(1.49648 2.28878 -8.78863e-19)
(1.34605 2.30548 -5.49585e-19)
(1.22637 2.24584 4.11575e-18)
(1.12615 2.10032 -3.84145e-19)
(1.03534 1.86618 -6.05947e-18)
(0.945649 1.53921 1.35172e-18)
(0.846403 1.12384 2.17757e-18)
(0.726737 0.626819 -2.15704e-18)
(0.584146 0.0488839 2.48611e-18)
(0.429188 -0.606813 9.16708e-19)
(0.266911 -1.28258 4.46964e-19)
(0.0443959 -1.92331 -2.32781e-18)
(5.69094 4.27746 1.24968e-19)
(5.82533 4.39666 -7.30743e-20)
(5.94899 4.50827 7.45017e-20)
(6.06628 4.61572 1.95197e-19)
(6.18179 4.72093 5.64524e-19)
(6.29888 4.8245 9.17283e-19)
(6.42017 4.92632 -1.15637e-18)
(6.54811 5.02553 1.83138e-19)
(6.68469 5.12067 6.78479e-19)
(6.83114 5.21 -1.79724e-19)
(6.98776 5.29161 2.48827e-18)
(7.15434 5.36336 -3.4342e-18)
(7.33012 5.42156 5.48211e-18)
(7.51405 5.46196 -4.16978e-18)
(7.70761 5.485 -1.86592e-18)
(7.9178 5.50203 -6.8535e-19)
(8.15676 5.53591 -1.15331e-18)
(8.43427 5.60933 1.20071e-18)
(8.74117 5.72311 1.40812e-19)
(9.03642 5.84018 8.55504e-19)
(9.23379 5.88253 -4.28562e-19)
(9.23803 5.77718 4.89987e-19)
(9.00138 5.50299 1.9411e-18)
(8.53519 5.08304 -2.40724e-18)
(7.89491 4.57425 1.28454e-18)
(7.16239 4.04799 1.46039e-18)
(6.42359 3.56625 2.93312e-19)
(5.74932 3.16628 -6.42367e-18)
(5.18488 2.8548 1.38942e-18)
(4.74763 2.61336 3.20509e-18)
(4.43279 2.40787 -2.3381e-18)
(4.22159 2.20157 5.17268e-18)
(4.0905 1.96285 -4.85503e-18)
(4.01436 1.66981 7.08958e-19)
(3.97291 1.30848 1.87007e-18)
(3.949 0.874809 -1.88396e-18)
(3.92587 0.372283 1.03626e-18)
(3.88555 -0.189143 -1.2414e-19)
(3.837 -0.789105 -1.84512e-18)
(3.76418 -1.38307 -6.56744e-20)
(3.59206 -1.93431 6.66839e-20)
(5.87415 4.1098 1.46065e-20)
(5.99748 4.21093 -4.96255e-21)
(6.11148 4.30469 9.97042e-20)
(6.21938 4.39422 -2.64531e-19)
(6.32482 4.48129 -2.69084e-19)
(6.43047 4.56661 -8.52014e-20)
(6.53858 4.65032 -1.65611e-18)
(6.65097 4.73206 9.24765e-19)
(6.76949 4.8109 -2.33299e-19)
(6.8954 4.88556 2.01854e-18)
(7.02941 4.95457 -5.01143e-19)
(7.17205 5.01682 -3.87271e-19)
(7.32361 5.07106 2.19938e-18)
(7.48352 5.11517 -9.50028e-19)
(7.6507 5.14593 -1.23486e-18)
(7.82467 5.1605 -9.7795e-19)
(8.00779 5.16008 -6.36119e-19)
(8.20753 5.15393 4.96078e-18)
(8.43594 5.15911 -5.12625e-18)
(8.70486 5.19357 1.07279e-20)
(9.01373 5.26092 3.01133e-18)
(9.32734 5.33348 -2.69334e-18)
(9.59549 5.37275 2.63592e-18)
(9.78212 5.34454 -1.16244e-18)
(9.86387 5.2282 -1.40224e-18)
(9.83657 5.02177 3.89981e-18)
(9.71474 4.73882 -1.43058e-18)
(9.5257 4.40081 2.20425e-18)
(9.30241 4.02883 -5.78277e-18)
(9.07551 3.63795 6.45311e-19)
(8.86831 3.23524 2.51615e-18)
(8.69408 2.82063 -3.05546e-19)
(8.55717 2.39014 -5.57793e-19)
(8.45179 1.93819 2.10679e-19)
(8.3691 1.46109 -8.55712e-20)
(8.29529 0.959941 4.92815e-19)
(8.21686 0.440517 -1.35396e-18)
(8.11554 -0.0893759 1.08658e-18)
(7.97194 -0.614305 -5.64363e-19)
(7.78996 -1.10591 4.85136e-19)
(7.52593 -1.54945 7.94907e-20)
(6.02861 3.96049 -7.59255e-21)
(6.14207 4.04634 -8.61475e-20)
(6.24744 4.12517 -1.12143e-19)
(6.34715 4.19983 2.29849e-19)
(6.44412 4.2719 2.96176e-19)
(6.54056 4.3421 1.90082e-18)
(6.63829 4.41066 -2.03329e-19)
(6.73887 4.4775 -3.6117e-18)
(6.84366 4.54199 1.96455e-19)
(6.95401 4.60311 3.63991e-18)
(7.07064 4.65966 -4.35972e-18)
(7.19419 4.71074 1.1995e-18)
(7.32528 4.75535 9.65199e-19)
(7.46411 4.79247 -1.56569e-18)
(7.61051 4.82086 3.63657e-18)
(7.76384 4.83865 -5.3234e-19)
(7.92331 4.84317 -1.01497e-17)
(8.08886 4.83209 8.65176e-18)
(8.26315 4.80576 -3.1219e-18)
(8.45297 4.76959 -2.21647e-18)
(8.67021 4.73495 2.89424e-18)
(8.91802 4.71075 2.94465e-18)
(9.19 4.69812 -4.33976e-18)
(9.47807 4.68628 4.0778e-18)
(9.76675 4.65806 -1.09612e-18)
(10.0388 4.59493 1.06276e-18)
(10.2795 4.48253 -1.95238e-18)
(10.48 4.3129 2.08224e-18)
(10.6375 4.08441 8.17352e-19)
(10.7533 3.80035 -3.99711e-18)
(10.8315 3.46694 4.52334e-19)
(10.876 3.09137 -2.51182e-19)
(10.8897 2.68151 2.31466e-18)
(10.8726 2.24468 6.31915e-20)
(10.8231 1.78926 -1.33587e-19)
(10.738 1.32584 -2.42373e-19)
(10.6145 0.867033 -9.95702e-20)
(10.4479 0.423313 -2.09231e-19)
(10.2358 0.00797445 -6.45498e-19)
(9.98087 -0.362519 5.50875e-20)
(9.67862 -0.685637 1.02634e-19)
(6.15279 3.83349 6.25623e-20)
(6.25774 3.90679 -2.4203e-20)
(6.35559 3.97336 -1.15219e-19)
(6.44823 4.03585 3.9832e-19)
(6.53806 4.09565 2.90757e-19)
(6.62691 4.15344 1.43197e-18)
(6.71634 4.20951 -1.6734e-18)
(6.80768 4.26385 8.57815e-19)
(6.902 4.31618 1.42125e-18)
(7.00046 4.36564 -2.80954e-18)
(7.10383 4.41121 -2.98911e-18)
(7.2127 4.45211 3.59048e-18)
(7.32766 4.48743 2.89184e-18)
(7.44902 4.51618 -4.19256e-18)
(7.57702 4.53738 4.74914e-18)
(7.71166 4.55008 3.06229e-18)
(7.85273 4.55305 -2.43921e-18)
(7.99967 4.54449 -3.83814e-18)
(8.15187 4.52195 -4.71189e-19)
(8.30924 4.48278 3.01611e-18)
(8.47361 4.42613 -5.91301e-18)
(8.6445 4.35509 4.64051e-18)
(8.82256 4.2758 5.77093e-19)
(9.01259 4.19083 1.23081e-18)
(9.21553 4.1001 -2.11028e-18)
(9.42846 3.99979 1.04704e-18)
(9.64507 3.88347 -9.21644e-19)
(9.85668 3.7438 -6.46875e-19)
(10.0542 3.5749 1.30074e-18)
(10.2291 3.37317 -8.35442e-19)
(10.374 3.13813 -4.35862e-19)
(10.4833 2.87209 1.71302e-18)
(10.5527 2.58003 -2.20227e-18)
(10.5794 2.26824 1.17428e-18)
(10.5615 1.94488 9.3098e-20)
(10.4986 1.61937 -1.35004e-18)
(10.3913 1.30199 9.42217e-19)
(10.2426 0.999946 1.75568e-19)
(10.0553 0.721828 -4.16129e-19)
(9.83523 0.476078 -1.22597e-19)
(9.59066 0.263516 -9.08755e-20)
(6.25378 3.72433 -4.40969e-20)
(6.35123 3.78712 -1.70669e-20)
(6.44237 3.8435 2.26308e-20)
(6.5287 3.89592 2.97062e-19)
(6.6122 3.94558 -5.2862e-19)
(6.69449 3.99314 4.27174e-19)
(6.77686 4.03888 3.61337e-19)
(6.86045 4.08282 -8.17078e-19)
(6.94624 4.12476 1.89301e-19)
(7.035 4.16418 3.65171e-19)
(7.12758 4.20012 -1.16937e-18)
(7.22451 4.23186 1.77753e-18)
(7.32631 4.25864 -3.67561e-18)
(7.43325 4.2796 2.27734e-18)
(7.54556 4.29375 1.32623e-18)
(7.66331 4.30014 8.78736e-19)
(7.78656 4.29776 3.64878e-19)
(7.91518 4.28554 -6.17898e-19)
(8.04889 4.26215 -1.79962e-18)
(8.18711 4.22568 3.51942e-18)
(8.32895 4.17376 1.51147e-19)
(8.4695 4.10542 -3.795e-18)
(8.6051 4.02234 1.70477e-18)
(8.73723 3.925 1.90465e-18)
(8.86684 3.81463 -3.86423e-18)
(8.9945 3.69223 3.48623e-18)
(9.11968 3.55806 -2.96314e-18)
(9.24034 3.41165 1.32444e-19)
(9.3531 3.25223 9.24137e-19)
(9.45366 3.07914 2.41612e-18)
(9.53738 2.89252 -3.19535e-18)
(9.59986 2.69346 9.2051e-19)
(9.63723 2.48434 1.67847e-18)
(9.64708 2.26817 -1.34392e-18)
(9.62763 2.04908 -1.57382e-19)
(9.5786 1.83209 -4.72989e-20)
(9.50072 1.62246 2.50329e-19)
(9.3966 1.42338 -1.72895e-19)
(9.2685 1.23928 1.09024e-19)
(9.12028 1.07417 -1.91556e-19)
(8.95882 0.929185 -1.1392e-20)
(6.33687 3.62916 2.15546e-20)
(6.4275 3.68306 -1.99642e-20)
(6.51248 3.73088 -2.49551e-19)
(6.593 3.77486 2.52201e-19)
(6.67076 3.81607 6.18571e-20)
(6.74712 3.8551 -2.88237e-19)
(6.82324 3.89224 -7.65256e-19)
(6.90008 3.92752 5.11867e-19)
(6.97846 3.96076 1.07695e-18)
(7.05901 3.99164 2.7064e-20)
(7.14243 4.01933 2.96627e-19)
(7.22922 4.04315 1.18412e-18)
(7.31983 4.06243 -8.86942e-19)
(7.41444 4.07639 -1.60431e-18)
(7.51323 4.08422 1.43608e-19)
(7.61623 4.08501 -4.60258e-19)
(7.72342 4.07781 1.17293e-18)
(7.83467 4.06156 -1.10057e-18)
(7.9498 4.03522 -7.35288e-19)
(8.06846 3.99749 -2.06382e-18)
(8.19005 3.94702 2.68948e-18)
(8.30998 3.88342 1.28534e-18)
(8.42405 3.80793 -1.37067e-18)
(8.53165 3.71999 -1.32189e-18)
(8.63171 3.61987 -7.49584e-19)
(8.72347 3.50804 2.66386e-18)
(8.80621 3.38538 1.61306e-18)
(8.87914 3.25278 1.44619e-18)
(8.94119 3.11142 -3.09848e-18)
(8.99113 2.9625 9.94379e-19)
(9.02754 2.80753 -1.22475e-18)
(9.04911 2.64816 6.76812e-19)
(9.05459 2.4864 -1.05762e-18)
(9.04334 2.3242 1.64342e-18)
(9.01492 2.16388 -8.4174e-19)
(8.96965 2.00814 3.38394e-19)
(8.90823 1.85963 -7.20707e-19)
(8.83216 1.71974 5.7559e-19)
(8.74293 1.59061 -4.38927e-19)
(8.64274 1.4742 -1.17479e-20)
(8.5354 1.37158 7.23383e-20)
(6.40593 3.54529 -7.00602e-21)
(6.49028 3.5916 5.56626e-20)
(6.56954 3.63214 4.56787e-19)
(6.64466 3.66899 -9.988e-19)
(6.7171 3.70307 -2.03448e-19)
(6.78804 3.73493 9.50939e-20)
(6.85849 3.76484 6.98812e-19)
(6.92927 3.79286 -9.94078e-19)
(7.00107 3.81883 4.39162e-18)
(7.07446 3.84244 -5.87162e-18)
(7.14986 3.86318 2.78917e-18)
(7.22782 3.88032 6.97868e-19)
(7.30866 3.89325 -9.93042e-19)
(7.39255 3.90129 -3.63411e-18)
(7.47953 3.90375 9.52146e-19)
(7.5696 3.89985 -1.95831e-18)
(7.66266 3.88878 6.30937e-18)
(7.75851 3.86959 -1.75045e-18)
(7.85684 3.84135 -3.91312e-19)
(7.95722 3.80294 1.14915e-18)
(8.05908 3.75337 -5.60473e-18)
(8.15873 3.69282 3.38891e-18)
(8.25284 3.62297 1.9967e-18)
(8.34084 3.54362 -1.8663e-18)
(8.42156 3.45526 -4.71657e-19)
(8.494 3.35835 1.6492e-18)
(8.55723 3.25369 -2.66077e-18)
(8.61046 3.14209 1.89468e-18)
(8.65297 3.02472 1.61208e-18)
(8.68416 2.9028 -1.18974e-18)
(8.70365 2.7778 -2.02655e-18)
(8.71116 2.65124 2.00227e-19)
(8.70666 2.52477 1.01888e-18)
(8.69032 2.39983 4.45251e-19)
(8.66253 2.27796 -1.15572e-18)
(8.62395 2.16088 1.19115e-18)
(8.57548 2.05015 -7.56793e-19)
(8.51818 1.94636 3.26818e-19)
(8.45325 1.85065 9.02327e-20)
(8.382 1.76391 -2.75381e-19)
(8.30687 1.68713 -3.413e-20)
(6.46372 3.47074 -5.97151e-20)
(6.54226 3.51051 2.0097e-20)
(6.61617 3.54483 -1.75408e-19)
(6.68623 3.57561 -4.79424e-19)
(6.7537 3.60366 1.21495e-18)
(6.8196 3.62948 -1.87346e-18)
(6.88482 3.65333 2.17647e-18)
(6.95007 3.67526 -5.6521e-18)
(7.01594 3.69514 6.27683e-18)
(7.08287 3.7127 -2.95683e-18)
(7.15119 3.72759 -3.93353e-18)
(7.22133 3.73916 1.27459e-18)
(7.29359 3.74682 4.77401e-18)
(7.36804 3.74999 2.32609e-18)
(7.44467 3.74809 -4.1922e-18)
(7.52341 3.74046 3.03549e-18)
(7.60411 3.72643 -2.34287e-18)
(7.68651 3.70525 -5.30524e-19)
(7.77024 3.67615 6.6611e-19)
(7.85482 3.63825 -2.94652e-18)
(7.93958 3.59075 7.35233e-18)
(8.02145 3.53414 -3.35278e-18)
(8.09781 3.47008 2.76207e-19)
(8.16828 3.39873 8.367e-19)
(8.23203 3.32071 -8.03995e-19)
(8.28837 3.23675 4.09068e-19)
(8.33673 3.14765 1.05656e-18)
(8.37656 3.0543 -1.05267e-19)