/*--------------------------------*- C++ -*----------------------------------*\
| =========                 |                                                 |
| \\      /  F ield         | OpenFOAM: The Open Source CFD Toolbox           |
|  \\    /   O peration     | Version:  2312                                  |
|   \\  /    A nd           | Website:  www.openfoam.com                      |
|    \\/     M anipulation  |                                                 |
\*---------------------------------------------------------------------------*/
FoamFile
{
    version     2.0;
    format      ascii;
    arch        "LSB;label=32;scalar=64";
    class       volScalarField;
    location    "950";
    object      div(phi);
}
// * * * * * * * * * * * * * * * * * * * * * * * * * * * * * * * * * * * * * //

dimensions      [0 0 -1 0 0 0 0];

internalField   nonuniform List<scalar> 
11040
(
-7.21076e-05
-8.46678e-05
2.76362e-05
0.000128662
-0.000166015
-0.000227552
-1.72367e-05
2.25811e-05
-0.000185033
-0.000172839
-6.8525e-06
-0.000499034
0.000576787
-0.000452266
-0.00010758
-0.000603098
0.000186055
-0.000611586
-8.23967e-05
-0.000766109
-0.000310426
-0.000125782
7.18019e-05
1.57506e-05
-0.000419019
-0.000244765
-0.000295139
-0.000221361
-0.000198305
-0.000115351
-0.000132784
-9.28096e-05
-0.000254558
0.000163819
-4.71156e-05
-4.87058e-05
-0.000479283
-3.38226e-05
-0.0007921
-0.000727831
-0.00114672
-3.87365e-05
-1.2492e-05
2.20431e-06
-1.18635e-05
-9.00721e-05
-8.02557e-05
4.29514e-05
3.92961e-05
3.46791e-05
4.63781e-05
0.000107115
4.60701e-05
0.000308514
-0.000128459
0.000110808
-0.000178375
0.000100349
-0.000393868
-7.78884e-05
-0.000634503
-0.000272531
-0.000173476
-7.59692e-05
-0.000236956
-0.000476656
-0.000403646
-0.000360756
-0.000268646
-0.000110785
1.63064e-05
8.62974e-05
0.000247929
0.000174317
0.000322894
7.93039e-05
0.000117799
-0.000385031
-0.000300672
-0.000610473
-0.000391597
-0.000833025
-2.83303e-05
-3.57841e-05
1.9971e-06
1.84422e-05
-1.72366e-05
-4.69817e-05
-1.1911e-05
4.54315e-06
-8.14763e-05
-5.32994e-05
-5.49853e-05
-0.000155503
0.000123638
-8.39627e-05
-7.45425e-05
-0.0002203
-1.14956e-06
-0.000167975
-0.000114252
-0.000211774
-5.88299e-05
-1.46658e-05
4.47357e-05
5.932e-05
-6.64381e-05
-2.34286e-05
-4.40184e-05
-3.62194e-05
-4.6261e-05
-3.80126e-05
-1.29172e-05
-6.40574e-05
-0.000101323
4.45901e-05
-1.60207e-05
-0.000134166
-0.000116241
6.91993e-05
-0.000113925
-8.20561e-05
-0.000373712
-1.63041e-05
-3.55099e-06
7.50939e-06
6.78227e-06
-1.02544e-05
-1.02371e-05
-1.10967e-05
-1.92247e-05
-3.51355e-05
1.56865e-07
-1.04646e-05
5.82674e-05
0.000114813
6.5905e-05
4.17831e-05
5.07307e-06
1.46357e-05
-0.000107835
-9.88571e-05
-0.000214099
-0.000117558
-6.6284e-05
-5.92681e-05
-0.000123892
-0.000204156
-0.000186333
-0.000163346
-0.000111774
-5.68475e-05
4.18517e-06
2.34512e-05
4.8731e-05
1.51542e-05
3.84224e-05
-3.86641e-05
-5.56201e-05
-0.000163235
-0.000210704
-0.000342211
-0.000448112
-0.000616685
5.61593e-07
-1.50031e-05
5.83049e-06
3.47944e-06
4.3464e-06
-2.55593e-06
-1.79161e-06
-8.06552e-06
-2.1574e-05
-3.53267e-05
-3.40579e-05
-4.01556e-05
4.52543e-05
1.63261e-05
-1.20156e-05
-6.54964e-05
-2.68138e-05
-7.67606e-05
-9.97484e-05
-8.71798e-05
-3.87979e-05
8.11804e-07
1.16446e-05
5.08204e-06
-2.28523e-05
-2.2145e-05
-2.1576e-05
-1.73938e-05
-1.73511e-05
-1.21746e-05
1.40751e-05
-2.64315e-05
-2.47728e-05
8.68252e-06
1.77245e-05
-9.35509e-05
-4.60204e-05
-4.93103e-05
-7.1451e-05
-0.000137127
-0.000229644
-1.73801e-05
4.8332e-06
-4.99425e-06
1.2507e-05
-2.10055e-06
-6.04051e-07
1.72112e-06
-6.14732e-06
-1.21009e-05
-3.20484e-05
-4.17865e-05
-1.55426e-05
3.03859e-05
2.22287e-05
1.24495e-05
7.08193e-06
8.1787e-06
-3.8964e-05
-5.31417e-05
-6.95327e-05
-2.99826e-05
-2.28765e-05
-2.7211e-05
-6.53634e-05
-8.53612e-05
-8.87569e-05
-7.50759e-05
-5.47404e-05
-3.72062e-05
-1.36036e-05
-1.10852e-05
-1.83087e-05
-2.44523e-05
-2.83864e-05
-6.06609e-05
-9.56889e-05
-0.000126434
-0.000164897
-0.000233803
-0.00028663
-0.000343812
-1.11093e-06
-1.05698e-05
1.55912e-05
-3.23394e-06
-1.20716e-07
9.48677e-08
-8.96805e-07
2.03229e-06
-6.11009e-06
-7.55211e-06
-2.10657e-05
-2.4396e-06
3.39329e-06
1.5766e-05
-1.33262e-05
-1.34244e-05
-3.35575e-05
-3.80418e-05
-5.78256e-05
-4.08665e-05
-2.03428e-05
-3.52088e-06
-1.5059e-05
-1.9457e-05
-3.07996e-05
-2.83066e-05
-2.70146e-05
-2.04702e-05
-1.86089e-05
-9.79009e-06
-5.72987e-06
-1.52127e-05
-2.63469e-05
-1.09873e-05
-2.90023e-05
-6.3756e-05
-8.22712e-05
-9.72677e-05
-0.000123489
-0.000165519
-0.000185951
9.89007e-07
7.23252e-06
8.7014e-06
-4.49076e-06
-2.77676e-08
-7.26844e-06
5.07367e-06
-3.21151e-06
3.60097e-06
-1.15707e-05
1.19624e-06
-1.2106e-05
-3.0822e-06
-1.31894e-05
-2.02952e-05
-3.38903e-05
-2.91944e-05
-4.14229e-05
-4.44789e-05
-2.24707e-05
-9.6707e-06
-6.50885e-06
-1.95359e-05
-3.2294e-05
-3.90969e-05
-3.65695e-05
-3.81396e-05
-2.62999e-05
-2.6469e-05
-1.17145e-05
-1.86597e-05
-1.82718e-05
-2.13738e-05
-2.14622e-05
-3.97569e-05
-5.68017e-05
-6.52769e-05
-8.07417e-05
-9.36879e-05
-0.000105975
-9.80364e-05
-9.37402e-06
2.31137e-05
-1.07471e-05
8.31627e-06
-1.71417e-05
4.98482e-06
-7.24894e-06
8.88214e-06
-8.77248e-06
6.75288e-06
-8.30546e-06
-5.8443e-06
-1.00795e-05
-1.02293e-05
-2.20731e-05
-2.73844e-05
-4.13104e-05
-4.40844e-05
-3.23274e-05
-2.22343e-05
-7.06946e-06
-1.27013e-05
-1.99424e-05
-2.75909e-05
-2.83649e-05
-3.31408e-05
-2.39338e-05
-2.77476e-05
-1.61799e-05
-2.14639e-05
-1.36949e-05
-2.65563e-05
-2.46e-05
-3.38294e-05
-4.30771e-05
-6.00522e-05
-7.52138e-05
-8.296e-05
-9.62619e-05
-9.18742e-05
-9.45022e-05
1.62497e-05
-5.67587e-06
1.2676e-05
-1.43134e-05
2.23279e-06
-8.24939e-06
6.41704e-06
-3.84316e-06
5.40255e-06
-2.50025e-06
-4.9183e-06
-9.11135e-06
-5.57589e-06
-1.25372e-05
-5.24923e-06
-2.607e-05
-1.86417e-05
-3.73478e-05
-3.29696e-05
-1.99698e-05
-1.28817e-05
-1.67591e-05
-1.95577e-05
-2.60212e-05
-2.77339e-05
-1.58568e-05
-2.86506e-05
-1.45192e-05
-2.2993e-05
-1.03951e-05
-2.29835e-05
-1.61263e-05
-2.6297e-05
-2.20862e-05
-3.79685e-05
-4.26262e-05
-5.06099e-05
-5.66722e-05
-5.51525e-05
-6.26097e-05
-4.55579e-05
2.36364e-06
4.82278e-06
-4.75284e-07
-1.76344e-06
-2.59538e-06
-8.84761e-07
1.40792e-06
7.66719e-07
1.34791e-06
-1.17251e-06
-8.53562e-06
-2.0678e-06
-1.30329e-05
4.06147e-06
-1.26476e-05
6.17149e-07
-1.68646e-05
-2.11833e-05
-2.64209e-05
-1.96702e-05
-2.17511e-05
-1.99175e-05
-2.90304e-05
-2.78447e-05
-1.48167e-05
-2.44438e-05
-1.37483e-05
-2.23348e-05
-1.21659e-05
-1.94285e-05
-1.04461e-05
-2.05264e-05
-9.104e-06
-2.12009e-05
-1.14988e-05
-2.11271e-05
-1.62358e-05
-1.33176e-05
-2.04758e-05
5.19378e-06
-1.87641e-05
1.49414e-06
1.54039e-06
-8.00264e-07
-7.83177e-07
-1.39559e-06
-2.24512e-07
6.27637e-07
-6.03995e-07
3.03322e-06
-5.4248e-06
1.45693e-06
-1.06578e-05
4.65509e-06
-6.08832e-06
1.47674e-06
-4.7564e-06
-9.59497e-06
-1.31719e-05
-1.26456e-05
-1.61001e-05
-9.91814e-06
-2.41593e-05
-2.08485e-05
-2.05455e-05
-1.45489e-05
-1.75599e-05
-1.49826e-05
-2.15327e-05
-1.47702e-05
-1.73126e-05
-1.51552e-05
-1.24861e-05
-1.53004e-05
-5.9326e-06
-1.23537e-05
-5.03278e-06
-3.01062e-06
-6.12633e-06
1.52594e-05
-1.41244e-05
3.54578e-05
-9.58572e-07
3.56383e-07
-2.14775e-06
-1.02003e-07
-2.65208e-06
-3.17777e-07
-1.74826e-06
2.9776e-07
-1.27194e-07
-4.3326e-07
-2.0279e-06
-4.68613e-07
-1.19879e-07
-1.14758e-06
1.18075e-07
-4.63738e-06
-7.32757e-06
-5.30281e-06
-9.97719e-06
3.0092e-07
-1.01895e-05
-3.49533e-06
-1.83693e-05
-3.16381e-06
-2.13735e-05
-2.87953e-06
-3.18034e-05
-8.48503e-06
-2.99444e-05
-9.87174e-06
-2.52359e-05
-1.25747e-05
-1.84432e-05
-1.47148e-05
-1.55692e-05
-1.50539e-05
-1.10069e-05
-1.37193e-05
-1.16982e-05
-1.12485e-05
-1.12264e-05
-1.71915e-06
9.25425e-08
-3.01008e-06
-4.92461e-08
-4.01779e-06
-4.19758e-08
-3.82982e-06
2.29055e-07
-2.65537e-06
7.5372e-07
-1.80459e-06
-7.90075e-08
-2.88301e-07
-7.07722e-07
-6.21044e-08
-4.81198e-06
-1.27446e-06
-7.50458e-06
1.15531e-06
-4.61352e-06
4.47152e-07
-7.76506e-06
-8.28471e-07
-1.17871e-05
7.74936e-07
-2.15539e-05
-5.24646e-06
-2.77414e-05
-7.98425e-06
-2.87003e-05
-1.13568e-05
-2.59293e-05
-1.62165e-05
-2.3793e-05
-2.37135e-05
-1.46848e-05
-3.6241e-05
-1.84175e-06
-5.20307e-05
1.41784e-05
-6.71076e-05
-1.98847e-06
1.24258e-07
-3.37894e-06
3.91854e-08
-4.63562e-06
2.14293e-07
-5.04885e-06
6.10155e-07
-4.27682e-06
7.42516e-07
-3.20103e-06
9.05711e-07
-1.92074e-06
3.21128e-08
-1.32869e-06
-1.64452e-06
-3.15387e-06
-2.00579e-06
-2.00073e-06
-2.01135e-06
-2.62266e-06
-3.34118e-06
-3.48564e-06
-3.46391e-06
-4.93582e-06
-5.90145e-06
-8.07957e-06
-8.35975e-06
-1.08167e-05
-1.03654e-05
-1.20538e-05
-1.27122e-05
-1.42326e-05
-1.60295e-05
-1.33762e-05
-2.03611e-05
-7.83198e-06
-2.39847e-05
-1.19544e-06
-2.79626e-05
1.19652e-05
-2.02613e-06
1.71159e-07
-3.5075e-06
1.41704e-07
-4.81992e-06
5.63276e-07
-5.56137e-06
1.00694e-06
-5.42283e-06
1.56731e-06
-4.43101e-06
1.61132e-06
-3.38066e-06
1.14651e-06
-2.9668e-06
-4.75021e-07
-3.09382e-06
-1.93501e-06
-3.13121e-06
-2.41615e-06
-3.47982e-06
-2.4858e-06
-3.90643e-06
-2.06896e-06
-3.88253e-06
-1.89978e-06
-4.03794e-06
-2.18681e-06
-4.45567e-06
-2.95104e-06
-4.70913e-06
-4.27379e-06
-4.08926e-06
-7.26184e-06
-4.76062e-07
-1.02723e-05
6.66521e-06
-1.83369e-05
1.79049e-05
-2.72043e-05
2.19995e-05
-2.23706e-06
2.25129e-07
-3.55665e-06
2.50068e-07
-4.74624e-06
7.05437e-07
-5.60603e-06
1.21752e-06
-5.82178e-06
1.81524e-06
-5.28617e-06
2.02153e-06
-4.67236e-06
1.56876e-06
-4.28686e-06
4.64618e-07
-4.2725e-06
-9.88854e-07
-4.48289e-06
-1.67534e-06
-4.85552e-06
-1.85503e-06
-5.28027e-06
-1.41692e-06
-5.3866e-06
-5.47367e-07
-5.45476e-06
4.25827e-07
-5.3497e-06
5.48074e-07
-4.78417e-06
-5.18293e-07
-3.21146e-06
-3.10948e-06
4.5042e-07
-8.98067e-06
6.60839e-06
-1.78235e-05
1.12022e-05
-2.44833e-05
2.14294e-05
-1.86586e-06
-1.20509e-07
-3.02368e-06
-1.24288e-07
-4.00886e-06
1.24904e-07
-4.829e-06
4.04135e-07
-5.25699e-06
7.67029e-07
-5.09493e-06
8.19599e-07
-4.78804e-06
4.48824e-07
-4.54558e-06
-3.94839e-07
-4.46733e-06
-1.50685e-06
-4.68135e-06
-2.13095e-06
-5.14357e-06
-2.38495e-06
-6.02384e-06
-2.16244e-06
-6.77803e-06
-1.69744e-06
-7.51959e-06
-1.26122e-06
-8.3309e-06
-9.15028e-07
-8.73454e-06
-8.30361e-07
-7.75168e-06
-1.55195e-06
-4.6846e-06
-3.51896e-06
2.35182e-08
-8.54676e-06
8.50074e-06
-1.77239e-05
9.68545e-06
-2.05173e-06
-3.91624e-09
-2.62e-06
-2.60139e-07
-3.37117e-06
-2.05076e-07
-4.04623e-06
-3.99085e-08
-4.53145e-06
1.06127e-07
-4.56987e-06
1.23049e-07
-4.4024e-06
-1.83453e-07
-4.23385e-06
-7.65346e-07
-4.1536e-06
-1.56676e-06
-4.26773e-06
-1.94725e-06
-4.64614e-06
-2.17029e-06
-5.47021e-06
-2.04962e-06
-6.37537e-06
-1.58062e-06
-7.37229e-06
-9.35081e-07
-8.5592e-06
-4.58966e-07
-9.63663e-06
-1.68589e-07
-1.03013e-05
-6.7917e-07
-1.00917e-05
-3.96587e-06
-8.74665e-06
-1.01989e-05
-9.47859e-06
-1.64833e-05
-4.25672e-06
5.58706e-07
-1.89565e-06
-4.77932e-08
-2.05858e-06
-1.15296e-06
-1.78733e-06
-2.01221e-06
-1.64814e-06
-2.68977e-06
-1.44974e-06
-2.99858e-06
-1.37891e-06
-3.00462e-06
-1.41139e-06
-2.91857e-06
-1.80719e-06
-2.83943e-06
-2.24851e-06
-2.85336e-06
-2.53831e-06
-3.3045e-06
-2.18069e-06
-4.29468e-06
-1.59089e-06
-5.37609e-06
-4.10158e-07
-6.52292e-06
9.17833e-07
-7.76824e-06
2.37978e-06
-8.84058e-06
2.97028e-06
-9.63939e-06
2.49932e-06
-1.00769e-05
1.42112e-06
-9.72416e-06
-1.282e-06
-5.52404e-06
-7.45146e-06
-5.29567e-06
-2.68853e-06
2.60443e-06
-3.64689e-06
2.49217e-06
-4.93305e-06
2.66777e-06
-6.0766e-06
2.97382e-06
-6.92514e-06
3.29799e-06
-7.65726e-06
3.47969e-06
-7.66754e-06
3.45845e-06
-7.84329e-06
3.33545e-06
-7.75032e-06
3.13376e-06
-8.09552e-06
3.13352e-06
-8.38246e-06
3.63874e-06
-9.92039e-06
4.60626e-06
-1.11206e-05
5.93398e-06
-1.30446e-05
7.32214e-06
-1.45632e-05
8.56611e-06
-1.67505e-05
9.54514e-06
-1.96048e-05
9.75933e-06
-2.15551e-05
8.51645e-06
-2.19956e-05
3.99654e-06
-2.12942e-05
-4.27936e-06
-1.73729e-05
1.67233e-07
-2.63316e-07
5.85074e-07
-1.45701e-06
-1.92247e-08
-2.17021e-06
-2.58853e-07
-2.86345e-06
-3.0751e-07
-3.41328e-06
-3.30345e-07
-3.82563e-06
-2.79374e-07
-3.93493e-06
-3.11639e-07
-4.07833e-06
-3.82274e-07
-4.15722e-06
-5.41044e-07
-4.42685e-06
-4.11497e-07
-5.17978e-06
-1.04934e-07
-6.16044e-06
3.02051e-07
-7.51795e-06
5.40994e-07
-8.98785e-06
4.59476e-07
-1.10801e-05
2.56375e-07
-1.49772e-05
-1.51642e-07
-1.71807e-05
2.95407e-07
-2.0008e-05
-1.06589e-06
-1.99812e-05
-3.99243e-06
-2.14571e-05
-8.27767e-06
-1.68339e-06
1.53874e-06
-9.25956e-07
5.37823e-07
-1.48943e-06
-3.49623e-07
-1.60613e-06
-1.09005e-06
-1.56097e-06
-1.75584e-06
-1.54885e-06
-2.23298e-06
-1.36758e-06
-2.52692e-06
-1.34655e-06
-2.72485e-06
-1.36311e-06
-2.89856e-06
-1.56217e-06
-3.25187e-06
-1.36058e-06
-4.08057e-06
-1.26095e-06
-5.19619e-06
-1.09918e-06
-6.65879e-06
-1.21639e-06
-8.73781e-06
-1.01634e-06
-1.11442e-05
-9.62318e-07
-1.46633e-05
9.34766e-07
-1.60559e-05
3.02917e-06
-1.69044e-05
4.38169e-06
-1.71784e-05
3.09716e-06
-1.75333e-05
-1.30324e-06
1.16978e-06
-8.11682e-07
2.08629e-06
-2.14455e-06
1.73837e-06
-3.32592e-06
1.77547e-06
-4.35446e-06
2.03352e-06
-5.14944e-06
2.35188e-06
-5.97295e-06
2.6426e-06
-6.27266e-06
2.79074e-06
-6.77745e-06
2.87606e-06
-6.96686e-06
2.86489e-06
-7.48322e-06
2.89022e-06
-8.00679e-06
3.08611e-06
-9.00217e-06
3.15821e-06
-9.90738e-06
2.94761e-06
-1.11781e-05
2.84185e-06
-1.34948e-05
3.3925e-06
-1.42247e-05
5.1102e-06
-1.53638e-05
8.01062e-06
-1.48097e-05
1.00784e-05
-1.40592e-05
9.51464e-06
-1.48023e-05
5.98308e-06
-9.64929e-07
1.25267e-06
7.73552e-08
5.16667e-07
-9.73807e-07
-9.15039e-08
-1.56517e-06
-3.37548e-07
-2.1611e-06
-3.95535e-07
-2.64361e-06
-3.85307e-07
-3.12188e-06
-3.47272e-07
-3.45325e-06
-3.74238e-07
-3.82366e-06
-4.46904e-07
-4.11745e-06
-5.14565e-07
-4.58271e-06
-4.00807e-07
-5.42289e-06
-3.23497e-07
-6.33037e-06
-4.84227e-07
-7.17292e-06
-1.12525e-06
-9.57468e-06
-1.51932e-06
-1.05062e-05
-8.52659e-07
-1.16035e-05
5.53088e-07
-1.18601e-05
2.94481e-06
-1.06443e-05
4.1498e-06
-1.13468e-05
2.62907e-06
-1.07993e-05
4.7133e-07
-1.09917e-07
1.24736e-06
-6.28739e-07
4.58967e-07
-1.06776e-06
-2.14694e-07
-1.32782e-06
-7.93321e-07
-1.17878e-06
-1.33935e-06
-1.24826e-06
-1.85435e-06
-1.01566e-06
-2.30025e-06
-1.13027e-06
-2.71063e-06
-1.08167e-06
-3.11481e-06
-1.14356e-06
-3.67083e-06
-1.0363e-06
-4.64351e-06
-1.15873e-06
-5.67266e-06
-1.32784e-06
-6.95904e-06
-1.5572e-06
-8.06887e-06
-1.13309e-06
-7.88983e-06
1.40811e-07
-7.63155e-06
1.97984e-06
-5.72332e-06
3.77185e-06
-4.73713e-06
4.47105e-06
-4.97811e-06
4.31653e-06
-5.64782e-06
-8.79314e-07
1.37923e-06
-5.18522e-07
1.48582e-06
-1.32646e-06
1.25146e-06
-2.27565e-06
1.30786e-06
-2.96251e-06
1.53799e-06
-3.70158e-06
1.80246e-06
-4.23586e-06
1.98069e-06
-4.71772e-06
2.01906e-06
-5.07901e-06
1.91252e-06
-5.35998e-06
1.69941e-06
-5.89163e-06
1.52898e-06
-6.43005e-06
1.164e-06
-6.83352e-06
8.18186e-07
-7.208e-06
5.44899e-07
-6.78244e-06
7.1967e-07
-6.24253e-06
1.32082e-06
-5.0077e-06
1.8809e-06
-4.34017e-06
2.0999e-06
-4.19929e-06
1.73369e-06
-4.52235e-06
1.13577e-06
-4.60787e-06
4.2262e-07
-2.72722e-07
1.00604e-06
7.8963e-08
4.86003e-07
-4.75132e-07
9.91317e-08
-9.3402e-07
-3.68251e-08
-1.28824e-06
-5.58518e-08
-1.72862e-06
-5.1917e-08
-2.08943e-06
-8.78522e-08
-2.60321e-06
-3.08814e-07
-2.969e-06
-7.98635e-07
-3.81778e-06
-1.03684e-06
-4.51399e-06
-1.7232e-06
-5.4809e-06
-2.72841e-06
-7.0724e-06
-3.50265e-06
-7.45452e-06
-3.97655e-06
-7.88242e-06
-4.01966e-06
-7.79994e-06
-3.4203e-06
-6.93246e-06
-2.81173e-06
-6.35685e-06
-2.42328e-06
-5.56492e-06
-2.0464e-06
-5.34193e-06
-1.47049e-06
-4.74297e-07
7.63698e-07
-2.43246e-07
8.62654e-07
-3.17808e-07
4.30373e-07
-5.4718e-07
4.6234e-08
-5.59435e-07
-3.08625e-07
-4.90481e-07
-7.05078e-07
-3.38486e-07
-1.13332e-06
-4.88075e-07
-1.63577e-06
-6.19479e-07
-2.27414e-06
-7.8624e-07
-2.69859e-06
-1.2399e-06
-3.48558e-06
-1.70541e-06
-4.61288e-06
-2.24764e-06
-5.0217e-06
-2.59136e-06
-5.27813e-06
-2.43564e-06
-5.14343e-06
-1.90705e-06
-4.16296e-06
-1.33595e-06
-3.49448e-06
-1.31053e-06
-3.27165e-06
-1.60373e-06
-3.05159e-06
-1.82227e-06
-2.94588e-06
-1.6547e-06
2.70879e-07
-7.80585e-07
9.16131e-07
-5.26232e-07
9.25482e-07
-8.1945e-07
8.95308e-07
-1.32329e-06
1.04492e-06
-1.70542e-06
1.22488e-06
-2.07507e-06
1.32972e-06
-2.60837e-06
1.33336e-06
-2.9289e-06
1.09412e-06
-3.13913e-06
6.86206e-07
-3.75023e-06
3.10086e-07
-4.03829e-06
-1.19151e-07
-4.14442e-06
-2.81617e-07
-4.20144e-06
-1.24805e-07
-3.46844e-06
3.18197e-07
-2.49163e-06
6.326e-07
-1.95944e-06
5.17161e-07
-1.89027e-06
-1.22239e-07
-2.00316e-06
-8.87792e-07
-2.18414e-06
-1.45892e-06
-2.04955e-06
-1.7596e-06
-4.61804e-07
4.65065e-07
-5.17215e-07
5.38267e-07
-1.24579e-07
2.14333e-07
-3.37443e-07
7.00537e-08
-5.71002e-07
2.58187e-08
-7.6652e-07
-6.86133e-08
-1.19721e-06
-4.61331e-08
-1.52779e-06
-3.45478e-07
-1.88894e-06
-7.95897e-07
-2.65294e-06
-9.24695e-07
-2.89932e-06
-1.26103e-06
-3.21835e-06
-1.40611e-06
-3.63327e-06
-1.04785e-06
-2.87289e-06
-5.80992e-07
-2.28671e-06
-2.1398e-07
-1.95173e-06
-7.22307e-08
-1.76767e-06
-1.6634e-07
-1.82044e-06
-5.03072e-07
-1.80561e-06
-7.83231e-07
-1.95877e-06
-1.11751e-06
-1.6194e-06
1.80037e-07
-7.06869e-07
4.80391e-07
-4.83241e-07
3.10332e-07
-3.67448e-07
8.25367e-08
-4.15633e-07
-1.26199e-07
-3.72363e-07
-4.07802e-07
-3.07001e-07
-6.70246e-07
-4.7402e-07
-1.07136e-06
-5.00531e-07
-1.62029e-06
-6.0096e-07
-1.65825e-06
-9.76246e-07
-2.14452e-06
-1.11975e-06
-2.74289e-06
-1.25643e-06
-2.54472e-06
-1.29061e-06
-2.74218e-06
-1.20975e-06
-2.68538e-06
-1.0145e-06
-2.42739e-06
-8.55093e-07
-2.32024e-06
-8.52029e-07
-2.20342e-06
-9.51793e-07
-2.23069e-06
-1.01269e-06
-2.10612e-06
-1.10277e-06
-1.9814e-06
-3.91072e-07
3.55434e-07
-8.21059e-07
4.60702e-07
-6.23321e-07
3.43831e-07
-6.47921e-07
3.75764e-07
-8.64994e-07
4.23843e-07
-1.06298e-06
4.34229e-07
-1.402e-06
4.5747e-07
-1.53357e-06
2.90217e-07
-1.62659e-06
1.2475e-07
-1.99662e-06
-4.63021e-08
-1.84932e-06
-1.92836e-07
-1.77526e-06
-1.50449e-07
-1.73526e-06
3.92618e-08
-1.21858e-06
3.82438e-07
-6.16658e-07
6.44144e-07
-4.35233e-07
6.77592e-07
-4.14189e-07
5.46031e-07
-5.00149e-07
2.96792e-07
-6.46261e-07
1.88411e-07
-5.76222e-07
1.52965e-07
-5.63542e-07
1.49361e-07
-6.26034e-07
3.50674e-07
-6.09659e-07
1.86544e-07
-1.16397e-07
2.17015e-08
-2.33856e-07
-5.49134e-08
-3.76865e-07
-1.00073e-07
-5.77229e-07
-9.62498e-08
-7.14473e-07
-2.54907e-07
-8.71052e-07
-2.72661e-07
-1.20264e-06
-2.96955e-07
-9.67507e-07
-5.18733e-07
-1.21989e-06
-5.12728e-07
-1.30251e-06
-4.3636e-07
-8.64483e-07
-3.54146e-07
-9.27308e-07
-3.09056e-07
-8.53987e-07
-2.56475e-07
-8.79684e-07
-2.35083e-07
-8.95589e-07
-3.26134e-07
-9.58154e-07
-4.6993e-07
-1.00075e-06
-4.8271e-07
-1.1538e-06
-3.27603e-07
-2.8049e-07
3.05841e-07
-6.25477e-07
3.18094e-07
-7.86365e-08
-2.73988e-08
1.32025e-08
-1.33781e-07
-4.6601e-08
-2.64254e-07
-9.33503e-08
-3.68801e-07
-1.89597e-07
-5.44291e-07
-7.2031e-08
-6.16481e-07
-1.9151e-07
-5.23346e-07
-3.19584e-07
-8.24508e-07
-1.73393e-07
-5.45949e-07
-5.28226e-08
-1.21403e-07
2.73944e-07
8.06865e-08
6.12467e-07
6.50685e-07
9.17901e-07
8.63405e-07
1.01149e-06
9.01873e-07
9.66126e-07
7.39061e-07
7.93931e-07
5.94771e-07
6.03001e-07
4.53075e-07
6.30323e-07
2.72206e-07
8.11508e-07
1.50915e-07
-4.57046e-07
3.51533e-07
-3.38373e-07
-3.02449e-09
8.1382e-08
-9.76696e-08
-2.47186e-08
-1.11395e-07
-1.34066e-07
-1.26424e-07
-2.71277e-07
-7.41829e-08
-3.05939e-07
-1.80664e-07
-3.92777e-07
-1.75678e-07
-5.69133e-07
-1.73215e-07
-3.48215e-07
-1.13582e-07
-2.37368e-07
1.90255e-07
6.42434e-08
5.9532e-07
7.05098e-07
9.85259e-07
1.04152e-06
1.14516e-06
1.16713e-06
1.14352e-06
1.04953e-06
1.05389e-06
9.36896e-07
8.52408e-07
7.63529e-07
6.93565e-07
5.99204e-07
7.4939e-07
4.99599e-07
9.16914e-07
-2.03309e-07
2.76462e-07
-4.08126e-07
1.33406e-07
5.98226e-08
-2.33903e-07
8.91067e-08
-1.7344e-07
7.08477e-08
-2.13559e-07
4.70039e-08
-2.1251e-07
2.27866e-10
-2.70658e-07
-1.87662e-08
-2.02655e-07
-1.04449e-07
-1.3764e-07
-9.51181e-08
-8.03835e-08
6.03498e-09
2.22322e-07
2.02334e-07
5.70356e-07
3.90473e-07
7.24807e-07
4.58521e-07
7.61221e-07
4.5436e-07
6.08367e-07
4.10433e-07
4.27516e-07
3.49171e-07
1.31482e-07
2.12504e-07
-1.14153e-07
4.47866e-08
-3.99105e-07
-2.91872e-09
-6.79476e-07
7.76074e-08
1.26473e-07
-3.05928e-07
2.61675e-07
-1.80178e-07
-1.35023e-07
8.2567e-08
-6.02428e-08
9.37492e-09
-5.79462e-08
-2.68136e-09
-6.72538e-08
-6.14353e-09
-9.35639e-08
6.30843e-09
-6.508e-08
-7.65421e-08
-7.60294e-08
-7.12612e-08
-8.79285e-08
-7.73136e-08
1.06546e-07
-6.54005e-08
9.15456e-08
-6.9328e-08
1.32191e-07
-6.37688e-08
1.41869e-07
-6.52197e-08
1.22014e-07
-6.34382e-08
9.38139e-08
-5.23157e-08
5.42639e-09
-6.96934e-08
-9.76942e-08
-9.85833e-08
-2.58272e-07
-7.99147e-08
-4.41769e-07
-5.90869e-08
-5.27873e-07
-1.39061e-07
2.32475e-07
-2.60275e-07
1.03019e-07
4.51896e-08
-8.1892e-08
-1.27716e-08
-2.05878e-08
-4.67954e-09
5.00256e-09
1.82533e-09
2.43042e-08
3.60332e-08
-1.03516e-08
2.90102e-08
4.1788e-08
9.96894e-08
6.59433e-09
2.04855e-07
5.46786e-08
2.4458e-07
1.11558e-07
4.22994e-07
1.78104e-07
5.08507e-07
1.92989e-07
5.76073e-07
1.96443e-07
5.81151e-07
1.90721e-07
6.14304e-07
1.99273e-07
5.78182e-07
2.00698e-07
5.76782e-07
2.16308e-07
5.10372e-07
2.82113e-07
4.70375e-07
4.62331e-07
4.12232e-07
1.05726e-07
-1.95637e-07
2.09949e-07
-1.02515e-07
-5.14124e-08
-2.29788e-11
-5.18198e-08
2.40948e-09
-4.84186e-08
4.90221e-08
-2.23612e-08
6.1132e-08
-4.67423e-09
8.75806e-08
6.74144e-08
4.88254e-08
1.20697e-07
6.8711e-08
1.73206e-07
8.01061e-08
3.29417e-07
9.09082e-08
4.257e-07
8.09441e-08
5.01676e-07
5.87691e-08
5.32989e-07
2.06336e-08
5.57809e-07
-1.28967e-08
5.11501e-07
-3.50946e-08
4.79612e-07
-5.03293e-08
3.86393e-07
-5.23015e-08
3.01059e-07
-1.79613e-08
1.91252e-07
7.05807e-08
9.2488e-08
-8.48867e-08
1.72648e-07
-1.5127e-07
9.90155e-08
-8.31072e-09
-3.32381e-08
-6.77206e-08
-6.79237e-08
3.99723e-08
-6.91275e-08
1.25037e-07
-8.64658e-08
2.35045e-07
-1.20604e-07
3.21318e-07
-1.45124e-07
4.19345e-07
-2.01349e-07
4.99233e-07
-2.43245e-07
4.64818e-07
-3.02587e-07
4.77278e-07
-3.08222e-07
5.06971e-07
-2.87886e-07
5.5478e-07
-2.33634e-07
6.4385e-07
-1.48402e-07
7.2386e-07
-3.79855e-08
8.22382e-07
7.33277e-08
8.70847e-07
1.86273e-07
9.29246e-07
3.10785e-07
9.68269e-07
5.18681e-07
9.09031e-07
7.45733e-08
-1.07426e-07
1.50449e-07
-5.46916e-08
2.14867e-08
-5.43918e-08
-1.34133e-08
-3.41804e-08
-1.73073e-08
1.77443e-08
7.10467e-10
7.45186e-08
1.00519e-08
1.3708e-07
1.95362e-08
2.43878e-07
-9.96918e-09
3.30648e-07
-2.96173e-08
3.73566e-07
-9.3484e-08
4.91591e-07
-1.57022e-07
4.71043e-07
-2.41529e-07
4.79746e-07
-2.79503e-07
5.23956e-07
-2.86986e-07
5.54063e-07
-2.60667e-07
5.98105e-07
-2.09847e-07
5.95919e-07
-1.66611e-07
6.27262e-07
-1.32443e-07
6.41791e-07
-1.93555e-08
6.23848e-07
6.33668e-08
-3.594e-08
1.13174e-07
-6.35544e-08
8.60825e-08
6.94231e-09
2.06909e-08
-4.6377e-08
-1.5214e-08
-1.84128e-08
2.02117e-08
4.73859e-09
7.65783e-08
2.1516e-08
1.67995e-07
1.80153e-08
2.61179e-07
3.50758e-08
3.97057e-07
-1.27261e-09
4.95555e-07
-1.90048e-08
5.75596e-07
-5.01105e-08
6.65606e-07
-6.46821e-08
7.11772e-07
-7.02424e-08
7.94775e-07
-5.10101e-08
8.45039e-07
-1.51544e-08
9.21586e-07
4.4727e-08
9.50592e-07
9.68405e-08
1.03017e-06
1.43543e-07
1.08568e-06
2.70201e-07
1.11897e-06
2.84048e-07
4.48794e-08
-3.58716e-08
8.30285e-08
-1.59652e-09
3.95591e-08
-7.64713e-09
-8.26708e-09
-2.40734e-08
-1.56579e-08
1.48527e-08
-6.07355e-09
7.54272e-08
-2.54198e-09
1.58413e-07
-8.62329e-10
2.73821e-07
-4.19796e-08
3.56347e-07
-6.20726e-08
4.56138e-07
-1.09941e-07
5.4313e-07
-1.33307e-07
5.97236e-07
-1.65488e-07
6.6653e-07
-1.69813e-07
7.07581e-07
-1.77844e-07
7.73598e-07
-1.62569e-07
8.05856e-07
-1.47737e-07
8.77766e-07
-1.27291e-07
9.14769e-07
-1.16677e-07
1.01396e-06
-2.37428e-08
1.01539e-06
-1.34379e-08
1.07219e-08
5.6814e-08
9.31389e-09
5.51336e-08
1.53439e-08
2.0706e-08
-3.96484e-08
-1.0269e-08
-4.29323e-08
1.03088e-08
-3.21382e-08
5.63804e-08
-2.01202e-08
1.33121e-07
-3.0857e-08
2.01635e-07
-4.23153e-08
2.87857e-07
-7.9433e-08
3.43764e-07
-9.71444e-08
4.05417e-07
-1.20681e-07
4.9184e-07
-1.17126e-07
5.76676e-07
-1.20839e-07
6.80715e-07
-1.06416e-07
7.6347e-07
-9.45452e-08
8.54582e-07
-6.27155e-08
9.05334e-07
-3.71908e-08
9.86843e-07
-7.73033e-09
1.05365e-06
7.3196e-08
1.07478e-06
9.75856e-09
3.30677e-08
3.2999e-08
5.43301e-08
2.07419e-08
3.59405e-08
-2.2502e-08
-9.20684e-10
-6.87025e-08
-1.17771e-08
-6.51058e-08
-1.74114e-08
-3.02348e-08
-4.58559e-08
2.47084e-08
-9.21621e-08
9.64999e-08
-1.48471e-07
1.49843e-07
-2.01925e-07
2.10168e-07
-2.41394e-07
2.81736e-07
-2.64945e-07
3.72172e-07
-2.82275e-07
4.65904e-07
-2.95163e-07
5.62871e-07
-3.1257e-07
6.64378e-07
-3.30962e-07
7.56331e-07
-3.53783e-07
8.77557e-07
-3.7603e-07
9.68368e-07
-4.07122e-07
1.13082e-06
-3.55794e-07
1.15432e-06
-3.50398e-07
4.19271e-08
4.06567e-08
3.0588e-08
3.23705e-08
4.7878e-09
1.41993e-08
-5.76106e-08
5.07973e-09
-1.06058e-07
3.24724e-08
-1.65257e-07
6.45705e-08
-2.34763e-07
1.01321e-07
-3.07119e-07
1.27776e-07
-3.56219e-07
1.40296e-07
-3.89741e-07
1.61358e-07
-3.9369e-07
2.14663e-07
-3.88078e-07
2.7582e-07
-3.67992e-07
3.61073e-07
-3.46606e-07
4.25048e-07
-3.21082e-07
5.00078e-07
-2.96012e-07
5.45681e-07
-2.70796e-07
5.97704e-07
-2.54226e-07
6.26692e-07
-2.58324e-07
6.76e-07
-2.77782e-07
6.36352e-07
-3.94688e-07
3.66764e-09
7.27229e-09
7.14241e-09
4.14082e-09
4.16619e-09
-1.10754e-08
-3.6992e-09
-2.99151e-08
-1.75447e-09
-6.05862e-08
2.01291e-09
-1.1339e-07
1.26949e-08
-1.94832e-07
1.20966e-08
-2.95589e-07
1.64458e-08
-3.99532e-07
5.82204e-09
-5.08412e-07
3.10712e-09
-6.16233e-07
3.31737e-10
-7.22645e-07
1.91843e-08
-8.26888e-07
5.33417e-08
-9.34047e-07
1.23958e-07
-1.04997e-06
2.21913e-07
-1.18251e-06
3.79651e-07
-1.33832e-06
5.76788e-07
-1.52009e-06
8.55618e-07
-1.81975e-06
1.14588e-06
-1.99076e-06
1.6618e-06
-0.0057751
-0.000360279
-0.000907351
-0.00395771
0.00327108
0.000196562
-0.000366651
0.00059367
0.000125524
0.0016818
0.00326345
-0.000395312
-0.000237185
0.00168303
-0.000997367
0.00113563
-0.00111515
0.00112059
-0.00130838
0.00042913
-0.000647163
-7.65105e-05
-7.90739e-05
-6.61016e-05
-5.53122e-05
-0.0002939
0.000150802
-3.39755e-05
-2.26673e-05
-0.000203484
0.00013317
-3.85584e-05
0.000161538
7.80697e-05
3.02e-05
6.67888e-05
4.21185e-05
3.5719e-05
7.53437e-05
-1.6738e-05
4.00016e-05
9.12504e-05
-2.88156e-05
0.00011352
-4.37211e-05
4.68839e-05
6.80833e-05
-3.22308e-05
-2.01259e-05
2.85633e-05
-1.92389e-05
3.24953e-06
-5.46884e-06
6.15516e-06
2.37295e-05
-2.97207e-05
6.54358e-06
-1.26279e-05
3.11092e-06
-9.06805e-06
1.46355e-06
-1.03073e-05
-3.93976e-06
-4.80156e-06
-3.7796e-06
-1.00666e-05
2.60497e-06
-3.52113e-06
-1.70825e-06
-6.44721e-06
5.2406e-06
-3.62496e-06
1.57387e-06
3.15052e-07
-0.00186764
-0.000520938
-0.000612937
-0.00110275
0.000636395
0.000241654
0.000117482
0.000616075
0.000544024
0.000806472
0.00113798
0.000526662
0.000273287
0.000959101
-0.000181672
0.000608285
-0.000386511
0.000370815
-0.000239908
0.000224753
-6.87808e-05
2.99773e-05
2.48035e-05
-4.3311e-06
2.63342e-05
-5.20232e-05
6.82621e-05
4.95277e-06
5.19435e-06
-4.19874e-05
2.27239e-05
-1.34517e-06
2.74543e-05
1.8579e-05
8.98834e-06
1.30399e-05
4.81727e-06
3.81406e-06
2.84206e-06
-1.84471e-05
5.26784e-06
1.04034e-05
-1.82061e-05
2.02903e-05
-2.2625e-05
8.02973e-06
1.53072e-06
-1.02903e-05
-1.45854e-05
4.83983e-06
-1.2649e-05
-2.8132e-06
-6.49382e-06
-8.63823e-07
5.02258e-07
-1.03773e-05
-9.40602e-08
-6.85757e-06
-6.83121e-07
-4.93988e-06
-1.75549e-06
-4.1153e-06
-2.60085e-06
-2.61013e-06
-1.84553e-06
-3.25939e-06
1.97645e-07
-1.37621e-06
-7.19709e-07
-2.0734e-06
2.27573e-06
-1.40076e-06
8.88887e-07
1.78195e-07
-0.000607568
-5.26245e-05
6.52336e-05
-0.000116191
0.000178036
-2.11078e-05
-0.000126904
-4.87641e-05
-0.000312727
-0.000187598
-0.000101546
-0.000182291
-0.000204393
0.00010582
-0.000451484
6.38947e-05
-0.000445059
-1.15851e-06
-0.000242648
-5.74291e-05
-0.00016452
-0.000141336
-0.000112602
-0.000113964
-6.88516e-05
-0.000107832
-9.48339e-06
-4.03912e-05
-1.9623e-05
-5.4781e-05
1.20376e-05
-4.64228e-07
2.55356e-05
2.37487e-05
2.27546e-05
3.58708e-05
3.18053e-05
2.85217e-05
2.81588e-05
2.38327e-05
2.9083e-05
2.85168e-05
1.37601e-05
3.65468e-05
2.30297e-06
2.5637e-05
1.33079e-05
9.65983e-06
1.1467e-06
1.60665e-05
-9.34821e-07
6.83338e-06
2.65256e-06
6.32739e-06
5.48356e-06
-3.10304e-06
4.30722e-06
-2.81404e-06
2.43716e-06
-2.22036e-06
6.13374e-07
-2.10956e-06
-1.00622e-06
-1.50899e-06
-1.40002e-06
-2.40182e-06
-3.0301e-07
-1.77726e-06
-1.79236e-06
-2.42754e-06
1.34333e-06
-2.08841e-06
3.88074e-07
2.28749e-08
-0.000907333
-0.00052679
-0.000471271
-0.000469102
-2.49845e-05
7.75384e-05
0.000156042
0.00037487
0.000377013
0.000444976
0.000553188
0.000470394
0.000368778
0.000541401
6.32005e-05
0.000337897
-0.000153177
0.000119727
-7.93582e-05
6.24317e-05
-3.57891e-05
-1.74482e-05
-1.23114e-05
-3.29822e-05
2.73173e-06
-3.63494e-05
3.71578e-05
7.00956e-06
1.18184e-06
-1.35755e-05
1.33851e-05
1.04328e-05
2.00612e-05
2.02914e-05
1.94605e-05
1.28921e-05
1.07712e-05
8.04598e-06
1.77478e-06
-2.54523e-06
9.01358e-06
4.36298e-06
-4.72394e-06
1.09845e-05
-1.03766e-05
5.46984e-06
-4.94273e-06
-4.75673e-07
-9.38792e-06
3.35374e-06
-8.15653e-06
-1.1794e-06
-3.80419e-06
-1.86094e-07
-1.48358e-06
-4.99465e-06
-6.13319e-07
-4.76969e-06
-9.7727e-07
-3.59855e-06
-1.89178e-06
-2.85694e-06
-2.26626e-06
-2.18822e-06
-1.64106e-06
-2.21313e-06
-6.66471e-07
-1.36065e-06
-1.17873e-06
-1.30673e-06
1.25961e-06
-1.4782e-06
5.83208e-07
6.14761e-08
-0.000199101
-0.000113634
-2.88405e-06
7.81505e-06
1.18679e-05
-2.82688e-05
-5.71539e-06
-5.96736e-05
-0.000148213
-0.000176285
-0.000131845
-0.000104548
-0.000121586
-9.49076e-05
-0.000236854
-9.11404e-05
-0.000248256
-0.000112722
-0.000112212
-8.33396e-05
-9.17243e-05
-9.54235e-05
-8.47104e-05
-7.65022e-05
-5.84303e-05
-6.90275e-05
-2.43328e-05
-2.85721e-05
-3.46489e-05
-3.62668e-05
-1.03432e-05
-4.08317e-06
1.80119e-07
3.62779e-06
1.53266e-05
1.9298e-05
1.67945e-05
1.74097e-05
2.01848e-05
2.06896e-05
2.134e-05
1.69216e-05
1.70925e-05
2.06704e-05
6.9107e-06
1.50451e-05
6.29572e-06
1.04386e-05
2.77569e-06
9.51941e-06
9.60273e-07
4.9431e-06
2.47656e-06
4.42827e-06