/*--------------------------------*- C++ -*----------------------------------*\
| =========                 |                                                 |
| \\      /  F ield         | OpenFOAM: The Open Source CFD Toolbox           |
|  \\    /   O peration     | Version:  2312                                  |
|   \\  /    A nd           | Website:  www.openfoam.com                      |
|    \\/     M anipulation  |                                                 |
\*---------------------------------------------------------------------------*/
FoamFile
{
    version     2.0;
    format      ascii;
    arch        "LSB;label=32;scalar=64";
    class       volScalarField;
    location    "950";
    object      magR;
}
// * * * * * * * * * * * * * * * * * * * * * * * * * * * * * * * * * * * * * //

dimensions      [0 2 -2 0 0 0 0];

internalField   nonuniform List<scalar> 
11040
(
0.478316
0.528221
0.0825265
0.0554057
0.337338
0.347322
0.329184
0.30032
0.270303
0.251391
0.233695
0.218322
0.20569
0.19599
0.188175
0.184222
0.183934
0.187523
0.194428
0.20454
0.218229
0.23509
0.255121
0.278615
0.305627
0.337321
0.372714
0.406754
0.43635
0.457935
0.467771
0.462667
0.443755
0.417521
0.394982
0.30993
0.161485
0.0992928
0.0415032
0.137382
0.269272
0.0390243
0.0821338
0.281986
0.517117
1.00123
0.334755
0.104014
0.0356489
0.00919792
0.00714344
0.016993
0.0225772
0.0262568
0.0288791
0.030584
0.0322256
0.0342747
0.0367321
0.0392526
0.04183
0.0445361
0.0474926
0.0498994
0.0508872
0.0502017
0.0488088
0.0471692
0.0440814
0.0395994
0.0344408
0.030242
0.0291673
0.0294709
0.0330597
0.0407551
0.0526717
0.0695656
0.0915581
0.146143
0.16737
0.669482
0.024081
0.0216166
0.0485917
0.21338
1.16098
1.56181
0.810529
0.307046
0.144572
0.0864255
0.0486846
0.0277784
0.0134336
0.00389452
0.0040605
0.00856068
0.0118189
0.0142424
0.0160167
0.0172374
0.0180415
0.018438
0.017972
0.0164673
0.0142472
0.0117619
0.00917831
0.00622367
0.00248249
0.00435005
0.0131912
0.0261874
0.0437824
0.0663924
0.0948473
0.130844
0.176152
0.227716
0.339452
0.443384
0.645375
0.0173175
0.0148116
0.0123198
0.0191745
0.275692
1.34596
2.01423
1.35483
0.566573
0.304766
0.180868
0.121658
0.0855633
0.0608898
0.0453393
0.0343925
0.0276561
0.0233004
0.0209009
0.0200599
0.0202573
0.0214517
0.0238092
0.0271267
0.0306213
0.0336343
0.0356337
0.0362225
0.0354618
0.0349371
0.0389538
0.0525437
0.0773641
0.113913
0.162802
0.226533
0.30794
0.401147
0.569578
0.78308
0.702088
0.0128945
0.0116246
0.0123933
0.00619408
0.00825931
0.246353
1.28016
2.27543
1.95935
0.985129
0.521009
0.315258
0.21819
0.157729
0.122513
0.0977061
0.0825585
0.0724969
0.0665339
0.0636217
0.062584
0.0629879
0.0649298
0.0683056
0.0721168
0.0755177
0.0777482
0.0781257
0.0764429
0.073891
0.0747438
0.0871795
0.118524
0.170849
0.244082
0.34064
0.464178
0.608556
0.821317
1.15149
0.933078
0.00930445
0.00854422
0.00831369
0.00920858
0.00281784
0.00201556
0.166505
1.02525
2.31038
2.49831
1.62286
0.829775
0.514841
0.346516
0.256946
0.199231
0.165133
0.143028
0.129376
0.122056
0.118392
0.117288
0.118492
0.121903
0.126244
0.130396
0.133163
0.133274
0.129853
0.12348
0.118436
0.126095
0.161308
0.230098
0.331223
0.465613
0.636769
0.838854
1.08965
1.51262
1.28458
0.00672092
0.0064236
0.00603075
0.00642588
0.00664123
0.00126358
5.61715e-05
0.0776673
0.687867
2.01383
2.81212
2.36264
1.37929
0.785754
0.528455
0.388349
0.304363
0.251702
0.219371
0.20165
0.192097
0.188138
0.188344
0.192195
0.197768
0.203415
0.207307
0.207315
0.201505
0.1894
0.174389
0.169702
0.200239
0.281833
0.411828
0.58681
0.807882
1.06821
1.35656
1.83366
1.67999
0.00490538
0.00479645
0.00472408
0.0045383
0.00491451
0.00515018
0.000235788
2.86943e-06
0.0237043
0.370404
1.453
2.74083
2.96328
2.16501
1.25512
0.787742
0.563995
0.440972
0.364613
0.319507
0.294146
0.28311
0.280491
0.284533
0.29195
0.300137
0.306287
0.307049
0.298798
0.27946
0.250101
0.222156
0.229525
0.310703
0.465499
0.680229
0.949282
1.26177
1.5878
2.06853
2.03377
0.00362343
0.00357237
0.00357918
0.00354965
0.00341045
0.00385876
0.0036861
0.000495248
0.000452001
0.000941448
0.142183
0.835481
2.17692
3.16183
2.95663
2.03106
1.22219
0.821712
0.62191
0.511634
0.447831
0.41737
0.405963
0.407772
0.41667
0.427736
0.436819
0.439322
0.429861
0.40351
0.35753
0.296655
0.251418
0.296666
0.461875
0.710814
1.02126
1.37438
1.73058
2.17571
2.25408
0.00269129
0.0026675
0.00268694
0.00271609
0.00269344
0.00261105
0.00294071
0.00263154
0.000841054
0.000115158
0.00214487
0.031717
0.362676
1.35789
2.73293
3.3894
2.93556
1.99597
1.25962
0.890817
0.711802
0.625155
0.586017
0.575761
0.582124
0.596528
0.611254
0.617965
0.60877
0.576765
0.515733
0.421538
0.303232
0.232389
0.361133
0.634628
0.977429
1.35685
1.72806
2.11734
2.26969
0.00200759
0.0019965
0.00201659
0.00204828
0.00207722
0.00205806
0.00203059
0.00217319
0.00215265
0.00112218
7.71024e-05
0.000395478
0.000346906
0.0980055
0.620783
1.79865
3.09535
3.5307
2.97836
2.06773
1.37009
1.02822
0.885609
0.827853
0.811454
0.818565
0.835582
0.849503
0.848478
0.820668
0.7544
0.63968
0.471343
0.252765
0.118735
0.408395
0.778651
1.17095
1.53828
1.86264
2.03976
0.00150061
0.00149612
0.00151057
0.00153936
0.00156964
0.00159376
0.00158864
0.00157296
0.00162749
0.00169172
0.00125045
3.65629e-05
2.32513e-05
0.0016295
0.0124476
0.186186
0.846907
2.09395
3.31045
3.66366
3.12328
2.29966
1.67207
1.33186
1.18753
1.14585
1.14612
1.15664
1.1604
1.14223
1.08773
0.983725
0.821609
0.600878
0.34328
0.238437
0.515263
0.876679
1.20761
1.45632
1.59904
0.00112229
0.00112132
0.00113102
0.00115306
0.00118056
0.00120671
0.0012275
0.0012327
0.00122407
0.00123985
0.00131242
0.00112999
0.000264679
2.69192e-05
0.000171021
0.00347325
0.0259715
0.253555
0.972097
2.21934
3.4146
3.83443
3.50352
2.89223
2.32027
1.92074
1.70147
1.61302
1.59297
1.58605
1.55641
1.48519
1.36598
1.20547
1.02854
0.888265
0.862205
0.974083
1.14282
1.25877
1.27056
0.000838666
0.000839601
0.000845853
0.000861765
0.000884034
0.000907756
0.000929893
0.000948613
0.00095887
0.000957084
0.000958588
0.00101024
0.000974285
0.000553574
7.64365e-06
3.87428e-06
0.000415178
0.00529333
0.0353227
0.273176
0.972154
2.12345
3.26823
3.94509
4.04661
3.78028
3.37765
2.97517
2.64256
2.40473
2.25408
2.16192
2.09354
2.02551
1.95599
1.89819
1.87241
1.88743
1.93472
1.9678
1.84927
0.000625339
0.000627241
0.00063124
0.00064253
0.000659581
0.00067914
0.000699086
0.000717996
0.000734732
0.000747036
0.000750116
0.000751756
0.000777437
0.000784915
0.000685115
0.000192276
2.24323e-05
3.72174e-07
0.000711536
0.00543836
0.0324155
0.221841
0.721985
1.57815
2.624
3.57569
4.22156
4.51951
4.55085
4.41272
4.173
3.88277
3.59119
3.34377
3.17368
3.09478
3.10395
3.17112
3.26073
3.35001
3.26419
0.000464726
0.00046691
0.000469472
0.000477398
0.000490107
0.000505355
0.000521714
0.000538401
0.000554545
0.000569244
0.000581456
0.000588126
0.000592727
0.00059919
0.000628043
0.000588957
0.000454513
3.22909e-05
7.70188e-06
8.35826e-08
0.000796727
0.00359605
0.0113586
0.0899667
0.325278
0.797075
1.51539
2.40084
3.31977
4.14716
4.80526
5.26336
5.52506
5.61643
5.58133
5.46953
5.33196
5.20304
5.11561
5.11342
5.02535
0.000344825
0.000346861
0.000348565
0.000354163
0.000363516
0.000375019
0.000387768
0.000401262
0.000415017
0.000428415
0.000440906
0.000451893
0.000460523
0.000465611
0.000472443
0.000483921
0.000500629
0.000441186
0.000267305
7.73484e-06
4.08339e-06
5.58188e-08
0.000237637
0.00176907
3.75403e-05
0.0117015
0.064919
0.208244
0.493791
0.952231
1.58444
2.35754
3.21493
4.09325
4.93171
5.67462
6.28887
6.75911
7.0986
7.371
7.44925
0.000258334
0.000260134
0.000261421
0.000265595
0.000272643
0.000281415
0.000291296
0.000301984
0.000313136
0.000324387
0.000335349
0.000345712
0.000355209
0.000363445
0.000369541
0.000374958
0.000381756
0.000397075
0.00039948
0.000343676
0.000185767
5.28055e-06
3.41833e-06
2.01597e-07
5.07393e-07
0.000260773
0.00140732
0.00235883
0.000875969
0.0111539
0.051775
0.150266
0.336465
0.639432
1.07659
1.64976
2.34482
3.14019
3.99576
4.89265
5.69709
0.000197163
0.000198748
0.000199797
0.000203034
0.00020848
0.000215297
0.000223066
0.000231612
0.000240706
0.000250065
0.000259426
0.000268543
0.000277208
0.000285301
0.000292546
0.000298821
0.000303497
0.000309165
0.000317019
0.000327687
0.000324314
0.000271834
0.000181472
1.9346e-05
4.66134e-06
1.11231e-06
9.46008e-08
0
1.07735e-05
0.000225429
0.00113269
0.00173167
9.08494e-06
0.001422
0.009816
0.0403943
0.107842
0.231259
0.427697
0.714206
1.09395
0.000153243
0.000154585
0.000155454
0.00015801
0.000162274
0.000167625
0.000173768
0.000180587
0.000187934
0.000195609
0.000203433
0.000211248
0.000218889
0.000226206
0.000233077
0.000239426
0.000245078
0.000249921
0.00025414
0.000259545
0.000267085
0.000273535
0.000272371
0.000240772
0.00018032
0.000110437
1.02357e-05
3.11806e-06
9.32884e-07
4.95653e-07
2.37975e-08
0
1.887e-07
1.98296e-05
0.000188154
0.000887261
0.00146037
0.00112945
0.000922393
0.000319786
0.00692851
0.000120724
0.000121835
0.000122564
0.00012461
0.000127988
0.000132231
0.000137128
0.000142594
0.00014852
0.000154767
0.000161204
0.000167728
0.000174228
0.00018059
0.000186714
0.000192511
0.000197928
0.000202892
0.000207303
0.000211194
0.000214882
0.000219734
0.000225201
0.000232255
0.000231929
0.000224898
0.00019922
0.000157006
0.000107964
6.02766e-05
3.13611e-06
1.73766e-06
7.17957e-07
4.77699e-07
2.56613e-07
3.29516e-08
0
0
0
2.23652e-06
0.000105678
9.61358e-05
9.70477e-05
9.76707e-05
9.93295e-05
0.000102032
0.000105426
0.000109358
0.000113761
0.000118554
0.000123633
0.000128899
0.000134281
0.000139698
0.000145068
0.000150317
0.000155377
0.000160189
0.00016471
0.000168905
0.000172759
0.000176109
0.000179129
0.000182005
0.000185598
0.000189916
0.000194068
0.000198854
0.000199399
0.000193966
0.000184417
0.000164118
0.000135287
0.000102867
7.07527e-05
4.008e-05
5.53116e-06
1.61848e-06
5.47136e-07
4.20067e-07
3.01794e-07
1.91719e-07
7.72134e-05
7.79582e-05
7.84967e-05
7.98536e-05
8.2031e-05
8.47654e-05
8.79393e-05
9.15007e-05
9.53849e-05
9.95133e-05
0.000103811
0.000108224
0.000112694
0.000117158
0.000121558
0.000125844
0.000129968
0.00013389
0.000137575
0.000141022
0.000144132
0.000146877
0.000149316
0.000151423
0.000153466
0.000155546
0.00015811
0.000161129
0.000164175
0.000166628
0.000169239
0.000169321
0.0001665
0.000160693
0.000152666
0.000139803
0.000122833
0.000102839
8.20093e-05
6.12863e-05
4.11384e-05
6.2449e-05
6.30564e-05
6.35263e-05
6.46449e-05
6.64109e-05
6.86263e-05
7.12014e-05
7.40931e-05
7.72489e-05
8.06078e-05
8.41122e-05
8.77177e-05
9.13821e-05
9.50559e-05
9.86935e-05
0.000102255
0.000105703
0.000109005
0.000112128
0.000115066
0.000117737
0.000120123
0.000122275
0.000124124
0.000125697
0.000127044
0.000128215
0.000129316
0.00013047
0.000131659
0.000133045
0.000134576
0.000136066
0.000137361
0.000138261
0.000139127
0.000139121
0.00013788
0.000135362
0.000131361
0.000126995
5.07961e-05
5.12916e-05
5.17043e-05
5.2632e-05
5.40721e-05
5.58757e-05
5.79735e-05
6.03286e-05
6.2898e-05
6.56333e-05
6.84889e-05
7.1429e-05
7.44207e-05
7.74254e-05
8.0406e-05
8.33306e-05
8.61692e-05
8.88934e-05
9.14765e-05
9.39106e-05
9.61227e-05
9.80986e-05
9.9879e-05
0.000101415
0.000102718
0.000103812
0.000104707
0.000105412
0.000105947
0.00010634
0.000106611
0.000106806
0.000106957
0.000107101
0.000107229
0.000107376
0.000107528
0.000107675
0.000107805
0.000107742
0.000107802
4.15116e-05
4.19166e-05
4.22812e-05
4.3055e-05
4.42352e-05
4.57103e-05
4.74256e-05
4.93493e-05
5.14455e-05
5.36755e-05
5.60025e-05
5.83975e-05
6.08335e-05
6.32794e-05
6.5706e-05
6.80868e-05
7.03974e-05
7.26141e-05
7.47141e-05
7.66896e-05
7.84782e-05
8.00695e-05
8.14984e-05
8.27209e-05
8.37449e-05
8.4591e-05
8.52711e-05
8.57916e-05
8.61592e-05
8.63832e-05
8.64709e-05
8.64314e-05
8.62723e-05
8.60105e-05
8.56628e-05
8.52344e-05
8.47342e-05
8.41848e-05
8.36258e-05
8.30042e-05
8.24742e-05
3.40554e-05
3.43877e-05
3.47113e-05
3.53603e-05
3.63323e-05
3.75438e-05
3.89513e-05
4.05268e-05
4.22404e-05
4.40603e-05
4.59569e-05
4.79062e-05
4.9886e-05
5.18708e-05
5.38371e-05
5.57631e-05
5.76287e-05
5.94142e-05
6.11004e-05
6.26804e-05
6.41014e-05
6.53572e-05
6.64797e-05
6.743e-05
6.8213e-05
6.88452e-05
6.93368e-05
6.96944e-05
6.99257e-05
7.00391e-05
7.00427e-05
6.99451e-05
6.97509e-05
6.947e-05
6.91124e-05
6.86812e-05
6.81789e-05
6.76148e-05
6.70188e-05
6.63382e-05
6.57529e-05
2.80273e-05
2.83015e-05
2.85903e-05
2.9138e-05
2.99426e-05
3.09422e-05
3.21011e-05
3.33949e-05
3.47984e-05
3.62856e-05
3.78321e-05
3.94181e-05
4.10249e-05
4.26318e-05
4.42194e-05
4.577e-05
4.7267e-05
4.8694e-05
5.00352e-05
5.12845e-05
5.23982e-05
5.33735e-05
5.424e-05
5.49644e-05
5.55498e-05
5.60101e-05
5.63539e-05
5.65869e-05
5.67158e-05
5.67482e-05
5.66916e-05
5.65541e-05
5.63406e-05
5.60603e-05
5.57219e-05
5.53288e-05
5.48833e-05
5.43926e-05
5.38818e-05
5.33032e-05
5.28149e-05
2.3126e-05
2.33543e-05
2.36135e-05
2.40788e-05
2.47488e-05
2.55772e-05
2.65349e-05
2.76004e-05
2.87523e-05
2.99693e-05
3.12311e-05
3.25212e-05
3.38242e-05
3.5123e-05
3.64013e-05
3.7645e-05
3.88404e-05
3.99741e-05
4.10329e-05
4.2012e-05
4.28753e-05
4.3623e-05
4.42823e-05
4.48252e-05
4.52538e-05
4.558e-05
4.58113e-05
4.59526e-05
4.60098e-05
4.59893e-05
4.58977e-05
4.57418e-05
4.55261e-05
4.52582e-05
4.49456e-05
4.45913e-05
4.41974e-05
4.37694e-05
4.33285e-05
4.28367e-05
4.24165e-05
1.91217e-05
1.93139e-05
1.95483e-05
1.99467e-05
2.0508e-05
2.1198e-05
2.19925e-05
2.28727e-05
2.38202e-05
2.48176e-05
2.58481e-05
2.68978e-05
2.7954e-05
2.90025e-05
3.00297e-05
3.10242e-05
3.19751e-05
3.28714e-05
3.37022e-05
3.4464e-05
3.51271e-05
3.5694e-05
3.61894e-05
3.659e-05
3.68976e-05
3.71221e-05
3.72702e-05
3.73462e-05
3.73551e-05
3.73023e-05
3.71935e-05
3.70344e-05
3.68289e-05
3.65831e-05
3.63032e-05
3.59918e-05
3.56507e-05
3.52839e-05
3.4909e-05
3.4496e-05
3.41385e-05
1.58367e-05
1.60011e-05
1.62147e-05
1.65585e-05
1.7032e-05
1.761e-05
1.82719e-05
1.90013e-05
1.97829e-05
2.06019e-05
2.14445e-05
2.22991e-05
2.31551e-05
2.40009e-05
2.48252e-05
2.56187e-05
2.63728e-05
2.70786e-05
2.77273e-05
2.83163e-05
2.88217e-05
2.9247e-05
2.96149e-05
2.9906e-05
3.01217e-05
3.02707e-05
3.03587e-05
3.03896e-05
3.03673e-05
3.02967e-05
3.01824e-05
3.00292e-05
2.98402e-05
2.96206e-05
2.93752e-05
2.91062e-05
2.88152e-05
2.85051e-05
2.81903e-05
2.78472e-05
2.75464e-05
1.31323e-05
1.32757e-05
1.34719e-05
1.37713e-05
1.41737e-05
1.46606e-05
1.52147e-05
1.58216e-05
1.64682e-05
1.71424e-05
1.78326e-05
1.8529e-05
1.92231e-05
1.99052e-05
2.05662e-05
2.11983e-05
2.17949e-05
2.23489e-05
2.28535e-05
2.33066e-05
2.36892e-05
2.40056e-05
2.42759e-05
2.44844e-05
2.46322e-05
2.47267e-05
2.47729e-05
2.47741e-05
2.47337e-05
2.46556e-05
2.45436e-05
2.44018e-05
2.42327e-05
2.40402e-05
2.38285e-05
2.35993e-05
2.33537e-05
2.3094e-05
2.28319e-05
2.2549e-05
2.22964e-05
1.08994e-05
1.10273e-05
1.12088e-05
1.14719e-05
1.18167e-05
1.22296e-05
1.26959e-05
1.3203e-05
1.374e-05
1.42965e-05
1.48633e-05
1.54318e-05
1.5995e-05
1.65454e-05
1.70752e-05
1.75782e-05
1.80494e-05
1.84832e-05
1.88742e-05
1.92211e-05
1.95089e-05
1.97418e-05
1.9938e-05
2.00844e-05
2.01822e-05
2.02376e-05
2.0255e-05
2.02372e-05
2.0187e-05
2.01077e-05
2.00024e-05
1.98743e-05
1.97256e-05
1.95593e-05
1.93788e-05
1.91853e-05
1.89799e-05
1.8764e-05
1.85473e-05
1.83155e-05
1.81045e-05
9.05137e-06
9.16793e-06
9.3371e-06
9.57044e-06
9.86833e-06
1.02209e-05
1.06157e-05
1.10417e-05
1.14895e-05
1.19508e-05
1.24175e-05
1.28827e-05
1.33406e-05
1.37851e-05
1.42101e-05
1.46104e-05
1.49822e-05
1.53215e-05
1.5624e-05
1.5889e-05
1.61046e-05
1.62751e-05
1.64165e-05
1.6518e-05
1.65806e-05
1.66098e-05
1.66092e-05
1.65812e-05
1.6528e-05
1.64523e-05
1.63568e-05
1.62439e-05
1.61154e-05
1.59737e-05
1.58213e-05
1.56595e-05
1.5489e-05
1.53105e-05
1.51322e-05
1.49433e-05
1.47658e-05
7.51884e-06
7.62738e-06
7.78591e-06
7.99473e-06
8.2544e-06
8.55779e-06
8.89426e-06
9.25422e-06
9.62975e-06
1.00137e-05
1.03996e-05
1.07816e-05
1.11547e-05
1.15144e-05
1.18557e-05
1.21744e-05
1.24676e-05
1.27325e-05
1.29658e-05
1.31671e-05
1.33273e-05
1.34503e-05
1.35502e-05
1.36181e-05
1.3655e-05
1.36656e-05
1.3653e-05
1.36191e-05
1.35659e-05
1.34955e-05
1.341e-05
1.33116e-05
1.32015e-05
1.30816e-05
1.2954e-05
1.28196e-05
1.26788e-05
1.25323e-05
1.23866e-05
1.22332e-05
1.20859e-05
6.246e-06
6.34894e-06
6.4982e-06
6.68668e-06
6.91512e-06
7.17835e-06
7.46725e-06
7.77347e-06
8.09027e-06
8.41168e-06
8.73222e-06
9.04714e-06
9.3524e-06
9.64436e-06
9.91921e-06
1.01737e-05
1.04056e-05
1.0613e-05
1.07937e-05
1.09474e-05
1.10673e-05
1.11566e-05
1.12278e-05
1.12735e-05
1.12946e-05
1.12948e-05
1.1277e-05
1.12427e-05
1.11934e-05
1.11308e-05
1.10568e-05
1.09728e-05
1.08801e-05
1.07799e-05
1.06741e-05
1.05631e-05
1.04476e-05
1.03277e-05
1.02088e-05
1.00851e-05
9.95937e-06
5.18771e-06
5.28676e-06
5.42778e-06
5.5993e-06
5.80212e-06
6.03246e-06
6.28247e-06
6.54489e-06
6.81393e-06
7.08462e-06
7.35238e-06
7.6133e-06
7.86407e-06
8.10183e-06
8.32365e-06
8.52694e-06
8.71017e-06
8.87194e-06
9.01075e-06
9.12653e-06
9.21422e-06
9.27672e-06
9.32485e-06
9.35259e-06
9.36072e-06
9.35265e-06
9.33067e-06
9.29609e-06
9.25017e-06
9.19435e-06
9.12998e-06
9.05834e-06
8.9803e-06
8.89695e-06
8.80957e-06
8.71855e-06
8.62444e-06
8.52704e-06
8.43113e-06
8.3311e-06
8.22906e-06
4.30732e-06
4.40361e-06
4.5372e-06
4.69449e-06
4.87621e-06
5.07946e-06
5.29749e-06
5.524e-06
5.75407e-06
5.98351e-06
6.20855e-06
6.42602e-06
6.63329e-06
6.82826e-06
7.00879e-06
7.17292e-06
7.31963e-06
7.44813e-06
7.55747e-06
7.64777e-06
7.71526e-06
7.76212e-06
7.79771e-06
7.81693e-06
7.82046e-06
7.81112e-06
7.7908e-06
7.76054e-06
7.72136e-06
7.6744e-06
7.62078e-06
7.56149e-06
7.49726e-06
7.42891e-06
7.35752e-06
7.2834e-06
7.20695e-06
7.12792e-06
7.05007e-06
6.97089e-06
6.87975e-06
3.57494e-06
3.66904e-06
3.79578e-06
3.94108e-06
4.10533e-06
4.28611e-06
4.47758e-06
4.67434e-06
4.87229e-06
5.06796e-06
5.25824e-06
5.44048e-06
5.61251e-06
5.77259e-06
5.91912e-06
6.0506e-06
6.16629e-06
6.26578e-06
6.34861e-06
6.415e-06
6.4624e-06
6.4929e-06
6.51455e-06
6.52326e-06
6.5197e-06
6.50632e-06
6.48473e-06
6.45581e-06
6.42038e-06
6.37937e-06
6.33363e-06
6.28394e-06
6.23082e-06
6.1749e-06
6.11696e-06
6.05712e-06
5.9959e-06
5.93265e-06
5.87128e-06
5.8065e-06
5.73871e-06
2.96577e-06
3.05797e-06
3.1783e-06
3.31325e-06
3.46271e-06
3.62456e-06
3.79371e-06
3.96557e-06
4.13676e-06
4.30456e-06
4.4665e-06
4.62055e-06
4.76509e-06
4.89904e-06
5.02148e-06
5.13135e-06
5.22814e-06
5.31166e-06
5.38157e-06
5.43812e-06
5.47935e-06
5.50633e-06
5.52608e-06
5.53508e-06
5.53386e-06
5.52448e-06
5.50824e-06
5.48587e-06
5.45805e-06
5.42554e-06
5.38909e-06
5.34935e-06
5.30679e-06
5.26189e-06
5.21538e-06
5.16744e-06
5.11833e-06
5.0677e-06
5.01794e-06
4.96973e-06
4.89989e-06
2.45922e-06
2.54999e-06
2.66459e-06
2.79035e-06
2.92658e-06
3.07159e-06
3.22135e-06
3.37206e-06
3.52085e-06
3.66543e-06
3.8038e-06
3.93432e-06
4.05544e-06
4.16567e-06
4.26393e-06
4.34963e-06
4.42287e-06
4.48405e-06
4.53346e-06
4.57145e-06
4.59696e-06
4.61155e-06
4.62088e-06
4.62216e-06
4.6159e-06
4.60383e-06
4.58704e-06
4.5661e-06
4.54151e-06
4.51383e-06
4.4836e-06
4.45124e-06
4.41709e-06
4.38147e-06
4.34483e-06
4.30713e-06
4.26892e-06
4.22916e-06
4.19177e-06
4.14879e-06
4.11103e-06
2.03951e-06
2.12928e-06
2.23898e-06
2.35662e-06
2.48056e-06
2.60962e-06
2.74119e-06
2.87281e-06
3.00242e-06
3.12798e-06
3.24761e-06
3.36008e-06
3.46507e-06
3.56294e-06
3.6536e-06
3.73562e-06
3.80768e-06
3.86933e-06
3.92053e-06
3.96177e-06
3.99218e-06
4.01192e-06
4.02644e-06
4.03337e-06
4.03327e-06
4.02762e-06
4.01742e-06
4.00318e-06
3.98542e-06
3.96471e-06
3.94157e-06
3.91649e-06
3.88979e-06
3.86178e-06
3.83301e-06
3.80361e-06
3.77367e-06
3.74311e-06
3.71249e-06
3.688e-06
3.62677e-06
1.69559e-06
1.7832e-06
1.88715e-06
1.99662e-06
2.10915e-06
2.22367e-06
2.33835e-06
2.4518e-06
2.56322e-06
2.67169e-06
2.77557e-06
2.87234e-06
2.95907e-06
3.03326e-06
3.09468e-06
3.14592e-06
3.18966e-06
3.22669e-06
3.25707e-06
3.28047e-06
3.29642e-06
3.30613e-06
3.31286e-06
3.31468e-06
3.31188e-06
3.3056e-06
3.29654e-06
3.28502e-06
3.27133e-06
3.25581e-06
3.23875e-06
3.22038e-06
3.2009e-06
3.18045e-06
3.15926e-06
3.13716e-06
3.11489e-06
3.09079e-06
3.07004e-06
3.03732e-06
3.03253e-06
1.41557e-06
1.4988e-06
1.59363e-06
1.69155e-06
1.79103e-06
1.89209e-06
1.99328e-06
2.09264e-06
2.18862e-06
2.28065e-06
2.36947e-06
2.45691e-06
2.54484e-06
2.634e-06
2.72187e-06
2.80145e-06
2.868e-06
2.92244e-06
2.96647e-06
3.00185e-06
3.0284e-06
3.04581e-06
3.05866e-06
3.06562e-06
3.06736e-06
3.06503e-06
3.05943e-06
3.05102e-06
3.04027e-06
3.02767e-06
3.01366e-06
2.99865e-06
2.98292e-06
2.96674e-06
2.95053e-06
2.93455e-06
2.91853e-06
2.90331e-06
2.88606e-06
2.88461e-06
2.81615e-06
1.18185e-06
1.26269e-06
1.34844e-06
1.43197e-06
1.51378e-06
1.59682e-06
1.68247e-06
1.77042e-06
1.85868e-06
1.94339e-06
2.0194e-06
2.08179e-06
2.12785e-06
2.15811e-06
2.17836e-06
2.20047e-06
2.22963e-06
2.26098e-06
2.2909e-06
2.31719e-06
2.33937e-06
2.35825e-06
2.37473e-06
2.38756e-06
2.39682e-06
2.40322e-06
2.40719e-06
2.40894e-06
2.40864e-06
2.4065e-06
2.40269e-06
2.39733e-06
2.39057e-06
2.38243e-06
2.37305e-06
2.36214e-06
2.35072e-06
2.33618e-06
2.32668e-06
2.29235e-06
2.32991e-06
9.85035e-07
1.07267e-06
1.15965e-06
1.23674e-06
1.30381e-06
1.36506e-06
1.42441e-06
1.48545e-06
1.55186e-06
1.62715e-06
1.7141e-06
1.81385e-06
1.92467e-06
2.04226e-06
2.15702e-06
2.24951e-06
2.31373e-06
2.36202e-06
2.39967e-06
2.42921e-06
2.45022e-06
2.46328e-06
2.47178e-06
2.4753e-06
2.47471e-06
2.47102e-06
2.46494e-06
2.457e-06
2.44773e-06
2.43764e-06
2.4272e-06
2.41686e-06
2.40688e-06
2.3976e-06
2.38941e-06
2.38284e-06
2.37704e-06
2.37461e-06
2.36702e-06
2.39259e-06
2.29712e-06
8.42321e-07
9.28238e-07
1.01266e-06
1.09034e-06
1.15936e-06
1.21952e-06
1.26971e-06
1.30889e-06
1.3372e-06
1.35609e-06
1.36793e-06
1.37545e-06
1.38148e-06
1.38656e-06
1.39325e-06
1.41785e-06
1.46111e-06
1.50906e-06
1.55711e-06
1.60237e-06
1.64419e-06
1.68261e-06
1.7181e-06
1.75028e-06
1.7789e-06
1.8042e-06
1.82637e-06
1.84549e-06
1.86156e-06
1.87459e-06
1.88459e-06
1.89151e-06
1.89537e-06
1.896e-06
1.89346e-06
1.88732e-06
1.87872e-06
1.86394e-06
1.85449e-06
1.80437e-06
1.8711e-06
9.1286e-07
1.02517e-06
1.08509e-06
1.09618e-06
1.08082e-06
1.06993e-06
1.09054e-06
1.1549e-06
1.25772e-06
1.38343e-06
1.5153e-06
1.64033e-06
1.75018e-06
1.8423e-06
1.91432e-06
1.94971e-06
1.95212e-06
1.93945e-06
1.92006e-06
1.89723e-06
1.86968e-06
1.84467e-06
1.81742e-06
1.78952e-06
1.76185e-06
1.7346e-06
1.70789e-06
1.68181e-06
1.65646e-06
1.63184e-06
1.60786e-06
1.58447e-06
1.56139e-06
1.5384e-06
1.51551e-06
1.49299e-06
1.46913e-06
1.44683e-06
1.41574e-06
1.41827e-06
1.29202e-06
8.1626
9.39509
8.51502
6.91481
5.05264
3.32424
1.92329
0.911037
0.293543
0.0643416
0.0202395
9.29455e-05
6.6119e-06
8.59715e-05
0.000343481
0.00027539
0.000222427
0.000197235
0.000173348
0.000150847
0.000130975
0.000113496
9.80519e-05
8.4477e-05
7.25896e-05
6.21851e-05
5.31178e-05
4.5199e-05
3.832e-05
3.23494e-05
2.72037e-05
2.27722e-05
1.89869e-05
1.57599e-05
1.30228e-05
1.07103e-05
8.76095e-06
7.12316e-06
5.75277e-06
4.60833e-06
3.65825e-06
2.87383e-06
2.22897e-06
1.70398e-06
1.28287e-06
9.49345e-07
6.9685e-07
5.19895e-07
4.1269e-07
3.67798e-07
3.68569e-07
3.86005e-07
4.08705e-07
4.2776e-07
4.41146e-07
4.50608e-07
4.53465e-07
4.53509e-07
4.49902e-07
4.44754e-07
4.37872e-07
4.30634e-07
4.23019e-07
4.15409e-07
4.08547e-07
4.01433e-07
3.96639e-07
3.88292e-07
3.89673e-07
3.72616e-07
3.9459e-07
3.53186e-07
4.38211e-07
3.83131e-07
7.82872
12.641
12.2747
10.2893
7.91134
5.6215
3.65713
2.10926
0.996838
0.318837
0.066687
0.016939
0.00377066
6.00898e-06
4.08461e-05
0.000288789
0.000251083
0.000197
0.000172706
0.000152008
0.000131922
0.000114176
9.86546e-05
8.49969e-05
7.3026e-05
6.2551e-05
5.3428e-05
4.54625e-05
3.85411e-05
3.2534e-05
2.73571e-05
2.29011e-05
1.9094e-05
1.58512e-05
1.31008e-05
1.07781e-05
8.82106e-06
7.17693e-06
5.80175e-06
4.65306e-06
3.69881e-06
2.91199e-06
2.26416e-06
1.73676e-06
1.3136e-06
9.77112e-07
7.2246e-07
5.41443e-07
4.28752e-07
3.77044e-07
3.72192e-07
3.85813e-07
4.06487e-07
4.24551e-07
4.37584e-07
4.47041e-07
4.50171e-07
4.50541e-07
4.47279e-07
4.42528e-07
4.36026e-07
4.29087e-07
4.21796e-07
4.14447e-07
4.07809e-07
4.00857e-07
3.96299e-07
3.87739e-07
3.89746e-07
3.71551e-07
3.95613e-07
3.49997e-07
4.4021e-07
3.81469e-07
5.39174
12.2873
14.3219
13.1503
10.8223
8.26121
5.87179
3.83434
2.21964
1.05102
0.338459
0.0688215
0.0155995
0.00385813
2.61313e-06
5.52713e-06
0.000234559
0.000228843
0.000176057
0.000150793
0.000132867
0.000115226
9.93435e-05
8.55729e-05
7.35454e-05
6.29966e-05
5.37914e-05
4.57737e-05
3.88045e-05
3.27573e-05
2.75388e-05
2.30538e-05
1.92191e-05
1.59569e-05
1.31907e-05
1.08553e-05
8.88899e-06
7.23741e-06
5.85589e-06
4.70286e-06
3.74372e-06
2.95339e-06
2.30243e-06
1.77228e-06
1.34613e-06
1.00703e-06
7.49928e-07
5.63339e-07
4.45054e-07
3.87494e-07
3.75841e-07
3.8584e-07
4.04224e-07
4.2142e-07
4.3435e-07
4.43169e-07
4.4698e-07
4.47543e-07
4.44799e-07
4.40379e-07
4.34304e-07
4.27694e-07
4.20742e-07
4.13619e-07
4.07275e-07
4.00324e-07
3.96233e-07
3.87392e-07
3.89949e-07
3.70681e-07
3.9664e-07
3.47204e-07
4.41548e-07
3.80016e-07
3.76993
10.549
14.5239
14.9163
13.328
10.9499
8.41338
6.03776
3.98331
2.32963
1.11779
0.370129
0.0748834
0.0158901
0.004357
3.13241e-07
1.72055e-05
0.000167082
0.000209061
0.000158845
0.000131396
0.000115592
0.000100573
8.64113e-05
7.41285e-05
6.35234e-05
5.42562e-05
4.61623e-05
3.91234e-05
3.30234e-05
2.7757e-05
2.32337e-05
1.93653e-05
1.60771e-05
1.32909e-05
1.09399e-05
8.96193e-06
7.30136e-06
5.91245e-06
4.75372e-06
3.78971e-06
2.99519e-06
2.34075e-06
1.80773e-06
1.37855e-06
1.03707e-06
7.77189e-07
5.86247e-07
4.62975e-07
3.99899e-07
3.81913e-07
3.88066e-07
4.03927e-07
4.19961e-07
4.32505e-07
4.40739e-07
4.44915e-07
4.45565e-07
4.43211e-07
4.39004e-07
4.33277e-07
4.26862e-07
4.20173e-07
4.13216e-07
4.07062e-07
4.0011e-07
3.96293e-07
3.87188e-07
3.90219e-07
3.69853e-07
3.97594e-07
3.4438e-07
4.42817e-07
3.78581e-07
2.90486
8.63438
13.4135
15.3506
14.9718
13.27
10.9761
8.53553
6.21167
4.16057
2.47729
1.22012
0.426095
0.0897343
0.0177551
0.00532273
0
1.19687e-05
0.000112139
0.000183591
0.000147989
0.000115447
9.97757e-05
8.74872e-05
7.52297e-05
6.41671e-05
5.47151e-05
4.65788e-05
3.94886e-05
3.33236e-05
2.79986e-05
2.34299e-05
1.95248e-05
1.62065e-05
1.33971e-05
1.10282e-05
9.03708e-06
7.36665e-06
5.97001e-06
4.80483e-06
3.83581e-06
3.03692e-06
2.37883e-06
1.84281e-06
1.41079e-06
1.06691e-06
8.04134e-07
6.09915e-07
4.82205e-07
4.13763e-07
3.90072e-07
3.92204e-07
4.05367e-07
4.19953e-07
4.3179e-07
4.39565e-07
4.43786e-07
4.44433e-07
4.42317e-07
4.3823e-07
4.32764e-07
4.26439e-07
4.19927e-07
4.13089e-07
4.07022e-07
4.00088e-07
3.96362e-07
3.86997e-07
3.90441e-07
3.68975e-07
3.98378e-07
3.41427e-07
4.43977e-07
3.77109e-07
2.48712
6.96975
11.6474
14.612
15.5057
14.8218
13.1664
11.0128
8.6944
6.43853
4.40072
2.68902
1.37825
0.520514
0.120528
0.0217656
0.00737689
4.45448e-05
7.31277e-06
3.8336e-05
0.000140588
0.000139647
0.000104707
8.53031e-05
7.48333e-05
6.51585e-05
5.55697e-05
4.70706e-05
3.98401e-05
3.36371e-05
2.82693e-05
2.36471e-05
1.96958e-05
1.63428e-05
1.35081e-05
1.112e-05
9.1143e-06
7.43296e-06
6.02805e-06
4.85631e-06
3.88203e-06
3.07864e-06
2.4168e-06
1.87766e-06
1.44287e-06
1.09652e-06
8.30964e-07
6.3373e-07
5.02002e-07
4.28369e-07
3.9944e-07
3.97466e-07
4.0783e-07
4.20776e-07
4.31695e-07
4.39029e-07
4.43102e-07
4.43692e-07
4.4169e-07
4.37683e-07
4.32367e-07
4.26133e-07
4.19724e-07
4.12954e-07
4.0694e-07
3.99982e-07
3.96315e-07
3.86675e-07
3.90483e-07
3.67954e-07
3.98879e-07
3.38358e-07
4.44804e-07
3.75612e-07
2.35227
5.62691
9.72133
13.0806
14.9597
15.3607
14.6099
13.0794
11.0948
8.91565
6.74161
4.7259
2.98664
1.61312
0.67065
0.180366
0.0332254
0.000885084
0.00102863
1.922e-06
9.70444e-06
7.18671e-05
0.000126705
0.000103258
7.66084e-05
6.33611e-05
5.53993e-05
4.78295e-05
4.04775e-05
3.40088e-05
2.85308e-05
2.38752e-05
1.98907e-05
1.64967e-05
1.36269e-05
1.12149e-05
9.19344e-06
7.50103e-06
6.08734e-06
4.90858e-06
3.92866e-06
3.12055e-06
2.45487e-06
1.91259e-06
1.47499e-06
1.12619e-06
8.58018e-07
6.57869e-07
5.22389e-07
4.43898e-07
4.09951e-07
4.03839e-07
4.11256e-07
4.22388e-07
4.32213e-07
4.38985e-07
4.42763e-07
4.43221e-07
4.41221e-07
4.37245e-07
4.31985e-07
4.25824e-07
4.19465e-07
4.1271e-07
4.06732e-07
3.99696e-07
3.96088e-07
3.86164e-07
3.90279e-07
3.6675e-07
3.99038e-07
3.35192e-07
4.45217e-07
3.7407e-07
2.36858
4.57116
7.90733
11.1597
13.5783
14.8677
15.0696
14.3734
13.0143
11.2224
9.20228
7.12854
5.14918
3.38833
1.94607
0.898723
0.291771
0.0585355
0.00586691
0.00334549
2.06174e-06
3.97352e-06
6.00556e-06
7.20111e-05
9.64342e-05
7.50637e-05
5.62845e-05
4.66624e-05
4.04421e-05
3.45987e-05
2.90224e-05
2.41519e-05
2.00685e-05
1.66475e-05
1.37597e-05
1.13233e-05
9.27883e-06
7.57058e-06
6.14707e-06
4.9617e-06
3.97641e-06
3.16328e-06
2.49344e-06
1.94788e-06
1.50748e-06
1.15638e-06
8.85686e-07
6.82845e-07
5.4377e-07
4.60798e-07
4.21916e-07
4.11618e-07
4.15864e-07
4.24977e-07
4.33511e-07
4.39531e-07
4.42867e-07
4.4307e-07
4.40971e-07
4.3694e-07
4.31671e-07
4.25517e-07
4.19156e-07
4.12371e-07
4.06387e-07
3.99249e-07
3.95667e-07
3.85463e-07
3.89817e-07
3.65363e-07
3.9883e-07
3.31944e-07
4.45227e-07
3.72425e-07
2.41348
3.74575
6.29971
9.15065
11.6859
13.5214
14.5125
14.6712
14.1003
12.9471
11.3736
9.53861
7.59215
5.67294
3.90588
2.39702
1.23528
0.483324
0.122568
0.0195682
6.50261e-05
0.000901102
2.68042e-07
4.2553e-06
1.56059e-05
6.17576e-05
7.04505e-05
5.42945e-05
4.09354e-05
3.3719e-05
2.89687e-05
2.46129e-05
2.04806e-05
1.68717e-05
1.38784e-05
1.14143e-05
9.36478e-06
7.64827e-06
6.2125e-06
5.01649e-06
4.0243e-06
3.20642e-06
2.53297e-06
1.98426e-06
1.5409e-06
1.18745e-06
9.14274e-07
7.08987e-07
5.66517e-07
4.79287e-07
4.35539e-07
4.20954e-07
4.2181e-07
4.28646e-07
4.35665e-07
4.40725e-07
4.43458e-07
4.43272e-07
4.40962e-07
4.3678e-07
4.31435e-07
4.2521e-07
4.18797e-07
4.11941e-07
4.05905e-07
3.9865e-07
3.95044e-07
3.84572e-07
3.8909e-07
3.6381e-07
3.9824e-07
3.28634e-07
4.4484e-07
3.70619e-07
2.34007
3.04801
4.8794
7.20758
9.5653
11.5959
13.0902
13.947
14.1518
13.7515
12.8335
11.5065
9.88969
8.1072
6.28386
4.5393