/*--------------------------------*- C++ -*----------------------------------*\
| =========                 |                                                 |
| \\      /  F ield         | OpenFOAM: The Open Source CFD Toolbox           |
|  \\    /   O peration     | Version:  2312                                  |
|   \\  /    A nd           | Website:  www.openfoam.com                      |
|    \\/     M anipulation  |                                                 |
\*---------------------------------------------------------------------------*/
FoamFile
{
    version     2.0;
    format      ascii;
    arch        "LSB;label=32;scalar=64";
    class       volVectorField;
    location    "950";
    object      momentError;
}
// * * * * * * * * * * * * * * * * * * * * * * * * * * * * * * * * * * * * * //

dimensions      [0 1 -2 0 0 0 0];

internalField   nonuniform List<vector> 
11040
(
(-0.00262348 -0.0507876 -6.45665e-16)
(0.00403987 -0.366989 -3.06118e-16)
(-0.0545015 -0.16811 4.72191e-15)
(-0.00402377 0.0184355 6.66373e-16)
(0.00142271 -0.00579771 3.78238e-15)
(0.00324381 0.002046 -2.49161e-15)
(0.00253443 0.00105291 -5.94147e-15)
(0.00265933 0.00116152 -1.11401e-15)
(0.00246236 0.00111626 -3.97821e-16)
(0.00181343 0.000987024 2.12865e-15)
(0.00119475 0.000774518 1.03326e-15)
(0.000683562 0.000720349 -5.72598e-16)
(-1.46891e-05 0.000696445 -9.67647e-16)
(-0.000811019 0.000549476 6.86726e-16)
(-0.00157222 0.000461443 -4.02006e-16)
(-0.00231593 0.000371918 -9.8804e-16)
(-0.00270408 0.000343311 7.53434e-16)
(-0.00349131 0.000342114 6.98268e-16)
(-0.00424537 0.000341806 -2.55645e-16)
(-0.00487824 0.000393473 -5.47877e-17)
(-0.00541621 0.000458457 5.80604e-16)
(-0.00613907 0.000540403 -3.13124e-16)
(-0.00663429 0.000575382 2.61154e-16)
(-0.00692403 0.000629653 1.32452e-16)
(-0.00683173 0.000651883 -1.345e-15)
(-0.00659089 0.000695968 -1.01423e-15)
(-0.00589229 0.000361959 -4.8408e-16)
(-0.00548604 0.0003753 -3.45955e-16)
(-0.00295611 0.000954893 -1.13428e-15)
(0.000102502 0.00448843 4.92009e-16)
(0.00698003 -8.11385e-05 1.12866e-15)
(0.00681811 0.00396301 2.4061e-15)
(0.0497072 0.073946 2.96348e-15)
(0.17859 0.313826 -2.56399e-16)
(0.239942 0.32279 1.75368e-15)
(0.028556 -0.172508 6.47007e-16)
(-0.0878357 -0.335696 1.22562e-15)
(0.00297739 -0.0316202 -1.32716e-16)
(0.0060356 -0.00168723 -1.10657e-15)
(0.0106349 0.000160613 -1.36861e-15)
(0.0749113 -0.0143421 -1.31227e-15)
(-0.0521238 0.203069 7.98139e-16)
(-0.151209 -0.0401368 2.89032e-15)
(-0.185086 -0.265899 6.21067e-15)
(-0.0729067 -0.12538 -1.13712e-15)
(-0.0129747 0.00655334 -4.19013e-16)
(0.00107023 0.000328924 -4.64514e-17)
(0.000993566 0.000232073 1.76503e-15)
(-0.000270087 -0.00113738 9.103e-16)
(0.000409564 -0.000590234 -1.6377e-16)
(-9.2736e-05 -0.000330075 -7.90632e-16)
(-0.000773825 -0.00041049 1.72254e-15)
(-0.00127266 -0.000537893 1.21198e-15)
(-0.00210529 -0.000283073 1.32576e-15)
(-0.00315941 -0.000301464 -3.71586e-17)
(-0.00405577 -0.000255263 -2.31205e-16)
(-0.00501181 -0.000189607 4.25155e-16)
(-0.00623952 -0.000136854 3.8528e-16)
(-0.00703104 -1.52003e-05 3.74055e-16)
(-0.00780637 8.41295e-05 -1.89269e-17)
(-0.00846499 0.000251056 -8.66158e-17)
(-0.00903828 0.00042637 -2.27921e-16)
(-0.00984172 0.000570928 3.64022e-16)
(-0.0103485 0.000656613 2.334e-16)
(-0.0105876 0.000728813 3.20487e-16)
(-0.0105102 0.000772833 -3.67041e-16)
(-0.0100814 0.000745786 -6.65016e-16)
(-0.0094123 0.000623779 7.03874e-16)
(-0.00826573 0.0003244 5.32414e-16)
(-0.00731334 0.000259775 -6.81625e-16)
(-0.00559192 0.000450875 -9.86006e-16)
(-0.00984108 0.000310881 -9.52342e-16)
(-0.0093749 -0.00378153 -1.87104e-15)
(-0.018757 -0.00466652 -9.2201e-17)
(-0.0410598 0.000945113 1.10991e-15)
(-0.104673 -0.0223345 -7.5677e-16)
(-0.0897053 -0.0642291 1.87691e-16)
(0.00786365 -0.0134248 -1.13145e-16)
(0.0194176 -0.00500804 8.56775e-16)
(0.025164 -0.00656211 -6.38675e-16)
(0.0341948 -0.00929012 -4.72964e-16)
(0.092645 -0.022436 1.15629e-16)
(-0.0178242 0.0160838 1.49366e-16)
(-0.0672119 0.171559 -1.32747e-15)
(-0.139381 0.0441529 -7.61227e-15)
(-0.196436 -0.272867 2.8054e-15)
(-0.120161 -0.163845 1.04663e-15)
(-0.0227099 -0.00964318 4.59509e-16)
(-0.00102576 0.00322308 1.6463e-15)
(-0.00244619 6.43893e-05 3.81827e-16)
(-0.00317445 -0.00156327 -4.53709e-16)
(-0.00306374 -0.00102734 -9.13741e-17)
(-0.00326626 -0.000433615 -1.35971e-15)
(-0.00345929 -0.000672091 5.61154e-16)
(-0.00417015 -0.000205375 -3.41989e-17)
(-0.00526615 -0.000182673 2.9874e-16)
(-0.00623375 -0.00014017 7.52578e-16)
(-0.00729671 -5.2424e-05 -1.80184e-17)
(-0.00826516 -2.87461e-05 -2.8499e-16)
(-0.00914009 6.82342e-05 -5.97855e-17)
(-0.00996829 0.0001427 8.1578e-18)
(-0.010675 0.000303958 1.46303e-16)
(-0.011275 0.000470108 2.67201e-16)
(-0.0122029 0.000623304 -9.48966e-17)
(-0.0128457 0.00070364 1.25239e-16)
(-0.0132645 0.000774886 -2.93468e-16)
(-0.013378 0.000808857 1.87131e-16)
(-0.0131725 0.000775605 5.6089e-16)
(-0.0126268 0.000693884 -2.87094e-16)
(-0.0117464 0.00049029 -3.59512e-16)
(-0.0105314 0.000242636 1.84299e-16)
(-0.00900732 0.000125603 7.08798e-16)
(-0.00696342 0.000264474 -3.18135e-16)
(-0.0042348 -0.000927512 -2.52042e-16)
(5.70068e-05 -0.00470204 -7.25614e-19)
(0.00360345 -0.0114612 1.36966e-16)
(0.00349881 -0.021135 -5.80677e-16)
(0.00377443 -0.0192976 -1.47934e-15)
(0.0127431 -9.22081e-05 6.28969e-17)
(0.0209752 -0.00619334 5.23146e-16)
(0.0272976 -0.0103073 8.09245e-17)
(0.0401145 -0.0140757 8.21075e-16)
(0.0962859 -0.0235383 1.33386e-16)
(-0.034113 0.0257304 -2.68606e-16)
(-0.0412474 0.0702399 2.38574e-17)
(-0.0258942 0.167681 1.73673e-15)
(-0.0932059 0.0104311 -7.91681e-16)
(-0.196621 -0.228585 -1.56869e-15)
(-0.15037 -0.173314 2.55165e-15)
(-0.0433906 -0.0311454 9.43879e-16)
(-0.00354314 0.00267976 3.91718e-16)
(-0.00594553 -0.00106094 -2.66314e-16)
(-0.00475178 -0.000830159 5.06065e-16)
(-0.00577767 -0.00105735 7.84493e-16)
(-0.0054552 -0.00105911 -8.94978e-16)
(-0.00554704 -0.00015936 7.67898e-16)
(-0.00648367 3.23277e-05 4.18847e-16)
(-0.00737887 7.08118e-05 1.12672e-16)
(-0.008382 0.000223209 -4.02809e-16)
(-0.00935491 0.0002184 -3.77845e-16)
(-0.0102448 0.000317104 -2.112e-16)
(-0.0110763 0.000356324 4.01603e-17)
(-0.011809 0.000495124 -5.32475e-17)
(-0.0124611 0.000616049 -3.56032e-17)
(-0.0134818 0.00073632 -8.43337e-17)
(-0.0142716 0.000778691 -1.80641e-16)
(-0.0148974 0.000813775 -4.96605e-18)
(-0.0152718 0.000814403 -7.72733e-16)
(-0.0153568 0.000742838 -3.22345e-16)
(-0.0151166 0.000648784 3.97845e-16)
(-0.0145413 0.000473458 2.66903e-16)
(-0.0136537 0.000251248 6.30882e-16)
(-0.0124517 0.000144148 -3.84953e-16)
(-0.0107259 0.00052783 5.01595e-16)
(-0.00796786 0.000776777 -5.50561e-16)
(-0.00426891 -0.000888256 -4.53246e-16)
(-0.00210201 -0.00557247 4.39438e-16)
(-0.00237156 -0.0102758 -1.22038e-16)
(-0.000624053 -0.00903205 -8.51717e-17)
(0.00657158 -0.00514039 -5.46851e-16)
(0.0156011 -0.00865063 4.57034e-16)
(0.0225061 -0.0142918 -2.19034e-16)
(0.0388363 -0.0182838 -9.20867e-17)
(0.0831251 -0.0273851 7.04079e-16)
(-0.0281066 0.0333719 2.17336e-16)
(-0.0365258 0.028837 -1.3905e-16)
(-0.0272149 0.0853952 -1.34569e-16)
(-0.0144538 0.155779 8.58673e-16)
(-0.0753836 0.0335815 1.94184e-16)
(-0.17486 -0.16472 -4.43107e-16)
(-0.170866 -0.175582 -5.92192e-16)
(-0.0749635 -0.0663878 -1.32427e-15)
(-0.0107287 0.0037708 2.69968e-16)
(-0.00642965 0.000711129 -9.43216e-17)
(-0.00646311 -0.000420612 4.33928e-16)
(-0.00717497 -0.001557 1.9652e-16)
(-0.00686206 -0.000406168 -3.74557e-16)
(-0.00729667 0.000251697 -6.13951e-16)
(-0.0078437 0.000309224 2.01507e-16)
(-0.00864436 0.000564747 4.78435e-18)
(-0.00952231 0.000514735 -1.65324e-16)
(-0.0103684 0.000600535 -2.39715e-16)
(-0.0111879 0.000590235 -4.54388e-17)
(-0.0119524 0.000693707 4.81448e-17)
(-0.0126713 0.000763668 1.33734e-16)
(-0.0137704 0.000842668 -2.61228e-16)
(-0.01468 0.000837085 -5.55317e-17)
(-0.0154587 0.000821005 4.20568e-16)
(-0.0160239 0.000768596 2.46231e-16)
(-0.0163257 0.000643655 -2.532e-16)
(-0.0163178 0.000496566 2.48615e-16)
(-0.0159688 0.000285555 1.91348e-16)
(-0.0152911 5.39813e-05 -3.6714e-16)
(-0.0142654 -7.39553e-05 2.22299e-16)
(-0.0128007 0.000196175 -3.33373e-17)
(-0.0105879 0.000410736 7.51692e-16)
(-0.00786791 -0.00100191 1.75636e-16)
(-0.00659845 -0.00493984 -6.32746e-17)
(-0.00697987 -0.00832628 1.38936e-16)
(-0.00515138 -0.00775533 2.97176e-16)
(0.000904419 -0.00724221 -1.24684e-16)
(0.00876279 -0.010795 2.08126e-16)
(0.0161451 -0.0171764 8.18596e-17)
(0.0300547 -0.0224744 -2.2874e-16)
(0.0608075 -0.0302868 -2.10074e-16)
(-0.0272484 0.0291087 -3.81262e-17)
(-0.0250363 0.0293736 2.57177e-17)
(-0.0267903 0.0319026 6.38825e-17)
(-0.020346 0.0901426 2.45353e-16)
(-0.00673958 0.141787 -9.07335e-16)
(-0.0500702 0.0619609 1.15018e-16)
(-0.140384 -0.0974379 -5.51328e-16)
(-0.170851 -0.150259 -8.78888e-16)
(-0.110951 -0.100511 1.60962e-16)
(-0.0286513 -0.0131705 -3.07971e-16)
(-0.0051822 0.00454243 2.15624e-17)
(-0.00788198 -0.000784501 6.2174e-18)
(-0.00739406 -0.000133063 -2.23797e-17)
(-0.00813328 3.97959e-05 -3.27395e-16)
(-0.0083149 0.000332115 1.38591e-17)
(-0.00863494 0.000903128 -1.82929e-16)
(-0.0092838 0.000825057 -1.08263e-16)
(-0.00997797 0.000924257 -8.54011e-17)
(-0.0107226 0.000863159 -3.93176e-17)
(-0.0114755 0.000926192 5.64465e-17)
(-0.012239 0.0009394 5.10538e-17)
(-0.0133847 0.000973836 3.16409e-17)
(-0.0143777 0.000911282 -3.69311e-18)
(-0.0152657 0.000832506 -1.7589e-16)
(-0.015972 0.000708927 1.26305e-16)
(-0.0164343 0.00051335 4.84094e-16)
(-0.0165982 0.000289095 -4.05909e-16)
(-0.0164202 1.60362e-05 -4.62855e-16)
(-0.0158906 -0.000254399 -1.66675e-16)
(-0.0149716 -0.000428664 1.81715e-16)
(-0.0136481 -0.000347655 3.54994e-16)
(-0.0119495 -0.000432103 -1.14892e-16)
(-0.0100481 -0.00184587 -2.42318e-16)
(-0.00930102 -0.00506218 -3.6774e-16)
(-0.00966999 -0.00777183 -1.46617e-16)
(-0.00840776 -0.00805571 5.82431e-16)
(-0.00410036 -0.00897735 2.88729e-16)
(0.00160827 -0.0128156 -4.50836e-17)
(0.00741428 -0.0193329 4.33214e-16)
(0.0171662 -0.0250138 -2.85854e-16)
(0.0345218 -0.030589 -1.91927e-16)
(-0.0224852 0.0252963 6.80288e-17)
(-0.0209669 0.0274398 -3.52884e-17)
(-0.0171126 0.0248702 -9.41122e-17)
(-0.0209001 0.0350449 -4.03422e-16)
(-0.0129498 0.0792516 -3.44709e-16)
(0.000477968 0.123961 3.03474e-16)
(-0.0267173 0.0904071 3.78713e-16)
(-0.101998 -0.0475287 -1.13309e-16)
(-0.169694 -0.166671 8.23382e-16)
(-0.127909 -0.100444 -4.57804e-16)
(-0.0643249 -0.0505329 2.42969e-16)
(-0.0113354 0.00136954 -6.45234e-17)
(-0.00879983 0.000411203 5.95511e-16)
(-0.0083371 0.000286859 -6.51413e-16)
(-0.00847388 0.000517027 1.33483e-16)
(-0.00882642 0.000854006 -1.63924e-16)
(-0.0091348 0.000971064 -8.48765e-18)
(-0.00946002 0.00123971 8.47286e-17)
(-0.0100559 0.00114436 -2.00597e-18)
(-0.0107255 0.00118665 -1.89379e-16)
(-0.0114832 0.00115143 1.86301e-16)
(-0.0126388 0.00115018 -1.4643e-16)
(-0.01368 0.00102734 -1.24526e-16)
(-0.014638 0.000879705 2.01053e-16)
(-0.0154444 0.000671121 -1.35955e-16)
(-0.0160228 0.000387083 -1.47792e-16)
(-0.0163126 6.5112e-05 -1.09264e-16)
(-0.0162621 -0.000294614 -8.56421e-17)
(-0.0158371 -0.000636829 -5.30855e-18)
(-0.0149963 -0.00089336 1.7585e-16)
(-0.0137402 -0.00100953 6.55483e-17)
(-0.0124602 -0.0013626 1.63099e-16)
(-0.0111905 -0.00270717 -2.21417e-16)
(-0.0108061 -0.00521062 -3.77582e-16)
(-0.0112511 -0.00742936 -1.94132e-16)
(-0.0108099 -0.00843014 4.27119e-16)
(-0.00849838 -0.0101596 1.45464e-17)
(-0.0054677 -0.0141725 -8.81738e-18)
(-0.00257824 -0.0202657 1.77645e-16)
(0.00199527 -0.025676 2.50311e-16)
(0.00847859 -0.0282347 -1.78457e-16)
(-0.0181655 0.0220778 -2.26997e-17)
(-0.0171939 0.0234284 7.06811e-17)
(-0.0130917 0.0217989 -2.00479e-17)
(-0.0138126 0.0252733 7.80267e-18)
(-0.0154074 0.0338619 1.31103e-16)
(-0.00841017 0.0650107 6.08144e-16)
(0.00771833 0.103541 -4.89506e-16)
(0.00880245 0.0793406 -8.10607e-16)
(-0.0361118 0.0482974 1.54348e-16)
(-0.133287 -0.0762679 4.42947e-16)
(-0.138894 -0.119926 1.46202e-15)
(-0.0925731 -0.0639862 -1.63052e-15)
(-0.0376554 -0.0192892 6.65332e-16)
(-0.00873477 0.00380856 -1.49828e-16)
(-0.00900224 0.00108543 -3.96878e-16)
(-0.00859383 0.00102855 4.59448e-16)
(-0.00883775 0.0010945 3.03339e-17)
(-0.00910193 0.00127062 3.69089e-16)
(-0.00946346 0.00130162 -2.22019e-16)
(-0.00989035 0.00144515 -2.09454e-16)
(-0.0105854 0.00138884 2.6974e-16)
(-0.0117376 0.00137672 -7.80268e-17)
(-0.0128233 0.00119942 -1.82295e-16)
(-0.0138373 0.000982262 5.68507e-17)
(-0.0147235 0.000682863 7.62778e-17)
(-0.0153936 0.000297991 -6.10442e-17)
(-0.0157854 -0.000140099 -1.03822e-16)
(-0.0158404 -0.000611127 2.35432e-16)
(-0.0155093 -0.00106147 2.66139e-16)
(-0.0147533 -0.00143803 -1.49508e-16)
(-0.0135712 -0.00173387 -2.28381e-16)
(-0.0125618 -0.0022608 -8.77592e-17)
(-0.011743 -0.00343946 1.71878e-16)
(-0.0116209 -0.00528996 1.02844e-16)
(-0.0122458 -0.00706026 -3.94195e-17)
(-0.0127121 -0.00840494 -1.21446e-16)
(-0.012455 -0.0104689 2.71152e-16)
(-0.0123207 -0.0143048 -2.72158e-16)
(-0.0130792 -0.0194502 5.34926e-17)
(-0.0139916 -0.0240049 6.2902e-17)
(-0.0165492 -0.0233201 1.84258e-16)
(-0.0142941 0.018818 -4.58448e-17)
(-0.0135899 0.0201967 1.27785e-17)
(-0.0106501 0.0181741 -1.43561e-17)
(-0.00976497 0.0209117 -1.69109e-16)
(-0.010592 0.0248294 6.11532e-17)
(-0.0113244 0.0308805 -6.00271e-18)
(-0.00597768 0.0507391 -1.30317e-16)
(0.00693573 0.0866804 4.98623e-16)
(0.00439764 0.0946501 -2.28574e-16)
(-0.0109082 0.0454425 6.56382e-16)
(-0.0774509 -0.0189228 4.39273e-17)
(-0.103326 -0.0459484 -2.96421e-16)
(-0.113766 -0.0828795 9.1454e-17)
(-0.0640495 -0.0351268 -2.96093e-16)
(-0.0231849 -0.00574136 -4.22934e-16)
(-0.00828224 0.00337076 4.33042e-17)
(-0.00868567 0.00125642 1.84638e-16)
(-0.00845876 0.00131493 3.03548e-16)
(-0.00872118 0.00138434 -3.76696e-17)
(-0.0090606 0.00151231 -2.53641e-16)
(-0.00964048 0.00154246 2.40369e-16)
(-0.0107055 0.001618 1.25284e-17)
(-0.0118379 0.00142399 -4.36673e-17)
(-0.0129424 0.00115368 1.04061e-16)
(-0.0139544 0.000768952 1.40155e-16)
(-0.0147591 0.000270478 1.79769e-16)
(-0.0152802 -0.000300724 3.24966e-17)
(-0.0154596 -0.000911887 1.57247e-17)
(-0.0152472 -0.00150399 -1.14518e-16)
(-0.0146155 -0.00203573 6.18745e-18)
(-0.0135796 -0.00249498 -1.34036e-16)
(-0.0126862 -0.00308974 4.1365e-17)
(-0.0121626 -0.00402728 -6.452e-17)
(-0.0122194 -0.00528169 -8.40038e-17)
(-0.0130622 -0.00654187 5.76762e-17)
(-0.0143817 -0.00776299 8.44234e-17)
(-0.0160293 -0.00960154 3.20409e-17)
(-0.018711 -0.0126691 1.65742e-17)
(-0.0232111 -0.0163083 -8.93331e-17)
(-0.0294123 -0.0187989 1.64327e-16)
(-0.0392709 -0.0158991 2.85228e-17)
(-0.01098 0.0158332 1.52529e-16)
(-0.010455 0.0171261 -4.49094e-17)
(-0.00834658 0.0157452 -1.45066e-16)
(-0.00747917 0.0165781 1.68901e-16)
(-0.00716424 0.0201458 1.02644e-17)
(-0.00747734 0.0234137 1.98966e-17)
(-0.0073834 0.0271489 4.52349e-16)
(-0.00371905 0.0393288 -8.78509e-16)
(0.00704287 0.0628619 -2.03527e-16)
(0.0133406 0.0779864 1.53668e-15)
(0.0141193 0.104948 3.76197e-17)
(-0.0457551 -0.00171881 -1.24355e-16)
(-0.0618597 -0.0368449 -6.77944e-16)
(-0.104288 -0.0591178 4.55735e-16)
(-0.0819447 -0.0516452 -1.07955e-15)
(-0.0474655 -0.0241237 2.34573e-16)
(-0.0168882 -0.00202971 -4.6177e-17)
(-0.00816375 0.00251912 2.66956e-16)
(-0.00812721 0.00132414 -1.12885e-16)
(-0.0080534 0.00149206 -2.93164e-16)
(-0.00849755 0.00164651 1.85868e-16)
(-0.00949997 0.00178853 -6.09525e-17)
(-0.010666 0.00163067 -8.3717e-17)
(-0.011848 0.00137086 1.17485e-16)
(-0.0130349 0.000935682 1.09409e-16)
(-0.0140758 0.000338843 -1.0113e-16)
(-0.0148489 -0.000374473 5.67803e-17)
(-0.0152712 -0.0011506 1.12364e-16)
(-0.0152879 -0.00192665 4.62735e-17)
(-0.0148761 -0.00264643 -6.2723e-17)
(-0.0140805 -0.0032713 5.43029e-17)
(-0.0132323 -0.0038535 7.07711e-17)
(-0.0129028 -0.00452531 6.80593e-17)
(-0.0130564 -0.00520419 6.53413e-17)
(-0.0140559 -0.00581151 1.29752e-16)
(-0.0160084 -0.00640141 -1.45051e-16)
(-0.0191391 -0.00735971 5.0287e-17)
(-0.0241294 -0.00891933 7.69973e-18)
(-0.0318095 -0.0103809 8.25596e-18)
(-0.0423961 -0.00989333 -2.16676e-17)
(-0.0577655 -0.00443811 -2.72598e-17)
(-0.0082325 0.0131406 2.99149e-17)
(-0.00777833 0.0143178 1.06077e-16)
(-0.00627514 0.0133846 8.69682e-17)
(-0.00558989 0.0139327 -4.04844e-17)
(-0.00494628 0.0152381 -4.7646e-17)
(-0.00480068 0.0186566 1.13778e-16)
(-0.00482722 0.0216933 9.22475e-17)
(-0.00457817 0.0245222 -2.75159e-16)
(-0.00195686 0.031002 3.68055e-16)
(0.00588185 0.0460906 -5.50308e-16)
(0.0126598 0.053136 -1.11689e-15)
(0.0253481 0.0669565 -2.6458e-16)
(0.00100352 0.0501215 3.96908e-16)
(-0.0317018 0.00527126 -4.73857e-16)
(-0.0667632 -0.0318797 -4.44886e-16)
(-0.0820694 -0.049328 6.15773e-16)
(-0.0623542 -0.0322959 -1.17425e-16)
(-0.0370403 -0.0163606 6.67581e-16)
(-0.0144228 -0.000702762 5.74588e-17)
(-0.00774216 0.00223818 -3.62717e-16)
(-0.00750924 0.00153436 4.08168e-17)
(-0.00812014 0.00181615 -3.51289e-17)
(-0.00915693 0.00182578 -1.93283e-17)
(-0.0103865 0.00164378 -1.04055e-16)
(-0.0117358 0.00119439 2.35285e-16)
(-0.0130501 0.000532923 -1.43936e-17)
(-0.0141913 -0.00030818 -8.86427e-17)
(-0.0150351 -0.0012591 4.30874e-19)
(-0.0154963 -0.00224417 -3.28087e-17)
(-0.0155272 -0.00318685 2.63708e-17)
(-0.0151484 -0.00399567 -1.43867e-16)
(-0.0144902 -0.00457359 2.54439e-17)
(-0.0142805 -0.00499529 8.76869e-17)
(-0.0145071 -0.00512839 1.28106e-16)
(-0.0155359 -0.00492463 9.15689e-17)
(-0.0177424 -0.00442698 -9.12677e-17)
(-0.0216325 -0.00384364 -1.07677e-16)
(-0.0279075 -0.00316052 -7.33907e-17)
(-0.0374334 -0.00166836 -1.88359e-16)
(-0.0507435 0.00230236 -1.85192e-16)
(-0.0690996 0.0106437 -1.12176e-16)
(-0.00599657 0.0107638 7.9087e-17)
(-0.00558955 0.0118111 8.30889e-17)
(-0.00447 0.0111898 -1.51483e-16)
(-0.00397336 0.0117349 -4.40583e-17)
(-0.0034439 0.0123575 1.25898e-16)
(-0.00297526 0.0141268 -3.58558e-17)
(-0.00265125 0.0169519 -1.02548e-16)
(-0.00226269 0.0194825 3.51986e-17)
(-0.00167958 0.0214342 1.01195e-15)
(2.37502e-05 0.0249371 -3.48343e-16)
(0.00524541 0.0341873 -8.443e-16)
(0.0127631 0.0459741 1.02643e-15)
(0.0210379 0.0559533 4.84452e-16)
(0.0195721 0.0523208 6.59902e-17)
(0.00363883 0.0285673 1.33849e-16)
(-0.0388894 -0.00179184 -3.49177e-16)
(-0.040664 -0.00555878 -1.1618e-16)
(-0.0645317 -0.0370168 2.21992e-16)
(-0.0460515 -0.0178608 5.20177e-16)
(-0.0298968 -0.0112051 -7.24049e-16)
(-0.0133783 -0.000367959 2.41927e-17)
(-0.00827667 0.00210651 -2.077e-17)
(-0.00769828 0.00201678 -6.27975e-17)
(-0.00860823 0.00181882 -3.75523e-17)
(-0.00988818 0.00153553 1.66987e-16)
(-0.0113572 0.00095527 8.46619e-17)
(-0.0128782 5.41557e-05 -1.52161e-16)
(-0.0142463 -0.00106494 -7.44231e-17)
(-0.0153305 -0.00226997 2.83299e-17)
(-0.0160424 -0.00346702 -3.22717e-17)
(-0.0163318 -0.0045027 5.88187e-17)
(-0.0162799 -0.00521537 -3.06398e-17)
(-0.0162302 -0.00547346 5.199e-17)
(-0.0166665 -0.00518702 -1.24423e-17)
(-0.0176874 -0.00412948 -1.12e-16)
(-0.0197536 -0.00226478 -2.34528e-17)
(-0.0235102 0.000344405 2.20491e-17)
(-0.0295748 0.00382955 6.44716e-17)
(-0.0389585 0.00882219 -2.09243e-17)
(-0.0525076 0.0164515 -4.56874e-17)
(-0.0707061 0.0279391 -1.67447e-17)
(-0.00424544 0.00870065 -6.52078e-17)
(-0.00385426 0.00960102 4.22743e-17)
(-0.00299345 0.00920903 -8.14023e-18)
(-0.00259556 0.00970248 -1.43756e-16)
(-0.00217073 0.0102694 1.55058e-17)
(-0.00172443 0.0109802 6.9961e-17)
(-0.00127567 0.0127426 -1.21227e-16)
(-0.000780022 0.0149954 -2.17191e-16)
(-0.000162536 0.0170674 2.01206e-17)
(0.000603494 0.0186137 -2.76425e-16)
(0.0018777 0.020285 3.94993e-16)
(0.00480522 0.0244818 5.27212e-17)
(0.0101819 0.0320557 -2.57114e-16)
(0.0169875 0.0399407 -2.83201e-16)
(0.0184033 0.0363575 3.30379e-16)
(0.0411097 0.0749269 4.47081e-16)
(-0.00677868 0.00830492 -1.50606e-15)
(-0.0244493 -0.00736874 1.22693e-15)
(-0.0260493 0.00564347 1.96914e-16)
(-0.0438443 -0.0236513 -5.23224e-16)
(-0.0338906 -0.00984912 3.4631e-16)
(-0.026032 -0.00814464 -1.08698e-16)
(-0.0152913 -0.00112702 -9.77707e-17)
(-0.0105966 0.00141427 -5.60089e-17)
(-0.00944027 0.00181732 2.66948e-16)
(-0.00959172 0.00140474 1.02688e-17)
(-0.0105877 0.000706748 -3.08953e-17)
(-0.0123176 -0.000304659 -1.83769e-16)
(-0.0140222 -0.00161652 1.11286e-16)
(-0.0155421 -0.00307691 2.07232e-16)
(-0.0167636 -0.0044558 -1.97741e-17)
(-0.0176311 -0.00546682 -7.22317e-17)
(-0.0181579 -0.00584607 -2.6672e-17)
(-0.0188012 -0.0054059 -7.03519e-18)
(-0.0199779 -0.00385723 -1.14366e-16)
(-0.0217721 -0.000833102 4.12994e-17)
(-0.0247449 0.00380498 -1.87537e-18)
(-0.0293007 0.0101541 -5.15471e-17)
(-0.0365364 0.0186682 4.16713e-18)
(-0.0473287 0.0299064 3.91548e-17)
(-0.0619555 0.0445883 4.53855e-17)
(-0.00290441 0.00693681 7.5951e-17)
(-0.00252456 0.00769081 -5.77872e-17)
(-0.00184506 0.00745437 -6.88606e-17)
(-0.00149061 0.00788818 -2.24916e-17)
(-0.00113731 0.00836546 1.64928e-16)
(-0.000768119 0.00883672 -2.01316e-17)
(-0.000319935 0.00957047 6.0665e-17)
(0.000167381 0.0111946 1.74679e-16)
(0.000776084 0.0129255 7.2322e-17)
(0.00151075 0.0145831 -5.32607e-16)
(0.00237047 0.0159358 -2.88299e-16)
(0.00342201 0.0169838 -8.89382e-17)
(0.00519655 0.0187289 -5.27866e-16)
(0.0084201 0.0223339 3.94837e-16)
(0.0137296 0.0281241 1.40109e-15)
(0.0132327 0.0200477 -7.55726e-16)
(0.0235164 0.0211891 -2.05091e-16)
(0.0469223 0.0700675 3.02484e-16)
(-0.00517102 0.00677146 -3.35619e-16)
(-0.00898822 -0.0021717 9.56983e-16)
(-0.0102259 0.0110458 -1.75115e-16)
(-0.026025 -0.0107115 -4.8075e-16)
(-0.0244744 -0.00361666 -7.02674e-16)
(-0.0230882 -0.00524771 3.53498e-16)
(-0.0181074 -0.00248185 3.93085e-16)
(-0.013998 -0.000537338 3.61612e-17)
(-0.0124852 -1.4792e-06 3.25553e-17)
(-0.0126535 -0.000370177 1.66408e-17)
(-0.0134988 -0.00112953 1.38821e-17)
(-0.0145511 -0.0021929 1.01013e-16)
(-0.0155485 -0.00338384 8.01274e-17)
(-0.0168647 -0.00451379 -1.46891e-16)
(-0.018493 -0.00535855 1.86897e-17)
(-0.0197071 -0.00536361 -2.10754e-17)
(-0.0211139 -0.00418051 -6.94433e-17)
(-0.0227951 -0.00111119 5.65522e-18)
(-0.0248998 0.00434091 1.11433e-16)
(-0.0274047 0.0124576 -5.87271e-17)
(-0.0313509 0.0237068 -3.30858e-17)
(-0.0374176 0.0380389 -1.96882e-17)
(-0.0459302 0.0558069 1.279e-17)
(-0.00190497 0.00545864 -2.56467e-17)
(-0.00153757 0.00606818 4.42626e-17)
(-0.000986925 0.0059327 1.75675e-17)
(-0.00065967 0.00629971 8.49181e-17)
(-0.000342311 0.00669193 -7.72729e-17)
(-2.02941e-05 0.00707916 3.5905e-17)
(0.000305632 0.00748196 2.77046e-18)
(0.000779732 0.00837211 -4.66875e-17)
(0.00133346 0.00960425 1.81481e-16)
(0.00199039 0.0108814 1.69463e-16)
(0.00276919 0.0121327 -4.67525e-16)
(0.00363267 0.0131562 8.39911e-16)
(0.00458995 0.0138999 7.46196e-16)
(0.00579408 0.0146751 -7.38944e-16)
(0.00772396 0.0161041 -4.64105e-16)
(0.0113633 0.0197722 -3.54563e-16)
(0.0147925 0.0228637 8.24878e-16)
(0.0121128 0.012007 -8.00784e-16)
(0.021638 0.011937 1.77709e-16)
(0.0438144 0.0532326 3.98229e-16)
(0.00273713 0.00654799 -2.68454e-16)
(0.00831906 0.00705386 -2.76689e-16)
(0.0056134 0.0135569 1.25585e-16)
(-0.00395994 0.00229106 1.84617e-16)
(-0.00814735 0.00450293 -3.05388e-16)
(-0.0100528 0.0037433 6.95545e-17)
(-0.013335 0.000585973 2.87797e-16)
(-0.0141269 -0.00100776 -5.04138e-16)
(-0.0144029 -0.00253909 1.37639e-16)
(-0.0150982 -0.00421663 1.44191e-16)
(-0.0164044 -0.00560084 -4.21576e-17)
(-0.0179515 -0.00635979 -1.35519e-16)
(-0.0193214 -0.00646668 4.23467e-17)
(-0.0202545 -0.00596333 1.7584e-16)
(-0.0207697 -0.00464935 2.6859e-17)
(-0.0212786 -0.00224973 -5.48989e-18)
(-0.0224549 0.00174643 -5.20605e-17)
(-0.0237257 0.00882926 -3.09877e-17)
(-0.0252022 0.0195776 -6.9234e-17)
(-0.0268887 0.0340937 1.8037e-17)
(-0.0290551 0.053153 5.08261e-17)
(-0.00118372 0.00423908 -3.5263e-17)
(-0.000832953 0.0047249 4.32602e-17)
(-0.000377277 0.00464908 -3.5906e-17)
(-7.12901e-05 0.0049453 -1.45991e-16)
(0.000223964 0.00525617 3.27659e-17)
(0.000512077 0.00556281 -5.42414e-17)
(0.000811651 0.00588256 -4.36586e-17)
(0.0011603 0.006289 3.04372e-17)
(0.00164886 0.00709893 -5.01828e-17)
(0.00222415 0.0080135 8.33613e-18)
(0.00288337 0.00892096 -3.11914e-16)
(0.00362131 0.00976628 2.8527e-16)
(0.00444505 0.0105076 -2.11969e-16)
(0.00532872 0.0110386 -6.91449e-16)
(0.00629287 0.0113826 9.38243e-16)
(0.00748772 0.011782 3.68955e-16)
(0.00935384 0.0128195 2.04657e-16)
(0.0123573 0.0153422 -6.90626e-18)
(0.0145612 0.0166263 -1.86728e-16)
(0.0114761 0.00611863 -1.51889e-16)
(0.0170011 0.00819003 -7.14848e-17)
(0.0371015 0.032366 1.93144e-16)
(0.015427 0.00607431 -3.9512e-16)
(0.0259628 0.00889021 -1.40561e-17)
(0.0268192 0.0178574 1.59757e-16)
(0.0205996 0.0115158 -1.54535e-16)
(0.0135652 0.00721098 -4.0226e-16)
(0.013183 0.0116682 5.02142e-16)
(0.00772849 0.0086603 5.15956e-16)
(0.00245073 0.00550555 -4.00717e-16)
(-0.00286669 0.00164277 -1.16159e-16)
(-0.00731751 -0.00231565 -6.46682e-17)
(-0.0109018 -0.00567296 -8.42234e-17)
(-0.0140126 -0.00805713 2.84456e-16)
(-0.0166968 -0.0088558 -1.02986e-16)
(-0.0188057 -0.0075564 -4.71125e-17)
(-0.0201208 -0.00395754 6.85328e-17)
(-0.0204966 0.00183139 -4.26658e-18)
(-0.0201521 0.00989672 7.29051e-17)
(-0.0189404 0.0201245 6.06948e-17)
(-0.0176005 0.0343522 5.83705e-19)
(-0.000668084 0.00322967 3.1108e-18)
(-0.000343401 0.00362026 5.35967e-17)
(3.63056e-05 0.003583 1.99834e-17)
(0.000318835 0.00381579 -2.1272e-17)
(0.000591567 0.00405505 -5.90693e-17)
(0.000857022 0.00429091 -1.38231e-19)
(0.00112615 0.00453675 4.64681e-17)
(0.00140743 0.00479757 4.54724e-17)
(0.00178341 0.00519437 -3.65464e-18)
(0.00228001 0.00584765 -9.77989e-17)
(0.0028413 0.00648756 -2.39159e-16)
(0.00344628 0.00707199 2.15355e-16)
(0.00411735 0.00762109 -2.79337e-16)
(0.00484949 0.00810223 -2.07721e-16)
(0.00562653 0.00845646 3.586e-16)
(0.00644539 0.00865669 2.35636e-16)
(0.00732846 0.00874709 3.36373e-16)
(0.00835417 0.00882246 -5.82264e-16)
(0.00976814 0.00921542 -3.17688e-16)
(0.0118541 0.0104194 1.01066e-15)
(0.0131441 0.00993636 -5.15674e-16)
(0.0120506 0.00200725 -1.12975e-16)
(0.0194572 0.00832712 1.10963e-16)
(0.0209834 0.0126803 -3.38849e-16)
(0.00981158 -0.00367486 5.49882e-16)
(0.0251394 -0.00864207 -3.54525e-16)
(0.0332759 0.00851716 -4.40883e-16)
(0.0287477 0.0103089 2.21368e-16)
(0.0360834 0.0102129 1.62469e-16)
(0.0359637 0.0142046 6.93742e-16)
(0.0362311 0.0158278 -4.00089e-16)
(0.0342584 0.0159706 -3.23911e-16)
(0.0302748 0.0147597 2.10506e-16)
(0.0235051 0.0112554 1.35519e-17)
(0.0169711 0.00812382 -5.21371e-17)
(0.010591 0.00538365 3.56063e-17)
(0.00523595 0.00414002 3.88182e-18)
(0.00083741 0.00469071 4.95607e-17)
(-0.00218169 0.007634 -5.34461e-17)
(-0.00365252 0.0130742 1.52906e-17)
(-0.00432108 0.0212219 -2.05582e-17)
(-0.000349218 0.00259139 -2.28021e-17)
(-3.8087e-05 0.00287566 1.91712e-17)
(0.000288711 0.00285299 5.3244e-18)
(0.00055165 0.00301641 -4.25034e-19)
(0.000803977 0.00318047 7.99741e-17)
(0.00104795 0.00334153 -1.96342e-17)
(0.00129095 0.00351001 -9.45321e-17)
(0.00154206 0.00368905 5.95621e-17)
(0.00181156 0.00388965 2.60893e-16)
(0.00222513 0.00428827 -3.01151e-16)
(0.00271417 0.00475108 -4.47765e-17)
(0.00323216 0.00516758 4.69529e-16)
(0.00378905 0.00554574 -3.35154e-16)
(0.00438726 0.00588002 1.19585e-16)
(0.00502374 0.00615606 -6.23771e-17)
(0.00568704 0.00634257 -7.52521e-16)
(0.00636377 0.00641059 1.31382e-15)
(0.00705392 0.00637091 4.04658e-16)
(0.00775981 0.00626062 -1.12365e-15)
(0.00851378 0.00608448 9.70487e-16)
(0.00940061 0.00609005 -8.1609e-17)
(0.0112772 0.00673646 -7.73116e-16)
(0.0120758 0.00571995 1.29976e-16)
(0.0131485 0.00418565 3.34255e-16)
(0.0154735 0.003336 -5.8187e-16)
(0.0155717 -0.000932625 2.90217e-17)
(0.0155949 -0.00337787 1.06547e-16)
(0.0190712 -0.0054269 5.58174e-17)
(0.0227195 -0.00516467 -4.22474e-16)
(0.0273017 -0.00324609 3.59185e-16)
(0.0323273 -5.31047e-05 5.22927e-16)
(0.0375856 0.00478627 -7.89e-17)
(0.0486851 0.00997708 -1.93129e-16)
(0.0421771 0.0101362 -3.42277e-16)
(0.0494012 0.0174832 7.65984e-17)
(0.048977 0.0195628 2.21501e-17)
(0.0485107 0.022336 5.80209e-17)
(0.0456452 0.0237583 1.86088e-17)
(0.0423394 0.0254349 7.55674e-17)
(0.0401325 0.0283813 4.71193e-17)
(0.0375814 0.0323512 -3.23968e-17)
(-0.000145926 0.00211253 -2.73392e-17)
(0.000146676 0.00231553 -3.92175e-17)
(0.000430322 0.00229682 -3.2799e-18)
(0.000671214 0.00240696 6.47201e-17)
(0.000900405 0.00251518 4.26776e-17)
(0.00112182 0.00262077 -2.66412e-17)
(0.00134079 0.00273252 -2.85975e-18)
(0.0015635 0.00285175 2.68368e-17)
(0.00179388 0.00297944 -1.44242e-16)
(0.0020894 0.00316713 -3.93393e-17)
(0.00251819 0.00351202 4.72585e-16)
(0.00297457 0.00381948 9.37384e-17)
(0.0034536 0.00409078 -6.91901e-16)
(0.00395605 0.0043214 1.7398e-16)
(0.00448054 0.00450669 2.16255e-16)
(0.00502289 0.00463875 -9.49898e-16)
(0.00557435 0.00470273 1.50634e-17)
(0.00612284 0.00467634 4.9582e-16)
(0.00665874 0.00455554 5.76635e-16)
(0.00718494 0.00436693 -3.55063e-16)
(0.00769144 0.00417383 1.50761e-16)
(0.00873128 0.00415085 3.51831e-16)
(0.00965043 0.00412659 -6.49313e-16)
(0.010281 0.00370401 -2.26815e-16)
(0.0106593 0.00303748 7.25375e-17)
(0.0101947 0.000972517 2.21787e-16)
(0.0100188 -0.00121345 -1.15222e-16)
(0.00925852 -0.00386154 2.30262e-16)
(0.00866977 -0.00697008 -1.26671e-16)
(0.00849024 -0.00966679 -3.95055e-17)
(0.00929894 -0.0113049 2.60064e-16)
(0.0125204 -0.00945722 -1.94097e-16)
(0.000652773 -0.0220851 -7.75072e-17)
(0.0250358 -0.00493203 2.91841e-16)
(0.0193236 -0.00351473 -3.20827e-16)
(0.0296063 0.000559687 1.97643e-16)
(0.0333951 0.00681848 1.32594e-16)
(0.039534 0.011995 -2.27647e-16)
(0.0391712 0.0165446 5.05068e-17)
(0.0530983 0.0284238 8.63329e-17)
(0.0537326 0.0308444 1.36538e-17)
(-1.16319e-05 0.0017264 -6.97133e-18)
(0.000257354 0.00187116 -1.82574e-17)
(0.00050512 0.00185238 -8.49213e-18)
(0.000721976 0.00192397 3.38583e-17)
(0.000928049 0.00199231 -8.14972e-20)
(0.00112647 0.00205882 -9.72057e-18)
(0.00132292 0.00213015 -3.50956e-18)
(0.00152097 0.00220764 1.0308e-17)
(0.00172598 0.00229018 4.02328e-17)
(0.00194441 0.00238623 -4.4302e-17)
(0.00229869 0.00259958 6.22458e-17)
(0.00270035 0.00282354 -7.30925e-17)
(0.00312067 0.00301762 5.68852e-17)
(0.00355399 0.00317791 3.16784e-16)
(0.00399858 0.00329979 -4.02599e-16)
(0.00445017 0.0033798 -1.92014e-16)