/*--------------------------------*- C++ -*----------------------------------*\
| =========                 |                                                 |
| \\      /  F ield         | OpenFOAM: The Open Source CFD Toolbox           |
|  \\    /   O peration     | Version:  2312                                  |
|   \\  /    A nd           | Website:  www.openfoam.com                      |
|    \\/     M anipulation  |                                                 |
\*---------------------------------------------------------------------------*/
FoamFile
{
    version     2.0;
    format      ascii;
    arch        "LSB;label=32;scalar=64";
    class       volScalarField;
    location    "950";
    object      nuTilda;
}
// * * * * * * * * * * * * * * * * * * * * * * * * * * * * * * * * * * * * * //

dimensions      [0 2 -1 0 0 0 0];

internalField   nonuniform List<scalar> 
11040
(
7.29213e-05
8.58856e-05
5.28584e-05
8.11222e-05
0.000196812
0.000190446
0.000181626
0.000172481
0.000161295
0.000154448
0.000147499
0.000141514
0.000136173
0.000132026
0.000128487
0.000126589
0.000126357
0.00012775
0.000130401
0.000134159
0.000139122
0.000145152
0.000152039
0.000159631
0.00016804
0.000178165
0.000189949
0.000201659
0.000212744
0.000222621
0.000230661
0.000236236
0.000240171
0.000246875
0.000265652
0.000253046
0.000181374
0.000190115
0.00020766
0.000226582
0.000298447
3.61162e-05
7.21354e-05
8.67073e-05
0.000156529
0.000602336
0.000628703
0.000553084
0.000509487
0.000443843
0.000408644
0.000372594
0.000344524
0.000318232
0.000298488
0.00028003
0.000267273
0.000261035
0.000260349
0.000262591
0.000266547
0.000272364
0.000280096
0.000288189
0.000295503
0.000302948
0.000317903
0.000345035
0.000376684
0.000412452
0.000452445
0.000496887
0.000546125
0.00059934
0.000658312
0.00072525
0.000793066
0.000861811
0.000953166
0.00106186
0.00114954
0.00161225
3.89594e-05
4.546e-05
6.66434e-05
9.3679e-05
0.000415242
0.000965741
0.00118658
0.00114652
0.00100409
0.000929319
0.00084691
0.000786005
0.000726494
0.000683081
0.000641224
0.000607922
0.00058249
0.000563033
0.000551694
0.000547474
0.00055179
0.000565657
0.000589803
0.000625086
0.00067159
0.000729129
0.000797481
0.000876136
0.000964735
0.00106267
0.00116899
0.00128301
0.0014042
0.00153323
0.00167121
0.00181849
0.00198117
0.0021817
0.00242581
0.00266557
0.00348838
4.07545e-05
3.8238e-05
4.7152e-05
4.7893e-05
0.000153137
0.000597383
0.00130534
0.00170778
0.00177761
0.00168704
0.00154347
0.00144357
0.00133898
0.00126217
0.00118699
0.00112456
0.00107855
0.00104202
0.00102017
0.00101132
0.00101726
0.00104098
0.00108499
0.00115048
0.00123686
0.00134302
0.00146801
0.00161082
0.00177052
0.00194604
0.00213584
0.0023385
0.00255292
0.00277937
0.00301875
0.00327378
0.00355664
0.00389871
0.00431823
0.00477433
0.00593655
4.02483e-05
3.94301e-05
4.06197e-05
3.8757e-05
3.76203e-05
0.000187248
0.000710418
0.00156227
0.00225526
0.00246497
0.00247657
0.00236987
0.00220616
0.00208894
0.00197481
0.00187193
0.00179959
0.00173995
0.00170324
0.00168778
0.00169369
0.00172652
0.00179238
0.00189322
0.00202821
0.00219599
0.00239482
0.00262242
0.00287677
0.00315594
0.00345682
0.00377658
0.00411312
0.00446614
0.00483625
0.00522754
0.00565657
0.00616911
0.00679876
0.0075291
0.0089963
4.00488e-05
4.02199e-05
3.96716e-05
4.0961e-05
2.83637e-05
2.41308e-05
0.000183104
0.000732884
0.00171729
0.002733
0.00320712
0.0033765
0.00336429
0.00325504
0.00307799
0.00291566
0.00280865
0.00271699
0.00265728
0.00263183
0.00263521
0.00267491
0.00276395
0.00290618
0.00310039
0.00334535
0.00363842
0.00397527
0.00435156
0.00476419
0.00520757
0.00567631
0.00616651
0.00667684
0.00720691
0.00776147
0.00836171
0.00906615
0.00993405
0.0109837
0.0127707
4.00687e-05
4.0129e-05
3.98987e-05
4.05227e-05
3.97412e-05
1.99047e-05
5.94988e-06
0.000137109
0.000662387
0.00171224
0.00301662
0.00395445
0.00433338
0.00447744
0.00446912
0.00436754
0.00421841
0.0040662
0.00397061
0.00393081
0.00392967
0.003972
0.00408273
0.00427035
0.00453276
0.00486979
0.00527847
0.00575168
0.00628009
0.00685948
0.00748048
0.00813317
0.00881051
0.00950955
0.0102276
0.0109685
0.0117577
0.0126646
0.0137837
0.0151766
0.0173283
4.00868e-05
4.0082e-05
4.01189e-05
3.99645e-05
4.09019e-05
3.99653e-05
9.04238e-06
1.8099e-06
8.43914e-05
0.00051589
0.00152583
0.00302848
0.00449584
0.00531072
0.00567799
0.00582304
0.00584928
0.00579895
0.00572921
0.00567178
0.0056684
0.00572454
0.00586005
0.00609759
0.00643481
0.00687555
0.0074192
0.0080574
0.00876957
0.00955103
0.0103876
0.0112613
0.0121596
0.0130773
0.0140078
0.0149508
0.0159352
0.0170385
0.0183931
0.0201169
0.0226432
4.00834e-05
4.00901e-05
4.00821e-05
4.01183e-05
3.98673e-05
4.19331e-05
3.86832e-05
1.40893e-05
1.86527e-05
2.1757e-05
0.000320373
0.00118542
0.00272169
0.0046102
0.00613434
0.00689773
0.00730042
0.00750516
0.00762851
0.00771109
0.00780923
0.00794968
0.00817443
0.00851242
0.00896449
0.00953067
0.0102189
0.0110341
0.0119597
0.0129771
0.0140676
0.0152007
0.0163519
0.0175139
0.0186752
0.0198243
0.0209931
0.0222693
0.023796
0.0257823
0.0286257
4.00822e-05
4.00852e-05
4.00846e-05
4.0095e-05
4.00572e-05
3.99583e-05
4.22583e-05
3.76722e-05
2.0278e-05
8.55033e-06
6.14249e-05
0.000143045
0.000778922
0.00215101
0.00420582
0.00641472
0.00799092
0.00880625
0.00932296
0.00968844
0.0100256
0.0103789
0.0108105
0.0113651
0.0120626
0.012903
0.0138759
0.0149632
0.016147
0.0174255
0.0187987
0.0202218
0.0216455
0.0230605
0.024457
0.0257967
0.0271098
0.0285003
0.0300965
0.0321928
0.0351889
4.008e-05
4.00817e-05
4.00842e-05
4.00765e-05
4.01087e-05
3.99754e-05
4.02034e-05
4.17382e-05
3.96735e-05
2.66049e-05
7.07936e-06
2.15966e-05
1.7346e-05
0.000375441
0.00142007
0.00332919
0.005888
0.00842631
0.0101686
0.0111792
0.0119532
0.0126357
0.0133591
0.0142066
0.0152324
0.0164547
0.0178695
0.0194585
0.0211869
0.023006
0.0248516
0.0266495
0.0283566
0.0300101
0.0316396
0.033135
0.0345053
0.0359207
0.0374617
0.0393915
0.0422137
4.00774e-05
4.00789e-05
4.00786e-05
4.00796e-05
4.00751e-05
4.00916e-05
3.99886e-05
4.0185e-05
4.12595e-05
4.09462e-05
3.26492e-05
5.28744e-06
4.60627e-06
6.3616e-05
0.000120461
0.000730147
0.00219706
0.00463063
0.00770905
0.0106902
0.0128187
0.0142006
0.01538
0.0165876
0.0179666
0.0195814
0.0214487
0.0235654
0.0258986
0.028393
0.0309793
0.0335763
0.0360927
0.0384366
0.0404917
0.0421351
0.0434185
0.0447549
0.0460838
0.047566
0.0497729
4.0075e-05
4.00757e-05
4.00755e-05
4.00752e-05
4.00748e-05
4.00738e-05
4.00763e-05
4.00181e-05
4.01133e-05
4.08488e-05
4.17101e-05
3.64667e-05
1.62077e-05
5.08187e-06
1.48991e-05
0.000121471
0.000232652
0.00111667
0.0029827
0.00592893
0.00960451
0.0131573
0.0158295
0.0177959
0.019657
0.0216883
0.0239682
0.0265495
0.0294185
0.0325183
0.0357769
0.0391105
0.0424221
0.045616
0.0485899
0.0512306
0.0534412
0.0551449
0.0562363
0.0570062
0.0584536
4.00727e-05
4.00733e-05
4.00733e-05
4.00733e-05
4.00725e-05
4.00715e-05
4.00715e-05
4.00713e-05
4.0037e-05
4.00504e-05
4.04843e-05
4.1808e-05
3.97519e-05
2.76125e-05
3.01704e-06
2.16054e-06
2.72052e-05
0.000182613
0.000357736
0.00144721
0.00365117
0.00692879
0.0108283
0.014869
0.0185327
0.0216258
0.0244866
0.0275235
0.0308632
0.0344705
0.0382893
0.0422493
0.0462465
0.0501815
0.0539525
0.0574604
0.0606155
0.0633584
0.0656197
0.0673715
0.0686563
4.00708e-05
4.00722e-05
4.00724e-05
4.00724e-05
4.00717e-05
4.00711e-05
4.00702e-05
4.00705e-05
4.00694e-05
4.00551e-05
4.00056e-05
4.02605e-05
4.13652e-05
4.12538e-05
3.65945e-05
1.77184e-05
5.68929e-06
7.43509e-07
4.02185e-05
0.000226115
0.000422541
0.00154749
0.00358189
0.00657919
0.0103819
0.0147474
0.0194024
0.0240445
0.0284792
0.0327752
0.0371311
0.0416443
0.0462587
0.0508652
0.0553561
0.0596336
0.0636207
0.0672807
0.0705461
0.0733626
0.0757257
4.00692e-05
4.00716e-05
4.00716e-05
4.00712e-05
4.00704e-05
4.00696e-05
4.0069e-05
4.00684e-05
4.00683e-05
4.00686e-05
4.00626e-05
4.0003e-05
4.01341e-05
4.06321e-05
4.18751e-05
3.97043e-05
3.27272e-05
7.97632e-06
3.67045e-06
3.85305e-07
4.54911e-05
0.000202355
0.000255424
0.00102604
0.00248894
0.00478031
0.00793047
0.0119044
0.0166273
0.0219894
0.0278046
0.0337845
0.0396436
0.0452468
0.0505868
0.0556854
0.0605355
0.0651216
0.0693784
0.0732365
0.07667
4.00678e-05
4.00702e-05
4.007e-05
4.0069e-05
4.0068e-05
4.00673e-05
4.00668e-05
4.00663e-05
4.00661e-05
4.00656e-05
4.00678e-05
4.00611e-05
4.00351e-05
4.00149e-05
4.03428e-05
4.11058e-05
4.18743e-05
3.81545e-05
2.76905e-05
4.32118e-06
2.94608e-06
3.40456e-07
2.40623e-05
9.73551e-05
1.31251e-05
0.000324391
0.00101781
0.00226375
0.00420678
0.00692016
0.0104666
0.0148662
0.0200795
0.0260173
0.0324989
0.0392411
0.0459183
0.0523009
0.0582029
0.0635327
0.0682962
4.00661e-05
4.0068e-05
4.00675e-05
4.00665e-05
4.00658e-05
4.00652e-05
4.00648e-05
4.00646e-05
4.00643e-05
4.00641e-05
4.00638e-05
4.00652e-05
4.00636e-05
4.00477e-05
4.00057e-05
4.01037e-05
4.05318e-05
4.15991e-05
4.16312e-05
3.73602e-05
2.55706e-05
3.97203e-06
2.98731e-06
6.96406e-07
1.10617e-06
2.6867e-05
8.28401e-05
0.000193624
7.19145e-05
0.000360938
0.0010561
0.00223532
0.00399559
0.00645184
0.00966149
0.0136413
0.0183436
0.0237284
0.0296468
0.0359074
0.0423066
4.00639e-05
4.00651e-05
4.00643e-05
4.00632e-05
4.00623e-05
4.00617e-05
4.00614e-05
4.00612e-05
4.00612e-05
4.00612e-05
4.00611e-05
4.00612e-05
4.00615e-05
4.00638e-05
4.0053e-05
4.00322e-05
3.99994e-05
4.02142e-05
4.08138e-05
4.17388e-05
4.13816e-05
3.67222e-05
2.8291e-05
8.57718e-06
3.93264e-06
1.8115e-06
5.07648e-07
0
5.45896e-06
2.68937e-05
7.72452e-05
0.000162506
1.10537e-05
0.000119301
0.000403469
0.00110172
0.00220249
0.00379581
0.00593212
0.00863493
0.011962
4.00615e-05
4.00622e-05
4.00612e-05
4.006e-05
4.00592e-05
4.00588e-05
4.00585e-05
4.00584e-05
4.00584e-05
4.00585e-05
4.00587e-05
4.00588e-05
4.00589e-05
4.00595e-05
4.00603e-05
4.00593e-05
4.00417e-05
4.00107e-05
4.00253e-05
4.03104e-05
4.1002e-05
4.172e-05
4.1602e-05
3.83841e-05
3.19038e-05
2.36208e-05
6.75161e-06
3.5106e-06
1.81814e-06
1.26784e-06
2.69639e-07
0
7.57006e-07
8.03365e-06
2.6665e-05
7.13899e-05
0.000139725
0.000237904
0.000373814
5.13793e-05
0.000383911
4.0059e-05
4.00593e-05
4.00583e-05
4.00573e-05
4.00567e-05
4.00565e-05
4.00564e-05
4.00565e-05
4.00566e-05
4.00568e-05
4.0057e-05
4.00572e-05
4.00574e-05
4.00575e-05
4.00579e-05
4.00587e-05
4.00597e-05
4.00531e-05
4.00281e-05
3.99982e-05
4.0049e-05
4.03695e-05
4.09124e-05
4.17244e-05
4.17785e-05
4.09149e-05
3.77694e-05
3.2422e-05
2.57388e-05
1.8321e-05
3.97663e-06
2.8265e-06
1.74176e-06
1.37072e-06
9.77262e-07
3.44054e-07
0
0
0
2.99337e-06
2.1863e-05
4.00565e-05
4.00566e-05
4.00558e-05
4.00552e-05
4.0055e-05
4.0055e-05
4.00552e-05
4.00555e-05
4.00558e-05
4.0056e-05
4.00563e-05
4.00565e-05
4.00568e-05
4.0057e-05
4.00571e-05
4.00573e-05
4.00579e-05
4.0059e-05
4.00582e-05
4.00476e-05
4.00172e-05
4.00008e-05
4.00381e-05
4.02667e-05
4.06994e-05
4.12172e-05
4.18575e-05
4.19712e-05
4.12444e-05
3.97949e-05
3.68157e-05
3.25328e-05
2.74817e-05
2.20329e-05
1.60286e-05
5.76268e-06
3.02735e-06
1.71366e-06
1.46687e-06
1.22018e-06
9.58453e-07
4.00541e-05
4.00542e-05
4.00539e-05
4.00538e-05
4.0054e-05
4.00544e-05
4.00549e-05
4.00554e-05
4.00559e-05
4.00562e-05
4.00566e-05
4.00569e-05
4.00571e-05
4.00574e-05
4.00575e-05
4.00577e-05
4.00578e-05
4.0058e-05
4.00588e-05
4.00599e-05
4.00572e-05
4.00446e-05
4.00206e-05
3.99953e-05
4.00151e-05
4.01052e-05
4.0339e-05
4.07157e-05
4.11682e-05
4.15874e-05
4.20337e-05
4.2094e-05
4.16679e-05
4.07047e-05
3.92955e-05
3.70871e-05
3.41808e-05
3.06884e-05
2.68757e-05
2.27971e-05
1.83311e-05
4.00518e-05
4.00523e-05
4.00526e-05
4.00531e-05
4.00538e-05
4.00545e-05
4.00553e-05
4.0056e-05
4.00566e-05
4.00571e-05
4.00575e-05
4.00579e-05
4.00582e-05
4.00585e-05
4.00587e-05
4.00588e-05
4.0059e-05
4.0059e-05
4.00591e-05
4.00595e-05
4.00605e-05
4.0061e-05
4.00588e-05
4.00488e-05
4.00302e-05
4.0008e-05
3.9993e-05
4.00091e-05
4.00844e-05
4.02217e-05
4.04507e-05
4.0761e-05
4.1115e-05
4.14737e-05
4.17844e-05
4.20845e-05
4.22137e-05
4.20904e-05
4.16843e-05
4.09812e-05
4.00692e-05
4.00499e-05
4.0051e-05
4.00519e-05
4.0053e-05
4.00541e-05
4.00551e-05
4.00561e-05
4.00569e-05
4.00576e-05
4.00582e-05
4.00587e-05
4.00592e-05
4.00596e-05
4.00599e-05
4.00602e-05
4.00604e-05
4.00606e-05
4.00607e-05
4.00608e-05
4.00609e-05
4.00611e-05
4.00616e-05
4.00624e-05
4.00631e-05
4.00619e-05
4.0057e-05
4.00464e-05
4.00297e-05
4.00107e-05
3.99958e-05
3.99913e-05
4.00093e-05
4.006e-05
4.01519e-05
4.0283e-05
4.04609e-05
4.06801e-05
4.09342e-05
4.12036e-05
4.14708e-05
4.17084e-05
4.00483e-05
4.00502e-05
4.00518e-05
4.00533e-05
4.00547e-05
4.00559e-05
4.0057e-05
4.00579e-05
4.00587e-05
4.00594e-05
4.006e-05
4.00605e-05
4.0061e-05
4.00614e-05
4.00617e-05
4.0062e-05
4.00623e-05
4.00625e-05
4.00627e-05
4.00629e-05
4.0063e-05
4.00632e-05
4.00634e-05
4.00638e-05
4.00645e-05
4.00652e-05
4.00655e-05
4.00643e-05
4.00604e-05
4.00534e-05
4.00426e-05
4.00287e-05
4.00133e-05
3.99992e-05
3.99899e-05
3.9988e-05
3.99973e-05
4.00227e-05
4.00663e-05
4.01343e-05
4.02107e-05
4.00472e-05
4.00498e-05
4.00519e-05
4.00537e-05
4.00553e-05
4.00566e-05
4.00578e-05
4.00588e-05
4.00597e-05
4.00605e-05
4.00612e-05
4.00618e-05
4.00623e-05
4.00628e-05
4.00632e-05
4.00636e-05
4.00639e-05
4.00642e-05
4.00645e-05
4.00648e-05
4.0065e-05
4.00652e-05
4.00654e-05
4.00656e-05
4.00658e-05
4.00661e-05
4.00666e-05
4.00672e-05
4.00679e-05
4.00684e-05
4.00682e-05
4.00669e-05
4.00642e-05
4.00595e-05
4.00529e-05
4.00444e-05
4.00344e-05
4.00231e-05
4.00116e-05
4.0001e-05
3.99926e-05
4.00466e-05
4.00498e-05
4.00522e-05
4.00542e-05
4.00558e-05
4.00573e-05
4.00585e-05
4.00596e-05
4.00606e-05
4.00614e-05
4.00622e-05
4.00629e-05
4.00635e-05
4.00641e-05
4.00646e-05
4.0065e-05
4.00654e-05
4.00658e-05
4.00662e-05
4.00665e-05
4.00668e-05
4.00672e-05
4.00674e-05
4.00677e-05
4.00679e-05
4.00681e-05
4.00683e-05
4.00685e-05
4.00688e-05
4.00692e-05
4.00697e-05
4.00703e-05
4.00709e-05
4.00714e-05
4.00717e-05
4.00715e-05
4.00708e-05
4.00694e-05
4.00673e-05
4.00639e-05
4.00606e-05
4.00463e-05
4.00499e-05
4.00525e-05
4.00545e-05
4.00562e-05
4.00577e-05
4.0059e-05
4.00602e-05
4.00613e-05
4.00622e-05
4.00631e-05
4.00638e-05
4.00645e-05
4.00652e-05
4.00658e-05
4.00663e-05
4.00668e-05
4.00673e-05
4.00677e-05
4.00681e-05
4.00685e-05
4.00689e-05
4.00693e-05
4.00696e-05
4.00699e-05
4.00702e-05
4.00704e-05
4.00706e-05
4.00709e-05
4.00711e-05
4.00713e-05
4.00715e-05
4.00718e-05
4.00721e-05
4.00725e-05
4.0073e-05
4.00735e-05
4.00739e-05
4.00744e-05
4.00749e-05
4.00752e-05
4.00462e-05
4.00499e-05
4.00526e-05
4.00547e-05
4.00565e-05
4.0058e-05
4.00594e-05
4.00607e-05
4.00618e-05
4.00629e-05
4.00638e-05
4.00647e-05
4.00655e-05
4.00662e-05
4.00668e-05
4.00675e-05
4.0068e-05
4.00686e-05
4.00691e-05
4.00696e-05
4.00701e-05
4.00705e-05
4.00709e-05
4.00713e-05
4.00717e-05
4.0072e-05
4.00724e-05
4.00727e-05
4.00729e-05
4.00732e-05
4.00735e-05
4.00737e-05
4.00739e-05
4.00741e-05
4.00744e-05
4.00746e-05
4.00748e-05
4.0075e-05
4.00753e-05
4.00756e-05
4.00759e-05
4.00461e-05
4.00498e-05
4.00525e-05
4.00547e-05
4.00565e-05
4.00581e-05
4.00596e-05
4.0061e-05
4.00622e-05
4.00633e-05
4.00644e-05
4.00653e-05
4.00662e-05
4.0067e-05
4.00678e-05
4.00685e-05
4.00691e-05
4.00697e-05
4.00703e-05
4.00709e-05
4.00715e-05
4.0072e-05
4.00725e-05
4.00729e-05
4.00733e-05
4.00737e-05
4.00741e-05
4.00745e-05
4.00748e-05
4.00752e-05
4.00755e-05
4.00758e-05
4.0076e-05
4.00763e-05
4.00766e-05
4.00768e-05
4.00771e-05
4.00773e-05
4.00775e-05
4.00777e-05
4.0078e-05
4.00458e-05
4.00496e-05
4.00523e-05
4.00545e-05
4.00564e-05
4.00581e-05
4.00596e-05
4.00611e-05
4.00624e-05
4.00636e-05
4.00648e-05
4.00658e-05
4.00668e-05
4.00677e-05
4.00686e-05
4.00693e-05
4.00701e-05
4.00708e-05
4.00715e-05
4.00721e-05
4.00727e-05
4.00733e-05
4.00739e-05
4.00744e-05
4.00749e-05
4.00753e-05
4.00758e-05
4.00762e-05
4.00766e-05
4.00769e-05
4.00773e-05
4.00776e-05
4.0078e-05
4.00783e-05
4.00786e-05
4.00789e-05
4.00792e-05
4.00795e-05
4.00797e-05
4.008e-05
4.00803e-05
4.00455e-05
4.00492e-05
4.00519e-05
4.00541e-05
4.0056e-05
4.00578e-05
4.00595e-05
4.0061e-05
4.00624e-05
4.00638e-05
4.0065e-05
4.00662e-05
4.00672e-05
4.00683e-05
4.00692e-05
4.00701e-05
4.00709e-05
4.00717e-05
4.00725e-05
4.00732e-05
4.00739e-05
4.00745e-05
4.00752e-05
4.00757e-05
4.00763e-05
4.00768e-05
4.00773e-05
4.00778e-05
4.00782e-05
4.00786e-05
4.0079e-05
4.00794e-05
4.00798e-05
4.00801e-05
4.00805e-05
4.00808e-05
4.00812e-05
4.00815e-05
4.00818e-05
4.00821e-05
4.00824e-05
4.00449e-05
4.00485e-05
4.00512e-05
4.00534e-05
4.00555e-05
4.00573e-05
4.00591e-05
4.00607e-05
4.00623e-05
4.00637e-05
4.00651e-05
4.00664e-05
4.00675e-05
4.00687e-05
4.00697e-05
4.00707e-05
4.00716e-05
4.00725e-05
4.00733e-05
4.00741e-05
4.00749e-05
4.00757e-05
4.00763e-05
4.0077e-05
4.00776e-05
4.00782e-05
4.00787e-05
4.00792e-05
4.00797e-05
4.00802e-05
4.00807e-05
4.00811e-05
4.00815e-05
4.00819e-05
4.00823e-05
4.00827e-05
4.0083e-05
4.00834e-05
4.00837e-05
4.0084e-05
4.00844e-05
4.00441e-05
4.00477e-05
4.00503e-05
4.00526e-05
4.00547e-05
4.00566e-05
4.00585e-05
4.00602e-05
4.00619e-05
4.00635e-05
4.0065e-05
4.00664e-05
4.00677e-05
4.00689e-05
4.00701e-05
4.00712e-05
4.00722e-05
4.00732e-05
4.00741e-05
4.0075e-05
4.00759e-05
4.00767e-05
4.00774e-05
4.00781e-05
4.00788e-05
4.00795e-05
4.00801e-05
4.00806e-05
4.00812e-05
4.00817e-05
4.00822e-05
4.00827e-05
4.00831e-05
4.00836e-05
4.0084e-05
4.00844e-05
4.00848e-05
4.00852e-05
4.00855e-05
4.00859e-05
4.00863e-05
4.00432e-05
4.00466e-05
4.00492e-05
4.00515e-05
4.00536e-05
4.00556e-05
4.00576e-05
4.00595e-05
4.00613e-05
4.0063e-05
4.00646e-05
4.00661e-05
4.00676e-05
4.0069e-05
4.00702e-05
4.00714e-05
4.00726e-05
4.00737e-05
4.00747e-05
4.00757e-05
4.00766e-05
4.00775e-05
4.00784e-05
4.00792e-05
4.00799e-05
4.00806e-05
4.00813e-05
4.00819e-05
4.00825e-05
4.00831e-05
4.00836e-05
4.00841e-05
4.00846e-05
4.00851e-05
4.00856e-05
4.0086e-05
4.00864e-05
4.00868e-05
4.00873e-05
4.00876e-05
4.00881e-05
4.00419e-05
4.00452e-05
4.00478e-05
4.00501e-05
4.00523e-05
4.00544e-05
4.00565e-05
4.00585e-05
4.00604e-05
4.00622e-05
4.0064e-05
4.00657e-05
4.00672e-05
4.00687e-05
4.00701e-05
4.00715e-05
4.00727e-05
4.00739e-05
4.00751e-05
4.00761e-05
4.00772e-05
4.00782e-05
4.00791e-05
4.008e-05
4.00808e-05
4.00816e-05
4.00823e-05
4.0083e-05
4.00836e-05
4.00843e-05
4.00848e-05
4.00854e-05
4.0086e-05
4.00865e-05
4.0087e-05
4.00875e-05
4.00879e-05
4.00884e-05
4.00888e-05
4.00892e-05
4.00897e-05
4.00404e-05
4.00435e-05
4.0046e-05
4.00484e-05
4.00506e-05
4.00529e-05
4.0055e-05
4.00571e-05
4.00592e-05
4.00611e-05
4.0063e-05
4.00648e-05
4.00665e-05
4.00681e-05
4.00697e-05
4.00711e-05
4.00725e-05
4.00738e-05
4.00751e-05
4.00763e-05
4.00774e-05
4.00785e-05
4.00795e-05
4.00805e-05
4.00814e-05
4.00822e-05
4.0083e-05
4.00838e-05
4.00845e-05
4.00852e-05
4.00858e-05
4.00864e-05
4.0087e-05
4.00876e-05
4.00881e-05
4.00886e-05
4.00891e-05
4.00896e-05
4.00901e-05
4.00905e-05
4.0091e-05
4.00385e-05
4.00415e-05
4.0044e-05
4.00464e-05
4.00487e-05
4.00509e-05
4.00531e-05
4.00553e-05
4.00574e-05
4.00595e-05
4.00615e-05
4.00634e-05
4.00653e-05
4.0067e-05
4.00687e-05
4.00703e-05
4.00718e-05
4.00733e-05
4.00746e-05
4.00759e-05
4.00772e-05
4.00784e-05
4.00795e-05
4.00805e-05
4.00815e-05
4.00824e-05
4.00833e-05
4.00841e-05
4.00849e-05
4.00856e-05
4.00863e-05
4.0087e-05
4.00876e-05
4.00882e-05
4.00888e-05
4.00894e-05
4.00899e-05
4.00904e-05
4.00909e-05
4.00914e-05
4.00918e-05
4.00363e-05
4.00392e-05
4.00416e-05
4.00439e-05
4.00462e-05
4.00485e-05
4.00508e-05
4.0053e-05
4.00552e-05
4.00573e-05
4.00594e-05
4.00614e-05
4.00634e-05
4.00653e-05
4.00671e-05
4.00688e-05
4.00705e-05
4.00721e-05
4.00736e-05
4.0075e-05
4.00764e-05
4.00776e-05
4.00789e-05
4.008e-05
4.00811e-05
4.00821e-05
4.0083e-05
4.00839e-05
4.00847e-05
4.00855e-05
4.00863e-05
4.0087e-05
4.00877e-05
4.00883e-05
4.00889e-05
4.00895e-05
4.00901e-05
4.00906e-05
4.00911e-05
4.00916e-05
4.00921e-05
4.00338e-05
4.00365e-05
4.00388e-05
4.00411e-05
4.00433e-05
4.00456e-05
4.00478e-05
4.005e-05
4.00523e-05
4.00545e-05
4.00566e-05
4.00588e-05
4.00609e-05
4.00629e-05
4.00648e-05
4.00667e-05
4.00684e-05
4.00701e-05
4.00717e-05
4.00733e-05
4.00748e-05
4.00762e-05
4.00775e-05
4.00787e-05
4.00799e-05
4.00809e-05
4.0082e-05
4.00829e-05
4.00838e-05
4.00847e-05
4.00855e-05
4.00862e-05
4.00869e-05
4.00876e-05
4.00883e-05
4.00889e-05
4.00895e-05
4.009e-05
4.00906e-05
4.00911e-05
4.00916e-05
4.00309e-05
4.00334e-05
4.00356e-05
4.00377e-05
4.00398e-05
4.0042e-05
4.00442e-05
4.00464e-05
4.00486e-05
4.00509e-05
4.00531e-05
4.00553e-05
4.00575e-05
4.00596e-05
4.00617e-05
4.00637e-05
4.00656e-05
4.00674e-05
4.00691e-05
4.00708e-05
4.00724e-05
4.00739e-05
4.00753e-05
4.00766e-05
4.00778e-05
4.0079e-05
4.00801e-05
4.00811e-05
4.00821e-05
4.0083e-05
4.00838e-05
4.00846e-05
4.00854e-05
4.00861e-05
4.00868e-05
4.00874e-05
4.0088e-05
4.00886e-05
4.00891e-05
4.00896e-05
4.00901e-05
4.00275e-05
4.00298e-05
4.00318e-05
4.00338e-05
4.00357e-05
4.00378e-05
4.00398e-05
4.0042e-05
4.00442e-05
4.00465e-05
4.00488e-05
4.00511e-05
4.00533e-05
4.00555e-05
4.00577e-05
4.00597e-05
4.00618e-05
4.00637e-05
4.00655e-05
4.00673e-05
4.0069e-05
4.00705e-05
4.0072e-05
4.00734e-05
4.00748e-05
4.0076e-05
4.00771e-05
4.00782e-05
4.00792e-05
4.00802e-05
4.00811e-05
4.0082e-05
4.00827e-05
4.00835e-05
4.00842e-05
4.00849e-05
4.00855e-05
4.00861e-05
4.00867e-05
4.00872e-05
4.00878e-05
4.00237e-05
4.00257e-05
4.00275e-05
4.00292e-05
4.00309e-05
4.00328e-05
4.00348e-05
4.00369e-05
4.0039e-05
4.00413e-05
4.00435e-05
4.00458e-05
4.00481e-05
4.00503e-05
4.00525e-05
4.00547e-05
4.00568e-05
4.00588e-05
4.00608e-05
4.00626e-05
4.00644e-05
4.00661e-05
4.00677e-05
4.00692e-05
4.00706e-05
4.0072e-05
4.00732e-05
4.00744e-05
4.00755e-05
4.00765e-05
4.00774e-05
4.00783e-05
4.00792e-05
4.00799e-05
4.00807e-05
4.00813e-05
4.0082e-05
4.00826e-05
4.00831e-05
4.00836e-05
4.00841e-05
4.00195e-05
4.00211e-05
4.00225e-05
4.0024e-05
4.00255e-05
4.00272e-05
4.0029e-05
4.00309e-05
4.00329e-05
4.0035e-05
4.00372e-05
4.00394e-05
4.00416e-05
4.00439e-05
4.00461e-05
4.00483e-05
4.00505e-05
4.00525e-05
4.00546e-05
4.00565e-05
4.00583e-05
4.006e-05
4.00617e-05
4.00632e-05
4.00647e-05
4.00661e-05
4.00673e-05
4.00685e-05
4.00697e-05
4.00707e-05
4.00717e-05
4.00726e-05
4.00735e-05
4.00743e-05
4.00751e-05
4.00758e-05
4.00765e-05
4.00771e-05
4.00777e-05
4.00783e-05
4.00788e-05
4.00146e-05
4.00158e-05
4.00169e-05
4.00181e-05
4.00193e-05
4.00207e-05
4.00223e-05
4.00239e-05
4.00257e-05
4.00276e-05
4.00296e-05
4.00316e-05
4.00337e-05
4.00358e-05
4.00379e-05
4.004e-05
4.00421e-05
4.00441e-05
4.00461e-05
4.00481e-05
4.00501e-05
4.00519e-05
4.00537e-05
4.00554e-05
4.0057e-05
4.00585e-05
4.00599e-05
4.00613e-05
4.00625e-05
4.00637e-05
4.00648e-05
4.00658e-05
4.00667e-05
4.00676e-05
4.00684e-05
4.00691e-05
4.00698e-05
4.00704e-05
4.0071e-05
4.00715e-05
4.00721e-05
4.00092e-05
4.001e-05
4.00107e-05
4.00115e-05
4.00124e-05
4.00134e-05
4.00146e-05
4.00158e-05
4.00172e-05
4.00186e-05
4.00202e-05
4.00218e-05
4.00236e-05
4.00256e-05
4.00277e-05
4.00299e-05
4.00321e-05
4.00343e-05
4.00364e-05
4.00384e-05
4.00403e-05
4.00422e-05
4.00439e-05
4.00456e-05
4.00472e-05
4.00487e-05
4.005e-05
4.00513e-05
4.00526e-05
4.00537e-05
4.00548e-05
4.00558e-05
4.00567e-05
4.00576e-05
4.00584e-05
4.00592e-05
4.00599e-05
4.00605e-05
4.00611e-05
4.00617e-05
4.00622e-05
4.00031e-05
4.00034e-05
4.00037e-05
4.0004e-05
4.00044e-05
4.00048e-05
4.00054e-05
4.00059e-05
4.00066e-05
4.00073e-05
4.0008e-05
4.00087e-05
4.00095e-05
4.00103e-05
4.00111e-05
4.00119e-05
4.00126e-05
4.00134e-05
4.00141e-05
4.00148e-05
4.00156e-05
4.00165e-05
4.00174e-05
4.00183e-05
4.00193e-05
4.00203e-05
4.00213e-05
4.00222e-05
4.00232e-05
4.00241e-05
4.0025e-05
4.00259e-05
4.00267e-05
4.00276e-05
4.00283e-05
4.00291e-05
4.00297e-05
4.00304e-05
4.0031e-05
4.00316e-05
4.00322e-05
0.00363442
0.00713205
0.0101566
0.012175
0.0130502
0.0128518
0.0116787
0.00966972
0.00690929
0.00359656
0.000853668
1.76255e-05
5.15123e-06
1.99724e-05
4.36339e-05
4.14652e-05
3.96671e-05
3.99338e-05
4.00822e-05
4.00578e-05
4.00547e-05
4.00616e-05
4.00623e-05
4.0061e-05
4.00596e-05
4.00575e-05
4.00548e-05
4.00519e-05
4.00491e-05
4.00467e-05
4.00448e-05
4.00435e-05
4.00426e-05
4.00421e-05
4.00418e-05
4.00415e-05
4.00413e-05
4.0041e-05
4.00407e-05
4.00403e-05
4.00398e-05
4.00393e-05
4.00387e-05
4.00381e-05
4.00373e-05
4.00364e-05
4.00355e-05
4.00345e-05
4.00333e-05
4.0032e-05
4.00306e-05
4.00291e-05
4.00274e-05
4.00255e-05
4.00234e-05
4.00212e-05
4.00187e-05
4.0016e-05
4.00133e-05
4.00105e-05
4.00079e-05
4.0006e-05
4.00051e-05
4.00058e-05
4.00081e-05
4.00118e-05
4.00166e-05
4.00219e-05
4.00277e-05
4.00341e-05
4.00409e-05
4.00488e-05
4.00551e-05
4.00711e-05
0.00621728
0.010867
0.0144093
0.0165846
0.0174921
0.017296
0.0161304
0.0141201
0.0113431
0.00782734
0.00385896
0.000794829
0.000190604
5.20435e-06
1.45721e-05
4.23913e-05
4.21707e-05
3.97611e-05
3.98578e-05
4.0082e-05
4.00711e-05
4.00547e-05
4.00607e-05
4.00625e-05
4.006e-05
4.00576e-05
4.00553e-05
4.00526e-05
4.00497e-05
4.00471e-05
4.00451e-05
4.00437e-05
4.00428e-05
4.00422e-05
4.00418e-05
4.00416e-05
4.00414e-05
4.00411e-05
4.00407e-05
4.00404e-05
4.00399e-05
4.00394e-05
4.00389e-05
4.00382e-05
4.00375e-05
4.00366e-05
4.00357e-05
4.00347e-05
4.00336e-05
4.00323e-05
4.0031e-05
4.00294e-05
4.00278e-05
4.00259e-05
4.00239e-05
4.00216e-05
4.00192e-05
4.00165e-05
4.00138e-05
4.0011e-05
4.00084e-05
4.00063e-05
4.00052e-05
4.00056e-05
4.00076e-05
4.00112e-05
4.00158e-05
4.00212e-05
4.0027e-05
4.00333e-05
4.004e-05
4.00479e-05
4.00542e-05
4.00701e-05
0.00868737
0.0147577
0.0190207
0.0214627
0.0224655
0.0223071
0.0211633
0.0191642
0.0163998
0.0129025
0.00869174
0.00411263
0.000825472
0.000218
3.63818e-06
5.68837e-06
4.04994e-05
4.2925e-05
4.01087e-05
3.9754e-05
4.00654e-05
4.00976e-05
4.0058e-05
4.00562e-05
4.00624e-05
4.00602e-05
4.00557e-05
4.00526e-05
4.00502e-05
4.00477e-05
4.00455e-05
4.0044e-05
4.00429e-05
4.00423e-05
4.00419e-05
4.00416e-05
4.00414e-05
4.00411e-05
4.00408e-05
4.00405e-05
4.004e-05
4.00396e-05
4.0039e-05
4.00384e-05
4.00377e-05
4.00369e-05
4.0036e-05
4.0035e-05
4.00339e-05
4.00326e-05
4.00313e-05
4.00298e-05
4.00282e-05
4.00264e-05
4.00244e-05
4.00221e-05
4.00197e-05
4.00171e-05
4.00143e-05
4.00115e-05
4.00089e-05
4.00067e-05
4.00054e-05
4.00055e-05
4.00072e-05
4.00105e-05
4.00151e-05
4.00203e-05
4.00261e-05
4.00325e-05
4.00391e-05
4.0047e-05
4.00533e-05
4.0069e-05
0.0111262
0.0188379
0.0239622
0.026791
0.0279815
0.0279249
0.0268431
0.0248811
0.0221402
0.0186779
0.0145058
0.00962305
0.0045121
0.000956106
0.000274889
1.33429e-06
1.06679e-05
3.61051e-05
4.37641e-05
4.06745e-05
3.9629e-05
3.99639e-05
4.01261e-05
4.00756e-05
4.00452e-05
4.00537e-05
4.00599e-05
4.00561e-05
4.00508e-05
4.00477e-05
4.00459e-05
4.00444e-05
4.00432e-05
4.00424e-05
4.00419e-05
4.00417e-05
4.00414e-05
4.00412e-05
4.00409e-05
4.00406e-05
4.00402e-05
4.00397e-05
4.00392e-05
4.00386e-05
4.00379e-05
4.00371e-05
4.00363e-05
4.00353e-05
4.00342e-05
4.0033e-05
4.00317e-05
4.00302e-05
4.00286e-05
4.00268e-05
4.00249e-05
4.00227e-05
4.00203e-05
4.00177e-05
4.0015e-05
4.00121e-05
4.00094e-05
4.00071e-05
4.00056e-05
4.00054e-05
4.00068e-05
4.00099e-05
4.00143e-05
4.00195e-05
4.00252e-05
4.00315e-05
4.00382e-05
4.0046e-05
4.00523e-05
4.00678e-05
0.0137129
0.023169
0.0291874
0.0325109
0.0340026
0.0341408
0.0331915
0.0313205
0.028641
0.0252276
0.0211204
0.0163062
0.0108003
0.00519729
0.00122169
0.000376076
0
9.45407e-06
3.12902e-05
4.36934e-05
4.19978e-05
3.97178e-05
3.97286e-05
4.01156e-05
4.01482e-05
4.00646e-05
4.00379e-05
4.00487e-05
4.00549e-05
4.00513e-05
4.00465e-05
4.0044e-05
4.00432e-05
4.00427e-05
4.00421e-05
4.00417e-05
4.00414e-05
4.00412e-05
4.0041e-05
4.00407e-05
4.00404e-05
4.00399e-05
4.00394e-05
4.00388e-05
4.00382e-05
4.00374e-05
4.00366e-05
4.00356e-05
4.00346e-05
4.00334e-05
4.00321e-05
4.00307e-05
4.00291e-05
4.00274e-05
4.00254e-05
4.00233e-05
4.00209e-05
4.00184e-05
4.00156e-05
4.00128e-05
4.001e-05
4.00076e-05
4.00059e-05
4.00054e-05
4.00065e-05
4.00092e-05
4.00134e-05
4.00186e-05
4.00243e-05
4.00306e-05
4.00372e-05
4.00449e-05
4.00512e-05
4.00666e-05
0.0171742
0.0278181
0.034634
0.0385343
0.0404452
0.0408913
0.0401729
0.0384769
0.0359286
0.0326149
0.0285942
0.0238904
0.0184809
0.0124166
0.00627738
0.00169354
0.000589789
1.78651e-05
7.85799e-06
1.93115e-05
4.05279e-05
4.37099e-05
4.05358e-05
3.93458e-05
3.97897e-05
4.01567e-05
4.01495e-05
4.0061e-05
4.00337e-05
4.00433e-05
4.00502e-05
4.00478e-05
4.00436e-05
4.00418e-05
4.00417e-05
4.00419e-05
4.00418e-05
4.00415e-05
4.00411e-05
4.00408e-05
4.00405e-05
4.00402e-05
4.00397e-05
4.00391e-05
4.00385e-05
4.00378e-05
4.00369e-05
4.0036e-05
4.0035e-05
4.00339e-05
4.00326e-05
4.00312e-05
4.00296e-05
4.00279e-05
4.0026e-05
4.00239e-05
4.00216e-05
4.00191e-05
4.00163e-05
4.00135e-05
4.00107e-05
4.00082e-05
4.00063e-05
4.00055e-05
4.00062e-05
4.00086e-05
4.00126e-05
4.00176e-05
4.00233e-05
4.00295e-05
4.00361e-05
4.00438e-05
4.00501e-05
4.00653e-05
0.0219098
0.0328003
0.0402403
0.0447528
0.047183
0.0480549
0.0476849
0.0462744
0.0439587
0.0408329
0.0369657
0.0324033
0.0271604
0.0212206
0.0146445
0.00793858
0.00271938
9.34801e-05
0.000117568
4.28515e-06
1.03439e-05
3.04813e-05
4.45424e-05
4.33288e-05
4.00681e-05
3.93149e-05
3.9818e-05
4.01512e-05
4.01422e-05
4.00573e-05
4.00279e-05
4.00375e-05
4.00475e-05
4.00474e-05
4.00433e-05
4.00408e-05
4.00406e-05
4.00412e-05
4.00415e-05
4.00413e-05
4.00409e-05
4.00404e-05
4.00399e-05
4.00394e-05
4.00388e-05
4.00381e-05
4.00374e-05
4.00365e-05
4.00354e-05
4.00343e-05
4.00331e-05
4.00317e-05
4.00302e-05
4.00286e-05
4.00267e-05
4.00246e-05
4.00223e-05
4.00198e-05
4.00171e-05
4.00143e-05
4.00115e-05
4.00088e-05
4.00067e-05
4.00056e-05
4.0006e-05
4.0008e-05
4.00117e-05
4.00166e-05
4.00222e-05
4.00284e-05
4.0035e-05
4.00427e-05
4.00489e-05
4.00639e-05
0.0275237
0.0380787
0.0459449
0.0510384
0.0540476
0.0554491
0.0555501
0.0545535
0.0525979
0.0497821
0.0461791
0.0418443
0.036816
0.0311074
0.0247104
0.0176531
0.0104572
0.0042663
0.000606353
0.000397231
4.71961e-06
7.08603e-06
9.31235e-06
3.53014e-05
4.49606e-05
4.28187e-05
3.99441e-05
3.93627e-05
3.98291e-05
4.01471e-05
4.01471e-05
4.0058e-05