/*--------------------------------*- C++ -*----------------------------------*\
| =========                 |                                                 |
| \\      /  F ield         | OpenFOAM: The Open Source CFD Toolbox           |
|  \\    /   O peration     | Version:  2312                                  |
|   \\  /    A nd           | Website:  www.openfoam.com                      |
|    \\/     M anipulation  |                                                 |
\*---------------------------------------------------------------------------*/
FoamFile
{
    version     2.0;
    format      ascii;
    arch        "LSB;label=32;scalar=64";
    class       volScalarField;
    location    "950";
    object      p;
}
// * * * * * * * * * * * * * * * * * * * * * * * * * * * * * * * * * * * * * //

dimensions      [0 2 -2 0 0 0 0];

internalField   nonuniform List<scalar> 
11040
(
-19.1346
-24.4961
-19.818
-19.1947
-19.0689
-18.8662
-18.6653
-18.4993
-18.3727
-18.2851
-18.2063
-18.1422
-18.0927
-18.0485
-18.0164
-17.9916
-17.9761
-17.9698
-17.9722
-17.9846
-18.0046
-18.0333
-18.0737
-18.1244
-18.1796
-18.2333
-18.2779
-18.3039
-18.3006
-18.2569
-18.1632
-18.0122
-17.8002
-17.5303
-17.2171
-16.8858
-16.5545
-16.2884
-16.2629
-16.2543
-16.7053
-8.18743
-14.6877
-18.5418
-19.0163
-19.0281
-18.8762
-18.676
-18.5059
-18.3737
-18.2846
-18.2051
-18.1393
-18.0893
-18.0445
-18.0118
-17.9867
-17.9706
-17.9639
-17.9659
-17.9779
-17.9977
-18.0264
-18.0663
-18.1166
-18.1719
-18.2263
-18.2719
-18.2997
-18.2989
-18.2583
-18.1681
-18.021
-17.8135
-17.5481
-17.2392
-16.912
-16.5846
-16.3181
-16.2962
-16.2682
-17.1132
-1.51967
-8.43875
-14.6296
-17.9601
-18.7727
-18.8287
-18.6828
-18.5128
-18.3713
-18.2813
-18.2024
-18.1349
-18.0849
-18.0394
-18.0061
-17.9805
-17.964
-17.9569
-17.9583
-17.9697
-17.9893
-18.0182
-18.0579
-18.1079
-18.1632
-18.218
-18.2647
-18.2942
-18.2958
-18.2586
-18.1725
-18.0304
-17.829
-17.5704
-17.2686
-16.949
-16.6305
-16.3695
-16.3603
-16.3107
-17.3232
2.40381
-4.64742
-10.565
-14.9061
-17.5638
-18.5369
-18.6038
-18.5131
-18.3686
-18.2753
-18.1972
-18.1274
-18.0782
-18.0319
-17.9981
-17.9721
-17.955
-17.9475
-17.9484
-17.9593
-17.9785
-18.0076
-18.0474
-18.0972
-18.1527
-18.2082
-18.2564
-18.2882
-18.2932
-18.2605
-18.1801
-18.0448
-17.8513
-17.6018
-17.3096
-16.9999
-16.693
-16.4422
-16.447
-16.3914
-17.4056
4.92175
-0.848928
-6.50816
-11.2288
-14.8068
-17.169
-18.2189
-18.3531
-18.3609
-18.2732
-18.1935
-18.1161
-18.069
-18.022
-17.9881
-17.9617
-17.9438
-17.9359
-17.9361
-17.9464
-17.9652
-17.9944
-18.0341
-18.0838
-18.1397
-18.1963
-18.2466
-18.2815
-18.291
-18.2642
-18.1913
-18.0651
-17.8822
-17.6447
-17.3653
-17.069
-16.7771
-16.5422
-16.5555
-16.5128
-17.4428
6.3559
1.84532
-3.02744
-7.70061
-11.5923
-14.5474
-16.6548
-17.7797
-18.1189
-18.2195
-18.1932
-18.107
-18.0579
-18.0083
-17.9752
-17.949
-17.9303
-17.9222
-17.9217
-17.9313
-17.9494
-17.9785
-18.0179
-18.0675
-18.1239
-18.182
-18.2348
-18.2738
-18.2891
-18.27
-18.2069
-18.0925
-17.9233
-17.7014
-17.4389
-17.16
-16.8873
-16.6738
-16.6877
-16.6768
-17.4801
7.12972
3.51908
-0.428134
-4.52021
-8.38347
-11.6387
-14.1671
-16.0671
-17.2885
-17.8731
-18.0242
-18.1008
-18.0547
-17.9964
-17.9583
-17.9325
-17.9139
-17.9062
-17.905
-17.914
-17.931
-17.9596
-17.9985
-18.0479
-18.1049
-18.1646
-18.2208
-18.2649
-18.2876
-18.2783
-18.2276
-18.1281
-17.9764
-17.7743
-17.5332
-17.2762
-17.0271
-16.8391
-16.8472
-16.8786
-17.5341
7.43544
4.50849
1.36706
-1.99529
-5.42942
-8.68936
-11.5052
-13.7363
-15.4631
-16.7392
-17.4896
-17.8143
-17.9646
-18.0014
-17.9485
-17.9162
-17.8924
-17.8862
-17.8851
-17.8942
-17.9101
-17.9377
-17.9756
-18.0245
-18.0819
-18.1437
-18.2038
-18.2543
-18.2861
-18.2891
-18.2537
-18.1728
-18.0427
-17.865
-17.6501
-17.4194
-17.1979
-17.0367
-17.0366
-17.1066
-17.6072
7.43398
5.02339
2.50008
-0.213959
-3.08046
-5.98146
-8.77124
-11.2537
-13.2774
-14.8664
-16.1124
-17.0055
-17.531
-17.7635
-17.9071
-17.9199
-17.8766
-17.8646
-17.8597
-17.8703
-17.8857
-17.9124
-17.9492
-17.9972
-18.0548
-18.1185
-18.1831
-18.2411
-18.2838
-18.3015
-18.2847
-18.2262
-18.1221
-17.9735
-17.7896
-17.5893
-17.3979
-17.2615
-17.2527
-17.341
-17.6947
7.21854
5.19846
3.14068
0.953496
-1.38789
-3.83224
-6.30417
-8.71239
-10.9231
-12.7945
-14.2766
-15.4683
-16.4337
-17.1162
-17.5112
-17.7236
-17.8581
-17.865
-17.8392
-17.8441
-17.8551
-17.8815
-17.9178
-17.965
-18.023
-18.0888
-18.158
-18.2243
-18.2793
-18.3138
-18.3185
-18.286
-18.212
-18.0967
-17.9473
-17.7803
-17.6191
-17.5022
-17.4821
-17.559
-17.7848
6.85692
5.13871
3.43174
1.65285
-0.248793
-2.26623
-4.36162
-6.48243
-8.5691
-10.5383
-12.2737
-13.6988
-14.8487
-15.8097
-16.5862
-17.1401
-17.4736
-17.6925
-17.8289
-17.8424
-17.8292
-17.8462
-17.8778
-17.9241
-17.9838
-18.0526
-18.1272
-18.2025
-18.271
-18.3238
-18.352
-18.348
-18.3064
-18.2263
-18.1129
-17.979
-17.8445
-17.7391
-17.7005
-17.7375
-17.8536
6.39764
4.91675
3.47687
2.0088
0.456962
-1.19403
-2.93541
-4.73933
-6.56709
-8.37683
-10.1177
-11.7208
-13.1074
-14.243
-15.179
-15.98
-16.636
-17.1191
-17.4326
-17.6673
-17.8135
-17.843
-17.8468
-17.8784
-17.9331
-18.003
-18.0843
-18.1709
-18.2547
-18.3273
-18.3803
-18.4055
-18.3965
-18.3507
-18.2704
-18.1645
-18.0484
-17.9433
-17.8744
-17.8521
-17.8706
5.87749
4.58742
3.35488
2.1245
0.84322
-0.511384
-1.94468
-3.45011
-5.00774
-6.58671
-8.15421
-9.68542
-11.1471
-12.4783
-13.6168
-14.5538
-15.3456
-16.0382
-16.62
-17.0653
-17.3658
-17.6124
-17.8085
-17.8925
-17.9161
-17.9557
-18.0268
-18.1179
-18.2164
-18.3104
-18.3899
-18.4456
-18.4692
-18.4555
-18.4034
-18.318
-18.2089
-18.0899
-17.9763
-17.883
-17.8109
5.32425
4.19127
3.12359
2.07763
1.00536
-0.116142
-1.29743
-2.54177
-3.84482
-5.19082
-6.55471
-7.91579
-9.26041
-10.5701
-11.8124
-12.9367
-13.8991
-14.7029
-15.3992
-16.0216
-16.5668
-16.9603
-17.2201
-17.4815
-17.7576
-17.9585
-18.0593
-18.1165
-18.1802
-18.2619
-18.3515
-18.4321
-18.4879
-18.507
-18.4826
-18.4139
-18.3058
-18.1659
-18.0035
-17.8378
-17.6789
4.75885
3.75842
2.82539
1.92578
1.01694
0.0777897
-0.902783
-1.93186
-3.01228
-4.13952
-5.30064
-6.48091
-7.66659
-8.84384
-10.0021
-11.1281
-12.197
-13.1697
-14.0165
-14.7414
-15.4061
-15.9542
-16.3572
-16.6993
-16.9871
-17.2503
-17.5536
-17.8813
-18.1526
-18.325
-18.4175
-18.4644
-18.4843
-18.4813
-18.4501
-18.3827
-18.2727
-18.1204
-17.9268
-17.7083
-17.4811
4.20108
3.31473
2.49403
1.71271
0.933528
0.137976
-0.684048
-1.54041
-2.43645
-3.37319
-4.34565
-5.34704
-6.36921
-7.39994
-8.4274
-9.44301
-10.4413
-11.4144
-12.3465
-13.2077
-13.9839
-14.6349
-15.1557
-15.6026
-15.9994
-16.3512
-16.6563
-16.9175
-17.172
-17.4679
-17.8033
-18.1198
-18.3531
-18.4756
-18.4901
-18.4145
-18.2654
-18.0548
-17.7847
-17.4767
-17.1617
3.67303
2.88675
2.16204
1.47836
0.803751
0.122421
-0.57417
-1.29328
-2.04088
-2.81991
-3.62953
-4.46752
-5.33076
-6.2125
-7.10395
-7.99558
-8.8792
-9.74921
-10.6027
-11.4358
-12.2399
-12.9777
-13.6213
-14.1764
-14.6619
-15.0953
-15.4843
-15.8337
-16.1482
-16.4242
-16.6558
-16.851
-17.0311
-17.213
-17.3839
-17.5149
-17.5723
-17.539
-17.3986
-17.1675
-16.8866
3.20571
2.50345
1.85849
1.25358
0.661187
0.0681234
-0.532684
-1.14753
-1.78185
-2.43889
-3.11968
-3.82422
-4.55179
-5.29907
-6.06112
-6.83166
-7.60369
-8.37037
-9.12603
-9.86712
-10.5904
-11.2712
-11.8949
-12.4629
-12.9745
-13.433
-13.8445
-14.2173
-14.5571
-14.8656
-15.1435
-15.3902
-15.5991
-15.7631
-15.87
-15.9162
-15.9031
-15.8455
-15.7349
-15.5726
-15.3973
2.80716
2.17444
1.59505
1.05379
0.526737
0.00281358
-0.523963
-1.05911
-1.60746
-2.17221
-2.7546
-3.35557
-3.97541
-4.6125
-5.26405
-5.92627
-6.59461
-7.26397
-7.92878
-8.58326
-9.2217
-9.81759
-10.3565
-10.8456
-11.2893
-11.6936
-12.0628
-12.3997
-12.7064
-12.9851
-13.2369
-13.4612
-13.6542
-13.8119
-13.9275
-13.9965
-14.0128
-13.9795
-13.8894
-13.7352
-13.5561
2.46925
1.89577
1.37173
0.88338
0.409908
-0.0580763
-0.525694
-0.997744
-1.47845
-1.97063
-2.47557
-2.99445
-3.52799
-4.07536
-4.63486
-5.20399
-5.77956
-6.35784
-6.93472
-7.50572
-8.0662
-8.59287
-9.07102
-9.50382
-9.89221
-10.2387
-10.5467
-10.8196
-11.0605
-11.2715
-11.4535
-11.6066
-11.7305
-11.8246
-11.8881
-11.919
-11.9152
-11.8758
-11.7989
-11.6779
-11.5249
2.18096
1.65901
1.1827
0.739501
0.31129
-0.109934
-0.528625
-0.948971
-1.37462
-1.80801
-2.25035
-2.70268
-3.16586
-3.63942
-4.12225
-4.61259
-5.1081
-5.60591
-6.10275
-6.59496
-7.07872
-7.53475
-7.95066
-8.32809
-8.66663
-8.96694
-9.23026
-9.45801
-9.65169
-9.81283
-9.94299
-10.0435
-10.1155
-10.1594
-10.1758
-10.1646
-10.1262
-10.0589
-9.96558
-9.84511
-9.70051
1.93404
1.45761
1.02319
0.619306
0.230226
-0.150931
-0.528072
-0.904873
-1.28446
-1.66893
-2.05934
-2.45655
-2.86133
-3.27341
-3.69193
-4.11555
-4.54247
-4.97039
-5.39663
-5.81807
-6.23136
-6.62038
-6.97495
-7.29623
-7.58365
-7.83755
-8.05864
-8.24779
-8.40587
-8.53387
-8.63277
-8.70353
-8.74714
-8.76469
-8.75759
-8.7268
-8.67377
-8.59883
-8.50524
-8.39303
-8.26562
1.72175
1.28595
0.888712
0.519555
0.164839
-0.181375
-0.522554
-0.861925
-1.20217
-1.54505
-1.89149
-2.24214
-2.59763
-2.95775
-3.32177
-3.6886
-4.05673
-4.4243
-4.78906
-5.14837
-5.49938
-5.82866
-6.12797
-6.39809
-6.63838
-6.84898
-7.03048
-7.18361
-7.30918
-7.40817
-7.48156
-7.53043
-7.55587
-7.55909
-7.54142
-7.50388
-7.44761
-7.37365
-7.28434
-7.18023
-7.06399
1.5387
1.13944
0.775511
0.437349
0.113184
-0.202144
-0.511727
-0.818409
-1.12448
-1.43143
-1.74001
-2.05074
-2.36406
-2.67977
-2.99721
-3.31543
-3.63312
-3.94872
-4.26029
-4.56561
-4.86221
-5.13904
-5.38959
-5.61447
-5.81309
-5.98557
-6.13244
-6.25442
-6.35229
-6.42704
-6.4797
-6.51139
-6.52327
-6.51654
-6.49254
-6.45238
-6.39718
-6.32801
-6.24673
-6.15411
-6.05191
1.3805
1.01427
0.680359
0.370076
0.0732995
-0.214465
-0.495999
-0.7738
-1.04983
-1.32534
-1.60094
-1.87702
-2.15385
-2.43123
-2.70854
-2.9849
-3.25919
-3.53003
-3.79578
-4.05452
-4.30415
-4.53563
-4.74395
-4.92968
-5.09237
-5.23222
-5.34979
-5.44577
-5.52099
-5.57641
-5.61307
-5.63209
-5.63461
-5.6218
-5.59497
-5.5552
-5.5036
-5.44108
-5.36936
-5.28905
-5.20199
1.24353
0.907283
0.600539
0.315464
0.0433973
-0.219598
-0.47603
-0.728096
-0.977477
-1.22522
-1.47179
-1.71751
-1.96251
-2.20656
-2.44907
-2.68924
-2.92609
-3.1584
-3.38476
-3.60353
-3.81296
-4.00568
-4.17795
-4.33036
-4.46264
-4.57505
-4.66822
-4.74286
-4.79981
-4.84001
-4.86447
-4.87425
-4.87045
-4.85413
-4.82652
-4.78858
-4.74133
-4.68555
-4.62275
-4.55337
-4.47925
1.12478
0.815819
0.533743
0.271551
0.0218699
-0.218756
-0.4526
-0.68159
-0.907171
-1.13021
-1.35109
-1.57001
-1.78706
-2.00195
-2.21415
-2.42292
-2.62739
-2.82651
-3.01907
-3.20368
-3.37889
-3.53874
-3.68056
-3.80495
-3.91179
-4.00146
-4.0746
-4.13197
-4.17438
-4.20274
-4.218
-4.22116
-4.2132
-4.19511
-4.16793
-4.13255
-4.08984
-4.04045
-3.98566
-3.92582
-3.86251
1.02176
0.737648
0.47802
0.236651
0.00731123
-0.213048
-0.426481
-0.634692
-0.838911
-1.03987
-1.23787
-1.43305
-1.62542
-1.81471
-2.0004
-2.18186
-2.3583
-2.52882
-2.69241
-2.84791
-2.99412
-3.12629
-3.24257
-3.34361
-3.42942
-3.50045
-3.55737
-3.60094
-3.63194
-3.65123
-3.65969
-3.65823
-3.64774
-3.62907
-3.60315
-3.57072
-3.53255
-3.48918
-3.44167
-3.39028
-3.3364
0.932328
0.670886
0.431706
0.209317
-0.00150477
-0.203455
-0.3984
-0.587838
-0.772824
-0.953975
-1.13153
-1.30559
-1.47611
-1.64285
-1.80532
-1.96296
-2.11511
-2.261
-2.39979
-2.53053
-2.65226
-2.76122
-2.85623
-2.93796
-3.00653
-3.06243
-3.10634
-3.139
-3.16117
-3.17362
-3.17718
-3.17264
-3.16079
-3.14238
-3.1182
-3.0889
-3.0551
-3.01727
-2.97629
-2.93234
-2.88663
0.854693
0.613927
0.393389
0.188314
-0.00563198
-0.19084
-0.369005
-0.541449
-0.709077
-0.872416
-1.03166
-1.18688
-1.33802
-1.48484
-1.62693
-1.7638
-1.89488
-2.01956
-2.13714
-2.24687
-2.34801
-2.4376
-2.51499
-2.58084
-2.63537
-2.67909
-2.71267
-2.73682
-2.75223
-2.75964
-2.75976
-2.7533
-2.74095
-2.72336
-2.70119
-2.67499
-2.6453
-2.61248
-2.57726
-2.53978
-2.50109
0.787312
0.565404
0.361857
0.172582
-0.00597766
-0.175945
-0.338867
-0.495904
-0.647843
-0.795136
-0.937956
-1.07634
-1.21025
-1.33947
-1.46365
-1.58238
-1.6952
-1.80162
-1.90109
-1.99303
-2.07689
-2.15036
-2.2132
-2.26607
-2.30924
-2.34322
-2.36865
-2.38621
-2.39654
-2.40028
-2.39808
-2.39056
-2.37831
-2.36188
-2.34182
-2.31862
-2.29269
-2.26435
-2.2342
-2.20232
-2.16962
0.728868
0.524142
0.336078
0.161216
-0.00331536
-0.159407
-0.308469
-0.451529
-0.589272
-0.722095
-0.850156
-0.973495
-1.09207
-1.20571
-1.31416
-1.41705
-1.51404
-1.60475
-1.68877
-1.76567
-1.83505
-1.89516
-1.94605
-1.98837
-2.02239
-2.04864
-2.06773
-2.08026
-2.08682
-2.08798
-2.08432
-2.07636
-2.06462
-2.04955
-2.03162
-2.01123
-1.98873
-1.96436
-1.93862
-1.91157
-1.88398
0.678223
0.489135
0.315161
0.15344
0.00169212
-0.141766
-0.278225
-0.408595
-0.533484
-0.653246
-0.76804
-0.877909
-0.982841
-1.0827
-1.17729
-1.26636
-1.34962
-1.42683
-1.49768
-1.56188
-1.61917
-1.66822
-1.70932
-1.74306
-1.76975
-1.78989
-1.80404
-1.81275
-1.81656
-1.81596
-1.81145
-1.80348
-1.79249
-1.77887
-1.763
-1.7452
-1.72578
-1.70492
-1.68303
-1.66014
-1.63692
0.634393
0.459508
0.298344
0.148586
0.00848184
-0.123479
-0.248476
-0.367325
-0.480567
-0.588535
-0.69139
-0.789199
-0.881972
-0.969626
-1.05204
-1.12903
-1.20041
-1.26601
-1.32566
-1.37916
-1.42637
-1.46632
-1.49943
-1.52626
-1.54714
-1.5625
-1.57288
-1.57877
-1.58064
-1.57892
-1.57404
-1.56638
-1.55631
-1.54416
-1.53024
-1.51482
-1.49814
-1.48035
-1.46179
-1.44247
-1.42295
0.596523
0.434508
0.284961
0.146084
0.0165694
-0.104932
-0.219508
-0.327891
-0.430577
-0.527887
-0.619996
-0.706997
-0.788935
-0.86578
-0.937479
-1.00392
-1.065
-1.12064
-1.17074
-1.21522
-1.25402
-1.28645
-1.31302
-1.33427
-1.35048
-1.36208
-1.36955
-1.37333
-1.37382
-1.3714
-1.36644
-1.35926
-1.35017
-1.33943
-1.32732
-1.31404
-1.2998
-1.28471
-1.26905
-1.2528
-1.23647
0.56387
0.413474
0.274439
0.145432
0.0255392
-0.0864552
-0.191555
-0.29043
-0.383543
-0.471215
-0.553642
-0.630952
-0.703228
-0.770497
-0.832765
-0.89
-0.942169
-0.989264
-1.03128
-1.06819
-1.10004
-1.12633
-1.14764
-1.16446
-1.17705
-1.1858
-1.19114
-1.19345
-1.19308
-1.19036
-1.18559
-1.17904
-1.17098
-1.16161
-1.15116
-1.1398
-1.1277
-1.11494
-1.10175
-1.08811
-1.07445
0.535794
0.395843
0.266277
0.146201
0.0350313
-0.0683285
-0.164813
-0.255045
-0.33947
-0.418417
-0.492113
-0.560722
-0.624374
-0.683147
-0.737103
-0.786286
-0.830718
-0.870454
-0.905553
-0.936059
-0.962055
-0.983233
-1.00019
-1.01335
-1.02299
-1.02943
-1.03307
-1.03425
-1.03325
-1.03037
-1.02586
-1.01994
-1.01283
-1.00472
-0.995766
-0.986121
-0.975912
-0.965216
-0.954208
-0.942858
-0.931547
0.511726
0.381114
0.260046
0.148021
0.0447395
-0.0507899
-0.139444
-0.221815
-0.298345
-0.369383
-0.435193
-0.495981
-0.551926
-0.60316
-0.649804
-0.691967
-0.729728
-0.763199
-0.792493
-0.817708
-0.838969
-0.856098
-0.869679
-0.880097
-0.887584
-0.892443
-0.894999
-0.895542
-0.894328
-0.891587
-0.887532
-0.882354
-0.876223
-0.869287
-0.861688
-0.85354
-0.844948
-0.835973
-0.826758
-0.817269
-0.807839
0.491123
0.368802
0.255328
0.150548
0.0543894
-0.0340458
-0.115584
-0.190798
-0.260141
-0.323994
-0.382665
-0.436406
-0.48544
-0.529952
-0.570109
-0.606074
-0.637967
-0.665943
-0.690154
-0.710735
-0.727842
-0.741394
-0.751967
-0.759906
-0.76542
-0.768783
-0.770281
-0.770168
-0.768661
-0.765958
-0.762235
-0.757651
-0.752347
-0.74644
-0.740044
-0.733249
-0.726139
-0.718758
-0.71122
-0.703484
-0.695845
0.47352
0.358452
0.251699
0.15341
0.0636864
-0.0183053
-0.0933608
-0.162045
-0.22483
-0.282135
-0.33432
-0.381694
-0.424534
-0.463081
-0.497556
-0.52818
-0.555122
-0.578576
-0.598724
-0.615728
-0.629763
-0.640811
-0.6494
-0.655821
-0.66025
-0.662917
-0.664059
-0.663885
-0.662573
-0.66028
-0.657151
-0.653312
-0.648876
-0.64394
-0.638595
-0.632914
-0.626965
-0.620785
-0.614467
-0.607978
-0.601565
0.458683
0.34984
0.248908
0.15633
0.07236
-0.00378791
-0.0729119
-0.135607
-0.192382
-0.243698
-0.289961
-0.331535
-0.368743
-0.401867
-0.431154
-0.456848
-0.479147
-0.498269
-0.514427
-0.52781
-0.53861
-0.546867
-0.553095
-0.557555
-0.56041
-0.561867
-0.562137
-0.561403
-0.559817
-0.557515
-0.554613
-0.551218
-0.547418
-0.543289
-0.538898
-0.534304
-0.529554
-0.524673
-0.519731
-0.514686
-0.509761
0.446458
0.342931
0.246986
0.159325
0.0803665
0.00941247
-0.0543292
-0.111514
-0.162738
-0.208543
-0.249395
-0.285708
-0.31787
-0.346247
-0.371177
-0.392958
-0.41182
-0.427977
-0.441634
-0.452969
-0.462168
-0.469289
-0.474763
-0.478792
-0.481504
-0.483059
-0.483623
-0.483336
-0.482316
-0.480664
-0.478474
-0.475828
-0.472798
-0.469444
-0.465825
-0.461988
-0.457976
-0.453812
-0.449557
-0.445184
-0.440867
0.435959
0.336942
0.245408
0.162158
0.0876627
0.0213128
-0.0376248
-0.0898044
-0.135886
-0.176524
-0.21231
-0.243727
-0.271155
-0.294895
-0.315235
-0.332494
-0.346987
-0.359009
-0.368821
-0.376631
-0.382636
-0.386928
-0.389938
-0.391851
-0.392786
-0.392892
-0.392321
-0.391194
-0.389616
-0.387672
-0.385437
-0.382974
-0.380339
-0.377571
-0.37471
-0.371785
-0.368823
-0.365831
-0.362851
-0.359836
-0.35696
0.425678
0.329974
0.242212
0.163156
0.0931067
0.0313167
-0.0230265
-0.0705887
-0.111992
-0.147865
-0.178858
-0.205644
-0.228885
-0.249154
-0.266856
-0.282217
-0.295371
-0.306475
-0.315732
-0.323334
-0.329462
-0.334216
-0.337911
-0.340676
-0.342595
-0.343773
-0.344316
-0.344308
-0.343819
-0.342911
-0.34164
-0.340053
-0.338195
-0.336104
-0.333816
-0.33136
-0.328766
-0.326049
-0.323246
-0.320351
-0.317452
0.416938
0.322918
0.237415
0.161483
0.0954053
0.0382389
-0.0111588
-0.0538011
-0.0905519
-0.122095
-0.14892
-0.17137
-0.189745
-0.204414
-0.215914
-0.224917
-0.231996
-0.237495
-0.241621
-0.244524
-0.246355
-0.247202
-0.247393
-0.247044
-0.246231
-0.245052
-0.243605
-0.241965
-0.240193
-0.238339
-0.236442
-0.234534
-0.232641
-0.230779
-0.228962
-0.227199
-0.2255
-0.223859
-0.222295
-0.220761
-0.219381
0.415694
0.323114
0.238419
0.163288
0.0986253
0.0439582
-0.0017184
-0.0396041
-0.0710102
-0.0972602
-0.119577
-0.138989
-0.156241
-0.171724
-0.185436
-0.197135
-0.206747
-0.214564
-0.220967
-0.226235
-0.230558
-0.234076
-0.236985
-0.239352
-0.241224
-0.24266
-0.243711
-0.244416
-0.244806
-0.244908
-0.244749
-0.244352
-0.243741
-0.242937
-0.24196
-0.240828
-0.239559
-0.23817
-0.236672
-0.235096
-0.233419
0.419259
0.329445
0.246805
0.172653
0.108058
0.0531105
0.00744739
-0.0295086
-0.0585079
-0.0804163
-0.0961552
-0.106669
-0.112942
-0.116009
-0.116998
-0.116938
-0.116266
-0.11504
-0.113272
-0.111033
-0.108422
-0.105479
-0.102425
-0.0993338
-0.0962476
-0.0932141
-0.0902816
-0.087483
-0.0848402
-0.0823652
-0.0800652
-0.0779405
-0.0759885
-0.0742009
-0.0725683
-0.0710805
-0.0697296
-0.068497
-0.0673796
-0.0663353
-0.0654284
0.400638
0.3093
0.2298
0.161525
0.103629
0.0548384
0.0138708
-0.0203927
-0.0489328
-0.0726255
-0.0922571
-0.108533
-0.122067
-0.13338
-0.142853
-0.150832
-0.157611
-0.163107
-0.167682
-0.171733
-0.175482
-0.179059
-0.182429
-0.185574
-0.188524
-0.191303
-0.19392
-0.19638
-0.19869
-0.200862
-0.202907
-0.20484
-0.206671
-0.208418
-0.210091
-0.211707
-0.213272
-0.214804
-0.2163
-0.217808
-0.219225
-15.6312
-14.7168
-14.0445
-13.787
-13.4823
-13.0459
-12.5133
-11.9053
-11.239
-10.5326
-9.79909
-9.04997
-8.29964
-7.56221
-6.84628
-6.15772
-5.50288
-4.88468
-4.30717
-3.77121
-3.27836
-2.82815
-2.42025
-2.05326
-1.72543
-1.43465
-1.1784
-0.954251
-0.759287
-0.590906
-0.446326
-0.32309
-0.218563
-0.130564
-0.0568957
0.0043565
0.0549073
0.0962976
0.129877
0.156792
0.178098
0.19461
0.207111
0.216296
0.222584
0.226619
0.228618
0.229002
0.228036
0.225913
0.222785
0.218875
0.214226
0.208964
0.203145
0.196813
0.190056
0.182819
0.175185
0.167108
0.158624
0.149695
0.140321
0.130486
0.120121
0.10931
0.0977724
0.0860572
0.0727741
0.0610922
0.0436533
0.0371905
0.00395781
0.0297634
-16.3422
-15.4317
-14.622
-14.1876
-13.7771
-13.2769
-12.7003
-12.0593
-11.3666
-10.6396
-9.89289
-9.13389
-8.37143
-7.62111
-6.8936
-6.19501
-5.53148
-4.90594
-4.32221
-3.78116
-3.28411
-2.83056
-2.42003
-2.05104
-1.72174
-1.42994
-1.17305
-0.948543
-0.753465
-0.585149
-0.440781
-0.317845
-0.213691
-0.126096
-0.0528524
0.00797318
0.0581088
0.0991024
0.132307
0.158881
0.179867
0.196089
0.208336
0.217282
0.223371
0.227221
0.229061
0.229312
0.228227
0.226001
0.222788
0.218805
0.214097
0.208784
0.202924
0.196562
0.189779
0.182523
0.174876
0.166791
0.158303
0.149373
0.140002
0.130174
0.119819
0.10902
0.097498
0.0857998
0.0725438
0.0608765
0.0434913
0.0370148
0.00391312
0.0296586
-16.8297
-16.1664
-15.2889
-14.6813
-14.1494
-13.5696
-12.9363
-12.252
-11.5244
-10.7681
-9.99822
-9.22515
-8.45224
-7.68902
-6.94814
-6.23763
-5.56386
-4.92972
-4.33877
-3.79184
-3.28997
-2.83262
-2.41914
-2.04792
-1.71702
-1.42412
-1.16656
-0.941724
-0.746581
-0.578397
-0.434317
-0.311766
-0.208071
-0.120966
-0.0482293
0.012093
0.0617429
0.102276
0.135051
0.161229
0.18185
0.197745
0.2097
0.218381
0.224243
0.227887
0.229552
0.229652
0.228434
0.226096
0.22279
0.218727
0.213953
0.208585
0.202681
0.196286
0.189474
0.1822
0.174538
0.166445
0.157952
0.149023
0.139656
0.129836
0.119491
0.108706
0.0972015
0.0855214
0.0722951
0.0606426
0.0433174
0.0368225
0.00386925
0.0295346
-17.2558
-16.8137
-15.9746
-15.2462
-14.5951
-13.9264
-13.2255
-12.4884
-11.7182
-10.9257
-10.1243
-9.32673
-8.53947
-7.76487
-7.01076
-6.28656
-5.60063
-4.95637
-4.35701
-3.80324
-3.29584
-2.83415
-2.41734
-2.04364
-1.71099
-1.41693
-1.1587
-0.933557
-0.738416
-0.570452
-0.426758
-0.304696
-0.201566
-0.115057
-0.0429259
0.0168007
0.0658808
0.105876
0.138154
0.163875
0.184081
0.199604
0.211225
0.219609
0.225213
0.228626
0.230096
0.230027
0.228661
0.2262
0.22279
0.218638
0.213792
0.208365
0.202414
0.195982
0.18914
0.181846
0.174168
0.166068
0.15757
0.148643
0.13928
0.129468
0.119136
0.108366
0.0968817
0.085221
0.0720274
0.0603899
0.0431314
0.0366128
0.00382718
0.0293891
-17.6003
-17.3423
-16.6215
-15.8442
-15.098
-14.3431
-13.5696
-12.7724
-11.9522
-11.1172
-10.2783
-9.44756
-8.63514
-7.84556
-7.07945
-6.34198
-5.6424
-4.98615
-4.37693
-3.81525
-3.30149
-2.83485
-2.41429
-2.03784
-1.70328
-1.40799
-1.14909
-0.923709
-0.728664
-0.561038
-0.417858
-0.296423
-0.193993
-0.108208
-0.0368058
0.0222128
0.0706202
0.109987
0.141686
0.166877
0.186605
0.201702
0.212941
0.220987
0.226298
0.229453
0.230703
0.230443
0.228913
0.226315
0.22279
0.218542
0.213617
0.208125
0.202122
0.19565
0.188775
0.18146
0.173766
0.165657
0.157156
0.148231
0.138873
0.129071
0.118753
0.107999
0.0965375
0.0848977
0.07174
0.0601176
0.0429333
0.036384
0.00378906
0.0292178
-17.8652
-17.7539
-17.1817
-16.4245
-15.6266
-14.8037
-13.9621
-13.1029
-12.2283
-11.3453
-10.4636
-9.59415
-8.74742
-7.93214
-7.15026
-6.40071
-5.68816
-5.01933
-4.39838
-3.82745
-3.30641
-2.83416
-2.40938
-2.0299
-1.6933
-1.39675
-1.13723
-0.911709
-0.7169
-0.549777
-0.407289
-0.286659
-0.185103
-0.10021
-0.0296917
0.0284769
0.0760839
0.114708
0.145726
0.170302
0.189474
0.204078
0.214881
0.22254
0.227519
0.23038
0.231382
0.230908
0.229195
0.226444
0.222791
0.218435
0.213424
0.20786
0.201801
0.195286
0.188377
0.181038
0.173328
0.165211
0.156706
0.147784
0.138433
0.128642
0.11834
0.107604
0.0961669
0.0845499
0.0714317
0.0598246
0.0427224
0.0361349
0.00375583
0.0290188
-18.0552
-18.0485
-17.6241
-16.9361
-16.1366
-15.2771
-14.3838
-13.4696
-12.5417
-11.609
-10.6811
-9.76875
-8.88252
-8.03221
-7.22412
-6.45859
-5.73393
-5.05363
-4.42084
-3.83924
-3.3098
-2.83117
-2.40176
-2.019
-1.68025
-1.38246
-1.12244
-0.896943
-0.70258
-0.536188
-0.394629
-0.275041
-0.174586
-0.0907993
-0.021362
0.035779
0.0824261
0.120166
0.150381
0.174233
0.192757
0.206789
0.217087
0.224301
0.228899
0.231426
0.232145
0.23143
0.22951
0.226587
0.222793
0.218317
0.21321
0.207568
0.201448
0.194886
0.18794
0.180577
0.17285
0.164723
0.156216
0.147298
0.137955
0.128177
0.117893
0.107178
0.0957676
0.0841756
0.0711008
0.0595093
0.0424976
0.0358642
0.00372747
0.028791
-18.17
-18.2265
-17.9301
-17.336
-16.5781
-15.7196
-14.8016
-13.849
-12.8772
-11.899
-10.9258
-9.96932
-9.04095
-8.15106
-7.30786
-6.51608
-5.77546
-5.08352
-4.44056
-3.84868
-3.31055
-2.82475
-2.39014
-2.0039
-1.66303
-1.36413
-1.10378
-0.878581
-0.684973
-0.51964
-0.379334
-0.261101
-0.162045
-0.0796406
-0.0115367
0.0443504
0.0898373
0.126518
0.155776
0.178773
0.196535
0.209897
0.219607
0.226307
0.230466
0.232609
0.233008
0.232017
0.229865
0.226748
0.222794
0.218186
0.212972
0.207244
0.201057
0.194444
0.187458
0.18007
0.172325
0.16419
0.155681
0.146768
0.137436
0.127673
0.117409
0.106717
0.0953369
0.0837722
0.0707452
0.0591698
0.042258
0.0355704
0.00370402
0.0285329
-18.2166
-18.2955
-18.0896
-17.5941
-16.9039
-16.0812
-15.1703
-14.2045
-13.2068
-12.1951
-11.1839
-10.1871
-9.21759
-8.28725
-7.40541
-6.57915
-5.81253
-5.10431
-4.4516
-3.85116
-3.30497
-2.8128
-2.37295
-1.98301
-1.64
-1.34027
-1.08004
-0.855561
-0.663131
-0.499296
-0.360686
-0.244239
-0.146976
-0.0663124
0.000137686
0.0544852
0.0985582
0.133958
0.16207
0.184048
0.200909
0.213484
0.222505
0.228607
0.232257
0.233958
0.233987
0.232682
0.230266
0.22693
0.222797
0.21804
0.212708
0.206884
0.200624
0.193955
0.186927
0.179511
0.171748
0.163606
0.155096
0.14619
0.13687
0.127125
0.116885
0.106218
0.094872
0.0833374
0.0703631
0.0588042
0.0420022
0.035252
0.00368563
0.0282429
-18.2
-18.2629
-18.1046
-17.6914
-17.0781
-16.3136
-15.4394
-14.4888
-13.4895
-12.4638
-11.4294
-10.4027
-9.39897
-8.43195
-7.5127
-6.64991
-5.85018
-5.11658
-4.44856
-3.84065
-3.28797
-2.79019
-2.34612
-1.95394
-1.60935
-1.30907
-1.04936
-0.82627
-0.635763
-0.474098
-0.33777
-0.223652
-0.1287
-0.0502569
0.0141114
0.0665497
0.10889
0.142735
0.169462
0.190218
0.206005
0.217645
0.225856
0.231258
0.234313
0.235503
0.235105
0.233439
0.230722
0.227136
0.222802
0.217877
0.212413
0.206483
0.200143
0.193412
0.186339
0.178895
0.171113
0.162964
0.154455
0.145558
0.136253
0.126529
0.116315
0.105677
0.0943695
0.0828682
0.0699518
0.0584105
0.0417287
0.0349073
0.00367218
0.0279197
-18.1205
-18.1327
-17.9812
-17.6221
-17.0787
-16.3802
-15.5611
-14.6513
-13.6764
-12.6607
-11.624
-10.5848
-9.56049
-8.56693
-7.61706
-6.72138
-5.88859
-5.12464
-4.43257
-3.81069
-3.2525
-2.75183
-2.30496
-1.91109
-1.56669
-1.26793
-1.0099
-0.788884
-0.600993
-0.442405
-0.309314
-0.198373
-0.106417
-0.0307799
0.0309807
0.0810309
0.121216
0.153147
0.178192
0.197476
0.211978
0.222504
0.229753
0.234329
0.236687
0.237281
0.236388
0.234306
0.231243
0.227372
0.222808
0.217694
0.212082
0.206035
0.199605
0.192808
0.185686
0.178212
0.170411
0.162257
0.153751
0.144866
0.135579
0.125878
0.115695
0.105091
0.0938259
0.0823616
0.0695091
0.0579866
0.0414363
0.0345349
0.0036634
0.0275626
-17.9712
-17.9113
-17.7301
-17.3907
-16.8971
-16.2612
-15.5027
-14.647
-13.7179
-12.7363
-11.721
-10.6913
-9.66614
-8.66284
-7.69574
-6.77702
-5.91763
-5.12604
-4.40758
-3.76413
-3.19316
-2.68878
-2.24356
-1.85089
-1.50743
-1.21092
-0.956892
-0.74067
-0.55715
-0.402646
-0.273595
-0.166798
-0.0788824
-0.00699887
0.0514071
0.0984886
0.136028
0.165611
0.188586
0.206066
0.219011
0.228202
0.234308
0.237907
0.239442
0.239338
0.237866
0.235301
0.231839
0.227642
0.222815
0.217488
0.211708
0.205531
0.199001
0.192133
0.184958
0.177452
0.169633
0.161474
0.152974
0.144104
0.134839
0.125168
0.11502
0.104454
0.0932366
0.0818136
0.0690317
0.0575297
0.0411228
0.0341331
0.00365844
0.0271711
-17.7443
-17.6008
-17.3652
-17.0143
-16.5416
-15.9506
-15.2498
-14.4526
-13.5781
-12.6459
-11.673
-10.6756
-9.67232
-8.68081
-7.71582
-6.79038
-5.91735
-5.10771
-4.36887
-3.70474
-3.11586
-2.60016
-2.1524
-1.76432
-1.42785
-1.13649
-0.886727
-0.675728
-0.499044
-0.351843
-0.229195
-0.127871
-0.044788
0.0225008
0.0765714
0.119728
0.153845
0.18051
0.200988
0.216304
0.227367
0.234936
0.239658
0.242089
0.242649
0.241725
0.239576
0.236448
0.232524
0.227951
0.222823
0.217254
0.211285
0.204961
0.198322
0.191374
0.184143
0.176604
0.168767
0.160607
0.152115
0.143265
0.134027
0.124389
0.114283
0.103761
0.092597
0.0812205
0.0685165
0.0570374
0.0407862
0.0337004
0.00365627
0.0267451
-17.4538
-17.2206
-16.9099
-16.5191
-16.0399
-15.4687
-14.8069
-14.061
-13.2429
-12.3675
-11.4479
-10.4985
-9.53705
-8.57915
-7.63832
-6.72709
-5.85928
-5.04766
-4.30131
-3.62566
-3.0233
-2.49471
-2.03788
-1.6479
-1.3171
-1.03648
-0.798001
-0.595396
-0.425277
-0.284865
-0.170526
-0.0780382
-0.00275173
0.058231
0.107184
0.145838
0.17579
0.198688
0.215893
0.22846
0.23724
0.242891
0.24598
0.247018
0.246407
0.244506
0.241557
0.237772
0.233312
0.228304
0.222831
0.216984
0.2108
0.204313
0.197551
0.190517
0.183226
0.175653
0.1678
0.15964
0.151161
0.142336
0.133131
0.123533
0.113475
0.103003
0.0919009
0.0805771
0.0679591
0.0565061
0.0404238
0.033235
0.003655
0.0262852
-17.131
-16.818
-16.4243
-15.9669
-15.4472
-14.8644
-14.2154
-13.4988
-12.7228
-11.9004
-11.0394
-10.147
-9.23701
-8.32668
-7.42876
-6.55258
-5.71122
-4.9181
-4.18263
-3.51086
-2.90687
-2.37317
-1.91005
-1.51496
-1.18283
-0.907079
-0.679713
-0.492071
-0.336394
-0.206682
-0.100027
-0.014435
0.052539
0.104378
0.144912
0.176868
0.201674
0.220473
0.234074
0.243339
0.249182
0.25234
0.253391
0.252773
0.250802
0.247761
0.243867
0.239305
0.234216
0.228704
0.222833
0.21667
0.210243
0.203571
0.196673
0.189544
0.182189
0.174581
0.166715
0.15856
0.1501
0.141305
0.13214
0.122591
0.112588
0.102175
0.0911422
0.0798783
0.0673555
0.0559328
0.0400327
0.0327357
0.00365242
0.0257925
-16.7172
-16.3525
-15.9111
-15.4103
-14.8528
-14.2363
-13.5632
-12.841
-12.0793
-11.2873
-10.469
-9.62732
-8.77356
-7.92061
-7.07627
-6.24885
-5.45064
-4.69479
-3.98959
-3.34024
-2.75105
-2.22604
-1.76725
-1.37354
-1.04138
-0.766188
-0.542429
-0.363486
-0.22151
-0.108688
-0.0181347
0.0554341
0.11453
0.160308
0.194044
0.218021
0.23468
0.246552
0.254991
0.260469
0.263295
0.263766
0.262374
0.259636
0.255932
0.251516
0.246527
0.241074
0.235256
0.229156
0.222821
0.216296
0.209593
0.202714
0.195666
0.188433
0.181011
0.173369
0.165491
0.157346
0.148911
0.140155
0.13104
0.121548
0.111611
0.101266
0.0903125
0.0791172
0.0666998
0.0553132
0.039609
0.0322005
0.00364497
0.0252691
-16.3924
-15.9966
-15.4982
-14.9228
-14.296
-13.6238
-12.9119
-12.1677
-11.3981
-10.6088
-9.80638
-8.99703
-8.18619
-7.38136
-6.59157
-5.82148
-5.07759
-4.37146
-3.71113
-3.10046
-2.54262
-2.04207
-1.60182