/*--------------------------------*- C++ -*----------------------------------*\
| =========                 |                                                 |
| \\      /  F ield         | OpenFOAM: The Open Source CFD Toolbox           |
|  \\    /   O peration     | Version:  2312                                  |
|   \\  /    A nd           | Website:  www.openfoam.com                      |
|    \\/     M anipulation  |                                                 |
\*---------------------------------------------------------------------------*/
FoamFile
{
    version     2.0;
    format      ascii;
    arch        "LSB;label=32;scalar=64";
    class       surfaceScalarField;
    location    "950";
    object      phi;
}
// * * * * * * * * * * * * * * * * * * * * * * * * * * * * * * * * * * * * * //

dimensions      [0 3 -1 0 0 0 0];

oriented        oriented;

internalField   nonuniform List<scalar> 
21876
(
0.00821603
0.000925263
-0.00914129
0.00235238
0.00586365
-0.000880522
0.0032329
-0.00158535
0.000704826
-0.0014518
-0.00013355
-0.00140633
-4.54753e-05
-0.00135202
-5.43062e-05
-0.00129499
-5.70276e-05
-0.00124773
-4.72683e-05
-0.00121977
-2.79612e-05
-0.00119032
-2.94457e-05
-0.00116398
-2.63491e-05
-0.00114673
-1.72421e-05
-0.00113033
-1.64123e-05
-0.00112203
-8.29929e-06
-0.00111918
-2.86677e-06
-0.00112367
4.49816e-06
-0.00113761
1.39255e-05
-0.00116074
2.31252e-05
-0.00119527
3.45089e-05
-0.00124057
4.5288e-05
-0.00129426
5.36789e-05
-0.00136082
6.65658e-05
-0.001441
8.01802e-05
-0.00153187
9.08571e-05
-0.00162909
9.72111e-05
-0.00172585
9.67483e-05
-0.00181436
8.85076e-05
-0.00188567
7.12995e-05
-0.00192851
4.28328e-05
-0.00193048
1.97353e-06
-0.00188716
-4.33234e-05
-0.00179648
-9.06872e-05
-0.00164997
-0.000146505
-0.0014395
-0.000210471
-0.00116099
-0.000278514
-0.000812418
-0.00034859
-0.000337478
-0.000474941
0.000243291
-0.000580797
0.00059179
-0.000348524
-0.00218835
0.0027801
0.0115542
-0.000642431
-0.00998653
0.010284
0.00713388
0.00499889
0.008518
0.000226458
0.00547725
-0.00158552
0.00167842
-0.00163967
8.67647e-06
-0.00165653
-3.74496e-05
-0.00164027
-7.32792e-05
-0.00161545
-7.20907e-05
-0.00160557
-3.78392e-05
-0.00159261
-4.24043e-05
-0.0015787
-4.02541e-05
-0.0015732
-2.27374e-05
-0.00156878
-2.08358e-05
-0.00157263
-4.44345e-06
-0.00158401
8.50142e-06
-0.00160474
2.52383e-05
-0.00163635
4.55154e-05
-0.00167888
6.56531e-05
-0.00173494
9.05469e-05
-0.00180552
0.00011586
-0.00188702
0.000135169
-0.00198139
0.000160931
-0.00208467
0.000183449
-0.00218988
0.000196047
-0.00229026
0.00019758
-0.00237902
0.000185491
-0.00244901
0.00015849
-0.00249298
0.000115263
-0.00250523
5.50801e-05
-0.00248185
-2.13982e-05
-0.00241315
-0.000112018
-0.00228723
-0.000216596
-0.00209456
-0.000339163
-0.00182625
-0.000478774
-0.0014753
-0.000629465
-0.00103697
-0.000786934
-0.000488776
-0.00102315
0.000231855
-0.00130145
0.000990158
-0.00110684
-0.00364046
0.00244223
0.0132727
-0.00290905
-0.0110061
0.0149901
0.00541647
0.0130052
0.010503
0.00752858
0.0109538
0.00175625
0.00745076
-0.00115178
0.00291671
-0.00170557
0.000516334
-0.00184282
6.39707e-05
-0.00187578
-3.91258e-05
-0.00190849
-5.13328e-06
-0.00192833
-2.25719e-05
-0.00193517
-3.3417e-05
-0.0019473
-1.05974e-05
-0.00195759
-1.05478e-05
-0.00197478
1.27391e-05
-0.00199914
3.2853e-05
-0.00203265
5.87475e-05
-0.00207785
9.07117e-05
-0.00213489
0.000122686
-0.00220624
0.000161885
-0.0022925
0.000202116
-0.00238814
0.000230811
-0.0024944
0.000267196
-0.00260725
0.000296301
-0.00272048
0.000309276
-0.00282826
0.000305356
-0.00292431
0.000281535
-0.0030016
0.000235783
-0.00305242
0.000166079
-0.00306856
7.12191e-05
-0.00304054
-4.9422e-05
-0.00295688
-0.000195681
-0.00280642
-0.000367055
-0.00257762
-0.000567969
-0.00226041
-0.000795985
-0.00184526
-0.00104462
-0.00132576
-0.00130644
-0.000684874
-0.00166403
0.000146197
-0.00213253
0.00109363
-0.00205428
-0.00467613
0.00212929
0.0150632
-0.00553097
-0.0124413
0.0174739
0.00300576
0.0186802
0.0092967
0.0164897
0.0131444
0.0107277
0.0132127
0.00397087
0.00967353
-0.000240742
0.00472795
-0.00160118
0.0014244
-0.00193086
0.000290558
-0.00208356
0.000147569
-0.00218501
7.88699e-05
-0.00224096
2.25388e-05
-0.00228916
3.76047e-05
-0.00232516
2.54548e-05
-0.00236213
4.97187e-05
-0.00240348
7.42034e-05
-0.00245213
0.000107389
-0.00251239
0.000150973
-0.00258451
0.000194802
-0.00267136
0.000248718
-0.00277345
0.000304202
-0.00288428
0.000341632
-0.00300548
0.000388398
-0.0031339
0.000424709
-0.00326412
0.000439484
-0.0033903
0.000431529
-0.00350543
0.000396656
-0.00360113
0.00033147
-0.00366765
0.000232602
-0.00369413
9.76987e-05
-0.00366843
-7.51235e-05
-0.00357766
-0.000286445
-0.00340923
-0.000535491
-0.00314929
-0.000827907
-0.00278605
-0.00115922
-0.0023077
-0.00152297
-0.0017061
-0.00190805
-0.000964693
-0.00240545
-4.09898e-05
-0.00305625
0.00105082
-0.00314612
-0.00553083
0.00190549
0.0169947
-0.00837218
-0.0141535
0.0194774
0.00052307
0.0218879
0.00688616
0.0230831
0.0119492
0.0209832
0.0153126
0.0150589
0.0155978
0.00738446
0.0124024
0.00149916
0.0073097
-0.00114383
0.00293355
-0.00187422
0.000877955
-0.00222619
0.000430837
-0.00241248
0.000208825
-0.00254829
0.000173415
-0.00264258
0.000119753
-0.00271972
0.000126851
-0.00279126
0.000145744
-0.00286322
0.000179347
-0.00294419
0.000231936
-0.00303537
0.000285976
-0.00314137
0.000354709
-0.00326351
0.000426341
-0.00339486
0.000472984
-0.00353783
0.000531366
-0.00369001
0.000576894
-0.00384637
0.000595838
-0.00400051
0.000585671
-0.00414428
0.000540426
-0.00426762
0.000454803
-0.00435867
0.000323651
-0.00440419
0.000143227
-0.0043898
-8.95198e-05
-0.00430055
-0.000375695
-0.00412163
-0.000714416
-0.00383671
-0.00111282
-0.00343198
-0.00156395
-0.00289384
-0.00206112
-0.00221278
-0.00258911
-0.00137101
-0.00324722
-0.000369394
-0.00405787
0.000841621
-0.00435714
-0.00635747
0.00166824
0.0192936
-0.0115192
-0.0161466
0.0220658
-0.00224918
0.0245658
0.00438616
0.0270213
0.0094937
0.0283735
0.0139604
0.0266354
0.017336
0.0208402
0.0181976
0.0124378
0.0157121
0.00463144
0.0107399
0.000120415
0.00538897
-0.00153251
0.00208377
-0.0021881
0.000864405
-0.00256617
0.000551488
-0.0028083
0.000361888
-0.00297989
0.000298443
-0.00311661
0.000282459
-0.0032343
0.000297044
-0.00335091
0.000348536
-0.0034711
0.000406169
-0.00360386
0.000487462
-0.00375283
0.000575309
-0.00391164
0.000631789
-0.00408402
0.000703744
-0.00426848
0.000761343
-0.00446027
0.000787628
-0.00465237
0.000777761
-0.00483541
0.000723459
-0.00499761
0.000616996
-0.005125
0.000451039
-0.00520198
0.000220205
-0.00521171
-7.97921e-05
-0.00513672
-0.000450683
-0.00495961
-0.00089153
-0.00466148
-0.00141096
-0.00422638
-0.00199906
-0.00363964
-0.00264786
-0.00289123
-0.00333754
-0.00196376
-0.00417471
-0.00089875
-0.00512291
0.000403316
-0.00565924
-0.00724362
0.00128943
0.0220514
-0.0150561
-0.0185145
0.0252815
-0.00547929
0.0280033
0.00166434
0.0304878
0.00700922
0.0329605
0.0114877
0.0345939
0.0157026
0.0334968
0.0192948
0.0282651
0.0209438
0.0195226
0.0194824
0.00994869
0.0149629
0.00292053
0.00911193
-0.00054299
0.00432792
-0.00184739
0.00185588
-0.00253881
0.00105331
-0.00296163
0.000721265
-0.0032607
0.000581528
-0.00348272
0.00051906
-0.00367222
0.000538033
-0.00384544
0.00057939
-0.00402099
0.000663005
-0.00420773
0.000762045
-0.00440251
0.000826569
-0.0046125
0.000913734
-0.00483806
0.000986899
-0.00507531
0.00102488
-0.00531677
0.00101922
-0.00555198
0.000958672
-0.00576753
0.000832537
-0.00594732
0.000630827
-0.00607326
0.000346144
-0.0061259
-2.71535e-05
-0.00608491
-0.000491667
-0.00593016
-0.00104629
-0.00564023
-0.00170089
-0.00519722
-0.00244207
-0.00458609
-0.00325899
-0.00379728
-0.00412636
-0.00281682
-0.00515519
-0.00171202
-0.00622772
-0.000368157
-0.00700311
-0.00822141
0.000609611
0.0253932
-0.0191213
-0.0213279
0.02909
-0.00917612
0.0322788
-0.00152449
0.0349662
0.00432183
0.0373854
0.00906851
0.0398376
0.0132503
0.0417916
0.0173408
0.041557
0.0211783
0.037368
0.0236713
0.0289443
0.0233866
0.0181976
0.0198587
0.00831983
0.0142057
0.00200091
0.00817481
-0.000881698
0.00393591
-0.00213693
0.00197649
-0.00289995
0.00134455
-0.00339511
0.00101421
-0.0037645
0.000907419
-0.00405548
0.000870369
-0.00431357
0.00092109
-0.00456153
0.00101001
-0.00480572
0.00107076
-0.00506277
0.00117078
-0.00533817
0.0012623
-0.00563094
0.00131764
-0.00593419
0.00132246
-0.00623682
0.0012613
-0.0065239
0.00111961
-0.00677728
0.000884206
-0.00697637
0.000545231
-0.00709898
9.54536e-05
-0.00712192
-0.000468732
-0.00702226
-0.00114595
-0.0067765
-0.00194665
-0.0063651
-0.00285348
-0.00577328
-0.00385082
-0.00499294
-0.00490671
-0.00401612
-0.00613202
-0.00291662
-0.00732723
-0.00160662
-0.00831314
-0.00927332
-0.000554714
0.0294291
-0.0238839
-0.0246665
0.0336923
-0.0134393
0.0374002
-0.00523238
0.0405603
0.00116165
0.0431847
0.00644417
0.0454923
0.0109427
0.0478514
0.0149817
0.0500603
0.0189694
0.0507714
0.0229603
0.0480516
0.0261064
0.0407967
0.0271135
0.0297338
0.0252686
0.0174963
0.0204123
0.00752722
0.013905
0.00165679
0.00784692
-0.00101991
0.00402125
-0.00236394
0.00235823
-0.00323886
0.00178233
-0.00383804
0.00146954
-0.00429883
0.00138188
-0.00467772
0.00138889
-0.00500765
0.00140069
-0.00533132
0.00149444
-0.00566817
0.00159915
-0.00602595
0.00167541
-0.00640218
0.00169868
-0.00678747
0.00164659
-0.00716656
0.00149869
-0.00751961
0.00123726
-0.00782358
0.000849195
-0.00805353
0.000325404
-0.00818363
-0.000338639
-0.00818832
-0.00114126
-0.00804269
-0.00209229
-0.00772598
-0.0031702
-0.00722407
-0.00435275
-0.00653115
-0.00559963
-0.005646
-0.00701718
-0.00463362
-0.00833963
-0.00345195
-0.00949482
-0.0103288
-0.00239649
0.0342838
-0.029536
-0.0286317
0.0392746
-0.0184301
0.0435794
-0.00953718
0.0472678
-0.00252679
0.0503713
0.00334068
0.0529157
0.00839829
0.0550863
0.0128111
0.0572763
0.0167795
0.0595878
0.0206488
0.0611344
0.0245597
0.0601094
0.0281385
0.0547569
0.0306211
0.0446201
0.0305491
0.0312626
0.0272625
0.0178297
0.0212798
0.0076411
0.0142098
0.00183392
0.00816542
-0.000928992
0.00454524
-0.00245661
0.00299716
-0.00349048
0.00241574
-0.00421912
0.00211753
-0.00475791
0.00193948
-0.00521593
0.00195246
-0.00565043
0.00203364
-0.00609383
0.0021188
-0.00655745
0.0021623
-0.00704002
0.00212915
-0.0075304
0.00198907
-0.00800999
0.00171685
-0.00845507
0.00129427
-0.00883895
0.000709282
-0.0091336
-4.39913e-05
-0.00931098
-0.000963891
-0.00934548
-0.00205779
-0.00921541
-0.00330028
-0.00890731
-0.00466085
-0.00841758
-0.00608937
-0.00775007
-0.0076847
-0.00695205
-0.00913766
-0.00601514
-0.0104317
-0.0112648
-0.00507918
0.0401069
-0.0363053
-0.0333376
0.0460176
-0.0243409
0.05107
-0.0145895
0.0553693
-0.00682617
0.0589968
-0.00028679
0.0620209
0.0053742
0.0644778
0.0103542
0.0665074
0.0147499
0.0684731
0.0186831
0.0706854
0.0223474
0.072776
0.026048
0.0733534
0.0300437
0.0704131
0.0334894
0.0624918
0.0351838
0.0497589
0.0340128
0.0343327
0.029636
0.0196472
0.0228509
0.00883595
0.0153564
0.00263678
0.00919632
-0.000469761
0.00552228
-0.00226162
0.00390938
-0.00340967
0.00308752
-0.00423045
0.00277323
-0.00489697
0.00270016
-0.00550519
0.00272702
-0.00610262
0.00275972
-0.00671331
0.00273984
-0.00734184
0.0026176
-0.00797814
0.00235314
-0.00860279
0.00191892
-0.0091913
0.00129778
-0.00971636
0.000481065
-0.0101497
-0.000530585
-0.0104663
-0.00174112
-0.0106435
-0.00312317
-0.0106673
-0.00463704
-0.0105342
-0.00622249
-0.0102505
-0.0079684
-0.00984076
-0.00954738
-0.00930326
-0.0109692
-0.0119028
-0.00866526
0.0470821
-0.0444648
-0.0389225
0.0541475
-0.0314063
0.0601406
-0.0205826
0.0651953
-0.0118809
0.0694319
-0.00452342
0.0729654
0.00184071
0.075889
0.00743058
0.0782534
0.0123855
0.0801564
0.0167801
0.0818793
0.0206245
0.0838252
0.0241021
0.08609
0.0277789
0.0878621
0.0317173
0.0873702
0.0356757
0.0825947
0.0387883
0.0723803
0.0398505
0.0573215
0.0379097
0.0398544
0.0328235
0.0235616
0.0254891
0.0115083
0.0175756
0.00437475
0.0110429
0.00088841
0.00657385
-0.00107446
0.00473609
-0.00242945
0.00405514
-0.00348003
0.0037776
-0.00438035
0.00366003
-0.00522681
0.0035863
-0.00606793
0.00345871
-0.00691998
0.00320519
-0.00778051
0.00277943
-0.00863626
0.00215353
-0.00946714
0.00131195
-0.0102495
0.000251768
-0.0109637
-0.00102696
-0.0115867
-0.0025001
-0.0121042
-0.00411962
-0.0125086
-0.00581801
-0.0128069
-0.00767014
-0.0129961
-0.00935816
-0.013061
-0.0109043
-0.0120054
-0.0129584
0.0554317
-0.0543437
-0.0455528
0.0639338
-0.0399084
0.071105
-0.0277538
0.0771059
-0.0178818
0.0820945
-0.00951201
0.0862224
-0.00228721
0.089631
0.00402201
0.0924343
0.00958218
0.0947014
0.014513
0.0964967
0.0188292
0.0980092
0.0225895
0.0996337
0.0261544
0.101722
0.0296295
0.104076
0.0333214
0.105534
0.0373299
0.104127
0.0412579
0.0978679
0.0441686
0.0857861
0.0449053
0.0686549
0.0426202
0.0490058
0.0372248
0.030449
0.0295996
0.0171566
0.0198663
0.00906276
0.0128299
0.00460059
0.00851731
0.00200946
0.00636872
0.000219696
0.00544979
-0.00122962
0.0050356
-0.00252629
0.00475537
-0.0037639
0.0044428
-0.00499046
0.00400599
-0.00622715
0.00339021
-0.00747658
0.00256138
-0.00872789
0.00150307
-0.0099733
0.000218442
-0.0111943
-0.00127914
-0.012376
-0.00293791
-0.0135057
-0.00468834
-0.0145927
-0.00658314
-0.0156039
-0.00834692
-0.0165069
-0.0100013
-0.011293
-0.0172193
0.0654251
-0.0663392
-0.0534296
0.0757045
-0.0501877
0.0843411
-0.0363904
0.0915251
-0.0250658
0.097452
-0.0154389
0.102316
-0.00715132
0.106295
4.28264e-05
0.109551
0.00632661
0.112215
0.0118488
0.114372
0.0166719
0.116079
0.0208825
0.117463
0.0247706
0.118804
0.0282891
0.120519
0.0316059
0.122854
0.0349949
0.125386
0.0387258
0.126739
0.0428155
0.124845
0.0468001
0.11771
0.049755
0.104354
0.0505804
0.0854871
0.0484666
0.0650912
0.0402622
0.0460777
0.0318434
0.0307984
0.0237966
0.0200662
0.0171009
0.0132292
0.0122868
0.008977
0.00928777
0.00612563
0.00760672
0.00392029
0.00664813
0.00196736
0.0059589
8.24248e-05
0.00527514
-0.00181019
0.00445398
-0.00373466
0.00342752
-0.00570648
0.00219026
-0.00771874
0.000733111
-0.00976329
-0.000893358
-0.0118223
-0.00262936
-0.0139105
-0.00449491
-0.015963
-0.00629446
-0.01794
-0.00802437
-0.00948871
-0.0197443
0.0773896
-0.080932
-0.0627969
0.089857
-0.0626551
0.100305
-0.0468388
0.10896
-0.0337204
0.116058
-0.0225374
0.12184
-0.0129327
0.126528
-0.00464549
0.130323
0.00253157
0.133401
0.00877059
0.135905
0.014168
0.13794
0.0188477
0.139587
0.0231233
0.140915
0.0269611
0.142088
0.0304336
0.14344
0.0336427
0.145388
0.0367778
0.148089
0.0401139
0.151003
0.0438867
0.152675
0.0480829
0.150996
0.0522594
0.143924
0.0555387
0.131416
0.0527702
0.114597
0.0486627
0.0953715
0.0430217
0.0759348
0.0365376
0.0583045
0.0299171
0.0438285
0.0237637
0.0328936
0.0185416
0.0250518
0.01449
0.0194501
0.0115606
0.0152387
0.0094865
0.0117742
0.00791845
0.00864651
0.00655523
0.00560096
0.0052358
0.00252517
0.00380889
-0.000630841
0.00226264
-0.00387083
0.000610624
-0.00723308
-0.00113267
-0.0106069
-0.00292061
-0.0139433
-0.00468796
-0.00630353
-0.0171285
0.0917213
-0.0987043
-0.0739489
0.106874
-0.0778078
0.119553
-0.0595175
0.130026
-0.0441933
0.13858
-0.0310918
0.145506
-0.0198587
0.151078
-0.0102175
0.155544
-0.00193468
0.159123
0.00519136
0.162
0.0112917
0.164327
0.01652
0.166245
0.0212056
0.16784
0.0253666
0.169167
0.0291063
0.170309
0.0325014
0.171462
0.0356243
0.172989
0.0385873
0.175296
0.0415795
0.178518
0.0448605
0.182125
0.0486529
0.184703
0.0529605
0.184265
0.053208
0.1798
0.0531276
0.170941
0.0518806
0.158081
0.0493973
0.142184
0.0458146
0.124529
0.041419
0.106512
0.0365585
0.0894277
0.0315741
0.074231
0.0267573
0.0613764
0.0223411
0.0508269
0.018468
0.0422147
0.0151674
0.0350059
0.0124446
0.0287659
0.0100489
0.023131
0.0078975
0.0178529
0.00588874
0.0126682
0.00405205
0.00758752
0.00216007
0.00254679
0.000352747
-0.00136909
-0.00238764
0.108895
-0.120362
-0.0872376
0.127336
-0.0962483
0.142752
-0.074934
0.155465
-0.0569062
0.165821
-0.0414481
0.174171
-0.0282088
0.180848
-0.0168939
0.186154
-0.00724103
0.190359
0.000986441
0.193692
0.00795857
0.196348
0.013864
0.198506
0.0190477
0.200305
0.0235676
0.20185
0.0275616
0.203207
0.0311445
0.204423
0.0344079
0.205587
0.0374238
0.206906
0.0402598
0.208745
0.0430217
0.211521
0.0458766
0.215409
0.0490726
0.219529
0.0490886
0.223071
0.0495851
0.225006
0.049946
0.224426
0.0499772
0.22075
0.0494901
0.213806
0.0483633
0.203806
0.0465582
0.191255
0.0441252
0.176839
0.0411733
0.161334
0.0378466
0.14551
0.0342918
0.130036
0.0306413
0.115314
0.0271665
0.101677
0.0236859
0.0892289
0.0203457
0.077929
0.0171887
0.0674356
0.0145455
0.0577749
0.0118207
0.0487179
0.00940971
0.00711902
0.0402298
0.11738
-0.144265
-0.0934764
0.137716
-0.116584
0.15471
-0.091928
0.168711
-0.0709073
0.1801
-0.0528365
0.189259
-0.037368
0.196553
-0.0241882
0.202315
-0.0130033
0.206842
-0.00353999
0.210387
0.00441345
0.213169
0.0110819
0.215385
0.0168314
0.217194
0.0217585
0.218729
0.0260272
0.220094
0.0297787
0.221367
0.0331351
0.222592
0.0361995
0.223802
0.0390493
0.225074
0.0417496
0.226595
0.0443559
0.228695
0.0469725
0.231355
0.0464291
0.234733
0.046207
0.238682
0.0459964
0.242806
0.0458536
0.246546
0.0457503
0.249303
0.0456063
0.250545
0.045316
0.249884
0.0447863
0.247112
0.0439452
0.242202
0.0427562
0.23528
0.0412141
0.226582
0.0393395
0.216352
0.0373964
0.204956
0.0350814
0.192761
0.0325407
0.180122
0.0298277
0.167075
0.0275927
0.154073
0.0248228
0.141187
0.0222955
0.0196213
0.128685
0.124239
-0.170084
-0.0984201
0.146193
-0.138538
0.164535
-0.11027
0.179638
-0.086011
0.191913
-0.0651106
0.201768
-0.0472239
0.209597
-0.0320168
0.215756
-0.0191625
0.220565
-0.00834872
0.224298
0.000679943
0.227193
0.00818717
0.229461
0.014564
0.231273
0.0199463
0.232773
0.0245266
0.234082
0.0284696
0.2353
0.0319181
0.236502
0.0349966
0.237743
0.0378087
0.239048
0.0404444
0.240436
0.0429679
0.241966
0.0454431
0.243483
0.0449116
0.245227
0.0444628
0.247394
0.0438297
0.250122
0.0431254
0.253443
0.0424292
0.257259
0.0417904
0.261354
0.0412212
0.265431
0.0407095
0.269157
0.0402184
0.27221
0.0397036
0.274308
0.0391166
0.275238
0.0384094
0.274852
0.0377816
0.273078
0.0368557
0.269917
0.0357016
0.26544
0.0343048
0.259617
0.0334158
0.252665
0.0317747
0.244659
0.0303013
0.0284615
0.235819
0.131819
-0.197966
-0.103938
0.155516
-0.162236
0.175313
-0.130067
0.19161
-0.102308
0.204847
-0.0783476
0.215466
-0.0578425
0.223886
-0.0404367
0.230491
-0.0257676
0.235624
-0.0134818
0.239582
-0.00327822
0.242621
0.00514878
0.244966
0.0122184
0.246805
0.0181073
0.248293
0.0230386
0.249559
0.0272033
0.250712
0.0307659
0.251839
0.0338691
0.253016
0.0366322
0.254297
0.039163
0.255718
0.041547
0.257292
0.0438692
0.258736
0.0434674
0.26013
0.043069
0.261536
0.0424237
0.263051
0.0416099
0.264793
0.0406878
0.266871
0.0397122
0.269366
0.0387264
0.272307
0.0377685
0.275664
0.0368605
0.279353
0.0360145
0.283242
0.035228
0.287168
0.0344831
0.290973
0.0339769
0.29447
0.0333585
0.297495
0.0326769
0.299912
0.0318876
0.301621
0.031707
0.302519
0.0308762
0.302552
0.0302686
0.0293341
0.30168
0.140128
-0.228067
-0.110026
0.165706
-0.187814
0.187073
-0.151434
0.20466
-0.119895
0.218941
-0.092628
0.230389
-0.069291
0.239456
-0.0495038
0.246554
-0.0328658
0.252052
-0.0189791
0.256268
-0.00749423
0.259477
0.00193895
0.261924
0.00977203
0.263807
0.0162237
0.265296
0.0215496
0.266531
0.0259689
0.267626
0.0296703
0.268679
0.0328167
0.269767
0.0355438
0.270958
0.0379724
0.272304
0.0402004
0.273847
0.0423266
0.275312
0.0420022
0.276751
0.0416299
0.278161
0.0410143
0.279543
0.040227
0.280918
0.0393134
0.282319
0.0383109
0.283797
0.0372484
0.28541
0.0361559
0.287213
0.0350568
0.289255
0.0339729
0.291564
0.0329193
0.294146
0.0319009
0.296998
0.0311246
0.300077
0.0302801
0.303321
0.0294321
0.306658
0.0285512
0.310053
0.0283118
0.313383
0.0275461
0.316588
0.0270639
0.0263565
0.319565
0.149191
-0.260564
-0.116694
0.176798
-0.215421
0.199861
-0.174497
0.218843
-0.138877
0.234253
-0.108038
0.246602
-0.08164
0.256374
-0.0592761
0.264013
-0.0405046
0.269913
-0.0248793
0.274419
-0.012
0.277826
-0.00146826
0.280394
0.00720383
0.282339
0.0142789
0.283842
0.0200472
0.285052
0.0247581
0.286097
0.0286263
0.287077
0.0318364
0.288078
0.0345427
0.289169
0.036881
0.290408
0.0389613
0.291843
0.0408918
0.293218
0.0406271
0.294599
0.0402493
0.29599
0.0396231
0.29739
0.0388274
0.298792
0.0379115
0.300189
0.0369134
0.301579
0.0358588
0.302963
0.0347722
0.304349
0.03367
0.305754
0.0325678
0.307198
0.0314758
0.308702
0.0303971
0.310295
0.0295317
0.311993
0.0285818
0.31381
0.0276151
0.315751
0.0266101
0.317845
0.0262175
0.320066
0.0253256
0.322415
0.0247147
0.023907
0.324864
0.159045
-0.295645
-0.123964
0.188844
-0.245221
0.213739
-0.199391
0.234229
-0.159367
0.250861
-0.124671
0.264187
-0.0949656
0.274726
-0.0698153
0.282955
-0.0487335
0.289298
-0.0312225
0.294125
-0.0168272
0.297755
-0.00509793
0.300465
0.00449396
0.302486
0.0122572
0.304014
0.0185196
0.30521
0.0235626
0.306207
0.0276287
0.307117
0.0309261
0.308031
0.0336288
0.309023
0.0358893
0.310153
0.0378312
0.311471
0.0395739
0.312727
0.0393712
0.313989
0.0389866
0.315271
0.0383412
0.316579
0.0375194
0.317916
0.0365752
0.319278
0.0355508
0.320661
0.0344759
0.322056
0.033377
0.323455
0.0322714
0.324849
0.031174
0.326231
0.0300933
0.327599
0.0290298
0.328954
0.0281757
0.330298
0.0272387
0.331631
0.0262813
0.332961
0.025281
0.334307
0.0248712
0.335667
0.0239655
0.337056
0.0233251
0.0224848
0.338479
0.169736
-0.333517
-0.131863
0.201905
-0.27739
0.22878
-0.226267
0.250901
-0.181487
0.268858
-0.142628
0.283242
-0.10935
0.294615
-0.0811876
0.303487
-0.0576055
0.310315
-0.0380506
0.315496
-0.0220088
0.319374
-0.00897556
0.322245
0.00162277
0.324359
0.010144
0.325922
0.0169559
0.32711
0.0223748
0.328066
0.0266729
0.328908
0.0300836
0.329735
0.0328022
0.330625
0.034999
0.331644
0.0368128
0.332843
0.0383748
0.333977
0.0382368
0.335116
0.0378478
0.336272
0.0371849
0.337455
0.0363367
0.33867
0.0353605
0.339919
0.0343015
0.341203
0.0331921
0.342518
0.0320612
0.343861
0.0309282
0.345226
0.0298096
0.346604
0.0287148
0.347989
0.0276451
0.349377
0.0267874
0.350759
0.0258575
0.352125
0.0249147
0.353471
0.0239353
0.354804
0.0235377
0.356112
0.0226583
0.357397
0.0220396
0.0212246
0.358657
0.181317
-0.374409
-0.140426
0.216049
-0.312121
0.245068
-0.255286
0.268955
-0.205375
0.288348
-0.16202
0.303881
-0.124884
0.316159
-0.0934654
0.325731
-0.0671781
0.33309
-0.0454086
0.338661
-0.0275799
0.342813
-0.0131279
0.345866
-0.00142983
0.348085
0.00792446
0.349695
0.0153457
0.350882
0.0211877
0.351801
0.0257545
0.352578
0.0293068
0.353317
0.0320627
0.354104
0.0342118
0.355009
0.0359086
0.356086
0.0372978
0.357095
0.0372275
0.358107
0.0368355
0.359137
0.0361549
0.360194
0.0352794
0.361285
0.0342697
0.362413
0.0331738
0.363579
0.0320263
0.364782
0.0308578
0.366021
0.029689
0.367294
0.0285374
0.368595
0.0274134
0.369921
0.026319
0.371272
0.0254365
0.372639
0.0244901
0.374017
0.0235373
0.375397
0.0225545
0.37679
0.022145
0.378178
0.0212708
0.379561
0.020656
0.0198524
0.380933
0.19385
-0.418567
-0.149692
0.231357
-0.349628
0.262698
-0.286627
0.288499
-0.231176
0.309448
-0.182969
0.326229
-0.141665
0.339491
-0.106728
0.349827
-0.077514
0.357764
-0.0533458
0.363763
-0.0335784
0.368219
-0.0175837
0.371474
-0.00468508
0.373815
0.00558324
0.375482
0.0136784
0.376676
0.0199944
0.377561
0.0248697
0.378273
0.0285942
0.378925
0.0314107
0.379608
0.033529
0.380395
0.0351213
0.381347
0.0363461
0.382227
0.0363473
0.383109
0.0359535
0.384009
0.0352546
0.384939
0.0343494
0.385907
0.0333024
0.386916
0.0321649
0.387968
0.0309739
0.389064
0.0297618
0.390202
0.0285507
0.391381
0.0273589
0.392596
0.0261976
0.393846
0.0250691
0.395132
0.0241511
0.396446
0.0231761
0.397783
0.0221996
0.39914
0.0211983
0.400524
0.0207603
0.401921
0.0198736
0.403333
0.019244
0.0184333
0.404753
0.207404
-0.466263
-0.159708
0.247916
-0.39014
0.281774
-0.320485
0.309652
-0.259054
0.33229
-0.205607
0.350427
-0.159802
0.364761
-0.121061
0.375929
-0.0886821
0.384499
-0.061916
0.390966
-0.0400456
0.395756
-0.0223741
0.399237
-0.00816595
0.401716
0.0031041
0.403452
0.0119431
0.404658
0.0187882
0.405512
0.0240152
0.406162
0.027945
0.406725
0.030847
0.407301
0.0329532
0.407968
0.0344541
0.408791
0.0355231
0.409538
0.0356003
0.410285
0.0352064
0.411052
0.0344883
0.411851
0.0335504
0.412692
0.0324615
0.41358
0.0312764
0.414519
0.0300349
0.41551
0.0287714
0.416551
0.0275094
0.417641
0.0262685
0.418778
0.0250604
0.419959
0.0238884
0.421185
0.0229255
0.422449
0.0219121
0.423746
0.020902
0.425072
0.0198723
0.426437
0.0193958
0.427824
0.0184867
0.429236
0.017832
0.0170043
0.430665
0.222052
-0.517793
-0.170523
0.265824
-0.433912
0.302412
-0.357073
0.332544
-0.289187
0.357018
-0.230081
0.37663
-0.179413
0.39213
-0.136562
0.404206
-0.100758
0.413469
-0.0711786
0.420451
-0.0470273
0.42561
-0.0275334
0.429341
-0.0118975
0.431976
0.000469405
0.433791
0.0101281
0.435017
0.0175623
0.435845
0.0231876
0.436431
0.0273588
0.436904
0.0303736
0.43737
0.0324877
0.437912
0.0339112
0.438602
0.0348338
0.43921
0.0349917
0.439817
0.0345995
0.440444
0.0338611
0.441107
0.0328873
0.441817
0.0317514
0.442582
0.0305123
0.443404
0.0292126
0.444286
0.027889
0.445229
0.0265669
0.44623
0.025267
0.447288
0.024002
0.448401
0.0227761
0.449569
0.0217578
0.450785
0.0206955
0.452046
0.0196415
0.453344
0.0185734
0.454691
0.0180488
0.45607
0.0171079
0.457483
0.0164193
0.0155663
0.458921
0.237879
-0.57348
-0.182192
0.285188
-0.48122
0.32474
-0.396625
0.357321
-0.321768
0.383791
-0.256551
0.405008
-0.20063
0.421781
-0.153335
0.434849
-0.113826
0.44487
-0.0811991
0.452416
-0.0545739
0.457982
-0.0330996
0.461992
-0.0159075
0.464802
-0.00234022
0.466709
0.00822077
0.467962
0.0163095
0.468766
0.0223842
0.469288
0.0268361
0.469668
0.0299934
0.470019
0.0321372
0.470431
0.0334988
0.47098
0.034285
0.471443
0.0345288
0.471903
0.0341399
0.472383
0.0333803
0.472904
0.032367
0.473476
0.0311789
0.47411
0.0298788
0.474809
0.0285128
0.475578
0.0271202
0.476417
0.0257283
0.477325
0.0243592
0.4783
0.023027
0.479339
0.0217365
0.480445
0.0206521
0.48161
0.0195305
0.482829
0.0184223
0.484097
0.0173058
0.485422
0.016723
0.486789
0.0157411
0.488199
0.0150096
0.0141229
0.489642
0.254975
-0.63368
-0.194775
0.306124
-0.532369
0.348896
-0.439398
0.384141
-0.357012
0.412784
-0.285195
0.435751
-0.223596
0.453912
-0.171496
0.468064
-0.127978
0.478916
-0.0920503
0.487083
-0.0627415
0.493099
-0.0391149
0.497418
-0.0202267
0.500424
-0.00534622
0.502437
0.00620735
0.503725
0.015022
0.504507
0.0216022
0.504965
0.0263779
0.505248
0.0297105
0.505477
0.0319081
0.505751
0.0332249
0.50615
0.0338858
0.506458
0.0342211
0.50676
0.0338376
0.507085
0.0330557
0.507452
0.0319993
0.507878
0.0307533
0.508372
0.029385
0.50894
0.0279444
0.509587
0.0264735
0.510313
0.0250019
0.511119
0.0235534
0.512002
0.0221433
0.512961
0.0207778
0.513996
0.0196168
0.515102
0.0184254
0.516271
0.0172528
0.517499
0.0160782
0.518794
0.0154274
0.52014
0.0143954
0.521537
0.0136123
0.012684
0.522976
0.273438
-0.698781
-0.208337
0.32876
-0.587691
0.375035
-0.485673
0.413178
-0.395155
0.444189
-0.316206
0.469064
-0.248471
0.488742
-0.191174
0.504082
-0.143317
0.515844
-0.103813
0.524695
-0.0715922
0.531206
-0.0456263
0.535869
-0.0248894
0.539095
-0.00857242
0.54123
0.00407253
0.54256
0.0136916
0.543324
0.0208387
0.543715
0.0259862
0.543895
0.0295304
0.543995
0.0318088
0.54412
0.0330999
0.544357
0.0336484
0.544497
0.0340812
0.544629
0.0337056
0.544784
0.0329004
0.544986
0.0317974
0.545252
0.0304878
0.545593
0.029044
0.546017
0.0275203
0.546529
0.0259616
0.54713
0.0244003
0.547822
0.022862
0.548601
0.0213635
0.549467
0.0199123
0.55042
0.0186641
0.551453
0.0173925
0.55256
0.0161456
0.553735
0.0149033
0.554987
0.0141749
0.556299
0.013084
0.55767
0.0122408
0.0112631
0.559091
0.293377
-0.769209
-0.22295
0.353238
-0.647552
0.403324
-0.535759
0.444624
-0.436455
0.478217
-0.349799
0.505176
-0.275429
0.526513
-0.212512
0.543152
-0.159957
0.555915
-0.116576
0.565518
-0.0811953
0.572578
-0.0526858
0.577622
-0.0299337
0.581095
-0.0120454
0.583368
0.00179938
0.584751
0.0123091
0.585498
0.0200914
0.585821
0.0256636
0.585891
0.02946
0.58585
0.0318497
0.585813
0.0331373
0.585873
0.0335884
0.585828
0.0341253
0.585773
0.0337606
0.585742
0.0329316
0.585761
0.0317785
0.585849
0.0303996
0.58602
0.0288731
0.586283
0.0272575
0.586643
0.0256017
0.587103
0.0239405
0.587663
0.022302
0.588322
0.0207045
0.589077
0.0191569
0.58993
0.0178109
0.590874
0.0164489
0.591902
0.0151178
0.593007
0.0137983
0.594199
0.0129826
0.595458
0.0118244
0.596787
0.0109128
0.0098782
0.598171
0.314909
-0.845431
-0.238688
0.379709
-0.712352
0.433947
-0.589997
0.478689
-0.481197
0.515099
-0.386209
0.544335
-0.304665
0.567488
-0.235665
0.585554
-0.178022
0.599417
-0.130439
0.609849
-0.0916279
0.617515
-0.060352
0.622984
-0.0354024
0.626734
-0.0157947
0.629164
-0.000630878
0.630608
0.0108649
0.631341
0.0193579
0.631591
0.025414
0.631543
0.0295085
0.631348
0.0320441
0.631132
0.0333537
0.630994
0.0337257
0.630746
0.034374
0.630483
0.0340238
0.630243
0.033171
0.630057
0.0319648
0.629945
0.0305112
0.629924
0.0288946
0.630003
0.0271788
0.630188
0.0254162
0.630483
0.0236452
0.630889
0.0218958
0.631405
0.0201887
0.632028
0.0185343
0.632759
0.0170797
0.633591
0.015617
0.634517
0.0141917
0.635529
0.0127858
0.636639
0.0118731
0.637824
0.010639
0.639087
0.00965057
0.00855166
0.640413
0.338162
-0.927959
-0.255633
0.408342
-0.782532
0.467105
-0.648759
0.515603
-0.529695
0.555091
-0.425698
0.586818
-0.336392
0.611961
-0.260807
0.631592
-0.197654
0.646666
-0.145512
0.658013
-0.102976
0.666351
-0.0686899
0.672292
-0.0413432
0.676351
-0.0198536
0.678959
-0.00323922
0.680476
0.00934824
0.681198
0.018636
0.681369
0.0252424
0.681191
0.0296867
0.680827
0.0324082
0.680411
0.0337698
0.680052
0.0340843
0.679574
0.0348523
0.679076
0.0345214
0.678602
0.0336454
0.678183
0.0323835
0.677844
0.0308501
0.677602
0.0291365
0.677469
0.027312
0.677452
0.0254333
0.677555
0.0235423
0.677779
0.0216718
0.678123
0.0198444
0.678585
0.0180725
0.679166
0.0164988
0.679858
0.0149251
0.680654
0.0133958
0.681546
0.0118939
0.682544
0.0108745
0.683627
0.00955609
0.684795
0.00848247
0.00731174
0.686035
0.363274
-1.01736
-0.273874
0.439319
-0.858578
0.503019