/*--------------------------------*- C++ -*----------------------------------*\
| =========                 |                                                 |
| \\      /  F ield         | OpenFOAM: The Open Source CFD Toolbox           |
|  \\    /   O peration     | Version:  2312                                  |
|   \\  /    A nd           | Website:  www.openfoam.com                      |
|    \\/     M anipulation  |                                                 |
\*---------------------------------------------------------------------------*/
FoamFile
{
    version     2.0;
    format      ascii;
    arch        "LSB;label=32;scalar=64";
    class       volScalarField;
    location    "950";
    object      turbulenceProperties:k;
}
// * * * * * * * * * * * * * * * * * * * * * * * * * * * * * * * * * * * * * //

dimensions      [0 2 -2 0 0 0 0];

internalField   nonuniform List<scalar> 
11040
(
0.403178
0.441631
0.0705659
0.0464308
0.275192
0.283437
0.268784
0.245386
0.221091
0.205781
0.191472
0.17904
0.168838
0.161006
0.154703
0.151519
0.151289
0.154192
0.159777
0.167959
0.179037
0.192682
0.208898
0.22793
0.249818
0.275495
0.304165
0.331741
0.355711
0.373177
0.3811
0.376885
0.361445
0.340025
0.321555
0.252372
0.131859
0.081038
0.0338447
0.111955
0.219319
0.033675
0.0696735
0.235507
0.423194
0.813998
0.272152
0.0845753
0.0289861
0.00748117
0.00581143
0.013821
0.018366
0.0213629
0.0235013
0.0248941
0.0262355
0.0279068
0.029908
0.0319592
0.0340555
0.0362552
0.0386576
0.0406126
0.0414131
0.0408518
0.0397125
0.0383708
0.0358527
0.032203
0.0280059
0.0245928
0.0237233
0.0239788
0.0269065
0.0331763
0.0428882
0.0566399
0.0744697
0.118915
0.136111
0.54819
0.0207519
0.0185671
0.0411319
0.177542
0.944126
1.26963
0.658884
0.249651
0.117527
0.0702578
0.0395774
0.0225821
0.0109212
0.00316613
0.00330174
0.00695999
0.00960904
0.0115795
0.0130221
0.0140146
0.0146683
0.0149905
0.0146114
0.0133878
0.0115825
0.00956183
0.00746144
0.00505989
0.00202198
0.00354075
0.0107254
0.0212892
0.0355916
0.0539707
0.0771011
0.106363
0.143196
0.185109
0.275988
0.360514
0.524625
0.0149111
0.012768
0.0105712
0.0164458
0.225711
1.09428
1.63737
1.10135
0.460642
0.247753
0.147027
0.0988957
0.0695546
0.0494976
0.0368566
0.027958
0.022482
0.0189412
0.0169906
0.016307
0.0164674
0.0174383
0.0193547
0.0220515
0.0248922
0.0273413
0.0289666
0.0294452
0.0288268
0.0284002
0.0316654
0.0427124
0.0628888
0.092599
0.13234
0.184147
0.250323
0.326094
0.463041
0.636659
0.570752
0.0111052
0.0100153
0.0106717
0.00533813
0.00712138
0.201077
1.04072
1.84969
1.59277
0.800817
0.423574
0.256272
0.177366
0.128217
0.0995903
0.0794248
0.0671115
0.0589325
0.0540852
0.0517179
0.0508743
0.0512027
0.0527811
0.0555253
0.0586234
0.0613878
0.063201
0.0635078
0.0621399
0.0600655
0.0607587
0.0708676
0.0963469
0.138882
0.198413
0.276903
0.377327
0.494696
0.667679
0.936151
0.758548
0.00801407
0.0073587
0.00716194
0.0079281
0.00243647
0.00174404
0.13594
0.833482
1.8781
2.03086
1.31924
0.674609
0.418527
0.281681
0.20887
0.161953
0.134236
0.116267
0.105169
0.0992181
0.0962402
0.0953429
0.0963216
0.0990939
0.102623
0.105998
0.108248
0.108338
0.105556
0.100376
0.0962758
0.102502
0.131126
0.187045
0.269249
0.378493
0.517625
0.681903
0.885802
1.22969
1.04426
0.00578878
0.00553254
0.00519473
0.00553349
0.005721
0.00109385
4.86458e-05
0.0637416
0.559217
1.63704
2.28595
1.92063
1.12121
0.638825
0.429582
0.315687
0.247415
0.204607
0.178325
0.16392
0.156154
0.152936
0.153104
0.156234
0.160764
0.165354
0.168518
0.168525
0.163802
0.153961
0.14176
0.13795
0.162773
0.229099
0.334771
0.477013
0.656721
0.868347
1.10276
1.49063
1.36566
0.004225
0.00413119
0.0040688
0.00390906
0.00423126
0.0044361
0.000204195
2.485e-06
0.0198234
0.301161
1.18114
2.228
2.40883
1.75998
1.02032
0.640413
0.458469
0.358464
0.296391
0.259725
0.239109
0.230138
0.228009
0.231294
0.237324
0.243979
0.248979
0.249598
0.24289
0.227171
0.203305
0.180589
0.186579
0.252568
0.378401
0.552953
0.771664
1.02568
1.29073
1.68152
1.65323
0.00312087
0.00307688
0.00308276
0.00305727
0.00293771
0.00332061
0.00317682
0.000428853
0.000391322
0.000814851
0.115678
0.679167
1.76961
2.57023
2.40346
1.65107
0.993578
0.668011
0.505546
0.415904
0.364039
0.339277
0.330004
0.331474
0.338708
0.347703
0.355086
0.357121
0.349431
0.32801
0.290633
0.241148
0.204375
0.241157
0.375454
0.577815
0.830176
1.11723
1.40678
1.76862
1.83234
0.00231802
0.00229752
0.00231427
0.00233936
0.00231989
0.00224903
0.00253017
0.00226892
0.000728057
9.97285e-05
0.00182245
0.026004
0.294834
1.10382
2.22157
2.75522
2.38636
1.62253
1.02402
0.724183
0.578618
0.508185
0.476369
0.468031
0.473204
0.484913
0.496883
0.502339
0.494864
0.468847
0.419235
0.342664
0.246495
0.188908
0.293562
0.515884
0.794544
1.10297
1.40472
1.72117
1.84505
0.00172914
0.00171959
0.00173689
0.00176419
0.00178909
0.0017727
0.00174886
0.00187029
0.00185443
0.000970629
6.67722e-05
0.000342303
0.000300358
0.0797104
0.504635
1.46211
2.51618
2.87008
2.42116
1.68085
1.11381
0.835887
0.719905
0.672957
0.659626
0.665405
0.679238
0.690554
0.689721
0.667114
0.613245
0.519991
0.383151
0.205471
0.0965193
0.331982
0.632959
0.951859
1.25046
1.51413
1.65815
0.00129248
0.00128861
0.00130106
0.00132586
0.00135194
0.00137271
0.00136836
0.00135473
0.00140098
0.00145649
0.00108005
3.16643e-05
2.01362e-05
0.00138229
0.0102536
0.15136
0.688445
1.70216
2.69104
2.97816
2.53897
1.8694
1.35927
1.08277
0.965361
0.931455
0.931674
0.940229
0.943284
0.92851
0.884209
0.799662
0.667879
0.488449
0.279049
0.193824
0.418853
0.712645
0.98166
1.18383
1.29987
0.000966635
0.000965797
0.000974154
0.000993133
0.00101682
0.00103935
0.00105726
0.00106175
0.00105428
0.00106751
0.00112951
0.000974743
0.000229177
2.33127e-05
0.000148089
0.00286028
0.0211583
0.206117
0.79021
1.80409
2.7757
3.11698
2.84806
2.35115
1.88613
1.56144
1.38321
1.31124
1.29492
1.28929
1.2652
1.2073
1.1104
0.979917
0.836094
0.722064
0.70088
0.791824
0.928988
1.02324
1.03283
0.000722348
0.000723153
0.000728538
0.000742243
0.000761424
0.000781856
0.000800923
0.000817047
0.000825894
0.00082435
0.00082548
0.000869404
0.00083928
0.000478725
6.6196e-06
3.35523e-06
0.000359069
0.00432179
0.0287312
0.222065
0.790256
1.72613
2.65672
3.20694
3.28948
3.07306
2.74573
2.41849
2.14816
1.95489
1.8324
1.75744
1.70183
1.64652
1.59002
1.54303
1.52207
1.53428
1.57272
1.59961
1.50327
0.000538609
0.000540247
0.000543691
0.000553415
0.000568101
0.000584948
0.000602128
0.000618415
0.00063283
0.000643432
0.000646099
0.000647435
0.000669201
0.000675675
0.00059096
0.000166474
1.94269e-05
3.22313e-07
0.000612809
0.00443131
0.0263602
0.180334
0.586896
1.28286
2.13303
2.90666
3.43167
3.67388
3.69942
3.58716
3.39224
3.15628
2.91926
2.71817
2.57992
2.51577
2.5232
2.57778
2.65062
2.7232
2.6535
0.000400272
0.000402152
0.000404359
0.000411186
0.000422132
0.000435266
0.000449356
0.000463729
0.000477634
0.000490294
0.000500814
0.000506572
0.000510505
0.000515951
0.00054047
0.000507357
0.000392565
2.79645e-05
6.67002e-06
7.23846e-08
0.000684308
0.00293278
0.0092487
0.0731351
0.264416
0.647936
1.23185
1.95163
2.69862
3.3712
3.90616
4.27855
4.49131
4.5656
4.53706
4.44616
4.33431
4.22951
4.15844
4.1567
4.08508
0.000297001
0.000298754
0.000300221
0.000305044
0.000313099
0.000323007
0.000333988
0.00034561
0.000357457
0.000368997
0.000379756
0.000389221
0.000396658
0.000401044
0.000406867
0.000416601
0.000430823
0.000380316
0.000231159
6.69856e-06
3.53632e-06
4.83405e-08
0.000205626
0.00146933
3.25083e-05
0.00951985
0.0527735
0.169281
0.401399
0.774061
1.28798
1.91642
2.6134
3.32738
4.00895
4.61285
5.11217
5.49443
5.77041
5.99183
6.05557
0.000222505
0.000224056
0.000225164
0.000228759
0.000234829
0.000242386
0.000250896
0.000260102
0.000269707
0.000279397
0.000288839
0.000297765
0.000305945
0.000313041
0.000318298
0.000322949
0.000328738
0.000341754
0.000343819
0.000296355
0.000160707
4.57309e-06
2.96036e-06
1.74589e-07
4.39416e-07
0.000225545
0.00117802
0.0019246
0.00073859
0.00907237
0.0420885
0.12215
0.27351
0.519789
0.875153
1.34107
1.90609
2.55263
3.24812
3.97721
4.63114
0.000169818
0.000171183
0.000172087
0.000174876
0.000179566
0.000185437
0.000192129
0.00019949
0.000207322
0.000215384
0.000223446
0.000231299
0.000238762
0.000245732
0.000251974
0.000257381
0.000261413
0.000266268
0.000272956
0.000282014
0.000279161
0.000234464
0.000156914
1.67539e-05
4.03684e-06
9.63288e-07
8.19267e-08
0
9.3301e-06
0.000194975
0.00095154
0.00141622
7.86748e-06
0.00117172
0.00798277
0.0328369
0.087664
0.187988
0.347672
0.580572
0.88927
0.00013199
0.000133146
0.000133895
0.000136096
0.000139768
0.000144377
0.000149669
0.000155541
0.00016187
0.00016848
0.000175219
0.000181951
0.000188532
0.000194834
0.000200752
0.00020622
0.000211091
0.000215265
0.000218897
0.000223523
0.000229942
0.000235412
0.000234424
0.000207533
0.00015578
9.5566e-05
8.86434e-06
2.70031e-06
8.07901e-07
4.29248e-07
2.06093e-08
0
1.63419e-07
1.71727e-05
0.000162742
0.000748391
0.00119797
0.000920019
0.00075022
0.000273662
0.00563497
0.000103981
0.000104938
0.000105566
0.000107328
0.000110237
0.000113892
0.00011811
0.000122818
0.000127922
0.000133303
0.000138847
0.000144466
0.000150065
0.000155545
0.000160819
0.000165812
0.000170478
0.000174754
0.000178555
0.000181908
0.000185081
0.000189232
0.000193891
0.000199885
0.000199599
0.000193629
0.000171762
0.000135619
9.33975e-05
5.21858e-05
2.71595e-06
1.50486e-06
6.21769e-07
4.137e-07
2.22234e-07
2.85369e-08
0
0
0
1.93688e-06
9.14667e-05
8.28029e-05
8.35884e-05
8.4125e-05
8.55538e-05
8.78811e-05
9.08051e-05
9.41913e-05
9.79835e-05
0.000102112
0.000106486
0.000111023
0.000115657
0.000120324
0.000124949
0.00012947
0.000133828
0.000137973
0.000141867
0.00014548
0.0001488
0.000151688
0.00015429
0.000156765
0.000159842
0.000163528
0.000167062
0.000171127
0.000171587
0.000166972
0.00015886
0.000141551
0.000116855
8.89609e-05
6.12368e-05
3.47043e-05
4.79011e-06
1.40165e-06
4.73833e-07
3.63788e-07
2.61361e-07
1.66034e-07
6.65049e-05
6.71464e-05
6.76102e-05
6.8779e-05
7.06544e-05
7.30096e-05
7.57432e-05
7.88107e-05
8.21562e-05
8.5712e-05
8.9414e-05
9.32145e-05
9.7065e-05
0.00010091
0.0001047
0.000108391
0.000111943
0.000115321
0.000118495
0.000121463
0.000124142
0.000126508
0.00012861
0.000130426
0.000132185
0.000133971
0.000136164
0.00013874
0.000141332
0.000143414
0.000145629
0.000145695
0.000143299
0.000138365
0.000131538
0.000120567
0.000106043
8.88722e-05
7.09306e-05
5.3039e-05
3.56165e-05
5.37882e-05
5.43114e-05
5.47161e-05
5.56795e-05
5.72006e-05
5.91088e-05
6.13267e-05
6.38173e-05
6.65354e-05
6.94285e-05
7.24469e-05
7.55523e-05
7.87084e-05
8.18728e-05
8.50058e-05
8.80733e-05
9.10435e-05
9.38872e-05
9.65773e-05
9.91078e-05
0.000101408
0.000103464
0.000105317
0.00010691
0.000108265
0.000109427
0.000110437
0.000111384
0.000112374
0.000113391
0.000114572
0.000115874
0.000117137
0.000118232
0.000118988
0.000119715
0.000119702
0.000118641
0.000116498
0.000113093
0.000109382
4.37514e-05
4.41782e-05
4.45336e-05
4.53327e-05
4.6573e-05
4.81265e-05
4.99333e-05
5.19618e-05
5.41748e-05
5.65307e-05
5.89903e-05
6.15226e-05
6.40994e-05
6.66873e-05
6.92546e-05
7.17736e-05
7.42185e-05
7.65649e-05
7.87897e-05
8.08862e-05
8.27915e-05
8.44933e-05
8.60268e-05
8.735e-05
8.8472e-05
8.94146e-05
9.01862e-05
9.07937e-05
9.12553e-05
9.15947e-05
9.1828e-05
9.19949e-05
9.2123e-05
9.22431e-05
9.23478e-05
9.24665e-05
9.25881e-05
9.27036e-05
9.28037e-05
9.27376e-05
9.27782e-05
3.57546e-05
3.61034e-05
3.64174e-05
3.70839e-05
3.81003e-05
3.93708e-05
4.08482e-05
4.25051e-05
4.43106e-05
4.62313e-05
4.82356e-05
5.02984e-05
5.23965e-05
5.45032e-05
5.65932e-05
5.86438e-05
6.0634e-05
6.25432e-05
6.4352e-05
6.60535e-05
6.75941e-05
6.89646e-05
7.01954e-05
7.12483e-05
7.21302e-05
7.2859e-05
7.34447e-05
7.38931e-05
7.42098e-05
7.4403e-05
7.44789e-05
7.44454e-05
7.43089e-05
7.40839e-05
7.37847e-05
7.34158e-05
7.29846e-05
7.25105e-05
7.20276e-05
7.149e-05
7.1031e-05
2.93324e-05
2.96186e-05
2.98973e-05
3.04563e-05
3.12935e-05
3.2337e-05
3.35492e-05
3.49062e-05
3.63821e-05
3.79496e-05
3.95831e-05
4.12621e-05
4.29673e-05
4.46769e-05
4.63704e-05
4.80293e-05
4.96361e-05
5.1174e-05
5.26264e-05
5.39872e-05
5.52111e-05
5.62927e-05
5.72595e-05
5.80781e-05
5.87524e-05
5.92969e-05
5.97204e-05
6.00284e-05
6.02276e-05
6.03252e-05
6.03284e-05
6.02443e-05
6.00771e-05
5.98353e-05
5.95275e-05
5.91563e-05
5.87239e-05
5.82384e-05
5.77253e-05
5.71393e-05
5.66355e-05
2.41403e-05
2.43765e-05
2.46252e-05
2.50969e-05
2.579e-05
2.66509e-05
2.7649e-05
2.87634e-05
2.99722e-05
3.12531e-05
3.25851e-05
3.39512e-05
3.53351e-05
3.67192e-05
3.80866e-05
3.94221e-05
4.07115e-05
4.19406e-05
4.30957e-05
4.41718e-05
4.5131e-05
4.5971e-05
4.67173e-05
4.73413e-05
4.78455e-05
4.82419e-05
4.8538e-05
4.87387e-05
4.88497e-05
4.88776e-05
4.88289e-05
4.87104e-05
4.85265e-05
4.82851e-05
4.79936e-05
4.7655e-05
4.72713e-05
4.68487e-05
4.64088e-05
4.59105e-05
4.54901e-05
1.99188e-05
2.01154e-05
2.03386e-05
2.07394e-05
2.13164e-05
2.203e-05
2.28548e-05
2.37726e-05
2.47647e-05
2.58128e-05
2.68996e-05
2.80108e-05
2.91331e-05
3.02518e-05
3.13528e-05
3.2424e-05
3.34536e-05
3.443e-05
3.5342e-05
3.61853e-05
3.69288e-05
3.75728e-05
3.81406e-05
3.86083e-05
3.89774e-05
3.92584e-05
3.94576e-05
3.95793e-05
3.96285e-05
3.96109e-05
3.9532e-05
3.93977e-05
3.92119e-05
3.89812e-05
3.87119e-05
3.84067e-05
3.80674e-05
3.76988e-05
3.73191e-05
3.68954e-05
3.65336e-05
1.64699e-05
1.66354e-05
1.68372e-05
1.71803e-05
1.76638e-05
1.82581e-05
1.89424e-05
1.97005e-05
2.05166e-05
2.13756e-05
2.22632e-05
2.31673e-05
2.4077e-05
2.49801e-05
2.58648e-05
2.67214e-05
2.75404e-05
2.83124e-05
2.9028e-05
2.96841e-05
3.02553e-05
3.07435e-05
3.11701e-05
3.15152e-05
3.17801e-05
3.19735e-05
3.2101e-05
3.21665e-05
3.21741e-05
3.21287e-05
3.2035e-05
3.1898e-05
3.17209e-05
3.15092e-05
3.12682e-05
3.09999e-05
3.07061e-05
3.03902e-05
3.00673e-05
2.97115e-05
2.94036e-05
1.36404e-05
1.3782e-05
1.39659e-05
1.42621e-05
1.46699e-05
1.51677e-05
1.57378e-05
1.63661e-05
1.70392e-05
1.77446e-05
1.84704e-05
1.92064e-05
1.99437e-05
2.06722e-05
2.13822e-05
2.20656e-05
2.27151e-05
2.3323e-05
2.38817e-05
2.4389e-05
2.48243e-05
2.51906e-05
2.55075e-05
2.57582e-05
2.5944e-05
2.60723e-05
2.61481e-05
2.61747e-05
2.61555e-05
2.60947e-05
2.59962e-05
2.58643e-05
2.57015e-05
2.55123e-05
2.53009e-05
2.50693e-05
2.48186e-05
2.45516e-05
2.42804e-05
2.39849e-05
2.37259e-05
1.1311e-05
1.14345e-05
1.16035e-05
1.18614e-05
1.2208e-05
1.26274e-05
1.31046e-05
1.36273e-05
1.41842e-05
1.47649e-05
1.53594e-05
1.59592e-05
1.6557e-05
1.71445e-05
1.77138e-05
1.82582e-05
1.87721e-05
1.92493e-05
1.96839e-05
2.00741e-05
2.04037e-05
2.06761e-05
2.0909e-05
2.10886e-05
2.12158e-05
2.12972e-05
2.1337e-05
2.13381e-05
2.13032e-05
2.1236e-05
2.11395e-05
2.10174e-05
2.08717e-05
2.07059e-05
2.05236e-05
2.03261e-05
2.01146e-05
1.98909e-05
1.96651e-05
1.94215e-05
1.9204e-05
9.38784e-06
9.49795e-06
9.65431e-06
9.88092e-06
1.01779e-05
1.05335e-05
1.09351e-05
1.13719e-05
1.18344e-05
1.23137e-05
1.28019e-05
1.32915e-05
1.37766e-05
1.42507e-05
1.4707e-05
1.51402e-05
1.55461e-05
1.59197e-05
1.62565e-05
1.65552e-05
1.68031e-05
1.70037e-05
1.71727e-05
1.72988e-05
1.7383e-05
1.74307e-05
1.74458e-05
1.74304e-05
1.73872e-05
1.73188e-05
1.72281e-05
1.71178e-05
1.69897e-05
1.68465e-05
1.6691e-05
1.65244e-05
1.63475e-05
1.61615e-05
1.59749e-05
1.57752e-05
1.55934e-05
7.7961e-06
7.89648e-06
8.04218e-06
8.24315e-06
8.49972e-06
8.80337e-06
9.1434e-06
9.51031e-06
9.89604e-06
1.02933e-05
1.06953e-05
1.1096e-05
1.14904e-05
1.18732e-05
1.22392e-05
1.2584e-05
1.29043e-05
1.31965e-05
1.34571e-05
1.36852e-05
1.3871e-05
1.40178e-05
1.41396e-05
1.4227e-05
1.4281e-05
1.43061e-05
1.43056e-05
1.42814e-05
1.42356e-05
1.41704e-05
1.40881e-05
1.39909e-05
1.38802e-05
1.37581e-05
1.3627e-05
1.34876e-05
1.33407e-05
1.3187e-05
1.30334e-05
1.28707e-05
1.27178e-05
6.47611e-06
6.56958e-06
6.70612e-06
6.88597e-06
7.10963e-06
7.37093e-06
7.66073e-06
7.97076e-06
8.2942e-06
8.62493e-06
8.95726e-06
9.28625e-06
9.60764e-06
9.91744e-06
1.02114e-05
1.04859e-05
1.07385e-05
1.09666e-05
1.11676e-05
1.13409e-05
1.14789e-05
1.15848e-05
1.16708e-05
1.17294e-05
1.17611e-05
1.17702e-05
1.17593e-05
1.17302e-05
1.16843e-05
1.16237e-05
1.15501e-05
1.14653e-05
1.13705e-05
1.12672e-05
1.11573e-05
1.10415e-05
1.09203e-05
1.07941e-05
1.06686e-05
1.05365e-05
1.04096e-05
5.3798e-06
5.46844e-06
5.597e-06
5.75933e-06
5.95609e-06
6.1828e-06
6.43163e-06
6.69538e-06
6.96823e-06
7.24506e-06
7.52114e-06
7.79238e-06
8.0553e-06
8.30676e-06
8.54349e-06
8.76264e-06
8.96243e-06
9.14107e-06
9.29668e-06
9.42905e-06
9.5323e-06
9.60926e-06
9.67058e-06
9.70995e-06
9.72803e-06
9.72826e-06
9.71292e-06
9.68334e-06
9.64086e-06
9.58701e-06
9.52323e-06
9.45091e-06
9.37101e-06
9.28477e-06
9.19361e-06
9.09804e-06
8.99854e-06
8.89524e-06
8.79282e-06
8.68626e-06
8.57802e-06
4.46827e-06
4.55358e-06
4.67503e-06
4.82276e-06
4.99744e-06
5.19584e-06
5.41117e-06
5.63719e-06
5.86891e-06
6.10205e-06
6.33267e-06
6.5574e-06
6.77338e-06
6.97816e-06
7.16922e-06
7.34431e-06
7.50212e-06
7.64145e-06
7.761e-06
7.86072e-06
7.93624e-06
7.99007e-06
8.03152e-06
8.05541e-06
8.06241e-06
8.05546e-06
8.03653e-06
8.00674e-06
7.96719e-06
7.9191e-06
7.86366e-06
7.80196e-06
7.73474e-06
7.66295e-06
7.58768e-06
7.50929e-06
7.42823e-06
7.34434e-06
7.26173e-06
7.17557e-06
7.08769e-06
3.70998e-06
3.79291e-06
3.90796e-06
4.04344e-06
4.19995e-06
4.37501e-06
4.5628e-06
4.75789e-06
4.95604e-06
5.15366e-06
5.34748e-06
5.53479e-06
5.71331e-06
5.88123e-06
6.03672e-06
6.17808e-06
6.30444e-06
6.41512e-06
6.50929e-06
6.58706e-06
6.64519e-06
6.68555e-06
6.71619e-06
6.73274e-06
6.73578e-06
6.72774e-06
6.71023e-06
6.68417e-06
6.65041e-06
6.60997e-06
6.56378e-06
6.51272e-06
6.45739e-06
6.39852e-06
6.33703e-06
6.27319e-06
6.20734e-06
6.13927e-06
6.07222e-06
6.00402e-06
5.92553e-06
3.07916e-06
3.16021e-06
3.26937e-06
3.39452e-06
3.53598e-06
3.69169e-06
3.8566e-06
4.02607e-06
4.19656e-06
4.36509e-06
4.52897e-06
4.68593e-06
4.8341e-06
4.97198e-06
5.09818e-06
5.21142e-06
5.31106e-06
5.39675e-06
5.46809e-06
5.52527e-06
5.56609e-06
5.59236e-06
5.611e-06
5.6185e-06
5.61543e-06
5.6039e-06
5.58531e-06
5.5604e-06
5.52988e-06
5.49456e-06
5.45516e-06
5.41236e-06
5.36661e-06
5.31844e-06
5.26853e-06
5.217e-06
5.16426e-06
5.10979e-06
5.05693e-06
5.00113e-06
4.94274e-06
2.55448e-06
2.63389e-06
2.73753e-06
2.85376e-06
2.98249e-06
3.12189e-06
3.26757e-06
3.4156e-06
3.56305e-06
3.70757e-06
3.84704e-06
3.97973e-06
4.10422e-06
4.21959e-06
4.32504e-06
4.41967e-06
4.50304e-06
4.57496e-06
4.63518e-06
4.68388e-06
4.71939e-06
4.74262e-06
4.75964e-06
4.76738e-06
4.76633e-06
4.75824e-06
4.74426e-06
4.72499e-06
4.70102e-06
4.67302e-06
4.64163e-06
4.6074e-06
4.57073e-06
4.53207e-06
4.49201e-06
4.45072e-06
4.40842e-06
4.36481e-06
4.32195e-06
4.28042e-06
4.22027e-06
2.11818e-06
2.19636e-06
2.29506e-06
2.40338e-06
2.52071e-06
2.64561e-06
2.7746e-06
2.9044e-06
3.03256e-06
3.15708e-06
3.27626e-06
3.38868e-06
3.493e-06
3.58794e-06
3.67256e-06
3.74638e-06
3.80945e-06
3.86215e-06
3.9047e-06
3.93741e-06
3.95938e-06
3.97195e-06
3.97998e-06
3.98108e-06
3.97569e-06
3.96529e-06
3.95083e-06
3.93279e-06
3.91161e-06
3.88777e-06
3.86173e-06
3.83386e-06
3.80445e-06
3.77376e-06
3.7422e-06
3.70973e-06
3.67682e-06
3.64257e-06
3.61037e-06
3.57335e-06
3.54082e-06
1.75668e-06
1.83399e-06
1.92848e-06
2.02981e-06
2.13655e-06
2.24771e-06
2.36103e-06
2.4744e-06
2.58603e-06
2.69418e-06
2.79721e-06
2.89408e-06
2.98451e-06
3.0688e-06
3.14689e-06
3.21753e-06
3.27959e-06
3.33268e-06
3.37678e-06
3.4123e-06
3.43849e-06
3.45549e-06
3.468e-06
3.47397e-06
3.47387e-06
3.46901e-06
3.46022e-06
3.44795e-06
3.43265e-06
3.41481e-06
3.39489e-06
3.37328e-06
3.35028e-06
3.32616e-06
3.30137e-06
3.27605e-06
3.25026e-06
3.22394e-06
3.19757e-06
3.17647e-06
3.12374e-06
1.46045e-06
1.53591e-06
1.62544e-06
1.71973e-06
1.81666e-06
1.91529e-06
2.01406e-06
2.11178e-06
2.20775e-06
2.30117e-06
2.39065e-06
2.47399e-06
2.54868e-06
2.61259e-06
2.66549e-06
2.70962e-06
2.74729e-06
2.77918e-06
2.80535e-06
2.8255e-06
2.83924e-06
2.8476e-06
2.8534e-06
2.85496e-06
2.85255e-06
2.84714e-06
2.83933e-06
2.82941e-06
2.81762e-06
2.80425e-06
2.78955e-06
2.77373e-06
2.75695e-06
2.73933e-06
2.72108e-06
2.70205e-06
2.68286e-06
2.66211e-06
2.64423e-06
2.61605e-06
2.61192e-06
1.21927e-06
1.29096e-06
1.37263e-06
1.45697e-06
1.54265e-06
1.6297e-06
1.71686e-06
1.80243e-06
1.8851e-06
1.96437e-06
2.04087e-06
2.11618e-06
2.19191e-06
2.26871e-06
2.34439e-06
2.41293e-06
2.47025e-06
2.51714e-06
2.55507e-06
2.58554e-06
2.60841e-06
2.6234e-06
2.63447e-06
2.64047e-06
2.64196e-06
2.63996e-06
2.63512e-06
2.62788e-06
2.61862e-06
2.60776e-06
2.59569e-06
2.58277e-06
2.56922e-06
2.55528e-06
2.54131e-06
2.52755e-06
2.51375e-06
2.50064e-06
2.48578e-06
2.48452e-06
2.42557e-06
1.01796e-06
1.08759e-06
1.16145e-06
1.23339e-06
1.30385e-06
1.37538e-06
1.44915e-06
1.5249e-06
1.60092e-06
1.67388e-06
1.73935e-06
1.79308e-06
1.83276e-06
1.85882e-06
1.87627e-06
1.89533e-06
1.92045e-06
1.94746e-06
1.97324e-06
1.99588e-06
2.01499e-06
2.03125e-06
2.04544e-06
2.05649e-06
2.06447e-06
2.06998e-06
2.07339e-06
2.0749e-06
2.07463e-06
2.07278e-06
2.0695e-06
2.06488e-06
2.05905e-06
2.05203e-06
2.04395e-06
2.03455e-06
2.02471e-06
2.01219e-06
2.004e-06
1.97444e-06
2.00677e-06
8.48454e-07
9.2394e-07
9.98853e-07
1.06525e-06
1.12301e-06
1.17576e-06
1.22688e-06
1.27946e-06
1.33665e-06
1.4015e-06
1.47639e-06
1.56232e-06
1.65778e-06
1.75908e-06
1.85796e-06
1.93765e-06
1.99298e-06
2.03458e-06
2.06701e-06
2.09245e-06
2.11055e-06
2.12179e-06
2.12911e-06
2.13213e-06
2.13162e-06
2.12844e-06
2.12319e-06
2.11635e-06
2.10836e-06
2.09966e-06
2.09066e-06
2.08174e-06
2.07314e-06
2.06514e-06
2.05808e-06
2.05242e-06
2.04742e-06
2.04531e-06
2.03877e-06
2.0608e-06
1.97856e-06
7.25528e-07
7.99533e-07
8.72241e-07
9.39145e-07
9.98592e-07
1.05041e-06
1.09364e-06
1.12738e-06
1.15177e-06
1.16805e-06
1.17828e-06
1.18482e-06
1.19009e-06
1.19457e-06
1.20044e-06
1.2217e-06
1.25897e-06
1.30026e-06
1.34163e-06
1.3806e-06
1.41659e-06
1.44966e-06
1.48021e-06
1.5079e-06
1.53252e-06
1.55428e-06
1.57336e-06
1.5898e-06
1.60362e-06
1.61482e-06
1.62341e-06
1.62935e-06
1.63266e-06
1.63319e-06
1.63099e-06
1.62569e-06
1.61827e-06
1.60553e-06
1.59737e-06
1.55421e-06
1.61167e-06
7.86665e-07
8.83568e-07
9.35208e-07
9.44662e-07
9.31251e-07
9.21689e-07
9.39331e-07
9.94773e-07
1.08344e-06
1.1919e-06
1.30567e-06
1.41355e-06
1.50833e-06
1.5878e-06
1.64992e-06
1.68043e-06
1.68248e-06
1.67151e-06
1.65475e-06
1.63504e-06
1.61126e-06
1.58967e-06
1.56614e-06
1.54207e-06
1.51818e-06
1.49467e-06
1.47161e-06
1.44911e-06
1.42723e-06
1.40598e-06
1.38529e-06
1.36511e-06
1.34519e-06
1.32537e-06
1.30561e-06
1.28619e-06
1.26562e-06
1.24639e-06
1.21959e-06
1.22178e-06
1.11295e-06
6.63588
7.6372
6.92179
5.62099
4.10725
2.70225
1.56342
0.740574
0.238619
0.0523029
0.0164533
8.04729e-05
5.72606e-06
7.44229e-05
0.000295318
0.000237039
0.000191614
0.000169891
0.000149305
0.000129926
0.00011281
9.77554e-05
8.44531e-05
7.27609e-05
6.25222e-05
5.35608e-05
4.57511e-05
3.89305e-05
3.30056e-05
2.78631e-05
2.3431e-05
1.96141e-05
1.63537e-05
1.35743e-05
1.12168e-05
9.225e-06
7.54597e-06
6.13531e-06
4.95497e-06
3.96925e-06
3.15092e-06
2.47529e-06
1.91986e-06
1.46767e-06
1.10496e-06
8.1769e-07
6.00211e-07
4.47796e-07
3.55459e-07
3.16792e-07
3.17457e-07
3.32475e-07
3.52027e-07
3.6844e-07
3.79971e-07
3.88121e-07
3.90582e-07
3.9062e-07
3.87514e-07
3.83081e-07
3.77153e-07
3.70919e-07
3.6436e-07
3.57805e-07
3.51894e-07
3.45766e-07
3.41636e-07
3.34446e-07
3.35634e-07
3.20943e-07
3.39869e-07
3.04215e-07
3.77462e-07
3.30065e-07
6.36395
10.2757
9.97797
8.36409
6.43107
4.56967
2.97285
1.7146
0.810321
0.25918
0.0542094
0.0137704
0.00307705
5.20392e-06
3.53696e-05
0.000248456
0.00021604
0.000169701
0.000148767
0.000130925
0.000113625
9.8341e-05
8.49723e-05
7.32087e-05
6.28981e-05
5.38759e-05
4.60182e-05
3.91575e-05
3.3196e-05
2.80221e-05
2.35631e-05
1.97251e-05
1.6446e-05
1.36529e-05
1.1284e-05
9.28334e-06
7.59774e-06
6.18162e-06
4.99716e-06
4.00776e-06
3.18585e-06
2.50815e-06
1.95016e-06
1.49591e-06
1.13143e-06
8.41606e-07
6.2227e-07
4.66356e-07
3.69293e-07
3.24756e-07
3.20577e-07
3.32309e-07
3.50117e-07
3.65676e-07
3.76902e-07
3.85048e-07
3.87745e-07
3.88064e-07
3.85254e-07
3.81162e-07
3.75563e-07
3.69586e-07
3.63306e-07
3.56976e-07
3.51258e-07
3.4527e-07
3.41344e-07
3.3397e-07
3.35697e-07
3.20026e-07
3.40751e-07
3.01469e-07
3.79186e-07
3.28641e-07
4.38296
9.98826
11.6422
10.6897
8.79739
6.71547
4.77313
3.1169
1.80433
0.854364
0.27513
0.0559445
0.0126814
0.00314454
2.26304e-06
4.78663e-06
0.000201987
0.000196828
0.000151637
0.000129897
0.00011444
9.92441e-05
8.55657e-05
7.3705e-05
6.33454e-05
5.42596e-05
4.63312e-05
3.94255e-05
3.34229e-05
2.82143e-05
2.37196e-05
1.98566e-05
1.65538e-05
1.3744e-05
1.13614e-05
9.34989e-06
7.65625e-06
6.23372e-06
5.04379e-06
4.05066e-06
3.22454e-06
2.54381e-06
1.98312e-06
1.5265e-06
1.15945e-06
8.67374e-07
6.45929e-07
4.85215e-07
3.83335e-07
3.33757e-07
3.2372e-07
3.32333e-07
3.48168e-07
3.62979e-07
3.74117e-07
3.81713e-07
3.84996e-07
3.85481e-07
3.83118e-07
3.79312e-07
3.7408e-07
3.68386e-07
3.62399e-07
3.56264e-07
3.50799e-07
3.44811e-07
3.41287e-07
3.33671e-07
3.35873e-07
3.19276e-07
3.41636e-07
2.99065e-07
3.80343e-07
3.274e-07
3.06455
8.57519
11.8064
12.1253
10.8342
8.90109
6.83917
4.90804
3.238
1.89374
0.908646
0.300875
0.0608722
0.0129173
0.00354652
2.71275e-07
1.48999e-05
0.000144146
0.000179734
0.000136776
0.000113195
9.95652e-05
8.66222e-05
7.44264e-05
6.38481e-05
5.47136e-05
4.67315e-05
3.97602e-05
3.36976e-05
2.84436e-05
2.39076e-05
2.00115e-05
1.66797e-05
1.38475e-05
1.14477e-05
9.42274e-06
7.71907e-06
6.2888e-06
5.0925e-06
4.09447e-06
3.26415e-06
2.57981e-06
2.01613e-06
1.55703e-06
1.18737e-06
8.93246e-07
6.69409e-07
5.04947e-07
3.9877e-07
3.44442e-07
3.2895e-07
3.3425e-07
3.47912e-07
3.61722e-07
3.72527e-07
3.7962e-07
3.83217e-07
3.83777e-07
3.8175e-07
3.78127e-07
3.73195e-07
3.6767e-07
3.61908e-07
3.55916e-07
3.50616e-07
3.44627e-07
3.41339e-07
3.33495e-07
3.36105e-07
3.18564e-07
3.42458e-07
2.96634e-07
3.81439e-07
3.26174e-07
2.36134
7.01881
10.9037
12.4784
12.1705
10.7871
8.92241
6.93846
5.04941
3.3821
2.01377
0.991825
0.346369
0.0729443
0.0144332
0.00432909
0
1.0365e-05
9.68941e-05
0.000157843
0.000127346
9.94517e-05
8.59509e-05
7.53517e-05
6.47936e-05
5.52677e-05
4.71272e-05
4.0119e-05
3.4012e-05
2.87021e-05
2.41156e-05
2.01806e-05
1.68171e-05
1.3959e-05
1.15391e-05
9.49878e-06
7.7838e-06
6.34503e-06
5.14208e-06
4.13849e-06
3.30385e-06
2.61575e-06
2.04893e-06
1.58724e-06
1.21514e-06
9.18954e-07
6.92617e-07
5.25333e-07
4.15333e-07
3.56383e-07
3.35977e-07
3.37814e-07
3.49152e-07
3.61715e-07
3.71912e-07
3.78609e-07
3.82244e-07
3.82802e-07
3.80981e-07
3.77461e-07
3.72753e-07
3.67306e-07
3.61697e-07
3.55807e-07
3.50581e-07
3.44608e-07
3.41398e-07
3.33331e-07
3.36297e-07
3.17807e-07
3.43134e-07
2.94093e-07
3.82441e-07
3.24917e-07
2.02176
5.66565
9.46804
11.878
12.6044
12.0485
10.7028
8.95219
7.0676
5.23383
3.57731
2.18588
1.12037
0.423121
0.097976
0.0176932
0.00599744
3.85668e-05
6.33298e-06
3.3188e-05
0.000121064
0.000120061
9.01655e-05
7.34962e-05
6.44627e-05
5.61193e-05
4.78608e-05
4.05424e-05
3.43151e-05
2.89722e-05
2.43488e-05
2.03676e-05
1.69643e-05
1.40764e-05
1.16348e-05
9.57788e-06
7.85031e-06
6.40214e-06
5.19207e-06
4.18283e-06
3.34367e-06
2.65169e-06
2.08164e-06
1.61727e-06
1.24277e-06
9.44453e-07
7.15726e-07
5.45845e-07
4.32385e-07
3.68963e-07
3.44046e-07
3.42347e-07
3.51274e-07
3.62424e-07
3.7183e-07
3.78147e-07
3.81656e-07
3.82164e-07
3.8044e-07
3.76989e-07
3.72411e-07
3.67041e-07
3.61522e-07
3.55691e-07
3.50511e-07
3.44517e-07
3.41358e-07
3.33054e-07
3.36333e-07
3.16928e-07
3.43565e-07
2.91451e-07
3.83157e-07
3.23639e-07
1.91215
4.57407
7.90239
10.6331
12.1606
12.4866
11.8763
10.6321
9.01887
7.24746
5.4802
3.84165
2.42782
1.31129
0.545166
0.146618
0.0270087
0.000736492
0.000848006
1.6645e-06
8.40403e-06
6.21102e-05
0.000108885
8.8794e-05
6.59834e-05
5.45919e-05
4.77213e-05
4.11944e-05
3.48624e-05
2.92922e-05
2.45743e-05
2.05642e-05
1.71322e-05
1.42088e-05
1.17371e-05
9.65959e-06
7.91848e-06
6.46078e-06
5.24313e-06
4.22785e-06
3.38383e-06
2.68779e-06
2.11443e-06
1.64735e-06
1.27044e-06
9.70009e-07
7.39028e-07
5.66636e-07
4.49944e-07
3.82339e-07
3.531e-07
3.47835e-07
3.54224e-07
3.63812e-07
3.72276e-07
3.78108e-07
3.81364e-07
3.81758e-07
3.80036e-07
3.76612e-07
3.72082e-07
3.66776e-07
3.61298e-07
3.55481e-07
3.50331e-07
3.44271e-07
3.41163e-07
3.32614e-07
3.36158e-07
3.15891e-07
3.43703e-07
2.88726e-07
3.83517e-07
3.22322e-07
1.92544
3.71586
6.4278
9.07162
11.0377
12.0858
12.25
11.684
10.5792
9.12259
7.48045
5.79473
4.18573
2.75434
1.58195
0.730565
0.237178
0.047583
0.00476977
0.00272075
1.78551e-06
3.44115e-06
5.20086e-06
6.21442e-05
8.2852e-05
6.4566e-05
4.84811e-05
4.02035e-05
3.48369e-05
2.9799e-05
2.49963e-05
2.08023e-05
1.72856e-05
1.43389e-05
1.18515e-05
9.75298e-06
7.99201e-06
6.52068e-06
5.29458e-06
4.2736e-06
3.42495e-06
2.72459e-06
2.14765e-06
1.67775e-06
1.29842e-06
9.96011e-07
7.62859e-07
5.88148e-07
4.68361e-07
3.96895e-07
3.63405e-07
3.54536e-07
3.58193e-07
3.66043e-07
3.73393e-07
3.78579e-07
3.81453e-07
3.81628e-07
3.79821e-07
3.76349e-07
3.71812e-07
3.66511e-07
3.61032e-07
3.55188e-07
3.50035e-07
3.43886e-07
3.408e-07
3.3201e-07
3.35759e-07
3.14697e-07
3.43524e-07
2.85931e-07
3.83531e-07
3.20919e-07
1.96196
3.04489
5.12098
7.43848
9.49938
10.9914
11.7971
11.9261
11.462
10.5246
9.24547
7.75386
6.1716
4.61148
3.17506
1.94852
1.00415
0.39289
0.0996344
0.0159069
5.62526e-05
0.000737964
2.32131e-07
3.68515e-06
1.35119e-05
5.32413e-05
6.05383e-05
4.67093e-05
3.52607e-05
2.90521e-05
2.49543e-05
2.11985e-05
1.76391e-05
1.45316e-05
1.19538e-05
9.83144e-06
8.0661e-06
6.58758e-06
5.35093e-06
4.32079e-06
3.4662e-06
2.76175e-06
2.1817e-06
1.70908e-06
1.32721e-06
1.02277e-06
7.87482e-07
6.10665e-07
4.87953e-07
4.1282e-07
3.75139e-07
3.62577e-07
3.63315e-07
3.69202e-07
3.75248e-07
3.79607e-07
3.81962e-07
3.81802e-07
3.79813e-07
3.76211e-07
3.71607e-07
3.66246e-07
3.60723e-07
3.54818e-07
3.49619e-07
3.4337e-07
3.40264e-07
3.31243e-07
3.35134e-07
3.13359e-07
3.43017e-07
2.83082e-07
3.83202e-07
3.19378e-07
1.9023
2.47771
3.96642