/*--------------------------------*- C++ -*----------------------------------*\
| =========                 |                                                 |
| \\      /  F ield         | OpenFOAM: The Open Source CFD Toolbox           |
|  \\    /   O peration     | Version:  2312                                  |
|   \\  /    A nd           | Website:  www.openfoam.com                      |
|    \\/     M anipulation  |                                                 |
\*---------------------------------------------------------------------------*/
FoamFile
{
    version     2.0;
    format      ascii;
    arch        "LSB;label=32;scalar=64";
    class       volSymmTensorField;
    location    "950";
    object      turbulenceProperties:R;
}
// * * * * * * * * * * * * * * * * * * * * * * * * * * * * * * * * * * * * * //

dimensions      [0 2 -2 0 0 0 0];

internalField   nonuniform List<symmTensor> 
11040
(
(0.28305 0.0751449 -1.34262e-22 0.246643 9.22676e-21 0.276664)
(0.351272 0.0742519 8.1585e-21 0.226679 1.1466e-19 0.305311)
(0.0545543 0.00593451 -1.80105e-20 0.0404438 5.59572e-20 0.0461337)
(0.0268357 0.00889083 -5.84943e-20 0.0354454 3.31821e-20 0.0305804)
(0.118028 0.0459944 -2.11775e-20 0.249112 1.89928e-19 0.183244)
(0.129615 0.0565432 -2.90115e-19 0.248967 1.05669e-19 0.188291)
(0.12913 0.0591581 1.65992e-19 0.229493 -1.0907e-18 0.178945)
(0.122899 0.0573796 2.30433e-19 0.204407 -1.59765e-19 0.163466)
(0.115167 0.0538829 9.85723e-20 0.179698 -2.85964e-20 0.147316)
(0.110898 0.051741 9.15982e-20 0.163465 1.45546e-19 0.1372)
(0.106271 0.0490784 -8.09872e-20 0.149025 3.45362e-19 0.127649)
(0.102096 0.0465225 -1.20769e-19 0.136596 2.58992e-19 0.119388)
(0.0987243 0.0442643 2.00414e-20 0.126336 -1.48412e-19 0.112616)
(0.0963084 0.0424623 2.49626e-20 0.118309 1.44776e-19 0.107394)
(0.0945517 0.0409468 -1.1206e-20 0.11164 1.09789e-20 0.103214)
(0.0944647 0.0402667 -4.28586e-21 0.107474 -1.86407e-19 0.101099)
(0.0961104 0.0404323 5.14767e-20 0.105508 -7.41362e-22 0.10096)
(0.0997321 0.0415121 -5.03945e-21 0.105742 3.38956e-19 0.102911)
(0.105159 0.0433624 -2.9269e-20 0.107747 2.9698e-21 0.106648)
(0.112437 0.0459485 4.75068e-21 0.111359 -4.95532e-20 0.112121)
(0.121871 0.0493546 2.25353e-20 0.116687 3.80547e-20 0.119516)
(0.13312 0.0534824 -2.47852e-20 0.123629 1.15502e-19 0.128614)
(0.146046 0.0583425 9.67319e-22 0.132312 -9.54959e-20 0.139439)
(0.161009 0.0639895 1.28103e-20 0.142712 2.46392e-19 0.152138)
(0.178148 0.0704343 -7.50573e-20 0.154762 -2.22563e-19 0.166726)
(0.198146 0.0779869 -4.02564e-20 0.169016 -5.22068e-19 0.183828)
(0.220456 0.0864007 1.09575e-20 0.184961 -2.44095e-19 0.202913)
(0.242086 0.0944273 3.27821e-20 0.200144 6.9948e-20 0.221253)
(0.261135 0.101343 -2.22607e-20 0.213117 -2.00739e-19 0.237171)
(0.275364 0.10633 1.3729e-20 0.222252 -4.69806e-19 0.248738)
(0.282417 0.108534 1.19693e-19 0.22584 3.38802e-19 0.253943)
(0.280335 0.107217 2.06009e-20 0.222378 -2.68165e-20 0.251058)
(0.269688 0.1027 1.04742e-19 0.212514 9.53754e-19 0.240687)
(0.254231 0.0966196 -8.9841e-20 0.199504 5.8522e-19 0.226315)
(0.240511 0.0916743 4.65348e-20 0.188772 9.81915e-21 0.213827)
(0.188027 0.0720303 1.27847e-19 0.149125 9.07789e-19 0.167592)
(0.0968425 0.0370401 7.95593e-21 0.0794858 1.70182e-19 0.0873907)
(0.0572353 0.023303 -3.78466e-20 0.0516006 5.23408e-19 0.0532401)
(0.016998 0.0080191 -4.27634e-19 0.0285204 -1.10761e-18 0.0221711)
(0.0589302 -0.0285043 2.01229e-21 0.0916231 -9.27872e-19 0.0733569)
(0.0883449 -0.0202549 1.96585e-19 0.210711 5.30353e-20 0.139582)
(0.0241577 -0.00176643 1.73785e-22 0.0212247 -5.09094e-22 0.0219674)
(0.0597627 0.00139413 2.05988e-20 0.0384385 4.05404e-21 0.0411457)
(0.201433 0.0273597 4.85692e-20 0.111264 -2.56464e-19 0.158317)
(0.397457 0.0304832 7.3305e-20 0.166111 -1.66288e-19 0.28282)
(0.785914 -0.0208589 8.16443e-20 0.299836 -4.86588e-19 0.542247)
(0.247492 -0.0481811 5.58813e-19 0.115868 -1.18672e-18 0.180943)
(0.073841 -0.0187266 -8.13362e-19 0.0398112 3.18767e-18 0.0554984)
(0.0235501 -0.00752353 -8.16977e-19 0.0149101 2.10918e-18 0.019512)
(0.00527568 -0.00220409 -7.36456e-20 0.00458139 -1.50713e-19 0.00510527)
(0.002627 0.00125375 -1.01572e-19 0.00500831 3.95112e-20 0.00398755)
(0.00704474 0.00350547 4.49826e-19 0.0114015 -1.13148e-18 0.00919572)
(0.00984547 0.00489808 -1.61945e-21 0.0147419 -7.25398e-20 0.0121446)
(0.0120085 0.00593667 -1.61966e-19 0.0165727 6.63315e-19 0.0141447)
(0.0136335 0.00665792 -1.09837e-19 0.0178527 3.22006e-20 0.0155163)
(0.0149106 0.00716961 -4.32839e-20 0.0184445 -1.66743e-19 0.0164331)
(0.0161665 0.0076383 1.02965e-20 0.0190014 5.70519e-19 0.017303)
(0.0176479 0.00818692 -1.41223e-20 0.019772 1.90564e-19 0.0183937)
(0.0193747 0.00881995 -8.78168e-21 0.020736 -5.32978e-19 0.0197052)
(0.0211697 0.00945158 -2.28879e-20 0.0217037 -2.46725e-20 0.021045)
(0.0230495 0.0100791 -7.14637e-21 0.0226366 7.96453e-20 0.0224249)
(0.0250595 0.0107154 -1.06167e-20 0.02357 -1.47625e-20 0.023881)
(0.0272403 0.0113881 3.01741e-20 0.0246008 -2.67945e-19 0.0254742)
(0.0290669 0.0119142 2.31223e-20 0.0253983 3.7732e-19 0.02676)
(0.0300321 0.0120909 -4.53503e-20 0.0255036 -3.44293e-19 0.0272905)
(0.0299565 0.0118675 -6.31399e-21 0.0248095 2.7944e-19 0.0269376)
(0.029385 0.011488 7.27983e-20 0.0238236 9.0348e-19 0.0262166)
(0.0285768 0.0110688 1.36412e-19 0.0227909 5.00348e-19 0.0253738)
(0.0267647 0.0103339 -3.35428e-20 0.0211656 1.39617e-19 0.0237752)
(0.0239322 0.00930888 -9.015e-20 0.0190142 2.78475e-19 0.0214596)
(0.0204733 0.00816548 4.39007e-20 0.0167273 4.96568e-19 0.0188112)
(0.0173384 0.00726818 -1.09961e-19 0.0151531 -7.60017e-19 0.0166941)
(0.0156396 0.00707083 -5.59298e-20 0.0155185 -1.24063e-18 0.0162886)
(0.0141214 0.00694786 -1.29616e-19 0.0171725 -2.5989e-18 0.0166638)
(0.0138463 0.00706867 6.84587e-20 0.0211298 -1.29358e-18 0.0188368)
(0.0152057 0.00747483 -9.25652e-20 0.0278104 1.21738e-19 0.0233366)
(0.0181987 0.00823805 -4.39067e-19 0.0372538 -3.97277e-18 0.0303239)
(0.0232165 0.00985095 -6.68805e-20 0.0500609 -3.43663e-19 0.0400024)
(0.0304334 0.0124733 -5.11349e-19 0.0671173 -2.40283e-18 0.0513887)
(0.0458955 0.0157223 1.23884e-18 0.108955 5.36054e-18 0.0829805)
(0.0647025 0.0299809 8.02389e-19 0.119516 4.76483e-18 0.0880033)
(0.244607 -0.112344 -4.02709e-19 0.439541 -6.649e-19 0.412231)
(0.0145939 -0.00148158 -1.88241e-22 0.0129808 -2.70665e-22 0.0139291)
(0.0121871 -0.0019388 -4.96684e-21 0.01264 -1.27164e-20 0.012307)
(0.0339231 0.00357782 1.56432e-20 0.0213094 7.76773e-20 0.0270313)
(0.156526 0.0164455 5.2739e-20 0.0795646 8.15839e-20 0.118993)
(0.906481 0.0479476 -7.42663e-21 0.350129 -3.72508e-20 0.631641)
(1.22638 -0.0347087 -3.02708e-19 0.467993 1.18674e-18 0.84488)
(0.611764 -0.0970897 2.54308e-20 0.267481 9.54488e-21 0.438524)
(0.220231 -0.0536102 9.45165e-20 0.116219 -2.44783e-18 0.162852)
(0.099622 -0.0282697 -1.67005e-19 0.0575312 2.55167e-20 0.0779)
(0.0585596 -0.0174302 2.38679e-19 0.03489 -6.97331e-19 0.0470661)
(0.0321902 -0.0103226 -4.39291e-19 0.0204796 1.03658e-18 0.0264849)
(0.0178544 -0.00616852 7.63386e-19 0.0122688 -2.07916e-18 0.0150411)
(0.00872947 -0.00291897 -3.93243e-20 0.00576857 -6.90433e-20 0.0073444)
(0.0027451 -0.000701703 1.54116e-19 0.00146719 -9.10607e-19 0.00211997)
(0.00261972 0.000882886 2.44987e-20 0.00173639 9.51711e-19 0.00224737)
(0.00505157 0.00203995 -7.88331e-20 0.00418967 -3.63506e-19 0.00467875)
(0.00696987 0.00281891 -3.40437e-21 0.00580313 -6.12041e-19 0.00644507)
(0.00852849 0.00336818 4.18372e-20 0.00687052 -4.37461e-19 0.00776007)
(0.00976869 0.00374171 1.95343e-20 0.00756326 -2.48211e-20 0.00871224)
(0.0107461 0.0039515 2.59757e-20 0.00791102 2.76383e-20 0.00937218)
(0.0115125 0.00403277 2.73145e-21 0.0080225 8.38131e-20 0.00980154)
(0.0120897 0.00396457 -4.42755e-20 0.00786991 1.33474e-19 0.0100214)
(0.012169 0.00363328 -3.7289e-20 0.0072835 -4.40721e-19 0.00977026)
(0.0115797 0.00299725 -3.96221e-20 0.00624509 -1.77077e-19 0.00895078)
(0.0104341 0.00215822 8.29448e-20 0.0049948 -2.78656e-19 0.00773613)
(0.0089492 0.00126076 -1.44996e-20 0.00379986 -2.60616e-19 0.00637459)
(0.00717754 0.000442906 -2.27185e-19 0.00279177 2.65444e-19 0.00495358)
(0.00490513 -0.000164721 -7.82891e-20 0.00189203 -1.07353e-18 0.00332262)
(0.0018458 -0.00038009 1.91902e-19 0.000939599 2.65286e-19 0.00125856)
(0.00138324 -8.70859e-05 2.62064e-19 0.00346527 1.11518e-18 0.002233)
(0.00407157 0.000584164 -1.85378e-19 0.0103822 6.27684e-19 0.00699708)
(0.0080213 0.00125017 4.31185e-19 0.0205357 2.5949e-18 0.0140214)
(0.0134761 0.00264065 1.81707e-19 0.0341588 8.04733e-19 0.0235484)
(0.0206288 0.00489666 -3.96701e-19 0.051489 9.01835e-19 0.0358237)
(0.0298065 0.00817691 -4.78896e-19 0.0730769 -9.50885e-19 0.0513188)
(0.0416002 0.0128015 3.23495e-19 0.100052 1.99607e-18 0.0710733)
(0.0569232 0.0195198 2.9509e-19 0.133437 -2.10006e-18 0.0960309)
(0.0757852 0.0283971 5.39158e-19 0.171226 1.91581e-18 0.123206)
(0.109161 0.03872 -4.3055e-19 0.255101 -9.51978e-19 0.187714)
(0.175889 0.0842131 2.49952e-20 0.310521 -4.99022e-19 0.234617)
(0.191743 0.00608988 4.52696e-19 0.506248 1.68772e-18 0.35126)
(0.0107194 -0.00104057 -5.94951e-23 0.00912199 -2.80625e-22 0.00998069)
(0.00841911 -0.00100205 -1.34079e-22 0.00854031 9.6779e-22 0.0085765)
(0.00660481 -0.0010941 -7.72149e-21 0.00748055 -1.77294e-20 0.00705699)
(0.0126969 0.000779561 -1.05964e-20 0.00928342 -2.0792e-20 0.0109112)
(0.210598 0.0198803 3.71157e-20 0.0898698 4.4025e-20 0.150955)
(1.05276 0.0427306 2.40509e-19 0.402606 8.45385e-21 0.7332)
(1.58163 -0.0446438 2.56028e-19 0.603394 -1.38848e-18 1.08972)
(1.03276 -0.136948 9.01218e-19 0.431552 -1.40997e-18 0.738385)
(0.410878 -0.0941172 -4.0975e-19 0.209322 1.22284e-18 0.301084)
(0.213077 -0.0574002 2.31105e-19 0.11876 3.98527e-19 0.163668)
(0.123887 -0.0357384 -3.52144e-19 0.0721944 1.12038e-18 0.0979726)
(0.0810189 -0.025532 -5.78835e-19 0.0508058 1.2586e-18 0.0659668)
(0.0559471 -0.0185101 4.64118e-19 0.0366938 -9.49799e-19 0.0464683)
(0.039073 -0.0135622 -1.17299e-19 0.0269892 9.34793e-19 0.032933)
(0.0288858 -0.0101826 -1.99553e-19 0.0202754 -1.054e-18 0.0245519)
(0.021958 -0.00770728 -1.12039e-19 0.0153487 -4.55231e-19 0.0186092)
(0.0178239 -0.0061234 5.33784e-20 0.0121759 2.24638e-19 0.0149641)
(0.0152791 -0.00502655 1.14439e-19 0.00998409 1.31308e-20 0.0126192)
(0.0139184 -0.00439116 3.10652e-20 0.00874657 5.33937e-20 0.0113162)
(0.0135012 -0.00412277 -1.21213e-20 0.0082384 -7.68743e-20 0.0108744)
(0.0136632 -0.00414571 -2.72684e-20 0.0082938 -1.958e-19 0.0109777)
(0.0144413 -0.00440767 2.65374e-20 0.00880945 -2.78982e-19 0.0116259)
(0.0159134 -0.00496238 2.30999e-20 0.00988789 -1.26442e-19 0.0129082)
(0.0178507 -0.00581321 8.7195e-21 0.0115399 1.17425e-19 0.0147124)
(0.0197231 -0.0067774 -6.83668e-20 0.0134562 7.06941e-19 0.0166051)
(0.0211099 -0.00767665 2.52268e-19 0.0153359 -8.06859e-19 0.0182369)
(0.0216241 -0.00837437 1.80568e-19 0.0169877 -6.21754e-19 0.0193214)
(0.0209016 -0.00874006 1.98992e-19 0.0183453 1.52111e-18 0.0196435)
(0.0187867 -0.00863727 -6.32627e-20 0.0196329 4.05541e-19 0.0192339)
(0.0159043 -0.00796673 -5.57024e-19 0.0219431 -5.9438e-19 0.018953)
(0.0143066 -0.00664152 1.77792e-19 0.0278899 -1.0762e-18 0.0211342)
(0.0164446 -0.00444915 -4.48535e-19 0.040477 6.55043e-19 0.0285032)
(0.0230625 -0.000889626 3.95805e-19 0.0607531 -5.55762e-19 0.0419619)
(0.0342752 0.00432318 4.5053e-19 0.0891569 -1.41472e-18 0.0617659)
(0.0502203 0.0114882 4.44023e-19 0.126227 8.25085e-19 0.0882333)
(0.0716511 0.0210711 4.7664e-19 0.173785 1.78746e-18 0.122857)
(0.0999453 0.0343627 3.88535e-19 0.233488 1.88054e-18 0.167212)
(0.135449 0.0524491 -5.80327e-19 0.300567 -2.34641e-18 0.216172)
(0.187641 0.0713658 2.88286e-20 0.425685 -8.14242e-19 0.312755)
(0.313504 0.15207 -1.98593e-19 0.543379 -1.68686e-18 0.416435)
(0.231307 0.0874238 -4.84034e-19 0.525486 -8.10846e-19 0.384712)
(0.00799899 -0.000751389 5.32139e-22 0.00681182 1.2801e-21 0.00739965)
(0.00683662 -0.000819855 -8.29927e-22 0.0065368 -1.64338e-21 0.00665721)
(0.00684506 -0.000894626 4.50059e-21 0.00738571 9.14668e-21 0.00711265)
(0.00337215 -0.000387361 5.14824e-21 0.00375219 9.0544e-21 0.00355193)
(0.0052775 0.000157633 -4.88543e-21 0.00423101 -7.26403e-21 0.00473425)
(0.190313 0.0147056 3.28142e-20 0.0776379 -1.07727e-20 0.134203)
(1.00257 0.030209 -7.26759e-20 0.381573 -8.86627e-21 0.697301)
(1.78706 -0.0470505 -2.52631e-19 0.681326 3.16911e-19 1.231)
(1.50609 -0.167498 4.03309e-19 0.611292 -1.81065e-19 1.06815)
(0.721512 -0.151905 9.70041e-21 0.349391 1.78484e-19 0.530731)
(0.367749 -0.0959165 3.61366e-19 0.201627 -2.34348e-18 0.277773)
(0.216878 -0.0617865 -2.57351e-19 0.125395 3.9735e-19 0.170271)
(0.146574 -0.0449125 -2.90974e-19 0.0895239 2.32502e-19 0.118634)
(0.103481 -0.0339682 3.36612e-19 0.0673895 -2.32002e-18 0.0855646)
(0.0786169 -0.0272566 2.6703e-19 0.0541495 1.32919e-19 0.0664142)
(0.0617737 -0.0221366 1.68689e-19 0.0441471 1.7744e-19 0.0529288)
(0.0515926 -0.0189368 -1.56902e-19 0.0379223 6.28962e-19 0.0447081)
(0.0450271 -0.0167233 -1.0322e-20 0.0335596 1.38023e-19 0.0392782)
(0.0410661 -0.0154359 3.6855e-20 0.0310713 -6.70308e-20 0.036033)
(0.0390502 -0.0148266 4.76276e-20 0.0299125 4.97988e-20 0.0344731)
(0.0381527 -0.0146638 -1.01211e-20 0.029694 2.31536e-19 0.033902)
(0.0382409 -0.0148032 -8.94642e-20 0.0300441 2.29277e-19 0.0341202)
(0.0393708 -0.0152733 1.22861e-19 0.0310207 1.75568e-19 0.0351708)
(0.0413101 -0.0160956 1.515e-19 0.032734 4.02309e-19 0.0370065)
(0.0433427 -0.0170636 -1.78612e-19 0.0348298 -9.85373e-20 0.0390743)
(0.0448692 -0.0179892 -1.33893e-19 0.0369863 2.04607e-18 0.0409202)
(0.0452861 -0.0186963 8.27091e-20 0.0389842 -3.14669e-20 0.0421318)
(0.0439687 -0.0189821 -2.96271e-19 0.0407065 -8.33933e-19 0.0423404)
(0.0404929 -0.0186186 -5.04469e-19 0.0423535 -1.60995e-18 0.0414334)
(0.0351534 -0.0173452 3.66208e-19 0.0449199 -6.63156e-19 0.0400576)
(0.0299017 -0.0148328 1.2246e-19 0.0510895 1.76299e-18 0.0405262)
(0.028833 -0.0106527 2.6367e-19 0.0656305 -1.06702e-18 0.0472716)
(0.0356265 -0.00428675 -2.32901e-19 0.092795 2.96874e-18 0.0642723)
(0.0511746 0.00476033 -8.99829e-19 0.133958 1.46137e-19 0.0926311)
(0.0752227 0.0169834 -3.35837e-19 0.189321 6.21251e-19 0.132281)
(0.108328 0.0330492 -4.56803e-19 0.260755 7.42998e-19 0.184724)
(0.152344 0.0549109 -6.75097e-20 0.350315 -3.61335e-20 0.251995)
(0.2093 0.085404 2.24166e-20 0.451992 7.3672e-20 0.3281)
(0.278831 0.115072 -3.24884e-20 0.606387 1.62764e-18 0.45014)
(0.46094 0.224323 -3.81363e-20 0.797496 -1.11748e-18 0.613866)
(0.354775 0.172896 6.37113e-19 0.650037 -7.47512e-19 0.512283)
(0.00579189 -0.000515911 -5.25389e-22 0.00488997 -8.93403e-22 0.00534627)
(0.00508013 -0.000610099 2.71134e-21 0.00473744 4.42825e-21 0.00489982)
(0.00470624 -0.000598483 -1.33521e-21 0.00484667 -2.91339e-21 0.00477097)
(0.00497277 -0.000631733 -1.31098e-21 0.00559471 -3.50196e-21 0.00528872)
(0.0015648 -9.46594e-05 3.00028e-22 0.00168431 7.22594e-22 0.00162382)
(0.00122199 7.07315e-06 -1.54144e-22 0.00110515 -1.5255e-22 0.00116094)
(0.129181 0.00767441 -2.34506e-20 0.0521558 -2.41123e-20 0.0905434)
(0.803865 0.0180417 -7.95483e-20 0.30542 9.83166e-20 0.557679)
(1.81363 -0.0451914 -1.68458e-19 0.690452 -1.6228e-19 1.25212)
(1.93452 -0.179008 -3.68253e-19 0.769845 -9.65118e-19 1.35736)
(1.20455 -0.221201 3.74555e-19 0.548432 5.61883e-19 0.885498)
(0.591531 -0.147709 6.02218e-19 0.315851 -8.28403e-19 0.441835)
(0.355174 -0.100745 -8.05302e-19 0.205519 6.1991e-19 0.276361)
(0.234309 -0.0705539 3.5137e-19 0.141292 1.0788e-18 0.18776)
(0.168949 -0.0550731 1.85019e-20 0.109183 4.76138e-19 0.139608)
(0.128081 -0.0441925 -2.27436e-19 0.0877064 -8.55911e-20 0.108119)
(0.103891 -0.0376152 1.59861e-19 0.0751304 -8.94142e-19 0.0894504)
(0.0886367 -0.0330593 -3.40629e-20 0.0663955 5.81627e-19 0.0775013)
(0.0790926 -0.0302505 7.02467e-20 0.0611679 -1.10605e-19 0.070077)
(0.0738141 -0.0287597 4.66743e-20 0.0584732 2.02664e-19 0.0661489)
(0.0708926 -0.0280771 -6.28451e-20 0.0574387 -2.92296e-19 0.0641489)
(0.0698316 -0.0279074 2.97952e-20 0.0572967 1.18651e-20 0.0635576)
(0.0704423 -0.028218 1.40932e-20 0.0579954 1.01397e-19 0.0642055)
(0.0723995 -0.0290451 -2.95641e-19 0.0597302 -3.40566e-19 0.0660581)
(0.0747484 -0.0301288 3.21693e-19 0.0620878 -8.01785e-19 0.06841)
(0.0766459 -0.0312321 4.45914e-20 0.0646899 -4.29956e-19 0.0706595)
(0.0771526 -0.0320892 -5.36515e-19 0.0671828 -4.30999e-19 0.0721598)
(0.0752037 -0.0323646 5.26397e-20 0.0692505 -9.72504e-19 0.0722212)
(0.0698803 -0.031663 8.48207e-19 0.0708622 -1.1853e-19 0.0703704)
(0.0610186 -0.0295301 3.37951e-19 0.0728084 1.42491e-18 0.0669251)
(0.0504572 -0.0254165 -4.12712e-19 0.0778953 -7.78354e-19 0.0641992)
(0.0439138 -0.0187005 -4.95734e-19 0.0927355 6.37489e-19 0.0683546)
(0.0490365 -0.00870753 -2.14285e-19 0.12576 -3.16143e-18 0.0874554)
(0.0688141 0.00531621 7.78056e-19 0.180536 -1.96964e-18 0.124739)
(0.102411 0.0241189 6.25886e-19 0.25659 -1.79555e-18 0.179496)
(0.149618 0.0485729 -1.33945e-19 0.354886 -6.42221e-20 0.252482)
(0.212516 0.0812872 1.39557e-19 0.477136 1.44714e-18 0.345598)
(0.294949 0.126626 4.26424e-20 0.616235 -8.19632e-19 0.452623)
(0.38379 0.170143 -2.43201e-19 0.79171 7.50125e-19 0.596104)
(0.605813 0.296076 -5.51847e-19 1.04473 1.77955e-18 0.80884)
(0.529906 0.267338 -5.41345e-19 0.855971 -8.86669e-19 0.702649)
(0.0042069 -0.00035175 -1.26681e-22 0.00350928 -2.3353e-22 0.00386137)
(0.00386212 -0.000441707 2.95249e-22 0.00351453 3.48254e-22 0.00368842)
(0.00347439 -0.00044122 -1.38667e-21 0.00345272 -1.84791e-21 0.00346236)
(0.00354053 -0.000458989 -2.20081e-21 0.00383901 -2.75987e-21 0.00368744)
(0.00354707 -0.000402782 -7.54918e-22 0.00407949 -8.81818e-22 0.00381543)
(0.000713186 -1.973e-05 2.05243e-22 0.000745241 2.84186e-22 0.00072928)
(3.25311e-05 -2.70385e-08 -4.85948e-25 3.23338e-05 -7.35516e-25 3.24267e-05)
(0.0599237 0.00234175 1.85696e-20 0.02517 2.0451e-20 0.0423895)
(0.539923 0.00810418 2.38339e-19 0.205065 2.29582e-19 0.373445)
(1.57982 -0.0391249 -1.70562e-19 0.600784 3.89215e-19 1.09347)
(2.19076 -0.164071 -2.72973e-19 0.859042 6.47456e-19 1.5221)
(1.78259 -0.272758 2.73446e-19 0.767983 -1.06846e-18 1.29068)
(0.992576 -0.230804 4.38578e-19 0.503215 1.32043e-18 0.746637)
(0.546464 -0.151558 -7.84356e-19 0.313011 -2.96697e-19 0.418176)
(0.357526 -0.107936 3.32755e-19 0.216768 -1.3416e-18 0.284871)
(0.256932 -0.0824056 -2.22425e-19 0.163591 7.69054e-19 0.21085)
(0.195905 -0.0673898 1.37956e-19 0.133691 7.54502e-19 0.165233)
(0.158296 -0.0573142 1.58075e-19 0.114353 3.88582e-19 0.136564)
(0.135111 -0.0509851 -8.2371e-20 0.102709 3.43358e-19 0.11883)
(0.122201 -0.0474489 9.17961e-21 0.0963667 -9.93777e-19 0.109272)
(0.114866 -0.0455975 2.16525e-20 0.0933789 4.24061e-19 0.104064)
(0.111662 -0.0448436 -1.30822e-19 0.0922643 -8.38186e-21 0.101945)
(0.111532 -0.0449469 1.23186e-19 0.0926191 -4.77623e-19 0.102056)
(0.113737 -0.0458807 2.03774e-19 0.0945785 -7.07641e-20 0.104153)
(0.116848 -0.0472495 -1.78749e-19 0.0975059 1.03302e-18 0.107175)
(0.119612 -0.0487122 -3.23497e-19 0.100862 -9.07791e-19 0.110235)
(0.120635 -0.0498712 4.11795e-19 0.104057 -5.41926e-19 0.112344)
(0.118259 -0.050211 2.09039e-19 0.106443 1.63862e-18 0.112347)
(0.110842 -0.049113 1.44367e-19 0.10756 1.79562e-18 0.1092)
(0.0975025 -0.0459021 -2.0398e-19 0.107772 -3.26497e-19 0.102648)
(0.0794615 -0.0397809 -2.03121e-20 0.109535 -1.18568e-18 0.0945229)
(0.0633281 -0.029885 -4.05105e-19 0.120585 -3.56516e-19 0.0919862)
(0.0621235 -0.0153034 -1.92432e-19 0.154867 1.48904e-18 0.108555)
(0.0841633 0.00500392 9.45108e-20 0.221258 2.28782e-18 0.152778)
(0.128005 0.0320522 1.3451e-18 0.318364 7.60433e-19 0.223174)
(0.191391 0.066855 2.24089e-19 0.444445 -8.486e-19 0.318191)
(0.27577 0.112406 -1.56949e-18 0.599374 -7.46274e-19 0.438298)
(0.385478 0.173381 1.87259e-20 0.774285 -2.11578e-19 0.576932)
(0.4979 0.233094 -1.79575e-20 0.967159 -1.87753e-18 0.740458)
(0.740392 0.36472 -1.35193e-19 1.25706 6.01327e-19 0.983816)
(0.723744 0.365558 4.31497e-19 1.09356 1.59522e-18 0.914017)
(0.00308076 -0.000246127 -2.6175e-23 0.00255033 -5.17558e-24 0.00281893)
(0.00291499 -0.000315142 -5.37806e-22 0.00259367 -7.32233e-22 0.00275373)
(0.00276401 -0.00034516 5.22029e-22 0.00266165 7.05769e-22 0.00271193)
(0.00255388 -0.000328835 2.38941e-21 0.00265947 3.19972e-21 0.00260476)
(0.00265648 -0.000336422 4.74371e-22 0.00298727 6.60032e-22 0.00281877)
(0.00271811 -0.000292721 4.0654e-22 0.00319633 2.1588e-22 0.00295775)
(0.000135426 -7.02229e-07 -1.4219e-23 0.000136828 -1.56785e-23 0.000136135)
(1.65672e-06 -4.81346e-10 -1.03759e-27 1.65662e-06 -7.07732e-28 1.65665e-06)
(0.0175897 0.000182802 -9.30384e-21 0.00888756 -1.34103e-20 0.0131696)
(0.290962 0.00173323 1.71426e-19 0.110612 1.93289e-19 0.200747)
(1.13989 -0.0279724 -2.78237e-19 0.433477 -6.84896e-19 0.788922)
(2.13976 -0.137533 -1.03962e-19 0.831583 8.52135e-19 1.48465)
(2.27055 -0.279224 1.45789e-19 0.937547 -1.02428e-18 1.60957)
(1.58773 -0.320141 -3.52376e-19 0.74857 -3.91086e-19 1.18367)
(0.880747 -0.233633 9.34159e-19 0.485631 -2.74383e-19 0.674252)
(0.535227 -0.160559 3.8275e-19 0.325091 8.29948e-19 0.420508)
(0.374174 -0.119492 -3.49919e-19 0.237978 5.14421e-19 0.304786)
(0.285257 -0.0969142 -3.8015e-19 0.192061 4.37939e-19 0.23961)
(0.229524 -0.0829262 -6.11012e-19 0.165359 -3.62263e-20 0.197899)
(0.196345 -0.0743596 4.77795e-19 0.149796 -6.06824e-19 0.173309)
(0.177224 -0.0694926 1.92636e-19 0.141653 8.40195e-19 0.15934)
(0.168661 -0.0673443 -3.50425e-19 0.138234 -2.04581e-19 0.153381)
(0.166409 -0.0668741 1.22893e-19 0.137652 3.52639e-19 0.151956)
(0.168629 -0.0678737 9.21994e-20 0.139793 2.33967e-19 0.154166)
(0.172916 -0.0696647 1.74645e-20 0.143533 -3.75579e-19 0.158199)
(0.177299 -0.0717142 -2.3482e-20 0.148015 5.28901e-19 0.162644)
(0.179707 -0.0734222 3.37149e-19 0.152262 1.37537e-18 0.165987)
(0.177678 -0.0740241 3.07511e-19 0.15511 -5.45136e-19 0.166407)
(0.168487 -0.0725705 -4.53829e-19 0.155353 3.85944e-20 0.16194)
(0.150241 -0.0681408 -9.87473e-19 0.152634 -1.14319e-18 0.151467)
(0.122769 -0.0596432 2.51163e-19 0.148275 7.26052e-20 0.135566)
(0.0916193 -0.0459142 5.65843e-19 0.149135 -1.05276e-18 0.120424)
(0.0746709 -0.0257675 6.30155e-19 0.174051 3.29103e-19 0.124437)
(0.0926104 0.00210162 -4.23498e-19 0.244093 -1.75285e-19 0.168432)
(0.145618 0.0389052 -7.67037e-19 0.358909 1.51882e-18 0.252274)
(0.226464 0.0856477 -6.10028e-19 0.510595 -1.43097e-18 0.368847)
(0.333898 0.145136 9.63697e-19 0.694602 -2.18845e-19 0.514828)
(0.470283 0.220781 3.16484e-20 0.898917 3.64462e-19 0.682165)
(0.609993 0.296945 2.00742e-19 1.10688 -3.53891e-19 0.86458)
(0.851807 0.424292 -1.49319e-19 1.39713 -8.33637e-19 1.1141)
(0.901842 0.45343 -4.53735e-19 1.30375 5.40257e-19 1.10087)
(0.00228193 -0.000174792 -8.44695e-23 0.00187765 -2.84351e-23 0.00208215)
(0.00218774 -0.00022553 -4.52168e-22 0.00191501 -7.04342e-22 0.00205102)
(0.00212276 -0.000255183 1.89057e-21 0.00198772 2.1529e-21 0.00205504)
(0.00203274 -0.000262126 -2.54603e-22 0.00204358 -3.2395e-22 0.00203822)
(0.00188563 -0.00023828 6.67402e-22 0.00203195 6.20265e-22 0.00195785)
(0.00204974 -0.000258564 -6.70463e-22 0.00237957 -6.10473e-22 0.00221191)
(0.00193929 -0.000183216 1.36991e-21 0.00229688 1.83563e-21 0.00211747)
(0.000282029 -3.24e-06 3.34033e-23 0.00028975 2.8017e-23 0.000285927)
(0.000255886 -6.25328e-06 1.70802e-24 0.000265885 3.05385e-23 0.000260872)
(0.000565616 -3.68206e-06 2.43631e-22 0.000521183 2.16096e-22 0.000542903)
(0.111633 -0.000830797 -4.99316e-21 0.0427464 5.20484e-21 0.076977)
(0.655586 -0.017487 -3.20574e-19 0.249649 -2.1579e-19 0.4531)
(1.7008 -0.0988072 2.00036e-19 0.657604 -3.95246e-19 1.18081)
(2.4456 -0.244627 -4.89674e-19 0.983143 9.27376e-19 1.71171)
(2.21884 -0.365825 -2.55787e-19 0.97647 -9.30709e-19 1.61161)
(1.45133 -0.345891 5.46662e-19 0.7426 7.42571e-19 1.1082)
(0.838351 -0.243265 3.39751e-19 0.494762 -1.54326e-18 0.654043)
(0.546457 -0.17445 1.64413e-19 0.349936 5.74549e-19 0.43963)
(0.404055 -0.136165 -7.33507e-19 0.270481 -1.12116e-18 0.336556)
(0.32329 -0.115811 2.97223e-19 0.230463 1.18734e-18 0.278057)
(0.275193 -0.104209 7.40811e-20 0.20985 -8.73689e-19 0.243035)
(0.251531 -0.0985596 -3.26947e-19 0.200708 4.28998e-19 0.226314)
(0.242358 -0.0964512 2.45301e-19 0.197709 5.31705e-21 0.219941)
(0.242615 -0.0970702 -4.22901e-20 0.199435 2.70446e-20 0.220899)
(0.247762 -0.0992184 -8.92711e-20 0.20391 7.35045e-19 0.225744)
(0.254139 -0.101896 1.08648e-19 0.209511 -1.75053e-19 0.231757)
(0.25871 -0.104235 -7.64549e-19 0.214765 6.27608e-21 0.236697)
(0.258161 -0.105238 -3.73679e-19 0.218009 1.90427e-19 0.238072)
(0.248631 -0.103649 -1.9388e-19 0.217263 -1.21738e-18 0.232967)
(0.226508 -0.0980888 9.46348e-19 0.210796 1.01139e-19 0.218715)
(0.189444 -0.0870849 1.59448e-19 0.197996 8.15552e-19 0.193827)
(0.1393 -0.0690993 2.89949e-19 0.182149 9.01589e-19 0.160847)
(0.0921809 -0.0426741 -6.00613e-19 0.18023 2.67897e-19 0.13634)
(0.0886618 -0.00635743 4.92467e-19 0.232796 -1.19489e-18 0.160857)
(0.145402 0.041079 2.81407e-19 0.355158 -1.41814e-19 0.250349)
(0.243761 0.100364 1.01496e-18 0.526429 3.16046e-19 0.385439)
(0.374458 0.173315 -1.48517e-18 0.732168 4.5922e-19 0.553726)
(0.53505 0.260951 -1.38762e-19 0.955711 1.11073e-19 0.74369)
(0.700634 0.349853 2.90716e-19 1.17266 4.58476e-19 0.940264)
(0.926142 0.465542 4.6624e-19 1.43514 1.40778e-20 1.17596)
(1.02681 0.5128 9.45737e-20 1.42241 -1.18865e-18 1.21546)
(0.00169844 -0.000125633 -3.32195e-22 0.00139113 -3.86576e-22 0.00154646)
(0.0016426 -0.00016249 1.34533e-21 0.00142072 1.40655e-21 0.00153172)
(0.00160956 -0.000186614 -3.15203e-22 0.00147612 -2.78488e-22 0.00154285)
(0.00157819 -0.00019955 -2.47697e-21 0.0015409 -2.61486e-21 0.00155963)
(0.00151584 -0.000196042 -2.32871e-22 0.00157726 -3.12263e-22 0.00154667)
(0.00142384 -0.000175987 2.43123e-21 0.00157518 2.60259e-21 0.00149904)
(0.00154321 -0.000187672 -7.00527e-22 0.00183165 -9.23355e-22 0.0016855)
(0.00138165 -0.000115149 -4.75047e-21 0.00164426 -4.72761e-21 0.00151194)
(0.000471054 -1.01712e-05 4.57458e-22 0.000499645 4.42426e-22 0.000485415)
(6.61405e-05 -2.63669e-07 7.79772e-25 6.68283e-05 -7.441e-25 6.64881e-05)
(0.00136314 -0.000254428 -1.06303e-21 0.00107142 -1.75537e-21 0.00121033)
(0.0245409 -0.000824975 -8.69125e-21 0.010189 -4.93021e-21 0.0172782)
(0.284523 -0.00944894 -1.89412e-19 0.108726 -1.25039e-19 0.196418)
(1.06146 -0.0588105 1.73623e-19 0.409711 -1.33733e-19 0.736475)
(2.12172 -0.184213 -6.4153e-19 0.840711 6.73985e-19 1.48071)
(2.58984 -0.341235 5.97642e-19 1.08416 -3.97955e-19 1.83644)
(2.15806 -0.428338 -5.02498e-19 1.0114 7.53068e-19 1.60325)
(1.39471 -0.370565 -1.08413e-19 0.763656 -1.80661e-19 1.08668)
(0.845594 -0.262906 -2.39341e-19 0.528957 -3.56419e-19 0.673479)
(0.579629 -0.195688 2.87871e-19 0.391668 -1.03477e-18 0.477068)
(0.451404 -0.160776 4.52434e-19 0.320521 3.27179e-19 0.385312)
(0.386363 -0.144685 -2.42405e-19 0.290301 -9.93514e-19 0.339707)
(0.355518 -0.137705 -2.26056e-19 0.279096 4.47224e-19 0.318123)
(0.345703 -0.136284 7.01187e-19 0.278135 -5.83386e-19 0.312224)
(0.348126 -0.138157 -4.11772e-19 0.282834 4.92059e-20 0.315449)
(0.356434 -0.141658 -5.63263e-19 0.290233 -3.68237e-19 0.323158)
(0.365074 -0.145191 1.00061e-18 0.297545 -1.41331e-18 0.331147)
(0.368226 -0.146976 -2.29346e-20 0.301627 1.06661e-18 0.334824)
(0.360362 -0.145305 1.57887e-22 0.29948 -6.45433e-20 0.329887)
(0.336662 -0.138573 -5.99505e-19 0.288449 1.05164e-18 0.312582)
(0.292819 -0.125059 6.47339e-20 0.2661 -6.34358e-19 0.279551)
(0.225825 -0.102767 -1.27626e-20 0.230953 3.25417e-19 0.228551)
(0.140211 -0.0699308 -6.80628e-19 0.188294 -5.74149e-19 0.164485)
(0.0750297 -0.025094 3.67176e-19 0.176656 1.7097e-18 0.12613)
(0.113852 0.0327193 -5.18471e-19 0.277382 2.80259e-19 0.19589)
(0.228769 0.103578 -4.88592e-19 0.458758 2.03723e-21 0.34424)
(0.382369 0.187489 6.92079e-19 0.676748 -1.83728e-18 0.529971)
(0.563644 0.282675 -6.99615e-20 0.907642 7.62682e-19 0.73466)
(0.747891 0.377105 -1.57755e-19 1.12409 -9.13366e-19 0.937464)
(0.948057 0.476279 -1.37203e-18 1.34693 -6.66107e-19 1.14735)
(1.07185 0.528945 -3.2639e-19 1.39697 -1.8916e-19 1.22129)
(0.00126889 -9.13322e-05 -2.94629e-22 0.00103587 -2.39613e-22 0.00115352)
(0.00123434 -0.00011805 -1.23003e-21 0.00105834 -1.10884e-21 0.0011465)
(0.0012168 -0.000136581 -6.78278e-23 0.00109903 -1.86631e-22 0.00115795)
(0.00120332 -0.000148553 -2.00311e-22 0.0011489 -1.69264e-22 0.00117616)
(0.00118615 -0.000153224 1.75763e-21 0.00119927 1.73148e-21 0.00119275)
(0.00114215 -0.000145814 9.40456e-22 0.00122141 7.65393e-22 0.00118185)
(0.00109491 -0.000132689 -1.30475e-21 0.00123701 -1.24747e-21 0.00116579)
(0.00113379 -0.000128523 -9.75375e-22 0.00136061 -3.71282e-22 0.00124618)
(0.00111272 -9.47525e-05 -6.25201e-22 0.00136068 -6.31025e-22 0.00123545)
(0.000613282 -2.04351e-05 -1.06158e-21 0.000680918 -1.04697e-21 0.000647058)
(4.43423e-05 -1.00213e-07 -1.53266e-24 4.46862e-05 -1.05257e-24 4.45158e-05)
(0.000221682 -6.68528e-06 -2.20186e-23 0.00023469 -1.00242e-23 0.000228235)
(0.000205166 -2.09031e-06 8.57094e-23 0.000195368 8.3625e-23 0.000200183)
(0.0766895 -0.00383819 -2.76442e-19 0.0297017 -2.27884e-19 0.0530297)
(0.48524 -0.0279226 7.30438e-19 0.18768 6.29377e-19 0.336349)
(1.39861 -0.111975 -3.43101e-19 0.550413 -4.10676e-19 0.975202)
(2.38488 -0.265394 1.4847e-18 0.971559 9.143e-19 1.67593)
(2.66368 -0.421038 6.33265e-19 1.16157 7.6967e-19 1.91491)
(2.151 -0.481183 -1.8342e-18 1.06357 -2.64225e-19 1.62774)
(1.41733 -0.405999 5.95926e-19 0.819358 -1.17464e-18 1.12501)
(0.899693 -0.297014 2.83219e-19 0.594837 1.41825e-18 0.733098)
(0.653681 -0.232684 -5.71441e-20 0.467886 -7.99149e-19 0.550207)
(0.551846 -0.203831 5.75706e-19 0.4091 6.21192e-19 0.478865)
(0.507874 -0.192784 -3.43199e-19 0.388063 -6.80885e-19 0.449977)
(0.4922 -0.190641 3.92964e-19 0.386135 5.01142e-20 0.440917)
(0.493624 -0.193181 -5.54627e-19 0.393045 8.497e-19 0.444141)
(0.503139 -0.197447 1.07937e-19 0.402391 7.24301e-19 0.452945)
(0.511839 -0.200683 -1.831e-19 0.408998 -1.87814e-18 0.460272)